{"cas_no": "100-82-3", "cn_name": "3-\u6c1f\u82c4\u80fa", "en_name": ["3-Fluorobenzylamine", "Benzenemethanamine, 3-fluoro-", "Benzylamine, m-fluoro-", "3-Fluorobenzenemethanamine", "m-Fluorobenzylamine", "3-Fluorobenzylamine", "3-Fluorophenylmethylamine", "(3-Fluorophenyl)methanamine", "1-(3-Fluorophenyl)methanamine"], "SMILES": "C(N)C1=CC(F)=CC=C1", "physical_data": {"Molecular Weight": "125.14", "Molecular Formula": "C7H8FN", "Melting Point": "247-248 \u00b0C"}}