{"cas_no": "100-31-2", "cn_name": "4,4'-\u4e8c\u82ef\u4e59\u70ef\u4e8c\u7fa7\u9178", "en_name": ["4,4\u2032-(1,2-Ethenediyl)bis[benzoic acid]", "Benzoic acid, 4,4\u2032-(1,2-ethenediyl)bis-", "4,4\u2032-Stilbenedicarboxylic acid", "4,4\u2032-(1,2-Ethenediyl)bis[benzoic acid]", "4,4\u2032-Dicarboxystilbene", "NSC 40932"], "SMILES": "C(O)(=O)C1=CC=C(C=CC2=CC=C(C(O)=O)C=C2)C=C1", "physical_data": {"Molecular Weight": "268.26", "Molecular Formula": "C16H12O4", "Melting Point": "352-354 \u00b0C"}}