{"cas_no": "100-37-8", "cn_name": "\u4e8c\u4e59\u6c28\u57fa\u4e59\u9187", "en_name": ["Diethylethanolamine", "Ethanol, 2-(diethylamino)-", "2-(Diethylamino)ethanol", "(Diethylamino)ethanol", "Diethylethanolamine", "2-Hydroxytriethylamine", "N,N-Diethylethanolamine", "Diethyl(\u03b2-hydroxyethyl)amine", "DEAE", "\u03b2-(Diethylamino)ethanol", "2-(N,N-Diethylamino)ethanol", "N,N-Diethyl-2-aminoethanol", "2-(Diethylamino)ethyl alcohol", "Pennad 150", "N,N-Diethyl(2-hydroxyethyl)amine", "N,N-Diethylmonoethanolamine", "(2-Hydroxyethyl)diethylamine", "Diethylmonoethanolamine", "N-(2-Hydroxyethyl)diethylamine", "MKS", "DEEA", "NSC 8759", "A 22", "A 22 (amine)", "2-(N,N-Diethyl)ethanolamine", "Diethyl(2-hydroxyethyl)amine", "Amino Alcohol 2A"], "SMILES": "N(CCO)(CC)CC", "physical_data": {"Molecular Weight": "117.19", "Molecular Formula": "C6H15NO", "Boiling Point": "163 \u00b0C @ Press: 760 Torr", "Melting Point": "-70 \u00b0C", "Density": "0.8921 g/cm\u00b3 @ Temp: 20 \u00b0C"}}