{"cas_no": "100-19-6", "cn_name": "\u5bf9\u785d\u57fa\u82ef\u4e59\u916e", "en_name": ["p-Nitroacetophenone", "Ethanone, 1-(4-nitrophenyl)-", "Acetophenone, 4\u2032-nitro-", "Acetophenone, p-nitro-", "1-(4-Nitrophenyl)ethanone", "p-Nitrophenyl methyl ketone", "p-Nitroacetophenone", "4\u2032-Nitroacetophenone", "p-Acetylnitrobenzene", "Methyl p-nitrophenyl ketone", "4-Acetylnitrobenzene", "1-Acetyl-4-nitrobenzene", "Methyl 4-nitrophenyl ketone", "4-Nitrophenyl methyl ketone", "NSC 41590", "1-(4-Nitrophenyl)ethan-1-one", "4-Acetyl-1-nitrobenzene"], "SMILES": "C(C)(=O)C1=CC=C(N(=O)=O)C=C1", "physical_data": {"Molecular Weight": "165.15", "Molecular Formula": "C8H7NO3", "Boiling Point": "165 \u00b0C", "Melting Point": "81.8 \u00b0C"}}