{"cas_no": "100-29-8", "cn_name": "4-\u785d\u57fa\u82ef\u4e59\u919a", "en_name": ["p-Nitrophenetole", "Benzene, 1-ethoxy-4-nitro-", "Phenetole, p-nitro-", "1-Ethoxy-4-nitrobenzene", "p-Nitrophenetole", "4-Nitrophenetole", "Ethyl p-nitrophenyl ether", "p-Ethoxynitrobenzene", "4-Ethoxynitrobenzene", "4-Nitrophenyl ethyl ether", "4-Ethoxy-1-nitrobenzene", "p-Nitrobenzene ethyl ether", "NSC 9812", "Ethyl 4-nitrophenyl ether"], "SMILES": "N(=O)(=O)C1=CC=C(OCC)C=C1", "physical_data": {"Molecular Weight": "167.16", "Molecular Formula": "C8H9NO3", "Boiling Point": "283 \u00b0C", "Melting Point": "60 \u00b0C", "Density": "1.1176 g/cm\u00b3 @ Temp: 100 \u00b0C"}}