{"cas_no": "100-40-3", "cn_name": "4-\u4e59\u70ef\u57fa-1-\u73af\u5df1\u70ef", "en_name": ["Vinylcyclohexene", "Cyclohexene, 4-ethenyl-", "Cyclohexene, 4-vinyl-", "4-Ethenylcyclohexene", "4-Vinylcyclohexene", "4-Vinyl-1-cyclohexene", "1-Vinyl-3-cyclohexene", "Vinylcyclohexene", "NSC 15760", "4-VCH", "4-Ethenyl-1-cyclohexene", "5-Vinyl-2-cyclohexene"], "SMILES": "C(=C)C1CCC=CC1", "physical_data": {"Molecular Weight": "108.18", "Molecular Formula": "C8H12", "Boiling Point": "128 \u00b0C @ Press: 760 Torr", "Melting Point": "-108.9 \u00b0C", "Density": "0.8299 g/cm\u00b3 @ Temp: 20 \u00b0C"}}