{"cas_no": "100-28-7", "cn_name": "\u5f02\u6c30\u9178\u5bf9\u785d\u57fa\u82ef", "en_name": ["4-Nitrophenyl isocyanate", "Benzene, 1-isocyanato-4-nitro-", "Isocyanic acid, p-nitrophenyl ester", "1-Isocyanato-4-nitrobenzene", "4-Nitrophenyl isocyanate", "p-Nitrophenyl isocyanate", "1-Nitro-4-isocyanatobenzene", "NSC 9800"], "SMILES": "N(=O)(=O)C1=CC=C(N=C=O)C=C1", "physical_data": {"Molecular Weight": "164.12", "Molecular Formula": "C7H4N2O3", "Boiling Point": "162-164 \u00b0C", "Melting Point": "57 \u00b0C"}}