{"cas_no": "100-99-2", "cn_name": "\u4e09\u5f02\u4e01\u57fa\u94dd", "en_name": ["Triisobutylaluminum", "Aluminum, tris(2-methylpropyl)-", "Aluminum, triisobutyl-", "Tris(2-methylpropyl)aluminum", "Triisobutylaluminum", "Triisobutylalane", "Tris-iso-butylaluminum", "Tri-iso-butylaluminum", "Tris(isobutyl)aluminum", "Tris(isobutyl)alane", "TIBAL", "TIBA"], "SMILES": "[Al](CC(C)C)(CC(C)C)CC(C)C", "physical_data": {"Molecular Weight": "", "Molecular Formula": "C12H27Al", "Boiling Point": "86 \u00b0C @ Press: 10 Torr", "Melting Point": "0 \u00b0C", "Density": "0.781 g/cm\u00b3 @ Temp: 25 \u00b0C"}}