{"cas_no": "100-63-0", "cn_name": "\u82ef\u80bc", "en_name": ["Hydrazine, phenyl-", "Hydrazine, phenyl-", "Phenylhydrazine", "Hydrazinobenzene", "Monophenylhydrazine", "MeSH ID: D010659"], "SMILES": "N(N)C1=CC=CC=C1", "physical_data": {"Molecular Weight": "108.14", "Molecular Formula": "C6H8N2", "Boiling Point": "71.8 \u00b0C @ Press: 1 Torr", "Melting Point": "19.5 \u00b0C", "Density": "1.0978 g/cm\u00b3 @ Temp: 20 \u00b0C"}}