{"cas_no": "100-61-8", "cn_name": "N-\u7532\u57fa\u82ef\u80fa", "en_name": ["N-Methylaniline", "Benzenamine, N-methyl-", "Aniline, N-methyl-", "N-Methylbenzenamine", "Anilinomethane", "N-Methylaniline", "Methylaniline", "(Methylamino)benzene", "N-Methylphenylamine", "N-Monomethylaniline", "N-Phenylmethylamine", "N-Phenyl-N-methylamine", "N-Methyl-N-phenylamine", "Methyl(phenyl)amine", "NSC 3502"], "SMILES": "N(C)C1=CC=CC=C1", "physical_data": {"Molecular Weight": "107.15", "Molecular Formula": "C7H9N", "Boiling Point": "196.25 \u00b0C", "Melting Point": "-57 \u00b0C", "Density": "0.989 g/cm\u00b3 @ Temp: 20 \u00b0C"}}