{"cas_no": "100-39-0", "cn_name": "\u6eb4\u5316\u82c4", "en_name": ["Benzyl bromide", "Benzene, (bromomethyl)-", "Toluene, \u03b1-bromo-", "(Bromomethyl)benzene", "Benzyl bromide", "\u03b1-Bromotoluene", "\u03c9-Bromotoluene", "(Bromophenyl)methane", "Phenylmethyl bromide", "NSC 8041", "1-(Bromomethyl)benzene"], "SMILES": "C(Br)C1=CC=CC=C1", "physical_data": {"Molecular Weight": "171.03", "Molecular Formula": "C7H7Br", "Boiling Point": "201 \u00b0C", "Melting Point": "-3 \u00b0C", "Density": "1.7380 g/cm\u00b3 @ Temp: 25 \u00b0C"}}