{"cas_no": "100-48-1", "cn_name": "4-\u6c30\u57fa\u5421\u5576", "en_name": ["4-Cyanopyridine", "4-Pyridinecarbonitrile", "Isonicotinonitrile", "4-Cyanopyridine", "Isonicotinic acid nitrile", "\u03b3-Cyanopyridine", "4-Pyridinenitrile", "4-Azabenzonitrile", "4-Pyridyl cyanide", "4-Pyridylcarbonitrile", "NSC 60681", "4-Nitrilopyridine"], "SMILES": "C(#N)C=1C=CN=CC1", "physical_data": {"Molecular Weight": "104.11", "Molecular Formula": "C6H4N2", "Boiling Point": "213.5 \u00b0C", "Melting Point": "79 \u00b0C"}}