{"cas_no": "100-79-8", "cn_name": "\u4e19\u916e\u7f29\u7518\u6cb9", "en_name": ["Solketal", "1,3-Dioxolane-4-methanol, 2,2-dimethyl-", "2,2-Dimethyl-1,3-dioxolane-4-methanol", "2,2-Dimethyl-5-hydroxymethyl-1,3-dioxolane", "2-Dimethyl-4-oxymethyl-1,3-dioxolane", "GIE", "Glycerolacetone", "Glycerol dimethylketal", "Isopropylidene glycerol", "Solketal", "2,2-Dimethyl-4-hydroxymethyl-1,3-dioxolane", "Glycerol acetonide", "\u03b1,\u03b2-Isopropylideneglycerol", "2,3-Isopropylideneglycerol", "2,3-O-Isopropylideneglycerol", "1,2-O-Isopropylideneglycerol", "2,2-Dimethyl-4-hydroxymethyldioxolane", "2,3-(Isopropylidenedioxy)propanol", "2,2-Dimethyl-1,3-dioxolan-4-methanol", "1,2-Isopropylideneglycerin", "1,2-O,O-Isopropylideneglycerin", "Glycerin isopropylidene ether", "Acetone monoglycerol ketal", "2,2-Dimethyl-1,3-dioxolan-4-ylmethanol", "Glycerol \u03b1,\u03b2-isopropylidene ether", "2,2-Dimethyl-1,3-dioxolane-5-methanol", "Acetone glycerin ketal", "1,2-Isopropylideneglycerol", "DL-Isopropylideneglycerol", "(\u00b1)-Glycerol 1,2-acetonide", "(\u00b1)-2,2-Dimethyl-1,3-dioxolane-4-methanol", "(4RS)-2,2-Dimethyl-1,3-dioxolane-4-methanol", "(RS)-Solketal", "(\u00b1)-1,2-O-Isopropylideneglycerol", "Racemic solketal", "NSC 59720", "Acetone glyceryl acetal", "Glycerin acetone ketal", "2,2-Dimethyl-4-hydroxymethyl-1,3-dioxolan", "4-(Hydroxymethyl)-2,2-dimethyl-1,3-dioxolane", "1,2-O-Isopropylidene-rac-glycerol", "Augeo SL 191", "Isopropylideneglycerin", "(2,2-Dimethyl-[1,3]-dioxolan-4-yl)methanol", "Augeo 191", "2,2-Dimethyldioxolane-4-methanol", "Augeo Clean Multi", "Solketol", "DL-1,2-Isopropylideneglycerol", "DL-1,2-Isopropylidene glycerol", "Augeo MC"], "SMILES": "C(O)C1OC(C)(C)OC1", "physical_data": {"Molecular Weight": "132.16", "Molecular Formula": "C6H12O3", "Boiling Point": "188 \u00b0C", "Melting Point": "-26.4 \u00b0C", "Density": "1.06 g/cm\u00b3"}}