{"cas_no": "100-65-2", "cn_name": "\u82ef\u57fa\u7f9f\u80fa", "en_name": ["N-Phenylhydroxylamine", "Benzenamine, N-hydroxy-", "Hydroxylamine, N-phenyl-", "Hydroxylamine, \u03b2-phenyl-", "N-Hydroxybenzenamine", "N-Phenylhydroxylamine", "\u03b2-Phenylhydroxylamine", "Phenylhydroxylamine", "Phenylhydroxyamine", "N-Hydroxyaniline", "Hydroxyaminobenzene", "NSC 223099"], "SMILES": "N(O)C1=CC=CC=C1", "physical_data": {"Molecular Weight": "109.13", "Molecular Formula": "C6H7NO", "Boiling Point": "60-90 \u00b0C", "Melting Point": "82 \u00b0C"}}