{"cas_no": "100-13-0", "cn_name": "4-\u785d\u57fa\u82ef\u4e59\u70ef", "en_name": ["4-Nitrostyrene", "Benzene, 1-ethenyl-4-nitro-", "Styrene, p-nitro-", "1-Ethenyl-4-nitrobenzene", "p-Nitrostyrene", "4-Nitrostyrene", "1-Nitro-4-vinylbenzene", "(4-Nitrophenyl)ethene", "4-Vinylnitrobenzene", "4-Nitrophenylethylene"], "SMILES": "N(=O)(=O)C1=CC=C(C=C)C=C1", "physical_data": {"Molecular Weight": "149.15", "Molecular Formula": "C8H7NO2", "Boiling Point": "87 \u00b0C @ Press: 2 Torr", "Melting Point": "18-19 \u00b0C"}}