{"cas_no": "100-20-9", "cn_name": "\u5bf9\u82ef\u4e8c\u7532\u9170\u6c2f", "en_name": ["Terephthaloyl chloride", "1,4-Benzenedicarbonyl dichloride", "Terephthaloyl chloride", "Terephthaloyl dichloride", "p-Phthaloyl chloride", "Terephthalic acid dichloride", "p-Phthaloyl dichloride", "Terephthalic acid chloride", "Terephthalic dichloride", "p-Phenylenedicarbonyl dichloride", "1,4-Benzenedicarbonyl chloride", "Benzene 1,4-dicarboxylic acid dichloride", "1,4-Bis(chlorocarbonyl)benzene", "1,4-Di(chlorocarbonyl)benzene", "NSC 41885"], "SMILES": "C(Cl)(=O)C1=CC=C(C(Cl)=O)C=C1", "physical_data": {"Molecular Weight": "203.02", "Molecular Formula": "C8H4Cl2O2", "Boiling Point": "259 \u00b0C", "Melting Point": "82-84 \u00b0C"}}