{"cas_no": "100-76-5", "cn_name": "\u594e\u5b81\u73af", "en_name": ["Quinuclidine", "1-Azabicyclo[2.2.2]octane", "Quinuclidine", "1,4-Ethylenepiperidine", "1,4-Ethanopiperidine", "ABCO", "NSC 168431"], "SMILES": "C12CCN(CC1)CC2", "physical_data": {"Molecular Weight": "111.18", "Molecular Formula": "C7H13N", "Boiling Point": "100-105 \u00b0C @ Press: 4 Torr", "Melting Point": "158 \u00b0C"}}