{"cas_no": "100-21-0", "cn_name": "\u5bf9\u82ef\u4e8c\u7532\u9178", "en_name": ["Terephthalic acid", "1,4-Benzenedicarboxylic acid", "Terephthalic acid", "p-Benzenedicarboxylic acid", "p-Phthalic acid", "WR 16262", "p-Dicarboxybenzene", "p-Carboxybenzoic acid", "TPA", "1,4-Dicarboxybenzene", "4-Carboxybenzoic acid", "NSC 36973", "TA 33LP", "QTA", "Amoco TA 33", "S-LOP", "TPA (terephthalic acid)", "PTM 6633", "LA 31"], "SMILES": "C(O)(=O)C1=CC=C(C(O)=O)C=C1", "physical_data": {"Molecular Weight": "166.13", "Molecular Formula": "C8H6O4", "Melting Point": "402 \u00b0C (sublm)", "Density": "1.51 g/cm\u00b3"}}