{"cas_no": "100-57-2", "cn_name": "\u82ef\u57fa\u6c22\u6c27\u5316\u6c5e", "en_name": ["Phenylmercuric hydroxide", "Mercury, hydroxyphenyl-", "Phenylmercury hydroxide", "Hydroxyphenylmercury", "Mersolite 1", "Phenyl hydroxymercury", "Phenylmercuric hydroxide", "NSC 4773", "Phenylmercury (II) hydroxide"], "SMILES": "[Hg](O)C1=CC=CC=C1", "physical_data": {"Molecular Weight": "", "Molecular Formula": "C6H6HgO", "Melting Point": "190 \u00b0C (decomp)"}}