{"cas_no": "100-01-6", "cn_name": "4-\u785d\u57fa\u82ef\u80fa", "en_name": ["4-Nitroaniline", "Benzenamine, 4-nitro-", "Aniline, p-nitro-", "4-Nitrobenzenamine", "C.I. 37035", "1-Amino-4-nitrobenzene", "C.I. Azoic Diazo Component 37", "C.I. Developer 17", "Developer P", "Devol Red GG", "Fast Red P Base", "Fast Red 2G Base", "Fast Red Base 2J", "Fast Red Base GG", "Fast Red GG Base", "Fast Red MP Base", "Naphtoelan Red GG Base", "p-Nitraniline", "Nitrazol CF extra", "PNA", "Red 2G Base", "Shinnippon Fast Red GG Base", "4-Nitroaniline", "p-Nitroaniline", "p-Aminonitrobenzene", "p-Nitrophenylamine", "Azoamine Red Zh", "4-Aminonitrobenzene", "4-Nitrophenylamine", "4-Amino-1-nitrobenzene", "4-Nitro-1-aminobenzene", "NSC 9797", "p-Aminonitrobenze"], "SMILES": "N(=O)(=O)C1=CC=C(N)C=C1", "physical_data": {"Molecular Weight": "138.12", "Molecular Formula": "C6H6N2O2", "Boiling Point": "332 \u00b0C", "Melting Point": "146 \u00b0C", "Density": "1.424 g/cm\u00b3 @ Temp: 20 \u00b0C"}}