{"cas_no": "100-15-2", "cn_name": "N-\u7532\u57fa\u5bf9\u785d\u57fa\u82ef\u80fa", "en_name": ["N-Methyl-4-nitroaniline", "Benzenamine, N-methyl-4-nitro-", "Aniline, N-methyl-p-nitro-", "N-Methyl-4-nitrobenzenamine", "N-Monomethyl-p-nitroaniline", "N-Methyl-p-nitroaniline", "N-Methyl-4-nitroaniline", "p-(Methylamino)nitrobenzene", "N-Methyl-p-nitraniline", "4-Nitro-N-methylaniline", "p-Nitro-N-methylaniline", "4-(Methylamino)nitrobenzene", "Methyl(4-nitrophenyl)amine", "NSC 5390", "N-(4-Nitrophenyl)-N-methylamine"], "SMILES": "N(=O)(=O)C1=CC=C(NC)C=C1", "physical_data": {"Molecular Weight": "152.15", "Molecular Formula": "C7H8N2O2", "Melting Point": "152 \u00b0C"}}