{"cas_no": "100-80-1", "cn_name": "3-\u7532\u57fa\u82ef\u4e59\u70ef", "en_name": ["3-Methylstyrene", "Benzene, 1-ethenyl-3-methyl-", "Styrene, m-methyl-", "1-Ethenyl-3-methylbenzene", "m-Methylstyrene", "3-Methylstyrene", "m-Vinyltoluene", "1-Methyl-3-vinylbenzene", "3-Vinyltoluene", "3-Ethenylmethylbenzene", "1-(3-Methylphenyl)-1-ethene"], "SMILES": "C(=C)C1=CC(C)=CC=C1", "physical_data": {"Molecular Weight": "118.18", "Molecular Formula": "C9H10", "Boiling Point": "172 \u00b0C", "Melting Point": "-86.3 \u00b0C", "Density": "0.91 g/cm\u00b3"}}