{"cas_no": "100-53-8", "cn_name": "\u82c4\u786b\u9187", "en_name": ["Benzyl mercaptan", "Benzenemethanethiol", "\u03b1-Toluenethiol", "Benzyl mercaptan", "Benzylthiol", "Thiobenzyl alcohol", "Phenylmethanethiol", "\u03b1-Mercaptotoluene", "(Mercaptomethyl)benzene", "Phenylmethyl mercaptan", "\u03b1-Toluolthiol", "\u03b1-Tolyl mercaptan", "NSC 41897", "GMP 800", "Benzyl hydrosulfide"], "SMILES": "C(S)C1=CC=CC=C1", "physical_data": {"Molecular Weight": "124.20", "Molecular Formula": "C7H8S", "Boiling Point": "194-195 \u00b0C", "Melting Point": "-30 \u00b0C", "Density": "1.05 g/cm\u00b3"}}