{"cas_no": "100-55-0", "cn_name": "3-\u5421\u5576\u7532\u9187", "en_name": ["3-Pyridinemethanol", "3-Pyridinemethanol", "RO-1-5155", "Nicotinic alcohol", "Nicotinyl alcohol", "\u03b2-Pyridylcarbinol", "Roniacol", "\u03b2-Pyridinecarbinol", "3-Pyridylmethanol", "Pyridine-3-carbinol", "3-Pyridylcarbinol", "\u03b2-Picolyl alcohol", "3-(Hydroxymethyl)pyridine", "Nu-2121", "3-Pyridinylmethanol", "NSC 526046", "5-(Hydroxymethyl)pyridine", "3-Pyridyl carbinal"], "SMILES": "C(O)C=1C=CC=NC1", "physical_data": {"Molecular Weight": "109.13", "Molecular Formula": "C6H7NO", "Boiling Point": "266 \u00b0C", "Melting Point": "-6.5 \u00b0C"}}