{"cas_no": "100-75-4", "cn_name": "N-\u4e9a\u785d\u57fa\u54cc\u5576", "en_name": ["N-Nitrosopiperidine", "Piperidine, 1-nitroso-", "1-Nitrosopiperidine", "N-Nitrosopiperidine", "NSC 138", "NPIP", "NPI"], "SMILES": "N(=O)N1CCCCC1", "physical_data": {"Molecular Weight": "114.15", "Molecular Formula": "C5H10N2O", "Boiling Point": "219 \u00b0C", "Melting Point": "170 \u00b0C (decomp)", "Density": "1.0631 g/cm\u00b3 @ Temp: 18.5 \u00b0C"}}