{"cas_no": "100-23-2", "cn_name": "N,N-\u4e8c\u7532\u57fa-P-\u94cc\u4e09\u963f\u544b\u5583", "en_name": ["N,N-Dimethyl-4-nitroaniline", "Benzenamine, N,N-dimethyl-4-nitro-", "Aniline, N,N-dimethyl-p-nitro-", "N,N-Dimethyl-4-nitrobenzenamine", "N,N-Dimethyl-p-nitroaniline", "4-Nitrodimethylaniline", "N,N-Dimethyl-4-nitroaniline", "p-Nitrodimethylaniline", "p-Nitro-N,N-dimethylaniline", "p-(Dimethylamino)nitrobenzene", "1-(Dimethylamino)-4-nitrobenzene", "4-(Dimethylamino)nitrobenzene", "4-Nitro-N,N-dimethylaniline", "NSC 9815"], "SMILES": "N(C)(C)C1=CC=C(N(=O)=O)C=C1", "physical_data": {"Molecular Weight": "166.18", "Molecular Formula": "C8H10N2O2", "Melting Point": "164 \u00b0C"}}