{"cas_no": "100-85-6", "cn_name": "\u82c4\u57fa\u4e09\u7532\u57fa\u6c22\u6c27\u5316\u94f5", "en_name": ["Benzyltrimethylammonium hydroxide", "Benzenemethanaminium, N,N,N-trimethyl-, hydroxide (1:1)", "Ammonium, benzyltrimethyl-, hydroxide", "Benzyltrimethylammonium hydroxide", "Benzenemethanaminium, N,N,N-trimethyl-, hydroxide", "Triton B", "Trimethylbenzylammonium hydroxide", "N-Benzyltrimethylammonium hydroxide", "Sumquat 2311", "N,N,N-Trimethylbenzenemethanaminium hydroxide", "BTMAH 40", "N,N,N-Trimethyl-N-benzylammonium hydroxide"], "SMILES": "C([N+](C)(C)C)C1=CC=CC=C1.[OH-]", "physical_data": {"Molecular Weight": "", "Molecular Formula": "C10H16N.HO", "Melting Point": "80 \u00b0C"}}