{"cas_no": "100-70-9", "cn_name": "2-\u6c30\u57fa\u5421\u5576", "en_name": ["2-Cyanopyridine", "2-Pyridinecarbonitrile", "Picolinonitrile", "2-Cyanopyridine", "Picolinic acid nitrile", "2-Pyridinenitrile", "2-Pyridyl cyanide", "2-Azabenzonitrile", "\u03b1-Cyanopyridine", "2-Pyridylnitrile", "NSC 59697", "2-Nitrilopyridine"], "SMILES": "C(#N)C1=CC=CC=N1", "physical_data": {"Molecular Weight": "104.11", "Molecular Formula": "C6H4N2", "Boiling Point": "224.5 \u00b0C", "Melting Point": "29 \u00b0C", "Density": "1.0810 g/cm\u00b3 @ Temp: 25 \u00b0C"}}