{"cas_no": "100-09-4", "cn_name": "\u5bf9\u7532\u6c27\u57fa\u82ef\u7532\u9178", "en_name": ["4-Methoxybenzoic acid", "Benzoic acid, 4-methoxy-", "p-Anisic acid", "4-Methoxybenzoic acid", "Draconic acid", "p-Methoxybenzoic acid", "4-Anisic acid", "Anisic acid", "NSC 32742", "NSC 7926", "Dermosoft 688"], "SMILES": "C(O)(=O)C1=CC=C(OC)C=C1", "physical_data": {"Molecular Weight": "152.15", "Molecular Formula": "C8H8O3", "Boiling Point": "276.5 \u00b0C", "Melting Point": "185 \u00b0C"}}