{"cas_no": "100-86-7", "cn_name": "\u4e8c\u7532\u57fa\u82c4\u57fa\u539f\u9187", "en_name": ["2-Methyl-1-phenyl-2-propanol", "Benzeneethanol, \u03b1,\u03b1-dimethyl-", "Phenethyl alcohol, \u03b1,\u03b1-dimethyl-", "\u03b1,\u03b1-Dimethylbenzeneethanol", "Dimethylbenzylcarbinol", "\u03b1,\u03b1-Dimethylphenethyl alcohol", "1,1-Dimethyl-2-phenylethanol", "DMBC", "Benzyldimethylcarbinol", "1,1-Dimethylphenylethanol", "\u03b1,\u03b1-Dimethylphenethanol", "2-Hydroxy-2-methyl-1-phenylpropane", "2-Methyl-1-phenyl-2-propanol", "1-Phenyl-2-methylpropan-2-ol", "\u03b2-Phenyl-tert-butyl alcohol", "2-Benzyl-2-propanol", "1-Benzyl-1-methylethanol", "2-Methyl-3-phenyl-2-propanol", "Phenyl-tert-butanol", "1,1-Dimethyl-2-phenylethyl alcohol", "NSC 27228", "NSC 46103", "NSC 5236", "1-Phenyl-2-hydroxy-2-methylpropane", "2-Hydroxy-2-methyl-1-phenyl-1-propane"], "SMILES": "C(C(C)(C)O)C1=CC=CC=C1", "physical_data": {"Molecular Weight": "150.22", "Molecular Formula": "C10H14O", "Boiling Point": "215 \u00b0C", "Melting Point": "24 \u00b0C", "Density": "0.903 g/cm\u00b3 @ Temp: 20 \u00b0C"}}