{"cas_no": "100-93-6", "cn_name": "4-\u7532\u57fa-N-[4-(\u82ef\u80fa\u57fa)\u82ef\u57fa]\u82ef\u78fa\u9170\u80fa", "en_name": ["TPPD", "Benzenesulfonamide, 4-methyl-N-[4-(phenylamino)phenyl]-", "p-Toluenesulfonanilide, 4\u2032-anilino-", "4-Methyl-N-[4-(phenylamino)phenyl]benzenesulfonamide", "p-(p-Tolylsulfonylamido)diphenylamine", "4-(p-Toluenesulfonamido)diphenylamine", "Aranox", "Nocrac TD", "N-Phenyl-N\u2032-p-toluenesulfonyl-p-phenylenediamine", "4\u2032-Anilino-p-toluenesulfonanilide", "Naugard SA", "NSC 41053", "N-p-(Phenylaminophenyl)-p-toluenesulfonic acid amide", "4\u2032-Anilinotoluene-4-sulfonanilide", "p-(p-Toluenesulfonylamido)diphenylamine", "TPPD", "Antioxidant TPPD"], "SMILES": "N(S(=O)(=O)C1=CC=C(C)C=C1)C2=CC=C(NC3=CC=CC=C3)C=C2", "physical_data": {"Molecular Weight": "338.42", "Molecular Formula": "C19H18N2O2S", "Melting Point": "147 \u00b0C"}}