{"cas_no": "100-14-1", "cn_name": "1-(\u6c2f\u7532\u57fa)-4-\u785d\u57fa\u82ef", "en_name": ["4-Nitrobenzyl chloride", "Benzene, 1-(chloromethyl)-4-nitro-", "Toluene, \u03b1-chloro-p-nitro-", "1-(Chloromethyl)-4-nitrobenzene", "\u03b1-Chloro-p-nitrotoluene", "p-Nitrobenzyl chloride", "4-(Chloromethyl)nitrobenzene", "4-Nitrobenzyl chloride", "p-(Chloromethyl)nitrobenzene", "\u03b1-Chloro-4-nitrotoluene", "4-Nitrophenylmethyl chloride", "4-Chloromethyl-1-nitrobenzene", "NSC 9803"], "SMILES": "N(=O)(=O)C1=CC=C(CCl)C=C1", "physical_data": {"Molecular Weight": "171.58", "Molecular Formula": "C7H6ClNO2", "Boiling Point": "71-72 \u00b0C", "Melting Point": "71 \u00b0C"}}