{"cas_no": "100-74-3", "cn_name": "N-\u4e59\u57fa\u5417\u5549", "en_name": ["Ethylmorpholine", "Morpholine, 4-ethyl-", "4-Ethylmorpholine", "N-Ethylmorpholine", "Ethylmorpholine", "NEM", "Kaolizer 22", "Jeffcat NEM", "NSC 6110", "Dabco NEM", "Toyocat NEM", "KL 22"], "SMILES": "C(C)N1CCOCC1", "physical_data": {"Molecular Weight": "115.17", "Molecular Formula": "C6H13NO", "Boiling Point": "138-139 \u00b0C @ Press: 763 Torr", "Melting Point": "-62.78 \u00b0C", "Density": "0.8996 g/cm\u00b3 @ Temp: 20 \u00b0C"}}