{"cas_no": "100-17-4", "cn_name": "4-\u785d\u57fa\u82ef\u7532\u919a", "en_name": ["4-Nitroanisole", "Benzene, 1-methoxy-4-nitro-", "Anisole, p-nitro-", "1-Methoxy-4-nitrobenzene", "p-Methoxynitrobenzene", "p-Nitroanisole", "4-Nitroanisole", "4-Methoxynitrobenzene", "4-Methoxy-1-nitrobenzene", "Methyl p-nitrophenyl ether", "p-Nitromethoxybenzene", "4-Nitrophenyl methyl ether", "4-Nitromethoxybenzene", "4-Nitro-1-methoxybenzene", "p-Nitrobenzene methyl ether", "Methyl 4-nitrophenyl ether", "NSC 5507", "1-Nitro-4-methoxybenzene"], "SMILES": "N(=O)(=O)C1=CC=C(OC)C=C1", "physical_data": {"Molecular Weight": "153.14", "Molecular Formula": "C7H7NO3", "Boiling Point": "274 \u00b0C", "Melting Point": "54 \u00b0C", "Density": "1.2083 g/cm\u00b3 @ Temp: 68.4 \u00b0C"}}