{"cas_no": "100-45-8", "cn_name": "3-\u73af\u5df1\u70ef-1-\u8148", "en_name": ["3-Cyclohexene-1-carbonitrile", "3-Cyclohexene-1-carbonitrile", "3-Cyclohexenyl cyanide", "4-Cyanocyclohexene", "3-Cyclohexenecarbonitrile", "1-Cyano-3-cyclohexene", "4-Cyano-1-cyclohexene", "Cyclohex-3-enenitrile", "(\u00b1)-3-Cyclohexene-1-carbonitrile", "NSC 7407"], "SMILES": "C(#N)C1CCC=CC1", "physical_data": {"Molecular Weight": "107.15", "Molecular Formula": "C7H9N", "Boiling Point": "83 \u00b0C @ Press: 20 Torr", "Density": "0.9555 g/cm\u00b3 @ Temp: 20 \u00b0C"}}