{"cas_no": "100-35-6", "cn_name": "N,N-\u4e8c\u4e59\u57fa\u6c2f\u4e59\u80fa", "en_name": ["Diethylaminoethyl chloride", "Ethanamine, 2-chloro-N,N-diethyl-", "Triethylamine, 2-chloro-", "2-Chloro-N,N-diethylethanamine", "2-Chlorotriethylamine", "2-(Diethylamino)-1-chloroethane", "Diethylaminoethyl chloride", "(2-Chloroethyl)diethylamine", "Diethyl(2-chloroethyl)amine", "N,N-Diethyl-2-chloroethylamine", "\u03b2-Chlorotriethylamine", "1-Chloro-2-(diethylamino)ethane", "2-(Diethylamino)chloroethane", "2-(Diethylamino)ethyl chloride", "2-(N,N-Diethylamino)ethyl chloride", "\u03b2-(Diethylamino)ethyl chloride", "N-(2-Chloroethyl)diethylamine", "N-(2-Chloroethyl)-N,N-diethylamine", "N,N-Diethylaminoethyl chloride", "1-Diethylamino-2-chloroethane", "2-Chloroethyl-N,N-diethylamine", "(\u03b2-Chloroethyl)diethylamine", "NSC 123446", "1-Chloro-2-(N,N-diethylamino)ethane", "2-(N,N-Diethylamino)-1-chloroethane"], "SMILES": "N(CCCl)(CC)CC", "physical_data": {"Molecular Weight": "135.64", "Molecular Formula": "C6H14ClN", "Boiling Point": "51-52 \u00b0C @ Press: 16 Torr", "Density": "0.9166 g/cm\u00b3 @ Temp: 22 \u00b0C"}}