{"cas_no": "100-64-1", "cn_name": "\u73af\u5df1\u916e\u809f", "en_name": ["Cyclohexanone oxime", "Cyclohexanone, oxime", "Antioxidant D", "(Hydroxyimino)cyclohexane", "NSC 6300", "OxiKhim-Styrol", "Cyclohexanone oxime", "Exkin III", "Borchinox C 3"], "SMILES": "N(O)=C1CCCCC1", "physical_data": {"Molecular Weight": "113.16", "Molecular Formula": "C6H11NO", "Boiling Point": "206-210 \u00b0C", "Melting Point": "89-90 \u00b0C", "Density": "0.980 g/cm\u00b3 @ Temp: 804 \u00b0C"}}