{"cas_no": "100-49-2", "cn_name": "\u73af\u5df1\u7532\u9187", "en_name": ["Cyclohexanemethanol", "Cyclohexanemethanol", "Cyclohexanecarbinol", "Cyclohexylcarbinol", "Hexahydrobenzyl alcohol", "Cyclohexylmethanol", "(Hydroxymethyl)cyclohexane", "Cyclohexylmethyl alcohol", "NSC 5288"], "SMILES": "C(O)C1CCCCC1", "physical_data": {"Molecular Weight": "114.19", "Molecular Formula": "C7H14O", "Boiling Point": "183 \u00b0C", "Melting Point": "-43 \u00b0C", "Density": "0.9445 g/cm\u00b3 @ Temp: 0 \u00b0C"}}