{"cas_no": "100-44-7", "cn_name": "\u6c2f\u5316\u82c4", "en_name": ["Benzyl chloride", "Benzene, (chloromethyl)-", "Toluene, \u03b1-chloro-", "(Chloromethyl)benzene", "Benzyl chloride", "\u03c9-Chlorotoluene", "Chlorophenylmethane", "Tolyl chloride", "\u03b1-Chlorotoluene", "Phenylmethyl chloride", "NSC 8043", "1-Chloromethylbenzene", "Bnol"], "SMILES": "C(Cl)C1=CC=CC=C1", "physical_data": {"Molecular Weight": "126.58", "Molecular Formula": "C7H7Cl", "Boiling Point": "179 \u00b0C", "Melting Point": "-45 \u00b0C", "Density": "1.100 g/cm\u00b3 @ Temp: 20 \u00b0C"}}