{"cas_no": "100-02-7", "cn_name": "4-\u785d\u57fa\u82ef\u915a", "en_name": ["4-Nitrophenol", "Phenol, 4-nitro-", "Phenol, p-nitro-", "4-Nitrophenol", "p-Nitrophenol", "p-Hydroxynitrobenzene", "4-Hydroxynitrobenzene", "Niphen", "1-Hydroxy-4-nitrobenzene", "4-Hydroxy-1-nitrobenzene", "NSC 1317"], "SMILES": "N(=O)(=O)C1=CC=C(O)C=C1", "physical_data": {"Molecular Weight": "139.11", "Molecular Formula": "C6H5NO3", "Boiling Point": "279 \u00b0C", "Melting Point": "113-114 \u00b0C", "Density": "1.5 g/cm\u00b3"}}