{"cas_no": "100-16-3", "cn_name": "4-\u785d\u57fa\u82ef\u80bc", "en_name": ["(4-Nitrophenyl)hydrazine", "Hydrazine, (4-nitrophenyl)-", "Hydrazine, (p-nitrophenyl)-", "(4-Nitrophenyl)hydrazine", "(p-Nitrophenyl)hydrazine", "p-Hydrazinonitrobenzene", "NSC 4079", "1-(4-Nitrophenyl)hydrazine"], "SMILES": "N(=O)(=O)C1=CC=C(NN)C=C1", "physical_data": {"Molecular Weight": "153.14", "Molecular Formula": "C6H7N3O2", "Melting Point": "158 \u00b0C (decomp)"}}