{"cas_no": "100-06-1", "cn_name": "\u5bf9\u7532\u6c27\u57fa\u82ef\u4e59\u916e", "en_name": ["4\u2032-Methoxyacetophenone", "Ethanone, 1-(4-methoxyphenyl)-", "Acetophenone, 4\u2032-methoxy-", "1-(4-Methoxyphenyl)ethanone", "p-Acetylanisole", "Linarodin", "Novatone", "Vananote", "4\u2032-Methoxyacetophenone", "p-Methoxyphenyl methyl ketone", "p-Methoxyacetophenone", "4-Methoxyphenyl methyl ketone", "4-Acetylanisole", "Methyl p-methoxyphenyl ketone", "1-Acetyl-4-methoxybenzene", "p-Anisyl methyl ketone", "para-Methoxyacetophenone", "Methyl 4-methoxyphenyl ketone", "Acetoanisole", "p-Methoxy(acetyl)benzene", "NSC 209523", "NSC 5601", "4-Methoxyhypnone", "1-(4-Methoxyphenyl)ethan-1-one", "4-Methoxyphenylethanone"], "SMILES": "C(C)(=O)C1=CC=C(OC)C=C1", "physical_data": {"Molecular Weight": "150.17", "Molecular Formula": "C9H10O2", "Boiling Point": "258 \u00b0C", "Melting Point": "38.5 \u00b0C", "Density": "1.0818 g/cm\u00b3 @ Temp: 41 \u00b0C"}}