{"cas_no": "100-25-4", "cn_name": "\u5bf9\u4e8c\u785d\u57fa\u82ef", "en_name": ["1,4-Dinitrobenzene", "Benzene, 1,4-dinitro-", "Benzene, p-dinitro-", "1,4-Dinitrobenzene", "p-Dinitrobenzene", "Para-dinitrobenzene", "NSC 3809", "1,4-Dintrobenzene"], "SMILES": "N(=O)(=O)C1=CC=C(N(=O)=O)C=C1", "physical_data": {"Molecular Weight": "168.11", "Molecular Formula": "C6H4N2O4", "Boiling Point": "297 \u00b0C", "Melting Point": "174 \u00b0C", "Density": "1.625 g/cm\u00b3 @ Temp: 18 \u00b0C"}}