{"cas_no": "100-52-7", "cn_name": "\u82ef\u7532\u919b", "en_name": ["Benzaldehyde", "Benzaldehyde", "Benzenecarbonal", "Benzenecarboxaldehyde", "Benzoic aldehyde", "Phenylmethanal", "Artificial Almond Oil", "Benzaldehyde FFC", "Phenylformaldehyde", "NSC 7917", "Benzoic acid aldehyde"], "SMILES": "C(=O)C1=CC=CC=C1", "physical_data": {"Molecular Weight": "106.12", "Molecular Formula": "C7H6O", "Boiling Point": "179 \u00b0C", "Melting Point": "-26 \u00b0C", "Density": "1.050 g/cm\u00b3 @ Temp: 15 \u00b0C"}}