{"cas_no": "100-72-1", "cn_name": "\u56db\u6c22\u5421\u5583-2-\u7532\u9187", "en_name": ["2-(Hydroxymethyl)tetrahydropyran", "2H-Pyran-2-methanol, tetrahydro-", "Pyran-2-methanol, tetrahydro-", "Tetrahydro-2H-pyran-2-methanol", "Tetrahydropyran-2-methanol", "2-(Hydroxymethyl)tetrahydropyran", "Tetrahydropyran-2-carbinol", "2-Tetrahydropyranylcarbinol", "3,4,5,6-Tetrahydro-2H-pyran-2-methanol", "NSC 5221", "NSC 66493", "Tetrahydro-2H-pyran-2-ylmethanol", "Oxan-2-ylmethanol"], "SMILES": "C(O)C1CCCCO1", "physical_data": {"Molecular Weight": "116.16", "Molecular Formula": "C6H12O2", "Boiling Point": "185 \u00b0C", "Density": "1.026 g/cm\u00b3 @ Temp: 25 \u00b0C"}}