{"cas_no": "100-43-6", "cn_name": "4-\u4e59\u70ef\u57fa\u5421\u5576", "en_name": ["4-Vinylpyridine", "Pyridine, 4-ethenyl-", "Pyridine, 4-vinyl-", "4-Ethenylpyridine", "4-Vinylpyridine", "\u03b3-Vinylpyridine", "NSC 18256", "2-(4-Pyridyl)ethylene", "Pyridinium, 1-cyano-4-ethenyl-"], "SMILES": "C(=C)C=1C=CN=CC1", "physical_data": {"Molecular Weight": "105.14", "Molecular Formula": "C7H7N", "Boiling Point": "65 \u00b0C @ Press: 15 Torr", "Melting Point": "&lt;25 \u00b0C", "Density": "0.9800 g/cm\u00b3 @ Temp: 20 \u00b0C"}}