{"cas_no": "100-56-1", "cn_name": "\u82ef\u57fa\u6c2f\u5316\u6c5e", "en_name": ["Phenylmercury chloride", "Mercury, chlorophenyl-", "Phenylmercury chloride", "Chlorophenylmercury", "Merfazin", "Mersolite 2", "Phenyl chloromercury", "PMC", "Benzene, (chloromercurio)-", "Phenylmercuric chloride", "Hexason", "Agrenal", "Agronal", "Mercutal", "PMC (fungicide)", "Phenylmercury(II) chloride", "Monophenylmercury chloride"], "SMILES": "[Hg](Cl)C1=CC=CC=C1", "physical_data": {"Molecular Weight": "", "Molecular Formula": "C6H5ClHg", "Melting Point": "250-252 \u00b0C"}}