{"cas_no": "100-38-9", "cn_name": "2-\u4e8c\u4e59\u6c28\u57fa\u4e59\u786b\u9187", "en_name": ["2-(Diethylamino)ethanethiol", "Ethanethiol, 2-(diethylamino)-", "2-(Diethylamino)ethanethiol", "Diethylcysteamine", "Diethyl(2-mercaptoethyl)amine", "2-(Diethylamino)ethyl mercaptan", "N,N-Diethylcysteamine", "2-(N,N-Diethylamino)ethanethiol", "(2-Mercaptoethyl)diethylamine", "NSC 49193", "2-(Diethylamino)ethane-1-thiol"], "SMILES": "N(CCS)(CC)CC", "physical_data": {"Molecular Weight": "133.26", "Molecular Formula": "C6H15NS", "Boiling Point": "74 \u00b0C @ Press: 32 Torr", "Density": "0.8751 g/cm\u00b3 @ Temp: 20 \u00b0C"}}