{"cas_no": "100-42-5", "cn_name": "\u82ef\u4e59\u70ef", "en_name": ["Styrene", "Benzene, ethenyl-", "Styrene", "Ethenylbenzene", "Cinnamene", "Phenethylene", "Phenylethene", "Phenylethylene", "Styrol", "Styrole", "Styrolene", "Vinylbenzene", "Vinylbenzol", "Styropol SO", "NSC 62785", "TTB 7302", "Maomin SM", "S 0095", "STC", "BYX 6", "EM 50", "M 00247", "Benzene, ethenyl-, polymer with benzene, block", "S 4972", "MeSH ID: D020058"], "SMILES": "C(=C)C1=CC=CC=C1", "physical_data": {"Molecular Weight": "104.15", "Molecular Formula": "C8H8", "Boiling Point": "145 \u00b0C", "Melting Point": "-31 \u00b0C", "Density": "0.9060 g/cm\u00b3 @ Temp: 20 \u00b0C"}}