{"cas_no": "100-47-0", "cn_name": "\u82ef\u7532\u8148", "en_name": ["Benzonitrile", "Benzonitrile", "Benzene, cyano-", "Benzoic acid nitrile", "Cyanobenzene", "Phenyl cyanide", "Benzonitril", "Benzenenitrile", "NSC 8039", "Benzenecarbonitrile"], "SMILES": "C(#N)C1=CC=CC=C1", "physical_data": {"Molecular Weight": "103.12", "Molecular Formula": "C7H5N", "Boiling Point": "190.7 \u00b0C @ Press: 760 Torr", "Melting Point": "-13.1 \u00b0C", "Density": "1.010 g/cm\u00b3 @ Temp: 15 \u00b0C"}}