{"cas_no": "100-32-3", "cn_name": "4,4'-\u4e8c\u785d\u57fa\u4e8c\u82ef\u4e8c\u786b\u919a", "en_name": ["Bis(4-nitrophenyl) disulfide", "Disulfide, bis(4-nitrophenyl)", "Disulfide, bis(p-nitrophenyl)", "Bis(4-nitrophenyl) disulfide", "Bis(p-nitrophenyl) disulfide", "p-Nitrophenyl disulfide", "p,p\u2032-Dinitrodiphenyl disulfide", "4,4\u2032-Dinitrodiphenyl disulfide", "Di-4-nitrophenyl disulfide", "Di(p-nitrophenyl) disulfide", "NSC 677446", "NSC 4566", "Bis(p-nitrophenyl)disulfide", "1-Nitro-4-[(4-nitrophenyl)disulfanyl]benzene", "1,2-Bis(4-nitrophenyl)disulfane", "1,1\u2032-dithiobis(4-nitrobenzene)"], "SMILES": "N(=O)(=O)C1=CC=C(SSC2=CC=C(N(=O)=O)C=C2)C=C1", "physical_data": {"Molecular Weight": "308.33", "Molecular Formula": "C12H8N2O4S2", "Melting Point": "181 \u00b0C"}}