{"cas_no": "100-12-9", "cn_name": "\u5bf9\u4e59\u57fa\u785d\u57fa\u82ef", "en_name": ["1-Ethyl-4-nitrobenzene", "Benzene, 1-ethyl-4-nitro-", "1-Ethyl-4-nitrobenzene", "p-Nitroethylbenzene", "p-Ethylnitrobenzene", "p-Nitrophenylethane", "4-Ethylnitrobenzene", "4-Ethyl-1-nitrobenzene", "NSC 858", "4-Nitro-1-ethylbenzene"], "SMILES": "N(=O)(=O)C1=CC=C(CC)C=C1", "physical_data": {"Molecular Weight": "151.16", "Molecular Formula": "C8H9NO2", "Boiling Point": "245.5 \u00b0C", "Melting Point": "-12.3 \u00b0C", "Density": "1.1226 g/cm\u00b3 @ Temp: 20 \u00b0C"}}