{"cas_no": "100-26-5", "cn_name": "2,5-\u4e8c\u5421\u5576\u7fa7\u9178", "en_name": ["2,5-Pyridinedicarboxylic acid", "2,5-Pyridinedicarboxylic acid", "Isocinchomeronic acid", "NSC 177", "2,5-Dicarboxypyridine"], "SMILES": "C(O)(=O)C=1C=CC(C(O)=O)=NC1", "physical_data": {"Molecular Weight": "167.12", "Molecular Formula": "C7H5NO4", "Boiling Point": "236 \u00b0C", "Melting Point": "254 \u00b0C"}}