{"cas_no": "100-66-3", "cn_name": "\u82ef\u7532\u919a", "en_name": ["Anisole", "Benzene, methoxy-", "Anisole", "Methoxybenzene", "Methyl phenyl ether", "Phenyl methyl ether", "Anisol", "Phenoxymethane", "NSC 7920", "Hichemix MB"], "SMILES": "O(C)C1=CC=CC=C1", "physical_data": {"Molecular Weight": "108.14", "Molecular Formula": "C7H8O", "Boiling Point": "155.5 \u00b0C @ Press: 760 Torr", "Melting Point": "-37.3 \u00b0C", "Density": "0.9956 g/cm\u00b3 @ Temp: 18 \u00b0C"}}