{"cas_no": "100-58-3", "cn_name": "\u82ef\u57fa\u6eb4\u5316\u9541", "en_name": ["Phenylmagnesium bromide", "Magnesium, bromophenyl-", "Phenylmagnesium bromide", "Bromophenylmagnesium", "Bromomagnesiobenzene"], "SMILES": "[Mg](Br)C1=CC=CC=C1", "physical_data": {"Molecular Weight": "", "Molecular Formula": "C6H5BrMg", "Melting Point": "153-154 \u00b0C"}}