{"cas_no": "100-11-8", "cn_name": "\u5bf9\u785d\u57fa\u6eb4\u5316\u82c4", "en_name": ["4-Nitrobenzyl bromide", "Benzene, 1-(bromomethyl)-4-nitro-", "Toluene, \u03b1-bromo-p-nitro-", "1-(Bromomethyl)-4-nitrobenzene", "\u03b1-Bromo-4-nitrotoluene", "4-Nitrobenzyl bromide", "p-(Bromomethyl)nitrobenzene", "4-(Bromomethyl)nitrobenzene", "\u03b1-Bromo-p-nitrotoluene", "p-Nitro-\u03b1-bromotoluene", "NSC 4609", "p-Nitrobenzyl bromide", "4-Nitrophenylmethyl bromide"], "SMILES": "N(=O)(=O)C1=CC=C(CBr)C=C1", "physical_data": {"Molecular Weight": "216.03", "Molecular Formula": "C7H6BrNO2", "Melting Point": "99.0 \u00b0C"}}