{"cas_no": "100-81-2", "cn_name": "3-\u7532\u57fa\u82c4\u80fa", "en_name": ["3-Methylbenzylamine", "Benzenemethanamine, 3-methyl-", "Benzylamine, m-methyl-", "3-Methylbenzenemethanamine", "m-Methylbenzylamine", "3-Methylbenzylamine", "m-Xylylamine", "[(3-Methylphenyl)methyl]amine", "3-Methylbezyl amine", "m-Tolylmethanamine", "(3-Methylphenyl)methanamine", "1-(3-Methylphenyl)methanamine"], "SMILES": "C(N)C1=CC(C)=CC=C1", "physical_data": {"Molecular Weight": "121.18", "Molecular Formula": "C8H11N", "Boiling Point": "203.5 \u00b0C"}}