{"cas_no": "100-36-7", "cn_name": "N,N-\u4e8c\u4e59\u57fa\u4e59\u4e8c\u80fa", "en_name": ["N,N-Diethylethylenediamine", "1,2-Ethanediamine, N1,N1-diethyl-", "Ethylenediamine, N,N-diethyl-", "1,2-Ethanediamine, N,N-diethyl-", "N1,N1-Diethyl-1,2-ethanediamine", "N-(2-Diethylaminoethyl)amine", "\u03b2-(Diethylamino)ethylamine", "N,N-Diethylethylenediamine", "2-(Diethylamino)ethylamine", "N-(2-Aminoethyl)-N,N-diethylamine", "N,N-Diethyl-1,2-ethanediamine", "1-Amino-2-(diethylamino)ethane", "N,N-Diethyl-1,2-diaminoethane", "N,N-Diethyl-1,2-ethylenediamine", "2-(Diethylamino)ethanamine", "NSC 19675", "1-Amino-2-(N,N-diethylamino)ethane", "N-[2-(N,N-Diethylamino)ethyl]amine", "2-Diethylamino-1-ethylamine", "Diethylamineethylamine", "N\u2032,N\u2032-Diethyl-1,2-diaminoethane", "2-Diethylamino-1-ethaneamine", "N1,N1-Diethylethane-1,2-diamine"], "SMILES": "N(CCN)(CC)CC", "physical_data": {"Molecular Weight": "116.20", "Molecular Formula": "C6H16N2", "Boiling Point": "144 \u00b0C"}}