{"cas_no": "100-69-6", "cn_name": "2-\u4e59\u70ef\u57fa\u5421\u5576", "en_name": ["2-Vinylpyridine", "Pyridine, 2-ethenyl-", "Pyridine, 2-vinyl-", "2-Ethenylpyridine", "2-Vinylpyridine", "\u03b1-Vinylpyridine", "2-Pyridylethylene", "NSC 18255"], "SMILES": "C(=C)C1=CC=CC=N1", "physical_data": {"Molecular Weight": "105.14", "Molecular Formula": "C7H7N", "Boiling Point": "159.5 \u00b0C", "Density": "0.9985 g/cm\u00b3 @ Temp: 20 \u00b0C"}}