{"cas_no": "100-46-9", "cn_name": "\u82c4\u80fa", "en_name": ["Benzylamine", "Benzenemethanamine", "Benzylamine", "\u03b1-Aminotoluene", "\u03c9-Aminotoluene", "Monobenzylamine", "(Phenylmethyl)amine", "(Aminomethyl)benzene", "N-Benzylamine", "NSC 8046", "1-Phenylmethanamine", "Phenylmethanamine"], "SMILES": "C(N)C1=CC=CC=C1", "physical_data": {"Molecular Weight": "107.15", "Molecular Formula": "C7H9N", "Boiling Point": "185 \u00b0C", "Melting Point": "10 \u00b0C", "Density": "0.983 g/cm\u00b3 @ Temp: 19 \u00b0C"}}