{"cas_no": "100-27-6", "cn_name": "\u5bf9\u785d\u57fa\u82ef\u4e59\u9187", "en_name": ["2-(4-Nitrophenyl)ethanol", "Benzeneethanol, 4-nitro-", "Phenethyl alcohol, p-nitro-", "4-Nitrobenzeneethanol", "p-Nitrophenethyl alcohol", "2-(p-Nitrophenyl)ethanol", "4-Nitrophenethyl alcohol", "2-(4-Nitrophenyl)ethanol", "p-Nitrophenylethyl alcohol", "4-Nitrophenethanol", "1-(2-Hydroxyethyl)-4-nitrobenzene", "2-(4-Nitrophenyl)-1-ethanol", "NSC 55519", "2-(4-Nitrophenyl)ethyl alcohol"], "SMILES": "N(=O)(=O)C1=CC=C(CCO)C=C1", "physical_data": {"Molecular Weight": "167.16", "Molecular Formula": "C8H9NO3", "Boiling Point": "177 \u00b0C", "Melting Point": "63 \u00b0C"}}