{"cas_no": "100-60-7", "cn_name": "N-\u7532\u57fa\u73af\u5df1\u80fa", "en_name": ["Methylcyclohexylamine", "Cyclohexanamine, N-methyl-", "Cyclohexylamine, N-methyl-", "N-Methylcyclohexanamine", "N-Methylcyclohexylamine", "Cyclohexylmethylamine", "Methylcyclohexylamine", "N-Methyl-N-cyclohexylamine", "N-Cyclohexylmethylamine", "N-Cyclohexyl-N-methylamine", "(Methylamino)cyclohexane", "NSC 434", "SC 79B"], "SMILES": "N(C)C1CCCCC1", "physical_data": {"Molecular Weight": "113.20", "Molecular Formula": "C7H15N", "Boiling Point": "147 \u00b0C", "Melting Point": "149-150 \u00b0C", "Density": "0.8518 g/cm\u00b3 @ Temp: 20 \u00b0C"}}