{"cas_no": "100-22-1", "cn_name": "N,N,N',N'-\u56db\u7532\u57fa\u5bf9\u82ef\u4e8c\u80fa", "en_name": ["N,N,N\u2032,N\u2032-Tetramethyl-p-phenylenediamine", "1,4-Benzenediamine, N1,N1,N4,N4-tetramethyl-", "p-Phenylenediamine, N,N,N\u2032,N\u2032-tetramethyl-", "1,4-Benzenediamine, N,N,N\u2032,N\u2032-tetramethyl-", "N1,N1,N4,N4-Tetramethyl-1,4-benzenediamine", "1,4-Bis(dimethylamino)benzene", "TMPD", "p-Bis(dimethylamino)benzene", "Tetramethyl-p-phenylenediamine", "N,N,N\u2032,N\u2032-Tetramethyl-1,4-phenylenediamine", "TMPD (amine)", "N,N-Dimethyl-p-(dimethylamino)aniline", "N,N,N\u2032,N\u2032-Tetramethyl-p-benzenediamine", "TMPDA", "N,N,N\u2032,N\u2032-Tetramethyl-1,4-diaminobenzene", "Wurster's reagent", "4-(Dimethylamino)-N,N-dimethylaniline", "N,N,N\u2032,N\u2032-Tetramethyl-p-phenylenediamine", "p-(Dimethylamino)-N,N-dimethylaniline", "TMPPD", "N,N,N\u2032,N\u2032-Tetramethyl-1,4-benzenediamine", "Reagents, Wurster's", "1-N,1-N,4-N,4-N-Tetramethylbenzene-1,4-diamine"], "SMILES": "N(C)(C)C1=CC=C(N(C)C)C=C1", "physical_data": {"Molecular Weight": "164.25", "Molecular Formula": "C10H16N2", "Boiling Point": "260 \u00b0C", "Melting Point": "51 \u00b0C"}}