{"cas_no": "100-59-4", "cn_name": "\u82ef\u57fa\u6c2f\u5316\u9541", "en_name": ["Phenylmagnesium chloride", "Magnesium, chlorophenyl-", "Magnesium, phenyl-, chloride", "Chlorophenylmagnesium", "Phenylmagnesium chloride"], "SMILES": "[Mg](Cl)C1=CC=CC=C1", "physical_data": {"Molecular Weight": "", "Molecular Formula": "C6H5ClMg", "Boiling Point": "230 \u00b0C @ Press: 8 Torr", "Melting Point": "89-90 \u00b0C"}}