{"cas_no": "100-84-5", "cn_name": "\u95f4\u7532\u57fa\u82ef\u7532\u919a", "en_name": ["3-Methylanisole", "Benzene, 1-methoxy-3-methyl-", "Anisole, m-methyl-", "1-Methoxy-3-methylbenzene", "m-Methylanisole", "Methyl m-tolyl ether", "3-Methylanisole", "m-Cresol methyl ether", "3-Methoxytoluene", "m-Methoxytoluene", "m-Cresyl methyl ether", "3-Methyl-1-methoxybenzene", "3-Cresol methyl ether", "m-Methylanisole", "NSC 6255", "3-Methoxy-1-methylbenzene"], "SMILES": "O(C)C1=CC(C)=CC=C1", "physical_data": {"Molecular Weight": "122.16", "Molecular Formula": "C8H10O", "Boiling Point": "175.5 \u00b0C", "Melting Point": "-47 \u00b0C", "Density": "0.9716 g/cm\u00b3"}}