{"cas_no": "100-54-9", "cn_name": "3-\u6c30\u57fa\u5421\u5576", "en_name": ["3-Cyanopyridine", "3-Pyridinecarbonitrile", "Nicotinonitrile", "3-Cyanopyridine", "Nicotinic acid nitrile", "3-Pyridylcarbonitrile", "3-Pyridinenitrile", "3-Azabenzonitrile", "3-Pyridyl cyanide", "\u03b2-Cyanopyridine", "NSC 17558"], "SMILES": "C(#N)C=1C=CC=NC1", "physical_data": {"Molecular Weight": "104.11", "Molecular Formula": "C6H4N2", "Boiling Point": "206.9 \u00b0C", "Melting Point": "51 \u00b0C", "Density": "1.1590 g/cm\u00b3 @ Temp: 25 \u00b0C"}}