{"cas_no": "100-00-5", "cn_name": "4-\u785d\u57fa\u6c2f\u82ef", "en_name": ["1-Chloro-4-nitrobenzene", "Benzene, 1-chloro-4-nitro-", "1-Chloro-4-nitrobenzene", "p-Chloronitrobenzene", "4-Chloro-1-nitrobenzene", "p-Nitrochlorobenzene", "PNCB", "p-Nitrophenyl chloride", "4-Chloronitrobenzene", "4-Nitrochlorobenzene", "4-Nitro-1-chlorobenzene", "1-Nitro-4-chlorobenzene", "4-Nitrophenyl chloride", "NSC 9792"], "SMILES": "N(=O)(=O)C1=CC=C(Cl)C=C1", "physical_data": {"Molecular Weight": "157.55", "Molecular Formula": "C6H4ClNO2", "Boiling Point": "242 \u00b0C @ Press: 760 Torr", "Melting Point": "82-84 \u00b0C", "Density": "1.520 g/cm\u00b3"}}