{"cas_no": "100-50-5", "cn_name": "3-\u73af\u5df1\u70ef-1-\u7532\u919b", "en_name": ["3-Cyclohexene-1-carboxaldehyde", "3-Cyclohexene-1-carboxaldehyde", "1,2,3,6-Tetrahydrobenzaldehyde", "3-Cyclohexen-1-aldehyde", "4-Formylcyclohexene", "1-Formyl-3-cyclohexene", "Cyclohexene-4-carboxaldehyde", "1,2,5,6-Tetrahydrobenzaldehyde", "1-Cyclohexene-4-carboxaldehyde", "(\u00b1)-3-Cyclohexene-1-carboxaldehyde", "\u03943-Tetrahydrobenzaldehyde", "NSC 16241", "3-Cyclohexene-1-carbaldehyde", "3-Cyclohexenylcarboxaldehyde"], "SMILES": "C(=O)C1CCC=CC1", "physical_data": {"Molecular Weight": "110.15", "Molecular Formula": "C7H10O", "Boiling Point": "105 \u00b0C", "Melting Point": "2 \u00b0C", "Density": "0.9694 g/cm\u00b3 @ Temp: 20 \u00b0C"}}