{"cas_no": "100-18-5", "cn_name": "1,4-\u4e8c\u5f02\u4e19\u57fa\u82ef", "en_name": ["1,4-Diisopropylbenzene", "Benzene, 1,4-bis(1-methylethyl)-", "Benzene, p-diisopropyl-", "1,4-Bis(1-methylethyl)benzene", "p-Diisopropylbenzene", "1,4-Diisopropylbenzene", "p-Di-iso-propylbenzene", "NSC 84198", "1,4-Bis(isopropyl)benzene", "1,4-Di(propan-2-yl)benzene", "1,4-Bis(propan-2-yl)benzene"], "SMILES": "C(C)(C)C1=CC=C(C(C)C)C=C1", "physical_data": {"Molecular Weight": "162.27", "Molecular Formula": "C12H18", "Boiling Point": "210.3 \u00b0C @ Press: 760 Torr", "Melting Point": "-17.1 \u00b0C", "Density": "0.8568 g/cm\u00b3 @ Temp: 20 \u00b0C"}}