{"cas_no": "100-41-4", "cn_name": "\u4e59\u57fa\u82ef", "en_name": ["Ethylbenzene", "Benzene, ethyl-", "Ethylbenzene", "EB", "Ethylbenzol", "Phenylethane", "\u03b1-Methyltoluene", "NSC 406903", "1-Ethylbenzene"], "SMILES": "C(C)C1=CC=CC=C1", "physical_data": {"Molecular Weight": "106.17", "Molecular Formula": "C8H10", "Boiling Point": "136.1 \u00b0C", "Melting Point": "-94.9 \u00b0C", "Density": "0.8670 g/cm\u00b3 @ Temp: 20 \u00b0C"}}