{"cas_no": "100-97-0", "cn_name": "\u4e4c\u6d1b\u6258\u54c1", "en_name": ["Hexamethylenetetramine", "1,3,5,7-Tetraazatricyclo[3.3.1.13,7]decane", "Hexamethylenetetramine", "Aceto HMT", "Aminoform", "Ammoform", "Cystogen", "Formamine", "Hexaform", "1,3,5,7-Tetraazaadamantane", "Uritone", "Urotropin", "Urotropine", "Hexamine (heterocycle)", "Methenamine", "Preparation AF", "Ekagom H", "Formin (heterocycle)", "Hexa-Flo-Pulver", "Hexamethylenamine", "Hexamine", "Herax UTS", "Hexasan", "Heterin", "Duirexol", "Uramin", "Antihydral", "Urodeine", "Xametrin", "Uratrine", "Methenamin", "Nocceler H", "Vulkacit H 30", "Hexa (vulcanization accelerator)", "Hexa", "Formin", "HMT", "Methenamide", "HA", "Sanceler H", "S 4 (heterocycle)", "S 4", "NSC 26346", "NSC 403347", "Thixon 715B", "Hexa B", "Sanceler HT-PO", "Nocceler H-PO", "Sanceler HT", "Heksa K", "HMTA", "Vulkacit H", "1,3,5,7-Tetraazatricyclo[3.3.1.13,7]decane (Urotropine)", "Hexamine Superfine", "EL 10", "EL 10 (corrosion inhibitor)", "Cohedur H 30", "Rhenogran HEXA 80", "Rhenogran HEXA 80SBR", "HEXA 80", "Accelerator H", "Sanceler HMT", "H 80", "KH 8410", "Nocrac H"], "SMILES": "N12CN3CN(C1)CN(C2)C3", "physical_data": {"Molecular Weight": "140.19", "Molecular Formula": "C6H12N4", "Boiling Point": "280 \u00b0C", "Melting Point": "263 \u00b0C (sublm)", "Density": "1.331 g/cm\u00b3 @ Temp: -5 \u00b0C"}}