{"cas_no": "100-68-5", "cn_name": "\u7532\u57fa\u82ef\u57fa\u786b\u919a", "en_name": ["Thioanisole", "Benzene, (methylthio)-", "Sulfide, methyl phenyl", "(Methylthio)benzene", "Anisole, thio-", "Methyl phenyl sulfide", "Phenyl methyl sulfide", "Thioanisole", "1-Phenyl-1-thiaethane", "Methylphenyl thioether", "Thioanisol", "Phenylthiomethane", "NSC 57916", "Phenyl methyl thioether", "Methyl phenyl sulfane", "(Methylsulfanyl)benzene"], "SMILES": "S(C)C1=CC=CC=C1", "physical_data": {"Molecular Weight": "124.20", "Molecular Formula": "C7H8S", "Boiling Point": "193 \u00b0C", "Melting Point": "127 \u00b0C", "Density": "1.0533 g/cm\u00b3 @ Temp: 25 \u00b0C"}}