{"cas_no": "100-71-0", "cn_name": "2-\u4e59\u57fa\u5421\u5576", "en_name": ["2-Ethylpyridine", "Pyridine, 2-ethyl-", "2-Ethylpyridine", "\u03b1-Ethylpyridine", "NSC 964"], "SMILES": "C(C)C1=CC=CC=N1", "physical_data": {"Molecular Weight": "107.15", "Molecular Formula": "C7H9N", "Boiling Point": "148.6 \u00b0C", "Melting Point": "-63.1 \u00b0C", "Density": "0.9325 g/cm\u00b3 @ Temp: 25 \u00b0C"}}