{"cas_no": "100-67-4", "cn_name": "\u82ef\u915a\u94be", "en_name": ["Potassium phenoxide", "Phenol, potassium salt (1:1)", "Potassium phenoxide", "Phenol, potassium salt", "Potassium carbolate", "Potassium phenolate", "Potassium phenylate", "Potassium phenate", "Phenoxypotassium"], "SMILES": "OC1=CC=CC=C1.[K]", "physical_data": {"Molecular Weight": "", "Molecular Formula": "C6H6O.K", "Melting Point": "103-104 \u00b0C"}}