{"cas_no": "100-73-2", "cn_name": "3,4-\u4e8c\u6c22-2H-\u5421\u5583-2-\u7532\u919b", "en_name": ["3,4-Dihydro-2H-pyran-2-carboxaldehyde", "2H-Pyran-2-carboxaldehyde, 3,4-dihydro-", "3,4-Dihydro-2H-pyran-2-carboxaldehyde", "Acrolein dimer", "2-Formyl-3,4-dihydro-2H-pyran", "5-Hexenal, 2,6-epoxy-", "2-Propenal, dimer", "3,4-Dihydro-2-formyl-2H-pyran", "3,4-Dihydro-2H-pyran-2-aldehyde", "NSC 95413", "3,4-Dihydro-2H-pyran-2-carbaldehyde"], "SMILES": "C(=O)C1CCC=CO1", "physical_data": {"Molecular Weight": "112.13", "Molecular Formula": "C6H8O2", "Boiling Point": "88 \u00b0C @ Press: 100 Torr", "Melting Point": "-130 \u00b0C", "Density": "1.1764 g/cm\u00b3 @ Temp: 20 \u00b0C"}}