{"cas_no": "100-07-2", "cn_name": "\u5bf9\u7532\u6c27\u57fa\u82ef\u7532\u9170\u6c2f", "en_name": ["4-Methoxybenzoyl chloride", "Benzoyl chloride, 4-methoxy-", "p-Anisoyl chloride", "4-Methoxybenzoyl chloride", "p-Methoxybenzoyl chloride", "Anisoyl chloride", "p-Methoxybenzoic acid chloride", "4-Methoxybenzoic acid chloride", "4-Anisoyl chloride", "Para-anisoyl chloride", "NSC 86125", "4-Methoxyphenylchloroform"], "SMILES": "C(Cl)(=O)C1=CC=C(OC)C=C1", "physical_data": {"Molecular Weight": "170.59", "Molecular Formula": "C8H7ClO2", "Boiling Point": "262-263 \u00b0C", "Melting Point": "24-25 \u00b0C", "Density": "1.261 g/cm\u00b3 @ Temp: 20 \u00b0C"}}