{"cas_no": "100-10-7", "cn_name": "\u5bf9\u4e8c\u7532\u80fa\u57fa\u82ef\u7532\u919b", "en_name": ["4-(Dimethylamino)benzaldehyde", "Benzaldehyde, 4-(dimethylamino)-", "Benzaldehyde, p-(dimethylamino)-", "4-(Dimethylamino)benzaldehyde", "p-(Dimethylamino)benzaldehyde", "4-(Dimethylamino)benzenecarbonal", "p-Formyldimethylaniline", "p-(N,N-Dimethylamino)benzaldehyde", "4-(N,N-Dimethylamino)benzaldehyde", "p-Formyl-N,N-dimethylaniline", "N,N-Dimethyl-p-aminobenzaldehyde", "4-Formyl-N,N-dimethylaniline", "N,N-Dimethyl-4-formylaniline", "N,N-Dimethyl-4-aminobenzaldehyde", "Named reagents and solutions, Ehrlich's", "p-DAB", "NSC 5517"], "SMILES": "N(C)(C)C1=CC=C(C=O)C=C1", "physical_data": {"Molecular Weight": "149.19", "Molecular Formula": "C9H11NO", "Boiling Point": "176-177 \u00b0C", "Melting Point": "74.5 \u00b0C"}}