{"cas_no": "100-83-4", "cn_name": "3-\u7f9f\u57fa\u82ef\u7532\u919b", "en_name": ["3-Hydroxybenzaldehyde", "Benzaldehyde, 3-hydroxy-", "Benzaldehyde, m-hydroxy-", "3-Hydroxybenzaldehyde", "m-Formylphenol", "3-Formylphenol", "m-Hydroxybenzaldehyde", "NSC 3504", "5-Hydroxybenzaldehyde"], "SMILES": "C(=O)C1=CC(O)=CC=C1", "physical_data": {"Molecular Weight": "122.12", "Molecular Formula": "C7H6O2", "Boiling Point": "240 \u00b0C", "Melting Point": "108 \u00b0C", "Density": "1.1299 g/cm\u00b3 @ Temp: 113.6 \u00b0C"}}