{"cas_no": "100-88-9", "cn_name": "\u73af\u62c9\u9178", "en_name": ["Cyclamate", "Sulfamic acid, N-cyclohexyl-", "Cyclohexanesulfamic acid", "Sulfamic acid, cyclohexyl-", "N-Cyclohexylsulfamic acid", "Cyclamate", "Cyclamic acid", "Cyclohexylsulfamic acid", "Hexamic acid", "Cyclohexylaminesulfonic acid", "Cyclohexylamidosulfuric acid", "Polycat 200", "NSC 220327"], "SMILES": "N(S(=O)(=O)O)C1CCCCC1", "physical_data": {"Molecular Weight": "179.24", "Molecular Formula": "C6H13NO3S", "Melting Point": "169.5 \u00b0C"}}