{"cas_no": "100-51-6", "cn_name": "\u82ef\u7532\u9187", "en_name": ["Benzyl alcohol", "Benzenemethanol", "Benzyl alcohol", "Benzenecarbinol", "Phenylcarbinol", "Phenylmethanol", "Phenylmethyl alcohol", "\u03b1-Toluenol", "(Hydroxymethyl)benzene", "\u03b1-Hydroxytoluene", "Benzylic alcohol", "Sunmorl BK 20", "NSC 8044", "TB 13G", "GTA 220", "MeSH ID: D019905"], "SMILES": "C(O)C1=CC=CC=C1", "physical_data": {"Molecular Weight": "108.14", "Molecular Formula": "C7H8O", "Boiling Point": "205.3 \u00b0C", "Melting Point": "-15.2 \u00b0C", "Density": "1.0419 g/cm\u00b3 @ Temp: 20 \u00b0C"}}