{"cas_no": "100047-36-7", "cn_name": "4-\u6c28\u57fa\u5421\u5576-2-\u7532\u9178", "en_name": ["4-Aminopicolinic acid", "2-Pyridinecarboxylic acid, 4-amino-", "Picolinic acid, 4-amino-", "4-Amino-2-pyridinecarboxylic acid", "4-Aminopicolinic acid", "4-Aminopyridine-2-carboxylic acid"], "SMILES": "C(O)(=O)C1=CC(N)=CC=N1", "physical_data": {"Molecular Weight": "138.12", "Molecular Formula": "C6H6N2O2", "Melting Point": "265 \u00b0C"}}