{"cas_no": "1000-70-0", "cn_name": "\u4e8c(\u4e09\u7532\u57fa\u7845\u57fa)\u78b3\u9170\u4e8c\u4e9a\u80fa", "en_name": ["Bis(trimethylsilyl)carbodiimide", "Silanamine, N,N\u2032-methanetetraylbis[1,1,1-trimethyl-", "Carbodiimide, bis(trimethylsilyl)-", "N,N\u2032-Methanetetraylbis[1,1,1-trimethylsilanamine]", "N,N\u2032-Bis(trimethylsilyl)carbodiimide", "Bis(trimethylsilyl)carbodiimide", "N,N-Bis(trimethylsilyl)carbodiimide", "1,3-Bis(trimethylsilyl)carbodiimide", "N,N\u2032-Methanetetraylbis[1,1,1-trimethylsilylamine]", "2,2,6,6-Tetramethyl-3,5-diaza-2,6-disilahepta-3,4-diene"], "SMILES": "N([Si](C)(C)C)=C=N[Si](C)(C)C", "physical_data": {"Molecular Weight": "186.40", "Molecular Formula": "C7H18N2Si2", "Boiling Point": "164 \u00b0C", "Melting Point": "-23 \u00b0C", "Density": "0.821 g/cm\u00b3"}}