{"cas_no": "10009-20-8", "cn_name": "\u4e09\u6c1f\u4e59\u9170\u8d56\u6c28\u9178", "en_name": ["N6-(2,2,2-Trifluoroacetyl)-L-lysine", "L-Lysine, N6-(2,2,2-trifluoroacetyl)-", "Lysine, N6-(trifluoroacetyl)-, L-", "L-Lysine, N6-(trifluoroacetyl)-", "N6-(2,2,2-Trifluoroacetyl)-L-lysine", "N6-(Trifluoroacetyl)-L-lysine", "N6-(Trifluoroacetyl)lysine", "N\u03b5-Trifluoroacetyl-L-lysine", "N\u03c9-(Trifluoroacetyl)-L-lysine", "(S)-6-(Trifluoroacetylamino)-2-aminohexanoic acid"], "SMILES": "C(NCCCCC(C(O)=O)N)(C(F)(F)F)=O", "physical_data": {"Molecular Weight": "242.20", "Molecular Formula": "C8H13F3N2O3", "Melting Point": "252-254 \u00b0C (decomp)"}}