{"cas_no": "1000-50-6", "cn_name": "\u53d4\u4e01\u57fa\u4e09\u7532\u57fa\u6c2f\u7845\u70f7", "en_name": ["Butyldimethylsilyl chloride", "Silane, butylchlorodimethyl-", "Butylchlorodimethylsilane", "Butyldimethylsilyl chloride", "Chlorodimethylbutylsilane", "Butyldimethylchlorosilane", "Dimethyl-n-butylchlorosilane", "n-Butyldimethylchlorosilane", "n-Butyldimethylsilyl chloride", "Butychlorodimethylsilane", "n-Butylchlorodimethylsilane"], "SMILES": "C([Si](C)(C)Cl)CCC", "physical_data": {"Molecular Weight": "150.72", "Molecular Formula": "C6H15ClSi", "Boiling Point": "139 \u00b0C", "Density": "0.875 g/cm\u00b3"}}