{"cas_no": "1000-82-4", "cn_name": "\u7f9f\u7532\u57fa\u8132", "en_name": ["(Hydroxymethyl)urea", "Urea, N-(hydroxymethyl)-", "Urea, (hydroxymethyl)-", "N-(Hydroxymethyl)urea", "Methylolurea", "N-Methylolurea", "(Hydroxymethyl)urea", "1-(Hydroxymethyl)urea", "Mono(hydroxymethyl)urea", "Monomethylolurea", "NSC 13181"], "SMILES": "N(C(N)=O)CO", "physical_data": {"Molecular Weight": "90.08", "Molecular Formula": "C2H6N2O2", "Melting Point": "111 \u00b0C"}}