{"cas_no": "1000-05-1", "cn_name": "1,1,3,3,5,5,7,7-\u516b\u7532\u57fa\u56db\u7845\u6c27\u70f7", "en_name": ["1,1,3,3,5,5,7,7-Octamethyltetrasiloxane", "Tetrasiloxane, 1,1,3,3,5,5,7,7-octamethyl-", "1,1,3,3,5,5,7,7-Octamethyltetrasiloxane", "Octamethyltetrasiloxane"], "SMILES": "O([Si](O[SiH](C)C)(C)C)[Si](O[SiH](C)C)(C)C", "physical_data": {"Molecular Weight": "282.63", "Molecular Formula": "C8H26O3Si4", "Boiling Point": "169-170 \u00b0C", "Density": "0.863 g/cm\u00b3"}}