{"cas_no": "1000343-13-4", "cn_name": "5-\u6eb4-6-\u7532\u57fa\u5432\u54da", "en_name": ["5-Bromo-6-methyl-1H-indole", "1H-Indole, 5-bromo-6-methyl-", "5-Bromo-6-methyl-1H-indole"], "SMILES": "BrC=1C=C2C(=CC1C)NC=C2", "physical_data": {"Molecular Weight": "210.07", "Molecular Formula": "C9H8BrN", "Melting Point": "85-86 \u00b0C"}}