{"cas_no": "10004-44-1", "cn_name": "\u6076\u9709\u7075", "en_name": ["3-Hydroxy-5-methylisoxazole", "3(2H)-Isoxazolone, 5-methyl-", "3-Isoxazolol, 5-methyl-", "5-Methyl-3(2H)-isoxazolone", "3-Hydroxy-5-methylisoxazole", "Tachigaren", "5-Methyl-3-hydroxyisoxazole", "Hymexazole", "Hymexazol", "F 319 (fungicide)", "Hydroxyisoxazole (pesticide)", "Butsid", "Bucid", "Hydroxyisoxazole", "F 319", "NSC 217971", "5-Methylisoxazol-3-ol", "5-Methyl-1,2-oxazol-3-ol"], "SMILES": "O=C1C=C(C)ON1", "physical_data": {"Molecular Weight": "99.09", "Molecular Formula": "C4H5NO2", "Melting Point": "86.5 \u00b0C"}}