{"cas_no": "1000-86-8", "cn_name": "2,4-\u4e8c\u7532\u57fa-1,3-\u620a\u4e8c\u70ef", "en_name": ["2,4-Dimethyl-1,3-pentadiene", "1,3-Pentadiene, 2,4-dimethyl-", "2,4-Dimethyl-1,3-pentadiene", "1,1,3-Trimethylbutadiene", "2,4-Dimethylpenta-2,4-diene", "NSC 123451"], "SMILES": "C(C(C)=C)=C(C)C", "physical_data": {"Molecular Weight": "96.17", "Molecular Formula": "C7H12", "Boiling Point": "93.2 \u00b0C", "Melting Point": "-114 \u00b0C", "Density": "0.7368 g/cm\u00b3 @ Temp: 20 \u00b0C"}}