{"cas_no": "1000623-98-2", "cn_name": "2,5-\u4e8c(2-\u5df1\u57fa\u7678\u57fa)-3,6-\u4e8c(5-\u6eb4\u567b\u5429\u57fa)-\u5421\u54af\u5e76\u5421\u54af\u4e8c\u916e", "en_name": ["3,6-Bis(5-bromothiophen-2-yl)-2,5-bis(2-hexyldecyl)pyrrolo[3,4-c]pyrrole-1,4(2H,5H)-dione", "Pyrrolo[3,4-c]pyrrole-1,4-dione, 3,6-bis(5-bromo-2-thienyl)-2,5-bis(2-hexyldecyl)-2,5-dihydro-", "3,6-Bis(5-bromo-2-thienyl)-2,5-bis(2-hexyldecyl)-2,5-dihydropyrrolo[3,4-c]pyrrole-1,4-dione", "3,6-Bis(5-bromothiophen-2-yl)-2,5-bis(2-hexyldecyl)pyrrolo[3,4-c]pyrrole-1,4(2H,5H)-dione", "1,4-Bis(5-bromothiophen-2-yl)-2,5-bis(2-hexyldecyl)pyrrolo[3,4-c]pyrrole-3,6-dione", "3,6-Bis(5-bromo-2-thienyl)-2,5-bis(2-hexyldecyl)pyrrolo[3,4-c]pyrrole-1,4(2H,5H)-dione"], "SMILES": "O=C1C=2C(=C(N1CC(CCCCCCCC)CCCCCC)C3=CC=C(Br)S3)C(=O)N(CC(CCCCCCCC)CCCCCC)C2C4=CC=C(Br)S4", "physical_data": {"Molecular Weight": "907.00", "Molecular Formula": "C46H70Br2N2O2S2", "Melting Point": "114.5-116.0 \u00b0C"}}