{"cas_no": "10008-73-8", "cn_name": "5-\u7532\u57fa-2(3H)-\u544b\u5583\u916e", "en_name": ["Dihydro-5-methylene-2(3H)-furanone", "2(3H)-Furanone, dihydro-5-methylene-", "4-Pentenoic acid, 4-hydroxy-, \u03b3-lactone", "Dihydro-5-methylene-2(3H)-furanone", "4,5-Dihydro-5-methylenefuran-2(3H)-one", "\u03b3-Methylene-\u03b3-butyrolactone", "4-Penten-4-olide", "5-Methylenetetrahydro-2-furanone", "Dihydro-5-methylenefuran-2(3H)-one", "5-Methylene-3,4-dihydro-2-furanone"], "SMILES": "C=C1OC(=O)CC1", "physical_data": {"Molecular Weight": "98.10", "Molecular Formula": "C5H6O2", "Boiling Point": "80 \u00b0C @ Press: 17 Torr"}}