{"cas_no": "10019-24-6", "cn_name": "\u56db-(4-\u7532\u6c27\u57fa\u82ef)\u4e59\u70ef", "en_name": ["1,1\u2032,1\u2032\u2032,1\u2032\u2032\u2032-(1,2-Ethenediylidene)tetrakis[4-methoxybenzene]", "Benzene, 1,1\u2032,1\u2032\u2032,1\u2032\u2032\u2032-(1,2-ethenediylidene)tetrakis[4-methoxy-", "Ethylene, tetrakis(p-methoxyphenyl)-", "1,1\u2032,1\u2032\u2032,1\u2032\u2032\u2032-(1,2-Ethenediylidene)tetrakis[4-methoxybenzene]", "Tetra-p-anisylethylene", "Tetrakis(p-methoxyphenyl)ethylene", "1,1,2,2-Tetrakis(p-methoxyphenyl)ethene", "Tetrakis(4-methoxyphenyl)ethylene", "Tetrakis(4-methoxyphenyl)ethene", "Tetra(4-methoxyphenyl)ethylene", "NSC 132124", "Tetra(4-methoxyphenyl)ethene", "1,1,2,2-Tetrakis(4\u2032-methoxyphenyl)ethene", "1-Methoxy-4-[1,2,2-tris(4-methoxyphenyl)ethenyl]benzene", "1,1,2,2-Tetrakis(4-methoxyphenyl)ethene"], "SMILES": "C(=C(C1=CC=C(OC)C=C1)C2=CC=C(OC)C=C2)(C3=CC=C(OC)C=C3)C4=CC=C(OC)C=C4", "physical_data": {"Molecular Weight": "452.54", "Molecular Formula": "C30H28O4", "Melting Point": "183 \u00b0C"}}