{"cas_no": "10012-47-2", "cn_name": "\u4e8c\u7532\u57fa\u666e\u9c81\u5361\u56e0", "en_name": ["Benzoic acid, 4-amino-, 2-(dimethylamino)ethyl ester", "Benzoic acid, 4-amino-, 2-(dimethylamino)ethyl ester", "Benzoic acid, p-amino-, 2-(dimethylamino)ethyl ester", "Ethanol, 2-dimethylamino-, p-aminobenzoate", "(Dimethylamino)ethyl p-aminobenzoate", "2-(Dimethylamino)ethyl 4-aminobenzoate", "Dimethylprocaine", "NSC 25247"], "SMILES": "C(OCCN(C)C)(=O)C1=CC=C(N)C=C1", "physical_data": {"Molecular Weight": "208.26", "Molecular Formula": "C11H16N2O2", "Melting Point": "121 \u00b0C"}}