{"cas_no": "1001-58-7", "cn_name": "2-\u6c30\u57fa\u4e59\u786b\u9187", "en_name": ["3-Mercaptopropanenitrile", "Propanenitrile, 3-mercapto-", "Propionitrile, 3-mercapto-", "3-Mercaptopropanenitrile", "3-Mercaptopropionitrile", "1-Cyano-2-mercaptoethane", "\u03b2-Mercaptopropionitrile", "2-Cyanoethyl mercaptan", "3-Sulfanylpropanenitrile"], "SMILES": "C(C#N)CS", "physical_data": {"Molecular Weight": "87.14", "Molecular Formula": "C3H5NS", "Boiling Point": "44-46 \u00b0C", "Density": "1.0696 g/cm\u00b3 @ Temp: 20 \u00b0C"}}