{"cas_no": "1001-26-9", "cn_name": "3-\u4e59\u6c27\u57fa\u4e19\u70ef\u9178\u4e59\u916f", "en_name": ["Ethyl 3-ethoxy-2-propenoate", "2-Propenoic acid, 3-ethoxy-, ethyl ester", "Acrylic acid, 3-ethoxy-, ethyl ester", "Ethyl 3-ethoxy-2-propenoate", "Ethyl \u03b2-ethoxyacrylate", "Ethyl 3-ethoxyacrylate", "NSC 6828", "3-Ethoxy-2-propenoic acid ethyl ester", "3-Ethoxyacrylic acid ethyl ester"], "SMILES": "C(C(OCC)=O)=COCC", "physical_data": {"Molecular Weight": "144.17", "Molecular Formula": "C7H12O3", "Boiling Point": "78.5-79.0 \u00b0C @ Press: 10 Torr", "Density": "0.994 g/cm\u00b3 @ Temp: 20 \u00b0C"}}