{"cas_no": "100198-09-2", "cn_name": "PISCIDINOL A", "en_name": ["Piscidinol A", "Lanost-7-en-3-one, 23,24,25-trihydroxy-, (13\u03b1,14\u03b2,17\u03b1,20S,23R,24S)-", "(13\u03b1,14\u03b2,17\u03b1,20S,23R,24S)-23,24,25-Trihydroxylanost-7-en-3-one", "Piscidinol A"], "SMILES": "CC12C3C(C4(C)C(C)(CC3)C(C(CC(C(C(C)(C)O)O)O)C)CC4)=CCC1C(C)(C)C(=O)CC2", "physical_data": {"Molecular Weight": "474.72", "Molecular Formula": "C30H50O4", "Melting Point": "195 \u00b0C"}}