{"cas_no": "100124-07-0", "cn_name": "\u5429\u6076\u567b-4-\u787c\u9178", "en_name": ["B-4-Phenoxathiinylboronic acid", "Boronic acid, B-4-phenoxathiinyl-", "4-Phenoxathiinboronic acid", "Boronic acid, 4-phenoxathiinyl-", "B-4-Phenoxathiinylboronic acid", "Phenoxathiin-4-ylboronic acid"], "SMILES": "B(O)(O)C1=C2C(SC=3C(O2)=CC=CC3)=CC=C1", "physical_data": {"Molecular Weight": "244.07", "Molecular Formula": "C12H9BO3S", "Melting Point": "156.8-157 \u00b0C"}}