{"cas_no": "10017-37-5", "cn_name": "2-\u6c28\u57fa-2-\u7532\u57fa\u4e19\u70f7 \u76d0\u9178\u76d0", "en_name": ["tert-Butylammonium chloride", "2-Propanamine, 2-methyl-, hydrochloride (1:1)", "tert-Butylamine, hydrochloride", "2-Propanamine, 2-methyl-, hydrochloride", "t-Butylamine hydrochloride", "tert-Butylammonium chloride", "1,1-Dimethylethylamine hydrochloride", "2-Methylpropan-2-amine hydrochloride", "2-Amino-2-methylpropane hydrochloride"], "SMILES": "C(C)(C)(C)N.Cl", "physical_data": {"Molecular Weight": "", "Molecular Formula": "C4H11N.ClH", "Melting Point": "291 \u00b0C (decomp)"}}