{"cas_no": "1001-89-4", "cn_name": "2-\u6c2f\u5e9a\u70f7", "en_name": ["2-Chloroheptane", "Heptane, 2-chloro-", "2-Chloroheptane", "(\u00b1)-2-Chloroheptane"], "SMILES": "C(CCCC)C(C)Cl", "physical_data": {"Molecular Weight": "134.65", "Molecular Formula": "C7H15Cl", "Boiling Point": "140-141 \u00b0C", "Density": "0.8649 g/cm\u00b3 @ Temp: 20 \u00b0C"}}