{"cas_no": "10017-11-5", "cn_name": "\u70ef\u4e19\u57fa\u80fa\u76d0\u9178\u76d0", "en_name": ["2-Propen-1-amine, hydrochloride (1:1)", "2-Propen-1-amine, hydrochloride (1:1)", "Allylamine, hydrochloride", "2-Propen-1-amine, hydrochloride", "Allylammonium chloride", "2-Propenylamine hydrochloride"], "SMILES": "C(CN)=C.Cl", "physical_data": {"Molecular Weight": "", "Molecular Formula": "C3H7N.ClH", "Melting Point": "96-97 \u00b0C"}}