{"cas_no": "100134-82-5", "cn_name": "(1-\u6c30\u57fa-1-\u7532\u57fa\u4e59\u57fa)\u6c28\u57fa\u7532\u9178\u82c4\u916f", "en_name": ["Phenylmethyl N-(1-cyano-1-methylethyl)carbamate", "Carbamic acid, N-(1-cyano-1-methylethyl)-, phenylmethyl ester", "Carbamic acid, (1-cyano-1-methylethyl)-, benzyl ester", "Carbamic acid, (1-cyano-1-methylethyl)-, phenylmethyl ester", "Phenylmethyl N-(1-cyano-1-methylethyl)carbamate", "Benzyl [1-cyano-1-methylethyl]carbamate", "(Cyanodimethylmethyl)carbamic Acid Benzyl Ester"], "SMILES": "C(OC(NC(C#N)(C)C)=O)C1=CC=CC=C1", "physical_data": {"Molecular Weight": "218.25", "Molecular Formula": "C12H14N2O2", "Melting Point": "97 \u00b0C"}}