{"cas_no": "100189-17-1", "cn_name": "6-\u7532\u57fa-3-\u5421\u5576\u4e59\u9187", "en_name": ["6-Methyl-3-pyridineethanol", "3-Pyridineethanol, 6-methyl-", "6-Methyl-3-pyridineethanol", "2-(6-Methylpyridin-3-yl)ethanol", "2-(6-Methylpyridin-3-yl)ethan-1-ol", "2-(6-Methyl-3-pyridyl)ethanol"], "SMILES": "C(CO)C=1C=CC(C)=NC1", "physical_data": {"Molecular Weight": "137.18", "Molecular Formula": "C8H11NO", "Boiling Point": "103 \u00b0C @ Press: 2 Torr", "Melting Point": "38 \u00b0C"}}