{"cas_no": "100114-58-7", "cn_name": "2-\u7f9f\u7532\u57fa-4-\u6c28\u57fa\u5421\u5576", "en_name": ["4-Amino-2-pyridinemethanol", "2-Pyridinemethanol, 4-amino-", "4-Amino-2-pyridinemethanol", "(4-Amino-pyridin-2-yl)-methanol"], "SMILES": "C(O)C1=CC(N)=CC=N1", "physical_data": {"Molecular Weight": "124.14", "Molecular Formula": "C6H8N2O", "Melting Point": "114-115 \u00b0C"}}