{"cas_no": "10017-44-4", "cn_name": "L-\u8089\u78b1\u76d0\u9178\u76d0", "en_name": ["1-Propanaminium, 3-carboxy-2-hydroxy-N,N,N-trimethyl-, chloride (1:1), (2S)-", "1-Propanaminium, 3-carboxy-2-hydroxy-N,N,N-trimethyl-, chloride (1:1), (2S)-", "Ammonium, (3-carboxy-2-hydroxypropyl)trimethyl-, chloride, (+)-", "1-Propanaminium, 3-carboxy-2-hydroxy-N,N,N-trimethyl-, chloride, (S)-", "1-Propanaminium, 3-carboxy-2-hydroxy-N,N,N-trimethyl-, chloride, (2S)-", "(+)-Carnitine hydrochloride", "(S)-Carnitine hydrochloride", "d-Carnitine chloride", "(S)-3-Carboxy-2-hydroxy-N,N,N-trimethylpropan-1-aminium chloride", "(S)-3-Hydroxy-4-(trimethylammonio)butanoate hydrochloride"], "SMILES": "C([N+](C)(C)C)C(CC(O)=O)O.[Cl-]", "physical_data": {"Molecular Weight": "", "Molecular Formula": "C7H16NO3.Cl", "Melting Point": "135-137 \u00b0C"}}