{"cas_no": "10026-03-6", "cn_name": "\u56db\u6c2f\u5316\u7852", "en_name": ["Selenium tetrachloride", "Selenium chloride (SeCl4), (T-4)-", "Selenium chloride (SeCl4)", "Selenium tetrachloride", "Tetrachloroselenium", "Selenium chloride"], "SMILES": "[Se](Cl)(Cl)(Cl)Cl", "physical_data": {"Molecular Weight": "220.77", "Molecular Formula": "Cl4Se", "Melting Point": "305 \u00b0C"}}