{"cas_no": "10025-87-3", "cn_name": "\u4e09\u6c2f\u6c27\u78f7", "en_name": ["Phosphorus oxychloride", "Phosphoric trichloride", "Phosphoryl chloride", "Phosphorus oxychloride", "Phosphorus oxytrichloride", "Phosphorus chloride oxide (POCl3)", "Trichlorophosphine oxide", "Phosphoryl trichloride", "Phosphorus oxide trichloride", "Phosphoroxychloride", "Trichlorophosphorus oxide", "Phosphoric chloride", "Phosphorus trichloride oxide", "Phosphoroxytrichloride", "Phosphorus chloride oxide (PCl3O)", "Phosphorus monoxide trichloride", "Phosphonyl trichloride", "Phosphorous chloride oxide (POCl3)"], "SMILES": "P(Cl)(Cl)(Cl)=O", "physical_data": {"Molecular Weight": "153.33", "Molecular Formula": "Cl3OP", "Boiling Point": "105.8 \u00b0C", "Melting Point": "1.25 \u00b0C", "Density": "1.645 g/cm\u00b3 @ Temp: 25 \u00b0C"}}