{"cas_no": "10025-78-2", "cn_name": "\u4e09\u6c2f\u7845\u70f7", "en_name": ["Trichlorosilane", "Silane, trichloro-", "Trichlorosilane", "Silicochloroform", "Trichloromonosilane", "Trichlorosilane (HSiCl3)", "Silicon chloride hydride (SiHCl3)", "Trichlorosilane (SiHCl3)", "Silicon chloride hydride (SiCl3H)", "Hydrotrichlorosilane"], "SMILES": "[SiH](Cl)(Cl)Cl", "physical_data": {"Molecular Weight": "135.45", "Molecular Formula": "Cl3HSi", "Boiling Point": "31.8 \u00b0C", "Melting Point": "-126.5 \u00b0C", "Density": "1.3830 g/cm\u00b3 @ Temp: 0 \u00b0C"}}