{"cas_no": "10026-12-7", "cn_name": "\u4e94\u6c2f\u5316\u94cc", "en_name": ["Niobium pentachloride", "Niobium chloride (NbCl5)", "Niobium pentachloride", "Niobium chloride", "Pentachloroniobium", "Niobium pentachloride (NbCl5)", "Niobium(V) chloride", "Columbium pentachloride"], "SMILES": "[Nb](Cl)(Cl)(Cl)(Cl)Cl", "physical_data": {"Molecular Weight": "", "Molecular Formula": "Cl5Nb", "Boiling Point": "254 \u00b0C", "Melting Point": "205-209.5 \u00b0C"}}