{"cas_no": "10027-07-3", "cn_name": "1,8-\u4e8c\u8f9b\u9170\u6c2f", "en_name": ["Octanedioyl dichloride", "Octanedioyl dichloride", "Suberoyl chloride", "Suberyl chloride", "Suberic chloride", "Octanedioyl chloride", "Suberoyl dichloride", "Suberyl dichloride", "Suberic dichloride", "Suberic acid dichloride", "1,6-Hexanedicarbonyl chloride", "Subaric dichloride"], "SMILES": "C(CC(Cl)=O)CCCCC(Cl)=O", "physical_data": {"Molecular Weight": "211.09", "Molecular Formula": "C8H12Cl2O2", "Boiling Point": "210-220 \u00b0C @ Press: 11 Torr", "Melting Point": "61-62 \u00b0C"}}