{"cas_no": "10022-31-8", "cn_name": "\u785d\u9178\u94a1", "en_name": ["Barium nitrate", "Nitric acid, barium salt (2:1)", "Nitric acid, barium salt", "Barium nitrate", "Barium dinitrate", "Barium nitrate (Ba(NO3)2)", "Barium(II) nitrate"], "SMILES": "N(=O)(=O)O.[Ba]", "physical_data": {"Molecular Weight": "", "Molecular Formula": "Ba.2HNO3", "Melting Point": "590 \u00b0C", "Density": "3.24 g/cm\u00b3 @ Temp: 23 \u00b0C"}}