{"cas_no": "1002-57-9", "cn_name": "8-\u6c28\u57fa\u8f9b\u9178", "en_name": ["8-Aminooctanoic acid", "Octanoic acid, 8-amino-", "8-Aminooctanoic acid", "\u03b7-Aminocaprylic acid", "\u03c9-Aminocaprylic acid", "8-Aminocaprylic acid", "\u03c9-Aminooctanoic acid", "NSC 59019", "Poly(8-aminocaprylic acid)"], "SMILES": "C(CCCCN)CCC(O)=O", "physical_data": {"Molecular Weight": "159.23", "Molecular Formula": "C8H17NO2", "Melting Point": "194 \u00b0C (decomp)"}}