{"cas_no": "10025-67-9", "cn_name": "\u4e8c\u6c2f\u5316\u4e8c\u786b", "en_name": ["Sulfur monochloride", "Sulfur chloride (S2Cl2)", "Disulfur dichloride", "Sulfur subchloride", "Thiosulfurous dichloride", "Chlorosulfane", "Sulfur chloride", "Sulphur chloride (S2Cl2)", "Sulfur monochloride", "Dichlorodisulfane", "Sulfur monochloride (S2Cl2)"], "SMILES": "S(SCl)Cl", "physical_data": {"Molecular Weight": "135.04", "Molecular Formula": "Cl2S2", "Boiling Point": "135.6 \u00b0C", "Melting Point": "-77 \u00b0C", "Density": "1.6885 g/cm\u00b3 @ Temp: 15.5 \u00b0C"}}