{"cas_no": "10025-65-7", "cn_name": "\u4e8c\u6c2f\u5316\u94c2", "en_name": ["Platinum dichloride", "Platinum chloride (PtCl2)", "Platinous chloride", "Platinous dichloride", "Platinum(II) dichloride", "Platinum(II) chloride", "Platinum dichloride"], "SMILES": "[Pt](Cl)Cl", "physical_data": {"Molecular Weight": "", "Molecular Formula": "Cl2Pt", "Melting Point": "581 \u00b0C (decomp)", "Density": "5.87 g/cm\u00b3"}}