{"cas_no": "10028-15-6", "cn_name": "\u81ed\u6c27", "en_name": ["Ozone", "Ozone", "Triatomic oxygen", "Oxygen, mol. (O3)", "Ozone(16O16O16O)", "Ozone (O3)", "Healozone", "MeSH ID: D010126"], "SMILES": "O([O])[O]", "physical_data": {"Molecular Weight": "", "Molecular Formula": "O3", "Boiling Point": "-111.9 \u00b0C", "Melting Point": "-192.7 \u00b0C", "Density": "0.537 g/cm\u00b3"}}