{"cas_no": "10026-17-2", "cn_name": "\u6c1f\u5316\u94b4", "en_name": ["Cobalt difluoride", "Cobalt fluoride (CoF2)", "Cobalt difluoride", "Cobalt(II) fluoride", "Cobaltous fluoride", "Cobalt fluoride"], "SMILES": "[Co](F)F", "physical_data": {"Molecular Weight": "", "Molecular Formula": "CoF2", "Boiling Point": "1400 \u00b0C", "Melting Point": "1100-1200 \u00b0C", "Density": "4.43 g/cm\u00b3"}}