{"cas_no": "10024-90-5", "cn_name": "3-\u7532\u57fa-4-\u7532\u6c27\u57fa\u82ef\u4e59\u916e", "en_name": ["1-(4-Methoxy-3-methylphenyl)ethanone", "Ethanone, 1-(4-methoxy-3-methylphenyl)-", "Acetophenone, 4\u2032-methoxy-3\u2032-methyl-", "1-(4-Methoxy-3-methylphenyl)ethanone", "4\u2032-Methoxy-3\u2032-methylacetophenone", "4-Acetyl-2-methylanisole", "3\u2032-Methyl-4\u2032-methoxyacetophenone", "1-(4-Methoxy-3-methylphenyl)ethan-1-one"], "SMILES": "C(C)(=O)C1=CC(C)=C(OC)C=C1", "physical_data": {"Molecular Weight": "164.20", "Molecular Formula": "C10H12O2", "Boiling Point": "116 \u00b0C @ Press: 3 Torr", "Melting Point": "26-26.5 \u00b0C", "Density": "1.0812 g/cm\u00b3 @ Temp: 18 \u00b0C"}}