{"cas_no": "10025-76-0", "cn_name": "\u65e0\u6c34\u4e09\u6c2f\u5316\u94d5", "en_name": ["Europium trichloride", "Europium chloride (EuCl3)", "Europic chloride", "Europium trichloride", "Europium chloride", "Europium(III) chloride", "NSC 281265", "NSC 621597"], "SMILES": "[Eu](Cl)(Cl)Cl", "physical_data": {"Molecular Weight": "", "Molecular Formula": "Cl3Eu", "Melting Point": "623 \u00b0C"}}