{"cas_no": "10025-68-0", "cn_name": "\u4e8c\u6c2f\u5316\u4e8c\u7852", "en_name": ["Selenium chloride (Se2Cl2)", "Selenium chloride (Se2Cl2)", "Selenium monochloride", "Diselenium dichloride", "Dichlorodiselenide"], "SMILES": "[Se]([Se]Cl)Cl", "physical_data": {"Molecular Weight": "228.83", "Molecular Formula": "Cl2Se2", "Boiling Point": "127 \u00b0C @ Press: 758 Torr", "Melting Point": "-85 \u00b0C (decomp)", "Density": "2.7741 g/cm\u00b3 @ Temp: 25 \u00b0C"}}