{"cas_no": "1002-62-6", "cn_name": "\u7678\u9178\u94a0", "en_name": ["Sodium caprate", "Decanoic acid, sodium salt (1:1)", "Decanoic acid, sodium salt", "Sodium caprinate", "Sodium decanoate", "Sodium caprate", "Sodium decanoic acid", "Capric acid sodium salt"], "SMILES": "C(CCCCCC)CCC(O)=O.[Na]", "physical_data": {"Molecular Weight": "", "Molecular Formula": "C10H20O2.Na", "Melting Point": "318 \u00b0C"}}