{"cas_no": "10026-13-8", "cn_name": "\u4e94\u6c2f\u5316\u78f7", "en_name": ["Phosphorus pentachloride", "Phosphorane, pentachloro-", "Phosphorus chloride (PCl5)", "Pentachlorophosphorane", "Phosphoric chloride", "Phosphorus pentachloride", "Phosphorus perchloride", "Phosphorus(V) chloride", "Pentachlorophosphorus"], "SMILES": "P(Cl)(Cl)(Cl)(Cl)Cl", "physical_data": {"Molecular Weight": "208.24", "Molecular Formula": "Cl5P", "Melting Point": "160.5 \u00b0C", "Density": "2.114 g/cm\u00b3 @ Temp: 20 \u00b0C"}}