{"cas_no": "10025-91-9", "cn_name": "\u4e09\u6c2f\u5316\u9511", "en_name": ["Antimony trichloride", "Stibine, trichloro-", "Antimony chloride (SbCl3)", "Trichlorostibine", "C.I. 77056", "Antimony Butter", "Antimony(III) chloride", "Antimony trichloride", "Antimonous chloride", "Butter of antimony", "Antimony chloride (Sb2Cl6)", "Trichloroantimony", "Antimony(III) trichloride"], "SMILES": "[Sb](Cl)(Cl)Cl", "physical_data": {"Molecular Weight": "", "Molecular Formula": "Cl3Sb", "Boiling Point": "223.5 \u00b0C", "Melting Point": "73.4 \u00b0C", "Density": "3.14 g/cm\u00b3"}}