{"cas_no": "10026-07-0", "cn_name": "\u56db\u6c2f\u5316\u78b2", "en_name": ["Tellurium tetrachloride", "Tellurium chloride (TeCl4), (T-4)-", "Tellurium chloride (TeCl4)", "Telluric chloride", "Tellurium tetrachloride", "Tetrachlorotellurium", "Tellurium(IV) chloride", "Tellurium(IV) tetrachloride"], "SMILES": "[Te](Cl)(Cl)(Cl)Cl", "physical_data": {"Molecular Weight": "", "Molecular Formula": "Cl4Te", "Boiling Point": "390 \u00b0C", "Melting Point": "225 \u00b0C"}}