{"cas_no": "1002-28-4", "cn_name": "3-\u5df2\u7094-1-\u9187", "en_name": ["3-Hexyn-1-ol", "3-Hexyn-1-ol", "3-Hexynol"], "SMILES": "C(#CCC)CCO", "physical_data": {"Molecular Weight": "98.14", "Molecular Formula": "C6H10O", "Boiling Point": "163 \u00b0C", "Density": "0.8967 g/cm\u00b3 @ Temp: 15 \u00b0C"}}