{"cas_no": "1002-16-0", "cn_name": "\u785d\u9178\u6b63\u620a\u916f", "en_name": ["Amyl nitrate", "Nitric acid, pentyl ester", "Pentyl nitrate", "n-Pentyl nitrate", "Amyl nitrate", "1-Pentyl nitrate"], "SMILES": "C(ON(=O)=O)CCCC", "physical_data": {"Molecular Weight": "133.15", "Molecular Formula": "C5H11NO3", "Boiling Point": "157 \u00b0C", "Melting Point": "&lt;0 \u00b0C"}}