{"cas_no": "1002-89-7", "cn_name": "\u786c\u8102\u9178\u94f5", "en_name": ["Ammonium stearate", "Octadecanoic acid, ammonium salt (1:1)", "Stearic acid, ammonium salt", "Octadecanoic acid, ammonium salt", "Ammonium stearate", "Stanfax 320", "Nopco DC 100A", "Nopcote DC 100A", "Stokal STA", "Kanebinol YC 81", "YC 81", "DC 100A", "Ligafluid AS 35", "Vicarlan BA", "DT 1008", "HMY 630"], "SMILES": "C(CCCCCCCCCCC)CCCCCC(O)=O.N", "physical_data": {"Molecular Weight": "", "Molecular Formula": "C18H36O2.H3N", "Melting Point": "22 \u00b0C"}}