{"cas_no": "10022-70-5", "cn_name": "\u6b21\u6c2f\u9178\u94a0\u4e94\u6c34\u5408\u7269", "en_name": ["Hypochlorous acid, sodium salt, pentahydrate", "Hypochlorous acid, sodium salt, pentahydrate", "Sodium hypochlorite pentahydrate"], "SMILES": "ClO.[Na].O", "physical_data": {"Molecular Weight": "", "Molecular Formula": "ClHO.5H2O.Na", "Melting Point": "27 \u00b0C"}}