{"cas_no": "10029-04-6", "cn_name": "2-\u7f9f\u7532\u57fa\u4e19\u70ef\u9178\u4e59\u916f", "en_name": ["Ethyl 2-(hydroxymethyl)-2-propenoate", "2-Propenoic acid, 2-(hydroxymethyl)-, ethyl ester", "Acrylic acid, 2-(hydroxymethyl)-, ethyl ester", "Hydracrylic acid, 2-methylene-, ethyl ester", "Ethyl 2-(hydroxymethyl)-2-propenoate", "Ethyl \u03b1-(hydroxymethyl)acrylate", "Ethyl 2-(hydroxymethyl)acrylate", "Ethyl \u03b1-hydroxymethacrylate", "Ethyl 2-hydroxymethyl-2-propenoate", "RHMA-E", "H 0916", "2-(Hydroxymethyl)acrylic acid ethyl ester", "Ethyl 2-hydroxymethacrylate"], "SMILES": "C(C(CO)=C)(OCC)=O", "physical_data": {"Molecular Weight": "130.14", "Molecular Formula": "C6H10O3", "Boiling Point": "55-60 \u00b0C @ Press: 1 Torr"}}