{"cas_no": "10026-04-7", "cn_name": "\u56db\u6c2f\u5316\u7845", "en_name": ["Silicon tetrachloride", "Silane, tetrachloro-", "Silicon chloride (SiCl4)", "Tetrachlorosilane", "Silicon tetrachloride", "Tetrachlorosilicon", "Perchlorosilane", "Silicon chloride", "LS 10", "LS 10 (silane)"], "SMILES": "[Si](Cl)(Cl)(Cl)Cl", "physical_data": {"Molecular Weight": "169.90", "Molecular Formula": "Cl4Si", "Boiling Point": "59 \u00b0C", "Melting Point": "-70 \u00b0C", "Density": "1.52 g/cm\u00b3 @ Temp: 0 \u00b0C"}}