{"cas_no": "10024-89-2", "cn_name": "\u5417\u5561\u5549\u76d0\u9178\u76d0", "en_name": ["Morpholine, hydrochloride (1:1)", "Morpholine, hydrochloride (1:1)", "Morpholine, hydrochloride", "Morpholinium chloride"], "SMILES": "C1COCCN1.Cl", "physical_data": {"Molecular Weight": "", "Molecular Formula": "C4H9NO.ClH", "Melting Point": "177 \u00b0C"}}