{"cas_no": "1002-69-3", "cn_name": "1-\u6c2f\u7678\u70f7", "en_name": ["1-Chlorodecane", "Decane, 1-chloro-", "1-Chlorodecane", "Decyl chloride", "n-Decyl chloride", "NSC 6088"], "SMILES": "C(CCCCC)CCCCCl", "physical_data": {"Molecular Weight": "176.73", "Molecular Formula": "C10H21Cl", "Boiling Point": "223.4 \u00b0C", "Melting Point": "-31.3 \u00b0C", "Density": "0.8696 g/cm\u00b3 @ Temp: 20 \u00b0C"}}