{"cas_no": "1002-67-1", "cn_name": "\u4e8c\u4e59\u4e8c\u9187\u7532\u4e59\u919a", "en_name": ["Diethylene glycol methyl ethyl ether", "Ethane, 1-ethoxy-2-(2-methoxyethoxy)-", "Ethane, 1-(2-ethoxyethoxy)-2-methoxy-", "1-Ethoxy-2-(2-methoxyethoxy)ethane", "Diethylene glycol, ethyl methyl ether", "Ethanol, 2,2\u2032-oxybis-, ethyl methyl ether", "Diethylene glycol methyl ethyl ether", "Hisolve EDM", "Hysorb EDM", "Hisolve EDM-S", "1-(2-Ethoxyethoxy)-2-methoxyethane", "EDM-S"], "SMILES": "C(OCCOC)COCC", "physical_data": {"Molecular Weight": "148.20", "Molecular Formula": "C7H16O3", "Boiling Point": "179 \u00b0C"}}