{"cas_no": "10024-97-2", "cn_name": "\u7b11\u6c14", "en_name": ["Nitrous oxide", "Nitrogen oxide (N2O)", "Laughing gas", "Nitrous oxide", "Dinitrogen oxide", "Dinitrogen monoxide", "Dinitrogen oxide (N2O)", "Hyponitrous acid anhydride", "Factitious air", "R 744A", "MeSH ID: D009609"], "SMILES": "N(#N)=O", "physical_data": {"Molecular Weight": "44.01", "Molecular Formula": "N2O", "Boiling Point": "-88.48 \u00b0C", "Melting Point": "-90.8 \u00b0C", "Density": "1.23 g/cm\u00b3 @ Temp: -89 \u00b0C"}}