{"cas_no": "10024-93-8", "cn_name": "\u4e09\u6c2f\u5316\u9495", "en_name": ["Neodymium trichloride", "Neodymium chloride (NdCl3)", "Neodymium trichloride", "Neodymium chloride", "Neodymium(3+) chloride", "Neodymium(III) chloride", "NSC 174325"], "SMILES": "[Nd](Cl)(Cl)Cl", "physical_data": {"Molecular Weight": "", "Molecular Formula": "Cl3Nd", "Melting Point": "784 \u00b0C"}}