{"cas_no": "10025-82-8", "cn_name": "\u6c2f\u5316\u94df", "en_name": ["Indium trichloride", "Indium chloride (InCl3)", "Indium trichloride", "Trichloroindium", "Indium(III) chloride", "Indium chloride"], "SMILES": "[In](Cl)(Cl)Cl", "physical_data": {"Molecular Weight": "", "Molecular Formula": "Cl3In", "Boiling Point": "655 \u00b0C", "Melting Point": "583 \u00b0C", "Density": "4.0 g/cm\u00b3"}}