{"cas_no": "10026-24-1", "cn_name": "\u786b\u9178\u94b4(\u4e03\u6c34)", "en_name": ["Cobalt sulfate (CoSO4) heptahydrate", "Sulfuric acid, cobalt(2+) salt, hydrate (1:1:7)", "Sulfuric acid, cobalt(2+) salt (1:1), heptahydrate", "Cobaltous sulfate heptahydrate", "Cobalt sulfate hydrate (CoSO4.7H2O)", "Cobalt sulfate (CoSO4) heptahydrate", "Cobalt monosulfate heptahydrate", "Cobalt(2+) sulfate heptahydrate", "Cobalt(II) sulfate heptahydrate"], "SMILES": "S(=O)(=O)(O)O.[Co].O", "physical_data": {"Molecular Weight": "", "Molecular Formula": "Co.H2O4S.7H2O", "Boiling Point": "420 \u00b0C", "Melting Point": "96.8 \u00b0C", "Density": "1.95 g/cm\u00b3"}}