{"cas_no": "10025-73-7", "cn_name": "\u65e0\u6c34\u4e09\u6c2f\u5316\u94ec", "en_name": ["Chromium chloride (CrCl3)", "Chromium chloride (CrCl3)", "C.I. 77295", "Chromic chloride", "Chromium trichloride", "Chromium(III) chloride", "Trichlorochromium", "Chromic chloride (CrCl3)", "Chromium trichloride (CrCl3)", "Chromic trichloride", "Chromium(3+) chloride"], "SMILES": "[Cr](Cl)(Cl)Cl", "physical_data": {"Molecular Weight": "", "Molecular Formula": "Cl3Cr", "Melting Point": "1150 \u00b0C", "Density": "2.87 g/cm\u00b3 @ Temp: 25 \u00b0C"}}