{"cas_no": "10029-09-1", "cn_name": "\u987a-1,4-\u4e8c(\u6c28\u7532\u57fa)\u73af\u5df1\u70f7", "en_name": ["cis-1,4-Cyclohexanedimethanamine", "1,4-Cyclohexanedimethanamine, cis-", "1,4-Cyclohexanebis(methylamine), cis-", "cis-1,4-Cyclohexanedimethanamine", "cis-1,4-Bis(aminomethyl)cyclohexane", "cis-1,4-Cyclohexanebis(methylamine)", "cis-1,4-Cyclohexylenebis(methylamine)", "cis-4-Aminomethylcyclohexylmethylamine"], "SMILES": "C(N)C1CCC(CN)CC1", "physical_data": {"Molecular Weight": "142.24", "Molecular Formula": "C8H18N2", "Boiling Point": "74-76 \u00b0C @ Press: 0.9 Torr"}}