{"cas_no": "10025-69-1", "cn_name": "\u6c2f\u5316\u4e9a\u9521\u4e8c\u6c34\u5408\u7269", "en_name": ["Tin dichloride dihydrate", "Tin chloride (SnCl2), dihydrate", "Stannous chloride dihydrate", "Tin dichloride dihydrate", "Stannous dichloride dihydrate", "Tin chloride dihydrate", "Tin(II) chloride dihydrate", "Tin dichloride dihydrate (SnCl2.2H2O)", "Tin, dichloro-, hydrate (1:2)"], "SMILES": "[Sn](Cl)Cl.O", "physical_data": {"Molecular Weight": "", "Molecular Formula": "Cl2Sn.2H2O", "Melting Point": "38 \u00b0C", "Density": "2.71 g/cm\u00b3"}}