{"cas_no": "10025-74-8", "cn_name": "\u6c2f\u5316\u955d(\u2162)", "en_name": ["Dysprosium chloride", "Dysprosium chloride (DyCl3)", "Dysprosium trichloride", "Dysprosium(III) chloride", "Dysprosium chloride", "NSC 174321"], "SMILES": "[Dy](Cl)(Cl)Cl", "physical_data": {"Molecular Weight": "", "Molecular Formula": "Cl3Dy", "Melting Point": "654 \u00b0C"}}