{"cas_no": "10020-43-6", "cn_name": "n-\u8f9b\u57fa-\u5355\u6c27\u4e59\u70ef", "en_name": ["Ethylene glycol monooctyl ether", "Ethanol, 2-(octyloxy)-", "2-(Octyloxy)ethanol", "Ethylene glycol mono-n-octyl ether", "1-(2-Hydroxyethoxy)octane", "Ethylene glycol monooctyl ether", "Octyl cellosolve", "2-(Octyloxy)ethan-1-ol", "2-Octoxyethanol"], "SMILES": "C(CCOCCO)CCCCC", "physical_data": {"Molecular Weight": "174.28", "Molecular Formula": "C10H22O2", "Boiling Point": "132-133 \u00b0C @ Press: 22 Torr", "Density": "0.8811 g/cm\u00b3 @ Temp: 20 \u00b0C"}}