{"cas_no": "1002-84-2", "cn_name": "\u5341\u4e94\u70f7\u9178", "en_name": ["Pentadecanoic acid", "Pentadecanoic acid", "Pentadecylic acid", "n-Pentadecanoic acid", "14FA", "NSC 28486"], "SMILES": "C(CCCCCCCC)CCCCCC(O)=O", "physical_data": {"Molecular Weight": "242.40", "Molecular Formula": "C15H30O2", "Boiling Point": "339.1 \u00b0C", "Melting Point": "52.3 \u00b0C"}}