{"cas_no": "1002-36-4", "cn_name": "2-\u5e9a\u7094-1-\u9187", "en_name": ["2-Heptyn-1-ol", "2-Heptyn-1-ol", "2-Heptynol", "3-Butylpropargyl alcohol"], "SMILES": "C(C#CCO)CCC", "physical_data": {"Molecular Weight": "112.17", "Molecular Formula": "C7H12O", "Boiling Point": "113-116 \u00b0C @ Press: 56 Torr", "Density": "0.8854 g/cm\u00b3 @ Temp: 20 \u00b0C"}}