{"cas_no": "10026-22-9", "cn_name": "\u785d\u9178\u94b4\u516d\u6c34\u5408\u7269", "en_name": ["Cobalt nitrate hexahydrate", "Nitric acid, cobalt(2+) salt, hydrate (2:1:6)", "Nitric acid, cobalt(2+) salt, hexahydrate", "Cobalt nitrate hexahydrate", "Cobalt(II) nitrate hexahydrate", "Cobalt dinitrate hexahydrate", "Cobalt nitrate (Co(NO3)2), hexahydrate", "Cobalt nitrate (Co(NO3)2.6H2O)", "Cobaltous nitrate hexahydrate", "Cobalt(2+) nitrate hexahydrate", "Cobaltous dinitrate hexahydrate", "Cobalt(2+) dinitrate hexahydrate"], "SMILES": "N(=O)(=O)O.[Co].O", "physical_data": {"Molecular Weight": "", "Molecular Formula": "Co.6H2O.2HNO3", "Melting Point": "55 \u00b0C", "Density": "1.88 g/cm\u00b3"}}