{"cas_no": "10028-22-5", "cn_name": "\u805a\u5408\u786b\u9178\u94c1", "en_name": ["Ferric sulfate", "Sulfuric acid, iron(3+) salt (3:2)", "Iron sulfate (Fe2(SO4)3)", "Ferric sulfate", "Iron persulfate", "Iron sesquisulfate", "Iron(III) sulfate", "Diiron trisulfate", "Iron sulfate (2:3)", "Iron(3+) sulfate", "Diiron(3+) sulfate", "Amersep 5320", "PIX 115", "ViscoStat", "FS-Pix", "PIX 123", "PIX 112", "Stat Gel"], "SMILES": "S(=O)(=O)(O)O.[Fe]", "physical_data": {"Molecular Weight": "", "Molecular Formula": "Fe.<sup>3</sup>/2H2O4S", "Melting Point": "480 \u00b0C (decomp)", "Density": "3.097 g/cm\u00b3 @ Temp: 18 \u00b0C"}}