{"cas_no": "10026-11-6", "cn_name": "\u6c2f\u5316\u9506", "en_name": ["Zirconium chloride (ZrCl4)", "Zirconium chloride (ZrCl4), (T-4)-", "Zirconium chloride (ZrCl4)", "Zirconium tetrachloride", "Zirconium chloride", "Tetrachlorozirconium", "Zirconium chloride (Zr2Cl8)", "Zirconium(IV) chloride", "Orgatix ZB 126"], "SMILES": "[Zr](Cl)(Cl)(Cl)Cl", "physical_data": {"Molecular Weight": "", "Molecular Formula": "Cl4Zr", "Boiling Point": "331 \u00b0C", "Melting Point": "436 \u00b0C", "Density": "2.803 g/cm\u00b3 @ Temp: 15 \u00b0C"}}