{"cas_no": "10032-05-0", "cn_name": "1,1-\u4e8c\u7532\u6c27\u57fa\u5e9a\u70f7", "en_name": ["1,1-Dimethoxyheptane", "Heptane, 1,1-dimethoxy-", "Heptanal, dimethyl acetal", "1,1-Dimethoxyheptane"], "SMILES": "C(CCCCCC)(OC)OC", "physical_data": {"Molecular Weight": "160.25", "Molecular Formula": "C9H20O2", "Boiling Point": "182 \u00b0C", "Density": "0.849 g/cm\u00b3 @ Temp: 20 \u00b0C"}}