{"cas_no": "100306-34-1", "cn_name": "(S)-(-)-3-\u6c2f-1-\u82ef\u57fa-1-\u4e19\u9187", "en_name": ["(-)-3-Chloro-1-phenyl-1-propanol", "Benzenemethanol, \u03b1-(2-chloroethyl)-, (\u03b1S)-", "Benzenemethanol, \u03b1-(2-chloroethyl)-, (S)-", "(\u03b1S)-\u03b1-(2-Chloroethyl)benzenemethanol", "(S)-3-Chloro-1-phenyl-1-propanol", "(S)-(-)-3-Chloro-1-phenyl-1-propanol", "(S)-3-Chloro-1-phenyl-propanol", "(-)-3-Chloro-1-phenyl-1-propanol", "(S)-1-Phenyl-3-chloro-1-propanol", "(1S)-3-Chloro-1-phenylpropan-1-ol"], "SMILES": "C(CCCl)(O)C1=CC=CC=C1", "physical_data": {"Molecular Weight": "170.64", "Molecular Formula": "C9H11ClO", "Melting Point": "56-57 \u00b0C"}}