{"cas_no": "10034-20-5", "cn_name": "1,3,4,6-\u56db-O-\u4e59\u9170\u57fa-2-\u6c28\u57fa-2-\u8131\u6c27-\u0392-D-\u8461\u8404\u7cd6\u76d0\u9178\u76d0", "en_name": ["\u03b2-D-Glucopyranose, 2-amino-2-deoxy-, 1,3,4,6-tetraacetate, hydrochloride (1:1)", "\u03b2-D-Glucopyranose, 2-amino-2-deoxy-, 1,3,4,6-tetraacetate, hydrochloride (1:1)", "Glucopyranose, 2-amino-2-deoxy-, 1,3,4,6-tetraacetate, hydrochloride, \u03b2-D-", "\u03b2-D-Glucopyranose, 2-amino-2-deoxy-, 1,3,4,6-tetraacetate, hydrochloride", "2-Amino-2-deoxy-1,3,4,6-tetra-O-acetyl-\u03b2,D-glucopyranose hydrochloride", "NSC 82044", "1,3,4,6-Tetra-O-acetyl-\u03b2-D-glucosamine hydrochloride", "1,3,4,6-Tetra-O-acetyl-2-amino-2-deoxy-\u03b2-D-glucopyranose hydrochloride", "\u03b2-D-Glucopyranose 1,3,4,6-tetraacetate-2-amino-2-deoxy hydrochloride"], "SMILES": "O(C(C)=O)C1C(OC(C)=O)C(N)C(OC(C)=O)OC1COC(C)=O.Cl", "physical_data": {"Molecular Weight": "", "Molecular Formula": "C14H21NO9.ClH", "Melting Point": "230 \u00b0C (decomp)"}}