{"cas_no": "10031-90-0", "cn_name": "2-\u544b\u5583\u4e19\u9178\u4e59\u916f", "en_name": ["Ethyl 2-furanpropanoate", "2-Furanpropanoic acid, ethyl ester", "2-Furanpropionic acid, ethyl ester", "Ethyl 2-furanpropanoate", "Ethyl 2-furanpropionate", "Ethyl \u03b2-furylpropionate", "Ethyl 3-(\u03b1-furyl)propionate", "Ethyl 3-(2-furyl)propionate", "NSC 97529", "Ethyl 3-(2-furyl)propanoate", "Ethyl 3-(furan-2-yl)propanoate", "Ethyl 3-(furan-2-yl)propionate"], "SMILES": "C(CC(OCC)=O)C1=CC=CO1", "physical_data": {"Molecular Weight": "168.19", "Molecular Formula": "C9H12O3", "Boiling Point": "108-110 \u00b0C @ Press: 10 Torr", "Density": "1.0562 g/cm\u00b3 @ Temp: 20 \u00b0C"}}