{"cas_no": "10031-93-3", "cn_name": "4-\u82ef\u4e01\u9178\u4e59\u916f", "en_name": ["Ethyl 4-phenylbutanoate", "Benzenebutanoic acid, ethyl ester", "Butyric acid, 4-phenyl-, ethyl ester", "Ethyl 4-phenylbutyrate", "Ethyl 4-phenylbutanoate", "NSC 163318"], "SMILES": "C(CCC(OCC)=O)C1=CC=CC=C1", "physical_data": {"Molecular Weight": "192.25", "Molecular Formula": "C12H16O2", "Boiling Point": "130-131 \u00b0C @ Press: 10 Torr", "Density": "1.001 g/cm\u00b3 @ Temp: 20 \u00b0C"}}