{"cas_no": "10039-32-4", "cn_name": "\u5341\u4e8c\u6c34\u5408\u78f7\u9178\u6c22\u4e8c\u94a0", "en_name": ["Disodium hydrogen phosphate dodecahydrate", "Phosphoric acid, sodium salt, hydrate (1:2:12)", "Phosphoric acid, disodium salt, dodecahydrate", "Disodium hydrogen phosphate dodecahydrate", "Disodium hydrogen orthophosphate dodecahydrate", "Disodium phosphate (Na2HPO4.12H2O)", "Disodium phosphate dodecahydrate", "Disodium orthophosphate dodecahydrate", "Phosphoric acid disodium dodecahydrate", "Monohydrogen disodium phosphate dodecahydrate", "Sodium phosphate (Na2HPO4) dodecahydrate", "Disodium monohydrogen phosphate dodecahydrate", "Disodium phosphate (Na2HPO4) dodecahydrate", "Disodium phosphate dodecahydrate (Na2HPO4.12H2O)", "Monosodium phosphate dodecahydrate", "1: PN: LV14347 PAGE: 18 claimed sequence", "Sodium phosphate dibasic dodecahydrate", "Dibasic sodium phosphate dodecahydrate"], "SMILES": "P(=O)(O)(O)O.[Na].O", "physical_data": {"Molecular Weight": "", "Molecular Formula": "H3O4P.12H2O.2Na", "Melting Point": "35 \u00b0C"}}