{"cas_no": "10039-54-0", "cn_name": "\u786b\u9178\u7f9f\u80fa", "en_name": ["Hydroxylamine, sulfate", "Hydroxylamine, sulfate (2:1)", "Hydroxylamine, sulfate (2:1) (salt)", "Hydroxylamine, sulfate", "Oxammonium sulfate", "Hydroxylammonium sulfate", "Bis(hydroxylamine) sulfate", "Hydroxyl ammonium sulfate ((HONH3)2SO4)", "Hydroxylamine neutral sulfate", "Di(hydroxylamine) sulfate", "Lanasane LAB", "Envision MLB 2030", "Bis(hydroxylammonium) sulfate", "Reduction Solution Securiganth P"], "SMILES": "S(=O)(=O)(O)O.NO", "physical_data": {"Molecular Weight": "", "Molecular Formula": "H3NO.<sup>1</sup>/2H2O4S", "Melting Point": "120 \u00b0C (decomp)", "Density": "1.88 g/cm\u00b3"}}