{"cas_no": "1003-83-4", "cn_name": "2,2-\u4e8c\u7532\u57fa-1,3-\u4e8c\u6c27\u6742\u73af\u5e9a-5-\u70ef", "en_name": ["4,7-Dihydro-2,2-dimethyl-1,3-dioxepin", "1,3-Dioxepin, 4,7-dihydro-2,2-dimethyl-", "4,7-Dihydro-2,2-dimethyl-1,3-dioxepin", "2,2-Dimethyl-4,7-dihydro-1,3-dioxepin", "2,2-Dimethyl-1,3-dioxacyclohept-5-ene", "NSC 693424", "2,2-Dimethyl-4,7-dihydro-1,3-dioxepine", "2,2-Dimethyl-4,7-dihydro-2H-1,3-dioxepine", "2,2-Dimethyl-4,7-dihydro-2H-[1,3]dioxepin"], "SMILES": "CC1(C)OCC=CCO1", "physical_data": {"Molecular Weight": "128.17", "Molecular Formula": "C7H12O2", "Boiling Point": "144.5-147.0 \u00b0C @ Press: 755 Torr"}}