{"cas_no": "10031-22-8", "cn_name": "\u6eb4\u5316\u94c5", "en_name": ["Lead dibromide", "Lead bromide (PbBr2)", "Lead bromide", "Lead dibromide", "Lead(II) bromide", "Plumbous bromide"], "SMILES": "[Pb](Br)Br", "physical_data": {"Molecular Weight": "", "Molecular Formula": "Br2Pb", "Melting Point": "366 \u00b0C", "Density": "6.648 g/cm\u00b3"}}