{"cas_no": "10036-64-3", "cn_name": "2-\u4e59\u9170\u6c28\u57fa-2-\u8131\u6c27-ALPHA-D-\u5421\u5583\u8461\u8404\u7cd6", "en_name": ["N-Acetyl-\u03b1-D-glucosamine", "\u03b1-D-Glucopyranose, 2-(acetylamino)-2-deoxy-", "Glucopyranose, 2-acetamido-2-deoxy-, \u03b1-D-", "2-(Acetylamino)-2-deoxy-\u03b1-D-glucopyranose", "\u03b1-N-Acetyl-D-glucosamine", "2-Acetamido-2-deoxy-\u03b1-D-glucopyranose", "N-Acetyl-\u03b1-D-glucosamine", "2-Deoxy-2-acetamido-\u03b1-D-glucopyranose", "2-Acetamido-2-deoxy-\u03b1-D-glucose", "\u03b1-N-Acetylglucosamine"], "SMILES": "N(C(C)=O)C1C(O)C(O)C(CO)OC1O", "physical_data": {"Molecular Weight": "221.21", "Molecular Formula": "C8H15NO6", "Melting Point": "209-210 \u00b0C (decomp)"}}