{"cas_no": "1003-61-8", "cn_name": "2-\u6c28\u57fa-5-\u919b\u57fa\u567b\u5511", "en_name": ["2-Amino-5-thiazolecarboxaldehyde", "5-Thiazolecarboxaldehyde, 2-amino-", "2-Amino-5-thiazolecarboxaldehyde", "2-Amino-5-formylthiazole", "2-Amino-1,3-thiazole-5-carboxaldehyde", "2-Amino-1,3-thiazole-5-carbaldehyde", "2-Aminothiazole-5-carbaldehyde", "2-Amino-thiazole-5-carbaldehyde"], "SMILES": "C(=O)C=1SC(N)=NC1", "physical_data": {"Molecular Weight": "128.15", "Molecular Formula": "C4H4N2OS", "Melting Point": "172-175 \u00b0C"}}