{"cas_no": "100366-75-4", "cn_name": "5-\u4e09\u6c1f\u7532\u57fa-2-\u7898\u5421\u5576", "en_name": ["2-Iodo-5-(trifluoromethyl)pyridine", "Pyridine, 2-iodo-5-(trifluoromethyl)-", "2-Iodo-5-(trifluoromethyl)pyridine", "2-Iodo-5-trifluoromethylpyridine"], "SMILES": "C(F)(F)(F)C=1C=CC(I)=NC1", "physical_data": {"Molecular Weight": "272.99", "Molecular Formula": "C6H3F3IN", "Melting Point": "82-83 \u00b0C"}}