{"cas_no": "1003-78-7", "cn_name": "2,4-\u4e8c\u7532\u57fa\u73af\u4e01\u781c", "en_name": ["2,4-Dimethylsulfolane", "Thiophene, tetrahydro-2,4-dimethyl-, 1,1-dioxide", "2,4-Dimethylsulfolane", "2,4-Dimethyltetramethylene sulfone", "NSC 60703", "2,4-Dimethyl-tetrahydro-thiophene 1,1-dioxide", "2,4-Dimethyl-1\u03bb6-thiolane-1,1-dione", "2,4-Dimethylthiolane 1,1-dioxide"], "SMILES": "O=S1(=O)C(C)CC(C)C1", "physical_data": {"Molecular Weight": "148.22", "Molecular Formula": "C6H12O2S", "Boiling Point": "281 \u00b0C", "Melting Point": "-3 \u00b0C", "Density": "1.1362 g/cm\u00b3 @ Temp: 20 \u00b0C"}}