{"cas_no": "100361-18-0", "cn_name": "\u73af\u4e19\u57fa\u8418\u5576\u7fa7\u9178", "en_name": ["7-Chloro-1-cyclopropyl-6-fluoro-1,4-dihydro-4-oxo-1,8-naphthyridine-3-carboxylic acid", "1,8-Naphthyridine-3-carboxylic acid, 7-chloro-1-cyclopropyl-6-fluoro-1,4-dihydro-4-oxo-", "7-Chloro-1-cyclopropyl-6-fluoro-1,4-dihydro-4-oxo-1,8-naphthyridine-3-carboxylic acid", "3-Carboxy-7-chloro-1-cyclopropyl-6-fluoro-4-oxo-1,4-dihydro[1,8]naphthyridine", "7-Chloro-1-cyclopropyl-6-fluoro-4-oxo-1,4-dihydro-[1,8]naphthyridine-3-carboxylic acid", "1-Cyclopropyl-6-fluoro-7-chloro-4-oxo-1,4-dihydro-1,8-naphthyridine-3-carboxylicacid"], "SMILES": "C(O)(=O)C1=CN(C=2C(C1=O)=CC(F)=C(Cl)N2)C3CC3", "physical_data": {"Molecular Weight": "282.65", "Molecular Formula": "C12H8ClFN2O3", "Melting Point": "209-212 \u00b0C"}}