{"cas_no": "100379-00-8", "cn_name": "2,6-\u4e8c\u7532\u57fa\u82ef\u787c\u9178", "en_name": ["2,6-Dimethylphenylboronic acid", "Boronic acid, B-(2,6-dimethylphenyl)-", "2,6-Xyleneboronic acid", "Boronic acid, (2,6-dimethylphenyl)-", "B-(2,6-Dimethylphenyl)boronic acid", "2,6-Dimethylphenylboronic acid", "2,6-Xylylboronic acid", "2,6-Dimethylbenzeneboronic acid", "2,6-Dimethylphenylboric acid", "2,6-Dimethylboronic acid"], "SMILES": "B(O)(O)C1=C(C)C=CC=C1C", "physical_data": {"Molecular Weight": "149.98", "Molecular Formula": "C8H11BO2", "Melting Point": "125-130 \u00b0C"}}