{"cas_no": "10034-85-2", "cn_name": "\u7898\u5316\u6c22", "en_name": ["Hydrogen iodide", "Hydriodic acid", "Anhydrous hydriodic acid", "Hydrogen iodide", "Hydrogen iodide (HI)", "Hydrogen monoiodide", "Hydroiodic acid"], "SMILES": "I", "physical_data": {"Molecular Weight": "", "Molecular Formula": "HI", "Boiling Point": "-35.5 \u00b0C", "Melting Point": "-51 \u00b0C", "Density": "1.7 g/cm\u00b3"}}