{"cas_no": "10031-82-0", "cn_name": "4-\u4e59\u6c27\u57fa\u82ef\u7532\u919b", "en_name": ["4-Ethoxybenzaldehyde", "Benzaldehyde, 4-ethoxy-", "Benzaldehyde, p-ethoxy-", "4-Ethoxybenzaldehyde", "p-Ethoxybenzaldehyde", "Ethoxybenzaldehyde", "NSC 406709"], "SMILES": "O(CC)C1=CC=C(C=O)C=C1", "physical_data": {"Molecular Weight": "150.17", "Molecular Formula": "C9H10O2", "Boiling Point": "249 \u00b0C", "Melting Point": "13.5 \u00b0C"}}