{"cas_no": "1003-04-9", "cn_name": "\u56db\u6c22\u567b\u5429-3-\u916e", "en_name": ["Tetrahydrothiophen-3-one", "3(2H)-Thiophenone, dihydro-", "Dihydro-3(2H)-thiophenone", "3-Thiophanone", "3-Thiacyclopentanone", "Tetrahydrothiophen-3-one", "4,5-Dihydrothiophen-3(2H)-one", "3-Oxo-2,3,4,5-tetrahydrothiophene", "3-Oxotetrahydrothiophene", "Thiolan-3-one", "NSC 241151", "Dihydrothiophen-3-one", "Tetrahydrothien-3-one", "Dihydrothien-3(2H)-one"], "SMILES": "O=C1CCSC1", "physical_data": {"Molecular Weight": "102.15", "Molecular Formula": "C4H6OS", "Boiling Point": "58.2-58.4 \u00b0C @ Press: 7 Torr"}}