{"cas_no": "10031-87-5", "cn_name": "2-\u4e59\u57fa\u4e59\u9178\u4e01\u916f", "en_name": ["2-Ethylbutyl acetate", "Acetic acid, 2-ethylbutyl ester", "1-Butanol, 2-ethyl-, acetate", "2-Ethylbutyl acetate"], "SMILES": "C(COC(C)=O)(CC)CC", "physical_data": {"Molecular Weight": "144.21", "Molecular Formula": "C8H16O2", "Boiling Point": "162.5 \u00b0C", "Melting Point": "&lt;-100 \u00b0C", "Density": "0.884 g/cm\u00b3 @ Temp: 17 \u00b0C"}}