{"cas_no": "10030-85-0", "cn_name": "L-\u9f20\u674e\u7cd6\u4e00\u6c34\u7269", "en_name": ["L-Rhamnose monohydrate", "L-Mannose, 6-deoxy-, hydrate (1:1)", "Rhamnose, monohydrate, L-", "L-Mannose, 6-deoxy-, monohydrate", "L-Rhamnose monohydrate", "Rhamnose monohydrate"], "SMILES": "C(C(C(C)O)O)(C(C=O)O)O.O", "physical_data": {"Molecular Weight": "", "Molecular Formula": "C6H12O5.H2O", "Melting Point": "95 \u00b0C"}}