{"cas_no": "1003-99-2", "cn_name": "2-\u6eb4-5-\u6c1f\u82ef\u80fa", "en_name": ["2-Bromo-5-fluorobenzenamine", "Benzenamine, 2-bromo-5-fluoro-", "Aniline, 2-bromo-5-fluoro-", "2-Bromo-5-fluorobenzenamine", "2-Bromo-5-fluoroaniline", "2-Bromo-5-fluorobenzeneamine"], "SMILES": "NC1=C(Br)C=CC(F)=C1", "physical_data": {"Molecular Weight": "190.01", "Molecular Formula": "C6H5BrFN", "Boiling Point": "109-110 \u00b0C @ Press: 15 Torr"}}