{"cas_no": "1003-14-1", "cn_name": "\u4e19\u57fa\u73af\u6c27\u4e59\u70f7", "en_name": ["2-Propyloxirane", "Oxirane, 2-propyl-", "Pentane, 1,2-epoxy-", "Oxirane, propyl-", "2-Propyloxirane", "1,2-Epoxypentane", "Propylethylene oxide", "Propyloxirane", "Pentene 1,2-oxide", "1-Pentene oxide", "n-Propyloxirane", "NSC 46349"], "SMILES": "C(CC)C1CO1", "physical_data": {"Molecular Weight": "86.13", "Molecular Formula": "C5H10O", "Boiling Point": "89-90 \u00b0C @ Press: 750 Torr"}}