{"cas_no": "1003-35-6", "cn_name": "5-\u6c28\u57fa-2,4-\u4e8c\u6c22-[1,2,4]\u4e09\u6c2e\u5511-3-\u916e", "en_name": ["5-Amino-1,2-dihydro-3H-1,2,4-triazol-3-one", "3H-1,2,4-Triazol-3-one, 5-amino-1,2-dihydro-", "\u03942-1,2,4-Triazolin-5-one, 3-amino-", "s-Triazol-3-ol, 5-amino-", "5-Amino-1,2-dihydro-3H-1,2,4-triazol-3-one", "3-Amino-5-hydroxy-1,2,4-triazole", "NSC 138436", "5-Amino-2,4-dihydro-3H-1,2,4-triazol-3-one", "3-Amino-4,5-dihydro-1H-1,2,4-triazol-5-one", "3-Amino-1,2,4-triazol-5-one"], "SMILES": "NC=1NC(=O)NN1", "physical_data": {"Molecular Weight": "100.08", "Molecular Formula": "C2H4N4O", "Melting Point": "286-290 \u00b0C (decomp)"}}