{"cas_no": "1003-09-4", "cn_name": "2-\u6eb4\u567b\u5429", "en_name": ["2-Bromothiophene", "Thiophene, 2-bromo-", "2-Bromothiophene", "2-Thienyl bromide", "NSC 4456"], "SMILES": "BrC1=CC=CS1", "physical_data": {"Molecular Weight": "163.04", "Molecular Formula": "C4H3BrS", "Boiling Point": "150 \u00b0C", "Melting Point": "&lt;25 \u00b0C", "Density": "1.6284 g/cm\u00b3 @ Temp: 20 \u00b0C"}}