{"cas_no": "10030-73-6", "cn_name": "(9E)-9-\u5341\u516d\u70ef\u9178", "en_name": ["Palmitelaidic acid", "9-Hexadecenoic acid, (9E)-", "9-Hexadecenoic acid, (E)-", "(9E)-9-Hexadecenoic acid", "Palmitelaidic acid", "(E)-9-Hexadecenoic acid", "trans-Palmitoleic acid", "trans-9-Hexadecenoic acid", "9-trans-Hexadecenoic acid", "(E)-Hexadec-9-enoic acid"], "SMILES": "C(CCC=CCCCCCC)CCCCC(O)=O", "physical_data": {"Molecular Weight": "254.41", "Molecular Formula": "C16H30O2", "Melting Point": "31-32 \u00b0C"}}