{"cas_no": "10036-47-2", "cn_name": "\u56db\u6c1f(\u4ee3)\u80bc", "en_name": ["Nitrogen fluoride (N2F4)", "Nitrogen fluoride (N2F4)", "Tetrafluorohydrazine", "Hydrazine, tetrafluoro-", "Perfluorohydrazine", "Dinitrogen tetrafluoride"], "SMILES": "N(N(F)F)(F)F", "physical_data": {"Molecular Weight": "104.01", "Molecular Formula": "F4N2", "Boiling Point": "-73 \u00b0C"}}