{"cas_no": "1003-31-2", "cn_name": "2-\u6c30\u57fa\u567b\u5429", "en_name": ["2-Thiophenecarbonitrile", "2-Thiophenecarbonitrile", "2-Cyanothiophene", "2-Thienonitrile", "2-Thienylcarbonitrile", "Thiopheno-2-carbonitrile", "2-Thiophenenitrile"], "SMILES": "C(#N)C1=CC=CS1", "physical_data": {"Molecular Weight": "109.15", "Molecular Formula": "C5H3NS", "Boiling Point": "192 \u00b0C", "Melting Point": "125-134 \u00b0C (decomp)", "Density": "1.1800 g/cm\u00b3 @ Temp: 16 \u00b0C"}}