{"cas_no": "1003-73-2", "cn_name": "3-\u7532\u57fa\u5421\u5576\u6c27\u5316\u7269", "en_name": ["3-Methylpyridine N-oxide", "Pyridine, 3-methyl-, 1-oxide", "3-Picoline, 1-oxide", "3-Methylpyridine 1-oxide", "3-Picoline N-oxide", "\u03b2-Picoline N-oxide", "\u03b2-Picoline 1-oxide", "\u03b2-Picoline oxide", "3-Methylpyridine N-oxide", "NSC 18254", "3-Methylpyridin-1-ium-1-olate"], "SMILES": "CC1=CN(=O)=CC=C1", "physical_data": {"Molecular Weight": "109.13", "Molecular Formula": "C6H7NO", "Boiling Point": "148 \u00b0C", "Melting Point": "39 \u00b0C"}}