{"cas_no": "1003-07-2", "cn_name": "\u5f02\u567b\u5511-3-\u916e", "en_name": ["Isothiazolin-3-one", "3(2H)-Isothiazolone", "4-Isothiazolin-3-one", "3-Isothiazolone", "3-Isothiazolol", "3-Hydroxyisothiazole", "Isothiazolinone", "Ebotec aqua", "Duo Mei Jing", "Isothiazolin-3-one", "3-Oxo-2,3-dihydroisothiazole", "NSC 93489", "A 01", "GT 2060", "PT 490", "1,2-Isothiazole-3-one", "GY 506", "1,2-Thiazol-3-one", "Xarcin AB"], "SMILES": "O=C1C=CSN1", "physical_data": {"Molecular Weight": "101.13", "Molecular Formula": "C3H3NOS", "Melting Point": "74-75 \u00b0C"}}