{"cas_no": "100324-81-0", "cn_name": "1-(5-hydroxyhexyl)-3,7-dimethyl-purine-2,6-dione", "en_name": ["Lisofylline", "1H-Purine-2,6-dione, 3,7-dihydro-1-[(5R)-5-hydroxyhexyl]-3,7-dimethyl-", "1H-Purine-2,6-dione, 3,7-dihydro-1-(5-hydroxyhexyl)-3,7-dimethyl-, (R)-", "3,7-Dihydro-1-[(5R)-5-hydroxyhexyl]-3,7-dimethyl-1H-purine-2,6-dione", "Lisofylline", "CT 1501R", "ProTec", "Lisophylline", "(R)-1-(5-Hydroxyhexyl)-3,7-dimethyl-1H-purine-2,6(3H,7H)-dione", "(R)-Lisofylline", "(R)-Lisophylline"], "SMILES": "O=C1C2=C(N(C)C(=O)N1CCCCC(C)O)N=CN2C", "physical_data": {"Molecular Weight": "280.32", "Molecular Formula": "C13H20N4O3", "Melting Point": "123-125 \u00b0C"}}