{"cas_no": "1003-10-7", "cn_name": "\u0393--\u786b\u4ee3\u4e01\u5185\u916f", "en_name": ["Thiobutyrolactone", "2(3H)-Thiophenone, dihydro-", "Butyric acid, 4-mercapto-, \u03b3-(thiolactone)", "Dihydro-2(3H)-thiophenone", "\u03b3-Thiobutyrolactone", "4-Thiobutyrolactone", "Butanoic acid, 4-mercapto-, \u03b3-(thiolactone)", "Thiacyclopentanone-2", "Thiolan-2-one", "Tetrahydro-2-thiophenone", "Thiacyclopentan-2-one", "4-Butyrothiolactone", "2-Oxotetrahydrothiophene", "Thiobutyrolactone", "Tetrahydrothiophene-2-one", "NSC 54087", "2-Oxothiolane"], "SMILES": "O=C1CCCS1", "physical_data": {"Molecular Weight": "102.15", "Molecular Formula": "C4H6OS", "Boiling Point": "55-56 \u00b0C @ Press: 3 Torr", "Melting Point": "138 \u00b0C", "Density": "1.1778 g/cm\u00b3 @ Temp: 20 \u00b0C"}}