{"cas_no": "10035-10-6", "cn_name": "\u6c22\u6eb4\u9178", "en_name": ["Hydrogen bromide", "Hydrobromic acid", "Anhydrous hydrobromic acid", "Hydrogen bromide", "Hydrogen bromide (HBr)", "Hydrogen bromide (H2Br2)", "Hydrogen monobromide", "NSC 606640", "Bromohydric acid"], "SMILES": "Br", "physical_data": {"Molecular Weight": "", "Molecular Formula": "BrH", "Boiling Point": "-67 \u00b0C", "Melting Point": "-87 \u00b0C", "Density": "1.8 g/cm\u00b3"}}