{"cas_no": "1003-32-3", "cn_name": "5-\u567b\u5511\u7532\u919b", "en_name": ["5-Thiazolecarboxaldehyde", "5-Thiazolecarboxaldehyde", "5-Formylthiazole", "1,3-Thiazole-5-carboxaldehyde", "1,3-Thiazole-5-carbaldehyde"], "SMILES": "C(=O)C1=CN=CS1", "physical_data": {"Molecular Weight": "113.14", "Molecular Formula": "C4H3NOS", "Boiling Point": "90-94 \u00b0C @ Press: 12 Torr", "Melting Point": "229 \u00b0C (decomp)"}}