{"cas_no": "10030-78-1", "cn_name": "6-\u7f9f\u57fa-2-\u6c28\u7532\u57fa\u560c\u5464", "en_name": ["N2-Methylguanine", "6H-Purin-6-one, 1,9-dihydro-2-(methylamino)-", "Guanine, N-methyl-", "6H-Purin-6-one, 1,7-dihydro-2-(methylamino)-", "1,9-Dihydro-2-(methylamino)-6H-purin-6-one", "6-Hydroxy-2-(methylamino)purine", "2-Methylamino-6-oxopurine", "N2-Methylguanine", "2-(Methylamino)-6-hydroxypurine", "NSC 90400", "2-(Methylamino)-1H-purin-6(7H)-one", "2-(Methylamino)-6,9-dihydro-1H-purin-6-one", "2-(Methylamino)-6,7-dihydro-3H-purin-6-one", "2-(Methylamino)-3,7-dihydropurin-6-one"], "SMILES": "O=C1C2=C(NC(NC)=N1)N=CN2", "physical_data": {"Molecular Weight": "165.15", "Molecular Formula": "C6H7N5O", "Melting Point": "&gt;300 \u00b0C (decomp)"}}