{"cas_no": "1003-29-8", "cn_name": "2-\u5421\u54af\u7532\u919b", "en_name": ["Pyrrole-2-carboxaldehyde", "1H-Pyrrole-2-carboxaldehyde", "Pyrrole-2-carboxaldehyde", "2-Formylpyrrole", "Pyrrole-2-aldehyde", "2-Pyrrolylcarboxaldehyde", "2-Pyrrolecarbaldehyde", "2-Pyrrolaldehyde", "NSC 112885", "NSC 66394", "Pyrrole-2-formaldehyde", "2-Pyrrolecarboxaldehyde", "1H-Pyrrole-2-carbaldehyde", "Pyrrol-2-carbaldehyde", "Pyrrole-2-carboxyaldehyde", "2-Formyl-1H-pyrrole"], "SMILES": "C(=O)C1=CC=CN1", "physical_data": {"Molecular Weight": "95.10", "Molecular Formula": "C5H5NO", "Boiling Point": "218 \u00b0C", "Melting Point": "46.5 \u00b0C"}}