{"cas_no": "1003-38-9", "cn_name": "2.5-\u4e8c\u7532\u57fa\u56db\u6c22\u544b\u5583", "en_name": ["2,5-Dimethyltetrahydrofuran", "Furan, tetrahydro-2,5-dimethyl-", "Tetrahydro-2,5-dimethylfuran", "2,5-Dimethyltetrahydrofuran", "2,5-Dimethyloxolane", "NSC 12594"], "SMILES": "CC1OC(C)CC1", "physical_data": {"Molecular Weight": "100.16", "Molecular Formula": "C6H12O", "Boiling Point": "90-92 \u00b0C", "Density": "0.8270 g/cm\u00b3 @ Temp: 20 \u00b0C"}}