{"cas_no": "10034-81-8", "cn_name": "\u9ad8\u6c2f\u9178\u9541", "en_name": ["Magnesium perchlorate", "Perchloric acid, magnesium salt (2:1)", "Magnesium perchlorate", "Perchloric acid, magnesium salt", "Anhydrone", "Anhydrous magnesium perchlorate", "Dehydrite", "Magnesium perchlorate (Mg(ClO4)2)", "Magnesium diperchlorate", "KhKM 300", "Magnesium(II) perchlorate", "Anhydron", "XKM 300"], "SMILES": "Cl(=O)(=O)(=O)O.[Mg]", "physical_data": {"Molecular Weight": "", "Molecular Formula": "ClHO4.<sup>1</sup>/2Mg", "Melting Point": "250 \u00b0C (decomp)", "Density": "2.2 g/cm\u00b3"}}