{"cas_no": "10034-93-2", "cn_name": "\u786b\u9178\u80bc", "en_name": ["Hydrazine sulfate", "Hydrazine, sulfate (1:1)", "Hydrazine sulfate", "Hydrazine dihydrogen sulfate (salt)", "Hydrazine monosulfate", "Hydrazinium sulfate", "Hydrazonium sulfate", "Hydrazine hydrogen sulfate", "Hydrazine hydrosulfate", "Hydrazinium(2+) sulfate", "Segidrin", "Sehydrin", "NSC 150014", "NSC 215190"], "SMILES": "NN.S(=O)(=O)(O)O", "physical_data": {"Molecular Weight": "", "Molecular Formula": "H4N2.H2O4S", "Melting Point": "254 \u00b0C", "Density": "1.378 g/cm\u00b3"}}