{"cas_no": "1003-03-8", "cn_name": "\u73af\u620a\u80fa", "en_name": ["Cyclopentylamine", "Cyclopentanamine", "Cyclopentylamine", "Aminocyclopentane", "NSC 32389", "1-Aminocyclopentane"], "SMILES": "NC1CCCC1", "physical_data": {"Molecular Weight": "85.15", "Molecular Formula": "C5H11N", "Boiling Point": "108 \u00b0C", "Melting Point": "-82.7 \u00b0C", "Density": "0.8689 g/cm\u00b3 @ Temp: 20 \u00b0C"}}