{"cas_no": "1003-67-4", "cn_name": "4-\u7532\u57fa\u5421\u5576\u6c27\u5316\u7269", "en_name": ["Pyridine, 4-methyl-, 1-oxide", "Pyridine, 4-methyl-, 1-oxide", "4-Picoline, 1-oxide", "4-Methylpyridine N-oxide", "\u03b3-Picoline N-oxide", "4-Picoline N-oxide", "4-Methylpyridine 1-oxide", "4-Picoline oxide", "4-Methylpyridine oxide", "\u03b3-Picoline 1-oxide", "\u03b3-Picoline oxide", "NSC 5086"], "SMILES": "CC=1C=CN(=O)=CC1", "physical_data": {"Molecular Weight": "109.13", "Molecular Formula": "C6H7NO", "Boiling Point": "150 \u00b0C", "Melting Point": "181 \u00b0C"}}