{"cas_no": "1003-64-1", "cn_name": "\u4e9a\u4e59\u57fa\u73af\u5df1\u70f7", "en_name": ["Ethylidenecyclohexane", "Cyclohexane, ethylidene-", "Ethylidenecyclohexane", "NSC 74153"], "SMILES": "C(C)=C1CCCCC1", "physical_data": {"Molecular Weight": "110.20", "Molecular Formula": "C8H14", "Boiling Point": "136 \u00b0C", "Melting Point": "55 \u00b0C", "Density": "0.9432 g/cm\u00b3 @ Temp: 40 \u00b0C"}}