{"cas_no": "10031-27-3", "cn_name": "\u6eb4\u5316\u78b2", "en_name": ["Tellurium bromide (TeBr4), (T-4)-", "Tellurium bromide (TeBr4), (T-4)-", "Tellurium bromide (TeBr4)", "Telluric bromide", "Tellurium tetrabromide", "Tetrabromotellurium", "Tellurium(IV) tetrabromide"], "SMILES": "[Te](Br)(Br)(Br)Br", "physical_data": {"Molecular Weight": "", "Molecular Formula": "Br4Te", "Melting Point": "388 \u00b0C"}}