{"cas_no": "100367-39-3", "cn_name": "4-\u6eb4-2-\u7532\u6c27\u57fa\u5421\u5576", "en_name": ["4-Bromo-2-methoxypyridine", "Pyridine, 4-bromo-2-methoxy-", "4-Bromo-2-methoxypyridine", "2-Methoxy-4-bromopyridine"], "SMILES": "O(C)C1=CC(Br)=CC=N1", "physical_data": {"Molecular Weight": "188.02", "Molecular Formula": "C6H6BrNO", "Boiling Point": "87 \u00b0C @ Press: 15 Torr"}}