{"cas_no": "10038-98-9", "cn_name": "\u6c2f\u5316\u9517", "en_name": ["Germanium chloride", "Germane, tetrachloro-", "Germanium chloride (GeCl4)", "Tetrachlorogermane", "Germanium(IV) chloride", "Germanium tetrachloride", "Germanium chloride", "NSC 132053"], "SMILES": "[Ge](Cl)(Cl)(Cl)Cl", "physical_data": {"Molecular Weight": "214.45", "Molecular Formula": "Cl4Ge", "Boiling Point": "83.1 \u00b0C", "Melting Point": "-52--49 \u00b0C", "Density": "1.879 g/cm\u00b3"}}