{"cas_no": "1003-56-1", "cn_name": "2-\u7f9f\u57fa-3-\u7532\u57fa\u5421\u5576", "en_name": ["2-Hydroxy-3-methylpyridine", "2(1H)-Pyridinone, 3-methyl-", "2(1H)-Pyridone, 3-methyl-", "3-Methyl-2(1H)-pyridinone", "3-Methyl-2(1H)-pyridone", "2-Hydroxy-3-methylpyridine", "3-Methyl-2-pyridinol", "NSC 4343", "3-Methyl-1H-pyridin-2-one", "3-Methyl-2-pyridinone", "3-Methyl-1,2-dihydropyridin-2-one"], "SMILES": "CC=1C(=O)NC=CC1", "physical_data": {"Molecular Weight": "109.13", "Molecular Formula": "C6H7NO", "Boiling Point": "289 \u00b0C", "Melting Point": "141.5 \u00b0C"}}