{"cas_no": "1003-68-5", "cn_name": "2-\u7f9f\u57fa-5-\u7532\u57fa\u5421\u5576", "en_name": ["2-Hydroxy-5-methylpyridine", "2(1H)-Pyridinone, 5-methyl-", "2(1H)-Pyridone, 5-methyl-", "5-Methyl-2(1H)-pyridinone", "5-Methyl-2-pyridone", "5-Methyl-2(1H)-pyridone", "5-Methyl-2-pyridinol", "2-Hydroxy-5-methylpyridine", "3-Methyl-6-hydroxypyridine", "5-Methyl-2-oxopyridine", "5-Methyl-2-hydroxypyridine"], "SMILES": "CC=1C=CC(=O)NC1", "physical_data": {"Molecular Weight": "109.13", "Molecular Formula": "C6H7NO", "Melting Point": "182-183 \u00b0C"}}