{"cas_no": "10032-02-7", "cn_name": "\u5df1\u9178\u9999\u53f6\u916f", "en_name": ["Geranyl hexanoate", "Hexanoic acid, (2E)-3,7-dimethyl-2,6-octadien-1-yl ester", "Hexanoic acid, 3,7-dimethyl-2,6-octadienyl ester, (E)-", "Hexanoic acid, (2E)-3,7-dimethyl-2,6-octadienyl ester", "2,6-Octadien-1-ol, 3,7-dimethyl-, hexanoate, (E)-", "Geranyl caproate", "Geranyl hexanoate", "Geraniol caproate", "Geraniol hexanoate"], "SMILES": "C(C=C(CCC=C(C)C)C)OC(CCCCC)=O", "physical_data": {"Molecular Weight": "252.39", "Molecular Formula": "C16H28O2", "Boiling Point": "103-106 \u00b0C @ Press: 0.8 Torr"}}