{"cas_no": "10047-28-6", "cn_name": "\u5def\u57fa\u4e59\u9178\u4e01\u916f", "en_name": ["Butyl thioglycolate", "Acetic acid, 2-mercapto-, butyl ester", "Acetic acid, mercapto-, butyl ester", "Butyl thioglycolate", "Butyl 2-mercaptoacetate", "Thioglycolic acid butyl ester", "Butyl mercaptoacetate", "Thioglycolic acid n-butyl ester", "n-Butyl thioglycolate", "NSC 65453"], "SMILES": "C(OCCCC)(CS)=O", "physical_data": {"Molecular Weight": "148.22", "Molecular Formula": "C6H12O2S", "Boiling Point": "63-66 \u00b0C @ Press: 2 Torr"}}