{"cas_no": "100453-11-0", "cn_name": "2-\u6c30\u57fa-2-\u4e59\u57fa-3-\u7532\u57fa-\u5df1\u9178\u4e59\u916f", "en_name": ["Ethyl 2-cyano-2-ethyl-3-methylhexanoate", "Hexanoic acid, 2-cyano-2-ethyl-3-methyl-, ethyl ester", "Ethyl 2-cyano-2-ethyl-3-methylhexanoate"], "SMILES": "C(C(CCC)C)(C(OCC)=O)(CC)C#N", "physical_data": {"Molecular Weight": "211.30", "Molecular Formula": "C12H21NO2", "Boiling Point": "97-98 \u00b0C @ Press: 2.5 Torr"}}