{"cas_no": "10043-35-3", "cn_name": "\u787c\u9178", "en_name": ["Boric acid (H3BO3)", "Boric acid (H3BO3)", "Boracic acid", "Orthoboric acid", "Boron trihydroxide", "Borofax", "Orthoboric acid (B(OH)3)", "Orthoboric acid (H3BO3)", "Trihydroxyborane", "Boric acid (B(OH)3)", "Dr.\u2032s 1 Flea Terminator DFPBO", "Dr.\u2032s 1 Flea Terminator DF", "Dr.\u2032s 1 Flea Terminator DT", "Flea Prufe", "Super Flea Eliminator", "Dia Flea-Mate", "Dr.\u2032s 1 Flea Terminator DTPBO", "Basilit B", "NSC 81726", "Roach Away", "CB BORiD", "Roach Prufe", "Niban-FG", "Optibor", "Boric acid", "Niban Granular Bait", "Bushwhacker", "Entimaden", "Niban", "Nitrate balancer", "Optibor TP", "Boron hydroxide (B(OH)3)", "PS 1002", "BorActin"], "SMILES": "B(O)(O)O", "physical_data": {"Molecular Weight": "61.83", "Molecular Formula": "BH3O3", "Melting Point": "171 \u00b0C (decomp)", "Density": "1.435 g/cm\u00b3 @ Temp: 15 \u00b0C"}}