{"cas_no": "10041-06-2", "cn_name": "4-\u54aa\u5511\u4e59\u9170\u82ef\u916e", "en_name": ["1-[4-(1H-Imidazol-1-yl)phenyl]ethanone", "Ethanone, 1-[4-(1H-imidazol-1-yl)phenyl]-", "Acetophenone, 4\u2032-imidazol-1-yl-", "1-[4-(1H-Imidazol-1-yl)phenyl]ethanone", "Ro 22-3581", "4\u2032-Imidazolylacetophenone", "N-(4-Acetylphenyl)imidazole", "p-Imidazol-1-ylacetophenone", "1-[4-(1-Imidazolyl)phenyl]ethan-1-one", "4-(1-Imidazolyl)acetophenone", "4-(1H-Imidazol-1-yl)acetophenone", "1-(4-Imidazol-1-yl-phenyl)ethanone", "1-(4-Acetylphenyl)-1H-imidazole", "1-(4-(1H-Imidazol-1-yl)phenyl)ethan-1-one"], "SMILES": "C(C)(=O)C1=CC=C(C=C1)N2C=CN=C2", "physical_data": {"Molecular Weight": "186.21", "Molecular Formula": "C11H10N2O", "Melting Point": "112-114 \u00b0C"}}