{"cas_no": "1004-24-6", "cn_name": "(4-\u4e9a\u7532\u57fa\u73af\u5df2\u57fa)\u7532\u9187", "en_name": ["4-Methylenecyclohexanemethanol", "Cyclohexanemethanol, 4-methylene-", "4-Methylenecyclohexanemethanol", "4-Methylenecyclohexylmethanol"], "SMILES": "C(O)C1CCC(=C)CC1", "physical_data": {"Molecular Weight": "126.20", "Molecular Formula": "C8H14O", "Boiling Point": "128-130 \u00b0C @ Press: 57 Torr"}}