{"cas_no": "10049-12-4", "cn_name": "\u4e09\u6c1f\u9492", "en_name": ["Vanadium fluoride (VF3)", "Vanadium fluoride (VF3)", "Vanadium trifluoride"], "SMILES": "[V](F)(F)F", "physical_data": {"Molecular Weight": "", "Molecular Formula": "F3V", "Melting Point": "&gt;800 \u00b0C", "Density": "3.3628 g/cm\u00b3 @ Temp: 19 \u00b0C"}}