{"cas_no": "10049-04-4", "cn_name": "\u4e8c\u6c27\u5316\u6c2f", "en_name": ["Chlorine dioxide", "Chlorine oxide (ClO2)", "Chlorine dioxide", "Chlorine(IV) oxide", "Chlorine peroxide", "Chloroperoxyl", "Doxcide 50", "Chloryl radical", "Anthium Dioxcide", "Alcide", "EZ Flow", "Purogene", "Alcide allay", "Biologen", "Biotalk", "Oslon", "Anthium 200", "Carnelron", "Dura Klor", "Diklor", "Chlorine dioxide (OClO)", "Chlorine dioxide radical", "RenNew D", "Aqua Care", "RetarDEX", "RetarDEX (oxidizing agent)", "Oxine", "Biosukegawa 1000", "Purite", "Dioxiclear", "Oxine (bactericide)", "OcuPure", "Clidox", "MicroClear", "Vibrex", "Luxianfeng", "Selectrocide", "FermaSure", "Clidox-S", "Zns-Clordioxy", "Ar-Dez Sniper"], "SMILES": "Cl([O])=O", "physical_data": {"Molecular Weight": "", "Molecular Formula": "ClO2", "Boiling Point": "11 \u00b0C", "Melting Point": "-59 \u00b0C", "Density": "1.6 g/cm\u00b3 @ Temp: 0 \u00b0C"}}