{"cas_no": "10048-95-0", "cn_name": "\u7837\u9178\u6c22\u4e8c\u94a0", "en_name": ["Sodium arsenate heptahydrate", "Arsenic acid (H3AsO4), sodium salt (1:2), heptahydrate", "Arsenic acid (H3AsO4), disodium salt, heptahydrate", "Sodium acid arsenate, heptahydrate", "Disodium arsenate heptahydrate", "Dibasic sodium arsenate (Na2HAsO4.7H2O)", "Sodium arsenate hydrate (Na2HAsO4.7H2O)", "Sodium arsenate (Na2HAsO4) heptahydrate", "Disodium hydrogen arsenate (Na2HAsO4) heptahydrate", "Hydrogen disodium arsenate (HNa2AsO4) heptahydrate", "Sodium arsenate heptahydrate", "Disodium acid arsenate heptahydrate (Na2HAsO4.7H2O)", "Disodium monohydrogen arsenate heptahydrate", "Sodium hydrogen arsenate (Na2HAsO4) heptahydrate"], "SMILES": "[As](=O)(O)(O)O.[Na].O", "physical_data": {"Molecular Weight": "", "Molecular Formula": "AsH3O4.7H2O.2Na", "Melting Point": "130 \u00b0C", "Density": "1.9 g/cm\u00b3"}}