{"cas_no": "10042-59-8", "cn_name": "2-\u4e19\u57fa-1-\u5e9a\u9187", "en_name": ["2-Propylheptanol", "1-Heptanol, 2-propyl-", "2-Propyl-1-heptanol", "2-Propylheptanol", "2-Propylheptyl alcohol"], "SMILES": "C(CCCCC)(CCC)CO", "physical_data": {"Molecular Weight": "158.28", "Molecular Formula": "C10H22O", "Boiling Point": "112-115 \u00b0C @ Press: 14 Torr"}}