{"cas_no": "10043-52-4", "cn_name": "\u6c2f\u5316\u9499", "en_name": ["Calcium chloride", "Calcium chloride (CaCl2)", "Calcium chloride", "Calcium dichloride", "Calcosan", "Liquidow", "Stopit", "U-Ramin MC", "Calcium(2+) chloride", "Daraccel", "Dowflake", "Peladow", "Calol", "Calzina oral", "Bovikalc", "Chrysoxel C 4", "Calmate R", "CalPlus", "Intergravin-orales", "Kalgan", "Briners Choice", "PRGF Endoret", "MeSH ID: D002122"], "SMILES": "[Ca](Cl)Cl", "physical_data": {"Molecular Weight": "", "Molecular Formula": "CaCl2", "Boiling Point": "1935 \u00b0C", "Melting Point": "772 \u00b0C", "Density": "2.152 g/cm\u00b3 @ Temp: 15 \u00b0C"}}