{"cas_no": "10048-13-2", "cn_name": "\u67c4\u66f2\u9709\u7d20", "en_name": ["Sterigmatocystin", "7H-Furo[3\u2032,2\u2032:4,5]furo[2,3-c]xanthen-7-one, 3a,12c-dihydro-8-hydroxy-6-methoxy-, (3aR,12cS)-", "7H-Furo[3\u2032,2\u2032:4,5]furo[2,3-c]xanthen-7-one, 3a,12c-dihydro-8-hydroxy-6-methoxy-", "Sterigmatocystin", "7H-Furo[3\u2032,2\u2032:4,5]furo[2,3-c]xanthen-7-one, 3a,12c-dihydro-8-hydroxy-6-methoxy-, (3aR-cis)-", "(3aR,12cS)-3a,12c-Dihydro-8-hydroxy-6-methoxy-7H-furo[3\u2032,2\u2032:4,5]furo[2,3-c]xanthen-7-one", "Sterigmatocystine", "NSC 201423", "NSC 204985", "MeSH ID: D013241"], "SMILES": "O(C)C=1C2=C(C3=C(OC4C3C=CO4)C1)OC=5C(C2=O)=C(O)C=CC5", "physical_data": {"Molecular Weight": "324.28", "Molecular Formula": "C18H12O6", "Melting Point": "246 \u00b0C (decomp)"}}