{"cas_no": "1004-66-6", "cn_name": "2,6-\u4e8c\u7532\u57fa\u5927\u8334\u9999\u919a", "en_name": ["2,6-Dimethylanisole", "Benzene, 2-methoxy-1,3-dimethyl-", "Anisole, 2,6-dimethyl-", "2-Methoxy-1,3-dimethylbenzene", "Methyl 2,6-xylyl ether", "2,6-Dimethylanisole", "2-Methoxy-m-xylene", "1-Methoxy-2,6-dimethylbenzene", "2,6-Dimethyl-1-methoxybenzene", "NSC 62672", "3,5-Dimethyl-4-methoxybenzene"], "SMILES": "O(C)C1=C(C)C=CC=C1C", "physical_data": {"Molecular Weight": "136.19", "Molecular Formula": "C9H12O", "Boiling Point": "182.5 \u00b0C", "Density": "1.1258 g/cm\u00b3 @ Temp: 0 \u00b0C"}}