{"cas_no": "1004-36-0", "cn_name": "2,6-\u4e8c\u7532\u57fa-4-\u5421\u5583\u916e", "en_name": ["2,6-Dimethyl-\u03b3-pyrone", "4H-Pyran-4-one, 2,6-dimethyl-", "2,6-Dimethyl-4H-pyran-4-one", "2,6-Dimethyl-4-pyrone", "2,6-Dimethyl-\u03b3-pyrone", "2,6-Dimethyl-4-pyranone", "NSC 48105", "NSC 8735"], "SMILES": "O=C1C=C(C)OC(C)=C1", "physical_data": {"Molecular Weight": "124.14", "Molecular Formula": "C7H8O2", "Boiling Point": "251 \u00b0C", "Melting Point": "132 \u00b0C"}}