{"cas_no": "1004-38-2", "cn_name": "2,4,6-\u4e09\u6c28\u57fa\u5627\u5576", "en_name": ["2,4,6-Triaminopyrimidine", "2,4,6-Pyrimidinetriamine", "Pyrimidine, 2,4,6-triamino-", "2,4,6-Triaminopyrimidine", "NSC 26493"], "SMILES": "NC=1C=C(N)N=C(N)N1", "physical_data": {"Molecular Weight": "125.13", "Molecular Formula": "C4H7N5", "Melting Point": "249-251 \u00b0C"}}