{"cas_no": "10043-01-3", "cn_name": "\u786b\u9178\u94dd", "en_name": ["Aluminum sulfate", "Sulfuric acid, aluminum salt (3:2)", "Sulfatodialuminum disulfate (Al2(SO4)3)", "Aluminum sulfate (Al2(SO4)3)", "Aluminum sulfate", "Cake alum", "Alum", "Aluminum alum", "Dialuminum trisulfate", "Aluminum sulfate (2:3)", "Dialuminum sulfate", "Sulfuric acid aluminum(3+) salt (3:2)", "Sulfuric acid aluminum salt (Al2(SO4)3)", "Aluminum trisulfate", "Aluminum sulphate", "Aluminum sesquisulfate", "Aluminum(III) sulfate", "Tai-Ace S 150", "Nalco 7530", "Fertosan", "Hi Soft C 2", "Tai-Ace S 100", "Alunogenite", "Alumen", "Nalco 7530 (salt)", "S 150", "Al+Clear", "Gel Cord", "Fennosize KD 266MB", "aluminum sulfate"], "SMILES": "S(=O)(=O)(O)O.[Al]", "physical_data": {"Molecular Weight": "", "Molecular Formula": "Al.<sup>3</sup>/2H2O4S", "Melting Point": "770 \u00b0C (decomp)", "Density": "1.61 g/cm\u00b3"}}