{"cas_no": "10042-88-3", "cn_name": "\u4e09\u6c2f\u5316\u94fd", "en_name": ["Terbium chloride", "Terbium chloride (TbCl3)", "Terbium trichloride", "Terbium(III) chloride", "Terbium chloride", "NSC 621599"], "SMILES": "[Tb](Cl)(Cl)Cl", "physical_data": {"Molecular Weight": "", "Molecular Formula": "Cl3Tb", "Melting Point": "581 \u00b0C"}}