{"cas_no": "100418-33-5", "cn_name": "3-\u785d\u57fa-4-\u7f9f\u4e59\u6c28\u57fa\u7532\u82ef", "en_name": ["2-[(4-Methyl-2-nitrophenyl)amino]ethanol", "Ethanol, 2-[(4-methyl-2-nitrophenyl)amino]-", "2-[(4-Methyl-2-nitrophenyl)amino]ethanol", "4-(2-Hydroxyethylamino)-3-nitrotoluene", "4-[(2-Hydroxyethyl)amino]-3-nitro-1-methylbenzene", "2-[(4-Methyl-2-nitrophenyl)amino]ethan-1-ol", "2-(4-Methyl-2-nitroanilino)ethanol"], "SMILES": "N(CCO)C1=C(N(=O)=O)C=C(C)C=C1", "physical_data": {"Molecular Weight": "196.20", "Molecular Formula": "C9H12N2O3", "Melting Point": "82-83 \u00b0C"}}