{"cas_no": "100487-74-9", "cn_name": "6-\u6c2f-5-\u6c1f-1,3-\u4e8c\u6c22-2H-\u5432\u54da-2-\u916e", "en_name": ["6-Chloro-5-fluoro-1,3-dihydro-2H-indol-2-one", "2H-Indol-2-one, 6-chloro-5-fluoro-1,3-dihydro-", "6-Chloro-5-fluoro-1,3-dihydro-2H-indol-2-one", "6-Chloro-5-fluoro-2-oxindole", "6-Chloro-5-fluoro-1,3-dihydroindol-2-one", "6-Chloro-5-fluoroindolin-2-one"], "SMILES": "FC=1C=C2C(=CC1Cl)NC(=O)C2", "physical_data": {"Molecular Weight": "185.58", "Molecular Formula": "C8H5ClFNO", "Melting Point": "196-206 \u00b0C"}}