{"cas_no": "10040-98-9", "cn_name": "4-(\u54aa\u5511-1-\u57fa)\u82ef\u7532\u919b", "en_name": ["4-(1H-Imidazol-1-yl)benzaldehyde", "Benzaldehyde, 4-(1H-imidazol-1-yl)-", "Benzaldehyde, p-imidazol-1-yl-", "4-(1H-Imidazol-1-yl)benzaldehyde", "p-(1-Imidazolyl)benzaldehyde", "4-(Imidazol-1-yl)benzaldehyde", "1-(4-Formylphenyl)-1H-imidazole", "4-(3H-Imidazol-3-yl)benzaldehyde", "N-(4-Formylphenyl)imidazole", "1-(4-Formylphenyl)imidazole", "4-(1H-Imidazo-1-yl)benzaldehyde", "(4-Formylphenyl)-1H-imidazole"], "SMILES": "C(=O)C1=CC=C(C=C1)N2C=CN=C2", "physical_data": {"Molecular Weight": "172.18", "Molecular Formula": "C10H8N2O", "Melting Point": "139-140 \u00b0C"}}