{"cas_no": "1004-40-6", "cn_name": "6-\u6c28\u57fa-2-\u786b\u8132\u5627\u5576", "en_name": ["6-Amino-2-thiouracil", "4(1H)-Pyrimidinone, 6-amino-2,3-dihydro-2-thioxo-", "Uracil, 6-amino-2-thio-", "6-Amino-2,3-dihydro-2-thioxo-4(1H)-pyrimidinone", "4-Hydroxy-6-amino-2-mercaptopyrimidine", "2-Thio-4-amino-6-hydroxypyrimidine", "4-Amino-2-thiouracil", "AB 48", "4-Amino-6-hydroxy-2-mercaptopyrimidine", "2-Mercapto-6-aminouracil", "2-Thio-6-aminouracil", "2-Mercapto-4-amino-6-hydroxypyrimidine", "6-Amino-2-thiouracil", "6-Amino-4-oxo-2-thioxo-1,2,3,4-tetrahydropyrimidine", "6-Amino-2-mercapto-4-pyrimidinol", "6-Amino-4-hydroxy-2-mercaptopyrimidine", "4-Amino-6-hydroxy-2-thiopyrimidine", "4-Amino-6-hydroxy-2-sulfanylpyrimidine", "NSC 1587", "NSC 202018", "NSC 321193", "NSC 321194", "6-Amino-2-mercapto-4(3H)-pyrimidinone", "6-Amino-2-sulfanyl-4(3H)-pyrimidinone", "6-Aminothiouracil"], "SMILES": "NC1=CC(=O)NC(=S)N1", "physical_data": {"Molecular Weight": "143.17", "Molecular Formula": "C4H5N3OS", "Melting Point": "&gt;295 \u00b0C"}}