{"cas_no": "10045-94-0", "cn_name": "\u785d\u9178\u6c5e(2+)", "en_name": ["Mercuric nitrate", "Nitric acid, mercury(2+) salt (2:1)", "Nitric acid, mercury(2+) salt", "Mercury(II) nitrate (Hg(NO3)2)", "Mercuric nitrate", "Mercury nitrate", "Mercury(2+) nitrate", "Mercury dinitrate", "Mercury(II) nitrate", "Citrine ointment", "Mercury nitrate (Hg(NO3)2)", "Millon's reagent", "Named reagents and solutions, Millon's"], "SMILES": "N(=O)(=O)O.[Hg]", "physical_data": {"Molecular Weight": "", "Molecular Formula": "HNO3.<sup>1</sup>/2Hg", "Melting Point": "79 \u00b0C", "Density": "4.4 g/cm\u00b3"}}