{"cas_no": "10040-45-6", "cn_name": "\u5339\u514b\u786b\u9178\u94a0", "en_name": ["Sodium picosulfate", "Phenol, 4,4\u2032-(2-pyridinylmethylene)bis-, 1,1\u2032-bis(hydrogen sulfate), sodium salt (1:2)", "Phenol, 4,4\u2032-(2-pyridylmethylene)di-, bis(hydrogen sulfate) (ester) disodium salt", "Phenol, 4,4\u2032-(2-pyridinylmethylene)bis-, bis(hydrogen sulfate) (ester), disodium salt", "4,4\u2032-(2-Pyridylmethylene)diphenol bis(hydrogen sulfate) disodium salt", "Sodium picosulfate", "Picosulfol", "Disodium bis[4-[(hydroxysulfonyl)oxy]phenyl](2-pyridyl)methane", "Picosulfate sodium", "Evacuol", "Guttalax", "Laxoberal", "Rapilax", "DA 1773", "Laxoberon", "Picolax", "LA 391", "Pico-Salax", "Guttalax-Fher", "Neopax", "PicoPrep"], "SMILES": "C(C1=CC=C(OS(=O)(=O)O)C=C1)(C2=CC=C(OS(=O)(=O)O)C=C2)C3=CC=CC=N3.[Na]", "physical_data": {"Molecular Weight": "", "Molecular Formula": "C18H15NO8S2.2Na", "Melting Point": "273 \u00b0C (decomp)"}}