{"cas_no": "1004294-80-7", "cn_name": "1-\u5f02\u5432\u54da\u916e-6-\u787c\u9178\u9891\u54ea\u9187\u916f", "en_name": ["2,3-Dihydro-6-(4,4,5,5-tetramethyl-1,3,2-dioxaborolan-2-yl)-1H-isoindol-1-one", "1H-Isoindol-1-one, 2,3-dihydro-6-(4,4,5,5-tetramethyl-1,3,2-dioxaborolan-2-yl)-", "2,3-Dihydro-6-(4,4,5,5-tetramethyl-1,3,2-dioxaborolan-2-yl)-1H-isoindol-1-one", "6-(4,4,5,5-Tetramethyl-1,3,2-dioxaborolan-2-yl)isoindolin-1-one"], "SMILES": "CC1(C)OB(C=2C=C3C(=CC2)CNC3=O)OC1(C)C", "physical_data": {"Molecular Weight": "259.11", "Molecular Formula": "C14H18BNO3", "Melting Point": "&gt;250 \u00b0C"}}