{"cas_no": "10049-08-8", "cn_name": "\u4e09\u6c2f\u5316\u948c", "en_name": ["Ruthenium trichloride", "Ruthenium chloride (RuCl3)", "Dichlororuthenium chloride ((RuCl2)Cl)", "Ruthenium trichloride", "Ruthenium(III) chloride", "Ruthenium chloride"], "SMILES": "[Ru](Cl)(Cl)Cl", "physical_data": {"Molecular Weight": "", "Molecular Formula": "Cl3Ru", "Melting Point": "600 \u00b0C"}}