{"cas_no": "10041-02-8", "cn_name": "1-(\u54aa\u5511-1-\u57fa)\u82ef\u915a", "en_name": ["4-(1H-Imidazol-1-yl)phenol", "Phenol, 4-(1H-imidazol-1-yl)-", "Phenol, p-imidazol-1-yl-", "4-(1H-Imidazol-1-yl)phenol", "4-(1H-1-Imidazolyl)phenol", "Ro 22-3582", "4-(1-Imidazolyl)phenol", "p-(Imidazolyl-1-yl)phenol", "p-(Imidazol-1-yl)phenol", "1-(4-Hydroxyphenyl)imidazole", "1-(p-Hydroxyphenyl)imidazole", "1-(4-Hydroxyphenyl)-1H-imidazole", "N-(4-Hydroxyphenyl)imidazole"], "SMILES": "OC1=CC=C(C=C1)N2C=CN=C2", "physical_data": {"Molecular Weight": "160.17", "Molecular Formula": "C9H8N2O", "Melting Point": "196-198 \u00b0C"}}