{"cas_no": "10042-76-9", "cn_name": "\u785d\u9178\u9536", "en_name": ["Strontium nitrate", "Nitric acid, strontium salt (2:1)", "Nitric acid, strontium salt", "Strontium nitrate", "Strontium dinitrate", "Strontium nitrate (Sr(NO3)2)", "Strontium(2+) nitrate", "Strontium nitrate (Sr(NO3)2)"], "SMILES": "N(=O)(=O)O.[Sr]", "physical_data": {"Molecular Weight": "", "Molecular Formula": "HNO3.<sup>1</sup>/2Sr", "Boiling Point": "645 \u00b0C", "Melting Point": "570 \u00b0C", "Density": "2.99 g/cm\u00b3"}}