{"cas_no": "1004-76-8", "cn_name": "2-\u5def\u57fa-4-\u7f9f\u57fa-5,6-\u4e8c\u6c28\u57fa\u5627\u5576", "en_name": ["4,5-Diamino-6-hydroxy-2-mercaptopyrimidine", "4(1H)-Pyrimidinone, 5,6-diamino-2,3-dihydro-2-thioxo-", "Uracil, 5,6-diamino-2-thio-", "5,6-Diamino-2,3-dihydro-2-thioxo-4(1H)-pyrimidinone", "4,5-Diamino-6-hydroxy-2-mercaptopyrimidine", "2-Mercapto-4,5-diamino-6-hydroxypyrimidine", "5,6-Diamino-2-thiouracil", "NSC 147804", "NSC 45759", "4,5-Diamino-2-mercaptopyrimidin-6-ol", "5,6-Diamino-4-hydroxy-2-mercaptopyrimidine", "5,6-Diamino-2-mercapto-1H-pyrimidin-4-one", "5,6-Diamino-2-mercaptopyrimidin-4-ol"], "SMILES": "NC1=C(N)NC(=S)NC1=O", "physical_data": {"Molecular Weight": "158.18", "Molecular Formula": "C4H6N4OS", "Melting Point": "&gt;240 \u00b0C"}}