{"cas_no": "10049-83-9", "cn_name": "\u76d0\u9178\u5421\u786b\u9187", "en_name": ["Pyritinol hydrochloride", "4-Pyridinemethanol, 3,3\u2032-[dithiobis(methylene)]bis[5-hydroxy-6-methyl-, hydrochloride (1:2)", "4-Pyridinemethanol, 3,3\u2032-(dithiodimethylene)bis[5-hydroxy-6-methyl-, dihydrochloride", "4-Pyridinemethanol, 3,3\u2032-[dithiobis(methylene)]bis[5-hydroxy-6-methyl-, dihydrochloride", "Pyrithioxine hydrochloride", "Encephabol", "Enerbol", "Pyriditol", "Pyrithioxin hydrochloride", "Pyritinol hydrochloride", "Enbol", "Biocefalin", "Life", "Pyritinol dihydrochloride"], "SMILES": "C(SSCC=1C(CO)=C(O)C(C)=NC1)C=2C(CO)=C(O)C(C)=NC2.Cl", "physical_data": {"Molecular Weight": "", "Molecular Formula": "C16H20N2O4S2.2ClH", "Melting Point": "184 \u00b0C"}}