{"cas_no": "10040-95-6", "cn_name": "1-(4-\u7532\u6c27\u57fa\u82ef\u57fa)-1H-\u54aa\u5511", "en_name": ["1-(4-Methoxyphenyl)-1H-imidazole", "1H-Imidazole, 1-(4-methoxyphenyl)-", "Imidazole, 1-(p-methoxyphenyl)-", "1-(4-Methoxyphenyl)-1H-imidazole", "1-(4-Methoxyphenyl)imidazole", "1-(p-Methoxyphenyl)imidazole", "N-(4-Methoxyphenyl)imidazole", "(4-Methoxyphenyl)-1H-imidazole"], "SMILES": "O(C)C1=CC=C(C=C1)N2C=CN=C2", "physical_data": {"Molecular Weight": "174.20", "Molecular Formula": "C10H10N2O", "Melting Point": "60-61 \u00b0C"}}