{"cas_no": "1004-39-3", "cn_name": "4,6-\u4e8c\u6c28\u57fa-2-\u5df0\u57fa\u5627\u5576", "en_name": ["4,6-Diamino-2-mercaptopyrimidine", "2(1H)-Pyrimidinethione, 4,6-diamino-", "2-Pyrimidinethiol, 4,6-diamino-", "4,6-Diamino-2(1H)-pyrimidinethione", "4,6-Diamino-2-thiopyrimidine", "4,6-Diamino-2-mercaptopyrimidine", "2-Mercapto-4,6-diaminopyrimidine", "4,6-Diamino-2-pyrimidinethiol", "2-Thio-6-aminocytosine", "4,6-Diamino-1,2-dihydro-2-thioxopyrimidine", "4,6-Diaminopyrimidine-2-thione", "4,6-Diamino-2-thiouracil", "NSC 1586", "NSC 680831", "4,6-Diamino-1H-pyrimidine-2-thione", "4,6-Diaminopyrimidine-2(1H)-thione"], "SMILES": "NC1=CC(N)=NC(=S)N1", "physical_data": {"Molecular Weight": "142.18", "Molecular Formula": "C4H6N4S", "Melting Point": "&gt;360 \u00b0C"}}