{"cas_no": "1004-75-7", "cn_name": "6-\u7f9f\u57fa-2,4,5-\u4e09\u6c28\u57fa\u5627\u5576", "en_name": ["4-Hydroxy-2,5,6-triaminopyrimidine", "4(3H)-Pyrimidinone, 2,5,6-triamino-", "4(1H)-Pyrimidinone, 2,5,6-triamino-", "4-Pyrimidinol, 2,5,6-triamino-", "2,5,6-Triamino-4(3H)-pyrimidinone", "6-Hydroxy-2,4,5-triaminopyrimidine", "2,4,5-Triamino-6-hydroxypyrimidine", "2,5,6-Triamino-4-pyrimidinol", "2,4,5-Triaminopyrimidin-6(1H)-one", "2,4,5-Triamino-6-pyrimidinol", "2,5,6-Triamino-4-oxopyrimidine", "2,5,6-Triamino-4-pyrimidinone", "4-Hydroxy-2,5,6-triaminopyrimidine", "2,5,6-Triaminopyrimidin-4(3H)-one", "2,5,6-Triaminopyrimidin-4(1H)-one", "2,5,6-Triamino-4(1H)-pyrimidone", "NSC 9313", "2,5,6-Triamino-4-hydroxypyrimidine", "2,5,6-Triamino-3,4-dihydro-4-pyrimidinone", "2,5,6-Triamino-1H-pyrimidin-4-one", "2,5,6-Triamino-1,4-dihydropyrimidin-4-one", "2,5,6-Triamino-3,4-dihydropyrimidin-4-one"], "SMILES": "NC1=C(N)NC(N)=NC1=O", "physical_data": {"Molecular Weight": "141.13", "Molecular Formula": "C4H7N5O", "Melting Point": "242 \u00b0C (decomp)"}}