{"cas_no": "100491-29-0", "cn_name": "\u7532\u9178\u4e59\u916f1-(2,4-\u4e8c\u6c1f\u82ef\u57fa)-7-\u6c2f-6-\u6c1f-4-\u6c27\u4ee3\u7f9f\u57fa\u5421\u5576[2,3-B]\u5421\u5576-3-\u7fa7\u9178", "en_name": ["Ethyl 7-chloro-1-(2,4-difluorophenyl)-6-fluoro-1,4-dihydro-4-oxo-1,8-naphthyridine-3-carboxylate", "1,8-Naphthyridine-3-carboxylic acid, 7-chloro-1-(2,4-difluorophenyl)-6-fluoro-1,4-dihydro-4-oxo-, ethyl ester", "Ethyl 7-chloro-1-(2,4-difluorophenyl)-6-fluoro-1,4-dihydro-4-oxo-1,8-naphthyridine-3-carboxylate", "7-Chloro-1-(2,4-difluorophenyl)-6-fluoro-1,4-dihydro-4-oxo-1,8-naphthyridine-3-carboxylic acid ethyl ester", "7-Chloro-6-fluoro-1-(2,4-difluorophenyl)-1,4-dihydro-4-oxo-1,8-naphthyridine-3-carboxylic acid ethyl ester", "7-Chloro-1-(2,4-difluorophenyl)-6-fluoro-4-oxo-1,4-dihydro-[1,8]naphthyridine-3-carboxylic acid ethyl ester", "Ethyl 1-(2,4-difluorophenyl)-7-chloro-6-fluoro-1,4-dihydro-4-oxo-1,8-naphthyridine-3-carboxylate", "Ethyl 7-chloro-1-(2,4-difluorophenyl)-6-fluoro-4-oxo-1,4-dihydro-1,8-naphthyridine-3-carboxylate"], "SMILES": "FC1=C(N2C=3C(C(=O)C(C(OCC)=O)=C2)=CC(F)=C(Cl)N3)C=CC(F)=C1", "physical_data": {"Molecular Weight": "382.72", "Molecular Formula": "C17H10ClF3N2O3", "Melting Point": "219-221 \u00b0C"}}