{"cas_no": "10049-05-5", "cn_name": "\u6c2f\u5316\u94ec", "en_name": ["Chromium dichloride", "Chromium chloride (CrCl2)", "Chromium dichloride", "Chromous chloride", "Chromium(II) chloride"], "SMILES": "[Cr](Cl)Cl", "physical_data": {"Molecular Weight": "", "Molecular Formula": "Cl2Cr", "Boiling Point": "1300 \u00b0C", "Melting Point": "824 \u00b0C", "Density": "2.751 g/cm\u00b3 @ Temp: 14 \u00b0C"}}