{"cas_no": "10045-45-1", "cn_name": "\u6c2f\u5511\u6c99\u5b97\u7c7b\u4f3c\u7269", "en_name": ["1-EBIO", "2H-Benzimidazol-2-one, 1-ethyl-1,3-dihydro-", "2-Benzimidazolinone, 1-ethyl-", "1-Ethyl-1,3-dihydro-2H-benzimidazol-2-one", "1-Ethylbenzimidazolinone", "3-Ethyl-2-benzimidazolinone", "1-Ethyl-1,3-dihydrobenzimidazol-2-one", "1-Ethyl-2-oxo-2,3-dihydrobenzimidazole", "1-Ethylbenzimidazolin-2-one", "1-EBIO", "1-Ethyl-2,3-dihydro-1H-1,3-benzodiazol-2-one", "3-Ethyl-1H-benzimidazol-2-one"], "SMILES": "C(C)N1C=2C(NC1=O)=CC=CC2", "physical_data": {"Molecular Weight": "162.19", "Molecular Formula": "C9H10N2O", "Melting Point": "118-120 \u00b0C"}}