{"cas_no": "10049-07-7", "cn_name": "\u6c2f\u5316\u94d1", "en_name": ["Rhodium trichloride", "Rhodium chloride (RhCl3)", "Rhodium trichloride", "Rhodium chloride", "Trichlororhodium", "Rhodium(III) chloride", "Rhodium(3+) chloride"], "SMILES": "[Rh](Cl)(Cl)Cl", "physical_data": {"Molecular Weight": "", "Molecular Formula": "Cl3Rh", "Melting Point": "680-700 \u00b0C"}}