{"cas_no": "10045-86-0", "cn_name": "\u78f7\u9178\u94c1", "en_name": ["Ferric phosphate", "Phosphoric acid, iron(3+) salt (1:1)", "Iron phosphate (FePO4)", "Ferric phosphate", "Ferric orthophosphate", "Iron phosphate", "Iron(III) phosphate", "Escargo!", "Sluggo", "Iron orthophosphate", "Ferramol"], "SMILES": "P(=O)(O)(O)O.[Fe]", "physical_data": {"Molecular Weight": "", "Molecular Formula": "Fe.H3O4P", "Melting Point": "1000 \u00b0C"}}