{"cas_no": "1005-39-6", "cn_name": "4,6-\u4e8c\u6c28\u57fa-2-\u7532\u57fa\u5def\u57fa\u5627\u5576", "en_name": ["2-(Methylthio)-4,6-pyrimidinediamine", "4,6-Pyrimidinediamine, 2-(methylthio)-", "Pyrimidine, 4,6-diamino-2-(methylthio)-", "2-(Methylthio)-4,6-pyrimidinediamine", "2-Methylthio-4,6-diaminopyrimidine", "4,6-Diamino-2-(methylmercapto)pyrimidine", "4,6-Diamino-2-(methylthio)pyrimidine", "NSC 44919", "NSC 60555", "2-Methylsulfanyl-pyrimidine-4,6-diamine", "2-Methylsulfanylpyrimidine-4,6-diamine", "2-(Methylsulfanyl)pyrimidine-4,6-diamine"], "SMILES": "S(C)C=1N=C(N)C=C(N)N1", "physical_data": {"Molecular Weight": "156.21", "Molecular Formula": "C5H8N4S", "Melting Point": "188-189 \u00b0C"}}