{"cas_no": "1005-67-0", "cn_name": "4-\u4e01\u57fa\u5417\u5549", "en_name": ["4-Butylmorpholine", "Morpholine, 4-butyl-", "4-Butylmorpholine", "N-Butylmorpholine", "NSC 28457", "Butylmorpholine"], "SMILES": "C(CCC)N1CCOCC1", "physical_data": {"Molecular Weight": "143.23", "Molecular Formula": "C8H17NO", "Boiling Point": "213.5 \u00b0C", "Melting Point": "-57.1 \u00b0C", "Density": "0.8105 g/cm\u00b3 @ Temp: 20 \u00b0C"}}