{"cas_no": "100516-88-9", "cn_name": "6-\u7f9f\u7532\u57fa\u55b9\u5549", "en_name": ["6-Quinolinemethanol", "6-Quinolinemethanol", "6-(Hydroxymethyl)quinoline", "Quinolin-6-ylcarbinol", "Quinolin-6-ylmethanol"], "SMILES": "C(O)C1=CC2=C(C=C1)N=CC=C2", "physical_data": {"Molecular Weight": "159.18", "Molecular Formula": "C10H9NO", "Melting Point": "79.5-80.5 \u00b0C"}}