{"cas_no": "1005-24-9", "cn_name": "3-\u6c28\u57fa\u7532\u9170-1-\u7532\u57fa\u6c2f\u5316\u5421\u5576", "en_name": ["1-Methylnicotinamide chloride", "Pyridinium, 3-(aminocarbonyl)-1-methyl-, chloride (1:1)", "3-Carbamoyl-1-methylpyridinium chloride", "Pyridinium, 3-carbamoyl-1-methyl-, chloride", "Pyridinium, 3-(aminocarbonyl)-1-methyl-, chloride", "3-Carbamyl-1-methylpyridinium chloride", "N1-Methylnicotinamide chloride", "1-Methylnicotinamide chloride", "Trigonellamide chloride", "Nicotinamide methochloride", "1-Methyl-3-carbamoylpyridinium chloride", "3-(Aminocarbonyl)-1-methylpyridinium chloride", "N-Methyl-3-carboxamidepyridinium chloride", "N-Methylnicotinamide chloride", "3-Carbamoyl-1-methylpyridin-1-ium chloride"], "SMILES": "C(N)(=O)C1=C[N+](C)=CC=C1.[Cl-]", "physical_data": {"Molecular Weight": "", "Molecular Formula": "C7H9N2O.Cl", "Melting Point": "207-209 \u00b0C"}}