{"cas_no": "10058-38-5", "cn_name": "2-\u82ef\u57fa\u567b\u5511-5-\u7fa7\u9178", "en_name": ["2-Phenyl-5-thiazolecarboxylic acid", "5-Thiazolecarboxylic acid, 2-phenyl-", "2-Phenyl-5-thiazolecarboxylic acid", "RU 16900", "2-Phenyl-1,3-thiazole-5-carboxylic acid"], "SMILES": "C(O)(=O)C=1SC(=NC1)C2=CC=CC=C2", "physical_data": {"Molecular Weight": "205.23", "Molecular Formula": "C10H7NO2S", "Melting Point": "186 \u00b0C"}}