{"cas_no": "10051-45-3", "cn_name": "\u5e9a\u9178\u9209", "en_name": ["Sodium heptanoate", "Heptanoic acid, sodium salt (1:1)", "Heptanoic acid, sodium salt", "Enanthic acid, sodium salt", "Sodium heptanoate", "Sodium enanthate", "Sodium n-heptanoate"], "SMILES": "C(CC(O)=O)CCCC.[Na]", "physical_data": {"Molecular Weight": "", "Molecular Formula": "C7H14O2.Na", "Melting Point": "350 \u00b0C", "Density": "1.204 g/cm\u00b3"}}