{"cas_no": "1005-93-2", "cn_name": "1,3-PROPANEDIOL, 2-ETHYL-2-(HYDROXYMETHYL)-CYCLIC PHOSPHATE", "en_name": ["Trimethylolpropane phosphate", "2,6,7-Trioxa-1-phosphabicyclo[2.2.2]octane, 4-ethyl-, 1-oxide", "1,3-Propanediol, 2-ethyl-2-(hydroxymethyl)-, cyclic phosphate (1:1)", "1,3-Propanediol, 2-ethyl-2-(hydroxymethyl)-, cyclic phosphate", "4-Ethyl-1-phospha-2,6,7-trioxabicyclo[2.2.2]octane 1-oxide", "Trimethylolpropane phosphate", "4-Ethyl-2,6,7-trioxa-1-phosphabicyclo[2.2.2]octane 1-oxide", "Etbicuphat"], "SMILES": "C(C)C12COP(=O)(OC1)OC2", "physical_data": {"Molecular Weight": "178.12", "Molecular Formula": "C6H11O4P", "Melting Point": "202 \u00b0C"}}