{"cas_no": "1005-56-7", "cn_name": "\u786b\u4ee3\u6c2f\u7532\u9178\u82ef\u916f", "en_name": ["Phenyl chlorothionoformate", "Carbonochloridothioic acid, O-phenyl ester", "Formic acid, chlorothio-, O-phenyl ester", "O-Phenyl chlorothioformate", "Phenoxythiocarbonyl chloride", "Phenyl chlorothionocarbonate", "Phenyl thiochloroformate", "Phenyl chlorothionoformate", "O-Phenyl carbonochloridothioate", "O-Phenyl chlorothionoformate", "Phenyl chlorothiocarbonate", "Phenyl thionochloroformate", "NSC 99103", "Phenyl thioxochloroformate", "O-Phenyl chlorothiocarbonate", "Phenyl chloromethanethioate"], "SMILES": "O(C(Cl)=S)C1=CC=CC=C1", "physical_data": {"Molecular Weight": "172.63", "Molecular Formula": "C7H5ClOS", "Boiling Point": "100 \u00b0C @ Press: 15 Torr", "Melting Point": "51 \u00b0C", "Density": "1.283 g/cm\u00b3 @ Temp: 15 \u00b0C"}}