{"cas_no": "100501-62-0", "cn_name": "1-\u4e59\u57fa-6,7,8-\u4e09\u6c1f-1,4-\u4e8c\u6c22-4-\u6c27\u4ee3-3-\u55b9\u5549\u7532\u9178\u4e59\u916f", "en_name": ["1-Ethyl-6,7,8-trifluoro-4-oxo-1,4-dihydroquinoline-3-carboxylic acid ethyl ester", "3-Quinolinecarboxylic acid, 1-ethyl-6,7,8-trifluoro-1,4-dihydro-4-oxo-, ethyl ester", "1-Ethyl-6,7,8-trifluoro-4-oxo-1,4-dihydroquinoline-3-carboxylic acid ethyl ester"], "SMILES": "C(C)N1C=2C(C(=O)C(C(OCC)=O)=C1)=CC(F)=C(F)C2F", "physical_data": {"Molecular Weight": "299.25", "Molecular Formula": "C14H12F3NO3", "Melting Point": "201-202 \u00b0C"}}