{"cas_no": "10051-44-2", "cn_name": "\u5df1\u9178\u9209", "en_name": ["Sodium hexanoate", "Hexanoic acid, sodium salt (1:1)", "Hexanoic acid, sodium salt", "Sodium caproate", "Sodium hexanoate", "Sodium hexoate", "Sodium capronate", "Sodium n-caproate", "Caproic acid sodium salt"], "SMILES": "C(CCCC)C(O)=O.[Na]", "physical_data": {"Molecular Weight": "", "Molecular Formula": "C6H12O2.Na", "Melting Point": "225 \u00b0C"}}