{"cas_no": "100523-84-0", "cn_name": "5-\u6eb4\u567b\u5429-3-\u7fa7\u9178", "en_name": ["5-Bromo-3-thiophenecarboxylic acid", "3-Thiophenecarboxylic acid, 5-bromo-", "5-Bromo-3-thiophenecarboxylic acid", "2-Bromothiophene-4-carboxylic acid"], "SMILES": "C(O)(=O)C=1C=C(Br)SC1", "physical_data": {"Molecular Weight": "207.05", "Molecular Formula": "C5H3BrO2S", "Melting Point": "117-118 \u00b0C"}}