{"cas_no": "10052-47-8", "cn_name": "\u4e09\u4e59\u57fa\u7532\u57fa\u6c2f\u5316\u94f5", "en_name": ["Triethylmethylammonium chloride", "Ethanaminium, N,N-diethyl-N-methyl-, chloride (1:1)", "Ammonium, triethylmethyl-, chloride", "Ethanaminium, N,N-diethyl-N-methyl-, chloride", "Triethylmethylammonium chloride", "Methyltriethylammonium chloride"], "SMILES": "[N+](CC)(CC)(CC)C.[Cl-]", "physical_data": {"Molecular Weight": "", "Molecular Formula": "C7H18N.Cl", "Melting Point": "284 \u00b0C (decomp)"}}