{"cas_no": "1005-02-3", "cn_name": "3(2-\u5421\u5576\u57fa)\u6c28\u57fa\u8159", "en_name": ["2-Pyridinecarboximidic acid, hydrazide", "2-Pyridinecarboximidic acid, hydrazide", "Picolinimidic acid, hydrazide", "2-Pyridylamidrazone", "NSC 101642", "2-Pyridinecarboxamidrazone", "Picolinamidrazone", "Picolinic acid amidrazone", "2-Picolinamidrazone", "Pyridine-2-carboxamide hydrazone", "Picolinamide hydrazone", "Pyridine-2-carboximidohydrazide", "2-Pyridine amidrazone", "Pyridine-2-hydrazidine"], "SMILES": "C(NN)(=N)C1=CC=CC=N1", "physical_data": {"Molecular Weight": "136.15", "Molecular Formula": "C6H8N4", "Melting Point": "95-96 \u00b0C"}}