{"cas_no": "1005-38-5", "cn_name": "4-\u6c28\u57fa-6-\u6c2f-2-\u7532\u786b\u57fa\u5627\u5576", "en_name": ["6-Chloro-2-(methylthio)pyrimidin-4-amine", "4-Pyrimidinamine, 6-chloro-2-(methylthio)-", "Pyrimidine, 4-amino-6-chloro-2-(methylthio)-", "6-Chloro-2-(methylthio)-4-pyrimidinamine", "U 8342", "4-Amino-6-chloro-2-methylthiopyrimidine", "4-Amino-6-chloro-2-methylsulfanylpyrimidine", "NSC 19859", "6-Chloro-2-methylthiopyrimidin-4-ylamine", "6-Chloro-2-(methylthio)pyrimidin-4-amine", "(6-Chloro-2-methylsulfanylpyrimidin-4-yl)amine", "6-Amino-4-chloro-2-(methylsulfanyl)pyrimidine", "6-Chloro-2-methylsulfanyl-pyrimidin-4-amine"], "SMILES": "S(C)C=1N=C(Cl)C=C(N)N1", "physical_data": {"Molecular Weight": "175.64", "Molecular Formula": "C5H6ClN3S", "Melting Point": "126-127 \u00b0C"}}