{"cas_no": "100643-71-8", "cn_name": "\u5730\u6c2f\u96f7\u4ed6\u5b9a", "en_name": ["Desloratadine", "5H-Benzo[5,6]cyclohepta[1,2-b]pyridine, 8-chloro-6,11-dihydro-11-(4-piperidinylidene)-", "8-Chloro-6,11-dihydro-11-(4-piperidinylidene)-5H-benzo[5,6]cyclohepta[1,2-b]pyridine", "Descarboethoxyloratadine", "8-Chloro-11-(4-piperidylidene)-6,11-dihydro-5H-benzo[5,6]cyclohepta[1,2-b]pyridine", "Sch 34117", "Desloratadine", "Clarinex", "Aerius", "NSC 675447", "Azomyr", "Opulis", "Allex", "Neoclarityn", "Descarboethoxyloratidine", "Delopedil", "Sedno", "Eurodesa", "Desler", "Dasselta"], "SMILES": "ClC=1C=C2C(C(C=3C(CC2)=CC=CN3)=C4CCNCC4)=CC1", "physical_data": {"Molecular Weight": "310.82", "Molecular Formula": "C19H19ClN2", "Melting Point": "154-154.5 \u00b0C"}}