{"cas_no": "1006-33-3", "cn_name": "2'-\u6eb4-5'-\u6c1f\u82ef\u4e59\u916e", "en_name": ["1-(2-Bromo-5-fluorophenyl)ethanone", "Ethanone, 1-(2-bromo-5-fluorophenyl)-", "Acetophenone, 2\u2032-bromo-5\u2032-fluoro-", "1-(2-Bromo-5-fluorophenyl)ethanone", "2\u2032-Bromo-5\u2032-fluoroacetophenone", "1-(2-Bromo-5-fluorophenyl)ethan-1-one"], "SMILES": "C(C)(=O)C1=C(Br)C=CC(F)=C1", "physical_data": {"Molecular Weight": "217.04", "Molecular Formula": "C8H6BrFO", "Boiling Point": "144 \u00b0C @ Press: 18 Torr"}}