{"cas_no": "1006-68-4", "cn_name": "5-\u82ef\u57fa\u6076\u5511", "en_name": ["5-Phenyloxazole", "Oxazole, 5-phenyl-", "5-Phenyloxazole", "5-Phenyl-1,3-oxazole"], "SMILES": "C1(=CN=CO1)C2=CC=CC=C2", "physical_data": {"Molecular Weight": "145.16", "Molecular Formula": "C9H7NO", "Boiling Point": "65 \u00b0C @ Press: 0.1 Torr", "Melting Point": "41-42 \u00b0C"}}