{"cas_no": "1006-59-3", "cn_name": "2,6-\u4e8c\u4e59\u57fa\u82ef\u915a", "en_name": ["2,6-Diethylphenol", "Phenol, 2,6-diethyl-", "2,6-Diethylphenol"], "SMILES": "C(C)C1=C(O)C(CC)=CC=C1", "physical_data": {"Molecular Weight": "150.22", "Molecular Formula": "C10H14O", "Boiling Point": "219 \u00b0C", "Melting Point": "37-38 \u00b0C"}}