{"cas_no": "1006-99-1", "cn_name": "5-\u6c2f-2-\u7532\u57fa\u82ef\u5e76\u567b\u5511", "en_name": ["5-Chloro-2-methylbenzothiazole", "Benzothiazole, 5-chloro-2-methyl-", "5-Chloro-2-methylbenzothiazole", "2-Methyl-5-chlorobenzothiazole", "NSC 8453", "5-Chloro-2-methyl-1,3-benzothiazole", "5-Chloro-2-methylbenzo[d]thiazole"], "SMILES": "CC=1SC=2C(N1)=CC(Cl)=CC2", "physical_data": {"Molecular Weight": "183.66", "Molecular Formula": "C8H6ClNS", "Boiling Point": "70-90 \u00b0C", "Melting Point": "62 \u00b0C"}}