{"cas_no": "10068-67-4", "cn_name": "Z-\u916a\u6c28\u9178-(TBU)-OSU", "en_name": ["Carbamic acid, [(1S)-1-[[4-(1,1-dimethylethoxy)phenyl]methyl]-2-[(2,5-dioxo-1-pyrrolidinyl)oxy]-2-oxoethyl]-, phenylmethyl ester", "Carbamic acid, [(1S)-1-[[4-(1,1-dimethylethoxy)phenyl]methyl]-2-[(2,5-dioxo-1-pyrrolidinyl)oxy]-2-oxoethyl]-, phenylmethyl ester", "Succinimide, N-[[3-(p-tert-butoxyphenyl)-N-carboxy-L-alanyl]oxy]-, benzyl ester", "2,5-Pyrrolidinedione, 1-[3-[4-(1,1-dimethylethoxy)phenyl]-1-oxo-2-[[(phenylmethoxy)carbonyl]amino]propoxy]-, (S)-", "Alanine, 3-(p-tert-butoxyphenyl)-N-carboxy-, N-benzyl ester, O-succinimido deriv., L-", "L-Tyrosine, O-(1,1-dimethylethyl)-N-[(phenylmethoxy)carbonyl]-, 2,5-pyrrolidinedione deriv.", "(2,5-Dioxopyrrolidin-1-yl) (2S)-3-[4-[(2-methylpropan-2-yl)oxy]phenyl]-2-(phenylmethoxycarbonylamino)propanoate"], "SMILES": "C(CC1=CC=C(OC(C)(C)C)C=C1)(C(ON2C(=O)CCC2=O)=O)NC(OCC3=CC=CC=C3)=O", "physical_data": {"Molecular Weight": "468.50", "Molecular Formula": "C25H28N2O7", "Melting Point": "118 \u00b0C"}}