{"cas_no": "1006-65-1", "cn_name": "3-\u82ef\u57fa\u5f02\u6076\u5511", "en_name": ["3-Phenylisoxazole", "Isoxazole, 3-phenyl-", "3-Phenylisoxazole", "3-Phenyl-1,2-oxazole"], "SMILES": "C=1(C=CON1)C2=CC=CC=C2", "physical_data": {"Molecular Weight": "145.16", "Molecular Formula": "C9H7NO", "Boiling Point": "128 \u00b0C @ Press: 16 Torr", "Melting Point": "110-111 \u00b0C", "Density": "1.139 g/cm\u00b3 @ Temp: 20 \u00b0C"}}