{"cas_no": "1006-39-9", "cn_name": "2-\u6eb4-4-\u6c1f\u82ef\u4e59\u916e", "en_name": ["1-(2-Bromo-4-fluorophenyl)ethanone", "Ethanone, 1-(2-bromo-4-fluorophenyl)-", "Acetophenone, 2\u2032-bromo-4\u2032-fluoro-", "1-(2-Bromo-4-fluorophenyl)ethanone", "2-Bromo-4-fluoroacetophenone", "2\u2032-Bromo-4\u2032-fluoroacetophenone", "1-(2-Bromo-4-fluorophenyl)ethan-1-one"], "SMILES": "C(C)(=O)C1=C(Br)C=C(F)C=C1", "physical_data": {"Molecular Weight": "217.04", "Molecular Formula": "C8H6BrFO", "Boiling Point": "128-130 \u00b0C @ Press: 10 Torr"}}