{"cas_no": "1006062-27-6", "cn_name": "\u6c2f\u6c99\u5766\u6742\u8d28J", "en_name": ["[2-Butyl-4-chloro-1-[[2\u2032-(2H-tetrazol-5-yl)[1,1\u2032-biphenyl]-4-yl]methyl]-1H-imidazol-5-yl]methyl acetate", "1H-Imidazole-5-methanol, 2-butyl-4-chloro-1-[[2\u2032-(2H-tetrazol-5-yl)[1,1\u2032-biphenyl]-4-yl]methyl]-, 5-acetate", "[2-Butyl-4-chloro-1-[[2\u2032-(2H-tetrazol-5-yl)[1,1\u2032-biphenyl]-4-yl]methyl]-1H-imidazol-5-yl]methyl acetate", "(1-((2\u2032-(2H-Tetrazol-5-yl)-[1,1\u2032-biphenyl]-4-yl)methyl)-2-butyl-4-chloro-1H-imidazol-5-yl)methyl acetate"], "SMILES": "C(N1C(CCCC)=NC(Cl)=C1COC(C)=O)C2=CC=C(C=C2)C3=C(C=CC=C3)C=4NN=NN4", "physical_data": {"Molecular Weight": "464.95", "Molecular Formula": "C24H25ClN6O2", "Melting Point": "160-162 \u00b0C"}}