{"cas_no": "100678-32-8", "cn_name": "\u7425\u73c0\u9178\u897f\u82ef\u5511\u5549", "en_name": ["Cibenzoline succinate", "Butanedioic acid, compd. with 2-(2,2-diphenylcyclopropyl)-4,5-dihydro-1H-imidazole (1:1)", "1H-Imidazole, 2-(2,2-diphenylcyclopropyl)-4,5-dihydro-, butanedioate (1:1)", "Cifenline succinate", "Cibenzoline succinate (1:1)", "Cipralan", "Exacor", "Ro 22-7796/001", "Cibenol", "Cibenzoline succinate", "2-(2,2-Diphenylcyclopropyl)-4,5-dihydro-1H-imidazole succinate"], "SMILES": "C(CC(O)=O)C(O)=O.C1(C(C1)C=2NCCN2)(C3=CC=CC=C3)C4=CC=CC=C4", "physical_data": {"Molecular Weight": "", "Molecular Formula": "C18H18N2.C4H6O4", "Melting Point": "165 \u00b0C"}}