{"cas_no": "10061-01-5", "cn_name": "\u987a\u5f0f-1,3-\u4e8c\u6c2f\u4e19\u70ef", "en_name": ["cis-1,3-Dichloropropene", "1-Propene, 1,3-dichloro-, (1Z)-", "Propene, 1,3-dichloro-, (Z)-", "1-Propene, 1,3-dichloro-, (Z)-", "(1Z)-1,3-Dichloro-1-propene", "cis-1,3-Dichloropropene", "cis-1,3-Dichloro-1-propene", "cis-1,3-Dichloropropylene", "(Z)-1,3-Dichloropropene", "(Z)-1,3-Dichloro-1-propene", "cis-3-Chloroallyl chloride", "cis-Telone"], "SMILES": "C(CCl)=CCl", "physical_data": {"Molecular Weight": "110.97", "Molecular Formula": "C3H4Cl2", "Boiling Point": "104.3 \u00b0C", "Melting Point": "-50 \u00b0C", "Density": "1.224 g/cm\u00b3 @ Temp: 20 \u00b0C"}}