{"cas_no": "10061-02-6", "cn_name": "\u53cd\u5f0f-1,3-\u4e8c\u6c2f-1-\u4e19\u70ef", "en_name": ["trans-1,3-Dichloropropene", "1-Propene, 1,3-dichloro-, (1E)-", "Propene, 1,3-dichloro-, (E)-", "1-Propene, 1,3-dichloro-, (E)-", "(1E)-1,3-Dichloro-1-propene", "trans-1,3-Dichloropropene", "trans-1,3-Dichloro-1-propene", "trans-1,3-Dichloropropylene", "(E)-1,3-Dichloropropene", "(E)-1,3-Dichloro-1-propene", "trans-3-Chloroallyl chloride", "trans-Telone"], "SMILES": "C(CCl)=CCl", "physical_data": {"Molecular Weight": "110.97", "Molecular Formula": "C3H4Cl2", "Boiling Point": "112 \u00b0C", "Density": "1.224 g/cm\u00b3 @ Temp: 20 \u00b0C"}}