{"cas_no": "1006-23-1", "cn_name": "5-\u4e9a\u785d\u57fa-2,4,6-\u4e09\u6c28\u57fa\u5627\u5576", "en_name": ["5-Nitroso-2,4,6-pyrimidinetriamine", "2,4,6-Pyrimidinetriamine, 5-nitroso-", "Pyrimidine, 2,4,6-triamino-5-nitroso-", "5-Nitroso-2,4,6-pyrimidinetriamine", "2,4,6-Triamino-5-nitrosopyrimidine", "5-Nitroso-2,4,6-triaminopyrimidine", "TX 1041", "NSC 67309", "NSC 677554"], "SMILES": "N(=O)C=1C(N)=NC(N)=NC1N", "physical_data": {"Molecular Weight": "154.13", "Molecular Formula": "C4H6N6O", "Melting Point": "345 \u00b0C (decomp)"}}