{"cas_no": "100646-51-3", "cn_name": "\u7cbe\u55b9\u79be\u7075", "en_name": ["Quizalofop-P-ethyl", "Propanoic acid, 2-[4-[(6-chloro-2-quinoxalinyl)oxy]phenoxy]-, ethyl ester, (2R)-", "Propanoic acid, 2-[4-[(6-chloro-2-quinoxalinyl)oxy]phenoxy]-, ethyl ester, (R)-", "Quizalofop-P-ethyl", "Assure II", "Targa D+", "Quizalofop-P-ethyl", "Ethyl (2R)-2-[4-[(6-chloroquinoxalin-2-yl)oxy]phenoxy]propionate", "Ethyl (R)-2-[4-(6-chloroquinoxalin-2-yloxy)phenoxy]propionate", "(R)-Quizalofop ethyl", "Targa Super", "Astarg 125", "Leopard 5EC", "(+)-Quizalofop ethyl"], "SMILES": "O(C1=NC2=C(N=C1)C=C(Cl)C=C2)C3=CC=C(OC(C(OCC)=O)C)C=C3", "physical_data": {"Molecular Weight": "372.80", "Molecular Formula": "C19H17ClN2O4", "Boiling Point": "220 \u00b0C", "Melting Point": "76.5 \u00b0C"}}