{"cas_no": "1006-41-3", "cn_name": "2-\u6eb4-4-\u6c1f\u82ef\u7532\u9178", "en_name": ["2-Bromo-4-fluorobenzoic acid", "Benzoic acid, 2-bromo-4-fluoro-", "2-Bromo-4-fluorobenzoic acid", "4-Fluoro-2-bromobenzoic acid"], "SMILES": "C(O)(=O)C1=C(Br)C=C(F)C=C1", "physical_data": {"Molecular Weight": "219.01", "Molecular Formula": "C7H4BrFO2", "Melting Point": "171-172.5 \u00b0C"}}