{"cas_no": "100665-43-8", "cn_name": "\u7075\u829d\u70ef\u9178D", "en_name": ["Ganoderenic acid d", "Lanosta-8,20(22)-dien-26-oic acid, 7-hydroxy-3,11,15,23-tetraoxo-, (7\u03b2,20E)-", "(7\u03b2,20E)-7-Hydroxy-3,11,15,23-tetraoxolanosta-8,20(22)-dien-26-oic acid", "Ganoderenic acid d"], "SMILES": "CC12C3=C(C4(C)C(CC3O)C(C)(C)C(=O)CC4)C(=O)CC1(C)C(C(=CC(CC(C(O)=O)C)=O)C)CC2=O", "physical_data": {"Molecular Weight": "512.63", "Molecular Formula": "C30H40O7", "Melting Point": "218-220 \u00b0C"}}