{"cas_no": "1006-94-6", "cn_name": "5-\u7532\u6c27\u57fa\u5432\u54da", "en_name": ["5-Methoxyindole", "1H-Indole, 5-methoxy-", "Indole, 5-methoxy-", "5-Methoxy-1H-indole", "5-Methoxyindole", "Femedol", "NSC 521752", "Indol-5-yl methyl ether"], "SMILES": "O(C)C=1C=C2C(=CC1)NC=C2", "physical_data": {"Molecular Weight": "147.17", "Molecular Formula": "C9H9NO", "Boiling Point": "176-178 \u00b0C", "Melting Point": "56-58 \u00b0C"}}