{"cas_no": "1006-21-9", "cn_name": "\u76d0\u9178\u5421\u54c6\u8f9b\u6742\u8d28A", "en_name": ["Furo[3,4-c]pyridin-7-ol, 1,3-dihydro-6-methyl-, hydrochloride (1:1)", "Furo[3,4-c]pyridin-7-ol, 1,3-dihydro-6-methyl-, hydrochloride (1:1)", "Furo[3,4-c]pyridin-7-ol, 1,3-dihydro-6-methyl-, hydrochloride", "1,3-Dihydro-6-methylfuro[3,4-c]pyridin-7-ol hydrochloride"], "SMILES": "OC1=C2C(=CN=C1C)COC2.Cl", "physical_data": {"Molecular Weight": "", "Molecular Formula": "C8H9NO2.ClH", "Melting Point": "239-240 \u00b0C (decomp)"}}