{"cas_no": "1006062-28-7", "cn_name": "\u6c2f\u6c99\u5766\u4e09\u82ef\u7532\u57fa\u919a", "en_name": ["5-[4\u2032-[[2-Butyl-4-chloro-5-[(triphenylmethoxy)methyl]-1H-imidazol-1-yl]methyl][1,1\u2032-biphenyl]-2-yl]-2H-tetrazole", "2H-Tetrazole, 5-[4\u2032-[[2-butyl-4-chloro-5-[(triphenylmethoxy)methyl]-1H-imidazol-1-yl]methyl][1,1\u2032-biphenyl]-2-yl]-", "5-[4\u2032-[[2-Butyl-4-chloro-5-[(triphenylmethoxy)methyl]-1H-imidazol-1-yl]methyl][1,1\u2032-biphenyl]-2-yl]-2H-tetrazole"], "SMILES": "C(OCC=1N(CC2=CC=C(C=C2)C3=C(C=CC=C3)C=4NN=NN4)C(CCCC)=NC1Cl)(C5=CC=CC=C5)(C6=CC=CC=C6)C7=CC=CC=C7", "physical_data": {"Molecular Weight": "665.23", "Molecular Formula": "C41H37ClN6O", "Melting Point": "170-172 \u00b0C"}}