{"cas_no": "100784-20-1", "cn_name": "\u6c2f\u5421\u5627\u78fa\u9686", "en_name": ["Halosulfuron-methyl", "1H-Pyrazole-4-carboxylic acid, 3-chloro-5-[[[[(4,6-dimethoxy-2-pyrimidinyl)amino]carbonyl]amino]sulfonyl]-1-methyl-, methyl ester", "NC 319", "NC 311", "Halosulfuron-methyl", "A 841101", "MON 12000", "Manage", "MON 12037", "Inpool", "Sempra", "Permit 75WG", "Permit", "Shadow", "Yukon", "Tribute Total"], "SMILES": "S(NC(NC=1N=C(OC)C=C(OC)N1)=O)(=O)(=O)C2=C(C(OC)=O)C(Cl)=NN2C", "physical_data": {"Molecular Weight": "434.81", "Molecular Formula": "C13H15ClN6O7S", "Melting Point": "176 \u00b0C"}}