{"cas_no": "1007-32-5", "cn_name": "1-\u82ef\u57fa-2-\u4e01\u916e", "en_name": ["1-Phenyl-2-butanone", "2-Butanone, 1-phenyl-", "1-Phenyl-2-butanone", "Benzyl ethyl ketone", "Ethyl benzyl ketone", "NSC 133447"], "SMILES": "C(C(CC)=O)C1=CC=CC=C1", "physical_data": {"Molecular Weight": "148.20", "Molecular Formula": "C10H12O", "Boiling Point": "230 \u00b0C", "Melting Point": "72-73 \u00b0C", "Density": "1.002 g/cm\u00b3 @ Temp: 40 \u00b0C"}}