{"cas_no": "100784-27-8", "cn_name": "1-\u7532\u57fa-3-\u6c2f-4-\u7532\u6c27\u7fb0\u57fa\u5421\u5511-5-\u78fa\u9170\u80fa", "en_name": ["Methyl 5-(aminosulfonyl)-3-chloro-1-methyl-1H-pyrazole-4-carboxylate", "1H-Pyrazole-4-carboxylic acid, 5-(aminosulfonyl)-3-chloro-1-methyl-, methyl ester", "Methyl 5-(aminosulfonyl)-3-chloro-1-methyl-1H-pyrazole-4-carboxylate", "3-Chloro-1-methyl-5-sulfamoyl-1H-pyrazole-4-carboxylic acid methyl ester"], "SMILES": "C(OC)(=O)C1=C(S(N)(=O)=O)N(C)N=C1Cl", "physical_data": {"Molecular Weight": "253.66", "Molecular Formula": "C6H8ClN3O4S", "Melting Point": "125-126 \u00b0C"}}