{"cas_no": "1007-15-4", "cn_name": "3-\u6eb4-4-\u6c1f\u82ef\u7532\u916e", "en_name": ["1-(3-Bromo-4-fluorophenyl)ethanone", "Ethanone, 1-(3-bromo-4-fluorophenyl)-", "Acetophenone, 3\u2032-bromo-4\u2032-fluoro-", "1-(3-Bromo-4-fluorophenyl)ethanone", "3-Bromo-4-fluoroacetophenone", "1-(3-Bromo-4-fluorophenyl)ethan-1-one", "3\u2032-Bromo-4\u2032-fluoroacetophenone", "1-Acetyl-3-bromo-4-fluorobenzene", "4\u2032-Fluoro-3\u2032-bromoacetophenone", "1-(4-Fluoro-3-bromophenyl)-ethanone"], "SMILES": "C(C)(=O)C1=CC(Br)=C(F)C=C1", "physical_data": {"Molecular Weight": "217.04", "Molecular Formula": "C8H6BrFO", "Boiling Point": "230 \u00b0C", "Melting Point": "57 \u00b0C"}}