{"cas_no": "10075-85-1", "cn_name": "9,10-\u53cc\u82ef\u4e59\u7094\u57fa\u84bd", "en_name": ["9,10-Bis(phenylethynyl)anthracene", "Anthracene, 9,10-bis(2-phenylethynyl)-", "Anthracene, 9,10-bis(phenylethynyl)-", "9,10-Bis(2-phenylethynyl)anthracene", "9,10-Bis(phenylethynyl)anthracene", "BPEA (scintillator additive)", "BPEA", "9,10-Bis(phenylvinyl)anthracene", "Cyalume Green", "9,10-Bis(phenethynyl)anthracene"], "SMILES": "C(#CC1=CC=CC=C1)C=2C3=C(C(C#CC4=CC=CC=C4)=C5C2C=CC=C5)C=CC=C3", "physical_data": {"Molecular Weight": "378.46", "Molecular Formula": "C30H18", "Melting Point": "257-258 \u00b0C"}}