{"cas_no": "1007-01-8", "cn_name": "2-\u964d\u574e\u70f7\u4e59\u9178", "en_name": ["Bicyclo[2.2.1]heptane-2-acetic acid", "Bicyclo[2.2.1]heptane-2-acetic acid", "2-Norbornaneacetic acid", "2-Norbornylacetic acid", "NSC 174059", "2-(Bicyclo[2.2.1]hept-2-yl)acetic acid", "Bicyclo[2.2.1]hept-2-ylacetic acid", "2-(Bicyclo[2.2.1]heptan-2-yl)acetic acid", "2-[Bicyclo[2.2.1]heptan-2-yl]acetic acid", "2-(3-Bicyclo[2.2.1]heptanyl)acetic acid"], "SMILES": "C(C(O)=O)C1C2CC(C1)CC2", "physical_data": {"Molecular Weight": "154.21", "Molecular Formula": "C9H14O2", "Boiling Point": "91-92 \u00b0C @ Press: 23 Torr", "Melting Point": "95 \u00b0C"}}