{"cas_no": "10075-63-5", "cn_name": "1,5-\u4e8c\u7532\u6c27\u57fa\u8418", "en_name": ["1,5-Dimethoxynaphthalene", "Naphthalene, 1,5-dimethoxy-", "1,5-Dimethoxynaphthalene", "NSC 74554"], "SMILES": "O(C)C=1C2=C(C(OC)=CC=C2)C=CC1", "physical_data": {"Molecular Weight": "188.22", "Molecular Formula": "C12H12O2", "Boiling Point": "179 \u00b0C @ Press: 13 Torr", "Melting Point": "183-184 \u00b0C"}}