{"cas_no": "10075-52-2", "cn_name": "5-\u6eb4-1-\u7532\u57fa-1H-\u5432\u54da", "en_name": ["5-Bromo-1-methyl-1H-indole", "1H-Indole, 5-bromo-1-methyl-", "Indole, 5-bromo-1-methyl-", "5-Bromo-1-methyl-1H-indole", "1-Methyl-5-bromoindole", "N-Methyl-5-bromoindole", "5-Bromo-1-methylindole", "NSC 143238", "1-Methyl-5-bromo-1H-indole"], "SMILES": "CN1C=2C(C=C1)=CC(Br)=CC2", "physical_data": {"Molecular Weight": "210.07", "Molecular Formula": "C9H8BrN", "Melting Point": "42-43 \u00b0C"}}