{"cas_no": "10076-48-9", "cn_name": "2,2-\u4e8c\u7532\u6c27\u57fa\u4e19\u9178\u7532\u916f", "en_name": ["Methyl 2,2-dimethoxypropionate", "Propanoic acid, 2,2-dimethoxy-, methyl ester", "Pyruvic acid, methyl ester, 2-(dimethyl acetal)", "Pyruvic acid, methyl ester, dimethyl acetal", "Propionic acid, 2,2-dimethoxy-, methyl ester", "Methyl 2,2-dimethoxypropionate", "Methyl 2,2-dimethoxypropanoate", "NSC 159637"], "SMILES": "C(C(OC)=O)(OC)(OC)C", "physical_data": {"Molecular Weight": "148.16", "Molecular Formula": "C6H12O4", "Boiling Point": "66.0-66.5 \u00b0C @ Press: 18 Torr", "Density": "1.0678 g/cm\u00b3 @ Temp: 19.800009765625 \u00b0C"}}