{"cas_no": "1007-16-5", "cn_name": "3-\u6eb4-4-\u6c1f\u82ef\u7532\u9178", "en_name": ["3-Bromo-4-fluorobenzoic acid", "Benzoic acid, 3-bromo-4-fluoro-", "3-Bromo-4-fluorobenzoic acid"], "SMILES": "C(O)(=O)C1=CC(Br)=C(F)C=C1", "physical_data": {"Molecular Weight": "219.01", "Molecular Formula": "C7H4BrFO2", "Melting Point": "156 \u00b0C"}}