{"cas_no": "1007-36-9", "cn_name": "N-\u7532-N'-\u82ef\u8132", "en_name": ["N-Methyl-N\u2032-phenylurea", "Urea, N-methyl-N\u2032-phenyl-", "Urea, 1-methyl-3-phenyl-", "N-Methyl-N\u2032-phenylurea", "3-Phenyl-1-methylurea", "1-Methyl-3-phenylurea", "N-Phenyl-N\u2032-methylurea", "Defenuron", "FL 174", "Defenuron 92", "1-Phenyl-3-methylurea", "IPO 4328", "Desfenuron", "3-Methyl-1-phenylurea", "Desphenuron", "NSC 10989"], "SMILES": "N(C(NC)=O)C1=CC=CC=C1", "physical_data": {"Molecular Weight": "150.18", "Molecular Formula": "C8H10N2O", "Melting Point": "150 \u00b0C"}}