{"cas_no": "1007-48-3", "cn_name": "4-\u4e59\u9178\u57fa\u7532\u57fa\u5421\u5576", "en_name": ["4-Pyridinemethanol, 4-acetate", "4-Pyridinemethanol, 4-acetate", "4-Pyridinemethanol, acetate (ester)", "Acetic acid, 4-pyridylmethyl ester", "4-Pyridylcarbinol acetate (ester)", "4-Pyridylmethyl acetate", "4-(Acetoxymethyl)pyridine", "4-Picolyl acetate", "NSC 403921"], "SMILES": "C(OC(C)=O)C=1C=CN=CC1", "physical_data": {"Molecular Weight": "151.16", "Molecular Formula": "C8H9NO2", "Boiling Point": "85-95 \u00b0C @ Press: 4 Torr"}}