{"cas_no": "10075-51-1", "cn_name": "1-\u82c4\u57fa-5-\u6eb4\u5432\u54da", "en_name": ["1-Benzyl-5-bromoindole", "1H-Indole, 5-bromo-1-(phenylmethyl)-", "Indole, 1-benzyl-5-bromo-", "5-Bromo-1-(phenylmethyl)-1H-indole", "1-Benzyl-5-bromoindole", "N-Benzyl-5-bromoindole", "NSC 143237", "1-Benzyl-5-bromo-1H-indole"], "SMILES": "C(N1C=2C(C=C1)=CC(Br)=CC2)C3=CC=CC=C3", "physical_data": {"Molecular Weight": "286.17", "Molecular Formula": "C15H12BrN", "Melting Point": "93-95 \u00b0C"}}