{"cas_no": "1007-28-9", "cn_name": "\u6c1f\u6c2f\u6c22\u83ca\u8102(\u53bb\u5f02\u4e19\u57fa\u83a0\u53bb\u6d25)", "en_name": ["Deisopropylatrazine", "1,3,5-Triazine-2,4-diamine, 6-chloro-N2-ethyl-", "s-Triazine, 2-amino-4-chloro-6-(ethylamino)-", "1,3,5-Triazine-2,4-diamine, 6-chloro-N-ethyl-", "6-Chloro-N2-ethyl-1,3,5-triazine-2,4-diamine", "2-Chloro-4-amino-6-(ethylamino)-s-triazine", "2-Chloro-4-ethylamino-6-amino-s-triazine", "4-Amino-2-chloro-6-(ethylamino)-s-triazine", "G 28279", "2-Amino-4-chloro-6-(ethylamino)-s-triazine", "Deisopropylatrazine", "4-Amino-2-chloro-6-ethylamino-1,3,5-triazine", "Deethylsimazine", "Desisopropylatrazine", "F 703", "DIA", "2-Chloro-4-ethylamino-6-amino-1,3,5-triazine", "NSC 13909", "Atrazine-desisopropyl", "6-Amino-2-chloro-4-ethylamino-s-triazine", "Desethylsimazine", "F 703 (amine)", "6-Amino-2-chloro-4-ethylamino-1,3,5-triazine", "6-Desisopropylatrazine"], "SMILES": "N(CC)C=1N=C(Cl)N=C(N)N1", "physical_data": {"Molecular Weight": "173.60", "Molecular Formula": "C5H8ClN5", "Melting Point": "177-179 \u00b0C"}}