{"cas_no": "10075-50-0", "cn_name": "5-\u6eb4\u5432\u54da", "en_name": ["5-Bromoindole", "1H-Indole, 5-bromo-", "Indole, 5-bromo-", "5-Bromo-1H-indole", "5-Bromoindole", "NSC 75581"], "SMILES": "BrC=1C=C2C(=CC1)NC=C2", "physical_data": {"Molecular Weight": "196.04", "Molecular Formula": "C8H6BrN", "Melting Point": "90-92 \u00b0C"}}