{"cas_no": "1007-03-0", "cn_name": "\u73af\u4e19\u57fa\u82ef\u57fa\u78b3\u9178\u916f", "en_name": ["\u03b1-Cyclopropylbenzyl alcohol", "Benzenemethanol, \u03b1-cyclopropyl-", "Benzyl alcohol, \u03b1-cyclopropyl-", "\u03b1-Cyclopropylbenzenemethanol", "Cyclopropanemethanol, \u03b1-phenyl-", "\u03b1-Cyclopropylbenzyl alcohol", "Phenylcyclopropylcarbinol", "Cyclopropylphenylmethanol", "(\u00b1)-\u03b1-Cyclopropylbenzylalcohol", "\u03b1-Phenylcyclopropanemethanol", "Cyclopropyl phenyl carbinol"], "SMILES": "C(O)(C1CC1)C2=CC=CC=C2", "physical_data": {"Molecular Weight": "148.20", "Molecular Formula": "C10H12O", "Boiling Point": "121 \u00b0C @ Press: 12 Torr"}}