{"cas_no": "10075-62-4", "cn_name": "1,4-\u4e8c\u7532\u6c27\u57fa\u8418", "en_name": ["1,4-Dimethoxynaphthalene", "Naphthalene, 1,4-dimethoxy-", "1,4-Dimethoxynaphthalene", "NSC 221272"], "SMILES": "O(C)C=1C2=C(C(OC)=CC1)C=CC=C2", "physical_data": {"Molecular Weight": "188.22", "Molecular Formula": "C12H12O2", "Melting Point": "83-84 \u00b0C"}}