{"cas_no": "10071-13-3", "cn_name": "6-\u6c28\u57fa-3(2H)-\u54d2\u55ea\u916e", "en_name": ["Maleic hydrazide", "3,6-Pyridazinedione, 1,2-dihydro-", "3(2H)-Pyridazinone, 6-hydroxy-", "1,2-Dihydro-3,6-pyridazinedione", "MAH", "Maleic hydrazide", "MH", "Malzid", "3,6-Pyridazinediol", "6-Hydroxy-3(2H)-pyridazinone", "3,6-Dihydroxypyridazine", "3,6-Dioxopyridazine", "Maleic acid cyclic hydrazide", "Regulox 36", "Antyrost", "Antergon", "Malepin", "Mazide", "Super De-Sprout", "Maleic cyclic hydrazide", "Sorbatran", "MH (hydrazide)", "Royal Slo-Gro", "Yadi", "Yake", "NSC 13892", "NSC 234167", "NSC 48832", "NSC 8823", "1,2,3,6-Tetrahydropyridazine-3,6-dione", "MeSH ID: D008300"], "SMILES": "O=C1C=CC(=O)NN1", "physical_data": {"Molecular Weight": "112.09", "Molecular Formula": "C4H4N2O2", "Melting Point": "298-300 \u00b0C", "Density": "1.60 g/cm\u00b3 @ Temp: 25 \u00b0C"}}