{"cas_no": "10075-66-8", "cn_name": "1,8-\u4e8c\u7532\u6c27\u57fa\u8418", "en_name": ["1,8-Dimethoxynaphthalene", "Naphthalene, 1,8-dimethoxy-", "1,8-Dimethoxynaphthalene"], "SMILES": "O(C)C=1C2=C(C=CC=C2OC)C=CC1", "physical_data": {"Molecular Weight": "188.22", "Molecular Formula": "C12H12O2", "Melting Point": "160-161 \u00b0C"}}