{"cas_no": "1008-79-3", "cn_name": "1-\u82ef\u57fa-3-\u7f9f\u57fa\u5421\u5511", "en_name": ["1,2-Dihydro-1-phenyl-3H-pyrazol-3-one", "3H-Pyrazol-3-one, 1,2-dihydro-1-phenyl-", "Pyrazol-3-ol, 1-phenyl-", "3-Pyrazolin-5-one, 2-phenyl-", "1,2-Dihydro-1-phenyl-3H-pyrazol-3-one", "1-Phenyl-3-hydroxypyrazole", "1-Phenyl-1,2-dihydropyrazol-3-one", "1-Phenyl-2,3-dihydro-1H-pyrazol-3-one", "1-Phenyl-1H-pyrazol-3-ol", "2-Phenyl-1H-pyrazol-5-one", "3-Hydroxy-1-phenyl-1H-pyrazole", "1-Phenyl-1H-pyrazol-3(2H)-one"], "SMILES": "O=C1NN(C=C1)C2=CC=CC=C2", "physical_data": {"Molecular Weight": "160.17", "Molecular Formula": "C9H8N2O", "Boiling Point": "206-218 \u00b0C @ Press: 33 Torr", "Melting Point": "155-156 \u00b0C"}}