{"cas_no": "10081-39-7", "cn_name": "2,6-\u4e8c\u82ef\u57fa-4-(2,4,6-\u4e09\u82ef\u57fa\u5421\u5576)", "en_name": ["Betaine 30", "Pyridinium, 1-(2\u2032-hydroxy[1,1\u2032:3\u2032,1\u2032\u2032-terphenyl]-5\u2032-yl)-2,4,6-triphenyl-, inner salt", "Pyridinium, 1-(3,5-diphenyl-4-hydroxyphenyl)-2,4,6-triphenyl-, hydroxide, inner salt", "1-(2\u2032-Hydroxy-m-terphenyl-5\u2032-yl)-2,4,6-triphenylpyridinium hydroxide, inner salt", "1-(2\u2032-Hydroxy[1,1\u2032:3\u2032,1\u2032\u2032-terphenyl]-5\u2032-yl)-2,4,6-triphenylpyridinium hydroxide inner salt", "ET 30", "2,6-Diphenyl-4-(2,4,6-triphenyl-1-pyridinio)phenolate", "2,6-Diphenyl-4-(2,4,6-triphenyl-1-pyridinio)phenoxide", "Reichardt's dye", "Betaine 30", "Reichardt's betain", "4-(2,4,6-Triphenylpyridinio)-2,6-diphenylphenoxide", "2,6-Diphenyl-4-(2\u2032,4\u2032,6\u2032-triphenyl-1-pyridinium)phenolate", "Reichardt's ET(30) betaine dye", "Dimroth-Reichardt betaine dye", "4-(2,4,6-Triphenylpyridinium-1-yl)-2,6-diphenylphenolate", "2,6-Diphenyl-4-(2,4,6-triphenylpyridinium-1-yl)phenolate", "Reichard's ET 30 dye", "Reichardt dye", "2,6-Diphenyl-4-(2,4,6-triphenylpyridin-1-ium-1-yl)phenolate"], "SMILES": "[O-]C1=C(C=C([N+]=2C(=CC(=CC2C3=CC=CC=C3)C4=CC=CC=C4)C5=CC=CC=C5)C=C1C6=CC=CC=C6)C7=CC=CC=C7", "physical_data": {"Molecular Weight": "", "Molecular Formula": "C41H29NO", "Melting Point": "200-275 \u00b0C"}}