{"cas_no": "100848-70-2", "cn_name": "2-\u7532\u6c27\u57fa-4-\u7532\u57fa\u5421\u5576", "en_name": ["2-Methoxy-4-methylpyridine", "Pyridine, 2-methoxy-4-methyl-", "2-Methoxy-4-methylpyridine"], "SMILES": "O(C)C1=CC(C)=CC=N1", "physical_data": {"Molecular Weight": "123.15", "Molecular Formula": "C7H9NO", "Boiling Point": "67 \u00b0C @ Press: 21 Torr", "Melting Point": "136 \u00b0C"}}