{"cas_no": "1008-95-3", "cn_name": "4-(1,3-\u5421\u5576-5-\uff09\u5432\u54da", "en_name": ["4-(Oxazol-5-yl)aniline", "Benzenamine, 4-(5-oxazolyl)-", "Oxazole, 5-(p-aminophenyl)-", "4-(5-Oxazolyl)benzenamine", "4-(1,3-Oxazol-5-yl)aniline", "4-(1,3-Oxazol-5-yl)phenylamine", "5-(4-Aminophenyl)oxazole", "4-(Oxazol-5-yl)phenylamine", "4-(Oxazol-5-yl)aniline"], "SMILES": "NC1=CC=C(C=C1)C2=CN=CO2", "physical_data": {"Molecular Weight": "160.17", "Molecular Formula": "C9H8N2O", "Melting Point": "151-152 \u00b0C"}}