{"cas_no": "10083-24-6", "cn_name": "\u767d\u76ae\u6749\u9187", "en_name": ["Piceatannol", "1,2-Benzenediol, 4-[(1E)-2-(3,5-dihydroxyphenyl)ethenyl]-", "3,3\u2032,4,5\u2032-Stilbenetetrol, (E)-", "Piceatannol", "1,2-Benzenediol, 4-[2-(3,5-dihydroxyphenyl)ethenyl]-, (E)-", "4-[(1E)-2-(3,5-Dihydroxyphenyl)ethenyl]-1,2-benzenediol", "Astringenin", "trans-3,3\u2032,4,5\u2032-Tetrahydroxystilbene", "(E)-Piceatannol", "trans-Piceatannol", "Passienol LA"], "SMILES": "C(=CC1=CC(O)=CC(O)=C1)C2=CC(O)=C(O)C=C2", "physical_data": {"Molecular Weight": "244.24", "Molecular Formula": "C14H12O4", "Melting Point": "215-217 \u00b0C"}}