{"cas_no": "1008-76-0", "cn_name": "\u03b3-\u82ef\u57fa-\u03b3-\u4e01\u5185\u916f", "en_name": ["\u03b3-Phenyl-\u03b3-butyrolactone", "2(3H)-Furanone, dihydro-5-phenyl-", "Butyric acid, 4-hydroxy-4-phenyl-, \u03b3-lactone", "Dihydro-5-phenyl-2(3H)-furanone", "2,3-Dihydro-5-phenyl-2-furanone", "Dihydro-5-phenyl-2(3H)furanone", "\u03b3-Phenyl-\u03b3-butyrolactone", "4-Phenylbutanolide", "4-Phenyl-4-hydroxybutanoic acid lactone", "\u03b3-Phenylbutyrolactone", "4-Phenyl-4-butanolide", "4-Phenyl-\u03b3-butyrolactone", "Dihydro-5-phenyl-2-furanone", "\u03b3-Phenyl-\u03b3-butanolide", "(\u00b1)-\u03b3-Phenyl-\u03b3-butyrolactone", "5-Phenyltetrahydrofuran-2-one", "5-Phenyldihydrofuran-2(3H)-one", "(RS)-\u03b3-Phenyl-\u03b3-butyrolactone", "NSC 24259", "NSC 48048"], "SMILES": "O=C1OC(CC1)C2=CC=CC=C2", "physical_data": {"Molecular Weight": "162.19", "Molecular Formula": "C10H10O2", "Boiling Point": "175-176 \u00b0C @ Press: 11 Torr", "Melting Point": "37-38 \u00b0C", "Density": "1.5411 g/cm\u00b3 @ Temp: 23 \u00b0C"}}