{"cas_no": "1008-89-5", "cn_name": "2-\u82ef\u57fa\u5421\u5576", "en_name": ["2-Phenylpyridine", "Pyridine, 2-phenyl-", "2-Phenylpyridine", "o-Phenylpyridine", "\u03b1-Phenylpyridine", "NSC 89291"], "SMILES": "C1(=CC=CC=C1)C2=CC=CC=N2", "physical_data": {"Molecular Weight": "155.20", "Molecular Formula": "C11H9N", "Boiling Point": "271 \u00b0C", "Melting Point": "148-149 \u00b0C", "Density": "1.0833 g/cm\u00b3 @ Temp: 20 \u00b0C"}}