{"cas_no": "100868-46-0", "cn_name": "3,5-\u4e8c\u6c2f-4-\u7532\u57fa\u5421\u5576", "en_name": ["3,5-Dichloro-4-methylpyridine", "Pyridine, 3,5-dichloro-4-methyl-", "4-Picoline, 3,5-dichloro-", "3,5-Dichloro-4-methylpyridine", "3,5-Dichloro-4-picoline"], "SMILES": "CC=1C(Cl)=CN=CC1Cl", "physical_data": {"Molecular Weight": "162.02", "Molecular Formula": "C6H5Cl2N", "Boiling Point": "125-127 \u00b0C @ Press: 74 Torr", "Melting Point": "49 \u00b0C"}}