{"cas_no": "100884-80-8", "cn_name": "1,3,5,7-\u91d1\u521a\u70f7\u56db\u7fa7\u9178", "en_name": ["1,3,5,7-Adamantanetetracarboxylic acid", "Tricyclo[3.3.1.13,7]decane-1,3,5,7-tetracarboxylic acid", "1,3,5,7-Adamantanetetracarboxylic acid"], "SMILES": "C(O)(=O)C12CC3(C(O)=O)CC(C(O)=O)(C1)CC(C(O)=O)(C2)C3", "physical_data": {"Molecular Weight": "312.27", "Molecular Formula": "C14H16O8", "Melting Point": "395 \u00b0C (decomp)"}}