{"cas_no": "1008-65-7", "cn_name": "2-(1,3,4-\u6c27\u4e8c\u5511-2-\u57fa)\u82ef\u915a", "en_name": ["Fenadiazole", "Phenol, 2-(1,3,4-oxadiazol-2-yl)-", "Phenol, o-1,3,4-oxadiazol-2-yl-", "2-(1,3,4-Oxadiazol-2-yl)phenol", "Fenadiazole", "o-1,3,4-Oxadiazol-2-ylphenol", "Hypnazol", "2-(o-Hydroxyphenyl)-1,3,4-oxadiazole", "Eudormil", "Fenadiazol", "J. L. 512", "Viodor", "NSC 100729"], "SMILES": "OC1=C(C2=NN=CO2)C=CC=C1", "physical_data": {"Molecular Weight": "162.15", "Molecular Formula": "C8H6N2O2", "Boiling Point": "180 \u00b0C", "Melting Point": "111.5 \u00b0C"}}