{"cas_no": "1008-92-0", "cn_name": "2,3-\u4e8c\u6c22\u82ef\u5e76[1,4]\u4e8c\u6076\u70f7-2-\u7532\u8148", "en_name": ["2,3-Dihydro-1,4-benzodioxin-2-carbonitrile", "1,4-Benzodioxin-2-carbonitrile, 2,3-dihydro-", "1,4-Benzodioxan-2-carbonitrile", "2,3-Dihydro-1,4-benzodioxin-2-carbonitrile", "2-Cyano-1,4-benzodioxan", "2,3-Dihydro-benzo[1,4]dioxine-2-carbonitrile", "2,3-Dihydro-1,4-benzodioxine-3-carbonitrile", "2,3-Dihydro-1,4-benzodioxine-2-carbonitrile"], "SMILES": "C(#N)C1OC=2C(OC1)=CC=CC2", "physical_data": {"Molecular Weight": "161.16", "Molecular Formula": "C9H7NO2", "Boiling Point": "116-119 \u00b0C @ Press: 0.15 Torr", "Melting Point": "54 \u00b0C"}}