{"cas_no": "1008-91-9", "cn_name": "1-(4-\u5421\u5576\u57fa)\u54cc\u55ea", "en_name": ["1-(4-Pyridyl)piperazine", "Piperazine, 1-(4-pyridinyl)-", "Piperazine, 1-(4-pyridyl)-", "1-(4-Pyridinyl)piperazine", "1-(4-Pyridyl)piperazine", "N-(4-Pyridyl)piperazine", "N-(Pyridin-4-yl)piperazine", "4-(Pyridin-4-yl)piperazine", "4-(4-Pyridyl)piperazine", "1-(4-pyridyl)piperazine", "1-(Pyridin-4-yl)piperazine"], "SMILES": "C=1(C=CN=CC1)N2CCNCC2", "physical_data": {"Molecular Weight": "163.22", "Molecular Formula": "C9H13N3", "Melting Point": "140 \u00b0C"}}