{"cas_no": "1008-88-4", "cn_name": "3-\u82ef\u57fa\u5421\u5576", "en_name": ["3-Phenylpyridine", "Pyridine, 3-phenyl-", "3-Phenylpyridine", "m-Phenylpyridine", "\u03b2-Phenylpyridine", "5-Phenylpyridine"], "SMILES": "C1(=CC=CC=C1)C=2C=CC=NC2", "physical_data": {"Molecular Weight": "155.20", "Molecular Formula": "C11H9N", "Boiling Point": "272 \u00b0C", "Melting Point": "164 \u00b0C"}}