{"cas_no": "10085-81-1", "cn_name": "methyl(methyl-9,10-ethano-9(10H)-anthryl)ammonium chloride", "en_name": ["Benzoctamine hydrochloride", "9,10-Ethanoanthracene-9(10H)-methanamine, N-methyl-, hydrochloride (1:1)", "9,10-Ethanoanthracene-9(10H)-methylamine, N-methyl-, hydrochloride", "9,10-Ethanoanthracene-9(10H)-methanamine, N-methyl-, hydrochloride", "Benzoctamine hydrochloride", "Tacitin", "9-(Methylaminomethyl)-9,10-dihydro-9,10-ethanoanthracene hydrochloride", "Ba-30803", "Tracitin"], "SMILES": "C(NC)C12C=3C(C(C=4C1=CC=CC4)CC2)=CC=CC3.Cl", "physical_data": {"Molecular Weight": "", "Molecular Formula": "C18H19N.ClH", "Melting Point": "320-322 \u00b0C"}}