{"cas_no": "10081-67-1", "cn_name": "4,4'-\u4e8c(\u82ef\u57fa\u5f02\u4e19\u57fa)\u4e8c\u82ef\u80fa", "en_name": ["4,4\u2032-Bis(\u03b1,\u03b1-dimethylbenzyl)diphenylamine", "Benzenamine, 4-(1-methyl-1-phenylethyl)-N-[4-(1-methyl-1-phenylethyl)phenyl]-", "Diphenylamine, 4,4\u2032-bis(\u03b1,\u03b1-dimethylbenzyl)-", "4-(1-Methyl-1-phenylethyl)-N-[4-(1-methyl-1-phenylethyl)phenyl]benzenamine", "Naugard 445", "Bis[4-(2-phenyl-2-propyl)phenyl]amine", "Permanax 49HV", "4,4\u2032-Bis(\u03b1,\u03b1\u2032-dimethylbenzyl)diphenylamine", "4,4\u2032-Bis(\u03b1,\u03b1-dimethylbenzyl)diphenylamine", "Permanax 49", "Antioxidant 445", "Nocrac CD", "Bis(p-cumylphenyl)amine", "MD 40", "MD 40 (antioxidant)", "KY 405", "Nonflex DCD", "Bis(phenylisopropylidene)-4,4\u2032-diphenylamine", "AO 445", "4-(1-Methyl-1-phenylethyl)-N-[4-(1-methyl-1-phenylethyl)phenyl]aniline", "RDZ", "4,4\u2032-Bis(dimethylbenzyl)diphenylamine", "Naugalube AMS", "Dusantox CDPA-HP", "4,4\u2032-Bis(1,1-dimethylbenzyl)diphenylamine", "Luvomaxx CDPA", "N,N-Bis[4-(2-phenylpropan-2-yl)phenyl]amine", "KY 445", "NA 445", "MC 445", "N 445", "Naugard N 445", "ZM 405", "4-(1-Methylphenylethyl)-N-[4-(1-methyl-1-phenylethyl)phenyl]benzenamine", "HS 911", "MBPA (antioxidant)", "MBPA", "Alchem MBPA", "Chinox N 445", "Rianox 445", "Antioxidant 405", "Okabest AO 445F", "Vanox CDPA", "AO 405 (antioxidant)", "AO 405"], "SMILES": "C(C)(C)(C1=CC=C(NC2=CC=C(C(C)(C)C3=CC=CC=C3)C=C2)C=C1)C4=CC=CC=C4", "physical_data": {"Molecular Weight": "405.57", "Molecular Formula": "C30H31N", "Melting Point": "99-100 \u00b0C"}}