{"cas_no": "10097-09-3", "cn_name": "N,N\u2019\u2019-(\u4e9a\u7532\u57fa\u4e8c-4,1-\u4e9a\u82ef\u57fa)\u4e8c(N\u2019,N\u2019-\u4e8c\u7532\u57fa\u8132)", "en_name": ["N,N\u2032\u2032-(Methylenedi-4,1-phenylene)bis[N\u2032,N\u2032-dimethylurea]", "Urea, N,N\u2032\u2032-(methylenedi-4,1-phenylene)bis[N\u2032,N\u2032-dimethyl-", "Urea, 1,1\u2032-(methylenedi-p-phenylene)bis[3,3-dimethyl-", "N,N\u2032\u2032-(Methylenedi-4,1-phenylene)bis[N\u2032,N\u2032-dimethylurea]", "Bis[4-(N,N-dimethylureido)phenyl]methane", "Bis[p-(N,N-dimethylurea)phenyl]methane", "4,4\u2032-Bis(N,N-dimethylureido)diphenylmethane", "Bis[4-(dimethylaminocarbonylamino)phenyl]methane", "4,4\u2032-Methylenediphenylene bis(dimethylurea)", "4,4\u2032-Methylenebis(phenyldimethylurea)", "Omicure 52", "Omicure U 52", "NSC 202633", "3-[4-[[4-(Dimethylcarbamoylamino)phenyl]methyl]phenyl]-1,1-dimethylurea", "U 52M", "Omicure U 52M", "1,1\u2032-(Methylenedi-p-phenylene)bis(3,3-dimethylurea)", "U 415M", "Omicure U 415M", "Technicure MDU 11", "Dyhard UR 700", "UR 700", "U 52", "UA 23", "1,1\u2032-(Methylenedi-p-phenylene)bis(3,3-dimethylurea)"], "SMILES": "C(C1=CC=C(NC(N(C)C)=O)C=C1)C2=CC=C(NC(N(C)C)=O)C=C2", "physical_data": {"Molecular Weight": "340.42", "Molecular Formula": "C19H24N4O2", "Melting Point": "345 \u00b0C"}}