{"cas_no": "100986-89-8", "cn_name": "\u5de6\u65cb\u6c27\u6c1f\u6c99\u661f\u7fa7\u9178", "en_name": ["Levofloxacin Q-acid", "7H-Pyrido[1,2,3-de]-1,4-benzoxazine-6-carboxylic acid, 9,10-difluoro-2,3-dihydro-3-methyl-7-oxo-, (3S)-", "7H-Pyrido[1,2,3-de]-1,4-benzoxazine-6-carboxylic acid, 9,10-difluoro-2,3-dihydro-3-methyl-7-oxo-, (S)-", "(3S)-9,10-Difluoro-2,3-dihydro-3-methyl-7-oxo-7H-pyrido[1,2,3-de]-1,4-benzoxazine-6-carboxylic acid", "9,10-Difluoro-3-(S)-methyl-7-oxo-2,3-dihydro-7H-pyrido[1,2,3-de]-1,4-benzoxazine-6-carboxylic acid", "Levofloxacin Q-acid", "(S)-(-)-9,10-Difluoro-2,3-dihydro-3-methyl-7-oxo-7H-pyrido[1,2,3-de][1,4]benzoxazine-6-carboxylic acid", "(S)-9,10-Difluoro-3-methyl-7-oxo-3,7-dihydro-2H-[1,4]oxazino[2,3,4-ij]quinoline-6-carboxylic acid", "(S)-9,10-Difluoro-3-methyl-7-oxo-2,3-dihydro-7H-[1,4]oxazino[2,3,4-ij]quinoline-6-carboxylic acid"], "SMILES": "O=C1C=2C=3N(C=C1C(O)=O)C(C)COC3C(F)=C(F)C2", "physical_data": {"Molecular Weight": "281.21", "Molecular Formula": "C13H9F2NO4", "Melting Point": "&gt;280 \u00b0C (decomp)"}}