{"cas_no": "1009-36-5", "cn_name": "2-\u6c2f-5-\u785d\u57fa\u8334\u9999\u919a", "en_name": ["1-Chloro-2-methoxy-4-nitrobenzene", "Benzene, 1-chloro-2-methoxy-4-nitro-", "Anisole, 2-chloro-5-nitro-", "1-Chloro-2-methoxy-4-nitrobenzene", "2-Chloro-5-nitroanisole", "2-Methoxy-4-nitrochlorobenzene", "4-Chloro-3-methoxynitrobenzene", "2-Methoxy-4-nitro-1-chlorobenzene"], "SMILES": "O(C)C1=CC(N(=O)=O)=CC=C1Cl", "physical_data": {"Molecular Weight": "187.58", "Molecular Formula": "C7H6ClNO3", "Melting Point": "82.5 \u00b0C"}}