{"cas_no": "10097-02-6", "cn_name": "2,2-\u4e8c\u7f9f\u7532\u57fa\u4e01\u9178", "en_name": ["2,2-Bis(hydroxymethyl)butanoic acid", "Butanoic acid, 2,2-bis(hydroxymethyl)-", "Butyric acid, 2,2-bis(hydroxymethyl)-", "2,2-Bis(hydroxymethyl)butanoic acid", "2,2-Bis(hydroxymethyl)butyric acid", "2,2-Dimethylolbutyric acid", "2,2-Dimethylolbutanoic acid", "\u03b1,\u03b1-Dimethylolbutanoic acid", "Nikkamer BA", "2,2-Bis(methylol)butanoic acid", "DMBA", "Dimethylolbutyric acid", "Dimethylolbutanoic acid", "Bis(hydroxymethyl)butanoic acid"], "SMILES": "C(C(O)=O)(CC)(CO)CO", "physical_data": {"Molecular Weight": "148.16", "Molecular Formula": "C6H12O4", "Melting Point": "100-102 \u00b0C"}}