{"cas_no": "100905-33-7", "cn_name": "4,5-\u4e8c\u7532\u6c27\u57fa-2-\u785d\u57fa\u82ef\u7532\u9178\u4e59\u916f", "en_name": ["Benzoic acid, 4,5-dimethoxy-2-nitro-, ethyl ester", "Benzoic acid, 4,5-dimethoxy-2-nitro-, ethyl ester", "Ethyl 4,5-dimethoxy-2-nitrobenzoate"], "SMILES": "C(OCC)(=O)C1=C(N(=O)=O)C=C(OC)C(OC)=C1", "physical_data": {"Molecular Weight": "255.22", "Molecular Formula": "C11H13NO6", "Melting Point": "99.5 \u00b0C"}}