{"cas_no": "10099-58-8", "cn_name": "\u6c2f\u5316\u9567", "en_name": ["Lanthanum chloride (LaCl3)", "Lanthanum chloride (LaCl3)", "Lanthanum trichloride", "Lanthanum chloride", "Lanthanum chloride (La2Cl6)", "Lanthanum(III) chloride"], "SMILES": "[La](Cl)(Cl)Cl", "physical_data": {"Molecular Weight": "", "Molecular Formula": "Cl3La", "Melting Point": "860 \u00b0C"}}