{"cas_no": "10097-84-4", "cn_name": "\u7f57\u901a\u5b9a", "en_name": ["(\u00b1)-Tetrahydropalmatine", "6H-Dibenzo[a,g]quinolizine, 5,8,13,13a-tetrahydro-2,3,9,10-tetramethoxy-", "Berbine, 2,3,9,10-tetramethoxy-, (\u00b1)-", "6H-Dibenzo[a,g]quinolizine, 5,8,13,13a-tetrahydro-2,3,9,10-tetramethoxy-, (\u00b1)-", "DL-Berbine, 2,3,9,10-tetramethoxy-", "5,8,13,13a-Tetrahydro-2,3,9,10-tetramethoxy-6H-dibenzo[a,g]quinolizine", "dl-Tetrahydropalmatine", "(\u00b1)-Tetrahydropalmatine", "DL-Tetrahydropalmatine", "(\u00b1)-Corydalis B", "(R,S)-Tetrahydropalmatine", "Tetrahydropalmatine", "THP", "2,3,9,10-Tetramethoxy-6,8,13,13a-tetrahydro-5H-isoquinolino[2,1-b]isoquinoline", "2,3,9,10-Tetramethoxy-5,8,13,13a-tetrahydro-6H-isoquino[3,2-a]isoquinoline"], "SMILES": "O(C)C=1C=C2C3N(CC=4C(C3)=CC=C(OC)C4OC)CCC2=CC1OC", "physical_data": {"Molecular Weight": "355.43", "Molecular Formula": "C21H25NO4", "Melting Point": "145 \u00b0C"}}