{"cas_no": "100986-85-4", "cn_name": "\u5de6\u6c27\u6c1f\u6c99\u661f", "en_name": ["Levofloxacin", "7H-Pyrido[1,2,3-de]-1,4-benzoxazine-6-carboxylic acid, 9-fluoro-2,3-dihydro-3-methyl-10-(4-methyl-1-piperazinyl)-7-oxo-, (3S)-", "7H-Pyrido[1,2,3-de]-1,4-benzoxazine-6-carboxylic acid, 9-fluoro-2,3-dihydro-3-methyl-10-(4-methyl-1-piperazinyl)-7-oxo-, (S)-", "(3S)-9-Fluoro-2,3-dihydro-3-methyl-10-(4-methyl-1-piperazinyl)-7-oxo-7H-pyrido[1,2,3-de]-1,4-benzoxazine-6-carboxylic acid", "(-)-Ofloxacin", "(S)-Ofloxacin", "DR 3355", "(S)-(-)-Ofloxacin", "Levofloxacin", "HR 355", "RWJ 25213-097", "Tavanic", "Levaquin", "Cravit", "Quixin", "Oftaquix", "Loxof", "MP 376", "Unibiotic", "Venaxan", "Levoflox", "Lexoflon", "Iquix", "Quinsair", "MMV687798", "MMV 687798", "MeSH ID: D064704"], "SMILES": "O=C1C=2C3=C(C(=C(F)C2)N4CCN(C)CC4)OCC(C)N3C=C1C(O)=O", "physical_data": {"Molecular Weight": "361.37", "Molecular Formula": "C18H20FN3O4", "Melting Point": "225-227 \u00b0C (decomp)"}}