{"cas_no": "1009-62-7", "cn_name": "2,2-\u4e8c\u7532\u57fa-3-\u82ef\u4e19\u919b", "en_name": ["\u03b1,\u03b1-Dimethylbenzenepropanal", "Benzenepropanal, \u03b1,\u03b1-dimethyl-", "Hydrocinnamaldehyde, \u03b1,\u03b1-dimethyl-", "\u03b1,\u03b1-Dimethylbenzenepropanal", "2,2-Dimethyl-3-phenylpropionaldehyde", "2,2-Dimethyl-3-phenylpropanal", "2,2-Dimethyl-3-phenyl-1-propanal"], "SMILES": "C(C(C=O)(C)C)C1=CC=CC=C1", "physical_data": {"Molecular Weight": "162.23", "Molecular Formula": "C11H14O", "Boiling Point": "112-113 \u00b0C @ Press: 13 Torr", "Melting Point": "131 \u00b0C"}}