{"cas_no": "1009-93-4", "cn_name": "\u516d\u7532\u57fa\u73af\u4e09\u7845\u6c2e\u70f7", "en_name": ["1,1,3,3,5,5-Hexamethylcyclotrisilazane", "Cyclotrisilazane, 2,2,4,4,6,6-hexamethyl-", "2,2,4,4,6,6-Hexamethylcyclotrisilazane", "1,1,3,3,5,5-Hexamethylcyclotrisilazane", "HMCTS", "NSC 139842", "2,2,4,4,6,6-Hexamethyl-1,3,5,2,4,6-triazatrisilinane"], "SMILES": "C[Si]1(C)N[Si](C)(C)N[Si](C)(C)N1", "physical_data": {"Molecular Weight": "219.51", "Molecular Formula": "C6H21N3Si3", "Boiling Point": "188 \u00b0C", "Melting Point": "-10 \u00b0C", "Density": "0.921 g/cm\u00b3"}}