{"cas_no": "10094-45-8", "cn_name": "\u786c\u8102\u57fa\u82a5\u9170\u80fa", "en_name": ["Stearyl erucamide", "13-Docosenamide, N-octadecyl-, (13Z)-", "13-Docosenamide, N-octadecyl-, (Z)-", "(13Z)-N-Octadecyl-13-docosenamide", "Stearyl erucamide", "N-Stearylerucamide", "Kemamide E 180", "Nikka Amide SE", "SNT 40", "HTSA 3", "(Z)-N-Octadecyl-13-docosenamide", "SNT", "N-Stearyl-(13Z)-13-docosenamide", "Lutamide S 98", "KER 6", "Neutron SNT", "SNT-P", "Crodamide 212", "N-Octadecylerucamide", "(Z)-N-Octadecyldocos-13-enamide", "Finawax-SE", "WK 1558"], "SMILES": "C(C(NCCCCCCCCCCCCCCCCCC)=O)CCCCCCCCCCC=CCCCCCCCC", "physical_data": {"Molecular Weight": "590.06", "Molecular Formula": "C40H79NO", "Melting Point": "70 \u00b0C"}}