{"cas_no": "10097-28-6", "cn_name": "\u4e00\u6c27\u5316\u7845", "en_name": ["Silicon oxide (SiO)", "Silylene, oxo-", "Silicon oxide (OSi)", "Oxosilylene", "Silicon monoxide", "Silicon oxide (SiO)", "Silicon monooxide"], "SMILES": "O=[Si]", "physical_data": {"Molecular Weight": "", "Molecular Formula": "OSi", "Melting Point": "1880 \u00b0C", "Density": "2.130 g/cm\u00b3"}}