{"cas_no": "1009-22-9", "cn_name": "2'-\u6eb4-4'-\u6c1f\u4e59\u9170\u82ef\u80fa", "en_name": ["N-(2-Bromo-4-fluorophenyl)acetamide", "Acetamide, N-(2-bromo-4-fluorophenyl)-", "Acetanilide, 2\u2032-bromo-4\u2032-fluoro-", "N-(2-Bromo-4-fluorophenyl)acetamide", "N-2-Bromo-4-fluorophenylacetamide", "2\u2032-Bromo-4\u2032-fluoroacetanilide", "2-Bromo-4-fluoroacetanilide"], "SMILES": "N(C(C)=O)C1=C(Br)C=C(F)C=C1", "physical_data": {"Molecular Weight": "232.05", "Molecular Formula": "C8H7BrFNO", "Melting Point": "119-120 \u00b0C"}}