{"cas_no": "1009-61-6", "cn_name": "1,4-\u4e8c\u4e59\u9170\u82ef", "en_name": ["1,4-Diacetylbenzene", "Ethanone, 1,1\u2032-(1,4-phenylene)bis-", "Benzene, p-diacetyl-", "1,1\u2032-(1,4-Phenylene)bis[ethanone]", "p-Diacetylbenzene", "1,4-Diacetylbenzene", "p-Acetylacetophenone", "4\u2032-Acetylacetophenone", "NSC 295548", "1,1\u2032-(1,4-Phenylene)bis(ethan-1-one)", "1,1\u2032-(1,4-Phenylene)diethanone", "1-(4-Acetylphenyl)ethanone", "1-(4-Acetylphenyl)ethan-1-one"], "SMILES": "C(C)(=O)C1=CC=C(C(C)=O)C=C1", "physical_data": {"Molecular Weight": "162.19", "Molecular Formula": "C10H10O2", "Boiling Point": "115-120 \u00b0C @ Press: 2 Torr", "Melting Point": "111-113 \u00b0C"}}