{"cas_no": "10099-66-8", "cn_name": "\u6c2f\u5316\u9565", "en_name": ["Lutetium trichloride", "Lutetium chloride (LuCl3)", "Lutetium chloride (Lu2Cl6)", "Lutetium chloride", "Lutetium(III) chloride", "Lutetium trichloride", "NSC 132042"], "SMILES": "[Lu](Cl)(Cl)Cl", "physical_data": {"Molecular Weight": "", "Molecular Formula": "Cl3Lu", "Boiling Point": "1422 \u00b0C"}}