{"cas_no": "100959-22-6", "cn_name": "2-\u6eb4-4-\u785d\u57fa\u82ef\u7532\u9178\u7532\u916f", "en_name": ["Methyl 2-bromo-4-nitrobenzoate", "Benzoic acid, 2-bromo-4-nitro-, methyl ester", "Methyl 2-bromo-4-nitrobenzoate", "2-Bromo-4-nitro-benzoic acid methyl ester"], "SMILES": "C(OC)(=O)C1=C(Br)C=C(N(=O)=O)C=C1", "physical_data": {"Molecular Weight": "260.04", "Molecular Formula": "C8H6BrNO4", "Melting Point": "82-85 \u00b0C"}}