{"cas_no": "100986-86-5", "cn_name": "R-9-\u6c1f-2,3-\u4e8c\u6c22-3-\u7532\u57fa-10-(4-\u7532\u57fa-1-\u54cc\u55ea\u57fa)-7-\u6c27\u4ee3-7H-\u5421\u5576\u5e76[1,2,3-DE]-[1,4]\u82ef\u5e76\u5641\u55ea-6-\u7fa7\u9178", "en_name": ["(+)-Ofloxacin", "7H-Pyrido[1,2,3-de]-1,4-benzoxazine-6-carboxylic acid, 9-fluoro-2,3-dihydro-3-methyl-10-(4-methyl-1-piperazinyl)-7-oxo-, (3R)-", "7H-Pyrido[1,2,3-de]-1,4-benzoxazine-6-carboxylic acid, 9-fluoro-2,3-dihydro-3-methyl-10-(4-methyl-1-piperazinyl)-7-oxo-, (R)-", "(3R)-9-Fluoro-2,3-dihydro-3-methyl-10-(4-methyl-1-piperazinyl)-7-oxo-7H-pyrido[1,2,3-de]-1,4-benzoxazine-6-carboxylic acid", "(+)-Ofloxacin", "(R)-Ofloxacin", "DR 3354", "(R)-(+)-Ofloxacin", "D-Ofloxacin", "d-Levofloxacin", "R-Ofloxacin", "Dextrofloxacin", "(R)-9-Fluoro-3-methyl-10-(4-methylpiperazin-1-yl)-7-oxo-3,7-dihydro-2H-[1,4]oxazino[2,3,4-ij]quinoline-6-carboxylic acid"], "SMILES": "O=C1C=2C3=C(C(=C(F)C2)N4CCN(C)CC4)OCC(C)N3C=C1C(O)=O", "physical_data": {"Molecular Weight": "361.37", "Molecular Formula": "C18H20FN3O4", "Melting Point": "185 \u00b0C"}}