{"cas_no": "1009-11-6", "cn_name": "4'-\u7f9f\u57fa\u82ef\u4e01\u916e", "en_name": ["4\u2032-Hydroxybutyrophenone", "1-Butanone, 1-(4-hydroxyphenyl)-", "Butyrophenone, 4\u2032-hydroxy-", "1-(4-Hydroxyphenyl)-1-butanone", "p-Butyrylphenol", "4-Butyrylphenol", "p-Hydroxybutyrophenone", "4-Butanoylphenol", "NSC 17548", "1-(4-Hydroxyphenyl)butan-1-one", "4\u2032-Hydroxybutyrophenone", "1-(p-Hydroxyphenyl)-1-butanone"], "SMILES": "C(CCC)(=O)C1=CC=C(O)C=C1", "physical_data": {"Molecular Weight": "164.20", "Molecular Formula": "C10H12O2", "Boiling Point": "200 \u00b0C @ Press: 15 Torr", "Melting Point": "91 \u00b0C", "Density": "1.0435 g/cm\u00b3 @ Temp: 24 \u00b0C"}}