{"cas_no": "10099-74-8", "cn_name": "\u785d\u9178\u94c5", "en_name": ["Lead nitrate", "Nitric acid, lead(2+) salt (2:1)", "Nitric acid, lead(2+) salt", "Lead nitrate (Pb(NO3)2)", "Lead nitrate", "Lead(II) nitrate", "Lead dinitrate", "Lead(II) dinitrate", "Lead(2+) nitrate", "Plumbous nitrate", "Lead(2+) bis(nitrate)"], "SMILES": "N(=O)(=O)O.[Pb]", "physical_data": {"Molecular Weight": "", "Molecular Formula": "HNO3.<sup>1</sup>/2Pb", "Melting Point": "470 \u00b0C", "Density": "4.53 g/cm\u00b3"}}