{"cas_no": "10094-36-7", "cn_name": "\u73af\u5df1\u57fa\u4e19\u9178\u4e59\u916f", "en_name": ["Ethyl cyclohexanepropionate", "Cyclohexanepropanoic acid, ethyl ester", "Cyclohexanepropionic acid, ethyl ester", "Ethyl cyclohexanepropionate", "Ethyl cyclohexylpropanoate", "Ethyl 3-cyclohexylpropionate", "Ethyl 3-cyclohexylpropanoate", "3-Cyclohexylpropionic acid ethyl ester", "NSC 71463", "Ethyl 3-cyclohexanepropionate"], "SMILES": "C(CC(OCC)=O)C1CCCCC1", "physical_data": {"Molecular Weight": "184.28", "Molecular Formula": "C11H20O2", "Boiling Point": "105-113 \u00b0C @ Press: 17 Torr"}}