{"cas_no": "100981-43-9", "cn_name": "\u4e59\u6eb4\u66ff\u4e01", "en_name": ["Ebrotidine", "Benzenesulfonamide, N-[[[2-[[[2-[(aminoiminomethyl)amino]-4-thiazolyl]methyl]thio]ethyl]amino]methylene]-4-bromo-, [N(E)]-", "Benzenesulfonamide, N-[[[2-[[[2-[(aminoiminomethyl)amino]-4-thiazolyl]methyl]thio]ethyl]amino]methylene]-4-bromo-, (E)-", "[N(E)]-N-[[[2-[[[2-[(Aminoiminomethyl)amino]-4-thiazolyl]methyl]thio]ethyl]amino]methylene]-4-bromobenzenesulfonamide", "Ebrotidine", "FI 3542", "Ulsanic", "Ebrodin"], "SMILES": "C(SCCNC=NS(=O)(=O)C1=CC=C(Br)C=C1)C=2N=C(NC(=N)N)SC2", "physical_data": {"Molecular Weight": "477.42", "Molecular Formula": "C14H17BrN6O2S3", "Melting Point": "142.5-146 \u00b0C"}}