{"cas_no": "10090-05-8", "cn_name": "\u4e09\u7532\u57fa\u7845\u57fa\u7532\u70f7\u78fa\u9178\u916f", "en_name": ["Trimethylsilyl methanesulfonate", "Silanol, 1,1,1-trimethyl-, 1-methanesulfonate", "Silanol, trimethyl-, methanesulfonate", "Trimethylsilyl methanesulfonate", "Trimethylsilyl mesylate", "Trimethylsilyl methylsulfonate", "Methanesulfonic acid trimethylsilyl ester"], "SMILES": "O(S(C)(=O)=O)[Si](C)(C)C", "physical_data": {"Molecular Weight": "168.29", "Molecular Formula": "C4H12O3SSi", "Boiling Point": "103-104 \u00b0C @ Press: 25 Torr", "Density": "0.826 g/cm\u00b3"}}