{"cas_no": "1009-14-9", "cn_name": "\u82ef\u620a\u916e", "en_name": ["Valerophenone", "1-Pentanone, 1-phenyl-", "Valerophenone", "1-Phenyl-1-pentanone", "Butyl phenyl ketone", "Phenyl butyl ketone", "Pentanophenone", "n-Butyl phenyl ketone", "n-Valerophenone", "NSC 58959"], "SMILES": "C(CCCC)(=O)C1=CC=CC=C1", "physical_data": {"Molecular Weight": "162.23", "Molecular Formula": "C11H14O", "Boiling Point": "245 \u00b0C", "Melting Point": "-9.4 \u00b0C", "Density": "0.988 g/cm\u00b3 @ Temp: 20 \u00b0C"}}