{"cas_no": "101-49-5", "cn_name": "\u82ef\u4e59\u919b-\u4e59\u4e8c\u9187\u7f29\u919b", "en_name": ["2-Benzyl-1,3-dioxolane", "1,3-Dioxolane, 2-(phenylmethyl)-", "1,3-Dioxolane, 2-benzyl-", "2-(Phenylmethyl)-1,3-dioxolane", "2-Benzyl-1,3-dioxolane", "Phenylacetaldehyde ethylene acetal", "2-Benzyldioxolane", "Phenylacetaldehyde ethylene glycol acetal", "NSC 25480", "Phenylacetaldehyde glycol acetal"], "SMILES": "C(C1=CC=CC=C1)C2OCCO2", "physical_data": {"Molecular Weight": "164.20", "Molecular Formula": "C10H12O2", "Boiling Point": "98-99 \u00b0C @ Press: 1 Torr", "Density": "1.087 g/cm\u00b3 @ Temp: 20 \u00b0C"}}