{"cas_no": "101-05-3", "cn_name": "\u654c\u83cc\u7075", "en_name": ["Triazin", "1,3,5-Triazin-2-amine, 4,6-dichloro-N-(2-chlorophenyl)-", "s-Triazine, 2,4-dichloro-6-(o-chloroanilino)-", "4,6-Dichloro-N-(2-chlorophenyl)-1,3,5-triazin-2-amine", "B 622", "2,4-Dichloro-6-o-chloranilino-s-triazine", "2,4-Dichloro-6-(o-chloroanilino)-s-triazine", "2,4-Dichloro-6-(2-chloroanilino)-1,3,5-triazine", "Kemate", "Dyrene", "2,4-Dichloro-6-(2-chloranilino)-s-triazine", "Dyrene 50W", "Triazin", "2-(o-Chloroanilino)-4,6-dichloro-1,3,5-triazine", "Anilazine", "2,4-Dichloro-6-(o-chloroanilino)-1,3,5-triazine", "2-(2-Chloroanilino)-4,6-dichloro-s-triazine", "2-(2\u2032-Chloroanilino)-4,6-dichloro-s-triazine", "Triazine (pesticide)", "Triazine", "Anilazin", "Bortrysan", "Zinochlor", "2,4-Dichloro-6-(o-chlorophenyl)amino-s-triazine", "Aniyaline", "Dyrene Flussig", "NSC 3851"], "SMILES": "N(C=1N=C(Cl)N=C(Cl)N1)C2=C(Cl)C=CC=C2", "physical_data": {"Molecular Weight": "275.52", "Molecular Formula": "C9H5Cl3N4", "Melting Point": "159-160 \u00b0C", "Density": "1.8 g/cm\u00b3 @ Temp: 20 \u00b0C"}}