{"cas_no": "101-38-2", "cn_name": "2,6-\u4e8c\u6c2f\u918c-4-\u6c2f\u4e9a\u80fa", "en_name": ["2,6-Dichloroquinone-4-chloroimide", "2,5-Cyclohexadien-1-one, 2,6-dichloro-4-(chloroimino)-", "p-Benzoquinone imine, N,2,6-trichloro-", "2,6-Dichloro-4-(chloroimino)-2,5-cyclohexadien-1-one", "Gibbs' reagent", "2,6-Dichloroquinone-4-chloroimide", "N,2,6-Trichlorobenzoquinone imine", "2,6-Dichloroquinone chloroimide", "2,6-Dichloroquinone-4-chloroimine", "2,6-Dichloro-4-N-chloroquinonimine", "N,2,6-Trichloro-p-benzoquinoneimine", "2,6-Dichlorobenzoquinone chloroimide", "N,2,6-Trichloro-p-benzoquinonimine", "2,6-Dichloroquinonechloroimine", "Named reagents and solutions, Gibbs'", "2,6-Dichloroquinone chlorimide", "2,6-Dichloro-p-benzoquinone-4-chlorimide", "2,6-Dichlorobenzoquinone-4-chloroimine", "2,6-Dichlorobenzoquinone N-chloroimine", "NSC 6293", "2,6-Dichloro-4-(chloroimino)cyclohexa-2,5-dienone"], "SMILES": "N(Cl)=C1C=C(Cl)C(=O)C(Cl)=C1", "physical_data": {"Molecular Weight": "210.45", "Molecular Formula": "C6H2Cl3NO", "Melting Point": "66 \u00b0C"}}