{"cas_no": "101-61-1", "cn_name": "4,4'-(\u5bf9\u4e8c\u7532\u6c28\u57fa)\u4e8c\u82ef\u57fa\u7532\u70f7", "en_name": ["Tetramethyldiaminodiphenylmethane", "Benzenamine, 4,4\u2032-methylenebis[N,N-dimethyl-", "Aniline, 4,4\u2032-methylenebis[N,N-dimethyl-", "Aniline, p,p\u2032-methylenebis[N,N-dimethyl-", "4,4\u2032-Methylenebis[N,N-dimethylbenzenamine]", "p,p\u2032-Bis(dimethylamino)diphenylmethane", "Bis[p-(N,N-dimethylamino)phenyl]methane", "Michler's Base", "Michler's hydride", "Michler's methane", "Tetrabase", "4,4\u2032-Bis(dimethylamino)diphenylmethane", "N,N,N\u2032,N\u2032-Tetramethyl-p,p\u2032-diaminodiphenylmethane", "p,p\u2032-Tetramethyldiaminodiphenylmethane", "Bis[4-(N,N-dimethylamino)phenyl]methane", "Bis[4-(dimethylamino)phenyl]methane", "Bis[p-(dimethylamino)phenyl]methane", "N,N,N\u2032,N\u2032-Tetramethyl-4,4\u2032-diaminodiphenylmethane", "4,4\u2032-Tetramethyldiaminodiphenylmethane", "4,4\u2032-(Dimethylamino)diphenylmethane", "Tetramethyldiaminodiphenylmethane", "4,4\u2032-Methylenebis[N,N-dimethylaniline]", "Arnold's base", "Reduced Michler's ketone", "4,4\u2032-Bis(dimethylaminophenyl)methane", "NSC 36782", "NSC 4892", "NSC 9029", "N,N,N\u2032,N-Tetramethyl-4,4\u2032-methylenedianiline", "Bis(N,N-Dimethylaminophenyl)methane"], "SMILES": "C(C1=CC=C(N(C)C)C=C1)C2=CC=C(N(C)C)C=C2", "physical_data": {"Molecular Weight": "254.37", "Molecular Formula": "C17H22N2", "Boiling Point": "155-157 \u00b0C @ Press: 0.1 Torr", "Melting Point": "90-91 \u00b0C"}}