{"cas_no": "101-64-4", "cn_name": "\u53d8\u80fa\u84dd\u76d0B", "en_name": ["N1-(4-Methoxyphenyl)-1,4-benzenediamine", "1,4-Benzenediamine, N1-(4-methoxyphenyl)-", "p-Phenylenediamine, N-(p-methoxyphenyl)-", "1,4-Benzenediamine, N-(4-methoxyphenyl)-", "N1-(4-Methoxyphenyl)-1,4-benzenediamine", "4-Amino-4\u2032-methoxydiphenylamine", "Fast Blue VB Base", "4-Methoxy-4\u2032-aminodiphenylamine", "N-(p-Methoxyphenyl)-p-phenylenediamine", "Naphthoelan Fast Blue BT", "Variamine Blue B", "Variamine Blue B Base", "Diazol Blue O", "Variamine Blue base", "p-Amino-p\u2032-methoxydiphenylamine", "N-(4-Methoxyphenyl)-1,4-phenylenediamine", "4\u2032-Amino-4-methoxydiphenylamine", "Variamine Blue free base", "N-(4-Aminophenyl)-N-(4-methoxyphenyl)amine", "N-(4-Aminophenyl)-p-anisidine", "4-(4-Methoxyphenylamino)aniline", "N-(4-Methoxyphenyl)benzene-1,4-diamine", "1-N-(4-Methoxyphenyl)benzene-1,4-diamine"], "SMILES": "N(C1=CC=C(OC)C=C1)C2=CC=C(N)C=C2", "physical_data": {"Molecular Weight": "214.26", "Molecular Formula": "C13H14N2O", "Boiling Point": "238 \u00b0C", "Melting Point": "102 \u00b0C"}}