{"cas_no": "101-16-6", "cn_name": "3-\u7532\u6c27\u57fa\u4e8c\u82ef\u80fa", "en_name": ["3-Methoxydiphenylamine", "Benzenamine, 3-methoxy-N-phenyl-", "m-Anisidine, N-phenyl-", "3-Methoxy-N-phenylbenzenamine", "N-Phenyl-m-anisidine", "3-Methoxydiphenylamine", "m-Methoxydiphenylamine", "N-(m-Methoxyphenyl)aniline", "N-(3-Methoxyphenyl)-N-phenylamine", "3-Methoxy-N-phenylaniline"], "SMILES": "N(C1=CC(OC)=CC=C1)C2=CC=CC=C2", "physical_data": {"Molecular Weight": "199.25", "Molecular Formula": "C13H13NO", "Boiling Point": "136-138 \u00b0C @ Press: 0.07 Torr", "Melting Point": "73 \u00b0C"}}