{"cas_no": "101-41-7", "cn_name": "\u82ef\u4e59\u9178\u7532\u916f", "en_name": ["Methyl phenylacetate", "Benzeneacetic acid, methyl ester", "Acetic acid, phenyl-, methyl ester", "Methyl phenylacetate", "Methyl \u03b1-toluate", "Phenylacetic acid methyl ester", "Methyl benzeneacetate", "Methyl benzeneethanoate", "Methyl phenylethanoate", "Methyl \u03b1-phenylacetate", "2-Methoxy-1-phenyl-2-oxoethane", "NSC 401667", "NSC 9405"], "SMILES": "C(C(OC)=O)C1=CC=CC=C1", "physical_data": {"Molecular Weight": "150.17", "Molecular Formula": "C9H10O2", "Boiling Point": "216.5 \u00b0C", "Melting Point": "107-115 \u00b0C", "Density": "0.9896 g/cm\u00b3 @ Temp: 14 \u00b0C"}}