{"cas_no": "101-68-8", "cn_name": "4,4'-\u4e9a\u7532\u57fa\u53cc(\u5f02\u6c30\u9178\u82ef\u916f)", "en_name": ["Diphenylmethane diisocyanate", "Benzene, 1,1\u2032-methylenebis[4-isocyanato-", "Isocyanic acid, methylenedi-p-phenylene ester", "1,1\u2032-Methylenebis[4-isocyanatobenzene]", "Bis(4-isocyanatophenyl)methane", "Diphenylmethane 4,4\u2032-diisocyanate", "Methylenebis(4-isocyanatobenzene)", "Bis(p-isocyanatophenyl)methane", "p,p\u2032-Methylenebis(phenyl isocyanate)", "4,4\u2032-Methylenebis(phenyl isocyanate)", "Methylenebis(4-phenyl isocyanate)", "Diphenylmethylene 4,4\u2032-diisocyanate", "Methylenedi-p-phenylene diisocyanate", "Methylenedi-p-phenylene isocyanate", "4,4\u2032-Methylenediphenyl diisocyanate", "4,4\u2032-Diisocyanatodiphenylmethane", "Methylenebis(p-phenylene isocyanate)", "Methylbis(4-phenylisocyanate)", "4,4\u2032-Methylenediphenylene isocyanate", "Methylenebis(4-phenylene isocyanate)", "Methylenebis(p-phenyl isocyanate)", "Bis(1,4-isocyanatophenyl)methane", "MDI", "Methylenebis-p-phenylene diisocyanate", "Methyldi-p-phenylene isocyanate", "4,4\u2032-Diphenylmethane diisocyanate", "p,p\u2032-Diphenylmethane diisocyanate", "4,4\u2032-Methylenedi-p-phenylene diisocyanate", "Diisocyanatodiphenylmethane", "Methylenebis(phenyl isocyanate)", "Diphenylmethane diisocyanate", "Di(4-isocyanatophenyl)methane", "4,4\u2032-Methylenebis(isocyanatobenzene)", "Methylenebisphenylene diisocyanate", "4,4\u2032-MDI", "Isocyanic acid, diphenylmethylene ester", "Diphenylmethylene diisocyanate", "4,4\u2032-Methylenedi(phenyl isocyanate)", "4,4\u2032-Bis(isocyanatophenyl)methane", "Methylene diphenyl diisocyanate", "NSC 9596", "Diphenylmethyl diisocyanate", "Methylene diisocyanate", "Bis(isocyanatophenyl)methane", "Methylenediphenylisocyanate", "p,p\u2032-Methylenediphenyl diisocyanate", "4,4\u2032-Methylenebis(phenylisocyanate)", "MDI 80", "p,p\u2032-Methylene diphenyl diisocyanate", "1-Isocyanato-4-[(4-isocyanatophenyl)methyl]Benzene", "Huntsman 5005", "Sumidur 44S92", "8609E"], "SMILES": "C(C1=CC=C(N=C=O)C=C1)C2=CC=C(N=C=O)C=C2", "physical_data": {"Molecular Weight": "250.25", "Molecular Formula": "C15H10N2O2", "Boiling Point": "196 \u00b0C @ Press: 5 Torr", "Melting Point": "37 \u00b0C", "Density": "1.197 g/cm\u00b3 @ Temp: 70 \u00b0C"}}