{"cas_no": "101-75-7", "cn_name": "4-\u82ef\u5076\u6c2e\u4e8c\u82ef\u80fa", "en_name": ["4-(Phenylazo)diphenylamine", "Benzenamine, N-phenyl-4-(2-phenyldiazenyl)-", "Diphenylamine, 4-(phenylazo)-", "Benzenamine, N-phenyl-4-(phenylazo)-", "N-Phenyl-4-(2-phenyldiazenyl)benzenamine", "4-(Phenylazo)diphenylamine", "N-Phenyl-4-aminoazobenzene", "4-Anilinoazobenzene", "4-(Phenylamino)azobenzene", "4-Phenazodiphenylamine", "NSC 74774", "N-Phenyl-4-(phenylazo)benzenamine", "N-Phenyl-4-(phenylazo)aniline"], "SMILES": "N(C1=CC=C(N=NC2=CC=CC=C2)C=C1)C3=CC=CC=C3", "physical_data": {"Molecular Weight": "273.33", "Molecular Formula": "C18H15N3", "Melting Point": "80-81 \u00b0C"}}