{"cas_no": "101-87-1", "cn_name": "N-\u73af\u5df1\u57fa-N\u2019-\u82ef\u57fa\u5bf9\u82ef\u4e8c\u80fa", "en_name": ["N1-Cyclohexyl-N4-phenyl-1,4-benzenediamine", "1,4-Benzenediamine, N1-cyclohexyl-N4-phenyl-", "p-Phenylenediamine, N-cyclohexyl-N\u2032-phenyl-", "1,4-Benzenediamine, N-cyclohexyl-N\u2032-phenyl-", "N1-Cyclohexyl-N4-phenyl-1,4-benzenediamine", "N-Cyclohexyl-N\u2032-phenyl-p-phenylenediamine", "N-Phenyl-N\u2032-cyclohexyl-p-phenylenediamine", "Flexzone 6H", "4-(Cyclohexylamino)diphenylamine", "Antioxidant 4010", "NA 4020", "N-Cyclohexyl-N\u2032-phenyl-1,4-phenylenediamine", "Nocrac 810", "ASM 4010", "4020NA", "Santoflex CP", "Diafen FTs", "Vanax 6H", "N-Cyclohexyl-N\u2032-phenyl-1,4-benzenediamine", "N-Phenyl-N\u2032-cyclohexylparaphenylenediamine", "Antioxidant CPPD", "1-N-Cyclohexyl-4-N-phenylbenzene-1,4-diamine"], "SMILES": "N(C1=CC=C(NC2=CC=CC=C2)C=C1)C3CCCCC3", "physical_data": {"Molecular Weight": "266.38", "Molecular Formula": "C18H22N2", "Boiling Point": "185-190 \u00b0C @ Press: 0.01 Torr", "Melting Point": "118-119 \u00b0C"}}