{"cas_no": "101-39-3", "cn_name": "alpha-\u7532\u57fa\u8089\u6842\u919b", "en_name": ["\u03b1-Methylcinnamaldehyde", "2-Propenal, 2-methyl-3-phenyl-", "Cinnamaldehyde, \u03b1-methyl-", "2-Methyl-3-phenyl-2-propenal", "\u03b1-Methylcinnamaldehyde", "\u03b1-Methylcinnamic aldehyde", "2-Methyl-3-phenylacrolein", "2-Methyl-3-phenylacrylaldehyde", "NSC 22283", "NSC 49286", "2-Methylcinnamic aldehyde", "2-Methyl-3-phenylpropenal", "Methylcinnamaldehyde", "2-Methyl-3-phenyl-2-propen-1-al"], "SMILES": "C(=C(C=O)C)C1=CC=CC=C1", "physical_data": {"Molecular Weight": "146.19", "Molecular Formula": "C10H10O", "Boiling Point": "251.6 \u00b0C", "Density": "1.0538 g/cm\u00b3 @ Temp: 20 \u00b0C"}}