{"cas_no": "101-59-7", "cn_name": "4-\u6c28\u57fa-4'-\u785d\u57fa\u4e8c\u82ef\u786b\u919a", "en_name": ["4-[(4-Nitrophenyl)thio]benzenamine", "Benzenamine, 4-[(4-nitrophenyl)thio]-", "Aniline, p-[(p-nitrophenyl)thio]-", "Aniline, p-(p-nitrophenylmercapto)-", "4-[(4-Nitrophenyl)thio]benzenamine", "p-[(p-Nitrophenyl)thio]aniline", "4-Amino-4\u2032-nitrodiphenyl sulfide", "p-Aminophenyl p-nitrophenyl sulfide", "4-Nitro-4\u2032-aminophenyl sulfide", "4-Aminophenyl 4-nitrophenyl sulfide", "4\u2032-Nitro-4-aminodiphenyl sulfide", "4-(4-Nitrophenylthio)aniline", "NSC 23568", "4-(p-Nitrophenylthio)aniline", "BI 2A7", "4-[(4-Nitrophenyl)sulfanyl]aniline"], "SMILES": "S(C1=CC=C(N(=O)=O)C=C1)C2=CC=C(N)C=C2", "physical_data": {"Molecular Weight": "246.29", "Molecular Formula": "C12H10N2O2S", "Melting Point": "143 \u00b0C"}}