{"cas_no": "101-25-7", "cn_name": "\u53d1\u6ce1\u5242H", "en_name": ["Dinitrosopentamethylenetetramine", "1,3,5,7-Tetraazabicyclo[3.3.1]nonane, 3,7-dinitroso-", "3,7-Dinitroso-1,3,5,7-tetraazabicyclo[3.3.1]nonane", "Aceto DNPT 40", "Aceto DNPT 80", "Aceto DNPT 100", "3,7-Di-N-nitroso(pentamethylene)tetramine", "Dinitrosopentamethylenetetramine", "DNPT", "Opex", "Pentamethylenetetramine, dinitroso-", "Unicel ND", "Unicel NDX", "Vulcacel B 40", "Vulcacel BN", "N,N\u2032-Dinitrosopentamethylenetetramine", "Mikrofor N", "ChKhZ 18", "N,N-Dinitrosopentamethylenetetramine", "Dinitrosopentamethenetetramine", "Di-N-Nitrosopentamethylenetetramine", "1,5-Methylene-3,7-dinitroso-1,3,5,7-tetraazacyclooctane", "N1,N3-Dinitrosopentamethylenetetramine", "Micropor", "Dipentax", "Porofor DNO/F", "Opex 93", "Unicel 100", "Chempor N 90", "Chempor PC 65", "Vulcacel BN 94", "Cellmic A 80", "Cellmic A", "DNPMT", "PU 55", "Kempore N 90", "1,5-Endomethylene-3,7-dinitroso-1,3,5,7-tetraazacyclooctane", "Cellular D", "DNO/F", "Cellmic AN", "Cellular GX", "Chempor PC 55", "1,5-Methano-3,7-dinitroso-1,3,5,7-tetraazacyclooctane", "Porex F", "Cellular C", "Unicell GP 9", "GP 9", "NSC 73599", "Cellular L 85", "3,7-Dinitroso-1,3,5,7-tetrabicyclo[3.3.1]nonane", "PTs 55", "Cellular L 70", "Cellular GX-N", "DPT", "Foaming Agent H", "Foamer H", "Cellular Z-K", "Blowing Agent H", "KZ 110", "500A (blowing agent)", "500A"], "SMILES": "N(=O)N1CN2CN(N=O)CN(C2)C1", "physical_data": {"Molecular Weight": "186.17", "Molecular Formula": "C5H10N6O2", "Melting Point": "198 \u00b0C"}}