{"cas_no": "101-14-4", "cn_name": "4,4'-\u4e8c\u6c28\u57fa-3,3'-\u4e8c\u6c2f\u4e8c\u82ef\u7532\u70f7", "en_name": ["3,3\u2032-Dichloro-4,4\u2032-diaminodiphenylmethane", "Benzenamine, 4,4\u2032-methylenebis[2-chloro-", "Aniline, 4,4\u2032-methylenebis[2-chloro-", "4,4\u2032-Methylenebis[2-chlorobenzenamine]", "MOCA (curing agent)", "3,3\u2032-Dichloro-4,4\u2032-diaminodiphenylmethane", "Methylenebis(o-chloroaniline)", "Bis(3-chloro-4-aminophenyl)methane", "Methylenebis(3-chloro-4-aminobenzene)", "4,4\u2032-Methylenebis[2-chloroaniline]", "Quodorole", "Bis(4-amino-3-chlorophenyl)methane", "Diamet Kh", "MOCA", "Millionate M", "4,4\u2032-Methylenebis[o-chloroaniline]", "Cuamine MT", "MBOCA", "Bisamine S", "Curene 442", "4,4\u2032-Methylenebis(2-chloraniline)", "Diamet X", "Cuamine M", "SL 4037", "CPP 100", "Bisamine A", "2,2\u2032-Dichloro-4,4\u2032-methylenedianiline", "NSC 52954", "Ihara Cuamine MT", "Methylenebis(chloraniline)", "Kuralon", "Pandex E", "Pandex M 3202", "Isocross SM", "HR 100 (amine)", "HR 100", "DKh", "Vibracure A 133", "Vibracure 133", "Curalon M", "Cuamine K", "[4-(4-Amino-3-chlorobenzyl)-2-chlorophenyl]amine"], "SMILES": "C(C1=CC(Cl)=C(N)C=C1)C2=CC(Cl)=C(N)C=C2", "physical_data": {"Molecular Weight": "267.15", "Molecular Formula": "C13H12Cl2N2", "Boiling Point": "378.9 \u00b0C", "Melting Point": "110 \u00b0C", "Density": "1.44 g/cm\u00b3"}}