{"cas_no": "101-99-5", "cn_name": "N-\u4e8c\u82ef\u5c3f\u70f7", "en_name": ["Ethyl N-phenylcarbamate", "Carbamic acid, N-phenyl-, ethyl ester", "Carbanilic acid, ethyl ester", "Carbamic acid, phenyl-, ethyl ester", "Ethanol, carbanilate", "EPC", "Ethyl carbanilate", "Ethyl phenylcarbamate", "Euphorin", "Phenylurethan", "N-Phenylurethane", "Phenylurethane", "Ethyl N-phenylcarbamate", "Ethyl N-phenylurethan", "Ethyl N-phenylurethane", "N-(Ethoxycarbonyl)aniline", "N-Phenylcarbamic acid ethyl ester", "O-Ethyl N-phenylcarbamate", "NSC 3245", "N-Phenyl-O-ethyl carbamate"], "SMILES": "N(C(OCC)=O)C1=CC=CC=C1", "physical_data": {"Molecular Weight": "165.19", "Molecular Formula": "C9H11NO2", "Boiling Point": "238 \u00b0C", "Melting Point": "52-53 \u00b0C", "Density": "1.1064 g/cm\u00b3 @ Temp: 20 \u00b0C"}}