{"cas_no": "101-98-4", "cn_name": "N-\u7532\u57fa-N-\u7f9f\u4e59\u57fa\u82c4\u80fa", "en_name": ["N-Benzyl-N-methylethanolamine", "Ethanol, 2-[methyl(phenylmethyl)amino]-", "Ethanol, 2-(benzylmethylamino)-", "2-[Methyl(phenylmethyl)amino]ethanol", "N-Methyl-N-benzylethanolamine", "2-(Benzylmethylamino)ethanol", "2-(N-Methylbenzylamino)ethanol", "N-Benzyl-N-methyl-2-aminoethanol", "\u03b2-(N-Benzyl-N-methylamino)ethanol", "N-Benzyl-N-methylethanolamine", "2-(N-benzyl-N-methylamino)ethanol", "Benzyl(2-hydroxyethyl)methylamine", "N-Benzyl-N-methyl(2-hydroxyethyl)amine", "2-[Benzyl(methyl)amino]ethan-1-ol"], "SMILES": "C(N(CCO)C)C1=CC=CC=C1", "physical_data": {"Molecular Weight": "165.23", "Molecular Formula": "C10H15NO", "Boiling Point": "100-105 \u00b0C @ Press: 2 Torr"}}