{"cas_no": "101-43-9", "cn_name": "2-\u7532\u57fa\u4e19\u70ef\u9178\u73af\u5df1\u916f", "en_name": ["Cyclohexyl methacrylate", "2-Propenoic acid, 2-methyl-, cyclohexyl ester", "Methacrylic acid, cyclohexyl ester", "Cyclohexanol, methacrylate", "Cyclohexyl methacrylate", "SR 208", "Light Ester CH", "Blemmer CHMA", "Acryester CH", "NSC 20968", "Mhoromer BM 711", "Acryester CHMA", "EM 71", "EM 71 (acrylate)", "Visiomer C-HMA"], "SMILES": "O(C(C(C)=C)=O)C1CCCCC1", "physical_data": {"Molecular Weight": "168.23", "Molecular Formula": "C10H16O2", "Boiling Point": "210 \u00b0C", "Density": "0.9626 g/cm\u00b3 @ Temp: 20 \u00b0C"}}