{"cas_no": "101-55-3", "cn_name": "4-\u6eb4\u8054\u82ef\u919a", "en_name": ["4-Bromodiphenyl ether", "Benzene, 1-bromo-4-phenoxy-", "Ether, p-bromophenyl phenyl", "1-Bromo-4-phenoxybenzene", "p-Bromophenyl phenyl ether", "4-Bromophenoxybenzene", "p-Bromodiphenyl ether", "4-Bromophenyl phenyl ether", "p-Phenoxybromobenzene", "4-Bromodiphenyl ether", "p-Bromophenoxybenzene", "p-Phenoxyphenyl bromide", "4-Phenoxyphenyl bromide", "4-Phenoxybromobenzene", "BDE 3", "PBDE 3", "NSC 5619", "4-Phenoxy-1-bromobenzene", "BDE 003"], "SMILES": "O(C1=CC=C(Br)C=C1)C2=CC=CC=C2", "physical_data": {"Molecular Weight": "249.10", "Molecular Formula": "C12H9BrO", "Boiling Point": "310.1 \u00b0C @ Press: 760 Torr", "Melting Point": "18.72 \u00b0C", "Density": "1.6088 g/cm\u00b3 @ Temp: 20 \u00b0C"}}