{"cas_no": "101-00-8", "cn_name": "\u4e09\u5f02\u4e19\u9187\u80fa\u73af\u787c\u9178\u916f", "en_name": ["Triisopropanolamine borate", "2,8,9-Trioxa-5-aza-1-borabicyclo[3.3.3]undecane, 3,7,10-trimethyl-", "2-Propanol, 1,1\u2032,1\u2032\u2032-nitrilotri-, cyclic ester with boric acid (H3BO3) (1:1)", "2-Propanol, 1,1\u2032,1\u2032\u2032-nitrilotri-, cyclic borate", "2-Propanol, 1,1\u2032,1\u2032\u2032-nitrilotri-, borate", "3,7,10-Trimethyl-2,8,9-trioxa-5-aza-1-borabicyclo[3.3.3]undecane", "Borester 21", "Triisopropanolamine cyclic borate", "Triisopropanolamine borate", "NSC 15099", "3,7,10-Trimethyl-4,6,11-trioxa-1-aza-5-borabicyclo[3.3.3]undecane"], "SMILES": "CC1OB2OC(C)CN(C1)CC(C)O2", "physical_data": {"Molecular Weight": "199.06", "Molecular Formula": "C9H18BNO3", "Melting Point": "153-156 \u00b0C"}}