{"cas_no": "101-97-3", "cn_name": "\u82ef\u4e59\u9178\u4e59\u916f", "en_name": ["Ethyl phenylacetate", "Benzeneacetic acid, ethyl ester", "Acetic acid, phenyl-, ethyl ester", "Ethyl phenylacetate", "Ethyl \u03b1-toluate", "\u03b1-Toluic acid ethyl ester", "Phenylacetic acid ethyl ester", "Ethyl benzeneacetate", "Ethyl phenacetate", "Ethyl 2-phenylethanoate", "2-Phenylacetic acid ethyl ester", "Ethyl 2-phenylacetate", "NSC 406259", "NSC 8894", "Ethyl \u03b1-phenylacetate"], "SMILES": "C(C(OCC)=O)C1=CC=CC=C1", "physical_data": {"Molecular Weight": "164.20", "Molecular Formula": "C10H12O2", "Boiling Point": "227 \u00b0C", "Melting Point": "-29.4 \u00b0C", "Density": "0.9537 g/cm\u00b3 @ Temp: 14 \u00b0C"}}