{"cas_no": "101-70-2", "cn_name": "4,4'-\u4e8c\u7532\u6c27\u57fa\u4e8c\u82ef\u80fa", "en_name": ["Bis(4-methoxyphenyl)amine", "Benzenamine, 4-methoxy-N-(4-methoxyphenyl)-", "Diphenylamine, 4,4\u2032-dimethoxy-", "4-Methoxy-N-(4-methoxyphenyl)benzenamine", "p,p\u2032-Dimethoxydiphenylamine", "4,4\u2032-Dimethoxydiphenylamine", "Di(p-methoxyphenyl)amine", "N-(p-Methoxyphenyl)-p-anisidine", "Bis(p-methoxyphenyl)amine", "Di-p-anisylamine", "Bis(p-anisyl)amine", "Difenam", "Bis(4-methoxyphenyl)amine", "Thermoflex", "Fenam M", "N,N-Bis(4-methoxyphenyl)amine", "N-(4-Methoxyphenyl)-p-anisidine", "Di(4-methoxyphenyl)amine"], "SMILES": "N(C1=CC=C(OC)C=C1)C2=CC=C(OC)C=C2", "physical_data": {"Molecular Weight": "229.27", "Molecular Formula": "C14H15NO2", "Boiling Point": "250-255 \u00b0C @ Press: 15 Torr", "Melting Point": "103 \u00b0C"}}