{"cas_no": "101-86-0", "cn_name": "\u03b1-\u5df1\u57fa\u8089\u6842\u919b", "en_name": ["\u03b1-Hexylcinnamaldehyde", "Octanal, 2-(phenylmethylene)-", "Cinnamaldehyde, \u03b1-hexyl-", "2-(Phenylmethylene)octanal", "\u03b1-Hexylcinnamaldehyde", "Hexyl cinnamic aldehyde", "\u03b1-n-Hexyl-\u03b2-phenylacrolein", "\u03b1-Hexylcinnamic aldehyde", "2-Hexyl-3-phenyl-2-propenal", "2-Hexylcinnamaldehyde", "\u03b1-Hexylcinnamyl aldehyde", "\u03b1-n-Hexylcinnamaldehyde", "NSC 406799", "NSC 46150", "2-Benzylideneoctanal", "Hexyl cinnamal"], "SMILES": "C(=C(CCCCCC)C=O)C1=CC=CC=C1", "physical_data": {"Molecular Weight": "216.32", "Molecular Formula": "C15H20O", "Boiling Point": "305 \u00b0C"}}