{"cas_no": "101-90-6", "cn_name": "\u95f4\u82ef\u4e8c\u915a\u4e8c\u7f29\u6c34\u7518\u6cb9\u919a", "en_name": ["Resorcinol diglycidyl ether", "Oxirane, 2,2\u2032-[1,3-phenylenebis(oxymethylene)]bis-", "Benzene, m-bis(2,3-epoxypropoxy)-", "2,2\u2032-[1,3-Phenylenebis(oxymethylene)]bis[oxirane]", "m-Bis(2,3-epoxypropoxy)benzene", "Resorcinol diglycidyl ether", "Diglycidyl resorcinol ether", "Resorcinol glycidyl ether", "Resorcinol bis(2,3-epoxypropyl) ether", "1,3-Bis(2,3-epoxypropoxy)benzene", "m-Bis(glycidyloxy)benzene", "NSC 76621", "1,3-Diglycidyloxybenzene", "1,3-Dihydroxybenzene diglycidyl ether", "2-[3-(Oxiran-2-ylmethoxy)phenoxymethyl]oxirane", "2-[[3-(Oxiran-2-ylmethoxy)phenoxy]methyl]oxirane", "KMC 694"], "SMILES": "O(CC1CO1)C2=CC(OCC3CO3)=CC=C2", "physical_data": {"Molecular Weight": "222.24", "Molecular Formula": "C12H14O4", "Boiling Point": "172 \u00b0C @ Press: 0.8 Torr", "Melting Point": "32-33 \u00b0C", "Density": "1.21 g/cm\u00b3 @ Temp: 25 \u00b0C"}}