{"cas_no": "101-67-7", "cn_name": "4,4'-\u4e8c\u8f9b\u57fa\u4e8c\u82ef\u80fa", "en_name": ["Antioxidant ODA", "Benzenamine, 4-octyl-N-(4-octylphenyl)-", "Diphenylamine, 4,4\u2032-dioctyl-", "4-Octyl-N-(4-octylphenyl)benzenamine", "Bis(p-octylphenyl)amine", "p,p\u2032-Dioctyldiphenylamine", "4,4\u2032-Dioctyldiphenylamine", "Nocrac AD", "Permanax OD", "DAT", "Anox NS", "Nonflex OD", "NSC 79268", "Bis(4-octylphenyl)amine", "Nonflex OD 3", "ODA", "Antioxidant ODA", "ODA (antioxidant)", "ODA 40", "TZ 516"], "SMILES": "N(C1=CC=C(CCCCCCCC)C=C1)C2=CC=C(CCCCCCCC)C=C2", "physical_data": {"Molecular Weight": "393.65", "Molecular Formula": "C28H43N", "Melting Point": "80-90 \u00b0C", "Density": "0.99 g/cm\u00b3"}}