{"cas_no": "101-81-5", "cn_name": "\u4e8c\u82ef\u57fa\u7532\u70f7", "en_name": ["Diphenylmethane", "Benzene, 1,1\u2032-methylenebis-", "Methane, diphenyl-", "1,1\u2032-Methylenebis[benzene]", "Benzylbenzene", "Diphenylmethane", "Ditan", "Ditane", "Benzene, (phenylmethyl)-", "NSC 4708", "DPM", "1,1-Diphenylmethane"], "SMILES": "C(C1=CC=CC=C1)C2=CC=CC=C2", "physical_data": {"Molecular Weight": "168.23", "Molecular Formula": "C13H12", "Boiling Point": "264.5 \u00b0C @ Press: 760 Torr", "Melting Point": "25.9 \u00b0C", "Density": "1.007 g/cm\u00b3 @ Temp: 20 \u00b0C"}}