{"cas_no": "101-37-1", "cn_name": "1,3,5-\u4e09\u805a\u6c30\u9178\u4e09\u70ef\u4e19\u57fa\u916f", "en_name": ["Triallyl cyanurate", "1,3,5-Triazine, 2,4,6-tris(2-propen-1-yloxy)-", "s-Triazine, 2,4,6-tris(allyloxy)-", "1,3,5-Triazine, 2,4,6-tris(2-propenyloxy)-", "2,4,6-Tris(2-propen-1-yloxy)-1,3,5-triazine", "Cyanuric acid triallyl ester", "Triallyl cyanurate", "2,4,6-Triallyloxy-s-triazine", "Cyanuric acid, tri-2-propenyl ester", "2,4,6-Tris(allyloxy)-s-triazine", "2,4,6-Tris(allyloxy)-1,3,5-triazine", "2,4,6-Tris(allyloxy)triazine", "Activator OC", "TAC", "Perkalink 300", "Rhenofit TAC", "Perkalink 300-50D", "2,4,6-Tris(2-propenyloxy)-1,3,5-triazine", "2,4,6-Triallyloxy-1,3,5-triazine", "NSC 4804", "NSC 49121", "SR 507", "Sartomer SR 507", "PLC 50BC", "Rhenofit TAC/S", "Rhenogran TAC/S", "TAITs", "TAC-DL 70", "Luvomaxx TAC-DL 70", "Vul-Cup TAC 70", "TAIC 50", "Crosslinker TAC", "Luvomaxx TAC-DL 50", "GR 70", "TRM 491", "TAC 70", "TAC 50GR", "JN 852", "SR 507A", "Kettlitz TAC GR 70"], "SMILES": "O(CC=C)C=1N=C(OCC=C)N=C(OCC=C)N1", "physical_data": {"Molecular Weight": "249.27", "Molecular Formula": "C12H15N3O3", "Boiling Point": "137-140 \u00b0C @ Press: 0.4-0.5 Torr", "Melting Point": "29-30 \u00b0C", "Density": "1.12 g/cm\u00b3 @ Temp: 23 \u00b0C"}}