{"cas_no": "101-18-8", "cn_name": "\u95f4\u7f9f\u57fa\u4e8c\u82ef\u80fa", "en_name": ["3-Hydroxydiphenylamine", "Phenol, 3-(phenylamino)-", "Phenol, m-anilino-", "3-(Phenylamino)phenol", "m-Anilinophenol", "m-Hydroxydiphenylamine", "3-Hydroxydiphenylamine", "m-(Phenylamino)phenol", "3-Anilinophenol", "NSC 56930", "3-Hydroxy-N-phenylaniline"], "SMILES": "N(C1=CC(O)=CC=C1)C2=CC=CC=C2", "physical_data": {"Molecular Weight": "185.22", "Molecular Formula": "C12H11NO", "Boiling Point": "340 \u00b0C", "Melting Point": "81.5 \u00b0C"}}