{"cas_no": "101-02-0", "cn_name": "\u4e9a\u78f7\u9178\u4e09\u82ef\u916f", "en_name": ["Triphenyl phosphite", "Phosphorous acid, triphenyl ester", "Phenyl phosphite ((C6H5O)3P)", "Triphenyl phosphite", "Phosclere T 36", "TPP", "Triphenoxyphosphine", "Mellite 310", "Advance TPP", "JP 360", "TP 1 (plasticizer)", "TP 1", "TPP (plasticizer)", "Weston TPP", "Sumilizer TTP-R", "Sumilizer TPP-R", "Tris(phenoxy)phosphine", "ADK Stab TPP", "TPP-R", "Mark TPP", "Doverphos 10", "Irgafos TPP", "Irgastab CH 55", "NSC 43789", "NSC 62219", "Plastistab 2334", "TP-I", "Antioxidant TPPi", "Antioxidant TPP", "JP 30", "Tppi", "T 0510"], "SMILES": "P(OC1=CC=CC=C1)(OC2=CC=CC=C2)OC3=CC=CC=C3", "physical_data": {"Molecular Weight": "310.28", "Molecular Formula": "C18H15O3P", "Boiling Point": "360 \u00b0C", "Melting Point": "25 \u00b0C", "Density": "1.1842 g/cm\u00b3 @ Temp: 20 \u00b0C"}}