{"cas_no": "101-72-4", "cn_name": "\u6a61\u80f6\u9632\u8001\u5242 4010NA", "en_name": ["Antioxidant 4010NA", "1,4-Benzenediamine, N1-(1-methylethyl)-N4-phenyl-", "p-Phenylenediamine, N-isopropyl-N\u2032-phenyl-", "1,4-Benzenediamine, N-(1-methylethyl)-N\u2032-phenyl-", "N1-(1-Methylethyl)-N4-phenyl-1,4-benzenediamine", "Cyzone IP", "4-(Isopropylamino)diphenylamine", "N-Isopropyl-N\u2032-phenyl-p-phenylenediamine", "Nonox ZA", "N-2-Propyl-N\u2032-phenyl-p-phenylenediamine", "Santoflex 36", "4010NA", "Diafen FP", "N-Phenyl-N1-isopropyl-p-phenylenediamine", "Santoflex IP", "Antioxidant IP", "Ipognox 44", "Antioxidant 4010NA", "N-Isopropyl-N\u2032-phenyl-p-phenyldiamine", "N-Phenyl-N\u2032-isopropyl-p-phenylenediamine", "Flexzone 3C", "p-(Isopropylamino)diphenylamine", "ASM 4010MA", "Permanax 115", "Orflex PP", "Antioxidant 40NA", "N-Isopropyl-N\u2032-phenyl-1,4-phenylenediamine", "Diaphen FP", "4-Anilino-N-isopropylaniline", "N-Phenyl-N\u2032-isopropyl-1,4-phenylenediamine", "Antigene 3C", "Antigen 3C", "Nocrac 810NA", "Accinox ZA", "Vulkanox 4010NA", "NA 4010", "IPPD", "810NA", "Naugard I 4", "Vulkanox 4020NA", "Permanax IPPD", "Diafen PP", "Dusantox IPPD", "Antioxidant CD", "AO-CD", "Santoflex IPPD", "Nocrac 3C", "Antage 3C", "NSC 41029", "N-(1-Methylethyl)-N\u2032-phenyl-1,4-benzenediamine", "Vulkanox 4010NA-LG", "Nocrac 810MA", "Flexzone 3P", "Diaphene FP", "4-Isopropylamino-1-phenylaminobenzene", "N-Isopropyl-N\u2032-phenyl-1,4-benzenediamine", "Ozonone 3C", "N 1040", "N-Isopropyl-N\u2032-phenyl-4-phenylenediamine", "Vulkanox 4010A", "N-Isopropyl-N\u2032-phenyl-p-phenylendiamine", "Vulkanox 4010", "4010A", "Antiozonant PD 1", "PD 1", "Antioxidant 4010A", "Antioxidant 3C", "N-Phenyl-N\u2032-isopropyl-p-phenylanediamine", "Antioxidant IPPD", "1-N-Phenyl-4-N-(propan-2-yl)benzene-1,4-diamine", "1-N-Phenyl-4-N-propan-2-ylbenzene-1,4-diamine", "Pilflex IP", "Luvomaxx IPPD"], "SMILES": "N(C1=CC=C(NC(C)C)C=C1)C2=CC=CC=C2", "physical_data": {"Molecular Weight": "226.32", "Molecular Formula": "C15H18N2", "Boiling Point": "161 \u00b0C", "Melting Point": "75 \u00b0C", "Density": "1.04 g/cm\u00b3 @ Temp: 25 \u00b0C"}}