{"cas_no": "101-54-2", "cn_name": "\u5bf9\u6c28\u57fa\u4e8c\u82ef\u80fa", "en_name": ["N-Phenyl-p-phenylenediamine", "1,4-Benzenediamine, N1-phenyl-", "p-Phenylenediamine, N-phenyl-", "1,4-Benzenediamine, N-phenyl-", "Variamine Blue RT", "N1-Phenyl-1,4-benzenediamine", "C.I. 76085", "p-Aminodiphenylamine", "C.I. Developer 15", "C.I. Oxidation Base 2", "Diphenyl Black", "Luxan Black R", "Peltol BR", "Peltol BR II", "N-Phenyl-p-aminoaniline", "N-Phenyl-p-phenylenediamine", "4-Aminodiphenylamine", "p-Anilinoaniline", "N-Phenyl-1,4-phenylenediamine", "Semidine", "Semidin", "p-(Phenylamino)aniline", "N,4\u2032-Bianiline", "p-Semidine", "N-Phenyl-1,4-benzenediamine", "4-(Phenylamino)aniline", "4-Amino-N-phenylaniline", "N-(4-Aminophenyl)aniline", "4ADPA", "4-Anilinoaniline", "(4-(Phenylamino)phenyl)amine", "NSC 3401", "NSC 37074", "4-Anilinophenylamine", "4-(N-Phenylamino)aniline", "S 789", "Azoic Diazo Component 22", "1-N-Phenylbenzene-1,4-diamine"], "SMILES": "N(C1=CC=C(N)C=C1)C2=CC=CC=C2", "physical_data": {"Molecular Weight": "184.24", "Molecular Formula": "C12H12N2", "Boiling Point": "354 \u00b0C", "Melting Point": "75 \u00b0C", "Density": "1.09 g/cm\u00b3"}}