{"cas_no": "101-17-7", "cn_name": "\u95f4\u6c2f\u4e8c\u82ef\u80fa", "en_name": ["3-Chlorodiphenylamine", "Benzenamine, 3-chloro-N-phenyl-", "Diphenylamine, 3-chloro-", "3-Chloro-N-phenylbenzenamine", "3-Chlorodiphenylamine", "Phenyl(m-chlorophenyl)amine", "N-(m-Chlorophenyl)aniline", "N-(3-Chlorophenyl)aniline", "m-Chlorodiphenylamine", "N-(3-Chlorophenyl)-N-phenylamine", "3-Chloro-N-phenylaniline"], "SMILES": "N(C1=CC(Cl)=CC=C1)C2=CC=CC=C2", "physical_data": {"Molecular Weight": "203.67", "Molecular Formula": "C12H10ClN", "Boiling Point": "338 \u00b0C", "Melting Point": "112 \u00b0C"}}