{"cas_no": "101-96-2", "cn_name": "N,N'-\u4e8c\u4ef2\u4e01\u57fa\u5bf9\u82ef\u4e8c\u80fa", "en_name": ["N,N\u2032-Di-sec-butyl-p-phenylenediamine", "1,4-Benzenediamine, N1,N4-bis(1-methylpropyl)-", "p-Phenylenediamine, N,N\u2032-di-sec-butyl-", "1,4-Benzenediamine, N,N\u2032-bis(1-methylpropyl)-", "N1,N4-Bis(1-methylpropyl)-1,4-benzenediamine", "N,N\u2032-Di-sec-butyl-p-phenylenediamine", "Du Pont Gasoline Antioxidant No. 22", "Topanol M", "N,N\u2032-Di-sec-butyl-n-phenylenediamine", "Antioxidant 22", "N,N\u2032-Di-sec-butyl-p-phenyldiamine", "Tenamene 2", "UOP 5", "Kerobit BPD", "Naugalube 403", "Unilink 4100", "Sumilizer BPAM 1", "Santoflex 44", "Cerobit BPD", "N,N\u2032-Di-sec-butyl-1,4-phenylenediamine", "1,4-Bis-(sec-butylamino)benzene", "NSC 68417", "N,N\u2032-Bis(1-methylpropyl)-1,4-benzenediamine", "Sumilizer BPA", "Ethanox 4720", "N,N\u2032-Di-2-butyl-p-phenylenediamine", "Antioxidant 4720", "Santoflex 44PD", "Antioxidant 44PD", "N,N\u2032-Di-2-butyl-1,4-phenylenediamine", "1-N,4-N-Di(butan-2-yl)benzene-1,4-diamine"], "SMILES": "N(C(CC)C)C1=CC=C(NC(CC)C)C=C1", "physical_data": {"Molecular Weight": "220.35", "Molecular Formula": "C14H24N2", "Boiling Point": "98 \u00b0C @ Press: 0.200 Torr", "Melting Point": "18 \u00b0C", "Density": "94 g/cm\u00b3 @ Temp: 20 \u00b0C"}}