{"cas_no": "101-10-0", "cn_name": "2-(3-\u6c2f\u82ef\u6c27\u57fa)\u4e19\u9178", "en_name": ["(\u00b1)-2-(3-Chlorophenoxy)propionic acid", "Propanoic acid, 2-(3-chlorophenoxy)-", "Propionic acid, 2-(m-chlorophenoxy)-", "2-(3-Chlorophenoxy)propanoic acid", "2-(m-Chlorophenoxy)propionic acid", "2-(3-Chlorophenoxy)propionic acid", "Metachlorphenprop", "3CP", "\u03b1-(3-Chlorophenoxy)propionic acid", "CP", "Cloprop", "(\u00b1)-2-(3-Chlorophenoxy)propionic acid", "Fruitone CPA", "Swelpine", "(RS)-2-(3-Chlorophenoxy)propionic acid", "3-CPPA"], "SMILES": "O(C(C(O)=O)C)C1=CC(Cl)=CC=C1", "physical_data": {"Molecular Weight": "200.62", "Molecular Formula": "C9H9ClO3", "Melting Point": "113-114 \u00b0C"}}