{"cas_no": "101-53-1", "cn_name": "4-\u7f9f\u57fa\u4e8c\u82ef\u7532\u70f7", "en_name": ["4-Benzylphenol", "Phenol, 4-(phenylmethyl)-", "p-Cresol, \u03b1-phenyl-", "4-(Phenylmethyl)phenol", "p-Benzylphenol", "4-Hydroxyditane", "\u03b1-Phenyl-p-cresol", "4-Benzylphenol", "Fesiasept", "p-Hydroxydiphenyl methane", "4-Hydroxydiphenylmethane", "AI 3-1932", "NSC 8078", "1-Hydroxy-4-(phenylmethyl)benzene"], "SMILES": "C(C1=CC=C(O)C=C1)C2=CC=CC=C2", "physical_data": {"Molecular Weight": "184.23", "Molecular Formula": "C13H12O", "Boiling Point": "322 \u00b0C", "Melting Point": "84 \u00b0C"}}