{"cas_no": "101-23-5", "cn_name": "\u95f4\u4e09\u6c1f\u7532\u57fa\u4e8c\u82ef\u80fa", "en_name": ["N-Phenyl-3-(trifluoromethyl)benzenamine", "Benzenamine, N-phenyl-3-(trifluoromethyl)-", "m-Toluidine, \u03b1,\u03b1,\u03b1-trifluoro-N-phenyl-", "N-Phenyl-3-(trifluoromethyl)benzenamine", "\u03b1,\u03b1,\u03b1-Trifluoro-N-phenyl-m-toluidine", "m-Trifluoromethyldiphenylamine", "3-(Trifluoromethyl)diphenylamine", "Phenyl(m-trifluoromethylphenyl)amine", "NSC 50453", "N-Phenyl-3-(trifluoromethyl)aniline", "N-(3-Trifluoromethylphenyl)-N-phenylamine", "3-(Trifluoromethyl)-N-phenylaniline"], "SMILES": "N(C1=CC(C(F)(F)F)=CC=C1)C2=CC=CC=C2", "physical_data": {"Molecular Weight": "237.22", "Molecular Formula": "C13H10F3N", "Boiling Point": "108-110 \u00b0C @ Press: 0.3 Torr"}}