{"cas_no": "101-80-4", "cn_name": "4,4'-\u4e8c\u6c28\u57fa\u4e8c\u82ef\u919a", "en_name": ["4,4\u2032-Diaminodiphenyl ether", "Benzenamine, 4,4\u2032-oxybis-", "Aniline, 4,4\u2032-oxydi-", "4,4\u2032-Oxybis[benzenamine]", "4,4\u2032-Diaminophenyl ether", "p,p\u2032-Oxydianiline", "4,4\u2032-Diaminodiphenyl ether", "Oxybis(4-aminobenzene)", "Oxydi-p-phenylenediamine", "4,4\u2032-Oxydianiline", "Bis(4-aminophenyl) ether", "p,p\u2032-Oxybis[aniline]", "p,p\u2032-Diaminodiphenyl ether", "Bis(p-aminophenyl) ether", "4,4\u2032-Diaminobiphenyl oxide", "Oxydianiline", "4-Aminophenyl ether", "4,4\u2032-Oxybis(aniline)", "p-Aminophenyl ether", "4,4\u2032-Oxydiphenylamine", "ODA", "4,4\u2032-Diaminobiphenyl ether", "4,4\u2032-Diaminodiphenyl oxide", "NSC 37075", "NSC 6089", "4-(4-Aminophenoxy)phenylamine", "DPE", "DPE (amine)", "Di(4-aminophenyl) ether", "1-Amino-4-(4-aminophenoxy)benzene", "DDE", "4-(4\u2032-Aminophenoxy)benzenamine", "4-(4-Aminophenoxy)aniline", "4,4\u2032-Oxidianiline", "GJ 0071", "DADPE"], "SMILES": "O(C1=CC=C(N)C=C1)C2=CC=C(N)C=C2", "physical_data": {"Molecular Weight": "200.24", "Molecular Formula": "C12H12N2O", "Boiling Point": "&gt;300 \u00b0C", "Melting Point": "186-187 \u00b0C"}}