{"cas_no": "101-94-0", "cn_name": "\u82ef\u4e59\u9178\u5bf9\u7532\u915a\u916f", "en_name": ["p-Cresyl phenylacetate", "Benzeneacetic acid, 4-methylphenyl ester", "Acetic acid, phenyl-, p-tolyl ester", "p-Cresyl \u03b1-toluate", "p-Tolyl phenylacetate", "p-Tolyl \u03b1-toluate", "p-Cresyl phenylacetate", "NSC 5981", "p-Cresyl 2-phenylacetate", "(4-Methylphenyl) 2-phenylacetate"], "SMILES": "O(C(CC1=CC=CC=C1)=O)C2=CC=C(C)C=C2", "physical_data": {"Molecular Weight": "226.27", "Molecular Formula": "C15H14O2", "Melting Point": "74-75 \u00b0C"}}