{"cas_no": "101-29-1", "cn_name": "3,5-\u4e8c\u7898-4-\u5421\u5576\u916e-1-\u4e59\u9178", "en_name": ["3,5-Diiodo-4-oxo-1(4H)-pyridineacetic acid", "1(4H)-Pyridineacetic acid, 3,5-diiodo-4-oxo-", "3,5-Diiodo-4-oxo-1(4H)-pyridineacetic acid", "3,5-Diiodo-4-pyridone-N-acetic acid", "Pelvirinic acid", "Umbradilic acid", "Diodone acid", "NSC 60718", "1,4-Dihydro-3,5-diiodo-4-oxo-1-pyridylacetic acid", "(3,5-Diiodo-4-oxopyridin-1(4H)-yl)acetic acid", "2-(3,5-Diiodo-4-oxopyridin-1(4H)-yl)acetic acid", "2-(3,5-Diiodo-4-oxopyridin-1-yl)acetic acid", "2-(3,5-Diiodo-4-oxo-1,4-dihydropyridin-1-yl)acetic acid"], "SMILES": "C(C(O)=O)N1C=C(I)C(=O)C(I)=C1", "physical_data": {"Molecular Weight": "404.93", "Molecular Formula": "C7H5I2NO3", "Melting Point": "240 \u00b0C (decomp)"}}