{"cas_no": "101-77-9", "cn_name": "4,4'-\u4e8c\u6c28\u57fa\u4e8c\u82ef\u7532\u70f7", "en_name": ["4,4-Diaminodiphenylmethane", "Benzenamine, 4,4\u2032-methylenebis-", "Aniline, 4,4\u2032-methylenedi-", "Aniline, p,p\u2032-methylenebis-", "4,4\u2032-Methylenebis[benzenamine]", "Bis(4-aminophenyl)methane", "p,p\u2032-Diaminodiphenylmethane", "4,4\u2032-Diaminodiphenylmethane", "p,p\u2032-Methylenedianiline", "4,4\u2032-Methylenedianiline", "Tonox", "Bis(p-aminophenyl)methane", "4,4\u2032-Methylenebis(aniline)", "Dianilinemethane", "Diaminodiphenylmethane", "Methylenedianiline", "Epicure DDM", "4,4\u2032-Diphenylmethanediamine", "HT 972", "4-(p-Aminobenzyl)aniline", "Di(4-aminophenyl)methane", "Bis(aminophenyl)methane", "4,4\u2032-Methylenedibenzenamine", "DDM", "Araldite Hardener 972", "Ancamine TL", "Sumicure M", "Araldite HT 972", "Araldite Hardener HT 972", "4-(4-Aminobenzyl)aniline", "Acmex H 84BM", "Araldite R 972", "XU-HY 205", "Ancamine 1692", "Dianilinomethane", "NSC 4709", "Araldite HY 972", "DAM", "MDA 2200", "DEH 50", "Kayahard PT-AA", "4,4\u2032-Diaminodiphenylenemethane", "Tonox MDA", "4,4\u2032-Diaminobiphenylmethane", "4,4\u2032-Methylenediphenylamine", "MDA 100", "4,4-Diaminodiphenylmethane", "MDA", "Amicure 101", "4-(4-Aminobenzyl)benzenamine", "4,4\u2032-Diaminophenylmethane", "Aradur HT 972GB", "4,4\u2032-Methylenebisbenzeneamine", "Wanamine MDA", "4-[(4-Aminophenyl)methyl]aniline", "[4-(4-Aminobenzyl)phenyl]amine", "DMA 100", "Ancamine 1734", "K 6", "F-L 04764"], "SMILES": "C(C1=CC=C(N)C=C1)C2=CC=C(N)C=C2", "physical_data": {"Molecular Weight": "198.26", "Molecular Formula": "C13H14N2", "Boiling Point": "398-399 \u00b0C @ Press: 768 Torr", "Melting Point": "91.5-92 \u00b0C", "Density": "1.056 g/cm\u00b3 @ Temp: 100 \u00b0C"}}