{"cas_no": "101-01-9", "cn_name": "\u4e09\u82ef\u57fa\u80cd", "en_name": ["N,N\u2032,N\u2032\u2032-Triphenylguanidine", "Guanidine, N,N\u2032,N\u2032\u2032-triphenyl-", "Guanidine, 1,2,3-triphenyl-", "N,N\u2032,N\u2032\u2032-Triphenylguanidine", "1,2,3-Triphenylguanidine", "N,N\u2032,N\u2032\u2032-Triphenylguanidine", "sym-Triphenylguanidine", "NSC 4051", "Accelerator TPG"], "SMILES": "C(=NC1=CC=CC=C1)(NC2=CC=CC=C2)NC3=CC=CC=C3", "physical_data": {"Molecular Weight": "287.36", "Molecular Formula": "C19H17N3", "Melting Point": "146.5 \u00b0C"}}