{"cas_no": "101-79-1", "cn_name": "4'-\u6c2f-4-\u6c28\u57fa\u4e8c\u82ef\u919a", "en_name": ["4-(4-Chlorophenoxy)benzenamine", "Benzenamine, 4-(4-chlorophenoxy)-", "Aniline, p-(p-chlorophenoxy)-", "4-(4-Chlorophenoxy)benzenamine", "p-(p-Chlorophenoxy)aniline", "4-Amino-4\u2032-chlorodiphenyl ether", "4-Chloro-4\u2032-aminodiphenyl ether", "4-(4-Chlorophenoxy)aniline", "NSC 75571", "[4-(4-Chlorophenoxy)phenyl]amine"], "SMILES": "O(C1=CC=C(Cl)C=C1)C2=CC=C(N)C=C2", "physical_data": {"Molecular Weight": "219.67", "Molecular Formula": "C12H10ClNO", "Melting Point": "100 \u00b0C"}}