{"cas_no": "101-60-0", "cn_name": "\u535f\u5429", "en_name": ["Porphyrin", "21H,23H-Porphine", "Porphine", "Porphin", "Porphyrin", "21,22,23,24-Tetraazapentacyclo[16.2.1.13,6.18,11.113,16]tetracosa-1,3,5,7,9,11(23),12,14,16,18(21),19-undecaene"], "SMILES": "C1=2C=C3N=C(C=C3)C=C4NC(=CC5=NC(=CC(N1)=CC2)C=C5)C=C4", "physical_data": {"Molecular Weight": "310.35", "Molecular Formula": "C20H14N4", "Melting Point": "360 \u00b0C"}}