{"cas_no": "101-20-2", "cn_name": "\u4e09\u6c2f\u5361\u73ed", "en_name": ["Triclocarban", "Urea, N-(4-chlorophenyl)-N\u2032-(3,4-dichlorophenyl)-", "Carbanilide, 3,4,4\u2032-trichloro-", "N-(4-Chlorophenyl)-N\u2032-(3,4-dichlorophenyl)urea", "ENT 26925", "Cutisan", "TCC", "3,4,4\u2032-Trichlorocarbanilide", "Triclocarban", "3,4,4\u2032-Trichlorodiphenylurea", "N-(3,4-Dichlorophenyl)-N\u2032-(4-chlorophenyl)urea", "Cusiter", "Genoface", "Procutene", "Solubacter", "1-(4-Chlorophenyl)-3-(3,4-dichlorophenyl) urea", "3-(4-Chlorophenyl)-1-(3,4-dichlorophenyl)urea", "NSC 72005", "Preventol SB extra", "Preventol SB", "Cuticura", "Trichlorocarban"], "SMILES": "N(C(NC1=CC=C(Cl)C=C1)=O)C2=CC(Cl)=C(Cl)C=C2", "physical_data": {"Molecular Weight": "315.58", "Molecular Formula": "C13H9Cl3N2O", "Melting Point": "255.2-256 \u00b0C"}}