{"cas_no": "101-84-8", "cn_name": "\u4e8c\u82ef\u919a", "en_name": ["Diphenyl ether", "Benzene, 1,1\u2032-oxybis-", "Phenyl ether", "1,1\u2032-Oxybis[benzene]", "Benzene, phenoxy-", "Biphenyl oxide", "Diphenyl ether", "Diphenyl oxide", "Phenoxybenzene", "Phenyl oxide", "Chemcryl JK-EB", "Oxybisbenzene", "NSC 19311", "Barrel Therm 330"], "SMILES": "O(C1=CC=CC=C1)C2=CC=CC=C2", "physical_data": {"Molecular Weight": "170.21", "Molecular Formula": "C12H10O", "Boiling Point": "259 \u00b0C", "Melting Point": "28 \u00b0C", "Density": "1.08 g/cm\u00b3"}}