{"cas_no": "101-76-8", "cn_name": "1,1\u02ca-\u4e9a\u7532\u57fa\u53cc(4-\u6c2f\u82ef)", "en_name": ["4,4\u2032-Dichlorodiphenylmethane", "Benzene, 1,1\u2032-methylenebis[4-chloro-", "Methane, bis(p-chlorophenyl)-", "1,1\u2032-Methylenebis[4-chlorobenzene]", "Bis(p-chlorophenyl)methane", "DBM", "p,p\u2032-Dichlorodiphenylmethane", "4,4\u2032-Dichlorodiphenylmethane", "DDM", "Bis(4-chlorophenyl)methane", "NSC 406594", "p,p\u2032-DDM"], "SMILES": "C(C1=CC=C(Cl)C=C1)C2=CC=C(Cl)C=C2", "physical_data": {"Molecular Weight": "237.12", "Molecular Formula": "C13H10Cl2", "Boiling Point": "145-160 \u00b0C @ Press: 2 Torr", "Melting Point": "55.5 \u00b0C"}}