{"cas_no": "101-26-8", "cn_name": "\u6eb4\u5421\u65af\u7684\u660e", "en_name": ["Pyridostigmine bromide", "Pyridinium, 3-[[(dimethylamino)carbonyl]oxy]-1-methyl-, bromide (1:1)", "Pyridinium, 3-hydroxy-1-methyl-, bromide, dimethylcarbamate", "Pyridinium, 3-[[(dimethylamino)carbonyl]oxy]-1-methyl-, bromide", "3-Hydroxy-1-methylpyridinium bromide, dimethylcarbamate", "Carbamic acid, dimethyl-, ester with 3-hydroxy-1-methylpyridinium bromide", "Ro 1-5130", "Kalymin", "Mestinon", "Mestinon bromide", "1-Methyl-3-hydroxypyridinium bromide dimethylcarbamate", "Pyridostigmine bromide", "3-(Dimethylcarbamyloxy)-1-methylpyridinium bromide", "Piridostigmin bromide", "Kalimin", "Piridostigmin", "3-(Dimethylcarbamoyloxy)-1-methylpyridinium bromide", "Regonol", "NSC 679759", "3-[[(Dimethylamino)carbonyl]oxy]-1-methylpyridinium bromide", "MeSH ID: D011729"], "SMILES": "O(C(N(C)C)=O)C1=C[N+](C)=CC=C1.[Br-]", "physical_data": {"Molecular Weight": "", "Molecular Formula": "C9H13N2O2.Br", "Melting Point": "152-154 \u00b0C"}}