{"cas_no": "101-32-6", "cn_name": "N,N-\u4e8c(\u03b2-\u6c2f\u4e59\u57fa)\u82c4\u80fa\u76d0\u9178\u76d0", "en_name": ["2,2\u2032-[(Phenylmethyl)imino]bis[ethanol]", "Ethanol, 2,2\u2032-[(phenylmethyl)imino]bis-", "Ethanol, 2,2\u2032-(benzylimino)di-", "2,2\u2032-[(Phenylmethyl)imino]bis[ethanol]", "N,N-Bis(2-hydroxyethyl)benzylamine", "N-Benzyldiethanolamine", "Benzyldiethanolamine", "N-Benzyl-N,N-bis(2-hydroxyethyl)amine", "2,2\u2032-(Benzylimino)diethanol", "Benzylbis(2-hydroxyethyl)amine", "NSC 60297", "2-[Benzyl(2-hydroxyethyl)amino]ethanol", "N-Benzylbis(2-hydroxyethyl)amine", "N-Benzyl-N,N-di(2-hydroxyethyl)amine", "2-[Benzyl(2-hydroxyethyl)amino]ethan-1-ol"], "SMILES": "N(CC1=CC=CC=C1)(CCO)CCO", "physical_data": {"Molecular Weight": "195.26", "Molecular Formula": "C11H17NO2", "Boiling Point": "176-177 \u00b0C @ Press: 6 Torr", "Melting Point": "196.5 \u00b0C"}}