{"cas_no": "101-92-8", "cn_name": "\u4e59\u9170\u57fa\u4e59\u9170\u5bf9\u6c2f\u82ef\u80fa", "en_name": ["N-(4-Chlorophenyl)-3-oxobutanamide", "Butanamide, N-(4-chlorophenyl)-3-oxo-", "Acetoacetanilide, 4\u2032-chloro-", "N-(4-Chlorophenyl)-3-oxobutanamide", "Acetoacet-p-chloroanilide", "p-Chloroacetoacetanilide", "4\u2032-Chloroacetoacetanilide", "N-(4-Chlorophenyl)acetoacetamide", "NSC 3544", "N-(4-Chlorophenyl)acetylacetamide"], "SMILES": "N(C(CC(C)=O)=O)C1=CC=C(Cl)C=C1", "physical_data": {"Molecular Weight": "211.64", "Molecular Formula": "C10H10ClNO2", "Melting Point": "132-133 \u00b0C"}}