{"cas_no": "101-83-7", "cn_name": "\u4e8c\u73af\u5df1\u80fa", "en_name": ["Dicyclohexylamine", "Cyclohexanamine, N-cyclohexyl-", "Dicyclohexylamine", "N-Cyclohexylcyclohexanamine", "Dodecahydrodiphenylamine", "N,N-Dicyclohexylamine", "Aminodicyclohexane", "Bis(cyclohexyl)amine", "NSC 3399", "D-CHA-T"], "SMILES": "N(C1CCCCC1)C2CCCCC2", "physical_data": {"Molecular Weight": "181.32", "Molecular Formula": "C12H23N", "Boiling Point": "255.8 \u00b0C @ Press: 760 Torr", "Melting Point": "-0.1 \u00b0C", "Density": "0.9104 g/cm\u00b3 @ Temp: 25 \u00b0C"}}