{"cas_no": "101-82-6", "cn_name": "2-\u82c4\u57fa\u5421\u5576", "en_name": ["2-(Phenylmethyl)pyridine", "Pyridine, 2-(phenylmethyl)-", "Pyridine, 2-benzyl-", "2-(Phenylmethyl)pyridine", "2-Benzylpyridine", "CDD 3529", "NSC 241072", "NSC 4033"], "SMILES": "C(C1=CC=CC=C1)C2=CC=CC=N2", "physical_data": {"Molecular Weight": "169.22", "Molecular Formula": "C12H11N", "Boiling Point": "277 \u00b0C", "Melting Point": "12.5 \u00b0C", "Density": "1.055 g/cm\u00b3 @ Temp: 20 \u00b0C"}}