{"cas_no": "101-31-5", "cn_name": "\u83a8\u83ea\u78b1", "en_name": ["(-)-Atropine", "Benzeneacetic acid, \u03b1-(hydroxymethyl)-, (3-endo)-8-methyl-8-azabicyclo[3.2.1]oct-3-yl ester, (\u03b1S)-", "1\u03b1H,5\u03b1H-Tropan-3\u03b1-ol, (-)-tropate (ester)", "Benzeneacetic acid, \u03b1-(hydroxymethyl)-, 8-methyl-8-azabicyclo[3.2.1]oct-3-yl ester, [3(S)-endo]-", "Tropic acid, 1\u03b1H,5\u03b1H-tropan-3\u03b1-yl ester, (-)-", "(-)-Atropine", "Daturine", "Duboisine", "(-)-Hyoscyamine", "l-Hyoscyamine", "Hyoscyamine", "1\u03b1H,5\u03b1H-Tropan-3\u03b1-yl (-)-tropate", "l-Tropine tropate", "(S)-(-)-Hyoscyamine", "L-Hyoscyamine", "L-Hyoscyamin", "l-Atropine", "(S)-Atropine", "Cystospaz", "MeSH ID: D064692"], "SMILES": "O(C(C(CO)C1=CC=CC=C1)=O)C2CC3N(C)C(C2)CC3", "physical_data": {"Molecular Weight": "289.37", "Molecular Formula": "C17H23NO3", "Melting Point": "108.5 \u00b0C"}}