{"cas_no": "101-42-8", "cn_name": "3-\u82ef\u57fa-1,1-\u4e8c\u7532\u57fa\u8132", "en_name": ["Fenuron", "Urea, N,N-dimethyl-N\u2032-phenyl-", "Urea, 1,1-dimethyl-3-phenyl-", "N,N-Dimethyl-N\u2032-phenylurea", "Dybar", "Fenuron", "1,1-Dimethyl-3-phenylurea", "3-Phenyl-1,1-dimethylurea", "PUD", "Dibar", "1-Phenyl-3,3-dimethylurea", "N-Phenyl-N\u2032,N\u2032-dimethylurea", "Falisilvan", "Omicure 94", "Fikure 62U", "Dyhard UR 300", "Amicure UR", "Dyhard RU 300", "Omicure U 405", "Dyhard 300", "UR 300", "U 405", "PDU 250", "3,3-Dimethyl-1-phenylurea"], "SMILES": "N(C(N(C)C)=O)C1=CC=CC=C1", "physical_data": {"Molecular Weight": "164.20", "Molecular Formula": "C9H12N2O", "Melting Point": "133-134 \u00b0C", "Density": "1.08 g/cm\u00b3 @ Temp: 20 \u00b0C"}}