{"cas_no": "101-21-3", "cn_name": "\u6c2f\u82ef\u80fa\u7075", "en_name": ["Chlorpropham", "Carbamic acid, N-(3-chlorophenyl)-, 1-methylethyl ester", "Carbanilic acid, m-chloro-, isopropyl ester", "Carbamic acid, (3-chlorophenyl)-, 1-methylethyl ester", "Y 3", "Chloro-IPC", "Chloropropham", "Chlorpropham", "CI-IPC", "CIPC", "Elbanil", "Isopropyl 3-chlorocarbanilate", "Isopropyl N-(3-chlorophenyl)carbamate", "Metoxon", "Preventol 56", "Triherbicide CIPC", "Chlor IFC", "Isopropyl m-chlorocarbanilate", "Nexoval", "Preventol", "Liro CIPC", "Chlor IPC", "m-Chlorocarbanilic acid isopropyl ester", "Furloe 3EC", "Isopropyl N-(m-chlorophenyl)carbamate", "Chlor IFK", "Cl-IFK", "Furloe", "Bygran", "Mirvale", "Bud Nip", "Keim-Stop", "IPCPC", "NSC 29466", "Shield Potato Sprout Inhibitor", "Neo Stop 5", "MeSH ID: D002748"], "SMILES": "N(C(OC(C)C)=O)C1=CC(Cl)=CC=C1", "physical_data": {"Molecular Weight": "213.66", "Molecular Formula": "C10H12ClNO2", "Boiling Point": "149 \u00b0C @ Press: 2 Torr", "Melting Point": "40.7-41.1 \u00b0C", "Density": "1.180 g/cm\u00b3 @ Temp: 30 \u00b0C"}}