{"cas_no": "101-85-9", "cn_name": "\u620a\u57fa\u8089\u6842\u9187", "en_name": ["\u03b1-Amylcinnamyl alcohol", "1-Heptanol, 2-(phenylmethylene)-", "1-Heptanol, 2-benzylidene-", "2-(Phenylmethylene)-1-heptanol", "\u03b1-Amylcinnamic alcohol", "\u03b1-Amylcinnamyl alcohol", "2-Amyl-3-phenyl-2-propen-1-ol", "2-Benzylidene-1-heptanol", "Buxinol", "2-Pentyl-3-phenyl-2-propen-1-ol", "Amyl cinnamyl alcohol"], "SMILES": "C(=C(CCCCC)CO)C1=CC=CC=C1", "physical_data": {"Molecular Weight": "204.31", "Molecular Formula": "C14H20O", "Boiling Point": "162 \u00b0C @ Press: 12 Torr", "Density": "0.9549 g/cm\u00b3 @ Temp: 19 \u00b0C"}}