{"cas_no": "101-06-4", "cn_name": "N,N-\u4e8c\u82c4\u57fa\u4e59\u9187\u80fa", "en_name": ["2-[Bis(phenylmethyl)amino]ethanol", "Ethanol, 2-[bis(phenylmethyl)amino]-", "Ethanol, 2-(dibenzylamino)-", "2-[Bis(phenylmethyl)amino]ethanol", "N,N-Dibenzylethanolamine", "D Ol", "2-(Dibenzylamino)ethanol", "N,N-Dibenzyl-\u03b2-aminoethanol", "\u03b2-(N,N-Dibenzylamino)ethanol", "N,N-Dibenzyl-2-aminoethanol", "Dibenzylaminoethanol", "N,N-Dibenzylaminoethanol", "2-(Dibenzylamino)ethan-1-ol"], "SMILES": "N(CC1=CC=CC=C1)(CC2=CC=CC=C2)CCO", "physical_data": {"Molecular Weight": "241.33", "Molecular Formula": "C16H19NO", "Boiling Point": "170-175 \u00b0C @ Press: 3 Torr", "Melting Point": "46-47 \u00b0C"}}