{"cas_no": "101-27-9", "cn_name": "\u71d5\u9ea6\u7075", "en_name": ["Barban", "Carbamic acid, N-(3-chlorophenyl)-, 4-chloro-2-butyn-1-yl ester", "Carbanilic acid, m-chloro-, 4-chloro-2-butynyl ester", "Carbamic acid, (3-chlorophenyl)-, 4-chloro-2-butynyl ester", "S 847", "Barban", "Barbane", "Carbyne", "CBN", "4-Chloro-2-butynyl m-chlorocarbanilate", "A 980", "4-Chloro-2-butynyl N-(3-chlorophenyl)carbamate", "Carbyne (herbicide)", "4-Chloro-2-butynyl 3-chlorocarbanilate", "4-[N-(3-Chlorophenyl)carbamoyloxy]-1-chloro-2-butyne", "4-Chloro-2-butyn-1-yl N-(3-chlorophenyl)carbamate", "NSC 29168", "A 980 (herbicide)", "Barbanate"], "SMILES": "N(C(OCC#CCCl)=O)C1=CC(Cl)=CC=C1", "physical_data": {"Molecular Weight": "258.10", "Molecular Formula": "C11H9Cl2NO2", "Melting Point": "75-76 \u00b0C", "Density": "1.403 g/cm\u00b3 @ Temp: 25 \u00b0C"}}