{"cas_no": "101-63-3", "cn_name": "4,4-\u4e8c\u785d\u57fa\u4e8c\u82ef\u919a", "en_name": ["1,1\u2032-Oxybis[4-nitrobenzene]", "Benzene, 1,1\u2032-oxybis[4-nitro-", "Ether, bis(p-nitrophenyl)", "1,1\u2032-Oxybis[4-nitrobenzene]", "Bis(p-nitrophenyl) ether", "p,p\u2032-Dinitrodiphenyl ether", "p-Nitrophenyl ether", "4,4\u2032-Dinitrodiphenyl oxide", "Oxybis[4-nitrobenzene]", "Bis(4-nitrophenyl) ether", "Di-4-nitrophenyl ether", "4,4\u2032-Dinitrodiphenyl ether", "NSC 8740", "1-Nitro-4-(4-nitrophenoxy)benzene"], "SMILES": "O(C1=CC=C(N(=O)=O)C=C1)C2=CC=C(N(=O)=O)C=C2", "physical_data": {"Molecular Weight": "260.20", "Molecular Formula": "C12H8N2O5", "Melting Point": "138-139 \u00b0C"}}