{"cas_no": "101-48-4", "cn_name": "\u82ef\u57fa\u4e59\u919b\u4e8c\u7532\u7fa7\u919b", "en_name": ["Phenylacetaldehyde dimethyl acetal", "Benzene, (2,2-dimethoxyethyl)-", "Acetaldehyde, phenyl-, dimethyl acetal", "(2,2-Dimethoxyethyl)benzene", "Phenylacetaldehyde dimethyl acetal", "\u03b1-Tolylaldehyde dimethyl acetal", "Hyscylene P", "1,1-Dimethoxy-2-phenylethane", "2,2-Dimethoxy-1-phenylethane", "2-Phenylacetaldehyde dimethyl acetal", "NSC 5174"], "SMILES": "C(C(OC)OC)C1=CC=CC=C1", "physical_data": {"Molecular Weight": "166.22", "Molecular Formula": "C10H14O2", "Boiling Point": "219-221 \u00b0C", "Density": "1.005 g/cm\u00b3 @ Temp: 25 \u00b0C"}}