{"cas_no": "10102-17-7", "cn_name": "\u4e94\u6c34\u786b\u4ee3\u786b\u9178\u94a0", "en_name": ["Sodium thiosulfate pentahydrate", "Thiosulfuric acid (H2S2O3), sodium salt, hydrate (1:2:5)", "Thiosulfuric acid, disodium salt, pentahydrate", "Thiosulfuric acid (H2S2O3), disodium salt, pentahydrate", "Hypo", "Sodium thiosulfate pentahydrate", "Disodium thiosulfate pentahydrate", "Sodium thiosulfate pentahydrate (Na2S2O3.5H2O)", "Sodium thiosulfate (Na2S2O3) pentahydrate", "Disodium thiosulphate pentahydrate"], "SMILES": "S(=O)(=O)(O)S.[Na].O", "physical_data": {"Molecular Weight": "", "Molecular Formula": "H2O3S2.5H2O.2Na", "Melting Point": "65 \u00b0C"}}