{"cas_no": "10102-44-0", "cn_name": "\u4e8c\u6c27\u5316\u6c2e", "en_name": ["Nitrogen dioxide", "Nitrogen oxide (NO2)", "Nitrogen dioxide", "Nitrito", "Nitro", "Nitrogen dioxide (NO2)", "Nitrogen peroxide", "Nitrite radical", "MeSH ID: D009585"], "SMILES": "N([O])=O", "physical_data": {"Molecular Weight": "", "Molecular Formula": "NO2", "Boiling Point": "21.15 \u00b0C", "Melting Point": "-9.3 \u00b0C", "Density": "1.45 g/cm\u00b3"}}