{"cas_no": "1010396-29-8", "cn_name": "(S)-2-(\u82b4\u7532\u6c27\u7fb0\u57fa)-3-\u8054\u82ef\u57fa\u6c28\u57fa\u4e19\u9178", "en_name": ["(2S)-3-(4-Chloro-3-fluorophenoxy)-N-[4-cyano-3-(trifluoromethyl)phenyl]-2-hydroxy-2-methylpropanamide", "Propanamide, 3-(4-chloro-3-fluorophenoxy)-N-[4-cyano-3-(trifluoromethyl)phenyl]-2-hydroxy-2-methyl-, (2S)-", "(2S)-3-(4-Chloro-3-fluorophenoxy)-N-[4-cyano-3-(trifluoromethyl)phenyl]-2-hydroxy-2-methylpropanamide", "S 23", "S 23 (contraceptive)", "(S)-3-(4-Chloro-3-fluorophenoxy)-N-(4-cyano-3-(trifluoromethyl)phenyl)-2-hydroxy-2-methylpropanamide"], "SMILES": "C(F)(F)(F)C1=C(C#N)C=CC(NC(C(COC2=CC(F)=C(Cl)C=C2)(C)O)=O)=C1", "physical_data": {"Molecular Weight": "416.75", "Molecular Formula": "C18H13ClF4N2O3", "Melting Point": "119-121 \u00b0C"}}