{"cas_no": "1010-19-1", "cn_name": "\u82ef\u57fa\u4e09\u4e59\u57fa\u7898\u5316\u94f5", "en_name": ["Benzenaminium, N,N,N-triethyl-, iodide (1:1)", "Benzenaminium, N,N,N-triethyl-, iodide (1:1)", "Ammonium, triethylphenyl-, iodide", "Triethylphenylammonium iodide", "Benzenaminium, N,N,N-triethyl-, iodide", "N,N,N-Triethylanilinium iodide", "Phenyl triethyl ammonium iodide"], "SMILES": "[N+](CC)(CC)(CC)C1=CC=CC=C1.[I-]", "physical_data": {"Molecular Weight": "", "Molecular Formula": "C12H20N.I", "Melting Point": "125-127 \u00b0C"}}