{"cas_no": "10101-63-0", "cn_name": "\u7898\u5316\u94c5", "en_name": ["Lead iodide (PbI2)", "Lead iodide (PbI2)", "C.I. 77613", "Plumbous iodide", "Lead diiodide", "Lead iodide", "Lead(II) iodide", "Lead diiodide (PbI2)"], "SMILES": "[Pb](I)I", "physical_data": {"Molecular Weight": "", "Molecular Formula": "I2Pb", "Melting Point": "402 \u00b0C", "Density": "6.16 g/cm\u00b3"}}