{"cas_no": "1010-60-2", "cn_name": "2-\u6c2f-1,4-\u8418\u918c", "en_name": ["2-Chloro-1,4-naphthoquinone", "1,4-Naphthalenedione, 2-chloro-", "1,4-Naphthoquinone, 2-chloro-", "2-Chloro-1,4-naphthalenedione", "2-Chloronaphthoquinone", "2-Chloro-1,4-naphthoquinone", "NSC 400597", "2-Chloro-1,4-dihydronaphthalene-1,4-dione"], "SMILES": "O=C1C=2C(C(=O)C=C1Cl)=CC=CC2", "physical_data": {"Molecular Weight": "192.60", "Molecular Formula": "C10H5ClO2", "Melting Point": "109-114 \u00b0C"}}