{"cas_no": "101023-55-6", "cn_name": "\u54aa\u5511\u6c22\u6eb4\u9178\u76d0", "en_name": ["1H-Imidazole, hydrobromide (1:1)", "1H-Imidazole, hydrobromide (1:1)", "1H-Imidazole, monohydrobromide", "Imidazole hydrobromide"], "SMILES": "C1=CN=CN1.Br", "physical_data": {"Molecular Weight": "", "Molecular Formula": "C3H4N2.BrH", "Boiling Point": "237 \u00b0C @ Press: 2 Torr", "Melting Point": "210-216 \u00b0C"}}