{"cas_no": "101048-76-4", "cn_name": "3-\u6c1f-4-\u6c30\u57fa\u82ef\u7532\u919b", "en_name": ["2-Fluoro-4-formylbenzonitrile", "Benzonitrile, 2-fluoro-4-formyl-", "2-Fluoro-4-formylbenzonitrile", "3-Fluoro-4-cyanobenzaldehyde", "4-Cyano-3-fluorobenzaldehyde"], "SMILES": "C(=O)C1=CC(F)=C(C#N)C=C1", "physical_data": {"Molecular Weight": "149.12", "Molecular Formula": "C8H4FNO", "Melting Point": "87-88 \u00b0C"}}