{"cas_no": "101012-32-2", "cn_name": "(2-\u6c2f\u5421\u5576-3-\u57fa)\u4e59\u8148", "en_name": ["2-Chloro-3-pyridineacetonitrile", "3-Pyridineacetonitrile, 2-chloro-", "2-Chloro-3-pyridineacetonitrile", "2-Chloro-3-cyanomethylpyridine", "(2-Chloropyridin-3-yl)acetonitrile", "2-(2-Chloropyridin-3-yl)acetonitrile"], "SMILES": "C(C#N)C1=C(Cl)N=CC=C1", "physical_data": {"Molecular Weight": "152.58", "Molecular Formula": "C7H5ClN2", "Melting Point": "85-86 \u00b0C"}}