{"cas_no": "10102-18-8", "cn_name": "\u4e9a\u7852\u9178\u94a0", "en_name": ["Sodium selenite", "Selenious acid, sodium salt (1:2)", "Selenious acid (H2SeO3), disodium salt", "Selenious acid, disodium salt", "Disodium selenite", "Sodium selenite", "Sodium selenium oxide (Na2SeO3)", "Disodium selenium trioxide", "Sodium selenite (Na2SeO3)", "Neoselen", "Selamin", "Selemag", "Ekosel C-BB", "Microgan Se", "Selenious acid, sodium salt, ion(2-) (1:2)", "MeSH ID: D018038"], "SMILES": "[Se](=O)(O)O.[Na]", "physical_data": {"Molecular Weight": "", "Molecular Formula": "H2O3Se.2Na", "Melting Point": "710 \u00b0C (decomp)"}}