{"cas_no": "10106-41-9", "cn_name": "16\u0391-\u7532\u57fa\u5b55\u753e-1,4,9(11)-\u4e09\u70ef-17\u0391,21-\u4e8c\u9187-3,20-\u4e8c\u916e-21-\u918b\u9178\u916f", "en_name": ["(16\u03b1)-21-(Acetyloxy)-17-hydroxy-16-methylpregna-1,4,9(11)-triene-3,20-dione", "Pregna-1,4,9(11)-triene-3,20-dione, 21-(acetyloxy)-17-hydroxy-16-methyl-, (16\u03b1)-", "Pregna-1,4,9(11)-triene-3,20-dione, 17,21-dihydroxy-16\u03b1-methyl-, 21-acetate", "(16\u03b1)-21-(Acetyloxy)-17-hydroxy-16-methylpregna-1,4,9(11)-triene-3,20-dione"], "SMILES": "CC12C(C3C(=CC1)C4(C)C(CC3)=CC(=O)C=C4)CC(C)C2(C(COC(C)=O)=O)O", "physical_data": {"Molecular Weight": "398.49", "Molecular Formula": "C24H30O5", "Melting Point": "210-213 \u00b0C"}}