{"cas_no": "10102-68-8", "cn_name": "\u7898\u5316\u9499", "en_name": ["Calcium iodide", "Calcium iodide (CaI2)", "Calcium iodide", "Yokaron", "Calcium diiodide"], "SMILES": "[Ca](I)I", "physical_data": {"Molecular Weight": "", "Molecular Formula": "CaI2", "Boiling Point": "1100 \u00b0C", "Melting Point": "740 \u00b0C"}}