{"cas_no": "10102-90-6", "cn_name": "\u7126\u78f7\u9178\u94dc", "en_name": ["Copper pyrophosphate", "Diphosphoric acid, copper salt (1:?)", "Pyrophosphoric acid, copper salt", "Diphosphoric acid, copper salt", "Copper pyrophosphate"], "SMILES": "O(P(=O)(O)O)P(=O)(O)O.[Cu]", "physical_data": {"Molecular Weight": "", "Molecular Formula": "Cu.xH4O7P2", "Melting Point": "1140 \u00b0C", "Density": "4.2 g/cm\u00b3"}}