{"cas_no": "10105-42-7", "cn_name": "\u4e09\u80bc\u57fa\u5747\u4e09\u55ea", "en_name": ["Trihydrazinotriazine", "1,3,5-Triazine, 2,4,6-trihydrazinyl-", "s-Triazine, 2,4,6-trihydrazino-", "1,3,5-Triazine-2,4,6(1H,3H,5H)-trione, trihydrazone", "s-Triazine, trihydrazino-", "2,4,6-Trihydrazinyl-1,3,5-triazine", "Genitron THT", "Trihydrazino-s-triazine", "Trihydrazino-sym-triazine", "Trihydrazinotriazine", "2,4,6-Trihydrazino-1,3,5-triazine", "NSC 231588", "2,4,6-Tris(hydrazino)-s-triazine", "(4,6-Dihydrazinyl-1,3,5-triazin-2-yl)hydrazine", "SJ 1392"], "SMILES": "N(N)=C1NC(=NN)NC(=NN)N1", "physical_data": {"Molecular Weight": "171.16", "Molecular Formula": "C3H9N9", "Melting Point": "&gt;300 \u00b0C (decomp)"}}