{"cas_no": "1010-93-1", "cn_name": "\u7532\u785d\u5511\u6742\u8d28G", "en_name": ["2-Methyl-5-nitroimidazole-1-acetic acid", "1H-Imidazole-1-acetic acid, 2-methyl-5-nitro-", "Imidazole-1-acetic acid, 2-methyl-5-nitro-", "2-Methyl-5-nitro-1H-imidazole-1-acetic acid", "2-Methyl-5-nitroimidazol-1-ylacetic acid", "2-Methyl-5-nitroimidazole-1-acetic acid", "Metronidazoleacetic acid", "1-De(2-hydroxyethyl)metronidazole-1-acetic acid", "2-(2-Methyl-5-nitro-1H-imidazol-1-yl)acetic acid"], "SMILES": "C(C(O)=O)N1C(N(=O)=O)=CN=C1C", "physical_data": {"Molecular Weight": "185.14", "Molecular Formula": "C6H7N3O4", "Melting Point": "176-178 \u00b0C"}}