{"cas_no": "1010-95-3", "cn_name": "5-\u7532\u57fa\u8272\u80fa\u76d0\u9178\u76d0", "en_name": ["1H-Indole-3-ethanamine, 5-methyl-, hydrochloride (1:1)", "1H-Indole-3-ethanamine, 5-methyl-, hydrochloride (1:1)", "Indole, 3-(2-aminoethyl)-5-methyl-, monohydrochloride", "1H-Indole-3-ethanamine, 5-methyl-, monohydrochloride", "5-Methyltryptamine hydrochloride", "5-Methyl-1H-indole-3-ethylamine monohydrochloride", "2-(5-Methyl-1H-indol-3-yl)-ethylamine", "hydrochloride", "2-(5-Methyl-1H-indol-3-yl)ethanamine hydrochloride", "2-(5-Methyl-1H-indol-3-yl)ethan-1-amine hydrochloride", "5-methyltryptammonium chloride"], "SMILES": "C(CN)C=1C=2C(NC1)=CC=C(C)C2.Cl", "physical_data": {"Molecular Weight": "", "Molecular Formula": "C11H14N2.ClH", "Melting Point": "292-295 \u00b0C"}}