{"cas_no": "10102-24-6", "cn_name": "\u7845\u9178\u9502", "en_name": ["Lithium metasilicate", "Silicic acid (H2SiO3), lithium salt (1:2)", "Silicic acid (H2SiO3), dilithium salt", "Lithium silicate (Li2SiO3)", "Lithium metasilicate", "Lithium silicate", "Dilithium silicate (Li2SiO3)", "Lithium silicon oxide (Li2SiO3)", "Lithium metasilicate (Li2SiO3)", "Dilithium metasilicate", "Lithium silicate (Li2(SiO3))", "A-ED 3"], "SMILES": "[Si](O)(O)=O.[Li]", "physical_data": {"Molecular Weight": "", "Molecular Formula": "H2O3Si.2Li", "Melting Point": "1204 \u00b0C", "Density": "2.52 g/cm\u00b3"}}