{"cas_no": "10102-43-9", "cn_name": "\u4e00\u6c27\u5316\u6c2e", "en_name": ["Nitric oxide", "Nitrogen oxide (NO)", "Nitric oxide", "Nitrogen monoxide", "Nitrogen monooxide", "Nitric oxide (NO)", "Nitrosyl radical", "Nitrogen oxide (N4O4)", "Nitric oxide trimer", "Amidogen, oxo-", "Nitrogen(II) oxide", "OHM 11771", "INOmax", "INOvent", "R-107", "Genosyl", "MeSH ID: D009569"], "SMILES": "[N]=O", "physical_data": {"Molecular Weight": "", "Molecular Formula": "NO", "Boiling Point": "-151.74 \u00b0C", "Melting Point": "-163.6 \u00b0C", "Density": "1.269 g/cm\u00b3"}}