{"cas_no": "101079-63-4", "cn_name": "2,6-\u4e8c\u6c2f-3,4-\u5421\u5576\u4e8c\u80fa", "en_name": ["2,6-Dichloro-3,4-pyridinediamine", "3,4-Pyridinediamine, 2,6-dichloro-", "Pyridine, 3,4-diamino-2,6-dichloro-", "2,6-Dichloro-3,4-pyridinediamine", "3,4-Diamino-2,6-dichloropyridine", "2,6-Dichloropyridine-3,4-diamine"], "SMILES": "NC=1C(N)=CC(Cl)=NC1Cl", "physical_data": {"Molecular Weight": "178.02", "Molecular Formula": "C5H5Cl2N3", "Melting Point": "181-183 \u00b0C"}}