{"cas_no": "10102-45-1", "cn_name": "\u785d\u9178\u94ca", "en_name": ["Thallium(I) nitrate", "Nitric acid, thallium(1+) salt (1:1)", "Nitric acid, thallium(1+) salt", "Thallium nitrate", "Thallium nitrate (Tl(NO3))", "Thallium(1+) nitrate", "Thallous nitrate", "Thallium mononitrate", "Thallium(I) nitrate"], "SMILES": "N(=O)(=O)O.[Tl]", "physical_data": {"Molecular Weight": "", "Molecular Formula": "HNO3.Tl", "Melting Point": "206 \u00b0C", "Density": "5.556 g/cm\u00b3 @ Temp: 21 \u00b0C"}}