{"cas_no": "10109-95-2", "cn_name": "2,5-\u4e8c(\u82ef\u57fa\u6c28\u57fa)-1,4-\u82ef\u4e8c\u7532\u9178", "en_name": ["2,5-Dianilinoterephthalic acid", "1,4-Benzenedicarboxylic acid, 2,5-bis(phenylamino)-", "Terephthalic acid, 2,5-dianilino-", "2,5-Bis(phenylamino)-1,4-benzenedicarboxylic acid", "2,5-Dianilinoterephthalic acid", "2,5-Bis(phenylamino)terephthalic acid", "2,5-Di(phenylamino)terephthalic acid", "Anilic acid"], "SMILES": "N(C1=C(C(O)=O)C=C(NC2=CC=CC=C2)C(C(O)=O)=C1)C3=CC=CC=C3", "physical_data": {"Molecular Weight": "348.35", "Molecular Formula": "C20H16N2O4", "Melting Point": "308-312 \u00b0C (decomp)"}}