{"cas_no": "101007-06-1", "cn_name": "\u6c1f\u4e19\u83ca\u916f", "en_name": ["Acrinathrin", "Cyclopropanecarboxylic acid, 2,2-dimethyl-3-[(1Z)-3-oxo-3-[2,2,2-trifluoro-1-(trifluoromethyl)ethoxy]-1-propen-1-yl]-, (S)-cyano(3-phenoxyphenyl)methyl ester, (1R,3S)-", "Cyclopropanecarboxylic acid, 2,2-dimethyl-3-[3-oxo-3-[2,2,2-trifluoro-1-(trifluoromethyl)ethoxy]-1-propenyl]-, cyano(3-phenoxyphenyl)methyl ester, [1R-[1\u03b1(S*),3\u03b1(Z)]]-", "Cyclopropanecarboxylic acid, 2,2-dimethyl-3-[(1Z)-3-oxo-3-[2,2,2-trifluoro-1-(trifluoromethyl)ethoxy]-1-propenyl]-, (S)-cyano(3-phenoxyphenyl)methyl ester, (1R,3S)-", "Rufast", "RU 38702", "Acrinathrin", "HOE 076003", "NU 702", "Ardent", "Orytis", "ACR 50", "ACR 50 (pesticide)"], "SMILES": "C(OC(C#N)C1=CC(OC2=CC=CC=C2)=CC=C1)(=O)C3C(C=CC(OC(C(F)(F)F)C(F)(F)F)=O)C3(C)C", "physical_data": {"Molecular Weight": "541.44", "Molecular Formula": "C26H21F6NO5", "Melting Point": "81.5 \u00b0C"}}