{"cas_no": "10108-64-2", "cn_name": "\u6c2f\u5316\u9549", "en_name": ["Cadmium chloride", "Cadmium chloride (CdCl2)", "Cadmium dichloride", "Dichlorocadmium", "Cadmium chloride", "NSC 51148", "MeSH ID: D019256"], "SMILES": "[Cd](Cl)Cl", "physical_data": {"Molecular Weight": "", "Molecular Formula": "CdCl2", "Boiling Point": "960 \u00b0C", "Melting Point": "568 \u00b0C", "Density": "4.05 g/cm\u00b3"}}