{"cas_no": "101012-12-8", "cn_name": "2-\u6c2f-\u567b\u5511-5-\u7532\u9178", "en_name": ["2-Chloro-5-thiazolecarboxylic acid", "5-Thiazolecarboxylic acid, 2-chloro-", "2-Chloro-5-thiazolecarboxylic acid", "2-Chlorothiazole-5-carboxylic acid", "2-Chloro-1,3-thiazole-5-carboxylic acid"], "SMILES": "C(O)(=O)C=1SC(Cl)=NC1", "physical_data": {"Molecular Weight": "163.58", "Molecular Formula": "C4H2ClNO2S", "Melting Point": "165 \u00b0C"}}