{"cas_no": "10101-52-7", "cn_name": "\u7845\u9178\u9506", "en_name": ["Zirconium silicate (Zr(SiO4))", "Silicic acid (H4SiO4), zirconium(4+) salt (1:1)", "Zirconium silicate (Zr(SiO4))", "Silicon zirconium oxide (ZrSiO4)", "Zirconium silicon oxide (ZrSiO4)", "Zirconium silicate", "Silicon zirconium oxide (SiZrO4)", "Excelopax", "Zirconium orthosilicate (ZrSiO4)", "Micro-Pax", "Zircosil", "TAM 418", "Zirconium silicate (ZrO2.SiO2)", "Zirconium silicon oxide", "MZ 1000B", "Micro-Pax 20A", "Zircosil 1", "Zircon 30MY", "A-PAX-SA", "Oscal 1224", "Zirconium orthosilicate", "Micro-Pax SP", "Silicon zirconium oxide Si0.5Zr0.5O2", "Zirconium silicate (Zr0.5(SiO4)0.5)", "Zircon Flour 100", "Zircon Sand CRL", "Zirconium silicate (Zr0.5Si0.5O2)", "Minopet", "Micro-Pax SS", "Zircon Flour 600", "MZ 50B", "Micro-Pax S", "ZS B0.07", "A-PAX-UF", "OZ-S 1", "DM ZCA"], "SMILES": "[Si](O)(O)(O)O.[Zr]", "physical_data": {"Molecular Weight": "", "Molecular Formula": "H4O4Si.Zr", "Melting Point": "2550 \u00b0C", "Density": "4.560 g/cm\u00b3"}}