{"cas_no": "10101-58-3", "cn_name": "\u6c27\u5316\u94a8\u94b4", "en_name": ["Cobalt tungsten oxide (CoWO4)", "Cobalt tungsten oxide (CoWO4)", "Tungstic acid (H2WO4), cobalt(2+) salt (1:1)", "Cobalt tungstate(VI) (CoWO4)", "C.I. 77376", "Cobaltous tungstate", "Cobalt tungstate (CoWO4)", "Cobalt tungstate", "Cobalt wolframate", "Tungstocobaltic acid"], "SMILES": "[W].[Co].[O]", "physical_data": {"Molecular Weight": "", "Molecular Formula": "Co.O.W", "Melting Point": "1280 \u00b0C"}}