{"cas_no": "1010-48-6", "cn_name": "3-\u7532\u57fa-3-\u82ef\u57fa\u4e01\u9178", "en_name": ["3-Methyl-3-phenylbutanoic acid", "Benzenepropanoic acid, \u03b2,\u03b2-dimethyl-", "Hydrocinnamic acid, \u03b2,\u03b2-dimethyl-", "\u03b2,\u03b2-Dimethylbenzenepropanoic acid", "\u03b2-Phenylisovaleric acid", "3-Phenylisopentanoic acid", "3-Methyl-3-phenylbutyric acid", "3-Methyl-3-phenylbutanoic acid", "NSC 1046", "NSC 200697", "NSC 408029", "3,3-Dimethyl-3-phenylpropionic acid"], "SMILES": "C(CC(O)=O)(C)(C)C1=CC=CC=C1", "physical_data": {"Molecular Weight": "178.23", "Molecular Formula": "C11H14O2", "Boiling Point": "165-166 \u00b0C @ Press: 20 Torr", "Melting Point": "60 \u00b0C"}}