{"cas_no": "1011-54-7", "cn_name": "\u90bb\u7532\u6c27\u57fa\u6842\u76ae\u9178", "en_name": ["trans-2-Methoxycinnamic acid", "2-Propenoic acid, 3-(2-methoxyphenyl)-, (2E)-", "Cinnamic acid, o-methoxy-, (E)-", "2-Propenoic acid, 3-(2-methoxyphenyl)-, (E)-", "Cinnamic acid, o-methoxy-, trans-", "(2E)-3-(2-Methoxyphenyl)-2-propenoic acid", "trans-2-Methoxycinnamic acid", "(E)-o-Methoxycinnamic acid", "(E)-2-Methoxycinnamic acid", "(E)-3-(2-Methoxyphenyl)acrylic acid", "trans-3-(2-Methoxyphenyl)-2-propenoic acid", "trans-o-Methoxycinnamic acid", "(E)-3-(2-Methoxyphenyl)-2-propenoic acid", "(E)-2-Methoxycinnamic acid", "(E)-3-(2-Methoxyphenyl)acrylic acid", "(2E)-3-(2-Methoxyphenyl)prop-2-enoic acid"], "SMILES": "C(=CC(O)=O)C1=C(OC)C=CC=C1", "physical_data": {"Molecular Weight": "178.18", "Molecular Formula": "C10H10O3", "Melting Point": "182 \u00b0C"}}