{"cas_no": "10112-15-9", "cn_name": "N-\u4e59\u57fa-2-\u785d\u57fa\u82ef\u80fa", "en_name": ["N-Ethyl-2-nitrobenzenamine", "Benzenamine, N-ethyl-2-nitro-", "Aniline, N-ethyl-o-nitro-", "N-Ethyl-2-nitrobenzenamine", "o-(Ethylamino)nitrobenzene", "N-Ethyl-2-nitroaniline", "N-Ethyl-o-nitroaniline", "2-Nitro-N-ethylaniline", "Ethyl(2-nitrophenyl)amine"], "SMILES": "N(=O)(=O)C1=C(NCC)C=CC=C1", "physical_data": {"Molecular Weight": "166.18", "Molecular Formula": "C8H10N2O2", "Boiling Point": "70-71 \u00b0C @ Press: 0.5 Torr"}}