{"cas_no": "1011-47-8", "cn_name": "1-\u55b9\u5549-2-\u57fa\u4e59\u916e", "en_name": ["2-Acetylquinoline", "Ethanone, 1-(2-quinolinyl)-", "Ketone, methyl 2-quinolyl", "1-(2-Quinolinyl)ethanone", "2-Acetylquinoline", "NSC 256937", "1-(Quinolin-2-yl)ethanone", "Methyl 2-quinolyl ketone", "1-(Quinolin-2-yl)ethan-1-one"], "SMILES": "C(C)(=O)C1=NC2=C(C=C1)C=CC=C2", "physical_data": {"Molecular Weight": "171.20", "Molecular Formula": "C11H9NO", "Boiling Point": "146-148 \u00b0C @ Press: 13 Torr", "Melting Point": "52 \u00b0C"}}