{"cas_no": "1011-40-1", "cn_name": "2-\u82ef\u57fa-1,3-\u567b\u5511-5-\u7532\u919b", "en_name": ["2-Phenyl-5-thiazolecarboxaldehyde", "5-Thiazolecarboxaldehyde, 2-phenyl-", "2-Phenyl-5-thiazolecarboxaldehyde", "2-Phenylthiazole-5-carboxaldehyde", "2-Phenyl-1,3-thiazole-5-carboxaldehyde", "2-Phenylthiazole-5-carbaldehyde", "2-Phenyl-1,3-thiazole-5-carbaldehyde"], "SMILES": "C(=O)C=1SC(=NC1)C2=CC=CC=C2", "physical_data": {"Molecular Weight": "189.23", "Molecular Formula": "C10H7NOS", "Melting Point": "94.5 \u00b0C"}}