{"cas_no": "1011-13-8", "cn_name": "1-(2-\u6eb4\u82ef\u57fa)\u54cc\u55ea", "en_name": ["1-(2-Bromophenyl)piperazine", "Piperazine, 1-(2-bromophenyl)-", "Piperazine, 1-(o-bromophenyl)-", "1-(2-Bromophenyl)piperazine"], "SMILES": "BrC1=C(N2CCNCC2)C=CC=C1", "physical_data": {"Molecular Weight": "241.13", "Molecular Formula": "C10H13BrN2", "Boiling Point": "109-113 \u00b0C @ Press: 0.35 Torr"}}