{"cas_no": "1011-46-7", "cn_name": "4,5-\u4e8c\u6c22-6-\u82ef\u57fa-3(2H)-\u54d2\u55ea\u916e", "en_name": ["6-Phenyl-4,5-dihydro-3(2H)-pyridazinone", "3(2H)-Pyridazinone, 4,5-dihydro-6-phenyl-", "4,5-Dihydro-6-phenyl-3(2H)-pyridazinone", "6-Phenyl-4,5-dihydro-3(2H)-pyridazinone", "6-Phenyl-4,5-dihydropyridazin-3-one", "NSC 51995", "LY 032542", "1,4,5,6-Tetrahydro-3-phenyl-6-pyridazinone", "3-Phenyl-4,5-dihydro-1H-pyridazin-6-one"], "SMILES": "O=C1CCC(=NN1)C2=CC=CC=C2", "physical_data": {"Molecular Weight": "174.20", "Molecular Formula": "C10H10N2O", "Melting Point": "149-150 \u00b0C"}}