{"cas_no": "1011-92-3", "cn_name": "\u0391-\u6c30\u57fa\u8089\u6842\u9178", "en_name": ["\u03b1-Cyanocinnamic acid", "2-Propenoic acid, 2-cyano-3-phenyl-", "Cinnamic acid, \u03b1-cyano-", "2-Cyano-3-phenyl-2-propenoic acid", "\u03b1-Cyanocinnamic acid", "\u03b1-Cyano-\u03b2-phenylacrylic acid", "2-Cyanocinnamic acid", "2-Cyano-3-phenylacrylic acid", "NSC 298", "3-Phenyl-2-cyano-2-propenoic acid", "Benzylidene ethylcyanoacetane"], "SMILES": "C(=C(C(O)=O)C#N)C1=CC=CC=C1", "physical_data": {"Molecular Weight": "173.17", "Molecular Formula": "C10H7NO2", "Melting Point": "179-180 \u00b0C"}}