{"cas_no": "1011-15-0", "cn_name": "1-(2-\u6c1f\u82ef\u57fa)\u54cc\u55ea", "en_name": ["1-(2-Fluorophenyl)piperazine", "Piperazine, 1-(2-fluorophenyl)-", "Piperazine, 1-(o-fluorophenyl)-", "1-(2-Fluorophenyl)piperazine", "N-(2-Fluorophenyl)piperazine", "1-(o-Fluorophenyl)piperazine", "4-(2-Fluorophenyl)piperazine"], "SMILES": "FC1=C(N2CCNCC2)C=CC=C1", "physical_data": {"Molecular Weight": "180.22", "Molecular Formula": "C10H13FN2", "Boiling Point": "93 \u00b0C @ Press: 0.5 Torr", "Melting Point": "176.5-178.5 \u00b0C", "Density": "1.14 g/cm\u00b3"}}