{"cas_no": "1011-50-3", "cn_name": "2-(2-\u7f9f\u57fa\u7532\u57fa)\u55b9\u5549", "en_name": ["2-(Quinolin-2-yl)ethanol", "2-Quinolineethanol", "2-(2-Hydroxyethyl)quinoline", "NSC 409400", "2-(Quinolin-2-yl)ethanol", "2-(Quinolin-2-yl)ethan-1-ol"], "SMILES": "C(CO)C1=NC2=C(C=C1)C=CC=C2", "physical_data": {"Molecular Weight": "173.21", "Molecular Formula": "C11H11NO", "Boiling Point": "140-160 \u00b0C @ Press: 0.5 Torr", "Melting Point": "104 \u00b0C"}}