{"cas_no": "10114-49-5", "cn_name": "\u6eb6\u5242\u7ea2 207", "en_name": ["Solvent Red 207", "9,10-Anthracenedione, 1,5-bis[(3-methylphenyl)amino]-", "Anthraquinone, 1,5-di-m-toluidino-", "1,5-Bis[(3-methylphenyl)amino]-9,10-anthracenedione", "Solvent Red 207", "C.I. 617001", "C.I. Solvent Red 207", "1,5-Bis[(3-methylphenyl)amino]anthraquinone"], "SMILES": "N(C1=C2C(C(=O)C=3C(C2=O)=CC=CC3NC4=CC(C)=CC=C4)=CC=C1)C5=CC(C)=CC=C5", "physical_data": {"Molecular Weight": "418.49", "Molecular Formula": "C28H22N2O2", "Melting Point": "198 \u00b0C"}}