{"cas_no": "1011-74-1", "cn_name": "DL-\u53bb\u7532\u53d8\u80be\u4e0a\u817a\u7d20\u76d0\u9178\u76d0", "en_name": ["(\u00b1)-Normetanephrine hydrochloride", "Benzenemethanol, \u03b1-(aminomethyl)-4-hydroxy-3-methoxy-, hydrochloride (1:1)", "Vanillyl alcohol, \u03b1-(aminomethyl)-, hydrochloride, (\u00b1)-", "Benzenemethanol, \u03b1-(aminomethyl)-4-hydroxy-3-methoxy-, hydrochloride, (\u00b1)-", "Benzenemethanol, \u03b1-(aminomethyl)-4-hydroxy-3-methoxy-, hydrochloride", "(\u00b1)-Normetanephrine hydrochloride", "dl-Normetanephrine hydrochloride", "DL-Normetanephrine hydrochloride", "Normetadrenaline hydrochloride", "Normetanephrine hydrochloride", "(\u00b1)-\u03b1-(Aminomethyl)-4-hydroxy-3-methoxybenzyl alcohol hydrochloride"], "SMILES": "C(CN)(O)C1=CC(OC)=C(O)C=C1.Cl", "physical_data": {"Molecular Weight": "", "Molecular Formula": "C9H13NO3.ClH", "Melting Point": "192-193 \u00b0C"}}