{"cas_no": "101152-94-7", "cn_name": "\u76d0\u9178\u7c73\u90a3\u666e\u4ed1", "en_name": ["Milnacipran hydrochloride", "Cyclopropanecarboxamide, 2-(aminomethyl)-N,N-diethyl-1-phenyl-, hydrochloride (1:1), (1R,2S)-rel-", "Cyclopropanecarboxamide, 2-(aminomethyl)-N,N-diethyl-1-phenyl-, monohydrochloride, cis-(\u00b1)-", "Cyclopropanecarboxamide, 2-(aminomethyl)-N,N-diethyl-1-phenyl-, monohydrochloride, (1R,2S)-rel-", "F 2207", "Milnacipran hydrochloride", "Cyclopropanecarboxamide, 2-(aminomethyl)-N,N-diethyl-1-phenyl-, monohydrochloride, cis-", "Ixel", "Dalcipran", "Toledomin", "Savella", "Tivanyl", "Joncia"], "SMILES": "C(N(CC)CC)(=O)C1(C(CN)C1)C2=CC=CC=C2.Cl", "physical_data": {"Molecular Weight": "", "Molecular Formula": "C15H22N2O.ClH", "Melting Point": "181-189 \u00b0C"}}