{"cas_no": "10111-08-7", "cn_name": "2-\u54aa\u5511\u7532\u919b", "en_name": ["Imidazole-2-carboxaldehyde", "1H-Imidazole-2-carboxaldehyde", "Imidazole-2-carboxaldehyde", "2-Formylimidazole", "2-Imidazolecarbaldehyde", "2-Imidazolylformaldehyde", "1H-Imidazole-2-carbaldehyde", "Imidazole-2-formaldehyde"], "SMILES": "C(=O)C=1NC=CN1", "physical_data": {"Molecular Weight": "96.09", "Molecular Formula": "C4H4N2O", "Melting Point": "204 \u00b0C"}}