{"cas_no": "10112-91-1", "cn_name": "\u6c2f\u5316\u4e9a\u6c5e", "en_name": ["Mercury chloride (Hg2Cl2)", "Mercury chloride (Hg2Cl2)", "Mercury subchloride", "Calomel", "Mercurous chloride", "Calotab", "Calogreen", "Cyclosan", "Mercurous chloride (Hg2Cl2)", "Dimercury dichloride", "Mercury monochloride", "Precipite blanc", "Mild mercury chloride"], "SMILES": "[Hg]([Hg]Cl)Cl", "physical_data": {"Molecular Weight": "", "Molecular Formula": "Cl2Hg2", "Melting Point": "400 \u00b0C (sublm)", "Density": "7.15 g/cm\u00b3"}}