{"cas_no": "101140-06-1", "cn_name": "3,8''-BIAPIGENIN", "en_name": ["Biapigenin", "[3,8\u2032-Bi-4H-1-benzopyran]-4,4\u2032-dione, 5,5\u2032,7,7\u2032-tetrahydroxy-2,2\u2032-bis(4-hydroxyphenyl)-", "5,5\u2032,7,7\u2032-Tetrahydroxy-2,2\u2032-bis(4-hydroxyphenyl)[3,8\u2032-bi-4H-1-benzopyran]-4,4\u2032-dione", "I3,II8-Biapigenin", "3,8\u2032\u2032-Biapigenin", "8,3\u2032\u2032-Biapigenin", "Biapigenin"], "SMILES": "O=C1C(=C(OC=2C1=C(O)C=C(O)C2)C3=CC=C(O)C=C3)C4=C5C(C(=O)C=C(O5)C6=CC=C(O)C=C6)=C(O)C=C4O", "physical_data": {"Molecular Weight": "538.46", "Molecular Formula": "C30H18O10", "Melting Point": "258-260 \u00b0C"}}