{"cas_no": "10124-36-4", "cn_name": "\u786b\u9178\u9549", "en_name": ["Cadmium sulfate", "Sulfuric acid, cadmium salt (1:1)", "Cadmium sulfate", "Cadmium sulfate (Cd(SO4))", "Cadmium monosulfate", "Cadmium sulforicum"], "SMILES": "S(=O)(=O)(O)O.[Cd]", "physical_data": {"Molecular Weight": "", "Molecular Formula": "Cd.H2O4S", "Melting Point": "1000 \u00b0C", "Density": "4.691 g/cm\u00b3"}}