{"cas_no": "1012-72-2", "cn_name": "\u5bf9\u4e8c\u53d4\u4e01\u57fa\u82ef", "en_name": ["1,4-Di-tert-butylbenzene", "Benzene, 1,4-bis(1,1-dimethylethyl)-", "Benzene, p-di-tert-butyl-", "1,4-Bis(1,1-dimethylethyl)benzene", "p-Di-tert-butylbenzene", "1,4-Di-tert-butylbenzene", "p-Bis(tert-butyl)benzene", "NSC 6342", "1,4-Bis(tert-butyl)benzene", "1,4-Di-t-butylbenzene", "1,4-Ditert-butylbenzene"], "SMILES": "C(C)(C)(C)C1=CC=C(C(C)(C)C)C=C1", "physical_data": {"Molecular Weight": "190.32", "Molecular Formula": "C14H22", "Boiling Point": "238 \u00b0C", "Melting Point": "79.5 \u00b0C"}}