{"cas_no": "10129-78-9", "cn_name": "2,4-\u4e8c\u6eb4\u82ef\u6c27\u57fa\u4e59\u9178", "en_name": ["2,4-Dibromophenoxyacetic acid", "Acetic acid, 2-(2,4-dibromophenoxy)-", "Acetic acid, (2,4-dibromophenoxy)-", "2-(2,4-Dibromophenoxy)acetic acid", "2,4-Dibromophenoxyacetic acid"], "SMILES": "O(CC(O)=O)C1=C(Br)C=C(Br)C=C1", "physical_data": {"Molecular Weight": "309.94", "Molecular Formula": "C8H6Br2O3", "Melting Point": "151.8-153.5 \u00b0C"}}