{"cas_no": "101219-71-0", "cn_name": "(S)-1-(4-\u6c30\u57fa\u82ef\u57fa)\u4e59\u9187", "en_name": ["4-[(1S)-1-Hydroxyethyl]benzonitrile", "Benzonitrile, 4-[(1S)-1-hydroxyethyl]-", "Benzonitrile, 4-(1-hydroxyethyl)-, (S)-", "4-[(1S)-1-Hydroxyethyl]benzonitrile", "(S)-4-(1-Hydroxyethyl)benzonitrile", "(S)-1-(4-Cyanophenyl)ethanol"], "SMILES": "C(C)(O)C1=CC=C(C#N)C=C1", "physical_data": {"Molecular Weight": "147.17", "Molecular Formula": "C9H9NO", "Melting Point": "100 \u00b0C"}}