{"cas_no": "10128-72-0", "cn_name": "3-\u7f9f\u57fa\u5f02\u70df\u9178\u7532\u916f", "en_name": ["4-Pyridinecarboxylic acid, 3-hydroxy-, methyl ester", "4-Pyridinecarboxylic acid, 3-hydroxy-, methyl ester", "Isonicotinic acid, 3-hydroxy-, methyl ester", "Methyl 3-hydroxy-4-pyridinecarboxylate", "Methyl 3-hydroxyisonicotinate"], "SMILES": "C(OC)(=O)C=1C(O)=CN=CC1", "physical_data": {"Molecular Weight": "153.14", "Molecular Formula": "C7H7NO3", "Melting Point": "79-80 \u00b0C"}}