{"cas_no": "10124-37-5", "cn_name": "\u785d\u9178\u9499", "en_name": ["Calcium nitrate", "Nitric acid, calcium salt (2:1)", "Nitric acid, calcium salt", "Calcium nitrate", "Synfat 1006", "Calcium nitrate (Ca(NO3)2)", "Norway saltpeter", "Calcium dinitrate", "Norwegian saltpeter", "Norge saltpeter", "Nutriox"], "SMILES": "N(=O)(=O)O.[Ca]", "physical_data": {"Molecular Weight": "", "Molecular Formula": "Ca.2HNO3", "Melting Point": "~560 \u00b0C (approx)", "Density": "2.5 g/cm\u00b3 @ Temp: 25 \u00b0C"}}