{"cas_no": "10128-55-9", "cn_name": "N-[2-(4-\u6c27\u4ee3-4H-3,1-\u82ef\u4e19\u6076\u55ea-2-\u57fa)\u82ef\u57fa]-2-\u8418\u78fa\u9170\u80fa", "en_name": ["N-[2-(4-Oxo-4H-3,1-benzoxazin-2-yl)phenyl]-2-naphthalenesulfonamide", "2-Naphthalenesulfonamide, N-[2-(4-oxo-4H-3,1-benzoxazin-2-yl)phenyl]-", "2-Naphthalenesulfonanilide, 2\u2032-(4-oxo-4H-3,1-benzoxazin-2-yl)-", "4H-3,1-Benzoxazine, 2-naphthalenesulfonamide deriv.", "N-[2-(4-Oxo-4H-3,1-benzoxazin-2-yl)phenyl]-2-naphthalenesulfonamide", "Orlum White 520T", "Cartax CXDP", "Cartax DP", "Cartax CXDP Powder", "Cartax DP liquid"], "SMILES": "N(S(=O)(=O)C1=CC2=C(C=C1)C=CC=C2)C3=C(C=CC=C3)C4=NC=5C(C(=O)O4)=CC=CC5", "physical_data": {"Molecular Weight": "428.46", "Molecular Formula": "C24H16N2O4S", "Melting Point": "184.8-185.5 \u00b0C"}}