{"cas_no": "101200-48-0", "cn_name": "\u82ef\u78fa\u9686", "en_name": ["Tribenuron-methyl", "Benzoic acid, 2-[[[[(4-methoxy-6-methyl-1,3,5-triazin-2-yl)methylamino]carbonyl]amino]sulfonyl]-, methyl ester", "DPX-L 5300", "L 5300", "Express 75DF", "Express", "Sulfmethmeton-methyl", "Tribenuron methyl ester", "Cameo", "Cameo (pesticide)", "Tribenuron-methyl", "Express 50T", "HCHA 92HE", "Express (pesticide)", "Granstar", "Pointer", "YiLi", "Agrostar", "Granstar 75DF", "Quantum (plant growth regulator)", "Quantum", "Granstar Pro", "Granstar 75WG", "Helm-Tribi 75WG", "Korida 75 VDG", "Pointer 723WG", "Tribun", "DuPont Express with TotalSol", "Express SG", "Metometuron"], "SMILES": "S(NC(N(C)C=1N=C(OC)N=C(C)N1)=O)(=O)(=O)C2=C(C(OC)=O)C=CC=C2", "physical_data": {"Molecular Weight": "395.39", "Molecular Formula": "C15H17N5O6S", "Melting Point": "141 \u00b0C", "Density": "1.5 g/cm\u00b3"}}