{"cas_no": "1012-91-5", "cn_name": "1-(2,6-\u4e8c\u7532\u57fa\u82ef\u57fa)\u54cc\u55ea", "en_name": ["1-(2,6-Dimethylphenyl)piperazine", "Piperazine, 1-(2,6-dimethylphenyl)-", "Piperazine, 1-(2,6-xylyl)-", "1-(2,6-Dimethylphenyl)piperazine", "1-(2,6-Xylyl)piperazine", "4-(2,6-Dimethylphenyl)piperazine"], "SMILES": "CC1=C(C(C)=CC=C1)N2CCNCC2", "physical_data": {"Molecular Weight": "190.28", "Molecular Formula": "C12H18N2", "Boiling Point": "148 \u00b0C @ Press: 10 Torr"}}