{"cas_no": "1012-12-0", "cn_name": "4-\u4e09\u7532\u57fa\u7845\u6c27\u82ef\u7532\u919b", "en_name": ["4-[(Trimethylsilyl)oxy]benzaldehyde", "Benzaldehyde, 4-[(trimethylsilyl)oxy]-", "Benzaldehyde, p-(trimethylsiloxy)-", "4-[(Trimethylsilyl)oxy]benzaldehyde", "4-Trimethylsiloxybenzaldehyde", "4-(Trimethylsilyloxy)benzaldehyde", "p-[(Trimethylsilyl)oxy]benzaldehyde"], "SMILES": "O([Si](C)(C)C)C1=CC=C(C=O)C=C1", "physical_data": {"Molecular Weight": "194.30", "Molecular Formula": "C10H14O2Si", "Boiling Point": "83-84 \u00b0C @ Press: 3 Torr"}}