{"cas_no": "101246-66-6", "cn_name": "\u82ef\u4e1d\u6c28\u9178", "en_name": ["(-)-Phenserine", "Pyrrolo[2,3-b]indol-5-ol, 1,2,3,3a,8,8a-hexahydro-1,3a,8-trimethyl-, 5-(N-phenylcarbamate), (3aS,8aR)-", "Pyrrolo[2,3-b]indol-5-ol, 1,2,3,3a,8,8a-hexahydro-1,3a,8-trimethyl-, phenylcarbamate (ester), (3aS-cis)-", "Pyrrolo[2,3-b]indol-5-ol, 1,2,3,3a,8,8a-hexahydro-1,3a,8-trimethyl-, phenylcarbamate (ester), (3aS,8aR)-", "Phenserine", "(-)-Eseroline phenylcarbamate", "(-)-Phenserine", "(-)-N-Phenylcarbamoyleseroline"], "SMILES": "CC12C=3C(N(C)C1N(C)CC2)=CC=C(OC(NC4=CC=CC=C4)=O)C3", "physical_data": {"Molecular Weight": "337.42", "Molecular Formula": "C20H23N3O2", "Melting Point": "151-152 \u00b0C"}}