{"cas_no": "101219-73-2", "cn_name": "(S)-1-(4-\u6c1f\u82ef\u57fa)\u4e59\u9187", "en_name": ["(-)-1-(4-Fluorophenyl)ethanol", "Benzenemethanol, 4-fluoro-\u03b1-methyl-, (\u03b1S)-", "Benzenemethanol, 4-fluoro-\u03b1-methyl-, (S)-", "(\u03b1S)-4-Fluoro-\u03b1-methylbenzenemethanol", "(S)-1-(4-Fluorophenyl)ethanol", "S-4-Fluoro-\u03b1-methylbenzyl alcohol", "(-)-1-(4-Fluorophenyl)ethanol", "(-)-1-(p-Fluorophenyl)ethanol", "(S)-1-(4-Fluorophenyl)-1-ethanol", "(1S)-1-(4-Fluorophenyl)ethan-1-ol"], "SMILES": "C(C)(O)C1=CC=C(F)C=C1", "physical_data": {"Molecular Weight": "140.15", "Molecular Formula": "C8H9FO", "Boiling Point": "77 \u00b0C @ Press: 0.33 mbar"}}