{"cas_no": "10124-43-3", "cn_name": "\u786b\u9178\u94b4", "en_name": ["Cobalt sulfate", "Sulfuric acid, cobalt(2+) salt (1:1)", "Cobaltous sulfate", "Cobalt sulfate", "Cobalt sulfate (CoSO4)", "Cobalt sulfate (1:1)", "Cobalt(II) sulfate", "Cobalt(2+) sulfate", "Cobalt monosulfate"], "SMILES": "S(=O)(=O)(O)O.[Co]", "physical_data": {"Molecular Weight": "", "Molecular Formula": "Co.H2O4S", "Melting Point": "735 \u00b0C", "Density": "3.71 g/cm\u00b3 @ Temp: 25 \u00b0C"}}