{"cas_no": "101205-02-1", "cn_name": "\u8349\u567b\u5583(\u567b\u8349\u916e)", "en_name": ["Cycloxydim", "2-Cyclohexen-1-one, 2-[1-(ethoxyimino)butyl]-3-hydroxy-5-(tetrahydro-2H-thiopyran-3-yl)-", "2H-Thiopyran, 2-cyclohexen-1-one deriv.", "2-[1-(Ethoxyimino)butyl]-3-hydroxy-5-(tetrahydro-2H-thiopyran-3-yl)-2-cyclohexen-1-one", "BAS 517H", "BAS 517-02H", "BAS 51701H", "BAS 517", "Cycloxydim", "BAS 51704H", "Focus", "Focus Ultra", "Stratos", "Laser", "Focus Plus", "Laser (herbicide)", "Stratos Ultra"], "SMILES": "C(=NOCC)(CCC)C=1C(=O)CC(CC1O)C2CCCSC2", "physical_data": {"Molecular Weight": "325.47", "Molecular Formula": "C17H27NO3S", "Melting Point": "41 \u00b0C"}}