{"cas_no": "10138-59-7", "cn_name": "1,2-\u73af\u5df1\u70f7\u4e8c\u7532\u9178\u4e8c\u4e59\u916f", "en_name": ["1,2-Diethyl 1,2-cyclohexanedicarboxylate", "1,2-Cyclohexanedicarboxylic acid, 1,2-diethyl ester", "1,2-Cyclohexanedicarboxylic acid, diethyl ester", "1,2-Diethyl 1,2-cyclohexanedicarboxylate", "Diethyl hexahydrophthalate", "Diethyl cyclohexane-1,2-dicarboxylate", "NSC 408342"], "SMILES": "C(OCC)(=O)C1C(C(OCC)=O)CCCC1", "physical_data": {"Molecular Weight": "228.28", "Molecular Formula": "C12H20O4", "Boiling Point": "134-136 \u00b0C @ Press: 11 Torr", "Density": "1.0564 g/cm\u00b3 @ Temp: 20 \u00b0C"}}