{"cas_no": "10132-07-7", "cn_name": "4-\u6c28\u57fa-2,6-\u4e8c\u6c2f\u5627\u5576", "en_name": ["2,6-Dichloro-4-pyrimidinamine", "4-Pyrimidinamine, 2,6-dichloro-", "Pyrimidine, 4-amino-2,6-dichloro-", "2,6-Dichloro-4-pyrimidinamine", "4-Amino-2,6-dichloropyrimidine", "6-Amino-2,4-dichloropyrimidine", "2,6-Dichloro-4-aminopyrimidine", "2,4-Dichloro-6-aminopyrimidine", "NSC 51667", "2,6-Dichloropyrimidin-4-ylamine"], "SMILES": "ClC=1C=C(N)N=C(Cl)N1", "physical_data": {"Molecular Weight": "163.99", "Molecular Formula": "C4H3Cl2N3", "Melting Point": "270-272 \u00b0C"}}