{"cas_no": "10137-69-6", "cn_name": "\u73af\u5df1\u70ef\u57fa\u4e09\u6c2f\u7845\u70f7", "en_name": ["4-(Trichlorosilyl)cyclohexene", "Cyclohexene, 4-(trichlorosilyl)-", "Silane, trichloro-3-cyclohexen-1-yl-", "4-(Trichlorosilyl)cyclohexene", "3-Cyclohexenyltrichlorosilane", "1-(Trichlorosilyl)-3-cyclohexene", "Trichloro-3-cyclohexen-1-ylsilane"], "SMILES": "[Si](Cl)(Cl)(Cl)C1CCC=CC1", "physical_data": {"Molecular Weight": "215.58", "Molecular Formula": "C6H9Cl3Si", "Boiling Point": "87-88 \u00b0C @ Press: 16 Torr", "Density": "1.250 g/cm\u00b3"}}