{"cas_no": "1013-20-3", "cn_name": "\u65b0\u94dc\u94c1\u7075", "en_name": ["1-Naphthalenamine, N-hydroxy-N-nitroso-, ammonium salt (1:1)", "1-Naphthalenamine, N-hydroxy-N-nitroso-, ammonium salt (1:1)", "Hydroxylamine, N-1-naphthyl-N-nitroso-, ammonium salt", "Neocupferron", "1-Naphthalenamine, N-hydroxy-N-nitroso-, ammonium salt", "Hydroxylamine, N-1-naphthyl-N-nitroso-, ammonium deriv.", "\u03b1-Naphthylnitrosohydroxylamine ammonium salt"], "SMILES": "N(N=O)(O)C=1C2=C(C=CC1)C=CC=C2.N", "physical_data": {"Molecular Weight": "", "Molecular Formula": "C10H8N2O2.H3N", "Melting Point": "125 \u00b0C (decomp)"}}