{"cas_no": "10139-47-6", "cn_name": "\u7898\u5316\u950c", "en_name": ["Zinc iodide", "Zinc iodide (ZnI2)", "Zinc iodide", "Zinc diiodide", "NSC 39113"], "SMILES": "[Zn](I)I", "physical_data": {"Molecular Weight": "", "Molecular Formula": "I2Zn", "Melting Point": "446 \u00b0C", "Density": "4.74 g/cm\u00b3 @ Temp: 25 \u00b0C"}}