{"cas_no": "10138-32-6", "cn_name": "5-\u964d\u51b0\u7247\u70ef-2-\u7fa7\u9178\u4e59\u916f", "en_name": ["Ethyl bicyclo[2.2.1]hept-5-ene-2-carboxylate", "Bicyclo[2.2.1]hept-5-ene-2-carboxylic acid, ethyl ester", "5-Norbornene-2-carboxylic acid, ethyl ester", "Ethyl bicyclo[2.2.1]hept-5-ene-2-carboxylate", "5-Norbornenecarboxylic acid ethyl ester", "NSC 26489", "NSC 62714", "Ethyl 5-norbornene-2-carboxylate", "5-Ethoxycarbonylnorbornene"], "SMILES": "C(OCC)(=O)C1C2CC(C1)C=C2", "physical_data": {"Molecular Weight": "166.22", "Molecular Formula": "C10H14O2", "Boiling Point": "71-73 \u00b0C @ Press: 8 Torr", "Density": "1.0543 g/cm\u00b3 @ Temp: 25 \u00b0C"}}