{"cas_no": "1013-88-3", "cn_name": "\u4e8c\u82ef\u7532\u916e\u4e9a\u80fa", "en_name": ["Benzophenone imine", "Benzenemethanimine, \u03b1-phenyl-", "Methylenimine, 1,1-diphenyl-", "\u03b1-Phenylbenzenemethanimine", "Benzhydrylidenimine", "Diphenylketimine", "Diphenylmethanimine", "Benzophenone imine", "1,1-Diphenylmethylenimine", "Benzhydrylimine", "Benzophenonimine", "Iminodiphenylmethane", "1,1-Diphenylmethanimine"], "SMILES": "C(=N)(C1=CC=CC=C1)C2=CC=CC=C2", "physical_data": {"Molecular Weight": "181.23", "Molecular Formula": "C13H11N", "Boiling Point": "282 \u00b0C", "Density": "1.0939 g/cm\u00b3 @ Temp: 20 \u00b0C"}}