{"cas_no": "10130-89-9", "cn_name": "4-(\u6c2f\u78fa\u9170)\u82ef\u7532\u9178", "en_name": ["4-(Chlorosulfonyl)benzoic acid", "Benzoic acid, 4-(chlorosulfonyl)-", "Benzoic acid, p-(chlorosulfonyl)-", "4-(Chlorosulfonyl)benzoic acid", "p-Carboxybenzenesulfonyl chloride", "p-(Chlorosulfonyl)benzoic acid", "4-Carboxybenzenesulfonyl chloride", "4-Carboxyphenylsulfonyl chloride", "NSC 191087"], "SMILES": "S(Cl)(=O)(=O)C1=CC=C(C(O)=O)C=C1", "physical_data": {"Molecular Weight": "220.63", "Molecular Formula": "C7H5ClO4S", "Melting Point": "235 \u00b0C (decomp)"}}