{"cas_no": "101328-85-2", "cn_name": "(R)-6-(4-\u6c28\u57fa\u82ef\u57fa)-4,5-\u4e8c\u6c22-5-\u7532\u57fa-3(2H)-\u54d2\u55ea\u916e", "en_name": ["(5R)-6-(4-Aminophenyl)-4,5-dihydro-5-methyl-3(2H)-pyridazinone", "3(2H)-Pyridazinone, 6-(4-aminophenyl)-4,5-dihydro-5-methyl-, (5R)-", "3(2H)-Pyridazinone, 6-(4-aminophenyl)-4,5-dihydro-5-methyl-, (R)-", "(5R)-6-(4-Aminophenyl)-4,5-dihydro-5-methyl-3(2H)-pyridazinone", "OR 1855", "(R)-6-(4-Aminophenyl)-5-methyl-4,5-dihydropyridazin-3(2H)-one", "(5R)-6-(4-Aminophenyl)-5-methyl-2,3,4,5-tetrahydropyridazin-3-one", "(R)-6-(4-Aminophenyl)-4,5-dihydro-5-methyl-3(2H)-pyridazinone", "(4R)-3-(4-Aminophenyl)-4-methyl-4,5-dihydro-1H-pyridazin-6-one"], "SMILES": "CC1C(C2=CC=C(N)C=C2)=NNC(=O)C1", "physical_data": {"Molecular Weight": "203.24", "Molecular Formula": "C11H13N3O", "Melting Point": "201 \u00b0C"}}