{"cas_no": "1013-69-0", "cn_name": "\u53bb\u7532\u4e01\u9999\u8272\u539f\u916e", "en_name": ["Noreugenin", "4H-1-Benzopyran-4-one, 5,7-dihydroxy-2-methyl-", "Chromone, 5,7-dihydroxy-2-methyl-", "5,7-Dihydroxy-2-methyl-4H-1-benzopyran-4-one", "Noreugenin", "5,7-Dihydroxy-2-methylchromone", "2-Methyl-5,7-dihydroxychromone", "5,7-Dihydroxy-2-methylchromome", "RonaCare Luremin"], "SMILES": "O=C1C=2C(=CC(O)=CC2O)OC(C)=C1", "physical_data": {"Molecular Weight": "192.17", "Molecular Formula": "C10H8O4", "Melting Point": "279 \u00b0C"}}