{"cas_no": "101376-26-5", "cn_name": "(R)-(4-\u82c4\u57fa-3-\u5417\u5561\u5549)-\u7532\u9187", "en_name": ["(3R)-4-(Phenylmethyl)-3-morpholinemethanol", "3-Morpholinemethanol, 4-(phenylmethyl)-, (3R)-", "3-Morpholinemethanol, 4-(phenylmethyl)-, (R)-", "(3R)-4-(Phenylmethyl)-3-morpholinemethanol", "(R)-(4-Benzylmorpholin-3-yl)methanol", "(R)-(4-Benzylmorpholin-3-yl)methanol", "[(3R)-4-Benzylmorpholin-3-yl]methanol"], "SMILES": "C(N1C(CO)COCC1)C2=CC=CC=C2", "physical_data": {"Molecular Weight": "207.27", "Molecular Formula": "C12H17NO2", "Melting Point": "229-230 \u00b0C"}}