{"cas_no": "10137-67-4", "cn_name": "3-\u6c30\u57fa\u4e19\u9178\u4e59\u916f", "en_name": ["Propanoic acid, 3-cyano-, ethyl ester", "Propanoic acid, 3-cyano-, ethyl ester", "Propionic acid, 3-cyano-, ethyl ester", "3-Cyanopropionic acid, ethyl ester", "Ethyl 3-cyanopropanoate", "Ethyl 3-cyanopropionate", "NSC 94973", "3-Cyanopropanoic acid ethyl ester"], "SMILES": "C(CCC#N)(OCC)=O", "physical_data": {"Molecular Weight": "127.14", "Molecular Formula": "C6H9NO2", "Boiling Point": "114-115 \u00b0C @ Press: 18 Torr"}}