{"cas_no": "10138-89-3", "cn_name": "\u4e09\u7532\u6c27\u57fa\u4e01\u70f7", "en_name": ["1,1,3-Trimethoxybutane", "Butane, 1,1,3-trimethoxy-", "Butyraldehyde, 3-methoxy-, dimethyl acetal", "Butyraldehyde, \u03b2-methoxy-, dimethyl acetal", "1,1,3-Trimethoxybutane", "3-Methoxybutyraldehyde dimethyl acetal", "NSC 127599"], "SMILES": "C(CC(OC)C)(OC)OC", "physical_data": {"Molecular Weight": "148.20", "Molecular Formula": "C7H16O3", "Boiling Point": "157 \u00b0C", "Density": "0.9180 g/cm\u00b3 @ Temp: 20 \u00b0C"}}