{"cas_no": "1013-22-5", "cn_name": "1-(2,3-\u4e8c\u7532\u57fa\u82ef\u57fa)\u54cc\u5576", "en_name": ["1-(2,3-Dimethylphenyl)piperazine", "Piperazine, 1-(2,3-dimethylphenyl)-", "Piperazine, 1-(2,3-xylyl)-", "1-(2,3-Dimethylphenyl)piperazine", "N-(2,3-Dimethylphenyl)piperazine", "4-(2,3-Dimethylphenyl)piperazine", "1-(2,3-Xylyl)piperazine"], "SMILES": "CC1=C(C=CC=C1C)N2CCNCC2", "physical_data": {"Molecular Weight": "190.28", "Molecular Formula": "C12H18N2", "Boiling Point": "110-113 \u00b0C @ Press: 1 Torr"}}