{"cas_no": "101385-90-4", "cn_name": "(S)-3-\u7f9f\u57fa-1-\u82c4\u57fa\u5421\u54af\u70f7", "en_name": ["(3S)-1-(Phenylmethyl)-3-pyrrolidinol", "3-Pyrrolidinol, 1-(phenylmethyl)-, (3S)-", "3-Pyrrolidinol, 1-(phenylmethyl)-, (S)-", "(3S)-1-(Phenylmethyl)-3-pyrrolidinol", "S-(-)-1-Benzyl-3-hydroxypyrrolidine", "(S)-1-(Phenylmethyl)-3-pyrrolidinol", "(S)-1-Benzyl-3-hydroxypyrrolidine", "1-Benzyl-3(S)-pyrrolidinol", "(S)-1-Benzyl-3-pyrrolidinol", "(S)-N-Benzyl-3-hydroxypyrrolidine", "(3S)-N-Benzyl-3-hydroxypyrrolidine", "(3S)-1-Benzylpyrrolidin-3-ol", "(-)-(3S)-1-(phenylmethyl)-3-pyrrolidinol", "3-Pyrrolidinol 1-(phenylmethyl)-, (3S)-"], "SMILES": "C(N1CCC(O)C1)C2=CC=CC=C2", "physical_data": {"Molecular Weight": "177.24", "Molecular Formula": "C11H15NO", "Boiling Point": "89-90 \u00b0C @ Press: 1 Torr"}}