{"cas_no": "1013-76-9", "cn_name": "1-(2,4-\u4e8c\u7532\u57fa\u82ef\u57fa)\u54cc\u55ea", "en_name": ["1-(2,4-Dimethylphenyl)piperazine", "Piperazine, 1-(2,4-dimethylphenyl)-", "Piperazine, 1-(2,4-xylyl)-", "1-(2,4-Dimethylphenyl)piperazine", "1-(2,4-Xylyl)piperazine", "N-(2,4-Xylyl)piperazine", "N-(2,4-Dimethylphenyl)piperazine", "4-(2,4-Dimethylphenyl)piperazine"], "SMILES": "CC1=C(N2CCNCC2)C=CC(C)=C1", "physical_data": {"Molecular Weight": "190.28", "Molecular Formula": "C12H18N2", "Boiling Point": "153 \u00b0C @ Press: 10 Torr", "Melting Point": "29-34 \u00b0C"}}