{"cas_no": "10138-52-0", "cn_name": "\u6c2f\u5316\u9486", "en_name": ["Gadolinium chloride", "Gadolinium chloride (GdCl3)", "Gadolinium trichloride", "Gadolinium chloride", "Gadolinium(III) chloride", "NSC 174322"], "SMILES": "[Gd](Cl)(Cl)Cl", "physical_data": {"Molecular Weight": "", "Molecular Formula": "Cl3Gd", "Melting Point": "609 \u00b0C"}}