{"cas_no": "10138-62-2", "cn_name": "\u6c2f\u5316\u94ac", "en_name": ["Holmium chloride", "Holmium chloride (HoCl3)", "Holmium trichloride", "Holmium chloride", "Holmium(III) chloride", "NSC 177680"], "SMILES": "[Ho](Cl)(Cl)Cl", "physical_data": {"Molecular Weight": "", "Molecular Formula": "Cl3Ho", "Melting Point": "718 \u00b0C"}}