{"cas_no": "1013-23-6", "cn_name": "\u4e8c\u82ef\u5e76\u567b\u54295-\u6c27\u5316\u7269", "en_name": ["Dibenzothiophene sulfoxide", "Dibenzothiophene, 5-oxide", "Dibenzothiophene S-oxide", "Dibenzothiophene sulfoxide", "Dibenzosulfoxide", "NSC 170577", "NSC 633010", "Dibenzo[b,d]thiophene 5-oxide"], "SMILES": "O=S1C=2C(C=3C1=CC=CC3)=CC=CC2", "physical_data": {"Molecular Weight": "200.26", "Molecular Formula": "C12H8OS", "Melting Point": "188-188.5 \u00b0C"}}