{"cas_no": "1013405-25-8", "cn_name": "35DCZPPY", "en_name": ["9,9\u2032-(3,5-Pyridinediyldi-3,1-phenylene)bis[9H-carbazole]", "9H-Carbazole, 9,9\u2032-(3,5-pyridinediyldi-3,1-phenylene)bis-", "9,9\u2032-(3,5-Pyridinediyldi-3,1-phenylene)bis[9H-carbazole]", "3,5-Bis[3-(9H-carbazol-9-yl)phenyl]pyridine"], "SMILES": "N1(C=2C(C=3C1=CC=CC3)=CC=CC2)C4=CC(=CC=C4)C=5C=C(C=NC5)C6=CC(=CC=C6)N7C=8C(C=9C7=CC=CC9)=CC=CC8", "physical_data": {"Molecular Weight": "561.67", "Molecular Formula": "C41H27N3", "Melting Point": "237 \u00b0C"}}