{"cas_no": "1013-25-8", "cn_name": "1-(2,5-\u4e8c\u7532\u57fa\u82ef\u57fa)\u54cc\u55ea", "en_name": ["1-(2,5-Dimethylphenyl)piperazine", "Piperazine, 1-(2,5-dimethylphenyl)-", "Piperazine, 1-(2,5-xylyl)-", "1-(2,5-Dimethylphenyl)piperazine", "1-(2,5-Xylyl)piperazine", "N-2,5-Xylylpiperazine", "N-(2,5-Dimethylphenyl)piperazine"], "SMILES": "CC1=C(C=C(C)C=C1)N2CCNCC2", "physical_data": {"Molecular Weight": "190.28", "Molecular Formula": "C12H18N2", "Boiling Point": "105-108 \u00b0C @ Press: 1 Torr"}}