{"cas_no": "10138-41-7", "cn_name": "\u4e09\u6c2f\u5316\u94d2", "en_name": ["Erbium chloride", "Erbium chloride (ErCl3)", "Erbium trichloride", "Erbium(III) chloride", "Erbium trichloride (ErCl3)", "Erbium chloride", "Erbium(3+) chloride"], "SMILES": "[Er](Cl)(Cl)Cl", "physical_data": {"Molecular Weight": "", "Molecular Formula": "Cl3Er", "Melting Point": "774 \u00b0C"}}