{"cas_no": "101420-67-1", "cn_name": "4-\u7532\u57fa-5-\u785d\u57fa-1H-\u5432\u5511", "en_name": ["4-Methyl-5-nitro-1H-indazole", "1H-Indazole, 4-methyl-5-nitro-", "4-Methyl-5-nitro-1H-indazole"], "SMILES": "CC1=C2C(=CC=C1N(=O)=O)NN=C2", "physical_data": {"Molecular Weight": "177.16", "Molecular Formula": "C8H7N3O2", "Melting Point": "251-253 \u00b0C"}}