{"cas_no": "101494-95-5", "cn_name": "8-\u6c2f\u55b9\u5511\u5549-4(1H)-\u916e", "en_name": ["8-Chloro-4(3H)-quinazolinone", "4(3H)-Quinazolinone, 8-chloro-", "4(1H)-Quinazolinone, 8-chloro-", "8-Chloro-4(3H)-quinazolinone", "8-Chloroquinazolin-4(3H)-one"], "SMILES": "O=C1C=2C(=C(Cl)C=CC2)NC=N1", "physical_data": {"Molecular Weight": "180.59", "Molecular Formula": "C8H5ClN2O", "Melting Point": "299-300 \u00b0C"}}