{"cas_no": "101463-69-8", "cn_name": "\u6c1f\u866b\u8132", "en_name": ["Flufenoxuron", "Benzamide, N-[[[4-[2-chloro-4-(trifluoromethyl)phenoxy]-2-fluorophenyl]amino]carbonyl]-2,6-difluoro-", "N-[[[4-[2-Chloro-4-(trifluoromethyl)phenoxy]-2-fluorophenyl]amino]carbonyl]-2,6-difluorobenzamide", "Flufenoxuron", "WL 115110", "Cascade", "Cascade (pesticide)"], "SMILES": "C(NC(NC1=C(F)C=C(OC2=C(Cl)C=C(C(F)(F)F)C=C2)C=C1)=O)(=O)C3=C(F)C=CC=C3F", "physical_data": {"Molecular Weight": "488.77", "Molecular Formula": "C21H11ClF6N2O3", "Melting Point": "171 \u00b0C (decomp)"}}