{"cas_no": "10143-60-9", "cn_name": "\u4e8c(2-\u4e59\u57fa\u5df1\u57fa)\u919a", "en_name": ["Di(2-ethylhexyl)ether", "Heptane, 3,3\u2032-[oxybis(methylene)]bis-", "Ether, bis(2-ethylhexyl)", "3,3\u2032-[Oxybis(methylene)]bis[heptane]", "Di(2-ethylhexyl)ether", "Ethylhexyl oxide", "Bis(2-ethylhexyl) ether"], "SMILES": "C(COCC(CCCC)CC)(CCCC)CC", "physical_data": {"Molecular Weight": "242.44", "Molecular Formula": "C16H34O", "Boiling Point": "269.4 \u00b0C"}}