{"cas_no": "1014-70-6", "cn_name": "\u897f\u8349\u51c0", "en_name": ["Simetryn", "1,3,5-Triazine-2,4-diamine, N2,N4-diethyl-6-(methylthio)-", "s-Triazine, 2,4-bis(ethylamino)-6-(methylthio)-", "1,3,5-Triazine-2,4-diamine, N,N\u2032-diethyl-6-(methylthio)-", "N2,N4-Diethyl-6-(methylthio)-1,3,5-triazine-2,4-diamine", "G 32911", "2,4-Bis(ethylamino)-6-methylmercapto-s-triazine", "2-Methylmercapto-4,6-bis(ethylamino)-s-triazine", "2-Methylthio-4,6-bis(ethylamino)-s-triazine", "Simetryn", "Simetryne", "4,6-Bis(ethylamino)-2-methylthio-1,3,5-triazine", "2-Methylthio-4-ethylamino-6-ethylamino-s-triazine", "2-Methylthio-4,6-bis(ethylamino)-1,3,5-triazine", "2,4-Diethylamino-6-methylthio-1,3,5-triazine", "6-Methylthio-2,4-bis(ethylamino)-s-triazine", "2,4-Bis(ethylamino)-6-methylthio-1,3,5-triazine", "NSC 163051", "N,N\u2032-Diethyl-6-(methylthio)-1,3,5-triazine-2,4-diamine", "Gybon"], "SMILES": "N(CC)C=1N=C(NCC)N=C(SC)N1", "physical_data": {"Molecular Weight": "213.30", "Molecular Formula": "C8H15N5S", "Melting Point": "82.5 \u00b0C"}}