{"cas_no": "10147-37-2", "cn_name": "\u5f02\u4e19\u57fa\u78fa\u9170\u6c2f", "en_name": ["2-Propanesulfonyl chloride", "2-Propanesulfonyl chloride", "Isopropanesulfonyl chloride", "Isopropylsulfonyl chloride", "2-Propylsulfonyl chloride", "i-Propanesulfonyl chloride", "1-Methylethylsulfonyl chloride", "Isopropyl-2-sulfonyl chloride", "Propan-2-ylsulfonyl chloride", "Propan-2-sulfonyl chloride"], "SMILES": "S(C(C)C)(Cl)(=O)=O", "physical_data": {"Molecular Weight": "142.60", "Molecular Formula": "C3H7ClO2S", "Boiling Point": "71-73 \u00b0C @ Press: 13 Torr", "Melting Point": "-47 \u00b0C", "Density": "1.2645 g/cm\u00b3 @ Temp: 20 \u00b0C"}}