{"cas_no": "101421-72-1", "cn_name": "6-\u6c28\u57fa\u55b9\u5511\u5549", "en_name": ["6-Quinazolinamine", "6-Quinazolinamine", "Quinazoline, 6-amino-", "6-Aminoquinazoline", "Quinazolin-6-ylamine"], "SMILES": "NC1=CC2=C(C=C1)N=CN=C2", "physical_data": {"Molecular Weight": "145.16", "Molecular Formula": "C8H7N3", "Melting Point": "213.5-214 \u00b0C (sublm)"}}