{"cas_no": "10147-40-7", "cn_name": "\u5341\u4e8c\u70f7\u57fa\u78fa\u9170\u6c2f", "en_name": ["1-Dodecanesulfonyl chloride", "1-Dodecanesulfonyl chloride", "Dodecylsulfonyl chloride", "NSC 94098", "Dodecanesulfonyl chloride"], "SMILES": "C(CCCCCCCCC)CCS(Cl)(=O)=O", "physical_data": {"Molecular Weight": "268.84", "Molecular Formula": "C12H25ClO2S", "Boiling Point": "60-127 \u00b0C @ Press: 6 Torr", "Melting Point": "42-43 \u00b0C", "Density": "1.04 g/cm\u00b3 @ Temp: 20 \u00b0C"}}