{"cas_no": "10141-05-6", "cn_name": "\u785d\u9178\u94b4", "en_name": ["Cobalt dinitrate", "Nitric acid, cobalt(2+) salt (2:1)", "Nitric acid, cobalt(2+) salt", "Cobalt nitrate (Co(NO3)2)", "Cobaltous nitrate", "Cobalt dinitrate", "Cobalt(2+) nitrate", "Cobalt(II) nitrate", "Cobalt bis(nitrate)", "Cobalt nitrate", "3N5"], "SMILES": "N(=O)(=O)O.[Co]", "physical_data": {"Molecular Weight": "", "Molecular Formula": "Co.2HNO3", "Melting Point": "100-105 \u00b0C (decomp)", "Density": "2.49 g/cm\u00b3"}}