{"cas_no": "1014-81-9", "cn_name": "3-(\u4e09\u6c1f\u7532\u6c27\u57fa)\u82ef\u7532\u9178", "en_name": ["3-(Trifluoromethoxy)benzoic acid", "Benzoic acid, 3-(trifluoromethoxy)-", "m-Anisic acid, \u03b1,\u03b1,\u03b1-trifluoro-", "3-(Trifluoromethoxy)benzoic acid"], "SMILES": "O(C(F)(F)F)C1=CC(C(O)=O)=CC=C1", "physical_data": {"Molecular Weight": "206.12", "Molecular Formula": "C8H5F3O3", "Melting Point": "91-92 \u00b0C"}}