{"cas_no": "101469-92-5", "cn_name": "(S)-1-N-\u53d4\u4e01\u6c27\u7fb0\u57fa-3-\u7f9f\u57fa\u5421\u54af\u70f7", "en_name": ["1-Pyrrolidinecarboxylic acid, 3-hydroxy-, 1,1-dimethylethyl ester, (3S)-", "1-Pyrrolidinecarboxylic acid, 3-hydroxy-, 1,1-dimethylethyl ester, (3S)-", "1-Pyrrolidinecarboxylic acid, 3-hydroxy-, 1,1-dimethylethyl ester, (S)-", "(S)-3-Hydroxypyrrolidine-1-carboxylic acid tert-butyl ester", "(S)-(+)-N-(tert-Butoxycarbonyl)-3-hydroxypyrrolidine", "tert-Butyl (3S)-3-hydroxypyrrolidine-1-carboxylate", "(3S)-N-tert-Butoxycarbonylpyrrolidin-3-ol", "(3S)-Hydroxypyrrolidine-1-carboxylic acid tert-butyl ester", "(3S)-3-Hydroxypyrrolidine-1-carboxylic acid tert-butyl ester", "tert-Butyl (S)-3-hydroxypyrrolidine-1-carboxylate", "(S)-1-tert-Butoxycarbonyl-3-hydroxypyrrolidine", "(3S)-1-Boc-3-hydroxypyrrolidine", "(3S)-1-tert-Butoxycarbonyl-3-pyrrolidinol", "1,1-Dimethylethyl (3S)-3-hydroxy-1-pyrrolidinecarboxylate", "(S)-N-(t-Butyloxycarbonyl)-3-hydroxypyrrolidine", "(S)-(+)-N-(tert-Butoxycarbonyl)-3-pyrrolidinol", "N-Boc-(S)-3-hydroxypyrrolidine", "(S)-tert-Butyl 3-hydroxypyrrolidine-1-carboxylate", "N-tert-Butoxycarbonyl-(S)-3-pyrrolidinol", "N-[(tert-Butoxy)carbonyl]-(S)-3-hydroxypyrrolidine", "1,1-Dimethylethyl (3S)-3-hydroxy-1-pyrrolidinecarboxylate", "(S)-(+)-N-Boc-3-hydroxypyrrolidine", "(S)-N-Boc-3-hydroxypyrrolidine", "(+)-N-Boc-3-hydroxypyrrolidine", "(S)-N-(tert-Butoxycarbonyl)-3-hydroxypyrrolidine", "tert-Butyl (3S)-3-hydroxypyrrolidine-1-carboxylate", "1,1-Dimethylethyl (3S)-3-hydroxypyrrolidine-1-carboxylate", "(S)-1-N-Boc-3-pyrrolidinol", "(S)-1-(tert-Butoxycarbonyl)-3-pyrrolidinol", "(S)-3-Hydroxy-1-(tert-butoxycarbonyl)pyrrolidine", "(S)-N-Boc-3-pyrrolidinol", "(S)-3-Hydroxy-1-Boc-pyrrolidine", "(S)-(+)-1-Boc-3-hydroxypyrrolidine", "tert-Butyl (1S)-3-hydroxypyrrolidine-1-carboxylate"], "SMILES": "C(OC(C)(C)C)(=O)N1CCC(O)C1", "physical_data": {"Molecular Weight": "187.24", "Molecular Formula": "C9H17NO3", "Melting Point": "60-61 \u00b0C"}}