{"cas_no": "10140-89-3", "cn_name": "\u4e8c\u6c2f\u4e19\u919b", "en_name": ["2,3-Dichloropropanal", "Propanal, 2,3-dichloro-", "Propionaldehyde, 2,3-dichloro-", "2,3-Dichloropropanal", "\u03b1,\u03b2-Dichloropropionaldehyde", "2,3-Dichloropropionaldehyde"], "SMILES": "C(CCl)(C=O)Cl", "physical_data": {"Molecular Weight": "126.97", "Molecular Formula": "C3H4Cl2O", "Boiling Point": "48 \u00b0C @ Press: 14 Torr", "Density": "1.426 g/cm\u00b3 @ Temp: 0 \u00b0C"}}