{"cas_no": "101477-54-7", "cn_name": "\u76d0\u9178\u6d1b\u7f8e\u5229\u55ea", "en_name": ["Piperazine, 1-[bis(4-fluorophenyl)methyl]-4-[(2,3,4-trimethoxyphenyl)methyl]-, hydrochloride (1:2)", "Piperazine, 1-[bis(4-fluorophenyl)methyl]-4-[(2,3,4-trimethoxyphenyl)methyl]-, hydrochloride (1:2)", "Piperazine, 1-[bis(4-fluorophenyl)methyl]-4-[(2,3,4-trimethoxyphenyl)methyl]-, dihydrochloride", "KB 2796", "Lomerizine dihydrochloride", "Lomerizine hydrochloride"], "SMILES": "C(N1CCN(CC2=C(OC)C(OC)=C(OC)C=C2)CC1)(C3=CC=C(F)C=C3)C4=CC=C(F)C=C4.Cl", "physical_data": {"Molecular Weight": "", "Molecular Formula": "C27H30F2N2O3.2ClH", "Melting Point": "214-218 \u00b0C (decomp)"}}