{"cas_no": "1014-69-3", "cn_name": "\u654c\u8349\u51c0", "en_name": ["Desmetryn", "1,3,5-Triazine-2,4-diamine, N2-methyl-N4-(1-methylethyl)-6-(methylthio)-", "s-Triazine, 2-(isopropylamino)-4-(methylamino)-6-(methylthio)-", "1,3,5-Triazine-2,4-diamine, N-methyl-N\u2032-(1-methylethyl)-6-(methylthio)-", "N2-Methyl-N4-(1-methylethyl)-6-(methylthio)-1,3,5-triazine-2,4-diamine", "G 34360", "Desmetryne", "2-Isopropylamino-4-methylamino-6-methylmercapto-s-triazine", "2-Isopropylamino-4-methylamino-6-methylthio-1,3,5-triazine", "Methylmercapto-4-isopropylamino-6-methylamino-s-triazine", "2-Methylthio-4-isopropylamino-6-methylamino-s-triazine", "Semeron", "2-(Methylthio)-4-(methylamino)-6-(isopropylamino)-s-triazine", "2-Methylmercapto-4-methylamino-6-isopropylamino-s-triazine", "Semeron 25", "Desmetryn", "Norametryne", "Topusyn", "Semeron 250", "GS 34360"], "SMILES": "N(C(C)C)C=1N=C(NC)N=C(SC)N1", "physical_data": {"Molecular Weight": "213.30", "Molecular Formula": "C8H15N5S", "Boiling Point": "345 \u00b0C", "Melting Point": "84-86 \u00b0C", "Density": "1.172 g/cm\u00b3 @ Temp: 20 \u00b0C"}}