{"cas_no": "1014-05-7", "cn_name": "1-(3,4-\u4e8c\u7532\u57fa\u82ef\u57fa)\u54cc\u55ea", "en_name": ["1-(3,4-Dimethylphenyl)piperazine", "Piperazine, 1-(3,4-dimethylphenyl)-", "Piperazine, 1-(3,4-xylyl)-", "1-(3,4-Dimethylphenyl)piperazine", "N-(3,4-Dimethylphenyl)piperazine", "1-(3,4-Xylyl)piperazine", "N-3,4-Xylylpiperazine", "4-(3,4-Dimethylphenyl)piperazine"], "SMILES": "CC=1C=C(C=CC1C)N2CCNCC2", "physical_data": {"Molecular Weight": "190.28", "Molecular Formula": "C12H18N2", "Boiling Point": "175 \u00b0C @ Press: 10 Torr", "Melting Point": "62 \u00b0C"}}