{"cas_no": "10147-36-1", "cn_name": "\u4e19\u57fa\u78fa\u9170\u6c2f", "en_name": ["Propanesulfonyl chloride", "1-Propanesulfonyl chloride", "Propanesulfonyl chloride", "Propylsulfonyl chloride", "n-Propanesulfonyl chloride", "Propan-1-sulfonyl chloride", "Propane-1-sulfonyl chloride"], "SMILES": "C(S(Cl)(=O)=O)CC", "physical_data": {"Molecular Weight": "142.60", "Molecular Formula": "C3H7ClO2S", "Boiling Point": "76-78 \u00b0C @ Press: 13 Torr", "Melting Point": "-37 \u00b0C", "Density": "1.2728 g/cm\u00b3 @ Temp: 20 \u00b0C"}}