{"cas_no": "10140-70-2", "cn_name": "\u5f2f\u5b62\u9709\u83cc\u7d20", "en_name": ["(-)-Curvularin", "2H-3-Benzoxacyclododecin-2,10(1H)-dione, 4,5,6,7,8,9-hexahydro-11,13-dihydroxy-4-methyl-, (4S)-", "2H-3-Benzoxacyclododecin-2,10(1H)-dione, 4,5,6,7,8,9-hexahydro-11,13-dihydroxy-4-methyl-", "Curvularin", "2H-3-Benzoxacyclododecin-2,10(1H)-dione, 4,5,6,7,8,9-hexahydro-11,13-dihydroxy-4-methyl-, (S)-", "(4S)-4,5,6,7,8,9-Hexahydro-11,13-dihydroxy-4-methyl-2H-3-benzoxacyclododecin-2,10(1H)-dione", "(-)-(S)-Curvularin", "(-)-Curvularin", "NSC 166071", "(S)-Curvularin"], "SMILES": "OC1=C2C(=CC(O)=C1)CC(=O)OC(C)CCCCCC2=O", "physical_data": {"Molecular Weight": "292.33", "Molecular Formula": "C16H20O5", "Melting Point": "205-207 \u00b0C"}}