{"cas_no": "1015082-78-6", "cn_name": "4-\u7f9f\u7532\u57fa\u82ef\u57fa\u4e09\u6c1f\u787c\u9178\u94be", "en_name": ["Borate(1-), trifluoro[4-(hydroxymethyl)phenyl]-, potassium (1:1), (T-4)-", "Borate(1-), trifluoro[4-(hydroxymethyl)phenyl]-, potassium (1:1), (T-4)-"], "SMILES": "[B+3]([F-])([F-])([F-])[C-]=1C=CC(CO)=CC1.[K+]", "physical_data": {"Molecular Weight": "", "Molecular Formula": "C7H7BF3O.K", "Melting Point": "211 \u00b0C"}}