{"cas_no": "10150-93-3", "cn_name": "(E)-4-\u6c27\u4ee3-2-\u620a\u70ef\u9178\u4e59\u916f", "en_name": ["Ethyl (2E)-4-oxo-2-pentenoate", "2-Pentenoic acid, 4-oxo-, ethyl ester, (2E)-", "2-Pentenoic acid, 4-oxo-, ethyl ester, (E)-", "Ethyl (2E)-4-oxo-2-pentenoate", "Ethyl trans-4-oxo-2-pentenoate", "(E)-Ethyl 4-oxo-2-pentenoate"], "SMILES": "C(C=CC(C)=O)(OCC)=O", "physical_data": {"Molecular Weight": "142.15", "Molecular Formula": "C7H10O3", "Boiling Point": "86-87 \u00b0C @ Press: 12 Torr", "Melting Point": "-25 \u00b0C"}}