{"cas_no": "10157-76-3", "cn_name": "\u5bf9\u7532\u82ef\u78fa\u9178\u5341\u4e8c\u916f", "en_name": ["Dodecyl 4-methylbenzenesulfonate", "Benzenesulfonic acid, 4-methyl-, dodecyl ester", "p-Toluenesulfonic acid, dodecyl ester", "Dodecyl alcohol, p-toluenesulfonate", "Dodecyl 4-methylbenzenesulfonate", "Dodecyl p-toluenesulfonate", "Dodecyl tosylate", "n-Dodecyl p-toluenesulfonate", "1-Dodecyl p-tosylate", "n-Dodecyl tosylate", "Lauryl tosylate", "4-Methylbenzenesulfonic acid dodecyl ester"], "SMILES": "S(OCCCCCCCCCCCC)(=O)(=O)C1=CC=C(C)C=C1", "physical_data": {"Molecular Weight": "340.52", "Molecular Formula": "C19H32O3S", "Melting Point": "30 \u00b0C"}}