{"cas_no": "101580-70-5", "cn_name": "1,2-\u4e8c\u6eb4-4-\u7532\u57fa-5-\u785d\u57fa\u82ef", "en_name": ["1,2-Dibromo-4-methyl-5-nitrobenzene", "Benzene, 1,2-dibromo-4-methyl-5-nitro-", "Toluene, 4,5-dibromo-2-nitro-", "1,2-Dibromo-4-methyl-5-nitrobenzene", "4,5-Dibromo-2-nitrotoluene"], "SMILES": "N(=O)(=O)C1=C(C)C=C(Br)C(Br)=C1", "physical_data": {"Molecular Weight": "294.93", "Molecular Formula": "C7H5Br2NO2", "Melting Point": "90.5-91.5 \u00b0C"}}