{"cas_no": "10151-02-7", "cn_name": "N-(1,1,3,3-\u56db\u7532\u57fa\u4e01\u57fa)\u7532\u9170\u80fa", "en_name": ["N-(1,1,3,3-Tetramethylbutyl)formamide", "Formamide, N-(1,1,3,3-tetramethylbutyl)-", "N-(1,1,3,3-Tetramethylbutyl)formamide"], "SMILES": "C(C(NC=O)(C)C)C(C)(C)C", "physical_data": {"Molecular Weight": "157.25", "Molecular Formula": "C9H19NO", "Boiling Point": "110 \u00b0C @ Press: 2 Torr"}}