{"cas_no": "101530-10-3", "cn_name": "\u62c9\u8bfa\u5eb7\u5511", "en_name": ["Lanoconazole", "1H-Imidazole-1-acetonitrile, \u03b1-[4-(2-chlorophenyl)-1,3-dithiolan-2-ylidene]-, (\u03b1E)-", "1H-Imidazole-1-acetonitrile, \u03b1-[4-(2-chlorophenyl)-1,3-dithiolan-2-ylidene]-, (E)-(\u00b1)-", "(\u03b1E)-\u03b1-[4-(2-Chlorophenyl)-1,3-dithiolan-2-ylidene]-1H-imidazole-1-acetonitrile", "Latoconazole", "Lanoconazole", "NND 318", "TJN 318", "1H-Imidazole-1-acetonitrile, \u03b1-[4-(2-chlorophenyl)-1,3-dithiolan-2-ylidene]-, (E)-", "Astat"], "SMILES": "C(C#N)(=C1SC(CS1)C2=C(Cl)C=CC=C2)N3C=CN=C3", "physical_data": {"Molecular Weight": "319.83", "Molecular Formula": "C14H10ClN3S2", "Melting Point": "141.5 \u00b0C"}}