{"cas_no": "10154-75-3", "cn_name": "3-(\u82ef\u78fa\u9170)\u4e19\u8148", "en_name": ["3-(Phenylsulfonyl)propanenitrile", "Propanenitrile, 3-(phenylsulfonyl)-", "Propionitrile, 3-(phenylsulfonyl)-", "3-(Phenylsulfonyl)propanenitrile", "3-(Phenylsulfonyl)propionitrile", "\u03b2-(Phenylsulfonyl)propionitrile", "2-Cyanoethyl phenyl sulfone", "NSC 71443"], "SMILES": "S(CCC#N)(=O)(=O)C1=CC=CC=C1", "physical_data": {"Molecular Weight": "195.24", "Molecular Formula": "C9H9NO2S", "Melting Point": "93-94 \u00b0C"}}