{"cas_no": "1015-89-0", "cn_name": "6(5H)-\u83f2\u5576\u916e", "en_name": ["6(5H)-Phenanthridinone", "6(5H)-Phenanthridinone", "6-Phenanthridinol", "6-Phenanthridone", "6-Phenanthridinone", "PJ 97A", "5H-Phenanthridin-6-one", "NSC 11021", "NSC 40943", "NSC 61083", "WD 99-004344", "Phenanthridinone"], "SMILES": "O=C1C2=C(C=3C(N1)=CC=CC3)C=CC=C2", "physical_data": {"Molecular Weight": "195.22", "Molecular Formula": "C13H9NO", "Boiling Point": "435 \u00b0C", "Melting Point": "&gt;300 \u00b0C"}}