{"cas_no": "10152-76-8", "cn_name": "\u70ef\u4e19\u57fa\u7532\u57fa\u786b\u919a", "en_name": ["Allyl methyl sulfide", "1-Propene, 3-(methylthio)-", "Sulfide, allyl methyl", "3-(Methylthio)-1-propene", "Allyl methyl sulfide", "Methyl allyl sulfide", "3-(Methylthio)propene", "Methyl 2-propenyl sulfide", "2-Propenyl methyl sulfide", "Allyl methyl thioether", "1-(Methylthio)-2-propene", "Methyl allyl thioether", "3-Methylsulfanylprop-1-ene"], "SMILES": "C(C=C)SC", "physical_data": {"Molecular Weight": "88.17", "Molecular Formula": "C4H8S", "Boiling Point": "92 \u00b0C", "Density": "0.8767 g/cm\u00b3 @ Temp: 20 \u00b0C"}}