{"cas_no": "101623-69-2", "cn_name": "4-\u785d\u57fa-\u82ef\u57fa\u916f1-\u6c2f\u7fa7\u9178\u4e59\u916f", "en_name": ["Carbonic acid, 1-chloroethyl 4-nitrophenyl ester", "Carbonic acid, 1-chloroethyl 4-nitrophenyl ester", "1-Chloroethyl p-nitrophenyl carbonate", "1-Chloroethyl 4-nitrophenyl carbonate"], "SMILES": "O(C(OC(C)Cl)=O)C1=CC=C(N(=O)=O)C=C1", "physical_data": {"Molecular Weight": "245.62", "Molecular Formula": "C9H8ClNO5", "Melting Point": "71.0-71.7 \u00b0C"}}