{"cas_no": "1016-77-9", "cn_name": "3-\u6eb4\u4e8c\u82ef\u7532\u916e", "en_name": ["3-Bromobenzophenone", "Methanone, (3-bromophenyl)phenyl-", "Benzophenone, 3-bromo-", "(3-Bromophenyl)phenylmethanone", "3-Bromobenzophenone", "m-Bromobenzophenone", "3-Bromobenzoylbenzene", "3-Bromophenyl phenyl ketone"], "SMILES": "C(=O)(C1=CC(Br)=CC=C1)C2=CC=CC=C2", "physical_data": {"Molecular Weight": "261.11", "Molecular Formula": "C13H9BrO", "Boiling Point": "185-187 \u00b0C @ Press: 6 Torr", "Melting Point": "81 \u00b0C"}}