{"cas_no": "1016-05-3", "cn_name": "\u4e8c\u82ef\u5e76\u567b\u5429\u781c", "en_name": ["Dibenzothiophene sulfone", "Dibenzothiophene, 5,5-dioxide", "Dibenzothiophene sulfone", "Diphenylene sulfone", "Dibenzothiophene S,S-dioxide", "Dibenzothiophene dioxide", "Dibenzosulfolane", "NSC 406519", "NSC 627707", "Dibenzo[b,d]thiophene 5,5-dioxide"], "SMILES": "O=S1(=O)C=2C(C=3C1=CC=CC3)=CC=CC2", "physical_data": {"Molecular Weight": "216.26", "Molecular Formula": "C12H8O2S", "Melting Point": "229-230 \u00b0C"}}