{"cas_no": "10169-55-8", "cn_name": "4-(\u82ef\u5def\u57fa)\u82ef\u4e59\u916e", "en_name": ["1-[4-(Phenylthio)phenyl]ethanone", "Ethanone, 1-[4-(phenylthio)phenyl]-", "Acetophenone, 4\u2032-(phenylthio)-", "1-[4-(Phenylthio)phenyl]ethanone", "4-Acetyldiphenyl sulfide", "4\u2032-(Phenylthio)acetophenone", "p-(Phenylthio)acetophenone", "p-Acetylphenyl phenyl sulfide", "4-(Phenylthio)acetophenone", "NSC 158592", "1-[4-(Phenylthio)phenyl]ethan-1-one", "4\u2032-(Phenylsulfanyl)acetophenone", "4-Acetylphenyl phenyl sulfide", "1-(4-Phenylsulfanylphenyl)ethanone", "1-[4-(Phenylsulfanyl)phenyl]ethan-1-one"], "SMILES": "S(C1=CC=C(C(C)=O)C=C1)C2=CC=CC=C2", "physical_data": {"Molecular Weight": "228.31", "Molecular Formula": "C14H12OS", "Boiling Point": "180 \u00b0C @ Press: 1 Torr", "Melting Point": "67-68 \u00b0C"}}