{"cas_no": "10160-24-4", "cn_name": "7-\u6eb4-1-\u5e9a\u9187", "en_name": ["7-Bromo-1-heptanol", "1-Heptanol, 7-bromo-", "7-Bromo-1-heptanol", "7-Bromoheptanol"], "SMILES": "C(CCCBr)CCCO", "physical_data": {"Molecular Weight": "195.10", "Molecular Formula": "C7H15BrO", "Boiling Point": "108 \u00b0C @ Press: 1 Torr"}}