{"cas_no": "10161-34-9", "cn_name": "\u7fa4\u52c3\u9f99\u918b\u9178\u916f", "en_name": ["Trenbolone acetate", "Estra-4,9,11-trien-3-one, 17-(acetyloxy)-, (17\u03b2)-", "Estra-4,9,11-trien-3-one, 17\u03b2-hydroxy-, acetate", "(17\u03b2)-17-(Acetyloxy)estra-4,9,11-trien-3-one", "17\u03b2-Acetoxy-\u03944,9,11-estratrien-3-one", "3-Oxo-17\u03b2-acetoxyestra-4,9,11-triene", "17\u03b2-Acetoxyestra-4,9,11-trien-3-one", "Trienbolone acetate", "Trenbolone acetate", "Finaplix", "RU 1697", "Component T-S", "Finaplix H", "17\u03b2-Hydroxyestra-4,9,11-trien-3-one 17-acetate", "Finaplix-S", "Component T-H"], "SMILES": "CC12C(C3C(C=C1)=C4C(CC3)=CC(=O)CC4)CCC2OC(C)=O", "physical_data": {"Molecular Weight": "312.40", "Molecular Formula": "C20H24O3", "Melting Point": "96-97 \u00b0C"}}