{"cas_no": "10161-33-8", "cn_name": "\u7fa4\u52c3\u9f99\u5e9a\u9178\u8102", "en_name": ["Trenbolone", "Estra-4,9,11-trien-3-one, 17-hydroxy-, (17\u03b2)-", "Estra-4,9,11-trien-3-one, 17\u03b2-hydroxy-", "(17\u03b2)-17-Hydroxyestra-4,9,11-trien-3-one", "Trenbolone", "17\u03b2-Hydroxyestra-4,9,11-trien-3-one", "9,10,11,12-Dehydro-19-nortestosterone", "Trienbolone", "RU 2341", "17\u03b2-Trenbolone", "\u03b2-Trenbolone", "(+)-Trenbolone"], "SMILES": "CC12C(C3C(=C4C(CC3)=CC(=O)CC4)C=C1)CCC2O", "physical_data": {"Molecular Weight": "270.37", "Molecular Formula": "C18H22O2", "Melting Point": "186 \u00b0C"}}