{"cas_no": "10160-87-9", "cn_name": "\u4e19\u919b\u4e8c\u4e59\u57fa\u4e59\u7f29\u919b", "en_name": ["3,3-Diethoxy-1-propyne", "1-Propyne, 3,3-diethoxy-", "Propiolaldehyde, diethyl acetal", "Propyne, 3,3-diethoxy-", "3,3-Diethoxy-1-propyne", "Propynal diethyl acetal", "2-Propyn-1-al diethyl acetal", "3,3-Diethoxypropyne", "1,1-Diethoxyprop-2-yne", "NSC 45019", "Propargylaldehyde diethyl acetal", "2-Propynal diethyl acetal"], "SMILES": "C(OCC)(OCC)C#C", "physical_data": {"Molecular Weight": "128.17", "Molecular Formula": "C7H12O2", "Boiling Point": "139 \u00b0C"}}