{"cas_no": "101622-51-9", "cn_name": "2-(2'-\u7f9f\u57fa\u4e59\u57fa\u6c28\u57fa)-9-\u7532\u57fa-6-(\u82c4\u57fa\u6c28\u57fa)\u560c\u5464", "en_name": ["Olomoucine", "Ethanol, 2-[[9-methyl-6-[(phenylmethyl)amino]-9H-purin-2-yl]amino]-", "2-[[9-Methyl-6-[(phenylmethyl)amino]-9H-purin-2-yl]amino]ethanol", "6-(Benzylamino)-2-(2-hydroxyethylamino)-9-methylpurine", "2-(2\u2032-Hydroxyethylamino)-9-methyl-6-(benzylamino)purine", "2-(2-Hydroxyethylamino)-6-(benzylamino)-9-methylpurine", "Olomoucine", "NSC 666096", "2-(6-Benzylamino-9-methyl-9H-purin-2-ylamino)-ethanol", "2-[[6-(Benzylamino)-9-methylpurin-2-yl]amino]ethanol"], "SMILES": "N(CC1=CC=CC=C1)C2=C3C(=NC(NCCO)=N2)N(C)C=N3", "physical_data": {"Molecular Weight": "298.34", "Molecular Formula": "C15H18N6O", "Melting Point": "125-126 \u00b0C"}}