{"cas_no": "1016-78-0", "cn_name": "3-\u6c2f\u4e8c\u82ef\u7532\u916e", "en_name": ["3-Chlorobenzophenone", "Methanone, (3-chlorophenyl)phenyl-", "Benzophenone, 3-chloro-", "(3-Chlorophenyl)phenylmethanone", "3-Chlorobenzophenone", "m-Chlorobenzophenone", "NSC 5456", "3-Chlorophenyl phenyl ketone", "(3-Chlorophenyl)(phenyl)methanone"], "SMILES": "C(=O)(C1=CC(Cl)=CC=C1)C2=CC=CC=C2", "physical_data": {"Molecular Weight": "216.66", "Molecular Formula": "C13H9ClO", "Boiling Point": "83.0-83.5 \u00b0C", "Melting Point": "84 \u00b0C"}}