{"cas_no": "10168-60-2", "cn_name": "4-BROMO-3-ETHYLPYRIDINE", "en_name": ["4-Bromo-3-ethylpyridine", "Pyridine, 4-bromo-3-ethyl-", "4-Bromo-3-ethylpyridine"], "SMILES": "C(C)C=1C(Br)=CC=NC1", "physical_data": {"Molecular Weight": "186.05", "Molecular Formula": "C7H8BrN", "Boiling Point": "104 \u00b0C @ Press: 24 Torr"}}