{"cas_no": "1016-47-3", "cn_name": "N-\u4e59\u9170\u57fa\u8272\u80fa", "en_name": ["N-Acetyltryptamine", "Acetamide, N-[2-(1H-indol-3-yl)ethyl]-", "Acetamide, N-(2-indol-3-ylethyl)-", "N-[2-(1H-Indol-3-yl)ethyl]acetamide", "Acetotryptamide", "N-Acetyltryptamine", "N\u03c9-Acetyltryptamine", "N10-Acetyltryptamine", "N-Acetyl-2-(indol-3-yl)ethylamine", "Nb-Acetyltryptamine", "Acetyltryptamine", "SL 2005"], "SMILES": "C(CNC(C)=O)C=1C=2C(NC1)=CC=CC2", "physical_data": {"Molecular Weight": "202.25", "Molecular Formula": "C12H14N2O", "Boiling Point": "195-196 \u00b0C @ Press: 0.01 Torr", "Melting Point": "81-82 \u00b0C"}}