{"cas_no": "1016-58-6", "cn_name": "4,5-\u4e8c\u7532\u6c27\u57fa-2-\u785d\u57fa\u82ef\u7532\u9187", "en_name": ["4,5-Dimethoxy-2-nitrobenzenemethanol", "Benzenemethanol, 4,5-dimethoxy-2-nitro-", "Veratryl alcohol, 6-nitro-", "4,5-Dimethoxy-2-nitrobenzenemethanol", "6-Nitroveratryl alcohol", "2-Nitro-4,5-dimethoxybenzyl alcohol", "4,5-Dimethoxy-2-nitrobenzyl alcohol", "1-(Hydroxymethyl)-4,5-dimethoxy-2-nitrobenzene", "(4,5-Dimethoxy-2-nitrophenyl)methanol"], "SMILES": "N(=O)(=O)C1=C(CO)C=C(OC)C(OC)=C1", "physical_data": {"Molecular Weight": "213.19", "Molecular Formula": "C9H11NO5", "Melting Point": "145-146 \u00b0C"}}