{"cas_no": "10177-31-8", "cn_name": "4-\u7532\u6c27\u57fa\u70df\u9178", "en_name": ["4-Methoxy-3-pyridinecarboxylic acid", "3-Pyridinecarboxylic acid, 4-methoxy-", "Nicotinic acid, 4-methoxy-", "4-Methoxy-3-pyridinecarboxylic acid", "4-Methoxynicotinic acid", "4-Methoxypyridine-3-carboxylic acid"], "SMILES": "O(C)C=1C(C(O)=O)=CN=CC1", "physical_data": {"Molecular Weight": "153.14", "Molecular Formula": "C7H7NO3", "Melting Point": "178-179 \u00b0C"}}