{"cas_no": "10173-01-0", "cn_name": "JACEIDIN", "en_name": ["Jaceidin", "4H-1-Benzopyran-4-one, 5,7-dihydroxy-2-(4-hydroxy-3-methoxyphenyl)-3,6-dimethoxy-", "Flavone, 4\u2032,5,7-trihydroxy-3,3\u2032,6-trimethoxy-", "5,7-Dihydroxy-2-(4-hydroxy-3-methoxyphenyl)-3,6-dimethoxy-4H-1-benzopyran-4-one", "Jaceidin", "4\u2032,5,7-Trihydroxy-3,3\u2032,6-trimethoxyflavone", "Jaceidine", "5,7,4\u2032-Trihydroxy-3,6,3\u2032-trimethoxyflavone", "Quercetagetin 3,3\u2032,6-trimethyl ether", "Quercetagetin 3,6,3\u2032-trimethyl ether"], "SMILES": "O=C1C=2C(OC(=C1OC)C3=CC(OC)=C(O)C=C3)=CC(O)=C(OC)C2O", "physical_data": {"Molecular Weight": "360.31", "Molecular Formula": "C18H16O8", "Melting Point": "127-133 \u00b0C"}}