{"cas_no": "10172-89-1", "cn_name": "N-\u4e59\u9170-D-\u82ef\u4e19\u6c28\u9178", "en_name": ["(-)-N-Acetylphenylalanine", "D-Phenylalanine, N-acetyl-", "Alanine, N-acetyl-3-phenyl-, D-", "N-Acetyl-D-phenylalanine", "(R)-N-Acetylphenylalanine", "(R)-(-)-N-Acetylphenylalanine", "(-)-N-Acetylphenylalanine", "D-N-Acetylphenylalanine", "D-(-)-N-Acetylphenylalanine", "(R)-2-Acetylamino-3-phenylpropionic acid", "R-2-(Acetylamino)-3-phenylpropanoic acid", "N-Acetyl-(R)-phenylalanine", "(-)-2-Acetylamino-3-phenylpropanoic acid", "(-)-N-Acetyl-D-phenylalanine", "NSC 523830", "N-Acetyl-3-phenyl-D-alanine", "(R)-2-Acetamido-3-phenylpropanoic acid", "(2R)-2-Acetamido-3-phenylpropanoic acid"], "SMILES": "C(CC1=CC=CC=C1)(NC(C)=O)C(O)=O", "physical_data": {"Molecular Weight": "207.23", "Molecular Formula": "C11H13NO3", "Melting Point": "170-171 \u00b0C"}}