{"cas_no": "10177-32-9", "cn_name": "METHYL 4-METHOXYNICOTINATE", "en_name": ["Methyl 4-methoxy-3-pyridinecarboxylate", "3-Pyridinecarboxylic acid, 4-methoxy-, methyl ester", "Nicotinic acid, 4-methoxy-, methyl ester", "Methyl 4-methoxy-3-pyridinecarboxylate", "Methyl 4-methoxynicotinate"], "SMILES": "C(OC)(=O)C=1C(OC)=CC=NC1", "physical_data": {"Molecular Weight": "167.16", "Molecular Formula": "C8H9NO3", "Melting Point": "83-84 \u00b0C"}}