{"cas_no": "10176-66-6", "cn_name": "5,7-\u4e8c\u7f9f\u57fa-6,8,4'-\u4e09\u7532\u6c27\u57fa\u9ec4\u916e", "en_name": ["Nevadensin", "4H-1-Benzopyran-4-one, 5,7-dihydroxy-6,8-dimethoxy-2-(4-methoxyphenyl)-", "Flavone, 5,7-dihydroxy-4\u2032,6,8-trimethoxy-", "5,7-Dihydroxy-6,8-dimethoxy-2-(4-methoxyphenyl)-4H-1-benzopyran-4-one", "Nevadensin", "5,7-Dihydroxy-6,8,4\u2032-trimethoxyflavone", "Nevadensin A", "Pedunculin", "Navadensin"], "SMILES": "O(C)C1=C2C(=C(O)C(OC)=C1O)C(=O)C=C(O2)C3=CC=C(OC)C=C3", "physical_data": {"Molecular Weight": "344.32", "Molecular Formula": "C18H16O7", "Melting Point": "199-200 \u00b0C"}}