{"cas_no": "1018-71-9", "cn_name": "\u785d\u5421\u54af\u83cc\u7d20", "en_name": ["Pyrrolnitrin", "1H-Pyrrole, 3-chloro-4-(3-chloro-2-nitrophenyl)-", "Pyrrole, 3-chloro-4-(3-chloro-2-nitrophenyl)-", "3-Chloro-4-(3-chloro-2-nitrophenyl)-1H-pyrrole", "3-Chloro-4-(3-chloro-2-nitrophenyl)pyrrole", "Pyrrolnitrin", "Pyrrolnitrine", "Pyroace", "NSC 107654", "PN", "NSC 637277", "3-Chloro-4-(3\u2032-chloro-2\u2032-nitrophenyl)pyrrole"], "SMILES": "N(=O)(=O)C1=C(C=CC=C1Cl)C=2C(Cl)=CNC2", "physical_data": {"Molecular Weight": "257.07", "Molecular Formula": "C10H6Cl2N2O2", "Melting Point": "124.5 \u00b0C"}}