{"cas_no": "101828-21-1", "cn_name": "\u5e03\u66ff\u8418\u82ac", "en_name": ["Butenafine", "1-Naphthalenemethanamine, N-[[4-(1,1-dimethylethyl)phenyl]methyl]-N-methyl-", "N-[[4-(1,1-Dimethylethyl)phenyl]methyl]-N-methyl-1-naphthalenemethanamine", "Butenafine", "1-(4-tert-Butylphenyl)-N-methyl-N-(naphthalen-1-ylmethyl)methanamine"], "SMILES": "C(N(CC1=CC=C(C(C)(C)C)C=C1)C)C=2C3=C(C=CC2)C=CC=C3", "physical_data": {"Molecular Weight": "317.47", "Molecular Formula": "C23H27N", "Melting Point": "200-202 \u00b0C"}}