{"cas_no": "1018450-37-7", "cn_name": "2-\u7898-3-\u6c1f-4-\u6c2f\u82ef\u80fa", "en_name": ["4-Chloro-3-fluoro-2-iodobenzenamine", "Benzenamine, 4-chloro-3-fluoro-2-iodo-", "4-Chloro-3-fluoro-2-iodobenzenamine"], "SMILES": "FC1=C(I)C(N)=CC=C1Cl", "physical_data": {"Molecular Weight": "271.46", "Molecular Formula": "C6H4ClFIN", "Melting Point": "80.5-81.0 \u00b0C"}}