{"cas_no": "101860-97-3", "cn_name": "2-(2-\u6c28\u57fa\u5421\u5576-3-\u57fa)\u4e59\u9178", "en_name": ["2-Amino-3-pyridineacetic acid", "3-Pyridineacetic acid, 2-amino-", "2-Amino-3-pyridineacetic acid", "(2-Aminopyridin-3-yl)-acetic acid", "2-(2-Aminopyridin-3-yl)acetic acid", "(2-Amino-[3]pyridyl)-acetic acid"], "SMILES": "C(C(O)=O)C1=C(N)N=CC=C1", "physical_data": {"Molecular Weight": "152.15", "Molecular Formula": "C7H8N2O2", "Melting Point": "219-221.5 \u00b0C (decomp)"}}