{"cas_no": "101827-46-7", "cn_name": "\u76d0\u9178\u5e03\u66ff\u8418\u82ac", "en_name": ["Butenafine hydrochloride", "1-Naphthalenemethanamine, N-[[4-(1,1-dimethylethyl)phenyl]methyl]-N-methyl-, hydrochloride (1:1)", "1-Naphthalenemethanamine, N-[[4-(1,1-dimethylethyl)phenyl]methyl]-N-methyl-, hydrochloride", "KP 363", "Butenafine hydrochloride", "Mentax", "Scorba"], "SMILES": "C(N(CC1=CC=C(C(C)(C)C)C=C1)C)C=2C3=C(C=CC2)C=CC=C3.Cl", "physical_data": {"Molecular Weight": "", "Molecular Formula": "C23H27N.ClH", "Melting Point": "200-202 \u00b0C"}}