{"cas_no": "10196-49-3", "cn_name": "2,2,4-\u4e09\u7532\u57fa-2-\u7845\u4ee3\u5417\u5561\u5549", "en_name": ["2,2,4-Trimethyl-1-oxa-4-aza-2-silacyclohexane", "1-Oxa-4-aza-2-silacyclohexane, 2,2,4-trimethyl-", "2,2,4-Trimethyl-1-oxa-4-aza-2-silacyclohexane", "2,2,4-Trimethyl-2-silamorpholine", "2,2,4-Trimethyl-1,4,2-oxazasilinane"], "SMILES": "C[Si]1(C)CN(C)CCO1", "physical_data": {"Molecular Weight": "145.27", "Molecular Formula": "C6H15NOSi", "Boiling Point": "28 \u00b0C @ Press: 1 Torr"}}