{"cas_no": "10196-18-6", "cn_name": "\u516d\u6c34\u5408\u785d\u9178\u950c", "en_name": ["Zinc nitrate hexahydrate", "Nitric acid, zinc salt, hydrate (2:1:6)", "Nitric acid, zinc salt, hexahydrate", "Zinc nitrate hexahydrate", "Zinc dinitrate hexahydrate", "Zinc nitrate (Zn(NO3)2), hexahydrate", "Zinc nitrate hexahydrate (Zn(NO3)2.6H2O)"], "SMILES": "N(=O)(=O)O.O.[Zn]", "physical_data": {"Molecular Weight": "", "Molecular Formula": "H2O.<sup>1</sup>/3HNO3.<sup>1</sup>/6Zn", "Melting Point": "36.2 \u00b0C"}}