{"cas_no": "10199-61-8", "cn_name": "2-\u5421\u5511-1-\u57fa\u4e59\u9178\u4e59\u916f", "en_name": ["Ethyl 1H-pyrazole-1-acetate", "1H-Pyrazole-1-acetic acid, ethyl ester", "Pyrazole-1-acetic acid, ethyl ester", "Ethyl 1H-pyrazole-1-acetate", "Ethyl 1-pyrazoleacetate", "Ethyl 2-(1H-pyrazol-1-yl)acetate"], "SMILES": "C(C(OCC)=O)N1C=CC=N1", "physical_data": {"Molecular Weight": "154.17", "Molecular Formula": "C7H10N2O2", "Boiling Point": "130 \u00b0C @ Press: 20 Torr"}}