{"cas_no": "10191-41-0", "cn_name": "DL-\u03b1-\u751f\u80b2\u915a", "en_name": ["DL-\u03b1-Tocopherol", "2H-1-Benzopyran-6-ol, 3,4-dihydro-2,5,7,8-tetramethyl-2-(4,8,12-trimethyltridecyl)-", "6-Chromanol, 2,5,7,8-tetramethyl-2-(4,8,12-trimethyltridecyl)-", "3,4-Dihydro-2,5,7,8-tetramethyl-2-(4,8,12-trimethyltridecyl)-2H-1-benzopyran-6-ol", "dl-\u03b1-Tocopherol", "(\u00b1)-\u03b1-Tocopherol", "Ephanyl", "DL-\u03b1-Tocopherol", "all-rac-\u03b1-Tocopherol", "Ronotec DF 120", "Ronotec 201", "Rac-\u03b1-Tocopherol", "Ronotec 202", "3,4-Dihydro-2,5,7,8-tetramethyl-2-(4,8,12-trimethyltridecyl)-2H-benzopyran-6-ol", "Uvinul 2000AO", "Elementol B", "Elementol R", "Elementol Basic", "Irganox E 210", "2,5,7,8-Tetramethyl-2-(4\u2032,8\u2032,12\u2032-trimethyltridecyl)chroman-6-ol", "2,5,7,8-Tetramethyl-2-(4,8,12-trimethyltridecyl)chroman-6-ol", "Irganox LE 307"], "SMILES": "CC1=C2C(CCC(CCCC(CCCC(CCCC(C)C)C)C)(C)O2)=C(C)C(O)=C1C", "physical_data": {"Molecular Weight": "430.71", "Molecular Formula": "C29H50O2", "Boiling Point": "205-210 \u00b0C @ Press: 0.02 Torr", "Melting Point": "94-94.5 \u00b0C"}}