{"cas_no": "10191-24-9", "cn_name": "3-\u7f9f\u57fa\u5df1\u9178", "en_name": ["3-Hydroxyhexanoic acid", "Hexanoic acid, 3-hydroxy-", "Caproic acid, \u03b2-hydroxy-", "3-Hydroxyhexanoic acid", "\u03b2-Hydroxyhexanoic acid", "\u03b2-Hydroxy-n-caproic acid", "\u03b2-Hydroxycaproic acid", "3-Hydroxycaproic acid", "(\u00b1)-3-Hydroxyhexanoic acid"], "SMILES": "C(C(CCC)O)C(O)=O", "physical_data": {"Molecular Weight": "132.16", "Molecular Formula": "C6H12O3", "Melting Point": "13 \u00b0C"}}