{"cas_no": "101968-85-8", "cn_name": "N-\u53d4\u4e01\u57fa\u6c28\u57fa\u7532\u9170\u57fa-L-\u53d4\u4eae\u6c28\u9178", "en_name": ["N-[[(1,1-Dimethylethyl)amino]carbonyl]-3-methyl-L-valine", "L-Valine, N-[[(1,1-dimethylethyl)amino]carbonyl]-3-methyl-", "N-[[(1,1-Dimethylethyl)amino]carbonyl]-3-methyl-L-valine", "N-tert-Butylcarbamoyl-L-tert-leucine", "(2S)-2-(tert-butylaminocarbonylamino)-3,3-dimethylbutanoic acid", "(S)-2-(3-tert-Butylureido)-3,3-dimethylbutanoic acid"], "SMILES": "C(NC(NC(C)(C)C)=O)(C(C)(C)C)C(O)=O", "physical_data": {"Molecular Weight": "230.30", "Molecular Formula": "C11H22N2O3", "Melting Point": "185-192 \u00b0C"}}