{"cas_no": "1019-52-9", "cn_name": "3,5-\u4e8c\u785d\u57fa-4-\u7f9f\u57fa\u82ef\u7532\u9178", "en_name": ["4-Hydroxy-3,5-dinitrobenzoic acid", "Benzoic acid, 4-hydroxy-3,5-dinitro-", "4-Hydroxy-3,5-dinitrobenzoic acid", "3,5-Dinitro-4-hydroxybenzoic acid"], "SMILES": "N(=O)(=O)C1=C(O)C(N(=O)=O)=CC(C(O)=O)=C1", "physical_data": {"Molecular Weight": "228.12", "Molecular Formula": "C7H4N2O7", "Melting Point": "236 \u00b0C"}}