{"cas_no": "10191-18-1", "cn_name": "N,N-\u53cc(2-\u7f9f\u4e59\u57fa)-2-\u6c28\u57fa\u4e59\u78fa\u9178", "en_name": ["N,N-Bis(2-hydroxyethyl)-2-aminoethanesulfonic acid", "Ethanesulfonic acid, 2-[bis(2-hydroxyethyl)amino]-", "Taurine, N,N-bis(2-hydroxyethyl)-", "2-[Bis(2-hydroxyethyl)amino]ethanesulfonic acid", "BES", "N,N-Bis(2-hydroxyethyl)-2-aminoethanesulfonic acid", "BES (buffering agent)", "N,N-Bis(2-hydroxyethyl)taurine", "NSC 166667"], "SMILES": "N(CCS(=O)(=O)O)(CCO)CCO", "physical_data": {"Molecular Weight": "213.25", "Molecular Formula": "C6H15NO5S", "Melting Point": "150-151 \u00b0C"}}