{"cas_no": "1019-45-0", "cn_name": "5-\u7532\u6c27\u57fa-N,N-\u4e8c\u7532\u57fa\u8272\u80fa", "en_name": ["5-Methoxy-N,N-dimethyltryptamine", "1H-Indole-3-ethanamine, 5-methoxy-N,N-dimethyl-", "Indole, 3-[2-(dimethylamino)ethyl]-5-methoxy-", "5-Methoxy-N,N-dimethyl-1H-indole-3-ethanamine", "Bufotenine, O-methyl-", "3-(2-Dimethylaminoethyl)-5-methoxyindole", "5-Methoxy-N,N-dimethyltryptamine", "O-Methylbufotenine", "CT 4334", "5-Methoxydimethyltryptamine", "Methoxybufotenin", "Methylbufotenine", "N,N-Dimethyl-5-methoxytryptamine", "NSC 88624", "5-MeO-DMT", "[2-(5-Methoxy-1H-indol-3-yl)-ethyl]-dimethyl-amine", "[2-(5-Methoxy-1H-indol-3-yl)ethyl]dimethylamine", "Mebufotenin"], "SMILES": "C(CN(C)C)C=1C=2C(NC1)=CC=C(OC)C2", "physical_data": {"Molecular Weight": "218.29", "Molecular Formula": "C13H18N2O", "Boiling Point": "208-210 \u00b0C", "Melting Point": "66-67 \u00b0C"}}