{"cas_no": "10192-85-5", "cn_name": "\u4e19\u70ef\u9178\u94be", "en_name": ["Potassium acrylate", "2-Propenoic acid, potassium salt (1:1)", "Acrylic acid, potassium salt", "2-Propenoic acid, potassium salt", "Potassium acrylate", "Potassium 2-propenoate"], "SMILES": "C(C=C)(O)=O.[K]", "physical_data": {"Molecular Weight": "", "Molecular Formula": "C3H4O2.K", "Melting Point": "194 \u00b0C"}}