{"cas_no": "10199-89-0", "cn_name": "4-\u6c2f-7-\u785d\u57fa\u82ef\u5e76-2-\u6c27\u6742-1,3-\u4e8c\u5511", "en_name": ["NBD-Cl", "2,1,3-Benzoxadiazole, 4-chloro-7-nitro-", "Benzofurazan, 4-chloro-7-nitro-", "4-Chloro-7-nitro-2,1,3-benzoxadiazole", "7-Chloro-4-nitro-2,1,3-benzoxadiazole", "4-Chloro-7-nitrobenzofurazan", "7-Chloro-4-nitrobenzo-2-oxa-1,3-diazole", "4-Chloro-7-nitro-2,1,3-benzooxadiazole", "7-Chloro-4-nitrobenzofurazan", "NBD-Cl", "4-Chloro-7-nitrobenz-2-oxa-1,3-diazole", "7-Nitro-4-chlorobenzofurazan", "7-Nitrobenzo-2-oxa-1,3-diazol-4-yl chloride", "NSC 228140", "4-Chloro-7-nitrobenzo[c][1,2,5]oxadiazole", "4-Chloro-7-nitrobezofurazan", "MeSH ID: D009327"], "SMILES": "N(=O)(=O)C=1C=2C(C(Cl)=CC1)=NON2", "physical_data": {"Molecular Weight": "199.55", "Molecular Formula": "C6H2ClN3O3", "Melting Point": "96.5-97.0 \u00b0C"}}