{"cas_no": "1019-57-4", "cn_name": "\u4e59\u919b2,4-\u4e8c\u785d\u57fa\u82ef\u8159", "en_name": ["Ethanal-2,4-dinitrophenylhydrazone", "Acetaldehyde, 2-(2,4-dinitrophenyl)hydrazone", "Acetaldehyde, (2,4-dinitrophenyl)hydrazone", "Ethanal-2,4-dinitrophenylhydrazone", "NSC 403216"], "SMILES": "N(=O)(=O)C1=C(NN=CC)C=CC(N(=O)=O)=C1", "physical_data": {"Molecular Weight": "224.17", "Molecular Formula": "C8H8N4O4", "Melting Point": "147 \u00b0C"}}