{"cas_no": "101973-77-7", "cn_name": "ESONARIMOD", "en_name": ["\u03b1-[(Acetylthio)methyl]-4-methyl-\u03b3-oxobenzenebutanoic acid", "Benzenebutanoic acid, \u03b1-[(acetylthio)methyl]-4-methyl-\u03b3-oxo-", "\u03b1-[(Acetylthio)methyl]-4-methyl-\u03b3-oxobenzenebutanoic acid", "KE 298", "Esonarimod", "2-Acetylthiomethyl-3-(4-methylbenzoyl)propionic acid"], "SMILES": "C(CC(CSC(C)=O)C(O)=O)(=O)C1=CC=C(C)C=C1", "physical_data": {"Molecular Weight": "280.34", "Molecular Formula": "C14H16O4S", "Melting Point": "97 \u00b0C"}}