{"cas_no": "10191-60-3", "cn_name": "N-\u6c30\u4e9a\u80fa\u57fa-S,S-\u4e8c\u786b\u4ee3\u78b3\u9178\u4e8c\u7532\u916f", "en_name": ["Dimethyl N-cyanodithioiminocarbonate", "Carbonimidodithioic acid, N-cyano-, dimethyl ester", "Imidocarbonic acid, cyanodithio-, dimethyl ester", "Carbonimidodithioic acid, cyano-, dimethyl ester", "Dimethyl cyanoiminodithiocarbonate", "S,S-Dimethyl (N-cyanoimido)dithiocarbonate", "S,S-Dimethyl cyanoiminodithiocarbamate", "Dimethyl cyanimidodithiocarbonate", "Dimethyl N-cyanoimidodithiocarbonate", "(Cyanimino)bis(methylthio)methane", "Dimethyl cyanocarbonimidodithioate", "Dimethyl cyanodithioimidocarbonate", "Dimethyl cyanoimidodithiocarbonate", "(Cyanimino)dimethyldithiocarbonate", "S,S\u2032-Dimethyl cyanodithioimidocarbonate", "Dimethyl N-cyanoiminodithiocarbonate", "Dimethyl N-cyanodithioimidocarbonate", "Dimethyl N-cyanodithiocarbonimidate", "Dimethyl N-cyanodithioiminocarbonate", "N-[Bis(methylthio)methylene]cyanamide", "N-Cyanoiminodithiocarbonic acid dimethyl ester", "S,S\u2032-Dimethyl N-cyanodithioiminocarbonate", "Dimethyl (N-cyano) carbonimidodithioate", "NSC 145987", "S,S-Dimethyl cyanoimidodithiocarbonate", "Cyanocarbonodithioimidic acid dimethyl ester", "[Bis(methylsulfanyl)methylidene](cyano)amine"], "SMILES": "C(=NC#N)(SC)SC", "physical_data": {"Molecular Weight": "146.23", "Molecular Formula": "C4H6N2S2", "Melting Point": "48-52 \u00b0C"}}