{"cas_no": "10199-34-5", "cn_name": "\u53cc(\u4e09\u82ef\u57fa\u81a6)\u6c2f\u5316\u94c2(II)", "en_name": ["Dichlorobis(triphenylphosphine)platinum", "Platinum, dichlorobis(triphenylphosphine)-", "Dichlorobis(triphenylphosphine)platinum", "Bis(triphenylphosphine)platinum dichloride", "Dichlorobis(triphenylphosphine)platinum(II)", "NSC 168797", "Bis(triphenylphosphine)dichloroplatinum"], "SMILES": "[P]([Pt+2]([P](C1=CC=CC=C1)(C2=CC=CC=C2)C3=CC=CC=C3)([Cl-])[Cl-])(C4=CC=CC=C4)(C5=CC=CC=C5)C6=CC=CC=C6", "physical_data": {"Molecular Weight": "", "Molecular Formula": "C36H30Cl2P2Pt", "Melting Point": "308 \u00b0C (decomp)"}}