{"cas_no": "101947-16-4", "cn_name": "1H,1H,2H,2H-\u5168\u6c1f\u5341\u4e03\u70f7\u4e09\u7532\u57fa\u6c27\u7845\u70f7", "en_name": ["1H,1H,2H,2H-Perfluorodecyltriethoxysilane", "Silane, triethoxy(3,3,4,4,5,5,6,6,7,7,8,8,9,9,10,10,10-heptadecafluorodecyl)-", "Triethoxy(3,3,4,4,5,5,6,6,7,7,8,8,9,9,10,10,10-heptadecafluorodecyl)silane", "1-(Heptadecafluoro-1,1,2,2-tetrahydrodecyl)triethoxysilane", "1H,1H,2H,2H-Perfluorodecyltriethoxysilane", "3,3,4,4,5,5,6,6,7,7,8,8,9,9,10,10,10-Heptadecafluorodecyltriethoxysilane", "AY 43-158E", "SIH 5841.2", "17F (silane)", "17F", "[2-(Perfluorooctyl)ethyl]triethoxysilane", "(Heptadecafluoro-1,1,2,2-tetrahydrodecyl)triethoxysilane", "1,1,2,2-Tetrahydroperfluorodecyltriethoxysilane", "F 1060", "AC-FAS", "FAS", "Triethoxy(1H,1H,2H,2H-heptadecafluorodecyl)silane", "AB 111156"], "SMILES": "[Si](CCC(C(C(C(C(C(C(C(F)(F)F)(F)F)(F)F)(F)F)(F)F)(F)F)(F)F)(F)F)(OCC)(OCC)OCC", "physical_data": {"Molecular Weight": "610.38", "Molecular Formula": "C16H19F17O3Si", "Boiling Point": "103-106 \u00b0C @ Press: 3 Torr", "Density": "1.407 g/cm\u00b3 @ Temp: 25 \u00b0C"}}