{"cas_no": "10192-62-8", "cn_name": "\u53cc\u915aA\u53cc\u4e59\u916f", "en_name": ["Bisphenol A diacetate", "Phenol, 4,4\u2032-(1-methylethylidene)bis-, 1,1\u2032-diacetate", "Phenol, 4,4\u2032-isopropylidenedi-, diacetate", "Phenol, 4,4\u2032-(1-methylethylidene)bis-, diacetate", "Bisphenol A diacetate", "4,4\u2032-Isopropylidenediphenol diacetate", "2,2-Bis(4-acetoxyphenyl)propane", "4,4\u2032-Isopropylidenediphenyl diacetate", "[4-[2-(4-Acetyloxyphenyl)propan-2-yl]phenyl] acetate"], "SMILES": "C(C)(C)(C1=CC=C(OC(C)=O)C=C1)C2=CC=C(OC(C)=O)C=C2", "physical_data": {"Molecular Weight": "312.36", "Molecular Formula": "C19H20O4", "Boiling Point": "213-215 \u00b0C @ Press: 3 Torr", "Melting Point": "79.5-81.5 \u00b0C"}}