{"cas_no": "10191-25-0", "cn_name": "3-\u6c27\u4ee3\u620a\u9178", "en_name": ["3-Oxopentanoic acid", "Pentanoic acid, 3-oxo-", "Valeric acid, 3-oxo-", "3-Oxopentanoic acid", "3-Oxo-n-valeric acid", "3-Oxovaleric acid", "3-Ketovaleric acid", "\u03b2-Ketopentanoic acid", "Propionylacetic acid", "3-Ketopentanoic acid", "Propanoylacetic acid", "\u03b2-Ketopentanoate"], "SMILES": "C(CC(O)=O)(CC)=O", "physical_data": {"Molecular Weight": "116.12", "Molecular Formula": "C5H8O3", "Melting Point": "65-66 \u00b0C (decomp)"}}