{"cas_no": "101990-69-6", "cn_name": "2,6-\u4e8c\u6c2f\u5421\u5576-4-\u7532\u9187", "en_name": ["2,6-Dichloro-4-pyridinemethanol", "4-Pyridinemethanol, 2,6-dichloro-", "2,6-Dichloro-4-pyridinemethanol", "2,6-Dichloropyrid-4-ylcarbinol", "(2,6-Dichloropyridin-4-yl)methanol", "2,6-Dichloro-4-(hydroxymethyl)pyridine", "(2,6-Dichloro-4-pyridyl)methanol"], "SMILES": "C(O)C=1C=C(Cl)N=C(Cl)C1", "physical_data": {"Molecular Weight": "178.02", "Molecular Formula": "C6H5Cl2NO", "Melting Point": "133 \u00b0C"}}