{"cas_no": "102-13-6", "cn_name": "\u82ef\u4e59\u9178-2-\u7532\u57fa\u4e19\u916f", "en_name": ["Isobutyl phenylacetate", "Benzeneacetic acid, 2-methylpropyl ester", "Acetic acid, phenyl-, isobutyl ester", "Isobutyl phenylacetate", "Isobutyl \u03b1-toluate", "NSC 6602", "2-Methylpropyl 2-phenylacetate"], "SMILES": "C(C(OCC(C)C)=O)C1=CC=CC=C1", "physical_data": {"Molecular Weight": "192.25", "Molecular Formula": "C12H16O2", "Boiling Point": "247 \u00b0C", "Density": "0.9307 g/cm\u00b3 @ Temp: 14 \u00b0C"}}