{"cas_no": "102-98-7", "cn_name": "\u787c\u9178\u82ef\u6c5e", "en_name": ["Phenylmercuric borate", "Mercurate(2-), [orthoborato(3-)-\u03baO]phenyl-, hydrogen (1:2)", "Mercury, (dihydrogen orthoborato)phenyl-", "Phenylmercury borate", "Mercurate(2-), [orthoborato(3-)-O]phenyl-, dihydrogen", "Mercury, (dihydrogen borato)phenyl-", "Mercurate(2-), [orthoborato(3-)-\u03baO]phenyl-, dihydrogen", "Boric acid (H3BO3), mercury complex", "Famosept", "Merfen", "Metasol BT", "Phenylmercuric borate", "PMB", "Fenosept", "Phenylmercuriborate", "Merphen", "Ryfen", "Spidox", "Spidoxol", "Formasept", "Exomycol gel", "NSC 163948"], "SMILES": "[Hg+2]([O-]B([O-])[O-])[C-]=1C=CC=CC1.[H+]", "physical_data": {"Molecular Weight": "", "Molecular Formula": "C6H5BHgO3.2H", "Melting Point": "112.5 \u00b0C"}}