{"cas_no": "102-06-7", "cn_name": "\u4e8c\u82ef\u80cd", "en_name": ["Diphenylguanidine", "Guanidine, N,N\u2032-diphenyl-", "Guanidine, 1,3-diphenyl-", "N,N\u2032-Diphenylguanidine", "sym-Diphenylguanidine", "1,3-Diphenylguanidine", "DPG", "Melaniline", "Vulkazit", "1,2-Diphenylguanidine", "Denax", "DFG", "Vulcafor DPG", "Vulkacit D", "Diphenylguanidine", "Accelerator D", "Nocceler D", "Denax DPG", "Soxinol D", "Chlorostain BR", "Rhenogran DPG", "Accel DM-R", "Sanceler D", "Vanax DPG", "Perkacit DP", "Rhenogran DPG 80P", "Sanceler D-G", "Vulkacit D/C", "Accel D", "Perkacit DPG", "NSC 3272", "Soxinol DG", "Rhenogran DPG 80", "Oricel D", "Vulkacit D/EG-C", "DPG 75", "Guanid F", "Rhenocure DPG", "Accelerator BR", "Accelerator DPG", "DPG 80", "Nocceler D-P", "D 80", "Nocceler DPG", "Ekaland DPG-C"], "SMILES": "N(C(NC1=CC=CC=C1)=N)C2=CC=CC=C2", "physical_data": {"Molecular Weight": "211.26", "Molecular Formula": "C13H13N3", "Boiling Point": "170 \u00b0C", "Melting Point": "150 \u00b0C", "Density": "1.19 g/cm\u00b3"}}