{"cas_no": "102-97-6", "cn_name": "N-\u82c4\u57fa\u5f02\u4e19\u80fa", "en_name": ["Isopropylbenzylamine", "Benzenemethanamine, N-(1-methylethyl)-", "Benzylamine, N-isopropyl-", "N-(1-Methylethyl)benzenemethanamine", "N-Isopropylbenzylamine", "Benzylisopropylamine", "N-Benzyl-N-isopropylamine", "N-Benzylisopropylamine", "Isopropylbenzylamine", "NSC 60295", "N-Benzylpropan-2-amine", "N-Isopropyl-N-benzylamine", "(1-Methylethyl)(phenylmethyl)amine"], "SMILES": "C(NC(C)C)C1=CC=CC=C1", "physical_data": {"Molecular Weight": "149.23", "Molecular Formula": "C10H15N", "Boiling Point": "200 \u00b0C", "Melting Point": "103-104 \u00b0C"}}