{"cas_no": "102-76-1", "cn_name": "\u4e09\u4e59\u9178\u7518\u6cb9\u916f", "en_name": ["Triacetin", "1,2,3-Propanetriol, 1,2,3-triacetate", "Acetin, tri-", "1,2,3-Propanetriol, triacetate", "Enzactin", "Fungacetin", "Glycerol triacetate", "Glyceryl triacetate", "Kesscoflex TRA", "Triacetin", "Triacetine", "Triacetylglycerin", "Vanay", "Glycerin triacetate", "Glyped", "1,2,3-Triacetoxypropane", "Estol 1581", "Ujostabil", "Triacetylglycerol", "Priacetin 1580", "Priacetin 1581", "NSC 4796", "Edenor GTA", "DRA 150", "Speziol GTA", "Kollisolv GTA", "Triacetin 1584", "Triacetain glycerol", "Captex 500", "Alphacure 920", "DAR 150", "Edenor GTA Kosher", "106C", "GTA", "2,3-Diacetyloxypropyl acetate", "1,3-Bis(acetyloxy)propan-2-yl acetate", "DRA-150", "MeSH ID: D014215"], "SMILES": "C(COC(C)=O)(COC(C)=O)OC(C)=O", "physical_data": {"Molecular Weight": "218.20", "Molecular Formula": "C9H14O6", "Boiling Point": "258-260 \u00b0C", "Melting Point": "-78 \u00b0C", "Density": "1.1562 g/cm\u00b3 @ Temp: 25 \u00b0C"}}