{"cas_no": "102-05-6", "cn_name": "\u7532\u57fa\u4e8c\u82c4\u80fa", "en_name": ["N-Methyl-N-(phenylmethyl)benzenemethanamine", "Benzenemethanamine, N-methyl-N-(phenylmethyl)-", "Dibenzylamine, N-methyl-", "N-Methyl-N-(phenylmethyl)benzenemethanamine", "Dibemethine", "N,N-Dibenzylmethylamine", "Dibenzylmethylamine", "Methyldibenzylamine", "N-Methyl-N,N-dibenzylamine", "N-Methyldibenzylamine", "Dibemethin", "DBMA", "L 566", "Revoxyl", "N-Benzyl-N-methylbenzylamine", "NSC 163900", "N-Benzyl-N-methylbenzenemethanamine", "N-Benzyl-N-methyl-1-phenylmethanamine"], "SMILES": "C(N(CC1=CC=CC=C1)C)C2=CC=CC=C2", "physical_data": {"Molecular Weight": "211.30", "Molecular Formula": "C15H17N", "Boiling Point": "304-305 \u00b0C @ Press: 765.5 Torr", "Melting Point": "50 \u00b0C", "Density": "0.996 g/cm\u00b3 @ Temp: 22 \u00b0C"}}