{"cas_no": "102-83-0", "cn_name": "3-(\u4e8c\u4e01\u80fa)\u4e19\u80fa", "en_name": ["N1,N1-Dibutyl-1,3-propanediamine", "1,3-Propanediamine, N1,N1-dibutyl-", "1,3-Propanediamine, N,N-dibutyl-", "N1,N1-Dibutyl-1,3-propanediamine", "N,N-Dibutyl-1,3-propanediamine", "N,N-Dibutyltrimethylenediamine", "N,N-Dibutylaminopropylamine", "3-(Dibutylamino)propylamine", "N,N-Dibutyl-1,3-diaminopropane", "3-(Dibutylamino)-1-propylamine", "NSC 6333", "NSC 7777", "3-(N,N-Di-n-butylamino)-1-aminopropane", "N-Aminopropyl-N,N-dibutylamine", "(3-Aminopropyl)dibutylamine", "1,3-Propanediamine N1,N1-dibutyl-"], "SMILES": "N(CCCC)(CCCC)CCCN", "physical_data": {"Molecular Weight": "186.34", "Molecular Formula": "C11H26N2", "Boiling Point": "121 \u00b0C @ Press: 20 Torr"}}