{"cas_no": "102-36-3", "cn_name": "3,4-\u4e8c\u6c2f\u82ef\u5f02\u6c30\u9178\u916f", "en_name": ["3,4-Dichlorophenyl isocyanate", "Benzene, 1,2-dichloro-4-isocyanato-", "Isocyanic acid, 3,4-dichlorophenyl ester", "1,2-Dichloro-4-isocyanatobenzene", "3,4-Dichlorophenyl isocyanate", "NSC 76605", "3,4-Dichloroisocyanatobenzene", "3,4-Dichlorobenzene isocyanate"], "SMILES": "N(=C=O)C1=CC(Cl)=C(Cl)C=C1", "physical_data": {"Molecular Weight": "188.01", "Molecular Formula": "C7H3Cl2NO", "Boiling Point": "113 \u00b0C", "Melting Point": "43 \u00b0C"}}