{"cas_no": "102-40-9", "cn_name": "\u95f4\u82ef\u4e8c\u915a\u4e8c(2-\u7f9f\u4e59\u57fa)\u919a", "en_name": ["1,3-Bis(2-hydroxyethoxy)benzene", "Ethanol, 2,2\u2032-[1,3-phenylenebis(oxy)]bis-", "Ethanol, 2,2\u2032-(m-phenylenedioxy)di-", "2,2\u2032-[1,3-Phenylenebis(oxy)]bis[ethanol]", "2,2\u2032-(m-Phenylenedioxy)diethanol", "m-Bis(2-hydroxyethoxy)benzene", "Resorcinol bis(\u03b2-hydroxyethyl) ether", "1,3-Bis(2-hydroxyethoxy)benzene", "Resorcinol bis(2-hydroxyethyl) ether", "O,O-Bis(\u03b2-hydroxyethyl)resorcinol", "HER HP", "NSC 65613", "RE 2", "m-Di(2-hydroxyethoxy)benzene", "1,3-Dihydroxybenzene di(2-hydroxyethyl) ether", "1,3-Dihydroxybenzene bis(2-hydroxyethyl) ether", "2,2\u2032-[1,3-Phenylenebis(oxy)]diethanol", "HER", "1,3-Di(2-hydroxyethoxy)benzene", "2-[3-(2-Hydroxyethoxy)phenoxy]ethanol"], "SMILES": "O(CCO)C1=CC(OCCO)=CC=C1", "physical_data": {"Molecular Weight": "198.22", "Molecular Formula": "C10H14O4", "Melting Point": "95-96 \u00b0C"}}