{"cas_no": "102-77-2", "cn_name": "2-\u82ef\u5e76\u567b\u5511\u57fa-N-\u5417\u5549\u57fa\u786b\u919a", "en_name": ["2-(4-Morpholinothio)benzothiazole", "Benzothiazole, 2-(4-morpholinylthio)-", "Benzothiazole, 2-(morpholinothio)-", "Morpholine, 4-(2-benzothiazolylthio)-", "2-(4-Morpholinylthio)benzothiazole", "Sulfenamide M", "Amax", "Santocure MOR", "Vulcafor BSM", "2-Benzothiazolyl N-morpholino sulfide", "4-(2-Benzothiazolylthio)morpholine", "N,N-(Oxydiethylene)benzothiazole-2-sulfenamide", "2-(Morpholinothio)benzothiazole", "Vulkacit MOZ", "2-Benzothiazolesulfenemorpholide", "2-Benzothiazolylsulfenylmorpholine", "NOBS Special", "2-(4-Morpholinylmercapto)benzothiazole", "Sulfenax MOR", "Nocceler MSA", "Vulcafor MBS", "N-Oxydiethylene-2-benzothiazolylsulfenamide", "Meramid M", "Soxinol NBS", "Delac MOR", "Vulkacit MOZ/LG", "MBS", "Sanceler NOB", "Nocceler MSA-G", "N-Morpholino-2-benzothiazolylsulfenamide", "SA-M", "N-Oxydiethyl-2-benzothiazolesulfenamide", "OBTS", "Cure-rite OBTS", "2-Benzothiazolesulfenic acid morpholide", "Accel NS", "2-(4-Morpholinothio)benzothiazole", "Rhenogran MBS 80", "NSC 70078", "Santocure MBS", "Pilcure MOR", "Accelerator NS", "NS", "NOBS", "MBS 80", "N-(Oxidiethylene)-2-benzothiazolyl sulfenamide", "2-(Morpholin-4-ylsulfanyl)-1,3-benzothiazole"], "SMILES": "S(C1=NC=2C(S1)=CC=CC2)N3CCOCC3", "physical_data": {"Molecular Weight": "252.36", "Molecular Formula": "C11H12N2OS2", "Melting Point": "80 \u00b0C", "Density": "1.34 g/cm\u00b3 @ Temp: 25 \u00b0C"}}