{"cas_no": "102-86-3", "cn_name": "\u4e09\u5df1\u80fa", "en_name": ["Trihexylamine", "1-Hexanamine, N,N-dihexyl-", "Trihexylamine", "N,N-Dihexyl-1-hexanamine", "Tri-n-hexylamine", "NSC 409786"], "SMILES": "N(CCCCCC)(CCCCCC)CCCCCC", "physical_data": {"Molecular Weight": "269.51", "Molecular Formula": "C18H39N", "Boiling Point": "261.7 \u00b0C"}}