{"cas_no": "102-47-6", "cn_name": "3,4-\u4e8c\u6c2f\u6c2f\u82c4", "en_name": ["3,4-Dichlorobenzyl chloride", "Benzene, 1,2-dichloro-4-(chloromethyl)-", "Toluene, \u03b1,3,4-trichloro-", "1,2-Dichloro-4-(chloromethyl)benzene", "3,4-Dichlorobenzyl chloride", "\u03b1,3,4-Trichlorotoluene", "3,4-Dichlorophenylmethyl chloride", "3,4,\u03b1-Trichlorotoluene", "NSC 406893", "3,4-Dichloro-1-(chloromethyl)benzene", "4-Chloromethyl-1,2-dichlorobenzene"], "SMILES": "C(Cl)C1=CC(Cl)=C(Cl)C=C1", "physical_data": {"Molecular Weight": "195.47", "Molecular Formula": "C7H5Cl3", "Boiling Point": "241 \u00b0C", "Melting Point": "37.5 \u00b0C", "Density": "1.4073 g/cm\u00b3 @ Temp: 20 \u00b0C"}}