{"cas_no": "102-16-9", "cn_name": "\u82ef\u4e59\u9178\u82ef\u7532\u916f", "en_name": ["Benzyl phenylacetate", "Benzeneacetic acid, phenylmethyl ester", "Acetic acid, phenyl-, benzyl ester", "Benzyl phenylacetate", "Benzyl \u03b1-toluate", "Benzyl benzeneacetate", "Benzyl 2-phenylacetate"], "SMILES": "C(C(OCC1=CC=CC=C1)=O)C2=CC=CC=C2", "physical_data": {"Molecular Weight": "226.27", "Molecular Formula": "C15H14O2", "Boiling Point": "175-176 \u00b0C @ Press: 12 Torr", "Melting Point": "51-52 \u00b0C"}}