{"cas_no": "102-49-8", "cn_name": "3,4-\u4e8c\u6c2f\u82c4\u80fa", "en_name": ["3,4-Dichlorobenzenemethanamine", "Benzenemethanamine, 3,4-dichloro-", "Benzylamine, 3,4-dichloro-", "3,4-Dichlorobenzenemethanamine", "3,4-Dichlorobenzylamine", "(3,4-Dichlorophenyl)methanamine", "((3,4-Dichlorophenyl)methyl)amine", "NSC 25065", "1-(3,4-Dichlorophenyl)methanamine"], "SMILES": "C(N)C1=CC(Cl)=C(Cl)C=C1", "physical_data": {"Molecular Weight": "176.04", "Molecular Formula": "C7H7Cl2N", "Boiling Point": "139-140 \u00b0C @ Press: 17 Torr", "Melting Point": "332-333 \u00b0C"}}