{"cas_no": "102-14-7", "cn_name": "4-\u6c27\u4ee3-4-(\u82ef\u57fa\u6c28\u57fa)\u4e01\u9178", "en_name": ["4-Anilino-4-oxobutanoic acid", "Butanoic acid, 4-oxo-4-(phenylamino)-", "Succinanilic acid", "4-Oxo-4-(phenylamino)butanoic acid", "N-Phenylbutanedioic acid monoamide", "N-Phenylsuccinamic acid", "Succinic acid monoanilide", "Succinic monoanilide", "NSC 56471", "4-Anilino-4-oxobutanoic acid", "4-Oxo-4-(N-phenylamino)butanoic acid"], "SMILES": "N(C(CCC(O)=O)=O)C1=CC=CC=C1", "physical_data": {"Molecular Weight": "193.20", "Molecular Formula": "C10H11NO3", "Melting Point": "148.5 \u00b0C"}}