{"cas_no": "102-17-0", "cn_name": "\u82ef\u4e59\u9178\u8334\u9999\u916f", "en_name": ["(4-Methoxyphenyl)methyl benzeneacetate", "Benzeneacetic acid, (4-methoxyphenyl)methyl ester", "Acetic acid, phenyl-, p-methoxybenzyl ester", "Benzyl alcohol, p-methoxy-, phenylacetate", "(4-Methoxyphenyl)methyl benzeneacetate", "Anisyl phenylacetate", "Phenylacetic acid, p-methoxybenzyl ester", "p-Methoxybenzyl phenylacetate", "4-Methoxybenzyl phenylacetate"], "SMILES": "C(C(OCC1=CC=C(OC)C=C1)=O)C2=CC=CC=C2", "physical_data": {"Molecular Weight": "256.30", "Molecular Formula": "C16H16O3", "Boiling Point": "370 \u00b0C"}}