{"cas_no": "102-85-2", "cn_name": "\u4e09\u4e01\u57fa,\u4e09\u4e01\u916f", "en_name": ["Tributyl phosphite", "Phosphorous acid, tributyl ester", "1-Butanol, 1,1\u2032,1\u2032\u2032-phosphinidynetri-", "Butyl phosphite, (BuO)3P", "Tributyl phosphite", "Tributoxyphosphine", "Tri-n-butyl phosphite", "JP 304", "Phosphorus tributoxide (P(OBu)3)", "NSC 2675"], "SMILES": "P(OCCCC)(OCCCC)OCCCC", "physical_data": {"Molecular Weight": "250.31", "Molecular Formula": "C12H27O3P", "Boiling Point": "122-123 \u00b0C @ Press: 12 Torr", "Density": "0.92530 g/cm\u00b3 @ Temp: 20 \u00b0C"}}