{"cas_no": "102-79-4", "cn_name": "N-\u4e01\u57fa\u4e8c\u4e59\u9187\u80fa", "en_name": ["Butyldiethanolamine", "Ethanol, 2,2\u2032-(butylimino)bis-", "Ethanol, 2,2\u2032-(butylimino)di-", "2,2\u2032-(Butylimino)bis[ethanol]", "N-Butyl-N,N-bis(hydroxyethyl)amine", "Butyldiethanolamine", "N-Butyl-2,2\u2032-iminodiethanol", "N-Butyldiethanolamine", "2,2\u2032-(Butylimino)diethanol", "N,N-Bis(2-hydroxyethyl)butylamine", "Butylbis(2-hydroxyethyl)amine", "N-Butyl-N,N-bis(2-hydroxyethyl)amine", "BIDE", "Bis(\u03b2-hydroxyethyl)butylamine", "N-n-Butyldiethanolamine", "3-Butyl-3-aza-1,5-pentanediol", "N-Butyliminodiethanol", "Diethanol(n-butyl)amine", "NSC 60214", "Amino Alcohol MBD", "N,N-Bis(2-hydroxyethyl)-1-butanamine", "Vantex T", "2-[Butyl(2-hydroxyethyl)amino]ethan-1-ol", "2-[Butyl(2-hydroxyethyl)amino]ethanol"], "SMILES": "N(CCCC)(CCO)CCO", "physical_data": {"Molecular Weight": "161.24", "Molecular Formula": "C8H19NO2", "Boiling Point": "275 \u00b0C"}}