{"cas_no": "102-20-5", "cn_name": "\u82ef\u4e59\u9178\u82ef\u4e59\u916f", "en_name": ["Phenylethyl phenylacetate", "Benzeneacetic acid, 2-phenylethyl ester", "Acetic acid, phenyl-, phenethyl ester", "Benzylcarbinyl \u03b1-toluate", "Phenylethyl phenylacetate", "\u03b2-Phenylethyl phenylacetate", "2-Phenylethyl phenylacetate", "Phenethyl phenylacetate", "NSC 6676", "2-Phenylethyl 2-phenylethanoate", "2-Phenylethyl 2-phenylacetate", "Phenethyl 2-phenylacetate"], "SMILES": "C(C(OCCC1=CC=CC=C1)=O)C2=CC=CC=C2", "physical_data": {"Molecular Weight": "240.30", "Molecular Formula": "C16H16O2", "Boiling Point": "330 \u00b0C", "Melting Point": "26.5 \u00b0C"}}