{"cas_no": "102-51-2", "cn_name": "4-\u7532\u6c27\u57fa\u90bb\u82ef\u4e8c\u80fa", "en_name": ["4-Methoxy-1,2-phenylenediamine", "1,2-Benzenediamine, 4-methoxy-", "o-Phenylenediamine, 4-methoxy-", "4-Methoxy-1,2-benzenediamine", "p-Methoxy-o-phenylenediamine", "3,4-Diaminoanisole", "4-Methoxy-o-phenylenediamine", "4-Methoxy-1,2-phenylenediamine", "4-Methoxy-1,2-diaminobenzene", "1,2-Diamino-4-methoxybenzene", "4-Methoxy-2-aminoaniline", "2-Amino-4-methoxyaniline"], "SMILES": "O(C)C1=CC(N)=C(N)C=C1", "physical_data": {"Molecular Weight": "138.17", "Molecular Formula": "C7H10N2O", "Boiling Point": "167-170 \u00b0C @ Press: 11 Torr", "Melting Point": "50-52 \u00b0C"}}