{"cas_no": "102-24-9", "cn_name": "\u4e09\u7532\u6c27\u57fa\u73af\u787c\u6c27\u70f7", "en_name": ["Trimethoxyboroxine", "Boroxin, 2,4,6-trimethoxy-", "Boroxin, trimethoxy-", "2,4,6-Trimethoxyboroxin", "Trimethoxyboroxin", "Trimethoxyboroxine", "Boric acid (H3B3O6), trimethyl ester", "TMBX", "NSC 56370", "2,4,6-Trimethoxy-1,3,5,2,4,6-trioxatriborinane"], "SMILES": "O(C)B1OB(OC)OB(OC)O1", "physical_data": {"Molecular Weight": "173.53", "Molecular Formula": "C3H9B3O6", "Boiling Point": "130 \u00b0C", "Melting Point": "10 \u00b0C"}}