{"cas_no": "102-60-3", "cn_name": "N,N,N',N'-\u56db(2-\u7f9f\u57fa\u4e19\u57fa)\u4e59\u4e8c\u80fa", "en_name": ["Tetrakis(2-hydroxypropyl)ethylenediamine", "2-Propanol, 1,1\u2032,1\u2032\u2032,1\u2032\u2032\u2032-(1,2-ethanediyldinitrilo)tetrakis-", "2-Propanol, 1,1\u2032,1\u2032\u2032,1\u2032\u2032\u2032-(ethylenedinitrilo)tetra-", "1,1\u2032,1\u2032\u2032,1\u2032\u2032\u2032-(1,2-Ethanediyldinitrilo)tetrakis[2-propanol]", "1,1\u2032,1\u2032\u2032,1\u2032\u2032\u2032-(Ethylenedinitrilo)tetra(2-propanol)", "N,N,N\u2032,N\u2032-Tetra(2-hydroxypropyl)ethylenediamine", "Tetrakis(2-hydroxypropyl)ethylenediamine", "1,1\u2032,1\u2032\u2032,1\u2032\u2032\u2032-(Ethylenedinitrilo)tetrakis(2-propanol)", "ENTPROL", "N,N,N\u2032,N\u2032-Tetrakis(2-hydroxypropyl)ethylenediamine", "THPE", "Edetol", "N,N,N\u2032,N\u2032-Tetrakis(\u03b2-hydroxypropyl)ethylenediamine", "Quadrol", "Adeka Quadrol", "Quadrol L", "EPD 300", "Newpol NP 300", "NP 300", "Neutrol TE", "NSC 369219", "Laprol 294", "Neutrol", "Tetra(2-hydroxypropyl)ethylenediamine", "Quadrol 204", "1-[2-[Bis(2-hydroxypropyl)amino]ethyl-(2-hydroxypropyl)amino]propan-2-ol", "1,1\u2032,1\u2032\u2032,1\u2032\u2032\u2032-(Ethane-1,2-diylbis(azanetriyl))tetrakis(propan-2-ol)", "Puranol 294"], "SMILES": "N(CCN(CC(C)O)CC(C)O)(CC(C)O)CC(C)O", "physical_data": {"Molecular Weight": "292.41", "Molecular Formula": "C14H32N2O4", "Boiling Point": "190 \u00b0C @ Press: 1.0 Torr", "Melting Point": "&lt;25 \u00b0C"}}