{"cas_no": "102-27-2", "cn_name": "N-\u4e59\u57fa\u95f4\u7532\u82ef\u80fa", "en_name": ["N-Ethyl-m-toluidine", "Benzenamine, N-ethyl-3-methyl-", "m-Toluidine, N-ethyl-", "N-Ethyl-3-methylbenzenamine", "N-Ethyl-3-methylaniline", "3-Methyl-N-ethylaniline", "N-Ethyl-m-toluidine", "NSC 8624", "N-Ethyl(3-methylphenyl)amine"], "SMILES": "N(CC)C1=CC(C)=CC=C1", "physical_data": {"Molecular Weight": "135.21", "Molecular Formula": "C9H13N", "Boiling Point": "221 \u00b0C"}}