{"cas_no": "102-11-4", "cn_name": "N-\u82c4\u57fa-N,N'-\u4e8c\u7532\u57fa\u4e59\u4e8c\u80fa", "en_name": ["N1,N2-Dimethyl-N1-(phenylmethyl)-1,2-ethanediamine", "1,2-Ethanediamine, N1,N2-dimethyl-N1-(phenylmethyl)-", "Ethylenediamine, N-benzyl-N,N\u2032-dimethyl-", "1,2-Ethanediamine, N,N\u2032-dimethyl-N-(phenylmethyl)-", "N1,N2-Dimethyl-N1-(phenylmethyl)-1,2-ethanediamine", "N-Benzyl-N,N\u2032-dimethylethylenediamine", "NSC 166313", "N-Benzyl-N,N\u2032-dimethylethane-1,2-diamine", "Benzyl(methyl)[2-(methylamino)ethyl]amine"], "SMILES": "C(N(CCNC)C)C1=CC=CC=C1", "physical_data": {"Molecular Weight": "178.27", "Molecular Formula": "C11H18N2", "Boiling Point": "80-82 \u00b0C @ Press: 0.5 Torr"}}