{"cas_no": "102-50-1", "cn_name": "2-\u7532\u57fa-4-\u7532\u6c27\u57fa\u82ef\u80fa", "en_name": ["4-Methoxy-2-methylaniline", "Benzenamine, 4-methoxy-2-methyl-", "p-Anisidine, 2-methyl-", "4-Methoxy-2-methylbenzenamine", "4-Methoxy-2-methylaniline", "2-Methyl-4-methoxyaniline", "2-Methyl-p-anisidine", "2-Amino-5-methoxytoluene", "m-Cresidine", "2-Methyl-4-anisidine", "2-Methyl-4-methoxybenzenamine", "NSC 66563", "4-Methoxy-o-toluidine", "2-Methyl-4-(methyloxy)aniline", "[2-Methyl-4-(methyloxy)phenyl]amine", "3-Methyl-4-aminophenol methyl ether"], "SMILES": "O(C)C1=CC(C)=C(N)C=C1", "physical_data": {"Molecular Weight": "137.18", "Molecular Formula": "C8H11NO", "Boiling Point": "248.5 \u00b0C", "Melting Point": "29.5 \u00b0C", "Density": "1.065 g/cm\u00b3 @ Temp: 25 \u00b0C"}}