{"cas_no": "102-96-5", "cn_name": "\u03b2-\u785d\u57fa\u82ef\u4e59\u70ef", "en_name": ["\u03b2-Nitrostyrene", "Benzene, (2-nitroethenyl)-", "Styrene, \u03b2-nitro-", "(2-Nitroethenyl)benzene", "\u03c9-Nitrostyrene", "\u03b2-Nitrostyrene", "1-Phenyl-2-nitroethene", "1-Nitro-2-phenylethylene", "(2-Nitrovinyl)benzene", "2-Nitro-1-phenylethylene", "1-Nitro-2-phenylethene", "2-Phenyl-1-nitroethene", "NSC 9809"], "SMILES": "C(=CN(=O)=O)C1=CC=CC=C1", "physical_data": {"Molecular Weight": "149.15", "Molecular Formula": "C8H7NO2", "Boiling Point": "120 \u00b0C @ Press: 1 Torr", "Melting Point": "57 \u00b0C"}}