{"cas_no": "102-52-3", "cn_name": "1,1,3,3-\u56db\u7532\u6c27\u57fa\u4e19\u70f7", "en_name": ["Tetramethoxypropane", "Propane, 1,1,3,3-tetramethoxy-", "Malonaldehyde, bis(dimethyl acetal)", "1,1,3,3-Tetramethoxypropane", "Tetramethoxypropane", "Malonaldehyde tetramethyl acetal", "Malondialdehyde tetramethyl acetal", "NSC 27794", "1,1,3,3-Tetrakis(methyloxy)propane"], "SMILES": "C(CC(OC)OC)(OC)OC", "physical_data": {"Molecular Weight": "164.20", "Molecular Formula": "C7H16O4", "Boiling Point": "183 \u00b0C", "Density": "0.9895 g/cm\u00b3 @ Temp: 20 \u00b0C"}}