{"cas_no": "102-29-4", "cn_name": "1,3-\u82ef\u4e8c\u9187\u5355\u4e59\u9178\u916f", "en_name": ["Acetylresorcinol", "1,3-Benzenediol, 1-acetate", "Resorcinol, monoacetate", "1,3-Benzenediol, monoacetate", "Resorcinol, acetate", "Acetylresorcinol", "Euresol", "m-Hydroxyphenyl acetate", "Remonol", "Resorcin acetate", "Resorcin monoacetate", "Resorcitate", "3-Acetoxyphenol", "3-(Acetyloxy)phenol", "NSC 40511", "Acetic acid 3-hydroxyphenyl ester", "(3-Hydroxyphenyl) acetate", "3-Hydroxyphenyl acetate"], "SMILES": "O(C(C)=O)C1=CC(O)=CC=C1", "physical_data": {"Molecular Weight": "152.15", "Molecular Formula": "C8H8O3", "Boiling Point": "283 \u00b0C"}}