{"cas_no": "102-37-4", "cn_name": "\u5496\u5561\u9178\u4e59\u916f", "en_name": ["Ethyl caffeate", "2-Propenoic acid, 3-(3,4-dihydroxyphenyl)-, ethyl ester", "Cinnamic acid, 3,4-dihydroxy-, ethyl ester", "Ethyl caffeate", "Ethyl 3,4-dihydroxycinnamate", "Caffeic acid ethyl ester", "Ethyl caffeoate", "NSC 619661"], "SMILES": "C(=CC(OCC)=O)C1=CC(O)=C(O)C=C1", "physical_data": {"Molecular Weight": "208.21", "Molecular Formula": "C11H12O4", "Melting Point": "149.5 \u00b0C"}}