{"cas_no": "102-39-6", "cn_name": "\u95f4\u82ef\u4e8c\u915a-O,O'-\u4e8c\u4e59\u9178", "en_name": ["2,2\u2032-[1,3-Phenylenebis(oxy)]bis[acetic acid]", "Acetic acid, 2,2\u2032-[1,3-phenylenebis(oxy)]bis-", "Acetic acid, (m-phenylenedioxy)di-", "2,2\u2032-[1,3-Phenylenebis(oxy)]bis[acetic acid]", "(m-Phenylenedioxy)diacetic acid", "(1,3-Phenylenedioxy)diacetic acid", "1,3-(Dicarboxymethoxy)benzene", "Benzene-1,3-dioxyacetic acid", "NSC 1855", "2,2\u2032-(1,3-Phenylenebis(oxy))diacetic acid"], "SMILES": "O(CC(O)=O)C1=CC(OCC(O)=O)=CC=C1", "physical_data": {"Molecular Weight": "226.18", "Molecular Formula": "C10H10O6", "Melting Point": "195 \u00b0C"}}