{"cas_no": "102-82-9", "cn_name": "\u4e09\u6b63\u4e01\u80fa", "en_name": ["Tributylamine", "1-Butanamine, N,N-dibutyl-", "Tributylamine", "N,N-Dibutyl-1-butanamine", "Tri-n-butylamine", "Tris-n-butylamine"], "SMILES": "N(CCCC)(CCCC)CCCC", "physical_data": {"Molecular Weight": "185.35", "Molecular Formula": "C12H27N", "Boiling Point": "216.5 \u00b0C", "Melting Point": "-70 \u00b0C", "Density": "0.7782 g/cm\u00b3 @ Temp: 20 \u00b0C"}}