{"cas_no": "102-07-8", "cn_name": "1,3-\u4e8c\u82ef\u8132", "en_name": ["N,N\u2032-Diphenylurea", "Urea, N,N\u2032-diphenyl-", "Carbanilide", "N,N\u2032-Diphenylurea", "s-Diphenylurea", "sym-Diphenylurea", "1,3-Diphenylurea", "N-Phenyl-N\u2032-phenylurea", "1,3-Diphenylcarbamide", "DPU", "AD 30", "NSC 227401", "NSC 8485"], "SMILES": "N(C(NC1=CC=CC=C1)=O)C2=CC=CC=C2", "physical_data": {"Molecular Weight": "212.25", "Molecular Formula": "C13H12N2O", "Boiling Point": "262 \u00b0C", "Melting Point": "238 \u00b0C", "Density": "1.239 g/cm\u00b3"}}