{"cas_no": "102-46-5", "cn_name": "3,4-\u4e8c\u7532\u57fa\u6c2f\u82c4", "en_name": ["3,4-Dimethylbenzyl chloride", "Benzene, 4-(chloromethyl)-1,2-dimethyl-", "4-(Chloromethyl)-1,2-dimethylbenzene", "3,4-Dimethylbenzyl chloride", "1,2-Dimethyl-4-chloromethylbenzene", "NSC 62669", "4-(Chloromethyl)-o-xylene", "1-(Chloromethyl)-3,4-dimethylbenzene"], "SMILES": "C(Cl)C1=CC(C)=C(C)C=C1", "physical_data": {"Molecular Weight": "154.64", "Molecular Formula": "C9H11Cl", "Boiling Point": "116-117 \u00b0C @ Press: 24 Torr"}}