{"cas_no": "102-54-5", "cn_name": "\u4e8c\u8302\u94c1", "en_name": ["Ferrocene", "Ferrocene", "Di-2,4-cyclopentadien-1-yliron", "Dicyclopentadienyliron", "Iron, bis(\u03b75-2,4-cyclopentadien-1-yl)-", "Iron bis(cyclopentadienide)", "Bis(cyclopentadienyl)iron", "Iron dicyclopentadienyl", "Bis(\u03b7-cyclopentadienyl)iron", "Di-\u03c0-cyclopentadienyl iron", "Ferrotsen", "Catane TM", "Bis(\u03b75-cyclopentadienyl)iron", "NSC 2033", "NSC 209798", "NSC 44012", "PLUTOcen G", "PLUTOcen F-C"], "SMILES": "[Fe+2]12345678([CH]=9[CH-]1[CH]2=[CH]3[CH]49)[CH]%10=[CH]5[CH-]6[CH]7=[CH]8%10", "physical_data": {"Molecular Weight": "", "Molecular Formula": "C10H10Fe", "Boiling Point": "249 \u00b0C", "Melting Point": "173-174 \u00b0C", "Density": "1.49 g/cm\u00b3"}}