{"cas_no": "102-69-2", "cn_name": "\u4e09\u6b63\u4e19\u80fa", "en_name": ["Tripropylamine", "1-Propanamine, N,N-dipropyl-", "Tripropylamine", "N,N-Dipropyl-1-propanamine", "Tri-n-propylamine", "Propyldi-n-propylamine", "N,N,N-Tri-n-propylamine"], "SMILES": "N(CCC)(CCC)CCC", "physical_data": {"Molecular Weight": "143.27", "Molecular Formula": "C9H21N", "Boiling Point": "156 \u00b0C", "Melting Point": "-93.5 \u00b0C", "Density": "0.7558 g/cm\u00b3 @ Temp: 20 \u00b0C"}}