{"cas_no": "102-93-2", "cn_name": "3-\u82ef\u57fa\u4e19\u9170\u80fa", "en_name": ["3-Phenylpropanamide", "Benzenepropanamide", "Hydrocinnamamide", "\u03b2-Phenylpropionamide", "3-Phenylpropionamide", "3-Phenylpropanamide", "NSC 229316", "Phenylpropanamide", "Benzylacetamide"], "SMILES": "C(CC(N)=O)C1=CC=CC=C1", "physical_data": {"Molecular Weight": "149.19", "Molecular Formula": "C9H11NO", "Melting Point": "105 \u00b0C"}}