{"cas_no": "102-71-6", "cn_name": "\u4e09\u4e59\u9187\u80fa", "en_name": ["Triethanolamine", "Ethanol, 2,2\u2032,2\u2032\u2032-nitrilotris-", "Ethanol, 2,2\u2032,2\u2032\u2032-nitrilotri-", "2,2\u2032,2\u2032\u2032-Nitrilotris[ethanol]", "2,2\u2032,2\u2032\u2032-Nitrilotriethanol", "Sterolamide", "Triethanolamin", "Daltogen", "Tris(2-hydroxyethyl)amine", "Trolamine", "Nitrilotriethanol", "Sting-Kill", "Tris(\u03b2-hydroxyethyl)amine", "TEA", "Alkanolamine 244", "TEA (amino alcohol)", "Triethanolamine", "TEOA", "tris-(2-Hydroxyethyl)amine", "Biafine", "NSC 36718", "S 80 (amine)", "S 80", "2-[Bis(2-hydroxyethyl)amino]ethanol", "Tris-amino Ultra PC", "Tri(2-hydroxyethyl)amine", "TEA 99LFG", "N,N,N-Tri(2-hydroxyethyl)amine", "Rhenofit 3555", "TEOA 99", "TEA 99", "Trolamine 99NF", "2-[Bis(2-hydroxyethyl)amino]ethan-1-ol"], "SMILES": "N(CCO)(CCO)CCO", "physical_data": {"Molecular Weight": "149.19", "Molecular Formula": "C6H15NO3", "Boiling Point": "335.4 \u00b0C", "Melting Point": "20.5 \u00b0C", "Density": "1.0985 g/cm\u00b3 @ Temp: 60 \u00b0C"}}