{"cas_no": "102-70-5", "cn_name": "\u4e09\u70ef\u4e19\u57fa\u80fa", "en_name": ["Triallylamine", "2-Propen-1-amine, N,N-di-2-propen-1-yl-", "Triallylamine", "2-Propen-1-amine, N,N-di-2-propenyl-", "N,N-Di-2-propen-1-yl-2-propen-1-amine", "Tris(2-propenyl)amine", "N,N-Di-2-propenyl-2-propen-1-amine", "NSC 32635"], "SMILES": "N(CC=C)(CC=C)CC=C", "physical_data": {"Molecular Weight": "137.22", "Molecular Formula": "C9H15N", "Boiling Point": "155.5 \u00b0C", "Melting Point": "&lt;-70 \u00b0C", "Density": "0.809 g/cm\u00b3 @ Temp: 20 \u00b0C"}}