{"cas_no": "102-01-2", "cn_name": "N-\u4e59\u9170\u4e59\u9170\u82ef\u80fa", "en_name": ["Acetoacetanilide", "Butanamide, 3-oxo-N-phenyl-", "Acetoacetanilide", "3-Oxo-N-phenylbutanamide", "Acetoacetic anilide", "\u03b1-Acetylacetanilide", "\u03b2-Ketobutyranilide", "Acetoacetic acid anilide", "Acetoacetamidobenzene", "Acetoacetylanilide", "1-(Phenylcarbamoyl)-2-propanone", "\u03b1-Acetyl-N-phenylacetamide", "N-(Acetoacetyl)aniline", "N-Phenylacetoacetamide", "1-(Phenylamino)-1,3-butanedione", "N-Phenyl-3-oxobutanamide", "4-(Phenylamino)-2,4-butanedione", "Coupler 633", "NSC 2656", "3-Oxo-N-phenylbutyramide", "N-Phenylacetylacetamide"], "SMILES": "N(C(CC(C)=O)=O)C1=CC=CC=C1", "physical_data": {"Molecular Weight": "177.20", "Molecular Formula": "C10H11NO2", "Melting Point": "86 \u00b0C", "Density": "1.26 g/cm\u00b3 @ Temp: 20 \u00b0C"}}