{"cas_no": "102-84-1", "cn_name": "\u4e9a\u78f7\u9178\u4e09\u4e19\u70ef\u916f", "en_name": ["Triallyl phosphite", "Phosphorous acid, tri-2-propen-1-yl ester", "Phosphorous acid, triallyl ester", "Allyl phosphite", "Phosphorous acid, tri-2-propenyl ester", "Triallyloxyphosphine", "Triallyl phosphite", "NSC 44606"], "SMILES": "P(OCC=C)(OCC=C)OCC=C", "physical_data": {"Molecular Weight": "202.19", "Molecular Formula": "C9H15O3P", "Boiling Point": "71-72.5 \u00b0C @ Press: 3 Torr", "Density": "1.0534 g/cm\u00b3 @ Temp: 0 \u00b0C"}}