{"cas_no": "102-81-8", "cn_name": "2-N-\u4e8c\u4e01\u6c28\u57fa\u4e59\u9187", "en_name": ["2-(Dibutylamino)ethanol", "Ethanol, 2-(dibutylamino)-", "2-(Dibutylamino)ethanol", "Dibutylaminoethanol", "N,N-Dibutylethanolamine", "N,N-Dibutyl-N-(2-hydroxyethyl)amine", "N,N-Dibutylaminoethanol", "Dibutylethanolamine", "N,N-Dibutyl-2-hydroxyethylamine", "N-(2-Hydroxyethyl)dibutylamine", "NSC 6330", "2-Di-N-butylaminoethyl alcohol", "Amino Alcohol 2B", "2-(Dibutylamino)ethan-1-ol"], "SMILES": "N(CCCC)(CCCC)CCO", "physical_data": {"Molecular Weight": "173.30", "Molecular Formula": "C10H23NO", "Boiling Point": "222-232 \u00b0C", "Melting Point": "-70 \u00b0C", "Density": "0.9 g/cm\u00b3"}}