{"cas_no": "102-65-8", "cn_name": "\u78fa\u80fa\u6c2f\u5421\u55ea\u94a0", "en_name": ["Sulfaclozine", "Benzenesulfonamide, 4-amino-N-(6-chloro-2-pyrazinyl)-", "Benzenesulfonamide, 4-amino-N-(6-chloropyrazinyl)-", "Sulfanilamide, N1-(6-chloropyrazinyl)-", "4-Amino-N-(6-chloro-2-pyrazinyl)benzenesulfonamide", "N1-(6-Chloropyrazinyl)sulfanilamide", "Esb3", "Sulfatyf", "Sulfaclozine", "Esb3 (antibiotic)", "Sulfachloropyrazine"], "SMILES": "S(NC1=NC(Cl)=CN=C1)(=O)(=O)C2=CC=C(N)C=C2", "physical_data": {"Molecular Weight": "284.72", "Molecular Formula": "C10H9ClN4O2S", "Melting Point": "234.8-235.4 \u00b0C"}}