{"cas_no": "102-08-9", "cn_name": "N,N'-\u4e8c\u82ef\u57fa\u786b\u8132", "en_name": ["Diphenylthiourea", "Thiourea, N,N\u2032-diphenyl-", "Carbanilide, thio-", "N,N\u2032-Diphenylthiourea", "s-Diphenylthiocarbamide", "sym-Diphenylthiourea", "1,3-Diphenyl-2-thiourea", "Sulfocarbanilide", "Thiocarbanilide", "N,N\u2032-Diphenylthiocarbamide", "1,3-Diphenylthiourea", "Diphenylthiourea", "Stabilisator C", "Vulkacit CA", "Rhenocure CA", "Nocceler C", "NSC 28134", "NSC 686", "Accelerant CA", "1,3-Bis(phenyl)thiourea", "CA", "Accelerator CA", "CA 50", "Accelerator C"], "SMILES": "N(C(NC1=CC=CC=C1)=S)C2=CC=CC=C2", "physical_data": {"Molecular Weight": "228.31", "Molecular Formula": "C13H12N2S", "Melting Point": "154 \u00b0C", "Density": "1.32 g/cm\u00b3"}}