{"cas_no": "102-28-3", "cn_name": "\u95f4\u6c28\u57fa\u4e59\u9170\u82ef\u80fa", "en_name": ["N-(3-Aminophenyl)acetamide", "Acetamide, N-(3-aminophenyl)-", "Acetanilide, 3\u2032-amino-", "N-(3-Aminophenyl)acetamide", "3\u2032-Aminoacetanilide", "1-Amino-3-(acetylamino)benzene", "3-(Acetylamino)aniline", "m-(Acetylamino)aniline", "m-Aminoacetanilide", "3-Amino-N-acetylaniline", "N-Acetyl-m-phenylenediamine", "m-Acetamidoaniline", "N-Acetyl-1,3-diaminobenzene", "3-Acetamidoaniline", "1-Acetylamino-3-aminobenzene", "NSC 165576", "3-Acetylaminobenzeneamine", "3-(Methylcarbonylamino)aniline"], "SMILES": "N(C(C)=O)C1=CC(N)=CC=C1", "physical_data": {"Molecular Weight": "150.18", "Molecular Formula": "C8H10N2O", "Melting Point": "70 \u00b0C"}}