{"cas_no": "102-32-9", "cn_name": "3,4-\u4e8c\u7f9f\u57fa\u82ef\u4e59\u9178", "en_name": ["DOPAC", "Benzeneacetic acid, 3,4-dihydroxy-", "Acetic acid, (3,4-dihydroxyphenyl)-", "3,4-Dihydroxybenzeneacetic acid", "DOPAC", "Homoprotocatechuic acid", "Ba 2773", "Dopacetic acid", "(3,4-Dihydroxyphenyl)acetic acid", "Dihydroxyphenylacetic acid", "NSC 73191", "3\u2032,4\u2032-Dihydroxyphenylacetic acid", "2-(3,4-Dihydroxyphenyl)acetic acid"], "SMILES": "C(C(O)=O)C1=CC(O)=C(O)C=C1", "physical_data": {"Molecular Weight": "168.15", "Molecular Formula": "C8H8O4", "Melting Point": "128.5 \u00b0C"}}