{"cas_no": "102-19-2", "cn_name": "\u82ef\u4e59\u9178\u5f02\u620a\u916f", "en_name": ["Isoamyl phenylacetate", "Benzeneacetic acid, 3-methylbutyl ester", "Acetic acid, phenyl-, isopentyl ester", "Isopentyl alcohol, phenylacetate", "Isoamyl phenylacetate", "Isopentyl phenylacetate", "Phenylacetic acid, isopentyl ester", "NSC 60582", "3-Methylbutyl phenylacetate", "3-Methylbutyl 2-phenylacetate"], "SMILES": "C(C(OCCC(C)C)=O)C1=CC=CC=C1", "physical_data": {"Molecular Weight": "206.28", "Molecular Formula": "C13H18O2", "Boiling Point": "250-251 \u00b0C", "Density": "0.9267 g/cm\u00b3 @ Temp: 16 \u00b0C"}}