{"cas_no": "102-04-5", "cn_name": "\u4e8c\u82c4\u57fa\u7532\u916e", "en_name": ["Dibenzyl ketone", "2-Propanone, 1,3-diphenyl-", "1,3-Diphenyl-2-propanone", "Dibenzyl ketone", "Benzyl ketone", "1,3-Diphenylacetone", "1,3-Diphenylpropanone", "\u03b1,\u03b1\u2032-Diphenylacetone", "NSC 220312", "NSC 407392", "NSC 4577", "1,3-Diphenyl-1-acetone"], "SMILES": "C(C(CC1=CC=CC=C1)=O)C2=CC=CC=C2", "physical_data": {"Molecular Weight": "210.27", "Molecular Formula": "C15H14O", "Boiling Point": "331 \u00b0C", "Melting Point": "35 \u00b0C"}}