{"cas_no": "102-25-0", "cn_name": "1,3,5-\u4e09\u4e59\u57fa\u82ef", "en_name": ["1,3,5-Triethylbenzene", "Benzene, 1,3,5-triethyl-", "1,3,5-Triethylbenzene", "NSC 406584"], "SMILES": "C(C)C1=CC(CC)=CC(CC)=C1", "physical_data": {"Molecular Weight": "162.27", "Molecular Formula": "C12H18", "Boiling Point": "215.9 \u00b0C", "Melting Point": "-66.5 \u00b0C", "Density": "0.8621 g/cm\u00b3 @ Temp: 20 \u00b0C"}}