{"cas_no": "102-87-4", "cn_name": "\u4e09\u6708\u6842\u80fa", "en_name": ["Tridodecylamine", "1-Dodecanamine, N,N-didodecyl-", "Tridodecylamine", "N,N-Didodecyl-1-dodecanamine", "Alamine 304", "Trilaurylamine", "Adogen 360", "Tri-n-dodecylamine", "Alamine 304-1", "Tris(dodecyl)amine", "NSC 35134", "Armeen 312", "TDA", "Hydrogen ionophore I"], "SMILES": "N(CCCCCCCCCCCC)(CCCCCCCCCCCC)CCCCCCCCCCCC", "physical_data": {"Molecular Weight": "521.99", "Molecular Formula": "C36H75N", "Boiling Point": "225 \u00b0C @ Press: 0.25 Torr", "Melting Point": "16 \u00b0C", "Density": "0.82 g/cm\u00b3"}}