{"cas_no": "102-09-0", "cn_name": "\u78b3\u9178\u4e8c\u82ef\u916f", "en_name": ["Diphenyl carbonate", "Carbonic acid, diphenyl ester", "Diphenyl carbonate", "Phenyl carbonate ((PhO)2CO)", "Phenyl carbonate", "NSC 37087", "Bisphenyl carbonate"], "SMILES": "O(C(OC1=CC=CC=C1)=O)C2=CC=CC=C2", "physical_data": {"Molecular Weight": "214.22", "Molecular Formula": "C13H10O3", "Boiling Point": "302-306 \u00b0C", "Melting Point": "80-81 \u00b0C", "Density": "1.1215 g/cm\u00b3 @ Temp: 87 \u00b0C"}}