{"cas_no": "102-56-7", "cn_name": "2,5-\u4e8c\u7532\u6c27\u57fa\u82ef\u80fa", "en_name": ["2,5-Dimethoxyaniline", "Benzenamine, 2,5-dimethoxy-", "Aniline, 2,5-dimethoxy-", "2,5-Dimethoxybenzenamine", "C.I. 35811", "Aminohydroquinone dimethyl ether", "2,5-Dimethoxyaniline", "1-Amino-2,5-dimethoxybenzene", "NSC 4138", "2,5-Dimethoxyphenylamine", "2,5-Dimethoxylaniline", "2-Methoxy-5-methoxyaniline"], "SMILES": "O(C)C1=CC(N)=C(OC)C=C1", "physical_data": {"Molecular Weight": "153.18", "Molecular Formula": "C8H11NO2", "Boiling Point": "270 \u00b0C", "Melting Point": "82.5 \u00b0C"}}