{"cas_no": "102-53-4", "cn_name": "N,N,N',N'-\u56db\u4e59\u57fa\u7532\u4e8c\u80fa", "en_name": ["N,N,N\u2032,N\u2032-Tetraethylmethanediamine", "Methanediamine, N,N,N\u2032,N\u2032-tetraethyl-", "N,N,N\u2032,N\u2032-Tetraethylmethanediamine", "Bis(diethylamino)methane", "N,N\u2032-Methylenebisdiethylamine", "N,N,N\u2032,N\u2032-Tetraethylmethylenediamine", "N,N,N\u2032,N\u2032-Tetraethyldiaminomethane", "Tetraethylmethylenediamine", "N,N-Methylenebisdiethylamine", "NSC 27525", "TEDAM", "[(Diethylamino)methyl]diethylamine"], "SMILES": "N(CN(CC)CC)(CC)CC", "physical_data": {"Molecular Weight": "158.28", "Molecular Formula": "C9H22N2", "Boiling Point": "165.8 \u00b0C", "Density": "0.7993 g/cm\u00b3 @ Temp: 20 \u00b0C"}}