{"cas_no": "102-02-3", "cn_name": "1-\u82ef\u57fa\u53cc\u80cd", "en_name": ["Phenylbiguanide", "Imidodicarbonimidic diamide, N-phenyl-", "Biguanide, 1-phenyl-", "N-Phenylimidodicarbonimidic diamide", "Phenylbiguanide", "1-Phenylbiguanide", "N-Phenyl-N\u2032-guanylguanidine", "N-Phenylbiguanide", "N1-Phenylbiguanide", "PBG", "1-(Diaminomethylidene)-2-phenylguanidine", "1-Carbamimidamido-N-phenylmethanimidamide"], "SMILES": "N(C(NC(=N)N)=N)C1=CC=CC=C1", "physical_data": {"Molecular Weight": "177.21", "Molecular Formula": "C8H11N5", "Melting Point": "143 \u00b0C"}}