{"cas_no": "102-92-1", "cn_name": "\u8089\u6842\u9170\u6c2f", "en_name": ["Cinnamoyl chloride", "2-Propenoyl chloride, 3-phenyl-", "Cinnamoyl chloride", "\u03b2-Phenylacryloyl chloride", "Cinnamic acid chloride", "3-Phenyl-2-propenoyl chloride", "Cinnamic chloride", "Benzylideneacetyl chloride", "3-Phenylpropenoyl chloride", "NSC 4683", "3-Phenylacryloyl chloride"], "SMILES": "C(=CC(Cl)=O)C1=CC=CC=C1", "physical_data": {"Molecular Weight": "166.60", "Molecular Formula": "C9H7ClO", "Boiling Point": "257 \u00b0C", "Melting Point": "36 \u00b0C"}}