{"cas_no": "102065-89-4", "cn_name": "3-\u6c28\u57fa\u6c2e\u6742\u73af\u4e01\u70f7\u4e8c\u76d0\u9178\u76d0", "en_name": ["3-Azetidinamine, hydrochloride (1:2)", "3-Azetidinamine, hydrochloride (1:2)", "3-Azetidinamine, dihydrochloride", "3-Aminoazetidine dihydrochloride"], "SMILES": "NC1CNC1.Cl", "physical_data": {"Molecular Weight": "", "Molecular Formula": "C3H8N2.2ClH", "Melting Point": "162-163 \u00b0C"}}