{"cas_no": "1020251-53-9", "cn_name": "\u82ef\u9170\u80fa\u90a3\u975e", "en_name": ["Xanthoanthrafil", "Benzamide, N-[(3,4-dimethoxyphenyl)methyl]-2-[(2-hydroxy-1-methylethyl)amino]-5-nitro-", "N-[(3,4-Dimethoxyphenyl)methyl]-2-[(2-hydroxy-1-methylethyl)amino]-5-nitrobenzamide", "Benzamidenafil", "Xanthoanthrafil"], "SMILES": "C(NCC1=CC(OC)=C(OC)C=C1)(=O)C2=C(NC(CO)C)C=CC(N(=O)=O)=C2", "physical_data": {"Molecular Weight": "389.40", "Molecular Formula": "C19H23N3O6", "Melting Point": "125-126 \u00b0C"}}