{"cas_no": "10203-28-8", "cn_name": "2-\u5341\u4e8c\u70f7\u9187", "en_name": ["(\u00b1)-2-Dodecanol", "2-Dodecanol", "(RS)-2-Dodecanol", "(\u00b1)-2-Dodecanol", "NSC 86142", "2-Lauryl alcohol"], "SMILES": "C(CCCCCC)CCCC(C)O", "physical_data": {"Molecular Weight": "186.33", "Molecular Formula": "C12H26O", "Boiling Point": "252 \u00b0C", "Melting Point": "19 \u00b0C"}}