{"cas_no": "102089-74-7", "cn_name": "Boc-D-\u82ef\u7518\u6c28\u9187", "en_name": ["1,1-Dimethylethyl N-[(1R)-2-hydroxy-1-phenylethyl]carbamate", "Carbamic acid, N-[(1R)-2-hydroxy-1-phenylethyl]-, 1,1-dimethylethyl ester", "Carbamic acid, (2-hydroxy-1-phenylethyl)-, 1,1-dimethylethyl ester, (R)-", "Carbamic acid, [(1R)-2-hydroxy-1-phenylethyl]-, 1,1-dimethylethyl ester", "1,1-Dimethylethyl N-[(1R)-2-hydroxy-1-phenylethyl]carbamate", "(R)-2-[(N-tert-Butoxycarbonyl)amino]-2-phenylethanol", "N-BOC-(R)-phenylglycinol", "(R)-1,1-Dimethylethyl (2-hydroxy-1-phenylethyl)carbamate", "N-Boc-D-phenylglycinol", "(R)-N-(tert-Butoxycarbonyl)-2-phenylglycinol", "tert-Butyl ((1R)-2-hydroxy-1-phenylethyl)carbamate", "tert-Butyl [(1R)-2-hydroxy-1-phenylethyl]carbamate", "(R)-tert-Butyl (2-hydroxy-1-phenylethyl)carbamate", "tert-Butyl (R)-(2-hydroxy-1-phenylethyl)carbamate"], "SMILES": "C(NC(OC(C)(C)C)=O)(CO)C1=CC=CC=C1", "physical_data": {"Molecular Weight": "237.29", "Molecular Formula": "C13H19NO3", "Melting Point": "137-138.5 \u00b0C"}}