{"cas_no": "1020-31-1", "cn_name": "3,5-\u4e8c\u53d4\u4e01\u57fa\u82ef\u90bb\u4e8c\u915a", "en_name": ["3,5-Di-tert-butylcatechol", "1,2-Benzenediol, 3,5-bis(1,1-dimethylethyl)-", "Pyrocatechol, 3,5-di-tert-butyl-", "3,5-Bis(1,1-dimethylethyl)-1,2-benzenediol", "4,6-Di-tert-butylpyrocatechol", "3,5-Di-tert-butylpyrocatechol", "3,5-Di-t-butylcatechol", "3,5-Di-tert-butyl-1,2-benzenediol", "3,5-Di-tert-butylcatechol", "3,5-Di-tert-butyl-1,2-dihydroxybenzene", "3,5-Di-tert-butyl-o-hydroquinone", "4,6-Di-tert-butyl-1,2-benzenediol", "3,5-Bis(tert-butyl)catechol", "NSC 59767", "DTBQH2", "3,5-Di-tert-Butyl-1,2-Hydroxybenzene", "3,5-Ditert-butylbenzene-1,2-diol"], "SMILES": "C(C)(C)(C)C1=CC(C(C)(C)C)=CC(O)=C1O", "physical_data": {"Molecular Weight": "222.32", "Molecular Formula": "C14H22O2", "Melting Point": "99-100 \u00b0C"}}