{"cas_no": "1020-84-4", "cn_name": "\u516b\u7532\u57fa\u73af\u56db\u7845\u6c2e\u70f7", "en_name": ["2,2,4,4,6,6,8,8-Octamethylcyclotetrasilazane", "Cyclotetrasilazane, 2,2,4,4,6,6,8,8-octamethyl-", "2,2,4,4,6,6,8,8-Octamethylcyclotetrasilazane", "1,1,3,3,5,5,7,7-Octamethylcyclotetrasilazane", "2,2,4,4,6,6,8,8-Octamethyl-1,3,5,7,2,4,6,8-tetrazatetrasilocane"], "SMILES": "C[Si]1(C)N[Si](C)(C)N[Si](C)(C)N[Si](C)(C)N1", "physical_data": {"Molecular Weight": "292.68", "Molecular Formula": "C8H28N4Si4", "Boiling Point": "225 \u00b0C", "Melting Point": "97 \u00b0C", "Density": "0.950 g/cm\u00b3 @ Temp: 22 \u00b0C"}}