{"cas_no": "10203-08-4", "cn_name": "3,5-\u4e8c\u6c2f\u82ef\u7532\u919b", "en_name": ["3,5-Dichlorobenzaldehyde", "Benzaldehyde, 3,5-dichloro-", "3,5-Dichlorobenzaldehyde", "NSC 109095", "2,6-Dichloro-4-benzaldehyde"], "SMILES": "C(=O)C1=CC(Cl)=CC(Cl)=C1", "physical_data": {"Molecular Weight": "175.01", "Molecular Formula": "C7H4Cl2O", "Boiling Point": "240 \u00b0C", "Melting Point": "65 \u00b0C"}}