{"cas_no": "10203-58-4", "cn_name": "\u5f02\u4e01\u57fa\u4e19\u4e8c\u9178\u4e8c\u4e59\u916f", "en_name": ["Propanedioic acid, 2-(2-methylpropyl)-, 1,3-diethyl ester", "Propanedioic acid, 2-(2-methylpropyl)-, 1,3-diethyl ester", "Malonic acid, isobutyl-, diethyl ester", "Propanedioic acid, (2-methylpropyl)-, diethyl ester", "Diethyl isobutylmalonate", "Ethyl 2-ethoxycarbonyl-4-methylvalerate", "(2-Methylpropyl)propanedioic acid diethyl ester", "NSC 68522", "2-Isobutylmalonic acid diethyl ester", "Diethyl 2-isobutylmalonate", "1,3-Diethyl 2-(2-methylpropyl)propanedioate"], "SMILES": "C(C(OCC)=O)(C(OCC)=O)CC(C)C", "physical_data": {"Molecular Weight": "216.27", "Molecular Formula": "C11H20O4", "Boiling Point": "95-98 \u00b0C @ Press: 7 Torr"}}