{"cas_no": "10205-34-2", "cn_name": "BETA-\u4e8c\u7532\u6c28\u57fa\u5f02\u4e01\u9178\u7532\u916f", "en_name": ["Methyl 3-(dimethylamino)-2-methylpropanoate", "Propanoic acid, 3-(dimethylamino)-2-methyl-, methyl ester", "\u03b2-Alanine, N,N,2-trimethyl-, methyl ester", "Methyl 3-(dimethylamino)-2-methylpropanoate", "Methyl 3-(dimethylamino)isobutyrate", "Methyl 3-(dimethylamino)-2-methylpropionate", "Methyl 2-methyl-3-dimethylaminopropionate"], "SMILES": "C(C(OC)=O)(CN(C)C)C", "physical_data": {"Molecular Weight": "145.20", "Molecular Formula": "C7H15NO2", "Boiling Point": "60 \u00b0C @ Press: 15 Torr"}}