{"cas_no": "102036-28-2", "cn_name": "\u539f\u82cf\u6728\u7d20A", "en_name": ["Protosappanin A", "6H-Dibenz[b,d]oxocin-7(8H)-one, 3,10,11-trihydroxy-", "3,10,11-Trihydroxy-6H-dibenz[b,d]oxocin-7(8H)-one", "Sappanol B", "Protosappanin A"], "SMILES": "OC=1C=C2C=3C(=CC(O)=CC3)OCC(=O)CC2=CC1O", "physical_data": {"Molecular Weight": "272.25", "Molecular Formula": "C15H12O5", "Melting Point": "254-255 \u00b0C"}}