{"cas_no": "102029-44-7", "cn_name": "(R)-4-\u82c4\u57fa-2-\u5641\u5511\u70f7\u916e", "en_name": ["(R)-4-Benzyl-2-oxazolidinone", "2-Oxazolidinone, 4-(phenylmethyl)-, (4R)-", "2-Oxazolidinone, 4-(phenylmethyl)-, (R)-", "(4R)-4-(Phenylmethyl)-2-oxazolidinone", "(R)-4-(Phenylmethyl)-2-oxazolidinone", "(R)-4-Benzyl-2-oxazolidinone", "(R)-(+)-4-Benzyl-2-oxazolidinone", "(4R)-4-Benzyl-2-oxazolidinone", "(+)-4-Benzyl-2-oxazolidinone", "(R)-4-Benzyl-1,3-oxazolidin-2-one", "4(R)-Benzyloxazolidin-2-one", "(R)-4-Benzyl-2-oxooxazolidine", "(R)-(+)-4-Benzyl-2-oxazolidone", "(4R)-4-Benzyl-1,3-oxazolidin-2-one", "(R)-4-Benzyloxazolidin-2-one", "(4R)-4-(Phenylmethyl)-1,3-oxazolidin-2-one", "(R)-(+)-4-Benzyl-2-oxazolidinone", "(R)-4-Benzyloxazolidin-2-one", "(4R)-4-Benzyloxazolidin-2-one"], "SMILES": "C(C1COC(=O)N1)C2=CC=CC=C2", "physical_data": {"Molecular Weight": "177.20", "Molecular Formula": "C10H11NO2", "Boiling Point": "150-160 \u00b0C @ Press: 0.5 Torr", "Melting Point": "86 \u00b0C"}}