{"cas_no": "102089-75-8", "cn_name": "N-[(1R)-2-[(\u7532\u57fa\u78fa\u9170\u57fa)\u6c27\u57fa]-1-\u82ef\u57fa\u4e59\u57fa]\u6c28\u57fa\u7532\u9178\u53d4\u4e01\u916f", "en_name": ["1,1-Dimethylethyl N-[(1R)-2-[(methylsulfonyl)oxy]-1-phenylethyl]carbamate", "Carbamic acid, N-[(1R)-2-[(methylsulfonyl)oxy]-1-phenylethyl]-, 1,1-dimethylethyl ester", "Carbamic acid, [2-[(methylsulfonyl)oxy]-1-phenylethyl]-, 1,1-dimethylethyl ester, (R)-", "Carbamic acid, [(1R)-2-[(methylsulfonyl)oxy]-1-phenylethyl]-, 1,1-dimethylethyl ester", "1,1-Dimethylethyl N-[(1R)-2-[(methylsulfonyl)oxy]-1-phenylethyl]carbamate", "(R)-2-[(tert-Butoxycarbonyl)amino]-2-phenylethyl methanesulfonate"], "SMILES": "C(NC(OC(C)(C)C)=O)(COS(C)(=O)=O)C1=CC=CC=C1", "physical_data": {"Molecular Weight": "315.39", "Molecular Formula": "C14H21NO5S", "Melting Point": "112-114 \u00b0C"}}