{"cas_no": "10210-68-1", "cn_name": "\u516b\u7fb0\u57fa\u4e8c\u94b4", "en_name": ["Dicobalt octacarbonyl", "Cobalt, di-\u03bc-carbonylhexacarbonyldi-, (Co-Co)", "Cobalt carbonyl (Co2(CO)8)", "Dicobalt octacarbonyl", "Cobalt tetracarbonyl dimer", "Di-\u03bc-carbonylhexacarbonyldicobalt", "Octacarbonyldicobalt", "Dicobalt carbonyl (Co2(CO)8)", "Cobalt octacarbonyl (Co2(CO)8)"], "SMILES": "C(#O)[Co+2]12(C#O)(C#O)[Co+2](C#O)(C#O)(C#O)([C-2]1=O)[C-2]2=O", "physical_data": {"Molecular Weight": "", "Molecular Formula": "C8Co2O8", "Boiling Point": "95 \u00b0C", "Melting Point": "51 \u00b0C (decomp)", "Density": "1.78 g/cm\u00b3 @ Temp: 25 \u00b0C"}}