{"cas_no": "102146-07-6", "cn_name": "1,3-\u4e8c\u4e19\u57fa-8-\u73af\u620a\u57fa\u9ec4\u560c\u5464", "en_name": ["DPCPX", "1H-Purine-2,6-dione, 8-cyclopentyl-3,9-dihydro-1,3-dipropyl-", "1H-Purine-2,6-dione, 8-cyclopentyl-3,7-dihydro-1,3-dipropyl-", "8-Cyclopentyl-3,9-dihydro-1,3-dipropyl-1H-purine-2,6-dione", "PD 116948", "8-Cyclopentyl-1,3-dipropylxanthine", "1,3-Dipropyl-8-cyclopentylxanthine", "DPCPX", "CPX"], "SMILES": "C(CC)N1C2=C(NC(=N2)C3CCCC3)C(=O)N(CCC)C1=O", "physical_data": {"Molecular Weight": "304.39", "Molecular Formula": "C16H24N4O2", "Melting Point": "199-200 \u00b0C"}}