{"cas_no": "10212-20-1", "cn_name": "2'-\u8131\u6c27-2-\u6c1f\u80de\u82f7", "en_name": ["2\u2032-Deoxy-2\u2032-fluorocytidine", "Cytidine, 2\u2032-deoxy-2\u2032-fluoro-", "2\u2032-Deoxy-2\u2032-fluorocytidine", "2\u2032-Fluoro-2\u2032-deoxy-\u03b2-D-ribofuranosylcytosine", "2\u2032-Fluoro-2\u2032-deoxycytidine", "NSC 529432", "1562: PN: US6617438 TABLE: 1 claimed sequence", "4-Amino-1-[3-fluoro-4-hydroxy-5-(hydroxymethyl)oxolan-2-yl]pyrimidin-2-one"], "SMILES": "FC1C(OC(CO)C1O)N2C(=O)N=C(N)C=C2", "physical_data": {"Molecular Weight": "245.21", "Molecular Formula": "C9H12FN3O4", "Melting Point": "163-167 \u00b0C"}}