{"cas_no": "10210-17-0", "cn_name": "3-(4-\u7f9f\u57fa\u82ef\u57fa)-1-\u4e19\u9187", "en_name": ["3-(4-Hydroxyphenyl)-1-propanol", "Benzenepropanol, 4-hydroxy-", "1-Propanol, 3-(p-hydroxyphenyl)-", "4-Hydroxybenzenepropanol", "3-(p-Hydroxyphenyl)-1-propanol", "Dihydro-p-coumaryl alcohol", "1-(4-Hydroxyphenyl)-3-propanol", "3-(p-Hydroxyphenyl)propyl alcohol", "4-(3-Hydroxypropyl)phenol", "3-(4-Hydroxyphenyl)-1-propanol", "3-(4-Hydroxyphenyl)propanol"], "SMILES": "C(CCO)C1=CC=C(O)C=C1", "physical_data": {"Molecular Weight": "152.19", "Molecular Formula": "C9H12O2", "Boiling Point": "170 \u00b0C @ Press: 2 Torr", "Melting Point": "54 \u00b0C"}}