{"cas_no": "102153-63-9", "cn_name": "6-\u6c2f-2-\u8418\u78fa\u9170\u6c2f", "en_name": ["6-Chloro-2-naphthalenesulfonyl chloride", "2-Naphthalenesulfonyl chloride, 6-chloro-", "6-Chloro-2-naphthalenesulfonyl chloride"], "SMILES": "S(Cl)(=O)(=O)C1=CC2=C(C=C1)C=C(Cl)C=C2", "physical_data": {"Molecular Weight": "261.12", "Molecular Formula": "C10H6Cl2O2S", "Melting Point": "108 \u00b0C"}}