{"cas_no": "10217-34-2", "cn_name": "2-(3,4-\u73af\u6c27\u73af\u5df1\u70f7\u57fa)\u4e59\u57fa\u4e09\u4e59\u6c27\u57fa\u7845\u70f7", "en_name": ["2-(3,4-Epoxycyclohexyl)ethyltriethoxysilane", "7-Oxabicyclo[4.1.0]heptane, 3-[2-(triethoxysilyl)ethyl]-", "Silane, triethoxy[2-(7-oxabicyclo[4.1.0]hept-3-yl)ethyl]-", "7-Oxabicyclo[4.1.0]heptane, silane deriv.", "3-[2-(Triethoxysilyl)ethyl]-7-oxabicyclo[4.1.0]heptane", "\u03b2-(3,4-Epoxycyclohexyl)ethyltriethoxysilane", "2-(3,4-Epoxycyclohexyl)ethyltriethoxysilane", "1,2-Epoxy-4-(2-triethoxysilylethyl)cyclohexane", "CoatOSil 1770", "Silquest Wetlink 90", "Y 11870", "CoatOSil Y 11988", "S 1770 VAN", "CoatOSil A 1770", "ADD 107", "KH 567", "CG 0186", "KH 1770", "DB 1770", "Wetlink 90", "(2-(7-Oxabicyclo[4.1.0]heptan-3-yl)ethyl)triethoxysilane", "A 1861", "TCI-T 3585", "B 87", "SCA-E 86E"], "SMILES": "[Si](CCC1CC2C(CC1)O2)(OCC)(OCC)OCC", "physical_data": {"Molecular Weight": "288.46", "Molecular Formula": "C14H28O4Si", "Boiling Point": "114-117 \u00b0C @ Press: 0.4 Torr", "Density": "1.015 g/cm\u00b3"}}