{"cas_no": "102170-52-5", "cn_name": "2-\u6eb4-5-\u6c2f-4-\u7532\u57fa\u82ef\u80fa", "en_name": ["2-Bromo-5-chloro-4-methylbenzenamine", "Benzenamine, 2-bromo-5-chloro-4-methyl-", "p-Toluidine, 2-bromo-5-chloro-", "2-Bromo-5-chloro-4-methylbenzenamine", "(2-Bromo-5-chloro-4-methylphenyl)amine", "2-Bromo-5-chloro-4-methylaniline"], "SMILES": "BrC1=C(N)C=C(Cl)C(C)=C1", "physical_data": {"Molecular Weight": "220.49", "Molecular Formula": "C7H7BrClN", "Melting Point": "90 \u00b0C"}}