{"cas_no": "10210-32-9", "cn_name": "2-\u4e59\u9170\u57fa\u84bd", "en_name": ["2-Acetylanthracene", "Ethanone, 1-(2-anthracenyl)-", "Ketone, 2-anthryl methyl", "1-(2-Anthracenyl)ethanone", "2-Acetylanthracene", "2-Anthryl methyl ketone"], "SMILES": "C(C)(=O)C1=CC2=C(C=C3C(=C2)C=CC=C3)C=C1", "physical_data": {"Molecular Weight": "220.27", "Molecular Formula": "C16H12O", "Melting Point": "183-185 \u00b0C"}}