{"cas_no": "1021-25-6", "cn_name": "1-\u82ef\u57fa-1\uff0c3\uff0c8-\u4e09\u5511\u87ba\u73af[4,5]\u5341\u70f7-4-\u916e", "en_name": ["1-Phenyl-1,3,8-triazaspiro[4.5]decan-4-one", "1,3,8-Triazaspiro[4.5]decan-4-one, 1-phenyl-", "1-Phenyl-1,3,8-triazaspiro[4.5]decan-4-one", "4-Oxo-1-phenyl-1,3,8-triazaspiro[4.5]decane", "1-Phenyl-4-oxo-1,3,8-triazaspiro[4.5]decane", "NSC 96918"], "SMILES": "O=C1C2(N(CN1)C3=CC=CC=C3)CCNCC2", "physical_data": {"Molecular Weight": "231.29", "Molecular Formula": "C13H17N3O", "Melting Point": "168-176 \u00b0C"}}