{"cas_no": "10212-25-6", "cn_name": "\u76d0\u9178\u73af\u80de\u82f7", "en_name": ["Ancitabine hydrochloride", "6H-Furo[2\u2032,3\u2032:4,5]oxazolo[3,2-a]pyrimidine-2-methanol, 2,3,3a,9a-tetrahydro-3-hydroxy-6-imino-, hydrochloride (1:1), (2R,3R,3aS,9aR)-", "6H-Furo[2\u2032,3\u2032:4,5]oxazolo[3,2-a]pyrimidine-2-methanol, 2,3,3a,9a-tetrahydro-3-hydroxy-6-imino-, monohydrochloride, stereoisomer", "6H-Furo[2\u2032,3\u2032:4,5]oxazolo[3,2-a]pyrimidine-2-methanol, 2,3,3a,9a-tetrahydro-3-hydroxy-6-imino-, monohydrochloride, [2R-(2\u03b1,3\u03b2,3a\u03b2,9a\u03b2)]-", "6H-Furo[2\u2032,3\u2032:4,5]oxazolo[3,2-a]pyrimidine-2-methanol, 2,3,3a,9a-tetrahydro-3-hydroxy-6-imino-, hydrochloride", "6H-Furo[2\u2032,3\u2032:4,5]oxazolo[3,2-a]pyrimidine-2-methanol, 2,3,3a,9a-tetrahydro-3-hydroxy-6-imino-, monohydrochloride, (2R,3R,3aS,9aR)-", "2,2\u2032-O-Cyclocytidine hydrochloride", "O2,O2\u2032-Anhydro-1-\u03b2-arabinofuranosylcytosine hydrochloride", "O2,O2\u2032-Anhydro-1-\u03b2-D-arabinofuranosylcytosine monohydrochloride", "Cyclo-CMP hydrochloride", "Cyclocytidine hydrochloride", "2,2\u2032-Anhydroarabinosylcytosine hydrochloride", "2,2\u2032-Anhydrocytidine hydrochloride", "2,2\u2032-Cyclocytidine hydrochloride", "2,2\u2032-Anhydro-1-\u03b2-D-arabinofuranosylcytosine monohydrochloride", "NSC 145668", "2,2\u2032-Anhydroaracytidine hydrochloride", "2,2\u2032-Anhydro-1-\u03b2-D-arabinofuranosylcytosine hydrochloride", "Ancitabine hydrochloride", "OCTD hydrochloride"], "SMILES": "OC1C2C(N3C(O2)=NC(=N)C=C3)OC1CO.Cl", "physical_data": {"Molecular Weight": "", "Molecular Formula": "C9H11N3O4.ClH", "Melting Point": "248-250 \u00b0C"}}