{"cas_no": "10215-33-5", "cn_name": "3-\u4e01\u6c27\u57fa-1-\u4e19\u9187", "en_name": ["3-Butoxy-1-propanol", "1-Propanol, 3-butoxy-", "3-Butoxy-1-propanol", "3-Butoxypropanol", "3-n-Butoxy-1-propanol", "NSC 221254"], "SMILES": "O(CCCC)CCCO", "physical_data": {"Molecular Weight": "132.20", "Molecular Formula": "C7H16O2", "Boiling Point": "43-45 \u00b0C @ Press: 0.1 Torr"}}