{"cas_no": "10213-78-2", "cn_name": "\u786c\u8102\u9178\u4e8c\u4e59\u9187\u80fa", "en_name": ["Stearyldiethanolamine", "Ethanol, 2,2\u2032-(octadecylimino)bis-", "Ethanol, 2,2\u2032-(octadecylimino)di-", "2,2\u2032-(Octadecylimino)bis[ethanol]", "N,N-Bis-\u03b2-hydroxyethyl-N-octadecylamine", "N,N-Bis(2-hydroxyethyl)-N-octadecylamine", "Stearylbis(hydroxyethyl)amine", "N,N-Bis(2-hydroxyethyl)stearylamine", "N-Stearyldiethanolamine", "Octadecylbis(2-hydroxyethyl)amine", "Octadecyldiethanolamine", "N,N-Bis(\u03b2-hydroxyethyl)stearylamine", "Stearyldiethanolamine", "N,N-Bis(2-hydroxyethyl)octadecylamine", "Antistat 273E", "N,N-Diethanolstearylamine", "Hexcel 273E", "2,2\u2032-(Octadecylimino)diethanol", "Armostat 400", "Denon 2862", "SE 165", "Bis(2-hydroxyethyl)octadecylamine", "Tomah E 18-2", "Denon 2359", "Armostat 1800", "Denon 2035", "SA 20", "Anstex SA 20", "Atmer AS 990", "N,N-Bis(2-hydroxyethyl)octadecanamine", "Di(2-hydroxyethyl)octadecylamine", "HKD 1800", "Electrostripper TS 2B", "TS 2B", "Ethomeen T 18H", "2,2\u2032-(Octadecylazanediyl)diethanol", "2-[2-Hydroxyethyl(octadecyl)amino]ethanol", "Antistatic Agent 1800", "Electrostripper TS 2", "TS 2"], "SMILES": "N(CCCCCCCCCCCCCCCCCC)(CCO)CCO", "physical_data": {"Molecular Weight": "357.61", "Molecular Formula": "C22H47NO2", "Boiling Point": "260-285 \u00b0C @ Press: 5 Torr", "Melting Point": "46 \u00b0C", "Density": "0.8782 g/cm\u00b3 @ Temp: 50 \u00b0C"}}