{"cas_no": "102123-74-0", "cn_name": "(3S)-3-(\u53d4\u4e01\u6c27\u7fb0\u57fa)\u6c28\u57fa-1-\u6c2f-4-\u82ef\u57fa-2-\u4e01\u916e", "en_name": ["N-Boc phenylalanyl chloride", "Carbamic acid, N-[(1S)-3-chloro-2-oxo-1-(phenylmethyl)propyl]-, 1,1-dimethylethyl ester", "Carbamic acid, [3-chloro-2-oxo-1-(phenylmethyl)propyl]-, 1,1-dimethylethyl ester, (S)-", "Carbamic acid, [(1S)-3-chloro-2-oxo-1-(phenylmethyl)propyl]-, 1,1-dimethylethyl ester", "(3S)-(-)-3-tert-Butoxycarbonylamino-1-chloro-4-phenyl-2-butanone", "(3S)-3-(tert-Butoxycarbonylamino)-1-chloro-4-phenyl-2-butanone", "N-Boc phenylalanyl chloride", "(3S)-3-(tert-Butoxycarbonyl)amino-1-chloro-4-phenyl-2-butanone", "(S)-tert-Butyl (4-chloro-3-oxo-1-phenylbutan-2-yl)carbamate"], "SMILES": "C(CC1=CC=CC=C1)(NC(OC(C)(C)C)=O)C(CCl)=O", "physical_data": {"Molecular Weight": "297.78", "Molecular Formula": "C15H20ClNO3", "Melting Point": "103 \u00b0C"}}