{"cas_no": "102121-60-8", "cn_name": "4-[(5,6,7,8-\u56db\u6c22-5,5,8,8-\u56db\u7532\u57fa-2-\u8418\u57fa)\u7532\u9170\u6c28\u57fa]\u82ef\u7532\u9178", "en_name": ["4-[[(5,6,7,8-Tetrahydro-5,5,8,8-tetramethyl-2-naphthalenyl)carbonyl]amino]benzoic acid", "Benzoic acid, 4-[[(5,6,7,8-tetrahydro-5,5,8,8-tetramethyl-2-naphthalenyl)carbonyl]amino]-", "4-[[(5,6,7,8-Tetrahydro-5,5,8,8-tetramethyl-2-naphthalenyl)carbonyl]amino]benzoic acid", "Am 580", "Ro 40-6055", "CD 336", "NSC 608001"], "SMILES": "CC1(C)C=2C(C(C)(C)CC1)=CC=C(C(NC3=CC=C(C(O)=O)C=C3)=O)C2", "physical_data": {"Molecular Weight": "351.44", "Molecular Formula": "C22H25NO3", "Melting Point": "233-235 \u00b0C"}}