{"cas_no": "102169-99-3", "cn_name": "2-BROMO-4-METHYL-5-NITROBENZENAMINE", "en_name": ["2-Bromo-4-methyl-5-nitrobenzenamine", "Benzenamine, 2-bromo-4-methyl-5-nitro-", "p-Toluidine, 2-bromo-5-nitro-", "2-Bromo-4-methyl-5-nitrobenzenamine", "2-Bromo-4-methyl-5-nitroaniline"], "SMILES": "N(=O)(=O)C1=C(C)C=C(Br)C(N)=C1", "physical_data": {"Molecular Weight": "231.05", "Molecular Formula": "C7H7BrN2O2", "Melting Point": "119-120 \u00b0C"}}