{"cas_no": "1022-13-5", "cn_name": "2-\u7532\u6c28\u57fa-5-\u6c2f\u4e8c\u82ef\u7532\u916e", "en_name": ["2-(Methylamino)-5-chlorobenzophenone", "Methanone, [5-chloro-2-(methylamino)phenyl]phenyl-", "Benzophenone, 5-chloro-2-(methylamino)-", "[5-Chloro-2-(methylamino)phenyl]phenylmethanone", "2-(Methylamino)-5-chlorobenzophenone", "5-Chloro-2-(methylamino)benzophenone", "Ro 5-4365", "2-Benzoyl-4-chloro-N-methylaniline"], "SMILES": "C(=O)(C1=C(NC)C=CC(Cl)=C1)C2=CC=CC=C2", "physical_data": {"Molecular Weight": "245.70", "Molecular Formula": "C14H12ClNO", "Melting Point": "94-96 \u00b0C"}}