{"cas_no": "10226-29-6", "cn_name": "6-\u6eb4-2-\u5df1\u916e", "en_name": ["6-Bromo-2-hexanone", "2-Hexanone, 6-bromo-", "6-Bromo-2-hexanone", "1-Bromo-5-hexanone", "5-Oxohexyl bromide"], "SMILES": "C(CCCBr)C(C)=O", "physical_data": {"Molecular Weight": "179.05", "Molecular Formula": "C6H11BrO", "Boiling Point": "216 \u00b0C", "Density": "1.33 g/cm\u00b3 @ Temp: 20 \u00b0C"}}