{"cas_no": "10229-10-4", "cn_name": "3-\u620a\u7094-1-\u9187", "en_name": ["3-Pentyn-1-ol", "3-Pentyn-1-ol", "1-Hydroxy-3-pentyne"], "SMILES": "C(CCO)#CC", "physical_data": {"Molecular Weight": "84.12", "Molecular Formula": "C5H8O", "Boiling Point": "154 \u00b0C", "Density": "0.9002 g/cm\u00b3 @ Temp: 20 \u00b0C"}}