{"cas_no": "1022094-03-6", "cn_name": "(S)3-\u7532\u57fa\u5417\u5549\u76d0\u9178\u76d0", "en_name": ["Morpholine, 3-methyl-, hydrochloride (1:1), (3S)-", "Morpholine, 3-methyl-, hydrochloride (1:1), (3S)-", "(3S)-3-Methylmorpholine hydrochloride", "(S)-3-Methylmorpholine hydrochloride", "(3S)-Methylmorpholine hydrochloride", "(S)-3-Methylmorpholine HCL"], "SMILES": "CC1COCCN1.Cl", "physical_data": {"Molecular Weight": "", "Molecular Formula": "C5H11NO.ClH", "Melting Point": "&gt;200 \u00b0C"}}