{"cas_no": "1022-22-6", "cn_name": "1,1-\u53cc(P-\u6c2f\u82ef\u57fa)-2-\u6c2f\u4e59\u70ef", "en_name": ["p,p\u2032-DDMU", "Benzene, 1,1\u2032-(2-chloroethenylidene)bis[4-chloro-", "Ethylene, 2-chloro-1,1-bis(p-chlorophenyl)-", "Benzene, 1,1\u2032-(chloroethenylidene)bis[4-chloro-", "1,1\u2032-(2-Chloroethenylidene)bis[4-chlorobenzene]", "1,1-Bis(p-chlorophenyl)-2-chloroethylene", "DDMU", "p,p\u2032-DME", "TDEE", "p,p\u2032-TDE olefin", "1-Chloro-2,2-bis(p-chlorophenyl)ethylene", "p,p\u2032-DDMU", "p,p\u2032-DDD olefin", "p,p\u2032-DDM", "1,1-Bis(p-chlorophenyl)-2-chloroethene", "p,p\u2032-TDEE", "2,2-Bis(4-chlorophenyl)-1-chloroethylene", "2,2-Bis(p-chlorophenyl)-1-chloroethylene", "1,1-Bis(4-chlorophenyl)-2-chloroethylene", "2-Chloro-1,1-bis(4-chlorophenyl)ethylene", "1-Chloro-2,2-bis(4-chlorophenyl)ethylene", "p,p\u2032-DDMU", "p,p\u2032-1-Chloro-2,2\u2032-bis(4-chlorophenyl)ethene", "NSC 46465", "1,1\u2032-(Chlorovinylidene)bis[4-chlorobenzene]", "1,1-Bis(4-chlorophenyl)-2-chloroethene", "1-Chloro-4-[2-chloro-1-(4-chlorophenyl)vinyl]benzene", "4,4\u2032-DDMU"], "SMILES": "C(=CCl)(C1=CC=C(Cl)C=C1)C2=CC=C(Cl)C=C2", "physical_data": {"Molecular Weight": "283.58", "Molecular Formula": "C14H9Cl3", "Melting Point": "68-69 \u00b0C"}}