{"cas_no": "10222-01-2", "cn_name": "2,2-\u4e8c\u6eb4-3-\u6b21\u6c2e\u57fa\u4e19\u9170\u80fa", "en_name": ["2,2-Dibromo-3-nitrilopropionamide", "Acetamide, 2,2-dibromo-2-cyano-", "2,2-Dibromo-2-cyanoacetamide", "2,2-Dibromo-3-nitrilopropionamide", "DBNPA", "Dibromocyanoacetamide", "DBNPA 7287", "Biomate 723", "Amerstat 300", "Dibromonitrilopropionamide", "X-CIDE 508", "X-CIDE 509", "NSC 98283", "Dowicil QK 20", "2-Cyano-2,2-dibromoacetamide", "BE 3S", "2,2-Dibromo-3-nitrilopropanamide", "Mucosin NT", "Busan 94", "Dow antimicrobial 7287", "Odycide B 340", "AM 7287", "QK 20", "Thor DB 20", "DB 20", "2,2-Dibromo-3-3-trifluoropropionamide", "Dow bactericide 7287", "Fennosan R 20", "Aqucar DB 20", "Bioban DB 20", "Aqucar RO 20", "Acticide DBW"], "SMILES": "C(C(N)=O)(C#N)(Br)Br", "physical_data": {"Molecular Weight": "241.87", "Molecular Formula": "C3H2Br2N2O", "Boiling Point": "123-126 \u00b0C", "Melting Point": "123-126 \u00b0C"}}