{"cas_no": "10226-30-9", "cn_name": "6-\u6c2f-2-\u5df1\u916e", "en_name": ["6-Chloro-2-hexanone", "2-Hexanone, 6-chloro-", "6-Chloro-2-hexanone", "5-Oxohexyl chloride", "1-Chlorohexan-5-one", "4-Chlorobutyl methyl ketone"], "SMILES": "C(CCCCl)C(C)=O", "physical_data": {"Molecular Weight": "134.60", "Molecular Formula": "C6H11ClO", "Boiling Point": "85-86 \u00b0C @ Press: 16 Torr"}}