{"cas_no": "102268-15-5", "cn_name": "5-\u4e59\u57fa\u5421\u5576-2,3-\u4e8c\u7fa7\u9178", "en_name": ["5-Ethyl-2,3-pyridinedicarboxylic acid", "2,3-Pyridinedicarboxylic acid, 5-ethyl-", "5-Ethyl-2,3-pyridinedicarboxylic acid", "5-Ethylquinolinic acid"], "SMILES": "C(O)(=O)C1=C(C(O)=O)N=CC(CC)=C1", "physical_data": {"Molecular Weight": "195.17", "Molecular Formula": "C9H9NO4", "Melting Point": "148-151 \u00b0C"}}