{"cas_no": "10226-28-5", "cn_name": "5,6-\u4e8c\u6c22-3-\u4e59\u6c27\u7fb0\u57fa-2-\u7532\u57fa-4H-\u5421\u5583", "en_name": ["Ethyl 3,4-dihydro-6-methyl-2H-pyran-5-carboxylate", "2H-Pyran-5-carboxylic acid, 3,4-dihydro-6-methyl-, ethyl ester", "Ethyl 3,4-dihydro-6-methyl-2H-pyran-5-carboxylate", "2-Methyl-3-carbethoxy-5,6-dihydropyran", "NSC 30277", "Ethyl 6-methyl-3,4-dihydro-2H-pyran-5-carboxylate", "3,4-Dihydro-6-methyl-2H-Pyran-5-carboxylic acid ethyl ester"], "SMILES": "C(OCC)(=O)C1=C(C)OCCC1", "physical_data": {"Molecular Weight": "170.21", "Molecular Formula": "C9H14O3", "Boiling Point": "104-105 \u00b0C @ Press: 10 Torr", "Density": "1.0564 g/cm\u00b3 @ Temp: 20 \u00b0C"}}