{"cas_no": "1022-46-4", "cn_name": ".\u8349\u6076\u55ea", "en_name": ["2-Phenyl-4H-3,1-benzoxazin-4-one", "4H-3,1-Benzoxazin-4-one, 2-phenyl-", "2-Phenyl-4H-3,1-benzoxazin-4-one", "Linarotox", "Linurotox", "Bentranil", "3-Phenyl-1H-2,4-benzoxazin-1-one", "2-Phenyl-4-oxo-3,1-benzoxazine", "NSC 16082", "3-Phenyl-2,4-benzoxazin-1-one", "2-Phenylbenzo[d][1,3]oxazin-4-one", "2-Phenyl-3,1-benzoxazin-4-one", "2-Phenyl-4H-benzo[d][1,3]oxazin-4-one"], "SMILES": "O=C1C=2C(N=C(O1)C3=CC=CC=C3)=CC=CC2", "physical_data": {"Molecular Weight": "223.23", "Molecular Formula": "C14H9NO2", "Melting Point": "123.5 \u00b0C"}}