{"cas_no": "1022-31-7", "cn_name": "N-\u7532\u9170\u57fa\u72ac\u5c3f\u6c28\u9178", "en_name": ["N-Formylkynurenine", "Benzenebutanoic acid, \u03b1-amino-2-(formylamino)-\u03b3-oxo-", "Alanine, 3-(N-formylanthraniloyl)-", "\u03b1-Amino-2-(formylamino)-\u03b3-oxobenzenebutanoic acid", "Kynurenine, N\u2032-formyl-", "N\u2032-Formylkynurenine", "Formylkynurenine", "N-Formylkynurenine", "2-Amino-4-(2-formamidophenyl)-4-oxobutanoic acid", "2-Amino-4-(2-formamidophenyl)-4-oxo-butanoic acid"], "SMILES": "C(CC(C(O)=O)N)(=O)C1=C(NC=O)C=CC=C1", "physical_data": {"Molecular Weight": "236.22", "Molecular Formula": "C11H12N2O4", "Melting Point": "169-170 \u00b0C"}}