{"cas_no": "10226-54-7", "cn_name": "\u6d1b\u7c73\u8336\u78b1", "en_name": ["3,7-Dihydro-1,3-dimethyl-7-(5-oxohexyl)-1H-purine-2,6-dione", "1H-Purine-2,6-dione, 3,7-dihydro-1,3-dimethyl-7-(5-oxohexyl)-", "Theophylline, 7-(5-oxohexyl)-", "3,7-Dihydro-1,3-dimethyl-7-(5-oxohexyl)-1H-purine-2,6-dione", "7-(5-Oxohexyl)-1,3-dimethylxanthine", "1,3-Dimethyl-7-(5-oxohexyl)xanthine", "Cervilane", "Lomifylline", "1,3-Dimethyl-7-(5-oxohexyl)-1H-purine-2,6(3H,7H)-dione", "1,3-Dimethyl-7-(5-oxohexyl)-2,3,6,7-tetrahydro-1H-purine-2,6-dione"], "SMILES": "C(CCCC(C)=O)N1C2=C(N(C)C(=O)N(C)C2=O)N=C1", "physical_data": {"Molecular Weight": "278.31", "Molecular Formula": "C13H18N4O3", "Melting Point": "75-76 \u00b0C"}}