{"cas_no": "102229-10-7", "cn_name": "\u53d4\u4e01\u57fa\u4e8c\u7532\u57fa\u7f9f\u4e59\u6c27\u57fa\u7845\u70f7", "en_name": ["2-(tert-Butyldimethylsiloxy)ethanol", "Ethanol, 2-[[(1,1-dimethylethyl)dimethylsilyl]oxy]-", "2-[[(1,1-Dimethylethyl)dimethylsilyl]oxy]ethanol", "2-tert-Butyldimethylsilyloxyethanol", "2-(tert-Butyldimethylsilanyloxy)ethanol", "2-(tert-Butyldimethylsiloxy)ethanol", "2-[(tert-Butyldimethylsilyl)oxy]-1-ethanol", "2-(tert-Butyldimethylsiloxy)ethyl alcohol"], "SMILES": "[Si](C(C)(C)C)(OCCO)(C)C", "physical_data": {"Molecular Weight": "176.33", "Molecular Formula": "C8H20O2Si", "Boiling Point": "74-80 \u00b0C @ Press: 17 Torr"}}