{"cas_no": "10234-40-9", "cn_name": "O,O-\u53cc\uff082-\u7f9f\u4e59\u6c27\u57fa\uff09\u82ef", "en_name": ["1,2-Bis(2-hydroxyethoxy)benzene", "Ethanol, 2,2\u2032-[1,2-phenylenebis(oxy)]bis-", "Ethanol, 2,2\u2032-(o-phenylenedioxy)di-", "2,2\u2032-[1,2-Phenylenebis(oxy)]bis[ethanol]", "1,2-Bis(2-hydroxyethoxy)benzene", "o-Bis(2-hydroxyethoxy)benzene", "Catechol bis(2-hydroxyethyl) ether", "2,2\u2032-(1,2-Phenylenedioxy)diethanol", "2,2\u2032-[1,2-phenylenebis(oxy)]bis[ethanol]", "2-[2-(2-Hydroxyethoxy)phenoxy]ethanol"], "SMILES": "O(CCO)C1=C(OCCO)C=CC=C1", "physical_data": {"Molecular Weight": "198.22", "Molecular Formula": "C10H14O4", "Boiling Point": "170-172 \u00b0C @ Press: 5-8 Torr", "Melting Point": "89-91 \u00b0C"}}