{"cas_no": "102308-97-4", "cn_name": "1-\u7532\u57fa-1H-\u5432\u54da-5-\u80fa", "en_name": ["1-Methyl-1H-indol-5-amine", "1H-Indol-5-amine, 1-methyl-", "Indole, 5-amino-1-methyl-", "1-Methyl-1H-indol-5-amine", "1-Methyl-5-aminoindole", "2-Methyl-5-amino-1H-indole", "(1-Methylindol-5-yl)amine", "1-Methyl-5-amino-1H-indole", "5-Amino-1-methylindole", "5-Amino-1-methyl-1H-indole", "1-Methylindol-5-amine", "N-(1-Methyl-1H-indol-5-yl)amine"], "SMILES": "CN1C=2C(C=C1)=CC(N)=CC2", "physical_data": {"Molecular Weight": "146.19", "Molecular Formula": "C9H10N2", "Boiling Point": "143-144 \u00b0C @ Press: 2 Torr", "Melting Point": "100-101.5 \u00b0C"}}