{"cas_no": "10238-27-4", "cn_name": "2-\u785d\u57fa\u82ef\u57fa-BETA-D-\u6728\u7cd6\u82f7", "en_name": ["o-Nitrophenyl \u03b2-D-xylopyranoside", "\u03b2-D-Xylopyranoside, 2-nitrophenyl", "Xylopyranoside, o-nitrophenyl, \u03b2-D-", "Xylopyranoside, o-nitrophenyl", "2-Nitrophenyl \u03b2-D-xylopyranoside", "o-Nitrophenyl \u03b2-D-xylopyranoside"], "SMILES": "O(C1=C(N(=O)=O)C=CC=C1)C2C(O)C(O)C(O)CO2", "physical_data": {"Molecular Weight": "271.22", "Molecular Formula": "C11H13NO7", "Melting Point": "170-173 \u00b0C"}}