{"cas_no": "10236-47-2", "cn_name": "\u67da\u76ae\u82f7", "en_name": ["Naringin", "4H-1-Benzopyran-4-one, 7-[[2-O-(6-deoxy-\u03b1-L-mannopyranosyl)-\u03b2-D-glucopyranosyl]oxy]-2,3-dihydro-5-hydroxy-2-(4-hydroxyphenyl)-, (2S)-", "Naringin", "4H-1-Benzopyran-4-one, 7-[[2-O-(6-deoxy-\u03b1-L-mannopyranosyl)-\u03b2-D-glucopyranosyl]oxy]-2,3-dihydro-5-hydroxy-2-(4-hydroxyphenyl)-, (S)-", "(2S)-7-[[2-O-(6-Deoxy-\u03b1-L-mannopyranosyl)-\u03b2-D-glucopyranosyl]oxy]-2,3-dihydro-5-hydroxy-2-(4-hydroxyphenyl)-4H-1-benzopyran-4-one", "Naringenin 7-\u03b2-neohesperidoside", "Naringoside", "Naringenin 7-neohesperidoside", "(2S)-Naringin", "7-[2-O-(6-Deoxy-\u03b1-L-mannopyranosyl)-\u03b2-D-glucopyranosyloxy]-2,3-dihydro-4\u2032,5,7-trihydroxyflavone", "Naringenin 7-O-neohesperidoside", "Aurantiin", "NSC 5548", "K-ALL", "KTB 30983", "Sanfix Naringin", "OYL-BLP"], "SMILES": "O=C1C=2C(OC(C1)C3=CC=C(O)C=C3)=CC(OC4C(OC5C(O)C(O)C(O)C(C)O5)C(O)C(O)C(CO)O4)=CC2O", "physical_data": {"Molecular Weight": "580.53", "Molecular Formula": "C27H32O14", "Melting Point": "172 \u00b0C"}}