{"cas_no": "10238-21-8", "cn_name": "\u683c\u5217\u672c\u8132", "en_name": ["Glibenclamide", "Benzamide, 5-chloro-N-[2-[4-[[[(cyclohexylamino)carbonyl]amino]sulfonyl]phenyl]ethyl]-2-methoxy-", "Urea, 1-[[p-[2-(5-chloro-o-anisamido)ethyl]phenyl]sulfonyl]-3-cyclohexyl-", "5-Chloro-N-[2-[4-[[[(cyclohexylamino)carbonyl]amino]sulfonyl]phenyl]ethyl]-2-methoxybenzamide", "1-[4-[2-(5-Chloro-2-methoxybenzamido)ethyl]phenylsulfonyl]-3-cyclohexylurea", "Glibenclamide", "Glybenzcyclamide", "Glyburide", "HB 419", "N-[4-(\u03b2-(2-Methoxy-5-chlorobenzamido)ethyl)benzosulfonyl]-N\u2032-cyclohexylurea", "1-[[-p-[2-(5-Chloro-o-anisamido)ethyl]phenyl]sulfonyl]-3-cyclohexylurea", "U 26452", "N-4-[2-(5-Chloro-2-methoxybenzamido)ethyl]phenylsulfonyl-N\u2032-cyclohexylurea", "HD 419", "N-[4-[\u03b2-(2-Methoxy-5-chlorobenzamido)ethyl]benzenesulfonyl]-N\u2032-cyclohexylurea", "Maninil", "Euglucon 5", "UR 606", "1-[p-2-(5-Chloro-o-anisamido)ethylphenylsulfonyl]-3-cyclohexylurea", "Daonil", "Euglucon", "Gilemal", "Diabeta", "Euglucan", "Euglykon", "Semi-Euglucon N", "Semi-Euglucon", "Daonil N", "Glycolande N", "Betanase", "Betanaz", "Micronase", "Med-Glionil", "Humedia", "Miglucan", "Betanese 5", "Glibens", "Glucohexal", "Debtan", "Antibet", "Dibelet", "Glimel", "Cytagon", "Glibet", "Azuglucon", "Glycomin", "Glibetic", "Glucolon", "Glisulin", "Glicem", "Glyben", "GBN 5", "Bastiverit", "Glibesyn", "Sugril", "Suraben", "Gliben", "Glucoven", "Libanil", "Glucomid", "Gliban", "Glibenil", "Hemi-Daonil", "Calabren", "Benclamin", "Glamide", "Glibil", "Pira", "Gliboral", "Glucobene", "Renabetic", "Apo-Glibenclamide", "Glimide", "Glidiabet", "Gluben", "Yuglucon", "Glucal", "Glitisol", "Tiabet", "Orabetic", "Prodiabet", "Glukovital", "Glynase", "Melix", "Diaben", "Norboral", "Semi-Daonil", "Wuglucon", "Gl", "Dia-basan", "Glucoremed", "Glycolande", "Duraglucon", "Gliben-Puren N", "Gluco-Tabinen", "Abbenclamide", "Adiab", "Diabiphage", "Glubate", "Glimidstada", "Glibomet", "RP 1127", "Glustat", "Glyform", "Gluvans", "Glicuformine", "Glymet", "Glyburine", "5-Chloro-N-(2-(4-(N-(cyclohexylcarbamoyl)sulfamoyl)phenyl)ethyl)-2-methoxybenzamide", "Diazet", "Amglidia"], "SMILES": "C(NCCC1=CC=C(S(NC(NC2CCCCC2)=O)(=O)=O)C=C1)(=O)C3=C(OC)C=CC(Cl)=C3", "physical_data": {"Molecular Weight": "494.00", "Molecular Formula": "C23H28ClN3O5S", "Melting Point": "169 \u00b0C"}}