{"cas_no": "10231-84-2", "cn_name": "4-\u785d\u57fa\u82ef-\u0391-L-\u5421\u5583\u6d77\u85fb\u7cd6\u82f7", "en_name": ["p-Nitrophenyl \u03b1-L-fucoside", "\u03b1-L-Galactopyranoside, 4-nitrophenyl 6-deoxy-", "Galactopyranoside, p-nitrophenyl 6-deoxy-, \u03b1-L-", "4-Nitrophenyl 6-deoxy-\u03b1-L-galactopyranoside", "p-Nitrophenyl \u03b1-fucopyranoside", "p-Nitrophenyl \u03b1-L-fucoside", "p-Nitrophenyl \u03b1-L-fucopyranoside", "p-Nitrophenyl 6-deoxy-\u03b1-L-galactopyranoside", "4-Nitrophenyl-\u03b1-L-fucopyranoside"], "SMILES": "O(C1C(O)C(O)C(O)C(C)O1)C2=CC=C(N(=O)=O)C=C2", "physical_data": {"Molecular Weight": "285.25", "Molecular Formula": "C12H15NO7", "Melting Point": "196-197 \u00b0C"}}