{"cas_no": "10237-77-1", "cn_name": "3-\u7f9f\u57fa\u620a\u9178", "en_name": ["3-Hydroxyvaleric acid", "Pentanoic acid, 3-hydroxy-", "Valeric acid, 3-hydroxy-", "3-Hydroxypentanoic acid", "\u03b2-Hydroxy-n-valeric acid", "\u03b2-Hydroxyvaleric acid", "3-Hydroxy-n-valeric acid", "3-Hydroxyvaleric acid", "(\u00b1)-3-Hydroxypentanoic acid"], "SMILES": "C(CC(O)=O)(CC)O", "physical_data": {"Molecular Weight": "118.13", "Molecular Formula": "C5H10O3", "Melting Point": "43-44 \u00b0C"}}