{"cas_no": "10233-13-3", "cn_name": "\u6708\u6842\u9178\u5f02\u4e19\u916f", "en_name": ["Isopropyl laurate", "Dodecanoic acid, 1-methylethyl ester", "Lauric acid, isopropyl ester", "Emcol-IL", "Isopropyl laurate", "Isopropyl dodecanoate", "Dodecanoic acid isopropyl ester", "1-Methylethyl dodecanoate", "Loxanol MI 6460"], "SMILES": "C(CCCCCCCCCC)C(OC(C)C)=O", "physical_data": {"Molecular Weight": "242.40", "Molecular Formula": "C15H30O2", "Boiling Point": "91 \u00b0C @ Press: 0.12 Torr"}}