{"cas_no": "10236-16-5", "cn_name": "R,R,R,(E)3,7,11,15-\u56db\u7532\u57fa-2-\u5341\u516d\u70ef-1-\u9187\u4e59\u9178\u916f", "en_name": ["Phytol, acetate", "2-Hexadecen-1-ol, 3,7,11,15-tetramethyl-, 1-acetate, (2E,7R,11R)-", "2-Hexadecen-1-ol, 3,7,11,15-tetramethyl-, acetate, [R-[R*,R*-(E)]]-", "2-Hexadecen-1-ol, 3,7,11,15-tetramethyl-, acetate, (2E,7R,11R)-", "Phytol, acetate", "Phytol acetate", "(7R,11R)-trans-Phytol acetate", "Phytyl acetate", "trans-Phytyl acetate", "(E,R,R)-Phytyl acetate"], "SMILES": "C(CCCC(CCCC(C)C)C)(CCCC(=CCOC(C)=O)C)C", "physical_data": {"Molecular Weight": "338.57", "Molecular Formula": "C22H42O2", "Boiling Point": "130 \u00b0C @ Press: 0.01 Torr", "Density": "0.8700 g/cm\u00b3 @ Temp: 22 \u00b0C"}}