{"cas_no": "10230-69-0", "cn_name": "1-(\u82c4\u786b\u57fa)\u4e19\u916e", "en_name": ["1-[(Phenylmethyl)thio]-2-propanone", "2-Propanone, 1-[(phenylmethyl)thio]-", "2-Propanone, (benzylthio)-", "2-Propanone, 1-(benzylthio)-", "1-[(Phenylmethyl)thio]-2-propanone", "Benzylthio-2-propanone", "1-(Benzylthio)-2-propanone", "(Benzylthio)acetone", "1-(Benzylthio)acetone", "1-Benzylsulfanylpropan-2-one", "1-(Benzylsulfanyl)propan-2-one"], "SMILES": "C(SCC(C)=O)C1=CC=CC=C1", "physical_data": {"Molecular Weight": "180.27", "Molecular Formula": "C10H12OS", "Boiling Point": "155 \u00b0C", "Melting Point": "53-54 \u00b0C", "Density": "1.0820 g/cm\u00b3 @ Temp: 20 \u00b0C"}}