{"cas_no": "10242-11-2", "cn_name": "5-\u6eb4\u82ef\u5e76\u544b\u5583-2-\u7fa7\u9178", "en_name": ["5-Bromo-2-benzofurancarboxylic acid", "2-Benzofurancarboxylic acid, 5-bromo-", "5-Bromo-2-benzofurancarboxylic acid", "5-Bromocoumarilic acid", "5-Bromobenzofuran-2-carboxylic acid", "5-Bromobenzo[b]furan-2-carboxylic acid", "5-Bromo-2-benzo[b]furancarboxylic acid", "5-Bromo-1-benzofuran-2-carboxylic acid"], "SMILES": "C(O)(=O)C=1OC=2C(C1)=CC(Br)=CC2", "physical_data": {"Molecular Weight": "241.04", "Molecular Formula": "C9H5BrO3", "Melting Point": "255.5-256.8 \u00b0C"}}