{"cas_no": "10242-01-0", "cn_name": "5-\u7532\u6c27\u57fa\u5432\u54da-3-\u7fa7\u9178", "en_name": ["5-Methoxy-1H-indole-3-carboxylic acid", "1H-Indole-3-carboxylic acid, 5-methoxy-", "Indole-3-carboxylic acid, 5-methoxy-", "Indolo-3-carboxylic acid, 5-methoxy-", "5-Methoxy-1H-indole-3-carboxylic acid", "5-Methoxyindole-3-carboxylic acid", "NSC 88877"], "SMILES": "C(O)(=O)C=1C=2C(NC1)=CC=C(OC)C2", "physical_data": {"Molecular Weight": "191.18", "Molecular Formula": "C10H9NO3", "Melting Point": "172-175 \u00b0C"}}