{"cas_no": "10242-02-1", "cn_name": "5-\u7532\u57fa-3-\u5432\u54da\u7532\u9178", "en_name": ["5-Methyl-1H-indole-3-carboxylic acid", "1H-Indole-3-carboxylic acid, 5-methyl-", "Indole-3-carboxylic acid, 5-methyl-", "5-Methyl-1H-indole-3-carboxylic acid", "5-Methylindole-3-carboxylic acid"], "SMILES": "C(O)(=O)C=1C=2C(NC1)=CC=C(C)C2", "physical_data": {"Molecular Weight": "175.18", "Molecular Formula": "C10H9NO2", "Melting Point": "202 \u00b0C"}}