{"cas_no": "10242-03-2", "cn_name": "6-\u785d\u57fa-1H-\u5432\u54da-3-\u7fa7\u9178", "en_name": ["6-Nitro-1H-indole-3-carboxylic acid", "1H-Indole-3-carboxylic acid, 6-nitro-", "Indole-3-carboxylic acid, 6-nitro-", "6-Nitro-1H-indole-3-carboxylic acid", "NSC 82382"], "SMILES": "C(O)(=O)C=1C=2C(=CC(N(=O)=O)=CC2)NC1", "physical_data": {"Molecular Weight": "206.15", "Molecular Formula": "C9H6N2O4", "Melting Point": "265-267 \u00b0C"}}