{"cas_no": "1024-99-3", "cn_name": "5-\u7898\u5c3f\u82f7", "en_name": ["5-Iodouridine", "Uridine, 5-iodo-", "5-Iodouridine", "NSC 523375"], "SMILES": "OC1C(OC(CO)C1O)N2C(=O)NC(=O)C(I)=C2", "physical_data": {"Molecular Weight": "370.10", "Molecular Formula": "C9H11IN2O6", "Melting Point": "205-210 \u00b0C (decomp)"}}