{"cas_no": "10241-05-1", "cn_name": "\u4e94\u6c2f\u5316\u94bc", "en_name": ["Molybdenum pentachloride", "Molybdenum chloride (MoCl5)", "Molybdenum pentachloride", "Pentachloromolybdenum", "Molybdenum(V) chloride"], "SMILES": "[Mo](Cl)(Cl)(Cl)(Cl)Cl", "physical_data": {"Molecular Weight": "", "Molecular Formula": "Cl5Mo", "Boiling Point": "268 \u00b0C", "Melting Point": "194 \u00b0C"}}