{"cas_no": "1024-57-3", "cn_name": "\u5916\u73af\u6c27\u4e03\u6c2f", "en_name": ["Heptachlor epoxide", "2,5-Methano-2H-indeno[1,2-b]oxirene, 2,3,4,5,6,7,7-heptachloro-1a,1b,5,5a,6,6a-hexahydro-, (1aR,1bS,2R,5S,5aR,6S,6aR)-rel-", "4,7-Methanoindan, 1,4,5,6,7,8,8-heptachloro-2,3-epoxy-3a,4,7,7a-tetrahydro-", "2,5-Methano-2H-indeno[1,2-b]oxirene, 2,3,4,5,6,7,7-heptachloro-1a,1b,5,5a,6,6a-hexahydro-, (1a\u03b1,1b\u03b2,2\u03b1,5\u03b1,5a\u03b2,6\u03b2,6a\u03b1)-", "rel-(1aR,1bS,2R,5S,5aR,6S,6aR)-2,3,4,5,6,7,7-Heptachloro-1a,1b,5,5a,6,6a-hexahydro-2,5-methano-2H-indeno[1,2-b]oxirene", "Velsicol 53CS17", "HCE", "Heptachlor epoxide", "ENT 25584", "Epoxyheptachlor", "GPKh epoxide", "Hepox", "Heptepoxide", "cis-Heptachlor epoxide", "(\u00b1)-cis-Heptachlor epoxide", "HE", "Heptachlor epoxide B", "Heptachlor exo-epoxide", "Heptachlor cis-epoxide", "MeSH ID: D006534"], "SMILES": "ClC12C3C(C(Cl)(C1(Cl)Cl)C(Cl)=C2Cl)C(Cl)C4C3O4", "physical_data": {"Molecular Weight": "389.32", "Molecular Formula": "C10H5Cl7O", "Melting Point": "160-161.5 \u00b0C"}}