{"cas_no": "10242-08-7", "cn_name": "5-\u7532\u6c27\u57fa\u82ef\u5e76\u544b\u5583-2-\u7532\u9178", "en_name": ["5-Methoxybenzofuran-2-carboxylic acid", "2-Benzofurancarboxylic acid, 5-methoxy-", "Coumarilic acid, 5-methoxy-", "5-Methoxy-2-benzofurancarboxylic acid", "5-Methoxycoumarilic acid", "5-Methoxybenzofuran-2-carboxylic acid", "NSC 149912", "5-Methoxybenzo[b]furan-2-carboxylic acid"], "SMILES": "C(O)(=O)C1=CC=2C(O1)=CC=C(OC)C2", "physical_data": {"Molecular Weight": "192.17", "Molecular Formula": "C10H8O4", "Melting Point": "212-213 \u00b0C"}}