{"cas_no": "10242-10-1", "cn_name": "5-\u6c2f\u82ef\u5e76\u544b\u5583-2-\u7fa7\u9178", "en_name": ["5-Chloro-2-benzofurancarboxylic acid", "2-Benzofurancarboxylic acid, 5-chloro-", "5-Chloro-2-benzofurancarboxylic acid", "5-Chlorocoumarilic acid", "5-Chlorobenzo[b]furan-2-carboxylic acid", "5-Chloro-1-benzofuran-2-carboxylic acid", "RT 63"], "SMILES": "C(O)(=O)C=1OC=2C(C1)=CC(Cl)=CC2", "physical_data": {"Molecular Weight": "196.59", "Molecular Formula": "C9H5ClO3", "Melting Point": "215-217 \u00b0C"}}