{"cas_no": "10259-22-0", "cn_name": "3-\u7532\u6c27\u57fa\u82ef\u7532\u9178\u4e59\u916f", "en_name": ["Benzoic acid, 3-methoxy-, ethyl ester", "Benzoic acid, 3-methoxy-, ethyl ester", "m-Anisic acid, ethyl ester", "Benzoic acid, m-methoxy-, ethyl ester", "Ethyl m-methoxybenzoate", "Ethyl 3-methoxybenzoate", "3-Methoxybenzoic acid ethyl ester", "Ethyl m-anisate"], "SMILES": "C(OCC)(=O)C1=CC(OC)=CC=C1", "physical_data": {"Molecular Weight": "180.20", "Molecular Formula": "C10H12O3", "Boiling Point": "260.5 \u00b0C", "Density": "1.0993 g/cm\u00b3 @ Temp: 20 \u00b0C"}}