{"cas_no": "1025-15-6", "cn_name": "\u4e09\u70ef\u4e19\u57fa\u5f02\u6c30\u8132\u9178\u916f", "en_name": ["Triallyl isocyanurate", "1,3,5-Triazine-2,4,6(1H,3H,5H)-trione, 1,3,5-tri-2-propen-1-yl-", "s-Triazine-2,4,6(1H,3H,5H)-trione, 1,3,5-triallyl-", "1,3,5-Triazine-2,4,6(1H,3H,5H)-trione, 1,3,5-tri-2-propenyl-", "s-Triazine-2,4,6(1H,3H,5H)-trione, triallyl-", "1,3,5-Tri-2-propen-1-yl-1,3,5-triazine-2,4,6(1H,3H,5H)-trione", "Isocyanuric acid triallyl ester", "1,3,5-Triallylisocyanurate", "Triallyl isocyanurate", "1,3,5-Triallylisocyanuric acid", "Diak 7", "TAIC", "Perkalink 301", "M 60 (isocyanurate)", "M 60", "Triallyl-1,3,5-triazine-2,4,6(1H,3H,5H)-trione", "1,3,5-Tri-2-propenyl-1,3,5-triazine-2,4,6(1H,3H,5H)-trione", "Perkalink 301-50D", "Perkalink 301-501", "Perkalink 301-50", "TAIC-M 60", "TAIC-M 6", "M 6 (isocyanurate)", "M 6", "DLC-A", "1,3,5-Triallyl-1,3,5-triazine-2,4,6(1H,3H,5H)-trione", "Drimix TAIC", "NSC 11692", "WH 60", "1,3,5-Tris-2\u2032-propenylisocyanuric acid", "SR 533", "TAIC 60", "TAIC WH", "Nor-TAIC KS", "TAIC DLC-A", "TAIC-WH 60", "Perkalink 301-70DPD", "Synpro PLC 4185", "SR 533R", "TAIC 100", "Betalink IC/W 65PA6", "Triallylisocyanuric acid", "Luvomaxx TAIC-DL 70C", "Luvomaxx TAIC-DL 70", "Taicros", "TAIC 70", "Triallyl-1,3,5-triazine-2,4,6-trione", "PL 301-50D", "PL 301", "1,3,5-Tris(2-propenyl) isocyanurate", "HBSQ 2011", "Rhenofit TAIC/S", "Daik 7", "TAIC-S", "TAIC-B", "T 123406", "1,3,5-Triallyl-1,3,5-triazin-2,4,6-trione", "CVD 50106", "Taic-S 70", "Drimix TAIC 75", "Trilink 7", "Kettlitz TAIC", "1,3,5-Triallyl-1,3,5-triazinane-2,4,6-trione", "Allyl isocyanurate", "A 1712", "1,3,5-Triallyl-1,3,5-triazine-2,4,6-trione", "Farida TAIC-P", "T-CROS", "1,3,5-Trially-1,3,5-trione-2,4,6(1H,3H,5H)-triazine", "Vulcofac TAIC 72DLC", "STR 6400", "Farida TAIC A", "Norlink TAIC 70CS"], "SMILES": "C(C=C)N1C(=O)N(CC=C)C(=O)N(CC=C)C1=O", "physical_data": {"Molecular Weight": "249.27", "Molecular Formula": "C12H15N3O3", "Boiling Point": "107-114 \u00b0C @ Press: 0.5 Torr", "Melting Point": "20.5 \u00b0C", "Density": "1.382 g/cm\u00b3 @ Temp: 22 \u00b0C"}}