{"cas_no": "10257-28-0", "cn_name": "D-\u5421\u5583\u8461\u8404\u7cd6", "en_name": ["D-Galactopyranose", "D-Galactopyranose", "Galactopyranose, D-", "NSC 8102"], "SMILES": "C(O)C1C(O)C(O)C(O)C(O)O1", "physical_data": {"Molecular Weight": "180.16", "Molecular Formula": "C6H12O6", "Melting Point": "165 \u00b0C"}}