{"cas_no": "10250-63-2", "cn_name": "1-\u7532\u57fa-3-\u82ef\u57fa-1H-\u5421\u5511-5-\u7fa7\u9178\u4e59\u916f", "en_name": ["Ethyl 1-methyl-3-phenyl-1H-pyrazole-5-carboxylate", "1H-Pyrazole-5-carboxylic acid, 1-methyl-3-phenyl-, ethyl ester", "Pyrazole-5-carboxylic acid, 1-methyl-3-phenyl-, ethyl ester", "Ethyl 1-methyl-3-phenyl-1H-pyrazole-5-carboxylate", "2-Methyl-5-phenyl-2H-pyrazole-3-carboxylic acid ethyl ester"], "SMILES": "C(OCC)(=O)C1=CC(=NN1C)C2=CC=CC=C2", "physical_data": {"Molecular Weight": "230.26", "Molecular Formula": "C13H14N2O2", "Melting Point": "27 \u00b0C"}}