{"cas_no": "10251-17-9", "cn_name": "2-\u8418\u57fa \u7898\u82ef\u8148\u8f9b\u9178\u916f", "en_name": ["2-Naphthalenyl octanoate", "Octanoic acid, 2-naphthalenyl ester", "Octanoic acid, 2-naphthyl ester", "2-Naphthalenyl octanoate", "2-Naphthyl octanoate", "\u03b2-Naphthyl octanoate", "\u03b2-Naphthyl caprylate", "NSC 60371", "2-Naphthyl caprylate"], "SMILES": "O(C(CCCCCCC)=O)C1=CC2=C(C=C1)C=CC=C2", "physical_data": {"Molecular Weight": "270.37", "Molecular Formula": "C18H22O2", "Melting Point": "35-37 \u00b0C"}}