{"cas_no": "102518-79-6", "cn_name": "\u77f3\u6749\u78b1\u7532", "en_name": ["Huperzine A", "5,9-Methanocycloocta[b]pyridin-2(1H)-one, 5-amino-11-ethylidene-5,6,9,10-tetrahydro-7-methyl-, (5R,9R,11E)-", "5,9-Methanocycloocta[b]pyridin-2(1H)-one, 5-amino-11-ethylidene-5,6,9,10-tetrahydro-7-methyl-, [5R-(5\u03b1,9\u03b2,11E)]-", "Selagine", "(5R,9R,11E)-5-Amino-11-ethylidene-5,6,9,10-tetrahydro-7-methyl-5,9-methanocycloocta[b]pyridin-2(1H)-one", "Huperzine A", "(-)-Huperzine A", "(-)-Selagine", "Kimpukan A", "Hupzine A", "Hup A", "Huperzine"], "SMILES": "NC12C3=C(CC(C1=CC)C=C(C)C2)NC(=O)C=C3", "physical_data": {"Molecular Weight": "242.32", "Molecular Formula": "C15H18N2O", "Melting Point": "224-226 \u00b0C"}}