{"cas_no": "10252-29-6", "cn_name": "\u5076\u6c2e\u82ef-4,4'-\u4e8c\u7fb0\u9170\u6c2f", "en_name": ["4,4\u2032-Azodibenzoyl chloride", "Benzoyl chloride, 4,4\u2032-(1,2-diazenediyl)bis-", "Benzoyl chloride, 4,4\u2032-azodi-", "Benzoyl chloride, 4,4\u2032-azobis-", "4,4\u2032-(1,2-Diazenediyl)bis[benzoyl chloride]", "4,4\u2032-Azobenzenedicarbonyl chloride", "1,1\u2032-Azobenzene-4,4\u2032-dicarboxylic acid chloride", "4,4\u2032-Azodibenzoyl chloride", "4,4\u2032-Bis(chlorocarbonyl)azobenzene", "A 1575", "4,4\u2032-Azodibenzoyl dichloride"], "SMILES": "C(Cl)(=O)C1=CC=C(N=NC2=CC=C(C(Cl)=O)C=C2)C=C1", "physical_data": {"Molecular Weight": "307.13", "Molecular Formula": "C14H8Cl2N2O2", "Melting Point": "163 \u00b0C"}}