{"cas_no": "1025967-78-5", "cn_name": "\u7acb\u4ed6\u53f8\u7279", "en_name": ["N-[[2-(6-Benzofuranylcarbonyl)-5,7-dichloro-1,2,3,4-tetrahydro-6-isoquinolinyl]carbonyl]-3-(methylsulfonyl)-L-phenylalanine", "L-Phenylalanine, N-[[2-(6-benzofuranylcarbonyl)-5,7-dichloro-1,2,3,4-tetrahydro-6-isoquinolinyl]carbonyl]-3-(methylsulfonyl)-", "N-[[2-(6-Benzofuranylcarbonyl)-5,7-dichloro-1,2,3,4-tetrahydro-6-isoquinolinyl]carbonyl]-3-(methylsulfonyl)-L-phenylalanine", "Lifitegrast", "SAR 1118", "Xiidra", "(S)-2-(2-(Benzofuran-6-carbonyl)-5,7-dichloro-1,2,3,4-tetrahydroisoquinoline-6-carboxamido)-3-(3-(methylsulfonyl)phenyl)propanoic acid"], "SMILES": "ClC1=C2C(CN(C(=O)C=3C=C4C(=CC3)C=CO4)CC2)=CC(Cl)=C1C(NC(CC5=CC(S(C)(=O)=O)=CC=C5)C(O)=O)=O", "physical_data": {"Molecular Weight": "615.48", "Molecular Formula": "C29H24Cl2N2O7S", "Melting Point": "154-156 \u00b0C"}}