{"cas_no": "102561-42-2", "cn_name": "3-\u6c1f-4-\u7532\u57fa\u82ef\u5f02\u6c30\u9178\u916f", "en_name": ["3-Fluoro-4-methylphenyl isocyanate", "Benzene, 2-fluoro-4-isocyanato-1-methyl-", "2-Fluoro-4-isocyanato-1-methylbenzene", "3-Fluoro-4-methylphenyl isocyanate", "1-Fluoro-5-isocyanato-2-methylbenzene"], "SMILES": "N(=C=O)C1=CC(F)=C(C)C=C1", "physical_data": {"Molecular Weight": "151.14", "Molecular Formula": "C8H6FNO", "Boiling Point": "65-70 \u00b0C @ Press: 12 Torr"}}