{"cas_no": "1026-92-2", "cn_name": "\u5bf9\u82ef\u4e8c\u7532\u9178\u4e8c\u70ef\u4e19\u916f", "en_name": ["Diallyl terephthalate", "1,4-Benzenedicarboxylic acid, 1,4-di-2-propen-1-yl ester", "Terephthalic acid, diallyl ester", "1,4-Benzenedicarboxylic acid, di-2-propenyl ester", "Diallyl terephthalate", "DAPren Monomer", "NSC 5463"], "SMILES": "C(OCC=C)(=O)C1=CC=C(C(OCC=C)=O)C=C1", "physical_data": {"Molecular Weight": "246.26", "Molecular Formula": "C14H14O4", "Boiling Point": "166-184 \u00b0C @ Press: 1 Torr"}}