{"cas_no": "10262-69-8", "cn_name": "\u9a6c\u666e\u66ff\u6797", "en_name": ["Maprotiline", "9,10-Ethanoanthracene-9(10H)-propanamine, N-methyl-", "9,10-Ethanoanthracene-9(10H)-propylamine, N-methyl-", "N-Methyl-9,10-ethanoanthracene-9(10H)-propanamine", "Maprotiline", "N-Methyl-9,10-ethanoanthracene-9(10H)-propylamine", "[3-(9,10-Ethanoanthracen-9(10H)-yl)propyl]methylamine", "MeSH ID: D008376"], "SMILES": "C(CCNC)C12C=3C(C(C=4C1=CC=CC4)CC2)=CC=CC3", "physical_data": {"Molecular Weight": "277.40", "Molecular Formula": "C20H23N", "Melting Point": "93 \u00b0C"}}