{"cas_no": "10268-69-6", "cn_name": "\u90bb\u6c28\u57fa\u82ef\u7532\u9178\u82ef\u916f", "en_name": ["Benzoic acid, 2-amino-, phenyl ester", "Benzoic acid, 2-amino-, phenyl ester", "Anthranilic acid, phenyl ester", "Phenyl o-aminobenzoate", "Phenyl anthranilate", "Phenyl 2-aminobenzoate", "2-Aminobenzoic acid phenyl ester"], "SMILES": "C(OC1=CC=CC=C1)(=O)C2=C(N)C=CC=C2", "physical_data": {"Molecular Weight": "213.23", "Molecular Formula": "C13H11NO2", "Melting Point": "70 \u00b0C"}}