{"cas_no": "10265-92-6", "cn_name": "\u7532\u80fa\u78f7", "en_name": ["Methamidophos", "Phosphoramidothioic acid, O,S-dimethyl ester", "Methyl phosphoramidothioate ((MeO)(MeS)P(O)(NH2))", "Ortho 9006", "Monitor", "Monitor (insecticide)", "Chevron 9006", "Tamaron", "Methamidophos", "Bayer 5546", "O,S-Dimethyl phosphoramidothioate", "RE 9006", "Metamidophos", "Ortho Monitor", "CKB 1220", "Filitox", "O,S-Dimethyl thiophosphoramide", "Acephate-met", "Sniper", "Amidor", "Sundaphos", "Nitofol", "(\u00b1)-Methamidophos", "Sniper (organophosphate insecticide)", "[Methoxy(methylsulfanyl)phosphoryl]amine"], "SMILES": "P(OC)(SC)(N)=O", "physical_data": {"Molecular Weight": "141.13", "Molecular Formula": "C2H8NO2PS", "Melting Point": "44.9 \u00b0C", "Density": "1.27 g/cm\u00b3 @ Temp: 20 \u00b0C"}}