{"cas_no": "102676-31-3", "cn_name": "\u76d0\u9178\u6cd5\u5014\u5511", "en_name": ["Benzonitrile, 4-(5,6,7,8-tetrahydroimidazo[1,5-a]pyridin-5-yl)-, hydrochloride (1:1)", "Benzonitrile, 4-(5,6,7,8-tetrahydroimidazo[1,5-a]pyridin-5-yl)-, hydrochloride (1:1)", "Benzonitrile, 4-(5,6,7,8-tetrahydroimidazo[1,5-a]pyridin-5-yl)-, monohydrochloride", "Imidazo[1,5-a]pyridine, benzonitrile deriv.", "CGS 16949A", "Fadrozole hydrochloride", "CGS 16949", "Afema"], "SMILES": "C(#N)C1=CC=C(C2N3C(CCC2)=CN=C3)C=C1.Cl", "physical_data": {"Molecular Weight": "", "Molecular Formula": "C14H13N3.ClH", "Melting Point": "117-118 \u00b0C"}}