{"cas_no": "102625-64-9", "cn_name": "\u6cee\u6258\u62c9\u5511\u786b\u919a", "en_name": ["Pantoprazole sulfide", "1H-Benzimidazole, 6-(difluoromethoxy)-2-[[(3,4-dimethoxy-2-pyridinyl)methyl]thio]-", "1H-Benzimidazole, 5-(difluoromethoxy)-2-[[(3,4-dimethoxy-2-pyridinyl)methyl]thio]-", "6-(Difluoromethoxy)-2-[[(3,4-dimethoxy-2-pyridinyl)methyl]thio]-1H-benzimidazole", "H 258/28", "5-(Difluoromethoxy)-2-[[(3,4-dimethoxy-2-pyridyl)methyl]thio]-1H-benzimidazole", "5-(Difluoromethoxy)-2-[[(3,4-dimethoxy-2-pyridinyl)methyl]thio]-1H-benzimidazole", "Pantoprazole sulfide", "Pantoprazole thioether"], "SMILES": "S(CC1=C(OC)C(OC)=CC=N1)C=2NC=3C(N2)=CC(OC(F)F)=CC3", "physical_data": {"Molecular Weight": "367.37", "Molecular Formula": "C16H15F2N3O3S", "Melting Point": "165-170 \u00b0C"}}