{"cas_no": "1026016-83-0", "cn_name": "(3R,11BR)-1,3,4,6,7,11B-\u516d\u6c22-9,10-\u4e8c\u7532\u6c27\u57fa-3-\u5f02\u4e01\u57fa-2H-\u82ef\u5e76[A]\u55b9\u55ea-2-\u916e", "en_name": ["(3R,11bR)-1,3,4,6,7,11b-Hexahydro-9,10-dimethoxy-3-(2-methylpropyl)-2H-benzo[a]quinolizin-2-one", "2H-Benzo[a]quinolizin-2-one, 1,3,4,6,7,11b-hexahydro-9,10-dimethoxy-3-(2-methylpropyl)-, (3R,11bR)-", "(3R,11bR)-1,3,4,6,7,11b-Hexahydro-9,10-dimethoxy-3-(2-methylpropyl)-2H-benzo[a]quinolizin-2-one", "(+)-Tetrabenazine", "(+)-TBZ", "(3R,11bR)-TBZ", "(3R,11bR)-Tetrabenazine", "(3R,11BR)-9,10-dimethoxy-3-(2-methylpropyl)-1,3,4,6,7,11b-hexahydrobenzo[a]quinolizin-2-one"], "SMILES": "O(C)C=1C=C2C3N(CC(CC(C)C)C(=O)C3)CCC2=CC1OC", "physical_data": {"Molecular Weight": "317.42", "Molecular Formula": "C19H27NO3", "Melting Point": "108-110 \u00b0C"}}