{"cas_no": "102625-70-7", "cn_name": "\u6cee\u6258\u62c9\u5511", "en_name": ["Pantoprazole", "1H-Benzimidazole, 6-(difluoromethoxy)-2-[[(3,4-dimethoxy-2-pyridinyl)methyl]sulfinyl]-", "1H-Benzimidazole, 5-(difluoromethoxy)-2-[[(3,4-dimethoxy-2-pyridinyl)methyl]sulfinyl]-", "6-(Difluoromethoxy)-2-[[(3,4-dimethoxy-2-pyridinyl)methyl]sulfinyl]-1H-benzimidazole", "Pantoprazole", "SKF 96022", "BY 1023", "5-(Difluoromethoxy)-2-[[(3,4-dimethoxy-2-pyridyl)methyl]sulfinyl]-1H-benzimidazole", "5-(Difluoromethoxy)-2-[[(3,4-dimethoxy-2-pyridinyl)methyl]sulfinyl]-1H-benzimidazole", "Pantozol", "(\u00b1)-Pantoprazole", "2-[[(3,4-Dimethoxypyridin-2-yl)methyl]sulfinyl]-5-difluoromethoxy-1H-benzimidazole", "Pantocid", "Protium", "Protium (pharmaceutical)", "Zovanta", "Altopan", "Pantopan", "Pantecta Control", "Pantoloc Control", "Pantozol Control", "Somac Control", "Controloc Control", "Toprazole"], "SMILES": "S(CC1=C(OC)C(OC)=CC=N1)(=O)C=2NC=3C(N2)=CC(OC(F)F)=CC3", "physical_data": {"Molecular Weight": "383.37", "Molecular Formula": "C16H15F2N3O4S", "Melting Point": "139-140 \u00b0C (decomp)"}}