{"cas_no": "102676-47-1", "cn_name": "\u6cd5\u5014\u5511", "en_name": ["Fadrozole", "Benzonitrile, 4-(5,6,7,8-tetrahydroimidazo[1,5-a]pyridin-5-yl)-", "Imidazo[1,5-a]pyridine, benzonitrile deriv.", "4-(5,6,7,8-Tetrahydroimidazo[1,5-a]pyridin-5-yl)benzonitrile", "Fadrozole"], "SMILES": "C(#N)C1=CC=C(C2N3C(CCC2)=CN=C3)C=C1", "physical_data": {"Molecular Weight": "223.27", "Molecular Formula": "C14H13N3", "Melting Point": "117-118 \u00b0C"}}