{"cas_no": "10272-49-8", "cn_name": "4-\u82ef\u57fa\u54cc\u5576\u76d0\u9178\u76d0", "en_name": ["4-Phenylpiperidine hydrochloride", "Piperidine, 4-phenyl-, hydrochloride (1:1)", "Piperidine, 4-phenyl-, hydrochloride", "4-Phenylpiperidine hydrochloride", "1,2,3,6-Tetrahydro-4-phenylpiperidine hydrochloride", "4-Phenylpiperidinium chloride"], "SMILES": "C1(=CC=CC=C1)C2CCNCC2.Cl", "physical_data": {"Molecular Weight": "", "Molecular Formula": "C11H15N.ClH", "Melting Point": "164-165 \u00b0C"}}