{"cas_no": "1027-28-7", "cn_name": "N-\u4e59\u9170\u57fa-3,5-\u4e8c\u7898-L-\u916a\u6c28\u9178", "en_name": ["N-Acetyl-3,5-diiodo-L-tyrosine", "L-Tyrosine, N-acetyl-3,5-diiodo-", "Tyrosine, N-acetyl-3,5-diiodo-, L-", "N-Acetyl-3,5-diiodo-L-tyrosine", "3,5-Diiodo-N-acetyl-L-tyrosine", "NSC 76100", "N-Acetyl-3,5-diiodotyrosine", "(2S)-2-Acetamido-3-(4-hydroxy-3,5-diiodophenyl)propanoic acid"], "SMILES": "C(C(NC(C)=O)C(O)=O)C1=CC(I)=C(O)C(I)=C1", "physical_data": {"Molecular Weight": "475.02", "Molecular Formula": "C11H11I2NO4", "Melting Point": "198-200 \u00b0C"}}