{"cas_no": "10272-06-7", "cn_name": "3-\u6c2f-5-\u7532\u6c27\u57fa\u82ef\u80fa", "en_name": ["3-Chloro-5-methoxybenzenamine", "Benzenamine, 3-chloro-5-methoxy-", "m-Anisidine, 5-chloro-", "3-Chloro-5-methoxybenzenamine", "3-Chloro-5-methoxyaniline"], "SMILES": "O(C)C1=CC(Cl)=CC(N)=C1", "physical_data": {"Molecular Weight": "157.60", "Molecular Formula": "C7H8ClNO", "Melting Point": "33 \u00b0C"}}