{"cas_no": "10277-43-7", "cn_name": "\u785d\u9178\u9567(\u516d\u6c34)", "en_name": ["Lanthanum nitrate hexahydrate", "Nitric acid, lanthanum(3+) salt, hydrate (3:1:6)", "Nitric acid, lanthanum(3+) salt, hexahydrate", "Lanthanum trinitrate hexahydrate", "Lanthanum(3+) nitrate hexahydrate", "Lanthanum nitrate (La(NO3)3), hexahydrate", "Lanthanum nitrate hexahydrate", "Lanthanum(III) nitrate hexahydrate", "Nitric acid, lanthanum(3+) salt, hydrate (3:1:18)"], "SMILES": "N(=O)(=O)O.[La].O", "physical_data": {"Molecular Weight": "", "Molecular Formula": "H2O.<sup>1</sup>/2HNO3.<sup>1</sup>/6La", "Melting Point": "65 \u00b0C"}}