{"cas_no": "102767-28-2", "cn_name": "\u5de6\u4e59\u62c9\u897f\u5766", "en_name": ["Levetiracetam", "1-Pyrrolidineacetamide, \u03b1-ethyl-2-oxo-, (\u03b1S)-", "1-Pyrrolidineacetamide, \u03b1-ethyl-2-oxo-, (S)-", "(\u03b1S)-\u03b1-Ethyl-2-oxo-1-pyrrolidineacetamide", "UCB-L 059", "Levetiracetam", "Keppra", "Levesam 500", "(-)-Levetiracetam", "Levroxa", "(-)-(S)-\u03b1-Ethyl-2-oxo-1-pyrrolidineacetamide", "Levipil", "(S)-Levetiracetam", "Levesam", "Spritam", "(S)-2-(2-Oxopyrrolidin-1-yl)butanamide", "(2S)-2-(2-Oxopyrrolidin-1-yl)butanamide", "AGB 101 (low-dose levetiracetam)", "AGB 101", "Varuby", "Matever"], "SMILES": "C(C(N)=O)(CC)N1C(=O)CCC1", "physical_data": {"Molecular Weight": "", "Molecular Formula": "C8H14N2O2", "Melting Point": "115-117 \u00b0C"}}