{"cas_no": "1027-62-9", "cn_name": "\u4e8c(\u4e8c\u7532\u6c28\u57fa)\u4e8c\u82ef\u57fa\u7845", "en_name": ["N,N,N\u2032,N\u2032-Tetramethyl-1,1-diphenylsilanediamine", "Silanediamine, N,N,N\u2032,N\u2032-tetramethyl-1,1-diphenyl-", "N,N,N\u2032,N\u2032-Tetramethyl-1,1-diphenylsilanediamine", "Bis(dimethylamino)diphenylsilane", "NSC 252155"], "SMILES": "[Si](N(C)C)(N(C)C)(C1=CC=CC=C1)C2=CC=CC=C2", "physical_data": {"Molecular Weight": "270.44", "Molecular Formula": "C16H22N2Si", "Boiling Point": "139-140 \u00b0C @ Press: 2 Torr"}}