{"cas_no": "10275-21-5", "cn_name": "N,N-\u4e8c\u7532\u57fa\u82ef\u4e59\u80fa\u76d0\u9178\u76d0", "en_name": ["Benzeneethanamine, N,N-dimethyl-, hydrochloride (1:1)", "Benzeneethanamine, N,N-dimethyl-, hydrochloride (1:1)", "Phenethylamine, N,N-dimethyl-, hydrochloride", "Benzeneethanamine, N,N-dimethyl-, hydrochloride", "N,N-Dimethylphenethylamine hydrochloride", "N,N-Dimethylphenylethylamine hydrochloride", "AF 2975"], "SMILES": "C(CN(C)C)C1=CC=CC=C1.Cl", "physical_data": {"Molecular Weight": "", "Molecular Formula": "C10H15N.ClH", "Melting Point": "200-201.5 \u00b0C"}}