{"cas_no": "10272-07-8", "cn_name": "3,5-\u4e8c\u7532\u6c27\u57fa\u82ef\u80fa", "en_name": ["3,5-Dimethoxyaniline", "Benzenamine, 3,5-dimethoxy-", "Aniline, 3,5-dimethoxy-", "3,5-Dimethoxybenzenamine", "3,5-Dimethoxyaniline", "3,5-Dimethoxyphenylamine", "3,5-Dimethoxybenzeneamine", "3,5-Bis(methyloxy)aniline"], "SMILES": "O(C)C1=CC(OC)=CC(N)=C1", "physical_data": {"Molecular Weight": "153.18", "Molecular Formula": "C8H11NO2", "Boiling Point": "178 \u00b0C @ Press: 20 Torr", "Melting Point": "46 \u00b0C"}}