{"cas_no": "1027-14-1", "cn_name": "\u76d0\u9178\u4e09\u7532\u5361\u56e0", "en_name": ["Mesocaine", "Acetamide, 2-(diethylamino)-N-(2,4,6-trimethylphenyl)-, hydrochloride (1:1)", "Acetanilide, 2-(diethylamino)-2\u2032,4\u2032,6\u2032-trimethyl-, monohydrochloride", "Acetamide, 2-(diethylamino)-N-(2,4,6-trimethylphenyl)-, monohydrochloride", "Acetanilide, 2-diethylamino-2\u2032,4\u2032,6\u2032-trimethyl-, hydrochloride", "Trimecaine hydrochloride", "Trimekain hydrochloride", "Mesocaine", "Mesocain", "2-Diethylamino-N-(2,4,6-trimethyl-phenyl)-acetamide", "hydrochloride", "2-(Diethylamino)-N-mesitylacetamide hydrochloride"], "SMILES": "N(C(CN(CC)CC)=O)C1=C(C)C=C(C)C=C1C.Cl", "physical_data": {"Molecular Weight": "", "Molecular Formula": "C15H24N2O.ClH", "Melting Point": "136-137 \u00b0C"}}