{"cas_no": "10271-85-9", "cn_name": "\u5f02\u567b\u5511-5-\u7fa7\u9178", "en_name": ["5-Isothiazolecarboxylic acid", "5-Isothiazolecarboxylic acid", "1,2-Thiazole-5-carboxylic acid"], "SMILES": "C(O)(=O)C1=CC=NS1", "physical_data": {"Molecular Weight": "129.14", "Molecular Formula": "C4H3NO2S", "Melting Point": "196-200 \u00b0C (decomp)"}}