{"cas_no": "10276-85-4", "cn_name": "\u8f9b\u9178\u82ef\u57fa\u7532\u57fa\u916f", "en_name": ["Benzyl octanoate", "Octanoic acid, phenylmethyl ester", "Octanoic acid, benzyl ester", "Caprylic acid, benzyl ester", "Benzyl octanoate", "NSC 23754", "Phenylmethyl octanoate"], "SMILES": "C(OC(CCCCCCC)=O)C1=CC=CC=C1", "physical_data": {"Molecular Weight": "234.33", "Molecular Formula": "C15H22O2", "Boiling Point": "125-130 \u00b0C @ Press: 1.5 Torr"}}