{"cas_no": "10273-90-2", "cn_name": "3-\u7532\u57fa-2-\u82ef\u57fa\u5421\u5576", "en_name": ["3-Methyl-2-phenylpyridine", "Pyridine, 3-methyl-2-phenyl-", "3-Picoline, 2-phenyl-", "3-Methyl-2-phenylpyridine", "NSC 26784", "2-Phenyl-3-methylpyridine"], "SMILES": "CC1=C(C2=CC=CC=C2)N=CC=C1", "physical_data": {"Molecular Weight": "169.22", "Molecular Formula": "C12H11N", "Boiling Point": "148-148.5 \u00b0C @ Press: 16 Torr", "Density": "1.0648 g/cm\u00b3 @ Temp: 20 \u00b0C"}}