{"cas_no": "1028-86-0", "cn_name": "2-\u6c2f-3-(2-\u785d\u57fa\u82ef\u7532\u9170\u6c28\u57fa)\u5421\u5576", "en_name": ["N-(2-Chloro-3-pyridinyl)-2-nitrobenzamide", "Benzamide, N-(2-chloro-3-pyridinyl)-2-nitro-", "Benzamide, N-(2-chloro-3-pyridyl)-o-nitro-", "Pyridine, 2-chloro-3-(o-nitrobenzamido)-", "N-(2-Chloro-3-pyridinyl)-2-nitrobenzamide", "N-(2-Chloro-3-pyridyl)-o-nitrobenzamide"], "SMILES": "C(NC1=C(Cl)N=CC=C1)(=O)C2=C(N(=O)=O)C=CC=C2", "physical_data": {"Molecular Weight": "277.66", "Molecular Formula": "C12H8ClN3O3", "Melting Point": "158.0-161.5 \u00b0C"}}