{"cas_no": "1028206-58-7", "cn_name": "2 -\u4e8c\u73af\u5df1\u57fa\u81a6- 2 6\u4e8c\u7532\u6c27\u57fa- 1 ,1 -\u8054\u82ef", "en_name": ["(SP-4-4)-[2-[2-(Amino-\u03baN)ethyl]phenyl-\u03baC]chloro[dicyclohexyl(2\u2032,6\u2032-dimethoxy[1,1\u2032-biphenyl]-2-yl)phosphine-\u03baP]palladium", "Palladium, [2-[2-(amino-\u03baN)ethyl]phenyl-\u03baC]chloro[dicyclohexyl(2\u2032,6\u2032-dimethoxy[1,1\u2032-biphenyl]-2-yl)phosphine-\u03baP]-, (SP-4-4)-", "(SP-4-4)-[2-[2-(Amino-\u03baN)ethyl]phenyl-\u03baC]chloro[dicyclohexyl(2\u2032,6\u2032-dimethoxy[1,1\u2032-biphenyl]-2-yl)phosphine-\u03baP]palladium"], "SMILES": "[P](C1=C(C=CC=C1)C2=C(OC)C=CC=C2OC)([Pd+2]3([Cl-])[C-]=4C(CC[NH2]3)=CC=CC4)(C5CCCCC5)C6CCCCC6", "physical_data": {"Molecular Weight": "", "Molecular Formula": "C34H45ClNO2PPd", "Melting Point": "176 \u00b0C (decomp)"}}