{"cas_no": "10284-63-6", "cn_name": "D-\u677e\u9187", "en_name": ["(+)-Pinitol", "D-chiro-Inositol, 3-O-methyl-", "Inositol, 3-O-methyl-, D-chiro-", "Pinitol, (+)-", "3-O-Methyl-D-chiro-inositol", "D-Pinitol", "3-O-Methyl-(+)-chiro-inositol", "(+)-Pinitol", "D-(+)-Pinitol", "Pinite (inositol derivative)", "Matezit", "Sennit", "Pinit", "Sennitol", "d-Pinitol", "Pinitol", "Inzitol", "Pinitol B", "D-3-O-Methyl-chiro-inositol", "Caro pinitol P", "Caro Pinitol P"], "SMILES": "O(C)C1C(O)C(O)C(O)C(O)C1O", "physical_data": {"Molecular Weight": "194.18", "Molecular Formula": "C7H14O6", "Melting Point": "188 \u00b0C"}}