{"cas_no": "102849-49-0", "cn_name": "(2S)-2-(2-\u6c27\u4ee3\u5421\u54af\u70f7-1-\u57fa)\u4e01\u9178", "en_name": ["UCB-L 057", "1-Pyrrolidineacetic acid, \u03b1-ethyl-2-oxo-, (\u03b1S)-", "1-Pyrrolidineacetic acid, \u03b1-ethyl-2-oxo-, (S)-", "(\u03b1S)-\u03b1-Ethyl-2-oxo-1-pyrrolidineacetic acid", "UCB-L 057", "2-Pyrrolidinone-n-butyric acid", "1-Pyrrolidineacetic acid \u03b1-ethyl-2-oxo-, (\u03b1S)-"], "SMILES": "C(C(O)=O)(CC)N1C(=O)CCC1", "physical_data": {"Molecular Weight": "171.19", "Molecular Formula": "C8H13NO3", "Melting Point": "124-126 \u00b0C"}}