{"cas_no": "1028-33-7", "cn_name": "1-\u6b63-\u5df1\u57fa\u53ef\u53ef\u78b1", "en_name": ["Pentifylline", "1H-Purine-2,6-dione, 1-hexyl-3,7-dihydro-3,7-dimethyl-", "Theobromine, 1-hexyl-", "1-Hexyl-3,7-dihydro-3,7-dimethyl-1H-purine-2,6-dione", "Cosaldon", "1-Hexyl-3,7-dimethylxanthine", "1-Hexyltheobromine", "1-n-Hexyl-3,7-dimethyl-xanthine", "3,7-Dimethyl-1-hexyl-1H,3H-purin-2,6-dione", "SK 7", "Pentifylline", "Hexyltheobromine", "SK 7 (pharmaceutical)", "Cosadon", "1-Hexyl-3,7-dimethylpurine-2,6-dione", "1-Hexyl-3,7-dimethyl-1H-purine-2,6(3H,7H)-dione"], "SMILES": "O=C1C2=C(N(C)C(=O)N1CCCCCC)N=CN2C", "physical_data": {"Molecular Weight": "264.32", "Molecular Formula": "C13H20N4O2", "Melting Point": "82.5 \u00b0C"}}