{"cas_no": "1028252-16-5", "cn_name": "SIMEPREVIR\u4e2d\u95f4\u4f53", "en_name": ["Cyclopropanecarboxamide, 1-amino-N-(cyclopropylsulfonyl)-2-ethenyl-, (1R,2S)-, 4-methylbenzenesulfonate (1:1)", "Cyclopropanecarboxamide, 1-amino-N-(cyclopropylsulfonyl)-2-ethenyl-, (1R,2S)-, 4-methylbenzenesulfonate (1:1)", "N-(Cyclopropylsulfonyl)-(1R,2S)-2-vinyl-1-aminocyclopropane-1-carboxamide p-toluenesulfonate"], "SMILES": "S(=O)(=O)(O)C1=CC=C(C)C=C1.C(NS(=O)(=O)C1CC1)(=O)C2(N)C(C=C)C2", "physical_data": {"Molecular Weight": "", "Molecular Formula": "C9H14N2O3S.C7H8O3S", "Melting Point": "197-199 \u00b0C"}}