{"cas_no": "10287-54-4", "cn_name": "4-(N,N-\u4e8c\u4e59\u57fa\u6c28\u57fa)\u82ef\u7532\u9178\u4e59\u916f", "en_name": ["Ethyl 4-(diethylamino)benzoate", "Benzoic acid, 4-(diethylamino)-, ethyl ester", "Benzoic acid, p-(diethylamino)-, ethyl ester", "Ethyl 4-(diethylamino)benzoate", "Ethyl p-(diethylamino)benzoate", "Ethyl p-(N,N-diethylamino)benzoate", "p-(Diethylamino)benzoic acid ethyl ester", "NSC 147493"], "SMILES": "N(CC)(CC)C1=CC=C(C(OCC)=O)C=C1", "physical_data": {"Molecular Weight": "221.30", "Molecular Formula": "C13H19NO2", "Boiling Point": "132-138 \u00b0C @ Press: 1.2 Torr", "Melting Point": "43 \u00b0C"}}