{"cas_no": "102877-50-9", "cn_name": "5-\u7f9f\u57fa-1,2,3,4-\u56db\u6c22\u5f02\u55b9\u5549", "en_name": ["1,2,3,4-Tetrahydro-5-isoquinolinol", "5-Isoquinolinol, 1,2,3,4-tetrahydro-", "1,2,3,4-Tetrahydro-5-isoquinolinol", "1,2,3,4-Tetrahydroisoquinolin-5-ol"], "SMILES": "OC1=C2C(=CC=C1)CNCC2", "physical_data": {"Molecular Weight": "149.19", "Molecular Formula": "C9H11NO", "Melting Point": "273 \u00b0C"}}