{"cas_no": "10287-53-3", "cn_name": "4-\u4e8c\u7532\u6c28\u57fa\u82ef\u7532\u9178\u4e59\u916f", "en_name": ["Ethyl 4-(dimethylamino)benzoate", "Benzoic acid, 4-(dimethylamino)-, ethyl ester", "Benzoic acid, p-(dimethylamino)-, ethyl ester", "Ethyl p-(dimethylamino)benzoate", "Parbenate", "N,N-Dimethylbenzocaine", "Ethyl 4-(dimethylamino)benzoate", "Quantacure EPD", "Kayacure EPA", "Ethyl 4-(N,N-dimethylamino)benzoate", "Ethyl p-(N,N-dimethylamino)benzoate", "p-(Ethoxycarbonyl)-N,N-dimethylaniline", "Ethyl N,N-dimethylamino-p-benzoate", "4-Dimethylaminobenzoic acid ethyl ester", "EDMAB", "4-Ethoxycarbonyl-N,N-dimethylaniline", "Speedcure EDB", "Darocur EDB", "Genocure EPD", "Darocur EBD", "\u03c0-EDB", "PI-EDB", "SB-PI 704", "Luna EDB", "IHT-PI EDB", "EPD", "EDAB", "Photoinitiator EDAB", "Lunacure EDB", "JRCure 1101", "EDB", "Omnirad EDB", "Irgacure EDB", "Photoinitiator EDB", "Gencure EDB", "D 1744", "Chemark EDB"], "SMILES": "C(OCC)(=O)C1=CC=C(N(C)C)C=C1", "physical_data": {"Molecular Weight": "193.24", "Molecular Formula": "C11H15NO2", "Boiling Point": "125-142 \u00b0C @ Press: 1-2 Torr", "Melting Point": "65-66 \u00b0C"}}