{"cas_no": "10282-31-2", "cn_name": "4-(4-\u6c30\u82ef\u57fa)\u5417\u5549", "en_name": ["4-Morpholinobenzonitrile", "Benzonitrile, 4-(4-morpholinyl)-", "Benzonitrile, p-morpholino-", "4-(4-Morpholinyl)benzonitrile", "4-(4-Cyanophenyl)morpholine", "N-(4-Cyanophenyl)morpholine", "4-(Morpholin-4-yl)benzonitrile", "4-Morpholinobenzonitrile", "NSC 698610"], "SMILES": "C(#N)C1=CC=C(C=C1)N2CCOCC2", "physical_data": {"Molecular Weight": "188.23", "Molecular Formula": "C11H12N2O", "Melting Point": "65-66 \u00b0C"}}