{"cas_no": "10288-36-5", "cn_name": "2,3-\u4e59\u4e8c\u6c27\u57fa\u915a", "en_name": ["5-Hydroxy-1,4-benzodioxane", "1,4-Benzodioxin-5-ol, 2,3-dihydro-", "1,4-Benzodioxan-5-ol", "2,3-Dihydro-1,4-benzodioxin-5-ol", "5-Hydroxy-1,4-benzodioxan", "2,3-Ethylenedioxyphenol", "1,4-Benzodioxan, 5-hydroxy-", "5-Hydroxy-1,4-benzodioxane", "2,3-Dihydro-5-hydroxy-1,4-benzodioxin", "5-Hydroxy-2,3-dihydro-1,4-benzodioxin", "2,3-Dihydrobenzo[1,4]dioxine-5-ol", "2,3-Dihydrobenzo[b][1,4]dioxin-5-ol"], "SMILES": "OC1=C2C(=CC=C1)OCCO2", "physical_data": {"Molecular Weight": "152.15", "Molecular Formula": "C8H8O3", "Boiling Point": "120-121 \u00b0C @ Press: 1 Torr"}}