{"cas_no": "10290-61-6", "cn_name": "BZ-MET-OH", "en_name": ["N-Benzoyl-L-methionine", "L-Methionine, N-benzoyl-", "Methionine, N-benzoyl-, L-", "N-Benzoyl-L-methionine", "Benzoylmethionine", "N-Benzoylmethionine", "L-N-Benzoylmethionine", "NSC 164655", "Benzoyl-L-Methionine", "(2S)-2-Benzamido-4-methylsulfanylbutanoic acid", "(2S)-4-(Methylsulfanyl)-2-(phenylformamido)butanoic acid"], "SMILES": "C(NC(CCSC)C(O)=O)(=O)C1=CC=CC=C1", "physical_data": {"Molecular Weight": "253.32", "Molecular Formula": "C12H15NO3S", "Melting Point": "176-178 \u00b0C"}}