{"cas_no": "10297-05-9", "cn_name": "1-\u6c2f-4-\u7898\u4e01\u70f7", "en_name": ["1-Chloro-4-iodobutane", "Butane, 1-chloro-4-iodo-", "1-Chloro-4-iodobutane", "1-Iodo-4-chlorobutane", "4-Iodobutyl chloride", "4-Chloro-1-iodobutane", "4-Chlorobutyl iodide", "4-Iodo-1-chlorobutane", "Tetramethylene chloroiodide"], "SMILES": "C(CCI)CCl", "physical_data": {"Molecular Weight": "218.46", "Molecular Formula": "C4H8ClI", "Boiling Point": "93.0-94.5 \u00b0C @ Press: 17 Torr", "Density": "1.7712 g/cm\u00b3 @ Temp: 20 \u00b0C"}}