{"cas_no": "10297-73-1", "cn_name": "4-\u7532\u781c\u57fa\u82ef\u4e59\u916e", "en_name": ["1-[4-(Methylsulfonyl)phenyl]ethanone", "Ethanone, 1-[4-(methylsulfonyl)phenyl]-", "Acetophenone, 4\u2032-(methylsulfonyl)-", "1-[4-(Methylsulfonyl)phenyl]ethanone", "4\u2032-(Methylsulfonyl)acetophenone", "4-Methylsulfonylacetophenone", "p-Methylsulfonylacetophenone", "p-Acetylphenyl methyl sulfone", "1-(4-Methylsulfonylphenyl)ethanone", "NSC 403928", "4-(Methylsulfonyl)propiophenone", "1-[4-(Methylsulfonyl)phenyl]ethan-1-one", "4-(Methanesulfonyl)acetophenone", "1-(4-Methanesulfonylphenyl)ethan-1-one"], "SMILES": "S(C)(=O)(=O)C1=CC=C(C(C)=O)C=C1", "physical_data": {"Molecular Weight": "198.24", "Molecular Formula": "C9H10O3S", "Melting Point": "128-129 \u00b0C"}}