{"cas_no": "10294-33-4", "cn_name": "\u4e09\u6eb4\u5316\u787c", "en_name": ["Boron tribromide", "Borane, tribromo-", "Boron bromide (BBr3)", "Tribromoborane", "Boron bromide", "Boron tribromide", "Tribromoboron", "Boron(III) bromide"], "SMILES": "B(Br)(Br)Br", "physical_data": {"Molecular Weight": "250.52", "Molecular Formula": "BBr3", "Boiling Point": "90 \u00b0C", "Melting Point": "-46.0 \u00b0C", "Density": "2.6431 g/cm\u00b3 @ Temp: 18.4 \u00b0C"}}