{"cas_no": "10294-29-8", "cn_name": "\u6c2f\u5316\u91d1", "en_name": ["Gold(I) chloride", "Gold chloride (AuCl)", "Aurous chloride", "Gold monochloride", "Gold(1+) chloride", "Gold(I) chloride"], "SMILES": "[Au]Cl", "physical_data": {"Molecular Weight": "", "Molecular Formula": "AuCl", "Melting Point": "342 \u00b0C (decomp)"}}