{"cas_no": "1029684-36-3", "cn_name": "2-\u6c2f-1-THP-1-H-\u54aa\u5511-5-\u787c\u9178\u9891\u54ea\u916f", "en_name": ["2-Chloro-1-(tetrahydro-2H-pyran-2-yl)-5-(4,4,5,5-tetramethyl-1,3,2-dioxaborolan-2-yl)-1H-imidazole", "1H-Imidazole, 2-chloro-1-(tetrahydro-2H-pyran-2-yl)-5-(4,4,5,5-tetramethyl-1,3,2-dioxaborolan-2-yl)-", "2-Chloro-1-(tetrahydro-2H-pyran-2-yl)-5-(4,4,5,5-tetramethyl-1,3,2-dioxaborolan-2-yl)-1H-imidazole", "2-Chloro-1-(oxan-2-yl)-5-(4,4,5,5-tetramethyl-1,3,2-dioxaborolan-2-yl)imidazole"], "SMILES": "ClC=1N(C(=CN1)B2OC(C)(C)C(C)(C)O2)C3CCCCO3", "physical_data": {"Molecular Weight": "312.60", "Molecular Formula": "C14H22BClN2O3", "Melting Point": "135 \u00b0C"}}