{"cas_no": "10293-06-8", "cn_name": "D-3-\u6eb4\u6a1f\u8111", "en_name": ["(+)-3-Bromocamphor", "Bicyclo[2.2.1]heptan-2-one, 3-bromo-1,7,7-trimethyl-, (1R,3S,4S)-", "2-Bornanone, 3-bromo-, (1R,3S,4S)-(+)-", "Bicyclo[2.2.1]heptan-2-one, 3-bromo-1,7,7-trimethyl-, (1R-endo)-", "Camphor, 3\u03b1-bromo-, (+)-", "(1R,3S,4S)-3-Bromo-1,7,7-trimethylbicyclo[2.2.1]heptan-2-one", "endo-(+)-3-Bromo-2-bornanone", "(+)-3-Bromocamphor", "(+)-endo-3-Bromocamphor", "(1R-endo)-(+)-3-Bromocamphor", "(1R)-endo-3-Bromocamphor", "(1R-endo)-3-Bromo-1,7,7-trimethylbicyclo[2.2.1]heptan-2-one"], "SMILES": "CC12C(C)(C)C(C(Br)C1=O)CC2", "physical_data": {"Molecular Weight": "231.13", "Molecular Formula": "C10H15BrO", "Melting Point": "76 \u00b0C"}}