{"cas_no": "10294-70-9", "cn_name": "\u7898\u5316\u9521(II)", "en_name": ["Tin iodide (SnI2)", "Tin iodide (SnI2)", "Stannous iodide", "Tin diiodide", "Stannous diiodide", "Diiodotin", "Tin(II) iodide"], "SMILES": "[Sn](I)I", "physical_data": {"Molecular Weight": "", "Molecular Formula": "I2Sn", "Boiling Point": "717 \u00b0C", "Melting Point": "320 \u00b0C", "Density": "5.285 g/cm\u00b3"}}