{"cas_no": "10298-80-3", "cn_name": "4-\u6c2f-3-\u785d\u57fa\u82ef\u7532\u919a", "en_name": ["1-Chloro-4-methoxy-2-nitrobenzene", "Benzene, 1-chloro-4-methoxy-2-nitro-", "Anisole, 4-chloro-3-nitro-", "1-Chloro-4-methoxy-2-nitrobenzene", "4-Chloro-3-nitroanisole", "2-Nitro-4-methoxychlorobenzene", "NSC 47339"], "SMILES": "N(=O)(=O)C1=CC(OC)=CC=C1Cl", "physical_data": {"Molecular Weight": "187.58", "Molecular Formula": "C7H6ClNO3", "Boiling Point": "210 \u00b0C @ Press: 15 Torr", "Melting Point": "52.5-53.5 \u00b0C"}}