{"cas_no": "10297-06-0", "cn_name": "6-\u6c2f\u5df1\u7094", "en_name": ["6-Chloro-1-hexyne", "1-Hexyne, 6-chloro-", "6-Chloro-1-hexyne", "1-Chlorohex-5-yne", "NSC 116032", "(4-Chlorobutyl)acetylene"], "SMILES": "C(CC#C)CCCl", "physical_data": {"Molecular Weight": "116.59", "Molecular Formula": "C6H9Cl", "Boiling Point": "143-144 \u00b0C", "Density": "0.9543 g/cm\u00b3 @ Temp: 420 \u00b0C"}}