{"cas_no": "10294-26-5", "cn_name": "\u786b\u9178\u94f6", "en_name": ["Silver sulfate", "Sulfuric acid, silver(1+) salt (1:2)", "Sulfuric acid, disilver(1+) salt", "Silver sulfate", "Silver sulfate (Ag2SO4)", "Disilver sulfate", "Disilver(1+) sulfate", "Sulfuric acid disilver salt", "Disilver monosulfate", "Sulfuric acid silver salt (1:2)"], "SMILES": "S(=O)(=O)(O)O.[Ag]", "physical_data": {"Molecular Weight": "", "Molecular Formula": "Ag.<sup>1</sup>/2H2O4S", "Melting Point": "652 \u00b0C"}}