{"cas_no": "10294-54-9", "cn_name": "\u786b\u9178\u94ef", "en_name": ["Cesium sulfate", "Sulfuric acid, cesium salt (1:2)", "Cesium sulfate (Cs2(SO4))", "Sulfuric acid, dicesium salt", "Dicesium sulfate", "Cesium sulfate"], "SMILES": "S(=O)(=O)(O)O.[Cs]", "physical_data": {"Molecular Weight": "", "Molecular Formula": "Cs.<sup>1</sup>/2H2O4S", "Melting Point": "1010 \u00b0C"}}