{"cas_no": "10299-44-2", "cn_name": "8-AZAADENOSINE", "en_name": ["8-Azaadenosine", "3H-1,2,3-Triazolo[4,5-d]pyrimidin-7-amine, 3-\u03b2-D-ribofuranosyl-", "3H-v-Triazolo[4,5-d]pyrimidine, 7-amino-3-\u03b2-D-ribofuranosyl-", "3-\u03b2-D-Ribofuranosyl-3H-1,2,3-triazolo[4,5-d]pyrimidin-7-amine", "8-Azaadenosine", "7-Amino-3-\u03b2-D-ribofuranosyl-v-triazolo[4,5-d]pyrimidine", "NSC 72961"], "SMILES": "OC1C(N2C=3C(N=N2)=C(N)N=CN3)OC(CO)C1O", "physical_data": {"Molecular Weight": "268.23", "Molecular Formula": "C9H12N6O4", "Melting Point": "218-219 \u00b0C"}}