{"cas_no": "10294-34-5", "cn_name": "\u4e09\u6c2f\u5316\u787c", "en_name": ["Boron trichloride", "Borane, trichloro-", "Boron chloride (BCl3)", "Trichloroborane", "Boron trichloride", "Trichloroboron", "Boron chloride"], "SMILES": "B(Cl)(Cl)Cl", "physical_data": {"Molecular Weight": "117.17", "Molecular Formula": "BCl3", "Boiling Point": "12.5 \u00b0C", "Melting Point": "-107 \u00b0C", "Density": "1.35 g/cm\u00b3 @ Temp: 12 \u00b0C"}}