{"cas_no": "1029684-37-4", "cn_name": "1-THP-1-H-\u54aa\u5511-5-\u787c\u9178\u9891\u90a3\u9187\u916f", "en_name": ["1-(Tetrahydro-2H-pyran-2-yl)-5-(4,4,5,5-tetramethyl-1,3,2-dioxaborolan-2-yl)-1H-imidazole", "1H-Imidazole, 1-(tetrahydro-2H-pyran-2-yl)-5-(4,4,5,5-tetramethyl-1,3,2-dioxaborolan-2-yl)-", "1-(Tetrahydro-2H-pyran-2-yl)-5-(4,4,5,5-tetramethyl-1,3,2-dioxaborolan-2-yl)-1H-imidazole", "1-(Tetrahydro-2H-pyran-2-yl)-1H-imidazole-5-boronic acid pinacol ester", "1-(Oxan-2-yl)-5-(4,4,5,5-tetramethyl-1,3,2-dioxaborolan-2-yl)imidazole"], "SMILES": "CC1(C)OB(OC1(C)C)C=2N(C=NC2)C3CCCCO3", "physical_data": {"Molecular Weight": "278.15", "Molecular Formula": "C14H23BN2O3", "Melting Point": "132 \u00b0C"}}