{"cas_no": "103-03-7", "cn_name": "1-\u82ef\u57fa\u6c28\u57fa\u8132", "en_name": ["1-Phenylsemicarbazide", "Hydrazinecarboxamide, 2-phenyl-", "Semicarbazide, 1-phenyl-", "2-Phenylhydrazinecarboxamide", "Cryogenine", "Cryogenine (pharmaceutical)", "Phenylsemicarbazide", "1-Phenylsemicarbazide", "1-Carbamyl-2-phenylhydrazine", "Phenicarbazide", "Carbaphen", "Febrimin", "Phenicarbazid", "Phenygenine", "1-Carbamoyl-2-phenylhydrazine", "Kryogenin", "NSC 2763", "(Phenylamino)urea"], "SMILES": "N(NC(N)=O)C1=CC=CC=C1", "physical_data": {"Molecular Weight": "151.17", "Molecular Formula": "C7H9N3O", "Melting Point": "172 \u00b0C"}}