{"cas_no": "103-52-6", "cn_name": "\u4e01\u9178\u82ef\u4e59\u916f", "en_name": ["2-Phenylethyl butanoate", "Butanoic acid, 2-phenylethyl ester", "Butyric acid, phenethyl ester", "Phenethyl alcohol, butyrate", "Benzylcarbinyl butyrate", "Phenethyl butyrate", "2-Phenylethyl butyrate", "2-Phenylethyl butanoate", "2-Phenethyl butanoate", "Phenethyl butanoate", "2-Phenylethyl n-butyrate", "NSC 406207"], "SMILES": "C(COC(CCC)=O)C1=CC=CC=C1", "physical_data": {"Molecular Weight": "192.25", "Molecular Formula": "C12H16O2", "Boiling Point": "238 \u00b0C", "Density": "0.9905 g/cm\u00b3 @ Temp: 20 \u00b0C"}}