{"cas_no": "103-29-7", "cn_name": "1,2-\u4e8c\u82ef\u4e59\u70f7", "en_name": ["Dibenzyl", "Benzene, 1,1\u2032-(1,2-ethanediyl)bis-", "Bibenzyl", "1,1\u2032-(1,2-Ethanediyl)bis[benzene]", "Dibenzyl", "Ethane, 1,2-diphenyl-", "Dibenzil", "1,2-Diphenylethane", "sym-Diphenylethane", "Dihydrostilbene", "NSC 30686", "NSC 8789", "Ethylenebis[benzene]", "1,2-Dihydrostilbene", "(2-Phenylethyl)benzene", "2-Phenylethylbenzene"], "SMILES": "C(CC1=CC=CC=C1)C2=CC=CC=C2", "physical_data": {"Molecular Weight": "182.26", "Molecular Formula": "C14H14", "Boiling Point": "284 \u00b0C", "Melting Point": "52.5 \u00b0C", "Density": "1.1011 g/cm\u00b3 @ Temp: 46 \u00b0C"}}