{"cas_no": "103-85-5", "cn_name": "\u82ef\u57fa\u786b\u8132", "en_name": ["Phenylthiourea", "Thiourea, N-phenyl-", "Urea, 1-phenyl-2-thio-", "Thiourea, phenyl-", "N-Phenylthiourea", "1-Phenyl-2-thiourea", "Phenylthiourea", "PTU", "Phenylthiocarbamide", "U 6324", "1-Phenylthiourea", "\u03b1-Phenylthiourea", "NSC 5779", "Phenyl-2-thiourea", "N-Phenylthiocarbamide", "MeSH ID: D010670"], "SMILES": "N(C(N)=S)C1=CC=CC=C1", "physical_data": {"Molecular Weight": "152.22", "Molecular Formula": "C7H8N2S", "Melting Point": "154 \u00b0C", "Density": "1.3 g/cm\u00b3"}}