{"cas_no": "103-72-0", "cn_name": "\u786b\u4ee3\u5f02\u6c30\u9178\u82ef\u916f", "en_name": ["Phenyl isothiocyanate", "Benzene, isothiocyanato-", "Isothiocyanic acid, phenyl ester", "Isothiocyanatobenzene", "Phenyl isothiocyanate", "Phenyl mustard oil", "Thiocarbanil", "Phenyl thioisocyanate", "Benzene isothiocyanate", "NSC 5583"], "SMILES": "N(=C=S)C1=CC=CC=C1", "physical_data": {"Molecular Weight": "135.19", "Molecular Formula": "C7H5NS", "Boiling Point": "221 \u00b0C", "Melting Point": "-21 \u00b0C", "Density": "1.13 g/cm\u00b3"}}