{"cas_no": "103-76-4", "cn_name": "N-\u7f9f\u4e59\u57fa\u54cc\u55ea", "en_name": ["1-Piperazineethanol", "1-Piperazineethanol", "N-(\u03b2-Hydroxyethyl)piperazine", "1-(2-Hydroxyethyl)piperazine", "N-(2-Hydroxyethyl)piperazine", "2-Piperazinoethanol", "1-(\u03b2-Hydroxyethyl)piperazine", "2-(1-Piperazinyl)ethanol", "(\u03b2-Hydroxyethyl)piperazine", "NSC 26884", "NSC 38969", "NSC 60706", "N-(2\u2032-Hydroxyethyl)piperazine", "2-(Piperazin-1-yl)ethanol", "2-(Piperazin-1-yl)ethan-1-ol"], "SMILES": "C(CO)N1CCNCC1", "physical_data": {"Molecular Weight": "130.19", "Molecular Formula": "C6H14N2O", "Boiling Point": "246 \u00b0C", "Melting Point": "147-148 \u00b0C", "Density": "1.0541 g/cm\u00b3 @ Temp: 25 \u00b0C"}}