{"cas_no": "103-24-2", "cn_name": "\u58ec\u4e8c\u9178\u4e8c(2-\u4e59\u57fa\u5df1\u57fa)\u916f", "en_name": ["Dioctyl azelate", "Nonanedioic acid, 1,9-bis(2-ethylhexyl) ester", "Azelaic acid, bis(2-ethylhexyl) ester", "Nonanedioic acid, bis(2-ethylhexyl) ester", "Azelaic acid di(2-ethylhexyl) ester", "Bis(2-ethylhexyl) azelate", "Dioctyl azelate", "Plastolein 9058", "Staflex DOX", "Truflex DOX", "Octyl azelate", "Di-2-ethylhexyl azelate", "Plastolein 9058DOZ", "DOZ", "Bis(2-ethylhexyl) nonanedioate", "Sansocizer DOZ", "Emery 2958", "Emolien 2986", "Nonanedioic acid di(2-ethylhexyl) ester", "Dioctyl nonanedioate", "Edenol 9058"], "SMILES": "C(COC(CCCCCCCC(OCC(CCCC)CC)=O)=O)(CCCC)CC", "physical_data": {"Molecular Weight": "412.65", "Molecular Formula": "C25H48O4", "Boiling Point": "237 \u00b0C @ Press: 5 Torr", "Melting Point": "-78 \u00b0C", "Density": "0.915 g/cm\u00b3 @ Temp: 25 \u00b0C"}}