{"cas_no": "103-44-6", "cn_name": "2-\u4e59\u57fa\u5df1\u57fa\u4e59\u70ef\u57fa\u919a", "en_name": ["2-Ethylhexyl vinyl ether", "Heptane, 3-[(ethenyloxy)methyl]-", "Ether, 2-ethylhexyl vinyl", "3-[(Ethenyloxy)methyl]heptane", "1-Ethenoxy-2-ethylhexane", "2-Ethylhexyl vinyl ether", "Vinyl 2-ethylhexyl ether", "NSC 24170", "Rapi-Cure EHVE", "Ethyl hexyl vinyl ether", "1-(Ethenyloxy)-2-ethylhexane"], "SMILES": "C(CCCC)(COC=C)CC", "physical_data": {"Molecular Weight": "156.27", "Molecular Formula": "C10H20O", "Melting Point": "-100 \u00b0C"}}