{"cas_no": "103-95-7", "cn_name": "\u5154\u8033\u8349\u919b", "en_name": ["Cyclamen aldehyde", "Benzenepropanal, \u03b1-methyl-4-(1-methylethyl)-", "Hydrocinnamaldehyde, p-isopropyl-\u03b1-methyl-", "\u03b1-Methyl-4-(1-methylethyl)benzenepropanal", "Cyclamal", "p-Isopropyl-\u03b1-methylhydrocinnamaldehyde", "\u03b1-Methyl-p-isopropylhydrocinnamaldehyde", "2-Methyl-3-(p-isopropylphenyl)propionaldehyde", "Cyclamen aldehyde", "3-p-Cumenyl-2-methylpropionaldehyde", "3-(p-Isopropylphenyl)-2-methylpropionaldehyde", "4-Isopropyl-\u03b1-methylhydrocinnamic aldehyde", "3-(4-Isopropylphenyl)-2-methylpropanal", "Cymal", "2-Methyl-3-(4-isopropylphenyl)propionaldehyde", "Cyclosal perfume", "Cyclosal", "3-(4-Isopropylphenyl)isobutyraldehyde", "2-Methyl-3-(p-isopropylphenyl)propanal", "2-Methyl-3-(4-isopropylphenyl)propanal", "2-Methyl-3-[4-(propan-2-yl)phenyl]propanal", "2-Methyl-3-(4-propan-2-ylphenyl)propanal"], "SMILES": "C(C(C=O)C)C1=CC=C(C(C)C)C=C1", "physical_data": {"Molecular Weight": "190.28", "Molecular Formula": "C13H18O", "Boiling Point": "133-137 \u00b0C @ Press: 9 Torr", "Density": "0.9502 g/cm\u00b3 @ Temp: 20 \u00b0C"}}