{"cas_no": "103-64-0", "cn_name": "\u6eb4\u4ee3\u82cf\u5408\u9999\u70ef", "en_name": ["\u03b2-Bromostyrene", "Benzene, (2-bromoethenyl)-", "Styrene, \u03b2-bromo-", "(2-Bromoethenyl)benzene", "\u03b1-Bromo-\u03b2-phenylethylene", "\u03b2-Bromostyrene", "\u03c9-Bromostyrene", "Bromostyrolene", "\u03b2-Bromstyrol", "Hyacinth base", "1-Bromo-2-phenylethene", "Bromstyrol", "Styryl bromide", "(2-Bromovinyl)benzene", "1-Bromo-2-phenylethylene", "NSC 8047", "2-Phenylethenyl bromide"], "SMILES": "C(=CBr)C1=CC=CC=C1", "physical_data": {"Molecular Weight": "183.05", "Molecular Formula": "C8H7Br", "Boiling Point": "112 \u00b0C @ Press: 20 Torr", "Melting Point": "7 \u00b0C", "Density": "1.395-1.424 g/cm\u00b3"}}