{"cas_no": "103-46-8", "cn_name": "S-\u82c4\u57fa\u5def\u57fa\u4e59\u9178", "en_name": ["2-[(Phenylmethyl)thio]acetic acid", "Acetic acid, 2-[(phenylmethyl)thio]-", "Acetic acid, (benzylthio)-", "Acetic acid, [(phenylmethyl)thio]-", "2-[(Phenylmethyl)thio]acetic acid", "S-Benzylthioglycolic acid", "Carboxymethyl benzyl sulfide", "(Benzylthio)acetic acid", "S-Benzylmercaptoacetic acid", "NSC 26553", "2-(Benzylthio)acetic acid", "2-(Benzylsulfanyl)acetic acid", "2-Benzylsulfanylacetic acid"], "SMILES": "C(SCC(O)=O)C1=CC=CC=C1", "physical_data": {"Molecular Weight": "182.24", "Molecular Formula": "C9H10O2S", "Melting Point": "61 \u00b0C"}}