{"cas_no": "103-74-2", "cn_name": "2-\u7f9f\u4e59\u57fa\u5421\u5576", "en_name": ["2-Pyridineethanol", "2-Pyridineethanol", "2-(2-Hydroxyethyl)pyridine", "2-Pyridylethanol", "2-(2-Pyridyl)ethanol", "2-(\u03b2-Hydroxyethyl)pyridine", "2-(\u03b1-Pyridyl)ethanol", "\u03b2-(2-Pyridyl)ethanol", "2-(2-Pyridyl)ethyl alcohol", "2-(2-Pyridinyl)ethanol", "NSC 2144", "NSC 77979", "2-(2-Hydroxylethyl)pyridine", "2-(Pyridin-2-yl)ethan-1-ol"], "SMILES": "C(CO)C1=CC=CC=N1", "physical_data": {"Molecular Weight": "123.15", "Molecular Formula": "C7H9NO", "Boiling Point": "170 \u00b0C @ Press: 100 Torr", "Melting Point": "-7.8 \u00b0C", "Density": "1.091 g/cm\u00b3 @ Temp: 25 \u00b0C"}}