{"cas_no": "103-28-6", "cn_name": "\u5f02\u4e01\u9178\u82c4\u916f", "en_name": ["Benzyl isobutyrate", "Propanoic acid, 2-methyl-, phenylmethyl ester", "Isobutyric acid, benzyl ester", "Benzyl isobutyrate", "Benzyl 2-methylpropionate", "Benzyl isobutanoate", "Phenylmethyl 2-methylpropanoate", "NSC 406201", "NSC 46112", "Benzyl 2-methylpropanoate"], "SMILES": "C(OC(C(C)C)=O)C1=CC=CC=C1", "physical_data": {"Molecular Weight": "178.23", "Molecular Formula": "C11H14O2", "Boiling Point": "229 \u00b0C"}}