{"cas_no": "103-31-1", "cn_name": "4-\u82ef\u4e59\u70ef\u57fa\u5421\u5576", "en_name": ["4-Styrylpyridine", "Pyridine, 4-(2-phenylethenyl)-", "Pyridine, 4-styryl-", "4-Stilbazole", "4-(2-Phenylethenyl)pyridine", "\u03b3-Stilbazole", "4-Styrylpyridine", "Ba 35998", "Ba 35988", "4-(2-Phenylvinyl)pyridine", "NSC 360203", "NSC 44776", "NSC 9496"], "SMILES": "C(=CC=1C=CN=CC1)C2=CC=CC=C2", "physical_data": {"Molecular Weight": "181.23", "Molecular Formula": "C13H11N", "Boiling Point": "208-210 \u00b0C @ Press: 33 Torr", "Melting Point": "125-127 \u00b0C"}}