{"cas_no": "103-11-7", "cn_name": "\u4e19\u70ef\u9178\u5f02\u8f9b\u916f", "en_name": ["2-Ethylhexyl acrylate", "2-Propenoic acid, 2-ethylhexyl ester", "Acrylic acid, 2-ethylhexyl ester", "2-Ethylhexyl acrylate", "2-Ethylhexyl 2-propenoate", "NSC 4803", "2EHA", "Norsocryl 2-EHA", "EHA", "JR 910", "E 108592"], "SMILES": "C(COC(C=C)=O)(CCCC)CC", "physical_data": {"Molecular Weight": "184.28", "Molecular Formula": "C11H20O2", "Boiling Point": "214-218 \u00b0C", "Melting Point": "-90 \u00b0C", "Density": "0.880 g/cm\u00b3 @ Temp: 25 \u00b0C"}}