{"cas_no": "103-60-6", "cn_name": "\u5f02\u4e01\u9178\u82ef\u6c27\u4e59\u916f", "en_name": ["Phenoxyethyl isobutyrate", "Propanoic acid, 2-methyl-, 2-phenoxyethyl ester", "Isobutyric acid, 2-phenoxyethyl ester", "Ethanol, 2-phenoxy-, isobutyrate", "Phenoxyethyl isobutyrate", "NSC 227210", "NSC 406209", "\u03b2-Phenoxyethyl isobutyrate", "2-Phenoxyethyl 2-methylpropanoate", "2-Phenoxyethyl isobutyrate", "Phenirate"], "SMILES": "O(CCOC(C(C)C)=O)C1=CC=CC=C1", "physical_data": {"Molecular Weight": "208.25", "Molecular Formula": "C12H16O3", "Boiling Point": "125-127 \u00b0C @ Press: 4 Torr", "Density": "1.052 g/cm\u00b3 @ Temp: 20 \u00b0C"}}