{"cas_no": "103-04-8", "cn_name": "\u82ef\u786b\u57fa\u4e59\u9178", "en_name": ["(Phenylthio)acetic acid", "Acetic acid, 2-(phenylthio)-", "Acetic acid, (phenylthio)-", "2-(Phenylthio)acetic acid", "\u03b1-Carboxythioanisole", "(Phenylthio)acetic acid", "Phenylmercaptoacetic acid", "Carboxymethyl phenyl sulfide", "Phenylthioglycolic acid", "(S-Phenylmercapto)acetic acid", "Thiophenoxyacetic acid", "2-(Phenylsulfanyl)acetic acid", "NSC 9582"], "SMILES": "S(CC(O)=O)C1=CC=CC=C1", "physical_data": {"Molecular Weight": "168.21", "Molecular Formula": "C8H8O2S", "Melting Point": "65 \u00b0C"}}