{"cas_no": "103-84-4", "cn_name": "N-\u4e59\u9170\u82ef\u80fa", "en_name": ["Acetanilide", "Acetamide, N-phenyl-", "Acetanilide", "N-Phenylacetamide", "Acetanil", "Acetylaniline", "Antifebrin", "Benzenamine, N-acetyl-", "Acetamidobenzene", "Acetoanilide", "N-Acetylaniline", "Phenalgene", "Phenalgin", "N-Acetylaminobenzene", "NSC 203231", "NSC 7636", "1-Acetylaminobenzene", "Anilino methyl ketone"], "SMILES": "N(C(C)=O)C1=CC=CC=C1", "physical_data": {"Molecular Weight": "135.16", "Molecular Formula": "C8H9NO", "Boiling Point": "304 \u00b0C @ Press: 760 Torr", "Melting Point": "114.3 \u00b0C", "Density": "1.2190 g/cm\u00b3 @ Temp: 15 \u00b0C"}}