{"cas_no": "103-30-0", "cn_name": "\u53cd\u5f0f-1\uff0c2\u4e8c\u82ef\u4e59\u70ef", "en_name": ["trans-Stilbene", "Benzene, 1,1\u2032-(1E)-1,2-ethenediylbis-", "Stilbene, (E)-", "Benzene, 1,1\u2032-(1,2-ethenediyl)bis-, (E)-", "Stilbene, trans-", "1,1\u2032-(1E)-1,2-Ethenediylbis[benzene]", "trans-\u03b1,\u03b2-Diphenylethylene", "trans-1,2-Diphenylethylene", "trans-Stilbene", "trans-1,2-Diphenylethene", "(E)-1,2-Diphenylethylene", "trans-Diphenylethene", "(E)-1,2-Diphenylethene", "(E)-Stilbene", "NSC 2069"], "SMILES": "C(=CC1=CC=CC=C1)C2=CC=CC=C2", "physical_data": {"Molecular Weight": "180.25", "Molecular Formula": "C14H12", "Boiling Point": "306-307 \u00b0C @ Press: 760 Torr", "Melting Point": "124 \u00b0C", "Density": "0.9707 g/cm\u00b3"}}