{"cas_no": "103-80-0", "cn_name": "\u82ef\u4e59\u9170\u6c2f", "en_name": ["Phenylacetyl chloride", "Benzeneacetyl chloride", "Acetyl chloride, phenyl-", "Phenylacetyl chloride", "Phenacetyl chloride", "Phenylacetic acid chloride", "\u03b1-Phenylacetyl chloride", "Phenylacetic chloride", "2-Phenylacetyl chloride", "2-Phenylethanoyl chloride", "2-Phenylacetic acid chloride"], "SMILES": "C(C(Cl)=O)C1=CC=CC=C1", "physical_data": {"Molecular Weight": "154.59", "Molecular Formula": "C8H7ClO", "Boiling Point": "170 \u00b0C", "Melting Point": "264-266 \u00b0C"}}