{"cas_no": "103-40-2", "cn_name": "\u4e01\u4e8c\u9178\u5355\u82c4\u916f", "en_name": ["1-(Phenylmethyl) butanedioate", "Butanedioic acid, 1-(phenylmethyl) ester", "Succinic acid, monobenzyl ester", "Butanedioic acid, mono(phenylmethyl) ester", "Succinic acid, benzyl ester", "1-(Phenylmethyl) butanedioate", "Benzyl succinate", "Monobenzyl succinate", "4-(Benzyloxy)-4-oxobutanoic acid"], "SMILES": "C(OC(CCC(O)=O)=O)C1=CC=CC=C1", "physical_data": {"Molecular Weight": "208.21", "Molecular Formula": "C11H12O4", "Melting Point": "60 \u00b0C"}}