{"cas_no": "103-94-6", "cn_name": "4-\u785d\u57fa\u82ef\u57fa\u809f\u9178", "en_name": ["2-[(4-Nitrophenyl)amino]-2-oxoacetic acid", "Acetic acid, 2-[(4-nitrophenyl)amino]-2-oxo-", "Oxanilic acid, 4\u2032-nitro-", "Acetic acid, [(4-nitrophenyl)amino]oxo-", "2-[(4-Nitrophenyl)amino]-2-oxoacetic acid", "N-(4-Nitrophenyl)oxamic acid", "4\u2032-Nitrooxanilic acid", "NSC 57783", "[(4-Nitrophenyl)amino]oxoacetic acid"], "SMILES": "N(C(C(O)=O)=O)C1=CC=C(N(=O)=O)C=C1", "physical_data": {"Molecular Weight": "210.14", "Molecular Formula": "C8H6N2O5", "Melting Point": "210 \u00b0C (decomp)"}}