{"cas_no": "103-79-7", "cn_name": "\u82ef\u57fa\u4e19\u916e", "en_name": ["Phenylacetone", "2-Propanone, 1-phenyl-", "2-Propanone, phenyl-", "1-Phenyl-2-propanone", "Benzyl methyl ketone", "Methyl benzyl ketone", "Phenylacetone", "Phenyl-2-propanone", "3-Phenyl-2-propanone", "Phenylmethyl methyl ketone", "\u03b1-Phenylacetone", "1-Phenylacetone", "NSC 9827"], "SMILES": "C(C(C)=O)C1=CC=CC=C1", "physical_data": {"Molecular Weight": "134.18", "Molecular Formula": "C9H10O", "Boiling Point": "216.5 \u00b0C", "Melting Point": "-15 \u00b0C", "Density": "1.0044 g/cm\u00b3 @ Temp: 22 \u00b0C"}}