{"cas_no": "103-37-7", "cn_name": "\u4e01\u9178\u82c4\u916f", "en_name": ["Benzyl butyrate", "Butanoic acid, phenylmethyl ester", "Butyric acid, benzyl ester", "Benzyl butyrate", "Benzyl n-butyrate", "Benzyl butanoate", "Phenylmethyl butanoate", "NSC 8073", "Phenylmethyl butyrate"], "SMILES": "C(OC(CCC)=O)C1=CC=CC=C1", "physical_data": {"Molecular Weight": "178.23", "Molecular Formula": "C11H14O2", "Boiling Point": "239 \u00b0C", "Density": "1.016 g/cm\u00b3 @ Temp: 17.5 \u00b0C"}}