{"cas_no": "103-67-3", "cn_name": "N-\u7532\u57fa\u82c4\u80fa", "en_name": ["N-Methylbenzylamine", "Benzenemethanamine, N-methyl-", "Benzylamine, N-methyl-", "N-Methylbenzenemethanamine", "N-Benzylmethylamine", "N-Methylbenzylamine", "Benzylmethylamine", "N-Benzyl-N-methylamine", "N-(Phenylmethyl)methylamine", "N-Methyl-N-benzylamine", "N-Methyl-N-(phenylmethyl)amine", "NSC 8059", "N-Methyl-1-phenylmethanamine", "N-Benzylmethanamine"], "SMILES": "C(NC)C1=CC=CC=C1", "physical_data": {"Molecular Weight": "121.18", "Molecular Formula": "C8H11N", "Boiling Point": "180.5 \u00b0C", "Melting Point": "59.60 \u00b0C"}}