{"cas_no": "103-81-1", "cn_name": "2-\u82ef\u4e59\u9170\u80fa", "en_name": ["Benzeneacetamide", "Benzeneacetamide", "Acetamide, 2-phenyl-", "Benzenediacetamide", "2-Phenylacetamide", "Phenylacetic acid amide", "\u03b1-Toluamide", "\u03b1-Phenylacetamide", "\u03b1-Toluimidic acid", "Phenyl-\u03b2-acetylamine", "Phenacetamide", "NSC 1877"], "SMILES": "C(C(N)=O)C1=CC=CC=C1", "physical_data": {"Molecular Weight": "135.16", "Molecular Formula": "C8H9NO", "Boiling Point": "244-279 \u00b0C", "Melting Point": "157 \u00b0C"}}