{"cas_no": "103-14-0", "cn_name": "\u5bf9\u82c4\u6c28\u57fa\u82ef\u915a", "en_name": ["4-(Benzylamino)phenol", "Phenol, 4-[(phenylmethyl)amino]-", "Phenol, p-(benzylamino)-", "4-[(Phenylmethyl)amino]phenol", "N-Benzyl-p-aminophenol", "p-(Benzylamino)phenol", "4-(Benzylamino)phenol", "4-N-Benzylaminophenol", "N-Benzyl-4-hydroxyaniline", "N-Benzyl-4-aminophenol", "N-(4-Hydroxyphenyl)benzylamine", "p-(N-benzylamino)phenol", "Benzyl(4-hydroxyphenyl)amine"], "SMILES": "N(CC1=CC=CC=C1)C2=CC=C(O)C=C2", "physical_data": {"Molecular Weight": "199.25", "Molecular Formula": "C13H13NO", "Melting Point": "91-93 \u00b0C (decomp)"}}