{"cas_no": "103-39-9", "cn_name": "N-(\u82ef\u6c27\u57fa\u5f02\u4e19\u57fa)\u4e59\u9187\u80fa", "en_name": ["2-[(1-Methyl-2-phenoxyethyl)amino]ethanol", "Ethanol, 2-[(1-methyl-2-phenoxyethyl)amino]-", "2-[(1-Methyl-2-phenoxyethyl)amino]ethanol", "2-[(1-Phenoxypropan-2-yl)amino]ethan-1-ol", "2-((1-Phenoxypropan-2-yl)amino)ethanol", "2-(1-Phenoxypropan-2-ylamino)ethanol"], "SMILES": "O(CC(NCCO)C)C1=CC=CC=C1", "physical_data": {"Molecular Weight": "195.26", "Molecular Formula": "C11H17NO2", "Melting Point": "70.5-72.0 \u00b0C"}}