{"cas_no": "103-45-7", "cn_name": "\u4e59\u9178\u82ef\u4e59\u916f", "en_name": ["2-Phenylethyl acetate", "Acetic acid, 2-phenylethyl ester", "Acetic acid, phenethyl ester", "Phenethyl alcohol, acetate", "Benzylcarbinyl acetate", "Phenethyl acetate", "\u03b2-Phenylethyl acetate", "\u03b2-Phenethyl acetate", "2-Phenylethyl acetate", "2-Phenethyl acetate", "Phenylethyl ethanoate", "\u03b2-Phenylethanol acetate", "NSC 71927", "2-Phenylethanol acetate", "Benzeneethanol acetate"], "SMILES": "C(COC(C)=O)C1=CC=CC=C1", "physical_data": {"Molecular Weight": "164.20", "Molecular Formula": "C10H12O2", "Boiling Point": "232.6 \u00b0C", "Melting Point": "-31.1 \u00b0C", "Density": "1.0765 g/cm\u00b3 @ Temp: 20 \u00b0C"}}