{"cas_no": "103-26-4", "cn_name": "\u8089\u6842\u9178\u7532\u916f", "en_name": ["Methyl cinnamate", "2-Propenoic acid, 3-phenyl-, methyl ester", "Cinnamic acid, methyl ester", "Methyl cinnamate", "Methyl cinnamylate", "Methyl 3-phenylpropenoate", "Methyl 3-phenyl-2-propenoate", "Methyl 3-phenylacrylate", "3-Phenyl-2-propenoic acid methyl ester", "3-Phenylacrylic acid methyl ester", "NSC 9411", "SemaSORB 9815"], "SMILES": "C(=CC(OC)=O)C1=CC=CC=C1", "physical_data": {"Molecular Weight": "162.19", "Molecular Formula": "C10H10O2", "Boiling Point": "260.4 \u00b0C", "Melting Point": "36 \u00b0C", "Density": "1.0672 g/cm\u00b3 @ Temp: 15 \u00b0C"}}