{"cas_no": "103-70-8", "cn_name": "N-\u82ef\u57fa\u7532\u9170\u80fa", "en_name": ["Formanilide", "Formamide, N-phenyl-", "Formanilide", "N-Phenylformamide", "Carbanilaldehyde", "Formamidobenzene", "Formylaniline", "N-Formylaniline", "NSC 203239", "NSC 8862"], "SMILES": "N(C=O)C1=CC=CC=C1", "physical_data": {"Molecular Weight": "121.14", "Molecular Formula": "C7H7NO", "Boiling Point": "271 \u00b0C", "Melting Point": "46.6-47.5 \u00b0C", "Density": "1.186 g/cm\u00b3 @ Temp: 50 \u00b0C"}}