{"cas_no": "103-48-0", "cn_name": "\u5f02\u4e01\u9178\u82ef\u4e59\u916f", "en_name": ["2-Phenylethyl isobutyrate", "Propanoic acid, 2-methyl-, 2-phenylethyl ester", "Isobutyric acid, phenethyl ester", "Benzylcarbinyl isobutyrate", "Phenethyl isobutyrate", "2-Phenylethyl isobutyrate", "\u03b2-Phenylethyl isobutyrate", "Benzylcarbinol isobutyrate", "2-Phenylethyl 2-methylpropionate", "2-Phenylethyl 2-methylpropanoate", "\u03b2-Phenylethyl 2-methylpropionate", "Phenethyl 2-methylpropionate", "\u03b2-Phenethyl isobutyrate", "\u03b2-Phenylethyl butanoate", "2-Methylpropanoic acid 2-phenylethyl ester"], "SMILES": "C(COC(C(C)C)=O)C1=CC=CC=C1", "physical_data": {"Molecular Weight": "192.25", "Molecular Formula": "C12H16O2", "Boiling Point": "70-71 \u00b0C @ Press: 0.5 Torr", "Density": "0.9871 g/cm\u00b3 @ Temp: 20 \u00b0C"}}