{"cas_no": "103-63-9", "cn_name": "beta-\u6eb4\u4ee3\u82ef\u4e59\u70f7", "en_name": ["Phenethyl bromide", "Benzene, (2-bromoethyl)-", "(2-Bromoethyl)benzene", "Phenethyl bromide", "1-Bromo-2-phenylethane", "2-Phenethyl bromide", "\u03b2-Bromoethylbenzene", "\u03b2-Phenethyl bromide", "2-Phenylethyl bromide", "\u03b2-Phenylethyl bromide", "Phenylethyl bromide", "2-Phenyl-1-bromoethane", "1-Phenyl-2-bromoethane", "2-Bromo-1-phenylethane", "2-Phenylbromoethane", "NSC 33926", "Benzene, (2-bromoethyl)-, hydrobromide (1:1)"], "SMILES": "C(CBr)C1=CC=CC=C1", "physical_data": {"Molecular Weight": "185.06", "Molecular Formula": "C8H9Br", "Boiling Point": "219 \u00b0C", "Melting Point": "-67.5 \u00b0C", "Density": "1.355 g/cm\u00b3"}}