{"cas_no": "103-89-9", "cn_name": "4-\u7532\u57fa\u4e59\u9170\u82ef\u80fa", "en_name": ["p-Acetotoluidide", "Acetamide, N-(4-methylphenyl)-", "p-Acetotoluidide", "N-(4-Methylphenyl)acetamide", "p-Acetamidotoluene", "p-Methylacetanilide", "4-(Acetylamino)toluene", "N-Acetyl-p-toluidine", "4-Acetotoluide", "4\u2032-Methylacetanilide", "p-Acetotoluide", "1-Acetamido-4-methylbenzene", "N-Acetyl-4-methylaniline", "4-Acetamidotoluene", "p-Acetylaminotoluene", "N-p-Tolylacetamide", "NSC 7644", "N-(p-Methylphenyl)acetamide", "4-Methylanilino methyl ketone"], "SMILES": "N(C(C)=O)C1=CC=C(C)C=C1", "physical_data": {"Molecular Weight": "149.19", "Molecular Formula": "C9H11NO", "Boiling Point": "307 \u00b0C", "Melting Point": "152 \u00b0C", "Density": "1.19 g/cm\u00b3"}}