{"cas_no": "103-55-9", "cn_name": "N'-\u82ef\u7532\u57fa-N,N-\u4e8c\u7532\u57fa\u4e59\u4e8c\u80fa", "en_name": ["N1,N1-Dimethyl-N2-(phenylmethyl)-1,2-ethanediamine", "1,2-Ethanediamine, N1,N1-dimethyl-N2-(phenylmethyl)-", "Ethylenediamine, N\u2032-benzyl-N,N-dimethyl-", "1,2-Ethanediamine, N,N-dimethyl-N\u2032-(phenylmethyl)-", "N1,N1-Dimethyl-N2-(phenylmethyl)-1,2-ethanediamine", "N\u2032-Benzyl-N,N-dimethylethylenediamine", "N,N-Dimethyl-N\u2032-benzylethylenediamine", "Benzyl[2-(dimethylamino)ethyl]amine", "N-Benzyl-N\u2032,N\u2032-dimethylethylenediamine", "NSC 111162", "NSC 118969", "2-Benzylaminoethyldimethylamine", "N-Benzyl-N-(2-dimethylaminoethyl)amine", "N\u2032-Benzyl-N,N-dimethylethane-1,2-diamine", "N,N-Dimethyl-N\u2032-benzyl-1,2-diaminoethane", "N,N-Dimethyl-N\u2032-phenylmethyl-1,2-ethanediamine", "N-Benzyl-N\u2032,N\u2032-dimethylethane-1,2-diamine"], "SMILES": "C(NCCN(C)C)C1=CC=CC=C1", "physical_data": {"Molecular Weight": "178.27", "Molecular Formula": "C11H18N2", "Boiling Point": "128-132 \u00b0C @ Press: 18 Torr"}}