{"cas_no": "103-90-2", "cn_name": "\u6251\u70ed\u606f\u75db", "en_name": ["Acetaminophen", "Acetamide, N-(4-hydroxyphenyl)-", "Acetanilide, 4\u2032-hydroxy-", "N-(4-Hydroxyphenyl)acetamide", "Acetagesic", "p-Acetamidophenol", "4-Acetamidophenol", "Acetaminophen", "N-Acetyl-p-aminophenol", "Alvedon", "Amadil", "Anelix", "Apamide", "Calpol", "Clixodyne", "Eneril", "Febro-Gesic", "Febrolin", "Fendon", "4\u2032-Hydroxyacetanilide", "p-Hydroxyacetanilide", "Lestemp", "Liquagesic", "Lonarid", "Lyteca", "Lyteca Syrup", "Multin", "NAPA", "NAPAP", "Nobedon", "Panadol", "Paracetamol", "Tabalgin", "Tempra", "Tralgon", "Paralen", "Tylenol", "Valgesic", "APAP", "Pyrinazine", "4-Hydroxyacetanilide", "4-(Acetylamino)phenol", "N-Acetyl-4-aminophenol", "p-(Acetylamino)phenol", "Dymadon", "Naprinol", "Panets", "Homoolan", "Febrilix", "Abensanil", "Anaflon", "Hedex", "Pacemo", "Parmol", "Acamol", "Bickie-mol", "Dial-a-gesic", "Temlo", "Valadol", "Cetadol", "Acetalgin", "Finimal", "Dirox", "Paracetamole", "Ben-u-ron", "Apamid", "Acetaminofen", "Phendon", "Pedric", "Napafen", "Tempanal", "Algotropyl", "4-Acetaminophenol", "Paracetamol DC", "Acenol", "Acenol (pharmaceutical)", "N-Acetyl-4-hydroxyaniline", "Biocetamol", "Duorol", "Crocin", "NAPA (analgesic)", "Fepanil", "4-(N-Acetylamino)phenol", "p-Acetoaminophen", "Gattaphen T", "Panodil", "Pinex", "Pinex (pharmaceutical)", "Tachipirina", "Paramol", "Efferalgan", "Citramon P", "Daphalgan", "Gelocatil", "Resprin", "Vick Pyrena", "Pamol", "Panadol Extend", "Exdol", "Ortensan", "Pacemol", "Anhiba", "Alpiny", "Paraspen", "Dolprone", "Paldesic", "Datril", "Banesin", "Enelfa", "Eu-Med", "Tapar", "Nebs", "Doliprane", "Febrilex", "Dafalgan", "Panaleve", "Claratal", "Momentum", "Korum", "Salzone", "p-Aceaminophenol", "Pasolind N", "Disprol", "Captin", "Phenaphen", "Parelan", "Panasorb", "Prodafalgan", "Resfenol", "NSC 109028", "NSC 3991", "Rhodapop NCR", "Panadol Actifast", "Perfalgan", "Endophy", "Puerxitong", "Jin Gang", "Daga", "Sara", "panadeine", "Minoset", "Minoset Plus", "Vermidon", "TylolHot", "Gutte Enteric", "Parageniol", "Pyral", "Adol", "Colimex tabs", "Cyclopam", "Aminofen", "Para-Tabs", "Paracip", "Dolo", "Rapidol", "Sanador", "N-(p-Hydroxyphenyl)acetamide", "Dolo 650", "Femol", "Tyfy", "Paracet", "N-(4-Hydroxyphenyl)ethanamide", "Pyril", "Pyretinol", "Pacimol", "Compap L", "Pyridol", "Eperimol", "Huangnamin", "Tamol (pharmaceutical)", "Aphlogis", "Paraceta", "Paralyoc", "MeSH ID: D000082"], "SMILES": "N(C(C)=O)C1=CC=C(O)C=C1", "physical_data": {"Molecular Weight": "151.16", "Molecular Formula": "C8H9NO2", "Boiling Point": "500 \u00b0C", "Melting Point": "169-170.5 \u00b0C", "Density": "1.293 g/cm\u00b3 @ Temp: 21 \u00b0C"}}