{"cas_no": "103-25-3", "cn_name": "3-\u82ef\u4e19\u9178\u7532\u916f", "en_name": ["Methyl 3-phenylpropionate", "Benzenepropanoic acid, methyl ester", "Hydrocinnamic acid, methyl ester", "Methyl hydrocinnamate", "Methyl \u03b2-phenylpropionate", "\u03b2-Phenylpropionic acid methyl ester", "Methyl 3-phenylpropionate", "Dihydrocinnamic acid methyl ester", "Methyl 3-phenylpropanoate", "Methyl benzenepropanoate", "Methyl dihydrocinnamate", "3-Phenylpropionic acid methyl ester", "NSC 10128", "NSC 404188", "3-Phenylpropanoic acid methyl ester"], "SMILES": "C(CC(OC)=O)C1=CC=CC=C1", "physical_data": {"Molecular Weight": "164.20", "Molecular Formula": "C10H12O2", "Boiling Point": "238.5 \u00b0C", "Melting Point": "142-145 \u00b0C"}}