{"cas_no": "103-83-3", "cn_name": "N,N-\u4e8c\u7532\u57fa\u82c4\u80fa", "en_name": ["N,N-Dimethylbenzylamine", "Benzenemethanamine, N,N-dimethyl-", "Benzylamine, N,N-dimethyl-", "N,N-Dimethylbenzenemethanamine", "Benzyldimethylamine", "Dimethylbenzylamine", "N-Benzyldimethylamine", "N,N-Dimethyl-N-benzylamine", "BDMA", "N-(Phenylmethyl)dimethylamine", "Benzyl-N,N-dimethylamine", "Araldite Accelerator 062", "N-Benzyl-N,N-dimethylamine", "Desmorapid DB", "N,N-Dimethylbenzylamine", "Sumicure BD", "Kaolizer 20", "Actiron NX 91", "Dabco BDMA", "[(Dimethylamino)methyl]benzene", "NSC 5342", "Araldite DY 062", "DY 062", "Ancamine BDMA", "Y 27", "4-[(Dimethylamino)methyl]styrene", "DY 62", "NP 60", "KH 30", "N,N-Dimethyl-1-phenylmethanamine", "LCM 1", "LCM 1 (catalyst)", "Jeffcat BDMA", "Addocat DB"], "SMILES": "C(N(C)C)C1=CC=CC=C1", "physical_data": {"Molecular Weight": "135.21", "Molecular Formula": "C9H13N", "Boiling Point": "180 \u00b0C", "Melting Point": "-75 \u00b0C", "Density": "0.9 g/cm\u00b3"}}