{"cas_no": "103-43-5", "cn_name": "\u7425\u73c0\u9178\u4e8c\u82c4\u916f", "en_name": ["Dibenzyl succinate", "Butanedioic acid, 1,4-bis(phenylmethyl) ester", "Succinic acid, dibenzyl ester", "Butanedioic acid, bis(phenylmethyl) ester", "Dibenzyl succinate", "Spasmine", "Benzyl succinate", "NSC 4047"], "SMILES": "C(OC(CCC(OCC1=CC=CC=C1)=O)=O)C2=CC=CC=C2", "physical_data": {"Molecular Weight": "298.33", "Molecular Formula": "C18H18O4", "Boiling Point": "160 \u00b0C @ Press: 0.05 Torr", "Melting Point": "49.5 \u00b0C"}}