{"cas_no": "103-88-8", "cn_name": "4'-\u6eb4\u4e59\u9170\u82ef\u80fa", "en_name": ["Bromoacetanilide", "Acetamide, N-(4-bromophenyl)-", "Acetanilide, 4\u2032-bromo-", "Acetanilide, p-bromo-", "N-(4-Bromophenyl)acetamide", "Antisepsin", "Asepsin", "p-Bromoacetanilide", "p-Bromo-N-acetanilide", "Bromoantifebrin", "1-Bromo-4-acetamidobenzene", "4\u2032-Bromoacetanilide", "N-Acetyl-p-bromoaniline", "N-(p-Bromophenyl)acetamide", "1-(N-Acetylamino)-4-bromobenzene", "N-Acetyl-4-bromoaniline", "Monobromoacetanilide", "Bromoacetanilide", "NSC 105442", "NSC 8048", "4-Acetamido-1-bromobenzene", "4-(Acetylamino)-1-bromobenzene"], "SMILES": "N(C(C)=O)C1=CC=C(Br)C=C1", "physical_data": {"Molecular Weight": "214.06", "Molecular Formula": "C8H8BrNO", "Melting Point": "168 \u00b0C"}}