{"cas_no": "103-82-2", "cn_name": "\u82ef\u4e59\u9178", "en_name": ["Phenylacetic acid", "Benzeneacetic acid", "Acetic acid, phenyl-", "Phenylacetic acid", "\u03b1-Toluic acid", "\u03c9-Phenylacetic acid", "2-Phenylacetic acid", "Phenylethanoic acid", "PAA", "NSC 125718"], "SMILES": "C(C(O)=O)C1=CC=CC=C1", "physical_data": {"Molecular Weight": "136.15", "Molecular Formula": "C8H8O2", "Boiling Point": "265.5 \u00b0C @ Press: 760 Torr", "Melting Point": "76.5 \u00b0C", "Density": "1.091 g/cm\u00b3 @ Temp: 77 \u00b0C"}}