{"cas_no": "103-69-5", "cn_name": "N-\u4e59\u57fa\u82ef\u80fa", "en_name": ["N-Ethylaniline", "Benzenamine, N-ethyl-", "Aniline, N-ethyl-", "N-Ethylbenzenamine", "Anilinoethane", "N-Ethylaminobenzene", "N-Ethylaniline", "Ethylphenylamine", "Ethylaniline", "N-Ethyl-N-phenylamine", "NSC 8736", "N-Phenylethylamine"], "SMILES": "N(CC)C1=CC=CC=C1", "physical_data": {"Molecular Weight": "121.18", "Molecular Formula": "C8H11N", "Boiling Point": "204.5 \u00b0C", "Melting Point": "-63.5 \u00b0C", "Density": "0.9625 g/cm\u00b3 @ Temp: 20 \u00b0C"}}