{"cas_no": "103-59-3", "cn_name": "2-\u7532\u57fa-\u4e19\u9178-3-\u82ef\u57fa-2-\u4e19\u70ef\u9187\u916f", "en_name": ["Cinnamyl isobutyrate", "Propanoic acid, 2-methyl-, 3-phenyl-2-propen-1-yl ester", "Isobutyric acid, cinnamyl ester", "Propanoic acid, 2-methyl-, 3-phenyl-2-propenyl ester", "Cinnamyl alcohol, isobutyrate", "Cinnamyl isobutyrate", "3-Phenyl-2-propen-1-yl isobutyrate", "NSC 46133"], "SMILES": "C(=CCOC(C(C)C)=O)C1=CC=CC=C1", "physical_data": {"Molecular Weight": "204.26", "Molecular Formula": "C13H16O2", "Boiling Point": "254 \u00b0C"}}