{"cas_no": "103-38-8", "cn_name": "3-\u7532\u57fa\u4e01\u9178\u82ef\u7532\u916f", "en_name": ["Benzyl isovalerate", "Butanoic acid, 3-methyl-, phenylmethyl ester", "Isovaleric acid, benzyl ester", "Benzyl isovalerate", "Benzyl 3-methylbutyrate", "Benzyl 3-methylbutanoate", "Benzyl isopentanoate", "NSC 46124", "Phenylmethyl isovalerate"], "SMILES": "C(OC(CC(C)C)=O)C1=CC=CC=C1", "physical_data": {"Molecular Weight": "192.25", "Molecular Formula": "C12H16O2", "Boiling Point": "245 \u00b0C"}}