{"cas_no": "103-78-6", "cn_name": "\u73af\u5df1\u57fa\u4e19\u916e", "en_name": ["1-Cyclohexyl-2-propanone", "2-Propanone, 1-cyclohexyl-", "2-Propanone, cyclohexyl-", "1-Cyclohexyl-2-propanone", "Cyclohexylacetone", "Acetonylcyclohexane", "Cyclohexyl-2-propanone", "NSC 15332"], "SMILES": "C(C(C)=O)C1CCCCC1", "physical_data": {"Molecular Weight": "140.22", "Molecular Formula": "C9H16O", "Boiling Point": "198-200 \u00b0C", "Melting Point": "116 \u00b0C", "Density": "0.935 g/cm\u00b3 @ Temp: 0 \u00b0C"}}