{"cas_no": "103-36-6", "cn_name": "\u8089\u6842\u9178\u4e59\u916f", "en_name": ["Ethyl cinnamate", "2-Propenoic acid, 3-phenyl-, ethyl ester", "Cinnamic acid, ethyl ester", "Ethyl cinnamate", "Ethyl 3-phenylacrylate", "Ethyl 3-phenyl-2-propenoate", "Ethyl benzylideneacetate", "3-Phenyl-2-propenoic acid ethyl ester", "NSC 6773", "SemaSORB 9827"], "SMILES": "C(=CC(OCC)=O)C1=CC=CC=C1", "physical_data": {"Molecular Weight": "176.21", "Molecular Formula": "C11H12O2", "Boiling Point": "271 \u00b0C", "Melting Point": "7 \u00b0C", "Density": "1.0490 g/cm\u00b3 @ Temp: 20 \u00b0C"}}