{"cas_no": "103-20-8", "cn_name": "\u5341\u56db\u70f7\u9187", "en_name": ["7-Ethyl-2-methyl-4-undecanol", "4-Undecanol, 7-ethyl-2-methyl-", "7-Ethyl-2-methyl-4-undecanol", "NSC 60591"], "SMILES": "C(CCC(CC(C)C)O)(CCCC)CC", "physical_data": {"Molecular Weight": "214.39", "Molecular Formula": "C14H30O", "Boiling Point": "261-262 \u00b0C @ Press: 760 Torr"}}