{"cas_no": "103-05-9", "cn_name": "2-\u7532\u57fa-4-\u82ef\u57fa-2-\u4e01\u9187", "en_name": ["2-Methyl-4-phenyl-2-butanol", "Benzenepropanol, \u03b1,\u03b1-dimethyl-", "2-Butanol, 2-methyl-4-phenyl-", "\u03b1,\u03b1-Dimethylbenzenepropanol", "Benzyl-tert-butanol", "Phenylethyl dimethyl carbinol", "2-(2-Phenylethyl)-2-propanol", "2-Hydroxy-2-methyl-4-phenylbutane", "2-Methyl-4-phenyl-2-butanol", "4-Phenyl-2-hydroxy-2-methylbutane", "Dimethylphenethylcarbinol", "1,1-Dimethyl-3-phenylpropyl alcohol", "1-Phenyl-3-methylbutan-3-ol", "1,1-Dimethyl-3-phenylpropanol", "2-Phenethyl-2-propanol", "4-Phenyl-2-methyl-2-butanol", "NSC 62145", "1,1-Dimethyl-3-phenyl-1-propanol", "Muguet carbinol"], "SMILES": "C(CC(C)(C)O)C1=CC=CC=C1", "physical_data": {"Molecular Weight": "164.24", "Molecular Formula": "C11H16O", "Boiling Point": "144 \u00b0C @ Press: 85 Torr", "Melting Point": "24.5 \u00b0C", "Density": "0.9626 g/cm\u00b3 @ Temp: 20.7 \u00b0C"}}