{"cas_no": "103-19-5", "cn_name": "\u5bf9\u7532\u82ef\u4e8c\u786b\u919a", "en_name": ["p-Tolyl disulfide", "Disulfide, bis(4-methylphenyl)", "p-Tolyl disulfide", "Bis(4-methylphenyl) disulfide", "Bis(p-tolyl) disulfide", "Di-p-Tolyl disulfide", "4-Methylphenyl disulfide", "Biodylon", "Kresulfin", "Di-4-tolyl disulfide", "Bis(4-tolyl) disulfide", "Bis(p-methylphenyl) disulfide", "NSC 994", "NSC 677466", "Bis(4-methylphenyl)disulfane", "Di-(para-methylphenyl)disulfide", "Di(4-methylphenyl) disulfide", "1,2-Di-p-tolyldisulfane", "1-Methyl-4-[(4-methylphenyl)disulfanyl]benzene", "Di-(4-methylphenyl) disulfane"], "SMILES": "S(SC1=CC=C(C)C=C1)C2=CC=C(C)C=C2", "physical_data": {"Molecular Weight": "246.39", "Molecular Formula": "C14H14S2", "Boiling Point": "210-215 \u00b0C @ Press: 20 Torr", "Melting Point": "47.5 \u00b0C", "Density": "1.068 g/cm\u00b3 @ Temp: 111.0 \u00b0C"}}