{"cas_no": "103-09-3", "cn_name": "\u918b\u9178-2-\u4e59\u57fa\u5df1\u916f", "en_name": ["2-Ethylhexyl acetate", "Acetic acid, 2-ethylhexyl ester", "1-Hexanol, 2-ethyl-, acetate", "2-Ethylhexyl acetate", "2-Ethyl-1-hexyl acetate", "2-Ethyl-1-hexanol acetate", "Octyl acetate", "\u03b2-Ethylhexyl acetate", "NSC 8897", "OctASOLV"], "SMILES": "C(COC(C)=O)(CCCC)CC", "physical_data": {"Molecular Weight": "172.26", "Molecular Formula": "C10H20O2", "Boiling Point": "199 \u00b0C", "Melting Point": "-80 \u00b0C", "Density": "0.8718 g/cm\u00b3 @ Temp: 20 \u00b0C"}}