{"cas_no": "103-16-2", "cn_name": "4-\u82c4\u6c27\u57fa\u82ef\u915a", "en_name": ["Monobenzone", "Phenol, 4-(phenylmethoxy)-", "Phenol, p-(benzyloxy)-", "4-(Phenylmethoxy)phenol", "Alba-Dome", "Benoquin", "Hydroquinone benzyl ether", "Hydroquinone monobenzyl ether", "p-Hydroxyphenyl benzyl ether", "Monobenzone", "Monobenzyl ether hydroquinone", "Monobenzyl hydroquinone", "AgeRite Alba", "Superlite (antioxidant)", "p-(Benzyloxy)phenol", "4-(Benzyloxy)phenol", "Benzyl p-hydroxyphenyl ether", "Monobenzon", "Benzoquin", "Carmifal", "Depigman", "Dermochinona", "Leucodinine", "Pigmex", "Superlite", "Agerite", "NSC 2132", "NSC 33918"], "SMILES": "O(CC1=CC=CC=C1)C2=CC=C(O)C=C2", "physical_data": {"Molecular Weight": "200.23", "Molecular Formula": "C13H12O2", "Melting Point": "122.5 \u00b0C", "Density": "1.26 g/cm\u00b3"}}