{"cas_no": "103-34-4", "cn_name": "\u4fc3\u8fdb\u5242 DTDM", "en_name": ["DTDM", "Morpholine, 4,4\u2032-dithiobis-", "Morpholine, 4,4\u2032-dithiodi-", "4,4\u2032-Dithiobis[morpholine]", "4,4\u2032-Dithiodimorpholine", "Morpholine disulfide", "Sulfasan R", "Sulfasan", "N,N\u2032-Dithiodimorpholine", "N,N\u2032-Bismorpholine disulfide", "Bismorpholino disulfide", "Accel R", "Morpholinodisulfide", "N,N\u2032-Dimorpholinyl disulfide", "Sanfel R", "Vanax A", "Bismorpholine disulfide", "N,N\u2032-Dithiobis[morpholine]", "Deovulc M", "Di(4-morpholinyl) disulfide", "Rhenocure M/G", "Vulnoc R", "Sulfasan DTDM", "DTDM", "Actor R", "NSC 65239", "Rhenocure M", "Nocmaster R 80E", "DTDM 80", "Rhenogran DTDM 80", "Sulphasan R", "TT 106", "Burnock R"], "SMILES": "S(SN1CCOCC1)N2CCOCC2", "physical_data": {"Molecular Weight": "236.35", "Molecular Formula": "C8H16N2O2S2", "Melting Point": "125 \u00b0C", "Density": "1.36 g/cm\u00b3 @ Temp: 25 \u00b0C"}}