{"cas_no": "103-73-1", "cn_name": "\u82ef\u4e59\u919a", "en_name": ["Phenetole", "Benzene, ethoxy-", "Phenetole", "Ethoxybenzene", "Ethyl phenyl ether", "Phenyl ethyl ether", "Phenoxyethane", "Phenetol", "NSC 406706"], "SMILES": "O(CC)C1=CC=CC=C1", "physical_data": {"Molecular Weight": "122.16", "Molecular Formula": "C8H10O", "Boiling Point": "171-173 \u00b0C", "Melting Point": "-30.0 \u00b0C", "Density": "0.967 g/cm\u00b3 @ Temp: 20 \u00b0C"}}