{"cas_no": "103-65-1", "cn_name": "\u6b63\u4e19\u82ef", "en_name": ["Propylbenzene", "Benzene, propyl-", "Propylbenzene", "Isocumene", "1-Phenylpropane", "n-Propylbenzene", "1-Propylbenzene", "NSC 16941"], "SMILES": "C(CC)C1=CC=CC=C1", "physical_data": {"Molecular Weight": "120.19", "Molecular Formula": "C9H12", "Boiling Point": "159.2 \u00b0C", "Melting Point": "-99.5 \u00b0C", "Density": "0.8620 g/cm\u00b3 @ Temp: 20 \u00b0C"}}