{"cas_no": "103-33-3", "cn_name": "\u5076\u6c2e\u82ef", "en_name": ["Azobenzene", "Diazene, 1,2-diphenyl-", "Azobenzene", "Diazene, diphenyl-", "Benzene, azo-", "1,2-Diphenyldiazene", "Azobenzide", "Azobenzol", "Benzeneazobenzene", "Diphenyldiimide", "Benzene, azobis-", "Diphenyldiazene", "Phenylazobenzene", "A 15073", "NSC 2102"], "SMILES": "N(=NC1=CC=CC=C1)C2=CC=CC=C2", "physical_data": {"Molecular Weight": "182.22", "Molecular Formula": "C12H10N2", "Boiling Point": "293 \u00b0C", "Melting Point": "68 \u00b0C", "Density": "1.203 g/cm\u00b3 @ Temp: 20 \u00b0C"}}