{"cas_no": "103-61-7", "cn_name": "\u4e01\u91783-\u82ef\u57fa-2-\u4e19\u70ef\u916f", "en_name": ["Cinnamyl butyrate", "Butanoic acid, 3-phenyl-2-propen-1-yl ester", "Butyric acid, cinnamyl ester", "Butanoic acid, 3-phenyl-2-propenyl ester", "Cinnamyl alcohol, butyrate", "Cinnamyl butyrate", "3-Phenyl-2-propen-1-yl butyrate", "Cinnamyl n-butyrate", "Cinnamyl butanoate", "NSC 30528", "3-Phenylprop-2-enyl butanoate"], "SMILES": "C(=CCOC(CCC)=O)C1=CC=CC=C1", "physical_data": {"Molecular Weight": "204.26", "Molecular Formula": "C13H16O2", "Boiling Point": "149-150 \u00b0C @ Press: 10-12 Torr", "Density": "1.010-1.017 g/cm\u00b3 @ Temp: 25 \u00b0C"}}