{"cas_no": "103-93-5", "cn_name": "2-\u7532\u57fa\u4e19\u91784-\u7532\u57fa\u82ef\u916f", "en_name": ["4-Methylphenyl 2-methylpropanoate", "Propanoic acid, 2-methyl-, 4-methylphenyl ester", "Isobutyric acid, p-tolyl ester", "4-Methylphenyl 2-methylpropanoate", "p-Cresyl isobutyrate", "p-Tolyl isobutyrate", "p-Methylphenyl isobutyrate", "2-Methylpropanoic acid 4-methylphenyl ester", "(4-Methylphenyl) 2-methylpropanoate"], "SMILES": "O(C(C(C)C)=O)C1=CC=C(C)C=C1", "physical_data": {"Molecular Weight": "178.23", "Molecular Formula": "C11H14O2", "Boiling Point": "237 \u00b0C"}}