{"cas_no": "103-54-8", "cn_name": "\u4e59\u9178\u6842\u916f", "en_name": ["Cinnamyl acetate", "2-Propen-1-ol, 3-phenyl-, 1-acetate", "Cinnamyl alcohol, acetate", "2-Propen-1-ol, 3-phenyl-, acetate", "Cinnamyl acetate", "\u03b3-Phenylallyl acetate", "3-Phenyl-2-propen-1-yl acetate", "3-Phenyl-2-propenyl acetate", "3-Phenylallyl acetate", "1-Acetoxy-3-phenyl-2-propene", "3-Phenyl-2-propen-1-ol acetate", "NSC 46109", "Acetic acid 3-phenyl-2-propenyl ester", "Acetic acid cinnamyl ester"], "SMILES": "C(=CCOC(C)=O)C1=CC=CC=C1", "physical_data": {"Molecular Weight": "176.21", "Molecular Formula": "C11H12O2", "Boiling Point": "142-144 \u00b0C @ Press: 12 Torr", "Melting Point": "30 \u00b0C"}}