{"cas_no": "103-50-4", "cn_name": "\u4e8c\u82c4\u919a", "en_name": ["Dibenzyl ether", "Benzene, 1,1\u2032-[oxybis(methylene)]bis-", "Benzyl ether", "1,1\u2032-[Oxybis(methylene)]bis[benzene]", "Benzyl oxide", "Dibenzyl ether", "Plastikator BA", "BA (plasticizer)", "BA", "NSC 5931", "[(Benzyloxy)methyl]benzene", "(Oxybis(methylene))dibenzene"], "SMILES": "C(OCC1=CC=CC=C1)C2=CC=CC=C2", "physical_data": {"Molecular Weight": "198.26", "Molecular Formula": "C14H14O", "Boiling Point": "298 \u00b0C", "Melting Point": "3.6 \u00b0C", "Density": "0.99735 g/cm\u00b3 @ Temp: 25 \u00b0C"}}