{"cas_no": "103-53-7", "cn_name": "\u8089\u6842\u9178\u82ef\u4e59\u916f", "en_name": ["Phenethyl cinnamate", "2-Propenoic acid, 3-phenyl-, 2-phenylethyl ester", "Cinnamic acid, phenethyl ester", "Benzylcarbinyl cinnamate", "Phenethyl cinnamate", "\u03b2-Phenylethyl cinnamate", "\u03b2-Phenethyl cinnamate", "2-Phenylethyl cinnamate", "NSC 16962", "2-Phenylethyl 3-phenyl-2-propenoate"], "SMILES": "C(=CC(OCCC1=CC=CC=C1)=O)C2=CC=CC=C2", "physical_data": {"Molecular Weight": "252.31", "Molecular Formula": "C17H16O2", "Melting Point": "54 \u00b0C"}}