{"cas_no": "103-23-1", "cn_name": "\u5df1\u4e8c\u9178\u4e8c(2-\u4e59\u57fa\u5df1)\u916f", "en_name": ["Bis(2-ethylhexyl) adipate", "Hexanedioic acid, 1,6-bis(2-ethylhexyl) ester", "Adipic acid, bis(2-ethylhexyl) ester", "Hexanedioic acid, bis(2-ethylhexyl) ester", "Adipol 2EH", "Bis(2-ethylhexyl) adipate", "Bisoflex DOA", "DOA", "Monoplex DOA", "Truflex DOA", "Plastomoll DOA", "Dioctyl adipate", "Octyl adipate", "Sicol 250", "Di(2-ethylhexyl) adipate", "Flexol A 26", "Witamol 320", "Effomoll DOA", "Vestinol OA", "Kodaflex DOA", "Wickenol 158", "Ergoplast AdDO", "Diethylhexyl adipate", "Lankroflex DOA", "Effomoll DA", "Sansocizer DOA", "Reomol DOA", "Jayflex DOA 2", "Hatcol 2908", "ADO", "ADO (lubricating oil)", "Crodamol DOA", "Plasthall DOA", "Diacizer DOA", "Adimoll DO", "Arlamol DOA", "USS 700", "K 3220", "Dermol DOA", "Vistone A 10", "SP 100", "SP 100 (solvent)", "NSC 56775", "Adipic acid diester with 2-ethylhexanol", "Plastimoll DOA", "Dub Doa", "Oxsoft DOA", "Monocizer DOA", "Cereplast DOA", "Tubisoft VST", "Fineneo-EHA", "DOA-S"], "SMILES": "C(COC(CCCCC(OCC(CCCC)CC)=O)=O)(CCCC)CC", "physical_data": {"Molecular Weight": "370.57", "Molecular Formula": "C22H42O4", "Boiling Point": "214 \u00b0C @ Press: 5 Torr", "Melting Point": "-67.8 \u00b0C", "Density": "0.922 g/cm\u00b3 @ Temp: 25 \u00b0C"}}