{"cas_no": "103-17-3", "cn_name": "\u6c2f\u6740\u87a8", "en_name": ["Chlorbenside", "Benzene, 1-chloro-4-[[(4-chlorophenyl)methyl]thio]-", "Sulfide, p-chlorobenzyl p-chlorophenyl", "1-Chloro-4-[[(4-chlorophenyl)methyl]thio]benzene", "Chlorbenside", "p-Chlorobenzyl p-chlorophenyl sulfide", "p-Chlorobenzyl p-chlorophenyl sulphide", "4-Chlorobenzyl 4-chlorophenyl sulphide", "Chlorparacide", "Chlorsulphacide", "Mitox", "Chlorbensid", "Chloracide", "CP 20", "4-Chlorobenzyl 4-chlorophenyl sulfide", "NSC 33078", "1-Chloro-4-[(4-chlorophenyl)sulfanylmethyl]benzene"], "SMILES": "C(SC1=CC=C(Cl)C=C1)C2=CC=C(Cl)C=C2", "physical_data": {"Molecular Weight": "269.19", "Molecular Formula": "C13H10Cl2S", "Boiling Point": "83-84 \u00b0C @ Press: 2.4 x 10<sup>-3</sup> Torr", "Melting Point": "75-76 \u00b0C", "Density": "1.4210 g/cm\u00b3 @ Temp: 25 \u00b0C"}}