{"cas_no": "103-75-3", "cn_name": "2-\u4e59\u6c27\u57fa-3,4-\u4e8c\u6c22\u5421\u5583", "en_name": ["2-Ethoxy-3,4-dihydro-2H-pyran", "2H-Pyran, 2-ethoxy-3,4-dihydro-", "2-Ethoxy-3,4-dihydro-2H-pyran", "2-Ethoxy-2,3-dihydro-\u03b3-pyran", "2-Ethoxy-2,3-dihydro-4H-pyran", "2-Ethoxy-3,4-dihydropyran", "3,4-Dihydro-2-ethoxy-2H-pyran", "3,4-Dihydro-2-ethoxypyran", "(\u00b1)-3,4-Dihydro-2-ethoxy-2H-pyran", "(\u00b1)-2-Ethoxy-3,4-dihydro-2H-pyran", "NSC 6271", "3,4-Dihydro-2H-pyran-2-yl ethyl ether", "3,4-Dihydro-2-ethoxy-2H-Pyrane"], "SMILES": "O(CC)C1CCC=CO1", "physical_data": {"Molecular Weight": "128.17", "Molecular Formula": "C7H12O2", "Boiling Point": "143 \u00b0C", "Density": "0.970 g/cm\u00b3 @ Temp: 20 \u00b0C"}}