{"cas_no": "103-41-3", "cn_name": "\u8089\u6842\u9178\u82c4\u916f", "en_name": ["Benzyl cinnamate", "2-Propenoic acid, 3-phenyl-, phenylmethyl ester", "Cinnamic acid, benzyl ester", "Benzyl cinnamate", "Benzyl \u03b3-phenylacrylate", "Cinnamein", "Benzyl 3-phenylpropenoate", "3-Phenyl-2-propenoic acid benzyl ester", "NSC 11780", "NSC 44403", "NCCF 1500", "NCCF 300", "NCCF 100", "NCCF 4000"], "SMILES": "C(=CC(OCC1=CC=CC=C1)=O)C2=CC=CC=C2", "physical_data": {"Molecular Weight": "238.28", "Molecular Formula": "C16H14O2", "Boiling Point": "228-230 \u00b0C @ Press: 22 Torr", "Melting Point": "39 \u00b0C", "Density": "1.109 g/cm\u00b3 @ Temp: 15 \u00b0C"}}