{"cas_no": "103-49-1", "cn_name": "\u4e8c\u82c4\u80fa", "en_name": ["Dibenzylamine", "Benzenemethanamine, N-(phenylmethyl)-", "Dibenzylamine", "N-(Phenylmethyl)benzenemethanamine", "DBA", "N-Benzylbenzylamine", "N,N-Dibenzylamine", "(N-Benzylaminomethyl)benzene", "Bibenzylamine", "NSC 4811", "Bisbenzylamine", "N-Benzyl-1-phenylmethanamine"], "SMILES": "C(NCC1=CC=CC=C1)C2=CC=CC=C2", "physical_data": {"Molecular Weight": "197.28", "Molecular Formula": "C14H15N", "Boiling Point": "270 \u00b0C", "Melting Point": "-26 \u00b0C"}}