{"cas_no": "103-47-9", "cn_name": "2-\u73af\u5df1\u80fa\u57fa\u4e59\u78fa\u9178", "en_name": ["2-(Cyclohexylamino)ethanesulfonic acid", "Ethanesulfonic acid, 2-(cyclohexylamino)-", "Taurine, N-cyclohexyl-", "2-(Cyclohexylamino)ethanesulfonic acid", "N-Cyclohexyltaurine", "CHES", "2-[N-Cyclohexylamino]ethanesulfonic acid", "N-Cyclohexyl-2-aminoethanesulfonic acid", "NSC 120726", "2-(Cyclohexylazaniumyl)ethanesulfonate", "2-(Cyclohexylamino)ethane-1-sulfonic acid"], "SMILES": "N(CCS(=O)(=O)O)C1CCCCC1", "physical_data": {"Molecular Weight": "207.29", "Molecular Formula": "C8H17NO3S", "Melting Point": "320 \u00b0C"}}