{"cas_no": "103-71-9", "cn_name": "\u5f02\u6c30\u9178\u82ef\u916f", "en_name": ["Phenyl isocyanate", "Benzene, isocyanato-", "Isocyanic acid, phenyl ester", "Isocyanatobenzene", "Carbanil", "Mondur P", "Phenylcarbimide", "Phenyl carbonimide", "Phenyl isocyanate", "NSC 74454"], "SMILES": "N(=C=O)C1=CC=CC=C1", "physical_data": {"Molecular Weight": "119.12", "Molecular Formula": "C7H5NO", "Boiling Point": "158-168 \u00b0C", "Melting Point": "-30 \u00b0C", "Density": "1.0956 g/cm\u00b3 @ Temp: 19.6 \u00b0C"}}