{"cas_no": "103-01-5", "cn_name": "N-\u82ef\u57fa\u7518\u6c28\u9178", "en_name": ["N-Phenylglycine", "Glycine, N-phenyl-", "N-Phenylglycine", "Anilinoacetic acid", "(Phenylamino)acetic acid", "Acetic acid, (phenylamino)-", "N-(Phenylamino)acetic acid", "NSC 83567", "NPG", "2-(Phenylamino)acetic acid", "2-Anilinoacetic acid"], "SMILES": "N(CC(O)=O)C1=CC=CC=C1", "physical_data": {"Molecular Weight": "151.16", "Molecular Formula": "C8H9NO2", "Melting Point": "127.5 \u00b0C"}}