{"cas_no": "103-32-2", "cn_name": "N-\u82c4\u57fa\u82ef\u80fa", "en_name": ["Benzylaniline", "Benzenemethanamine, N-phenyl-", "Benzylamine, N-phenyl-", "N-Phenylbenzenemethanamine", "N-Benzylaniline", "Benzylphenylamine", "Benzenamine, N-(phenylmethyl)-", "Benzylaniline", "Phenylbenzylamine", "N-Phenylbenzylamine", "N-Benzylbenzenamine", "N-Benzyl-N-phenylamine", "N-Phenyl-N-benzylamine", "N-Benzylphenylamine", "NSC 147284"], "SMILES": "C(NC1=CC=CC=C1)C2=CC=CC=C2", "physical_data": {"Molecular Weight": "183.25", "Molecular Formula": "C13H13N", "Boiling Point": "306.5 \u00b0C", "Melting Point": "37.5 \u00b0C", "Density": "1.0298 g/cm\u00b3 @ Temp: 65 \u00b0C"}}