{"cas_no": "103030-28-0", "cn_name": "6-\u6eb4-2-\u7532\u57fa-4-\u7f9f\u57fa\u55b9\u5549", "en_name": ["6-Bromo-2-methyl-4-quinolinol", "4-Quinolinol, 6-bromo-2-methyl-", "6-Bromo-2-methyl-4-quinolinol"], "SMILES": "OC=1C2=C(N=C(C)C1)C=CC(Br)=C2", "physical_data": {"Molecular Weight": "238.08", "Molecular Formula": "C10H8BrNO", "Melting Point": "338 \u00b0C"}}