{"cas_no": "10300-27-3", "cn_name": "3'-\u7532\u6c27\u57fa\u9e1f\u82f7", "en_name": ["3\u2032-O-Methylguanosine", "Guanosine, 3\u2032-O-methyl-", "3\u2032-O-Methylguanosine", "NSC 106541"], "SMILES": "O=C1C2=C(N(C=N2)C3C(O)C(OC)C(CO)O3)NC(N)=N1", "physical_data": {"Molecular Weight": "297.27", "Molecular Formula": "C11H15N5O5", "Melting Point": "263-300 \u00b0C (decomp)"}}