{"cas_no": "103028-32-6", "cn_name": "6-\u6eb4-8-\u7532\u6c27\u57fa\u55b9\u5549", "en_name": ["6-Bromo-8-methoxyquinoline", "Quinoline, 6-bromo-8-methoxy-", "6-Bromo-8-methoxyquinoline"], "SMILES": "O(C)C=1C2=C(C=C(Br)C1)C=CC=N2", "physical_data": {"Molecular Weight": "238.08", "Molecular Formula": "C10H8BrNO", "Boiling Point": "70-80 \u00b0C @ Press: 24 Torr"}}