{"cas_no": "103055-07-8", "cn_name": "\u8671\u87a8\u8132", "en_name": ["Lufenuron", "Benzamide, N-[[[2,5-dichloro-4-(1,1,2,3,3,3-hexafluoropropoxy)phenyl]amino]carbonyl]-2,6-difluoro-", "N-[[[2,5-Dichloro-4-(1,1,2,3,3,3-hexafluoropropoxy)phenyl]amino]carbonyl]-2,6-difluorobenzamide", "Lufenuron", "CGA 184699", "Match", "Match (pesticide)", "Fluphenacur", "Program", "Match 5EC", "Fuoro", "(RS)-1-[2,5-Dichloro-4-(1,1,2,3,3,3-hexafluoropropoxy)phenyl]-3-(2,6-difluorobenzoyl)urea", "Cigna", "Mani (insecticide)", "Mani"], "SMILES": "O(C(C(C(F)(F)F)F)(F)F)C1=C(Cl)C=C(NC(NC(=O)C2=C(F)C=CC=C2F)=O)C(Cl)=C1", "physical_data": {"Molecular Weight": "511.15", "Molecular Formula": "C17H8Cl2F8N2O3", "Melting Point": "166 \u00b0C"}}