{"cas_no": "10300-22-8", "cn_name": "3'-\u7532\u6c27\u57fa\u817a\u82f7", "en_name": ["3\u2032-O-Methyladenosine", "Adenosine, 3\u2032-O-methyl-", "3\u2032-O-Methyladenosine", "NSC 103062"], "SMILES": "OC1C(N2C=3C(N=C2)=C(N)N=CN3)OC(CO)C1OC", "physical_data": {"Molecular Weight": "281.27", "Molecular Formula": "C11H15N5O4", "Melting Point": "177-178 \u00b0C"}}