{"cas_no": "10304-16-2", "cn_name": "3-\u567b\u4e01\u73af\u9187", "en_name": ["3-Thietanol", "3-Thietanol", "Thiacyclobutan-3-ol", "NSC 101854"], "SMILES": "OC1CSC1", "physical_data": {"Molecular Weight": "90.14", "Molecular Formula": "C3H6OS", "Boiling Point": "57 \u00b0C", "Density": "1.2130 g/cm\u00b3 @ Temp: 20 \u00b0C"}}