{"cas_no": "10309-37-2", "cn_name": "\u8865\u9aa8\u8102\u915a", "en_name": ["(+)-Bakuchiol", "Phenol, 4-[(1E,3S)-3-ethenyl-3,7-dimethyl-1,6-octadien-1-yl]-", "Phenol, 4-(3-ethenyl-3,7-dimethyl-1,6-octadienyl)-, [S-(E)]-", "Bakuchiol", "Phenol, 4-[(1E,3S)-3-ethenyl-3,7-dimethyl-1,6-octadienyl]-", "4-[(1E,3S)-3-Ethenyl-3,7-dimethyl-1,6-octadien-1-yl]phenol", "Drupanol", "(+)-Bakuchiol", "(S)-(+)-Bakuchiol", "UP 256", "(S)-Bakuchiol", "Bakutrol", "Sytenol A", "Neuvachiol"], "SMILES": "C(C=CC1=CC=C(O)C=C1)(CCC=C(C)C)(C=C)C", "physical_data": {"Molecular Weight": "256.38", "Molecular Formula": "C18H24O", "Boiling Point": "145-147 \u00b0C @ Press: 0.7 Torr"}}