{"cas_no": "10308-82-4", "cn_name": "\u6c28\u57fa\u80cd\u785d\u9178\u76d0", "en_name": ["Aminoguanidine nitrate", "Hydrazinecarboximidamide, nitrate (1:1)", "Guanidine, amino-, mononitrate", "Hydrazinecarboximidamide, mononitrate", "Aminoguanidine nitrate", "Aminoguanidine mononitrate", "Aminoguanidinium nitrate", "NSC 206198", "N-Aminoguanidine nitrate"], "SMILES": "C(NN)(=N)N.N(=O)(=O)O", "physical_data": {"Molecular Weight": "", "Molecular Formula": "CH6N4.HNO3", "Melting Point": "141-144 \u00b0C"}}