{"cas_no": "1030377-33-3", "cn_name": "\u82cf\u6c83\u96f7\u751f", "en_name": ["Suvorexant", "Methanone, [(7R)-4-(5-chloro-2-benzoxazolyl)hexahydro-7-methyl-1H-1,4-diazepin-1-yl][5-methyl-2-(2H-1,2,3-triazol-2-yl)phenyl]-", "[(7R)-4-(5-Chloro-2-benzoxazolyl)hexahydro-7-methyl-1H-1,4-diazepin-1-yl][5-methyl-2-(2H-1,2,3-triazol-2-yl)phenyl]methanone", "5-Chloro-2-[(5R)-5-methyl-4-[5-methyl-2-(2H-1,2,3-triazol-2-yl)benzoyl]-1,4-diazepan-1-yl]-1,3-benzoxazole", "MK 4305", "Suvorexant", "[(R)-4-(5-Chloro-benzooxazol-2-yl)-7-methyl-[1,4]diazepan-1-yl]-(5-methyl-2-[1,2,3]triazol-2-yl-phenyl)-methanone", "Belsomra"], "SMILES": "C(=O)(C1=C(C=CC(C)=C1)N2N=CC=N2)N3CCN(CCC3C)C4=NC=5C(O4)=CC=C(Cl)C5", "physical_data": {"Molecular Weight": "450.92", "Molecular Formula": "C23H23ClN6O2", "Melting Point": "153.1 \u00b0C"}}