{"cas_no": "10300-69-3", "cn_name": "\u6c2f\u4e59\u9170\u80fa\u76d0\u9178\u76d0", "en_name": ["Ethanimidamide, 2-chloro-, monohydrochloride", "Ethanimidamide, 2-chloro-, monohydrochloride", "Acetamidine, 2-chloro-, monohydrochloride", "Acetamidine, 2-chloro-, hydrochloride", "2-Chloroacetamidine hydrochloride", "Chloroacetamidine hydrochloride", "\u03b1-Chloroacetamidine hydrochloride", "2-Chloroacetamidine monohydrochloride", "2-Chloroethanimidamide hydrochloride", "2-Chloroacetimidamide hydrochloride", "2-Chloro-1-iminoethan-1-aminium chloride"], "SMILES": "C(CCl)(=N)N.Cl", "physical_data": {"Molecular Weight": "", "Molecular Formula": "C2H5ClN2.ClH", "Melting Point": "104-106 \u00b0C"}}