{"cas_no": "103079-11-4", "cn_name": "2-\u7532\u57fa-4-\u4e8c\u82c4\u6c28\u57fa\u82ef\u7532\u919b-1,1-\u4e8c\u82ef\u8159", "en_name": ["4-[Bis(phenylmethyl)amino]-2-methylbenzaldehyde 2,2-diphenylhydrazone", "Benzaldehyde, 4-[bis(phenylmethyl)amino]-2-methyl-, 2,2-diphenylhydrazone", "Benzaldehyde, 4-[bis(phenylmethyl)amino]-2-methyl-, diphenylhydrazone", "4-[Bis(phenylmethyl)amino]-2-methylbenzaldehyde 2,2-diphenylhydrazone", "CTC 191", "2-Methyl-4-dibenzylaminobenzaldehyde N,N-diphenylhydrazone", "4-Dibenzylamino-2-methylbenzaldehyde diphenylhydrazone", "2-Methyl-4-dibenzylaminobenzoaldehyde-1,1-diphenylhydrazone"], "SMILES": "N(CC1=CC=CC=C1)(CC2=CC=CC=C2)C3=CC(C)=C(C=NN(C4=CC=CC=C4)C5=CC=CC=C5)C=C3", "physical_data": {"Molecular Weight": "481.63", "Molecular Formula": "C34H31N3", "Melting Point": "148-150 \u00b0C"}}