{"cas_no": "103030-10-0", "cn_name": "\u975b\u7ea2-7-\u7532\u9178\u7532\u916f", "en_name": ["7-Methoxycarbonylisatin", "1H-Indole-7-carboxylic acid, 2,3-dihydro-2,3-dioxo-, methyl ester", "7-Indolinecarboxylic acid, 2,3-dioxo-, methyl ester", "Methyl 7-isatincarboxylate", "7-Methoxycarbonylisatin", "2,3-Dioxo-2,3-dihydro-1H-indole-7-carboxylic acid methyl ester"], "SMILES": "C(OC)(=O)C1=C2C(C(=O)C(=O)N2)=CC=C1", "physical_data": {"Molecular Weight": "205.17", "Molecular Formula": "C10H7NO4", "Melting Point": "280 \u00b0C"}}