{"cas_no": "10304-39-9", "cn_name": "8-(\u7532\u82ef\u78fa\u9170\u6c28\u57fa)\u55b9\u5549", "en_name": ["8-(p-Toluenesulfonylamino)quinoline", "Benzenesulfonamide, 4-methyl-N-8-quinolinyl-", "p-Toluenesulfonamide, N-8-quinolyl-", "4-Methyl-N-8-quinolinylbenzenesulfonamide", "8-(p-Tolylsulfonylamino)quinoline", "8-(p-Tolylsulfonamido)quinoline", "8-p-Tosylaminoquinoline", "8-(p-Toluenesulfonylamino)quinoline", "N-8-Quinolyl-p-toluenesulfonamide", "4-Methyl-N-(8-quinolinyl)benzenesulfonamide", "NSC 87883"], "SMILES": "N(S(=O)(=O)C1=CC=C(C)C=C1)C=2C3=C(C=CC2)C=CC=N3", "physical_data": {"Molecular Weight": "298.36", "Molecular Formula": "C16H14N2O2S", "Melting Point": "154 \u00b0C"}}