{"cas_no": "103177-37-3", "cn_name": "\u666e\u4ed1\u53f8\u7279", "en_name": ["Pranlukast", "Benzamide, N-[4-oxo-2-(2H-tetrazol-5-yl)-4H-1-benzopyran-8-yl]-4-(4-phenylbutoxy)-", "Benzamide, N-[4-oxo-2-(1H-tetrazol-5-yl)-4H-1-benzopyran-8-yl]-4-(4-phenylbutoxy)-", "N-[4-Oxo-2-(2H-tetrazol-5-yl)-4H-1-benzopyran-8-yl]-4-(4-phenylbutoxy)benzamide", "RS 411", "ONO 1078", "Pranlukast", "ONO-RS 411", "SB 205312", "8-[4-(4-Phenylbutoxy)benzoyl]amino-2-(5-tetrazolyl)-4-oxo-4H-1-benzopyran", "Onon", "CCN 00401", "Azlaire", "4-Oxo-8-[4-(4-phenylbutoxy)benzoylamino]-2-(tetrazol-5-yl)-4H-1-benzopyran"], "SMILES": "N(C(=O)C1=CC=C(OCCCCC2=CC=CC=C2)C=C1)C3=C4C(C(=O)C=C(O4)C=5NN=NN5)=CC=C3", "physical_data": {"Molecular Weight": "481.50", "Molecular Formula": "C27H23N5O4", "Melting Point": "231-233 \u00b0C (decomp)"}}