{"cas_no": "10310-21-1", "cn_name": "2-\u6c28\u57fa-6-\u6c2f\u560c\u5464", "en_name": ["2-Amino-6-chloropurine", "9H-Purin-2-amine, 6-chloro-", "Purine, 2-amino-6-chloro-", "1H-Purin-2-amine, 6-chloro-", "6-Chloro-9H-purin-2-amine", "2-Amino-6-chloropurine", "6-Chloro-2-aminopurine", "6-Chloro-2-purinamine", "6-Chloroguanine", "6-Chloro-1H-purin-2-amine", "NSC 29570", "6-Chloro-7H-purin-2-ylamine", "2-Amino-6-chloro-9H-purine", "6-Chloro-9H-purin-2-yl-2-amine", "6-Chloro-7H-purin-2-amine"], "SMILES": "ClC1=C2C(=NC(N)=N1)N=CN2", "physical_data": {"Molecular Weight": "169.57", "Molecular Formula": "C5H4ClN5", "Melting Point": "275 \u00b0C (decomp)"}}