{"cas_no": "1031-93-2", "cn_name": "\u4e8c\u82ef\u57fa\u7532\u82ef\u57fa\u78f7", "en_name": ["Diphenyl-p-tolylphosphine", "Phosphine, (4-methylphenyl)diphenyl-", "Phosphine, diphenyl-p-tolyl-", "(4-Methylphenyl)diphenylphosphine", "Diphenyl-p-tolylphosphine", "p-Tolyldiphenylphosphine", "Diphenyl-4-tolylphosphine", "(4-Methylphenyl)diphenyl phosphine", "Diphenyl(4-methylphenyl)phosphine", "(4-Methylphenyl)-diphenylphosphane"], "SMILES": "P(C1=CC=C(C)C=C1)(C2=CC=CC=C2)C3=CC=CC=C3", "physical_data": {"Molecular Weight": "276.31", "Molecular Formula": "C19H17P", "Boiling Point": "250 \u00b0C @ Press: 14 Torr", "Melting Point": "68-69 \u00b0C"}}