{"cas_no": "10315-03-4", "cn_name": "4-\u4e59\u9170\u57fa-4-\u82ef\u57fa\u54cc\u5576\u76d0\u9178\u76d0", "en_name": ["4-Acetyl-4-phenylpiperidine hydrochloride", "Ethanone, 1-(4-phenyl-4-piperidinyl)-, hydrochloride (1:1)", "Ketone, methyl 4-phenyl-4-piperidyl, hydrochloride", "Ethanone, 1-(4-phenyl-4-piperidinyl)-, hydrochloride", "4-Acetyl-4-phenylpiperidine hydrochloride", "1-(4-Phenylpiperidin-4-yl)ethan-1-one hydrochloride", "1-(4-Phenyl-4-piperidinyl)ethanone hydrochloride", "1-(4-Phenyl-4-piperidyl)ethanone hydrochloride"], "SMILES": "C(C)(=O)C1(CCNCC1)C2=CC=CC=C2.Cl", "physical_data": {"Molecular Weight": "", "Molecular Formula": "C13H17NO.ClH", "Melting Point": "238-241 \u00b0C"}}