{"cas_no": "10315-07-8", "cn_name": "1-\u82c4\u57fa\u54cc\u5576-4-\u7532\u9178", "en_name": ["1-(Phenylmethyl)-4-piperidinecarboxylic acid", "4-Piperidinecarboxylic acid, 1-(phenylmethyl)-", "Isonipecotic acid, 1-benzyl-", "1-(Phenylmethyl)-4-piperidinecarboxylic acid", "1-Benzyl-4-piperidinecarboxylic acid", "N-Benzylpiperidine-4-carboxylic acid", "N-Benzyl-isonipecotic acid"], "SMILES": "C(N1CCC(C(O)=O)CC1)C2=CC=CC=C2", "physical_data": {"Molecular Weight": "219.28", "Molecular Formula": "C13H17NO2", "Melting Point": "169.0-170.5 \u00b0C"}}