{"cas_no": "10310-32-4", "cn_name": "\u4e09\u82c4\u7cd6\u7519", "en_name": ["Tribenoside", "D-Glucofuranoside, ethyl 3,5,6-tris-O-(phenylmethyl)-", "Glucofuranoside, ethyl 3,5,6-tri-O-benzyl-, D-", "Glucofuranoside, ethyl 3,5,6-tri-O-benzyl-", "Ethyl 3,5,6-tris-O-(phenylmethyl)-D-glucofuranoside", "Ethyl 3,5,6-tri-O-benzyl-D-glucofuranoside", "Ba 21401", "Glyvenol", "Tribenzoside", "Tribenoside", "Ethyl 3,5,6-tri-O-benzyl-D-glucofuranoside", "Glivenol", "Glyvenal", "TBGF", "Flebosan", "Hemocuron", "Venex", "Alven"], "SMILES": "C(OCC1=CC=CC=C1)(COCC2=CC=CC=C2)C3C(OCC4=CC=CC=C4)C(O)C(OCC)O3", "physical_data": {"Molecular Weight": "478.58", "Molecular Formula": "C29H34O6", "Boiling Point": "275 \u00b0C"}}