{"cas_no": "1031-47-6", "cn_name": "\u5a01\u83cc\u78f7", "en_name": ["Triamiphos", "Phosphonic diamide, P-(5-amino-3-phenyl-1H-1,2,4-triazol-1-yl)-N,N,N\u2032,N\u2032-tetramethyl-", "P-(5-Amino-3-phenyl-1H-1,2,4-triazol-1-yl)-N,N,N\u2032,N\u2032-tetramethylphosphonic diamide", "WP 155", "5-Amino-1-bis(dimethylamido)phosphoryl-3-phenyl-1,2,4-triazole", "5-Amino-1-[bis(dimethylamino)phosphinyl]-3-phenyl-1,2,4-triazole", "5-Amino-3-phenyl-1,2,4-triazol-1-yl-N,N,N\u2032,N\u2032-tetramethylphosphodiamide", "Wepsyn", "Triamiphos", "Wepsyn 155", "NSC 232670"], "SMILES": "P(N(C)C)(N(C)C)(=O)N1N=C(N=C1N)C2=CC=CC=C2", "physical_data": {"Molecular Weight": "294.29", "Molecular Formula": "C12H19N6OP", "Melting Point": "167-169 \u00b0C"}}