{"cas_no": "10311-84-9", "cn_name": "\u6c2f\u4e9a\u80fa\u786b\u78f7", "en_name": ["Dialifos", "Phosphorodithioic acid, S-[2-chloro-1-(1,3-dihydro-1,3-dioxo-2H-isoindol-2-yl)ethyl] O,O-diethyl ester", "Phosphorodithioic acid, O,O-diethyl ester, S-ester with N-(2-chloro-1-mercaptoethyl)phthalimide", "Phthalimide, N-(2-chloro-1-mercaptoethyl)-, S-ester with O,O-diethyl phosphorodithioate", "Hercules 14503", "S-(2-Chloro-1-phthalimidoethyl) O,O-diethyl phosphorodithioate", "O,O-Diethyl S-(2-chloro-1-phthalimidoethyl) phosphorodithioate", "Torak", "Dialifor", "Dialiphor", "Dialifos", "Dialiphos"], "SMILES": "C(SP(OCC)(OCC)=S)(CCl)N1C(=O)C=2C(C1=O)=CC=CC2", "physical_data": {"Molecular Weight": "393.85", "Molecular Formula": "C14H17ClNO4PS2", "Melting Point": "68 \u00b0C"}}