{"cas_no": "10312-83-1", "cn_name": "\u7532\u6c27\u57fa\u4e59\u919b", "en_name": ["Methoxyacetaldehyde", "Acetaldehyde, 2-methoxy-", "Acetaldehyde, methoxy-", "2-Methoxyacetaldehyde", "Methoxyacetaldehyde", "\u03b1-Methoxyacetaldehyde", "O-Methylglycolaldehyde", "2-Methoxyethanal"], "SMILES": "C(C=O)OC", "physical_data": {"Molecular Weight": "74.08", "Molecular Formula": "C3H6O2", "Boiling Point": "92 \u00b0C", "Density": "1.005 g/cm\u00b3 @ Temp: 25 \u00b0C"}}