{"cas_no": "10315-98-7", "cn_name": "4'-\u5f02\u4e01\u57fa\u5417\u5549", "en_name": ["4-(2-Methylpropyl)morpholine", "Morpholine, 4-(2-methylpropyl)-", "Morpholine, 4-isobutyl-", "4-(2-Methylpropyl)morpholine", "N-Isobutylmorpholine", "4-Isobutylmorpholine", "NSC 158332"], "SMILES": "C(C(C)C)N1CCOCC1", "physical_data": {"Molecular Weight": "143.23", "Molecular Formula": "C8H17NO", "Boiling Point": "181 \u00b0C", "Melting Point": "&lt;-10 \u00b0C"}}