{"cas_no": "1031-07-8", "cn_name": "\u786b\u4e39\u786b\u9178\u916f", "en_name": ["Endosulfan sulfate", "6,9-Methano-2,4,3-benzodioxathiepin, 6,7,8,9,10,10-hexachloro-1,5,5a,6,9,9a-hexahydro-, 3,3-dioxide", "5-Norbornene-2,3-dimethanol, 1,4,5,6,7,7-hexachloro-, cyclic sulfate", "Endosulfan sulfate", "1,4,5,6,7,7-Hexachloro-5-norbornene-2,3-dimethanol cyclic sulfate", "6,7,8,9,10,10-Hexachloro-1,5,5a,6,9,9a-hexahydro-6,9-methano-2,4,3-benzodioxathiepin 3,6-dioxide", "Thiodan sulfate", "Benzoepin sulfate", "Endosulfan cyclic sulfate", "Endosulfan III", "Endosulfate", "6,7,8,9,10,10-Hexachloro-1,5,5a,6,9,9a-hexahydro-6,9-methano-2,4,3-benzodioxathiepin 3,3-dioxide"], "SMILES": "ClC12C3C(C(Cl)(C1(Cl)Cl)C(Cl)=C2Cl)COS(=O)(=O)OC3", "physical_data": {"Molecular Weight": "422.92", "Molecular Formula": "C9H6Cl6O4S", "Melting Point": "181-182 \u00b0C"}}