{"cas_no": "10316-79-7", "cn_name": "1-\u6c28\u57fa-1-\u7f9f\u57fa\u7532\u57fa\u73af\u620a\u70f7", "en_name": ["[1-Aminocyclopentyl]methanol", "Cyclopentanemethanol, 1-amino-", "1-Aminocyclopentanemethanol", "1-Aminocyclopentane-1-methanol", "1-(Hydroxymethyl)cyclopentanamine", "(1-(Hydroxymethyl)cyclopentyl)amine", "Cycloleucinol", "1-Amino-1-(hydroxymethyl)cyclopentane", "[1-Aminocyclopentyl]methanol", "(1-Amino-1-cyclopentyl)methanol"], "SMILES": "C(O)C1(N)CCCC1", "physical_data": {"Molecular Weight": "115.17", "Molecular Formula": "C6H13NO", "Boiling Point": "68-69 \u00b0C @ Press: 1 Torr"}}