{"cas_no": "1031-15-8", "cn_name": "\u4e09\u82ef\u57fa\u7532\u57fa\u6c2f\u5316\u81a6", "en_name": ["Methyltriphenylphosphonium chloride", "Phosphonium, methyltriphenyl-, chloride (1:1)", "Phosphonium, methyltriphenyl-, chloride", "Methyltriphenylphosphonium chloride", "Triphenylmethylphosphonium chloride", "B 150", "B 150 (antioxidant)"], "SMILES": "[P+](C)(C1=CC=CC=C1)(C2=CC=CC=C2)C3=CC=CC=C3.[Cl-]", "physical_data": {"Molecular Weight": "", "Molecular Formula": "C19H18P.Cl", "Melting Point": "217-218.5 \u00b0C"}}