{"cas_no": "103112-35-2", "cn_name": "\u89e3\u8349\u5511", "en_name": ["Fenchlorazole-ethyl", "1H-1,2,4-Triazole-3-carboxylic acid, 1-(2,4-dichlorophenyl)-5-(trichloromethyl)-, ethyl ester", "HOE 070542", "Fenchlorazole-ethyl", "Fenchlorazole-Et", "HOE 70542"], "SMILES": "C(Cl)(Cl)(Cl)C=1N(N=C(C(OCC)=O)N1)C2=C(Cl)C=C(Cl)C=C2", "physical_data": {"Molecular Weight": "403.48", "Molecular Formula": "C12H8Cl5N3O2", "Melting Point": "110 \u00b0C"}}