{"cas_no": "1031927-03-3", "cn_name": "2-\u6eb4-5-\u6c30\u57fa\u82ef\u7532\u9178\u7532\u916f", "en_name": ["Benzoic acid, 2-bromo-5-cyano-, methyl ester", "Benzoic acid, 2-bromo-5-cyano-, methyl ester", "Methyl 2-bromo-5-cyanobenzoate"], "SMILES": "C(OC)(=O)C1=CC(C#N)=CC=C1Br", "physical_data": {"Molecular Weight": "240.05", "Molecular Formula": "C9H6BrNO2", "Melting Point": "10-12 \u00b0C"}}