{"cas_no": "103203-84-5", "cn_name": "\u82ef\u5e76\u4e8c\u6c22\u5421\u5583-6-\u7fa7\u9178", "en_name": ["3,4-Dihydro-2H-1-benzopyran-6-carboxylic acid", "2H-1-Benzopyran-6-carboxylic acid, 3,4-dihydro-", "6-Chromancarboxylic acid", "3,4-Dihydro-2H-1-benzopyran-6-carboxylic acid", "Chromane-6-carboxylic acid", "3,4-Dihydro-2H-chromene-6-carboxylic acid"], "SMILES": "C(O)(=O)C=1C=C2C(=CC1)OCCC2", "physical_data": {"Molecular Weight": "178.18", "Molecular Formula": "C10H10O3", "Melting Point": "148-150 \u00b0C"}}