{"cas_no": "1032231-28-9", "cn_name": "5-\u6eb4-2-\u6c30\u57fa\u82ef\u7532\u9178", "en_name": ["5-Bromo-2-cyanobenzoic acid", "Benzoic acid, 5-bromo-2-cyano-", "5-Bromo-2-cyanobenzoic acid", "4-Bromo-2-carboxybenzonitrile"], "SMILES": "C(O)(=O)C1=C(C#N)C=CC(Br)=C1", "physical_data": {"Molecular Weight": "226.03", "Molecular Formula": "C8H4BrNO2", "Melting Point": "169-171 \u00b0C (decomp)"}}