{"cas_no": "1032231-30-3", "cn_name": "5-\u6eb4-2-\u6c30\u57fa\u82ef\u787c\u9178", "en_name": ["B-(5-Bromo-2-cyanophenyl)boronic acid", "Boronic acid, B-(5-bromo-2-cyanophenyl)-", "B-(5-Bromo-2-cyanophenyl)boronic acid", "3-Bromo-6-cyanophenylboronic acid", "(5-Bromo-2-cyanophenyl)boronic acid", "(5-Bromo-2-cyanophenyl)boronicacid"], "SMILES": "B(O)(O)C1=C(C#N)C=CC(Br)=C1", "physical_data": {"Molecular Weight": "225.84", "Molecular Formula": "C7H5BBrNO2", "Melting Point": "280-285 \u00b0C (decomp)"}}