{"cas_no": "1032231-32-5", "cn_name": "3-BROMO-2-CYANOPHENYLBORONIC ACID", "en_name": ["B-(3-Bromo-2-cyanophenyl)boronic acid", "Boronic acid, B-(3-bromo-2-cyanophenyl)-", "B-(3-Bromo-2-cyanophenyl)boronic acid", "3-Bromo-2-cyanophenylboronic acid"], "SMILES": "C(#N)C1=C(B(O)O)C=CC=C1Br", "physical_data": {"Molecular Weight": "225.84", "Molecular Formula": "C7H5BBrNO2", "Melting Point": "264-267 \u00b0C (decomp)"}}