{"cas_no": "103286-54-0", "cn_name": "3-\u6c2f-1H-\u5421\u5511-4-\u80fa", "en_name": ["3-Chloro-1H-pyrazol-4-amine", "1H-Pyrazol-4-amine, 3-chloro-", "3-Chloro-1H-pyrazol-4-amine"], "SMILES": "NC=1C(Cl)=NNC1", "physical_data": {"Molecular Weight": "117.54", "Molecular Formula": "C3H4ClN3", "Melting Point": "149-150 \u00b0C (decomp)"}}