{"cas_no": "103213-32-7", "cn_name": "Fmoc-S-\u4e09\u82ef\u7532\u57fa-L-\u534a\u80f1\u6c28\u9178", "en_name": ["N-[(9H-Fluoren-9-ylmethoxy)carbonyl]-S-(triphenylmethyl)-L-cysteine", "L-Cysteine, N-[(9H-fluoren-9-ylmethoxy)carbonyl]-S-(triphenylmethyl)-", "N-[(9H-Fluoren-9-ylmethoxy)carbonyl]-S-(triphenylmethyl)-L-cysteine", "3: PN: US20040265921 PAGE: 4 claimed protein", "Fmoc-L-Cys(Trt)-OH", "N-(((9H-Fluoren-9-yl)methoxy)carbonyl)-S-trityl-L-cysteine", "(2R)-2-(9H-Fluoren-9-ylmethoxycarbonylamino)-3-tritylsulfanylpropanoic acid"], "SMILES": "C(SCC(NC(OCC1C=2C(C=3C1=CC=CC3)=CC=CC2)=O)C(O)=O)(C4=CC=CC=C4)(C5=CC=CC=C5)C6=CC=CC=C6", "physical_data": {"Molecular Weight": "585.71", "Molecular Formula": "C37H31NO4S", "Melting Point": "171-174 \u00b0C"}}