{"cas_no": "1032-65-1", "cn_name": "2'-\u8131\u6c27\u80de\u82f7-5'-\u5355\u78f7\u9178", "en_name": ["2\u2032-Deoxycytidine-5\u2032-monophosphate", "5\u2032-Cytidylic acid, 2\u2032-deoxy-", "Cytidine, 2\u2032-deoxy-, 5\u2032-(dihydrogen phosphate)", "Cytidine, 2\u2032-deoxy-, 5\u2032-phosphate", "Cytidine, 2\u2032-deoxy-, phosphate", "2\u2032-Deoxy-5\u2032-cytidylic acid", "Deoxycytidine-5\u2032-monophosphate", "2\u2032-Deoxycytidine 5\u2032-phosphate", "2\u2032-Deoxycytidylic acid", "dCMP", "Deoxycytidine monophosphate", "Deoxy-CMP", "Deoxycytidine 5\u2032-phosphate", "2\u2032-Deoxycytidine-5\u2032-monophosphate", "5\u2032-Deoxycytidylic acid", "MeSH ID: D003843"], "SMILES": "O=C1N(C=CC(N)=N1)C2OC(COP(=O)(O)O)C(O)C2", "physical_data": {"Molecular Weight": "307.20", "Molecular Formula": "C9H14N3O7P", "Melting Point": "183-184 \u00b0C (decomp)"}}