{"cas_no": "10326-27-9", "cn_name": "\u4e8c\u6c34\u5408\u6c2f\u5316\u94a1", "en_name": ["Barium chloride, dihydrate", "Barium chloride (BaCl2), dihydrate", "Barium chloride, dihydrate", "Barium dichloride dihydrate", "Barium chloride (BaCl2) hydrate (1:2)"], "SMILES": "[Ba](Cl)Cl.O", "physical_data": {"Molecular Weight": "", "Molecular Formula": "BaCl2.2H2O", "Melting Point": "113 \u00b0C", "Density": "3.86 g/cm\u00b3"}}