{"cas_no": "10323-20-3", "cn_name": "D-\u963f\u62c9\u4f2f\u7cd6", "en_name": ["D-Arabinose", "D-Arabinose", "Arabinose, D-", "D-(-)-Arabinose", "(-)-Arabinose", "Anhydroarabinose"], "SMILES": "C(C(CO)O)(C(C=O)O)O", "physical_data": {"Molecular Weight": "150.13", "Molecular Formula": "C5H10O5", "Melting Point": "159 \u00b0C"}}