{"cas_no": "1032350-06-3", "cn_name": "[1-(4-\u6eb4\u82ef\u57fa)\u73af\u4e01\u57fa]\u6c28\u57fa\u7532\u9178\u53d4\u4e01\u916f", "en_name": ["tert-Butyl [1-(4-bromophenyl)cyclobutyl]carbamate", "Carbamic acid, N-[1-(4-bromophenyl)cyclobutyl]-, 1,1-dimethylethyl ester", "tert-Butyl [1-(4-bromophenyl)cyclobutyl]carbamate"], "SMILES": "N(C(OC(C)(C)C)=O)C1(CCC1)C2=CC=C(Br)C=C2", "physical_data": {"Molecular Weight": "326.23", "Molecular Formula": "C15H20BrNO2", "Melting Point": "120.2-121.2 \u00b0C"}}