{"cas_no": "103204-69-9", "cn_name": "4-\u4e59\u9170\u6c28\u57fa-2-\u7532\u57fa\u82ef\u7532\u9178", "en_name": ["4-(Acetylamino)-2-methylbenzoic acid", "Benzoic acid, 4-(acetylamino)-2-methyl-", "o-Toluic acid, 4-acetamido-", "4-(Acetylamino)-2-methylbenzoic acid", "4-Acetamido-2-methylbenzoic acid"], "SMILES": "C(O)(=O)C1=C(C)C=C(NC(C)=O)C=C1", "physical_data": {"Molecular Weight": "193.20", "Molecular Formula": "C10H11NO3", "Melting Point": "222 \u00b0C (decomp)"}}