{"cas_no": "10320-42-0", "cn_name": "2-\u6c2f-5-\u785d\u57fa\u5627\u5576", "en_name": ["2-Chloro-5-nitropyrimidine", "Pyrimidine, 2-chloro-5-nitro-", "2-Chloro-5-nitropyrimidine", "NSC 528724"], "SMILES": "N(=O)(=O)C=1C=NC(Cl)=NC1", "physical_data": {"Molecular Weight": "159.53", "Molecular Formula": "C4H2ClN3O2", "Melting Point": "110-111 \u00b0C"}}