{"cas_no": "10325-94-7", "cn_name": "\u785d\u9178\u9549", "en_name": ["Cadmium nitrate", "Nitric acid, cadmium salt (2:1)", "Cadmium nitrate", "Nitric acid, cadmium salt", "Cadmium nitrate (Cd(NO3)2)", "Cadmium dinitrate", "Cadmium(II) nitrate", "Cadmium(II) dinitrate"], "SMILES": "N(=O)(=O)O.[Cd]", "physical_data": {"Molecular Weight": "", "Molecular Formula": "Cd.2HNO3", "Melting Point": "350 \u00b0C", "Density": "3.6 g/cm\u00b3"}}