{"cas_no": "10326-21-3", "cn_name": "\u6c2f\u9178\u9541", "en_name": ["Magnesium chlorate", "Chloric acid, magnesium salt (2:1)", "Magnesium chlorate", "Chloric acid, magnesium salt", "De-fol-ate", "Magron", "MC Defoliant", "E-Z-Off", "Ortho MC", "Magnesium dichlorate", "KhMD 58"], "SMILES": "Cl(=O)(=O)O.[Mg]", "physical_data": {"Molecular Weight": "", "Molecular Formula": "ClHO3.<sup>1</sup>/2Mg", "Melting Point": "~35 \u00b0C (approx)"}}