{"cas_no": "10328-92-4", "cn_name": "1-\u7532\u57fa\u82ef\u5511", "en_name": ["N-Methylisatoic anhydride", "2H-3,1-Benzoxazine-2,4(1H)-dione, 1-methyl-", "Isatoic anhydride, N-methyl-", "1-Methyl-2H-3,1-benzoxazine-2,4(1H)-dione", "N-Methylisatoic anhydride", "N-Methylisatoic acid anhydride", "NSC 76087", "N-Methylisatioc anhydride", "1-Methyl-4H-3,1-benzoxazine-2,4(1H)dione", "1-Methyl-1H-benzo[d][1,3]oxazine-2,4-dione", "1-Methyl-3,1-benzoxazine-2,4-dione", "1-Methyl-2,4-dihydro-1H-3,1-benzoxazine-2,4-dione"], "SMILES": "CN1C=2C(C(=O)OC1=O)=CC=CC2", "physical_data": {"Molecular Weight": "177.16", "Molecular Formula": "C9H7NO3", "Melting Point": "177 \u00b0C"}}