{"cas_no": "10326-41-7", "cn_name": "D-\u4e73\u9178", "en_name": ["D-Lactic acid", "Propanoic acid, 2-hydroxy-, (2R)-", "Lactic acid, D-", "Propanoic acid, 2-hydroxy-, (R)-", "(2R)-2-Hydroxypropanoic acid", "D-Lactic acid", "D-(-)-Lactic acid", "(R)-Lactic acid", "l-Lactic acid", "(R)-\u03b1-Hydroxypropionic acid", "(-)-Lactic acid", "(R)-(-)-Lactic acid", "(R)-2-Hydroxypropanoic acid", "(R)-2-Hydroxypropionic acid", "(2R)-2-Hydroxypropanoic acid", "(R)-2-Hydroxy-propionic acid"], "SMILES": "C(C(O)=O)(C)O", "physical_data": {"Molecular Weight": "90.08", "Molecular Formula": "C3H6O3", "Melting Point": "52.8 \u00b0C"}}