{"cas_no": "103201-78-1", "cn_name": "\u53cd\u5f0f-4-\u73af\u5df1\u57fa-L-\u812f\u6c28\u9178", "en_name": ["(4S)-4-Cyclohexyl-L-proline", "L-Proline, 4-cyclohexyl-, (4S)-", "L-Proline, 4-cyclohexyl-, trans-", "(4S)-4-Cyclohexyl-L-proline"], "SMILES": "C(O)(=O)C1CC(CN1)C2CCCCC2", "physical_data": {"Molecular Weight": "197.27", "Molecular Formula": "C11H19NO2", "Melting Point": "249-252 \u00b0C"}}