{"cas_no": "10321-71-8", "cn_name": "4-\u7532\u57fa-2-\u620a\u9178(\u6807\u6837)", "en_name": ["4-Methyl-2-pentenoic acid", "2-Pentenoic acid, 4-methyl-", "4-Methyl-2-pentenoic acid", "4,4-Dimethyl-2-butenoic acid", "4-Methylpent-2-en-1-oic acid"], "SMILES": "C(=CC(O)=O)C(C)C", "physical_data": {"Molecular Weight": "114.14", "Molecular Formula": "C6H10O2", "Boiling Point": "217 \u00b0C", "Melting Point": "35 \u00b0C", "Density": "0.9589 g/cm\u00b3 @ Temp: 16 \u00b0C"}}