{"cas_no": "103300-74-9", "cn_name": "\u4ed6\u66ff\u745e\u6797", "en_name": ["Taltirelin", "L-Prolinamide, (4S)-hexahydro-1-methyl-2,6-dioxo-4-pyrimidinecarbonyl-L-histidyl-", "L-Prolinamide, N-[(hexahydro-1-methyl-2,6-dioxo-4-pyrimidinyl)carbonyl]-L-histidyl-, (S)-", "(4S)-Hexahydro-1-methyl-2,6-dioxo-4-pyrimidinecarbonyl-L-histidyl-L-prolinamide", "TA 0910", "Taltirelin", "Ceredist"], "SMILES": "C(C(CC1=CN=CN1)NC(=O)C2CC(=O)N(C)C(=O)N2)(=O)N3C(C(N)=O)CCC3", "physical_data": {"Molecular Weight": "405.41", "Molecular Formula": "C17H23N7O5", "Melting Point": "72-75 \u00b0C"}}