{"cas_no": "103312-62-5", "cn_name": "2-(4-\u6c2f-3-\u7532\u57fa-2-\u5421\u5576\u57fa\u7532\u786b\u57fa)-1H-\u82ef\u5e76\u54aa\u5511", "en_name": ["2-[[(4-Chloro-3-methyl-2-pyridinyl)methyl]thio]-1H-benzimidazole", "1H-Benzimidazole, 2-[[(4-chloro-3-methyl-2-pyridinyl)methyl]thio]-", "2-[[(4-Chloro-3-methyl-2-pyridinyl)methyl]thio]-1H-benzimidazole", "2-[(4-Chloro-3-Methyl-2-pyridinyl)methylthio]-1H-benzimidazole", "2-[[(4-Chloro-3-methyl-2-pyridyl)methyl]thio]-1H-benzimidazole", "2-[(4-Chloro-3-methylpyridin-2-yl)methylsulfanyl]-1H-benzimidazole", "2-(((4-Chloro-3-methylpyridin-2-yl)methyl)thio)-1H-benzo[d]imidazole"], "SMILES": "S(CC1=C(C)C(Cl)=CC=N1)C=2NC=3C(N2)=CC=CC3", "physical_data": {"Molecular Weight": "289.78", "Molecular Formula": "C14H12ClN3S", "Melting Point": "155-159 \u00b0C"}}