{"cas_no": "103361-09-7", "cn_name": "\u4e19\u7094\u6c1f\u8349\u80fa", "en_name": ["Flumioxazin", "1H-Isoindole-1,3(2H)-dione, 2-[7-fluoro-3,4-dihydro-3-oxo-4-(2-propyn-1-yl)-2H-1,4-benzoxazin-6-yl]-4,5,6,7-tetrahydro-", "1H-Isoindole-1,3(2H)-dione, 2-[7-fluoro-3,4-dihydro-3-oxo-4-(2-propynyl)-2H-1,4-benzoxazin-6-yl]-4,5,6,7-tetrahydro-", "2H-1,4-Benzoxazine, 1H-isoindole-1,3(2H)-dione deriv.", "2-[7-Fluoro-3,4-dihydro-3-oxo-4-(2-propyn-1-yl)-2H-1,4-benzoxazin-6-yl]-4,5,6,7-tetrahydro-1H-isoindole-1,3(2H)-dione", "S 53482", "Flumioxazin", "Sumisoya", "V 53482", "Valor", "Pledge", "2-(7-Fluoro-3-oxo-4-(prop-2-ynyl)-3,4-dihydro-2H-benzo[b][1,4]oxazin-6-yl)-4,5,6,7-tetrahydro-2H-isoindole-1,3-dione", "Encompass,", "Flumizin", "BroadStar", "Valor SX", "Guillotine", "Chateau", "SureGuard", "Sumimax"], "SMILES": "O=C1N(C(=O)C2=C1CCCC2)C=3C=C4N(CC#C)C(=O)COC4=CC3F", "physical_data": {"Molecular Weight": "354.33", "Molecular Formula": "C19H15FN2O4", "Melting Point": "201-204 \u00b0C", "Density": "1.5136 g/cm\u00b3 @ Temp: 20 \u00b0C"}}