{"cas_no": "103300-91-0", "cn_name": "N2-[1-(S)-\u4e59\u6c27\u7fb0\u57fa-3-\u82ef\u4e19\u57fa]-N6-\u4e09\u6c1f\u4e59\u9170\u57fa-L-\u8d56\u6c28\u9178-L-\u812f\u6c28\u9178", "en_name": ["N2-[(1S)-1-(Ethoxycarbonyl)-3-phenylpropyl]-N6-(2,2,2-trifluoroacetyl)-L-lysyl-L-proline", "L-Proline, N2-[(1S)-1-(ethoxycarbonyl)-3-phenylpropyl]-N6-(2,2,2-trifluoroacetyl)-L-lysyl-", "L-Proline, 1-[N2-[1-(ethoxycarbonyl)-3-phenylpropyl]-N6-(trifluoroacetyl)-L-lysyl]-, (S)-", "L-Proline, N2-[(1S)-1-(ethoxycarbonyl)-3-phenylpropyl]-N6-(trifluoroacetyl)-L-lysyl-", "N2-[(1S)-1-(Ethoxycarbonyl)-3-phenylpropyl]-N6-(2,2,2-trifluoroacetyl)-L-lysyl-L-proline", "N2-[(S)-1-Ethoxycarbonyl-3-phenylpropyl]-N6-trifluoroacetyl-L-lysyl-L-proline"], "SMILES": "C(C(NC(CCC1=CC=CC=C1)C(OCC)=O)CCCCNC(C(F)(F)F)=O)(=O)N2C(C(O)=O)CCC2", "physical_data": {"Molecular Weight": "529.55", "Molecular Formula": "C25H34F3N3O6", "Melting Point": "78 \u00b0C"}}