{"cas_no": "103365-69-1", "cn_name": "1-\u7532\u57fa-L-4,5-\u4e8c\u6c22\u4e73\u6e05\u9178", "en_name": ["(4S)-Hexahydro-1-methyl-2,6-dioxo-4-pyrimidinecarboxylic acid", "4-Pyrimidinecarboxylic acid, hexahydro-1-methyl-2,6-dioxo-, (4S)-", "4-Pyrimidinecarboxylic acid, hexahydro-1-methyl-2,6-dioxo-, (S)-", "(4S)-Hexahydro-1-methyl-2,6-dioxo-4-pyrimidinecarboxylic acid", "1-Methyl-L-4,5-dihydroorotic acid", "(4S)-1-Methyl-2,6-dioxo-1,3-diazinane-4-carboxylic acid", "(4S)-Hexahydro-1-methyl-2,6-dioxo-4-pyrimidinecarboxylic acid", "(S)-1-Methyl-2,6-dioxohexahydropyrimidine-4-carboxylic acid"], "SMILES": "C(O)(=O)C1CC(=O)N(C)C(=O)N1", "physical_data": {"Molecular Weight": "172.14", "Molecular Formula": "C6H8N2O4", "Melting Point": "214-216 \u00b0C"}}