{"cas_no": "10338-69-9", "cn_name": "4-\u82ef\u57fa-1,2,3,6-\u56db\u6c22\u5421\u5576", "en_name": ["1,2,3,6-Tetrahydro-4-phenylpyridine", "Pyridine, 1,2,3,6-tetrahydro-4-phenyl-", "1,2,3,6-Tetrahydro-4-phenylpyridine", "4-Phenyl-1,2,5,6-tetrahydropyridine", "4-Phenyl-1,2,3,6-tetrahydropyridine", "1,2,5,6-Tetrahydro-4-phenylpyridine", "NSC 54451", "4-Phenyl-3,6-dihydro-2H-pyridine"], "SMILES": "C1(=CC=CC=C1)C=2CCNCC2", "physical_data": {"Molecular Weight": "159.23", "Molecular Formula": "C11H13N", "Boiling Point": "100-105 \u00b0C @ Press: 1.5 Torr"}}