{"cas_no": "103335-55-3", "cn_name": "3-\u916e-4-\u6c2e\u6742-5a-\u96c4\u70f7-17b-\u7fa7\u9178", "en_name": ["3-Oxo-4-aza-5\u03b1-androstane-17\u03b2-carboxylic acid", "1H-Indeno[5,4-f]quinoline-7-carboxylic acid, hexadecahydro-4a,6a-dimethyl-2-oxo-, (4aR,4bS,6aS,7S,9aS,9bS,11aR)-", "4-Azaandrostane-17-carboxylic acid, 3-oxo-, (5\u03b1,17\u03b2)-", "(4aR,4bS,6aS,7S,9aS,9bS,11aR)-Hexadecahydro-4a,6a-dimethyl-2-oxo-1H-indeno[5,4-f]quinoline-7-carboxylic acid", "1H-Indeno[5,4-f]quinoline-7-carboxylic acid, hexadecahydro-4a,6a-dimethyl-2-oxo-, [4aR-(4a\u03b1,4b\u03b2,6a\u03b1,7\u03b1,9a\u03b2,9b\u03b1,11a\u03b2)]-", "4-Aza-3-oxo-5\u03b1-androstane-17\u03b2-carboxylic acid", "3-Oxo-4-aza-5\u03b1-androstan-17\u03b2-carboxylic acid", "3-Oxo-4-aza-5\u03b1-androstane-17\u03b2-carboxylic acid", "4-Aza-3-oxo-androstane-17\u03b2-carboxylic acid", "3-Oxo-4-aza-5\u03b1-androstane-17-carboxylic acid", "(5\u03b1,17\u03b2)-3-Oxo-4-aza-5\u03b1-androstane-17-carboxylic acid", "(5\u03b1,17\u03b2)-3-Oxo-4-azaandrostane-17-carboxylic acid"], "SMILES": "CC12C3C(C4C(C)(CC3)C(C(O)=O)CC4)CCC1NC(=O)CC2", "physical_data": {"Molecular Weight": "319.44", "Molecular Formula": "C19H29NO3", "Melting Point": "&gt;308 \u00b0C"}}