{"cas_no": "10333-68-3", "cn_name": "1-(2-\u7fb0\u57fa\u82ef)\u5421\u54af", "en_name": ["2-(1H-Pyrrol-1-yl)benzoic acid", "Benzoic acid, 2-(1H-pyrrol-1-yl)-", "Benzoic acid, o-pyrrol-1-yl-", "2-(1H-Pyrrol-1-yl)benzoic acid", "2-(1-Pyrrolyl)benzoic acid", "1-(2-Carboxyphenyl)pyrrole"], "SMILES": "C(O)(=O)C1=C(C=CC=C1)N2C=CC=C2", "physical_data": {"Molecular Weight": "187.19", "Molecular Formula": "C11H9NO2", "Melting Point": "103 \u00b0C"}}