{"cas_no": "10338-51-9", "cn_name": "\u7ea2\u666f\u5929\u82f7", "en_name": ["Salidroside", "\u03b2-D-Glucopyranoside, 2-(4-hydroxyphenyl)ethyl", "Salidroside", "Glucopyranoside, p-hydroxyphenethyl", "2-(4-Hydroxyphenyl)ethyl \u03b2-D-glucopyranoside", "Rhodioloside", "Rhodosin", "Tyrosol \u03b1-(\u03b2-D-glucopyranoside)", "4-Hydroxyphenyl-2-ethyl-\u03b2-D-glucopyranoside", "Sallidroside", "(2R,3S,4S,5R,6R)-2-(Hydroxymethyl)-6-[2-(4-hydroxyphenyl)ethoxy] oxane-3,4,5-triol"], "SMILES": "O(CCC1=CC=C(O)C=C1)C2OC(CO)C(O)C(O)C2O", "physical_data": {"Molecular Weight": "300.30", "Molecular Formula": "C14H20O7", "Melting Point": "159-160 \u00b0C"}}