{"cas_no": "10334-26-6", "cn_name": "D-2-\u83b0\u916e\u82ef\u918c", "en_name": ["(-)-Camphorquinone", "Bicyclo[2.2.1]heptane-2,3-dione, 1,7,7-trimethyl-, (1R,4S)-", "2,3-Bornanedione, (1R,4S)-(-)-", "Bicyclo[2.2.1]heptane-2,3-dione, 1,7,7-trimethyl-, (1R)-", "(1R,4S)-1,7,7-Trimethylbicyclo[2.2.1]heptane-2,3-dione", "(-)-Camphorquinone", "(1R,4S)-2,3-Bornanedione", "l-Camphorquinone", "(1R)-(-)-Camphorquinone", "(-)-(1R)-Camphorquinone", "(1R)-2,3-Bornanedione", "(1R)-Camphorquinone", "(1R,4S)-(-)Camphorquinone"], "SMILES": "CC12C(C)(C)C(C(=O)C1=O)CC2", "physical_data": {"Molecular Weight": "166.22", "Molecular Formula": "C10H14O2", "Melting Point": "198-200 \u00b0C"}}