{"cas_no": "10339-55-6", "cn_name": "3,7-\u4e8c\u7532\u57fa-1,6-\u58ec\u4e8c\u70ef-3-\u9187", "en_name": ["Ethyl linalool", "1,6-Nonadien-3-ol, 3,7-dimethyl-", "3,7-Dimethyl-1,6-nonadien-3-ol", "Methyllinalool", "Ethyl linalool"], "SMILES": "C(CCC=C(CC)C)(C=C)(C)O", "physical_data": {"Molecular Weight": "168.28", "Molecular Formula": "C11H20O", "Boiling Point": "132 \u00b0C @ Press: 86 Torr"}}