{"cas_no": "103321-53-5", "cn_name": "FMOC-\u7f2c\u6c28\u9170\u6c2f", "en_name": ["9H-Fluoren-9-ylmethyl N-[(1S)-1-(chlorocarbonyl)-2-methylpropyl]carbamate", "Carbamic acid, N-[(1S)-1-(chlorocarbonyl)-2-methylpropyl]-, 9H-fluoren-9-ylmethyl ester", "Carbamic acid, [1-(chlorocarbonyl)-2-methylpropyl]-, 9H-fluoren-9-ylmethyl ester, (S)-", "Carbamic acid, [(1S)-1-(chlorocarbonyl)-2-methylpropyl]-, 9H-fluoren-9-ylmethyl ester", "9H-Fluoren-9-ylmethyl N-[(1S)-1-(chlorocarbonyl)-2-methylpropyl]carbamate", "N-(9-Fluorenylmethoxycarbonyl)valyl chloride", "Fmoc-Val-Cl", "(S)-(9H-Fluoren-9-yl)methyl 1-chloro-3-methyl-1-oxobutan-2-ylcarbamate"], "SMILES": "C(OC(NC(C(C)C)C(Cl)=O)=O)C1C=2C(C=3C1=CC=CC3)=CC=CC2", "physical_data": {"Molecular Weight": "357.83", "Molecular Formula": "C20H20ClNO3", "Melting Point": "110-111 \u00b0C"}}