{"cas_no": "10344-69-1", "cn_name": "\u4e19\u4e8c\u9170\u4e9a\u80fa\u4e8c\u4e59\u916f \u4e8c\u76d0\u9178\u76d0", "en_name": ["Propanediimidic acid, 1,3-diethyl ester, hydrochloride (1:2)", "Propanediimidic acid, 1,3-diethyl ester, hydrochloride (1:2)", "Propanediimidic acid, diethyl ester, dihydrochloride", "Malonimidic acid, diethyl ester, dihydrochloride", "Diethyl malonimidate dihydrochloride"], "SMILES": "C(CC(OCC)=N)(OCC)=N.Cl", "physical_data": {"Molecular Weight": "", "Molecular Formula": "C7H14N2O2.2ClH", "Melting Point": "130-138 \u00b0C"}}