{"cas_no": "10342-97-9", "cn_name": "N,N-\u4e8c\u5f02\u4e19\u57fa\u7532\u80fa", "en_name": ["N-Methyl-N-(1-methylethyl)-2-propanamine", "2-Propanamine, N-methyl-N-(1-methylethyl)-", "Diethylamine, N,1,1\u2032-trimethyl-", "N-Methyl-N-(1-methylethyl)-2-propanamine", "Methyldiisopropylamine", "Diisopropylmethylamine", "N,N-Diisopropylmethylamine", "N-Isopropyl-N-methylpropan-2-amine", "N,N-Diisopropylmethylamine"], "SMILES": "N(C(C)C)(C(C)C)C", "physical_data": {"Molecular Weight": "115.22", "Molecular Formula": "C7H17N", "Boiling Point": "109-112 \u00b0C"}}