{"cas_no": "103478-63-3", "cn_name": "Fmoc-N-\u7532\u57fa-D-\u4eae\u6c28\u9178", "en_name": ["N-[(9H-Fluoren-9-ylmethoxy)carbonyl]-N-methyl-D-leucine", "D-Leucine, N-[(9H-fluoren-9-ylmethoxy)carbonyl]-N-methyl-", "N-[(9H-Fluoren-9-ylmethoxy)carbonyl]-N-methyl-D-leucine", "N-(9-Fluorenylmethoxycarbonyl)-N-methyl-D-leucine", "(R)-2-[[[(9H-Fluoren-9-yl)methoxy]carbonyl](methyl)amino]-4-methylpentanoic acid", "(2R)-2-[9H-Fluoren-9-ylmethoxycarbonyl(methyl)amino]-4-methylpentanoic acid"], "SMILES": "C(OC(N(C(CC(C)C)C(O)=O)C)=O)C1C=2C(C=3C1=CC=CC3)=CC=CC2", "physical_data": {"Molecular Weight": "367.44", "Molecular Formula": "C22H25NO4", "Melting Point": "112-114 \u00b0C"}}