{"cas_no": "10342-85-5", "cn_name": "4-\u54cc\u5576\u82ef\u4e59\u916e", "en_name": ["4\u2032-Piperidinoacetophenone", "Ethanone, 1-[4-(1-piperidinyl)phenyl]-", "Acetophenone, 4\u2032-piperidino-", "1-[4-(1-Piperidinyl)phenyl]ethanone", "4\u2032-Piperidinoacetophenone", "4\u2032-(1-Piperidinyl)acetophenone", "1-(p-Acetylphenyl)piperidine", "NSC 102839", "1-[4-(Piperidin-1-yl)phenyl]ethan-1-one"], "SMILES": "C(C)(=O)C1=CC=C(C=C1)N2CCCCC2", "physical_data": {"Molecular Weight": "203.28", "Molecular Formula": "C13H17NO", "Melting Point": "88.5-89.5 \u00b0C"}}