{"cas_no": "10340-91-7", "cn_name": "\u82c4\u5f02\u8148", "en_name": ["Benzyl isocyanide", "Benzene, (isocyanomethyl)-", "Benzyl isocyanide", "(Isocyanomethyl)benzene", "Benzyl isonitrile"], "SMILES": "C([N+]#[C-])C1=CC=CC=C1", "physical_data": {"Molecular Weight": "", "Molecular Formula": "C8H7N", "Boiling Point": "95-97 \u00b0C @ Press: 13 Torr"}}