{"cas_no": "10340-23-5", "cn_name": "\u987a-3-\u58ec\u70ef-1-\u9187", "en_name": ["(Z)-3-Nonen-1-ol", "3-Nonen-1-ol, (3Z)-", "3-Nonen-1-ol, (Z)-", "(3Z)-3-Nonen-1-ol", "cis-3-Nonen-1-ol", "cis-3-Nonenol", "(Z)-3-Nonen-1-ol", "3(Z)-Nonenol", "(Z)-3-Nonen-1-ol", "(3Z)-Non-3-en-1-ol"], "SMILES": "C(C=CCCO)CCCC", "physical_data": {"Molecular Weight": "142.24", "Molecular Formula": "C9H18O", "Boiling Point": "103-104 \u00b0C @ Press: 20 Torr"}}