{"cas_no": "1034439-57-0", "cn_name": "1-\u82c4\u57fa-4-((5,6-\u4e8c\u7532\u6c27\u57fa-2,3-\u4e8c\u6c22-1H-\u831a-2-\u57fa)\u7532\u57fa)\u54cc\u5576\u76d0\u9178\u76d0", "en_name": ["Piperidine, 4-[(2,3-dihydro-5,6-dimethoxy-1H-inden-2-yl)methyl]-1-(phenylmethyl)-, hydrochloride (1:1)", "Piperidine, 4-[(2,3-dihydro-5,6-dimethoxy-1H-inden-2-yl)methyl]-1-(phenylmethyl)-, hydrochloride (1:1)"], "SMILES": "O(C)C=1C=C2C(=CC1OC)CC(CC3CCN(CC4=CC=CC=C4)CC3)C2.Cl", "physical_data": {"Molecular Weight": "", "Molecular Formula": "C24H31NO2.ClH", "Melting Point": "211-213 \u00b0C"}}