{"cas_no": "10347-81-6", "cn_name": "\u76d0\u9178\u9a6c\u666e\u66ff\u6797", "en_name": ["Maprotiline hydrochloride", "9,10-Ethanoanthracene-9(10H)-propanamine, N-methyl-, hydrochloride (1:1)", "9,10-Ethanoanthracene-9(10H)-propylamine, N-methyl-, hydrochloride", "9,10-Ethanoanthracene-9(10H)-propanamine, N-methyl-, hydrochloride", "9,10-Dihydro-9-(3-methylaminopropyl)-9,10-ethanoanthracene hydrochloride", "Ba 34276", "CIBA 34,276Ba", "9-[\u03b3-(Methylamino)propyl]-9,10-dihydro-9,10-ethanoanthracene hydrochloride", "CIBA 34276 hydrochloride", "9,10-Ethanoanthracene-9-propylamine, 9,10-dihydro-N-methyl-, hydrochloride", "Maprotiline hydrochloride", "Ludiomil", "Ladiomil", "Deprilept", "Psymion"], "SMILES": "C(CCNC)C12C=3C(C(C=4C1=CC=CC4)CC2)=CC=CC3.Cl", "physical_data": {"Molecular Weight": "", "Molecular Formula": "C20H23N.ClH", "Melting Point": "230-232 \u00b0C"}}