{"cas_no": "1034-01-1", "cn_name": "\u6ca1\u98df\u5b50\u9178\u8f9b\u916f", "en_name": ["Octyl gallate", "Benzoic acid, 3,4,5-trihydroxy-, octyl ester", "Gallic acid, octyl ester", "Octyl gallate", "Progallin O", "Stabilizer GA 8", "n-Octyl gallate", "Octyl 3,4,5-trihydroxybenzoate", "NSC 97419", "E 311", "PPC 17"], "SMILES": "C(OCCCCCCCC)(=O)C1=CC(O)=C(O)C(O)=C1", "physical_data": {"Molecular Weight": "282.33", "Molecular Formula": "C15H22O5", "Melting Point": "101-104 \u00b0C"}}