{"cas_no": "103440-53-5", "cn_name": "4-\u7898-2-\u7532\u57fa\u82ef\u7532\u9178\u7532\u916f", "en_name": ["Benzoic acid, 4-iodo-2-methyl-, methyl ester", "Benzoic acid, 4-iodo-2-methyl-, methyl ester", "o-Toluic acid, 4-iodo-, methyl ester", "Methyl 4-iodo-2-methylbenzoate"], "SMILES": "C(OC)(=O)C1=C(C)C=C(I)C=C1", "physical_data": {"Molecular Weight": "276.07", "Molecular Formula": "C9H9IO2", "Boiling Point": "155 \u00b0C @ Press: 17 Torr"}}