{"cas_no": "10349-57-2", "cn_name": "\u55b9\u5549-6-\u7fa7\u9178", "en_name": ["6-Quinolinecarboxylic acid", "6-Quinolinecarboxylic acid", "6-Carboxyquinoline"], "SMILES": "C(O)(=O)C1=CC2=C(C=C1)N=CC=C2", "physical_data": {"Molecular Weight": "173.17", "Molecular Formula": "C10H7NO2", "Melting Point": "291 \u00b0C"}}