{"cas_no": "1034-49-7", "cn_name": "\u6eb4\u7532\u57fa\u4e09\u82ef\u57fa\u6eb4\u5316\u78f7", "en_name": ["Phosphonium, (bromomethyl)triphenyl-, bromide (1:1)", "Phosphonium, (bromomethyl)triphenyl-, bromide (1:1)", "Phosphonium, (bromomethyl)triphenyl-, bromide", "Bromomethyltriphenylphosphonium bromide", "NSC 193751"], "SMILES": "[P+](CBr)(C1=CC=CC=C1)(C2=CC=CC=C2)C3=CC=CC=C3.[Br-]", "physical_data": {"Molecular Weight": "", "Molecular Formula": "C19H17BrP.Br", "Melting Point": "195-225 \u00b0C"}}