{"cas_no": "10347-88-3", "cn_name": "3-\u53d4\u4e01\u57fa\u5df1\u4e8c\u9178", "en_name": ["3-(1,1-Dimethylethyl)hexanedioic acid", "Hexanedioic acid, 3-(1,1-dimethylethyl)-", "Hexanedioic acid, 3-tert-butyl-", "3-(1,1-Dimethylethyl)hexanedioic acid", "3-tert-Butyladipic acid", "3-tert-Butyl-1,6-hexanedioic acid", "3-tert-Butylhexanedioic acid", "NSC 158330"], "SMILES": "C(CCC(O)=O)(CC(O)=O)C(C)(C)C", "physical_data": {"Molecular Weight": "202.25", "Molecular Formula": "C10H18O4", "Melting Point": "117 \u00b0C"}}