{"cas_no": "103475-41-8", "cn_name": "\u66ff\u6cca\u6c99\u6797", "en_name": ["Tepoxalin", "1H-Pyrazole-3-propanamide, 5-(4-chlorophenyl)-N-hydroxy-1-(4-methoxyphenyl)-N-methyl-", "5-(4-Chlorophenyl)-N-hydroxy-1-(4-methoxyphenyl)-N-methyl-1H-pyrazole-3-propanamide", "Tepoxalin", "ORF 20485", "RWJ 20485", "Zubrin"], "SMILES": "C(CC(N(C)O)=O)C1=NN(C(=C1)C2=CC=C(Cl)C=C2)C3=CC=C(OC)C=C3", "physical_data": {"Molecular Weight": "385.84", "Molecular Formula": "C20H20ClN3O3", "Melting Point": "125-126 \u00b0C"}}