{"cas_no": "103429-90-9", "cn_name": "3-\u7532\u6c27\u57fa-3-\u7532\u57fa-1-\u918b\u9178\u4e01\u916f", "en_name": ["1-Butanol, 3-methoxy-3-methyl-, 1-acetate", "1-Butanol, 3-methoxy-3-methyl-, 1-acetate", "1-Butanol, 3-methoxy-3-methyl-, acetate", "3-Methyl-3-methoxybutyl acetate", "3-Methoxy-3-methylbutyl acetate", "1-Acetoxy-3-methoxy-3-methylbutane", "3-Methyl-3-methoxy-1-butyl acetate", "Solfit AC", "3-Methoxy-3-methyl-1-butanol acetate", "3-Methoxy-3-methyl-1-butyl acetate"], "SMILES": "C(CCOC(C)=O)(OC)(C)C", "physical_data": {"Molecular Weight": "160.21", "Molecular Formula": "C8H16O3", "Boiling Point": "188 \u00b0C"}}