{"cas_no": "10344-94-2", "cn_name": "4-\u785d\u57fa\u82ef\u57fa \u03b2-D-\u8461\u7cd6\u82f7\u9178", "en_name": ["p-Nitrophenyl \u03b2-D-glucuronide", "\u03b2-D-Glucopyranosiduronic acid, 4-nitrophenyl", "Glucopyranosiduronic acid, p-nitrophenyl, \u03b2-D-", "Glucopyranosiduronic acid, p-nitrophenyl", "4-Nitrophenyl \u03b2-D-glucopyranosiduronic acid", "p-Nitrophenyl \u03b2-D-glucosiduronic acid", "p-Nitrophenyl glucuronide", "p-Nitrophenyl \u03b2-glucuronic acid", "p-Nitrophenol glucuronide", "p-Nitrophenyl \u03b2-D-glucuronide", "p-Nitrophenyl \u03b2-D-glucopyranosiduronic acid", "p-Nitrophenol \u03b2-D-glucuronide", "p-Nitrophenol \u03b2-glucuronide", "4-Nitrophenyl glucuronide", "p-Nitrophenyl glucuronic acid", "4-Nitrophenyl \u03b2-D-glucopyranosiduronate", "4-Nitrophenol glucuronide", "p-Nitrophenyl D-glucopyranosiduronic acid", "4-Nitrophenyl \u03b2-D-glucosiduronic acid", "p-Nitrophenyl glucosiduronic acid", "4-Nitrophenyl \u03b2-D-glucuronide", "p-Nitrophenyl \u03b2-glucuronide"], "SMILES": "O(C1OC(C(O)=O)C(O)C(O)C1O)C2=CC=C(N(=O)=O)C=C2", "physical_data": {"Molecular Weight": "315.23", "Molecular Formula": "C12H13NO9", "Melting Point": "137-139 \u00b0C"}}