{"cas_no": "10342-83-3", "cn_name": "4'-\u6eb4\u82ef\u4e19\u916e", "en_name": ["4\u2032-Bromopropiophenone", "1-Propanone, 1-(4-bromophenyl)-", "Propiophenone, 4\u2032-bromo-", "1-(4-Bromophenyl)-1-propanone", "p-Bromopropiophenone", "4\u2032-Bromopropiophenone", "NSC 83574", "4-Bromophenyl ethyl ketone", "1-(4-Bromophenyl)propanone", "Ethyl 4-bromophenyl ketone"], "SMILES": "C(CC)(=O)C1=CC=C(Br)C=C1", "physical_data": {"Molecular Weight": "213.07", "Molecular Formula": "C9H9BrO", "Boiling Point": "137-140 \u00b0C @ Press: 2 Torr", "Melting Point": "48 \u00b0C"}}