{"cas_no": "10348-47-7", "cn_name": "DL-2-\u7f9f\u57fa-4-\u7532\u57fa\u620a\u9178\u4e59\u916f", "en_name": ["Ethyl 2-hydroxy-4-methylpentanoate", "Pentanoic acid, 2-hydroxy-4-methyl-, ethyl ester", "Valeric acid, 2-hydroxy-4-methyl-, ethyl ester", "Ethyl 2-hydroxyisocaproate", "Ethyl 2-hydroxy-4-methylpentanoate", "Ethyl 2-hydroxy-4-methylvalerate", "Ethyl 2-hydroxy-iso-hexanoate", "Ethyl leucate"], "SMILES": "C(C(OCC)=O)(CC(C)C)O", "physical_data": {"Molecular Weight": "160.21", "Molecular Formula": "C8H16O3", "Boiling Point": "80-81 \u00b0C @ Press: 16 Torr"}}