{"cas_no": "10342-60-6", "cn_name": "4-\u785d\u57fa\u5f02\u4e01\u57fa\u82ef", "en_name": ["1-(2-Methylpropyl)-4-nitrobenzene", "Benzene, 1-(2-methylpropyl)-4-nitro-", "Benzene, 1-isobutyl-4-nitro-", "1-(2-Methylpropyl)-4-nitrobenzene", "4-Nitroisobutylbenzene", "p-(2-Methylpropyl)nitrobenzene", "1-Isobutyl-4-nitrobenzene", "4-Isobutylnitrobenzene", "p-Isobutylnitrobenzene"], "SMILES": "C(C(C)C)C1=CC=C(N(=O)=O)C=C1", "physical_data": {"Molecular Weight": "179.22", "Molecular Formula": "C10H13NO2", "Boiling Point": "125-126 \u00b0C @ Press: 3 Torr", "Melting Point": "-34 \u00b0C", "Density": "1.0774 g/cm\u00b3 @ Temp: 4 \u00b0C"}}