{"cas_no": "10356-76-0", "cn_name": "5-\u6c1f\u8131\u6c27\u80de\u82f7", "en_name": ["5-Fluoro-2\u2032-deoxycytidine", "Cytidine, 2\u2032-deoxy-5-fluoro-", "2\u2032-Deoxy-5-fluorocytidine", "5-Fluoro-2\u2032-deoxycytidine", "Ro 5-1090", "5-Fluorodeoxycytidine", "NSC 48006"], "SMILES": "O=C1N(C2OC(CO)C(O)C2)C=C(F)C(N)=N1", "physical_data": {"Molecular Weight": "245.21", "Molecular Formula": "C9H12FN3O4", "Melting Point": "163 \u00b0C"}}