{"cas_no": "103577-40-8", "cn_name": "\u5170\u7d22\u62c9\u5511\u786b\u919a", "en_name": ["Lansoprazole sulfide", "1H-Benzimidazole, 2-[[[3-methyl-4-(2,2,2-trifluoroethoxy)-2-pyridinyl]methyl]thio]-", "2-[[[3-Methyl-4-(2,2,2-trifluoroethoxy)-2-pyridinyl]methyl]thio]-1H-benzimidazole", "AG 1777", "H 225/18", "K 1252", "2-[[[3-Methyl-4-(2,2,2-trifluoroethoxy)-2-pyridyl]methyl]thio]-1H-benzimidazole", "2-[[[3-Methyl-4-(2,2,2-trifluoroethoxy)-2-pyridyl]methyl]thio]benzimidazole", "Lansoprazole sulfide", "2-[[3-Methyl-4-(2,2,2-trifluoroethoxy)-2-pyridinyl]thio]-1H-benzimidazole", "2-[[(3-Methyl-4-(2,2,2-trifluoroethoxy)pyridin-2-yl)methyl]thio]-1H-benzo[d]imidazole", "2-[[3-Methyl-4-(2,2,2-trifluoroethoxy)pyridin-2-yl]methylsulfanyl]-1H-benzimidazole"], "SMILES": "S(CC1=C(C)C(OCC(F)(F)F)=CC=N1)C=2NC=3C(N2)=CC=CC3", "physical_data": {"Molecular Weight": "353.36", "Molecular Formula": "C16H14F3N3OS", "Melting Point": "111-116 \u00b0C"}}