{"cas_no": "10351-06-1", "cn_name": "2,3,5,6-\u56db\u6c2f-4-\u5421\u5576\u786b\u9187", "en_name": ["2,3,5,6-Tetrachloro-4-pyridinethiol", "4-Pyridinethiol, 2,3,5,6-tetrachloro-", "2,3,5,6-Tetrachloro-4-pyridinethiol", "2,3,5,6-Tetrachloro-4-mercaptopyridine", "2,3,5,6-Tetrachloro-4-pyridyl mercaptan", "Tetrachloropyridine-4-thiol", "2,3,5,6-Tetrachloro-1H-pyridine-4-thione"], "SMILES": "ClC=1C(S)=C(Cl)C(Cl)=NC1Cl", "physical_data": {"Molecular Weight": "248.95", "Molecular Formula": "C5HCl4NS", "Melting Point": "164-165 \u00b0C"}}