{"cas_no": "10351-88-9", "cn_name": "1,1'-[(2S,3S)-2,3-\u53cc(\u7532\u6c27\u57fa\u7532\u57fa)-1,4-\u4e01\u4e8c\u57fa]\u53cc[3,4-\u4e8c\u7532\u6c27\u57fa\u82ef]", "en_name": ["Phyllanthin", "Benzene, 1,1\u2032-[(2S,3S)-2,3-bis(methoxymethyl)-1,4-butanediyl]bis[3,4-dimethoxy-", "Phyllanthin", "Benzene, 1,1\u2032-[2,3-bis(methoxymethyl)-1,4-butanediyl]bis[3,4-dimethoxy-, [S-(R*,R*)]-", "Butane, 1,4-dimethoxy-2,3-diveratryl-, (2S,3S)-(+)-", "1,1\u2032-[(2S,3S)-2,3-Bis(methoxymethyl)-1,4-butanediyl]bis[3,4-dimethoxybenzene]", "NSC 619043"], "SMILES": "C(C(CC1=CC(OC)=C(OC)C=C1)COC)(CC2=CC(OC)=C(OC)C=C2)COC", "physical_data": {"Molecular Weight": "418.52", "Molecular Formula": "C24H34O6", "Melting Point": "167 \u00b0C (decomp)"}}