{"cas_no": "1035-77-4", "cn_name": "17\u0392-\u7f9f\u57fa-3-\u7532\u6c27\u57fa-1,3,5(10)-\u96cc\u4e09\u70ef", "en_name": ["Estradiol 3-methyl ether", "Estra-1,3,5(10)-trien-17-ol, 3-methoxy-, (17\u03b2)-", "Estra-1,3,5(10)-trien-17\u03b2-ol, 3-methoxy-", "(17\u03b2)-3-Methoxyestra-1,3,5(10)-trien-17-ol", "Estradiol 3-methyl ether", "3-Methoxy-17\u03b2-hydroxyestra-1,3,5(10)-triene", "3-Methoxyoestra-1,3,5(10)-trien-17\u03b2-ol", "17\u03b2-Estradiol 3-methyl ether", "17\u03b2-Hydroxy-3-methoxyestra-1,3,5(10)-triene", "3-Methoxyestra-1,3,5(10)-triene-3,17\u03b2-diol", "3-Methoxyestra-1,3,5(10)-trien-17\u03b2-ol", "3-Methoxyestra-1,3,5(10)-triene-17\u03b2-ol", "3-O-Methylestradiol", "3-Methoxyestradiol", "3-Methoxy-13\u03b2-methyl-1,3,5(10)-gonatrien-17\u03b2-ol", "NSC 58851"], "SMILES": "CC12C(C3C(C=4C(CC3)=CC(OC)=CC4)CC1)CCC2O", "physical_data": {"Molecular Weight": "286.41", "Molecular Formula": "C19H26O2", "Melting Point": "120-121 \u00b0C"}}