{"cas_no": "1035235-27-8", "cn_name": "4-\u6eb4\u5f02\u5432\u54da\u5549-2-\u78b3\u9178\u53d4\u4e01\u916f", "en_name": ["1,1-Dimethylethyl 4-bromo-1,3-dihydro-2H-isoindole-2-carboxylate", "2H-Isoindole-2-carboxylic acid, 4-bromo-1,3-dihydro-, 1,1-dimethylethyl ester", "1,1-Dimethylethyl 4-bromo-1,3-dihydro-2H-isoindole-2-carboxylate", "tert-Butyl 4-bromo-1,3-dihydro-2H-isoindole-2-carboxylate", "tert-Butyl 4-bromoisoindoline-2-carboxylate", "4-Bromoisoindoline-2-carboxylic acid tert-butyl ester"], "SMILES": "BrC1=C2C(CN(C(OC(C)(C)C)=O)C2)=CC=C1", "physical_data": {"Molecular Weight": "298.18", "Molecular Formula": "C13H16BrNO2", "Melting Point": "92.5-93 \u00b0C"}}