{"cas_no": "10357-27-4", "cn_name": "4-\u785d\u57fa\u82ef\u57fa-\u0391-D-\u5421\u5583\u7518\u9732\u7cd6\u82f7", "en_name": ["p-Nitrophenyl \u03b1-D-mannopyranoside", "\u03b1-D-Mannopyranoside, 4-nitrophenyl", "Mannopyranoside, p-nitrophenyl, \u03b1-D-", "Mannopyranoside, p-nitrophenyl", "4-Nitrophenyl \u03b1-D-mannopyranoside", "p-Nitrophenyl \u03b1-D-mannopyranoside", "p-Nitrophenyl \u03b1-mannoside", "4\u2032-Nitrophenyl \u03b1-D-mannopyranoside"], "SMILES": "O(C1C(O)C(O)C(O)C(CO)O1)C2=CC=C(N(=O)=O)C=C2", "physical_data": {"Molecular Weight": "301.25", "Molecular Formula": "C12H15NO8", "Melting Point": "174 \u00b0C"}}