{"cas_no": "103577-45-3", "cn_name": "\u5170\u7d22\u62c9\u5511", "en_name": ["Lansoprazole", "1H-Benzimidazole, 2-[[[3-methyl-4-(2,2,2-trifluoroethoxy)-2-pyridinyl]methyl]sulfinyl]-", "2-[[[3-Methyl-4-(2,2,2-trifluoroethoxy)-2-pyridinyl]methyl]sulfinyl]-1H-benzimidazole", "AG 1749", "Lansoprazole", "A 65006", "(\u00b1)-Lansoprazole", "Prevacid", "PP/K-10", "Lanfast", "Lanzor", "2-[[[3-Methyl-4-(2,2,2-trifluoroethoxy)-2-pyridyl]methyl]sulfinyl]-1H-benzimidazole", "Ilsatec", "Agopton", "Lanproton", "Lansopep", "Lanston", "Lanz", "Lanzol 30", "Lanzopral", "Ogastro", "Promp", "Prosogan", "Suprecid", "Takepron", "Ulpax", "Zoton", "Ketian", "Lancid", "Ogast", "Lansophed", "Lapraz", "Lansox", "Takepron OD", "Tapepron", "2-[[[3-Methyl-4-(2,2,2-trifluoroethoxy)-2-pyridyl]methyl]sulfinyl]benzimidazole", "Lansor", "Lanzol", "Lansofast", "Propilan", "Lanzole", "Lanzopen", "2-[[[4-(2,2,2-Trifluoroethoxy)-3-methylpyridin-2-yl]methyl]sulfinyl]-1H-benzimidazole", "Lanpro", "2-(((3-Methyl-4-(2,2,2-trifluoroethoxy)pyridin-2-yl)methyl)sulfinyl)-1H-benzimidazole", "Lanzo", "Cinfa", "Davur", "Alter", "Lanso", "(\u00b1)-Lansoprazol", "Levant", "RS-lansoprazole", "Lasoprazole", "2-(((3-Methyl-4-(2,2,2-trifluoroethoxy)pyridin-2-yl)methyl)sulfinyl)-1H-benzo[d]imidazole", "2-[3-Methyl-4-(2,2,2-trifluoro-ethoxy)-pyridin-2-ylmethanesulfinyl]-1H-benzoimidazole", "MeSH ID: D064747"], "SMILES": "S(CC1=C(C)C(OCC(F)(F)F)=CC=N1)(=O)C=2NC=3C(N2)=CC=CC3", "physical_data": {"Molecular Weight": "369.36", "Molecular Formula": "C16H14F3N3O2S", "Melting Point": "178-182 \u00b0C (decomp)"}}