{"cas_no": "10353-53-4", "cn_name": "1,2-\u73af\u6c27\u57fa-5-\u5df1\u70ef", "en_name": ["2-(3-Buten-1-yl)oxirane", "Oxirane, 2-(3-buten-1-yl)-", "1-Hexene, 5,6-epoxy-", "Oxirane, 3-butenyl-", "2-(3-Buten-1-yl)oxirane", "5,6-Epoxy-1-hexene", "Diallyl monooxide", "Diallyl monoxide", "2-(3-Butenyl)oxirane", "1,2-Epoxy-5-hexene", "3-Butenyloxirane", "\u03c9-Butenyloxirane"], "SMILES": "C(CC=C)C1CO1", "physical_data": {"Molecular Weight": "98.14", "Molecular Formula": "C6H10O", "Boiling Point": "119-121 \u00b0C"}}