{"cas_no": "10355-53-0", "cn_name": "4-\u785d\u57fa-4-\u4e09\u8054\u82ef", "en_name": ["4-Nitro-p-terphenyl", "1,1\u2032:4\u2032,1\u2032\u2032-Terphenyl, 4-nitro-", "p-Terphenyl, 4-nitro-", "4-Nitro-1,1\u2032:4\u2032,1\u2032\u2032-terphenyl", "4-Nitro-p-terphenyl", "NSC 506434"], "SMILES": "N(=O)(=O)C1=CC=C(C2=CC=C(C=C2)C3=CC=CC=C3)C=C1", "physical_data": {"Molecular Weight": "275.30", "Molecular Formula": "C18H13NO2", "Melting Point": "211 \u00b0C"}}