{"cas_no": "1035-69-4", "cn_name": "\u96c4\u753e-4,9(11)-\u4e8c\u70ef-3,17-\u4e8c\u916e", "en_name": ["Androsta-4,9(11)-diene-3,17-dione", "Androsta-4,9(11)-diene-3,17-dione", "9(11)-Dehydroandrostenedione", "NSC 44826", "9-Dehydroandrostenedione"], "SMILES": "CC12C=3C(C4C(C)(CC3)C(=O)CC4)CCC1=CC(=O)CC2", "physical_data": {"Molecular Weight": "284.39", "Molecular Formula": "C19H24O2", "Melting Point": "202-204 \u00b0C"}}