{"cas_no": "10351-19-6", "cn_name": "4-\u5421\u5576\u5def\u57fa\u4e59\u9178", "en_name": ["2-(4-Pyridinylthio)acetic acid", "Acetic acid, 2-(4-pyridinylthio)-", "Acetic acid, (4-pyridylthio)-", "Acetic acid, (4-pyridinylthio)-", "2-(4-Pyridinylthio)acetic acid", "4-[(Carboxymethyl)thio]pyridine", "4-Pyridylthioacetic acid", "4-Pyridinylthioacetic acid", "4-Pyridinylsulfanylacetic acid", "4-Pyridylmercaptoacetic acid", "2-(Pyridin-4-ylsulfanyl)acetic acid", "2-Pyridin-4-ylsulfanylacetic acid"], "SMILES": "S(CC(O)=O)C=1C=CN=CC1", "physical_data": {"Molecular Weight": "169.20", "Molecular Formula": "C7H7NO2S", "Melting Point": "270 \u00b0C (decomp)"}}