{"cas_no": "10354-00-4", "cn_name": "5H-\u4e8c\u82ef\u5e76[\u0391,D]\u73af\u5e9a\u4e09\u70ef-5-\u9187", "en_name": ["5H-Dibenzo[a,d]cyclohepten-5-ol", "5H-Dibenzo[a,d]cyclohepten-5-ol", "5-Hydroxy-5H-dibenzo[a,d]cycloheptene", "Dibenzosuberenol", "5-Dibenzosuberenol", "NSC 84190"], "SMILES": "OC1C=2C(C=CC=3C1=CC=CC3)=CC=CC2", "physical_data": {"Molecular Weight": "208.26", "Molecular Formula": "C15H12O", "Melting Point": "98 \u00b0C"}}