{"cas_no": "103577-66-8", "cn_name": "\u5170\u7d22\u62c9\u5511\u7f9f\u57fa\u7269", "en_name": ["3-Methyl-4-(2,2,2-trifluoroethoxy)-2-pyridinemethanol", "2-Pyridinemethanol, 3-methyl-4-(2,2,2-trifluoroethoxy)-", "3-Methyl-4-(2,2,2-trifluoroethoxy)-2-pyridinemethanol", "2-Hydroxymethyl-3-methyl-4-(2,2,2-trifluoroethoxy)pyridine", "[3-Methyl-4-(2,2,2-trifluoroethoxy)pyridin-2-yl]methanol", "2-Hydroxymethyl-3-methyl-4-trifluoroethoxypyridine"], "SMILES": "O(CC(F)(F)F)C=1C(C)=C(CO)N=CC1", "physical_data": {"Molecular Weight": "221.18", "Molecular Formula": "C9H10F3NO2", "Melting Point": "93-94 \u00b0C"}}