{"cas_no": "103597-45-1", "cn_name": "\u7d2b\u5916\u5149\u5438\u6536\u5242 UV-360", "en_name": ["2,2\u2032-Methylenebis[6-(2H-benzotriazol-2-yl)-4-(1,1,3,3-tetramethylbutyl)phenol]", "Phenol, 2,2\u2032-methylenebis[6-(2H-benzotriazol-2-yl)-4-(1,1,3,3-tetramethylbutyl)-", "2,2\u2032-Methylenebis[6-(2H-benzotriazol-2-yl)-4-(1,1,3,3-tetramethylbutyl)phenol]", "2,2\u2032-Methylenebis[4-(1,1,3,3-tetramethylbutyl)-6-benzotriazolylphenol]", "Mark LA 31", "Mixxim BB 100", "ADK Stab LA 31", "LA 31", "2,2\u2032-Methylenebis[4-(1,1,3,3-tetramethylbutyl)-6-(2H-benzotriazol-2-yl)phenol]", "Tinuvin 360", "2,2\u2032-Methylenebis[6-(2-benzotriazolyl)-4-(1,1,3,3-tetramethylbutyl)phenol]", "Bis[2-hydroxy-5-tert-octyl-3-(benzotriazol-2-yl)phenyl]methane", "Tinosorb M", "Methylenebis(2-hydroxy-3-(benzotriazol-2-yl)-5-tert-octylphenyl)", "Bisoctyltriazole", "Bisoctrizole", "MBBT", "FAT 75\u2032634", "2,2\u2032-Methylenebis[4-(1,1,3,3-tetramethylbutyl)-6-benzotriazol-2-ylphenol]", "Eversorb 78", "Mixxim ADK LA 31", "JF 832", "UV 360", "2,2\u2032-Methylenebis[6-(2H-benzotriazol-2-yl)-4-tert-octylphenol]", "Chiguard 5431", "ADK Stab LA 31RG", "LA 31RG", "ADK Stab LA 31R", "ADK-ARKLS LA 31", "ZINC 11677911", "2,2\u2032-Methylenebis(4-tert-octyl-6-benzotriazol-2-ylphenol)", "Kemisorb 279", "2,2\u2032-Methylenebis[6-(2H-benzotriazole-2-yl)-4-tert-octylphenol]", "Bis[2-hydroxy-5-tert-octyl-3-(benzotriazole-2-yl)phenyl]methane", "Tinuvin 360ED", "Tinuvin 5431", "UV 5431", "UC 3125", "Adeka Nol UC 3125", "Chisorb 5431", "2,2\u2032-Methylene-bis-(6-(2H-benzotriazol-2-yl)-4-(1,1,3,3-tetramethylbutyl)phenol)", "T 360", "Parsol Max", "Adeka Stab LA 31"], "SMILES": "OC=1C(N2N=C3C(=N2)C=CC=C3)=CC(C(CC(C)(C)C)(C)C)=CC1CC4=C(O)C(=CC(C(CC(C)(C)C)(C)C)=C4)N5N=C6C(=N5)C=CC=C6", "physical_data": {"Molecular Weight": "658.87", "Molecular Formula": "C41H50N6O2", "Melting Point": "200 \u00b0C"}}