{"cas_no": "10361-39-4", "cn_name": "\u620a\u9178\u82c4\u916f", "en_name": ["Benzyl pentanoate", "Pentanoic acid, phenylmethyl ester", "Valeric acid, benzyl ester", "Benzyl valerate", "Benzyl valerianate", "Benzyl pentanoate", "Phenylmethyl pentanoate", "Phenylmethyl valerate"], "SMILES": "C(OC(CCCC)=O)C1=CC=CC=C1", "physical_data": {"Molecular Weight": "192.25", "Molecular Formula": "C12H16O2", "Boiling Point": "64 \u00b0C @ Press: 15 Torr", "Melting Point": "-34 \u00b0C"}}