{"cas_no": "103628-46-2", "cn_name": "\u8212\u9a6c\u66f2\u5766", "en_name": ["Sumatriptan", "1H-Indole-5-methanesulfonamide, 3-[2-(dimethylamino)ethyl]-N-methyl-", "3-[2-(Dimethylamino)ethyl]-N-methyl-1H-indole-5-methanesulfonamide", "Sumatriptan", "GR 43175X", "GR 43175", "Zelrix", "3-[2-(Dimethylamino)ethyl]-N-methylindolyl-5-methanesulfonamide", "Onzetra Xsail", "Zecuity", "1-[3-[2-(Dimethylamino)ethyl]-1H-indol-5-yl]-N-methylmethanesulfonamide", "Alsuma", "Sumavel DosePro", "MeSH ID: D018170"], "SMILES": "C(CN(C)C)C=1C=2C(NC1)=CC=C(CS(NC)(=O)=O)C2", "physical_data": {"Molecular Weight": "295.40", "Molecular Formula": "C14H21N3O2S", "Melting Point": "169-171 \u00b0C"}}