{"cas_no": "10365-94-3", "cn_name": "1,3,5-\u82ef\u4e09\u6c30\u57fa", "en_name": ["1,3,5-Benzenetricarbonitrile", "1,3,5-Benzenetricarbonitrile", "Trimesonitrile", "1,3,5-Benzenetrinitrile", "1,3,5-Tricyanobenzene", "sym-Tricyanobenzene", "Mesitylenetrinitrile"], "SMILES": "C(#N)C1=CC(C#N)=CC(C#N)=C1", "physical_data": {"Molecular Weight": "153.14", "Molecular Formula": "C9H3N3", "Melting Point": "261-263 \u00b0C"}}