{"cas_no": "10361-79-2", "cn_name": "\u6c2f\u5316\u9568", "en_name": ["Praseodymium chloride", "Praseodymium chloride (PrCl3)", "Praseodymium(III) chloride", "Praseodymium chloride", "Praseodymium trichloride", "Praseodymium(3+) chloride", "NSC 621598", "NSC 84276"], "SMILES": "[Pr](Cl)(Cl)Cl", "physical_data": {"Molecular Weight": "", "Molecular Formula": "Cl3Pr", "Melting Point": "785 \u00b0C"}}