{"cas_no": "10361-82-7", "cn_name": "\u6c2f\u5316\u9490", "en_name": ["Samarium trichloride", "Samarium chloride (SmCl3)", "Samarium trichloride", "Samarium chloride", "Samarium(III) chloride", "NSC 84277"], "SMILES": "[Sm](Cl)(Cl)Cl", "physical_data": {"Molecular Weight": "", "Molecular Formula": "Cl3Sm", "Melting Point": "677 \u00b0C", "Density": "4.31 g/cm\u00b3 @ Temp: 25 \u00b0C"}}