{"cas_no": "103628-48-4", "cn_name": "\u7425\u73c0\u9178\u8212\u9a6c\u66f2\u5766", "en_name": ["Sumatriptan succinate", "Butanedioic acid, compd. with 3-[2-(dimethylamino)ethyl]-N-methyl-1H-indole-5-methanesulfonamide (1:1)", "1H-Indole-5-methanesulfonamide, 3-[2-(dimethylamino)ethyl]-N-methyl-, butanedioate (1:1)", "Sumatriptan succinate", "GR 43175C", "Imigran", "Imitrex", "Imigrane", "Sumitrex", "Migragesin", "Megrelan", "Imiject", "Treximet", "Sumagraine", "Suminat", "1-[3-[2-(Dimethylamino)ethyl]-1H-indol-5-yl]-N-methylmethanesulfonamide", "butanedioic acid"], "SMILES": "C(CC(O)=O)C(O)=O.C(CN(C)C)C=1C=2C(NC1)=CC=C(CS(NC)(=O)=O)C2", "physical_data": {"Molecular Weight": "", "Molecular Formula": "C14H21N3O2S.C4H6O4", "Melting Point": "165-166 \u00b0C"}}