{"cas_no": "10366-35-5", "cn_name": "2-\u6c2f\u70df\u9170\u80fa", "en_name": ["2-Chloronicotinamide", "3-Pyridinecarboxamide, 2-chloro-", "Nicotinamide, 2-chloro-", "2-Chloro-3-pyridinecarboxamide", "2-Chloronicotinamide"], "SMILES": "C(N)(=O)C1=C(Cl)N=CC=C1", "physical_data": {"Molecular Weight": "156.57", "Molecular Formula": "C6H5ClN2O", "Melting Point": "163-164 \u00b0C"}}