{"cas_no": "10361-92-9", "cn_name": "\u6c2f\u5316\u9487", "en_name": ["Yttrium trichloride", "Yttrium chloride (YCl3)", "Yttrium trichloride", "Yttrium chloride (Y2Cl6)", "Yttrium chloride", "Yttrium(III) chloride"], "SMILES": "[Y](Cl)(Cl)Cl", "physical_data": {"Molecular Weight": "", "Molecular Formula": "Cl3Y", "Boiling Point": "1488 \u00b0C", "Melting Point": "360 \u00b0C"}}