{"cas_no": "10361-03-2", "cn_name": "\u504f\u78f7\u9178\u94a0", "en_name": ["Sodium phosphate (NaPO3)", "Metaphosphoric acid (HPO3), sodium salt (1:1)", "Metaphosphoric acid (HPO3), sodium salt", "Sodium metaphosphate (Na(PO3))", "Graham's salt", "Metafos", "Sodium metaphosphate", "Sodium phosphate (NaPO3)", "Kurrol's salt", "Maddrell's salt", "Sporix", "Sodium Kurrol's salt"], "SMILES": "P(=O)(=O)O.[Na]", "physical_data": {"Molecular Weight": "", "Molecular Formula": "HO3P.Na", "Melting Point": "610 \u00b0C", "Density": "2.5 g/cm\u00b3"}}