{"cas_no": "10365-98-7", "cn_name": "3-\u7532\u6c27\u57fa\u82ef\u787c\u9178", "en_name": ["(3-Methoxyphenyl)boronic acid", "Boronic acid, B-(3-methoxyphenyl)-", "Benzeneboronic acid, m-methoxy-", "Boronic acid, (3-methoxyphenyl)-", "B-(3-Methoxyphenyl)boronic acid", "m-Anisylboronic acid", "m-Methoxybenzeneboronic acid", "(3-Methoxyphenyl)boronic acid", "(m-Methoxyphenyl)boronic acid", "3-Methoxybenzeneboronic acid"], "SMILES": "B(O)(O)C1=CC(OC)=CC=C1", "physical_data": {"Molecular Weight": "151.96", "Molecular Formula": "C7H9BO3", "Melting Point": "158-162 \u00b0C"}}