{"cas_no": "1036027-54-9", "cn_name": "5-\u4e09\u6c1f\u7532\u57fa-1H-\u5421\u5511\u5e76[2,3-B]\u5421\u5576", "en_name": ["5-(Trifluoromethyl)-1H-pyrrolo[2,3-b]pyridine", "1H-Pyrrolo[2,3-b]pyridine, 5-(trifluoromethyl)-", "5-(Trifluoromethyl)-1H-pyrrolo[2,3-b]pyridine"], "SMILES": "C(F)(F)(F)C=1C=C2C(=NC1)NC=C2", "physical_data": {"Molecular Weight": "186.13", "Molecular Formula": "C8H5F3N2", "Melting Point": "104-105 \u00b0C"}}