{"cas_no": "10364-94-0", "cn_name": "N-\u82ef\u7532\u9170\u57fa\u54aa\u5511", "en_name": ["1H-Imidazol-1-ylphenylmethanone", "Methanone, 1H-imidazol-1-ylphenyl-", "Imidazole, 1-benzoyl-", "1H-Imidazole, 1-benzoyl-", "1H-Imidazol-1-ylphenylmethanone", "N-Benzoylimidazole", "1-Benzoylimidazole", "1-Benzoyl-1H-imidazole"], "SMILES": "C(=O)(N1C=CN=C1)C2=CC=CC=C2", "physical_data": {"Molecular Weight": "172.18", "Molecular Formula": "C10H8N2O", "Melting Point": "19-20 \u00b0C"}}