{"cas_no": "10361-44-1", "cn_name": "\u785d\u9178\u94cb", "en_name": ["Bismuth nitrate", "Nitric acid, bismuth(3+) salt (3:1)", "Nitric acid, bismuth(3+) salt", "Bismuth nitrate (Bi(NO3)3)", "Bismuth trinitrate", "Bismuth(III) nitrate", "Bismuth nitrate", "Bismuth(3+) nitrate"], "SMILES": "N(=O)(=O)O.[Bi]", "physical_data": {"Molecular Weight": "", "Molecular Formula": "Bi.3HNO3", "Melting Point": "845 \u00b0C"}}