{"cas_no": "10366-05-9", "cn_name": "\u4e8c\u6c2f\u5bf9\u4e8c\u7532\u82ef\u4e8c\u805a\u4f53", "en_name": ["5,11-Dichlorotricyclo[8.2.2.24,7]hexadeca-4,6,10,12,13,15-hexaene", "Tricyclo[8.2.2.24,7]hexadeca-4,6,10,12,13,15-hexaene, 5,11-dichloro-", "5,11-Dichlorotricyclo[8.2.2.24,7]hexadeca-4,6,10,12,13,15-hexaene", "Dichlorodi-p-xylylene", "Galxyl C", "6,12-Dichlorobis(p-xylylene)"], "SMILES": "ClC=1C=2CCC=3C=C(Cl)C(CCC(C1)=CC2)=CC3", "physical_data": {"Molecular Weight": "277.19", "Molecular Formula": "C16H14Cl2", "Melting Point": "163-165 \u00b0C"}}