{"cas_no": "1036-72-2", "cn_name": "5,7-\u4e8c\u7532\u6c27\u57fa\u78fa\u70f7\u916e", "en_name": ["5,7-Dimethoxyflavanone", "4H-1-Benzopyran-4-one, 2,3-dihydro-5,7-dimethoxy-2-phenyl-", "Flavanone, 5,7-dimethoxy-", "2,3-Dihydro-5,7-dimethoxy-2-phenyl-4H-1-benzopyran-4-one", "5,7-Dimethoxyflavanone", "5,7-Dimethoxy-2-phenylchroman-4-one"], "SMILES": "O(C)C1=C2C(OC(CC2=O)C3=CC=CC=C3)=CC(OC)=C1", "physical_data": {"Molecular Weight": "284.31", "Molecular Formula": "C17H16O4", "Melting Point": "143-144 \u00b0C"}}