{"cas_no": "10361-37-2", "cn_name": "\u6c2f\u5316\u94a1", "en_name": ["Barium chloride", "Barium chloride (BaCl2)", "Barium chloride", "Barium dichloride", "Ba 0108E", "NSC 146181"], "SMILES": "[Ba](Cl)Cl", "physical_data": {"Molecular Weight": "", "Molecular Formula": "BaCl2", "Boiling Point": "1560 \u00b0C", "Melting Point": "962 \u00b0C", "Density": "3.9 g/cm\u00b3"}}