{"cas_no": "10371-45-6", "cn_name": "\u4e01\u70ef\u9178\u4ef2\u4e01\u916f", "en_name": ["1-Methylpropyl (2E)-2-butenoate", "2-Butenoic acid, 1-methylpropyl ester, (2E)-", "Crotonic acid, sec-butyl ester, (E)-", "2-Butenoic acid, 1-methylpropyl ester, (E)-", "1-Methylpropyl (2E)-2-butenoate", "sec-Butyl crotonate", "trans-sec-Butyl crotonate"], "SMILES": "O(C(C=CC)=O)C(CC)C", "physical_data": {"Molecular Weight": "142.20", "Molecular Formula": "C8H14O2", "Boiling Point": "74-75 \u00b0C @ Press: 30 Torr"}}