{"cas_no": "103766-25-2", "cn_name": "\u5409\u83ab\u65af\u7279", "en_name": ["Gimeracil", "2(1H)-Pyridinone, 5-chloro-4-hydroxy-", "5-Chloro-4-hydroxy-2(1H)-pyridinone", "5-Chloro-4-hydroxy-2-pyridone", "Gimestat", "Gimeracil", "5-Chloro-2,4-dihydroxypyridine"], "SMILES": "OC=1C(Cl)=CNC(=O)C1", "physical_data": {"Molecular Weight": "145.54", "Molecular Formula": "C5H4ClNO2", "Melting Point": "265-270 \u00b0C"}}