{"cas_no": "103788-61-0", "cn_name": "4-(\u6c2f\u7532\u57fa)-5-\u7532\u57fa-2-\u82ef\u57fa-1,3-\u6076\u5511", "en_name": ["4-(Chloromethyl)-5-methyl-2-phenyl-1,3-oxazole", "Oxazole, 4-(chloromethyl)-5-methyl-2-phenyl-", "4-(Chloromethyl)-5-methyl-2-phenyloxazole", "4-Chloromethyl-5-methyl-2-phenyloxazole", "4-(Chloromethyl)-5-methyl-2-phenyl-1,3-oxazole", "5-Methyl-2-phenyl-4-(chloromethyl)oxazole", "4-Chloromethyl-2-phenyl-5-methyloxazole", "[5-Methyl-2-phenyloxazol-4-yl]methyl chloride"], "SMILES": "C(Cl)C=1N=C(OC1C)C2=CC=CC=C2", "physical_data": {"Molecular Weight": "207.66", "Molecular Formula": "C11H10ClNO", "Melting Point": "81-83 \u00b0C"}}