{"cas_no": "10376-48-4", "cn_name": "\u7d2b\u83c0\u916e", "en_name": ["Shionone", "2(1H)-Chrysenone, hexadecahydro-1,4b,6a,8,10a,12a-hexamethyl-8-(4-methyl-3-penten-1-yl)-, (1R,4aS,4bS,6aS,8R,10aR,10bS,12aS)-", "D-Homo-5\u03b1-androstan-17-one, 3\u03b1,5,8,17a\u03b2-tetramethyl-3-(4-methyl-3-pentenyl)-", "Shionone", "D:A-Friedo-18,19-secolup-19-en-3-one", "2(1H)-Chrysenone, hexadecahydro-1,4b,6a,8,10a,12a-hexamethyl-8-(4-methyl-3-pentenyl)-, (1R,4aS,4bS,6aS,8R,10aR,10bS,12aS)-", "(1R,4aS,4bS,6aS,8R,10aR,10bS,12aS)-Hexadecahydro-1,4b,6a,8,10a,12a-hexamethyl-8-(4-methyl-3-penten-1-yl)-2(1H)-chrysenone", "Shionon", "2(1H)-Chrysenone, hexadecahydro-1,4b,6a,8,10a,12a-hexamethyl-8-(4-methyl-3-pentenyl)-, [1R-(1\u03b1,4a\u03b2,4b\u03b1,6a\u03b2,8\u03b2,10a\u03b1,10b\u03b2,12a\u03b1)]-"], "SMILES": "CC12C3C(C)(C4C(C)(CC3)C(C)C(=O)CC4)CCC1(C)CC(CCC=C(C)C)(C)CC2", "physical_data": {"Molecular Weight": "426.72", "Molecular Formula": "C30H50O", "Melting Point": "158.5-159.5 \u00b0C"}}