{"cas_no": "10377-60-3", "cn_name": "\u785d\u9178\u9541", "en_name": ["Magnesium nitrate", "Nitric acid, magnesium salt (2:1)", "Nitric acid, magnesium salt", "Magnesium nitrate", "Magniosan", "Magnesium dinitrate"], "SMILES": "N(=O)(=O)O.[Mg]", "physical_data": {"Molecular Weight": "", "Molecular Formula": "HNO3.<sup>1</sup>/2Mg", "Melting Point": "298-303 \u00b0C (decomp)", "Density": "~2.3 g/cm\u00b3 (approx)"}}