{"cas_no": "10377-48-7", "cn_name": "\u786b\u9178\u9502", "en_name": ["Lithium sulfate", "Sulfuric acid, lithium salt (1:2)", "Sulfuric acid, dilithium salt", "Lithium sulfate", "Dilithium sulfate", "Dilithium sulfate (Li2SO4)", "Lithium sulphate", "Lithium sulfate (Li2SO4)", "Lithiophor", "Lithium-Duriles", "Li2SO4", "Lithium sulfate (Li2(SO4))"], "SMILES": "S(=O)(=O)(O)O.[Li]", "physical_data": {"Molecular Weight": "", "Molecular Formula": "H2O4S.2Li", "Melting Point": "535 \u00b0C"}}