{"cas_no": "103765-01-1", "cn_name": "(R)-\u5de6\u4e59\u62c9\u897f\u5766", "en_name": ["UCB-L 060", "1-Pyrrolidineacetamide, \u03b1-ethyl-2-oxo-, (\u03b1R)-", "1-Pyrrolidineacetamide, \u03b1-ethyl-2-oxo-, (R)-", "(\u03b1R)-\u03b1-Ethyl-2-oxo-1-pyrrolidineacetamide", "UCB-L 060", "(2R)-2-(2-Oxopyrrolidin-1-yl)butanamide", "(R)-Etiracetam", "(R)-2-(2-Oxopyrrolidin-1-yl)butanamide"], "SMILES": "C(C(N)=O)(CC)N1C(=O)CCC1", "physical_data": {"Molecular Weight": "170.21", "Molecular Formula": "C8H14N2O2", "Melting Point": "114-116 \u00b0C"}}