{"cas_no": "103750-03-4", "cn_name": "5-\u9a6c\u6765\u9170\u4e9a\u80fa\u620a\u9178NHS", "en_name": ["2,5-Dioxo-1-pyrrolidinyl 2,5-dihydro-2,5-dioxo-1H-pyrrole-1-pentanoate", "1H-Pyrrole-1-pentanoic acid, 2,5-dihydro-2,5-dioxo-, 2,5-dioxo-1-pyrrolidinyl ester", "1H-Pyrrole-2,5-dione, 1-[5-[(2,5-dioxo-1-pyrrolidinyl)oxy]-5-oxopentyl]-", "2,5-Dioxo-1-pyrrolidinyl 2,5-dihydro-2,5-dioxo-1H-pyrrole-1-pentanoate", "2,5-Dioxopyrrolidin-1-yl 5-(2,5-dioxo-2,5-dihydro-1H-pyrrol-1-yl)pentanoate"], "SMILES": "O(C(CCCCN1C(=O)C=CC1=O)=O)N2C(=O)CCC2=O", "physical_data": {"Molecular Weight": "294.26", "Molecular Formula": "C13H14N2O6", "Melting Point": "135-137 \u00b0C"}}