{"cas_no": "10377-66-9", "cn_name": "\u785d\u9178\u9530", "en_name": ["Manganese nitrate", "Nitric acid, manganese(2+) salt (2:1)", "Manganese nitrate", "Nitric acid, manganese(2+) salt", "Manganous nitrate", "Manganese dinitrate", "Manganese(2+) nitrate", "Manganese nitrate (Mn(NO3)2)", "Manganese(II) nitrate", "Manganous dinitrate"], "SMILES": "N(=O)(=O)O.[Mn]", "physical_data": {"Molecular Weight": "", "Molecular Formula": "HNO3.<sup>1</sup>/2Mn", "Melting Point": "160 \u00b0C (decomp)", "Density": "1.70 g/cm\u00b3"}}