{"cas_no": "10377-51-2", "cn_name": "\u7898\u5316\u9502(\u65e0\u6c34)", "en_name": ["Lithium iodide", "Lithium iodide (LiI)", "Lithium iodide", "Lithium monoiodide"], "SMILES": "I[Li]", "physical_data": {"Molecular Weight": "", "Molecular Formula": "ILi", "Melting Point": "469 \u00b0C"}}