{"cas_no": "10377-52-3", "cn_name": "\u78f7\u9178\u9502", "en_name": ["Trilithium phosphate", "Phosphoric acid, lithium salt (1:3)", "Phosphoric acid, trilithium salt", "Lithium phosphate (Li3PO4)", "Lithium tribasic phosphate", "Trilithium phosphate", "Lithiophosphate (Li3PO4)", "Trilithium orthophosphate", "Lithium phosphate", "Trilithium monophosphate", "Lithium orthophosphate (Li3PO4)", "Lithium phosphate (Li2(PO4))"], "SMILES": "P(=O)(O)(O)O.[Li]", "physical_data": {"Molecular Weight": "", "Molecular Formula": "H3O4P.3Li", "Melting Point": "1206 \u00b0C"}}