{"cas_no": "10387-50-5", "cn_name": "7-(\u5f02\u620a\u70ef\u57fa\u6c27\u57fa)\u9999\u8c46\u7d20", "en_name": ["O-Prenylumbelliferone", "2H-1-Benzopyran-2-one, 7-[(3-methyl-2-buten-1-yl)oxy]-", "Coumarin, 7-[(3-methyl-2-butenyl)oxy]-", "2H-1-Benzopyran-2-one, 7-[(3-methyl-2-butenyl)oxy]-", "7-[(3-Methyl-2-buten-1-yl)oxy]-2H-1-benzopyran-2-one", "7-(Isopentenyloxy)coumarin", "7-(3,3-Dimethylallyloxy)coumarin", "7-O-Prenylumbelliferone", "7-Hydroxycoumarin dimethylallyl ether", "7-(3\u2032,3\u2032-Dimethylallyloxy)coumarin", "7-(3-Methyl-2-butenyloxy)coumarin", "O-Prenylumbelliferone", "NSC 267697"], "SMILES": "O(CC=C(C)C)C=1C=C2C(=CC1)C=CC(=O)O2", "physical_data": {"Molecular Weight": "230.26", "Molecular Formula": "C14H14O3", "Melting Point": "70-71 \u00b0C"}}