{"cas_no": "103884-98-6", "cn_name": "9-(2-\u8131\u6c27-2-\u6c1f\u963f\u62c9\u4f2f\u544b\u5583\u57fa)\u9e1f\u560c\u5464", "en_name": ["2-Amino-9-(2-deoxy-2-fluoro-\u03b2-D-arabinofuranosyl)-1,9-dihydro-6H-purin-6-one", "6H-Purin-6-one, 2-amino-9-(2-deoxy-2-fluoro-\u03b2-D-arabinofuranosyl)-1,9-dihydro-", "2-Amino-9-(2-deoxy-2-fluoro-\u03b2-D-arabinofuranosyl)-1,9-dihydro-6H-purin-6-one", "2\u2032-Fluoro-Arabinoguanosine", "NUK-2"], "SMILES": "O=C1C2=C(N(C=N2)C3OC(CO)C(O)C3F)NC(N)=N1", "physical_data": {"Molecular Weight": "285.23", "Molecular Formula": "C10H12FN5O4", "Melting Point": "275-279 \u00b0C"}}