{"cas_no": "103878-84-8", "cn_name": "\u62c9\u624e\u8d1d\u80fa", "en_name": ["Lazabemide", "2-Pyridinecarboxamide, N-(2-aminoethyl)-5-chloro-", "N-(2-Aminoethyl)-5-chloro-2-pyridinecarboxamide", "Lazabemide", "Ro 19-6327/000", "6-Chloropyridine-N-(3-hydroxypropyl)-2-carbonylamide"], "SMILES": "C(NCCN)(=O)C1=CC=C(Cl)C=N1", "physical_data": {"Molecular Weight": "199.64", "Molecular Formula": "C8H10ClN3O", "Melting Point": "132-134 \u00b0C"}}