{"cas_no": "10389-51-2", "cn_name": "\u785d\u82ef", "en_name": ["4-(4-Nitrophenyl)morpholine", "Morpholine, 4-(4-nitrophenyl)-", "Morpholine, 4-(p-nitrophenyl)-", "4-(4-Nitrophenyl)morpholine", "p-Morpholinonitrobenzene", "4-(p-Nitrophenyl)morpholine", "NSC 27271", "4-Morpholinonitrobenzene", "N-(4-Nitrophenyl)morpholine"], "SMILES": "N(=O)(=O)C1=CC=C(C=C1)N2CCOCC2", "physical_data": {"Molecular Weight": "208.21", "Molecular Formula": "C10H12N2O3", "Melting Point": "149-150 \u00b0C"}}