{"cas_no": "103890-78-4", "cn_name": "\u62c9\u897f\u5730\u5e73", "en_name": ["Lacidipine", "3,5-Pyridinedicarboxylic acid, 4-[2-[(1E)-3-(1,1-dimethylethoxy)-3-oxo-1-propen-1-yl]phenyl]-1,4-dihydro-2,6-dimethyl-, 3,5-diethyl ester", "3,5-Pyridinedicarboxylic acid, 4-[2-[3-(1,1-dimethylethoxy)-3-oxo-1-propenyl]phenyl]-1,4-dihydro-2,6-dimethyl-, diethyl ester, (E)-", "3,5-Pyridinedicarboxylic acid, 4-[2-[(1E)-3-(1,1-dimethylethoxy)-3-oxo-1-propenyl]phenyl]-1,4-dihydro-2,6-dimethyl-, diethyl ester", "Lacidipine", "GR 43659X", "Caldine", "Lacirex", "Motens", "Lacipil", "GX 1048", "Lacimen", "Midotens", "SML 0946", "Prestw 1297"], "SMILES": "C(OCC)(=O)C=1C(C(C(OCC)=O)=C(C)NC1C)C2=C(C=CC(OC(C)(C)C)=O)C=CC=C2", "physical_data": {"Molecular Weight": "455.54", "Molecular Formula": "C26H33NO6", "Melting Point": "174-175 \u00b0C"}}