{"cas_no": "10389-65-8", "cn_name": "N,N'-\u53cc(\u53d4\u4e01\u6c27\u7fb0\u57fa)-L-\u80f1\u6c28\u9178", "en_name": ["N,N\u2032-Bis(tert-butoxycarbonyl)-L-cystine", "L-Cystine, N,N\u2032-bis[(1,1-dimethylethoxy)carbonyl]-", "Cystine, N,N\u2032-dicarboxy-, N,N\u2032-di-tert-butyl ester, L-", "Cystine, N,N\u2032-dicarboxy-, N,N\u2032-di-tert-butyl ester", "N,N\u2032-Bis[(1,1-dimethylethoxy)carbonyl]-L-cystine", "N,N\u2032-Bis(tert-butoxycarbonyl)cystine", "N,N\u2032-Bis(tert-butoxycarbonyl)-L-cystine", "NSC 164046", "N,N\u2032-Di-BOC-L-cystine", "N,N\u2032-Bis(tert-butoxycarbonyl)-L-cysteine", "N,N\u2032-Di(tert-butoxycarbonyl)-L-cystine"], "SMILES": "C(NC(OC(C)(C)C)=O)(CSSCC(NC(OC(C)(C)C)=O)C(O)=O)C(O)=O", "physical_data": {"Molecular Weight": "440.53", "Molecular Formula": "C16H28N2O8S2", "Melting Point": "140-146 \u00b0C"}}