{"cas_no": "1038-95-5", "cn_name": "\u4e09\u5bf9\u82ef\u7532\u57fa\u81a6", "en_name": ["Tri-p-tolylphosphine", "Phosphine, tris(4-methylphenyl)-", "Phosphine, tri-p-tolyl-", "Tris(4-methylphenyl)phosphine", "Tri-p-tolylphosphine", "Tris(p-tolyl)phosphine", "Tris(p-methylphenyl)phosphine", "Tri(4-methylphenyl)phosphine", "NSC 97371", "TPTP", "TPTP (phosphine)"], "SMILES": "P(C1=CC=C(C)C=C1)(C2=CC=C(C)C=C2)C3=CC=C(C)C=C3", "physical_data": {"Molecular Weight": "304.37", "Molecular Formula": "C21H21P", "Melting Point": "146 \u00b0C"}}