{"cas_no": "1038-66-0", "cn_name": "4,4'-\u4e8c\u6c28\u57fa\u516b\u6c1f\u8054\u82ef", "en_name": ["4,4\u2032-Diaminooctafluorobiphenyl", "[1,1\u2032-Biphenyl]-4,4\u2032-diamine, 2,2\u2032,3,3\u2032,5,5\u2032,6,6\u2032-octafluoro-", "Benzidine, 2,2\u2032,3,3\u2032,5,5\u2032,6,6\u2032-octafluoro-", "2,2\u2032,3,3\u2032,5,5\u2032,6,6\u2032-Octafluoro[1,1\u2032-biphenyl]-4,4\u2032-diamine", "Octafluorobenzidine", "2,2\u2032,3,3\u2032,5,5\u2032,6,6\u2032-Octafluorobenzidine", "4,4\u2032-Diaminooctafluorodiphenyl", "4,4\u2032-Diaminooctafluorobiphenyl", "NSC 88339", "Octafluoro-4,4\u2032-biphenylenediamine", "4,4\u2032-Diamino-2,2\u2032,3,3\u2032,5,5\u2032,6,6\u2032-octafluoro-1,1\u2032-biphenyl", "D 1632"], "SMILES": "FC1=C(C(F)=C(F)C(N)=C1F)C2=C(F)C(F)=C(N)C(F)=C2F", "physical_data": {"Molecular Weight": "328.16", "Molecular Formula": "C12H4F8N2", "Melting Point": "173-174 \u00b0C"}}