{"cas_no": "103863-15-6", "cn_name": "3-\u82ef\u57fa-2-\u5421\u5576\u7532\u9178", "en_name": ["3-Phenyl-2-pyridinecarboxylic acid", "2-Pyridinecarboxylic acid, 3-phenyl-", "Picolinic acid, 3-phenyl-", "3-Phenyl-2-pyridinecarboxylic acid", "3-Phenylpyridine-2-carboxylic acid", "3-Phenylpicolinic acid"], "SMILES": "C(O)(=O)C1=C(C=CC=N1)C2=CC=CC=C2", "physical_data": {"Molecular Weight": "199.21", "Molecular Formula": "C12H9NO2", "Melting Point": "131-131.5 \u00b0C (decomp)"}}