{"cas_no": "10381-75-6", "cn_name": "8-\u6eb4\u8336\u78b1", "en_name": ["8-Bromo-3,9-dihydro-1,3-dimethyl-1H-purine-2,6-dione", "1H-Purine-2,6-dione, 8-bromo-3,9-dihydro-1,3-dimethyl-", "Theophylline, 8-bromo-", "1H-Purine-2,6-dione, 8-bromo-3,7-dihydro-1,3-dimethyl-", "8-Bromo-3,9-dihydro-1,3-dimethyl-1H-purine-2,6-dione", "Bromotheophylline", "8-Bromotheophylline", "Bromotheaminum", "NSC 164940", "8-Bromo-1,3-dimethyl-1H-purine-2,6(3H,7H)-dione"], "SMILES": "O=C1C2=C(N(C)C(=O)N1C)N=C(Br)N2", "physical_data": {"Molecular Weight": "259.06", "Molecular Formula": "C7H7BrN4O2", "Melting Point": "307-309 \u00b0C"}}