{"cas_no": "103854-64-4", "cn_name": "8-\u7532\u6c27\u57fa\u55b9\u5549-2-\u7532\u919b", "en_name": ["8-Methoxyquinoline-2-carboxaldehyde", "2-Quinolinecarboxaldehyde, 8-methoxy-", "Quinaldaldehyde, 8-methoxy-", "8-Methoxy-2-quinolinecarboxaldehyde", "8-Methoxyquinoline-2-carboxaldehyde"], "SMILES": "O(C)C=1C2=C(C=CC(C=O)=N2)C=CC1", "physical_data": {"Molecular Weight": "187.19", "Molecular Formula": "C11H9NO2", "Melting Point": "102 \u00b0C"}}