{"cas_no": "10387-40-3", "cn_name": "\u786b\u4ee3\u4e59\u9178\u94be", "en_name": ["Potassium thioacetate", "Ethanethioic acid, potassium salt (1:1)", "Acetic acid, thio-, potassium salt", "Ethanethioic acid, potassium salt", "Potassium thiolacetate", "Potassium thioacetate", "Potassium thioethanoate", "S-Potassium thioacetate", "Potassium ethanethioate", "MeCOSK"], "SMILES": "C(C)(=O)S.[K]", "physical_data": {"Molecular Weight": "", "Molecular Formula": "C2H4OS.K", "Melting Point": "173-176 \u00b0C", "Density": "1.58 g/cm\u00b3"}}