{"cas_no": "10387-13-0", "cn_name": "9,10-\u4e8c(\u6c2f\u7532\u57fa)\u84bd", "en_name": ["9,10-Bis(chloromethyl)anthracene", "Anthracene, 9,10-bis(chloromethyl)-", "9,10-Bis(chloromethyl)anthracene", "9,10-Di(chloromethyl)anthracene", "NSC 81650"], "SMILES": "C(Cl)C=1C2=C(C(CCl)=C3C1C=CC=C3)C=CC=C2", "physical_data": {"Molecular Weight": "275.17", "Molecular Formula": "C16H12Cl2", "Melting Point": "233-240 \u00b0C"}}