{"cas_no": "10380-28-6", "cn_name": "8-\u7f9f\u57fa\u55b9\u5549\u94dc", "en_name": ["Bis(8-quinolinolato)copper", "Copper, bis(8-quinolinolato-\u03baN1,\u03baO8)-", "Copper, bis(8-quinolinolato)-", "Copper, bis(8-quinolinolato-N1,O8)-", "Bis(8-quinolinolato-\u03baN1,\u03baO8)copper", "Copper 8-hydroxyquinolinate", "Copper 8-quinolinolate", "8-Hydroxyquinoline copper(2+) salt", "Oxine-copper", "Quinolate 15", "Quinolate 20", "Copper oxyquinoline", "Copper quinolate", "Copper oxinate", "Copper oxyquinolate", "Cupric 8-quinolinolate", "8-Hydroxyquinoline copper salt", "Copper 8-hydroxyquinoline", "Quinolate", "Milmer 1", "Copper 8-quinolinol", "Copper 8-hydroxyquinolate", "Bis(8-quinolinolato)copper", "Copper hydroxyquinolinate", "Copper quinolinolate", "Copper 8-quinolate", "Copper(2+) oxinate", "Copper hydroxyquinolate", "Bis(8-oxyquinoline)copper", "Cupric 8-hydroxyquinolate", "Copper-oxine", "Cuproquin", "Bis(8-hydroxyquinolinato)copper", "Copper bis(8-hydroxyquinolinate)", "Copper 8-quinolinolate (1:2)", "Cunilate 2174", "Copper dioxinate", "Fennotox 45", "Cunilate 2419", "Cuprinol Dispersion AQ", "Timtex AQS", "Timtex 17", "Timtex", "PQ 8", "Nylate 10", "Cunilate 2419-75", "Cu 8Q", "Quin 20", "Yukilate CD 50", "PQ 57", "PQ 357", "Arbrex 805", "Oxidong", "Penetraat", "Cu 8", "Betaxate", "Bioquin", "PEI 273", "PQ 8 (fungicide)", "Copper Clear", "Copper(II) oxinate", "NSC 7720", "CUPRIC 8-OXYQUINOLINE", "Bis(8-quinolinolato)copper(II)", "Oxyquinoline copper", "Copper(II) bis(8-quinolinolate)"], "SMILES": "[Cu+2]12([N]=3C=4C([O-]1)=CC=CC4C=CC3)[N]=5C=6C([O-]2)=CC=CC6C=CC5", "physical_data": {"Molecular Weight": "", "Molecular Formula": "C18H12CuN2O2", "Melting Point": "339 \u00b0C", "Density": "1.63 g/cm\u00b3"}}