{"cas_no": "10388-19-9", "cn_name": "\u95f4\u7898\u82ef\u7532\u9170\u80fa", "en_name": ["3-Iodobenzamide", "Benzamide, 3-iodo-", "Benzamide, m-iodo-", "3-Iodobenzamide", "m-Iodobenzamide"], "SMILES": "C(N)(=O)C1=CC(I)=CC=C1", "physical_data": {"Molecular Weight": "247.03", "Molecular Formula": "C7H6INO", "Melting Point": "185-186 \u00b0C"}}