{"cas_no": "10397-13-4", "cn_name": "2-\u5417\u5549\u57fa-4,6-\u4e8c\u6c2f\u5627\u5576", "en_name": ["4-(4,6-Dichloropyrimidin-2-yl)morpholine", "Morpholine, 4-(4,6-dichloro-2-pyrimidinyl)-", "4-(4,6-Dichloro-2-pyrimidinyl)morpholine", "4,6-Dichloro-2-(4-morpholinyl)pyrimidine", "4,6-Dichloro-2-morpholinopyrimidine", "2-Morpholino-4,6-dichloropyrimidine", "4-(4,6-Dichloropyrimidin-2-yl)morpholine"], "SMILES": "ClC1=NC(=NC(Cl)=C1)N2CCOCC2", "physical_data": {"Molecular Weight": "234.08", "Molecular Formula": "C8H9Cl2N3O", "Melting Point": "105.5-108.0 \u00b0C"}}