{"cas_no": "103946-54-9", "cn_name": "4'-\u7532\u57fa-2,2'-\u8054\u5421\u5576-4-\u7532\u9178", "en_name": ["4\u2032-Methyl[2,2\u2032-bipyridine]-4-carboxylic acid", "[2,2\u2032-Bipyridine]-4-carboxylic acid, 4\u2032-methyl-", "4\u2032-Methyl[2,2\u2032-bipyridine]-4-carboxylic acid", "4-Carboxy-4\u2032-methyl-2,2\u2032-bipyridine", "4-Methyl-2,2\u2032-bipyridine-4\u2032-carboxylic acid", "4\u2032-Methyl-2,2\u2032-bipyridine-4-carboxylic acid", "4\u2032-Methyl-2,2\u2032-bipyridyl-4-carboxylic acid", "2-(4-Methylpyridin-2-yl)pyridine-4-carboxylic acid"], "SMILES": "C(O)(=O)C=1C=C(N=CC1)C2=CC(C)=CC=N2", "physical_data": {"Molecular Weight": "214.22", "Molecular Formula": "C12H10N2O2", "Melting Point": "280 \u00b0C"}}