{"cas_no": "10396-10-8", "cn_name": "\u5bf9\u7532\u82ef\u78fa\u9170\u6c28\u57fa\u8132", "en_name": ["p-Toluenesulfonylsemicarbazide", "Benzenesulfonic acid, 4-methyl-, 2-(aminocarbonyl)hydrazide", "Semicarbazide, 1-(p-tolylsulfonyl)-", "p-Toluenesulfonylsemicarbazide", "Celogen RA", "1-(p-Tolylsulfonyl)semicarbazide", "Unicell TS", "1-Tosylsemicarbazide", "Blo Foam RA", "Blowing Agent RA", "Foaming Agent RA", "[(4-Methylphenyl)sulfonylamino]urea"], "SMILES": "S(NNC(N)=O)(=O)(=O)C1=CC=C(C)C=C1", "physical_data": {"Molecular Weight": "229.26", "Molecular Formula": "C8H11N3O3S", "Melting Point": "236 \u00b0C"}}