{"cas_no": "10397-30-5", "cn_name": "3-\u785d\u57fa-4-\u7532\u57fa\u82ef\u7532\u9170\u6c2f", "en_name": ["4-Methyl-3-nitrobenzoyl chloride", "Benzoyl chloride, 4-methyl-3-nitro-", "p-Toluoyl chloride, 3-nitro-", "4-Methyl-3-nitrobenzoyl chloride", "2-Nitrotoluene-4-carbonyl chloride", "3-Nitro-4-methylbenzoyl chloride", "3-Nitro-p-toluoyl chloride"], "SMILES": "N(=O)(=O)C1=CC(C(Cl)=O)=CC=C1C", "physical_data": {"Molecular Weight": "199.59", "Molecular Formula": "C8H6ClNO3", "Boiling Point": "139-140 \u00b0C @ Press: 2 Torr", "Melting Point": "11 \u00b0C"}}