{"cas_no": "10391-09-0", "cn_name": "\u8bfa\u591a\u661f", "en_name": ["Nodosin (terpene)", "Enmein, 13-deoxy-5-hydroxy-, (5\u03b2)-", "5H-5a,8-Methano-11H-cyclohepta[c]furo[3,4-e][1]benzopyran-5,6(7H)-dione, 1,2,3,3a\u03b2,8\u03b2,9,10,10a\u03b1,13,13a\u03b2-decahydro-10\u03b2,13\u03b2-dihydroxy-1,1-dimethyl-7-methylene-, (-)-", "Nodosin", "5H-5a,8-Methano-11H-cyclohepta[c]furo[3,4-e][1]benzopyran, enmein deriv.", "(5\u03b2)-13-Deoxy-5-hydroxyenmein", "Nodosin (terpene)", "NSC 285659", "11-Deacetylsinuolatin E"], "SMILES": "OC1C2C34C(C(O)OC3)C(C)(C)CCC4OC(=O)C25CC(C1)C(=C)C5=O", "physical_data": {"Molecular Weight": "362.42", "Molecular Formula": "C20H26O6", "Melting Point": "274-276 \u00b0C"}}