{"cas_no": "10392-74-2", "cn_name": "\u66f2\u5b89\u5948\u5fb7EP\u6742\u8d28D", "en_name": ["Pregna-1,4-diene-3,20-dione, 9-chloro-11,21-dihydroxy-16,17-[(1-methylethylidene)bis(oxy)]-, (11\u03b2,16\u03b1)-", "Pregna-1,4-diene-3,20-dione, 9-chloro-11,21-dihydroxy-16,17-[(1-methylethylidene)bis(oxy)]-, (11\u03b2,16\u03b1)-", "Pregna-1,4-diene-3,20-dione, 9-chloro-11\u03b2,16\u03b1,17,21-tetrahydroxy-, cyclic 16,17-acetal with acetone", "2H-Naphth[2\u2032,1\u2032:4,5]indeno[1,2-d][1,3]dioxole, pregna-1,4-diene-3,20-dione deriv."], "SMILES": "C(CO)(=O)C12C3(C)C(CC1OC(C)(C)O2)C4C(Cl)(C(O)C3)C5(C)C(CC4)=CC(=O)C=C5", "physical_data": {"Molecular Weight": "450.95", "Molecular Formula": "C24H31ClO6", "Melting Point": "281.5-283.5 \u00b0C (decomp)"}}