{"cas_no": "10399-13-0", "cn_name": "2-\u73af\u5df1\u57fa-2-\u7f9f\u57fa\u82ef\u4e59\u9178\u7532\u916f", "en_name": ["Methyl \u03b1-cyclohexyl-\u03b1-hydroxybenzeneacetate", "Benzeneacetic acid, \u03b1-cyclohexyl-\u03b1-hydroxy-, methyl ester", "Cyclohexaneglycolic acid, \u03b1-phenyl-, methyl ester", "Methyl \u03b1-cyclohexyl-\u03b1-hydroxybenzeneacetate", "Methyl \u03b1-cyclohexyl-\u03b1-phenylglycolate", "Methyl cyclohexylphenylglycolate", "Methyl \u03b1-cyclohexylmandelate", "Methyl 2-hydroxy-2-cyclohexyl-2-phenylacetate"], "SMILES": "C(C(OC)=O)(O)(C1CCCCC1)C2=CC=CC=C2", "physical_data": {"Molecular Weight": "248.32", "Molecular Formula": "C15H20O3", "Boiling Point": "170-175 \u00b0C @ Press: 9 Torr", "Melting Point": "40 \u00b0C"}}