{"cas_no": "103909-75-7", "cn_name": "\u9a6c\u6c99\u9aa8\u5316\u9187", "en_name": ["Maxacalcitol", "1,3-Cyclohexanediol, 4-methylene-5-[(2E)-2-[(1S,3aS,7aS)-octahydro-1-[(1S)-1-(3-hydroxy-3-methylbutoxy)ethyl]-7a-methyl-4H-inden-4-ylidene]ethylidene]-, (1R,3S,5Z)-", "1,3-Cyclohexanediol, 4-methylene-5-[2-[octahydro-1-[1-(3-hydroxy-3-methylbutoxy)ethyl]-7a-methyl-4H-inden-4-ylidene]ethylidene]-, [1S-[1\u03b1(R*),3a\u03b2,4E(1S*,3R*,5Z),7a\u03b1]]-", "1,3-Cyclohexanediol, 4-methylene-5-[(2E)-[(1S,3aS,7aS)-octahydro-1-[(1S)-1-(3-hydroxy-3-methylbutoxy)ethyl]-7a-methyl-4H-inden-4-ylidene]ethylidene]-, (1R,3S,5Z)-", "(1R,3S,5Z)-4-Methylene-5-[(2E)-2-[(1S,3aS,7aS)-octahydro-1-[(1S)-1-(3-hydroxy-3-methylbutoxy)ethyl]-7a-methyl-4H-inden-4-ylidene]ethylidene]-1,3-cyclohexanediol", "22-Oxacalcitriol", "22-Oxa-1\u03b1,25-dihydroxyvitamin D3", "22-Oxa-1,25-dihydroxyvitamin D3", "MC 1275", "1\u03b1,25-Dihydroxy-22-oxavitamin D3", "Maxacalcitol", "OCT", "Sch 209579", "Prezios", "OCT (steroid)", "Oxarol"], "SMILES": "CC12C(C(=CC=C3C(=C)C(O)CC(O)C3)CCC1)CCC2C(OCCC(C)(C)O)C", "physical_data": {"Molecular Weight": "418.61", "Molecular Formula": "C26H42O4", "Melting Point": "122 \u00b0C"}}