{"cas_no": "103974-74-9", "cn_name": "\u53bb\u7f9f\u52a0\u5229\u679c\u9178", "en_name": ["Esculentic acid", "Urs-12-en-28-oic acid, 2,3,23-trihydroxy-, (2\u03b1,3\u03b1,4\u03b1)-", "(2\u03b1,3\u03b1,4\u03b1)-2,3,23-Trihydroxyurs-12-en-28-oic acid", "Esculentic acid (Diplazium)", "Esculentic acid", "2\u03b1,3\u03b1,23-Trihydroxyurs-12-en-28-oic acid"], "SMILES": "CC12C3(C)C(C4C(C(O)=O)(CC3)CCC(C)C4C)=CCC1C5(C)C(CC2)C(CO)(C)C(O)C(O)C5", "physical_data": {"Molecular Weight": "488.70", "Molecular Formula": "C30H48O5", "Melting Point": "270-272 \u00b0C"}}