{"cas_no": "1039-17-4", "cn_name": "17beta-\u7f9f\u57fa-17-\u7532\u57fa\u96c4\u753e-4,9(11)-\u4e8c\u70ef-3-\u916e", "en_name": ["9-Dehydromethyltestosterone", "Androsta-4,9(11)-dien-3-one, 17-hydroxy-17-methyl-, (17\u03b2)-", "Androsta-4,9(11)-dien-3-one, 17\u03b2-hydroxy-17-methyl-", "(17\u03b2)-17-Hydroxy-17-methylandrosta-4,9(11)-dien-3-one", "U 5261", "\u03949-11-Methyltestosterone", "17\u03b2-Hydroxy-17-methylandrost-4,9(11)-dien-3-one", "Androsta-4,9(11)-diene-17\u03b1-methyl-17\u03b2-ol-3-one", "17\u03b2-Hydroxy-17-methylandrosta-4,9(11)-dien-3-one", "17\u03b1-Methyl-4,9(11)-androstadien-17\u03b2-ol-3-one", "17\u03b2-Hydroxy-17\u03b1-methyl-4,9(11)androstadien-3-one", "4,9(11)-Androstadien-17\u03b1-methyl-17\u03b2-ol-3-one", "NSC 3356", "9-Dehydromethyltestosterone", "17b-Hydroxy-17-methylandrosta-4,9(11)-dien-3-one"], "SMILES": "CC12C=3C(C4C(C)(CC3)C(C)(O)CC4)CCC1=CC(=O)CC2", "physical_data": {"Molecular Weight": "300.44", "Molecular Formula": "C20H28O2", "Melting Point": "170-172 \u00b0C"}}