{"cas_no": "10397-58-7", "cn_name": "4-\u7532\u6c27\u57fa-3-\u785d\u57fa\u82ef\u7532\u9170\u80fa", "en_name": ["4-Methoxy-3-nitrobenzamide", "Benzamide, 4-methoxy-3-nitro-", "p-Anisamide, 3-nitro-", "4-Methoxy-3-nitrobenzamide", "3-Nitro-p-anisamide"], "SMILES": "N(=O)(=O)C1=C(OC)C=CC(C(N)=O)=C1", "physical_data": {"Molecular Weight": "196.16", "Molecular Formula": "C8H8N2O4", "Melting Point": "117 \u00b0C"}}