{"cas_no": "104-19-8", "cn_name": "N,N,4-\u4e09\u7532\u57fa\u54cc\u55ea-1-\u4e59\u80fa", "en_name": ["N,N,4-Trimethyl-1-piperazineethanamine", "1-Piperazineethanamine, N,N,4-trimethyl-", "Piperazine, 1-[2-(dimethylamino)ethyl]-4-methyl-", "N,N,4-Trimethyl-1-piperazineethanamine", "1-[2-(Dimethylamino)ethyl]-4-methylpiperazine", "N-Methyl-N\u2032-(dimethylaminoethyl)piperazine", "N-Methyl-N\u2032-(\u03b2-dimethylaminoethyl)piperazine", "S 36081-3", "Toyocat NP", "Kaolizer 8", "N-Methyl-N\u2032-(N,N-dimethylaminoethyl)piperazine", "NSC 79879", "N,N,N\u2032-Trimethylaminoethylpiperazine", "KL 8", "Jeffcat TR 52", "N-Methyl-N\u2032-(2-dimethylaminoethyl)piperazine", "Jeffcat TAP", "1-Methyl-4-[2-(dimethylamino)ethyl]piperazine", "N-(2-Dimethylaminoethyl)-N\u2032-methylpiperazine"], "SMILES": "C(CN(C)C)N1CCN(C)CC1", "physical_data": {"Molecular Weight": "171.28", "Molecular Formula": "C9H21N3", "Boiling Point": "118-121 \u00b0C @ Press: 37 Torr"}}