{"cas_no": "104-46-1", "cn_name": "\u8334\u9999\u8111", "en_name": ["Anethole", "Benzene, 1-methoxy-4-(1-propen-1-yl)-", "Anisole, p-propenyl-", "Benzene, 1-methoxy-4-(1-propenyl)-", "1-Methoxy-4-(1-propen-1-yl)benzene", "Anise camphor", "Isoestragole", "p-Methoxy-\u03b2-methylstyrene", "1-Methoxy-4-propenylbenzene", "Oil of aniseed", "p-Propenylphenyl methyl ether", "Anethole", "1-Propene, 1-(4-methoxyphenyl)-", "Anethol", "4-Methoxy-1-propenylbenzene", "Nauli gum", "p-1-Propenylanisole", "1-Methoxy-4-(1-propenyl)benzene", "4-Methoxypropenylbenzene", "p-Propenylanisole", "4-Propenylanisole", "p-Anethole", "4-(1-Propenyl)anisole", "NSC 4018", "1-(4-Methoxyphenyl)-1-propene"], "SMILES": "C(=CC)C1=CC=C(OC)C=C1", "physical_data": {"Molecular Weight": "148.20", "Molecular Formula": "C10H12O", "Boiling Point": "234 \u00b0C", "Melting Point": "21.3 \u00b0C", "Density": "0.9878 g/cm\u00b3 @ Temp: 20 \u00b0C"}}