{"cas_no": "104-04-1", "cn_name": "\u5bf9\u785d\u57fa\u4e59\u9170\u82ef\u80fa", "en_name": ["N-(4-Nitrophenyl)acetamide", "Acetamide, N-(4-nitrophenyl)-", "Acetanilide, 4\u2032-nitro-", "Acetanilide, p-nitro-", "N-(4-Nitrophenyl)acetamide", "p-Nitroacetanilide", "4\u2032-Nitroacetanilide", "N-Acetyl-p-nitroaniline", "p-Acetamidonitrobenzene", "N-Acetyl-4-nitroaniline", "N-Acetyl-4-nitrobenzenamine", "1-Nitro-4-acetylaminobenzene", "N-(p-Nitrophenyl)acetamide", "4-(Acetylamino)nitrobenzene", "NSC 1315", "1-(Acetylamino)-4-nitrobenzene"], "SMILES": "N(C(C)=O)C1=CC=C(N(=O)=O)C=C1", "physical_data": {"Molecular Weight": "180.16", "Molecular Formula": "C8H8N2O3", "Boiling Point": "100 \u00b0C", "Melting Point": "216 \u00b0C"}}