{"cas_no": "104-21-2", "cn_name": "\u4e59\u9178\u5927\u8334\u9999\u916f", "en_name": ["4-Methoxybenzyl acetate", "Benzenemethanol, 4-methoxy-, 1-acetate", "Benzyl alcohol, p-methoxy-, acetate", "Benzenemethanol, 4-methoxy-, acetate", "p-Anisyl alcohol, acetate", "Cassie ketone", "p-Methoxybenzyl acetate", "p-Methoxybenzyl alcohol acetate", "4-Methoxybenzyl acetate", "4-Methoxybenzenemethanol acetate", "NSC 46102", "4-Anisyl acetate", "1-Methoxy-4-acetoxymethylbenzene", "(4-Methoxyphenyl)methyl acetate"], "SMILES": "C(OC(C)=O)C1=CC=C(OC)C=C1", "physical_data": {"Molecular Weight": "180.20", "Molecular Formula": "C10H12O3", "Boiling Point": "270 \u00b0C", "Melting Point": "84 \u00b0C"}}