{"cas_no": "104-73-4", "cn_name": "\u5341\u4e8c\u70f7\u57fa\u6eb4\u5316\u5421\u5576", "en_name": ["Dodecylpyridinium bromide", "Pyridinium, 1-dodecyl-, bromide (1:1)", "Pyridinium, 1-dodecyl-, bromide", "1-Dodecylpyridinium bromide", "Dodecylpyridinium bromide", "Isothan Q 4", "Laurosept", "Laurylpyridinium bromide", "N-Laurylpyridinium bromide", "DPB", "N-Dodecylpyridinium bromide", "1-Dodecylpyridin-1-iumbromide"], "SMILES": "C(CCCCCCCCCCC)[N+]=1C=CC=CC1.[Br-]", "physical_data": {"Molecular Weight": "", "Molecular Formula": "C17H30N.Br", "Melting Point": "89-90 \u00b0C"}}