{"cas_no": "104-52-9", "cn_name": "1-\u6c2f-3-\u82ef\u57fa\u4e19\u70f7", "en_name": ["1-Chloro-3-phenylpropane", "Benzene, (3-chloropropyl)-", "(3-Chloropropyl)benzene", "3-Phenylpropyl chloride", "\u03b3-Phenylpropyl chloride", "3-Chloro-1-phenylpropane", "\u03b3-Chloropropylbenzene", "1-Chloro-3-phenylpropane", "3-Phenyl-1-chloropropane", "NSC 16939"], "SMILES": "C(CCCl)C1=CC=CC=C1", "physical_data": {"Molecular Weight": "154.64", "Molecular Formula": "C9H11Cl", "Boiling Point": "219.5 \u00b0C"}}