{"cas_no": "104-43-8", "cn_name": "4-\u5341\u4e8c\u70f7\u57fa\u82ef\u915a", "en_name": ["p-Dodecylphenol", "Phenol, 4-dodecyl-", "Phenol, p-dodecyl-", "4-Dodecylphenol", "p-Dodecylphenol", "p-n-Dodecylphenol"], "SMILES": "C(CCCCCCCCCCC)C1=CC=C(O)C=C1", "physical_data": {"Molecular Weight": "262.43", "Molecular Formula": "C18H30O", "Boiling Point": "174-180 \u00b0C @ Press: 0.1 Torr", "Melting Point": "63.5-64 \u00b0C", "Density": "0.9208 g/cm\u00b3 @ Temp: 20 \u00b0C"}}