{"cas_no": "104-83-6", "cn_name": "4-\u6c2f\u6c2f\u82c4", "en_name": ["4-Chlorobenzyl chloride", "Benzene, 1-chloro-4-(chloromethyl)-", "Toluene, p,\u03b1-dichloro-", "1-Chloro-4-(chloromethyl)benzene", "p,\u03b1-Dichlorotoluene", "p-Chlorobenzyl chloride", "\u03b1,p-Dichlorotoluene", "4-Chlorobenzyl chloride", "\u03b1,4-Dichlorotoluene", "(4-Chlorophenyl)methyl chloride", "p-Chlorophenylmethyl chloride", "1-(Chloromethyl)-4-chlorobenzene", "NSC 34032", "4-Chloro-1-(chloromethyl)benzene", "4-Chloromethylchlorobenzene"], "SMILES": "C(Cl)C1=CC=C(Cl)C=C1", "physical_data": {"Molecular Weight": "161.03", "Molecular Formula": "C7H6Cl2", "Boiling Point": "223 \u00b0C", "Melting Point": "31 \u00b0C", "Density": "1.388 g/cm\u00b3 @ Temp: 20 \u00b0C"}}