{"cas_no": "104-96-1", "cn_name": "4-\u6c28\u57fa\u8334\u9999\u786b\u919a", "en_name": ["4-(Methylthio)aniline", "Benzenamine, 4-(methylthio)-", "Aniline, p-(methylthio)-", "4-(Methylthio)benzenamine", "p-(Methylthio)aniline", "p-Thioanisidine", "p-Aminophenyl methyl sulfide", "p-Thiomethoxyaniline", "4-(Methylthio)aniline", "p-Aminothioanisole", "4-Aminothioanisole", "Methyl p-aminophenyl sulfide", "4-Aminophenyl methyl sulfide", "[4-(Methylthio)phenyl]amine", "NSC 75842", "4-(Methylsulfanyl)aniline", "4-(Methylsulfanyl)phenylamine", "4-Methylthiobenzeneamine", "1-Amino-4-(methylthio)benzene"], "SMILES": "S(C)C1=CC=C(N)C=C1", "physical_data": {"Molecular Weight": "139.22", "Molecular Formula": "C7H9NS", "Boiling Point": "272.5 \u00b0C", "Melting Point": "156-158 \u00b0C"}}