{"cas_no": "104-51-8", "cn_name": "\u4e01\u82ef", "en_name": ["Butylbenzene", "Benzene, butyl-", "Butylbenzene", "n-Butylbenzene", "1-Phenylbutane", "1-Butylbenzene", "NSC 8465"], "SMILES": "C(CCC)C1=CC=CC=C1", "physical_data": {"Molecular Weight": "134.22", "Molecular Formula": "C10H14", "Boiling Point": "183.3 \u00b0C", "Melting Point": "-87.9 \u00b0C", "Density": "0.8601 g/cm\u00b3 @ Temp: 20 \u00b0C"}}