{"cas_no": "104-11-0", "cn_name": "N-(4-\u6c2f\u82c4\u57fa)-N-\u7532\u80fa", "en_name": ["4-Chloro-N-methylbenzenemethanamine", "Benzenemethanamine, 4-chloro-N-methyl-", "Benzylamine, p-chloro-N-methyl-", "4-Chloro-N-methylbenzenemethanamine", "p-Chloro-N-methylbenzylamine", "4-Chloro-N-methylbenzylamine", "N-Methyl-p-chlorobenzylamine", "N-(p-Chlorobenzyl)-N-methylamine", "(4-Chlorobenzyl)methylamine", "N-Methyl-4-chlorobenzylamine", "NSC 39968", "N-Methyl-N-(4-chlorobenzyl)amine", "N-(4-Chlorobenzyl)-N-methylamine", "4-Chlorobenzyl-N-methylamine", "1-(4-Chlorophenyl)-N-methylmethanamine", "[(4-Chlorophenyl)methyl](methyl)amine"], "SMILES": "C(NC)C1=CC=C(Cl)C=C1", "physical_data": {"Molecular Weight": "155.62", "Molecular Formula": "C8H10ClN", "Boiling Point": "120-123 \u00b0C @ Press: 15 Torr"}}