{"cas_no": "104-49-4", "cn_name": "\u5bf9\u82ef\u4e8c\u5f02\u6c30\u9178\u916f", "en_name": ["p-Phenylene diisocyanate", "Benzene, 1,4-diisocyanato-", "Isocyanic acid, p-phenylene ester", "Hydroquinone, diisocyanate", "1,4-Diisocyanatobenzene", "p-Phenylene diisocyanate", "p-Phenylene isocyanate", "1,4-Phenylene diisocyanate", "1,4-Phenylenebis(isocyanate)", "NSC 94776", "PPDI"], "SMILES": "N(=C=O)C1=CC=C(N=C=O)C=C1", "physical_data": {"Molecular Weight": "160.13", "Molecular Formula": "C8H4N2O2", "Boiling Point": "124-125 \u00b0C @ Press: 10 Torr", "Melting Point": "93-94 \u00b0C (sublm)"}}