{"cas_no": "104-98-3", "cn_name": "\u5c3f\u520a\u9178", "en_name": ["Urocanic acid", "2-Propenoic acid, 3-(1H-imidazol-5-yl)-", "Imidazole-4-acrylic acid", "2-Propenoic acid, 3-(1H-imidazol-4-yl)-", "3-(1H-Imidazol-5-yl)-2-propenoic acid", "Urocanic acid", "Urocaninic acid", "5-Imidazoleacrylic acid", "3-(1H-Imidazol-4-yl)acrylic acid", "3-(4-Imidazolyl)acrylic acid", "NSC 66357", "3-(1H-Imidazol-4-yl)-2-propenoic acid", "4-Imidazolylacrylic acid", "MeSH ID: D014560"], "SMILES": "C(=CC(O)=O)C1=CN=CN1", "physical_data": {"Molecular Weight": "138.12", "Molecular Formula": "C6H6N2O2", "Melting Point": "225 \u00b0C"}}