{"cas_no": "104-27-8", "cn_name": "1-(4-\u7532\u6c27\u82ef\u57fa)-1-\u620a\u70ef-3-\u916e", "en_name": ["1-(4-Methoxyphenyl)-1-penten-3-one", "1-Penten-3-one, 1-(4-methoxyphenyl)-", "1-Penten-3-one, 1-(p-methoxyphenyl)-", "1-(4-Methoxyphenyl)-1-penten-3-one", "1-p-Methoxyphenylpent-1-en-3-one", "\u03b1-Methylanisalacetone", "Ethyl p-methoxystyryl ketone", "NSC 133448"], "SMILES": "C(=CC(CC)=O)C1=CC=C(OC)C=C1", "physical_data": {"Molecular Weight": "190.24", "Molecular Formula": "C12H14O2", "Melting Point": "61 \u00b0C"}}