{"cas_no": "104-68-7", "cn_name": "2-(2-\u82ef\u6c27\u57fa\u4e59\u6c27\u57fa)\u4e59\u9187", "en_name": ["Diethylene glycol monophenyl ether", "Ethanol, 2-(2-phenoxyethoxy)-", "2-(2-Phenoxyethoxy)ethanol", "Phenyl carbitol", "Diethylene glycol monophenyl ether", "Phenoxydiglycol", "Diethylene glycol phenyl ether", "Sunfine PH 20", "NSC 406593", "Phenyl Di Glycol", "PhDG", "2-(2-Phenoxyethoxy)ethan-1-ol", "Hisolve DPH"], "SMILES": "O(CCOCCO)C1=CC=CC=C1", "physical_data": {"Molecular Weight": "182.22", "Molecular Formula": "C10H14O3", "Boiling Point": "121-125 \u00b0C @ Press: 2 Torr", "Density": "1.1176 g/cm\u00b3 @ Temp: 20 \u00b0C"}}