{"cas_no": "104-78-9", "cn_name": "3-\u4e8c\u4e59\u80fa\u57fa\u4e19\u80fa", "en_name": ["N,N-Diethyl-1,3-propanediamine", "1,3-Propanediamine, N1,N1-diethyl-", "1,3-Propanediamine, N,N-diethyl-", "N1,N1-Diethyl-1,3-propanediamine", "1-Amino-3-(diethylamino)propane", "N-(3-Diethylaminopropyl)amine", "3-(Diethylamino)propylamine", "Diethylaminotrimethylenamine", "N,N-Diethyl-1,3-diaminopropane", "N,N-Diethyl-1,3-propanediamine", "3-Diethylamino-1-propylamine", "3-(N,N-Diethylamino)-1-propylamine", "\u03b3-(Diethylamino)propylamine", "N,N-Diethyltrimethylenediamine", "N,N-Diethyl-1,3-propylenediamine", "3-(Diethylamino)-n-propylamine", "N-(Diethylaminopropyl)amine", "3-(Diethylamino)propanamine", "3-(N,N-Diethylamino)propylamine", "NSC 7776", "N-(3-Aminopropyl)-N,N-diethylamine", "N1,N1-Diethylpropane-1,3-diamine", "N-(3-Aminopropyl)diethylamine", "(3-Diethylaminopropan-1-yl)amine", "N,N-Ethylpropane-1,3-diamine", "N-Aminopropyl-N,N-diethylamine", "N1,N1-Diethylpropane-1,3-diamine", "3-Diethylamino-1-propaneamine"], "SMILES": "N(CCCN)(CC)CC", "physical_data": {"Molecular Weight": "130.23", "Molecular Formula": "C7H18N2", "Boiling Point": "168.5 \u00b0C", "Density": "0.8283 g/cm\u00b3 @ Temp: 20 \u00b0C"}}