{"cas_no": "104-01-8", "cn_name": "\u5bf9\u7532\u6c27\u57fa\u82ef\u4e59\u9178", "en_name": ["(4-Methoxyphenyl)acetic acid", "Benzeneacetic acid, 4-methoxy-", "Acetic acid, (p-methoxyphenyl)-", "4-Methoxybenzeneacetic acid", "Homoanisic acid", "(p-Methoxyphenyl)acetic acid", "(4-Methoxyphenyl)acetic acid", "2-(p-Anisyl)acetic acid", "p-Anisylacetic acid", "2-(p-Methoxyphenyl)acetic acid", "NSC 27799", "NSC 65597", "2-(4-Methoxyphenyl)acetic acid", "4-Methoxyphenacetic acid"], "SMILES": "C(C(O)=O)C1=CC=C(OC)C=C1", "physical_data": {"Molecular Weight": "166.17", "Molecular Formula": "C9H10O3", "Boiling Point": "138 \u00b0C", "Melting Point": "87 \u00b0C"}}