{"cas_no": "104-54-1", "cn_name": "\u8089\u6842\u9187", "en_name": ["Cinnamyl alcohol", "2-Propen-1-ol, 3-phenyl-", "Cinnamyl alcohol", "3-Phenyl-2-propen-1-ol", "Cinnamic alcohol", "\u03b3-Phenylallyl alcohol", "Styrone", "Styryl carbinol", "Styryl alcohol", "3-Phenylallyl alcohol", "3-Phenyl-2-propenol", "3-Phenyl-2-propene-1-ol", "1-Phenyl-3-hydroxy-1-propene", "1-Phenylprop-1-en-3-ol", "3-Hydroxy-1-phenylprop-1-ene", "NSC 623440", "NSC 8775"], "SMILES": "C(=CCO)C1=CC=CC=C1", "physical_data": {"Molecular Weight": "134.18", "Molecular Formula": "C9H10O", "Boiling Point": "250.0 \u00b0C @ Press: 760 Torr", "Melting Point": "33 \u00b0C", "Density": "1.0397 g/cm\u00b3 @ Temp: 35 \u00b0C"}}