{"cas_no": "104-40-5", "cn_name": "4-\u6b63\u58ec\u57fa\u915a", "en_name": ["4-Nonylphenol", "Phenol, 4-nonyl-", "Phenol, p-nonyl-", "4-Nonylphenol", "p-Nonylphenol", "4-n-Nonyl phenol", "p-n-Nonylphenol", "p-NP"], "SMILES": "C(CCCCCCCC)C1=CC=C(O)C=C1", "physical_data": {"Molecular Weight": "220.35", "Molecular Formula": "C15H24O", "Boiling Point": "180-181 \u00b0C", "Melting Point": "42 \u00b0C", "Density": "0.9273 g/cm\u00b3 @ Temp: 20 \u00b0C"}}