{"cas_no": "104-38-1", "cn_name": "\u5bf9\u82ef\u4e8c\u915a\u4e8c\u7f9f\u4e59\u57fa\u919a", "en_name": ["Hydroquinone bis(2-hydroxyethyl) ether", "Ethanol, 2,2\u2032-[1,4-phenylenebis(oxy)]bis-", "Ethanol, 2,2\u2032-(p-phenylenedioxy)di-", "2,2\u2032-[1,4-Phenylenebis(oxy)]bis[ethanol]", "Hydroquinone bis(2-hydroxyethyl) ether", "1,4-Bis(2-hydroxyethoxy)benzene", "1,4-Bis(\u03b2-hydroxyethoxy)benzene", "2,2\u2032-(p-Phenylenedioxy)diethanol", "p-Phenylene bis(\u03b2-hydroxyethyl ether)", "2,2\u2032-(Phenylenedioxy)diethanol", "Hydroquinone diethylol ether", "Hydroquinone bis(\u03b2-hydroxyethyl) ether", "Bis(\u03b2-hydroxyethyl) hydroquinone ether", "Vernatzer 30/10", "Hydroquinone di(2-hydroxyethyl ether)", "1,4-(2-Hydroxyethoxy)benzene", "Thanecure HQ", "HQ 20", "NSC 1862", "NSC 26611", "1,4-Bis(2\u2032-hydroxyethoxy)benzene", "Poly-G HQEE", "HQ 2", "1,4-Di(2-hydroxyethoxy)benzene", "p-Di(2-hydroxyethoxy)benzene", "Hydroquinone dihydroxyethyl ether", "2-[4-(2-Hydroxyethoxy)phenoxy]ethanol", "Addolink 30/10", "Hydroquinone bis(2-hydroxylethyl) ether", "HQEE", "1,4-Di(2-hydroxyethyloxy)benzene", "1,4-Bis(2-hydroxyethyloxy)benzene", "1,4-Di-(\u03b2-hydroxyethyl)-hydroquinone", "Hardener 30/10", "2-[4-(2-Hydroxyethoxy)phenoxy]ethan-1-ol", "Vibracure 2101"], "SMILES": "O(CCO)C1=CC=C(OCCO)C=C1", "physical_data": {"Molecular Weight": "198.22", "Molecular Formula": "C10H14O4", "Melting Point": "96-97 \u00b0C"}}