{"cas_no": "104-06-3", "cn_name": "\u6c28\u786b\u8132", "en_name": ["4\u2032-Formylacetanilide thiosemicarbazone", "Acetamide, N-[4-[[2-(aminothioxomethyl)hydrazinylidene]methyl]phenyl]-", "Acetanilide, 4\u2032-formyl-, 4\u2032-(thiosemicarbazone)", "Acetamide, N-[4-[[(aminothioxomethyl)hydrazono]methyl]phenyl]-", "Acetanilide, 4\u2032-formyl-, thiosemicarbazone", "N-[4-[[2-(Aminothioxomethyl)hydrazinylidene]methyl]phenyl]acetamide", "Tb I/698", "Sdt 1041", "4207RP", "p-Acetamidobenzaldehyde thiosemicarbazone", "p-Acetylaminobenzaldehyde thiosemicarbazone", "Aktivan", "Ambathizon", "Amithiozone", "Antib", "Benthiozone", "Benzothiozane", "Benzothiozon", "Berculon A", "Berkazon", "Conteben", "Diasan", "Domakol", "4\u2032-Formylacetanilide thiosemicarbazone", "Ilbion", "Livazone", "Myvizone", "Neustab", "Novakol", "Nuclon argentinian", "Panrone", "Parazone", "Seroden", "Siocarbazone", "Tb I", "Tebalon", "Tebecure", "Tebemar", "Tebethion", "Tebethione", "Tebezon", "Thiacetazone", "Thiacetone", "Thibon", "Thibone", "Thioacetazone", "Thiocarbazil", "Thiomicid", "Thionicid", "Thioparamizone", "Thiotebezin", "Thizone", "Tibicur", "Tibione", "Tibon", "Tibone", "Tiobicina", "Tiocarone", "Tiosecolo", "Tubercazon", "Tebesone I", "Thiosemicarbazone", "Tubigal", "4-Acetylaminobenzaldehyde thiosemicarbazone", "Tioacetazon", "Tiacetazon", "Amitiozon", "Diazan", "Tibion", "Neotibil", "Tibizan", "Thioparamizon", "Mivizon", "Thioacetazon", "Tioatsetazon", "Tubin", "Thiotebicina", "Thiotebesin", "SQ 2321", "Thiosemicarbazone (pharmaceutical)", "Thiocarbazyl", "Diazane", "Mirizone Neustab", "NSC 3550", "MeSH ID: D013828"], "SMILES": "N(C(C)=O)C1=CC=C(C=NNC(N)=S)C=C1", "physical_data": {"Molecular Weight": "236.29", "Molecular Formula": "C10H12N4OS", "Melting Point": "225 \u00b0C (decomp)"}}