{"cas_no": "104-85-8", "cn_name": "\u5bf9\u7532\u82ef\u8148", "en_name": ["4-Methylbenzonitrile", "Benzonitrile, 4-methyl-", "p-Tolunitrile", "4-Methylbenzonitrile", "p-Methylbenzonitrile", "p-Tolylnitrile", "p-Cyanotoluene", "p-Toluenenitrile", "4-Cyanotoluene", "4-Methylcyanobenzene", "1-Cyano-4-methylbenzene", "p-Tolyl cyanide", "4-Toluenitrile", "4-Methylphenyl cyanide", "4-Tolyl cyanide", "NSC 70985", "4-Methylphenylnitrile"], "SMILES": "C(#N)C1=CC=C(C)C=C1", "physical_data": {"Molecular Weight": "117.15", "Molecular Formula": "C8H7N", "Boiling Point": "217 \u00b0C", "Melting Point": "29.5 \u00b0C"}}