{"cas_no": "104-42-7", "cn_name": "4-\u5341\u4e8c\u70f7\u57fa\u82ef\u80fa", "en_name": ["4-Dodecylaniline", "Benzenamine, 4-dodecyl-", "Aniline, p-dodecyl-", "4-Dodecylbenzenamine", "p-Dodecylaniline", "(p-Aminododecyl)benzene", "4-n-Dodecylaniline", "4-Dodecylaniline", "1-(p-Aminophenyl)dodecane", "4-Dodecylphenylamine"], "SMILES": "C(CCCCCCCCCCC)C1=CC=C(N)C=C1", "physical_data": {"Molecular Weight": "261.45", "Molecular Formula": "C18H31N", "Boiling Point": "220-221 \u00b0C", "Melting Point": "40.5 \u00b0C"}}