{"cas_no": "104-80-3", "cn_name": "2,5-\u4e8c\u7f9f\u7532\u57fa\u56db\u6c22\u544b\u5583", "en_name": ["2,5-Bis[hydroxymethyl]tetrahydrofuran", "Hexitol, 2,5-anhydro-3,4-dideoxy-", "2,5-Furandimethanol, tetrahydro-", "2,5-Anhydro-3,4-dideoxyhexitol", "2,5-Bis[hydroxymethyl]tetrahydrofuran", "Tetrahydro-2,5-furandimethanol", "NSC 40741", "(Tetrahydrofuran-2,5-diyl)dimethanol", "2,5-Dihydroxymethyltetrahydrofuran", "2,5-Dihydroxymethyltetrahydrofurane", "[5-(Hydroxymethyl)oxolan-2-yl]methanol"], "SMILES": "C(O)C1OC(CO)CC1", "physical_data": {"Molecular Weight": "132.16", "Molecular Formula": "C6H12O3", "Boiling Point": "265 \u00b0C", "Density": "1.1544 g/cm\u00b3 @ Temp: 25 \u00b0C"}}