{"cas_no": "104-84-7", "cn_name": "4-\u7532\u57fa\u82c4\u80fa", "en_name": ["4-Methylbenzylamine", "Benzenemethanamine, 4-methyl-", "Benzylamine, p-methyl-", "4-Methylbenzenemethanamine", "p-Methylbenzylamine", "p-Tolylmethylamine", "p-Methylbenzenemethanamine", "4-Aminomethyltoluene", "((4-Methylphenyl)methyl)amine", "NSC 66562", "4-Methylbenzylamine", "4-Methylphenylmethanamine", "p-Tolylmethanamine"], "SMILES": "C(N)C1=CC=C(C)C=C1", "physical_data": {"Molecular Weight": "121.18", "Molecular Formula": "C8H11N", "Boiling Point": "195 \u00b0C", "Melting Point": "12.5 \u00b0C", "Density": "0.9666 g/cm\u00b3 @ Temp: 20 \u00b0C"}}