{"cas_no": "104-75-6", "cn_name": "2-\u4e59\u57fa\u5df1\u80fa", "en_name": ["2-Ethylhexylamine", "1-Hexanamine, 2-ethyl-", "Hexylamine, 2-ethyl-", "2-Ethyl-1-hexanamine", "2-Ethylhexylamine", "1-Amino-2-ethylhexane", "\u03b2-Ethylhexylamine", "2-Ethyl-1-hexylamine", "2-Ethylhexanamine", "2-Ethyl-1-aminohexane"], "SMILES": "C(CCCC)(CC)CN", "physical_data": {"Molecular Weight": "129.24", "Molecular Formula": "C8H19N", "Boiling Point": "169 \u00b0C", "Melting Point": "-76 \u00b0C"}}