{"cas_no": "104-12-1", "cn_name": "\u5bf9\u6c2f\u82ef\u5f02\u6c30\u9178\u916f", "en_name": ["4-Chlorophenyl isocyanate", "Benzene, 1-chloro-4-isocyanato-", "Isocyanic acid, p-chlorophenyl ester", "1-Chloro-4-isocyanatobenzene", "p-Chlorophenyl isocyanate", "4-Chlorophenyl isocyanate", "4-Chloroisocyanatobenzene", "1-Isocyanato-4-chlorobenzene", "NSC 76589", "4-Chloro-1-isocyanatobenzene"], "SMILES": "N(=C=O)C1=CC=C(Cl)C=C1", "physical_data": {"Molecular Weight": "153.57", "Molecular Formula": "C7H4ClNO", "Boiling Point": "115-117 \u00b0C @ Press: 45 Torr", "Melting Point": "30-31 \u00b0C"}}