{"cas_no": "104-29-0", "cn_name": "\u6c2f\u82ef\u7518\u919a", "en_name": ["Chlorphenesin", "1,2-Propanediol, 3-(4-chlorophenoxy)-", "1,2-Propanediol, 3-(p-chlorophenoxy)-", "3-(4-Chlorophenoxy)-1,2-propanediol", "Adermykon", "p-Chlorophenyl glyceryl ether", "p-Chlorophenyl-\u03b1-glyceryl ether", "Chlorphenesin", "Glycerol \u03b1-p-chlorophenyl ether", "Mycil", "3-(p-Chlorophenoxy)propane-1,2-diol", "Demykon", "Gecophen", "p-Chlorphenesin", "(\u00b1)-Chlorphenesin", "(\u00b1)-p-Chlorphenesin", "Elestab CPN", "NSC 6401", "1,2-Ethanediol, 1-(4-chlorophenoxy)-", "MeSH ID: D002743", "Purecare CHP XO"], "SMILES": "O(CC(CO)O)C1=CC=C(Cl)C=C1", "physical_data": {"Molecular Weight": "202.63", "Molecular Formula": "C9H11ClO3", "Melting Point": "78 \u00b0C"}}