{"cas_no": "104-45-0", "cn_name": "\u4e8c\u6c22\u5927\u8334\u9999\u8111", "en_name": ["4-Propylanisole", "Benzene, 1-methoxy-4-propyl-", "Anisole, p-propyl-", "1-Methoxy-4-propylbenzene", "Dihydroanethole", "p-Propylanisole", "4-Propylanisole", "4-n-Propylanisole", "Methyl p-propylphenyl ether", "p-Propylphenol methyl ether", "4-Methoxy-1-propylbenzene", "NSC 37996"], "SMILES": "C(CC)C1=CC=C(OC)C=C1", "physical_data": {"Molecular Weight": "150.22", "Molecular Formula": "C10H14O", "Boiling Point": "211.5 \u00b0C", "Melting Point": "45-46 \u00b0C", "Density": "0.9312 g/cm\u00b3 @ Temp: 20 \u00b0C"}}