{"cas_no": "104-67-6", "cn_name": "\u6843\u919b", "en_name": ["\u03b3-Undecalactone", "2(3H)-Furanone, 5-heptyldihydro-", "Undecanoic acid, 4-hydroxy-, \u03b3-lactone", "5-Heptyldihydro-2(3H)-furanone", "\u03b3-n-Heptylbutyrolactone", "Peach lactone", "Persicol", "\u03b3-Undecalactone", "\u03b3-Undecanolide", "\u03b3-Heptylbutyrolactone", "4-Hydroxyundecanoic acid lactone", "\u03b3-Undecanolactone", "\u03b3-Heptyl-\u03b3-butyrolactone", "4-Undecanolide", "\u03b3-(n-Heptyl)-\u03b3-butyrolactone", "(RS)-\u03b3-Undecalactone", "(\u00b1)-\u03b3-Undecalactone", "Peche Pure", "NSC 406421", "NSC 46118", "NSC 76413", "5-Heptyltetrahydro-2-furanone", "Neutralizing agent 350120-1", "Peach Pure", "Aldehyde C14 peach", "5-Heptyldihydrofuran-2(3H)-one", "Peach aldehyde"], "SMILES": "C(CCCCCC)C1OC(=O)CC1", "physical_data": {"Molecular Weight": "184.28", "Molecular Formula": "C11H20O2", "Boiling Point": "286 \u00b0C", "Density": "0.9494 g/cm\u00b3 @ Temp: 20 \u00b0C"}}