{"cas_no": "104-88-1", "cn_name": "\u5bf9\u6c2f\u82ef\u7532\u919b", "en_name": ["4-Chlorobenzaldehyde", "Benzaldehyde, 4-chloro-", "Benzaldehyde, p-chloro-", "4-Chlorobenzaldehyde", "p-Chlorobenzaldehyde", "p-Chlorobenzenecarboxaldehyde", "para-Chlorobenzaldehyde", "p-Chlorophenylaldehyde", "NSC 2078", "4-Formylphenyl chloride", "1-Chloro-4-formylbenzene"], "SMILES": "C(=O)C1=CC=C(Cl)C=C1", "physical_data": {"Molecular Weight": "140.57", "Molecular Formula": "C7H5ClO", "Boiling Point": "213.5 \u00b0C", "Melting Point": "47.5 \u00b0C"}}