{"cas_no": "104-47-2", "cn_name": "\u5bf9\u7532\u6c27\u57fa\u82ef\u4e59\u8148", "en_name": ["(4-Methoxyphenyl)acetonitrile", "Benzeneacetonitrile, 4-methoxy-", "Acetonitrile, (p-methoxyphenyl)-", "4-Methoxybenzeneacetonitrile", "p-Methoxybenzyl cyanide", "(p-Methoxyphenyl)acetonitrile", "p-Methoxybenzeneacetonitrile", "(4-Methoxyphenyl)acetonitrile", "p-Anisylacetonitrile", "4-Methoxybenzyl cyanide", "NSC 96", "p-Methoxybenzylnitrile", "2-(4-Methoxyphenyl)acetonitrile", "PAI 106", "1-(Cyanomethyl)-4-methoxybenzene"], "SMILES": "C(C#N)C1=CC=C(OC)C=C1", "physical_data": {"Molecular Weight": "147.17", "Molecular Formula": "C9H9NO", "Boiling Point": "286.5 \u00b0C"}}