{"cas_no": "104-94-9", "cn_name": "\u5bf9\u6c28\u57fa\u82ef\u7532\u919a", "en_name": ["4-Methoxyaniline", "Benzenamine, 4-methoxy-", "p-Anisidine", "4-Methoxybenzenamine", "p-Aminoanisole", "4-Aminoanisole", "p-Methoxyphenylamine", "p-Anisylamine", "4-Methoxyaniline", "p-Anisidine", "p-Methoxyaniline", "1-Amino-4-methoxybenzene", "p-Aminomethoxybenzene", "4-Methoxyphenylamine", "1,4-Anisidine", "4-Aminomethoxybenzene", "4-Methoxylaniline", "Methyl 4-aminophenyl ether", "Anisidine", "NSC 7921", "4-Methoxy-1-aminobenzene"], "SMILES": "O(C)C1=CC=C(N)C=C1", "physical_data": {"Molecular Weight": "123.15", "Molecular Formula": "C7H9NO", "Boiling Point": "243 \u00b0C", "Melting Point": "57.2 \u00b0C", "Density": "1.071 g/cm\u00b3 @ Temp: 57 \u00b0C"}}