{"cas_no": "104-24-5", "cn_name": "4-\u82ef\u57fa\u5076\u6c2e\u82ef\u7532\u9170\u6c2f", "en_name": ["4-Phenylazobenzoyl chloride", "Benzoyl chloride, 4-(2-phenyldiazenyl)-", "Benzoyl chloride, p-(phenylazo)-", "Benzoyl chloride, 4-(phenylazo)-", "4-(2-Phenyldiazenyl)benzoyl chloride", "p-(Phenylazo)benzoyl chloride", "4-Phenylazobenzoyl chloride", "NSC 7955", "4-(Chlorocarbonyl)azobenzene"], "SMILES": "N(=NC1=CC=CC=C1)C2=CC=C(C(Cl)=O)C=C2", "physical_data": {"Molecular Weight": "244.68", "Molecular Formula": "C13H9ClN2O", "Melting Point": "94.5-95.5 \u00b0C"}}