{"cas_no": "104-62-1", "cn_name": "\u7532\u9178-2-\u82ef\u4e59\u916f", "en_name": ["2-Phenylethyl formate", "Formic acid, 2-phenylethyl ester", "Phenethyl alcohol, formate", "Formic acid, phenethyl ester", "Benzylcarbinyl formate", "Phenethyl formate", "\u03b2-Phenylethyl formate", "2-Phenylethyl formate", "2-Phenethyl formate", "\u03b2-Phenethyl formate", "NSC 404456"], "SMILES": "C(COC=O)C1=CC=CC=C1", "physical_data": {"Molecular Weight": "150.17", "Molecular Formula": "C9H10O2", "Boiling Point": "86-90 \u00b0C @ Press: 14 Torr"}}