{"cas_no": "104-76-7", "cn_name": "2-\u4e59\u57fa\u5df1\u9187", "en_name": ["2-Ethylhexanol", "1-Hexanol, 2-ethyl-", "2-Ethyl-1-hexanol", "2-Ethylhexanol", "2-Ethylhexyl alcohol", "Ethylhexanol", "(\u00b1)-2-Ethyl-1-hexanol", "2-Ethyl-1-hexyl alcohol", "NSC 9300", "Conol 10WS", "G 301", "Guerbet C8"], "SMILES": "C(CCCC)(CC)CO", "physical_data": {"Molecular Weight": "130.23", "Molecular Formula": "C8H18O", "Boiling Point": "184.34 \u00b0C", "Melting Point": "-76 \u00b0C", "Density": "0.8344 g/cm\u00b3 @ Temp: 20 \u00b0C"}}