{"cas_no": "104-81-4", "cn_name": "4-\u7532\u57fa\u6eb4\u82c4", "en_name": ["4-Methylbenzyl bromide", "Benzene, 1-(bromomethyl)-4-methyl-", "p-Xylene, \u03b1-bromo-", "1-(Bromomethyl)-4-methylbenzene", "\u03b1-Bromo-p-xylene", "p-Methylbenzyl bromide", "p-Xylyl bromide", "p-Xylyl \u03b1-bromide", "\u03b1-Bromo-p-xylol", "4-Methylbenzyl bromide", "p-(Bromomethyl)toluene", "4-(Bromomethyl)toluene", "NSC 8050", "1-(Bromomethy)-4-methylbenzene"], "SMILES": "C(Br)C1=CC=C(C)C=C1", "physical_data": {"Molecular Weight": "185.06", "Molecular Formula": "C8H9Br", "Boiling Point": "218-220 \u00b0C @ Press: 740 Torr", "Melting Point": "38 \u00b0C", "Density": "1.324 g/cm\u00b3"}}