{"cas_no": "104-92-7", "cn_name": "4-\u6eb4\u82ef\u7532\u919a", "en_name": ["4-Bromoanisole", "Benzene, 1-bromo-4-methoxy-", "Anisole, p-bromo-", "1-Bromo-4-methoxybenzene", "p-Bromoanisole", "4-Bromoanisole", "p-Bromanisole", "p-Bromophenyl methyl ether", "4-Methoxy-1-bromobenzene", "p-Methoxyphenyl bromide", "p-Methoxybromobenzene", "4-Methoxybromobenzene", "4-Anisyl bromide", "4-Methoxyphenyl bromide", "p-Anisyl bromide", "4-Bromomethoxybenzene", "p-Bromomethoxybenzene", "4-Bromo-1-methoxybenzene", "1-Methoxy-4-bromobenzene", "NSC 8042", "4-Bromoanisol"], "SMILES": "O(C)C1=CC=C(Br)C=C1", "physical_data": {"Molecular Weight": "187.03", "Molecular Formula": "C7H7BrO", "Boiling Point": "215 \u00b0C", "Melting Point": "13.5 \u00b0C"}}