{"cas_no": "104-79-0", "cn_name": "N,N-\u4e8c\u4e59\u57fa-N'-\u7532\u57fa\u4e59\u4e8c\u80fa", "en_name": ["N,N-Diethyl-N\u2032-methylethylenediamine", "1,2-Ethanediamine, N1,N1-diethyl-N2-methyl-", "Ethylenediamine, N,N-diethyl-N\u2032-methyl-", "1,2-Ethanediamine, N,N-diethyl-N\u2032-methyl-", "N1,N1-Diethyl-N2-methyl-1,2-ethanediamine", "N,N-Diethyl-N\u2032-methylethylenediamine", "2-(Diethylamino)-N-methylethylamine", "[2-(Diethylamino)ethyl]methylamine", "N,N-Diethyl-N\u2032-methyl-1,2-ethanediamine", "Methyl(2-(diethylamino)ethyl)amine", "NSC 27480", "N-[2-(Diethylamino)ethyl]-N-methylamine", "Diethyl(2-methylaminoethyl)amine"], "SMILES": "N(CCNC)(CC)CC", "physical_data": {"Molecular Weight": "130.23", "Molecular Formula": "C7H18N2", "Boiling Point": "155-160 \u00b0C"}}