{"cas_no": "104-93-8", "cn_name": "\u5bf9\u7532\u82ef\u7532\u919a", "en_name": ["4-Methylanisole", "Benzene, 1-methoxy-4-methyl-", "Anisole, p-methyl-", "1-Methoxy-4-methylbenzene", "p-Cresol methyl ether", "p-Cresyl methyl ether", "p-Methoxytoluene", "4-Methoxytoluene", "p-Methylanisole", "O-Methyl-p-cresol", "Methyl p-tolyl ether", "p-Tolyl methyl ether", "4-Methylanisole", "Methyl p-methylphenyl ether", "1-Methyl-4-methoxybenzene", "4-Methyl-1-methoxybenzene", "4-Cresol methyl ether", "NSC 6254", "4-Methoxy-1-methylbenzene"], "SMILES": "O(C)C1=CC=C(C)C=C1", "physical_data": {"Molecular Weight": "122.16", "Molecular Formula": "C8H10O", "Boiling Point": "175.5 \u00b0C @ Press: 760 Torr", "Melting Point": "-32 \u00b0C", "Density": "0.969 g/cm\u00b3 @ Temp: 25 \u00b0C"}}