{"cas_no": "104-91-6", "cn_name": "4-\u4e9a\u785d\u57fa\u82ef\u915a", "en_name": ["4-Nitrosophenol", "Phenol, 4-nitroso-", "Phenol, p-nitroso-", "4-Nitrosophenol", "p-Nitrosophenol", "Nitrosophenol", "NSC 3124"], "SMILES": "N(=O)C1=CC=C(O)C=C1", "physical_data": {"Molecular Weight": "123.11", "Molecular Formula": "C6H5NO2", "Melting Point": "144 \u00b0C (decomp)"}}