{"cas_no": "104-36-9", "cn_name": "1,4-\u4e8c\u4e01\u6c27\u57fa\u82ef", "en_name": ["1,4-Dibutoxybenzene", "Benzene, 1,4-dibutoxy-", "Benzene, p-dibutoxy-", "1,4-Dibutoxybenzene", "p-Dibutoxybenzene", "Hydroquinone dibutyl ether", "1,4-Bis(butoxy)benzene", "NSC 2754", "NSC 404303", "1,4-Dibutoxyphenylene"], "SMILES": "O(CCCC)C1=CC=C(OCCCC)C=C1", "physical_data": {"Molecular Weight": "222.32", "Molecular Formula": "C14H22O2", "Boiling Point": "125-135 \u00b0C @ Press: 5 Torr", "Melting Point": "45.5 \u00b0C"}}