{"cas_no": "104-09-6", "cn_name": "4-\u7532\u57fa\u82ef\u4e59\u919b", "en_name": ["p-Tolylacetaldehyde", "Benzeneacetaldehyde, 4-methyl-", "Acetaldehyde, p-tolyl-", "4-Methylbenzeneacetaldehyde", "p-Methylphenylacetaldehyde", "p-Tolylacetaldehyde", "(4-Methylphenyl)acetaldehyde", "2-(4-Methylphenyl)acetaldehyde", "p-Toluacetaldehyde", "2-(p-Tolyl)acetaldehyde", "Syringa aldehyde"], "SMILES": "C(C=O)C1=CC=C(C)C=C1", "physical_data": {"Molecular Weight": "134.18", "Molecular Formula": "C9H10O", "Boiling Point": "221.5 \u00b0C", "Melting Point": "40 \u00b0C", "Density": "1.0030 g/cm\u00b3 @ Temp: 15 \u00b0C"}}