{"cas_no": "104-57-4", "cn_name": "\u7532\u9178\u82c4\u916f", "en_name": ["Benzyl formate", "Formic acid, phenylmethyl ester", "Formic acid, benzyl ester", "Benzyl formate", "Benzyl methanoate", "Benzyl alcohol, formate", "NSC 8049"], "SMILES": "C(OC=O)C1=CC=CC=C1", "physical_data": {"Molecular Weight": "136.15", "Molecular Formula": "C8H8O2", "Boiling Point": "203 \u00b0C", "Melting Point": "8.2-8.4 \u00b0C"}}