{"cas_no": "104-77-8", "cn_name": "3-\u6c2f-1-\u4e8c\u4e59\u6c28\u57fa\u4e19\u70f7", "en_name": ["3-Chloro-N,N-diethyl-1-propanamine", "1-Propanamine, 3-chloro-N,N-diethyl-", "Propylamine, 3-chloro-N,N-diethyl-", "3-Chloro-N,N-diethyl-1-propanamine", "3-Chloro-N,N-diethylpropanamine", "3-Chloro-N,N-diethylpropylamine", "3-(Diethylamino)propyl chloride", "3-(N,N-Diethylamino)propyl chloride", "1-Chloro-3-diethylaminopropane", "3-Diethylamino-1-chloropropane", "N-(3-Chloropropyl)diethylamine", "Diethylaminopropyl chloride", "1-Diethylamino-3-chloropropane", "Diethyl(3-chloropropyl)amine", "(3-Chloropropyl)diethylamine", "3-Chloro-N,N-diethyl-N-propylamine", "3-(N,N-Diethylamino)-1-chloropropane"], "SMILES": "N(CCCCl)(CC)CC", "physical_data": {"Molecular Weight": "149.66", "Molecular Formula": "C7H16ClN", "Boiling Point": "169-171 \u00b0C", "Density": "0.980 g/cm\u00b3 @ Temp: 20 \u00b0C"}}