{"cas_no": "104-13-2", "cn_name": "4-\u6b63\u4e01\u57fa\u82ef\u80fa", "en_name": ["4-Butylaniline", "Benzenamine, 4-butyl-", "Aniline, p-butyl-", "4-Butylbenzenamine", "p-Butylaniline", "4-Butylaniline", "p-Aminobutylbenzene", "p-n-Butylaniline", "4-n-Butylaniline", "p-Butylaminobenzene", "(4-Butylphenyl)amine"], "SMILES": "C(CCC)C1=CC=C(N)C=C1", "physical_data": {"Molecular Weight": "149.23", "Molecular Formula": "C10H15N", "Boiling Point": "261 \u00b0C", "Melting Point": "80.5-81.5 \u00b0C", "Density": "0.946 g/cm\u00b3 @ Temp: 20 \u00b0C"}}