{"cas_no": "104-74-5", "cn_name": "\u5341\u4e8c\u70f7\u57fa\u6c2f\u5316\u5421\u5576", "en_name": ["Dodecylpyridinium chloride", "Pyridinium, 1-dodecyl-, chloride (1:1)", "Pyridinium, 1-dodecyl-, chloride", "1-Dodecylpyridinium chloride", "C 2", "Dodecylpyridinium chloride", "DPC", "Laurylpyridinium chloride", "LPC", "N-Dodecylpyridinium chloride", "Dehyquart C", "Eltren", "N-Laurylpyridinium chloride", "Quaternario LPC", "1-Laurylpyridinium chloride", "Dodecanepyridinium chloride", "1-n-Dodecanepyridinium chloride", "Newkalgen B 251", "DDPCl", "DPC (onium compound)", "Pionin B 251", "Pionin B 117L"], "SMILES": "C(CCCCCCCCCCC)[N+]=1C=CC=CC1.[Cl-]", "physical_data": {"Molecular Weight": "", "Molecular Formula": "C17H30N.Cl", "Boiling Point": "160 \u00b0C", "Melting Point": "71 \u00b0C", "Density": "0.982 g/cm\u00b3 @ Temp: 25 \u00b0C"}}