{"cas_no": "104-50-7", "cn_name": "\u4e19\u4f4d\u8f9b\u5185\u916f", "en_name": ["\u03b3-Octalactone", "2(3H)-Furanone, 5-butyldihydro-", "Octanoic acid, 4-hydroxy-, \u03b3-lactone", "Octanoic acid, 4-hydroxy-, lactone", "Caprylic acid, \u03b3-hydroxy-, lactone", "5-Butyldihydro-2(3H)-furanone", "\u03b3-Octalactone", "\u03b3-Butyl-\u03b3-butyrolactone", "\u03b3-Butylbutyrolactone", "4-Butyl-\u03b3-butyrolactone", "4-Hydroxyoctanoic acid lactone", "\u03b3-Octanolactone", "4-Octanolide", "5-Butyl-1-oxacyclopentan-2-one", "5-Butyltetrahydro-2-furanone", "(\u00b1)-4-n-Butylbutyrolactone", "(RS)-\u03b3-Octalactone", "(\u00b1)-\u03b3-Octalactone", "NSC 24270", "NSC 26509", "\u03b3-Caprylolactone"], "SMILES": "C(CCC)C1OC(=O)CC1", "physical_data": {"Molecular Weight": "142.20", "Molecular Formula": "C8H14O2", "Boiling Point": "132-133 \u00b0C @ Press: 20 Torr", "Melting Point": "91 \u00b0C", "Density": "0.9796 g/cm\u00b3 @ Temp: 19 \u00b0C"}}