{"cas_no": "104-87-0", "cn_name": "\u5bf9\u7532\u57fa\u82ef\u7532\u919b", "en_name": ["4-Methylbenzaldehyde", "Benzaldehyde, 4-methyl-", "p-Tolualdehyde", "4-Methylbenzaldehyde", "p-Methylbenzaldehyde", "4-Tolualdehyde", "p-Formyltoluene", "NSC 2224", "p-Toluic aldehyde", "PTAL"], "SMILES": "C(=O)C1=CC=C(C)C=C1", "physical_data": {"Molecular Weight": "120.15", "Molecular Formula": "C8H8O", "Boiling Point": "204 \u00b0C @ Press: 760 Torr", "Melting Point": "-6 \u00b0C", "Density": "1.0194 g/cm\u00b3 @ Temp: 17 \u00b0C"}}