{"cas_no": "104-82-5", "cn_name": "4-\u7532\u57fa\u6c2f\u82c4", "en_name": ["4-Methylbenzyl chloride", "Benzene, 1-(chloromethyl)-4-methyl-", "p-Xylene, \u03b1-chloro-", "1-(Chloromethyl)-4-methylbenzene", "\u03b1-Chloro-p-xylene", "p-Methylbenzyl chloride", "p-Xylyl chloride", "p-Xylyl-\u03b1-chloride", "p-(Chloromethyl)toluene", "4-Methylbenzyl chloride", "(4-Methylphenyl)methyl chloride", "p-Tolylmethyl chloride", "4-(Chloromethyl)toluene", "1-Methyl-4-chloromethylbenzene", "NSC 46590", "\u03b1-Chloro-p-methyltoluene"], "SMILES": "C(Cl)C1=CC=C(C)C=C1", "physical_data": {"Molecular Weight": "140.61", "Molecular Formula": "C8H9Cl", "Boiling Point": "200-202 \u00b0C", "Melting Point": "&lt;25 \u00b0C", "Density": "1.0512 g/cm\u00b3 @ Temp: 20 \u00b0C"}}