{"cas_no": "104-95-0", "cn_name": "4-\u6eb4\u8334\u9999\u786b\u919a", "en_name": ["4-Bromothioanisole", "Benzene, 1-bromo-4-(methylthio)-", "Sulfide, p-bromophenyl methyl", "1-Bromo-4-(methylthio)benzene", "p-Bromophenyl methyl sulfide", "4-Bromothioanisole", "Methyl 4-bromophenyl sulfide", "4-Bromo-1-(methylthio)benzene", "p-Bromo(methylthio)benzene", "p-Bromothioanisole", "4-Bromophenyl methyl sulfide", "p-(Methylthio)phenyl bromide", "Methyl p-bromophenyl sulfide", "1-Bromo-4-(methylsulfanyl)benzene", "NSC 73383", "4-(Methylthio)bromobenzene", "4-Methylthiophenyl bromide", "4-(Methylthio)-1-bromobenzene", "(4-Bromophenyl)(methyl)sulfane"], "SMILES": "S(C)C1=CC=C(Br)C=C1", "physical_data": {"Molecular Weight": "203.10", "Molecular Formula": "C7H7BrS", "Boiling Point": "230-232 \u00b0C", "Melting Point": "32 \u00b0C", "Density": "1.465 g/cm\u00b3 @ Temp: 1 \u00b0C"}}