{"cas_no": "104-97-2", "cn_name": "3-\u73af\u620a\u57fa\u4e19\u9170\u6c2f", "en_name": ["Cyclopentanepropanoyl chloride", "Cyclopentanepropanoyl chloride", "Cyclopentanepropionyl chloride", "3-Cyclopentylpropionyl chloride", "3-Cyclopentanepropionyl chloride", "3-Cyclopentylpropanoyl chloride", "3-Cyclopentylpropionic acid chloride"], "SMILES": "C(CC(Cl)=O)C1CCCC1", "physical_data": {"Molecular Weight": "160.64", "Molecular Formula": "C8H13ClO", "Boiling Point": "66 \u00b0C @ Press: 1.5 Torr"}}