{"cas_no": "104-16-5", "cn_name": "1-(3-\u6c2f\u4e19\u57fa)-4-\u7532\u57fa\u54cc\u55ea", "en_name": ["1-(3-Chloropropyl)-4-methylpiperazine", "Piperazine, 1-(3-chloropropyl)-4-methyl-", "1-(3-Chloropropyl)-4-methylpiperazine", "3-(4-Methylpiperazino)propyl chloride", "1-Methyl-4-(3-chloropropyl)piperazine", "1-Chloro-3-(4-methyl-1-piperazinyl)propane", "N-(3-Chloropropyl)-N\u2032-methylpiperazine", "3-(4-Methyl-1-piperazinyl)propyl chloride", "N-Methylpiperazinopropyl chloride"], "SMILES": "C(CCCl)N1CCN(C)CC1", "physical_data": {"Molecular Weight": "176.69", "Molecular Formula": "C8H17ClN2", "Boiling Point": "82-83 \u00b0C @ Press: 3 Torr", "Melting Point": "128-130 \u00b0C"}}