{"cas_no": "104-66-5", "cn_name": "1,2-\u4e8c\u82ef\u6c27\u57fa\u4e59\u70f7", "en_name": ["1,2-Diphenoxyethane", "Benzene, 1,1\u2032-[1,2-ethanediylbis(oxy)]bis-", "Ethane, 1,2-diphenoxy-", "1,1\u2032-[1,2-Ethanediylbis(oxy)]bis[benzene]", "1,2-Diphenoxyethane", "Ethylene glycol diphenyl ether", "2-Phenoxyethyl phenyl ether", "NSC 6794", "(2-Phenoxyethoxy)benzene", "2-Phenoxyethoxybenzene"], "SMILES": "O(CCOC1=CC=CC=C1)C2=CC=CC=C2", "physical_data": {"Molecular Weight": "214.26", "Molecular Formula": "C14H14O2", "Boiling Point": "182 \u00b0C", "Melting Point": "98 \u00b0C"}}