{"cas_no": "104-18-7", "cn_name": "2-(4-\u6c28\u57fa\u82ef\u57fa\u786b\u57fa)\u4e59\u9178", "en_name": ["2-[(4-Aminophenyl)thio]acetic acid", "Acetic acid, 2-[(4-aminophenyl)thio]-", "Acetic acid, [(p-aminophenyl)thio]-", "Acetic acid, [(4-aminophenyl)thio]-", "2-[(4-Aminophenyl)thio]acetic acid", "[(p-Aminophenyl)thio]acetic acid", "4-Aminophenylthioacetic acid", "p-Aminophenylmercaptoacetic acid", "4-Aminophenylmercaptoacetic acid", "NSC 125376", "NSC 43555", "(4-Aminophenylsulfanyl)ethanoic acid", "2-(4-Aminophenylthio)acetic acid", "2-[(4-Aminophenyl)sulfanyl]acetic acid"], "SMILES": "S(CC(O)=O)C1=CC=C(N)C=C1", "physical_data": {"Molecular Weight": "183.23", "Molecular Formula": "C8H9NO2S", "Melting Point": "196-197 \u00b0C"}}