{"cas_no": "104-61-0", "cn_name": "\u4e19\u4f4d\u58ec\u5185\u916f", "en_name": ["(\u00b1)-\u03b3-Nonalactone", "2(3H)-Furanone, dihydro-5-pentyl-", "Nonanoic acid, 4-hydroxy-, \u03b3-lactone", "Dihydro-5-pentyl-2(3H)-furanone", "\u03b3-n-Amylbutyrolactone", "\u03b3-Amyl-\u03b3-butyrolactone", "\u03b3-Nonalactone", "Prunolide", "\u03b3-Nonanolide", "\u03b3-Amylbutyrolactone", "4-Nonanolide", "4-Hydroxynonanoic acid lactone", "\u03b3-Nonanolactone", "4-Pentyl-butanolide", "Nonan-1,4-olide", "\u03b3-Pentyl-\u03b3-butyrolactone", "Cocos aldehyde", "Apricolin", "Aldehyde C18", "5-Pentyldihydro-2(3H)-furanone", "(\u00b1)-4-n-Pentylbutyrolactone", "(RS)-\u03b3-Nonalactone", "(\u00b1)-\u03b3-Nonalactone", "NSC 24253", "NSC 46099", "4-Pentylbutan-4-olide", "Nonyl lactone", "5-Pentyltetrahydrofuran-2-one"], "SMILES": "C(CCCC)C1OC(=O)CC1", "physical_data": {"Molecular Weight": "156.22", "Molecular Formula": "C9H16O2", "Boiling Point": "243 \u00b0C", "Density": "0.9513 g/cm\u00b3 @ Temp: 22 \u00b0C"}}