{"cas_no": "104-14-3", "cn_name": "\u5965\u514b\u5df4\u80fa", "en_name": ["Octopamine", "Benzenemethanol, \u03b1-(aminomethyl)-4-hydroxy-", "Benzyl alcohol, \u03b1-(aminomethyl)-p-hydroxy-", "\u03b1-(Aminomethyl)-4-hydroxybenzenemethanol", "\u03b1-(Aminomethyl)-p-hydroxybenzyl alcohol", "1-(p-Hydroxyphenyl)-2-aminoethanol", "p-Hydroxyphenylethanolamine", "Norden", "Norphen", "Norsympathol", "Octopamine", "Norsynephrine", "p-Octopamine", "Norsympatol", "4-Hydroxyphenethanolamine", "Analet", "Norton", "ND 50", "\u03b2-Hydroxy-\u03b2-(4-hydroxyphenyl)ethylamine", "DL-Octopamine", "(\u00b1)-Octopamine", "Win 5512", "dl-Octopamine", "(RS)-Octopamine", "Racemic octopamine", "4-[2-Amino-1-hydroxyethyl]phenol", "2-Amino-1-(4-hydroxyphenyl)ethanol", "(\u00b1)-Norsynephrine", "MeSH ID: D009655"], "SMILES": "C(CN)(O)C1=CC=C(O)C=C1", "physical_data": {"Molecular Weight": "153.18", "Molecular Formula": "C8H11NO2", "Melting Point": "157-158 \u00b0C"}}