{"cas_no": "104-90-5", "cn_name": "5-\u4e59\u57fa-2-\u7532\u57fa-\u5421\u5576", "en_name": ["5-Ethyl-2-methylpyridine", "Pyridine, 5-ethyl-2-methyl-", "2-Picoline, 5-ethyl-", "5-Ethyl-2-methylpyridine", "Aldehydine", "5-Ethyl-\u03b1-picoline", "5-Ethyl-2-picoline", "2-Methyl-5-ethylpyridine", "6-Methyl-3-ethylpyridine", "3-Ethyl-6-methylpyridine", "Aldehydecollidine", "Collidine, aldehydecollidine", "NSC 1984"], "SMILES": "C(C)C=1C=CC(C)=NC1", "physical_data": {"Molecular Weight": "121.18", "Molecular Formula": "C8H11N", "Boiling Point": "177.8 \u00b0C @ Press: 747 Torr", "Melting Point": "-70.9 \u00b0C", "Density": "0.9184 g/cm\u00b3 @ Temp: 23 \u00b0C"}}