{"cas_no": "104-72-3", "cn_name": "\u7678\u57fa\u82ef", "en_name": ["Decylbenzene", "Benzene, decyl-", "Decane, 1-phenyl-", "Decylbenzene", "1-Phenyldecane", "n-Decylbenzene", "1-Phenyl-n-decane", "NSC 74191"], "SMILES": "C(CCCCCCCCC)C1=CC=CC=C1", "physical_data": {"Molecular Weight": "218.38", "Molecular Formula": "C16H26", "Boiling Point": "298 \u00b0C", "Melting Point": "-14.4 \u00b0C", "Density": "0.8555 g/cm\u00b3 @ Temp: 20 \u00b0C"}}