{"cas_no": "104-03-0", "cn_name": "\u5bf9\u785d\u57fa\u82ef\u4e59\u9178", "en_name": ["(4-Nitrophenyl)acetic acid", "Benzeneacetic acid, 4-nitro-", "Acetic acid, (p-nitrophenyl)-", "4-Nitrobenzeneacetic acid", "(p-Nitrophenyl)acetic acid", "p-Nitro-\u03b1-toluic acid", "2-(p-Nitrophenyl)acetic acid", "(4-Nitrophenyl)acetic acid", "NSC 5398", "2-(4-Nitrophenyl)acetic acid"], "SMILES": "C(C(O)=O)C1=CC=C(N(=O)=O)C=C1", "physical_data": {"Molecular Weight": "181.15", "Molecular Formula": "C8H7NO4", "Melting Point": "154 \u00b0C"}}