{"cas_no": "104-53-0", "cn_name": "\u82ef\u4e19\u919b", "en_name": ["Benzenepropanal", "Benzenepropanal", "Hydrocinnamaldehyde", "Benzylacetaldehyde", "Hydrocinnamic aldehyde", "3-Phenylpropanal", "\u03b2-Phenylpropionaldehyde", "3-Phenylpropyl aldehyde", "3-Phenylpropionaldehyde", "3-Phenyl-1-propanal", "Dihydrocinnamaldehyde", "NSC 9271", "3-Phenylpropanaldehyde"], "SMILES": "C(CC=O)C1=CC=CC=C1", "physical_data": {"Molecular Weight": "134.18", "Molecular Formula": "C9H10O", "Boiling Point": "224 \u00b0C", "Melting Point": "47 \u00b0C", "Density": "1.018 g/cm\u00b3 @ Temp: 20 \u00b0C"}}