{"cas_no": "104-20-1", "cn_name": "4-(4-\u7532\u6c27\u82ef\u57fa)-2-\u4e01\u916e", "en_name": ["4-(4-Methoxyphenyl)-2-butanone", "2-Butanone, 4-(4-methoxyphenyl)-", "2-Butanone, 4-(p-methoxyphenyl)-", "4-(4-Methoxyphenyl)-2-butanone", "ENT 20279", "1-(p-Methoxyphenyl)-3-butanone", "4-(p-Methoxyphenyl)-2-butanone", "p-Anisylacetone", "1-(4-Methoxyphenyl)-3-butanone", "Raspberry ketone methyl ether", "4-Methoxybenzylacetone", "NSC 405366", "Anisylacetone", "4-[4-(Methyloxy)phenyl]-2-butanone", "4-(4\u2032-Methoxyphenyl)-2-butanone", "Frambinone methyl ether"], "SMILES": "C(CC(C)=O)C1=CC=C(OC)C=C1", "physical_data": {"Molecular Weight": "178.23", "Molecular Formula": "C11H14O2", "Boiling Point": "177 \u00b0C @ Press: 25 Torr", "Melting Point": "9 \u00b0C", "Density": "1.0457 g/cm\u00b3 @ Temp: 20 \u00b0C"}}