{"cas_no": "104-28-9", "cn_name": "\u897f\u8bfa\u6c99\u916f", "en_name": ["Cinoxate", "2-Propenoic acid, 3-(4-methoxyphenyl)-, 2-ethoxyethyl ester", "Cinnamic acid, p-methoxy-, 2-ethoxyethyl ester", "Ethanol, 2-ethoxy-, p-methoxycinnamate", "2-Ethoxyethyl p-methoxycinnamate", "Cinoxate", "Giv Tan F", "p-Methoxycinnamic acid 2-ethoxyethyl ester", "Give-Tan", "Sundare", "Phiasol", "2-Ethoxyethyl 4-methoxycinnamate"], "SMILES": "C(=CC(OCCOCC)=O)C1=CC=C(OC)C=C1", "physical_data": {"Molecular Weight": "250.29", "Molecular Formula": "C14H18O4", "Boiling Point": "185.5 \u00b0C", "Melting Point": "-25 \u00b0C", "Density": "1.1000 g/cm\u00b3"}}