{"cas_no": "104-63-2", "cn_name": "N-\u82c4\u57fa\u4e59\u9187\u80fa", "en_name": ["Benzylethanolamine", "Ethanol, 2-[(phenylmethyl)amino]-", "Ethanol, 2-(benzylamino)-", "2-[(Phenylmethyl)amino]ethanol", "N-Benzylethanolamine", "Benzylethanolamine", "N-Benzylaminoethanol", "2-(Benzylamino)ethanol", "Benzylaminoethanol", "Benzyl(2-hydroxyethyl)amine", "N-Benzyl-2-hydroxyethylamine", "2-(N-Benzylamino)ethanol", "N-Benzyl-2-aminoethanol", "N-(2-Hydroxyethyl)benzenemethanamine", "NSC 11271", "NSC 177008", "NSC 60267", "N-(2-Hydroxyethyl)benzylamine", "2-(Benzylamino)ethan-1-ol"], "SMILES": "C(NCCO)C1=CC=CC=C1", "physical_data": {"Molecular Weight": "151.21", "Molecular Formula": "C9H13NO", "Boiling Point": "153-156 \u00b0C", "Melting Point": "94-95 \u00b0C", "Density": "1.179 g/cm\u00b3 @ Temp: 25 \u00b0C"}}