{"cas_no": "104-15-4", "cn_name": "\u5bf9\u7532\u82ef\u78fa\u9178", "en_name": ["p-Toluenesulfonic acid", "Benzenesulfonic acid, 4-methyl-", "4-Methylbenzenesulfonic acid", "p-Methylbenzenesulfonic acid", "Tosic acid", "p-Methylphenylsulfonic acid", "Toluenesulfonic acid", "p-Toluenesulfonic acid", "p-Tolylsulfonic acid", "4-Toluenesulfonic acid", "K-Cure 1040", "Cyzac 4040", "Nacure 1040", "PTS 100", "NSC 167068", "NSC 2167", "KC 1040", "Dryer 900", "TSA 95", "Cat 51-53", "Taycatox 300", "C 250", "AD 3302W", "Methylbenzenesulfonic acid", "4-Methylbenzene-1-sulfonic acid", "Activator 100T3", "Cycat 4040", "KCG 3553", "4-Methyl-benzensulfonic acid", "p-Tsoh", "PTS-M 7000", "TsOH", "Cycat 602", "Aktivator 100 SR", "Taycacure AC 700", "Neocat C 4", "1-Methyl-4-(sulfosulfonyl)benzene", "Taycacure AC 707", "PS 80 (sulfonic acid)", "PS 80", "MeSH ID: D014105"], "SMILES": "S(=O)(=O)(O)C1=CC=C(C)C=C1", "physical_data": {"Molecular Weight": "172.20", "Molecular Formula": "C7H8O3S", "Boiling Point": "140 \u00b0C @ Press: 20 Torr", "Melting Point": "106-107 \u00b0C", "Density": "1.24 g/cm\u00b3"}}