{"cas_no": "104-58-5", "cn_name": "1-\u54cc\u5576\u4e19\u9187", "en_name": ["1-Piperidinepropanol", "1-Piperidinepropanol", "3-Piperidino-1-propanol", "3-Piperidinopropanol", "3-(1-Piperidinyl)propanol", "1-(3-Hydroxypropyl)piperidine", "3-(Piperidin-1-yl)propan-1-ol", "NSC 66531", "N-(3-Hydroxypropyl)piperidine", "3-(1-Piperidyl)propan-1-ol"], "SMILES": "C(CCO)N1CCCCC1", "physical_data": {"Molecular Weight": "143.23", "Molecular Formula": "C8H17NO", "Boiling Point": "225-228 \u00b0C @ Press: 750 Torr", "Density": "0.9585 g/cm\u00b3 @ Temp: 29 \u00b0C"}}