{"cas_no": "104-55-2", "cn_name": "\u8089\u6842\u919b", "en_name": ["Cinnamaldehyde", "2-Propenal, 3-phenyl-", "Cinnamaldehyde", "3-Phenyl-2-propenal", "Cassia aldehyde", "Cinnamal", "Cinnamic aldehyde", "Phenylacrolein", "3-Phenylpropenal", "3-Phenyl-2-propene-1-al", "Cinnamyl aldehyde", "3-Phenylacrolein", "Benzylideneacetaldehyde", "3-Phenyl-2-propenaldehyde", "Zimtaldehyde", "3-Phenyl-2-propen-1-al", "3-Phenylacrylaldehyde", "Abion CA", "\u03b2-Phenylacrolein", "Cinnamite", "NSC 16935", "NSC 40346", "Cinnacure", "XC 800"], "SMILES": "C(=CC=O)C1=CC=CC=C1", "physical_data": {"Molecular Weight": "132.16", "Molecular Formula": "C9H8O", "Boiling Point": "246 \u00b0C", "Melting Point": "-7.5 \u00b0C", "Density": "1.048-1.052 g/cm\u00b3 @ Temp: 25 \u00b0C"}}