{"cas_no": "104-86-9", "cn_name": "\u5bf9\u6c2f\u82c4\u80fa", "en_name": ["4-Chlorobenzylamine", "Benzenemethanamine, 4-chloro-", "Benzylamine, p-chloro-", "4-Chlorobenzenemethanamine", "p-Chlorobenzylamine", "4-Chlorobenzylamine", "(p-Chlorophenyl)methylamine", "(4-Chlorophenyl)methylamine", "p-Chlorobenzenemethanamine", "NSC 60119", "1-(4-Chlorophenyl)methanamine", "(4-Chlorophenyl)methanamine", "(p-Aminomethyl)phenyl chloride"], "SMILES": "C(N)C1=CC=C(Cl)C=C1", "physical_data": {"Molecular Weight": "141.60", "Molecular Formula": "C7H8ClN", "Boiling Point": "115-117 \u00b0C @ Press: 15 Torr", "Melting Point": "277-278 \u00b0C"}}