{"cas_no": "104-10-9", "cn_name": "4-\u6c28\u57fa\u82ef\u4e59\u9187", "en_name": ["2-(4-Aminophenyl)ethanol", "Benzeneethanol, 4-amino-", "Phenethyl alcohol, p-amino-", "4-Aminobenzeneethanol", "p-Aminophenethyl alcohol", "2-(p-Aminophenyl)ethanol", "2-(4-Aminophenyl)ethanol", "4-(2-Hydroxyethyl)aniline", "p-(2-Hydroxyethyl)aniline", "4-Aminophenethyl alcohol", "4-(2-Hydroxyethyl)phenylamine", "2-(4-Aminophenyl)-1-ethanol", "NSC 409780", "2-(4-Aminophenyl)ethyl alcohol"], "SMILES": "C(CO)C1=CC=C(N)C=C1", "physical_data": {"Molecular Weight": "137.18", "Molecular Formula": "C8H11NO", "Boiling Point": "230-235 \u00b0C @ Press: 3-5 Torr", "Melting Point": "109 \u00b0C"}}