{"cas_no": "104-71-2", "cn_name": "N,N'-\u53cc(\u82ef\u57fa\u4e9a\u7532\u57fa)-1,2-\u4e59\u4e8c\u80fa", "en_name": ["N1,N2-Bis(phenylmethylene)-1,2-ethanediamine", "1,2-Ethanediamine, N1,N2-bis(phenylmethylene)-", "Ethylenediamine, N,N\u2032-dibenzylidene-", "1,2-Ethanediamine, N,N\u2032-bis(phenylmethylene)-", "N1,N2-Bis(phenylmethylene)-1,2-ethanediamine", "N,N\u2032-Bis(benzylidene)ethylenediamine", "N,N\u2032-Dibenzylideneethylenediamine", "N,N\u2032-Dibenzylidene-1,2-ethanediamine", "BBEDA", "1,2-Bis((benzylideneamino)ethane", "NSC 519420", "N,N\u2032-Bis(benzylidene)-1,2-ethylenediamine", "N,N\u2032-Bis(phenylmethylidene)-1,2-ethanediamine", "Bis(benzylidene)ethylenediamine", "Ethanamine, 2-[bis(phenylmethylene)amino]-", "N,N-Dibenzylidene ethylenediamine", "2-[Bis(phenylmethylene)amino]ethanamine"], "SMILES": "C(=NCCN=CC1=CC=CC=C1)C2=CC=CC=C2", "physical_data": {"Molecular Weight": "236.31", "Molecular Formula": "C16H16N2", "Boiling Point": "175-177 \u00b0C @ Press: 2 Torr", "Melting Point": "235 \u00b0C"}}