{"cas_no": "104-65-4", "cn_name": "\u7532\u9178\u6842\u916f", "en_name": ["Cinnamyl formate", "2-Propen-1-ol, 3-phenyl-, 1-formate", "Cinnamyl alcohol, formate", "2-Propen-1-ol, 3-phenyl-, formate", "Cinnamyl formate", "Cinnamyl methanoate", "\u03b3-Phenylallyl formate", "3-Phenyl-2-propen-1-yl formate", "NSC 21737", "3-Phenyl-2-propen-1-ol formate"], "SMILES": "C(=CCOC=O)C1=CC=CC=C1", "physical_data": {"Molecular Weight": "162.19", "Molecular Formula": "C10H10O2", "Boiling Point": "138 \u00b0C @ Press: 23 Torr"}}