{"cas_no": "10400-19-8", "cn_name": "\u70df\u9170\u6c2f", "en_name": ["Nicotinoyl chloride", "3-Pyridinecarbonyl chloride", "Nicotinoyl chloride", "Nicotinic acid chloride", "3-Pyridylcarbonyl chloride", "Nicotinyl chloride", "3-Pyridoyl chloride", "3-Pyridinecarboxylic acid chloride", "3-Pyridinylcarbonyl chloride"], "SMILES": "C(Cl)(=O)C=1C=CC=NC1", "physical_data": {"Molecular Weight": "141.56", "Molecular Formula": "C6H4ClNO", "Boiling Point": "110-113 \u00b0C @ Press: 25-26 Torr", "Melting Point": "15-16 \u00b0C"}}