{"cas_no": "10406-25-4", "cn_name": "4-\u6c30\u57fa\u82ef\u7532\u80fa", "en_name": ["4-Cyanobenzylamine", "Benzonitrile, 4-(aminomethyl)-", "p-Tolunitrile, \u03b1-amino-", "4-(Aminomethyl)benzonitrile", "p-Cyanobenzylamine", "4-Cyanobenzylamine", "p-Cyanophenylmethylamine", "\u03b1-Amino-p-tolunitrile", "(4-Cyanophenyl)methanamine"], "SMILES": "C(N)C1=CC=C(C#N)C=C1", "physical_data": {"Molecular Weight": "132.16", "Molecular Formula": "C8H8N2", "Boiling Point": "92 \u00b0C @ Press: 5 Torr", "Melting Point": "19 \u00b0C", "Density": "0.9406 g/cm\u00b3 @ Temp: 20 \u00b0C"}}