{"cas_no": "104054-27-5", "cn_name": "\u963f\u66ff\u7f8e\u5511", "en_name": ["Atipamezole", "1H-Imidazole, 5-(2-ethyl-2,3-dihydro-1H-inden-2-yl)-", "1H-Imidazole, 4-(2-ethyl-2,3-dihydro-1H-inden-2-yl)-", "5-(2-Ethyl-2,3-dihydro-1H-inden-2-yl)-1H-imidazole", "MPV 1248", "Atipamezole"], "SMILES": "C(C)C1(CC=2C(C1)=CC=CC2)C3=CN=CN3", "physical_data": {"Molecular Weight": "212.29", "Molecular Formula": "C14H16N2", "Melting Point": "210-214 \u00b0C"}}