{"cas_no": "10409-54-8", "cn_name": "2-\u6eb4-2-\u7532\u57fa\u82ef\u4e19\u916e", "en_name": ["2-Bromoisobutyrophenone", "1-Propanone, 2-bromo-2-methyl-1-phenyl-", "Propiophenone, 2-bromo-2-methyl-", "2-Bromo-2-methyl-1-phenyl-1-propanone", "2-Bromo-2-methylpropiophenone", "\u03b1-Bromoisobutyrophenone", "2-Bromoisobutyrophenone", "2-Benzoyl-2-bromopropane", "\u03b1,\u03b1-Dimethylphenacyl bromide", "\u03b1-Bromoisopropyl phenyl ketone"], "SMILES": "C(C(Br)(C)C)(=O)C1=CC=CC=C1", "physical_data": {"Molecular Weight": "227.10", "Molecular Formula": "C10H11BrO", "Boiling Point": "135-137 \u00b0C @ Press: 17 Torr", "Density": "1.3613 g/cm\u00b3 @ Temp: 14.400009765625 \u00b0C"}}