{"cas_no": "104030-54-8", "cn_name": "\u73af\u4e19\u9170\u83cc\u80fa", "en_name": ["Carpropamid", "Cyclopropanecarboxamide, 2,2-dichloro-N-[1-(4-chlorophenyl)ethyl]-1-ethyl-3-methyl-", "2,2-Dichloro-N-[1-(4-chlorophenyl)ethyl]-1-ethyl-3-methylcyclopropanecarboxamide", "KTU 3616", "Carpropamid", "WIN", "Protiga"], "SMILES": "C(NC(C)C1=CC=C(Cl)C=C1)(=O)C2(CC)C(Cl)(Cl)C2C", "physical_data": {"Molecular Weight": "334.67", "Molecular Formula": "C15H18Cl3NO", "Melting Point": "169.0-169.5 \u00b0C"}}