{"cas_no": "10406-06-1", "cn_name": "5-\u6eb4\u5432\u54da-3-\u7fa7\u9178", "en_name": ["5-Bromo-1H-indole-3-carboxylic acid", "1H-Indole-3-carboxylic acid, 5-bromo-", "Indole-3-carboxylic acid, 5-bromo-", "5-Bromo-1H-indole-3-carboxylic acid", "5-Bromoindole-3-carboxylic acid"], "SMILES": "C(O)(=O)C=1C=2C(NC1)=CC=C(Br)C2", "physical_data": {"Molecular Weight": "240.05", "Molecular Formula": "C9H6BrNO2", "Melting Point": "238-240 \u00b0C (decomp)"}}