{"cas_no": "10408-85-2", "cn_name": "SPID", "en_name": ["1H-Inden-2-amine, 2,3-dihydro-N-methyl-, hydrochloride (1:1)", "1H-Inden-2-amine, 2,3-dihydro-N-methyl-, hydrochloride (1:1)", "2-Indanamine, N-methyl-, hydrochloride", "1H-Inden-2-amine, 2,3-dihydro-N-methyl-, hydrochloride", "N-Methylindan-2-amine hydrochloride", "2-(Methylamino)indan hydrochloride"], "SMILES": "N(C)C1CC=2C(C1)=CC=CC2.Cl", "physical_data": {"Molecular Weight": "", "Molecular Formula": "C10H13N.ClH", "Melting Point": "210 \u00b0C (decomp)"}}