{"cas_no": "10403-47-1", "cn_name": "2-\u6eb4-5-\u785d\u57fa\u82ef\u80fa", "en_name": ["2-Bromo-5-nitroaniline", "Benzenamine, 2-bromo-5-nitro-", "Aniline, 2-bromo-5-nitro-", "2-Bromo-5-nitrobenzenamine", "2-Bromo-5-nitroaniline", "(2-Bromo-5-nitrophenyl)amine"], "SMILES": "N(=O)(=O)C1=CC(N)=C(Br)C=C1", "physical_data": {"Molecular Weight": "217.02", "Molecular Formula": "C6H5BrN2O2", "Melting Point": "140 \u00b0C"}}