{"cas_no": "10405-02-4", "cn_name": "\u66f2\u53f8\u6c2f\u94f5", "en_name": ["Trospium chloride", "Spiro[8-azoniabicyclo[3.2.1]octane-8,1\u2032-pyrrolidinium], 3-[(2-hydroxy-2,2-diphenylacetyl)oxy]-, chloride (1:1), (1\u03b1,3\u03b2,5\u03b1)-", "Spiro[1\u03b1H,5\u03b1H-nortropane-8,1\u2032-pyrrolidinium], 3\u03b1-hydroxy-, chloride, benzilate", "Spiro[8-azoniabicyclo[3.2.1]octane-8,1\u2032-pyrrolidinium], 3-[(hydroxydiphenylacetyl)oxy]-, chloride, (1\u03b1,3\u03b2,5\u03b1)-", "Benzilic acid, ester with 3\u03b1-hydroxyspiro[1\u03b1H,5\u03b1H-nortropane-8,1\u2032-pyrrolidinium] chloride", "Azoniaspiro(3\u03b1-benziloyloxynortropane-8,1\u2032-pyrrolidine) chloride", "Trospium chloride", "Azoniaspiro compound XVII", "As XVII", "Keptan", "Spasmex", "Spasmo 3", "Spasmo-lyt", "Relaspium", "Sanctura", "Sanctura XR", "Trozyd", "TAR 302-5018"], "SMILES": "O(C(C(O)(C1=CC=CC=C1)C2=CC=CC=C2)=O)C3CC4[N+]5(C(C3)CC4)CCCC5.[Cl-]", "physical_data": {"Molecular Weight": "", "Molecular Formula": "C25H30NO3.Cl", "Melting Point": "255-257 \u00b0C"}}