{"cas_no": "104075-48-1", "cn_name": "\u963f\u66ff\u7f8e\u5511\u76d0\u9178\u76d0", "en_name": ["1H-Imidazole, 5-(2-ethyl-2,3-dihydro-1H-inden-2-yl)-, hydrochloride (1:1)", "1H-Imidazole, 5-(2-ethyl-2,3-dihydro-1H-inden-2-yl)-, hydrochloride (1:1)", "1H-Imidazole, 4-(2-ethyl-2,3-dihydro-1H-inden-2-yl)-, monohydrochloride", "Atipamezole hydrochloride", "Antisedan"], "SMILES": "C(C)C1(CC=2C(C1)=CC=CC2)C3=CN=CN3.Cl", "physical_data": {"Molecular Weight": "", "Molecular Formula": "C14H16N2.ClH", "Melting Point": "219.8 \u00b0C"}}