{"cas_no": "104040-78-0", "cn_name": "\u5576\u5627\u78fa\u9686", "en_name": ["Flazasulfuron", "2-Pyridinesulfonamide, N-[[(4,6-dimethoxy-2-pyrimidinyl)amino]carbonyl]-3-(trifluoromethyl)-", "N-[[(4,6-Dimethoxy-2-pyrimidinyl)amino]carbonyl]-3-(trifluoromethyl)-2-pyridinesulfonamide", "SL 160", "OK 1166", "Shibagen", "Flazasulfuron", "Katana", "Chikara", "1-(4,6-Dimethoxypyrimidin-2-yl)-3-(3-trifluoromethyl-2-pyridylsulfonyl)urea", "Shibagen DF"], "SMILES": "S(NC(NC=1N=C(OC)C=C(OC)N1)=O)(=O)(=O)C2=C(C(F)(F)F)C=CC=N2", "physical_data": {"Molecular Weight": "407.33", "Molecular Formula": "C13H12F3N5O5S", "Melting Point": "168 \u00b0C"}}