{"cas_no": "104004-96-8", "cn_name": "N-\u53bb\u7532\u7c73\u975e\u53f8\u916e", "en_name": ["Metapristone", "Estra-4,9-dien-3-one, 17-hydroxy-11-[4-(methylamino)phenyl]-17-(1-propyn-1-yl)-, (11\u03b2,17\u03b2)-", "Estra-4,9-dien-3-one, 17-hydroxy-11-[4-(methylamino)phenyl]-17-(1-propynyl)-, (11\u03b2,17\u03b2)-", "(11\u03b2,17\u03b2)-17-Hydroxy-11-[4-(methylamino)phenyl]-17-(1-propyn-1-yl)estra-4,9-dien-3-one", "RU 42633", "N-Desmethyl-RU 486", "Desmethylmifepristone", "Metapristone", "N-Methylaminopristone", "N-Demethylmifepristone"], "SMILES": "CC12C(C3C(C(C1)C4=CC=C(NC)C=C4)=C5C(CC3)=CC(=O)CC5)CCC2(C#CC)O", "physical_data": {"Molecular Weight": "415.57", "Molecular Formula": "C28H33NO2", "Melting Point": "229.2-229.9 \u00b0C"}}