{"cas_no": "104142-93-0", "cn_name": "\u6c1f\u54cc\u9178\u76d0\u9178\u76d0", "en_name": ["Norfloxacin hydrochloride", "3-Quinolinecarboxylic acid, 1-ethyl-6-fluoro-1,4-dihydro-4-oxo-7-(1-piperazinyl)-, hydrochloride (1:?)", "3-Quinolinecarboxylic acid, 1-ethyl-6-fluoro-1,4-dihydro-4-oxo-7-(1-piperazinyl)-, hydrochloride", "Norfloxacin hydrochloride"], "SMILES": "C(C)N1C=2C(C(=O)C(C(O)=O)=C1)=CC(F)=C(C2)N3CCNCC3.Cl", "physical_data": {"Molecular Weight": "", "Molecular Formula": "C16H18FN3O3.xClH", "Melting Point": "220 \u00b0C"}}