{"cas_no": "1041-01-6", "cn_name": "3,5-\u4e8c\u7898-L-\u7532\u72b6\u817a\u7d20", "en_name": ["Diiodothyronine", "L-Tyrosine, O-(4-hydroxyphenyl)-3,5-diiodo-", "Alanine, 3-[4-(p-hydroxyphenoxy)-3,5-diiodophenyl]-, L-", "O-(4-Hydroxyphenyl)-3,5-diiodo-L-tyrosine", "3,5-Diiodo-L-thyronine", "Diiodothyronine", "Diiodo-L-thyronine", "3,5-Diiodothyronine", "L-3,5-Diiodothyronine", "L-T2", "L-Diiodothyronine", "NSC 90469", "(2S)-2-Amino-3-[4-(4-hydroxyphenoxy)-3,5-diiodophenyl]propanoic acid", "(2S)-2-Amino-3-[4-(4-hydroxyphenoxy)-3,5-diiodophenyl]propanoic acid"], "SMILES": "O(C1=C(I)C=C(CC(C(O)=O)N)C=C1I)C2=CC=C(O)C=C2", "physical_data": {"Molecular Weight": "525.08", "Molecular Formula": "C15H13I2NO4", "Melting Point": "255 \u00b0C"}}