{"cas_no": "10419-77-9", "cn_name": "\u7898\u7532\u57fa\u78f7\u9178\u4e8c\u4e59\u916f", "en_name": ["Diethyl P-(iodomethyl)phosphonate", "Phosphonic acid, P-(iodomethyl)-, diethyl ester", "Phosphonic acid, (iodomethyl)-, diethyl ester", "Diethyl P-(iodomethyl)phosphonate", "Diethyl (iodomethyl)phosphonate", "Diethyl iodomethanephosphonate", "1-[Ethoxy(iodomethyl)phosphoryl]oxyethane"], "SMILES": "P(OCC)(OCC)(CI)=O", "physical_data": {"Molecular Weight": "278.03", "Molecular Formula": "C5H12IO3P", "Boiling Point": "119-120 \u00b0C @ Press: 5 Torr", "Density": "1.6606 g/cm\u00b3 @ Temp: 19 \u00b0C"}}