{"cas_no": "10416-59-8", "cn_name": "N,O-\u53cc\u4e09\u7532\u7845\u57fa\u4e59\u9170\u80fa", "en_name": ["N,O-Bis(trimethylsilyl)acetamide", "Ethanimidic acid, N-(trimethylsilyl)-, trimethylsilyl ester", "Acetimidic acid, N-(trimethylsilyl)-, trimethylsilyl ester", "N,O-Bis(trimethylsilyl)acetamide", "BSA", "Bis(trimethylsilyl)acetamide", "BSiA", "Bis(trimethylsilyl)acetimidate", "O,N-Bis(trimethylsilyl)acetamide", "LS 7270", "N-(Trimethylsilyl)ethanimidic acid trimethylsilyl ester", "N-(Trimethylsilyl)acetimidic acid trimethylsilyl ester", "Dynasylan BSA", "N,O-Di(trimethylsilyl)acetamide", "N,O-Bis-trimethylsilylacetoamide"], "SMILES": "N([Si](C)(C)C)=C(O[Si](C)(C)C)C", "physical_data": {"Molecular Weight": "203.43", "Molecular Formula": "C8H21NOSi2", "Boiling Point": "71-73 \u00b0C @ Press: 35 Torr", "Melting Point": "-24 \u00b0C", "Density": "0.832 g/cm\u00b3"}}