{"cas_no": "10419-79-1", "cn_name": "\u4e8c\u4e59\u57fa(2-\u4e59\u57fa\u6c2f)\u78f7\u9178\u76d0", "en_name": ["Diethyl P-(2-chloroethyl)phosphonate", "Phosphonic acid, P-(2-chloroethyl)-, diethyl ester", "Phosphonic acid, (2-chloroethyl)-, diethyl ester", "Diethyl P-(2-chloroethyl)phosphonate", "Diethyl (2-chloroethyl)phosphonate", "Diethyl 2-chloroethanephosphonate", "NSC 138339"], "SMILES": "P(CCCl)(OCC)(OCC)=O", "physical_data": {"Molecular Weight": "200.60", "Molecular Formula": "C6H14ClO3P", "Boiling Point": "92-94 \u00b0C @ Press: 4 Torr", "Density": "1.1565 g/cm\u00b3 @ Temp: 20 \u00b0C"}}