{"cas_no": "104104-50-9", "cn_name": "\u514b\u4ed6\u547d", "en_name": ["Gabazine", "1(6H)-Pyridazinebutanoic acid, 6-imino-3-(4-methoxyphenyl)-, hydrobromide (1:1)", "1(6H)-Pyridazinebutanoic acid, 6-imino-3-(4-methoxyphenyl)-, monohydrobromide", "SR 95531", "Gabazine"], "SMILES": "C(CCC(O)=O)N1N=C(C=CC1=N)C2=CC=C(OC)C=C2.Br", "physical_data": {"Molecular Weight": "", "Molecular Formula": "C15H17N3O3.BrH", "Melting Point": "200 \u00b0C"}}