{"cas_no": "10418-03-8", "cn_name": "\u5eb7\u529b\u9f99", "en_name": ["Stanozolol", "2\u2032H-Androst-2-eno[3,2-c]pyrazol-17-ol, 17-methyl-, (5\u03b1,17\u03b2)-", "2\u2032H-5\u03b1-Androst-2-eno[3,2-c]pyrazol-17\u03b2-ol, 17-methyl-", "Cyclopenta[7,8]phenanthro[2,3-c]pyrazol-1-ol, 1,2,3,3a,3b,4,5,5a,6,7,10,10a,10b,11,12,12a-hexadecahydro-1,10a,12a-trimethyl-", "(5\u03b1,17\u03b2)-17-Methyl-2\u2032H-androst-2-eno[3,2-c]pyrazol-17-ol", "Androstanazole", "Winstrol", "Stanozolol", "Win 14833", "Androstanazol", "17-Methyl-5\u03b1-androstano[3,2-c]pyrazol-17\u03b2-ol", "17-Methyl-pyrazolo[4\u2032,3\u2032:2,3]-5\u03b1-androstan-17\u03b2-ol", "Winstrol V", "Stromba", "17\u03b2-Hydroxy-17-methyl-5\u03b1-androstano[3,2-c]pyrazole", "Stanazolol", "17\u03b1-Methyl-17\u03b2-hydroxy-5\u03b1-androstano(3,2-c)pyrazole", "Anabol", "Estazol", "Strombaject", "Tevabolin", "Winstroid", "Winstrol Depot", "Androstanazolestanazol", "NSC 233046", "Stanabolic", "NSC 43193", "Estrombol", "ST (Estrombol)"], "SMILES": "CC12C3C(C4C(C)(CC3)C(C)(O)CC4)CCC1CC5=C(C2)C=NN5", "physical_data": {"Molecular Weight": "328.49", "Molecular Formula": "C21H32N2O", "Melting Point": "229.8-242.0 \u00b0C"}}