{"cas_no": "10412-98-3", "cn_name": "5-\u916e\u57fa\u5df2\u8148", "en_name": ["5-Oxohexanenitrile", "Hexanenitrile, 5-oxo-", "5-Oxohexanenitrile", "5-Oxohexanonitrile", "4-Acetylbutyronitrile", "Methyl 3-cyanopropylketone", "\u03b3-Acetobutyronitrile"], "SMILES": "C(CCC#N)C(C)=O", "physical_data": {"Molecular Weight": "111.14", "Molecular Formula": "C6H9NO", "Boiling Point": "100-130 \u00b0C @ Press: 2 Torr", "Density": "0.9747 g/cm\u00b3 @ Temp: 20 \u00b0C"}}