{"cas_no": "104196-68-1", "cn_name": "MANZAMINE A", "en_name": ["(1R,4S,9Z,13S,13aR,20aR,21aR)-2,3,5,6,7,8,11,12,15,16,17,18,20a,21-Tetradecahydro-24-(9H-pyrido[3,4-b]indol-1-yl)-1,13-etheno-4,21a-methano-1H-azocino[1\u2032,2\u2032:1,5]pyrrolo[3,2-e]azacyclopentadecin-13(13aH)-ol", "1,13-Etheno-4,21a-methano-1H-azocino[1\u2032,2\u2032:1,5]pyrrolo[3,2-e]azacyclopentadecin-13(13aH)-ol, 2,3,5,6,7,8,11,12,15,16,17,18,20a,21-tetradecahydro-24-(9H-pyrido[3,4-b]indol-1-yl)-, (1R,4S,9Z,13S,13aR,20aR,21aR)-", "1,13-Etheno-4,21a-methano-1H-azocino[1\u2032,2\u2032:1,5]pyrrolo[3,2-e]azacyclopentadecin-13(13aH)-ol, 2,3,5,6,7,8,11,12,15,16,17,18,20a,21-tetradecahydro-24-(9H-pyrido[3,4-b]indol-1-yl)-, [1R-(1R*,9Z,13S*,13aR*,20aR*,21aR*)]-", "9H-Pyrido[3,4-b]indole, 1,13-etheno-4,21a-methano-1H-azocino[1\u2032,2\u2032:1,5]pyrrolo[3,2-e]azacyclopentadecin-13(13aH)-ol deriv.", "(1R,4S,9Z,13S,13aR,20aR,21aR)-2,3,5,6,7,8,11,12,15,16,17,18,20a,21-Tetradecahydro-24-(9H-pyrido[3,4-b]indol-1-yl)-1,13-etheno-4,21a-methano-1H-azocino[1\u2032,2\u2032:1,5]pyrrolo[3,2-e]azacyclopentadecin-13(13aH)-ol", "Manzamine A", "Keramamine A", "(+)-Manzamine A"], "SMILES": "OC12C3C4(C(C(=C1)C5=C6C(C=7C(N6)=CC=CC7)=CC=N5)CCN(C4)CCCCC=CCC2)CC8N3CCCCC=C8", "physical_data": {"Molecular Weight": "548.76", "Molecular Formula": "C36H44N4O", "Melting Point": "124-128 \u00b0C"}}