{"cas_no": "104121-92-8", "cn_name": "\u827e\u5730\u9aa8\u5316\u9187", "en_name": ["Eldecalcitol", "1,3-Cyclohexanediol, 2-(3-hydroxypropoxy)-4-methylene-5-[(2E)-2-[(1R,3aS,7aR)-octahydro-1-[(1R)-5-hydroxy-1,5-dimethylhexyl]-7a-methyl-4H-inden-4-ylidene]ethylidene]-, (1R,2R,3R,5Z)-", "9,10-Secocholesta-5,7,10(19)-triene-1,3,25-triol, 2-(3-hydroxypropoxy)-, (1\u03b1,2\u03b2,3\u03b2,5Z,7E)-", "(1R,2R,3R,5Z)-2-(3-Hydroxypropoxy)-4-methylene-5-[(2E)-2-[(1R,3aS,7aR)-octahydro-1-[(1R)-5-hydroxy-1,5-dimethylhexyl]-7a-methyl-4H-inden-4-ylidene]ethylidene]-1,3-cyclohexanediol", "ED 71", "2\u03b2-(3-Hydroxypropoxy)-1\u03b1,25-dihydroxyvitamin D3", "Eldecalcitol", "Edirol", "2-(3-Hydroxypropoxy)calcitriol"], "SMILES": "CC12C(C(=CC=C3C(=C)C(O)C(OCCCO)C(O)C3)CCC1)CCC2C(CCCC(C)(C)O)C", "physical_data": {"Molecular Weight": "490.71", "Molecular Formula": "C30H50O5", "Melting Point": "126-128 \u00b0C"}}