{"cas_no": "10415-87-9", "cn_name": "3-\u7532\u57fa-1-\u82ef\u57fa-3-\u620a\u9187", "en_name": ["\u03b1-Ethyl-\u03b1-methylbenzenepropanol", "Benzenepropanol, \u03b1-ethyl-\u03b1-methyl-", "3-Pentanol, 3-methyl-1-phenyl-", "\u03b1-Ethyl-\u03b1-methylbenzenepropanol", "Phenylethyl(ethyl)methyl carbinol", "Phenethylmethylethylcarbinol", "3-Methyl-1-phenyl-3-pentanol", "3-Methyl-5-phenyl-3-pentanol", "(\u00b1)-5-Phenyl-3-methyl-3-pentanol", "(\u00b1)-3-Methyl-1-phenyl-3-pentanol", "1-Phenyl-3-methyl-3-pentanol", "NSC 60568", "Ethyl methyl \u03b2-phenylethyl carbinol", "(2-Phenylethyl)methylethylcarbinol"], "SMILES": "C(CC(CC)(C)O)C1=CC=CC=C1", "physical_data": {"Molecular Weight": "178.27", "Molecular Formula": "C12H18O", "Melting Point": "3 \u00b0C", "Density": "0.9552 g/cm\u00b3 @ Temp: 20 \u00b0C"}}