{"cas_no": "1041642-14-1", "cn_name": "\u53cd\u5f0f-2-\u7532\u57fa\u73af\u5df1\u57fa\u4e09\u6c1f\u787c\u9178\u94be", "en_name": ["Borate(1-), trifluoro[rel-(1R,2R)-2-methylcyclohexyl]-, potassium (1:1), (T-4)-", "Borate(1-), trifluoro[rel-(1R,2R)-2-methylcyclohexyl]-, potassium (1:1), (T-4)-"], "SMILES": "[B+3]([F-])([F-])([F-])[CH-]1C(C)CCCC1.[K+]", "physical_data": {"Molecular Weight": "", "Molecular Formula": "C7H13BF3.K", "Melting Point": "&gt;250 \u00b0C"}}