{"cas_no": "10425-71-5", "cn_name": "3,5-\u4e8c\u785d\u57fa\u5421\u5576-4-\u9187", "en_name": ["3,5-Dinitro-4-pyridinol", "4-Pyridinol, 3,5-dinitro-", "3,5-Dinitro-4-pyridinol", "3,5-Dinitro-4-hydroxypyridine", "4-Hydroxy-3,5-dinitropyridine", "3,5-Dinitro-1H-pyridin-4-one"], "SMILES": "N(=O)(=O)C=1C(O)=C(N(=O)=O)C=NC1", "physical_data": {"Molecular Weight": "185.09", "Molecular Formula": "C5H3N3O5", "Melting Point": "315 \u00b0C"}}