{"cas_no": "104222-34-6", "cn_name": "5-\u6c2f-4-\u6c1f-2-\u785d\u57fa\u82ef\u80fa", "en_name": ["5-Chloro-4-fluoro-2-nitrobenzenamine", "Benzenamine, 5-chloro-4-fluoro-2-nitro-", "5-Chloro-4-fluoro-2-nitrobenzenamine", "3-Chloro-4-fluoro-6-nitroaniline", "5-Chloro-4-fluoro-2-nitroaniline", "2-Nitro-4-fluoro-5-chloroaniline"], "SMILES": "N(=O)(=O)C1=C(N)C=C(Cl)C(F)=C1", "physical_data": {"Molecular Weight": "190.56", "Molecular Formula": "C6H4ClFN2O2", "Melting Point": "149.5-150 \u00b0C"}}