{"cas_no": "104227-87-4", "cn_name": "\u6cdb\u6614\u6d1b\u97e6", "en_name": ["Famciclovir", "1,3-Propanediol, 2-[2-(2-amino-9H-purin-9-yl)ethyl]-, 1,3-diacetate", "1,3-Propanediol, 2-[2-(2-amino-9H-purin-9-yl)ethyl]-, diacetate (ester)", "Famciclovir", "BRL 42810", "Famvir", "FCV", "9-[4-Acetoxy-3-(acetoxymethyl)butyl]-2-aminopurine", "9-[4-Acetoxy-3-(acetoxymethyl)but-1-yl]-2-aminopurine", "Famcyclovir", "Famcivir", "Famtrex", "Fanxiluowei", "[2-(Acetyloxymethyl)-4-(2-aminopurin-9-yl)butyl] acetate", "2-[(Acetyloxy)methyl]-4-(2-amino-9H-purin-9-yl)butyl acetate"], "SMILES": "C(CC(COC(C)=O)COC(C)=O)N1C=2C(N=C1)=CN=C(N)N2", "physical_data": {"Molecular Weight": "321.33", "Molecular Formula": "C14H19N5O4", "Melting Point": "102-104 \u00b0C"}}