{"cas_no": "10422-35-2", "cn_name": "1-\u6eb4-2-\u7532\u57fa\u4e01\u70f7", "en_name": ["1-Bromo-2-methylbutane", "Butane, 1-bromo-2-methyl-", "Butane, 1-bromo-2-methyl-, DL-", "Butane, 1-bromo-2-methyl-, (\u00b1)-", "1-Bromo-2-methylbutane", "dl-1-Bromo-2-methylbutane", "2-Methylbutyl bromide", "1-Bromoisopentane", "2-Methylbutan-1-yl bromide", "(\u00b1)-2-Methylbutyl bromide"], "SMILES": "C(CBr)(CC)C", "physical_data": {"Molecular Weight": "151.04", "Molecular Formula": "C5H11Br", "Boiling Point": "118-120 \u00b0C", "Density": "1.2234 g/cm\u00b3 @ Temp: 20 \u00b0C"}}