{"cas_no": "10420-89-0", "cn_name": "(S)-(-)-1-(1-\u8418\u57fa)\u4e59\u80fa", "en_name": ["(-)-1-(1-Naphthyl)ethylamine", "1-Naphthalenemethanamine, \u03b1-methyl-, (\u03b1S)-", "1-Naphthalenemethanamine, \u03b1-methyl-, (S)-", "1-Naphthalenemethylamine, \u03b1-methyl-, (S)-(-)-", "(\u03b1S)-\u03b1-Methyl-1-naphthalenemethanamine", "(S)-1-(\u03b1-Naphthyl)ethylamine", "(-)-\u03b1-(1-Naphthyl)ethylamine", "(S)-1-(1-Naphthyl)ethylamine", "l-\u03b1-(1-Naphthyl)ethylamine", "(S)-(-)-\u03b1-(1-Naphthyl)ethylamine", "(S)-(-)-1-(\u03b1-Naphthyl)ethylamine", "(-)-1-(\u03b1-Naphthyl)ethylamine", "(S)-\u03b1-Naphthylethylamine", "(S)-\u03b1-Methyl-1-naphthalenemethanamine", "(-)-1-(1-Naphthyl)ethylamine", "(S)-(-)-1-(1-Naphthyl)ethylamine", "(S)-\u03b1-(1-Naphthyl)ethylamine", "(S)-1-Naphthylethylamine", "[(S)-1-(Naphthalen-1-yl)ethyl]amine", "(-)-[(S)-1-(1-Naphthyl)ethyl]amine", "(S)-1-(Naphthalen-1-yl)ethanamine", "(1S)-1-(1-Naphthyl)ethanamine", "(S)-(-)-(1-Naphthyl)ethylamine", "(1S)-1-(1-Naphthyl)ethylamine", "(1S)-1-(Naphthalen-1-yl)ethan-1-amine", "(1S)-1-Naphthalen-1-ylethanamine"], "SMILES": "C(C)(N)C=1C2=C(C=CC1)C=CC=C2", "physical_data": {"Molecular Weight": "171.24", "Molecular Formula": "C12H13N", "Boiling Point": "100 \u00b0C @ Press: 0.1 mmHg", "Melting Point": "97-98 \u00b0C"}}