{"cas_no": "10425-11-3", "cn_name": "3,4-\u4e8c\u7f9f\u57fa\u4e8c\u82ef\u7532\u916e", "en_name": ["3,4-Dihydroxybenzophenone", "Methanone, (3,4-dihydroxyphenyl)phenyl-", "Benzophenone, 3,4-dihydroxy-", "(3,4-Dihydroxyphenyl)phenylmethanone", "3,4-Dihydroxybenzophenone"], "SMILES": "C(=O)(C1=CC(O)=C(O)C=C1)C2=CC=CC=C2", "physical_data": {"Molecular Weight": "214.22", "Molecular Formula": "C13H10O3", "Melting Point": "134 \u00b0C"}}