{"cas_no": "10420-33-4", "cn_name": "\u4e59\u9170\u4e01\u4e8c\u9178\u4e8c\u7532\u916f", "en_name": ["1,4-Dimethyl 2-acetylbutanedioate", "Butanedioic acid, 2-acetyl-, 1,4-dimethyl ester", "Succinic acid, acetyl-, dimethyl ester", "Butanedioic acid, acetyl-, dimethyl ester", "1,4-Dimethyl 2-acetylbutanedioate", "Acetylsuccinic acid, dimethyl ester", "Acetosuccinic acid, dimethyl ester", "Dimethyl acetylsuccinate", "Dimethyl 2-acetylsuccinate", "2-Acetyl-succinic acid dimethyl ester"], "SMILES": "C(CC(OC)=O)(C(OC)=O)C(C)=O", "physical_data": {"Molecular Weight": "188.18", "Molecular Formula": "C8H12O5", "Boiling Point": "84 \u00b0C", "Melting Point": "32-32.5 \u00b0C"}}