{"cas_no": "104206-82-8", "cn_name": "\u7532\u57fa\u78fa\u8349\u916e", "en_name": ["Mesotrione", "1,3-Cyclohexanedione, 2-[4-(methylsulfonyl)-2-nitrobenzoyl]-", "2-[4-(Methylsulfonyl)-2-nitrobenzoyl]-1,3-cyclohexanedione", "Mesotrione", "ZA 1296", "Callisto", "Tenacity (herbicide)", "Tenacity", "Xiaohuangcaotong", "Calisto"], "SMILES": "C(=O)(C1=C(N(=O)=O)C=C(S(C)(=O)=O)C=C1)C2C(=O)CCCC2=O", "physical_data": {"Molecular Weight": "339.32", "Molecular Formula": "C14H13NO7S", "Melting Point": "157-159 \u00b0C"}}