{"cas_no": "104239-97-6", "cn_name": "1-\u96c4\u70ef-3-\u916e-4-\u6742\u6c2e-17b-\u7fa7\u9178", "en_name": ["3-Oxo-4-aza-5\u03b1-androst-1-ene-17\u03b2-carboxylic acid", "1H-Indeno[5,4-f]quinoline-7-carboxylic acid, 2,4a,4b,5,6,6a,7,8,9,9a,9b,10,11,11a-tetradecahydro-4a,6a-dimethyl-2-oxo-, (4aR,4bS,6aS,7S,9aS,9bS,11aR)-", "4-Azaandrost-1-ene-17-carboxylic acid, 3-oxo-, (5\u03b1,17\u03b2)-", "(4aR,4bS,6aS,7S,9aS,9bS,11aR)-2,4a,4b,5,6,6a,7,8,9,9a,9b,10,11,11a-Tetradecahydro-4a,6a-dimethyl-2-oxo-1H-indeno[5,4-f]quinoline-7-carboxylic acid", "1H-Indeno[5,4-f]quinoline-7-carboxylic acid, 2,4a,4b,5,6,6a,7,8,9,9a,9b,10,11,11a-tetradecahydro-4a,6a-dimethyl-2-oxo-, [4aR-(4a\u03b1,4b\u03b2,6a\u03b1,7\u03b1,9a\u03b2,9b\u03b1,11a\u03b2)]-", "3-Oxo-4-aza-5\u03b1-androst-1-ene-17\u03b2-carboxylic acid", "3-Oxo-4-aza-5\u03b1-androst-1-ene-17-carboxylic acid", "(5\u03b1,17\u03b2)-N-[(2,5-Bis(trifluoromethyl)-phenyl]-3-oxo-4-aza-5-androst-1-ene-17-carboxylic acid"], "SMILES": "CC12C3C(C4C(C)(CC3)C(C(O)=O)CC4)CCC1NC(=O)C=C2", "physical_data": {"Molecular Weight": "317.42", "Molecular Formula": "C19H27NO3", "Melting Point": "295-297 \u00b0C"}}