{"cas_no": "10424-65-4", "cn_name": "\u56db\u7532\u57fa\u6c22\u6c27\u5316\u94f5", "en_name": ["Tetramethylammonium hydroxide pentahydrate", "Methanaminium, N,N,N-trimethyl-, hydroxide, hydrate (1:1:5)", "Methanaminium, N,N,N-trimethyl-, hydroxide, pentahydrate", "Ammonium, tetramethyl-, hydroxide, pentahydrate", "Tetramethylammonium hydroxide pentahydrate"], "SMILES": "[N+](C)(C)(C)C.[OH-].O", "physical_data": {"Molecular Weight": "", "Molecular Formula": "C4H12N.5H2O.HO", "Melting Point": "71 \u00b0C"}}