{"cas_no": "10421-85-9", "cn_name": "\u90bb\u6c2f\u6241\u6843\u9178", "en_name": ["2-Chloromandelic acid", "Benzeneacetic acid, 2-chloro-\u03b1-hydroxy-", "Mandelic acid, o-chloro-", "2-Chloro-\u03b1-hydroxybenzeneacetic acid", "2-Chloromandelic acid", "o-Chloromandelic acid", "(\u00b1)-o-Chloromandelic acid", "(2-Chlorophenyl)hydroxyacetic acid", "(\u00b1)-2-Hydroxy-2-(2-chlorophenyl)acetic acid", "NSC 31401", "(2-Chlorophenyl)glycolic acid", "2-(2-Chlorophenyl)-2-(hydroxy)acetic acid", "(\u00b1)-2-Chloromandelic acid"], "SMILES": "C(C(O)=O)(O)C1=C(Cl)C=CC=C1", "physical_data": {"Molecular Weight": "186.59", "Molecular Formula": "C8H7ClO3", "Melting Point": "85-85.5 \u00b0C"}}