{"cas_no": "10429-82-0", "cn_name": "N-\u82c4\u57fa-\u53cc\u90bb\u6c2f\u4e59\u57fa\u6c28\u57fa\u76d0\u9178\u76d0", "en_name": ["Benzenemethanamine, N,N-bis(2-chloroethyl)-, hydrochloride (1:1)", "Benzenemethanamine, N,N-bis(2-chloroethyl)-, hydrochloride (1:1)", "Benzylamine, N,N-bis(2-chloroethyl)-, hydrochloride", "Benzenemethanamine, N,N-bis(2-chloroethyl)-, hydrochloride", "N-Benzylbis(2-chloroethyl)amine hydrochloride", "Benzylbis(2-chloroethyl)amine hydrochloride"], "SMILES": "N(CC1=CC=CC=C1)(CCCl)CCCl.Cl", "physical_data": {"Molecular Weight": "", "Molecular Formula": "C11H15Cl2N.ClH", "Melting Point": "148-150 \u00b0C"}}