{"cas_no": "104206-65-7", "cn_name": "\u5c3c\u66ff\u897f\u519c", "en_name": ["Nitisinone", "1,3-Cyclohexanedione, 2-[2-nitro-4-(trifluoromethyl)benzoyl]-", "2-[2-Nitro-4-(trifluoromethyl)benzoyl]-1,3-cyclohexanedione", "Nitisinone", "SC 0735", "Orfadin", "NTBC", "Nitisone", "Nityr"], "SMILES": "C(=O)(C1=C(N(=O)=O)C=C(C(F)(F)F)C=C1)C2C(=O)CCCC2=O", "physical_data": {"Molecular Weight": "329.23", "Molecular Formula": "C14H10F3NO5", "Melting Point": "140-142 \u00b0C"}}