{"cas_no": "104224-63-7", "cn_name": "2-(1-\u91d1\u521a\u70f7\u57fa)-4-\u6eb4\u82ef\u7532\u919a", "en_name": ["2-(1-Adamantyl)-4-bromoanisole", "Tricyclo[3.3.1.13,7]decane, 1-(5-bromo-2-methoxyphenyl)-", "1-(5-Bromo-2-methoxyphenyl)tricyclo[3.3.1.13,7]decane", "2-Adamantyl-4-bromoanisole", "2-(1-Adamantyl)-4-bromoanisole", "2-(1-Adamantyl)-4-bromomethoxybenzene", "1-Methoxy-2-(1-adamantyl)-4-bromobenzene", "4-Bromo-2-(1-adamantyl)anisole", "1-(5-Bromo-2-methoxyphenyl)adamantane"], "SMILES": "O(C)C1=C(C23CC4CC(C2)CC(C3)C4)C=C(Br)C=C1", "physical_data": {"Molecular Weight": "321.25", "Molecular Formula": "C17H21BrO", "Melting Point": "138-139 \u00b0C"}}