{"cas_no": "104226-21-3", "cn_name": "HC \u9ec4 NO. 7", "en_name": ["2,2\u2032-[[4-[2-(4-Aminophenyl)diazenyl]-3-methylphenyl]imino]bis[ethanol]", "Ethanol, 2,2\u2032-[[4-[2-(4-aminophenyl)diazenyl]-3-methylphenyl]imino]bis-", "Ethanol, 2,2\u2032-[[4-[(4-aminophenyl)azo]-3-methylphenyl]imino]bis-", "2,2\u2032-[[4-[2-(4-Aminophenyl)diazenyl]-3-methylphenyl]imino]bis[ethanol]", "3-Methyl-4-(4\u2032-anililnoazo)-N,N-bis(2-hydroxyethyl)aniline", "HC Yellow No. 7", "HC Yellow 7", "HC Yellow 77"], "SMILES": "N(CCO)(CCO)C1=CC(C)=C(N=NC2=CC=C(N)C=C2)C=C1", "physical_data": {"Molecular Weight": "314.38", "Molecular Formula": "C17H22N4O2", "Melting Point": "149 \u00b0C"}}