{"cas_no": "104227-88-5", "cn_name": "\u6cdb\u6614\u6d1b\u97e6\u76f8\u5173\u7269\u8d28B", "en_name": ["2-[2-(2-Amino-9H-purin-9-yl)ethyl]-3-hydroxypropyl acetate", "1,3-Propanediol, 2-[2-(2-amino-9H-purin-9-yl)ethyl]-, 1-acetate", "1,3-Propanediol, 2-[2-(2-amino-9H-purin-9-yl)ethyl]-, monoacetate (ester)", "2-[2-(2-Amino-9H-purin-9-yl)ethyl]-3-hydroxypropyl acetate", "BRL 43594", "2-(Hydroxymethyl)-4-(2-imino-1H-purin-9(2H)-yl)butyl acetate"], "SMILES": "C(CC(COC(C)=O)CO)N1C=2C(N=C1)=CN=C(N)N2", "physical_data": {"Molecular Weight": "279.30", "Molecular Formula": "C12H17N5O3", "Melting Point": "166-168 \u00b0C"}}