{"cas_no": "104227-86-3", "cn_name": "\u6cdb\u6614\u6d1b\u97e6USP RC A", "en_name": ["6-Deoxypenciclovir", "1,3-Propanediol, 2-[2-(2-amino-9H-purin-9-yl)ethyl]-", "2-[2-(2-Amino-9H-purin-9-yl)ethyl]-1,3-propanediol", "BRL 42359", "6-Deoxypenciclovir", "2-[2-(2-Aminopurin-9-yl)ethyl]propane-1,3-diol"], "SMILES": "C(CC(CO)CO)N1C=2C(N=C1)=CN=C(N)N2", "physical_data": {"Molecular Weight": "237.26", "Molecular Formula": "C10H15N5O2", "Melting Point": "152-154 \u00b0C"}}