{"cas_no": "10421-48-4", "cn_name": "\u785d\u9178\u94c1", "en_name": ["Ferric nitrate", "Nitric acid, iron(3+) salt (3:1)", "Nitric acid, iron(3+) salt", "Ferric nitrate", "Iron nitrate (Fe(NO3)3)", "Iron trinitrate", "Iron(III) nitrate", "Gazhazot", "FN 376", "Anaerite 263Hi"], "SMILES": "N(=O)(=O)O.[Fe]", "physical_data": {"Molecular Weight": "", "Molecular Formula": "Fe.3HNO3", "Melting Point": "47 \u00b0C"}}