{"cas_no": "10438-96-7", "cn_name": "\u7532\u57fa\u78fa\u9170\u80fa\u57fa \u6c2f", "en_name": ["N-Methylsulfamoyl chloride", "Sulfamoyl chloride, N-methyl-", "Sulfamoyl chloride, methyl-", "N-Methylsulfamoyl chloride", "N-Methylaminosulfonyl chloride", "Methylaminosulfonyl chloride", "Methylsulfamoyl chloride"], "SMILES": "S(NC)(Cl)(=O)=O", "physical_data": {"Molecular Weight": "129.57", "Molecular Formula": "CH4ClNO2S", "Boiling Point": "80 \u00b0C @ Press: 0.1 Torr"}}