{"cas_no": "10433-52-0", "cn_name": "O-\u82c4\u57fa-D-\u4e1d\u6c28\u9178", "en_name": ["O-(Phenylmethyl)-D-serine", "D-Serine, O-(phenylmethyl)-", "Alanine, 3-(benzyloxy)-, D-", "O-(Phenylmethyl)-D-serine", "O-Benzyl-D-serine", "(2R)-2-Azaniumyl-3-phenylmethoxypropanoate", "(2R)-2-Amino-3-(benzyloxy)propanoic acid", "(R)-2-Amino-3-(benzyloxy)propanoic acid"], "SMILES": "C(OCC(C(O)=O)N)C1=CC=CC=C1", "physical_data": {"Molecular Weight": "195.22", "Molecular Formula": "C10H13NO3", "Melting Point": "212-213 \u00b0C"}}