{"cas_no": "10436-39-2", "cn_name": "\u56db\u6c2f\u4e19\u70ef", "en_name": ["1,1,2,3-Tetrachloro-1-propene", "1-Propene, 1,1,2,3-tetrachloro-", "Propene, 1,1,2,3-tetrachloro-", "1,1,2,3-Tetrachloro-1-propene", "1,1,2,3-Tetrachloropropene", "2,3,3-Trichloroallyl chloride", "HCO 1230xa", "HCO 1230", "HCC 1230xa", "1230xa", "Genetron 123", "HCC-1230xa"], "SMILES": "C(=C(Cl)Cl)(CCl)Cl", "physical_data": {"Molecular Weight": "179.86", "Molecular Formula": "C3H2Cl4", "Boiling Point": "68-69 \u00b0C @ Press: 30 Torr", "Density": "1.5409 g/cm\u00b3 @ Temp: 20 \u00b0C"}}