{"cas_no": "104366-23-6", "cn_name": "2-\u6c28\u57fa-4-\u6c2f-3-\u6c30\u57fa-5-\u7532\u9170\u57fa\u567b\u5429", "en_name": ["2-Amino-4-chloro-5-formyl-3-thiophenecarbonitrile", "3-Thiophenecarbonitrile, 2-amino-4-chloro-5-formyl-", "2-Amino-4-chloro-5-formyl-3-thiophenecarbonitrile", "2-Amino-4-chloro-3-cyano-5-formylthiophene", "2-Amino-3-cyano-4-chloro-5-formylthiophene", "2-Amino-4-chloro-5-formyl-3-cyanothiophene"], "SMILES": "C(#N)C=1C(Cl)=C(C=O)SC1N", "physical_data": {"Molecular Weight": "186.62", "Molecular Formula": "C6H3ClN2OS", "Melting Point": "270 \u00b0C"}}