{"cas_no": "1043-21-6", "cn_name": "\u5421\u8bfa\u514b\u8f9b", "en_name": ["Pirenoxine", "5H-Pyrido[3,2-a]phenoxazine-3-carboxylic acid, 1-hydroxy-5-oxo-", "1-Hydroxy-5-oxo-5H-pyrido[3,2-a]phenoxazine-3-carboxylic acid", "1-Hydroxy-3-carboxy-5H-pyrido[3,2-a]phenoxazin-5-one", "1-Hydroxy-5H-pyrido[3,2-a]phenoxazin-5-one-3-carboxylic acid", "Catalin", "Catalin (pharmaceutical)", "Clarvisan", "HPPC", "Pirenoxine", "Catalin K", "Kary-Uni", "Pyrphenoxone", "Pirfenoxone", "1,5-Dioxo-4H-pyrido[3,2-a]phenoxazine-3-carboxylic acid"], "SMILES": "OC1=C2C=3C(OC=4C(N3)=CC=CC4)=CC(=O)C2=NC(C(O)=O)=C1", "physical_data": {"Molecular Weight": "308.25", "Molecular Formula": "C16H8N2O5", "Melting Point": "247 \u00b0C (decomp)"}}