{"cas_no": "10433-06-4", "cn_name": "\u4e59\u9187\u9511", "en_name": ["Antimony ethoxide", "Ethanol, antimony(3+) salt", "Antimonic acid (H3SbO3), triethyl ester", "Ethyl antimonate(III)", "Triethoxyantimony", "Antimony triethoxide", "Antimony ethoxide", "Triethyl antimonite", "Triethoxystibine", "Ethyl antimonite", "Antimony(III) ethoxide"], "SMILES": "C(C)O.[Sb]", "physical_data": {"Molecular Weight": "", "Molecular Formula": "C2H6O.<sup>1</sup>/3Sb", "Boiling Point": "71-73 \u00b0C @ Press: 0.5 Torr", "Density": "1.524 g/cm\u00b3"}}