{"cas_no": "10431-99-9", "cn_name": "2-\u5f02\u4e19\u57fa-2-\u6076\u5511\u5549", "en_name": ["2-Isopropyl-2-oxazoline", "Oxazole, 4,5-dihydro-2-(1-methylethyl)-", "2-Oxazoline, 2-isopropyl-", "4,5-Dihydro-2-(1-methylethyl)oxazole", "2-Isopropyl-2-oxazoline", "2-(Propan-2-yl)-4,5-dihydro-1,3-oxazole"], "SMILES": "C(C)(C)C1=NCCO1", "physical_data": {"Molecular Weight": "113.16", "Molecular Formula": "C6H11NO", "Boiling Point": "137-138 \u00b0C"}}