{"cas_no": "10431-98-8", "cn_name": "2-\u4e59\u57fa-2-\u5511\u5549", "en_name": ["2-Ethyl-2-oxazoline", "Oxazole, 2-ethyl-4,5-dihydro-", "2-Oxazoline, 2-ethyl-", "2-Ethyl-4,5-dihydrooxazole", "2-Ethyl-2-oxazoline", "2-Ethyloxazoline", "NSC 136557"], "SMILES": "C(C)C1=NCCO1", "physical_data": {"Molecular Weight": "99.13", "Molecular Formula": "C5H9NO", "Boiling Point": "56-58 \u00b0C @ Press: 100 Torr"}}