{"cas_no": "1043-50-1", "cn_name": "\u4e94\u6c1f\u4e8c\u82ef\u786b\u919a", "en_name": ["1,1\u2032-Thiobis[2,3,4,5,6-pentafluorobenzene]", "Benzene, 1,1\u2032-thiobis[2,3,4,5,6-pentafluoro-", "Sulfide, bis(pentafluorophenyl)", "1,1\u2032-Thiobis[2,3,4,5,6-pentafluorobenzene]", "Bis(pentafluorophenyl) sulfide", "Pentafluorophenyl sulfide", "Perfluorodiphenyl sulfide", "Decafluorodiphenyl sulfide", "Bis(2,3,4,5,6-pentafluorophenyl) sulfide", "1,2,3,4,5-Pentafluoro-6-(2,3,4,5,6-pentafluorophenyl)sulfanylbenzene"], "SMILES": "S(C1=C(F)C(F)=C(F)C(F)=C1F)C2=C(F)C(F)=C(F)C(F)=C2F", "physical_data": {"Molecular Weight": "366.18", "Molecular Formula": "C12F10S", "Melting Point": "87 \u00b0C"}}