{"cas_no": "104344-23-2", "cn_name": "\u5bcc\u9a6c\u9178\u6bd4\u7d22\u6d1b\u5c14", "en_name": ["Bisoprolol fumarate", "2-Propanol, 1-[4-[[2-(1-methylethoxy)ethoxy]methyl]phenoxy]-3-[(1-methylethyl)amino]-, (2E)-2-butenedioate (2:1)", "2-Propanol, 1-[4-[[2-(1-methylethoxy)ethoxy]methyl]phenoxy]-3-[(1-methylethyl)amino]-, (\u00b1)-, (E)-2-butenedioate (2:1) (salt)", "2-Propanol, 1-[4-[[2-(1-methylethoxy)ethoxy]methyl]phenoxy]-3-[(1-methylethyl)amino]-, (E)-2-butenedioate (2:1) (salt)", "2-Propanol, 1-[4-[[2-(1-methylethoxy)ethoxy]methyl]phenoxy]-3-[(1-methylethyl)amino]-, (2E)-2-butenedioate (2:1) (salt)", "Bisoprolol fumarate", "EMD 33512", "Concor", "Bisoprolol hemifumarate", "Zebeta", "Eurtadal", "Monocor", "Detensiel", "Emvoncor", "Soprol", "Isoten", "Emcor", "Maintate", "1-(4-((2-Isopropoxyethoxy)methyl)phenoxy)-3-(isopropylamino)propan-2-ol hemifumarate"], "SMILES": "C(=CC(O)=O)C(O)=O.O(CC(CNC(C)C)O)C1=CC=C(COCCOC(C)C)C=C1", "physical_data": {"Molecular Weight": "", "Molecular Formula": "C18H31NO4.<sup>1</sup>/2C4H4O4", "Melting Point": "100 \u00b0C"}}