{"cas_no": "104372-31-8", "cn_name": "(1R)-(-)-10-\u6a1f\u8111\u78fa\u54d1\u55ea", "en_name": ["4H-4a,7-Methanooxazirino[3,2-i][2,1]benzisothiazole, tetrahydro-9,9-dimethyl-, 3,3-dioxide, (4aR,7S,8aR)-", "4H-4a,7-Methanooxazirino[3,2-i][2,1]benzisothiazole, tetrahydro-9,9-dimethyl-, 3,3-dioxide, (4aR,7S,8aR)-", "4H-4a,7-Methanooxazirino[3,2-i][2,1]benzisothiazole, tetrahydro-9,9-dimethyl-, 3,3-dioxide, [4aR-(4a\u03b1,7\u03b1,8aR*)]-", "(-)-(Camphorsulfonyl)oxaziridine", "(-)-(Camphorylsulfonyl)oxaziridine"], "SMILES": "CC1(C)C23C4(N(O4)S(=O)(=O)C2)CC1CC3", "physical_data": {"Molecular Weight": "229.30", "Molecular Formula": "C10H15NO3S", "Melting Point": "163-165 \u00b0C"}}