{"cas_no": "10443-65-9", "cn_name": "2-\u6eb4\u4e19\u70ef\u9178", "en_name": ["2-Bromoacrylic acid", "2-Propenoic acid, 2-bromo-", "Acrylic acid, 2-bromo-", "2-Bromo-2-propenoic acid", "2-Bromoacrylic acid", "\u03b1-Bromoacrylic acid", "NSC 227848"], "SMILES": "C(C(O)=O)(Br)=C", "physical_data": {"Molecular Weight": "150.96", "Molecular Formula": "C3H3BrO2", "Melting Point": "72 \u00b0C"}}