{"cas_no": "10441-57-3", "cn_name": "1-\u7532\u57fa\u5421\u54af\u70f7-2-\u786b\u916e", "en_name": ["1-Methyl-2-pyrrolidinethione", "2-Pyrrolidinethione, 1-methyl-", "1-Methyl-2-pyrrolidinethione", "N-Methyl-2-pyrrolidinethione", "N-Methyl-2-thiopyrrolidone", "N-Methyl-2-thiopyrrolidinone"], "SMILES": "S=C1N(C)CCC1", "physical_data": {"Molecular Weight": "115.20", "Molecular Formula": "C5H9NS", "Boiling Point": "144-145 \u00b0C @ Press: 15 Torr"}}