{"cas_no": "10441-41-5", "cn_name": "6-\u4e59\u9170\u57fa-2-\u8418\u915a", "en_name": ["1-(6-Hydroxy-2-naphthalenyl)ethanone", "Ethanone, 1-(6-hydroxy-2-naphthalenyl)-", "2\u2032-Acetonaphthone, 6\u2032-hydroxy-", "1-(6-Hydroxy-2-naphthalenyl)ethanone", "6-Acetyl-2-naphthol", "2-Hydroxy-6-acetylnaphthalene", "2-Acetyl-6-naphthalenol", "6-Acetyl-2-hydroxynaphthalene", "6\u2032-Hydroxy-2\u2032-acetonaphthone", "6-Hydroxy-2-naphthyl methyl ketone", "1-(6-Hydroxy-2-naphthyl)ethanone", "NSC 139891", "1-(6-Hydroxy-2-naphthyl)ethan-1-one", "1-(6-Hydroxynaphthalen-2-yl)ethanone", "2-Acetyl-6-hydroxynaphthalene", "1-(6-Hydroxynaphthalen-2-yl)ethan-1-one"], "SMILES": "C(C)(=O)C1=CC2=C(C=C(O)C=C2)C=C1", "physical_data": {"Molecular Weight": "186.21", "Molecular Formula": "C12H10O2", "Melting Point": "171 \u00b0C", "Density": "1.36 g/cm\u00b3"}}