{"cas_no": "10447-11-7", "cn_name": "4-\u7532\u57fa-1-\u8418\u78fa\u9170\u6c2f", "en_name": ["4-Methyl-1-naphthalenesulfonyl chloride", "1-Naphthalenesulfonyl chloride, 4-methyl-", "4-Methyl-1-naphthalenesulfonyl chloride"], "SMILES": "S(Cl)(=O)(=O)C=1C2=C(C(C)=CC1)C=CC=C2", "physical_data": {"Molecular Weight": "240.71", "Molecular Formula": "C11H9ClO2S", "Boiling Point": "178-180 \u00b0C @ Press: 15 Torr", "Melting Point": "78-80 \u00b0C"}}