{"cas_no": "10444-89-0", "cn_name": "2-\u6c28\u57fa-5-\u4e09\u6c1f\u7532\u57fa-1,3,4-\u567b\u91cd\u6c2e", "en_name": ["5-(Trifluoromethyl)-1,3,4-thiadiazol-2-amine", "1,3,4-Thiadiazol-2-amine, 5-(trifluoromethyl)-", "1,3,4-Thiadiazole, 2-amino-5-(trifluoromethyl)-", "5-(Trifluoromethyl)-1,3,4-thiadiazol-2-amine", "2-Amino-5-(trifluoromethyl)-1,3,4-thiadiazole", "2-Trifluoromethyl-5-amino-1,3,4-thiadiazole", "5-Amino-2-(trifluoromethyl)-1,3,4-thiadiazole", "5-Trifluoromethyl-2-amino-1,3,4-thiadiazole", "2-Amino-5-trifluoromethyl-1,2,4-thiadizole", "NSC 231655", "(5-Trifluoromethyl-1,3,4-thiadiazol-2-yl)amine", "5-(Trifluoromethyl)-1,3,4-thiadiazole-2-amine", "2-Amino-5-[4-(trifluoromethyl)]-1,3,4-thiadiazole"], "SMILES": "C(F)(F)(F)C=1SC(N)=NN1", "physical_data": {"Molecular Weight": "169.13", "Molecular Formula": "C3H2F3N3S", "Melting Point": "235 \u00b0C"}}