{"cas_no": "1044870-39-4", "cn_name": "RVX-208", "en_name": ["Apabetalone", "4(3H)-Quinazolinone, 2-[4-(2-hydroxyethoxy)-3,5-dimethylphenyl]-5,7-dimethoxy-", "2-[4-(2-Hydroxyethoxy)-3,5-dimethylphenyl]-5,7-dimethoxy-4(3H)-quinazolinone", "2-[4-(2-Hydroxyethoxy)-3,5-dimethylphenyl]-5,7-dimethoxy-3H-quinazolin-4-one", "2-[4-(2-Hydroxyethoxy)-3,5-dimethylphenyl]-5,7-dimethoxyquinazolin-4(3H)-one", "RVX 208", "RVX 000222", "Apabetalone", "2-[4-(2-Hydroxyethoxy)-3,5-dimethylphenyl]-5,7-dimethoxy-1H-quinazolin-4-one"], "SMILES": "O(C)C1=C2C(NC(=NC2=O)C3=CC(C)=C(OCCO)C(C)=C3)=CC(OC)=C1", "physical_data": {"Molecular Weight": "370.40", "Molecular Formula": "C20H22N2O5", "Melting Point": "594.2 \u00b0C"}}