{"cas_no": "10447-39-9", "cn_name": "\u82ac\u5361\u9187", "en_name": ["Quifenadine", "1-Azabicyclo[2.2.2]octane-3-methanol, \u03b1,\u03b1-diphenyl-", "3-Quinuclidinemethanol, \u03b1,\u03b1-diphenyl-", "\u03b1,\u03b1-Diphenyl-1-azabicyclo[2.2.2]octane-3-methanol", "Diphenyl-3-quinuclidylcarbinol", "Quifenadine", "(1-Aza-bicyclo[2.2.2]oct-3-yl)-diphenyl-methanol", "1-Azabicyclo[2.2.2]octan-3-yl(diphenyl)methanol"], "SMILES": "C(O)(C1C2CCN(C1)CC2)(C3=CC=CC=C3)C4=CC=CC=C4", "physical_data": {"Molecular Weight": "293.40", "Molecular Formula": "C20H23NO", "Melting Point": "239 \u00b0C"}}