{"cas_no": "10443-70-6", "cn_name": "2\u75324\u6c2f\u4e01\u9178\u4e59\u916f", "en_name": ["MCPB ethyl", "Butanoic acid, 4-(4-chloro-2-methylphenoxy)-, ethyl ester", "Butyric acid, 4-[(4-chloro-o-tolyl)oxy]-, ethyl ester", "MCPB ethyl", "Ethyl \u03b3-(2-methyl-4-chlorophenoxy)butyrate", "Ethyl 4-[(4-chloro-o-tolyl)oxy]butyrate", "MCPB ethyl ester", "Ethyl 4-(4-chloro-2-methylphenoxy)butyrate", "Ethyl (2-methyl-4-chlorophenoxy)butyrate", "MCPBE"], "SMILES": "O(CCCC(OCC)=O)C1=C(C)C=C(Cl)C=C1", "physical_data": {"Molecular Weight": "256.73", "Molecular Formula": "C13H17ClO3", "Boiling Point": "166.5 \u00b0C", "Melting Point": "-1 \u00b0C"}}