{"cas_no": "10442-39-4", "cn_name": "\u6c30\u5316\u56db\u4e01\u57fa\u80fa", "en_name": ["Tetrabutylammonium cyanide", "1-Butanaminium, N,N,N-tributyl-, cyanide (1:1)", "Ammonium, tetrabutyl-, cyanide", "1-Butanaminium, N,N,N-tributyl-, cyanide", "Tetrabutylammonium cyanide"], "SMILES": "[C-]#N.[N+](CCCC)(CCCC)(CCCC)CCCC", "physical_data": {"Molecular Weight": "", "Molecular Formula": "C16H36N.CN", "Melting Point": "188 \u00b0C"}}