{"cas_no": "10441-27-7", "cn_name": "3-\u4e59\u9170\u57fa-7-\u7f9f\u57fa-\u82ef\u5e76\u5421\u5583-2-\u916e", "en_name": ["3-Acetyl-7-hydroxy-2H-1-benzopyran-2-one", "2H-1-Benzopyran-2-one, 3-acetyl-7-hydroxy-", "Coumarin, 3-acetyl-7-hydroxy-", "Umbelliferone, 3-acetyl-", "3-Acetyl-7-hydroxy-2H-1-benzopyran-2-one", "3-Acetyl-7-hydroxycoumarin", "7-Hydroxy-3-acetylcoumarin", "3-Acetylumbelliferone", "3-Acetyl-7-hydroxychromen-2-one", "3-Acetyl-7-hydroxy-2H-chromen-2-one"], "SMILES": "O=C1OC=2C(C=C1C(C)=O)=CC=C(O)C2", "physical_data": {"Molecular Weight": "204.18", "Molecular Formula": "C11H8O4", "Melting Point": "236 \u00b0C"}}