{"cas_no": "1044-49-1", "cn_name": "2,5-\u53cc(4-\u785d\u57fa\u82ef\u57fa)-1,3,4-\u4e8c\u5511", "en_name": ["2,5-Bis(4-nitrophenyl)-1,3,4-oxadiazole", "1,3,4-Oxadiazole, 2,5-bis(4-nitrophenyl)-", "1,3,4-Oxadiazole, 2,5-bis(p-nitrophenyl)-", "2,5-Bis(4-nitrophenyl)-1,3,4-oxadiazole", "2,5-Bis(p-nitrophenyl)-1,3,4-oxadiazole", "2,5-Di(4-nitrophenyl)-1,3,4-oxadiazole"], "SMILES": "N(=O)(=O)C1=CC=C(C=2OC(=NN2)C3=CC=C(N(=O)=O)C=C3)C=C1", "physical_data": {"Molecular Weight": "312.24", "Molecular Formula": "C14H8N4O5", "Melting Point": "302 \u00b0C"}}