{"cas_no": "104594-70-9", "cn_name": "\u5496\u5561\u9178\u82ef\u4e59\u916f", "en_name": ["Caffeic acid phenethyl ester", "2-Propenoic acid, 3-(3,4-dihydroxyphenyl)-, 2-phenylethyl ester", "\u03b2-Phenylethyl caffeate", "2-Phenylethyl caffeate", "Caffeic acid phenethyl ester", "CAPE", "2-Phenylethyl 3-(3,4-dihydroxyphenyl)prop-2-enoate"], "SMILES": "C(=CC(OCCC1=CC=CC=C1)=O)C2=CC(O)=C(O)C=C2", "physical_data": {"Molecular Weight": "284.31", "Molecular Formula": "C17H16O4", "Melting Point": "153-155 \u00b0C"}}