{"cas_no": "10458-14-7", "cn_name": "\u8584\u8377\u916e", "en_name": ["p-Menthan-3-one", "Cyclohexanone, 5-methyl-2-(1-methylethyl)-", "p-Menthan-3-one", "5-Methyl-2-(1-methylethyl)cyclohexanone", "2-Isopropyl-5-methylcyclohexanone", "5-Methyl-2-isopropylcyclohexanone", "NSC 113134", "NSC 9280"], "SMILES": "C(C)(C)C1C(=O)CC(C)CC1", "physical_data": {"Molecular Weight": "154.25", "Molecular Formula": "C10H18O", "Boiling Point": "210 \u00b0C", "Melting Point": "25.02 \u00b0C", "Density": "0.8975 g/cm\u00b3 @ Temp: 20 \u00b0C"}}