{"cas_no": "10457-90-6", "cn_name": "\u6eb4\u54cc\u5229\u591a", "en_name": ["Bromperidol", "1-Butanone, 4-[4-(4-bromophenyl)-4-hydroxy-1-piperidinyl]-1-(4-fluorophenyl)-", "Butyrophenone, 4-[4-(p-bromophenyl)-4-hydroxypiperidino]-4\u2032-fluoro-", "4-[4-(4-Bromophenyl)-4-hydroxy-1-piperidinyl]-1-(4-fluorophenyl)-1-butanone", "Bromoperidol", "R 11333", "Bromperidol", "Tesoprel", "Azurene", "Impromen", "Bromodol"], "SMILES": "OC1(C2=CC=C(Br)C=C2)CCN(CCCC(=O)C3=CC=C(F)C=C3)CC1", "physical_data": {"Molecular Weight": "420.32", "Molecular Formula": "C21H23BrFNO2", "Melting Point": "155 \u00b0C"}}