{"cas_no": "10453-86-8", "cn_name": "\u82c4\u86a8\u83ca\u916f", "en_name": ["Resmethrin", "Cyclopropanecarboxylic acid, 2,2-dimethyl-3-(2-methyl-1-propen-1-yl)-, [5-(phenylmethyl)-3-furanyl]methyl ester", "Cyclopropanecarboxylic acid, 2,2-dimethyl-3-(2-methylpropenyl)-, (5-benzyl-3-furyl)methyl ester", "Cyclopropanecarboxylic acid, 2,2-dimethyl-3-(2-methyl-1-propenyl)-, [5-(phenylmethyl)-3-furanyl]methyl ester", "3-Furanmethanol, 5-benzyl-, 2,2-dimethyl-3-(2-methylpropenyl)cyclopropanecarboxylate", "NIA 17370", "NRDC 104", "(5-Benzyl-3-furyl)methyl 2,2-dimethyl-3-(2-methylpropenyl)cyclopropanecarboxylate", "(5-Benzyl-3-furyl)methyl-DL-cis, trans-chrysanthemate", "5-Benzyl-3-furylmethyl (\u00b1)-cis-trans-chrysanthemate", "Penick 1382", "Resmethrin", "dl-cis,trans-[(5-Benzyl-3-furyl)methyl]chrysanthemumate", "SBP 1382", "(5-Benzyl-3-furyl)methyl chrysanthemate", "5-Benzylfurfuryl chrysanthemate", "Chrysron", "Penncapthrin", "Pyresthrin", "Crossfire", "Enforcer", "ARI-B", "Seco", "[5-(Phenylmethyl)-3-furanyl]methyl 2,2-dimethyl-3-(2-methyl-1-propenyl)cyclopropanecarboxylate", "SBP 1383", "Enforcer (insecticide)", "2,2-Dimethyl-3-(2-methyl-propenyl)-cyclopropanecarboxylic acid 5-benzyl-furan-3-ylmethyl ester", "S 3252"], "SMILES": "C(=C(C)C)C1C(C(OCC=2C=C(CC3=CC=CC=C3)OC2)=O)C1(C)C", "physical_data": {"Molecular Weight": "338.44", "Molecular Formula": "C22H26O3", "Boiling Point": "174 \u00b0C", "Melting Point": "43-48 \u00b0C", "Density": "0.958-0.968 g/cm\u00b3 @ Temp: 20 \u00b0C"}}