{"cas_no": "10457-14-4", "cn_name": "2,4-\u4e8c(\u4e09\u7532\u7845\u6c27\u57fa)\u5627\u5576", "en_name": ["2,4-Bis(trimethylsiloxy)pyrimidine", "Pyrimidine, 2,4-bis[(trimethylsilyl)oxy]-", "Pyrimidine, 2,4-bis(trimethylsiloxy)-", "2,4-Bis[(trimethylsilyl)oxy]pyrimidine", "2,4-Bis(trimethylsilyl)uracil", "2,4-Bis(trimethylsiloxy)pyrimidine", "Bis(trimethylsilyl)uracil", "O,O\u2032-Bis(trimethylsilyl)uracil", "O,O-Bis(trimethylsilyl)uracil", "Uracil bis(trimethylsilyl) ether", "2,4-Di-O-(trimethylsilyl)uracil", "NSC 95115"], "SMILES": "O([Si](C)(C)C)C1=NC(O[Si](C)(C)C)=NC=C1", "physical_data": {"Molecular Weight": "256.45", "Molecular Formula": "C10H20N2O2Si2", "Boiling Point": "116 \u00b0C @ Press: 12 Torr", "Melting Point": "31-33 \u00b0C"}}