{"cas_no": "10453-89-1", "cn_name": "\u83ca\u7532\u9178", "en_name": ["Chrysanthemic acid", "Cyclopropanecarboxylic acid, 2,2-dimethyl-3-(2-methyl-1-propen-1-yl)-", "Cyclopropanecarboxylic acid, 2,2-dimethyl-3-(2-methylpropenyl)-", "Cyclopropanecarboxylic acid, 2,2-dimethyl-3-(2-methyl-1-propenyl)-", "Chrysanthemummonocarboxylic acid", "2,2-Dimethyl-3-(2-methyl-1-propen-1-yl)cyclopropanecarboxylic acid", "Chrysanthemic acid", "Chrysanthemumic acid", "3-Isobutenyl-2,2-dimethylcyclopropanecarboxylic acid", "2,2-Dimethyl-3-(2-methyl-1-propenyl)cyclopropanecarboxylic acid", "NSC 11779", "3,3-Dimethyl-2-(2-methyl-1-propenyl)cyclopropanecarboxylic acid", "2,2-Dimethyl-3-(2-methyl-propenyl)-cyclopropanecarboxylic acid", "2,2-Dimethyl-3-(2-methylprop-1-en-1-yl)cyclopropane-1-carboxylic acid"], "SMILES": "C(O)(=O)C1C(C=C(C)C)C1(C)C", "physical_data": {"Molecular Weight": "168.23", "Molecular Formula": "C10H16O2", "Boiling Point": "95 \u00b0C @ Press: 0.12 Torr", "Melting Point": "50-51 \u00b0C"}}