{"cas_no": "1045-69-8", "cn_name": "\u918b\u9178\u777e\u916e", "en_name": ["Testosterone, acetate", "Androst-4-en-3-one, 17-(acetyloxy)-, (17\u03b2)-", "Testosterone, acetate", "(17\u03b2)-17-(Acetyloxy)androst-4-en-3-one", "Aceto-sterandryl", "Aceto-testoviron", "17\u03b2-Acetoxy-\u03944-androsten-3-one", "17\u03b2-Acetoxy-4-androsten-3-one", "Perandrone A", "Testosterone 17-acetate", "SKF 5647", "17\u03b2-Hydroxyandrost-4-en-3-one-17\u03b2-acetate", "Androst-4-en-17\u03b2-ol-3-one acetate", "17\u03b2-Hydroxyandrost-4-en-3-one acetate", "Amolisin", "Androtest A", "Deposteron", "Farmatest", "3-Oxoandrost-4-en-17\u03b2-yl acetate", "4-Androsten-17\u03b2-ol-3-one 17-acetate", "17\u03b2-Acetoxyandrost-4-ene-3-one", "17\u03b2-Acetoxytestosterone", "17-O-Acetyltestosterone", "NSC 523836", "4-Androstene-17\u03b2-ol-3-one acetate"], "SMILES": "CC12C3C(C4C(C)(CC3)C(OC(C)=O)CC4)CCC1=CC(=O)CC2", "physical_data": {"Molecular Weight": "330.46", "Molecular Formula": "C21H30O3", "Melting Point": "140-141 \u00b0C"}}