{"cas_no": "10466-61-2", "cn_name": "L-\u4eae\u6c28\u9170\u80fa\u76d0\u9178\u76d0", "en_name": ["Leucinamide hydrochloride", "Pentanamide, 2-amino-4-methyl-, hydrochloride (1:1), (2S)-", "Leucinamide, monohydrochloride, L-", "Pentanamide, 2-amino-4-methyl-, monohydrochloride, (S)-", "Pentanamide, 2-amino-4-methyl-, monohydrochloride, (2S)-", "L-Leucinamide monohydrochloride", "L-Leucinamide hydrochloride", "Leucinamide hydrochloride", "Leucine amide hydrochloride", "(S)-Leucinamide hydrochloride", "NSC 83635", "(S)-2-Amino-4-methylvaleramide monohydrochloride", "(S)-2-Amino-4-methylpentanamide hydrochloride"], "SMILES": "C(CC(C)C)(C(N)=O)N.Cl", "physical_data": {"Molecular Weight": "", "Molecular Formula": "C6H14N2O.ClH", "Melting Point": "224-229 \u00b0C (decomp)"}}