{"cas_no": "104641-60-3", "cn_name": "(R)-(-)-1-\u7532\u57fa-3-\u7f9f\u57fa\u5421\u54af\u70f7", "en_name": ["(3R)-1-Methyl-3-pyrrolidinol", "3-Pyrrolidinol, 1-methyl-, (3R)-", "3-Pyrrolidinol, 1-methyl-, (R)-", "(3R)-1-Methyl-3-pyrrolidinol", "(R)-1-Methyl-3-pyrrolidinol", "(3R)-1-Methylpyrrolidin-3-ol", "(R)-N-Methyl-3-pyrrolidinol", "(R)-(-)-1-Methyl-3-hydroxypyrrolidine", "(R)-(-)-1-Methyl-3-pyrrolidinol", "3-Pyrrolidinol 1-methyl-, (3R)-"], "SMILES": "OC1CN(C)CC1", "physical_data": {"Molecular Weight": "101.15", "Molecular Formula": "C5H11NO", "Boiling Point": "103-106 \u00b0C @ Press: 35 Torr"}}