{"cas_no": "10461-98-0", "cn_name": "2-\u73af\u4e9a\u5df1\u57fa-2-\u82ef\u57fa\u4e59\u8148", "en_name": ["2-cyclohexylidene-2-phenylacetonitrile", "Benzeneacetonitrile, \u03b1-cyclohexylidene-", "\u03941,\u03b1-Cyclohexaneacetonitrile, \u03b1-phenyl-", "\u03b1-Cyclohexylidenebenzeneacetonitrile", "NSC 408284", "Peonile", "2-cyclohexylidene-2-phenylacetonitrile", "Petalia"], "SMILES": "C(C#N)(C1=CC=CC=C1)=C2CCCCC2", "physical_data": {"Molecular Weight": "197.28", "Molecular Formula": "C14H15N", "Boiling Point": "192-193 \u00b0C @ Press: 25 Torr", "Melting Point": "169-171 \u00b0C", "Density": "1.02981 g/cm\u00b3 @ Temp: 21.4 \u00b0C"}}