{"cas_no": "10469-09-7", "cn_name": "\u56db\u6c2f\u5421\u5576\u7532\u9178", "en_name": ["Tetrachloropicolinic acid", "2-Pyridinecarboxylic acid, 3,4,5,6-tetrachloro-", "Picolinic acid, tetrachloro-", "Picolinic acid, 3,4,5,6-tetrachloro-", "3,4,5,6-Tetrachloro-2-pyridinecarboxylic acid", "Tetrachloropicolinic acid", "Tetrachloro-2-pyridinecarboxylic acid", "3,4,5,6-Tetrachloropicolinic acid", "2,3,4,5-Tetrachloro-6-pyridinecarboxylic acid", "Tetrachloro-2-picolinic acid", "3,4,5,6-Tetrachloropyridine-2-carboxylic acid"], "SMILES": "C(O)(=O)C1=C(Cl)C(Cl)=C(Cl)C(Cl)=N1", "physical_data": {"Molecular Weight": "260.89", "Molecular Formula": "C6HCl4NO2", "Melting Point": "170-172 \u00b0C"}}