{"cas_no": "10463-20-4", "cn_name": "4-\u7f9f\u57fa-3-\u785d\u57fa\u82ef\u4e59\u9178", "en_name": ["4-Hydroxy-3-nitrophenylacetic acid", "Benzeneacetic acid, 4-hydroxy-3-nitro-", "Acetic acid, (4-hydroxy-3-nitrophenyl)-", "4-Hydroxy-3-nitrobenzeneacetic acid", "4-Hydroxy-3-nitrophenylacetic acid", "m-Nitro-p-hydroxyphenylacetic acid", "Antibiotic T 000B1", "Antibiotic T 0007B1", "4-Hydroxy-5-nitrophenylacetic acid", "3-Nitro-4-hydroxyphenylacetic acid", "2-(4-Hydroxy-3-nitrophenyl)acetic acid"], "SMILES": "C(C(O)=O)C1=CC(N(=O)=O)=C(O)C=C1", "physical_data": {"Molecular Weight": "197.14", "Molecular Formula": "C8H7NO5", "Melting Point": "146-147 \u00b0C"}}