{"cas_no": "10466-72-5", "cn_name": "N-(2,4-\u4e8c\u785d\u57fa\u82ef)-6-\u6c28\u57fa\u5df1\u9178", "en_name": ["Dinitrophenyl-\u03b5-aminocaproic acid", "Hexanoic acid, 6-[(2,4-dinitrophenyl)amino]-", "Hexanoic acid, 6-(2,4-dinitroanilino)-", "6-[(2,4-Dinitrophenyl)amino]hexanoic acid", "Dinitrophenyl-\u03b5-aminocaproic acid", "\u03b5-2,4-Dinitrophenylaminocaproic acid", "N-(2,4-Dinitrophenyl)-6-aminocaproic acid", "6-(2,4-Dinitroanilino)caproic acid", "N-(2,4-Dinitrophenyl)-\u03b5-aminocaproic acid", "[(2,4-Dinitrophenyl)amino]caproic acid", "DNP-\u03b5-amino-n-caproic acid", "NSC 89627"], "SMILES": "N(CCCCCC(O)=O)C1=C(N(=O)=O)C=C(N(=O)=O)C=C1", "physical_data": {"Molecular Weight": "297.26", "Molecular Formula": "C12H15N3O6", "Melting Point": "134 \u00b0C (decomp)"}}