{"cas_no": "104632-25-9", "cn_name": "\u76d0\u9178\u666e\u62c9\u514b\u7d22", "en_name": ["Pramipexole dihydrochloride", "2,6-Benzothiazolediamine, 4,5,6,7-tetrahydro-N6-propyl-, hydrochloride (1:2), (6S)-", "2,6-Benzothiazolediamine, 4,5,6,7-tetrahydro-N6-propyl-, dihydrochloride, (S)-", "2,6-Benzothiazolediamine, 4,5,6,7-tetrahydro-N6-propyl-, dihydrochloride, (6S)-", "Pramipexole dihydrochloride", "SND 19", "Pramipexole hydrochloride"], "SMILES": "NC1=NC2=C(CC(NCCC)CC2)S1.Cl", "physical_data": {"Molecular Weight": "", "Molecular Formula": "C10H17N3S.2ClH", "Melting Point": "296-298 \u00b0C"}}