{"cas_no": "10465-82-4", "cn_name": "\u5076\u6c2e\u4e8c\u7fb0\u57fa\u4e8c\u5417\u5549", "en_name": ["1,1\u2032-(1,2-Diazenediyl)bis[1-(4-morpholinyl)methanone]", "Methanone, 1,1\u2032-(1,2-diazenediyl)bis[1-(4-morpholinyl)-", "Diimide, bis(morpholinocarbonyl)-", "Morpholine, 4,4\u2032-(azodicarbonyl)bis-", "Morpholine, 4,4\u2032-(azodicarbonyl)di-", "1,1\u2032-(1,2-Diazenediyl)bis[1-(4-morpholinyl)methanone]", "1,1\u2032-Azobis(N,N-oxydiethyleneformamide)", "NSC 356022", "ADDM"], "SMILES": "C(N=NC(=O)N1CCOCC1)(=O)N2CCOCC2", "physical_data": {"Molecular Weight": "256.26", "Molecular Formula": "C10H16N4O4", "Melting Point": "140-141 \u00b0C"}}