{"cas_no": "104653-34-1", "cn_name": "\u567b\u9f20\u7075", "en_name": ["Difethialone", "2H-1-Benzothiopyran-2-one, 3-[3-(4\u2032-bromo[1,1\u2032-biphenyl]-4-yl)-1,2,3,4-tetrahydro-1-naphthalenyl]-4-hydroxy-", "3-[3-(4\u2032-Bromo[1,1\u2032-biphenyl]-4-yl)-1,2,3,4-tetrahydro-1-naphthalenyl]-4-hydroxy-2H-1-benzothiopyran-2-one", "Difethialone", "LM 2219", "Baraki", "Difethiarol"], "SMILES": "OC1=C(C2C=3C(CC(C2)C4=CC=C(C=C4)C5=CC=C(Br)C=C5)=CC=CC3)C(=O)SC=6C1=CC=CC6", "physical_data": {"Molecular Weight": "539.48", "Molecular Formula": "C31H23BrO2S", "Melting Point": "233-236 \u00b0C", "Density": "1.3614 g/cm\u00b3 @ Temp: 25 \u00b0C"}}