{"cas_no": "10465-78-8", "cn_name": "N,N,N',N'-\u56db\u7532\u57fa\u5076\u6c2e\u4e8c\u7532\u9170\u80fa", "en_name": ["N,N,N\u2032,N\u2032-Tetramethylazodicarboxamide", "1,2-Diazenedicarboxamide, N1,N1,N2,N2-tetramethyl-", "Formamide, 1,1\u2032-azobis[N,N-dimethyl-", "Diazenedicarboxamide, tetramethyl-", "N1,N1,N2,N2-Tetramethyl-1,2-diazenedicarboxamide", "1,1\u2032-Azobis[N,N-dimethylformamide]", "Diamide", "Diazenedicarboxylic acid bis(N,N-dimethylamide)", "N,N,N\u2032,N\u2032-Tetramethylazodicarboxamide", "N,N,N\u2032,N\u2032-Tetramethylazoformamide", "N,N,N\u2032,N\u2032-Tetramethylazobisformamide", "TMAD", "Azodicarboxylic acid bis-dimethylamide", "Tetramethyldiazenedicarboxamide", "A 19315", "NSC 143013", "3-(N,N-Dimethylcarbamoylimido)-1,1-dimethylurea", "MeSH ID: D003958"], "SMILES": "C(N(C)C)(N=NC(N(C)C)=O)=O", "physical_data": {"Molecular Weight": "172.19", "Molecular Formula": "C6H12N4O2", "Melting Point": "111-112 \u00b0C"}}