{"cas_no": "1046-56-6", "cn_name": "3-(2-\u5421\u5576\u57fa)-5,6-\u4e8c\u82ef\u57fa-1,2,4-\u4e09\u55ea", "en_name": ["3-(2-Pyridyl)-5,6-diphenyl-1,2,4-triazine", "1,2,4-Triazine, 5,6-diphenyl-3-(2-pyridinyl)-", "as-Triazine, 5,6-diphenyl-3-(2-pyridyl)-", "5,6-Diphenyl-3-(2-pyridinyl)-1,2,4-triazine", "3-(2-Pyridyl)-5,6-diphenyl-1,2,4-triazine", "5,6-Diphenyl-3-(pyridin-2-yl)-as-triazine", "5,6-Diphenyl-3-(2-pyridyl)-1,2,4-triazine", "PDT", "Ferroprint", "Ferrotrace", "PDT (ligand)", "NSC 242686", "3-(Pyridin-2-yl)-5,6-diphenyl-1,2,4-triazine"], "SMILES": "C=1(C(=NN=C(N1)C2=CC=CC=N2)C3=CC=CC=C3)C4=CC=CC=C4", "physical_data": {"Molecular Weight": "310.35", "Molecular Formula": "C20H14N4", "Melting Point": "189-190 \u00b0C"}}