{"cas_no": "104612-35-3", "cn_name": "(S)-3-HYDROXY-1-METHYLPYRROLIDINE-2,5-DIONE", "en_name": ["(S)-N-Methylhydroxysuccinimide", "2,5-Pyrrolidinedione, 3-hydroxy-1-methyl-, (3S)-", "2,5-Pyrrolidinedione, 3-hydroxy-1-methyl-, (S)-", "(3S)-3-Hydroxy-1-methyl-2,5-pyrrolidinedione", "(S)-N-Methylhydroxysuccinimide", "2,5-Pyrrolidinedione 3-hydroxy-1-methyl-, (3S)-", "(S)-(-)-2-Hydroxy-N-methylsuccinimide"], "SMILES": "O=C1N(C)C(=O)CC1O", "physical_data": {"Molecular Weight": "129.11", "Molecular Formula": "C5H7NO3", "Boiling Point": "140 \u00b0C @ Press: 2 Torr", "Melting Point": "87-89 \u00b0C"}}