{"cas_no": "104691-86-3", "cn_name": "\u9ec4\u7fbd\u6247\u8c46\u9b4f\u7279\u916e", "en_name": ["5,7-Dihydroxy-3-(4-hydroxyphenyl)-8-(3-methyl-2-buten-1-yl)-4H-1-benzopyran-4-one", "4H-1-Benzopyran-4-one, 5,7-dihydroxy-3-(4-hydroxyphenyl)-8-(3-methyl-2-buten-1-yl)-", "4H-1-Benzopyran-4-one, 5,7-dihydroxy-3-(4-hydroxyphenyl)-8-(3-methyl-2-butenyl)-", "5,7-Dihydroxy-3-(4-hydroxyphenyl)-8-(3-methyl-2-buten-1-yl)-4H-1-benzopyran-4-one", "Lupiwighteone", "8-Prenylgenistein"], "SMILES": "O=C1C=2C(=C(CC=C(C)C)C(O)=CC2O)OC=C1C3=CC=C(O)C=C3", "physical_data": {"Molecular Weight": "338.35", "Molecular Formula": "C20H18O5", "Melting Point": "133-135 \u00b0C"}}