{"cas_no": "104615-18-1", "cn_name": "CGS 15943", "en_name": ["9-Chloro-2-(2-furanyl)[1,2,4]triazolo[1,5-c]quinazolin-5-amine", "[1,2,4]Triazolo[1,5-c]quinazolin-5-amine, 9-chloro-2-(2-furanyl)-", "9-Chloro-2-(2-furanyl)[1,2,4]triazolo[1,5-c]quinazolin-5-amine", "CGS 15943A", "CGS 15943"], "SMILES": "NC=1N2C(C=3C(N1)=CC=C(Cl)C3)=NC(=N2)C4=CC=CO4", "physical_data": {"Molecular Weight": "285.69", "Molecular Formula": "C13H8ClN5O", "Melting Point": "278-279 \u00b0C"}}