{"cas_no": "104612-36-4", "cn_name": "5-\u6eb4-2-\u7f9f\u57fa\u70df\u9178", "en_name": ["5-Bromo-1,2-dihydro-2-oxo-3-pyridinecarboxylic acid", "3-Pyridinecarboxylic acid, 5-bromo-1,2-dihydro-2-oxo-", "5-Bromo-1,2-dihydro-2-oxo-3-pyridinecarboxylic acid", "5-Bromo-2-hydroxy-3-pyridinecarboxylic acid", "5-Bromo-2-hydroxynicotinic acid", "2-Hydroxy-5-bromonicotinic acid", "5-Bromo-2-oxo-1,2-dihydropyridine-3-carboxylic acid"], "SMILES": "C(O)(=O)C=1C(=O)NC=C(Br)C1", "physical_data": {"Molecular Weight": "218.00", "Molecular Formula": "C6H4BrNO3", "Melting Point": "245 \u00b0C"}}