{"cas_no": "10468-90-3", "cn_name": "L-3-\u7898\u7532\u817a\u539f\u6c28\u9178", "en_name": ["3-Iodo-L-thyronine", "L-Tyrosine, O-(4-hydroxyphenyl)-3-iodo-", "Alanine, 3-[4-(p-hydroxyphenoxy)-3-iodophenyl]-, L-", "O-(4-Hydroxyphenyl)-3-iodo-L-tyrosine", "3-Iodo-L-thyronine", "3-Monoiodothyronine"], "SMILES": "O(C1=C(I)C=C(CC(C(O)=O)N)C=C1)C2=CC=C(O)C=C2", "physical_data": {"Molecular Weight": "399.18", "Molecular Formula": "C15H14INO4", "Melting Point": "206 \u00b0C (decomp)"}}