{"cas_no": "10466-65-6", "cn_name": "\u9ad8\u94fc\u9178\u94be", "en_name": ["Potassium perrhenate", "Rhenate (ReO41-), potassium (1:1), (T-4)-", "Perrhenic acid (HReO4), potassium salt", "Rhenate (ReO41-), potassium, (T-4)-", "Potassium perrhenate", "Potassium rhenium oxide (KReO4)", "Potassium perrhenate (KReO4)", "Potassium perrhenate(1-)", "Potassium rhenate (KReO4)", "Potassium tetraoxorhenate(1-)", "NSC 339905"], "SMILES": "[Re-](=O)(=O)(=O)=O.[K+]", "physical_data": {"Molecular Weight": "", "Molecular Formula": "K.O4Re", "Boiling Point": "1370 \u00b0C", "Melting Point": "552-553 \u00b0C"}}