{"cas_no": "104706-47-0", "cn_name": "(R)-3-\u7f9f\u57fa\u5421\u54af\u70f7\u76d0\u9178\u76d0", "en_name": ["3-Pyrrolidinol, hydrochloride (1:1), (3R)-", "3-Pyrrolidinol, hydrochloride (1:1), (3R)-", "3-Pyrrolidinol, hydrochloride, (R)-", "3-Pyrrolidinol, hydrochloride, (3R)-", "(R)-(-)-3-Pyrrolidinol hydrochloride", "(R)-(-)-3-Hydroxypyrrolidine hydrochloride", "(3R)-3-Hydroxypyrrolidine hydrochloride", "(3R)-3-Pyrrolidinol hydrochloride", "(R)-3-Hydroxypyrrolidine hydrochloride", "(R)-3-Pyrrolidinol hydrochloride", "3-(R)-Hydroxypyrrolidine hydrochloride", "(R)-Pyrrolidin-3-ol hydrochloride", "(3R)-Pyrrolidin-3-ol hydrochloride", "(R)-(-)-3-Hydroxypyrrolidine hydrochloride", "(R)-3-Hydroxypyrrolidine hydrochloride"], "SMILES": "OC1CCNC1.Cl", "physical_data": {"Molecular Weight": "", "Molecular Formula": "C4H9NO.ClH", "Melting Point": "106-109 \u00b0C"}}