{"cas_no": "104797-47-9", "cn_name": "\u5934\u5b62\u5730\u5c3c\u6d3b\u6027\u65b0\u916f(CAEM)", "en_name": ["S-2-Benzothiazolyl (\u03b1Z)-\u03b1-[(acetyloxy)imino]-2-amino-4-thiazoleethanethioate", "4-Thiazoleethanethioic acid, \u03b1-[(acetyloxy)imino]-2-amino-, S-2-benzothiazolyl ester, (\u03b1Z)-", "4-Thiazoleethanethioic acid, \u03b1-[(acetyloxy)imino]-2-amino-, S-2-benzothiazolyl ester, (Z)-", "S-2-Benzothiazolyl (\u03b1Z)-\u03b1-[(acetyloxy)imino]-2-amino-4-thiazoleethanethioate", "2-Mercaptobenzothiazolyl (Z)-2-(2-amino-4-thiazolyl)-2-acetyloxyiminoacetate"], "SMILES": "C(C(SC1=NC=2C(S1)=CC=CC2)=O)(=NOC(C)=O)C=3N=C(N)SC3", "physical_data": {"Molecular Weight": "378.45", "Molecular Formula": "C14H10N4O3S3", "Melting Point": "143-145 \u00b0C"}}