{"cas_no": "104704-09-8", "cn_name": "4'-\u7532\u57fa-2,2'-\u8054\u5421\u5576-4-\u7532\u919b", "en_name": ["4\u2032-Methyl[2,2\u2032-bipyridine]-4-carboxaldehyde", "[2,2\u2032-Bipyridine]-4-carboxaldehyde, 4\u2032-methyl-", "4\u2032-Methyl[2,2\u2032-bipyridine]-4-carboxaldehyde", "4-Methyl-2,2\u2032-bipyridine-4\u2032-carbaldehyde", "4-Methyl-2,2\u2032-bipyridine-4\u2032-carboxaldehyde", "4-Formyl-4\u2032-methyl-2,2\u2032-bipyridine", "4-Carboxaldehyde-4\u2032-methyl-2,2\u2032-bipyridine", "4\u2032-Formyl-4-methyl-2,2\u2032-bipyridyl", "4-(4\u2032-Methyl-2,2\u2032-bipyridyl)carboxaldehyde", "4\u2032-Methyl-2,2\u2032-bipyridyl-4-carboxaldehyde", "4\u2032-Dimethyl-2,2\u2032-bipyridine-4-carboxaldehyde", "4\u2032-Methyl-2,2\u2032-bipyridine-4-carbaldehyde", "4\u2032-Methyl-2,2\u2032-bipyridine-4-carboxaldehyde", "4-Carbaldehyde-4,-methyl-2,2\u2032-bipyridyl", "4-Methyl-4-carbonyl-2,2-bipyridine", "2-(4-Methylpyridin-2-yl)pyridine-4-carbaldehyde"], "SMILES": "C(=O)C=1C=C(N=CC1)C2=CC(C)=CC=N2", "physical_data": {"Molecular Weight": "198.22", "Molecular Formula": "C12H10N2O", "Melting Point": "130-131 \u00b0C"}}