{"cas_no": "10472-24-9", "cn_name": "2-\u7532\u6c27\u7fb0\u57fa\u73af\u620a\u916e", "en_name": ["Methyl 2-oxocyclopentanecarboxylate", "Cyclopentanecarboxylic acid, 2-oxo-, methyl ester", "Methyl 2-oxocyclopentanecarboxylate", "2-Carbomethoxycyclopentanone", "2-(Methoxycarbonyl)cyclopentanone", "Methyl 2-cyclopentanone-1-carboxylate", "Methyl 2-oxo-1-cyclopentanecarboxylate", "Cyclopentenone-2-carboxylic acid methyl ester", "Methyl 2-oxocyclopentacarboxylate", "2-Oxocyclopentanecarboxylic acid methyl ester", "2-Cyclopentanonecarboxylic acid methyl ester", "Methyl cyclopentanone-2-carboxylate", "Methyl 2-oxocyclopentan-1-carboxylate"], "SMILES": "C(OC)(=O)C1C(=O)CCC1", "physical_data": {"Molecular Weight": "142.15", "Molecular Formula": "C7H10O3", "Boiling Point": "105 \u00b0C @ Press: 19 Torr", "Melting Point": "123-125 \u00b0C", "Density": "1.145 g/cm\u00b3 @ Temp: 0 \u00b0C"}}