{"cas_no": "104700-98-3", "cn_name": "\u7075\u829d\u919bA", "en_name": ["Ganoderal A", "Lanosta-7,9(11),24-trien-26-al, 3-oxo-, (24E)-", "(24E)-3-Oxolanosta-7,9(11),24-trien-26-al", "(+)-Ganoderal A", "Ganoderal A"], "SMILES": "CC12C=3C(C4(C)C(CC3)C(C)(C)C(=O)CC4)=CCC1(C)C(C(CCC=C(C=O)C)C)CC2", "physical_data": {"Molecular Weight": "436.67", "Molecular Formula": "C30H44O2", "Melting Point": "127-128 \u00b0C"}}