{"cas_no": "10476-81-0", "cn_name": "\u6eb4\u5316\u9536", "en_name": ["Strontium bromide (SrBr2)", "Strontium bromide (SrBr2)", "Strontium bromide", "Strontium dibromide"], "SMILES": "[Sr](Br)Br", "physical_data": {"Molecular Weight": "", "Molecular Formula": "Br2Sr", "Melting Point": "651 \u00b0C"}}