{"cas_no": "10471-28-0", "cn_name": "\u5341\u4e8c\u70f7\u4e8c\u9178\u4e8c\u4e59\u916f", "en_name": ["Dodecanedioic acid, 1,12-diethyl ester", "Dodecanedioic acid, 1,12-diethyl ester", "Dodecanedioic acid, diethyl ester", "Diethyl dodecanedioate", "Diethyl 1,10-decanedicarboxylate", "Diethyl 1,12-dodecanedioate", "NSC 137161"], "SMILES": "C(CCCCCCCCCCC(OCC)=O)(OCC)=O", "physical_data": {"Molecular Weight": "286.41", "Molecular Formula": "C16H30O4", "Boiling Point": "160-165 \u00b0C @ Press: 1.5 Torr", "Melting Point": "15.5-16.5 \u00b0C"}}