{"cas_no": "104713-75-9", "cn_name": "\u5df4\u5c3c\u5730\u5e73", "en_name": ["Barnidipine", "3,5-Pyridinedicarboxylic acid, 1,4-dihydro-2,6-dimethyl-4-(3-nitrophenyl)-, 3-methyl 5-[(3S)-1-(phenylmethyl)-3-pyrrolidinyl] ester, (4S)-", "3,5-Pyridinedicarboxylic acid, 1,4-dihydro-2,6-dimethyl-4-(3-nitrophenyl)-, methyl 1-(phenylmethyl)-3-pyrrolidinyl ester, [S-(R*,R*)]-", "3,5-Pyridinedicarboxylic acid, 1,4-dihydro-2,6-dimethyl-4-(3-nitrophenyl)-, methyl (3S)-1-(phenylmethyl)-3-pyrrolidinyl ester, (4S)-", "Mepirodipine", "Barnidipine", "Hypoca"], "SMILES": "C(OC1CN(CC2=CC=CC=C2)CC1)(=O)C=3C(C(C(OC)=O)=C(C)NC3C)C4=CC(N(=O)=O)=CC=C4", "physical_data": {"Molecular Weight": "491.54", "Molecular Formula": "C27H29N3O6", "Melting Point": "137-139 \u00b0C"}}