{"cas_no": "10476-95-6", "cn_name": "\u7532\u4e19\u70ef\u919b\u4e8c\u4e59\u9170\u57fa\u7f29\u919b", "en_name": ["2-Propene-1,1-diol, 2-methyl-, 1,1-diacetate", "2-Propene-1,1-diol, 2-methyl-, 1,1-diacetate", "2-Propene-1,1-diol, 2-methyl-, diacetate", "Methacrolein diacetate", "NSC 46577", "3,3-Diacetoxy-2-methylpropene", "2-Methylallylidene diacetate", "2-Methyl-2-propene-1,1-diol diacetate", "2-Methyl-2-propenylidene diacetate", "3,3-Diacetoxy-2-methyl-1-propene", "1,1-Diacetoxy-2-methyl-2-propene", "1-(Acetyloxy)-2-methylprop-2-en-1-yl acetate", "2-Methylprop-2-ene-1,1-diyl diacetate"], "SMILES": "C(OC(C)=O)(OC(C)=O)C(C)=C", "physical_data": {"Molecular Weight": "172.18", "Molecular Formula": "C8H12O4", "Boiling Point": "191 \u00b0C", "Density": "1.051 g/cm\u00b3 @ Temp: 20 \u00b0C"}}