{"cas_no": "104759-35-5", "cn_name": "GANODERIC ACID S", "en_name": ["Ganoderic acid S", "Lanosta-7,9(11),24-trien-26-oic acid, 3-oxo-, (24E)-", "(24E)-3-Oxolanosta-7,9(11),24-trien-26-oic acid", "Ganoderic acid S", "Ganoderic acid S1"], "SMILES": "CC12C=3C(C4(C)C(CC3)C(C)(C)C(=O)CC4)=CCC1(C)C(C(CCC=C(C(O)=O)C)C)CC2", "physical_data": {"Molecular Weight": "452.67", "Molecular Formula": "C30H44O3", "Melting Point": "168-169 \u00b0C"}}