{"cas_no": "104700-96-1", "cn_name": "GANODEROL B", "en_name": ["Ganoderol B", "Lanosta-7,9(11),24-triene-3,26-diol, (3\u03b2,24E)-", "(3\u03b2,24E)-Lanosta-7,9(11),24-triene-3,26-diol", "(+)-Ganoderol B", "Ganoderol B", "Ganodermadiol"], "SMILES": "CC12C=3C(C4(C)C(CC3)C(C)(C)C(O)CC4)=CCC1(C)C(C(CCC=C(CO)C)C)CC2", "physical_data": {"Molecular Weight": "440.70", "Molecular Formula": "C30H48O2", "Melting Point": "171-173 \u00b0C"}}