{"cas_no": "10476-86-5", "cn_name": "\u7898\u5316\u9536", "en_name": ["Strontium iodide", "Strontium iodide (SrI2)", "Strontium iodide", "Strontium diiodide"], "SMILES": "[Sr](I)I", "physical_data": {"Molecular Weight": "", "Molecular Formula": "I2Sr", "Melting Point": "402 \u00b0C", "Density": "4.42 g/cm\u00b3"}}