{"cas_no": "104700-97-2", "cn_name": "GANODEROL A", "en_name": ["Ganoderol A", "Lanosta-7,9(11),24-trien-3-one, 26-hydroxy-, (24E)-", "(24E)-26-Hydroxylanosta-7,9(11),24-trien-3-one", "(+)-Ganoderol A", "Ganoderol A", "Ganodermenonol"], "SMILES": "CC12C=3C(C4(C)C(CC3)C(C)(C)C(=O)CC4)=CCC1(C)C(C(CCC=C(CO)C)C)CC2", "physical_data": {"Molecular Weight": "438.68", "Molecular Formula": "C30H46O2", "Melting Point": "75-80 \u00b0C"}}