{"cas_no": "10476-85-4", "cn_name": "\u6c2f\u5316\u9536", "en_name": ["Strontium chloride", "Strontium chloride (SrCl2)", "Strontium chloride", "Strontium dichloride", "STC-K"], "SMILES": "[Sr](Cl)Cl", "physical_data": {"Molecular Weight": "", "Molecular Formula": "Cl2Sr", "Melting Point": "874 \u00b0C", "Density": "3.054 g/cm\u00b3"}}