{"cas_no": "104757-53-1", "cn_name": "\u76d0\u9178\u5df4\u5c3c\u5730\u5e73", "en_name": ["Barnidipine hydrochloride", "3,5-Pyridinedicarboxylic acid, 1,4-dihydro-2,6-dimethyl-4-(3-nitrophenyl)-, 3-methyl 5-[(3S)-1-(phenylmethyl)-3-pyrrolidinyl] ester, hydrochloride (1:1), (4S)-", "3,5-Pyridinedicarboxylic acid, 1,4-dihydro-2,6-dimethyl-4-(3-nitrophenyl)-, methyl 1-(phenylmethyl)-3-pyrrolidinyl ester, monohydrochloride, [S-(R*,R*)]-", "3,5-Pyridinedicarboxylic acid, 1,4-dihydro-2,6-dimethyl-4-(3-nitrophenyl)-, methyl (3S)-1-(phenylmethyl)-3-pyrrolidinyl ester, monohydrochloride, (4S)-", "YM 09730-5", "Barnidipine hydrochloride"], "SMILES": "C(OC1CN(CC2=CC=CC=C2)CC1)(=O)C=3C(C(C(OC)=O)=C(C)NC3C)C4=CC(N(=O)=O)=CC=C4.Cl", "physical_data": {"Molecular Weight": "", "Molecular Formula": "C27H29N3O6.ClH", "Melting Point": "226-228 \u00b0C"}}