{"cas_no": "10482-56-1", "cn_name": "alpha-\u677e\u6cb9\u9187", "en_name": ["(-)-\u03b1-Terpineol", "3-Cyclohexene-1-methanol, \u03b1,\u03b1,4-trimethyl-, (1S)-", "p-Menth-1-en-8-ol, (S)-(-)-", "3-Cyclohexene-1-methanol, \u03b1,\u03b1,4-trimethyl-, (S)-", "(1S)-\u03b1,\u03b1,4-Trimethyl-3-cyclohexene-1-methanol", "l-\u03b1-Terpineol", "(-)-\u03b1-Terpineol", "\u03b1-Terpineol, (-)-", "(S)-\u03b1-Terpineol", "(S)-(-)-\u03b1-Terpineol", "(S)-(-)-Terpineol", "(S)-\u03b1,\u03b1,4-Trimethyl-3-cyclohexene-1-methanol", "2-[(1S)-4-Methylcyclohex-3-en-1-yl]propan-2-ol", "L-Alpha-terpineol", "L-\u03b1-Terpineol"], "SMILES": "C(C)(C)(O)C1CCC(C)=CC1", "physical_data": {"Molecular Weight": "154.25", "Molecular Formula": "C10H18O", "Boiling Point": "80-81.5 \u00b0C @ Press: 5 Torr", "Melting Point": "33 \u00b0C", "Density": "0.935 g/cm\u00b3 @ Temp: 20 \u00b0C"}}