{"cas_no": "10487-71-5", "cn_name": "\u53cd-\u4e01\u70ef\u9170\u6c2f", "en_name": ["2-Butenoyl chloride", "2-Butenoyl chloride", "Crotonoyl chloride", "Crotonic acid chloride", "\u03b2-Methylacryloyl chloride"], "SMILES": "C(C(Cl)=O)=CC", "physical_data": {"Molecular Weight": "104.53", "Molecular Formula": "C4H5ClO", "Boiling Point": "124.5 \u00b0C", "Density": "1.0905 g/cm\u00b3 @ Temp: 20 \u00b0C"}}