{"cas_no": "1048-08-4", "cn_name": "\u56db\u82ef\u57fa\u7845\u70f7", "en_name": ["1,1\u2032,1\u2032\u2032,1\u2032\u2032\u2032-Silanetetrayltetrakis[benzene]", "Benzene, 1,1\u2032,1\u2032\u2032,1\u2032\u2032\u2032-silanetetrayltetrakis-", "Silane, tetraphenyl-", "1,1\u2032,1\u2032\u2032,1\u2032\u2032\u2032-Silanetetrayltetrakis[benzene]", "Tetraphenylsilane", "Tetraphenylsilicon", "NSC 33014"], "SMILES": "[Si](C1=CC=CC=C1)(C2=CC=CC=C2)(C3=CC=CC=C3)C4=CC=CC=C4", "physical_data": {"Molecular Weight": "336.50", "Molecular Formula": "C24H20Si", "Boiling Point": "228 \u00b0C @ Press: 3 Torr", "Melting Point": "236.5 \u00b0C", "Density": "1.078 g/cm\u00b3"}}