{"cas_no": "10484-56-7", "cn_name": "2-\u4e01\u6c27\u57fa\u8418", "en_name": ["2-Butoxynaphthalene", "Naphthalene, 2-butoxy-", "2-Butoxynaphthalene", "Fragarol", "\u03b2-Naphthol butyl ether", "Butyl \u03b2-naphthyl ether"], "SMILES": "O(CCCC)C1=CC2=C(C=C1)C=CC=C2", "physical_data": {"Molecular Weight": "200.28", "Molecular Formula": "C14H16O", "Boiling Point": "147-150 \u00b0C @ Press: 4 Torr", "Melting Point": "31-33 \u00b0C"}}