{"cas_no": "10486-19-8", "cn_name": "\u5341\u4e09\u919b", "en_name": ["Tridecanal", "Tridecanal", "Tridecyl aldehyde", "n-Tridecylaldehyde", "Tridecanaldehyde", "n-Tridecanal", "Aldehyde 13-13"], "SMILES": "C(CCCCCC=O)CCCCCC", "physical_data": {"Molecular Weight": "198.34", "Molecular Formula": "C13H26O", "Boiling Point": "126-138 \u00b0C @ Press: 15 Torr", "Melting Point": "14 \u00b0C"}}