{"cas_no": "1048-05-1", "cn_name": "\u56db\u82ef\u57fa\u9517", "en_name": ["Tetraphenylgermane", "Germane, tetraphenyl-", "Tetraphenylgermane", "Tetraphenylgermanium", "NSC 12140"], "SMILES": "[Ge](C1=CC=CC=C1)(C2=CC=CC=C2)(C3=CC=CC=C3)C4=CC=CC=C4", "physical_data": {"Molecular Weight": "381.06", "Molecular Formula": "C24H20Ge", "Boiling Point": "210 \u00b0C @ Press: 1 Torr", "Melting Point": "231-234 \u00b0C"}}