{"cas_no": "10486-08-5", "cn_name": "4-\u7532\u57fa\u82ef\u786b\u915a\u94a0", "en_name": ["Benzenethiol, 4-methyl-, sodium salt (1:1)", "Benzenethiol, 4-methyl-, sodium salt (1:1)", "p-Toluenethiol, sodium salt", "Benzenethiol, 4-methyl-, sodium salt", "Sodium, (p-tolylthio)-", "p-Toluenethiol, sodium deriv.", "Sodium p-toluenethiolate", "Sodium p-tolylmercaptide", "4-Methylbenzenethiol sodium salt", "Sodium p-methylthiophenoxide", "p-Thiocresol sodium salt", "Sodium p-methylthiophenolate", "Sodium p-thiocresolate", "Sodium 4-methylbenzenethiolate", "Sodium thiocresoxide", "p-Methylthiophenol sodium salt", "Sodium 4-toluenethiolate", "4-Methylthiophenol sodium salt", "Sodium 4-thiocresylate", "4-Thiocresol sodium salt", "Sodium p-methylbenzenethiolate", "Sodium 4-methylphenylthiolate", "Sodium p-tolylthiolate", "Sodium 4-methylthiophenoxide", "Sodium p-methylthiophenol"], "SMILES": "CC1=CC=C(S)C=C1.[Na]", "physical_data": {"Molecular Weight": "", "Molecular Formula": "C7H8S.Na", "Melting Point": "50-51 \u00b0C"}}