{"cas_no": "104829-98-3", "cn_name": "3-\u6c28\u57fa-2-\u6eb4-4,6-\u4e8c\u7532\u57fa\u5421\u5576", "en_name": ["2-Bromo-4,6-dimethyl-3-pyridinamine", "3-Pyridinamine, 2-bromo-4,6-dimethyl-", "2-Bromo-4,6-dimethyl-3-pyridinamine", "3-Amino-2-bromo-4,6-dimethylpyridine", "2-Bromo-4,6-dimethylpyridin-3-amine", "2-Bromo-4,6-dimethylpyridin-3-ylamine"], "SMILES": "NC=1C(C)=CC(C)=NC1Br", "physical_data": {"Molecular Weight": "201.06", "Molecular Formula": "C7H9BrN2", "Melting Point": "61-62 \u00b0C"}}