{"cas_no": "104872-06-2", "cn_name": "(3S,4S)-3-\u5df1\u57fa-4-[(2R)-2-\u7f9f\u57fa\u5341\u4e09\u70f7\u57fa]-2-\u6c27\u6742\u73af\u4e01\u916e", "en_name": ["(3S,4S)-3-Hexyl-4-[(2R)-2-hydroxytridecyl]-2-oxetanone", "2-Oxetanone, 3-hexyl-4-[(2R)-2-hydroxytridecyl]-, (3S,4S)-", "2-Oxetanone, 3-hexyl-4-(2-hydroxytridecyl)-, [3S-[3\u03b1,4\u03b2(S*)]]-", "(3S,4S)-3-Hexyl-4-[(2R)-2-hydroxytridecyl]-2-oxetanone"], "SMILES": "C(C(CCCCCCCCCCC)O)C1C(CCCCCC)C(=O)O1", "physical_data": {"Molecular Weight": "354.57", "Molecular Formula": "C22H42O3", "Melting Point": "61-62 \u00b0C"}}