{"cas_no": "104863-67-4", "cn_name": "N-\u7532\u6c27\u57fa-N-\u7532\u57fa-2,2,2-\u4e09\u6c1f\u4e59\u9170\u80fa", "en_name": ["2,2,2-Trifluoro-N-methoxy-N-methylacetamide", "Acetamide, 2,2,2-trifluoro-N-methoxy-N-methyl-", "2,2,2-Trifluoro-N-methoxy-N-methylacetamide", "N-Methoxy-N-methyltrifluoroacetamide", "N-Methyl-N-methoxytrifluoroacetamide"], "SMILES": "C(C(F)(F)F)(N(OC)C)=O", "physical_data": {"Molecular Weight": "157.09", "Molecular Formula": "C4H6F3NO2", "Boiling Point": "52 \u00b0C @ Press: 30 Torr"}}