{"cas_no": "104830-08-2", "cn_name": "3-(2-\u6c2f\u5421\u5576-3-\u57fa)\u4e19\u70ef\u9178\u4e59\u916f", "en_name": ["Ethyl 3-(2-chloro-3-pyridinyl)-2-propenoate", "2-Propenoic acid, 3-(2-chloro-3-pyridinyl)-, ethyl ester", "Ethyl 3-(2-chloro-3-pyridinyl)-2-propenoate", "Ethyl 2-chloro-3-pyridineacrylate"], "SMILES": "C(=CC(OCC)=O)C1=C(Cl)N=CC=C1", "physical_data": {"Molecular Weight": "211.64", "Molecular Formula": "C10H10ClNO2", "Boiling Point": "132-136 \u00b0C @ Press: 3 Torr"}}