{"cas_no": "10486-61-0", "cn_name": "3-\u7898\u567b\u5429", "en_name": ["3-Iodothiophene", "Thiophene, 3-iodo-", "3-Iodothiophene", "3-Thienyl iodide"], "SMILES": "IC=1C=CSC1", "physical_data": {"Molecular Weight": "210.04", "Molecular Formula": "C4H3IS", "Boiling Point": "77 \u00b0C @ Press: 11 Torr", "Melting Point": "-13.4 \u00b0C"}}