{"cas_no": "10488-69-4", "cn_name": "DL-4-\u6c2f-3-\u7f9f\u57fa\u4e01\u9178\u4e59\u916f", "en_name": ["Butanoic acid, 4-chloro-3-hydroxy-, ethyl ester", "Butanoic acid, 4-chloro-3-hydroxy-, ethyl ester", "Butyric acid, 4-chloro-3-hydroxy-, ethyl ester", "Ethyl 4-chloro-3-hydroxybutyrate", "Ethyl \u03b3-chloro-\u03b2-hydroxybutyrate", "Ethyl 4-chloro-3-hydroxybutanoate", "4-Chloro-3-hydroxybutanoic acid ethyl ester", "(\u00b1)-Ethyl 4-chloro-3-hydroxybutyrate", "4-Chloro-3-hydroxybutyric acid ethyl ester"], "SMILES": "C(C(OCC)=O)C(CCl)O", "physical_data": {"Molecular Weight": "166.60", "Molecular Formula": "C6H11ClO3", "Boiling Point": "155-157 \u00b0C @ Press: 10 Torr", "Melting Point": "136 \u00b0C", "Density": "1.1257 g/cm\u00b3 @ Temp: 16 \u00b0C"}}