{"cas_no": "104801-96-9", "cn_name": "3-\u5df1\u57fa\u56db\u6c22-4-\u7f9f\u57fa-6-\u5341\u4e00\u70f7\u57fa-2H-\u5421\u5583-2-\u916e", "en_name": ["(3S,4S,6R)-3-Hexyltetrahydro-4-hydroxy-6-undecyl-2H-pyran-2-one", "2H-Pyran-2-one, 3-hexyltetrahydro-4-hydroxy-6-undecyl-, (3S,4S,6R)-", "2H-Pyran-2-one, 3-hexyltetrahydro-4-hydroxy-6-undecyl-, [3S-(3\u03b1,4\u03b1,6\u03b1)]-", "(3S,4S,6R)-3-Hexyltetrahydro-4-hydroxy-6-undecyl-2H-pyran-2-one"], "SMILES": "C(CCCCCCCCCC)C1CC(O)C(CCCCCC)C(=O)O1", "physical_data": {"Molecular Weight": "354.57", "Molecular Formula": "C22H42O3", "Melting Point": "108-109 \u00b0C"}}