{"cas_no": "10496-15-8", "cn_name": "\u4e8c\u5df1\u786b", "en_name": ["Dihexyl disulfide", "Disulfide, dihexyl", "Hexyl disulfide", "Dihexyl disulfide", "Di-n-hexyl disulfide", "n-Hexyl disulfide", "NSC 677454", "1-(Hexyldisulfanyl)hexane"], "SMILES": "S(SCCCCCC)CCCCCC", "physical_data": {"Molecular Weight": "234.46", "Molecular Formula": "C12H26S2", "Boiling Point": "135 \u00b0C", "Melting Point": "71-73 \u00b0C", "Density": "0.9145 g/cm\u00b3 @ Temp: 25 \u00b0C"}}