{"cas_no": "104934-50-1", "cn_name": "3-\u5df1\u57fa\u53d6\u4ee3\u805a\u567b\u5429", "en_name": ["Poly(3-hexylthiophene)", "Thiophene, 3-hexyl-, homopolymer", "Poly(3-hexylthiophene)", "Poly(3-n-hexylthiophene)", "3-Hexylthiophene homopolymer", "PAT 6", "4002E", "Poly(hexylthiophene)", "3-Hexylthiophene polymer"], "SMILES": "C(CCCCC)C=1C=CSC1", "physical_data": {"Molecular Weight": "", "Molecular Formula": "(C10H16S)x", "Melting Point": "170-190 \u00b0C", "Density": "1.02 g/cm\u00b3"}}