{"cas_no": "10493-43-3", "cn_name": "\u5168\u6c1f\u4e59\u57fa\u4e59\u70ef\u57fa\u919a", "en_name": ["1,1,2-Trifluoro-2-(1,1,2,2,2-pentafluoroethoxy)ethene", "Ethene, 1,1,2-trifluoro-2-(1,1,2,2,2-pentafluoroethoxy)-", "Ether, pentafluoroethyl trifluorovinyl", "Ethene, trifluoro(pentafluoroethoxy)-", "1,1,2-Trifluoro-2-(1,1,2,2,2-pentafluoroethoxy)ethene", "Trifluoro(pentafluoroethoxy)ethylene", "Perfluoroethyl vinyl ether", "Pentafluoroethyl trifluorovinyl ether", "PEVE", "Perfluoroethyl perfluorovinyl ether", "1,1,1,2,2-Pentafluoro-2-(1,2,2-trifluoroethenoxy)ethane", "1,1,2-Trifluoro-2-(pentafluoroethoxy)ethene", "Perfluorinated ethyl vinyl ether"], "SMILES": "C(OC(=C(F)F)F)(C(F)(F)F)(F)F", "physical_data": {"Molecular Weight": "216.03", "Molecular Formula": "C4F8O", "Boiling Point": "8 \u00b0C"}}