{"cas_no": "104901-43-1", "cn_name": "3-\u6eb4-4-\u7532\u57fa\u82ef\u7532\u9178\u7532\u916f", "en_name": ["Methyl 3-bromo-4-methylbenzoate", "Benzoic acid, 3-bromo-4-methyl-, methyl ester", "Methyl 3-bromo-4-methylbenzoate", "3-Bromo-4-methylbenzoic acid methyl ester", "4-Methyl-3-bromobenzoic acid methyl ester", "3-Bromo-4-methylbenzenecarboxylic acid methyl ester"], "SMILES": "C(OC)(=O)C1=CC(Br)=C(C)C=C1", "physical_data": {"Molecular Weight": "229.07", "Molecular Formula": "C9H9BrO2", "Boiling Point": "125-130 \u00b0C @ Press: 0.1 Torr"}}