{"cas_no": "10496-16-9", "cn_name": "\u4e8c\u6b63\u5e9a\u57fa\u4e8c\u786b\u919a", "en_name": ["Diheptyl disulfide", "Disulfide, diheptyl", "Heptyl disulfide", "Diheptyl disulfide", "NSC 97275", "1-(Heptyldisulfanyl)heptane"], "SMILES": "S(SCCCCCCC)CCCCCCC", "physical_data": {"Molecular Weight": "262.52", "Molecular Formula": "C14H30S2", "Boiling Point": "143-147 \u00b0C @ Press: 5 Torr"}}