{"cas_no": "10496-75-0", "cn_name": "2-\u7532\u6c27\u57fa-5-\u785d\u57fa\u82ef\u7532\u8148", "en_name": ["2-Methoxy-5-nitrobenzonitrile", "Benzonitrile, 2-methoxy-5-nitro-", "o-Anisonitrile, 5-nitro-", "2-Methoxy-5-nitrobenzonitrile", "2-Cyano-4-nitroanisole", "3-Cyano-4-methoxy-1-nitrobenzene"], "SMILES": "C(#N)C1=C(OC)C=CC(N(=O)=O)=C1", "physical_data": {"Molecular Weight": "178.14", "Molecular Formula": "C8H6N2O3", "Melting Point": "126 \u00b0C"}}