{"cas_no": "10497-05-9", "cn_name": "\u4e09\uff08\u4e09\u7532\u57fa\u7845\u57fa\uff09\u78f7", "en_name": ["Tris(trimethylsilyl) phosphate", "Silanol, 1,1,1-trimethyl-, 1,1\u2032,1\u2032\u2032-phosphate", "Silanol, trimethyl-, phosphate (3:1)", "Tris(trimethylsilyl) phosphate", "Tris(trimethylsiloxy)phosphine oxide", "PC 9983"], "SMILES": "O(P(O[Si](C)(C)C)(O[Si](C)(C)C)=O)[Si](C)(C)C", "physical_data": {"Molecular Weight": "314.54", "Molecular Formula": "C9H27O4PSi3", "Boiling Point": "85-87 \u00b0C @ Press: 4 Torr", "Melting Point": "2-4 \u00b0C", "Density": "0.959 g/cm\u00b3"}}