{"cas_no": "10493-98-8", "cn_name": "2-\u7f9f\u57fa-2-\u73af\u620a\u70ef-1-\u916e", "en_name": ["2-Hydroxy-2-cyclopenten-1-one", "2-Cyclopenten-1-one, 2-hydroxy-", "2-Hydroxy-2-cyclopenten-1-one", "2-Hydroxy-2-cyclopentenone", "1-Hydroxy-1-cyclopenten-5-one"], "SMILES": "O=C1C(O)=CCC1", "physical_data": {"Molecular Weight": "98.10", "Molecular Formula": "C5H6O2", "Melting Point": "52-53 \u00b0C"}}