{"cas_no": "104934-51-2", "cn_name": "3-\u8f9b\u57fa\u53d6\u4ee3\u805a\u567b\u5429", "en_name": ["Poly(3-octylthiophene)", "Thiophene, 3-octyl-, homopolymer", "Poly(3-octylthiophene)", "3-Octylthiophene homopolymer", "Poly(3-octyl-2,5-thiophene)", "Poly(3-n-octylthiophene)"], "SMILES": "C(CCCCCCC)C=1C=CSC1", "physical_data": {"Molecular Weight": "", "Molecular Formula": "(C12H20S)x", "Melting Point": "162 \u00b0C"}}