{"cas_no": "105-09-9", "cn_name": "1,4-\u82ef\u4e8c\u7532\u786b\u9187", "en_name": ["1,4-Benzenedimethanethiol", "1,4-Benzenedimethanethiol", "p-Xylene-\u03b1,\u03b1\u2032-dithiol", "1,4-Bis(mercaptomethyl)benzene", "p-Xylylenedithiol", "\u03b1,\u03b1\u2032-p-Xylenedithiol", "1,4-Benzenebis(methanethiol)", "\u03b1,\u03b1\u2032-Dimercapto-p-xylene", "1,4-Xylylenedithiol", "NSC 72094", "[4-(Sulfanylmethyl)phenyl]methanethiol", "PXDT"], "SMILES": "C(S)C1=CC=C(CS)C=C1", "physical_data": {"Molecular Weight": "170.29", "Molecular Formula": "C8H10S2", "Melting Point": "46-47 \u00b0C"}}