{"cas_no": "105-95-3", "cn_name": "\u9e9d\u9999T", "en_name": ["Ethylene brassylate", "1,4-Dioxacycloheptadecane-5,17-dione", "Tridecanedioic acid, cyclic ethylene ester", "Ethylene glycol, cyclic tridecanedioate", "Ethylene brassylate", "Musk T", "Astratone", "Cyclic ethylene tridecanedioate", "Cyclic ethylene glycol tridecanedioate", "Emeressence 1150", "NSC 46155"], "SMILES": "O=C1OCCOC(=O)CCCCCCCCCCC1", "physical_data": {"Molecular Weight": "270.36", "Molecular Formula": "C15H26O4", "Boiling Point": "332 \u00b0C", "Melting Point": "-8 \u00b0C", "Density": "1.018 g/cm\u00b3 @ Temp: 60 \u00b0C"}}