{"cas_no": "105-14-6", "cn_name": "5-\u4e8c\u4e59\u6c28\u57fa-2-\u620a\u916e", "en_name": ["5-(Diethylamino)-2-pentanone", "2-Pentanone, 5-(diethylamino)-", "5-(Diethylamino)-2-pentanone", "Novol ketone", "Novalketone", "NSC 6320", "N,N-Diethyl-4-oxopentanamine"], "SMILES": "N(CCCC(C)=O)(CC)CC", "physical_data": {"Molecular Weight": "157.25", "Molecular Formula": "C9H19NO", "Boiling Point": "94-95 \u00b0C @ Press: 20 Torr"}}