{"cas_no": "105-37-3", "cn_name": "\u4e19\u9178\u4e59\u916f", "en_name": ["Ethyl propionate", "Propanoic acid, ethyl ester", "Propionic acid, ethyl ester", "Ethyl propionate", "Propionic ester", "Propionic ether", "Ethyl propanoate", "NSC 8848"], "SMILES": "C(OCC)(CC)=O", "physical_data": {"Molecular Weight": "102.13", "Molecular Formula": "C5H10O2", "Boiling Point": "99.2 \u00b0C", "Melting Point": "-73.9 \u00b0C", "Density": "0.8917 g/cm\u00b3 @ Temp: 20 \u00b0C"}}