{"cas_no": "105-64-6", "cn_name": "\u8fc7\u6c27\u5316\u4e8c\u78b3\u9178\u4e8c\u5f02\u4e19\u916f", "en_name": ["Diisopropyl peroxydicarbonate", "Peroxydicarbonic acid, C,C\u2032-bis(1-methylethyl) ester", "Peroxydicarbonic acid, diisopropyl ester", "Peroxydicarbonic acid, bis(1-methylethyl) ester", "Diisopropyl perdicarbonate", "Diisopropyl peroxydicarbonate", "Isopropyl peroxydicarbonate", "Diisopropyl peroxydiformate", "Luperox IPP", "Di-iso-propyl peroxydicarbonate", "Peroyl IPP", "IPP", "Diisopropyl percarbonate", "Perkadox IPP", "Bisisopropyl peroxydicarbonate", "Kayacarbon I 20"], "SMILES": "C(OOC(OC(C)C)=O)(OC(C)C)=O", "physical_data": {"Molecular Weight": "206.19", "Molecular Formula": "C8H14O6", "Boiling Point": "47 \u00b0C @ Press: 100 Torr", "Melting Point": "8-10 \u00b0C", "Density": "1.080 g/cm\u00b3 @ Temp: 15.5 \u00b0C"}}