{"cas_no": "105-43-1", "cn_name": "3-\u7532\u57fa\u620a\u9178", "en_name": ["3-Methylpentanoic acid", "Pentanoic acid, 3-methyl-", "Valeric acid, 3-methyl-", "Valeric acid, \u03b2-methyl-", "3-Methylpentanoic acid", "\u03b2-Methylvaleric acid", "3-Methylvaleric acid", "3-Methyl-n-valeric acid"], "SMILES": "C(CC(O)=O)(CC)C", "physical_data": {"Molecular Weight": "116.16", "Molecular Formula": "C6H12O2", "Boiling Point": "193-196 \u00b0C @ Press: 743 Torr", "Melting Point": "-41.6 \u00b0C", "Density": "0.9262 g/cm\u00b3 @ Temp: 20 \u00b0C"}}