{"cas_no": "105-48-6", "cn_name": "\u6c2f\u4e59\u9178\u5f02\u4e19\u916f", "en_name": ["Isopropyl chloroacetate", "Acetic acid, 2-chloro-, 1-methylethyl ester", "Acetic acid, chloro-, isopropyl ester", "Acetic acid, chloro-, 1-methylethyl ester", "Isopropyl chloroacetate", "1-Methylethyl monochloroacetate", "Isopropyl 2-chloroacetate", "NSC 27789", "Chloroacetic acid isopropyl ester"], "SMILES": "C(OC(C)C)(CCl)=O", "physical_data": {"Molecular Weight": "136.58", "Molecular Formula": "C5H9ClO2", "Boiling Point": "150.5 \u00b0C"}}