{"cas_no": "105-99-7", "cn_name": "\u5df1\u4e8c\u9178\u4e8c\u4e01\u916f", "en_name": ["Dibutyl adipate", "Hexanedioic acid, 1,6-dibutyl ester", "Adipic acid, dibutyl ester", "Hexanedioic acid, dibutyl ester", "3PS", "Dibutyl adipate", "Di-n-butyl adipate", "Experimental Tick Repellent 3", "Experimental Tick Repellent 3PS", "Butyl adipate", "Dibutyl hexanedioate", "Adipic acid di-n-butyl ester", "Polycizer W 260", "Cetiol B", "Monocizer W 260", "NSC 8086", "W 260", "Adimoll DB", "1,6-Dibutyl hexanedioate"], "SMILES": "C(CCCCC(OCCCC)=O)(OCCCC)=O", "physical_data": {"Molecular Weight": "258.35", "Molecular Formula": "C14H26O4", "Boiling Point": "145 \u00b0C @ Press: 4 Torr", "Melting Point": "-32.4 \u00b0C", "Density": "0.956 g/cm\u00b3 @ Temp: 20 \u00b0C"}}