{"cas_no": "105-44-2", "cn_name": "\u7532\u57fa\u5f02\u4e01\u57fa\u916e\u809f", "en_name": ["4-Methyl-2-pentanone oxime", "2-Pentanone, 4-methyl-, oxime", "4-Methyl-2-pentanone oxime", "Methyl isobutyl ketoxime", "2-Methyl-4-pentanone oxime", "Methyl isobutyl oxime", "Methyl isobutyl ketone oxime", "Isobutyl methyl ketone oxime", "NSC 1070", "NSC 31611", "NSC 562", "Luna-Skin MIBKO"], "SMILES": "C(CC(C)C)(=NO)C", "physical_data": {"Molecular Weight": "115.17", "Molecular Formula": "C6H13NO", "Boiling Point": "175 \u00b0C", "Melting Point": "63 \u00b0C", "Density": "0.8935 g/cm\u00b3 @ Temp: 17 \u00b0C"}}