{"cas_no": "105-11-3", "cn_name": "1,4-\u82ef\u918c\u4e8c\u809f", "en_name": ["Benzoquinone dioxime", "2,5-Cyclohexadiene-1,4-dione, 1,4-dioxime", "p-Benzoquinone, dioxime", "2,5-Cyclohexadiene-1,4-dione, dioxime", "Benzoquinone dioxime", "p-Quinone dioxime", "p-Quinone oxime", "1,4-Benzoquinone dioxime", "Actor Q", "Vulnoc GM", "Quinone dioxime", "Vulnoc GM-P", "GM-P", "NSC 14433", "NSC 4774", "Vulnoc DM", "Luxomaxx K-CDO", "RKZ 3008", "Luvomaxx K-CDO 65W"], "SMILES": "N(O)=C1C=CC(=NO)C=C1", "physical_data": {"Molecular Weight": "138.12", "Molecular Formula": "C6H6N2O2", "Melting Point": "243 \u00b0C (decomp)"}}