{"cas_no": "105-55-5", "cn_name": "1,3-\u4e8c\u4e59\u57fa\u786b\u8132", "en_name": ["N,N\u2032-Diethylthiourea", "Thiourea, N,N\u2032-diethyl-", "Urea, 1,3-diethyl-2-thio-", "N,N\u2032-Diethylthiourea", "1,3-Diethylthiourea", "1,3-Diethyl-2-thiourea", "Pennzone E", "U 15030", "N,N\u2032-Diethylthiocarbamide", "Thiate H", "Accel EUR", "Nocceler EUR", "NSC 3507", "Robac DETU", "Rhenogran DETU", "Sanceler EUR", "Diethylthiourea", "Accelerator DETU", "Accelerator EUR"], "SMILES": "C(NCC)(NCC)=S", "physical_data": {"Molecular Weight": "132.23", "Molecular Formula": "C5H12N2S", "Melting Point": "68-71 \u00b0C"}}