{"cas_no": "105-31-7", "cn_name": "1-\u5df1\u7094-3-\u9187", "en_name": ["1-Hexyn-3-ol", "1-Hexyn-3-ol", "Propylethinylcarbinol", "1-Propylpropargyl alcohol", "3-Hydroxy-1-hexyne", "(\u00b1)-3-Hydroxyhex-1-yne", "(RS)-1-Hexyn-3-ol", "(\u00b1)-1-Hexyn-3-ol", "NSC 244896"], "SMILES": "C(CCC)(C#C)O", "physical_data": {"Molecular Weight": "98.14", "Molecular Formula": "C6H10O", "Boiling Point": "142 \u00b0C", "Melting Point": "-80 \u00b0C", "Density": "0.8704 g/cm\u00b3 @ Temp: 20 \u00b0C"}}