{"cas_no": "105-50-0", "cn_name": "1,3-\u4e19\u916e\u4e8c\u7fa7\u9178\u4e8c\u4e59\u916f", "en_name": ["Diethyl 1,3-acetonedicarboxylate", "Pentanedioic acid, 3-oxo-, 1,5-diethyl ester", "Glutaric acid, 3-oxo-, diethyl ester", "Pentanedioic acid, 3-oxo-, diethyl ester", "Glutaric acid, \u03b2-oxo-, diethyl ester", "Diethyl acetonedicarboxylate", "Diethyl 3-oxoglutarate", "3-Oxopentanedioic acid diethyl ester", "Diethyl 3-oxopentanedioate", "Diethyl \u03b2-oxoglutarate", "Acetonedicarboxylic acid diethyl ester", "Diethyl 1,3-acetonedicarboxylate", "Diethyl 2-oxopropane-1,3-dicarboxylate", "Diethyl 3-ketoglutarate", "\u03b2-Ketoglutaric acid diethyl ester", "Diethyl \u03b2-ketoglutarate", "NSC 9013", "1,3-Acetonedicarboxylic acid diethyl ester", "1,5-Diethyl 3-oxopentanedioate"], "SMILES": "C(CC(OCC)=O)(CC(OCC)=O)=O", "physical_data": {"Molecular Weight": "202.20", "Molecular Formula": "C9H14O5", "Boiling Point": "250 \u00b0C", "Melting Point": "125 \u00b0C", "Density": "1.032 g/cm\u00b3 @ Temp: 20 \u00b0C"}}