{"cas_no": "105-68-0", "cn_name": "\u4e19\u9178\u5f02\u620a\u916f", "en_name": ["Isoamyl propionate", "1-Butanol, 3-methyl-, 1-propanoate", "Isopentyl alcohol, propionate", "1-Butanol, 3-methyl-, propanoate", "Propionic acid, isopentyl ester", "Isoamyl propionate", "3-Methylbutyl propionate", "iso-Pentyl propionate", "Isopentyl propionate", "Isoamyl propanoate", "Isopentyl propanoate", "3-Methylbutyl propanoate", "NSC 7932", "3-Methyl-1-butanol propanoate", "3-Methyl-1-butyl propanoate"], "SMILES": "C(OCCC(C)C)(CC)=O", "physical_data": {"Molecular Weight": "144.21", "Molecular Formula": "C8H16O2", "Boiling Point": "160.2 \u00b0C"}}