{"cas_no": "105-66-8", "cn_name": "\u4e01\u9178\u4e19\u916f", "en_name": ["Propyl butyrate", "Butanoic acid, propyl ester", "Butyric acid, propyl ester", "Propyl butyrate", "Propyl n-butyrate", "Propyl butanoate", "n-Propanol butyrate", "n-Propyl butanoate"], "SMILES": "C(OCCC)(CCC)=O", "physical_data": {"Molecular Weight": "130.18", "Molecular Formula": "C7H14O2", "Boiling Point": "143 \u00b0C", "Melting Point": "-95.2 \u00b0C"}}