{"cas_no": "105-40-8", "cn_name": "N-\u7532\u57fa\u6c28\u57fa\u7532\u9178\u4e59\u916f", "en_name": ["Carbamic acid, N-methyl-, ethyl ester", "Carbamic acid, N-methyl-, ethyl ester", "Carbamic acid, methyl-, ethyl ester", "Ethyl N-methylcarbamate", "N-Methylurethan", "Methylurethane", "Ethyl methylcarbamate", "N-Methylurethane", "NSC 8836"], "SMILES": "C(OCC)(NC)=O", "physical_data": {"Molecular Weight": "103.12", "Molecular Formula": "C4H9NO2", "Boiling Point": "170 \u00b0C @ Press: 760 Torr", "Density": "1.0115 g/cm\u00b3 @ Temp: 20 \u00b0C"}}