{"cas_no": "105-83-9", "cn_name": "N,N-\u53cc(3-\u6c28\u4e19\u57fa)\u7532\u80fa", "en_name": ["Bis(3-aminopropyl)methylamine", "1,3-Propanediamine, N1-(3-aminopropyl)-N1-methyl-", "Dipropylamine, 3,3\u2032-diamino-N-methyl-", "1,3-Propanediamine, N-(3-aminopropyl)-N-methyl-", "N1-(3-Aminopropyl)-N1-methyl-1,3-propanediamine", "Bis(\u03b3-aminopropyl)methylamine", "Bis(\u03c9-aminopropyl)methylamine", "Bis(3-aminopropyl)methylamine", "N,N-Bis(\u03b3-aminopropyl)methylamine", "N,N-Bis(3-aminopropyl)methylamine", "3,3\u2032-Diamino-N-methyldipropylamine", "Methylbis(3-aminopropyl)amine", "N-Methyl-N,N-bis(3-aminopropyl)amine", "Methyliminobispropylamine", "5-Methyldipropylenetriamine", "N-Methyliminobis[propylamine]", "Di(\u03b3-aminopropyl)methylamine", "4-Aza-4-methylheptane-1,7-diamine", "3,3\u2032-Methyliminobispropylamine", "N-(3-Aminopropyl)-N-methyl-1,3-propanediamine", "N\u2032-Methyldipropylenetriamine", "N-Methyliminobis[1-propanamine]", "1,7-Diamino-4-methyl-4-azaheptane", "N\u2032-Methyl-3,3\u2032-diaminodipropylamine", "5-Methyl-1,5,9-triazanonane", "NSC 8173", "1,7-Diamino-4-aza(methyl)heptane", "N,N\u2032-Bis(3-aminopropyl)methylamine", "3,3\u2032-Diamino-N-methyldipropylmine", "(7-Amino-4-methyl-4-azaheptyl)amine", "N,N-Bis(aminopropyl)methylamine"], "SMILES": "N(CCCN)(CCCN)C", "physical_data": {"Molecular Weight": "145.25", "Molecular Formula": "C7H19N3", "Boiling Point": "232.5 \u00b0C", "Density": "0.9023 g/cm\u00b3 @ Temp: 20 \u00b0C"}}