{"cas_no": "105-21-5", "cn_name": "\u4e19\u4f4d\u5e9a\u5185\u916f", "en_name": ["\u03b3-Heptalactone", "2(3H)-Furanone, dihydro-5-propyl-", "Heptanoic acid, 4-hydroxy-, \u03b3-lactone", "Enanthic acid, \u03b3-hydroxy-, lactone", "Dihydro-5-propyl-2(3H)-furanone", "\u03b3-Heptalactone", "\u03b3-Propiobutyrolactone", "4-Hydroxyheptanoic acid lactone", "\u03b3-Heptanolactone", "\u03b3-Propyl-\u03b3-butyrolactone", "4-Propyl-4-butanolide", "Tetrahydro-5-propyl-2-furanone", "4-Heptanolide", "(\u00b1)-\u03b3-Propyl-\u03b3-butyrolactone", "(\u00b1)-4-n-Propylbutyrolactone", "(RS)-\u03b3-Heptalactone", "(\u00b1)-\u03b3-Heptalactone", "NSC 46097", "NSC 46352"], "SMILES": "C(CC)C1OC(=O)CC1", "physical_data": {"Molecular Weight": "128.17", "Molecular Formula": "C7H12O2", "Boiling Point": "118-120 \u00b0C @ Press: 15 Torr", "Density": "0.9768 g/cm\u00b3"}}