{"cas_no": "105-05-5", "cn_name": "1,4-\u4e8c\u4e59\u57fa\u82ef", "en_name": ["1,4-Diethylbenzene", "Benzene, 1,4-diethyl-", "Benzene, p-diethyl-", "p-Xylene, \u03b1,\u03b1\u2032-dimethyl-", "1,4-Diethylbenzene", "p-Diethylbenzene", "p-Ethylethylbenzene"], "SMILES": "C(C)C1=CC=C(CC)C=C1", "physical_data": {"Molecular Weight": "134.22", "Molecular Formula": "C10H14", "Boiling Point": "183.7 \u00b0C", "Melting Point": "-42.83 \u00b0C", "Density": "0.8620 g/cm\u00b3 @ Temp: 20 \u00b0C"}}