{"cas_no": "105-84-0", "cn_name": "N,N',N\u201d-\u4e09\u7532\u57fa\u4e8c\u4e59\u70ef\u4e09\u80fa", "en_name": ["N1,N2-Dimethyl-N1-[2-(methylamino)ethyl]-1,2-ethanediamine", "1,2-Ethanediamine, N1,N2-dimethyl-N1-[2-(methylamino)ethyl]-", "Diethylenetriamine, 1,4,7-trimethyl-", "1,2-Ethanediamine, N,N\u2032-dimethyl-N-[2-(methylamino)ethyl]-", "N1,N2-Dimethyl-N1-[2-(methylamino)ethyl]-1,2-ethanediamine", "1,4,7-Trimethyldiethylenetriamine", "N,N\u2032,N\u2032\u2032-Trimethyldiethylenetriamine", "N,N\u2032-Dimethyl-N-[2-(methylamino)ethyl]-1,2-ethanediamine", "1,4,7-Trimethyl-1,4,7-triazaheptane", "NSC 166321", "N,N\u2032-Dimethyl-N-[2-(methylamino)ethyl]ethylenediamine", "N,N-Bis[2-(methylamino)ethyl]methylamine"], "SMILES": "N(CCNC)(CCNC)C", "physical_data": {"Molecular Weight": "145.25", "Molecular Formula": "C7H19N3", "Boiling Point": "60 \u00b0C @ Press: 1 Torr"}}