{"cas_no": "105-07-7", "cn_name": "4-\u6c30\u57fa\u82ef\u7532\u919b", "en_name": ["4-Cyanobenzaldehyde", "Benzonitrile, 4-formyl-", "Terephthalaldehydonitrile", "Benzaldehyde, p-cyano-", "4-Formylbenzonitrile", "p-Cyanobenzaldehyde", "4-Cyanobenzaldehyde", "p-Formylbenzonitrile", "p-Cyanobenzenecarboxaldehyde", "NSC 5091"], "SMILES": "C(#N)C1=CC=C(C=O)C=C1", "physical_data": {"Molecular Weight": "131.13", "Molecular Formula": "C8H5NO", "Boiling Point": "133 \u00b0C @ Press: 12 Torr", "Melting Point": "100.5 \u00b0C"}}