{"cas_no": "105-41-9", "cn_name": "1,3-\u4e8c\u7532\u57fa\u620a\u80fa", "en_name": ["1,3-Dimethylamylamine", "2-Hexanamine, 4-methyl-", "Pentylamine, 1,3-dimethyl-", "4-Methyl-2-hexanamine", "2-Amino-4-methylhexane", "1,3-Dimethylamylamine", "1,3-Dimethylpentylamine", "Forthane", "4-Methyl-2-hexylamine", "Forthan", "1,3-Dimethylpentanamine", "Methylhexaneamine", "NSC 1106"], "SMILES": "C(CC(C)N)(CC)C", "physical_data": {"Molecular Weight": "115.22", "Molecular Formula": "C7H17N", "Boiling Point": "132.5 \u00b0C", "Density": "0.7620-0.7655 g/cm\u00b3"}}