{"cas_no": "105-87-3", "cn_name": "\u4e59\u9178\u9999\u53f6\u916f", "en_name": ["Geranyl acetate", "2,6-Octadien-1-ol, 3,7-dimethyl-, 1-acetate, (2E)-", "Geraniol acetate", "2,6-Octadien-1-ol, 3,7-dimethyl-, acetate, (E)-", "2,6-Octadien-1-ol, 3,7-dimethyl-, acetate, (2E)-", "Acetic acid geraniol ester", "trans-3,7-Dimethyl-2,6-octadien-1-yl acetate", "Geranyl acetate", "Bay pine (oyster) oil", "Geranyl ethanoate", "trans-Geranyl acetate", "\u03b2-Geranyl acetate", "trans-1-Acetoxy-3,7-dimethyl-2,6-octadiene", "(E)-3,7-Dimethyl-2,6-octadienyl acetate", "NSC 2584", "(E)-3,7-Dimethyl-2,6-octadien-1-ol acetate", "Acetic acid (2E)-3,7-dimethyl-2,6-octadienyl ester", "3,7-Dimethyl-2,6-octadien-1-ol acetate", "Acetic acid geranyl ester"], "SMILES": "C(CCC=C(C)C)(=CCOC(C)=O)C", "physical_data": {"Molecular Weight": "196.29", "Molecular Formula": "C12H20O2", "Boiling Point": "240 \u00b0C", "Melting Point": "&lt;25 \u00b0C", "Density": "0.9174 g/cm\u00b3 @ Temp: 15 \u00b0C"}}