{"cas_no": "105-36-2", "cn_name": "\u6eb4\u4e59\u9178\u4e59\u916f", "en_name": ["Ethyl bromoacetate", "Acetic acid, 2-bromo-, ethyl ester", "Acetic acid, bromo-, ethyl ester", "Antol", "Ethyl bromoacetate", "Ethyl monobromoacetate", "Ethyl \u03b1-bromoacetate", "Bromoacetic acid ethyl ester", "Ethyl bromacetate", "(Ethoxycarbonyl)methyl bromide", "Ethyl 2-bromoacetate", "Ethyl bromoethanoate", "\u03b1-Bromoacetic acid ethyl ester", "Ethyl 2-bromoethanoate", "NSC 8832", "2-Bromoacetic acid ethyl ester"], "SMILES": "C(OCC)(CBr)=O", "physical_data": {"Molecular Weight": "167.00", "Molecular Formula": "C4H7BrO2", "Boiling Point": "168.5 \u00b0C", "Density": "1.5032 g/cm\u00b3 @ Temp: 20 \u00b0C"}}