{"cas_no": "105-60-2", "cn_name": "\u5df1\u5185\u9170\u80fa", "en_name": ["Caprolactam", "2H-Azepin-2-one, hexahydro-", "Hexahydro-2H-azepin-2-one", "Aminocaproic lactam", "Caprolactam", "\u03b5-Caprolactam", "2-Ketohexamethylenimine", "2-Oxohexamethylenimine", "Hexanoic acid, 6-amino-, cyclic lactam", "Hexahydro-2-azepinone", "2-Azacycloheptanone", "6-Caprolactam", "6-Hexanelactam", "2-Perhydroazepinone", "\u03c9-Caprolactam", "1-Aza-2-cycloheptanone", "Hexanolactam", "Azepan-2-one", "Hexano-6-lactam", "NSC 117393", "NSC 25536", "NSC 4977", "Hexahydro-1H-azepin-2-one", "AP", "AP (lactam)", "A 19374", "2-Oxoazepane", "6-Aminohexanoic acid lactam", "AP-Nylon", "C 2204", "MeSH ID: D002209"], "SMILES": "O=C1CCCCCN1", "physical_data": {"Molecular Weight": "113.16", "Molecular Formula": "C6H11NO", "Boiling Point": "270 \u00b0C", "Melting Point": "69.3 \u00b0C", "Density": "1.02 g/cm\u00b3"}}