{"cas_no": "105-16-8", "cn_name": "\u7532\u57fa\u4e19\u70ef\u9178\u4e8c\u4e59\u6c28\u57fa\u4e59\u916f", "en_name": ["Diethylaminoethyl methacrylate", "2-Propenoic acid, 2-methyl-, 2-(diethylamino)ethyl ester", "Methacrylic acid, 2-(diethylamino)ethyl ester", "Daktose B", "Diethylaminoethyl methacrylate", "\u03b2-(Diethylamino)ethyl methacrylate", "N,N-Diethylaminoethyl methacrylate", "2-Diethylaminoethyl methacrylate", "2-(N,N-Diethylamino)ethyl methacrylate", "\u03b2-(N,N-Diethylamino)ethyl methacrylate", "[2-(Methacryloyloxy)ethyl]diethylamine", "Light Ester DE", "NSC 14490", "Polydeam", "GE 710", "Diethyl[2-(methacryloyloxy)ethyl]amine", "Ageflex FM 2PTZ", "Acryester DE", "2-(Diethylamino)ethyl 2-methylprop-2-enoate"], "SMILES": "N(CCOC(C(C)=C)=O)(CC)CC", "physical_data": {"Molecular Weight": "185.26", "Molecular Formula": "C10H19NO2", "Boiling Point": "49 \u00b0C @ Press: 0.30 Torr", "Density": "0.98 g/cm\u00b3 @ Temp: 20 \u00b0C"}}