{"cas_no": "105-29-3", "cn_name": "3-\u7532\u57fa-2-\u620a\u70ef-4-\u7094\u9187", "en_name": ["3-Methyl-2-penten-4-yn-1-ol", "2-Penten-4-yn-1-ol, 3-methyl-", "3-Methyl-2-penten-4-yn-1-ol", "1-Hydroxy-3-methyl-2-penten-4-yne", "5-Hydroxy-3-methylpent-3-en-1-yne", "1-Pentol", "3-Methyl-2-penten-4-ynol"], "SMILES": "C(=CCO)(C#C)C", "physical_data": {"Molecular Weight": "96.13", "Molecular Formula": "C6H8O", "Boiling Point": "65 \u00b0C", "Melting Point": "&lt;25 \u00b0C"}}