{"cas_no": "105-74-8", "cn_name": "\u8fc7\u6c27\u5316\u53cc\u6708\u6842\u9170", "en_name": ["Lauroyl peroxide", "Peroxide, bis(1-oxododecyl)", "Lauroyl peroxide", "Bis(1-oxododecyl) peroxide", "Alperox C", "Dilauroyl peroxide", "Dodecanoyl peroxide", "Laurydol", "LYP 97", "Laurox Q", "Laurox W 40", "Alperox F", "Didodecanoyl peroxide", "LYP 97F", "Peroyl L", "Laurox W 40GD4", "Luperox LP", "NSC 670", "Lup LP", "Laurox S", "Dodecanoic peroxyanhydride", "Peroxan LP", "Pergan LP", "Laurox LPO-W 40"], "SMILES": "C(OOC(CCCCCCCCCCC)=O)(CCCCCCCCCCC)=O", "physical_data": {"Molecular Weight": "398.62", "Molecular Formula": "C24H46O4", "Boiling Point": "118-144 \u00b0C", "Melting Point": "49 \u00b0C", "Density": "0.9 g/cm\u00b3"}}