{"cas_no": "105-61-3", "cn_name": "N-\u6c28\u57fa\u7532\u9170\u9a6c\u6765\u9178", "en_name": ["(2Z)-4-[(Aminocarbonyl)amino]-4-oxo-2-butenoic acid", "2-Butenoic acid, 4-[(aminocarbonyl)amino]-4-oxo-, (2Z)-", "Maleamic acid, N-carbamoyl-", "2-Butenoic acid, 4-[(aminocarbonyl)amino]-4-oxo-, (Z)-", "(2Z)-4-[(Aminocarbonyl)amino]-4-oxo-2-butenoic acid", "N-Carbamoylmaleamic acid", "Maleinuric acid", "Maleuric acid", "Maleylurea", "Maleic acid monoureide"], "SMILES": "C(C=CC(O)=O)(NC(N)=O)=O", "physical_data": {"Molecular Weight": "158.11", "Molecular Formula": "C5H6N2O4", "Melting Point": "156-160 \u00b0C (decomp)"}}