{"cas_no": "105-54-4", "cn_name": "\u4e01\u9178\u4e59\u916f", "en_name": ["Ethyl butyrate", "Butanoic acid, ethyl ester", "Butyric acid, ethyl ester", "Butyric acid, ester with EtOH", "Ethyl butanoate", "Ethyl butyrate", "Ethyl n-butyrate", "Ethyl n-butanoate", "NSC 8857"], "SMILES": "C(CCC)(OCC)=O", "physical_data": {"Molecular Weight": "116.16", "Molecular Formula": "C6H12O2", "Boiling Point": "120-121 \u00b0C", "Melting Point": "-100.8 \u00b0C", "Density": "0.879 g/cm\u00b3 @ Temp: 20 \u00b0C"}}