{"cas_no": "105-12-4", "cn_name": "1,4-\u4e8c\u4e9a\u785d\u57fa\u82ef", "en_name": ["1,4-Dinitrosobenzene", "Benzene, 1,4-dinitroso-", "Benzene, p-dinitroso-", "1,4-Dinitrosobenzene", "p-Dinitrosobenzene", "RD 3435-49", "Actor DB", "NSC 4771"], "SMILES": "N(=O)C1=CC=C(N=O)C=C1", "physical_data": {"Molecular Weight": "136.11", "Molecular Formula": "C6H4N2O2", "Melting Point": "178-180 \u00b0C (decomp)"}}