{"cas_no": "105-53-3", "cn_name": "\u4e19\u4e8c\u9178\u4e8c\u4e59\u916f", "en_name": ["Diethyl malonate", "Propanedioic acid, 1,3-diethyl ester", "Malonic acid, diethyl ester", "Propanedioic acid, diethyl ester", "Carbethoxyacetic ester", "Dicarbethoxymethane", "Diethyl malonate", "Diethyl propanedioate", "Ethyl malonate", "Methanedicarboxylic acid diethyl ester", "Diethyl propane-1,3-dioate", "NSC 136903", "NSC 8864", "Malonate diethyl ester"], "SMILES": "C(CC(OCC)=O)(OCC)=O", "physical_data": {"Molecular Weight": "160.17", "Molecular Formula": "C7H12O4", "Boiling Point": "200 \u00b0C", "Melting Point": "-50 \u00b0C", "Density": "1.04460 g/cm\u00b3 @ Temp: 30 \u00b0C"}}