{"cas_no": "105-72-6", "cn_name": "\u4e59\u4e8c\u9187\u4e8c\u4e01\u9178\u916f", "en_name": ["Glycol dibutyrate", "Butanoic acid, 1,1\u2032-(1,2-ethanediyl) ester", "Butyric acid, ethylene ester", "Glycol dibutyrate", "Ethylene glycol dibutyrate", "Ethylene butyrate"], "SMILES": "C(OCCOC(CCC)=O)(CCC)=O", "physical_data": {"Molecular Weight": "202.25", "Molecular Formula": "C10H18O4", "Boiling Point": "240 \u00b0C", "Melting Point": "-80 \u00b0C"}}