{"cas_no": "105-86-2", "cn_name": "\u7532\u9178\u9999\u53f6\u916f", "en_name": ["Geranyl formate", "2,6-Octadien-1-ol, 3,7-dimethyl-, 1-formate, (2E)-", "2,6-Octadien-1-ol, 3,7-dimethyl-, formate, (E)-", "Geraniol formate", "2,6-Octadien-1-ol, 3,7-dimethyl-, formate, (2E)-", "trans-3,7-Dimethyl-2,6-octadien-1-yl formate", "trans-2,6-Dimethyl-2,6-octadien-8-yl methanoate", "Geranyl formate", "(E)-3,7-Dimethyl-2,6-octadienyl formate", "NSC 21736", "(E)-3,7-Dimethyl-2,6-octadien-1-ol formate"], "SMILES": "C(CCC=C(C)C)(=CCOC=O)C", "physical_data": {"Molecular Weight": "182.26", "Molecular Formula": "C11H18O2", "Boiling Point": "103-105 \u00b0C @ Press: 10 Torr", "Density": "0.912 g/cm\u00b3"}}