{"cas_no": "105-01-1", "cn_name": "3-(2-\u544b\u5583\u57fa)\u4e19\u9178\u5f02\u4e01\u916f", "en_name": ["2-Methylpropyl 2-furanpropanoate", "2-Furanpropanoic acid, 2-methylpropyl ester", "2-Furanpropionic acid, isobutyl ester", "2-Methylpropyl 2-furanpropanoate", "Isobutyl 2-furanpropionate", "Isobutyl furylpropionate", "Isobutyl 3-(2-furan)propionate"], "SMILES": "C(CC(OCC(C)C)=O)C1=CC=CO1", "physical_data": {"Molecular Weight": "196.24", "Molecular Formula": "C11H16O3", "Boiling Point": "119-120 \u00b0C @ Press: 30 Torr", "Density": "1.004 g/cm\u00b3 @ Temp: 25 \u00b0C"}}