{"cas_no": "105-57-7", "cn_name": "1,1-\u4e8c\u4e59\u6c27\u57fa\u4e59\u70f7", "en_name": ["Diethyl acetal", "Ethane, 1,1-diethoxy-", "Acetaldehyde, diethyl acetal", "1,1-Diethoxyethane", "Acetal", "Diethyl acetal", "Ethylidene diethyl ether", "Acetaldehyde ethyl acetal", "Ethanal diethyl acetal", "NSC 7624"], "SMILES": "C(OCC)(OCC)C", "physical_data": {"Molecular Weight": "118.17", "Molecular Formula": "C6H14O2", "Boiling Point": "-23 \u00b0C @ Press: 1.0 Torr", "Melting Point": "-100 \u00b0C", "Density": "0.8254 g/cm\u00b3 @ Temp: 20 \u00b0C"}}