{"cas_no": "105-04-4", "cn_name": "N,N,N'-\u4e09\u4e59\u57fa\u4e59\u4e8c\u80fa", "en_name": ["Triethylethylenediamine", "1,2-Ethanediamine, N1,N1,N2-triethyl-", "Ethylenediamine, N,N,N\u2032-triethyl-", "1,2-Ethanediamine, N,N,N\u2032-triethyl-", "N1,N1,N2-Triethyl-1,2-ethanediamine", "N,N,N\u2032-Triethylethylenediamine", "Triethylethylenediamine", "N-(2-Diethylaminoethyl)ethylamine", "N,N,N\u2032-Triethyl-1,2-ethanediamine", "Ethyl(2-(diethylamino)ethyl)amine", "NSC 78444", "Diethyl(2-ethylaminoethyl)amine", "N,N\u2032,N\u2032-Triethylethylenediamine", "[2-(Diethylamino)ethyl](ethyl)amine"], "SMILES": "N(CCNCC)(CC)CC", "physical_data": {"Molecular Weight": "144.26", "Molecular Formula": "C8H20N2", "Boiling Point": "65 \u00b0C @ Press: 10 Torr"}}