{"cas_no": "105-58-8", "cn_name": "\u78b3\u9178\u4e8c\u4e59\u916f", "en_name": ["Diethyl carbonate", "Carbonic acid, diethyl ester", "Diatol", "Diethyl carbonate", "Eufin", "Ethyl carbonate ((EtO)2CO)", "Ethyl carbonate", "DEC", "NSC 8849", "Diatol (carbonate)", "H-DEC", "Diethylcarbonate"], "SMILES": "C(OCC)(OCC)=O", "physical_data": {"Molecular Weight": "118.13", "Molecular Formula": "C5H10O3", "Boiling Point": "126 \u00b0C", "Melting Point": "-43 \u00b0C", "Density": "0.9752 g/cm\u00b3 @ Temp: 20 \u00b0C"}}