{"cas_no": "105-08-8", "cn_name": "1,4-\u73af\u5df1\u70f7\u4e8c\u7532\u9187", "en_name": ["1,4-Cyclohexanedimethanol", "1,4-Cyclohexanedimethanol", "1,4-Bis(hydroxymethyl)cyclohexane", "1,4-Dimethylolcyclohexane", "1,4-Cyclohexamethylenebis(methylol)", "Rikabinol DM", "Cyclohex-1,4-ylenedimethanol", "Vibracure A 240", "NSC 44508", "CHDM", "Sky CHDM", "CHDM-D", "1,4-Cyclohexane dimethylol", "1,4-Cyclohexanedimethaneol", "[4-(Hydroxymethyl)cyclohexyl]methanol", "C 0479"], "SMILES": "C(O)C1CCC(CO)CC1", "physical_data": {"Molecular Weight": "144.21", "Molecular Formula": "C8H16O2", "Boiling Point": "274 \u00b0C", "Melting Point": "41-61 \u00b0C", "Density": "1.0381 g/cm\u00b3 @ Temp: 25 \u00b0C"}}