{"cas_no": "105-67-9", "cn_name": "2,4-\u4e8c\u7532\u57fa\u82ef\u915a", "en_name": ["2,4-Dimethylphenol", "Phenol, 2,4-dimethyl-", "2,4-Xylenol", "2,4-Dimethylphenol", "4,6-Dimethylphenol", "1-Hydroxy-2,4-dimethylbenzene", "m-Xylenol", "4-Hydroxy-1,3-dimethylbenzene", "2,4-DMP", "NSC 3829"], "SMILES": "CC1=C(O)C=CC(C)=C1", "physical_data": {"Molecular Weight": "122.16", "Molecular Formula": "C8H10O", "Boiling Point": "211.5 \u00b0C @ Press: 766 Torr", "Melting Point": "24.54 \u00b0C", "Density": "0.9650 g/cm\u00b3 @ Temp: 20 \u00b0C"}}