{"cas_no": "105-65-7", "cn_name": "\u4e8c\u786b\u5316\u4e8c\u5f02\u4e19\u57fa\u9ec4\u539f\u9178\u916f", "en_name": ["Diisopropylxanthogen disulfide", "Thioperoxydicarbonic acid ([(HO)C(S)]2S2), C,C\u2032-bis(1-methylethyl) ester", "Formic acid, dithiobis[thio-, O,O-diisopropyl ester", "Thioperoxydicarbonic acid ([(HO)C(S)]2S2), bis(1-methylethyl) ester", "Bis(isopropylxanthogen) disulfide", "Diproxid", "Isopropyl xanthogen disulfide", "Diproxide", "Diisopropylxanthogen disulfide", "Bis(O-isopropylxanthyl) disulfide", "Diisopropyl dixanthogen", "O,O-Diisopropyl dithiobis(thioformate)", "Diisopropyl xanthogenate disulfide", "Bis(2-propyl) dixanthogen", "Diisopropyl tetrathioperoxydicarbonate", "NSC 1339", "Bis(isopropoxythiocarbonyl) disulfide", "Bis(isopropoxythiocarbonyl)disulfane", "NSC 402565", "Cure-rite DIXIE", "Sanbit DIX", "(Propan-2-yloxy)([[(propan-2-yloxy)methanethioyl]disulfanyl])methanethione", "Isopropylxanthic disulfide"], "SMILES": "C(SSC(OC(C)C)=S)(OC(C)C)=S", "physical_data": {"Molecular Weight": "270.46", "Molecular Formula": "C8H14O2S4", "Melting Point": "53-57 \u00b0C"}}