{"cas_no": "105-33-9", "cn_name": "4-\u6c2f-3-\u7f9f\u57fa\u4e01\u8148", "en_name": ["4-Chloro-3-hydroxybutanenitrile", "Butanenitrile, 4-chloro-3-hydroxy-", "Butyronitrile, 4-chloro-3-hydroxy-", "4-Chloro-3-hydroxybutanenitrile", "4-Chloro-3-hydroxybutyronitrile", "\u03b3-Chloro-\u03b2-hydroxybutyronitrile", "1-Chloro-3-cyano-2-propanol"], "SMILES": "C(CC#N)(CCl)O", "physical_data": {"Molecular Weight": "119.55", "Molecular Formula": "C4H6ClNO", "Boiling Point": "138-141 \u00b0C @ Press: 18 Torr", "Density": "1.2515 g/cm\u00b3 @ Temp: 22 \u00b0C"}}