{"cas_no": "105-39-5", "cn_name": "\u6c2f\u4e59\u9178\u4e59\u916f", "en_name": ["Ethyl chloroacetate", "Acetic acid, 2-chloro-, ethyl ester", "Acetic acid, chloro-, ethyl ester", "Ethyl chloroacetate", "Ethyl chloroethanoate", "Ethyl \u03b1-chloroacetate", "Ethyl monochloracetate", "Chloroacetic acid ethyl ester", "Ethyl chloracetate", "Ethyl monochloroacetate", "Ethyl 2-chloroacetate", "(Ethoxycarbonyl)methyl chloride", "2-Chloroacetic acid ethyl ester", "NSC 8833", "Ethyl 2-monochloroacetate"], "SMILES": "C(OCC)(CCl)=O", "physical_data": {"Molecular Weight": "122.55", "Molecular Formula": "C4H7ClO2", "Boiling Point": "144-146 \u00b0C", "Melting Point": "-26 \u00b0C", "Density": "1.1498 g/cm\u00b3 @ Temp: 20 \u00b0C"}}