{"cas_no": "105-59-9", "cn_name": "N-\u7532\u57fa\u4e8c\u4e59\u9187\u80fa", "en_name": ["N-Methyldiethanolamine", "Ethanol, 2,2\u2032-(methylimino)bis-", "Ethanol, 2,2\u2032-(methylimino)di-", "2,2\u2032-(Methylimino)bis[ethanol]", "Methyldiethanolamine", "N-Methyldiethanolamine", "N-Methyliminodiethanol", "2,2\u2032-(Methylimino)diethanol", "N,N-Bis(2-hydroxyethyl)methylamine", "Methylbis(2-hydroxyethyl)amine", "Methyliminodiethanol", "Diethanolmethylamine", "N-Methylaminodiglycol", "MDEA", "Eve", "N-(2-Hydroxyethyl)-N-methylethanolamine", "N-Methylbis(2-hydroxyethyl)amine", "MDEA (diol)", "Jefftreat MS 100", "NSC 11690", "NSC 49131", "NSC 51500", "2-[(2-Hydroxyethyl)(methyl)amino]ethanol", "N,N-Di(2-hydroxyethyl)-N-methylamine", "Gas Spec CS 2000", "N,N-Di(2-hydroxyethyl)methylamine", "Amino Alcohol MDA", "N-Methyl-N,N-diethanolamine", "ZC 10", "N-Methyl-N,N-bis(2-hydroxyethyl)amine", "N,N-Di(2-hydroxyethyl)methanamine", "Bis(2-hydroxyethyl)-N-methylamine", "2-[(2-Hydroxyethyl)(methyl)amino]ethan-1-ol", "Genocure MDEA", "Amietol M 12"], "SMILES": "N(CCO)(CCO)C", "physical_data": {"Molecular Weight": "119.16", "Molecular Formula": "C5H13NO2", "Boiling Point": "247 \u00b0C", "Melting Point": "-21 \u00b0C", "Density": "1.0377 g/cm\u00b3 @ Temp: 20 \u00b0C"}}