{"cas_no": "105-34-0", "cn_name": "\u6c30\u4e59\u9178\u7532\u916f", "en_name": ["Methyl cyanoacetate", "Acetic acid, 2-cyano-, methyl ester", "Acetic acid, cyano-, methyl ester", "Methyl cyanoacetate", "Methyl cyanoethanoate", "Cyanoacetic acid methyl ester", "Methyl 2-cyanoacetate", "(Methoxycarbonyl)acetonitrile", "Methyl \u03b1-cyanoacetate", "2-Cyanoacetic acid methyl ester", "NSC 3113", "NSC 68507"], "SMILES": "C(CC#N)(OC)=O", "physical_data": {"Molecular Weight": "99.09", "Molecular Formula": "C4H5NO2", "Boiling Point": "200.5 \u00b0C", "Melting Point": "-22.5 \u00b0C", "Density": "1.1288 g/cm\u00b3 @ Temp: 20 \u00b0C"}}