{"cas_no": "105-35-1", "cn_name": "N-\u4e59\u57fa-2-\u6c2f\u4e59\u9170\u80fa", "en_name": ["2-Chloro-N-ethylacetamide", "Acetamide, 2-chloro-N-ethyl-", "2-Chloro-N-ethylacetamide", "\u03b1-Chloro-N-ethylacetamide", "N-Ethyl-2-chloroacetamide", "NSC 1192"], "SMILES": "C(NCC)(CCl)=O", "physical_data": {"Molecular Weight": "121.57", "Molecular Formula": "C4H8ClNO", "Boiling Point": "96 \u00b0C @ Press: 13 Torr", "Melting Point": "129 \u00b0C"}}