{"cas_no": "105-75-9", "cn_name": "\u5bcc\u9a6c\u9178\u4e8c\u4e01\u916f", "en_name": ["Dibutyl fumarate", "2-Butenedioic acid (2E)-, 1,4-dibutyl ester", "Fumaric acid, dibutyl ester", "2-Butenedioic acid (E)-, dibutyl ester", "2-Butenedioic acid (2E)-, dibutyl ester", "Dibutyl fumarate", "RC Comonomer DBF", "Staflex DBF", "Butyl fumarate", "Fumaric acid di-n-butyl ester", "NSC 140"], "SMILES": "C(C=CC(OCCCC)=O)(OCCCC)=O", "physical_data": {"Molecular Weight": "228.28", "Molecular Formula": "C12H20O4", "Boiling Point": "150-151 \u00b0C @ Press: 4 Torr", "Density": "1.072 g/cm\u00b3 @ Temp: 20 \u00b0C"}}