{"cas_no": "105-90-8", "cn_name": "\u4e19\u9178\u53f6\u9187\u916f", "en_name": ["Geranyl propionate", "2,6-Octadien-1-ol, 3,7-dimethyl-, 1-propanoate, (2E)-", "2,6-Octadien-1-ol, 3,7-dimethyl-, propionate, (E)-", "2,6-Octadien-1-ol, 3,7-dimethyl-, propanoate, (E)-", "Propionic acid, geranyl ester", "2,6-Octadien-1-ol, 3,7-dimethyl-, propanoate, (2E)-", "trans-3,7-Dimethyl-2,6-octadienyl propionate", "Geranyl propionate", "(E)-3,7-Dimethyl-2,6-octadien-1-ol propanoate", "Geranyl propanoate", "Geraniol propionate", "Geraniol propanoate"], "SMILES": "C(=CCOC(CC)=O)(CCC=C(C)C)C", "physical_data": {"Molecular Weight": "210.31", "Molecular Formula": "C13H22O2", "Boiling Point": "95-98 \u00b0C @ Press: 5 Torr"}}