{"cas_no": "105-46-4", "cn_name": "\u4e59\u9178\u4ef2\u4e01\u916f", "en_name": ["sec-Butyl acetate", "Acetic acid, 1-methylpropyl ester", "sec-Butyl alcohol acetate", "Acetic acid, sec-butyl ester", "sec-Butyl alcohol, ester with AcOH", "sec-Butyl acetate", "2-Butyl acetate", "1-Methylpropyl acetate", "2-Acetoxybutane", "(\u00b1)-sec-Butyl acetate", "(\u00b1)-2-Butyl acetate", "NSC 8034", "sec-Butyl ethanoate", "Ultrasolve M 1200", "Acetic acid sec-butyl ester"], "SMILES": "C(OC(C)=O)(CC)C", "physical_data": {"Molecular Weight": "116.16", "Molecular Formula": "C6H12O2", "Boiling Point": "112 \u00b0C", "Melting Point": "-98.9 \u00b0C", "Density": "0.8748 g/cm\u00b3 @ Temp: 20 \u00b0C"}}