{"cas_no": "105-56-6", "cn_name": "\u6c30\u4e59\u9178\u4e59\u916f", "en_name": ["Ethyl cyanoacetate", "Acetic acid, 2-cyano-, ethyl ester", "Acetic acid, cyano-, ethyl ester", "Cyanoacetic acid ethyl ester", "Cyanoacetic ester", "Ethyl cyanoacetate", "Ethyl cyanoethanoate", "Malonic acid ethyl ester nitrile", "Ethyl cyanacetate", "Ethyl 2-cyanoacetate", "Ethyl \u03b1-cyanoacetate", "NSC 8844", "(Ethoxycarbonyl)acetonitrile", "3-Ethoxy-3-oxopropanenitrile", "2-Cyanoacetic acid ethyl ester"], "SMILES": "C(CC#N)(OCC)=O", "physical_data": {"Molecular Weight": "113.11", "Molecular Formula": "C5H7NO2", "Boiling Point": "206.0 \u00b0C @ Press: 760 Torr", "Melting Point": "-22 \u00b0C", "Density": "1.0560 g/cm\u00b3 @ Temp: 25 \u00b0C"}}