{"cas_no": "105-30-6", "cn_name": "2-\u7532\u57fa-1-\u4e01\u9187", "en_name": ["2-Methyl-1-pentanol", "1-Pentanol, 2-methyl-", "2-Methyl-1-pentanol", "2-Methylpentanol-1", "2-MPOH", "(\u00b1)-2-Methylpentanol", "(\u00b1)-2-Methyl-1-pentanol", "NSC 6250"], "SMILES": "C(CCC)(CO)C", "physical_data": {"Molecular Weight": "102.17", "Molecular Formula": "C6H14O", "Boiling Point": "148 \u00b0C @ Press: 760 Torr", "Density": "0.8263 g/cm\u00b3 @ Temp: 20 \u00b0C"}}