{"cas_no": "105-45-3", "cn_name": "\u4e59\u9170\u4e59\u9178\u7532\u916f", "en_name": ["Methyl acetoacetate", "Butanoic acid, 3-oxo-, methyl ester", "Acetoacetic acid, methyl ester", "Methyl acetoacetate", "Methyl acetylacetate", "Methyl 3-oxobutyrate", "Methyl 3-oxobutanoate", "3-Oxobutanoic acid methyl ester", "3-Oxobutyric acid methyl ester", "Acetoacetate methyl ester", "Methyl 2-acetoacetate"], "SMILES": "C(CC(C)=O)(OC)=O", "physical_data": {"Molecular Weight": "116.12", "Molecular Formula": "C5H8O3", "Boiling Point": "171.7 \u00b0C", "Melting Point": "-27 \u00b0C", "Density": "1.0762 g/cm\u00b3 @ Temp: 20 \u00b0C"}}