{"cas_no": "105-38-4", "cn_name": "\u4e19\u9178\u4e59\u70ef\u57fa\u916f", "en_name": ["Vinyl propionate", "Propanoic acid, ethenyl ester", "Propionic acid, vinyl ester", "Vinyl propionate", "Vinyl propanoate", "NSC 5275"], "SMILES": "C(OC=C)(CC)=O", "physical_data": {"Molecular Weight": "100.12", "Molecular Formula": "C5H8O2", "Boiling Point": "91.2 \u00b0C", "Melting Point": "-80 \u00b0C", "Density": "0.9101 g/cm\u00b3 @ Temp: 20 \u00b0C"}}