{"cas_no": "105-76-0", "cn_name": "\u9a6c\u6765\u9178\u4e8c\u4e01\u916f", "en_name": ["Dibutyl maleate", "2-Butenedioic acid (2Z)-, 1,4-dibutyl ester", "Maleic acid, dibutyl ester", "2-Butenedioic acid (Z)-, dibutyl ester", "2-Butenedioic acid (2Z)-, dibutyl ester", "DBM", "Dibutyl maleate", "RC Comonomer DBM", "Staflex DBM", "Butyl maleate", "Di-n-butyl maleate", "Maleic acid di-n-butyl ester", "Vinavil CF 5"], "SMILES": "C(C=CC(OCCCC)=O)(OCCCC)=O", "physical_data": {"Molecular Weight": "228.28", "Molecular Formula": "C12H20O4", "Boiling Point": "281 \u00b0C", "Melting Point": "-85 \u00b0C", "Density": "0.9964 g/cm\u00b3 @ Temp: 20 \u00b0C"}}