{"cas_no": "105-13-5", "cn_name": "4-\u7532\u6c27\u57fa\u82c4\u9187", "en_name": ["4-Methoxybenzyl alcohol", "Benzenemethanol, 4-methoxy-", "Benzyl alcohol, p-methoxy-", "4-Methoxybenzenemethanol", "Anise alcohol", "4-Methoxybenzyl alcohol", "p-Methoxybenzyl alcohol", "Anisic alcohol", "p-Anisyl alcohol", "4-(Methoxyphenyl)methanol", "4-(Hydroxymethyl)anisole", "p-(Methoxyphenyl)methanol", "(4-Methoxyphenyl)methyl alcohol", "p-Anisalcohol", "4-Methoxy-\u03b1-hydroxytoluene", "NSC 2151", "[4-(Methyloxy)phenyl]methanol"], "SMILES": "C(O)C1=CC=C(OC)C=C1", "physical_data": {"Molecular Weight": "138.16", "Molecular Formula": "C8H10O2", "Boiling Point": "259.1 \u00b0C", "Melting Point": "25 \u00b0C"}}