{"cas_no": "105-06-6", "cn_name": "\u5bf9\u4e8c\u4e59\u70ef\u82ef", "en_name": ["p-Divinylbenzene", "Benzene, 1,4-diethenyl-", "Benzene, p-divinyl-", "1,4-Diethenylbenzene", "p-Divinylbenzene", "p-Vinylstyrene", "1,4-Divinylbenzene", "4-Vinylstyrene"], "SMILES": "C(=C)C1=CC=C(C=C)C=C1", "physical_data": {"Molecular Weight": "130.19", "Molecular Formula": "C10H10", "Boiling Point": "52 \u00b0C @ Press: 4 Torr", "Melting Point": "31 \u00b0C", "Density": "0.913 g/cm\u00b3 @ Temp: 40 \u00b0C"}}