{"cas_no": "105024-66-6", "cn_name": "\u7845\u767d\u7075", "en_name": ["Silafluofen", "Benzene, 4-[3-[(4-ethoxyphenyl)dimethylsilyl]propyl]-1-fluoro-2-phenoxy-", "Silane, (4-ethoxyphenyl)[3-(4-fluoro-3-phenoxyphenyl)propyl]dimethyl-", "4-[3-[(4-Ethoxyphenyl)dimethylsilyl]propyl]-1-fluoro-2-phenoxybenzene", "Silafluofen", "Eflusilanat", "Silonen", "(4-Ethoxyphenyl)[3-(4-fluoro-3-phenoxyphenyl)propyl]dimethylsilane", "MR. Joker", "Salifluofen"], "SMILES": "O(C1=CC(CCC[Si](C)(C)C2=CC=C(OCC)C=C2)=CC=C1F)C3=CC=CC=C3", "physical_data": {"Molecular Weight": "408.58", "Molecular Formula": "C25H29FO2Si", "Melting Point": "&lt;25 \u00b0C"}}