{"cas_no": "1050477-31-0", "cn_name": "\u975e\u5948\u5229\u916e", "en_name": ["(4S)-4-(4-Cyano-2-methoxyphenyl)-5-ethoxy-1,4-dihydro-2,8-dimethyl-1,6-naphthyridine-3-carboxamide", "1,6-Naphthyridine-3-carboxamide, 4-(4-cyano-2-methoxyphenyl)-5-ethoxy-1,4-dihydro-2,8-dimethyl-, (4S)-", "(4S)-4-(4-Cyano-2-methoxyphenyl)-5-ethoxy-1,4-dihydro-2,8-dimethyl-1,6-naphthyridine-3-carboxamide", "BAY 94-8862", "Finerenone"], "SMILES": "O(CC)C1=C2C(C(C(N)=O)=C(C)NC2=C(C)C=N1)C3=C(OC)C=C(C#N)C=C3", "physical_data": {"Molecular Weight": "378.42", "Molecular Formula": "C21H22N4O3", "Melting Point": "235-238 \u00b0C"}}