{"cas_no": "10508-09-5", "cn_name": "\u4e8c\u53d4\u620a\u57fa\u8fc7\u6c27\u5316\u7269", "en_name": ["tert-Amyl peroxide", "Peroxide, bis(1,1-dimethylpropyl)", "tert-Pentyl peroxide", "Bis(1,1-dimethylpropyl) peroxide", "Di-tert-amyl peroxide", "tert-Amyl peroxide", "Peroximon S 172", "Trigonox 201", "Di-t-amyl peroxide", "Luperox DTA", "Di-tert-pentyl peroxide"], "SMILES": "C(OOC(CC)(C)C)(CC)(C)C", "physical_data": {"Molecular Weight": "174.28", "Molecular Formula": "C10H22O2", "Boiling Point": "44 \u00b0C @ Press: 10 Torr", "Density": "0.821 g/cm\u00b3"}}