{"cas_no": "10500-57-9", "cn_name": "5,6,7,8-\u56db\u6c22\u55b9\u5549", "en_name": ["5,6,7,8-Tetrahydroquinoline", "Quinoline, 5,6,7,8-tetrahydro-", "5,6,7,8-Tetrahydroquinoline", "2,3-Cyclohexenopyridine", "NSC 241127"], "SMILES": "C1=2C(CCCC1)=NC=CC2", "physical_data": {"Molecular Weight": "133.19", "Molecular Formula": "C9H11N", "Boiling Point": "222 \u00b0C", "Density": "1.025 g/cm\u00b3 @ Temp: 22 \u00b0C"}}