{"cas_no": "10504-60-6", "cn_name": "\u56db\u6c1f\u787c\u9178\u7532\u57fa\u8054\u82ef\u786b\u916f", "en_name": ["Sulfonium, methyldiphenyl-, tetrafluoroborate(1-) (1:1)", "Sulfonium, methyldiphenyl-, tetrafluoroborate(1-) (1:1)", "Sulfonium, methyldiphenyl-, tetrafluoroborate(1-)", "Methyldiphenylsulfonium tetrafluoroborate", "Borate(1-), tetrafluoro-, methyldiphenylsulfonium", "Diphenylmethylsulfonium tetrafluoroborate", "Methyldiphenylsulfonium tetrafluoroborate(1-)"], "SMILES": "[B+3]([F-])([F-])([F-])[F-].[S+](C)(C1=CC=CC=C1)C2=CC=CC=C2", "physical_data": {"Molecular Weight": "", "Molecular Formula": "C13H13S.BF4", "Melting Point": "61-62 \u00b0C"}}