{"cas_no": "10506-37-3", "cn_name": "\u786b\u4ee3\u6c2f\u7532\u9178-2-\u8418\u916f", "en_name": ["Carbonochloridothioic acid, O-2-naphthalenyl ester", "Carbonochloridothioic acid, O-2-naphthalenyl ester", "Formic acid, chlorothio-, O-2-naphthyl ester", "O-2-Naphthyl chlorothioformate", "O-(\u03b2-Naphthyl) thiocarbonic acid chloride", "O-2-Naphthalenyl carbonochloridothioate", "2-Naphthyl chlorothioformate"], "SMILES": "O(C(Cl)=S)C1=CC2=C(C=C1)C=CC=C2", "physical_data": {"Molecular Weight": "222.69", "Molecular Formula": "C11H7ClOS", "Melting Point": "76-77 \u00b0C"}}