{"cas_no": "10500-34-2", "cn_name": "2-\u5df1\u70ef-1-\u57fa\u4e01\u4e8c\u9178\u9150(\u5f02\u6784\u4f53\u7684\u6df7\u5408\u7269)", "en_name": ["3-(2-Hexen-1-yl)dihydro-2,5-furandione", "2,5-Furandione, 3-(2-hexen-1-yl)dihydro-", "Succinic anhydride, (2-hexenyl)-", "2,5-Furandione, 3-(2-hexenyl)dihydro-", "3-(2-Hexen-1-yl)dihydro-2,5-furandione", "(2-Hexenyl)succinic anhydride", "3-(Hex-2-enyl)dihydrofuran-2,5-dione", "2-Hexen-1-yl succinic anhydride"], "SMILES": "C(C=CCCC)C1CC(=O)OC1=O", "physical_data": {"Molecular Weight": "182.22", "Molecular Formula": "C10H14O3", "Boiling Point": "166-169 \u00b0C @ Press: 15 Torr"}}