{"cas_no": "1050-28-8", "cn_name": "H-TYR-TYR-OH", "en_name": ["L-Tyrosyl-L-tyrosine", "L-Tyrosine, L-tyrosyl-", "Tyrosine, N-L-tyrosyl-, L-", "L-Tyrosine, N-L-tyrosyl-", "Tyrosine, N-tyrosyl-", "L-Tyrosyl-L-tyrosine", "N-Tyrosyltyrosine", "Di-L-tyrosine", "115: PN: WO2005000193 SEQID: 115 claimed protein", "115: PN: US20050020809 SEQID: 115 claimed protein", "432: PN: WO2005081628 SEQID: 434 claimed protein", "9: PN: JP2007217358 SEQID: 9 claimed protein", "6: PN: WO2009095265 SEQID: 6 claimed protein", "6: PN: EP2085120 SEQID: 6 claimed protein", "59: PN: EP2161028 PAGE: 10 claimed protein", "12: PN: WO2013055051 PAGE: 29 claimed sequence", "1: PN: WO2013189606 SEQID: 6 claimed sequence", "12: PN: KR20140124582 PAGE: 4 claimed sequence", "55: PN: US20130338076 SEQID: 115 claimed sequence", "3: PN: US20150203546 PAGE: 78 claimed sequence", "1: PN: CN108794571 SEQID: 1 claimed sequence"], "SMILES": "C(C(NC(C(CC1=CC=C(O)C=C1)N)=O)C(O)=O)C2=CC=C(O)C=C2", "physical_data": {"Molecular Weight": "344.36", "Molecular Formula": "C18H20N2O5", "Melting Point": "300 \u00b0C (decomp)"}}