{"cas_no": "10500-64-8", "cn_name": "4-[(7-\u6c2f-4-\u55b9\u5549)\u6c28\u57fa]-1-\u620a\u9187", "en_name": ["4-[(7-Chloro-4-quinolinyl)amino]-1-pentanol", "1-Pentanol, 4-[(7-chloro-4-quinolinyl)amino]-", "1-Pentanol, 4-[(7-chloro-4-quinolyl)amino]-", "4-[(7-Chloro-4-quinolinyl)amino]-1-pentanol"], "SMILES": "N(C(CCCO)C)C=1C2=C(N=CC1)C=C(Cl)C=C2", "physical_data": {"Molecular Weight": "264.75", "Molecular Formula": "C14H17ClN2O", "Melting Point": "179-181 \u00b0C"}}