{"cas_no": "10502-44-0", "cn_name": "\u5bf9\u7532\u6c27\u57fa\u82e6\u674f\u4ec1\u9178", "en_name": ["4-Methoxymandelic acid", "Benzeneacetic acid, \u03b1-hydroxy-4-methoxy-", "Mandelic acid, p-methoxy-", "\u03b1-Hydroxy-4-methoxybenzeneacetic acid", "p-Methoxymandelic acid", "4-Methoxymandelic acid", "4-Methoxyphenylglycolic acid", "2-Hydroxy-2-(4-methoxyphenyl)acetic acid", "DL-4-Methoxymandelic acid", "Hydroxy(4-methoxyphenyl)acetic acid"], "SMILES": "C(C(O)=O)(O)C1=CC=C(OC)C=C1", "physical_data": {"Molecular Weight": "182.17", "Molecular Formula": "C9H10O4", "Melting Point": "108 \u00b0C"}}