{"cas_no": "10519-88-7", "cn_name": "\u4e8c\u70ef\u4e19\u57fa\u4e8c\u82ef\u57fa\u7845\u70f7", "en_name": ["1,1\u2032-(Di-2-propen-1-ylsilylene)bis[benzene]", "Benzene, 1,1\u2032-(di-2-propen-1-ylsilylene)bis-", "Silane, diallyldiphenyl-", "Silane, diphenyldi-2-propenyl-", "1,1\u2032-(Di-2-propen-1-ylsilylene)bis[benzene]", "Diallyldiphenylsilane", "Diphenyldiallylsilane", "NSC 269574", "4,4-Diphenyl-4-sila-1,6-heptadiene"], "SMILES": "[Si](CC=C)(CC=C)(C1=CC=CC=C1)C2=CC=CC=C2", "physical_data": {"Molecular Weight": "264.44", "Molecular Formula": "C18H20Si", "Boiling Point": "140-141 \u00b0C @ Press: 2 Torr", "Density": "0.995 g/cm\u00b3"}}