{"cas_no": "10517-21-2", "cn_name": "5-\u6c2f\u5432\u54da-2-\u7fa7\u9178", "en_name": ["5-Chloro-1H-indole-2-carboxylic acid", "1H-Indole-2-carboxylic acid, 5-chloro-", "Indole-2-carboxylic acid, 5-chloro-", "5-Chloro-1H-indole-2-carboxylic acid", "5-Chloroindole-2-carboxylic acid", "NSC 75651", "2-Carboxy-5-chloroindole"], "SMILES": "C(O)(=O)C=1NC=2C(C1)=CC(Cl)=CC2", "physical_data": {"Molecular Weight": "195.60", "Molecular Formula": "C9H6ClNO2", "Melting Point": "152 \u00b0C"}}