{"cas_no": "10510-77-7", "cn_name": "\u5429\u55ea\u4e59\u57fa\u786b\u9178\u76d0", "en_name": ["Phenazine ethosulfate", "Phenazinium, 5-ethyl-, ethyl sulfate (1:1)", "Phenazinium, 5-ethyl-, ethyl sulfate", "5-Ethylphenazinium ethyl sulfate", "Sulfuric acid, monoethyl ester, ion(1-), 5-ethylphenazinium", "Phenazine ethosulfate", "N-Ethylphenazonium ethyl sulfate", "N-Ethylphenazinium ethyl sulfate", "NSC 402863"], "SMILES": "C(C)[N+]=1C2=C(N=C3C1C=CC=C3)C=CC=C2.O(S(=O)(=O)[O-])CC", "physical_data": {"Molecular Weight": "", "Molecular Formula": "C14H13N2.C2H5O4S", "Melting Point": "190 \u00b0C"}}