{"cas_no": "10512-93-3", "cn_name": "Z-VAL-ONP", "en_name": ["N-[(Phenylmethoxy)carbonyl]-L-valine 4-nitrophenyl ester", "L-Valine, N-[(phenylmethoxy)carbonyl]-, 4-nitrophenyl ester", "Valine, N-carboxy-, N-benzyl p-nitrophenyl ester, L-", "N-[(Phenylmethoxy)carbonyl]-L-valine 4-nitrophenyl ester", "N-Carbobenzoxy-L-valine p-nitrophenyl ester", "N-Benzyloxycarbonyl-L-valine p-nitrophenyl ester", "Benzyloxycarbonyl-L-valine p-nitrophenyl ester", "\u03b1-N-Benzyloxycarbonyl-L-valine p-nitrophenyl ester", "N-\u03b1-Carbobenzoxy-L-valine p-nitrophenyl ester", "N-Carbobenzoxyvaline p-nitrophenyl ester", "(4-Nitrophenyl) (2S)-3-methyl-2-(phenylmethoxycarbonylamino)butanoate"], "SMILES": "O(C(C(NC(OCC1=CC=CC=C1)=O)C(C)C)=O)C2=CC=C(N(=O)=O)C=C2", "physical_data": {"Molecular Weight": "372.37", "Molecular Formula": "C19H20N2O6", "Melting Point": "61 \u00b0C"}}