{"cas_no": "10516-71-9", "cn_name": "3-(3-\u7532\u6c27\u57fa\u82ef\u57fa)\u4e19\u9178", "en_name": ["3-(3-Methoxyphenyl)propionic acid", "Benzenepropanoic acid, 3-methoxy-", "Hydrocinnamic acid, m-methoxy-", "3-Methoxybenzenepropanoic acid", "3-(m-Methoxyphenyl)propionic acid", "m-Methoxyhydrocinnamic acid", "3-Methoxybenzenepropionic acid", "3-Methoxydihydrocinnamic acid", "3-(3-Methoxyphenyl)propanoic acid", "3-(3-Methoxyphenyl)propionic acid", "NSC 78456"], "SMILES": "C(CC(O)=O)C1=CC(OC)=CC=C1", "physical_data": {"Molecular Weight": "180.20", "Molecular Formula": "C10H12O3", "Melting Point": "48-49 \u00b0C"}}