{"cas_no": "10513-45-8", "cn_name": "N-\u53d4\u4e01\u57fa-5-\u7532\u5f02\u5511\u9ad8\u6c2f\u9178\u76d0", "en_name": ["Isoxazolium, 2-(1,1-dimethylethyl)-5-methyl-, perchlorate (1:1)", "Isoxazolium, 2-(1,1-dimethylethyl)-5-methyl-, perchlorate (1:1)", "Isoxazolium, 2-tert-butyl-5-methyl-, perchlorate", "Isoxazolium, 2-(1,1-dimethylethyl)-5-methyl-, perchlorate", "2-tert-Butyl-5-methylisoxazolium perchlorate", "N-tert-Butyl-5-methylisoxazolium perchlorate", "NSC 86127"], "SMILES": "Cl(=O)(=O)(=O)[O-].C(C)(C)(C)[N+]=1OC(C)=CC1", "physical_data": {"Molecular Weight": "", "Molecular Formula": "C8H14NO.ClO4", "Melting Point": "119-121 \u00b0C"}}