{"cas_no": "10519-87-6", "cn_name": "\u4e8c\u4e59\u70ef\u57fa\u4e8c\u7532\u57fa\u7845\u70f7", "en_name": ["Diethenyldimethylsilane", "Silane, diethenyldimethyl-", "Silane, dimethyldivinyl-", "Diethenyldimethylsilane", "Dimethyldivinylsilane", "Divinyldimethylsilane"], "SMILES": "[Si](C=C)(C=C)(C)C", "physical_data": {"Molecular Weight": "112.25", "Molecular Formula": "C6H12Si", "Boiling Point": "82 \u00b0C", "Melting Point": "79-82 \u00b0C", "Density": "0.733 g/cm\u00b3"}}