{"cas_no": "105112-76-3", "cn_name": "4,4'-\u53cc(3-\u6c28\u57fa\u82ef\u6c27\u57fa)\u8054\u82ef", "en_name": ["3,3\u2032-[[1,1\u2032-Biphenyl]-4,4\u2032-diylbis(oxy)]bis[benzenamine]", "Benzenamine, 3,3\u2032-[[1,1\u2032-biphenyl]-4,4\u2032-diylbis(oxy)]bis-", "3,3\u2032-[[1,1\u2032-Biphenyl]-4,4\u2032-diylbis(oxy)]bis[benzenamine]", "4,4\u2032-Bis(3-aminophenoxy)biphenyl", "3,3\u2032-([1,1\u2032-Biphenyl]-4,4\u2032-diylbis(oxy))dianiline"], "SMILES": "O(C1=CC=C(C=C1)C2=CC=C(OC3=CC(N)=CC=C3)C=C2)C4=CC(N)=CC=C4", "physical_data": {"Molecular Weight": "368.43", "Molecular Formula": "C24H20N2O2", "Melting Point": "144 \u00b0C"}}