{"cas_no": "10519-20-7", "cn_name": "2-\u8f9b\u7094\u9178\u4e59\u916f", "en_name": ["Ethyl 2-octynoate", "2-Octynoic acid, ethyl ester", "Ethyl 2-octynoate", "NSC 74485", "Ethyl pentylpropiolate"], "SMILES": "C(C#CCCCCC)(OCC)=O", "physical_data": {"Molecular Weight": "168.23", "Molecular Formula": "C10H16O2", "Boiling Point": "84-85 \u00b0C @ Press: 6 Torr"}}