{"cas_no": "10512-86-4", "cn_name": "N-\u7532\u9170\u57fa-L-\u4e19\u6c28\u9178", "en_name": ["N-Formylalanine", "L-Alanine, N-formyl-", "Alanine, N-formyl-, L-", "N-Formyl-L-alanine", "N-Formylalanine", "L-N-Formylalanine", "(2S)-2-Formamidopropanoic acid"], "SMILES": "C(NC=O)(C(O)=O)C", "physical_data": {"Molecular Weight": "117.10", "Molecular Formula": "C4H7NO3", "Boiling Point": "83-86 \u00b0C @ Press: 29 Torr", "Melting Point": "147-148 \u00b0C"}}