{"cas_no": "10519-96-7", "cn_name": "\u4e09\u7532\u57fa\u7845\u9187\u94be", "en_name": ["Potassium trimethylsilanolate", "Silanol, 1,1,1-trimethyl-, potassium salt (1:1)", "Silanol, trimethyl-, potassium salt", "Potassium, (trimethylsiloxy)-", "Silanol, trimethyl-, potassium deriv.", "Potassium trimethylsilanolate", "Trimethylsiloxypotassium", "Potassium trimethylsilyloxide", "Potassium trimethylsiloxide", "Trimethylsilanol potassium salt"], "SMILES": "[Si](C)(C)(C)O.[K]", "physical_data": {"Molecular Weight": "", "Molecular Formula": "C3H10OSi.K", "Melting Point": "134-138 \u00b0C (decomp)"}}