{"cas_no": "10519-33-2", "cn_name": "3-\u7678\u70ef-2-\u916e", "en_name": ["3-Decen-2-one", "3-Decen-2-one", "Heptylidene acetone", "Oenanthylidene acetone", "SmartBlock"], "SMILES": "C(CCCCC)C=CC(C)=O", "physical_data": {"Molecular Weight": "154.25", "Molecular Formula": "C10H18O", "Boiling Point": "125-126 \u00b0C @ Press: 12 Torr", "Melting Point": "16-17 \u00b0C", "Density": "0.8473 g/cm\u00b3 @ Temp: 20 \u00b0C"}}