{"cas_no": "10517-50-7", "cn_name": "1-(2-\u6c28\u57fa\u82ef\u57fa)\u4e59\u9187", "en_name": ["2-Amino-\u03b1-methylbenzenemethanol", "Benzenemethanol, 2-amino-\u03b1-methyl-", "Benzyl alcohol, o-amino-\u03b1-methyl-", "2-Amino-\u03b1-methylbenzenemethanol", "2-Amino-\u03b1-methylbenzyl alcohol", "\u03b1-Methyl-o-aminobenzyl alcohol", "2-(1-Hydroxyethyl)aniline", "o-Amino-\u03b1-methylbenzyl alcohol", "1-(2\u2032-Aminophenyl)ethanol", "1-(2-Aminophenyl)ethan-1-ol"], "SMILES": "C(C)(O)C1=C(N)C=CC=C1", "physical_data": {"Molecular Weight": "137.18", "Molecular Formula": "C8H11NO", "Boiling Point": "100-105 \u00b0C @ Press: 0.6 Torr", "Melting Point": "48-50 \u00b0C", "Density": "1.0791 g/cm\u00b3 @ Temp: 20 \u00b0C"}}