{"cas_no": "10517-44-9", "cn_name": "\u675c\u5c14\u8d1d\u79d1\u6539\u6027\u57f9\u517b\u57fa\u53e4\u6c28\u9170\u80fa", "en_name": ["1,3-Diaminopropane dihydrochloride", "1,3-Propanediamine, dihydrochloride", "Trimethylenediamine dihydrochloride", "1,3-Diaminopropane dihydrochloride"], "SMILES": "C(CN)CN.Cl", "physical_data": {"Molecular Weight": "", "Molecular Formula": "C3H10N2.2ClH", "Melting Point": "242 \u00b0C"}}