{"cas_no": "10519-17-2", "cn_name": "2-\u5341\u4e00\u7094\u9178\u4e59\u916f", "en_name": ["Ethyl 2-undecynoate", "2-Undecynoic acid, ethyl ester", "Ethyl 2-undecynoate", "Mignonette"], "SMILES": "C(#CCCCCCCCC)C(OCC)=O", "physical_data": {"Molecular Weight": "210.31", "Molecular Formula": "C13H22O2", "Boiling Point": "128 \u00b0C @ Press: 10 Torr"}}