{"cas_no": "105108-20-1", "cn_name": "LIGUCYPERONOL", "en_name": ["Ligucyperonol", "2(3H)-Naphthalenone, 4,4a,5,6,7,8-hexahydro-4-hydroxy-1,4a-dimethyl-7-(1-methylethenyl)-, (4R,4aR,7R)-", "2(3H)-Naphthalenone, 4,4a,5,6,7,8-hexahydro-4-hydroxy-1,4a-dimethyl-7-(1-methylethenyl)-, [4R-(4\u03b1,4a\u03b1,7\u03b1)]-", "(4R,4aR,7R)-4,4a,5,6,7,8-Hexahydro-4-hydroxy-1,4a-dimethyl-7-(1-methylethenyl)-2(3H)-naphthalenone", "Ligucyperonol", "1\u03b2-Hydroxy-\u03b1-cyperone"], "SMILES": "CC12C(CC(C(C)=C)CC1)=C(C)C(=O)CC2O", "physical_data": {"Molecular Weight": "234.33", "Molecular Formula": "C15H22O2", "Melting Point": "123.5-124.5 \u00b0C"}}