{"cas_no": "10527-16-9", "cn_name": "10-\u6c2f-9-\u84bd\u7532\u919b", "en_name": ["10-Chloro-9-anthracenecarboxaldehyde", "9-Anthracenecarboxaldehyde, 10-chloro-", "9-Anthraldehyde, 10-chloro-", "10-Chloro-9-anthracenecarboxaldehyde", "10-Chloro-9-anthraldehyde", "9-Chloro-10-formylanthracene", "10-Chloro-9-anthracenecarbaldehyde"], "SMILES": "C(=O)C=1C2=C(C(Cl)=C3C1C=CC=C3)C=CC=C2", "physical_data": {"Molecular Weight": "240.68", "Molecular Formula": "C15H9ClO", "Melting Point": "216 \u00b0C"}}