{"cas_no": "10527-64-7", "cn_name": "1-\u4e8c\u82ef\u57fa\u7532\u57fa-4-(2-\u7f9f\u57fa\u4e59\u57fa)\u54cc\u55ea", "en_name": ["4-(Diphenylmethyl)-1-piperazineethanol", "1-Piperazineethanol, 4-(diphenylmethyl)-", "4-(Diphenylmethyl)-1-piperazineethanol", "N-(Diphenylmethyl)-N\u2032-(2-hydroxyethyl)piperazine", "4-Benzhydryl-1-piperazineethanol", "1-Diphenylmethyl-4-(2-hydroxyethyl)piperazine", "2-(4-Benzhydrylpiperazin-1-yl)ethanol"], "SMILES": "C(N1CCN(CCO)CC1)(C2=CC=CC=C2)C3=CC=CC=C3", "physical_data": {"Molecular Weight": "296.41", "Molecular Formula": "C19H24N2O", "Boiling Point": "180 \u00b0C @ Press: 0.01 Torr"}}