{"cas_no": "10526-07-5", "cn_name": "1,3-\u53cc(3-\u6c28\u57fa\u82ef\u6c27\u57fa)\u82ef", "en_name": ["1,3-Bis(3-aminophenoxy)benzene", "Benzenamine, 3,3\u2032-[1,3-phenylenebis(oxy)]bis-", "Aniline, 3,3\u2032-(m-phenylenedioxy)di-", "3,3\u2032-[1,3-Phenylenebis(oxy)]bis[benzenamine]", "3,3\u2032-(m-Phenylenedioxy)dianiline", "1,3-Bis(3-aminophenoxy)benzene", "1,3-Bis(m-aminophenoxy)benzene", "3,3\u2032-[1,3-Phenylenebis(oxy)]bis[aniline]", "3,3\u2032-[m-Phenylenebis(oxy)]dianiline", "APB", "APB-N", "APB 133", "3,3\u2032-(1,3-Phenylenebis(oxy))dianiline"], "SMILES": "O(C1=CC(OC2=CC(N)=CC=C2)=CC=C1)C3=CC(N)=CC=C3", "physical_data": {"Molecular Weight": "292.33", "Molecular Formula": "C18H16N2O2", "Melting Point": "108 \u00b0C"}}