{"cas_no": "10521-08-1", "cn_name": "1,3-\u4e19\u916e\u4e8c\u7fa7\u57fa \u9178 \u9150", "en_name": ["2H-Pyran-2,4,6(3H,5H)-trione", "2H-Pyran-2,4,6(3H,5H)-trione", "Glutaric anhydride, 3-oxo-", "\u03b2-Ketoglutaric anhydride", "Pyran-2,4,6-trione", "Acetone dicarboxylic acid anhydride"], "SMILES": "O=C1CC(=O)OC(=O)C1", "physical_data": {"Molecular Weight": "128.08", "Molecular Formula": "C5H4O4", "Melting Point": "138-140 \u00b0C (decomp)"}}