{"cas_no": "10527-11-4", "cn_name": "\u831a\u6ee1\u53cc\u915a", "en_name": ["3-(4-Hydroxyphenyl)-1,1,3-trimethyl-5-indanol", "1H-Inden-5-ol, 2,3-dihydro-3-(4-hydroxyphenyl)-1,1,3-trimethyl-", "5-Indanol, 3-(p-hydroxyphenyl)-1,1,3-trimethyl-", "2,3-Dihydro-3-(4-hydroxyphenyl)-1,1,3-trimethyl-1H-inden-5-ol", "3-(4-Hydroxyphenyl)-1,1,3-trimethyl-5-indanol", "5-Hydroxy-3-(4-hydroxyphenyl)-1,1,3-trimethylindan", "3-(p-Hydroxyphenyl)-1,1,3-trimethyl-5-indanol", "1,3,3-Trimethyl-1-p-hydroxyphenylindan-6-ol", "PIPE-CD"], "SMILES": "CC1(C=2C(C(C)(C)C1)=CC=C(O)C2)C3=CC=C(O)C=C3", "physical_data": {"Molecular Weight": "268.35", "Molecular Formula": "C18H20O2", "Melting Point": "194-195 \u00b0C"}}