{"cas_no": "10523-68-9", "cn_name": "2-\u91d1\u521a\u70f7\u80fa\u76d0\u9178\u76d0", "en_name": ["2-Adamantanamine, hydrochloride", "Tricyclo[3.3.1.13,7]decan-2-amine, hydrochloride (1:1)", "2-Adamantanamine, hydrochloride", "Tricyclo[3.3.1.13,7]decan-2-amine, hydrochloride", "2-Aminoadamantane hydrochloride", "2-Adamantylamine hydrochloride", "2-Adamantaneammonium chloride", "2-Adamantamine hydrochloride"], "SMILES": "NC1C2CC3CC1CC(C2)C3.Cl", "physical_data": {"Molecular Weight": "", "Molecular Formula": "C10H17N.ClH", "Melting Point": "300-325 \u00b0C"}}