{"cas_no": "10521-91-2", "cn_name": "\u82ef\u620a\u9187", "en_name": ["5-Phenyl-1-pentanol", "Benzenepentanol", "1-Pentanol, 5-phenyl-", "Phenylamyl alcohol", "5-Phenylpentanol", "Phenylpentanol", "5-Phenyl-1-pentanol", "5-Phenyl-1-pentyl alcohol", "NSC 6590"], "SMILES": "C(CCCCO)C1=CC=CC=C1", "physical_data": {"Molecular Weight": "164.24", "Molecular Formula": "C11H16O", "Boiling Point": "155 \u00b0C @ Press: 20 Torr", "Density": "0.9704 g/cm\u00b3 @ Temp: 20 \u00b0C"}}