{"cas_no": "10538-49-5", "cn_name": "3-(2,5-\u4e8c\u7532\u6c27\u57fa\u82ef\u57fa)\u4e19\u9178", "en_name": ["3-(2,5-Dimethoxyphenyl)propionic acid", "Benzenepropanoic acid, 2,5-dimethoxy-", "Hydrocinnamic acid, 2,5-dimethoxy-", "2,5-Dimethoxybenzenepropanoic acid", "2,5-Dimethoxyhydrocinnamic acid", "3-(2,5-Dimethoxyphenyl)propionic acid", "2,5-Dimethoxydihydrocinnamic acid", "3-(2,5-Dimethoxyphenyl)propanoic acid"], "SMILES": "C(CC(O)=O)C1=C(OC)C=CC(OC)=C1", "physical_data": {"Molecular Weight": "210.23", "Molecular Formula": "C11H14O4", "Melting Point": "65.5 \u00b0C"}}