{"cas_no": "10534-59-5", "cn_name": "\u56db\u4e01\u57fa\u918b\u9178\u94f5", "en_name": ["Tetrabutylammonium acetate", "1-Butanaminium, N,N,N-tributyl-, acetate (1:1)", "Ammonium, tetrabutyl-, acetate", "1-Butanaminium, N,N,N-tributyl-, acetate", "Tetrabutylammonium acetate", "Tetra-n-butylammonium acetate", "N,N,N-Tributyl-1-butanaminium acetate"], "SMILES": "C(C)([O-])=O.[N+](CCCC)(CCCC)(CCCC)CCCC", "physical_data": {"Molecular Weight": "", "Molecular Formula": "C16H36N.C2H3O2", "Melting Point": "114-115 \u00b0C"}}