{"cas_no": "10531-50-7", "cn_name": "(R)-(-)-\u0391-\u4e09\u6c1f\u7532\u57fa\u82c4\u9187", "en_name": ["(-)-2,2,2-Trifluoro-1-phenylethanol", "Benzenemethanol, \u03b1-(trifluoromethyl)-, (\u03b1R)-", "Benzyl alcohol, \u03b1-(trifluoromethyl)-, (R)-(-)-", "Benzenemethanol, \u03b1-(trifluoromethyl)-, (R)-", "(\u03b1R)-\u03b1-(Trifluoromethyl)benzenemethanol", "(R)-(-)-2,2,2-Trifluoro-1-phenylethanol", "(R)-(Trifluoromethyl)phenylmethanol", "(R)-1-Phenyl-2,2,2-trifluoroethanol", "(-)-1-Phenyl-2,2,2-trifluoroethanol", "(-)-2,2,2-Trifluoro-1-phenylethanol", "(R)-2,2,2-Trifluoro-1-phenylethanol", "(-)-\u03b1-(Trifluoromethyl) benzyl alcohol", "(R)-(-)-\u03b1-(Trifluoromethyl)benzyl alcohol", "(R)-\u03b1-(Trifluoromethyl)benzyl alcohol", "(R)-2,2,2-Trifluoro-1-phenylethanol", "(R)-(-)-\u03b1-(Trifluoromethyl)benzyl alcohol", "(1R)-2,2,2-Trifluoro-1-phenylethanol", "(1R)-2,2,2-Trifluoro-1-phenylethan-1-ol"], "SMILES": "C(C(F)(F)F)(O)C1=CC=CC=C1", "physical_data": {"Molecular Weight": "176.14", "Molecular Formula": "C8H7F3O", "Boiling Point": "80-82 \u00b0C @ Press: 23 Torr"}}