{"cas_no": "1053228-29-7", "cn_name": "2,4-\u4e8c\u6c2f-5-\u6c1f-7H-\u5421\u54af\u5e76[2,3-D]\u5627\u5576", "en_name": ["2,4-Dichloro-5-fluoro-7H-pyrrolo[2,3-d]pyrimidine", "7H-Pyrrolo[2,3-d]pyrimidine, 2,4-dichloro-5-fluoro-", "2,4-Dichloro-5-fluoro-7H-pyrrolo[2,3-d]pyrimidine"], "SMILES": "ClC1=C2C(=NC(Cl)=N1)NC=C2F", "physical_data": {"Molecular Weight": "206.00", "Molecular Formula": "C6H2Cl2FN3", "Melting Point": "234 \u00b0C"}}