{"cas_no": "10534-89-1", "cn_name": "\u516d\u6c28\u548c\u6c2f\u5316\u94b4", "en_name": ["Hexaamminecobalt(3+) trichloride", "Cobalt(3+), hexaammine-, chloride (1:3), (OC-6-11)-", "Cobalt(3+), hexaammine-, trichloride, (OC-6-11)-", "Cobalt(3+), hexaammine-, trichloride", "Hexaaminecobalt trichloride", "Cobalt-hexamine chloride", "Hexaamminecobalt chloride", "Hexaamminecobalt trichloride", "Hexaminecobalt(3+) trichloride", "Hexamminecobalt(III) chloride", "Hexaamminecobalt(3+) trichloride", "Hexaminocobaltic chloride", "Hexaaminecobalt(3+) trichloride", "Cobalt hexammine chloride", "Hexaamminecobalt(III) chloride", "Hexaamminetrichlorocobalt", "Cobalt hexaammine trichloride", "NSC 4317", "Hexaamminecobalt(III) trichloride"], "SMILES": "[Co+3]([NH3])([NH3])([NH3])([NH3])([NH3])[NH3].[Cl-]", "physical_data": {"Molecular Weight": "", "Molecular Formula": "Cl.<sup>1</sup>/3CoH18N6", "Melting Point": "286 \u00b0C", "Density": "1.74 g/cm\u00b3"}}