{"cas_no": "105355-26-8", "cn_name": "5-{4-[2-(5-\u4e59\u57fa-2-\u5421\u5576\u57fa)-\u4e59\u6c27\u57fa]-\u82c4\u57fa}-2-\u4e9a\u6c28\u57fa-4-\u567b\u5511\u70f7\u916e", "en_name": ["2-Amino-5-[[4-[2-(5-ethyl-2-pyridinyl)ethoxy]phenyl]methyl]-4(5H)-thiazolone", "4(5H)-Thiazolone, 2-amino-5-[[4-[2-(5-ethyl-2-pyridinyl)ethoxy]phenyl]methyl]-", "2-Amino-5-[[4-[2-(5-ethyl-2-pyridinyl)ethoxy]phenyl]methyl]-4(5H)-thiazolone", "5-[4-[2-(5-Ethyl-2-pyridyl)ethoxy]benzyl]-2-imino-4-thiazolidinone", "Pioglitazone 2-imine", "2-Amino-5-[[4-[2-(5-ethylpyridin-2-yl)ethoxy]phenyl]methyl]-1,3-thiazol-4-one"], "SMILES": "C(C1C(=O)N=C(N)S1)C2=CC=C(OCCC3=CC=C(CC)C=N3)C=C2", "physical_data": {"Molecular Weight": "355.45", "Molecular Formula": "C19H21N3O2S", "Melting Point": "187-188 \u00b0C"}}