{"cas_no": "105355-27-9", "cn_name": "\u5339\u683c\u5217\u916e", "en_name": ["Pioglitazone", "2,4-Thiazolidinedione, 5-[[4-[2-(5-ethyl-2-pyridinyl)ethoxy]phenyl]methyl]-", "2,4-Thiazolidinedione, 5-[[4-[2-(5-ethyl-2-pyridinyl)ethoxy]phenyl]methyl]-, (\u00b1)-", "5-[[4-[2-(5-Ethyl-2-pyridinyl)ethoxy]phenyl]methyl]-2,4-thiazolidinedione", "Pioglitazone", "U 72107", "5-[4-[2-(5-Ethyl-2-pyridyl)ethoxy]benzyl]thiazolidine-2,4-dione", "Zactos", "5-[4-[2-(5-Ethylpyridin-2-yl)ethoxy]benzyl]thiazolidine-2,4-dione", "(RS)-5-(4-[2-(5-Ethylpyridin-2-yl)ethoxy]benzyl)thiazolidine-2,4-dione"], "SMILES": "C(C1C(=O)NC(=O)S1)C2=CC=C(OCCC3=CC=C(CC)C=N3)C=C2", "physical_data": {"Molecular Weight": "356.44", "Molecular Formula": "C19H20N2O3S", "Melting Point": "183-184 \u00b0C"}}