{"cas_no": "10538-59-7", "cn_name": "\u5965\u8d1d\u80c6\u9178\u4e2d\u95f4\u4f53-2", "en_name": ["Methyl (3\u03b1,5\u03b2)-3-hydroxy-7-oxocholan-24-oate", "Cholan-24-oic acid, 3-hydroxy-7-oxo-, methyl ester, (3\u03b1,5\u03b2)-", "5\u03b2-Cholanic acid, 3\u03b1-hydroxy-7-oxo-, methyl ester", "5\u03b2-Cholan-24-oic acid, 3\u03b1-hydroxy-7-oxo-, methyl ester", "Methyl (3\u03b1,5\u03b2)-3-hydroxy-7-oxocholan-24-oate", "Methyl 7-keto-3\u03b1-hydroxy-5\u03b2-cholanoate", "Methyl 3\u03b1-hydroxy-7-oxo-5\u03b2-cholan-24-oate", "Methyl 3\u03b1-hydroxy-7-oxo-5\u03b2-cholanoate", "7-Ketolithocholic acid methyl ester", "Methyl 3\u03b1-hydroxy-7-keto-5\u03b2-cholanate", "3\u03b1-Hydroxy-7-oxo-5\u03b2-cholan-24-oic acid methyl ester"], "SMILES": "CC12C(C3C(C4(C)C(CC3=O)CC(O)CC4)CC1)CCC2C(CCC(OC)=O)C", "physical_data": {"Molecular Weight": "404.58", "Molecular Formula": "C25H40O4", "Melting Point": "103-104 \u00b0C"}}