{"cas_no": "10538-55-3", "cn_name": "\u718a\u53bb\u6c27\u80c6\u9178\u7532\u916f", "en_name": ["Cholan-24-oic acid, 3,7-dihydroxy-, methyl ester, (3\u03b1,5\u03b2,7\u03b2)-", "Cholan-24-oic acid, 3,7-dihydroxy-, methyl ester, (3\u03b1,5\u03b2,7\u03b2)-", "5\u03b2-Cholan-24-oic acid, 3\u03b1,7\u03b2-dihydroxy-, methyl ester", "5\u03b2-Cholanic acid, 3\u03b1,7\u03b2-dihydroxy-, methyl ester", "Methyl 3\u03b1,7\u03b2-dihydroxy-5\u03b2-cholanoate", "Ursodeoxycholic acid methyl ester", "Methyl ursodeoxycholate"], "SMILES": "CC12C(C3C(C4(C)C(CC3O)CC(O)CC4)CC1)CCC2C(CCC(OC)=O)C", "physical_data": {"Molecular Weight": "406.60", "Molecular Formula": "C25H42O4", "Melting Point": "58.4-58.6 \u00b0C"}}