{"cas_no": "10537-47-0", "cn_name": "\u916a\u6c28\u9178\u78f7\u9178\u5316\u6291\u5236\u5242A9", "en_name": ["Tyrphostin 9", "Propanedinitrile, 2-[[3,5-bis(1,1-dimethylethyl)-4-hydroxyphenyl]methylene]-", "Malononitrile, (3,5-di-tert-butyl-4-hydroxybenzylidene)-", "Propanedinitrile, [[3,5-bis(1,1-dimethylethyl)-4-hydroxyphenyl]methylene]-", "2-[[3,5-Bis(1,1-dimethylethyl)-4-hydroxyphenyl]methylene]propanedinitrile", "3,5-di-tert-Butyl-4-hydroxybenzylidenemalononitrile", "2,6-Di-tert-butyl-4-(2,2-dicyanovinyl)phenol", "3,5-di-tert-Butyl-4-hydroxybenzylidenemalonitrile", "Malonoben", "SF 6847", "GCP 5126", "RG 50872", "AG 17", "Tyrphostin AG 17", "NSC 242557", "Tyrphostin 9", "Tyrphostin A 9", "2-(3,5-Di-tert-butyl-4-hydroxybenzylidene)malononitrile", "2-(3,5-Di-tert-butyl-4-hydroxy-benzylidene)-malononitrile"], "SMILES": "C(C)(C)(C)C1=C(O)C(C(C)(C)C)=CC(C=C(C#N)C#N)=C1", "physical_data": {"Molecular Weight": "282.38", "Molecular Formula": "C18H22N2O", "Melting Point": "141-143 \u00b0C"}}