{"cas_no": "10535-17-8", "cn_name": "1-(3,4-\u4e8c\u7532\u6c27\u57fa\u82ef\u57fa)-2-(2-\u7532\u6c27\u57fa\u82ef\u57fa)-\u4e19\u70f7-1,3-\u4e8c\u9187", "en_name": ["Adlerol", "1,3-Propanediol, 1-(3,4-dimethoxyphenyl)-2-(2-methoxyphenoxy)-", "1,3-Propanediol, 1-(3,4-dimethoxyphenyl)-2-(o-methoxyphenoxy)-", "1-(3,4-Dimethoxyphenyl)-2-(2-methoxyphenoxy)-1,3-propanediol", "Veratrylglycerol \u03b2-guaiacyl ether", "Veratrylglycerol \u03b2-(o-methoxyphenyl) ether", "3-(4,3-Dimethoxyphenyl)-2-glyceryl 2-methoxyphenyl ether", "Veratryglycerol \u03b2-guaiacyl ether", "Adlerol", "2-(2-Methoxyphenoxy)-1-(3,4-dimethoxyphenyl)propane-1,3-diol", "3-(3,4-Dimethoxyphenyl)-2-(2-methoxyphenoxy)propane-1,3-diol"], "SMILES": "C(C(OC1=C(OC)C=CC=C1)CO)(O)C2=CC(OC)=C(OC)C=C2", "physical_data": {"Molecular Weight": "334.36", "Molecular Formula": "C18H22O6", "Melting Point": "97.5-98.5 \u00b0C"}}