{"cas_no": "10531-78-9", "cn_name": "5-\u7532\u57fa\u82ef\u5e76\u5511", "en_name": ["5-Methylbenzoxazole", "Benzoxazole, 5-methyl-", "5-Methylbenzoxazole"], "SMILES": "CC=1C=C2C(=CC1)OC=N2", "physical_data": {"Molecular Weight": "133.15", "Molecular Formula": "C8H7NO", "Boiling Point": "110-111 \u00b0C @ Press: 10 Torr", "Melting Point": "42-44 \u00b0C"}}