{"cas_no": "1053656-51-1", "cn_name": "5-BOC-4,5,6,7-\u56db\u6c22-1,3-\u567b\u5511\u5e76[5,4-C]\u5421\u5576-2-\u7532\u9178\u4e59\u916f", "en_name": ["5-(1,1-Dimethylethyl) 2-ethyl 6,7-dihydrothiazolo[5,4-c]pyridine-2,5(4H)-dicarboxylate", "Thiazolo[5,4-c]pyridine-2,5(4H)-dicarboxylic acid, 6,7-dihydro-, 5-(1,1-dimethylethyl) 2-ethyl ester", "5-(1,1-Dimethylethyl) 2-ethyl 6,7-dihydrothiazolo[5,4-c]pyridine-2,5(4H)-dicarboxylate"], "SMILES": "C(OCC)(=O)C=1SC2=C(N1)CCN(C(OC(C)(C)C)=O)C2", "physical_data": {"Molecular Weight": "312.38", "Molecular Formula": "C14H20N2O4S", "Melting Point": "138-140 \u00b0C"}}