{"cas_no": "105310-75-6", "cn_name": "\u987a\u5f0f-2-[(1,3-\u4e8c\u6c22-1,3-\u4e8c\u6c27-2H-\u5f02\u5432\u54da-2-\u57fa)\u7532\u57fa-N,N-\u4e8c\u4e59\u57fa-1-\u82ef\u57fa\u73af\u4e19\u70f7\u7532\u9170\u80fa", "en_name": ["rel-(1R,2S)-2-[(1,3-Dihydro-1,3-dioxo-2H-isoindol-2-yl)methyl]-N,N-diethyl-1-phenylcyclopropanecarboxamide", "Cyclopropanecarboxamide, 2-[(1,3-dihydro-1,3-dioxo-2H-isoindol-2-yl)methyl]-N,N-diethyl-1-phenyl-, (1R,2S)-rel-", "Cyclopropanecarboxamide, 2-[(1,3-dihydro-1,3-dioxo-2H-isoindol-2-yl)methyl]-N,N-diethyl-1-phenyl-, cis-", "rel-(1R,2S)-2-[(1,3-Dihydro-1,3-dioxo-2H-isoindol-2-yl)methyl]-N,N-diethyl-1-phenylcyclopropanecarboxamide"], "SMILES": "C(N(CC)CC)(=O)C1(C(CN2C(=O)C=3C(C2=O)=CC=CC3)C1)C4=CC=CC=C4", "physical_data": {"Molecular Weight": "376.45", "Molecular Formula": "C23H24N2O3", "Melting Point": "130-132 \u00b0C"}}