{"cas_no": "1054-88-2", "cn_name": "\u4e09\u6c2e\u87ba\u7678\u82ef\u6076\u70f7", "en_name": ["Spiroxatrine", "1,3,8-Triazaspiro[4.5]decan-4-one, 8-[(2,3-dihydro-1,4-benzodioxin-2-yl)methyl]-1-phenyl-", "1,3,8-Triazaspiro[4.5]decan-4-one, 8-(1,4-benzodioxan-2-ylmethyl)-1-phenyl-", "1,4-Benzodioxin, 1,3,8-triazaspiro[4.5]decan-4-one deriv.", "8-[(2,3-Dihydro-1,4-benzodioxin-2-yl)methyl]-1-phenyl-1,3,8-triazaspiro[4.5]decan-4-one", "8-(1,4-Benzodioxan-2-ylmethyl)-1-phenyl-1,3,8-triazaspiro[4.5]decan-4-one", "Spiroxatrine", "R 5188"], "SMILES": "O=C1C2(N(CN1)C3=CC=CC=C3)CCN(CC4OC=5C(OC4)=CC=CC5)CC2", "physical_data": {"Molecular Weight": "379.45", "Molecular Formula": "C22H25N3O3", "Melting Point": "215.8-218.0 \u00b0C"}}