{"cas_no": "10545-99-0", "cn_name": "\u4e8c\u6c2f\u5316\u786b", "en_name": ["Sulfur dichloride", "Sulfur chloride (SCl2)", "Sulfur dichloride", "Monosulfur dichloride", "Sulfur chloride", "Dichlorosulfane", "Chlorine sulfide (Cl2S)", "Sulfur dichloride (SCl2)", "Dichlorosulfur"], "SMILES": "S(Cl)Cl", "physical_data": {"Molecular Weight": "102.97", "Molecular Formula": "Cl2S", "Boiling Point": "59-59.5 \u00b0C", "Melting Point": "-78 \u00b0C", "Density": "1.621 g/cm\u00b3 @ Temp: 15 \u00b0C"}}