{"cas_no": "10547-60-1", "cn_name": "(4-\u6c2f\u82ef\u57fa)(4-\u7532\u6c27\u82ef\u57fa)\u916e", "en_name": ["4-Chloro-4\u2032-methoxybenzophenone", "Methanone, (4-chlorophenyl)(4-methoxyphenyl)-", "Benzophenone, 4-chloro-4\u2032-methoxy-", "(4-Chlorophenyl)(4-methoxyphenyl)methanone", "4-Chloro-4\u2032-methoxybenzophenone", "p-Methoxyphenyl p-chlorophenyl ketone", "p-Chloro-p\u2032-methoxybenzophenone", "4-Chlorophenyl 4-methoxyphenyl ketone", "NSC 74662", "4-Methoxy-4\u2032-chlorobenzophenone"], "SMILES": "C(=O)(C1=CC=C(OC)C=C1)C2=CC=C(Cl)C=C2", "physical_data": {"Molecular Weight": "246.69", "Molecular Formula": "C14H11ClO2", "Melting Point": "124-125 \u00b0C"}}