{"cas_no": "10543-60-9", "cn_name": "\u56db\u4e59\u9170\u7518\u8132", "en_name": ["Tetraacetylglycoluril", "Imidazo[4,5-d]imidazole-2,5(1H,3H)-dione, 1,3,4,6-tetraacetyltetrahydro-", "Glycoluril, 1,3,4,6-tetraacetyl-", "1,3,4,6-Tetraacetyltetrahydroimidazo[4,5-d]imidazole-2,5(1H,3H)-dione", "1,3,4,6-Tetraacetylglycoluril", "Tetraacetylglycoluril", "Tetraacetylglyclouril", "N,N\u2032,N\u2032\u2032,N\u2032\u2032\u2032Tetraacetylglycoluril", "1,3,4,6-Tetraacetyl-tetrahydro-imidazo[4,5-d]imidazole-2,5-dione", "1,3,4,6-Tetraacetyl-3a,6a-dihydroimidazo[4,5-d]imidazole-2,5-dione"], "SMILES": "C(C)(=O)N1C2C(N(C(C)=O)C(=O)N2C(C)=O)N(C(C)=O)C1=O", "physical_data": {"Molecular Weight": "310.26", "Molecular Formula": "C12H14N4O6", "Melting Point": "234-238 \u00b0C (decomp)"}}