{"cas_no": "10543-57-4", "cn_name": "\u56db\u4e59\u9170\u4e59\u4e8c\u80fa", "en_name": ["Tetraacetylethylenediamine", "Acetamide, N,N\u2032-1,2-ethanediylbis[N-acetyl-", "Diacetamide, N,N\u2032-ethylenebis-", "N,N\u2032-1,2-Ethanediylbis[N-acetylacetamide]", "N,N,N\u2032,N\u2032-Tetraacetylethylenediamine", "Tetraacetylethylenediamine", "N,N\u2032-Ethylenebis[diacetamide]", "Mykon ATC", "Nikon A", "T 0946", "TAED 4303", "TAED", "Peractive AN", "N,N\u2032-Ethylenebis[N-acetylacetamide]", "TAED 4049", "Peractive TAED", "Peractive P", "Warwick B 610", "Peractive AP", "Peractive AC", "Warwick B 637", "Mykon B 610", "Mikon ATC", "Peractive AC Blue", "Peractive AC White"], "SMILES": "N(CCN(C(C)=O)C(C)=O)(C(C)=O)C(C)=O", "physical_data": {"Molecular Weight": "228.24", "Molecular Formula": "C10H16N2O4", "Melting Point": "174-176 \u00b0C"}}