{"cas_no": "10540-29-1", "cn_name": "\u4ed6\u83ab\u6614\u82ac", "en_name": ["Tamoxifen", "Ethanamine, 2-[4-[(1Z)-1,2-diphenyl-1-buten-1-yl]phenoxy]-N,N-dimethyl-", "Ethylamine, 2-[p-(1,2-diphenyl-1-butenyl)phenoxy]-N,N-dimethyl-, (Z)-", "Ethanamine, 2-[4-(1,2-diphenyl-1-butenyl)phenoxy]-N,N-dimethyl-, (Z)-", "Ethanamine, 2-[4-[(1Z)-1,2-diphenyl-1-butenyl]phenoxy]-N,N-dimethyl-", "2-[4-[(1Z)-1,2-Diphenyl-1-buten-1-yl]phenoxy]-N,N-dimethylethanamine", "Tamoxifen", "trans-Tamoxifen", "ICI 47699", "Z-Tamoxifen", "Mammaton", "(Z)-2-[4-(1,2-Diphenyl-1-butenyl)phenoxy]-N,N-dimethylethanamine", "Novaldex", "MeSH ID: D013629"], "SMILES": "C(=C(CC)C1=CC=CC=C1)(C2=CC=C(OCCN(C)C)C=C2)C3=CC=CC=C3", "physical_data": {"Molecular Weight": "371.51", "Molecular Formula": "C26H29NO", "Melting Point": "96-98 \u00b0C"}}