{"cas_no": "10544-63-5", "cn_name": "\u5df4\u8c46\u9178\u4e59\u916f", "en_name": ["Ethyl crotonate", "2-Butenoic acid, ethyl ester", "Crotonic acid, ethyl ester", "Ethyl crotonate", "Ethyl 2-butenoate", "NSC 4778"], "SMILES": "C(C=CC)(OCC)=O", "physical_data": {"Molecular Weight": "114.14", "Molecular Formula": "C6H10O2", "Boiling Point": "136.5 \u00b0C", "Density": "0.91752 g/cm\u00b3 @ Temp: 20 \u00b0C"}}