{"cas_no": "105494-69-7", "cn_name": "N -\u7532\u57fa- 2 -(\u4e09\u6b63\u4e01\u57fa\u9521)\u54aa\u5511", "en_name": ["1-Methyl-2-(tributylstannyl)-1H-imidazole", "1H-Imidazole, 1-methyl-2-(tributylstannyl)-", "1-Methyl-2-(tributylstannyl)-1H-imidazole", "1-Methyl-2-(tributylstannyl)imidazole", "2-Tributylstannyl-N-methylimidazole", "1-Methyl-2-(tributylstannanyl)-1H-imidazole", "2-(Tributylstannanyl)-1-methyl-1H-imidazole"], "SMILES": "[Sn](CCCC)(CCCC)(CCCC)C=1N(C)C=CN1", "physical_data": {"Molecular Weight": "371.15", "Molecular Formula": "C16H32N2Sn", "Boiling Point": "145-146 \u00b0C @ Press: 0.05 Torr"}}