{"cas_no": "105431-72-9", "cn_name": "\u5229\u8bfa\u5421\u5576", "en_name": ["Linopirdine", "2H-Indol-2-one, 1,3-dihydro-1-phenyl-3,3-bis(4-pyridinylmethyl)-", "1,3-Dihydro-1-phenyl-3,3-bis(4-pyridinylmethyl)-2H-indol-2-one", "DuP 996", "Linopirdine", "1-Phenyl-3,3-bis(pyridin-4-ylmethyl)indol-2-one"], "SMILES": "C(C1(CC=2C=CN=CC2)C=3C(N(C1=O)C4=CC=CC=C4)=CC=CC3)C=5C=CN=CC5", "physical_data": {"Molecular Weight": "391.46", "Molecular Formula": "C26H21N3O", "Melting Point": "186-186.5 \u00b0C"}}