{"cas_no": "10540-39-3", "cn_name": "4-\u6c1f-\u8054\u82ef-3-\u7532\u9178", "en_name": ["4\u2032-Fluoro[1,1\u2032-biphenyl]-3-carboxylic acid", "[1,1\u2032-Biphenyl]-3-carboxylic acid, 4\u2032-fluoro-", "3-Biphenylcarboxylic acid, 4\u2032-fluoro-", "4\u2032-Fluoro[1,1\u2032-biphenyl]-3-carboxylic acid", "3-(4-Fluorophenyl)benzoic acid", "4\u2032-Fluorobiphenyl-3-carboxylic acid"], "SMILES": "C(O)(=O)C=1C=C(C=CC1)C2=CC=C(F)C=C2", "physical_data": {"Molecular Weight": "216.21", "Molecular Formula": "C13H9FO2", "Melting Point": "298-299 \u00b0C"}}