{"cas_no": "10541-56-7", "cn_name": "\u5bf9\u8f9b\u57fa\u82ef\u4e59\u916e", "en_name": ["p-Octylacetophenone", "Ethanone, 1-(4-octylphenyl)-", "Acetophenone, 4\u2032-octyl-", "1-(4-Octylphenyl)ethanone", "p-n-Octylacetophenone", "4\u2032-Octylacetophenone", "p-Octylacetophenone", "NSC 168987"], "SMILES": "C(CCCCCCC)C1=CC=C(C(C)=O)C=C1", "physical_data": {"Molecular Weight": "232.36", "Molecular Formula": "C16H24O", "Boiling Point": "165-168 \u00b0C @ Press: 4 Torr", "Melting Point": "18 \u00b0C"}}