{"cas_no": "10541-83-0", "cn_name": "4-\u7532\u6c28\u57fa\u82ef\u7532\u9178", "en_name": ["4-(Methylamino)benzoic acid", "Benzoic acid, 4-(methylamino)-", "Benzoic acid, p-(methylamino)-", "4-(Methylamino)benzoic acid", "p-(Methylamino)benzoic acid", "N-Methyl-4-aminobenzoic acid", "4-(N-Methylamino)benzoic acid", "p-Carboxy-N-methylaniline", "NSC 102506"], "SMILES": "C(O)(=O)C1=CC=C(NC)C=C1", "physical_data": {"Molecular Weight": "151.16", "Molecular Formula": "C8H9NO2", "Melting Point": "160 \u00b0C"}}