{"cas_no": "10543-12-1", "cn_name": "4-\u4e59\u9170\u6c27\u57fa-3-\u7532\u6c27\u57fa\u82ef\u7532\u9178", "en_name": ["4-(Acetyloxy)-3-methoxybenzoic acid", "Benzoic acid, 4-(acetyloxy)-3-methoxy-", "Vanillic acid, acetate", "4-(Acetyloxy)-3-methoxybenzoic acid", "3-Methoxy-4-acetoxybenzoic acid", "4-Acetoxy-3-methoxybenzoic acid", "4-Carboxy-2-methoxyphenol acetate", "O-Acetylvanillic acid", "NSC 408845", "4-Acetoxyvanillic acid"], "SMILES": "O(C(C)=O)C1=C(OC)C=C(C(O)=O)C=C1", "physical_data": {"Molecular Weight": "210.18", "Molecular Formula": "C10H10O5", "Melting Point": "149 \u00b0C"}}