{"cas_no": "10546-67-5", "cn_name": "2,6-\u4e8c\u6eb4-4-\u53d4\u4e01\u57fa\u82ef\u80fa", "en_name": ["2,6-Dibromo-4-(1,1-dimethylethyl)benzenamine", "Benzenamine, 2,6-dibromo-4-(1,1-dimethylethyl)-", "Aniline, 2,6-dibromo-4-tert-butyl-", "2,6-Dibromo-4-(1,1-dimethylethyl)benzenamine", "2,6-Dibromo-4-tert-butylaniline", "2,6-Dibromo-4-t-butylaniline"], "SMILES": "C(C)(C)(C)C1=CC(Br)=C(N)C(Br)=C1", "physical_data": {"Molecular Weight": "307.02", "Molecular Formula": "C10H13Br2N", "Boiling Point": "136-140 \u00b0C @ Press: 2 Torr"}}