{"cas_no": "1055-23-8", "cn_name": "9,9'-\u8054\u84bd", "en_name": ["9,9\u2032-Bianthryl", "9,9\u2032-Bianthracene", "9,9\u2032-Bianthryl", "9,9\u2032-Dianthracene", "9-(9-Anthryl)anthracene", "9,9\u2032-Bianthracenyl", "9,9\u2032-Bisanthryl", "9,9\u2032-Dianthryl", "NSC 179353"], "SMILES": "C=1(C2=C(C=C3C1C=CC=C3)C=CC=C2)C=4C5=C(C=C6C4C=CC=C6)C=CC=C5", "physical_data": {"Molecular Weight": "354.44", "Molecular Formula": "C28H18", "Melting Point": "&gt;360 \u00b0C"}}