{"cas_no": "10552-74-6", "cn_name": "\u915e\u83cc\u916f", "en_name": ["Nitrothal-isopropyl", "1,3-Benzenedicarboxylic acid, 5-nitro-, 1,3-bis(1-methylethyl) ester", "Isophthalic acid, 5-nitro-, diisopropyl ester", "1,3-Benzenedicarboxylic acid, 5-nitro-, bis(1-methylethyl) ester", "Nitrothal-isopropyl", "Pallitop"], "SMILES": "C(OC(C)C)(=O)C1=CC(C(OC(C)C)=O)=CC(N(=O)=O)=C1", "physical_data": {"Molecular Weight": "295.29", "Molecular Formula": "C14H17NO6", "Melting Point": "65 \u00b0C"}}