{"cas_no": "105512-06-9", "cn_name": "\u7094\u8349\u916f", "en_name": ["Clodinafop-propargyl", "Propanoic acid, 2-[4-[(5-chloro-3-fluoro-2-pyridinyl)oxy]phenoxy]-, 2-propyn-1-yl ester, (2R)-", "Propanoic acid, 2-[4-[(5-chloro-3-fluoro-2-pyridinyl)oxy]phenoxy]-, 2-propynyl ester, (R)-", "Propanoic acid, 2-[4-[(5-chloro-3-fluoro-2-pyridinyl)oxy]phenoxy]-, 2-propynyl ester, (2R)-", "CGA 184927", "Clodinafop-propargyl", "Topik", "(R)-2-[4-[(5-Chloro-3-fluoro-2-pyridinyl)oxy]phenoxy]propionic acid 2-propynyl ester", "Prop-2-ynyl (R)-2-[4-(5-chloro-3-fluoropyridin-2-yloxy)phenoxy]propanoate", "(R)-(+)-2-[4-(5-Chloro-3-fluoropyridin-2-yloxy)phenoxy]propionic acid propargyl ester"], "SMILES": "O(C1=C(F)C=C(Cl)C=N1)C2=CC=C(OC(C(OCC#C)=O)C)C=C2", "physical_data": {"Molecular Weight": "349.74", "Molecular Formula": "C17H13ClFNO4", "Melting Point": "59.5 \u00b0C", "Density": "1.37 g/cm\u00b3 @ Temp: 22 \u00b0C"}}