{"cas_no": "105560-93-8", "cn_name": "\u5bf9\u7532\u6c27\u82ef\u57fa\u7f29\u6c34\u7518\u6cb9\u9178\u7532\u916f", "en_name": ["Methyl (2R,3S)-3-(4-methoxyphenyl)-2-oxiranecarboxylate", "2-Oxiranecarboxylic acid, 3-(4-methoxyphenyl)-, methyl ester, (2R,3S)-", "Oxiranecarboxylic acid, 3-(4-methoxyphenyl)-, methyl ester, (2R-trans)-", "Oxiranecarboxylic acid, 3-(4-methoxyphenyl)-, methyl ester, (2R,3S)-", "Methyl (2R,3S)-3-(4-methoxyphenyl)-2-oxiranecarboxylate", "(2R,3S)-3-(4-Methoxyphenyl)glycidic acid methyl ester", "Methyl (2R,3S)-3-(4-methoxyphenyl)glycidate"], "SMILES": "C(OC)(=O)C1C(O1)C2=CC=C(OC)C=C2", "physical_data": {"Molecular Weight": "208.21", "Molecular Formula": "C11H12O4", "Melting Point": "87-88 \u00b0C"}}