{"cas_no": "10557-21-8", "cn_name": "1-(4-\u6c2f\u82ef\u57fa)-1,2-\u4e19\u4e8c\u916e", "en_name": ["1-(4-Chlorophenyl)-1,2-propanedione", "1,2-Propanedione, 1-(4-chlorophenyl)-", "1,2-Propanedione, 1-(p-chlorophenyl)-", "1-(4-Chlorophenyl)-1,2-propanedione", "1-(p-Chlorophenyl)-1,2-propanedione", "1-(4-Chlorophenyl)-1,2-propandione"], "SMILES": "C(C(C)=O)(=O)C1=CC=C(Cl)C=C1", "physical_data": {"Molecular Weight": "182.60", "Molecular Formula": "C9H7ClO2", "Boiling Point": "54-59 \u00b0C @ Press: 0.03 Torr", "Melting Point": "22-23 \u00b0C", "Density": "1.2700 g/cm\u00b3 @ Temp: 20 \u00b0C"}}