{"cas_no": "10555-76-7", "cn_name": "\u504f\u787c\u9178\u94a0\u56db\u6c34\u5408\u7269", "en_name": ["Sodium metaborate tetrahydrate", "Boric acid (HBO2), sodium salt, tetrahydrate", "Sodium metaborate tetrahydrate"], "SMILES": "B(O)=O.[Na].O", "physical_data": {"Molecular Weight": "", "Molecular Formula": "BHO2.4H2O.Na", "Melting Point": "55 \u00b0C", "Density": "1.743 g/cm\u00b3 @ Temp: 25 \u00b0C"}}