{"cas_no": "10557-71-8", "cn_name": "1-\u6c2f-4-(\u4e09\u7532\u57fa\u7532\u7845\u70f7\u57fa)\u82ef", "en_name": ["1-Chloro-4-(trimethylsilyl)benzene", "Benzene, 1-chloro-4-(trimethylsilyl)-", "Silane, (p-chlorophenyl)trimethyl-", "Silane, (4-chlorophenyl)trimethyl-", "1-Chloro-4-(trimethylsilyl)benzene", "(p-Chlorophenyl)trimethylsilane", "p-(Trimethylsilyl)chlorobenzene", "Trimethyl-p-chlorophenylsilane", "(4-Chlorophenyl)trimethylsilane"], "SMILES": "[Si](C)(C)(C)C1=CC=C(Cl)C=C1", "physical_data": {"Molecular Weight": "184.74", "Molecular Formula": "C9H13ClSi", "Boiling Point": "206-207 \u00b0C", "Density": "1 g/cm\u00b3"}}