{"cas_no": "105601-04-5", "cn_name": "3-[1-(\u4e8c\u7532\u57fa\u6c28\u57fa)\u4e59\u57fa]\u82ef\u915a", "en_name": ["3-[1-(Dimethylamino)ethyl]phenol", "Phenol, 3-[1-(dimethylamino)ethyl]-", "3-[1-(Dimethylamino)ethyl]phenol", "ZNS 114-666"], "SMILES": "C(N(C)C)(C)C1=CC(O)=CC=C1", "physical_data": {"Molecular Weight": "165.23", "Molecular Formula": "C10H15NO", "Melting Point": "87-88 \u00b0C"}}