{"cas_no": "1056634-68-4", "cn_name": "\u83ab\u6d1b\u66ff\u5c3c", "en_name": ["Momelotinib", "Benzamide, N-(cyanomethyl)-4-[2-[[4-(4-morpholinyl)phenyl]amino]-4-pyrimidinyl]-", "N-(Cyanomethyl)-4-[2-[[4-(4-morpholinyl)phenyl]amino]-4-pyrimidinyl]benzamide", "CYT 387", "Momelotinib", "CYT 11387", "CYT-0387", "GS 0387", "N-(Cyanomethyl)-4-[2-(4-morpholinoanilino)pyrimidin-4-yl]benzamide", "CYT 387 mesylate"], "SMILES": "N(C=1N=C(C2=CC=C(C(NCC#N)=O)C=C2)C=CN1)C3=CC=C(C=C3)N4CCOCC4", "physical_data": {"Molecular Weight": "414.46", "Molecular Formula": "C23H22N6O2", "Melting Point": "232-234 \u00b0C"}}