{"cas_no": "10563-23-2", "cn_name": "N-\u4e59\u57fa-1,3-\u4e19\u4e8c\u80fa", "en_name": ["N-Ethyl-1,3-propanediamine", "1,3-Propanediamine, N1-ethyl-", "1,3-Propanediamine, N-ethyl-", "N1-Ethyl-1,3-propanediamine", "N-Ethyl-1,3-propanediamine", "1-Amino-3-(ethylamino)propane", "3-(Ethylamino)propylamine", "N-Ethyltrimethylenediamine", "NSC 166312", "N-(3-Aminopropyl)ethylamine", "N-Ethylpropylenediamine", "3-Amino-1-ethylaminopropane", "N-Ethyl-1,3-diaminopropane"], "SMILES": "C(CCN)NCC", "physical_data": {"Molecular Weight": "102.18", "Molecular Formula": "C5H14N2", "Boiling Point": "156 \u00b0C @ Press: 735 Torr"}}