{"cas_no": "105650-23-5", "cn_name": "2-\u6c28\u57fa-1-\u7532\u57fa-6-\u82ef\u57fa\u54aa\u5511[4,5-b]\u5421\u5576", "en_name": ["2-Amino-1-methyl-6-phenylimidazo[4,5-b]pyridine", "1H-Imidazo[4,5-b]pyridin-2-amine, 1-methyl-6-phenyl-", "1-Methyl-6-phenyl-1H-imidazo[4,5-b]pyridin-2-amine", "2-Amino-1-methyl-6-phenylimidazo[4,5-b]pyridine", "PhIP", "2-Amino-1-methyl-6-phenyl-1H-imidazo[4,5-b]pyridine", "1-Methyl-6-phenylimidazo[4,5-b]pyridin-2-amine"], "SMILES": "CN1C=2C(N=C1N)=NC=C(C2)C3=CC=CC=C3", "physical_data": {"Molecular Weight": "224.26", "Molecular Formula": "C13H12N4", "Melting Point": "322-324 \u00b0C"}}