{"cas_no": "10560-13-1", "cn_name": "5-\u785d\u57fa\u95f4\u82ef\u4e8c\u7532\u9178\u4e8c\u4e59\u916f", "en_name": ["1,3-Diethyl 5-nitro-1,3-benzenedicarboxylate", "1,3-Benzenedicarboxylic acid, 5-nitro-, 1,3-diethyl ester", "Isophthalic acid, 5-nitro-, diethyl ester", "1,3-Benzenedicarboxylic acid, 5-nitro-, diethyl ester", "1,3-Diethyl 5-nitro-1,3-benzenedicarboxylate"], "SMILES": "C(OCC)(=O)C1=CC(C(OCC)=O)=CC(N(=O)=O)=C1", "physical_data": {"Molecular Weight": "267.23", "Molecular Formula": "C12H13NO6", "Melting Point": "85-86 \u00b0C"}}