{"cas_no": "10563-70-9", "cn_name": "\u76d0\u9178\u7f8e\u5229\u66f2\u8f9b", "en_name": ["Melitracen hydrochloride", "1-Propanamine, 3-(10,10-dimethyl-9(10H)-anthracenylidene)-N,N-dimethyl-, hydrochloride (1:1)", "\u03949(10H),\u03b3-Anthracenepropylamine, N,N,10,10-tetramethyl-, hydrochloride", "1-Propanamine, 3-(10,10-dimethyl-9(10H)-anthracenylidene)-N,N-dimethyl-, hydrochloride", "9-(3-Dimethylaminopropylidene)-10,10-dimethyl-9,10-dihydroanthracene hydrochloride", "Melitracen hydrochloride", "U 24973A", "Melixeran", "Dixeran", "Melitrazin hydrochloride"], "SMILES": "C(CCN(C)C)=C1C=2C(C(C)(C)C=3C1=CC=CC3)=CC=CC2.Cl", "physical_data": {"Molecular Weight": "", "Molecular Formula": "C21H25N.ClH", "Melting Point": "245-248 \u00b0C"}}