{"cas_no": "105675-85-2", "cn_name": "3-\u6c28\u57fa-4-\u6eb4-2-\u7532\u57fa\u5421\u5511", "en_name": ["4-Bromo-1-methyl-1H-pyrazol-5-amine", "1H-Pyrazol-5-amine, 4-bromo-1-methyl-", "4-Bromo-1-methyl-1H-pyrazol-5-amine", "3-Amino-4-bromo-2-methylpyrazole", "5-Amino-4-bromo-1-methylpyrazole", "4-Bromo-2-methyl-2H-pyrazol-3-ylamine"], "SMILES": "NC1=C(Br)C=NN1C", "physical_data": {"Molecular Weight": "176.01", "Molecular Formula": "C4H6BrN3", "Melting Point": "97 \u00b0C"}}