{"cas_no": "10563-29-8", "cn_name": "N\u2019-(3-\u6c28\u4e19\u57fa)-N,N-\u4e8c\u7532\u57fa-1,3-\u4e19\u4e8c\u80fa", "en_name": ["Dimethyldipropylenetriamine", "1,3-Propanediamine, N3-(3-aminopropyl)-N1,N1-dimethyl-", "Dipropylamine, 3-amino-3\u2032-(dimethylamino)-", "1,3-Propanediamine, N\u2032-(3-aminopropyl)-N,N-dimethyl-", "N3-(3-Aminopropyl)-N1,N1-dimethyl-1,3-propanediamine", "N,N-Dimethyl-N\u2032-(\u03b3-aminopropyl)trimethylenediamine", "N-(3\u2032-Dimethylaminopropyl)-1,3-diaminopropane", "1-Amino-7-(dimethylamino)-4-azaheptane", "N,N-Dimethyldipropylenetriamine", "Araldite 2011B", "Dimethyldipropylenetriamine", "DMAPAPA", "3-[[3-(Dimethylamino)propyl]amino]propylamine", "(3-Aminopropyl)[3-(dimethylamino)propyl]amine", "[3-[(3-Aminopropyl)amino]propyl]dimethylamine"], "SMILES": "C(NCCCN)CCN(C)C", "physical_data": {"Molecular Weight": "159.27", "Molecular Formula": "C8H21N3", "Boiling Point": "67 \u00b0C @ Press: 0.1 Torr"}}