{"cas_no": "105628-07-7", "cn_name": "\u76d0\u9178\u6cd5\u8212\u5730\u5c14", "en_name": ["Fasudil hydrochloride", "Isoquinoline, 5-[(hexahydro-1H-1,4-diazepin-1-yl)sulfonyl]-, hydrochloride (1:1)", "1H-1,4-Diazepine, hexahydro-1-(5-isoquinolinylsulfonyl)-, monohydrochloride", "1-(5-Isoquinolinesulfonyl)homopiperazine hydrochloride", "Eril", "Fasudil hydrochloride"], "SMILES": "S(=O)(=O)(C=1C2=C(C=CC1)C=NC=C2)N3CCCNCC3.Cl", "physical_data": {"Molecular Weight": "", "Molecular Formula": "C14H17N3O2S.ClH", "Melting Point": "~220 \u00b0C (approx)"}}