{"cas_no": "105728-90-3", "cn_name": "2-\u6c1f-5-\u7532\u6c27\u57fa\u82ef\u7532\u919b", "en_name": ["2-Fluoro-5-methoxybenzaldehyde", "Benzaldehyde, 2-fluoro-5-methoxy-", "2-Fluoro-5-methoxybenzaldehyde"], "SMILES": "C(=O)C1=CC(OC)=CC=C1F", "physical_data": {"Molecular Weight": "154.14", "Molecular Formula": "C8H7FO2", "Melting Point": "48-50 \u00b0C"}}