{"cas_no": "10570-67-9", "cn_name": "4-\u7898\u57fa-2,6-\u4e8c\u7532\u915a", "en_name": ["4-Iodo-2,6-dimethylphenol", "Phenol, 4-iodo-2,6-dimethyl-", "2,6-Xylenol, 4-iodo-", "4-Iodo-2,6-dimethylphenol", "2,6-Dimethyl-4-iodophenol", "4-Iodo-2,6-xylenol", "4-Iodo-2,6-methylphenol"], "SMILES": "OC1=C(C)C=C(I)C=C1C", "physical_data": {"Molecular Weight": "248.06", "Molecular Formula": "C8H9IO", "Melting Point": "99.5-100.5 \u00b0C"}}