{"cas_no": "105779-78-0", "cn_name": "\u5627\u87a8\u919a", "en_name": ["Pyrimidifen", "4-Pyrimidinamine, 5-chloro-N-[2-[4-(2-ethoxyethyl)-2,3-dimethylphenoxy]ethyl]-6-ethyl-", "5-Chloro-N-[2-[4-(2-ethoxyethyl)-2,3-dimethylphenoxy]ethyl]-6-ethyl-4-pyrimidinamine", "Pyrimidifen", "Miteclean"], "SMILES": "O(CCNC=1C(Cl)=C(CC)N=CN1)C2=C(C)C(C)=C(CCOCC)C=C2", "physical_data": {"Molecular Weight": "377.91", "Molecular Formula": "C20H28ClN3O2", "Melting Point": "70 \u00b0C"}}