{"cas_no": "10575-25-4", "cn_name": "4-\u4e8c\u4e59\u6c28\u57fa-2-\u4e01\u7094-1-\u9187", "en_name": ["4-(Diethylamino)-2-butyn-1-ol", "2-Butyn-1-ol, 4-(diethylamino)-", "4-(Diethylamino)-2-butyn-1-ol", "1-(Diethylamino)-2-butyn-4-ol", "1-(N,N-Diethylamino)-4-hydroxy-2-butyne"], "SMILES": "N(CC#CCO)(CC)CC", "physical_data": {"Molecular Weight": "141.21", "Molecular Formula": "C8H15NO", "Boiling Point": "117 \u00b0C @ Press: 10 Torr", "Melting Point": "90 \u00b0C", "Density": "0.940 g/cm\u00b3 @ Temp: 25 \u00b0C"}}