{"cas_no": "105748-59-2", "cn_name": "\u82b8\u82d4\u5b81", "en_name": ["Brassinin", "Carbamodithioic acid, N-(1H-indol-3-ylmethyl)-, methyl ester", "Carbamodithioic acid, (1H-indol-3-ylmethyl)-, methyl ester", "Brassinine", "Brassinin", "SML 1635"], "SMILES": "C(NC(SC)=S)C=1C=2C(NC1)=CC=CC2", "physical_data": {"Molecular Weight": "236.36", "Molecular Formula": "C11H12N2S2", "Melting Point": "133-135 \u00b0C"}}