{"cas_no": "10574-69-3", "cn_name": "3-\u82c4\u57fa\u82e5\u4e39\u5b81", "en_name": ["3-Benzylrhodanine", "4-Thiazolidinone, 3-(phenylmethyl)-2-thioxo-", "Rhodanine, 3-benzyl-", "3-(Phenylmethyl)-2-thioxo-4-thiazolidinone", "N-Benzylrhodanine", "3-Benzylrhodanine", "3-Benzyl-2-thioxo-4-thiazolidone", "NSC 142477", "3-Benzyl-2-thioxothiazolidin-4-one", "3-Benzyl-2-sulfanylidene-1,3-thiazolidin-4-one"], "SMILES": "C(N1C(=O)CSC1=S)C2=CC=CC=C2", "physical_data": {"Molecular Weight": "223.31", "Molecular Formula": "C10H9NOS2", "Melting Point": "83 \u00b0C"}}