{"cas_no": "1057-07-4", "cn_name": "17-\u5b89\u606f\u9999\u9178\u96c4\u753e\u9187\u916e", "en_name": ["Dihydrotestosterone benzoate", "Androstan-3-one, 17-(benzoyloxy)-, (5\u03b1,17\u03b2)-", "5\u03b1-Androstan-3-one, 17\u03b2-hydroxy-, benzoate", "(5\u03b1,17\u03b2)-17-(Benzoyloxy)androstan-3-one", "Dihydrotestosterone benzoate", "Androstanolone benzoate", "5\u03b1-Dihydrotestosterone benzoate", "Ermalone", "Hermalone", "Sarcosan", "NSC 69549"], "SMILES": "CC12C3C(C4C(C)(CC3)C(OC(=O)C5=CC=CC=C5)CC4)CCC1CC(=O)CC2", "physical_data": {"Molecular Weight": "394.55", "Molecular Formula": "C26H34O3", "Melting Point": "155 \u00b0C"}}