{"cas_no": "10576-12-2", "cn_name": "\u4e59\u9170\u7f9f\u809f\u9178\u4e59\u916f", "en_name": ["Ethyl N-hydroxyethanimidate", "Ethanimidic acid, N-hydroxy-, ethyl ester", "Acetohydroximic acid, ethyl ester", "Ethyl acetate, oxime", "Ethyl N-hydroxyethanimidate", "Ethyl acetohydroximate", "Ethyl acetohydroxamate", "Ethyl N-hydroxyacetimidate", "NSC 255004", "N-Hydroxyacetimidic acid ethyl ester", "Ethyl N-hydroxylacetimidate"], "SMILES": "C(OCC)(=NO)C", "physical_data": {"Molecular Weight": "103.12", "Molecular Formula": "C4H9NO2", "Boiling Point": "59-60 \u00b0C @ Press: 12 Torr", "Melting Point": "25-26 \u00b0C"}}