{"cas_no": "105827-91-6", "cn_name": "2-\u6c2f-5-\u6c2f\u7532\u57fa\u567b\u5511", "en_name": ["2-Chloro-5-(chloromethyl)thiazole", "Thiazole, 2-chloro-5-(chloromethyl)-", "2-Chloro-5-(chloromethyl)thiazole", "2-Chloro-5-thiazolylmethyl chloride", "2-Chloro-5-chloromethyl-1,3-thiazole", "5-Chloromethyl-2-chloro-1,3-thiazole"], "SMILES": "C(Cl)C=1SC(Cl)=NC1", "physical_data": {"Molecular Weight": "168.04", "Molecular Formula": "C4H3Cl2NS", "Melting Point": "31 \u00b0C"}}