{"cas_no": "105816-04-4", "cn_name": "\u90a3\u683c\u5217\u5948", "en_name": ["Nateglinide", "D-Phenylalanine, N-[[trans-4-(1-methylethyl)cyclohexyl]carbonyl]-", "D-Phenylalanine, N-[[4-(1-methylethyl)cyclohexyl]carbonyl]-, trans-", "N-[[trans-4-(1-Methylethyl)cyclohexyl]carbonyl]-D-phenylalanine", "A 4166", "AY 4166", "SDZ-DJN 608", "(-)-N-[(trans-4-Isopropylcyclohexyl)carbonyl]-D-phenylalanine", "Nateglinide", "Starlix", "Fastic", "Starsis", "DJN 608", "Senaglinide", "D-Nateglinide", "Starlix DS", "Glinate", "Natelide", "Glunate", "Pastic", "Trazec"], "SMILES": "C(NC(CC1=CC=CC=C1)C(O)=O)(=O)C2CCC(C(C)C)CC2", "physical_data": {"Molecular Weight": "317.42", "Molecular Formula": "C19H27NO3", "Melting Point": "140 \u00b0C"}}