{"cas_no": "10589-94-3", "cn_name": "\u6b21\u535f\u5549\u4e8c\u7532\u916f", "en_name": ["2,18-Dimethyl 3,7,12,17-tetramethyl-21H,23H-porphine-2,18-dipropanoate", "21H,23H-Porphine-2,18-dipropanoic acid, 3,7,12,17-tetramethyl-, 2,18-dimethyl ester", "2,18-Porphinedipropionic acid, 3,7,12,17-tetramethyl-, dimethyl ester", "Deuteroporphyrin IX dimethyl ester", "21H,23H-Porphine-2,18-dipropanoic acid, 3,7,12,17-tetramethyl-, dimethyl ester", "2,18-Dimethyl 3,7,12,17-tetramethyl-21H,23H-porphine-2,18-dipropanoate", "Dimethyl 3,7,12,17-tetramethyl-21H,23H-porphine-2,18-dipropionate", "NSC 17451", "Deuteroporphyrin dimethyl ester"], "SMILES": "C(CC(OC)=O)C1=C2C=C3C(CCC(OC)=O)=C(C)C(=N3)C=C4NC(=CC5=NC(=CC(N2)=C1C)C(C)=C5)C(C)=C4", "physical_data": {"Molecular Weight": "538.64", "Molecular Formula": "C32H34N4O4", "Melting Point": "224-225 \u00b0C"}}