{"cas_no": "105826-92-4", "cn_name": "\u76d0\u9178\u6258\u70f7\u53f8\u743c", "en_name": ["Tropisetron hydrochloride", "1H-Indole-3-carboxylic acid, (3-endo)-8-methyl-8-azabicyclo[3.2.1]oct-3-yl ester, hydrochloride (1:1)", "1H-Indole-3-carboxylic acid, 8-methyl-8-azabicyclo[3.2.1]oct-3-yl ester, monohydrochloride, endo-", "1H-Indole-3-carboxylic acid, (3-endo)-8-methyl-8-azabicyclo[3.2.1]oct-3-yl ester, monohydrochloride", "SDZ-ICS 930", "Novaban", "Tropisetron hydrochloride"], "SMILES": "C(OC1CC2N(C)C(C1)CC2)(=O)C=3C=4C(NC3)=CC=CC4.Cl", "physical_data": {"Molecular Weight": "", "Molecular Formula": "C17H20N2O2.ClH", "Melting Point": "283-285 \u00b0C"}}