{"cas_no": "105802-46-8", "cn_name": "4-(4-\u4e8c\u7532\u6c28\u82ef\u4e59\u70ef\u57fa)-1-\u7532\u57fa\u7898\u5316\u5421\u5576", "en_name": ["4-[4-(Diethylamino)styryl]-N-methylpyridinium iodide", "Pyridinium, 4-[2-[4-(diethylamino)phenyl]ethenyl]-1-methyl-, iodide (1:1)", "Pyridinium, 4-[2-[4-(diethylamino)phenyl]ethenyl]-1-methyl-, iodide", "4-[4-(Diethylamino)styryl]-N-methylpyridinium iodide", "D289", "4-Di-2-ASP"], "SMILES": "N(CC)(CC)C1=CC=C(C=CC=2C=C[N+](C)=CC2)C=C1.[I-]", "physical_data": {"Molecular Weight": "", "Molecular Formula": "C18H23N2.I", "Melting Point": "262 \u00b0C"}}