{"cas_no": "10588-01-9", "cn_name": "\u91cd\u94ec\u9178\u94a0", "en_name": ["Sodium dichromate", "Chromic acid (H2Cr2O7), sodium salt (1:2)", "Dichromic acid (H2Cr2O7), disodium salt", "Chromic acid (H2Cr2O7), disodium salt", "Sodium dichromate(VI)", "Sodium dichromate", "Sodium dichromate (Na2(Cr2O7))", "Disodium dichromate", "Sodium chromate (Na2Cr2O7)", "Disodium dichromate (Na2Cr2O7)", "Disodium dichromium heptaoxide"], "SMILES": "O([Cr](O)(=O)=O)[Cr](O)(=O)=O.[Na]", "physical_data": {"Molecular Weight": "", "Molecular Formula": "Cr2H2O7.2Na", "Melting Point": "356.7 \u00b0C", "Density": "2.52 g/cm\u00b3 @ Temp: 13 \u00b0C"}}