{"cas_no": "10588-10-0", "cn_name": "2-\u7532\u57fa\u4e19\u57fa\u620a\u9178\u916f", "en_name": ["Isobutyl valerate", "Pentanoic acid, 2-methylpropyl ester", "Valeric acid, isobutyl ester", "Isobutyl valerinate", "2-Methylpropyl valerate", "Isobutyl valerate", "Isobutyl pentanoate", "2-Methyl-1-propyl pentanoate"], "SMILES": "C(OCC(C)C)(CCCC)=O", "physical_data": {"Molecular Weight": "158.24", "Molecular Formula": "C9H18O2", "Boiling Point": "179 \u00b0C"}}