{"cas_no": "10580-52-6", "cn_name": "\u6c2f\u5316\u9492", "en_name": ["Vanadium dichloride", "Vanadium chloride (VCl2)", "Vanadium dichloride", "Vanadium chloride", "Vanadium(II) chloride", "Dichlorovanadium"], "SMILES": "[V](Cl)Cl", "physical_data": {"Molecular Weight": "", "Molecular Formula": "Cl2V", "Melting Point": "1350 \u00b0C"}}