{"cas_no": "1058-61-3", "cn_name": "\u8c46\u753e-4-\u70ef-3-\u916e", "en_name": ["Stigmast-4-en-3-one", "Stigmast-4-en-3-one", "\u03b2-Sitost-4-en-3-one", "Sitostenone", "(24R)-24-Ethylcholest-4-en-3-one", "\u03944-Sitosterol-3-one", "\u03b2-Sitostenone", "\u03b2-Rosasterol oxide", "NSC 49082", "4-En-3-stigmastone", "(24R)-Stigmast-4-en-3-one"], "SMILES": "CC12C(C3C(C4(C)C(CC3)=CC(=O)CC4)CC1)CCC2C(CCC(C(C)C)CC)C", "physical_data": {"Molecular Weight": "412.69", "Molecular Formula": "C29H48O", "Melting Point": "82 \u00b0C"}}