{"cas_no": "1059-14-9", "cn_name": "\u84b2\u516c\u82f1\u753e\u9187", "en_name": ["Taraxasterol", "Urs-20(30)-en-3-ol, (3\u03b2,18\u03b1,19\u03b1)-", "18\u03b1,19\u03b2H-Urs-20(30)-en-3\u03b2-ol", "Taraxasterol", "(3\u03b2,18\u03b1,19\u03b1)-Urs-20(30)-en-3-ol", "4-Taraxasterol", "Isolactucerol", "Saussurol", "\u03b1-Lactucerol", "Lactucerol"], "SMILES": "CC12C3(C)C(C4C(C)(CC3)CCC(=C)C4C)CCC1C5(C)C(CC2)C(C)(C)C(O)CC5", "physical_data": {"Molecular Weight": "426.72", "Molecular Formula": "C30H50O", "Melting Point": "221-222 \u00b0C"}}