{"cas_no": "1059626-05-9", "cn_name": "4-\u6c1f\u82c4\u80bc\u76d0\u9178\u76d0", "en_name": ["Hydrazine, [(4-fluorophenyl)methyl]-, hydrochloride (1:1)", "Hydrazine, [(4-fluorophenyl)methyl]-, hydrochloride (1:1)", "(4-Fluorobenzyl)hydrazine hydrochloride"], "SMILES": "C(NN)C1=CC=C(F)C=C1.Cl", "physical_data": {"Molecular Weight": "", "Molecular Formula": "C7H9FN2.ClH", "Melting Point": "149-150 \u00b0C"}}