{"cas_no": "10591-85-2", "cn_name": "\u4e8c\u786b\u5316\u56db\u82c4\u57fa\u79cb\u5170\u59c6", "en_name": ["Tetrabenzylthiuram disulfide", "Thioperoxydicarbonic diamide ([(H2N)C(S)]2S2), N,N,N\u2032,N\u2032-tetrakis(phenylmethyl)-", "Disulfide, bis(dibenzylthiocarbamoyl)", "Thioperoxydicarbonic diamide ([(H2N)C(S)]2S2), tetrakis(phenylmethyl)-", "Tetrabenzylthiuram disulfide", "N,N,N\u2032,N\u2032-Tetrabenzylthiuram disulfide", "NSC 608475", "Benzyl Tuex", "Perkacit TBzTD", "Cure-rite TBzD", "Sanceler TBzTD", "Nocceler TBzTD", "Accel TBZT", "Accel TBZTD", "Rhenogran TBzTD 70", "Tetrakis(phenylmethyl)thioperoxydi(carbothioamide)", "Accelerator TBzTD", "TBzTD", "Rhenogran TBzTD 80", "TBZTD 80", "TBZTD 70", "TBzTD 70GE", "Perkacit TBzTD PDR-D", "TBzTD 75GE", "Richon TBzTD-OP"], "SMILES": "N(C(SSC(N(CC1=CC=CC=C1)CC2=CC=CC=C2)=S)=S)(CC3=CC=CC=C3)CC4=CC=CC=C4", "physical_data": {"Molecular Weight": "544.82", "Molecular Formula": "C30H28N2S4", "Melting Point": "137 \u00b0C"}}