{"cas_no": "10599-70-9", "cn_name": "3-\u4e59\u9170\u57fa-2,5-\u4e8c\u7532\u57fa\u544b\u5583", "en_name": ["3-Acetyl-2,5-dimethylfuran", "Ethanone, 1-(2,5-dimethyl-3-furanyl)-", "Ketone, 2,5-dimethyl-3-furyl methyl", "1-(2,5-Dimethyl-3-furanyl)ethanone", "3-Acetyl-2,5-dimethylfuran", "2,5-Dimethyl-3-acetylfuran", "1-(2,5-Dimethyl-3-furyl)-1-ethanone", "NSC 504254", "1-(2,5-Dimethylfuran-3-yl)ethanone", "2,5-Dimethyl-3-furyl methyl ketone", "1-(2,5-Dimethylfuran-3-yl)ethan-1-one"], "SMILES": "C(C)(=O)C=1C=C(C)OC1C", "physical_data": {"Molecular Weight": "138.16", "Molecular Formula": "C8H10O2", "Boiling Point": "95 \u00b0C @ Press: 23 Torr"}}