{"cas_no": "10599-69-6", "cn_name": "2-\u7532\u57fa-5-\u4e19\u9170\u544b\u5583", "en_name": ["1-(5-Methyl-2-furanyl)-1-propanone", "1-Propanone, 1-(5-methyl-2-furanyl)-", "1-Propanone, 1-(5-methyl-2-furyl)-", "1-(5-Methyl-2-furanyl)-1-propanone", "5-Methyl-2-propionylfuran", "2-Methyl-5-propionylfuran", "1-(5-Methyl-2-furyl)propan-1-one", "5-Methyl-2-propanoylfuran"], "SMILES": "C(CC)(=O)C=1OC(C)=CC1", "physical_data": {"Molecular Weight": "138.16", "Molecular Formula": "C8H10O2", "Boiling Point": "94-96 \u00b0C @ Press: 14 Torr", "Density": "1.0580 g/cm\u00b3 @ Temp: 20 \u00b0C"}}