{"cas_no": "105942-08-3", "cn_name": "4-\u6eb4-2-\u6c1f\u82ef\u7532\u8148", "en_name": ["4-Bromo-2-fluorobenzonitrile", "Benzonitrile, 4-bromo-2-fluoro-", "4-Bromo-2-fluorobenzonitrile", "2-Fluoro-4-bromobenzonitrile", "4-Cyano-3-fluoro-1-bromobenzene", "4-Bromo-2-fluorobenzonitril"], "SMILES": "C(#N)C1=C(F)C=C(Br)C=C1", "physical_data": {"Molecular Weight": "200.01", "Molecular Formula": "C7H3BrFN", "Melting Point": "71-73 \u00b0C"}}