{"cas_no": "10597-52-1", "cn_name": "4-\u785d\u57fa\u82ef\u54aa\u5511", "en_name": ["4-Nitrobenzimidazole", "1H-Benzimidazole, 7-nitro-", "Benzimidazole, 4-nitro-", "1H-Benzimidazole, 4-nitro-", "Benzimidazole, 4(or 7)-nitro-", "7-Nitro-1H-benzimidazole", "4-Nitrobenzimidazole", "4-Nitro-1H-benzimidazole", "7-Nitrobenzimidazole"], "SMILES": "N(=O)(=O)C1=C2C(N=CN2)=CC=C1", "physical_data": {"Molecular Weight": "163.13", "Molecular Formula": "C7H5N3O2", "Melting Point": "238-239 \u00b0C"}}