{"cas_no": "10595-95-6", "cn_name": "N-\u4e9a\u785d\u57fa\u7532\u57fa\u4e59\u57fa\u80fa", "en_name": ["N-Nitrosomethylethylamine", "Ethanamine, N-methyl-N-nitroso-", "Ethylamine, N-methyl-N-nitroso-", "N-Methyl-N-nitrosoethanamine", "Methylethylnitrosoamine", "Methylethylnitrosamine", "N-Nitrosomethylethylamine", "Ethylmethylnitrosamine", "N-Methyl-N-nitrosoethylamine", "Nitrosomethylethylamine", "N-Nitroso-N-methylethylamine", "N-Nitrosoethylmethylamine", "NEMA"], "SMILES": "N(CC)(N=O)C", "physical_data": {"Molecular Weight": "88.11", "Molecular Formula": "C3H8N2O", "Boiling Point": "163 \u00b0C @ Press: 747 Torr", "Density": "0.9448 g/cm\u00b3 @ Temp: 18 \u00b0C"}}