{"cas_no": "10599-59-4", "cn_name": "2-\u5f02\u4e19\u57fa\u544b\u5583", "en_name": ["2-(1-Methylethyl)furan", "Furan, 2-(1-methylethyl)-", "Furan, 2-isopropyl-", "2-(1-Methylethyl)furan", "2-Isopropylfuran", "2-Propan-2-ylfuran"], "SMILES": "C(C)(C)C1=CC=CO1", "physical_data": {"Molecular Weight": "110.15", "Molecular Formula": "C7H10O", "Boiling Point": "40 \u00b0C @ Press: 60 Torr", "Density": "0.8771 g/cm\u00b3 @ Temp: 25 \u00b0C"}}