{"cas_no": "10595-06-9", "cn_name": "\u7532\u57fa\u4e19\u70ef\u9178-2-\u82ef\u6c27\u4e59\u916f", "en_name": ["Phenoxyethyl methacrylate", "2-Propenoic acid, 2-methyl-, 2-phenoxyethyl ester", "Methacrylic acid, 2-phenoxyethyl ester", "2-Phenoxyethyl methacrylate", "Phenoxyethyl methacrylate", "Sartomer 340", "Light Acrylate PO", "Light Ester PO", "SR 340", "Sartomer SR 340", "NK Ester PHE 1G", "FA 310M", "Ethylene glycol methacrylate phenyl ether", "Ethylene glycol phenyl ether methacrylate", "2-Phenoxyethylene glycol methacrylate", "2-Phenoxyethyl 2-methylprop-2-enoate", "Ethylene glycol monophenyl ether methacrylate", "Miramer M 141", "Etermer EM 310"], "SMILES": "O(CCOC(C(C)=C)=O)C1=CC=CC=C1", "physical_data": {"Molecular Weight": "206.24", "Molecular Formula": "C12H14O3", "Boiling Point": "268 \u00b0C @ Press: 760 Torr"}}