{"cas_no": "105942-10-7", "cn_name": "4-\u6c30\u57fa-2-\u6c1f\u82ef\u7532\u919b", "en_name": ["3-Fluoro-4-formylbenzonitrile", "Benzonitrile, 3-fluoro-4-formyl-", "3-Fluoro-4-formylbenzonitrile", "2-Fluoro-4-cyanobenzaldehyde", "4-Cyano-2-fluorobenzaldehyde"], "SMILES": "C(#N)C1=CC(F)=C(C=O)C=C1", "physical_data": {"Molecular Weight": "149.12", "Molecular Formula": "C8H4FNO", "Melting Point": "76-77 \u00b0C"}}