{"cas_no": "105956-99-8", "cn_name": "\u76d0\u9178\u514b\u6797\u6c99\u661f", "en_name": ["3-Quinolinecarboxylic acid, 7-(3-amino-1-pyrrolidinyl)-8-chloro-1-cyclopropyl-6-fluoro-1,4-dihydro-4-oxo-, hydrochloride (1:1)", "3-Quinolinecarboxylic acid, 7-(3-amino-1-pyrrolidinyl)-8-chloro-1-cyclopropyl-6-fluoro-1,4-dihydro-4-oxo-, hydrochloride (1:1)", "3-Quinolinecarboxylic acid, 7-(3-amino-1-pyrrolidinyl)-8-chloro-1-cyclopropyl-6-fluoro-1,4-dihydro-4-oxo-, monohydrochloride", "CI 960", "KR 11095", "AM 1091", "Clinafloxacin hydrochloride"], "SMILES": "ClC1=C2N(C=C(C(O)=O)C(=O)C2=CC(F)=C1N3CC(N)CC3)C4CC4.Cl", "physical_data": {"Molecular Weight": "", "Molecular Formula": "C17H17ClFN3O3.ClH", "Melting Point": "263-265 \u00b0C (decomp)"}}