{"cas_no": "10596-22-2", "cn_name": "(\u4e8c\u6c2f\u4e9a\u7532\u57fa)\u4e8c\u78f7\u9178\u56db\u5f02\u4e19\u916f", "en_name": ["Phosphonic acid, (dichloromethylene)bis-, tetrakis(1-methylethyl) ester", "Phosphonic acid, (dichloromethylene)bis-, tetrakis(1-methylethyl) ester", "Phosphonic acid, (dichloromethylene)di-, tetraisopropyl ester", "Tetraisopropyl (dichloromethylene)diphosphonate", "Tetraisopropyl (dichloromethylene)bisphosphonate", "Dichloromethylenebisphosphonate tetraisopropyl ester", "2-[[Dichloro-di(propan-2-yloxy)phosphorylmethyl]-propan-2-yloxyphosphoryl]oxypropane"], "SMILES": "C(P(OC(C)C)(OC(C)C)=O)(P(OC(C)C)(OC(C)C)=O)(Cl)Cl", "physical_data": {"Molecular Weight": "413.21", "Molecular Formula": "C13H28Cl2O6P2", "Melting Point": "49.8-51.0 \u00b0C"}}