{"cas_no": "105956-97-6", "cn_name": "\u514b\u6797\u6c99\u661f", "en_name": ["Clinafloxacin", "3-Quinolinecarboxylic acid, 7-(3-amino-1-pyrrolidinyl)-8-chloro-1-cyclopropyl-6-fluoro-1,4-dihydro-4-oxo-", "7-(3-Amino-1-pyrrolidinyl)-8-chloro-1-cyclopropyl-6-fluoro-1,4-dihydro-4-oxo-3-quinolinecarboxylic acid", "PD 127391", "Clinafloxacin"], "SMILES": "ClC1=C2N(C=C(C(O)=O)C(=O)C2=CC(F)=C1N3CC(N)CC3)C4CC4", "physical_data": {"Molecular Weight": "365.79", "Molecular Formula": "C17H17ClFN3O3", "Melting Point": "253-258 \u00b0C (decomp)"}}