{"cas_no": "10596-23-3", "cn_name": "\u6c2f\u5c48\u77b5\u9178", "en_name": ["Clodronate", "Phosphonic acid, P,P\u2032-(dichloromethylene)bis-", "Phosphonic acid, (dichloromethylene)di-", "Phosphonic acid, (dichloromethylene)bis-", "P,P\u2032-(Dichloromethylene)bis[phosphonic acid]", "Methanedichlorodiphosphonic acid", "Dichloromethylenediphosphonic acid", "Clodronic acid", "(Dichloromethylene)bis[phosphonic acid]", "Clodronate", "Cl 2MDP", "DMDP", "Clodrolip", "Clodrosome"], "SMILES": "C(P(=O)(O)O)(P(=O)(O)O)(Cl)Cl", "physical_data": {"Molecular Weight": "244.89", "Molecular Formula": "CH4Cl2O6P2", "Melting Point": "250 \u00b0C"}}