{"cas_no": "105955-11-1", "cn_name": "OLDA", "en_name": ["N-Oleoyldopamine", "9-Octadecenamide, N-[2-(3,4-dihydroxyphenyl)ethyl]-, (9Z)-", "9-Octadecenamide, N-[2-(3,4-dihydroxyphenyl)ethyl]-, (Z)-", "(9Z)-N-[2-(3,4-Dihydroxyphenyl)ethyl]-9-octadecenamide", "N-Oleoyldopamine"], "SMILES": "C(CNC(CCCCCCCC=CCCCCCCCC)=O)C1=CC(O)=C(O)C=C1", "physical_data": {"Molecular Weight": "417.62", "Molecular Formula": "C26H43NO3", "Melting Point": "50.5-52 \u00b0C"}}