{"cas_no": "106-60-5", "cn_name": "5-\u6c28\u57fa\u4e59\u9170\u4e19\u9178", "en_name": ["5-Aminolevulinic acid", "Pentanoic acid, 5-amino-4-oxo-", "Levulinic acid, 5-amino-", "5-Amino-4-oxopentanoic acid", "\u03b4-Aminolevulinic acid", "5-Aminolevulinic acid", "Aminolevulinic acid", "Aladerm", "Kerastick", "Alasens", "Levulan", "5-ALA", "Pentakeep S", "Pentakeep V", "BF 200ALA", "Levulan (anticancer drug)", "Levulan (anticancer drug)", "MeSH ID: D000622", "Sonala 001"], "SMILES": "C(CCC(O)=O)(CN)=O", "physical_data": {"Molecular Weight": "131.13", "Molecular Formula": "C5H9NO3", "Melting Point": "118-119 \u00b0C"}}