{"cas_no": "106-37-6", "cn_name": "1,4-\u4e8c\u6eb4\u82ef", "en_name": ["1,4-Dibromobenzene", "Benzene, 1,4-dibromo-", "Benzene, p-dibromo-", "1,4-Dibromobenzene", "p-Dibromobenzene", "p-Bromophenyl bromide", "para-Dibromobenzene", "p-Phenylene dibromide", "NSC 33942", "1-Bromo-4-bromobenzene"], "SMILES": "BrC1=CC=C(Br)C=C1", "physical_data": {"Molecular Weight": "235.90", "Molecular Formula": "C6H4Br2", "Boiling Point": "220.40 \u00b0C", "Melting Point": "87.3 \u00b0C", "Density": "0.9641 g/cm\u00b3 @ Temp: 99.6 \u00b0C"}}