{"cas_no": "106-90-1", "cn_name": "\u4e19\u70ef\u9178-2\uff0c3-\u73af\u6c27\u4e19\u916f", "en_name": ["Glycidyl acrylate", "2-Propenoic acid, 2-oxiranylmethyl ester", "Acrylic acid, 2,3-epoxypropyl ester", "2-Propenoic acid, oxiranylmethyl ester", "Acrylic acid, glycidyl ester", "2,3-Epoxypropyl acrylate", "Glycidyl propenoate", "Glycidyl acrylate", "Epoxypropyl acrylate", "(\u00b1)-Glycidyl acrylate", "NSC 24151", "NSC 67196", "SR 378", "(Oxiran-2-yl)methyl prop-2-enoate", "A 1045"], "SMILES": "C(OC(C=C)=O)C1CO1", "physical_data": {"Molecular Weight": "128.13", "Molecular Formula": "C6H8O3", "Boiling Point": "57 \u00b0C @ Press: 2 Torr", "Density": "1.1074 g/cm\u00b3 @ Temp: 20 \u00b0C"}}