{"cas_no": "106-92-3", "cn_name": "\u70ef\u4e19\u57fa\u7f29\u6c34\u7518\u6cb9\u919a", "en_name": ["Allyl glycidyl ether", "Oxirane, 2-[(2-propen-1-yloxy)methyl]-", "Propane, 1-(allyloxy)-2,3-epoxy-", "Oxirane, [(2-propenyloxy)methyl]-", "2-[(2-Propen-1-yloxy)methyl]oxirane", "Allyl 2,3-epoxypropyl ether", "Allyl glycidyl ether", "Glycidyl allyl ether", "1,2-Epoxy-3-allyloxypropane", "1-Allyloxy-2,3-epoxypropane", "[(Allyloxy)methyl]oxirane", "Glycidyl 2-propenyl ether", "Allyl oxiranemethyl ether", "(\u00b1)-Allyl glycidyl ether", "[(2-Propenyloxy)methyl]oxirane", "Denacol EX 111", "AGE", "NSC 18596", "NSC 631", "1-(2-Propenyloxy)-2,3-epoxypropane", "A 32608", "2-[(2-Propenyloxy)methyl]oxirane", "2-(Allyloxymethyl)oxirane", "2-[(Prop-2-en-1-yloxy)methyl]oxirane", "AGE 500", "Silong 191", "2-(Prop-2-enoxymethyl)oxirane", "AGE 501", "R 003047", "A 106314"], "SMILES": "C(OCC=C)C1CO1", "physical_data": {"Molecular Weight": "114.14", "Molecular Formula": "C6H10O2", "Boiling Point": "153.9 \u00b0C @ Press: 760 Torr", "Melting Point": "-100 \u00b0C", "Density": "0.9698 g/cm\u00b3 @ Temp: 20 \u00b0C"}}