{"cas_no": "106-02-5", "cn_name": "\u73af\u5341\u4e94\u5185\u916f", "en_name": ["Pentadecalactone", "Oxacyclohexadecan-2-one", "Pentadecanoic acid, 15-hydroxy-, \u03be-lactone", "Exaltolide", "Pentadecanolide", "Thibetolide", "Pentadecalactone", "1,15-Pentadecanolide", "Cyclopentadecanolide", "2-Pentadecalone", "Muskalactone", "15-Pentadecanolide", "Pentadecanolactone", "Pentalide", "15-Hydroxypentadecanoic acid lactone", "1-Oxacyclohexadecan-2-one", "NSC 36763", "CPE 215", "cpd Supra", "\u03c9-Pentadecalactone", "Macrolide Supra", "15-Pentadecanolactone"], "SMILES": "O=C1CCCCCCCCCCCCCCO1", "physical_data": {"Molecular Weight": "240.38", "Molecular Formula": "C15H28O2", "Boiling Point": "176 \u00b0C", "Melting Point": "32 \u00b0C"}}