{"cas_no": "106-35-4", "cn_name": "3-\u5e9a\u916e", "en_name": ["3-Heptanone", "3-Heptanone", "n-Butyl ethyl ketone", "Ethyl butyl ketone", "Butyl ethyl ketone", "Ethyl n-butyl ketone", "3-Oxoheptane", "NSC 8448", "5-Heptanone"], "SMILES": "C(CCCC)(CC)=O", "physical_data": {"Molecular Weight": "114.19", "Molecular Formula": "C7H14O", "Boiling Point": "147 \u00b0C @ Press: 765 Torr", "Melting Point": "-39 \u00b0C", "Density": "0.8183 g/cm\u00b3 @ Temp: 20 \u00b0C"}}