{"cas_no": "106-29-6", "cn_name": "\u4e01\u9178\u53f6\u9187\u916f", "en_name": ["Geranyl butyrate", "Butanoic acid, (2E)-3,7-dimethyl-2,6-octadien-1-yl ester", "Butyric acid, 3,7-dimethyl-2,6-octadienyl ester, (E)-", "Butanoic acid, 3,7-dimethyl-2,6-octadienyl ester, (E)-", "Butyric acid, geranyl ester", "Butanoic acid, (2E)-3,7-dimethyl-2,6-octadienyl ester", "2,6-Octadien-1-ol, 3,7-dimethyl-, butyrate, (E)-", "trans-3,7-Dimethyl-2,6-octadien-1-yl butyrate", "Geraniol butyrate", "Geranyl butyrate", "Geranyl n-butyrate", "Geranyl butanoate", "AG 76", "NSC 46146", "NSC 70177"], "SMILES": "C(=CCOC(CCC)=O)(CCC=C(C)C)C", "physical_data": {"Molecular Weight": "224.34", "Molecular Formula": "C14H24O2", "Boiling Point": "126-128 \u00b0C @ Press: 9 Torr", "Density": "0.891-0.895 g/cm\u00b3 @ Temp: 25 \u00b0C"}}