{"cas_no": "106-25-2", "cn_name": "\u6a59\u82b1\u9187", "en_name": ["Nerol", "2,6-Octadien-1-ol, 3,7-dimethyl-, (2Z)-", "2,6-Octadien-1-ol, 3,7-dimethyl-, (Z)-", "Nerol", "(2Z)-3,7-Dimethyl-2,6-octadien-1-ol", "cis-3,7-Dimethyl-2,6-octadien-1-ol", "cis-Geraniol", "Neryl alcohol", "\u03b2-Nerol", "(Z)-Geraniol", "(Z)-3,7-Dimethyl-2,6-octadien-1-ol", "3,7-Dimethyl-cis-2,6-octadien-1-ol", "(Z)-Nerol", "2-cis-3,7-Dimethyl-2,6-octadien-1-ol", "Nerol 900", "(Z)-3,7-Dimethyl-2,6-octadienol", "cis-1-Hydroxy-3,7-dimethyl-2,6-octadiene", "(Z)-3,7-Dimethyloct-2,6-diene-1-ol", "(Z)-3,7-Dimethylocta-2,6-dien-1-ol"], "SMILES": "C(CCC=C(C)C)(=CCO)C", "physical_data": {"Molecular Weight": "154.25", "Molecular Formula": "C10H18O", "Boiling Point": "225 \u00b0C", "Melting Point": "&lt;-15 \u00b0C", "Density": "0.8756 g/cm\u00b3 @ Temp: 20 \u00b0C"}}