{"cas_no": "106-43-4", "cn_name": "\u5bf9\u6c2f\u7532\u82ef", "en_name": ["4-Chlorotoluene", "Benzene, 1-chloro-4-methyl-", "Toluene, p-chloro-", "1-Chloro-4-methylbenzene", "4-Chloro-1-methylbenzene", "p-Chlorotoluene", "p-Tolyl chloride", "4-Chlorotoluene", "para-Chlorotoluene", "p-Chloromethylbenzene", "p-Methylchlorobenzene", "1-Methyl-4-chlorobenzene", "4-Methylphenyl chloride", "4-Tolyl chloride", "4-Methylchlorobenzene", "NSC 404114", "4-Methyl-1-chlorobenzene"], "SMILES": "CC1=CC=C(Cl)C=C1", "physical_data": {"Molecular Weight": "126.58", "Molecular Formula": "C7H7Cl", "Boiling Point": "162.4 \u00b0C", "Melting Point": "7.5 \u00b0C", "Density": "1.0697 g/cm\u00b3 @ Temp: 20 \u00b0C"}}