{"cas_no": "106-95-6", "cn_name": "3-\u6eb4\u4e19\u70ef", "en_name": ["Allyl bromide", "1-Propene, 3-bromo-", "Propene, 3-bromo-", "3-Bromo-1-propene", "Allyl bromide", "3-Bromopropene", "3-Bromopropylene", "2-Propenyl bromide", "1-Bromo-2-propene", "NSC 7596", "1-Propene, 3-bromo-, hydrate (1:1)", "13125C", "B 0643"], "SMILES": "C(C=C)Br", "physical_data": {"Molecular Weight": "120.98", "Molecular Formula": "C3H5Br", "Boiling Point": "71.3 \u00b0C @ Press: 760 Torr", "Melting Point": "-119 \u00b0C", "Density": "1.398 g/cm\u00b3 @ Temp: 20 \u00b0C"}}