{"cas_no": "106-23-0", "cn_name": "\u9999\u8305\u919b", "en_name": ["Citronellal", "6-Octenal, 3,7-dimethyl-", "3,7-Dimethyl-6-octenal", "Citronellal", "3,7-Dimethyloct-6-en-1-al", "Rhodinal", "\u03b2-Citronellal", "2,3-Dihydrocitral", "dl-Citronellal", "(\u00b1)-Citronellal", "NSC 46106", "rac-Citronellal", "Rac-citronellal"], "SMILES": "C(CCC=C(C)C)(CC=O)C", "physical_data": {"Molecular Weight": "154.25", "Molecular Formula": "C10H18O", "Boiling Point": "86-89 \u00b0C @ Press: 12 Torr", "Melting Point": "76-77 \u00b0C", "Density": "0.8573 g/cm\u00b3 @ Temp: 20 \u00b0C"}}