{"cas_no": "106-34-3", "cn_name": "\u918c\u6c22\u918c", "en_name": ["Quinhydrone", "2,5-Cyclohexadiene-1,4-dione, compd. with 1,4-benzenediol (1:1)", "p-Benzoquinone, compd. with hydroquinone (1:1)", "Benzoquinone, compd. with hydroquinone", "Hydroquinone, compd. with p-benzoquinone (1:1)", "1,4-Benzenediol, compd. with 2,5-cyclohexadiene-1,4-dione (1:1)", "Quinhydrone", "Green hydroquinone", "p-Benzoquinone-hydroquinone compound (1:1)", "p-Benzoquinhydrone", "\u03b2-Quinhydrone", "NSC 36325"], "SMILES": "O=C1C=CC(=O)C=C1.OC1=CC=C(O)C=C1", "physical_data": {"Molecular Weight": "", "Molecular Formula": "C6H6O2.C6H4O2", "Melting Point": "171 \u00b0C"}}