{"cas_no": "106-86-5", "cn_name": "1,2-\u73af\u6c27-4-\u4e59\u70ef\u57fa\u73af\u5df1\u70f7", "en_name": ["4-Vinylcyclohexene oxide", "7-Oxabicyclo[4.1.0]heptane, 3-ethenyl-", "7-Oxabicyclo[4.1.0]heptane, 3-vinyl-", "Cyclohexane, 1,2-epoxy-4-vinyl-", "3-Ethenyl-7-oxabicyclo[4.1.0]heptane", "Epoxide 101", "1,2-Epoxy-4-vinylcyclohexane", "Unoxat epoxide 101", "4-Vinylcyclohexane 1,2-epoxide", "1-Vinyl-3,4-epoxycyclohexane", "3-Vinyl-7-oxabicyclo[4.1.0]heptane", "3,4-Epoxycyclohexylethylene", "4-Vinylcyclohexene monoepoxide", "4-Vinylcyclohexene oxide", "4-Vinylcyclohexane-1-oxide", "4-Vinyl-1-cyclohexene-1,2-epoxide", "Vinyl-3,4-epoxycyclohexane", "1-Ethenyl-3-cyclohexene oxide", "NSC 35409", "Cyracure VCMX-C", "4-Vinylcyclohexene-1,2-oxide", "4-Vinylcyclohexene-1,2-epoxide", "4-Vinyl-1-cyclohexane 1,2-epoxide", "4-Vinyl-1,2-epoxycyclohexane", "Vinylcyclohexene oxide", "Vinylcyclohexene monoxide", "4-Vinyl 1,2-cyclohexane oxide", "TTA 11", "UVR 6100"], "SMILES": "C(=C)C1CC2C(O2)CC1", "physical_data": {"Molecular Weight": "124.18", "Molecular Formula": "C8H12O", "Boiling Point": "169 \u00b0C", "Melting Point": "&lt;-100 \u00b0C", "Density": "0.9598 g/cm\u00b3 @ Temp: 20 \u00b0C"}}