{"cas_no": "106-36-5", "cn_name": "\u4e19\u9178\u6b63\u4e19\u916f", "en_name": ["Propyl propionate", "Propanoic acid, propyl ester", "Propionic acid, propyl ester", "Propyl propionate", "n-Propyl propionate", "Propyl propanoate", "n-Propyl n-propanoate", "NSC 72022"], "SMILES": "C(OCCC)(CC)=O", "physical_data": {"Molecular Weight": "116.16", "Molecular Formula": "C6H12O2", "Boiling Point": "122.5 \u00b0C", "Melting Point": "-75.9 \u00b0C", "Density": "0.878 g/cm\u00b3 @ Temp: 20 \u00b0C"}}