{"cas_no": "106-54-7", "cn_name": "4-\u6c2f\u82ef\u786b\u915a", "en_name": ["4-Chlorobenzenethiol", "Benzenethiol, 4-chloro-", "Benzenethiol, p-chloro-", "4-Chlorobenzenethiol", "p-Chlorobenzenethiol", "p-Chlorothiophenol", "4-Chlorothiophenol", "4-Chlorophenylmercaptan", "p-Chlorophenylmercaptan", "p-Mercaptochlorobenzene", "1-Chloro-4-mercaptobenzene", "4-Chlorophenylthiol", "p-Chlorophenylthiol", "NSC 18714", "NSC 229564", "4-Mercaptophenyl chloride"], "SMILES": "ClC1=CC=C(S)C=C1", "physical_data": {"Molecular Weight": "144.62", "Molecular Formula": "C6H5ClS", "Boiling Point": "206 \u00b0C", "Melting Point": "61 \u00b0C"}}