{"cas_no": "106-69-4", "cn_name": "1,2,6-\u5df1\u4e09\u9187", "en_name": ["1,2,6-Hexanetriol", "1,2,6-Hexanetriol", "1,2,6-Trihydroxyhexane", "(\u00b1)-1,2,6-Hexanetriol", "NSC 404957"], "SMILES": "C(CCCCO)(CO)O", "physical_data": {"Molecular Weight": "134.17", "Molecular Formula": "C6H14O3", "Boiling Point": "170 \u00b0C", "Density": "1.03 g/cm\u00b3 @ Temp: 20 \u00b0C"}}