{"cas_no": "106-68-3", "cn_name": "3-\u8f9b\u916e", "en_name": ["3-Octanone", "3-Octanone", "Amyl ethyl ketone", "EAK", "Ethyl amyl ketone", "n-Octanone-3", "Ethyl pentyl ketone", "Ethyl n-amyl ketone", "Ethyl n-pentyl ketone", "n-Amyl ethyl ketone", "3-Oxooctane", "NSC 60161", "3-Octanal"], "SMILES": "C(CCCCC)(CC)=O", "physical_data": {"Molecular Weight": "128.21", "Molecular Formula": "C8H16O", "Boiling Point": "167.5 \u00b0C @ Press: 760 Torr", "Density": "0.820 g/cm\u00b3 @ Temp: 24 \u00b0C"}}