{"cas_no": "106-18-3", "cn_name": "\u5341\u4e8c\u9178\u4e01\u916f", "en_name": ["Butyl laurate", "Dodecanoic acid, butyl ester", "Lauric acid, butyl ester", "Butyl dodecanoate", "Butyl laurate", "NSC 3920"], "SMILES": "C(CCCCCCCCCCC)(OCCCC)=O", "physical_data": {"Molecular Weight": "256.42", "Molecular Formula": "C16H32O2", "Boiling Point": "145 \u00b0C @ Press: 3 Torr", "Density": "0.8593 g/cm\u00b3 @ Temp: 20 \u00b0C"}}