{"cas_no": "106-45-6", "cn_name": "4-\u7532\u82ef\u786b\u915a", "en_name": ["4-Methylbenzenethiol", "Benzenethiol, 4-methyl-", "p-Toluenethiol", "4-Methylbenzenethiol", "p-Thiocresol", "p-Tolyl mercaptan", "4-Methylphenyl mercaptan", "4-Toluenethiol", "p-Methylbenzenethiol", "4-Thiocresol", "p-Tolylthiol", "p-Thiolcresol", "1-Mercapto-4-methylbenzene", "p-Methylphenyl mercaptan", "p-Mercaptotoluene", "4-Methyl-1-thiophenol", "4-Methylphenylthiol", "4-Mercaptotoluene", "p-Methylphenylthiol", "4-Methylthiophenol", "p-Methylthiophenol", "NSC 2227", "NSC 229565", "p-Methylbenzenthiol"], "SMILES": "CC1=CC=C(S)C=C1", "physical_data": {"Molecular Weight": "124.20", "Molecular Formula": "C7H8S", "Boiling Point": "195 \u00b0C @ Press: 760 Torr", "Melting Point": "43-44 \u00b0C"}}