{"cas_no": "106-33-2", "cn_name": "\u6708\u6842\u9178\u4e59\u916f", "en_name": ["Ethyl dodecanoate", "Dodecanoic acid, ethyl ester", "Lauric acid, ethyl ester", "Ethyl dodecanoate", "Ethyl dodecylate", "Ethyl laurate", "Ethyl laurinate", "Ethyl n-dodecanoate", "NSC 83467", "NSC 8912", "Dodecanoic acid monoethyl ester"], "SMILES": "C(CCCCCCCCCCC)(OCC)=O", "physical_data": {"Molecular Weight": "228.37", "Molecular Formula": "C14H28O2", "Boiling Point": "271 \u00b0C", "Melting Point": "-10 \u00b0C", "Density": "0.8660 g/cm\u00b3 @ Temp: 15 \u00b0C"}}