{"cas_no": "106-98-9", "cn_name": "\u6b63\u4e01\u70ef", "en_name": ["1-Butene", "1-Butene", "Butene-1", "\u03b1-Butylene", "1-Butylene", "Ethylethylene", "\u03b1-Butene", "2-Butylene"], "SMILES": "C(C=C)C", "physical_data": {"Molecular Weight": "56.11", "Molecular Formula": "C4H8", "Boiling Point": "-6.47 \u00b0C @ Press: 760 Torr", "Melting Point": "-185 \u00b0C", "Density": "0.577 g/cm\u00b3 @ Temp: 25 \u00b0C"}}