{"cas_no": "106-72-9", "cn_name": "2,6-\u4e8c\u7532\u57fa-5-\u5e9a\u70ef\u919b", "en_name": ["(\u00b1)-2,6-Dimethyl-5-heptenal", "5-Heptenal, 2,6-dimethyl-", "2,6-Dimethyl-5-heptenal", "Melonal", "2,6-Dimethyl-5-hepten-1-al", "(\u00b1)-2,6-Dimethyl-5-heptenal", "NSC 78450"], "SMILES": "C(CCC=C(C)C)(C=O)C", "physical_data": {"Molecular Weight": "140.22", "Molecular Formula": "C9H16O", "Boiling Point": "70-75 \u00b0C @ Press: 15 Torr"}}