{"cas_no": "106-52-5", "cn_name": "1-\u7532\u57fa-4-\u54cc\u5576\u9187", "en_name": ["4-Hydroxy-1-methylpiperidine", "4-Piperidinol, 1-methyl-", "1-Methyl-4-piperidinol", "1-Methyl-4-hydroxypiperidine", "N-Methyl-4-piperidinol", "4-Hydroxy-1-methylpiperidine", "N-Methyl-4-hydroxypiperidine", "4-Hydroxy-N-methylpiperidine", "NSC 60705"], "SMILES": "OC1CCN(C)CC1", "physical_data": {"Molecular Weight": "115.17", "Molecular Formula": "C6H13NO", "Boiling Point": "200 \u00b0C", "Melting Point": "29 \u00b0C"}}