{"cas_no": "106-20-7", "cn_name": "\u4e8c\u5f02\u8f9b\u80fa", "en_name": ["Bis(2-ethylhexyl)amine", "1-Hexanamine, 2-ethyl-N-(2-ethylhexyl)-", "Dihexylamine, 2,2\u2032-diethyl-", "2-Ethyl-N-(2-ethylhexyl)-1-hexanamine", "Di(2-ethylhexyl)amine", "Bis(2-ethylhexyl)amine", "2,2\u2032-Diethyldihexylamine", "NSC 5329", "N,N-Bis(2-ethylhexyl)amine", "N,N-Di(2-ethylhexyl)amine"], "SMILES": "C(CNCC(CCCC)CC)(CCCC)CC", "physical_data": {"Molecular Weight": "241.46", "Molecular Formula": "C16H35N", "Boiling Point": "126 \u00b0C @ Press: 4.0 Torr"}}