{"cas_no": "106-38-7", "cn_name": "\u5bf9\u6eb4\u7532\u82ef", "en_name": ["4-Bromotoluene", "Benzene, 1-bromo-4-methyl-", "Toluene, p-bromo-", "1-Bromo-4-methylbenzene", "4-Bromo-1-methylbenzene", "p-Bromotoluene", "4-Bromotoluene", "p-Tolyl bromide", "p-Methylbromobenzene", "p-Methylphenyl bromide", "4-Methylbromobenzene", "4-Methyl-1-bromobenzene", "4-Methylphenyl bromide", "4-Tolyl bromide", "1-Methyl-4-bromobenzene", "p-Bromo(methyl)benzene", "NSC 6531"], "SMILES": "BrC1=CC=C(C)C=C1", "physical_data": {"Molecular Weight": "171.03", "Molecular Formula": "C7H7Br", "Boiling Point": "184.5 \u00b0C @ Press: 760 Torr", "Melting Point": "28.5 \u00b0C", "Density": "1.3995 g/cm\u00b3 @ Temp: 35 \u00b0C"}}