{"cas_no": "106-32-1", "cn_name": "\u8f9b\u9178\u4e59\u916f", "en_name": ["Ethyl octanoate", "Octanoic acid, ethyl ester", "Ethyl caprylate", "Ethyl octanoate", "Ethyl n-octanoate", "Caprylic acid ethyl ester", "Et caprylate", "NSC 8898"], "SMILES": "C(CCCCCCC)(OCC)=O", "physical_data": {"Molecular Weight": "172.26", "Molecular Formula": "C10H20O2", "Boiling Point": "208.5 \u00b0C", "Melting Point": "-43.1 \u00b0C"}}