{"cas_no": "106-71-8", "cn_name": "2-\u4e59\u57fa\u6c30\u57fa\u4e19\u70ef\u9178\u916f", "en_name": ["2-Cyanoethyl acrylate", "2-Propenoic acid, 2-cyanoethyl ester", "Acrylic acid, ester with hydracrylonitrile", "Hydracrylonitrile, acrylate (ester)", "2-Cyanoethyl acrylate", "2-Cyanoethyl propenoate", "NSC 18593", "2-Cyanoethyl prop-2-enoate"], "SMILES": "C(OCCC#N)(C=C)=O", "physical_data": {"Molecular Weight": "125.13", "Molecular Formula": "C6H7NO2", "Boiling Point": "108 \u00b0C @ Press: 12 Torr", "Density": "2.069 g/cm\u00b3"}}