{"cas_no": "106-48-9", "cn_name": "4-\u6c2f\u82ef\u915a", "en_name": ["4-Chlorophenol", "Phenol, 4-chloro-", "Phenol, p-chloro-", "4-Chlorophenol", "p-Chlorophenol", "4-Hydroxychlorobenzene", "Applied 3-78", "p-Chlorophenic acid", "NSC 2877", "4-CP"], "SMILES": "ClC1=CC=C(O)C=C1", "physical_data": {"Molecular Weight": "128.56", "Molecular Formula": "C6H5ClO", "Boiling Point": "220 \u00b0C", "Melting Point": "42.7 \u00b0C", "Density": "1.2238 g/cm\u00b3 @ Temp: 78 \u00b0C"}}