{"cas_no": "106-73-0", "cn_name": "\u5e9a\u9178\u7532\u916f", "en_name": ["Methyl heptanoate", "Heptanoic acid, methyl ester", "Methyl enanthate", "Methyl heptanoate", "Methyl heptoate", "Methyl n-heptylate", "Methyl oenanthylate", "Methyl n-heptanoate", "Radia 30159", "Enanthic methyl ester"], "SMILES": "C(CCCCCC)(OC)=O", "physical_data": {"Molecular Weight": "144.21", "Molecular Formula": "C8H16O2", "Boiling Point": "174 \u00b0C", "Melting Point": "-56 \u00b0C", "Density": "0.8788 g/cm\u00b3 @ Temp: 20 \u00b0C"}}