{"cas_no": "106-44-5", "cn_name": "\u5bf9\u7532\u915a", "en_name": ["p-Cresol", "Phenol, 4-methyl-", "p-Cresol", "4-Methylphenol", "4-Cresol", "p-Cresylic acid", "p-Hydroxytoluene", "p-Methylphenol", "p-Oxytoluene", "p-Methylhydroxybenzene", "p-Toluol", "4-Hydroxytoluene", "p-Tolyl alcohol", "1-Hydroxy-4-methylbenzene", "NSC 3696", "1-Methyl-4-hydroxybenzene"], "SMILES": "CC1=CC=C(O)C=C1", "physical_data": {"Molecular Weight": "108.14", "Molecular Formula": "C7H8O", "Boiling Point": "201.8 \u00b0C", "Melting Point": "35.5 \u00b0C", "Density": "1.0185 g/cm\u00b3 @ Temp: 40 \u00b0C"}}