{"cas_no": "106-46-7", "cn_name": "1,4-\u4e8c\u6c2f\u82ef", "en_name": ["1,4-Dichlorobenzene", "Benzene, 1,4-dichloro-", "Benzene, p-dichloro-", "1,4-Dichlorobenzene", "Di-chloricide", "p-Dichlorobenzene", "Paradi", "Paradichlorobenzene", "Paradow", "Paramoth", "PDB", "Santochlor", "p-Chlorophenyl chloride", "Evola", "Persia-Perazol", "para-Dichlorobenzene", "Dichlorocide", "NSC 36935"], "SMILES": "ClC1=CC=C(Cl)C=C1", "physical_data": {"Molecular Weight": "147.00", "Molecular Formula": "C6H4Cl2", "Boiling Point": "174 \u00b0C @ Press: 760 Torr", "Melting Point": "52.7 \u00b0C", "Density": "1.2475 g/cm\u00b3 @ Temp: 20 \u00b0C"}}