{"cas_no": "106-96-7", "cn_name": "3-\u6eb4\u4e19\u7094", "en_name": ["Propargyl bromide", "1-Propyne, 3-bromo-", "Propyne, 3-bromo-", "3-Bromo-1-propyne", "3-Bromopropyne", "Propargyl bromide", "2-Propynyl bromide", "1-Bromo-2-propyne", "NSC 8801", "1-(Bromomethyl)acetylene", "3-Propargyl bromide"], "SMILES": "C(C#C)Br", "physical_data": {"Molecular Weight": "118.96", "Molecular Formula": "C3H3Br", "Boiling Point": "88-90 \u00b0C", "Density": "1.579 g/cm\u00b3 @ Temp: 19 \u00b0C"}}