{"cas_no": "106-55-8", "cn_name": "2,5-\u4e8c\u7532\u57fa\u54cc\u55ea", "en_name": ["2,5-Dimethylpiperazine", "Piperazine, 2,5-dimethyl-", "2,5-Dimethylpiperazine"], "SMILES": "CC1CNC(C)CN1", "physical_data": {"Molecular Weight": "114.19", "Molecular Formula": "C6H14N2", "Boiling Point": "164 \u00b0C", "Melting Point": "116 \u00b0C"}}