{"cas_no": "106-93-4", "cn_name": "1,2-\u4e8c\u6eb4\u4e59\u70f7", "en_name": ["1,2-Dibromoethane", "Ethane, 1,2-dibromo-", "1,2-Dibromoethane", "Bromofume", "sym-Dibromoethane", "\u03b1,\u03b2-Dibromoethane", "Dowfume W 8", "Glycol dibromide", "Iscobrome D", "Soilfume", "Aadibroom", "Dowfume W 85", "Nefis", "Sanhyuum", "Ethylene dibromide", "Ethylene bromide", "EDB", "Soilbrom", "\u03b1,\u03c9-Dibromoethane", "Edabrom", "MeSH ID: D015946"], "SMILES": "C(CBr)Br", "physical_data": {"Molecular Weight": "187.86", "Molecular Formula": "C2H4Br2", "Boiling Point": "131-132 \u00b0C", "Melting Point": "9.97 \u00b0C", "Density": "2.2 g/cm\u00b3"}}