{"cas_no": "106-94-5", "cn_name": "\u6eb4\u4e19\u70f7", "en_name": ["1-Bromopropane", "Propane, 1-bromo-", "1-Bromopropane", "Propyl bromide", "n-Propyl bromide", "Leksol", "Ascusol MC", "1-Propyl bromide", "Drysolv", "3-Bromopropane", "Abzol JG", "PS Cleaner"], "SMILES": "C(CC)Br", "physical_data": {"Molecular Weight": "122.99", "Molecular Formula": "C3H7Br", "Boiling Point": "71 \u00b0C @ Press: 760 Torr", "Melting Point": "-110 \u00b0C", "Density": "1.353 g/cm\u00b3 @ Temp: 20 \u00b0C"}}