{"cas_no": "106-53-6", "cn_name": "4-\u6eb4\u82ef\u786b\u915a", "en_name": ["4-Bromothiophenol", "Benzenethiol, 4-bromo-", "Benzenethiol, p-bromo-", "4-Bromobenzenethiol", "4-Bromothiophenol", "p-Bromobenzenethiol", "p-Bromothiophenol", "p-Bromophenyl thiol", "4-Bromophenylthiol", "NSC 229563", "NSC 32018", "1-Bromo-4-mercaptobenzene", "4-Bromobenzene-1-thiol"], "SMILES": "BrC1=CC=C(S)C=C1", "physical_data": {"Molecular Weight": "189.07", "Molecular Formula": "C6H5BrS", "Boiling Point": "230.5 \u00b0C", "Melting Point": "73 \u00b0C"}}