{"cas_no": "106-97-8", "cn_name": "\u6b63\u4e01\u70f7", "en_name": ["Butane", "Butane", "n-Butane", "Diethyl", "Liquefied petroleum gas", "LPG", "R 600", "R 600 (alkane)", "A 21", "HC 600 (hydrocarbon)", "HC 600", "A 21 (blowing agent)", "A 17"], "SMILES": "C(CC)C", "physical_data": {"Molecular Weight": "58.12", "Molecular Formula": "C4H10", "Boiling Point": "-0.50 \u00b0C", "Melting Point": "-138.2 \u00b0C", "Density": "0.5788 g/cm\u00b3 @ Temp: 20 \u00b0C"}}