{"cas_no": "106-65-0", "cn_name": "\u4e01\u4e8c\u9178\u4e8c\u7532\u916f", "en_name": ["Dimethyl succinate", "Butanedioic acid, 1,4-dimethyl ester", "Succinic acid, dimethyl ester", "Butanedioic acid, dimethyl ester", "Dimethyl succinate", "Methyl succinate", "Dimethyl butanedioate", "DBE 4", "NSC 52209", "Rhodiasolv RDEP", "Dimethyl 1,4-butanedioate", "Provichem 2511", "Proviron 2511ECO"], "SMILES": "C(CCC(OC)=O)(OC)=O", "physical_data": {"Molecular Weight": "146.14", "Molecular Formula": "C6H10O4", "Boiling Point": "195.3 \u00b0C @ Press: 760 Torr", "Melting Point": "19.5 \u00b0C", "Density": "1.1202 g/cm\u00b3 @ Temp: 18 \u00b0C"}}