{"cas_no": "106-63-8", "cn_name": "\u4e19\u70ef\u9178\u5f02\u4e01\u916f", "en_name": ["Isobutyl acrylate", "2-Propenoic acid, 2-methylpropyl ester", "Acrylic acid, isobutyl ester", "Isobutyl acrylate", "Isobutyl 2-propenoate", "NSC 20949", "Light Acrylate AIB", "IBA", "2-Methylpropyl prop-2-enoate"], "SMILES": "C(OCC(C)C)(C=C)=O", "physical_data": {"Molecular Weight": "128.17", "Molecular Formula": "C7H12O2", "Boiling Point": "132 \u00b0C", "Melting Point": "-61 \u00b0C", "Density": "0.8498 g/cm\u00b3 @ Temp: 22 \u00b0C"}}