{"cas_no": "106-74-1", "cn_name": "\u70ef\u4e19\u9178\u4e59\u6c27\u4e59\u916f", "en_name": ["2-Ethoxyethyl acrylate", "2-Propenoic acid, 2-ethoxyethyl ester", "Acrylic acid, 2-ethoxyethyl ester", "Ethanol, 2-ethoxy-, acrylate", "Cellosolve acrylate", "Ethylene glycol monoethyl ether acrylate", "Ethylene glycol monoethyl ether propenoate", "2-Ethoxyethyl acrylate", "A-EE", "NSC 72733", "NSC 8390", "EM 211", "2-Ethoxyethyl propenoate", "Ethylene glycol ethyl ether acrylate", "Ethylmonoglycol acrylate"], "SMILES": "C(OCCOCC)(C=C)=O", "physical_data": {"Molecular Weight": "144.17", "Molecular Formula": "C7H12O3", "Boiling Point": "174 \u00b0C", "Melting Point": "-47 \u00b0C", "Density": "0.983 g/cm\u00b3 @ Temp: 20 \u00b0C"}}