{"cas_no": "106-00-3", "cn_name": "\u53cc(2-\u7532\u6c27\u57fa\u4e59\u57fa)\u5df1\u4e8c\u9178\u916f", "en_name": ["1,6-Bis(2-methoxyethyl) hexanedioate", "Hexanedioic acid, 1,6-bis(2-methoxyethyl) ester", "Adipic acid, bis(2-methoxyethyl) ester", "Hexanedioic acid, bis(2-methoxyethyl) ester", "Ethanol, 2-methoxy-, adipate (2:1)", "1,6-Bis(2-methoxyethyl) hexanedioate", "Bis(2-methoxyethyl) adipate", "Di(2-methoxyethyl) adipate", "NSC 7329"], "SMILES": "C(CCCCC(OCCOC)=O)(OCCOC)=O", "physical_data": {"Molecular Weight": "262.30", "Molecular Formula": "C12H22O6", "Boiling Point": "182-185 \u00b0C @ Press: 9 Torr", "Density": "1.045 g/cm\u00b3 @ Temp: 25 \u00b0C"}}