{"cas_no": "106-91-2", "cn_name": "\u7532\u57fa\u4e19\u70ef\u9178\u7f29\u6c34\u7518\u6cb9\u916f", "en_name": ["Glycidyl methacrylate", "2-Propenoic acid, 2-methyl-, 2-oxiranylmethyl ester", "Methacrylic acid, 2,3-epoxypropyl ester", "2-Propenoic acid, 2-methyl-, oxiranylmethyl ester", "Glycidyl \u03b1-methylacrylate", "2,3-Epoxypropyl methacrylate", "Glycidol methacrylate", "Glycidyl methacrylate", "Blemmer G", "Epoxypropyl methacrylate", "Acryester G", "SY-Monomer G", "Blemmer GMA", "2-[(Methacryloyloxy)methyl]oxirane", "Light Ester G", "SR 379", "Sartomer 379", "(\u00b1)-Glycidyl methacrylate", "Blemmer GP", "3-Methacryloyloxy-1,2-epoxypropane", "Blemmer GS", "NSC 24156", "NSC 67195", "Methacryloyloxymethyloxirane", "Blemmer GH-LC", "2-Methylacrylic acid oxiranylmethyl ester", "Sartomer SR 379", "M 0590", "Blemmer GH", "Acryester GMA", "Acryester GU", "EM 54", "Oxiran-2-ylmethyl methacrylate", "2-Oxiranylmethyl 2-methylacrylate", "H 299431", "GMA 1618", "Merck 2506", "Light Acrylate G"], "SMILES": "C(OC(C(C)=C)=O)C1CO1", "physical_data": {"Molecular Weight": "142.15", "Molecular Formula": "C7H10O3", "Boiling Point": "189 \u00b0C", "Density": "1 x 10<sup>-6</sup> g/cm\u00b3 @ Temp: 25 \u00b0C"}}