{"cas_no": "106-51-4", "cn_name": "\u5bf9\u82ef\u918c", "en_name": ["Quinone", "2,5-Cyclohexadiene-1,4-dione", "p-Benzoquinone", "1,4-Benzoquinone", "Chinone", "1,4-Cyclohexadienedione", "p-Quinone", "Quinone", "Stearer PBQ", "PBQ 2", "NSC 36324", "PBQ", "Inhibitor PBQ", "RS 404", "TR 9005"], "SMILES": "O=C1C=CC(=O)C=C1", "physical_data": {"Molecular Weight": "108.09", "Molecular Formula": "C6H4O2", "Boiling Point": "180 \u00b0C", "Melting Point": "115.7 \u00b0C", "Density": "1.318 g/cm\u00b3 @ Temp: 20 \u00b0C"}}