{"cas_no": "106-31-0", "cn_name": "\u4e01\u9178\u9150", "en_name": ["Butyric anhydride", "Butanoic acid, 1,1\u2032-anhydride", "Butyric anhydride", "Butanoic acid, anhydride", "Butanoic anhydride", "Butyryl oxide", "Butyric acid anhydride", "n-Butyric acid anhydride", "n-Butyric anhydride", "Butanoyl anhydride", "Butanoyl butanoate", "Butyryl anhydride"], "SMILES": "C(OC(CCC)=O)(CCC)=O", "physical_data": {"Molecular Weight": "158.20", "Molecular Formula": "C8H14O3", "Boiling Point": "199.4-201.4 \u00b0C", "Melting Point": "-75 \u00b0C", "Density": "0.9668 g/cm\u00b3 @ Temp: 20 \u00b0C"}}