{"cas_no": "106-58-1", "cn_name": "N,N'-\u4e8c\u7532\u57fa\u54cc\u55ea", "en_name": ["1,4-Dimethylpiperazine", "Piperazine, 1,4-dimethyl-", "1,4-Dimethylpiperazine", "N,N\u2032-Dimethylpiperazine", "Lupetazine", "Texacat DMP", "NSC 41177", "Jeffcat DMP", "RCA 117", "Addocat 117", "Niax DMP"], "SMILES": "CN1CCN(C)CC1", "physical_data": {"Molecular Weight": "114.19", "Molecular Formula": "C6H14N2", "Boiling Point": "131 \u00b0C"}}