{"cas_no": "106-47-8", "cn_name": "4-\u6c2f\u82ef\u80fa", "en_name": ["4-Chloroaniline", "Benzenamine, 4-chloro-", "Aniline, p-chloro-", "4-Chlorobenzenamine", "p-Chloroaniline", "4-Chloroaniline", "p-Chlorophenylamine", "p-Aminochlorobenzene", "1-Amino-4-chlorobenzene", "4-Chloro-1-aminobenzene", "4-Chlorophenylamine", "4-Aminochlorobenzene", "4-Amino-1-chlorobenzene", "NSC 36941"], "SMILES": "ClC1=CC=C(N)C=C1", "physical_data": {"Molecular Weight": "127.57", "Molecular Formula": "C6H6ClN", "Boiling Point": "232 \u00b0C", "Melting Point": "72.5 \u00b0C", "Density": "1.169 g/cm\u00b3 @ Temp: 77 \u00b0C"}}