{"cas_no": "106-75-2", "cn_name": "\u4e8c\u4e59\u4e8c\u9187\u53cc\u6c2f\u7532\u9178\u916f", "en_name": ["C,C\u2032-(Oxydi-2,1-ethanediyl) dicarbonochloridate", "Carbonochloridic acid, C,C\u2032-(oxydi-2,1-ethanediyl) ester", "Formic acid, chloro-, oxydiethylene ester", "Carbonochloridic acid, oxydi-2,1-ethanediyl ester", "Formic acid, chloro-, diester with diethylene glycol", "Diethylene glycol, bis(chloroformate)", "C,C\u2032-(Oxydi-2,1-ethanediyl) dicarbonochloridate", "Oxydiethylene chloroformate", "1,5-Bis[(chlorocarbonyl)oxy]-3-oxapentane", "Oxydiethylene bis(chloroformate)", "Bis(2-chlorocarbonyloxyethyl)ether", "NSC 2346"], "SMILES": "C(OC(Cl)=O)COCCOC(Cl)=O", "physical_data": {"Molecular Weight": "231.03", "Molecular Formula": "C6H8Cl2O5", "Boiling Point": "127 \u00b0C @ Press: 5 Torr", "Density": "1.35 g/cm\u00b3 @ Temp: 27 \u00b0C"}}