{"cas_no": "106-40-1", "cn_name": "4-\u6eb4\u82ef\u80fa", "en_name": ["4-Bromoaniline", "Benzenamine, 4-bromo-", "Aniline, p-bromo-", "4-Bromobenzenamine", "p-Bromoaniline", "4-Bromoaniline", "p-Bromophenylamine", "1-Amino-4-bromobenzene", "p-Aminobromobenzene", "4-Bromophenylamine", "NSC 7085", "4-Aminobromobenzene", "p-Aminophenyl bromide"], "SMILES": "BrC1=CC=C(N)C=C1", "physical_data": {"Molecular Weight": "172.02", "Molecular Formula": "C6H6BrN", "Melting Point": "66-66.5 \u00b0C", "Density": "1.4970 g/cm\u00b3 @ Temp: 99.6 \u00b0C"}}