{"cas_no": "106-30-9", "cn_name": "\u5e9a\u9178\u4e59\u916f", "en_name": ["Ethyl heptanoate", "Heptanoic acid, ethyl ester", "Enanthic acid, ethyl ester", "Cognac oil", "Enanthylic ether", "Ethyl enanthate", "Ethyl heptanoate", "Ethyl heptoate", "Ethyl heptylate", "Ethyl oenanthate", "Ethyl oenanthylate", "Oenanthic ether", "Ethyl n-heptanoate", "NSC 8891", "Synthetic cognac oil"], "SMILES": "C(CCCCCC)(OCC)=O", "physical_data": {"Molecular Weight": "158.24", "Molecular Formula": "C9H18O2", "Boiling Point": "187 \u00b0C", "Melting Point": "-66.1 \u00b0C", "Density": "0.7775 g/cm\u00b3 @ Temp: 20 \u00b0C"}}