{"cas_no": "106-50-3", "cn_name": "\u5bf9\u82ef\u4e8c\u80fa", "en_name": ["p-Phenylenediamine", "1,4-Benzenediamine", "p-Phenylenediamine", "C.I. 76060", "BASF Ursol D", "Benzofur D", "C.I. Developer 13", "C.I. Oxidation Base 10", "Developer PF", "p-Diaminobenzene", "Durafur Black R", "Fouramine D", "Fourrine D", "Fourrine 1", "Fur Black 41867", "Fur Brown 41866", "Furro D", "Fur Yellow", "Futramine D", "Nako H", "Orsin", "Pelagol D", "Pelagol DR", "Pelagol Grey D", "Peltol D", "Renal PF", "Tertral D", "Ursol D", "Zoba Black D", "4-Aminoaniline", "p-Aminoaniline", "p-Benzenediamine", "1,4-Diaminobenzene", "1,4-Phenylenediamine", "1,4-Diaminobenzol", "PPD", "Black for Fur D", "Rodol DJ", "NSC 4777", "(4-Aminophenyl)amine", "Rodol D", "4-Phenylenediamine", "Paramine", "PDA", "pPDA", "P 6001-250G"], "SMILES": "NC1=CC=C(N)C=C1", "physical_data": {"Molecular Weight": "108.14", "Molecular Formula": "C6H8N2", "Boiling Point": "267 \u00b0C", "Melting Point": "145-147 \u00b0C", "Density": "1.1 g/cm\u00b3"}}