{"cas_no": "106-79-6", "cn_name": "\u7678\u4e8c\u9178\u4e8c\u7532\u916f", "en_name": ["Dimethyl sebacate", "Decanedioic acid, 1,10-dimethyl ester", "Sebacic acid, dimethyl ester", "Decanedioic acid, dimethyl ester", "Dimethyl sebacate", "Dimethyl octane-1,8-dicarboxylate", "Dimethyldecanedioate", "Dimethyl decane-1,10-dioate", "NSC 9415"], "SMILES": "C(CCCCCCCCC(OC)=O)(OC)=O", "physical_data": {"Molecular Weight": "230.30", "Molecular Formula": "C12H22O4", "Boiling Point": "293 \u00b0C @ Press: 154 Torr", "Melting Point": "38 \u00b0C", "Density": "0.9944 g/cm\u00b3 @ Temp: 25 \u00b0C"}}