{"cas_no": "106-57-0", "cn_name": "\u7518\u6c28\u9178\u9150", "en_name": ["2,5-Piperazinedione", "2,5-Piperazinedione", "Cycloglycylglycine", "\u03b1,\u03b3-Diacipiperazine", "Diglycolyl diamide", "2,5-Diketopiperazine", "2,5-Dioxopiperazine", "Glycylglycine lactam", "Glycine, N-glycyl-, cyclic peptide", "Cyclo(glycylglycyl)", "Cyclodiglycine", "Diketopiperazine", "Cyclo(Gly-Gly)", "Glycine, bimol. cyclic peptide", "NSC 26345", "Glycine cyclic dimer"], "SMILES": "O=C1CNC(=O)CN1", "physical_data": {"Molecular Weight": "114.10", "Molecular Formula": "C4H6N2O2", "Melting Point": "312 \u00b0C (decomp)"}}