{"cas_no": "106-67-2", "cn_name": "2-\u4e59\u57fa4-\u7532\u57fa1-\u620a\u9187", "en_name": ["2-Ethyl-4-methylpentanol", "1-Pentanol, 2-ethyl-4-methyl-", "2-Ethyl-4-methyl-1-pentanol", "2-Ethyl-4-methylpentanol"], "SMILES": "C(CC(C)C)(CC)CO", "physical_data": {"Molecular Weight": "130.23", "Molecular Formula": "C8H18O", "Boiling Point": "75-77 \u00b0C @ Press: 10 Torr", "Density": "0.830 g/cm\u00b3 @ Temp: 20 \u00b0C"}}