{"cas_no": "106-49-0", "cn_name": "\u5bf9\u7532\u82ef\u80fa", "en_name": ["4-Methylaniline", "Benzenamine, 4-methyl-", "p-Toluidine", "4-Methylbenzenamine", "p-Aminotoluene", "4-Aminotoluene", "p-Tolylamine", "4-Methylaniline", "p-Methylaniline", "p-Methylbenzenamine", "4-Toluidine", "C.I. 37107", "C.I. Azoic Coupling Component 107", "Naphtol AS-KG", "Naphtol AS-KGLL", "1-Amino-4-methylbenzene", "p-Methylphenylamine", "4-Methylphenylamine", "4-Methyl-1-aminobenzene", "4-Tolylamine", "NSC 114040", "NSC 15350", "Naphthol AS-KG", "4-Amino-1-methylbenzene"], "SMILES": "CC1=CC=C(N)C=C1", "physical_data": {"Molecular Weight": "107.15", "Molecular Formula": "C7H9N", "Boiling Point": "200.4 \u00b0C", "Melting Point": "44-45 \u00b0C", "Density": "1.046 g/cm\u00b3 @ Temp: 20 \u00b0C"}}