{"cas_no": "106-88-7", "cn_name": "1,2-\u73af\u6c27\u4e01\u70f7", "en_name": ["1,2-Epoxybutane", "Oxirane, 2-ethyl-", "Butane, 1,2-epoxy-", "Oxirane, ethyl-", "2-Ethyloxirane", "1-Butene oxide", "1,2-Butene oxide", "1,2-Butylene oxide", "1,2-Epoxybutane", "Ethylethylene oxide", "\u03b1-Butylene oxide", "Ethyloxirane", "1-Butylene oxide", "Butene 1,2-epoxide", "1,2-Butylene epoxide", "DL-1,2-Epoxybutane", "(\u00b1)-Ethyloxirane", "(\u00b1)-2-Ethyloxirane", "Epoxybutane", "NSC 24240", "Butylene oxide", "1,2-Cyclobutane epoxide"], "SMILES": "C(C)C1CO1", "physical_data": {"Molecular Weight": "72.11", "Molecular Formula": "C4H8O", "Boiling Point": "63.3 \u00b0C", "Melting Point": "-150 \u00b0C", "Density": "0.8297 g/cm\u00b3 @ Temp: 20 \u00b0C"}}