{"cas_no": "106-39-8", "cn_name": "4-\u6eb4\u6c2f\u82ef", "en_name": ["1-Bromo-4-chlorobenzene", "Benzene, 1-bromo-4-chloro-", "1-Bromo-4-chlorobenzene", "p-Chlorobromobenzene", "4-Bromochlorobenzene", "p-Bromochlorobenzene", "p-Chlorophenyl bromide", "1-Chloro-4-bromobenzene", "4-Chlorophenyl bromide", "4-Chlorobromobenzene", "4-Chloro-1-bromobenzene", "p-Bromophenyl chloride", "4-Bromo-1-chlorobenzene", "NSC 17587", "4-Bromophenyl chloride", "4-Chlorobenzene bromide"], "SMILES": "BrC1=CC=C(Cl)C=C1", "physical_data": {"Molecular Weight": "191.45", "Molecular Formula": "C6H4BrCl", "Boiling Point": "196 \u00b0C", "Melting Point": "68 \u00b0C", "Density": "1.6349 g/cm\u00b3 @ Temp: 20 \u00b0C"}}