{"cas_no": "106-70-7", "cn_name": "\u5df1\u9178\u7532\u916f", "en_name": ["Methyl hexanoate", "Hexanoic acid, methyl ester", "Methyl caproate", "Methyl hexanoate", "Methyl hexoate", "Methyl n-hexanoate", "Methyl capronate", "NSC 5023", "Pastell M 6", "Caproic acid methyl ester", "Agnique 610G"], "SMILES": "C(CCCCC)(OC)=O", "physical_data": {"Molecular Weight": "130.18", "Molecular Formula": "C7H14O2", "Boiling Point": "149.5 \u00b0C", "Melting Point": "-71 \u00b0C", "Density": "0.8858 g/cm\u00b3 @ Temp: 20 \u00b0C"}}