{"cas_no": "106-27-4", "cn_name": "\u4e01\u9178\u5f02\u620a\u916f", "en_name": ["Isoamyl butyrate", "Butanoic acid, 3-methylbutyl ester", "Butyric acid, isopentyl ester", "Isopentyl alcohol, butyrate", "Isoamyl butanoate", "Isoamyl butyrate", "Isopentyl butyrate", "3-Methylbutyl butyrate", "Isoamyl butylate", "Isopentyl butanoate", "3-Methylbutyl n-butyrate", "3-Methylbutyl butanoate", "Butyric acid 3-methylbutyl ester", "NSC 6548", "3-Methyl-1-butyl butanoate"], "SMILES": "C(OCCC(C)C)(CCC)=O", "physical_data": {"Molecular Weight": "158.24", "Molecular Formula": "C9H18O2", "Boiling Point": "179 \u00b0C", "Melting Point": "-73.2 \u00b0C", "Density": "0.860 g/cm\u00b3 @ Temp: 154 \u00b0C"}}