{"cas_no": "106-24-1", "cn_name": "\u9999\u53f6\u9187", "en_name": ["Geraniol", "2,6-Octadien-1-ol, 3,7-dimethyl-, (2E)-", "2,6-Octadien-1-ol, 3,7-dimethyl-, (E)-", "(2E)-3,7-Dimethyl-2,6-octadien-1-ol", "Geraniol", "Geranyl alcohol", "Lemonol", "trans-3,7-Dimethyl-2,6-octadien-1-ol", "trans-Geraniol", "\u03b2-Geraniol", "(E)-Geraniol", "(E)-Nerol", "(E)-3,7-Dimethyl-2,6-octadien-1-ol", "NSC 9279", "MosquitoSafe", "3,7-Dimethyl-trans-2,6-octadien-1-ol", "(E)-3,7-Dimethyl-2,6-octadienol", "Geraniol BJ", "Geraniol 60", "Geraniol 980", "trans-1-Hydroxy-3,7-dimethyl-2,6-octadiene", "TT 4228", "TT 4302", "Geraniol super", "(E)-3,7-Dimethyl-2,6-octadien-1-ol", "Geraniol Supra", "ZIF-77", "Nerol 800"], "SMILES": "C(CCC=C(C)C)(=CCO)C", "physical_data": {"Molecular Weight": "154.25", "Molecular Formula": "C10H18O", "Boiling Point": "230 \u00b0C @ Press: 760 Torr", "Melting Point": "&lt;-15 \u00b0C", "Density": "0.8894 g/cm\u00b3 @ Temp: 20 \u00b0C"}}