{"cas_no": "106-89-8", "cn_name": "\u73af\u6c27\u6c2f\u4e19\u70f7", "en_name": ["Epichlorohydrin", "Oxirane, 2-(chloromethyl)-", "Propane, 1-chloro-2,3-epoxy-", "Oxirane, (chloromethyl)-", "2-(Chloromethyl)oxirane", "1-Chloro-2,3-epoxypropane", "3-Chloro-1,2-epoxypropane", "Epichlorohydrin", "\u03b3-Chloropropylene oxide", "3-Chloro-1,2-propylene oxide", "\u03b1-Epichlorohydrin", "(Chloromethyl)ethylene oxide", "1,2-Epoxy-3-chloropropane", "2,3-Epoxypropyl chloride", "(Chloromethyl)oxirane", "Chloropropylene oxide", "3-Chloropropene-1,2-oxide", "Glycidyl chloride", "Glycerol epichlorohydrin", "3-Chloropropylene oxide", "J 006", "dl-\u03b1-Epichlorohydrin", "(RS)-Epichlorhydrin", "(\u00b1)-Epichlorohydrin", "NSC 6747", "Epoxychloropropane", "Epicerol", "10: PN: WO2017021334 SEQID: 16 claimed sequence", "3-Chloropropylene epoxide", "MeSH ID: D004811"], "SMILES": "C(Cl)C1CO1", "physical_data": {"Molecular Weight": "92.52", "Molecular Formula": "C3H5ClO", "Boiling Point": "117.9 \u00b0C", "Melting Point": "-25.6 \u00b0C", "Density": "1.1750 g/cm\u00b3 @ Temp: 25 \u00b0C"}}