{"cas_no": "106-99-0", "cn_name": "1,3-\u4e01\u4e8c\u70ef", "en_name": ["1,3-Butadiene", "1,3-Butadiene", "Biethylene", "Bivinyl", "\u03b1,\u03b3-Butadiene", "Divinyl", "Erythrene", "Vinylethylene", "Butadiene", "Butadiene-1,3"], "SMILES": "C(C=C)=C", "physical_data": {"Molecular Weight": "54.09", "Molecular Formula": "C4H6", "Boiling Point": "-4.5 \u00b0C @ Press: 760 Torr", "Melting Point": "-108.966 \u00b0C", "Density": "0.6149 g/cm\u00b3 @ Temp: 25 \u00b0C"}}