{"cas_no": "106-28-5", "cn_name": "\u91d1\u5408\u6b22\u9187", "en_name": ["trans-Farnesol", "2,6,10-Dodecatrien-1-ol, 3,7,11-trimethyl-, (2E,6E)-", "2,6,10-Dodecatrien-1-ol, 3,7,11-trimethyl-, (E,E)-", "2,6,10-Dodecatrien-1-ol, 3,7,11-trimethyl-(farnesol)", "(2E,6E)-3,7,11-Trimethyl-2,6,10-dodecatrien-1-ol", "trans-2,trans-6-Farnesol", "trans,trans-Farnesol", "2,6-Di-trans-farnesol", "2,6-trans,trans-Farnesol", "trans-Farnesol", "Inhibitor A2", "2-trans,6-trans-Farnesol", "3,7,11-Trimethyldodeca-2-trans,6-trans,10-trien-1-ol", "(2E,6E)-Farnesol", "all-trans-Farnesol", "(t,t)-Farnesol", "(E,E)-Farnesol", "all-E-Farnesol", "(E)-\u03b2-Farnesol", "(E,E)-3,7,11-Trimethyl-2,6,10-dodecatrien-1-ol", "(E,E)-Farnesyl alcohol", "trans-1-Hydroxy-3,7,11-trimethyl-2,6,10-dodecatriene", "(2E,6E)-3,7,11-Trimethyldodeca-2,6,10-trien-1-ol"], "SMILES": "C(=CCCC(=CCO)C)(CCC=C(C)C)C", "physical_data": {"Molecular Weight": "222.37", "Molecular Formula": "C15H26O", "Melting Point": "61-63 \u00b0C"}}