{"cas_no": "106-42-3", "cn_name": "\u5bf9\u4e8c\u7532\u82ef", "en_name": ["p-Xylene", "Benzene, 1,4-dimethyl-", "p-Xylene", "1,4-Dimethylbenzene", "p-Xylol", "1,4-Xylene", "p-Dimethylbenzene", "p-Methyltoluene", "4-Methyltoluene", "p-Phenylenebis(methylene)", "NSC 72419"], "SMILES": "CC1=CC=C(C)C=C1", "physical_data": {"Molecular Weight": "106.17", "Molecular Formula": "C8H10", "Boiling Point": "138.35 \u00b0C", "Melting Point": "13.2 \u00b0C", "Density": "0.86104 g/cm\u00b3 @ Temp: 20 \u00b0C"}}