{"cas_no": "106-41-2", "cn_name": "4-\u6eb4\u82ef\u915a", "en_name": ["4-Bromophenol", "Phenol, 4-bromo-", "Phenol, p-bromo-", "4-Bromophenol", "p-Bromophenol", "p-Bromohydroxybenzene", "p-Bromophenic acid", "1-Bromo-4-hydroxybenzene", "NSC 4970", "4-Hydroxyphenyl bromide", "4-Hydroxybromobenzene"], "SMILES": "BrC1=CC=C(O)C=C1", "physical_data": {"Molecular Weight": "173.01", "Molecular Formula": "C6H5BrO", "Boiling Point": "238 \u00b0C", "Melting Point": "66.4 \u00b0C"}}