{"cas_no": "106-21-8", "cn_name": "3\uff0c7-\u4e8c\u7532\u57fa-1-\u8f9b\u9187", "en_name": ["3,7-Dimethyl-1-octanol", "1-Octanol, 3,7-dimethyl-", "3,7-Dimethyl-1-octanol", "Citronellol, dihydro-", "Dihydrocitronellol", "2,6-Dimethyl-8-octanol", "Geraniol, perhydro-", "Geraniol, tetrahydro-", "Geraniol tetrahydride", "Pelargol", "Perhydrogeraniol", "Tetrahydrogeraniol", "3,7-Dimethyloctane-1-ol", "(\u00b1)-3,7-Dimethyloctan-1-ol", "NSC 18917"], "SMILES": "C(CCCC(C)C)(CCO)C", "physical_data": {"Molecular Weight": "158.28", "Molecular Formula": "C10H22O", "Boiling Point": "115-120 \u00b0C @ Press: 15 Torr", "Density": "0.852 g/cm\u00b3 @ Temp: 18 \u00b0C"}}