{"cas_no": "106-87-6", "cn_name": "4-\u4e59\u70ef\u57fa-1-\u73af\u5df1\u70ef\u4e8c\u73af\u6c27\u5316\u7269,\u5f02\u6784\u4f53\u6df7\u5408\u7269", "en_name": ["Vinylcyclohexene diepoxide", "7-Oxabicyclo[4.1.0]heptane, 3-(2-oxiranyl)-", "7-Oxabicyclo[4.1.0]heptane, 3-(epoxyethyl)-", "7-Oxabicyclo[4.1.0]heptane, 3-oxiranyl-", "3-(2-Oxiranyl)-7-oxabicyclo[4.1.0]heptane", "1,2-Epoxy-4-(epoxyethyl)cyclohexane", "4-Vinylcyclohexene diepoxide", "4-Vinyl-1-cyclohexene dioxide", "1-(Epoxyethyl)-3,4-epoxycyclohexane", "4-Vinyl-1,2-cyclohexene diepoxide", "4-Vinyl-1-cyclohexene diepoxide", "1-Vinyl-3-cyclohexene dioxide", "3-(1,2-Epoxyethyl)-7-oxabicyclo[4.1.0]heptane", "Vinylcyclohexene diepoxide", "3-(Epoxyethyl)-7-oxabicyclo[4.1.0]heptane", "4-Vinylcyclohexene dioxide", "Chissonox 206 monomer", "4-(1,2-Epoxyethyl)-1,2-epoxycyclohexane", "NSC 54752", "NSC 61281", "NSC 7583", "Diluent 6206", "4-Vinyl-1,2-cyclohexene dioxide", "1,2-Epoxy-4-(2-oxiranyl)cyclohexane", "3-Oxiranyl-7-oxa-bicyclo[4.1.0]heptane"], "SMILES": "C12C(O1)CCC(C2)C3CO3", "physical_data": {"Molecular Weight": "140.18", "Molecular Formula": "C8H12O2", "Boiling Point": "227 \u00b0C @ Press: 760 Torr", "Melting Point": "&lt;-55 \u00b0C", "Density": "1.0986 g/cm\u00b3 @ Temp: 20 \u00b0C"}}