{"cas_no": "106-19-4", "cn_name": "\u5df1\u4e8c\u9178\u4e8c\u4e19\u916f", "en_name": ["Dipropyl adipate", "Hexanedioic acid, 1,6-dipropyl ester", "Adipic acid, dipropyl ester", "Hexanedioic acid, dipropyl ester", "Dipropyl adipate", "Di-n-propyl adipate", "Dipropyl hexanedioate", "Adipic acid di-n-propyl ester", "NSC 4894"], "SMILES": "C(CCCCC(OCCC)=O)(OCCC)=O", "physical_data": {"Molecular Weight": "230.30", "Molecular Formula": "C12H22O4", "Boiling Point": "155 \u00b0C @ Press: 16 Torr", "Melting Point": "-15.7 \u00b0C", "Density": "0.9804 g/cm\u00b3 @ Temp: 20 \u00b0C"}}