{"cas_no": "10605-40-0", "cn_name": "\u4e8c\u7532\u57fa-3-\u6c2f\u4e19\u57fa\u6c2f\u4ee3\u7845\u70f7", "en_name": ["Chloro(3-chloropropyl)dimethylsilane", "Silane, chloro(3-chloropropyl)dimethyl-", "Chloro(3-chloropropyl)dimethylsilane", "(3-Chloropropyl)dimethylchlorosilane", "(3-Chloropropyl)dimethylsilyl chloride", "3-(Chlorodimethylsilyl)propyl chloride", "Dimethyl(3-chloropropyl)chlorosilane"], "SMILES": "C([Si](C)(C)Cl)CCCl", "physical_data": {"Molecular Weight": "171.14", "Molecular Formula": "C5H12Cl2Si", "Boiling Point": "179 \u00b0C", "Density": "1.043 g/cm\u00b3 @ Temp: 25 \u00b0C"}}