{"cas_no": "106012-56-0", "cn_name": "\u54aa\u5511\u5e76[1,2-A]\u5627\u5576-3-\u7532\u919b", "en_name": ["Imidazo[1,2-a]pyrimidine-3-carboxaldehyde", "Imidazo[1,2-a]pyrimidine-3-carboxaldehyde"], "SMILES": "C(=O)C=1N2C(=NC1)N=CC=C2", "physical_data": {"Molecular Weight": "147.13", "Molecular Formula": "C7H5N3O", "Melting Point": "169-171 \u00b0C"}}