{"cas_no": "10603-53-9", "cn_name": "3-\u6c30\u57fa\u5421\u54af\u70f7", "en_name": ["3-Pyrrolidinecarbonitrile", "3-Pyrrolidinecarbonitrile", "3-Cyanopyrrolidine"], "SMILES": "C(#N)C1CCNC1", "physical_data": {"Molecular Weight": "96.13", "Molecular Formula": "C5H8N2", "Boiling Point": "115-120 \u00b0C @ Press: 50 Torr"}}