{"cas_no": "10603-92-6", "cn_name": "\u4e09\u7532\u57fa\u4e59\u70ef\u57fa\u6eb4\u5316\u94f5", "en_name": ["Ethenaminium, N,N,N-trimethyl-, bromide (1:1)", "Ethenaminium, N,N,N-trimethyl-, bromide (1:1)", "Ammonium, trimethylvinyl-, bromide", "Ethenaminium, N,N,N-trimethyl-, bromide", "Trimethylvinylammonium bromide", "Neurine bromide"], "SMILES": "[N+](C=C)(C)(C)C.[Br-]", "physical_data": {"Molecular Weight": "", "Molecular Formula": "C5H12N.Br", "Melting Point": "192-193 \u00b0C (decomp)"}}