{"cas_no": "10601-80-6", "cn_name": "3,3-\u4e8c\u4e59\u6c27\u57fa\u4e19\u9178\u4e59\u916f", "en_name": ["Propanoic acid, 3,3-diethoxy-, ethyl ester", "Propanoic acid, 3,3-diethoxy-, ethyl ester", "Malonaldehydic acid, ethyl ester, diethyl acetal", "Propionic acid, 3,3-diethoxy-, ethyl ester", "Ethyl 3,3-diethoxypropionate", "Ethyl \u03b2,\u03b2-diethoxypropionate", "Ethyl 3,3-diethoxypropanoate", "3,3-Diethoxypropionic acid ethyl ester", "NSC 83149", "Ethyl 3,3-bis(ethyloxy)propionate"], "SMILES": "C(CC(OCC)=O)(OCC)OCC", "physical_data": {"Molecular Weight": "190.24", "Molecular Formula": "C9H18O4", "Boiling Point": "206 \u00b0C @ Press: 754 Torr", "Melting Point": "200-202 \u00b0C", "Density": "0.9735 g/cm\u00b3 @ Temp: 20 \u00b0C"}}