{"cas_no": "106047-29-4", "cn_name": "2-(\u5421\u5576-4-\u57fa)-6-\u6eb4\u5421\u5576", "en_name": ["6-Bromo-2,4\u2032-bipyridine", "2,4\u2032-Bipyridine, 6-bromo-", "6-Bromo-2,4\u2032-bipyridine", "2-Bromo-6-(4-pyridinyl)pyridine"], "SMILES": "BrC1=NC(=CC=C1)C=2C=CN=CC2", "physical_data": {"Molecular Weight": "235.08", "Molecular Formula": "C10H7BrN2", "Melting Point": "101-103 \u00b0C"}}