{"cas_no": "10605-21-7", "cn_name": "\u591a\u83cc\u7075", "en_name": ["Carbendazim", "Carbamic acid, N-1H-benzimidazol-2-yl-, methyl ester", "2-Benzimidazolecarbamic acid, methyl ester", "Carbamic acid, 1H-benzimidazol-2-yl-, methyl ester", "MBC", "CTR 6669", "Methyl 2-benzimidazolecarbamate", "Methyl 1H-benzimidazol-2-ylcarbamate", "Methyl 2-benzimidazolylcarbamate", "HOE 17411", "Carbendazim", "Carbendazole", "2-[(Methoxycarbonyl)amino]benzimidazole", "Bavistin", "BAS 67054F", "BAS 3460F", "Methyl 1H-benzimidazole-2-carbamate", "Carbendazime", "BMK", "G 665", "Preparation G 665", "Carbendazol", "BAS 3460", "2-(Carbomethoxyamino)benzimidazole", "2-(Methoxycarbamoyl)benzimidazole", "Derosal", "Bavistine", "BMK (fungicide)", "Methyl benzimidazolylcarbamate", "Funaben", "U 32104", "Mecarzole", "IPO 1250", "Bavistin 3460", "Thicoper", "Lignasan", "A 118", "A 118 (pesticide)", "Medamine", "Delsene 10", "2-(Methoxycarboxamido)benzimidazole", "Delsene", "Kolfugo", "Funaben 50", "Derosal 60PM", "Myco", "Antibac MF", "Supercarb", "BCM", "BCM (fungicide)", "Battal", "EK 578", "Bavistin FL", "Triticol", "Garbenda", "Kolfugo Extra", "Bitosen", "Bavistin 25SD", "Bavistin 50SD", "Funaben 3", "Bavistan", "Bercema-Bitosen", "Stein", "Spin", "Preventol BCM", "Falicarben", "Bengard", "Agrizim", "Carben VL", "Zhiweiling", "IPO Y", "Spin (pesticide)", "Olgin", "Jkstein", "Olgin (fungicide)", "Kolfugo 25FW", "Methoxycarbonylaminobenzimidazole", "Karben flo Stefes", "Karben", "Karben Stefes Flo", "Sarfun", "Fungoxan", "Protek", "NSC 109874", "Subeej", "Ferazim", "Corbel", "Pillarstin", "Kemdazin", "Carbendor", "Stempor", "Cekudazim", "Custos", "Defensor", "Carbate", "Equitdazin", "Aimcozim", "Bendazim", "Derroprene", "Supercarb (fungicide)", "Methyl 1H-2-benzimidazolecarbaminate", "Kolfugo Super", "FB 642", "Benfil", "Spin Flo", "Dhanustin", "GLSTIN", "Galofungin", "San-ai 700", "Derosol 60WP", "Biocut BM 10", "B 350", "Amolden TSM 32", "Corzim 50WP", "Corzim", "Bavistin DF", "Troysan CF 20", "Elsa", "Carbomax", "Bavistin 50WP", "Carbex 500SC", "Duojunling ISO", "Apizas AP-OK", "Kvistin", "OCZOIT"], "SMILES": "N(C(OC)=O)C=1NC=2C(N1)=CC=CC2", "physical_data": {"Molecular Weight": "191.19", "Molecular Formula": "C9H9N3O2", "Melting Point": "300 \u00b0C (decomp)", "Density": "1.45 g/cm\u00b3 @ Temp: 20 \u00b0C"}}