{"cas_no": "10602-34-3", "cn_name": "\u5df4\u8c46\u919b\u7f29\u4e8c\u4e59\u9187", "en_name": ["1,1-Diethoxy-2-butene", "2-Butene, 1,1-diethoxy-", "Crotonaldehyde, diethyl acetal", "1,1-Diethoxy-2-butene", "2-Butenal diethyl acetal", "NSC 219876", "NSC 506646"], "SMILES": "C(C=CC)(OCC)OCC", "physical_data": {"Molecular Weight": "144.21", "Molecular Formula": "C8H16O2", "Boiling Point": "147.5 \u00b0C"}}