{"cas_no": "106017-08-7", "cn_name": "\u76d0\u9178\u82a6\u6c1f\u6c99\u661f", "en_name": ["7H-Pyrido[1,2,3-de]-1,4-benzothiazine-6-carboxylic acid, 9-fluoro-2,3-dihydro-10-(4-methyl-1-piperazinyl)-7-oxo-, hydrochloride (1:1)", "7H-Pyrido[1,2,3-de]-1,4-benzothiazine-6-carboxylic acid, 9-fluoro-2,3-dihydro-10-(4-methyl-1-piperazinyl)-7-oxo-, hydrochloride (1:1)", "7H-Pyrido[1,2,3-de]-1,4-benzothiazine-6-carboxylic acid, 9-fluoro-2,3-dihydro-10-(4-methyl-1-piperazinyl)-7-oxo-, monohydrochloride", "Rufloxacin hydrochloride", "ISF 09334", "Qari", "Monos", "Tebraxin"], "SMILES": "O=C1C=2C3=C(C(=C(F)C2)N4CCN(C)CC4)SCCN3C=C1C(O)=O.Cl", "physical_data": {"Molecular Weight": "", "Molecular Formula": "C17H18FN3O3S.ClH", "Melting Point": "322-324 \u00b0C"}}