{"cas_no": "1060815-92-0", "cn_name": "4-\u6c2f-5-\u7898-2-\u7532\u57fa-7H-\u5421\u54af\u5e76[2,3-D]\u5627\u5576", "en_name": ["4-Chloro-5-iodo-2-methyl-7H-pyrrolo[2,3-d]pyrimidine", "7H-Pyrrolo[2,3-d]pyrimidine, 4-chloro-5-iodo-2-methyl-", "4-Chloro-5-iodo-2-methyl-7H-pyrrolo[2,3-d]pyrimidine"], "SMILES": "ClC1=C2C(=NC(C)=N1)NC=C2I", "physical_data": {"Molecular Weight": "293.49", "Molecular Formula": "C7H5ClIN3", "Melting Point": "229-231 \u00b0C"}}