{"cas_no": "10606-42-5", "cn_name": "3-\u7532\u6c27\u57fa\u4e19\u9178\u4e59\u916f", "en_name": ["Ethyl 3-methoxypropanoate", "Propanoic acid, 3-methoxy-, ethyl ester", "Propionic acid, 3-methoxy-, ethyl ester", "Ethyl 3-methoxypropanoate", "Ethyl 3-methoxypropionate", "\u03b2-Methoxypropionic acid ethyl ester"], "SMILES": "C(CCOC)(OCC)=O", "physical_data": {"Molecular Weight": "132.16", "Molecular Formula": "C6H12O3", "Boiling Point": "60 \u00b0C @ Press: 20 Torr", "Density": "0.9754 g/cm\u00b3 @ Temp: 20 \u00b0C"}}