{"cas_no": "10602-37-6", "cn_name": "1,1,3,3-\u56db\u4e59\u6c27\u57fa-2-\u7532\u57fa\u4e19\u70f7", "en_name": ["1,1,3,3-Tetraethoxy-2-methylpropane", "Propane, 1,1,3,3-tetraethoxy-2-methyl-", "Malonaldehyde, methyl-, bis(diethyl acetal)", "1,1,3,3-Tetraethoxy-2-methylpropane", "Methylmalonaldehyde tetraethyl diacetal", "2-Methyl-1,1,3,3-tetraethoxypropane"], "SMILES": "C(C(C(OCC)OCC)C)(OCC)OCC", "physical_data": {"Molecular Weight": "234.33", "Molecular Formula": "C12H26O4", "Boiling Point": "118-122 \u00b0C @ Press: 30 Torr", "Density": "0.9164 g/cm\u00b3 @ Temp: 20 \u00b0C"}}