{"cas_no": "10601-19-1", "cn_name": "5-\u7532\u6c27\u57fa\u5432\u54da-3-\u7532\u919b", "en_name": ["5-Methoxyindole-3-carboxaldehyde", "1H-Indole-3-carboxaldehyde, 5-methoxy-", "Indole-3-carboxaldehyde, 5-methoxy-", "5-Methoxy-1H-indole-3-carboxaldehyde", "5-Methoxyindole-3-carboxaldehyde", "5-Methoxy-3-indolealdehyde", "3-Formyl-5-methoxyindole", "NSC 521754", "3-Formyl-5-methoxy-1H-indole", "5-Methoxy-1H-indole-3-carbaldehyde"], "SMILES": "C(=O)C=1C=2C(NC1)=CC=C(OC)C2", "physical_data": {"Molecular Weight": "175.18", "Molecular Formula": "C10H9NO2", "Melting Point": "178 \u00b0C"}}