{"cas_no": "10606-72-1", "cn_name": "-(-)-\u6241\u6843\u9178\u4e59\u916f", "en_name": ["(-)-Ethyl mandelate", "Benzeneacetic acid, \u03b1-hydroxy-, ethyl ester, (\u03b1R)-", "Mandelic acid, ethyl ester, (R)-", "Benzeneacetic acid, \u03b1-hydroxy-, ethyl ester, (R)-", "(R)-(-)-Ethyl mandelate", "D-(-)-Ethyl mandelate", "Ethyl (R)-mandelate", "Ethyl (R)-\u03b1-hydroxybenzeneacetate", "(-)-\u03b1-Hydroxybenzeneacetic acid ethyl ester", "D-(-)-Mandelic acid ethyl ester", "(-)-Mandelic acid ethyl ester", "(R)-(-)-Mandelic acid ethyl ester", "(\u03b1R)-\u03b1-Hydroxybenzeneacetic acid ethyl ester", "(-)-Ethyl mandelate", "(R)-\u03b1-Hydroxybenzeneacetic acid ethyl ester", "(R)-Ethyl (hydroxy)(phenyl)acetate", "Ethyl (R)-2-hydroxy-2-phenylacetate"], "SMILES": "C(C(OCC)=O)(O)C1=CC=CC=C1", "physical_data": {"Molecular Weight": "180.20", "Molecular Formula": "C10H12O3", "Boiling Point": "101-103 \u00b0C @ Press: 2 Torr", "Melting Point": "33-34 \u00b0C"}}