{"cas_no": "106133-20-4", "cn_name": "\u5766\u7d22\u7f57\u8f9b", "en_name": ["Tamsulosin", "Benzenesulfonamide, 5-[(2R)-2-[[2-(2-ethoxyphenoxy)ethyl]amino]propyl]-2-methoxy-", "Benzenesulfonamide, 5-[2-[[2-(2-ethoxyphenoxy)ethyl]amino]propyl]-2-methoxy-, (R)-", "5-[(2R)-2-[[2-(2-Ethoxyphenoxy)ethyl]amino]propyl]-2-methoxybenzenesulfonamide", "Amsulosin", "Tamsulosin", "(-)-Tamsulosin", "(R)-Tamsulosin", "(R)-5-[2-[[2-(2-Ethoxyphenoxy)ethyl]amino]propyl]-2-methoxybenzenesulfonamide", "Tulosin", "Contiflo OD"], "SMILES": "S(N)(=O)(=O)C1=C(OC)C=CC(CC(NCCOC2=C(OCC)C=CC=C2)C)=C1", "physical_data": {"Molecular Weight": "408.51", "Molecular Formula": "C20H28N2O5S", "Melting Point": "228-230 \u00b0C"}}