{"cas_no": "1062-96-0", "cn_name": "\u80c6\u753e\u70ef\u57fa\u5df1\u9178\u916f", "en_name": ["Cholesteryl caproate", "Cholest-5-en-3-ol (3\u03b2)-, hexanoate", "Cholesterol, hexanoate", "Hexanoic acid, cholesteryl ester", "Cholesteryl caproate", "Cholesterol caproate", "Cholesteryl hexanoate", "3\u03b2-(Caproyloxy)cholest-5-ene", "Cholest-5-en-3\u03b2-ol caproate", "5-Cholesten-3\u03b2-ol caproate", "3-(Hexanoyloxy)cholest-5-ene"], "SMILES": "CC12C3C(C4C(C)(CC3)C(C(CCCC(C)C)C)CC4)CC=C1CC(OC(CCCCC)=O)CC2", "physical_data": {"Molecular Weight": "484.80", "Molecular Formula": "C33H56O2", "Melting Point": "98-99 \u00b0C"}}