{"cas_no": "106261-49-8", "cn_name": "4-[(4-\u7532\u57fa\u54cc\u55ea-1-\u57fa)\u7532\u57fa]\u82ef\u7532\u9178\u4e8c\u76d0\u9178\u76d0", "en_name": ["4-[(4-Methyl-1-piperazinyl)methyl]benzoic acid dihydrochloride", "Benzoic acid, 4-[(4-methyl-1-piperazinyl)methyl]-, hydrochloride (1:2)", "Benzoic acid, 4-[(4-methyl-1-piperazinyl)methyl]-, dihydrochloride", "4-[(4-Methyl-1-piperazinyl)methyl]benzoic acid dihydrochloride", "4-(4-Methylpiperazinomethyl)benzoic acid dihydrochloride", "4-[(4-Methylpiperazinyl)methyl]benzoic acid dihydrochloride"], "SMILES": "C(C1=CC=C(C(O)=O)C=C1)N2CCN(C)CC2.Cl", "physical_data": {"Molecular Weight": "", "Molecular Formula": "C13H18N2O2.2ClH", "Melting Point": "309-311 \u00b0C"}}