{"cas_no": "106266-09-5", "cn_name": "\u5229\u57f9\u916e\u6742\u8d28K", "en_name": ["Desfluororisperidone", "4H-Pyrido[1,2-a]pyrimidin-4-one, 3-[2-[4-(1,2-benzisoxazol-3-yl)-1-piperidinyl]ethyl]-6,7,8,9-tetrahydro-2-methyl-", "1,2-Benzisoxazole, 4H-pyrido[1,2-a]pyrimidin-4-one deriv.", "3-[2-[4-(1,2-Benzisoxazol-3-yl)-1-piperidinyl]ethyl]-6,7,8,9-tetrahydro-2-methyl-4H-pyrido[1,2-a]pyrimidin-4-one", "Desfluororisperidone"], "SMILES": "C(CC=1C(=O)N2C(=NC1C)CCCC2)N3CCC(C=4C=5C(ON4)=CC=CC5)CC3", "physical_data": {"Molecular Weight": "392.49", "Molecular Formula": "C23H28N4O2", "Melting Point": "183.1 \u00b0C"}}