{"cas_no": "106266-06-2", "cn_name": "\u5229\u57f9\u916e", "en_name": ["Risperidone", "4H-Pyrido[1,2-a]pyrimidin-4-one, 3-[2-[4-(6-fluoro-1,2-benzisoxazol-3-yl)-1-piperidinyl]ethyl]-6,7,8,9-tetrahydro-2-methyl-", "1,2-Benzisoxazole, 4H-pyrido[1,2-a]pyrimidin-4-one deriv.", "3-[2-[4-(6-Fluoro-1,2-benzisoxazol-3-yl)-1-piperidinyl]ethyl]-6,7,8,9-tetrahydro-2-methyl-4H-pyrido[1,2-a]pyrimidin-4-one", "Risperidone", "R 64766", "Risperdal", "Spiron", "Rispadal", "Risperidal", "Apexidone", "Psychodal", "Risperdal Consta", "Ripedon", "3-[2-[4-(6-Fluor-1,2-benzisoxazol-3-yl)piperidino]ethyl]-2-methyl-6,7,8,9-tetrahydro-4H-pyrido[1,2-a]pyrimidin-4-on", "Risperdine", "Zophrenal", "Risperid fort", "Risperid", "RBP 7000", "Risperidone ACIS", "Risbiodal", "Rispa", "MeSH ID: D018967"], "SMILES": "FC=1C=C2C(C(=NO2)C3CCN(CCC=4C(=O)N5C(=NC4C)CCCC5)CC3)=CC1", "physical_data": {"Molecular Weight": "410.48", "Molecular Formula": "C23H27FN4O2", "Melting Point": "170 \u00b0C"}}