{"cas_no": "106261-64-7", "cn_name": "4-(4-\u7532\u57fa\u54cc\u55ea\u7532\u57fa)\u82ef\u7532\u9170\u6c2f\u4e8c\u76d0\u9178\u76d0", "en_name": ["Benzoyl chloride, 4-[(4-methyl-1-piperazinyl)methyl]-, hydrochloride (1:2)", "Benzoyl chloride, 4-[(4-methyl-1-piperazinyl)methyl]-, hydrochloride (1:2)", "Benzoyl chloride, 4-[(4-methyl-1-piperazinyl)methyl]-, dihydrochloride", "4-(4-Methylpiperazinylmethyl)benzoyl chloride dihydrochloride", "4-[(4-Methylpiperazin-1-yl)methyl]benzoyl chloride dihydrochloride"], "SMILES": "C(C1=CC=C(C(Cl)=O)C=C1)N2CCN(C)CC2.Cl", "physical_data": {"Molecular Weight": "", "Molecular Formula": "C13H17ClN2O.2ClH", "Melting Point": "300 \u00b0C (decomp)"}}