{"cas_no": "106308-44-5", "cn_name": "\u5362\u975e\u9170\u80fa", "en_name": ["Rufinamide", "1H-1,2,3-Triazole-4-carboxamide, 1-[(2,6-difluorophenyl)methyl]-", "1-[(2,6-Difluorophenyl)methyl]-1H-1,2,3-triazole-4-carboxamide", "CGP 33101", "Rufinamide", "RUF 331", "Inovelon", "E 2080", "1-[(2,6-Difiuorophenyl)methyl]-1H-1,2,3-triazole-4 carboxamide", "Banzel", "1-(2,6-Difluorobenzyl)-1H-1,2,3-triazole-4-carboxamide"], "SMILES": "C(N1C=C(C(N)=O)N=N1)C2=C(F)C=CC=C2F", "physical_data": {"Molecular Weight": "238.19", "Molecular Formula": "C10H8F2N4O", "Melting Point": "236-237 \u00b0C"}}