{"cas_no": "1063-77-0", "cn_name": "\u8bfa\u7c73\u6797", "en_name": ["Nomilin", "Oxireno[4,4a]-2-benzopyrano[6,5-g][2]benzoxepin-3,5,9(3aH,4bH,6H)-trione, 11-(acetyloxy)-1-(3-furanyl)decahydro-4b,7,7,11a,13a-pentamethyl-, (1S,3aS,4aR,4bR,6aR,11S,11aR,11bR,13aS)-", "Oxireno[4,4a]-2-benzopyrano[6,5-g][2]benzoxepin-3,5,9(3aH,4bH,6H)-trione, 1-(3-furyl)decahydro-11-hydroxy-4b,7,7,11a,13a-pentamethyl-, acetate", "Nomilin", "Obacunoic acid, 1-(acetyloxy)-1,2-dihydro-, \u03b5-lactone", "(1S,3aS,4aR,4bR,6aR,11S,11aR,11bR,13aS)-11-(Acetyloxy)-1-(3-furanyl)decahydro-4b,7,7,11a,13a-pentamethyloxireno[4,4a]-2-benzopyrano[6,5-g][2]benzoxepin-3,5,9(3aH,4bH,6H)-trione", "Oxireno[4,4a]-2-benzopyrano[6,5-g][2]benzoxepin-3,5,9(3aH,4bH,6H)-trione, 11-(acetyloxy)-1-(3-furanyl)decahydro-4b,7,7,11a,13a-pentamethyl-, [1S-(1\u03b1,3a\u03b1,4aS*,4b\u03b2,6a\u03b1,11\u03b1,11a\u03b2,11b\u03b1,13a\u03b1)]-", "NSC 297134"], "SMILES": "CC12C34C(C)(C(OC(=O)C3O4)C=5C=COC5)CCC1C6(C)C(CC2=O)C(C)(C)OC(=O)CC6OC(C)=O", "physical_data": {"Molecular Weight": "514.56", "Molecular Formula": "C28H34O9", "Melting Point": "278-279 \u00b0C (decomp)"}}