{"cas_no": "106391-86-0", "cn_name": "N-Boc-D-\u4e19\u6c28\u9187", "en_name": ["1,1-Dimethylethyl N-[(1R)-2-hydroxy-1-methylethyl]carbamate", "Carbamic acid, N-[(1R)-2-hydroxy-1-methylethyl]-, 1,1-dimethylethyl ester", "Carbamic acid, (2-hydroxy-1-methylethyl)-, 1,1-dimethylethyl ester, (R)-", "Carbamic acid, [(1R)-2-hydroxy-1-methylethyl]-, 1,1-dimethylethyl ester", "1,1-Dimethylethyl N-[(1R)-2-hydroxy-1-methylethyl]carbamate", "(R)-2-(N-tert-Butoxycarbonyl)aminopropan-1-ol", "(R)-2-(tert-Butoxycarbonylamino)-1-propanol", "N-(tert-Butoxycarbonyl)-D-alaninol", "(R)-2-(tert-Butoxycarbonylamino)-1-propanol", "((R)-2-Hydroxy-1-methylethyl)carbamic acid tert-butyl ester", "(R)-2-[(tert-Butyloxycarbonyl)amino]propan-1-ol", "(R)-(+)-2-(tert-Butoxycarbonylamino)-1-propanol", "tert-Butyl ((1R)-2-hydroxy-1-methylethyl)carbamate", "((1R)-2-Hydroxy-1-methylethyl)carbamic acid tert-butyl ester", "tert-Butyl ((R)-1-hydroxypropan-2-yl)carbamate", "N-((R)-2-Hydroxy-1-methylethyl)carbamic acid tert-butyl ester", "1,1-Dimethylethyl ((1R)-2-hydroxy-1-methylethyl)carbamate", "((R)-2-Hydroxy-1-methyl-ethyl)-carbamic acid tert-butyl ester", "Boc-D-alaninol", "tert-Butyl N-((R)-2-hydroxy-1-methylethyl)carbamate", "tert-Butyl ((2R)-1-hydroxypropan-2-yl)carbamate", "(R)-N-Boc-2-aminopropan-1-ol", "tert-Butyl N-[(2R)-1-hydroxypropan-2-yl]carbamate", "tert-Butyl (R)-(1-hydroxypropan-2-yl)carbamate"], "SMILES": "O(C(C)(C)C)C(NC(CO)C)=O", "physical_data": {"Molecular Weight": "175.23", "Molecular Formula": "C8H17NO3", "Melting Point": "60 \u00b0C"}}