{"cas_no": "106392-12-5", "cn_name": "\u805a\u6c27\u4e19\u70ef\u805a\u6c27\u4e59\u70ef\u5171\u805a\u7269\u6eb6\u6db2", "en_name": ["Ethylene oxide-propylene oxide block copolymer", "Oxirane, 2-methyl-, polymer with oxirane, block", "Oxirane, methyl-, polymer with oxirane, block", "Oxirane, polymer with methyloxirane, block", "Newpol PE 68", "Newpol PE 2700", "Newpol PE 62", "Slovanik M 640", "Newpol PE 74", "Newpol PE 88", "Newpol PE 64", "Newpol PE", "Ethylene oxide-propylene oxide block copolymer", "L 2500 (polyglycol)", "Pepol B 181", "Pepol B 188", "Tergitol XH", "Emulgen PP 230", "L 2500", "Rokopol 16P", "Rokopol 30P", "Ethylene oxide-propylene oxide block polymer", "Newcol 565FH", "Jaypol 410", "Ethylene glycol-propylene glycol block copolymer", "Poloxamer 2750", "Hydropol 200", "Rokopol 30P27", "Rokopol 30P160", "Rokopol 30P10", "Rokopol 30P5", "ED 56", "SBU 0262", "Propylene oxide-ethylene oxide block copolymer", "Nissan Plonon", "Nissan Plonon 102", "Nissan Plonon 201", "Slovanik NT 70", "Monolan 2800", "Methyloxirane-oxirane block copolymer", "HOE-S 3510", "HOE-S 1816", "Polyoxyethylene-polyoxypropylene block copolymer", "Lutrol F 127", "Pepol B 184", "Pepol A 0858", "NBS 2", "Plonon 102", "Poloxamer 108", "Poloxamer 231", "Poloxamer 331", "Poloxamer 338", "Poloxamer 182LF", "Poloxamer 124", "Synperonic F 88", "Synperonic F 98", "NBS 2 (surfactant)", "Newpol PE 77", "Levenol DT 400", "Prohalyt 17/18", "Slovanik T 610", "Slovanik PV 370", "Poloxamer 403", "Proxanol 305", "Poly(ethylene oxide)-poly(propylene oxide) block copolymer", "Niax E 351", "Synperonic PE", "Synperonic PE 30/40", "Synperonic PE 39/70", "Poloxamer 401", "Propylene oxide-ethylene oxide blocker copolymer", "Poloxamer 184", "Rokopol 40P10", "Synperonic 39/70", "Synperonic PE/L 35", "Synperonic PE/L 44", "Synperonic PE/L 42", "Synperonic PE/L 62LF", "Synperonic PE/L 81", "Synperonic PE/L 92", "Synperonic PE/L 101", "Synperonic PE/L 62", "Nissan Unilube 75DE2620", "Unilube 75DE2620", "Poly-G 55-28", "PR 305", "OPr 305", "Pr 268", "F 127", "Thanol E 4003", "Proxanol 268", "Nissan Unilube 20DP15B", "Breox BL 19-10", "Hidropol 200", "Proxanol 365", "Dowfax 30C05", "Pegol L 121", "Pegol L 35", "Pegol 25R2", "Pegol 31R1", "Pegol L 101", "Pegol 25R1", "Macol 18", "Pegol L 31", "L 121", "L 141", "Crisvon Assistor SD 14", "Poloxamer 238", "Synperonic PE/P 103", "Block polyethylene-polypropylene glycol", "Poly-Tergent P 17A", "Synperonic PE/P 94", "Synperonic PL 85", "Poloxamer F 68", "Poloxamer F 108", "Poloxamer 235", "Poloxamer F 127", "Synperonic PE-F 28", "Synperonic L 101", "Cirrasol ALN-WS", "B 053", "Detalan", "Synperonic F 78", "Pepol B 101", "Pepol B 182", "Poly(oxyethylene)-poly(oxypropylene), block", "Synperonic PE-F 68", "Ethylene oxide-propylene oxide copolymer, block", "Arcol E 351", "Lionol PF 78", "Macol 27", "CRL 8131", "Texox WL 1400", "Sannix PL 2100", "HOE-S 1816/2", "Synperonic L 61", "Genapol PF 40", "CRL 1605", "Tergitol XJ", "LF 120", "Newpol PE 128", "Newpol V 10C", "CRL 8142", "Pronon 208", "Ethylene oxide-propylene oxide block copolymer dipropylene glycol ether", "F 68", "Antarox B 25", "Supronic B 25", "Antarox F 88", "Epan 485", "Antarox P 104", "Newpol PE 125", "Newkalgen 5050PB", "Voranol EP 2001", "Synperonic PE 103", "Synperonic PE 105", "Synperonic PE 108", "Synperonic PE/P 105", "Oxirane-methyloxirane block copolymer", "Antarox F 88FL", "Antarox F 108", "Epan U 108", "Optivax AF", "Optivax OF", "L 101", "Pluracol HP", "Pluracol HP 2700", "Pluracol HP 2500", "Pluracol HP 2200", "Pluracol HP 1500", "Pluracol HP 1250", "Pluracol HP 1000", "Oxyethylene-oxypropylene block copolymer", "Poloxamer L 61", "Poloxamer L 64", "Synperonic L 35", "Synperonic L 44", "Synperonic L 43", "Synperonic L 42", "Synperonic L 31", "Poly-G 20-112", "Flocor", "Block polyoxyethylene-polyoxypropylene", "Flocor (polyoxyalkylene)", "Pristol RM 143", "Pristol RM 146", "Pristol RM 202", "DO 97", "LDO 97", "Synperonic PE/F 87", "Antarox P 84", "Antarox F 68", "Antarox L 72", "Polyethylene glycol-polypropylene glycol block copolymer", "Pluraflo 4370", "Monolan 8000E80", "Macol 16", "PM", "Proxanol P 204", "Proxanol P 206", "Proxanol P 208", "Proxanol P 304", "Proxanol P 104", "PM (demulsifier)", "Rubinol F 459", "Plonon 201", "Pluracol HP 2500D", "Arco Polyol R 2633", "R 2633", "Synthionic P 8020", "TiterMax Gold", "HOE 1816", "HOE 1816-1", "HOE 1816-2", "F 108", "Synperonic PE-L 72", "Poloxamer 182", "Surfonic POA-L 44", "SP 1017", "EP 3028", "D 500", "Pluracol HP 1250D", "D 500 (polyglycol)", "Slovanik T 620", "Pluraflo 1220", "Surfonic POA-P 104", "Macol 19", "Synperonic PE/F 38", "Synperonic PE/F 85", "Empilan P 7068", "BASF-L 101", "Antarox 25R2", "Pluracare F 127", "Poloxamer P 407", "Poloxamer P 338", "P 338", "Laprol 5002", "Proxanol 091", "Synperonic P 105", "Ethylene oxide-propylene oxide block copolymer ether with ethylene glycol", "Poloxamer 282", "Jeffol PPG 3709", "Jeffol 3709", "Jeffox WL 1400", "Newpol 61", "Newpol PE 71", "Dehypon KE 3557", "L 62", "L 64", "L 61", "Ucon HB 100", "Poloxamer 101", "Synperonic PE-F 27", "Poloxamer 171", "Epan 750", "CRL 1029", "CRL 1190", "Conion AEP 1220", "Nissan Plonon 207", "Plonon 207", "Pluracare", "Lutrol F", "Poloxamer 185", "Antarox 17R2", "Poloxamer P 181", "Proxanol F 168", "F 168", "Ethylene oxide-propylene oxide block copolymer, ether with propylene glycol (2:1)", "DC 100", "Poloxamer 402", "Epan 680", "Synperonic P 123", "L 71", "Poloxamer 284", "Epan 740", "SNPKh 4410", "Synperonic P 103", "Synperonic PE/P 104", "Synperonic L 121", "Synperonic P 104", "Proxanol B 305", "Nissan Unilube 75DE2620R", "Unilube 75DE2620R", "Nissan Plonon 202", "Plonon 202", "Nissan Unilube 70DP950B", "F 88", "Unilube 70DP950B", "Koremul PE 62", "Caradol ED 56-07", "Nissan Plonon 307", "Plonon 307", "Leocon ED 274R", "Pionin P 1525", "Emulsogen V 1816", "Synperonic PE 144", "Poloxamer 1307", "Laprol 1602-2-70", "Laprol 4502-2-80", "Laprol 1502", "Laprol 2502-2-70", "Koremul PE 61", "Koremul PE 74", "Koremul RPE 8020", "Pluraflo L 1220", "Poloxamer 288", "Nupol 70-4000", "Nupol 80-4000", "Poloxamer 180", "ERE 282", "Lutrol F 108", "U 108", "Polyethylene oxide-polyypropylene oxide block copolymer", "Teric PE 64", "PE 64", "Novanik 1010", "Slovanik 1010", "Ethox L 61", "Oxirane-propylene oxide block copolymer", "Superonic F 68", "Poloxamer F 88", "Adeka CM 381", "Poloxamer 388", "Poloxamer 408", "Pluracare P 65", "Lutrol F 38", "Lutrol F 88", "Poloxamer 228", "Poloxamer 207", "Poloxamer 278", "Lutrol 98", "Ultraric 5000", "Synperonic PE/F 32", "Genapol V 4829", "Adekanol L 44", "Poloxamer 118", "Poloxamer NF 19", "Pluronic PRE 1740", "Pluraflo 1060", "Emkarox VG 681W", "VG 681W", "Dissolvan 4411", "Poloxamer 105", "Poloxamer L 31", "Poloxamer L 35", "Tensiofix 96DBO8", "Newpol PE 72", "Epan 610", "Epan 720", "Poloxamer P 103", "Poloxamer P 104", "Poloxamer 335", "Poloxamer 421", "Poloxamer P 123", "Excenol 510", "Excenol 2027", "Adekanol F 108", "Emuxol 268", "F 110", "Poloxamer F 188", "Polyether 64", "Polyether 61", "Poloxamer M 127", "Adekanol F 888", "Synperonic PE/L 31", "Poloxamer P 108", "Epan U 103", "Adeka CM 211", "Poloxamer 167", "Plonon 403", "Nissan Plonon 403", "Pelestat LA 120", "Pluracare L 64", "Lutrol L 44", "Kollisolv P 124", "Kolliphor P 338", "Lutrol Micro 127", "Citagel", "Nissan Plonon 220", "Newpol PE 85", "Jeffol PPG 2801", "Pluraflo L 1060", "Poloxamer 800", "PE 62", "PE 62 (surfactant)", "LeGoo", "Poloxamer 20", "Lubrizol 5957", "Emulsogen 4084", "Genapol PF 80", "Pel-Lok 9591", "Poloxamer P 138", "Poloxamer P 237", "Poloxamer P 288", "Poloxamer P 124", "Skyin 2445", "Newpol 80-4000", "Haian L 63", "Haian P 65", "Atlas G 5000", "Poloxamer 212", "Poloxamer 215", "Poloxamer 217", "Poloxamer 234", "X 405", "Unilube 70DB950B", "T 1002", "YNW 210E", "Ucon TPEG 500", "Dowfax D 850", "Koremul EPB 61", "PP 10-3038", "Synperonic PE 31", "Aduxol VP 6685", "Genifol RPF 2520", "LF 3300", "LF 6200", "Synperonic PE-P 84", "PEL 121", "Epoxyethane-propylene oxide block copolymer", "Agnique CSD 40", "Unilube 70DE2620R", "Plonon 124P", "Poloxamer L 65", "Poloxamer PE 3100", "Poloxamer PE 6100", "Poloxamer PE 6200", "Poloxamer PE 6400", "Poloxamer PE 6800", "Poloxamer PE 10100", "Poloxamer PE 10500", "Poloxamer 2000", "PO-EO block copolymer", "EO-PO block copolymer", "Agnique BP NP 4030", "Agnique AK 6777", "Polyoxyethlene-polyoxypropylene block copolymer", "Tensiofix DB 08", "PRE 1740", "Plonon 184", "Nissan Plonon 184", "Nalco 7348", "Atlas G 5002L", "Atlas G 5004LD", "LH 29", "Inovol S 5000T", "Pluronic L1060", "Stepan Agent 1690 92N", "BP 3025", "BE 7015", "Tomenorin F", "Lumulse 1061L", "Poloxamer 407NF", "Polyethylene-polyoxypropylene block copolymer", "Burst EP 3100", "Burst EP 4300", "Burst EP 6100", "Burst EP 6200", "Burst EP 6800", "Burst EP 8100", "Polyether L 65", "L 65", "Hartopol 25R2", "Lutrol L 44NF", "Polyoxypropylene-polyoxyethylene block copolymer", "L 42", "L 43", "L 44", "ROKAmer 2950", "AP 7000", "DCFB 50 Plus", "YUS 5050PB", "Ultrasurf 8070", "LCN 2070", "ExpertGel 312", "ExpertGel 412", "Atlas 5000G"], "SMILES": "C1CO1.CC1CO1", "physical_data": {"Molecular Weight": "", "Molecular Formula": "(C3H6O.C2H4O)x", "Melting Point": "57 \u00b0C"}}