{"cas_no": "106461-41-0", "cn_name": "2,4-\u4e8c\u6c22-4-[[4-(4-\u7f9f\u57fa\u82ef\u57fa)-1-\u54cc\u55ea\u57fa]\u82ef\u57fa]-2-(1-\u7532\u57fa\u4e19\u57fa)-3H-1,2,4-\u4e09\u6c2e\u5511-3-\u916e", "en_name": ["2,4-Dihydro-4-[4-[4-(4-hydroxyphenyl)-1-piperazinyl]phenyl]-2-(1-methylpropyl)-3H-1,2,4-triazol-3-one", "3H-1,2,4-Triazol-3-one, 2,4-dihydro-4-[4-[4-(4-hydroxyphenyl)-1-piperazinyl]phenyl]-2-(1-methylpropyl)-", "2,4-Dihydro-4-[4-[4-(4-hydroxyphenyl)-1-piperazinyl]phenyl]-2-(1-methylpropyl)-3H-1,2,4-triazol-3-one", "T 1330", "1-(sec-Butyl)-4-(4-(4-(4-hydroxyphenyl)piperazin-1-yl)phenyl)-1H-1,2,4-triazol-5(4H)-one", "2-Butan-2-yl-4-[4-[4-(4-hydroxyphenyl)piperazin-1-yl]phenyl]-1,2,4-triazol-3-one"], "SMILES": "O=C1N(C=NN1C(CC)C)C2=CC=C(C=C2)N3CCN(CC3)C4=CC=C(O)C=C4", "physical_data": {"Molecular Weight": "393.48", "Molecular Formula": "C22H27N5O2", "Melting Point": "76-78 \u00b0C"}}