{"cas_no": "1064-10-4", "cn_name": "\u516d\u82ef\u57fa\u4e8c\u9521", "en_name": ["1,1,1,2,2,2-Hexaphenyldistannane", "Distannane, 1,1,1,2,2,2-hexaphenyl-", "Distannane, hexaphenyl-", "Tin, hexaphenyldi-", "1,1,1,2,2,2-Hexaphenyldistannane", "Hexaphenylditin", "Hexaphenyldistannane", "NSC 22333"], "SMILES": "[Sn]([Sn](C1=CC=CC=C1)(C2=CC=CC=C2)C3=CC=CC=C3)(C4=CC=CC=C4)(C5=CC=CC=C5)C6=CC=CC=C6", "physical_data": {"Molecular Weight": "700.04", "Molecular Formula": "C36H30Sn2", "Melting Point": "232.5 \u00b0C"}}