{"cas_no": "106463-17-6", "cn_name": "\u76d0\u9178\u5766\u7d22\u7f57\u8f9b", "en_name": ["Tamsulosin hydrochloride", "Benzenesulfonamide, 5-[(2R)-2-[[2-(2-ethoxyphenoxy)ethyl]amino]propyl]-2-methoxy-, hydrochloride (1:1)", "Benzenesulfonamide, 5-[2-[[2-(2-ethoxyphenoxy)ethyl]amino]propyl]-2-methoxy-, monohydrochloride, (R)-", "Benzenesulfonamide, 5-[(2R)-2-[[2-(2-ethoxyphenoxy)ethyl]amino]propyl]-2-methoxy-, monohydrochloride", "(-)-YM 12617", "(-)-LY 253352", "YM 617", "YM 12617-1", "(R)-(-)-YM 12617", "Harnal", "Tamsulosin hydrochloride", "LY 253351", "Omnic", "Omic", "Flomax", "Yutanal", "URIMAX", "Dynapress", "URIPRO"], "SMILES": "S(N)(=O)(=O)C1=C(OC)C=CC(CC(NCCOC2=C(OCC)C=CC=C2)C)=C1.Cl", "physical_data": {"Molecular Weight": "", "Molecular Formula": "C20H28N2O5S.ClH", "Melting Point": "228-230 \u00b0C"}}