{"cas_no": "1065010-88-9", "cn_name": "\u73af\u4e01\u57fa\u4e09\u6c1f\u787c\u9178\u94be", "en_name": ["Borate(1-), cyclobutyltrifluoro-, potassium (1:1), (T-4)-", "Borate(1-), cyclobutyltrifluoro-, potassium (1:1), (T-4)-", "Potassium cyclobutyltrifluoroborate"], "SMILES": "[B+3]([F-])([F-])([F-])[CH-]1CCC1.[K+]", "physical_data": {"Molecular Weight": "", "Molecular Formula": "C4H7BF3.K", "Melting Point": "200 \u00b0C (decomp)"}}