{"cas_no": "106577-39-3", "cn_name": "\u9ed1\u6d77\u5e38\u6625\u85e4\u82f7A1", "en_name": ["Hederacolchiside A1", "Olean-12-en-28-oic acid, 3-[(O-6-deoxy-\u03b1-L-mannopyranosyl-(1\u21922)-O-[\u03b2-D-glucopyranosyl-(1\u21924)]-\u03b1-L-arabinopyranosyl)oxy]-, (3\u03b2)-", "(3\u03b2)-3-[(O-6-Deoxy-\u03b1-L-mannopyranosyl-(1\u21922)-O-[\u03b2-D-glucopyranosyl-(1\u21924)]-\u03b1-L-arabinopyranosyl)oxy]olean-12-en-28-oic acid", "Hederacolchiside A1", "Oleanolic acid-3-O-\u03b1-L-rhamnopyranosyl-(1->", "2)-[\u03b2-D-glucopyranosyl-(1->", "4)]-\u03b1-L-arabinopyranoside", "Raddeanoside R13", "Oleanolic acid 3-O-\u03b1-L-rhamnopyranosyl-(1\u21922)-[\u03b2-D-glucopyranosyl-(1\u21924)]-\u03b1-L-arabinopyranoside"], "SMILES": "CC12C3(C)C(C4C(C(O)=O)(CC3)CCC(C)(C)C4)=CCC1C5(C)C(CC2)C(C)(C)C(OC6C(OC7C(O)C(O)C(O)C(C)O7)C(O)C(OC8OC(CO)C(O)C(O)C8O)CO6)CC5", "physical_data": {"Molecular Weight": "897.10", "Molecular Formula": "C47H76O16", "Melting Point": "253-255 \u00b0C"}}