{"cas_no": "106518-63-2", "cn_name": "\u7075\u829d\u9a6c\u916e", "en_name": ["Ganodermanontriol", "Lanosta-7,9(11)-dien-3-one, 24,25,26-trihydroxy-, (24S,25R)-", "(24S,25R)-24,25,26-Trihydroxylanosta-7,9(11)-dien-3-one", "Ganodermanontriol", "(+)-Ganodermanontriol", "26-Hydroxyganodermanondiol"], "SMILES": "CC12C=3C(C4(C)C(C)(CC3)C(C(CCC(C(CO)(C)O)O)C)CC4)=CCC1C(C)(C)C(=O)CC2", "physical_data": {"Molecular Weight": "472.70", "Molecular Formula": "C30H48O4", "Melting Point": "145-147 \u00b0C"}}