{"cas_no": "106556-36-9", "cn_name": "2-(4,6-\u4e8c\u82ef\u57fa-1,3,5-\u4e09\u55ea-2-\u57fa)-5-(\u7532\u6c27\u57fa)\u82ef\u915a", "en_name": ["2-(2-Hydroxy-4-methoxyphenyl)-4,6-diphenyl-1,3,5-triazine", "Phenol, 2-(4,6-diphenyl-1,3,5-triazin-2-yl)-5-methoxy-", "2-(4,6-Diphenyl-1,3,5-triazin-2-yl)-5-methoxyphenol", "2-(4,6-Diphenyl-1,3,5-triazin-2-yl)-5-(methyloxy)phenol", "2-(2-Hydroxy-4-methoxyphenyl)-4,6-diphenyl-1,3,5-triazine", "UV 1579"], "SMILES": "OC1=C(C=2N=C(N=C(N2)C3=CC=CC=C3)C4=CC=CC=C4)C=CC(OC)=C1", "physical_data": {"Molecular Weight": "355.39", "Molecular Formula": "C22H17N3O2", "Melting Point": "203 \u00b0C"}}