{"cas_no": "106566-58-9", "cn_name": "AS101", "en_name": ["Tellurate(1-), trichloro[1,2-ethanediolato(2-)-\u03baO1,\u03baO2]-, ammonium (1:1), (SP-5-22)-", "Tellurate(1-), trichloro[1,2-ethanediolato(2-)-\u03baO1,\u03baO2]-, ammonium (1:1), (SP-5-22)-", "Tellurate(1-), trichloro[1,2-ethanediolato(2-)-O,O\u2032]-, ammonium, (SP-5-22)-", "1,2-Ethanediol, tellurium complex", "AS 101 (pharmaceutical)", "AS 101", "Ossirene", "Ammonium trichlorotellurate", "Ammonium trichloro[1,2-ethanediolato-O,O\u2032]-tellurate"], "SMILES": "[Cl-][Te+4]1([Cl-])([Cl-])[O-]CC[O-]1.[NH4+]", "physical_data": {"Molecular Weight": "", "Molecular Formula": "C2H4Cl3O2Te.H4N", "Melting Point": "233 \u00b0C (decomp)"}}