{"cas_no": "106615-61-6", "cn_name": "5-\u6c1f-4,-\u4e8c\u7f9f\u57fa\u5627\u5576", "en_name": ["5-Fluoro-6-hydroxy-4(3H)-pyrimidinone", "4(3H)-Pyrimidinone, 5-fluoro-6-hydroxy-", "4(1H)-Pyrimidinone, 5-fluoro-6-hydroxy-", "5-Fluoro-6-hydroxy-4(3H)-pyrimidinone", "4,6-Dihydroxy-5-fluoropyrimidine"], "SMILES": "FC=1C(=O)NC=NC1O", "physical_data": {"Molecular Weight": "130.08", "Molecular Formula": "C4H3FN2O2", "Melting Point": "&gt;300 \u00b0C"}}