{"cas_no": "1066-54-2", "cn_name": "\u4e09\u7532\u57fa\u4e59\u7094\u57fa\u7845", "en_name": ["(Trimethylsilyl)acetylene", "Silane, ethynyltrimethyl-", "Ethynyltrimethylsilane", "Trimethylethynylsilane", "(Trimethylsilyl)ethyne", "1-(Trimethylsilyl)acetylene", "1-Trimethylsilylethyne", "(Trimethylsilyl)acetylene", "Trimethylsilanylethyne", "Acetylenyltrimethylsilane", "(Trimethylsilanyl)acetylene", "2,2-Dimethyl-2-sila-3-butyne", "TMS-acetylene"], "SMILES": "[Si](C#C)(C)(C)C", "physical_data": {"Molecular Weight": "98.22", "Molecular Formula": "C5H10Si", "Boiling Point": "52 \u00b0C", "Density": "0.709 g/cm\u00b3"}}