{"cas_no": "1066-97-3", "cn_name": "O,O-\u4e8c\u7532\u57fa\u4e8c\u786b\u4ee3\u78f7\u9178\u94f5", "en_name": ["Phosphorodithioic acid, O,O-dimethyl ester, ammonium salt (1:1)", "Phosphorodithioic acid, O,O-dimethyl ester, ammonium salt (1:1)", "Phosphorodithioic acid, O,O-dimethyl ester, ammonium salt", "Ammonium methyl phosphorodithioate", "Ammonium O,O\u2032-dimethyl phosphorodithioate", "Ammonium O,O-dimethyl dithiophosphate", "O,O-Dimethyldithiophosphoric acid ammonium salt", "Ammonium O,O-dimethyl phosphorodithioate", "O,O-Dimethyl ammonium dithiophosphate", "Ammonium dimethyldithiophosphate", "Ammonium O,O-dimethyl phosphorodithioate(1-)"], "SMILES": "P(OC)(OC)(=S)S.N", "physical_data": {"Molecular Weight": "", "Molecular Formula": "C2H7O2PS2.H3N", "Melting Point": "147 \u00b0C"}}