{"cas_no": "106614-28-2", "cn_name": "2,4-\u4e8c\u6c1f\u82ef\u7532\u9178\u7532\u916f", "en_name": ["Benzoic acid, 2,4-difluoro-, methyl ester", "Benzoic acid, 2,4-difluoro-, methyl ester", "Methyl 2,4-difluorobenzoate", "2,4-Difluorobenzoic acid methyl ester"], "SMILES": "C(OC)(=O)C1=C(F)C=C(F)C=C1", "physical_data": {"Molecular Weight": "172.13", "Molecular Formula": "C8H6F2O2", "Boiling Point": "190-194 \u00b0C @ Press: 760 Torr"}}