{"cas_no": "1066-35-9", "cn_name": "\u4e8c\u7532\u57fa\u4e00\u6c2f\u7845\u70f7", "en_name": ["Chlorodimethylsilane", "Silane, chlorodimethyl-", "Chlorodimethylsilane", "Dimethylmonochlorosilane", "Dimethylchlorosilane", "Dimethylchlorohydrosilane", "Dimethylhydrosilyl chloride", "Dimethylsilyl chloride", "Chlorodimethylhydrosilane", "SID 4070.0", "Dimethylhydrochlorosilane"], "SMILES": "[SiH](C)(C)Cl", "physical_data": {"Molecular Weight": "94.62", "Molecular Formula": "C2H7ClSi", "Boiling Point": "36 \u00b0C", "Melting Point": "-111 \u00b0C", "Density": "0.868 g/cm\u00b3"}}