{"cas_no": "106685-40-9", "cn_name": "\u963f\u8fbe\u5e15\u6797", "en_name": ["Adapalene", "2-Naphthalenecarboxylic acid, 6-(4-methoxy-3-tricyclo[3.3.1.13,7]dec-1-ylphenyl)-", "6-(4-Methoxy-3-tricyclo[3.3.1.13,7]dec-1-ylphenyl)-2-naphthalenecarboxylic acid", "CD 271", "Adapalene", "Differin", "6-[3-(1-Adamantyl)-4-methoxyphenyl]-2-naphthalenecarboxylic acid", "Differin Gel", "6-[3-(1-Adamantyl)-4-methoxyphenyl]-2-naphthoic acid", "CD 271 (pharmaceutical)", "Aclene Gel", "Aclene", "6-(3-(Adamantan-1-yl)-4-methoxyphenyl)-2-naphthoic acid"], "SMILES": "O(C)C1=C(C23CC4CC(C2)CC(C3)C4)C=C(C=C1)C5=CC6=C(C=C5)C=C(C(O)=O)C=C6", "physical_data": {"Molecular Weight": "412.52", "Molecular Formula": "C28H28O3", "Melting Point": "320-322 \u00b0C"}}