{"cas_no": "106685-41-0", "cn_name": "6-[3-(1-\u91d1\u521a\u70f7\u57fa)-4-\u7532\u6c27\u57fa\u82ef\u57fa]-2-\u8418\u7532\u9178\u7532\u916f", "en_name": ["Methyl 6-(4-methoxy-3-tricyclo[3.3.1.13,7]dec-1-ylphenyl)-2-naphthalenecarboxylate", "2-Naphthalenecarboxylic acid, 6-(4-methoxy-3-tricyclo[3.3.1.13,7]dec-1-ylphenyl)-, methyl ester", "Methyl 6-(4-methoxy-3-tricyclo[3.3.1.13,7]dec-1-ylphenyl)-2-naphthalenecarboxylate", "Methyl 6-(3-(adamantan-1-yl)-4-methoxyphenyl)-2-naphthoate"], "SMILES": "O(C)C1=C(C23CC4CC(C2)CC(C3)C4)C=C(C=C1)C5=CC6=C(C=C5)C=C(C(OC)=O)C=C6", "physical_data": {"Molecular Weight": "426.55", "Molecular Formula": "C29H30O3", "Melting Point": "221-222 \u00b0C"}}