{"cas_no": "1066-42-8", "cn_name": "\u4e8c\u7532\u57fa\u7845\u70f7\u4e8c\u9187", "en_name": ["Dimethylsilanediol", "Silanediol, 1,1-dimethyl-", "Silanediol, dimethyl-", "1,1-Dimethylsilanediol", "Dimethylsilanediol", "Dihydroxydimethylsilane", "Dimethyldihydroxysilane", "Dimethylsilanediol-hexamethyldisiloxane copolymer", "RMS 091310"], "SMILES": "[Si](C)(C)(O)O", "physical_data": {"Molecular Weight": "92.17", "Molecular Formula": "C2H8O2Si", "Melting Point": "96-98 \u00b0C", "Density": "1.097 g/cm\u00b3"}}