{"cas_no": "1066-40-6", "cn_name": "\u4e09\u7532\u57fa\u7845\u9187", "en_name": ["Trimethylsilanol", "Silanol, 1,1,1-trimethyl-", "Silanol, trimethyl-", "1,1,1-Trimethylsilanol", "Trimethylsilanol", "Trimethylhydroxysilane", "Hydroxytrimethylsilane", "Trimethylsilyl alcohol", "LS 310"], "SMILES": "[Si](C)(C)(C)O", "physical_data": {"Molecular Weight": "90.20", "Molecular Formula": "C3H10OSi", "Boiling Point": "99-100 \u00b0C", "Melting Point": "-4.5 \u00b0C", "Density": "0.8112 g/cm\u00b3 @ Temp: 20 \u00b0C"}}