{"cas_no": "1066-45-1", "cn_name": "\u4e09\u7532\u57fa\u6c2f\u5316\u9521", "en_name": ["Trimethyltin chloride", "Stannane, chlorotrimethyl-", "Trimethyltin chloride", "Chlorotrimethylstannane", "M&", "T Chemicals 1222-45", "Chlorotrimethyltin", "Trimethylstannyl chloride", "Trimethylchlorostannane", "Trimethylchlorotin", "Trimethyltin monochloride", "NSC 12088", "NSC 92613", "Trimethylstannanyl chloride"], "SMILES": "[Sn](C)(C)(C)Cl", "physical_data": {"Molecular Weight": "199.27", "Molecular Formula": "C3H9ClSn", "Boiling Point": "154-156 \u00b0C", "Melting Point": "37.5 \u00b0C", "Density": "1.645 g/cm\u00b3 @ Temp: 40 \u00b0C"}}