{"cas_no": "1066-33-7", "cn_name": "\u78b3\u9178\u6c22\u94f5", "en_name": ["Ammonium bicarbonate", "Carbonic acid, ammonium salt (1:1)", "Carbonic acid, monoammonium salt", "Ammonium bicarbonate", "Ammonium hydrogen carbonate", "Ammonium bicarbonate ((NH4)HCO3)", "Monoammonium carbonate", "Acid ammonium carbonate", "AmBic"], "SMILES": "C(=O)(O)O.N", "physical_data": {"Molecular Weight": "", "Molecular Formula": "CH2O3.H3N", "Melting Point": "107 \u00b0C (decomp)", "Density": "1.586 g/cm\u00b3"}}