{"cas_no": "106649-95-0", "cn_name": "N-\u786b\u9170\u80fa\u57fa-3-\u6c2f\u4e19\u8112\u76d0\u9178\u76d0", "en_name": ["Propanimidamide, N-(aminosulfonyl)-3-chloro-, hydrochloride (1:1)", "Propanimidamide, N-(aminosulfonyl)-3-chloro-, hydrochloride (1:1)", "Propanimidamide, N-(aminosulfonyl)-3-chloro-, monohydrochloride", "N-Sulfamyl-3-chloropropionamidine hydrochloride"], "SMILES": "C(NS(N)(=O)=O)(CCCl)=N.Cl", "physical_data": {"Molecular Weight": "", "Molecular Formula": "C3H8ClN3O2S.ClH", "Melting Point": "144-146 \u00b0C (decomp)"}}