{"cas_no": "1066-51-9", "cn_name": "\u6c28\u7532\u57fa\u81a6\u9178", "en_name": ["(Aminomethyl)phosphonic acid", "Phosphonic acid, P-(aminomethyl)-", "Phosphonic acid, (aminomethyl)-", "P-(Aminomethyl)phosphonic acid", "Aminomethanephosphonic acid", "Phosphaglycine", "Nalco 3919", "(Aminomethyl)phosphonic acid", "AMPA (surfactant)", "AMPA", "NSC 30076"], "SMILES": "P(CN)(=O)(O)O", "physical_data": {"Molecular Weight": "111.04", "Molecular Formula": "CH6NO3P", "Melting Point": "310 \u00b0C"}}