{"cas_no": "1066-44-0", "cn_name": "\u4e09\u7532\u57fa\u6eb4\u5316\u9521", "en_name": ["Bromotrimethylstannane", "Stannane, bromotrimethyl-", "Trimethyltin bromide", "Tin, bromotrimethyl-", "Bromotrimethylstannane", "Bromotrimethyltin", "Trimethylstannyl bromide", "Trimethyltin monobromide"], "SMILES": "[Sn](Br)(C)(C)C", "physical_data": {"Molecular Weight": "243.72", "Molecular Formula": "C3H9BrSn", "Boiling Point": "164 \u00b0C", "Melting Point": "26.5 \u00b0C"}}