{"cas_no": "1066-50-8", "cn_name": "\u4e8c\u6c2f\u5316\u4e59\u57fa\u78f7\u9178", "en_name": ["Ethylphosphonic dichloride", "Phosphonic dichloride, P-ethyl-", "Phosphonic dichloride, ethyl-", "P-Ethylphosphonic dichloride", "Ethylphosphonic dichloride", "Ethanephosphonyl chloride", "Dichloroethylphosphine oxide", "Ethylphosphonic acid dichloride", "Ethylphosphonyl dichloride", "Ethylphosphonodichloridate", "1-Dichlorophosphorylethane"], "SMILES": "P(CC)(Cl)(Cl)=O", "physical_data": {"Molecular Weight": "146.94", "Molecular Formula": "C2H5Cl2OP", "Boiling Point": "174.5 \u00b0C @ Press: 28 Torr", "Density": "1.3678 g/cm\u00b3 @ Temp: 20 \u00b0C"}}