{"cas_no": "1066-37-1", "cn_name": "\u4e09\u7532\u57fa\u6eb4\u5316\u9517", "en_name": ["Germane, bromotrimethyl-", "Germane, bromotrimethyl-", "Trimethylgermanium bromide", "Trimethyl germyl bromide", "Bromotrimethylgermane", "Trimethylbromogermane"], "SMILES": "[Ge](Br)(C)(C)C", "physical_data": {"Molecular Weight": "197.65", "Molecular Formula": "C3H9BrGe", "Boiling Point": "113-114 \u00b0C", "Melting Point": "-25 \u00b0C", "Density": "1.549 g/cm\u00b3"}}