{"cas_no": "106740-09-4", "cn_name": "(4-\u7532\u6c27\u57fa\u82ef\u57fa)\u5417\u5549\u57fa-\u4e8c\u786b\u4ee3\u81a6\u9178\u4e0e\u5417\u5549\u7684\u5316\u5408\u7269", "en_name": ["Phosphinodithioic acid, P-(4-methoxyphenyl)-P-4-morpholinyl-, compd. with morpholine (1:1)", "Phosphinodithioic acid, P-(4-methoxyphenyl)-P-4-morpholinyl-, compd. with morpholine (1:1)", "Phosphinodithioic acid, (p-methoxyphenyl)morpholino-, compd. with morpholine", "GYY 4137", "(4-Methoxyphenyl)morpholino-phosphinodithioic acid compound with morpholine"], "SMILES": "C1COCCN1.P(=S)(S)(C1=CC=C(OC)C=C1)N2CCOCC2", "physical_data": {"Molecular Weight": "", "Molecular Formula": "C11H16NO2PS2.C4H9NO", "Melting Point": "164-166 \u00b0C"}}