{"cas_no": "1067-53-4", "cn_name": "\u4e59\u70ef\u57fa\u4e09(2-\u7532\u6c27\u57fa\u4e59\u6c27\u57fa)\u7845\u70f7", "en_name": ["Vinyltris(2-methoxyethoxy)silane", "2,5,7,10-Tetraoxa-6-silaundecane, 6-ethenyl-6-(2-methoxyethoxy)-", "Silane, tris(2-methoxyethoxy)vinyl-", "6-Ethenyl-6-(2-methoxyethoxy)-2,5,7,10-tetraoxa-6-silaundecane", "A 172", "GF 58", "Tris(methoxyethoxy)vinylsilane", "Tris(\u03b2-methoxyethoxy)vinylsilane", "Tris(2-methoxyethoxy)vinylsilane", "NUCA 172", "KBC 1003", "Vinyltris(2-methoxyethoxy)silane", "V 5000", "VTS-ME", "SZ 6082", "Vinyltris(\u03b2-methoxyethoxy)silane", "SH 6082", "UNC-A 172", "Z 6082", "A 172 (coupling agent)", "Silquest A 172", "Silane A 172", "Vinyltri(\u03b2-methoxyethoxy)silane", "Dynasylan VTMOEO", "NSC 78465", "Silox VS 924", "VTMOEO", "KH 172", "Struktol SCA 972", "Z 6172", "U 613", "WD 27", "SCA 972", "YGO 1204", "VTMES-SCA 972", "Fibnasil", "Geniosil GF 58", "SG-SI 172", "A 173", "AC 77", "DB 172", "DB 172 (coupling agent)", "WD 72", "Tri(2-methoxyethoxy)vinylsilane", "Vinyltri(methoxyethoxy)silane", "A 172NT", "Silquest A 172NT", "CG 172", "KH-A 172", "Crosile 172", "SCA-A 172", "SCA-V 71C", "FD 172"], "SMILES": "[Si](OCCOC)(OCCOC)(OCCOC)C=C", "physical_data": {"Molecular Weight": "280.39", "Molecular Formula": "C11H24O6Si", "Boiling Point": "284-286 \u00b0C", "Density": "1.033 g/cm\u00b3 @ Temp: 25 \u00b0C"}}