{"cas_no": "1067-08-9", "cn_name": "3-\u4e59\u57fa-3-\u7532\u57fa\u620a\u70f7", "en_name": ["3-Methyl-3-ethylpentane", "Pentane, 3-ethyl-3-methyl-", "3-Ethyl-3-methylpentane", "3-Methyl-3-ethylpentane", "NSC 73956"], "SMILES": "C(CC)(CC)(CC)C", "physical_data": {"Molecular Weight": "114.23", "Molecular Formula": "C8H18", "Boiling Point": "118.2 \u00b0C", "Melting Point": "-90.9 \u00b0C", "Density": "0.713 g/cm\u00b3 @ Temp: 19 \u00b0C"}}