{"cas_no": "1067-52-3", "cn_name": "\u4e09\u6b63\u4e01\u57fa\u7532\u6c27\u57fa\u9521", "en_name": ["Tributylmethoxystannane", "Stannane, tributylmethoxy-", "Tin, tributylmethoxy-", "Tributylmethoxystannane", "Tributyltin methanolate", "Tributylmethoxytin", "Tributyltin methoxide", "Methoxytributyltin", "Methoxytributylstannane", "NSC 202857"], "SMILES": "[Sn](CCCC)(CCCC)(CCCC)OC", "physical_data": {"Molecular Weight": "321.09", "Molecular Formula": "C13H30OSn", "Boiling Point": "117 \u00b0C @ Press: 2 Torr", "Melting Point": "95-97 \u00b0C", "Density": "1.1294 g/cm\u00b3 @ Temp: 20 \u00b0C"}}