{"cas_no": "106730-54-5", "cn_name": "\u5965\u666e\u529b\u519c", "en_name": ["Olprinone", "3-Pyridinecarbonitrile, 1,2-dihydro-5-imidazo[1,2-a]pyridin-6-yl-6-methyl-2-oxo-", "Imidazo[1,2-a]pyridine, 3-pyridinecarbonitrile deriv.", "1,2-Dihydro-5-imidazo[1,2-a]pyridin-6-yl-6-methyl-2-oxo-3-pyridinecarbonitrile", "Loprinone", "Olprinone", "1,2-Dihydro-5-imidazo[1,2-a]pyridin-6-yl-6-methyl-2-oxonicotinonitrile"], "SMILES": "CC1=C(C2=CN3C(C=C2)=NC=C3)C=C(C#N)C(=O)N1", "physical_data": {"Molecular Weight": "250.26", "Molecular Formula": "C14H10N4O", "Melting Point": "&gt;300 \u00b0C"}}