{"cas_no": "106700-29-2", "cn_name": "\u70ef\u8349\u80fa", "en_name": ["Pethoxamid", "Acetamide, 2-chloro-N-(2-ethoxyethyl)-N-(2-methyl-1-phenyl-1-propen-1-yl)-", "Acetamide, 2-chloro-N-(2-ethoxyethyl)-N-(2-methyl-1-phenyl-1-propenyl)-", "2-Chloro-N-(2-ethoxyethyl)-N-(2-methyl-1-phenyl-1-propen-1-yl)acetamide", "2-Chloro-N-(2-ethoxyethyl)-N-(2-methyl-1-phenyl-1-propenyl)acetamide", "Pethoxamid", "Successor 600", "Pethoxamide"], "SMILES": "C(N(CCOCC)C(CCl)=O)(=C(C)C)C1=CC=CC=C1", "physical_data": {"Molecular Weight": "295.80", "Molecular Formula": "C16H22ClNO2", "Boiling Point": "145-146 \u00b0C @ Press: 0.17 Torr"}}