{"cas_no": "106795-66-8", "cn_name": "1-(2-\u6c1f\u82ef\u57fa)\u73af\u5df2\u70f7\u7fa7\u9178", "en_name": ["1-(2-Fluorophenyl)cyclohexanecarboxylic acid", "Cyclohexanecarboxylic acid, 1-(2-fluorophenyl)-", "1-(2-Fluorophenyl)cyclohexanecarboxylic acid", "1-(2-Fluorophenyl)cyclohexane-1-carboxylic acid"], "SMILES": "C(O)(=O)C1(CCCCC1)C2=C(F)C=CC=C2", "physical_data": {"Molecular Weight": "222.26", "Molecular Formula": "C13H15FO2", "Melting Point": "124-125 \u00b0C"}}