{"cas_no": "1067-43-2", "cn_name": "\u7845\u9178\u56db\u70ef\u4e19\u916f", "en_name": ["Silicic acid (H4SiO4) tetra-2-propen-1-yl ester", "Silicic acid (H4SiO4), tetra-2-propen-1-yl ester", "Silicic acid (H4SiO4), tetraallyl ester", "Silicic acid (H4SiO4), tetra-2-propenyl ester", "Allyl silicate ((C3H5O)4Si)", "Silicic acid (H4SiO4) tetra-2-propen-1-yl ester", "Tetrakis(allyloxy)silane", "Tetraallyloxysilane", "NSC 89755"], "SMILES": "[Si](OCC=C)(OCC=C)(OCC=C)OCC=C", "physical_data": {"Molecular Weight": "256.37", "Molecular Formula": "C12H20O4Si", "Boiling Point": "114-116 \u00b0C @ Press: 12 Torr", "Density": "0.982 g/cm\u00b3"}}