{"cas_no": "1067-57-8", "cn_name": "\u4e01\u57fa\u4e09\u7532\u6c27\u57fa\u7845\u70f7", "en_name": ["Butyltrimethoxysilane", "Silane, butyltrimethoxy-", "Butyltrimethoxysilane", "n-Butyltrimethoxysilane", "AY 43-204", "Dynasylan P 01080", "AY 43-204M", "SIB 1988"], "SMILES": "[Si](CCCC)(OC)(OC)OC", "physical_data": {"Molecular Weight": "178.30", "Molecular Formula": "C7H18O3Si", "Boiling Point": "164-165 \u00b0C", "Density": "0.931 g/cm\u00b3"}}