{"cas_no": "1067-25-0", "cn_name": "\u4e19\u57fa\u4e09\u7532\u6c27\u57fa\u7845\u70f7", "en_name": ["Propyltrimethoxysilane", "Silane, trimethoxypropyl-", "Trimethoxypropylsilane", "Propyltrimethoxysilane", "n-Propyltrimethoxysilane", "P 810", "AY 43-203M", "Dynasylan BSM", "Silan 103", "Dynasylan PTMO", "KBM 3033", "N 313", "PTMS", "JH-N 313", "Z 6265", "DB 8330", "B 21033", "KBM 3303", "SIP 6918.0", "D 2401"], "SMILES": "[Si](CCC)(OC)(OC)OC", "physical_data": {"Molecular Weight": "164.27", "Molecular Formula": "C6H16O3Si", "Boiling Point": "142 \u00b0C", "Density": "0.932 g/cm\u00b3 @ Temp: 25 \u00b0C"}}