{"cas_no": "1067-42-1", "cn_name": "\u56db\u6b63\u4e01\u57fa\u9517", "en_name": ["Tetrabutylgermane", "Germane, tetrabutyl-", "Tetrabutylgermane", "Tetrabutylgermanium", "Tetra-n-butylgermane", "NSC 65798"], "SMILES": "[Ge](CCCC)(CCCC)(CCCC)CCCC", "physical_data": {"Molecular Weight": "301.10", "Molecular Formula": "C16H36Ge", "Boiling Point": "274 \u00b0C", "Density": "0.929 g/cm\u00b3"}}