{"cas_no": "1067-74-9", "cn_name": "\u4e8c\u4e59\u57fa\u78f7\u9170\u4e59\u9178\u7532\u916f", "en_name": ["Methyl (diethylphosphono)acetate", "Acetic acid, 2-(diethoxyphosphinyl)-, methyl ester", "Acetic acid, phosphono-, P,P-diethyl methyl ester", "Acetic acid, (diethoxyphosphinyl)-, methyl ester", "Acetic acid, phosphono-, diethyl 1-methyl ester", "Diethylphosphonoacetic acid methyl ester", "Diethyl methoxycarbonylmethanephosphonate", "Diethyl carbomethoxymethylphosphonate", "Diethyl phosphonate, methoxycarbonylmethyl-", "Methyl (diethylphosphono)acetate", "O,O-Diethyl phosphonoacetic acid methyl ester", "(Methoxycarbonylmethyl) diethoxyphosphine oxide", "Methoxycarbonylmethanephosphonic acid diethyl ester", "Methyl diethoxyphosphonoacetate", "Methyl di-O-ethylphosphonoacetate", "Diethyl (methoxycarbonylmethyl)phosphonate", "[(Methoxycarbonyl)methyl]phosphonic acid diethyl ester", "Methyl 2-(diethylphosphonato)acetate", "(Diethoxyphosphinyl)acetic acid methyl ester", "Methyl (diethoxyphosphinyl)acetate", "NSC 147757", "Methyl 2-(diethylphosphono)acetate", "Methyl 2-(diethoxyphosphono)acetate", "Methyl 2-(diethoxyphosphinyl)acetate", "Methyl 2-(diethoxyphosphoryl)acetate"], "SMILES": "P(CC(OC)=O)(OCC)(OCC)=O", "physical_data": {"Molecular Weight": "210.16", "Molecular Formula": "C7H15O5P", "Boiling Point": "99 \u00b0C @ Press: 1 Torr", "Density": "1.1611 g/cm\u00b3 @ Temp: 20 \u00b0C"}}