{"cas_no": "106778-43-2", "cn_name": "6-\u5f02\u55b9\u5549\u7532\u9178", "en_name": ["6-Isoquinolinecarboxylic acid", "6-Isoquinolinecarboxylic acid"], "SMILES": "C(O)(=O)C1=CC2=C(C=C1)C=NC=C2", "physical_data": {"Molecular Weight": "173.17", "Molecular Formula": "C10H7NO2", "Melting Point": "355-360 \u00b0C"}}