{"cas_no": "1067-55-6", "cn_name": "\u4e8c\u4e01\u57fa\u4e8c\u7532\u6c27\u57fa\u9521", "en_name": ["Dibutyltin dimethoxide", "Stannane, dibutyldimethoxy-", "Tin, dibutyldimethoxy-", "Dibutyldimethoxystannane", "Dibutyldimethoxytin", "Dibutyltin dimethoxide", "Dimethoxydibutyltin", "S-Cat 27", "NSC 101695"], "SMILES": "[Sn](CCCC)(CCCC)(OC)OC", "physical_data": {"Molecular Weight": "295.01", "Molecular Formula": "C10H24O2Sn", "Boiling Point": "127 \u00b0C", "Density": "1.2862 g/cm\u00b3 @ Temp: 20 \u00b0C"}}