{"cas_no": "1067-33-0", "cn_name": "\u4e8c\u4e59\u9178\u4e8c\u4e01\u57fa\u9521", "en_name": ["Dibutyltin diacetate", "Acetic acid, 1,1\u2032-(dibutylstannylene) ester", "Dibutyltin diacetate", "Stannane, diacetoxydibutyl-", "Stannane, bis(acetyloxy)dibutyl-", "Diacetoxydibutyltin", "Ba 2726", "Dibutyltin acetate", "Diacetoxydibutylstannane", "T 1 (catalyst)", "T 1", "Syl-off 23A", "NSC 8786", "Fascat 4200", "Metacure T 1", "U 200", "S-Cat 8", "S-Cat 8F", "Fomrez SUL 3", "Tegokat 233", "Dibutyldiacetoxytin", "TK 14", "Neostann U 200", "Di-n-butyltin(II) acetate", "BNT-CAT 400", "(Acetyloxy)dibutylstannyl acetate", "D 70", "D 155023", "HG 0112"], "SMILES": "[Sn](OC(C)=O)(OC(C)=O)(CCCC)CCCC", "physical_data": {"Molecular Weight": "351.03", "Molecular Formula": "C12H24O4Sn", "Boiling Point": "130 \u00b0C @ Press: 2 Torr", "Melting Point": "10 \u00b0C", "Density": "1.31 g/cm\u00b3 @ Temp: 25 \u00b0C"}}