{"cas_no": "1067-09-0", "cn_name": "1,1,1-\u4e09\u6c2f\u7532\u57fa\u4e59\u70f7", "en_name": ["1,3-Dichloro-2-(chloromethyl)-2-methylpropane", "Propane, 1,3-dichloro-2-(chloromethyl)-2-methyl-", "1,3-Dichloro-2-(chloromethyl)-2-methylpropane", "1-Chloro-2,2-di(chloromethyl)propane", "1,1,1-Tris(chloromethyl)ethane", "2-(Chloromethyl)-2-methyl-1,3-dichloropropane", "NSC 151253", "2-Chloromethyl-1,3-dichloro-2-methylpropane", "1,1,1-Trichloromethylethane", "2,2-Bis(chloromethyl)-1-chloropropane"], "SMILES": "C(CCl)(CCl)(CCl)C", "physical_data": {"Molecular Weight": "175.48", "Molecular Formula": "C5H9Cl3", "Boiling Point": "49-50 \u00b0C @ Press: 2 Torr"}}