{"cas_no": "1067-47-6", "cn_name": "4-\u4e09\u4e59\u6c27\u57fa\u7845\u57fa\u4e01\u8148", "en_name": ["3-Cyanopropyltriethoxysilane", "Butanenitrile, 4-(triethoxysilyl)-", "Butyronitrile, 4-(triethoxysilyl)-", "4-(Triethoxysilyl)butanenitrile", "3-Cyanopropyltriethoxysilane", "4-(Triethoxysilyl)butyronitrile", "\u03b3-Cyanopropyltriethoxysilane", "GH 520", "1-Cyano-3-triethoxysilylpropane"], "SMILES": "[Si](CCCC#N)(OCC)(OCC)OCC", "physical_data": {"Molecular Weight": "231.36", "Molecular Formula": "C10H21NO3Si", "Boiling Point": "79-80 \u00b0C @ Press: 0.6 Torr", "Density": "0.961 g/cm\u00b3"}}