{"cas_no": "1067883-58-2", "cn_name": "2-(2-\u4e8c\u73af\u5df1\u57fa\u78f7\u6742NYL-\u82ef\u57fa)-1-\u7532\u57fa-1H-\u5432\u54da", "en_name": ["2-[2-(Dicyclohexylphosphino)phenyl]-1-methyl-1H-indole", "1H-Indole, 2-[2-(dicyclohexylphosphino)phenyl]-1-methyl-", "2-[2-(Dicyclohexylphosphino)phenyl]-1-methyl-1H-indole", "CM-phos", "2-(2-Dicyclohexylphosphanyl-phenyl)-1-methyl-1H-indole"], "SMILES": "P(C1=C(C=CC=C1)C=2N(C)C=3C(C2)=CC=CC3)(C4CCCCC4)C5CCCCC5", "physical_data": {"Molecular Weight": "403.54", "Molecular Formula": "C27H34NP", "Melting Point": "171.9-174.9 \u00b0C"}}