{"cas_no": "1067-87-4", "cn_name": "\u70ef\u4e19\u57fa\u78f7\u9178\u4e8c\u4e59\u916f", "en_name": ["Diethyl P-2-propen-1-ylphosphonate", "Phosphonic acid, P-2-propen-1-yl-, diethyl ester", "Phosphonic acid, allyl-, diethyl ester", "Phosphonic acid, 2-propenyl-, diethyl ester", "Diethyl P-2-propen-1-ylphosphonate", "Diethyl allylphosphonate", "Diethyl \u03b1-allylphosphonate", "Diethyl prop-2-enylphosphonate", "3-Diethoxyphosphorylprop-1-ene"], "SMILES": "P(CC=C)(OCC)(OCC)=O", "physical_data": {"Molecular Weight": "178.17", "Molecular Formula": "C7H15O3P", "Boiling Point": "96.5-97.0 \u00b0C @ Press: 11 Torr", "Density": "1.0362 g/cm\u00b3 @ Temp: 17 \u00b0C"}}