{"cas_no": "1068-90-2", "cn_name": "\u4e59\u9170\u6c28\u57fa\u4e19\u4e8c\u9178\u4e8c\u4e59\u916f", "en_name": ["Diethyl acetamidomalonate", "Propanedioic acid, 2-(acetylamino)-, 1,3-diethyl ester", "Malonic acid, acetamido-, diethyl ester", "Propanedioic acid, (acetylamino)-, diethyl ester", "Diethyl acetamidomalonate", "Acetamidomalonic acid diethyl ester", "Diethyl (acetylamino)malonate", "Diethyl 2-acetamidomalonate", "Diethyl (N-acetylamino)malonate", "Diethyl \u03b1-(acetylamino)malonate", "(Acetylamino)malonic acid diethyl ester", "2-(Acetylamino)propanedioic acid diethyl ester", "Diethyl 2-acetylaminomalonate", "NSC 7645", "2-Acetylamino-malonic acid diethyl ester", "(Acetylamino)propanedioic acid diethyl ester", "Diethyl 2-(acetylamino)propanedioate", "Diethyl 2-(acetamido)propanedioate", "1,3-Diethyl 2-acetamidopropanedioate", "Diethyl acetoamidomalonate"], "SMILES": "C(C(OCC)=O)(C(OCC)=O)NC(C)=O", "physical_data": {"Molecular Weight": "217.22", "Molecular Formula": "C9H15NO5", "Boiling Point": "185 \u00b0C @ Press: 20 Torr", "Melting Point": "95-96 \u00b0C"}}