{"cas_no": "1068-47-9", "cn_name": "1-\u5def\u57fa-2-\u4e19\u9187", "en_name": ["1-Mercapto-2-propanol", "2-Propanol, 1-mercapto-", "1-Methyl-2-mercaptoethanol", "2-Hydroxy-1-propanethiol", "2-Hydroxy-3-propanethiol", "\u03b2-Hydroxypropylmercaptan", "1-Mercapto-2-propanol", "3-Mercapto-2-propanol", "(\u00b1)-1-Mercapto-2-propanol", "1-Sulfanylpropan-2-ol"], "SMILES": "C(CS)(C)O", "physical_data": {"Molecular Weight": "92.16", "Molecular Formula": "C3H8OS", "Boiling Point": "51 \u00b0C @ Press: 12 Torr", "Density": "1.0483 g/cm\u00b3 @ Temp: 20 \u00b0C"}}