{"cas_no": "1068-22-0", "cn_name": "\u4e8c\u4e59\u57fa\u4e8c\u4e19\u70ef\u9178\u94dd\u76d0", "en_name": ["Ammonium diethyldithiophosphate", "Phosphorodithioic acid, O,O-diethyl ester, ammonium salt (1:1)", "Phosphorodithioic acid, O,O-diethyl ester, ammonium salt", "Ammonium ethyl phosphorodithioate", "Ammonium O,O\u2032-diethyldithiophosphate", "Ammonium O,O-diethyl dithiophosphate", "S-Ammonium O,O\u2032-diethyl phosphorodithioate", "Ammonium O,O-diethyl phosphorodithioate", "O,O-Diethyl ammonium phosphorodithioate", "NF 133", "Ammonium diethyldithiophosphate", "Ammonium di-O-ethyl dithiophosphate", "O,O-Diethylphosphorodithioic acid ammonium salt", "Ammonium O,O-diethyl phosphorodithioate(1-)", "Ethyl ammonium phosphorodithioate, (EtO)2(NH4S)PS", "Kejunlin"], "SMILES": "P(OCC)(OCC)(=S)S.N", "physical_data": {"Molecular Weight": "", "Molecular Formula": "C4H11O2PS2.H3N", "Melting Point": "165-166 \u00b0C"}}