{"cas_no": "1068-55-9", "cn_name": "\u5f02\u4e19\u57fa\u6c2f\u5316\u9541", "en_name": ["Chloro(1-methylethyl)magnesium", "Magnesium, chloro(1-methylethyl)-", "Magnesium, chloroisopropyl-", "Isopropylmagnesium chloride", "Chloro(1-methylethyl)magnesium", "Chloroisopropylmagnesium", "2-Propylmagnesium chloride", "Chloro(propan-2-yl)magnesium"], "SMILES": "C([Mg]Cl)(C)C", "physical_data": {"Molecular Weight": "", "Molecular Formula": "C3H7ClMg", "Melting Point": "155-157 \u00b0C"}}