{"cas_no": "1068-57-1", "cn_name": "\u4e59\u9170\u80bc", "en_name": ["Acetohydrazide", "Acetic acid, hydrazide", "Acetic acid hydrazide", "Acetyl hydrazide", "Hydrazine, acetyl-", "Acethydrazide", "Monoacetylhydrazine", "Acetohydrazide", "Acetylhydrazine", "ENT-61241", "Ethanehydrazonic acid", "NSC 53155", "Acetic hydrazide", "Acetohydrazine", "NSC 2271", "Acetocarbazate"], "SMILES": "C(NN)(C)=O", "physical_data": {"Molecular Weight": "74.08", "Molecular Formula": "C2H6N2O", "Boiling Point": "137 \u00b0C", "Melting Point": "67 \u00b0C"}}