{"cas_no": "1068-07-1", "cn_name": "1-\u4e19\u57fa\u81a6\u9178\u4e8c\u4e59\u916f", "en_name": ["Diethyl P-octylphosphonate", "Phosphonic acid, P-octyl-, diethyl ester", "Phosphonic acid, octyl-, diethyl ester", "Diethyl P-octylphosphonate", "Diethyl octylphosphonate", "Diethyl octanephosphonate", "1-Diethoxyphosphoryloctane"], "SMILES": "P(CCCCCCCC)(OCC)(OCC)=O", "physical_data": {"Molecular Weight": "250.31", "Molecular Formula": "C12H27O3P", "Boiling Point": "119 \u00b0C @ Press: 1.2 Torr", "Density": "0.9490 g/cm\u00b3 @ Temp: 020 \u00b0C"}}