{"cas_no": "106807-72-1", "cn_name": "\u76d0\u9178\u7f8e\u6258\u54aa\u5576", "en_name": ["Medetomidine", "1H-Imidazole, 5-[1-(2,3-dimethylphenyl)ethyl]-", "1H-Imidazole, 4-[1-(2,3-dimethylphenyl)ethyl]-", "5-[1-(2,3-Dimethylphenyl)ethyl]-1H-imidazole", "Medetomidine", "dl-Medetomidine", "(\u00b1)-Medetomidine", "Slectope", "4-[1-(2,3-Dimethylphenyl)ethyl]-1H-imidazole", "Selektope"], "SMILES": "C(C)(C1=C(C)C(C)=CC=C1)C2=CN=CN2", "physical_data": {"Molecular Weight": "200.28", "Molecular Formula": "C13H16N2", "Melting Point": "83-92 \u00b0C"}}