{"cas_no": "1068-69-5", "cn_name": "\u4e09\uff08\u4e09\u7532\u4ee3\u7532\u7845\u70f7\u57fa\uff09\u7532\u70f7", "en_name": ["1,1\u2032,1\u2032\u2032-Methylidynetris[1,1,1-trimethylsilane]", "Silane, 1,1\u2032,1\u2032\u2032-methylidynetris[1,1,1-trimethyl-", "2,4-Disilapentane, 2,2,4,4-tetramethyl-3-(trimethylsilyl)-", "Silane, methylidynetris[trimethyl-", "1,1\u2032,1\u2032\u2032-Methylidynetris[1,1,1-trimethylsilane]", "Tris(trimethylsilyl)methane", "Methylidynetris[trimethylsilane]", "[Bis(trimethylsilyl)methyl]trimethylsilane"], "SMILES": "C([Si](C)(C)C)([Si](C)(C)C)[Si](C)(C)C", "physical_data": {"Molecular Weight": "232.59", "Molecular Formula": "C10H28Si3", "Boiling Point": "80 \u00b0C @ Press: 2 Torr", "Density": "0.827 g/cm\u00b3"}}