{"cas_no": "1068-27-5", "cn_name": "2,5-\u4e8c\u7532\u57fa-2,5-\u4e8c\u53d4\u4e01\u57fa\u8fc7\u6c27\u57fa-3-\u5df1\u7094", "en_name": ["2,5-Dimethyl-2,5-di(tert-butylperoxy)hexyne-3", "Peroxide, 1,1\u2032-(1,1,4,4-tetramethyl-2-butyne-1,4-diyl)bis[2-(1,1-dimethylethyl)", "Peroxide, (1,1,4,4-tetramethyl-2-butynylene)bis[tert-butyl", "Peroxide, (1,1,4,4-tetramethyl-2-butyne-1,4-diyl)bis[(1,1-dimethylethyl)", "Peroxide, (tetramethyl-2-butynylene)bis[tert-butyl", "1,1\u2032-(1,1,4,4-Tetramethyl-2-butyne-1,4-diyl)bis[2-(1,1-dimethylethyl) peroxide]", "3,4,9,10-Tetraoxadodec-6-yne, 2,2,5,5,8,8,11,11-octamethyl-", "Luperox 130", "Lupersol 130", "Luperco 130XL", "Cab-O-Cure 2P", "2,5-Dimethyl-2,5-bis(tert-butyldioxy)-3-hexyne", "Perhexyne 2.5B", "2,5-Dimethyl-2,5-bis(tert-butylperoxy)-3-hexyne", "PX 1", "Kayahexa YD", "Perhexyne 2.5B40", "Perhexyne 25B40", "Perhexyne 25B", "2,5-Dimethyl-2,5-di(t-butylperoxy)hexyne-3", "2,5-Bis(tert-butylperoxy)-2,5-dimethyl-3-hexyne", "Trigonox 145", "Luperox XL 130", "Varox 130XL", "PX 1 (peroxide)", "2,5-Di(tert-butylperoxy)-2,5-dimethyl-3-hexyne", "2,5-Dimethyl-2,5-di(tert-butylperoxy)-3-hexyne", "2,5-Bis(tert-butylperoxy)-2,5-dimethylhexyne", "2,5-Dimethyl-2,5-di(t-butylperoxy)-3-hexyne", "L 130", "L 130 (peroxide)", "Trigonox 145E85", "LX 130", "2,5-Dimethyl-2,5-di(tert-butylperoxy)hexyne-3", "Sanperox YPO", "DYBP", "Trigonox 145-45B", "2,5-Dimethyl-2,5-di-tert-butylperoxyhexyne", "Aztec DYBP", "25B", "Peroxide D 25", "D 25 (peroxide)", "D 25", "Interox DYBP", "Trigonox 145B45PD", "2,5-Dimethyl-2,5-di(tert-butylperoxy)hexyne-3", "Kayahexa YD 50C", "Luperox 130XL45", "2,5-Dimethyl-2,5-di(t-butylperoxy)hexyne", "DYBP 85WO", "2,5-Dimethyl-2,5-bis(tert-butylperoxy)hexyne", "Trigonox 101HP", "2,5-Dimethyl-2,5-(tert-butylperoxy)hexyne-3"], "SMILES": "C(C#CC(OOC(C)(C)C)(C)C)(OOC(C)(C)C)(C)C", "physical_data": {"Molecular Weight": "286.41", "Molecular Formula": "C16H30O4", "Boiling Point": "65-67 \u00b0C @ Press: 2 Torr", "Density": "0.881 g/cm\u00b3 @ Temp: 25 \u00b0C"}}