{"cas_no": "1069-72-3", "cn_name": "2-\u4e8c\u4e59\u6c28\u57fa-1-\u6eb4\u4e59\u70f7\u6c22\u6eb4\u9178\u76d0", "en_name": ["2-Bromo-N,N-diethylethylamine hydrobromide", "Ethanamine, 2-bromo-N,N-diethyl-, hydrobromide (1:1)", "Triethylamine, 2-bromo-, hydrobromide", "Ethanamine, 2-bromo-N,N-diethyl-, hydrobromide", "(2-Bromoethyl)diethylamine hydrobromide", "2-(Diethylamino)ethyl bromide hydrobromide", "2-Bromotriethylamine hydrobromide", "N-(2-Bromoethyl)diethylamine hydrobromide", "N,N-Diethyl-2-amino-1-bromoethane hydrobromide", "2-Bromo-N,N-diethylethylamine hydrobromide", "2-Bromo-N,N-diethylethanamine hydrobromide", "N,N-Diethyl-2-bromoethanamine hydrobromide"], "SMILES": "N(CCBr)(CC)CC.Br", "physical_data": {"Molecular Weight": "", "Molecular Formula": "C6H14BrN.BrH", "Melting Point": "209 \u00b0C"}}