{"cas_no": "106941-25-7", "cn_name": "\u963f\u5fb7\u798f\u97e6", "en_name": ["Adefovir", "Phosphonic acid, P-[[2-(6-amino-9H-purin-9-yl)ethoxy]methyl]-", "Phosphonic acid, [[2-(6-amino-9H-purin-9-yl)ethoxy]methyl]-", "P-[[2-(6-Amino-9H-purin-9-yl)ethoxy]methyl]phosphonic acid", "9-(2-Phosphonylmethoxyethyl)adenine", "PMEA", "9-[2-(Phosphonomethoxy)ethyl]adenine", "GS 0393", "Adefovir", "((2-(6-Amino-9H-purin-9-yl)ethoxy)methyl)phosphonicacid", "[[2-(6-Amino-9H-purin-9-yl)ethoxy]methyl]phosphonic acid", "2-(6-Aminopurin-9-yl)ethoxymethylphosphonic acid"], "SMILES": "C(COCP(=O)(O)O)N1C=2C(N=C1)=C(N)N=CN2", "physical_data": {"Molecular Weight": "273.19", "Molecular Formula": "C8H12N5O4P", "Melting Point": "301 \u00b0C"}}