{"cas_no": "1069-31-4", "cn_name": "DL-\u9e1f\u6c28\u9178\u76d0\u9178\u76d0", "en_name": ["Ornithine, hydrochloride (1:1)", "Ornithine, hydrochloride (1:1)", "Ornithine, monohydrochloride, DL-", "DL-Ornithine, monohydrochloride", "Ornithine, monohydrochloride", "NSC 25163", "2,5-Diaminopentanoic acid hydrochloride"], "SMILES": "C(C(O)=O)(CCCN)N.Cl", "physical_data": {"Molecular Weight": "", "Molecular Formula": "C5H12N2O2.ClH", "Melting Point": "215 \u00b0C"}}