{"cas_no": "106917-52-6", "cn_name": "\u78fa\u83cc\u80fa", "en_name": ["Flusulfamide", "Benzenesulfonamide, 4-chloro-N-(2-chloro-4-nitrophenyl)-3-(trifluoromethyl)-", "4-Chloro-N-(2-chloro-4-nitrophenyl)-3-(trifluoromethyl)benzenesulfonamide", "MTF 651", "Flusulfamide", "3-Trifluoromethyl-4-chlorobenzenesulfone-2-chloro-4-nitroanilide", "Scablock", "NEBIJIN"], "SMILES": "S(NC1=C(Cl)C=C(N(=O)=O)C=C1)(=O)(=O)C2=CC(C(F)(F)F)=C(Cl)C=C2", "physical_data": {"Molecular Weight": "415.17", "Molecular Formula": "C13H7Cl2F3N2O4S", "Melting Point": "170 \u00b0C"}}