{"cas_no": "1069-79-0", "cn_name": "1,2-\u4e8c\u786c\u916f\u9170-SN-\u7518\u6cb9-3-\u78f7\u9170\u4e59\u9187\u80fa", "en_name": ["1,2-Distearoyl-sn-glycero-3-phosphoethanolamine", "Octadecanoic acid, 1,1\u2032-[(1R)-1-[[[(2-aminoethoxy)hydroxyphosphinyl]oxy]methyl]-1,2-ethanediyl] ester", "Stearin, 1,2-di-, 2-aminoethyl hydrogen phosphate, L-", "Octadecanoic acid, 1-[[[(2-aminoethoxy)hydroxyphosphinyl]oxy]methyl]-1,2-ethanediyl ester, (R)-", "Octadecanoic acid, (1R)-1-[[[(2-aminoethoxy)hydroxyphosphinyl]oxy]methyl]-1,2-ethanediyl ester", "L-\u03b2,\u03b3-Distearoyl-\u03b1-phosphatidylethanolamine", "L-\u03b1-Distearoylphosphatidylethanolamine", "1,2-Distearoyl-sn-glycero-3-phosphoethanolamine", "(R)-Distearoylphosphatidylethanolamine", "1,2-Distearoyl-sn-glycero-3-phosphatidylethanolamine", "Distearoyl-L-\u03b1-phosphatidylethanolamine", "DSPE", "1,2-Distearoyl-sn-glycero-3-phosphorylethanolamine", "64: PN: WO2017201317 SEQID: 137 claimed RNA", "Coatsome ME 8080", "1,2-Distearoyl-sn-giycero-3-phosphoethanolamine"], "SMILES": "C(OC(CCCCCCCCCCCCCCCCC)=O)(COC(CCCCCCCCCCCCCCCCC)=O)COP(OCCN)(=O)O", "physical_data": {"Molecular Weight": "748.07", "Molecular Formula": "C41H82NO8P", "Melting Point": "173-175 \u00b0C"}}