{"cas_no": "106973-37-9", "cn_name": "(3S)-4-\u82c4\u57fa-5-\u6c27\u4ee3\u5417\u5549-3-\u7fa7\u9178", "en_name": ["(3S)-5-Oxo-4-(phenylmethyl)-3-morpholinecarboxylic acid", "3-Morpholinecarboxylic acid, 5-oxo-4-(phenylmethyl)-, (3S)-", "3-Morpholinecarboxylic acid, 5-oxo-4-(phenylmethyl)-, (S)-", "(3S)-5-Oxo-4-(phenylmethyl)-3-morpholinecarboxylic acid", "(3S)-4-Benzyl-5-oxomorpholine-3-carboxylic acid", "(3S)-4-Benzyl-5-oxomorpholine-3-carboxylic acid"], "SMILES": "C(N1C(C(O)=O)COCC1=O)C2=CC=CC=C2", "physical_data": {"Molecular Weight": "235.24", "Molecular Formula": "C12H13NO4", "Melting Point": "179-180 \u00b0C"}}