{"cas_no": "106910-77-4", "cn_name": "D-N-\u82c4\u57fa\u4e1d\u6c28\u9178", "en_name": ["N-(Phenylmethyl)-D-serine", "D-Serine, N-(phenylmethyl)-", "N-(Phenylmethyl)-D-serine", "(R)-2-Benzylamino-3-hydroxypropionic acid", "N-Benzyl-D-serine", "(2R)-2-(Benzylamino)-3-hydroxypropanoic acid", "(R)-2-(Benzylamino)-3-hydroxypropanoic acid"], "SMILES": "C(NC(C(O)=O)CO)C1=CC=CC=C1", "physical_data": {"Molecular Weight": "195.22", "Molecular Formula": "C10H13NO3", "Melting Point": "235-237 \u00b0C"}}