{"cas_no": "106989-11-1", "cn_name": "\u53f3\u65cb\u805a\u4e73\u9178", "en_name": ["Poly[(+)-lactic acid]", "Propanoic acid, 2-hydroxy-, (2R)-, homopolymer", "Propanoic acid, 2-hydroxy-, (R)-, homopolymer", "Poly[(+)-lactic acid]", "D-Lactic acid polymer", "D-Lactic acid homopolymer", "Poly-D-lactic acid", "(R)-Lactic acid homopolymer", "Poly(D-lactic acid)"], "SMILES": "C(C(O)=O)(C)O", "physical_data": {"Molecular Weight": "", "Molecular Formula": "(C3H6O3)x", "Melting Point": "154 \u00b0C"}}