{"cas_no": "106921-60-2", "cn_name": "2,2-\u4e8c\u7532\u57fa-3-\u6c27\u4ee3\u620a\u919b", "en_name": ["2,2-Dimethyl-3-oxopentanal", "Pentanal, 2,2-dimethyl-3-oxo-", "2,2-Dimethyl-3-oxopentanal"], "SMILES": "C(C(CC)=O)(C=O)(C)C", "physical_data": {"Molecular Weight": "128.17", "Molecular Formula": "C7H12O2", "Boiling Point": "62-64 \u00b0C @ Press: 20 Torr", "Density": "0.9582 g/cm\u00b3 @ Temp: 20 \u00b0C"}}