{"cas_no": "1069-23-4", "cn_name": "1,5-\u5df1\u4e8c\u70ef-3,4-\u4e8c\u9187", "en_name": ["1,5-Hexadiene-3,4-diol", "1,5-Hexadiene-3,4-diol", "3,4-Dihydroxy-1,5-hexadiene", "Divinylglycol", "NSC 60695", "1,2-Divinylethylene glycol"], "SMILES": "C(C(C=C)O)(C=C)O", "physical_data": {"Molecular Weight": "114.14", "Molecular Formula": "C6H10O2", "Boiling Point": "138-144 \u00b0C", "Melting Point": "106 \u00b0C", "Density": "1.006 g/cm\u00b3 @ Temp: 20 \u00b0C"}}