{"cas_no": "106939-34-8", "cn_name": "\u5de6\u6c27\u6c1f\u6c99\u661f\u73af\u5408\u916f", "en_name": ["Ethyl (3S)-9,10-difluoro-2,3-dihydro-3-methyl-7-oxo-7H-pyrido[1,2,3-de]-1,4-benzoxazine-6-carboxylate", "7H-Pyrido[1,2,3-de]-1,4-benzoxazine-6-carboxylic acid, 9,10-difluoro-2,3-dihydro-3-methyl-7-oxo-, ethyl ester, (3S)-", "7H-Pyrido[1,2,3-de]-1,4-benzoxazine-6-carboxylic acid, 9,10-difluoro-2,3-dihydro-3-methyl-7-oxo-, ethyl ester, (S)-", "Ethyl (3S)-9,10-difluoro-2,3-dihydro-3-methyl-7-oxo-7H-pyrido[1,2,3-de]-1,4-benzoxazine-6-carboxylate", "Ethyl 9,10-difluoro-3-(S)-methyl-7-oxo-2,3-dihydro-7H-pyrido[1,2,3-de]-1,4-benzoxazine-6-carboxylate"], "SMILES": "O=C1C=2C=3N(C=C1C(OCC)=O)C(C)COC3C(F)=C(F)C2", "physical_data": {"Molecular Weight": "309.26", "Molecular Formula": "C15H13F2NO4", "Melting Point": "257-258 \u00b0C"}}