{"cas_no": "106984-91-2", "cn_name": "2-\u7f9f\u57fa\u5421\u5576-5-\u919b", "en_name": ["6-Oxo-1,6-dihydropyridine-3-carboxaldehyde", "3-Pyridinecarboxaldehyde, 1,6-dihydro-6-oxo-", "1,6-Dihydro-6-oxo-3-pyridinecarboxaldehyde", "6-Hydroxy-3-pyridinecarboxaldehyde", "6-Oxo-1,6-dihydropyridine-3-carboxaldehyde", "2-Oxo-1,2-dihydropyridine-5-carboxaldehyde", "2-Hydroxypyridine-5-carboxaldehyde", "6-Oxo-1,6-dihydropyridine-3-carbaldehyde", "2-Hydroxy-5-formylpyridine", "5-Formylpyridin-2(1H)-one"], "SMILES": "C(=O)C=1C=CC(=O)NC1", "physical_data": {"Molecular Weight": "123.11", "Molecular Formula": "C6H5NO2", "Melting Point": "220.5-222.0 \u00b0C"}}