{"cas_no": "107-94-8", "cn_name": "3-\u6c2f\u4e19\u9178", "en_name": ["3-Chloropropionic acid", "Propanoic acid, 3-chloro-", "Propionic acid, 3-chloro-", "Propionic acid, \u03b2-chloro-", "3-Chloropropanoic acid", "\u03b2-Chloropropionic acid", "\u03b2-Monochloropropionic acid", "3-Chloropropionic acid", "NSC 174", "NSC 2183"], "SMILES": "C(C(O)=O)CCl", "physical_data": {"Molecular Weight": "108.52", "Molecular Formula": "C3H5ClO2", "Boiling Point": "200 \u00b0C", "Melting Point": "41 \u00b0C", "Density": "1.2214 g/cm\u00b3 @ Temp: 20 \u00b0C"}}