{"cas_no": "107-14-2", "cn_name": "\u6c2f\u4e59\u8148", "en_name": ["Chloroacetonitrile", "Acetonitrile, 2-chloro-", "Acetonitrile, chloro-", "2-Chloroacetonitrile", "Chloroacetonitrile", "Chloromethyl cyanide", "\u03b1-Chloroacetonitrile", "Monochloroacetonitrile", "Chloracetonitrile", "NSC 6180", "Cyanomethyl chloride"], "SMILES": "C(C#N)Cl", "physical_data": {"Molecular Weight": "75.50", "Molecular Formula": "C2H2ClN", "Boiling Point": "126.5 \u00b0C", "Melting Point": "&lt;25 \u00b0C", "Density": "1.1930 g/cm\u00b3"}}