{"cas_no": "107-22-2", "cn_name": "\u4e59\u4e8c\u919b", "en_name": ["Glyoxal", "Ethanedial", "Glyoxal", "Biformal", "1,2-Ethanedione", "Oxal", "Biformyl", "Diformyl", "Ethanedione", "Glyoxylaldehyde", "Oxalaldehyde", "Glyoxal aldehyde", "Permafresh 114", "Gohsezal P", "Glyfix CS 50", "Daicel GY 60", "Glyoxazal", "Glyoxazal GX", "GX (aldehyde)", "GX", "Glyoxal T 40", "Aurarez 136", "Protorez BLF-C", "Cartabond GHF", "Cartabond GH", "Glyoxal 40L", "XH 536", "Freechem 40DL", "Earth Works Linkup Plus", "MeSH ID: D006037"], "SMILES": "C(C=O)=O", "physical_data": {"Molecular Weight": "58.04", "Molecular Formula": "C2H2O2", "Boiling Point": "51 \u00b0C @ Press: 776 Torr", "Melting Point": "15 \u00b0C", "Density": "1.14 g/cm\u00b3 @ Temp: 20 \u00b0C"}}