{"cas_no": "107-82-4", "cn_name": "1-\u6eb4\u4ee3\u5f02\u620a\u70f7", "en_name": ["1-Bromo-3-methylbutane", "Butane, 1-bromo-3-methyl-", "1-Bromo-3-methylbutane", "4-Bromo-2-methylbutane", "Isopentyl bromide", "Isoamyl bromide", "3-Methylbutyl bromide", "3-Methyl-1-bromobutane", "Isobutylmethyl bromide", "NSC 9240"], "SMILES": "C(C(C)C)CBr", "physical_data": {"Molecular Weight": "151.04", "Molecular Formula": "C5H11Br", "Boiling Point": "120.4 \u00b0C", "Melting Point": "-112 \u00b0C", "Density": "1.13653 g/cm\u00b3 @ Temp: 0 \u00b0C"}}