{"cas_no": "107-13-1", "cn_name": "\u4e19\u70ef\u8148", "en_name": ["Acrylonitrile", "2-Propenenitrile", "Acrylonitrile", "Acrylon", "Carbacryl", "Cyanoethylene", "Fumigrain", "Propenenitrile", "VCN", "Vinyl cyanide", "Ventox", "Cyanoethene", "NSC 6362", "MeSH ID: D000181"], "SMILES": "C(C#N)=C", "physical_data": {"Molecular Weight": "53.06", "Molecular Formula": "C3H3N", "Boiling Point": "77.3 \u00b0C @ Press: 760 Torr", "Melting Point": "-82 \u00b0C", "Density": "0.8004 g/cm\u00b3 @ Temp: 25 \u00b0C"}}