{"cas_no": "107-68-6", "cn_name": "N-\u7532\u57fa\u725b\u78fa\u9178", "en_name": ["Methyltaurine", "Ethanesulfonic acid, 2-(methylamino)-", "Taurine, N-methyl-", "2-(Methylamino)ethanesulfonic acid", "N-Methyltaurine", "Monomethyltaurine", "Methyltaurine", "NSC 10479", "2-(Methylazaniumyl)ethanesulfonate"], "SMILES": "C(S(=O)(=O)O)CNC", "physical_data": {"Molecular Weight": "139.17", "Molecular Formula": "C3H9NO3S", "Melting Point": "241.5 \u00b0C"}}