{"cas_no": "107-21-1", "cn_name": "\u4e59\u4e8c\u9187", "en_name": ["Ethylene glycol", "1,2-Ethanediol", "Glycol", "Ethylene glycol", "Ethylene alcohol", "Ethylene dihydrate", "Glycol alcohol", "Macrogol 400 BPC", "Monoethylene glycol", "Tescol", "1,2-Dihydroxyethane", "Ramp", "2-Hydroxyethanol", "Fridex", "Ucar 17", "Dowtherm SR 1", "Norkool", "Zerex", "1,2-Ethylene glycol", "146AR", "Union Carbide XL 54 Type I De-icing Fluid", "MEG 100", "NSC 93876", "Glysil GS", "E 600", "E 600 (glycol)", "SR 01", "E 0105", "Glysantin G 34", "MeSH ID: D019855"], "SMILES": "C(CO)O", "physical_data": {"Molecular Weight": "62.07", "Molecular Formula": "C2H6O2", "Boiling Point": "197.3 \u00b0C", "Melting Point": "-13 \u00b0C", "Density": "1.1135 g/cm\u00b3 @ Temp: 20 \u00b0C"}}