{"cas_no": "107-27-7", "cn_name": "\u6c2f\u5316\u4e59\u57fa\u6c5e", "en_name": ["Ethylmercury chloride", "Mercury, chloroethyl-", "Ethylmercury chloride", "Ceresan", "Chloroethylmercury", "Ethylmercuric chloride", "Granosan", "Cryptodine", "Emcon D", "Cryptodin", "Criptodin", "Monoethylmercury chloride", "Ceresan (fungicide)", "NSC 1203", "NSC 60515", "MeSH ID: D005034"], "SMILES": "C([Hg]Cl)C", "physical_data": {"Molecular Weight": "", "Molecular Formula": "C2H5ClHg", "Melting Point": "192 \u00b0C"}}