{"cas_no": "107-64-2", "cn_name": "\u53cc\u5341\u516b\u70f7\u57fa\u4e8c\u7532\u57fa\u6c2f\u5316\u94f5", "en_name": ["Distearyldimethylammonium chloride", "1-Octadecanaminium, N,N-dimethyl-N-octadecyl-, chloride (1:1)", "Dimethyldioctadecylammonium chloride", "Ammonium, dimethyldioctadecyl-, chloride", "1-Octadecanaminium, N,N-dimethyl-N-octadecyl-, chloride", "Aliquat 207", "Talofloc", "N,N-Dioctadecyl-N,N-dimethylammonium chloride", "KD 83", "Arquad R 40", "Arosurf TA 100", "Quaternium 5", "Varisoft 100", "Genamin DSAC", "Di-n-octadecyldimethylammonium chloride", "Dimethyldistearylammonium chloride", "Cedequat TD 75", "Surfroyal DSAC", "Sokalan 9200", "Arquad 218-100", "Arquad 218-100P", "Ammonyx 2200P100", "Dioctadecyldimethylammonium chloride", "Distearyldimethylammonium chloride", "Kemamine Q 9702CLP", "Dehyquart DAM", "CA 3475", "Distearyldimonium chloride", "Adogen TA 100", "Quartamin D 86", "Cation DS", "DODAC", "Quartamin DM 86P", "DODA(Cl)", "Varisoft TA 100", "Arosurf TA 101", "Aerosurf TA 101", "Arquad 218P75E", "Dimethyldioctadecanylammonium chloride", "HYQMD 1821C", "Genamin DSAC 20", "Arquad 2HP", "Ammoeng 130", "Nikkol CA 3475V", "TA 101", "DHAC", "Swanol CA 3475", "Quartamin D 85P", "Arquad 2HP-75", "Genamin DSAP", "Cation DSV", "Quartamin D 86P", "D 86P", "Distearic dimethyl ammonium chloride", "D 1821", "Pionin B 8811", "Lipoquad 2HP75", "Genamin DSAC 75", "Preapagem WB", "Cationic surfactant 1821", "Fentacare 1821"], "SMILES": "C([N+](CCCCCCCCCCCCCCCCCC)(C)C)CCCCCCCCCCCCCCCCC.[Cl-]", "physical_data": {"Molecular Weight": "", "Molecular Formula": "C38H80N.Cl", "Melting Point": "67 \u00b0C", "Density": "0.86 g/cm\u00b3 @ Temp: 60 \u00b0C"}}