{"cas_no": "107-16-4", "cn_name": "\u7f9f\u57fa\u4e59\u8148", "en_name": ["Hydroxyacetonitrile", "Acetonitrile, 2-hydroxy-", "Glycolonitrile", "Acetonitrile, hydroxy-", "2-Hydroxyacetonitrile", "Glycolic nitrile", "Glyconitrile", "Formaldehyde, cyanohydrin", "Hydroxyacetonitrile", "Cyanomethanol", "Hydroxymethylnitrile", "Hydroxymethyl cyanide", "Cyanomethyl alcohol", "NSC 1790", "Formalcyanohydrin"], "SMILES": "C(CO)#N", "physical_data": {"Molecular Weight": "57.05", "Molecular Formula": "C2H3NO", "Boiling Point": "183 \u00b0C", "Melting Point": "&lt;-72 \u00b0C", "Density": "1.10 g/cm\u00b3"}}