{"cas_no": "107-50-6", "cn_name": "\u5341\u56db\u7532\u57fa\u73af\u4e03\u7845\u6c27\u70f7", "en_name": ["Tetradecamethylcycloheptasiloxane", "Cycloheptasiloxane, 2,2,4,4,6,6,8,8,10,10,12,12,14,14-tetradecamethyl-", "Cycloheptasiloxane, tetradecamethyl-", "2,2,4,4,6,6,8,8,10,10,12,12,14,14-Tetradecamethylcycloheptasiloxane", "Tetradecamethylcycloheptasiloxane"], "SMILES": "C[Si]1(C)O[Si](C)(C)O[Si](C)(C)O[Si](C)(C)O[Si](C)(C)O[Si](C)(C)O[Si](C)(C)O1", "physical_data": {"Molecular Weight": "519.08", "Molecular Formula": "C14H42O7Si7", "Boiling Point": "154 \u00b0C", "Melting Point": "-26 \u00b0C", "Density": "0.9664 g/cm\u00b3 @ Temp: 25 \u00b0C"}}