{"cas_no": "107-84-6", "cn_name": "\u6c2f\u4ee3\u5f02\u620a\u70f7", "en_name": ["1-Chloro-3-methylbutane", "Butane, 1-chloro-3-methyl-", "1-Chloro-3-methylbutane", "4-Chloro-2-methylbutane", "Isoamyl chloride", "Isopentyl chloride", "1-Chloro-3,3-dimethylpropane", "3-Methylbutyl chloride", "3-Methyl-1-chlorobutane", "NSC 6528"], "SMILES": "C(C(C)C)CCl", "physical_data": {"Molecular Weight": "106.59", "Molecular Formula": "C5H11Cl", "Boiling Point": "98.9 \u00b0C", "Melting Point": "-104.4 \u00b0C", "Density": "0.8692 g/cm\u00b3 @ Temp: 15 \u00b0C"}}