{"cas_no": "107-11-9", "cn_name": "\u70ef\u4e19\u80fa", "en_name": ["Allylamine", "2-Propen-1-amine", "Allylamine", "3-Aminopropylene", "Monoallylamine", "3-Aminopropene", "3-Amino-1-propene", "2-Propenamine", "1-Aminoprop-2-ene", "2-Propenylamine", "NSC 7600", "MeSH ID: D000499"], "SMILES": "C(CN)=C", "physical_data": {"Molecular Weight": "57.09", "Molecular Formula": "C3H7N", "Boiling Point": "55-58 \u00b0C", "Melting Point": "-88 \u00b0C", "Density": "0.760 g/cm\u00b3 @ Temp: 20 \u00b0C"}}