{"cas_no": "107-88-0", "cn_name": "1,3-\u4e01\u4e8c\u9187", "en_name": ["1,3-Butanediol", "1,3-Butanediol", "\u03b2-Butylene glycol", "1,3-Butylene glycol", "1,3-Dihydroxybutane", "Methyltrimethylene glycol", "1-Methyl-1,3-propanediol", "Butylene glycol", "3-Hydroxy-1-butanol", "DL-1,3-Butanediol", "(\u00b1)-Butane-1,3-diol", "(RS)-1,3-Butanediol", "NSC 402145", "13BGK", "Jeechem Bugl", "Niax DP 1022", "Haisugarcane BG", "Celtol 1,3-BG"], "SMILES": "C(C(C)O)CO", "physical_data": {"Molecular Weight": "90.12", "Molecular Formula": "C4H10O2", "Boiling Point": "207.5 \u00b0C @ Press: 760 Torr", "Melting Point": "&lt;-50 \u00b0C", "Density": "1.0059 g/cm\u00b3 @ Temp: 20 \u00b0C"}}