{"cas_no": "107-06-2", "cn_name": "1,2-\u4e8c\u6c2f\u4e59\u70f7", "en_name": ["1,2-Dichloroethane", "Ethane, 1,2-dichloro-", "1,2-Dichloroethane", "Brocide", "sym-Dichloroethane", "\u03b1,\u03b2-Dichloroethane", "Dutch liquid", "Ethylene chloride", "Ethylene dichloride", "Glycol dichloride", "1,2-Bichloroethane", "1,2-Dichlorethane", "Dichlor-Mulsion", "DCE", "HCC 150", "1,2-Ethylene dichloride"], "SMILES": "C(CCl)Cl", "physical_data": {"Molecular Weight": "98.96", "Molecular Formula": "C2H4Cl2", "Boiling Point": "83.5 \u00b0C", "Melting Point": "-35.3 \u00b0C", "Density": "1.2351 g/cm\u00b3 @ Temp: 20 \u00b0C"}}