{"cas_no": "107-72-2", "cn_name": "\u620a\u57fa\u4e09\u6c2f\u7845\u70f7", "en_name": ["Trichloropentylsilane", "Silane, trichloropentyl-", "Trichloropentylsilane", "Amyltrichlorosilane", "Pentylsilicon trichloride", "Trichloroamylsilane", "Pentyltrichlorosilane", "n-Pentyltrichlorosilane"], "SMILES": "C([Si](Cl)(Cl)Cl)CCCC", "physical_data": {"Molecular Weight": "205.59", "Molecular Formula": "C5H11Cl3Si", "Boiling Point": "172 \u00b0C", "Density": "1.1330 g/cm\u00b3 @ Temp: 20 \u00b0C"}}