{"cas_no": "107-47-1", "cn_name": "\u53d4\u4e01\u57fa\u786b\u919a", "en_name": ["tert-Butyl sulfide", "Propane, 2,2\u2032-thiobis[2-methyl-", "tert-Butyl sulfide", "2,2\u2032-Thiobis[2-methylpropane]", "Di-tert-butyl sulfide", "2,2,4,4-Tetramethyl-3-thiapentane", "Bis(1,1-dimethylethyl) sulfide", "NSC 4549", "2-tert-Butylsulfanyl-2-methylpropane", "2-(tert-Butylsulfanyl)-2-methylpropane"], "SMILES": "S(C(C)(C)C)C(C)(C)C", "physical_data": {"Molecular Weight": "146.29", "Molecular Formula": "C8H18S", "Boiling Point": "149.1 \u00b0C", "Melting Point": "-9 \u00b0C", "Density": "1.001 g/cm\u00b3 @ Temp: 15 \u00b0C"}}