{"cas_no": "107-73-3", "cn_name": "\u78f7\u9178\u80c6\u78b1", "en_name": ["Phosphocholine", "Ethanaminium, N,N,N-trimethyl-2-(phosphonooxy)-, chloride (1:1)", "Ethanaminium, N,N,N-trimethyl-2-(phosphonooxy)-, chloride", "Choline, chloride, dihydrogen phosphate", "Choline phosphate chloride", "Choline phosphochloride", "Phosphorylcholine chloride", "Phosphorylcholine hydrochloride", "Choline phosphate", "Phosphorylcholine", "Phosphocholine", "Phosphocholine chloride", "MeSH ID: D010767"], "SMILES": "C([N+](C)(C)C)COP(=O)(O)O.[Cl-]", "physical_data": {"Molecular Weight": "", "Molecular Formula": "C5H15NO4P.Cl", "Boiling Point": "103 \u00b0C @ Press: 12 Torr", "Melting Point": "108-111 \u00b0C (decomp)"}}