{"cas_no": "107-80-2", "cn_name": "1,3-\u4e8c\u6eb4\u4e01\u70f7", "en_name": ["1,3-Dibromobutane", "Butane, 1,3-dibromo-", "1,3-Dibromobutane", "(\u00b1)-1,3-Dibromobutane"], "SMILES": "C(C(Br)C)CBr", "physical_data": {"Molecular Weight": "215.91", "Molecular Formula": "C4H8Br2", "Boiling Point": "174 \u00b0C", "Density": "1.7904 g/cm\u00b3 @ Temp: 20 \u00b0C"}}