{"cas_no": "107-30-2", "cn_name": "\u6c2f\u7532\u57fa\u7532\u919a", "en_name": ["Chloromethyl methyl ether", "Methane, chloromethoxy-", "Ether, chloromethyl methyl", "Chloromethoxymethane", "Chlorodimethyl ether", "Chloromethyl methyl ether", "Monochlorodimethyl ether", "Methyl chloromethyl ether", "Methoxymethyl chloride", "Methoxychloromethane", "Monochloromethyl methyl ether", "NSC 21208", "NSC 93873", "Monochlorodimethylene ether", "1-Chloro-1-methoxy methane", "MOMCl"], "SMILES": "C(OC)Cl", "physical_data": {"Molecular Weight": "80.51", "Molecular Formula": "C2H5ClO", "Boiling Point": "59.5 \u00b0C", "Melting Point": "-103.5 \u00b0C", "Density": "1.0603 g/cm\u00b3 @ Temp: 20 \u00b0C"}}