{"cas_no": "107-39-1", "cn_name": "2,4,4-\u4e09\u7532\u57fa-1-\u620a\u70ef", "en_name": ["2,4,4-Trimethyl-1-pentene", "1-Pentene, 2,4,4-trimethyl-", "2,4,4-Trimethyl-1-pentene", "2,2,4-Trimethyl-4-pentene", "1-Methyl-1-neopentylethylene", "NSC 73942", "NSC 8701"], "SMILES": "C(C(C)(C)C)C(C)=C", "physical_data": {"Molecular Weight": "112.21", "Molecular Formula": "C8H16", "Boiling Point": "101.4 \u00b0C", "Melting Point": "-93.5 \u00b0C", "Density": "0.7150 g/cm\u00b3 @ Temp: 20 \u00b0C"}}