{"cas_no": "107-93-7", "cn_name": "\u5df4\u8c46\u9178", "en_name": ["trans-Crotonic acid", "2-Butenoic acid, (2E)-", "Crotonic acid, (E)-", "2-Butenoic acid, (E)-", "(2E)-2-Butenoic acid", "trans-Crotonic acid", "(E)-Crotonic acid", "trans-2-Butenoic acid", "(E)-2-Butenoic acid", "NSC 8751", "(E)-Crotonic acid"], "SMILES": "C(C(O)=O)=CC", "physical_data": {"Molecular Weight": "86.09", "Molecular Formula": "C4H6O2", "Boiling Point": "184.7 \u00b0C", "Melting Point": "72 \u00b0C"}}