{"cas_no": "107-87-9", "cn_name": "2-\u620a\u916e", "en_name": ["2-Pentanone", "2-Pentanone", "Methyl propyl ketone", "Methyl n-propyl ketone", "Ethylacetone", "Propyl methyl ketone", "4-Methyl-2-butanone", "NSC 5350"], "SMILES": "C(C(C)=O)CC", "physical_data": {"Molecular Weight": "86.13", "Molecular Formula": "C5H10O", "Boiling Point": "101.7 \u00b0C", "Melting Point": "-78 \u00b0C", "Density": "0.809 g/cm\u00b3 @ Temp: 20 \u00b0C"}}