{"cas_no": "107-85-7", "cn_name": "\u5f02\u620a\u80fa", "en_name": ["Isoamylamine", "1-Butanamine, 3-methyl-", "Isopentylamine", "Propylamine, 3,3-dimethyl-", "3-Methyl-1-butanamine", "Isoamylamine", "Leucamine", "3-Methylbutylamine", "\u03b3-Isoamylamine", "Monoisoamylamine", "1-Amino-3-methylbutane", "3-Methylbutanamine", "Isovalerylamine", "Monoisopentylamine", "3-Methyl-n-butylamine", "NSC 7907", "2-(2-Isopropyl)ethylamine", "3-Methyl-1-aminobutane"], "SMILES": "C(C(C)C)CN", "physical_data": {"Molecular Weight": "87.16", "Molecular Formula": "C5H13N", "Boiling Point": "96 \u00b0C", "Density": "0.740 g/cm\u00b3 @ Temp: 15 \u00b0C"}}