{"cas_no": "107-81-3", "cn_name": "2-\u6eb4\u620a\u70f7", "en_name": ["2-Bromopentane", "Pentane, 2-bromo-", "2-Bromopentane", "2-Pentyl bromide", "(\u00b1)-2-Bromopentane", "NSC 7896"], "SMILES": "C(C(Br)C)CC", "physical_data": {"Molecular Weight": "151.04", "Molecular Formula": "C5H11Br", "Boiling Point": "117.4 \u00b0C", "Melting Point": "-95.5 \u00b0C"}}