{"cas_no": "107-15-3", "cn_name": "\u4e59\u4e8c\u80fa", "en_name": ["Ethylenediamine", "1,2-Ethanediamine", "Ethylenediamine", "1,2-Diaminoethane", "Dimethylenediamine", "1,2-Ethylenediamine", "\u03b2-Aminoethylamine", "1,4-Diazabutane", "Edamine", "\u03b1,\u03c9-Ethanediamine", "(2-Aminoethyl)amine", "LR 500G", "PB 05721", "EDA", "E 0077", "ethylenediamine"], "SMILES": "C(CN)N", "physical_data": {"Molecular Weight": "60.10", "Molecular Formula": "C2H8N2", "Boiling Point": "116-117 \u00b0C", "Melting Point": "8.5 \u00b0C", "Density": "0.898 g/cm\u00b3 @ Temp: 25 \u00b0C"}}