{"cas_no": "107-54-0", "cn_name": "3,5-\u4e8c\u7532\u57fa-1-\u5df1\u7094-3-\u9187", "en_name": ["3,5-Dimethyl-1-hexyn-3-ol", "1-Hexyn-3-ol, 3,5-dimethyl-", "3,5-Dimethyl-1-hexyn-3-ol", "Surfynol 61", "3,5-Dimethylhexyn-3-ol", "NSC 978", "Surfynol S 61", "3,5-Dimethyl-1-hexyne-3-ol", "Surfinol 61", "X 93-1036"], "SMILES": "C(C(C#C)(C)O)C(C)C", "physical_data": {"Molecular Weight": "126.20", "Molecular Formula": "C8H14O", "Boiling Point": "148 \u00b0C @ Press: 760 Torr", "Density": "0.859 g/cm\u00b3 @ Temp: 12 \u00b0C"}}