{"cas_no": "107-58-4", "cn_name": "N-\u53d4\u4e01\u57fa\u4e19\u70ef\u9170\u80fa", "en_name": ["tert-Butylacrylamide", "2-Propenamide, N-(1,1-dimethylethyl)-", "Acrylamide, N-tert-butyl-", "N-(1,1-Dimethylethyl)-2-propenamide", "N-tert-Butylacrylamide", "tert-Butylacrylamide", "NSC 5287", "N-tert-Butyl-2-propenamide", "N-t-Butylacrylamide"], "SMILES": "N(C(C)(C)C)C(C=C)=O", "physical_data": {"Molecular Weight": "127.18", "Molecular Formula": "C7H13NO", "Melting Point": "126 \u00b0C", "Density": "0.977 g/cm\u00b3"}}