{"cas_no": "107-20-0", "cn_name": "\u6c2f\u4e59\u919b", "en_name": ["Chloroacetaldehyde", "Acetaldehyde, 2-chloro-", "Acetaldehyde, chloro-", "2-Chloroacetaldehyde", "Chloroacetaldehyde", "2-Chloro-1-ethanal", "Monochloroacetaldehyde", "\u03b1-Chloroacetaldehyde", "2-Chloroethanal"], "SMILES": "C(C=O)Cl", "physical_data": {"Molecular Weight": "78.50", "Molecular Formula": "C2H3ClO", "Boiling Point": "85-86 \u00b0C @ Press: 760 Torr", "Melting Point": "-16.3 \u00b0C", "Density": "1.19 g/cm\u00b3"}}