{"cas_no": "107-18-6", "cn_name": "\u4e19\u70ef\u9187", "en_name": ["Allyl alcohol", "2-Propen-1-ol", "Allyl alcohol", "Vinylcarbinol", "1-Propen-3-ol", "3-Hydroxypropene", "2-Propenyl alcohol", "2-Propenol", "Shell unkrauttod A", "Allylic alcohol", "3-Hydroxy-1-propene", "1-Hydroxy-2-propene", "NSC 6526", "Prop-2-ene-1-ol", "Prop-2-en1-ol"], "SMILES": "C(CO)=C", "physical_data": {"Molecular Weight": "58.08", "Molecular Formula": "C3H6O", "Boiling Point": "97 \u00b0C", "Melting Point": "-129 \u00b0C", "Density": "0.8540 g/cm\u00b3 @ Temp: 20 \u00b0C"}}