{"cas_no": "107-12-0", "cn_name": "\u4e19\u8148", "en_name": ["Propionitrile", "Propanenitrile", "Propionitrile", "Cyanoethane", "Ether cyanatus", "Ethyl cyanide", "Hydrocyanic ether", "Propionic nitrile", "Propiononitrile", "Propylnitrile", "n-Propanenitrile", "NSC 7966", "1-Methylacetonitrile"], "SMILES": "C(C#N)C", "physical_data": {"Molecular Weight": "55.08", "Molecular Formula": "C3H5N", "Boiling Point": "97.2 \u00b0C @ Press: 760 Torr", "Melting Point": "-91.8 \u00b0C", "Density": "0.7818 g/cm\u00b3 @ Temp: 20 \u00b0C"}}