{"cas_no": "107-61-9", "cn_name": "1,4-\u567b\u70f7-1,1-\u4e8c\u6c27", "en_name": ["1,4-Oxathiane, 4,4-dioxide", "1,4-Oxathiane, 4,4-dioxide", "p-Thioxane sulfone", "Thioxane sulfone", "Oxathiane 4,4-dioxide", "1,4-Thioxan-1,1-dioxide", "1,4-Thioxane-1,1-dioxide", "NSC 39595", "1,4-Oxathiane sulfone", "1,4\u03bb6-Oxathiane-4,4-dione"], "SMILES": "O=S1(=O)CCOCC1", "physical_data": {"Molecular Weight": "136.17", "Molecular Formula": "C4H8O3S", "Boiling Point": "130-140 \u00b0C @ Press: 1 Torr", "Melting Point": "129-130 \u00b0C"}}