{"cas_no": "107-51-7", "cn_name": "\u516b\u7532\u57fa\u4e09\u7845\u6c27\u70f7", "en_name": ["Octamethyltrisiloxane", "Trisiloxane, 1,1,1,3,3,5,5,5-octamethyl-", "Trisiloxane, octamethyl-", "1,1,1,3,3,5,5,5-Octamethyltrisiloxane", "Octamethyltrisiloxane", "Dimethylbis(trimethylsiloxy)silane", "KF 96L1.0", "OS 20", "Pentamethyl(trimethylsilyloxy)disiloxane", "KF 96A1cs", "FRD 20", "Pentamethyl(trimethylsiloxy)disiloxane", "MDM", "MDM (siloxane)", "OS 20 Fluid", "Dow Corning OS 20", "Dowsil OS 20", "R 030007"], "SMILES": "O([Si](O[Si](C)(C)C)(C)C)[Si](C)(C)C", "physical_data": {"Molecular Weight": "236.53", "Molecular Formula": "C8H24O2Si3", "Boiling Point": "153 \u00b0C", "Melting Point": "-80 \u00b0C", "Density": "0.820 g/cm\u00b3"}}