{"cas_no": "107-83-5", "cn_name": "2-\u7532\u57fa\u620a\u70f7", "en_name": ["2-Methylpentane", "Pentane, 2-methyl-", "2-Methylpentane", "Isohexane", "1,1-Dimethylbutane", "Kyowazol C 600", "NSC 66496", "Kyowasol C 600M", "2-Methylpentan"], "SMILES": "C(C(C)C)CC", "physical_data": {"Molecular Weight": "86.18", "Molecular Formula": "C6H14", "Boiling Point": "60.3 \u00b0C", "Melting Point": "-153.7 \u00b0C", "Density": "0.6532 g/cm\u00b3 @ Temp: 20 \u00b0C"}}