{"cas_no": "107-91-5", "cn_name": "\u6c30\u4e59\u9170\u80fa", "en_name": ["Cyanoacetamide", "Acetamide, 2-cyano-", "Acetamide, cyano-", "2-Cyanoacetamide", "Malonamide nitrile", "Nitrilomalonamide", "Cyanoacetamide", "Malonamonitrile", "Cyanoiminoacetic acid", "Cyanacetamide", "\u03b1-Cyanoacetamide", "Cyanoacetic acid amide", "NSC 6285", "NSC 8948", "8: PN: WO2007101224 PAGE: 36 claimed sequence", "Malonoamide nitrile"], "SMILES": "C(C(N)=O)C#N", "physical_data": {"Molecular Weight": "84.08", "Molecular Formula": "C3H4N2O", "Melting Point": "119.5 \u00b0C"}}