{"cas_no": "107-86-8", "cn_name": "3-\u7532\u57fa-2-\u4e01\u70ef\u919b", "en_name": ["3-Methyl-2-butenal", "2-Butenal, 3-methyl-", "Crotonaldehyde, 3-methyl-", "Senecialdehyde", "3-Methyl-2-butenal", "\u03b2,\u03b2-Dimethylacrolein", "2-Methyl-2-buten-4-al", "Senecioaldehyde", "3-Methyl-2-buten-1-al", "3-Methylcrotonaldehyde", "3,3-Dimethylacrolein", "\u03b2-Methylcrotonaldehyde", "Prenal", "\u03b2,\u03b2-Dimethylacrylic aldehyde", "NSC 149164", "3-Methyl-2-butenaldehyde", "3,3-Dimethylacrylaldehyde", "Prenylaldehyde"], "SMILES": "C(=C(C)C)C=O", "physical_data": {"Molecular Weight": "84.12", "Molecular Formula": "C5H8O", "Boiling Point": "136 \u00b0C", "Melting Point": "-20 \u00b0C", "Density": "0.9 g/cm\u00b3"}}