{"cas_no": "107-01-7", "cn_name": "2-\u4e01\u70ef", "en_name": ["2-Butene", "2-Butene", "\u03b2-Butylene", "Pseudobutylene", "\u03b2-Butene"], "SMILES": "C(=CC)C", "physical_data": {"Molecular Weight": "56.11", "Molecular Formula": "C4H8", "Boiling Point": "3.73 \u00b0C", "Melting Point": "-139.3 \u00b0C"}}