{"cas_no": "107-98-2", "cn_name": "\u4e19\u4e8c\u9187\u7532\u919a", "en_name": ["1-Methoxy-2-propanol", "2-Propanol, 1-methoxy-", "1-Methoxy-2-propanol", "Dowanol 33B", "1-Methoxy-2-hydroxypropane", "2-Methoxy-1-methylethanol", "Dowtherm 209", "3-Methoxy-2-propanol", "Methoxyisopropanol", "Closol", "Propylene glycol 1-methyl ether", "NSC 2409", "Essilor altius", "Glycol ether PM"], "SMILES": "C(C(C)O)OC", "physical_data": {"Molecular Weight": "90.12", "Molecular Formula": "C4H10O2", "Boiling Point": "120.1 \u00b0C", "Melting Point": "-96 \u00b0C", "Density": "0.9620 g/cm\u00b3 @ Temp: 20 \u00b0C"}}