{"cas_no": "107-41-5", "cn_name": "2-\u7532\u57fa-2,4-\u620a\u4e8c\u9187", "en_name": ["Hexylene glycol", "2,4-Pentanediol, 2-methyl-", "2-Methyl-2,4-pentanediol", "2,4-Dihydroxy-2-methylpentane", "Diolane", "Hexylene glycol", "Isol", "\u03b1,\u03b1,\u03b1\u2032-Trimethyltrimethylene glycol", "1,1,3-Trimethyltrimethylenediol", "MPD", "(\u00b1)-2-Methyl-2,4-pentanediol", "NSC 8098", "Hexasol", "Isohexanediol"], "SMILES": "C(C(C)(C)O)C(C)O", "physical_data": {"Molecular Weight": "118.17", "Molecular Formula": "C6H14O2", "Boiling Point": "198 \u00b0C @ Press: 760 Torr", "Melting Point": "-50 \u00b0C", "Density": "0.92 g/cm\u00b3"}}