{"cas_no": "107-04-0", "cn_name": "1-\u6eb4-2-\u6c2f\u4e59\u70f7", "en_name": ["1-Bromo-2-chloroethane", "Ethane, 1-bromo-2-chloro-", "1-Bromo-2-chloroethane", "1-Chloro-2-bromoethane", "Ethylene chlorobromide", "2-Bromo-1-chloroethane", "2-Chloroethyl bromide", "2-Bromoethyl chloride", "\u03b2-Chloroethyl bromide", "NSC 60186"], "SMILES": "C(CCl)Br", "physical_data": {"Molecular Weight": "143.41", "Molecular Formula": "C2H4BrCl", "Boiling Point": "107 \u00b0C", "Melting Point": "-16.7 \u00b0C", "Density": "1.7392 g/cm\u00b3 @ Temp: 20 \u00b0C"}}