{"cas_no": "107-49-3", "cn_name": "\u7279\u666e", "en_name": ["Tetraethyl pyrophosphate", "Diphosphoric acid, P,P,P\u2032,P\u2032-tetraethyl ester", "Pyrophosphoric acid, tetraethyl ester", "Diphosphoric acid, tetraethyl ester", "Bis-O,O-diethylphosphoric anhydride", "Bladan", "TEP", "TEPP", "Tetraethyl pyrophosphate", "Vapotone", "Ethyl pyrophosphate (Et4P2O7)", "Nifos", "Tetrastigmine", "Tetraethyl diphosphate", "Pyrodust", "Killex", "TEP (phosphate)", "NSC 14707", "NSC 646213"], "SMILES": "O(P(OCC)(OCC)=O)P(OCC)(OCC)=O", "physical_data": {"Molecular Weight": "290.19", "Molecular Formula": "C8H20O7P2", "Boiling Point": "104-111 \u00b0C @ Press: 0.08 Torr", "Melting Point": "208-213 \u00b0C (decomp)", "Density": "1.185 g/cm\u00b3 @ Temp: 20 \u00b0C"}}