{"cas_no": "107-00-6", "cn_name": "1-\u4e01\u7094", "en_name": ["1-Butyne", "1-Butyne", "Ethylacetylene", "Ethylethyne"], "SMILES": "C(C#C)C", "physical_data": {"Molecular Weight": "54.09", "Molecular Formula": "C4H6", "Boiling Point": "8 \u00b0C", "Melting Point": "-125.7 \u00b0C", "Density": "0.668 g/cm\u00b3 @ Temp: 0 \u00b0C"}}