{"cas_no": "107-97-1", "cn_name": "\u808c\u6c28\u9178", "en_name": ["Sarcosine", "Glycine, N-methyl-", "Sarcosine", "N-Methylglycine", "Acetic acid, (methylamino)-", "(Methylamino)acetic acid", "N-Methylaminoacetic acid", "(Methylamino)ethanoic acid", "Sarcosinic acid", "Sarcosin", "Methylglycine", "2-(Methylamino)acetic acid", "2-(Methylazaniumyl)acetate", "H-NMeGly-OH", "MeSH ID: D012521"], "SMILES": "C(C(O)=O)NC", "physical_data": {"Molecular Weight": "89.09", "Molecular Formula": "C3H7NO2", "Melting Point": "212.5 \u00b0C (decomp)"}}