{"cas_no": "107-29-9", "cn_name": "\u4e59\u919b\u809f", "en_name": ["Aldoxime", "Acetaldehyde, oxime", "Acetaldoxime", "Aldoxime", "Ethylidenehydroxylamine", "Ethanal oxime", "Acetoaldoxime", "NSC 4974"], "SMILES": "C(=NO)C", "physical_data": {"Molecular Weight": "59.07", "Molecular Formula": "C2H5NO", "Boiling Point": "114.5 \u00b0C", "Melting Point": "47 \u00b0C", "Density": "0.9656 g/cm\u00b3 @ Temp: 20 \u00b0C"}}