{"cas_no": "107-89-1", "cn_name": "3-\u7f9f\u57fa\u4e01\u919b", "en_name": ["3-Hydroxybutanal", "Butanal, 3-hydroxy-", "Butyraldehyde, 3-hydroxy-", "Aldol", "3-Hydroxybutanal", "Acetaldol", "3-Butanolal", "\u03b2-Hydroxybutyraldehyde", "3-Hydroxybutyraldehyde", "NSC 7610"], "SMILES": "C(C(C)O)C=O", "physical_data": {"Molecular Weight": "88.11", "Molecular Formula": "C4H8O2", "Boiling Point": "83 \u00b0C @ Press: 20 Torr", "Melting Point": "&lt;25 \u00b0C", "Density": "1.103 g/cm\u00b3 @ Temp: 20 \u00b0C"}}