{"cas_no": "107-05-1", "cn_name": "3-\u6c2f\u4e19\u70ef", "en_name": ["Allyl chloride", "1-Propene, 3-chloro-", "Propene, 3-chloro-", "3-Chloro-1-propene", "Allyl chloride", "1-Chloro-2-propene", "3-Chloropropylene", "3-Chloropropene", "2-Propenyl chloride", "NSC 20939", "HCO 1260ZF"], "SMILES": "C(CCl)=C", "physical_data": {"Molecular Weight": "76.52", "Molecular Formula": "C3H5Cl", "Boiling Point": "44-45 \u00b0C", "Melting Point": "-135 \u00b0C", "Density": "0.938 g/cm\u00b3 @ Temp: 20 \u00b0C"}}