{"cas_no": "107-46-0", "cn_name": "\u516d\u7532\u57fa\u4e8c\u7845\u6c27\u70f7", "en_name": ["Hexamethyldisiloxane", "Disiloxane, 1,1,1,3,3,3-hexamethyl-", "Disiloxane, hexamethyl-", "1,1,1,3,3,3-Hexamethyldisiloxane", "Hexamethyldisiloxane", "Bis(trimethylsilyl) ether", "Bis(trimethylsilyl) oxide", "HMDS", "SWS-F 221", "Belsil DM 0.65", "OS 10", "OS 10 (siloxane)", "DC 0.65cs200", "Dow Corning OS 10", "KF 96L0.65", "NSC 43346", "HMDSO", "LS 7130", "Dow Corning 200/0.65", "Glipoxan", "SH 200-0.65cSt", "SH 200-0.65CS", "SF 0.65", "Volasil DM 0.65", "Volasil DM 0.65SP", "PSF-0.65cSt", "SH 200-0.6CS", "HX 18", "MM", "MM (siloxane)", "OL-AK 065", "Silicone Fluid AK 0.65", "AK 0.65", "Q 7-9180", "Q 7-9180 Silicone Fluid", "Dow Corning Q 7-9180", "Lintec MC 3102E", "MC 3102E", "SIH 6115.1", "S 7205", "OS 10 Fluid", "IOTA 005", "SIH 6115.0"], "SMILES": "O([Si](C)(C)C)[Si](C)(C)C", "physical_data": {"Molecular Weight": "162.38", "Molecular Formula": "C6H18OSi2", "Boiling Point": "99.5 \u00b0C", "Melting Point": "-66 \u00b0C", "Density": "0.7638 g/cm\u00b3 @ Temp: 20 \u00b0C"}}