{"cas_no": "107-70-0", "cn_name": "4-\u7532\u6c27\u57fa-4-\u7532\u57fa-2-\u620a\u916e", "en_name": ["4-Methoxy-4-methyl-2-pentanone", "2-Pentanone, 4-methoxy-4-methyl-", "4-Methoxy-4-methyl-2-pentanone", "Pent-Oxone Solvent", "Pentoxone", "2-Methoxy-2-methyl-4-pentanone", "4-Methyl-4-methoxy-2-pentanone", "ME 6K", "NSC 48083"], "SMILES": "C(C(OC)(C)C)C(C)=O", "physical_data": {"Molecular Weight": "130.18", "Molecular Formula": "C7H14O2", "Boiling Point": "147-163 \u00b0C", "Density": "0.9 g/cm\u00b3 @ Temp: 25 \u00b0C"}}