{"cas_no": "107-75-5", "cn_name": "\u7f9f\u57fa\u9999\u8305\u919b", "en_name": ["Hydroxycitronellal", "Octanal, 7-hydroxy-3,7-dimethyl-", "7-Hydroxy-3,7-dimethyloctanal", "Citronellal hydrate", "Cyclalia", "Cyclosia", "3,7-Dimethyl-7-hydroxyoctanal", "Fixol", "Laurine", "Lilyl aldehyde", "Muguet synthetic", "Muguettine principle", "Phixia", "Citronellal, hydroxy-", "Hydroxycitronellal", "7-Hydroxycitronellal", "(\u00b1)-Hydroxycitronellal", "NSC 406740", "Cyclosia base", "3,7-Dimethyl-7-hydroxyoctan-1-al"], "SMILES": "C(C(C)(C)O)CCC(CC=O)C", "physical_data": {"Molecular Weight": "172.26", "Molecular Formula": "C10H20O2", "Boiling Point": "126-127 \u00b0C @ Press: 10 Torr", "Melting Point": "22-23 \u00b0C", "Density": "0.9207 g/cm\u00b3 @ Temp: 18.5 \u00b0C"}}