{"cas_no": "107-43-7", "cn_name": "\u751c\u83dc\u78b1", "en_name": ["Betaine", "Methanaminium, 1-carboxy-N,N,N-trimethyl-, inner salt", "Betaine", "Methanaminium, 1-carboxy-N,N,N-trimethyl-, hydroxide, inner salt", "Ammonium compounds, substituted, (carboxymethyl)trimethyl-, hydroxide, inner salt", "\u03b1-Earleine", "Glycine, trimethylbetaine", "Glycine betaine", "Glycocoll betaine", "Lycine", "Oxyneurine", "Trimethylglycine", "Trimethylglycocoll", "Glycylbetaine", "(Carboxymethyl)trimethylammonium hydroxide inner salt", "Abromine", "Loramine AMB 13", "Rubrine C", "(Trimethylammonio)acetate", "Aminocoat", "N,N,N-Trimethylglycine", "Aquadew AN 100", "FinnStim", "Betafin BCR", "Greenstim", "Betafin", "Betafin BP", "Cystadane", "Betafin BP 20", "Trimethylbetaine", "Fencaijian", "Bluestim", "Auqadew AN 100", "Genecare OSMS BA", "Intracell", "2-(Trimethylazaniumyl)acetate", "Genencare OSMS BA", "Agro FKC 540 K", "Agro FKC 540K", "NMF 50"], "SMILES": "C([N+](C)(C)C)C([O-])=O", "physical_data": {"Molecular Weight": "", "Molecular Formula": "C5H11NO2", "Melting Point": "293 \u00b0C (decomp)"}}