{"cas_no": "107-25-5", "cn_name": "\u4e59\u70ef\u57fa\u7532\u919a", "en_name": ["Methyl vinyl ether", "Ethene, methoxy-", "Ether, methyl vinyl", "Methoxyethene", "Methyl vinyl ether", "Vinyl methyl ether", "Methoxyethylene", "1-Methoxyethylene", "1-(Vinyloxy)methane"], "SMILES": "C(OC)=C", "physical_data": {"Molecular Weight": "58.08", "Molecular Formula": "C3H6O", "Boiling Point": "12 \u00b0C", "Melting Point": "-122 \u00b0C", "Density": "0.7725 g/cm\u00b3 @ Temp: 0 \u00b0C"}}