{"cas_no": "107-66-4", "cn_name": "\u78f7\u9178\u4e8c\u4e01\u916f", "en_name": ["Dibutyl phosphate", "Phosphoric acid, dibutyl ester", "Butyl phosphate, (BuO)2(HO)PO", "Dibutyl phosphate", "Dibutyl hydrogen phosphate", "Di-n-Butyl phosphate", "Dibutyl acid phosphate", "DP 4 (coupling agent)", "HDBP", "DP 4", "NSC 203039", "NSC 22313", "DBP"], "SMILES": "O(P(OCCCC)(=O)O)CCCC", "physical_data": {"Molecular Weight": "210.21", "Molecular Formula": "C8H19O4P", "Boiling Point": "135 \u00b0C", "Melting Point": "-13 \u00b0C", "Density": "1.06 g/cm\u00b3"}}