{"cas_no": "107-37-9", "cn_name": "\u4e19\u70ef\u57fa\u4e09\u6c2f\u7845\u70f7", "en_name": ["Trichloro-2-propen-1-ylsilane", "Silane, trichloro-2-propen-1-yl-", "Silane, allyltrichloro-", "Silane, trichloro-2-propenyl-", "Trichloro-2-propen-1-ylsilane", "Allyltrichlorosilane", "Propen-3-yltrichlorosilane", "NSC 20940", "Trichloro(2-propenyl)silane"], "SMILES": "C([Si](Cl)(Cl)Cl)C=C", "physical_data": {"Molecular Weight": "175.52", "Molecular Formula": "C3H5Cl3Si", "Boiling Point": "117.5 \u00b0C", "Melting Point": "35 \u00b0C", "Density": "1.2011 g/cm\u00b3 @ Temp: 20 \u00b0C"}}