{"cas_no": "107-08-4", "cn_name": "1-\u7898\u4ee3\u4e19\u70f7", "en_name": ["1-Iodopropane", "Propane, 1-iodo-", "1-Iodopropane", "Propyl iodide", "n-Propyl iodide", "Propane iodide", "3-Iodopropane"], "SMILES": "C(CI)C", "physical_data": {"Molecular Weight": "169.99", "Molecular Formula": "C3H7I", "Boiling Point": "102.6 \u00b0C", "Melting Point": "-101.3 \u00b0C", "Density": "1.72997 g/cm\u00b3 @ Temp: 30 \u00b0C"}}