{"cas_no": "107-59-5", "cn_name": "\u6c2f\u4e59\u9178\u53d4\u4e01\u916f", "en_name": ["tert-Butyl chloroacetate", "Acetic acid, 2-chloro-, 1,1-dimethylethyl ester", "Acetic acid, chloro-, tert-butyl ester", "Acetic acid, chloro-, 1,1-dimethylethyl ester", "tert-Butyl chloroacetate", "1,1-Dimethylethyl chloroacetate", "Chloroacetic acid 1,1-dimethylethyl ester", "Chloroacetic acid tert-butyl ester", "NSC 87891", "tert-Butyl 2-chloroacetate", "Chloroacetic acid tert-butyl ester"], "SMILES": "O(C(C)(C)C)C(CCl)=O", "physical_data": {"Molecular Weight": "150.60", "Molecular Formula": "C6H11ClO2", "Boiling Point": "150 \u00b0C"}}