{"cas_no": "107-07-3", "cn_name": "2-\u6c2f\u4e59\u9187", "en_name": ["2-Chloroethanol", "Ethanol, 2-chloro-", "2-Chloroethanol", "\u03b2-Chloroethyl alcohol", "2-Chloroethyl alcohol", "Ethylene chlorhydrin", "Ethylene chlorohydrin", "Glycol monochlorohydrin", "Ethylchlorohydrin", "\u03b2-Chloroethanol", "Chloroethanol", "\u03b2-Hydroxyethyl chloride", "2-Chloro-1-ethanol", "2-Hydroxyethyl chloride", "Ethene chlorohydrin", "Glycol chlorohydrin", "2-Chloro-1-hydroxyethane", "1-Chloro-2-hydroxyethane", "NSC 122289", "MeSH ID: D005023"], "SMILES": "C(CO)Cl", "physical_data": {"Molecular Weight": "80.51", "Molecular Formula": "C2H5ClO", "Boiling Point": "128-130 \u00b0C @ Press: 760 Torr", "Melting Point": "-67.5 \u00b0C", "Density": "1.197 g/cm\u00b3 @ Temp: 20 \u00b0C"}}