{"cas_no": "107-71-1", "cn_name": "\u8fc7\u6c27\u5316\u4e59\u9178\u53d4\u4e01\u916f", "en_name": ["tert-Butyl peroxyacetate", "Ethaneperoxoic acid, 1,1-dimethylethyl ester", "Peroxyacetic acid, tert-butyl ester", "tert-Butyl peracetate", "tert-Butyl peroxyacetate", "Lupersol 70", "Acetyl tert-butyl peroxide", "Perbutyl A", "Kayabutyl A", "Trigonox F-C 50", "Kayabutyl A 50T", "Esperox 12MD", "NSC 118417", "Luperox 7M75", "Trigonox F", "Luperox 7M50", "tert-Pentyl peroxy acetate"], "SMILES": "O(C(C)(C)C)OC(C)=O", "physical_data": {"Molecular Weight": "132.16", "Molecular Formula": "C6H12O3", "Boiling Point": "42-43 \u00b0C @ Press: 11 Torr", "Density": "0.9415 g/cm\u00b3 @ Temp: 20 \u00b0C"}}