{"cas_no": "107-45-9", "cn_name": "\u53d4\u8f9b\u80fa", "en_name": ["2,4,4-Trimethyl-2-pentanamine", "2-Pentanamine, 2,4,4-trimethyl-", "Butylamine, 1,1,3,3-tetramethyl-", "2,4,4-Trimethyl-2-pentanamine", "1,1,3,3-Tetramethylbutylamine", "tert-Octylamine", "2,4,4-Trimethyl-2-pentylamine", "1,1,3,3-Tetramethylbutanamine", "2-Amino-2,4,4-trimethylpentane", "Primene TOA", "tert-Octanamine", "NSC 33852"], "SMILES": "C(C(C)(C)C)C(C)(C)N", "physical_data": {"Molecular Weight": "129.24", "Molecular Formula": "C8H19N", "Boiling Point": "138 \u00b0C"}}