{"cas_no": "107-40-4", "cn_name": "2,4,4-\u4e09\u7532\u57fa-2-\u620a\u70ef", "en_name": ["2,4,4-Trimethyl-2-pentene", "2-Pentene, 2,4,4-trimethyl-", "2,4,4-Trimethyl-2-pentene", "Propene, 1-tert-butyl-2-methyl-", "2,2,4-Trimethyl-3-pentene"], "SMILES": "C(C(C)(C)C)=C(C)C", "physical_data": {"Molecular Weight": "112.21", "Molecular Formula": "C8H16", "Boiling Point": "104.9 \u00b0C", "Melting Point": "-106.3 \u00b0C", "Density": "0.7218 g/cm\u00b3 @ Temp: 20 \u00b0C"}}