{"cas_no": "107-96-0", "cn_name": "3-\u5def\u57fa\u4e19\u9178", "en_name": ["3-Mercaptopropionic acid", "Propanoic acid, 3-mercapto-", "Propionic acid, 3-mercapto-", "Propionic acid, \u03b2-mercapto-", "3-Mercaptopropanoic acid", "3-Mercaptopropionic acid", "\u03b2-Mercaptopropionic acid", "\u03b2-Thiopropionic acid", "3-Thiopropionic acid", "Mercaptopropionic acid", "3-Thiopropanoic acid", "\u03b2-Mercaptopropanoic acid", "MPA", "Thiohydracrylic acid", "2-Mercaptoethanecarboxylic acid", "NSC 437", "NSC 45157", "BMPA (thiol)", "BMPA", "3-Sulfanylpropanoic acid", "R 013140", "MeSH ID: D015097"], "SMILES": "C(C(O)=O)CS", "physical_data": {"Molecular Weight": "106.14", "Molecular Formula": "C3H6O2S", "Boiling Point": "111 \u00b0C @ Press: 15 Torr", "Melting Point": "16.8 \u00b0C", "Density": "1.218 g/cm\u00b3 @ Temp: 21 \u00b0C"}}