{"cas_no": "107-74-4", "cn_name": "3,7-\u4e8c\u7532\u57fa-1,7-\u8f9b\u4e8c\u9187", "en_name": ["3,7-Dimethyl-1,7-octanediol", "1,7-Octanediol, 3,7-dimethyl-", "3,7-Dimethyl-1,7-octanediol", "Hydroxycitronellol", "Citronellol, hydroxy-", "2,6-Dimethyl-2,8-octanediol", "3,7-Dimethyloctan-1,7-diol", "NSC 406140", "NSC 67886", "Hydroxyciol"], "SMILES": "C(C(C)(C)O)CCC(CCO)C", "physical_data": {"Molecular Weight": "174.28", "Molecular Formula": "C10H22O2", "Boiling Point": "265 \u00b0C", "Density": "0.935 g/cm\u00b3 @ Temp: 20 \u00b0C"}}