{"cas_no": "107-35-7", "cn_name": "\u725b\u78fa\u9178", "en_name": ["Taurine", "Ethanesulfonic acid, 2-amino-", "Taurine", "2-Aminoethanesulfonic acid", "O-Due", "\u03b2-Aminoethylsulfonic acid", "2-Sulfoethylamine", "Tauphon", "1-Aminoethane-2-sulfonic acid", "2-Aminoethylsulfonic acid", "Taufon", "Taukard", "NSC 32428", "Tauramin", "2-Aminoethane-1-sulfonic acid", "2-Azaniumylethanesulfonate", "MeSH ID: D013654"], "SMILES": "C(S(=O)(=O)O)CN", "physical_data": {"Molecular Weight": "125.15", "Molecular Formula": "C2H7NO3S", "Melting Point": "328 \u00b0C"}}