{"cas_no": "107-19-7", "cn_name": "2-\u4e19\u7094-1-\u9187", "en_name": ["Propargyl alcohol", "2-Propyn-1-ol", "Propargyl alcohol", "1-Propyn-3-ol", "Propynyl alcohol", "1-Hydroxy-2-propyne", "3-Hydroxy-1-propyne", "2-Propynol", "2-Propynyl alcohol", "Ethynylcarbinol", "3-Propynol", "1-Propyn-3-yl alcohol", "Hydroxymethylacetylene", "NSC 8804", "3-Hydroxypropyne", "Propiolic alcohol"], "SMILES": "C(CO)#C", "physical_data": {"Molecular Weight": "56.06", "Molecular Formula": "C3H4O", "Boiling Point": "20 \u00b0C @ Press: 11.6 Torr", "Melting Point": "-52--48 \u00b0C", "Density": "0.9715 g/cm\u00b3 @ Temp: 20 \u00b0C"}}