{"cas_no": "107-52-8", "cn_name": "\u5341\u56db\u7532\u57fa\u516d\u7845\u6c27\u70f7", "en_name": ["Tetradecamethylhexasiloxane", "Hexasiloxane, 1,1,1,3,3,5,5,7,7,9,9,11,11,11-tetradecamethyl-", "Hexasiloxane, tetradecamethyl-", "1,1,1,3,3,5,5,7,7,9,9,11,11,11-Tetradecamethylhexasiloxane", "Tetradecamethylhexasiloxane", "[Dimethyl(trimethylsilyloxy)silyl]oxy-[[dimethyl(trimethylsilyloxy)silyl]oxy-dimethylsilyl]oxy-dimethylsilane"], "SMILES": "O([Si](O[Si](O[Si](C)(C)C)(C)C)(C)C)[Si](O[Si](O[Si](C)(C)C)(C)C)(C)C", "physical_data": {"Molecular Weight": "458.99", "Molecular Formula": "C14H42O5Si6", "Boiling Point": "245.5 \u00b0C", "Melting Point": "-59 \u00b0C", "Density": "0.8873 g/cm\u00b3 @ Temp: 25 \u00b0C"}}