{"cas_no": "107-36-8", "cn_name": "2-\u7f9f\u4e59\u57fa\u78fa\u9178", "en_name": ["Isethionic acid", "Ethanesulfonic acid, 2-hydroxy-", "2-Hydroxyethanesulfonic acid", "(Hydroxyethyl)sulfonic acid", "Isethionic acid", "Ethanolsulfonic acid", "(2-Hydroxyethyl)sulfonic acid", "NSC 60516", "Tego HES 70", "2-Hydroxyethane-1-sulfonic acid", "MeSH ID: D007513"], "SMILES": "C(S(=O)(=O)O)CO", "physical_data": {"Molecular Weight": "126.13", "Molecular Formula": "C2H6O4S", "Melting Point": "&lt;25 \u00b0C"}}