{"cas_no": "107-95-9", "cn_name": "\u03b2-\u4e19\u6c28\u9178", "en_name": ["\u03b2-Alanine", "\u03b2-Alanine", "3-Aminopropanoic acid", "\u03b2-Aminopropionic acid", "Propanoic acid, 3-amino-", "3-Aminopropionic acid", "Abufene", "\u03c9-Aminopropionic acid", "2-Carboxyethylamine", "\u03b2-Aminopropanoic acid", "NSC 7603", "3-Azaniumylpropanoate", "MeSH ID: D015091"], "SMILES": "C(C(O)=O)CN", "physical_data": {"Molecular Weight": "89.09", "Molecular Formula": "C3H7NO2", "Melting Point": "200 \u00b0C (decomp)", "Density": "1.437 g/cm\u00b3 @ Temp: -5 \u00b0C"}}