{"cas_no": "107-02-8", "cn_name": "\u4e19\u70ef\u919b", "en_name": ["Acrolein", "2-Propenal", "Acrolein", "Acrylaldehyde", "Acrylic aldehyde", "Allyl aldehyde", "Aqualin", "Propenal", "Prop-2-en-1-al", "2-Propen-1-one", "NSC 8819", "Magnacide H", "Magnacide B", "MeSH ID: D000171"], "SMILES": "C(C=O)=C", "physical_data": {"Molecular Weight": "56.06", "Molecular Formula": "C3H4O", "Boiling Point": "52.5 \u00b0C @ Press: 760 Torr", "Melting Point": "-88 \u00b0C", "Density": "0.8075 g/cm\u00b3 @ Temp: 50 \u00b0C"}}