{"cas_no": "107-10-8", "cn_name": "\u6b63\u4e19\u80fa", "en_name": ["Propylamine", "1-Propanamine", "Propylamine", "1-Aminopropane", "Mono-n-propylamine", "n-Propylamine", "1-Propylamine", "Monopropylamine", "NSC 7490", "Propan-1-ylamine", "(n-Propan-1-yl)amine", "3-Aminopropane", "Propan-1-amine"], "SMILES": "C(CN)C", "physical_data": {"Molecular Weight": "59.11", "Molecular Formula": "C3H9N", "Boiling Point": "48-49 \u00b0C", "Melting Point": "-83 \u00b0C", "Density": "0.719 g/cm\u00b3 @ Temp: 20 \u00b0C"}}