{"cas_no": "107-03-9", "cn_name": "\u4e19\u786b\u9187", "en_name": ["1-Propanethiol", "1-Propanethiol", "Propyl mercaptan", "n-Propyl mercaptan", "1-Propyl mercaptan", "n-Propanethiol", "Propylthiol", "n-Propylthiol", "1-Mercaptopropane", "1-Propylthiol"], "SMILES": "C(CS)C", "physical_data": {"Molecular Weight": "76.16", "Molecular Formula": "C3H8S", "Boiling Point": "67-68 \u00b0C", "Melting Point": "-113.3 \u00b0C", "Density": "0.8411 g/cm\u00b3 @ Temp: 20 \u00b0C"}}