{"cas_no": "107-31-3", "cn_name": "\u7532\u9178\u7532\u916f", "en_name": ["Methyl formate", "Formic acid, methyl ester", "Methyl formate", "Methyl methanoate", "Methanoic acid methyl ester", "R 611", "Greenmate"], "SMILES": "C(OC)=O", "physical_data": {"Molecular Weight": "60.05", "Molecular Formula": "C2H4O2", "Boiling Point": "31.5 \u00b0C", "Melting Point": "-99.8 \u00b0C", "Density": "0.987 g/cm\u00b3 @ Temp: 15 \u00b0C"}}