{"cas_no": "107-92-6", "cn_name": "\u4e01\u9178", "en_name": ["Butyric acid", "Butanoic acid", "Butyric acid", "n-Butyric acid", "Ethylacetic acid", "1-Propanecarboxylic acid", "Propylformic acid", "n-Butanoic acid", "Honey robber", "NSC 8415", "MeSH ID: D020148"], "SMILES": "C(C(O)=O)CC", "physical_data": {"Molecular Weight": "88.11", "Molecular Formula": "C4H8O2", "Boiling Point": "165.5 \u00b0C @ Press: 760 Torr", "Melting Point": "-7.9 \u00b0C", "Density": "0.9577 g/cm\u00b3 @ Temp: 20 \u00b0C"}}