{"cas_no": "107-99-3", "cn_name": "2-\u6c2f\u4e59\u57fa\u4e8c\u7532\u80fa", "en_name": ["2-(Dimethylamino)ethyl chloride", "Ethanamine, 2-chloro-N,N-dimethyl-", "Ethylamine, 2-chloro-N,N-dimethyl-", "2-Chloro-N,N-dimethylethanamine", "NSC 1917", "Dimethyl(2-chloroethyl)amine", "2-(Dimethylamino)ethyl chloride", "1-Chloro-2-(dimethylamino)ethane", "Chloro(dimethylamino)ethane", "Dimethylaminoethyl chloride", "N-(2-Chloroethyl)dimethylamine", "N-(2-Chloroethyl)-N,N-dimethylamine", "2-Chloro-N,N-dimethylethylamine", "\u03b2-(Dimethylamino)ethyl chloride", "N,N-Dimethyl-2-chloroethylamine", "(2-Chloroethyl)dimethylamine", "N,N-Dimethyl-\u03b2-chloroethylamine", "2-Chloro-1-(dimethylamino)ethane", "\u03b2-Chloroethyldimethylamine", "2-(Dimethylamino)-1-chloroethane", "\u03b2-(N,N-Dimethylamino)ethyl chloride", "N,N-Dimethyl-N-(2-chloroethyl)amine", "1-Dimethylamino-2-chloroethane", "2-Chloro-N,N-dimethylaminoethane", "2-(N,N-Dimethylamino)-1-chloroethane", "1-Chloro-2-N,N-dimethylaminoethane", "NSC 123444", "2-Chloro-N,N-dimethylethan-1-amine"], "SMILES": "C(N(C)C)CCl", "physical_data": {"Molecular Weight": "107.58", "Molecular Formula": "C4H10ClN", "Boiling Point": "109 \u00b0C @ Press: 750 Torr"}}