{"cas_no": "1070-62-8", "cn_name": "\u620a\u4e8c\u9178\u5355\u4e59\u916f", "en_name": ["Monoethyl glutarate", "Pentanedioic acid, 1-ethyl ester", "Glutaric acid, monoethyl ester", "Pentanedioic acid, monoethyl ester", "Glutaric acid, ethyl ester", "Monoethyl glutarate", "Ethyl hydrogen glutarate", "Ethyl hydrogen pentanedioate"], "SMILES": "C(CCCC(O)=O)(OCC)=O", "physical_data": {"Molecular Weight": "160.17", "Molecular Formula": "C7H12O4", "Boiling Point": "150 \u00b0C @ Press: 15 Torr", "Melting Point": "7-8 \u00b0C", "Density": "1.1242 g/cm\u00b3 @ Temp: 13.5 \u00b0C"}}