{"cas_no": "1070879-27-4", "cn_name": "4-\u6eb4-7-\u7532\u6c27\u57fa\u55b9\u5549", "en_name": ["4-Bromo-7-methoxyquinoline", "Quinoline, 4-bromo-7-methoxy-", "4-Bromo-7-methoxyquinoline"], "SMILES": "BrC=1C2=C(C=C(OC)C=C2)N=CC1", "physical_data": {"Molecular Weight": "238.08", "Molecular Formula": "C10H8BrNO", "Melting Point": "76-77 \u00b0C"}}