{"cas_no": "1070-00-4", "cn_name": "\u4e09\u8f9b\u57fa\u94dd", "en_name": ["Trioctylaluminum", "Aluminum, trioctyl-", "Trioctylaluminum", "Tri-n-octylaluminum", "Trioctylalane", "Trioctylaluminium", "Tri-n-octylaluminium"], "SMILES": "[Al](CCCCCCCC)(CCCCCCCC)CCCCCCCC", "physical_data": {"Molecular Weight": "", "Molecular Formula": "C24H51Al", "Melting Point": "&lt;-40 \u00b0C", "Density": "0.8336 g/cm\u00b3 @ Temp: 25 \u00b0C"}}