{"cas_no": "107007-99-8", "cn_name": "\u76d0\u9178\u683c\u62c9\u53f8\u743c", "en_name": ["Granisetron hydrochloride", "1H-Indazole-3-carboxamide, 1-methyl-N-[(3-endo)-9-methyl-9-azabicyclo[3.3.1]non-3-yl]-, hydrochloride (1:1)", "1H-Indazole-3-carboxamide, 1-methyl-N-(9-methyl-9-azabicyclo[3.3.1]non-3-yl)-, monohydrochloride, endo-", "1H-Indazole-3-carboxamide, 1-methyl-N-[(3-endo)-9-methyl-9-azabicyclo[3.3.1]non-3-yl]-, monohydrochloride", "9-Azabicyclo[3.3.1]nonane, 1H-indazole-3-carboxamide deriv.", "BRL 43694A", "Granisetron hydrochloride", "Kytril"], "SMILES": "C(NC1CC2N(C)C(C1)CCC2)(=O)C=3C=4C(N(C)N3)=CC=CC4.Cl", "physical_data": {"Molecular Weight": "", "Molecular Formula": "C18H24N4O.ClH", "Melting Point": "290-292 \u00b0C"}}