{"cas_no": "1070-83-3", "cn_name": "3,3-\u4e8c\u7532\u57fa-1-\u4e01\u9178", "en_name": ["3,3-Dimethylbutanoic acid", "Butanoic acid, 3,3-dimethyl-", "Butyric acid, 3,3-dimethyl-", "Butyric acid, \u03b2,\u03b2-dimethyl-", "3,3-Dimethylbutanoic acid", "3,3-Dimethylbutyric acid", "tert-Butylacetic acid", "NSC 4537"], "SMILES": "C(C(C)(C)C)C(O)=O", "physical_data": {"Molecular Weight": "116.16", "Molecular Formula": "C6H12O2", "Boiling Point": "190 \u00b0C", "Melting Point": "6.5 \u00b0C", "Density": "0.9303 g/cm\u00b3 @ Temp: 0 \u00b0C"}}