{"cas_no": "1070-65-1", "cn_name": "6-\u7f9f\u57fa-8-\u6c2f\u8f9b\u9178\u4e59\u916f", "en_name": ["Octanoic acid, 8-chloro-6-hydroxy-, ethyl ester", "Octanoic acid, 8-chloro-6-hydroxy-, ethyl ester", "Ethyl 8-chloro-6-hydroxyoctanoate", "6-Hydroxy-8-chlorooctanoic acid ethyl ester", "6-Hydroxy-8-chlorocaprylate"], "SMILES": "C(CCCCC(OCC)=O)(CCCl)O", "physical_data": {"Molecular Weight": "222.71", "Molecular Formula": "C10H19ClO3", "Boiling Point": "121 \u00b0C @ Press: 0.5 Torr", "Density": "1.0826 g/cm\u00b3 @ Temp: 20 \u00b0C"}}