{"cas_no": "1070-70-8", "cn_name": "1,4-\u4e01\u4e8c\u9187\u4e8c\u4e19\u70ef\u9178\u916f", "en_name": ["1,4-Butanediol, diacrylate", "2-Propenoic acid, 1,1\u2032-(1,4-butanediyl) ester", "Acrylic acid, tetramethylene ester", "2-Propenoic acid, 1,4-butanediyl ester", "1,4-Butanediol, diacrylate", "1,4-Butylene glycol diacrylate", "Tetramethylene diacrylate", "1,4-Butylene diacrylate", "Tetramethylene glycol diacrylate", "Tetramethylene acrylate", "SR 213", "Viscoat 195", "Laromer BDDA", "Viscoat V 195", "SR 213 (ester)", "SM 624", "Fancryl FA 124SA", "Fancryl FA 124AS", "Miramer 204", "1,4-Bis(acryloyloxy)butane", "Butylene glycol diacrylate", "Butane-1,4-diyl diacrylate", "FA 124AS", "Sartomer 213", "1,4-Butanediol diacrylate", "n-Butane-1,4-diyl diacrylate", "M 204", "Miramer M 204"], "SMILES": "C(OCCCCOC(C=C)=O)(C=C)=O", "physical_data": {"Molecular Weight": "198.22", "Molecular Formula": "C10H14O4", "Boiling Point": "132-138 \u00b0C @ Press: 13 Torr"}}