{"cas_no": "1070-11-7", "cn_name": "\u76d0\u9178\u4e59\u80fa\u4e01\u9187", "en_name": ["Ethambutol hydrochloride", "1-Butanol, 2,2\u2032-(1,2-ethanediyldiimino)bis-, hydrochloride (1:2), (2S,2\u2032S)-", "1-Butanol, 2,2\u2032-(ethylenediimino)di-, dihydrochloride, (+)-", "1-Butanol, 2,2\u2032-(1,2-ethanediyldiimino)bis-, dihydrochloride, [S-(R*,R*)]-", "1-Butanol, 2,2\u2032-(1,2-ethanediyldiimino)bis-, dihydrochloride, (2S,2\u2032S)-", "CL 40881", "Ethambutol dihydrochloride", "Ethambutol hydrochloride", "d-2,2\u2032-(Ethylenediimino)-di-1-butanol dihydrochloride", "Myambutol", "(+)-2,2\u2032-(Ethylenediimino)di-1-butanol dihydrochloride", "Dadibutol", "Sural", "Mycobutol", "Dexambutol", "Ebutol", "Tibutol", "Ethambutold dihydrochloride", "Etapiam", "Etibi", "Tambutol"], "SMILES": "C(NCCNC(CC)CO)(CC)CO.Cl", "physical_data": {"Molecular Weight": "", "Molecular Formula": "C10H24N2O2.2ClH", "Melting Point": "198.5-200.3 \u00b0C"}}