{"cas_no": "1070-71-9", "cn_name": "Cyanoacetylene", "en_name": ["2-Propynenitrile", "2-Propynenitrile", "Propiolonitrile", "Cyanoacetylene", "Propynenitrile", "Cyanoethyne", "Monocyanoacetylene"], "SMILES": "C(C#N)#C", "physical_data": {"Molecular Weight": "51.05", "Molecular Formula": "C3HN", "Boiling Point": "42.5 \u00b0C @ Press: 760 Torr", "Melting Point": "5 \u00b0C", "Density": "0.8159 g/cm\u00b3 @ Temp: 17 \u00b0C"}}