{"cas_no": "1070-34-4", "cn_name": "\u4e01\u4e8c\u9178\u5355\u4e59\u916f", "en_name": ["Monoethyl succinate", "Butanedioic acid, 1-ethyl ester", "Succinic acid, monoethyl ester", "Butanedioic acid, monoethyl ester", "Succinic acid, ethyl ester", "Ethyl hydrogen succinate", "Monoethyl succinate", "3-Ethoxycarbonylpropionic acid", "4-Ethoxy-4-oxobutanoic acid", "Ethyl monosuccinate"], "SMILES": "C(CCC(O)=O)(OCC)=O", "physical_data": {"Molecular Weight": "146.14", "Molecular Formula": "C6H10O4", "Boiling Point": "147 \u00b0C @ Press: 15 Torr", "Melting Point": "8 \u00b0C"}}