{"cas_no": "1070-78-6", "cn_name": "1,1,1,3-\u56db\u6c2f\u4e19\u70f7", "en_name": ["1,1,1,3-Tetrachloropropane", "Propane, 1,1,1,3-tetrachloro-", "1,1,1,3-Tetrachloropropane", "HCC 250fb", "HCC 250", "1,3,3,3-Tetrachloropropane"], "SMILES": "C(C(Cl)(Cl)Cl)CCl", "physical_data": {"Molecular Weight": "181.88", "Molecular Formula": "C3H4Cl4", "Boiling Point": "157 \u00b0C", "Density": "1.4463 g/cm\u00b3 @ Temp: 25 \u00b0C"}}