{"cas_no": "107097-80-3", "cn_name": "\u6c2f\u8c37\u80fa", "en_name": ["Loxiglumide", "Pentanoic acid, 4-[(3,4-dichlorobenzoyl)amino]-5-[(3-methoxypropyl)pentylamino]-5-oxo-", "Pentanoic acid, 4-[(3,4-dichlorobenzoyl)amino]-5-[(3-methoxypropyl)pentylamino]-5-oxo-, (\u00b1)-", "4-[(3,4-Dichlorobenzoyl)amino]-5-[(3-methoxypropyl)pentylamino]-5-oxopentanoic acid", "CR 1505", "Loxiglumide"], "SMILES": "C(C(N(CCCCC)CCCOC)=O)(NC(=O)C1=CC(Cl)=C(Cl)C=C1)CCC(O)=O", "physical_data": {"Molecular Weight": "461.38", "Molecular Formula": "C21H30Cl2N2O5", "Melting Point": "113-115 \u00b0C"}}