{"cas_no": "1070-64-0", "cn_name": "6,8-\u4e8c\u6c2f\u8f9b\u9178\u4e59\u916f", "en_name": ["Octanoic acid, 6,8-dichloro-, ethyl ester", "Octanoic acid, 6,8-dichloro-, ethyl ester", "Ethyl 6,8-dichlorooctanoate", "6,8-Dichlorooctanoic acid ethyl ester"], "SMILES": "C(CCCCC(OCC)=O)(CCCl)Cl", "physical_data": {"Molecular Weight": "241.15", "Molecular Formula": "C10H18Cl2O2", "Boiling Point": "109 \u00b0C @ Press: 0.7 Torr", "Density": "1.1026 g/cm\u00b3 @ Temp: 20 \u00b0C"}}