{"cas_no": "1070663-78-3", "cn_name": "2-(\u4e8c\u73af\u5df1\u57fa\u81a6)-3,6-\u4e8c\u7532\u6c27\u57fa-2'-4'-6'-\u4e09-I-\u4e19\u57fa-11'-\u8054\u82ef", "en_name": ["Dicyclohexyl[3,6-dimethoxy-2\u2032,4\u2032,6\u2032-tris(1-methylethyl)[1,1\u2032-biphenyl]-2-yl]phosphine", "Phosphine, dicyclohexyl[3,6-dimethoxy-2\u2032,4\u2032,6\u2032-tris(1-methylethyl)[1,1\u2032-biphenyl]-2-yl]-", "Dicyclohexyl[3,6-dimethoxy-2\u2032,4\u2032,6\u2032-tris(1-methylethyl)[1,1\u2032-biphenyl]-2-yl]phosphine", "BrettPhos", "3,6-Dimethoxy-2\u2032,4\u2032,6\u2032-triisopropyl-1,1\u2032-biphenyl-2-yl]dicyclohexylphosphine", "2-Dicyclohexylphosphino-3,6-dimethoxy-2\u2032,4\u2032,6\u2032-triisopropyl-1,1\u2032-biphenyl", "Dicyclohexyl(2\u2032,4\u2032,6\u2032-triisopropyl-3,6-dimethoxy-[1,1\u2032-biphenyl]-2-yl)phosphine"], "SMILES": "P(C1=C(C(OC)=CC=C1OC)C2=C(C(C)C)C=C(C(C)C)C=C2C(C)C)(C3CCCCC3)C4CCCCC4", "physical_data": {"Molecular Weight": "536.77", "Molecular Formula": "C35H53O2P", "Melting Point": "191-193 \u00b0C"}}