{"cas_no": "1070-89-9", "cn_name": "\u53cc(\u4e09\u7532\u57fa\u7845\u57fa)\u6c28\u57fa\u94a0", "en_name": ["Sodium bis(trimethylsilyl)amide", "Silanamine, 1,1,1-trimethyl-N-(trimethylsilyl)-, sodium salt (1:1)", "Silanamine, 1,1,1-trimethyl-N-(trimethylsilyl)-, sodium salt", "Sodium, [bis(trimethylsilyl)amino]-", "Disilazane, 1,1,1,3,3,3-hexamethyl-, sodium deriv.", "Sodium hexamethyldisilazane", "Hexamethyldisilazylsodium", "N-Sodiohexamethyldisilazane", "Bis(trimethylsilyl)amine sodium salt", "Sodium hexamethyldisilylamide", "Sodiobis(trimethylsilyl)amine", "Sodium hexamethyldisilazide", "Sodium bis(trimethylsilyl)amine", "1,1,1,3,3,3-Hexamethyldisilazane sodium salt", "Sodium bis(trimethylsilyl)amide", "Hexamethyldisilazane sodium salt", "Sodium N,N-bis(trimethylsilyl)amide", "N,N-Bis(trimethylsilyl)amine sodium salt", "Sodium bis(trimethylsilyl)amide(1-)"], "SMILES": "N([Si](C)(C)C)[Si](C)(C)C.[Na]", "physical_data": {"Molecular Weight": "", "Molecular Formula": "C6H19NSi2.Na", "Boiling Point": "202 \u00b0C @ Press: 1-2 Torr", "Melting Point": "165-167 \u00b0C"}}