{"cas_no": "1071-22-3", "cn_name": "\u4e09\u6c2f-2-\u78b3\u7845\u70f7", "en_name": ["3-(Trichlorosilyl)propanenitrile", "Propanenitrile, 3-(trichlorosilyl)-", "Propionitrile, 3-(trichlorosilyl)-", "3-(Trichlorosilyl)propanenitrile", "\u03b2-Cyanoethyltrichlorosilane", "2-Cyanoethyltrichlorosilane", "Trichloro(2-cyanoethyl)silane", "3-Trichlorosilylpropionitrile", "\u03b2-(Trichlorosilyl)propionitrile", "Trichloro-\u03b2-cyanoethylsilane"], "SMILES": "C([Si](Cl)(Cl)Cl)CC#N", "physical_data": {"Molecular Weight": "188.52", "Molecular Formula": "C3H4Cl3NSi", "Boiling Point": "84-86 \u00b0C @ Press: 10 Torr", "Melting Point": "32-33 \u00b0C", "Density": "1.356 g/cm\u00b3"}}