{"cas_no": "1071-83-6", "cn_name": "\u8349\u7518\u81a6", "en_name": ["Glyphosate", "Glycine, N-(phosphonomethyl)-", "N-(Phosphonomethyl)glycine", "Glyphosate", "MON 2139", "Glialka", "Phosphonomethyliminoacetic acid", "N-Phosphomethylglycine", "MON 6000", "(Carboxymethylamino)methylphosphonic acid", "Phosphonomethylglycine", "Forsat", "Phorsat", "Folusen", "Rebel Garden", "Glyphosate CT", "Glyphodin A", "Accord XRT II", "Hockey", "Herbatop", "Glialka 36", "Lancer", "Carboxymethylaminomethanephosphinic acid", "Glyphomax", "Kickdown", "NSC 151063", "Gliz 480CS", "Gliz", "Glyfos", "Silglif", "Klinik", "MON 3539", "GlyGran", "Total", "HM 2028", "Buccaneer", "Atila", "Ground Bio", "Leone", "Glifoglex", "C-K Yuyos FAV", "Scout (herbicide)", "Scout", "Glifosan 747", "Lancer (herbicide)", "Safal", "Gibson", "Green Fire 50SL", "Weedmaster 50SL", "Accord 4L", "2-[(Phosphonomethyl)amino]acetic acid", "Glydon", "Faena", "Glyphosate atar 48"], "SMILES": "C(NCC(O)=O)P(=O)(O)O", "physical_data": {"Molecular Weight": "169.07", "Molecular Formula": "C3H8NO5P", "Melting Point": "230 \u00b0C (decomp)", "Density": "0.5 g/cm\u00b3"}}