{"cas_no": "1071-73-4", "cn_name": "5-\u7f9f\u57fa-2-\u620a\u916e", "en_name": ["5-Hydroxy-2-pentanone", "2-Pentanone, 5-hydroxy-", "5-Hydroxy-2-pentanone", "\u03b3-Acetopropanol", "3-Acetyl-1-propanol", "\u03b3-Acetylpropyl alcohol", "3-Acetopropanol", "3-Acetylpropanol", "\u03b3-Acetopropyl alcohol", "4-Oxo-1-pentanol", "NSC 19158", "NSC 33940", "5-Hydroxy-n-pentan-2-one"], "SMILES": "C(C(C)=O)CCO", "physical_data": {"Molecular Weight": "102.13", "Molecular Formula": "C5H10O2", "Boiling Point": "209 \u00b0C", "Density": "1.007 g/cm\u00b3 @ Temp: 17 \u00b0C"}}