{"cas_no": "1071-46-1", "cn_name": "\u4e19\u4e8c\u9178\u5355\u4e59\u916f", "en_name": ["Monoethyl malonate", "Propanedioic acid, 1-ethyl ester", "Malonic acid, monoethyl ester", "Propanedioic acid, monoethyl ester", "Malonic acid, ethyl ester", "Monoethyl malonate", "Ethyl hydrogen malonate", "Ethyl malonate", "(Ethoxycarbonyl)acetic acid", "Monoethyl hydrogen malonate", "3-Ethoxy-3-oxopropanoic acid", "Monoethyl propanedioate"], "SMILES": "C(C(OCC)=O)C(O)=O", "physical_data": {"Molecular Weight": "132.11", "Molecular Formula": "C5H8O4", "Boiling Point": "104-105 \u00b0C @ Press: 12 Torr", "Melting Point": "107-110 \u00b0C", "Density": "1.0554 g/cm\u00b3 @ Temp: 10 \u00b0C"}}