{"cas_no": "1071-23-4", "cn_name": "\u4e59\u9187\u80fa\u78f7\u9178\u916f", "en_name": ["Phosphoethanolamine", "Ethanol, 2-amino-, 1-(dihydrogen phosphate)", "Ethanol, 2-amino-, dihydrogen phosphate (ester)", "Ethanol, 2-amino-, phosphate", "Phosphoric acid, 2-aminoethyl ester", "O-Phosphoethanolamine", "O-Phosphorylethanolamine", "Ethanolamine O-phosphate", "Phosphoethanolamine", "Phosphonoethanolamine", "Phosphorylethanolamine", "2-Aminoethyl dihydrogen phosphate", "Mono(2-aminoethyl) phosphate", "Colamine phosphate", "Monoaminoethyl phosphate", "2-Aminoethanol O-phosphate", "NSC 254167", "(2-Aminoethoxy)phosphonic acid", "2-Azaniumylethyl hydrogen phosphate"], "SMILES": "O(P(=O)(O)O)CCN", "physical_data": {"Molecular Weight": "141.06", "Molecular Formula": "C2H8NO4P", "Melting Point": "233-235 \u00b0C"}}