{"cas_no": "1071-21-2", "cn_name": "2-\u6c30\u57fa\u4e59\u57fa\u7532\u57fa\u4e8c\u6c2f\u7845\u70f7", "en_name": ["Cyanoethylmethyldichlorosilane", "Propanenitrile, 3-(dichloromethylsilyl)-", "Propionitrile, 3-(dichloromethylsilyl)-", "3-(Dichloromethylsilyl)propanenitrile", "2-Cyanoethylmethyldichlorosilane", "Methyl(2-cyanoethyl)dichlorosilane", "(\u03b2-Cyanoethyl)methyldichlorosilane", "Dichloro(2-cyanoethyl)methylsilane", "Methyl(\u03b2-cyanoethyl)dichlorosilane", "Cyanoethylmethyldichlorosilane"], "SMILES": "C([Si](C)(Cl)Cl)CC#N", "physical_data": {"Molecular Weight": "168.10", "Molecular Formula": "C4H7Cl2NSi", "Boiling Point": "216 \u00b0C", "Density": "1.201 g/cm\u00b3"}}