{"cas_no": "1071-27-8", "cn_name": "3-\u73af\u4e19\u57fa\u4e09\u6c2f\u7845\u70f7", "en_name": ["3-Cyanopropyltrichlorosilane", "Butanenitrile, 4-(trichlorosilyl)-", "Butyronitrile, 4-(trichlorosilyl)-", "4-(Trichlorosilyl)butanenitrile", "\u03b3-Cyanopropyltrichlorosilane", "3-Cyanopropyltrichlorosilane", "4-(Trichlorosilyl)butyronitrile", "(3-Cyanoporopropyl)trichlorosilane"], "SMILES": "C([Si](Cl)(Cl)Cl)CCC#N", "physical_data": {"Molecular Weight": "202.54", "Molecular Formula": "C4H6Cl3NSi", "Boiling Point": "93-94 \u00b0C @ Press: 8 Torr", "Density": "1.302 g/cm\u00b3"}}