{"cas_no": "1071-28-9", "cn_name": "\u78f7\u9178\u4e8c\u6c22\u6c28\u57fa\u4e19\u916f", "en_name": ["1-Propanol, 3-amino-, 1-(dihydrogen phosphate)", "1-Propanol, 3-amino-, 1-(dihydrogen phosphate)", "1-Propanol, 3-amino-, dihydrogen phosphate (ester)", "3-Aminopropyl monophosphate", "3-Aminopropyl dihydrogen phosphate"], "SMILES": "O(P(=O)(O)O)CCCN", "physical_data": {"Molecular Weight": "155.09", "Molecular Formula": "C3H10NO4P", "Melting Point": "176-180 \u00b0C"}}