{"cas_no": "1071-93-8", "cn_name": "\u5df1\u4e8c\u9178\u4e8c\u9170\u80bc", "en_name": ["Adipic dihydrazide", "Hexanedioic acid, 1,6-dihydrazide", "Adipic acid, dihydrazide", "Hexanedioic acid, dihydrazide", "Adipic dihydrazide", "Adipoyl hydrazide", "ADH", "Adipoyl dihydrazide", "Adipoyldihydrazine", "Qualimer ADH", "BT 1000Z", "BK 1000Z", "NSC 29542", "NSC 3378", "ADH 4S", "ADH (hydrazide)", "ADH-J", "ADH-S", "T 2210", "Ajicure ADH", "Adipic acid dihydrazide", "Technicure ADH", "Epicure PD 797", "BCA-ADH", "Technicure ADH-J"], "SMILES": "C(CCCC(NN)=O)C(NN)=O", "physical_data": {"Molecular Weight": "174.20", "Molecular Formula": "C6H14N4O2", "Melting Point": "171 \u00b0C"}}