{"cas_no": "1071-37-0", "cn_name": "S-\u4e59\u57fa\u5f02\u786b\u8132\u6c22\u6eb4\u9178\u76d0", "en_name": ["Carbamimidothioic acid, ethyl ester, hydrobromide (1:1)", "Carbamimidothioic acid, ethyl ester, hydrobromide (1:1)", "Pseudourea, 2-ethyl-2-thio-, monohydrobromide", "Carbamimidothioic acid, ethyl ester, monohydrobromide", "Pseudourea, 2-ethyl-2-thio-, hydrobromide", "Ethiron", "S-Ethylthiuronium bromide", "WR 539", "S-Ethylisothiouronium hydrobromide", "2-Ethyl-2-thiopseudourea hydrobromide", "Ethiron bromide", "S-Ethylisothiuronium bromide", "2-Ethylisothiourea hydrobromide", "Etiron", "S-Ethylisothiourea hydrobromide", "Isothuron hydrobromide", "Isothurone hydrobromide", "Ethyl imidothiocarbamate hydrobromide", "Ethylisothiourea hydrobromide", "(Ethylsulfanyl)(imino)methanaminium bromide", "(Ethylsulfanyl)methanimidamide hydrobromide"], "SMILES": "S(C(=N)N)CC.Br", "physical_data": {"Molecular Weight": "", "Molecular Formula": "C3H8N2S.BrH", "Melting Point": "85-87 \u00b0C"}}