{"cas_no": "1071-76-7", "cn_name": "\u9506\u9178\u56db\u4e01\u916f", "en_name": ["Zirconium tetrabutoxide", "1-Butanol, zirconium(4+) salt (4:1)", "Butyl alcohol, zirconium(4+) salt", "Zirconium butoxide", "1-Butanol, zirconium(4+) salt", "Tetrabutoxyzirconium", "Tetrabutyl zirconate", "Zirconium tetrabutoxide", "Butyl zirconate", "Zirconic acid tetrabutyl ester", "Zirconium butylate", "ZA 60", "Zirconium butoxide (Zr(OBu)4)", "TBZr", "Orgatix ZA 60", "Tetrakis(butoxy)zirconium", "Zirconium tetra(n-butoxide)", "TBZ (coupling agent)", "TBZ", "Zirconium(IV) butoxide", "Hokuko HZ-OB", "Zirconium tetrakis(butoxide)", "AKZ 945", "Orgatix A 60", "Zirconium tetrakis(1-butoxide)", "Tetra-n-butyl zirconate", "Zirconium(4+) butoxide", "Tyzor NBZ", "Orgatix ZA 65", "Zirconium tetrabutanolate", "ZA 65", "Zirconium tetra-n-butylate", "Zirconium (IV) n-butoxide", "SG-Zr 802", "CAT 77"], "SMILES": "C(CC)CO.[Zr]", "physical_data": {"Molecular Weight": "", "Molecular Formula": "C4H10O.<sup>1</sup>/4Zr", "Boiling Point": "260 \u00b0C @ Press: 0.1 Torr", "Density": "1.070 g/cm\u00b3"}}