{"cas_no": "1072-43-1", "cn_name": "\u786b\u5316\u4e19\u70ef", "en_name": ["Propylene sulfide", "Thiirane, 2-methyl-", "Propane, 1,2-epithio-", "Thiirane, methyl-", "2-Methylthiirane", "Propylene sulfide", "Propene sulfide", "Propylene episulfide", "1,2-Epithiopropane", "Methylthiirane", "Epithiopropane", "1,2-Propylene sulfide", "dl-Propylene sulfide", "R,S-Propylene sulfide", "NSC 36643", "NSC 48100"], "SMILES": "CC1CS1", "physical_data": {"Molecular Weight": "74.14", "Molecular Formula": "C3H6S", "Boiling Point": "72.5 \u00b0C", "Melting Point": "-91 \u00b0C", "Density": "0.9588 g/cm\u00b3 @ Temp: 20 \u00b0C"}}