{"cas_no": "1072-62-4", "cn_name": "2-\u4e59\u57fa\u54aa\u5511", "en_name": ["2-Ethylimidazole", "1H-Imidazole, 2-ethyl-", "Imidazole, 2-ethyl-", "2-Ethyl-1H-imidazole", "2-Ethylimidazole", "Curezol 2EZ", "1H-2-Ethylimidazole"], "SMILES": "C(C)C=1NC=CN1", "physical_data": {"Molecular Weight": "96.13", "Molecular Formula": "C5H8N2", "Boiling Point": "270-275 \u00b0C", "Melting Point": "61-64 \u00b0C"}}