{"cas_no": "1072-97-5", "cn_name": "2-\u6c28\u57fa-5-\u6eb4\u5421\u5576", "en_name": ["2-Amino-5-bromopyridine", "2-Pyridinamine, 5-bromo-", "Pyridine, 2-amino-5-bromo-", "5-Bromo-2-pyridinamine", "5-Bromo-2-aminopyridine", "2-Amino-5-bromopyridine", "5-Bromopyridin-2-ylamine", "NSC 26282"], "SMILES": "BrC=1C=CC(N)=NC1", "physical_data": {"Molecular Weight": "173.01", "Molecular Formula": "C5H5BrN2", "Melting Point": "137 \u00b0C"}}