{"cas_no": "1072-35-1", "cn_name": "\u786c\u8102\u9178\u94c5", "en_name": ["Octadecanoic acid, lead(2+) salt (2:1)", "Octadecanoic acid, lead(2+) salt (2:1)", "Stearic acid, lead(2+) salt", "Octadecanoic acid, lead(2+) salt", "Lead(II) stearate", "Lead(2+) stearate", "Lead stearate", "Lead distearate", "Stabinex NC18", "Lead(2+) octadecanoate", "Lead(II) octadecanoate", "SL 1000 (stabilizer)", "SLG", "SL 1000", "5002G", "Pbst", "Listab 28ND", "Interstab L 3150"], "SMILES": "C(CCCCCCCCCCC)CCCCCC(O)=O.[Pb]", "physical_data": {"Molecular Weight": "", "Molecular Formula": "C18H36O2.<sup>1</sup>/2Pb", "Melting Point": "125 \u00b0C"}}