{"cas_no": "107263-95-6", "cn_name": "N-\u6c1f\u5421\u5576\u4e09\u6c1f\u7532\u78fa\u9178\u76d0", "en_name": ["Pyridinium, 1-fluoro-, 1,1,1-trifluoromethanesulfonate (1:1)", "Pyridinium, 1-fluoro-, 1,1,1-trifluoromethanesulfonate (1:1)", "Pyridinium, 1-fluoro-, salt with trifluoromethanesulfonic acid (1:1)", "Methanesulfonic acid, trifluoro-, ion(1-), 1-fluoropyridinium", "N-Fluoropyridinium triflate", "1-Fluoropyridinium triflate", "FP-T 500", "N-Fluoropyridinium trifluoromethanesulfonate", "Florinate FP-T 500", "1-Fluoropyridinium salt with trifluoromethanesulfonic acid (1:1)"], "SMILES": "C(S(=O)(=O)[O-])(F)(F)F.F[N+]=1C=CC=CC1", "physical_data": {"Molecular Weight": "", "Molecular Formula": "C5H5FN.CF3O3S", "Melting Point": "185-187 \u00b0C"}}