{"cas_no": "107259-05-2", "cn_name": "1-(BOC-\u6c28\u57fa)\u73af\u4e19\u70f7\u7532\u9178\u4e59\u916f", "en_name": ["1-(tert-Butoxycarbonylamino)cyclopropanecarboxylic acid ethyl ester", "Cyclopropanecarboxylic acid, 1-[[(1,1-dimethylethoxy)carbonyl]amino]-, ethyl ester", "1-(tert-Butoxycarbonylamino)cyclopropanecarboxylic acid ethyl ester", "1-[[(1,1-Dimethylethoxy)carbonyl]amino]cyclopropanecarboxylic acid ethyl ester"], "SMILES": "C(OCC)(=O)C1(NC(OC(C)(C)C)=O)CC1", "physical_data": {"Molecular Weight": "229.27", "Molecular Formula": "C11H19NO4", "Melting Point": "44-46 \u00b0C"}}