{"cas_no": "1072-12-4", "cn_name": "\u4e59\u4e8c\u919b\u4e8c(\u7f29\u6c28\u57fa\u786b\u8132)", "en_name": ["Glyoxal dithiosemicarbazone", "Hydrazinecarbothioamide, 2,2\u2032-(1,2-ethanediylidene)bis-", "Glyoxal, bis(thiosemicarbazone)", "2,2\u2032-(1,2-Ethanediylidene)bis[hydrazinecarbothioamide]", "2,2\u2032-(1,2-Ethanediylidene)bishydrazinecarbothioamide", "Glyoxal dithiosemicarbazone", "GDTS", "NSC 22181"], "SMILES": "N(NC(N)=S)=CC=NNC(N)=S", "physical_data": {"Molecular Weight": "204.28", "Molecular Formula": "C4H8N6S2", "Melting Point": "252 \u00b0C (decomp)"}}