{"cas_no": "1072-83-9", "cn_name": "2-\u4e59\u9170\u57fa\u5421\u54af", "en_name": ["2-Acetylpyrrole", "Ethanone, 1-(1H-pyrrol-2-yl)-", "Ketone, methyl pyrrol-2-yl", "Ketone, methyl 2-pyrryl", "1-(1H-Pyrrol-2-yl)ethanone", "2-Acetylpyrrole", "Methyl pyrrol-2-yl ketone", "1-(2-Pyrrolyl)-1-ethanone", "2-Pyrrolyl methyl ketone", "(2-Pyrrolyl)ethanone", "2-Acetyl-1H-pyrrole", "NSC 42861", "2-Acetyl-1H-indole", "1-(1H-Pyrrole-2-yl)ethanone", "1H-Pyrrol-2-yl methyl ketone", "1-(1H-Pyrrol-2-yl)ethan-1-one", "1-(Pyrrol-2-yl)ethanone"], "SMILES": "C(C)(=O)C1=CC=CN1", "physical_data": {"Molecular Weight": "109.13", "Molecular Formula": "C6H7NO", "Boiling Point": "220 \u00b0C", "Melting Point": "90 \u00b0C"}}