{"cas_no": "1072-53-3", "cn_name": "1,3,2-\u4e8c\u5641\u5511\u567b\u5429-2,2-\u4e8c\u6c27\u5316\u7269", "en_name": ["1,3,2-Dioxathiolane, 2,2-dioxide", "1,3,2-Dioxathiolane, 2,2-dioxide", "Ethylene glycol, cyclic sulfate", "Ethylene sulfate (((CH2O)2SO2))", "Ethylene sulfate", "1,2-Ethylene sulfate", "NSC 526594", "1,3,2-Dioxathiolan-2,2-dioxide", "1,3,2\u03bb6-Dioxathiolane-2,2-dione"], "SMILES": "O=S1(=O)OCCO1", "physical_data": {"Molecular Weight": "124.12", "Molecular Formula": "C2H4O4S", "Melting Point": "99 \u00b0C"}}