{"cas_no": "1072-21-5", "cn_name": "\u5df1\u4e8c\u919b", "en_name": ["Hexanedial", "Hexanedial", "Adipaldehyde", "Adipic dialdehyde", "Hexanedialdehyde", "Adipodialdehyde", "1,4-Butane dicarboxaldehyde", "Adipic aldehyde", "1,6-Hexanedial", "Adipindialdehyde"], "SMILES": "C(CCC=O)CC=O", "physical_data": {"Molecular Weight": "114.14", "Molecular Formula": "C6H10O2", "Boiling Point": "68-70 \u00b0C @ Press: 3 Torr", "Melting Point": "-8 \u00b0C", "Density": "1.003 g/cm\u00b3 @ Temp: 19 \u00b0C"}}