{"cas_no": "107264-09-5", "cn_name": "1-\u6c1f\u5421\u5576\u56db\u6c1f\u787c\u9178\u76d0", "en_name": ["Pyridinium, 1-fluoro-, tetrafluoroborate(1-) (1:1)", "Pyridinium, 1-fluoro-, tetrafluoroborate(1-) (1:1)", "Pyridinium, 1-fluoro-, tetrafluoroborate(1-)", "N-Fluoropyridinium tetrafluoroborate", "FP-B 500", "Florinate FP-B 500", "1-Fluoropyridinium tetrafluoroborate(1-)", "1-Fluoropyridinium tetrafluoroborate", "1-Fluoropyridin-1-ium", "tetrafluoroboranuide"], "SMILES": "[B+3]([F-])([F-])([F-])[F-].F[N+]=1C=CC=CC1", "physical_data": {"Molecular Weight": "", "Molecular Formula": "C5H5FN.BF4", "Melting Point": "90-91 \u00b0C"}}