{"cas_no": "1072-52-2", "cn_name": "1-\u7f9f\u4e59\u57fa\u6c2e\u4e19\u5576", "en_name": ["1-Aziridineethanol", "1-Aziridineethanol", "1-(2-Hydroxyethyl)ethylenimine", "N-(2-Hydroxyethyl)aziridine", "N-(2-Hydroxyethyl)ethylenimine", "N-(\u03b2-Hydroxyethyl)aziridine", "2-(Aziridin-1-yl)ethanol", "NSC 50209", "1-(2-Hydroxylethyl)aziridine", "2-(Aziridin-1-yl)ethan-1-ol"], "SMILES": "C(CO)N1CC1", "physical_data": {"Molecular Weight": "87.12", "Molecular Formula": "C4H9NO", "Boiling Point": "154-156 \u00b0C @ Press: 760 Torr"}}