{"cas_no": "1072-47-5", "cn_name": "4-\u7532\u57fa-1,3-\u4e8c\u6c27\u620a\u70f7", "en_name": ["4-Methyl-1,3-dioxolane", "1,3-Dioxolane, 4-methyl-", "4-Methyl-1,3-dioxolane", "Propylene glycol formal"], "SMILES": "CC1COCO1", "physical_data": {"Molecular Weight": "88.11", "Molecular Formula": "C4H8O2", "Boiling Point": "84.2 \u00b0C @ Press: 745 Torr", "Density": "0.9834 g/cm\u00b3 @ Temp: 25 \u00b0C"}}