{"cas_no": "1072-67-9", "cn_name": "3-\u6c28\u57fa-5-\u7532\u57fa\u5f02\u5511", "en_name": ["3-Amino-5-methylisoxazole", "3-Isoxazolamine, 5-methyl-", "Isoxazole, 3-amino-5-methyl-", "5-Methyl-3-isoxazolamine", "3-Amino-5-methylisoxazole", "5-Methyl-3-aminoisoxazole", "5-Methyl-3-isoxazolylamine", "5-Methyl-1,2-oxazol-3-amine", "NSC 159134"], "SMILES": "NC=1C=C(C)ON1", "physical_data": {"Molecular Weight": "98.10", "Molecular Formula": "C4H6N2O", "Melting Point": "61-62 \u00b0C"}}