{"cas_no": "1072-16-8", "cn_name": "2,7-\u4e8c\u7532\u57fa\u8f9b\u70f7", "en_name": ["2,7-Dimethyloctane", "Octane, 2,7-dimethyl-", "2,7-Dimethyloctane", "Diisoamyl", "Diisopentyl", "NSC 6232"], "SMILES": "C(CCC(C)C)CC(C)C", "physical_data": {"Molecular Weight": "142.28", "Molecular Formula": "C10H22", "Boiling Point": "159.9 \u00b0C", "Melting Point": "-54.9 \u00b0C", "Density": "0.7283 g/cm\u00b3 @ Temp: 20 \u00b0C"}}