{"cas_no": "1072-14-6", "cn_name": "\u4e09\u53d4\u4e01\u57fa\u7845\u70f7", "en_name": ["Hexylsilane", "Silane, hexyl-", "Hexylsilane", "n-Hexylsilane", "NSC 168691"], "SMILES": "C(CCC)CC[SiH3]", "physical_data": {"Molecular Weight": "116.28", "Molecular Formula": "C6H16Si", "Boiling Point": "114-115 \u00b0C", "Density": "0.718 g/cm\u00b3"}}