{"cas_no": "1072-63-5", "cn_name": "1-\u4e59\u70ef\u57fa\u54aa\u5511", "en_name": ["1-Vinylimidazole", "1H-Imidazole, 1-ethenyl-", "Imidazole, 1-vinyl-", "1-Ethenyl-1H-imidazole", "N-Vinylimidazole", "1-Vinylimidazole", "1-Vinyl-1H-imidazole", "1-Ethenylimidazole"], "SMILES": "C(=C)N1C=CN=C1", "physical_data": {"Molecular Weight": "94.11", "Molecular Formula": "C5H6N2", "Boiling Point": "100-113 \u00b0C @ Press: 20 Torr", "Density": "1.0414 g/cm\u00b3 @ Temp: 20 \u00b0C"}}