{"cas_no": "1072-72-6", "cn_name": "\u56db\u6c22\u567b\u5583-4-\u916e", "en_name": ["Tetrahydrothiopyran-4-one", "4H-Thiopyran-4-one, tetrahydro-", "Tetrahydro-4H-thiopyran-4-one", "Penthianone", "4-Thiacyclohexanone", "Tetrahydrothiopyran-4-one", "1-Thiacyclohexan-4-one", "2,3,5,6-Tetrahydro-4-thiopyranone", "Tetrahydro-1-thio-4-pyrone", "Tetrahydro-4-thiopyrone", "4-Oxothiane", "Tetrahydro-1-thio-\u03b3-pyrone", "4-Oxotetrahydrothiopyran", "4-Thianone", "Tetrahydrothiapyran-4-one", "4-Thiacyclohexan-1-one", "NSC 41599", "Dihydro-2H-thiopyran-4(3H)-one"], "SMILES": "O=C1CCSCC1", "physical_data": {"Molecular Weight": "116.18", "Molecular Formula": "C5H8OS", "Melting Point": "65-66 \u00b0C"}}