{"cas_no": "1072-98-6", "cn_name": "2-\u6c28\u57fa-5-\u6c2f\u5421\u5576", "en_name": ["2-Amino-5-chloropyridine", "2-Pyridinamine, 5-chloro-", "Pyridine, 2-amino-5-chloro-", "5-Chloro-2-pyridinamine", "2-Amino-5-chloropyridine", "5-Chloro-2-aminopyridine", "5-Chloro-\u03b1-aminopyridine", "RP 26695", "5-Chloro-2-pyridineamine", "NSC 26283", "(5-Chloropyridin-2-yl)amine"], "SMILES": "ClC=1C=CC(N)=NC1", "physical_data": {"Molecular Weight": "128.56", "Molecular Formula": "C5H5ClN2", "Melting Point": "137 \u00b0C"}}