{"cas_no": "1072-84-0", "cn_name": "1H-\u54aa\u5511-4-\u7532\u9178", "en_name": ["1H-Imidazole-5-carboxylic acid", "1H-Imidazole-5-carboxylic acid", "Imidazole-4-carboxylic acid", "1H-Imidazole-4-carboxylic acid", "Imidazole-4(or 5)-carboxylic acid", "4-Carboxyimidazole", "Imidazole-5-carboxylic acid", "NSC 32340", "1H-Imidazol-3-ium-4-carboxylate"], "SMILES": "C(O)(=O)C1=CN=CN1", "physical_data": {"Molecular Weight": "112.09", "Molecular Formula": "C4H4N2O2", "Melting Point": "275 \u00b0C"}}