{"cas_no": "1072-71-5", "cn_name": "2,5-\u4e8c\u5def\u57fa\u567b\u4e8c\u5511", "en_name": ["2,5-Dimercapto-1,3,4-thiadiazole", "1,3,4-Thiadiazolidine-2,5-dithione", "\u03942-1,3,4-Thiadiazoline-5-thione, 2-mercapto-", "2,5-Dimercaptothiadiazole", "Bismuthiol I", "PY 61H", "2,5-Dimercapto-1,3,4-thiadiazole", "Dimercaptothiadiazole", "Vanchem DMTD", "1,3,4-Thiadiazole-2,5-dithiol", "D 2", "D 2 (Chinese flotation agent)", "Bismuthiol", "MTD", "NSC 4645", "2,5-Dithiol-1,3,4-thiadiazole", "2,5-Dimercapto-1,3,4-thiazole", "2,5-Mercapto-1,3,4-thiadiazole"], "SMILES": "S=C1SC(=S)NN1", "physical_data": {"Molecular Weight": "150.25", "Molecular Formula": "C2H2N2S3", "Melting Point": "170 \u00b0C"}}