{"cas_no": "1072-68-0", "cn_name": "1,4-\u4e8c\u7532\u57fa\u5421\u5511", "en_name": ["1,4-Dimethylpyrazole", "1H-Pyrazole, 1,4-dimethyl-", "Pyrazole, 1,4-dimethyl-", "1,4-Dimethyl-1H-pyrazole", "1,4-Dimethylpyrazole"], "SMILES": "CC1=CN(C)N=C1", "physical_data": {"Molecular Weight": "96.13", "Molecular Formula": "C5H8N2", "Boiling Point": "148-150 \u00b0C @ Press: 20 Torr", "Density": "0.9608 g/cm\u00b3 @ Temp: 18 \u00b0C"}}