{"cas_no": "1072-85-1", "cn_name": "\u90bb\u6eb4\u6c1f\u82ef", "en_name": ["1-Bromo-2-fluorobenzene", "Benzene, 1-bromo-2-fluoro-", "1-Bromo-2-fluorobenzene", "o-Fluorobromobenzene", "1-Fluoro-2-bromobenzene", "o-Bromofluorobenzene", "2-Bromofluorobenzene", "2-Fluorobromobenzene", "2-Bromophenyl fluoride", "NSC 59696", "2-Bromo-1-fluorobenzene", "2-Fluorophenyl bromide", "2-Fluoro-1-bromobenzene"], "SMILES": "BrC1=C(F)C=CC=C1", "physical_data": {"Molecular Weight": "175.00", "Molecular Formula": "C6H4BrF", "Boiling Point": "151 \u00b0C @ Press: 755 Torr", "Density": "1.6046 g/cm\u00b3 @ Temp: 25.00 \u00b0C"}}