{"cas_no": "1073-69-4", "cn_name": "4-\u6c2f\u82ef\u80bc", "en_name": ["(4-Chlorophenyl)hydrazine", "Hydrazine, (4-chlorophenyl)-", "Hydrazine, (p-chlorophenyl)-", "(4-Chlorophenyl)hydrazine", "(p-Chlorophenyl)hydrazine", "1-(4-Chlorophenyl)hydrazine", "N-(4-Chlorophenyl)hydrazine", "4-Chlorophenyl hydrazine", "p-Chlorophenyl hydrazine"], "SMILES": "N(N)C1=CC=C(Cl)C=C1", "physical_data": {"Molecular Weight": "142.59", "Molecular Formula": "C6H7ClN2", "Melting Point": "85 \u00b0C"}}