{"cas_no": "1073-72-9", "cn_name": "4-(\u7532\u786b\u57fa)\u82ef\u915a", "en_name": ["4-(Methylthio)phenol", "Phenol, 4-(methylthio)-", "Phenol, p-(methylthio)-", "Phenol, p-methylmercapto-", "4-(Methylthio)phenol", "p-(Methylthio)phenol", "p-Hydroxyphenyl methyl sulfide", "4-(Methylmercapto)phenol", "p-Hydroxythioanisole", "Methyl 4-hydroxyphenyl sulfide", "4-Hydroxyphenyl methyl sulfide", "4-Methylsulfanylphenol", "NSC 75840", "4-(Methylsulfenyl)phenol", "4-Hydroxythioanisole"], "SMILES": "S(C)C1=CC=C(O)C=C1", "physical_data": {"Molecular Weight": "140.20", "Molecular Formula": "C7H8OS", "Boiling Point": "113 \u00b0C", "Melting Point": "83-84 \u00b0C"}}