{"cas_no": "1073-70-7", "cn_name": "\u5bf9\u6c2f\u82ef\u80bc\u76d0\u9178\u76d0", "en_name": ["Hydrazine, (4-chlorophenyl)-, hydrochloride (1:1)", "Hydrazine, (4-chlorophenyl)-, hydrochloride (1:1)", "Hydrazine, (p-chlorophenyl)-, monohydrochloride", "Hydrazine, (4-chlorophenyl)-, monohydrochloride", "p-Chlorophenylhydrazine monohydrochloride", "4-Chlorophenylhydrazine monohydrochloride", "4-Chlorophenylhydrazine hydrochloride", "p-Chlorophenylhydrazine hydrochloride", "2-(4-Chlorophenyl)hydrazinium chloride"], "SMILES": "N(N)C1=CC=C(Cl)C=C1.Cl", "physical_data": {"Molecular Weight": "", "Molecular Formula": "C6H7ClN2.ClH", "Melting Point": "78-79 \u00b0C"}}