{"cas_no": "107390-08-9", "cn_name": "GARCINONE D", "en_name": ["Garcinone D", "9H-Xanthen-9-one, 1,3,6-trihydroxy-8-(3-hydroxy-3-methylbutyl)-7-methoxy-2-(3-methyl-2-buten-1-yl)-", "9H-Xanthen-9-one, 1,3,6-trihydroxy-8-(3-hydroxy-3-methylbutyl)-7-methoxy-2-(3-methyl-2-butenyl)-", "1,3,6-Trihydroxy-8-(3-hydroxy-3-methylbutyl)-7-methoxy-2-(3-methyl-2-buten-1-yl)-9H-xanthen-9-one", "Garcinone D", "1,3,6-Trihydroxy-8-(3-hydroxy-3-methylbutyl)-7-methoxy-2-(3-methylbut-2-enyl)xanthen-9-one"], "SMILES": "C(CC(C)(C)O)C1=C2C(OC=3C(C2=O)=C(O)C(CC=C(C)C)=C(O)C3)=CC(O)=C1OC", "physical_data": {"Molecular Weight": "428.47", "Molecular Formula": "C24H28O7", "Melting Point": "202-204 \u00b0C"}}