{"cas_no": "1073-62-7", "cn_name": "\u82c4\u57fa\u80bc\u4e8c\u76d0\u9178\u76d0", "en_name": ["Hydrazine, (phenylmethyl)-, hydrochloride (1:1)", "Hydrazine, (phenylmethyl)-, hydrochloride (1:1)", "Hydrazine, benzyl-, monohydrochloride", "Hydrazine, (phenylmethyl)-, monohydrochloride", "Benzylhydrazine hydrochloride", "Z 102", "Benzylhydrazine monohydrochloride", "2-Benzylhydrazinium chloride"], "SMILES": "C(NN)C1=CC=CC=C1.Cl", "physical_data": {"Molecular Weight": "", "Molecular Formula": "C7H10N2.ClH", "Melting Point": "148 \u00b0C"}}