{"cas_no": "1073-93-4", "cn_name": "N-\u5f02\u4e19\u57fa\u9a6c\u6765\u9170\u4e9a\u80fa", "en_name": ["N-Isopropylmaleimide", "1H-Pyrrole-2,5-dione, 1-(1-methylethyl)-", "Maleimide, N-isopropyl-", "1-(1-Methylethyl)-1H-pyrrole-2,5-dione", "N-Isopropylmaleimide", "NSC 17658", "1-Propan-2-ylpyrrole-2,5-dione"], "SMILES": "C(C)(C)N1C(=O)C=CC1=O", "physical_data": {"Molecular Weight": "139.15", "Molecular Formula": "C7H9NO2", "Boiling Point": "67 \u00b0C @ Press: 11 Torr", "Melting Point": "83 \u00b0C"}}