{"cas_no": "1073-06-9", "cn_name": "\u95f4\u6eb4\u6c1f\u82ef", "en_name": ["1-Bromo-3-fluorobenzene", "Benzene, 1-bromo-3-fluoro-", "1-Bromo-3-fluorobenzene", "1-Fluoro-3-bromobenzene", "m-Bromofluorobenzene", "m-Fluorobromobenzene", "m-Fluorophenyl bromide", "3-Bromofluorobenzene", "3-Fluorobromobenzene", "3-Fluorophenyl bromide", "3-Fluoro-1-bromobenzene", "m-Bromofluorobenzene", "3-Bromo-1-fluorobenzene", "NSC 10267"], "SMILES": "BrC1=CC(F)=CC=C1", "physical_data": {"Molecular Weight": "175.00", "Molecular Formula": "C6H4BrF", "Boiling Point": "150 \u00b0C", "Density": "1.5862 g/cm\u00b3 @ Temp: 25.00 \u00b0C"}}