{"cas_no": "1073-29-6", "cn_name": "2-\u7f9f\u57fa\u8334\u9999\u786b\u919a", "en_name": ["2-(Methylthio)phenol", "Phenol, 2-(methylthio)-", "Phenol, o-(methylthio)-", "2-(Methylthio)phenol", "o-Hydroxythioanisole", "o-(Methylthio)phenol", "2-Hydroxythioanisole", "2-(Methylmercapto)phenol", "Methyl 2-hydroxyphenyl sulfide", "NSC 75839"], "SMILES": "S(C)C1=C(O)C=CC=C1", "physical_data": {"Molecular Weight": "140.20", "Molecular Formula": "C7H8OS", "Boiling Point": "148-151 \u00b0C @ Press: 14 Torr", "Melting Point": "84-85 \u00b0C", "Density": "1.168 g/cm\u00b3 @ Temp: 25 \u00b0C"}}