{"cas_no": "1073-26-3", "cn_name": "2-\u4e19\u9170\u5421\u54af", "en_name": ["2-Propionylpyrrole", "1-Propanone, 1-(1H-pyrrol-2-yl)-", "1-Propanone, 1-pyrrol-2-yl-", "1-Propanone, 1-(2-pyrryl)-", "1-(1H-Pyrrol-2-yl)-1-propanone", "2-Propionylpyrrole", "2-Propanoylpyrrole", "NSC 81353", "1-(1H-Pyrrol-2-yl)propan-1-one"], "SMILES": "C(CC)(=O)C1=CC=CN1", "physical_data": {"Molecular Weight": "123.15", "Molecular Formula": "C7H9NO", "Boiling Point": "227-230 \u00b0C", "Melting Point": "52 \u00b0C"}}