{"cas_no": "107367-98-6", "cn_name": "2-\uff085-\u7532\u57fa-2-\u82ef\u57fa1\uff0c3-\u6c27\u6742\u9187-4-\u70f7\u57fa\uff09\u4e59\u9178", "en_name": ["2-Phenyl-5-methyloxazole-4-acetic acid", "4-Oxazoleacetic acid, 5-methyl-2-phenyl-", "5-Methyl-2-phenyl-4-oxazoleacetic acid", "2-Phenyl-5-methyloxazole-4-acetic acid", "5-Methyl-2-phenyloxazol-4-ylacetic acid", "2-(5-Methyl-2-phenyloxazol-4-yl)acetic acid", "(5-Methyl-2-phenyl-1,3-oxazol-4-yl)acetic acid", "2-(5-Methyl-2-phenyl-1,3-oxazol-4-yl)acetic acid"], "SMILES": "C(C(O)=O)C=1N=C(OC1C)C2=CC=CC=C2", "physical_data": {"Molecular Weight": "217.22", "Molecular Formula": "C12H11NO3", "Melting Point": "126-127 \u00b0C"}}