{"cas_no": "1073-23-0", "cn_name": "2,6-\u4e8c\u7532\u57fa\u5421\u5576 N-\u6c27\u5316\u7269", "en_name": ["2,6-Dimethylpyridine N-oxide", "Pyridine, 2,6-dimethyl-, 1-oxide", "2,6-Lutidine, 1-oxide", "2,6-Dimethylpyridine 1-oxide", "2,6-Lutidine N-oxide", "2,6-Dimethylpyridine N-oxide", "2,6-Lutidine oxide", "2,6-Dimethylpyridine oxide", "Ivin", "NSC 18258", "NSC 60738", "2,6-Dimethyl-1-oxidopyridin-1-ium", "2,6-Dimethylpyridin-1-ium-1-olate"], "SMILES": "O=N=1C(C)=CC=CC1C", "physical_data": {"Molecular Weight": "123.15", "Molecular Formula": "C7H9NO", "Boiling Point": "115-119 \u00b0C", "Melting Point": "95-96 \u00b0C"}}