{"cas_no": "1073-67-2", "cn_name": "\u5bf9\u6c2f\u82ef\u4e59\u70ef", "en_name": ["4-Chlorostyrene", "Benzene, 1-chloro-4-ethenyl-", "Styrene, p-chloro-", "1-Chloro-4-ethenylbenzene", "p-Chlorostyrene", "4-Chlorostyrene", "p-Vinylphenyl chloride", "4-Chloro-1-ethenylbenzene", "(4-Chlorophenyl)ethene", "p-Chlorovinylbenzene", "NSC 18603", "1-Chloro-4-vinylbenzene"], "SMILES": "C(=C)C1=CC=C(Cl)C=C1", "physical_data": {"Molecular Weight": "138.59", "Molecular Formula": "C8H7Cl", "Boiling Point": "192 \u00b0C", "Melting Point": "-15.90 \u00b0C", "Density": "1.0868 g/cm\u00b3 @ Temp: 20 \u00b0C"}}