{"cas_no": "1073-79-6", "cn_name": "2,6-\u4e8c\u7532\u57fa\u56db\u6c22-4H-\u5421\u5583-4-\u916e", "en_name": ["Tetrahydro-2,6-dimethyl-4H-pyran-4-one", "4H-Pyran-4-one, tetrahydro-2,6-dimethyl-", "Tetrahydro-2,6-dimethyl-4H-pyran-4-one", "2,6-Dimethyltetrahydro-4-pyranone", "2,6-Dimethyl-4-tetrahydropyrone", "Tetrahydro-2,6-dimethylpyran-4-one", "2,6-Dimethyltetrahydro-4H-pyran-4-one", "2,6-Dimethyldihydro-2H-pyran-4(3H)-one", "2,6-Dimethyloxan-4-one"], "SMILES": "O=C1CC(C)OC(C)C1", "physical_data": {"Molecular Weight": "128.17", "Molecular Formula": "C7H12O2", "Boiling Point": "170 \u00b0C @ Press: 737 Torr", "Density": "0.9856 g/cm\u00b3 @ Temp: 14 \u00b0C"}}