{"cas_no": "1073-05-8", "cn_name": "1,3,2-\u4e8c\u6c27\u786b\u6742\u73af\u5df1\u70f7-2,2-\u4e8c\u6c27\u5316\u7269", "en_name": ["1,3,2-Dioxathiane, 2,2-dioxide", "1,3,2-Dioxathiane, 2,2-dioxide", "Trimethylene sulfate", "1,3-Propanediol, cyclic sulfate", "1,3-Propylene sulfate", "Propano-1,3-diyl sulfate", "NSC 526595", "1,3,2\u03bb6-Dioxathiane-2,2-dione"], "SMILES": "O=S1(=O)OCCCO1", "physical_data": {"Molecular Weight": "138.14", "Molecular Formula": "C3H6O4S", "Boiling Point": "153 \u00b0C @ Press: 14 Torr", "Melting Point": "63 \u00b0C"}}