{"cas_no": "1074-16-4", "cn_name": "2-\u6eb4\u82ef\u4e59\u9187", "en_name": ["2-Bromobenzeneethanol", "Benzeneethanol, 2-bromo-", "Phenethyl alcohol, o-bromo-", "2-Bromobenzeneethanol", "o-Bromophenethyl alcohol", "o-Bromophenylethyl alcohol", "2-Bromophenethyl alcohol", "2-(2-Bromophenyl)ethanol", "2-(2-Hydroxyethyl)bromobenzene", "2-(2-Bromophenyl)ethan-1-ol"], "SMILES": "C(CO)C1=C(Br)C=CC=C1", "physical_data": {"Molecular Weight": "201.06", "Molecular Formula": "C8H9BrO", "Boiling Point": "135-137 \u00b0C @ Press: 12 Torr"}}