{"cas_no": "1074-68-6", "cn_name": "2-\u7532\u786b\u57fa-\u5627\u5576-4-\u7532\u919b", "en_name": ["2-(Methylthio)-4-pyrimidinecarboxaldehyde", "4-Pyrimidinecarboxaldehyde, 2-(methylthio)-", "2-(Methylthio)-4-pyrimidinecarboxaldehyde", "2-Methylthiopyrimidine-4-carboxaldehyde", "4-Formyl-2-methylthiopyrimidine", "2-Methylsulfanylpyrimidine-4-carboxaldehyde", "2-Methylsulfanylpyrimidine-4-carbaldehyde", "2-(Methylsulfanyl)pyrimidine-4-carbaldehyde", "2-(Methylthio)pyrimidine-4-carbaldehyde"], "SMILES": "C(=O)C1=NC(SC)=NC=C1", "physical_data": {"Molecular Weight": "154.19", "Molecular Formula": "C6H6N2OS", "Boiling Point": "110-112 \u00b0C @ Press: 1 x 10<sup>-3</sup> Torr", "Melting Point": "68 \u00b0C"}}