{"cas_no": "1074-87-9", "cn_name": "\u5432\u54da-7-\u7532\u9187", "en_name": ["1H-Indole-7-methanol", "1H-Indole-7-methanol", "Indole-7-methanol", "(1H-Indol-7-yl)methanol"], "SMILES": "C(O)C1=C2C(C=CN2)=CC=C1", "physical_data": {"Molecular Weight": "147.17", "Molecular Formula": "C9H9NO", "Melting Point": "55-56 \u00b0C"}}