{"cas_no": "1074-91-5", "cn_name": "2,3,4,5-\u56db\u6c1f\u6eb4\u82ef", "en_name": ["1-Bromo-2,3,4,5-tetrafluorobenzene", "Benzene, 1-bromo-2,3,4,5-tetrafluoro-", "1-Bromo-2,3,4,5-tetrafluorobenzene", "2,3,4,5-Tetrafluorophenyl bromide"], "SMILES": "FC1=C(F)C(F)=C(F)C=C1Br", "physical_data": {"Molecular Weight": "228.97", "Molecular Formula": "C6HBrF4", "Melting Point": "149-150 \u00b0C"}}