{"cas_no": "1074-38-0", "cn_name": "2-\u785d\u57fa-5-\u7532\u57fa\u5421\u5576", "en_name": ["5-Methyl-2-nitropyridine", "Pyridine, 5-methyl-2-nitro-", "3-Picoline, 6-nitro-", "5-Methyl-2-nitropyridine", "2-Nitro-5-picoline", "NSC 80299", "3-Methyl-6-nitropyridine"], "SMILES": "N(=O)(=O)C1=CC=C(C)C=N1", "physical_data": {"Molecular Weight": "138.12", "Molecular Formula": "C6H6N2O2", "Melting Point": "94-95 \u00b0C"}}