{"cas_no": "1074-99-3", "cn_name": "2,4-\u4e8c\u7532\u57fa-5-\u785d\u57fa\u5421\u5576", "en_name": ["2,4-Dimethyl-5-nitropyridine", "Pyridine, 2,4-dimethyl-5-nitro-", "2,4-Lutidine, 5-nitro-", "2,4-Dimethyl-5-nitropyridine"], "SMILES": "N(=O)(=O)C=1C(C)=CC(C)=NC1", "physical_data": {"Molecular Weight": "152.15", "Molecular Formula": "C7H8N2O2", "Boiling Point": "135-140 \u00b0C @ Press: 12 Torr", "Melting Point": "20.5 \u00b0C"}}