{"cas_no": "1074-89-1", "cn_name": "6-\u7532\u6c27\u57fa\u560c\u5464", "en_name": ["6-Methoxy-9H-purine", "9H-Purine, 6-methoxy-", "Purine, 6-methoxy-", "1H-Purine, 6-methoxy-", "6-Methoxy-9H-purine", "6-Methoxypurine", "O-Methylhypoxanthine", "O6-Methylhypoxanthine", "NSC 23723"], "SMILES": "O(C)C1=C2C(N=CN2)=NC=N1", "physical_data": {"Molecular Weight": "150.14", "Molecular Formula": "C6H6N4O", "Melting Point": "195-196 \u00b0C"}}