{"cas_no": "1074-29-9", "cn_name": "\u82ef\u57fa\u4e09\u6c2f\u5316\u9517", "en_name": ["Trichlorophenylgermane", "Germane, trichlorophenyl-", "Phenylgermanium trichloride", "Trichlorophenylgermane", "Phenyltrichlorogermane", "Trichlorophenylgermanium", "NSC 269585", "Phenyltrichlorogermanium"], "SMILES": "[Ge](Cl)(Cl)(Cl)C1=CC=CC=C1", "physical_data": {"Molecular Weight": "256.10", "Molecular Formula": "C6H5Cl3Ge", "Boiling Point": "226-228 \u00b0C", "Density": "1.584 g/cm\u00b3"}}