{"cas_no": "1074-88-0", "cn_name": "\u5432\u54da-7-\u7532\u919b", "en_name": ["Indole-7-carboxaldehyde", "1H-Indole-7-carboxaldehyde", "Indole-7-carboxaldehyde", "7-Formylindole", "1H-Indole-7-carbaldehyde"], "SMILES": "C(=O)C1=C2C(C=CN2)=CC=C1", "physical_data": {"Molecular Weight": "145.16", "Molecular Formula": "C9H7NO", "Melting Point": "87-89 \u00b0C"}}