{"cas_no": "1074-24-4", "cn_name": "2,5-\u4e8c\u6eb4-1,4-\u4e8c\u7532\u57fa\u82ef", "en_name": ["2,5-Dibromo-p-xylene", "Benzene, 1,4-dibromo-2,5-dimethyl-", "p-Xylene, 2,5-dibromo-", "1,4-Dibromo-2,5-dimethylbenzene", "2,5-Dimethyl-1,4-dibromobenzene", "2,5-Dibromo-p-xylene", "2,5-Dibromo-1,4-dimethylbenzene", "2,5-Dibromo-1,4-xylene", "NSC 106321"], "SMILES": "BrC1=C(C)C=C(Br)C(C)=C1", "physical_data": {"Molecular Weight": "263.96", "Molecular Formula": "C8H8Br2", "Melting Point": "73.5-74.0 \u00b0C"}}