{"cas_no": "1074-82-4", "cn_name": "\u90bb\u82ef\u4e8c\u7532\u9170\u4e9a\u80fa\u94be\u76d0", "en_name": ["Potassium phthalimide", "1H-Isoindole-1,3(2H)-dione, potassium salt (1:1)", "Phthalimide, potassium salt", "1H-Isoindole-1,3(2H)-dione, potassium salt", "Potassium, phthalimido-", "Phthalimide, potassium deriv.", "Potassium phthalimide", "N-Potassiophthalimide", "Potassium phthalimidate", "Phthalimidopotassium", "Phthalimide potassium", "Potassium isoindoline-1,3-dione", "Isoindole-1,3-dione potassium salt", "Potassium 2,3-dihydro-1H-isoindole-1,3-dione", "Potassium 1,3-dioxoisoindolin-2-ide", "1H-Isoindole-1,3(2H)-dione, potassium salt, ion(1-) (1:1)"], "SMILES": "O=C1C=2C(C(=O)N1)=CC=CC2.[K]", "physical_data": {"Molecular Weight": "", "Molecular Formula": "C8H5NO2.K", "Melting Point": "&gt;250 \u00b0C"}}