{"cas_no": "1074-15-3", "cn_name": "2-(2-\u6eb4\u4e59\u57fa)-1-\u6eb4\u82ef", "en_name": ["1-Bromo-2-(2-bromoethyl)benzene", "Benzene, 1-bromo-2-(2-bromoethyl)-", "1-Bromo-2-(2-bromoethyl)benzene", "o-Bromophenethyl bromide", "2-(o-Bromophenyl)ethyl bromide", "2-Bromophenethyl bromide", "2-(2-Bromoethyl)-1-bromobenzene", "2-Bromo-1-(2-bromoethyl)benzene", "NSC 338402"], "SMILES": "C(CBr)C1=C(Br)C=CC=C1", "physical_data": {"Molecular Weight": "263.96", "Molecular Formula": "C8H8Br2", "Boiling Point": "99-100 \u00b0C @ Press: 3 Torr", "Melting Point": "122 \u00b0C"}}