{"cas_no": "1074-59-5", "cn_name": "3-(\u54aa\u5511-4-\u57fa)\u4e19\u9178", "en_name": ["1H-Imidazole-5-propanoic acid", "1H-Imidazole-5-propanoic acid", "Imidazole-4-propionic acid", "1H-Imidazole-4-propanoic acid", "Imidazole-4(or 5)-propionic acid", "3-(4-Imidazolyl)propionic acid", "\u03b2-Imidazolyl-4(5)-propionic acid", "Dihydrourocanic acid", "\u03b2-(5-Imidazolyl)propionic acid", "Imidazolylpropionic acid", "3-(Imidazol-4(5)-yl)propionic acid", "Dihydrourocanoic acid", "1H-Imidazole-4-propionic acid", "3-(1H-4-Imidazolyl)propanoic acid", "NSC 66737", "3-(1H-Imidazol-4-yl)propionic acid", "5-(2-Carboxyethyl) imidazole"], "SMILES": "C(CC(O)=O)C1=CN=CN1", "physical_data": {"Molecular Weight": "140.14", "Molecular Formula": "C6H8N2O2", "Melting Point": "206-208 \u00b0C"}}