{"cas_no": "1074-98-2", "cn_name": "3-\u7532\u57fa-4-\u785d\u57fa\u5421\u5576-N-\u6c27\u5316\u7269", "en_name": ["Pyridine, 3-methyl-4-nitro-, 1-oxide", "Pyridine, 3-methyl-4-nitro-, 1-oxide", "3-Picoline, 4-nitro-, 1-oxide", "4-Nitro-3-methylpyridine N-oxide", "3-Methyl-4-nitropyridine 1-oxide", "5-Methyl-4-nitropyridine N-oxide", "4-Nitro-\u03b2-picoline N-oxide", "4-Nitro-3-picoline 1-oxide", "3-Methyl-4-nitropyridine oxide", "3-Methyl-4-nitropyridine N-oxide", "4-Nitropicoline N-oxide", "NSC 168202", "NSC 74203", "3-Methyl-4-nitropyridin-1-ium-1-olate", "3-Methyl-4-nitro-1-oxidopyridin-1-ium"], "SMILES": "N(=O)(=O)C=1C(C)=CN(=O)=CC1", "physical_data": {"Molecular Weight": "154.12", "Molecular Formula": "C6H6N2O3", "Melting Point": "137.5 \u00b0C"}}