{"cas_no": "1074-86-8", "cn_name": "4-\u5432\u54da\u7532\u919b", "en_name": ["Indole-4-carboxaldehyde", "1H-Indole-4-carboxaldehyde", "Indole-4-carboxaldehyde", "4-Formylindole", "4-Indolecarbaldehyde", "NSC 337264", "4-Formyl-1H-indole", "1H-Indole-4-carbaldehyde"], "SMILES": "C(=O)C1=C2C(NC=C2)=CC=C1", "physical_data": {"Molecular Weight": "145.16", "Molecular Formula": "C9H7NO", "Melting Point": "141-143 \u00b0C"}}