{"cas_no": "1074-63-1", "cn_name": "3-(\u73af\u620a\u6c28\u57fa)\u4e19\u8148", "en_name": ["3-(Cyclopentylamino)propanenitrile", "Propanenitrile, 3-(cyclopentylamino)-", "Propionitrile, 3-(cyclopentylamino)-", "3-(Cyclopentylamino)propanenitrile"], "SMILES": "N(CCC#N)C1CCCC1", "physical_data": {"Molecular Weight": "138.21", "Molecular Formula": "C8H14N2", "Boiling Point": "115-116 \u00b0C @ Press: 7 Torr"}}