{"cas_no": "1074-36-8", "cn_name": "4-\u5def\u57fa\u82ef\u7532\u9178", "en_name": ["4-Mercaptobenzoic acid", "Benzoic acid, 4-mercapto-", "Benzoic acid, p-mercapto-", "4-Mercaptobenzoic acid", "p-Mercaptobenzoic acid", "4-Carboxybenzenethiol", "4-Carboxythiophenol", "p-Carboxybenzenethiol", "NSC 32022"], "SMILES": "C(O)(=O)C1=CC=C(S)C=C1", "physical_data": {"Molecular Weight": "154.19", "Molecular Formula": "C7H6O2S", "Melting Point": "216-219 \u00b0C"}}