{"cas_no": "1074-43-7", "cn_name": "3-N-\u4e19\u57fa\u7532\u82ef", "en_name": ["1-Methyl-3-propylbenzene", "Benzene, 1-methyl-3-propyl-", "Toluene, m-propyl-", "1-Methyl-3-propylbenzene", "m-Propyltoluene", "3-n-Propyltoluene", "m-Methylpropylbenzene", "1-Propyl-3-methylbenzene", "1-Methyl-3-n-propylbenzene", "3-Methyl-1-propylbenzene", "NSC 73974", "3-Propyltoluene"], "SMILES": "C(CC)C1=CC(C)=CC=C1", "physical_data": {"Molecular Weight": "134.22", "Molecular Formula": "C10H14", "Boiling Point": "182 \u00b0C", "Melting Point": "-82.5 \u00b0C", "Density": "0.862 g/cm\u00b3 @ Temp: 20 \u00b0C"}}