{"cas_no": "1074-17-5", "cn_name": "1-\u7532\u57fa-2-\u4e19\u57fa", "en_name": ["1-Methyl-2-propylbenzene", "Benzene, 1-methyl-2-propyl-", "Toluene, o-propyl-", "1-Methyl-2-propylbenzene", "o-Propyltoluene", "2-Propyltoluene", "o-Methylpropylbenzene", "1-Propyl-2-methylbenzene", "1-Methyl-2-n-propylbenzene", "2-Methyl-1-propylbenzene", "NSC 73977"], "SMILES": "C(CC)C1=C(C)C=CC=C1", "physical_data": {"Molecular Weight": "134.22", "Molecular Formula": "C10H14", "Boiling Point": "185 \u00b0C", "Melting Point": "-60.3 \u00b0C", "Density": "0.874 g/cm\u00b3 @ Temp: 20 \u00b0C"}}