{"cas_no": "1074-55-1", "cn_name": "1-\u7532\u57fa-4-\u6b63\u4e19\u82ef", "en_name": ["1-Methyl-4-propylbenzene", "Benzene, 1-methyl-4-propyl-", "Toluene, p-propyl-", "1-Methyl-4-propylbenzene", "p-Propyltoluene", "p-Methylpropylbenzene", "1-Propyl-4-methylbenzene", "4-n-Propyltoluene", "1-Methyl-4-n-propylbenzene", "4-Propyltoluene", "4-Methyl-1-propylbenzene", "NSC 73973"], "SMILES": "C(CC)C1=CC=C(C)C=C1", "physical_data": {"Molecular Weight": "134.22", "Molecular Formula": "C10H14", "Boiling Point": "183.4 \u00b0C", "Melting Point": "-63.6 \u00b0C", "Density": "0.8642 g/cm\u00b3 @ Temp: 16.400009765625 \u00b0C"}}