{"cas_no": "1074-12-0", "cn_name": "\u82ef\u57fa\u4e19\u9187\u6c34\u5408\u7269", "en_name": ["Phenylglyoxal", "Benzeneacetaldehyde, \u03b1-oxo-", "Glyoxal, phenyl-", "\u03b1-Oxobenzeneacetaldehyde", "Formaldehyde, benzoyl-", "Phenylglyoxal", "Phenylethanedione", "1-Phenyl-1,2-ethanedione", "Benzoylcarboxaldehyde", "Benzoylformaldehyde", "Phenylglyoxaldehyde", "2-Phenyl-2-oxoacetaldehyde", "1-Phenylglyoxal", "NSC 156299", "NSC 26909", "NSC 627436", "Phenylethanedial", "2-Oxo-2-phenylethanal", "2-Oxo-2-phenylacetaldehyde", "MeSH ID: D010658"], "SMILES": "C(C=O)(=O)C1=CC=CC=C1", "physical_data": {"Molecular Weight": "134.13", "Molecular Formula": "C8H6O2", "Boiling Point": "108-110 \u00b0C @ Press: 15 Torr", "Melting Point": "123 \u00b0C"}}