{"cas_no": "1074-76-6", "cn_name": "2,4-\u4e8c\u7532\u57fa-3-\u785d\u57fa\u5421\u5576", "en_name": ["2,4-Dimethyl-3-nitropyridine", "Pyridine, 2,4-dimethyl-3-nitro-", "2,4-Lutidine, 3-nitro-", "2,4-Dimethyl-3-nitropyridine", "3-Nitro-2,4-dimethylpyridine"], "SMILES": "N(=O)(=O)C=1C(C)=CC=NC1C", "physical_data": {"Molecular Weight": "152.15", "Molecular Formula": "C7H8N2O2", "Boiling Point": "118-123 \u00b0C @ Press: 12 Torr", "Melting Point": "9.5 \u00b0C"}}