{"cas_no": "107534-96-3", "cn_name": "\u620a\u5511\u9187", "en_name": ["Tebuconazole", "1H-1,2,4-Triazole-1-ethanol, \u03b1-[2-(4-chlorophenyl)ethyl]-\u03b1-(1,1-dimethylethyl)-", "1H-1,2,4-Triazole-1-ethanol, \u03b1-[2-(4-chlorophenyl)ethyl]-\u03b1-(1,1-dimethylethyl)-, (\u00b1)-", "\u03b1-[2-(4-Chlorophenyl)ethyl]-\u03b1-(1,1-dimethylethyl)-1H-1,2,4-triazole-1-ethanol", "BAY-HWG 1608", "Raxil", "Folicur", "HWG 1608", "Tebuconazole", "Ethyltrianol", "Terbutrazole", "Etiltrianol", "Fenetrazole", "Preventol A 8", "Orius", "Orius (fungicide)", "Elite", "Elite (fungicide)", "Corail", "(\u00b1)-Tebuconazole", "Raxil 2DS", "Horizon", "Horizon (fungicide)", "Microban S 2142", "S 2142", "Atlas", "Microban TZ", "Folicur 200EC", "Horizont", "Riza", "Silvacure", "Timbertreat T", "Rival 200EC", "Sparta 250EW", "Sparta", "Tebu 250EW", "Rosacur", "Folicur 3.6F", "Hao Li-ke", "Gelseal (fungicide)", "Gelseal", "Greenseal", "Raxil Ultra", "Tebu 60", "Dedalus 25 WDG", "Orius 25EC", "ONLY ONE Flowable", "Monsoon", "Folicur 200CE", "1-(4-Chlorophenyl)-4,4-dimethyl-3-(1,2,4-triazole-1-yl-methyl)pentane-3-ol", "Helicur 250EW", "Miresa"], "SMILES": "C(CN1C=NC=N1)(CCC2=CC=C(Cl)C=C2)(C(C)(C)C)O", "physical_data": {"Molecular Weight": "307.82", "Molecular Formula": "C16H22ClN3O", "Melting Point": "102.4 \u00b0C"}}