{"cas_no": "1075-06-5", "cn_name": "\u82ef\u7532\u9170\u7532\u919b\u6c34\u5408\u7269", "en_name": ["Phenylglyoxal hydrate", "Ethanone, 2,2-dihydroxy-1-phenyl-", "Acetophenone, 2,2-dihydroxy-", "2,2-Dihydroxy-1-phenylethanone", "Phenylglyoxal hydrate", "Phenylglyoxal monohydrate", "Benzeneacetaldehyde, \u03b1-oxo-, aldehydo-hydrate", "\u03b1,\u03b1-Dihydroxyacetophenone", "NSC 249825", "2-Oxo-2-phenylacetaldehyde monohydrate", "2,2-Dihydroxy-1-phenylethan-1-one", "Benzeneacetaldehyde, \u03b1-oxo-, monohydrate", "Glyoxal, phenyl-, hydrate"], "SMILES": "C(C(O)O)(=O)C1=CC=CC=C1", "physical_data": {"Molecular Weight": "152.15", "Molecular Formula": "C8H8O3", "Melting Point": "83 \u00b0C"}}