{"cas_no": "1075-49-6", "cn_name": "4-\u4e59\u70ef\u57fa\u82ef\u7532\u9178", "en_name": ["4-Vinylbenzoic acid", "Benzoic acid, 4-ethenyl-", "Benzoic acid, p-vinyl-", "4-Ethenylbenzoic acid", "p-Vinylbenzoic acid", "4-Carboxystyrene", "p-Carboxystyrene", "4-Vinylbenzoic acid", "NSC 176003"], "SMILES": "C(O)(=O)C1=CC=C(C=C)C=C1", "physical_data": {"Molecular Weight": "148.16", "Molecular Formula": "C9H8O2", "Melting Point": "143-144 \u00b0C"}}