{"cas_no": "1075-76-9", "cn_name": "3-(\u82ef\u6c28\u57fa)\u4e19\u8148", "en_name": ["3-(Phenylamino)propanenitrile", "Propanenitrile, 3-(phenylamino)-", "Propionitrile, 3-anilino-", "3-(Phenylamino)propanenitrile", "N-(\u03b2-Cyanoethyl)aniline", "\u03b2-Anilinopropionitrile", "3-Anilinopropionitrile", "N-(2-Cyanoethyl)aniline", "N-(Cyanoethyl)aniline", "(\u03b2-Cyanoethyl)aniline", "3-(Phenylamino)propionitrile", "NSC 80663", "3-(N-Phenylamino)propionitrile", "3-Anilinopropanenitrile"], "SMILES": "N(CCC#N)C1=CC=CC=C1", "physical_data": {"Molecular Weight": "146.19", "Molecular Formula": "C9H10N2", "Boiling Point": "171 \u00b0C @ Press: 10 Torr", "Melting Point": "49 \u00b0C", "Density": "0.9480 g/cm\u00b3 @ Temp: 20 \u00b0C"}}