{"cas_no": "107534-93-0", "cn_name": "\u5b89\u4e94\u8102\u7d20", "en_name": ["Macelignan", "Phenol, 4-[(2S,3R)-4-(1,3-benzodioxol-5-yl)-2,3-dimethylbutyl]-2-methoxy-", "Phenol, 4-[4-(1,3-benzodioxol-5-yl)-2,3-dimethylbutyl]-2-methoxy-, [S-(R*,S*)]-", "4-[(2S,3R)-4-(1,3-Benzodioxol-5-yl)-2,3-dimethylbutyl]-2-methoxyphenol", "Macelignan", "Anwulignan", "(+)-Anwulignan", "Anwuligan"], "SMILES": "C(C(C(CC1=CC(OC)=C(O)C=C1)C)C)C=2C=C3C(=CC2)OCO3", "physical_data": {"Molecular Weight": "328.40", "Molecular Formula": "C20H24O4", "Melting Point": "70-72 \u00b0C"}}