{"cas_no": "1075-89-4", "cn_name": "3,3-\u56db\u4e9a\u7532\u57fa\u620a\u4e8c\u9170\u4e9a\u80fa", "en_name": ["8-Azaspiro[4.5]decane-7,9-dione", "8-Azaspiro[4.5]decane-7,9-dione", "1,1-Cyclopentanediacetimide", "\u03b2-Spirocyclopentaneglutarimide", "3,3-Tetramethyleneglutarimide", "3-Spirocyclopentaneglutarimide", "4,4-Tetramethyleneglutarimide", "NSC 400092"], "SMILES": "O=C1CC2(CC(=O)N1)CCCC2", "physical_data": {"Molecular Weight": "167.21", "Molecular Formula": "C9H13NO2", "Melting Point": "153 \u00b0C"}}