{"cas_no": "107504-08-5", "cn_name": "5-\u6c1f-2-\u5421\u5576\u7fa7\u9178", "en_name": ["5-Fluoropyridine-2-carboxylic acid", "2-Pyridinecarboxylic acid, 5-fluoro-", "5-Fluoro-2-pyridinecarboxylic acid", "5-Fluoropyridine-2-carboxylic acid", "5-Fluoropicolinic acid"], "SMILES": "C(O)(=O)C1=CC=C(F)C=N1", "physical_data": {"Molecular Weight": "141.10", "Molecular Formula": "C6H4FNO2", "Melting Point": "156-158 \u00b0C"}}