{"cas_no": "107585-77-3", "cn_name": "5,7-\u4e8c\u7f9f\u57fa-3-(4-\u7f9f\u57fa\u82c4\u57fa)\u8272\u6ee1-4-\u916e", "en_name": ["2,3-Dihydro-5,7-dihydroxy-3-[(4-hydroxyphenyl)methyl]-4H-1-benzopyran-4-one", "4H-1-Benzopyran-4-one, 2,3-dihydro-5,7-dihydroxy-3-[(4-hydroxyphenyl)methyl]-", "2,3-Dihydro-5,7-dihydroxy-3-[(4-hydroxyphenyl)methyl]-4H-1-benzopyran-4-one", "5,7-Dihydroxy-3-(4-hydroxybenzyl)chroman-4-one"], "SMILES": "O=C1C=2C(=CC(O)=CC2O)OCC1CC3=CC=C(O)C=C3", "physical_data": {"Molecular Weight": "286.28", "Molecular Formula": "C16H14O5", "Melting Point": "162-164 \u00b0C"}}