{"cas_no": "1075-35-0", "cn_name": "5-\u6c2f-2-\u7532\u57fa\u5432\u54da", "en_name": ["5-Chloro-2-methyl-1H-indole", "1H-Indole, 5-chloro-2-methyl-", "Indole, 5-chloro-2-methyl-", "5-Chloro-2-methyl-1H-indole", "5-Chloro-2-methylindole", "2-Methyl-5-chloroindole", "NSC 402577"], "SMILES": "CC=1NC=2C(C1)=CC(Cl)=CC2", "physical_data": {"Molecular Weight": "165.62", "Molecular Formula": "C9H8ClN", "Melting Point": "119 \u00b0C"}}