{"cas_no": "107667-60-7", "cn_name": "L-\u808c\u80bd\u950c", "en_name": ["Polaprezinc", "Zinc, [\u03b2-alanyl-\u03baN-L-histidinato(2-)-\u03baN,\u03baO]-", "Zinc, [N-\u03b2-alanyl-L-histidinato(2-)-N,NN,O\u03b1]-", "L-Histidine, N-\u03b2-alanyl-, zinc complex", "Z 103", "Zinc L-carnosine", "Polaprezinc", "\u03b2-Alanyl-L-histidinato zinc", "Promac", "Promac (antiulcer agent)"], "SMILES": "C(C1[N-]2[Zn+2]([O-]C1=O)[NH2]CCC2=O)C3=CN=CN3", "physical_data": {"Molecular Weight": "", "Molecular Formula": "C9H12N4O3Zn", "Melting Point": "&gt;300 \u00b0C"}}