{"cas_no": "1076-74-0", "cn_name": "5-\u7532\u6c27\u57fa-2-\u7532\u57fa\u5432\u54da", "en_name": ["5-Methoxy-2-methylindole", "1H-Indole, 5-methoxy-2-methyl-", "Indole, 5-methoxy-2-methyl-", "5-Methoxy-2-methyl-1H-indole", "2-Methyl-5-methoxyindole", "5-Methoxy-2-methylindole", "NSC 63817"], "SMILES": "CC=1NC=2C(=CC(OC)=CC2)C1", "physical_data": {"Molecular Weight": "161.20", "Molecular Formula": "C10H11NO", "Boiling Point": "140-145 \u00b0C @ Press: 0.9-1.5 Torr", "Melting Point": "89-90 \u00b0C"}}