{"cas_no": "1076-22-8", "cn_name": "3-\u7532\u57fa\u9ec4\u560c\u5464", "en_name": ["3-Methylxanthine", "1H-Purine-2,6-dione, 3,9-dihydro-3-methyl-", "Xanthine, 3-methyl-", "1H-Purine-2,6-dione, 3,7-dihydro-3-methyl-", "3,9-Dihydro-3-methyl-1H-purine-2,6-dione", "3-Methylxanthine", "3-Methyl-3,7-dihydro-1H-purine-2,6-dione", "NSC 515466", "3-Methyl-3,7-dihydropurine-2,6-dione", "3-Methyl-2,3,6,9-tetrahydro-1H-purine-2,6-dione", "3-Methyl-1H-purine-2,6(3H,7H)-dione", "3-Methyl-3,9-dihydro-purine-2,6-dione", "3-Methyl-7H-purine-2,6-dione", "3-Methyl-2,3,6,7-tetrahydro-1H-purine-2,6-dione"], "SMILES": "CN1C2=C(C(=O)NC1=O)NC=N2", "physical_data": {"Molecular Weight": "166.14", "Molecular Formula": "C6H6N4O2", "Melting Point": "&gt;300 \u00b0C"}}