{"cas_no": "1076-97-7", "cn_name": "1,4-\u73af\u5df1\u70f7\u4e8c\u7532\u9178", "en_name": ["1,4-Cyclohexanedicarboxylic acid", "1,4-Cyclohexanedicarboxylic acid", "1,4-Benzenedicarboxylic acid, hexahydro-", "Hexahydroterephthalic acid", "1,4-Dicarboxycyclohexane", "1,4-CHDA-HP", "Rikacid CHDA"], "SMILES": "C(O)(=O)C1CCC(C(O)=O)CC1", "physical_data": {"Molecular Weight": "172.18", "Molecular Formula": "C8H12O4", "Melting Point": "67 \u00b0C"}}