{"cas_no": "1076-38-6", "cn_name": "4-\u7f9f\u57fa\u9999\u8c46\u7d20", "en_name": ["4-Hydroxycoumarin", "2H-1-Benzopyran-2-one, 4-hydroxy-", "Coumarin, 4-hydroxy-", "4-Hydroxy-2H-1-benzopyran-2-one", "Benzotetronic acid", "4-Coumarinol", "4-Hydroxycoumarin", "4-Hydroxy-2H-benzo[b]pyran-2-one", "NSC 11889", "4-Hydroxychromen-2-one", "4-Hydroxycoumariin", "4-Hydroxy-2H-chromen-2-one", "4-Hydroxy-2H-benzopyran-2-one", "Naian"], "SMILES": "OC=1C=2C(OC(=O)C1)=CC=CC2", "physical_data": {"Molecular Weight": "162.14", "Molecular Formula": "C9H6O3", "Melting Point": "206 \u00b0C"}}