{"cas_no": "1076-59-1", "cn_name": "3-\u82ef\u57fa-5-\u5f02\u6076\u5511\u916e", "en_name": ["3-Phenyl-5(4H)-isoxazolone", "5(4H)-Isoxazolone, 3-phenyl-", "2-Isoxazolin-5-one, 3-phenyl-", "3-Phenyl-5(4H)-isoxazolone", "3-Phenyl-2-isoxazolin-5-one", "3-Phenyl-\u03942-5-isoxazolinone", "3-Phenyl-5-isoxazolone", "4,5-Dihydro-3-phenyl-5-isoxazolone", "NSC 33592", "NSC 54827", "NSC 60969", "3-Phenyl-4,5-dihydroisoxazol-5-one", "3-Phenyl-4H-1,2-oxazol-5-one", "3-Phenyl-4,5-dihydro-1,2-oxazol-5-one"], "SMILES": "O=C1CC(=NO1)C2=CC=CC=C2", "physical_data": {"Molecular Weight": "161.16", "Molecular Formula": "C9H7NO2", "Melting Point": "151-152 \u00b0C"}}