{"cas_no": "1076-43-3", "cn_name": "\u6c18\u4ee3\u82ef", "en_name": ["Benzene-d6", "Benzene-1,2,3,4,5,6-d6", "Benzene-d6", "Hexadeuterobenzene", "Perdeuterobenzene", "Perdeuteriobenzene", "Hexadeuteriobenzene", "Deuterobenzene", "Perdeuterated benzene"], "SMILES": "C=1(C=CC=CC1)[2H]", "physical_data": {"Molecular Weight": "", "Molecular Formula": "C6D6", "Boiling Point": "82.5 \u00b0C", "Melting Point": "-1 \u00b0C", "Density": "0.954 g/cm\u00b3 @ Temp: 17 \u00b0C"}}