{"cas_no": "107623-21-2", "cn_name": "1-\u82c4\u6c27\u57fa-3-\u7898\u82ef,", "en_name": ["1-Iodo-3-(phenylmethoxy)benzene", "Benzene, 1-iodo-3-(phenylmethoxy)-", "Ether, benzyl m-iodophenyl", "1-Iodo-3-(phenylmethoxy)benzene", "3-(Benzyloxy)iodobenzene", "3-Benzyloxy-1-iodobenzene", "Benzyl 3-iodophenyl ether", "3-Iodo-1-(benzyloxy)benzene", "1-Benzyloxy-3-iodobenzene"], "SMILES": "O(CC1=CC=CC=C1)C2=CC(I)=CC=C2", "physical_data": {"Molecular Weight": "310.13", "Molecular Formula": "C13H11IO", "Melting Point": "51.5-52.5 \u00b0C"}}