{"cas_no": "107650-22-6", "cn_name": "6-\u6eb4-4-\u5432\u54da\u7532\u9178\u7532\u916f", "en_name": ["1H-Indole-4-carboxylic acid, 6-bromo-, methyl ester", "1H-Indole-4-carboxylic acid, 6-bromo-, methyl ester", "Methyl 6-bromoindole-4-carboxylate", "Methyl 6-bromo-1H-indole-4-carboxylate"], "SMILES": "C(OC)(=O)C1=C2C(=CC(Br)=C1)NC=C2", "physical_data": {"Molecular Weight": "254.08", "Molecular Formula": "C10H8BrNO2", "Melting Point": "80-81 \u00b0C"}}