{"cas_no": "1076-56-8", "cn_name": "2-\u5f02\u4e19\u57fa-5-\u7532\u57fa\u8334\u9999\u919a", "en_name": ["Thymol methyl ether", "Benzene, 2-methoxy-4-methyl-1-(1-methylethyl)-", "Anisole, 2-isopropyl-5-methyl-", "2-Methoxy-4-methyl-1-(1-methylethyl)benzene", "Thymol methyl ether", "Thymyl methyl ether", "Methyl thymyl ether", "3-Methoxy-p-cymene", "4-Isopropyl-3-methoxytoluene", "2-Isopropyl-5-methylanisole", "O-Methylthymol", "Methyl thymol ether", "1-Isopropyl-2-methoxy-4-methylbenzene", "NSC 404221", "1-Methyl-3-methoxy-4-isopropylbenzene", "2-Methoxy-4-methyl-1-(propan-2-yl)benzene"], "SMILES": "O(C)C1=C(C(C)C)C=CC(C)=C1", "physical_data": {"Molecular Weight": "164.24", "Molecular Formula": "C11H16O", "Boiling Point": "210-212 \u00b0C", "Density": "0.9518 g/cm\u00b3 @ Temp: 0 \u00b0C"}}