{"cas_no": "1077-28-7", "cn_name": "\u786b\u8f9b\u9178", "en_name": ["(\u00b1)-Lipoic acid", "1,2-Dithiolane-3-pentanoic acid", "1,2-Dithiolane-3-valeric acid, (\u00b1)-", "1,2-Dithiolane-3-pentanoic acid, (\u00b1)-", "dl-Thioctic acid", "DL-\u03b1-Lipoic acid", "DL-6-Thioctic acid", "DL-6,8-Thioctic acid", "(\u00b1)-Thioctic acid", "(\u00b1)-\u03b1-Lipoic acid", "DL-Thioctic acid", "(RS)-Lipoic acid", "(RS)-\u03b1-Lipoic acid", "5-(1,2-Dithiolan-3-yl)pentanoic acid", "5-(1,2-Dithiolan-3-yl)valeric acid", "Protogen A", "Pyruvate oxidation factor", "Thioctacid", "Thioctic acid", "6,8-Thioctic acid", "Tioctidasi", "Tioctidasi acetate replacing factor", "1,2-Dithiolane-3-valeric acid", "6-Thioctic acid", "\u03b1-Liponic acid", "Tioctacid", "Biletan", "Thioctsan", "Liposan", "Lipothion", "(\u00b1)-Lipoic acid", "NSC 628502", "dl-Lipoic acid", "NSC 90788", "Alipure", "Espa-lipon", "Thiotacid", "dl-\u03b1-Lipoic acid", "\u03b1-lipon 300", "\u03b1-(\u00b1)-Lipoic acid", "DL-Lipoic acid", "Byodinoral-R", "Octolipen", "Oktolipen"], "SMILES": "C(CCCC(O)=O)C1CCSS1", "physical_data": {"Molecular Weight": "206.33", "Molecular Formula": "C8H14O2S2", "Boiling Point": "160-165 \u00b0C", "Melting Point": "60-61 \u00b0C"}}