{"cas_no": "1077-16-3", "cn_name": "\u5df1\u57fa\u82ef", "en_name": ["Hexylbenzene", "Benzene, hexyl-", "Hexane, 1-phenyl-", "Hexylbenzene", "n-Hexylbenzene", "1-Phenylhexane", "NSC 86141", "6-Phenylhexane"], "SMILES": "C(CCCCC)C1=CC=CC=C1", "physical_data": {"Molecular Weight": "162.27", "Molecular Formula": "C12H18", "Boiling Point": "226.1 \u00b0C", "Melting Point": "-61 \u00b0C", "Density": "0.852 g/cm\u00b3 @ Temp: 19 \u00b0C"}}