{"cas_no": "107753-78-6", "cn_name": "\u624e\u9c81\u53f8\u7279", "en_name": ["Zafirlukast", "Carbamic acid, N-[3-[[2-methoxy-4-[[[(2-methylphenyl)sulfonyl]amino]carbonyl]phenyl]methyl]-1-methyl-1H-indol-5-yl]-, cyclopentyl ester", "Carbamic acid, [3-[[2-methoxy-4-[[[(2-methylphenyl)sulfonyl]amino]carbonyl]phenyl]methyl]-1-methyl-1H-indol-5-yl]-, cyclopentyl ester", "ICI 204219", "Cyclopentyl 3-[2-methoxy-4-[(o-tolylsulfonyl)carbamoyl]benzyl]-1-methylindole-5-carbamate", "Zafirlukast", "Accolate", "Vanticon", "S 1633", "[3-[2-Methoxy-4-(toluene-2-sulfonylaminocarbonyl)-benzyl]-1-methyl-1H-indol-5-yl]-carbamic acid cyclopentyl ester"], "SMILES": "C(C=1C=2C(N(C)C1)=CC=C(NC(OC3CCCC3)=O)C2)C4=C(OC)C=C(C(NS(=O)(=O)C5=C(C)C=CC=C5)=O)C=C4", "physical_data": {"Molecular Weight": "575.68", "Molecular Formula": "C31H33N3O6S", "Melting Point": "138-140 \u00b0C"}}