{"cas_no": "1077-96-9", "cn_name": "5-\u6c1f\u5432\u5511-3-\u7fa7\u9178", "en_name": ["5-Fluoro-1H-indazole-3-carboxylic acid", "1H-Indazole-3-carboxylic acid, 5-fluoro-", "5-Fluoro-1H-indazole-3-carboxylic acid", "5-Fluoroindazole-3-carboxylic acid"], "SMILES": "C(O)(=O)C=1C=2C(NN1)=CC=C(F)C2", "physical_data": {"Molecular Weight": "180.14", "Molecular Formula": "C8H5FN2O2", "Melting Point": "299 \u00b0C"}}