{"cas_no": "107724-20-9", "cn_name": "\u4f9d\u666e\u5229\u916e", "en_name": ["(+)-Eplerenone", "Pregn-4-ene-7,21-dicarboxylic acid, 9,11-epoxy-17-hydroxy-3-oxo-, \u03b3-lactone, 7-methyl ester, (7\u03b1,11\u03b1,17\u03b1)-", "Pregn-4-ene-7,21-dicarboxylic acid, 9,11-epoxy-17-hydroxy-3-oxo-, \u03b3-lactone, methyl ester, (7\u03b1,11\u03b1,17\u03b1)-", "Spiro[9,11-epoxy-9H-cyclopenta[a]phenanthrene-17(2H),2\u2032(3\u2032H)-furan], pregn-4-ene-7,21-dicarboxylic acid deriv.", "CGP 30083", "SC 66110", "Eplerenone", "SC 6110", "Epoxymexrenone", "Inspra", "Selara", "(+)-Eplerenone", "Methyl (1R,2S,9R,10R,11S,14R,15S,17R)-2,15-dimethyl-5,5\u2032-dioxospiro[18-oxapentacyclo[8.8.0.01,17.02,7.011,15]octadec-6-ene-14,2\u2032-oxolane]-9-carboxylate"], "SMILES": "CC12C34C(C5C(C)(CC3O4)C6(CC5)CCC(=O)O6)C(C(OC)=O)CC1=CC(=O)CC2", "physical_data": {"Molecular Weight": "414.49", "Molecular Formula": "C24H30O6", "Melting Point": "242-244 \u00b0C"}}