{"cas_no": "1077-93-6", "cn_name": "\u7279\u785d\u5511", "en_name": ["Ternidazole", "1H-Imidazole-1-propanol, 2-methyl-5-nitro-", "Imidazole-1-propanol, 2-methyl-5-nitro-", "2-Methyl-5-nitro-1H-imidazole-1-propanol", "1-(3-Hydroxypropyl)-2-methyl-5-nitroimidazole", "Ternidazole", "2-Methyl-5-nitroimidazole-1-propanol", "1-(3-Hydroxypropyl)-2-methyl-5-nitro-1H-imidazole"], "SMILES": "C(CCO)N1C(N(=O)=O)=CN=C1C", "physical_data": {"Molecular Weight": "185.18", "Molecular Formula": "C7H11N3O3", "Melting Point": "130 \u00b0C"}}