{"cas_no": "1077-27-6", "cn_name": "5-[(3S)-\u4e8c\u786b\u73af\u620a-3-\u57fa]\u620a\u9178", "en_name": ["(S)-Thioctic acid", "1,2-Dithiolane-3-pentanoic acid, (3S)-", "1,2-Dithiolane-3-pentanoic acid, (S)-", "(3S)-1,2-Dithiolane-3-pentanoic acid", "l-Thioctic acid", "(-)-Thioctic acid", "(S)-Thioctic acid", "S-(-)-\u03b1-Lipoic acid", "(S)-Lipoic acid", "(S)-(-)-Lipoic acid", "1,2-Dithiolane-3-pentanoic acid (3S)-"], "SMILES": "C(CCCC(O)=O)C1CCSS1", "physical_data": {"Molecular Weight": "206.33", "Molecular Formula": "C8H14O2S2", "Melting Point": "45-47.5 \u00b0C"}}