{"cas_no": "107761-24-0", "cn_name": "\u0391-\u6c30\u57fa-(3-\u4e59\u6c27\u57fa-4-\u7f9f\u57fa-5-\u82ef\u57fa\u786b\u4ee3\u7532\u57fa)\u8089\u6842\u9170\u80fa", "en_name": ["2-Cyano-3-[3-ethoxy-4-hydroxy-5-[(phenylthio)methyl]phenyl]-2-propenamide", "2-Propenamide, 2-cyano-3-[3-ethoxy-4-hydroxy-5-[(phenylthio)methyl]phenyl]-", "2-Cyano-3-[3-ethoxy-4-hydroxy-5-[(phenylthio)methyl]phenyl]-2-propenamide", "ST 638", "ST 638 (pharmaceutical)"], "SMILES": "C(=C(C(N)=O)C#N)C1=CC(CSC2=CC=CC=C2)=C(O)C(OCC)=C1", "physical_data": {"Molecular Weight": "354.42", "Molecular Formula": "C19H18N2O3S", "Melting Point": "157-161 \u00b0C"}}