{"cas_no": "1078-61-1", "cn_name": "\u4e8c\u6c22\u5496\u5561\u9178", "en_name": ["Dihydrocaffeic acid", "Benzenepropanoic acid, 3,4-dihydroxy-", "Hydrocinnamic acid, 3,4-dihydroxy-", "3,4-Dihydroxybenzenepropanoic acid", "Hydrocaffeic acid", "3,4-Dihydroxy-\u03b2-phenylpropionic acid", "3,4-Dihydroxyphenylpropionic acid", "3-(3,4-Dihydroxyphenyl)propionic acid", "3,4-Dihydroxyhydrocinnamic acid", "Dihydrocaffeic acid", "3,4-Dihydroxybenzenepropionic acid", "3,4-Dihydroxydihydrocinnamic acid", "3-(3,4-Dihydroxyphenyl)propanoic acid", "NSC 407275", "NSC 624007", "STBB 8922V", "DHC"], "SMILES": "C(CC(O)=O)C1=CC(O)=C(O)C=C1", "physical_data": {"Molecular Weight": "182.17", "Molecular Formula": "C9H10O4", "Melting Point": "139 \u00b0C"}}