{"cas_no": "1078-71-3", "cn_name": "\u5e9a\u57fa\u82ef", "en_name": ["Heptylbenzene", "Benzene, heptyl-", "Heptane, 1-phenyl-", "Heptylbenzene", "n-Heptylbenzene", "Heptane, 1(or 7)-phenyl-", "1-Phenylheptane", "1-Heptylbenzene", "NSC 97413"], "SMILES": "C(CCCCCC)C1=CC=CC=C1", "physical_data": {"Molecular Weight": "176.30", "Molecular Formula": "C13H20", "Boiling Point": "240 \u00b0C", "Melting Point": "-48 \u00b0C", "Density": "0.8570 g/cm\u00b3 @ Temp: 20 \u00b0C"}}