{"cas_no": "1078-19-9", "cn_name": "6-\u7532\u6c27\u57fa-1-\u8418\u6ee1\u916e", "en_name": ["6-Methoxy-1-tetralone", "1(2H)-Naphthalenone, 3,4-dihydro-6-methoxy-", "3,4-Dihydro-6-methoxy-1(2H)-naphthalenone", "6-Methoxy-1-tetralone", "6-Methoxy-1-oxo-1,2,3,4-tetrahydronaphthalene", "6-Methoxy-\u03b1-tetralone", "1,2,3,4-Tetrahydro-6-methoxy-1-naphthalenone", "1-Oxo-1,2,3,4-tetrahydro-6-methoxynaphthalene", "6-Methoxy-3,4-dihydro-1(2H)-naphthalenone", "NSC 41700", "6-Methoxy-3,4-dihydro-2H-naphthalen-1-one", "6-Methoxy-3,4-dihydronaphthalene-1(2H)-one", "6-Methoxy-1,2,3,4-tetrahydronaphthalen-1-one"], "SMILES": "O=C1C=2C(=CC(OC)=CC2)CCC1", "physical_data": {"Molecular Weight": "176.21", "Molecular Formula": "C11H12O2", "Boiling Point": "135-139 \u00b0C @ Press: 1 Torr", "Melting Point": "78 \u00b0C"}}