{"cas_no": "1078-58-6", "cn_name": "\u4e8c\u82ef\u57fa\u950c", "en_name": ["Diphenylzinc", "Zinc, diphenyl-", "Diphenylzinc"], "SMILES": "[Zn](C1=CC=CC=C1)C2=CC=CC=C2", "physical_data": {"Molecular Weight": "", "Molecular Formula": "C12H10Zn", "Boiling Point": "280-285 \u00b0C", "Melting Point": "105-106 \u00b0C"}}