{"cas_no": "1078-28-0", "cn_name": "6-\u7532\u6c27\u57fa-2-\u7532\u57fa\u55b9\u5549", "en_name": ["6-Methoxy-2-methylquinoline", "Quinoline, 6-methoxy-2-methyl-", "Quinaldine, 6-methoxy-", "6-Methoxy-2-methylquinoline", "6-Methoxyquinaldine", "2-Methyl-6-methoxyquinoline", "NSC 15557"], "SMILES": "O(C)C1=CC2=C(N=C(C)C=C2)C=C1", "physical_data": {"Molecular Weight": "173.21", "Molecular Formula": "C11H11NO", "Boiling Point": "138-139 \u00b0C @ Press: 5 Torr", "Melting Point": "64-65 \u00b0C"}}