{"cas_no": "1078-96-2", "cn_name": "(3-\u6c30\u4e19\u57fa)\u82ef\u57fa\u4e8c\u6c2f\u7845\u70f7", "en_name": ["4-(Dichlorophenylsilyl)butanenitrile", "Butanenitrile, 4-(dichlorophenylsilyl)-", "Butyronitrile, 4-(dichlorophenylsilyl)-", "4-(Dichlorophenylsilyl)butanenitrile", "\u03b3-Cyanopropylphenyldichlorosilane", "3-Cyanopropylphenyldichlorosilane"], "SMILES": "[Si](CCCC#N)(Cl)(Cl)C1=CC=CC=C1", "physical_data": {"Molecular Weight": "244.19", "Molecular Formula": "C10H11Cl2NSi", "Boiling Point": "145-148 \u00b0C @ Press: 2 Torr", "Density": "1.190 g/cm\u00b3 @ Temp: 25 \u00b0C"}}