{"cas_no": "1078-21-3", "cn_name": "\u83f2\u5c3c\u5e03\u7279", "en_name": ["Phenibut", "Benzenepropanoic acid, \u03b2-(aminomethyl)-", "Hydrocinnamic acid, \u03b2-(aminomethyl)-", "\u03b2-(Aminomethyl)benzenepropanoic acid", "Phenigam", "Phenygam", "\u03b2-Phenyl-\u03b3-aminobutyric acid", "4-Amino-3-phenylbutyric acid", "\u03b3-Amino-\u03b2-phenylbutyric acid", "Fenibut", "Phenybut", "\u03b2-Phenyl-GABA", "Fenigam", "Fenigama", "PhGABA", "Phenibut", "P-GABA", "DL-\u03b2-Phenyl-\u03b3-aminobutyric acid", "DL-4-Amino-3-phenylbutanoic acid", "(\u00b1)-\u03b2-Phenyl-GABA", "(\u00b1)-Fenibut", "3-Phenyl-4-aminobutanoic acid", "Anvifen", "4-Amino-3-phenylbutanoic acid"], "SMILES": "C(CC(O)=O)(CN)C1=CC=CC=C1", "physical_data": {"Molecular Weight": "179.22", "Molecular Formula": "C10H13NO2", "Melting Point": "253 \u00b0C (decomp)"}}