{"cas_no": "107868-30-4", "cn_name": "\u4f9d\u897f\u7f8e\u5766", "en_name": ["Exemestane", "Androsta-1,4-diene-3,17-dione, 6-methylene-", "6-Methyleneandrosta-1,4-diene-3,17-dione", "FCE 24304", "Exemestane", "Aromasin", "Aromasil"], "SMILES": "CC12C3C(C4C(C)(CC3)C(=O)CC4)CC(=C)C1=CC(=O)C=C2", "physical_data": {"Molecular Weight": "296.40", "Molecular Formula": "C20H24O2", "Melting Point": "196-197.7 \u00b0C"}}