{"cas_no": "1078-97-3", "cn_name": "1,4-\u53cc(\u4e8c\u7532\u57fa\u6c2f\u7532\u7845\u70f7\u57fa)\u82ef", "en_name": ["1,4-Bis(chlorodimethylsilyl)benzene", "Benzene, 1,4-bis(chlorodimethylsilyl)-", "Silane, p-phenylenebis[chlorodimethyl-", "Silane, 1,4-phenylenebis[chlorodimethyl-", "1,4-Bis(chlorodimethylsilyl)benzene", "p-Bis(dimethylchlorosilyl)benzene", "1,4-Bis(dimethylchlorosilyl)benzene", "p-Phenylenebis[chlorodimethylsilane]"], "SMILES": "[Si](C)(C)(Cl)C1=CC=C([Si](C)(C)Cl)C=C1", "physical_data": {"Molecular Weight": "263.31", "Molecular Formula": "C10H16Cl2Si2", "Boiling Point": "200-208 \u00b0C @ Press: 6 Torr", "Density": "1.2259 g/cm\u00b3 @ Temp: 20 \u00b0C"}}