{"cas_no": "1078-31-5", "cn_name": "2-(\u4e09\u7532\u57fa\u7845\u6c27\u57fa)\u82ef\u7532\u919b", "en_name": ["2-[(Trimethylsilyl)oxy]benzaldehyde", "Benzaldehyde, 2-[(trimethylsilyl)oxy]-", "Benzaldehyde, o-(trimethylsiloxy)-", "2-[(Trimethylsilyl)oxy]benzaldehyde", "2-(Trimethylsilyloxy)benzaldehyde", "2-(Trimethylsiloxy)benzaldehyde", "o-(Trimethylsiloxy)benzaldehyde", "2-Trimethylsilanyloxy-benzaldehyde"], "SMILES": "O([Si](C)(C)C)C1=C(C=O)C=CC=C1", "physical_data": {"Molecular Weight": "194.30", "Molecular Formula": "C10H14O2Si", "Boiling Point": "142 \u00b0C @ Press: 25 Torr", "Density": "1.013 g/cm\u00b3"}}