{"cas_no": "1079-46-5", "cn_name": "5-\u6c2f-1H-\u5432\u5511-3-\u7532\u9178\u7532\u916f", "en_name": ["1H-Indazole-3-carboxylic acid, 5-chloro-, methyl ester", "1H-Indazole-3-carboxylic acid, 5-chloro-, methyl ester", "Methyl 5-chloro-1H-indazole-3-carboxylate"], "SMILES": "C(OC)(=O)C=1C=2C(NN1)=CC=C(Cl)C2", "physical_data": {"Molecular Weight": "210.62", "Molecular Formula": "C9H7ClN2O2", "Melting Point": "207 \u00b0C"}}