{"cas_no": "1079-66-9", "cn_name": "\u4e8c\u82ef\u57fa\u6c2f\u5316\u81a6", "en_name": ["Chlorodiphenylphosphine", "Phosphinous chloride, P,P-diphenyl-", "Phosphinous chloride, diphenyl-", "P,P-Diphenylphosphinous chloride", "Chlorodiphenylphosphine", "Diphenylphosphinous chloride", "Diphenylchlorophosphine", "Phosphine, chlorodiphenyl-", "Diphenylphosphine chloride", "Diphenylphosphorus chloride", "NSC 60407"], "SMILES": "P(Cl)(C1=CC=CC=C1)C2=CC=CC=C2", "physical_data": {"Molecular Weight": "220.63", "Molecular Formula": "C12H10ClP", "Boiling Point": "100-102 \u00b0C @ Press: 1 Torr", "Melting Point": "15-16 \u00b0C", "Density": "1.19 g/cm\u00b3"}}