{"cas_no": "1079-02-3", "cn_name": "\u6c18\u4ee3\u82ef\u7532\u9178", "en_name": ["Benzoic-2,3,4,5,6-d5 acid", "Benzoic-2,3,4,5,6-d5 acid", "Benzoic-d5 acid", "Benzoic acid-d5", "Pentadeuteriobenzoic acid", "2,3,4,5,6-Pentadeuteriobenzoic acid"], "SMILES": "C(O)(=O)C1=C(C=CC=C1)[2H]", "physical_data": {"Molecular Weight": "", "Molecular Formula": "C7HD5O2", "Melting Point": "122 \u00b0C"}}