{"cas_no": "1079-21-6", "cn_name": "2,5-\u4e8c\u7f9f\u57fa\u8054\u82ef", "en_name": ["Phenylhydroquinone", "[1,1\u2032-Biphenyl]-2,5-diol", "2,5-Biphenyldiol", "Hydroquinone, phenyl-", "2,5-Dihydroxybiphenyl", "Phenylhydroquinone", "1,4-Benzenediol, phenyl-", "2-Phenylhydroquinone", "2-Phenyl-1,4-benzenediol", "2-Phenyl-1,4-dihydroxybenzene", "2-Phenyl-1,4-hydroquinone", "1,4-Dihydroxy-2-phenylbenzene", "Phenyl-p-hydroquinone", "NSC 407988", "2-Phenyl-4-hydroxyphenol"], "SMILES": "OC1=C(C=C(O)C=C1)C2=CC=CC=C2", "physical_data": {"Molecular Weight": "186.21", "Molecular Formula": "C12H10O2", "Melting Point": "97 \u00b0C"}}