{"cas_no": "1079-17-0", "cn_name": "\u0391,\u0391',2,3,5,6-\u516d\u6c2f\u5bf9\u4e8c\u7532\u82ef", "en_name": ["1,2,4,5-Tetrachloro-3,6-bis(chloromethyl)benzene", "Benzene, 1,2,4,5-tetrachloro-3,6-bis(chloromethyl)-", "p-Xylene, \u03b1,\u03b1\u2032,2,3,5,6-hexachloro-", "1,2,4,5-Tetrachloro-3,6-bis(chloromethyl)benzene", "Tetrachloro-p-xylene dichloride", "\u03b1,\u03b1\u2032,2,3,5,6-Hexachloro-p-xylene", "p-Tetrachloroxylylene dichloride", "1,4-Bis(chloromethyl)tetrachlorobenzene", "NSC 74461", "2,3,5,6-Tetrachloro-p-xylylene dichloride"], "SMILES": "C(Cl)C1=C(Cl)C(Cl)=C(CCl)C(Cl)=C1Cl", "physical_data": {"Molecular Weight": "312.84", "Molecular Formula": "C8H4Cl6", "Melting Point": "174.5-175.0 \u00b0C", "Density": "1.88 g/cm\u00b3"}}