{"cas_no": "1079-47-6", "cn_name": "5-\u7898-\u5432\u5511-3-\u7fa7\u9178\u7532\u916f", "en_name": ["1H-Indazole-3-carboxylic acid, 5-iodo-, methyl ester", "1H-Indazole-3-carboxylic acid, 5-iodo-, methyl ester", "Methyl 5-iodo-1H-indazole-3-carboxylate"], "SMILES": "C(OC)(=O)C=1C=2C(NN1)=CC=C(I)C2", "physical_data": {"Molecular Weight": "302.07", "Molecular Formula": "C9H7IN2O2", "Melting Point": "264 \u00b0C"}}