{"cas_no": "108-26-9", "cn_name": "3-\u7532\u57fa-2-\u5421\u5511\u5549-5-\u916e", "en_name": ["3-Methyl-2-pyrazolin-5-one", "3H-Pyrazol-3-one, 2,4-dihydro-5-methyl-", "2-Pyrazolin-5-one, 3-methyl-", "2,4-Dihydro-5-methyl-3H-pyrazol-3-one", "3-Methyl-2-pyrazolin-5-one", "3-Methyl-\u03942-pyrazol-5-one", "3-Methyl-5-oxo-2-pyrazoline", "3-Methyl-1H-4,5-dihydropyrazol-5-one", "3-Methyl-1H-pyrazolin-5-one", "3-Methyl-1H-pyrazol-5(4H)-one", "3-Methyl-4H-pyrazole-5-one", "1H-3-Methylpyrazol-5-one", "3-Methyl-1,4-dihydro-5-pyrazolone", "3-Methyl-4,5-dihydro-1H-pyrazol-5-one", "3-Methyl-1,4-dihydropyrazol-5-one"], "SMILES": "CC=1CC(=O)NN1", "physical_data": {"Molecular Weight": "98.10", "Molecular Formula": "C4H6N2O", "Melting Point": "220 \u00b0C"}}