{"cas_no": "108-86-1", "cn_name": "\u6eb4\u82ef", "en_name": ["Bromobenzene", "Benzene, bromo-", "Bromobenzene", "Monobromobenzene", "Phenyl bromide", "NSC 6529", "1-Bromobenzene", "Bromobenzol", "Bromobenzene dimer"], "SMILES": "BrC1=CC=CC=C1", "physical_data": {"Molecular Weight": "157.01", "Molecular Formula": "C6H5Br", "Boiling Point": "156.2 \u00b0C @ Press: 760 Torr", "Melting Point": "-30.7 \u00b0C", "Density": "1.5 g/cm\u00b3"}}