{"cas_no": "108-38-3", "cn_name": "\u95f4\u4e8c\u7532\u82ef", "en_name": ["m-Xylene", "Benzene, 1,3-dimethyl-", "m-Xylene", "1,3-Dimethylbenzene", "m-Dimethylbenzene", "1,3-Xylene", "m-Methyltoluene", "m-Xylol", "NSC 61769", "3-Methyltoluene"], "SMILES": "CC1=CC(C)=CC=C1", "physical_data": {"Molecular Weight": "106.17", "Molecular Formula": "C8H10", "Boiling Point": "139.3 \u00b0C", "Melting Point": "-47.4 \u00b0C", "Density": "0.8684 g/cm\u00b3 @ Temp: 15 \u00b0C"}}