{"cas_no": "108-89-4", "cn_name": "4-\u7532\u57fa\u5421\u5576", "en_name": ["4-Methylpyridine", "Pyridine, 4-methyl-", "4-Picoline", "4-Methylpyridine", "\u03b3-Picoline", "Ba 35846", "p-Methylpyridine", "p-Picoline", "\u03b3-Methylpyridine", "NSC 18252"], "SMILES": "CC=1C=CN=CC1", "physical_data": {"Molecular Weight": "93.13", "Molecular Formula": "C6H7N", "Boiling Point": "145 \u00b0C @ Press: 760 Torr", "Melting Point": "3.66 \u00b0C", "Density": "0.9548 g/cm\u00b3 @ Temp: 20 \u00b0C"}}