{"cas_no": "108-73-6", "cn_name": "\u95f4\u82ef\u4e09\u915a", "en_name": ["Phloroglucinol", "1,3,5-Benzenetriol", "Phloroglucinol", "Benzene-s-triol", "Phloroglucin", "sym-Trihydroxybenzene", "1,3,5-Trihydroxybenzene", "Phloroglucine", "Dilospan S", "Spasfon-Lyoc", "NSC 1572", "3,5-Dihydroxyphenol", "2,4,6-Benzenetriol", "MeSH ID: D010696"], "SMILES": "OC1=CC(O)=CC(O)=C1", "physical_data": {"Molecular Weight": "126.11", "Molecular Formula": "C6H6O3", "Melting Point": "218.5 \u00b0C"}}