{"cas_no": "108-83-8", "cn_name": "\u4e8c\u5f02\u4e01\u57fa\u916e", "en_name": ["Isobutyl ketone", "4-Heptanone, 2,6-dimethyl-", "2,6-Dimethyl-4-heptanone", "DIBK", "Diisobutyl ketone", "s-Diisopropylacetone", "Isobutyl ketone", "Isovalerone", "DIBC", "NSC 15136", "NSC 406913"], "SMILES": "C(C(CC(C)C)=O)C(C)C", "physical_data": {"Molecular Weight": "142.24", "Molecular Formula": "C9H18O", "Boiling Point": "168 \u00b0C", "Melting Point": "-41.5 \u00b0C", "Density": "0.8062 g/cm\u00b3 @ Temp: 20 \u00b0C"}}