{"cas_no": "108-93-0", "cn_name": "\u73af\u5df1\u9187", "en_name": ["Cyclohexanol", "Cyclohexanol", "Adronal", "Anol", "Cyclohexyl alcohol", "Hexahydrophenol", "Hexalin", "Hydroxycyclohexane", "Naxol", "Phenol, hexahydro-", "Adronol", "Hexalin (alcohol)", "1-Cyclohexanol", "NSC 403656", "NSC 54711"], "SMILES": "OC1CCCCC1", "physical_data": {"Molecular Weight": "100.16", "Molecular Formula": "C6H12O", "Boiling Point": "161.08 \u00b0C @ Press: 760 Torr", "Melting Point": "25.4 \u00b0C", "Density": "0.9624 g/cm\u00b3 @ Temp: 20 \u00b0C"}}