{"cas_no": "108-40-7", "cn_name": "3-\u7532\u57fa\u82ef\u786b\u915a", "en_name": ["3-Methylbenzenethiol", "Benzenethiol, 3-methyl-", "m-Toluenethiol", "3-Methylbenzenethiol", "m-Thiocresol", "m-Tolyl mercaptan", "m-Methylbenzenethiol", "m-Methylthiophenol", "3-Methylthiophenol", "m-Mercaptotoluene", "(3-Methylphenyl)thiol", "3-Methylphenyl mercaptan", "m-Tolylthiol", "3-Mercaptotoluene", "NSC 81219", "3-Methylbenzene-1-thiol"], "SMILES": "CC1=CC(S)=CC=C1", "physical_data": {"Molecular Weight": "124.20", "Molecular Formula": "C7H8S", "Boiling Point": "195 \u00b0C", "Melting Point": "&lt;-20 \u00b0C", "Density": "1.044 g/cm\u00b3 @ Temp: 20 \u00b0C"}}