{"cas_no": "108-28-1", "cn_name": "\u539f\u767d\u5934\u7fc1\u7d20", "en_name": ["Protoanemonin", "2(5H)-Furanone, 5-methylene-", "Protoanemonin", "2,4-Pentadienoic acid, 4-hydroxy-, \u03b3-lactone", "5-Methylene-2(5H)-furanone", "5-Methylene-2-oxodihydrofuran", "5-Methylene-2,5-dihydrofuran-2-one", "Isomycin", "4-Hydroxy-2,4-pentadienoic acid lactone", "4-Hydroxy-2,4-pentadienoic acid \u03b3-lactone", "2,4-Pentadien-4-olide", "Protoanemonene", "\u03b3-Methylenebutenolide"], "SMILES": "C=C1OC(=O)C=C1", "physical_data": {"Molecular Weight": "96.08", "Molecular Formula": "C5H4O2", "Boiling Point": "45 \u00b0C", "Melting Point": "&lt;25 \u00b0C"}}