{"cas_no": "108-53-2", "cn_name": "\u5f02\u80de\u5627\u5576", "en_name": ["Isocytosine", "4(1H)-Pyrimidinone, 2-amino-", "Isocytosine", "2-Amino-4(1H)-pyrimidinone", "2-Amino-4-pyrimidone", "2-Amino-4-pyrimidinol", "2-Amino-4-hydroxypyrimidine", "2-Aminouracil", "NSC 49118", "2-Aminopyrimidin-4(3H)-one", "2-Amino-3,4-dihydropyrimidin-4-one", "2-Amino-6-hydroxypyrimidine", "2-Amino-1H-pyrimidin-4-one", "2-Amino-1,4-dihydropyrimidin-4-one", "2-Amino-1H-pyrimidin-6-one"], "SMILES": "O=C1NC(N)=NC=C1", "physical_data": {"Molecular Weight": "111.10", "Molecular Formula": "C4H5N3O", "Melting Point": "264 \u00b0C"}}