{"cas_no": "108-37-2", "cn_name": "\u95f4\u6c2f\u6eb4\u82ef", "en_name": ["1-Bromo-3-chlorobenzene", "Benzene, 1-bromo-3-chloro-", "1-Bromo-3-chlorobenzene", "m-Chlorobromobenzene", "1-Chloro-3-bromobenzene", "m-Bromochlorobenzene", "3-Bromochlorobenzene", "3-Chlorobromobenzene", "m-Chlorophenyl bromide", "3-Chlorophenyl bromide", "m-Bromophenyl chloride", "3-Bromo-1-chlorobenzene", "m-Bromochlorobenzene", "NSC 53548", "3-Chloro-1-bromobenzene", "3-Bromophenyl chloride"], "SMILES": "BrC1=CC(Cl)=CC=C1", "physical_data": {"Molecular Weight": "191.45", "Molecular Formula": "C6H4BrCl", "Boiling Point": "196 \u00b0C", "Melting Point": "-21.5 \u00b0C", "Density": "1.63844 g/cm\u00b3 @ Temp: 15.00 \u00b0C"}}