{"cas_no": "108-62-3", "cn_name": "\u56db\u805a\u4e59\u919b", "en_name": ["Metaldehyde", "1,3,5,7-Tetroxocane, 2,4,6,8-tetramethyl-", "Metaldehyde", "2,4,6,8-Tetramethyl-1,3,5,7-tetroxocane", "Acetaldehyde, tetramer", "Slugfest", "2,4,6,8-Tetramethyl-1,3,5,7-tetraoxacyclooctane", "2,4,6,8-Tetramethyl-1,3,5,7-tetraoxocane"], "SMILES": "CC1OC(C)OC(C)OC(C)O1", "physical_data": {"Molecular Weight": "176.21", "Molecular Formula": "C8H16O4", "Melting Point": "246 \u00b0C"}}