{"cas_no": "108-29-2", "cn_name": "\u03b3-\u620a\u5185\u916f", "en_name": ["\u03b3-Valerolactone", "2(3H)-Furanone, dihydro-5-methyl-", "Valeric acid, 4-hydroxy-, \u03b3-lactone", "Valeric acid, \u03b3-hydroxy-, lactone", "Dihydro-5-methyl-2(3H)-furanone", "4-Hydroxypentanoic acid lactone", "Pentanoic acid, 4-hydroxy-, \u03b3-lactone", "\u03b3-Valerolactone", "\u03b3-Methyl-\u03b3-butyrolactone", "\u03b3-Pentalactone", "4-Methyl-\u03b3-butyrolactone", "\u03b3-Methylbutyrolactone", "4-Hydroxyvaleric acid lactone", "4-Pentanolide", "4-Methylbutyrolactone", "Tetrahydro-5-methyl-2-furanone", "Dihydro-5-methyl-2-furanone", "5-Methyltetrahydro-2-furanone", "4-Hydroxypentanoic acid \u03b3-lactone", "5-Methyldihydro-2(3H)-furanone", "(\u00b1)-\u03b3-Valerolactone", "(\u00b1)-4-Methylbutyrolactone", "(RS)-\u03b3-Pentalactone", "(\u00b1)-\u03b3-Pentalactone", "(\u00b1)-\u03b3-Methylbutyrolactone", "NSC 33700", "\u03b3-VL", "Pentano-4-lactone", "Dihydro-5-methylfuranone"], "SMILES": "CC1OC(=O)CC1", "physical_data": {"Molecular Weight": "100.12", "Molecular Formula": "C5H8O2", "Boiling Point": "85 \u00b0C @ Press: 10 Torr", "Melting Point": "-31 \u00b0C", "Density": "1.05474 g/cm\u00b3 @ Temp: 20 \u00b0C"}}