{"cas_no": "108-52-1", "cn_name": "2-\u6c28\u57fa-4-\u7532\u57fa\u5627\u5576", "en_name": ["2-Amino-4-methylpyrimidine", "2-Pyrimidinamine, 4-methyl-", "Pyrimidine, 2-amino-4-methyl-", "4-Methyl-2-pyrimidinamine", "2-Amino-4-methylpyrimidine", "6-Methyl-2-pyrimidinamine", "4-Methyl-2-aminopyrimidine", "2-Amino-6-methylpyrimidine", "NSC 1939"], "SMILES": "CC1=NC(N)=NC=C1", "physical_data": {"Molecular Weight": "109.13", "Molecular Formula": "C5H7N3", "Melting Point": "160.3 \u00b0C"}}