{"cas_no": "108-49-6", "cn_name": "2,6-\u4e8c\u7532\u57fa\u54cc\u55ea", "en_name": ["2,6-Dimethylpiperazine", "Piperazine, 2,6-dimethyl-", "2,6-Dimethylpiperazine", "NSC 49197", "3,5-Dimethylpiperazine"], "SMILES": "CC1NC(C)CNC1", "physical_data": {"Molecular Weight": "114.19", "Molecular Formula": "C6H14N2", "Boiling Point": "157-165 \u00b0C", "Melting Point": "110-113 \u00b0C"}}