{"cas_no": "108-46-3", "cn_name": "\u95f4\u82ef\u4e8c\u915a", "en_name": ["Resorcinol", "1,3-Benzenediol", "Resorcinol", "C.I. 76505", "m-Benzenediol", "C.I. Developer 4", "C.I. Oxidation Base 31", "Developer O", "Developer R", "Developer RS", "Durafur Developer G", "Fouramine RS", "Fourrine 79", "Fourrine EW", "Nako TGG", "Pelagol Grey RS", "Pelagol RS", "Resorcin", "1,3-Dihydroxybenzene", "m-Hydroquinone", "m-Hydroxyphenol", "3-Hydroxyphenol", "Reso", "m-Phenylenediol", "RS 11H", "RS 11L", "m-Dihydroxybenzene", "m-Hydroxyphenol", "Rodol RS", "NSC 1571", "Redimix 401RAP60", "Rezorsine", "Resorcinol 80", "1,3-Phenylenediol", "m-Resorcinol", "Cohedur RS", "KH 8420", "R 80"], "SMILES": "OC1=CC(O)=CC=C1", "physical_data": {"Molecular Weight": "110.11", "Molecular Formula": "C6H6O2", "Boiling Point": "280 \u00b0C", "Melting Point": "109-111 \u00b0C", "Density": "1.2717 g/cm\u00b3"}}