{"cas_no": "108-05-4", "cn_name": "\u4e59\u9178\u4e59\u70ef\u916f", "en_name": ["Vinyl acetate", "Acetic acid ethenyl ester", "Acetic acid vinyl ester", "Ethenyl acetate", "Vinyl A monomer", "Vinyl acetate", "1-Acetoxyethylene", "Acetoxyethylene", "Acetoxyethene", "NSC 8404", "Acetic acid, ethenyl ester", "SN 12T", "GC Fuji Varnish"], "SMILES": "O(C(C)=O)C=C", "physical_data": {"Molecular Weight": "86.09", "Molecular Formula": "C4H6O2", "Boiling Point": "72.7 \u00b0C", "Melting Point": "-93.2 \u00b0C", "Density": "0.932 g/cm\u00b3 @ Temp: 20 \u00b0C"}}