{"cas_no": "108-84-9", "cn_name": "\u4e59\u91784-\u7532\u57fa-2-\u620a\u916f", "en_name": ["4-Methyl-2-pentyl acetate", "2-Pentanol, 4-methyl-, 2-acetate", "2-Pentanol, 4-methyl-, acetate", "MAAc", "Methylisobutylcarbinol acetate", "4-Methyl-2-pentyl acetate", "1,3-Dimethylbutyl acetate", "4-Methylpent-2-yl ethanoate", "Acetic acid 1,3-dimethylbutyl ester", "4-Methyl-2-pentanol acetate", "NSC 567"], "SMILES": "C(C(OC(C)=O)C)C(C)C", "physical_data": {"Molecular Weight": "144.21", "Molecular Formula": "C8H16O2", "Boiling Point": "147.5 \u00b0C", "Melting Point": "-64 \u00b0C", "Density": "0.8805 g/cm\u00b3 @ Temp: 25 \u00b0C"}}