{"cas_no": "108-24-7", "cn_name": "\u4e59\u9150", "en_name": ["Acetic anhydride", "Acetic acid, 1,1\u2032-anhydride", "Acetic anhydride", "Acetic acid, anhydride", "Acetic oxide", "Acetyl oxide", "Ethanoic anhydride", "Acetyl anhydride", "Acetyl ether", "Acetyl acetate"], "SMILES": "O(C(C)=O)C(C)=O", "physical_data": {"Molecular Weight": "102.09", "Molecular Formula": "C4H6O3", "Boiling Point": "139.5 \u00b0C", "Melting Point": "-73 \u00b0C", "Density": "1.082 g/cm\u00b3 @ Temp: 20 \u00b0C"}}