{"cas_no": "108-82-7", "cn_name": "\u4e8c\u5f02\u4e01\u57fa\u7532\u9187", "en_name": ["2,6-Dimethyl-4-heptanol", "4-Heptanol, 2,6-dimethyl-", "2,6-Dimethyl-4-heptanol", "Diisobutylcarbinol", "2,6-Dimethyl-4-heptyl alcohol", "NSC 62683", "Diisobutylmethanol"], "SMILES": "C(C(CC(C)C)O)C(C)C", "physical_data": {"Molecular Weight": "144.25", "Molecular Formula": "C9H20O", "Boiling Point": "176-177 \u00b0C @ Press: 760 Torr", "Density": "0.809 g/cm\u00b3 @ Temp: 21 \u00b0C"}}