{"cas_no": "108-03-2", "cn_name": "1-\u785d\u57fa\u4e19\u70f7", "en_name": ["1-Nitropropane", "Propane, 1-nitro-", "1-Nitropropane", "NSC 6363"], "SMILES": "C(N(=O)=O)CC", "physical_data": {"Molecular Weight": "89.09", "Molecular Formula": "C3H7NO2", "Boiling Point": "131.6 \u00b0C @ Press: 760 Torr", "Melting Point": "-108 \u00b0C", "Density": "0.9934 g/cm\u00b3 @ Temp: 25 \u00b0C"}}