{"cas_no": "108-50-9", "cn_name": "2,6-\u4e8c\u7532\u57fa\u5421\u55ea", "en_name": ["2,6-Dimethylpyrazine", "Pyrazine, 2,6-dimethyl-", "2,6-Dimethylpyrazine", "3,5-Dimethylpyrazine"], "SMILES": "CC1=NC(C)=CN=C1", "physical_data": {"Molecular Weight": "108.14", "Molecular Formula": "C6H8N2", "Boiling Point": "155.6 \u00b0C", "Melting Point": "47.5 \u00b0C", "Density": "0.9647 g/cm\u00b3 @ Temp: 50 \u00b0C"}}