{"cas_no": "108-88-3", "cn_name": "\u7532\u82ef", "en_name": ["Toluene", "Benzene, methyl-", "Toluene", "Methylbenzene", "Methacide", "Methylbenzol", "Phenylmethane", "Toluol", "Antisal 1a", "CP 25", "1-Methylbenzene", "CP 25 (solvent)", "NSC 406333", "MeSH ID: D014050"], "SMILES": "CC1=CC=CC=C1", "physical_data": {"Molecular Weight": "92.14", "Molecular Formula": "C7H8", "Boiling Point": "110.6 \u00b0C", "Melting Point": "-94.9 \u00b0C", "Density": "0.8636 g/cm\u00b3 @ Temp: 20 \u00b0C"}}