{"cas_no": "108-23-6", "cn_name": "\u6c2f\u7532\u9178\u5f02\u4e19\u916f", "en_name": ["Isopropyl chloroformate", "Carbonochloridic acid, 1-methylethyl ester", "Formic acid, chloro-, isopropyl ester", "Isopropyl chlorocarbonate", "Isopropyl chlorcarbonate", "Isopropyl chloroformate", "Chloroformic acid isopropyl ester", "2-Propyl chloroformate", "1-Methylethyl chloroformate", "Isopropoxycarbonyl chloride", "Isopropyl carbonochloridate"], "SMILES": "O(C(C)C)C(Cl)=O", "physical_data": {"Molecular Weight": "122.55", "Molecular Formula": "C4H7ClO2", "Boiling Point": "104.6 \u00b0C @ Press: 761 Torr", "Density": "1.08 g/cm\u00b3"}}