{"cas_no": "108-32-7", "cn_name": "\u78b3\u9178\u4e19\u70ef\u916f", "en_name": ["Propylene carbonate", "1,3-Dioxolan-2-one, 4-methyl-", "Carbonic acid, cyclic propylene ester", "Carbonic acid, propylene ester", "4-Methyl-1,3-dioxolan-2-one", "Propylene carbonate", "1,2-Propylene carbonate", "1,2-Propanediyl carbonate", "1,2-Propanediol carbonate", "Carbonic acid cyclic methylethylene ester", "Carbonic acid cyclic 1,2-propylene ester", "Cyclic methylethylene carbonate", "Cyclic propylene carbonate", "Cyclic 1,2-propylene carbonate", "1-Methylethylene carbonate", "1,2-Propanediol cyclic carbonate", "Propylene glycol cyclic carbonate", "4-Methyl-2-oxo-1,3-dioxolane", "Arconate 5000", "4-Methyl-1,3-dioxolane-2-one", "Texacar PC", "Jeffsol PC", "2-Methyl-1,2-ethylene carbonate", "Arconate 1000", "Arconate HP", "PC-HP", "NSC 11784", "NSC 1913", "2-Oxo-4-methyl-1,3-dioxolane", "Jeffsol AG 1555", "Arconate propylenecarbonate", "JN 02", "Methyl-1,3-dioxolan-2-one", "Fluor Solvent", "PC Medion", "4-Methyl-2-dioxolanone", "Jeffsol 1555", "Jeffsol AG 1555 carbonate", "K 3 (carbonate)", "K 3"], "SMILES": "CC1OC(=O)OC1", "physical_data": {"Molecular Weight": "102.09", "Molecular Formula": "C4H6O3", "Boiling Point": "242 \u00b0C", "Melting Point": "-48.8 \u00b0C", "Density": "1.2047 g/cm\u00b3"}}