{"cas_no": "108-85-0", "cn_name": "\u6eb4\u4ee3\u73af\u5df1\u70f7", "en_name": ["Bromocyclohexane", "Cyclohexane, bromo-", "Bromocyclohexane", "Cyclohexyl bromide", "1-Bromocyclohexane", "NSC 11207"], "SMILES": "BrC1CCCCC1", "physical_data": {"Molecular Weight": "163.06", "Molecular Formula": "C6H11Br", "Boiling Point": "166.2 \u00b0C", "Melting Point": "-56.5 \u00b0C", "Density": "1.3332 g/cm\u00b3 @ Temp: 20.1 \u00b0C"}}