{"cas_no": "108-74-7", "cn_name": "1,3,5-\u4e09\u7532\u57fa\u5df1\u7f9f\u57fa-1,3,5-\u4e09\u55ea", "en_name": ["1,3,5-Trimethylhexahydro-1,3,5-triazine", "1,3,5-Triazine, hexahydro-1,3,5-trimethyl-", "s-Triazine, hexahydro-1,3,5-trimethyl-", "Hexahydro-1,3,5-trimethyl-1,3,5-triazine", "1,3,5-Trimethylhexahydro-s-triazine", "1,3,5-Trimethylhexahydro-1,3,5-triazine", "Hexahydro-1,3,5-trimethyl-s-triazine", "F 7771", "1,3,5-Trimethyltrimethylenetriamine", "N,N\u2032,N\u2032\u2032-Trimethyl-1,3,5-triazacyclohexane", "NSC 166326", "1,3,5-Trimethyl-1,3,5-triazacyclohexane", "1,3,5-Trimethylhexahydrotriazine", "1,3,5-Trimethyl-1,3,5-triazinane"], "SMILES": "CN1CN(C)CN(C)C1", "physical_data": {"Molecular Weight": "129.20", "Molecular Formula": "C6H15N3", "Boiling Point": "155-160 \u00b0C"}}