{"cas_no": "108-13-4", "cn_name": "\u4e19\u4e8c\u9170\u80fa", "en_name": ["Malonamide", "Propanediamide", "Malonamide", "Malondiamide", "Malonic acid diamide", "Malonodiamide", "Malonic diamide", "NSC 2134"], "SMILES": "C(C(N)=O)C(N)=O", "physical_data": {"Molecular Weight": "102.09", "Molecular Formula": "C3H6N2O2", "Melting Point": "167-169 \u00b0C", "Density": "1.430 g/cm\u00b3"}}