{"cas_no": "108-67-8", "cn_name": "\u5747\u4e09\u7532\u82ef", "en_name": ["Mesitylene", "Benzene, 1,3,5-trimethyl-", "Mesitylene", "1,3,5-Trimethylbenzene", "sym-Trimethylbenzene", "2,4,6-Trimethylbenzene", "3,5-Dimethyltoluene", "NSC 9273"], "SMILES": "CC1=CC(C)=CC(C)=C1", "physical_data": {"Molecular Weight": "120.19", "Molecular Formula": "C9H12", "Boiling Point": "164.7 \u00b0C @ Press: 760 Torr", "Melting Point": "-44.8 \u00b0C", "Density": "0.8637 g/cm\u00b3 @ Temp: 20 \u00b0C"}}