{"cas_no": "108-80-5", "cn_name": "\u6c30\u5c3f\u9178", "en_name": ["Cyanuric acid", "1,3,5-Triazine-2,4,6(1H,3H,5H)-trione", "Isocyanuric acid", "s-Triazine-2,4,6(1H,3H,5H)-trione", "Cyanuric acid", "Tricyanic acid", "Trihydroxycyanidine", "2,4,6-Trihydroxy-1,3,5-triazine", "s-Triazine-2,4,6-triol", "Pseudocyanuric acid", "2,4,6-Trihydroxy-s-triazine", "2,4,6-Trioxohexahydro-1,3,5-triazine", "5-Azabarbituric acid", "ICA-P", "1,3,5-Triazine-2,4,6-trione", "NSC 6284", "1,3,5-Triazine-2,4,6-triol", "[1,3,5]Triazine-2,4,6-triol"], "SMILES": "O=C1NC(=O)NC(=O)N1", "physical_data": {"Molecular Weight": "129.07", "Molecular Formula": "C3H3N3O3", "Melting Point": "360 \u00b0C", "Density": "2.500 g/cm\u00b3 @ Temp: 20 \u00b0C"}}