{"cas_no": "108-43-0", "cn_name": "3-\u6c2f\u82ef\u915a", "en_name": ["3-Chlorophenol", "Phenol, 3-chloro-", "Phenol, m-chloro-", "3-Chlorophenol", "m-Chlorophenol", "3-Hydroxychlorobenzene", "m-Chlorophenic acid", "NSC 59700", "1-Chloro-3-hydroxybenzene"], "SMILES": "ClC1=CC(O)=CC=C1", "physical_data": {"Molecular Weight": "128.56", "Molecular Formula": "C6H5ClO", "Boiling Point": "214 \u00b0C @ Press: 760 Torr", "Melting Point": "32.6 \u00b0C", "Density": "1.268 g/cm\u00b3 @ Temp: 25 \u00b0C"}}