{"cas_no": "108-12-3", "cn_name": "\u5f02\u620a\u9170\u6c2f", "en_name": ["Isovaleryl chloride", "Butanoyl chloride, 3-methyl-", "Isovaleryl chloride", "3-Methylbutanoyl chloride", "Isovaleric chloride", "Isovaleroyl chloride", "Isopentanoyl chloride", "Isovaleric acid chloride", "3-Methylbutyryl chloride"], "SMILES": "C(C(C)C)C(Cl)=O", "physical_data": {"Molecular Weight": "120.58", "Molecular Formula": "C5H9ClO", "Boiling Point": "114 \u00b0C"}}