{"cas_no": "108-87-2", "cn_name": "\u7532\u57fa\u73af\u5df1\u70f7", "en_name": ["Methylcyclohexane", "Cyclohexane, methyl-", "Methylcyclohexane", "Cyclohexylmethane", "Hexahydrotoluene", "Toluene hexahydride", "1-Methylcyclohexane", "MCHX", "NSC 9391", "Swaclean MCH"], "SMILES": "CC1CCCCC1", "physical_data": {"Molecular Weight": "98.19", "Molecular Formula": "C7H14", "Boiling Point": "100.9 \u00b0C @ Press: 760 Torr", "Melting Point": "-126.6 \u00b0C", "Density": "0.7694 g/cm\u00b3 @ Temp: 20 \u00b0C"}}