{"cas_no": "108-90-7", "cn_name": "\u6c2f\u82ef", "en_name": ["Chlorobenzene", "Benzene, chloro-", "Chlorobenzene", "MCB", "Monochlorobenzene", "Phenyl chloride", "Tetrosin SP", "IP Carrier T 40", "CP 27", "NSC 8433", "Chlorobenezene"], "SMILES": "ClC1=CC=CC=C1", "physical_data": {"Molecular Weight": "112.56", "Molecular Formula": "C6H5Cl", "Boiling Point": "131.7 \u00b0C", "Melting Point": "-45.2 \u00b0C", "Density": "1.1058 g/cm\u00b3 @ Temp: 20 \u00b0C"}}