{"cas_no": "108-44-1", "cn_name": "3-\u7532\u57fa\u82ef\u80fa", "en_name": ["m-Toluidine", "Benzenamine, 3-methyl-", "m-Toluidine", "3-Methylbenzenamine", "3-Aminotoluene", "3-Methylaniline", "m-Aminotoluene", "3-Toluidine", "3-Aminophenylmethane", "1-Amino-3-methylbenzene", "m-Tolylamine", "3-Methylphenylamine", "(m-Methylphenyl)amine", "m-Methylaniline", "NSC 15349"], "SMILES": "CC1=CC(N)=CC=C1", "physical_data": {"Molecular Weight": "107.15", "Molecular Formula": "C7H9N", "Boiling Point": "203.3 \u00b0C", "Melting Point": "-31.2 \u00b0C", "Density": "0.9889 g/cm\u00b3 @ Temp: 20 \u00b0C"}}