{"cas_no": "108-30-5", "cn_name": "\u4e01\u4e8c\u9178\u9150", "en_name": ["Succinic anhydride", "2,5-Furandione, dihydro-", "Succinic anhydride", "Dihydro-2,5-furandione", "Butanedioic anhydride", "2,5-Diketotetrahydrofuran", "Succinic acid anhydride", "Succinyl oxide", "Tetrahydro-2,5-dioxofuran", "Succinyl anhydride", "Tetrahydro-2,5-furandione", "Rikacid SA", "NSC 8518", "Oxolane-2,5-dione", "Rikacid", "Rikacid SA 25"], "SMILES": "O=C1OC(=O)CC1", "physical_data": {"Molecular Weight": "100.07", "Molecular Formula": "C4H4O3", "Boiling Point": "261 \u00b0C @ Press: 760 Torr", "Melting Point": "119.6 \u00b0C", "Density": "1.503 g/cm\u00b3"}}