{"cas_no": "108-00-9", "cn_name": "N,N-\u4e8c\u7532\u57fa\u4e59\u4e8c\u80fa", "en_name": ["N,N-Dimethylethylenediamine", "1,2-Ethanediamine, N1,N1-dimethyl-", "Ethylenediamine, N,N-dimethyl-", "1,2-Ethanediamine, N,N-dimethyl-", "N1,N1-Dimethyl-1,2-ethanediamine", "1-Amino-2-(dimethylamino)ethane", "N,N-Dimethylethylenediamine", "2-(Dimethylamino)ethylamine", "N-(2-Aminoethyl)-N,N-dimethylamine", "N,N-Dimethyl-1,2-ethanediamine", "\u03b2-(Dimethylamino)ethylamine", "N,N-Dimethyl-1,2-diaminoethane", "2-(N,N-Dimethylamino)ethylamine", "N,N-Dimethyl-1,2-ethylenediamine", "N,N-Dimethylethanediamine", "unsym-Dimethylethylenediamine", "2-(Dimethylamino)ethanamine", "(2-Aminoethyl)dimethylamine", "NSC 24506", "N,N-Methyl-1,2-ethanediamine", "2-(N,N-Dimethylamino)ethanamine", "N-(2-Dimethylaminoethyl)amine", "2-Dimethylamino-1-ethanamine", "2-Dimethylamino-1-ethylamine", "N1,N1-Dimethylethane-1,2-diamine", "Dimethylaminoethylamine", "N,N-Dimethylaminoethylamine", "N1,N1-Dimethylethan-1,2-diamine", "N\u2032,N\u2032-Dimethyl-1,2-diaminoethane", "N,N-Dimethylethan-1,2-diamine", "2-Amino-N,N-dimethyl-1-ethanamine"], "SMILES": "C(N(C)C)CN", "physical_data": {"Molecular Weight": "88.15", "Molecular Formula": "C4H12N2", "Boiling Point": "107 \u00b0C"}}