{"cas_no": "108-20-3", "cn_name": "\u5f02\u4e19\u919a", "en_name": ["Diisopropyl ether", "Propane, 2,2\u2032-oxybis-", "Isopropyl ether", "2,2\u2032-Oxybis[propane]", "Diisopropyl ether", "Diisopropyl oxide", "2-Isopropoxypropane", "Bis(isopropyl) ether", "Di-1-methylethyl ether", "2-(Propan-2-yloxy)propane"], "SMILES": "O(C(C)C)C(C)C", "physical_data": {"Molecular Weight": "102.17", "Molecular Formula": "C6H14O", "Boiling Point": "68.5 \u00b0C", "Melting Point": "-86.8 \u00b0C", "Density": "0.7258 g/cm\u00b3 @ Temp: 20 \u00b0C"}}