{"cas_no": "108-15-6", "cn_name": "1-(\u4e8c\u7532\u57fa\u6c28\u57fa)-2-\u4e19\u80fa", "en_name": ["1-(Dimethylamino)-2-propylamine", "1,2-Propanediamine, N1,N1-dimethyl-", "N1,N1-Dimethyl-1,2-propanediamine", "2-Amino-1-(dimethylamino)propane", "1-(Dimethylamino)-2-propylamine", "(\u00b1)-N1,N1-Dimethyl-1,2-propanediamine", "2-(Dimethylamino)-1-methylethylamine", "NSC 166323", "(1-Dimethylaminopropan-2-yl)amine", "1-Dimethylaminopropan-2-amine", "N,N-Dimethyl-2-methylethane-1,2-diamine", "1-N,1-N-Dimethylpropane-1,2-diamine"], "SMILES": "C(C(C)N)N(C)C", "physical_data": {"Molecular Weight": "102.18", "Molecular Formula": "C5H14N2", "Boiling Point": "113 \u00b0C", "Density": "0.8122 g/cm\u00b3 @ Temp: 20 \u00b0C"}}