{"cas_no": "108-57-6", "cn_name": "1,3-\u4e8c\u4e59\u70ef\u82ef", "en_name": ["m-Divinylbenzene", "Benzene, 1,3-diethenyl-", "Benzene, m-divinyl-", "1,3-Diethenylbenzene", "m-Divinylbenzene", "m-Vinylstyrene", "1,3-Divinylbenzene", "3-Vinylstyrene", "1,3-Bis(ethenyl)benzene"], "SMILES": "C(=C)C1=CC(C=C)=CC=C1", "physical_data": {"Molecular Weight": "130.19", "Molecular Formula": "C10H10", "Boiling Point": "121 \u00b0C", "Melting Point": "-52.3 \u00b0C", "Density": "0.926 g/cm\u00b3 @ Temp: 22 \u00b0C"}}