{"cas_no": "108-22-5", "cn_name": "\u4e59\u9178\u5f02\u4e19\u70ef\u916f", "en_name": ["Isopropenyl acetate", "1-Propen-2-ol, 2-acetate", "1-Propen-2-ol, acetate", "Isopropenyl acetate", "Acetic acid isopropenyl ester", "2-Acetoxypropene", "2-Acetoxypropylene", "1-Acetoxy-1-methylethylene", "1-Methylvinyl acetate", "2-Acetoxy-1-propene", "NSC 2197", "NSC 8262", "Prop-1-en-2-yl acetate", "2-Propenyl acetate"], "SMILES": "O(C(C)=C)C(C)=O", "physical_data": {"Molecular Weight": "100.12", "Molecular Formula": "C5H8O2", "Boiling Point": "97 \u00b0C", "Melting Point": "-92.9 \u00b0C", "Density": "0.9090 g/cm\u00b3 @ Temp: 20 \u00b0C"}}