{"cas_no": "108-97-4", "cn_name": "\u5421\u5583-4-\u916e", "en_name": ["4H-Pyran-4-one", "4H-Pyran-4-one", "4-Pyrone", "4H-Pyran, 4-oxo-", "\u03b3-Pyrone", "Pyran-4-one"], "SMILES": "O=C1C=COC=C1", "physical_data": {"Molecular Weight": "96.08", "Molecular Formula": "C5H4O2", "Boiling Point": "212.5 \u00b0C", "Melting Point": "32.5 \u00b0C"}}