{"cas_no": "108-16-7", "cn_name": "N,N-\u4e8c\u7532\u57fa\u5f02\u4e19\u9187\u80fa", "en_name": ["1-(Dimethylamino)-2-propanol", "2-Propanol, 1-(dimethylamino)-", "1-(Dimethylamino)-2-propanol", "Dimethylisopropanolamine", "Dimethyl(2-hydroxypropyl)amine", "N,N-Dimethylisopropanolamine", "3-(Dimethylamino)-2-propanol", "N,N-Dimethyl-2-hydroxypropylamine", "N,N-Dimethylamino-2-propanol", "(\u00b1)-1-(Dimethylamino)-2-propanol", "(\u00b1)-1-(N,N-Dimethylamino)-2-propanol", "DL-1-(Dimethylamino)-2-propanol", "Dimepranol", "2-(Dimethylamino)-1-methylethanol", "Bisomer Amine D 700", "N,N-Dimethyl-2-hydroxy-1-propanamine", "NSC 3163", "1-Methyl-2-(dimethylamino)ethanol", "2-(Dimethylamino)-1-methyl-1-ethanol", "DMA 2P"], "SMILES": "C(C(C)O)N(C)C", "physical_data": {"Molecular Weight": "103.16", "Molecular Formula": "C5H13NO", "Boiling Point": "124.5 \u00b0C", "Melting Point": "124 \u00b0C", "Density": "0.855 g/cm\u00b3 @ Temp: 26 \u00b0C"}}