{"cas_no": "108-64-5", "cn_name": "\u5f02\u620a\u9178\u4e59\u916f", "en_name": ["Ethyl isovalerate", "Butanoic acid, 3-methyl-, ethyl ester", "Isovaleric acid, ethyl ester", "Ethyl isovalerate", "Ethyl 3-methylbutyrate", "Ethyl 3-methylbutanoate", "Ethyl isopentanoate", "3-Methylbutyric acid ethyl ester", "Isopentanoic acid ethyl ester", "3-Methylbutanoic acid ethyl ester", "NSC 8869"], "SMILES": "C(C(OCC)=O)C(C)C", "physical_data": {"Molecular Weight": "130.18", "Molecular Formula": "C7H14O2", "Boiling Point": "135 \u00b0C", "Melting Point": "-99.3 \u00b0C", "Density": "0.88540 g/cm\u00b3 @ Temp: 0 \u00b0C"}}