{"cas_no": "108-79-2", "cn_name": "2-\u7f9f\u57fa-4,6-\u4e8c\u7532\u57fa\u5627\u5576", "en_name": ["2-Hydroxy-4,6-dimethylpyrimidine", "2(1H)-Pyrimidinone, 4,6-dimethyl-", "2-Pyrimidinol, 4,6-dimethyl-", "2(1H)-Pyrimidone, 4,6-dimethyl-", "4,6-Dimethyl-2(1H)-pyrimidinone", "4,6-Dimethyl-2-pyrimidinol", "2-Hydroxy-4,6-dimethylpyrimidine", "4,6-Dimethyl-2-hydroxypyrimidine", "4,6-Dimethyl-1,2-dihydro-2-pyrimidone", "4,6-Dimethyl-2(1H)-pyrimidone", "4,6-Dimethyl-2-pyrimidone", "4,6-Dimethyl-1,2-dihydropyrimidin-2-one"], "SMILES": "CC1=CC(C)=NC(=O)N1", "physical_data": {"Molecular Weight": "124.14", "Molecular Formula": "C6H8N2O", "Melting Point": "197 \u00b0C", "Density": "1.29 g/cm\u00b3"}}