{"cas_no": "108-09-8", "cn_name": "1,3-\u4e8c\u7532\u57fa\u4e01\u80fa", "en_name": ["1,3-Dimethylbutylamine", "2-Pentanamine, 4-methyl-", "Butylamine, 1,3-dimethyl-", "4-Methyl-2-pentanamine", "4-Methyl-2-aminopentane", "2-Amino-4-methylpentane", "1,3-Dimethylbutylamine", "1,3-Dimethylbutanamine", "DL-1,3-Dimethylbutylamine", "(\u00b1)-1,3-Dimethylbutylamine", "(\u00b1)-4-Methyl-2-Pentanamine", "NSC 48080", "4-Amino-2-methylpentane"], "SMILES": "C(C(C)C)C(C)N", "physical_data": {"Molecular Weight": "101.19", "Molecular Formula": "C6H15N", "Boiling Point": "108-109 \u00b0C", "Density": "0.8492 g/cm\u00b3 @ Temp: 20 \u00b0C"}}