{"cas_no": "108-55-4", "cn_name": "\u620a\u4e8c\u9178\u9150", "en_name": ["Glutaric anhydride", "2H-Pyran-2,6(3H)-dione, dihydro-", "Glutaric anhydride", "Dihydro-2H-pyran-2,6(3H)-dione", "Pentanedioic anhydride", "Glutaric acid anhydride", "Pentanedioic acid anhydride", "Pyroglutaric acid", "NSC 16640", "Dihydropyran-2,6-dione", "Dihydro-3H-pyran-2,6-dione", "Oxacyclohexane-2,6-dione", "Pentahydropyran-2,6-dione", "2,6-Dioxo-dihydropyrane", "Glutaric anhydide"], "SMILES": "O=C1OC(=O)CCC1", "physical_data": {"Molecular Weight": "114.10", "Molecular Formula": "C5H6O3", "Boiling Point": "287 \u00b0C", "Melting Point": "56.3 \u00b0C"}}