{"cas_no": "108-70-3", "cn_name": "1,3,5-\u4e09\u6c2f\u82ef", "en_name": ["1,3,5-Trichlorobenzene", "Benzene, 1,3,5-trichloro-", "1,3,5-Trichlorobenzene", "sym-Trichlorobenzene", "s-Trichlorobenzene", "Symmetrical trichlorobenzene", "NSC 4389"], "SMILES": "ClC1=CC(Cl)=CC(Cl)=C1", "physical_data": {"Molecular Weight": "181.45", "Molecular Formula": "C6H3Cl3", "Boiling Point": "208 \u00b0C @ Press: 763 Torr", "Melting Point": "63.5 \u00b0C", "Density": "1 x 10<sup>-6</sup> g/cm\u00b3 @ Temp: 100 \u00b0C"}}