{"cas_no": "108-54-3", "cn_name": "6-\u7532\u57fa-5,6-\u4e8c\u6c22-2H-\u5421\u5583-2-\u916e", "en_name": ["5,6-Dihydro-6-methyl-2H-pyran-2-one", "2H-Pyran-2-one, 5,6-dihydro-6-methyl-", "2-Hexenoic acid, 5-hydroxy-, \u03b4-lactone", "2-Hexenoic acid, 5-hydroxy-, lactone", "5,6-Dihydro-6-methyl-2H-pyran-2-one", "5-Hydroxy-2-hexenoic acid lactone", "5-Hydroxyhex-2-enoic acid \u03b4-lactone", "6-Methyl-5,6-dihydropyran-2-one", "DL-Parasorbic acid", "(\u00b1)-Parasorbic acid", "NSC 24508", "2-Hexen-5-olide"], "SMILES": "CC1OC(=O)C=CC1", "physical_data": {"Molecular Weight": "112.13", "Molecular Formula": "C6H8O2", "Boiling Point": "110 \u00b0C @ Press: 15 Torr"}}