{"cas_no": "108-01-0", "cn_name": "N,N-\u4e8c\u7532\u57fa\u4e59\u9187\u80fa", "en_name": ["2-(Dimethylamino)ethanol", "Ethanol, 2-(dimethylamino)-", "2-(Dimethylamino)ethanol", "Deanol", "(N,N-Dimethylamino)ethanol", "\u03b2-Dimethylaminoethyl alcohol", "N,N-Dimethylethanolamine", "DMAE", "\u03b2-Hydroxyethyldimethylamine", "Bimanol", "\u03b2-(Dimethylamino)ethanol", "(Dimethylamino)ethanol", "Dimethyl(2-hydroxyethyl)amine", "Propamine A", "N-(2-Hydroxyethyl)dimethylamine", "2-(N,N-Dimethylamino)ethanol", "(2-Hydroxyethyl)dimethylamine", "N,N-Dimethyl-2-aminoethanol", "Dimethylmonoethanolamine", "N,N-Dimethyl(2-hydroxyethyl)amine", "Norcholine", "N,N-Dimethyl-N-(\u03b2-hydroxyethyl)amine", "Dimethyl(hydroxyethyl)amine", "Kalpur P", "Amietol M 21", "N,N-Dimethyl-\u03b2-hydroxyethylamine", "Dimethol", "Texacat DME", "Dimethylethanolamine", "Rexolin", "2-(Dimethylamino)ethyl alcohol", "Thancat DME", "DMEA", "N-(2-Hydroxyethyl)-N,N-dimethylamine", "PC CAT DMEA", "Dabco DMEA", "NSC 2652", "Aminoalcohol 2mabs", "Jeffcat DMEA", "Texacat DMEA", "Niax DMEA", "Lupragen N 101", "Tegoamin DMEA", "T 80", "N,N-Dimethyl-2-ethanolamine", "DeuAdd MA 95", "MA 95", "Dimethyl MEA", "D 0649", "Aminoalcohol 2Mabs"], "SMILES": "C(N(C)C)CO", "physical_data": {"Molecular Weight": "89.14", "Molecular Formula": "C4H11NO", "Boiling Point": "135 \u00b0C @ Press: 758 Torr", "Melting Point": "-59 \u00b0C", "Density": "0.8866 g/cm\u00b3 @ Temp: 20 \u00b0C"}}