{"cas_no": "108-72-5", "cn_name": "1,3,5-\u4e09\u6c28\u57fa\u82ef", "en_name": ["1,3,5-Triaminobenzene", "1,3,5-Benzenetriamine", "sym-Triaminobenzene", "1,3,5-Triaminobenzene", "NSC 28676"], "SMILES": "NC1=CC(N)=CC(N)=C1", "physical_data": {"Molecular Weight": "123.16", "Molecular Formula": "C6H9N3", "Melting Point": "84-85 \u00b0C"}}