{"cas_no": "108-41-8", "cn_name": "3-\u6c2f\u7532\u82ef", "en_name": ["3-Chlorotoluene", "Benzene, 1-chloro-3-methyl-", "Toluene, m-chloro-", "1-Chloro-3-methylbenzene", "3-Chloro-1-methylbenzene", "m-Tolyl chloride", "3-Chlorotoluene", "1-Methyl-3-chlorobenzene", "3-Methylchlorobenzene", "m-Chlorotoluene", "m-Methylchlorobenzene", "NSC 8767", "3-Methylphenyl chloride"], "SMILES": "CC1=CC(Cl)=CC=C1", "physical_data": {"Molecular Weight": "126.58", "Molecular Formula": "C7H7Cl", "Boiling Point": "161.8 \u00b0C", "Melting Point": "-47.8 \u00b0C", "Density": "1.07215 g/cm\u00b3 @ Temp: 20.00 \u00b0C"}}