{"cas_no": "108-11-2", "cn_name": "4-\u7532\u57fa-2-\u620a\u9187", "en_name": ["4-Methyl-2-pentanol", "2-Pentanol, 4-methyl-", "4-Methyl-2-pentanol", "3-MIC", "Isobutylmethylmethanol", "MAOH", "2-Methyl-4-pentanol", "MIBC", "MIC", "Methylisobutylcarbinol", "Isobutylmethylcarbinol", "4-Methyl-2-pentyl alcohol", "1,3-Dimethyl-1-butanol", "4-Methyl-2-amyl alcohol", "dl-Methylisobutylcarbinol", "(\u00b1)-4-Methyl-2-pentanol", "NSC 9384", "1,3-Dimethylbutyl alcohol", "1,3-Dimethylbutanol"], "SMILES": "C(C(C)C)C(C)O", "physical_data": {"Molecular Weight": "102.17", "Molecular Formula": "C6H14O", "Boiling Point": "133 \u00b0C @ Press: 760 Torr", "Melting Point": "-90 \u00b0C", "Density": "0.8075 g/cm\u00b3 @ Temp: 20 \u00b0C"}}