{"cas_no": "108-42-9", "cn_name": "\u95f4\u6c2f\u82ef\u80fa", "en_name": ["3-Chloroaniline", "Benzenamine, 3-chloro-", "Aniline, m-chloro-", "3-Chlorobenzenamine", "m-Chloroaniline", "Fast Orange GC Base", "3-Chloroaniline", "m-Aminochlorobenzene", "m-Chlorophenylamine", "Orange GC base", "1-Amino-3-chlorobenzene", "3-Chlorophenylamine", "3-Amino-1-chlorobenzene", "3-Chloro-1-aminobenzene", "NSC 17581", "5-Chloroaniline"], "SMILES": "ClC1=CC(N)=CC=C1", "physical_data": {"Molecular Weight": "127.57", "Molecular Formula": "C6H6ClN", "Boiling Point": "230.5 \u00b0C", "Melting Point": "-10.4 \u00b0C", "Density": "1.2150 g/cm\u00b3 @ Temp: 22 \u00b0C"}}