{"cas_no": "108-47-4", "cn_name": "2,4-\u4e8c\u7532\u57fa\u5421\u5576", "en_name": ["2,4-Dimethylpyridine", "Pyridine, 2,4-dimethyl-", "2,4-Lutidine", "2,4-Dimethylpyridine", "\u03b1,\u03b3-Dimethylpyridine", "NSC 2156"], "SMILES": "CC=1C=C(C)N=CC1", "physical_data": {"Molecular Weight": "107.15", "Molecular Formula": "C7H9N", "Boiling Point": "158.5 \u00b0C", "Melting Point": "-64 \u00b0C", "Density": "0.9273 g/cm\u00b3 @ Temp: 25 \u00b0C"}}