{"cas_no": "108-33-8", "cn_name": "2-\u6c28\u57fa-5-\u7532\u57fa-1,3,4-\u567b\u4e8c\u5511", "en_name": ["2-Amino-5-methyl-1,3,4-thiadiazole", "1,3,4-Thiadiazol-2-amine, 5-methyl-", "1,3,4-Thiadiazole, 2-amino-5-methyl-", "5-Methyl-1,3,4-thiadiazol-2-amine", "2-Amino-5-methyl-1,3,4-thiadiazole", "5-Amino-2-methyl-1,3,4-thiadiazole", "2-Methyl-5-amino-1,3,4-thiadiazole", "5-Methyl-2-amino-1,3,4-thiadiazole", "2-Amino-5-methylthiadiazole", "5-Methyl-1,3,4-thiadiazole-2-amine", "NSC 137228", "NSC 526661", "(5-Methyl-1,3,4-thiadiazol-2-yl)amine"], "SMILES": "CC=1SC(N)=NN1", "physical_data": {"Molecular Weight": "115.16", "Molecular Formula": "C3H5N3S", "Melting Point": "235 \u00b0C"}}