{"cas_no": "108-61-2", "cn_name": "\u53cc(1-\u7532\u57fa-2-\u7f9f\u4e59\u57fa)\u919a", "en_name": ["2,2\u2032-Oxybis[1-propanol]", "1-Propanol, 2,2\u2032-oxybis-", "1-Propanol, 2,2\u2032-oxydi-", "2,2\u2032-Oxybis[1-propanol]", "2,2\u2032-Oxydi-1-propanol", "Bis(1-methyl-2-hydroxyethyl) ether", "2,4-Dimethyl-3-oxapentane-1,5-diol", "2-[(1-Hydroxypropan-2-yl)oxy]propan-1-ol", "2-(1-Hydroxypropan-2-yloxy)propan-1-ol"], "SMILES": "O(C(CO)C)C(CO)C", "physical_data": {"Molecular Weight": "134.17", "Molecular Formula": "C6H14O3", "Boiling Point": "113-114 \u00b0C @ Press: 10 Torr", "Melting Point": "65 \u00b0C", "Density": "0.9878 g/cm\u00b3 @ Temp: 60 \u00b0C"}}