{"cas_no": "108-10-1", "cn_name": "4-\u7532\u57fa-2-\u620a\u916e", "en_name": ["Methyl isobutyl ketone", "2-Pentanone, 4-methyl-", "4-Methyl-2-pentanone", "Isobutyl methyl ketone", "Methyl isobutyl ketone", "2-Methyl-4-pentanone", "MIBK", "MIK", "Hexone", "4-Methyl-2-oxopentane", "Isopropylacetone", "2-Methylpropyl methyl ketone", "Methyl iso-butyl ketone", "Methyl 2-methylpropyl ketone", "NSC 5712", "ZMD-D"], "SMILES": "C(C(C)C)C(C)=O", "physical_data": {"Molecular Weight": "100.16", "Molecular Formula": "C6H12O", "Boiling Point": "115.8 \u00b0C @ Press: 760 Torr", "Melting Point": "-85 \u00b0C", "Density": "0.8042 g/cm\u00b3 @ Temp: 20 \u00b0C"}}