{"cas_no": "108-96-3", "cn_name": "4-\u5421\u5576\u916e", "en_name": ["4(1H)-Pyridinone", "4(1H)-Pyridinone", "4(1H)-Pyridone", "\u03b3-Pyridone", "4-Oxopyridine", "4-Pyridone", "4-Pyridinone", "NSC 146174", "NSC 26021", "1,4-Dihydropyridin-4-one", "1H-Pyridin-4-one"], "SMILES": "O=C1C=CNC=C1", "physical_data": {"Molecular Weight": "95.10", "Molecular Formula": "C5H5NO", "Boiling Point": "200 \u00b0C @ Press: 3 Torr", "Melting Point": "65-66 \u00b0C"}}