{"cas_no": "108-91-8", "cn_name": "\u73af\u5df1\u80fa", "en_name": ["Cyclohexylamine", "Cyclohexanamine", "Cyclohexylamine", "Aminocyclohexane", "Aminohexahydrobenzene", "Hexahydroaniline", "Benzenamine, hexahydro-", "1-Aminocyclohexane", "1-Cyclohexylamine", "Monocyclohexylamine", "HY", "Biodur E 1", "N-Cyclohexylamine"], "SMILES": "NC1CCCCC1", "physical_data": {"Molecular Weight": "99.17", "Molecular Formula": "C6H13N", "Boiling Point": "134.5 \u00b0C @ Press: 760 Torr", "Melting Point": "-17.7 \u00b0C", "Density": "0.8647 g/cm\u00b3 @ Temp: 25 \u00b0C"}}