{"cas_no": "108-19-0", "cn_name": "\u7f29\u4e8c\u8132", "en_name": ["Biuret", "Imidodicarbonic diamide", "Biuret", "Allophanamide", "Allophanic acid amide", "Carbamylurea", "Dicarbamylamine", "Ureidoformamide", "Urea, (aminocarbonyl)-", "Allophanimidic acid", "Isobiuret", "HO 1 (imidodicarbonic diamide)", "HO 1 (biuret)", "NSC 8020", "Desmodeyn 75", "N 75", "1-(Carbamoylamino)formamide", "MeSH ID: D001737"], "SMILES": "N(C(N)=O)C(N)=O", "physical_data": {"Molecular Weight": "103.08", "Molecular Formula": "C2H5N3O2", "Melting Point": "190 \u00b0C (decomp)", "Density": "1.467 g/cm\u00b3 @ Temp: -5 \u00b0C"}}