{"cas_no": "108-27-0", "cn_name": "5-\u7532\u57fa-2-\u5421\u54af\u916e", "en_name": ["5-Methyl-2-pyrrolidone", "2-Pyrrolidinone, 5-methyl-", "2-Pyrrolidinone, 5-methyl-, (\u00b1)-", "5-Methyl-2-pyrrolidinone", "\u03b3-Valerolactam", "5-Methyl-2-pyrrolidone", "5-Methyl-1-azacyclopentan-2-one", "(\u00b1)-5-Methyl-2-pyrrolidinone", "NSC 75833", "5-Methyl-2-pyrroldinone", "MPLD"], "SMILES": "CC1NC(=O)CC1", "physical_data": {"Molecular Weight": "99.13", "Molecular Formula": "C5H9NO", "Boiling Point": "248 \u00b0C", "Melting Point": "43 \u00b0C", "Density": "1.0458 g/cm\u00b3 @ Temp: 22 \u00b0C"}}