{"cas_no": "108-69-0", "cn_name": "1-\u6c28\u57fa-3,5-\u4e8c\u7532\u82ef", "en_name": ["3,5-Dimethylaniline", "Benzenamine, 3,5-dimethyl-", "3,5-Xylidine", "3,5-Dimethylbenzenamine", "3,5-Dimethylaniline", "5-Amino-1,3-dimethylbenzene", "5-Amino-1,3-xylene", "3,5-Xylylamine", "3,5-Dimethylphenylamine", "3,5-Dimethyl-1-aminobenzene", "NSC 26880", "3,5-Dimethyl-N-phenylamine"], "SMILES": "CC1=CC(C)=CC(N)=C1", "physical_data": {"Molecular Weight": "121.18", "Molecular Formula": "C8H11N", "Boiling Point": "220.5 \u00b0C", "Melting Point": "9.8 \u00b0C", "Density": "0.9706 g/cm\u00b3 @ Temp: 20 \u00b0C"}}