{"cas_no": "108-65-6", "cn_name": "\u4e19\u4e8c\u9187\u7532\u919a\u918b\u9178\u916f", "en_name": ["1-Methoxy-2-propyl acetate", "2-Propanol, 1-methoxy-, 2-acetate", "2-Propanol, 1-methoxy-, acetate", "2-Acetoxy-1-methoxypropane", "1-Methoxy-2-propyl acetate", "1-Methoxy-2-acetoxypropane", "PGMEA", "1-Methoxy-2-propanol acetate", "Propylene glycol 1-methyl ether 2-acetate", "NSC 2207", "KR 20", "2-Methoxy-1-methylethyl acetate", "PMA", "SU 8 Developer", "Arcosolv PMA", "Dowanol PMA", "MMPGAC", "JTB 6343-05", "1-Methoxypropan-2-yl acetate"], "SMILES": "O(C(COC)C)C(C)=O", "physical_data": {"Molecular Weight": "132.16", "Molecular Formula": "C6H12O3", "Boiling Point": "146 \u00b0C", "Density": "0.96 g/cm\u00b3"}}