{"cas_no": "108-56-5", "cn_name": "\u8349\u9170\u4e59\u9178\u4e8c\u4e59\u916f", "en_name": ["Diethyl oxalacetate", "Butanedioic acid, 2-oxo-, 1,4-diethyl ester", "Oxalacetic acid, diethyl ester", "Butanedioic acid, oxo-, diethyl ester", "Diethyl oxalacetate", "Oxalacetic ester", "Diethyl oxaloacetate", "2-Oxobutanedioic acid diethyl ester", "Diethyl oxobutanedioate", "Diethyl oxosuccinate", "Diethyl 2-oxosuccinate", "NSC 68476", "Diethyl 2-oxobutanedioate", "1,4-Diethyl 2-oxobutanedioate"], "SMILES": "C(C(C(OCC)=O)=O)C(OCC)=O", "physical_data": {"Molecular Weight": "188.18", "Molecular Formula": "C8H12O5", "Boiling Point": "132 \u00b0C", "Melting Point": "&lt;25 \u00b0C", "Density": "1.1324 g/cm\u00b3 @ Temp: 20 \u00b0C"}}