{"cas_no": "108-95-2", "cn_name": "\u82ef\u915a", "en_name": ["Phenol", "Phenol", "Carbolic acid", "Hydroxybenzene", "Monohydroxybenzene", "Oxybenzene", "Phenic acid", "Phenyl hydrate", "Phenyl hydroxide", "Phenylic acid", "Phenylic alcohol", "Benzenol", "Monophenol", "Phenyl alcohol", "ENT 1814", "NSC 36808", "2-Allphenol", "MeSH ID: D019800"], "SMILES": "OC1=CC=CC=C1", "physical_data": {"Molecular Weight": "94.11", "Molecular Formula": "C6H6O", "Boiling Point": "181.75 \u00b0C @ Press: 760.0 Torr", "Melting Point": "40.91 \u00b0C", "Density": "1.071 g/cm\u00b3"}}