{"cas_no": "108-60-1", "cn_name": "\u4e8c\u6c2f\u5f02\u4e59\u919a", "en_name": ["Bis(2-chloro-1-methylethyl) ether", "Propane, 2,2\u2032-oxybis[1-chloro-", "Ether, bis(2-chloro-1-methylethyl)", "2,2\u2032-Oxybis[1-chloropropane]", "2,2\u2032-Dichlorodiisopropyl ether", "Bis(2-chloro-1-methylethyl) ether", "\u03b2,\u03b2\u2032-Dichlorodiisopropyl ether", "DCIP (nematocide)", "DCIP", "Bis(1-chloro-2-propyl) ether", "NSC 2849", "Nemamort", "1-Chloro-2-[(1-chloropropan-2-yl)oxy]propane", "1-Chloro-2-(1-chloropropan-2-yloxy)propane"], "SMILES": "O(C(CCl)C)C(CCl)C", "physical_data": {"Molecular Weight": "171.06", "Molecular Formula": "C6H12Cl2O", "Boiling Point": "187 \u00b0C @ Press: 760 Torr", "Melting Point": "-101.8--96.8 \u00b0C", "Density": "1.103 g/cm\u00b3 @ Temp: 20 \u00b0C"}}