{"cas_no": "108-39-4", "cn_name": "\u95f4\u7532\u915a", "en_name": ["m-Cresol", "Phenol, 3-methyl-", "m-Cresol", "3-Methylphenol", "m-Cresylic acid", "m-Kresol", "m-Oxytoluene", "1-Hydroxy-3-methylbenzene", "3-Cresol", "3-Hydroxytoluene", "m-Toluol", "m-Methylphenol", "m-Hydroxytoluene", "meta-Cresol", "NSC 8768"], "SMILES": "CC1=CC(O)=CC=C1", "physical_data": {"Molecular Weight": "108.14", "Molecular Formula": "C7H8O", "Boiling Point": "202 \u00b0C", "Melting Point": "11-12 \u00b0C", "Density": "1.034 g/cm\u00b3 @ Temp: 20 \u00b0C"}}