{"cas_no": "108-45-2", "cn_name": "\u95f4\u82ef\u4e8c\u80fa", "en_name": ["m-Phenylenediamine", "1,3-Benzenediamine", "m-Phenylenediamine", "C.I. Developer 11", "Developer C", "Developer H", "m-Diaminobenzene", "Direct Brown BR", "Developer M", "1,3-Diaminobenzene", "Direct Brown GG", "m-Aminoaniline", "1,3-Phenylenediamine", "m-Benzenediamine", "3-Aminoaniline", "NSC 4776", "1,3-Diaminophenylene", "RT 30H", "MPDA", "KC 16765", "Eposchon B"], "SMILES": "NC1=CC(N)=CC=C1", "physical_data": {"Molecular Weight": "108.14", "Molecular Formula": "C6H8N2", "Boiling Point": "284-287 \u00b0C", "Melting Point": "62-63 \u00b0C", "Density": "1.14 g/cm\u00b3"}}