{"cas_no": "108-78-1", "cn_name": "\u4e09\u805a\u6c30\u80fa", "en_name": ["Melamine", "1,3,5-Triazine-2,4,6-triamine", "Melamine", "s-Triazine, 4,6-diamino-1,2-dihydro-2-imino-", "Cyanuramide", "Cyanurotriamide", "Cyanurotriamine", "2,4,6-Triamino-s-triazine", "1,3,5-Triazine-2,4,6(1H,3H,5H)-triimine", "Triaminotriazine", "Isomelamine", "2,4,6-Triaminotriazine", "Teoharn", "Theoharn", "Virset 656-4", "2,4,6-Triamino-1,3,5-triazine", "s-Triazinetriamine", "Pluragard C 133", "Pluragard", "Triamino-s-triazine", "DG 002 (amine)", "DG 002", "ZS 27", "ADK Stab ZS 27", "Mark ZS 27", "Yukamelamine", "Spinflam ML 94M", "2,4,6-Triamino-1,2,3-triazine", "PC 1", "NSC 2130", "Flammex MEL", "Mitsui 2020A", "Melamine 2020A", "Melafine", "Mel F 40", "Melamine HM", "Micromel 325", "T 518", "H 882", "PMN 500", "M 2659", "Relugan XD", "SM 1013", "D-ACE 557", "GPH-LD", "JLS Melamine", "A 11295", "Aflammit PMN 500", "AF-PMN 500", "MEL AR", "MC 30", "MC 30 (flame retardant)", "Metopac MMSCC 99", "MH 00121", "LF 8500 (amine)", "LF 8500", "LF 8500 (crosslinking agent)"], "SMILES": "NC=1N=C(N)N=C(N)N1", "physical_data": {"Molecular Weight": "126.12", "Molecular Formula": "C3H6N6", "Melting Point": "&lt;250 \u00b0C", "Density": "1.573 g/cm\u00b3 @ Temp: 14 \u00b0C"}}