{"cas_no": "108-31-6", "cn_name": "\u9a6c\u6765\u9178\u9150", "en_name": ["Maleic anhydride", "2,5-Furandione", "Maleic anhydride", "cis-Butenedioic anhydride", "Maleic acid anhydride", "Toxilic anhydride", "Dihydro-2,5-dioxofuran", "BM 10", "Nourymix MA 901", "Crystal Man", "Crystal Man AB", "NSC 137651", "NSC 137652", "NSC 137653", "NSC 9568", "HG 3-993-76", "M 188", "2,5-Dihydrofuran-2,5-dione", "SY-A", "WS 8201", "GR 216", "A 1018", "Baolilong A 1018", "HA 59", "M 116389", "UMEX", "MeSH ID: D008299"], "SMILES": "O=C1OC(=O)C=C1", "physical_data": {"Molecular Weight": "98.06", "Molecular Formula": "C4H2O3", "Boiling Point": "202.0 \u00b0C @ Press: 760 Torr", "Melting Point": "52.8 \u00b0C", "Density": "1.48 g/cm\u00b3"}}