{"cas_no": "108-77-0", "cn_name": "\u4e09\u805a\u6c2f\u6c30", "en_name": ["Cyanuric chloride", "1,3,5-Triazine, 2,4,6-trichloro-", "s-Triazine, 2,4,6-trichloro-", "2,4,6-Trichloro-1,3,5-triazine", "Cyanuric trichloride", "Trichlorocyanidine", "Trichloro-s-triazine", "2,4,6-Trichloro-s-triazine", "Cyanur chloride", "Cyanuryl chloride", "Cyanuric chloride", "1,3,5-Trichlorotriazine", "s-Triazine trichloride", "2,4,6-Trichlorotriazine", "sym-Trichlorotriazine", "2,4,6-Trichloro-sym-triazine", "Isocyanuric trichloride", "1,3,5-Trichloro-2,4,6-triazine", "Zorugeru W 08", "Solgel W 08", "NSC 3512"], "SMILES": "ClC=1N=C(Cl)N=C(Cl)N1", "physical_data": {"Molecular Weight": "184.41", "Molecular Formula": "C3Cl3N3", "Boiling Point": "192 \u00b0C", "Melting Point": "146 \u00b0C", "Density": "1.32 g/cm\u00b3"}}