{"cas_no": "108-18-9", "cn_name": "\u4e8c\u5f02\u4e19\u80fa", "en_name": ["Diisopropylamine", "2-Propanamine, N-(1-methylethyl)-", "Diisopropylamine", "N-(1-Methylethyl)-2-propanamine", "N,N-Diisopropylamine", "Bis(isopropyl)amine", "NSC 6758", "N-(Propan-2-yl)propan-2-amine", "Bis(1-methylethyl)amine", "N-Isopropylpropan-2-amine", "Bis(propan-2-yl)amine", "D 0925"], "SMILES": "N(C(C)C)C(C)C", "physical_data": {"Molecular Weight": "101.19", "Molecular Formula": "C6H15N", "Boiling Point": "84 \u00b0C @ Press: 760 Torr", "Melting Point": "-61 \u00b0C", "Density": "0.7169 g/cm\u00b3 @ Temp: 20 \u00b0C"}}