{"cas_no": "108-68-9", "cn_name": "3,5-\u4e8c\u7532\u57fa\u82ef\u915a", "en_name": ["3,5-Dimethylphenol", "Phenol, 3,5-dimethyl-", "3,5-Xylenol", "3,5-Dimethylphenol", "1-Hydroxy-3,5-dimethylbenzene", "1,3,5-Xylenol", "NSC 9268"], "SMILES": "CC1=CC(C)=CC(O)=C1", "physical_data": {"Molecular Weight": "122.16", "Molecular Formula": "C8H10O", "Boiling Point": "219.5 \u00b0C", "Melting Point": "64 \u00b0C", "Density": "0.9680 g/cm\u00b3 @ Temp: 20 \u00b0C"}}