{"cas_no": "108-94-1", "cn_name": "\u73af\u5df1\u916e", "en_name": ["Cyclohexanone", "Cyclohexanone", "Anone", "Hexanon", "Hytrol O", "Nadone", "Pimelic ketone", "Pimelin ketone", "Sextone", "Anon", "NSC 5711", "C 0489", "HJT 187231"], "SMILES": "O=C1CCCCC1", "physical_data": {"Molecular Weight": "98.14", "Molecular Formula": "C6H10O", "Boiling Point": "1.4 \u00b0C @ Press: 1.0 Torr", "Melting Point": "-31 \u00b0C", "Density": "0.9478 g/cm\u00b3 @ Temp: 20 \u00b0C"}}