{"cas_no": "108-21-4", "cn_name": "\u918b\u9178\u5f02\u4e19\u916f", "en_name": ["Isopropyl acetate", "Acetic acid, 1-methylethyl ester", "Acetic acid, isopropyl ester", "Isopropyl acetate", "2-Propyl acetate", "2-Acetoxypropane", "Isopropyl ethanoate", "1-Methylethyl acetate", "NSC 9295"], "SMILES": "O(C(C)C)C(C)=O", "physical_data": {"Molecular Weight": "102.13", "Molecular Formula": "C5H10O2", "Boiling Point": "88.6 \u00b0C @ Press: 760 Torr", "Melting Point": "-73.4 \u00b0C", "Density": "0.8718 g/cm\u00b3 @ Temp: 20 \u00b0C"}}