{"cas_no": "108-48-5", "cn_name": "2,6-\u4e8c\u7532\u57fa\u5421\u5576", "en_name": ["2,6-Lutidine", "Pyridine, 2,6-dimethyl-", "2,6-Lutidine", "2,6-Dimethylpyridine", "\u03b1,\u03b1\u2032-Lutidine", "\u03b1,\u03b1\u2032-Dimethylpyridine", "NSC 2155"], "SMILES": "CC=1N=C(C)C=CC1", "physical_data": {"Molecular Weight": "107.15", "Molecular Formula": "C7H9N", "Boiling Point": "144 \u00b0C @ Press: 760 Torr", "Melting Point": "-5.8 \u00b0C", "Density": "0.9252 g/cm\u00b3 @ Temp: 20 \u00b0C"}}