{"cas_no": "108-58-7", "cn_name": "1,3-\u4e8c\u4e59\u9170\u6c27\u57fa\u82ef", "en_name": ["1,3-Benzenediol, 1,3-diacetate", "1,3-Benzenediol, 1,3-diacetate", "Resorcinol, diacetate", "1,3-Benzenediol, diacetate", "1,3-Dihydroxybenzene diacetate", "m-Phenylenediacetate", "1,3-Diacetoxybenzene", "m-Dihydroxybenzene diacetate", "NSC 4885", "m-Acetoxyphenyl acetate", "m-Diacetoxybenzene", "(3-Acetyloxyphenyl) acetate"], "SMILES": "O(C(C)=O)C1=CC(OC(C)=O)=CC=C1", "physical_data": {"Molecular Weight": "194.18", "Molecular Formula": "C10H10O4", "Boiling Point": "266 \u00b0C @ Press: 625 Torr", "Melting Point": "145-146 \u00b0C"}}