{"cas_no": "108-75-8", "cn_name": "2,4,6-\u4e09\u7532\u57fa\u5421\u5576", "en_name": ["2,4,6-Trimethylpyridine", "Pyridine, 2,4,6-trimethyl-", "2,4,6-Trimethylpyridine", "s-Collidine", "sym-Collidine", "\u03b1,\u03b3,\u03b1\u2032-Collidine", "\u03b3-Collidine", "2,4,6-Collidine", "NSC 460"], "SMILES": "CC=1C=C(C)N=C(C)C1", "physical_data": {"Molecular Weight": "121.18", "Molecular Formula": "C8H11N", "Boiling Point": "170.4 \u00b0C", "Melting Point": "-44.5 \u00b0C", "Density": "0.913 g/cm\u00b3 @ Temp: 20 \u00b0C"}}