{"cas_no": "108-08-7", "cn_name": "2,4-\u4e8c\u7532\u57fa\u620a\u70f7", "en_name": ["2,4-Dimethylpentane", "Pentane, 2,4-dimethyl-", "2,4-Dimethylpentane", "NSC 61989"], "SMILES": "C(C(C)C)C(C)C", "physical_data": {"Molecular Weight": "100.20", "Molecular Formula": "C7H16", "Boiling Point": "80.4 \u00b0C", "Melting Point": "-119.9 \u00b0C", "Density": "0.6971 g/cm\u00b3 @ Temp: 0 \u00b0C"}}