{"cas_no": "108-36-1", "cn_name": "1,3-\u4e8c\u6eb4\u82ef", "en_name": ["1,3-Dibromobenzene", "Benzene, 1,3-dibromo-", "Benzene, m-dibromo-", "1,3-Dibromobenzene", "m-Dibromobenzene", "1-Bromo-3-bromobenzene"], "SMILES": "BrC1=CC(Br)=CC=C1", "physical_data": {"Molecular Weight": "235.90", "Molecular Formula": "C6H4Br2", "Boiling Point": "218 \u00b0C", "Melting Point": "-7 \u00b0C", "Density": "1.9523 g/cm\u00b3 @ Temp: 20.4 \u00b0C"}}