{"cas_no": "108-99-6", "cn_name": "3-\u7532\u57fa\u5421\u5576", "en_name": ["3-Methylpyridine", "Pyridine, 3-methyl-", "3-Picoline", "3-Methylpyridine", "\u03b2-Picoline", "\u03b2-Methylpyridine", "m-Picoline", "m-Methylpyridine", "NSC 18251"], "SMILES": "CC=1C=CC=NC1", "physical_data": {"Molecular Weight": "93.13", "Molecular Formula": "C6H7N", "Boiling Point": "143-144 \u00b0C", "Melting Point": "-18.1 \u00b0C", "Density": "0.9566 g/cm\u00b3 @ Temp: 20 \u00b0C"}}