{"cas_no": "108-98-5", "cn_name": "\u82ef\u786b\u915a", "en_name": ["Thiophenol", "Benzenethiol", "Phenol, thio-", "Phenyl mercaptan", "Thiophenol", "Mercaptobenzene", "Phenylthiol", "NSC 6953", "Phenyl hydrosulfide"], "SMILES": "SC1=CC=CC=C1", "physical_data": {"Molecular Weight": "110.18", "Molecular Formula": "C6H6S", "Boiling Point": "168.3 \u00b0C", "Melting Point": "-14.9 \u00b0C", "Density": "1.0728 g/cm\u00b3 @ Temp: 25 \u00b0C"}}