{"cas_no": "108-59-8", "cn_name": "\u4e19\u4e8c\u9178\u4e8c\u7532\u916f", "en_name": ["Dimethyl malonate", "Propanedioic acid, 1,3-dimethyl ester", "Malonic acid, dimethyl ester", "Propanedioic acid, dimethyl ester", "Dimethyl malonate", "Methyl malonate", "Dimethyl propanedioate", "Dimethyl 1,3-propanedioate", "NSC 620046"], "SMILES": "C(C(OC)=O)C(OC)=O", "physical_data": {"Molecular Weight": "132.11", "Molecular Formula": "C5H8O4", "Boiling Point": "181.4 \u00b0C", "Melting Point": "-61.9 \u00b0C", "Density": "1.1585 g/cm\u00b3 @ Temp: 15 \u00b0C"}}