{"cas_no": "108-14-5", "cn_name": "2-\u6c2f-1-\u4e8c\u7532\u6c28\u57fa\u4e19\u70f7", "en_name": ["2-Chloro-N,N-dimethyl-1-propanamine", "1-Propanamine, 2-chloro-N,N-dimethyl-", "Propylamine, 2-chloro-N,N-dimethyl-", "2-Chloro-N,N-dimethyl-1-propanamine", "2-Chloro-N,N-dimethylpropylamine", "2-(Dimethylamino)-1-methylethyl chloride", "2-Chloro-1-(dimethylamino)propane", "\u03b2-Dimethylaminoisopropyl chloride", "1-Dimethylamino-2-chloropropane", "(2-Chloropropyl)dimethylamine", "1-Methyl-2-(dimethylamino)ethyl chloride"], "SMILES": "C(C(C)Cl)N(C)C", "physical_data": {"Molecular Weight": "121.61", "Molecular Formula": "C5H12ClN", "Boiling Point": "62-63 \u00b0C @ Press: 100-110 Torr", "Density": "0.9093 g/cm\u00b3 @ Temp: 20 \u00b0C"}}