{"cas_no": "1080-06-4", "cn_name": "L-\u916a\u6c28\u9178\u7532\u916f", "en_name": ["L-Tyrosine, methyl ester", "L-Tyrosine, methyl ester", "Tyrosine, methyl ester, L-", "Methyl L-tyrosinate", "Tyrosine methyl ester", "Methyl tyrosinate", "Methyl (2S)-3-(4-hydroxyphenyl)-2-aminopropionate", "Methyl (2S)-2-amino-3-(4-hydroxyphenyl)propionate", "(S)-2-Amino-3-(4-hydroxyphenyl)propionic acid methyl ester", "Methyl (S)-2-amino-3-(4-hydroxyphenyl)propanoate", "S-Tyrosine methyl ester", "Methyl (2S)-2-amino-3-(4-hydroxyphenyl)propanoate"], "SMILES": "C(C(C(OC)=O)N)C1=CC=C(O)C=C1", "physical_data": {"Molecular Weight": "195.22", "Molecular Formula": "C10H13NO3", "Melting Point": "135-139 \u00b0C"}}