{"cas_no": "1080-44-0", "cn_name": "N-\u5bf9\u7532\u82ef\u78fa\u9170\u7518\u6c28\u9178", "en_name": ["N-[(4-Methylphenyl)sulfonyl]glycine", "Glycine, N-[(4-methylphenyl)sulfonyl]-", "Glycine, N-(p-tolylsulfonyl)-", "N-[(4-Methylphenyl)sulfonyl]glycine", "Tosylglycine", "(p-Toluenesulfonyl)glycine", "N-(p-Tolylsulfonyl)glycine", "N-Tosylglycine", "N-p-Tosylglycine", "N-(p-Toluenesulfonyl)glycine", "NSC 25821", "N-p-(Toluenesulfonyl)aminoacetic acid", "[[(4-Methylphenyl)sulfonyl]amino]acetic acid", "[(Toluene-4-sulfonyl)amino]acetic acid", "2-(4-Methylphenylsulfonamido)acetic acid", "2-[(4-Methylphenyl)sulfonylamino]acetic acid", "2-(4-Methylbenzenesulfonamido)acetic acid"], "SMILES": "S(NCC(O)=O)(=O)(=O)C1=CC=C(C)C=C1", "physical_data": {"Molecular Weight": "229.25", "Molecular Formula": "C9H11NO4S", "Melting Point": "149-150 \u00b0C"}}