{"cas_no": "1080-32-6", "cn_name": "\u82ef\u57fa\u81a6\u9178\u4e8c\u4e59\u916f", "en_name": ["Diethyl P-(phenylmethyl)phosphonate", "Phosphonic acid, P-(phenylmethyl)-, diethyl ester", "Phosphonic acid, benzyl-, diethyl ester", "Phosphonic acid, (phenylmethyl)-, diethyl ester", "Diethyl P-(phenylmethyl)phosphonate", "Diethyl benzylphosphonate", "(Diethoxyphosphonomethyl)benzene", "Benzyl diethyl phosphonate", "Diethyl (phenylmethyl)phosphonate", "NSC 62294", "Benzylphosphonic acid diethyl ester", "JC 228"], "SMILES": "P(CC1=CC=CC=C1)(OCC)(OCC)=O", "physical_data": {"Molecular Weight": "228.22", "Molecular Formula": "C11H17O3P", "Boiling Point": "153-155 \u00b0C @ Press: 12 Torr", "Melting Point": "90 \u00b0C", "Density": "1.1189 g/cm\u00b3 @ Temp: 00 \u00b0C"}}