{"cas_no": "1080-07-5", "cn_name": "3-\u6eb4-4-\u7532\u6c27\u57fa\u8089\u6842\u9178", "en_name": ["3-(3-Bromo-4-methoxyphenyl)-2-propenoic acid", "2-Propenoic acid, 3-(3-bromo-4-methoxyphenyl)-", "Cinnamic acid, 3-bromo-4-methoxy-", "3-(3-Bromo-4-methoxyphenyl)-2-propenoic acid", "3-Bromo-4-methoxycinnamic acid"], "SMILES": "C(=CC(O)=O)C1=CC(Br)=C(OC)C=C1", "physical_data": {"Molecular Weight": "257.08", "Molecular Formula": "C10H9BrO3", "Melting Point": "241-243 \u00b0C"}}