{"cas_no": "1080-12-2", "cn_name": "\u9999\u8349\u919b\u7e2e\u4e19\u916e", "en_name": ["Dehydrozingerone", "3-Buten-2-one, 4-(4-hydroxy-3-methoxyphenyl)-", "4-(4-Hydroxy-3-methoxyphenyl)-3-buten-2-one", "3-Methoxy-4-hydroxybenzalacetone", "Dehydrozingerone", "Feruloylmethane", "[0]-Paradol, dehydro-", "Dehydro[0]-paradol", "4-Hydroxy-3-methoxystyryl methyl ketone", "4-Hydroxy-3-methoxybenzylideneacetone", "Vanillalacetone", "NSC 26613", "NSC 4019", "NSC 44708", "NSC 45411", "NSC 5316", "Dehydrogingerone"], "SMILES": "C(=CC(C)=O)C1=CC(OC)=C(O)C=C1", "physical_data": {"Molecular Weight": "192.21", "Molecular Formula": "C11H12O3", "Melting Point": "129 \u00b0C"}}