{"cas_no": "1081-34-1", "cn_name": "alpha-\u4e09\u8054\u567b\u5429", "en_name": ["2,2\u2032:5\u2032,2\u2032\u2032-Terthiophene", "2,2\u2032:5\u2032,2\u2032\u2032-Terthiophene", "2,2\u2032-Bithiophene, 5-(2-thienyl)-", "\u03b1-Terthienyl", "2,2\u2032:5\u2032,2\u2032\u2032-Terthienyl", "\u03b1-Terthiophene", "2,2\u2032,2\u2032\u2032-Terthiophene", "\u03b1-Trithienyl", "Trithiophene", "2,5-Di(2-thienyl)thiophene"], "SMILES": "C=1(SC(=CC1)C2=CC=CS2)C3=CC=CS3", "physical_data": {"Molecular Weight": "248.39", "Molecular Formula": "C12H8S3", "Melting Point": "93-94 \u00b0C"}}