{"cas_no": "1081-77-2", "cn_name": "\u6b63\u58ec\u57fa\u82ef", "en_name": ["n-Nonylbenzene", "Benzene, nonyl-", "Nonane, 1-phenyl-", "Nonylbenzene", "1-Phenylnonane", "n-Nonylbenzene", "1-Nonylbenzene"], "SMILES": "C(CCCCCCCC)C1=CC=CC=C1", "physical_data": {"Molecular Weight": "204.35", "Molecular Formula": "C15H24", "Boiling Point": "280.5 \u00b0C", "Melting Point": "-24 \u00b0C", "Density": "0.8636 g/cm\u00b3 @ Temp: 20 \u00b0C"}}