{"cas_no": "108102-49-4", "cn_name": "L-\u82cf\u6c28\u9187", "en_name": ["rel-(2R,3R)-2-Amino-1,3-butanediol", "1,3-Butanediol, 2-amino-, (2R,3R)-rel-", "1,3-Butanediol, 2-amino-, (R*,R*)-(\u00b1)-", "rel-(2R,3R)-2-Amino-1,3-butanediol", "DL-Threoninol", "1,3-Butanediol, 2-amino-, (R*,R*)-", "Threoninol"], "SMILES": "C(C(C)O)(CO)N", "physical_data": {"Molecular Weight": "105.14", "Molecular Formula": "C4H11NO2", "Melting Point": "122 \u00b0C"}}