{"cas_no": "108149-63-9", "cn_name": "(R)-3-\u53d4\u4e01\u6c27\u7fb0\u57fa-2,2-\u4e8c\u7532\u57fa-4-\u7f9f\u7532\u57fa\u6076\u5511\u70f7", "en_name": ["1,1-Dimethylethyl (4R)-4-hydroxymethyl-2,2-dimethyloxazolidine-3-carboxylate", "3-Oxazolidinecarboxylic acid, 4-(hydroxymethyl)-2,2-dimethyl-, 1,1-dimethylethyl ester, (4R)-", "3-Oxazolidinecarboxylic acid, 4-(hydroxymethyl)-2,2-dimethyl-, 1,1-dimethylethyl ester, (R)-", "(R)-4-Hydroxymethyl-2,2-dimethyloxazolidine-3-carboxylic acid tert-butyl ester", "1,1-Dimethylethyl (4R)-4-hydroxymethyl-2,2-dimethyloxazolidine-3-carboxylate", "(R)-4-Hydroxymethyl-2,2-dimethyloxazolidine-3-carboxylic acid tert-butyl ester", "(R)-tert-Butyl4-(hydroxymethyl)-2,2-dimethyloxazolidine-3-carboxylate"], "SMILES": "C(OC(C)(C)C)(=O)N1C(CO)COC1(C)C", "physical_data": {"Molecular Weight": "231.29", "Molecular Formula": "C11H21NO4", "Melting Point": "35-38 \u00b0C"}}