{"cas_no": "1081-71-6", "cn_name": "4-\u7f9f\u57fa-3-\u7532\u6c27\u57fa\u82ef\u57fa\u4e19\u916e\u9178", "en_name": ["Vanilpyruvic acid", "Benzenepropanoic acid, 4-hydroxy-3-methoxy-\u03b1-oxo-", "Pyruvic acid, (4-hydroxy-3-methoxyphenyl)-", "4-Hydroxy-3-methoxy-\u03b1-oxobenzenepropanoic acid", "Guaiacylpyruvic acid", "4-Hydroxy-3-methoxyphenylpyruvic acid", "3-Methoxy-4-hydroxyphenylpyruvic acid", "Vanilpyruvic acid", "Vanylpyruvic acid", "NSC 302091", "4-Hydroxy-3-methoxy-Phenylacetylformic acid"], "SMILES": "C(C(C(O)=O)=O)C1=CC(OC)=C(O)C=C1", "physical_data": {"Molecular Weight": "210.18", "Molecular Formula": "C10H10O5", "Melting Point": "161 \u00b0C"}}