{"cas_no": "1081-75-0", "cn_name": "1,3-\u4e8c\u82ef\u4e19\u70f7", "en_name": ["1,3-Diphenylpropane", "Benzene, 1,1\u2032-(1,3-propanediyl)bis-", "Propane, 1,3-diphenyl-", "1,1\u2032-(1,3-Propanediyl)bis[benzene]", "1,3-Diphenylpropane", "NSC 54371", "3-Phenyl-propyl-benzene", "3-Phenylpropylbenzene"], "SMILES": "C(CCC1=CC=CC=C1)C2=CC=CC=C2", "physical_data": {"Molecular Weight": "196.29", "Molecular Formula": "C15H16", "Boiling Point": "300.3 \u00b0C", "Melting Point": "6 \u00b0C", "Density": "0.9982 g/cm\u00b3 @ Temp: 17.6 \u00b0C"}}