{"cas_no": "1081-73-8", "cn_name": "1-(2-(4-\u6eb4\u82ef\u6c27\u57fa)\u4e59\u57fa)\u5421\u54af\u70f7", "en_name": ["1-[2-(4-Bromophenoxy)ethyl]pyrrolidine", "Pyrrolidine, 1-[2-(4-bromophenoxy)ethyl]-", "Pyrrolidine, 1-[2-(p-bromophenoxy)ethyl]-", "1-[2-(4-Bromophenoxy)ethyl]pyrrolidine", "4-[2-Pyrrolidinoethoxy]phenyl bromide"], "SMILES": "O(CCN1CCCC1)C2=CC=C(Br)C=C2", "physical_data": {"Molecular Weight": "270.17", "Molecular Formula": "C12H16BrNO", "Boiling Point": "119-123 \u00b0C @ Press: 2.5 Torr"}}