{"cas_no": "1082-85-5", "cn_name": "N-(4-\u4e59\u9170\u82ef\u57fa)-2,5-\u9a6c\u6765\u9170\u4e9a\u80fa", "en_name": ["N-(4-Acetylphenyl)maleimide", "1H-Pyrrole-2,5-dione, 1-(4-acetylphenyl)-", "Maleimide, N-(p-acetylphenyl)-", "1-(4-Acetylphenyl)-1H-pyrrole-2,5-dione", "N-(4-Acetylphenyl)maleimide", "N-(p-Acetylphenyl)maleimide", "NSC 209075", "1-(4-Acetylphenyl)-2,5-dihydro-1H-pyrrole-2,5-dione", "1-(4-Acetylphenyl)pyrrole-2,5-dione"], "SMILES": "O=C1N(C2=CC=C(C(C)=O)C=C2)C(=O)C=C1", "physical_data": {"Molecular Weight": "215.20", "Molecular Formula": "C12H9NO3", "Melting Point": "157.5-160 \u00b0C"}}