{"cas_no": "108282-38-8", "cn_name": "4-\u6c28\u57fa-5-\u6c2f-2-\u4e59\u6c27\u57fa\u82ef\u7532\u9178", "en_name": ["4-Amino-5-chloro-2-ethoxybenzoic acid", "Benzoic acid, 4-amino-5-chloro-2-ethoxy-", "4-Amino-5-chloro-2-ethoxybenzoic acid", "2-Ethoxy-4-amino-5-chlorobenzoic acid"], "SMILES": "C(O)(=O)C1=C(OCC)C=C(N)C(Cl)=C1", "physical_data": {"Molecular Weight": "215.63", "Molecular Formula": "C9H10ClNO3", "Melting Point": "167-168 \u00b0C"}}