{"cas_no": "1083-27-8", "cn_name": "4-\u7f9f\u57fa\u82ef\u7532\u9178\u6b63\u5df1\u916f", "en_name": ["Hexyl 4-hydroxybenzoate", "Benzoic acid, 4-hydroxy-, hexyl ester", "Benzoic acid, p-hydroxy-, hexyl ester", "Hexyl 4-hydroxybenzoate", "Hexyl p-hydroxybenzoate", "n-Hexyl 4-hydroxybenzoate", "Hexylparaben", "UA 12690", "4-Hydroxybenzoic acid hexyl ester"], "SMILES": "C(OCCCCCC)(=O)C1=CC=C(O)C=C1", "physical_data": {"Molecular Weight": "222.28", "Molecular Formula": "C13H18O3", "Melting Point": "48.6 \u00b0C"}}