{"cas_no": "1083-57-4", "cn_name": "\u7f9f\u4e01\u9170\u80fa\u82ef\u919a", "en_name": ["Bucetin", "Butanamide, N-(4-ethoxyphenyl)-3-hydroxy-", "p-Butyrophenetidide, 3-hydroxy-", "N-(4-Ethoxyphenyl)-3-hydroxybutanamide", "Bucetin", "3-Hydroxy-p-butyrophenetidide", "\u03b2-Hydroxybutyric acid p-phenetidide", "p-Ethoxy-N-(\u03b2-hydroxybutyryl)aniline", "Betadid", "N-(\u03b2-Hydroxybutyryl)-p-phenetidine", "(\u00b1)-Bucetin"], "SMILES": "N(C(CC(C)O)=O)C1=CC=C(OCC)C=C1", "physical_data": {"Molecular Weight": "223.27", "Molecular Formula": "C12H17NO3", "Melting Point": "160 \u00b0C"}}