{"cas_no": "1083-41-6", "cn_name": "\u6ca1\u98df\u5b50\u9178\u6b63\u4e01\u57fa \u916f", "en_name": ["Butyl gallate", "Benzoic acid, 3,4,5-trihydroxy-, butyl ester", "Gallic acid, butyl ester", "Butyl gallate", "Progallin butyl", "Butyl 3,4,5-trihydroxybenzoate", "NSC 33956"], "SMILES": "C(OCCCC)(=O)C1=CC(O)=C(O)C(O)=C1", "physical_data": {"Molecular Weight": "226.23", "Molecular Formula": "C11H14O5", "Melting Point": "133-134 \u00b0C"}}