{"cas_no": "1083-48-3", "cn_name": "4-(4-\u785d\u57fa\u82c4\u57fa)\u5421\u5576", "en_name": ["4-(4-Nitrobenzyl)pyridine", "Pyridine, 4-[(4-nitrophenyl)methyl]-", "Pyridine, 4-(p-nitrobenzyl)-", "4-[(4-Nitrophenyl)methyl]pyridine", "\u03b3-(p-Nitrobenzyl)pyridine", "4-(p-Nitrobenzyl)pyridine", "4-(4-Nitrobenzyl)pyridine", "\u03b3-(4-Nitrobenzyl)pyridine", "4-(4\u2032-Nitrobenzyl)pyridine", "NSC 83591"], "SMILES": "C(C1=CC=C(N(=O)=O)C=C1)C=2C=CN=CC2", "physical_data": {"Molecular Weight": "214.22", "Molecular Formula": "C12H10N2O2", "Melting Point": "70-72 \u00b0C"}}