{"cas_no": "1083168-94-8", "cn_name": "2-\u7532\u6c27\u57fa-3-\u785d\u57fa\u5421\u5576-5-\u787c\u9178\u9891\u54ea\u9187\u916f", "en_name": ["2-Methoxy-3-nitro-5-(4,4,5,5-tetramethyl-1,3,2-dioxaborolan-2-yl)pyridine", "Pyridine, 2-methoxy-3-nitro-5-(4,4,5,5-tetramethyl-1,3,2-dioxaborolan-2-yl)-", "2-Methoxy-3-nitro-5-(4,4,5,5-tetramethyl-1,3,2-dioxaborolan-2-yl)pyridine"], "SMILES": "CC1(C)OB(OC1(C)C)C=2C=C(N(=O)=O)C(OC)=NC2", "physical_data": {"Molecular Weight": "280.08", "Molecular Formula": "C12H17BN2O5", "Melting Point": "107-109 \u00b0C"}}