{"cas_no": "1083-30-3", "cn_name": "\u03c9-\u82c4\u57fa\u82ef\u4e59\u916e", "en_name": ["Dihydrochalcone", "1-Propanone, 1,3-diphenyl-", "Propiophenone, 3-phenyl-", "Propiophenone, \u03b2-phenyl-", "1,3-Diphenyl-1-propanone", "Dihydrochalcone", "Hydrochalcone", "Hydrocinnamophenone", "2-Phenethyl phenyl ketone", "1,3-Diphenyl-1-oxopropane", "Phenethyl phenyl ketone", "\u03b2-Phenylpropiophenone", "\u03c9-Benzylacetophenone", "Benzylacetophenone", "Phenyl phenethyl ketone", "3-Phenylpropiophenone", "2-Benzylacetophenone", "Phenylethyl phenyl ketone", "1-Benzoyl-2-phenylethane", "2,3-Dihydrobenzalacetophenone", "NSC 12245"], "SMILES": "C(CCC1=CC=CC=C1)(=O)C2=CC=CC=C2", "physical_data": {"Molecular Weight": "210.27", "Molecular Formula": "C15H14O", "Boiling Point": "145-150 \u00b0C @ Press: 7 Torr", "Melting Point": "72 \u00b0C", "Density": "1.0614 g/cm\u00b3 @ Temp: 23 \u00b0C"}}