{"cas_no": "1084-76-0", "cn_name": "N-(2,4-\u4e8c\u785d\u57fa\u82ef\u57fa)\u6c28\u57fa\u4e59\u9178", "en_name": ["N-(2,4-Dinitrophenyl)glycine", "Glycine, N-(2,4-dinitrophenyl)-", "N-(2,4-Dinitrophenyl)glycine", "2,4-Dinitrophenylglycine", "N\u03b1-2,4-Dinitrophenylglycine", "N-2,4-DNP-glycine", "DNP-glycine", "NSC 37410", "2-(2,4-Dinitroanilino)acetic acid", "2-[(2,4-Dinitrophenyl)amino]acetic acid"], "SMILES": "N(=O)(=O)C1=C(NCC(O)=O)C=CC(N(=O)=O)=C1", "physical_data": {"Molecular Weight": "241.16", "Molecular Formula": "C8H7N3O6", "Melting Point": "205 \u00b0C"}}