{"cas_no": "1084-65-7", "cn_name": "\u84b2\u786b\u6742\u8336\u78fa\u80fa", "en_name": ["Arresten", "2H-1-Benzothiopyran-7-sulfonamide, 3,4-dihydro-6-methyl-, 1,1-dioxide", "Thiochroman-7-sulfonamide, 6-methyl-, 1,1-dioxide", "6-Methyl-7-sulfamide-thiochromane 1,1-dioxode", "Meticrane", "Meticran", "6-Methylthiochroman-7-sulfonamide 1,1-dioxide", "6-Methyl-7-sulfamoylthiochroman 1,1-dioxide", "Fontilix", "E 103E", "SD 171-02", "Arresten", "SD 17102"], "SMILES": "O=S1(=O)C=2C(=CC(C)=C(S(N)(=O)=O)C2)CCC1", "physical_data": {"Molecular Weight": "275.34", "Molecular Formula": "C10H13NO4S2", "Melting Point": "236.5 \u00b0C"}}