{"cas_no": "108511-98-4", "cn_name": "4-\u6c28\u57fa\u5f02\u6076\u5511\u76d0\u9178\u76d0", "en_name": ["4-Isoxazolamine, hydrochloride (1:1)", "4-Isoxazolamine, hydrochloride (1:1)", "4-Isoxazolamine, monohydrochloride", "Isoxazol-4-amine hydrochloride", "1,2-Oxazol-4-amine hydrochloride", "4-Aminoisoxazole hydrochloride"], "SMILES": "NC=1C=NOC1.Cl", "physical_data": {"Molecular Weight": "", "Molecular Formula": "C3H4N2O.ClH", "Melting Point": "160-163 \u00b0C"}}