{"cas_no": "1085-12-7", "cn_name": "\u5c3c\u6cca\u91d1\u5e9a\u916f", "en_name": ["Heptyl p-hydroxybenzoate", "Benzoic acid, 4-hydroxy-, heptyl ester", "Benzoic acid, p-hydroxy-, heptyl ester", "Heptyl alcohol, p-hydroxybenzoate", "Heptyl p-hydroxybenzoate", "n-Heptyl p-hydroxybenzoate", "Staypro WS 7", "Heptyl paraben", "Heptyl 4-hydroxybenzoate", "Nipaheptyl", "n-Heptyl 4-hydroxybenzoate", "NSC 309818"], "SMILES": "C(OCCCCCCC)(=O)C1=CC=C(O)C=C1", "physical_data": {"Molecular Weight": "236.31", "Molecular Formula": "C14H20O3", "Melting Point": "49.8 \u00b0C"}}