{"cas_no": "1085-98-9", "cn_name": "\u6291\u83cc\u7075", "en_name": ["Dichlofluanid", "Methanesulfenamide, 1,1-dichloro-N-[(dimethylamino)sulfonyl]-1-fluoro-N-phenyl-", "Sulfamide, N-[(dichlorofluoromethyl)thio]-N\u2032,N\u2032-dimethyl-N-phenyl-", "1,1-Dichloro-N-[(dimethylamino)sulfonyl]-1-fluoro-N-phenylmethanesulfenamide", "Bayer 47531", "Dichlofluanid", "Euparen", "N-[(Dichlorofluoromethyl)thio]-N\u2032,N\u2032-dimethyl-N-phenylsulfamide", "BAY 47531", "N-Phenyl-N-(fluorodichloromethylsulfenyl)-N\u2032,N\u2032-dimethylsulfamide", "Dichlofluanide", "N,N-Dimethyl-N\u2032-phenyl-N\u2032-(fluorodichloromethylthio)sulfamide", "N\u2032-(Dichlorofluoromethylthio)-N,N-dimethyl-N\u2032-phenylsulfamide", "Oiparen", "N,N-Dimethyl-N\u2032-phenyl-N\u2032-(dichlorofluoromethylthio)sulfamide", "Elvaron", "Pecudin", "Eparen", "Diclofluanide", "Chlormethionate", "Preventol A 4", "Preventol A 4S", "Coatcide TW", "Euparen WG", "Lichenicide 246", "N,N-Dimethyl-N\u2032-(dichlorofluoromethylthio)-N\u2032-phenylsulfamide", "NSC 218451"], "SMILES": "N(S(N(C)C)(=O)=O)(SC(Cl)(Cl)F)C1=CC=CC=C1", "physical_data": {"Molecular Weight": "333.23", "Molecular Formula": "C9H11Cl2FN2O2S2", "Melting Point": "105-105.6 \u00b0C"}}