{"cas_no": "1086-00-6", "cn_name": "1-\u6c2f\u7532\u57fa\u8298", "en_name": ["1-(Chloromethyl)pyrene", "Pyrene, 1-(chloromethyl)-", "1-(Chloromethyl)pyrene", "3-(Chloromethyl)pyrene", "1-Pyrenylmethyl chloride", "NSC 133487"], "SMILES": "C(Cl)C1=C2C3=C4C(C=C2)=CC=CC4=CC=C3C=C1", "physical_data": {"Molecular Weight": "250.72", "Molecular Formula": "C17H11Cl", "Melting Point": "144-145 \u00b0C"}}