{"cas_no": "1086-80-2", "cn_name": "\u5149\u8272\u7d20", "en_name": ["Lumichrome", "Benzo[g]pteridine-2,4(1H,3H)-dione, 7,8-dimethyl-", "Alloxazine, 7,8-dimethyl-", "7,8-Dimethylbenzo[g]pteridine-2,4(1H,3H)-dione", "Lumichrome", "7,8-Dimethylalloxazine", "7,8-Dimethylisoalloxazine", "Riboflavin lumichrome", "NSC 96911"], "SMILES": "O=C1C=2C(NC=3C(N2)=CC(C)=C(C)C3)=NC(=O)N1", "physical_data": {"Molecular Weight": "242.23", "Molecular Formula": "C12H10N4O2", "Melting Point": "&gt;300 \u00b0C"}}