{"cas_no": "1086062-66-9", "cn_name": "GSK2126458", "en_name": ["Omipalisib", "Benzenesulfonamide, 2,4-difluoro-N-[2-methoxy-5-[4-(4-pyridazinyl)-6-quinolinyl]-3-pyridinyl]-", "2,4-Difluoro-N-[2-methoxy-5-[4-(4-pyridazinyl)-6-quinolinyl]-3-pyridinyl]benzenesulfonamide", "GSK 2126458", "Omipalisib", "GSK 458"], "SMILES": "N(S(=O)(=O)C1=C(F)C=C(F)C=C1)C2=CC(C3=CC=4C(=CC=NC4C=C3)C=5C=CN=NC5)=CN=C2OC", "physical_data": {"Molecular Weight": "505.50", "Molecular Formula": "C25H17F2N5O3S", "Melting Point": "187-189 \u00b0C"}}