{"cas_no": "1086378-35-9", "cn_name": "\u7532\u57fa\u82ef\u5e76[D]\u5641\u5511-7-\u7fa7\u9178\u7532\u916f", "en_name": ["Methyl 7-benzoxazolecarboxylate", "7-Benzoxazolecarboxylic acid, methyl ester", "Methyl 7-benzoxazolecarboxylate"], "SMILES": "C(OC)(=O)C1=C2C(=CC=C1)N=CO2", "physical_data": {"Molecular Weight": "177.16", "Molecular Formula": "C9H7NO3", "Melting Point": "116-118 \u00b0C"}}