{"cas_no": "1087-02-1", "cn_name": "1,4-\u4e8c\u73af\u5df1\u57fa\u82ef", "en_name": ["1,4-Dicyclohexylbenzene", "Benzene, 1,4-dicyclohexyl-", "Benzene, p-dicyclohexyl-", "1,4-Dicyclohexylbenzene", "p-Dicyclohexylbenzene", "NSC 6353"], "SMILES": "C1(=CC=C(C=C1)C2CCCCC2)C3CCCCC3", "physical_data": {"Molecular Weight": "242.40", "Molecular Formula": "C18H26", "Boiling Point": "192-195 \u00b0C @ Press: 13 Torr", "Melting Point": "100 \u00b0C"}}