{"cas_no": "1087-21-4", "cn_name": "1,2-\u82ef\u4e8c\u7532\u9178\u4e8c-2-\u4e19\u70ef\u916f", "en_name": ["Diallyl isophthalate", "1,3-Benzenedicarboxylic acid, 1,3-di-2-propen-1-yl ester", "Isophthalic acid, diallyl ester", "1,3-Benzenedicarboxylic acid, di-2-propenyl ester", "Diallyl isophthalate", "Di-2-Propenyl isophthalate", "DAP 100 Monomer", "DAP Monomer 100", "NSC 6098", "Daiso DAP 100 monomer"], "SMILES": "C(OCC=C)(=O)C1=CC(C(OCC=C)=O)=CC=C1", "physical_data": {"Molecular Weight": "246.26", "Molecular Formula": "C14H14O4", "Boiling Point": "120-135 \u00b0C @ Press: 1-4 Torr"}}