{"cas_no": "1088994-22-2", "cn_name": "2-(2-\u5627\u5576\u57fa)-5-\u7532\u57fa\u82ef\u7532\u9178", "en_name": ["5-Methyl-2-(2-pyrimidinyl)benzoic acid", "Benzoic acid, 5-methyl-2-(2-pyrimidinyl)-", "5-Methyl-2-(2-pyrimidinyl)benzoic acid", "5-Methyl-2-(pyrimidin-2-yl)benzoic acid"], "SMILES": "C(O)(=O)C1=C(C=CC(C)=C1)C=2N=CC=CN2", "physical_data": {"Molecular Weight": "214.22", "Molecular Formula": "C12H10N2O2", "Melting Point": "227.6-228.1 \u00b0C"}}