{"cas_no": "1088-56-8", "cn_name": "\u5149\u9ec3\u7d20", "en_name": ["Lumiflavin", "Benzo[g]pteridine-2,4(3H,10H)-dione, 7,8,10-trimethyl-", "Lumiflavine", "Benzo[g]pteridin-2(10H)-one, 4-hydroxy-7,8,10-trimethyl-", "7,8,10-Trimethylbenzo[g]pteridine-2,4(3H,10H)-dione", "Lumiflavin", "7,8,10-Trimethylisoalloxazine", "Lumilactoflavin"], "SMILES": "O=C1C=2C(N(C)C=3C(N2)=CC(C)=C(C)C3)=NC(=O)N1", "physical_data": {"Molecular Weight": "256.26", "Molecular Formula": "C13H12N4O2", "Melting Point": "320 \u00b0C", "Density": "1.48 g/cm\u00b3"}}