{"cas_no": "108853-14-1", "cn_name": "\u77f3\u659b\u915a", "en_name": ["Moscatilin", "Phenol, 4-[2-(4-hydroxy-3-methoxyphenyl)ethyl]-2,6-dimethoxy-", "4-[2-(4-Hydroxy-3-methoxyphenyl)ethyl]-2,6-dimethoxyphenol", "Moscatilin", "Dendrophenol", "Aloifol II", "4-(4-Hydroxy-3-methoxyphenethyl)-2,6-dimethoxyphenol"], "SMILES": "C(CC1=CC(OC)=C(O)C=C1)C2=CC(OC)=C(O)C(OC)=C2", "physical_data": {"Molecular Weight": "304.34", "Molecular Formula": "C17H20O5", "Melting Point": "82-83 \u00b0C"}}