{"cas_no": "1088991-73-4", "cn_name": "FILOREXANT", "en_name": ["MK 6096", "Methanone, [(2R,5R)-5-[[(5-fluoro-2-pyridinyl)oxy]methyl]-2-methyl-1-piperidinyl][5-methyl-2-(2-pyrimidinyl)phenyl]-", "[(2R,5R)-5-[[(5-Fluoro-2-pyridinyl)oxy]methyl]-2-methyl-1-piperidinyl][5-methyl-2-(2-pyrimidinyl)phenyl]methanone", "MK 6096", "Filorexant"], "SMILES": "C(=O)(C1=C(C=CC(C)=C1)C=2N=CC=CN2)N3CC(COC4=CC=C(F)C=N4)CCC3C", "physical_data": {"Molecular Weight": "420.48", "Molecular Formula": "C24H25FN4O2", "Melting Point": "134.8 \u00b0C"}}