{"cas_no": "108998-83-0", "cn_name": "(S)-(-)-1,1,2-\u4e09\u82ef\u57fa-1,2-\u4e59\u4e8c\u9187", "en_name": ["(2S)-1,1,2-Triphenyl-1,2-ethanediol", "1,2-Ethanediol, 1,1,2-triphenyl-, (2S)-", "1,2-Ethanediol, 1,1,2-triphenyl-, (S)-", "(2S)-1,1,2-Triphenyl-1,2-ethanediol", "(S)-1,1,2-Triphenyl-1,2-ethanediol", "(2S)-1,1,2-Triphenylethane-1,2-diol", "1,2-Ethanediol 1,1,2-triphenyl-, (2S)-", "(S)-(-)-1,1,2-Triphenyl-1,2-ethanediol"], "SMILES": "C(C(O)C1=CC=CC=C1)(O)(C2=CC=CC=C2)C3=CC=CC=C3", "physical_data": {"Molecular Weight": "290.36", "Molecular Formula": "C20H18O2", "Melting Point": "127-128 \u00b0C"}}