{"cas_no": "108963-96-8", "cn_name": "Boc-L-\u7126\u8c37\u6c28\u9178\u7532\u916f", "en_name": ["1-(1,1-Dimethylethyl) 2-methyl (2S)-5-oxo-1,2-pyrrolidinedicarboxylate", "1,2-Pyrrolidinedicarboxylic acid, 5-oxo-, 1-(1,1-dimethylethyl) 2-methyl ester, (2S)-", "1,2-Pyrrolidinedicarboxylic acid, 5-oxo-, 1-(1,1-dimethylethyl) 2-methyl ester, (S)-", "1-(1,1-Dimethylethyl) 2-methyl (2S)-5-oxo-1,2-pyrrolidinedicarboxylate", "1-tert-Butyl 2-methyl (2S)-5-oxopyrrolidine-1,2-dicarboxylate", "Methyl N-Boc-L-pyroglutamate", "N-tert-Butoxycarbonylpyroglutamic acid methyl ester", "N-Boc-L-Pyroglutamic acid methyl ester", "1-O-tert-Butyl 2-O-methyl (2S)-5-oxopyrrolidine-1,2-dicarboxylate", "(S)-1-tert-Butyl 2-methyl 5-oxopyrrolidine-1,2-dicarboxylate"], "SMILES": "C(OC(C)(C)C)(=O)N1C(C(OC)=O)CCC1=O", "physical_data": {"Molecular Weight": "243.26", "Molecular Formula": "C11H17NO5", "Melting Point": "67-69 \u00b0C"}}