{"cas_no": "108934-21-0", "cn_name": "2'-METHYL-BIPHENYL-4-CARBALDEHYDE", "en_name": ["2\u2032-Methyl[1,1\u2032-biphenyl]-4-carboxaldehyde", "[1,1\u2032-Biphenyl]-4-carboxaldehyde, 2\u2032-methyl-", "2\u2032-Methyl[1,1\u2032-biphenyl]-4-carboxaldehyde", "2\u2032-Methyl-1,1\u2032-biphenyl-4-carboxaldehyde", "4-Formyl-2\u2032-methylbiphenyl", "2\u2032-Methyl-4-biphenylcarboxaldehyde", "2\u2032-Methylbiphenyl-4-carbaldehyde", "2\u2032-Methyl-[1,1\u2032-biphenyl]-4-carbaldehyde"], "SMILES": "CC1=C(C=CC=C1)C2=CC=C(C=O)C=C2", "physical_data": {"Molecular Weight": "196.24", "Molecular Formula": "C14H12O", "Melting Point": "47-49 \u00b0C"}}