{"cas_no": "109-01-3", "cn_name": "N-\u7532\u57fa\u54cc\u55ea", "en_name": ["1-Methylpiperazine", "Piperazine, 1-methyl-", "1-Methylpiperazine", "N-Methylpiperazine", "NSC 30195", "NSC 30675", "1-Methyl-1,4-piperazine", "N-Methylpiperazine", "1-Methyltetrahydro-1,4-diazine"], "SMILES": "CN1CCNCC1", "physical_data": {"Molecular Weight": "100.16", "Molecular Formula": "C5H12N2", "Boiling Point": "138 \u00b0C", "Melting Point": "-6 \u00b0C", "Density": "0.89928 g/cm\u00b3 @ Temp: 25.00 \u00b0C"}}