{"cas_no": "109-75-1", "cn_name": "\u70ef\u4e19\u57fa\u8148", "en_name": ["3-Butenenitrile", "3-Butenenitrile", "Allyl cyanide", "\u03b2-Butenonitrile", "Vinylacetonitrile", "1-Butene-3-nitrile", "3-Butenylnitrile", "3-Butenonitrile", "3-Cyanopropene", "1-Propene-3-nitrile", "3-Cyano-1-propene", "2-Propenyl cyanide", "NSC 2583"], "SMILES": "C(C=C)C#N", "physical_data": {"Molecular Weight": "67.09", "Molecular Formula": "C4H5N", "Boiling Point": "119 \u00b0C", "Melting Point": "-87 \u00b0C", "Density": "0.83409 g/cm\u00b3 @ Temp: 20 \u00b0C"}}