{"cas_no": "109-08-0", "cn_name": "2-\u7532\u57fa\u5421\u55ea", "en_name": ["Methylpyrazine", "Pyrazine, 2-methyl-", "Pyrazine, methyl-", "2-Methylpyrazine", "Methylpyrazine", "2-Methyl-1,4-diazine", "NSC 30412", "NSC 49138", "Monomethylpyrazine"], "SMILES": "CC=1C=NC=CN1", "physical_data": {"Molecular Weight": "94.11", "Molecular Formula": "C5H6N2", "Boiling Point": "137 \u00b0C", "Melting Point": "-29 \u00b0C", "Density": "1.030 g/cm\u00b3 @ Temp: 20 \u00b0C"}}