{"cas_no": "109-06-8", "cn_name": "2-\u7532\u57fa\u5421\u5576", "en_name": ["2-Methylpyridine", "Pyridine, 2-methyl-", "2-Picoline", "2-Methylpyridine", "\u03b1-Picoline", "\u03b1-Methylpyridine", "o-Picoline", "o-Methylpyridine", "NSC 3409"], "SMILES": "CC1=CC=CC=N1", "physical_data": {"Molecular Weight": "93.13", "Molecular Formula": "C6H7N", "Boiling Point": "128-129 \u00b0C", "Melting Point": "-70 \u00b0C", "Density": "0.9443 g/cm\u00b3 @ Temp: 20 \u00b0C"}}