{"cas_no": "109-07-9", "cn_name": "2-\u7532\u57fa\u54cc\u55ea", "en_name": ["2-Methylpiperazine", "Piperazine, 2-methyl-", "Piperazine, 2-methyl-, (\u00b1)-", "2-Methylpiperazine", "(\u00b1)-2-Methylpiperazine", "NSC 5277"], "SMILES": "CC1CNCCN1", "physical_data": {"Molecular Weight": "100.16", "Molecular Formula": "C5H12N2", "Boiling Point": "153 \u00b0C", "Melting Point": "62 \u00b0C"}}