{"cas_no": "109-64-8", "cn_name": "1,3-\u4e8c\u6eb4\u4e19\u70f7", "en_name": ["1,3-Dibromopropane", "Propane, 1,3-dibromo-", "1,3-Dibromopropane", "\u03b1,\u03b3-Dibromopropane", "\u03c9,\u03c9\u2032-Dibromopropane", "Trimethylene bromide", "Trimethylene dibromide", "NSC 62663", "1,3-Bis(bromo)propane"], "SMILES": "C(CBr)CBr", "physical_data": {"Molecular Weight": "201.89", "Molecular Formula": "C3H6Br2", "Boiling Point": "167.3 \u00b0C", "Melting Point": "-34.2 \u00b0C", "Density": "1.98927 g/cm\u00b3 @ Temp: 15 \u00b0C"}}