{"cas_no": "109-63-7", "cn_name": "\u4e09\u6c1f\u5316\u787c\u4e59\u919a", "en_name": ["Boron trifluoride etherate", "Boron, trifluoro[1,1\u2032-oxybis[ethane]]-, (T-4)-", "Ethyl ether, compd. with boron fluoride (BF3) (1:1)", "Borane, trifluoro-, compd. with 1,1\u2032-oxybis[ethane] (1:1)", "Ethyl ether, compd. with BF3 (1:1)", "Ethane, 1,1\u2032-oxybis-, compd. with trifluoroborane (1:1)", "Boron fluoride (BF3), compd. with ethyl ether (1:1)", "(T-4)-Trifluoro[1,1\u2032-oxybis[ethane]]boron", "Boron fluoride diethyl etherate", "Boron fluoride etherate", "Boron fluoride-ethyl etherate", "Boron fluoride-ethyl ether complex", "Boron trifluoride-ether complex", "Boron trifluoride-ethyl ether", "Boron trifluoride-ethyl etherate", "Boron trifluoride-ethyl ether complex", "Ethyl ether-boron trifluoride complex", "Boron trifluoride etherate", "Boron fluoride diethyl ether complex", "Boron trifluoride-diethyl ether complex", "Boron fluoride (BF3)-ethyl ether compound", "Boron trifluoride ethyl etherate (1:1)", "Boron fluoride monoetherate", "Boron trifluoride-diethyl ether complex (1:1)", "Boron trifluoride-ethyl ether (1:1)", "Trifluoroboron etherate", "Boron fluoride-diethyl ether compound", "Trifluoroborane-1,1\u2032-oxybis[ethane] (1:1)", "Boron trifluoride-diethyl etherate", "Diethyl ether trifluoroborane complex", "Trifluoroborane diethyl etherate", "Boron trifluoride-diethyl ether 1:1 complex", "Diethyl ether compound with boron trifluoride", "Boron trifluoride etherate (1:1)", "Boron trifluoride monoetherate", "Boron trifluoride-diethyl ether (1:1)", "Diethyl ether-trifluoroborane (1:1)", "Trifluoroboron-diethyl ether (1:1)", "(Diethyl ether)trifluoroboron", "(Diethyl ether)trifluoroborane", "Trifluoro(diethyl ether)boron", "Trifluoro[1,1\u2032-oxybis[ethane]]boron", "Boron trifluoride diethyl ether adduct", "Trifluoroborane diethyl ether complex"], "SMILES": "O([B+3]([F-])([F-])[F-])(CC)CC", "physical_data": {"Molecular Weight": "", "Molecular Formula": "C4H10BF3O", "Boiling Point": "125.7 \u00b0C", "Melting Point": "-60.4 \u00b0C", "Density": "1.3572 g/cm\u00b3 @ Temp: 20 \u00b0C"}}