{"cas_no": "109-09-1", "cn_name": "2-\u6c2f\u5421\u5576", "en_name": ["2-Chloropyridine", "Pyridine, 2-chloro-", "2-Chloropyridine", "o-Chloropyridine", "\u03b1-Chloropyridine", "NSC 4649"], "SMILES": "ClC1=CC=CC=N1", "physical_data": {"Molecular Weight": "113.54", "Molecular Formula": "C5H4ClN", "Boiling Point": "170 \u00b0C", "Melting Point": "-46.5 \u00b0C"}}