{"cas_no": "109-81-9", "cn_name": "N-\u7532\u57fa\u4e59\u4e8c\u80fa", "en_name": ["N-Methylethylenediamine", "1,2-Ethanediamine, N1-methyl-", "Ethylenediamine, N-methyl-", "1,2-Ethanediamine, N-methyl-", "N1-Methyl-1,2-ethanediamine", "N-Methylethylenediamine", "2-(Methylamino)ethylamine", "(2-Aminoethyl)methylamine", "N-Methyl-1,2-ethanediamine", "N-Methyl-1,2-diaminoethane", "1-(Methylamino)-2-aminoethane", "N-Methyl-1,2-ethylenediamine", "1-Methylethylenediamine", "2-(Methylamino)ethanamine"], "SMILES": "C(CN)NC", "physical_data": {"Molecular Weight": "74.12", "Molecular Formula": "C3H10N2", "Boiling Point": "115 \u00b0C"}}