{"cas_no": "109-57-9", "cn_name": "\u70ef\u4e19\u57fa\u786b\u8132", "en_name": ["Allylthiourea", "Thiourea, N-2-propen-1-yl-", "Urea, 1-allyl-2-thio-", "Thiourea, 2-propenyl-", "N-2-Propen-1-ylthiourea", "Allylthiourea", "Aminosin", "Rhodalline", "Thiosinamine", "1-Allyl-2-thiourea", "U 19571", "N-Allylthiourea", "Allylthiocarbamide", "1-Allylthiourea", "Thiosinamin", "Rhodallin", "2-Propenylthiourea", "NSC 1915", "(Prop-2-en-1-yl)thiourea"], "SMILES": "N(C(N)=S)CC=C", "physical_data": {"Molecular Weight": "116.18", "Molecular Formula": "C4H8N2S", "Melting Point": "78 \u00b0C"}}