{"cas_no": "109-19-3", "cn_name": "\u5f02\u620a\u9178\u4e01\u916f", "en_name": ["Butyl isovalerate", "Butanoic acid, 3-methyl-, butyl ester", "Isovaleric acid, butyl ester", "Butyl isovalerate", "Butyl 3-methylbutyrate", "n-Butyl isovalerate", "Butyl 3-methylbutanoate", "3-Methylbutyric acid butyl ester", "n-Butyl 3-methylbutyrate", "NSC 6187", "3-Methylbutanoic acid butyl ester"], "SMILES": "O(C(CC(C)C)=O)CCCC", "physical_data": {"Molecular Weight": "158.24", "Molecular Formula": "C9H18O2", "Boiling Point": "150 \u00b0C", "Density": "0.87 g/cm\u00b3"}}