{"cas_no": "109-79-5", "cn_name": "\u4e01\u786b\u9187", "en_name": ["Butanethiol", "1-Butanethiol", "n-Butyl mercaptan", "n-Butyl thioalcohol", "Thiobutyl alcohol", "Butyl mercaptan", "Butylthiol", "n-Butanethiol", "1-Butyl mercaptan", "Butanethiol", "n-Butylthiol", "1-Mercaptobutane", "n-Butane-1-thiol"], "SMILES": "C(CC)CS", "physical_data": {"Molecular Weight": "90.19", "Molecular Formula": "C4H10S", "Boiling Point": "98.4 \u00b0C @ Press: 760 Torr", "Melting Point": "-115.7 \u00b0C", "Density": "0.8337 g/cm\u00b3 @ Temp: 20 \u00b0C"}}