{"cas_no": "109-12-6", "cn_name": "2-\u6c28\u57fa\u5627\u5576", "en_name": ["2-Aminopyrimidine", "2-Pyrimidinamine", "Pyrimidine, 2-amino-", "Pyrimidine, 1,2-dihydro-2-imino-", "2-Aminopyrimidine", "1,2-Dihydro-2-iminopyrimidine", "2-Pyrimidylamine", "Pyrimidin-2-ylamine", "NSC 1912"], "SMILES": "NC=1N=CC=CN1", "physical_data": {"Molecular Weight": "95.10", "Molecular Formula": "C4H5N3", "Boiling Point": "157 \u00b0C @ Press: 135 Torr", "Melting Point": "127.5 \u00b0C"}}