{"cas_no": "109-53-5", "cn_name": "\u4e59\u70ef\u57fa\u5f02\u4e01\u919a", "en_name": ["Isobutyl vinyl ether", "Propane, 1-(ethenyloxy)-2-methyl-", "Ether, isobutyl vinyl", "1-(Ethenyloxy)-2-methylpropane", "Isobutyl vinyl ether", "IVE", "Vinoflex MO 400", "Vinyl isobutyl ether", "iso-Butyl vinyl ether", "Lutonal LR 8500", "Isobutanol vinyl ether", "Isobutoxyethene", "NSC 8265"], "SMILES": "C(C(C)C)OC=C", "physical_data": {"Molecular Weight": "100.16", "Molecular Formula": "C6H12O", "Boiling Point": "83 \u00b0C", "Melting Point": "-112 \u00b0C", "Density": "0.7693 g/cm\u00b3 @ Temp: 20 \u00b0C"}}