{"cas_no": "109-55-7", "cn_name": "N,N-\u4e8c\u7532\u57fa-1,3-\u4e8c\u6c28\u57fa\u4e19\u70f7", "en_name": ["N,N-Dimethyl-1,3-propanediamine", "1,3-Propanediamine, N1,N1-dimethyl-", "1,3-Propanediamine, N,N-dimethyl-", "N1,N1-Dimethyl-1,3-propanediamine", "N,N-Dimethyl-1,3-diaminopropane", "N,N-Dimethyl-1,3-propylenediamine", "N,N-Dimethyl-N-(3-aminopropyl)amine", "N,N-Dimethyltrimethylenediamine", "\u03b3-Dimethylaminopropylamine", "1-Amino-3-(dimethylamino)propane", "3-Amino-1-(dimethylamino)propane", "3-(Dimethylamino)-1-propylamine", "1-(Dimethylamino)-3-aminopropane", "3-(Dimethylamino)-1-propanamine", "N,N-Dimethylpropylenediamine", "(3-Aminopropyl)dimethylamine", "3-(Dimethylamino)propanamine", "3-(Dimethylamino)-1-aminopropane", "N,N-Dimethyl-1,3-propanediamine", "3-N,N-Dimethylaminopropylamine", "N-Aminopropyl-N,N-dimethylamine", "3-(Dimethylamino)propylamine", "NSC 1067", "(3-Dimethylaminopropan-1-yl)amine", "N\u2032,N\u2032-Dimethylpropane-1,3-diamine", "N,N-Dimethyl-3-aminopropylamine", "N-(3-Dimethylaminopropyl)amine", "3-(N,N-Dimethylamino)-1-propylamine", "U-CAT 2000", "N1,N1-Dimethylpropane-1,3-diamine", "DMAPA", "N,N-Dimethylaminopropyl-1-amine"], "SMILES": "C(N(C)C)CCN", "physical_data": {"Molecular Weight": "102.18", "Molecular Formula": "C5H14N2", "Boiling Point": "123 \u00b0C", "Melting Point": "-70 \u00b0C", "Density": "0.8100 g/cm\u00b3 @ Temp: 30 \u00b0C"}}