{"cas_no": "109-68-2", "cn_name": "2-\u620a\u70ef", "en_name": ["2-Pentene", "2-Pentene", "\u03b2-n-Amylene", "sym-Methylethylethylene", "1-Methyl-2-ethylethylene", "3-Pentene", "\u03b2-Amylene", "NSC 7894"], "SMILES": "C(CC)=CC", "physical_data": {"Molecular Weight": "70.13", "Molecular Formula": "C5H10", "Boiling Point": "37 \u00b0C", "Melting Point": "-147 \u00b0C", "Density": "0.6595 g/cm\u00b3 @ Temp: 11 \u00b0C"}}