{"cas_no": "109-89-7", "cn_name": "\u4e8c\u4e59\u80fa", "en_name": ["Diethylamine", "Ethanamine, N-ethyl-", "Diethylamine", "N-Ethylethanamine", "N,N-Diethylamine", "DEA"], "SMILES": "N(CC)CC", "physical_data": {"Molecular Weight": "73.14", "Molecular Formula": "C4H11N", "Boiling Point": "55.5 \u00b0C", "Melting Point": "-50 \u00b0C", "Density": "0.7074 g/cm\u00b3 @ Temp: 20 \u00b0C"}}