{"cas_no": "109-17-1", "cn_name": "\u56db\u4e59\u4e8c\u9187\u4e8c\u7532\u57fa\u4e19\u70ef\u9178\u916f", "en_name": ["Tetraethylene glycol, dimethacrylate", "2-Propenoic acid, 2-methyl-, 1,1\u2032-[oxybis(2,1-ethanediyloxy-2,1-ethanediyl)] ester", "Methacrylic acid, diester with tetraethylene glycol", "2-Propenoic acid, 2-methyl-, oxybis(2,1-ethanediyloxy-2,1-ethanediyl) ester", "Tetraethylene glycol, dimethacrylate", "TGM 4", "SR 209", "TeEGDMA", "NK Ester 4G", "4G", "NSC 84253", "TEGDMA", "Light Ester 4G", "Tetraethylene glycol dimethacrylate", "2-[2-[2-[2-(2-Methylprop-2-enoyloxy)ethoxy]ethoxy]ethoxy]ethyl 2-methylprop-2-enoate"], "SMILES": "O(C(C(C)=C)=O)CCOCCOCCOCCOC(C(C)=C)=O", "physical_data": {"Molecular Weight": "330.37", "Molecular Formula": "C16H26O7", "Boiling Point": "220 \u00b0C"}}