{"cas_no": "109-78-4", "cn_name": "3-\u7f9f\u57fa\u4e19\u8148", "en_name": ["3-Hydroxypropionitrile", "Propanenitrile, 3-hydroxy-", "Hydracrylonitrile", "3-Hydroxypropanenitrile", "2-Cyanoethanol", "Ethylene cyanohydrin", "Glycol cyanohydrin", "\u03b2-Hydroxypropionitrile", "3-Hydroxypropionitrile", "2-Cyanoethyl alcohol", "2-Hydroxycyanoethane", "\u03b2-Cyanoethanol", "2-Hydroxyethyl cyanide", "1-Cyano-2-hydroxyethane", "\u03b2-Hydroxyethyl cyanide", "NSC 2598", "Ethylene cyanhydrine"], "SMILES": "C(C#N)CO", "physical_data": {"Molecular Weight": "71.08", "Molecular Formula": "C3H5NO", "Boiling Point": "221 \u00b0C", "Melting Point": "-46 \u00b0C", "Density": "1.0404 g/cm\u00b3 @ Temp: 25 \u00b0C"}}