{"cas_no": "109-90-0", "cn_name": "\u5f02\u6c30\u9178\u4e59\u916f", "en_name": ["Ethyl isocyanate", "Ethane, isocyanato-", "Isocyanic acid, ethyl ester", "Isocyanatoethane", "Ethyl isocyanate", "NSC 89687"], "SMILES": "N(CC)=C=O", "physical_data": {"Molecular Weight": "71.08", "Molecular Formula": "C3H5NO", "Boiling Point": "60 \u00b0C", "Density": "0.9031 g/cm\u00b3 @ Temp: 20 \u00b0C"}}