{"cas_no": "109-98-8", "cn_name": "2-\u5421\u5511\u5549", "en_name": ["2-Pyrazoline", "1H-Pyrazole, 4,5-dihydro-", "2-Pyrazoline", "4,5-Dihydro-1H-pyrazole", "4,5-Dihydropyrazole", "\u03942-Pyrazoline"], "SMILES": "C1CNN=C1", "physical_data": {"Molecular Weight": "70.09", "Molecular Formula": "C3H6N2", "Boiling Point": "144 \u00b0C", "Melting Point": "163-165 \u00b0C"}}