{"cas_no": "109-69-3", "cn_name": "1-\u6c2f\u4e01\u70f7", "en_name": ["Butyl chloride", "Butane, 1-chloro-", "1-Chlorobutane", "Butyl chloride", "n-Butyl chloride", "n-Propylcarbinyl chloride", "n-Chlorobutane", "Chlorobutane", "NSC 8419", "1-Butylchloride"], "SMILES": "C(CC)CCl", "physical_data": {"Molecular Weight": "92.57", "Molecular Formula": "C4H9Cl", "Boiling Point": "78.5 \u00b0C @ Press: 760 Torr", "Melting Point": "-123.1 \u00b0C", "Density": "0.88648 g/cm\u00b3 @ Temp: 20 \u00b0C"}}