{"cas_no": "109-96-6", "cn_name": "3-\u5421\u54af\u5549", "en_name": ["3-Pyrroline", "1H-Pyrrole, 2,5-dihydro-", "3-Pyrroline", "2,5-Dihydro-1H-pyrrole", "2,5-Dihydropyrrole", "\u03943-Pyrroline", "3-Pyrolline", "NSC 89295"], "SMILES": "C1=CCNC1", "physical_data": {"Molecular Weight": "69.11", "Molecular Formula": "C4H7N", "Boiling Point": "90.5 \u00b0C"}}