{"cas_no": "109-05-7", "cn_name": "2-\u7532\u57fa\u54cc\u5576", "en_name": ["2-Methylpiperidine", "Piperidine, 2-methyl-", "2-Pipecoline", "2-Methylpiperidine", "\u03b1-Pipecoline", "\u03b1-Methylpiperidine", "(\u00b1)-\u03b1-Pipecoline", "DL-2-Methylpiperidine", "(\u00b1)-2-Methylpiperidine", "NSC 31047", "NSC 462"], "SMILES": "CC1CCCCN1", "physical_data": {"Molecular Weight": "99.17", "Molecular Formula": "C6H13N", "Boiling Point": "120 \u00b0C", "Density": "0.9527 g/cm\u00b3 @ Temp: 21 \u00b0C"}}