{"cas_no": "109-92-2", "cn_name": "\u4e59\u70ef\u57fa\u4e59\u919a", "en_name": ["Ethyl vinyl ether", "Ethene, ethoxy-", "Ether, ethyl vinyl", "Ethoxyethene", "Ethyl vinyl ether", "EVE", "Vinamar", "Vinyl ethyl ether", "1-Ethoxyethene", "Ethoxyethylene", "1-Ethoxyethylene", "Ethyloxyethene", "NSC 8405", "[(Vinyl)oxy]ethane", "[(Ethenyl)oxy]ethane", "1-(Vinyloxy)ethane", "A 15695-0F", "A 15691-0F"], "SMILES": "O(CC)C=C", "physical_data": {"Molecular Weight": "72.11", "Molecular Formula": "C4H8O", "Boiling Point": "36 \u00b0C", "Melting Point": "-115 \u00b0C", "Density": "0.8 g/cm\u00b3"}}