{"cas_no": "109-84-2", "cn_name": "2-\u80bc\u57fa\u4e59\u9187", "en_name": ["Hydroxyethylhydrazine", "Ethanol, 2-hydrazinyl-", "Ethanol, 2-hydrazino-", "2-Hydrazinylethanol", "BOH", "HEH", "(\u03b2-Hydroxyethyl)hydrazine", "2-Hydrazineethanol", "(2-Hydroxyethyl)hydrazine", "Ethanolhydrazine", "1-(2-Hydroxyethyl)hydrazine", "2-Hydrazinoethanol", "2-Hydrazinoethyl alcohol", "N-(2-Hydroxyethyl)hydrazine", "Hydroxyethylhydrazine", "Hydrazineethanol", "NSC 189820", "2-Hydrazinylethan-1-ol"], "SMILES": "C(CO)NN", "physical_data": {"Molecular Weight": "76.10", "Molecular Formula": "C2H8N2O", "Boiling Point": "219 \u00b0C", "Melting Point": "-70 \u00b0C", "Density": "1.123 g/cm\u00b3 @ Temp: 23 \u00b0C"}}