{"cas_no": "109-02-4", "cn_name": "N-\u7532\u57fa\u5417\u5549", "en_name": ["4-Methylmorpholine", "Morpholine, 4-methyl-", "4-Methylmorpholine", "N-Methylmorpholine", "1-Methylmorpholine", "NMM", "NSC 9382", "KL 21", "Jeffcat NMM"], "SMILES": "CN1CCOCC1", "physical_data": {"Molecular Weight": "101.15", "Molecular Formula": "C5H11NO", "Boiling Point": "116 \u00b0C", "Density": "0.91406 g/cm\u00b3 @ Temp: 25.00 \u00b0C"}}