{"cas_no": "109-93-3", "cn_name": "\u4e59\u70ef\u919a", "en_name": ["Vinyl ether", "Ethene, 1,1\u2032-oxybis-", "Vinyl ether", "Divinyl ether", "Divinyl oxide", "Vinesthene", "Vinydan", "Vinethene", "Vinesthesin", "Vinethen", "Vinidyl", "Vinether", "1,1\u2032-Oxybisethene", "(Ethenyloxy)ethene"], "SMILES": "O(C=C)C=C", "physical_data": {"Molecular Weight": "70.09", "Molecular Formula": "C4H6O", "Boiling Point": "28.3 \u00b0C", "Melting Point": "-101 \u00b0C", "Density": "0.8791 g/cm\u00b3 @ Temp: 15 \u00b0C"}}