{"cas_no": "109-95-5", "cn_name": "\u4e9a\u785d\u9178\u4e59\u916f", "en_name": ["Ethyl nitrite", "Nitrous acid, ethyl ester", "Ethyl nitrite", "Nitrosyl ethoxide", "Nitrous ether", "Nitrous ethyl ether", "Spirit of ethyl nitrite", "Sweet spirit of niter"], "SMILES": "O(CC)N=O", "physical_data": {"Molecular Weight": "75.07", "Molecular Formula": "C2H5NO2", "Boiling Point": "17 \u00b0C", "Density": "0.90 g/cm\u00b3 @ Temp: 15 \u00b0C"}}