{"cas_no": "109-42-2", "cn_name": "10-\u5341\u4e00\u70ef\u9178\u4e01\u916f", "en_name": ["Butyl 10-undecenoate", "10-Undecenoic acid, butyl ester", "Butyl 10-undecenoate", "Butyl 10-undecylenate", "NSC 2395", "n-Butyl 10-undecenoate"], "SMILES": "C(C(OCCCC)=O)CCCCCCCC=C", "physical_data": {"Molecular Weight": "240.38", "Molecular Formula": "C15H28O2", "Boiling Point": "116 \u00b0C"}}