{"cas_no": "109-15-9", "cn_name": "\u5f02\u4e01\u9178\u8f9b\u916f", "en_name": ["Octyl isobutyrate", "Propanoic acid, 2-methyl-, octyl ester", "Isobutyric acid, octyl ester", "Caprylyl isobutyrate", "Octyl isobutyrate", "n-Octyl isobutyrate", "ENT 24265", "Octyl 2-methylpropanoate", "n-Octyl 2-methylpropanoate", "NSC 72024", "Octyl isobutanoate"], "SMILES": "O(C(C(C)C)=O)CCCCCCCC", "physical_data": {"Molecular Weight": "200.32", "Molecular Formula": "C12H24O2", "Boiling Point": "120 \u00b0C @ Press: 10 Torr", "Density": "0.8711 g/cm\u00b3 @ Temp: 20 \u00b0C"}}