{"cas_no": "109-43-3", "cn_name": "\u7678\u4e8c\u9178\u4e8c\u4e01\u916f", "en_name": ["Dibutyl sebacate", "Decanedioic acid, 1,10-dibutyl ester", "Sebacic acid, dibutyl ester", "Decanedioic acid, dibutyl ester", "PX 404", "Bis(n-butyl) sebacate", "Dibutyl sebacate", "Polycizer DBS", "Staflex DBS", "Kodaflex DBS", "Di-n-Butyl sebacate", "Ergoplast SDB", "Dibutyl decanedioate", "Sebacic acid di-n-butyl ester", "Uniflex DBS", "DBS", "Reomol DBS", "NSC 3893"], "SMILES": "C(C(OCCCC)=O)CCCCCCCC(OCCCC)=O", "physical_data": {"Molecular Weight": "314.46", "Molecular Formula": "C18H34O4", "Boiling Point": "344.5 \u00b0C", "Melting Point": "-10 \u00b0C", "Density": "0.9405 g/cm\u00b3 @ Temp: 15 \u00b0C"}}