{"cas_no": "109-21-7", "cn_name": "\u4e01\u9178\u4e01\u916f", "en_name": ["Butyl butyrate", "Butanoic acid, butyl ester", "Butyric acid, butyl ester", "Butyl butanoate", "Butyl butyrate", "n-Butyl butyrate", "n-Butyl n-butyrate", "1-Butyl butyrate", "Butyl butylate", "n-Butyl butanoate", "NSC 8458", "Butyric acid n-butyl ester"], "SMILES": "O(C(CCC)=O)CCCC", "physical_data": {"Molecular Weight": "144.21", "Molecular Formula": "C8H16O2", "Boiling Point": "166 \u00b0C", "Melting Point": "-91.5 \u00b0C", "Density": "0.8711 g/cm\u00b3 @ Temp: 20 \u00b0C"}}