{"cas_no": "109-16-0", "cn_name": "\u4e09\u4e59\u4e8c\u9187\u4e8c\u7532\u57fa\u4e19\u70ef\u9178\u916f", "en_name": ["Triethylene glycol dimethacrylate", "2-Propenoic acid, 2-methyl-, 1,1\u2032-[1,2-ethanediylbis(oxy-2,1-ethanediyl)] ester", "Methacrylic acid, diester with triethylene glycol", "2-Propenoic acid, 2-methyl-, 1,2-ethanediylbis(oxy-2,1-ethanediyl) ester", "Methacrylic acid, ethylenebis(oxyethylene) ester", "Triethylene glycol dimethacrylate", "TGM 3", "1,2-Bis[2-(methacryloyloxy)ethoxy]ethane", "Ethylenebis(oxyethylene) methacrylate", "TGM 3PC", "NK Ester 3G", "TEDMA", "TGM 3S", "SR 205", "TEGDMA", "ATM 2 (methacrylate)", "ATM 2", "Esschem 943X7469", "Acryester 3ED", "Bisomer TEGDMA", "Sartomer SR 205", "Neomer PM 201", "NSC 84260", "Light Ester 3EG", "Blemmer PDE 150", "M 233", "EM 328", "Neomer PM 20", "Luvomaxx TEDMA", "Newfrontier NF Bisomer TEGDMA", "NK 3G", "SR 205NS", "T 0498", "2-[2-[2-(2-Methylprop-2-enoyloxy)ethoxy]ethoxy]ethyl 2-methylprop-2-enoate", "Miramer M 233", "V 389", "Sartomer SR 205H"], "SMILES": "O(C(C(C)=C)=O)CCOCCOCCOC(C(C)=C)=O", "physical_data": {"Molecular Weight": "286.32", "Molecular Formula": "C14H22O6", "Boiling Point": "155 \u00b0C @ Press: 0.98 Torr", "Melting Point": "&lt;25 \u00b0C", "Density": "1.072 g/cm\u00b3 @ Temp: 25 \u00b0C"}}