{"cas_no": "109-65-9", "cn_name": "\u6eb4\u4e01\u70f7", "en_name": ["Butyl bromide", "Butane, 1-bromo-", "1-Bromobutane", "Butyl bromide", "n-Butyl bromide", "1-Butyl bromide"], "SMILES": "C(CBr)CC", "physical_data": {"Molecular Weight": "137.02", "Molecular Formula": "C4H9Br", "Boiling Point": "101.3 \u00b0C @ Press: 760 Torr", "Melting Point": "-112 \u00b0C", "Density": "1.2686 g/cm\u00b3 @ Temp: 25 \u00b0C"}}