{"cas_no": "109-97-7", "cn_name": "\u5421\u54af", "en_name": ["1H-Pyrrole", "1H-Pyrrole", "Pyrrole", "1-Aza-2,4-cyclopentadiene", "Azole", "Divinylenimine", "Imidole", "Monopyrrole", "NSC 62777"], "SMILES": "C=1C=CNC1", "physical_data": {"Molecular Weight": "67.09", "Molecular Formula": "C4H5N", "Boiling Point": "129.7 \u00b0C", "Melting Point": "-23.4 \u00b0C", "Density": "0.9698 g/cm\u00b3 @ Temp: 20 \u00b0C"}}