{"cas_no": "109-11-5", "cn_name": "3-\u5417\u5549\u916e", "en_name": ["3-Morpholinone", "3-Morpholinone", "3-Ketomorpholine", "3-Oxomorpholine", "NSC 11688", "3-Morpholone"], "SMILES": "O=C1COCCN1", "physical_data": {"Molecular Weight": "101.10", "Molecular Formula": "C4H7NO2", "Melting Point": "105 \u00b0C"}}