{"cas_no": "109-49-9", "cn_name": "5-\u5df2\u70ef-2-\u916e", "en_name": ["5-Hexen-2-one", "5-Hexen-2-one", "Allylacetone", "1-Hexen-5-one", "5-Hexen-1-one", "5-Oxo-1-hexene", "NSC 6973", "3-Butenyl methyl ketone"], "SMILES": "C(C(C)=O)CC=C", "physical_data": {"Molecular Weight": "98.14", "Molecular Formula": "C6H10O", "Boiling Point": "129.5 \u00b0C", "Density": "0.856 g/cm\u00b3 @ Temp: 20 \u00b0C"}}