{"cas_no": "109-82-0", "cn_name": "N-\u4e9a\u7532\u6c28\u57fa\u4e59\u8148", "en_name": ["2-(Methyleneamino)acetonitrile", "Acetonitrile, 2-(methyleneamino)-", "Acetonitrile, (methyleneamino)-", "Glycinonitrile, N-methylene-", "2-(Methyleneamino)acetonitrile", "N-methylene-glycinonitrile", "MAAN", "Methyleneaminoacetonitrile", "NSC 128385", "NSC 3486", "NSC 57883", "2-(Methylideneamino)acetonitrile"], "SMILES": "C(C#N)N=C", "physical_data": {"Molecular Weight": "68.08", "Molecular Formula": "C3H4N2", "Melting Point": "129 \u00b0C"}}