{"cas_no": "109-59-1", "cn_name": "\u5f02\u4e19\u6c27\u57fa\u4e59\u9187", "en_name": ["2-Isopropoxyethanol", "Ethanol, 2-(1-methylethoxy)-", "Ethanol, 2-isopropoxy-", "2-(1-Methylethoxy)ethanol", "Dowanal EiPAT", "Ethylene glycol isopropyl ether", "Ethylene glycol monisopropyl ether", "Ethylene glycol monoisopropyl ether", "\u03b2-Hydroxyethyl isopropyl ether", "2-Isopropoxyethanol", "Isopropyl Cellosolve", "Isopropyl Oxitol", "Ucar AC", "2-Isopropyloxyethanol", "NSC 1259", "2-[(1-Methylethyl)oxy]ethanol", "2-(Propan-2-yloxy)ethanol", "2-(Propan-2-yloxy)ethan-1-ol"], "SMILES": "O(C(C)C)CCO", "physical_data": {"Molecular Weight": "104.15", "Molecular Formula": "C5H12O2", "Boiling Point": "144 \u00b0C @ Press: 743 Torr", "Density": "0.9030 g/cm\u00b3 @ Temp: 20 \u00b0C"}}