{"cas_no": "109-70-6", "cn_name": "1-\u6eb4-3-\u6c2f\u4e19\u70f7", "en_name": ["1-Bromo-3-chloropropane", "Propane, 1-bromo-3-chloro-", "1-Bromo-3-chloropropane", "Trimethylene bromide chloride", "Trimethylene chlorobromide", "1-Chloro-3-bromopropane", "3-Chloro-1-bromopropane", "3-Bromopropyl chloride", "3-Bromo-1-chloropropane", "3-Chloropropyl bromide", "\u03c9-Chlorobromopropane", "NSC 9183", "3-Chloropropan-1-yl bromide"], "SMILES": "C(CBr)CCl", "physical_data": {"Molecular Weight": "157.44", "Molecular Formula": "C3H6BrCl", "Boiling Point": "143.3 \u00b0C @ Press: 760 Torr", "Melting Point": "-58.90 \u00b0C", "Density": "1.5969 g/cm\u00b3 @ Temp: 20 \u00b0C"}}