{"cas_no": "109-67-1", "cn_name": "1-\u620a\u70ef", "en_name": ["1-Pentene", "1-Pentene", "\u03b1-n-Amylene", "Propylethylene", "1-Methyl-3-butene", "4-Methyl-1-butene"], "SMILES": "C(CC)C=C", "physical_data": {"Molecular Weight": "70.13", "Molecular Formula": "C5H10", "Boiling Point": "29.9 \u00b0C", "Melting Point": "-165.2 \u00b0C", "Density": "0.6405 g/cm\u00b3 @ Temp: 20 \u00b0C"}}