{"cas_no": "109-04-6", "cn_name": "2-\u6eb4\u5421\u5576", "en_name": ["2-Bromopyridine", "Pyridine, 2-bromo-", "2-Bromopyridine", "o-Bromopyridine", "\u03b2-Bromopyridine", "2-Pyridyl bromide", "NSC 8031", "2-Bromopyridin", "Pyridin-2-yl bromide"], "SMILES": "BrC1=CC=CC=N1", "physical_data": {"Molecular Weight": "158.00", "Molecular Formula": "C5H4BrN", "Boiling Point": "194.8 \u00b0C", "Melting Point": "&lt;25 \u00b0C", "Density": "1.6337 g/cm\u00b3 @ Temp: 20 \u00b0C"}}