{"cas_no": "109-94-4", "cn_name": "\u7532\u9178\u4e59\u916f", "en_name": ["Ethyl formate", "Formic acid, ethyl ester", "Areginal", "Ethyl formate", "Methanoic acid ethyl ester", "Ethyl methanoate", "NSC 406578", "NSC 8828"], "SMILES": "O(CC)C=O", "physical_data": {"Molecular Weight": "74.08", "Molecular Formula": "C3H6O2", "Boiling Point": "54.5 \u00b0C @ Press: 760 Torr", "Melting Point": "-80.5 \u00b0C", "Density": "0.9168 g/cm\u00b3 @ Temp: 20 \u00b0C"}}