{"cas_no": "109-44-4", "cn_name": "\u96d9\u4e59\u6c27\u4e59\u57fa\u5df1\u4e8c\u9178\u916f", "en_name": ["Bis(2-ethoxyethyl) adipate", "Hexanedioic acid, 1,6-bis(2-ethoxyethyl) ester", "Adipic acid, bis(2-ethoxyethyl) ester", "Hexanedioic acid, bis(2-ethoxyethyl) ester", "Ethanol, 2-ethoxy-, adipate (2:1)", "Bis(2-ethoxyethyl) adipate", "Bis(ethoxyethyl) adipate", "NSC 6796", "Di(2-ethoxyethyl)adipate"], "SMILES": "C(C(OCCOCC)=O)CCCC(OCCOCC)=O", "physical_data": {"Molecular Weight": "290.35", "Molecular Formula": "C14H26O6", "Boiling Point": "200-220 \u00b0C @ Press: 10 Torr", "Density": "1.042 g/cm\u00b3 @ Temp: 20 \u00b0C"}}