{"cas_no": "109-60-4", "cn_name": "\u4e59\u9178\u4e19\u916f", "en_name": ["Propyl acetate", "Acetic acid, propyl ester", "Propyl acetate", "n-Propyl acetate", "1-Propyl acetate", "1-Acetoxypropane", "Propyl ethanoate", "n-Propanol acetate", "Acetic acid n-propyl ester", "NSC 72025", "Acetic acid 1-propyl ester"], "SMILES": "O(C(C)=O)CCC", "physical_data": {"Molecular Weight": "102.13", "Molecular Formula": "C5H10O2", "Boiling Point": "101.5 \u00b0C @ Press: 760 Torr", "Melting Point": "-93 \u00b0C", "Density": "0.836 g/cm\u00b3 @ Temp: 20 \u00b0C"}}