{"cas_no": "109-00-2", "cn_name": "3-\u7f9f\u57fa\u5421\u5576", "en_name": ["3-Hydroxypyridine", "3-Pyridinol", "3-Hydroxypyridine", "3-Pyridol", "\u03b2-Hydroxypyridine", "m-Hydroxypyridine", "3-Pyridyl alcohol", "NSC 18470", "\u03b2-Pyridinone", "3(?H)-Pyridinone"], "SMILES": "OC=1C=CC=NC1", "physical_data": {"Molecular Weight": "95.10", "Molecular Formula": "C5H5NO", "Melting Point": "127.5 \u00b0C"}}