{"cas_no": "109-87-5", "cn_name": "\u4e8c\u7532\u9187\u7f29\u7532\u919b", "en_name": ["Dimethoxymethane", "Methane, dimethoxy-", "Dimethoxymethane", "Anesthenyl", "Formal", "Methylal", "Methylene dimethyl ether", "Formaldehyde dimethyl acetal", "Dimethyl formal", "Methoxymethyl methyl ether", "Formaldehyde methyl ketal", "2,4-Dioxapentane", "Bis(methoxy)methane", "ODS", "1,1-Dimethoxymethane", "Methylene glycol dimethyl ether", "Oxymethylene dimethyl ether", "Solvalid DMM 100"], "SMILES": "C(OC)OC", "physical_data": {"Molecular Weight": "76.09", "Molecular Formula": "C3H8O2", "Boiling Point": "41.6 \u00b0C @ Press: 760 Torr", "Melting Point": "-105 \u00b0C", "Density": "0.8593 g/cm\u00b3 @ Temp: 20 \u00b0C"}}