{"cas_no": "109-74-0", "cn_name": "\u4e01\u8148", "en_name": ["Butyronitrile", "Butanenitrile", "Butyronitrile", "Propyl cyanide", "n-Butyronitrile", "1-Cyanopropane", "n-Butanenitrile", "\u03b3-Butyronitrile", "NSC 8412"], "SMILES": "C(CC)C#N", "physical_data": {"Molecular Weight": "69.11", "Molecular Formula": "C4H7N", "Boiling Point": "117.5 \u00b0C @ Press: 760 Torr", "Melting Point": "-112 \u00b0C", "Density": "0.8091 g/cm\u00b3 @ Temp: 0 \u00b0C"}}