{"cas_no": "109-77-3", "cn_name": "\u4e19\u4e8c\u8148", "en_name": ["Malononitrile", "Propanedinitrile", "Malononitrile", "Methane, dicyano-", "Dicyanomethane", "Malonic acid dinitrile", "Malonodinitrile", "Methylene cyanide", "Cyanoacetonitrile", "Methylenedinitrile", "NSC 3769", "Malondinitrile"], "SMILES": "C(C#N)C#N", "physical_data": {"Molecular Weight": "66.06", "Molecular Formula": "C3H2N2", "Boiling Point": "218-219 \u00b0C @ Press: 760 Torr", "Melting Point": "32 \u00b0C", "Density": "1.1910 g/cm\u00b3 @ Temp: 20 \u00b0C"}}