{"cas_no": "109-66-0", "cn_name": "\u6b63\u620a\u70f7", "en_name": ["Pentane", "Pentane", "n-Pentane", "Skellysolve A", "Norpar 5S", "NSC 72415", "E 0121", "M 004", "Exxsol Pentane 80", "Guchen MG 132", "MG 132"], "SMILES": "C(CC)CC", "physical_data": {"Molecular Weight": "72.15", "Molecular Formula": "C5H12", "Boiling Point": "36.1 \u00b0C", "Melting Point": "-129.7 \u00b0C", "Density": "0.62638 g/cm\u00b3 @ Temp: 20 \u00b0C"}}