{"cas_no": "109-85-3", "cn_name": "2-\u7532\u6c27\u57fa\u4e59\u80fa", "en_name": ["2-Methoxyethylamine", "Ethanamine, 2-methoxy-", "Ethylamine, 2-methoxy-", "2-Methoxyethanamine", "1-Methoxy-2-aminoethane", "\u03b2-Methoxyethylamine", "2-Methoxyethylamine", "2-Aminoethyl methyl ether", "1-Amino-2-methoxyethane", "2-Methoxy-1-ethanamine", "N-(2-Methoxyethyl)amine", "2-Methoxy-1-aminoethane"], "SMILES": "C(CN)OC", "physical_data": {"Molecular Weight": "75.11", "Molecular Formula": "C3H9NO", "Boiling Point": "95 \u00b0C @ Press: 758 Torr"}}