{"cas_no": "109-86-4", "cn_name": "\u4e59\u4e8c\u9187\u7532\u919a", "en_name": ["2-Methoxyethanol", "Ethanol, 2-methoxy-", "Dowanol EM", "Ethylene glycol methyl ether", "Ethylene glycol monomethyl ether", "Glycol methyl ether", "Glycol monomethyl ether", "2-Methoxyethanol", "Methoxyhydroxyethane", "Methyl glycol", "Methyl oxitol", "Poly-Solv EM", "Methyl Cellosolve", "Methoxyethanol", "Methoxyethylene glycol", "\u03b2-Methoxyethanol", "1-Hydroxy-2-methoxyethane", "2-Methoxy-1-ethanol", "Monomethylglycol", "Ektasolve EM", "2-Methoxyethyl alcohol", "3-Oxa-1-butanol", "Monoethylene glycol methyl ether", "Amsco-Solv EE", "NSC 1258", "Hisolve MC"], "SMILES": "C(CO)OC", "physical_data": {"Molecular Weight": "76.09", "Molecular Formula": "C3H8O2", "Boiling Point": "124.1 \u00b0C", "Melting Point": "-85.1 \u00b0C", "Density": "0.96 g/cm\u00b3"}}