{"cas_no": "109-72-8", "cn_name": "\u6b63\u4e01\u57fa\u9502", "en_name": ["Butyllithium", "Lithium, butyl-", "Butyllithium", "1-Butyllithium", "n-Butyllithium"], "SMILES": "C(CC)C[Li]", "physical_data": {"Molecular Weight": "", "Molecular Formula": "C4H9Li", "Melting Point": "109-111 \u00b0C", "Density": "0.765 g/cm\u00b3"}}