{"cas_no": "109-52-4", "cn_name": "\u6b63\u620a\u9178", "en_name": ["Pentanoic acid", "Pentanoic acid", "Valeric acid", "1-Butanecarboxylic acid", "Propylacetic acid", "n-Valeric acid", "n-Pentanoic acid", "NSC 406833"], "SMILES": "C(C(O)=O)CCC", "physical_data": {"Molecular Weight": "102.13", "Molecular Formula": "C5H10O2", "Boiling Point": "186-187 \u00b0C", "Melting Point": "-34.5 \u00b0C", "Density": "0.939 g/cm\u00b3 @ Temp: 20 \u00b0C"}}