{"cas_no": "109-46-6", "cn_name": "N,N'-\u4e8c\u6b63\u4e01\u57fa\u786b\u8132", "en_name": ["N,N\u2032-Dibutylthiourea", "Thiourea, N,N\u2032-dibutyl-", "Urea, 1,3-dibutyl-2-thio-", "N,N\u2032-Dibutylthiourea", "1,3-Dibutylthiourea", "Pennzone B", "1,3-Dibutyl-2-thiourea", "Thiate U", "Sanceler BUR", "Accel BUR-F", "NSC 3735", "NSC 4148", "Stannine 5525", "Nocceler BUR", "Accelerator DBTU", "DBTU"], "SMILES": "N(C(NCCCC)=S)CCCC", "physical_data": {"Molecular Weight": "188.33", "Molecular Formula": "C9H20N2S", "Boiling Point": "122-128 \u00b0C @ Press: 14 Torr", "Melting Point": "64 \u00b0C"}}