{"cas_no": "109-76-2", "cn_name": "1,3-\u4e19\u4e8c\u80fa", "en_name": ["1,3-Propanediamine", "1,3-Propanediamine", "1,3-Diaminopropane", "1,3-Propylenediamine", "Trimethylenediamine", "1,3-Trimethylenediamine", "DAP", "3-Aminopropylamine", "1,3-Diamino-n-propane", "\u03b1,\u03c9-Propanediamine", "NSC 8154"], "SMILES": "C(CN)CN", "physical_data": {"Molecular Weight": "74.12", "Molecular Formula": "C3H10N2", "Boiling Point": "139.8 \u00b0C", "Melting Point": "240-242 \u00b0C", "Density": "0.8834 g/cm\u00b3 @ Temp: 20 \u00b0C"}}