{"cas_no": "109-29-5", "cn_name": "\u6c27\u6742\u73af\u5341\u4e03\u70f7-2-\u916e", "en_name": ["Hexadecanolide", "Oxacycloheptadecan-2-one", "Hexadecanoic acid, 16-hydroxy-, o-lactone", "Hexadecanoic acid, 16-hydroxy-, \u03bf-lactone", "Hexadecanolide", "Dihydroambrettolide", "1,16-Hexadecanolide", "16-Hexadecanolactone", "Juniperic acid lactone", "Cyclohexadecanolide", "Hexadecanolactone", "NSC 33546", "1-Oxacycloheptadecan-2-one", "\u03c9-Hexadecalactone"], "SMILES": "O=C1CCCCCCCCCCCCCCCO1", "physical_data": {"Molecular Weight": "254.41", "Molecular Formula": "C16H30O2", "Boiling Point": "127-129 \u00b0C @ Press: 2.5 Torr", "Melting Point": "33.5-33.8 \u00b0C", "Density": "0.9324 g/cm\u00b3"}}