{"cas_no": "109-56-8", "cn_name": "2-(\u5f02\u4e19\u57fa\u6c28)\u4e59\u9187", "en_name": ["2-(Isopropylamino)ethanol", "Ethanol, 2-[(1-methylethyl)amino]-", "Ethanol, 2-(isopropylamino)-", "2-[(1-Methylethyl)amino]ethanol", "2-(Isopropylamino)ethanol", "2-(Monoisopropylamino)ethanol", "N-(Hydroxyethyl)isopropylamine", "N-Isopropylaminoethanol", "N-Isopropylethanolamine", "2-(N-Isopropylamino)ethanol", "NSC 1090", "NSC 128124", "N-(2-Hydroxyethyl)isopropylamine", "N-Isopropyl-2-hydroxyethylamine", "2-(Isopropylamino)-1-ethanol", "2-[(Propan-2-yl)amino]ethan-1-ol", "2-(Propan-2-ylamino)ethanol"], "SMILES": "N(C(C)C)CCO", "physical_data": {"Molecular Weight": "103.16", "Molecular Formula": "C5H13NO", "Boiling Point": "173 \u00b0C", "Melting Point": "128.5 \u00b0C", "Density": "0.8977 g/cm\u00b3 @ Temp: 25 \u00b0C"}}