{"cas_no": "109-73-9", "cn_name": "\u6b63\u4e01\u80fa", "en_name": ["Butylamine", "1-Butanamine", "Butylamine", "1-Aminobutane", "Mono-n-butylamine", "Norvalamine", "n-Butylamine", "Monobutylamine", "1-Butylamine", "NSC 8029"], "SMILES": "C(CC)CN", "physical_data": {"Molecular Weight": "73.14", "Molecular Formula": "C4H11N", "Boiling Point": "78 \u00b0C", "Melting Point": "-50 \u00b0C", "Density": "0.7327 g/cm\u00b3 @ Temp: 25 \u00b0C"}}