{"cas_no": "109-99-9", "cn_name": "\u56db\u6c22\u544b\u5583", "en_name": ["Tetrahydrofuran", "Furan, tetrahydro-", "Tetrahydrofuran", "Butane, 1,4-epoxy-", "Butane \u03b1,\u03b4-oxide", "Cyclotetramethylene oxide", "Furanidine", "Oxacyclopentane", "Oxolane", "Tetramethylene oxide", "THF", "NSC 57858", "2,3,4,5-Tetrahydrofuran", "EKOS 1 (solvent)", "T 103262"], "SMILES": "C1CCOC1", "physical_data": {"Molecular Weight": "72.11", "Molecular Formula": "C4H8O", "Boiling Point": "65 \u00b0C @ Press: 760 Torr", "Melting Point": "-108.3 \u00b0C", "Density": "0.8892 g/cm\u00b3 @ Temp: 20 \u00b0C"}}