{"cas_no": "109-83-1", "cn_name": "N-\u7532\u57fa-2-\u7f9f\u57fa\u4e59\u80fa", "en_name": ["2-(Methylamino)ethanol", "Ethanol, 2-(methylamino)-", "2-(Methylamino)ethanol", "\u03b2-(Methylamino)ethanol", "N-Methylethanolamine", "Methylethylolamine", "Methyl(\u03b2-hydroxyethyl)amine", "N-Monomethylaminoethanol", "Monomethylethanolamine", "N-Methylmonoethanolamine", "2-N-Monomethylaminoethanol", "Methylethanolamine", "Methylaminoethanol", "Monomethylaminoethanol", "Monomethylmonoethanolamine", "(2-Hydroxyethyl)methylamine", "N-Methyl-N-hydroxyethylamine", "Methyl(hydroxyethyl)amine", "N-Methylaminoethanol", "N-Methyl-N-(2-hydroxyethyl)amine", "N-Methyl-2-aminoethanol", "N-Methyl-2-hydroxyethylamine", "(Hydroxyethyl)methylamine", "2-(N-Methylamino)ethanol", "Methyl(2-hydroxyethyl)amine", "N-(2-Hydroxyethyl)methylamine", "N-Methyl-2-ethanolamine", "2-Hydroxy-N-methylethylamine", "N-Methyl-N-(\u03b2-hydroxyethyl)amine", "N-Monomethylethanolamine", "Amietol M 11", "2-Hydroxyethyl-N-methylamine", "2-Methylamino-1-ethanol", "NMEA", "N-(2-Hydroxyethyl)-N-methylamine", "NSC 62776", "Amino Alcohol MMA", "N-Methyl-2-hydroxyethanamine", "Yubao"], "SMILES": "C(CO)NC", "physical_data": {"Molecular Weight": "75.11", "Molecular Formula": "C3H9NO", "Boiling Point": "155-156 \u00b0C @ Press: 760 Torr", "Melting Point": "-4.5 \u00b0C", "Density": "0.937 g/cm\u00b3 @ Temp: 20 \u00b0C"}}