{"cas_no": "109-54-6", "cn_name": "3-\u6c2f-1-(N,N-\u4e8c\u7532\u57fa)\u4e19\u80fa", "en_name": ["3-Chloro-N,N-dimethyl-1-propanamine", "1-Propanamine, 3-chloro-N,N-dimethyl-", "Propylamine, 3-chloro-N,N-dimethyl-", "3-Chloro-N,N-dimethyl-1-propanamine", "3-(Dimethylamino)propyl chloride", "3-(N,N-Dimethylamino)propyl chloride", "(3-Chloropropyl)dimethylamine", "\u03b3-Chloropropyldimethylamine", "\u03b3-Dimethylaminopropyl chloride", "3-Chloro-N,N-dimethylpropanamine", "3-Chloro-N,N-dimethylpropylamine", "3-(Dimethylamino)chloropropane", "Dimethylaminopropyl chloride", "N-(3-Chloropropyl)dimethylamine", "N,N-Dimethyl-3-chloropropylamine", "3-Dimethylamino-1-chloropropane", "N-(3-Chloropropyl)-N,N-dimethylamine", "N,N-Dimethyl-3-chloro-1-propanamine", "Dimethyl(3-chloropropyl)amine", "1-Dimethylamino-3-chloropropane", "3-(Dimethylamino)-1-propyl chloride", "1-Chloro-3-(dimethylamino)propane", "3-Chloro-1-(dimethylamino)propane", "3-Dimethylaminopropan-1-yl chloride", "N,N-Dimethyl-3-chloropropanamine", "3-Chloro-1-(N,N-dimethylamino)propane", "3-(N,N-Dimethylamino)-1-chloropropane"], "SMILES": "C(N(C)C)CCCl", "physical_data": {"Molecular Weight": "121.61", "Molecular Formula": "C5H12ClN", "Boiling Point": "140 \u00b0C @ Press: 760 Torr", "Melting Point": "182-188 \u00b0C", "Density": "0.9287 g/cm\u00b3 @ Temp: 20 \u00b0C"}}