{"cas_no": "109-31-9", "cn_name": "\u58ec\u4e8c\u9178\u4e8c\u5df1\u916f", "en_name": ["1,9-Dihexyl nonanedioate", "Nonanedioic acid, 1,9-dihexyl ester", "Azelaic acid, dihexyl ester", "Nonanedioic acid, dihexyl ester", "1,9-Dihexyl nonanedioate", "Dihexyl azelate", "Plastolein 9051 DHNZ", "Di-n-hexyl azelate"], "SMILES": "C(C(OCCCCCC)=O)CCCCCCC(OCCCCCC)=O", "physical_data": {"Molecular Weight": "356.54", "Molecular Formula": "C21H40O4", "Boiling Point": "216 \u00b0C @ Press: 5 Torr", "Melting Point": "-8 \u00b0C", "Density": "0.927 g/cm\u00b3 @ Temp: 20 \u00b0C"}}