{"cas_no": "109-50-2", "cn_name": "3-\u5df1\u7094-2-\u9187", "en_name": ["3-Hexyn-2-ol", "3-Hexyn-2-ol", "2-Hydroxy-3-hexyne"], "SMILES": "C(C(C)O)#CCC", "physical_data": {"Molecular Weight": "98.14", "Molecular Formula": "C6H10O", "Boiling Point": "79-80 \u00b0C @ Press: 60 Torr"}}