{"cas_no": "109-61-5", "cn_name": "\u6c2f\u7532\u9178\u4e19\u916f", "en_name": ["Propyl chloroformate", "Carbonochloridic acid, propyl ester", "Formic acid, chloro-, propyl ester", "Propyl chlorocarbonate", "Propyl chloroformate", "n-Propyl chloroformate", "Propyl carbonochloridate", "Chloroformic acid propyl ester", "Chloroformic acid n-propyl ester"], "SMILES": "O(C(Cl)=O)CCC", "physical_data": {"Molecular Weight": "122.55", "Molecular Formula": "C4H7ClO2", "Boiling Point": "112.4 \u00b0C", "Density": "1.091 g/cm\u00b3 @ Temp: 20 \u00b0C"}}