{"cas_no": "109-80-8", "cn_name": "1,3-\u4e19\u4e8c\u786b\u9187", "en_name": ["1,3-Propanedithiol", "1,3-Propanedithiol", "1,3-Dimercaptopropane", "Dithiotrimethyleneglycol", "Trimethylenedithioglycol", "Trimethylenedithiol", "Trimethylene dimercaptan", "1,3-Propanedimercaptan", "1,3-Trimethylenedithiol", "3-Mercaptopropanethiol", "1,3-Dithiolpropane", "Propan-1,3-dithiol", "1,3-Dithiopropanol"], "SMILES": "C(CS)CS", "physical_data": {"Molecular Weight": "108.23", "Molecular Formula": "C3H8S2", "Boiling Point": "172.9 \u00b0C", "Melting Point": "-79 \u00b0C", "Density": "1.0783 g/cm\u00b3 @ Temp: 20 \u00b0C"}}