{"cas_no": "1090-78-4", "cn_name": "N,N-\u4e8c\u7532\u57fa\u5429\u567b\u55ea-2-\u78fa\u9170\u80fa", "en_name": ["N,N-Dimethyl-10H-phenothiazine-2-sulfonamide", "10H-Phenothiazine-2-sulfonamide, N,N-dimethyl-", "Phenothiazine-2-sulfonamide, N,N-dimethyl-", "N,N-Dimethyl-10H-phenothiazine-2-sulfonamide", "2-Dimethylsulfonamidophenothiazine"], "SMILES": "S(N(C)C)(=O)(=O)C=1C=C2C(SC=3C(N2)=CC=CC3)=CC1", "physical_data": {"Molecular Weight": "306.40", "Molecular Formula": "C14H14N2O2S2", "Melting Point": "176-177 \u00b0C"}}