{"cas_no": "109089-77-2", "cn_name": "3-(2-\u7532\u6c27\u57fa-5-\u7532\u57fa\u82ef\u57fa)-3-\u82ef\u57fa\u4e19\u9178", "en_name": ["2-Methoxy-5-methyl-\u03b2-phenylbenzenepropanoic acid", "Benzenepropanoic acid, 2-methoxy-5-methyl-\u03b2-phenyl-", "Hydrocinnamic acid, 2-methoxy-5-methyl-\u03b2-phenyl-", "2-Methoxy-5-methyl-\u03b2-phenylbenzenepropanoic acid"], "SMILES": "C(CC(O)=O)(C1=C(OC)C=CC(C)=C1)C2=CC=CC=C2", "physical_data": {"Molecular Weight": "270.32", "Molecular Formula": "C17H18O3", "Melting Point": "136-137 \u00b0C"}}