{"cas_no": "109008-28-8", "cn_name": "\u6bdb\u91cc\u6c42\u65af\u6392\u8349\u7d20", "en_name": ["Mauritianin", "4H-1-Benzopyran-4-one, 3-[(O-6-deoxy-\u03b1-L-mannopyranosyl-(1\u21922)-O-[6-deoxy-\u03b1-L-mannopyranosyl-(1\u21926)]-\u03b2-D-galactopyranosyl)oxy]-5,7-dihydroxy-2-(4-hydroxyphenyl)-", "3-[(O-6-Deoxy-\u03b1-L-mannopyranosyl-(1\u21922)-O-[6-deoxy-\u03b1-L-mannopyranosyl-(1\u21926)]-\u03b2-D-galactopyranosyl)oxy]-5,7-dihydroxy-2-(4-hydroxyphenyl)-4H-1-benzopyran-4-one", "Mauritianin"], "SMILES": "O(C1=C(OC=2C(C1=O)=C(O)C=C(O)C2)C3=CC=C(O)C=C3)C4C(OC5C(O)C(O)C(O)C(C)O5)C(O)C(O)C(COC6C(O)C(O)C(O)C(C)O6)O4", "physical_data": {"Molecular Weight": "740.66", "Molecular Formula": "C33H40O19", "Melting Point": "196-198 \u00b0C"}}