{"cas_no": "1090-13-7", "cn_name": "5,12-\u8418\u5e76\u8418\u918c", "en_name": ["5,12-Naphthacenedione", "5,12-Naphthacenedione", "Naphthacenequinone", "Naphthacene-6,11-quinone", "5,12-Naphthacenequinone", "Tetracenemonoquinone", "5,12-Tetracenequinone", "Benz[b]anthracene-5,12-dione", "NSC 401183"], "SMILES": "O=C1C=2C(C(=O)C=3C1=CC=CC3)=CC=4C(C2)=CC=CC4", "physical_data": {"Molecular Weight": "258.27", "Molecular Formula": "C18H10O2", "Melting Point": "285 \u00b0C"}}