{"cas_no": "109010-60-8", "cn_name": "(S)-3-\u6c28\u57fa-2,3,4,5-\u56db\u6c22-2-\u6c27-1H-1-\u82ef\u5e76\u6c2e\u6742\u5353-1-\u4e59\u9178\u53d4\u4e01\u916f", "en_name": ["(S)-1,1-Dimethylethyl 3-amino-2-oxo-2,3,4,5-tetrahydro-1H-benz[b]azepin-1-acetate", "1H-1-Benzazepine-1-acetic acid, 3-amino-2,3,4,5-tetrahydro-2-oxo-, 1,1-dimethylethyl ester, (3S)-", "1H-1-Benzazepine-1-acetic acid, 3-amino-2,3,4,5-tetrahydro-2-oxo-, 1,1-dimethylethyl ester, (S)-", "(S)-1,1-Dimethylethyl 3-amino-2-oxo-2,3,4,5-tetrahydro-1H-benz[b]azepin-1-acetate", "(S)-1-[(tert-Butyloxycarbonyl)methyl]-3-amino-2,3,4,5-tetrahydro-1H-[1]benzazepin-2-one"], "SMILES": "C(C(OC(C)(C)C)=O)N1C=2C(CCC(N)C1=O)=CC=CC2", "physical_data": {"Molecular Weight": "290.36", "Molecular Formula": "C16H22N2O3", "Melting Point": "110-111 \u00b0C"}}