{"cas_no": "1092443-55-4", "cn_name": "(2S,3S)-3-[[3-(\u5f02\u4e19\u57fa)-7-[(\u82ef\u57fa\u7532\u57fa)\u6c28\u57fa]\u5421\u5511\u5e76[1,5-A]\u5627\u5576-5-\u57fa]\u6c28\u57fa]-1,2,4-\u4e01\u4e09\u9187", "en_name": ["(2S,3S)-3-[[3-(1-Methylethyl)-7-[(phenylmethyl)amino]pyrazolo[1,5-a]pyrimidin-5-yl]amino]-1,2,4-butanetriol", "1,2,4-Butanetriol, 3-[[3-(1-methylethyl)-7-[(phenylmethyl)amino]pyrazolo[1,5-a]pyrimidin-5-yl]amino]-, (2S,3S)-", "(2S,3S)-3-[[3-(1-Methylethyl)-7-[(phenylmethyl)amino]pyrazolo[1,5-a]pyrimidin-5-yl]amino]-1,2,4-butanetriol", "BS 194"], "SMILES": "C(C)(C)C1=C2N(C(NCC3=CC=CC=C3)=CC(NC(C(CO)O)CO)=N2)N=C1", "physical_data": {"Molecular Weight": "385.46", "Molecular Formula": "C20H27N5O3", "Melting Point": "184-186 \u00b0C"}}