{"cas_no": "109293-97-2", "cn_name": "\u6c1f\u5421\u8349\u8159", "en_name": ["Diflufenzopyr", "3-Pyridinecarboxylic acid, 2-[1-[2-[[(3,5-difluorophenyl)amino]carbonyl]hydrazinylidene]ethyl]-", "3-Pyridinecarboxylic acid, 2-[1-[[[(3,5-difluorophenyl)amino]carbonyl]hydrazono]ethyl]-", "2-[1-[2-[[(3,5-Difluorophenyl)amino]carbonyl]hydrazinylidene]ethyl]-3-pyridinecarboxylic acid", "SAN 835H", "Diflufenzopyr", "BAS 654H"], "SMILES": "C(=NNC(NC1=CC(F)=CC(F)=C1)=O)(C)C2=C(C(O)=O)C=CC=N2", "physical_data": {"Molecular Weight": "334.28", "Molecular Formula": "C15H12F2N4O3", "Melting Point": "155 \u00b0C (decomp)", "Density": "0.24 g/cm\u00b3 @ Temp: 25 \u00b0C"}}