{"cas_no": "109371-20-2", "cn_name": "4-\u6c2f-2,3,5-\u4e09\u7532\u57fa\u5421\u5576-1-\u6c27\u5316\u7269", "en_name": ["Pyridine, 4-chloro-2,3,5-trimethyl-, 1-oxide", "Pyridine, 4-chloro-2,3,5-trimethyl-, 1-oxide", "4-Chloro-2,3,5-trimethylpyridine 1-oxide"], "SMILES": "ClC=1C(C)=C(C)N(=O)=CC1C", "physical_data": {"Molecular Weight": "171.62", "Molecular Formula": "C8H10ClNO", "Melting Point": "148 \u00b0C"}}