{"cas_no": "109384-19-2", "cn_name": "N-Boc-4-\u7f9f\u57fa\u54cc\u5576", "en_name": ["4-Hydroxypiperidine-1-carboxylic acid tert-butyl ester", "1-Piperidinecarboxylic acid, 4-hydroxy-, 1,1-dimethylethyl ester", "N-(tert-Butoxycarbonyl)-4-hydroxypiperidine", "N-(tert-Butoxycarbonyl)piperidin-4-ol", "1-(tert-Butoxycarbonyl)-4-hydroxypiperidine", "4-Hydroxy-1-(tert-butoxycarbonyl)piperidine", "1-tert-Butoxycarbonyl-4-piperidinol", "4-Hydroxypiperidine-1-carboxylic acid tert-butyl ester", "tert-Butyl 4-hydroxy-1-piperidinecarboxylate", "N-Boc-4-hydroxypiperidine", "1,1-Dimethylethyl 4-hydroxypiperidine-1-carboxylate", "N-(tert-Butyloxycarbonyl)-4-piperidinol", "4-Hydroxy-1-piperidinecarboxylic acid tert-butyl ester", "1-Boc-4-hydroxypiperidine", "1-(tert-Butyloxycarbonyl)piperidin-4-ol", "1-tert-Butyloxycarbonyl-4-hydroxypiperidine", "N-Boc-4-piperidinol", "N-(tert-Butyloxycarbonyl)-4-hydroxypiperidine", "4-Hydroxy-N-Boc-piperidine", "1-Boc-piperidin-4-ol", "N-Boc-4-hydroxy-1-piperidine", "4-Hydroxy-N-(tert-butoxycarbonyl)piperidine", "4-Hydroxy-1-piperidinecarboxylic acid 1,1-dimethylethyl ester", "2-Methylpropan-2-yl 4-hydroxypiperidine-1-carboxylate", "4-Hydroxy-1-Boc-piperidine", "tert-Butyl 4-hydroxylpiperidine-1-carboxylate", "tert-Butyl 4-hydroxypiperidin-1-carboxylate"], "SMILES": "C(OC(C)(C)C)(=O)N1CCC(O)CC1", "physical_data": {"Molecular Weight": "201.26", "Molecular Formula": "C10H19NO3", "Melting Point": "156-158 \u00b0C"}}