{"cas_no": "1093-58-9", "cn_name": "\u6c2f\u53f8\u66ff\u52c3", "en_name": ["Clostebol", "Androst-4-en-3-one, 4-chloro-17-hydroxy-, (17\u03b2)-", "Androst-4-en-3-one, 4-chloro-17\u03b2-hydroxy-", "Testosterone, 4-chloro-", "(17\u03b2)-4-Chloro-17-hydroxyandrost-4-en-3-one", "4-Chlorotestosterone", "Cholostebol", "4-Chloro-17\u03b2-hydroxyandrost-4-en-3-one", "Clostebol", "Chlortestosterone", "4-Chloro-3-oxo-17\u03b2-hydroxyandrost-4-ene", "4-Androstene-4-chloro-17\u03b2-ol-3-one"], "SMILES": "CC12C3C(C4C(C)(CC3)C(O)CC4)CCC1=C(Cl)C(=O)CC2", "physical_data": {"Molecular Weight": "322.87", "Molecular Formula": "C19H27ClO2", "Melting Point": "189 \u00b0C"}}