{"cas_no": "109425-51-6", "cn_name": "N-Fmoc-N'-\u4e09\u82ef\u7532\u57fa-L-\u7ec4\u6c28\u9178", "en_name": ["N-[(9H-Fluoren-9-ylmethoxy)carbonyl]-1-(triphenylmethyl)-L-histidine", "L-Histidine, N-[(9H-fluoren-9-ylmethoxy)carbonyl]-1-(triphenylmethyl)-", "N-[(9H-Fluoren-9-ylmethoxy)carbonyl]-1-(triphenylmethyl)-L-histidine", "(2S)-2-(9H-Fluoren-9-ylmethoxycarbonylamino)-3-(1-tritylimidazol-4-yl)propanoic acid", "(2S)-2-([[(9H-Fluoren-9-yl)methoxy]carbonyl]amino)-3-[1-(triphenylmethyl)-1H-imidazol-4-yl]propanoic acid", "N-Fmoc-N\u2032-trityl-L-histidine"], "SMILES": "C(N1C=C(CC(NC(OCC2C=3C(C=4C2=CC=CC4)=CC=CC3)=O)C(O)=O)N=C1)(C5=CC=CC=C5)(C6=CC=CC=C6)C7=CC=CC=C7", "physical_data": {"Molecular Weight": "619.71", "Molecular Formula": "C40H33N3O4", "Melting Point": "145 \u00b0C"}}