{"cas_no": "109425-55-0", "cn_name": "N-Fmoc-N'-Boc-L-\u9e1f\u6c28\u9178", "en_name": ["N-\u03b1-Fluorenylmethoxycarbonyl-N-\u03b4-tert-butoxycarbonyl-L-ornithine", "L-Ornithine, N5-[(1,1-dimethylethoxy)carbonyl]-N2-[(9H-fluoren-9-ylmethoxy)carbonyl]-", "N5-[(1,1-Dimethylethoxy)carbonyl]-N2-[(9H-fluoren-9-ylmethoxy)carbonyl]-L-ornithine", "(S)-5-[(tert-Butoxycarbonyl)amino]-2-[[[(9H-fluoren-9-yl)methoxy]carbonyl]amino]pentanoic acid", "N-\u03b1-Fluorenylmethoxycarbonyl-N-\u03b4-tert-butoxycarbonyl-L-ornithine", "Fmoc-L-Orn(Boc)-OH", "(2S)-2-(9H-Fluoren-9-ylmethoxycarbonylamino)-5-[(2-methylpropan-2-yl)oxycarbonylamino]pentanoic acid"], "SMILES": "C(OC(NC(CCCNC(OC(C)(C)C)=O)C(O)=O)=O)C1C=2C(C=3C1=CC=CC3)=CC=CC2", "physical_data": {"Molecular Weight": "454.52", "Molecular Formula": "C25H30N2O6", "Melting Point": "93-94 \u00b0C"}}