{"cas_no": "1094-08-2", "cn_name": "\u76d0\u9178\u4e59\u4e19\u55ea", "en_name": ["Ethopropazine hydrochloride", "10H-Phenothiazine-10-ethanamine, N,N-diethyl-\u03b1-methyl-, hydrochloride (1:1)", "Phenothiazine, 10-[2-(diethylamino)propyl]-, monohydrochloride", "10H-Phenothiazine-10-ethanamine, N,N-diethyl-\u03b1-methyl-, monohydrochloride", "Phenothiazine, 10-[2-(diethylamino)propyl]-, hydrochloride", "Ethopropazine hydrochloride", "Lysivane hydrochloride", "Parsidol hydrochloride", "Profenamine hydrochloride", "Isothazine hydrochloride", "Parsidol monohydrochloride", "Parsidol", "Profenamine monohydrochloride", "Dibutil", "Lysivane", "Pardisol", "Parfezin", "Parphezein", "Parsotil", "Parphezin", "Parsitan", "Rodipal", "NSC 169467", "NSC 64074"], "SMILES": "C(C(N(CC)CC)C)N1C=2C(SC=3C1=CC=CC3)=CC=CC2.Cl", "physical_data": {"Molecular Weight": "", "Molecular Formula": "C19H24N2S.ClH", "Melting Point": "223-225 \u00b0C"}}