{"cas_no": "1095-90-5", "cn_name": "\u76d0\u9178\u7f8e\u6c99\u916e", "en_name": ["Methadone hydrochloride", "3-Heptanone, 6-(dimethylamino)-4,4-diphenyl-, hydrochloride (1:1)", "3-Heptanone, 6-(dimethylamino)-4,4-diphenyl-, hydrochloride", "6-Dimethylamino-4,4-diphenyl-3-heptanone hydrochloride", "Methadone hydrochloride", "4,4-Diphenyl-6-dimethylamino-3-heptanone hydrochloride", "Mecodin", "Adolan", "Algidon", "Algolysin", "Butalgin", "Depridol", "dl-6-Dimethylamino-4,4-diphenyl-3-heptanone hydrochloride", "4,4-Diphenyl-6-dimethylamino-3-heptanone hydrochloride (\u00b1)-", "Dolophin hydrochloride", "Fenadon", "Fenadone", "Hoechst 10820", "Ketalgin hydrochloride", "dl-Methadone hydrochloride", "Miadone", "Moheptan", "Phenadone hydrochloride", "Racemic methadone hydrochloride", "(\u00b1)-Methadone hydrochloride", "Adanon hydrochloride", "Diaminon hydrochloride", "Polamidon", "Dolofin hydrochloride", "AN 148", "Mephenon", "DL-Methadone hydrochloride", "Dolophine", "Heptadon", "Adanon", "Methadose", "Ketalgin", "Amidon", "NSC 19600", "D,L-Methadone hydrochloride", "(\u00b1)-Methodone hydrochloride"], "SMILES": "C(CC(N(C)C)C)(C(CC)=O)(C1=CC=CC=C1)C2=CC=CC=C2.Cl", "physical_data": {"Molecular Weight": "", "Molecular Formula": "C21H27NO.ClH", "Melting Point": "235 \u00b0C"}}