{"cas_no": "1095-77-8", "cn_name": "2,2-\u53cc(4-\u7532\u57fa\u82ef\u57fa)\u516d\u6c1f\u4e19\u70f7", "en_name": ["1,1\u2032-[2,2,2-Trifluoro-1-(trifluoromethyl)ethylidene]bis[4-methylbenzene]", "Benzene, 1,1\u2032-[2,2,2-trifluoro-1-(trifluoromethyl)ethylidene]bis[4-methyl-", "Propane, hexafluoro-2,2-di-p-tolyl-", "Propane, 1,1,1,3,3,3-hexafluoro-2,2-di-p-tolyl-", "1,1\u2032-[2,2,2-Trifluoro-1-(trifluoromethyl)ethylidene]bis[4-methylbenzene]", "2,2-Bis(p-tolyl)hexafluoropropane", "2,2-Bis(4-methylphenyl)hexafluoropropane", "1-[1,1,1,3,3,3-Hexafluoro-2-(4-methylphenyl)propan-2-yl]-4-methylbenzene"], "SMILES": "C(C(F)(F)F)(C(F)(F)F)(C1=CC=C(C)C=C1)C2=CC=C(C)C=C2", "physical_data": {"Molecular Weight": "332.28", "Molecular Formula": "C17H14F6", "Boiling Point": "110-112 \u00b0C @ Press: 1.7 Torr", "Melting Point": "80-81 \u00b0C"}}