{"cas_no": "1095-03-0", "cn_name": "\u4e09\u82ef\u57fa\u787c\u9178\u916f", "en_name": ["Phenyl borate", "Boric acid (H3BO3), triphenyl ester", "Phenyl borate ((C6H5O)3B)", "Phenyl borate", "Triphenyl borate", "Triphenoxyboron", "Triphenoxyborane", "Boron triphenoxide", "NSC 806"], "SMILES": "B(OC1=CC=CC=C1)(OC2=CC=CC=C2)OC3=CC=CC=C3", "physical_data": {"Molecular Weight": "290.12", "Molecular Formula": "C18H15BO3", "Boiling Point": "141.6-148.0 \u00b0C @ Press: 1.5 Torr", "Melting Point": "92-93 \u00b0C"}}