{"cas_no": "1095-78-9", "cn_name": "2,2-\u53cc(4-\u6c28\u57fa\u82ef\u57fa)\u516d\u6c1f\u4e19\u70f7", "en_name": ["4,4\u2032-[2,2,2-Trifluoro-1-(trifluoromethyl)ethylidene]bis[benzenamine]", "Benzenamine, 4,4\u2032-[2,2,2-trifluoro-1-(trifluoromethyl)ethylidene]bis-", "Aniline, 4,4\u2032-[trifluoro-1-(trifluoromethyl)ethylidene]di-", "Aniline, 4,4\u2032-[2,2,2-trifluoro-1-(trifluoromethyl)ethylidene]di-", "4,4\u2032-[2,2,2-Trifluoro-1-(trifluoromethyl)ethylidene]bis[benzenamine]", "4,4\u2032-(Hexafluoroisopropylidene)dianiline", "2,2-Bis(4-aminophenyl)hexafluoropropane", "BIS-A-AF", "Hexafluoroisopropylidene-4,4\u2032-dianiline", "2,2-Bis(4-aminophenyl)-1,1,1,3,3,3-hexafluoropropane", "HFDA"], "SMILES": "C(C(F)(F)F)(C(F)(F)F)(C1=CC=C(N)C=C1)C2=CC=C(N)C=C2", "physical_data": {"Molecular Weight": "334.26", "Molecular Formula": "C15H12F6N2", "Melting Point": "197 \u00b0C"}}