{"cas_no": "1095173-27-5", "cn_name": "\u683c\u62c9\u65af\u5409\u5e03", "en_name": ["N-[(2R,4R)-2-(1H-Benzimidazol-2-yl)-1-methyl-4-piperidinyl]-N\u2032-(4-cyanophenyl)urea", "Urea, N-[(2R,4R)-2-(1H-benzimidazol-2-yl)-1-methyl-4-piperidinyl]-N\u2032-(4-cyanophenyl)-", "N-[(2R,4R)-2-(1H-Benzimidazol-2-yl)-1-methyl-4-piperidinyl]-N\u2032-(4-cyanophenyl)urea", "PF 04449913", "Glasdegib"], "SMILES": "CN1C(C=2NC=3C(N2)=CC=CC3)CC(NC(NC4=CC=C(C#N)C=C4)=O)CC1", "physical_data": {"Molecular Weight": "374.44", "Molecular Formula": "C21H22N6O", "Melting Point": "223-224 \u00b0C"}}