{"cas_no": "109628-27-5", "cn_name": "N-(6-\u7532\u6c27-8-\u55b9\u5549\u57fa)-P-\u5bf9\u7532\u82ef\u78fa\u9170\u7532\u57fa\u4e9a\u785d\u9170\u80fa", "en_name": ["N-(6-Methoxy-8-quinolinyl)-4-methylbenzenesulfonamide", "Benzenesulfonamide, N-(6-methoxy-8-quinolinyl)-4-methyl-", "p-Toluenesulfonamide, N-(6-methoxy-8-quinolyl)-", "N-(6-Methoxy-8-quinolinyl)-4-methylbenzenesulfonamide", "TSQ", "NSC 120213"], "SMILES": "N(S(=O)(=O)C1=CC=C(C)C=C1)C=2C3=C(C=C(OC)C2)C=CC=N3", "physical_data": {"Molecular Weight": "328.39", "Molecular Formula": "C17H16N2O3S", "Melting Point": "131-132 \u00b0C"}}