{"cas_no": "1096-38-4", "cn_name": "16-\u53bb\u6c22\u9ec4\u4f53\u916e", "en_name": ["Pregna-4,16-diene-3,20-dione", "Pregna-4,16-diene-3,20-dione", "16-Dehydroprogesterone", "NSC 11037", "16,17-Didehydroprogesterone", "\u039416-Progesterone", "\u03944,16-Pregnadiene-3,20-dione", "3,20-Dioxopregna-4,16-diene", "NSC 9785"], "SMILES": "CC12C3C(C4C(C)(CC3)C(C(C)=O)=CC4)CCC1=CC(=O)CC2", "physical_data": {"Molecular Weight": "312.45", "Molecular Formula": "C21H28O2", "Melting Point": "186 \u00b0C"}}