{"cas_no": "1096-84-0", "cn_name": "1\uff0c1-\u4e9a\u7532\u57fa-2-\u8418\u915a", "en_name": ["1,1\u2032-Methylenebis[2-naphthalenol]", "2-Naphthalenol, 1,1\u2032-methylenebis-", "2-Naphthol, 1,1\u2032-methylenedi-", "1,1\u2032-Methylenebis[2-naphthalenol]", "1,1\u2032-Methylenedi-2-naphthol", "2,2\u2032-Dihydroxy-1,1\u2032-dinaphthylmethane", "Squoxin", "Bis(2-hydroxy-1-naphthyl)methane", "2,2\u2032-Dihydroxydinaphthylmethane", "2,2\u2032-Dihydroxydi-1-naphthylmethane", "1,1\u2032-Methylenebis(2-naphthol)", "NSC 402620", "NSC 5992", "1,1\u2032-Methylenedinaphthalen-2-ol", "ST 1859", "2DN", "1-(2-Hydroxynaphthalen-1-ylmethyl)naphthalen-2-ol", "1,1\u2032-Methylenebis(naphthalen-2-ol)"], "SMILES": "C(C=1C2=C(C=CC1O)C=CC=C2)C=3C4=C(C=CC3O)C=CC=C4", "physical_data": {"Molecular Weight": "300.35", "Molecular Formula": "C21H16O2", "Melting Point": "189-192 \u00b0C"}}