{"cas_no": "1097-51-4", "cn_name": "16,17-\u73af\u6c27\u9ec4\u4f53\u916e", "en_name": ["16\u03b1,17\u03b1-Epoxyprogesterone", "Pregn-4-ene-3,20-dione, 16,17-epoxy-, (16\u03b1)-", "Pregn-4-ene-3,20-dione, 16\u03b1,17-epoxy-", "Progesterone, 16\u03b1,17-epoxy-", "(16\u03b1)-16,17-Epoxypregn-4-ene-3,20-dione", "16\u03b1,17\u03b1-Epoxyprogesterone", "16\u03b1,17\u03b1-Oxidopregn-4-ene-3,20-dione", "16\u03b1,17\u03b1-Oxidoprogesterone", "16\u03b1,17-Epoxypregn-4-ene-3,20-dione", "16\u03b1,17\u03b1-Epoxy-4-pregnene-3,20-dione", "16\u03b1,17-Epoxyprogesterone", "NSC 18315"], "SMILES": "C(C)(=O)C12C3(C)C(CC1O2)C4C(CC3)C5(C)C(CC4)=CC(=O)CC5", "physical_data": {"Molecular Weight": "328.45", "Molecular Formula": "C21H28O3", "Melting Point": "205-207 \u00b0C"}}