{"cas_no": "109887-53-8", "cn_name": "4-(4-\u6c1f\u82ef\u57fa)-3-\u7f9f\u7532\u57fa-1-\u7532\u57fa\u54cc\u5576", "en_name": ["rel-(3R,4S)-4-(4-Fluorophenyl)-1-methyl-3-piperidinemethanol", "3-Piperidinemethanol, 4-(4-fluorophenyl)-1-methyl-, (3R,4S)-rel-", "3-Piperidinemethanol, 4-(4-fluorophenyl)-1-methyl-, trans-(\u00b1)-", "rel-(3R,4S)-4-(4-Fluorophenyl)-1-methyl-3-piperidinemethanol", "trans-4-(p-Fluorophenyl)-1-methyl-3-piperidinecarbinol", "3-Piperidinemethanol, 4-(4-fluorophenyl)-1-methyl-, trans-", "(\u00b1)-trans-4-(4-Fluorophenyl)-3-(hydroxymethyl)-1-methylpiperidine", "trans-4-(4-Fluorophenyl)-3-hydroxymethyl-N-methylpiperidine", "(\u00b1)-trans-4-(p-Fluorophenyl)-3-(hydroxymethyl)-1-methylpiperidine", "trans-N-Methyl-4-(4-fluorophenyl)-3-(hydroxymethyl)piperidine", "trans-4-(4-Fluorophenyl)-3-(hydroxymethyl)-1-methylpiperidine", "(\u00b1)-trans-4-(4\u2032-Fluorophenyl)-3-hydroxymethyl-1-methylpiperidine", "trans-3-Hydroxymethyl-4-(4-fluorophenyl)-N-methylpiperidine", "(\u00b1)-Paroxol"], "SMILES": "C(O)C1C(CCN(C)C1)C2=CC=C(F)C=C2", "physical_data": {"Molecular Weight": "223.29", "Molecular Formula": "C13H18FNO", "Melting Point": "122.5-122.9 \u00b0C"}}