{"cas_no": "109806-71-5", "cn_name": "4-\u6c2f\u53cc\u82ef\u57fa\u7532\u54cc\u4e59\u9187", "en_name": ["2-[4-[(4-Chlorophenyl)phenylmethyl]piperazin-1-yl]ethanol", "1-Piperazineethanol, 4-[(4-chlorophenyl)phenylmethyl]-", "1-Piperazineethanol, 4-(p-chloro-\u03b1-phenylbenzyl)-", "4-[(4-Chlorophenyl)phenylmethyl]-1-piperazineethanol", "2-[4-[(4-Chlorophenyl)phenylmethyl]piperazin-1-yl]ethanol"], "SMILES": "C(N1CCN(CCO)CC1)(C2=CC=C(Cl)C=C2)C3=CC=CC=C3", "physical_data": {"Molecular Weight": "330.85", "Molecular Formula": "C19H23ClN2O", "Boiling Point": "205-208 \u00b0C @ Press: 0.1 Torr"}}