{"cas_no": "1098-60-8", "cn_name": "\u76d0\u9178\u4e09\u6c1f\u4e19\u55ea", "en_name": ["10H-Phenothiazine-10-propanamine, N,N-dimethyl-2-(trifluoromethyl)-, monohydrochloride", "10H-Phenothiazine-10-propanamine, N,N-dimethyl-2-(trifluoromethyl)-, hydrochloride (1:1)", "Phenothiazine, 10-[3-(dimethylamino)propyl]-2-(trifluoromethyl)-, monohydrochloride", "10H-Phenothiazine-10-propanamine, N,N-dimethyl-2-(trifluoromethyl)-, monohydrochloride", "Phenothiazine, 10-(3-dimethylaminopropyl)-2-(trifluoromethyl)-, hydrochloride", "10-(3-Dimethylaminopropyl)-2-(trifluoromethyl)phenothiazine monohydrochloride", "Trifluopromazine hydrochloride", "Triflupromazine hydrochloride", "Vesprin hydrochloride", "Vesprin", "Siquil hydrochloride", "Triflupromazine monohydrochloride", "Neoprin", "Nivoman", "Flumazin", "Fluorofen", "MC 4703", "Vetame", "Syquil", "Adazine", "Vespral", "Neocalm"], "SMILES": "C(CCN(C)C)N1C=2C(SC=3C1=CC=CC3)=CC=C(C(F)(F)F)C2.Cl", "physical_data": {"Molecular Weight": "", "Molecular Formula": "C18H19F3N2S.ClH", "Melting Point": "172-174 \u00b0C (decomp)"}}