{"cas_no": "1098-97-1", "cn_name": "\u5421\u786b\u9187", "en_name": ["Pyritinol", "4-Pyridinemethanol, 3,3\u2032-[dithiobis(methylene)]bis[5-hydroxy-6-methyl-", "4-Pyridinemethanol, 3,3\u2032-(dithiodimethylene)bis[5-hydroxy-6-methyl-", "3,3\u2032-[Dithiobis(methylene)]bis[5-hydroxy-6-methyl-4-pyridinemethanol]", "Bis-(4-hydroxymethyl-5-hydroxy-6-methyl-3-pyridylmethyl) disulfide", "3,3\u2032-(Dithiodimethylene)bis[5-hydroxy-6-methyl-4-pyridinemethanol]", "Pyritinol", "Bis(2-methyl-3-hydroxy-4-hydroxymethylpyridyl-5-methyl) disulfide", "Vitamin B6 disulfide", "Bis[(3-hydroxy-4-hydroxymethyl-2-methyl-5-pyridyl)methyl] disulfide", "Dipyridoxolyl disulfide", "Pyridoxine-5-disulfide", "Epocan", "Bis[[5-hydroxy-4-(hydroxymethyl)-6-methyl-3-pyridyl]methyl] disulfide", "Encefabol", "Bonifen", "Bonol", "Pyrithioxin", "Pyridoxine disulfide", "Piritinol", "Pyroxidine-5-disulfide"], "SMILES": "C(SSCC=1C(CO)=C(O)C(C)=NC1)C=2C(CO)=C(O)C(C)=NC2", "physical_data": {"Molecular Weight": "368.47", "Molecular Formula": "C16H20N2O4S2", "Melting Point": "219 \u00b0C"}}