{"cas_no": "1099-87-2", "cn_name": "\u53bb\u6c22\u8868\u96c4\u916e\u786b\u9178\u94a0", "en_name": ["Sodium prasterone sulfate", "Androst-5-en-17-one, 3-(sulfooxy)-, sodium salt (1:1), (3\u03b2)-", "Androst-5-en-17-one, 3\u03b2-hydroxy-, hydrogen sulfate, sodium salt", "Androst-5-en-17-one, 3-(sulfooxy)-, sodium salt, (3\u03b2)-", "Dehydroepiandrosterone sulfate sodium salt", "Dehydroisoandrosterone sulfate sodium salt", "Sodium dehydroepiandrosterone-3-sulfate", "Sodium dehydroepiandrosterone sulfate", "Sodium prasterone sulfate", "Mylis", "Teloin", "Prasterone sodium sulfate", "DHA-S", "NSC 72822", "DHEA sulfate sodium salt"], "SMILES": "CC12C3C(C4C(C)(CC3)C(=O)CC4)CC=C1CC(OS(=O)(=O)O)CC2.[Na]", "physical_data": {"Molecular Weight": "", "Molecular Formula": "C19H28O5S.Na", "Melting Point": "154 \u00b0C (decomp)"}}