{"cas_no": "1099-45-2", "cn_name": "\u4e59\u6c27\u7532\u9170\u57fa\u4e9a\u7532\u57fa\u4e09\u82ef\u57fa\u81a6", "en_name": ["Ethyl triphenylphosphoranylideneacetate", "Acetic acid, 2-(triphenylphosphoranylidene)-, ethyl ester", "Acetic acid, (triphenylphosphoranylidene)-, ethyl ester", "[(Ethoxycarbonyl)methylene]triphenylphosphorane", "Ethyl triphenylphosphoranylideneacetate", "(Triphenylcarbethoxymethylene)phosphorane", "(Carbethoxymethylene)triphenylphosphorane", "Carbethoxytriphenylphosphonium methylide", "(Carbethoxymethylidene)triphenylphosphorane", "(Triphenylphosphoranylidene)acetic acid ethyl ester", "(Ethoxycarbonylmethylidene)triphenylphosphorane", "(2-Ethoxy-2-oxoethylidene)triphenylphosphorane", "NSC 72406", "(Triphenylphosphanylidene)acetic acid ethyl ester", "(Triphenyl-\u03bb5-phosphanylidene)acetic acid ethyl ester", "Ethyl 2-(triphenyl-\u03bb5-phosphanylidene)acetate", "Ethyl (triphenylphosphanylidene)acetate", "Ethyl 2-(triphenylphosphanylidene)acetate", "(Carbethoxymethylene)triphenylphosphoran", "Triphenylphosphonium ethoxycarbonylmethylide", "NSC 167159", "Ethyl 2-(triphenylphosphaneylidene)acetate"], "SMILES": "P(=CC(OCC)=O)(C1=CC=CC=C1)(C2=CC=CC=C2)C3=CC=CC=C3", "physical_data": {"Molecular Weight": "348.37", "Molecular Formula": "C22H21O2P", "Melting Point": "123.5-125.5 \u00b0C", "Density": "1.086 g/cm\u00b3"}}