{"cas_no": "110-18-9", "cn_name": "N,N,N',N'-\u56db\u7532\u57fa\u4e59\u4e8c\u80fa", "en_name": ["N,N,N\u2032,N\u2032-Tetramethylethylenediamine", "1,2-Ethanediamine, N1,N1,N2,N2-tetramethyl-", "Ethylenediamine, N,N,N\u2032,N\u2032-tetramethyl-", "1,2-Ethanediamine, N,N,N\u2032,N\u2032-tetramethyl-", "N1,N1,N2,N2-Tetramethyl-1,2-ethanediamine", "N,N,N\u2032,N\u2032-Tetramethyl-1,2-diaminoethane", "N,N,N\u2032,N\u2032-Tetramethyldiaminoethane", "N,N,N\u2032,N\u2032-Tetramethylethylenediamine", "1,2-Bis(dimethylamino)ethane", "Dimethyl[2-(dimethylamino)ethyl]amine", "TEMED", "Propamine D", "Tetrameen", "2,5-Dimethyl-2,5-diazahexane", "TMEDA", "TMED", "Toyocat TE", "Kaolizer 11", "MR", "MR (amine)", "N,N,N\u2032,N\u2032-Tetramethyl-1,2-ethanediamine", "(2-(Dimethylamino)ethyl)dimethylamine", "Dabco TMEDA", "N,N,N\u2032,N\u2032-Tetramethyl-1,2-ethylenediamine", "PC CAT TMEDA", "Addocat 6090", "Tetramethyl ethylene diamine", "RC 6090"], "SMILES": "C(CN(C)C)N(C)C", "physical_data": {"Molecular Weight": "116.20", "Molecular Formula": "C6H16N2", "Boiling Point": "121 \u00b0C", "Melting Point": "-55 \u00b0C", "Density": "0.7765 g/cm\u00b3 @ Temp: 20 \u00b0C"}}