{"cas_no": "110-44-1", "cn_name": "\u5c71\u68a8\u9178", "en_name": ["Sorbic acid", "2,4-Hexadienoic acid, (2E,4E)-", "Sorbic acid", "2,4-Hexadienoic acid, (E,E)-", "(2E,4E)-2,4-Hexadienoic acid", "(E,E)-1,3-Pentadiene-1-carboxylic acid", "Sorbistat", "trans,trans-Sorbic acid", "\u03b1-trans-\u03b3-trans-Sorbic acid", "trans,trans-2,4-Hexadienoic acid", "(E,E)-2,4-Hexadienoic acid", "Panosorb", "E 200", "2E,4E-Hexadienoic acid", "NSC 35405", "NSC 49103", "NSC 50268", "SO 215", "2,4-Hexadienoic acid", "Sorbinic acid", "(2E,4E)-Hexa-2,4-dienoic acid", "MeSH ID: D013011"], "SMILES": "C(=CC=CC)C(O)=O", "physical_data": {"Molecular Weight": "112.13", "Molecular Formula": "C6H8O2", "Boiling Point": "90-92 \u00b0C @ Press: 35 Torr", "Melting Point": "134.5 \u00b0C", "Density": "1.204 g/cm\u00b3 @ Temp: 19 \u00b0C"}}