{"cas_no": "110-87-2", "cn_name": "3,4-\u4e8c\u6c22-2H-\u5421\u5583", "en_name": ["3,4-Dihydro-2H-pyran", "2H-Pyran, 3,4-dihydro-", "Pyran, dihydro-", "2-Pyran, 3,4-dihydro-", "1,2-Pyran, 3,4-dihydro-", "3,4-Dihydro-2H-pyran", "2,3-Dihydro-4H-pyran", "2H-3,4-Dihydropyran", "\u03942-Dihydropyran", "5,6-Dihydro-4H-pyran", "Dihydropyran", "Dihydro-2H-pyran", "2,3-Dihydro-\u03b3-pyran", "NSC 57860", "NSC 73472", "3,4-Dihydro-2H-pyrane", "2,3,4-Trihydropyran"], "SMILES": "C1CCOC=C1", "physical_data": {"Molecular Weight": "84.12", "Molecular Formula": "C5H8O", "Boiling Point": "86 \u00b0C", "Melting Point": "-70 \u00b0C", "Density": "0.922 g/cm\u00b3 @ Temp: 19 \u00b0C"}}