{"cas_no": "110-59-8", "cn_name": "\u620a\u8148", "en_name": ["Valeronitrile", "Pentanenitrile", "Valeronitrile", "Butane, 1-cyano-", "Butyl cyanide", "1-Cyanobutane", "1-Butyl cyanide", "n-Valeronitrile", "n-Pentanenitrile", "n-Butyl cyanide"], "SMILES": "C(CC#N)CC", "physical_data": {"Molecular Weight": "83.13", "Molecular Formula": "C5H9N", "Boiling Point": "141.3 \u00b0C", "Melting Point": "-96.2 \u00b0C", "Density": "0.80361 g/cm\u00b3 @ Temp: 15 \u00b0C"}}