{"cas_no": "110-78-1", "cn_name": "\u5f02\u6c30\u9178\u4e19\u916f", "en_name": ["Propyl isocyanate", "Propane, 1-isocyanato-", "Isocyanic acid, propyl ester", "1-Isocyanatopropane", "Propyl isocyanate", "1-Propyl isocyanate", "n-Propyl isocyanate", "NSC 89688"], "SMILES": "C(N=C=O)CC", "physical_data": {"Molecular Weight": "85.10", "Molecular Formula": "C4H7NO", "Boiling Point": "83.5 \u00b0C"}}