{"cas_no": "110-13-4", "cn_name": "2,5-\u5df1\u4e8c\u916e", "en_name": ["2,5-Hexanedione", "2,5-Hexanedione", "\u03b1,\u03b2-Diacetylethane", "1,2-Diacetylethane", "Acetonylacetone", "Diacetonyl", "2,5-Dioxohexane", "2,5-Diketohexane", "NSC 7621", "4-Acetyl-2-butanone"], "SMILES": "C(CC(C)=O)C(C)=O", "physical_data": {"Molecular Weight": "114.14", "Molecular Formula": "C6H10O2", "Boiling Point": "194 \u00b0C", "Melting Point": "-5.5 \u00b0C", "Density": "0.971 g/cm\u00b3 @ Temp: 20 \u00b0C"}}