{"cas_no": "110-97-4", "cn_name": "\u4e8c\u5f02\u4e19\u9187\u80fa", "en_name": ["Diisopropanolamine", "2-Propanol, 1,1\u2032-iminobis-", "2-Propanol, 1,1\u2032-iminodi-", "1,1\u2032-Iminobis[2-propanol]", "Diisopropanolamine", "1,1\u2032-Iminodi-2-propanol", "Bis(2-hydroxypropyl)amine", "Bis(2-propanol)amine", "DIPA", "N,N-Bis(2-hydroxypropyl)amine", "DIPA (alcohol)", "Di-2-propanolamine", "NSC 4963", "N,N-Diisopropanolamine", "1-[(2-Hydroxypropyl)amino]propan-2-ol", "1-(2-Hydroxypropylamino)propan-2-ol"], "SMILES": "N(CC(C)O)CC(C)O", "physical_data": {"Molecular Weight": "133.19", "Molecular Formula": "C6H15NO2", "Boiling Point": "249-250 \u00b0C @ Press: 745 Torr", "Melting Point": "44.5-45.5 \u00b0C", "Density": "0.989 g/cm\u00b3 @ Temp: 20 \u00b0C"}}