{"cas_no": "110-51-0", "cn_name": "\u5421\u5576\u787c\u70f7", "en_name": ["Pyridine-borane", "Boron, trihydro(pyridine)-, (T-4)-", "Pyridine, compd. with borane (1:1)", "Pyridine, compd. with BH3 (1:1)", "Pyridine, compd. with BH3", "Borane, compd. with pyridine (1:1)", "(T-4)-Trihydro(pyridine)boron", "Pyridine-borane", "Trihydro(pyridine)boron", "Borane-pyridine (1:1)", "NSC 10219", "NSC 53324", "Borane pyridine complex"], "SMILES": "[B+3]([H-])([H-])([H-])[N]=1C=CC=CC1", "physical_data": {"Molecular Weight": "", "Molecular Formula": "C5H8BN", "Melting Point": "46-47 \u00b0C"}}