{"cas_no": "110-17-8", "cn_name": "\u5bcc\u9a6c\u9178", "en_name": ["Fumaric acid", "2-Butenedioic acid (2E)-", "Fumaric acid", "2-Butenedioic acid (E)-", "(2E)-2-Butenedioic acid", "Allomaleic acid", "Boletic acid", "trans-Butenedioic acid", "trans-1,2-Ethylenedicarboxylic acid", "Lichenic acid", "2-Butenedioic acid, (E)-", "trans-2-Butenedioic acid", "2-(E)-Butenedioic acid", "FC 33", "(E)-2-Butenedioic acid", "FC 33 (acid)", "(2E)-But-2-enedioic acid", "NSC 2752", "Petrom", "Bakeshure 451", "Bakeshure 470", "(2E)-But-2-enedioic acid", "Fumarates", "MeSH ID: D005650"], "SMILES": "C(=CC(O)=O)C(O)=O", "physical_data": {"Molecular Weight": "116.07", "Molecular Formula": "C4H4O4", "Boiling Point": "522 \u00b0C", "Melting Point": "200 \u00b0C (sublm)", "Density": "1.635 g/cm\u00b3 @ Temp: 20 \u00b0C"}}