{"cas_no": "110-86-1", "cn_name": "\u5421\u5576", "en_name": ["Pyridine", "Pyridine", "Azabenzene", "Azine", "CP 32", "NSC 141574", "NSC 406123", "A 57147"], "SMILES": "C=1C=CN=CC1", "physical_data": {"Molecular Weight": "79.10", "Molecular Formula": "C5H5N", "Boiling Point": "115.2-115.3 \u00b0C", "Melting Point": "-41.6 \u00b0C", "Density": "0.98272 g/cm\u00b3 @ Temp: 20 \u00b0C"}}