{"cas_no": "110-62-3", "cn_name": "\u6b63\u620a\u919b", "en_name": ["Pentanal", "Pentanal", "Valeraldehyde", "Valeral", "Valeric aldehyde", "n-Valeraldehyde", "n-Pentanal", "Valeric acid aldehyde", "Pentylaldehyde", "NSC 35404", "Amyl aldehyde"], "SMILES": "C(CC=O)CC", "physical_data": {"Molecular Weight": "86.13", "Molecular Formula": "C5H10O", "Boiling Point": "103 \u00b0C @ Press: 760 Torr", "Melting Point": "-91.5 \u00b0C", "Density": "0.8095 g/cm\u00b3 @ Temp: 20 \u00b0C"}}