{"cas_no": "110-33-8", "cn_name": "\u5df1\u4e8c\u9178\u4e8c\u6b63\u5df1\u916f", "en_name": ["Dihexyl adipate", "Hexanedioic acid, 1,6-dihexyl ester", "Adipic acid, dihexyl ester", "Hexanedioic acid, dihexyl ester", "Dihexyl adipate", "Dihexyl hexanedioate", "Plastomoll DHA"], "SMILES": "C(CCCC(OCCCCCC)=O)C(OCCCCCC)=O", "physical_data": {"Molecular Weight": "314.46", "Molecular Formula": "C18H34O4", "Melting Point": "-9--7 \u00b0C"}}