{"cas_no": "110-41-8", "cn_name": "2-\u7532\u57fa\u5341\u4e00\u919b", "en_name": ["2-Methylundecanal", "Undecanal, 2-methyl-", "2-Methylundecanal", "Methyl n-nonyl acetaldehyde", "Methylnonylacetaldehyde", "2-Methyl-1-undecanal", "Aldehyde M.N.A.", "NSC 46127", "Aldehyde C-12 MNA"], "SMILES": "C(CCCCCCCC)C(C=O)C", "physical_data": {"Molecular Weight": "184.32", "Molecular Formula": "C12H24O", "Boiling Point": "119-122 \u00b0C @ Press: 16 Torr", "Density": "0.836 g/cm\u00b3 @ Temp: 0 \u00b0C"}}