{"cas_no": "110-77-0", "cn_name": "\u4e59\u57fa2-\u7f9f\u4e59\u57fa\u786b\u919a", "en_name": ["2-(Ethylthio)ethanol", "Ethanol, 2-(ethylthio)-", "2-(Ethylthio)ethanol", "Ethyl 2-hydroxyethyl sulfide", "Ethyl 2-hydroxyethyl thioether", "\u03b2-Hydroxydiethyl sulfide", "2-Hydroxyethyl ethyl sulfide", "Ethyl \u03b2-hydroxyethyl sulfide", "\u03b2-Ethylthioethanol", "2-Ethylmercaptoethanol", "NSC 57105", "2-(Ethylthio)-1-ethanol", "3-Thia-1-pentanol", "2-Ethylsulfanyl-ethanol", "2-(Ethylsulfanyl)ethanol", "2-(Ethylsulfanyl)ethan-1-ol"], "SMILES": "C(SCC)CO", "physical_data": {"Molecular Weight": "106.19", "Molecular Formula": "C4H10OS", "Boiling Point": "184.5 \u00b0C @ Press: 760 Torr", "Melting Point": "~-100 \u00b0C (approx)", "Density": "1.0166 g/cm\u00b3 @ Temp: 20 \u00b0C"}}