{"cas_no": "110-27-0", "cn_name": "\u8089\u8c46\u853b\u9178\u5f02\u4e19\u916f", "en_name": ["Isopropyl myristate", "Tetradecanoic acid, 1-methylethyl ester", "Myristic acid, isopropyl ester", "Bisomel", "Emcol IM", "Isopropyl myristate", "Kesscomir", "Promyr", "Deltyl Extra", "Isopropyl tetradecanoate", "Sinnoester MIP", "Kessco IPM", "Wickenol 101", "Crodamol IPM", "Isomyst", "Stepan D 50", "Emerest 2314", "D 50", "D 50 (emollient)", "IPM", "Crodacol IPM", "1-Methylethyl tetradecanoate", "Rilanit IPM", "IPM-R", "Estol IPM 1512", "IPM 100", "Estol 1512", "Tegosoft M", "Radia 7190", "Pelemol IPM", "Estol 1514", "NSC 406280", "IPM-EX", "Lexol IPM", "Nikkol IPM", "Stepan IPM", "Nikkol IPM 100", "Nikkol IPM-EX", "Exceparl IPM", "Isopropyl myristate-PM", "Kollicream IPM", "Pastell IP 14", "Liponate IPM", "Matlube IPM-S", "SR Crodamol IPM-LQ", "Propan-2-yl tetradecanoate", "SR Crodamol IPM-LQ(JP)", "Exceparl IPML", "Radia 7730"], "SMILES": "C(CCCCCCCCCCCC)C(OC(C)C)=O", "physical_data": {"Molecular Weight": "270.45", "Molecular Formula": "C17H34O2", "Boiling Point": "192.6 \u00b0C @ Press: 20 Torr", "Melting Point": "~3 \u00b0C (approx)", "Density": "0.8532 g/cm\u00b3 @ Temp: 20 \u00b0C"}}