{"cas_no": "110-85-0", "cn_name": "\u54cc\u55ea", "en_name": ["Piperazine", "Piperazine", "Antiren", "1,4-Diazacyclohexane", "Diethylenediamine", "Dispermine", "Hexahydropyrazine", "Lumbrical", "Piperazidine", "Pyrazine, hexahydro-", "Pyrazine hexahydride", "Pipersol", "1,4-Piperazine", "Wurmirazin", "Worm-A-Ton", "Eraverm", "Uvilon", "Vermex", "NSC 474", "Tetrahydro-1,4-diazine"], "SMILES": "C1CNCCN1", "physical_data": {"Molecular Weight": "86.14", "Molecular Formula": "C4H10N2", "Boiling Point": "146 \u00b0C @ Press: 760 Torr", "Melting Point": "106 \u00b0C", "Density": "1.1 g/cm\u00b3"}}