{"cas_no": "110-63-4", "cn_name": "1,4-\u4e01\u4e8c\u9187", "en_name": ["1,4-Butanediol", "1,4-Butanediol", "Diol 14B", "1,4-Butylene glycol", "1,4-Dihydroxybutane", "Sucol B", "Tetramethylene glycol", "1,4-Tetramethylene glycol", "Tetramethylene 1,4-diol", "Butylene glycol", "Polycure D", "Dabco DBO", "Vibracure A 250", "NSC 406696", "ZM 0025", "1,4BD", "14BG", "Addolink B", "U 7085", "Bio-BDO", "B 0680", "B 110391", "Baytec XL-B", "A 040124"], "SMILES": "C(CCO)CO", "physical_data": {"Molecular Weight": "90.12", "Molecular Formula": "C4H10O2", "Boiling Point": "230 \u00b0C @ Press: 760 Torr", "Melting Point": "20.1 \u00b0C", "Density": "1.0171 g/cm\u00b3 @ Temp: 20 \u00b0C"}}