{"cas_no": "110-81-6", "cn_name": "\u4e8c\u4e59\u57fa\u4e8c\u786b\u919a", "en_name": ["Diethyl disulfide", "Disulfide, diethyl", "Ethyl disulfide", "Diethyl disulfide", "3,4-Dithiahexane", "Ethyldithioethane", "Ethyl disulphide", "NSC 8839", "Diethyl dithioether", "1,2-Diethyldisulfane", "(Ethyldisulfanyl)ethane"], "SMILES": "S(SCC)CC", "physical_data": {"Molecular Weight": "122.25", "Molecular Formula": "C4H10S2", "Boiling Point": "154.1 \u00b0C", "Melting Point": "-101.5 \u00b0C", "Density": "0.8363 g/cm\u00b3 @ Temp: 20 \u00b0C"}}