{"cas_no": "110-40-7", "cn_name": "\u7678\u4e8c\u9178\u4e8c\u4e59\u916f", "en_name": ["Diethyl sebacate", "Decanedioic acid, 1,10-diethyl ester", "Sebacic acid, diethyl ester", "Decanedioic acid, diethyl ester", "Bisoflex DES", "Diethyl decanedioate", "Diethyl 1,10-decanedioate", "Diethyl sebacate", "Ethyl sebacate", "SDE", "NSC 8911", "Nikkol DES-SP"], "SMILES": "C(CCCCCCCC(OCC)=O)C(OCC)=O", "physical_data": {"Molecular Weight": "258.35", "Molecular Formula": "C14H26O4", "Boiling Point": "305 \u00b0C", "Melting Point": "5 \u00b0C"}}