{"cas_no": "110-39-4", "cn_name": "\u4e01\u9178\u8f9b\u916f", "en_name": ["Octyl butyrate", "Butanoic acid, octyl ester", "Butyric acid, octyl ester", "Octyl butyrate", "n-Octyl butyrate", "n-Octyl n-butyrate", "Octyl butanoate", "1-Octyl butyrate", "NSC 72032", "Caprylyl butyrate"], "SMILES": "O(CCCCCCCC)C(CCC)=O", "physical_data": {"Molecular Weight": "200.32", "Molecular Formula": "C12H24O2", "Boiling Point": "244.1 \u00b0C", "Melting Point": "-55.6 \u00b0C"}}