{"cas_no": "110-74-7", "cn_name": "\u7532\u9178\u4e19\u916f", "en_name": ["Propyl formate", "Formic acid, propyl ester", "Propyl formate", "n-Propyl formate", "Propyl methanoate"], "SMILES": "C(OC=O)CC", "physical_data": {"Molecular Weight": "88.11", "Molecular Formula": "C4H8O2", "Boiling Point": "80.9 \u00b0C", "Melting Point": "-92.9 \u00b0C", "Density": "0.92868 g/cm\u00b3 @ Temp: 40 \u00b0C"}}