{"cas_no": "110-58-7", "cn_name": "1-\u6c28\u57fa\u620a\u70f7", "en_name": ["Pentylamine", "1-Pentanamine", "Pentylamine", "1-Aminopentane", "Amylamine", "Monoamylamine", "Norleucamine", "n-Pentylamine", "n-Amylamine", "1-Pentylamine", "Monopentylamine", "NSC 7906"], "SMILES": "C(CCN)CC", "physical_data": {"Molecular Weight": "87.16", "Molecular Formula": "C5H13N", "Boiling Point": "104.3 \u00b0C", "Melting Point": "-55 \u00b0C", "Density": "0.7589 g/cm\u00b3 @ Temp: 20 \u00b0C"}}