{"cas_no": "110-15-6", "cn_name": "\u4e01\u4e8c\u9178", "en_name": ["Succinic acid", "Butanedioic acid", "Succinic acid", "Amber acid", "Asuccin", "1,2-Ethanedicarboxylic acid", "Wormwood acid", "Dihydrofumaric acid", "Katasuccin", "1,4-Butanedioic acid", "A 12084", "NSC 106449", "NSC 25949", "Yantar-antitox", "Biosuccinium SA", "S 3674", "Biosuccinium", "MeSH ID: D019802"], "SMILES": "C(CC(O)=O)C(O)=O", "physical_data": {"Molecular Weight": "118.09", "Molecular Formula": "C4H6O4", "Boiling Point": "235 \u00b0C", "Melting Point": "188 \u00b0C", "Density": "1.572 g/cm\u00b3 @ Temp: 25 \u00b0C"}}