{"cas_no": "110-89-4", "cn_name": "\u516d\u6c22\u5421\u5576", "en_name": ["Piperidine", "Piperidine", "Azacyclohexane", "Cyclopentimine", "Cypentil", "Hexahydropyridine", "Hexazane", "Pentamethylenimine", "Pyridine, hexahydro-", "Perhydropyridine"], "SMILES": "C1CCNCC1", "physical_data": {"Molecular Weight": "85.15", "Molecular Formula": "C5H11N", "Boiling Point": "106 \u00b0C @ Press: 760 Torr", "Melting Point": "-7 \u00b0C", "Density": "0.8622 g/cm\u00b3 @ Temp: 20 \u00b0C"}}