{"cas_no": "110-57-6", "cn_name": "\u53cd\u5f0f-1,4-\u4e8c\u6c2f-2-\u4e01\u70ef", "en_name": ["trans-1,4-Dichloro-2-butene", "2-Butene, 1,4-dichloro-, (2E)-", "2-Butene, 1,4-dichloro-, (E)-", "2-Butene, 1,4-dichloro-, trans-", "(2E)-1,4-Dichloro-2-butene", "(E)-1,4-Dichloro-2-butene", "trans-1,4-Dichloro-2-butene", "1,4-Dichloro-trans-2-butene", "trans-1,4-Dichlorobuten-2-ene", "1,4-Dichloro-2-trans-butene", "(2E)-1,4-Dichlorobut-2-ene"], "SMILES": "C(=CCCl)CCl", "physical_data": {"Molecular Weight": "125.00", "Molecular Formula": "C4H6Cl2", "Boiling Point": "155.4 \u00b0C", "Melting Point": "2 \u00b0C", "Density": "1.183 g/cm\u00b3 @ Temp: 25 \u00b0C"}}