{"cas_no": "110-69-0", "cn_name": "\u4e01\u919b\u809f", "en_name": ["Butanal, oxime", "Butanal, oxime", "Butyraldehyde, oxime", "Butyraldoxime", "n-Butyraldoxime", "Butylaldoxime", "Butanaldoxime", "n-Butylaldoxime", "NSC 1487"], "SMILES": "C(C=NO)CC", "physical_data": {"Molecular Weight": "87.12", "Molecular Formula": "C4H9NO", "Boiling Point": "154 \u00b0C", "Melting Point": "-29.5 \u00b0C", "Density": "0.906 g/cm\u00b3 @ Temp: 204 \u00b0C"}}