{"cas_no": "110-73-6", "cn_name": "N-\u4e59\u57fa\u4e59\u9187\u80fa", "en_name": ["2-(Ethylamino)ethanol", "Ethanol, 2-(ethylamino)-", "2-(Ethylamino)ethanol", "N-Ethylmonoethanolamine", "2-(Monoethylamino)ethanol", "N-Ethylethanolamine", "(2-Hydroxyethyl)ethylamine", "N-Ethyl-N-(\u03b2-hydroxyethyl)amine", "N-Ethyl-N-(2-hydroxyethyl)amine", "N-Ethyl-2-aminoethanol", "2-(N-Ethylamino)ethanol", "N-(2-Hydroxyethyl)ethylamine", "Amino Alcohol MEM", "N-(2-Hydroxyethyl)-N-ethylamine"], "SMILES": "C(NCC)CO", "physical_data": {"Molecular Weight": "89.14", "Molecular Formula": "C4H11NO", "Boiling Point": "169.5 \u00b0C", "Density": "0.913386 g/cm\u00b3 @ Temp: 25.00 \u00b0C"}}