{"cas_no": "110-45-2", "cn_name": "\u7532\u9178\u5f02\u620a\u916f", "en_name": ["Isoamyl formate", "1-Butanol, 3-methyl-, 1-formate", "Isopentyl alcohol, formate", "1-Butanol, 3-methyl-, formate", "Isoamyl formate", "Isoamyl methanoate", "Isopentyl formate", "3-Methylbutyl formate", "NSC 6530"], "SMILES": "C(COC=O)C(C)C", "physical_data": {"Molecular Weight": "116.16", "Molecular Formula": "C6H12O2", "Boiling Point": "123.5 \u00b0C", "Melting Point": "-93.5 \u00b0C", "Density": "0.8820 g/cm\u00b3 @ Temp: 20 \u00b0C"}}