{"cas_no": "110-53-2", "cn_name": "\u6eb4\u620a\u70f7", "en_name": ["1-Bromopentane", "Pentane, 1-bromo-", "1-Bromopentane", "n-Amyl bromide", "n-Pentyl bromide", "Amyl bromide", "Pentyl bromide", "1-Pentyl bromide", "NSC 7895"], "SMILES": "C(CCC)CBr", "physical_data": {"Molecular Weight": "151.04", "Molecular Formula": "C5H11Br", "Boiling Point": "129.8 \u00b0C", "Melting Point": "-95 \u00b0C", "Density": "1.24264 g/cm\u00b3 @ Temp: 0 \u00b0C"}}