{"cas_no": "110-70-3", "cn_name": "N,N'-\u4e8c\u7532\u57fa\u4e59\u4e8c\u80fa", "en_name": ["N,N\u2032-Dimethylethylenediamine", "1,2-Ethanediamine, N1,N2-dimethyl-", "Ethylenediamine, N,N\u2032-dimethyl-", "1,2-Ethanediamine, N,N\u2032-dimethyl-", "N1,N2-Dimethyl-1,2-ethanediamine", "2,5-Diazahexane", "N,N\u2032-Dimethyldiaminoethane", "N,N\u2032-Dimethylethylenediamine", "N,N\u2032-Dimethylethanediamine", "N,N\u2032-Dimethyl-1,2-ethanediamine", "sym-Dimethylethylenediamine", "1,2-Bis(methylamino)ethane", "N,N\u2032-Dimethyl-1,2-diaminoethane", "Symmetrical dimethylethylenediamine", "N,N\u2032-Dimethyl-1,2-ethylenediamine", "N-Methyl-N-[2-(methylamino)ethyl]amine", "(Methyl)[2-(methylamino)ethyl]amine", "DMEDA", "N1,N2-Dimethylethane-1,2-diamine", "N,N\u2032-Dimethylethane-1,2-diamine"], "SMILES": "C(CNC)NC", "physical_data": {"Molecular Weight": "88.15", "Molecular Formula": "C4H12N2", "Boiling Point": "120 \u00b0C"}}