{"cas_no": "110-20-3", "cn_name": "\u4e19\u916e\u7f29\u6c28\u8132", "en_name": ["2-(1-Methylethylidene)hydrazinecarboxamide", "Hydrazinecarboxamide, 2-(1-methylethylidene)-", "Acetone, semicarbazone", "2-(1-Methylethylidene)hydrazinecarboxamide", "NSC 456", "[(Propan-2-ylidene)amino]urea", "(Propan-2-ylideneamino)urea", "2-(Propan-2-ylidene)hydrazinecarboxamide"], "SMILES": "N(NC(N)=O)=C(C)C", "physical_data": {"Molecular Weight": "115.13", "Molecular Formula": "C4H9N3O", "Melting Point": "187 \u00b0C"}}