{"cas_no": "110-30-5", "cn_name": "\u4e59\u6491\u53cc\u786c\u8102\u9170\u80fa", "en_name": ["Ethylenebis(stearamide)", "Octadecanamide, N,N\u2032-1,2-ethanediylbis-", "Octadecanamide, N,N\u2032-ethylenebis-", "N,N\u2032-1,2-Ethanediylbis[octadecanamide]", "Advawax", "N,N\u2032-Ethylenebis(stearamide)", "Lubrol EA", "N,N\u2032-Distearoylethylenediamine", "Ethylenebis[stearamide]", "Abril wax 10DS", "Ethylenediamine bis(stearamide)", "Carlisle Wax 280", "Microtomic 280", "N,N\u2032-Ethylene distearylamide", "Advawax 280", "N,N\u2032-Ethylenedistearamide", "1,2-Bis(octadecanamido)ethane", "Plastflow", "Carlisle 280", "Advawax 275", "Acrawax CT", "Kemamide W 40", "Chemetron 100", "Wax C", "Armowax EBS-P", "C Wax", "Dorset Wax", "1,2-Ethylenebis(stearamide)", "Ethylenebis[stearic acid amide]", "Lubron E", "Armowax EBS", "Kao Wax EB-F", "Kao Wax EB-P", "Acrawax C", "N,N\u2032-Bis(octadecanoyl)ethylenediamine", "Slipacks E", "N,N\u2032-Ethylenebis(stearylamide)", "Armoslip EBS", "Hoechst Wax C", "Alflow H 50S", "S 400N1", "EB-P", "Hostalub FA 1", "N,N\u2032-Ethylenebis(octadecanamide)", "Alflow H 50T", "EBS", "Kao Wax EB-FF", "N,N\u2032-Bis(stearoyl)ethylenediamine", "Synthewax", "N,N\u2032-Ethylenebis(stearic amide)", "Alflow 50S", "Light Amide WEF", "Selosol B 495", "Hidorin B 961", "EBA 200", "Alflow H 50TF", "Kao Wax EB", "Denon PB 1239", "Alflow H 50F", "Hymicron G 110", "Loxamid EBS", "Acrawax HMS", "Bis(stearoyl)ethylenediamide", "Karen A 40", "Kemamide W 39", "Licowax C", "MX 731A", "Abril 10DS", "H 50T", "Armowax EBS-B", "Armowax EBS Powder", "EBS-C", "NSC 83613", "WE 183", "Michem 439", "Licolub FA 1", "Alflow H 50L", "Acrawax C-DF 1", "Atmer SA 1760", "Advawax 240", "Light Amide WE 183", "Kemamide EBS", "EB-FF", "Alflow H 50P", "H 50P", "P 130", "JHE 341", "Croda 212", "G 110", "Crodamide EBS", "EBS-SF", "Banlub N 18", "Accurel SL 624", "Kao Wax EB-G", "Fatty Amide EB-G", "Ceridust 3910", "Micromide 520", "Kao Wax EB-EF", "E 0243-25G", "140B", "140P", "Alflow H 50ES", "PE-SA 270", "EBS 120D", "Alflow H 50TF-S", "EBS 120", "Waxso N", "Alflow H 50FP", "Hi-Lube 300P", "EBA 60", "EBS-P", "500P", "Licolub FA 6", "HC Wax 2000", "Itohwax J 550S", "N,N-Ethylenebis(stearamide)", "Acrawax CV", "Finawax C", "Hi-Lube 500P", "B 50", "Koshin U 100", "Ethylenebis(stearamide)", "P 200", "Hi-Lube", "N,N\u2032-Ethyene bistearamide", "Loxiol EBS", "TLZJ 6", "Loxamid 3324", "S 400SP5", "Shamrock S 400SP5", "Slipacks EK", "H 50S", "FA 1", "Crodamide EBSV", "Palmowax SF", "Vinyl distearamide", "Slipacks E-SA 20", "P 400", "Hi-Lube EBS", "TE 200", "EBA", "L-C 140P", "EBS 50", "EB-G", "EBS-FF", "Sunlube EBS", "Crodawax 140", "Kenamide EBS", "Crodamide ORV", "Alflow H 50SJ", "OADEBSSF", "P 02314", "Acrawachs C", "B 40 (lubricant)", "B 40", "YHP-P 180", "EBS 220", "HY 5454", "Palmowax EBS", "WK 1965", "KB-FF", "EBS 1", "Alflow HP 50PF", "DY 1909", "Wax 2006", "WAX 2006"], "SMILES": "N(CCNC(CCCCCCCCCCCCCCCCC)=O)C(CCCCCCCCCCCCCCCCC)=O", "physical_data": {"Molecular Weight": "593.02", "Molecular Formula": "C38H76N2O2", "Melting Point": "135-146 \u00b0C", "Density": "0.97 g/cm\u00b3"}}