{"cas_no": "110-38-3", "cn_name": "\u7678\u9178\u4e59\u916f", "en_name": ["Ethyl caprate", "Decanoic acid, ethyl ester", "Capric acid ethyl ester", "Ethyl caprate", "Ethyl decanoate", "Ethyl decylate", "Ethyl caprinate", "Ethyl n-decanoate", "NSC 8909"], "SMILES": "C(CCCCCCCC)C(OCC)=O", "physical_data": {"Molecular Weight": "200.32", "Molecular Formula": "C12H24O2", "Boiling Point": "241.5 \u00b0C", "Melting Point": "-20 \u00b0C", "Density": "0.88156 g/cm\u00b3 @ Temp: 0 \u00b0C"}}