{"cas_no": "110-68-9", "cn_name": "\u7532\u57fa\u4e01\u80fa", "en_name": ["Methylbutylamine", "1-Butanamine, N-methyl-", "Butylamine, N-methyl-", "N-Methyl-1-butanamine", "Methylbutylamine", "N-Methyl-n-butylamine", "Butylmethylamine", "N-Methylbutylamine", "N-Butylmethylamine", "N-Butyl-N-methylamine", "N-Methylbutanamine", "Methylaminobutane"], "SMILES": "C(CNC)CC", "physical_data": {"Molecular Weight": "87.16", "Molecular Formula": "C5H13N", "Boiling Point": "91 \u00b0C", "Melting Point": "-75 \u00b0C", "Density": "0.7637 g/cm\u00b3 @ Temp: 15 \u00b0C"}}