{"cas_no": "110-02-1", "cn_name": "\u567b\u5429", "en_name": ["Thiophene", "Thiophene", "Divinylene sulfide", "Thiofurfuran", "Thiole", "Thiotetrole", "Furan, thio-", "Thiacyclopentadiene", "Thiaphene", "Thiofuran", "Huile H50", "Huile HSO", "Thiophen", "CP 34", "NSC 405073"], "SMILES": "C=1C=CSC1", "physical_data": {"Molecular Weight": "84.14", "Molecular Formula": "C4H4S", "Boiling Point": "84.0 \u00b0C @ Press: 760 Torr", "Melting Point": "-39.4 \u00b0C", "Density": "1.06494 g/cm\u00b3 @ Temp: 20 \u00b0C"}}