{"cas_no": "110-31-6", "cn_name": "\u4e59\u6491\u53cc\u6cb9\u9178\u9170\u80fa", "en_name": ["Ethylenebis(oleamide)", "9-Octadecenamide, N,N\u2032-1,2-ethanediylbis-, (9Z,9\u2032Z)-", "Oleamide, N,N\u2032-ethylenebis-", "9-Octadecenamide, N,N\u2032-1,2-ethanediylbis-, (Z,Z)-", "(9Z,9\u2032Z)-N,N\u2032-1,2-Ethanediylbis[9-octadecenamide]", "N,N\u2032-Dioleoylethylenediamine", "N,N\u2032-Ethylenedioleamide", "N,N\u2032-Ethylenebis[oleamide]", "Ethylenebis(oleamide)", "Ethylene bisoleylamide", "Kemamide W 20", "Slipacks O", "N,N\u2032-Ethylenebis(oleic amide)", "N,N\u2032-Ethylenebisoleylamide", "Glycolube VL", "Crodamide EBO", "Alflow AD 281", "AD 281", "Itohwax J 500", "Alflow AD 281F", "Ethylenebis[oleic acid amide]", "Ethylenebisoleoylamide", "Finawax VL", "Alflow AD 281P", "WK 1766", "Slipax O"], "SMILES": "N(CCNC(CCCCCCCC=CCCCCCCCC)=O)C(CCCCCCCC=CCCCCCCCC)=O", "physical_data": {"Molecular Weight": "588.99", "Molecular Formula": "C38H72N2O2", "Melting Point": "117-118 \u00b0C"}}