{"cas_no": "110-65-6", "cn_name": "1,4-\u4e01\u7094\u4e8c\u9187", "en_name": ["2-Butyne-1,4-diol", "2-Butyne-1,4-diol", "1,4-Butynediol", "Butynediol", "Bis(hydroxymethyl)acetylene", "2-Butynediol", "1,4-Dihydroxy-2-butyne", "NSC 834"], "SMILES": "C(#CCO)CO", "physical_data": {"Molecular Weight": "86.09", "Molecular Formula": "C4H6O2", "Boiling Point": "238 \u00b0C @ Press: 760 Torr", "Melting Point": "58 \u00b0C"}}