{"cas_no": "110-80-5", "cn_name": "\u4e59\u4e8c\u9187\u4e59\u919a", "en_name": ["Glycol monoethyl ether", "Ethanol, 2-ethoxy-", "2-Ethoxyethanol", "Emkanol", "Ethylene glycol monoethyl ether", "Glycol monoethyl ether", "Oxitol", "Poly-Solv EE", "Cellosolve", "Ethoxyethanol", "\u03b2-Ethoxyethanol", "Ethylene glycol ethyl ether", "Ethyl Cellosolve", "2-Ethoxyethyl alcohol", "Ektasolve EE", "Dowanol EE", "Bikanol E 1", "Solvid", "Monoethylene glycol ethyl ether", "Ethyl 2-hydroxyethyl ether", "Shihozoru MG", "NSC 8837", "Seahosol MG", "2-Ethoxyethan-1-ol"], "SMILES": "C(OCC)CO", "physical_data": {"Molecular Weight": "90.12", "Molecular Formula": "C4H10O2", "Boiling Point": "135.6 \u00b0C", "Melting Point": "-70 \u00b0C", "Density": "0.931 g/cm\u00b3 @ Temp: 20 \u00b0C"}}