{"cas_no": "110-49-6", "cn_name": "\u4e59\u4e8c\u9187\u7532\u919a\u4e59\u9178\u916f", "en_name": ["Ethylene glycol monomethyl ether acetate", "Ethanol, 2-methoxy-, 1-acetate", "Ethanol, 2-methoxy-, acetate", "Glycol monomethyl ether acetate", "2-Methoxyethyl acetate", "Methyl Cellosolve acetate", "Methyl glycol acetate", "\u03b2-Methoxyethyl acetate", "Ethylene glycol methyl ether acetate", "2-Methoxyethanol acetate", "Ethylene glycol acetate monomethyl ether", "Acetyl methyl cellosolve", "Ethylene glycol monomethyl ether acetate", "1-Acetoxy-2-methoxyethane", "MC acetate"], "SMILES": "O(CCOC)C(C)=O", "physical_data": {"Molecular Weight": "118.13", "Molecular Formula": "C5H10O3", "Boiling Point": "145 \u00b0C", "Melting Point": "-65.1 \u00b0C", "Density": "1.0074 g/cm\u00b3 @ Temp: 19 \u00b0C"}}