{"cas_no": "110-43-0", "cn_name": "2-\u5e9a\u916e", "en_name": ["2-Heptanone", "2-Heptanone", "Amyl methyl ketone", "n-Amyl methyl ketone", "Methyl amyl ketone", "Methyl n-amyl ketone", "Methyl pentyl ketone", "Pentyl methyl ketone", "Butylacetone", "n-Pentyl methyl ketone", "Methyl n-pentyl ketone", "1-Methylhexanal", "2-Oxoheptane", "NSC 7313", "MAK"], "SMILES": "C(CCCC)C(C)=O", "physical_data": {"Molecular Weight": "114.19", "Molecular Formula": "C7H14O", "Boiling Point": "111 \u00b0C @ Press: 21 Torr", "Melting Point": "-35.5 \u00b0C", "Density": "0.8068 g/cm\u00b3 @ Temp: 30 \u00b0C"}}