{"cas_no": "110-00-9", "cn_name": "\u544b\u5583", "en_name": ["Furan", "Furan", "Divinylene oxide", "Oxole", "Tetrole", "Furfuran", "Oxacyclopentadiene", "1,4-Epoxybuta-1,3-diene"], "SMILES": "C=1C=COC1", "physical_data": {"Molecular Weight": "68.07", "Molecular Formula": "C4H4O", "Boiling Point": "31.36 \u00b0C @ Press: 760 Torr", "Melting Point": "-85.6 \u00b0C", "Density": "0.9371 g/cm\u00b3 @ Temp: 19.4 \u00b0C"}}