{"cas_no": "110-71-4", "cn_name": "\u4e59\u4e8c\u9187\u4e8c\u7532\u919a", "en_name": ["1,2-Dimethoxyethane", "Ethane, 1,2-dimethoxy-", "1,2-Dimethoxyethane", "\u03b1,\u03b2-Dimethoxyethane", "Dimethyl Cellosolve", "Ethylene dimethyl ether", "Ethylene glycol dimethyl ether", "Glycol dimethyl ether", "Monoglyme", "Glyme", "Monoethylene glycol dimethyl ether", "2,5-Dioxahexane", "DME", "1,2-Ethanediol, dimethyl ether", "DME (glycol ether)", "Hisolve MMM", "NSC 60542", "Methyl Monoglyme"], "SMILES": "C(COC)OC", "physical_data": {"Molecular Weight": "90.12", "Molecular Formula": "C4H10O2", "Boiling Point": "82-83 \u00b0C @ Press: 760 Torr", "Melting Point": "-58 \u00b0C", "Density": "0.86285 g/cm\u00b3 @ Temp: 20 \u00b0C"}}