{"cas_no": "110-66-7", "cn_name": "1-\u620a\u786b\u9187", "en_name": ["1-Pentanethiol", "1-Pentanethiol", "Amyl mercaptan", "Pentanethiol", "Amyl hydrosulfide", "Amyl sulfhydrate", "Amyl thioalcohol", "Pentyl mercaptan", "n-Amyl mercaptan", "1-Mercaptopentane", "n-Pentyl mercaptan", "Pentylthiol", "n-Pentanethiol", "n-Pentylthiol", "1-Pentyl mercaptan", "1-Pentylthiol", "1-n-Pentanethiol", "n-Amylthiol", "Mercaptopentane"], "SMILES": "C(CCS)CC", "physical_data": {"Molecular Weight": "104.21", "Molecular Formula": "C5H12S", "Boiling Point": "99.5 \u00b0C @ Press: 10 Torr", "Melting Point": "-75.7 \u00b0C", "Density": "0.8421 g/cm\u00b3 @ Temp: 20 \u00b0C"}}