{"cas_no": "110-05-4", "cn_name": "\u4e8c\u53d4\u4e01\u57fa\u8fc7\u6c27\u5316\u7269", "en_name": ["tert-Butyl peroxide", "Peroxide, bis(1,1-dimethylethyl)", "tert-Butyl peroxide", "Bis(1,1-dimethylethyl) peroxide", "Cadox TBP", "DTBP", "Bis(tert-butyl) peroxide", "Trigonox B", "Perbutyl D", "B 50Elq", "Interox DTB", "Kayabutyl D", "Peroximon DB", "Luperox DI", "TC 4", "TC 4 (catalyst)", "Di-t-butylperoxide", "NSC 673", "DTBP (peroxide)", "Peroxan DB", "Di-tert-butyl peroxide", "DTPB", "TC 4N", "2-(tert-Butylperoxy)-2-methylpropane", "B 100924", "TX 101", "CX 2401"], "SMILES": "O(OC(C)(C)C)C(C)(C)C", "physical_data": {"Molecular Weight": "146.23", "Molecular Formula": "C8H18O2", "Boiling Point": "111 \u00b0C", "Melting Point": "-40 \u00b0C", "Density": "0.7910 g/cm\u00b3 @ Temp: 25 \u00b0C"}}