{"cas_no": "110-67-8", "cn_name": "3-\u7532\u6c27\u57fa\u4e19\u8148", "en_name": ["3-Methoxypropionitrile", "Propanenitrile, 3-methoxy-", "Propionitrile, 3-methoxy-", "3-Methoxypropanenitrile", "3-Methoxypropionitrile", "1-Cyano-2-methoxyethane", "2-Cyanoethyl methyl ether", "\u03b2-Methoxypropionitrile", "Methyl \u03b2-cyanoethyl ether", "1-Methoxy-2-cyanoethane", "NSC 4090", "NSC 61486"], "SMILES": "C(COC)C#N", "physical_data": {"Molecular Weight": "85.10", "Molecular Formula": "C4H7NO", "Boiling Point": "163 \u00b0C", "Density": "0.9420 g/cm\u00b3 @ Temp: 20 \u00b0C"}}