{"cas_no": "110-42-9", "cn_name": "\u7678\u9178\u7532\u916f", "en_name": ["Methyl decanoate", "Decanoic acid, methyl ester", "Metholene 2095", "Methyl caprate", "Methyl caprinate", "Methyl decanoate", "Uniphat A 30", "Capric acid methyl ester", "Methyl n-caprate", "Methyl n-decanoate", "Pastell M 10", "Estasol MD 10", "C 1098", "NSC 3713", "CE 1095"], "SMILES": "C(CCCCCCCC)C(OC)=O", "physical_data": {"Molecular Weight": "186.29", "Molecular Formula": "C11H22O2", "Boiling Point": "224 \u00b0C @ Press: 760 Torr", "Melting Point": "-18 \u00b0C", "Density": "0.8730 g/cm\u00b3 @ Temp: 20 \u00b0C"}}