{"cas_no": "110-99-6", "cn_name": "\u4e8c\u7518\u9187\u9178", "en_name": ["Diglycolic acid", "Acetic acid, 2,2\u2032-oxybis-", "Diglycolic acid", "Acetic acid, oxydi-", "2,2\u2032-Oxybis[acetic acid]", "Oxybisacetic acid", "Oxydiacetic acid", "Oxydiethanolic acid", "Bis(carboxymethyl) ether", "2,2\u2032-Oxydiacetic acid", "Oxodiacetic acid", "3-Oxapentanedioic acid", "3-Oxapentane-1,5-dioic acid", "NSC 8651", "2-(Carboxymethoxy)acetic acid"], "SMILES": "O(CC(O)=O)CC(O)=O", "physical_data": {"Molecular Weight": "134.09", "Molecular Formula": "C4H6O5", "Melting Point": "148 \u00b0C", "Density": "1.54 g/cm\u00b3"}}