{"cas_no": "110-16-7", "cn_name": "\u9a6c\u6765\u9178", "en_name": ["Maleic acid", "2-Butenedioic acid (2Z)-", "Maleic acid", "2-Butenedioic acid (Z)-", "(2Z)-2-Butenedioic acid", "cis-Butenedioic acid", "cis-1,2-Ethylenedicarboxylic acid", "Maleinic acid", "Toxilic acid", "2-Butenedioic acid, (Z)-", "cis-2-Butenedioic acid", "Scotchbond Multipurpose Etchant", "Malezid CM", "(2Z)-Butene-2-dioic acid", "(Z)-2-Butenedioic acid", "MeSH ID: D008298"], "SMILES": "C(=CC(O)=O)C(O)=O", "physical_data": {"Molecular Weight": "116.07", "Molecular Formula": "C4H4O4", "Boiling Point": "138 \u00b0C", "Melting Point": "131 \u00b0C", "Density": "1.590 g/cm\u00b3 @ Temp: 20 \u00b0C"}}