{"cas_no": "110-75-8", "cn_name": "2-\u6c2f\u4e59\u57fa\u4e59\u70ef\u57fa\u919a", "en_name": ["2-Chloroethyl vinyl ether", "Ethene, (2-chloroethoxy)-", "Ether, 2-chloroethyl vinyl", "(2-Chloroethoxy)ethene", "2-Chloroethyl vinyl ether", "Vinyl \u03b2-chloroethyl ether", "Vinyl 2-chloroethyl ether", "\u03b2-Chloroethyl vinyl ether", "2-Vinyloxyethyl chloride", "1-Chloro-2-vinyloxyethane", "NSC 8261"], "SMILES": "C(OC=C)CCl", "physical_data": {"Molecular Weight": "106.55", "Molecular Formula": "C4H7ClO", "Boiling Point": "110 \u00b0C", "Melting Point": "-70.3 \u00b0C", "Density": "1.0495 g/cm\u00b3 @ Temp: 20 \u00b0C"}}