{"cas_no": "110-04-3", "cn_name": "1,2-\u4e59\u4e8c\u78fa\u9178", "en_name": ["1,2-Ethanedisulfonic acid", "1,2-Ethanedisulfonic acid", "Allergosil", "Ethane-\u03b1,\u03b2-disulfonic acid", "Ethylenedisulfonic acid", "1,2-Ethylenedisulfonic acid", "Ethanedisulfonic acid", "Edisylic acid"], "SMILES": "C(CS(=O)(=O)O)S(=O)(=O)O", "physical_data": {"Molecular Weight": "190.20", "Molecular Formula": "C2H6O6S2", "Melting Point": "173 \u00b0C"}}