{"cas_no": "110-21-4", "cn_name": "\u8054\u4e8c\u8132", "en_name": ["Diurea", "1,2-Hydrazinedicarboxamide", "Biurea", "1,1\u2032-Hydrazobis(formamide)", "Bicarbamamide", "Hydrazodicarboxamide", "Hydrazodicarbonamide", "Hydrazine, 1,2-bis(aminocarbonyl)-", "Bicarbamimidic acid", "Ureidourea", "Hydrazocarbonamide", "Hydrazinedicarboxylic acid diamide", "Hydrazine-N,N\u2032-bis(carboxamide)", "Hydradicarbonamide", "N,N\u2032-Biscarbamoylhydrazine", "Hydrazodicarbamide", "Cellmic 142", "HDCA", "S 3176", "KBH 30", "LDA", "LDA (fire retardant)", "NSC 1897", "Diurea", "FE 823", "(Carbamoylamino)urea"], "SMILES": "N(NC(N)=O)C(N)=O", "physical_data": {"Molecular Weight": "118.09", "Molecular Formula": "C2H6N4O2", "Melting Point": "258 \u00b0C", "Density": "1.604 g/cm\u00b3 @ Temp: -5 \u00b0C"}}