{"cas_no": "110-96-3", "cn_name": "\u4e8c\u5f02\u4e01\u80fa", "en_name": ["Diisobutylamine", "1-Propanamine, 2-methyl-N-(2-methylpropyl)-", "Diisobutylamine", "2-Methyl-N-(2-methylpropyl)-1-propanamine", "N,N-Bis(2-methylpropyl)amine", "Di-iso-butylamine"], "SMILES": "N(CC(C)C)CC(C)C", "physical_data": {"Molecular Weight": "129.24", "Molecular Formula": "C8H19N", "Boiling Point": "139.6 \u00b0C", "Melting Point": "-73.5 \u00b0C", "Density": "0.745 g/cm\u00b3 @ Temp: 20 \u00b0C"}}