{"cas_no": "110-25-8", "cn_name": "\u6cb9\u9170\u808c\u6c28\u9178", "en_name": ["Oleoylsarcosine", "Glycine, N-methyl-N-[(9Z)-1-oxo-9-octadecen-1-yl]-", "Sarcosine, N-oleoyl-", "Glycine, N-methyl-N-(1-oxo-9-octadecenyl)-, (Z)-", "Glycine, N-methyl-N-[(9Z)-1-oxo-9-octadecenyl]-", "N-Methyl-N-[(9Z)-1-oxo-9-octadecen-1-yl]glycine", "Sarkosyl O", "N-Oleoylsarcosine", "Oleoylsarcosine", "Medialanic acid", "Oleic sarcosine", "Hamposyl O", "Oleoyl N-methylaminoacetic acid", "Oleyl methylaminoethanoic acid", "Oleyl N-methylglycine", "Maprosyl O", "N-Oleylsarcosine", "Nikkol Sarcosinate OH", "Cordesin O", "Sarcosinate VH", "Nikkol Sarcosinate VH", "221P", "Sarcosinate OH", "Oleic sarcoside", "Perlastan OCV", "N-Oleoyl sarcosinate", "Crodasinic O", "Esleam 221P", "2-(N-Methyloleamido)acetic acid", "Nikkol Sarcosinate OHV"], "SMILES": "C(CCCCCCC=CCCCCCCCC)C(N(CC(O)=O)C)=O", "physical_data": {"Molecular Weight": "353.54", "Molecular Formula": "C21H39NO3", "Melting Point": "16.1-17.0 \u00b0C"}}