{"cas_no": "110-03-2", "cn_name": "2,5-\u4e8c\u7532\u57fa-2,5-\u5df1\u4e8c\u9187", "en_name": ["2,5-Dimethyl-2,5-hexanediol", "2,5-Hexanediol, 2,5-dimethyl-", "2,5-Dimethyl-2,5-hexanediol", "1,1,4,4-Tetramethyl-1,4-butanediol", "2,5-Dihydroxy-2,5-dimethylhexane", "NSC 5595", "2,5-Dimethylhexane-2,5-diol", "2,5-Dimethyl-2,5-dihydroxyhexane"], "SMILES": "C(CC(C)(C)O)C(C)(C)O", "physical_data": {"Molecular Weight": "146.23", "Molecular Formula": "C8H18O2", "Boiling Point": "118 \u00b0C @ Press: 15 Torr", "Melting Point": "92 \u00b0C", "Density": "0.898 g/cm\u00b3 @ Temp: 20 \u00b0C"}}