{"cas_no": "110-76-9", "cn_name": "2-\u4e59\u6c27\u57fa\u4e59\u80fa", "en_name": ["Ethoxyethylamine", "Ethanamine, 2-ethoxy-", "Ethylamine, 2-ethoxy-", "2-Ethoxyethanamine", "2-Ethoxyethylamine", "Ethoxyethylamine", "\u03b2-Ethoxyethylamine", "Ethyl aminoethyl ether", "2-Aminoethyl ethyl ether", "Ethyl 2-aminoethyl ether", "Ethanolamine ethyl ether", "2-Ethoxyethan-1-amine", "2-Ethoxy-1-ethanamine"], "SMILES": "C(OCC)CN", "physical_data": {"Molecular Weight": "89.14", "Molecular Formula": "C4H11NO", "Boiling Point": "108 \u00b0C"}}