{"cas_no": "110-52-1", "cn_name": "1,4-\u4e8c\u6eb4\u4e01\u70f7", "en_name": ["1,4-Dibromobutane", "Butane, 1,4-dibromo-", "1,4-Dibromobutane", "Tetramethylene dibromide", "Tetramethylenebromide", "\u03b1,\u03c9-Dibromobutane", "NSC 71435", "1,4-Butylene dibromide"], "SMILES": "C(CCBr)CBr", "physical_data": {"Molecular Weight": "215.91", "Molecular Formula": "C4H8Br2", "Boiling Point": "197 \u00b0C", "Melting Point": "-16.5 \u00b0C", "Density": "1.75 g/cm\u00b3 @ Temp: 15 \u00b0C"}}