{"cas_no": "110-54-3", "cn_name": "\u6b63\u5df1\u70f7", "en_name": ["Hexane", "Hexane", "n-Hexane", "Skellysolve B", "NSC 68472"], "SMILES": "C(CCC)CC", "physical_data": {"Molecular Weight": "86.18", "Molecular Formula": "C6H14", "Boiling Point": "68.7 \u00b0C", "Melting Point": "-94.3 \u00b0C", "Density": "0.6548 g/cm\u00b3 @ Temp: 25 \u00b0C"}}