{"cas_no": "110-12-3", "cn_name": "5-\u7532\u57fa-2-\u5df1\u916e", "en_name": ["5-Methyl-2-hexanone", "2-Hexanone, 5-methyl-", "5-Methyl-2-hexanone", "Isoamyl methyl ketone", "2-Methyl-5-hexanone", "Methyl isoamyl ketone", "MIAK", "Isopentyl methyl ketone", "Methyl isopentyl ketone", "3-Methylbutyl methyl ketone"], "SMILES": "C(CC(C)=O)C(C)C", "physical_data": {"Molecular Weight": "114.19", "Molecular Formula": "C7H14O", "Boiling Point": "144 \u00b0C", "Melting Point": "-74 \u00b0C", "Density": "0.888 g/cm\u00b3 @ Temp: 20 \u00b0C"}}