{"cas_no": "110-72-5", "cn_name": "N-\u4e59\u57fa\u4e59\u4e8c\u80fa", "en_name": ["N-Ethylethylenediamine", "1,2-Ethanediamine, N1-ethyl-", "Ethylenediamine, N-ethyl-", "1,2-Ethanediamine, N-ethyl-", "N1-Ethyl-1,2-ethanediamine", "N-Ethylethylenediamine", "N-Ethyl-1,2-ethanediamine", "2-(Ethylamino)ethylamine", "N-Ethyl-1,2-diaminoethane", "N-(2-Aminoethyl)ethylamine", "1-Ethylethylenediamine", "2-(Ethylamino)ethanamine", "(2-Aminoethyl)(ethyl)amine"], "SMILES": "C(NCC)CN", "physical_data": {"Molecular Weight": "88.15", "Molecular Formula": "C4H12N2", "Boiling Point": "129 \u00b0C"}}