{"cas_no": "110-06-5", "cn_name": "\u53d4\u4e01\u57fa\u4e8c\u786b", "en_name": ["tert-Butyl disulfide", "Disulfide, bis(1,1-dimethylethyl)", "tert-Butyl disulfide", "Bis(1,1-dimethylethyl) disulfide", "Di-tert-butyl disulfide", "2,2,5,5-Tetramethyl-3,4-dithiahexane", "Bis(tert-butyl)disulfide", "NSC 677434", "2-(tert-Butyldisulfanyl)-2-methylpropane"], "SMILES": "S(SC(C)(C)C)C(C)(C)C", "physical_data": {"Molecular Weight": "178.36", "Molecular Formula": "C8H18S2", "Boiling Point": "64 \u00b0C @ Press: 5.5 Torr", "Melting Point": "-5 \u00b0C", "Density": "0.9229 g/cm\u00b3 @ Temp: 20 \u00b0C"}}