{"cas_no": "110-94-1", "cn_name": "\u620a\u4e8c\u9178", "en_name": ["Glutaric acid", "Pentanedioic acid", "Glutaric acid", "1,5-Pentanedioic acid", "1,3-Propanedicarboxylic acid", "NSC 9238"], "SMILES": "C(CC(O)=O)CC(O)=O", "physical_data": {"Molecular Weight": "132.11", "Molecular Formula": "C5H8O4", "Boiling Point": "200 \u00b0C @ Press: 20 Torr", "Melting Point": "97.5-98 \u00b0C", "Density": "1.429 g/cm\u00b3 @ Temp: 15 \u00b0C"}}