{"cas_no": "110-83-8", "cn_name": "\u73af\u5df1\u70ef", "en_name": ["Cyclohexene", "Cyclohexene", "Benzene, tetrahydro-", "Benzene tetrahydride", "Tetrahydrobenzene", "1,2,3,4-Tetrahydrobenzene", "Cyclohex-1-ene", "NSC 24835"], "SMILES": "C1CCC=CC1", "physical_data": {"Molecular Weight": "82.14", "Molecular Formula": "C6H10", "Boiling Point": "83 \u00b0C @ Press: 760 Torr", "Melting Point": "-103.5 \u00b0C", "Density": "0.8098 g/cm\u00b3 @ Temp: 20 \u00b0C"}}