{"cas_no": "110-46-3", "cn_name": "\u4e9a\u785d\u9178\u5f02\u620a\u916f", "en_name": ["Isoamyl nitrite", "Nitrous acid, 3-methylbutyl ester", "Isopentyl alcohol, nitrite", "Isoamyl nitrite", "Isopentyl nitrite", "3-Methylbutanol nitrite", "Vaporole", "Nitrous acid, isopentyl ester", "3-Methylbutyl nitrite", "Amyl nitrite", "Aspiral", "Nitramyl", "Pentyl nitrite", "NSC 7903", "MeSH ID: D000680"], "SMILES": "C(CON=O)C(C)C", "physical_data": {"Molecular Weight": "117.15", "Molecular Formula": "C5H11NO2", "Boiling Point": "99.2 \u00b0C", "Density": "0.875 g/cm\u00b3 @ Temp: 25 \u00b0C"}}