{"cas_no": "110-82-7", "cn_name": "\u73af\u5df1\u70f7", "en_name": ["Cyclohexane", "Cyclohexane", "Benzene, hexahydro-", "Hexahydrobenzene", "Hexamethylene", "Hexanaphthene", "NSC 406835", "Cactus Solvent CHX"], "SMILES": "C1CCCCC1", "physical_data": {"Molecular Weight": "84.16", "Molecular Formula": "C6H12", "Boiling Point": "80.7 \u00b0C @ Press: 760 Torr", "Melting Point": "6.47 \u00b0C", "Density": "0.7781 g/cm\u00b3 @ Temp: 20 \u00b0C"}}