{"cas_no": "110-95-2", "cn_name": "\u56db\u7532\u57fa\u4e19\u4e8c\u80fa", "en_name": ["Tetramethyl-1,3-propanediamine", "1,3-Propanediamine, N1,N1,N3,N3-tetramethyl-", "1,3-Propanediamine, N,N,N\u2032,N\u2032-tetramethyl-", "N1,N1,N3,N3-Tetramethyl-1,3-propanediamine", "N,N,N\u2032,N\u2032-Tetramethyl-1,3-diaminopropane", "N,N,N\u2032,N\u2032-Tetramethyl-1,3-propanediamine", "N,N,N\u2032,N\u2032-Tetramethyltrimethylenediamine", "1,3-Bis(dimethylamino)propane", "Bis[(dimethylamino)methyl]methane", "2,6-Dimethyl-2,6-diazaheptane", "1,3-(N,N,N\u2032,N\u2032-Tetramethyldiamino)propane", "Koei 3310", "Tetramethyl-1,3-propanediamine", "TMPDA", "Tetramethylpropylenediamine", "C 1303", "N,N,N\u2032,N\u2032-Tetramethylpropanediamine", "N,N,N\u2032,N\u2032-Tetramethyl-1,3-propananediamine", "Kaolizer 2", "Kaolizer no. 2", "[3-(Dimethylamino)propyl]dimethylamine"], "SMILES": "C(CN(C)C)CN(C)C", "physical_data": {"Molecular Weight": "130.23", "Molecular Formula": "C7H18N2", "Boiling Point": "144 \u00b0C", "Melting Point": "37 \u00b0C", "Density": "0.7837 g/cm\u00b3 @ Temp: 18.7 \u00b0C"}}