{"cas_no": "110-14-5", "cn_name": "\u7425\u73c0\u9170\u80fa", "en_name": ["Succinamide", "Butanediamide", "Succinamide", "Succindiamide", "Succinic amide", "Succinic acid diamide", "T 152", "NSC 8157", "T 152 (emulsifier)"], "SMILES": "C(CC(N)=O)C(N)=O", "physical_data": {"Molecular Weight": "116.12", "Molecular Formula": "C4H8N2O2", "Melting Point": "268 \u00b0C (decomp)", "Density": "1.442 g/cm\u00b3"}}