{"cas_no": "110-64-5", "cn_name": "1,4-\u4e01\u70ef\u4e8c\u9187", "en_name": ["2-Butene-1,4-diol", "2-Butene-1,4-diol", "1,4-Dihydroxy-2-butene", "NSC 1260", "NSC 976", "1,4-Dihydroxybutene", "1,4-But-2-enediol"], "SMILES": "C(=CCO)CO", "physical_data": {"Molecular Weight": "88.11", "Molecular Formula": "C4H8O2", "Boiling Point": "141-149 \u00b0C @ Press: 20 Torr", "Melting Point": "7 \u00b0C", "Density": "1.067-1.074 g/cm\u00b3"}}