{"cas_no": "110-36-1", "cn_name": "\u5341\u56db\u70f7\u9178\u4e01\u57fa\u916f", "en_name": ["Butyl myristate", "Tetradecanoic acid, butyl ester", "Myristic acid, butyl ester", "Butyl myristate", "Butyl tetradecanoate", "Crodamol BM", "NSC 4814"], "SMILES": "C(CCCCCCCCCCCC)C(OCCCC)=O", "physical_data": {"Molecular Weight": "284.48", "Molecular Formula": "C18H36O2", "Boiling Point": "125 \u00b0C", "Melting Point": "163-165 \u00b0C"}}