{"cas_no": "110-88-3", "cn_name": "\u4e09\u805a\u7532\u919b", "en_name": ["1,3,5-Trioxane", "1,3,5-Trioxane", "s-Trioxane", "Trioxane", "Triformol", "Trioxan", "sym-Trioxane", "Trioxymethylene", "Formaldehyde, trimer", "NSC 26347", "T 0505"], "SMILES": "C1OCOCO1", "physical_data": {"Molecular Weight": "90.08", "Molecular Formula": "C3H6O3", "Boiling Point": "114.5 \u00b0C @ Press: 759 Torr", "Melting Point": "64 \u00b0C", "Density": "1.17 g/cm\u00b3 @ Temp: 65 \u00b0C"}}