{"cas_no": "110-60-1", "cn_name": "\u56db\u4e9a\u7532\u57fa\u4e8c\u80fa", "en_name": ["Putrescine", "1,4-Butanediamine", "Tetramethylenediamine", "1,4-Diaminobutane", "Putrescine", "Putrescin", "1,4-Butylenediamine", "1,4-Tetramethylenediamine", "1,4-Diamino-n-butane", "\u03b1,\u03c9-Butanediamine", "NSC 60545", "Putramine", "Putrascine", "MeSH ID: D011700"], "SMILES": "C(CCN)CN", "physical_data": {"Molecular Weight": "88.15", "Molecular Formula": "C4H12N2", "Boiling Point": "158.5 \u00b0C", "Melting Point": "27.5 \u00b0C"}}