{"cas_no": "110-01-0", "cn_name": "\u56db\u6c22\u567b\u5429", "en_name": ["Tetrahydrothiophene", "Thiophene, tetrahydro-", "Tetrahydrothiophene", "Tetramethylene sulfide", "Thiacyclopentane", "Thilane", "Thiolane", "Thiophane", "Tetrahydrothiophen", "THT", "NSC 5272"], "SMILES": "C1CCSC1", "physical_data": {"Molecular Weight": "88.17", "Molecular Formula": "C4H8S", "Boiling Point": "121.12 \u00b0C @ Press: 760 Torr", "Melting Point": "-96.16 \u00b0C", "Density": "0.9987 g/cm\u00b3 @ Temp: 20 \u00b0C"}}