{"cas_no": "110-93-0", "cn_name": "6-\u7532\u57fa-5-\u5e9a\u70ef-2-\u916e", "en_name": ["6-Methyl-5-hepten-2-one", "5-Hepten-2-one, 6-methyl-", "6-Methyl-5-hepten-2-one", "2-Methyl-6-oxo-2-heptene", "6-Methyl-\u03945-hepten-2-one", "2-Methyl-2-hepten-6-one", "6-Methyl-5-heptene-2-one", "2-Methyl-2-heptene-6-one", "2-Oxo-6-methylhept-5-ene", "Sulcatone", "2-Methyl-2-heptene-6-ketone", "Methylheptenone", "NSC 15294", "NSC 66569", "Prenylacetone", "6-Methyl-5-hepten-2-ketone", "Isoprenylacetone"], "SMILES": "C(C=C(C)C)CC(C)=O", "physical_data": {"Molecular Weight": "126.20", "Molecular Formula": "C8H14O", "Boiling Point": "170-173 \u00b0C", "Density": "0.8516 g/cm\u00b3 @ Temp: 20 \u00b0C"}}