{"cas_no": "110-26-9", "cn_name": "N,N'-\u4e9a\u7532\u57fa\u53cc\u4e19\u70ef\u9170\u80fa", "en_name": ["Methylenebisacrylamide", "2-Propenamide, N,N\u2032-methylenebis-", "Acrylamide, N,N\u2032-methylenebis-", "N,N\u2032-Methylenebis[2-propenamide]", "Methylenebisacrylamide", "N,N\u2032-Methylenediacrylamide", "N,N\u2032-Methylenebis(acrylamide)", "Methylenediacrylamide", "N,N\u2032-Diacryloylmethylenediamine", "Bisacrylamide", "MBA", "NSC 406836", "NSC 7774", "Triam 507", "NMBA", "MBAA", "N,N\u2032-Methylenebis(2-propenamide)", "N,N\u2032-Methylenebis(2-propenamide)", "N,N\u2032-Methylenebis(acrylamine)", "M 2877", "M 7279", "M 104022", "Aladdin E 124733", "14085E", "MBAAm"], "SMILES": "N(CNC(C=C)=O)C(C=C)=O", "physical_data": {"Molecular Weight": "154.17", "Molecular Formula": "C7H10N2O2", "Melting Point": "181-182 \u00b0C"}}