{"cas_no": "110-91-8", "cn_name": "\u5417\u5549", "en_name": ["Morpholine", "Morpholine", "Diethylene imidoxide", "Diethylene oximide", "Diethylenimide oxide", "p-Isoxazine, tetrahydro-", "1-Oxa-4-azacyclohexane", "2H-1,4-Oxazine, tetrahydro-", "4H-1,4-Oxazine, tetrahydro-", "Tetrahydro-p-oxazine", "Tetrahydro-1,4-oxazine", "Tetrahydro-2H-1,4-oxazine", "BASF 238", "Drewamine", "NSC 9376"], "SMILES": "C1COCCN1", "physical_data": {"Molecular Weight": "87.12", "Molecular Formula": "C4H9NO", "Boiling Point": "128.9 \u00b0C @ Press: 760 Torr", "Melting Point": "-4.9 \u00b0C", "Density": "1.0007 g/cm\u00b3 @ Temp: 20 \u00b0C"}}