{"cas_no": "110-98-5", "cn_name": "\u4e8c\u4e19\u4e8c\u9187", "en_name": ["Bis(2-hydroxypropyl) ether", "2-Propanol, 1,1\u2032-oxybis-", "2-Propanol, 1,1\u2032-oxydi-", "1,1\u2032-Oxybis[2-propanol]", "Bis(2-hydroxypropyl) ether", "1,1\u2032-Oxydi-2-propanol", "1,1\u2032-Dimethyldiethylene glycol", "NSC 8688", "4-Oxaheptane-2,6-diol", "1,1\u2032-Oxybis-2-propanol", "1-(2-Hydroxypropoxy)propan-2-ol", "1,1\u2032-Oxybis(propan-2-ol)"], "SMILES": "O(CC(C)O)CC(C)O", "physical_data": {"Molecular Weight": "134.17", "Molecular Formula": "C6H14O3", "Boiling Point": "233 \u00b0C", "Melting Point": "-40 \u00b0C", "Density": "1.0252 g/cm\u00b3 @ Temp: 20 \u00b0C"}}