{"cas_no": "110-61-2", "cn_name": "\u4e01\u4e8c\u8148", "en_name": ["Succinonitrile", "Butanedinitrile", "Succinonitrile", "Deprelin", "sym-Dicyanoethane", "Dinile", "Ethane, 1,2-dicyano-", "Ethylene cyanide", "Ethylene dicyanide", "Succinic acid dinitrile", "Succinodinitrile", "Suxil", "Succinic dinitrile", "1,2-Dicyanoethane", "Succinil", "Dician", "Disuxyl", "Evanex", "Succinic acid nitrile", "1,2-Ethanedicarbonitrile", "1,4-Butanedinitrile", "NSC 4852", "Succinyl cyanide"], "SMILES": "C(CC#N)C#N", "physical_data": {"Molecular Weight": "80.09", "Molecular Formula": "C4H4N2", "Boiling Point": "266 \u00b0C", "Melting Point": "54.5 \u00b0C", "Density": "0.9867 g/cm\u00b3 @ Temp: 60 \u00b0C"}}