{"cas_no": "110-19-0", "cn_name": "\u4e59\u9178\u5f02\u4e01\u916f", "en_name": ["Isobutyl acetate", "Acetic acid, 2-methylpropyl ester", "Acetic acid, isobutyl ester", "Isobutyl acetate", "\u03b2-Methylpropyl ethanoate", "2-Methylpropyl acetate", "NSC 8035"], "SMILES": "C(OC(C)=O)C(C)C", "physical_data": {"Molecular Weight": "116.16", "Molecular Formula": "C6H12O2", "Boiling Point": "116.5 \u00b0C", "Melting Point": "-98.8 \u00b0C", "Density": "0.8712 g/cm\u00b3 @ Temp: 20 \u00b0C"}}