{"cas_no": "110-56-5", "cn_name": "1,4-\u4e8c\u6c2f\u4e01\u70f7", "en_name": ["1,4-Dichlorobutane", "Butane, 1,4-dichloro-", "1,4-Dichlorobutane", "NSC 6288", "4-Chlorobutyl chloride"], "SMILES": "C(CCCl)CCl", "physical_data": {"Molecular Weight": "127.01", "Molecular Formula": "C4H8Cl2", "Boiling Point": "161 \u00b0C", "Melting Point": "-37.3 \u00b0C", "Density": "1.1598 g/cm\u00b3 @ Temp: 20 \u00b0C"}}