{"cas_no": "11006-76-1", "cn_name": "\u7ef4\u5409\u5c3c\u9709\u7d20", "en_name": ["Streptogramin", "Virginiamycin", "Mikamycin", "Streptogramin", "Virgimycin", "RP 7293", "Pyostacine", "Stapyocine", "Eskalin V", "Eskalin 500", "Stafac 500", "Pyostacin", "Stafac 20", "Stafac", "Lactrol", "V-max", "Livelong", "Lactrol XP"], "SMILES": "", "physical_data": {"Molecular Weight": "", "Molecular Formula": "Unspecified", "Melting Point": "~155 \u00b0C (approx)"}}