{"cas_no": "1100-88-5", "cn_name": "\u82c4\u57fa\u4e09\u82ef\u57fa\u6c2f\u5316\u81a6", "en_name": ["Benzyltriphenylphosphonium chloride", "Phosphonium, triphenyl(phenylmethyl)-, chloride (1:1)", "Phosphonium, benzyltriphenyl-, chloride", "Benzyltriphenylphosphonium chloride", "Phosphonium, triphenyl(phenylmethyl)-, chloride", "Triphenylbenzylphosphonium chloride", "GM 200", "NSC 116712", "BTPPC", "BPP", "TPP-ZC", "Accelerator BPP"], "SMILES": "[P+](CC1=CC=CC=C1)(C2=CC=CC=C2)(C3=CC=CC=C3)C4=CC=CC=C4.[Cl-]", "physical_data": {"Molecular Weight": "", "Molecular Formula": "C25H22P.Cl", "Melting Point": "314-315 \u00b0C"}}