{"cas_no": "110104-37-5", "cn_name": "\u963f\u6614\u6d1b\u97e6\u6742\u8d28F", "en_name": ["N-Acetylacyclovir", "Acetamide, N-[6,9-dihydro-9-[(2-hydroxyethoxy)methyl]-6-oxo-1H-purin-2-yl]-", "N-[6,9-Dihydro-9-[(2-hydroxyethoxy)methyl]-6-oxo-1H-purin-2-yl]acetamide", "9-[(2-Hydroxyethoxy)methyl]-N2-acetylguanine", "N2-Acetylaciclovir", "N-Acetylacyclovir"], "SMILES": "C(OCCO)N1C2=C(C(=O)N=C(NC(C)=O)N2)N=C1", "physical_data": {"Molecular Weight": "267.24", "Molecular Formula": "C10H13N5O4", "Melting Point": "217 \u00b0C"}}