{"cas_no": "11018-89-6", "cn_name": "\u4e4c\u672c( \u7bad\u6bd2) \u82f7, \u54c7\u5df4\u56e0", "en_name": ["Card-20(22)-enolide, 3-[(6-deoxy-\u03b1-L-mannopyranosyl)oxy]-1,5,11,14,19-pentahydroxy-, hydrate (1:8), (1\u03b2,3\u03b2,5\u03b2,11\u03b1)-", "Card-20(22)-enolide, 3-[(6-deoxy-\u03b1-L-mannopyranosyl)oxy]-1,5,11,14,19-pentahydroxy-, hydrate (1:8), (1\u03b2,3\u03b2,5\u03b2,11\u03b1)-", "Card-20(22)-enolide, 3-[(6-deoxy-\u03b1-L-mannopyranosyl)oxy]-1,5,11,14,19-pentahydroxy-, octahydrate, (1\u03b2,3\u03b2,5\u03b2,11\u03b1)-", "Ouabain octahydrate", "Strophantine octahydrate"], "SMILES": "C(O)C12C3C(C4(O)C(C)(CC3O)C(CC4)C=5COC(=O)C5)CCC1(O)CC(OC6C(O)C(O)C(O)C(C)O6)CC2O.O", "physical_data": {"Molecular Weight": "", "Molecular Formula": "C29H44O12.8H2O", "Melting Point": "130 \u00b0C"}}