{"cas_no": "110187-11-6", "cn_name": "1,5,8-\u4e09\u7f9f\u57fa-3-\u7532\u6c27\u57fa-2-\u5f02\u620a\u70ef\u57fa\u6c27\u6742\u84bd\u916e", "en_name": ["1,5,8-Trihydroxy-3-methoxy-2-(3-methyl-2-buten-1-yl)-9H-xanthen-9-one", "9H-Xanthen-9-one, 1,5,8-trihydroxy-3-methoxy-2-(3-methyl-2-buten-1-yl)-", "9H-Xanthen-9-one, 1,5,8-trihydroxy-3-methoxy-2-(3-methyl-2-butenyl)-", "1,5,8-Trihydroxy-3-methoxy-2-(3-methyl-2-buten-1-yl)-9H-xanthen-9-one", "1,5,8-Trihydroxy-3-methoxy-2-prenylxanthone", "1,5,8-Trihydroxy-3-methoxy-2-(3-methylbut-2-enyl)xanthen-9-one"], "SMILES": "O=C1C=2C(OC=3C1=C(O)C=CC3O)=CC(OC)=C(CC=C(C)C)C2O", "physical_data": {"Molecular Weight": "342.34", "Molecular Formula": "C19H18O6", "Melting Point": "193-195 \u00b0C"}}