{"cas_no": "110193-60-7", "cn_name": "3-(\u4e09\u6c1f\u7532\u57fa)\u82ef\u57fa\u4e59\u919b\u9178\u4e59\u916f", "en_name": ["Ethyl \u03b1-oxo-3-(trifluoromethyl)benzeneacetate", "Benzeneacetic acid, \u03b1-oxo-3-(trifluoromethyl)-, ethyl ester", "Ethyl \u03b1-oxo-3-(trifluoromethyl)benzeneacetate", "2-(3-Trifluoromethylphenyl)-2-oxoacetic acid ethyl ester"], "SMILES": "C(C(OCC)=O)(=O)C1=CC(C(F)(F)F)=CC=C1", "physical_data": {"Molecular Weight": "246.18", "Molecular Formula": "C11H9F3O3", "Boiling Point": "117-119 \u00b0C @ Press: 5 Torr", "Melting Point": "120-122 \u00b0C", "Density": "1.2606 g/cm\u00b3 @ Temp: 20 \u00b0C"}}