{"cas_no": "110235-47-7", "cn_name": "\u5627\u83cc\u80fa", "en_name": ["Mepanipyrim", "2-Pyrimidinamine, 4-methyl-N-phenyl-6-(1-propyn-1-yl)-", "2-Pyrimidinamine, 4-methyl-N-phenyl-6-(1-propynyl)-", "4-Methyl-N-phenyl-6-(1-propyn-1-yl)-2-pyrimidinamine", "KIF 3535", "Mepanipyrim", "2-Anilino-4-methyl-6-(1-propynyl)pyrimidine", "Frupica", "KUF 6201", "Fulpica"], "SMILES": "N(C=1N=C(C#CC)C=C(C)N1)C2=CC=CC=C2", "physical_data": {"Molecular Weight": "223.27", "Molecular Formula": "C14H13N3", "Melting Point": "132.8 \u00b0C"}}