{"cas_no": "11021-13-9", "cn_name": "\u4eba\u53c2\u7682\u7519RB2", "en_name": ["Ginsenoside Rb2", "\u03b2-D-Glucopyranoside, (3\u03b2,12\u03b2)-20-[(6-O-\u03b1-L-arabinopyranosyl-\u03b2-D-glucopyranosyl)oxy]-12-hydroxydammar-24-en-3-yl 2-O-\u03b2-D-glucopyranosyl-", "Dammarane, \u03b2-D-glucopyranoside deriv.", "(3\u03b2,12\u03b2)-20-[(6-O-\u03b1-L-Arabinopyranosyl-\u03b2-D-glucopyranosyl)oxy]-12-hydroxydammar-24-en-3-yl 2-O-\u03b2-D-glucopyranosyl-\u03b2-D-glucopyranoside", "Ginsenoside Rb2", "Ginsenoside C", "NSC 308878"], "SMILES": "CC12C3(C)C(C(C(OC4OC(COC5C(O)C(O)C(O)CO5)C(O)C(O)C4O)(CCC=C(C)C)C)CC3)C(O)CC1C6(C)C(CC2)C(C)(C)C(OC7C(OC8OC(CO)C(O)C(O)C8O)C(O)C(O)C(CO)O7)CC6", "physical_data": {"Molecular Weight": "1079.27", "Molecular Formula": "C53H90O22", "Melting Point": "197-199 \u00b0C"}}