{"cas_no": "110238-91-0", "cn_name": "\u56db\u6c22\u5421\u5583-4-\u7fa7\u9178\u7532\u916f", "en_name": ["2H-Pyran-4-carboxylic acid, tetrahydro-, methyl ester", "2H-Pyran-4-carboxylic acid, tetrahydro-, methyl ester", "Methyl tetrahydropyran-4-carboxylate", "Tetrahydropyran-4-carboxylic acid methyl ester", "Methyl tetrahydro-2H-pyran-4-carboxylate", "4-(Methoxycarbonyl)tetrahydropyran", "Tetrahydro-2H-pyran-4-carboxylic acid methyl ester"], "SMILES": "C(OC)(=O)C1CCOCC1", "physical_data": {"Molecular Weight": "144.17", "Molecular Formula": "C7H12O3", "Boiling Point": "80.5-81 \u00b0C @ Press: 16 Torr", "Melting Point": "78 \u00b0C"}}