{"cas_no": "11021-14-0", "cn_name": "\u4eba\u53c2\u7682\u7519 Rc", "en_name": ["Ginsenoside Rc", "\u03b2-D-Glucopyranoside, (3\u03b2,12\u03b2)-20-[(6-O-\u03b1-L-arabinofuranosyl-\u03b2-D-glucopyranosyl)oxy]-12-hydroxydammar-24-en-3-yl 2-O-\u03b2-D-glucopyranosyl-", "Dammarane, \u03b2-D-glucopyranoside deriv.", "(3\u03b2,12\u03b2)-20-[(6-O-\u03b1-L-Arabinofuranosyl-\u03b2-D-glucopyranosyl)oxy]-12-hydroxydammar-24-en-3-yl 2-O-\u03b2-D-glucopyranosyl-\u03b2-D-glucopyranoside", "Ginsenoside Rc", "Panaxoside Rc", "NSC 310104"], "SMILES": "CC12C(C3(C)C(CC1)C(C)(C)C(OC4C(OC5OC(CO)C(O)C(O)C5O)C(O)C(O)C(CO)O4)CC3)CC(O)C6C2(C)CCC6C(OC7OC(COC8OC(CO)C(O)C8O)C(O)C(O)C7O)(CCC=C(C)C)C", "physical_data": {"Molecular Weight": "1079.27", "Molecular Formula": "C53H90O22", "Melting Point": "193-196 \u00b0C"}}