{"cas_no": "11027-63-7", "cn_name": "\u7261\u8346\u6cb9", "en_name": ["Agnuside", "\u03b2-D-Glucopyranoside, (1S,4aR,5S,7aS)-1,4a,5,7a-tetrahydro-5-hydroxy-7-[[(4-hydroxybenzoyl)oxy]methyl]cyclopenta[c]pyran-1-yl", "Agnuside", "\u03b2-D-Glucopyranoside, 1,4a,5,7a-tetrahydro-5-hydroxy-7-[[(4-hydroxybenzoyl)oxy]methyl]cyclopenta[c]pyran-1-yl, (1\u03b1,4a\u03b1,5\u03b1,7a\u03b1)-", "(1S,4aR,5S,7aS)-1,4a,5,7a-Tetrahydro-5-hydroxy-7-[[(4-hydroxybenzoyl)oxy]methyl]cyclopenta[c]pyran-1-yl \u03b2-D-glucopyranoside", "Buddlejoside A", "(-)-Buddlejoside A", "Agnoside"], "SMILES": "O(C1C2C(C(O)C=C2COC(=O)C3=CC=C(O)C=C3)C=CO1)C4OC(CO)C(O)C(O)C4O", "physical_data": {"Molecular Weight": "466.44", "Molecular Formula": "C22H26O11", "Melting Point": "146 \u00b0C"}}