{"cas_no": "11024-24-1", "cn_name": "\u6d0b\u5730\u9ec4\u7682\u82f7", "en_name": ["Digitonin", "\u03b2-D-Galactopyranoside, (2\u03b1,3\u03b2,5\u03b1,15\u03b2,25R)-2,15-dihydroxyspirostan-3-yl O-\u03b2-D-glucopyranosyl-(1\u21923)-O-\u03b2-D-galactopyranosyl-(1\u21922)-O-[\u03b2-D-xylopyranosyl-(1\u21923)]-O-\u03b2-D-glucopyranosyl-(1\u21924)-", "Digitonin", "Digitogenin, 3-[O-\u03b2-D-glucopyranosyl-(1\u21923)-O-\u03b2-D-galactopyranosyl-(1\u21922)-O-[\u03b2-D-xylopyranosyl-(1\u21923)]-O-\u03b2-D-glucopyranosyl-(1\u21924)-\u03b2-D-galactopyranoside]", "Spirostan, \u03b2-D-galactopyranoside deriv.", "Spiro[8H-naphth[2\u2032,1\u2032:4,5]indeno[2,1-b]furan-8,2\u2032-[2H]pyran], \u03b2-D-galactopyranoside deriv.", "(2\u03b1,3\u03b2,5\u03b1,15\u03b2,25R)-2,15-Dihydroxyspirostan-3-yl O-\u03b2-D-glucopyranosyl-(1\u21923)-O-\u03b2-D-galactopyranosyl-(1\u21922)-O-[\u03b2-D-xylopyranosyl-(1\u21923)]-O-\u03b2-D-glucopyranosyl-(1\u21924)-\u03b2-D-galactopyranoside", "Digitin", "NSC 23471", "NSC 237417", "MeSH ID: D004072"], "SMILES": "CC12C3C(C(O)C1C4C(CC2)C5(C)C(CC4)CC(OC6OC(CO)C(OC7C(OC8C(O)C(OC9OC(CO)C(O)C(O)C9O)C(O)C(CO)O8)C(OC%10C(O)C(O)C(O)CO%10)C(O)C(CO)O7)C(O)C6O)C(O)C5)OC%11(C3C)CCC(C)CO%11", "physical_data": {"Molecular Weight": "1229.31", "Molecular Formula": "C56H92O29", "Melting Point": "215 \u00b0C"}}