{"cas_no": "110221-53-9", "cn_name": "\u66ff\u83ab\u666e\u5229", "en_name": ["Temocaprilat", "1,4-Thiazepine-4(5H)-acetic acid, 6-[[(1S)-1-carboxy-3-phenylpropyl]amino]tetrahydro-5-oxo-2-(2-thienyl)-, (2S,6R)-", "1,4-Thiazepine-4(5H)-acetic acid, 6-[(1-carboxy-3-phenylpropyl)amino]tetrahydro-5-oxo-2-(2-thienyl)-, [2S-[2\u03b1,6\u03b2(R*)]]-", "(2S,6R)-6-[[(1S)-1-Carboxy-3-phenylpropyl]amino]tetrahydro-5-oxo-2-(2-thienyl)-1,4-thiazepine-4(5H)-acetic acid", "RS 5139", "Temocapril diacid", "Temocaprilat", "Temocaprilate"], "SMILES": "C(C(O)=O)N1CC(SCC(NC(CCC2=CC=CC=C2)C(O)=O)C1=O)C3=CC=CS3", "physical_data": {"Molecular Weight": "448.56", "Molecular Formula": "C21H24N2O5S2", "Melting Point": "246 \u00b0C (decomp)"}}