{"cas_no": "1102-19-8", "cn_name": "1,1'-\u4e8c\u535e-4,4'-\u4e8c\u5421\u5576\u4e8c\u6c2f\u5316\u7269", "en_name": ["4,4\u2032-Bipyridinium, 1,1\u2032-bis(phenylmethyl)-, chloride (1:2)", "4,4\u2032-Bipyridinium, 1,1\u2032-bis(phenylmethyl)-, chloride (1:2)", "4,4\u2032-Bipyridinium, 1,1\u2032-dibenzyl-, dichloride", "4,4\u2032-Bipyridinium, 1,1\u2032-bis(phenylmethyl)-, dichloride", "1,1\u2032-Dibenzyl-4,4\u2032-bipyridinium dichloride", "1,1\u2032-Dibenzyl-4,4\u2032-dipyridinium dichloride", "Benzylviologen chloride", "N,N\u2032-Dibenzyl-4,4\u2032-dipyridinium dichloride", "Benzylviologen dichloride", "N,N\u2032-Dibenzyl-4,4\u2032-bipyridinium dichloride", "Dibenzylviologen dichloride"], "SMILES": "C([N+]=1C=CC(=CC1)C=2C=C[N+](CC3=CC=CC=C3)=CC2)C4=CC=CC=C4.[Cl-]", "physical_data": {"Molecular Weight": "", "Molecular Formula": "C24H22N2.2Cl", "Melting Point": "238 \u00b0C (decomp)"}}