{"cas_no": "110221-44-8", "cn_name": "\u76d0\u9178\u66ff\u83ab\u666e\u5229", "en_name": ["Temocapril hydrochloride", "1,4-Thiazepine-4(5H)-acetic acid, 6-[[(1S)-1-(ethoxycarbonyl)-3-phenylpropyl]amino]tetrahydro-5-oxo-2-(2-thienyl)-, hydrochloride (1:1), (2S,6R)-", "1,4-Thiazepine-4(5H)-acetic acid, 6-[[1-(ethoxycarbonyl)-3-phenylpropyl]amino]tetrahydro-5-oxo-2-(2-thienyl)-, monohydrochloride, [2S-[2\u03b1,6\u03b2(R*)]]-", "1,4-Thiazepine-4(5H)-acetic acid, 6-[[(1S)-1-(ethoxycarbonyl)-3-phenylpropyl]amino]tetrahydro-5-oxo-2-(2-thienyl)-, monohydrochloride, (2S,6R)-", "CS 622", "Temocapril hydrochloride", "Acecol"], "SMILES": "C(C(O)=O)N1CC(SCC(NC(CCC2=CC=CC=C2)C(OCC)=O)C1=O)C3=CC=CS3.Cl", "physical_data": {"Molecular Weight": "", "Molecular Formula": "C23H28N2O5S2.ClH", "Melting Point": "187 \u00b0C (decomp)"}}