{"cas_no": "110284-79-2", "cn_name": "2-[(4,6-\u4e8c\u7532\u6c27\u57fa\u5627\u5576-2-\u57fa)\u786b\u4ee3]\u82ef\u7532\u9178", "en_name": ["2-[(4,6-Dimethoxy-2-pyrimidinyl)thio]benzoic acid", "Benzoic acid, 2-[(4,6-dimethoxy-2-pyrimidinyl)thio]-", "2-[(4,6-Dimethoxy-2-pyrimidinyl)thio]benzoic acid", "2-(4,6-Dimethoxypyrimidin-2-ylsulfanyl)benzoic acid"], "SMILES": "S(C1=C(C(O)=O)C=CC=C1)C=2N=C(OC)C=C(OC)N2", "physical_data": {"Molecular Weight": "292.31", "Molecular Formula": "C13H12N2O4S", "Melting Point": "127-130 \u00b0C"}}