{"cas_no": "110347-85-8", "cn_name": "\u585e\u798f\u592a", "en_name": ["Selfotel", "2-Piperidinecarboxylic acid, 4-(phosphonomethyl)-, (2R,4S)-rel-", "2-Piperidinecarboxylic acid, 4-(phosphonomethyl)-, cis-", "rel-(2R,4S)-4-(Phosphonomethyl)-2-piperidinecarboxylic acid", "CGS 19755", "Selfotel", "cis-4-[Phosphonomethyl]-2-piperidinecarboxylic acid", "CPDD 0027"], "SMILES": "C(P(=O)(O)O)C1CC(C(O)=O)NCC1", "physical_data": {"Molecular Weight": "223.16", "Molecular Formula": "C7H14NO5P", "Melting Point": "290-292 \u00b0C"}}