{"cas_no": "11031-45-1", "cn_name": "\u6a80\u9999\u9187", "en_name": ["Santalol", "Santalol"], "SMILES": "", "physical_data": {"Molecular Weight": "", "Molecular Formula": "C15H24O", "Boiling Point": "300-310 \u00b0C", "Density": "0.978 g/cm\u00b3 @ Temp: 16 \u00b0C"}}