{"cas_no": "11042-64-1", "cn_name": "\u8c37\u7ef4\u7d20", "en_name": ["\u03b3-Oryzanol", "\u03b3-Oryzanol", "OZ", "\u03b3-OZ", "\u03b3-Orizanol", "Hi-Z", "Caclate", "Oryvita", "Gammajust 50", "Oliver", "Oryzaal", "Gammatsul", "Guntrin", "Gamma-OZ", "Maspiron", "Thiaminogen", "gamma-Orizanol"], "SMILES": "", "physical_data": {"Molecular Weight": "", "Molecular Formula": "Unspecified", "Melting Point": "135-137 \u00b0C"}}