{"cas_no": "1104-22-9", "cn_name": "\u76d0\u9178\u7f8e\u514b\u6d1b\u55ea", "en_name": ["Meclizine hydrochloride", "Piperazine, 1-[(4-chlorophenyl)phenylmethyl]-4-[(3-methylphenyl)methyl]-, hydrochloride (1:2)", "Piperazine, 1-(p-chloro-\u03b1-phenylbenzyl)-4-(m-methylbenzyl)-, dihydrochloride", "Piperazine, 1-[(4-chlorophenyl)phenylmethyl]-4-[(3-methylphenyl)methyl]-, dihydrochloride", "Ancolan dihydrochloride", "Meclizine dihydrochloride", "Parachloramine dihydrochloride", "Postafene dihydrochloride", "Meclozine hydrochloride", "Postafen", "Diadril", "Meclozine dihydrochloride", "Bonamine", "Meclizine hydrochloride", "1-(p-Chloro-\u03b1-phenylbenzyl)-4-(m-methylbenzyl)piperazine dihydrochloride", "Navidoxine", "NSC 28728", "1-((4-Chlorophenyl)(phenyl)methyl)-4-(3-methylbenzyl)piperazine dihydrochloride", "1-[(4-Chlorophenyl)(phenyl)methyl]-4-[(3-methylphenyl)methyl]piperazine dihydrochloride", "Zentrip"], "SMILES": "C(N1CCN(CC2=CC(C)=CC=C2)CC1)(C3=CC=C(Cl)C=C3)C4=CC=CC=C4.Cl", "physical_data": {"Molecular Weight": "", "Molecular Formula": "C25H27ClN2.2ClH", "Melting Point": "215 \u00b0C"}}