{"cas_no": "110475-31-5", "cn_name": "4-\u82c4\u57fa\u54cc\u55ea\u76d0\u9178\u76d0", "en_name": ["Piperazine, 1-(phenylmethyl)-, hydrochloride (1:1)", "Piperazine, 1-(phenylmethyl)-, hydrochloride (1:1)", "Piperazine, 1-benzyl-, hydrochloride", "Piperazine, 1-(phenylmethyl)-, monohydrochloride", "4-Benzylpiperazine hydrochloride"], "SMILES": "C(C1=CC=CC=C1)N2CCNCC2.Cl", "physical_data": {"Molecular Weight": "", "Molecular Formula": "C11H16N2.ClH", "Melting Point": "167-168 \u00b0C"}}