{"cas_no": "110488-70-5", "cn_name": "\u70ef\u9170\u5417\u5549", "en_name": ["Athlete", "2-Propen-1-one, 3-(4-chlorophenyl)-3-(3,4-dimethoxyphenyl)-1-(4-morpholinyl)-", "Morpholine, 4-[3-(4-chlorophenyl)-3-(3,4-dimethoxyphenyl)-1-oxo-2-propenyl]-", "3-(4-Chlorophenyl)-3-(3,4-dimethoxyphenyl)-1-(4-morpholinyl)-2-propen-1-one", "CME 151", "Dimethomorph", "Forum", "Akrobat", "Forum (biocide)", "Festival C", "Acrobat", "Athlete", "Xixianmalin"], "SMILES": "C(=CC(=O)N1CCOCC1)(C2=CC(OC)=C(OC)C=C2)C3=CC=C(Cl)C=C3", "physical_data": {"Molecular Weight": "387.86", "Molecular Formula": "C21H22ClNO4", "Melting Point": "127-148 \u00b0C"}}