{"cas_no": "11050-94-5", "cn_name": "\u5be1\u9709\u7d20B", "en_name": ["Oligomycin B", "Spiro[2,26-dioxabicyclo[23.3.1]nonacosa-4,18,20-triene-27,2\u2032-[2H]pyran]-3,3\u2032,9,13(4\u2032H)-tetrone, 22-ethyl-5\u2032,6\u2032-dihydro-7,11,14,15-tetrahydroxy-6\u2032-[(2R)-2-hydroxypropyl]-5\u2032,6,8,10,12,14,16,28,29-nonamethyl-, (1R,2\u2032S,4E,5\u2032S,6S,6\u2032S,7R,8S,10R,11R,12S,14R,15S,16R,18E,20E,22R,25S,28S,29R)-", "Oligomycin B", "Oligomycin A, 28-oxo-", "(1R,2\u2032S,4E,5\u2032S,6S,6\u2032S,7R,8S,10R,11R,12S,14R,15S,16R,18E,20E,22R,25S,28S,29R)-22-Ethyl-5\u2032,6\u2032-dihydro-7,11,14,15-tetrahydroxy-6\u2032-[(2R)-2-hydroxypropyl]-5\u2032,6,8,10,12,14,16,28,29-nonamethylspiro[2,26-dioxabicyclo[23.3.1]nonacosa-4,18,20-triene-27,2\u2032-[2H]pyran]-3,3\u2032,9,13(4\u2032H)-tetrone", "Spiro[2,26-dioxabicyclo[23.3.1]nonacosa-4,18,20-triene-27,2\u2032-[2H]pyran]-3,3\u2032,9,13(4\u2032H)-tetrone, 22-ethyl-5\u2032,6\u2032-dihydro-7,11,14,15-tetrahydroxy-6\u2032-(2-hydroxypropyl)-5\u2032,6,8,10,12,14,16,28,29-nonamethyl-, [1R-[1R*,4E,5\u2032S*,6S*,6\u2032S*(R*),7R*,8S*,10R*,11R*,12S*,14R*,15S*,16R*,18E,20E,22R*,25S*,27S*,28S*,29R*]]-"], "SMILES": "CC1C2(OC3C(C)C1OC(=O)C=CC(C)C(O)C(C)C(=O)C(C)C(O)C(C)C(=O)C(C)(O)C(O)C(C)CC=CC=CC(CC)CC3)OC(CC(C)O)C(C)CC2=O", "physical_data": {"Molecular Weight": "805.05", "Molecular Formula": "C45H72O12", "Melting Point": "160-161 \u00b0C", "Density": "1.19 g/cm\u00b3"}}