{"cas_no": "110543-98-1", "cn_name": "5-\u4e59\u9170\u6c27\u57fa-6-\u6eb4-2-\u6eb4\u7532\u57fa-1-\u7532\u57fa\u5432\u54da-3-\u7532\u9178\u4e59\u916f", "en_name": ["Ethyl 5-(acetyloxy)-6-bromo-2-(bromomethyl)-1-methyl-1H-indole-3-carboxylate", "1H-Indole-3-carboxylic acid, 5-(acetyloxy)-6-bromo-2-(bromomethyl)-1-methyl-, ethyl ester", "Ethyl 5-(acetyloxy)-6-bromo-2-(bromomethyl)-1-methyl-1H-indole-3-carboxylate"], "SMILES": "C(OCC)(=O)C=1C=2C(N(C)C1CBr)=CC(Br)=C(OC(C)=O)C2", "physical_data": {"Molecular Weight": "433.09", "Molecular Formula": "C15H15Br2NO4", "Melting Point": "168-171 \u00b0C"}}