{"cas_no": "1105067-88-6", "cn_name": "\u963f\u6258\u4f10\u4ed6\u6c40\u76f8\u5173\u7269\u8d28E", "en_name": ["1H-Pyrrole-1-heptanoic acid, 2-(4-fluorophenyl)-\u03b2,\u03b4-dihydroxy-5-(1-methylethyl)-3-phenyl-4-[(phenylamino)carbonyl]-, calcium salt (2:1), (\u03b2S,\u03b4S)-", "1H-Pyrrole-1-heptanoic acid, 2-(4-fluorophenyl)-\u03b2,\u03b4-dihydroxy-5-(1-methylethyl)-3-phenyl-4-[(phenylamino)carbonyl]-, calcium salt (2:1), (\u03b2S,\u03b4S)-"], "SMILES": "C(NC1=CC=CC=C1)(=O)C=2C(=C(N(CCC(CC(CC(O)=O)O)O)C2C(C)C)C3=CC=C(F)C=C3)C4=CC=CC=C4.[Ca]", "physical_data": {"Molecular Weight": "", "Molecular Formula": "C33H35FN2O5.<sup>1</sup>/2Ca", "Melting Point": "170 \u00b0C (decomp)"}}