{"cas_no": "110525-57-0", "cn_name": "1-[(4-Nitrophenyl)methyl]pyrazole", "en_name": ["1-[(4-Nitrophenyl)methyl]-1H-pyrazole", "1H-Pyrazole, 1-[(4-nitrophenyl)methyl]-", "1-[(4-Nitrophenyl)methyl]-1H-pyrazole", "1-[(4-Nitrophenyl)methyl]pyrazole"], "SMILES": "C(C1=CC=C(N(=O)=O)C=C1)N2C=CC=N2", "physical_data": {"Molecular Weight": "203.20", "Molecular Formula": "C10H9N3O2", "Melting Point": "88-89 \u00b0C"}}