{"cas_no": "110623-73-9", "cn_name": "\u671d\u85ff\u5b9a B", "en_name": ["Epimedin B", "4H-1-Benzopyran-4-one, 3-[(6-deoxy-2-O-\u03b2-D-xylopyranosyl-\u03b1-L-mannopyranosyl)oxy]-7-(\u03b2-D-glucopyranosyloxy)-5-hydroxy-2-(4-methoxyphenyl)-8-(3-methyl-2-buten-1-yl)-", "4H-1-Benzopyran-4-one, 3-[(6-deoxy-2-O-\u03b2-D-xylopyranosyl-\u03b1-L-mannopyranosyl)oxy]-7-(\u03b2-D-glucopyranosyloxy)-5-hydroxy-2-(4-methoxyphenyl)-8-(3-methyl-2-butenyl)-", "3-[(6-Deoxy-2-O-\u03b2-D-xylopyranosyl-\u03b1-L-mannopyranosyl)oxy]-7-(\u03b2-D-glucopyranosyloxy)-5-hydroxy-2-(4-methoxyphenyl)-8-(3-methyl-2-buten-1-yl)-4H-1-benzopyran-4-one", "Epimedin B"], "SMILES": "C(C=C(C)C)C1=C2C(C(=O)C(OC3C(OC4C(O)C(O)C(O)CO4)C(O)C(O)C(C)O3)=C(O2)C5=CC=C(OC)C=C5)=C(O)C=C1OC6OC(CO)C(O)C(O)C6O", "physical_data": {"Molecular Weight": "808.78", "Molecular Formula": "C38H48O19", "Melting Point": "162-164 \u00b0C"}}