{"cas_no": "110683-10-8", "cn_name": "2-(3-(4-\u620a\u57fa\u82ef\u57fa)\u4e19\u70ef\u9170\u80fa\u57fa)\u82ef\u7532\u9178", "en_name": ["N-(p-Amylcinnamoyl)anthranilic acid", "Benzoic acid, 2-[[1-oxo-3-(4-pentylphenyl)-2-propen-1-yl]amino]-", "Benzoic acid, 2-[[1-oxo-3-(4-pentylphenyl)-2-propenyl]amino]-", "2-[[1-Oxo-3-(4-pentylphenyl)-2-propen-1-yl]amino]benzoic acid", "N-(4-Pentylcinnamoyl)anthranilic acid", "N-(p-Amylcinnamoyl)anthranilic acid"], "SMILES": "N(C(C=CC1=CC=C(CCCCC)C=C1)=O)C2=C(C(O)=O)C=CC=C2", "physical_data": {"Molecular Weight": "337.41", "Molecular Formula": "C21H23NO3", "Melting Point": "175-177 \u00b0C"}}