{"cas_no": "1107-00-2", "cn_name": "\u516d\u6c1f\u4e8c\u9150\uff086FDA\uff09", "en_name": ["4,4\u2032-(Hexafluoroisopropylidene)diphthalic anhydride", "1,3-Isobenzofurandione, 5,5\u2032-[2,2,2-trifluoro-1-(trifluoromethyl)ethylidene]bis-", "Phthalic anhydride, 4,4\u2032-[trifluoro-1-(trifluoromethyl)ethylidene]di-", "Phthalic anhydride, 4,4\u2032-[2,2,2-trifluoro-1-(trifluoromethyl)ethylidene]di-", "5,5\u2032-[2,2,2-Trifluoro-1-(trifluoromethyl)ethylidene]bis[1,3-isobenzofurandione]", "2,2-Bis(3,4-dicarboxyphenyl)hexafluoropropane dianhydride", "[2,2,2-Trifluoro-1-(trifluoromethyl)ethylidene]diphthalic anhydride", "Hexafluoroisopropylidene-2,2-bis(phthalic anhydride)", "6FDA", "4,4\u2032-(Hexafluoroisopropylidene)bis(phthalic anhydride)", "4,4\u2032-(Hexafluoroisopropylidene)diphthalic anhydride", "Hexafluoroisopropylbis(phthalic dianhydride)", "4,4\u2032-Hexafluoroisopropylidenebisphthalic dianhydride", "2,2-Bis(3,4-dicarboxyphenyl)-1,1,1,3,3,3-hexafluoropropane dianhydride", "4,4\u2032-Hexafluoroisopropylidenebis(benzene-1,2-dicarboxylic acid dianhydride)", "4,4\u2032-(Hexafluoroisopropylidene)diphthalic dianhydride", "4,4\u2032-Hexafluoropropylidene bisphthalic acid dianhydride", "6FPA", "4,4\u2032-(2,2-Hexafluoroisopropylidene)diphthalic acid dianhydride", "4,4\u2032-(Hexafluoroisopropylidene) biphthalic anhydride", "H 1438", "2,2\u2032-Bis(3,4\u2032-dicarboxyphenyl)hexafluoropropane dianhydride", "4,4\u2032-(Hexafluoroisopropylidene)diphthalic acid anhydride", "5,5\u2032-(Perfluoropropane-2,2-diyl)bis(isobenzofuran-1,3-dione)", "4,4\u2032-(2,2-Hexafluoroisopropylidene)diphthalic dianhydride", "4,4-(Hexafluoroisopropylidene)diphthalic anhydride", "4,4\u2032-(Hexafluoroisopropylidene)diphthalic acid dianhydride", "4,4\u2032-(Hexafluoroisopropyridene)diphthalic anhydride", "H 0771", "4,4\u2032-(Hexafluoroisopropylene)diphthalic anhydride"], "SMILES": "C(C(F)(F)F)(C(F)(F)F)(C=1C=C2C(=CC1)C(=O)OC2=O)C=3C=C4C(=CC3)C(=O)OC4=O", "physical_data": {"Molecular Weight": "444.24", "Molecular Formula": "C19H6F6O6", "Melting Point": "250-254 \u00b0C"}}