{"cas_no": "1107-26-2", "cn_name": "8\u2019-\u963f\u6734-\u03b2,\u03c8-\u80e1\u841d\u535c\u919b", "en_name": ["\u03b2-Apo-8\u2032-carotenal", "2,4,6,8,10,12,14,16-Heptadecaoctaenal, 2,6,11,15-tetramethyl-17-(2,6,6-trimethyl-1-cyclohexen-1-yl)-, (2E,4E,6E,8E,10E,12E,14E,16E)-", "8\u2032-Apo-\u03b2-carotenal, all-trans-", "8\u2032-Apo-\u03b2,\u03c8-carotenal", "8\u2032-Apo-\u03b2-carotenal", "(2E,4E,6E,8E,10E,12E,14E,16E)-2,6,11,15-Tetramethyl-17-(2,6,6-trimethyl-1-cyclohexen-1-yl)-2,4,6,8,10,12,14,16-heptadecaoctaenal", "\u03b2-Apo-8\u2032-carotenal", "8\u2032-Apo-\u03b2,\u03c8-caroten-8\u2032-al", "\u03b2-apo-8\u2032-Carotenal", "C.I. Food Orange 6", "E 160e", "C Orange 16", "8\u2032-Apo-\u03b2-caroten-8\u2032-al", "all-trans-\u03b2-Apo-8\u2032-carotenal", "\u03b2-apo-Carotenal", "8\u2032-apo-\u03b2-Caroten-8\u2032-al", "2,4,6,8,10,12,14,16-Heptadecaoctaenal, 2,6,11,15-tetramethyl-17-(2,6,6-trimethyl-1-cyclohexen-1-yl)-, (all-E)-", "8\u2032-Apo-caroten-8\u2032-al", "C.I. 40820", "(2E,4E,6E,8E,10E,12E,14E,16E)-2,6,11,15-Tetramethyl-17-(2,6,6-trimethylcyclohex-1-en-1-l) heptadeca-2,4,6,8,10,12,14,16-octaenal", "\u03b2-Carotinal"], "SMILES": "C(=CC(=CC=CC(=CC=CC=C(C=CC=C(C=O)C)C)C)C)C=1C(C)(C)CCCC1C", "physical_data": {"Molecular Weight": "416.64", "Molecular Formula": "C30H40O", "Melting Point": "136-137 \u00b0C"}}