{"cas_no": "11071-47-9", "cn_name": "\u4e09\u7532\u57fa-1-\u620a\u70ef", "en_name": ["Isooctene", "Isooctene", "Di-n-butene"], "SMILES": "", "physical_data": {"Molecular Weight": "", "Molecular Formula": "C8H16", "Boiling Point": "80-171 \u00b0C"}}