{"cas_no": "11078-21-0", "cn_name": "\u975e\u5f8b\u5e73", "en_name": ["Filipin", "Filipin", "Filimarisin", "U 5956"], "SMILES": "", "physical_data": {"Molecular Weight": "", "Molecular Formula": "Unspecified", "Melting Point": "195-205 \u00b0C"}}