{"cas_no": "11072-93-8", "cn_name": "beta-\u4e03\u53f6\u7d20", "en_name": ["\u03b2-Escin", "\u03b2-Escin", "\u03b2-Aescin", "Flogencyl"], "SMILES": "", "physical_data": {"Molecular Weight": "", "Molecular Formula": "Unspecified", "Melting Point": "222-223 \u00b0C"}}