{"cas_no": "11079-53-1", "cn_name": "\u8d2f\u53f6\u91d1\u4e1d\u6843\u7d20", "en_name": ["Hyperforin", "Bicyclo[3.3.1]non-3-ene-2,9-dione, 4-hydroxy-6-methyl-1,3,7-tris(3-methyl-2-buten-1-yl)-5-(2-methyl-1-oxopropyl)-6-(4-methyl-3-penten-1-yl)-, (1R,5S,6R,7S)-", "Bicyclo[3.3.1]non-3-ene-2,9-dione, 4-hydroxy-6-methyl-1,3,7-tris(3-methyl-2-butenyl)-5-(2-methyl-1-oxopropyl)-6-(4-methyl-3-pentenyl)-, [1R-(6-endo,7-exo)]-", "Bicyclo[3.3.1]non-3-ene-2,9-dione, 4-hydroxy-6-methyl-1,3,7-tris(3-methyl-2-butenyl)-5-(2-methyl-1-oxopropyl)-6-(4-methyl-3-pentenyl)-, (1R,5S,6R,7S)-", "(1R,5S,6R,7S)-4-Hydroxy-6-methyl-1,3,7-tris(3-methyl-2-buten-1-yl)-5-(2-methyl-1-oxopropyl)-6-(4-methyl-3-penten-1-yl)bicyclo[3.3.1]non-3-ene-2,9-dione", "Hyperforin", "Bicyclo[3.3.1]non-3-ene-2,9-dione, 4-hydroxy-6-methyl-1,3,7-tris(3-methyl-2-butenyl)-S-(2-methyl-1-oxopropyl)-6-(4-methyl-3-pentenyl)-, [1R-(1\u03b1,5\u03b1,6\u03b2,7\u03b1)]-", "(+)-Hyperforin"], "SMILES": "C(C(C)C)(=O)C12C(CCC=C(C)C)(C)C(CC=C(C)C)CC(CC=C(C)C)(C1=O)C(=O)C(CC=C(C)C)=C2O", "physical_data": {"Molecular Weight": "536.78", "Molecular Formula": "C35H52O4", "Melting Point": "79-80 \u00b0C"}}