{"cas_no": "1107-99-9", "cn_name": "\u6cfc\u5c3c\u677e\u9f99\u620a\u9178\u916f", "en_name": ["Prednisolone pivalate", "Pregna-1,4-diene-3,20-dione, 21-(2,2-dimethyl-1-oxopropoxy)-11,17-dihydroxy-, (11\u03b2)-", "Pregna-1,4-diene-3,20-dione, 11\u03b2,17,21-trihydroxy-, 21-pivalate", "(11\u03b2)-21-(2,2-Dimethyl-1-oxopropoxy)-11,17-dihydroxypregna-1,4-diene-3,20-dione", "11\u03b2,17\u03b1-Dihydroxy-21-pivaloyloxypregna-1,4-diene-3,20-dione", "Prednisolone pivalate", "Prednisolone trimethylacetate", "Prednisolone 21-trimethylacetate", "PTMA", "Ultracortenol", "Vecortenol", "Mecortolon", "Ultracorterenol", "Prednisolone 21-pivalate"], "SMILES": "CC12C3C(C4C(C)(CC3O)C(C(COC(C(C)(C)C)=O)=O)(O)CC4)CCC1=CC(=O)C=C2", "physical_data": {"Molecular Weight": "444.56", "Molecular Formula": "C26H36O6", "Melting Point": "233 \u00b0C"}}