{"cas_no": "1108-68-5", "cn_name": "\u534e\u87fe\u7d20", "en_name": ["Cinobufotalin", "Bufa-20,22-dienolide, 16-(acetyloxy)-14,15-epoxy-3,5-dihydroxy-, (3\u03b2,5\u03b2,15\u03b2,16\u03b2)-", "5\u03b2-Bufa-20,22-dienolide, 14,15\u03b2-epoxy-3\u03b2,5,16\u03b2-trihydroxy-, 16-acetate", "Cinobufotalin", "14,15-Epoxy-14H-cyclopenta[a]phenanthrene, bufa-20,22-dienolide deriv.", "(3\u03b2,5\u03b2,15\u03b2,16\u03b2)-16-(Acetyloxy)-14,15-epoxy-3,5-dihydroxybufa-20,22-dienolide", "NSC 90326"], "SMILES": "CC12C3(C(O3)C(OC(C)=O)C1C=4C=CC(=O)OC4)C5C(CC2)C6(C)C(O)(CC5)CC(O)CC6", "physical_data": {"Molecular Weight": "458.54", "Molecular Formula": "C26H34O7", "Melting Point": "260.5 \u00b0C"}}