{"cas_no": "11089-65-9", "cn_name": "\u8863\u9709\u7d20", "en_name": ["Tunicamycin", "Tunicamycin", "MeSH ID: D014415"], "SMILES": "", "physical_data": {"Molecular Weight": "", "Molecular Formula": "Unspecified", "Melting Point": "234-235 \u00b0C (decomp)"}}