{"cas_no": "11088-09-8", "cn_name": "\u96f7\u516c\u85e4\u6b21\u78b1", "en_name": ["Wilforine", "8,11-Epoxy-9,12-ethano-11,15-methano-5H,11H-[1,9]dioxacyclooctadecino[4,3-b]pyridine-5,17(18H)-dione, 10,13,22,23-tetrakis(acetyloxy)-12-[(acetyloxy)methyl]-14-(benzoyloxy)-7,8,9,10,12,13,14,15,19,20-decahydro-21-hydroxy-8,18,21-trimethyl-, (8R,9R,10R,11S,12S,13R,14R,15S,18S,21S,22S,23R)-", "Wilforine", "Evonimine, 8-(acetyloxy)-O2-benzoyl-O2-deacetyl-8-deoxo-, (8\u03b1)-", "(8R,9R,10R,11S,12S,13R,14R,15S,18S,21S,22S,23R)-10,13,22,23-Tetrakis(acetyloxy)-12-[(acetyloxy)methyl]-14-(benzoyloxy)-7,8,9,10,12,13,14,15,19,20-decahydro-21-hydroxy-8,18,21-trimethyl-8,11-epoxy-9,12-ethano-11,15-methano-5H,11H-[1,9]dioxacyclooctadecino[4,3-b]pyridine-5,17(18H)-dione", "8,11-Epoxy-9,12-ethano-11,15-methano-5H,11H-[1,9]dioxacyclooctadecino[4,3-b]pyridine-5,17(18H)-dione, 10,13,22,23-tetrakis(acetyloxy)-12-[(acetyloxy)methyl]-14-(benzoyloxy)-7,8,9,10,12,13,14,15,19,20-decahydro-21-hydroxy-8,18,21-trimethyl-, [8R-(8R*,9R*,10R*,11S*,12S*,13R*,14R*,15S*,18S*,21S*,22S*,23R*)]-", "26-Deoxywilfordine"], "SMILES": "C(OC(C)=O)C12C34C(OC(C)=O)C(C(C)(O3)COC(=O)C=5C(CCC(C)C(=O)OC(C4(C)O)C(OC(=O)C6=CC=CC=C6)C1OC(C)=O)=NC=CC5)C(OC(C)=O)C2OC(C)=O", "physical_data": {"Molecular Weight": "867.85", "Molecular Formula": "C43H49NO18", "Melting Point": "158-163 \u00b0C"}}