{"cas_no": "110871-86-8", "cn_name": "\u53f8\u5e15\u6c99\u661f", "en_name": ["Sparfloxacin", "3-Quinolinecarboxylic acid, 5-amino-1-cyclopropyl-7-[(3R,5S)-3,5-dimethyl-1-piperazinyl]-6,8-difluoro-1,4-dihydro-4-oxo-, rel-", "3-Quinolinecarboxylic acid, 5-amino-1-cyclopropyl-7-(3,5-dimethyl-1-piperazinyl)-6,8-difluoro-1,4-dihydro-4-oxo-, cis-", "rel-5-Amino-1-cyclopropyl-7-[(3R,5S)-3,5-dimethyl-1-piperazinyl]-6,8-difluoro-1,4-dihydro-4-oxo-3-quinolinecarboxylic acid", "AT 4140", "Sparfloxacin", "CI 978", "PD 131501", "CP 103826", "Zagam", "Spara", "PD 1315-1", "Sparcin", "Parox", "Salocin 120"], "SMILES": "FC1=C2C(C(=O)C(C(O)=O)=CN2C3CC3)=C(N)C(F)=C1N4CC(C)NC(C)C4", "physical_data": {"Molecular Weight": "392.40", "Molecular Formula": "C19H22F2N4O3", "Melting Point": "266-269 \u00b0C (decomp)"}}