{"cas_no": "110877-64-0", "cn_name": "2-\u6c2f-4,5-\u4e8c\u6c1f\u82ef\u7532\u9178", "en_name": ["2-Chloro-4,5-difluorobenzoic acid", "Benzoic acid, 2-chloro-4,5-difluoro-", "2-Chloro-4,5-difluorobenzoic acid"], "SMILES": "C(O)(=O)C1=C(Cl)C=C(F)C(F)=C1", "physical_data": {"Molecular Weight": "192.55", "Molecular Formula": "C7H3ClF2O2", "Melting Point": "86-88 \u00b0C"}}