{"cas_no": "110964-79-9", "cn_name": "2-\u785d\u57fa-4-\u7532\u781c\u57fa\u82ef\u7532\u9178", "en_name": ["4-(Methylsulfonyl)-2-nitrobenzoic acid", "Benzoic acid, 4-(methylsulfonyl)-2-nitro-", "4-(Methylsulfonyl)-2-nitrobenzoic acid", "2-Nitro-4-(methylsulfonyl)benzoic acid", "2-Nitro-p-methylsulfonyl benzoic acid", "4-Mesyl-2-nitrobenzoic acid"], "SMILES": "N(=O)(=O)C1=C(C(O)=O)C=CC(S(C)(=O)=O)=C1", "physical_data": {"Molecular Weight": "245.21", "Molecular Formula": "C8H7NO6S", "Melting Point": "212-213 \u00b0C"}}