{"cas_no": "110956-75-7", "cn_name": "\u7532\u62cc\u78f7-D10", "en_name": ["Pentoxazone", "2,4-Oxazolidinedione, 3-[4-chloro-5-(cyclopentyloxy)-2-fluorophenyl]-5-(1-methylethylidene)-", "3-[4-Chloro-5-(cyclopentyloxy)-2-fluorophenyl]-5-(1-methylethylidene)-2,4-oxazolidinedione", "BW 4", "Pentoxazone", "KPP 314", "Wechser"], "SMILES": "FC=1C(=CC(OC2CCCC2)=C(Cl)C1)N3C(=O)C(=C(C)C)OC3=O", "physical_data": {"Molecular Weight": "353.77", "Molecular Formula": "C17H17ClFNO4", "Melting Point": "104 \u00b0C"}}