{"cas_no": "11096-82-5", "cn_name": "\u4e9a\u8001\u54e5\u513f 1260", "en_name": ["PCB 1260", "PCB 1260", "Aroclor 1260"], "SMILES": "", "physical_data": {"Molecular Weight": "", "Molecular Formula": "Unspecified", "Boiling Point": "385-420 \u00b0C", "Density": "1.58 g/cm\u00b3 @ Temp: 25 \u00b0C"}}