{"cas_no": "1109230-25-2", "cn_name": "5-\u6eb4-3,4-\u4e8c\u6c22\u5f02\u55b9\u5549-1(2H)-\u916e", "en_name": ["5-Bromo-3,4-dihydro-1(2H)-isoquinolinone", "1(2H)-Isoquinolinone, 5-bromo-3,4-dihydro-", "5-Bromo-3,4-dihydro-1(2H)-isoquinolinone", "5-Bromo-3,4-dihydroisoquinolin-1(2H)-one", "5-Bromo-1,2,3,4-tetrahydroisoquinolin-1-one"], "SMILES": "BrC1=C2C(C(=O)NCC2)=CC=C1", "physical_data": {"Molecular Weight": "226.07", "Molecular Formula": "C9H8BrNO", "Melting Point": "180-182.5 \u00b0C"}}