{"cas_no": "11097-69-1", "cn_name": "\u4e9a\u8001\u54e5\u4e501254", "en_name": ["PCB 1254", "PCB 1254", "Aroclor 1254"], "SMILES": "", "physical_data": {"Molecular Weight": "", "Molecular Formula": "Unspecified", "Boiling Point": "365-390 \u00b0C", "Density": "1.495-1.505 g/cm\u00b3 @ Temp: 65 \u00b0C"}}