{"cas_no": "1109-15-5", "cn_name": "\u4e09(\u4e94\u6c1f\u82ef\u57fa)\u787c\u70f7", "en_name": ["Tris(pentafluorophenyl)borane", "Borane, tris(2,3,4,5,6-pentafluorophenyl)-", "Borane, tris(pentafluorophenyl)-", "Tris(2,3,4,5,6-pentafluorophenyl)borane", "Tris(pentafluorophenyl)borane", "Perfluorotriphenylboron", "Tris(pentafluorophenyl)boron", "Tri(pentafluorophenyl)boron", "Tris(perfluorophenyl)borane", "Tri(perfluorophenyl)borane", "BF 15", "Tris(perfluorophenyl)boron"], "SMILES": "B(C1=C(F)C(F)=C(F)C(F)=C1F)(C2=C(F)C(F)=C(F)C(F)=C2F)C3=C(F)C(F)=C(F)C(F)=C3F", "physical_data": {"Molecular Weight": "511.98", "Molecular Formula": "C18BF15", "Melting Point": "126-131 \u00b0C"}}