{"cas_no": "11099-07-3", "cn_name": "\u786c\u8102\u9178\u7518\u6cb9\u916f", "en_name": ["Glyceryl stearate", "Octadecanoic acid, ester with 1,2,3-propanetriol", "Stearin", "Glycerin stearic acid ester", "Glycerol stearate", "Margamuls", "Octadecanoic acid glycerol ester", "Glycerol stearic acid ester", "T 4 (glyceride)", "T 4", "Tegin 515", "Vinlub", "Atmul P 40S", "Atmul 124", "Atmer 122", "Glyceryl stearate", "Rikemal S 200", "EG 11", "Tegin special", "Tegomuls 90S", "Rikemal S 200P", "Atmos 150", "Polynol", "Emulgator C", "Precirol Special WL 2155", "Stearine", "AM 111 (surfactant)", "AM 113", "AM 112", "AM 111", "Excel 150", "Lexemul 515", "Lexemul 530", "Sunsoft 30", "Atmer 123", "Glycerin stearate", "Precirol WL 2155", "Poem S 200", "Tegomuls 4100", "Pationic 1052K", "Pationic 1052", "Kemester 6000", "Monomuls 90S18", "Estol 1461", "Safacid 16/18AM", "Safacid 16/18MS", "Pristerene 4913", "Rylo MD 50", "Cutina MD", "S 200", "S 95", "Rikemal S 95", "GMS-SE", "Stepan GMS S.E", "Estol 1462", "Nikkol MGS-F 40", "Dracorin GMS", "Dub GMS", "Witconol MST", "Monogrol", "Lasemul 92N40", "Emalex GMS-F", "Atmul 67", "Pristerene 4931", "Poem S 95", "Cadenax GS 90", "Imwitor 800", "Geleol", "Nikkol MGS-F 75V", "Lasemul 92AE", "Excel P 95", "MGS-ASEV", "Rita GMS", "Nikkol MGS-BV 2", "Hard Palm Stearin", "OLML", "Nikkol GMS-BV 2", "MSD 608", "Greenfad 2800SE", "Stearin 4963", "HallStar GMS Pure"], "SMILES": "C(CO)(CO)O.C(CCCCCCCCCCC)CCCCCC(O)=O", "physical_data": {"Molecular Weight": "", "Molecular Formula": "C18H36O2.xC3H8O3", "Melting Point": "60 \u00b0C"}}