{"cas_no": "111-96-6", "cn_name": "\u4e8c\u4e59\u4e8c\u9187\u4e8c\u7532\u919a", "en_name": ["Diglyme", "Ethane, 1,1\u2032-oxybis[2-methoxy-", "Ether, bis(2-methoxyethyl)", "1,1\u2032-Oxybis[2-methoxyethane]", "Diethylene glycol dimethyl ether", "Diglyme", "Poly-Solv", "2,5,8-Trioxanonane", "Bis(2-methoxyethyl) ether", "Glyme 2", "2-(2-Methoxyethoxy)-1-methoxyethane", "Dimethyl carbitol", "(2-Methoxyethyl) ether", "Ethanol, 2,2\u2032-oxybis-, dimethyl ether", "Methyl diglyme", "Di(2-methoxyethyl) ether", "Glyme 3", "Dimethyl digol", "Hisolve MDM", "Ansul Ether 141", "NSC 59726", "1,5-Dimethoxy-3-oxapentane", "1-(2-Methoxyethoxy)-2-methoxyethane", "DMDG", "B 0498", "1-Methoxy-2-(2-methoxyethoxy)ethane"], "SMILES": "O(CCOC)CCOC", "physical_data": {"Molecular Weight": "134.17", "Molecular Formula": "C6H14O3", "Boiling Point": "162 \u00b0C @ Press: 760 Torr", "Melting Point": "-68 \u00b0C", "Density": "0.9451 g/cm\u00b3 @ Temp: 20 \u00b0C"}}