{"cas_no": "111-65-9", "cn_name": "\u6b63\u8f9b\u70f7", "en_name": ["Octane", "Octane", "n-Octane", "NSC 9822"], "SMILES": "C(CCCC)CCC", "physical_data": {"Molecular Weight": "114.23", "Molecular Formula": "C8H18", "Boiling Point": "125.67 \u00b0C @ Press: 760 Torr", "Melting Point": "-56.76 \u00b0C", "Density": "0.69862 g/cm\u00b3 @ Temp: 25 \u00b0C"}}