{"cas_no": "111-46-6", "cn_name": "\u4e8c\u4e59\u4e8c\u9187", "en_name": ["Diethylene glycol", "Ethanol, 2,2\u2032-oxybis-", "Diethylene glycol", "2,2\u2032-Oxybis[ethanol]", "TL4N", "Brecolane NDG", "Deactivator E", "DEG", "Dicol", "Diglycol", "\u03b2,\u03b2\u2032-Dihydroxydiethyl ether", "Dissolvant APV", "Ethylene diglycol", "3-Oxapentane-1,5-diol", "2,2\u2032-Oxydiethanol", "Bis(\u03b2-hydroxyethyl) ether", "Digol", "Bis(2-hydroxyethyl) ether", "Digenos", "2,2\u2032-Oxyethanol", "2-(2-Hydroxyethoxy)ethanol", "3-Oxapentamethylene-1,5-diol", "1,5-Dihydroxy-3-oxapentane", "2-Hydroxyethoxyethanol", "NSC 36391", "DST Powder 1.6", "2,2\u2032-Oxybis(ethan-1-ol)", "2-(2-Hydroxyethoxy)ethan-1-ol", "KC 22", "SH 1056-1991"], "SMILES": "O(CCO)CCO", "physical_data": {"Molecular Weight": "106.12", "Molecular Formula": "C4H10O3", "Boiling Point": "244-245 \u00b0C", "Melting Point": "-6.5 \u00b0C", "Density": "1.18 g/cm\u00b3 @ Temp: 20 \u00b0C"}}