{"cas_no": "111-13-7", "cn_name": "\u4ef2\u8f9b\u916e", "en_name": ["2-Octanone", "2-Octanone", "Hexyl methyl ketone", "Methyl hexyl ketone", "Methyl n-hexyl ketone", "n-Hexyl methyl ketone", "2-Oxooctane", "NSC 3712", "NSC 5936"], "SMILES": "C(CC(C)=O)CCCC", "physical_data": {"Molecular Weight": "128.21", "Molecular Formula": "C8H16O", "Boiling Point": "172-173 \u00b0C", "Melting Point": "-16 \u00b0C", "Density": "0.820 g/cm\u00b3 @ Temp: 20 \u00b0C"}}