{"cas_no": "111-57-9", "cn_name": "N-(2-\u7f9f\u57fa\u4e59\u57fa)\u786c\u8102\u9170\u80fa", "en_name": ["N-Stearoylethanolamine", "Octadecanamide, N-(2-hydroxyethyl)-", "N-(2-Hydroxyethyl)octadecanamide", "Stearic ethylolamide", "Stearoylmonoethanolamide", "Stearic acid monoethanolamide", "Stearic ethanolamide", "N-(2-Hydroxyethyl)stearamide", "Stearic monoethanolamide", "Loramine S 280", "Marlamid M 18", "Clindrol 200MS", "Cycloamide SM", "Stearic monoethanolamine", "Onyx Wax EL", "Stearamide MEA", "N-Stearoylethanolamine", "Comperlan HS", "Emcol 70", "Amisol SME", "Witcamide 70", "Rewomid S 280", "N-Octadecanoylethanolamine", "Monoethanolstearamide", "Ceramid", "Monamid S", "AM 1105", "Alkamide S 280", "S 280", "Lubsize K 12", "Mackamide SMA", "Profan SME", "NSC 3377", "NSC 52619", "Abriflo 65", "Stearamide monoethanolamine", "Monamid 972", "Aminon SM", "Stearoylethanolamide", "Stearic acid ethanolamide"], "SMILES": "C(CCCCCCCCCCCCCCC)CC(NCCO)=O", "physical_data": {"Molecular Weight": "327.55", "Molecular Formula": "C20H41NO2", "Melting Point": "103-104 \u00b0C"}}