{"cas_no": "111-88-6", "cn_name": "1-\u8f9b\u786b\u9187", "en_name": ["1-Octanethiol", "1-Octanethiol", "Octyl mercaptan", "n-Octyl mercaptan", "1-Mercaptooctane", "n-Octanethiol", "Octylthiol", "1-Octylthiol", "n-Octylthiol", "1-Octyl mercaptan", "NSC 151955", "NSC 41903", "Thiokalcol 08", "O 0025"], "SMILES": "C(CCCC)CCCS", "physical_data": {"Molecular Weight": "146.29", "Molecular Formula": "C8H18S", "Boiling Point": "86 \u00b0C @ Press: 15 Torr", "Melting Point": "-49.2 \u00b0C", "Density": "0.8433 g/cm\u00b3 @ Temp: 20 \u00b0C"}}