{"cas_no": "111-34-2", "cn_name": "\u4e59\u70ef\u57fa\u6b63\u4e01\u919a", "en_name": ["Butyl vinyl ether", "Butane, 1-(ethenyloxy)-", "Ether, butyl vinyl", "1-(Ethenyloxy)butane", "n-Butyl vinyl ether", "BVE", "Vinyl n-butyl ether", "Vinyl butyl ether", "Butoxyethene", "Butoxyethylene", "1-Butoxyethene", "Butyl vinyl ether", "1-(Vinyloxy)butane", "NSC 8264", "NBVE"], "SMILES": "C(CCC)OC=C", "physical_data": {"Molecular Weight": "100.16", "Molecular Formula": "C6H12O", "Boiling Point": "94 \u00b0C", "Melting Point": "-92 \u00b0C", "Density": "0.7888 g/cm\u00b3 @ Temp: 20 \u00b0C"}}