{"cas_no": "111-49-9", "cn_name": "\u73af\u5df1\u4e9a\u80fa", "en_name": ["Azepane", "1H-Azepine, hexahydro-", "Hexamethylenimine", "Hexahydro-1H-azepine", "Azacycloheptane", "Homopiperidine", "Perhydroazepine", "Hexahydroazepine", "G 0 (amine)", "1-Azacycloheptane", "G 0", "Azepane", "Azepan", "NSC 16236"], "SMILES": "C1CCCNCC1", "physical_data": {"Molecular Weight": "99.17", "Molecular Formula": "C6H13N", "Boiling Point": "138 \u00b0C", "Melting Point": "-37 \u00b0C", "Density": "0.8643 g/cm\u00b3 @ Temp: 22 \u00b0C"}}