{"cas_no": "111-71-7", "cn_name": "\u5e9a\u919b", "en_name": ["Heptanal", "Heptanal", "Enanthal", "Enanthaldehyde", "Enanthole", "Heptaldehyde", "Heptyl aldehyde", "Oenanthal", "Oenanthaldehyde", "Oenanthic aldehyde", "Oenanthol", "Enanthic aldehyde", "n-Heptylaldehyde", "n-Heptanal", "n-Heptaldehyde", "Heptanaldehyde", "1-Heptaldehyde", "NSC 2190"], "SMILES": "C(CCC=O)CCC", "physical_data": {"Molecular Weight": "114.19", "Molecular Formula": "C7H14O", "Boiling Point": "152.8 \u00b0C", "Melting Point": "-43.3 \u00b0C", "Density": "0.82162 g/cm\u00b3 @ Temp: 15 \u00b0C"}}