{"cas_no": "111-02-4", "cn_name": "\u53cd\u5f0f\u89d2\u9ca8\u70ef", "en_name": ["Squalene", "2,6,10,14,18,22-Tetracosahexaene, 2,6,10,15,19,23-hexamethyl-, (6E,10E,14E,18E)-", "2,6,10,14,18,22-Tetracosahexaene, 2,6,10,15,19,23-hexamethyl-, (all-E)-", "(6E,10E,14E,18E)-2,6,10,15,19,23-Hexamethyl-2,6,10,14,18,22-tetracosahexaene", "Spinacene", "all-trans-Squalene", "trans-Squalene", "Squalene", "Spinacen", "Squalen", "(E,E,E,E)-Squalene", "Nikko Squalane EX", "Super Squalene", "AddaVax", "MeSH ID: D013185"], "SMILES": "C(CC(=CCCC=C(CCC=C(CCC=C(C)C)C)C)C)C=C(CCC=C(C)C)C", "physical_data": {"Molecular Weight": "410.72", "Molecular Formula": "C30H50", "Boiling Point": "284-285 \u00b0C @ Press: 25 Torr", "Melting Point": "&lt;-20 \u00b0C", "Density": "0.8596 g/cm\u00b3 @ Temp: 15 \u00b0C"}}