{"cas_no": "111-03-5", "cn_name": "\u7518\u6cb9\u5355\u6cb9\u9178\u916f", "en_name": ["Glycerol 1-monooleate", "9-Octadecenoic acid (9Z)-, 2,3-dihydroxypropyl ester", "Olein, 1-mono-", "9-Octadecenoic acid (Z)-, 2,3-dihydroxypropyl ester", "Glycerol 1-monooleate", "\u03b1-Monoolein", "1-Monoolein", "1-Oleylglycerol", "1-Oleoylglycerol", "1-Monooleoylglycerol", "Glycerin 1-monooleate", "Glycerol \u03b1-cis-9-octadecenate", "Glycerol \u03b1-monooleate", "1-Glyceryl oleate", "Glyceryl monooleate", "Glycerol 1-oleate", "rac-1-Monooleoylglycerol", "rac-1-Monoolein", "1-Monooleoyl-rac-glycerol", "Danisco MO 90", "2,3-Dihydroxypropyl oleate", "1-Mono(cis-9-octacenoyl)glycerol", "Rylo MG 19", "\u03b1-Glyceryl monooloeate", "1-Oleoyl-rac-glycerol", "Nofable GO 991", "Glycerol 1-(9Z-octadecenoate)", "1-Monooleoyl-rac-glycerol", "GO 991"], "SMILES": "C(CC(OCC(CO)O)=O)CCCCCC=CCCCCCCCC", "physical_data": {"Molecular Weight": "356.54", "Molecular Formula": "C21H40O4", "Boiling Point": "238-240 \u00b0C @ Press: 3-4 Torr", "Melting Point": "35 \u00b0C", "Density": "0.9407 g/cm\u00b3 @ Temp: 35 \u00b0C"}}