{"cas_no": "111-85-3", "cn_name": "1-\u6c2f\u8f9b\u70f7", "en_name": ["1-Chlorooctane", "Octane, 1-chloro-", "1-Chlorooctane", "Octyl chloride", "n-Octyl chloride", "1-Octyl chloride", "Caprylyl chloride", "NSC 5406"], "SMILES": "C(CCCC)CCCCl", "physical_data": {"Molecular Weight": "148.67", "Molecular Formula": "C8H17Cl", "Boiling Point": "181.5 \u00b0C @ Press: 760 Torr", "Melting Point": "-57.8 \u00b0C", "Density": "0.8738 g/cm\u00b3 @ Temp: 20 \u00b0C"}}