{"cas_no": "111-33-1", "cn_name": "N,N'-\u4e8c\u7532\u57fa-1,3-\u4e19\u4e8c\u80fa", "en_name": ["N,N\u2032-Dimethyl-1,3-propanediamine", "1,3-Propanediamine, N1,N3-dimethyl-", "1,3-Propanediamine, N,N\u2032-dimethyl-", "N1,N3-Dimethyl-1,3-propanediamine", "N,N\u2032-Dimethyl-1,3-diaminopropane", "N,N\u2032-Dimethyl-1,3-propanediamine", "N,N\u2032-Dimethyl-1,3-propylenediamine", "N,N\u2032-Dimethyltrimethylenediamine", "1,3-Bis(methylamino)propane", "N,N\u2032-Dimethylpropylenediamine", "N,N\u2032-Dimethylpropanediamine", "N1,N3-Dimethylpropane-1,3-diamine"], "SMILES": "C(CNC)CNC", "physical_data": {"Molecular Weight": "102.18", "Molecular Formula": "C5H14N2", "Boiling Point": "36 \u00b0C @ Press: 10 Torr", "Melting Point": "193-195 \u00b0C"}}