{"cas_no": "111-39-7", "cn_name": "N-\u4e19\u57fa\u4e9a\u4e59\u57fa\u4e8c\u80fa", "en_name": ["N-Propylethylenediamine", "1,2-Ethanediamine, N1-propyl-", "Ethylenediamine, N-propyl-", "1,2-Ethanediamine, N-propyl-", "N1-Propyl-1,2-ethanediamine", "N-Propylethylenediamine", "N-(n-Propyl)ethylenediamine", "N-Propylethane-1,2-diamine", "[2-(Propylamino)ethyl]amine", "NSC 166324", "1-Propylethylenediamine", "N-Propyl-1,2-diaminoethane", "(2-Aminoethyl)(propyl)amine", "2-(n-Propylamino)ethylamine"], "SMILES": "N(CCC)CCN", "physical_data": {"Molecular Weight": "102.18", "Molecular Formula": "C5H14N2", "Boiling Point": "155 \u00b0C"}}