{"cas_no": "111-66-0", "cn_name": "1-\u8f9b\u70ef", "en_name": ["1-Octene", "1-Octene", "\u03b1-Octene", "\u03b1-Octylene", "n-1-Octene", "Caprylene", "1-n-Octene", "Gulftene 8", "Dialen 8", "n-octene-1", "NSC 8457", "Linealene 8", "Octa-1-ene"], "SMILES": "C(CCC=C)CCC", "physical_data": {"Molecular Weight": "112.21", "Molecular Formula": "C8H16", "Boiling Point": "121.2 \u00b0C @ Press: 760 Torr", "Melting Point": "-101.7 \u00b0C", "Density": "0.7149 g/cm\u00b3 @ Temp: 20 \u00b0C"}}