{"cas_no": "111-11-5", "cn_name": "\u8f9b\u9178\u7532\u916f", "en_name": ["Methyl octanoate", "Octanoic acid, methyl ester", "Methyl caprylate", "Methyl octanoate", "Uniphat A 20", "Methyl n-octanoate", "Caprylic acid methyl ester", "Pastell M 08", "Witconol 1095", "Witconol 2309", "Radia 7984", "NSC 3710", "Pastell M 8", "Agnique ME 890"], "SMILES": "C(CC(OC)=O)CCCCC", "physical_data": {"Molecular Weight": "158.24", "Molecular Formula": "C9H18O2", "Boiling Point": "192.9 \u00b0C @ Press: 760 Torr", "Melting Point": "-40 \u00b0C", "Density": "0.8775 g/cm\u00b3 @ Temp: 20 \u00b0C"}}