{"cas_no": "111-76-2", "cn_name": "\u4e59\u4e8c\u9187\u5355\u4e01\u919a", "en_name": ["2-Butoxyethanol", "Ethanol, 2-butoxy-", "2-Butoxyethanol", "2-Butoxy-1-ethanol", "Butyl Cellosolve", "O-Butyl ethylene glycol", "Butyl glycol", "Dowanol EB", "Ethylene glycol monobutyl ether", "Gafcol EB", "Glycol butyl ether", "Glycol monobutyl ether", "Monobutyl glycol ether", "3-Oxa-1-heptanol", "Poly-Solv EB", "Butyl Oxitol", "Ethylene glycol butyl ether", "Ethylene glycol n-butyl ether", "\u03b2-Butoxyethanol", "Butyl Cellu-Sol", "Ethylene glycol mono-n-butyl ether", "Chimec NR", "Ektasolve EB", "Butyl monoether glycol", "Minex BDH", "n-Butyl cellosolve", "C4E1", "2-n-Butoxyethanol", "EGBE", "Glycol EB", "Butyl Glysolv", "Buchiseru", "NSC 60759", "Eastman EB", "Bikanol B 1", "K Foam Lo", "DB solvent", "Butyl icinol", "Mearcell 3532", "SG", "Simple Green", "Dabco PM 300", "BCS", "Monoethyleneglycol butyl ether", "R 1171", "A 13919"], "SMILES": "C(OCCO)CCC", "physical_data": {"Molecular Weight": "118.17", "Molecular Formula": "C6H14O2", "Boiling Point": "168.4 \u00b0C", "Melting Point": "-74.8 \u00b0C", "Density": "0.9012 g/cm\u00b3 @ Temp: 20 \u00b0C"}}