{"cas_no": "111-75-1", "cn_name": "2-\u4e01\u6c28\u57fa\u4e59\u9187", "en_name": ["Butylethanolamine", "Ethanol, 2-(butylamino)-", "2-(Butylamino)ethanol", "Butylethanolamine", "2-(N-Monobutylamino)ethanol", "N-Butylethanolamine", "Butyl(2-hydroxyethyl)amine", "2-(n-Butylamino)ethanol", "N-Butyl-N-(2-hydroxyethyl)amine", "2-Hydroxyethyl(butyl)amine", "NSC 1098", "MBM", "Synergex", "2-(Butylamino)ethan-1-ol"], "SMILES": "C(NCCO)CCC", "physical_data": {"Molecular Weight": "117.19", "Molecular Formula": "C6H15NO", "Boiling Point": "199 \u00b0C", "Melting Point": "-2 \u00b0C", "Density": "0.8907 g/cm\u00b3"}}