{"cas_no": "111-61-5", "cn_name": "\u5341\u516b\u9178\u4e59\u916f", "en_name": ["Ethyl stearate", "Octadecanoic acid, ethyl ester", "Stearic acid, ethyl ester", "Ethyl stearate", "Ethyl n-octadecanoate", "Ethyl octadecanoate", "NSC 8919", "KAK-ES"], "SMILES": "C(CCCCCCCCCCCCCCC)CC(OCC)=O", "physical_data": {"Molecular Weight": "312.53", "Molecular Formula": "C20H40O2", "Boiling Point": "199 \u00b0C", "Melting Point": "33 \u00b0C"}}