{"cas_no": "111-25-1", "cn_name": "\u6eb4\u5df1\u70f7", "en_name": ["1-Bromohexane", "Hexane, 1-bromo-", "1-Bromohexane", "Hexyl bromide", "n-Hexyl bromide", "1-Hexylbromide", "1-Hexane bromide", "NSC 71206"], "SMILES": "C(CCBr)CCC", "physical_data": {"Molecular Weight": "165.07", "Molecular Formula": "C6H13Br", "Boiling Point": "155.3 \u00b0C", "Melting Point": "-84.7 \u00b0C", "Density": "1.1852 g/cm\u00b3 @ Temp: 19 \u00b0C"}}