{"cas_no": "111-44-4", "cn_name": "\u4e8c\u6c2f\u4e59\u919a", "en_name": ["Bis(2-chloroethyl) ether", "Ethane, 1,1\u2032-oxybis[2-chloro-", "Ether, bis(2-chloroethyl)", "Ether, bis(chloroethyl)", "1,1\u2032-Oxybis[2-chloroethane]", "Bis(\u03b2-chloroethyl) ether", "Bis(2-chloroethyl) ether", "Chlorex", "1-Chloro-2-(\u03b2-chloroethoxy)ethane", "DCEE", "2,2\u2032-Dichlorethyl ether", "\u03b2,\u03b2\u2032-Dichloroethyl ether", "Di(\u03b2-Chloroethyl) ether", "\u03b2,\u03b2\u2032-Dichlorodiethyl ether", "2,2\u2032-Dichlorodiethyl ether", "2,2\u2032-Dichloroethyl ether", "sym-Dichloroethyl ether", "2-Chloroethyl ether", "1,5-Dichloro-3-oxapentane", "Diethylene glycol dichloride", "Oxygen mustard", "1-Chloro-2-(2-chloroethoxy)ethane", "2-(2-Chloroethoxy)ethyl chloride", "Di-2-chloroethyl ether", "NSC 406647", "BCEE"], "SMILES": "O(CCCl)CCCl", "physical_data": {"Molecular Weight": "143.01", "Molecular Formula": "C4H8Cl2O", "Boiling Point": "178.5 \u00b0C", "Melting Point": "-51.9 \u00b0C", "Density": "1.22 g/cm\u00b3 @ Temp: 20 \u00b0C"}}