{"cas_no": "111-77-3", "cn_name": "\u4e8c\u4e59\u4e8c\u9187\u5355\u7532\u919a", "en_name": ["Diethylene glycol monomethyl ether", "Ethanol, 2-(2-methoxyethoxy)-", "2-(2-Methoxyethoxy)ethanol", "Diethylene glycol methyl ether", "Diethylene glycol monomethyl ether", "Diglycol monomethyl ether", "Dowanol DM", "\u03b2-Methoxy-\u03b2\u2032-hydroxydiethyl ether", "Methyl Carbitol", "Poly-Solv DM", "Methyl Dioxitol", "Methyl digol", "3,6-Dioxa-1-heptanol", "Ektasolve DM", "Hicotol CAR", "Ethanol, 2,2\u2032-oxybis-, monomethyl ether", "2-(2\u2032-Methoxyethoxy)ethanol", "Methyldiethylene glycol", "2-(2-Methoxyethoxy)ethan-1-ol", "NSC 2261", "MDG", "Bikanol M 2", "Hisolve DM", "2-Hydroxyethyl 2-methoxyethyl ether", "M 0537", "Methoxydiethylene glycol", "Nycosol 13", "Transcultol P", "ZK 211109-01"], "SMILES": "C(OCCO)COC", "physical_data": {"Molecular Weight": "120.15", "Molecular Formula": "C5H12O3", "Boiling Point": "193 \u00b0C", "Melting Point": "&lt;-84 \u00b0C", "Density": "1.035 g/cm\u00b3 @ Temp: 20 \u00b0C"}}