{"cas_no": "111-43-3", "cn_name": "\u6b63\u4e19\u919a", "en_name": ["Propyl ether", "Propane, 1,1\u2032-oxybis-", "Propyl ether", "1,1\u2032-Oxybis[propane]", "Dipropyl ether", "Di-n-propyl ether", "Dipropyl oxide", "4-Oxaheptane", "n-Propyl ether"], "SMILES": "O(CCC)CCC", "physical_data": {"Molecular Weight": "102.17", "Molecular Formula": "C6H14O", "Boiling Point": "90 \u00b0C", "Melting Point": "-126.1 \u00b0C", "Density": "0.7466 g/cm\u00b3 @ Temp: 20 \u00b0C"}}