{"cas_no": "111-91-1", "cn_name": "\u53cc(2-\u6c2f\u4e59\u6c27\u57fa)\u7532\u70f7", "en_name": ["Bis(2-chloroethoxy)methane", "Ethane, 1,1\u2032-[methylenebis(oxy)]bis[2-chloro-", "Methane, bis(2-chloroethoxy)-", "1,1\u2032-[Methylenebis(oxy)]bis[2-chloroethane]", "Bis(2-chloroethoxy)methane", "Di-2-chloroethyl formal", "Formaldehyde bis(\u03b2-chloroethyl) acetal", "Bis(\u03b2-chloroethyl) formal", "Bis(2-chloroethyl) formal", "Formaldehyde bis(2-chloroethyl) acetal", "Di(2-chloroethoxy)methane", "1,7-Dichloro-3,5-dioxaheptane", "NSC 5212", "1-Chloro-2-(2-chloroethoxymethoxy)ethane"], "SMILES": "C(OCCCl)OCCCl", "physical_data": {"Molecular Weight": "173.04", "Molecular Formula": "C5H10Cl2O2", "Boiling Point": "218.1 \u00b0C", "Melting Point": "-32 \u00b0C", "Density": "1.2339 g/cm\u00b3 @ Temp: 20 \u00b0C"}}