{"cas_no": "111-31-9", "cn_name": "1-\u5df1\u786b\u9187", "en_name": ["1-Hexanethiol", "1-Hexanethiol", "Hexanethiol", "Hexyl mercaptan", "Hexan-1-thiol", "n-Hexyl mercaptan", "n-Hexylthiol", "Hexylthiol", "n-Hexanethiol", "1-Hexyl mercaptan", "1-Mercaptohexane", "1-Hexylthiol", "NSC 99106"], "SMILES": "C(CCC)CCS", "physical_data": {"Molecular Weight": "118.24", "Molecular Formula": "C6H14S", "Boiling Point": "151 \u00b0C", "Melting Point": "-81 \u00b0C", "Density": "0.8367 g/cm\u00b3 @ Temp: 25 \u00b0C"}}