{"cas_no": "111-58-0", "cn_name": "\u6cb9\u9170\u5355\u4e59\u9187\u80fa", "en_name": ["Oleoylethanolamide", "9-Octadecenamide, N-(2-hydroxyethyl)-, (9Z)-", "Oleamide, N-(2-hydroxyethyl)-", "9-Octadecenamide, N-(2-hydroxyethyl)-, (Z)-", "(9Z)-N-(2-Hydroxyethyl)-9-octadecenamide", "Oleic acid ethanolamide", "Oleic acid monoethanolamide", "N-Oleoylethanolamine", "N-Oleoyl-2-aminoethanol", "N-(2-Hydroxyethyl)oleamide", "AM 3101", "Oleamide MEA", "Oleoylethanolamide", "N-(2-Hydroxyethyl)-9-Z-octadecenamide", "N-Oleoylethanolamide"], "SMILES": "C(CCCCCC=CCCCCCCCC)CC(NCCO)=O", "physical_data": {"Molecular Weight": "325.53", "Molecular Formula": "C20H39NO2", "Melting Point": "63-64 \u00b0C"}}