{"cas_no": "111-81-9", "cn_name": "10-\u5341\u4e00\u70ef\u9178\u7532\u916f", "en_name": ["Methyl 10-undecenoate", "10-Undecenoic acid, methyl ester", "10-Hendecenoic acid methyl ester", "Methyl 10-undecenoate", "Methyl undecenoate", "Undecylenic acid methyl ester", "Methyl 10-undecylenate", "Maskod MNS 01-10", "Methyl undec-10-enylate", "NSC 1273", "Methyl undec-10-enoate"], "SMILES": "C(CCC(OC)=O)CCCCCC=C", "physical_data": {"Molecular Weight": "198.30", "Molecular Formula": "C12H22O2", "Boiling Point": "248 \u00b0C", "Melting Point": "-27.5 \u00b0C", "Density": "0.8826 g/cm\u00b3 @ Temp: 20 \u00b0C"}}