{"cas_no": "111-01-3", "cn_name": "\u89d2\u9ca8\u70f7", "en_name": ["Squalane", "Tetracosane, 2,6,10,15,19,23-hexamethyl-", "2,6,10,15,19,23-Hexamethyltetracosane", "Cosbiol", "Dodecahydrosqualene", "Perhydrosqualene", "Robane", "Spinacane", "Vitabiosol", "Squalane", "Squalan", "Fitoderm", "Pripure SQV 3759", "Super Squalane", "Nikko Squalane", "Mild Finish 20P", "Cetiol SQ", "Squalane N", "Phtyosqualan", "NSC 6851", "Phytosqualan", "Sophim Squalane-S", "SQ-CONO", "Pripure 379", "Pripure 3759", "Phytiane LS", "Phytosqualane", "Biolip P 90", "Phytolane LS", "Nikkol Sugar Squalane", "Nikkol Refined Olive Squalane", "Sugar Squalane", "Neossance squalene"], "SMILES": "C(CC(CCCCC(CCCC(CCCC(C)C)C)C)C)CC(CCCC(C)C)C", "physical_data": {"Molecular Weight": "422.81", "Molecular Formula": "C30H62", "Boiling Point": "350 \u00b0C", "Melting Point": "-38 \u00b0C", "Density": "0.8144 g/cm\u00b3 @ Temp: 15 \u00b0C"}}