{"cas_no": "111-90-0", "cn_name": "\u4e8c\u4e59\u4e8c\u9187\u4e59\u919a", "en_name": ["Diethylene glycol monoethyl ether", "Ethanol, 2-(2-ethoxyethoxy)-", "Ethanol, 2-(\u03b2-ethoxyethoxy)-", "2-(2-Ethoxyethoxy)ethanol", "Diethylene glycol ethyl ether", "Diglycol monoethyl ether", "Dioxitol", "Dowanol DE", "Ethylene diglycol monoethyl ether", "Poly-Solv DE", "Solvolsol", "Carbitol", "Ethyl carbitol", "Transcutol", "Ethyl digol", "Ektasolve DE", "Diethylene glycol monoethyl ether", "1-Hydroxy-3,6-dioxaoctane", "O-Ethyl digol", "Ethanol, 2,2\u2032-oxybis-, monoethyl ether", "2-(2\u2032-Ethoxyethoxy)ethanol", "3,6-Dioxa-1-octanol", "Ethyldiethylene glycol", "Carbitol Solvent Low", "Transcutol P", "Ethyl Diglysolv", "Trivalin SF", "Transcutol CG", "Shihozoru DG", "NSC 408451", "Transcutol HP", "Seahosol DG", "Seahosol DG-L", "Ethoxydiethylene glycol", "2-(2-Ethoxyethoxy)ethan-1-ol", "Seahosol DG-S", "Glycol ether de", "EDG"], "SMILES": "C(COCC)OCCO", "physical_data": {"Molecular Weight": "134.17", "Molecular Formula": "C6H14O3", "Boiling Point": "196 \u00b0C", "Melting Point": "-76 \u00b0C", "Density": "0.989 g/cm\u00b3"}}