{"cas_no": "111-41-1", "cn_name": "\u7f9f\u4e59\u57fa\u4e59\u4e8c\u80fa", "en_name": ["(2-Hydroxyethyl)ethylenediamine", "Ethanol, 2-[(2-aminoethyl)amino]-", "2-[(2-Aminoethyl)amino]ethanol", "N-Hydroxyethyl-1,2-ethanediamine", "N-(\u03b2-Hydroxyethyl)ethylenediamine", "N-(Hydroxyethyl)ethylenediamine", "(\u03b2-Hydroxyethyl)ethylenediamine", "N-(2-Aminoethyl)ethanolamine", "N-(\u03b2-Aminoethyl)ethanolamine", "N-(2-Hydroxyethyl)ethylenediamine", "(2-Hydroxyethyl)ethylenediamine", "N-(2-Hydroxyethyl)-1,2-ethanediamine", "1-(2-Hydroxyethylamino)-2-aminoethane", "2-(2-Hydroxyethylamino)ethylamine", "N-(2\u2032-Hydroxyethyl)ethylenediamine", "2-(2\u2032-Aminoethylamino)ethanol", "N-(\u03b2-Hydroxyethyl)-1,2-ethanediamine", "N-(2-Hydroxyethyl)-1,2-ethylenediamine", "A-EA", "NSC 461", "Amino Alcohol EA", "1-Aminooxyethylamine", "Aminoethylethanolamine", "N-(2-Hydroxyethyl)-1,2-diaminoethane", "2-[(Aminoethyl)amino]ethanol", "2-(2-Aminoethylamino)-1-ethanol"], "SMILES": "N(CCN)CCO", "physical_data": {"Molecular Weight": "104.15", "Molecular Formula": "C4H12N2O", "Boiling Point": "239 \u00b0C", "Melting Point": "-38 \u00b0C", "Density": "1.0254 g/cm\u00b3 @ Temp: 25 \u00b0C"}}