{"cas_no": "111-24-0", "cn_name": "1,5-\u4e8c\u6eb4\u620a\u70f7", "en_name": ["1,5-Dibromopentane", "Pentane, 1,5-dibromo-", "1,5-Dibromopentane", "Pentamethylene bromide", "Pentamethylene dibromide", "1,5-Pentanedibromide", "NSC 5373"], "SMILES": "C(CCBr)CCBr", "physical_data": {"Molecular Weight": "229.94", "Molecular Formula": "C5H10Br2", "Boiling Point": "222.3 \u00b0C", "Melting Point": "-39.5 \u00b0C", "Density": "1.703 g/cm\u00b3 @ Temp: 16 \u00b0C"}}