{"cas_no": "111-30-8", "cn_name": "\u620a\u4e8c\u919b", "en_name": ["Glutaraldehyde", "Pentanedial", "Glutaraldehyde", "Glutardialdehyde", "Glutaric dialdehyde", "Glutaric acid dialdehyde", "Glutaral", "1,5-Pentanedial", "Sonacide", "Hospex", "Aldesan", "Glutarex 28", "Relugan GT", "Relugan GT 50", "Sporicidin", "Cidex 7", "Ucarcide 250", "Relugan GTW", "Glutaclean", "Sterihyde", "Bactron K 31", "Sterihyde L", "Cidex-Dialyzer", "Tret-O-Lite XC 102", "Biomate 743", "Glutohyde", "Banicide", "Panavirocide", "Floperm 665X1", "Diglutaric aldehyde", "Cleancide 275", "Cidex", "Cidexplus", "Wavicide 01", "Piror 850", "Surcide G 50", "Glu-Cid", "Sellatan CF-N", "NSC 13392", "Aqucar 550", "Venno-FF super", "Sterisol S", "Kcide 850", "Permachem OB 5", "Biocide G 30", "Metricide Plus", "Maxicide Plus", "5-Oxopentanal", "Bioban Eth 1000", "T 352", "Eimaldehyde", "KS 02", "Formula H", "Ukatan 24", "Protectol GA 50", "Odycide B 310", "Ucarcide 50", "Ucarcide 50 Antimicrobial", "Ucarcide 250 Antimicrobial", "GT 50", "G 6257", "NovaCide 1125", "Aqucar GA 50"], "SMILES": "C(CC=O)CC=O", "physical_data": {"Molecular Weight": "100.12", "Molecular Formula": "C5H8O2", "Boiling Point": "71-72 \u00b0C @ Press: 10 Torr", "Melting Point": "-14 \u00b0C", "Density": "0.72 g/cm\u00b3"}}