{"cas_no": "111-42-2", "cn_name": "\u4e8c\u4e59\u9187\u80fa", "en_name": ["Diethanolamine", "Ethanol, 2,2\u2032-iminobis-", "Ethanol, 2,2\u2032-iminodi-", "2,2\u2032-Iminobis[ethanol]", "Diethanolamine", "2,2\u2032-Dihydroxydiethylamine", "Di(2-hydroxyethyl)amine", "Bis(2-hydroxyethyl)amine", "2,2\u2032-Iminodi-1-ethanol", "Iminodiethanol", "2,2\u2032-Iminodiethanol", "N,N-Diethanolamine", "Diolamine", "2-[(2-Hydroxyethyl)amino]ethanol", "N,N-Bis(2-hydroxyethyl)amine", "Bis(hydroxyethyl)amine", "Di(\u03b2-hydroxyethyl)amine", "Niax DEOA-LF", "Dabco DEOA-LF", "NSC 4959", "DEA 80", "DEAO-LF", "N,N-Di(2-hydroxyethyl)amine", "Diethanolamine 80", "Tegoamin DEOA 85", "DEOA LF", "2,2\u2032-Azanediyldiethanol", "2,2\u2032-Azanediylbis(ethanol)", "D 5230", "DEOA", "2-[(2-Hydroxyethyl)amino]ethan-1-ol", "Tegoamin DEOA", "S 0376"], "SMILES": "N(CCO)CCO", "physical_data": {"Molecular Weight": "105.14", "Molecular Formula": "C4H11NO2", "Boiling Point": "268.8 \u00b0C @ Press: 760 Torr", "Melting Point": "28 \u00b0C", "Density": "1.0966 g/cm\u00b3 @ Temp: 20 \u00b0C"}}