{"cas_no": "111-47-7", "cn_name": "\u4e8c\u4e19\u786b\u919a", "en_name": ["Propyl sulfide", "Propane, 1,1\u2032-thiobis-", "Propyl sulfide", "1,1\u2032-Thiobis[propane]", "Dipropyl sulfide", "Dipropyl thioether", "4-Thiaheptane", "Propyl monosulfide", "Di-n-propyl sulfide", "n-Propyl sulfide", "Di-n-propyl thioether", "NSC 78429", "1-Propylsulfanyl-propane", "1-(Propylsulfanyl)propane"], "SMILES": "S(CCC)CCC", "physical_data": {"Molecular Weight": "118.24", "Molecular Formula": "C6H14S", "Boiling Point": "142.9 \u00b0C", "Melting Point": "-102.5 \u00b0C", "Density": "0.83762 g/cm\u00b3 @ Temp: 20 \u00b0C"}}