{"cas_no": "111-19-3", "cn_name": "\u7678\u4e8c\u9170\u6c2f", "en_name": ["Sebacoyl chloride", "Decanedioyl dichloride", "Sebacoyl chloride", "Sebacoyl dichloride", "Sebacyl chloride", "Decanedioyl chloride", "Sebacic acid dichloride", "Sebacic acid chloride", "Sebacic dichloride", "Decanedioic dichloride", "Decanedioic acid dichloride", "NSC 56763"], "SMILES": "C(CC(Cl)=O)CCCCCCC(Cl)=O", "physical_data": {"Molecular Weight": "239.14", "Molecular Formula": "C10H16Cl2O2", "Boiling Point": "152 \u00b0C @ Press: 12 Torr", "Melting Point": "-2.5 \u00b0C", "Density": "1.1375 g/cm\u00b3 @ Temp: 0 \u00b0C"}}