{"cas_no": "111-55-7", "cn_name": "\u4e59\u4e8c\u9187\u4e8c\u4e59\u9178\u916f", "en_name": ["Glycol diacetate", "1,2-Ethanediol, 1,2-diacetate", "Ethylene glycol, diacetate", "1,2-Ethanediol, diacetate", "Ethylene acetate", "Ethylene diacetate", "Glycol diacetate", "1,2-Diacetoxyethane", "Ethanediol diacetate", "Ethylene diethanoate", "Aptex Donor H-plus", "NSC 8853", "Novaset NH", "Novaset NH Medium Hardener", "1,2-Ethanediyl diacetate", "Ethylene glycol diacetate", "EGDA", "S 2000", "2-Acetyloxyethyl acetate", "2-(Acetyloxy)ethyl acetate", "Flodur 3"], "SMILES": "C(COC(C)=O)OC(C)=O", "physical_data": {"Molecular Weight": "146.14", "Molecular Formula": "C6H10O4", "Boiling Point": "190-191 \u00b0C", "Melting Point": "-31 \u00b0C", "Density": "1.104 g/cm\u00b3"}}