{"cas_no": "111-29-5", "cn_name": "1,5-\u620a\u4e8c\u9187", "en_name": ["1,5-Pentanediol", "1,5-Pentanediol", "1,5-Dihydroxypentane", "Pentamethylene glycol", "1,5-Pentamethylene glycol", "Pentylene glycol", "\u03b1,\u03c9-Pentanediol", "\u03c9-Pentanediol", "NSC 5927", "Microcare Emollient PTG", "TK 5", "Dermosoft Pentiol Eco", "Cosphaderm Pentiol natural"], "SMILES": "C(CCO)CCO", "physical_data": {"Molecular Weight": "104.15", "Molecular Formula": "C5H12O2", "Boiling Point": "239 \u00b0C", "Melting Point": "-18 \u00b0C", "Density": "0.9939 g/cm\u00b3 @ Temp: 20 \u00b0C"}}