{"cas_no": "111-28-4", "cn_name": "\u53cd\u5f0f-2,4-\u5df2\u4e8c\u70ef-1-\u9187", "en_name": ["2,4-Hexadien-1-ol", "2,4-Hexadien-1-ol", "Hexacose", "Hexakose", "1-Hydroxy-2,4-hexadiene", "n-Hex-2,4-dien-1-ol", "2,4-Hexadienol"], "SMILES": "C(C=CC)=CCO", "physical_data": {"Molecular Weight": "98.14", "Molecular Formula": "C6H10O", "Boiling Point": "77-78 \u00b0C", "Melting Point": "30.5 \u00b0C", "Density": "0.8967 g/cm\u00b3 @ Temp: 23 \u00b0C"}}