{"cas_no": "111-36-4", "cn_name": "\u5f02\u6c30\u9178\u6b63\u4e01\u916f", "en_name": ["Butyl isocyanate", "Butane, 1-isocyanato-", "Isocyanic acid, butyl ester", "1-Isocyanatobutane", "Butyl isocyanate", "n-Butyl isocyanate"], "SMILES": "C(CCC)N=C=O", "physical_data": {"Molecular Weight": "99.13", "Molecular Formula": "C5H9NO", "Boiling Point": "115 \u00b0C", "Melting Point": "&lt;-70 \u00b0C", "Density": "0.9 g/cm\u00b3"}}