{"cas_no": "111-78-4", "cn_name": "1,5-\u73af\u8f9b\u4e8c\u7a00", "en_name": ["1,5-Cyclooctadiene", "1,5-Cyclooctadiene", "1,5-COD", "COD", "NSC 60155", "cis-1,5-Cyclooctadiene"], "SMILES": "C1CC=CCCC=C1", "physical_data": {"Molecular Weight": "108.18", "Molecular Formula": "C8H12", "Boiling Point": "150.8 \u00b0C @ Press: 757 Torr", "Melting Point": "-70--69 \u00b0C", "Density": "0.8818 g/cm\u00b3 @ Temp: 25 \u00b0C"}}