{"cas_no": "111-15-9", "cn_name": "\u4e59\u4e8c\u9187\u4e59\u919a\u918b\u9178\u916f", "en_name": ["Glycol monoethyl ether acetate", "Ethanol, 2-ethoxy-, 1-acetate", "Ethanol, 2-ethoxy-, acetate", "\u03b2-Ethoxyethyl acetate", "2-Ethoxyethyl acetate", "Ethylene glycol ethyl ether acetate", "Ethylene glycol monoethyl ether acetate", "Glycol monoethyl ether acetate", "Poly-Solv EE acetate", "Cellosolve acetate", "O-Ethylglycol acetate", "Oxitol acetate", "2-Ethoxyethanol acetate", "Ethyl cellosolve acetate", "Ethylene glycol monoethyl ether monoacetate", "1-Acetoxy-2-ethoxyethane", "Ethylene glycol acetate monoethyl ether", "NSC 8658", "2-Ethyloxyethyl acetate", "Ethyl glycol acetate"], "SMILES": "C(OC(C)=O)COCC", "physical_data": {"Molecular Weight": "132.16", "Molecular Formula": "C6H12O3", "Boiling Point": "156 \u00b0C", "Melting Point": "-61.7 \u00b0C", "Density": "0.975 g/cm\u00b3 @ Temp: 20 \u00b0C"}}