{"cas_no": "111-92-2", "cn_name": "\u4e8c\u6b63\u4e01\u80fa", "en_name": ["Dibutylamine", "1-Butanamine, N-butyl-", "Dibutylamine", "N-Butyl-1-butanamine", "Di-n-butylamine", "N,N-Di-n-butylamine", "N,N-Dibutylamine", "n-Dibutylamine"], "SMILES": "N(CCCC)CCCC", "physical_data": {"Molecular Weight": "129.24", "Molecular Formula": "C8H19N", "Boiling Point": "159-160 \u00b0C", "Melting Point": "-60--59 \u00b0C", "Density": "0.7601 g/cm\u00b3 @ Temp: 20 \u00b0C"}}