{"cas_no": "111-20-6", "cn_name": "\u7678\u4e8c\u9178", "en_name": ["Sebacic acid", "Decanedioic acid", "Sebacic acid", "1,8-Octanedicarboxylic acid", "1,10-Decanedioic acid", "n-Decanedioic acid", "NSC 19492", "NSC 97405"], "SMILES": "C(CC(O)=O)CCCCCCC(O)=O", "physical_data": {"Molecular Weight": "202.25", "Molecular Formula": "C10H18O4", "Boiling Point": "294.5 \u00b0C", "Melting Point": "130.8 \u00b0C", "Density": "1.231 g/cm\u00b3"}}