{"cas_no": "111-63-7", "cn_name": "\u786c\u8102\u9178\u916f\u4e59\u70ef\u57fa", "en_name": ["Vinyl stearate", "Octadecanoic acid, ethenyl ester", "Stearic acid, vinyl ester", "Vinyl stearate", "Vinyl octadecanoate", "NSC 20891", "NSC 5641"], "SMILES": "C(CCCCCCCCCCCCCCC)CC(OC=C)=O", "physical_data": {"Molecular Weight": "310.51", "Molecular Formula": "C20H38O2", "Boiling Point": "167 \u00b0C", "Melting Point": "36.5-37.0 \u00b0C", "Density": "0.8521 g/cm\u00b3 @ Temp: 30 \u00b0C"}}