{"cas_no": "111-82-0", "cn_name": "\u6708\u6842\u9178\u7532\u916f", "en_name": ["Methyl laurate", "Dodecanoic acid, methyl ester", "Lauric acid, methyl ester", "Metholene 2296", "Methyl dodecanoate", "Methyl laurate", "Methyl laurinate", "Uniphat A 40", "Methyl dodecylate", "Methyl n-dodecanoate", "Stepan C 40", "CE 1295", "Pastell M 12", "Emery 2296", "Texaprint SDM 100", "CE 1290", "Edenor ME-C 1298-100", "NSC 5027", "Agnique ME 1270U", "Agnique ME 1290", "Agnique ME 1298", "Exceparl ML 85", "Radia 7118"], "SMILES": "C(CCC(OC)=O)CCCCCCCC", "physical_data": {"Molecular Weight": "214.34", "Molecular Formula": "C13H26O2", "Boiling Point": "267 \u00b0C", "Melting Point": "5.2 \u00b0C", "Density": "0.8702 g/cm\u00b3 @ Temp: 20 \u00b0C"}}