{"cas_no": "111-12-6", "cn_name": "\u8f9b\u9178\u7532\u916f", "en_name": ["Methyl 2-octynoate", "2-Octynoic acid, methyl ester", "Folione", "Methyl 2-octynoate", "Vert de violette, artificial", "Methyl 2-octynate", "Methyl pentylacetylenecarboxylate", "NSC 72098"], "SMILES": "C(#CC(OC)=O)CCCCC", "physical_data": {"Molecular Weight": "154.21", "Molecular Formula": "C9H14O2", "Boiling Point": "78 \u00b0C @ Press: 4 Torr"}}