{"cas_no": "111-17-1", "cn_name": "\u786b\u4ee3\u4e8c\u4e19\u9178", "en_name": ["Thiodipropionic acid", "Propanoic acid, 3,3\u2032-thiobis-", "Propionic acid, 3,3\u2032-thiodi-", "3,3\u2032-Thiobis[propanoic acid\\]", "Diethyl sulfide 2,2\u2032-dicarboxylic acid", "TDPA", "4-Thiaheptanedioic acid", "Thiodihydracrylic acid", "\u03b2,\u03b2\u2032-Thiodipropionic acid", "3,3\u2032-Thiodipropionic acid", "Tyox A", "Thiodipropionic acid", "3,3\u2032-Thiodipropanoic acid", "Bis(2-carboxyethyl) sulfide", "NSC 65523", "NSC 8166", "Antioxidant 39620", "3-[(2-Carboxyethyl)sulfanyl]propanoic acid"], "SMILES": "C(CC(O)=O)SCCC(O)=O", "physical_data": {"Molecular Weight": "178.21", "Molecular Formula": "C6H10O4S", "Melting Point": "134 \u00b0C"}}