{"cas_no": "111-86-4", "cn_name": "\u6b63\u8f9b\u80fa", "en_name": ["Octylamine", "1-Octanamine", "Octylamine", "n-Octylamine", "Armeen 8", "Armeen 8D", "Caprylylamine", "1-Aminooctane", "1-Octylamine", "Monooctylamine", "Octanamine", "Farmin 08D", "NSC 9824", "Amine OD", "Genamin 8R", "Octan-1-amine", "Lipomin 8D"], "SMILES": "C(CCCC)CCCN", "physical_data": {"Molecular Weight": "129.24", "Molecular Formula": "C8H19N", "Boiling Point": "179.6 \u00b0C", "Melting Point": "0 \u00b0C", "Density": "0.8058 g/cm\u00b3 @ Temp: 20 \u00b0C"}}