{"cas_no": "111-79-5", "cn_name": "2-\u58ec\u70ef\u9178\u7532\u916f", "en_name": ["Methyl 2-nonenoate", "2-Nonenoic acid, methyl ester", "Methyl 2-nonenoate", "Neofolione", "NSC 76416"], "SMILES": "C(C=CC(OC)=O)CCCCC", "physical_data": {"Molecular Weight": "170.25", "Molecular Formula": "C10H18O2", "Boiling Point": "108-109 \u00b0C @ Press: 12 Torr"}}