{"cas_no": "111-84-2", "cn_name": "\u6b63\u58ec\u70f7", "en_name": ["Nonane", "Nonane", "n-Nonane", "Shellsol 140", "NSC 72430", "Nonane-5-C12"], "SMILES": "C(CCCC)CCCC", "physical_data": {"Molecular Weight": "128.26", "Molecular Formula": "C9H20", "Boiling Point": "150.8 \u00b0C @ Press: 760 Torr", "Melting Point": "-51 \u00b0C", "Density": "0.7176 g/cm\u00b3 @ Temp: 20 \u00b0C"}}