{"cas_no": "111-87-5", "cn_name": "\u8f9b\u9187", "en_name": ["1-Octanol", "1-Octanol", "Octyl alcohol", "Caprylic alcohol", "Heptyl carbinol", "n-Octanol", "n-Octyl alcohol", "Sipol L8", "Alfol 8", "Octanol", "Octilin", "n-Octan-1-ol", "1-Hydroxyoctane", "CO 898", "CO 898 (solvent)", "NSC 9823", "Lorol C 8-98", "Kalcohl 0898", "Kalcol 0898", "Caprylyl alcohol", "MeSH ID: D020003"], "SMILES": "C(CCCC)CCCO", "physical_data": {"Molecular Weight": "130.23", "Molecular Formula": "C8H18O", "Boiling Point": "194-195 \u00b0C", "Melting Point": "-17--16 \u00b0C", "Density": "0.827 g/cm\u00b3 @ Temp: 20 \u00b0C"}}