{"cas_no": "111-62-6", "cn_name": "\u6cb9\u9178\u4e59\u916f", "en_name": ["Ethyl oleate", "9-Octadecenoic acid (9Z)-, ethyl ester", "9-Octadecenoic acid (Z)-, ethyl ester", "Oleic acid, ethyl ester", "Ethyl oleate", "Ethyl cis-9-octadecenoate", "Esterol 123", "Crodamol EO", "Nikkol EOO", "Nofable EO 99", "Ethyl (Z)-9-octadecenoate", "Clearbright E 81S", "Ethyl (9Z)-octadecenoate", "Aethylis oleas", "Nofable EO 85S"], "SMILES": "C(CCCCCC=CCCCCCCCC)CC(OCC)=O", "physical_data": {"Molecular Weight": "310.51", "Molecular Formula": "C20H38O2", "Boiling Point": "195-200 \u00b0C @ Press: 10 Torr", "Melting Point": "-24.3 \u00b0C", "Density": "0.8842 g/cm\u00b3 @ Temp: 27 \u00b0C"}}