{"cas_no": "111-06-8", "cn_name": "\u5341\u516d\u70f7\u9178\u4e01\u57fa\u916f", "en_name": ["Butyl palmitate", "Hexadecanoic acid, butyl ester", "Palmitic acid, butyl ester", "n-Butyl hexadecanoate", "Butyl palmitate", "n-Butyl palmitate", "Butyl hexadecanoate", "NSC 4815", "Palmitic acid n-butyl ester"], "SMILES": "C(CC(OCCCC)=O)CCCCCCCCCCCCC", "physical_data": {"Molecular Weight": "312.53", "Molecular Formula": "C20H40O2", "Melting Point": "16.9 \u00b0C"}}