{"cas_no": "111-69-3", "cn_name": "\u5df1\u4e8c\u8148", "en_name": ["Adiponitrile", "Hexanedinitrile", "Adiponitrile", "Adipic acid dinitrile", "1,4-Dicyanobutane", "Adipodinitrile", "Adipic acid nitrile", "Adipic dinitrile", "NSC 7617", "Butanedicarbonitrile"], "SMILES": "C(CCC#N)CC#N", "physical_data": {"Molecular Weight": "108.14", "Molecular Formula": "C6H8N2", "Boiling Point": "295 \u00b0C @ Press: 760 Torr", "Melting Point": "1-3 \u00b0C", "Density": "0.9676 g/cm\u00b3 @ Temp: 20 \u00b0C"}}