{"cas_no": "111-83-1", "cn_name": "1-\u6eb4\u8f9b\u70f7", "en_name": ["1-Bromooctane", "Octane, 1-bromo-", "1-Bromooctane", "Octyl bromide", "n-Octyl bromide", "1-Octylbromide", "NSC 9821", "8-Bromooctane"], "SMILES": "C(CCCBr)CCCC", "physical_data": {"Molecular Weight": "193.12", "Molecular Formula": "C8H17Br", "Boiling Point": "200 \u00b0C", "Melting Point": "-55 \u00b0C", "Density": "1.13312 g/cm\u00b3 @ Temp: 0 \u00b0C"}}