{"cas_no": "111-64-8", "cn_name": "\u8f9b\u9170\u6c2f", "en_name": ["Octanoyl chloride", "Octanoyl chloride", "Capryloyl chloride", "n-Octanoyl chloride", "Caprylic acid chloride", "Octanoic chloride", "Octanoic acid chloride", "1-Octanoic acid chloride", "Octanoic acid, anhydride with carbonochloridic acid"], "SMILES": "C(CCCCC)CC(Cl)=O", "physical_data": {"Molecular Weight": "162.66", "Molecular Formula": "C8H15ClO", "Boiling Point": "195.6 \u00b0C", "Melting Point": "-63 \u00b0C", "Density": "0.985 g/cm\u00b3 @ Temp: 20 \u00b0C"}}