{"cas_no": "111-48-8", "cn_name": "\u786b\u4ee3\u4e8c\u7518\u9187", "en_name": ["Thiodiglycol", "Ethanol, 2,2\u2032-thiobis-", "Ethanol, 2,2\u2032-thiodi-", "2,2\u2032-Thiobis[ethanol]", "Bis(2-hydroxyethyl) sulfide", "\u03b2,\u03b2\u2032-Dihydroxydiethyl sulfide", "\u03b2,\u03b2\u2032-Dihydroxyethyl sulfide", "Bis(\u03b2-hydroxyethyl) sulfide", "Kromfax Solvent", "2,2\u2032-Thiodiethanol", "Thiodiethylene glycol", "Thiodiglycol", "\u03b2-Thiodiglycol", "Di(2-hydroxyethyl) sulfide", "Bis(2-hydroxyethyl) thioether", "2,2\u2032-Thiodiglycol", "Tedegyl", "Diethanol sulfide", "3-Thiapentane-1,5-diol", "2,2\u2032-Dihydroxydiethyl sulfide", "NSC 6289", "1,5-Dihydroxy-3-thiapentane", "2-(2-Hydroxyethylthio)ethanol", "Di(2-hydroxyethyl) thioether", "Thiodiglycol HP", "2-[(2-Hydroxyethyl)sulfanyl]ethan-1-ol"], "SMILES": "S(CCO)CCO", "physical_data": {"Molecular Weight": "122.19", "Molecular Formula": "C4H10O2S", "Boiling Point": "282 \u00b0C", "Melting Point": "-10.2 \u00b0C", "Density": "1.1819 g/cm\u00b3 @ Temp: 20 \u00b0C"}}