{"cas_no": "111-35-3", "cn_name": "1,3-\u4e19\u4e8c\u9187\u5355\u4e59\u919a", "en_name": ["3-Ethoxy-1-propanol", "1-Propanol, 3-ethoxy-", "3-Ethoxy-1-propanol", "3-Ethoxypropanol", "NSC 78799", "3-Ethoxy-2-propyl alcohol"], "SMILES": "C(CCO)OCC", "physical_data": {"Molecular Weight": "104.15", "Molecular Formula": "C5H12O2", "Boiling Point": "59-60 \u00b0C @ Press: 12 Torr", "Melting Point": "160.5 \u00b0C"}}