{"cas_no": "111-40-0", "cn_name": "\u4e8c\u4e59\u70ef\u4e09\u80fa", "en_name": ["Diethylenetriamine", "1,2-Ethanediamine, N1-(2-aminoethyl)-", "Diethylenetriamine", "1,2-Ethanediamine, N-(2-aminoethyl)-", "N1-(2-Aminoethyl)-1,2-ethanediamine", "3-Azapentane-1,5-diamine", "Bis(\u03b2-aminoethyl)amine", "2,2\u2032-Diaminodiethylamine", "Bis(2-aminoethyl)amine", "N,N-Bis(2-aminoethyl)amine", "1,4,7-Triazaheptane", "1,5-Diamino-3-azapentane", "N-(2-Aminoethyl)-1,2-ethanediamine", "ChS-P 1", "N-(2-Aminoethyl)ethylenediamine", "2,2\u2032-Iminobis(ethanamine)", "2-(2-Aminoethylamino)ethylamine", "DEH 20", "H 9506", "Ancamine DETA", "Epon 3223", "Epicure T", "DETA", "NSC 446", "NCI 138881", "Epicure 3223", "JER Cure T", "JER-T", "Epicure 3290", "P 11 (crosslinking agent)", "P 11", "3-Azapentanediyl-1,5-diamine", "D 93856", "ChS-P 11", "FS-B 412", "Epikure 3223", "N1-(2-Aminoethyl)ethane-1,2-diamine", "Amosil 4H", "D 1551", "Aradur HY 950BR", "ChS Hardener P 11"], "SMILES": "N(CCN)CCN", "physical_data": {"Molecular Weight": "103.17", "Molecular Formula": "C4H13N3", "Boiling Point": "207 \u00b0C @ Press: 760 Torr", "Melting Point": "-39 \u00b0C", "Density": "0.9586 g/cm\u00b3 @ Temp: 20 \u00b0C"}}