{"cas_no": "111-45-5", "cn_name": "\u70ef\u4e19\u57fa\u7f9f\u4e59\u57fa\u919a", "en_name": ["Ethylene glycol monoallyl ether", "Ethanol, 2-(2-propen-1-yloxy)-", "Ethanol, 2-(allyloxy)-", "Ethanol, 2-(2-propenyloxy)-", "2-(2-Propen-1-yloxy)ethanol", "Allyl Cellosolve", "2-(Allyloxy)ethanol", "Ethylene glycol allyl ether", "Allyl 2-hydroxyethyl ether", "6-Hydroxy-4-oxa-1-hexene", "Ethylene glycol monoallyl ether", "2-(2-Propenyloxy)ethanol", "Hydroxyethyl allyl ether", "Lioxasol", "2-Hydroxyethyl allyl ether", "NSC 32614", "Allyl monoethoxylate", "Allyl alcohol monoethoxylate", "Hansa ADD 4035", "2-(Prop-2-en-1-yloxy)ethan-1-ol", "2-Prop-2-enoxyethanol"], "SMILES": "O(CC=C)CCO", "physical_data": {"Molecular Weight": "102.13", "Molecular Formula": "C5H10O2", "Boiling Point": "158.5 \u00b0C", "Density": "0.958 g/cm\u00b3 @ Temp: 20 \u00b0C"}}