{"cas_no": "111-67-1", "cn_name": "2-\u8f9b\u70ef(\u987a\u53cd\u6df7\u5408)", "en_name": ["2-Octene", "2-Octene", "NSC 66572"], "SMILES": "C(CC=CC)CCC", "physical_data": {"Molecular Weight": "112.21", "Molecular Formula": "C8H16", "Boiling Point": "124 \u00b0C", "Melting Point": "-80 \u00b0C", "Density": "0.725 g/cm\u00b3 @ Temp: 20 \u00b0C"}}