{"cas_no": "111-97-7", "cn_name": "\u786b\u4ee3\u4e19\u4e8c\u8148", "en_name": ["3,3\u2032-Thiodipropionitrile", "Propanenitrile, 3,3\u2032-thiobis-", "Propionitrile, 3,3\u2032-thiodi-", "3,3\u2032-Thiobis[propanenitrile]", "Di(2-cyanoethyl) sulfide", "3,3\u2032-Thiodipropionitrile", "\u03b2,\u03b2\u2032-Dicyanodiethyl sulfide", "Bis(2-cyanoethyl) sulfide", "Thiodipropionitrile", "2-Cyanoethyl sulfide", "\u03b2,\u03b2\u2032-Thiodipropionitrile", "NSC 2040", "NSC 39638", "NSC 46434", "4-Thia-1,7-heptanedinitrile", "3-[(2-Cyanoethyl)sulfanyl]propanenitrile", "3,3\u2032-Thiodipropiononitrile"], "SMILES": "S(CCC#N)CCC#N", "physical_data": {"Molecular Weight": "140.21", "Molecular Formula": "C6H8N2S", "Boiling Point": "179-180 \u00b0C @ Press: 3 Torr", "Melting Point": "24-25 \u00b0C", "Density": "1.24 g/cm\u00b3"}}