{"cas_no": "111-32-0", "cn_name": "4-\u7532\u6c27\u57fa-1-\u4e01\u9187", "en_name": ["4-Methoxy-1-butanol", "1-Butanol, 4-methoxy-", "4-Methoxy-1-butanol", "Dowanol BMAT", "4-Methoxybutyl alcohol", "NSC 245191"], "SMILES": "C(CCO)COC", "physical_data": {"Molecular Weight": "104.15", "Molecular Formula": "C5H12O2", "Boiling Point": "124-125 \u00b0C @ Press: 13 Torr", "Density": "0.9954 g/cm\u00b3 @ Temp: 18 \u00b0C"}}