{"cas_no": "111-50-2", "cn_name": "\u5df1\u4e8c\u9170\u6c2f", "en_name": ["Adipoyl chloride", "Hexanedioyl dichloride", "Adipoyl chloride", "Adipic acid dichloride", "Adipyl chloride", "Adipoyl dichloride", "1,4-Bis(chlorocarbonyl)butane", "Hexanedioic acid dichloride", "Hexanedioic dichloride", "Adipyl dichloride", "Adipoyl dichloride-N,N\u2032-Bis-(2-hydroxyethyl)-1,4,5,8-naphthalenetetracarboxylic diimide copolymer"], "SMILES": "C(CCC(Cl)=O)CC(Cl)=O", "physical_data": {"Molecular Weight": "183.03", "Molecular Formula": "C6H8Cl2O2", "Boiling Point": "126 \u00b0C", "Melting Point": "262-264 \u00b0C"}}