{"cas_no": "111-89-7", "cn_name": "1,5-\u4e8c\u7532\u6c27\u57fa\u620a\u70f7", "en_name": ["1,5-Dimethoxypentane", "Pentane, 1,5-dimethoxy-", "1,5-Dimethoxypentane", "1,5-Pentanediol dimethyl ether", "2,8-Dioxanonane", "NSC 97204"], "SMILES": "C(CCOC)CCOC", "physical_data": {"Molecular Weight": "132.20", "Molecular Formula": "C7H16O2", "Boiling Point": "156-157 \u00b0C @ Press: 760 Torr", "Density": "0.854 g/cm\u00b3 @ Temp: 22 \u00b0C"}}