{"cas_no": "111-21-7", "cn_name": "\u4e09\u7518\u9187\u4e8c\u4e59\u9178\u916f", "en_name": ["1,8-Diacetoxy-3,6-dioxaoctane", "Ethanol, 2,2\u2032-[1,2-ethanediylbis(oxy)]bis-, 1,1\u2032-diacetate", "Triethylene glycol, diacetate", "Ethanol, 2,2\u2032-[1,2-ethanediylbis(oxy)]bis-, diacetate", "Triglycol diacetate", "Estol 1593", "NSC 2591", "1,8-Diacetoxy-3,6-dioxaoctane", "Clextral BC 21", "2-[2-(2-Acetyloxyethoxy)ethoxy]ethyl acetate"], "SMILES": "C(OC(C)=O)COCCOCCOC(C)=O", "physical_data": {"Molecular Weight": "234.25", "Molecular Formula": "C10H18O6", "Boiling Point": "286 \u00b0C", "Melting Point": "-50 \u00b0C", "Density": "1.112 g/cm\u00b3 @ Temp: 25 \u00b0C"}}