{"cas_no": "111-10-4", "cn_name": "\u5341\u516b\u70ef\u9178\u7532\u6c27\u57fa\u4e59\u916f", "en_name": ["9-Octadecenoic acid (9Z)-, 2-methoxyethyl ester", "9-Octadecenoic acid (9Z)-, 2-methoxyethyl ester", "Oleic acid, 2-methoxyethyl ester", "9-Octadecenoic acid (Z)-, 2-methoxyethyl ester", "Ethanol, 2-methoxy-, oleate", "Ethylene glycol monomethyl ether oleate", "Kapsolat", "Methoxyethyl oleate", "2-Methoxyethyl oleate", "NSC 403908"], "SMILES": "C(CC(OCCOC)=O)CCCCCC=CCCCCCCCC", "physical_data": {"Molecular Weight": "340.54", "Molecular Formula": "C21H40O3", "Boiling Point": "190-197 \u00b0C @ Press: 1.0 Torr", "Melting Point": "93.5-94.5 \u00b0C"}}