{"cas_no": "111-52-4", "cn_name": "\u53cd\u5f0f-N,N,N\u2032,N\u2032-\u56db\u7532\u57fa-2-\u4e01\u70ef-1,4-\u4e8c\u80fa", "en_name": ["(2E)-N1,N1,N4,N4-Tetramethyl-2-butene-1,4-diamine", "2-Butene-1,4-diamine, N1,N1,N4,N4-tetramethyl-, (2E)-", "2-Butene-1,4-diamine, N,N,N\u2032,N\u2032-tetramethyl-, (E)-", "2-Butene-1,4-diamine, N,N,N\u2032,N\u2032-tetramethyl-, (2E)-", "(2E)-N1,N1,N4,N4-Tetramethyl-2-butene-1,4-diamine", "trans-1,4-Bis(dimethylamino)-2-butene", "trans-N,N,N\u2032,N\u2032-Tetramethyl-2-butene-1,4-diamine"], "SMILES": "C(=CCN(C)C)CN(C)C", "physical_data": {"Molecular Weight": "142.24", "Molecular Formula": "C8H18N2", "Boiling Point": "171-172 \u00b0C @ Press: 735 Torr"}}