{"cas_no": "111-26-2", "cn_name": "\u6b63\u5df1\u80fa", "en_name": ["Hexylamine", "1-Hexanamine", "Hexylamine", "1-Aminohexane", "n-Hexylamine", "Mono-n-hexylamine", "1-Hexylamine", "ENT 16554", "NSC 2590", "1-Hexaneamine"], "SMILES": "C(CCC)CCN", "physical_data": {"Molecular Weight": "101.19", "Molecular Formula": "C6H15N", "Boiling Point": "131-132 \u00b0C", "Melting Point": "-22.9 \u00b0C", "Density": "0.77 g/cm\u00b3"}}