{"cas_no": "111-60-4", "cn_name": "\u4e59\u4e8c\u9187\u5355\u786c\u8102\u9178\u916f", "en_name": ["Glycol monostearate", "Octadecanoic acid, 2-hydroxyethyl ester", "Stearic acid, 2-hydroxyethyl ester", "Ethylene glycol, monostearate", "S 151", "Empilan 2848", "Ethylene glycol stearate", "Glycol monostearate", "Glycol stearate", "Ivorit", "Monthybase", "Monthyle", "Parastarin", "Prodhybas N", "Prodhybase ethyl", "Sedetol", "Tego-stearate", "2-Hydroxyethyl stearate", "Emerest 2350", "Tegin EGMS-VA", "Cutina EGMS", "Kessco EGMS", "Kessco EGMS 70", "Nikkol EGMS 70", "Emcol ES 50", "Stepan EGMS", "EGMS 70V", "Emalex EG-M-S"], "SMILES": "C(CCCCCCCCCCCCCCC)CC(OCCO)=O", "physical_data": {"Molecular Weight": "328.53", "Molecular Formula": "C20H40O3", "Boiling Point": "&gt;400 \u00b0C", "Melting Point": "60.5 \u00b0C"}}