{"cas_no": "111-74-0", "cn_name": "N N'-\u4e8c\u4e59\u57fa\u4e59\u4e8c\u80fa", "en_name": ["N,N\u2032-Diethylethylenediamine", "1,2-Ethanediamine, N1,N2-diethyl-", "Ethylenediamine, N,N\u2032-diethyl-", "1,2-Ethanediamine, N,N\u2032-diethyl-", "N1,N2-Diethyl-1,2-ethanediamine", "N,N\u2032-Diethyldiaminoethane", "N,N\u2032-Diethylethylenediamine", "N,N\u2032-Diethyl-1,2-ethanediamine", "N,N\u2032-Diethyl-1,2-diaminoethane", "1,2-Bis(ethylamino)ethane"], "SMILES": "C(CNCC)NCC", "physical_data": {"Molecular Weight": "116.20", "Molecular Formula": "C6H16N2", "Boiling Point": "146 \u00b0C"}}