{"cas_no": "111-95-5", "cn_name": "\u53cc\uff082-\u7532\u6c27\u4e59\u57fa\uff09\u80fa", "en_name": ["Bis(2-methoxyethyl)amine", "Ethanamine, 2-methoxy-N-(2-methoxyethyl)-", "Diethylamine, 2,2\u2032-dimethoxy-", "2-Methoxy-N-(2-methoxyethyl)ethanamine", "2,2\u2032-Dimethoxydiethylamine", "Bis(2-methoxyethyl)amine", "N,N-Bis(2-methoxyethyl)amine", "Di(2-methoxyethyl)amine", "NSC 78431"], "SMILES": "N(CCOC)CCOC", "physical_data": {"Molecular Weight": "133.19", "Molecular Formula": "C6H15NO2", "Boiling Point": "169-170 \u00b0C"}}