{"cas_no": "111-14-8", "cn_name": "\u5e9a\u9178", "en_name": ["Heptanoic acid", "Heptanoic acid", "Enanthic acid", "Enanthylic acid", "n-Heptoic acid", "Heptylic acid", "1-Hexanecarboxylic acid", "n-Heptylic acid", "Oenanthic acid", "Oenanthylic acid", "Heptoic acid", "n-Heptanoic acid", "NSC 2192", "Enanthoic acid"], "SMILES": "C(CC(O)=O)CCCC", "physical_data": {"Molecular Weight": "130.18", "Molecular Formula": "C7H14O2", "Boiling Point": "222.2 \u00b0C", "Melting Point": "-7.5 \u00b0C", "Density": "0.9181 g/cm\u00b3 @ Temp: 20 \u00b0C"}}