{"cas_no": "111-16-0", "cn_name": "\u5e9a\u4e8c\u9178", "en_name": ["Pimelic acid", "Heptanedioic acid", "Pimelic acid", "1,7-Heptanedioic acid", "1,5-Pentanedicarboxylic acid", "Pileric acid", "NSC 30112", "Pimeric acid"], "SMILES": "C(CC(O)=O)CCCC(O)=O", "physical_data": {"Molecular Weight": "160.17", "Molecular Formula": "C7H12O4", "Boiling Point": "342 \u00b0C", "Melting Point": "106 \u00b0C", "Density": "1.0119 g/cm\u00b3 @ Temp: 4 \u00b0C"}}