{"cas_no": "111-18-2", "cn_name": "N,N,N',N'-\u56db\u7532\u57fa-1,6-\u5df1\u4e8c\u80fa", "en_name": ["N,N,N\u2032,N\u2032-Tetramethyl-1,6-hexanediamine", "1,6-Hexanediamine, N1,N1,N6,N6-tetramethyl-", "1,6-Hexanediamine, N,N,N\u2032,N\u2032-tetramethyl-", "N1,N1,N6,N6-Tetramethyl-1,6-hexanediamine", "N,N,N\u2032,N\u2032-Tetramethyl-1,6-diaminohexane", "N,N,N\u2032,N\u2032-Tetramethyl-1,6-hexanediamine", "1,6-Bis(dimethylamino)hexane", "Hexamethylenebis(dimethylamine)", "2,9-Dimethyl-2,9-diazadecane", "N,N,N\u2032,N\u2032-Tetramethyl-1,6-hexamethylenediamine", "N,N,N\u2032,N\u2032-Tetramethylhexylenediamine", "Kaolizer 1", "Minico TMHD", "Toyocat MR", "U 1000 (amine)", "U 1000", "1,1,8,8-Tetramethyl-1,8-diazaoctane", "KL 1", "U-CAT 1000", "Kao. No. 1", "N,N,N\u2032,N\u2032-Tetramethyl-1,6-hexandiamine"], "SMILES": "C(CN(C)C)CCCCN(C)C", "physical_data": {"Molecular Weight": "172.31", "Molecular Formula": "C10H24N2", "Boiling Point": "209.5 \u00b0C", "Density": "0.8064 g/cm\u00b3 @ Temp: 14.5 \u00b0C"}}