{"cas_no": "111-94-4", "cn_name": "3,3'-\u4e9a\u80fa\u4e8c\u4e19\u8148", "en_name": ["3,3\u2032-Iminodipropionitrile", "Propanenitrile, 3,3\u2032-iminobis-", "Propionitrile, 3,3\u2032-iminodi-", "3,3\u2032-Iminobis[propanenitrile]", "BBCE", "N,N-Bis(2-cyanoethyl)amine", "Bis(\u03b2-cyanoethyl)amine", "Di(2-cyanoethyl)amine", "IDPN", "3,3\u2032-Iminodipropionitrile", "\u03b2,\u03b2\u2032-Iminodipropionitrile", "Ethanamine, 2-cyano-N-(2-cyanoethyl)-", "Bis(2-cyanoethyl)amine", "3,3\u2032-Iminobis(propionitrile)", "Iminobis(propionitrile)", "NSC 7770", "3-(2-Cyanoethylamino)propanenitrile", "3-(2-Cyano-ethylamino)propionitrile", "3,3\u2032-Iminodipropiononitrile"], "SMILES": "N(CCC#N)CCC#N", "physical_data": {"Molecular Weight": "123.16", "Molecular Formula": "C6H9N3", "Boiling Point": "173 \u00b0C @ Press: 10 Torr", "Melting Point": "-5.50 \u00b0C", "Density": "1.0165 g/cm\u00b3 @ Temp: 30 \u00b0C"}}