{"cas_no": "111-68-2", "cn_name": "\u6b63\u5e9a\u80fa", "en_name": ["Heptylamine", "1-Heptanamine", "Heptylamine", "n-Heptylamine", "1-Aminoheptane", "1-Heptylamine", "NSC 2074"], "SMILES": "C(CCCN)CCC", "physical_data": {"Molecular Weight": "115.22", "Molecular Formula": "C7H17N", "Boiling Point": "156 \u00b0C", "Melting Point": "-18 \u00b0C", "Density": "0.8073 g/cm\u00b3 @ Temp: 20 \u00b0C"}}