{"cas_no": "111-51-3", "cn_name": "N,N,N',N' - \u56db\u7532\u57fa-1,4-\u4e01\u4e8c\u80fa", "en_name": ["N1,N1,N4,N4-Tetramethyl-1,4-butanediamine", "1,4-Butanediamine, N1,N1,N4,N4-tetramethyl-", "1,4-Butanediamine, N,N,N\u2032,N\u2032-tetramethyl-", "N1,N1,N4,N4-Tetramethyl-1,4-butanediamine", "\u03b1,\u03b4-(Tetramethyldiamino)butane", "N,N,N\u2032,N\u2032-Tetramethyl-1,4-diaminobutane", "1,4-Bis(dimethylamino)butane", "N,N,N\u2032,N\u2032-Tetramethyl-1,4-butanediamine", "N,N,N\u2032,N\u2032-Tetramethylputrescine", "Tetramethylputrescine", "2,7-Dimethyl-2,7-diazaoctane", "N,N,N\u2032,N\u2032-Tetramethyltetramethylene-1,4-diamine", "N,N,N\u2032,N\u2032-Tetramethylbutylenediamine", "TMBDA", "TMDAB", "[4-(Dimethylamino)butyl]dimethylamine"], "SMILES": "C(CCN(C)C)CN(C)C", "physical_data": {"Molecular Weight": "144.26", "Molecular Formula": "C8H20N2", "Boiling Point": "168 \u00b0C", "Density": "0.8041 g/cm\u00b3 @ Temp: 18.9 \u00b0C"}}