{"cas_no": "111-70-6", "cn_name": "\u6b63\u5e9a\u9187", "en_name": ["1-Heptanol", "1-Heptanol", "Heptyl alcohol", "Enanthic alcohol", "n-Heptanol", "1-Hydroxyheptane", "n-Heptyl alcohol", "Gentanol", "n-Heptan-1-ol", "NSC 3703"], "SMILES": "C(CCCO)CCC", "physical_data": {"Molecular Weight": "116.20", "Molecular Formula": "C7H16O", "Boiling Point": "175.8 \u00b0C @ Press: 760 Torr", "Melting Point": "-34.6 \u00b0C", "Density": "0.8219 g/cm\u00b3 @ Temp: 20 \u00b0C"}}