{"cas_no": "111-27-3", "cn_name": "\u6b63\u5df1\u9187", "en_name": ["1-Hexanol", "1-Hexanol", "Hexyl alcohol", "Amylcarbinol", "Caproyl alcohol", "n-Hexanol", "1-Hydroxyhexane", "n-Hexyl alcohol", "Pentylcarbinol", "1-Hexyl alcohol", "Hexanol", "n-Hexan-1-ol", "Epal 6", "NSC 9254", "Kalcohl 0698", "Hexan-1-ol"], "SMILES": "C(CCC)CCO", "physical_data": {"Molecular Weight": "102.17", "Molecular Formula": "C6H14O", "Boiling Point": "157 \u00b0C @ Press: 760 Torr", "Melting Point": "-44.6 \u00b0C", "Density": "0.8153 g/cm\u00b3 @ Temp: 25 \u00b0C"}}