{"cas_no": "111080-65-0", "cn_name": "4-(BOC-\u6c28\u57fa\u7532\u57fa)\u5421\u5576", "en_name": ["1,1-Dimethylethyl N-(4-pyridinylmethyl)carbamate", "Carbamic acid, N-(4-pyridinylmethyl)-, 1,1-dimethylethyl ester", "Carbamic acid, (4-pyridinylmethyl)-, 1,1-dimethylethyl ester", "1,1-Dimethylethyl N-(4-pyridinylmethyl)carbamate", "[(Pyridin-4-yl)methyl]carbamic acid tert-butyl ester", "4-(tert-Butoxycarbonylamino)methylpyridine"], "SMILES": "C(NC(OC(C)(C)C)=O)C=1C=CN=CC1", "physical_data": {"Molecular Weight": "208.26", "Molecular Formula": "C11H16N2O2", "Melting Point": "70-75 \u00b0C"}}