{"cas_no": "111042-90-1", "cn_name": "3-\u6c28\u57fa\u567b\u5429[3,2-B]\u5421\u5576-2-\u7532\u9178\u7532\u916f", "en_name": ["Methyl 3-aminothieno[3,2-b]pyridine-2-carboxylate", "Thieno[3,2-b]pyridine-2-carboxylic acid, 3-amino-, methyl ester", "Methyl 3-aminothieno[3,2-b]pyridine-2-carboxylate", "3-Aminothieno[3,2-b]pyridine-2-carboxylic acid methyl ester"], "SMILES": "NC=1C=2C(SC1C(OC)=O)=CC=CN2", "physical_data": {"Molecular Weight": "208.24", "Molecular Formula": "C9H8N2O2S", "Melting Point": "122 \u00b0C"}}