{"cas_no": "1110-56-1", "cn_name": "DEACETYLSALANNIN", "en_name": ["Deacetylsalannin", "2H,3H-Cyclopenta[d\u2032]naphtho[1,8-bc:2,3-b\u2032]difuran-6-acetic acid, 8-(3-furanyl)-2a,4,5,5a,6,6a,8,9,9a,10a,10b,10c-dodecahydro-3-hydroxy-2a,5a,6a,7-tetramethyl-5-[[(2E)-2-methyl-1-oxo-2-buten-1-yl]oxy]-, methyl ester, (2aR,3R,5S,5aR,6R,6aR,8R,9aR,10aS,10bR,10cR)-", "2H,3H-Cyclopenta[d\u2032]naphtho[1,8-bc:2,3-b\u2032]difuran-6-acetic acid, 8\u03b1-(3-furyl)-2a,4,5,5a,6\u03b1,6a,8,9,9a\u03b1,10a\u03b2,10b\u03b2,10c\u03b1-dodecahydro-3\u03b1,5\u03b1-dihydroxy-2a\u03b2,5a\u03b2,6a\u03b2,7-tetramethyl-, methyl ester, 5-(2-methylcrotonate), (E)-(+)-", "2H,3H-Cyclopenta[d\u2032]naphtho[1,8-bc:2,3-b\u2032]difuran-6-acetic acid, 8-(3-furanyl)-2a,4,5,5a,6,6a,8,9,9a,10a,10b,10c-dodecahydro-3-hydroxy-2a,5a,6a,7-tetramethyl-5-[(2-methyl-1-oxo-2-butenyl)oxy]-, methyl ester, [2aR-[2a\u03b1,3\u03b2,5\u03b2(E),5a\u03b1,6\u03b1,6a\u03b1,8\u03b2,9a\u03b2,10a\u03b1,10b\u03b1,10c\u03b2]]-", "2H,3H-Cyclopenta[d\u2032]naphtho[1,8-bc:2,3-b\u2032]difuran-6-acetic acid, 8\u03b1-(3-furyl)-2a,4,5,5a,6\u03b1,6a,8,9,9a\u03b1,10a\u03b2,10b\u03b2,10c\u03b1-dodecahydro-3\u03b1,5\u03b1-dihydroxy-2a\u03b2,5a\u03b2,6a\u03b2,7-tetramethyl-, methyl ester, tiglate", "2H,3H-Cyclopenta[d\u2032]naphtho[1,8-bc:2,3-b\u2032]difuran-6-acetic acid, 8-(3-furanyl)-2a,4,5,5a,6,6a,8,9,9a,10a,10b,10c-dodecahydro-3-hydroxy-2a,5a,6a,7-tetramethyl-5-[[(2E)-2-methyl-1-oxo-2-butenyl]oxy]-, methyl ester, (2aR,3R,5S,5aR,6R,6aR,8R,9aR,10aS,10bR,10cR)-", "Crotonic acid, 2-methyl-, 5-ester with methyl 8\u03b1-(3-furyl)-2a,4,5,5a,6\u03b1,6a,8,9,9a\u03b1,10a\u03b2,10b\u03b2,10c\u03b1-dodecahydro-3\u03b1,5\u03b1-dihydroxy-2a\u03b2,5a\u03b2,6a\u03b2,7-tetramethyl-2H,3H-cyclopenta[d\u2032]naphtho[1,8-bc:2,3-b\u2032]difuran-6-acetate, (E)-(+)-", "3-Deacetylsalannin", "Deacetylsalannin", "Desacetylsalannin"], "SMILES": "CC12C3C(C4C(C)(C1CC(OC)=O)C=5C(O4)CC(C5C)C=6C=COC6)OCC3(C)C(O)CC2OC(C(=CC)C)=O", "physical_data": {"Molecular Weight": "554.67", "Molecular Formula": "C32H42O8", "Melting Point": "213-216 \u00b0C"}}