{"cas_no": "111047-54-2", "cn_name": "S-\u82ef\u57fa-(\u5bf9\u7532\u82ef\u78fa\u9170\u80fa\u57fa)-\u4e59\u9178\u7532\u916f", "en_name": ["Methyl (\u03b1S)-\u03b1-[[(4-methylphenyl)sulfonyl]amino]benzeneacetate", "Benzeneacetic acid, \u03b1-[[(4-methylphenyl)sulfonyl]amino]-, methyl ester, (\u03b1S)-", "Benzeneacetic acid, \u03b1-[[(4-methylphenyl)sulfonyl]amino]-, methyl ester, (S)-", "Methyl (\u03b1S)-\u03b1-[[(4-methylphenyl)sulfonyl]amino]benzeneacetate", "(S)-Methyl 2-(4-methylphenylsulfonamido)-2-phenylacetate"], "SMILES": "C(NS(=O)(=O)C1=CC=C(C)C=C1)(C(OC)=O)C2=CC=CC=C2", "physical_data": {"Molecular Weight": "319.38", "Molecular Formula": "C16H17NO4S", "Melting Point": "131-133 \u00b0C"}}