{"cas_no": "111011-63-3", "cn_name": "\u4f9d\u798f\u5730\u5e73", "en_name": ["Landel", "3-Pyridinecarboxylic acid, 5-(5,5-dimethyl-2-oxido-1,3,2-dioxaphosphorinan-2-yl)-1,4-dihydro-2,6-dimethyl-4-(3-nitrophenyl)-, 2-[phenyl(phenylmethyl)amino]ethyl ester", "3-Pyridinecarboxylic acid, 5-(5,5-dimethyl-1,3,2-dioxaphosphorinan-2-yl)-1,4-dihydro-2,6-dimethyl-4-(3-nitrophenyl)-, 2-[phenyl(phenylmethyl)amino]ethyl ester, P-oxide", "1,3,2-Dioxaphosphorinane, 3-pyridinecarboxylic acid deriv.", "Efonidipine", "(\u00b1)-Efonidipine", "Landel"], "SMILES": "C(OCCN(CC1=CC=CC=C1)C2=CC=CC=C2)(=O)C=3C(C(=C(C)NC3C)P4(=O)OCC(C)(C)CO4)C5=CC(N(=O)=O)=CC=C5", "physical_data": {"Molecular Weight": "631.66", "Molecular Formula": "C34H38N3O7P", "Melting Point": "169-170 \u00b0C"}}