{"cas_no": "111061-56-4", "cn_name": "Fmoc-O-\u4e09\u82ef\u7532\u57fa-L-\u4e1d\u6c28\u9178", "en_name": ["N-[(9H-Fluoren-9-ylmethoxy)carbonyl]-O-(triphenylmethyl)-L-serine", "L-Serine, N-[(9H-fluoren-9-ylmethoxy)carbonyl]-O-(triphenylmethyl)-", "N-[(9H-Fluoren-9-ylmethoxy)carbonyl]-O-(triphenylmethyl)-L-serine"], "SMILES": "C(OCC(NC(OCC1C=2C(C=3C1=CC=CC3)=CC=CC2)=O)C(O)=O)(C4=CC=CC=C4)(C5=CC=CC=C5)C6=CC=CC=C6", "physical_data": {"Molecular Weight": "569.65", "Molecular Formula": "C37H31NO5", "Melting Point": "195-197 \u00b0C"}}