{"cas_no": "1110813-31-4", "cn_name": "\u8fbe\u514b\u66ff\u5c3c", "en_name": ["Dacomitinib", "2-Butenamide, N-[4-[(3-chloro-4-fluorophenyl)amino]-7-methoxy-6-quinazolinyl]-4-(1-piperidinyl)-, (2E)-", "(2E)-N-[4-[(3-Chloro-4-fluorophenyl)amino]-7-methoxy-6-quinazolinyl]-4-(1-piperidinyl)-2-butenamide", "Dacomitinib", "PF 00299804", "PF 299804", "PF 299"], "SMILES": "N(C=1C2=C(C=C(OC)C(NC(C=CCN3CCCCC3)=O)=C2)N=CN1)C4=CC(Cl)=C(F)C=C4", "physical_data": {"Molecular Weight": "469.94", "Molecular Formula": "C24H25ClFN5O2", "Melting Point": "149-151 \u00b0C"}}