{"cas_no": "111035-65-5", "cn_name": "ANNONACIN", "en_name": ["(+)-Annonacin", "2(5H)-Furanone, 5-methyl-3-[(2R,8R,13R)-2,8,13-trihydroxy-13-[(2R,5R)-tetrahydro-5-[(1R)-1-hydroxytridecyl]-2-furanyl]tridecyl]-, (5S)-", "2(5H)-Furanone, 5-methyl-3-[2,8,13-trihydroxy-13-[tetrahydro-5-(1-hydroxytridecyl)-2-furanyl]tridecyl]-, [1R-[1\u03b1[1(S*),2R*,8R*,13R*],5\u03b2(R*)]]-", "(5S)-5-Methyl-3-[(2R,8R,13R)-2,8,13-trihydroxy-13-[(2R,5R)-tetrahydro-5-[(1R)-1-hydroxytridecyl]-2-furanyl]tridecyl]-2(5H)-furanone", "Annonacin", "(+)-Annonacin"], "SMILES": "C(CCCCC(CCCCCC(CC1=CC(C)OC1=O)O)O)(O)C2OC(C(CCCCCCCCCCCC)O)CC2", "physical_data": {"Molecular Weight": "596.88", "Molecular Formula": "C35H64O7", "Melting Point": "69-71 \u00b0C"}}