{"cas_no": "1111-74-6", "cn_name": "\u4e8c\u7532\u57fa\u7845\u70f7", "en_name": ["Dimethylsilane", "Silane, dimethyl-", "Dimethylsilane", "2-Silapropane"], "SMILES": "[SiH2](C)C", "physical_data": {"Molecular Weight": "60.17", "Molecular Formula": "C2H8Si", "Boiling Point": "-20 \u00b0C", "Melting Point": "-150 \u00b0C", "Density": "0.680 g/cm\u00b3 @ Temp: -20 \u00b0C"}}