{"cas_no": "11115-82-5", "cn_name": "\u6069\u62c9\u9709\u7d20", "en_name": ["Enduracidin", "Enduracidin", "Enramycin", "Enradin"], "SMILES": "", "physical_data": {"Molecular Weight": "", "Molecular Formula": "Unspecified", "Melting Point": "238-245 \u00b0C (decomp)"}}