{"cas_no": "1111-92-8", "cn_name": "\u4e8c\u7532\u57fa\u6c2f\u6c27\u5316\u78f7", "en_name": ["Phosphinic chloride, dimethyl-", "Phosphinic chloride, dimethyl-", "Dimethylphosphinic chloride", "Dimethylphosphinoyl chloride", "Chlorodimethylphosphine oxide", "Dimethylphosphinyl chloride", "[Chloro(methyl)phosphoryl]methane"], "SMILES": "P(C)(C)(Cl)=O", "physical_data": {"Molecular Weight": "112.50", "Molecular Formula": "C2H6ClOP", "Boiling Point": "202-204 \u00b0C", "Melting Point": "68-69 \u00b0C"}}