{"cas_no": "1111732-87-6", "cn_name": "4-\u5421\u5576\u57fa\u4e09\u6c1f\u787c\u9178\u94be", "en_name": ["Borate(1-), trifluoro-4-pyridinyl-, potassium (1:1), (T-4)-", "Borate(1-), trifluoro-4-pyridinyl-, potassium (1:1), (T-4)-", "Potassium 4-pyridyltrifluoroborate"], "SMILES": "[B+3]([F-])([F-])([F-])[C-]=1C=CN=CC1.[K+]", "physical_data": {"Molecular Weight": "", "Molecular Formula": "C5H4BF3N.K", "Melting Point": "&gt;200 \u00b0C"}}