{"cas_no": "11113-62-5", "cn_name": "\u6069\u9570\u5b62\u83cc\u7d20\u590d\u5408\u7269", "en_name": ["Enniatin", "Enniatin"], "SMILES": "", "physical_data": {"Molecular Weight": "", "Molecular Formula": "Unspecified", "Melting Point": "121-122 \u00b0C"}}