{"cas_no": "1111-97-3", "cn_name": "3-\u6c2f-3-\u7532\u57fa-1-\u4e01\u7094", "en_name": ["3-Chloro-3-methyl-1-butyne", "1-Butyne, 3-chloro-3-methyl-", "3-Chloro-3-methyl-1-butyne", "3-Methyl-3-chloro-1-butyne", "2-Chloro-2-methyl-3-butyne", "2-Methyl-2-chloro-3-butyne", "3-Chloro-3-methylbutyne", "\u03b1,\u03b1-Dimethylpropargyl chloride", "3-Methyl-3-chlorobutyne", "3-Methyl-1-butyn-3-yl chloride", "NSC 16173", "2-Methyl-3-butyn-2-yl chloride"], "SMILES": "C(C#C)(C)(C)Cl", "physical_data": {"Molecular Weight": "102.56", "Molecular Formula": "C5H7Cl", "Boiling Point": "76 \u00b0C", "Melting Point": "-61 \u00b0C", "Density": "0.013 g/cm\u00b3 @ Temp: 18 \u00b0C"}}