{"cas_no": "1112-67-0", "cn_name": "\u56db\u4e01\u57fa\u6c2f\u5316\u94f5", "en_name": ["Tetrabutylammonium chloride", "1-Butanaminium, N,N,N-tributyl-, chloride (1:1)", "Ammonium, tetrabutyl-, chloride", "Tetrabutylammonium chloride", "1-Butanaminium, N,N,N-tributyl-, chloride", "N,N,N-Tributyl-1-butanaminium chloride", "Tetra-n-butylammonium chloride", "TBAC", "TBAC 100", "TBACl"], "SMILES": "[N+](CCCC)(CCCC)(CCCC)CCCC.[Cl-]", "physical_data": {"Molecular Weight": "", "Molecular Formula": "C16H36N.Cl", "Melting Point": "52-54 \u00b0C"}}