{"cas_no": "111296-91-4", "cn_name": "5,12-\u4e8c\u6c22\u5432\u54da\u5e76[3,2-A]\u5494\u5511", "en_name": ["5,12-Dihydroindolo[3,2-a]carbazole", "Indolo[3,2-a]carbazole, 5,12-dihydro-", "5,12-Dihydroindolo[3,2-a]carbazole"], "SMILES": "C=12C3=C(C=4C(N3)=CC=CC4)C=CC1NC=5C2=CC=CC5", "physical_data": {"Molecular Weight": "256.30", "Molecular Formula": "C18H12N2", "Melting Point": "299-300 \u00b0C"}}