{"cas_no": "1112-39-6", "cn_name": "\u4e8c\u7532\u57fa\u4e8c\u7532\u6c27\u57fa\u7845\u70f7", "en_name": ["Dimethoxydimethylsilane", "Silane, dimethoxydimethyl-", "Dimethoxydimethylsilane", "Dimethyldimethoxysilane", "KBM 22", "TSL 8117", "AY 43-004", "TSL 8112", "LS 520", "NSC 93882", "DMDMOS", "Z 6329", "D 1052", "DP 321", "CG 112", "CG 112 (coupling agent)", "OFS 6194", "Xiameter OFS 6194", "FD 371", "KH 2121", "Dowsil Z 6329"], "SMILES": "[Si](OC)(OC)(C)C", "physical_data": {"Molecular Weight": "120.22", "Molecular Formula": "C4H12O2Si", "Boiling Point": "82 \u00b0C", "Melting Point": "-80 \u00b0C", "Density": "0.864 g/cm\u00b3"}}