{"cas_no": "1112-56-7", "cn_name": "\u56db\u4e59\u70ef\u57fa\u9521", "en_name": ["Tetraethenylstannane", "Stannane, tetraethenyl-", "Stannane, tetravinyl-", "Tin, tetravinyl-", "Tetraethenylstannane", "Tetravinyltin", "Tetravinylstannane"], "SMILES": "[Sn](C=C)(C=C)(C=C)C=C", "physical_data": {"Molecular Weight": "226.89", "Molecular Formula": "C8H12Sn", "Boiling Point": "160-163 \u00b0C", "Density": "1.257 g/cm\u00b3"}}