{"cas_no": "1112-54-5", "cn_name": "\u4e09\u4e59\u57fa\u4e59\u70ef\u57fa\u7845\u70f7", "en_name": ["Ethenyltriethylsilane", "Silane, ethenyltriethyl-", "Silane, triethylvinyl-", "Ethenyltriethylsilane", "Triethylvinylsilane", "Vinyltriethylsilane", "Triethylsilylethene", "(Ethenyl)triethylsilane"], "SMILES": "[Si](CC)(CC)(CC)C=C", "physical_data": {"Molecular Weight": "142.31", "Molecular Formula": "C8H18Si", "Boiling Point": "146-147 \u00b0C", "Density": "0.771 g/cm\u00b3"}}