{"cas_no": "111291-97-5", "cn_name": "4-\u4e59\u7094\u57fa\u82ef\u7532\u9178\u53d4\u4e01\u916f", "en_name": ["1,1-Dimethylethyl 4-ethynylbenzoate", "Benzoic acid, 4-ethynyl-, 1,1-dimethylethyl ester", "1,1-Dimethylethyl 4-ethynylbenzoate", "tert-Butyl 4-ethynylbenzoate"], "SMILES": "C(OC(C)(C)C)(=O)C1=CC=C(C#C)C=C1", "physical_data": {"Molecular Weight": "202.25", "Molecular Formula": "C13H14O2", "Melting Point": "71.5-72 \u00b0C"}}