{"cas_no": "1112-55-6", "cn_name": "\u56db\u4e59\u70ef\u7845\u70f7", "en_name": ["Tetraethenylsilane", "Silane, tetraethenyl-", "Silane, tetravinyl-", "Tetraethenylsilane", "Tetravinylsilane", "NSC 113262", "Tetraethylenesilicon"], "SMILES": "[Si](C=C)(C=C)(C=C)C=C", "physical_data": {"Molecular Weight": "136.27", "Molecular Formula": "C8H12Si", "Boiling Point": "130.2 \u00b0C", "Density": "0.815 g/cm\u00b3 @ Temp: 25 \u00b0C"}}