{"cas_no": "1112-48-7", "cn_name": "\u4e09\u4e59\u57fa\u6eb4\u7845\u70f7", "en_name": ["Bromotriethylsilane", "Silane, bromotriethyl-", "Bromotriethylsilane", "Triethylbromosilane", "Triethylsilyl bromide"], "SMILES": "[Si](CC)(CC)(CC)Br", "physical_data": {"Molecular Weight": "195.17", "Molecular Formula": "C6H15BrSi", "Boiling Point": "66-67 \u00b0C @ Press: 24 Torr", "Melting Point": "-50 \u00b0C", "Density": "1.140 g/cm\u00b3"}}