{"cas_no": "1113-59-3", "cn_name": "3-\u6eb4\u4e19\u916e\u9178", "en_name": ["Bromopyruvic acid", "Propanoic acid, 3-bromo-2-oxo-", "Pyruvic acid, bromo-", "3-Bromo-2-oxopropanoic acid", "Bromopyruvic acid", "\u03b2-Bromopyruvic acid", "3-Bromopyruvic acid", "3-Bromopyruvate", "NSC 11731", "NSC 62343", "3-Bromo-2-oxo-propionic acid"], "SMILES": "C(C(O)=O)(CBr)=O", "physical_data": {"Molecular Weight": "166.96", "Molecular Formula": "C3H3BrO3", "Melting Point": "59 \u00b0C"}}