{"cas_no": "1113-13-9", "cn_name": "\u4e19\u57fa\u78fa\u9170\u786b\u4e19\u916f", "en_name": ["S-Propyl propanethiosulfonate", "1-Propanesulfonothioic acid, S-propyl ester", "1-Propanesulfonic acid, thio-, S-propyl ester", "S-Propyl propanethiosulfonate", "Proallium SO DMC"], "SMILES": "S(SCCC)(CCC)(=O)=O", "physical_data": {"Molecular Weight": "182.30", "Molecular Formula": "C6H14O2S2", "Boiling Point": "120 \u00b0C @ Press: 4 Torr"}}