{"cas_no": "111304-31-5", "cn_name": "\u785d\u82ef\u5730\u5e73\u6742\u8d28C", "en_name": ["Methyl (2Z)-2-[(2-nitrophenyl)methylene]-3-oxobutanoate", "Butanoic acid, 2-[(2-nitrophenyl)methylene]-3-oxo-, methyl ester, (2Z)-", "Butanoic acid, 2-[(2-nitrophenyl)methylene]-3-oxo-, methyl ester, (Z)-", "Methyl (2Z)-2-[(2-nitrophenyl)methylene]-3-oxobutanoate"], "SMILES": "C(=C(C(OC)=O)C(C)=O)C1=C(N(=O)=O)C=CC=C1", "physical_data": {"Molecular Weight": "249.22", "Molecular Formula": "C12H11NO5", "Melting Point": "90-93 \u00b0C"}}