{"cas_no": "11136-36-0", "cn_name": "\u53cc(\u4e94\u7532\u57fa\u73af\u620a\u70ef)\u4e8c\u6c2f\u5316\u949b", "en_name": ["Bis(Pentamethylcyclopentadienyl)titanium dichloride", "Titanium, dichlorobis[(1,2,3,4,5-\u03b7)-1,2,3,4,5-pentamethyl-2,4-cyclopentadien-1-yl]-", "1,3-Cyclopentadiene, 1,2,3,4,5-pentamethyl-, titanium complex", "Dichlorobis[(1,2,3,4,5-\u03b7)-1,2,3,4,5-pentamethyl-2,4-cyclopentadien-1-yl]titanium", "Dichlorobis(pentamethylcyclopentadienyl)titanium", "Dichlorobis(\u03b75-pentamethylcyclopentadienyl)titanium", "Permethyltitanocene dichloride", "Bis(Pentamethylcyclopentadienyl)titanium dichloride", "Decamethyltitanocene dichloride", "Bis(\u03b75-pentamethylcyclopentadienyl)titanium dichloride"], "SMILES": "[Cl-][Ti+4]12345678([Cl-])(C=9(C)C1(C)=C2(C)[C-]3(C)C49C)[C-]%10(C)C5(C)=C6(C)C7(C)=C8%10C", "physical_data": {"Molecular Weight": "", "Molecular Formula": "C20H30Cl2Ti", "Melting Point": "190 \u00b0C (decomp)"}}