{"cas_no": "1113-12-8", "cn_name": "\u4e8c\u70ef\u4e19\u57fa\u4e8c\u7532\u57fa\u7845\u70f7", "en_name": ["Dimethyldi-2-propen-1-ylsilane", "Silane, dimethyldi-2-propen-1-yl-", "Silane, diallyldimethyl-", "Silane, dimethyldi-2-propenyl-", "Dimethyldi-2-propen-1-ylsilane", "Diallyldimethylsilane", "Dimethyldiallylsilane", "4,4-Dimethyl-4-sila-1,6-heptadiene"], "SMILES": "[Si](CC=C)(CC=C)(C)C", "physical_data": {"Molecular Weight": "140.30", "Molecular Formula": "C8H16Si", "Boiling Point": "137 \u00b0C", "Density": "0.767 g/cm\u00b3"}}