{"cas_no": "1113-41-3", "cn_name": "L-(+)-\u9752\u9709\u80fa", "en_name": ["L-Penicillamine", "L-Valine, 3-mercapto-", "Valine, 3-mercapto-, L-", "3-Mercapto-L-valine", "L-Penicillamine", "(R)-Penicillamine", "(+)-Penicillamine", "NSC 241261", "(R)-2-Amino-3-mercapto-3-methylbutanoic acid", "(2R)-2-Amino-3-methyl-3-sulfanylbutanoic acid"], "SMILES": "C(C(C)(C)S)(C(O)=O)N", "physical_data": {"Molecular Weight": "149.21", "Molecular Formula": "C5H11NO2S", "Melting Point": "190-194 \u00b0C"}}