{"cas_no": "1113-02-6", "cn_name": "\u6c27\u5316\u4e50\u679c", "en_name": ["Omethoate", "Phosphorothioic acid, O,O-dimethyl S-[2-(methylamino)-2-oxoethyl] ester", "Phosphorothioic acid, O,O-dimethyl ester, S-ester with 2-mercapto-N-methylacetamide", "Phosphorothioic acid, O,O-dimethyl S-(methylcarbamoylmethyl) ester", "Dimethoate O-analog", "Dimethoate oxygen analog", "Dimethoxon", "O,O-Dimethyl S-[(methylcarbamoyl)methyl] phosphorothioate", "PO-Dimethoate", "Bayer 45432", "Folimat", "BAY 45432", "Omethoate", "Dimethoate PO isologue", "Folimat 4E", "Dimethoate oxon", "Spraymate L 1700", "Le-mat"], "SMILES": "P(SCC(NC)=O)(OC)(OC)=O", "physical_data": {"Molecular Weight": "213.19", "Molecular Formula": "C5H12NO4PS", "Boiling Point": "150-152 \u00b0C @ Press: 0.1-0.2 Torr", "Melting Point": "-28 \u00b0C", "Density": "1.32 g/cm\u00b3"}}