{"cas_no": "1113-68-4", "cn_name": "N-\u7532\u57fa\u4e8c\u4e59\u9170\u80fa", "en_name": ["N-Methyldiacetamide", "Acetamide, N-acetyl-N-methyl-", "Diacetamide, N-methyl-", "N-Acetyl-N-methylacetamide", "N-Methyldiacetamide", "Diacetylmethylamine"], "SMILES": "N(C(C)=O)(C(C)=O)C", "physical_data": {"Molecular Weight": "115.13", "Molecular Formula": "C5H9NO2", "Boiling Point": "195 \u00b0C", "Melting Point": "-25 \u00b0C", "Density": "1.0904 g/cm\u00b3 @ Temp: 0 \u00b0C"}}