{"cas_no": "1113-78-6", "cn_name": "\u4e09\u4ef2\u4e01\u57fa\u787c\u70f7", "en_name": ["Tris(1-methylpropyl)borane", "Borane, tris(1-methylpropyl)-", "Borane, tri-sec-butyl-", "Borine, tri-sec-butyl-", "Tris(1-methylpropyl)borane", "Tri-sec-butylborane", "Tris(2-butyl)borane", "Tris(sec-butyl)borane"], "SMILES": "B(C(CC)C)(C(CC)C)C(CC)C", "physical_data": {"Molecular Weight": "182.15", "Molecular Formula": "C12H27B", "Boiling Point": "80-81 \u00b0C @ Press: 12 Torr"}}