{"cas_no": "1113-21-9", "cn_name": "\u9999\u53f6\u57fa\u82b3\u6a1f\u9187", "en_name": ["Geranyllinalool", "1,6,10,14-Hexadecatetraen-3-ol, 3,7,11,15-tetramethyl-, (6E,10E)-", "1,6,10,14-Hexadecatetraen-3-ol, 3,7,11,15-tetramethyl-, (E,E)-", "(6E,10E)-3,7,11,15-Tetramethyl-1,6,10,14-hexadecatetraen-3-ol", "Geranyllinalool", "Linalool, geranyl-", "(\u00b1)-Geranyllinalool", "(E,E)-Geranyllinalool", "(E,E)-3,7,11,15-Tetramethyl-1,6,10,14-Hexadecatetraen-3-ol", "Geranyl linalool"], "SMILES": "C(CC(C=C)(C)O)C=C(CCC=C(CCC=C(C)C)C)C", "physical_data": {"Molecular Weight": "290.48", "Molecular Formula": "C20H34O", "Boiling Point": "130-136 \u00b0C", "Density": "0.8850 g/cm\u00b3 @ Temp: 19 \u00b0C"}}