{"cas_no": "1114-71-2", "cn_name": "\u4e01\u70ef\u9178\u82ef\u916f", "en_name": ["S-Propyl-N-butyl-N-ethylthiocarbamate", "Carbamothioic acid, N-butyl-N-ethyl-, S-propyl ester", "Carbamic acid, butylethylthio-, S-propyl ester", "Carbamothioic acid, butylethyl-, S-propyl ester", "R 2061", "PEBC", "Pebulate", "S-Propyl butylethylthiocarbamate", "Stauffer R 2061", "Tillam", "S-Propyl-N-ethyl-N-butylthiocarbamate", "Butylethylthiocarbamic acid S-propyl ester", "Stauffer 2061", "S-Propyl-N-butyl-N-ethylthiocarbamate"], "SMILES": "N(C(SCCC)=O)(CCCC)CC", "physical_data": {"Molecular Weight": "203.34", "Molecular Formula": "C10H21NOS", "Boiling Point": "142 \u00b0C @ Press: 20 Torr", "Melting Point": "&lt;25 \u00b0C", "Density": "0.9458 g/cm\u00b3 @ Temp: 30 \u00b0C"}}