{"cas_no": "11141-17-6", "cn_name": "\u5370\u695d\u7d20", "en_name": ["Azadirachtin", "1H,7H-Naphtho[1,8-bc:4,4a-c\u2032]difuran-5,10a(8H)-dicarboxylic acid, 10-(acetyloxy)octahydro-3,5-dihydroxy-4-methyl-8-[[(2E)-2-methyl-1-oxo-2-buten-1-yl]oxy]-4-[(1aR,2S,3aS,6aS,7S,7aS)-3a,6a,7,7a-tetrahydro-6a-hydroxy-7a-methyl-2,7-methanofuro[2,3-b]oxireno[e]oxepin-1a(2H)-yl]-, 5,10a-dimethyl ester, (2aR,3S,4S,4aR,5S,7aS,8S,10R,10aS,10bR)-", "1H,7H-Naphtho[1,8-bc:4,4a-c\u2032]difuran-5,10a(8H)-dicarboxylic acid, 10-(acetyloxy)octahydro-3,5-dihydroxy-4-methyl-8-[(2-methyl-1-oxo-2-butenyl)oxy]-4-(3a,6a,7,7a-tetrahydro-6a-hydroxy-7a-methyl-2,7-methanofuro[2,3-b]oxireno[e]oxepin-1a(2H)-yl)-, dimethyl ester, [2aR-[2a\u03b1,3\u03b2,4\u03b2(1aR*,2S*,3aS*,6aS*,7S*,7aS*),4a\u03b2,5\u03b1,7aS*,8\u03b2(E),10\u03b2,10a\u03b1,10b\u03b2]]-", "1H,7H-Naphtho[1,8-bc:4,4a-c\u2032]difuran-5,10a(8H)-dicarboxylic acid, 10-(acetyloxy)octahydro-3,5-dihydroxy-4-methyl-8-[[(2E)-2-methyl-1-oxo-2-butenyl]oxy]-4-[(1aR,2S,3aS,6aS,7S,7aS)-3a,6a,7,7a-tetrahydro-6a-hydroxy-7a-methyl-2,7-methanofuro[2,3-b]oxireno[e]oxepin-1a(2H)-yl]-, dimethyl ester, (2aR,3S,4S,4aR,5S,7aS,8S,10R,10aS,10bR)-", "2,7-Methanofuro[2,3-b]oxireno[e]oxepin, 1H,7H-naphtho[1,8-bc:4,4a-c\u2032]difuran-5,10a(8H)-dicarboxylic acid deriv.", "Azadirachtin A", "Azadirachtin", "Azatin", "Azatin EC", "Align", "Neemgold", "NeemAzal F", "NeemAzal W", "NeemAzal T", "BioNEEM", "Suneem", "Superneem", "Neemazol", "Nimbicidine", "Oikos 25 plus", "Oikos 323 Bio", "Ecozin", "Azatin XL", "Safer BioNEEM", "Oikos", "Gronim", "Nimurin", "Ornazin", "Azatin Magnum", "NeemAzal T/S", "NeemAzal", "AzaMax", "Biosal", "Molt-X", "Nimbecidine", "Nimbecidine EC", "Pestoneem", "Neemseto", "Neem Baan", "Fortune Aza Technical", "Fortune Aza"], "SMILES": "CC1(C23C(C)(O2)C4CC3OC5C4(O)C=CO5)C6C7(C8C(C1O)OCC8(C(OC)=O)C(OC(C)=O)CC7OC(C(=CC)C)=O)COC6(C(OC)=O)O", "physical_data": {"Molecular Weight": "720.71", "Molecular Formula": "C35H44O16", "Melting Point": "155-158 \u00b0C"}}