{"cas_no": "111470-99-6", "cn_name": "\u82ef\u78fa\u9178\u6c28\u6c2f\u5730\u5e73", "en_name": ["Amlodipine besylate", "3,5-Pyridinedicarboxylic acid, 2-[(2-aminoethoxy)methyl]-4-(2-chlorophenyl)-1,4-dihydro-6-methyl-, 3-ethyl 5-methyl ester, benzenesulfonate (1:1)", "3,5-Pyridinedicarboxylic acid, 2-[(2-aminoethoxy)methyl]-4-(2-chlorophenyl)-1,4-dihydro-6-methyl-, 3-ethyl 5-methyl ester, monobenzenesulfonate", "Benzenesulfonic acid, compd. with 3-ethyl 5-methyl 2-[(2-aminoethoxy)methyl]-4-(2-chlorophenyl)-1,4-dihydro-6-methyl-3,5-pyridinedicarboxylate (1:1)", "UK 48340-26", "Amlodipine besylate", "Norvasc", "Amlodipine benzenesulfonate", "Istin", "(\u00b1)-3-Ethyl 5-methyl 2-[(2-aminoethoxy)methyl]-4-(2-chlorophenyl)-1,4-dihydro-6-methyl-3,5-pyridinedicarboxylate monobenzenesulfonate", "Lowrac", "Amcard", "Amlodin", "Amdepin", "Amdipin", "Amlosyn", "Calchek", "Norvas", "Norvask", "Tensivask", "Amlopin", "Amlor", "Monopina", "Antacal", "Amlodipine benzenesulfonate salt", "(\u00b1)-Amlodipine besylate", "Amlodis", "Amlodin OD", "Vazkor", "Normodipine", "Amlogard", "Amlopers 5", "AM Arya 5", "Amilo", "Alkapress", "Myodura", "Cardilopin", "Amlovas", "Alopres", "Regcor", "Lodipressin", "Amlodigamma", "Amloteron"], "SMILES": "S(=O)(=O)(O)C1=CC=CC=C1.C(OCC)(=O)C=1C(C(C(OC)=O)=C(C)NC1COCCN)C2=C(Cl)C=CC=C2", "physical_data": {"Molecular Weight": "", "Molecular Formula": "C20H25ClN2O5.C6H6O3S", "Melting Point": "178-179 \u00b0C"}}