{"cas_no": "1114-81-4", "cn_name": "L-2-\u6c28\u57fa-3-\u7f9f\u57fa\u4e01\u9178-3-\u78f7\u9178\u916f", "en_name": ["Phospho-L-threonine", "L-Threonine, O-phosphono-", "Threonine, dihydrogen phosphate (ester), L-", "L-Threonine, dihydrogen phosphate (ester)", "Threonine, di-H phosphate", "Threonine, phosphate", "O-Phosphono-L-threonine", "O-Phosphothreonine", "Phosphorylthreonine", "O-Phospho-L-threonine", "L-Phosphothreonine", "L-O-Phosphothreonine", "Phospho-L-threonine", "Treonin fosfatum"], "SMILES": "C(C(C(O)=O)N)(OP(=O)(O)O)C", "physical_data": {"Molecular Weight": "199.10", "Molecular Formula": "C4H10NO6P", "Melting Point": "169 \u00b0C"}}