{"cas_no": "111406-87-2", "cn_name": "\u9f50\u7559\u901a", "en_name": ["Zileuton", "Urea, N-(1-benzo[b]thien-2-ylethyl)-N-hydroxy-", "N-(1-Benzo[b]thien-2-ylethyl)-N-hydroxyurea", "Zileuton", "A 64077", "Abbott 64077", "Zyflo", "Leutrol", "Griluto-CR", "1-[1-(1-Benzothiophen-2-yl)ethyl]-1-hydroxyurea"], "SMILES": "C(N(C(N)=O)O)(C)C1=CC=2C(S1)=CC=CC2", "physical_data": {"Molecular Weight": "236.29", "Molecular Formula": "C11H12N2O2S", "Melting Point": "157-158 \u00b0C"}}