{"cas_no": "111479-05-1", "cn_name": "\u5594\u8349\u916f", "en_name": ["Propaquizafop", "Propanoic acid, 2-[4-[(6-chloro-2-quinoxalinyl)oxy]phenoxy]-, 2-[[(1-methylethylidene)amino]oxy]ethyl ester, (2R)-", "Propanoic acid, 2-[4-[(6-chloro-2-quinoxalinyl)oxy]phenoxy]-, 2-[[(1-methylethylidene)amino]oxy]ethyl ester, (R)-", "Propaquizafop", "Ro 17-3664", "Agil", "Shogun", "Correct", "(R)-2-(Propan-2-ylideneaminooxy)ethyl 2-(4-(6-chloroquinoxalin-2-yloxy)phenoxy)propanoate"], "SMILES": "O(C1=NC2=C(N=C1)C=C(Cl)C=C2)C3=CC=C(OC(C(OCCON=C(C)C)=O)C)C=C3", "physical_data": {"Molecular Weight": "443.88", "Molecular Formula": "C22H22ClN3O5", "Melting Point": "62 \u00b0C", "Density": "1.3 g/cm\u00b3"}}