{"cas_no": "111493-74-4", "cn_name": "1-\u7532\u57fa-3-\u4e09\u6c1f\u7532\u57fa-1H-\u5421\u5511-4-\u7fa7\u9178\u4e59\u916f", "en_name": ["1-Methyl-3-trifluoromethylpyrazole-4-carboxylic acid ethyl ester", "1H-Pyrazole-4-carboxylic acid, 1-methyl-3-(trifluoromethyl)-, ethyl ester", "Ethyl 1-methyl-3-trifluoromethyl-4-pyrazolecarboxylate", "1-Methyl-3-trifluoromethylpyrazole-4-carboxylic acid ethyl ester", "1-Methyl-3-(trifluoromethyl)-1H-pyrazole-4-carboxylic acid ethyl ester", "Ethyl 1-methyl-3-trifluoromethyl-1H-pyrazole-4-carboxylate", "Ethyl 3-(trifluoromethyl)-1-methyl-1H-pyrazole-4-carboxylate", "Ethyl 3-(trifluoromethyl)-1-methyl-7H-pyrazole-4-carboxylate"], "SMILES": "C(F)(F)(F)C=1C(C(OCC)=O)=CN(C)N1", "physical_data": {"Molecular Weight": "222.16", "Molecular Formula": "C8H9F3N2O2", "Melting Point": "55-56 \u00b0C"}}