{"cas_no": "1114-41-6", "cn_name": "\u4fdd\u62a4\u80de\u58c1\u9178", "en_name": ["Muramic acid", "Muramic acid", "D-Glucose, 2-amino-3-O-(D-1-carboxyethyl)-2-deoxy-", "2-Amino-3-O-(D-1-carboxyethyl)-2-deoxy-D-glucose", "D-Glucose, 2-amino-3-O-(1-carboxyethyl)-2-deoxy-, (R)-", "(R)-2-Amino-3-O-(1-carboxyethyl)-2-deoxy-D-glucose", "2-Aminomuramic acid"], "SMILES": "C(C(C(CO)O)O)(OC(C(O)=O)C)C(C=O)N", "physical_data": {"Molecular Weight": "251.23", "Molecular Formula": "C9H17NO7", "Melting Point": "153 \u00b0C (decomp)"}}