{"cas_no": "111439-76-0", "cn_name": "\u5f02\u4e01\u57fa\u5f02\u4e19\u57fa\u4e8c\u7532\u6c27\u57fa\u7845\u70f7", "en_name": ["Isobutylisopropyldimethoxysilane", "Silane, dimethoxy(1-methylethyl)(2-methylpropyl)-", "Dimethoxy(1-methylethyl)(2-methylpropyl)silane", "Isobutylisopropyldimethoxysilane", "Dimethoxyisobutylisopropylsilane"], "SMILES": "[Si](CC(C)C)(C(C)C)(OC)OC", "physical_data": {"Molecular Weight": "190.36", "Molecular Formula": "C9H22O2Si", "Boiling Point": "93 \u00b0C @ Press: 37 Torr", "Density": "0.867 g/cm\u00b3"}}