{"cas_no": "1114-51-8", "cn_name": "N,N-\u4e8c\u4e59\u57fa\u4e19\u9170\u80fa", "en_name": ["Diethylpropionamide", "Propanamide, N,N-diethyl-", "Propionamide, N,N-diethyl-", "N,N-Diethylpropanamide", "N,N-Diethylpropionamide", "Diethylpropionamide", "NSC 105"], "SMILES": "N(C(CC)=O)(CC)CC", "physical_data": {"Molecular Weight": "129.20", "Molecular Formula": "C7H15NO", "Boiling Point": "191 \u00b0C", "Density": "0.8972 g/cm\u00b3 @ Temp: 20 \u00b0C"}}