{"cas_no": "1114-92-7", "cn_name": "N/A", "en_name": ["2,3-Diacetoxybutane", "2,3-Butanediol, 2,3-diacetate", "2,3-Butanediol, diacetate", "1,2-Dimethylethylene acetate", "2,3-Diacetoxybutane", "2,3-Butyleneglycol diacetate", "2,3-Butanediyl diacetate"], "SMILES": "C(C(OC(C)=O)C)(OC(C)=O)C", "physical_data": {"Molecular Weight": "174.19", "Molecular Formula": "C8H14O4", "Boiling Point": "82 \u00b0C @ Press: 10 Torr", "Melting Point": "25.7-25.9 \u00b0C", "Density": "1.0244 g/cm\u00b3 @ Temp: 25 \u00b0C"}}