{"cas_no": "1114-34-7", "cn_name": "\u6765\u82cf\u7cd6", "en_name": ["D-Lyxose", "D-Lyxose", "Lyxose, D-", "NSC 224430"], "SMILES": "C(C(CO)O)(C(C=O)O)O", "physical_data": {"Molecular Weight": "150.13", "Molecular Formula": "C5H10O5", "Melting Point": "106.5 \u00b0C"}}