{"cas_no": "1115-90-8", "cn_name": "2-\u6c28\u57fa\u5e9a\u9178", "en_name": ["2-Aminoheptanoic acid", "Heptanoic acid, 2-amino-", "Heptanoic acid, 2-amino-, DL-", "Heptanoic acid, 2-amino-, (\u00b1)-", "2-Aminoheptanoic acid", "DL-Homonorleucine", "\u03b1-DL-Aminoheptanoic acid", "(\u00b1)-2-Aminoheptanoic acid", "Homonorleucine", "Heptyline", "NSC 20146", "\u03b1-Amino-n-heptanoic acid"], "SMILES": "C(CCCCC)(C(O)=O)N", "physical_data": {"Molecular Weight": "145.20", "Molecular Formula": "C7H15NO2", "Melting Point": "274 \u00b0C (decomp)"}}