{"cas_no": "1115-30-6", "cn_name": "\u4e59\u9170\u7425\u73c0\u9178\u4e8c\u4e59\u916f", "en_name": ["Butanedioic acid, 2-acetyl-, 1,4-diethyl ester", "Butanedioic acid, 2-acetyl-, 1,4-diethyl ester", "Succinic acid, acetyl-, diethyl ester", "Butanedioic acid, acetyl-, diethyl ester", "Diethyl 2-acetylsuccinate", "Diethyl acetylsuccinate", "Acetylsuccinic acid diethyl ester", "Ethyl acetylsuccinate", "Diethyl acetosuccinate", "NSC 233", "2-Acetylsuccinic acid diethyl ester", "1,4-Diethyl 2-acetylbutanedioate"], "SMILES": "C(CC(OCC)=O)(C(OCC)=O)C(C)=O", "physical_data": {"Molecular Weight": "216.23", "Molecular Formula": "C10H16O5", "Boiling Point": "255 \u00b0C", "Density": "1.0783 g/cm\u00b3 @ Temp: 25 \u00b0C"}}