{"cas_no": "1115-59-9", "cn_name": "L-\u4e19\u6c28\u9178\u4e59\u916f\u76d0\u9178\u76d0", "en_name": ["L-Alanine, ethyl ester, hydrochloride (1:1)", "L-Alanine, ethyl ester, hydrochloride (1:1)", "L-Alanine, ethyl ester, hydrochloride", "Alanine, ethyl ester, hydrochloride, L-", "(S)-Alanine ethyl ester hydrochloride", "Ethyl L-alaninate hydrochloride", "Ethyl (S)-alaninate hydrochloride", "(S)-2-Aminopropionic acid ethyl ester hydrochloride", "(S)-Ethyl 2-aminopropanoate hydrochloride"], "SMILES": "C(OCC)(C(C)N)=O.Cl", "physical_data": {"Molecular Weight": "", "Molecular Formula": "C5H11NO2.ClH", "Melting Point": "76 \u00b0C"}}