{"cas_no": "1115-84-0", "cn_name": "\u7532\u78fa\u9178\u7532\u916f", "en_name": ["Vitamin U", "Sulfonium, [(3S)-3-amino-3-carboxypropyl]dimethyl-, chloride (1:1)", "Sulfonium, (3-amino-3-carboxypropyl)dimethyl-, chloride, L-", "Sulfonium, (3-amino-3-carboxypropyl)dimethyl-, chloride, (S)-", "Vitamin U", "Sulfonium, [(3S)-3-amino-3-carboxypropyl]dimethyl-, chloride", "Methylmethioninesulfonium chloride", "L-Methylmethionine sulfonium chloride", "Cabagin", "S-Methylmethionine sulfonium chloride", "L-Methionine methylsulfonium chloride", "S-Methylmethionine chloride", "Ardesyl", "Yucron", "Epadyn U", "Merastom", "U-Vit", "Cabagin U", "Methionine-S-methyl sulfonium chloride", "MMSC", "Vitas U"], "SMILES": "C(CC[S+](C)C)(C(O)=O)N.[Cl-]", "physical_data": {"Molecular Weight": "", "Molecular Formula": "C6H14NO2S.Cl", "Melting Point": "134 \u00b0C (decomp)"}}