{"cas_no": "1115-82-8", "cn_name": "(S)-2-\u7532\u57fa\u620a\u4e8c\u9178", "en_name": ["(2S)-2-Methylpentanedioic acid", "Pentanedioic acid, 2-methyl-, (2S)-", "Glutaric acid, 2-methyl-, (S)(+)-", "Pentanedioic acid, 2-methyl-, (S)-", "(2S)-2-Methylpentanedioic acid", "(S)-(+)-2-Methylglutaric acid", "(2S)-2-Methylpentanedioic acid"], "SMILES": "C(CCC(O)=O)(C(O)=O)C", "physical_data": {"Molecular Weight": "146.14", "Molecular Formula": "C6H10O4", "Melting Point": "79 \u00b0C"}}