{"cas_no": "1115-11-3", "cn_name": "2-\u7532\u57fa-2-\u4e01\u70ef\u919b", "en_name": ["2-Methyl-2-butenal", "2-Butenal, 2-methyl-", "Crotonaldehyde, 2-methyl-", "2-Methyl-2-butenal", "2,3-Dimethylacrolein", "2-Methylcrotonaldehyde", "2-Methyl-2-buten-1-al", "\u03b1-Methylcrotonaldehyde", "\u03b1,\u03b2-Dimethylacrolein"], "SMILES": "C(=CC)(C=O)C", "physical_data": {"Molecular Weight": "84.12", "Molecular Formula": "C5H8O", "Boiling Point": "117 \u00b0C", "Melting Point": "39-40 \u00b0C", "Density": "0.8583 g/cm\u00b3 @ Temp: 20 \u00b0C"}}