{"cas_no": "1115-69-1", "cn_name": "N-\u4e59\u9170-DL-\u4e19\u6c28\u9178", "en_name": ["N-Acetylalanine", "Alanine, N-acetyl-", "Alanine, N-acetyl-, DL-", "N-Acetylalanine", "N-Acetyl-DL-alanine", "Acetyl-DL-alanine", "2-Acetamidopropionic acid", "2-(Acetylamino)propanoic acid", "NSC 43118", "2-Acetamidopropanoic acid"], "SMILES": "C(NC(C)=O)(C(O)=O)C", "physical_data": {"Molecular Weight": "131.13", "Molecular Formula": "C5H9NO3", "Melting Point": "136-137 \u00b0C"}}