{"cas_no": "1115-47-5", "cn_name": "N-\u4e59\u9170-DL-\u86cb\u6c28\u9178", "en_name": ["N-Acetylmethionine", "Methionine, N-acetyl-", "Methionine, N-acetyl-, DL-", "DL-Methionine, N-acetyl-", "N-Acetylmethionine", "N-Acetyl-DL-methionine", "Acetyl-DL-methionine", "DL-N-acetylmethionine", "NSC 7633", "2-Acetylamino-4-methylsulfanyl-butyric acid", "2-Acetamido-4-(methylsulfanyl)butanoic acid", "2-Acetamido-4-methylsulfanylbutanoic acid"], "SMILES": "C(NC(C)=O)(C(O)=O)CCSC", "physical_data": {"Molecular Weight": "191.25", "Molecular Formula": "C7H13NO3S", "Melting Point": "111-113 \u00b0C"}}