{"cas_no": "1115-20-4", "cn_name": "3-\u7f9f\u57fa-2,2-\u4e8c\u7532\u57fa-3-\u7f9f\u57fa-2,2-\u4e8c\u7532\u57fa\u4e19\u57fa\u4e19\u9178\u916f", "en_name": ["Hydroxypivalyl hydroxypivalate", "Propanoic acid, 3-hydroxy-2,2-dimethyl-, 3-hydroxy-2,2-dimethylpropyl ester", "Hydracrylic acid, 2,2-dimethyl-, 3-hydroxy-2,2-dimethylpropyl ester", "1,3-Propanediol, 2,2-dimethyl-, mono(2,2-dimethylhydracrylate)", "2,2-Dimethyl-3-hydroxypropyl \u03b1,\u03b1-dimethyl-\u03b2-hydroxypropionate", "Hydroxyneopentyl hydroxypivalate", "Hydroxypivalyl hydroxypivalate", "Neopentyl glycol monohydroxypivalate", "3-(Hydroxypivaloyloxy)-2,2-dimethylpropanol", "3-Hydroxy-2,2-dimethylpropyl 2,2-dimethylhydracrylate", "3-Hydroxy-2,2-dimethylpropyl 3-hydroxy-2,2-dimethylpropionate", "2,2-Dimethyl-3-hydroxypropyl 2,2-dimethyl-3-hydroxypropionate", "Hydroxypivalic acid neopentyl glycol ester", "3-Hydroxy-2,2-dimethylpropyl hydroxypivalate", "Ester Diol 204", "2,2-Dimethyl-1,3-propanediol mono(hydroxypivalate)", "Neopentyl glycol hydroxypivalate monoester", "(3-Hydroxy-2,2-dimethylpropyl) 3-hydroxy-2,2-dimethylpropanoate", "3-Hydroxy-2,2-dimethylpropyl 3-hydroxy-2,2-dimethylpropanoate"], "SMILES": "C(OCC(CO)(C)C)(C(CO)(C)C)=O", "physical_data": {"Molecular Weight": "204.26", "Molecular Formula": "C10H20O4", "Boiling Point": "130-135 \u00b0C @ Press: 1 Torr", "Melting Point": "124-128 \u00b0C (decomp)"}}