{"cas_no": "1115-99-7", "cn_name": "\u4e09\u4e59\u57fa\u5316\u9553", "en_name": ["Triethylgallium", "Gallium, triethyl-", "Triethylgallium", "Triethylgallane"], "SMILES": "[Ga](CC)(CC)CC", "physical_data": {"Molecular Weight": "", "Molecular Formula": "C6H15Ga", "Boiling Point": "46-48 \u00b0C @ Press: 18 Torr", "Melting Point": "142 \u00b0C"}}