{"cas_no": "1115-08-8", "cn_name": "3-\u7532\u57fa-1\uff0c4-\u620a\u4e8c\u70ef", "en_name": ["3-Methyl-1,4-pentadiene", "1,4-Pentadiene, 3-methyl-", "3-Methyl-1,4-pentadiene"], "SMILES": "C(C=C)(C=C)C", "physical_data": {"Molecular Weight": "82.14", "Molecular Formula": "C6H10", "Boiling Point": "52 \u00b0C"}}