{"cas_no": "1116-77-4", "cn_name": "4-\u4e8c\u7532\u80fa\u57fa\u4e01\u919b\u7f29\u4e8c\u4e59\u9187", "en_name": ["4,4-Diethoxy-N,N-dimethyl-1-butanamine", "1-Butanamine, 4,4-diethoxy-N,N-dimethyl-", "Butyraldehyde, 4-(dimethylamino)-, diethyl acetal", "4,4-Diethoxy-N,N-dimethyl-1-butanamine", "4,4-Diethoxy-N,N-dimethylbutylamine", "4,4-Diethoxy-N,N-dimethylbutanamine", "4-(Dimethylamino)butanal diethyl acetal", "1-(N,N-Dimethylamino)-4,4-diethoxybutane"], "SMILES": "C(CCCN(C)C)(OCC)OCC", "physical_data": {"Molecular Weight": "189.30", "Molecular Formula": "C10H23NO2", "Boiling Point": "92-93 \u00b0C"}}