{"cas_no": "1116-22-9", "cn_name": "\u0391-L-\u8c37\u6c28\u9170-L-\u8c37\u6c28\u9178", "en_name": ["L-\u03b3-Glutamyl-L-glutamic acid", "L-Glutamic acid, L-\u03b3-glutamyl-", "Glutamic acid, N-L-\u03b3-glutamyl-, L-", "L-Glutamic acid, N-L-\u03b3-glutamyl-", "Glutamic acid, N-L-\u03b3-glutamyl-", "L-\u03b3-Glutamyl-L-glutamic acid", "\u03b3-Glutamylglutamic acid", "\u03b3-L-Glutamyl-L-glutamic acid", "12: PN: WO2011158590 PAGE: 34 claimed sequence"], "SMILES": "C(NC(CCC(C(O)=O)N)=O)(CCC(O)=O)C(O)=O", "physical_data": {"Molecular Weight": "276.24", "Molecular Formula": "C10H16N2O7", "Melting Point": "188-191 \u00b0C"}}