{"cas_no": "1116-73-0", "cn_name": "\u4e09\u6b63\u5df2\u57fa\u94dd", "en_name": ["Trihexylaluminum", "Aluminum, trihexyl-", "Trihexylaluminum", "Tri-n-hexylaluminum", "Trihexylalane", "Tri-n-hexylaluminum (Al(C6H13)3)"], "SMILES": "[Al](CCCCCC)(CCCCCC)CCCCCC", "physical_data": {"Molecular Weight": "", "Molecular Formula": "C18H39Al", "Boiling Point": "105 \u00b0C @ Press: 1 x 10<sup>-3</sup> Torr", "Melting Point": "-87 \u00b0C", "Density": "0.8374 g/cm\u00b3 @ Temp: 35 \u00b0C"}}