{"cas_no": "1116-40-1", "cn_name": "\u4e09\u5f02\u4e01\u57fa\u80fa", "en_name": ["Triisobutylamine", "1-Propanamine, 2-methyl-N,N-bis(2-methylpropyl)-", "Triisobutylamine", "2-Methyl-N,N-bis(2-methylpropyl)-1-propanamine"], "SMILES": "N(CC(C)C)(CC(C)C)CC(C)C", "physical_data": {"Molecular Weight": "185.35", "Molecular Formula": "C12H27N", "Boiling Point": "191.5 \u00b0C", "Melting Point": "-21.8 \u00b0C"}}