{"cas_no": "111652-20-1", "cn_name": "BOC-\u7518\u6c28\u9178\u53d4\u4e01\u916f", "en_name": ["N-[(1,1-Dimethylethoxy)carbonyl]glycine 1,1-dimethylethyl ester", "Glycine, N-[(1,1-dimethylethoxy)carbonyl]-, 1,1-dimethylethyl ester", "N-[(1,1-Dimethylethoxy)carbonyl]glycine 1,1-dimethylethyl ester", "N-(tert-Butoxycarbonyl)glycine tert-butyl ester", "(tert-Butoxycarbonylamino)acetic acid tert-butyl ester", "N-(tert-Butoxycarbonyl)glycine tert-butyl ester", "tert-Butyl N-(tert-Butoxycarbonyl)glycinate"], "SMILES": "O(C(C)(C)C)C(CNC(OC(C)(C)C)=O)=O", "physical_data": {"Molecular Weight": "231.29", "Molecular Formula": "C11H21NO4", "Melting Point": "64 \u00b0C"}}