{"cas_no": "1116-76-3", "cn_name": "\u4e09\u8f9b\u80fa", "en_name": ["Trioctylamine", "1-Octanamine, N,N-dioctyl-", "Trioctylamine", "N,N-Dioctyl-1-octanamine", "Tricaprylylamine", "Tri-n-octylamine", "Tri-n-caprylylamine", "Farmin 08", "TOA", "TOA (amine)", "Farmin T 08", "NSC 11034", "N,N,N-Trioctylamine"], "SMILES": "N(CCCCCCCC)(CCCCCCCC)CCCCCCCC", "physical_data": {"Molecular Weight": "353.67", "Molecular Formula": "C24H51N", "Boiling Point": "366 \u00b0C", "Melting Point": "-34.6 \u00b0C", "Density": "0.80746 g/cm\u00b3 @ Temp: 25.00 \u00b0C"}}