{"cas_no": "1116-54-7", "cn_name": "\u4e8c\u4e59\u9187\u4e9a\u785d\u80fa", "en_name": ["N-Nitrosodiethanolamine", "Ethanol, 2,2\u2032-(nitrosoimino)bis-", "Ethanol, 2,2\u2032-nitrosiminodi-", "2,2\u2032-(Nitrosoimino)bis[ethanol]", "Diethanolnitrosamine", "N-Nitrosodiethanolamine", "Nitrosodiethanolamine", "N,N-Diethanolnitrosamine", "N-Nitrosobis(2-hydroxyethyl)amine", "NDELA", "2-[(2-Hydroxyethyl)(nitroso)amino]ethan-1-ol"], "SMILES": "N(CCO)(CCO)N=O", "physical_data": {"Molecular Weight": "134.13", "Molecular Formula": "C4H10N2O3", "Boiling Point": "114 \u00b0C @ Press: 1.4 Torr", "Melting Point": "200 \u00b0C (decomp)"}}