{"cas_no": "1116-98-9", "cn_name": "\u6c30\u4e59\u9178\u53d4\u4e01\u916f", "en_name": ["tert-Butyl cyanoacetate", "Acetic acid, 2-cyano-, 1,1-dimethylethyl ester", "Acetic acid, cyano-, tert-butyl ester", "Acetic acid, cyano-, 1,1-dimethylethyl ester", "tert-Butyl cyanoacetate", "1,1-Dimethylethyl cyanoacetate", "Cyanoacetic acid tert-butyl ester", "NSC 1072", "tert-Butyl 2-cyanoacetate", "tert-Butyl \u03b1-cyanoacetate"], "SMILES": "C(OC(C)(C)C)(CC#N)=O", "physical_data": {"Molecular Weight": "141.17", "Molecular Formula": "C7H11NO2", "Boiling Point": "90 \u00b0C @ Press: 10 Torr", "Density": "1.0095 g/cm\u00b3 @ Temp: 21 \u00b0C"}}