{"cas_no": "1117-52-8", "cn_name": "\u6cd5\u5c3c\u57fa\u4e19\u916e", "en_name": ["Farnesylacetone", "5,9,13-Pentadecatrien-2-one, 6,10,14-trimethyl-, (5E,9E)-", "5,9,13-Pentadecatrien-2-one, 6,10,14-trimethyl-, (E,E)-", "(5E,9E)-6,10,14-Trimethyl-5,9,13-pentadecatrien-2-one", "Farnesylacetone", "E,E-Farnesylacetone", "trans,trans-Farnesylacetone", "(E,E)-6,10,14-Trimethyl-5,9,13-pentadecatrien-2-one", "(E,E)-6,10,14-Trimethyl-5,9,13-pentadecatrien-2-one", "(5E,9E)-6,10,14-Trimethyl-5,9,13-pentadecatriene-2-one", "Farnesylacetone A", "(5E,9E)-6,10,14-Trimethylpentadeca-5,9,13-trien-2-one", "(5E,9E)-Farnesylacetone"], "SMILES": "C(=CCCC(=CCCC(C)=O)C)(CCC=C(C)C)C", "physical_data": {"Molecular Weight": "262.43", "Molecular Formula": "C18H30O", "Boiling Point": "147-148 \u00b0C @ Press: 0.5 Torr", "Density": "0.8900 g/cm\u00b3 @ Temp: 20 \u00b0C"}}