{"cas_no": "1117-31-3", "cn_name": "1,3-\u4e01\u4e8c\u9187\u4e8c\u4e59\u9178\u916f", "en_name": ["1,3-Butylene glycol diacetate", "1,3-Butanediol, 1,3-diacetate", "1,3-Butanediol, diacetate", "1,3-Butylene diacetate", "1,3-Diacetoxybutane", "1,3-Butylene glycol diacetate", "(\u00b1)-1,3-Diacetoxybutane", "NSC 67338", "1,3-Butanediyl diacetate", "1,3-BGDA", "CELTOL 1,3-BGDA"], "SMILES": "C(CCOC(C)=O)(OC(C)=O)C", "physical_data": {"Molecular Weight": "174.19", "Molecular Formula": "C8H14O4", "Boiling Point": "89 \u00b0C @ Press: 10 Torr", "Density": "1.029 g/cm\u00b3 @ Temp: 20 \u00b0C"}}