{"cas_no": "1117-19-7", "cn_name": "\u4e19\u4e8c\u9178\u4e8c\u4e19\u916f", "en_name": ["Dipropyl malonate", "Propanedioic acid, 1,3-dipropyl ester", "Malonic acid, dipropyl ester", "Propanedioic acid, dipropyl ester", "Dipropyl malonate", "1,3-Dipropyl propanedioate"], "SMILES": "C(CC(OCCC)=O)(OCCC)=O", "physical_data": {"Molecular Weight": "188.22", "Molecular Formula": "C9H16O4", "Boiling Point": "229.2 \u00b0C @ Press: 760 Torr", "Melting Point": "-95 \u00b0C", "Density": "1.01453 g/cm\u00b3 @ Temp: 15 \u00b0C"}}