{"cas_no": "1117-97-1", "cn_name": "\u7532\u6c27\u57fa\u7532\u57fa\u80fa", "en_name": ["N,O-Dimethylhydroxylamine", "Methanamine, N-methoxy-", "Methylamine, N-methoxy-", "N-Methoxymethanamine", "Hydroxylamine, N,O-dimethyl-", "Methoxyamine, N-methyl-", "N-Methoxy-N-methylamine", "N,O-Dimethylhydroxylamine", "O,N-Dimethylhydroxylamine", "Methoxymethylamine", "N-Methoxymethylamine", "Methylmethoxyamine", "N-Methylmethoxyamine", "(Methoxyamino)methane"], "SMILES": "N(OC)C", "physical_data": {"Molecular Weight": "61.08", "Molecular Formula": "C2H7NO", "Boiling Point": "42.3 \u00b0C @ Press: 760 Torr", "Melting Point": "-97.0 \u00b0C"}}