{"cas_no": "111721-75-6", "cn_name": "2-\u6eb4-3-\u6c1f\u82ef\u80fa", "en_name": ["2-Bromo-3-fluoroaniline", "Benzenamine, 2-bromo-3-fluoro-", "2-Bromo-3-fluorobenzenamine", "2-Bromo-3-fluoroaniline"], "SMILES": "BrC1=C(F)C=CC=C1N", "physical_data": {"Molecular Weight": "190.01", "Molecular Formula": "C6H5BrFN", "Melting Point": "32-34 \u00b0C"}}