{"cas_no": "1117-55-1", "cn_name": "\u8f9b\u9178\u5df1\u916f", "en_name": ["Hexyl octanoate", "Octanoic acid, hexyl ester", "Hexyl caprylate", "Hexyl octanoate", "n-Hexyl caprylate"], "SMILES": "C(CCCCCCC)(OCCCCCC)=O", "physical_data": {"Molecular Weight": "228.37", "Molecular Formula": "C14H28O2", "Boiling Point": "277.4 \u00b0C", "Melting Point": "-30.6 \u00b0C"}}