{"cas_no": "1117-61-9", "cn_name": "(R)-3,7-\u4e8c\u7532\u57fa-6-\u8f9b\u70ef\u9187", "en_name": ["(+)-Citronellol", "6-Octen-1-ol, 3,7-dimethyl-, (3R)-", "6-Octen-1-ol, 3,7-dimethyl-, (R)-(+)-", "6-Octen-1-ol, 3,7-dimethyl-, (R)-", "(3R)-3,7-Dimethyl-6-octen-1-ol", "(+)-Citronellol", "D-Citronellol", "(R)-Citronellol", "(R)-(+)-Citronellol", "d-Citronellol", "(R)-(+)-\u03b2-Citronellol", "(+)-(R)-Citronellol", "(+)-\u03b2-Citronellol", "(R)-\u03b2-Citronellol", "(R)-(+)-3,7-Dimethyl-6-octen-1-ol", "(R)-3,7-Dimethyl-6-octen-1-ol", "(3R)-(+)-\u03b2-Citronellol", "(R)-3,7-Dimethyl-6-octen-1-ol", "(3R)-3,7-Dimethyloct-6-en-1-ol"], "SMILES": "C(CCC=C(C)C)(CCO)C", "physical_data": {"Molecular Weight": "156.27", "Molecular Formula": "C10H20O", "Boiling Point": "110 \u00b0C @ Press: 10 Torr", "Melting Point": "225-226 \u00b0C", "Density": "0.8568 g/cm\u00b3 @ Temp: 20 \u00b0C"}}