{"cas_no": "1117-77-7", "cn_name": "(\u4e59\u9170\u6c28\u57fa)\u4e59\u9178\u7532\u916f", "en_name": ["N-Acetylglycine methyl ester", "Glycine, N-acetyl-, methyl ester", "Aceturic acid, methyl ester", "N-Acetylglycine methyl ester", "Methyl acetylglycinate", "Methyl N-acetylglycinate", "Methyl N-acetylglycine", "Methyl 2-acetamidoacetate"], "SMILES": "C(CNC(C)=O)(OC)=O", "physical_data": {"Molecular Weight": "131.13", "Molecular Formula": "C5H9NO3", "Melting Point": "58 \u00b0C"}}