{"cas_no": "1117-86-8", "cn_name": "1,2-\u8f9b\u4e8c\u9187", "en_name": ["1,2-Octanediol", "1,2-Octanediol", "1,2-Dihydroxyoctane", "1,2-Octylene glycol", "n-Octane-1,2-diol", "7,8-Dihydroxyoctane", "(\u00b1)-Octane-1,2-diol", "Caprylyl glycol", "NSC 71546", "LexGard O", "Dermosoft Octiol", "Sodiol ON-D", "Microcare CLG", "1,2-Octandiol", "Hydrolite 8", "Hydrolite CG"], "SMILES": "C(CCCCCC)(CO)O", "physical_data": {"Molecular Weight": "146.23", "Molecular Formula": "C8H18O2", "Boiling Point": "135-136 \u00b0C @ Press: 10 Torr", "Melting Point": "35-37 \u00b0C"}}