{"cas_no": "1117-71-1", "cn_name": "4-\u6eb4\u5df4\u8c46\u9178\u7532\u916f", "en_name": ["Methyl 4-bromo-2-butenoate", "2-Butenoic acid, 4-bromo-, methyl ester", "Crotonic acid, 4-bromo-, methyl ester", "Methyl 4-bromo-2-butenoate", "Methyl 4-bromocrotonate", "Methyl bromocrotonate", "Methyl \u03b3-bromocrotonate", "4-Bromo-2-butenoic acid methyl ester", "NSC 77073", "4-Bromocrotonic acid methyl ester"], "SMILES": "C(C=CCBr)(OC)=O", "physical_data": {"Molecular Weight": "179.01", "Molecular Formula": "C5H7BrO2", "Boiling Point": "87 \u00b0C @ Press: 15 Torr", "Density": "1.490 g/cm\u00b3 @ Temp: 19 \u00b0C"}}