{"cas_no": "1118-46-3", "cn_name": "\u4e01\u57fa\u4e09\u6c2f\u5316\u9521", "en_name": ["Butyltin trichloride", "Stannane, butyltrichloro-", "Butyltin trichloride", "Butyltrichlorostannane", "Monobutyltin trichloride", "Trichlorobutyltin", "Butyltrichlorotin", "Trichlorobutylstannane", "Butyltin trichloride (BuSnCl3)", "n-Butyltin trichloride", "Certincoat TC 100", "NSC 67013"], "SMILES": "C([Sn](Cl)(Cl)Cl)CCC", "physical_data": {"Molecular Weight": "282.18", "Molecular Formula": "C4H9Cl3Sn", "Boiling Point": "102 \u00b0C @ Press: 12 Torr", "Melting Point": "-63 \u00b0C", "Density": "1.71 g/cm\u00b3 @ Temp: 25 \u00b0C"}}