{"cas_no": "1118-66-7", "cn_name": "4-\u6c28\u57fa-3-\u620a\u70ef-2-\u916e", "en_name": ["4-Amino-3-penten-2-one", "3-Penten-2-one, 4-amino-", "4-Amino-3-penten-2-one", "2-Acetyl-1-amino-1-methylethylene", "2-Amino-2-penten-4-one", "Acetylacetonamine", "Fluoral P", "2-Amino-4-oxo-2-pentene", "1-Acetyl-2-amino-1-propene", "2-Amino-2-pentene-4-one", "NSC 44500"], "SMILES": "C(=C(C)N)C(C)=O", "physical_data": {"Molecular Weight": "99.13", "Molecular Formula": "C5H9NO", "Boiling Point": "110-115 \u00b0C @ Press: 10 Torr", "Melting Point": "43 \u00b0C"}}