{"cas_no": "1118-68-9", "cn_name": "N,N-\u4e8c\u7532\u57fa\u7518\u6c28\u9178", "en_name": ["N,N-Dimethylglycine", "Glycine, N,N-dimethyl-", "N,N-Dimethylglycine", "Dimethylglycine", "N-Methylsarcosine", "(Dimethylamino)acetic acid", "N,N-Dimethylaminoacetic acid", "2-(Dimethylamino)acetic acid", "2-(N,N-Dimethylamino)acetic acid", "46: PN: WO2008005407 PAGE: 5 claimed protein", "DMG", "2-(Dimethylazaniumyl)acetate", "Vitamin B16"], "SMILES": "C(C(O)=O)N(C)C", "physical_data": {"Molecular Weight": "103.12", "Molecular Formula": "C4H9NO2", "Melting Point": "182-183 \u00b0C"}}