{"cas_no": "1118-69-0", "cn_name": "N-\u5f02\u4e19\u57fa\u4e59\u9170\u80fa", "en_name": ["Isopropylacetamide", "Acetamide, N-(1-methylethyl)-", "Acetamide, N-isopropyl-", "N-(1-Methylethyl)acetamide", "Isopropylacetamide", "N-Isopropylacetamide", "2-Acetamidopropane", "NSC 44147"], "SMILES": "N(C(C)C)C(C)=O", "physical_data": {"Molecular Weight": "101.15", "Molecular Formula": "C5H11NO", "Boiling Point": "219.5-224 \u00b0C", "Density": "0.912 g/cm\u00b3 @ Temp: 25 \u00b0C"}}