{"cas_no": "111872-58-3", "cn_name": "\u82c4\u87a8\u919a", "en_name": ["Halfenprox", "Benzene, 1-[[2-[4-(bromodifluoromethoxy)phenyl]-2-methylpropoxy]methyl]-3-phenoxy-", "1-[[2-[4-(Bromodifluoromethoxy)phenyl]-2-methylpropoxy]methyl]-3-phenoxybenzene", "4-Bromodifluoromethoxyneophyl 3-phenoxybenzyl ether", "Fubfenprox", "MTI 732", "Halfenprox", "Brofenprox", "Sirbon", "Anniverse", "Fluproxyfen"], "SMILES": "O(C1=CC(COCC(C)(C)C2=CC=C(OC(Br)(F)F)C=C2)=CC=C1)C3=CC=CC=C3", "physical_data": {"Molecular Weight": "477.34", "Molecular Formula": "C24H23BrF2O3", "Boiling Point": "291 \u00b0C", "Melting Point": "&lt;25 \u00b0C"}}