{"cas_no": "1118-89-4", "cn_name": "L-\u8c37\u6c28\u9178\u4e8c\u4e59\u916f\u76d0\u9178\u76d0", "en_name": ["L-Glutamic acid, 1,5-diethyl ester, hydrochloride (1:1)", "L-Glutamic acid, 1,5-diethyl ester, hydrochloride (1:1)", "Glutamic acid, diethyl ester, hydrochloride, L-", "L-Glutamic acid, diethyl ester, hydrochloride", "Diethyl L-glutamate hydrochloride", "Diethyl glutamate hydrochloride", "Glutamic acid diethyl ester hydrochloride", "NSC 12960", "NSC 17007", "(S)-1,5-Diethoxy-1,5-dioxopentan-2-amine hydrochloride", "(S)-Diethyl 2-aminopentanedioate hydrochloride"], "SMILES": "C(C(C(OCC)=O)N)CC(OCC)=O.Cl", "physical_data": {"Molecular Weight": "", "Molecular Formula": "C9H17NO4.ClH", "Melting Point": "112-113 \u00b0C"}}