{"cas_no": "1118-71-4", "cn_name": "2,2,6,6-\u56db\u7532\u57fa-3,5-\u5e9a\u4e8c\u916e", "en_name": ["2,2,6,6-Tetramethyl-3,5-heptanedione", "3,5-Heptanedione, 2,2,6,6-tetramethyl-", "2,2,6,6-Tetramethyl-3,5-heptanedione", "Dipivaloylmethane", "NSC 174296", "1,3-Di-tert-butyl-1,3-propanedione", "1,3-(tert-Butyl)-1,3-propanedione"], "SMILES": "C(C(C(C)(C)C)=O)C(C(C)(C)C)=O", "physical_data": {"Molecular Weight": "184.28", "Molecular Formula": "C11H20O2", "Boiling Point": "96-97 \u00b0C @ Press: 20 Torr", "Melting Point": "&gt;400 \u00b0C (decomp)"}}