{"cas_no": "1118-90-7", "cn_name": "L-2-\u6c28\u57fa\u5df1\u4e8c\u9178", "en_name": ["L-\u03b1-Aminoadipic acid", "Hexanedioic acid, 2-amino-, (2S)-", "Hexanedioic acid, 2-amino-, L-", "Hexanedioic acid, 2-amino-, (S)-", "(2S)-2-Aminohexanedioic acid", "L-\u03b1-Aminoadipic acid", "L-2-Aminoadipic acid", "L-\u03b1-Aminoadipate", "(S)-2-Aminoadipic acid", "L-Aminoadipic acid", "(S)-2-Aminohexanedioic acid", "(2S)-2-Aminohexanedioic acid", "(2S)-2-Azaniumyl-6-hydroxy-6-oxohexanoate"], "SMILES": "C(C(C(O)=O)N)CCC(O)=O", "physical_data": {"Molecular Weight": "161.16", "Molecular Formula": "C6H11NO4", "Melting Point": "193-194 \u00b0C"}}