{"cas_no": "111812-58-9", "cn_name": "\u5511\u87a8\u916f", "en_name": ["1,1-Dimethylethyl 4-[[[[(1,3-dimethyl-5-phenoxy-1H-pyrazol-4-yl)methylene]amino]oxy]methyl]benzoate", "Benzoic acid, 4-[[[[(1,3-dimethyl-5-phenoxy-1H-pyrazol-4-yl)methylene]amino]oxy]methyl]-, 1,1-dimethylethyl ester", "1,1-Dimethylethyl 4-[[[[(1,3-dimethyl-5-phenoxy-1H-pyrazol-4-yl)methylene]amino]oxy]methyl]benzoate"], "SMILES": "O(C1=C(C=NOCC2=CC=C(C(OC(C)(C)C)=O)C=C2)C(C)=NN1C)C3=CC=CC=C3", "physical_data": {"Molecular Weight": "421.49", "Molecular Formula": "C24H27N3O4", "Melting Point": "102 \u00b0C"}}