{"cas_no": "1118786-86-9", "cn_name": "2-(BOC-\u6c28\u57fa)-6-\u6c27\u4ee3\u87ba[3.3]\u5e9a\u70f7", "en_name": ["1,1-Dimethylethyl N-(6-oxospiro[3.3]hept-2-yl)carbamate", "Carbamic acid, N-(6-oxospiro[3.3]hept-2-yl)-, 1,1-dimethylethyl ester", "1,1-Dimethylethyl N-(6-oxospiro[3.3]hept-2-yl)carbamate", "tert-Butyl (6-oxospiro[3.3]heptan-2-yl)carbamate", "2-(Boc-amino)-6-oxospiro[3.3]heptane"], "SMILES": "N(C(OC(C)(C)C)=O)C1CC2(C1)CC(=O)C2", "physical_data": {"Molecular Weight": "225.28", "Molecular Formula": "C12H19NO3", "Boiling Point": "112 \u00b0C @ Press: 1 mmHg", "Melting Point": "94 \u00b0C"}}