{"cas_no": "1118-58-7", "cn_name": "2-\u7532\u57fa-1,3-\u620a\u4e8c\u70ef", "en_name": ["2-Methyl-1,3-pentadiene", "1,3-Pentadiene, 2-methyl-", "2-Methyl-1,3-pentadiene", "1,3-Dimethyl-1,3-butadiene", "NSC 123452", "2,4-Dimethyl-1,3-butadiene"], "SMILES": "C(C(C)=C)=CC", "physical_data": {"Molecular Weight": "82.14", "Molecular Formula": "C6H10", "Boiling Point": "75.6-76.0 \u00b0C", "Density": "0.71896 g/cm\u00b3 @ Temp: 20 \u00b0C"}}