{"cas_no": "1118-02-1", "cn_name": "\u4e09\u7532\u57fa\u7845\u57fa\u5f02\u6c30\u9178\u916f", "en_name": ["Trimethylsilyl isocyanate", "Silane, isocyanatotrimethyl-", "Isocyanatotrimethylsilane", "Trimethylsilyl isocyanate", "Isocyanic acid, trimethylsilyl ester", "Trimethylisocyanatosilane", "Orgatix SI 130", "Trimethysilyl isocyanate"], "SMILES": "N([Si](C)(C)C)=C=O", "physical_data": {"Molecular Weight": "115.21", "Molecular Formula": "C4H9NOSi", "Boiling Point": "91 \u00b0C", "Melting Point": "12.0-12.5 \u00b0C", "Density": "0.867 g/cm\u00b3"}}