{"cas_no": "1118-84-9", "cn_name": "\u4e59\u9170\u4e59\u9178\u70ef\u4e19\u916f", "en_name": ["Allyl acetoacetate", "Butanoic acid, 3-oxo-, 2-propen-1-yl ester", "Acetoacetic acid, allyl ester", "Butanoic acid, 3-oxo-, 2-propenyl ester", "Allyl acetoacetate", "Allyl acetylacetate", "Allyl 3-oxobutanoate", "NSC 24280", "3-Oxo-butyric acid allyl ester"], "SMILES": "C(C(OCC=C)=O)C(C)=O", "physical_data": {"Molecular Weight": "142.15", "Molecular Formula": "C7H10O3", "Boiling Point": "196 \u00b0C", "Melting Point": "-85 \u00b0C", "Density": "1.0366 g/cm\u00b3 @ Temp: 25 \u00b0C"}}