{"cas_no": "1118-12-3", "cn_name": "\u53d4\u4e01\u8132", "en_name": ["tert-Butylurea", "Urea, N-(1,1-dimethylethyl)-", "Urea, tert-butyl-", "Urea, (1,1-dimethylethyl)-", "N-(1,1-Dimethylethyl)urea", "tert-Butylurea", "N-tert-Butylurea", "1-tert-Butylurea", "NSC 4604", "(1,1-Dimethylethyl)urea"], "SMILES": "N(C(C)(C)C)C(N)=O", "physical_data": {"Molecular Weight": "116.16", "Molecular Formula": "C5H12N2O", "Melting Point": "183 \u00b0C (decomp)"}}