{"cas_no": "1118-92-9", "cn_name": "N,N-\u4e8c\u7532\u57fa\u8f9b\u9170\u80fa", "en_name": ["N,N-Dimethyloctanamide", "Octanamide, N,N-dimethyl-", "Caprylamide, N,N-dimethyl-", "N,N-Dimethyloctanamide", "N,N-Dimethylcaprylamide"], "SMILES": "C(C(N(C)C)=O)CCCCCC", "physical_data": {"Molecular Weight": "171.28", "Molecular Formula": "C10H21NO", "Boiling Point": "175-177 \u00b0C @ Press: 0.15 Torr"}}