{"cas_no": "111902-57-9", "cn_name": "\u66ff\u83ab\u666e\u5229", "en_name": ["Temocapril", "1,4-Thiazepine-4(5H)-acetic acid, 6-[[(1S)-1-(ethoxycarbonyl)-3-phenylpropyl]amino]tetrahydro-5-oxo-2-(2-thienyl)-, (2S,6R)-", "1,4-Thiazepine-4(5H)-acetic acid, 6-[[1-(ethoxycarbonyl)-3-phenylpropyl]amino]tetrahydro-5-oxo-2-(2-thienyl)-, [2S-[2\u03b1,6\u03b2(R*)]]-", "(2S,6R)-6-[[(1S)-1-(Ethoxycarbonyl)-3-phenylpropyl]amino]tetrahydro-5-oxo-2-(2-thienyl)-1,4-thiazepine-4(5H)-acetic acid", "Temocapril"], "SMILES": "C(C(O)=O)N1CC(SCC(NC(CCC2=CC=CC=C2)C(OCC)=O)C1=O)C3=CC=CS3", "physical_data": {"Molecular Weight": "476.61", "Molecular Formula": "C23H28N2O5S2", "Melting Point": "168 \u00b0C"}}