{"cas_no": "1119-51-3", "cn_name": "5-\u6eb4-1-\u620a\u70ef", "en_name": ["5-Bromo-1-pentene", "1-Pentene, 5-bromo-", "5-Bromo-1-pentene", "1-Bromo-4-pentene", "4-Pentenyl bromide"], "SMILES": "C(CC=C)CBr", "physical_data": {"Molecular Weight": "149.03", "Molecular Formula": "C5H9Br", "Boiling Point": "125.5 \u00b0C", "Density": "1.2581 g/cm\u00b3 @ Temp: 20 \u00b0C"}}