{"cas_no": "1119-60-4", "cn_name": "6-\u5e9a\u9178", "en_name": ["6-Heptenoic acid", "6-Heptenoic acid", "6-Heptanoic acid"], "SMILES": "C(CC(O)=O)CCC=C", "physical_data": {"Molecular Weight": "128.17", "Molecular Formula": "C7H12O2", "Boiling Point": "226 \u00b0C", "Melting Point": "-6.5 \u00b0C", "Density": "0.9515 g/cm\u00b3 @ Temp: 14.9 \u00b0C"}}