{"cas_no": "1119-48-8", "cn_name": "N-\u7532\u57fa-4-\u6c28\u57fa\u4e01\u9178", "en_name": ["4-(Methylamino)butyric acid", "Butanoic acid, 4-(methylamino)-", "Butyric acid, 4-(methylamino)-", "4-(Methylamino)butanoic acid", "N-Methyl-4-aminobutyric acid", "N-Methyl-\u03b3-aminobutyric acid", "N-Methyl-GABA", "4-(Methylamino)butyric acid", "4-(N-Methylamino)butanoic acid", "N-Methyl-4-aminobutanoic acid"], "SMILES": "C(CCNC)C(O)=O", "physical_data": {"Molecular Weight": "117.15", "Molecular Formula": "C5H11NO2", "Melting Point": "143-145 \u00b0C"}}