{"cas_no": "1119-97-7", "cn_name": "N,N,N-\u4e09\u7532\u57fa-1-\u5341\u56db\u70f7\u57fa\u6eb4\u5316\u94f5", "en_name": ["Tetradecyltrimethylammonium bromide", "1-Tetradecanaminium, N,N,N-trimethyl-, bromide (1:1)", "Ammonium, trimethyltetradecyl-, bromide", "Trimethyltetradecylammonium bromide", "1-Tetradecanaminium, N,N,N-trimethyl-, bromide", "Morpan T", "Tetradonium bromide", "Mytab", "Myristyltrimethylammonium bromide", "Trimethylmyristylammonium bromide", "N,N,N-Trimethyl-1-tetradecanaminium bromide", "Quaternium 13", "n-Tetradecyltrimethylammonium bromide", "MTAB", "Querton 14Br40", "Tetradecyltrimethylammonium bromide", "TTAB", "TTAB (surfactant)", "Pentonium 4Br40", "Microcide II", "Myrtrimonium bromide", "Cetrimide BP", "N-Tetradecyl-N,N,N-trimethylammonium bromide", "(1-Tetradecyl)trimethylammonium bromide", "C14TAB", "MiTMAB"], "SMILES": "C(CCCCCCCCCCC)CC[N+](C)(C)C.[Br-]", "physical_data": {"Molecular Weight": "", "Molecular Formula": "C17H38N.Br", "Melting Point": "247.5 \u00b0C", "Density": "1.00 g/cm\u00b3"}}