{"cas_no": "1119-33-1", "cn_name": "L-\u8c37\u6c28\u91785\u4e59\u8102", "en_name": ["Ethyl L-glutamate", "L-Glutamic acid, 5-ethyl ester", "Glutamic acid, 5-ethyl ester, L-", "\u03b3-Ethyl L-glutamate", "\u03b3-Ethyl glutamate", "L-Glutamic acid \u03b3-ethyl ester", "5-Ethyl L-glutamate", "\u03b3-Monoethyl glutamate", "Ethyl L-glutamate", "NSC 156977", "NSC 16885", "(2S)-2-Amino-5-ethoxy-5-oxopentanoic acid"], "SMILES": "C(CC(C(O)=O)N)C(OCC)=O", "physical_data": {"Molecular Weight": "175.18", "Molecular Formula": "C7H13NO4", "Melting Point": "191 \u00b0C"}}