{"cas_no": "1119-46-6", "cn_name": "5-\u6c2f\u620a\u9178", "en_name": ["5-Chloropentanoic acid", "Pentanoic acid, 5-chloro-", "Valeric acid, 5-chloro-", "5-Chloropentanoic acid", "5-Chlorovaleric acid", "\u03b4-Chlorovaleric acid", "\u03c9-Chloropentanoic acid", "\u03c9-Monochlorovaleric acid", "\u03b4-Chloropentanoic acid"], "SMILES": "C(CCCCl)C(O)=O", "physical_data": {"Molecular Weight": "136.58", "Molecular Formula": "C5H9ClO2", "Boiling Point": "230 \u00b0C", "Melting Point": "18 \u00b0C", "Density": "1.1832 g/cm\u00b3 @ Temp: 20 \u00b0C"}}