{"cas_no": "1119-16-0", "cn_name": "4-\u7532\u57fa\u620a\u919b", "en_name": ["Isocaproaldehyde", "Pentanal, 4-methyl-", "Valeraldehyde, 4-methyl-", "4-Methylpentanal", "Isocaproaldehyde", "Isohexanal", "4-Methylvaleraldehyde", "4-Methyl-1-pentanal", "\u03b3-Methylvaleraldehyde", "4-Methylpentan-1-one"], "SMILES": "C(C(C)C)CC=O", "physical_data": {"Molecular Weight": "100.16", "Molecular Formula": "C6H12O", "Boiling Point": "121 \u00b0C"}}