{"cas_no": "1119-62-6", "cn_name": "3,3'-\u4e8c\u6c22\u6c27\u5549\u9178", "en_name": ["3,3\u2032-Dithiodipropionic acid", "Propanoic acid, 3,3\u2032-dithiobis-", "Propionic acid, 3,3\u2032-dithiodi-", "Propionic acid, \u03b2,\u03b2\u2032-dithiodi-", "Propionic acid, \u03b2,\u03b2\u2032-dithiobis-", "3,3\u2032-Dithiobis[propanoic acid]", "3,3\u2032-Dithiodipropionic acid", "\u03b2,\u03b2\u2032-Dithiodipropionic acid", "2-Carboxyethyl disulfide", "Bis(2-carboxyethyl)disulfide", "3,3\u2032-Dithiodipropanoic acid", "3,3-Dithiobispropionic acid", "NSC 677544", "NSC 18841", "DTDPA", "Disulfide dipropanoic acid", "3,3\u2032-Bisthiodipropionic acid", "3,3\u2032-Disulfanediyldipropanoic acid", "3-[(2-Carboxyethyl)disulfanyl]propanoic acid"], "SMILES": "C(CC(O)=O)SSCCC(O)=O", "physical_data": {"Molecular Weight": "210.27", "Molecular Formula": "C6H10O4S2", "Melting Point": "156-157 \u00b0C"}}