{"cas_no": "111969-64-3", "cn_name": "L-\u5b5f\u57fa\u4e59\u919b\u9178\u916f", "en_name": ["(1R,2S,5R)-5-Methyl-2-(1-methylethyl)cyclohexyl 2,2-dihydroxyacetate", "Acetic acid, 2,2-dihydroxy-, (1R,2S,5R)-5-methyl-2-(1-methylethyl)cyclohexyl ester", "Acetic acid, dihydroxy-, 5-methyl-2-(1-methylethyl)cyclohexyl ester, [1R-(1\u03b1,2\u03b2,5\u03b1)]-", "Acetic acid, dihydroxy-, (1R,2S,5R)-5-methyl-2-(1-methylethyl)cyclohexyl ester", "(1R,2S,5R)-5-Methyl-2-(1-methylethyl)cyclohexyl 2,2-dihydroxyacetate", "2,2-Dihydroxyacetic acid, (-)-menthyl ester"], "SMILES": "O(C(C(O)O)=O)C1C(C(C)C)CCC(C)C1", "physical_data": {"Molecular Weight": "230.30", "Molecular Formula": "C12H22O4", "Melting Point": "80-81 \u00b0C"}}