{"cas_no": "111988-49-9", "cn_name": "\u567b\u866b\u5549", "en_name": ["Thiacloprid", "Cyanamide, N-[3-[(6-chloro-3-pyridinyl)methyl]-2-thiazolidinylidene]-, [N(Z)]-", "Cyanamide, [3-[(6-chloro-3-pyridinyl)methyl]-2-thiazolidinylidene]-, [N(Z)]-", "[N(Z)]-N-[3-[(6-Chloro-3-pyridinyl)methyl]-2-thiazolidinylidene]cyanamide", "Thiacloprid", "Calypso", "Calypso 70WG", "Calypso (pesticide)", "Biscaya", "Calypso Ultra", "Bariard", "Calypso 4F", "Calypso 480SC", "Sonido"], "SMILES": "C(N1C(=NC#N)SCC1)C=2C=CC(Cl)=NC2", "physical_data": {"Molecular Weight": "252.72", "Molecular Formula": "C10H9ClN4S", "Melting Point": "128-129 \u00b0C"}}