{"cas_no": "111974-72-2", "cn_name": "\u5bcc\u9a6c\u9178\u55b9\u786b\u5e73", "en_name": ["Quetiapine fumarate", "Ethanol, 2-[2-(4-dibenzo[b,f][1,4]thiazepin-11-yl-1-piperazinyl)ethoxy]-, (2E)-2-butenedioate (2:1)", "Ethanol, 2-[2-(4-dibenzo[b,f][1,4]thiazepin-11-yl-1-piperazinyl)ethoxy]-, (E)-2-butenedioate (2:1) (salt)", "Ethanol, 2-[2-(4-dibenzo[b,f][1,4]thiazepin-11-yl-1-piperazinyl)ethoxy]-, (2E)-2-butenedioate (2:1) (salt)", "Dibenzo[b,f][1,4]thiazepine, ethanol deriv.", "ICI 204636", "Seroquel", "ZM 204636", "Quetiapine fumarate", "ZD 5077", "Quetiapine hemifumarate", "Loquen", "Quitpin", "Quetros", "Kwetaplex"], "SMILES": "C(=CC(O)=O)C(O)=O.C(COCCO)N1CCN(C=2C=3C(SC=4C(N2)=CC=CC4)=CC=CC3)CC1", "physical_data": {"Molecular Weight": "", "Molecular Formula": "C21H25N3O2S.<sup>1</sup>/2C4H4O4", "Melting Point": "173 \u00b0C"}}