{"cas_no": "111955-05-6", "cn_name": "2-\u7532\u6c27\u7fb0\u57fa\u73af\u5df1\u70f7-1-\u7fa7\u9178", "en_name": ["rel-1-Methyl (1R,2S)-1,2-cyclohexanedicarboxylate", "1,2-Cyclohexanedicarboxylic acid, 1-methyl ester, (1R,2S)-rel-", "1,2-Cyclohexanedicarboxylic acid, monomethyl ester, cis-(\u00b1)-", "1,2-Cyclohexanedicarboxylic acid, monomethyl ester, (1R,2S)-rel-", "rel-1-Methyl (1R,2S)-1,2-cyclohexanedicarboxylate", "1,2-Cyclohexanedicarboxylic acid, monomethyl ester, cis-", "cis-2-Carbomethoxycyclohexanecarboxylic acid", "NSC 53943"], "SMILES": "C(OC)(=O)C1C(C(O)=O)CCCC1", "physical_data": {"Molecular Weight": "186.21", "Molecular Formula": "C9H14O4", "Boiling Point": "82 \u00b0C @ Press: 0.5 Torr", "Melting Point": "68-69 \u00b0C"}}