{"cas_no": "1119-40-0", "cn_name": "\u620a\u4e8c\u9178\u4e8c\u7532\u916f", "en_name": ["Dimethyl glutarate", "Pentanedioic acid, 1,5-dimethyl ester", "Glutaric acid, dimethyl ester", "Pentanedioic acid, dimethyl ester", "Dimethyl glutarate", "Methyl glutarate", "Dimethyl pentanedioate", "DBE 5", "Dimethyl 1,3-propanedicarboxylate", "NSC 58578", "1,5-Dimethyl pentanedioate"], "SMILES": "C(CCC(OC)=O)C(OC)=O", "physical_data": {"Molecular Weight": "160.17", "Molecular Formula": "C7H12O4", "Boiling Point": "93.5-94.5 \u00b0C @ Press: 13 Torr", "Melting Point": "-42.5 \u00b0C", "Density": "1.0876 g/cm\u00b3 @ Temp: 20 \u00b0C"}}