{"cas_no": "111911-87-6", "cn_name": "\u745e\u5df4\u5339\u7279", "en_name": ["Rebamipide", "4-Quinolinepropanoic acid, \u03b1-[(4-chlorobenzoyl)amino]-1,2-dihydro-2-oxo-", "\u03b1-[(4-Chlorobenzoyl)amino]-1,2-dihydro-2-oxo-4-quinolinepropanoic acid", "OPC 12759", "Proamipide", "Rebamipide", "Mucosta", "Rebator", "2-(4-Chloro-benzoylamino)-3-(2-hydroxy-quinolin-4-yl)-propionic acid", "2-(4-Chloro-benzoylamino)-3-(2-oxo-1,2-dihydro-quinolin-4-yl)-propionic acid", "2-[(4-Chlorobenzoyl)amino]-3-(2-oxo-1H-quinolin-4-yl)propanoic acid"], "SMILES": "C(C(NC(=O)C1=CC=C(Cl)C=C1)C(O)=O)C=2C=3C(NC(=O)C2)=CC=CC3", "physical_data": {"Molecular Weight": "370.79", "Molecular Formula": "C19H15ClN2O4", "Melting Point": "248-257 \u00b0C (decomp)"}}