{"cas_no": "111957-48-3", "cn_name": "3-O-{2-O-[6-O-(P\u7f9f\u57fa-\u53cd-\u9999\u8c46\u9170)-\u8461\u8404\u7cd6\u57fa]-\u9f20\u674e\u7cd6\u57fa}\u5c71\u5948\u915a", "en_name": ["3-[[6-Deoxy-2-O-[6-O-[(2E)-3-(4-hydroxyphenyl)-1-oxo-2-propen-1-yl]-\u03b2-D-glucopyranosyl]-\u03b1-L-mannopyranosyl]oxy]-5,7-dihydroxy-2-(4-hydroxyphenyl)-4H-1-benzopyran-4-one", "4H-1-Benzopyran-4-one, 3-[[6-deoxy-2-O-[6-O-[(2E)-3-(4-hydroxyphenyl)-1-oxo-2-propen-1-yl]-\u03b2-D-glucopyranosyl]-\u03b1-L-mannopyranosyl]oxy]-5,7-dihydroxy-2-(4-hydroxyphenyl)-", "4H-1-Benzopyran-4-one, 3-[[6-deoxy-2-O-[6-O-[(2E)-3-(4-hydroxyphenyl)-1-oxo-2-propenyl]-\u03b2-D-glucopyranosyl]-\u03b1-L-mannopyranosyl]oxy]-5,7-dihydroxy-2-(4-hydroxyphenyl)-", "3-[[6-Deoxy-2-O-[6-O-[(2E)-3-(4-hydroxyphenyl)-1-oxo-2-propen-1-yl]-\u03b2-D-glucopyranosyl]-\u03b1-L-mannopyranosyl]oxy]-5,7-dihydroxy-2-(4-hydroxyphenyl)-4H-1-benzopyran-4-one", "Kaempferol 3-O-\u03b2-D-(6\u2032\u2032-p-coumaroyl)glucopyranosyl(1\u21922)-\u03b1-L-rhamnopyranoside", "NP-008297"], "SMILES": "O(C1=C(OC=2C(C1=O)=C(O)C=C(O)C2)C3=CC=C(O)C=C3)C4C(OC5OC(COC(C=CC6=CC=C(O)C=C6)=O)C(O)C(O)C5O)C(O)C(O)C(C)O4", "physical_data": {"Molecular Weight": "740.66", "Molecular Formula": "C36H36O17", "Melting Point": "195 \u00b0C"}}