{"cas_no": "1119-72-8", "cn_name": "\u987a\u5f0f-\u5df2\u4e8c\u70ef\u4e8c\u9178", "en_name": ["cis,cis-Muconic acid", "2,4-Hexadienedioic acid, (2Z,4Z)-", "2,4-Hexadienedioic acid, (Z,Z)-", "(2Z,4Z)-2,4-Hexadienedioic acid", "cis,cis-Muconic acid", "(Z,Z)-Muconic acid"], "SMILES": "C(C=CC(O)=O)=CC(O)=O", "physical_data": {"Molecular Weight": "142.11", "Molecular Formula": "C6H6O4", "Melting Point": "195 \u00b0C"}}