{"cas_no": "111991-09-4", "cn_name": "\u70df\u5627\u78fa\u9686", "en_name": ["Nicosulfuron", "3-Pyridinecarboxamide, 2-[[[[(4,6-dimethoxy-2-pyrimidinyl)amino]carbonyl]amino]sulfonyl]-N,N-dimethyl-", "2-[[[[(4,6-Dimethoxy-2-pyrimidinyl)amino]carbonyl]amino]sulfonyl]-N,N-dimethyl-3-pyridinecarboxamide", "HU 195", "SL 950", "Nicosulfuron", "DPX-V 9360", "Accent", "Accent (pesticide)", "EMA 1534", "Motivell", "Milagro", "Onehope Nyuzai", "Kelvin", "N-[(4,6-Dimethoxypyrimidin-2-yl)aminocarbonyl]-3-dimethylaminocarbonyl-2-pyridinesulfonamide", "Samson", "One Hope", "Kelvin OD", "Termidor (herbicide)", "Termidor", "Milagro Extra", "Milagro Extra 6 OD"], "SMILES": "C(N(C)C)(=O)C1=C(S(NC(NC=2N=C(OC)C=C(OC)N2)=O)(=O)=O)N=CC=C1", "physical_data": {"Molecular Weight": "410.40", "Molecular Formula": "C15H18N6O6S", "Melting Point": "142 \u00b0C"}}