{"cas_no": "1119-87-5", "cn_name": "1,2-\u5341\u4e8c\u70f7\u4e8c\u9187", "en_name": ["1,2-Dodecanediol", "1,2-Dodecanediol", "1,2-Dihydroxydodecane", "1,2-Dodecylene glycol", "n-Dodecane-1,2-diol", "NSC 25930", "2-Hydroxylauryl alcohol"], "SMILES": "C(CCC(CO)O)CCCCCCC", "physical_data": {"Molecular Weight": "202.33", "Molecular Formula": "C12H26O2", "Boiling Point": "179-181 \u00b0C @ Press: 4 Torr", "Melting Point": "60-61 \u00b0C"}}