{"cas_no": "1119-34-2", "cn_name": "L-\u7cbe\u6c28\u9178\u76d0\u9178\u76d0", "en_name": ["L-Arginine, monohydrochloride", "L-Arginine, hydrochloride (1:1)", "Arginine, monohydrochloride, L-", "L-Arginine, monohydrochloride", "Argivene", "R-Gene", "Arginine hydrochloride", "Arginine monohydrochloride", "L-Arginine hydrochloride", "Arginine monochloride", "Argamine", "Detoxargin", "Levargin", "Minophagen A", "NSC 203450", "NSC 7914", "L-(+)-Arginine monohydrochloride", "Tivortin", "L-(+)-Arginine hydrochloride"], "SMILES": "C(CCNC(=N)N)C(C(O)=O)N.Cl", "physical_data": {"Molecular Weight": "", "Molecular Formula": "C6H14N4O2.ClH", "Melting Point": "222 \u00b0C"}}