{"cas_no": "1119-94-4", "cn_name": "\u6708\u6842\u57fa\u4e09\u7532\u57fa\u6eb4\u5316\u94f5", "en_name": ["Dodecyltrimethylammonium bromide", "1-Dodecanaminium, N,N,N-trimethyl-, bromide (1:1)", "Ammonium, dodecyltrimethyl-, bromide", "1-Dodecanaminium, N,N,N-trimethyl-, bromide", "Dodecyltrimethylammonium bromide", "n-Dodecyltrimethylammonium bromide", "Lauryltrimethylammonium bromide", "Morpan D", "Trimethyldodecylammonium bromide", "Trimethyllaurylammonium bromide", "N,N,N-Trimethyl-1-dodecanaminium bromide", "N-Lauryl-N,N,N-trimethylammonium bromide", "Dctab", "DTAB", "DTAB (surfactant)", "FSM 23", "N,N,N-Trimethyldodecan-1-ammonium bromide", "LTAB", "N-Dodecyl-N,N,N-trimethylammonium bromide", "DDTMA", "C 12TAB", "C12TAB", "Laurtrimonium bromide", "TM 120 (quaternary compound)", "TM 120"], "SMILES": "C(CCCCCCCCC)CC[N+](C)(C)C.[Br-]", "physical_data": {"Molecular Weight": "", "Molecular Formula": "C15H34N.Br", "Melting Point": "228-230 \u00b0C"}}