{"cas_no": "1119-65-9", "cn_name": "2-\u620a\u7094", "en_name": ["2-Heptyne", "2-Heptyne", "1-Methyl-2-butylacetylene", "Butyl(methyl)acetylene", "NSC 63874"], "SMILES": "C(CCC)C#CC", "physical_data": {"Molecular Weight": "96.17", "Molecular Formula": "C7H12", "Boiling Point": "112 \u00b0C", "Density": "0.7504 g/cm\u00b3 @ Temp: 20 \u00b0C"}}