{"cas_no": "1119-85-3", "cn_name": "1,4-\u4e8c\u6c30\u57fa-2-\u4e01\u70ef", "en_name": ["3-Hexenedinitrile", "3-Hexenedinitrile", "\u03b2-Hydromucononitrile", "1,4-Dicyano-2-butene", "NSC 11685"], "SMILES": "C(=CCC#N)CC#N", "physical_data": {"Molecular Weight": "106.13", "Molecular Formula": "C6H6N2", "Boiling Point": "135-140 \u00b0C @ Press: 3 Torr", "Melting Point": "74-76 \u00b0C"}}