{"cas_no": "1119-86-4", "cn_name": "1,2-\u7678\u4e8c\u9187", "en_name": ["1,2-Decanediol", "1,2-Decanediol", "1,2-Dihydroxydecane", "1,2-Decylene glycol", "n-Decane-1,2-diol", "NSC 28662", "SymClariol", "decalene glycol", "Decylene glycol"], "SMILES": "C(CCC(CO)O)CCCCC", "physical_data": {"Molecular Weight": "174.28", "Molecular Formula": "C10H22O2", "Boiling Point": "93-96 \u00b0C @ Press: 0.05 Torr", "Melting Point": "48-49 \u00b0C"}}