{"cas_no": "111974-69-7", "cn_name": "\u55b9\u786b\u5e73", "en_name": ["Quetiapine", "Ethanol, 2-[2-(4-dibenzo[b,f][1,4]thiazepin-11-yl-1-piperazinyl)ethoxy]-", "Dibenzo[b,f][1,4]thiazepine, ethanol deriv.", "2-[2-(4-Dibenzo[b,f][1,4]thiazepin-11-yl-1-piperazinyl)ethoxy]ethanol", "Quetiapine", "Ketipinor", "Seronia"], "SMILES": "C(COCCO)N1CCN(C=2C=3C(SC=4C(N2)=CC=CC4)=CC=CC3)CC1", "physical_data": {"Molecular Weight": "383.51", "Molecular Formula": "C21H25N3O2S", "Melting Point": "172-173 \u00b0C"}}