{"cas_no": "1119-44-4", "cn_name": "3-\u5e9a\u70ef-2-\u916e", "en_name": ["3-Hepten-2-one", "3-Hepten-2-one"], "SMILES": "C(=CCCC)C(C)=O", "physical_data": {"Molecular Weight": "112.17", "Molecular Formula": "C7H12O", "Boiling Point": "157 \u00b0C", "Density": "0.853 g/cm\u00b3 @ Temp: 25 \u00b0C"}}