{"cas_no": "112-72-1", "cn_name": "1-\u5341\u56db\u9187", "en_name": ["1-Tetradecanol", "1-Tetradecanol", "Tetradecanol", "Lanette Wax KS", "Loxanol V", "Myristic alcohol", "Myristyl alcohol", "Tetradecyl alcohol", "n-Tetradecyl alcohol", "n-Tetradecanol", "n-Tetradecan-1-ol", "Lanette K", "Alfol 14", "1-Hydroxytetradecane", "Kalcohl 40", "1-Tetradecyl alcohol", "Conol 1495", "Adol 18", "Kalcohl 4098", "Nacol 14-95", "Lanette 14", "NSC 8549", "Lorol C 14", "Kalcol 4098", "Hinol 14SS", "Nacol 14-98", "Speziol C 14 Pharma", "Kolliwax MA", "Hainol 14SS", "Nafol 14"], "SMILES": "C(CCCCCCC)CCCCCCO", "physical_data": {"Molecular Weight": "214.39", "Molecular Formula": "C14H30O", "Boiling Point": "289 \u00b0C", "Melting Point": "39.5 \u00b0C", "Density": "0.8165 g/cm\u00b3 @ Temp: 20 \u00b0C"}}