{"cas_no": "112-26-5", "cn_name": "1,2-\u4e8c(2-\u6c2f\u4e59\u6c27\u57fa)\u4e59\u70f7", "en_name": ["1,2-Bis(2-chloroethoxy)ethane", "Ethane, 1,2-bis(2-chloroethoxy)-", "1,2-Bis(2-chloroethoxy)ethane", "2-(2-Chloroethoxy)ethyl 2\u2032-chloroethyl ether", "Triethylene glycol dichloride", "Triglycol dichloride", "1,2-Bis(chloroethoxy)ethane", "Bis(2-chloroethoxy)ethane", "Bis(chloroethoxy)ethane", "1,8-Dichloro-3,6-dioxaoctane", "Ethylene glycol bis(2-chloroethyl) ether", "1-Chloro-2-[2-(2-chloroethoxy)ethoxy]ethane"], "SMILES": "C(COCCCl)OCCCl", "physical_data": {"Molecular Weight": "187.06", "Molecular Formula": "C6H12Cl2O2", "Boiling Point": "241.3 \u00b0C", "Melting Point": "-31.5 \u00b0C", "Density": "1.1974 g/cm\u00b3 @ Temp: 20 \u00b0C"}}