{"cas_no": "112-45-8", "cn_name": "10-\u5341\u4e00\u70ef\u919b", "en_name": ["10-Undecenal", "10-Undecenal", "10-Hendecenal", "Undecylenic aldehyde", "Undecylene aldehyde", "10-Undecen-1-al", "\u03c9-Undecenyl aldehyde", "NSC 44900", "Intreleven aldehyde", "10-Undecylenic aldehyde", "10-Undecenyl aldehyde", "Aldehyde C 111LEN", "Undec-10-enal"], "SMILES": "C(CCCCC=O)CCCC=C", "physical_data": {"Molecular Weight": "168.28", "Molecular Formula": "C11H20O", "Boiling Point": "130-140 \u00b0C @ Press: 30 Torr"}}