{"cas_no": "112-25-4", "cn_name": "\u4e59\u4e8c\u9187\u5df1\u919a", "en_name": ["Glycol monohexyl ether", "Ethanol, 2-(hexyloxy)-", "2-(Hexyloxy)ethanol", "Ethylene glycol n-hexyl ether", "Ethylene glycol monohexyl ether", "Glycol monohexyl ether", "n-Hexyl Cellosolve", "Hexyl cellosolve", "3-Oxa-1-nonanol", "Ethylene glycol mono-n-hexyl ether", "Ethylene glycol hexyl ether", "Hexyl glycol", "2-(Hexyloxy)ethan-1-ol"], "SMILES": "C(COCCO)CCCC", "physical_data": {"Molecular Weight": "146.23", "Molecular Formula": "C8H18O2", "Boiling Point": "208 \u00b0C @ Press: 760 Torr", "Melting Point": "-45.1 \u00b0C", "Density": "0.8894 g/cm\u00b3 @ Temp: 20 \u00b0C"}}