{"cas_no": "112-73-2", "cn_name": "\u4e8c\u4e59\u4e8c\u9187\u4e8c\u4e01\u919a", "en_name": ["Diethylene glycol dibutyl ether", "Butane, 1,1\u2032-[oxybis(2,1-ethanediyloxy)]bis-", "Ether, bis(2-butoxyethyl)", "1,1\u2032-[Oxybis(2,1-ethanediyloxy)]bis[butane]", "Bis(2-butoxyethyl) ether", "2,2\u2032-Dibutoxyethyl ether", "Dibutyl Carbitol", "5,8,11-Trioxapentadecane", "Diethylene glycol dibutyl ether", "2-Butoxyethyl ether", "2-(2-Butoxyethoxy)-1-butoxyethane", "Butex", "DBDG", "Hisolve BDB", "Butyl diglyme", "1-[2-(2-Butoxyethoxy)ethoxy]butane"], "SMILES": "O(CCOCCCC)CCOCCCC", "physical_data": {"Molecular Weight": "218.33", "Molecular Formula": "C12H26O3", "Boiling Point": "256 \u00b0C", "Melting Point": "-60 \u00b0C", "Density": "0.8847 g/cm\u00b3 @ Temp: 16 \u00b0C"}}