{"cas_no": "112-05-0", "cn_name": "\u58ec\u9178", "en_name": ["Nonanoic acid", "Nonanoic acid", "Nonoic acid", "n-Nonoic acid", "Nonylic acid", "1-Octanecarboxylic acid", "Pelargonic acid", "n-Nonylic acid", "n-Nonanoic acid", "n-Pelargonic acid", "Grantrico", "NSC 62787", "NSC 65450", "NSC 65455", "Emery 1203", "Thinex", "Emerion W 90PA", "Emery 1202", "Prifrac 2914"], "SMILES": "C(CCCCC)CCC(O)=O", "physical_data": {"Molecular Weight": "158.24", "Molecular Formula": "C9H18O2", "Boiling Point": "252-253 \u00b0C @ Press: 760 Torr", "Melting Point": "12.5 \u00b0C", "Density": "0.9052 g/cm\u00b3 @ Temp: 20 \u00b0C"}}