{"cas_no": "112-62-9", "cn_name": "\u6cb9\u9178\u7532\u916f", "en_name": ["Methyl oleate", "9-Octadecenoic acid (9Z)-, methyl ester", "Oleic acid, methyl ester", "9-Octadecenoic acid (Z)-, methyl ester", "Emery 2301", "Methyl oleate", "Emerest 2801", "Methyl (Z)-9-octadecenoate", "Methyl cis-9-octadecenoate", "cis-9-Octadecenoic acid methyl ester", "Edenor MeTiO5", "Witconol 2301", "(Z)-9-Octadecenoic acid methyl ester", "Esterol 112", "Priolube 1403", "Nissan Unister M 182A", "Exceparl M-OL", "Unister M 182A", "ADJ 100", "Phytorob 926-67", "Edenor Me 90/95V", "Radia 7060", "Agnique ME 181U", "Carolube 1885", "Agrique ME 181-1", "Priolube 1400", "Synative ES-ME-V", "CE 1897", "Pernil MeTiO5", "Synative ES ME TI 05", "cis-Oleic acid methyl ester", "Amesolv CME", "M 182A", "Ti 05", "Methyl (9Z)-9-octadecenoate", "Toenol 2180", "Agnique ME 181", "Exceparl MOL", "Trilube 11"], "SMILES": "C(CCC=CCCCCCCCC)CCCCC(OC)=O", "physical_data": {"Molecular Weight": "296.49", "Molecular Formula": "C19H36O2", "Boiling Point": "218.5 \u00b0C @ Press: 20 Torr", "Melting Point": "-19.9 \u00b0C", "Density": "0.8739 g/cm\u00b3 @ Temp: 20 \u00b0C"}}