{"cas_no": "112-14-1", "cn_name": "\u918b\u9178\u8f9b\u916f", "en_name": ["Octyl acetate", "Acetic acid, octyl ester", "Octyl alcohol acetate", "Caprylyl acetate", "Octyl acetate", "n-Octyl acetate", "1-Octyl acetate", "1-Acetoxyoctane", "1-Octanol acetate", "NSC 67348", "Acetic acid octanyl ester", "Octyl ethanoate", "Octanyl acetate"], "SMILES": "C(CCCCCC)COC(C)=O", "physical_data": {"Molecular Weight": "172.26", "Molecular Formula": "C10H20O2", "Boiling Point": "210 \u00b0C", "Melting Point": "-38.5 \u00b0C"}}