{"cas_no": "112-51-6", "cn_name": "\u4e8c\u620a\u57fa\u4e8c\u786b\u919a", "en_name": ["Dipentyl disulfide", "Disulfide, dipentyl", "Pentyl disulfide", "Dipentyl disulfide", "Diamyl disulfide", "Bis(1-pentyl) disulfide", "6,7-Dithiadodecane", "n-Amyl disulfide", "n-Pentanedisulfide", "Di-n-amyl disulfide", "Di-n-pentyl disulfide", "1-(Pentyldisulfanyl)pentane"], "SMILES": "S(SCCCCC)CCCCC", "physical_data": {"Molecular Weight": "206.41", "Molecular Formula": "C10H22S2", "Boiling Point": "119 \u00b0C", "Melting Point": "8.0 \u00b0C", "Density": "0.9221 g/cm\u00b3 @ Temp: 20 \u00b0C"}}