{"cas_no": "112-13-0", "cn_name": "\u7678\u9170\u6c2f", "en_name": ["Decanoyl chloride", "Decanoyl chloride", "Caprinoyl chloride", "n-Decanoyl chloride", "Decanoic acid chloride", "Capric acid chloride", "Capric chloride"], "SMILES": "C(CCCCCC)CCC(Cl)=O", "physical_data": {"Molecular Weight": "190.71", "Molecular Formula": "C10H19ClO", "Boiling Point": "95 \u00b0C", "Melting Point": "-34.5 \u00b0C"}}