{"cas_no": "112-61-8", "cn_name": "\u786c\u916f\u9178\u7532\u916fC18", "en_name": ["Methyl stearate", "Octadecanoic acid, methyl ester", "Stearic acid, methyl ester", "Methyl octadecanoate", "Methyl stearate", "Methyl n-octadecanoate", "n-Octadecanoic acid methyl ester", "Kemester 9718", "Pastell M 180", "Emery 2218", "NSC 9418", "Exceparl MS", "Esterol A"], "SMILES": "C(CCCCCCCCCCCC)CCCCC(OC)=O", "physical_data": {"Molecular Weight": "298.50", "Molecular Formula": "C19H38O2", "Boiling Point": "443 \u00b0C", "Melting Point": "39.1 \u00b0C", "Density": "0.8498 g/cm\u00b3 @ Temp: 40 \u00b0C"}}