{"cas_no": "112-59-4", "cn_name": "\u4e8c\u4e59\u4e8c\u9187\u5355\u5df1\u919a", "en_name": ["Diethylene glycol monohexyl ether", "Ethanol, 2-[2-(hexyloxy)ethoxy]-", "2-[2-(Hexyloxy)ethoxy]ethanol", "Diethylene glycol monohexyl ether", "n-Hexoxyethoxyethanol", "Hexyl Carbitol", "Diethylene glycol hexyl ether", "3,6-Dioxa-1-dodecanol", "Ucar Filmer EHC", "DEGHE", "NSC 403666", "HEDG", "Kyowanol HX 20", "Hexyl diglycol", "2-(2-Hexoxyethoxy)ethanol"], "SMILES": "O(CCCCCC)CCOCCO", "physical_data": {"Molecular Weight": "190.28", "Molecular Formula": "C10H22O3", "Boiling Point": "259.1 \u00b0C @ Press: 760 Torr", "Melting Point": "-40 \u00b0C", "Density": "0.935 g/cm\u00b3 @ Temp: 25 \u00b0C"}}