{"cas_no": "112-85-6", "cn_name": "\u4e8c\u5341\u4e8c\u9178", "en_name": ["Docosanoic acid", "Docosanoic acid", "Behenic acid", "n-Docosanoic acid", "Hydrofol Acid 560", "1-Docosanoic acid", "Hydrofol 2022-55", "Glycon B 70", "NAA 222S", "B 95 (acid)", "B 95", "NAA 22S", "Edenor C 22-85R", "EXL 5", "Prifac 2987", "NSC 32364", "Edenor C 22-85RGS", "Prifrac 2989", "B 100DF"], "SMILES": "C(CCCCCCCCCCCCCC)CCCCCCC(O)=O", "physical_data": {"Molecular Weight": "340.58", "Molecular Formula": "C22H44O2", "Boiling Point": "306 \u00b0C @ Press: 60 Torr", "Melting Point": "79.95 \u00b0C", "Density": "0.8221 g/cm\u00b3 @ Temp: 100 \u00b0C"}}