{"cas_no": "112-30-1", "cn_name": "1-\u7678\u9187", "en_name": ["1-Decanol", "1-Decanol", "Decyl alcohol", "Capric alcohol", "Caprinic alcohol", "n-Decyl alcohol", "Nonylcarbinol", "Sipol L 10", "Alfol 10", "T 148", "n-Decanol", "Decanol", "Antak", "Epal 10", "1-Hydroxydecane", "Royaltac", "Kalcohl 10H", "Conol 10N", "Nacol 10-99", "Kalcohl 1098", "Nacol 10", "Nafol 10", "NSC 406313", "Kalcol 1098", "Nafol 10D", "Kalcohl 10", "Conol 1098", "Lorol C 10-98", "Capryl alcohol", "Lorol C 10"], "SMILES": "C(CCCCC)CCCCO", "physical_data": {"Molecular Weight": "158.28", "Molecular Formula": "C10H22O", "Boiling Point": "232.9 \u00b0C @ Press: 760 Torr", "Melting Point": "6.4 \u00b0C", "Density": "0.8297 g/cm\u00b3 @ Temp: 20 \u00b0C"}}