{"cas_no": "112-17-4", "cn_name": "\u4e59\u9178\u7678\u916f", "en_name": ["Decyl acetate", "Acetic acid, decyl ester", "Decyl alcohol, acetate", "Acetate C 10", "Decyl acetate", "n-Decyl acetate", "1-Decanol acetate", "1-Decyl acetate", "Decanyl acetate", "NSC 46131", "1-Acetoxydecane"], "SMILES": "C(CCCCCCCC)COC(C)=O", "physical_data": {"Molecular Weight": "200.32", "Molecular Formula": "C12H24O2", "Boiling Point": "244 \u00b0C", "Melting Point": "-15 \u00b0C", "Density": "0.8671 g/cm\u00b3 @ Temp: 20 \u00b0C"}}