{"cas_no": "112-00-5", "cn_name": "\u5341\u4e8c\u70f7\u57fa\u4e09\u7532\u57fa\u6c2f\u5316\u94f5", "en_name": ["Dodecyltrimethylammonium chloride", "1-Dodecanaminium, N,N,N-trimethyl-, chloride (1:1)", "Ammonium, dodecyltrimethyl-, chloride", "Dodecyltrimethylammonium chloride", "1-Dodecanaminium, N,N,N-trimethyl-, chloride", "Aliquat 4", "Arquad 12D", "Lauryltrimethylammonium chloride", "Trimethyllaurylammonium chloride", "Trimethyldodecylammonium chloride", "n-Dodecyltrimethylammonium chloride", "Arquad 12", "Nissan Cation BB", "Alicop", "Cation FB", "Cation BB", "Rewoquat B 18", "Dehyquart LT", "Redicote E 5", "Nissan Cation FB", "Catiogen L", "DTAC", "Arquad 12-50", "N-Dodecyl-N,N,N-trimethylammonium chloride", "Monolauryltrimethylammonium chloride", "N,N,N-Trimethyl-1-dodecanaminium chloride", "Quartamin 24W", "Laurtrimonium chloride", "Arquad 12-33", "Rhodaquat M 242C29", "Swanol CA 2150", "Adogen 412", "Catinal LTC 35A", "Nissan Cation BB 300", "Arquad 12-23", "Arquad 12-37W", "Radiaquat 6465", "Arquad 12-25", "CA 2150", "Catiogen TML", "I 0453", "Lauryltrimonium chloride", "Pionin B 111", "Quartamin 24", "Quartamin 24P", "N-Lauryl-N,N,N-trimethylammonium chloride", "N-Lauryltrimethylammonium chloride", "Germicide 1231", "Emal 60W", "C12TAC", "Cationic 1231", "Cationic Surfactant 1231", "Lipoquad 12-37W", "Fentacare 1231-37", "E 010077", "Quartamin 20W", "Cortamine 24P"], "SMILES": "C(CCCCCCCCC)CC[N+](C)(C)C.[Cl-]", "physical_data": {"Molecular Weight": "", "Molecular Formula": "C15H34N.Cl", "Melting Point": "37 \u00b0C"}}