{"cas_no": "112-55-0", "cn_name": "\u6b63\u5341\u4e8c\u786b\u9187", "en_name": ["1-Dodecanethiol", "1-Dodecanethiol", "Dodecyl mercaptan", "Lauryl mercaptan", "n-Lauryl mercaptan", "n-Dodecanethiol", "n-Dodecyl mercaptan", "1-Mercaptododecane", "1-Dodecyl mercaptan", "n-Dodecylthiol", "NSC 814", "1-Dodecylthiol", "Thiokalcol 20", "NDM", "n-Dodecyl thiolate", "HS 45220"], "SMILES": "C(CCCCCC)CCCCCS", "physical_data": {"Molecular Weight": "202.40", "Molecular Formula": "C12H26S", "Boiling Point": "142-145 \u00b0C @ Press: 15 Torr", "Melting Point": "-7 \u00b0C", "Density": "0.8450 g/cm\u00b3 @ Temp: 20 \u00b0C"}}