{"cas_no": "112-16-3", "cn_name": "\u6708\u6842\u9170\u6c2f", "en_name": ["Dodecanoyl chloride", "Dodecanoyl chloride", "Lauroyl chloride", "Lauric acid chloride", "n-Dodecanoyl chloride", "Dodecanoic acid chloride", "Dodecanoic acid, anhydride with carbonochloridic acid"], "SMILES": "C(CCCCCCCC)CCC(Cl)=O", "physical_data": {"Molecular Weight": "218.76", "Molecular Formula": "C12H23ClO", "Boiling Point": "145 \u00b0C @ Press: 18 Torr", "Melting Point": "-17 \u00b0C"}}