{"cas_no": "112-27-6", "cn_name": "\u4e09\u7518\u9187", "en_name": ["Triethylene glycol", "Ethanol, 2,2\u2032-[1,2-ethanediylbis(oxy)]bis-", "Triethylene glycol", "2,2\u2032-[1,2-Ethanediylbis(oxy)]bis[ethanol]", "1,2-Di(\u03b2-hydroxyethoxy)ethane", "3,6-Dioxaoctane-1,8-diol", "2,2\u2032-Ethylenedioxydiethanol", "Glycol bis(hydroxyethyl) ether", "TEG", "Triglycol", "1,2-Bis(2-hydroxyethoxy)ethane", "Trigol", "TEG (glycol)", "2-[2-(2-Hydroxyethoxy)ethoxy]ethanol", "1,8-Dihydroxy-3,6-dioxaoctane", "NSC 60758", "Crestwood A", "Hanlon TEG", "2,2\u2032-(Ethane-1,2-diylbis(oxy))diethanol", "2,2\u2032-(Ethane-1,2-diylbis(oxy))bis(ethanol)", "2-[2-(2-Hydroxyethoxy)ethoxy]ethan-1-ol"], "SMILES": "C(COCCO)OCCO", "physical_data": {"Molecular Weight": "150.17", "Molecular Formula": "C6H14O4", "Boiling Point": "165 \u00b0C @ Press: 14 Torr", "Melting Point": "-7 \u00b0C", "Density": "1.1274 g/cm\u00b3 @ Temp: 15 \u00b0C"}}