{"cas_no": "112-49-2", "cn_name": "\u4e09\u7518\u9187\u4e8c\u7532\u919a", "en_name": ["Triglyme", "2,5,8,11-Tetraoxadodecane", "Ethane, 1,2-bis(2-methoxyethoxy)-", "Ansul Ether 161", "Triglyme", "1,2-Bis(2-methoxyethoxy)ethane", "Triethylene glycol dimethyl ether", "Glyme 4", "Methyltriglyme", "Hisolve MTM", "NSC 66400", "DMTG", "1-Methoxy-2-[2-(2-methoxyethoxy)ethoxy]ethane", "Hisorb MTM"], "SMILES": "C(COCCOC)OCCOC", "physical_data": {"Molecular Weight": "178.23", "Molecular Formula": "C8H18O4", "Boiling Point": "216 \u00b0C", "Melting Point": "-45 \u00b0C"}}