{"cas_no": "112-15-2", "cn_name": "\u4e8c\u4e59\u4e8c\u9187\u5355\u4e59\u57fa\u919a\u918b\u9178\u916f", "en_name": ["Carbitol acetate", "Ethanol, 2-(2-ethoxyethoxy)-, 1-acetate", "Ethanol, 2-(2-ethoxyethoxy)-, acetate", "Carbitol acetate", "Diethylene glycol monoethyl ether acetate", "Diglycol monoethyl ether acetate", "2-(2-Ethoxyethoxy)ethyl acetate", "Diethylene glycol ethyl ether acetate", "Ethyl carbitol acetate", "Ektasolve DE acetate", "NSC 8702", "Carbotil acetate", "Ethyl diglycol acetate", "Diethylene glycol monoethyl acetate", "D 0500", "Celtol EDGAC", "EDGAC"], "SMILES": "C(OCCOCC)COC(C)=O", "physical_data": {"Molecular Weight": "176.21", "Molecular Formula": "C8H16O4", "Boiling Point": "218.5 \u00b0C", "Melting Point": "-25 \u00b0C", "Density": "1.0096 g/cm\u00b3 @ Temp: 20 \u00b0C"}}