{"cas_no": "112-96-9", "cn_name": "\u5f02\u6c30\u9178\u5341\u516b\u916f", "en_name": ["Octadecyl isocyanate", "Octadecane, 1-isocyanato-", "Isocyanic acid, octadecyl ester", "1-Isocyanatooctadecane", "Stearyl isocyanate", "Octadecyl isocyanate", "Mondur O", "Baykanol OI", "n-Octadecyl isocyanate", "1-Octadecyl isocyanate", "Millionate O", "NSC 66466", "ODI"], "SMILES": "C(CCCCCCCCCC)CCCCCCCN=C=O", "physical_data": {"Molecular Weight": "295.50", "Molecular Formula": "C19H37NO", "Boiling Point": "190-210 \u00b0C @ Press: 10 Torr", "Melting Point": "15-16 \u00b0C"}}