{"cas_no": "112-12-9", "cn_name": "\u7532\u57fa\u58ec\u57fa\u7532\u916e", "en_name": ["2-Undecanone", "2-Undecanone", "Methyl nonyl ketone", "Methyl n-nonyl ketone", "Nonyl methyl ketone", "2-Hendecanone", "NSC 4028", "BioUD 30", "BioUD", "BioUD 8", "Mostique EGX 101"], "SMILES": "C(CCCCCC)CCC(C)=O", "physical_data": {"Molecular Weight": "170.29", "Molecular Formula": "C11H22O", "Boiling Point": "231.5 \u00b0C", "Melting Point": "15 \u00b0C", "Density": "0.830 g/cm\u00b3 @ Temp: 15 \u00b0C"}}