{"cas_no": "112-04-9", "cn_name": "\u5341\u516b\u70f7\u57fa\u4e09\u6c2f\u7845\u70f7", "en_name": ["Trichlorooctadecylsilane", "Silane, trichlorooctadecyl-", "Trichlorooctadecylsilane", "Octadecyltrichlorosilane", "n-Octadecyltrichlorosilane", "OTS", "Stearyltrichlorosilane", "NSC 96644", "OTS (silane derivative)", "LS 6495"], "SMILES": "C(CCCCCCCCCCCCCCC)CC[Si](Cl)(Cl)Cl", "physical_data": {"Molecular Weight": "387.93", "Molecular Formula": "C18H37Cl3Si", "Boiling Point": "160-162 \u00b0C @ Press: 3 Torr", "Melting Point": "22 \u00b0C", "Density": "0.950 g/cm\u00b3 @ Temp: 22 \u00b0C"}}