{"cas_no": "112-84-5", "cn_name": "\u82a5\u9178\u9170\u80fa", "en_name": ["Erucamide", "13-Docosenamide, (13Z)-", "Erucamide", "13-Docosenamide, (Z)-", "(13Z)-13-Docosenamide", "cis-13-Docosenamide", "Erucic acid amide", "Erucyl amide", "Diamid L 200", "Kemamide E", "Adogen 58", "Erucic amide", "Armid E", "Alflow P 10", "Armoslip EPX", "Crodamide ER", "Loxamid E", "Crodamide E", "Armoslip E", "Erucoyl amide", "Kemamide E Ultra", "Neutron S", "Unislip 1753", "Armoslip EXP", "Alflow 10", "Amide E", "E 10", "E 10 (amide)", "NewS", "Fatty Amide E", "Atmer SA 1753", "Struktol TR 131", "TEP BP-SL 1", "RX 4515", "Ampacet 10090", "Chemstat HTSA 22", "Proaid AC 18E", "Atmer SA 1753FD", "SA 1753FD", "Lutamide ER", "PEX-SLT 01", "Atmer 1753", "Chemstat HTSA 22-20M", "WK 1890", "Pinnacle 2530", "Finawax ER", "Kemamide E Ultrabead", "MB-S 1519", "Finawax E", "L 300", "L 300 (amide)", "CESA PPA 0050079", "Loxiol E SPEZ P", "TR 131", "P 10", "HC 102BF", "E 828262", "Kao Fatty Amide E", "SL 05068PP", "Crodamide ER-CH-BE", "Chamide SEA", "SHHY-A 003", "CHMP E 50", "SCC 88953", "Innoslip E", "Crodamide ER-CH-MB-SI", "JT 1", "JT 1 (amide)", "KT 0340", "SAB 8068", "Polyslip-E", "ER-CH", "AL 031", "Crodamide ER-CH", "AC 3 (antiblocking agent)", "AC 3", "PAO 2558", "Finawax SE", "YBL-NR 001-2", "BZPP 302", "Crodamide ER-BE", "CESA-slip PP 42161", "201HK", "Finaslip E"], "SMILES": "C(CCCCC=CCCCCCCCC)CCCCCCC(N)=O", "physical_data": {"Molecular Weight": "337.58", "Molecular Formula": "C22H43NO", "Melting Point": "75-80 \u00b0C"}}