{"cas_no": "112-98-1", "cn_name": "\u4e8c\u4e01\u6c27\u57fa\u56db\u7518\u9187\u919a", "en_name": ["5,8,11,14,17-Pentaoxaheneicosane", "5,8,11,14,17-Pentaoxaheneicosane", "Pentaether", "Ether, bis[2-(2-butoxyethoxy)ethyl]", "Tetraethylene glycol dibutyl ether", "5,8,11,14,17-Pentaoxauneicosane"], "SMILES": "O(CCOCCOCCCC)CCOCCOCCCC", "physical_data": {"Molecular Weight": "306.44", "Molecular Formula": "C16H34O5", "Boiling Point": "170 \u00b0C @ Press: 5 Torr"}}