{"cas_no": "112-95-8", "cn_name": "\u6b63\u4e8c\u5341\u70f7", "en_name": ["Eicosane", "Eicosane", "n-Eicosane", "NSC 62789", "Parafol 20Z", "MPCM 37"], "SMILES": "C(CCCCCCCCCC)CCCCCCCCC", "physical_data": {"Molecular Weight": "282.55", "Molecular Formula": "C20H42", "Boiling Point": "343 \u00b0C", "Melting Point": "36.8 \u00b0C", "Density": "0.7889 g/cm\u00b3 @ Temp: 20 \u00b0C"}}