{"cas_no": "112-37-8", "cn_name": "\u5341\u4e00\u70f7\u9178", "en_name": ["Undecanoic acid", "Undecanoic acid", "1-Decanecarboxylic acid", "Hendecanoic acid", "n-Undecoic acid", "Undecylic acid", "n-Undecylic acid", "n-Undecanoic acid", "NSC 7885", "1n-Undecoic acid"], "SMILES": "C(CCCCCC)CCCC(O)=O", "physical_data": {"Molecular Weight": "186.29", "Molecular Formula": "C11H22O2", "Boiling Point": "280 \u00b0C", "Melting Point": "28.6 \u00b0C", "Density": "0.9619 g/cm\u00b3 @ Temp: 20 \u00b0C"}}