{"cas_no": "112-69-6", "cn_name": "\u5341\u516d\u70f7\u57fa\u4e8c\u7532\u57fa\u53d4\u80fa", "en_name": ["Dimethylhexadecylamine", "1-Hexadecanamine, N,N-dimethyl-", "Hexadecylamine, N,N-dimethyl-", "N,N-Dimethyl-1-hexadecanamine", "N,N-Dimethylhexadecylamine", "N,N-Dimethylcetylamine", "Dimethylhexadecylamine", "Cetyldimethylamine", "Hexadecyldimethylamine", "Dimethylcetylamine", "Armeen DM 16D", "Palmityldimethylamine", "N,N-Dimethyl-n-hexadecylamine", "Dimethylpalmitylamine", "Bairdcat B 16", "Genamin 16R302D", "N,N-Dimethylpalmitylamine", "IPL 67", "N-Hexadecyldimethylamine", "Farmin DM 60", "Dabco B 16", "NSC 404177", "NSC 8493", "Farmin DM 6098", "AT 1695", "Barlene 16S", "Nissan Tertiary Amine PB", "ADMA 16", "Armeen 2M16D", "Lipomin DM 16D", "N-Cetyl-N,N-dimethylamine", "DM 6098"], "SMILES": "C(CCCCCCCCCCC)CCCCN(C)C", "physical_data": {"Molecular Weight": "269.51", "Molecular Formula": "C18H39N", "Boiling Point": "203-205 \u00b0C @ Press: 17 Torr"}}