{"cas_no": "112-86-7", "cn_name": "\u82a5\u9178", "en_name": ["Erucic acid", "13-Docosenoic acid, (13Z)-", "13-Docosenoic acid, (Z)-", "(13Z)-13-Docosenoic acid", "Erucic acid", "cis-13-Docosenoic acid", "\u039413-cis-Docosenoic acid", "13-cis-Docosenoic acid", "(Z)-13-Docosenoic acid", "13(Z)-Docosenoic acid", "Hystrene 2290", "cis-13-Erucic acid", "(13Z)-Docosenoic acid", "Nouracid RE 07", "Jaric 22:1", "Prifrac 2990", "(Z)-Erucic acid"], "SMILES": "C(CCCCC=CCCCCCCCC)CCCCCCC(O)=O", "physical_data": {"Molecular Weight": "338.57", "Molecular Formula": "C22H42O2", "Boiling Point": "265 \u00b0C @ Press: 15 Torr", "Melting Point": "33.8 \u00b0C", "Density": "0.860 g/cm\u00b3 @ Temp: 55 \u00b0C"}}