{"cas_no": "112-38-9", "cn_name": "\u5341\u4e00\u70ef\u9178", "en_name": ["Undecylenic acid", "10-Undecenoic acid", "Declid", "10-Hendecenoic acid", "\u03c9-Hendecenoic acid", "Renselin", "Sevinon", "10-Undecylenic acid", "Undecylenic acid", "Desenex solution", "\u03c9-Undecenoic acid", "NSC 2013", "MeSH ID: D014476"], "SMILES": "C(CCCCC=C)CCCC(O)=O", "physical_data": {"Molecular Weight": "184.28", "Molecular Formula": "C11H20O2", "Boiling Point": "275 \u00b0C", "Melting Point": "24.5 \u00b0C"}}