{"cas_no": "112-40-3", "cn_name": "\u5341\u4e8c\u70f7", "en_name": ["Dodecane", "Dodecane", "n-Dodecane", "Adakane 12", "Ba 51-090453", "C12-n-Alkane", "NSC 8714", "Cactus Normal Paraffin N 12D", "Parafol C12-97", "Parafol 12-97", "Jarcane 12", "Parafol 12RSPO-MB"], "SMILES": "C(CCCCCC)CCCCC", "physical_data": {"Molecular Weight": "170.33", "Molecular Formula": "C12H26", "Boiling Point": "216.3 \u00b0C @ Press: 760 Torr", "Melting Point": "-9.6 \u00b0C", "Density": "0.7487 g/cm\u00b3 @ Temp: 20 \u00b0C"}}