{"cas_no": "112-57-2", "cn_name": "\u56db\u4e59\u70ef\u4e94\u80fa", "en_name": ["Tetraethylenepentamine", "1,2-Ethanediamine, N1-(2-aminoethyl)-N2-[2-[(2-aminoethyl)amino]ethyl]-", "Tetraethylenepentamine", "1,2-Ethanediamine, N-(2-aminoethyl)-N\u2032-[2-[(2-aminoethyl)amino]ethyl]-", "N1-(2-Aminoethyl)-N2-[2-[(2-aminoethyl)amino]ethyl]-1,2-ethanediamine", "3,6,9-Triazaundecane-1,11-diamine", "1,11-Diamino-3,6,9-triazaundecane", "Tetren", "TEP", "1,4,7,10,13-Pentaazatridecane", "Tetraethylpentylamine", "DEH 26", "3,6,9-Triaza-1,11-diaminoundecane", "Ancamine TEPA", "TEPA", "NSC 88603", "N-(2-Aminoethyl)-N\u2032-(2-((2-aminoethyl)amino)ethyl)-1,2-ethanediamine", "T 11509", "Bis[2-(2-aminoethylamino)ethyl]amine", "AFR-AN 6", "TH 160", "Insulcure 9", "Epikure 927", "Epikure Curing Agent 927", "Tetraethylene pentaamine", "KCA 7700"], "SMILES": "N(CCNCCN)CCNCCN", "physical_data": {"Molecular Weight": "189.30", "Molecular Formula": "C8H23N5", "Boiling Point": "340.30 \u00b0C @ Press: 760 Torr", "Melting Point": "-30 \u00b0C", "Density": "0.9980 g/cm\u00b3 @ Temp: 20 \u00b0C"}}