{"cas_no": "112-70-9", "cn_name": "1-\u5341\u4e09\u9187", "en_name": ["1-Tridecanol", "1-Tridecanol", "Tridecyl alcohol", "n-Tridecyl alcohol", "n-Tridecanol", "n-Tridecan-1-ol", "NSC 5252"], "SMILES": "C(CCCCCCO)CCCCCC", "physical_data": {"Molecular Weight": "200.36", "Molecular Formula": "C13H28O", "Boiling Point": "152 \u00b0C @ Press: 14 Torr", "Melting Point": "32.5 \u00b0C", "Density": "0.8223 g/cm\u00b3 @ Temp: 31 \u00b0C"}}