{"cas_no": "112-52-7", "cn_name": "1-\u6c2f\u5341\u4e8c\u70f7", "en_name": ["1-Chlorododecane", "Dodecane, 1-chloro-", "1-Chlorododecane", "Lauryl chloride", "Dodecyl chloride", "n-Dodecyl chloride", "1-Dodecyl chloride", "n-Lauryl chloride", "NSC 57107"], "SMILES": "C(CCCCCC)CCCCCCl", "physical_data": {"Molecular Weight": "204.78", "Molecular Formula": "C12H25Cl", "Boiling Point": "260 \u00b0C", "Melting Point": "-9.3 \u00b0C", "Density": "0.8673 g/cm\u00b3 @ Temp: 22 \u00b0C"}}