{"cas_no": "112-18-5", "cn_name": "\u5341\u4e8c\u70f7\u57fa\u4e8c\u7532\u57fa\u53d4\u80fa", "en_name": ["Lauryldimethylamine", "1-Dodecanamine, N,N-dimethyl-", "Dodecylamine, N,N-dimethyl-", "N,N-Dimethyl-1-dodecanamine", "RC 5629", "N,N-Dimethyldodecylamine", "Dodecyldimethylamine", "DDA", "N,N-Dimethyllaurylamine", "Monolauryl dimethylamine", "Lauryldimethylamine", "N-Lauryldimethylamine", "N-Dodecyldimethylamine", "Armeen DM 12D", "N,N-Dimethyl-n-dodecylamine", "DDA (corrosion inhibitor)", "Antioxidant DDA", "N-Dodecyl-N,N-dimethylamine", "Farmin DM 20", "(Dimethylamino)dodecane", "IPL 12", "Empigen AB", "Adma 12", "Genamin LA 302D", "Farmin DM 2098", "NSC 7332", "Barlene 12S", "Toyocat D 60", "Nissan Tertiary Amine BB", "DM 2098", "1-Dimethylaminododecane", "Lipomin DM 12D"], "SMILES": "C(CCCCCCCCC)CCN(C)C", "physical_data": {"Molecular Weight": "213.40", "Molecular Formula": "C14H31N", "Boiling Point": "144-149 \u00b0C @ Press: 15 Torr", "Melting Point": "22 \u00b0C"}}