{"cas_no": "112-66-3", "cn_name": "\u4e59\u9178\u6708\u6842\u916f", "en_name": ["Dodecyl acetate", "Acetic acid, dodecyl ester", "Dodecyl alcohol acetate", "1-Dodecanol acetate", "Dodecyl acetate", "Lauryl acetate", "Dodecan-1-yl acetate", "Dodecanol acetate", "Dodecanyl acetate", "1-Dodecyl acetate", "n-Dodecyl acetate", "Okimelanolure", "NSC 67366"], "SMILES": "C(CCCCCCCC)CCCOC(C)=O", "physical_data": {"Molecular Weight": "228.37", "Molecular Formula": "C14H28O2", "Boiling Point": "265 \u00b0C", "Melting Point": "1.3 \u00b0C", "Density": "0.85893 g/cm\u00b3 @ Temp: 25.00 \u00b0C"}}