{"cas_no": "112-29-8", "cn_name": "\u7678\u57fa\u6eb4", "en_name": ["1-Bromodecane", "Decane, 1-bromo-", "1-Bromodecane", "Decyl bromide", "n-Decyl bromide", "1-Decyl bromide", "NSC 8780", "10-Bromodecane"], "SMILES": "C(CCCCBr)CCCCC", "physical_data": {"Molecular Weight": "221.18", "Molecular Formula": "C10H21Br", "Boiling Point": "240.6 \u00b0C", "Melting Point": "-29.2 \u00b0C", "Density": "1.0683 g/cm\u00b3 @ Temp: 20 \u00b0C"}}