{"cas_no": "112-54-9", "cn_name": "\u5341\u4e8c\u919b", "en_name": ["Dodecanal", "Dodecanal", "Lauraldehyde", "Dodecyl aldehyde", "Lauric aldehyde", "Lauryl aldehyde", "n-Lauraldehyde", "n-Dodecyl aldehyde", "n-Dodecanal", "1-Dodecanal", "Dodecanaldehyde", "Laurinaldehyde", "NSC 46128", "NSC 52196", "NSC 55212"], "SMILES": "C(CCCCCC)CCCCC=O", "physical_data": {"Molecular Weight": "184.32", "Molecular Formula": "C12H24O", "Boiling Point": "120-125 \u00b0C @ Press: 10 Torr", "Melting Point": "44.5 \u00b0C", "Density": "0.8352 g/cm\u00b3 @ Temp: 15 \u00b0C"}}