{"cas_no": "112-23-2", "cn_name": "\u7532\u9178\u5e9a\u916f", "en_name": ["Heptyl formate", "Formic acid, heptyl ester", "Heptyl alcohol formate", "Heptyl formate", "n-Heptyl formate", "1-Heptyl formate"], "SMILES": "C(CCOC=O)CCCC", "physical_data": {"Molecular Weight": "144.21", "Molecular Formula": "C8H16O2", "Boiling Point": "178.1 \u00b0C"}}