{"cas_no": "112-20-9", "cn_name": "\u6b63\u58ec\u80fa", "en_name": ["Nonylamine", "1-Nonanamine", "Nonylamine", "n-Nonylamine", "1-Nonylamine", "1-Aminononane", "Monononylamine"], "SMILES": "C(CCCCN)CCCC", "physical_data": {"Molecular Weight": "143.27", "Molecular Formula": "C9H21N", "Boiling Point": "202.2 \u00b0C", "Melting Point": "-1 \u00b0C", "Density": "0.7878 g/cm\u00b3 @ Temp: 20 \u00b0C"}}