{"cas_no": "112-79-8", "cn_name": "\u53cd\u6cb9\u9178", "en_name": ["Elaidic acid", "9-Octadecenoic acid, (9E)-", "Elaidic acid", "9-Octadecenoic acid, (E)-", "(9E)-9-Octadecenoic acid", "trans-\u03949-Octadecenoic acid", "trans-9-Octadecenoic acid", "9-trans-Octadecenoic acid", "trans-Oleic acid", "\u03949-trans-Octadecenoic acid", "(E)-Oleic acid", "trans-Elaidic acid", "(E)-9-Octadecenoic acid", "Elaidinic acid", "NSC 26988", "(9E)-Octadecenoic acid", "9-trans-Oleic acid"], "SMILES": "C(CC=CCCCCCCCC)CCCCCC(O)=O", "physical_data": {"Molecular Weight": "282.46", "Molecular Formula": "C18H34O2", "Melting Point": "45 \u00b0C", "Density": "0.851 g/cm\u00b3 @ Temp: 79 \u00b0C"}}