{"cas_no": "112-77-6", "cn_name": "\u6cb9\u9170\u6c2f", "en_name": ["Oleoyl chloride", "9-Octadecenoyl chloride, (9Z)-", "Oleoyl chloride", "9-Octadecenoyl chloride, (Z)-", "(9Z)-9-Octadecenoyl chloride", "Oleyl chloride", "Oleic acid chloride", "cis-9-Octadecenoyl chloride", "(Z)-9-Octadecenoyl chloride", "Oleic chloride", "9-(Z)-Octadecen-1-oyl chloride"], "SMILES": "C(CC=CCCCCCCCC)CCCCCC(Cl)=O", "physical_data": {"Molecular Weight": "300.91", "Molecular Formula": "C18H33ClO", "Boiling Point": "158-159 \u00b0C @ Press: 0.05 Torr"}}