{"cas_no": "112-31-2", "cn_name": "\u7678\u919b", "en_name": ["Decanal", "Decanal", "Capraldehyde", "Capric aldehyde", "Caprinaldehyde", "Caprinic aldehyde", "Decaldehyde", "n-Decanal", "Decyl aldehyde", "n-Decyl aldehyde", "Decylic aldehyde", "n-Decaldehyde", "Decanaldehyde", "NSC 6087"], "SMILES": "C(CCCCC)CCCC=O", "physical_data": {"Molecular Weight": "156.27", "Molecular Formula": "C10H20O", "Boiling Point": "208.5 \u00b0C", "Melting Point": "-5 \u00b0C", "Density": "0.830 g/cm\u00b3 @ Temp: 15 \u00b0C"}}