{"cas_no": "112-35-6", "cn_name": "\u4e09\u7518\u9187\u5355\u7532\u919a", "en_name": ["Triethylene glycol monomethyl ether", "Ethanol, 2-[2-(2-methoxyethoxy)ethoxy]-", "2-[2-(2-Methoxyethoxy)ethoxy]ethanol", "Dowanol TMAT", "Triethylene glycol monomethyl ether", "Triglycol monomethyl ether", "Methyltrioxitol", "3,6,9-Trioxa-1-decanol", "3,6,9-Trioxadecanol", "Methyltriglycol", "NSC 97395", "Bikanol M 3", "Hymol TM", "Monomethoxytriethylene glycol", "MTG", "2-[2-(2-Methoxyethoxy)ethoxy]ethan-1-ol", "2-(2-(2-Methoxyethoxy)ethoxy)ethan-1-ol"], "SMILES": "C(COCCO)OCCOC", "physical_data": {"Molecular Weight": "164.20", "Molecular Formula": "C7H16O4", "Boiling Point": "249 \u00b0C", "Melting Point": "-44 \u00b0C", "Density": "1.0494 g/cm\u00b3"}}