{"cas_no": "112-82-3", "cn_name": "\u6eb4\u4ee3\u5341\u516d\u70f7", "en_name": ["1-Bromohexadecane", "Hexadecane, 1-bromo-", "1-Bromohexadecane", "Hexadecyl bromide", "Cetyl bromide", "n-Hexadecyl bromide", "1-Hexadecyl bromide", "Palmityl bromide", "NSC 4193"], "SMILES": "C(CCCCCCCBr)CCCCCCCC", "physical_data": {"Molecular Weight": "305.34", "Molecular Formula": "C16H33Br", "Boiling Point": "336 \u00b0C", "Melting Point": "18 \u00b0C", "Density": "1.000 g/cm\u00b3 @ Temp: 20 \u00b0C"}}