{"cas_no": "112-88-9", "cn_name": "\u5341\u516b\u70ef", "en_name": ["1-Octadecene", "1-Octadecene", "\u03b1-Octadecene", "Neodene 18", "Dialen 18", "Linealene 18", "NSC 66460", "Gulftene 18", "Linealene C 18", "AlphaPlus 1-Octadecene"], "SMILES": "C(CCCCCCCC=C)CCCCCCCC", "physical_data": {"Molecular Weight": "252.48", "Molecular Formula": "C18H36", "Boiling Point": "144-146 \u00b0C @ Press: 3 Torr", "Melting Point": "17.5 \u00b0C", "Density": "0.7857 g/cm\u00b3 @ Temp: 25 \u00b0C"}}