{"cas_no": "112-90-3", "cn_name": "\u6cb9\u80fa", "en_name": ["Oleylamine", "9-Octadecen-1-amine, (9Z)-", "9-Octadecenylamine, (Z)-", "9-Octadecen-1-amine, (Z)-", "(9Z)-9-Octadecen-1-amine", "Alamine 11", "Oleylamine", "Oleinamine", "Noram O", "cis-9-Octadecenylamine", "Oleamine", "Kemamine P 989", "Armeen O", "Arosurf AA 60", "Armeen OD", "Kemamine P 989D", "Adogen 172D", "Armeen OLD-C", "Noram OD", "((Z)-9-Octadecenyl)amine", "Genamin OL 100D", "Amine OB", "SK-FLOT", "9-(Z)-Octadecen-1-amine", "Corsamine POD-V", "Lipomin O", "Armeen OM 97", "Farmin O-V"], "SMILES": "C(=CCCCCCCCC)CCCCCCCCN", "physical_data": {"Molecular Weight": "267.49", "Molecular Formula": "C18H37N", "Boiling Point": "175 \u00b0C @ Press: 0.2 Torr", "Melting Point": "-9.5 \u00b0C"}}