{"cas_no": "112-99-2", "cn_name": "N-\u5341\u516b\u70f7\u57fa-1-\u5341\u516b\u80fa", "en_name": ["Dioctadecylamine", "1-Octadecanamine, N-octadecyl-", "Dioctadecylamine", "N-Octadecyl-1-octadecanamine", "Bis(octadecyl)amine", "Distearylamine", "Armeen 2-18", "Genamin SH 200", "Di-n-octadecylamine", "N,N-Dioctadecylamine"], "SMILES": "N(CCCCCCCCCCCCCCCCCC)CCCCCCCCCCCCCCCCCC", "physical_data": {"Molecular Weight": "521.99", "Molecular Formula": "C36H75N", "Melting Point": "90-91 \u00b0C"}}