{"cas_no": "112-50-5", "cn_name": "\u4e09\u4e59\u4e8c\u9187\u5355\u4e59\u919a", "en_name": ["Triethylene glycol monoethyl ether", "Ethanol, 2-[2-(2-ethoxyethoxy)ethoxy]-", "2-[2-(2-Ethoxyethoxy)ethoxy]ethanol", "Dowanol TE", "Ethoxytriglycol", "Triethylene glycol monoethyl ether", "Triglycol monoethyl ether", "3,6,9-Trioxaundecan-1-ol", "Ethoxytriethylene glycol", "Ethyltriglycol", "Poly-solve TE", "12: PN: WO2017021334 SEQID: 18 claimed sequence"], "SMILES": "C(OCCOCC)COCCO", "physical_data": {"Molecular Weight": "178.23", "Molecular Formula": "C8H18O4", "Boiling Point": "255.4 \u00b0C @ Press: 760 Torr", "Melting Point": "-18.7 \u00b0C", "Density": "1.018 g/cm\u00b3 @ Temp: 25 \u00b0C"}}