{"cas_no": "112-32-3", "cn_name": "\u7532\u9178\u8f9b\u916f", "en_name": ["Octyl formate", "Formic acid, octyl ester", "Octyl alcohol, formate", "Octyl formate", "n-Octyl formate", "1-Octyl formate", "NSC 404473"], "SMILES": "C(CCCCC)CCOC=O", "physical_data": {"Molecular Weight": "158.24", "Molecular Formula": "C9H18O2", "Boiling Point": "198.8 \u00b0C", "Melting Point": "-39.1 \u00b0C", "Density": "0.975 g/cm\u00b3 @ Temp: 20 \u00b0C"}}