{"cas_no": "112-58-3", "cn_name": "\u6b63\u5df2\u919a", "en_name": ["Dihexyl ether", "Hexane, 1,1\u2032-oxybis-", "Hexyl ether", "1,1\u2032-Oxybis[hexane]", "Dihexyl ether", "Di-n-hexyl ether", "n-Hexyl ether", "Bis(1-hexyl) ether", "NSC 9286", "1-Hexoxyhexane", "Nacol ether 6"], "SMILES": "O(CCCCCC)CCCCCC", "physical_data": {"Molecular Weight": "186.33", "Molecular Formula": "C12H26O", "Boiling Point": "223 \u00b0C", "Density": "0.7936 g/cm\u00b3 @ Temp: 20 \u00b0C"}}