{"cas_no": "112-24-3", "cn_name": "\u4e09\u4e59\u70ef\u56db\u80fa", "en_name": ["Triethylenetetramine", "1,2-Ethanediamine, N1,N2-bis(2-aminoethyl)-", "Triethylenetetramine", "1,2-Ethanediamine, N,N\u2032-bis(2-aminoethyl)-", "N1,N2-Bis(2-aminoethyl)-1,2-ethanediamine", "N,N\u2032-Bis(2-aminoethyl)ethylenediamine", "3,6-Diazaoctane-1,8-diamine", "TETA", "Trien", "Triethylenetetraamine", "1,4,7,10-Tetraazadecane", "TECZA", "1,8-Diamino-3,6-diazaoctane", "DEH 24", "Araldite Hardener HY 951", "HY 951", "Trientine", "Araldite HY 951", "Z1", "N,N\u2032-Bis(2-aminoethyl)-1,2-diaminoethane", "N,N\u2032-Bis(2-aminoethyl)-1,2-ethanediamine", "RT 1AX", "VE 2896", "Rutapox VE 2896", "TETA (crosslinking agent)", "Ancamine TETA", "NSC 443", "Epicure 3234", "EPH 925", "1,2-Bis(2-aminoethylamino)ethane", "Epicure 925", "H 522", "Epikure 3234", "Ren HY 956", "Hardener 758", "Aradur HY 1300GB", "EpoxySet 145-20020", "Aradur HY 951", "HA 11", "Ren HY 956BR", "FD 129", "Aradur HY 840-1EN", "MH 91", "TETA-K 6", "N,N\u2032-Di(2-aminoethyl)ethylenediamine", "K 6", "Lapox K 6", "Triethylene tetraamine", "Bontamine 7100H100", "Dicure 351", "N,N\u2032-Bis(2-aminoethyl)ethane-1,2-diamine", "Triethylene 2,2,2 tetramine", "IG 824K24", "Aradur HY 956-2", "Aradur 3140", "EH 758", "Hardener Z 1", "Z 1", "T 0429", "PHG 110", "KB 100", "Bontamine 2341B", "Hardener 301", "H 4065 (hardener)", "H 4065", "HY 951IN"], "SMILES": "C(CNCCN)NCCN", "physical_data": {"Molecular Weight": "146.23", "Molecular Formula": "C6H18N4", "Boiling Point": "266-267 \u00b0C @ Press: 760 Torr", "Melting Point": "12 \u00b0C", "Density": "0.9818 g/cm\u00b3 @ Temp: 20 \u00b0C"}}