{"cas_no": "112-47-0", "cn_name": "1,10-\u7678\u4e8c\u9187", "en_name": ["1,10-Decanediol", "1,10-Decanediol", "Decamethylene glycol", "1,10-Decamethylenediol", "Decamethylenediol", "\u03b1,\u03c9-Decanediol", "1,10-Dihydroxydecane", "NSC 17165", "Speziol C 10/2", "1,10-Decamethylene glycol", "1,10-Decyleneglycol", "D 0014"], "SMILES": "C(CCCCCO)CCCCO", "physical_data": {"Molecular Weight": "174.28", "Molecular Formula": "C10H22O2", "Boiling Point": "71.5 \u00b0C", "Melting Point": "74 \u00b0C"}}