{"cas_no": "112-53-8", "cn_name": "\u5341\u4e8c\u9187", "en_name": ["1-Dodecanol", "1-Dodecanol", "Dodecyl alcohol", "n-Dodecyl alcohol", "Lauric alcohol", "Laurinic alcohol", "Lauryl 24", "Lauryl alcohol", "Sipol L 12", "Pisol", "Siponol L 2", "Siponol L 5", "Siponol 25", "n-Dodecan-1-ol", "Alfol 12", "S 1298", "1-Dodecyl alcohol", "1-Hydroxydodecane", "Kalcohl 20", "NAA 42", "Conol 20P", "Lorol C 12", "Adol 10", "Adol 11", "Adol 12", "Conol 20PP", "Kalcohl 2098", "Hainol 12SS", "Nacol 12-96", "Epal 12", "Lorol C 12/98", "NSC 3724", "Conol 1275", "K 20 (alcohol)", "K 20", "Kalcol 2098", "C 1214N", "Lipocol L", "Nacol 12-99", "Magnol 1216MB"], "SMILES": "C(CCCCCC)CCCCCO", "physical_data": {"Molecular Weight": "186.33", "Molecular Formula": "C12H26O", "Boiling Point": "259 \u00b0C @ Press: 760 Torr", "Melting Point": "24 \u00b0C", "Density": "0.8309 g/cm\u00b3 @ Temp: 24 \u00b0C"}}