{"cas_no": "112-42-5", "cn_name": "\u5341\u4e00\u9187", "en_name": ["1-Undecanol", "1-Undecanol", "Undecyl alcohol", "Hendecanoic alcohol", "1-Hendecanol", "Hendecyl alcohol", "n-Undecyl alcohol", "n-Undecan-1-ol", "Tip-Nip", "Undecanol", "Neodol 1", "1-Undecyl alcohol", "1-Hydroxyundecane", "Alchem 11", "NSC 403667", "Exxal 11S"], "SMILES": "C(CCCCCO)CCCCC", "physical_data": {"Molecular Weight": "172.31", "Molecular Formula": "C11H24O", "Boiling Point": "243 \u00b0C @ Press: 760 Torr", "Melting Point": "19 \u00b0C", "Density": "0.8298 g/cm\u00b3 @ Temp: 20 \u00b0C"}}