{"cas_no": "112-92-5", "cn_name": "\u786c\u8102\u9187", "en_name": ["Stearyl alcohol", "1-Octadecanol", "Atalco S", "Crodacol S", "Lorol 28", "n-Octadecanol", "Octadecyl alcohol", "n-Octadecyl alcohol", "Sipol S", "Siponol S", "Stearol", "Stearyl alcohol", "Steraffine", "Adol 62", "Siponol SC", "Lanol S", "Alfol 18", "Cachalot S 43", "Kalcohl 80", "Conol 1675", "Octadecanol", "1-Hydroxyoctadecane", "CO 1895F", "Stearic alcohol", "Rofamol", "1-Stearyl alcohol", "Lorol C 18", "Adol 64", "Adol 68", "Alfol 18NF", "Lanette 18DEO", "Lanette 18", "Kalcohl 8098", "Laurex 18", "CO 1895", "Conol 30S", "VLTN 6", "Hyfatol 18-98", "Hyfatol 18-95", "CO 1897", "NSC 5379", "Conol 30SS", "Crodacol S 95", "Crodacol S 70", "Crodacol S 95 NF", "Kalchol 8098", "Kalcohl 8099", "Kalcol 8098", "Conol 30F", "Hainol 18SS", "CO 1898", "Nacol 18-98", "Speziol C 18 Pharma", "Kolliwax SA", "Lanette-S 3", "Tego Alkanol 18", "Elocol C 1899", "Nacol C 18", "Crodacol S 95EP", "Stearafine Pure", "Stearyl alcohol NX", "Ginol 18", "Nacol 1898", "ThaiOL 1898", "NAA 46"], "SMILES": "C(CCCCCCCCC)CCCCCCCCO", "physical_data": {"Molecular Weight": "270.49", "Molecular Formula": "C18H38O", "Boiling Point": "210.5 \u00b0C @ Press: 15 Torr", "Melting Point": "59.5 \u00b0C", "Density": "0.8124 g/cm\u00b3 @ Temp: 59 \u00b0C"}}