{"cas_no": "112-33-4", "cn_name": "2-[2-(3-AMINOPROPOXY)ETHOXY]ETHANOL", "en_name": ["2-[2-(3-Aminopropoxy)ethoxy]ethanol", "Ethanol, 2-[2-(3-aminopropoxy)ethoxy]-", "2-[2-(3-Aminopropoxy)ethoxy]ethanol", "Polyglycolamine H 163", "Diethylene glycol mono(3-aminopropyl) ether", "H 163", "3-[2-(2-Hydroxyethoxy)ethoxy]propylamine", "Polyglycolamine 163", "2-[2-(3-Aminopropoxy)ethoxy]ethan-1-ol"], "SMILES": "C(COCCO)OCCCN", "physical_data": {"Molecular Weight": "163.21", "Molecular Formula": "C7H17NO3", "Boiling Point": "123 \u00b0C @ Press: 3 Torr"}}