{"cas_no": "112-06-1", "cn_name": "\u4e59\u9178\u5e9a\u916f", "en_name": ["Heptyl acetate", "Acetic acid, heptyl ester", "Heptyl acetate", "n-Heptyl acetate", "1-Heptyl acetate", "Heptyl alcohol, acetate", "Heptyl ethanoate", "NSC 3833"], "SMILES": "C(CCCCC)COC(C)=O", "physical_data": {"Molecular Weight": "158.24", "Molecular Formula": "C9H18O2", "Boiling Point": "193 \u00b0C", "Melting Point": "-50.2 \u00b0C", "Density": "0.8857 g/cm\u00b3 @ Temp: 19 \u00b0C"}}