{"cas_no": "112-80-1", "cn_name": "\u6cb9\u9178", "en_name": ["Oleic acid", "9-Octadecenoic acid (9Z)-", "Oleic acid", "9-Octadecenoic acid (Z)-", "(9Z)-9-Octadecenoic acid", "cis-\u03949-Octadecenoic acid", "cis-9-Octadecenoic acid", "Vopcolene 27", "Wecoline OO", "\u03949-cis-Oleic acid", "Pamolyn 100", "Oleine 7503", "cis-Oleic acid", "Z-9-Octadecenoic acid", "Emersol 211", "9-Octadecenoic acid, (Z)-", "\u03949-cis-Octadecenoic acid", "9-cis-Octadecenoic acid", "Industrene 105", "C18:1", "Lunac O-P", "Lunac O-CA", "Lunac O-LL", "Priolene 6930", "NAA 35", "Extra Olein 80", "Neo-Fat 92-04", "Edenor ATiO5", "Priolene 6907", "Edenor FTiO5", "Emersol 205", "Extra Oleic 99", "Emersol 6313NF", "Emersol 213NF", "Extra Olein 90R", "Emersol 214NF", "Extra Olein 99", "Extra Oleic 90", "Extra Oleic 80R", "D 100", "Priolene 6933", "Emersol 233", "D 100 (fatty acid)", "Priolene 6928", "Priolene 6906", "Lunac OA", "9Z-Octadecenoic acid", "NAA 38", "Priolene 6204", "Crossential O 94", "Extra Olein A 1981", "Lunac O-V", "B 115", "Crodacid O-P", "Clear FRAC EF", "Extra Olein 90", "NAA 36", "NAA 200", "Lunac O-LL-V", "Priolene 6936", "Emersol 622", "Lunac LO-V", "C18:1n9c", "Edenor C 18:1-98-100", "PM 500", "PM 810B", "Extra Olein 80R", "Palmera A 1813", "Radiacid 0137", "Lubolic acid", "(18,9-Olefin) oleic acid", "Impex", "Radiacid 0212", "POFAC 930", "Priolene 6977", "MeSH ID: D019301"], "SMILES": "C(CC=CCCCCCCCC)CCCCCC(O)=O", "physical_data": {"Molecular Weight": "282.46", "Molecular Formula": "C18H34O2", "Boiling Point": "286 \u00b0C @ Press: 100 Torr", "Melting Point": "16.3 \u00b0C", "Density": "0.895 g/cm\u00b3 @ Temp: 25 \u00b0C"}}