{"cas_no": "112-48-1", "cn_name": "\u4e59\u4e8c\u9187\u4e8c\u4e01\u919a", "en_name": ["Glycol dibutyl ether", "Butane, 1-(2-butoxyethoxy)-", "Ethane, 1,2-dibutoxy-", "Butane, 1,1\u2032-[1,2-ethanediylbis(oxy)]bis-", "1-(2-Butoxyethoxy)butane", "1,2-Dibutoxyethane", "Dibutyl cellosolve", "Ethylene glycol dibutyl ether", "Dibutyl Oxitol", "Glycol dibutyl ether"], "SMILES": "C(COCCCC)OCCCC", "physical_data": {"Molecular Weight": "174.28", "Molecular Formula": "C10H22O2", "Boiling Point": "203.6 \u00b0C @ Press: 760 Torr", "Melting Point": "-69 \u00b0C", "Density": "0.837 g/cm\u00b3 @ Temp: 25 \u00b0C"}}