{"cas_no": "112-41-4", "cn_name": "1-\u5341\u4e8c\u70ef", "en_name": ["1-Dodecene", "1-Dodecene", "Adacene 12", "n-Dodec-1-ene", "\u03b1-Dodecene", "Dialen 12", "Linealene 12", "NSC 12016", "Neodene C 12", "Neodene Shop C12", "LAO-C 12", "Linealene C 12", "Neodene 12"], "SMILES": "C(CCCCC=C)CCCCC", "physical_data": {"Molecular Weight": "168.32", "Molecular Formula": "C12H24", "Boiling Point": "213.8 \u00b0C", "Melting Point": "-35.2 \u00b0C", "Density": "0.7584 g/cm\u00b3 @ Temp: 20 \u00b0C"}}