{"cas_no": "112-89-0", "cn_name": "\u786c\u8102\u57fa\u6eb4", "en_name": ["1-Bromooctadecane", "Octadecane, 1-bromo-", "1-Bromooctadecane", "Octadecyl bromide", "n-Octadecyl bromide", "Stearyl bromide", "NSC 5542"], "SMILES": "C(CCCCCCCCBr)CCCCCCCCC", "physical_data": {"Molecular Weight": "333.39", "Molecular Formula": "C18H37Br", "Boiling Point": "210 \u00b0C", "Melting Point": "28.2 \u00b0C"}}