{"cas_no": "112-76-5", "cn_name": "\u5341\u516b\u70f7\u9170\u6c2f", "en_name": ["Stearoyl chloride", "Octadecanoyl chloride", "Stearoyl chloride", "Stearic acid chloride", "Stearic chloride", "Stearyl chloride", "Octadecanoic acid chloride", "Octadecyloyl chloride", "Stearyl acid chloride"], "SMILES": "C(CCCCCCCCCCC)CCCCCC(Cl)=O", "physical_data": {"Molecular Weight": "302.92", "Molecular Formula": "C18H35ClO", "Boiling Point": "215 \u00b0C @ Press: 15 Torr", "Melting Point": "23 \u00b0C"}}