{"cas_no": "112-75-4", "cn_name": "\u5341\u56db\u70f7\u57fa\u4e8c\u7532\u57fa\u53d4\u80fa", "en_name": ["Tetradecyldimethylamine", "1-Tetradecanamine, N,N-dimethyl-", "Tetradecylamine, N,N-dimethyl-", "N,N-Dimethyl-1-tetradecanamine", "N,N-Dimethyl-N-tetradecylamine", "Dimethyltetradecylamine", "Tetradecyldimethylamine", "N,N-Dimethylmyristylamine", "Myristyldimethylamine", "Armeen DM 14D", "Dimethylmyristamine", "N,N-Dimethyltetradecylamine", "Dimethylmyristylamine", "Genamin 14R302D", "IPL 30", "Adma 14", "N-Tetradecyldimethylamine", "NSC 78319", "Farmin DM 4098", "AT 1495", "Nissan Tertiary Amine MB", "N,N-Dimethyl-1-tetradecylamine", "Lipomin DM 14D"], "SMILES": "C(CCCCCCCC)CCCCCN(C)C", "physical_data": {"Molecular Weight": "241.46", "Molecular Formula": "C16H35N", "Boiling Point": "115-125 \u00b0C @ Press: 0.06-0.07 Torr"}}