{"cas_no": "112-64-1", "cn_name": "\u8089\u8c46\u853b\u9170\u6c2f", "en_name": ["Tetradecanoyl chloride", "Tetradecanoyl chloride", "Myristoyl chloride", "n-Tetradecanoyl chloride", "Myristic acid chloride", "Tetradecanoic acid chloride", "NSC 9417", "Tetradecanoic acid, anhydride with carbonochloridic acid"], "SMILES": "C(CCCCCCCC)CCCCC(Cl)=O", "physical_data": {"Molecular Weight": "246.82", "Molecular Formula": "C14H27ClO", "Boiling Point": "145-148 \u00b0C @ Press: 5 Torr", "Melting Point": "-1 \u00b0C"}}