{"cas_no": "112-60-7", "cn_name": "\u4e09\u7f29\u56db\u4e59\u4e8c\u9187", "en_name": ["Tetraethylene glycol", "Ethanol, 2,2\u2032-[oxybis(2,1-ethanediyloxy)]bis-", "Tetraethylene glycol", "2,2\u2032-[Oxybis(2,1-ethanediyloxy)]bis[ethanol]", "Hi-Dry", "3,6,9-Trioxaundecane-1,11-diol", "Bis[2-(2-hydroxyethoxy)ethyl] ether", "TEG", "NSC 1262", "1,11-Dihydroxy-3,6,9-trioxaundecane", "2-[2-[2-(2-Hydroxyethoxy)ethoxy]ethoxy]ethanol", "2,2\u2032-((Oxybis(ethane-2,1-diyl))bis(oxy))diethanol", "2-[2-[2-(2-Hydroxyethoxy)ethoxy]ethoxy]ethan-1-ol", "2,2\u2032-[Oxybis(2,1-ethanediyloxy)]diethanol", "2,2\u2032-((Oxybis(ethane-2,1-diyl))bis(oxy))bis(ethanol)"], "SMILES": "O(CCOCCO)CCOCCO", "physical_data": {"Molecular Weight": "194.23", "Molecular Formula": "C8H18O5", "Boiling Point": "327 \u00b0C @ Press: 760 Torr", "Melting Point": "-6.2 \u00b0C", "Density": "1.1285 g/cm\u00b3 @ Temp: 15 \u00b0C"}}