{"cas_no": "112-34-5", "cn_name": "\u4e8c\u4e59\u4e8c\u9187\u4e01\u919a", "en_name": ["Diethylene glycol monobutyl ether", "Ethanol, 2-(2-butoxyethoxy)-", "2-(2-Butoxyethoxy)ethanol", "Butyl Carbitol", "O-Butyl diethylene glycol", "Butyl dioxitol", "Diethylene glycol n-butyl ether", "Diethylene glycol butyl ether", "Diethylene glycol monobutyl ether", "Diglycol monobutyl ether", "Dowanol DB", "Poly-Solv DB", "Butyl diglycol", "Butyl digol", "Butoxyethoxyethanol", "Butyl Oxitol glycol ether", "Diethylene glycol mono-n-butyl ether", "3,6-Dioxa-1-decanol", "Ektasolve DB", "Butadigol", "Ethanol, 2,2\u2032-oxybis-, monobutyl ether", "n-Butyl carbitol", "NBC (solvent)", "NBC", "BDG-NS", "K 50181", "Butyl Diglysolv", "BDG", "NSC 407762", "Hisolve DB", "Butysenol 20P", "Bikanol B 2", "Circuposit 4125", "BDGE 20", "2-(2-n-Butoxyethoxy)ethanol", "Butysenol 20", "Butycenol 20P", "Glycol Ether DB", "Circuposit Hole Prep 4125", "C 4E2", "DB", "Circuposit 3304", "Circuposit Hole Prep 3304", "Sinopol BDG-LS", "2-(2-Butoxyethoxy)ethan-1-ol"], "SMILES": "C(COCCO)OCCCC", "physical_data": {"Molecular Weight": "162.23", "Molecular Formula": "C8H18O3", "Boiling Point": "230.4 \u00b0C", "Melting Point": "-68.1 \u00b0C", "Density": "0.9536 g/cm\u00b3 @ Temp: 20 \u00b0C"}}