{"cas_no": "112-10-7", "cn_name": "\u5341\u516b\u70f7\u9178-1-\u7532\u57fa\u4e59\u57fa\u916f", "en_name": ["Isopropyl stearate", "Octadecanoic acid, 1-methylethyl ester", "Stearic acid, isopropyl ester", "Isopropyl stearate", "Wickenol 127", "Emerest 2310", "Isopropyl octadecanoate", "Kessco IPS", "Radia 7195"], "SMILES": "C(CCCCCCCCCCCCCC)CCC(OC(C)C)=O", "physical_data": {"Molecular Weight": "326.56", "Molecular Formula": "C21H42O2", "Boiling Point": "207 \u00b0C", "Melting Point": "28 \u00b0C"}}