{"cas_no": "112-44-7", "cn_name": "\u5341\u4e00\u919b", "en_name": ["Undecanal", "Undecanal", "Hendecanal", "Hendecanaldehyde", "Undecyl aldehyde", "n-Undecyl aldehyde", "Undecylic aldehyde", "n-Undecanal", "Undecanaldehyde", "\u03b1-Undecanone", "1-Undecanal", "Undecanylaldehyde", "NSC 22578"], "SMILES": "C(CCCCC=O)CCCCC", "physical_data": {"Molecular Weight": "170.29", "Molecular Formula": "C11H22O", "Boiling Point": "101-103 \u00b0C @ Press: 10 Torr", "Melting Point": "-4 \u00b0C", "Density": "0.8609 g/cm\u00b3 @ Temp: 18 \u00b0C"}}