{"cas_no": "112-71-0", "cn_name": "\u6eb4\u4ee3\u5341\u56db\u70f7", "en_name": ["1-Bromotetradecane", "Tetradecane, 1-bromo-", "1-Bromotetradecane", "n-Tetradecyl-1-bromide", "Tetradecyl bromide", "Myristyl bromide", "1-Tetradecyl bromide", "n-Tetradecyl bromide", "NSC 83468"], "SMILES": "C(CCCCCCBr)CCCCCCC", "physical_data": {"Molecular Weight": "277.28", "Molecular Formula": "C14H29Br", "Boiling Point": "307 \u00b0C", "Melting Point": "5.6 \u00b0C", "Density": "1.017 g/cm\u00b3 @ Temp: 20 \u00b0C"}}