{"cas_no": "112-02-7", "cn_name": "\u897f\u66f2\u6c2f\u94f5", "en_name": ["Hexadecyltrimethylammonium chloride", "1-Hexadecanaminium, N,N,N-trimethyl-, chloride (1:1)", "Ammonium, hexadecyltrimethyl-, chloride", "Hexadecyltrimethylammonium chloride", "1-Hexadecanaminium, N,N,N-trimethyl-, chloride", "Aliquat 6", "Cetyltrimethylammonium chloride", "Intexan CTC 29", "Morpan CHA", "Trimethylhexadecylammonium chloride", "Trimethylcetylammonium chloride", "Arquad 16-50", "Dehyquart A", "HTAC", "Cetrimonium chloride", "Cation PB 40", "Genamin CTAC", "Barquat CT 29", "Intexsan CTC 29", "Intexsan CTC 50", "PB 40", "Nissan Cation PB 40", "n-Hexadecyltrimethylammonium chloride", "Palmityltrimethylammonium chloride", "Arquad 16-29", "Variquat E 228", "Adogen 444", "Dodigen 1383", "CTMA", "Lebon TM 16", "CTAC", "CETAC", "Surfroyal CTAC", "N,N,N-Trimethyl-1-hexadecanaminium chloride", "Arquad 16", "Pionin B 611", "Arquad 16-25W", "FSM 28", "Carsoquat CT 429", "Swanol CA 2350", "Catinal CTC 70ET", "HDTMA-Cl", "Ammonyx Cetac 30", "Quartamin 60W", "Arquad 16-29W", "Quatramine C 16/29", "Lebon TM 60", "BP 40", "Dehyquart A-CA", "Varisoft 300", "Arquad 16-26", "Arquad 16-25LO", "Incroquat CTC 30", "Cetac 30", "Catiogen TMP", "Protaquat CT 29", "CTAC 30KC", "C 16TAC", "Genamin CTAC 50", "Genamin CTAC 50ET", "CTACL", "1631CL", "Arquad 16-25", "Cationic 1631", "D 1631", "Carsoquat CT 425", "Dehyquart A-CE", "Ammonyx Cetac", "Adogen 444-29", "CA 2350", "CTAC 1", "Catiogen TMR", "Cetyltrimethylammomium chloride", "Aliquat 1529", "Nissan Cation PB 40R", "Ammonyx CETAC 25", "Cation PB 300", "N-Palmityl-N,N,N-trimethylammonium chloride", "Saboquat", "Quartamin 60W30", "CTAC CT-429", "CM 29", "Cationic Surfactant 1631", "Lipoquad 16-29", "Nikkol CA-2350E", "Nikkol CA 2330", "Belsil ADM 4000 E", "Cationic surfactant 1631", "Fentacare 1631-70"], "SMILES": "C(CCCCCCCCCCCCC)CC[N+](C)(C)C.[Cl-]", "physical_data": {"Molecular Weight": "", "Molecular Formula": "C19H42N.Cl", "Melting Point": "70 \u00b0C", "Density": "0.88 g/cm\u00b3 @ Temp: 60 \u00b0C"}}