{"cas_no": "112-43-6", "cn_name": "10-\u5341\u4e00\u70ef-1-\u9187", "en_name": ["10-Undecen-1-ol", "10-Undecen-1-ol", "1-Undecen-11-ol", "Undecylenic alcohol", "10-Undecylen-1-ol", "10-Undecenol", "11-Hydroxy-1-undecene", "\u03c9-Undecenyl alcohol", "10-Undecenyl alcohol", "\u03c9-Undecenol", "\u03c9-Undecylenyl alcohol", "NSC 66157"], "SMILES": "C(CCCCCO)CCCC=C", "physical_data": {"Molecular Weight": "170.29", "Molecular Formula": "C11H22O", "Boiling Point": "250 \u00b0C", "Melting Point": "-2 \u00b0C"}}