{"cas_no": "112-36-7", "cn_name": "\u4e8c\u4e59\u4e8c\u9187\u4e8c\u4e59\u919a", "en_name": ["Diethylene glycol diethyl ether", "Ethane, 1,1\u2032-oxybis[2-ethoxy-", "Ether, bis(2-ethoxyethyl)", "1,1\u2032-Oxybis[2-ethoxyethane]", "3,6,9-Trioxaundecane", "Diethyl Carbitol", "2-(2-Ethoxyethoxy)-1-ethoxyethane", "Diethylene glycol diethyl ether", "Bis(2-ethoxyethyl) ether", "Ethanol, 2,2\u2032-oxybis-, diethyl ether", "Ethyldiglyme", "2-Ethoxyethyl ether", "DEDG", "1-Ethoxy-2-(2-ethoxyethoxy)ethane", "Hisolve EDE", "B 0767"], "SMILES": "O(CCOCC)CCOCC", "physical_data": {"Molecular Weight": "162.23", "Molecular Formula": "C8H18O3", "Boiling Point": "188 \u00b0C @ Press: 760 Torr", "Melting Point": "-44 \u00b0C", "Density": "0.907 g/cm\u00b3 @ Temp: 20 \u00b0C"}}