{"cas_no": "112-39-0", "cn_name": "\u68d5\u6988\u9178\u7532\u916f", "en_name": ["Methyl palmitate", "Hexadecanoic acid, methyl ester", "Palmitic acid, methyl ester", "Metholene 2216", "Methyl hexadecanoate", "Methyl palmitate", "Uniphat A60", "Methyl n-hexadecanoate", "n-Hexadecanoic acid methyl ester", "Emery 2216", "Pastell M 16", "NSC 4197", "Edenor ME-C 16-80MY", "Edenor ME C16-98", "Radia 7120", "Radia 7916"], "SMILES": "C(CCCCCCCCCCC)CCCC(OC)=O", "physical_data": {"Molecular Weight": "270.45", "Molecular Formula": "C17H34O2", "Boiling Point": "417 \u00b0C", "Melting Point": "30 \u00b0C"}}