{"cas_no": "112-07-2", "cn_name": "\u4e59\u4e8c\u9187\u4e01\u919a\u918b\u9178\u916f", "en_name": ["Glycol monobutyl ether acetate", "Ethanol, 2-butoxy-, 1-acetate", "Ethanol, 2-butoxy-, acetate", "Butyl cellosolve acetate", "Ethylene glycol monobutyl ether acetate", "Glycol monobutyl ether acetate", "2-Butoxyethyl acetate", "Butoxyethyl acetate", "Butyl glycol acetate", "Ethylene glycol butyl ether acetate", "Dowanol EB acetate", "BCA", "EB Acetate", "Ethylene glycol acetate monobutyl ether", "B 0700", "BMGAC", "Ethylene glycol n-butyl ether acetate"], "SMILES": "C(OCCCC)COC(C)=O", "physical_data": {"Molecular Weight": "160.21", "Molecular Formula": "C8H16O3", "Boiling Point": "192.3 \u00b0C", "Melting Point": "-64 \u00b0C", "Density": "0.9422 g/cm\u00b3 @ Temp: 20 \u00b0C"}}