{"cas_no": "112-63-0", "cn_name": "\u4e9a\u6cb9\u9178\u7532\u916f", "en_name": ["Methyl linoleate", "9,12-Octadecadienoic acid (9Z,12Z)-, methyl ester", "Linoleic acid, methyl ester", "9,12-Octadecadienoic acid (Z,Z)-, methyl ester", "Methyl linoleate", "Methyl cis,cis-9,12-octadecadienoate", "Methyl cis-9,cis-12 linoleate", "Methyl 9-cis,12-cis-octadecadienoate", "Methyl (Z,Z)-9,12-octadecadienoate", "Methyl cis-9,cis-12-octadecadienoate", "Methyl (9Z,12Z)-octadecadienoate", "(9Z,12Z)-Octadecadienoic acid methyl ester", "Methyl octadec-9,12-dienoate", "(9Z,12Z)-9,12-Octadecadienoic acid methyl ester", "Radia 7062", "Methyl (9Z,12Z)-octadeca-9,12-dienoate", "(Z,Z)-9,12-Octadecadienoic acid methyl ester"], "SMILES": "C(CCC=CCC=CCCCCC)CCCCC(OC)=O", "physical_data": {"Molecular Weight": "294.47", "Molecular Formula": "C19H34O2", "Boiling Point": "185-186 \u00b0C @ Press: 5-6 Torr", "Melting Point": "-35 \u00b0C", "Density": "0.9043 g/cm\u00b3 @ Temp: 15 \u00b0C"}}