{"cas_no": "112-67-4", "cn_name": "\u68d5\u6988\u9170\u6c2f", "en_name": ["Palmitoyl chloride", "Hexadecanoyl chloride", "Palmitoyl chloride", "Palmitic acid chloride", "Hexadecanoic acid chloride", "Palmitic chloride", "Palmityl acid chloride", "NSC 9854"], "SMILES": "C(CCCCCCCCCC)CCCCC(Cl)=O", "physical_data": {"Molecular Weight": "274.87", "Molecular Formula": "C16H31ClO", "Boiling Point": "199 \u00b0C @ Press: 20 Torr", "Melting Point": "11-12 \u00b0C"}}