{"cas_no": "112-11-8", "cn_name": "\u6cb9\u9178\u5f02\u4e19\u916f", "en_name": ["Isopropyl oleate", "9-Octadecenoic acid (9Z)-, 1-methylethyl ester", "Oleic acid, isopropyl ester", "9-Octadecenoic acid (Z)-, 1-methylethyl ester", "Isopropyl oleate"], "SMILES": "C(CCCCC=CCCCCCCCC)CCC(OC(C)C)=O", "physical_data": {"Molecular Weight": "324.54", "Molecular Formula": "C21H40O2", "Boiling Point": "215-217 \u00b0C @ Press: 14-15 Torr", "Melting Point": "-37.7 \u00b0C", "Density": "0.8678 g/cm\u00b3 @ Temp: 15 \u00b0C"}}