{"cas_no": "112093-28-4", "cn_name": "(Z)-N-\u53bb\u7532\u57fa-4-\u7f9f\u57fa\u4e09\u82ef\u6c27\u80fa", "en_name": ["Endoxifen", "Phenol, 4-[(1Z)-1-[4-[2-(methylamino)ethoxy]phenyl]-2-phenyl-1-buten-1-yl]-", "Phenol, 4-[1-[4-[2-(methylamino)ethoxy]phenyl]-2-phenyl-1-butenyl]-, (Z)-", "Phenol, 4-[(1Z)-1-[4-[2-(methylamino)ethoxy]phenyl]-2-phenyl-1-butenyl]-", "4-[(1Z)-1-[4-[2-(Methylamino)ethoxy]phenyl]-2-phenyl-1-buten-1-yl]phenol", "4-Hydroxy-N-desmethyltamoxifen", "Endoxifen", "N-Desmethyl-4-hydroxytamoxifen", "(Z)-Endoxifen"], "SMILES": "C(=C(CC)C1=CC=CC=C1)(C2=CC=C(OCCNC)C=C2)C3=CC=C(O)C=C3", "physical_data": {"Molecular Weight": "373.49", "Molecular Formula": "C25H27NO2", "Melting Point": "139-143 \u00b0C"}}