{"cas_no": "1120-25-8", "cn_name": "\u68d5\u6988\u6cb9\u9178\u7532\u916f", "en_name": ["Methyl palmitoleate", "9-Hexadecenoic acid, methyl ester, (9Z)-", "9-Hexadecenoic acid, methyl ester, (Z)-", "Palmitoleic acid methyl ester", "Methyl palmitoleate", "Methyl palmitoleinate", "Methyl cis-hexadec-9-enoate", "Methyl (Z)-9-hexadecenoate", "Methyl (9Z)-hexadecenoate", "Methyl Z-9-hexadecanoic acid", "Methyl cis-9-hexadecenoate", "(Z)-9-Hexadecenoic acid, methyl ester"], "SMILES": "C(CCCC=CCCCCCC)CCCC(OC)=O", "physical_data": {"Molecular Weight": "268.43", "Molecular Formula": "C17H32O2", "Melting Point": "33.9 \u00b0C"}}