{"cas_no": "1120-87-2", "cn_name": "4-\u6eb4\u5421\u5576", "en_name": ["4-Bromopyridine", "Pyridine, 4-bromo-", "4-Bromopyridine", "Pyridin-4-yl bromide"], "SMILES": "BrC=1C=CN=CC1", "physical_data": {"Molecular Weight": "158.00", "Molecular Formula": "C5H4BrN", "Boiling Point": "28-30 \u00b0C", "Melting Point": "0.5 \u00b0C"}}