{"cas_no": "1120-06-5", "cn_name": "2-\u7678\u9187", "en_name": ["(\u00b1)-2-Decanol", "2-Decanol", "2-Hydroxydecane", "(\u00b1)-2-Decanol", "NSC 67349"], "SMILES": "C(CCCCC)CCC(C)O", "physical_data": {"Molecular Weight": "158.28", "Molecular Formula": "C10H22O", "Boiling Point": "110-111 \u00b0C @ Press: 10 Torr", "Density": "0.8256 g/cm\u00b3 @ Temp: 20 \u00b0C"}}