{"cas_no": "1120-34-9", "cn_name": "\u82a5\u9178\u7532\u916f", "en_name": ["Methyl erucate", "13-Docosenoic acid, methyl ester, (13Z)-", "13-Docosenoic acid, methyl ester, (Z)-", "Brassidic acid, methyl ester", "Methyl erucate", "Erucic acid methyl ester", "Methyl 13(Z)-docosenoate", "Methyl cis-13-docosenoate", "Agnique ME 22U", "(Z)-Erucic acid methyl ester"], "SMILES": "C(CCCCCCC=CCCCCCCCC)CCCCC(OC)=O", "physical_data": {"Molecular Weight": "352.59", "Molecular Formula": "C23H44O2", "Boiling Point": "221-222 \u00b0C @ Press: 5 Torr", "Melting Point": "-1.16-1.20 \u00b0C", "Density": "0.8702 g/cm\u00b3 @ Temp: 20 \u00b0C"}}