{"cas_no": "1120-48-5", "cn_name": "\u4e8c\u6b63\u8f9b\u80fa", "en_name": ["Dioctylamine", "1-Octanamine, N-octyl-", "Dioctylamine", "N-Octyl-1-octanamine", "RC 5632", "Di-n-Octylamine", "N-n-Octyl-n-octylamine", "NSC 1765", "N,N-Dioctylamine"], "SMILES": "N(CCCCCCCC)CCCCCCCC", "physical_data": {"Molecular Weight": "241.46", "Molecular Formula": "C16H35N", "Boiling Point": "297.5 \u00b0C", "Melting Point": "35.5 \u00b0C", "Density": "0.7985 g/cm\u00b3 @ Temp: 20 \u00b0C"}}