{"cas_no": "1120-71-4", "cn_name": "1,3-\u4e19\u70f7\u78fa\u5185\u916f", "en_name": ["Propane sultone", "1,2-Oxathiolane, 2,2-dioxide", "1-Propanesulfonic acid, 3-hydroxy-, \u03b3-sultone", "1,3-Propane sultone", "\u03b3-Propane sultone", "Propane sultone", "3-Hydroxy-1-propanesulfonic acid sultone", "Propyl sultone", "3-Hydroxy-1-propanesulfonic acid \u03b3-sultone", "NSC 42386", "1,3-Trimethylene sultone", "1,2-Oxathiolan-2,2-dioxide", "1,2-Oxathiolane-2,2-dioxide", "ES 200L", "1,2\u03bb6-Oxathiolane-2,2-dione"], "SMILES": "O=S1(=O)CCCO1", "physical_data": {"Molecular Weight": "122.14", "Molecular Formula": "C3H6O3S", "Boiling Point": "180 \u00b0C @ Press: 30 Torr", "Melting Point": "31 \u00b0C", "Density": "1.393 g/cm\u00b3 @ Temp: 40 \u00b0C"}}