{"cas_no": "1120-28-1", "cn_name": "\u82b1\u751f\u9178\u7532\u916f", "en_name": ["Methyl eicosanoate", "Eicosanoic acid, methyl ester", "Methyl arachate", "Methyl arachidate", "Methyl eicosanoate", "Arachic acid methyl ester", "Arachidic acid methyl ester", "n-Eicosanoic acid methyl ester", "Methyl eicosanate", "C20:0 FAME"], "SMILES": "C(CCCCCCCCCCCCCCC)CCCC(OC)=O", "physical_data": {"Molecular Weight": "326.56", "Molecular Formula": "C21H42O2", "Boiling Point": "215 \u00b0C @ Press: 10 Torr", "Melting Point": "54.5 \u00b0C", "Density": "0.8633 g/cm\u00b3 @ Temp: 20 \u00b0C"}}