{"cas_no": "1120-16-7", "cn_name": "\u6708\u6842\u9170\u80fa", "en_name": ["Dodecanamide", "Dodecanamide", "Lauramide", "Amide KK", "Lauric amide", "Lauryl amide", "Dodecylamide", "Dodecamide", "Diamid Y", "Lauroyl amide", "Armid 12", "NSC 26630", "NSC 889"], "SMILES": "C(CCCCCCCC)CCC(N)=O", "physical_data": {"Molecular Weight": "199.33", "Molecular Formula": "C12H25NO", "Melting Point": "110 \u00b0C"}}