{"cas_no": "1120-24-7", "cn_name": "N,N-\u4e8c\u7532\u57fa\u7678\u80fa", "en_name": ["Dimethyldecylamine", "1-Decanamine, N,N-dimethyl-", "Decylamine, N,N-dimethyl-", "N,N-Dimethyl-1-decanamine", "Decyldimethylamine", "N,N-Dimethyl-N-decylamine", "N,N-Dimethyldecylamine", "N,N-Dimethyl-1-decylamine", "Dimethyldecylamine", "Farmin DM 10P", "ADMA 10", "NSC 24529", "N-Decyl-N,N-dimethylamine", "Armeen DM 10D", "Farmin DM 1098", "1-Dimethylaminodecane"], "SMILES": "C(CCCCCC)CCCN(C)C", "physical_data": {"Molecular Weight": "185.35", "Molecular Formula": "C12H27N", "Boiling Point": "106 \u00b0C @ Press: 9 Torr"}}