{"cas_no": "1120-21-4", "cn_name": "\u5341\u4e00\u70f7", "en_name": ["Undecane", "Undecane", "Hendecane", "n-Undecane", "Halpaclean", "Nikko Elace", "N 11", "NSC 66159"], "SMILES": "C(CCCCC)CCCCC", "physical_data": {"Molecular Weight": "156.31", "Molecular Formula": "C11H24", "Boiling Point": "195.9 \u00b0C @ Press: 760 Torr", "Melting Point": "-25.6 \u00b0C", "Density": "0.7402 g/cm\u00b3 @ Temp: 20 \u00b0C"}}