{"cas_no": "1120-56-5", "cn_name": "\u7532\u57fa\u70ef\u73af\u4e01\u70f7", "en_name": ["Methylenecyclobutane", "Cyclobutane, methylene-", "Methylenecyclobutane", "exo-Methylenecyclobutane", "NSC 90355"], "SMILES": "C=C1CCC1", "physical_data": {"Molecular Weight": "68.12", "Molecular Formula": "C5H8", "Boiling Point": "42.2 \u00b0C", "Melting Point": "-134.7 \u00b0C", "Density": "0.7487 g/cm\u00b3 @ Temp: 10 \u00b0C"}}