{"cas_no": "112006-75-4", "cn_name": "2-\u6c28\u57fa\u78fa\u9170\u57fa-N,N-\u4e8c\u7532\u57fa\u70df\u9170\u80fa", "en_name": ["2-Aminosulfonyl-N,N-dimethylnicotinamide", "3-Pyridinecarboxamide, 2-(aminosulfonyl)-N,N-dimethyl-", "2-(Aminosulfonyl)-N,N-dimethyl-3-pyridinecarboxamide", "2-Aminosulfonyl-N,N-dimethylnicotinamide", "2-Aminosulfonyl-N,N-dimethylnicotamide", "N,N-Dimethyl-2-sulfamoylnicotinamide"], "SMILES": "S(N)(=O)(=O)C1=C(C(N(C)C)=O)C=CC=N1", "physical_data": {"Molecular Weight": "229.26", "Molecular Formula": "C8H11N3O3S", "Melting Point": "198-209 \u00b0C (decomp)"}}