{"cas_no": "112055-36-4", "cn_name": "1-(4-\u6c2f\u82ef\u57fa)-5-\u4e09\u6c1f\u7532\u57fa-1H-\u5421\u5511-4-\u7fa7\u9178\u4e59\u916f", "en_name": ["Ethyl 1-(4-chlorophenyl)-5-(trifluoromethyl)-1H-pyrazole-4-carboxylate", "1H-Pyrazole-4-carboxylic acid, 1-(4-chlorophenyl)-5-(trifluoromethyl)-, ethyl ester", "Ethyl 1-(4-chlorophenyl)-5-(trifluoromethyl)-1H-pyrazole-4-carboxylate", "1-(4-Chlorophenyl)-5-trifluoromethyl-1H-pyrazole-4-carboxylic acid ethyl ester"], "SMILES": "C(F)(F)(F)C=1N(N=CC1C(OCC)=O)C2=CC=C(Cl)C=C2", "physical_data": {"Molecular Weight": "318.68", "Molecular Formula": "C13H10ClF3N2O2", "Melting Point": "51-53 \u00b0C"}}