{"cas_no": "1120-73-6", "cn_name": "\u7532\u57fa\u73af\u620a\u70ef\u9187\u916e", "en_name": ["2-Methyl-2-cyclopenten-1-one", "2-Cyclopenten-1-one, 2-methyl-", "2-Methyl-2-cyclopenten-1-one", "2-Methyl-2-cyclopentenone", "2-Methyl-2-cyclopentene-1-one"], "SMILES": "CC=1C(=O)CCC1", "physical_data": {"Molecular Weight": "96.13", "Molecular Formula": "C6H8O", "Boiling Point": "157 \u00b0C", "Density": "0.9772 g/cm\u00b3 @ Temp: 20 \u00b0C"}}