{"cas_no": "1120-57-6", "cn_name": "\u73af\u4e01\u57fa\u6c2f", "en_name": ["Chlorocyclobutane", "Cyclobutane, chloro-", "Chlorocyclobutane", "Cyclobutyl chloride"], "SMILES": "ClC1CCC1", "physical_data": {"Molecular Weight": "90.55", "Molecular Formula": "C4H7Cl", "Melting Point": "155-156 \u00b0C"}}