{"cas_no": "1120-90-7", "cn_name": "3-\u7898\u5421\u5576", "en_name": ["3-Iodopyridine", "Pyridine, 3-iodo-", "3-Iodopyridine", "3-Pyridyl iodide", "NSC 5076", "Methanesulfonic acid, 1,1,1-trifluoro-, compd. with 3-iodopyridine (1:1)"], "SMILES": "IC=1C=CC=NC1", "physical_data": {"Molecular Weight": "205.00", "Molecular Formula": "C5H4IN", "Boiling Point": "40 \u00b0C @ Press: 2.03 Torr", "Melting Point": "53.5 \u00b0C"}}