{"cas_no": "1120-12-3", "cn_name": "\u6c28\u57fa\u58ec\u9178", "en_name": ["9-Aminononanoic acid", "Nonanoic acid, 9-amino-", "9-Aminononanoic acid", "9-Aminopelargonic acid", "Aminopelargonic acid"], "SMILES": "C(CCCCCN)CCC(O)=O", "physical_data": {"Molecular Weight": "173.25", "Molecular Formula": "C9H19NO2", "Melting Point": "115-118 \u00b0C"}}