{"cas_no": "112068-01-6", "cn_name": "(S)-(+)-alpha,alpha-\u4e8c\u82ef\u57fa\u812f\u6c28\u9187", "en_name": ["\u03b1,\u03b1-Diphenyl-L-prolinol", "2-Pyrrolidinemethanol, \u03b1,\u03b1-diphenyl-, (2S)-", "2-Pyrrolidinemethanol, \u03b1,\u03b1-diphenyl-, (S)-", "(2S)-\u03b1,\u03b1-Diphenyl-2-pyrrolidinemethanol", "(S)-(-)-2-(Diphenylhydroxymethyl)pyrrolidine", "(S)-\u03b1,\u03b1-Diphenyl-2-pyrrolidinemethanol", "(-)-2-(Diphenylhydroxymethyl)pyrrolidine", "(S)-\u03b1,\u03b1-Diphenylprolinol", "(-)-\u03b1,\u03b1-Diphenylprolinol", "(S)-(-)-\u03b1,\u03b1-Diphenyl-2-pyrrolidinemethanol", "(S)-2-(Diphenylhydroxymethyl)pyrrolidine", "(-)-\u03b1,\u03b1-Diphenyl-2-pyrrolidinemethanol", "(S)-\u03b1,\u03b1-Diphenylpyrrolidin-2-ylmethanol", "(S)-2-(Hydroxydiphenylmethyl)pyrrolidine", "(S)-Diphenyl(pyrrolidin-2-yl)methanol", "\u03b1,\u03b1-Diphenyl-L-prolinol", "(S)-\u03b1,\u03b1-Diphenylpyrrolidinemethanol", "(S)-(-)-\u03b1,\u03b1-Diphenylprolinol"], "SMILES": "C(O)(C1CCCN1)(C2=CC=CC=C2)C3=CC=CC=C3", "physical_data": {"Molecular Weight": "253.34", "Molecular Formula": "C17H19NO", "Melting Point": "73-75 \u00b0C"}}