{"cas_no": "1120-99-6", "cn_name": "1,2,4-\u4e09\u55ea-3-\u80fa", "en_name": ["3-Amino-1,2,4-triazine", "1,2,4-Triazin-3-amine", "as-Triazine, 3-amino-", "3-Amino-1,2,4-triazine", "NSC 203233", "3-Amino-as-triazine", "[1,2,4]Triazin-3-ylamine"], "SMILES": "NC=1N=CC=NN1", "physical_data": {"Molecular Weight": "96.09", "Molecular Formula": "C3H4N4", "Melting Point": "171.5-172.5 \u00b0C"}}