{"cas_no": "1120-02-1", "cn_name": "\u5341\u516b\u70f7\u57fa\u4e09\u7532\u57fa\u6eb4\u5316\u94f5", "en_name": ["Octadecyltrimethylammonium bromide", "1-Octadecanaminium, N,N,N-trimethyl-, bromide (1:1)", "Trimethyloctadecylammonium bromide", "Ammonium, trimethyloctadecyl-, bromide", "1-Octadecanaminium, N,N,N-trimethyl-, bromide", "Morpan O", "n-Octadecyltrimethylammonium bromide", "Softex", "Stearyltrimethylammonium bromide", "Octadecyltrimethylammonium bromide", "N,N,N-Trimethyl-1-octadecanaminium bromide", "Eveite B 18", "Vulnoc OB", "Zeonet B", "Trimethylstearylammonium bromide", "N,N,N-Trimethyloctadecan-1-ammonium bromide", "OTAB", "STAB", "Catinal STB", "Zeonet BF", "OTMA", "Stearyltrimonium bromide", "Catinal STB 70", "Steartrimonium bromide", "OctMAB"], "SMILES": "C(CCCCCCCCCCCCCCC)CC[N+](C)(C)C.[Br-]", "physical_data": {"Molecular Weight": "", "Molecular Formula": "C21H46N.Br", "Melting Point": "230-240 \u00b0C (decomp)"}}