{"cas_no": "1120-36-1", "cn_name": "1-\u5341\u56db\u70ef", "en_name": ["1-Tetradecene", "1-Tetradecene", "n-Tetradec-1-ene", "\u03b1-Tetradecene", "1-Butadecene", "Dialen 14", "Neodene 14", "NeoSolv 4", "NSC 66434", "Linealene 14"], "SMILES": "C(CCCCCC=C)CCCCCC", "physical_data": {"Molecular Weight": "196.37", "Molecular Formula": "C14H28", "Boiling Point": "232-234 \u00b0C @ Press: 760 Torr", "Melting Point": "-12 \u00b0C", "Density": "0.7745 g/cm\u00b3 @ Temp: 20 \u00b0C"}}