{"cas_no": "112022-81-8", "cn_name": "(S)-2-\u7532\u57fa-CBS-\u6076\u5511\u787c\u70f7", "en_name": ["(3aS)-Tetrahydro-1-methyl-3,3-diphenyl-1H,3H-pyrrolo[1,2-c][1,3,2]oxazaborole", "1H,3H-Pyrrolo[1,2-c][1,3,2]oxazaborole, tetrahydro-1-methyl-3,3-diphenyl-, (3aS)-", "1H,3H-Pyrrolo[1,2-c][1,3,2]oxazaborole, tetrahydro-1-methyl-3,3-diphenyl-, (S)-", "(3aS)-Tetrahydro-1-methyl-3,3-diphenyl-1H,3H-pyrrolo[1,2-c][1,3,2]oxazaborole", "(S)-Tetrahydro-1-methyl-3,3-diphenyl-1H,3H-pyrrolo[1,2-c][1,3,2]oxazaborole", "(S)-Tetrahydro-1-methyl-3,3-diphenyl-1H,3H-pyrrolo[1,2-c][1,3,2]oxazaborole", "(S)-2-Methyl-CBS-oxazaborolidine", "(S)-CBS reagent", "(S)-Methyl-CBS", "(S)-(-)-2-Methyl-CBS-oxazaborolidine", "(S)-Me-CBS", "(3AS)-1-methyl-3,3-diphenyl-3a,4,5,6-tetrahydropyrrolo[1,2-c][1,3,2]oxazaborole", "(S)-3,3-Diphenyl-1-Methyltetrahydro-1H,3H-Pyrrolo[1,2-c][1,3,2]Oxazaborole"], "SMILES": "CB1OC(C2N1CCC2)(C3=CC=CC=C3)C4=CC=CC=C4", "physical_data": {"Molecular Weight": "277.17", "Molecular Formula": "C18H20BNO", "Melting Point": "74-87 \u00b0C"}}