{"cas_no": "1120-97-4", "cn_name": "4-\u7532\u57fa-1,3-\u4e8c\u6c27\u516d\u73af", "en_name": ["4-Methyl-1,3-dioxane", "1,3-Dioxane, 4-methyl-", "m-Dioxane, 4-methyl-", "4-Methyl-1,3-dioxane", "4-Methyl-m-dioxane", "NSC 292"], "SMILES": "CC1CCOCO1", "physical_data": {"Molecular Weight": "102.13", "Molecular Formula": "C5H10O2", "Boiling Point": "114 \u00b0C", "Melting Point": "-44.5 \u00b0C", "Density": "0.9758 g/cm\u00b3 @ Temp: 20 \u00b0C"}}