{"cas_no": "1120-72-5", "cn_name": "2-\u7532\u57fa\u73af\u620a\u916e", "en_name": ["2-Methylcyclopentanone", "Cyclopentanone, 2-methyl-", "Cyclopentanone, 2-methyl-, (\u00b1)-", "2-Methylcyclopentanone", "\u03b1-Methylcyclopentanone", "2-Methylcyclopentan-1-one", "(\u00b1)-2-Methylcyclopentanone", "NSC 105429"], "SMILES": "CC1C(=O)CCC1", "physical_data": {"Molecular Weight": "98.14", "Molecular Formula": "C6H10O", "Boiling Point": "139.5 \u00b0C", "Melting Point": "-75 \u00b0C", "Density": "0.9189 g/cm\u00b3 @ Temp: 20 \u00b0C"}}