{"cas_no": "1120-64-5", "cn_name": "2-\u7532\u57fa-2-\u6076\u5511\u5549", "en_name": ["2-Methyl-2-oxazoline", "Oxazole, 4,5-dihydro-2-methyl-", "2-Oxazoline, 2-methyl-", "4,5-Dihydro-2-methyloxazole", "2-Methyl-2-oxazoline", "2-Methyloxazoline", "NSC 43141", "2-Methyl-4,5-dihydrooxazole", "2-Methyl-4,5-dihydro-1,3-oxazole"], "SMILES": "CC1=NCCO1", "physical_data": {"Molecular Weight": "85.10", "Molecular Formula": "C4H7NO", "Boiling Point": "111 \u00b0C", "Density": "0.9895 g/cm\u00b3 @ Temp: 20 \u00b0C"}}