{"cas_no": "1120-49-6", "cn_name": "N-\u7678\u57fa-1-\u7678\u80fa", "en_name": ["Didecylamine", "1-Decanamine, N-decyl-", "Didecylamine", "N-Decyl-1-decanamine", "N-Decyldecanamine", "N,N-Didecylamine"], "SMILES": "N(CCCCCCCCCC)CCCCCCCCCC", "physical_data": {"Molecular Weight": "297.56", "Molecular Formula": "C20H43N", "Boiling Point": "184-186 \u00b0C @ Press: 3.0 Torr", "Melting Point": "47.5 \u00b0C"}}