{"cas_no": "1121-47-7", "cn_name": "\u7ce0\u919b\u809f", "en_name": ["Furfural oxime", "2-Furancarboxaldehyde, oxime", "2-Furaldehyde, oxime", "\u03b1-Furfuraldoxime", "Furfural oxime", "\u03b1-Furfural oxime", "2-Furfuraldoxime", "2-Furaldoxime", "Furfuryl oxime", "Furfuraldoxime", "2-Furanaldoxime", "NSC 1919", "NSC 49237"], "SMILES": "C(=NO)C1=CC=CO1", "physical_data": {"Molecular Weight": "111.10", "Molecular Formula": "C5H5NO2", "Boiling Point": "80-85 \u00b0C @ Press: 20 Torr", "Melting Point": "75-76 \u00b0C"}}