{"cas_no": "1121-89-7", "cn_name": "\u620a\u4e8c\u9170\u4e9a\u80fa", "en_name": ["Glutarimide", "2,6-Piperidinedione", "Glutarimide", "NSC 168666", "NSC 58190"], "SMILES": "O=C1NC(=O)CCC1", "physical_data": {"Molecular Weight": "113.11", "Molecular Formula": "C5H7NO2", "Melting Point": "152-153 \u00b0C"}}