{"cas_no": "1121-03-5", "cn_name": "2,4-\u4e01\u70f7\u78fa\u5185\u916f", "en_name": ["2,4-Butanesultone", "1,2-Oxathiolane, 3-methyl-, 2,2-dioxide", "2-Butanesulfonic acid, 4-hydroxy-, \u03b3-sultone", "2,4-Butanesultone", "3-Methyloxathiolane 2,2-dioxide", "3-Methyl-1,2\u03bb6-oxathiolane-2,2-dione"], "SMILES": "O=S1(=O)C(C)CCO1", "physical_data": {"Molecular Weight": "136.17", "Molecular Formula": "C4H8O3S", "Boiling Point": "150 \u00b0C @ Press: 15 Torr", "Melting Point": "-14 \u00b0C", "Density": "1.31 g/cm\u00b3 @ Temp: 18 \u00b0C"}}