{"cas_no": "1121-92-2", "cn_name": "\u4e03\u7532\u4e9a\u80fa", "en_name": ["Azocan", "Azocine, octahydro-", "Heptamethylenimine", "Octahydroazocine", "Azacyclooctane", "Perhydroazocine", "1-Azacyclooctane", "Azocan", "Azocane"], "SMILES": "C1CCCNCCC1", "physical_data": {"Molecular Weight": "113.20", "Molecular Formula": "C7H15N", "Boiling Point": "174-175 \u00b0C @ Press: 764 Torr", "Melting Point": "29 \u00b0C", "Density": "0.869 g/cm\u00b3 @ Temp: 17 \u00b0C"}}