{"cas_no": "112101-75-4", "cn_name": "(R)-(+)-5-(2-\u6c28\u57fa\u4e19\u57fa)-2-\u7532\u6c27\u57fa\u82ef\u78fa\u9170\u80fa\u76d0\u9178\u76d0", "en_name": ["Benzenesulfonamide, 5-[(2R)-2-aminopropyl]-2-methoxy-, hydrochloride (1:1)", "Benzenesulfonamide, 5-[(2R)-2-aminopropyl]-2-methoxy-, hydrochloride (1:1)", "Benzenesulfonamide, 5-(2-aminopropyl)-2-methoxy-, monohydrochloride, (R)-", "Benzenesulfonamide, 5-[(2R)-2-aminopropyl]-2-methoxy-, monohydrochloride", "(R)-(-)-5-(2-Aminopropyl)-2-methoxybenzenesulfonamide hydrochloride", "(R)-(+)-5-(2-Aminopropyl)-2-methoxybenzene sulfonamide hydrochloride"], "SMILES": "S(N)(=O)(=O)C1=C(OC)C=CC(CC(C)N)=C1.Cl", "physical_data": {"Molecular Weight": "", "Molecular Formula": "C10H16N2O3S.ClH", "Melting Point": "276-278 \u00b0C"}}