{"cas_no": "112197-16-7", "cn_name": "3-\u7f9f\u7532\u57fa-2-\u7532\u6c27\u57fa\u5421\u5576", "en_name": ["2-Methoxy-3-pyridinemethanol", "3-Pyridinemethanol, 2-methoxy-", "2-Methoxy-3-pyridinemethanol", "3-Hydroxymethyl-2-methoxypyridine", "(2-Methoxypyridin-3-yl)methanol"], "SMILES": "C(O)C1=C(OC)N=CC=C1", "physical_data": {"Molecular Weight": "139.15", "Molecular Formula": "C7H9NO2", "Boiling Point": "95 \u00b0C @ Press: 3 Torr", "Melting Point": "36-38 \u00b0C"}}