{"cas_no": "112101-81-2", "cn_name": "R-(-)-5-(2-\u6c28\u57fa\u4e19\u57fa)-2-\u7532\u6c27\u57fa\u82ef\u78fa\u9170\u80fa", "en_name": ["(R)-5-(2-Aminopropyl)-2-methoxybenzenesulfonamide", "Benzenesulfonamide, 5-[(2R)-2-aminopropyl]-2-methoxy-", "Benzenesulfonamide, 5-(2-aminopropyl)-2-methoxy-, (R)-", "5-[(2R)-2-Aminopropyl]-2-methoxybenzenesulfonamide", "(R)-5-(2-Aminopropyl)-2-methoxybenzenesulfonamide", "(R)-(-)-5-(2-Aminopropyl)-2-methoxybenzenesulfonamide"], "SMILES": "S(N)(=O)(=O)C1=C(OC)C=CC(CC(C)N)=C1", "physical_data": {"Molecular Weight": "244.31", "Molecular Formula": "C10H16N2O3S", "Melting Point": "166-167 \u00b0C"}}