{"cas_no": "1121-24-0", "cn_name": "2-\u7f9f\u57fa\u82ef\u786b\u915a", "en_name": ["2-Mercaptophenol", "Phenol, 2-mercapto-", "Phenol, o-mercapto-", "2-Mercaptophenol", "o-Mercaptophenol", "2-Hydroxythiophenol", "2-Hydroxybenzenethiol", "o-Hydroxybenzenethiol", "o-Hydroxythiophenol", "2-Sulfanylphenol"], "SMILES": "OC1=C(S)C=CC=C1", "physical_data": {"Molecular Weight": "126.18", "Molecular Formula": "C6H6OS", "Boiling Point": "217 \u00b0C", "Melting Point": "5.5 \u00b0C"}}