{"cas_no": "1121-66-0", "cn_name": "2-\u73af\u5e9a\u70ef-1-\u916e", "en_name": ["2-Cyclohepten-1-one", "2-Cyclohepten-1-one", "Tropilene", "2-Cycloheptenone", "NSC 155333"], "SMILES": "O=C1CCCCC=C1", "physical_data": {"Molecular Weight": "110.15", "Molecular Formula": "C7H10O", "Boiling Point": "37.5 \u00b0C @ Press: 0.6 Torr"}}