{"cas_no": "1121-78-4", "cn_name": "3-\u7f9f\u57fa-6-\u7532\u57fa\u5421\u5576", "en_name": ["5-Hydroxy-2-methylpyridine", "3-Pyridinol, 6-methyl-", "3-Pyridol, 6-methyl-", "6-Methyl-3-pyridinol", "6-Methyl-3-hydroxypyridine", "3-Hydroxy-6-methylpyridine", "2-Methyl-5-hydroxypyridine", "5-Hydroxy-2-methylpyridine", "2-Methyl-5-pyridinol", "5-Hydroxy-2-picoline", "NSC 27963"], "SMILES": "OC=1C=CC(C)=NC1", "physical_data": {"Molecular Weight": "109.13", "Molecular Formula": "C6H7NO", "Melting Point": "165-167 \u00b0C"}}