{"cas_no": "1121-07-9", "cn_name": "N-\u7532\u57fa\u4e01\u4e8c\u9170\u80fa", "en_name": ["N-Methylsuccinimide", "2,5-Pyrrolidinedione, 1-methyl-", "Succinimide, N-methyl-", "1-Methyl-2,5-pyrrolidinedione", "N-Methylsuccinimide", "N-Methyl-2,5-pyrrolidinedione", "NSC 11324"], "SMILES": "CN1C(=O)CCC1=O", "physical_data": {"Molecular Weight": "113.11", "Molecular Formula": "C5H7NO2", "Boiling Point": "234 \u00b0C", "Melting Point": "71 \u00b0C"}}