{"cas_no": "112197-15-6", "cn_name": "3-\u7898-2-\u7532\u6c27\u57fa\u5421\u5576", "en_name": ["3-Iodo-2-methoxypyridine", "Pyridine, 3-iodo-2-methoxy-", "3-Iodo-2-methoxypyridine"], "SMILES": "O(C)C1=C(I)C=CC=N1", "physical_data": {"Molecular Weight": "235.02", "Molecular Formula": "C6H6INO", "Boiling Point": "85 \u00b0C @ Press: 3 Torr", "Melting Point": "66 \u00b0C"}}