{"cas_no": "1121-31-9", "cn_name": "2-\u5def\u57fa\u5421\u5576-N-\u6c27\u5316\u7269", "en_name": ["2-Mercaptopyridine N-oxide", "2-Pyridinethiol, 1-oxide", "2-Mercaptopyridine 1-oxide", "2-Mercaptopyridine N-oxide", "2-Mercaptopyridine monoxide", "2-Pyridinethiol N-oxide", "Omadine", "2-Mercaptopyridine oxide", "2-Sulfanylpyridin-1-ium-1-olate"], "SMILES": "SC=1N(=O)=CC=CC1", "physical_data": {"Molecular Weight": "127.16", "Molecular Formula": "C5H5NOS", "Melting Point": "70-73 \u00b0C"}}