{"cas_no": "1121-25-1", "cn_name": "3-\u7f9f\u57fa-2-\u7532\u57fa\u5421\u5576", "en_name": ["3-Hydroxy-2-methylpyridine", "3-Pyridinol, 2-methyl-", "2-Methyl-3-pyridinol", "3-Hydroxy-2-methylpyridine", "2-Methyl-3-hydroxypyridine", "NSC 27506"], "SMILES": "OC1=C(C)N=CC=C1", "physical_data": {"Molecular Weight": "109.13", "Molecular Formula": "C6H7NO", "Boiling Point": "185-195 \u00b0C @ Press: 70 Torr", "Melting Point": "164-166 \u00b0C"}}