{"cas_no": "1121-46-6", "cn_name": "(3,5-\u4e8c\u7532\u57fa-4-\u5f02\u5511)\u4e59\u9178", "en_name": ["2-Furanethanamine", "2-Furanethanamine", "2-Furanethylamine", "2-(2-Furyl)ethylamine", "2-Furylethylamine", "2-(2-Aminoethyl)furan", "[2-(Furan-2-yl)ethyl]amine", "2-(Furan-2-yl)ethanamine", "2-(Furan-2-yl)ethan-1-amine", "2-(2-Furyl)ethanamine"], "SMILES": "C(CN)C1=CC=CO1", "physical_data": {"Molecular Weight": "111.14", "Molecular Formula": "C6H9NO", "Boiling Point": "59-60 \u00b0C @ Press: 25 Torr", "Melting Point": "204 \u00b0C", "Density": "0.992 g/cm\u00b3 @ Temp: 25 \u00b0C"}}