{"cas_no": "1121-60-4", "cn_name": "\u5421\u5576-2-\u7532\u919b", "en_name": ["2-Pyridinecarboxaldehyde", "2-Pyridinecarboxaldehyde", "Picolinaldehyde", "Pyridine-2-aldehyde", "2-Pyridaldehyde", "2-Picolinaldehyde", "2-Pyridinecarbaldehyde", "o-Nicotinaldehyde", "2-Formylpyridine", "2-Pyridinaldehyde", "Picolinal", "2-Picolinealdehyde", "2-Pyridylcarboxaldehyde", "Picolinic aldehyde", "\u03b1-Picolinaldehyde", "\u03b1-Formylpyridine", "Pyridin-2-al", "o-Formylpyridine", "Picolylaldehyde", "NSC 8951", "2-Pydridinecarboxaldehyde", "o-Pyridinemethanal"], "SMILES": "C(=O)C1=CC=CC=N1", "physical_data": {"Molecular Weight": "107.11", "Molecular Formula": "C6H5NO", "Boiling Point": "180 \u00b0C", "Melting Point": "148-151 \u00b0C", "Density": "1.1255 g/cm\u00b3 @ Temp: 18.5 \u00b0C"}}