{"cas_no": "1121-30-8", "cn_name": "\u5421\u5576\u786b\u916e", "en_name": ["Pyrithione", "2(1H)-Pyridinethione, 1-hydroxy-", "1-Hydroxy-2(1H)-pyridinethione", "1-Hydroxy-2-pyridinethione", "Omadine", "PTO", "N-Hydroxypyridine-2-thione", "Pyrithione", "N-Hydroxy-2-thiopyridone", "N-Hydroxypyridine-2(1H)-thione", "NSC 179790", "1-Hydroxy-1H-pyridine-2-thione", "1-Hydroxy-2-thiopyridinone", "1-Hydroxy-1,2-dihydropyridine-2-thione"], "SMILES": "S=C1N(O)C=CC=C1", "physical_data": {"Molecular Weight": "127.16", "Molecular Formula": "C5H5NOS", "Melting Point": "68-70 \u00b0C"}}