{"cas_no": "1121-37-5", "cn_name": "\u53cc\u73af\u4e19\u57fa\u916e", "en_name": ["Dicyclopropyl ketone", "Methanone, dicyclopropyl-", "Cyclopropyl ketone", "Dicyclopropylmethanone", "Dicyclopropyl ketone", "NSC 49148"], "SMILES": "C(=O)(C1CC1)C2CC2", "physical_data": {"Molecular Weight": "110.15", "Molecular Formula": "C7H10O", "Boiling Point": "161 \u00b0C", "Melting Point": "44.0-44.5 \u00b0C"}}