{"cas_no": "1121-76-2", "cn_name": "4-\u6c2f\u5421\u5576 N-\u6c27\u5316\u7269", "en_name": ["Pyridine, 4-chloro-, 1-oxide", "Pyridine, 4-chloro-, 1-oxide", "Pyridine, 4-chloro-, oxide", "4-Chloropyridine N-oxide", "TH 285N", "4-Chloropyridine 1-oxide", "4-Chloropyridine oxide", "NSC 5074"], "SMILES": "ClC=1C=CN(=O)=CC1", "physical_data": {"Molecular Weight": "129.54", "Molecular Formula": "C5H4ClNO", "Melting Point": "187-189 \u00b0C"}}