{"cas_no": "1121-84-2", "cn_name": "3-\u7532\u57fa-5-\u620a\u5185\u916f", "en_name": ["\u03b2-Methyl-\u03b4-valerolactone", "2H-Pyran-2-one, tetrahydro-4-methyl-", "Valeric acid, 5-hydroxy-3-methyl-, lactone", "Valeric acid, 5-hydroxy-3-methyl-, \u03b4-lactone", "Tetrahydro-4-methyl-2H-pyran-2-one", "\u03b2-Methyl-\u03b4-valerolactone", "(\u00b1)-3-Methylvalerolactone", "NSC 32358", "4-Methyltetrahydropyran-2-one", "3-Methyl-\u03b4-valerolactone", "4-Methyltetrahydro-2H-pyran-2-one", "(RS)-tetrahydro-4-methylpyran-2-one"], "SMILES": "CC1CC(=O)OCC1", "physical_data": {"Molecular Weight": "114.14", "Molecular Formula": "C6H10O2", "Boiling Point": "90 \u00b0C @ Press: 12 Torr", "Density": "1.044 g/cm\u00b3 @ Temp: 25 \u00b0C"}}