{"cas_no": "112143-82-5", "cn_name": "\u5511\u869c\u5a01", "en_name": ["Triazamate", "Acetic acid, 2-[[1-[(dimethylamino)carbonyl]-3-(1,1-dimethylethyl)-1H-1,2,4-triazol-5-yl]thio]-, ethyl ester", "Acetic acid, [[1-[(dimethylamino)carbonyl]-3-(1,1-dimethylethyl)-1H-1,2,4-triazol-5-yl]thio]-, ethyl ester", "RH 7988", "Triazamate", "Triazuron", "Aphistar"], "SMILES": "C(N(C)C)(=O)N1C(SCC(OCC)=O)=NC(C(C)(C)C)=N1", "physical_data": {"Molecular Weight": "314.40", "Molecular Formula": "C13H22N4O3S", "Boiling Point": "&gt;280 \u00b0C", "Melting Point": "53 \u00b0C"}}