{"cas_no": "1121586-29-5", "cn_name": "4-\u6c1f-3-\u7898\u82ef\u7532\u9178\u7532\u916f", "en_name": ["Benzoic acid, 4-fluoro-3-iodo-, methyl ester", "Benzoic acid, 4-fluoro-3-iodo-, methyl ester", "Methyl 4-fluoro-3-iodobenzoate"], "SMILES": "C(OC)(=O)C1=CC(I)=C(F)C=C1", "physical_data": {"Molecular Weight": "280.03", "Molecular Formula": "C8H6FIO2", "Melting Point": "42-43 \u00b0C"}}