{"cas_no": "1121-22-8", "cn_name": "\u53cd\u5f0f-1,2-\u73af\u5df1\u4e8c\u80fa", "en_name": ["trans-1,2-Diaminocyclohexane", "1,2-Cyclohexanediamine, (1R,2R)-rel-", "1,2-Cyclohexanediamine, trans-", "rel-(1R,2R)-1,2-Cyclohexanediamine", "trans-1,2-Cyclohexanediamine", "trans-1,2-Diaminocyclohexane", "(\u00b1)-trans-1,2-Diaminocyclohexane", "trans-dl-1,2-Diaminocyclohexane", "(\u00b1)-trans-1,2-Cyclohexanediamine", "(1R,2R)-rel-1,2-Cyclohexanediamine", "1,2-trans-Diaminocyclohexane", "trans-N,N\u2032-1,2-Cyclohexanediamine", "rel-(1R,2R)-Cyclohexane-1,2-diamine", "S,S-Cyclohexanediamine", "rac-1,2-Diaminocyclohexane"], "SMILES": "NC1C(N)CCCC1", "physical_data": {"Molecular Weight": "114.19", "Molecular Formula": "C6H14N2", "Boiling Point": "79-81 \u00b0C @ Press: 15 Torr", "Melting Point": "-10 \u00b0C"}}