{"cas_no": "1121-58-0", "cn_name": "4-\u7532\u6c28\u57fa\u5421\u5576", "en_name": ["4-(Methylamino)pyridine", "4-Pyridinamine, N-methyl-", "Pyridine, 4-(methylamino)-", "N-Methyl-4-pyridinamine", "4-(Methylamino)pyridine", "4-(N-Methylamino)pyridine", "N-Methyl-4-aminopyridine", "N-(Pyridin-4-yl)-N-methylamine", "N-Methylpyridin-4-amine", "(Methyl)(pyridin-4-yl)amine"], "SMILES": "N(C)C=1C=CN=CC1", "physical_data": {"Molecular Weight": "108.14", "Molecular Formula": "C6H8N2", "Boiling Point": "103 \u00b0C @ Press: 11 Torr", "Melting Point": "115-118 \u00b0C"}}