{"cas_no": "1122-42-5", "cn_name": "1,4-\u4e8c\u7532\u57fa-2-\u7898\u82ef", "en_name": ["2-Iodo-1,4-dimethylbenzene", "Benzene, 2-iodo-1,4-dimethyl-", "p-Xylene, 2-iodo-", "2-Iodo-1,4-dimethylbenzene", "2-Iodo-p-xylene", "1-Iodo-2,5-dimethylbenzene", "2,5-Dimethyliodobenzene", "1,4-Dimethyl-2-iodobenzene", "NSC 3779", "2,5-Dimethyl-1-iodobenzene"], "SMILES": "IC1=C(C)C=CC(C)=C1", "physical_data": {"Molecular Weight": "232.06", "Molecular Formula": "C8H9I", "Boiling Point": "84-85 \u00b0C @ Press: 14-15 Torr", "Density": "1.585 g/cm\u00b3 @ Temp: 32 \u00b0C"}}