{"cas_no": "1122-47-0", "cn_name": "1-\u7532\u57fa\u80de\u5627\u5576", "en_name": ["1-Methylcytosine", "2(1H)-Pyrimidinone, 4-amino-1-methyl-", "Cytosine, 1-methyl-", "4-Amino-1-methyl-2(1H)-pyrimidinone", "1-Methylcytosine", "N1-Methylcytosine", "NSC 47693"], "SMILES": "O=C1N(C)C=CC(N)=N1", "physical_data": {"Molecular Weight": "125.13", "Molecular Formula": "C5H7N3O", "Melting Point": "278-279 \u00b0C", "Density": "1.4483 g/cm\u00b3"}}