{"cas_no": "1122-69-6", "cn_name": "2-\u4e59\u57fa-6-\u7532\u57fa\u5421\u5576", "en_name": ["2-Ethyl-6-methylpyridine", "Pyridine, 2-ethyl-6-methyl-", "2-Picoline, 6-ethyl-", "2-Ethyl-6-methylpyridine", "6-Ethyl-2-methylpyridine", "2-Methyl-6-ethylpyridine", "6-Methyl-2-ethylpyridine"], "SMILES": "C(C)C=1N=C(C)C=CC1", "physical_data": {"Molecular Weight": "121.18", "Molecular Formula": "C8H11N", "Boiling Point": "160.5 \u00b0C", "Density": "0.9229 g/cm\u00b3 @ Temp: 15 \u00b0C"}}