{"cas_no": "1122-91-4", "cn_name": "\u5bf9\u6eb4\u82ef\u7532\u919b", "en_name": ["4-Bromobenzaldehyde", "Benzaldehyde, 4-bromo-", "Benzaldehyde, p-bromo-", "4-Bromobenzaldehyde", "p-Bromobenzaldehyde", "4-Formylbromobenzene", "1-Bromo-4-formylbenzene", "NSC 21638", "4-Formylphenyl bromide", "4-Formyl-1-bromobenzene", "p-Formylbromobenzene", "4-Bromobenzenealdehyde"], "SMILES": "C(=O)C1=CC=C(Br)C=C1", "physical_data": {"Molecular Weight": "185.02", "Molecular Formula": "C7H5BrO", "Boiling Point": "105-110 \u00b0C @ Press: 12 Torr", "Melting Point": "67 \u00b0C", "Density": "1.2926 g/cm\u00b3 @ Temp: 30 \u00b0C"}}