{"cas_no": "1122-85-6", "cn_name": "\u6c30\u9178\u82ef\u916f", "en_name": ["Phenyl cyanate", "Cyanic acid, phenyl ester", "Phenyl cyanate", "1-Cyanatobenzene"], "SMILES": "O(C#N)C1=CC=CC=C1", "physical_data": {"Molecular Weight": "119.12", "Molecular Formula": "C7H5NO", "Boiling Point": "74-75 \u00b0C @ Press: 10 Torr", "Melting Point": "51 \u00b0C"}}