{"cas_no": "1122-41-4", "cn_name": "2,4-\u4e8c\u6c2f\u82ef\u786b\u915a", "en_name": ["2,4-Dichlorobenzenethiol", "Benzenethiol, 2,4-dichloro-", "2,4-Dichlorobenzenethiol", "2,4-Dichlorothiophenol"], "SMILES": "ClC1=C(S)C=CC(Cl)=C1", "physical_data": {"Molecular Weight": "179.07", "Molecular Formula": "C6H4Cl2S", "Boiling Point": "115 \u00b0C @ Press: 8 Torr", "Melting Point": "20 \u00b0C"}}