{"cas_no": "1122-28-7", "cn_name": "4,5-\u4e8c\u6c30\u57fa\u54aa\u5511", "en_name": ["4,5-Dicyanoimidazole", "1H-Imidazole-4,5-dicarbonitrile", "Imidazole-4,5-dicarbonitrile", "4,5-Dicyanoimidazole", "MOA 7", "NSC 113954", "2H-Imidazole-4,5-dicarbonitrile"], "SMILES": "C(#N)C1=C(C#N)N=CN1", "physical_data": {"Molecular Weight": "118.10", "Molecular Formula": "C5H2N4", "Melting Point": "175 \u00b0C"}}