{"cas_no": "1122-10-7", "cn_name": "3,4-\u4e8c\u6eb4-1H-\u5421\u54af-2,5-\u4e8c\u916e", "en_name": ["3,4-Dibromo-1H-pyrrole-2,5-dione", "1H-Pyrrole-2,5-dione, 3,4-dibromo-", "Maleimide, 2,3-dibromo-", "3,4-Dibromo-1H-pyrrole-2,5-dione", "Dibromomaleimide", "2,3-Dibromomaleimide", "3,4-Dibromomaleimide", "3,4-Dibromo-2,5-dihydro-1H-pyrrole-2,5-dione", "3,4-Dibromopyrrole-2,5-dione"], "SMILES": "BrC1=C(Br)C(=O)NC1=O", "physical_data": {"Molecular Weight": "254.86", "Molecular Formula": "C4HBr2NO2", "Melting Point": "227 \u00b0C"}}