{"cas_no": "112225-87-3", "cn_name": "N-\u82ef\u7532\u9170\u57fa-N'-\u7279\u4e01\u57fa\u82ef\u7532\u9170\u80bc", "en_name": ["1,2-Dibenzoyl-1-(tert-butyl)hydrazine", "Benzoic acid, 2-benzoyl-1-(1,1-dimethylethyl)hydrazide", "RH 5849", "1,2-Dibenzoyl-1-(tert-butyl)hydrazine", "RH 5849-2F", "Benzoic acid N-benzoyl-N-tert-butylhydrazide", "Yishijing"], "SMILES": "N(C(=O)C1=CC=CC=C1)(NC(=O)C2=CC=CC=C2)C(C)(C)C", "physical_data": {"Molecular Weight": "296.36", "Molecular Formula": "C18H20N2O2", "Melting Point": "178.5 \u00b0C"}}