{"cas_no": "1122-71-0", "cn_name": "6-\u7532\u57fa-2-\u5421\u5576\u57fa\u7532\u9187", "en_name": ["6-Methyl-2-pyridinemethanol", "2-Pyridinemethanol, 6-methyl-", "6-Methyl-2-pyridinemethanol", "6-Methyl-2-pyridylmethanol", "2-(Hydroxymethyl)-6-methylpyridine", "6-Methyl-2-(hydroxymethyl)pyridine", "NSC 164957", "NSC 66528", "(6-Methyl-2-pyridinyl)methanol", "2-Methyl-6-pyridinemethanol"], "SMILES": "C(O)C=1N=C(C)C=CC1", "physical_data": {"Molecular Weight": "123.15", "Molecular Formula": "C7H9NO", "Boiling Point": "130-132 \u00b0C @ Press: 8 Torr", "Melting Point": "96 \u00b0C"}}