{"cas_no": "1122-54-9", "cn_name": "4-\u4e59\u9170\u5421\u5576", "en_name": ["4-Acetylpyridine", "Ethanone, 1-(4-pyridinyl)-", "Ketone, methyl 4-pyridyl", "1-(4-Pyridinyl)ethanone", "4-Acetylpyridine", "4-Pyridyl methyl ketone", "Methyl 4-pyridyl ketone", "\u03b3-Acetylpyridine", "NSC 111", "4-Pyridinyl methyl ketone", "1-(Pyridin-4-yl)ethan-1-one", "1-(Pyridin-4-yl)ethanone", "Methyl pyridin-4-yl ketone", "4-Pyridylethanone", "1-(4-Pyridyl)ethanone"], "SMILES": "C(C)(=O)C=1C=CN=CC1", "physical_data": {"Molecular Weight": "121.14", "Molecular Formula": "C7H7NO", "Boiling Point": "212 \u00b0C", "Melting Point": "16 \u00b0C"}}