{"cas_no": "1122-81-2", "cn_name": "4-\u4e19\u57fa\u5421\u5576", "en_name": ["4-Propylpyridine", "Pyridine, 4-propyl-", "4-Propylpyridine", "1-(4-Pyridyl)propane", "4-n-Propylpyridine", "NSC 967"], "SMILES": "C(CC)C=1C=CN=CC1", "physical_data": {"Molecular Weight": "121.18", "Molecular Formula": "C8H11N", "Boiling Point": "185 \u00b0C", "Melting Point": "131-131.6 \u00b0C", "Density": "0.9250 g/cm\u00b3 @ Temp: 20 \u00b0C"}}