{"cas_no": "1122-99-2", "cn_name": "\u73af\u620a\u57fa\u4e59\u9170\u6c2f", "en_name": ["Cyclopentylacetyl chloride", "Cyclopentaneacetyl chloride", "Cyclopentylacetyl chloride", "2-Cyclopentylacetyl chloride"], "SMILES": "C(C(Cl)=O)C1CCCC1", "physical_data": {"Molecular Weight": "146.61", "Molecular Formula": "C7H11ClO", "Boiling Point": "60 \u00b0C @ Press: 12 Torr"}}