{"cas_no": "1122-62-9", "cn_name": "2-\u4e59\u9170\u57fa\u5421\u5576", "en_name": ["2-Acetylpyridine", "Ethanone, 1-(2-pyridinyl)-", "Ketone, methyl 2-pyridyl", "1-(2-Pyridinyl)ethanone", "2-Acetylpyridine", "2-Pyridyl methyl ketone", "Methyl 2-pyridyl ketone", "Methyl 2-pyridinyl ketone", "\u03b1-Acetylpyridine", "NSC 15043", "Pyridin-2-yl methyl ketone", "1-(2-Pyridyl)-1-ethanone", "1-(Pyridin-2-yl)ethan-1-one", "1-(2-Pyridyl)ethanone", "1-(Pyridin-2-yl)ethanone"], "SMILES": "C(C)(=O)C1=CC=CC=N1", "physical_data": {"Molecular Weight": "121.14", "Molecular Formula": "C7H7NO", "Boiling Point": "192 \u00b0C", "Melting Point": "82-84 \u00b0C"}}