{"cas_no": "1122-97-0", "cn_name": "4-\u7532\u786b\u57fa\u82ef\u786b\u9187", "en_name": ["4-(Methylthio)benzenethiol", "Benzenethiol, 4-(methylthio)-", "Benzenethiol, p-(methylthio)-", "4-(Methylthio)benzenethiol", "4-(Methylthio)phenyl mercaptan", "p-(Methylthio)benzenethiol", "4-(Methylsulfanyl)thiophenol", "4-(Methylsulfanyl)benzenethiol", "4-Methylsulfanylbenzenthiol"], "SMILES": "S(C)C1=CC=C(S)C=C1", "physical_data": {"Molecular Weight": "156.27", "Molecular Formula": "C7H8S2", "Boiling Point": "93-95 \u00b0C @ Press: 1.5 Torr", "Melting Point": "40-43 \u00b0C"}}