{"cas_no": "112226-61-6", "cn_name": "\u6c2f\u866b\u9170\u80bc", "en_name": ["Halofenozide", "Benzoic acid, 4-chloro-, 2-benzoyl-2-(1,1-dimethylethyl)hydrazide", "RH 0345", "Halofenozide", "Benzoic acid N-tert-butyl-N-(4-chlorobenzoyl)hydrazide", "Spectrum Grub Stop Once &", "Done", "Mach 2", "Spectracide Grub Stop Once &", "Done", "RG 100864"], "SMILES": "N(C(=O)C1=CC=CC=C1)(NC(=O)C2=CC=C(Cl)C=C2)C(C)(C)C", "physical_data": {"Molecular Weight": "330.81", "Molecular Formula": "C18H19ClN2O2", "Melting Point": "&gt;200 \u00b0C"}}