{"cas_no": "1122-12-9", "cn_name": "2,3-\u4e8c\u6c2f\u987a\u9150", "en_name": ["3,4-Dibromo-2,5-furandione", "2,5-Furandione, 3,4-dibromo-", "Maleic anhydride, dibromo-", "3,4-Dibromo-2,5-furandione", "Dibromomaleic anhydride", "2,3-Dibromomaleic anhydride", "NSC 94974", "3,4-Dibromomaleic anhydride"], "SMILES": "BrC1=C(Br)C(=O)OC1=O", "physical_data": {"Molecular Weight": "255.85", "Molecular Formula": "C4Br2O3", "Boiling Point": "117-127 \u00b0C @ Press: 19 Torr", "Melting Point": "118-119 \u00b0C"}}