{"cas_no": "1122-87-8", "cn_name": "4-\u4e59\u6c27\u57fa\u54cc\u5576\u76d0\u9178\u76d0", "en_name": ["Piperidine, 4-ethoxy-, hydrochloride (1:1)", "Piperidine, 4-ethoxy-, hydrochloride (1:1)", "Piperidine, 4-ethoxy-, hydrochloride", "4-Ethoxypiperidine hydrochloride"], "SMILES": "O(CC)C1CCNCC1.Cl", "physical_data": {"Molecular Weight": "", "Molecular Formula": "C7H15NO.ClH", "Melting Point": "145-147 \u00b0C"}}