{"cas_no": "1122-83-4", "cn_name": "N-\u4e9a\u78fa\u9170\u82ef\u80fa", "en_name": ["N-Sulfinylbenzenamine", "Benzenamine, N-sulfinyl-", "Aniline, N-sulfinyl-", "N-Sulfinylbenzenamine", "Thionyl imide, phenyl-", "NSC 40228", "Sulfurous imide, phenyl-", "Thionylaniline", "N-Sulfinylaniline", "Phenylsulfinylamine", "Phenylthionylamine", "Sulfinylphenylamine", "N-Thionylaniline", "(Sulfinylamino)benzene"], "SMILES": "N(=S=O)C1=CC=CC=C1", "physical_data": {"Molecular Weight": "139.18", "Molecular Formula": "C6H5NOS", "Boiling Point": "200 \u00b0C"}}