{"cas_no": "1122-96-9", "cn_name": "4-\u7532\u6c27\u57fa\u5421\u5576-N-\u6c27\u5316\u7269", "en_name": ["4-Methoxypyridine N-oxide", "Pyridine, 4-methoxy-, 1-oxide", "4-Methoxypyridine 1-oxide", "4-Methoxypyridine N-oxide", "4-Methoxypyridine oxide", "p-Methoxypyridine N-oxide", "NSC 27964"], "SMILES": "O(C)C=1C=CN(=O)=CC1", "physical_data": {"Molecular Weight": "125.13", "Molecular Formula": "C6H7NO2", "Melting Point": "81.5-82.5 \u00b0C"}}