{"cas_no": "1122-72-1", "cn_name": "6-\u7532\u57fa-2-\u5421\u5576\u7532\u919b", "en_name": ["6-Methyl-2-pyridinecarboxaldehyde", "2-Pyridinecarboxaldehyde, 6-methyl-", "Picolinaldehyde, 6-methyl-", "6-Methyl-2-pyridinecarboxaldehyde", "6-Methyl-2-picolinaldehyde", "6-Methylpicolinaldehyde", "2-Methyl-6-pyridinecarboxaldehyde", "6-Methylpyridine-2-aldehyde", "2-Formyl-6-methylpyridine", "6-Methyl-2-pyridinecarbaldehyde", "NSC 8954", "6-Methylpyridine-2-carboxaldehyde", "6-Methyl-2-formylpyridine"], "SMILES": "C(=O)C=1N=C(C)C=CC1", "physical_data": {"Molecular Weight": "121.14", "Molecular Formula": "C7H7NO", "Boiling Point": "77-78 \u00b0C @ Press: 12 Torr", "Melting Point": "30 \u00b0C"}}