{"cas_no": "112245-13-3", "cn_name": "(S)-\u53d4\u4eae\u6c28\u9187", "en_name": ["(2S)-2-Amino-3,3-dimethyl-1-butanol", "1-Butanol, 2-amino-3,3-dimethyl-, (2S)-", "1-Butanol, 2-amino-3,3-dimethyl-, (S)-", "(2S)-2-Amino-3,3-dimethyl-1-butanol", "(S)-tert-Leucinol", "L-tert-Leucinol", "(S)-2-Amino-3,3-dimethyl-1-butanol", "(S)-(+)-tert-Leucinol", "(S)-(+)-2-Amino-3,3-dimethylbutanol", "(S)-2-Amino-3,3-dimethylbutanol", "(2S)-2-Amino-3,3-dimethylbutan-1-ol"], "SMILES": "C(C(C)(C)C)(CO)N", "physical_data": {"Molecular Weight": "117.19", "Molecular Formula": "C6H15NO", "Boiling Point": "87-89 \u00b0C @ Press: 5 Torr", "Melting Point": "31-33 \u00b0C"}}