{"cas_no": "1122-70-9", "cn_name": "2-\u7532\u57fa-6-\u4e59\u70ef\u57fa\u5421\u5576", "en_name": ["2-Ethenyl-6-methylpyridine", "Pyridine, 2-ethenyl-6-methyl-", "2-Picoline, 6-vinyl-", "2-Ethenyl-6-methylpyridine", "2-Methyl-6-vinylpyridine"], "SMILES": "C(=C)C=1N=C(C)C=CC1", "physical_data": {"Molecular Weight": "119.16", "Molecular Formula": "C8H9N", "Boiling Point": "73 \u00b0C @ Press: 21 Torr"}}