{"cas_no": "1122-60-7", "cn_name": "\u785d\u57fa\u73af\u5df1\u70f7", "en_name": ["Nitrocyclohexane", "Cyclohexane, nitro-", "Nitrocyclohexane", "NSC 66277"], "SMILES": "N(=O)(=O)C1CCCCC1", "physical_data": {"Molecular Weight": "129.16", "Molecular Formula": "C6H11NO2", "Boiling Point": "205.5 \u00b0C @ Press: 768 Torr", "Melting Point": "-34 \u00b0C", "Density": "1.0610 g/cm\u00b3 @ Temp: 20 \u00b0C"}}