{"cas_no": "1122-82-3", "cn_name": "\u73af\u5df1\u57fa\u5f02\u786b\u6c30\u9178\u8102", "en_name": ["Cyclohexyl isothiocyanate", "Cyclohexane, isothiocyanato-", "Isothiocyanic acid, cyclohexyl ester", "Isothiocyanatocyclohexane", "Cyclohexyl isothiocyanate", "NSC 60129"], "SMILES": "N(=C=S)C1CCCCC1", "physical_data": {"Molecular Weight": "141.23", "Molecular Formula": "C7H11NS", "Boiling Point": "220 \u00b0C", "Melting Point": "85 \u00b0C", "Density": "1.0339 g/cm\u00b3 @ Temp: 20 \u00b0C"}}