{"cas_no": "1122-58-3", "cn_name": "4-\u4e8c\u7532\u6c28\u57fa\u5421\u5576", "en_name": ["4-(Dimethylamino)pyridine", "4-Pyridinamine, N,N-dimethyl-", "Pyridine, 4-(dimethylamino)-", "N,N-Dimethyl-4-pyridinamine", "4-(Dimethylamino)pyridine", "N,N-Dimethyl-4-aminopyridine", "\u03b3-(Dimethylamino)pyridine", "p-Dimethylaminopyridine", "DMAP", "4-DMAP", "DMAP (catalyst)", "4-(N,N-Dimethylamino)pyridine", "N,N-Dimethyl-4-pyridylamine", "4DMAPy"], "SMILES": "N(C)(C)C=1C=CN=CC1", "physical_data": {"Molecular Weight": "122.17", "Molecular Formula": "C7H10N2", "Boiling Point": "162 \u00b0C", "Melting Point": "112 \u00b0C"}}