{"cas_no": "1122-17-4", "cn_name": "2,3-\u4e8c\u6c2f\u9a6c\u6765\u9178\u9150", "en_name": ["Dichloromaleic anhydride", "2,5-Furandione, 3,4-dichloro-", "Maleic anhydride, dichloro-", "3,4-Dichloro-2,5-furandione", "Dichloromaleic anhydride", "Dichloromaleic acid anhydride", "3,4-Dichloromaleic anhydride", "NSC 60524"], "SMILES": "ClC1=C(Cl)C(=O)OC1=O", "physical_data": {"Molecular Weight": "166.95", "Molecular Formula": "C4Cl2O3", "Boiling Point": "130 \u00b0C @ Press: 100 Torr", "Melting Point": "117-118 \u00b0C"}}