{"cas_no": "112281-77-3", "cn_name": "\u6c1f\u919a\u5511", "en_name": ["Tetraconazole", "1H-1,2,4-Triazole, 1-[2-(2,4-dichlorophenyl)-3-(1,1,2,2-tetrafluoroethoxy)propyl]-", "1H-1,2,4-Triazole, 1-[2-(2,4-dichlorophenyl)-3-(1,1,2,2-tetrafluoroethoxy)propyl]-, (\u00b1)-", "1-[2-(2,4-Dichlorophenyl)-3-(1,1,2,2-tetrafluoroethoxy)propyl]-1H-1,2,4-triazole", "Tetraconazole", "M 14360", "Eminent", "AG 4454", "Domark", "Greman", "Salvatore ME", "Emerald", "Perissim"], "SMILES": "C(CN1C=NC=N1)(COC(C(F)F)(F)F)C2=C(Cl)C=C(Cl)C=C2", "physical_data": {"Molecular Weight": "372.15", "Molecular Formula": "C13H11Cl2F4N3O", "Melting Point": "6 \u00b0C"}}