{"cas_no": "1122-43-6", "cn_name": "2,6-\u4e8c\u7532\u57fa-3-\u7f9f\u57fa\u5421\u55762,6-\u4e8c\u7532\u57fa-3-\u7f9f\u57fa\u5421\u5576", "en_name": ["2,6-Dimethyl-3-pyridinol", "3-Pyridinol, 2,6-dimethyl-", "2,6-Dimethyl-3-pyridinol", "3-Hydroxy-2,6-dimethylpyridine", "2,6-Dimethyl-3-hydroxypyridine", "3-Hydroxy-2,6-lutidine", "NSC 164026"], "SMILES": "CC1=C(O)C=CC(C)=N1", "physical_data": {"Molecular Weight": "123.15", "Molecular Formula": "C7H9NO", "Melting Point": "202.5-204 \u00b0C"}}