{"cas_no": "1122-86-7", "cn_name": "4-\u4e59\u6c27\u57fa\u54cc\u5576", "en_name": ["4-Ethoxypiperidine", "Piperidine, 4-ethoxy-", "4-Ethoxypiperidine"], "SMILES": "O(CC)C1CCNCC1", "physical_data": {"Molecular Weight": "129.20", "Molecular Formula": "C7H15NO", "Boiling Point": "174-176 \u00b0C"}}