{"cas_no": "1122-56-1", "cn_name": "\u73af\u5df1\u7532\u9170\u80fa", "en_name": ["Cyclohexanecarboxamide", "Cyclohexanecarboxamide", "Cyclohexylcarboxamide", "Hexahydrobenzamide", "NSC 16584"], "SMILES": "C(N)(=O)C1CCCCC1", "physical_data": {"Molecular Weight": "127.18", "Molecular Formula": "C7H13NO", "Melting Point": "184-185 \u00b0C"}}