{"cas_no": "1122-45-8", "cn_name": "2,4-\u4e8c\u7532\u57fa-\u5421\u5576\u6c2e\u6c27\u5316\u7269", "en_name": ["Pyridine, 2,4-dimethyl-, 1-oxide", "Pyridine, 2,4-dimethyl-, 1-oxide", "2,4-Lutidine, 1-oxide", "2,4-Dimethylpyridine N-oxide", "2,4-Lutidine N-oxide", "2,4-Dimethylpyridine 1-oxide", "2,4-Dimethyl-1-oxidopyridin-1-ium", "2,4-Dimethylpyridin-1-ium-1-olate"], "SMILES": "CC=1N(=O)=CC=C(C)C1", "physical_data": {"Molecular Weight": "123.15", "Molecular Formula": "C7H9NO", "Boiling Point": "122-123 \u00b0C @ Press: 0.01 Torr", "Melting Point": "280-282 \u00b0C"}}