{"cas_no": "1123-09-7", "cn_name": "3,5-\u4e8c\u7532\u57fa-2-\u73af\u5df1\u70ef-1-\u916e", "en_name": ["3,5-Dimethyl-2-cyclohexen-1-one", "2-Cyclohexen-1-one, 3,5-dimethyl-", "3,5-Dimethyl-2-cyclohexen-1-one", "NSC 10113", "NSC 845"], "SMILES": "CC1CC(C)=CC(=O)C1", "physical_data": {"Molecular Weight": "124.18", "Molecular Formula": "C8H12O", "Boiling Point": "208.5 \u00b0C", "Melting Point": "166 \u00b0C"}}