{"cas_no": "1123-25-7", "cn_name": "1-\u7532\u57fa-1-\u73af\u5df2\u7fa7\u9178", "en_name": ["1-Methylcyclohexanecarboxylic acid", "Cyclohexanecarboxylic acid, 1-methyl-", "1-Methylcyclohexanecarboxylic acid", "1-Methyl-1-cyclohexanecarboxylic acid", "1-Methylcyclohexylcarboxylic acid", "1-Methylcyclohexan-1-carboxylic acid"], "SMILES": "C(O)(=O)C1(C)CCCCC1", "physical_data": {"Molecular Weight": "142.20", "Molecular Formula": "C8H14O2", "Boiling Point": "127-128 \u00b0C @ Press: 13 Torr", "Melting Point": "39 \u00b0C", "Density": "1.0220 g/cm\u00b3 @ Temp: 20 \u00b0C"}}