{"cas_no": "1123-00-8", "cn_name": "\u73af\u620a\u4e59\u9178", "en_name": ["Cyclopentaneacetic acid", "Cyclopentaneacetic acid", "Cyclopentylacetic acid", "2-Cyclopentylacetic acid", "NSC 60134", "2-Cyclopentaneacetic acid"], "SMILES": "C(C(O)=O)C1CCCC1", "physical_data": {"Molecular Weight": "128.17", "Molecular Formula": "C7H12O2", "Boiling Point": "228 \u00b0C", "Melting Point": "13.5 \u00b0C", "Density": "1.0216 g/cm\u00b3 @ Temp: 18 \u00b0C"}}