{"cas_no": "1123-86-0", "cn_name": "\u73af\u5df1\u57fa\u7532\u4e59\u916e", "en_name": ["Cyclohexyl ethyl ketone", "1-Propanone, 1-cyclohexyl-", "1-Cyclohexyl-1-propanone", "Ethyl cyclohexyl ketone", "Cyclohexyl ethyl ketone", "NSC 39457"], "SMILES": "C(CC)(=O)C1CCCCC1", "physical_data": {"Molecular Weight": "140.22", "Molecular Formula": "C9H16O", "Boiling Point": "196 \u00b0C", "Density": "0.911 g/cm\u00b3 @ Temp: 20 \u00b0C"}}