{"cas_no": "1123-54-2", "cn_name": "8-\u6c2e\u6742\u817a\u560c\u5464", "en_name": ["3H-1,2,3-Triazolo[4,5-d]pyrimidin-7-amine", "3H-1,2,3-Triazolo[4,5-d]pyrimidin-7-amine", "1H-1,2,3-Triazolo[4,5-d]pyrimidin-7-amine", "1H-v-Triazolo[4,5-d]pyrimidine, 7-amino-", "7-Amino-1-v-triazolo[d]pyrimidine", "8-Azaadenine", "7-Amino-v-triazolo[d]pyrimidine", "6-Amino-8-azapurine", "8-Aza-6-aminopurine", "NSC 32797"], "SMILES": "NC1=C2C(=NC=N1)N=NN2", "physical_data": {"Molecular Weight": "136.11", "Molecular Formula": "C4H4N6", "Melting Point": "&gt;300 \u00b0C"}}