{"cas_no": "1123-34-8", "cn_name": "1-\u70ef\u4e19\u57fa\u73af\u5df1\u9187", "en_name": ["1-(2-Propen-1-yl)cyclohexanol", "Cyclohexanol, 1-(2-propen-1-yl)-", "Cyclohexanol, 1-allyl-", "Cyclohexanol, 1-(2-propenyl)-", "1-(2-Propen-1-yl)cyclohexanol", "1-(1-Hydroxycyclohexyl)-2-propene", "1-Allylcyclohexanol", "1-Allyl-1-cyclohexanol", "1-(Prop-2-en-1-yl)cyclohexan-1-ol"], "SMILES": "C(C=C)C1(O)CCCCC1", "physical_data": {"Molecular Weight": "140.22", "Molecular Formula": "C9H16O", "Boiling Point": "62-64 \u00b0C @ Press: 3 Torr"}}