{"cas_no": "1123-19-9", "cn_name": "ALPHA-\u4e59\u9170-ALPHA-\u7532\u57fa-GAMMA-\u4e01\u5185\u916f", "en_name": ["3-Acetyldihydro-3-methyl-2(3H)-furanone", "2(3H)-Furanone, 3-acetyldihydro-3-methyl-", "Acetoacetic acid, 2-(2-hydroxyethyl)-2-methyl-, \u03b3-lactone", "3-Acetyldihydro-3-methyl-2(3H)-furanone", "\u03b1-Acetyl-\u03b1-methyl-\u03b3-butyrolactone", "(\u00b1)-\u03b1-Acetyl-\u03b1-methyl-\u03b3-butyrolactone", "NSC 102767", "3-Acetyl-3-methyltetrahydrofuran-2-one", "3-Acetyl-3-methyl-dihydro-furan-2-one", "3-Acetyl-3-methyldihydrofuran-2(3H)-one", "3-Acetyl-3-methyloxolan-2-one"], "SMILES": "C(C)(=O)C1(C)C(=O)OCC1", "physical_data": {"Molecular Weight": "142.15", "Molecular Formula": "C7H10O3", "Boiling Point": "99-99.5 \u00b0C @ Press: 6 Torr", "Density": "1.1464 g/cm\u00b3 @ Temp: 20 \u00b0C"}}