{"cas_no": "1123172-88-2", "cn_name": "3,5-\u4e8c\u6c1f-4-\u785d\u57fa\u82ef\u8148", "en_name": ["3,5-Difluoro-4-nitrobenzonitrile", "Benzonitrile, 3,5-difluoro-4-nitro-", "3,5-Difluoro-4-nitrobenzonitrile"], "SMILES": "N(=O)(=O)C1=C(F)C=C(C#N)C=C1F", "physical_data": {"Molecular Weight": "184.10", "Molecular Formula": "C7H2F2N2O2", "Melting Point": "88-89 \u00b0C"}}