{"cas_no": "1123-63-3", "cn_name": "4-\u6c2f-2,6-\u4e8c\u7532\u57fa\u82ef\u915a", "en_name": ["4-Chloro-2,6-dimethylphenol", "Phenol, 4-chloro-2,6-dimethyl-", "2,6-Xylenol, 4-chloro-", "4-Chloro-2,6-dimethylphenol", "4-Chloro-2,6-xylenol", "2,6-Dimethyl-4-chlorophenol", "NSC 5785"], "SMILES": "OC1=C(C)C=C(Cl)C=C1C", "physical_data": {"Molecular Weight": "156.61", "Molecular Formula": "C8H9ClO", "Boiling Point": "100-103 \u00b0C @ Press: 3 Torr", "Melting Point": "83 \u00b0C"}}