{"cas_no": "1123-93-9", "cn_name": "1,3-\u82ef\u5e76\u567b\u5511-5-\u80fa", "en_name": ["5-Benzothiazolamine", "5-Benzothiazolamine", "Benzothiazole, 5-amino-", "5-Aminobenzothiazole", "NSC 170655", "1,3-Benzothiazol-5-amine", "Benzo[d]thiazol-5-amine"], "SMILES": "NC=1C=C2C(=CC1)SC=N2", "physical_data": {"Molecular Weight": "150.20", "Molecular Formula": "C7H6N2S", "Melting Point": "74-75 \u00b0C"}}