{"cas_no": "1123-40-6", "cn_name": "3,3-\u4e8c\u7532\u57fa\u8c37\u9170\u80fa", "en_name": ["4,4-Dimethyl-2,6-piperidinedione", "2,6-Piperidinedione, 4,4-dimethyl-", "Glutarimide, 3,3-dimethyl-", "4,4-Dimethyl-2,6-piperidinedione", "\u03b2,\u03b2-Dimethylglutarimide", "4,4-Dimethylglutarimide", "3,3-Dimethylglutarimide", "NSC 58194", "NSC 99206"], "SMILES": "CC1(C)CC(=O)NC(=O)C1", "physical_data": {"Molecular Weight": "141.17", "Molecular Formula": "C7H11NO2", "Melting Point": "145-146 \u00b0C"}}