{"cas_no": "1123-98-4", "cn_name": "2-\u6c1f\u82ef\u5e76\u567b\u5511", "en_name": ["2-Fluorobenzothiazole", "Benzothiazole, 2-fluoro-", "2-Fluorobenzothiazole", "2-Fluoro-1,3-benzothiazole", "2-Fluorobenzo[d]thiazole"], "SMILES": "FC1=NC=2C(S1)=CC=CC2", "physical_data": {"Molecular Weight": "153.18", "Molecular Formula": "C7H4FNS", "Boiling Point": "97-98 \u00b0C @ Press: 16 Torr"}}