{"cas_no": "1123-27-9", "cn_name": "1-\u4e59\u9170\u57fa\u73af\u5df1\u9187", "en_name": ["1-(1-Hydroxycyclohexyl)ethanone", "Ethanone, 1-(1-hydroxycyclohexyl)-", "Ketone, 1-hydroxycyclohexyl methyl", "1-(1-Hydroxycyclohexyl)ethanone", "1-Acetylcyclohexanol", "1-Hydroxycyclohexyl methyl ketone", "1-Acetyl-1-hydroxycyclohexane", "NSC 31427", "NSC 37640", "1-(1-Hydroxycyclohexyl)ethan-1-one"], "SMILES": "C(C)(=O)C1(O)CCCCC1", "physical_data": {"Molecular Weight": "142.20", "Molecular Formula": "C8H14O2", "Boiling Point": "125.5 \u00b0C", "Density": "1.018 g/cm\u00b3"}}