{"cas_no": "1123-56-4", "cn_name": "2,6-\u4e8c\u7532\u57fa\u82ef\u7532\u919b", "en_name": ["2,6-Dimethylbenzaldehyde", "Benzaldehyde, 2,6-dimethyl-", "2,6-Dimethylbenzaldehyde"], "SMILES": "C(=O)C1=C(C)C=CC=C1C", "physical_data": {"Molecular Weight": "134.18", "Molecular Formula": "C9H10O", "Boiling Point": "226-228 \u00b0C", "Melting Point": "11 \u00b0C"}}