{"cas_no": "1123-95-1", "cn_name": "2-\u7f9f\u57fa-4-\u6c28\u57fa-5-\u7f9f\u7532\u57fa\u5627\u5576", "en_name": ["5-(Hydroxymethyl)cytosine", "2(1H)-Pyrimidinone, 6-amino-5-(hydroxymethyl)-", "Cytosine, 5-(hydroxymethyl)-", "2(1H)-Pyrimidinone, 4-amino-5-(hydroxymethyl)-", "6-Amino-5-(hydroxymethyl)-2(1H)-pyrimidinone", "5-(Hydroxymethyl)cytosine", "5-(Oxymethyl)cytosine", "4-Amino-2-hydroxy-5-pyrimidinemethanol", "Demethylbacimethrin", "4-Amino-5-(hydroxymethyl)-2(1H)-pyrimidinone", "NSC 27368"], "SMILES": "C(O)C1=C(N)NC(=O)N=C1", "physical_data": {"Molecular Weight": "141.13", "Molecular Formula": "C5H7N3O2", "Melting Point": "&gt;300 \u00b0C (decomp)"}}