{"cas_no": "1124-14-7", "cn_name": "4-\u6eb4\u73af\u4e19\u57fa\u82ef", "en_name": ["1-Bromo-4-cyclopropylbenzene", "Benzene, 1-bromo-4-cyclopropyl-", "1-Bromo-4-cyclopropylbenzene", "(p-Bromophenyl)cyclopropane", "4-Cyclopropylbromobenzene", "4-Cyclopropylphenyl bromide", "(4-Bromophenyl)cyclopropane", "4-Bromocyclopropylbenzene"], "SMILES": "BrC1=CC=C(C2CC2)C=C1", "physical_data": {"Molecular Weight": "197.07", "Molecular Formula": "C9H9Br", "Boiling Point": "101-102 \u00b0C @ Press: 11 Torr", "Melting Point": "15 \u00b0C", "Density": "1.3902 g/cm\u00b3 @ Temp: 20 \u00b0C"}}