{"cas_no": "1124-16-9", "cn_name": "2-\u5f02\u4e19\u57fa-5-\u7532\u57fa2H-\u5421\u5511-3-\u57fa\u80fa", "en_name": ["3-Methyl-1-(1-methylethyl)-1H-pyrazol-5-amine", "1H-Pyrazol-5-amine, 3-methyl-1-(1-methylethyl)-", "Pyrazole, 5-amino-1-isopropyl-3-methyl-", "3-Methyl-1-(1-methylethyl)-1H-pyrazol-5-amine", "1-Isopropyl-3-methyl-5-aminopyrazole", "5-Amino-1-isopropyl-3-methylpyrazole", "1-Isopropyl-3-methyl-5-pyrazolamine", "5-Methyl-2-isopropyl-2H-pyrazol-3-ylamine", "1-Isopropyl-3-methyl-1H-pyrazol-5-amine", "3-Methyl-1-(propan-2-yl)-1H-pyrazol-5-amine"], "SMILES": "C(C)(C)N1N=C(C)C=C1N", "physical_data": {"Molecular Weight": "139.20", "Molecular Formula": "C7H13N3", "Melting Point": "110-112 \u00b0C"}}