{"cas_no": "112448-39-2", "cn_name": "3'-\u53bb\u7532\u5ddd\u9648\u76ae\u7d20", "en_name": ["3\u2032-Hydroxy-4\u2032,5,6,7,8-pentamethoxyflavone", "4H-1-Benzopyran-4-one, 2-(3-hydroxy-4-methoxyphenyl)-5,6,7,8-tetramethoxy-", "2-(3-Hydroxy-4-methoxyphenyl)-5,6,7,8-tetramethoxy-4H-1-benzopyran-4-one", "3\u2032-Hydroxy-4\u2032,5,6,7,8-pentamethoxyflavone", "3\u2032-Demethylnobiletin", "2-(3-Hydroxy-4-methoxyphenyl)-5,6,7,8-tetramethoxychromen-4-one"], "SMILES": "O(C)C1=C2C(=C(OC)C(OC)=C1OC)OC(=CC2=O)C3=CC(O)=C(OC)C=C3", "physical_data": {"Molecular Weight": "388.37", "Molecular Formula": "C20H20O8", "Melting Point": "170-171 \u00b0C"}}