{"cas_no": "1124-19-2", "cn_name": "\u4e09\u6c2f\u82ef\u57fa\u9521", "en_name": ["Phenyltin trichloride", "Stannane, trichlorophenyl-", "Phenyltin trichloride", "Trichlorophenylstannane", "Trichlorophenyltin", "Phenyltrichlorotin", "Phenyltrichlorostannane", "Monophenyltin trichloride", "Monophenyltin chloride", "NSC 92617"], "SMILES": "[Sn](Cl)(Cl)(Cl)C1=CC=CC=C1", "physical_data": {"Molecular Weight": "302.17", "Molecular Formula": "C6H5Cl3Sn", "Boiling Point": "141-143 \u00b0C @ Press: 25 Torr", "Melting Point": "-31 \u00b0C", "Density": "1.839 g/cm\u00b3"}}