{"cas_no": "1124-33-0", "cn_name": "4-\u785d\u57fa\u5421\u5576-N-\u6c27\u5316\u7269", "en_name": ["4-Nitropyridine N-oxide", "Pyridine, 4-nitro-, 1-oxide", "4-Nitropyridine 1-oxide", "4-Nitropyridine N-oxide", "4-Nitropyridine oxide", "p-Nitropyridine N-oxide", "NSC 130895", "NSC 5079", "4-Nitro-1-oxidopyridine"], "SMILES": "N(=O)(=O)C=1C=CN(=O)=CC1", "physical_data": {"Molecular Weight": "140.10", "Molecular Formula": "C5H4N2O3", "Melting Point": "160.5 \u00b0C"}}