{"cas_no": "1124-64-7", "cn_name": "1-\u4e01\u57fa\u6c2f\u5316\u5421\u5576", "en_name": ["Butylpyridinium chloride", "Pyridinium, 1-butyl-, chloride (1:1)", "Pyridinium, 1-butyl-, chloride", "1-Butylpyridinium chloride", "Butylpyridinium chloride", "N-Butylpyridinium chloride", "N-1-Butylpyridinium chloride", "N-(n-Butyl)pyridinium chloride", "BPCl"], "SMILES": "C(CCC)[N+]=1C=CC=CC1.[Cl-]", "physical_data": {"Molecular Weight": "", "Molecular Formula": "C9H14N.Cl", "Melting Point": "86.4 \u00b0C"}}