{"cas_no": "1124-39-6", "cn_name": "4-\u4e59\u57fa\u82ef\u78f7\u4e8c\u915a", "en_name": ["4-Ethyl-1,2-benzenediol", "1,2-Benzenediol, 4-ethyl-", "Pyrocatechol, 4-ethyl-", "4-Ethyl-1,2-benzenediol", "4-Ethylcatechol", "4-Ethylpyrocatechol", "1-Ethyl-3,4-dihydroxybenzene", "Ethylcatechol", "Ethylpyrocatechol", "1-Ethyl-3,4-benzenediol", "4-Ethyl-1,2-dihydroxybenzene", "4-Ethyl-2-hydroxyphenol"], "SMILES": "C(C)C1=CC(O)=C(O)C=C1", "physical_data": {"Molecular Weight": "138.16", "Molecular Formula": "C8H10O2", "Boiling Point": "130-132 \u00b0C @ Press: 9 Torr", "Melting Point": "41-42 \u00b0C"}}