{"cas_no": "1124-04-5", "cn_name": "2-\u6c2f-4,5-\u4e8c\u7532\u915a", "en_name": ["2-Chloro-4,5-dimethylphenol", "Phenol, 2-chloro-4,5-dimethyl-", "3,4-Xylenol, 6-chloro-", "2-Chloro-4,5-dimethylphenol", "2-Chloro-4,5-xylenol", "3,4-Dimethyl-6-chlorophenol", "6-Chloro-3,4-xylenol", "NSC 60149"], "SMILES": "CC1=C(C)C=C(O)C(Cl)=C1", "physical_data": {"Molecular Weight": "156.61", "Molecular Formula": "C8H9ClO", "Melting Point": "71.5-72.5 \u00b0C"}}