{"cas_no": "1124-13-6", "cn_name": "\u53cd\u5f0f-1,2-\u73af\u4e01\u4e8c\u9178", "en_name": ["(\u00b1)-trans-1,2-Cyclobutanedicarboxylic acid", "1,2-Cyclobutanedicarboxylic acid, (1R,2R)-rel-", "1,2-Cyclobutanedicarboxylic acid, trans-", "rel-(1R,2R)-1,2-Cyclobutanedicarboxylic acid", "trans-1,2-Cyclobutanedicarboxylic acid", "(\u00b1)-trans-1,2-Cyclobutanedicarboxylic acid", "NSC 527264"], "SMILES": "C(O)(=O)C1C(C(O)=O)CC1", "physical_data": {"Molecular Weight": "144.13", "Molecular Formula": "C6H8O4", "Boiling Point": "140 \u00b0C @ Press: 2 Torr", "Melting Point": "130-131 \u00b0C"}}