{"cas_no": "1124-65-8", "cn_name": "3-(2-\u567b\u5429)\u4e19\u70ef\u9178", "en_name": ["3-(2-Thienyl)-2-propenoic acid", "2-Propenoic acid, 3-(2-thienyl)-", "2-Thiopheneacrylic acid", "3-(2-Thienyl)-2-propenoic acid", "2-Thienylacrylic acid", "3-(2-Thienyl)acrylic acid", "3-(Thiophene-2-yl)acrylic acid", "3-Thiophen-2-ylacrylic acid", "3-(2-Thienyl)propenoic acid", "NSC 4247", "3-(Thien-2-yl)acrylic acid"], "SMILES": "C(=CC(O)=O)C1=CC=CS1", "physical_data": {"Molecular Weight": "154.19", "Molecular Formula": "C7H6O2S", "Melting Point": "143-144 \u00b0C"}}