{"cas_no": "1124-20-5", "cn_name": "1-\u5f02\u4e19\u70ef\u57fa-3-\u7532\u57fa\u82ef", "en_name": ["m-Cymenene", "Benzene, 1-methyl-3-(1-methylethenyl)-", "Styrene, m,\u03b1-dimethyl-", "1-Methyl-3-(1-methylethenyl)benzene", "m-Isopropenyltoluene", "m,\u03b1-Dimethylstyrene", "\u03b1,m-Dimethylstyrene", "\u03b1,3-Dimethylstyrene", "m-Methylisopropenylbenzene", "1-Isopropenyl-3-methylbenzene", "2-m-Tolylpropene", "m-Cymenene", "\u03b1-Methyl-m-methylstyrene", "1-Methyl-3-(prop-1-en-2-yl)benzene", "2-(3-Methylphenyl)propene"], "SMILES": "C(C)(=C)C1=CC(C)=CC=C1", "physical_data": {"Molecular Weight": "132.20", "Molecular Formula": "C10H12", "Boiling Point": "185 \u00b0C", "Density": "0.9076 g/cm\u00b3 @ Temp: 14 \u00b0C"}}