{"cas_no": "112410-23-8", "cn_name": "\u866b\u9170\u80bc", "en_name": ["Tebufenozide", "Benzoic acid, 3,5-dimethyl-, 1-(1,1-dimethylethyl)-2-(4-ethylbenzoyl)hydrazide", "RH 5992", "Mimic", "Tebufenozide", "Confirm", "Mimic 240LV", "3,5-Dimethylbenzoic acid N-tert-butyl-N-(4-ethylbenzoyl)hydrazide", "1-tert-Butyl-1-(3,5-dimethylbenzoyl)-2-(4-ethylbenzoyl)hydrazine", "Mimic 700WP", "Romdan"], "SMILES": "N(C(=O)C1=CC(C)=CC(C)=C1)(NC(=O)C2=CC=C(CC)C=C2)C(C)(C)C", "physical_data": {"Molecular Weight": "352.47", "Molecular Formula": "C22H28N2O2", "Melting Point": "191 \u00b0C"}}