{"cas_no": "1124-05-6", "cn_name": "2,5-\u4e8c\u6c2f\u5bf9\u4e8c\u7532\u82ef", "en_name": ["2,5-Dichloro-p-xylene", "Benzene, 1,4-dichloro-2,5-dimethyl-", "p-Xylene, 2,5-dichloro-", "1,4-Dichloro-2,5-dimethylbenzene", "2,5-Dichloro-p-xylene", "2,5-Dichloro-1,4-dimethylbenzene", "NSC 61999"], "SMILES": "CC1=C(Cl)C=C(C)C(Cl)=C1", "physical_data": {"Molecular Weight": "175.06", "Molecular Formula": "C8H8Cl2", "Boiling Point": "222 \u00b0C", "Melting Point": "71 \u00b0C"}}