{"cas_no": "1124-11-4", "cn_name": "\u5ddd\u828e\u55ea", "en_name": ["Tetramethylpyrazine", "Pyrazine, 2,3,5,6-tetramethyl-", "Pyrazine, tetramethyl-", "2,3,5,6-Tetramethylpyrazine", "Tetramethylpyrazine", "BS factor", "Ligustrazine", "Tetrapyrazine", "Chuanxingzine", "Ligustrazin", "NSC 36080", "NSC 46451"], "SMILES": "CC=1C(C)=NC(C)=C(C)N1", "physical_data": {"Molecular Weight": "136.19", "Molecular Formula": "C8H12N2", "Boiling Point": "190 \u00b0C", "Melting Point": "84-86 \u00b0C"}}