{"cas_no": "112457-95-1", "cn_name": "\u67b8\u6a7c\u9178\u5766\u5ea6\u87ba\u916e", "en_name": ["4,7-Methano-1H-isoindole-1,3(2H)-dione, hexahydro-2-[4-[4-(2-pyrimidinyl)-1-piperazinyl]butyl]-, (3aR,4S,7R,7aS)-rel-, 2-hydroxy-1,2,3-propanetricarboxylate (1:1)", "4,7-Methano-1H-isoindole-1,3(2H)-dione, hexahydro-2-[4-[4-(2-pyrimidinyl)-1-piperazinyl]butyl]-, (3aR,4S,7R,7aS)-rel-, 2-hydroxy-1,2,3-propanetricarboxylate (1:1)", "4,7-Methano-1H-isoindole-1,3(2H)-dione, hexahydro-2-[4-[4-(2-pyrimidinyl)-1-piperazinyl]butyl]-, (3a\u03b1,4\u03b2,7\u03b2,7a\u03b1)-, 2-hydroxy-1,2,3-propanetricarboxylate (1:1)", "SM 3997", "Tandospirone citrate", "Sediel"], "SMILES": "C(CC(O)=O)(CC(O)=O)(C(O)=O)O.O=C1C2C(C3CC2CC3)C(=O)N1CCCCN4CCN(CC4)C=5N=CC=CN5", "physical_data": {"Molecular Weight": "", "Molecular Formula": "C21H29N5O2.C6H8O7", "Melting Point": "169.5-170 \u00b0C"}}