{"cas_no": "1124-63-6", "cn_name": "3-\u73af\u5df2\u57fa-1-\u4e19\u9187", "en_name": ["3-Cyclohexyl-1-propanol", "Cyclohexanepropanol", "3-Cyclohexyl-1-propanol", "3-Cyclohexylpropyl alcohol", "3-Cyclohexylpropanol", "NSC 20787"], "SMILES": "C(CCO)C1CCCCC1", "physical_data": {"Molecular Weight": "142.24", "Molecular Formula": "C9H18O", "Boiling Point": "105-106 \u00b0C @ Press: 10 Torr", "Density": "0.937 g/cm\u00b3 @ Temp: 25 \u00b0C"}}