{"cas_no": "1125-80-0", "cn_name": "3-\u7532\u57fa\u5f02\u55b9\u5549", "en_name": ["3-Methylisoquinoline", "Isoquinoline, 3-methyl-", "3-Methylisoquinoline", "NSC 4619", "NSC 475"], "SMILES": "CC1=CC2=C(C=N1)C=CC=C2", "physical_data": {"Molecular Weight": "143.19", "Molecular Formula": "C10H9N", "Boiling Point": "249 \u00b0C", "Melting Point": "68 \u00b0C"}}