{"cas_no": "1125-99-1", "cn_name": "1-\u5421\u54af\u70f7-1-\u73af\u5df1\u70ef", "en_name": ["1-(1-Cyclohexen-1-yl)pyrrolidine", "Pyrrolidine, 1-(1-cyclohexen-1-yl)-", "1-(1-Cyclohexen-1-yl)pyrrolidine", "1-Pyrrolidinocyclohexene", "Cyclohexanone pyrrolidine enamine", "1-(1-Pyrrolidinyl)cyclohexene", "1-(1-Pyrrolidino)-1-cyclohexene", "1-Pyrrolidino-1-cyclohexene", "N-(1-Cyclohexenyl)pyrrolidine", "N-(1-Cyclohexen-1-yl)pyrrolidine", "1-(1-Cyclohexenyl)pyrrolidine", "1-(Pyrrolidine-1-yl)-1-cyclohexene", "NSC 29652"], "SMILES": "N1(CCCC1)C=2CCCCC2", "physical_data": {"Molecular Weight": "151.25", "Molecular Formula": "C10H17N", "Boiling Point": "107-114 \u00b0C @ Press: 12 Torr", "Melting Point": "113 \u00b0C"}}