{"cas_no": "1125-40-2", "cn_name": "5-\u7f9f\u57fa-3-\u7532\u57fa\u5432\u54da", "en_name": ["3-Methyl-1H-indol-5-ol", "1H-Indol-5-ol, 3-methyl-", "Indol-5-ol, 3-methyl-", "3-Methyl-1H-indol-5-ol", "Lumogen no. 1", "5-Hydroxyskatole", "5-Hydroxy-3-methylindole", "3-Methyl-5-hydroxyindole"], "SMILES": "CC=1C=2C(=CC=C(O)C2)NC1", "physical_data": {"Molecular Weight": "147.17", "Molecular Formula": "C9H9NO", "Melting Point": "108-109 \u00b0C"}}