{"cas_no": "1125-78-6", "cn_name": "5,6,7,8-\u56db\u6c22-2-\u8418\u915a", "en_name": ["5,6,7,8-Tetrahydro-2-naphthol", "2-Naphthalenol, 5,6,7,8-tetrahydro-", "2-Naphthol, 5,6,7,8-tetrahydro-", "5,6,7,8-Tetrahydro-2-naphthalenol", "5,6,7,8-Tetrahydro-2-naphthol", "5,6,7,8-Tetrahydro-\u03b2-naphthol", "6-Tetralinol", "6-Hydroxytetralin", "5,6,7,8-Tetrahydro-2-hydroxynaphthalene", "2-Hydroxy-5,6,7,8-tetrahydronaphthalene", "5,6,7,8-Tetrahydronaphthalen-2-ol", "NSC 65604", "6-Hydroxy-1,2,3,4-tetrahydronaphthalene"], "SMILES": "OC=1C=C2C(=CC1)CCCC2", "physical_data": {"Molecular Weight": "148.20", "Molecular Formula": "C10H12O", "Boiling Point": "275.5 \u00b0C", "Melting Point": "57 \u00b0C"}}