{"cas_no": "112501-42-5", "cn_name": "\u9a6c\u515c\u94c3\u5185\u9170\u80fa FI", "en_name": ["Piperolactam A", "Dibenz[cd,f]indol-4(5H)-one, 1-hydroxy-2-methoxy-", "1-Hydroxy-2-methoxydibenz[cd,f]indol-4(5H)-one", "Piperolactam A", "Aristololactam FI", "Aristolactam FI"], "SMILES": "OC=1C2=C3C(=CC=4C2=CC=CC4)NC(=O)C3=CC1OC", "physical_data": {"Molecular Weight": "265.26", "Molecular Formula": "C16H11NO3", "Melting Point": "&gt;300 \u00b0C"}}