{"cas_no": "1125-27-5", "cn_name": "\u4e59\u57fa\u82ef\u57fa\u4e8c\u6c2f\u7845\u70f7", "en_name": ["(Dichloroethylsilyl)benzene", "Benzene, (dichloroethylsilyl)-", "Silane, dichloroethylphenyl-", "(Dichloroethylsilyl)benzene", "Dichloroethylphenylsilane"], "SMILES": "[Si](CC)(Cl)(Cl)C1=CC=CC=C1", "physical_data": {"Molecular Weight": "205.16", "Molecular Formula": "C8H10Cl2Si", "Boiling Point": "225-226 \u00b0C", "Density": "1.184 g/cm\u00b3"}}