{"cas_no": "1125-88-8", "cn_name": "\u82ef\u7532\u919b\u4e8c\u7532\u7f29\u919b", "en_name": ["Benzaldehyde dimethyl acetal", "Benzene, (dimethoxymethyl)-", "Benzaldehyde, dimethyl acetal", "(Dimethoxymethyl)benzene", "\u03b1,\u03b1-Dimethoxytoluene", "Dimethoxyphenylmethane", "Phenyldimethoxymethane", "\u03b1-Methoxybenzyl methyl ether", "NSC 286137", "Benzaldehyde dimethyl acetal"], "SMILES": "C(OC)(OC)C1=CC=CC=C1", "physical_data": {"Molecular Weight": "152.19", "Molecular Formula": "C9H12O2", "Boiling Point": "117-119 \u00b0C @ Press: 25 Torr", "Density": "1.0314 g/cm\u00b3 @ Temp: 20 \u00b0C"}}