{"cas_no": "1125-12-8", "cn_name": "\u4fa7\u67cf\u916e(\u0391-\u548c\u0392-\u4f4d\u7684\u6df7\u5408\u7269)", "en_name": ["3-Thujanone", "Bicyclo[3.1.0]hexan-3-one, 4-methyl-1-(1-methylethyl)-", "3-Thujanone", "4-Methyl-1-(1-methylethyl)bicyclo[3.1.0]hexan-3-one", "Chrysanthone", "Tanacetone", "1-Isopropyl-4-methylbicyclo[3.1.0]hexan-3-one", "NSC 407281"], "SMILES": "C(C)(C)C12C(C1)C(C)C(=O)C2", "physical_data": {"Molecular Weight": "152.23", "Molecular Formula": "C10H16O", "Boiling Point": "203-205 \u00b0C", "Density": "0.907 g/cm\u00b3 @ Temp: 20 \u00b0C"}}