{"cas_no": "112529-15-4", "cn_name": "\u76d0\u9178\u5421\u683c\u5217\u916e", "en_name": ["Pioglitazone hydrochloride", "2,4-Thiazolidinedione, 5-[[4-[2-(5-ethyl-2-pyridinyl)ethoxy]phenyl]methyl]-, hydrochloride (1:1)", "2,4-Thiazolidinedione, 5-[[4-[2-(5-ethyl-2-pyridinyl)ethoxy]phenyl]methyl]-, monohydrochloride, (\u00b1)-", "2,4-Thiazolidinedione, 5-[[4-[2-(5-ethyl-2-pyridinyl)ethoxy]phenyl]methyl]-, monohydrochloride", "U 72107A", "Pioglitazone hydrochloride", "AD 4833", "Actos", "5-[4-[2-(5-Ethyl-2-pyridyl)ethoxy]benzyl]thiazolidine-2,4-dione hydrochloride", "Poze", "Piomed", "Glutazone", "Sepioglin", "Paglitaz", "Glidipion", "Glustin"], "SMILES": "C(C1C(=O)NC(=O)S1)C2=CC=C(OCCC3=CC=C(CC)C=N3)C=C2.Cl", "physical_data": {"Molecular Weight": "", "Molecular Formula": "C19H20N2O3S.ClH", "Melting Point": "193-194 \u00b0C"}}