{"cas_no": "1125-21-9", "cn_name": "4-\u6c27\u4ee3\u5f02\u4f5b\u5c14\u916e", "en_name": ["Ketoisophorone", "2-Cyclohexene-1,4-dione, 2,6,6-trimethyl-", "2,6,6-Trimethyl-2-cyclohexene-1,4-dione", "3,5,5-Trimethyl-2-cyclohexene-1,4-dione", "4-Oxoisophorone", "2,6,6-Trimethylcyclohex-2-ene-1,4-dione", "Oxophorone", "Ketoisophorone", "6-Oxoisophorone", "Oxopholone", "2,6,6-Trimethyl-2-cyclohexen-1,4-dione", "4-Ketoisophorone", "4-Oxo-\u03b1-isophorone", "keto-Isophorone", "Oxoisophorone"], "SMILES": "O=C1C(C)(C)CC(=O)C=C1C", "physical_data": {"Molecular Weight": "152.19", "Molecular Formula": "C9H12O2", "Boiling Point": "92-94 \u00b0C @ Press: 11 Torr", "Melting Point": "15-16 \u00b0C"}}