{"cas_no": "112575-13-0", "cn_name": "6-BROMO-2-N,N-DIMETHYLAMINOPYRIDINE", "en_name": ["6-Bromo-N,N-dimethyl-2-pyridinamine", "2-Pyridinamine, 6-bromo-N,N-dimethyl-", "6-Bromo-N,N-dimethyl-2-pyridinamine", "6-Bromo-2-(dimethylamino)pyridine", "(6-Bromopyridin-2-yl)dimethylamine", "2-Bromo-6-(dimethylamino)pyridine"], "SMILES": "N(C)(C)C=1N=C(Br)C=CC1", "physical_data": {"Molecular Weight": "201.06", "Molecular Formula": "C7H9BrN2", "Melting Point": "56-57 \u00b0C"}}