{"cas_no": "112522-64-2", "cn_name": "4-\u4e59\u9170\u6c28\u57fa-N-(2'-\u6c28\u57fa\u82ef\u57fa)-\u82ef\u7532\u9170\u80fa", "en_name": ["Tacedinaline", "Benzamide, 4-(acetylamino)-N-(2-aminophenyl)-", "4-(Acetylamino)-N-(2-aminophenyl)benzamide", "Goe 5549", "Acetyldinaline", "CI 994", "PD 123654", "Tacedinaline"], "SMILES": "N(C(=O)C1=CC=C(NC(C)=O)C=C1)C2=C(N)C=CC=C2", "physical_data": {"Molecular Weight": "269.30", "Molecular Formula": "C15H15N3O2", "Melting Point": "216.1 \u00b0C"}}