{"cas_no": "1125-30-0", "cn_name": "4-\u785d\u57fa-1,3,5-\u4e09\u7532\u57fa\u5421\u5511", "en_name": ["1,3,5-Trimethyl-4-nitro-1H-pyrazole", "1H-Pyrazole, 1,3,5-trimethyl-4-nitro-", "Pyrazole, 1,3,5-trimethyl-4-nitro-", "1,3,5-Trimethyl-4-nitro-1H-pyrazole", "1,3,5-Trimethyl-4-nitropyrazole"], "SMILES": "N(=O)(=O)C1=C(C)N(C)N=C1C", "physical_data": {"Molecular Weight": "155.15", "Molecular Formula": "C6H9N3O2", "Melting Point": "71.5 \u00b0C"}}