{"cas_no": "1125-60-6", "cn_name": "5-\u6c28\u57fa\u5f02\u55b9\u5549", "en_name": ["5-Aminoisoquinoline", "5-Isoquinolinamine", "Isoquinoline, 5-amino-", "5-Aminoisoquinoline", "(Isoquinolin-5-yl)amine", "NSC 46880", "SID 4248661", "Isoquinolin-5-amine"], "SMILES": "NC=1C2=C(C=CC1)C=NC=C2", "physical_data": {"Molecular Weight": "144.17", "Molecular Formula": "C9H8N2", "Melting Point": "128 \u00b0C"}}