{"cas_no": "1126-46-1", "cn_name": "\u5bf9\u6c2f\u82ef\u7532\u9178\u7532\u916f", "en_name": ["Methyl 4-chlorobenzoate", "Benzoic acid, 4-chloro-, methyl ester", "Benzoic acid, p-chloro-, methyl ester", "Methyl p-chlorobenzoate", "Methyl 4-chlorobenzoate", "p-Chlorobenzoic acid methyl ester", "4-Chlorobenzoic acid methyl ester", "4-Carbomethoxyphenyl chloride", "NSC 8366", "4-(Methoxycarbonyl)chlorobenzene", "5-Chloro-2-benzoic acid methyl ester", "4-Chlorophenylcarboxylic acid methyl ester"], "SMILES": "C(OC)(=O)C1=CC=C(Cl)C=C1", "physical_data": {"Molecular Weight": "170.59", "Molecular Formula": "C8H7ClO2", "Boiling Point": "113-115 \u00b0C @ Press: 20 Torr", "Melting Point": "43.5 \u00b0C"}}