{"cas_no": "1126-58-5", "cn_name": "N-\u6c2f-N-\u5421\u5576\u57fa\u4e59\u9170\u80bc", "en_name": ["Girard's P reagent", "Pyridinium, 1-(2-hydrazinyl-2-oxoethyl)-, chloride (1:1)", "Pyridinium, 1-(carboxymethyl)-, chloride, hydrazide", "Pyridinium, 1-(2-hydrazino-2-oxoethyl)-, chloride", "1-(Carboxymethyl)pyridinium chloride, hydrazide", "Girard's P reagent", "Girard-P reagent", "Pyridinioacetohydrazide chloride", "Reagents, Girard's P", "1-(2-Hydrazino-2-oxoethyl)pyridinium chloride", "1-(2-Hydrazinyl-2-oxoethyl)pyridin-1-iumchloride", "1-[(Hydrazinecarbonyl)methyl]pyridin-1-ium chloride"], "SMILES": "C(C(NN)=O)[N+]=1C=CC=CC1.[Cl-]", "physical_data": {"Molecular Weight": "", "Molecular Formula": "C7H10N3O.Cl", "Melting Point": "201-202 \u00b0C"}}