{"cas_no": "112649-48-6", "cn_name": "BR-XANTHONE A", "en_name": ["BR-xanthone A", "10H-Dipyrano[3,2-a:2\u2032,3\u2032-i]xanthen-14(1H)-one, 2,3,11,12-tetrahydro-5,13-dihydroxy-3,3,10,10-tetramethyl-", "2,3,11,12-Tetrahydro-5,13-dihydroxy-3,3,10,10-tetramethyl-10H-dipyrano[3,2-a:2\u2032,3\u2032-i]xanthen-14(1H)-one", "BR-xanthone A"], "SMILES": "O=C1C=2C3=C(C(O)=CC2OC=4C1=C(O)C5=C(C4)OC(C)(C)CC5)OC(C)(C)CC3", "physical_data": {"Molecular Weight": "396.43", "Molecular Formula": "C23H24O6", "Melting Point": "180-182 \u00b0C"}}