{"cas_no": "1126-78-9", "cn_name": "N-\u4e01\u57fa\u82ef\u80fa", "en_name": ["N-Butylaniline", "Benzenamine, N-butyl-", "Aniline, N-butyl-", "N-Butylbenzenamine", "N-Butylaniline", "N-(n-Butyl)aniline", "Butylaniline", "4-(Phenylamino)butane", "Butylphenylamine", "N-Phenylbutylamine", "NSC 7114"], "SMILES": "N(CCCC)C1=CC=CC=C1", "physical_data": {"Molecular Weight": "149.23", "Molecular Formula": "C10H15N", "Boiling Point": "243.5 \u00b0C", "Melting Point": "-14.4 \u00b0C", "Density": "0.9358 g/cm\u00b3 @ Temp: 20 \u00b0C"}}