{"cas_no": "1126-00-7", "cn_name": "1-\u82ef\u57fa\u5421\u5511", "en_name": ["1-Phenylpyrazole", "1H-Pyrazole, 1-phenyl-", "Pyrazole, 1-phenyl-", "1-Phenyl-1H-pyrazole", "1-Phenylpyrazole", "N-Phenylpyrazole", "NSC 65588"], "SMILES": "N1(C=CC=N1)C2=CC=CC=C2", "physical_data": {"Molecular Weight": "144.17", "Molecular Formula": "C9H8N2", "Boiling Point": "141-142 \u00b0C", "Melting Point": "138 \u00b0C", "Density": "1.0908 g/cm\u00b3 @ Temp: 20 \u00b0C"}}