{"cas_no": "1126-71-2", "cn_name": "N,N-\u4e8c\u7532\u57fa-2-\u82ef\u4e59\u80fa", "en_name": ["Dimethylphenethylamine", "Benzeneethanamine, N,N-dimethyl-", "Phenethylamine, N,N-dimethyl-", "N,N-Dimethylbenzeneethanamine", "[(Dimethylamino)ethyl]benzene", "N,N-Dimethylphenethylamine", "N,N-Dimethyl-\u03b2-phenethylamine", "N,N-Dimethyl-2-phenylethylamine", "N-Phenethyldimethylamine", "N-(2-Phenylethyl)dimethylamine", "Dimethylphenethylamine", "Dimethyl(2-phenylethyl)amine", "NSC 1849", "N,N-Dimethylphenylethylamine", "2-Phenylethyl-N,N-dimethylamine"], "SMILES": "C(CN(C)C)C1=CC=CC=C1", "physical_data": {"Molecular Weight": "149.23", "Molecular Formula": "C10H15N", "Boiling Point": "198-200 \u00b0C"}}