{"cas_no": "112665-43-7", "cn_name": "\u585e\u66f2\u53f8\u7279", "en_name": ["Seratrodast", "Benzeneheptanoic acid, \u03b6-(2,4,5-trimethyl-3,6-dioxo-1,4-cyclohexadien-1-yl)-", "Benzeneheptanoic acid, \u03b6-(2,4,5-trimethyl-3,6-dioxo-1,4-cyclohexadien-1-yl)-, (\u00b1)-", "\u03b6-(2,4,5-Trimethyl-3,6-dioxo-1,4-cyclohexadien-1-yl)benzeneheptanoic acid", "AA 2414", "(\u00b1)-2,4,5-Trimethyl-3,6-dioxo-\u03b6-phenyl-1,4-cyclohexadiene-1-heptanoic acid", "Seratrodast", "ABT 001", "A 73001", "Abbott 73001", "7-(3,5,6-Trimethyl-1,4-benzoquinon-2-yl)-7-phenylheptanoic acid", "Seratodrast", "Bronica", "7-Phenyl-7-(2,4,5-trimethyl-3,6-dioxocyclohexa-1,4-dien-1-yl)heptanoic acid"], "SMILES": "C(CCCCCC(O)=O)(C1=C(C)C(=O)C(C)=C(C)C1=O)C2=CC=CC=C2", "physical_data": {"Molecular Weight": "354.44", "Molecular Formula": "C22H26O4", "Melting Point": "128-129 \u00b0C"}}