{"cas_no": "1126-79-0", "cn_name": "\u4e01\u6c27\u57fa\u82ef", "en_name": ["Butyl phenyl ether", "Benzene, butoxy-", "Ether, butyl phenyl", "Butoxybenzene", "Butyl phenyl ether", "Phenyl butyl ether", "Butyloxybenzene", "n-Butyl phenyl ether", "Phenyl n-butyl ether", "1-Phenoxybutane", "NSC 8467"], "SMILES": "O(CCCC)C1=CC=CC=C1", "physical_data": {"Molecular Weight": "150.22", "Molecular Formula": "C10H14O", "Boiling Point": "210 \u00b0C", "Melting Point": "-19.4 \u00b0C", "Density": "1.0057 g/cm\u00b3 @ Temp: 20 \u00b0C"}}