{"cas_no": "1126-09-6", "cn_name": "4-\u54cc\u5576\u7532\u9178\u4e59\u916f", "en_name": ["Ethyl isonipecotate", "4-Piperidinecarboxylic acid, ethyl ester", "Isonipecotic acid, ethyl ester", "Ethyl isonipecotate", "Ethyl 4-piperidinecarboxylate", "4-(Ethoxycarbonyl)piperidine", "4-Carboethoxypiperidine", "NSC 93792", "Piperidin-4-carboxylic acid ethyl ester"], "SMILES": "C(OCC)(=O)C1CCNCC1", "physical_data": {"Molecular Weight": "157.21", "Molecular Formula": "C8H15NO2", "Boiling Point": "74 \u00b0C @ Press: 1 Torr"}}