{"cas_no": "1126-81-4", "cn_name": "4-\u4e59\u9170\u6c28\u57fa\u82ef\u786b\u915a", "en_name": ["4-Acetamidothiophenol", "Acetamide, N-(4-mercaptophenyl)-", "Acetanilide, 4\u2032-mercapto-", "N-(4-Mercaptophenyl)acetamide", "p-Acetamidobenzenethiol", "4-Acetamidothiophenol", "4\u2032-Mercaptoacetanilide", "4-Acetamidobenzenethiol", "4-Acetylaminothiophenol", "4-(Acetylamino)benzenethiol", "p-Acetamidothiophenol", "p-Mercaptoacetanilide", "p-Acetamidophenyl mercaptan", "2-(4-Mercaptophenyl)acetamide", "N-Acetyl-4-mercaptoaniline", "NSC 34851", "p-(Acetylamino)thiophenol", "N-(4-Sulfanylphenyl)acetamide"], "SMILES": "N(C(C)=O)C1=CC=C(S)C=C1", "physical_data": {"Molecular Weight": "167.23", "Molecular Formula": "C8H9NOS", "Melting Point": "149-150 \u00b0C"}}