{"cas_no": "1126-20-1", "cn_name": "2-(\u70ef\u4e19\u6c27\u57fa)\u82ef\u915a", "en_name": ["2-Allyloxyphenol", "Phenol, 2-(2-propen-1-yloxy)-", "Phenol, o-(allyloxy)-", "Phenol, 2-(2-propenyloxy)-", "2-(2-Propen-1-yloxy)phenol", "o-(Allyloxy)phenol", "Pyrocatechol monoallyl ether", "2-Allyloxyphenol", "o-Hydroxyphenyl 2-propenyl ether", "Catechol monoallyl ether", "2-(2-Propenyloxy)phenol", "Allyl o-hydroxyphenyl ether", "2-Prop-2-enoxyphenol"], "SMILES": "O(CC=C)C1=C(O)C=CC=C1", "physical_data": {"Molecular Weight": "150.17", "Molecular Formula": "C9H10O2", "Boiling Point": "110 \u00b0C @ Press: 12 Torr", "Melting Point": "30.2 \u00b0C", "Density": "1.091 g/cm\u00b3 @ Temp: 15 \u00b0C"}}