{"cas_no": "1126-74-5", "cn_name": "3-(3-\u5421\u5576)\u4e19\u70ef\u9178", "en_name": ["3-(3-Pyridinyl)-2-propenoic acid", "2-Propenoic acid, 3-(3-pyridinyl)-", "3-Pyridineacrylic acid", "3-(3-Pyridinyl)-2-propenoic acid", "\u03b2-(3-Pyridyl)-acrylic acid", "\u03c9-(3-Pyridyl)acrylic acid", "Pyridyl-3-acrylic acid", "3-(3-Pyridyl)-2-propenoic acid", "3-(3-Pyridyl)acrylic acid", "3-(3\u2032-Pyridyl)acrylic acid", "3-(Pyridin-3-yl)acrylic acid", "3-(Pyridin-3-yl)-2-propenoic acid"], "SMILES": "C(=CC(O)=O)C=1C=CC=NC1", "physical_data": {"Molecular Weight": "149.15", "Molecular Formula": "C8H7NO2", "Melting Point": "233 \u00b0C"}}