{"cas_no": "1126-61-0", "cn_name": "4-\u70ef\u4e19\u57fa\u90bb\u82ef\u4e8c\u915a", "en_name": ["Hydroxychavicol", "1,2-Benzenediol, 4-(2-propen-1-yl)-", "Pyrocatechol, 4-allyl-", "1,2-Benzenediol, 4-(2-propenyl)-", "4-(2-Propen-1-yl)-1,2-benzenediol", "4-Allylcatechol", "1,2-Dihydroxy-4-allylbenzene", "4-Allyl-1,2-dihydroxybenzene", "1-Allyl-3,4-dihydroxybenzene", "4-Allylpyrocatechol", "4-(2\u2032-Propenyl)-1,2-benzenediol", "Hydroxychavicol", "4-(2-Propenyl)-1,2-benzenediol", "Desmethyleugenol", "4-Allyl-1,2-Benzenediol", "3,4-Dihydroxyallylbenzene", "p-Allylcatechol"], "SMILES": "C(C=C)C1=CC(O)=C(O)C=C1", "physical_data": {"Molecular Weight": "150.17", "Molecular Formula": "C9H10O2", "Boiling Point": "147-149 \u00b0C @ Press: 10 Torr", "Melting Point": "48 \u00b0C"}}