{"cas_no": "112779-14-3", "cn_name": "5-\u6c28\u57fa-1-\u53d4\u4e01\u57fa\u5421\u5511-4-\u7532\u9178\u4e59\u916f", "en_name": ["Ethyl 5-amino-1-(1,1-dimethylethyl)-1H-pyrazole-4-carboxylate", "1H-Pyrazole-4-carboxylic acid, 5-amino-1-(1,1-dimethylethyl)-, ethyl ester", "Ethyl 5-amino-1-(1,1-dimethylethyl)-1H-pyrazole-4-carboxylate", "Ethyl 5-amino-1-tert-butyl-1H-pyrazole-4-carboxylate", "5-Amino-1-tert-butyl-1H-pyrazole-4-carboxylic acid ethyl ester"], "SMILES": "C(C)(C)(C)N1C(N)=C(C(OCC)=O)C=N1", "physical_data": {"Molecular Weight": "211.26", "Molecular Formula": "C10H17N3O2", "Boiling Point": "110 \u00b0C @ Press: 0.1 Torr"}}