{"cas_no": "1127-76-0", "cn_name": "1-\u4e59\u57fa\u8418", "en_name": ["1-Ethylnaphthalene", "Naphthalene, 1-ethyl-", "1-Ethylnaphthalene", "\u03b1-Ethylnaphthalene", "NSC 59390"], "SMILES": "C(C)C=1C2=C(C=CC1)C=CC=C2", "physical_data": {"Molecular Weight": "156.22", "Molecular Formula": "C12H12", "Boiling Point": "258.6 \u00b0C", "Melting Point": "-13.9 \u00b0C", "Density": "1.0221 g/cm\u00b3 @ Temp: 0 \u00b0C"}}