{"cas_no": "1127-59-9", "cn_name": "7-\u7532\u57fa\u975b\u7ea2", "en_name": ["7-Methylisatin", "1H-Indole-2,3-dione, 7-methyl-", "Indole-2,3-dione, 7-methyl-", "Isatin, 7-methyl-", "7-Methyl-1H-indole-2,3-dione", "7-Methylisatin", "7-Methyl-2,3-indolinedione", "NSC 3161", "7-Methyl-2,3-dihydro-2,3-dioxoindole"], "SMILES": "O=C1C=2C(=C(C)C=CC2)NC1=O", "physical_data": {"Molecular Weight": "161.16", "Molecular Formula": "C9H7NO2", "Melting Point": "267 \u00b0C"}}