{"cas_no": "112794-29-3", "cn_name": "1,2,3,4-\u56db\u6c22\u5f02\u55b9\u5549-3-\u7532\u9170\u80fa", "en_name": ["1,2,3,4-Tetrahydro-3-isoquinolinecarboxamide", "3-Isoquinolinecarboxamide, 1,2,3,4-tetrahydro-", "1,2,3,4-Tetrahydro-3-isoquinolinecarboxamide", "1,2,3,4-Tetrahydro-isoquinoline-3-carboxylic acid amide"], "SMILES": "C(N)(=O)C1CC=2C(CN1)=CC=CC2", "physical_data": {"Molecular Weight": "176.22", "Molecular Formula": "C10H12N2O", "Melting Point": "162-163 \u00b0C"}}