{"cas_no": "1127-45-3", "cn_name": "8-\u7f9f\u57fa\u55b9\u5549-N-\u6c27\u5316\u7269", "en_name": ["8-Hydroxyquinoline N-oxide", "8-Quinolinol, 1-oxide", "8-Hydroxyquinoline 1-oxide", "8-Hydroxyquinoline N-oxide", "o-Hydroxyquinoline N-oxide", "8-Quinolinol N-oxide", "NSC 21656"], "SMILES": "OC=1C2=C(C=CC=N2=O)C=CC1", "physical_data": {"Molecular Weight": "161.16", "Molecular Formula": "C9H7NO2", "Melting Point": "138 \u00b0C"}}