{"cas_no": "112741-50-1", "cn_name": "(2S,3R)-N-\u53d4\u4e01\u6c27\u7fb0\u57fa-2,3-\u4e8c\u82ef\u57fa\u5417\u5549-6-\u916e", "en_name": ["1,1-Dimethylethyl (2S,3R)-6-oxo-2,3-diphenyl-4-morpholinecarboxylate", "4-Morpholinecarboxylic acid, 6-oxo-2,3-diphenyl-, 1,1-dimethylethyl ester, (2S,3R)-", "4-Morpholinecarboxylic acid, 6-oxo-2,3-diphenyl-, 1,1-dimethylethyl ester, (2S-cis)-", "1,1-Dimethylethyl (2S,3R)-6-oxo-2,3-diphenyl-4-morpholinecarboxylate", "(2S,3R)-(+)-N-tert-Butoxycarbonyl-6-oxo-2,3-diphenylmorpholine"], "SMILES": "C(OC(C)(C)C)(=O)N1C(C(OC(=O)C1)C2=CC=CC=C2)C3=CC=CC=C3", "physical_data": {"Molecular Weight": "353.41", "Molecular Formula": "C21H23NO4", "Melting Point": "207 \u00b0C"}}