{"cas_no": "1127-01-1", "cn_name": "1-\u7f9f\u57fa-1-\u73af\u5df2\u57fa\u7532\u9178\u4e59\u916f", "en_name": ["Cyclohexanecarboxylic acid, 1-hydroxy-, ethyl ester", "Cyclohexanecarboxylic acid, 1-hydroxy-, ethyl ester", "Ethyl 1-hydroxycyclohexanecarboxylate", "1-Hydroxycyclohexanecarboxylic acid ethyl ester", "NSC 7384"], "SMILES": "C(OCC)(=O)C1(O)CCCCC1", "physical_data": {"Molecular Weight": "172.22", "Molecular Formula": "C9H16O3", "Boiling Point": "75 \u00b0C @ Press: 5 Torr"}}