{"cas_no": "112726-66-6", "cn_name": "N-[1-(2-\u82ef\u5e76[B]\u567b\u55ef-2-\u57fa)\u73af\u5df1\u57fa)]\u54cc\u5576\u9a6c\u6765\u9178", "en_name": ["BTCP", "Piperidine, 1-(1-benzo[b]thien-2-ylcyclohexyl)-", "1-(1-Benzo[b]thien-2-ylcyclohexyl)piperidine", "N-[1-(2-Benzo[b]thiophenyl)cyclohexyl]piperidine", "GK 13", "BTCP", "1-[1-(2-Benzo[b]thienyl)cyclohexyl]piperidine", "Benocyclidine", "1-[1-(1-Benzothiophen-2-yl)cyclohexyl]piperidine"], "SMILES": "C1(CCCCC1)(C2=CC=3C(S2)=CC=CC3)N4CCCCC4", "physical_data": {"Molecular Weight": "299.47", "Molecular Formula": "C19H25NS", "Melting Point": "80 \u00b0C"}}