{"cas_no": "1127-35-1", "cn_name": "\u82ef\u5e76[B]\u567b\u5429-3(2H)-\u916e 1,1-\u4e8c\u6c27\u5316\u7269", "en_name": ["3-Oxo-2,3-dihydrobenzo[b]thiophene 1,1-dioxide", "Benzo[b]thiophen-3(2H)-one, 1,1-dioxide", "3-Oxo-2,3-dihydrobenzo[b]thiophene 1,1-dioxide", "NSC 403326", "1,1-Dioxo-1-benzothiophen-3-one", "2,3-Dihydro-1\u03bb6-benzothiophene-1,1,3-trione", "1-Benzothiophen-3(2H)-one 1,1-dioxide"], "SMILES": "O=S1(=O)C=2C(C(=O)C1)=CC=CC2", "physical_data": {"Molecular Weight": "182.20", "Molecular Formula": "C8H6O3S", "Melting Point": "134-135 \u00b0C"}}