{"cas_no": "1127-99-7", "cn_name": "\u987a\u5f0f-2-\u6c28\u57fa-1-\u73af\u5df1\u7fa7\u9178\u4e59\u916f\u76d0\u9178\u76d0", "en_name": ["Cyclohexanecarboxylic acid, 2-amino-, ethyl ester, hydrochloride (1:1), (1R,2S)-rel-", "Cyclohexanecarboxylic acid, 2-amino-, ethyl ester, hydrochloride (1:1), (1R,2S)-rel-", "Cyclohexanecarboxylic acid, 2-amino-, ethyl ester, hydrochloride, cis-", "Cyclohexanecarboxylic acid, 2-amino-, ethyl ester, hydrochloride, (1R,2S)-rel-", "Ethyl cis-2-aminocyclohexanecarboxylate hydrochloride", "Ethyl cis-2-amino-1-cyclohexanecarboxylate hydrochloride"], "SMILES": "C(OCC)(=O)C1C(N)CCCC1.Cl", "physical_data": {"Molecular Weight": "", "Molecular Formula": "C9H17NO2.ClH", "Melting Point": "131-133 \u00b0C"}}