{"cas_no": "112704-79-7", "cn_name": "4-\u6eb4-2-\u6c1f\u82ef\u7532\u9178", "en_name": ["4-Bromo-2-fluorobenzoic acid", "Benzoic acid, 4-bromo-2-fluoro-", "4-Bromo-2-fluorobenzoic acid", "2-Fluoro-4-bromobenzoic acid", "NSC 190364"], "SMILES": "C(O)(=O)C1=C(F)C=C(Br)C=C1", "physical_data": {"Molecular Weight": "219.01", "Molecular Formula": "C7H4BrFO2", "Melting Point": "204-208 \u00b0C (polymorph)"}}