{"cas_no": "112811-90-2", "cn_name": "2-\u82c4\u786b\u57fa\u70df\u9178", "en_name": ["2-[(Phenylmethyl)thio]-3-pyridinecarboxylic acid", "3-Pyridinecarboxylic acid, 2-[(phenylmethyl)thio]-", "2-[(Phenylmethyl)thio]-3-pyridinecarboxylic acid", "2-(Phenylmethylthio)-3-pyridinecarboxylic acid", "2-Benzylsulfanylpyridine-3-carboxylic acid", "2-(Benzylsulfanyl)pyridine-3-carboxylic acid"], "SMILES": "S(CC1=CC=CC=C1)C2=C(C(O)=O)C=CC=N2", "physical_data": {"Molecular Weight": "245.30", "Molecular Formula": "C13H11NO2S", "Melting Point": "190-193 \u00b0C"}}