{"cas_no": "1128-76-3", "cn_name": "3-\u6c2f\u82ef\u7532\u9178\u4e59\u916f", "en_name": ["Benzoic acid, 3-chloro-, ethyl ester", "Benzoic acid, 3-chloro-, ethyl ester", "Benzoic acid, m-chloro-, ethyl ester", "Ethyl m-chlorobenzoate", "Ethyl 3-chlorobenzoate", "3-Chlorobenzoic acid ethyl ester", "NSC 67339"], "SMILES": "C(OCC)(=O)C1=CC(Cl)=CC=C1", "physical_data": {"Molecular Weight": "184.62", "Molecular Formula": "C9H9ClO2", "Boiling Point": "243 \u00b0C"}}