{"cas_no": "1128-44-5", "cn_name": "4-\u7532\u57fa\u975b\u7ea2", "en_name": ["4-Methylisatin", "1H-Indole-2,3-dione, 4-methyl-", "Indole-2,3-dione, 4-methyl-", "Isatin, 4-methyl-", "4-Methyl-1H-indole-2,3-dione", "4-Methylisatin", "4-Methylindole-2,3-dione", "4-Methylindoline-2,3-dione"], "SMILES": "O=C1C=2C(NC1=O)=CC=CC2C", "physical_data": {"Molecular Weight": "161.16", "Molecular Formula": "C9H7NO2", "Melting Point": "189 \u00b0C"}}