{"cas_no": "112887-68-0", "cn_name": "\u96f7\u66ff\u66f2\u585e", "en_name": ["Raltitrexed", "L-Glutamic acid, N-[[5-[[(3,4-dihydro-2-methyl-4-oxo-6-quinazolinyl)methyl]methylamino]-2-thienyl]carbonyl]-", "L-Glutamic acid, N-[[5-[[(1,4-dihydro-2-methyl-4-oxo-6-quinazolinyl)methyl]methylamino]-2-thienyl]carbonyl]-", "N-[[5-[[(3,4-Dihydro-2-methyl-4-oxo-6-quinazolinyl)methyl]methylamino]-2-thienyl]carbonyl]-L-glutamic acid", "ICI-D 1694", "D 1694", "ZD 1694", "Tomudex", "Raltitrexed", "TDX"], "SMILES": "O=C1C=2C(=CC=C(CN(C)C=3SC(C(NC(CCC(O)=O)C(O)=O)=O)=CC3)C2)NC(C)=N1", "physical_data": {"Molecular Weight": "458.49", "Molecular Formula": "C21H22N4O6S", "Melting Point": "180-184 \u00b0C"}}