{"cas_no": "112809-25-3", "cn_name": "4-(1H-1,2,4-\u4e09\u5511-1-\u57fa\u7532\u57fa)\u82ef\u7532\u8148", "en_name": ["4-(1H-1,2,4-Triazol-1-ylmethyl)benzonitrile", "Benzonitrile, 4-(1H-1,2,4-triazol-1-ylmethyl)-", "4-(1H-1,2,4-Triazol-1-ylmethyl)benzonitrile", "4-1-(1,2,4-Triazolyl)-methyl-benzonitrile", "4-[(1H-1,2,4-Triazol-1-yl)methyl]benzonitrile", "4-2[1-(1,2,4-Triazol-1-yl)methyl]benzonitrile", "1-(4-Cyanobenzyl)-1,2,4-triazole", "4-[(1,2,4-Triazol-1-yl)methyl]benzonitrile"], "SMILES": "C(C1=CC=C(C#N)C=C1)N2C=NC=N2", "physical_data": {"Molecular Weight": "184.20", "Molecular Formula": "C10H8N4", "Melting Point": "108-110 \u00b0C"}}