{"cas_no": "112885-41-3", "cn_name": "\u83ab\u6c99\u5fc5\u5229", "en_name": ["Mosapride", "Benzamide, 4-amino-5-chloro-2-ethoxy-N-[[4-[(4-fluorophenyl)methyl]-2-morpholinyl]methyl]-", "4-Amino-5-chloro-2-ethoxy-N-[[4-[(4-fluorophenyl)methyl]-2-morpholinyl]methyl]benzamide", "Mosapride", "Moza", "4-Amino-5-chloro-2-ethoxy-N-[[4-(4-fluorobenzyl)-2-morpholinyl]methyl]benzamide"], "SMILES": "C(NCC1CN(CC2=CC=C(F)C=C2)CCO1)(=O)C3=C(OCC)C=C(N)C(Cl)=C3", "physical_data": {"Molecular Weight": "421.89", "Molecular Formula": "C21H25ClFN3O3", "Melting Point": "151-153 \u00b0C"}}