{"cas_no": "112828-00-9", "cn_name": "\u5361\u6cca\u4e09\u9187", "en_name": ["Calcipotriol", "1,3-Cyclohexanediol, 5-[(2E)-2-[(1R,3aS,7aR)-1-[(1R,2E,4S)-4-cyclopropyl-4-hydroxy-1-methyl-2-buten-1-yl]octahydro-7a-methyl-4H-inden-4-ylidene]ethylidene]-4-methylene-, (1R,3S,5Z)-", "9,10-Secochola-5,7,10(19),22-tetraene-1,3,24-triol, 24-cyclopropyl-, (1\u03b1,3\u03b2,5Z,7E,22E,24S)-", "(1R,3S,5Z)-5-[(2E)-2-[(1R,3aS,7aR)-1-[(1R,2E,4S)-4-Cyclopropyl-4-hydroxy-1-methyl-2-buten-1-yl]octahydro-7a-methyl-4H-inden-4-ylidene]ethylidene]-4-methylene-1,3-cyclohexanediol", "MC 903", "Calcipotriol", "Dovonex", "Daivonex", "Calcipotriene", "Calciptriol", "Psorcutan", "PRI 2201"], "SMILES": "CC12C(C(=CC=C3C(=C)C(O)CC(O)C3)CCC1)CCC2C(C=CC(O)C4CC4)C", "physical_data": {"Molecular Weight": "412.60", "Molecular Formula": "C27H40O3", "Melting Point": "166-168 \u00b0C"}}