{"cas_no": "1128-08-1", "cn_name": "\u4e8c\u6c22\u8309\u8389\u916e", "en_name": ["Dihydrojasmone", "2-Cyclopenten-1-one, 3-methyl-2-pentyl-", "3-Methyl-2-pentyl-2-cyclopenten-1-one", "Dihydrojasmone", "3-Methyl-2-pentyl-2-cyclopentenone", "2-Pentyl-3-methyl-2-cyclopentenone", "2-Amyl-3-methyl-2-cyclopentenone", "NSC 71928", "2-n-Pentyl-3-methyl-2-cyclopenten-1-one"], "SMILES": "C(CCCC)C1=C(C)CCC1=O", "physical_data": {"Molecular Weight": "166.26", "Molecular Formula": "C11H18O", "Boiling Point": "75-76 \u00b0C @ Press: 1 Torr", "Density": "0.9176 g/cm\u00b3 @ Temp: 20 \u00b0C"}}