{"cas_no": "1128-53-6", "cn_name": "4-\u6c28\u57fa-1-\u82ef\u57fa\u5421\u5511", "en_name": ["1-Phenyl-1H-pyrazol-4-amine", "1H-Pyrazol-4-amine, 1-phenyl-", "Pyrazole, 4-amino-1-phenyl-", "1-Phenyl-1H-pyrazol-4-amine", "4-Amino-1-phenylpyrazole", "1-Phenyl-4-pyrazoleamine", "1-Phenylpyrazol-4-amine"], "SMILES": "NC1=CN(N=C1)C2=CC=CC=C2", "physical_data": {"Molecular Weight": "159.19", "Molecular Formula": "C9H9N3", "Melting Point": "104-105 \u00b0C"}}