{"cas_no": "1128-54-7", "cn_name": "3-\u7532\u57fa-1-\u82ef\u57fa\u5421\u5576", "en_name": ["3-Methyl-1-phenyl-1H-pyrazole", "1H-Pyrazole, 3-methyl-1-phenyl-", "Pyrazole, 3-methyl-1-phenyl-", "3-Methyl-1-phenyl-1H-pyrazole", "3-Methyl-1-phenylpyrazole", "1-Phenyl-3-methylpyrazole", "NSC 163372"], "SMILES": "CC1=NN(C=C1)C2=CC=CC=C2", "physical_data": {"Molecular Weight": "158.20", "Molecular Formula": "C10H10N2", "Boiling Point": "255 \u00b0C", "Melting Point": "37 \u00b0C"}}