{"cas_no": "1128-56-9", "cn_name": "1-\u82ef\u57fa-3-\u6c28\u57fa\u5421\u5511", "en_name": ["1-Phenyl-1H-pyrazol-3-amine", "1H-Pyrazol-3-amine, 1-phenyl-", "Pyrazole, 3-amino-1-phenyl-", "1-Phenyl-1H-pyrazol-3-amine", "1-Phenyl-3-aminopyrazole", "3-Amino-1-phenylpyrazole", "1-Phenyl-3-pyrazolamine", "1-Phenyl-1H-pyrazole-3-amine", "1-Phenyl-1H-pyrazol-3-ylamine", "3-Amino-1-phenyl-1H-pyrazole"], "SMILES": "NC1=NN(C=C1)C2=CC=CC=C2", "physical_data": {"Molecular Weight": "159.19", "Molecular Formula": "C9H9N3", "Boiling Point": "167-170 \u00b0C @ Press: 8 Torr", "Melting Point": "101 \u00b0C"}}