{"cas_no": "1128-23-0", "cn_name": "L-\u53e4\u6d1b\u7cd6\u9178-gamma-\u5185\u916f", "en_name": ["Reduced ascorbate", "L-Gulonic acid, \u03b3-lactone", "Gulonic acid, \u03b3-lactone, L-", "L-Gulono-1,4-lactone", "L-Gulonolactone", "L-Gulono-\u03b3-lactone", "Reduced ascorbic acid", "\u03b3-Gulonolactone", "Reduced ascorbate", "Dihydroascorbic acid", "L-(+)-Gulonic acid \u03b3-lactone"], "SMILES": "C(CO)(O)C1C(O)C(O)C(=O)O1", "physical_data": {"Molecular Weight": "178.14", "Molecular Formula": "C6H10O6", "Melting Point": "180-182 \u00b0C"}}