{"cas_no": "1128-05-8", "cn_name": "3-\u4e59\u9170\u786b\u831a", "en_name": ["3-Acetylbenzothiophene", "Ethanone, 1-benzo[b]thien-3-yl-", "Ketone, benzo[b]thien-3-yl methyl", "1-Benzo[b]thien-3-ylethanone", "3-Acetylbenzothiophene", "3-Acetylbenzo[b]thiophene", "3-Acetylthianaphthene", "3-Acetylthionaphthene", "1-(3-Benzo[b]thienyl)ethanone", "NSC 3226", "1-(Benzo[b]thiophen-3-yl)ethanone", "1-(Benzo[b]thien-3-yl)ethanone", "1-(1-Benzothiophen-3-yl)ethan-1-one"], "SMILES": "C(C)(=O)C=1C=2C(SC1)=CC=CC2", "physical_data": {"Molecular Weight": "176.23", "Molecular Formula": "C10H8OS", "Boiling Point": "135-137 \u00b0C @ Press: 3 Torr", "Melting Point": "64-65 \u00b0C"}}