{"cas_no": "1128-61-6", "cn_name": "6-\u6c1f-2-\u7532\u57fa\u55b9\u5549", "en_name": ["6-Fluoro-2-methylquinoline", "Quinoline, 6-fluoro-2-methyl-", "Quinaldine, 6-fluoro-", "6-Fluoro-2-methylquinoline", "6-Fluoroquinaldine", "2-Methyl-6-fluoroquinoline"], "SMILES": "FC1=CC2=C(N=C(C)C=C2)C=C1", "physical_data": {"Molecular Weight": "161.18", "Molecular Formula": "C10H8FN", "Boiling Point": "123-126 \u00b0C @ Press: 17 Torr", "Melting Point": "57-59 \u00b0C"}}