{"cas_no": "1128-67-2", "cn_name": "3-\u7532\u57fa-2-\u82ef\u5e76\u567b\u5511\u916e\u8159", "en_name": ["3-Methyl-2-benzothiazolinone hydrazone", "2(3H)-Benzothiazolone, 3-methyl-, hydrazone", "2-Benzothiazolinone, 3-methyl-, hydrazone", "3-Methyl-2-benzothiazolone hydrazone", "3-Methyl-2-benzothiazolinone hydrazone", "N-Methyl-2-benzothiazolone hydrazone", "(3-Methyl-2-benzothiazolinylidene)hydrazine", "N-Methyl-2-benzothiazolinone hydrazone", "Besthorn's hydrazone", "MBTH", "(3-Methyl-1,3-benzothiazol-2-ylidene)hydrazine", "2-Hydrazono-3-methyl-2,3-dihydrobenzo[d]thiazole"], "SMILES": "CN1C=2C(SC1=NN)=CC=CC2", "physical_data": {"Molecular Weight": "179.24", "Molecular Formula": "C8H9N3S", "Melting Point": "143-144 \u00b0C"}}