{"cas_no": "112809-51-5", "cn_name": "\u6765\u66f2\u5511", "en_name": ["Letrozole", "Benzonitrile, 4,4\u2032-(1H-1,2,4-triazol-1-ylmethylene)bis-", "4,4\u2032-(1H-1,2,4-Triazol-1-ylmethylene)bis[benzonitrile]", "CGS 20267", "Letrozole", "4,4\u2032-(1H-1,2,4-Triazol-1-ylmethylene)dibenzonitrile", "Femara", "Letrazole", "Lerozole", "4-[1-(4-Cyanophenyl)-1-(1,2,4-triazol-1-yl)methyl]benzonitrile", "Letroz", "Letrof L Lil", "Letoripe", "Letocor"], "SMILES": "C(C1=CC=C(C#N)C=C1)(C2=CC=C(C#N)C=C2)N3C=NC=N3", "physical_data": {"Molecular Weight": "285.30", "Molecular Formula": "C17H11N5", "Melting Point": "181-183 \u00b0C"}}