{"cas_no": "1129-35-7", "cn_name": "\u5bf9\u6c30\u57fa\u82ef\u7532\u9178\u7532\u916f", "en_name": ["Methyl 4-cyanobenzoate", "Benzoic acid, 4-cyano-, methyl ester", "Benzoic acid, p-cyano-, methyl ester", "Methyl p-cyanobenzoate", "Methyl 4-cyanobenzoate", "p-Cyanobenzoic acid methyl ester", "4-(Methoxycarbonyl)benzonitrile", "4-cyanobenzoic acid methyl ester"], "SMILES": "C(OC)(=O)C1=CC=C(C#N)C=C1", "physical_data": {"Molecular Weight": "161.16", "Molecular Formula": "C9H7NO2", "Boiling Point": "142-144 \u00b0C @ Press: 12 Torr", "Melting Point": "62 \u00b0C"}}