{"cas_no": "1129-41-5", "cn_name": "\u7532\u57fa\u78b3\u9178\u916f", "en_name": ["Metolcarb", "Carbamic acid, N-methyl-, 3-methylphenyl ester", "Carbamic acid, methyl-, m-tolyl ester", "Carbamic acid, methyl-, 3-methylphenyl ester", "m-Cresyl methylcarbamate", "m-Tolyl methylcarbamate", "DRC 3341", "Tsumacide", "MTMC", "3-Methylphenyl methylcarbamate", "3-Tolyl methylcarbamate", "m-Cresyl N-methylcarbamate", "m-Methylphenyl methylcarbamate", "Metacrate", "S 1065", "Tsumaunka", "m-Methylphenyl N-methylcarbamate", "Metolcarb", "NSC 91193"], "SMILES": "O(C(NC)=O)C1=CC(C)=CC=C1", "physical_data": {"Molecular Weight": "165.19", "Molecular Formula": "C9H11NO2", "Melting Point": "76-77 \u00b0C"}}