{"cas_no": "1129-28-8", "cn_name": "3-\u6eb4\u7532\u57fa\u82ef\u7532\u9178\u7532\u916f", "en_name": ["Methyl 3-(bromomethyl)benzoate", "Benzoic acid, 3-(bromomethyl)-, methyl ester", "m-Toluic acid, \u03b1-bromo-, methyl ester", "m-Carbomethoxybenzyl bromide", "Methyl 3-(bromomethyl)benzoate", "Methyl \u03b1-bromo-m-toluate", "m-(Methoxycarbonyl)benzyl bromide", "m-(Bromomethyl)benzoic acid methyl ester", "Methyl m-(bromomethyl)benzoate", "3-Methoxycarbonylbenzyl bromide", "3-Carbomethoxybenzyl bromide", "3-(Bromomethyl)benzoic acid methyl ester"], "SMILES": "C(OC)(=O)C1=CC(CBr)=CC=C1", "physical_data": {"Molecular Weight": "229.07", "Molecular Formula": "C9H9BrO2", "Boiling Point": "112-114 \u00b0C @ Press: 3 Torr", "Melting Point": "46-47 \u00b0C"}}