{"cas_no": "112984-60-8", "cn_name": "\u666e\u5362\u5229\u6c99\u661f\u4e2d\u95f4\u4f53 III", "en_name": ["Ulifloxacin", "1H,4H-[1,3]Thiazeto[3,2-a]quinoline-3-carboxylic acid, 6-fluoro-1-methyl-4-oxo-7-(1-piperazinyl)-", "6-Fluoro-1-methyl-4-oxo-7-(1-piperazinyl)-1H,4H-[1,3]thiazeto[3,2-a]quinoline-3-carboxylic acid", "NAD 394", "NM 394", "AF 3013", "Ulifloxacin"], "SMILES": "CC1N2C=3C(C(=O)C(C(O)=O)=C2S1)=CC(F)=C(C3)N4CCNCC4", "physical_data": {"Molecular Weight": "349.38", "Molecular Formula": "C16H16FN3O3S", "Melting Point": "215-218 \u00b0C (decomp)"}}