{"cas_no": "1129-65-3", "cn_name": "1-\u82ef\u57fa-1-\u5df1\u7094", "en_name": ["1-Hexyn-1-ylbenzene", "Benzene, 1-hexyn-1-yl-", "1-Hexyne, 1-phenyl-", "Benzene, 1-hexynyl-", "1-Hexyn-1-ylbenzene", "1-Phenyl-1-hexyne", "1-Butyl-2-phenylacetylene", "Butylphenylacetylene", "(1-Hexyn-1-yl)benzene", "Hex-1-ynylbenzene"], "SMILES": "C(#CCCCC)C1=CC=CC=C1", "physical_data": {"Molecular Weight": "158.24", "Molecular Formula": "C12H14", "Boiling Point": "119-121 \u00b0C @ Press: 18 Torr", "Density": "0.899 g/cm\u00b3 @ Temp: 17 \u00b0C"}}