{"cas_no": "1129-69-7", "cn_name": "2-\u5df1\u57fa\u5421\u5576", "en_name": ["2-Hexylpyridine", "Pyridine, 2-hexyl-", "2-Hexylpyridine", "2-(n-Hexyl)pyridine"], "SMILES": "C(CCCCC)C1=CC=CC=N1", "physical_data": {"Molecular Weight": "163.26", "Molecular Formula": "C11H17N", "Boiling Point": "100 \u00b0C @ Press: 0.1 Torr"}}