{"cas_no": "1129-46-0", "cn_name": "(R)-2-\u82ef\u6c27\u57fa\u4e19\u9178", "en_name": ["(+)-2-Phenoxypropionic acid", "Propanoic acid, 2-phenoxy-, (2R)-", "Propionic acid, 2-phenoxy-, D-", "Propanoic acid, 2-phenoxy-, (R)-", "(2R)-2-Phenoxypropanoic acid", "(R)-(+)-2-Phenoxypropionic acid", "(+)-2-Phenoxypropionic acid", "(R)-2-Phenoxypropionic acid", "(+)-2-Phenoxypropanoic acid", "(R)-2-Phenoxypropanoic acid", "(+)-R-2-Phenoxypropionic acid"], "SMILES": "O(C(C(O)=O)C)C1=CC=CC=C1", "physical_data": {"Molecular Weight": "166.17", "Molecular Formula": "C9H10O3", "Melting Point": "84-86 \u00b0C"}}