{"cas_no": "1129-37-9", "cn_name": "4-\u785d\u57fa\u82ef\u7532\u919b\u809f", "en_name": ["4-Nitrobenzaldehyde oxime", "Benzaldehyde, 4-nitro-, oxime", "Benzaldehyde, p-nitro-, oxime", "p-Nitrobenzaldehyde oxime", "p-Nitrobenzaldoxime", "4-Nitrobenzaldoxime", "4-Nitrobenzaldehyde oxime", "(4-Nitrobenzylidene)hydroxylamine", "NSC 68355"], "SMILES": "N(=O)(=O)C1=CC=C(C=NO)C=C1", "physical_data": {"Molecular Weight": "166.13", "Molecular Formula": "C7H6N2O3", "Melting Point": "126-130 \u00b0C"}}