{"cas_no": "1129-26-6", "cn_name": "\u5bf9\u7532\u6c27\u57fa\u82ef\u78fa\u9170\u80fa", "en_name": ["4-Methoxybenzenesulfonamide", "Benzenesulfonamide, 4-methoxy-", "Benzenesulfonamide, p-methoxy-", "4-Methoxybenzenesulfonamide", "p-Methoxybenzenesulfonamide", "4-Methoxyphenylsulfonamide", "NSC 73188", "4-(Methyloxy)benzenesulfonamide"], "SMILES": "S(N)(=O)(=O)C1=CC=C(OC)C=C1", "physical_data": {"Molecular Weight": "187.22", "Molecular Formula": "C7H9NO3S", "Melting Point": "116 \u00b0C"}}