{"cas_no": "1129-30-2", "cn_name": "2,6-\u4e8c\u4e59\u9170\u57fa\u5421\u5576", "en_name": ["2,6-Diacetylpyridine", "Ethanone, 1,1\u2032-(2,6-pyridinediyl)bis-", "Pyridine, 2,6-diacetyl-", "1,1\u2032-(2,6-Pyridinediyl)bis[ethanone]", "2,6-Diacetylpyridine", "NSC 63355", "1-(6-Acetylpyridin-2-yl)ethanone"], "SMILES": "C(C)(=O)C=1N=C(C(C)=O)C=CC1", "physical_data": {"Molecular Weight": "163.17", "Molecular Formula": "C9H9NO2", "Boiling Point": "126 \u00b0C @ Press: 6 Torr", "Melting Point": "79 \u00b0C (sublm)"}}