{"cas_no": "113-59-7", "cn_name": "\u6c2f\u666e\u567b\u5428", "en_name": ["Chlorprothixene", "1-Propanamine, 3-(2-chloro-9H-thioxanthen-9-ylidene)-N,N-dimethyl-, (3Z)-", "1-Propanamine, 3-(2-chloro-9H-thioxanthen-9-ylidene)-N,N-dimethyl-, (Z)-", "Thioxanthene-\u03949,\u03b3-propylamine, 2-chloro-N,N-dimethyl-, (Z)-", "9H-Thioxanthene, 1-propanamine deriv.", "(3Z)-3-(2-Chloro-9H-thioxanthen-9-ylidene)-N,N-dimethyl-1-propanamine", "MK 184", "N 714", "Ro 4-0403", "Chlorprothixene", "CPT", "CPX", "Iaractan", "Taractan", "Tarasan", "Truxal", "Chlorprothixen", "Chlorprotixene", "\u03b1-Chlorprothixene", "Chlorprotixen", "Chlothixen", "Traquilan", "Trictal", "Paxyl", "Truxil", "Vetacalm", "Rentovet", "Tactaran", "cis-Chlorprothixene", "Tardan", "Ro 4-04033", "Truxaletten", "Chorprothixene", "Cloxan", "MeSH ID: D002749"], "SMILES": "C(CCN(C)C)=C1C=2C(SC=3C1=CC=CC3)=CC=C(Cl)C2", "physical_data": {"Molecular Weight": "315.86", "Molecular Formula": "C18H18ClNS", "Boiling Point": "160 \u00b0C @ Press: 0.04 Torr", "Melting Point": "97-98 \u00b0C"}}