{"cas_no": "113-38-2", "cn_name": "3,17-\u4e8c\u4e19\u9178-17-BETA-\u96cc\u4e8c\u916f", "en_name": ["Estradiol, dipropionate", "Estra-1,3,5(10)-triene-3,17-diol (17\u03b2)-, 3,17-dipropanoate", "Estradiol, dipropionate", "Estra-1,3,5(10)-triene-3,17-diol (17\u03b2)-, dipropanoate", "Agofollin", "Dimenformon dipropionate", "Diovocylin", "17\u03b2-Estradiol dipropionate", "\u03b2-Estradiol dipropionate", "3,17\u03b2-Estradiol dipropionate", "Oestradiol 3,17-dipropionate", "Ovocyclin dipropionate", "Progynon DP", "Nacyclyl", "Diovocyclin", "Diprostron", "Ovocyclin P", "Endofollicolina D. P.", "Estroici", "Estronex", "Follicyclin P", "Estradiol 3,17-dipropionate", "Estradiol propionate", "1,3,5(10)-Estratriene-3,17\u03b2-diol dipropionate", "17\u03b2-Estradiol 3,17-dipropionate", "3,17\u03b2-Dipropionoxyestra-1,3,5(10)-triene", "Ovahormon Depot", "Akrofolline"], "SMILES": "CC12C(C3C(C=4C(CC3)=CC(OC(CC)=O)=CC4)CC1)CCC2OC(CC)=O", "physical_data": {"Molecular Weight": "384.51", "Molecular Formula": "C24H32O4", "Melting Point": "104-105 \u00b0C"}}