{"cas_no": "113-48-4", "cn_name": "\u589e\u6548\u80fa", "en_name": ["Dicarboximide", "4,7-Methano-1H-isoindole-1,3(2H)-dione, 2-(2-ethylhexyl)-3a,4,7,7a-tetrahydro-", "5-Norbornene-2,3-dicarboximide, N-(2-ethylhexyl)-", "2-(2-Ethylhexyl)-3a,4,7,7a-tetrahydro-4,7-methano-1H-isoindole-1,3(2H)-dione", "MGK 264", "N-(2-Ethylhexyl)bicyclo-(2,2,1)-5-heptene-2,3-dicarboximide", "Octacide 264", "Synergist 264", "Van Dyk 264", "N-(2-Ethylhexyl)-5-norbornene-2,3-dicarboximide", "Dicarboximide", "Carboximide", "Octylbicycloheptenedicarboximide", "Synepirin 222", "NSC 36678", "NSC 406879", "ENT 8184", "Zengxiaoan", "2-(2-Ethylhexyl)-3a,4,7,7a-tetrahydro-1H-4,7-methanoisoindole-1,3(2H)-dione", "N-(2-Etylhexyl)bicyclo[2.2.1]hept-5-ene-2,3-dicarboxyimide"], "SMILES": "O=C1C2C(C3CC2C=C3)C(=O)N1CC(CCCC)CC", "physical_data": {"Molecular Weight": "275.39", "Molecular Formula": "C17H25NO2", "Boiling Point": "158.2 \u00b0C @ Press: 2 Torr", "Melting Point": "-20 \u00b0C"}}