{"cas_no": "113-53-1", "cn_name": "\u5ea6\u7409\u5e73", "en_name": ["Dothiepin", "1-Propanamine, 3-dibenzo[b,e]thiepin-11(6H)-ylidene-N,N-dimethyl-", "Dibenzo[b,e]thiepin-\u039411(6H),\u03b3-propylamine, N,N-dimethyl-", "Dibenzo[b,e]thiepin, 1-propanamine deriv.", "3-Dibenzo[b,e]thiepin-11(6H)-ylidene-N,N-dimethyl-1-propanamine", "Dosulepin", "Prothiadene", "Prothiaden", "Dothiepin", "IZ 914", "Dosulepine", "Dothep"], "SMILES": "C(CCN(C)C)=C1C=2C(CSC=3C1=CC=CC3)=CC=CC2", "physical_data": {"Molecular Weight": "295.44", "Molecular Formula": "C19H21NS", "Boiling Point": "171-172 \u00b0C", "Melting Point": "55-57 \u00b0C"}}