{"cas_no": "113-98-4", "cn_name": "\u9752\u9709\u7d20\u94be", "en_name": ["Penicillin G potassium", "4-Thia-1-azabicyclo[3.2.0]heptane-2-carboxylic acid, 3,3-dimethyl-7-oxo-6-[(2-phenylacetyl)amino]- (2S,5R,6R)-, potassium salt (1:1)", "4-Thia-1-azabicyclo[3.2.0]heptane-2-carboxylic acid, 3,3-dimethyl-7-oxo-6-(2-phenylacetamido)-, monopotassium salt", "4-Thia-1-azabicyclo[3.2.0]heptane-2-carboxylic acid, 3,3-dimethyl-7-oxo-6-[(phenylacetyl)amino]-[2S-(2\u03b1,5\u03b1,6\u03b2)]-, monopotassium salt", "Penicillin G, potassium salt", "4-Thia-1-azabicyclo[3.2.0]heptane-2-carboxylic acid, 3,3-dimethyl-7-oxo-6-[(phenylacetyl)amino]- (2S,5R,6R)-, monopotassium salt", "Benzylpenicillinic acid potassium salt", "Benzylpenicillin potassium", "Benzylpenicillin potassium salt", "Eskacillin", "Falapen", "Hipercilina", "Notaral", "Penicillin G potassium", "Pentids", "Potassium benzylpenicillin", "Potassium benzylpenicillinate", "Potassium penicillin G", "Tabilin", "Potassium 2,2-dimethyl-6\u03b2-phenylacetamidopenam-3\u03b1-carboxylate", "Forpen", "Hylenta", "Hyasorb", "Cristapen", "Monopen", "Megacillin tablets", "Scotcil", "Potassium 6-(phenylacetamido)penicillanate", "Novocillin vet.", "Cosmopen", "M-Cillin", "Pentid", "Crytapen", "NSC 131815", "Pfizerpen"], "SMILES": "C(O)(=O)C1N2C(C(NC(CC3=CC=CC=C3)=O)C2=O)SC1(C)C.[K]", "physical_data": {"Molecular Weight": "", "Molecular Formula": "C16H18N2O4S.K", "Melting Point": "214-217 \u00b0C (decomp)"}}