{"cas_no": "113-00-8", "cn_name": "guanidine", "en_name": ["Guanidine", "Guanidine", "Aminoformamidine", "Aminomethanamidine", "Carbamamidine", "Carbamidine", "Iminourea", "Imidourea", "Guanidin", "MeSH ID: D019791"], "SMILES": "C(=N)(N)N", "physical_data": {"Molecular Weight": "59.07", "Molecular Formula": "CH5N3", "Melting Point": "50 \u00b0C"}}