{"cas_no": "113-92-8", "cn_name": "\u9a6c\u6765\u9178\u6c2f\u82ef\u90a3\u654f", "en_name": ["Chlorpheniramine maleate", "2-Pyridinepropanamine, \u03b3-(4-chlorophenyl)-N,N-dimethyl-, (2Z)-2-butenedioate (1:1)", "Pyridine, 2-[p-chloro-\u03b1-[2-(dimethylamino)ethyl]benzyl]-, maleate (1:1)", "2-Pyridinepropanamine, \u03b3-(4-chlorophenyl)-N,N-dimethyl-, (Z)-2-butenedioate (1:1)", "1-p-Chlorophenyl-1-(2-pyridyl)-3-dimethylaminopropane maleate", "Histadur dura-tabs", "Ibioton", "1-Parachlorophenyl-1-(2-pyridyl)-3-dimethylaminopropane maleate", "Piriex", "Synistamin", "Teldrin", "Chlorpheniramine maleate", "Piriton", "Chlor-Trimeton", "Chloroprophenpyridamine maleate", "Chlor-Tripolon", "Chlorprophenpyridamine maleate", "Carbinoxamide maleate", "Neorestamin", "Allergin", "Chlorphenamine maleate", "Puermin", "dl-Chlorpheniramine maleate", "(\u00b1)-Chlorpheniramine maleate", "Chlorophenamine", "Cloropiril", "Allergisan", "Histaspan", "Antagonate", "C-Meton", "Chlorphenamine hydrogen maleate", "Pyridamal 100", "Histadur", "Lorphen", "Pirafene", "Anallerge 4", "Calimal", "Niramine", "Iramine", "Histamil", "Chlorphenamine"], "SMILES": "C(=CC(O)=O)C(O)=O.C(CCN(C)C)(C1=CC=C(Cl)C=C1)C2=CC=CC=N2", "physical_data": {"Molecular Weight": "", "Molecular Formula": "C16H19ClN2.C4H4O4", "Melting Point": "130-135 \u00b0C"}}