{"cas_no": "113-52-0", "cn_name": "\u76d0\u9178\u4e19\u54aa\u55ea", "en_name": ["Imipramine hydrochloride", "5H-Dibenz[b,f]azepine-5-propanamine, 10,11-dihydro-N,N-dimethyl-, hydrochloride (1:1)", "5H-Dibenz[b,f]azepine, 5-[3-(dimethylamino)propyl]-10,11-dihydro-, monohydrochloride", "5H-Dibenz[b,f]azepine-5-propanamine, 10,11-dihydro-N,N-dimethyl-, monohydrochloride", "G 22355", "5-(3-Dimethylaminopropyl)-10,11-dihydro-5H-dibenz[b,f]azepine hydrochloride", "N-(\u03b3-Dimethylaminopropyl)iminodibenzyl hydrochloride", "N-(3-Dimethylaminopropyl)iminodibenzyl hydrochloride", "Imipramine hydrochloride", "Tofranil", "Imizine", "Melipramine hydrochloride", "Imizin", "Imipramine monohydrochloride", "Tofranile", "Teperine", "Feinalmin", "Irmin", "Novo-pramine", "Timolet", "Eupramin", "Censtim", "Censtin", "Surplix", "SK-Pramine", "Imizinum", "Pryleugan", "Intalpram", "Tipramine", "Chrytemin", "Apo-Imipramine", "Praminil", "Imidobenzyle", "Iramil", "Imidol", "DIPD", "Janimine", "Imiprin", "Impril", "Imavate", "Imilanyle", "Efuranol", "Promiben", "Dimipressin", "Deprinol", "Presamine", "Dyna-Zina", "Depsol", "Melipramin"], "SMILES": "C(CCN(C)C)N1C=2C(CCC=3C1=CC=CC3)=CC=CC2.Cl", "physical_data": {"Molecular Weight": "", "Molecular Formula": "C19H24N2.ClH", "Melting Point": "174-175 \u00b0C"}}