{"cas_no": "1130-32-1", "cn_name": "3,3-\u73af\u620a\u70f7\u620a\u4e8c\u9170\u4e9a\u80fa", "en_name": ["3-Azaspiro[5.5]undecane-2,4-dione", "3-Azaspiro[5.5]undecane-2,4-dione", "1,1-Cyclohexanediacetimide", "NSC 400093", "2,4-Dioxo-3-azaspiro[5.5]undecane", "3,3-Cyclopentane glutarimide"], "SMILES": "O=C1CC2(CC(=O)N1)CCCCC2", "physical_data": {"Molecular Weight": "181.23", "Molecular Formula": "C10H15NO2", "Melting Point": "168 \u00b0C"}}