{"cas_no": "113096-99-4", "cn_name": "\u73af\u5511\u9187", "en_name": ["Cyproconazole", "1H-1,2,4-Triazole-1-ethanol, \u03b1-(4-chlorophenyl)-\u03b1-(1-cyclopropylethyl)-", "\u03b1-(4-Chlorophenyl)-\u03b1-(1-cyclopropylethyl)-1H-1,2,4-triazole-1-ethanol", "SAN 619F", "Cyproconazole", "Alto", "SN 108266", "Atemi C", "Atemi", "Alto 100SL", "Alto 100", "Alto 240EC", "Caddy", "Atemi 10 Pepite", "2-(4-Chlorophenyl)-3-cyclopropyl-1-(1H-1,2,4-triazol-1-yl)butan-2-ol"], "SMILES": "C(C(C)C1CC1)(CN2C=NC=N2)(O)C3=CC=C(Cl)C=C3", "physical_data": {"Molecular Weight": "291.78", "Molecular Formula": "C15H18ClN3O", "Boiling Point": "&gt;250 \u00b0C", "Melting Point": "107.5 \u00b0C"}}