{"cas_no": "113028-17-4", "cn_name": "6-\u6c1f-7-\u54cc\u55ea-1-\u7532\u57fa-4-\u6c27\u4ee3-[1,3]\u786b\u6c2e\u6742\u73af[3,2-a]\u55b9\u5549-3-\u7fa7\u9178\u4e59\u916f", "en_name": ["Ethyl 6-fluoro-1-methyl-4-oxo-7-(1-piperazinyl)-1H,4H-[1,3]thiazeto[3,2-a]quinoline-3-carboxylate", "1H,4H-[1,3]Thiazeto[3,2-a]quinoline-3-carboxylic acid, 6-fluoro-1-methyl-4-oxo-7-(1-piperazinyl)-, ethyl ester", "Ethyl 6-fluoro-1-methyl-4-oxo-7-(1-piperazinyl)-1H,4H-[1,3]thiazeto[3,2-a]quinoline-3-carboxylate"], "SMILES": "CC1N2C=3C(C(=O)C(C(OCC)=O)=C2S1)=CC(F)=C(C3)N4CCNCC4", "physical_data": {"Molecular Weight": "377.43", "Molecular Formula": "C18H20FN3O3S", "Melting Point": "224 \u00b0C"}}