{"cas_no": "113036-88-7", "cn_name": "\u6c1f\u87a8\u8132", "en_name": ["Flucycloxuron", "Benzamide, N-[[[4-[[[[(4-chlorophenyl)cyclopropylmethylene]amino]oxy]methyl]phenyl]amino]carbonyl]-2,6-difluoro-", "N-[[[4-[[[[(4-Chlorophenyl)cyclopropylmethylene]amino]oxy]methyl]phenyl]amino]carbonyl]-2,6-difluorobenzamide", "Flucycloxuron", "PH 70-23", "DU 319722", "UBI-A 1335", "OMS 3041", "Andalin", "A 1335", "Andalin DC 25"], "SMILES": "C(=NOCC1=CC=C(NC(NC(=O)C2=C(F)C=CC=C2F)=O)C=C1)(C3CC3)C4=CC=C(Cl)C=C4", "physical_data": {"Molecular Weight": "483.89", "Molecular Formula": "C25H20ClF2N3O3", "Melting Point": "143.6 \u00b0C"}}