{"cas_no": "113046-72-3", "cn_name": "6,7-\u4e8c\u6c1f-1-\u7532\u57fa-4-\u6c27\u4ee3-4H-[1,3]\u567b\u55ea[3,2-a]\u5e76\u55b9\u5549-3-\u7fa7\u9178\u4e59\u916f", "en_name": ["Ethyl 6,7-difluoro-1-methyl-4-oxo-1H,4H-[1,3]thiazeto[3,2-a]quinoline-3-carboxylate", "1H,4H-[1,3]Thiazeto[3,2-a]quinoline-3-carboxylic acid, 6,7-difluoro-1-methyl-4-oxo-, ethyl ester", "Ethyl 6,7-difluoro-1-methyl-4-oxo-1H,4H-[1,3]thiazeto[3,2-a]quinoline-3-carboxylate"], "SMILES": "C(OCC)(=O)C1=C2N(C=3C(C1=O)=CC(F)=C(F)C3)C(C)S2", "physical_data": {"Molecular Weight": "311.30", "Molecular Formula": "C14H11F2NO3S", "Melting Point": "200-202 \u00b0C"}}