{"cas_no": "113030-24-3", "cn_name": "2-\u6c28\u57fa-6-\u6c27\u4ee3-4,5,6,7-\u56db\u6c22\u82ef\u5e76\u567b\u5511", "en_name": ["2-Amino-4,7-dihydro-6(5H)-benzothiazolone", "6(5H)-Benzothiazolone, 2-amino-4,7-dihydro-", "2-Amino-4,7-dihydro-6(5H)-benzothiazolone", "2-Amino-6-oxo-4,5,6,7-tetrahydrobenzothiazole", "2-Amino-4,5-dihydrobenzo[d]thiazol-6(7H)-one", "2-Amino-5,7-dihydro-4H-1,3-benzothiazol-6-one", "2-Amino-4,5,6,7-tetrahydro-1,3-benzothiazol-6-one"], "SMILES": "NC1=NC2=C(S1)CC(=O)CC2", "physical_data": {"Molecular Weight": "168.22", "Molecular Formula": "C7H8N2OS", "Melting Point": "175 \u00b0C"}}