{"cas_no": "113085-62-4", "cn_name": "7ALPHA-\u7532\u6c27\u57fa\u8ff7\u8fed\u9999\u915a", "en_name": ["7-Methoxyrosmanol", "2H-10,4a-(Epoxymethano)phenanthren-12-one, 1,3,4,9,10,10a-hexahydro-5,6-dihydroxy-9-methoxy-1,1-dimethyl-7-(1-methylethyl)-, (4aR,9S,10S,10aS)-", "2H-10,4a-(Epoxymethano)phenanthren-12-one, 1,3,4,9,10,10a-hexahydro-5,6-dihydroxy-9-methoxy-1,1-dimethyl-7-(1-methylethyl)-, [4aR-(4a\u03b1,9\u03b2,10\u03b1,10a\u03b2)]-", "(4aR,9S,10S,10aS)-1,3,4,9,10,10a-Hexahydro-5,6-dihydroxy-9-methoxy-1,1-dimethyl-7-(1-methylethyl)-2H-10,4a-(epoxymethano)phenanthren-12-one", "7-Methoxyrosamanol", "7-o-Methylrosmanol", "7-Methoxyrosmanol", "7\u03b1-Methoxyrosmanol"], "SMILES": "O=C1C23C(C(O1)C(OC)C=4C2=C(O)C(O)=C(C(C)C)C4)C(C)(C)CCC3", "physical_data": {"Molecular Weight": "360.44", "Molecular Formula": "C21H28O5", "Melting Point": "169-171 \u00b0C"}}