{"cas_no": "113081-50-8", "cn_name": "2-(3-\u7532\u6c27\u57fa-4-\u6eb4\u82ef\u57fa)\u4e59\u8148", "en_name": ["4-Bromo-3-methoxybenzeneacetonitrile", "Benzeneacetonitrile, 4-bromo-3-methoxy-", "4-Bromo-3-methoxybenzeneacetonitrile", "4-Bromo-3-methoxyphenylacetonitrile", "2-(4-Bromo-3-methoxyphenyl)acetonitrile"], "SMILES": "O(C)C1=CC(CC#N)=CC=C1Br", "physical_data": {"Molecular Weight": "226.07", "Molecular Formula": "C9H8BrNO", "Melting Point": "52-53 \u00b0C"}}