{"cas_no": "1131-40-4", "cn_name": "1-\u6eb4-2,4,6-\u4e09\u7532\u6c27\u57fa\u82ef", "en_name": ["2-Bromo-1,3,5-trimethoxybenzene", "Benzene, 2-bromo-1,3,5-trimethoxy-", "2-Bromo-1,3,5-trimethoxybenzene", "Bromophloroglucinol trimethyl ether", "1-Bromo-2,4,6-trimethoxybenzene", "NSC 151970", "4-Bromo-1,3,5-trimethoxybenzene", "2,4,6-Trimethoxy-1-bromobenzene"], "SMILES": "O(C)C1=C(Br)C(OC)=CC(OC)=C1", "physical_data": {"Molecular Weight": "247.09", "Molecular Formula": "C9H11BrO3", "Melting Point": "97-99 \u00b0C"}}