{"cas_no": "113136-77-9", "cn_name": "\u73af\u4e19\u9178\u9170\u80fa", "en_name": ["Cyclanilide", "Cyclopropanecarboxylic acid, 1-[[(2,4-dichlorophenyl)amino]carbonyl]-", "1-[[(2,4-Dichlorophenyl)amino]carbonyl]cyclopropanecarboxylic acid", "Cyclanilide", "RPA 90946", "1-[(2,4-Dichlorophenyl)carbamoyl]cyclopropane-1-carboxylic acid", "1-((2,4-Dichlorophenyl)carbamoyl)cyclopropanecarboxylicacid"], "SMILES": "C(NC1=C(Cl)C=C(Cl)C=C1)(=O)C2(C(O)=O)CC2", "physical_data": {"Molecular Weight": "274.10", "Molecular Formula": "C11H9Cl2NO3", "Melting Point": "195.5 \u00b0C", "Density": "1.4691-1.4820 g/cm\u00b3 @ Temp: 20 \u00b0C"}}