{"cas_no": "1131-01-7", "cn_name": "2,6-\u4e8c\u7532\u57fa\u6c2f\u4ee3\u4e59\u9170\u82ef\u80fa", "en_name": ["2-Chloro-N-(2,6-dimethylphenyl)acetamide", "Acetamide, 2-chloro-N-(2,6-dimethylphenyl)-", "2\u2032,6\u2032-Acetoxylidide, 2-chloro-", "2-Chloro-N-(2,6-dimethylphenyl)acetamide", "2-Chloro-2\u2032,6\u2032-dimethylacetanilide", "Chloroacetamido-2,6-xylidine", "Chloroaceto-2,6-xylidide", "2-Chloroaceto-2,6-xylidide", "2-Chloro-2\u2032,6\u2032-acetoxylidide", "N-Chloroacetyl-2,6-dimethylaniline", "1-Chloroacetylamino-2,6-dimethylbenzene", "2\u2032,6\u2032-Dimethyl-2-chloroacetanilide", "N-(2,6-Xylyl)chloroacetamide", "N-(2,6-Dimethylphenyl)-2-chloroacetamide", "N-(2,6-Dimethylphenyl)chloroacetamide", "NSC 37260", "N-(2,6-Dimethylphenyl)-2-chloroethanamide"], "SMILES": "N(C(CCl)=O)C1=C(C)C=CC=C1C", "physical_data": {"Molecular Weight": "197.66", "Molecular Formula": "C10H12ClNO", "Melting Point": "145-146 \u00b0C"}}