{"cas_no": "113118-82-4", "cn_name": "5-\u6c2f\u5421\u5576-3-\u7532\u919b", "en_name": ["5-Chloro-3-pyridinecarboxaldehyde", "3-Pyridinecarboxaldehyde, 5-chloro-", "5-Chloro-3-pyridinecarboxaldehyde", "5-Chloro-3-pyridinecarbaldehyde", "3-Chloro-5-formylpyridine", "5-Chloronicotinaldehyde"], "SMILES": "C(=O)C=1C=C(Cl)C=NC1", "physical_data": {"Molecular Weight": "141.56", "Molecular Formula": "C6H4ClNO", "Melting Point": "69-70 \u00b0C"}}