{"cas_no": "113100-53-1", "cn_name": "1-\u7532\u57fa-3-\u4e09\u6c1f\u7532\u57fa-1H-\u5421\u5511-4-\u7fa7\u9178", "en_name": ["1-Methyl-3-(trifluoromethyl)-1H-pyrazole-4-carboxylic acid", "1H-Pyrazole-4-carboxylic acid, 1-methyl-3-(trifluoromethyl)-", "1-Methyl-3-(trifluoromethyl)-1H-pyrazole-4-carboxylic acid", "1-Methyl-3-(trifluoromethyl)pyrazole-4-carboxylic acid", "3-(Trifluoromethyl)-1-methyl-1H-pyrazole-4-carboxylic acid"], "SMILES": "C(O)(=O)C=1C(C(F)(F)F)=NN(C)C1", "physical_data": {"Molecular Weight": "194.11", "Molecular Formula": "C6H5F3N2O2", "Melting Point": "200-201 \u00b0C"}}