{"cas_no": "1131-17-5", "cn_name": "5-\u6c2f-3-\u7532\u57fa-1-\u82ef\u57fa\u5421\u5511", "en_name": ["5-Chloro-3-methyl-1-phenyl-1H-pyrazole", "1H-Pyrazole, 5-chloro-3-methyl-1-phenyl-", "Pyrazole, 5-chloro-3-methyl-1-phenyl-", "5-Chloro-3-methyl-1-phenyl-1H-pyrazole", "5-Chloro-3-methyl-1-phenylpyrazole"], "SMILES": "ClC=1N(N=C(C)C1)C2=CC=CC=C2", "physical_data": {"Molecular Weight": "192.64", "Molecular Formula": "C10H9ClN2", "Boiling Point": "81 \u00b0C @ Press: 0.04 Torr", "Density": "1.1901 g/cm\u00b3 @ Temp: 20 \u00b0C"}}