{"cas_no": "1131-61-9", "cn_name": "4-\u82ef\u57fa\u5421\u5576-N-\u6c27\u5316\u7269", "en_name": ["Pyridine, 4-phenyl-, 1-oxide", "Pyridine, 4-phenyl-, 1-oxide", "4-Phenylpyridine 1-oxide", "4-Phenylpyridine N-oxide", "4-Phenylpyridine oxide", "p-Phenylpyridine N-oxide", "NSC 187559", "1-Oxido-4-phenylpyridin-1-ium"], "SMILES": "O=N=1C=CC(=CC1)C2=CC=CC=C2", "physical_data": {"Molecular Weight": "171.20", "Molecular Formula": "C11H9NO", "Melting Point": "151-152 \u00b0C"}}