{"cas_no": "1131-63-1", "cn_name": "5,6,7,8-\u56db\u7f9f\u57fa-2-\u8418\u7532\u9178", "en_name": ["5,6,7,8-Tetrahydro-2-naphthoic acid", "2-Naphthalenecarboxylic acid, 5,6,7,8-tetrahydro-", "2-Naphthoic acid, 5,6,7,8-tetrahydro-", "5,6,7,8-Tetrahydro-2-naphthalenecarboxylic acid", "5,6,7,8-Tetrahydro-2-naphthoic acid", "1,2,3,4-Tetrahydronaphthalene-6-carboxylic acid", "NSC 131342"], "SMILES": "C(O)(=O)C=1C=C2C(=CC1)CCCC2", "physical_data": {"Molecular Weight": "176.21", "Molecular Formula": "C11H12O2", "Melting Point": "155.5 \u00b0C"}}