{"cas_no": "1131-09-5", "cn_name": "\u82ef\u5e76[B]\u567b\u5429-3-\u4e59\u9178", "en_name": ["Benzo[b]thiophene-3-acetic acid", "Benzo[b]thiophene-3-acetic acid", "3-Benzo[b]thiopheneacetic acid", "3-Benzo[b]thienylacetic acid", "2-(Benzo[b]thiophen-3-yl)acetic acid", "Benzo[b]thiophen-3-ylacetic acid", "NSC 18875", "NSC 93635", "1-Benzothiophene-3-acetic acid", "3-Benzothiopheneacetic acid", "(Benzothien-3-yl)acetic acid", "2-(1-Benzothiophen-3-yl)acetic acid"], "SMILES": "C(C(O)=O)C=1C=2C(SC1)=CC=CC2", "physical_data": {"Molecular Weight": "192.23", "Molecular Formula": "C10H8O2S", "Melting Point": "109 \u00b0C"}}