{"cas_no": "1131604-99-3", "cn_name": "5-\u6eb4-4-\u6c2f\u5421\u5576-2,3-\u4e8c\u80fa", "en_name": ["5-Bromo-4-chloro-2,3-pyridinediamine", "2,3-Pyridinediamine, 5-bromo-4-chloro-", "5-Bromo-4-chloro-2,3-pyridinediamine"], "SMILES": "ClC=1C(N)=C(N)N=CC1Br", "physical_data": {"Molecular Weight": "222.47", "Molecular Formula": "C5H5BrClN3", "Melting Point": "164 \u00b0C"}}