{"cas_no": "1131-62-0", "cn_name": "3,4-\u4e8c\u7532\u6c27\u57fa\u82ef\u4e59\u916e", "en_name": ["3,4-Dimethoxyacetophenone", "Ethanone, 1-(3,4-dimethoxyphenyl)-", "Acetophenone, 3\u2032,4\u2032-dimethoxy-", "1-(3,4-Dimethoxyphenyl)ethanone", "Acetoveratrone", "3\u2032,4\u2032-Dimethoxyacetophenone", "3,4-Dimethoxyacetophenone", "3,4-Dimethoxyphenyl methyl ketone", "Methyl 3,4-dimethoxyphenyl ketone", "4-Acetylveratrole", "NSC 16944", "NSC 18708", "1-(4,5-Dimethoxyphenyl)ethanone", "4-Acetyl-1,2-dimethoxybenzene", "1-(3,4-Dimethoxyphenyl)ethan-1-one"], "SMILES": "O(C)C1=C(OC)C=CC(C(C)=O)=C1", "physical_data": {"Molecular Weight": "180.20", "Molecular Formula": "C10H12O3", "Boiling Point": "287 \u00b0C", "Melting Point": "51 \u00b0C"}}