{"cas_no": "1131-60-8", "cn_name": "4-\u73af\u5df1\u57fa\u82ef\u915a", "en_name": ["4-Cyclohexylphenol", "Phenol, 4-cyclohexyl-", "Phenol, p-cyclohexyl-", "4-Cyclohexylphenol", "p-Cyclohexylphenol", "p-Hydroxyphenylcyclohexane", "NSC 5245"], "SMILES": "OC1=CC=C(C=C1)C2CCCCC2", "physical_data": {"Molecular Weight": "176.25", "Molecular Formula": "C12H16O", "Boiling Point": "294 \u00b0C", "Melting Point": "133 \u00b0C"}}