{"cas_no": "1131-16-4", "cn_name": "3,5-\u4e8c\u7532\u57fa-1-\u82ef\u57fa\u5421\u5511", "en_name": ["3,5-Dimethyl-1-phenylpyrazole", "1H-Pyrazole, 3,5-dimethyl-1-phenyl-", "Pyrazole, 3,5-dimethyl-1-phenyl-", "3,5-Dimethyl-1-phenyl-1H-pyrazole", "3,5-Dimethyl-1-phenylpyrazole", "1-Phenyl-3,5-dimethylpyrazole", "3,5-Dimethyl-N-phenylpyrazole", "1-Phenyl-3,5-dimethyl-1H-pyrazole"], "SMILES": "CC=1N(N=C(C)C1)C2=CC=CC=C2", "physical_data": {"Molecular Weight": "172.23", "Molecular Formula": "C11H12N2", "Boiling Point": "273 \u00b0C", "Melting Point": "92 \u00b0C"}}