{"cas_no": "1131-18-6", "cn_name": "5-\u6c28\u57fa-3-\u7532\u57fa-1-\u82ef\u57fa\u5421\u5511", "en_name": ["5-Amino-3-methyl-1-phenylpyrazole", "1H-Pyrazol-5-amine, 3-methyl-1-phenyl-", "Pyrazole, 5-amino-3-methyl-1-phenyl-", "3-Methyl-1-phenyl-1H-pyrazol-5-amine", "5-Amino-3-methyl-1-phenylpyrazole", "1-Phenyl-3-methyl-5-aminopyrazole", "3-Methyl-1-phenyl-5-pyrazolamine", "5-Methyl-2-phenyl-2H-pyrazol-3-ylamine", "3-Amino-5-methyl-2-phenyl-2H-pyrazole", "3-Methyl-1-phenylpyrazol-5-amine", "5-Amino-1-phenyl-3-methylpyrazole", "5-Amino-3-methyl-1-phenyl-1H-pyrazole", "1-Phenyl-3-methyl-1H-pyrazol-5-amine", "3-Methyl-1-phenyl-1H-pyrazole-5-amine"], "SMILES": "NC=1N(N=C(C)C1)C2=CC=CC=C2", "physical_data": {"Molecular Weight": "173.21", "Molecular Formula": "C10H11N3", "Boiling Point": "333 \u00b0C", "Melting Point": "116 \u00b0C"}}