{"cas_no": "113158-40-0", "cn_name": "\u7cbe\u6076\u5511\u79be\u8349\u7075", "en_name": ["Fenoxaprop P", "Propanoic acid, 2-[4-[(6-chloro-2-benzoxazolyl)oxy]phenoxy]-, (2R)-", "Propanoic acid, 2-[4-[(6-chloro-2-benzoxazolyl)oxy]phenoxy]-, (R)-", "(2R)-2-[4-[(6-Chloro-2-benzoxazolyl)oxy]phenoxy]propanoic acid", "Fenoxaprop P", "HOE 088406", "(R)-Fenoxaprop", "(R)-Fenoxaprop acid", "(R)-2-(4-(6-Chloro-2-benzoxazolyloxy)phenoxy)propionic acid"], "SMILES": "O(C1=NC=2C(O1)=CC(Cl)=CC2)C3=CC=C(OC(C(O)=O)C)C=C3", "physical_data": {"Molecular Weight": "333.72", "Molecular Formula": "C16H12ClNO5", "Melting Point": "158 \u00b0C"}}