{"cas_no": "1131-94-8", "cn_name": "3-\u7f9f\u57fa-4-\u7532\u6c27\u57fa\u82ef\u4e59\u9178", "en_name": ["3-Hydroxy-4-methoxybenzeneacetic acid", "Benzeneacetic acid, 3-hydroxy-4-methoxy-", "Acetic acid, (3-hydroxy-4-methoxyphenyl)-", "3-Hydroxy-4-methoxybenzeneacetic acid", "Homoisovanillic acid", "Isohomovanillic acid", "3-Hydroxy-4-methoxyphenylacetic acid", "4-Methoxy-3-hydroxyphenylacetic acid", "4-Methoxy-m-hydroxybenzenacetic acid", "2-(3-Hydroxy-4-methoxyphenyl)acetic acid"], "SMILES": "O(C)C1=C(O)C=C(CC(O)=O)C=C1", "physical_data": {"Molecular Weight": "182.17", "Molecular Formula": "C9H10O4", "Melting Point": "122.5-124.5 \u00b0C"}}