{"cas_no": "1132-39-4", "cn_name": "\u4e8c\u82ef\u57fa\u9521\u919a", "en_name": ["1,1\u2032-Selenobis[benzene]", "Benzene, 1,1\u2032-selenobis-", "Phenyl selenide", "1,1\u2032-Selenobis[benzene]", "Diphenyl selenide", "Diphenylselenium", "NSC 49758", "Diphenylselane"], "SMILES": "[Se](C1=CC=CC=C1)C2=CC=CC=C2", "physical_data": {"Molecular Weight": "233.17", "Molecular Formula": "C12H10Se", "Boiling Point": "301.5 \u00b0C", "Melting Point": "2.5 \u00b0C", "Density": "1.3515 g/cm\u00b3 @ Temp: 20 \u00b0C"}}