{"cas_no": "1132-68-9", "cn_name": "L-4-\u6c1f\u82ef\u4e19\u6c28\u9178", "en_name": ["4-Fluoro-L-phenylalanine", "L-Phenylalanine, 4-fluoro-", "Alanine, 3-(p-fluorophenyl)-, L-", "4-Fluoro-L-phenylalanine", "p-Fluoro-L-phenylalanine", "L-(p-Fluorophenyl)alanine", "S-(-)-p-Fluorophenylalanine", "L-4-Fluorophenylalanine", "(S)-2-Amino-3-(4-fluorophenyl)propionic acid", "(S)-4-Fluorophenylalanine", "(2S)-Amino-3-(4-fluorophenyl)propionic acid", "(S)-2-Amino-3-(4-fluorophenyl)propanoic acid", "(2S)-2-Amino-3-(4-fluorophenyl)propanoic acid", "(2S)-2-Azaniumyl-3-(4-fluorophenyl)propanoate"], "SMILES": "C(C(C(O)=O)N)C1=CC=C(F)C=C1", "physical_data": {"Molecular Weight": "183.18", "Molecular Formula": "C9H10FNO2", "Melting Point": "252-255 \u00b0C"}}