{"cas_no": "1132935-63-7", "cn_name": "\u8fbe\u585e\u5e03\u97e6", "en_name": ["Dasabuvir", "Methanesulfonamide, N-[6-[5-(3,4-dihydro-2,4-dioxo-1(2H)-pyrimidinyl)-3-(1,1-dimethylethyl)-2-methoxyphenyl]-2-naphthalenyl]-", "N-[6-[5-(3,4-Dihydro-2,4-dioxo-1(2H)-pyrimidinyl)-3-(1,1-dimethylethyl)-2-methoxyphenyl]-2-naphthalenyl]methanesulfonamide", "N-[6-[3-tert-Butyl-5-(2,4-dioxo-3,4-dihydropyrimidin-1(2H)-yl)-2-methoxyphenyl]naphthalen-2-yl]methanesulfonamide", "Dasabuvir", "ABT 333"], "SMILES": "O(C)C1=C(C=C(C=C1C(C)(C)C)N2C(=O)NC(=O)C=C2)C3=CC4=C(C=C3)C=C(NS(C)(=O)=O)C=C4", "physical_data": {"Molecular Weight": "493.57", "Molecular Formula": "C26H27N3O5S", "Melting Point": "219-223 \u00b0C"}}