{"cas_no": "113276-94-1", "cn_name": "H-8 \u4e8c\u6c22\u6c2f\u5316\u7269", "en_name": ["H 8 dihydrochloride", "5-Isoquinolinesulfonamide, N-[2-(methylamino)ethyl]-, hydrochloride (1:2)", "5-Isoquinolinesulfonamide, N-[2-(methylamino)ethyl]-, dihydrochloride", "H 8", "H 8 dihydrochloride", "N-[2-(Methylamino)ethyl]isoquinoline-5-sulfonamide dihydrochloride"], "SMILES": "S(NCCNC)(=O)(=O)C=1C2=C(C=CC1)C=NC=C2.Cl", "physical_data": {"Molecular Weight": "", "Molecular Formula": "C12H15N3O2S.2ClH", "Melting Point": "221-222 \u00b0C"}}