{"cas_no": "1132-95-2", "cn_name": "1,1-\u4e8c\u5f02\u4e19\u9187\u7f29\u73af\u5df1\u916e", "en_name": ["1,1-Bis(1-methylethoxy)cyclohexane", "Cyclohexane, 1,1-bis(1-methylethoxy)-", "Cyclohexanone, diisopropyl acetal", "1,1-Bis(1-methylethoxy)cyclohexane", "1,1-Diisopropoxycyclohexane", "Cyclohexanone diisopropyl ketal", "1,1-Di(propan-2-yloxy)cyclohexane"], "SMILES": "O(C(C)C)C1(OC(C)C)CCCCC1", "physical_data": {"Molecular Weight": "200.32", "Molecular Formula": "C12H24O2", "Boiling Point": "85 \u00b0C @ Press: 8 Torr", "Density": "0.9047 g/cm\u00b3 @ Temp: 24 \u00b0C"}}