{"cas_no": "113231-05-3", "cn_name": "N,N-\u53cc(\u7fa7\u7532\u57fa)-L-\u8d56\u6c28\u9178", "en_name": ["N-(5-Amino-1-carboxypentyl)iminodiacetic acid", "L-Lysine, N2,N2-bis(carboxymethyl)-", "N2,N2-Bis(carboxymethyl)-L-lysine", "Lysine-N,N-diacetic acid", "N-(5-Amino-1-carboxypentyl)iminodiacetic acid", "53: PN: WO2004025259 PAGE: 47 claimed protein", "4: PN: WO2004072260 PAGE: 12 claimed protein", "1: PN: US20050123932 PAGE: 1 claimed protein", "AB-NTA", "13: PN: US20080160089 PAGE: 30 claimed protein", "(S)-2,2\u2032-((5-Amino-1-carboxypentyl)azanediyl)diacetic acid"], "SMILES": "N(C(CCCCN)C(O)=O)(CC(O)=O)CC(O)=O", "physical_data": {"Molecular Weight": "262.26", "Molecular Formula": "C10H18N2O6", "Melting Point": "202-204 \u00b0C (decomp)"}}