{"cas_no": "1132-61-2", "cn_name": "3-\u5417\u5549\u4e19\u78fa\u9178", "en_name": ["MOPS", "4-Morpholinepropanesulfonic acid", "MOPS", "Morpholinopropanesulfonic acid", "3-Morpholinopropanesulfonic acid", "3-(N-Morpholino)propanesulfonic acid", "WAS 15", "3-(4-Morpholino)propanesulfonic acid", "3-Morpholin-4-ium-4-ylpropane-1-sulfonate", "3-Morpholin-4-yl-propane-1-sulfonic acid"], "SMILES": "C(CCS(=O)(=O)O)N1CCOCC1", "physical_data": {"Molecular Weight": "209.26", "Molecular Formula": "C7H15NO4S", "Melting Point": "284 \u00b0C"}}