{"cas_no": "1132-21-4", "cn_name": "3,5-\u4e8c\u7532\u6c27\u57fa\u82ef\u7532\u9178", "en_name": ["3,5-Dimethoxybenzoic acid", "Benzoic acid, 3,5-dimethoxy-", "3,5-Dimethoxybenzoic acid", "NSC 43744", "NSC 8514"], "SMILES": "C(O)(=O)C1=CC(OC)=CC(OC)=C1", "physical_data": {"Molecular Weight": "182.17", "Molecular Formula": "C9H10O4", "Melting Point": "185.5 \u00b0C"}}