{"cas_no": "1132-26-9", "cn_name": "alpha-\u7532\u57fa-DL-\u82ef\u4e19\u6c28\u9178", "en_name": ["DL-\u03b1-Methylphenylalanine", "Phenylalanine, \u03b1-methyl-", "Alanine, 2-methyl-3-phenyl-, DL-", "DL-Phenylalanine, \u03b1-methyl-", "\u03b1-Methylphenylalanine", "DL-\u03b1-Methylphenylalanine", "\u03b1-Methyl-DL-phenylalanine", "2-Methyl-3-phenylalanine", "NSC 11202", "2-Amino-2-methyl-3-phenylpropanoic acid", "2-Amino-2-methyl-3-phenylpropionic acid"], "SMILES": "C(C(C(O)=O)(C)N)C1=CC=CC=C1", "physical_data": {"Molecular Weight": "179.22", "Molecular Formula": "C10H13NO2", "Melting Point": "293-294 \u00b0C"}}