{"cas_no": "1133-96-6", "cn_name": "3-(2,4-\u4e8c\u7532\u57fa-5-\u919b\u57fa-1H-\u5421\u54af)-3-\u4e19\u9178", "en_name": ["5-Formyl-2,4-dimethyl-1H-pyrrole-3-propanoic acid", "1H-Pyrrole-3-propanoic acid, 5-formyl-2,4-dimethyl-", "Pyrrole-3-propionic acid, 5-formyl-2,4-dimethyl-", "5-Formyl-2,4-dimethyl-1H-pyrrole-3-propanoic acid", "3-(5-Formyl-2,4-dimethyl-1H-pyrrol-3-yl)propionic acid", "3-(5-Formyl-2,4-dimethyl-1H-pyrrol-3-yl)propanoic acid"], "SMILES": "C(CC(O)=O)C=1C(C)=C(C=O)NC1C", "physical_data": {"Molecular Weight": "195.22", "Molecular Formula": "C10H13NO3", "Melting Point": "150-151 \u00b0C"}}