{"cas_no": "1133-80-8", "cn_name": "2-\u6eb4\u82b4", "en_name": ["2-Bromofluorene", "9H-Fluorene, 2-bromo-", "Fluorene, 2-bromo-", "2-Bromo-9H-fluorene", "2-Bromofluorene", "NSC 1463"], "SMILES": "BrC=1C=C2C(C=3C(C2)=CC=CC3)=CC1", "physical_data": {"Molecular Weight": "245.11", "Molecular Formula": "C13H9Br", "Boiling Point": "185 \u00b0C", "Melting Point": "113.5 \u00b0C"}}