{"cas_no": "1134-50-5", "cn_name": "1-\u82ef\u57fa-1H-\u5421\u5511-4-\u7532\u9178", "en_name": ["1-Phenyl-1H-pyrazole-4-carboxylic acid", "1H-Pyrazole-4-carboxylic acid, 1-phenyl-", "Pyrazole-4-carboxylic acid, 1-phenyl-", "1-Phenyl-1H-pyrazole-4-carboxylic acid", "1-Phenylpyrazole-4-carboxylic acid", "4-Carboxy-1-phenylpyrazole"], "SMILES": "C(O)(=O)C1=CN(N=C1)C2=CC=CC=C2", "physical_data": {"Molecular Weight": "188.18", "Molecular Formula": "C10H8N2O2", "Melting Point": "220-221 \u00b0C"}}