{"cas_no": "1134-35-6", "cn_name": "4,4'-\u4e8c\u7532\u57fa-2,2'-\u8054\u5421\u5576", "en_name": ["4,4\u2032-Dimethyl-2,2\u2032-bipyridine", "2,2\u2032-Bipyridine, 4,4\u2032-dimethyl-", "2,2\u2032-Bi-4-picoline", "4,4\u2032-Dimethyl-2,2\u2032-bipyridine", "4,4\u2032-Dimethyl-2,2\u2032-bipyridyl", "4,4\u2032-Dimethyl-2,2\u2032-dipyridyl", "NSC 3261", "4,4\u2032-Dimethyl-2,2\u2032-bipyridinyl", "4-Methyl-2-(4-methylpyridin-2-yl)pyridine", "4,4\u2032-Dimethyl-2,2\u2032-dipyridine"], "SMILES": "CC=1C=C(N=CC1)C2=CC(C)=CC=N2", "physical_data": {"Molecular Weight": "184.24", "Molecular Formula": "C12H12N2", "Melting Point": "171-172 \u00b0C"}}