{"cas_no": "1134-94-7", "cn_name": "2-\u6c28\u57fa\u4e8c\u82ef\u786b\u919a", "en_name": ["2-(Phenylthio)aniline", "Benzenamine, 2-(phenylthio)-", "Aniline, o-(phenylthio)-", "2-(Phenylthio)benzenamine", "2-Aminophenyl phenyl sulfide", "o-(Phenylthio)aniline", "2-Aminodiphenyl sulfide", "2-Aminophenyl phenyl thioether", "2-(Phenylsulfanyl)phenylamine", "2-(Phenylthio)aniline", "2-Phenylsulfanylaniline"], "SMILES": "S(C1=C(N)C=CC=C1)C2=CC=CC=C2", "physical_data": {"Molecular Weight": "201.29", "Molecular Formula": "C12H11NS", "Melting Point": "31-32 \u00b0C"}}