{"cas_no": "113400-36-5", "cn_name": "N-\u53d4\u4e01\u6c27\u7fb0\u57fa-L-\u7126\u8c37\u6c28\u9178\u82c4\u916f", "en_name": ["1-(1,1-Dimethylethyl) 2-(phenylmethyl) (2S)-5-oxo-1,2-pyrrolidinedicarboxylate", "1,2-Pyrrolidinedicarboxylic acid, 5-oxo-, 1-(1,1-dimethylethyl) 2-(phenylmethyl) ester, (2S)-", "1,2-Pyrrolidinedicarboxylic acid, 5-oxo-, 1-(1,1-dimethylethyl) 2-(phenylmethyl) ester, (S)-", "1-(1,1-Dimethylethyl) 2-(phenylmethyl) (2S)-5-oxo-1,2-pyrrolidinedicarboxylate", "2-Benzyl 1-tert-butyl (2S)-5-oxopyrrolidine-1,2-dicarboxylate", "Benzyl N-Boc-pyroglutamate", "N-tert-Butoxycarbonylpyroglutamic acid benzyl ester", "(S)-2-Benzyl 1-tert-butyl 5-oxopyrrolidine-1,2-dicarboxylate", "2-Benzyl 1-(tert-butyl) (S)-5-oxopyrrolidine-1,2-dicarboxylate", "2-Benzyl 1-tert-butyl (2S)-5-oxopyrrolidine-1,2-dicarboxylate"], "SMILES": "C(OCC1=CC=CC=C1)(=O)C2N(C(OC(C)(C)C)=O)C(=O)CC2", "physical_data": {"Molecular Weight": "319.35", "Molecular Formula": "C17H21NO5", "Melting Point": "69-70 \u00b0C"}}