{"cas_no": "1134-04-9", "cn_name": "2,3,4,5-\u56db\u6c2f-6-(\u4e09\u6c2f\u7532\u57fa)\u5421\u5576", "en_name": ["2,3,4,5-Tetrachloro-6-(trichloromethyl)pyridine", "Pyridine, 2,3,4,5-tetrachloro-6-(trichloromethyl)-", "2,3,4,5-Tetrachloro-6-(trichloromethyl)pyridine", "3,4,5,6-Tetrachloro-2-(trichloromethyl)pyridine", "Tetrachloro-2-(trichloromethyl)pyridine", "2-(Trichloromethyl)tetrachloropyridine", "Heptachloro-2-picoline", "Perchloro-2-picoline"], "SMILES": "C(Cl)(Cl)(Cl)C1=C(Cl)C(Cl)=C(Cl)C(Cl)=N1", "physical_data": {"Molecular Weight": "334.24", "Molecular Formula": "C6Cl7N", "Melting Point": "58-60 \u00b0C"}}