{"cas_no": "1134-47-0", "cn_name": "\u5df4\u6c2f\u82ac", "en_name": ["Baclofen", "Benzenepropanoic acid, \u03b2-(aminomethyl)-4-chloro-", "Hydrocinnamic acid, \u03b2-(aminomethyl)-p-chloro-", "\u03b2-(Aminomethyl)-4-chlorobenzenepropanoic acid", "\u03b2-(Aminomethyl)-p-chlorohydrocinnamic acid", "\u03b2-(4-Chlorophenyl)-\u03b3-aminobutyric acid", "Baclofen", "Lioresal", "Ba 34647", "\u03b2-(p-Chlorophenyl)-\u03b3-aminobutyric acid", "\u03b2-p-Chlorophenyl-GABA", "CIBA Ba 34647", "4-Amino-3-(4-chlorophenyl)butyric acid", "C 34647Ba", "4-Amino-3-(p-chlorophenyl)butyric acid", "DL-4-Amino-3-p-chlorophenylbutanoic acid", "dl-Baclofen", "(\u00b1)-Baclofen", "DL-Baclofen", "Baclon", "4-Amino-3-(4-chlorophenyl)butanoic acid", "(\u00b1)-4-Amino-3-(4-chlorophenyl)butanoic acid", "Lyvispah", "MeSH ID: D001418"], "SMILES": "C(CC(O)=O)(CN)C1=CC=C(Cl)C=C1", "physical_data": {"Molecular Weight": "213.66", "Molecular Formula": "C10H12ClNO2", "Melting Point": "206-208 \u00b0C"}}