{"cas_no": "1134-36-7", "cn_name": "3-\u6c28\u57fa-4-\u7f9f\u57fa\u8054\u82ef", "en_name": ["2-Amino-4-phenylphenol", "[1,1\u2032-Biphenyl]-4-ol, 3-amino-", "4-Biphenylol, 3-amino-", "Phenol, 2-amino-4-phenyl-", "3-Amino[1,1\u2032-biphenyl]-4-ol", "3-Amino-4-hydroxybiphenyl", "2-Amino-4-phenylphenol", "2-Hydroxy-5-phenylaniline", "4-Phenyl-2-aminophenol", "NSC 7950", "3-Amino-4-biphenylol"], "SMILES": "NC=1C=C(C=CC1O)C2=CC=CC=C2", "physical_data": {"Molecular Weight": "185.22", "Molecular Formula": "C12H11NO", "Melting Point": "208 \u00b0C"}}