{"cas_no": "113486-29-6", "cn_name": "3-\u7532\u57fa-2,4-\u58ec\u70f7\u4e8c\u916e", "en_name": ["3-Methyl-2,4-nonanedione", "2,4-Nonanedione, 3-methyl-", "3-Methyl-2,4-nonanedione", "3-Methylnonan-2,4-dione"], "SMILES": "C(C(C(C)=O)C)(CCCCC)=O", "physical_data": {"Molecular Weight": "170.25", "Molecular Formula": "C10H18O2", "Melting Point": "126-126.5 \u00b0C"}}