{"cas_no": "1134-23-2", "cn_name": "\u8349\u706d\u7279", "en_name": ["Ro-Neet 6E", "Carbamothioic acid, N-cyclohexyl-N-ethyl-, S-ethyl ester", "Cyclohexanecarbamic acid, N-ethylthio-, S-ethyl ester", "Carbamothioic acid, cyclohexylethyl-, S-ethyl ester", "R 2063", "Cycloate", "Ro-Neet", "S-Ethyl cyclohexylethylthiocarbamate", "S-Ethyl N-cyclohexyl-N-ethylthiolcarbamate", "S-Ethyl-N-ethyl-N-cyclohexylthiolcarbamate", "Ronit", "Ethyl N-cyclohexyl-N-ethylthiolcarbamate", "Eurex", "Hexylthiocarbam", "Etsan", "S-Ethyl N-cyclohexyl-N-ethylthiocarbamate", "Sabet", "Ro-Neet 6E", "Buranit", "Roneet 72LE"], "SMILES": "N(C(SCC)=O)(CC)C1CCCCC1", "physical_data": {"Molecular Weight": "215.36", "Molecular Formula": "C11H21NOS", "Boiling Point": "145 \u00b0C @ Press: 10 Torr", "Melting Point": "11.5 \u00b0C", "Density": "1.016 g/cm\u00b3 @ Temp: 30 \u00b0C"}}