{"cas_no": "1135-14-4", "cn_name": "4-\u82ef\u57fa\u786b\u4ee3\u82ef\u80fa", "en_name": ["4-(Phenylthio)benzenamine", "Benzenamine, 4-(phenylthio)-", "Aniline, p-(phenylthio)-", "4-(Phenylthio)benzenamine", "p-Aminophenyl phenyl sulfide", "4-(Phenylthio)aniline", "p-(Phenylthio)aniline", "4-(Phenylthio)phenylamine", "4-Aminodiphenyl sulfide", "NSC 51015", "4-(Phenylsulfanyl)phenylamine", "4-Aminophenyl phenyl sulfide"], "SMILES": "S(C1=CC=C(N)C=C1)C2=CC=CC=C2", "physical_data": {"Molecular Weight": "201.29", "Molecular Formula": "C12H11NS", "Melting Point": "94 \u00b0C"}}