{"cas_no": "1135-32-6", "cn_name": "1,2-\u53cc\u5421\u5576\u57fa\u4e59\u70ef", "en_name": ["1,2-Bis(4-pyridyl)ethylene", "Pyridine, 4,4\u2032-(1,2-ethenediyl)bis-", "Pyridine, 4,4\u2032-vinylenedi-", "4,4\u2032-(1,2-Ethenediyl)bis[pyridine]", "1,2-Bis(4-pyridyl)ethylene", "4,4\u2032-Vinylenedipyridine", "1,2-Di-4-pyridylethene", "4-(4-Pyridylvinyl)pyridine", "1,2-Bis(4-pyridyl)ethene", "1,2-Di-4-pyridylethylene", "NSC 11470", "1,2-Di(4-pyridinyl)ethylene"], "SMILES": "C(=CC=1C=CN=CC1)C=2C=CN=CC2", "physical_data": {"Molecular Weight": "182.22", "Molecular Formula": "C12H10N2", "Melting Point": "151-152 \u00b0C"}}