{"cas_no": "1135-67-7", "cn_name": "1-\u82ef\u57fa-1-\u73af\u5df1\u7fa7\u9178", "en_name": ["1-Phenylcyclohexanecarboxylic acid", "Cyclohexanecarboxylic acid, 1-phenyl-", "1-Phenylcyclohexanecarboxylic acid", "NSC 401913", "1-Phenylcyclohexane-1-carboxylic acid"], "SMILES": "C(O)(=O)C1(CCCCC1)C2=CC=CC=C2", "physical_data": {"Molecular Weight": "204.26", "Molecular Formula": "C13H16O2", "Melting Point": "121 \u00b0C"}}