{"cas_no": "1135-40-6", "cn_name": "3-(\u73af\u5df1\u80fa)-1-\u4e19\u78fa\u9178", "en_name": ["3-(Cyclohexylamino)-1-propanesulfonic acid", "1-Propanesulfonic acid, 3-(cyclohexylamino)-", "3-(Cyclohexylamino)-1-propanesulfonic acid", "Cyclohexylaminopropanesulfonic acid", "CAPS", "3-(Cyclohexylamino)propanesulfonic acid", "WAS-12", "N-Cyclohexyl-3-aminopropanesulfonic acid", "CAPS (buffering agent)", "3-(Cyclohexylamino)propane-1-sulfonate"], "SMILES": "N(CCCS(=O)(=O)O)C1CCCCC1", "physical_data": {"Molecular Weight": "221.32", "Molecular Formula": "C9H19NO3S", "Melting Point": "302.5 \u00b0C"}}