{"cas_no": "1135-99-5", "cn_name": "\u4e8c\u82ef\u57fa\u4e8c\u6c2f\u5316\u9521", "en_name": ["Diphenyltin dichloride", "Stannane, dichlorodiphenyl-", "Diphenyltin dichloride", "Dichlorodiphenylstannane", "Dichlorodiphenyltin", "Diphenylstannyl dichloride", "Diphenyldichlorotin", "Diphenyltin chloride", "Dichlorobis(phenyl)tin", "NSC 405640"], "SMILES": "[Sn](Cl)(Cl)(C1=CC=CC=C1)C2=CC=CC=C2", "physical_data": {"Molecular Weight": "343.82", "Molecular Formula": "C12H10Cl2Sn", "Boiling Point": "335 \u00b0C", "Melting Point": "42 \u00b0C"}}