{"cas_no": "1135-24-6", "cn_name": "\u963f\u9b4f\u9178", "en_name": ["Ferulic acid", "2-Propenoic acid, 3-(4-hydroxy-3-methoxyphenyl)-", "Cinnamic acid, 4-hydroxy-3-methoxy-", "3-(4-Hydroxy-3-methoxyphenyl)-2-propenoic acid", "Ferulic acid", "4-Hydroxy-3-methoxycinnamic acid", "3-Methoxy-4-hydroxycinnamic acid", "3-(4-Hydroxy-3-methoxyphenyl)acrylic acid", "Coniferic acid", "Ferulaic acid", "4\u2032-Hydroxy-3\u2032-methoxycinnamic acid", "NSC 2821", "NSC 51986", "NSC 674320"], "SMILES": "C(=CC(O)=O)C1=CC(OC)=C(O)C=C1", "physical_data": {"Molecular Weight": "194.18", "Molecular Formula": "C10H10O4", "Melting Point": "169 \u00b0C"}}