{"cas_no": "1135-15-5", "cn_name": "3-\u7f9f\u57fa-4-\u7532\u6c27\u57fa\u82ef\u57fa\u4e19\u9178", "en_name": ["3-(3-Hydroxy-4-methoxyphenyl)propionic acid", "Benzenepropanoic acid, 3-hydroxy-4-methoxy-", "Hydrocinnamic acid, 3-hydroxy-4-methoxy-", "3-Hydroxy-4-methoxybenzenepropanoic acid", "Hydroisoferulic acid", "\u03b2-(3-Hydroxy-4-methoxyphenyl)propionic acid", "3-(3-Hydroxy-4-methoxyphenyl)propionic acid", "3-(3-Hydroxy-4-methoxyphenyl)propanic acid", "3-(3\u2032-Hydroxy-4\u2032-methoxyphenyl)propionic acid"], "SMILES": "C(CC(O)=O)C1=CC(O)=C(OC)C=C1", "physical_data": {"Molecular Weight": "196.20", "Molecular Formula": "C10H12O4", "Melting Point": "143-144 \u00b0C"}}