{"cas_no": "113558-15-9", "cn_name": "\u5b9d\u85ff\u82f7I", "en_name": ["Icariside II", "4H-1-Benzopyran-4-one, 3-[(6-deoxy-\u03b1-L-mannopyranosyl)oxy]-5,7-dihydroxy-2-(4-methoxyphenyl)-8-(3-methyl-2-buten-1-yl)-", "4H-1-Benzopyran-4-one, 3-[(6-deoxy-\u03b1-L-mannopyranosyl)oxy]-5,7-dihydroxy-2-(4-methoxyphenyl)-8-(3-methyl-2-butenyl)-", "3-[(6-Deoxy-\u03b1-L-mannopyranosyl)oxy]-5,7-dihydroxy-2-(4-methoxyphenyl)-8-(3-methyl-2-buten-1-yl)-4H-1-benzopyran-4-one", "Icariside II", "Baohuoside I", "Baohuoside 1", "Icariin II", "Baohuside I"], "SMILES": "C(C=C(C)C)C1=C2C(C(=O)C(OC3C(O)C(O)C(O)C(C)O3)=C(O2)C4=CC=C(OC)C=C4)=C(O)C=C1O", "physical_data": {"Molecular Weight": "514.52", "Molecular Formula": "C27H30O10", "Melting Point": "202-203 \u00b0C"}}