{"cas_no": "1135-23-5", "cn_name": "\u78f7\u9178\u5f02\u4e19\u916f(\u5355\u53cc\u916f\u6df7\u5408\u7269)", "en_name": ["Dihydroferulic acid", "Benzenepropanoic acid, 4-hydroxy-3-methoxy-", "Hydrocinnamic acid, 4-hydroxy-3-methoxy-", "4-Hydroxy-3-methoxybenzenepropanoic acid", "3-Methoxyphloretic acid", "Ferulic acid, \u03b1,\u03b2-dihydro-", "Hydroferulic acid", "\u03b2-3-Methoxy-4-hydroxyphenylpropionic acid", "(4-Hydroxy-3-methoxyphenyl)propionic acid", "\u03b2-(4-Hydroxy-3-methoxyphenyl)propionic acid", "Dihydroferulic acid", "3-Methoxy-4-hydroxyphenylpropionic acid", "3-(4-Hydroxy-3-methoxyphenyl)propionic acid", "Shorbic acid", "Dihydroconiferylic acid", "3-(3-Methoxy-4-hydroxyphenyl)propionic acid", "3-(3-Methoxy-4-hydroxyphenyl)propanoic acid", "3-(4-Hydroxy-3-methoxyphenyl)propanoic acid", "3-(3\u2032-Methoxy-4\u2032-hydroxyphenyl)propionic acid"], "SMILES": "C(CC(O)=O)C1=CC(OC)=C(O)C=C1", "physical_data": {"Molecular Weight": "196.20", "Molecular Formula": "C10H12O4", "Boiling Point": "120-130 \u00b0C @ Press: 0.5 Torr", "Melting Point": "89-90 \u00b0C"}}