{"cas_no": "1135-66-6", "cn_name": "\u5f02\u957f\u53f6\u70ef", "en_name": ["(-)-Isolongifolene", "2H-2,4a-Methanonaphthalene, 1,3,4,5,6,7-hexahydro-1,1,5,5-tetramethyl-, (2S,4aR)-", "Isolongifolene", "2H-2,4a-Methanonaphthalene, 1,3,4,5,6,7-hexahydro-1,1,5,5-tetramethyl-, (2S,4aR)-(-)-", "2H-2,4a-Methanonaphthalene, 1,3,4,5,6,7-hexahydro-1,1,5,5-tetramethyl-, (2S)-", "(2S,4aR)-1,3,4,5,6,7-Hexahydro-1,1,5,5-tetramethyl-2H-2,4a-methanonaphthalene", "(-)-Isolongifolene"], "SMILES": "CC1(C)C23C(C(C)(C)C(C2)CC3)=CCC1", "physical_data": {"Molecular Weight": "204.35", "Molecular Formula": "C15H24", "Boiling Point": "107 \u00b0C @ Press: 7 Torr", "Density": "0.9295 g/cm\u00b3 @ Temp: 25 \u00b0C"}}