{"cas_no": "113583-35-0", "cn_name": "4,6-\u4e8c\u7532\u6c27\u57fa-2-\u7532\u78fa\u9170\u57fa\u5627\u5576", "en_name": ["4,6-Dimethoxy-2-(methylsulfonyl)pyrimidine", "Pyrimidine, 4,6-dimethoxy-2-(methylsulfonyl)-", "4,6-Dimethoxy-2-(methylsulfonyl)pyrimidine", "2-Methanesulfonyl-4,6-dimethoxypyrimidine", "2-(Methylsulfonyl)-4,6-dimethoxypyrimidine"], "SMILES": "S(C)(=O)(=O)C=1N=C(OC)C=C(OC)N1", "physical_data": {"Molecular Weight": "218.23", "Molecular Formula": "C7H10N2O4S", "Melting Point": "125-126 \u00b0C"}}