{"cas_no": "1136-86-3", "cn_name": "3',4',5'-\u4e09\u7532\u6c27\u57fa\u82ef\u4e59\u916e", "en_name": ["3\u2032,4\u2032,5\u2032-Trimethoxyacetophenone", "Ethanone, 1-(3,4,5-trimethoxyphenyl)-", "Acetophenone, 3\u2032,4\u2032,5\u2032-trimethoxy-", "1-(3,4,5-Trimethoxyphenyl)ethanone", "3\u2032,4\u2032,5\u2032-Trimethoxyacetophenone", "3,4,5-Trimethoxyphenyl methyl ketone", "1-(3,4,5-Trimethoxyphenyl)-1-ethanone", "Methyl 3,4,5-trimethoxyphenyl ketone", "NSC 30099"], "SMILES": "O(C)C1=C(OC)C=C(C(C)=O)C=C1OC", "physical_data": {"Molecular Weight": "210.23", "Molecular Formula": "C11H14O4", "Boiling Point": "132-134 \u00b0C @ Press: 1 Torr", "Melting Point": "72 \u00b0C"}}