{"cas_no": "113665-84-2", "cn_name": "\u6c2f\u5421\u683c\u96f7", "en_name": ["Clopidogrel", "Thieno[3,2-c]pyridine-5(4H)-acetic acid, \u03b1-(2-chlorophenyl)-6,7-dihydro-, methyl ester, (\u03b1S)-", "Thieno[3,2-c]pyridine-5(4H)-acetic acid, \u03b1-(2-chlorophenyl)-6,7-dihydro-, methyl ester, (S)-", "Clopidogrel", "(S)-(+)-Methyl (2-chlorophenyl)(6,7-dihydro-4H-thieno[3,2-c]pyrid-5-yl)acetate", "(S)-Methyl \u03b1-(4,5,6,7-tetrahydrothieno[3,2-c]pyridin-5-yl)-\u03b1-(o-chlorophenyl)acetate", "SR 25990", "(S)-Clopidogrel", "(+)-(S)-Clopidogrel", "Methyl (2S)-(2-chlorophenyl)(6,7-dihydrothieno[3,2-c]pyridin-5(4H)-yl)acetate", "R 130964", "Thrombo"], "SMILES": "C(C(OC)=O)(N1CC2=C(CC1)SC=C2)C3=C(Cl)C=CC=C3", "physical_data": {"Molecular Weight": "321.82", "Molecular Formula": "C16H16ClNO2S", "Melting Point": "130-140 \u00b0C"}}