{"cas_no": "113641-37-5", "cn_name": "(3-\u6c30\u4e19\u57fa)\u4e8c\u5f02\u4e19\u57fa\u6c2f\u7845\u70f7", "en_name": ["4-[Chlorobis(1-methylethyl)silyl]butanenitrile", "Butanenitrile, 4-[chlorobis(1-methylethyl)silyl]-", "4-[Chlorobis(1-methylethyl)silyl]butanenitrile", "(3-Cyanopropyl)diisopropylchlorosilane", "Diisopropyl-3-cyanopropylchlorosilane"], "SMILES": "[Si](CCCC#N)(C(C)C)(C(C)C)Cl", "physical_data": {"Molecular Weight": "217.81", "Molecular Formula": "C10H20ClNSi", "Boiling Point": "95 \u00b0C @ Press: 0.2 Torr", "Density": "0.970 g/cm\u00b3"}}