{"cas_no": "1136-45-4", "cn_name": "5-\u7532\u57fa-3-\u82ef\u57fa\u5f02\u6076\u5511-4-\u7fa7\u9178", "en_name": ["5-Methyl-3-phenylisoxazole-4-carboxylic acid", "4-Isoxazolecarboxylic acid, 5-methyl-3-phenyl-", "5-Methyl-3-phenyl-4-isoxazolecarboxylic acid", "5-Methyl-3-phenylisoxazole-4-carboxylic acid", "3-Phenyl-5-methylisoxazole-4-carboxylic acid", "4-Carboxy-5-methyl-3-phenylisoxazole", "NSC 76870"], "SMILES": "C(O)(=O)C=1C(=NOC1C)C2=CC=CC=C2", "physical_data": {"Molecular Weight": "203.19", "Molecular Formula": "C11H9NO3", "Melting Point": "188-189 \u00b0C"}}