{"cas_no": "1136-89-6", "cn_name": "1-\u8418\u78f7\u9178\u94a0\u76d0\uff0c\u4e00\u6c34", "en_name": ["1-Naphthyl phosphate", "1-Naphthalenol, 1-(dihydrogen phosphate)", "1-Naphthol, dihydrogen phosphate", "1-Naphthalenol, dihydrogen phosphate", "1-Naphthyl phosphate", "\u03b1-Naphthyl phosphate", "Naphthol 1-phosphate", "\u03b1-Naphthol phosphate", "Phosphoric acid \u03b1-naphthyl ester", "1-Naphthyl dihydrogen phosphate", "\u03b1-Naphthyl acid phosphate", "Naphthyl dihydrogen phosphate"], "SMILES": "O(P(=O)(O)O)C=1C2=C(C=CC1)C=CC=C2", "physical_data": {"Molecular Weight": "224.15", "Molecular Formula": "C10H9O4P", "Melting Point": "155-157 \u00b0C"}}