{"cas_no": "113617-63-3", "cn_name": "\u5965\u6bd4\u6c99\u661f", "en_name": ["Orbifloxacin", "3-Quinolinecarboxylic acid, 1-cyclopropyl-7-[(3R,5S)-3,5-dimethyl-1-piperazinyl]-5,6,8-trifluoro-1,4-dihydro-4-oxo-, rel-", "3-Quinolinecarboxylic acid, 1-cyclopropyl-7-(3,5-dimethyl-1-piperazinyl)-5,6,8-trifluoro-1,4-dihydro-4-oxo-, cis-", "rel-1-Cyclopropyl-7-[(3R,5S)-3,5-dimethyl-1-piperazinyl]-5,6,8-trifluoro-1,4-dihydro-4-oxo-3-quinolinecarboxylic acid", "Orbifloxacin", "CP 104354", "Orbax"], "SMILES": "FC1=C2C(C(=O)C(C(O)=O)=CN2C3CC3)=C(F)C(F)=C1N4CC(C)NC(C)C4", "physical_data": {"Molecular Weight": "395.38", "Molecular Formula": "C19H20F3N3O3", "Melting Point": "257-258 \u00b0C (decomp)"}}