{"cas_no": "1137-73-1", "cn_name": "N-\u82ef\u57fa\u4e9a\u80fa\u4e8c\u4e59\u9178", "en_name": ["N-Phenyliminodiacetic acid", "Glycine, N-(carboxymethyl)-N-phenyl-", "Acetic acid, (phenylimino)di-", "N-(Carboxymethyl)-N-phenylglycine", "N-(Carboxymethyl)anilinoacetic acid", "(Phenylimino)diacetic acid", "Anilinediacetic acid", "N-Phenyliminodiacetic acid", "Anilinodiacetic acid", "NSC 105534", "2,2\u2032-(Phenylazanediyl)diacetic acid", "2-[N-(Carboxymethyl)anilino]acetic acid", "2-[(Carboxymethyl)(phenyl)amino]acetic acid"], "SMILES": "N(CC(O)=O)(CC(O)=O)C1=CC=CC=C1", "physical_data": {"Molecular Weight": "209.20", "Molecular Formula": "C10H11NO4", "Melting Point": "150 \u00b0C"}}