{"cas_no": "1137-68-4", "cn_name": "2-(2-\u5421\u5576)-\u82ef\u5e76\u54aa\u5511", "en_name": ["2-(2\u2032-Pyridyl)benzimidazole", "1H-Benzimidazole, 2-(2-pyridinyl)-", "Benzimidazole, 2-(2-pyridyl)-", "2-(2-Pyridinyl)-1H-benzimidazole", "2-(2-Pyridyl)benzimidazole", "G 581", "2-(2\u2032-Pyrido)benzimidazole", "2-(Pyridin-2-yl)benzimidazole", "2-(2\u2032-Pyridyl)benzimidazole", "2-(2-Pyridyl)-1H-benzimidazole", "NSC 110942", "NSC 32814", "2-(Pyridin-2-yl)-1H-benzo[d]imidazole", "2,6-Bis(2-benzimidazol-2-yl)pyridine", "2-(Pyridin-2-yl)-1H-1,3-benzodiazole"], "SMILES": "C=1(NC=2C(N1)=CC=CC2)C3=CC=CC=N3", "physical_data": {"Molecular Weight": "195.22", "Molecular Formula": "C12H9N3", "Melting Point": "220-221 \u00b0C"}}