{"cas_no": "1137-42-4", "cn_name": "4-\u7f9f\u57fa-\u4e8c\u82ef\u7532\u916e", "en_name": ["4-Hydroxybenzophenone", "Methanone, (4-hydroxyphenyl)phenyl-", "Benzophenone, 4-hydroxy-", "Benzophenone, p-hydroxy-", "(4-Hydroxyphenyl)phenylmethanone", "p-Hydroxybenzophenone", "p-Benzoylphenol", "4-Benzoylphenol", "4-Hydroxybenzophenone", "4\u2032-Hydroxybenzophenone", "4-Hydroxyphenyl phenyl ketone", "NSC 1887", "N-(4-Hydroxylphenyl)-N\u2032-phenylurea", "1-(4-Hydroxyphenyl)-1-phenylmethanone"], "SMILES": "C(=O)(C1=CC=C(O)C=C1)C2=CC=CC=C2", "physical_data": {"Molecular Weight": "198.22", "Molecular Formula": "C13H10O2", "Boiling Point": "150-160 \u00b0C", "Melting Point": "132-135 \u00b0C"}}