{"cas_no": "1137-77-5", "cn_name": "4-(4-\u7532\u6c27\u57fa\u82ef\u57fa)\u82ef\u80fa", "en_name": ["4-Amino-4\u2032-methoxybiphenyl", "[1,1\u2032-Biphenyl]-4-amine, 4\u2032-methoxy-", "4-Biphenylamine, 4\u2032-methoxy-", "4\u2032-Methoxy[1,1\u2032-biphenyl]-4-amine", "4\u2032-Methoxy-4-biphenylamine", "4-Amino-4\u2032-methoxybiphenyl", "(4\u2032-Methoxybiphenyl-4-yl)amine", "4-Methoxy-1,1\u2032-biphenyl-4\u2032-amine", "4-(4-Methoxyphenyl)aniline", "4-(p-Methoxyphenyl)aniline"], "SMILES": "O(C)C1=CC=C(C=C1)C2=CC=C(N)C=C2", "physical_data": {"Molecular Weight": "199.25", "Molecular Formula": "C13H13NO", "Melting Point": "146.5-147 \u00b0C"}}