{"cas_no": "1137-41-3", "cn_name": "4-\u6c28\u57fa\u4e8c\u82ef\u7532\u916e", "en_name": ["4-Aminobenzophenone", "Methanone, (4-aminophenyl)phenyl-", "Benzophenone, 4-amino-", "(4-Aminophenyl)phenylmethanone", "p-Aminobenzophenone", "4-Aminobenzophenone", "p-Benzoylaniline", "4-Benzoylbenzenamine", "4-Benzoylaniline", "NSC 7665"], "SMILES": "C(=O)(C1=CC=C(N)C=C1)C2=CC=CC=C2", "physical_data": {"Molecular Weight": "197.23", "Molecular Formula": "C13H11NO", "Melting Point": "121-124 \u00b0C"}}