{"cas_no": "1137-04-8", "cn_name": "5-\u7532\u6c27\u57fa-2-\u7532\u57fa\u8272\u80fa", "en_name": ["5-Methoxy-\u03b1-methyltryptamine", "1H-Indole-3-ethanamine, 5-methoxy-\u03b1-methyl-", "Indole, 3-(2-aminopropyl)-5-methoxy-", "5-Methoxy-\u03b1-methyl-1H-indole-3-ethanamine", "5-Methoxy-\u03b1-methyltryptamine", "\u03b1-Methyl-5-methoxytryptamine", "\u03b1,O-Dimethylserotonin", "1-(5-Methoxy-1H-indol-3-yl)propan-2-amine"], "SMILES": "C(C(C)N)C=1C=2C(NC1)=CC=C(OC)C2", "physical_data": {"Molecular Weight": "204.27", "Molecular Formula": "C12H16N2O", "Boiling Point": "187-190 \u00b0C @ Press: 0.3 Torr", "Melting Point": "102 \u00b0C"}}