{"cas_no": "113712-98-4", "cn_name": "\u6cf0\u59a5\u62c9\u5511", "en_name": ["Tenatoprazole", "3H-Imidazo[4,5-b]pyridine, 5-methoxy-2-[[(4-methoxy-3,5-dimethyl-2-pyridinyl)methyl]sulfinyl]-", "1H-Imidazo[4,5-b]pyridine, 5-methoxy-2-[[(4-methoxy-3,5-dimethyl-2-pyridinyl)methyl]sulfinyl]-", "5-Methoxy-2-[[(4-methoxy-3,5-dimethyl-2-pyridinyl)methyl]sulfinyl]-3H-imidazo[4,5-b]pyridine", "TU 199", "Tenatoprazole", "5-Methoxy-2-[[(4-methoxy-3,5-dimethyl-2-pyridyl)methyl]sulfinyl]-1H-imidazo[4,5-b]pyridine", "(\u00b1)-Tenatoprazole", "5-Methoxy-2-[[(4-methoxy-3,5-dimethyl-2-pyridinyl)methyl]sulfinyl]-1H-imidazo[4,5-b]pyridine", "2-[2-[(4-Methoxy-3,5-dimethyl-2-pyridinyl)methyl]sulfinyl]-5-methoxyimidazo[4,5-b]pyridine"], "SMILES": "S(CC1=C(C)C(OC)=C(C)C=N1)(=O)C2=NC=3C(N2)=CC=C(OC)N3", "physical_data": {"Molecular Weight": "346.40", "Molecular Formula": "C16H18N4O3S", "Melting Point": "174-175 \u00b0C"}}