{"cas_no": "1137-99-1", "cn_name": "\u5bf9\u82ef\u4e8c\u9178\u5355(\u7f9f\u4e59)\u916f\u94a0\u76d0", "en_name": ["1-(2-Hydroxyethyl) 1,4-benzenedicarboxylate", "1,4-Benzenedicarboxylic acid, 1-(2-hydroxyethyl) ester", "Terephthalic acid, mono(2-hydroxyethyl) ester", "1,4-Benzenedicarboxylic acid, mono(2-hydroxyethyl) ester", "Terephthalic acid, 2-hydroxyethyl ester", "Ethylene glycol, mono(hydrogen terephthalate)", "1-(2-Hydroxyethyl) 1,4-benzenedicarboxylate", "Ethylene glycol terephthalate (1:1)", "Mono(2-hydroxyethyl) terephthalate", "Ethylene glycol, hydrogen terephthalate (1:1)", "Mono(\u03b2-hydroxyethyl) terephthalate", "2-Hydroxyethyl terephthalate", "\u03b2-Hydroxyethyl terephthalate", "2-Hydroxyethyl hydrogen terephthalate", "Hydrogen 2-hydroxyethyl terephthalate", "Terephthalic acid ethylene glycol monoester", "Ethylene glycol-terephthalic acid monoester"], "SMILES": "C(OCCO)(=O)C1=CC=C(C(O)=O)C=C1", "physical_data": {"Molecular Weight": "210.18", "Molecular Formula": "C10H10O5", "Boiling Point": "100-108 \u00b0C", "Melting Point": "183-186 \u00b0C"}}