{"cas_no": "113893-02-0", "cn_name": "5-\u6eb4-2-\u7532\u6c27\u57fa-4,6-\u4e8c\u7532\u57fa\u70df\u8148", "en_name": ["5-Bromo-2-methoxy-4,6-dimethyl-3-pyridinecarbonitrile", "3-Pyridinecarbonitrile, 5-bromo-2-methoxy-4,6-dimethyl-", "5-Bromo-2-methoxy-4,6-dimethyl-3-pyridinecarbonitrile", "3-Bromo-2,4-dimethyl-6-methoxypyridine-5-carbonitrile"], "SMILES": "O(C)C1=C(C#N)C(C)=C(Br)C(C)=N1", "physical_data": {"Molecular Weight": "241.08", "Molecular Formula": "C9H9BrN2O", "Melting Point": "95-98 \u00b0C"}}