{"cas_no": "113826-06-5", "cn_name": "(R)-\u5bf9\u7532\u82ef\u78fa\u9178\u7f29\u6c34\u7518\u6cb9\u916f", "en_name": ["(R)-Glycidyl tosylate", "2-Oxiranemethanol, 2-(4-methylbenzenesulfonate), (2R)-", "Oxiranemethanol, 4-methylbenzenesulfonate, (R)-", "Oxiranemethanol, 4-methylbenzenesulfonate, (2R)-", "(R)-Glycidyl tosylate", "(-)-Glycidyl tosylate", "(R)-(-)-Glycidyl p-toluenesulfonate", "(R)-Glycidol tosylate", "R-(-)-Glycidyl tosylate", "(2R)-(-)-Glycidyl tosylate", "(R)-Oxiran-2-ylmethyl toluene-4-sulfonate", "(R)-(-)-Oxiran-2-ylmethyl 4-methylbenzenesulfonate", "(2R)-Glycidyl tosylate", "4-Methylbenzyl (2R)-oxiran-2-ylmethanesulfonate", "(R)-Oxiran-2-ylmethyl tosylate", "[(2R)-Oxiran-2-yl]methyl 4-methylbenzenesulfonate", "[(2R)-Oxiran-2-yl]methyl 4-methylbenzene-1-sulfonate"], "SMILES": "S(OCC1CO1)(=O)(=O)C2=CC=C(C)C=C2", "physical_data": {"Molecular Weight": "228.26", "Molecular Formula": "C10H12O4S", "Melting Point": "45-46 \u00b0C"}}