{"cas_no": "113852-37-2", "cn_name": "\u897f\u591a\u798f\u97e6", "en_name": ["Cidofovir", "Phosphonic acid, P-[[(1S)-2-(4-amino-2-oxo-1(2H)-pyrimidinyl)-1-(hydroxymethyl)ethoxy]methyl]-", "Phosphonic acid, [[2-(4-amino-2-oxo-1(2H)-pyrimidinyl)-1-(hydroxymethyl)ethoxy]methyl]-, (S)-", "Phosphonic acid, [[(1S)-2-(4-amino-2-oxo-1(2H)-pyrimidinyl)-1-(hydroxymethyl)ethoxy]methyl]-", "P-[[(1S)-2-(4-Amino-2-oxo-1(2H)-pyrimidinyl)-1-(hydroxymethyl)ethoxy]methyl]phosphonic acid", "(S)-HPMPC", "HPMPC", "1-(S)-(3-Hydroxy-2-phosphonylmethoxypropyl)cytosine", "1-[(S)-3-Hydroxy-2-(phosphonomethoxy)propyl]cytosine", "(S)-1-(3-hydroxy-2-phosphonomethoxypropyl)cytosine", "GS 0504", "Cidofovir", "Vistide", "Cidovir", "Cidofovir monophosphate"], "SMILES": "C(C(OCP(=O)(O)O)CO)N1C(=O)N=C(N)C=C1", "physical_data": {"Molecular Weight": "279.19", "Molecular Formula": "C8H14N3O6P", "Melting Point": "260 \u00b0C (decomp)"}}