{"cas_no": "1138-56-3", "cn_name": "4-\u4e01\u6c27\u57fa\u82ef\u78fa\u9170\u6c2f", "en_name": ["4-Butoxybenzenesulfonyl chloride", "Benzenesulfonyl chloride, 4-butoxy-", "Benzenesulfonyl chloride, p-butoxy-", "4-Butoxybenzenesulfonyl chloride", "p-Butoxyphenylsulfonyl chloride", "p-Butoxybenzenesulfonyl chloride", "4-n-Butoxybenzenesulfonyl chloride", "4-Butoxyphenylsulfonyl chloride", "4-Butoxybenzene-1-sulfonyl chloride"], "SMILES": "S(Cl)(=O)(=O)C1=CC=C(OCCCC)C=C1", "physical_data": {"Molecular Weight": "248.73", "Molecular Formula": "C10H13ClO3S", "Boiling Point": "100 \u00b0C @ Press: 10 Torr"}}