{"cas_no": "1138-52-9", "cn_name": "3,5-\u4e8c\u53d4\u4e01\u57fa\u82ef\u915a", "en_name": ["3,5-Di-tert-butylphenol", "Phenol, 3,5-bis(1,1-dimethylethyl)-", "Phenol, 3,5-di-tert-butyl-", "3,5-Bis(1,1-dimethylethyl)phenol", "3,5-Di-tert-butylphenol", "3,5-Di-t-butylphenol", "NSC 68209", "3,5-Bis(tert-butyl)phenol", "3,5-Ditert-butylphenol"], "SMILES": "C(C)(C)(C)C1=CC(C(C)(C)C)=CC(O)=C1", "physical_data": {"Molecular Weight": "206.32", "Molecular Formula": "C14H22O", "Melting Point": "93.5-94.0 \u00b0C"}}