{"cas_no": "1138-80-3", "cn_name": "N-\u82c4\u6c27\u7fb0\u57fa-\u7518\u6c28\u9178", "en_name": ["Benzyloxycarbonylglycine", "Glycine, N-[(phenylmethoxy)carbonyl]-", "Glycine, N-carboxy-, N-benzyl ester", "N-[(Phenylmethoxy)carbonyl]glycine", "N-(Carbobenzyloxy)glycine", "Benzyloxycarbonylglycine", "N-(Carbobenzoxy)glycine", "N\u03b1-(Benzyloxycarbonyl)glycine", "N-Carboxyglycine N-benzyl ester", "(Carbobenzyloxy)glycine", "(Carbobenzoxy)glycine", "Z-Gly-OH", "N-(\u03b1-Carbobenzoxy)glycine", "2-(Benzyloxycarbonylamino)acetic acid", "N-(Benzyloxycarbonyl)glycine", "NSC 2526", "[[(Benzyloxy)carbonyl]amino]acetic acid", "Z-Glycine", "2-(Phenylmethoxycarbonylamino)acetic acid"], "SMILES": "C(OC(NCC(O)=O)=O)C1=CC=CC=C1", "physical_data": {"Molecular Weight": "209.20", "Molecular Formula": "C10H11NO4", "Melting Point": "120 \u00b0C"}}