{"cas_no": "1138-60-9", "cn_name": "\u6ca1\u98df\u5b50\u9178\u5f02\u4e19\u916f", "en_name": ["Isopropyl gallate", "Benzoic acid, 3,4,5-trihydroxy-, 1-methylethyl ester", "Gallic acid, isopropyl ester", "Isopropyl gallate", "NSC 133457", "3,4,5-Trihydroxy-benzoic acid isopropyl ester", "Isopropyl 3,4,5-trihydroxybenzoate"], "SMILES": "C(OC(C)C)(=O)C1=CC(O)=C(O)C(O)=C1", "physical_data": {"Molecular Weight": "212.20", "Molecular Formula": "C10H12O5", "Melting Point": "123-124.5 \u00b0C"}}