{"cas_no": "1139-52-2", "cn_name": "4-\u6eb4-2,6-\u4e8c\u53d4\u4e01\u57fa\u82ef\u915a", "en_name": ["4-Bromo-2,6-di-tert-butylphenol", "Phenol, 4-bromo-2,6-bis(1,1-dimethylethyl)-", "Phenol, 4-bromo-2,6-di-tert-butyl-", "4-Bromo-2,6-bis(1,1-dimethylethyl)phenol", "4-Bromo-2,6-di-tert-butylphenol", "2,6-Di-tert-butyl-4-bromophenol", "NSC 169952", "NSC 98406", "4-Hydroxy-3,5-di(tert-butyl)bromobenzene"], "SMILES": "C(C)(C)(C)C1=C(O)C(C(C)(C)C)=CC(Br)=C1", "physical_data": {"Molecular Weight": "285.22", "Molecular Formula": "C14H21BrO", "Boiling Point": "126-128 \u00b0C @ Press: 4 Torr", "Melting Point": "81 \u00b0C"}}