{"cas_no": "113975-33-0", "cn_name": "N-(3-\u7898\u5421\u5576-4-\u57fa)\u68d5\u6988\u9170\u80fa", "en_name": ["N-(3-Iodo-4-pyridinyl)-2,2-dimethylpropanamide", "Propanamide, N-(3-iodo-4-pyridinyl)-2,2-dimethyl-", "N-(3-Iodo-4-pyridinyl)-2,2-dimethylpropanamide"], "SMILES": "N(C(C(C)(C)C)=O)C=1C(I)=CN=CC1", "physical_data": {"Molecular Weight": "304.13", "Molecular Formula": "C10H13IN2O", "Melting Point": "158 \u00b0C"}}