{"cas_no": "1139-30-6", "cn_name": "\u77f3\u7af9\u7d20", "en_name": ["Caryophyllene oxide", "5-Oxatricyclo[8.2.0.04,6]dodecane, 4,12,12-trimethyl-9-methylene-, (1R,4R,6R,10S)-", "5-Oxatricyclo[8.2.0.04,6]dodecane, 4,12,12-trimethyl-9-methylene-, [1R-(1R*,4R*,6R*,10S*)]-", "Caryophyllene oxide", "Caryophyllene, epoxide", "(1R,4R,6R,10S)-4,12,12-Trimethyl-9-methylene-5-oxatricyclo[8.2.0.04,6]dodecane", "(-)-\u03b2-Caryophyllene epoxide", "\u03b2-Caryophyllene oxide", "\u03b2-Caryophyllene epoxide", "(-)-Epoxydihydrocaryophyllene", "(-)-\u03b2-Caryophyllene oxide", "4\u03b2,5\u03b1-Epoxycaryophyllene", "(-)-Caryophyllene oxide", "trans-Caryophyllene oxide", "Caryophyllene 4\u03b2,5\u03b1-oxide", "6,7-Epoxy-3(15)-caryophyllene", "Caryophyllene 4\u03b2,5\u03b1-epoxide"], "SMILES": "CC12C(O1)CCC(=C)C3C(CC2)C(C)(C)C3", "physical_data": {"Molecular Weight": "220.35", "Molecular Formula": "C15H24O", "Boiling Point": "138-141 \u00b0C @ Press: 10 Torr", "Melting Point": "64 \u00b0C", "Density": "0.9488 g/cm\u00b3 @ Temp: 20 \u00b0C"}}