{"cas_no": "113963-68-1", "cn_name": "\u53cc\u5432\u54da\u9a6c\u6765\u9170\u4e9a\u80fa", "en_name": ["Bisindolylmaleimide V", "1H-Pyrrole-2,5-dione, 3,4-di-1H-indol-3-yl-1-methyl-", "3,4-Di-1H-indol-3-yl-1-methyl-1H-pyrrole-2,5-dione", "1-Methyl-3,4-bis(indol-3-yl)maleimide", "Ro 31-6045", "N-Methylbis(indol-3-yl)maleimide", "Bisindolylmaleimide V", "N-Methyl-3,4-bis(indol-3-yl)maleimide", "3,4-Di(1H-indol-3-yl)-1-methyl-1H-pyrrole-2,5-dione", "Methylarcyriarubin", "Methylarcyriarubin A", "3,4-Bis(1H-indol-3-yl)-1-methylpyrrole-2,5-dione"], "SMILES": "O=C1C(=C(C(=O)N1C)C=2C=3C(NC2)=CC=CC3)C=4C=5C(NC4)=CC=CC5", "physical_data": {"Molecular Weight": "341.36", "Molecular Formula": "C21H15N3O2", "Melting Point": "&gt;260 \u00b0C"}}