{"cas_no": "1139-83-9", "cn_name": "3-\u7f9f\u57fa-6H-\u82ef\u5e76[C]\u82ef\u5e76\u5421\u5583-6-\u916e", "en_name": ["Urolithin B", "6H-Dibenzo[b,d]pyran-6-one, 3-hydroxy-", "2-Biphenylcarboxylic acid, 2\u2032,4\u2032-dihydroxy-, \u03b4-lactone", "3-Hydroxy-6H-dibenzo[b,d]pyran-6-one", "7-Hydroxy-3,4-benzocoumarin", "Urolithin B", "NSC 94726", "3-Hydroxydibenzo-\u03b1-pyrone", "3-Hydroxyurolithin", "3-Hydroxy-6H-benzo[c]chromen-6-one", "3-Hydroxybenzo[c]chromen-6-one", "3-Hydroxy-6H-benzo[c]chromene-6-one"], "SMILES": "O=C1C=2C(C=3C(O1)=CC(O)=CC3)=CC=CC2", "physical_data": {"Molecular Weight": "212.20", "Molecular Formula": "C13H8O3", "Melting Point": "247 \u00b0C"}}