{"cas_no": "113981-49-0", "cn_name": "5-\u7f9f\u57fa-7,8-\u4e8c\u7532\u6c27\u57fa\u9ec4\u70f7\u916e", "en_name": ["7-O-Methyldihydrowogonin", "4H-1-Benzopyran-4-one, 2,3-dihydro-5-hydroxy-7,8-dimethoxy-2-phenyl-, (2S)-", "4H-1-Benzopyran-4-one, 2,3-dihydro-5-hydroxy-7,8-dimethoxy-2-phenyl-, (S)-", "(2S)-2,3-Dihydro-5-hydroxy-7,8-dimethoxy-2-phenyl-4H-1-benzopyran-4-one", "7-O-Methyldihydrowogonin", "(2S)-5-Hydroxy-7,8-dimethoxyflavanone", "(S)-5-Hydroxy-7,8-dimethoxy-2-phenylchroman-4-one"], "SMILES": "O(C)C1=C2C(C(=O)CC(O2)C3=CC=CC=C3)=C(O)C=C1OC", "physical_data": {"Molecular Weight": "300.31", "Molecular Formula": "C17H16O5", "Melting Point": "99-100 \u00b0C"}}