{"cas_no": "113994-37-9", "cn_name": "\u53bb\u7532\u6c28\u6c2f\u5730\u5e73", "en_name": ["3-Ethyl 2-[(2-aminoethoxy)methyl]-4-(2-chlorophenyl)-1,4-dihydro-6-methyl-3,5-pyridinedicarboxylate", "3,5-Pyridinedicarboxylic acid, 2-[(2-aminoethoxy)methyl]-4-(2-chlorophenyl)-1,4-dihydro-6-methyl-, 3-ethyl ester", "3-Ethyl 2-[(2-aminoethoxy)methyl]-4-(2-chlorophenyl)-1,4-dihydro-6-methyl-3,5-pyridinedicarboxylate"], "SMILES": "C(OCC)(=O)C=1C(C(C(O)=O)=C(C)NC1COCCN)C2=C(Cl)C=CC=C2", "physical_data": {"Molecular Weight": "394.85", "Molecular Formula": "C19H23ClN2O5", "Melting Point": "168-170 \u00b0C"}}