{"cas_no": "114-86-3", "cn_name": "\u82ef\u4e59\u53cc\u80cd", "en_name": ["Phenformin", "Imidodicarbonimidic diamide, N-(2-phenylethyl)-", "Biguanide, 1-phenethyl-", "N-(2-Phenylethyl)imidodicarbonimidic diamide", "W 32", "PEDG", "\u03b2-Phenethylbiguanide", "1-Phenethylbiguanide", "Phenformin", "Phenformine", "Phenformix", "Phenethylbiguanide", "Cronoformin", "Fenformin", "Fenormin", "DBI", "DB-retard", "Debeone", "Diabis", "Retardo", "Dibiraf", "Dibotin", "Glyphen", "\u03b2-PEBG", "(Phenylethyl)biguanide", "DB Comb.", "Glukopostin", "Fenfoduron", "N-(\u03b2-Phenethyl)diguanide", "1-Carbamimidamido-N-(2-phenylethyl)methanimidamide", "1-(Diaminomethylidene)-2-(2-phenylethyl)guanidine", "MeSH ID: D010629"], "SMILES": "C(CNC(NC(=N)N)=N)C1=CC=CC=C1", "physical_data": {"Molecular Weight": "205.26", "Molecular Formula": "C10H15N5", "Melting Point": "176.5 \u00b0C"}}