{"cas_no": "114-83-0", "cn_name": "1-\u4e59\u9170\u57fa-2-\u82ef\u57fa\u80bc", "en_name": ["Acetylphenylhydrazine", "Acetic acid, 2-phenylhydrazide", "1-Acetyl-2-phenylhydrazine", "APH", "Hydracetin", "Pyrodin", "Pyrodine", "Acetylphenylhydrazine", "\u03b2-Acetylphenylhydrazine", "N-Acetyl-N\u2032-phenylhydrazine", "N\u2032-Phenylacethydrazide", "1-Phenyl-2-acetylhydrazine", "Acetic acid phenylhydrazone", "NSC 2064", "NSC 229032", "NSC 2847", "N-(Phenylamino)acetamide", "N\u2032-Phenylacetohydrazide"], "SMILES": "N(NC(C)=O)C1=CC=CC=C1", "physical_data": {"Molecular Weight": "150.18", "Molecular Formula": "C8H10N2O", "Melting Point": "131 \u00b0C"}}