{"cas_no": "114-33-0", "cn_name": "N-\u7532\u57fa\u70df\u9170\u80fa", "en_name": ["N\u2032-Methylnicotinamide", "3-Pyridinecarboxamide, N-methyl-", "Nicotinamide, N-methyl-", "N-Methyl-3-pyridinecarboxamide", "Nicotinic acid methylamide", "3-(Methylcarbamoyl)pyridine", "N-Methylnicotinamide", "N\u2032-Methylnicotinamide", "SR 4415", "3-(N-Methylcarbamoyl)pyridine", "NSC 66521"], "SMILES": "C(NC)(=O)C=1C=CC=NC1", "physical_data": {"Molecular Weight": "136.15", "Molecular Formula": "C7H8N2O", "Melting Point": "103.5 \u00b0C"}}