{"cas_no": "114-91-0", "cn_name": "\u7f8e\u66ff\u7acb\u5576", "en_name": ["2-(2-Methoxyethyl)pyridine", "Pyridine, 2-(2-methoxyethyl)-", "2-(2-Methoxyethyl)pyridine", "Dekelmin", "Emthyridine", "2-(\u03b2-Methoxyethyl)pyridine", "Methydrine", "Methyridine", "Metyridine", "Mintic", "Promintic", "2-(2-Pyridyl)ethyl methyl ether", "Farmintic", "NSC 34071"], "SMILES": "C(COC)C1=CC=CC=N1", "physical_data": {"Molecular Weight": "137.18", "Molecular Formula": "C8H11NO", "Boiling Point": "203 \u00b0C", "Density": "0.998 g/cm\u00b3 @ Temp: 20 \u00b0C"}}