{"cas_no": "114-80-7", "cn_name": "\u6eb4\u5316\u65b0\u65af\u7684\u660e", "en_name": ["Neostigmine bromide", "Benzenaminium, 3-[[(dimethylamino)carbonyl]oxy]-N,N,N-trimethyl-, bromide (1:1)", "Neostigmine bromide", "Ammonium, (m-hydroxyphenyl)trimethyl-, bromide, dimethylcarbamate", "Benzenaminium, 3-[[(dimethylamino)carbonyl]oxy]-N,N,N-trimethyl-, bromide", "(m-Hydroxyphenyl)trimethylammonium bromide, dimethylcarbamate", "Carbamic acid, dimethyl-, ester with (m-hydroxyphenyl)trimethylammonium bromide", "Eustigmin bromide", "Kirkstigmine bromide", "Neoeserine bromide", "Philostigmin bromide", "Prostigmin bromide", "Prostigmine bromide", "Stigmanol bromide", "Stigmosan bromide", "Syntostigmin bromide", "Vagostigmine bromide", "Syntostigmin (tablet)", "(3-Dimethylcarbamoyloxyphenyl)trimethylammonium bromide", "Neoesserin", "Amostigmine"], "SMILES": "O(C(N(C)C)=O)C1=CC([N+](C)(C)C)=CC=C1.[Br-]", "physical_data": {"Molecular Weight": "", "Molecular Formula": "C12H19N2O2.Br", "Melting Point": "167 \u00b0C (decomp)"}}