{"cas_no": "114-26-1", "cn_name": "\u6b8b\u6740\u5a01", "en_name": ["Propoxur", "Phenol, 2-(1-methylethoxy)-, 1-(N-methylcarbamate)", "Carbamic acid, methyl-, o-isopropoxyphenyl ester", "Phenol, 2-(1-methylethoxy)-, methylcarbamate", "Phenol, o-isopropoxy-, methylcarbamate", "ENT 25,671", "Bayer 39007", "58 12 315", "Arprocarb", "Brygou", "IPMC", "o-Isopropoxyphenyl N-methylcarbamate", "o-Isopropoxyphenyl methylcarbamate", "2-Isopropoxyphenyl N-methylcarbamate", "2-Isopropoxyphenyl methylcarbamate", "BAY 39007", "Baygon", "OMS 33", "Unden (pesticide)", "Propoxur", "PHC (carbamate)", "BAY 5122", "Bayer B 5122", "Unden", "Propotox", "Blattanex", "Invisi-Gard", "Blattosep", "Suncide", "Dalf Dust", "O-(2-Isopropoxyphenyl) N-methylcarbamate", "Sendran", "Bolfo", "Propoxylor", "2-(1-Methylethoxy)phenyl N-methylcarbamate", "Boruho", "Mrowkozol", "Boruho 50", "Tendex", "PHC 7", "PHC", "Unden 50PM", "NSC 379584", "Baygon G", "MeSH ID: D001074"], "SMILES": "O(C(NC)=O)C1=C(OC(C)C)C=CC=C1", "physical_data": {"Molecular Weight": "209.24", "Molecular Formula": "C11H15NO3", "Melting Point": "91.5 \u00b0C", "Density": "1.12 g/cm\u00b3 @ Temp: 20 \u00b0C"}}