{"cas_no": "114-90-9", "cn_name": "\u53cc\u590d\u78f7", "en_name": ["Toxogonin", "Pyridinium, 1,1\u2032-[oxybis(methylene)]bis[4-[(hydroxyimino)methyl]-, chloride (1:2)", "Pyridinium, 1,1\u2032-(oxydimethylene)bis[4-formyl-, dichloride, dioxime", "Pyridinium, 1,1\u2032-[oxybis(methylene)]bis[4-[(hydroxyimino)methyl]-, dichloride", "1,1\u2032-(Oxydimethylene)bis[4-formylpyridinium chloride], dioxime", "Obidoxime chloride", "Toxogonin", "LuH6", "LuH6-Cl2", "LueH 6", "1,1\u2032-(Oxydimethylene)bis[4-formylpyridinium] dichloride dioxime", "Toxogonin dichloride", "Bis(4-hydroxyiminomethylpyridiniummethyl) ether dichloride", "Toksobidin", "Toxobidin", "Toxogonine", "Obidoxime hydrochloride", "Efosim", "BH 6", "MeSH ID: D009768"], "SMILES": "C(OC[N+]=1C=CC(C=NO)=CC1)[N+]=2C=CC(C=NO)=CC2.[Cl-]", "physical_data": {"Molecular Weight": "", "Molecular Formula": "C14H16N4O3.2Cl", "Melting Point": "220 \u00b0C"}}