{"cas_no": "114-07-8", "cn_name": "\u7ea2\u9709\u7d20", "en_name": ["Erythromycin", "Erythromycin", "Erythromycin A", "Oxacyclotetradecane, erythromycin deriv.", "Dotycin", "Erycin", "Erythrocin", "Erythrogran", "Pantomicina", "Oxacyclotetradecane-2,10-dione, 4-[(2,6-dideoxy-3-C-methyl-3-O-methyl-\u03b1-L-ribo-hexopyranosyl)oxy]-14-ethyl-7,12,13-trihydroxy-3,5,7,9,11,13-hexamethyl-6-[[3,4,6-trideoxy-3-(dimethylamino)-\u03b2-D-xylo-hexopyranosyl]oxy]-, [3R-(3R*,4S*,5S*,6R*,7R*,9R*,11R*,12R*,13S*,14R*)]-", "Erycinum", "Abboticin", "Ilotycin", "[3R-(3R*,4S*,5S*,6R*,7R*,9R*,11R*,12R*,13S*,14R*)]-4-[(2,6-Dideoxy-3-C-methyl-3-O-methyl-\u03b1-L-ribo-hexopyranosyl)oxy]-14-ethyl-7,12,13-trihydroxy-3,5,7,9,11,13-hexamethyl-6-[[3,4,6-trideoxy-3-(dimethylamino)-\u03b2-D-xylo-hexopyranosyl]oxy]oxacyclotetradecane-2,10-dione", "E-Mycin", "Erytab", "Erycette", "Theramycin Z", "T-Stat", "Emgel", "Erythromast 36", "Erythromid", "Erymax", "Abomacetin", "Erycen", "ERYC", "Retcin", "Staticin", "PCE", "Aknin", "Inderm", "Ak-Mycin", "Ermycin", "Erygel", "EMU", "Torlamicina", "E-Base", "Erythro", "Stiemycin", "EryDerm", "NSC 55929", "Vetwic", "Eritrex", "Eritromed", "MeSH ID: D004917"], "SMILES": "O(C1C(C)C(OC2CC(OC)(C)C(O)C(C)O2)C(C)C(=O)OC(CC)C(C)(O)C(O)C(C)C(=O)C(C)CC1(C)O)C3C(O)C(N(C)C)CC(C)O3", "physical_data": {"Molecular Weight": "733.93", "Molecular Formula": "C37H67NO13", "Melting Point": "40-135 \u00b0C"}}