{"cas_no": "114-21-6", "cn_name": "\u82ef\u4e59\u9187\u9178\u9209", "en_name": ["Benzeneacetic acid, \u03b1-hydroxy-, sodium salt (1:1)", "Benzeneacetic acid, \u03b1-hydroxy-, sodium salt (1:1)", "Mandelic acid, monosodium salt", "Benzeneacetic acid, \u03b1-hydroxy-, monosodium salt", "Sodium mandelate", "Sodium DL-mandelate", "2-Hydroxy-2-phenylacetic acid sodium salt"], "SMILES": "C(C(O)=O)(O)C1=CC=CC=C1.[Na]", "physical_data": {"Molecular Weight": "", "Molecular Formula": "C8H8O3.Na", "Melting Point": "267 \u00b0C"}}