{"cas_no": "114-49-8", "cn_name": "\u4e1c\u83a8\u83ea\u78b1\u6c22\u6eb4\u9178\u76d0", "en_name": ["Scopolamine hydrobromide", "Benzeneacetic acid, \u03b1-(hydroxymethyl)-, (1\u03b1,2\u03b2,4\u03b2,5\u03b1,7\u03b2)-9-methyl-3-oxa-9-azatricyclo[3.3.1.02,4]non-7-yl ester, hydrobromide (1:1), (\u03b1S)-", "1\u03b1H,5\u03b1H-Tropan-3\u03b1-ol, 6\u03b2,7\u03b2-epoxy-, (-)-tropate (ester), hydrobromide", "Benzeneacetic acid, \u03b1-(hydroxymethyl)-, 9-methyl-3-oxa-9-azatricyclo[3.3.1.02,4]non-7-yl ester, hydrobromide, [7(S)-(1\u03b1,2\u03b2,4\u03b2,5\u03b1,7\u03b2)]-", "Scopolamine bromide", "Benzeneacetic acid, \u03b1-(hydroxymethyl)-, (1\u03b1,2\u03b2,4\u03b2,5\u03b1,7\u03b2)-9-methyl-3-oxa-9-azatricyclo[3.3.1.02,4]non-7-yl ester, hydrobromide, (\u03b1S)-", "3-Oxa-9-azatricyclo[3.3.1.02,4]nonane, benzeneacetic acid deriv.", "Beldavrin", "Euscopol", "Hyoscine bromide", "(-)-Hyoscine hydrobromide", "Kwells", "Scopolamine hydrobromide", "Scopos", "Scopolaminium bromide", "Hyoscine hydrobromide", "(-)-Scopolamine bromide", "Scopolammonium bromide", "(-)-Scopolamine hydrobromide", "Hysco", "Isoscopil", "Scopamin", "Sereen", "l-Scopolamine hydrobromide", "Hydroscine hydrobromide", "Triptone", "l-Hyoscine hydrobromide", "Sea Legs", "Hyocine F hydrobromide", "Wellcome Brand Scopolamine hydrobromide Injection", "MeSH ID: D012601"], "SMILES": "CN1C2C3C(O3)C1CC(OC(C(CO)C4=CC=CC=C4)=O)C2.Br", "physical_data": {"Molecular Weight": "", "Molecular Formula": "C17H21NO4.BrH", "Melting Point": "196.5 \u00b0C"}}