{"cas_no": "1140-14-3", "cn_name": "2,4-\u4e8c\u7532\u57fa\u4e8c\u82ef\u7532\u916e", "en_name": ["2,4-Dimethylbenzophenone", "Methanone, (2,4-dimethylphenyl)phenyl-", "Benzophenone, 2,4-dimethyl-", "(2,4-Dimethylphenyl)phenylmethanone", "2,4-Dimethylbenzophenone", "4-Benzoyl-m-xylene", "Phenyl 2,4-dimethylphenyl ketone", "NSC 825"], "SMILES": "C(=O)(C1=C(C)C=C(C)C=C1)C2=CC=CC=C2", "physical_data": {"Molecular Weight": "210.27", "Molecular Formula": "C15H14O", "Boiling Point": "321.5 \u00b0C", "Melting Point": "120-121 \u00b0C", "Density": "1.068 g/cm\u00b3 @ Temp: 20 \u00b0C"}}