{"cas_no": "114084-78-5", "cn_name": "\u4f0a\u73ed\u81a6\u9178", "en_name": ["Ibandronate", "Phosphonic acid, P,P\u2032-[1-hydroxy-3-(methylpentylamino)propylidene]bis-", "Phosphonic acid, [1-hydroxy-3-(methylpentylamino)propylidene]bis-", "P,P\u2032-[1-Hydroxy-3-(methylpentylamino)propylidene]bis[phosphonic acid]", "[1-Hydroxy-3-(methylpentylamino)propylidene]diphosphonic acid", "Ibandronic acid", "Ibandronate", "BPH 24", "[1-Hydroxy-3-[methyl(pentyl)amino]-1-phosphonopropyl]phosphonic acid", "(1-Hydroxy-3-(methyl(pentyl)amino)propane-1,1-diyl)diphosphonicacid", "Iasibon", "Destara", "Bondenza"], "SMILES": "C(CCN(CCCCC)C)(P(=O)(O)O)(P(=O)(O)O)O", "physical_data": {"Molecular Weight": "319.23", "Molecular Formula": "C9H23NO7P2", "Melting Point": "84 \u00b0C (decomp)"}}