{"cas_no": "114012-12-3", "cn_name": "3-\u6c28\u57fa-2-(4-\u6c2f\u82ef\u57fa)\u4e19\u57fa\u81a6\u9178", "en_name": ["Phaclofen", "Phosphonic acid, P-[3-amino-2-(4-chlorophenyl)propyl]-", "Phosphonic acid, [3-amino-2-(4-chlorophenyl)propyl]-", "P-[3-Amino-2-(4-chlorophenyl)propyl]phosphonic acid", "Phaclofen", "[3-Amino-2-(4-chlorophenyl)propyl]phosphonic acid"], "SMILES": "C(CP(=O)(O)O)(CN)C1=CC=C(Cl)C=C1", "physical_data": {"Molecular Weight": "249.63", "Molecular Formula": "C9H13ClNO3P", "Melting Point": "249-252 \u00b0C"}}