{"cas_no": "1141-88-4", "cn_name": "\u53cc(2-\u6c28\u57fa\u82ef\u57fa)\u4e8c\u786b", "en_name": ["Bis(2-aminophenyl) disulfide", "Benzenamine, 2,2\u2032-dithiobis-", "Aniline, 2,2\u2032-dithiodi-", "2,2\u2032-Dithiobis[benzenamine]", "Bis(o-aminophenyl) disulfide", "Intramine", "2,2\u2032-Dithiodianiline", "Disulfide, bis(2-aminophenyl)", "2,2\u2032-Diaminodiphenyl disulfide", "Bis(2-aminophenyl) disulfide", "o,o\u2032-Diaminodiphenyl disulfide", "2,2\u2032-Dithiobis[aniline]", "NSC 8186", "Di(2-aminophenyl) disulfide", "1,1\u2032-Dithiobis(2-aminobenzene)", "Di(o-aminophenyl) disulfide", "NSC 54509", "NSC 677450", "D 1246", "2,2\u2032-Disulfidediyldianiline", "Thulium ionophore I", "2,2\u2032-Disulfanediyldianiline", "[2-[(2-Aminophenyl)dithio]phenyl]amine", "2,2\u2032-Dianilino disulfide", "2-[(2-Aminophenyl)disulfanyl]aniline"], "SMILES": "S(SC1=C(N)C=CC=C1)C2=C(N)C=CC=C2", "physical_data": {"Molecular Weight": "248.37", "Molecular Formula": "C12H12N2S2", "Melting Point": "89-91 \u00b0C"}}