{"cas_no": "1141-23-7", "cn_name": "3-(4-\u6c2f\u82ef\u57fa)\u620a\u4e8c\u9178\u5355\u9170\u80fa", "en_name": ["\u03b2-(2-Amino-2-oxoethyl)-4-chlorobenzenepropanoic acid", "Benzenepropanoic acid, \u03b2-(2-amino-2-oxoethyl)-4-chloro-", "Glutaramic acid, 3-(p-chlorophenyl)-", "\u03b2-(2-Amino-2-oxoethyl)-4-chlorobenzenepropanoic acid", "3-(p-Chlorophenyl)glutaramic acid"], "SMILES": "C(CC(N)=O)(CC(O)=O)C1=CC=C(Cl)C=C1", "physical_data": {"Molecular Weight": "241.67", "Molecular Formula": "C11H12ClNO3", "Melting Point": "170-171 \u00b0C"}}