{"cas_no": "1141-06-6", "cn_name": "\u5421\u54af\u916e", "en_name": ["\u03b1-Pyridoin", "Ethanone, 2-hydroxy-1,2-di-2-pyridinyl-", "Ketone, hydroxy-2-pyridylmethyl 2-pyridyl", "2-Hydroxy-1,2-di-2-pyridinylethanone", "\u03b1-Pyridoin", "2-Pyridoin", "NSC 24017", "2-Hydroxy-1,2-bis(pyridin-2-yl)ethanone", "2-Hydroxy-1,2-bis(pyridin-2-yl)ethan-1-one"], "SMILES": "C(C(=O)C1=CC=CC=N1)(O)C2=CC=CC=N2", "physical_data": {"Molecular Weight": "214.22", "Molecular Formula": "C12H10N2O2", "Melting Point": "156 \u00b0C"}}