{"cas_no": "1141-59-9", "cn_name": "4-(2-\u5421\u5576\u5076\u6c2e)-1,3-\u82ef\u4e8c\u915a", "en_name": ["4-(2-Pyridylazo)resorcinol", "1,3-Benzenediol, 4-[2-(2-pyridinyl)diazenyl]-", "Resorcinol, 4-(2-pyridylazo)-", "1,3-Benzenediol, 4-(2-pyridinylazo)-", "4-[2-(2-Pyridinyl)diazenyl]-1,3-benzenediol", "PAR", "4-(2-Pyridylazo)resorcinol", "1-(2-Pyridylazo)-2,4-dihydroxybenzene", "4-(2-Pyridylazo)-1,3-benzenediol", "1,3-Dihydroxy-4-(2\u2032-pyridylazo)benzene", "4-(2-Pyridinylazo)-1,3-benzenediol", "4-(2-Pyridinylazo)resorcinol", "PAR (resorcinol derivative)", "4-(2-Pyridinylazo)-1,3-dihydroxybenzene", "NSC 148355", "SBR 1586", "XB 1006-1"], "SMILES": "N(=NC1=CC=CC=N1)C2=C(O)C=C(O)C=C2", "physical_data": {"Molecular Weight": "215.21", "Molecular Formula": "C11H9N3O2", "Melting Point": "196-198 \u00b0C"}}