{"cas_no": "1141-38-4", "cn_name": "2,6-\u8418\u4e8c\u7fa7\u9178", "en_name": ["2,6-Naphthalenedicarboxylic acid", "2,6-Naphthalenedicarboxylic acid", "2,6-Naphthalic acid", "NSC 96410"], "SMILES": "C(O)(=O)C1=CC2=C(C=C(C(O)=O)C=C2)C=C1", "physical_data": {"Molecular Weight": "216.19", "Molecular Formula": "C12H8O4", "Boiling Point": "230-280 \u00b0C @ Press: 0.2 Torr", "Melting Point": "&gt;340 \u00b0C", "Density": "0.96 g/cm\u00b3"}}