{"cas_no": "114108-86-0", "cn_name": "2-(\u6c2f\u7532\u57fa)-4,6-\u4e8c\u7532\u6c27\u57fa\u5627\u5576", "en_name": ["2-(Chloromethyl)-4,6-dimethoxypyrimidine", "Pyrimidine, 2-(chloromethyl)-4,6-dimethoxy-", "2-(Chloromethyl)-4,6-dimethoxypyrimidine"], "SMILES": "O(C)C=1C=C(OC)N=C(CCl)N1", "physical_data": {"Molecular Weight": "188.61", "Molecular Formula": "C7H9ClN2O2", "Melting Point": "40-42 \u00b0C"}}