{"cas_no": "114152-21-5", "cn_name": "2,3,6-\u4e09\u6c1f\u82ef\u4e59\u8148", "en_name": ["2,3,6-Trifluorobenzeneacetonitrile", "Benzeneacetonitrile, 2,3,6-trifluoro-", "2,3,6-Trifluorobenzeneacetonitrile", "2-(2,3,6-Trifluorophenyl)acetonitrile", "2,3,6-Trifluorophenylacetonitrile"], "SMILES": "C(C#N)C1=C(F)C(F)=CC=C1F", "physical_data": {"Molecular Weight": "171.12", "Molecular Formula": "C8H4F3N", "Boiling Point": "80-85 \u00b0C @ Press: 5 Torr"}}