{"cas_no": "114247-09-5", "cn_name": "R-\u6c1f\u897f\u6c40", "en_name": ["(-)-Fluoxetine hydrochloride", "Benzenepropanamine, N-methyl-\u03b3-[4-(trifluoromethyl)phenoxy]-, hydrochloride (1:1), (\u03b3R)-", "Benzenepropanamine, N-methyl-\u03b3-[4-(trifluoromethyl)phenoxy]-, hydrochloride, (R)-", "Benzenepropanamine, N-methyl-\u03b3-[4-(trifluoromethyl)phenoxy]-, hydrochloride, (\u03b3R)-", "(R)-(-)-Fluoxetine hydrochloride", "(R)-Fluoxetine hydrochloride", "(-)-Fluoxetine hydrochloride", "(-)-(R)-Fluoxetine hydrochloride", "(R)-N-Methyl-3-(4-trifluoromethylphenoxy)-3-phenylpropylamine hydrochloride"], "SMILES": "C(OC1=CC=C(C(F)(F)F)C=C1)(CCNC)C2=CC=CC=C2.Cl", "physical_data": {"Molecular Weight": "", "Molecular Formula": "C17H18F3NO.ClH", "Melting Point": "140 \u00b0C"}}