{"cas_no": "1142-39-8", "cn_name": "4-\u5df1\u6c27\u57fa\u82ef\u7532\u9178", "en_name": ["4-(Hexyloxy)benzoic acid", "Benzoic acid, 4-(hexyloxy)-", "Benzoic acid, p-(hexyloxy)-", "4-(Hexyloxy)benzoic acid", "p-(Hexyloxy)benzoic acid", "p-n-Hexyloxybenzoic acid", "4-n-Hexyloxybenzoic acid", "p-(n-Hexoxy)benzoic acid", "4-Hexoxybenzoic acid", "NSC 28663", "p-(n-Hexyl-1-oxy)benzoic acid"], "SMILES": "O(CCCCCC)C1=CC=C(C(O)=O)C=C1", "physical_data": {"Molecular Weight": "222.28", "Molecular Formula": "C13H18O3", "Melting Point": "105.5-107 \u00b0C"}}