{"cas_no": "114297-20-0", "cn_name": "SOYACEREBROSIDE I", "en_name": ["Soyacerebroside I", "Hexadecanamide, N-[(1S,2R,3E,7E)-1-[(\u03b2-D-glucopyranosyloxy)methyl]-2-hydroxy-3,7-heptadecadien-1-yl]-2-hydroxy-, (2R)-", "Hexadecanamide, N-[1-[(\u03b2-D-glucopyranosyloxy)methyl]-2-hydroxy-3,7-heptadecadienyl]-2-hydroxy-, [1S-[1R*(S*),2S*,3E,7E]]-", "Hexadecanamide, N-[(1S,2R,3E,7E)-1-[(\u03b2-D-glucopyranosyloxy)methyl]-2-hydroxy-3,7-heptadecadienyl]-2-hydroxy-, (2R)-", "(2R)-N-[(1S,2R,3E,7E)-1-[(\u03b2-D-Glucopyranosyloxy)methyl]-2-hydroxy-3,7-heptadecadien-1-yl]-2-hydroxyhexadecanamide", "Soyacerebroside I", "(2S,3R,4E,8E)-1-O-\u03b2-D-Glucopyranosyl-3-hydroxy-2-(2\u2032R-hydroxypalmitoylamino)-4,8-octadecadiene", "(2R)-N-[(1S,2R,3E,7E)-1-[(\u03b2-D-Glucopyranosyloxy)methyl]-2-hydroxyheptadeca-3,7-dien-1-yl]-2-hydroxyhexadecanamide", "1-O-\u03b2-D-Glucopyranosyl-(2S,3R,4E,8E)-2-[(2\u2032R)-2-hydroxyhexadecanoylamino]-4,8-octadecadiene-1,3-diol"], "SMILES": "O(CC(NC(C(CCCCCCCCCCCCCC)O)=O)C(C=CCCC=CCCCCCCCCC)O)C1OC(CO)C(O)C(O)C1O", "physical_data": {"Molecular Weight": "714.02", "Molecular Formula": "C40H75NO9", "Melting Point": "192-197 \u00b0C"}}