{"cas_no": "1142-19-4", "cn_name": "4,4'-\u4e8c\u6c2f\u4e8c\u82ef\u4e8c\u786b\u919a", "en_name": ["4-Chlorophenyl disulfide", "Disulfide, bis(4-chlorophenyl)", "Disulfide, bis(p-chlorophenyl)", "Bis(4-chlorophenyl) disulfide", "Bis(p-chlorophenyl) disulfide", "DDDS", "4,4\u2032-Dichlorodiphenyl disulfide", "p-Chlorophenyl disulfide", "Di(p-chlorophenyl) disulfide", "p,p\u2032-Dichlorodiphenyl disulfide", "DDDS (pesticide)", "4-Chlorophenyl disulfide", "NSC 32025", "MCS", "MCS (sulfide)", "NSC 677444", "Bis-(4-chlorobenzene)-disulfide", "Di(4-chlorophenyl) disulfide", "1,2-Bis(4-chlorophenyl)disulfane", "1-Chloro-4-[(4-chlorophenyl)disulfanyl]benzene"], "SMILES": "S(SC1=CC=C(Cl)C=C1)C2=CC=C(Cl)C=C2", "physical_data": {"Molecular Weight": "287.23", "Molecular Formula": "C12H8Cl2S2", "Boiling Point": "141 \u00b0C @ Press: 0.4 Torr", "Melting Point": "68 \u00b0C", "Density": "1.304 g/cm\u00b3 @ Temp: 102.3 \u00b0C"}}