{"cas_no": "1142-15-0", "cn_name": "4-\u7532\u6c27\u57fa\u82aa", "en_name": ["4-Methoxystilbene", "Benzene, 1-methoxy-4-(2-phenylethenyl)-", "Anisole, p-styryl-", "Stilbene, 4-methoxy-", "1-Methoxy-4-(2-phenylethenyl)benzene", "4-Methoxystilbene", "p-Methoxystilbene", "NSC 2139", "1-(p-Methoxyphenyl)-2-phenylethene", "1-(4-Methoxyphenyl)-2-phenylethene", "1-(p-Methoxy)phenyl-2-phenylethylene", "1-Methoxy-4-styrylbenzene"], "SMILES": "C(=CC1=CC=CC=C1)C2=CC=C(OC)C=C2", "physical_data": {"Molecular Weight": "210.27", "Molecular Formula": "C15H14O", "Melting Point": "132 \u00b0C"}}