{"cas_no": "1142-20-7", "cn_name": "\u82c4\u6c27\u7fb0\u57fa-L-\u4e19\u6c28\u9178", "en_name": ["Benzyloxycarbonyl-L-alanine", "L-Alanine, N-[(phenylmethoxy)carbonyl]-", "Alanine, N-carboxy-, N-benzyl ester, L-", "L-Alanine, N-carboxy-, N-benzyl ester", "N-[(Phenylmethoxy)carbonyl]-L-alanine", "Benzyloxycarbonyl-L-alanine", "N-[(Benzyloxy)carbonyl]-L-alanine", "N-Benzoxycarbonyl-L-alanine", "N-(Carbobenzoxy)-L-alanine", "L-Carbobenzoxyalanine", "N-(Benzyloxycarbonyl)-(S)-alanine", "L-N-(Benzyloxycarbonyl)alanine", "L-Carbobenzyloxyalanine", "N-Carbobenzyloxy-L-alanine", "NSC 156978", "NSC 88469", "(S)-2-(Benzyloxycarbonylamino)propanoic acid", "(S)-2-[(Benzyloxycarbonyl)amino]propionic acid", "L-Cbz alanine", "Cbz-L-Ala-OH", "(2S)-2-[[(Benzyloxy)carbonyl]amino]propanoic acid", "N-Cbz alanine"], "SMILES": "C(OC(NC(C(O)=O)C)=O)C1=CC=CC=C1", "physical_data": {"Molecular Weight": "223.23", "Molecular Formula": "C11H13NO4", "Melting Point": "84 \u00b0C"}}