{"cas_no": "1143-38-0", "cn_name": "\u5730\u84bd\u915a", "en_name": ["Dithranol", "9(10H)-Anthracenone, 1,8-dihydroxy-", "Anthrone, 1,8-dihydroxy-", "1,8-Dihydroxy-9(10H)-anthracenone", "1,8-Dihydroxyanthrone", "1,8-Dihydroxy-9-anthrone", "Anthra-Derm", "Anthralin", "Chrysodermol", "Cigthranol", "Dithranol", "Psoriacid-Stift", "Cignolin", "Batridol", "Lasan", "Batidrol", "DrithoCreme", "Drithoscalp", "Psodadrate", "Psoriacide", "NSC 43970", "NSC 629313", "Derobin", "1,8-Dihydroxy-10H-anthracen-9-one", "1,8-Dihydroxy-9,10-dihydroanthracen-9-one"], "SMILES": "O=C1C=2C(CC=3C1=C(O)C=CC3)=CC=CC2O", "physical_data": {"Molecular Weight": "226.23", "Molecular Formula": "C14H10O3", "Melting Point": "179 \u00b0C"}}