{"cas_no": "114322-14-4", "cn_name": "2,1,3-\u82ef\u5e76\u4e8c\u5511-4-\u78fa\u9170\u6c2f", "en_name": ["2,1,3-Benzoxadiazole-4-sulfonyl chloride", "2,1,3-Benzoxadiazole-4-sulfonyl chloride", "4-Benzofurazansulfonyl chloride", "Benzo[c]-1,2,5-oxadiazole-4-sulfonyl chloride", "Benzo[1,2,5]oxadiazole-4-sulfonyl chloride", "Benzo-2,1,3-oxadiazole-4-sulfonyl chloride"], "SMILES": "S(Cl)(=O)(=O)C=1C=2C(C=CC1)=NON2", "physical_data": {"Molecular Weight": "218.62", "Molecular Formula": "C6H3ClN2O3S", "Melting Point": "78-80 \u00b0C"}}