{"cas_no": "1143-72-2", "cn_name": "2,3,4-\u4e09\u7f9f\u57fa\u4e8c\u82ef\u7532\u916e", "en_name": ["2,3,4-Trihydroxybenzophenone", "Methanone, phenyl(2,3,4-trihydroxyphenyl)-", "Benzophenone, 2,3,4-trihydroxy-", "Phenyl(2,3,4-trihydroxyphenyl)methanone", "C.I. 57005", "Alizarine Yellow A", "Alizarin Yellow A", "2,3,4-Trihydroxybenzophenone", "Gallobenzophenone", "NSC 30665", "PHF 005"], "SMILES": "C(=O)(C1=C(O)C(O)=C(O)C=C1)C2=CC=CC=C2", "physical_data": {"Molecular Weight": "230.22", "Molecular Formula": "C13H10O4", "Melting Point": "140 \u00b0C"}}