{"cas_no": "1143-70-0", "cn_name": "\u5c3f\u77f3\u7d20A", "en_name": ["Urolithin A", "6H-Dibenzo[b,d]pyran-6-one, 3,8-dihydroxy-", "2-Biphenylcarboxylic acid, 2\u2032,4,4\u2032-trihydroxy-, \u03b4-lactone", "3,8-Dihydroxy-6H-dibenzo[b,d]pyran-6-one", "Urolithin A", "2\u2032,7-Dihydroxy-3,4-benzocoumarin", "3,8-Hydroxydibenzo-\u03b1-pyrone", "3,8-Dihydroxyurolithin", "3,8-Dihydroxybenzo[c]chromen-6-one"], "SMILES": "O=C1C=2C(C=3C(O1)=CC(O)=CC3)=CC=C(O)C2", "physical_data": {"Molecular Weight": "228.20", "Molecular Formula": "C13H8O4", "Melting Point": "340-345 \u00b0C"}}