{"cas_no": "114311-32-9", "cn_name": "\u7532\u6c27\u54aa\u8349\u70df", "en_name": ["Imazamox", "3-Pyridinecarboxylic acid, 2-[4,5-dihydro-4-methyl-4-(1-methylethyl)-5-oxo-1H-imidazol-2-yl]-5-(methoxymethyl)-", "2-[4,5-Dihydro-4-methyl-4-(1-methylethyl)-5-oxo-1H-imidazol-2-yl]-5-(methoxymethyl)-3-pyridinecarboxylic acid", "CL 299263", "Imazamox", "AC 299263", "Raptor", "Raptor (herbicide)", "Pulsar", "(\u00b1)-Imazamox", "5-Methoxymethyl-2-(4-isopropyl-4-methyl-5-oxo-2-imidazolin-2-yl) nicotinic acid", "Sweeper", "Sweeper 70DG", "2-[4-Isopropyl-4-methyl-5-oxo-2-imidazolin-2-yl]-5-methoxymethylnicotinic acid", "Pulsar (herbicide)", "Pulsar 40", "Global", "(R,S)-Imazamox"], "SMILES": "C(O)(=O)C1=C(N=CC(COC)=C1)C=2NC(C(C)C)(C)C(=O)N2", "physical_data": {"Molecular Weight": "305.33", "Molecular Formula": "C15H19N3O4", "Melting Point": "166 \u00b0C", "Density": "1.39 g/cm\u00b3 @ Temp: 20 \u00b0C"}}