{"cas_no": "114369-43-6", "cn_name": "\u8148\u82ef\u5511", "en_name": ["Fenbuconazole", "1H-1,2,4-Triazole-1-propanenitrile, \u03b1-[2-(4-chlorophenyl)ethyl]-\u03b1-phenyl-", "\u03b1-[2-(4-Chlorophenyl)ethyl]-\u03b1-phenyl-1H-1,2,4-triazole-1-propanenitrile", "Fenethanil", "Indar 5", "Fenbuconazole", "RH 7592", "AG 4452", "4-(4-Chlorophenyl)-2-phenyl-2-(1H-1,2,4-triazol-1-ylmethyl)butyronitrile", "Indar"], "SMILES": "C(CN1C=NC=N1)(CCC2=CC=C(Cl)C=C2)(C#N)C3=CC=CC=C3", "physical_data": {"Molecular Weight": "336.82", "Molecular Formula": "C19H17ClN4", "Melting Point": "125 \u00b0C"}}