{"cas_no": "1143-50-6", "cn_name": "6,11(5H)-\u5417\u5429\u70f7\u5576\u4e8c\u916e", "en_name": ["5H-Dibenz[b,e]azepine-6,11-dione", "5H-Dibenz[b,e]azepine-6,11-dione", "6,11(5H)-Morphanthridinedione", "5H-Dibenzo[b,e]azepine-6,11-dione", "NSC 144965", "6,11-Dihydro-5H-dibenz[b,e]azepin-6,11-dione"], "SMILES": "O=C1C=2C(C(=O)NC=3C1=CC=CC3)=CC=CC2", "physical_data": {"Molecular Weight": "223.23", "Molecular Formula": "C14H9NO2", "Boiling Point": "230-234 \u00b0C @ Press: 0.3 Torr", "Melting Point": "245-246 \u00b0C"}}