{"cas_no": "1143-82-4", "cn_name": "5-\u7532\u57fa-3-\u82ef\u57fa\u5f02\u6076\u5511-4-\u7fa7\u9178\u4e59\u916f", "en_name": ["5-Methyl-3-phenylisoxazole-4-carboxylic acid ethyl ester", "4-Isoxazolecarboxylic acid, 5-methyl-3-phenyl-, ethyl ester", "5-Methyl-3-phenylisoxazole-4-carboxylic acid ethyl ester"], "SMILES": "C(OCC)(=O)C=1C(=NOC1C)C2=CC=CC=C2", "physical_data": {"Molecular Weight": "231.25", "Molecular Formula": "C13H13NO3", "Melting Point": "49 \u00b0C"}}