{"cas_no": "114420-56-3", "cn_name": "\u6e38\u79bb\u7094\u8349\u9178", "en_name": ["Clodinafop", "Propanoic acid, 2-[4-[(5-chloro-3-fluoro-2-pyridinyl)oxy]phenoxy]-, (2R)-", "Propanoic acid, 2-[4-[(5-chloro-3-fluoro-2-pyridinyl)oxy]phenoxy]-, (R)-", "(2R)-2-[4-[(5-Chloro-3-fluoro-2-pyridinyl)oxy]phenoxy]propanoic acid", "Clodinafop", "CGA 193469", "(R)-2-(4-((5-Chloro-3-fluoropyridin-2-yl)oxy)phenoxy)propanoic acid"], "SMILES": "O(C1=C(F)C=C(Cl)C=N1)C2=CC=C(OC(C(O)=O)C)C=C2", "physical_data": {"Molecular Weight": "311.69", "Molecular Formula": "C14H11ClFNO4", "Melting Point": "211-212 \u00b0C"}}