{"cas_no": "1144-74-7", "cn_name": "4-\u785d\u57fa\u4e8c\u82ef\u7532\u916e", "en_name": ["4-Nitrobenzophenone", "Methanone, (4-nitrophenyl)phenyl-", "Benzophenone, 4-nitro-", "(4-Nitrophenyl)phenylmethanone", "p-Nitrobenzophenone", "4-Nitrobenzophenone", "4-Nitrophenyl phenyl ketone", "p-Nitrophenyl phenyl ketone", "NSC 406623"], "SMILES": "C(=O)(C1=CC=C(N(=O)=O)C=C1)C2=CC=CC=C2", "physical_data": {"Molecular Weight": "227.22", "Molecular Formula": "C13H9NO3", "Melting Point": "138 \u00b0C"}}