{"cas_no": "114432-13-2", "cn_name": "\u6cdb\u6258\u6cd5\u9686", "en_name": ["Fantofarone", "Benzeneethanamine, 3,4-dimethoxy-N-methyl-N-[3-[4-[[2-(1-methylethyl)-1-indolizinyl]sulfonyl]phenoxy]propyl]-", "3,4-Dimethoxy-N-methyl-N-[3-[4-[[2-(1-methylethyl)-1-indolizinyl]sulfonyl]phenoxy]propyl]benzeneethanamine", "SR 33557", "Fantofarone"], "SMILES": "S(=O)(=O)(C1=C2N(C=C1C(C)C)C=CC=C2)C3=CC=C(OCCCN(CCC4=CC(OC)=C(OC)C=C4)C)C=C3", "physical_data": {"Molecular Weight": "550.71", "Molecular Formula": "C31H38N2O5S", "Melting Point": "82-83 \u00b0C", "Density": "1.21 g/cm\u00b3"}}