{"cas_no": "1145-01-3", "cn_name": "3,5-\u4e8c\u82ef\u57fa\u5421\u5511", "en_name": ["3,5-Diphenylpyrazole", "1H-Pyrazole, 3,5-diphenyl-", "Pyrazole, 3,5-diphenyl-", "3,5-Diphenyl-1H-pyrazole", "3,5-Diphenylpyrazole", "NSC 126937"], "SMILES": "C=1(C=C(NN1)C2=CC=CC=C2)C3=CC=CC=C3", "physical_data": {"Molecular Weight": "220.27", "Molecular Formula": "C15H12N2", "Boiling Point": "317 \u00b0C @ Press: 160 Torr", "Melting Point": "198 \u00b0C"}}