{"cas_no": "1145-80-8", "cn_name": "N-\u82c4\u6c27\u7fb0\u57fa-L-\u4e1d\u6c28\u9178", "en_name": ["N-(Benzyloxycarbonyl)-L-serine", "L-Serine, N-[(phenylmethoxy)carbonyl]-", "Serine, N-carboxy-, N-benzyl ester, L-", "L-Serine, N-carboxy-, N-benzyl ester", "N-[(Phenylmethoxy)carbonyl]-L-serine", "N-(Benzyloxycarbonyl)-L-serine", "N-Carbobenzoxy-L-serine", "N-Carbobenzyloxy-L-serine", "Benzyloxycarbonyl-L-serine", "N-[(Phenylmethoxy)carbonyl]serine", "NSC 286604", "(2S)-2-[(Benzyloxycarbonyl)amino]-3-hydroxypropanoic acid", "(S)-2-(Benzyloxycarbonylamino)-3-hydroxypropanoic acid", "L-Carbobenzyloxy serine", "(2S)-2-[[(Benzyloxy)carbonyl]amino]-3-hydroxypropanoic acid", "(2S)-3-Hydroxy-2-(phenylmethoxycarbonylamino)propanoic acid"], "SMILES": "C(OC(NC(C(O)=O)CO)=O)C1=CC=CC=C1", "physical_data": {"Molecular Weight": "239.22", "Molecular Formula": "C11H13NO5", "Melting Point": "121 \u00b0C"}}