{"cas_no": "1145-93-3", "cn_name": "4-\u7532\u6c27\u57fa\u82ef\u57fa\u78f7\u9178\u4e8c\u4e59\u916f", "en_name": ["Diethyl P-[(4-methoxyphenyl)methyl]phosphonate", "Phosphonic acid, P-[(4-methoxyphenyl)methyl]-, diethyl ester", "Phosphonic acid, (p-methoxybenzyl)-, diethyl ester", "Phosphonic acid, [(4-methoxyphenyl)methyl]-, diethyl ester", "Diethyl P-[(4-methoxyphenyl)methyl]phosphonate", "Diethyl (p-methoxybenzyl)phosphonate", "Diethyl (4-methoxybenzyl)phosphonate", "Diethyl 4-methoxybenzylphosphanate", "1-(Diethoxyphosphorylmethyl)-4-methoxybenzene"], "SMILES": "C(P(OCC)(OCC)=O)C1=CC=C(OC)C=C1", "physical_data": {"Molecular Weight": "258.25", "Molecular Formula": "C12H19O4P", "Boiling Point": "143 \u00b0C @ Press: 1 Torr", "Melting Point": "90 \u00b0C", "Density": "1.1363 g/cm\u00b3"}}