{"cas_no": "1145-56-8", "cn_name": "N-(2-\u4e59\u9170\u6c2f)-L-\u916a\u6c28\u9178", "en_name": ["N-(2-Chloroacetyl)-L-tyrosine", "L-Tyrosine, N-(2-chloroacetyl)-", "Tyrosine, N-(chloroacetyl)-, L-", "L-Tyrosine, N-(chloroacetyl)-", "N-(2-Chloroacetyl)-L-tyrosine", "N-(Chloroacetyl)-L-tyrosine", "N-Chloroacetyltyrosine", "NSC 523824", "(2S)-2-[(2-Chloroacetyl)amino]-3-(4-hydroxyphenyl)propanoic acid"], "SMILES": "C(C(NC(CCl)=O)C(O)=O)C1=CC=C(O)C=C1", "physical_data": {"Molecular Weight": "257.67", "Molecular Formula": "C11H12ClNO4", "Melting Point": "155 \u00b0C"}}