{"cas_no": "1145-76-2", "cn_name": "4-\u82c4\u6c27\u57fa-1-\u785d\u57fa\u82ef", "en_name": ["Benzyl 4-nitrophenyl ether", "Benzene, 1-nitro-4-(phenylmethoxy)-", "Ether, benzyl p-nitrophenyl", "1-Nitro-4-(phenylmethoxy)benzene", "Benzyl p-nitrophenyl ether", "4-(Benzyloxy)nitrobenzene", "Benzyl 4-nitrophenyl ether", "NSC 24667", "1-(Benzyloxy)-4-nitrobenzene", "[(4-Nitrophenoxy)methyl]benzene", "1-Nitro-4-phenylmethoxybenzene"], "SMILES": "O(CC1=CC=CC=C1)C2=CC=C(N(=O)=O)C=C2", "physical_data": {"Molecular Weight": "229.23", "Molecular Formula": "C13H11NO3", "Melting Point": "107 \u00b0C"}}