{"cas_no": "1145-81-9", "cn_name": "N-CBZ-\u7518\u6c28\u9178\u4e59\u916f", "en_name": ["N-[(Phenylmethoxy)carbonyl]glycine ethyl ester", "Glycine, N-[(phenylmethoxy)carbonyl]-, ethyl ester", "Glycine, N-carboxy-, N-benzyl ethyl ester", "N-[(Phenylmethoxy)carbonyl]glycine ethyl ester", "Ethyl Z-glycinate", "Ethyl carbobenzoxyglycinate", "N-Benzyloxycarbonylglycine ethyl ester", "N-Carboxyglycine N-benzyl ethyl ester", "Ethyl N-(benzyloxycarbonyl)glycinate", "Z-Gly-OEt", "NSC 617251"], "SMILES": "C(OC(NCC(OCC)=O)=O)C1=CC=CC=C1", "physical_data": {"Molecular Weight": "237.25", "Molecular Formula": "C12H15NO4", "Melting Point": "35.5-36.5 \u00b0C"}}