{"cas_no": "1145-73-9", "cn_name": "4-(\u4e8c\u7532\u57fa\u6c28\u57fa)\u82aa", "en_name": ["4-Dimethylaminostilbene", "Benzenamine, N,N-dimethyl-4-(2-phenylethenyl)-", "4-Stilbenamine, N,N-dimethyl-", "N,N-Dimethyl-4-(2-phenylethenyl)benzenamine", "4-Dimethylaminostilbene", "NSC 30991", "4-(N,N-Dimethylamino)stilbene"], "SMILES": "C(=CC1=CC=CC=C1)C2=CC=C(N(C)C)C=C2", "physical_data": {"Molecular Weight": "223.31", "Molecular Formula": "C16H17N", "Melting Point": "150 \u00b0C"}}