{"cas_no": "114567-47-4", "cn_name": "GANODERIOL F", "en_name": ["Ganoderiol F", "Lanosta-7,9(11),24-trien-3-one, 26,27-dihydroxy-", "26,27-Dihydroxylanosta-7,9(11),24-trien-3-one", "Ganoderiol F"], "SMILES": "CC12C=3C(C4(C)C(CC3)C(C)(C)C(=O)CC4)=CCC1(C)C(C(CCC=C(CO)CO)C)CC2", "physical_data": {"Molecular Weight": "454.68", "Molecular Formula": "C30H46O3", "Melting Point": "116-120 \u00b0C"}}