{"cas_no": "1146-65-2", "cn_name": "\u8418D8", "en_name": ["Naphthalene-d8", "Naphthalene-1,2,3,4,5,6,7,8-d8", "Naphthalene-d8", "Octadeuterionaphthalene", "Perdeuteronaphthalene", "Octadeuteronaphthalene", "Perdeuterated naphthalene", "Perdeuterionaphthalene", "Naphthalene (C10D8)", "1,2,3,4,5,6,7,8-Octadeuterionaphthalene"], "SMILES": "C12=C(C=CC=C1)C=CC=C2[2H]", "physical_data": {"Molecular Weight": "", "Molecular Formula": "C10D8", "Boiling Point": "217.1 \u00b0C @ Press: 760 Torr", "Melting Point": "77.5 \u00b0C", "Density": "1.242 g/cm\u00b3 @ Temp: 20 \u00b0C"}}