{"cas_no": "1146-99-2", "cn_name": "\u6c2f\u82ef\u831a\u4e8c\u916e", "en_name": ["Clorindione", "1H-Indene-1,3(2H)-dione, 2-(4-chlorophenyl)-", "1,3-Indandione, 2-(p-chlorophenyl)-", "2-(4-Chlorophenyl)-1H-indene-1,3(2H)-dione", "G 25766", "Chlorphenindione", "Indaliton", "Chlorindione", "Indalitan", "2-(p-Chlorophenyl)-1,3-indandione", "Clorindione", "2-(4-Chlorophenyl)-1,3-indandione", "M.G. 2552", "Chlophenadione", "Chlorphenadione", "Chlorathrombon", "Chlorindion", "2-(4-Chloro-phenyl)-indane-1,3-dione", "2-(4-Chlorophenyl)indene-1,3-dione", "2-(4-Chlorophenyl)-2,3-dihydro-1H-indene-1,3-dione"], "SMILES": "O=C1C(C(=O)C=2C1=CC=CC2)C3=CC=C(Cl)C=C3", "physical_data": {"Molecular Weight": "256.68", "Molecular Formula": "C15H9ClO2", "Melting Point": "145.5 \u00b0C"}}