{"cas_no": "1146-98-1", "cn_name": "\u6eb4\u831a\u4e8c\u916e", "en_name": ["2-(4-Bromophenyl)-1H-indene-1,3(2H)-dione", "1H-Indene-1,3(2H)-dione, 2-(4-bromophenyl)-", "1,3-Indandione, 2-(p-bromophenyl)-", "2-(4-Bromophenyl)-1H-indene-1,3(2H)-dione", "Bromindione", "Bromophenindione", "Haldinone", "Halinone", "2-(p-Bromophenyl)-1,3-indandione", "Fluidane", "2-(4-Bromophenyl)-1,3-indandione", "Bromophendione", "Circladin", "Fluidemin", "Fluidemol", "HL 255", "M. G. 2555", "2-(4-Bromophenyl)indene-1,3-dione"], "SMILES": "O=C1C(C(=O)C=2C1=CC=CC2)C3=CC=C(Br)C=C3", "physical_data": {"Molecular Weight": "301.13", "Molecular Formula": "C15H9BrO2", "Melting Point": "138 \u00b0C"}}