{"cas_no": "114676-59-4", "cn_name": "(2R,4R)-4-\u7f9f\u57fa\u5421\u54af\u70f7-2-\u7fa7\u9178\u7532\u916f\u76d0\u9178\u76d0", "en_name": ["D-Proline, 4-hydroxy-, methyl ester, hydrochloride (1:1), (4R)-", "D-Proline, 4-hydroxy-, methyl ester, hydrochloride (1:1), (4R)-", "D-Proline, 4-hydroxy-, methyl ester, hydrochloride, cis-", "D-Proline, 4-hydroxy-, methyl ester, hydrochloride, (4R)-", "(2R,4R)-4-Hydroxypyrrolidine-2-carboxylic acid methyl ester hydrochloride", "4-(R)-Hydroxypyrrolidine-2-(R)-carboxylic acid methyl ester hydrochloride", "Methyl (2R,4R)-4-hydroxypyrrolidine-2-carboxylate hydrochloride", "Methyl (2R,4R)-4-hydroxypyrrolidine-2-carboxylate hydrochloride", "(2R,4R)-Methyl 4-hydroxypyrrolidine-2-carboxylate hydrochloride"], "SMILES": "C(OC)(=O)C1CC(O)CN1.Cl", "physical_data": {"Molecular Weight": "", "Molecular Formula": "C6H11NO3.ClH", "Melting Point": "102-104 \u00b0C"}}