{"cas_no": "114607-46-4", "cn_name": "\u963f\u624e\u53f8\u7279", "en_name": ["Acitazanolast", "Acetic acid, 2-oxo-2-[[3-(2H-tetrazol-5-yl)phenyl]amino]-", "Acetic acid, oxo[[3-(1H-tetrazol-5-yl)phenyl]amino]-", "2-Oxo-2-[[3-(2H-tetrazol-5-yl)phenyl]amino]acetic acid", "WP 871", "3\u2032-(1H-Tetrazol-5-yl)oxanilic acid", "Acitazanolast", "Zepelin", "Zepelin (bronchodilator)", "[[3-(1H-1,2,3,4-Tetrazol-5-yl)phenyl]carbamoyl]formic acid", "2-Oxo-2-[3-(2H-tetrazol-5-yl)anilino]acetic acid", "2-(3-(1H-Tetrazol-5-yl)phenylamino)-2-oxoacetic acid"], "SMILES": "N(C(C(O)=O)=O)C=1C=C(C=CC1)C=2NN=NN2", "physical_data": {"Molecular Weight": "233.18", "Molecular Formula": "C9H7N5O3", "Melting Point": "241-243 \u00b0C (decomp)"}}