{"cas_no": "114798-26-4", "cn_name": "\u6d1b\u6c99\u5766", "en_name": ["Losartan", "1H-Imidazole-5-methanol, 2-butyl-4-chloro-1-[[2\u2032-(2H-tetrazol-5-yl)[1,1\u2032-biphenyl]-4-yl]methyl]-", "1H-Imidazole-5-methanol, 2-butyl-4-chloro-1-[[2\u2032-(1H-tetrazol-5-yl)[1,1\u2032-biphenyl]-4-yl]methyl]-", "2-Butyl-4-chloro-1-[[2\u2032-(2H-tetrazol-5-yl)[1,1\u2032-biphenyl]-4-yl]methyl]-1H-imidazole-5-methanol", "DUP 89", "Losartan", "Lortaan", "2-Butyl-4-chloro-1-[[2\u2032-(1H-tetrazol-5-yl)-1,1\u2032-biphenyl-4-yl]methyl]-1H-imidazole-5-methanol", "Angizaar", "Allisartan", "1-[1-[[2\u2032-(2H-Tetrazol-5-yl)biphenyl-4-yl]methyl]-2-butyl-4-chloro-1H-imidazol-5-yl]methanol", "Lozap", "Xartan", "[2-Butyl-5-chloro-3-[2\u2032-(2H-tetrazol-5-yl)-biphenyl-4-ylmethyl]-3H-imidazol-4-yl]-methanol", "[2-Butyl-5-chloro-3-[[4-[2-(2H-tetrazol-5-yl)phenyl]phenyl]methyl]imidazol-4-yl]methanol", "[2-Butyl-4-chloro-1-([4-[2-(1H-1,2,3,4-tetrazol-5-yl)phenyl]phenyl]methyl)-1H-imidazol-5-yl]methanol", "MeSH ID: D019808"], "SMILES": "C(N1C(CCCC)=NC(Cl)=C1CO)C2=CC=C(C=C2)C3=C(C=CC=C3)C=4NN=NN4", "physical_data": {"Molecular Weight": "422.91", "Molecular Formula": "C22H23ClN6O", "Melting Point": "184 \u00b0C"}}