{"cas_no": "1147-65-5", "cn_name": "(2-\u7fa7\u82ef\u57fa)\u4e9a\u6c28\u57fa\u4e8c\u4e59\u9178", "en_name": ["2-[Bis(carboxymethyl)amino]benzoic acid", "Benzoic acid, 2-[bis(carboxymethyl)amino]-", "Anthranilic acid, N,N-bis(carboxymethyl)-", "Acetic acid, [(o-carboxyphenyl)imino]di-", "2-[Bis(carboxymethyl)amino]benzoic acid", "ANDA", "N,N-Bis(carboxymethyl)anthranilic acid", "Anthranil-N,N-diacetic acid", "Anthranildiacetic acid", "Anthranilic-N,N-diacetic acid", "N-(o-Carboxyphenyl)iminodiacetic acid", "N-Carboxymethyl-N-(2-carboxyphenyl)glycine", "2-(Carboxyphenyl)iminodiacetic acid", "N-(2-Carboxyphenyl)iminodiacetic acid", "2,2\u2032-((2-Carboxyphenyl)azanediyl)diacetic acid"], "SMILES": "N(CC(O)=O)(CC(O)=O)C1=C(C(O)=O)C=CC=C1", "physical_data": {"Molecular Weight": "253.21", "Molecular Formula": "C11H11NO6", "Melting Point": "228 \u00b0C (decomp)"}}