{"cas_no": "114772-55-3", "cn_name": "4'-[(2-\u4e01\u57fa-4-\u6c2f-5-\u7f9f\u7532\u57fa-1H-\u54aa\u5511-1-\u57fa)\u7532\u57fa]-1,1'-\u8054\u82ef-2-\u7532\u8148", "en_name": ["4\u2032-[[2-Butyl-4-chloro-5-(hydroxymethyl)-1H-imidazol-1-yl]methyl][1,1\u2032-biphenyl]-2-carbonitrile", "[1,1\u2032-Biphenyl]-2-carbonitrile, 4\u2032-[[2-butyl-4-chloro-5-(hydroxymethyl)-1H-imidazol-1-yl]methyl]-", "4\u2032-[[2-Butyl-4-chloro-5-(hydroxymethyl)-1H-imidazol-1-yl]methyl][1,1\u2032-biphenyl]-2-carbonitrile", "2-Butyl-4-chloro-1-[(2\u2032-cyanobiphenyl-4-yl)methyl]-5-hydroxymethylimidazole", "4\u2032-(2-Butyl-4-chloro-5-hydroxymethyl-1H-imidazol-1-yl)-1,1\u2032-biphenyl-2-carbonitrile", "2-[4-[[2-Butyl-4-chloro-5-(hydroxymethyl)imidazol-1-yl]methyl]phenyl]benzonitrile"], "SMILES": "C(N1C(CCCC)=NC(Cl)=C1CO)C2=CC=C(C=C2)C3=C(C#N)C=CC=C3", "physical_data": {"Molecular Weight": "379.88", "Molecular Formula": "C22H22ClN3O", "Melting Point": "158-159 \u00b0C"}}