{"cas_no": "114772-54-2", "cn_name": "2-\u6c30\u57fa-4'-\u6eb4\u7532\u57fa\u8054\u82ef", "en_name": ["4-(Bromomethyl)-2\u2032-cyanobiphenyl", "[1,1\u2032-Biphenyl]-2-carbonitrile, 4\u2032-(bromomethyl)-", "4\u2032-(Bromomethyl)[1,1\u2032-biphenyl]-2-carbonitrile", "4-(Bromomethyl)-2\u2032-cyanobiphenyl", "4\u2032-(Bromomethyl)-2-cyanobiphenyl", "2-Cyano-4\u2032-(bromomethyl)biphenyl", "4-(2-Cyanophenyl)benzyl bromide", "4\u2032-Bromomethylbiphenyl-2-carbonitrile", "2-(4-Bromomethylphenyl)benzonitrile", "2\u2032-(Cyano)biphenyl-4-ylmethyl bromide", "4-Bromomethyl-2\u2032-cyano-1,1\u2032-biphenyl", "2\u2032-Cyano-4-(bromomethyl)-1,1\u2032-biphenyl", "2-(4\u2032-Bromomethylphenyl)benzonitrile", "4\u2032-Bromomethyl-2-cyano-1,1\u2032-biphenyl"], "SMILES": "C(#N)C1=C(C=CC=C1)C2=CC=C(CBr)C=C2", "physical_data": {"Molecular Weight": "272.14", "Molecular Formula": "C14H10BrN", "Melting Point": "120-122 \u00b0C"}}