{"cas_no": "114772-38-2", "cn_name": "4'-\u6eb4\u7532\u57fa-2-\u7532\u9178\u7532\u916f\u8054\u82ef", "en_name": ["Methyl 4\u2032-(bromomethyl)biphenyl-2-carboxylate", "[1,1\u2032-Biphenyl]-2-carboxylic acid, 4\u2032-(bromomethyl)-, methyl ester", "Methyl 4\u2032-(bromomethyl)-1,1\u2032-biphenyl-2-carboxylate", "Methyl 4\u2032-(bromomethyl)biphenyl-2-carboxylate", "4-(2\u2032-Carbomethoxyphenyl)benzyl bromide", "Methyl 2-(4\u2032-bromomethylphenyl)benzoate", "2\u2032-(Methoxycarbonyl)biphenyl-4-ylmethyl bromide", "Methyl 2-[4-(bromomethyl)phenyl]benzoate", "4\u2032-(Bromomethyl)biphenyl-2-carboxylic acid methyl ester", "2-(4-Bromomethylphenyl)benzoic acid methyl ester", "4\u2032-Bromomethyl-1,1\u2032-biphenyl-2-carboxylic acid methyl ester", "4-Bromomethylbiphenyl-2\u2032-carboxylic acid methyl ester"], "SMILES": "C(OC)(=O)C1=C(C=CC=C1)C2=CC=C(CBr)C=C2", "physical_data": {"Molecular Weight": "305.17", "Molecular Formula": "C15H13BrO2", "Melting Point": "40-42 \u00b0C"}}