{"cas_no": "114747-45-4", "cn_name": "1,3-\u4e8c\u6c22-1,3,3-\u4e09\u7532\u57fa-6'-(1-\u54cc\u5576\u57fa)\u87ba[2H-\u5432\u54da-2,3'-[3H]\u8418\u5e76[2,1-B][1,4]\u6076\u55ea]", "en_name": ["1,3-Dihydro-1,3,3-trimethyl-6\u2032-(1-piperidinyl)spiro[2H-indole-2,3\u2032-[3H]naphth[2,1-b][1,4]oxazine]", "Spiro[2H-indole-2,3\u2032-[3H]naphth[2,1-b][1,4]oxazine], 1,3-dihydro-1,3,3-trimethyl-6\u2032-(1-piperidinyl)-", "1,3-Dihydro-1,3,3-trimethyl-6\u2032-(1-piperidinyl)spiro[2H-indole-2,3\u2032-[3H]naphth[2,1-b][1,4]oxazine]", "Technocolor Purple 3", "1,3,3-Trimethylindolino-6\u2032-(1-piperidinyl)spironaphthoxazine", "1,3,3-Trimethylindolino-6\u2032-(1-piperidinyl)spironaphthooxazine", "1,3,3-Trimethyl-6\u2032-(1-piperidinyl)spiroindolinenaphthooxazine", "1,3-Dihydro-1,3,3-trimethyl-6\u2032-(1-piperidinyl)spiro[2H-indol-2,3\u2032-(3H)-naphtho(2,1-b)(1,4)-oxazine]"], "SMILES": "CN1C2(OC=3C(N=C2)=C4C(=C(C3)N5CCCCC5)C=CC=C4)C(C)(C)C=6C1=CC=CC6", "physical_data": {"Molecular Weight": "411.54", "Molecular Formula": "C27H29N3O", "Melting Point": "228-230 \u00b0C"}}