{"cas_no": "1147-43-9", "cn_name": "2'-\u6c28\u57fa\u4e8c\u82ef\u916e-2-\u7fa7\u9178", "en_name": ["2-(2-Aminobenzoyl)benzoic acid", "Benzoic acid, 2-(2-aminobenzoyl)-", "Benzoic acid, o-anthraniloyl-", "2-(2-Aminobenzoyl)benzoic acid", "2-Amino-2\u2032-carboxybenzophenone", "o-Anthraniloylbenzoic acid", "2-Aminobenzophenone-2\u2032-carboxylic acid"], "SMILES": "C(=O)(C1=C(C(O)=O)C=CC=C1)C2=C(N)C=CC=C2", "physical_data": {"Molecular Weight": "241.24", "Molecular Formula": "C14H11NO3", "Melting Point": "199 \u00b0C"}}