{"cas_no": "114715-77-4", "cn_name": "2-(\u4e09\u6c1f\u7532\u57fa)-2-\u7f9f\u57fa\u4e19\u9178", "en_name": ["3,3,3-Trifluoro-2-hydroxy-2-methylpropanoic acid", "Propanoic acid, 3,3,3-trifluoro-2-hydroxy-2-methyl-", "3,3,3-Trifluoro-2-hydroxy-2-methylpropanoic acid", "3,3,3-Trifluoro-2-hydroxy-2-methylpropionic acid", "2-Hydroxy-2-(trifluoromethyl)propanoic acid", "2-Trifluoromethyl-2-hydroxypropionic acid", "\u03b1-Methyl-3,3,3-trifluorolactic acid", "2-Hydroxy-2-(trifluoromethyl)propionic acid", "\u03b1-(Trifluoromethyl)lactic acid", "2-(Trifluoromethyl)-2-hydroxypropanoic acid", "2-Hydroxy-2-methyl-3,3,3-trifluoropropanoic acid"], "SMILES": "C(C(F)(F)F)(C(O)=O)(C)O", "physical_data": {"Molecular Weight": "158.08", "Molecular Formula": "C4H5F3O3", "Boiling Point": "189 \u00b0C", "Melting Point": "88 \u00b0C"}}