{"cas_no": "114772-53-1", "cn_name": "2-\u6c30\u57fa-4'-\u7532\u57fa\u8054\u82ef", "en_name": ["2-Cyano-4\u2032-methylbiphenyl", "[1,1\u2032-Biphenyl]-2-carbonitrile, 4\u2032-methyl-", "4\u2032-Methyl[1,1\u2032-biphenyl]-2-carbonitrile", "2-Cyano-4\u2032-methylbiphenyl", "4\u2032-Methylbiphenyl-2-carbonitrile", "4-Methyl-2\u2032-cyanobiphenyl", "4\u2032-Methyl-2-cyanobiphenyl", "2\u2032-Cyano-4-methylbiphenyl", "2-Cyano-4\u2032-methyl-1,1\u2032-biphenyl", "2-(4-Methylphenyl)benzonitrile", "2-(p-Tolyl)benzonitrile", "4\u2032-Methyl-1,1\u2032-biphenyl-2-ylcarbonitrile"], "SMILES": "C(#N)C1=C(C=CC=C1)C2=CC=C(C)C=C2", "physical_data": {"Molecular Weight": "193.24", "Molecular Formula": "C14H11N", "Melting Point": "47-48 \u00b0C"}}