{"cas_no": "114744-51-3", "cn_name": "7-\u6eb4-1,2,3,4-\u56db\u6c22\u55b9\u5549", "en_name": ["7-Bromo-1,2,3,4-tetrahydroquinoline", "Quinoline, 7-bromo-1,2,3,4-tetrahydro-", "7-Bromo-1,2,3,4-tetrahydroquinoline"], "SMILES": "BrC=1C=C2C(=CC1)CCCN2", "physical_data": {"Molecular Weight": "212.09", "Molecular Formula": "C9H10BrN", "Melting Point": "68-69 \u00b0C"}}