{"cas_no": "114873-05-1", "cn_name": "BOC-L-2-\u7532\u57fa\u82ef\u4e19\u6c28\u9178", "en_name": ["N-[(1,1-Dimethylethoxy)carbonyl]-2-methyl-L-phenylalanine", "L-Phenylalanine, N-[(1,1-dimethylethoxy)carbonyl]-2-methyl-", "N-[(1,1-Dimethylethoxy)carbonyl]-2-methyl-L-phenylalanine", "(2S)-2-[(tert-Butoxycarbonyl)amino]-3-(2-methylphenyl)propionic acid", "(S)-2-(tert-Butoxycarbonylamino)-3-o-tolylpropanoic acid"], "SMILES": "C(C(NC(OC(C)(C)C)=O)C(O)=O)C1=C(C)C=CC=C1", "physical_data": {"Molecular Weight": "279.33", "Molecular Formula": "C15H21NO4", "Melting Point": "118-119 \u00b0C"}}