{"cas_no": "1148-79-4", "cn_name": "\u03b1\uff0c\u03b1\uff0c\u03b1-\u4e09\u8054\u5421\u5576", "en_name": ["2,2\u2032:6\u2032,2\u2032\u2032-Terpyridine", "2,2\u2032:6\u2032,2\u2032\u2032-Terpyridine", "2,2\u2032,2\u2032\u2032-Tripyridine", "Ba 2799", "2,2\u2032,2\u2032\u2032-Terpyridine", "2,6-Bis(2-pyridyl)pyridine", "2,2\u2032,2\u2032\u2032-Terpyridyl", "\u03b1,\u03b1\u2032,\u03b1\u2032\u2032-Tripyridyl", "2,2\u2032,2\u2032\u2032-Tripyridyl", "2,2\u2032:6\u2032,2\u2032\u2032-Terpyridyl", "NSC 3905", "NSC 36755", "2,6-Di(2-pyridyl)pyridine", "2,6-Di(pyridin-2-yl)pyridine", "TPY", "2,6-Bis(pyridin-2-yl)pyridine"], "SMILES": "C=1(N=C(C=CC1)C2=CC=CC=N2)C3=CC=CC=N3", "physical_data": {"Molecular Weight": "233.27", "Molecular Formula": "C15H11N3", "Melting Point": "89-91 \u00b0C"}}