{"cas_no": "1148-11-4", "cn_name": "N-\u82c4\u6c27\u7fb0\u57fa-L-\u812f\u6c28\u9178", "en_name": ["Benzyloxycarbonyl-L-proline", "1,2-Pyrrolidinedicarboxylic acid, 1-(phenylmethyl) ester, (2S)-", "1,2-Pyrrolidinedicarboxylic acid, 1-benzyl ester, L-", "1,2-Pyrrolidinedicarboxylic acid, 1-(phenylmethyl) ester, (S)-", "N-Carbobenzoxy-L-proline", "Benzyloxycarbonyl-L-proline", "1-Carbobenzoxy-L-proline", "N-(Benzyloxycarbonyl)-L-proline", "1-(Benzyloxycarbonyl)-L-proline", "Carbobenzoxy-S-proline", "Carbobenzoxy-L-proline", "Carbobenzyloxy-L-proline", "N-Benzyloxycarbonyl-(S)-proline", "N-(Carbobenzyloxy)-L-proline", "Cbz-L-Pro-OH", "(2S)-1,2-Pyrrolidinedicarboxylic acid 1-(phenylmethyl) ester", "N-[(Phenylmethoxy)carbonyl]-L-proline", "(S)-1-(Benzyloxycarbonyl)pyrrolidine-2-carboxylic acid", "N-Cbz-L-proline", "(2S)-1-(Benzyloxycarbonyl)pyrrolidine-2-carboxylic acid", "(2S)-1-(Benzyloxycarbonyl)pyrrolidine-2-carboxylic acid", "N-Carbobenzyloxy-(S)-proline", "L-Cbz-Proline", "(2S)-1-Phenylmethoxycarbonylpyrrolidine-2-carboxylic acid"], "SMILES": "C(OCC1=CC=CC=C1)(=O)N2C(C(O)=O)CCC2", "physical_data": {"Molecular Weight": "249.26", "Molecular Formula": "C13H15NO4", "Melting Point": "77 \u00b0C"}}