{"cas_no": "114971-52-7", "cn_name": "\u82c4\u57fa\u4e09\u7532\u57fa\u4e8c\u6c2f\u7898\u9178\u94f5", "en_name": ["Benzyltrimethylammonium dichloroiodate", "Benzenemethanaminium, N,N,N-trimethyl-, dichloroiodate(1-) (1:1)", "Benzenemethanaminium, N,N,N-trimethyl-, dichloroiodate(1-)", "Iodate(1-), dichloro-, N,N,N-trimethylbenzenemethanaminium", "Benzyltrimethylammonium dichloroiodate", "Benzyltrimethylammonium dichloroiodide"], "SMILES": "[I-](Cl)Cl.C([N+](C)(C)C)C1=CC=CC=C1", "physical_data": {"Molecular Weight": "", "Molecular Formula": "C10H16N.Cl2I", "Melting Point": "125-126 \u00b0C"}}