{"cas_no": "1149-99-1", "cn_name": "\u9690\u9661\u5934\u83cc\u7d20S", "en_name": ["(2\u2032S,3\u2032R,6\u2032R)-2\u2032,3\u2032-Dihydro-3\u2032,6\u2032-dihydroxy-2\u2032-(hydroxymethyl)-2\u2032,4\u2032,6\u2032-trimethylspiro[cyclopropane-1,5\u2032-[5H]inden]-7\u2032(6\u2032H)-one", "Spiro[cyclopropane-1,5\u2032-[5H]inden]-7\u2032(6\u2032H)-one, 2\u2032,3\u2032-dihydro-3\u2032,6\u2032-dihydroxy-2\u2032-(hydroxymethyl)-2\u2032,4\u2032,6\u2032-trimethyl-, (2\u2032S,3\u2032R,6\u2032R)-", "Illudin S", "Spiro[cyclopropane-1,5\u2032-[5H]inden]-7\u2032(6\u2032H)-one, 2\u2032,3\u2032-dihydro-3\u2032,6\u2032-dihydroxy-2\u2032-(hydroxymethyl)-2\u2032,4\u2032,6\u2032-trimethyl-, [2\u2032S-(2\u2032\u03b1,3\u2032\u03b2,6\u2032\u03b1)]-", "(2\u2032S,3\u2032R,6\u2032R)-2\u2032,3\u2032-Dihydro-3\u2032,6\u2032-dihydroxy-2\u2032-(hydroxymethyl)-2\u2032,4\u2032,6\u2032-trimethylspiro[cyclopropane-1,5\u2032-[5H]inden]-7\u2032(6\u2032H)-one", "Illudine S", "Lampterol", "Lunamycin", "NSC 400979", "NSC 626369"], "SMILES": "CC=1C2(CC2)C(C)(O)C(=O)C=3C1C(O)C(CO)(C)C3", "physical_data": {"Molecular Weight": "264.32", "Molecular Formula": "C15H20O4", "Melting Point": "124-126 \u00b0C"}}