{"cas_no": "1149-24-2", "cn_name": "2,6-\u4e8c\u7532\u57fa\u5421\u5576-3,5-\u4e8c\u7532\u9178\u4e8c\u4e59\u916f", "en_name": ["2,6-Dimethyl-3,5-pyridinedicarboxylic acid diethyl ester", "3,5-Pyridinedicarboxylic acid, 2,6-dimethyl-, 3,5-diethyl ester", "3,5-Pyridinedicarboxylic acid, 2,6-dimethyl-, diethyl ester", "Diethyl 2,6-dimethyl-3,5-pyridinedicarboxylate", "2,6-Dimethyl-3,5-pyridinedicarboxylic acid diethyl ester", "3,5-Di(ethoxycarbonyl)-2,6-dimethylpyridine", "2,6-Dimethyl-3,5-dicarbethoxypyridine", "3,5-Bis(ethoxycarbonyl)-2,6-dimethylpyridine", "2,6-Dimethyl-3,5-di(ethoxycarbonyl)pyridine", "3,5-Dicarboethoxy-2,6-dimethylpyridine", "3,5-Dicarbethoxy-2,6-dimethylpyridine", "NSC 58515", "Diethyl 2,6-dimethyl-3,5-dicarboxylate", "3,5-Diethyl 2,6-dimethylpyridine-3,5-dicarboxylate"], "SMILES": "C(OCC)(=O)C=1C=C(C(OCC)=O)C(C)=NC1C", "physical_data": {"Molecular Weight": "251.28", "Molecular Formula": "C13H17NO4", "Melting Point": "70-72 \u00b0C"}}