{"cas_no": "114977-28-5", "cn_name": "\u591a\u897f\u4ed6\u8d5b", "en_name": ["Docetaxel", "Benzenepropanoic acid, \u03b2-[[(1,1-dimethylethoxy)carbonyl]amino]-\u03b1-hydroxy-, (2aR,4S,4aS,6R,9S,11S,12S,12aR,12bS)-12b-(acetyloxy)-12-(benzoyloxy)-2a,3,4,4a,5,6,9,10,11,12,12a,12b-dodecahydro-4,6,11-trihydroxy-4a,8,13,13-tetramethyl-5-oxo-7,11-methano-1H-cyclodeca[3,4]benz[1,2-b]oxet-9-yl ester, (\u03b1R,\u03b2S)-", "Benzenepropanoic acid, \u03b2-[[(1,1-dimethylethoxy)carbonyl]amino]-\u03b1-hydroxy-, 12b-(acetyloxy)-12-(benzoyloxy)-2a,3,4,4a,5,6,9,10,11,12,12a,12b-dodecahydro-4,6,11-trihydroxy-4a,8,13,13-tetramethyl-5-oxo-7,11-methano-1H-cyclodeca[3,4]benz[1,2-b]oxet-9-yl ester, [2aR-[2a\u03b1,4\u03b2,4a\u03b2,6\u03b2,9\u03b1(\u03b1R*,\u03b2S*),11\u03b1,12\u03b1,12a\u03b1,12b\u03b1]]-", "7,11-Methano-1H-cyclodeca[3,4]benz[1,2-b]oxete, benzenepropanoic acid deriv.", "RP 56976", "Docetaxel", "Taxotere", "N-Debenzoyl-N-tert-butoxycarbonyl-10-deacetyltaxol", "Docetaxol", "Docetere", "Taxotel", "SID 530", "Duopafei", "Docefrez", "BIND 014", "Miradocetaxel", "CKD 810", "CRLX 301", "ATI 1123"], "SMILES": "O(C(C)=O)C12C3C(OC(=O)C4=CC=CC=C4)C5(O)C(C)(C)C(C(O)C(=O)C3(C)C(O)CC1OC2)=C(C)C(OC(C(C(NC(OC(C)(C)C)=O)C6=CC=CC=C6)O)=O)C5", "physical_data": {"Molecular Weight": "807.88", "Molecular Formula": "C43H53NO14", "Melting Point": "232 \u00b0C"}}