{"cas_no": "1149-26-4", "cn_name": "CBZ-L-\u7f2c\u6c28\u9178", "en_name": ["Benzyloxycarbonyl-L-valine", "L-Valine, N-[(phenylmethoxy)carbonyl]-", "Valine, N-carboxy-, N-benzyl ester, L-", "N-[(Phenylmethoxy)carbonyl]-L-valine", "N-Carbobenzoxy-L-valine", "N-(Benzyloxycarbonyl)valine", "Benzyloxycarbonyl-L-valine", "N-Carbobenzoxyvaline", "N-(Benzyloxycarbonyl)-L-valine", "Carbobenzoxy-L-valine", "N-Benzyloxycarbonyl-(S)-valine", "CBZ-L-valine", "N-Carbobenzyloxy-L-valine", "(+)-N-[(Phenylmethoxy)carbonyl]-L-valine", "(S)-2-[(Benzyloxycarbonyl)amino]-3-methylbutanoic acid", "(2S)-2-[(Benzyloxycarbonyl)amino]-3-methylbutanoic acid", "(2S)-3-Methyl-2-(phenylmethoxycarbonylamino)butanoic acid", "N-Cbz-L-valine"], "SMILES": "C(NC(OCC1=CC=CC=C1)=O)(C(C)C)C(O)=O", "physical_data": {"Molecular Weight": "251.28", "Molecular Formula": "C13H17NO4", "Melting Point": "64-65 \u00b0C"}}