{"cas_no": "1149-23-1", "cn_name": "\u4e8c\u6c22\u5421\u5576", "en_name": ["Hantzsch ester", "3,5-Pyridinedicarboxylic acid, 1,4-dihydro-2,6-dimethyl-, 3,5-diethyl ester", "3,5-Pyridinedicarboxylic acid, 1,4-dihydro-2,6-dimethyl-, diethyl ester", "2,6-Dimethyl-3,5-dicarbethoxy-1,4-dihydropyridine", "3,5-Bis(ethoxycarbonyl)-1,4-dihydro-2,6-dimethylpyridine", "1,4-Dihydro-2,6-dimethyl-3,5-pyridinedicarboxylic acid diethyl ester", "3,5-Diethoxycarbonyl-1,4-dihydro-2,6-dimethylpyridine", "Hantzsch ester", "3,5-Dicarbethoxy-2,6-dimethyl-1,4-dihydropyridine", "Diludine", "Diethyl 1,4-dihydro-2,6-dimethyl-3,5-pyridinedicarboxylate", "2,6-Dimethyl-3,5-di(carboethoxy)-1,4-dihydropyridine", "1,4-Dihydro-3,5-dicarboxylic acid diethyl ester-2,6-dimethylpyridine", "Ethidine", "3,5-Dicarboethoxy-2,6-dimethyl-1,4-dihydropyridine", "2,6-Dimethyl-3,5-diethoxycarbonyl-1,4-dihydropyridine", "Hantzsch's dihydropyridine", "3,5-Diethoxycarbonyl-2,6-dimethyl-1,4-dihydropyridine", "RR 116", "Diethone", "Diethyl 2,6-dimethyl-1,4-dihydropyridine-3,5-dicarboxylate", "Diludin", "2,6-Dimethyl-1,4-dihydropyridine-3,5-dicarboxylic acid diethyl ester", "NSC 120573", "NSC 3344", "3,5-Bis(ethoxycarbonyl)-2,6-dimethyl-1,4-dihydropyridine", "3,5-Diethyl 2,6-dimethyl-1,4-dihydropyridine-3,5-dicarboxylate"], "SMILES": "C(OCC)(=O)C=1CC(C(OCC)=O)=C(C)NC1C", "physical_data": {"Molecular Weight": "253.29", "Molecular Formula": "C13H19NO4", "Melting Point": "182-183 \u00b0C"}}