{"cas_no": "115-69-5", "cn_name": "2-\u6c28\u57fa-2-\u7532\u57fa-1,3-\u4e19\u4e8c\u9187", "en_name": ["2-Amino-2-methyl-1,3-propanediol", "1,3-Propanediol, 2-amino-2-methyl-", "2-Amino-2-methyl-1,3-propanediol", "Aminoglycol", "AMPD", "1,1-Di(hydroxymethyl)ethylamine", "1,3-Dihydroxy-2-amino-2-methylpropane", "1,3-Dihydroxy-2-methyl-2-propylamine", "2-Methyl-2-amino-1,3-propanediol", "Amediol", "Ammediol", "Bis", "2-Amino-2-methylpropan-1,3-diol", "NSC 6364", "AMPD Ultra PC", "2-Amino-2-methyl-1,3-propanol", "2-Amino-2-methylpropane-l,3-diol"], "SMILES": "C(CO)(CO)(C)N", "physical_data": {"Molecular Weight": "105.14", "Molecular Formula": "C4H11NO2", "Boiling Point": "151-152 \u00b0C", "Melting Point": "110 \u00b0C"}}