{"cas_no": "115-22-0", "cn_name": "3-\u7f9f\u57fa-3-\u7532\u57fa-2-\u4e01\u916e", "en_name": ["3-Hydroxy-3-methyl-2-butanone", "2-Butanone, 3-hydroxy-3-methyl-", "3-Hydroxy-3-methyl-2-butanone", "2-Hydroxy-2-methyl-3-butanone", "3-Methylacetoin", "Dimethylacetylcarbinol", "2-Methyl-2-hydroxy-3-butanone", "Methylacetoin", "1-Hydroxy-1-methylethyl methyl ketone", "3-Hydroxy-3-methylbutanone", "Acetyldimethylcarbinol", "3-Methyl-3-hydroxy-2-butanone", "NSC 5576", "2-Methyl-3-oxobutan-2-ol"], "SMILES": "C(C(C)=O)(C)(C)O", "physical_data": {"Molecular Weight": "102.13", "Molecular Formula": "C5H10O2", "Boiling Point": "140.5 \u00b0C", "Melting Point": "84-85 \u00b0C", "Density": "0.9632 g/cm\u00b3 @ Temp: 21 \u00b0C"}}