{"cas_no": "115-07-1", "cn_name": "\u4e19\u70ef", "en_name": ["Propylene", "1-Propene", "Propene", "Methylethylene", "Propylene", "1-Propylene", "R 1270", "HC 1270", "N 25", "N 25 (olefin)"], "SMILES": "C(C)=C", "physical_data": {"Molecular Weight": "42.08", "Molecular Formula": "C3H6", "Boiling Point": "-48 \u00b0C @ Press: 760 Torr", "Melting Point": "-185 \u00b0C", "Density": "0.5 g/cm\u00b3"}}