{"cas_no": "115-27-5", "cn_name": "\u6c2f\u6865\u9178\u9150", "en_name": ["Chlorendic anhydride", "4,7-Methanoisobenzofuran-1,3-dione, 4,5,6,7,8,8-hexachloro-3a,4,7,7a-tetrahydro-", "5-Norbornene-2,3-dicarboxylic anhydride, 1,4,5,6,7,7-hexachloro-", "Bicyclo[2.2.1]hept-5-ene-2,3-dicarboxylic anhydride, 1,4,5,6,7,7-hexachloro-", "4,5,6,7,8,8-Hexachloro-3a,4,7,7a-tetrahydro-4,7-methanoisobenzofuran-1,3-dione", "Chlorendic anhydride", "2,3-Dicarboxy-1,4,5,6,7,7-hexachlorobicyclo[2.2.1]hept-5-ene anhydride", "HET Anhydride", "1,4,5,6,7,7-Hexachlorobicyclo[2.2.1]-5-heptene-2,3-dicarboxylic acid anhydride", "1,4,5,6,7,7-Hexachlorobicyclo[2.2.1]hept-5-ene-2,3-dicarboxylic anhydride", "endo-1,4,5,6,7,7-Hexachloro-1,2,3,4-tetrahydro-5-norbornene-2,3-dicarboxylic acid anhydride", "3,4,5,6,7,7-Hexachloro-1,2,3,6-tetrahydro-3,6-endo-methylenephthalic anhydride", "Hexachloroendomethylene tetrahydrophthalic anhydride", "1,4,5,6,7,7-Hexachloro-5-norbornene-2,3-dicarboxylic anhydride", "Bicyclo[2.2.1]hept-5-ene-2,3-dicarboxylic acid, 1,4,5,6,7,7-hexachloro-, anhydride", "Hexachloro-5-norbornene-2,3-dicarboxylic anhydride", "1,4,5,6,7,7-Hexachloro-5-bicyclo[2.2.1]heptene-2,3-dicarboxylic anhydride", "Chloran 542", "Kayahard CLA", "NSC 22229"], "SMILES": "ClC12C3C(C(Cl)(C1(Cl)Cl)C(Cl)=C2Cl)C(=O)OC3=O", "physical_data": {"Molecular Weight": "370.83", "Molecular Formula": "C9H2Cl6O3", "Melting Point": "239 \u00b0C", "Density": "173 g/cm\u00b3"}}