{"cas_no": "115-95-7", "cn_name": "\u4e59\u9178\u82b3\u6a1f\u916f", "en_name": ["Linalyl acetate", "1,6-Octadien-3-ol, 3,7-dimethyl-, 3-acetate", "1,6-Octadien-3-ol, 3,7-dimethyl-, acetate", "Linalool acetate", "Acetic acid linalool ester", "Bergamiol", "Bergamol", "Linalyl acetate", "3,7-Dimethyl-1,6-octadien-3-yl acetate", "Bergamot mint oil", "3-Acetoxy-3,7-dimethyl-1,6-octadiene", "(\u00b1)-Linaloyl acetate", "dl-Linalool acetate", "(\u00b1)-Linalyl acetate", "1,5-Dimethyl-1-vinyl-4-hexenyl acetate", "NSC 2138"], "SMILES": "C(CCC=C(C)C)(OC(C)=O)(C=C)C", "physical_data": {"Molecular Weight": "196.29", "Molecular Formula": "C12H20O2", "Boiling Point": "220 \u00b0C", "Melting Point": "&lt;25 \u00b0C", "Density": "0.8997 g/cm\u00b3 @ Temp: 15 \u00b0C"}}