{"cas_no": "115-99-1", "cn_name": "3,7-\u4e8c\u7532\u57fa-1,6-\u8f9b\u4e8c\u70ef-3-\u9187\u7532\u9178\u916f", "en_name": ["Linalool formate", "1,6-Octadien-3-ol, 3,7-dimethyl-, 3-formate", "1,6-Octadien-3-ol, 3,7-dimethyl-, formate", "Linalool formate", "Linalyl formate", "NSC 46116", "3,7-Dimethyl-1,6-octadien-3-ol formate", "3,7-Dimethylocta-1,6-dien-3-yl formate", "3,7-Dimethyl-1,6-octadien-3-yl formate"], "SMILES": "C(CCC=C(C)C)(OC=O)(C=C)C", "physical_data": {"Molecular Weight": "182.26", "Molecular Formula": "C11H18O2", "Boiling Point": "41-42 \u00b0C @ Press: 0.3 Torr"}}