{"cas_no": "115-19-5", "cn_name": "3-\u7532\u57fa\u4e01\u7094\u9187-3", "en_name": ["2-Methyl-3-butyn-2-ol", "3-Butyn-2-ol, 2-methyl-", "2-Propyn-1-ol, 1,1-dimethyl-", "2-Methyl-3-butyn-2-ol", "Dimethylethynylcarbinol", "2-Hydroxy-2-methyl-3-butyne", "Dimethylacetylenecarbinol", "Ethynyldimethylcarbinol", "\u03b1,\u03b1-Dimethylpropargyl alcohol", "1,1-Dimethyl-2-propyn-1-ol", "1,1-Dimethyl-2-propynol", "Dimethylethynylmethanol", "1,1-Dimethylpropargyl alcohol", "Dimethylacetylenylcarbinol", "AB 32", "2-Methyl-2-hydroxy-3-butyne", "3-Methyl-3-hydroxy-1-butyne", "Olfine B", "3-Hydroxy-3-methyl-1-butyne", "3-Methyl-1-butyn-3-ol", "AB 32 (alcohol)", "2-Methyl-3-butyne-2-ol", "(1-Hydroxy-1-methylethyl)acetylene", "3-Methyl-3-hydroxybutyne", "NSC 523", "2-Ethynyl-2-propanol", "Mebynol", "3-Methyl-1-butyne-3-ol", "2-Methy-3-butyn-2-ol"], "SMILES": "C(C#C)(C)(C)O", "physical_data": {"Molecular Weight": "84.12", "Molecular Formula": "C5H8O", "Boiling Point": "104 \u00b0C", "Melting Point": "3 \u00b0C", "Density": "0.8637 g/cm\u00b3 @ Temp: 15.5 \u00b0C"}}