{"cas_no": "115-96-8", "cn_name": "\u78f7\u9178\u4e09(2-\u6c2f\u4e59\u57fa)\u916f", "en_name": ["Tris(2-chloroethyl) phosphate", "Ethanol, 2-chloro-, 1,1\u2032,1\u2032\u2032-phosphate", "Ethanol, 2-chloro-, phosphate (3:1)", "Celluflex CEF", "Tris(\u03b2-chloroethyl) phosphate", "Tris(2-chloroethyl) phosphate", "Tris(chloroethyl) phosphate", "Tri(\u03b2-chloroethyl) phosphate", "Tri(2-chloroethyl) phosphate", "Tris(2-chloroethyl) orthophosphate", "Niax Flame Retardant 3CF", "3CF", "Niax 3CF", "Disflamoll TCA", "Fyrol CEF", "Genomoll P", "TCEP", "Tri(chloroethyl) phosphate", "Fyrol CF", "CLP", "Amgard TCEP", "CEF", "NSC 3213", "Phosphoric acid tris(2-chloroethyl) ester", "Roflam E"], "SMILES": "P(OCCCl)(OCCCl)(OCCCl)=O", "physical_data": {"Molecular Weight": "285.49", "Molecular Formula": "C6H12Cl3O4P", "Boiling Point": "330 \u00b0C @ Press: 800 Torr", "Melting Point": "-55 \u00b0C", "Density": "1.425 g/cm\u00b3 @ Temp: 20 \u00b0C"}}