{"cas_no": "115-26-4", "cn_name": "\u53cc(\u4e8c\u7532\u80fa\u57fa)\u78f7\u9170\u6c1f", "en_name": ["Dimefox", "Phosphorodiamidic fluoride, N,N,N\u2032,N\u2032-tetramethyl-", "Phosphorodiamidic fluoride, tetramethyl-", "N,N,N\u2032,N\u2032-Tetramethylphosphorodiamidic fluoride", "CR 409", "BFPO", "Bis(dimethylamido)fluorophosphate", "Bis(dimethylamido)fluorophosphine oxide", "Bis(dimethylamido)phosphoryl fluoride", "Bis(dimethylamino)fluorophosphine oxide", "DIFO", "Dimefox", "Fluorophosphoric acid di(dimethylamide)", "Hanane", "Pestox 14", "Phosphine oxide, bis(dimethylamino)fluoro-", "Tetramethyldiamidophosphoric fluoride", "Tetramethylphosphorodiamidic fluoride", "Terra-Sytam", "Bis(dimethylamino)phosphorofluoridate"], "SMILES": "P(N(C)C)(N(C)C)(F)=O", "physical_data": {"Molecular Weight": "154.12", "Molecular Formula": "C4H12FN2OP", "Boiling Point": "67 \u00b0C @ Press: 4.0 Torr", "Density": "1.1151 g/cm\u00b3 @ Temp: 20 \u00b0C"}}