{"cas_no": "115-32-2", "cn_name": "\u4e09\u6c2f\u6740\u87a8\u9187", "en_name": ["Dicofol", "Benzenemethanol, 4-chloro-\u03b1-(4-chlorophenyl)-\u03b1-(trichloromethyl)-", "Benzhydrol, 4,4\u2032-dichloro-\u03b1-(trichloromethyl)-", "4-Chloro-\u03b1-(4-chlorophenyl)-\u03b1-(trichloromethyl)benzenemethanol", "ENT 23,648", "1,1-Bis(4-chlorophenyl)-2,2,2-trichloroethanol", "1,1-Bis(p-chlorophenyl)-2,2,2-trichloroethanol", "CPCA", "Dicofol", "DTMC", "FW 293", "Kelthanethanol", "2,2,2-Trichloro-1,1-di(4-chlorophenyl)ethanol", "Kelthane", "Acarin", "Mitigan", "p,p\u2032-Kelthane", "Decofol", "Ethanol, 2,2,2-trichloro-1,1-bis(4-chlorophenyl)-", "Kelthane A", "2,2,2-Trichloro-1,1-bis(4-chlorophenyl)ethanol", "4,4\u2032-Dichloro-\u03b1-(trichloromethyl)benzhydrol", "Keltane", "Dichlorokelthane", "Milbol", "2,2,2-Trichloro-1,1-bis(p-chlorophenyl)ethanol", "p,p\u2032-Dicofol", "Chloretanol", "Agravertin", "AFD 25", "Colonel-S", "Dacomain", "Dicofol kelthene", "MeSH ID: D004010"], "SMILES": "C(C(Cl)(Cl)Cl)(O)(C1=CC=C(Cl)C=C1)C2=CC=C(Cl)C=C2", "physical_data": {"Molecular Weight": "370.49", "Molecular Formula": "C14H9Cl5O", "Boiling Point": "180 \u00b0C @ Press: 0.1 Torr", "Melting Point": "77-78 \u00b0C", "Density": "1.130 g/cm\u00b3 @ Temp: 20 \u00b0C"}}