{"cas_no": "115-21-9", "cn_name": "\u4e59\u57fa\u4e09\u6c2f\u7845\u70f7", "en_name": ["Ethyltrichlorosilane", "Silane, trichloroethyl-", "Trichloroethylsilane", "Ethyl silicon trichloride", "Ethyltrichlorosilane", "Trichloroethylsilicon", "TSL 8226", "LS 120", "LS 120 (silane derivative)", "SIE 4901.0"], "SMILES": "[Si](CC)(Cl)(Cl)Cl", "physical_data": {"Molecular Weight": "163.51", "Molecular Formula": "C2H5Cl3Si", "Boiling Point": "97.9 \u00b0C @ Press: 760 Torr", "Melting Point": "-105.6 \u00b0C", "Density": "1.2381 g/cm\u00b3 @ Temp: 20 \u00b0C"}}