{"cas_no": "115-02-6", "cn_name": "\u5076\u6c2e\u4e1d\u80fa\u9178", "en_name": ["Azaserine", "L-Serine, O-(2-diazoacetyl)-", "Serine, diazoacetate (ester), L-", "L-Serine, diazoacetate (ester)", "O-(2-Diazoacetyl)-L-serine", "Azaserine", "O-Diazoacetyl-L-serine", "L-Azaserine", "Azaserin", "CN 15757", "CI 337", "P 165", "NSC 742", "(S)-2-Amino-3-(2-diazoacetoxy)propanoic acid", "(2S)-2-Amino-3-[(2-diazoacetyl)oxy]propanoic acid", "MeSH ID: D001377"], "SMILES": "O(CC(C(O)=O)N)C(C=[N+]=[N-])=O", "physical_data": {"Molecular Weight": "", "Molecular Formula": "C5H7N3O4", "Melting Point": "154 \u00b0C"}}