{"cas_no": "115-86-6", "cn_name": "\u78f7\u9178\u4e09\u82ef\u916f", "en_name": ["Triphenyl phosphate", "Phosphoric acid, triphenyl ester", "Celluflex TPP", "Triphenyl phosphate", "Phenyl phosphate ((PhO)3PO)", "Triphenoxyphosphine oxide", "Disflamoll TP", "TP", "Phosflex TPP", "TPP", "TPPA", "Reofos TPP", "S 4", "S 4 (phosphate)", "TTP", "Sumilizer TPP", "Wako TPP", "NSC 57868", "Phoscon FR 903N", "TFF", "WSFR-TPP", "Triphenol phosphate", "TTP (triphenyl phosphate)", "DHPF 005", "Antioxidant TTP", "UN 3077", "Disflamoll TPP", "FR 3031", "DTZR-TPP", "Phireguard TPP"], "SMILES": "P(OC1=CC=CC=C1)(OC2=CC=CC=C2)(OC3=CC=CC=C3)=O", "physical_data": {"Molecular Weight": "326.28", "Molecular Formula": "C18H15O4P", "Boiling Point": "370 \u00b0C", "Melting Point": "49-50 \u00b0C", "Density": "1.2055 g/cm\u00b3 @ Temp: 50 \u00b0C"}}