{"cas_no": "115-18-4", "cn_name": "2-\u7532\u57fa-3-\u4e01\u70ef-2-\u9187", "en_name": ["2-Methyl-3-buten-2-ol", "3-Buten-2-ol, 2-methyl-", "2-Methyl-3-buten-2-ol", "Dimethylvinylcarbinol", "\u03b1,\u03b1-Dimethylallyl alcohol", "Dimethylvinylmethanol", "1,1-Dimethyl-2-propen-1-ol", "2-Hydroxy-2-methyl-3-butene", "2-Methyl-2-hydroxy-3-butene", "3-Methyl-1-buten-3-ol", "Vinyldimethylcarbinol", "3-Hydroxy-3-methyl-1-butene", "2-Methyl-3-buten-2-yl alcohol", "1,1-Dimethylallyl alcohol", "3-Hydroxy-3-methylbutene", "3-Methyl-3-hydroxybutene", "NSC 15977", "1,1-Dimethyl-2-propenyl alcohol", "2-Methylbut-3-en-2-ol"], "SMILES": "C(C=C)(C)(C)O", "physical_data": {"Molecular Weight": "86.13", "Molecular Formula": "C5H10O", "Boiling Point": "97 \u00b0C", "Melting Point": "-28 \u00b0C", "Density": "0.8279 g/cm\u00b3 @ Temp: 16 \u00b0C"}}