{"cas_no": "115-11-7", "cn_name": "\u5f02\u4e01\u70ef", "en_name": ["Isobutylene", "1-Propene, 2-methyl-", "Propene, 2-methyl-", "2-Methyl-1-propene", "\u03b3-Butylene", "Isobutene", "Isobutylene", "2-Methylpropene", "iso-Butene", "Isopropylidenemethylene", "1,1-Dimethylethylene", "2-Methylpropylene", "1,1-Dimethylethene", "i-Butene", "2-Methyl-2-propene"], "SMILES": "C(C)(C)=C", "physical_data": {"Molecular Weight": "56.11", "Molecular Formula": "C4H8", "Boiling Point": "-6.9 \u00b0C", "Melting Point": "-140.4 \u00b0C", "Density": "0.589 g/cm\u00b3 @ Temp: 25 \u00b0C"}}