{"cas_no": "115-90-2", "cn_name": "\u82ef\u80fa\u78f7\u6216\u4e30\u7d22\u78f7", "en_name": ["Fensulfothion", "Phosphorothioic acid, O,O-diethyl O-[4-(methylsulfinyl)phenyl] ester", "Phosphorothioic acid, O,O-diethyl O-[p-(methylsulfinyl)phenyl] ester", "Phenol, p-(methylsulfinyl)-, O-ester with O,O-di-Et phosphorothioate", "S 767", "ENT 24,945", "Chemagro 25141", "Dasanit", "O,O-Diethyl O-[p-(methylsulfinyl)phenyl] phosphorothioate", "DMSP", "BAY 25141", "Fensulfothion", "Terracur P", "B 25141", "Daconit", "VUAgt 96", "VUAgt 108", "O,O-Diethyl O-(4-methylsulfinylphenyl) monothiophosphate", "O,O-Diethyl O-[4-(methylsulfinyl)phenyl] phosphorothioate", "Agricur"], "SMILES": "P(OC1=CC=C(S(C)=O)C=C1)(OCC)(OCC)=S", "physical_data": {"Molecular Weight": "308.35", "Molecular Formula": "C11H17O4PS2", "Boiling Point": "138-141 \u00b0C @ Press: 0.01 Torr", "Melting Point": "&lt;25 \u00b0C", "Density": "1.202 g/cm\u00b3 @ Temp: 20 \u00b0C"}}