{"cas_no": "115-33-3", "cn_name": "\u53cc\u918b\u915a\u4e01", "en_name": ["Contax", "2H-Indol-2-one, 3,3-bis[4-(acetyloxy)phenyl]-1,3-dihydro-", "2-Indolinone, 3,3-bis(p-hydroxyphenyl)-, diacetate (ester)", "2-Indolinone, 3,3-bis(p-hydroxyphenyl)-, diacetate", "Oxindole, 3,3-bis(p-hydroxyphenyl)-, diacetate", "3,3-Bis[4-(acetyloxy)phenyl]-1,3-dihydro-2H-indol-2-one", "Acetophenolisatin", "3,3-Bis(p-acetoxyphenyl)oxindole", "Bisatin", "3,3-Bis(p-hydroxyphenyl)-2-indolinone diacetate", "Cirotyl", "Diacetyldihydroxydiphenylisatin", "Diacetyldioxyphenylisatin", "Diacetyldiphenolisatin", "Diphesatin", "Diphesatine", "Isacen", "Isaphen", "Isocrin", "Laxo-Isatin", "Lisagal", "Oxyphenisatin acetate", "Promassolax", "Prulet", "Prulet Liquitab", "Purgaceen", "Sanapert", "Isaphenin", "Isatin, O,O\u2032-diacetyldiphenol-", "Contax", "3,3-Bis(p-acetoxyphenyl)-2-indolinone", "Acelax", "Acetalax", "Puragaceen", "Laxocol", "Purgophen", "Brocatine", "Eulaxin", "Oxyphenisatin diacetate", "Diasatin", "Diasatine", "Phenlaxine", "Fenisan", "NSC 59687", "Bydolax", "NSC 117186", "Acetphenolisatin", "(2-Oxoindoline-3,3-diyl)bis(4,1-phenylene) diacetate", "MeSH ID: D010114"], "SMILES": "O=C1C(C=2C(N1)=CC=CC2)(C3=CC=C(OC(C)=O)C=C3)C4=CC=C(OC(C)=O)C=C4", "physical_data": {"Molecular Weight": "401.41", "Molecular Formula": "C24H19NO5", "Melting Point": "242 \u00b0C"}}