{"cas_no": "115-76-4", "cn_name": "2,2-\u4e59\u57fa-1,3\u4e19\u4e8c\u9187", "en_name": ["2,2-Diethyl-1,3-propanediol", "1,3-Propanediol, 2,2-diethyl-", "2,2-Diethyl-1,3-propanediol", "DEP", "Prenderol", "DMP", "NSC 12211", "NSC 169507"], "SMILES": "C(CC)(CC)(CO)CO", "physical_data": {"Molecular Weight": "132.20", "Molecular Formula": "C7H16O2", "Boiling Point": "240.5 \u00b0C", "Melting Point": "61.5 \u00b0C"}}