{"cas_no": "115-82-2", "cn_name": "\u56db(2-\u4e59\u57fa\u5df1\u6c27\u57fa)\u7845\u70f7", "en_name": ["Silicic acid (H4SiO4) tetrakis(2-ethylhexyl) ester", "Silicic acid (H4SiO4), tetrakis(2-ethylhexyl) ester", "1-Hexanol, 2-ethyl-, silicate", "Silicic acid (H4SiO4) tetrakis(2-ethylhexyl) ester", "Tetra(2-ethylhexyl) orthosilicate", "Tetrakis(2-ethylhexyl) silicate", "Tetrakis(2-ethylhexyloxy)silane", "T 1928", "NSC 6136"], "SMILES": "[Si](OCC(CCCC)CC)(OCC(CCCC)CC)(OCC(CCCC)CC)OCC(CCCC)CC", "physical_data": {"Molecular Weight": "544.97", "Molecular Formula": "C32H68O4Si", "Boiling Point": "419 \u00b0C", "Melting Point": "328 \u00b0C (decomp)"}}