{"cas_no": "115-25-3", "cn_name": "\u516b\u6c1f\u73af\u4e01\u70f7", "en_name": ["Octafluorocyclobutane", "Cyclobutane, 1,1,2,2,3,3,4,4-octafluoro-", "Cyclobutane, octafluoro-", "1,1,2,2,3,3,4,4-Octafluorocyclobutane", "Perfluorocyclobutane", "Freon C 318", "FC-C 318", "Propellant C 318", "Octafluorocyclobutane", "R-C 318", "FC 318", "FKWC 318", "R 318", "Flon C 318", "Fron C 318", "C 318", "HFC-C 318", "Carbon fluoride (C4F8)", "R 318C", "PFC-C 318"], "SMILES": "FC1(F)C(F)(F)C(F)(F)C1(F)F", "physical_data": {"Molecular Weight": "200.03", "Molecular Formula": "C4F8", "Boiling Point": "-5.9 \u00b0C", "Melting Point": "-40.1 \u00b0C"}}