{"cas_no": "115-31-1", "cn_name": "\u6740\u90a3\u8131", "en_name": ["Isobornyl thiocyanoacetate", "Acetic acid, 2-thiocyanato-, (1R,2R,4R)-1,7,7-trimethylbicyclo[2.2.1]hept-2-yl ester, rel-", "Acetic acid, thiocyanato-, 1,7,7-trimethylbicyclo[2.2.1]hept-2-yl ester, exo-", "Acetic acid, thiocyanato-, isobornyl ester", "Acetic acid, thiocyanato-, (1R,2R,4R)-1,7,7-trimethylbicyclo[2.2.1]hept-2-yl ester, rel-", "Terpinyl thiocyanoacetate", "Thanisol", "Thiocyanatoacetic acid isobornyl ester", "Thanite", "Isobornyl thiocyanoacetate", "Isobornyl thiocyanatoacetate", "Bornate", "Cidalon", "SX 850", "NSC 3552", "ENT 92"], "SMILES": "CC12C(OC(CSC#N)=O)CC(C1(C)C)CC2", "physical_data": {"Molecular Weight": "253.36", "Molecular Formula": "C13H19NO2S", "Boiling Point": "95 \u00b0C @ Press: 0.06 Torr", "Density": "1.1465 g/cm\u00b3 @ Temp: 25 \u00b0C"}}