{"cas_no": "115-17-3", "cn_name": "\u4e09\u6eb4\u4e59\u919b", "en_name": ["Tribromoacetaldehyde", "Acetaldehyde, 2,2,2-tribromo-", "Bromal", "Acetaldehyde, tribromo-", "2,2,2-Tribromoacetaldehyde", "Tribromoacetaldehyde", "NSC 66406", "2,2,2-Tribromoethanal"], "SMILES": "C(C=O)(Br)(Br)Br", "physical_data": {"Molecular Weight": "280.74", "Molecular Formula": "C2HBr3O", "Boiling Point": "174 \u00b0C", "Melting Point": "-57.5 \u00b0C", "Density": "2.66 g/cm\u00b3"}}