{"cas_no": "115-77-5", "cn_name": "\u5b63\u620a\u56db\u9187", "en_name": ["Pentaerythritol", "1,3-Propanediol, 2,2-bis(hydroxymethyl)-", "Pentaerythritol", "2,2-Bis(hydroxymethyl)-1,3-propanediol", "Auxinutril", "Hercules P 6", "Maxinutril", "Monopentek", "Penetek", "Pentek", "Tetra(hydroxymethyl)methane", "Tetrakis(hydroxymethyl)methane", "Tetramethylolmethane", "PE 200", "Metab-Auxil", "Monopentaerythritol", "THME", "PET 020", "Neulizer P", "PE 200 (diol)", "NSC 8100", "Pentarit S", "Pentarit", "Charmor PM 15", "Flammex DPE", "Charmor PM 40", "CP 500G", "Charmor PM", "PER", "Microlon 93", "Penta Powder 325", "P 100", "P 100 (alcohol)", "Penta-R", "Pentarit T", "Voxtar M 100", "Pentaerythrotol", "2,2-Bis(hydroxymethyl)propane-1,3-diol", "Pentarit TS", "JLS Penta", "Penta F 40", "H 8404", "Charmor PT 40", "JP-A 9301", "Voxtar M 40", "RN-P 15"], "SMILES": "C(CO)(CO)(CO)CO", "physical_data": {"Molecular Weight": "136.15", "Molecular Formula": "C5H12O4", "Boiling Point": "276 \u00b0C @ Press: 30 Torr", "Melting Point": "260 \u00b0C", "Density": "1.399 g/cm\u00b3 @ Temp: 25 \u00b0C"}}