{"cas_no": "115-40-2", "cn_name": "\u6eb4\u7532\u915a\u7d2b", "en_name": ["Bromocresol purple", "Phenol, 4,4\u2032-(1,1-dioxido-3H-2,1-benzoxathiol-3-ylidene)bis[2-bromo-6-methyl-", "o-Cresol, 4,4\u2032-(3H-2,1-benzoxathiol-3-ylidene)bis[6-bromo-, S,S-dioxide", "Phenol, 4,4\u2032-(3H-2,1-benzoxathiol-3-ylidene)bis[2-bromo-6-methyl-, S,S-dioxide", "Bromocresol purple", "o-Toluenesulfonic acid, \u03b1,\u03b1-bis(5-bromo-4-hydroxy-m-tolyl)-\u03b1-hydroxy-, \u03b3-sultone", "3H-2,1-Benzoxathiole, phenol deriv.", "4,4\u2032-(1,1-Dioxido-3H-2,1-benzoxathiol-3-ylidene)bis[2-bromo-6-methylphenol]", "Bromcresol purple", "NSC 374134"], "SMILES": "O=S1(=O)OC(C=2C1=CC=CC2)(C3=CC(Br)=C(O)C(C)=C3)C4=CC(Br)=C(O)C(C)=C4", "physical_data": {"Molecular Weight": "540.22", "Molecular Formula": "C21H16Br2O5S", "Melting Point": "241.5 \u00b0C"}}