{"cas_no": "115-08-2", "cn_name": "\u786b\u4ee3\u7532\u9170\u80fa", "en_name": ["Methanethioamide", "Methanethioamide", "Formamide, thio-", "Thioformamide"], "SMILES": "C(N)=S", "physical_data": {"Molecular Weight": "61.11", "Molecular Formula": "CH3NS", "Boiling Point": "146-148 \u00b0C @ Press: 2 Torr", "Melting Point": "26.5 \u00b0C", "Density": "1.0401 g/cm\u00b3 @ Temp: 20 \u00b0C"}}