{"cas_no": "115-80-0", "cn_name": "\u539f\u4e19\u9178\u4e09\u4e59\u916f", "en_name": ["Triethyl orthopropionate", "Propane, 1,1,1-triethoxy-", "Orthopropionic acid, triethyl ester", "1,1,1-Triethoxypropane", "Triethyl orthopropionate", "Ethyl orthopropionate", "Triethyl orthopropanoate", "NSC 5604"], "SMILES": "C(OCC)(OCC)(OCC)CC", "physical_data": {"Molecular Weight": "176.25", "Molecular Formula": "C9H20O3", "Boiling Point": "171 \u00b0C", "Density": "0.8826 g/cm\u00b3 @ Temp: 25 \u00b0C"}}