{"cas_no": "115-39-9", "cn_name": "\u6eb4\u915a\u84dd", "en_name": ["Bromophenol Blue", "Phenol, 4,4\u2032-(1,1-dioxido-3H-2,1-benzoxathiol-3-ylidene)bis[2,6-dibromo-", "Phenol, 4,4\u2032-(3H-2,1-benzoxathiol-3-ylidene)bis[2,6-dibromo-, S,S-dioxide", "Bromophenol Blue", "3H-2,1-Benzoxathiole, phenol deriv.", "4,4\u2032-(1,1-Dioxido-3H-2,1-benzoxathiol-3-ylidene)bis[2,6-dibromophenol]", "Albutest", "Bromphenol blue", "3\u2032,3\u2032\u2032,5\u2032,5\u2032\u2032-Tetrabromophenolsulfophthalein", "Tetrabromophenolsulfophthalein", "NSC 7818", "BPB 670", "MeSH ID: D001978"], "SMILES": "O=S1(=O)OC(C=2C1=CC=CC2)(C3=CC(Br)=C(O)C(Br)=C3)C4=CC(Br)=C(O)C(Br)=C4", "physical_data": {"Molecular Weight": "669.96", "Molecular Formula": "C19H10Br4O5S", "Melting Point": "279 \u00b0C (decomp)"}}