{"cas_no": "115-46-8", "cn_name": "\u03b1,\u03b1-\u4e8c\u82ef\u57fa-4-\u54cc\u5576\u7532\u9187", "en_name": ["Azacyclonol", "4-Piperidinemethanol, \u03b1,\u03b1-diphenyl-", "\u03b1,\u03b1-Diphenyl-4-piperidinemethanol", "MER 17", "\u03b1-(4-Piperidyl)benzhydrol", "\u03b3-Pipradol", "Azacyclonol", "4-(Diphenylhydroxymethyl)piperidine", "4-(Hydroxydiphenylmethyl)piperidine", "MDL 4829", "Ataractan", "Calmeran", "Diphenyl-4-piperidylmethanol", "Frenoton", "Psychosan", "Diphenyl(piperidin-4-yl)methanol"], "SMILES": "C(O)(C1=CC=CC=C1)(C2=CC=CC=C2)C3CCNCC3", "physical_data": {"Molecular Weight": "267.37", "Molecular Formula": "C18H21NO", "Melting Point": "160.5 \u00b0C"}}