{"cas_no": "115-41-3", "cn_name": "\u513f\u8336\u915a\u7d2b", "en_name": ["Pyrocatechol violet", "1,2-Benzenediol, 4,4\u2032-(1,1-dioxido-3H-2,1-benzoxathiol-3-ylidene)bis-", "Pyrocatechol, 4,4\u2032-(3H-2,1-benzoxathiol-3-ylidene)di-, S,S-dioxide", "Pyrocatechol violet", "1,2-Benzenediol, 4,4\u2032-(3H-2,1-benzoxathiol-3-ylidene)bis-, S,S-dioxide", "3H-2,1-Benzoxathiole, 1,2-benzenediol deriv.", "4,4\u2032-(1,1-Dioxido-3H-2,1-benzoxathiol-3-ylidene)bis[1,2-benzenediol]", "3H-2,1-Benzoxathiole, 3,3-bis(3,4-dihydroxyphenyl)-, 1,1-dioxide", "PKF", "Catechol violet", "Pyrocatechin sulfonephthalein", "Pyrocatechol sulfonephthalein", "Pyrocatechin violet", "NSC 8805", "3,3-Bis(3,4-dihydroxyphenyl)-3H-benzo[c][1,2]oxathiole 1,1-dioxide"], "SMILES": "O=S1(=O)OC(C=2C1=CC=CC2)(C3=CC(O)=C(O)C=C3)C4=CC(O)=C(O)C=C4", "physical_data": {"Molecular Weight": "386.38", "Molecular Formula": "C19H14O7S", "Melting Point": "211 \u00b0C (decomp)"}}