{"cas_no": "115-70-8", "cn_name": "2-\u6c28\u57fa-2-\u4e59\u57fa-1,3-\u4e19\u4e8c\u9187", "en_name": ["2-Amino-2-ethyl-1,3-propanediol", "1,3-Propanediol, 2-amino-2-ethyl-", "2-Amino-2-ethyl-1,3-propanediol", "AEPD", "2-Amino-2-ethylpropanediol", "2-Ethyl-2-aminopropanediol", "2-Ethyl-2-amino-1,3-propanediol", "NSC 8803", "(1,1-Bis(hydroxymethyl)propyl)amine", "AEPD-VOX 1000", "VOX 1000", "2-Amino-2-ethylpropan-1,3-diol"], "SMILES": "C(CC)(CO)(CO)N", "physical_data": {"Molecular Weight": "119.16", "Molecular Formula": "C5H13NO2", "Boiling Point": "152.5 \u00b0C", "Melting Point": "37.5 \u00b0C"}}