{"cas_no": "115-53-7", "cn_name": "\u9752\u85e4\u78b1", "en_name": ["Sinomenine", "Morphinan-6-one, 7,8-didehydro-4-hydroxy-3,7-dimethoxy-17-methyl-, (9\u03b1,13\u03b1,14\u03b1)-", "Sinomenine", "9\u03b1,13\u03b1,14\u03b1-Morphinan-6-one, 7,8-didehydro-4-hydroxy-3,7-dimethoxy-17-methyl-", "(9\u03b1,13\u03b1,14\u03b1)-7,8-Didehydro-4-hydroxy-3,7-dimethoxy-17-methylmorphinan-6-one", "Cucoline", "Kukoline", "Sinomenin"], "SMILES": "OC1=C2C34C(C(CC2=CC=C1OC)N(C)CC3)C=C(OC)C(=O)C4", "physical_data": {"Molecular Weight": "329.39", "Molecular Formula": "C19H23NO4", "Melting Point": "162 \u00b0C"}}