{"cas_no": "115-84-4", "cn_name": "2-\u4e01\u57fa-2-\u4e59\u57fa-1,3-\u4e19\u4e8c\u9187", "en_name": ["2-Butyl-2-ethyl-1,3-propanediol", "1,3-Propanediol, 2-butyl-2-ethyl-", "2-Butyl-2-ethyl-1,3-propanediol", "BEP", "3,3-Bis(hydroxymethyl)heptane", "DMH", "2-Ethyl-2-butyl-1,3-propanediol", "Nexcoat 700", "2-Butyl-2-ethylpropanediol", "BEPD", "NSC 406603", "2-Butyl-2-ethyl-1,3-propandiol", "2-Butyl 1-2-ethyl-1,3-propanediol"], "SMILES": "C(CCCC)(CC)(CO)CO", "physical_data": {"Molecular Weight": "160.25", "Molecular Formula": "C9H20O2", "Boiling Point": "262 \u00b0C", "Melting Point": "43.8 \u00b0C"}}