{"cas_no": "115-09-3", "cn_name": "\u7532\u57fa\u6c2f\u6c5e", "en_name": ["Methylmercury chloride", "Mercury, chloromethyl-", "Methylmercury chloride", "Methylmercuric chloride", "Caspan", "Monomethyl mercury chloride", "Chloromethylmercury", "Mercury methyl chloride", "Methylmercury monochloride", "NSC 19998"], "SMILES": "[Hg](C)Cl", "physical_data": {"Molecular Weight": "", "Molecular Formula": "CH3ClHg", "Melting Point": "167 \u00b0C"}}