{"cas_no": "115-28-6", "cn_name": "\u6c2f\u83cc\u9178", "en_name": ["Chlorendic acid", "Bicyclo[2.2.1]hept-5-ene-2,3-dicarboxylic acid, 1,4,5,6,7,7-hexachloro-", "5-Norbornene-2,3-dicarboxylic acid, 1,4,5,6,7,7-hexachloro-", "1,4,5,6,7,7-Hexachlorobicyclo[2.2.1]hept-5-ene-2,3-dicarboxylic acid", "Chlorendic acid", "1,4,5,6,7,7-Hexachlorodicyclo-(2.2.1)-5-heptene-2,3-dicarboxylic acid", "Hexachloroendomethylenetetrahydrophthalic acid", "HET acid", "1,4,5,6,7,7-Hexachlorobicyclo-(2,2,1)hept-5-en-2,3-dicarboxylic acid", "2H,3H-Hexachlorobicyclo[2.2.1]hept-5-ene-2,3-dicarboxylic acid", "1,4,5,6,7,7-Hexachloro-5-norbornene-2,3-dicarboxylic acid", "NSC 22231", "NSC 41876", "1,2,3,4,7,7-Hexachlorobicyclo[2.2.1]hept-2-ene-5,6-dicarboxylic acid"], "SMILES": "ClC12C(C(O)=O)C(C(O)=O)C(Cl)(C1(Cl)Cl)C(Cl)=C2Cl", "physical_data": {"Molecular Weight": "388.84", "Molecular Formula": "C9H4Cl6O4", "Melting Point": "209 \u00b0C"}}