{"cas_no": "115-10-6", "cn_name": "\u4e8c\u7532\u919a", "en_name": ["Methyl ether", "Methane, 1,1\u2032-oxybis-", "Dimethyl ether", "Methyl ether", "Methane, oxybis-", "Ether, dimethyl", "1,1\u2032-Oxybis[methane]", "Wood ether", "Methoxymethane", "Dimethyl oxide", "Dymel A", "DME", "Demeon D", "RE 170", "RE 170 (refrigerant)", "LPG"], "SMILES": "O(C)C", "physical_data": {"Molecular Weight": "46.07", "Molecular Formula": "C2H6O", "Boiling Point": "-24.8 \u00b0C", "Melting Point": "-141.5 \u00b0C", "Density": "0.61 g/cm\u00b3"}}