{"cas_no": "115-29-7", "cn_name": "\u786b\u4e39", "en_name": ["Endosulfan", "6,9-Methano-2,4,3-benzodioxathiepin, 6,7,8,9,10,10-hexachloro-1,5,5a,6,9,9a-hexahydro-, 3-oxide", "5-Norbornene-2,3-dimethanol, 1,4,5,6,7,7-hexachloro-, cyclic sulfite", "OMS 570", "HOE 2671", "BIO 5462", "ENT 23979", "\u03b1,\u03b2-1,2,3,4,7,7-Hexachlorobicyclo[2.2.1]-2-heptene-5,6-bisoxymethylene sulfite", "6,7,8,9,10,10-Hexachloro-1,5,5a,6,9,9a-hexahydro-6,9-methano-2,4,3-benzodioxathiepin-3-oxide", "1,4,5,6,7,7-Hexachloro-5-norbornene-2,3-dimethanol cyclic sulfite", "Niagara 5462", "Endosulfan", "Thiodan", "Malix", "SD 4314", "6,7,8,9,10,10-Hexachloro-1,5,5\u03b1,6,9,9\u03b1-hexahydro-6,9-methano-2,4,3-benzodioxathiepin-3-oxide", "Endosulfan 35EC", "Chlorthiepin", "Endosulphan", "Beosit", "Thimul", "Thionex", "Benzoepin", "Tionex", "Thiodan 35EC", "Thiodan 35", "Thiotox", "Thiotox (insecticide)", "Hildan", "Endocel", "Tiovel", "Endotaf", "Phaser", "Madhusulphan", "Sialan", "Parrysulfan", "Thioflo", "Ethiosulfan", "Endodhan", "Zebra ciagro", "Thionex 35", "Akodan 35", "Global E 35", "Endosulfan 35 Nufarm", "Liudan", "Endosri", "MeSH ID: D004726"], "SMILES": "ClC12C3C(C(Cl)(C1(Cl)Cl)C(Cl)=C2Cl)COS(=O)OC3", "physical_data": {"Molecular Weight": "406.93", "Molecular Formula": "C9H6Cl6O3S", "Boiling Point": "106 \u00b0C @ Press: 0.70 Torr", "Melting Point": "106 \u00b0C", "Density": "1.745 g/cm\u00b3 @ Temp: 20 \u00b0C"}}