{"cas_no": "115-20-8", "cn_name": "2,2,2-\u4e09\u6c2f\u4e59\u9187", "en_name": ["Trichloroethanol", "Ethanol, 2,2,2-trichloro-", "2,2,2-Trichloroethanol", "2,2,2-Trichloroethyl alcohol", "Trichloroethanol", "Trichlorethanol", "(Hydroxymethyl)trichloromethane", "\u03b2,\u03b2,\u03b2-Trichloroethanol", "NSC 66407", "2,2,2-Trichloroethan-1-ol"], "SMILES": "C(CO)(Cl)(Cl)Cl", "physical_data": {"Molecular Weight": "149.40", "Molecular Formula": "C2H3Cl3O", "Boiling Point": "152 \u00b0C", "Melting Point": "19 \u00b0C", "Density": "1.4712 g/cm\u00b3 @ Temp: 25 \u00b0C"}}