{"cas_no": "1150-90-9", "cn_name": "\u96cc\u753e\u56db\u70ef", "en_name": ["Estra-1,3,5(10),16-tetraen-3-ol", "Estra-1,3,5(10),16-tetraen-3-ol", "Compound 742"], "SMILES": "CC12C(C3C(C=4C(CC3)=CC(O)=CC4)CC1)CC=C2", "physical_data": {"Molecular Weight": "254.37", "Molecular Formula": "C18H22O", "Melting Point": "128.5-130 \u00b0C"}}