{"cas_no": "1150-62-5", "cn_name": "N-\u82ef\u57fa\u5494\u5511", "en_name": ["9-Phenylcarbazole", "9H-Carbazole, 9-phenyl-", "Carbazole, 9-phenyl-", "9-Phenyl-9H-carbazole", "N-Phenylcarbazole", "9-Phenylcarbazole", "NSC 10416", "N-Phenyl-9H-carbazole"], "SMILES": "N1(C=2C(C=3C1=CC=CC3)=CC=CC2)C4=CC=CC=C4", "physical_data": {"Molecular Weight": "243.30", "Molecular Formula": "C18H13N", "Boiling Point": "140 \u00b0C @ Press: 10 Torr", "Melting Point": "91-95 \u00b0C"}}