{"cas_no": "115074-43-6", "cn_name": "\u83ab\u5339\u7f57\u661f\u9499(\u4e8c\u6c34\u5408\u7269)", "en_name": ["Calcium mupirocin dihydrate", "L-talo-Non-2-enonic acid, 5,9-anhydro-2,3,4,8-tetradeoxy-8-[(2S,3S)-[3-[(1S,2S)-2-hydroxy-1-methylpropyl]-2-oxiranyl]methyl]-3-methyl-, 8-carboxyoctyl ester, calcium salt, hydrate (2:1:2)", "L-talo-Non-2-enonic acid, 5,9-anhydro-2,3,4,8-tetradeoxy-8-[[3-(2-hydroxy-1-methylpropyl)oxiranyl]methyl]-3-methyl-, 8-carboxyoctyl ester, calcium salt (2:1), dihydrate, [2E,8[2S,3S(1S,2S)]]-", "Calcium mupirocin dihydrate", "Mupirocin calcium hydrate", "Mupirocin calcium dihydrate"], "SMILES": "C(C1C(C(C(C)O)C)O1)C2C(O)C(O)C(CC(=CC(OCCCCCCCCC(O)=O)=O)C)OC2.[Ca].O", "physical_data": {"Molecular Weight": "", "Molecular Formula": "C26H44O9.<sup>1</sup>/2Ca.H2O", "Melting Point": "132-139 \u00b0C"}}