{"cas_no": "1150114-50-3", "cn_name": "2-\u6b63\u4e19\u57fa\u6c27\u57fa-5-\u5421\u5576\u787c\u9178", "en_name": ["B-(6-Propoxy-3-pyridinyl)boronic acid", "Boronic acid, B-(6-propoxy-3-pyridinyl)-", "B-(6-Propoxy-3-pyridinyl)boronic acid", "(6-Propyloxypyridin-3-yl)boronic acid", "(6-Propoxypyridin-3-yl)boronicacid", "(6-Propoxypyridin-3-yl)boronic acid", "2-Propoxypyridine-5-boronic acid"], "SMILES": "B(O)(O)C=1C=CC(OCCC)=NC1", "physical_data": {"Molecular Weight": "181.00", "Molecular Formula": "C8H12BNO3", "Melting Point": "118-120 \u00b0C"}}