{"cas_no": "115063-39-3", "cn_name": "\u53bb\u7532\u9ec4\u8150\u9187", "en_name": ["Desmethylxanthohumol", "2-Propen-1-one, 3-(4-hydroxyphenyl)-1-[2,4,6-trihydroxy-3-(3-methyl-2-buten-1-yl)phenyl]-, (2E)-", "2-Propen-1-one, 3-(4-hydroxyphenyl)-1-[2,4,6-trihydroxy-3-(3-methyl-2-butenyl)phenyl]-, (E)-", "2-Propen-1-one, 3-(4-hydroxyphenyl)-1-[2,4,6-trihydroxy-3-(3-methyl-2-butenyl)phenyl]-, (2E)-", "(2E)-3-(4-Hydroxyphenyl)-1-[2,4,6-trihydroxy-3-(3-methyl-2-buten-1-yl)phenyl]-2-propen-1-one", "Desmethylxanthohumol", "Demethylxanthohumol"], "SMILES": "C(C=CC1=CC=C(O)C=C1)(=O)C2=C(O)C(CC=C(C)C)=C(O)C=C2O", "physical_data": {"Molecular Weight": "340.37", "Molecular Formula": "C20H20O5", "Melting Point": "154-155 \u00b0C"}}