{"cas_no": "115029-24-8", "cn_name": "2-\u6c1f-4-\u4e09\u6c1f\u7532\u57fa\u82ef\u7532\u9178", "en_name": ["2-Fluoro-4-(trifluoromethyl)benzoic acid", "Benzoic acid, 2-fluoro-4-(trifluoromethyl)-", "2-Fluoro-4-(trifluoromethyl)benzoic acid"], "SMILES": "C(F)(F)(F)C1=CC(F)=C(C(O)=O)C=C1", "physical_data": {"Molecular Weight": "208.11", "Molecular Formula": "C8H4F4O2", "Melting Point": "160 \u00b0C"}}