{"cas_no": "115066-14-3", "cn_name": "6-\u6c30\u57fa-7-\u785d\u57fa\u55b9\u5594\u5549-2,3-\u4e8c\u916e", "en_name": ["6-Cyano-7-nitroquinoxaline-2,3-dione", "6-Quinoxalinecarbonitrile, 1,2,3,4-tetrahydro-7-nitro-2,3-dioxo-", "1,2,3,4-Tetrahydro-7-nitro-2,3-dioxo-6-quinoxalinecarbonitrile", "FG 9065", "6-Cyano-2,3-dihydroxy-7-nitroquinoxaline", "6-Cyano-7-nitroquinoxaline-2,3-dione", "CNQX", "2,3-Dioxo-7-nitro-1,2,3,4-tetrahydroquinoxaline-6-carbonitrile", "MeSH ID: D018750"], "SMILES": "N(=O)(=O)C=1C=C2C(=CC1C#N)NC(=O)C(=O)N2", "physical_data": {"Molecular Weight": "232.15", "Molecular Formula": "C9H4N4O4", "Melting Point": "&gt;300 \u00b0C"}}