{"cas_no": "115029-23-7", "cn_name": "2-\u6c1f-5-\u4e09\u6c1f\u7532\u57fa\u82ef\u7532\u9178", "en_name": ["2-Fluoro-5-(trifluoromethyl)benzoic acid", "Benzoic acid, 2-fluoro-5-(trifluoromethyl)-", "2-Fluoro-5-(trifluoromethyl)benzoic acid"], "SMILES": "C(O)(=O)C1=CC(C(F)(F)F)=CC=C1F", "physical_data": {"Molecular Weight": "208.11", "Molecular Formula": "C8H4F4O2", "Melting Point": "101 \u00b0C"}}