{"cas_no": "115103-54-3", "cn_name": "\u567b\u52a0\u5bbe", "en_name": ["Tiagabine", "3-Piperidinecarboxylic acid, 1-[4,4-bis(3-methyl-2-thienyl)-3-buten-1-yl]-, (3R)-", "3-Piperidinecarboxylic acid, 1-[4,4-bis(3-methyl-2-thienyl)-3-butenyl]-, (R)-", "3-Piperidinecarboxylic acid, 1-[4,4-bis(3-methyl-2-thienyl)-3-butenyl]-, (3R)-", "(3R)-1-[4,4-Bis(3-methyl-2-thienyl)-3-buten-1-yl]-3-piperidinecarboxylic acid", "NO 328", "Tiagabine", "(R)-Tiagabine", "Gabatril", "TGB", "NO 050328"], "SMILES": "C(=CCCN1CC(C(O)=O)CCC1)(C2=C(C)C=CS2)C3=C(C)C=CS3", "physical_data": {"Molecular Weight": "375.55", "Molecular Formula": "C20H25NO2S2", "Melting Point": "82-84 \u00b0C"}}