{"cas_no": "1151-15-1", "cn_name": "2-(4-\u7532\u6c27\u57fa\u82ef\u7532\u9170\u57fa)\u82ef\u7532\u9178", "en_name": ["2-(4-Methoxybenzoyl)benzoic acid", "Benzoic acid, 2-(4-methoxybenzoyl)-", "Benzoic acid, o-(p-anisoyl)-", "2-(4-Methoxybenzoyl)benzoic acid", "o-(p-Anisoyl)benzoic acid", "o-(4-Methoxybenzoyl)benzoic acid", "S 23/46", "4\u2032-Methoxy-2-benzoylbenzoic acid", "NSC 28925", "2-(4-Methoxybenzoyl)benzenecarboxylic acid"], "SMILES": "C(=O)(C1=C(C(O)=O)C=CC=C1)C2=CC=C(OC)C=C2", "physical_data": {"Molecular Weight": "256.25", "Molecular Formula": "C15H12O4", "Melting Point": "146 \u00b0C"}}