{"cas_no": "1151-97-9", "cn_name": "2-(2,4-\u4e8c\u785d\u57fa\u82ef\u7532\u57fa)\u5421\u5576", "en_name": ["2-[(2,4-Dinitrophenyl)methyl]pyridine", "Pyridine, 2-[(2,4-dinitrophenyl)methyl]-", "Pyridine, 2-(2,4-dinitrobenzyl)-", "2-[(2,4-Dinitrophenyl)methyl]pyridine", "2-(2\u2032,4\u2032-Dinitrobenzyl)pyridine", "2-(2,4-Dinitrobenzyl)pyridine"], "SMILES": "C(C1=C(N(=O)=O)C=C(N(=O)=O)C=C1)C2=CC=CC=N2", "physical_data": {"Molecular Weight": "259.22", "Molecular Formula": "C12H9N3O4", "Melting Point": "93 \u00b0C"}}