{"cas_no": "1151-94-6", "cn_name": "-\u785d\u57fa\u82ef\u7532\u916e", "en_name": ["4-Methoxy-4\u2032-nitrobenzophenone", "Methanone, (4-methoxyphenyl)(4-nitrophenyl)-", "Benzophenone, 4-methoxy-4\u2032-nitro-", "(4-Methoxyphenyl)(4-nitrophenyl)methanone", "4-Methoxy-4\u2032-nitrobenzophenone", "4-Nitro-4\u2032-methoxybenzophenone", "4\u2032-Methoxy-4-nitrobenzophenone", "4-Methoxyphenyl 4-nitrophenyl ketone", "NSC 406625"], "SMILES": "C(=O)(C1=CC=C(N(=O)=O)C=C1)C2=CC=C(OC)C=C2", "physical_data": {"Molecular Weight": "257.24", "Molecular Formula": "C14H11NO4", "Boiling Point": "192-194 \u00b0C @ Press: 0.9 Torr", "Melting Point": "126-128 \u00b0C"}}