{"cas_no": "115250-38-9", "cn_name": "(2R,3S,4S,5S)-5-\u7f9f\u57fa-2,3,4-\u4e09(\u82c4\u6c27\u57fa)-5-[(\u82c4\u6c27\u57fa)\u7532\u57fa]-\u73af\u5df1\u916e", "en_name": ["(2R,3S,4S,5S)-5-Hydroxy-2,3,4-tris(phenylmethoxy)-5-[(phenylmethoxy)methyl]cyclohexanone", "Cyclohexanone, 5-hydroxy-2,3,4-tris(phenylmethoxy)-5-[(phenylmethoxy)methyl]-, (2R,3S,4S,5S)-", "Cyclohexanone, 5-hydroxy-2,3,4-tris(phenylmethoxy)-5-[(phenylmethoxy)methyl]-, [2R-(2\u03b1,3\u03b2,4\u03b1,5\u03b1)]-", "(2R,3S,4S,5S)-5-Hydroxy-2,3,4-tris(phenylmethoxy)-5-[(phenylmethoxy)methyl]cyclohexanone"], "SMILES": "O(CC1=CC=CC=C1)C2C(OCC3=CC=CC=C3)C(COCC4=CC=CC=C4)(O)CC(=O)C2OCC5=CC=CC=C5", "physical_data": {"Molecular Weight": "552.66", "Molecular Formula": "C35H36O6", "Melting Point": "84-85 \u00b0C"}}