{"cas_no": "115287-37-1", "cn_name": "N-\u7532\u57fa-N-(4-\u785d\u57fa\u82ef\u6c27\u4e59\u57fa)-4-\u785d\u57fa\u82ef\u4e59\u80fa", "en_name": ["N-Methyl-4-nitro-N-[2-(4-nitrophenoxy)ethyl]benzeneethanamine", "Benzeneethanamine, N-methyl-4-nitro-N-[2-(4-nitrophenoxy)ethyl]-", "N-Methyl-4-nitro-N-[2-(4-nitrophenoxy)ethyl]benzeneethanamine"], "SMILES": "C(CN(CCOC1=CC=C(N(=O)=O)C=C1)C)C2=CC=C(N(=O)=O)C=C2", "physical_data": {"Molecular Weight": "345.35", "Molecular Formula": "C17H19N3O5", "Melting Point": "74 \u00b0C"}}