{"cas_no": "1152-62-1", "cn_name": "N-Cbz-L-\u86cb\u6c28\u9178", "en_name": ["Benzyloxycarbonyl-L-methionine", "L-Methionine, N-[(phenylmethoxy)carbonyl]-", "Methionine, N-carboxy-, N-benzyl ester, L-", "Methionine, N-carboxy-, N-benzyl ester", "N-[(Phenylmethoxy)carbonyl]-L-methionine", "N-(Benzyloxycarbonyl)-L-methionine", "(Benzyloxycarbonyl)methionine", "N-(Benzyloxycarbonyl)methionine", "Benzyloxycarbonyl-L-methionine", "N-(Carbobenzyloxy)methionine", "N-Carbobenzoxy-L-methionine", "L-(Carbobenzyloxy)methionine", "CBZ-L-Methionine", "N-Carbobenzyloxy-L-methionine", "(L)-N-Benzyloxycarbonylmethionine", "NSC 88497", "N-CBZ-L-methionine", "(2S)-2-[[(Benzyloxy)carbonyl]amino]-4-(methylsulfanyl)butanoic acid", "(2S)-4-Methylsulfanyl-2-(phenylmethoxycarbonylamino)butanoic acid"], "SMILES": "C(OC(NC(CCSC)C(O)=O)=O)C1=CC=CC=C1", "physical_data": {"Molecular Weight": "283.34", "Molecular Formula": "C13H17NO4S", "Melting Point": "69 \u00b0C"}}