{"cas_no": "115256-11-6", "cn_name": "\u591a\u975e\u5229\u7279", "en_name": ["Dofetilide", "Methanesulfonamide, N-[4-[2-[methyl[2-[4-[(methylsulfonyl)amino]phenoxy]ethyl]amino]ethyl]phenyl]-", "N-[4-[2-[Methyl[2-[4-[(methylsulfonyl)amino]phenoxy]ethyl]amino]ethyl]phenyl]methanesulfonamide", "UK 68798", "Dofetilide", "Tikosyn"], "SMILES": "N(S(C)(=O)=O)C1=CC=C(CCN(CCOC2=CC=C(NS(C)(=O)=O)C=C2)C)C=C1", "physical_data": {"Molecular Weight": "441.56", "Molecular Formula": "C19H27N3O5S2", "Melting Point": "147-149 \u00b0C"}}