{"cas_no": "1152-61-0", "cn_name": "N-CBZ-L-\u5929\u51ac\u6c28\u9178", "en_name": ["Benzyloxycarbonyl-L-aspartic acid", "L-Aspartic acid, N-[(phenylmethoxy)carbonyl]-", "Aspartic acid, N-carboxy-, N-benzyl ester, L-", "Aspartic acid, N-carboxy-, N-benzyl ester", "N-[(Phenylmethoxy)carbonyl]-L-aspartic acid", "Carbobenzoxy-L-aspartic acid", "N-(Benzyloxycarbonyl)-L-aspartic acid", "N-Carbobenzoxy-L-aspartic acid", "N-Benzyloxylcarbonyl-L-aspartic acid", "Cbz-Asp-OH", "N-Carbobenzyloxy-L-aspartic acid", "NSC 88479", "NSC 9972", "Benzyloxycarbonyl-L-aspartic acid", "(2S)-2-(Phenylmethoxycarbonylamino)butanedioic acid", "(2S)-2-[[(Benzyloxy)carbonyl]amino]butanedioic acid"], "SMILES": "C(OC(NC(CC(O)=O)C(O)=O)=O)C1=CC=CC=C1", "physical_data": {"Molecular Weight": "267.23", "Molecular Formula": "C12H13NO6", "Melting Point": "116 \u00b0C"}}