{"cas_no": "115375-60-5", "cn_name": "(3BETA)-\u96c4\u753e-5,16-\u4e8c\u70ef-3,17-\u4e8c\u9187 3-\u4e59\u9178\u916f 17-(\u4e09\u6c1f\u7532\u70f7\u78fa\u9178\u916f)", "en_name": ["3\u03b2-Acetoxyandrosta-5,16-dien-17-yl trifluoromethanesulfonate", "Androsta-5,16-diene-3,17-diol, 3-acetate 17-(trifluoromethanesulfonate), (3\u03b2)-", "3\u03b2-Acetoxyandrosta-5,16-dien-17-yl trifluoromethanesulfonate"], "SMILES": "CC12C(C3C(C4(C)C(=CC3)CC(OC(C)=O)CC4)CC1)CC=C2OS(C(F)(F)F)(=O)=O", "physical_data": {"Molecular Weight": "462.52", "Molecular Formula": "C22H29F3O5S", "Melting Point": "75-76 \u00b0C"}}