{"cas_no": "115338-32-4", "cn_name": "115338-32-4", "en_name": ["2-[4-[4-(2-Methoxyphenyl)-1-piperazinyl]butyl]-1H-isoindole-1,3(2H)-dione hydrobromide (1:1)", "1H-Isoindole-1,3(2H)-dione, 2-[4-[4-(2-methoxyphenyl)-1-piperazinyl]butyl]-, hydrobromide (1:1)", "1H-Isoindole-1,3(2H)-dione, 2-[4-[4-(2-methoxyphenyl)-1-piperazinyl]butyl]-, monohydrobromide", "2-[4-[4-(2-Methoxyphenyl)-1-piperazinyl]butyl]-1H-isoindole-1,3(2H)-dione hydrobromide (1:1)", "NAN 190", "2-(4-(4-(2-Methoxyphenyl)piperazin-1-yl)butyl)-isoindoline-1,3-dione hydrobromide"], "SMILES": "O=C1C=2C(C(=O)N1CCCCN3CCN(CC3)C4=C(OC)C=CC=C4)=CC=CC2.Br", "physical_data": {"Molecular Weight": "", "Molecular Formula": "C23H27N3O3.BrH", "Melting Point": "231-234 \u00b0C"}}