{"cas_no": "1153-51-1", "cn_name": "(3\u03b1,5\u03b1)-16-\u70ef-3-\u753e\u9187", "en_name": ["5\u03b1-Androst-16-en-3\u03b1-ol", "Androst-16-en-3-ol, (3\u03b1,5\u03b1)-", "5\u03b1-Androst-16-en-3\u03b1-ol", "(3\u03b1,5\u03b1)-Androst-16-en-3-ol", "3\u03b1-Hydroxy-5\u03b1-androst-16-ene", "3\u03b1-Hydroxyandrost-16-ene", "E 281", "NSC 71076", "3\u03b1-Androstenol"], "SMILES": "CC12C3C(C4C(C)(CC3)C=CC4)CCC1CC(O)CC2", "physical_data": {"Molecular Weight": "274.44", "Molecular Formula": "C19H30O", "Melting Point": "142.75 \u00b0C"}}