{"cas_no": "1153-05-5", "cn_name": "\u4e09\u82ef\u80c2\u6c27\u5316\u7269", "en_name": ["Triphenylarsine oxide", "Arsine oxide, triphenyl-", "Triphenylarsine oxide", "Triphenylarsenic oxide", "Triphenylarsine monoxide", "NSC 12673", "(Diphenylarsoroso)benzene"], "SMILES": "[As](=O)(C1=CC=CC=C1)(C2=CC=CC=C2)C3=CC=CC=C3", "physical_data": {"Molecular Weight": "322.23", "Molecular Formula": "C18H15AsO", "Melting Point": "189 \u00b0C"}}