{"cas_no": "115388-32-4", "cn_name": "1-(2-\u7532\u6c27\u57fa\u82ef\u57fa)-4-(\u90bb\u82ef\u4e8c\u7532\u9170\u4e9a\u6c28\u57fa\u4e01\u57fa)\u54cc\u55ea\u6c22\u6eb4\u9178\u76d0", "en_name": ["5,5\u2032-Diethoxy-3,3\u2032,4,4\u2032-tetrahydro-8,8\u2032-dimethoxy-1,1\u2032-binaphthalene", "1,1\u2032-Binaphthalene, 5,5\u2032-diethoxy-3,3\u2032,4,4\u2032-tetrahydro-8,8\u2032-dimethoxy-", "1,1\u2032-Binaphthyl, 5,5\u2032-diethoxy-3,3\u2032,4,4\u2032-tetrahydro-8,8\u2032-dimethoxy-", "5,5\u2032-Diethoxy-3,3\u2032,4,4\u2032-tetrahydro-8,8\u2032-dimethoxy-1,1\u2032-binaphthalene"], "SMILES": "O(C)C1=C2C(=CCCC2=C(OCC)C=C1)C=3C=4C(=C(OCC)C=CC4OC)CCC3", "physical_data": {"Molecular Weight": "406.51", "Molecular Formula": "C26H30O4", "Melting Point": "224-225 \u00b0C"}}