{"cas_no": "115314-14-2", "cn_name": "(S)-(+)-\u95f4\u785d\u57fa\u82ef\u78fa\u9178\u7f29\u6c34\u7518\u6cb9\u916f", "en_name": ["Benzenesulfonic acid, 3-nitro-, (2S)-2-oxiranylmethyl ester", "Benzenesulfonic acid, 3-nitro-, (2S)-2-oxiranylmethyl ester", "Benzenesulfonic acid, 3-nitro-, oxiranylmethyl ester, (S)-", "Benzenesulfonic acid, 3-nitro-, (2S)-oxiranylmethyl ester", "(S)-Glycidyl 3-nitrobenzenesulfonate", "(S)-2,3-Epoxypropyl 3-nitrobenzenesulfonate", "(S)-Glycidyl m-nitrobenzenesulfonate", "(S)-(+)-Gycidyl 3-nitrobenzenesulfonate", "(2S)-(+)-Glycidyl 3-nitrobenzenesulfonate", "(S)-(+)-3-Nitrobenzenesulfonic acid oxiranylmethyl ester", "(2S)-Glycidyl 3-nitrobenzenesulfonate", "(S)-(+)-Glycidyl 3-nitrobenzenesulfonate", "(2S)-(+)-Glycidyl 3-nitrobenzenesulfonate", "(2S)-Oxiranylmethyl 3-nitrobenzenesulfonate", "((2S)-Oxiran-2-yl)methyl 3-nitrobenzenesulfonate", "(S)-(2,3-Epoxypropan-1-yl) 3-nitrobenzenesulfonate", "(S)-Oxiran-2-ylmethyl 3-nitrobenzenesulfonate", "3-Nitrobenzenesulfonic acid (S)-oxiran-2-ylmethyl ester", "3-Nitrobenzenesulfonic acid (2S)-oxiran-2-ylmethyl ester", "(S)-(+)-3-Nitrobenzenesulfonic acid glycidyl ester", "3-Nitrobenzenesulfonic acid (S)-glycidyl ester", "(S)-3-Nitrobenzenesulfonic acid oxiranylmethyl ester", "[(2S)-Oxiran-2-yl]methyl 3-nitrobenzenesulfonate", "(S)-Oxiran-2-yl methyl 3-nitrobenzenesulfonate"], "SMILES": "S(OCC1CO1)(=O)(=O)C2=CC(N(=O)=O)=CC=C2", "physical_data": {"Molecular Weight": "259.24", "Molecular Formula": "C9H9NO6S", "Melting Point": "61.1-63.6 \u00b0C"}}