{"cas_no": "115314-17-5", "cn_name": "(R)-(+)-\u95f4\u785d\u57fa\u82ef\u78fa\u9178\u7f29\u6c34\u7518\u6cb9\u916f", "en_name": ["Benzenesulfonic acid, 3-nitro-, (2R)-2-oxiranylmethyl ester", "Benzenesulfonic acid, 3-nitro-, (2R)-2-oxiranylmethyl ester", "Benzenesulfonic acid, 3-nitro-, oxiranylmethyl ester, (R)-", "Benzenesulfonic acid, 3-nitro-, (2R)-oxiranylmethyl ester", "(R)-Glycidyl 3-nitrobenzenesulfonate", "(R)-2,3-Epoxypropyl 3-nitrobenzenesulfonate", "(2R)-(-)-Glycidyl 3-nitrobenzenesulfonate", "(R)-(-)-3-Nitrobenzenesulfonic acid oxiranylmethyl ester", "(2R)-Glycidyl 3-nitrobenzenesulfonate", "(R)-(-)-Glycidyl 3-nitrobenzenesulfonate", "((2R)-Oxiran-2-yl)methyl 3-nitrobenzenesulfonate", "(R)-(2,3-Epoxypropan-1-yl) 3-nitrobenzenesulfonate", "3-Nitrobenzensulfonic acid (R)-oxiran-2-ylmethyl ester", "3-Nitrobenzenesulfonic acid (R)-oxiran-2-ylmethyl ester", "(R)-3-nitrobenzenesulfonic acid glycidyl ester", "(R)-(-)-glycidyl 3-nitrobenzenesulfonate", "(R)-Oxiran-2-ylmethyl 3-nitrobenzenesulfonate", "3-Nitrobenzenesulfonic acid (R)-glycidyl ester", "(R)-3-Nitrobenzenesulfonic acid oxiranylmethyl ester", "(R)-Oxiran-2-ylmethyl 3-nitrobenzenesulfonate", "[(2R)-Oxiran-2-yl]methyl 3-nitrobenzenesulfonate"], "SMILES": "S(OCC1CO1)(=O)(=O)C2=CC(N(=O)=O)=CC=C2", "physical_data": {"Molecular Weight": "259.24", "Molecular Formula": "C9H9NO6S", "Melting Point": "61.1-63.6 \u00b0C"}}