{"cas_no": "115398-34-0", "cn_name": "5-\u6c2f-4\u6c28\u57fa-2,1,3-\u82ef\u5e76\u567b\u4e8c\u5511", "en_name": ["5-Chloro-4-amino-2,1,3-benzothiadiazole", "2,1,3-Benzothiadiazol-4-amine, 5-chloro-", "2,1,3-Benzothiadiazole, 4-amino-5-chloro-", "5-Chloro-2,1,3-benzothiadiazol-4-amine", "5-Chloro-4-amino-2,1,3-benzothiadiazole", "4-Amino-5-chloro-2,1,3-benzothiadiazole"], "SMILES": "NC=1C=2C(C=CC1Cl)=NSN2", "physical_data": {"Molecular Weight": "185.63", "Molecular Formula": "C6H4ClN3S", "Melting Point": "92 \u00b0C"}}