{"cas_no": "115344-47-3", "cn_name": "\u6c30\u80cd\u4f50\u65e6", "en_name": ["Siguazodan", "Guanidine, N-cyano-N\u2032-methyl-N\u2032\u2032-[4-(1,4,5,6-tetrahydro-4-methyl-6-oxo-3-pyridazinyl)phenyl]-", "Guanidine, N-cyano-N\u2032-methyl-N\u2032\u2032-[4-(1,4,5,6-tetrahydro-4-methyl-6-oxo-3-pyridazinyl)phenyl]-, (\u00b1)-", "N-Cyano-N\u2032-methyl-N\u2032\u2032-[4-(1,4,5,6-tetrahydro-4-methyl-6-oxo-3-pyridazinyl)phenyl]guanidine", "SKF 94836", "Siguazodan"], "SMILES": "CC1C(C2=CC=C(N=C(NC#N)NC)C=C2)=NNC(=O)C1", "physical_data": {"Molecular Weight": "284.32", "Molecular Formula": "C14H16N6O", "Melting Point": "267-270 \u00b0C"}}