{"cas_no": "1154-25-2", "cn_name": "5-(N-\u4e59\u57fa-N-\u5f02\u4e19\u57fa)\u963f\u7c73\u6d1b\u5229", "en_name": ["EIPA", "2-Pyrazinecarboxamide, 3-amino-N-(aminoiminomethyl)-6-chloro-5-[ethyl(1-methylethyl)amino]-", "Pyrazinecarboxamide, N-amidino-3-amino-6-chloro-5-(ethylisopropylamino)-", "Pyrazinecarboxamide, 3-amino-N-(aminoiminomethyl)-6-chloro-5-[ethyl(1-methylethyl)amino]-", "3-Amino-N-(aminoiminomethyl)-6-chloro-5-[ethyl(1-methylethyl)amino]-2-pyrazinecarboxamide", "5-(N-Ethyl-N-isopropyl)amiloride", "L 593754", "EIPA", "MH 12-43", "Ethylisopropylamiloride", "3-Amino-6-chloro-N-(diaminomethylidene)-5-[ethyl(propan-2-yl)amino]pyrazine-2-carboxamide"], "SMILES": "N(C(C)C)(CC)C=1C(Cl)=NC(C(NC(=N)N)=O)=C(N)N1", "physical_data": {"Molecular Weight": "299.76", "Molecular Formula": "C11H18ClN7O", "Melting Point": "207-208 \u00b0C"}}