{"cas_no": "115457-83-5", "cn_name": "\u7532\u57fa6-O(N-\u5e9a\u7532\u9170)-\u0391-D-\u8461\u8404\u7cd6\u82f7", "en_name": ["6-O-(N-Heptylcarbamoyl)-methyl-\u03b1-D-glucopyranoside", "\u03b1-D-Glucopyranoside, methyl, 6-(heptylcarbamate)", "Hecameg", "6-O-(N-Heptylcarbamoyl)-methyl-\u03b1-D-glucopyranoside", "Methyl 6-O-(N-heptylcarbamoyl)-\u03b1-D-glucopyranoside", "Anameg 7"], "SMILES": "C(OC(NCCCCCCC)=O)C1OC(OC)C(O)C(O)C1O", "physical_data": {"Molecular Weight": "335.39", "Molecular Formula": "C15H29NO7", "Melting Point": "108-110 \u00b0C"}}