{"cas_no": "1154-59-2", "cn_name": "3,3',4',5-\u56db\u6c2f\u6c34\u6768\u9170\u82ef\u80fa", "en_name": ["3,3\u2032,4\u2032,5-Tetrachlorosalicylanilide", "Benzamide, 3,5-dichloro-N-(3,4-dichlorophenyl)-2-hydroxy-", "Salicylanilide, 3,3\u2032,4\u2032,5-tetrachloro-", "3,5-Dichloro-N-(3,4-dichlorophenyl)-2-hydroxybenzamide", "3,5-Dichlorosalicylic acid 3,4-dichloroanilide", "3,3\u2032,4\u2032,5-Tetrachlorosalicylanilide", "3,5,3\u2032,4\u2032-Tetrachlorosalicylanilide", "Impregon", "Irgasan BS 200", "WR 593", "Lenigron", "MCT 30"], "SMILES": "C(NC1=CC(Cl)=C(Cl)C=C1)(=O)C2=C(O)C(Cl)=CC(Cl)=C2", "physical_data": {"Molecular Weight": "351.01", "Molecular Formula": "C13H7Cl4NO2", "Melting Point": "161 \u00b0C"}}