{"cas_no": "1154-78-5", "cn_name": "\u6728\u7280\u8349\u5b9a\u6c2f\u5316\u7269", "en_name": ["Luteolinidin", "1-Benzopyrylium, 2-(3,4-dihydroxyphenyl)-5,7-dihydroxy-, chloride (1:1)", "Luteolinidin", "Flavylium, 3\u2032,4\u2032,5,7-tetrahydroxy-, chloride", "1-Benzopyrylium, 2-(3,4-dihydroxyphenyl)-5,7-dihydroxy-, chloride", "3\u2032,4\u2032,5,7-Tetrahydroxyflavylium chloride", "Luteolinidol chloride", "2-(3,4-Dihydroxyphenyl)-1-benzopyrylium-5,7-diol chloride"], "SMILES": "OC=1C2=C([O+]=C(C=C2)C3=CC(O)=C(O)C=C3)C=C(O)C1.[Cl-]", "physical_data": {"Molecular Weight": "", "Molecular Formula": "C15H11O5.Cl", "Melting Point": "95 \u00b0C (decomp)"}}