{"cas_no": "115404-57-4", "cn_name": "NILOTICIN", "en_name": ["Niloticin", "Lanost-7-en-3-one, 24,25-epoxy-23-hydroxy-, (13\u03b1,14\u03b2,17\u03b1,20S,23R,24S)-", "(13\u03b1,14\u03b2,17\u03b1,20S,23R,24S)-24,25-Epoxy-23-hydroxylanost-7-en-3-one", "Niloticin"], "SMILES": "CC12C=3C(C4(C)C(CC3)C(C)(C)C(=O)CC4)CCC1(C)C(C(CC(O)C5C(C)(C)O5)C)CC2", "physical_data": {"Molecular Weight": "456.70", "Molecular Formula": "C30H48O3", "Melting Point": "149-151 \u00b0C"}}