{"cas_no": "115571-59-0", "cn_name": "2,3-\u4e8c\u6c2f-6-\u4e09\u6c1f\u7532\u57fa\u7532\u82ef", "en_name": ["1,2-Dichloro-3-methyl-4-(trifluoromethyl)benzene", "Benzene, 1,2-dichloro-3-methyl-4-(trifluoromethyl)-", "1,2-Dichloro-3-methyl-4-(trifluoromethyl)benzene", "2,3-Dichloro-6-(trifluoromethyl)toluene"], "SMILES": "C(F)(F)(F)C1=C(C)C(Cl)=C(Cl)C=C1", "physical_data": {"Molecular Weight": "229.03", "Molecular Formula": "C8H5Cl2F3", "Boiling Point": "108-110 \u00b0C @ Press: 35 Torr"}}