{"cas_no": "1155-62-0", "cn_name": "N-\u82c4\u6c27\u7fb0\u57fa-L-\u8c37\u6c28\u9178", "en_name": ["N-(Benzyloxycarbonyl)-L-glutamic acid", "L-Glutamic acid, N-[(phenylmethoxy)carbonyl]-", "Glutamic acid, N-carboxy-, N-benzyl ester, L-", "Glutamic acid, N-carboxy-, N-benzyl ester", "N-[(Phenylmethoxy)carbonyl]-L-glutamic acid", "N-Carbobenzoxy-L-glutamic acid", "Carbobenzoxy-L-glutamic acid", "N-(Benzyloxycarbonyl)glutamic acid", "N-(Benzyloxycarbonyl)-L-glutamic acid", "N-Cbz-L-glutamic acid", "NSC 555", "NSC 88494", "Benzyloxycarbonyl-L-glutamic acid", "(2S)-2-(Phenylmethoxycarbonylamino)pentanedioic acid", "(2S)-2-[[(Benzyloxy)carbonyl]amino]pentanedioic acid", "(S)-2-(((Benzyloxy)carbonyl)amino)pentanedioic acid"], "SMILES": "C(OC(NC(CCC(O)=O)C(O)=O)=O)C1=CC=CC=C1", "physical_data": {"Molecular Weight": "281.26", "Molecular Formula": "C13H15NO6", "Melting Point": "121 \u00b0C"}}