{"cas_no": "1155-40-4", "cn_name": "4-(4-\u7f9f\u57fa\u82ef\u6c27\u57fa)-3,5-\u4e8c\u7898-\u82ef\u57fa-\u4e59\u9178", "en_name": ["3,5-Diiodothyroacetic acid", "Benzeneacetic acid, 4-(4-hydroxyphenoxy)-3,5-diiodo-", "Acetic acid, [4-(p-hydroxyphenoxy)-3,5-diiodophenyl]-", "4-(4-Hydroxyphenoxy)-3,5-diiodobenzeneacetic acid", "Diac", "3,5-Diiodothyroacetic acid", "NSC 90463", "2-(4-(4-Hydroxyphenoxy)-3,5-diiodophenyl)acetic acid"], "SMILES": "O(C1=C(I)C=C(CC(O)=O)C=C1I)C2=CC=C(O)C=C2", "physical_data": {"Molecular Weight": "496.04", "Molecular Formula": "C14H10I2O4", "Melting Point": "223.5-225.0 \u00b0C"}}