{"cas_no": "1155-00-6", "cn_name": "\u53cc(2-\u785d\u57fa\u82ef\u57fa)\u4e8c\u786b\u5316\u7269", "en_name": ["Bis(2-nitrophenyl) disulfide", "Disulfide, bis(2-nitrophenyl)", "Disulfide, bis(o-nitrophenyl)", "Bis(2-nitrophenyl) disulfide", "Bis(o-nitrophenyl) disulfide", "2,2\u2032-Dinitrodiphenyl disulfide", "o,o\u2032-Dinitrodiphenyl disulfide", "o-Nitrophenyl disulfide", "NSC 203", "NSC 646126", "1-Nitro-2-[(2-nitrophenyl)disulfanyl]benzene", "1,2-Bis(2-nitrophenyl)disulfane"], "SMILES": "S(SC1=C(N(=O)=O)C=CC=C1)C2=C(N(=O)=O)C=CC=C2", "physical_data": {"Molecular Weight": "308.33", "Molecular Formula": "C12H8N2O4S2", "Melting Point": "196-197 \u00b0C"}}