{"cas_no": "1155-56-2", "cn_name": "4-\u82ef\u80fa-1-\u82ef\u7532\u57fa\u54cc\u5576", "en_name": ["1-Benzyl-4-(phenylamino)piperidine", "4-Piperidinamine, N-phenyl-1-(phenylmethyl)-", "Piperidine, 4-anilino-1-benzyl-", "N-Phenyl-1-(phenylmethyl)-4-piperidinamine", "4-Anilino-1-benzylpiperidine", "1-Benzyl-4-anilinopiperidine", "1-Benzyl-4-(phenylamino)piperidine", "NSC 76613", "1-Benzyl-N-phenylpiperidin-4-amine"], "SMILES": "N(C1CCN(CC2=CC=CC=C2)CC1)C3=CC=CC=C3", "physical_data": {"Molecular Weight": "266.38", "Molecular Formula": "C18H22N2", "Melting Point": "84-86 \u00b0C"}}