{"cas_no": "115550-35-1", "cn_name": "\u9a6c\u6ce2\u6c99\u661f", "en_name": ["Marbofloxacin", "7H-Pyrido[3,2,1-ij][4,1,2]benzoxadiazine-6-carboxylic acid, 9-fluoro-2,3-dihydro-3-methyl-10-(4-methyl-1-piperazinyl)-7-oxo-", "9-Fluoro-2,3-dihydro-3-methyl-10-(4-methyl-1-piperazinyl)-7-oxo-7H-pyrido[3,2,1-ij][4,1,2]benzoxadiazine-6-carboxylic acid", "Marbofloxacin", "Marbocyl", "Zeniquin", "Aurizon", "CID 60651"], "SMILES": "O=C1C=2C3=C(C(=C(F)C2)N4CCN(C)CC4)OCN(C)N3C=C1C(O)=O", "physical_data": {"Molecular Weight": "362.36", "Molecular Formula": "C17H19FN4O4", "Melting Point": "268-269 \u00b0C (decomp)"}}