{"cas_no": "115538-83-5", "cn_name": "\u963f\u66ff\u6d1b\u5c14EP\u6742\u8d28D", "en_name": ["4-(3-Chloro-2-hydroxypropoxy)benzeneacetamide", "Benzeneacetamide, 4-(3-chloro-2-hydroxypropoxy)-", "4-(3-Chloro-2-hydroxypropoxy)benzeneacetamide", "1-(p-(Carbamoylmethyl)phenoxy)-3-chloropropan-2-ol", "2-[4-(3-Chloro-2-hydroxypropoxy)phenyl]acetamide"], "SMILES": "O(CC(CCl)O)C1=CC=C(CC(N)=O)C=C1", "physical_data": {"Molecular Weight": "243.69", "Molecular Formula": "C11H14ClNO3", "Melting Point": "129-132 \u00b0C"}}