{"cas_no": "1155-64-2", "cn_name": "N6-Cbz-L-\u8d56\u6c28\u9178", "en_name": ["\u03b5-(Benzyloxycarbonyl)-L-lysine", "L-Lysine, N6-[(phenylmethoxy)carbonyl]-", "Lysine, N6-carboxy-, N6-benzyl ester, L-", "Lysine, N6-carboxy-, N-benzyl ester", "L-Lysine, N6-carboxy-, N-benzyl ester", "N6-[(Phenylmethoxy)carbonyl]-L-lysine", "N\u03b5-(Benzyloxycarbonyl)-L-lysine", "N\u03b5-(Benzyloxycarbonyl)lysine", "N\u03b5-Carbobenzoxy-L-lysine", "N6-Carbobenzoxy-L-lysine", "N6-Carboxylysine N6-benzyl ester", "N6-(Benzyloxycarbonyl)-L-lysine", "N6-(Phenylmethoxycarbonyl)-L-lysine", "\u03b5-(Benzyloxycarbonyl)-L-lysine", "N-\u03b5-Benzoyloxycarbonyllysine", "N6-Carbobenzyloxy-L-lysine", "\u03b5-N-Carbobenzyloxy-L-lysine", "H-L-Lys(Cbz)-OH", "N-\u03b5-Carbobenzyloxyl-L-Lysine", "(S)-2-Amino-6-(((benzyloxy)carbonyl)amino)hexanoic acid", "(2S)-2-Amino-6-(phenylmethoxycarbonylamino)hexanoic acid", "N\u03b5-Benzyloxycarbonyl-L-lysine", "(2S)-2-Amino-6-[[(benzyloxy)carbonyl]amino]hexanoic acid"], "SMILES": "C(OC(NCCCCC(C(O)=O)N)=O)C1=CC=CC=C1", "physical_data": {"Molecular Weight": "280.32", "Molecular Formula": "C14H20N2O4", "Melting Point": "230 \u00b0C"}}