{"cas_no": "1156-50-9", "cn_name": "\u4e8c(\u5bf9\u785d\u57fa\u82ef)\u786b\u781c", "en_name": ["1,1\u2032-Sulfonylbis[4-nitrobenzene]", "Benzene, 1,1\u2032-sulfonylbis[4-nitro-", "Sulfone, bis(p-nitrophenyl)", "1,1\u2032-Sulfonylbis[4-nitrobenzene]", "4,4\u2032-Dinitrodiphenyl sulfone", "Bis(p-nitrophenyl) sulfone", "4-Nitrophenyl sulfone", "Bis(4-nitrophenyl) sulfone", "NSC 20609", "1-Nitro-4-(4-nitrophenyl)sulfonylbenzene"], "SMILES": "S(=O)(=O)(C1=CC=C(N(=O)=O)C=C1)C2=CC=C(N(=O)=O)C=C2", "physical_data": {"Molecular Weight": "308.27", "Molecular Formula": "C12H8N2O6S", "Melting Point": "282 \u00b0C"}}