{"cas_no": "1156-92-9", "cn_name": "4-\u96c4\u70ef\u4e8c\u9187", "en_name": ["4-Androstenediol", "Androst-4-ene-3,17-diol, (3\u03b2,17\u03b2)-", "Androst-4-ene-3\u03b2,17\u03b2-diol", "(3\u03b2,17\u03b2)-Androst-4-ene-3,17-diol", "3\u03b2,17\u03b2-Dihydroxy-4-androstene", "4-Androstenediol", "\u03944-Androstene-3\u03b2,17\u03b2-diol", "NSC 12458"], "SMILES": "CC12C3C(C4C(C)(CC3)C(O)CC4)CCC1=CC(O)CC2", "physical_data": {"Molecular Weight": "290.44", "Molecular Formula": "C19H30O2", "Melting Point": "155.5 \u00b0C"}}