{"cas_no": "115619-01-7", "cn_name": "4-(4-\u4e59\u57fa\u54cc\u55ea-1-\u57fa)\u82ef\u80fa", "en_name": ["4-(4-Ethyl-1-piperazinyl)benzenamine", "Benzenamine, 4-(4-ethyl-1-piperazinyl)-", "4-(4-Ethyl-1-piperazinyl)benzenamine", "4-(4-Ethylpiperazin-1-yl)phenylamine", "4-(4-Ethylpiperazin-1-yl)aniline", "4-(4-Ethylpiperazin-1-yl)benzenamine", "4-(4-Ethylpiperazine-1-yl)aniline"], "SMILES": "C(C)N1CCN(CC1)C2=CC=C(N)C=C2", "physical_data": {"Molecular Weight": "205.30", "Molecular Formula": "C12H19N3", "Melting Point": "73-75 \u00b0C"}}