{"cas_no": "1156-51-0", "cn_name": "2,2-\u53cc(4-\u6c30\u6c27\u82ef\u57fa)\u4e19\u70f7", "en_name": ["Bisphenol A dicyanate", "Cyanic acid, C,C\u2032-[(1-methylethylidene)di-4,1-phenylene] ester", "Cyanic acid, isopropylidenedi-p-phenylene ester", "Cyanic acid, (1-methylethylidene)di-4,1-phenylene ester", "4,4\u2032-Dicyanatodiphenyldimethylmethane", "Bisphenol A dicyanate", "Isopropylidenedi-p-phenylene cyanate", "2,2-Bis(4-cyanatophenyl)propane", "4,4\u2032-Isopropylidenediphenyl dicyanate", "Dian dicyanate", "2,2-Bis(p-cyanatophenyl)propane", "AroCy B 10", "Dicyanatobisphenol A", "AroCy B 40S", "AroCy B 40", "Skylex CA 260", "B 10", "KU 6537", "Skylex CA 200", "B 40", "Primaset BADCY", "NSC 646242", "BADCY", "CX (cyanate ester)", "CX", "B 40S", "HF 1", "HF 1 (cyanate ester)", "CA 210", "Bandy", "HF 10", "Bisphenol A cyanate", "BA 3000", "Lonza BADCY", "Primaset BA 3000", "4,4\u2032-Isopropylidene diphenylcyanate", "Cytester TA", "CE 01MO", "TA 1500", "Bisphenol A dicyanate ester", "C 01MO", "TA-CN"], "SMILES": "C(C)(C)(C1=CC=C(OC#N)C=C1)C2=CC=C(OC#N)C=C2", "physical_data": {"Molecular Weight": "278.31", "Molecular Formula": "C17H14N2O2", "Melting Point": "77-80 \u00b0C"}}