{"cas_no": "1156-19-0", "cn_name": "\u59a5\u62c9\u78fa\u8132", "en_name": ["Tolazamide", "Benzenesulfonamide, N-[[(hexahydro-1H-azepin-1-yl)amino]carbonyl]-4-methyl-", "Urea, 1-(hexahydro-1H-azepin-1-yl)-3-(p-tolylsulfonyl)-", "N-[[(Hexahydro-1H-azepin-1-yl)amino]carbonyl]-4-methylbenzenesulfonamide", "U 17835", "1-(Hexahydro-1-azepinyl)-3-p-tolylsulfonylurea", "1-(Hexahydro-1H-azepin-1-yl)-3-(p-tolylsulfonyl)urea", "Tolazamide", "Tolinase", "N-(p-Toluenesulfonyl)-N\u2032-hexamethyleniminourea", "Norglycin", "Tolanase", "1-(4-Methylphenylsulfonyl)-3-(hexahydro-1H-azepin-1-yl)urea", "Diabewas", "NSC 70762", "1-(Azepan-1-yl)-3-(4-methylphenyl)sulfonylurea", "MeSH ID: D014042"], "SMILES": "S(NC(NN1CCCCCC1)=O)(=O)(=O)C2=CC=C(C)C=C2", "physical_data": {"Molecular Weight": "311.40", "Molecular Formula": "C14H21N3O3S", "Melting Point": "170-173 \u00b0C"}}