{"cas_no": "115610-29-2", "cn_name": "3,4-\u4e8c\u7f9f\u57fa-\u53cd\u5f0f-\u8089\u6842\u9178\u82ef\u4e59\u916f", "en_name": ["(E)-Caffeic acid phenethyl ester", "2-Propenoic acid, 3-(3,4-dihydroxyphenyl)-, 2-phenylethyl ester, (2E)-", "2-Propenoic acid, 3-(3,4-dihydroxyphenyl)-, 2-phenylethyl ester, (E)-", "(E)-Caffeic acid phenethyl ester", "Phenethyl (E)-caffeate"], "SMILES": "C(=CC(OCCC1=CC=CC=C1)=O)C2=CC(O)=C(O)C=C2", "physical_data": {"Molecular Weight": "284.31", "Molecular Formula": "C17H16O4", "Melting Point": "121-123 \u00b0C"}}