{"cas_no": "1156-78-1", "cn_name": "2'-HYDROXYGENISTEIN", "en_name": ["2\u2032-Hydroxygenistein", "4H-1-Benzopyran-4-one, 3-(2,4-dihydroxyphenyl)-5,7-dihydroxy-", "Isoflavone, 2\u2032,4\u2032,5,7-tetrahydroxy-", "3-(2,4-Dihydroxyphenyl)-5,7-dihydroxy-4H-1-benzopyran-4-one", "2\u2032,4\u2032,5,7-Tetrahydroxyisoflavone", "2\u2032-Hydroxygenistein", "2\u2032-Hydroxyisoprunetin"], "SMILES": "O=C1C=2C(OC=C1C3=C(O)C=C(O)C=C3)=CC(O)=CC2O", "physical_data": {"Molecular Weight": "286.24", "Molecular Formula": "C15H10O6", "Melting Point": "270-273 \u00b0C"}}