{"cas_no": "115666-47-2", "cn_name": "6-\u7898\u5432\u54da", "en_name": ["6-Iodo-1H-indole", "1H-Indole, 6-iodo-", "6-Iodo-1H-indole", "6-Iodoindole"], "SMILES": "IC=1C=C2C(=CC1)C=CN2", "physical_data": {"Molecular Weight": "243.04", "Molecular Formula": "C8H6IN", "Melting Point": "70-71 \u00b0C"}}