{"cas_no": "115787-50-3", "cn_name": "5-\u6eb4\u4e59\u9170\u57fa-2-\u7f9f\u57fa\u82ef\u7532\u919b", "en_name": ["5-(2-Bromoacetyl)-2-hydroxybenzaldehyde", "Benzaldehyde, 5-(2-bromoacetyl)-2-hydroxy-", "Benzaldehyde, 5-(bromoacetyl)-2-hydroxy-", "5-(2-Bromoacetyl)-2-hydroxybenzaldehyde", "5-(Bromoacetyl)salicylaldehyde"], "SMILES": "C(CBr)(=O)C1=CC(C=O)=C(O)C=C1", "physical_data": {"Molecular Weight": "243.05", "Molecular Formula": "C9H7BrO3", "Melting Point": "117-118 \u00b0C"}}