{"cas_no": "1157-39-7", "cn_name": "4',7-\u4e8c\u7532\u6c27\u57fa\u5f02\u9ec4\u916e", "en_name": ["4\u2032,7-Dimethoxyisoflavone", "4H-1-Benzopyran-4-one, 7-methoxy-3-(4-methoxyphenyl)-", "Isoflavone, 4\u2032,7-dimethoxy-", "7-Methoxy-3-(4-methoxyphenyl)-4H-1-benzopyran-4-one", "4\u2032,7-Dimethoxyisoflavone", "Dimethoxydaidzein", "Di-O-methyldaidzein", "Formononetin methyl ether", "7-O-Methylformononetin", "7,4\u2032-Dimethoxyisoflavone", "Formononetin 7-O-methyl ether", "4\u2032,7-Dimethoxylisoflavone", "4\u2032,7-Di-O-methyldaidzein"], "SMILES": "O=C1C=2C(=CC(OC)=CC2)OC=C1C3=CC=C(OC)C=C3", "physical_data": {"Molecular Weight": "282.29", "Molecular Formula": "C17H14O4", "Melting Point": "155 \u00b0C"}}