{"cas_no": "1158-17-4", "cn_name": "\u90bb\u785d\u57fa\u82ef\u57fa BETA-D-\u786b\u4ee3\u5421\u5583\u534a\u4e73\u7cd6\u82f7", "en_name": ["o-Nitrophenyl \u03b2-D-thiogalactoside", "\u03b2-D-Galactopyranoside, 2-nitrophenyl 1-thio-", "Galactopyranoside, o-nitrophenyl 1-thio-, \u03b2-D-", "Galactopyranoside, o-nitrophenyl 1-thio-", "2-Nitrophenyl 1-thio-\u03b2-D-galactopyranoside", "Thio-o-nitrophenyl-\u03b2-D-galactopyranoside", "o-Nitrophenyl \u03b2-D-thiogalactoside", "o-Nitrophenyl 1-thio-\u03b2-D-galactoside", "2-Nitrophenyl-\u03b2-D-thiogalactopyranoside"], "SMILES": "S(C1OC(CO)C(O)C(O)C1O)C2=C(N(=O)=O)C=CC=C2", "physical_data": {"Molecular Weight": "317.32", "Molecular Formula": "C12H15NO7S", "Melting Point": "196 \u00b0C"}}