{"cas_no": "1158749-94-0", "cn_name": "2-\u6c27\u4ee3-1,8-\u4e8c\u6c2e\u6742\u87ba[4.5]\u7678\u70f7-8-\u7532\u9178\u53d4\u4e01\u916f", "en_name": ["1,1-Dimethylethyl 2-oxo-1,8-diazaspiro[4.5]decane-8-carboxylate", "1,8-Diazaspiro[4.5]decane-8-carboxylic acid, 2-oxo-, 1,1-dimethylethyl ester", "1,1-Dimethylethyl 2-oxo-1,8-diazaspiro[4.5]decane-8-carboxylate"], "SMILES": "O=C1NC2(CCN(C(OC(C)(C)C)=O)CC2)CC1", "physical_data": {"Molecular Weight": "254.33", "Molecular Formula": "C13H22N2O3", "Melting Point": "156-158 \u00b0C"}}