{"cas_no": "1159-03-1", "cn_name": "5-(3-\u4e8c\u7532\u6c28\u57fa\u4e19\u57fa)-10,11-\u4e8c\u6c22\u4e8c\u82ef\u5e76[A,D]\u73af\u5e9a\u70ef-5-\u9187", "en_name": ["5-[3-(Dimethylamino)propyl]-10,11-dihydro-5H-dibenzo[a,d]cyclohepten-5-ol", "5H-Dibenzo[a,d]cyclohepten-5-ol, 5-[3-(dimethylamino)propyl]-10,11-dihydro-", "5-[3-(Dimethylamino)propyl]-10,11-dihydro-5H-dibenzo[a,d]cyclohepten-5-ol"], "SMILES": "C(CCN(C)C)C1(O)C=2C(CCC=3C1=CC=CC3)=CC=CC2", "physical_data": {"Molecular Weight": "295.42", "Molecular Formula": "C20H25NO", "Melting Point": "118-119 \u00b0C"}}