{"cas_no": "115956-13-3", "cn_name": "\u7532\u78fa\u9178\u591a\u62c9\u53f8\u743c", "en_name": ["Dolasetron mesylate", "1H-Indole-3-carboxylic acid, octahydro-3-oxo-2,6-methano-2H-quinolizin-8-yl ester, stereoisomer, methanesulfonate (1:1)", "1H-Indole-3-carboxylic acid, octahydro-3-oxo-2,6-methano-2H-quinolizin-8-yl ester, (2\u03b1,6\u03b1,8\u03b1,9a\u03b2)-, monomethanesulfonate", "1H-Indole-3-carboxylic acid, octahydro-3-oxo-2,6-methano-2H-quinolizin-8-yl ester, stereoisomer, monomethanesulfonate", "2,6-Methano-2H-quinolizine, 1H-indole-3-carboxylic acid deriv.", "MDL 73147EF", "Dolasetron mesylate", "Anzemet", "Anxemet"], "SMILES": "S(C)(=O)(=O)O.O(C(=O)C=1C=2C(NC1)=CC=CC2)C3CC4N5C(CC(C4)C(=O)C5)C3", "physical_data": {"Molecular Weight": "", "Molecular Formula": "C19H20N2O3.CH4O3S", "Melting Point": "278 \u00b0C"}}