{"cas_no": "1159-86-0", "cn_name": "1,2-\u4e8c\u82ef\u57fa\u82ef \u8bd5\u5242", "en_name": ["1,2-Dibenzoylbenzene", "Methanone, 1,1\u2032-(1,2-phenylene)bis[1-phenyl-", "Benzene, o-dibenzoyl-", "Methanone, 1,2-phenylenebis[phenyl-", "1,1\u2032-(1,2-Phenylene)bis[1-phenylmethanone]", "1,2-Dibenzoylbenzene", "o-Dibenzoylbenzene", "2-Benzoylbenzophenone", "o-Benzoylbenzophenone", "NSC 6145", "1,2-Phenylenebis(phenylmethanone)", "(2-Benzoylphenyl)-phenylmethanone"], "SMILES": "C(=O)(C1=C(C(=O)C2=CC=CC=C2)C=CC=C1)C3=CC=CC=C3", "physical_data": {"Molecular Weight": "286.32", "Molecular Formula": "C20H14O2", "Melting Point": "148 \u00b0C"}}