{"cas_no": "115929-59-4", "cn_name": "2-\u6eb4-4-\u7532\u6c27\u57fa-6-\u785d\u57fa\u82ef\u915a", "en_name": ["2-Bromo-4-methoxy-6-nitrophenol", "Phenol, 2-bromo-4-methoxy-6-nitro-", "2-Bromo-4-methoxy-6-nitrophenol"], "SMILES": "N(=O)(=O)C1=C(O)C(Br)=CC(OC)=C1", "physical_data": {"Molecular Weight": "248.03", "Molecular Formula": "C7H6BrNO4", "Melting Point": "108-110 \u00b0C"}}