{"cas_no": "1159977-36-2", "cn_name": "2-\u6c1f-4-\u53bb\u6c1f\u6bd4\u5361\u9c81\u80fa", "en_name": ["N-[4-Cyano-3-(trifluoromethyl)phenyl]-3-[(2-fluorophenyl)sulfonyl]-2-hydroxy-2-methylpropanamide", "Propanamide, N-[4-cyano-3-(trifluoromethyl)phenyl]-3-[(2-fluorophenyl)sulfonyl]-2-hydroxy-2-methyl-", "N-[4-Cyano-3-(trifluoromethyl)phenyl]-3-[(2-fluorophenyl)sulfonyl]-2-hydroxy-2-methylpropanamide"], "SMILES": "S(CC(C(NC1=CC(C(F)(F)F)=C(C#N)C=C1)=O)(C)O)(=O)(=O)C2=C(F)C=CC=C2", "physical_data": {"Molecular Weight": "430.37", "Molecular Formula": "C18H14F4N2O4S", "Melting Point": "160-164 \u00b0C"}}