{"cas_no": "1159-54-2", "cn_name": "\u4e09(4-\u6c2f\u82ef\u57fa)\u81a6", "en_name": ["Tris(4-chlorophenyl)phosphine", "Phosphine, tris(4-chlorophenyl)-", "Phosphine, tris(p-chlorophenyl)-", "Tris(4-chlorophenyl)phosphine", "Tris(p-chlorophenyl)phosphine", "Tri(p-chlorophenyl)phosphine", "Tri(4-chlorophenyl)phosphine", "NSC 136459"], "SMILES": "P(C1=CC=C(Cl)C=C1)(C2=CC=C(Cl)C=C2)C3=CC=C(Cl)C=C3", "physical_data": {"Molecular Weight": "365.62", "Molecular Formula": "C18H12Cl3P", "Melting Point": "103 \u00b0C"}}