{"cas_no": "1159-53-1", "cn_name": "4,4',4''-\u4e09\u7532\u57fa\u4e09\u82ef\u80fa", "en_name": ["Tri-p-tolylamine", "Benzenamine, 4-methyl-N,N-bis(4-methylphenyl)-", "Tri-p-tolylamine", "4-Methyl-N,N-bis(4-methylphenyl)benzenamine", "Tris(p-methylphenyl)amine", "Tritolylamine", "Tris(p-tolyl)amine", "Tris(4-tolyl)amine", "Tri-4-tolylamine", "N,N-Bis(p-tolyl)-p-toluidine", "N,N,N-Tri(4-methylphenyl)amine", "N,N,N-Tris(4-methylphenyl)amine", "Tri(4-methylphenyl)amine", "Tris(4-methylphenyl)amine", "T 3TA"], "SMILES": "N(C1=CC=C(C)C=C1)(C2=CC=C(C)C=C2)C3=CC=C(C)C=C3", "physical_data": {"Molecular Weight": "287.40", "Molecular Formula": "C21H21N", "Boiling Point": "294.8 \u00b0C", "Melting Point": "117 \u00b0C", "Density": "1.10 g/cm\u00b3"}}