{"cas_no": "116-06-3", "cn_name": "\u6d95\u706d\u5a01(\u94c1\u706d\u514b)", "en_name": ["Aldicarb", "Propanal, 2-methyl-2-(methylthio)-, O-[(methylamino)carbonyl]oxime", "Propionaldehyde, 2-methyl-2-(methylthio)-, O-(methylcarbamoyl)oxime", "2-Methyl-2-(methylthio)propionaldehyde O-(methylcarbamoyl)oxime", "Temik", "UC 21149", "Temik 10G", "Aldicarb", "Temik G 10", "OMS 771", "NSC 379586", "2-Methyl-2-(methylthio)propanal O-(N-methylcarbamoyl)oxime", "MeSH ID: D000448"], "SMILES": "C(C=NOC(NC)=O)(SC)(C)C", "physical_data": {"Molecular Weight": "190.26", "Molecular Formula": "C7H14N2O2S", "Melting Point": "99-100 \u00b0C", "Density": "1.1950 g/cm\u00b3 @ Temp: 25 \u00b0C"}}