{"cas_no": "116-26-7", "cn_name": "2,3-\u4e8c\u6c22-2,2,6-\u4e09\u7532\u57fa\u82ef\u7532\u919b", "en_name": ["Safranal", "1,3-Cyclohexadiene-1-carboxaldehyde, 2,6,6-trimethyl-", "2,6,6-Trimethyl-1,3-cyclohexadiene-1-carboxaldehyde", "Safranal", "2,2,6-Trimethyl-4,6-cyclohexadien-1-aldehyde", "2,6,6-Trimethyl-1,3-cyclohexadiene-1-aldehyde", "2,6,6-Trimethylcyclohexa-1,3-dienecarboxaldehyde", "2,6,6-Trimethylcyclohexa-1,3-diene-1-carbaldehyde", "2,6,6-Trimethylcyclohexa-1,3-dienecarbaldehyde", "2,3-Dihydro-2,2,6-trimethylbenzaldehyde"], "SMILES": "C(=O)C=1C(C)(C)CC=CC1C", "physical_data": {"Molecular Weight": "150.22", "Molecular Formula": "C10H14O", "Boiling Point": "70 \u00b0C", "Melting Point": "&lt;25 \u00b0C"}}