{"cas_no": "116-16-5", "cn_name": "\u516d\u6c2f\u4e19\u916e", "en_name": ["Hexachloroacetone", "2-Propanone, 1,1,1,3,3,3-hexachloro-", "2-Propanone, hexachloro-", "1,1,1,3,3,3-Hexachloro-2-propanone", "HCA", "Hexachloroacetone", "1,1,1,3,3,3-Hexachloropropanone", "Hexachloropropanone", "Bis(trichloromethyl) ketone", "Perchloroacetone", "Hexachloro-2-propanone", "NSC 6852"], "SMILES": "C(C(Cl)(Cl)Cl)(C(Cl)(Cl)Cl)=O", "physical_data": {"Molecular Weight": "264.75", "Molecular Formula": "C3Cl6O", "Boiling Point": "202-204 \u00b0C", "Melting Point": "-2 \u00b0C", "Density": "1.444 g/cm\u00b3 @ Temp: 12 \u00b0C"}}