{"cas_no": "116-15-4", "cn_name": "\u516d\u6c1f\u4e19\u70ef", "en_name": ["Hexafluoropropylene", "1-Propene, 1,1,2,3,3,3-hexafluoro-", "Propene, hexafluoro-", "1,1,2,3,3,3-Hexafluoro-1-propene", "Hexafluoro-1-propene", "Perfluoropropene", "Perfluoropropylene", "Hexafluoropropene", "Perfluoro-1-propene", "Hexafluoropropylene", "1,1,2,3,3,3-Hexafluoropropene", "R 1216", "F 1216", "Propylene hexafluoride", "Esafluoropropene", "PFC 1216", "HFC 1216", "HFO 1216", "FO 1216", "HFP"], "SMILES": "C(C(F)(F)F)(=C(F)F)F", "physical_data": {"Molecular Weight": "150.02", "Molecular Formula": "C3F6", "Boiling Point": "-29.6 \u00b0C", "Melting Point": "-156.5 \u00b0C", "Density": "1.583 g/cm\u00b3 @ Temp: -40 \u00b0C"}}