{"cas_no": "116-53-0", "cn_name": "DL-2-\u7532\u57fa\u4e01\u9178", "en_name": ["2-Methylbutanoic acid", "Butanoic acid, 2-methyl-", "Butyric acid, 2-methyl-", "Butyric acid, \u03b1-methyl-", "2-Methylbutanoic acid", "Active valeric acid", "Ethylmethylacetic acid", "2-Methylbutyric acid", "\u03b1-Methylbutyric acid", "Methylethylacetic acid", "\u03b1-Methyl-n-butyric acid", "2-Methyl-n-butyric acid", "DL-2-Methylbutyric acid", "(\u00b1)-2-Methylbutyric acid", "(\u00b1)-Methylethylacetic acid", "DL-2-Methylbutanoic acid", "DL-\u03b1-Methylbutyric acid", "(\u00b1)-2-Methylbutanoic acid", "(\u00b1)-\u03b1-Methylbutyric acid", "2-Ethylpropanoic acid", "NSC 7304", "Hydroangelic acid"], "SMILES": "C(C(O)=O)(CC)C", "physical_data": {"Molecular Weight": "102.13", "Molecular Formula": "C5H10O2", "Boiling Point": "176.5 \u00b0C", "Density": "0.9332 g/cm\u00b3 @ Temp: 20 \u00b0C"}}