{"cas_no": "116-31-4", "cn_name": "\u89c6\u9ec4\u919b", "en_name": ["Retinal", "Retinal", "Retinal, all-trans-", "Retinene 1", "Axerophthal", "2,4,6,8-Nonatetraenal, 3,7-dimethyl-9-(2,6,6-trimethyl-1-cyclohexen-1-yl)-, (all-E)-", "Retinaldehyde", "trans-Retinal", "Vitamin A aldehyde", "all-trans-Retinaldehyde", "Vitamin A1 aldehyde", "E-Retinal", "trans-Vitamin A aldehyde", "all-E-Retinal", "all-trans-Vitamin A aldehyde", "(all-E)-3,7-Dimethyl-9-(2,6,6-trimethyl-1-cyclohexen-1-yl)-2,4,6,8-nonatetraenal", "Retinene", "all-trans-Retinal", "15-Apo-\u03b2-caroten-15-al", "15-Apo-\u03b2-carotenal", "(all-E)-15-Apo-\u03b2-caroten-15-al"], "SMILES": "C(=CC(=CC=CC(=CC=O)C)C)C=1C(C)(C)CCCC1C", "physical_data": {"Molecular Weight": "284.44", "Molecular Formula": "C20H28O", "Melting Point": "63 \u00b0C"}}