{"cas_no": "116-66-5", "cn_name": "\u9e9d\u9999", "en_name": ["Moskene", "1H-Indene, 2,3-dihydro-1,1,3,3,5-pentamethyl-4,6-dinitro-", "Indan, 1,1,3,3,5-pentamethyl-4,6-dinitro-", "2,3-Dihydro-1,1,3,3,5-pentamethyl-4,6-dinitro-1H-indene", "Moskene", "1,1,3,3,5-Pentamethyl-4,6-dinitroindan", "Musk moskene", "1,1,3,3,5-Pentamethyl-4,6-dinitroindane", "NSC 60035", "4,6-Dinitro-1,1,3,3,5-pentamethylindane", "1,1,3,3,5-Pentamethyl-4,6-dinitro-2H-indene"], "SMILES": "N(=O)(=O)C1=C2C(C(C)(C)CC2(C)C)=CC(N(=O)=O)=C1C", "physical_data": {"Molecular Weight": "278.30", "Molecular Formula": "C14H18N2O4", "Boiling Point": "351.1 \u00b0C"}}