{"cas_no": "116-14-3", "cn_name": "\u56db\u6c1f\u4e59\u70ef", "en_name": ["Tetrafluoroethylene", "Ethene, 1,1,2,2-tetrafluoro-", "Ethylene, tetrafluoro-", "Ethene, tetrafluoro-", "1,1,2,2-Tetrafluoroethene", "Tetrafluoroethylene", "Tetrafluoroethene", "Perfluoroethene", "Perfluoroethylene", "TFE", "1,1,2,2-Tetrafluoroethylene", "Ethylene tetrafluoride", "R 1114", "Teflon 851K02730", "PFC 1114", "BYK 990", "FO 1114"], "SMILES": "C(=C(F)F)(F)F", "physical_data": {"Molecular Weight": "100.01", "Molecular Formula": "C2F4", "Boiling Point": "-75.9 \u00b0C", "Melting Point": "-142.5 \u00b0C", "Density": "1.519 g/cm\u00b3 @ Temp: -76 \u00b0C"}}