{"cas_no": "116-69-8", "cn_name": "3-\u6eb4\u90bb\u82ef\u4e8c\u7532\u9178", "en_name": ["3-Bromophthalic acid", "1,2-Benzenedicarboxylic acid, 3-bromo-", "Phthalic acid, 3-bromo-", "3-Bromo-1,2-benzenedicarboxylic acid", "3-Bromophthalic acid"], "SMILES": "C(O)(=O)C1=C(C(O)=O)C=CC=C1Br", "physical_data": {"Molecular Weight": "245.03", "Molecular Formula": "C8H5BrO4", "Melting Point": "177-178 \u00b0C"}}