{"cas_no": "116-82-5", "cn_name": "1-\u6c28\u57fa-2-\u6eb4-4-\u7f9f\u57fa\u84bd\u918c", "en_name": ["1-Amino-2-bromo-4-hydroxy-9,10-anthracenedione", "9,10-Anthracenedione, 1-amino-2-bromo-4-hydroxy-", "Anthraquinone, 1-amino-2-bromo-4-hydroxy-", "1-Amino-2-bromo-4-hydroxy-9,10-anthracenedione", "1-Amino-2-bromo-4-hydroxyanthraquinone", "1-Amino-4-hydroxy-2-bromoanthraquinone", "1-Amino-2-bromo-4-hydroxy-9,10-anthraquinone", "C.I. Disperse Violet 17", "Sumikaron Red 3B", "Latyl Red B", "Resiren Red T 3B", "Sandoplast Red 2B", "Intratherm Red P 1339", "Disperse Violet 17", "NSC 176660", "Red P 1339", "DV 17"], "SMILES": "O=C1C=2C(C(=O)C=3C1=CC=CC3)=C(O)C=C(Br)C2N", "physical_data": {"Molecular Weight": "318.12", "Molecular Formula": "C14H8BrNO3", "Melting Point": "232 \u00b0C"}}