{"cas_no": "116-71-2", "cn_name": "\u8fd8\u539f\u6df1\u84ddBO", "en_name": ["Anthra[9,1,2-cde]benzo[rst]pentaphene-5,10-dione", "Anthra[9,1,2-cde]benzo[rst]pentaphene-5,10-dione", "Violanthrone", "C.I. 59800", "Ahcovat Dark Blue BO", "Amanthrene Dark Blue BO", "Amanthrene Supra Dark Blue BO", "Anthravat Dark Blue BO", "Belanthrene Dark Blue BO", "Benzadone Dark Blue BOA", "Benzadone Dark Blue BOR", "Benzadone Dark Blue BORI", "Benzadone Navy Blue R", "Bianthrone A", "Calcoloid Dark Blue B 2R", "Calcoloid Dark Blue BO", "Calcoloid Dark Blue BOD", "Caledon Dark Blue BM", "Caledon Printing Dark Blue BM", "Carbanthrene Dark Blue DR", "Carbanthrene Printing Dark Blue DR", "Cibanone Dark Blue BO", "Cibanone Dark Blue FBOA", "Cibanone Dark Blue FMBA", "Cibanone Dark Blue MBA", "Dibenzanthrone", "Endurol Dark Blue BOR", "Fenanthren Dark Blue BO", "Hydroform Deep Blue BOA", "Indanthren Dark Blue BOA", "Indanthrene Dark Blue BO", "Irgalite Blue 2R", "Leucosol Dark Blue BR", "Mikethrene Dark Blue BO", "Mikethrene Dark Blue BOA", "Navinon Dark Blue BO", "Nihonthrene Dark Blue BO", "Nihonthrene Dark Blue BOA", "Nyanthrene Navy Blue BR", "Palanthrene Dark Blue BOA", "Paradone Dark Blue", "Paradone Dark Blue 58321", "Pernithrene Dark Blue BOA", "Ponsol Dark Blue BR", "Ponsol Dark Blue BRD", "Romantrene Dark Blue FBO", "Sandothrene Dark Blue NBM", "Sandothrene Dark Blue NBO", "Sandothrene Dark Blue NBOA", "Sandothrene Dark Blue NMBA", "Solanthrene Dark Blue B", "Solanthrene Dark Blue BA", "Tinon Dark Blue BO", "Tinon Dark Blue BOA", "Tinon Dark Blue BOR", "Tinon Dark Blue MB", "Tinon Dark Blue MBA", "Tyrian Dark Blue I-BOA", "C.I. Vat Blue 20", "Violanthrone A", "5,10-Violanthrenedione", "Dinaphtho[1,2,3-cd:3\u2032,2\u2032,1\u2032-lm]perylene-5,10-dione", "Mikethrene Dark Blue B", "Sandothrene Dark Blue BOA", "Vat Blue 20", "Solanthrene Dark Blue F-BA", "Vat Dark Blue O", "C.I. Pigment Blue 65", "Pigment Blue 65", "Farbanthren Dark Blue BOA", "Solanthrene Dark Blue BOA", "Ostanthren Dark Blue BOA", "Cibanone Dark Blue BOA", "Violanthrene N", "Caledon Navy BM", "Indanthren Dark Blue DB", "Indanthrene Dark Blue DB", "Vat Blue BO", "NSC 2212", "Navinon Blue BO", "Cibanone Navy Blue 01"], "SMILES": "O=C1C=2C3=C4C(C=5C=6C(C4=CC2)=CC=C7C6C(=CC5)C=8C(C7=O)=CC=CC8)=CC=C3C=9C1=CC=CC9", "physical_data": {"Molecular Weight": "456.49", "Molecular Formula": "C34H16O2", "Melting Point": "338-339 \u00b0C"}}