{"cas_no": "116-17-6", "cn_name": "\u4e09\u5f02\u4e19\u57fa\u4e9a\u78f7\u9178\u916f", "en_name": ["Triisopropyl phosphite", "Phosphorous acid, tris(1-methylethyl) ester", "Phosphorous acid, triisopropyl ester", "Isopropyl phosphite ((C3H7O)3P)", "Triisopropyl phosphite", "Triisopropoxyphosphine", "Isopropyl phosphite", "Tri-2-propyl phosphite", "NSC 6516", "Tris(isopropyl) phosphite"], "SMILES": "P(OC(C)C)(OC(C)C)OC(C)C", "physical_data": {"Molecular Weight": "208.24", "Molecular Formula": "C9H21O3P", "Boiling Point": "87-88 \u00b0C @ Press: 0.5 Torr", "Density": "0.914 g/cm\u00b3 @ Temp: 20 \u00b0C"}}