{"cas_no": "116-09-6", "cn_name": "\u7f9f\u57fa\u4e19\u916e", "en_name": ["Hydroxyacetone", "2-Propanone, 1-hydroxy-", "2-Propanone, hydroxy-", "1-Hydroxy-2-propanone", "Acetol", "Acetone alcohol", "Hydroxyacetone", "Methanol, acetyl-", "1-Hydroxyacetone", "Hydroxymethyl methyl ketone", "Acetylcarbinol", "Hydroxypropanone", "2-Oxopropanol", "\u03b1-Hydroxyacetone", "Acetylmethanol", "Rongal 5242", "NSC 102497", "1-Hydroxy-2-acetone"], "SMILES": "C(CO)(C)=O", "physical_data": {"Molecular Weight": "74.08", "Molecular Formula": "C3H6O2", "Boiling Point": "145.5 \u00b0C", "Melting Point": "-17 \u00b0C", "Density": "1.059 g/cm\u00b3 @ Temp: 25 \u00b0C"}}