{"cas_no": "116-25-6", "cn_name": "1-\u7f9f\u7532\u57fa-5,5-\u4e8c\u7532\u57fa\u6d77\u56e0", "en_name": ["1-(Hydroxymethyl)-5,5-dimethylhydantoin", "2,4-Imidazolidinedione, 1-(hydroxymethyl)-5,5-dimethyl-", "Hydantoin, 1-(hydroxymethyl)-5,5-dimethyl-", "1-(Hydroxymethyl)-5,5-dimethyl-2,4-imidazolidinedione", "1-(Hydroxymethyl)-5,5-dimethylhydantoin", "MDM Hydantoin", "Dantoin MDMH", "1-Methylol-5,5-dimethylhydantoin", "NSC 9185", "N-Methylol 5,5-dimethyl hydantoin"], "SMILES": "C(O)N1C(C)(C)C(=O)NC1=O", "physical_data": {"Molecular Weight": "158.16", "Molecular Formula": "C6H10N2O3", "Melting Point": "100 \u00b0C"}}