{"cas_no": "116-75-6", "cn_name": "\u6eb6\u5242\u84dd 104", "en_name": ["Solvent Blue 104", "9,10-Anthracenedione, 1,4-bis[(2,4,6-trimethylphenyl)amino]-", "Anthraquinone, 1,4-bis(2,4,6-trimethylanilino)-", "1,4-Bis[(2,4,6-trimethylphenyl)amino]-9,10-anthracenedione", "1,4-Bis(2,4,6-trimethylanilino)anthraquinone", "1,4-Dimesidinoanthraquinone", "Fat Soluble Brilliant Blue Anthraquinone", "C.I. 61568", "C.I. Solvent Blue 104", "Nitro Fast Blue 2B", "Solvent Blue 104", "Estofil Blue S-RBL", "1,4-Bis(mesitylamino)anthraquinone", "Sandoplast Blue 2B", "1,4-Bis(2,4,6-trimethylanilino)-9,10-anthraquinone", "Polysynthren Blue RBL", "NSC 135500", "Sandoplast Blue 2BP", "Keyplast Blue KR", "Solvaperm Blue 2B", "KP Plast Blue GR", "1,4-Bis[(2,4,6-trimethylphenyl)amino]anthracene-9,10-dione", "FS Blue 1547", "1,4-Bis(2,4,6-trimethylphenylamino)-9,10-anthraquinone", "Optica Global PRT Blue", "Optica Global PRT Blue Toner", "1,4-Bis(2,4,6-trimethylanilino)anthracene-9,10-dione", "Oracet Blue 690", "Plast Blue 8580", "Elbaplast Blue R"], "SMILES": "N(C1=C2C(=C(NC3=C(C)C=C(C)C=C3C)C=C1)C(=O)C=4C(C2=O)=CC=CC4)C5=C(C)C=C(C)C=C5C", "physical_data": {"Molecular Weight": "474.59", "Molecular Formula": "C32H30N2O2", "Melting Point": "236.5-237.5 \u00b0C"}}