{"cas_no": "116-38-1", "cn_name": "\u4f9d\u915a\u6c2f\u94f5", "en_name": ["Edrophonium chloride", "Benzenaminium, N-ethyl-3-hydroxy-N,N-dimethyl-, chloride (1:1)", "Ammonium, ethyl(m-hydroxyphenyl)dimethyl-, chloride", "Benzenaminium, N-ethyl-3-hydroxy-N,N-dimethyl-, chloride", "Ethyl(m-hydroxyphenyl)dimethylammonium chloride", "Dimethylethyl(3-hydroxyphenyl)ammonium chloride", "Edrophonium chloride", "Tensilon chloride", "Tensilon", "Ethyl(3-hydroxyphenyl)dimethylammonium chloride", "Antirex", "Reversol", "Enlon", "Edrophone chloride"], "SMILES": "[N+](CC)(C)(C)C1=CC(O)=CC=C1.[Cl-]", "physical_data": {"Molecular Weight": "", "Molecular Formula": "C10H16NO.Cl", "Melting Point": "162-163 \u00b0C (decomp)"}}