{"cas_no": "116-43-8", "cn_name": "\u7425\u73c0\u9170\u78fa\u80fa\u567b\u5511", "en_name": ["Succinylsulfathiazole", "Butanoic acid, 4-oxo-4-[[4-[(2-thiazolylamino)sulfonyl]phenyl]amino]-", "Succinanilic acid, 4\u2032-(2-thiazolylsulfamoyl)-", "4-Oxo-4-[[4-[(2-thiazolylamino)sulfonyl]phenyl]amino]butanoic acid", "Kaoxidin", "Kaoxidine", "2-(N4-Succinylsulfanilamido)thiazole", "Succinylsulfathiazole", "Succinylsulphathiazole", "Sulfasuccithiazole", "Sulfasuxidine", "Sulfenterone", "Thiacyl", "4\u2032-(2-Thiazolylsulfamoyl)succinanilic acid", "p-2-Thiazolylsulfamylsuccinanilic acid", "Sulfasuccidine", "Colistatin", "Cremosuxidine", "Rolsul", "Sulfadigesin", "Sulfasuccidin", "Sulfasuccinil", "NSC 14193", "NSC 163939", "3-([4-[(1,3-Thiazol-2-yl)sulfamoyl]phenyl]carbamoyl)propanoic acid"], "SMILES": "S(NC1=NC=CS1)(=O)(=O)C2=CC=C(NC(CCC(O)=O)=O)C=C2", "physical_data": {"Molecular Weight": "355.39", "Molecular Formula": "C13H13N3O5S2", "Melting Point": "193.5 \u00b0C"}}