{"cas_no": "116-29-0", "cn_name": "\u4e09\u6c2f\u6740\u87a8\u781c", "en_name": ["Tetradifon", "Benzene, 1,2,4-trichloro-5-[(4-chlorophenyl)sulfonyl]-", "Sulfone, p-chlorophenyl 2,4,5-trichlorophenyl", "1,2,4-Trichloro-5-[(4-chlorophenyl)sulfonyl]benzene", "V 18", "p-Chlorophenyl 2,4,5-trichlorophenyl sulfone", "Duphar", "Tedion", "2,4,4\u2032,5-Tetrachlorodiphenyl sulfone", "Tedion V 18", "Tetradifon", "Tetradiphon", "Mition", "Roztoczol", "Aredion", "Akaritox", "Polacaritox", "Roztoczol extra"], "SMILES": "S(=O)(=O)(C1=C(Cl)C=C(Cl)C(Cl)=C1)C2=CC=C(Cl)C=C2", "physical_data": {"Molecular Weight": "356.05", "Molecular Formula": "C12H6Cl4O2S", "Melting Point": "146.5-147.5 \u00b0C", "Density": "1.151 g/cm\u00b3 @ Temp: 20 \u00b0C"}}