{"cas_no": "116-11-0", "cn_name": "2-\u7532\u6c27\u57fa\u4e19\u70ef", "en_name": ["2-Methoxypropene", "1-Propene, 2-methoxy-", "Ether, isopropenyl methyl", "2-Methoxy-1-propene", "Isopropenyl methyl ether", "2-Methoxypropene", "Methyl isopropenyl ether", "2-Methoxyprop-1-ene", "Methyl 1-methylvinyl ether"], "SMILES": "C(OC)(C)=C", "physical_data": {"Molecular Weight": "72.11", "Molecular Formula": "C4H8O", "Boiling Point": "35 \u00b0C", "Melting Point": "&lt;25 \u00b0C", "Density": "0.7372 g/cm\u00b3 @ Temp: 20 \u00b0C"}}