{"cas_no": "116-54-1", "cn_name": "\u4e8c\u6c2f\u4e59\u9178\u7532\u916f", "en_name": ["Methyl dichloroacetate", "Acetic acid, 2,2-dichloro-, methyl ester", "Acetic acid, dichloro-, methyl ester", "Methyl dichloroacetate", "Dichloroacetic acid methyl ester", "Methyl 2,2-dichloroacetate", "1,1-Dichloro-2-methoxy-2-oxoethane", "NSC 2882"], "SMILES": "C(C(Cl)Cl)(OC)=O", "physical_data": {"Molecular Weight": "142.97", "Molecular Formula": "C3H4Cl2O2", "Boiling Point": "142.9 \u00b0C", "Melting Point": "-51.9 \u00b0C", "Density": "1.375 g/cm\u00b3 @ Temp: 20 \u00b0C"}}