{"cas_no": "116-02-9", "cn_name": "3,3,5-\u4e09\u7532\u57fa\u73af\u5df1\u9187", "en_name": ["3,3,5-Trimethylcyclohexanol", "Cyclohexanol, 3,3,5-trimethyl-", "3,3,5-Trimethylcyclohexanol", "Cyclonol", "1-Methyl-3-dimethyl-cyclohexanol-5", "3,5,5-Trimethylcyclohexanol", "NSC 4008"], "SMILES": "CC1(C)CC(C)CC(O)C1", "physical_data": {"Molecular Weight": "142.24", "Molecular Formula": "C9H18O", "Boiling Point": "198 \u00b0C", "Melting Point": "37.0 \u00b0C", "Density": "0.878 g/cm\u00b3 @ Temp: 40 \u00b0C"}}