{"cas_no": "116064-76-7", "cn_name": "PIPEROLACTAM C", "en_name": ["1,2,3-Trimethoxydibenz[cd,f]indol-4(5H)-one", "Dibenz[cd,f]indol-4(5H)-one, 1,2,3-trimethoxy-", "1,2,3-Trimethoxydibenz[cd,f]indol-4(5H)-one", "Piperolactam B methyl ether", "O-Methylpiperolactam B", "Piperolactam C", "3-Methoxyaristolactam BII", "2-O-Methylaristolactam FII"], "SMILES": "O(C)C=1C2=C3C(=C(OC)C1OC)C(=O)NC3=CC=4C2=CC=CC4", "physical_data": {"Molecular Weight": "309.32", "Molecular Formula": "C18H15NO4", "Melting Point": "189-190 \u00b0C"}}