{"cas_no": "116081-18-6", "cn_name": "6-\u6eb4-2-\u7532\u57fa\u6076\u5511\u5e76[5,4-B]\u5421\u5576", "en_name": ["6-Bromo-2-methyloxazolo[5,4-b]pyridine", "Oxazolo[5,4-b]pyridine, 6-bromo-2-methyl-", "6-Bromo-2-methyloxazolo[5,4-b]pyridine"], "SMILES": "CC=1OC=2C(N1)=CC(Br)=CN2", "physical_data": {"Molecular Weight": "213.03", "Molecular Formula": "C7H5BrN2O", "Melting Point": "223-225 \u00b0C"}}