{"cas_no": "116057-75-1", "cn_name": "\u827e\u591a\u6614\u82ac", "en_name": ["Idoxifene", "Pyrrolidine, 1-[2-[4-[(1E)-1-(4-iodophenyl)-2-phenyl-1-buten-1-yl]phenoxy]ethyl]-", "Pyrrolidine, 1-[2-[4-[1-(4-iodophenyl)-2-phenyl-1-butenyl]phenoxy]ethyl]-, (E)-", "Pyrrolidine, 1-[2-[4-[(1E)-1-(4-iodophenyl)-2-phenyl-1-butenyl]phenoxy]ethyl]-", "1-[2-[4-[(1E)-1-(4-Iodophenyl)-2-phenyl-1-buten-1-yl]phenoxy]ethyl]pyrrolidine", "CB 7432", "Idoxifene", "SB 223030", "Idoxyfene"], "SMILES": "C(=C(CC)C1=CC=CC=C1)(C2=CC=C(OCCN3CCCC3)C=C2)C4=CC=C(I)C=C4", "physical_data": {"Molecular Weight": "523.45", "Molecular Formula": "C28H30INO", "Melting Point": "106-109 \u00b0C"}}