{"cas_no": "1160-54-9", "cn_name": "Z-\u7518\u6c28\u9178-\u812f\u6c28\u9178", "en_name": ["(Benzyloxycarbonyl)glycyl-L-proline", "L-Proline, N-[(phenylmethoxy)carbonyl]glycyl-", "Proline, 1-(N-carboxyglycyl)-, N-benzyl ester, L-", "L-Proline, 1-[N-[(phenylmethoxy)carbonyl]glycyl]-", "N-[(Phenylmethoxy)carbonyl]glycyl-L-proline", "Carbobenzoxyglycyl-L-proline", "(Benzyloxycarbonyl)glycyl-L-proline", "NSC 89634", "Cbz-gly-pro-oh"], "SMILES": "C(CNC(OCC1=CC=CC=C1)=O)(=O)N2C(C(O)=O)CCC2", "physical_data": {"Molecular Weight": "306.31", "Molecular Formula": "C15H18N2O5", "Melting Point": "156 \u00b0C"}}