{"cas_no": "1160556-64-8", "cn_name": "2-\u4e8c\u73af\u5df1\u57fa\u81a6-2'6'-\u53cc(N,N-\u4e8c\u7532\u80fa\u57fa)-1,1'-\u8054\u82ef", "en_name": ["2\u2032-(Dicyclohexylphosphino)-N2,N2,N6,N6-tetramethyl[1,1\u2032-biphenyl]-2,6-diamine", "[1,1\u2032-Biphenyl]-2,6-diamine, 2\u2032-(dicyclohexylphosphino)-N2,N2,N6,N6-tetramethyl-", "2\u2032-(Dicyclohexylphosphino)-N2,N2,N6,N6-tetramethyl[1,1\u2032-biphenyl]-2,6-diamine", "CPhos", "2-(2-Dicyclohexylphosphanylphenyl)-1-N,1-N,3-N,3-N-tetramethylbenzene-1,3-diamine", "2\u2032-(Dicyclohexylphosphino)-N2,N2,N6,N6-tetramethyl-[1,1\u2032-biphenyl]-2,6-diamine"], "SMILES": "P(C1=C(C=CC=C1)C2=C(N(C)C)C=CC=C2N(C)C)(C3CCCCC3)C4CCCCC4", "physical_data": {"Molecular Weight": "436.61", "Molecular Formula": "C28H41N2P", "Melting Point": "111-113 \u00b0C"}}