{"cas_no": "116026-95-0", "cn_name": "(4-\u7532\u9170\u57fa\u5421\u5576-3-\u57fa)\u6c28\u57fa\u7532\u9178\u53d4\u4e01\u916f", "en_name": ["1,1-Dimethylethyl N-(4-formyl-3-pyridinyl)carbamate", "Carbamic acid, N-(4-formyl-3-pyridinyl)-, 1,1-dimethylethyl ester", "Carbamic acid, (4-formyl-3-pyridinyl)-, 1,1-dimethylethyl ester", "1,1-Dimethylethyl N-(4-formyl-3-pyridinyl)carbamate", "tert-Butyl (4-formylpyridin-3-yl)carbamate", "(4-Formyl-pyridin-3-yl)-carbamic acid tert-butyl ester"], "SMILES": "N(C(OC(C)(C)C)=O)C=1C(C=O)=CC=NC1", "physical_data": {"Molecular Weight": "222.24", "Molecular Formula": "C11H14N2O3", "Melting Point": "52-53 \u00b0C"}}