{"cas_no": "116182-44-6", "cn_name": "\u83ab\u5339\u7f57\u661f\u6742\u8d28", "en_name": ["Nonanoic acid, 9-[[4-[hexahydro-3,8-dihydroxy-2-(2-hydroxy-1-methylpropyl)-2H,5H-pyrano[4,3-b]pyran-7-yl]-3-methyl-1-oxo-2-butenyl]oxy]-, monosodium salt, [2R-[2\u03b1(1S*,2S*),3\u03b2,4a\u03b1,7\u03b2(E),8\u03b1,8a\u03b2]]-", "Nonanoic acid, 9-[[4-[hexahydro-3,8-dihydroxy-2-(2-hydroxy-1-methylpropyl)-2H,5H-pyrano[4,3-b]pyran-7-yl]-3-methyl-1-oxo-2-butenyl]oxy]-, monosodium salt, [2R-[2\u03b1(1S*,2S*),3\u03b2,4a\u03b1,7\u03b2(E),8\u03b1,8a\u03b2]]-", "2H,5H-Pyrano[4,3-b]pyran, nonanoic acid deriv."], "SMILES": "OC1C2C(CC(O)C(C(C(C)O)C)O2)COC1CC(=CC(OCCCCCCCCC(O)=O)=O)C.[Na]", "physical_data": {"Molecular Weight": "", "Molecular Formula": "C26H44O9.Na", "Melting Point": "138-139 \u00b0C"}}