{"cas_no": "1161-13-3", "cn_name": "N-\u82c4\u6c27\u7fb0\u57fa-L-\u82ef\u4e19\u6c28\u9178", "en_name": ["Benzyloxycarbonyl-L-phenylalanine", "L-Phenylalanine, N-[(phenylmethoxy)carbonyl]-", "Alanine, N-carboxy-3-phenyl-, N-benzyl ester, L-", "N-[(Phenylmethoxy)carbonyl]-L-phenylalanine", "N-Carbobenzoxy-L-phenylalanine", "Carbobenzoxy-L-phenylalanine", "N-(Benzyloxycarbonyl)-L-phenylalanine", "N-Carboxy-3-phenyl-L-alanine N-benzyl ester", "Benzyloxycarbonyl-L-phenylalanine", "(Benzyloxycarbonyl)phenylalanine", "N-(Carbobenzyloxy)-L-phenylalanine", "N-[(Benzyloxy)carbonyl]phenylalanine", "(Carbobenzoxy)phenylalanine", "N-(Carbobenzoxy)phenylalanine", "N-Benzyloxycarbonyl-(S)-phenylalanine", "L-(Carbobenzoxy)phenylalanine", "(S)-N-(Benzyloxycarbonyl)phenylalanine", "L-(Carbobenzyloxy)phenylalanine", "(2S)-2-((Benzyloxycarbonyl)amino)-3-phenylpropionic acid", "N-(Carbobenzyloxy)phenylalanine", "N-Cbz-L-phenylalanine", "(2S)-2-[(Benzyloxycarbonyl)amino]-3-phenylpropanoic acid", "L-Cbz phenylalanine", "(S)-2-(Benzyloxycarbonylamino)-3-phenyl-propanoic acid", "(2S)-3-Phenyl-2-(phenylmethoxycarbonylamino)propanoic acid", "(2S)-2-[[(Benzyloxy)carbonyl]amino]-3-phenylpropanoic acid"], "SMILES": "C(CC1=CC=CC=C1)(NC(OCC2=CC=CC=C2)=O)C(O)=O", "physical_data": {"Molecular Weight": "299.32", "Molecular Formula": "C17H17NO4", "Boiling Point": "35-60 \u00b0C", "Melting Point": "103 \u00b0C"}}