{"cas_no": "1161009-89-7", "cn_name": "4-\u787c\u9178\u9891\u54ea\u9187\u916f-9,9-\u87ba\u4e8c\u82b4", "en_name": ["4,4,5,5-Tetramethyl-2-(9,9\u2032-spirobi[9H-fluoren]-4-yl)-1,3,2-dioxaborolane", "1,3,2-Dioxaborolane, 4,4,5,5-tetramethyl-2-(9,9\u2032-spirobi[9H-fluoren]-4-yl)-", "4,4,5,5-Tetramethyl-2-(9,9\u2032-spirobi[9H-fluoren]-4-yl)-1,3,2-dioxaborolane", "4-(9,9\u2032-Spirobifluorenyl)pinacolboronate"], "SMILES": "CC1(C)OB(C2=C3C(C4(C=5C3=CC=CC5)C=6C(C=7C4=CC=CC7)=CC=CC6)=CC=C2)OC1(C)C", "physical_data": {"Molecular Weight": "442.36", "Molecular Formula": "C31H27BO2", "Melting Point": "223 \u00b0C"}}