{"cas_no": "116183-81-4", "cn_name": "(R)-3-\u6c28\u57fa\u5421\u54af\u70f7\u4e8c\u76d0\u9178\u76d0", "en_name": ["3-Pyrrolidinamine, hydrochloride (1:2), (3R)-", "3-Pyrrolidinamine, hydrochloride (1:2), (3R)-", "3-Pyrrolidinamine, dihydrochloride, (R)-", "3-Pyrrolidinamine, dihydrochloride, (3R)-", "(R)-3-Aminopyrrolidine dihydrochloride", "(3R)-3-Aminopyrrolidine dihydrochloride", "(3R)-(-)-3-Aminopyrrolidine dihydrochloride", "(3R)-Pyrrolidin-3-amine dihydrochloride"], "SMILES": "NC1CCNC1.Cl", "physical_data": {"Molecular Weight": "", "Molecular Formula": "C4H10N2.2ClH", "Melting Point": "121-122 \u00b0C"}}