{"cas_no": "116229-43-7", "cn_name": "3-(1,3-\u4e8c\u7532\u57fa\u4e01\u70ef)\u6c28\u4e19\u57fa\u4e09\u4e59\u6c27\u57fa\u7845\u70f7", "en_name": ["N-(1,3-Dimethylbutylidene)-3-(triethoxysilyl)-1-propanamine", "1-Propanamine, N-(1,3-dimethylbutylidene)-3-(triethoxysilyl)-", "N-(1,3-Dimethylbutylidene)-3-(triethoxysilyl)-1-propanamine", "S 340", "X 12-817H", "Sila-Ace S 340", "KBE 9103", "3-Triethoxysilyl-N-(1,3-dimethylbutylidene)propylamine", "N-(1,3-Dimethylbutylidene)-3-(triethoxysilyl)-1-propaneamine", "3-[(1,3-Dimethylbutylidene)amino]propyltriethoxysilane", "N-(1,3-Dimethylbutylidene)-3-aminopropyltriethoxysilane", "3-Triethoxysilyl-(1,3-dimethylbutylidene)propylamine", "(5,7-Dimethyl-4-aza-4-octen-1-yl)triethoxysilane", "X 12-807H", "Dynamar RC 5125", "KBE 9103P", "SID 4068.0", "[3-[(4-Methylpentan-2-ylidene)amino]propyl]triethoxysilane"], "SMILES": "[Si](CCCN=C(CC(C)C)C)(OCC)(OCC)OCC", "physical_data": {"Molecular Weight": "303.51", "Molecular Formula": "C15H33NO3Si", "Boiling Point": "134 \u00b0C @ Press: 5 Torr", "Density": "0.93 g/cm\u00b3"}}