{"cas_no": "1162-56-7", "cn_name": "6-\u53bb\u6c22\u9ec4\u4f53\u916e", "en_name": ["Pregna-4,6-diene-3,20-dione", "Pregna-4,6-diene-3,20-dione", "6-Dehydroprogesterone", "\u03946-Progesterone"], "SMILES": "CC12C3C(C4C(C)(CC3)C(C(C)=O)CC4)C=CC1=CC(=O)CC2", "physical_data": {"Molecular Weight": "312.45", "Molecular Formula": "C21H28O2", "Melting Point": "147-148 \u00b0C"}}