{"cas_no": "1162-54-5", "cn_name": "1-\u8131\u6c22\u5b55\u916e", "en_name": ["1-Dehydroprogesterone", "Pregna-1,4-diene-3,20-dione", "\u03941-Progesterone", "1,2-Dehydroprogesterone", "1-Dehydroprogesterone", "NSC 63538", "1,4-Pregnadien-3,20-dione"], "SMILES": "CC12C3C(C4C(C)(CC3)C(C(C)=O)CC4)CCC1=CC(=O)C=C2", "physical_data": {"Molecular Weight": "312.45", "Molecular Formula": "C21H28O2", "Melting Point": "151-152 \u00b0C"}}