{"cas_no": "1162-53-4", "cn_name": "16-\u598a\u5a20\u53cc\u70ef\u9187\u916e", "en_name": ["16-Dehydropregnenolone", "Pregna-5,16-dien-20-one, 3-hydroxy-, (3\u03b2)-", "Pregna-5,16-dien-20-one, 3\u03b2-hydroxy-", "(3\u03b2)-3-Hydroxypregna-5,16-dien-20-one", "16-Dehydropregnenolone", "3\u03b2-Hydroxypregna-5,16-dien-20-one", "\u039416-Pregnenolone", "16-Dehydropregnolone", "3\u03b2-Hydroxy-\u03945,16-pregnadien-20-one", "3\u03b2-Hydroxy-20-oxopregna-5,16-diene", "Pregna-5,16-dien-3\u03b2-ol-20-one", "NSC 15467", "Pregnadienolone", "(-)-Pregnadienolone"], "SMILES": "CC12C3C(C4C(C)(CC3)C(C(C)=O)=CC4)CC=C1CC(O)CC2", "physical_data": {"Molecular Weight": "314.46", "Molecular Formula": "C21H30O2", "Melting Point": "212-214 \u00b0C"}}