{"cas_no": "1162-65-8", "cn_name": "\u9ec4\u66f2\u9709\u6bd2\u7d20 B1", "en_name": ["Aflatoxin B1", "1H,11H-Cyclopenta[c]furo[3\u2032,2\u2032:4,5]furo[2,3-h][1]benzopyran-1,11-dione, 2,3,6a,9a-tetrahydro-4-methoxy-, (6aR,9aS)-", "Cyclopenta[c]furo[3\u2032,2\u2032:4,5]furo[2,3-h][1]benzopyran-1,11-dione, 2,3,6a\u03b1,9a\u03b1-tetrahydro-4-methoxy-", "Cyclopenta[c]furo[3\u2032,2\u2032:4,5]furo[2,3-h][1]benzopyran-1,11-dione, 2,3,6a,9a-tetrahydro-4-methoxy-, (6aR-cis)-", "1-Cyclopentene-1-carboxylic acid, 2-(3a,8a-dihydro-4-hydroxy-6-methoxyfuro[2,3-b]benzofuran-5-yl)-5-oxo-, \u03b4-lactone", "Cyclopenta[c]furo[3\u2032,2\u2032:4,5]furo[2,3-h][1]benzopyran-1,11-dione, 2,3,6a,9a-tetrahydro-4-methoxy-, (6aR,9aS)-", "(6aR,9aS)-2,3,6a,9a-Tetrahydro-4-methoxy-1H,11H-cyclopenta[c]furo[3\u2032,2\u2032:4,5]furo[2,3-h][1]benzopyran-1,11-dione", "Aflatoxin B1", "AFB1", "(-)-Aflatoxin B1", "NSC 529592", "MeSH ID: D016604"], "SMILES": "O(C)C=1C2=C(C=3C4C(OC3C1)OC=C4)OC(=O)C5=C2CCC5=O", "physical_data": {"Molecular Weight": "312.27", "Molecular Formula": "C17H12O6", "Melting Point": "268-269 \u00b0C"}}