{"cas_no": "116255-48-2", "cn_name": "\u7ce0\u83cc\u5511", "en_name": ["Bromuconazole", "Pentitol, 2,5-anhydro-4-bromo-1,3,4-trideoxy-2-C-(2,4-dichlorophenyl)-1-(1H-1,2,4-triazol-1-yl)-", "2,5-Anhydro-4-bromo-1,3,4-trideoxy-2-C-(2,4-dichlorophenyl)-1-(1H-1,2,4-triazol-1-yl)pentitol", "LS 860263", "Bromuconazole", "Granit (pesticide)", "Vectra", "Granit", "1H-1,2,4-Triazole, 1-[[4-bromo-2-(2,4-dichlorophenyl)tetrahydro-2-furanyl]methyl]-"], "SMILES": "C(C1(CC(Br)CO1)C2=C(Cl)C=C(Cl)C=C2)N3C=NC=N3", "physical_data": {"Molecular Weight": "377.06", "Molecular Formula": "C13H12BrCl2N3O", "Melting Point": "84 \u00b0C", "Density": "1.7 g/cm\u00b3"}}