{"cas_no": "116313-85-0", "cn_name": "3,4-\u4e8c\u7f9f\u57fa-5-\u785d\u57fa\u82ef\u7532\u919b", "en_name": ["3,4-Dihydroxy-5-nitrobenzaldehyde", "Benzaldehyde, 3,4-dihydroxy-5-nitro-", "3,4-Dihydroxy-5-nitrobenzaldehyde", "3-Nitro-4,5-dihydroxybenzaldehyde", "4,5-Dihydroxy-3-nitrobenzaldehyde"], "SMILES": "N(=O)(=O)C1=C(O)C(O)=CC(C=O)=C1", "physical_data": {"Molecular Weight": "183.12", "Molecular Formula": "C7H5NO5", "Melting Point": "148-150 \u00b0C"}}