{"cas_no": "1163-19-5", "cn_name": "\u5341\u6eb4\u4e8c\u82ef\u919a", "en_name": ["Decabromodiphenyl ether", "Benzene, 1,1\u2032-oxybis[2,3,4,5,6-pentabromo-", "Ether, bis(pentabromophenyl)", "1,1\u2032-Oxybis[2,3,4,5,6-pentabromobenzene]", "Bis(pentabromophenyl) ether", "Decabromodiphenyl oxide", "Decabromobiphenyl ether", "Decabromobiphenyl oxide", "FR 300BA", "Decabromophenyl ether", "Bromkal 83-10DE", "Pentabromophenyl ether", "F/R-P 53", "Berkflam B 10E", "Bromkal 82-0DE", "BR 55N", "Tardex 100", "DE 83R", "Decabrom", "FR 300", "DE 83", "Bromkal 81", "FR-PE", "EB 10FP", "Plasafety EBR 700", "Saytex 102", "Planelon DB 100", "AFR 1021", "DP 10F", "FR-PE(H)", "Flame Cut BR 100", "Caliban F/R-P 39P", "DB 10", "102(E)", "Adine 505", "EB 10W", "Nonnen DP 10(F)", "Planelon DB 101", "DB 101", "Nonnen DP 10", "RM 939965", "Plasafety EB 10", "DB 102", "SR 250", "Pyroguard SR 250", "SR 270", "Pyroguard SR 270", "Planelon DB", "Flame Cut 110R", "S 102", "Decabromodiphenyl ether", "Saytex 102E", "Saytex 120E", "FR 1210", "FR 10", "FR 10 (ether)", "Fire Cut 83D", "2,2\u2032,3,3\u2032,4,4\u2032,5,5\u2032,6,6\u2032-Decabromodiphenyl ether", "PBDE 209", "EB 10WS", "EB 10", "EBR 700", "BDE 209", "S 102E", "Myflam 11861", "NSC 82553", "FRD 004", "Vigol DNT 80", "Performax 410", "Fire Cut FCP 83D", "Satex 102E", "Planelon DB 102", "FR 300 (ether)", "Greatbay XZ 8200", "1,2,3,4,5-Pentabromo-6-(2,3,4,5,6-pentabromophenoxy)benzene", "Taixing HT 302", "HT 302", "T 011N", "GC-Deca 83"], "SMILES": "O(C1=C(Br)C(Br)=C(Br)C(Br)=C1Br)C2=C(Br)C(Br)=C(Br)C(Br)=C2Br", "physical_data": {"Molecular Weight": "959.17", "Molecular Formula": "C12Br10O", "Boiling Point": "530 \u00b0C", "Melting Point": "305 \u00b0C", "Density": "3.0 g/cm\u00b3"}}