{"cas_no": "116332-54-8", "cn_name": "4-\u6c1f-N-\u7532\u6c27\u57fa-N-\u7532\u57fa\u82ef\u7532\u9170\u80fa", "en_name": ["4-Fluoro-N-methoxy-N-methylbenzamide", "Benzamide, 4-fluoro-N-methoxy-N-methyl-", "4-Fluoro-N-methoxy-N-methylbenzamide", "N-Methoxy-N-methyl-4-fluorobenzaldehyde", "N-Methyl-N-methoxy-4-fluorobenzamide", "4-Fluoro-N-methyl-N-methoxybenzamide", "4-Fluoro-N-methoxy-N-methylbenzylamide"], "SMILES": "C(N(OC)C)(=O)C1=CC=C(F)C=C1", "physical_data": {"Molecular Weight": "183.18", "Molecular Formula": "C9H10FNO2", "Boiling Point": "120 \u00b0C"}}