{"cas_no": "116344-17-3", "cn_name": "1-\u82ef\u57fa-5-\u4e19\u57fa-1H-\u5421\u5511-4-\u7fa7\u9178", "en_name": ["1-Phenyl-5-propyl-1H-pyrazole-4-carboxylic acid", "1H-Pyrazole-4-carboxylic acid, 1-phenyl-5-propyl-", "1-Phenyl-5-propyl-1H-pyrazole-4-carboxylic acid", "1-Phenyl-5-propylpyrazole-4-carboxylic acid"], "SMILES": "C(CC)C=1N(N=CC1C(O)=O)C2=CC=CC=C2", "physical_data": {"Molecular Weight": "230.26", "Molecular Formula": "C13H14N2O2", "Melting Point": "112 \u00b0C"}}