{"cas_no": "1163-36-6", "cn_name": "1-[(4-\u6c2f\u82ef\u57fa)\u7532\u57fa]-2-(\u5421\u54af\u70f7-1-\u57fa\u7532\u57fa)\u82ef\u5e76\u54aa\u5511\u76d0\u9178\u76d0", "en_name": ["Clemizole hydrochloride", "1H-Benzimidazole, 1-[(4-chlorophenyl)methyl]-2-(1-pyrrolidinylmethyl)-, hydrochloride (1:1)", "Benzimidazole, 1-(p-chlorobenzyl)-2-(1-pyrrolidinylmethyl)-, monohydrochloride", "1H-Benzimidazole, 1-[(4-chlorophenyl)methyl]-2-(1-pyrrolidinylmethyl)-, monohydrochloride", "1-p-Chlorobenzyl-2-(1-pyrrolidinylmethyl)benzimidazole hydrochloride", "1-(4-Chlorobenzyl)-2-(pyrrolidinylmethyl)-1,3-benzimidazole hydrochloride", "1-p-Chlorobenzyl-2-pyrrolidylmethyl benzimidazole hydrochloride", "Clemizole hydrochloride", "Reactrol", "Allercur", "Klemidox", "Histacuran", "AL 20", "1-(4-Chlorobenzyl)-2-(pyrrolidin-1-ylmethyl)-1H-benzo[d]imidazole hydrochloride"], "SMILES": "C(N1C=2C(N=C1CN3CCCC3)=CC=CC2)C4=CC=C(Cl)C=C4.Cl", "physical_data": {"Molecular Weight": "", "Molecular Formula": "C19H20ClN3.ClH", "Melting Point": "239-241 \u00b0C"}}