{"cas_no": "1163-67-3", "cn_name": "\u4e59\u9178\u8418\u915aAS", "en_name": ["3-(Acetyloxy)-N-phenyl-2-naphthalenecarboxamide", "2-Naphthalenecarboxamide, 3-(acetyloxy)-N-phenyl-", "2-Naphthanilide, 3-hydroxy-, acetate", "3-(Acetyloxy)-N-phenyl-2-naphthalenecarboxamide", "Naphthol AS acetate", "NSC 49740", "[3-(Phenylcarbamoyl)naphthalen-2-yl] acetate", "2-Acetoxy-3-naphthoic acid anilide"], "SMILES": "O(C(C)=O)C=1C(C(NC2=CC=CC=C2)=O)=CC3=C(C1)C=CC=C3", "physical_data": {"Molecular Weight": "305.33", "Molecular Formula": "C19H15NO3", "Melting Point": "152 \u00b0C"}}