{"cas_no": "116384-53-3", "cn_name": "[[2-(6-\u6c28\u57fa-9H-\u560c\u5464-9-\u57fa)\u4e59\u6c27\u57fa]\u7532\u57fa]\u81a6\u9178\u4e8c\u4e59\u916f", "en_name": ["Diethyl P-[[2-(6-amino-9H-purin-9-yl)ethoxy]methyl]phosphonate", "Phosphonic acid, P-[[2-(6-amino-9H-purin-9-yl)ethoxy]methyl]-, diethyl ester", "Phosphonic acid, [[2-(6-amino-9H-purin-9-yl)ethoxy]methyl]-, diethyl ester", "Diethyl P-[[2-(6-amino-9H-purin-9-yl)ethoxy]methyl]phosphonate", "[[2-(6-Amino-9H-purin-9-yl)ethoxy]methyl]phosphonic acid diethyl ester"], "SMILES": "C(COCP(OCC)(OCC)=O)N1C=2C(N=C1)=C(N)N=CN2", "physical_data": {"Molecular Weight": "329.29", "Molecular Formula": "C12H20N5O4P", "Melting Point": "137 \u00b0C"}}