{"cas_no": "1164-16-5", "cn_name": "CBZ-L-\u916a\u6c28\u9178", "en_name": ["Carbobenzoxy-L-tyrosine", "L-Tyrosine, N-[(phenylmethoxy)carbonyl]-", "Tyrosine, N-carboxy-, N-benzyl ester, L-", "Tyrosine, N-carboxy-, N-benzyl ester", "N-[(Phenylmethoxy)carbonyl]-L-tyrosine", "N-Carbobenzoxy-L-tyrosine", "Carbobenzoxy-L-tyrosine", "N-(Benzyloxycarbonyl)-L-tyrosine", "Carbobenzoxytyrosine", "Benzyloxycarbonyl-L-tyrosine", "N-(Benzyloxycarbonyl)tyrosine", "(Benzyloxycarbonyl)tyrosine", "N-Carbobenzoxytyrosine", "L-(Carbobenzyloxy)tyrosine", "N-Carbobenzyloxy-L-tyrosine", "NSC 88488", "N-CBZ-L-tyrosine", "(2S)-2-(Benzyloxycarbonylamino)-3-(4-hydroxyphenyl)propanoic acid", "(2S)-2-[[(Benzyloxy)carbonyl]amino]-3-(4-hydroxyphenyl)propanoic acid", "(2S)-3-(4-Hydroxyphenyl)-2-(phenylmethoxycarbonylamino)propanoic acid"], "SMILES": "C(C(NC(OCC1=CC=CC=C1)=O)C(O)=O)C2=CC=C(O)C=C2", "physical_data": {"Molecular Weight": "315.32", "Molecular Formula": "C17H17NO5", "Melting Point": "95-96 \u00b0C"}}