{"cas_no": "116496-76-5", "cn_name": "N-(2-\u4e59\u6c27\u57fa-4-\u785d\u57fa\u82ef\u57fa)-\u4e59\u9170\u80fa", "en_name": ["N-(2-Ethoxy-4-nitrophenyl)acetamide", "Acetamide, N-(2-ethoxy-4-nitrophenyl)-", "N-(2-Ethoxy-4-nitrophenyl)acetamide", "4-Acetamido-3-ethoxynitrobenzene", "4-Acetamido-3-ethoxy-1-nitrobenzene"], "SMILES": "O(CC)C1=C(NC(C)=O)C=CC(N(=O)=O)=C1", "physical_data": {"Molecular Weight": "224.21", "Molecular Formula": "C10H12N2O4", "Melting Point": "164-165 \u00b0C"}}