{"cas_no": "116498-58-9", "cn_name": "5,5'-\u4e8c\u7532\u6c27\u57fa\u843d\u53f6\u677e\u8102\u7d20", "en_name": ["(2S,3R,4R)-Tetrahydro-2-(4-hydroxy-3,5-dimethoxyphenyl)-4-[(4-hydroxy-3,5-dimethoxyphenyl)methyl]-3-furanmethanol", "3-Furanmethanol, tetrahydro-2-(4-hydroxy-3,5-dimethoxyphenyl)-4-[(4-hydroxy-3,5-dimethoxyphenyl)methyl]-, (2S,3R,4R)-", "3-Furanmethanol, tetrahydro-2-(4-hydroxy-3,5-dimethoxyphenyl)-4-[(4-hydroxy-3,5-dimethoxyphenyl)methyl]-, [2S-(2\u03b1,3\u03b2,4\u03b2)]-", "(2S,3R,4R)-Tetrahydro-2-(4-hydroxy-3,5-dimethoxyphenyl)-4-[(4-hydroxy-3,5-dimethoxyphenyl)methyl]-3-furanmethanol", "(+)-5,5\u2032-Dimethoxylariciresinol", "(7S,8R,8\u2032R)-5,5\u2032-Dimethoxylariciresinol"], "SMILES": "C(O)C1C(OCC1CC2=CC(OC)=C(O)C(OC)=C2)C3=CC(OC)=C(O)C(OC)=C3", "physical_data": {"Molecular Weight": "420.45", "Molecular Formula": "C22H28O8", "Melting Point": "85 \u00b0C"}}