{"cas_no": "116412-83-0", "cn_name": "4-\u6c2f-3',4'-\u4e8c\u7532\u6c27\u57fa\u4e8c\u82ef\u7532\u916e", "en_name": ["(4-Chlorophenyl)(3,4-dimethoxyphenyl)methanone", "Methanone, (4-chlorophenyl)(3,4-dimethoxyphenyl)-", "(4-Chlorophenyl)(3,4-dimethoxyphenyl)methanone", "3,4-Dimethoxy-4\u2032-chloro-benzophenone", "(3,4-Dimethoxyphenyl)(4-chlorophenyl)methanone"], "SMILES": "C(=O)(C1=CC(OC)=C(OC)C=C1)C2=CC=C(Cl)C=C2", "physical_data": {"Molecular Weight": "276.71", "Molecular Formula": "C15H13ClO3", "Melting Point": "111-112 \u00b0C"}}