{"cas_no": "116539-55-0", "cn_name": "3-\u7532\u57fa\u6c28\u57fa-1-(2-\u567b\u5429\u57fa)-1-\u4e19\u9187", "en_name": ["(\u03b1S)-\u03b1-[2-(Methylamino)ethyl]-2-thiophenemethanol", "2-Thiophenemethanol, \u03b1-[2-(methylamino)ethyl]-, (\u03b1S)-", "2-Thiophenemethanol, \u03b1-[2-(methylamino)ethyl]-, (S)-", "(\u03b1S)-\u03b1-[2-(Methylamino)ethyl]-2-thiophenemethanol", "(S)-3-Methylamino-1-(2-thienyl)-1-propanol", "(S)-(-)-3-(N-Methylamino)-1-(2-thienyl)-1-propanol", "N-Methyl-(S)-(-)-3-Hydroxy-3-(2-thiophen)propylamine", "(1S)-(-)-3-(Methylamino)-1-(thien-2-yl)propan-1-ol", "(S)-(-)-3-Methylamino-1-(2-thienyl)propan-1-ol", "(1S)-3-(Methylamino)-1-(thiophen-2-yl)propan-1-ol", "(1S)-3-(Methylamino)-1-thiophen-2-ylpropan-1-ol", "(S)-3-(Methylamino)-1-(thiophen-2-yl)propan-1-ol"], "SMILES": "C(CCNC)(O)C1=CC=CS1", "physical_data": {"Molecular Weight": "171.26", "Molecular Formula": "C8H13NOS", "Melting Point": "70.5-73.0 \u00b0C"}}