{"cas_no": "1165-91-9", "cn_name": "\u53cc(2,4,6-\u4e09\u6c2f\u82ef\u57fa)\u8349\u9178\u916f", "en_name": ["Bis(2,4,6-trichlorophenyl) oxalate", "Ethanedioic acid, 1,2-bis(2,4,6-trichlorophenyl) ester", "Oxalic acid, bis(2,4,6-trichlorophenyl) ester", "Ethanedioic acid, bis(2,4,6-trichlorophenyl) ester", "Phenol, 2,4,6-trichloro-, oxalate (2:1)", "Bis(2,4,6-trichlorophenyl) oxalate", "TCPO", "Bis(2,4,6-trichlorophenyl) oxalic acid ester", "TCPO (oxalate)"], "SMILES": "O(C(C(OC1=C(Cl)C=C(Cl)C=C1Cl)=O)=O)C2=C(Cl)C=C(Cl)C=C2Cl", "physical_data": {"Molecular Weight": "448.90", "Molecular Formula": "C14H4Cl6O4", "Melting Point": "187-189 \u00b0C"}}