{"cas_no": "116548-03-9", "cn_name": "2-\u7f9f\u57fa-6-\u4e09\u6c1f\u7532\u57fa\u70df\u9170\u80fa", "en_name": ["1,2-Dihydro-2-oxo-6-(trifluoromethyl)-3-pyridinecarboxamide", "3-Pyridinecarboxamide, 1,2-dihydro-2-oxo-6-(trifluoromethyl)-", "1,2-Dihydro-2-oxo-6-(trifluoromethyl)-3-pyridinecarboxamide", "2-Hydroxy-6-trifluoromethylnicotinamide", "1,2-Dihydro-2-oxo-6-(trifluoromethyl)pyridine-3-carboxylic acid amide", "2-Oxo-6-(trifluoromethyl)-1,2-dihydropyridine-3-carboxamide", "2-Oxo-6-(trifluoromethyl)-1H-pyridine-3-carboxamide", "2-Hydroxy-6-(trifluoromethyl)pyridine-3-carboxamide"], "SMILES": "C(F)(F)(F)C=1NC(=O)C(C(N)=O)=CC1", "physical_data": {"Molecular Weight": "206.12", "Molecular Formula": "C7H5F3N2O2", "Melting Point": "220-222 \u00b0C"}}