{"cas_no": "116529-60-3", "cn_name": "2-\u6eb4-3,5-\u4e8c\u785d\u57fa\u82ef\u7532\u9178", "en_name": ["2-Bromo-3,5-dinitrobenzoic acid", "Benzoic acid, 2-bromo-3,5-dinitro-", "2-Bromo-3,5-dinitrobenzoic acid"], "SMILES": "C(O)(=O)C1=C(Br)C(N(=O)=O)=CC(N(=O)=O)=C1", "physical_data": {"Molecular Weight": "291.01", "Molecular Formula": "C7H3BrN2O6", "Melting Point": "213 \u00b0C"}}