{"cas_no": "116666-63-8", "cn_name": "\u7c73\u8d1d\u62c9\u5730\u5c14", "en_name": ["Mibefradil dihydrochloride", "Acetic acid, 2-methoxy-, (1S,2S)-2-[2-[[3-(1H-benzimidazol-2-yl)propyl]methylamino]ethyl]-6-fluoro-1,2,3,4-tetrahydro-1-(1-methylethyl)-2-naphthalenyl ester, hydrochloride (1:2)", "Acetic acid, methoxy-, 2-[2-[[3-(1H-benzimidazol-2-yl)propyl]methylamino]ethyl]-6-fluoro-1,2,3,4-tetrahydro-1-(1-methylethyl)-2-naphthalenyl ester, dihydrochloride, (1S-cis)-", "Acetic acid, methoxy-, (1S,2S)-2-[2-[[3-(1H-benzimidazol-2-yl)propyl]methylamino]ethyl]-6-fluoro-1,2,3,4-tetrahydro-1-(1-methylethyl)-2-naphthalenyl ester, dihydrochloride", "Ro 40-5967", "Ro 40-5967/001", "Mibefradil dihydrochloride", "Posicor"], "SMILES": "C(CN(CCCC=1NC=2C(N1)=CC=CC2)C)C3(OC(COC)=O)C(C(C)C)C=4C(CC3)=CC(F)=CC4.Cl", "physical_data": {"Molecular Weight": "", "Molecular Formula": "C29H38FN3O3.2ClH", "Melting Point": "128 \u00b0C"}}