{"cas_no": "1166-34-3", "cn_name": "\u8f9b\u90a3\u8272\u6797", "en_name": ["Cinanserin", "2-Propenamide, N-[2-[[3-(dimethylamino)propyl]thio]phenyl]-3-phenyl-", "Cinnamanilide, 2\u2032-[[3-(dimethylamino)propyl]thio]-", "N-[2-[[3-(Dimethylamino)propyl]thio]phenyl]-3-phenyl-2-propenamide", "Cinanserin", "2\u2032-[[3-(Dimethylamino)propyl]thio]cinnamanilide", "Cinanserine"], "SMILES": "S(CCCN(C)C)C1=C(NC(C=CC2=CC=CC=C2)=O)C=CC=C1", "physical_data": {"Molecular Weight": "340.48", "Molecular Formula": "C20H24N2OS", "Melting Point": "82-83 \u00b0C"}}