{"cas_no": "116632-24-7", "cn_name": "2-\u6c28\u57fa-4,6-\u4e8c\u6c2f\u5421\u5576", "en_name": ["4,6-Dichloro-2-pyridinamine", "2-Pyridinamine, 4,6-dichloro-", "Pyridine, 2-amino-4,6-dichloro-", "4,6-Dichloro-2-pyridinamine", "2-Amino-4,6-dichloropyridine", "4,6-Dichloropyridin-2-amine", "(4,6-Dichloropyridin-2-yl)amine"], "SMILES": "ClC=1C=C(Cl)N=C(N)C1", "physical_data": {"Molecular Weight": "163.00", "Molecular Formula": "C5H4Cl2N2", "Melting Point": "112.5 \u00b0C"}}