{"cas_no": "116649-85-5", "cn_name": "\u96f7\u9a6c\u66f2\u73ed", "en_name": ["Ramatroban", "9H-Carbazole-9-propanoic acid, 3-[[(4-fluorophenyl)sulfonyl]amino]-1,2,3,4-tetrahydro-, (3R)-", "9H-Carbazole-9-propanoic acid, 3-[[(4-fluorophenyl)sulfonyl]amino]-1,2,3,4-tetrahydro-, (R)-", "(3R)-3-[[(4-Fluorophenyl)sulfonyl]amino]-1,2,3,4-tetrahydro-9H-carbazole-9-propanoic acid", "BAY-u 3405", "Ramatroban", "Baynas", "3-[(3R)-3-[(4-Fluorophenyl)sulfonylamino]-1,2,3,4-tetrahydrocarbazol-9-yl]propanoic acid"], "SMILES": "C(CC(O)=O)N1C2=C(C=3C1=CC=CC3)CC(NS(=O)(=O)C4=CC=C(F)C=C4)CC2", "physical_data": {"Molecular Weight": "416.47", "Molecular Formula": "C21H21FN2O4S", "Melting Point": "135-137 \u00b0C"}}