{"cas_no": "116632-54-3", "cn_name": "2-\u6c2f-3-\u6c28\u57fa\u55b9\u5549", "en_name": ["2-Chloro-3-quinolinamine", "3-Quinolinamine, 2-chloro-", "2-Chloro-3-quinolinamine", "2-Chloroquinolin-3-ylamine", "2-Chloroquinolin-3-amine"], "SMILES": "NC1=CC2=C(N=C1Cl)C=CC=C2", "physical_data": {"Molecular Weight": "178.62", "Molecular Formula": "C9H7ClN2", "Melting Point": "168 \u00b0C"}}