{"cas_no": "1166-52-5", "cn_name": "\u6ca1\u98df\u5b50\u9178\u6708\u6842\u916f", "en_name": ["Dodecyl gallate", "Benzoic acid, 3,4,5-trihydroxy-, dodecyl ester", "Gallic acid, dodecyl ester", "Dodecyl gallate", "Lauryl gallate", "Nipagallin LA", "Progallin LA", "Lauryl 3,4,5-trihydroxybenzoate", "Dodecyl 3,4,5-trihydroxybenzoate", "Gallic acid lauryl ester", "NSC 133463", "E 312"], "SMILES": "C(OCCCCCCCCCCCC)(=O)C1=CC(O)=C(O)C(O)=C1", "physical_data": {"Molecular Weight": "338.44", "Molecular Formula": "C19H30O5", "Melting Point": "96.5-97 \u00b0C"}}