{"cas_no": "1167055-73-3", "cn_name": "2-\u6eb4\u6076\u5511-4-\u7532\u9178", "en_name": ["2-Bromo-4-oxazolecarboxylic acid", "4-Oxazolecarboxylic acid, 2-bromo-", "2-Bromo-4-oxazolecarboxylic acid", "2-Bromooxazole-4-carboxylic acid", "2-Bromo-1,3-oxazole-4-carboxylic acid"], "SMILES": "C(O)(=O)C=1N=C(Br)OC1", "physical_data": {"Molecular Weight": "191.97", "Molecular Formula": "C4H2BrNO3", "Melting Point": "161-163 \u00b0C"}}