{"cas_no": "116714-46-6", "cn_name": "\u53cc\u82ef\u6c1f\u8132", "en_name": ["Novaluron", "Benzamide, N-[[[3-chloro-4-[1,1,2-trifluoro-2-(trifluoromethoxy)ethoxy]phenyl]amino]carbonyl]-2,6-difluoro-", "N-[[[3-Chloro-4-[1,1,2-trifluoro-2-(trifluoromethoxy)ethoxy]phenyl]amino]carbonyl]-2,6-difluorobenzamide", "Novaluron", "Rimon", "Diamond (insecticide)", "Pedestal", "Difluorobenzamide", "Oscar Super", "Oscar 10CE", "Rimon 0.83EC"], "SMILES": "C(NC(NC1=CC(Cl)=C(OC(C(OC(F)(F)F)F)(F)F)C=C1)=O)(=O)C2=C(F)C=CC=C2F", "physical_data": {"Molecular Weight": "492.70", "Molecular Formula": "C17H9ClF8N2O4", "Melting Point": "176-179 \u00b0C", "Density": "1.66 g/cm\u00b3"}}