{"cas_no": "1168-87-2", "cn_name": "N-(\u82c4\u6c27\u7fb0\u57fa)-L-\u4e19\u6c28\u9178\u5bf9\u785d\u57fa\u82ef\u916f", "en_name": ["N-[(Phenylmethoxy)carbonyl]-L-alanine 4-nitrophenyl ester", "L-Alanine, N-[(phenylmethoxy)carbonyl]-, 4-nitrophenyl ester", "Alanine, N-carboxy-, N-benzyl p-nitrophenyl ester, L-", "Alanine, N-carboxy-, N-benzyl p-nitrophenyl ester", "N-[(Phenylmethoxy)carbonyl]-L-alanine 4-nitrophenyl ester", "N-Carbobenzoxy-L-alanine p-nitrophenyl ester", "N-(Benzyloxycarbonyl)-L-alanine p-nitrophenyl ester", "p-Nitrophenyl N-(benzyloxycarbonyl)-L-2-aminopropionate", "Benzyloxycarbonyl-L-alanine p-nitrophenyl ester", "N-\u03b1-Carbobenzoxy-L-alanine p-nitrophenyl ester", "\u03b1-N-Benzyloxycarbonyl-L-alanine p-nitrophenyl ester", "N-(Benzyloxycarbonyl)-L-alanine 4-nitrophenyl ester", "Carbobenzoxy-L-alanine p-nitrophenyl ester", "N-(Benzyloxycarbonyl)alanine 4-nitrophenyl ester"], "SMILES": "O(C(C(NC(OCC1=CC=CC=C1)=O)C)=O)C2=CC=C(N(=O)=O)C=C2", "physical_data": {"Molecular Weight": "344.32", "Molecular Formula": "C17H16N2O6", "Melting Point": "75 \u00b0C"}}