{"cas_no": "1168-42-9", "cn_name": "4',5,6,7-\u56db\u7532\u6c27\u57fa\u9ec4\u916e", "en_name": ["5,6,7,4\u2032-Tetramethoxyflavone", "4H-1-Benzopyran-4-one, 5,6,7-trimethoxy-2-(4-methoxyphenyl)-", "Flavone, 4\u2032,5,6,7-tetramethoxy-", "5,6,7-Trimethoxy-2-(4-methoxyphenyl)-4H-1-benzopyran-4-one", "4\u2032,5,6,7-Tetramethoxyflavone", "Tetra-O-methylscutellarein", "Scutellarein tetramethyl ether", "Tetramethyl-O-scutellarin", "5,6,7,4\u2032-Tetramethoxyflavone", "5-Methoxysalvigenin", "Tetramethylscutellarein", "Pectolinarigenin dimethyl ether", "NSC 53908"], "SMILES": "O(C)C1=C2C(OC(=CC2=O)C3=CC=C(OC)C=C3)=CC(OC)=C1OC", "physical_data": {"Molecular Weight": "342.34", "Molecular Formula": "C19H18O6", "Melting Point": "158-160 \u00b0C"}}