{"cas_no": "1169-49-9", "cn_name": "\u5f02\u4e01\u9178\u777e\u916e", "en_name": ["Testosterone, isobutyrate", "Androst-4-en-3-one, 17-(2-methyl-1-oxopropoxy)-, (17\u03b2)-", "Testosterone, isobutyrate", "Isobutyric acid, ester with testosterone", "(17\u03b2)-17-(2-Methyl-1-oxopropoxy)androst-4-en-3-one", "Perandren M", "Testosterone 17-isobutyrate", "Testosterone 2-methylpropionate", "17\u03b2-(Isobutyroxy)androst-4-en-3-one", "3-Oxoandrost-4-en-17\u03b2-yl isobutyrate", "Agovirin-Depot", "Testocryst", "Testosterone 2-methylpropanoate"], "SMILES": "CC12C3C(C4C(C)(CC3)C(OC(C(C)C)=O)CC4)CCC1=CC(=O)CC2", "physical_data": {"Molecular Weight": "358.51", "Molecular Formula": "C23H34O3", "Melting Point": "134-136 \u00b0C"}}