{"cas_no": "116941-52-7", "cn_name": "1-(4-\u6eb4\u82ef\u57fa)-3,5-\u4e8c\u82ef\u57fa\u82ef", "en_name": ["4-Bromo-5\u2032-phenyl-1,1\u2032:3\u2032,1\u2032\u2032-terphenyl", "1,1\u2032:3\u2032,1\u2032\u2032-Terphenyl, 4-bromo-5\u2032-phenyl-", "4-Bromo-5\u2032-phenyl-1,1\u2032:3\u2032,1\u2032\u2032-terphenyl", "1-(4-Bromophenyl)-3,5-diphenylbenzene", "4-(4-Bromophenyl)-2,6-diphenylbenzene", "5-(4-Bromophenyl)-[1,1\u2032:3,1\"", "-terphenyl]"], "SMILES": "BrC1=CC=C(C2=CC(=CC(=C2)C3=CC=CC=C3)C4=CC=CC=C4)C=C1", "physical_data": {"Molecular Weight": "385.30", "Molecular Formula": "C24H17Br", "Melting Point": "150.5-151.0 \u00b0C"}}