{"cas_no": "116903-46-9", "cn_name": "1-\u4e59\u6c27\u57fa-4-[2-(4-\u7532\u57fa\u82ef\u57fa)\u4e59\u7094\u57fa]\u82ef", "en_name": ["1-Ethoxy-4-[2-(4-methylphenyl)ethynyl]benzene", "Benzene, 1-ethoxy-4-[2-(4-methylphenyl)ethynyl]-", "Benzene, 1-ethoxy-4-[(4-methylphenyl)ethynyl]-", "1-Ethoxy-4-[2-(4-methylphenyl)ethynyl]benzene", "4-Methyl-4\u2032-ethoxytolane", "PTP 1O2", "PTP 102"], "SMILES": "C(#CC1=CC=C(C)C=C1)C2=CC=C(OCC)C=C2", "physical_data": {"Molecular Weight": "236.31", "Molecular Formula": "C17H16O", "Melting Point": "106.1-106.4 \u00b0C"}}