{"cas_no": "117-18-0", "cn_name": "\u56db\u6c2f\u785d\u57fa\u82ef", "en_name": ["1,2,4,5-Tetrachloro-3-nitrobenzene", "Benzene, 1,2,4,5-tetrachloro-3-nitro-", "1,2,4,5-Tetrachloro-3-nitrobenzene", "Chipman 3142", "Folosan DB 905", "Fusarex", "TCNB", "Tecnazene", "2,3,5,6-Tetrachloronitrobenzene", "2,3,5,6-Tetrachloro-1-nitrobenzene", "Folosan", "Tecnazen", "Myfusan", "Tetrachloronitrobenzene", "Napotate", "Nebulin", "1-Nitro-2,3,5,6-tetrachlorobenzene", "TCNB (pesticide)", "NSC 10235"], "SMILES": "N(=O)(=O)C1=C(Cl)C(Cl)=CC(Cl)=C1Cl", "physical_data": {"Molecular Weight": "260.89", "Molecular Formula": "C6HCl4NO2", "Boiling Point": "304 \u00b0C", "Melting Point": "99-100 \u00b0C", "Density": "1.744 g/cm\u00b3 @ Temp: 25 \u00b0C"}}