{"cas_no": "117-34-0", "cn_name": "2,2-\u4e8c\u82ef\u57fa\u4e59\u9178", "en_name": ["Diphenylacetic acid", "Benzeneacetic acid, \u03b1-phenyl-", "Acetic acid, diphenyl-", "\u03b1-Phenylbenzeneacetic acid", "Diphenylacetic acid", "\u03b1,\u03b1-Diphenylacetic acid", "2,2-Diphenylacetic acid", "Diphenylethanoic acid", "NSC 120417", "NSC 8742"], "SMILES": "C(C(O)=O)(C1=CC=CC=C1)C2=CC=CC=C2", "physical_data": {"Molecular Weight": "212.24", "Molecular Formula": "C14H12O2", "Boiling Point": "114 \u00b0C @ Press: 0.05 Torr", "Melting Point": "147 \u00b0C"}}