{"cas_no": "117-11-3", "cn_name": "1-\u6c28\u57fa-5-\u6c2f\u84bd\u918c", "en_name": ["1-Amino-5-chloroanthraquinone", "9,10-Anthracenedione, 1-amino-5-chloro-", "Anthraquinone, 1-amino-5-chloro-", "1-Amino-5-chloro-9,10-anthracenedione", "5-Chloro-1-aminoanthraquinone", "1-Amino-5-chloroanthraquinone", "1-Chloro-5-aminoanthraquinone", "5-Amino-1-chloroanthraquinone", "NSC 4996", "1-Amino-5-chloro-9,10-dihydroanthracene-9,10-dione"], "SMILES": "O=C1C=2C(C(=O)C=3C1=CC=CC3N)=CC=CC2Cl", "physical_data": {"Molecular Weight": "257.67", "Molecular Formula": "C14H8ClNO2", "Melting Point": "210 \u00b0C"}}