{"cas_no": "117-08-8", "cn_name": "\u56db\u6c2f\u82ef\u4e8c\u7532\u9178\u9150", "en_name": ["Tetrachlorophthalic anhydride", "1,3-Isobenzofurandione, 4,5,6,7-tetrachloro-", "Phthalic anhydride, tetrachloro-", "4,5,6,7-Tetrachloro-1,3-isobenzofurandione", "Niagathal", "Tetrachlorophthalic anhydride", "1,3-Dioxy-4,5,6,7-tetrachloroisobenzofuran", "3,4,5,6-Tetrachlorophthalic anhydride", "Tetrachlorophthalic acid anhydride", "NSC 1484", "4,5,6,7-Tetrachloroisobenzofuran-1,3-dione"], "SMILES": "ClC1=C2C(=C(Cl)C(Cl)=C1Cl)C(=O)OC2=O", "physical_data": {"Molecular Weight": "285.90", "Molecular Formula": "C8Cl4O3", "Boiling Point": "371 \u00b0C", "Melting Point": "255-256.5 \u00b0C"}}