{"cas_no": "117-57-7", "cn_name": "2-\u7532\u57fa-3-\u7f9f\u57fa\u55b9\u5549-4-\u7fa7\u9178", "en_name": ["3-Hydroxy-2-methyl-4-quinolinecarboxylic acid", "4-Quinolinecarboxylic acid, 3-hydroxy-2-methyl-", "Cinchoninic acid, 3-hydroxy-2-methyl-", "3-Hydroxy-2-methyl-4-quinolinecarboxylic acid", "2-Methyl-3-hydroxyquinoline-4-carboxylic acid", "3-Hydroxy-2-methylcinchoninic acid", "3-Hydroxy-4-quinaldinecarboxylic acid", "3-Hydroxy-4-carboxyquinaldine", "2-Methyl-3-hydroxy-4-carboxyquinoline", "4-Carboxy-3-hydroxy-2-methylquinoline", "2-Methyl-3-hydroxyquinoline-4-formic acid"], "SMILES": "C(O)(=O)C=1C2=C(N=C(C)C1O)C=CC=C2", "physical_data": {"Molecular Weight": "203.19", "Molecular Formula": "C11H9NO3", "Melting Point": "229-230 \u00b0C (decomp)"}}