{"cas_no": "117-21-5", "cn_name": "3-\u6c2f\u82ef\u9150", "en_name": ["3-Chlorophthalic anhydride", "1,3-Isobenzofurandione, 4-chloro-", "Phthalic anhydride, 3-chloro-", "4-Chloro-1,3-isobenzofurandione", "3-Chlorophthalic anhydride", "3-Chlorophthalic acid anhydride", "NSC 122937", "4-Chloroisobenzofuran-1,3-dione"], "SMILES": "ClC1=C2C(C(=O)OC2=O)=CC=C1", "physical_data": {"Molecular Weight": "182.56", "Molecular Formula": "C8H3ClO3", "Melting Point": "124.80 \u00b0C"}}