{"cas_no": "117-92-0", "cn_name": "\u55b9\u54ea\u5576\u7ea2", "en_name": ["Quinaldine Red", "Quinolinium, 2-[2-[4-(dimethylamino)phenyl]ethenyl]-1-ethyl-, iodide (1:1)", "Quinolinium, 2-[p-(dimethylamino)styryl]-1-ethyl-, iodide", "Quinaldine Red", "Quinolinium, 2-[2-[4-(dimethylamino)phenyl]ethenyl]-1-ethyl-, iodide", "2-[p-(Dimethylamino)styryl]-1-ethylquinolinium iodide", "\u03b1-(p-Dimethylaminophenylethylene)quinoline ethiodide", "2-(p-Dimethylaminostyryl)quinoline ethiodide", "Eastman 1361", "1-Ethyl-2-(p-dimethylaminostyryl)quinoline iodide", "2-[4-(Dimethylamino)styryl]-1-ethylquinolinium iodide", "NK 92"], "SMILES": "C(C)[N+]=1C2=C(C=CC1C=CC3=CC=C(N(C)C)C=C3)C=CC=C2.[I-]", "physical_data": {"Molecular Weight": "", "Molecular Formula": "C21H23N2.I", "Melting Point": "241-243 \u00b0C"}}