{"cas_no": "117-82-8", "cn_name": "\u90bb\u82ef\u4e8c\u7532\u9178\u4e8c\u7532\u6c27\u4e59\u916f", "en_name": ["Bis(2-methoxyethyl) phthalate", "1,2-Benzenedicarboxylic acid, 1,2-bis(2-methoxyethyl) ester", "Phthalic acid, bis(2-methoxyethyl) ester", "1,2-Benzenedicarboxylic acid, bis(2-methoxyethyl) ester", "Ethanol, 2-methoxy-, phthalate (2:1)", "Bis(methoxyethyl) phthalate", "Kesscoflex MCP", "Methyl glycol phthalate", "Bis(2-methoxyethyl) phthalate", "2-Methoxyethyl phthalate", "Dimethyl glycol phthalate", "NSC 2147", "KC 988", "Bis(2-methoxyethyl)ester 1,2-benzenedicarboxylic acid", "Di(2-methoxyethyl) phthalate"], "SMILES": "C(OCCOC)(=O)C1=C(C(OCCOC)=O)C=CC=C1", "physical_data": {"Molecular Weight": "282.29", "Molecular Formula": "C14H18O6", "Boiling Point": "340 \u00b0C", "Melting Point": "-45 \u00b0C", "Density": "1 x 10<sup>-6</sup> g/cm\u00b3 @ Temp: 20 \u00b0C"}}