{"cas_no": "117-83-9", "cn_name": "\u90bb\u82ef\u4e8c\u7532\u9178\u4e8c\u4e01\u6c27\u57fa\u4e59\u916f", "en_name": ["Bis(2-butoxyethyl) phthalate", "1,2-Benzenedicarboxylic acid, 1,2-bis(2-butoxyethyl) ester", "Phthalic acid, bis(2-butoxyethyl) ester", "1,2-Benzenedicarboxylic acid, bis(2-butoxyethyl) ester", "Ethanol, 2-butoxy-, phthalate (2:1)", "Bis(2-butoxyethyl) phthalate", "\u03b2-Butoxyethyl phthalate", "Butyl glycol phthalate", "Kesscoflex BCP", "Kronisol", "Palatinol K", "Plasthall DBEP", "Sansocizer C 1100", "Di(ethylene glycol butyl ether) phthalate", "Plasthall 200DBEP", "Bis(2-n-butoxyethyl) phthalate", "Sankonol 0882-0", "NSC 4840", "DBMP", "Di(2-butoxyethyl) phthalate", "C 1000 (phthalate)", "C 1000", "LV 848"], "SMILES": "C(OCCOCCCC)(=O)C1=C(C(OCCOCCCC)=O)C=CC=C1", "physical_data": {"Molecular Weight": "366.45", "Molecular Formula": "C20H30O6", "Boiling Point": "270 \u00b0C", "Density": "1.06 g/cm\u00b3 @ Temp: 20 \u00b0C"}}