{"cas_no": "117-02-2", "cn_name": "\u7532\u57fa\u5f02\u831c\u8349\u7d20", "en_name": ["Rubiadin", "9,10-Anthracenedione, 1,3-dihydroxy-2-methyl-", "Rubiadin", "Anthraquinone, 1,3-dihydroxy-2-methyl-", "1,3-Dihydroxy-2-methyl-9,10-anthracenedione", "C.I. 75350", "1,3-Dihydroxy-2-methylanthraquinone", "Rubiadine", "1,3-Dihydroxy-2-methyl-9,10-anthraquinone"], "SMILES": "O=C1C=2C(C(=O)C=3C1=CC=CC3)=CC(O)=C(C)C2O", "physical_data": {"Molecular Weight": "254.24", "Molecular Formula": "C15H10O4", "Melting Point": "290 \u00b0C"}}