{"cas_no": "117-78-2", "cn_name": "\u84bd\u918c-2-\u7fa7\u9178", "en_name": ["2-Anthraquinonecarboxylic acid", "2-Anthracenecarboxylic acid, 9,10-dihydro-9,10-dioxo-", "2-Anthroic acid, 9,10-dihydro-9,10-dioxo-", "2-Anthraquinonecarboxylic acid", "9,10-Dihydro-9,10-dioxo-2-anthracenecarboxylic acid", "2-Carboxy-9,10-anthraquinone", "\u03b2-Anthraquinonecarboxylic acid", "2-Carboxyanthraquinone", "9,10-Dioxoanthracene-2-carboxylic acid", "9,10-Anthraquinone-2-carboxylic acid", "NSC 5001", "9,10-Dioxo-9,10-dihydro-2-anthracenecarboxylic acid"], "SMILES": "O=C1C=2C(C(=O)C=3C1=CC=CC3)=CC=C(C(O)=O)C2", "physical_data": {"Molecular Weight": "252.22", "Molecular Formula": "C15H8O4", "Melting Point": "291 \u00b0C"}}