{"cas_no": "117-39-5", "cn_name": "\u69f2\u76ae\u7d20", "en_name": ["Quercetin", "4H-1-Benzopyran-4-one, 2-(3,4-dihydroxyphenyl)-3,5,7-trihydroxy-", "Flavone, 3,3\u2032,4\u2032,5,7-pentahydroxy-", "Flavone, 3,4\u2032,5,5\u2032,7-pentahydroxy-", "2-(3,4-Dihydroxyphenyl)-3,5,7-trihydroxy-4H-1-benzopyran-4-one", "C.I. 75670", "Meletin", "3,5,7,3\u2032,4\u2032-Pentahydroxyflavone", "Quercetin", "Quercetine", "Quercetol", "Quertine", "Sophoretin", "Xanthaurine", "3,3\u2032,4\u2032,5,7-Pentahydroxyflavone", "Cyanidelonon 1522", "Quertin", "NSC 57655", "NSC 9219", "2-(3,4-Dihydroxyphenyl)-3,5,7-trihydroxy-4H-benzopyran-4-one", "Corvitin", "Korvitin", "3\u2032-Hydroxykaempferol", "LDN 0052529", "Lipoflavon", "3,5,7-Trihydroxy-2-(3,4-dihydroxyphenyl)-4H-chromen-4-one", "2-(3,4-Dihydroxyphenyl)-3,5,7-trihydroxychromen-4-one", "2-(3,4-Dihydroxyphenyl)-3,5,7-trihydroxy-4H-chromen-4-one", "TCM 5280343", "Quercevita", "MeSH ID: D011794"], "SMILES": "O=C1C=2C(OC(=C1O)C3=CC(O)=C(O)C=C3)=CC(O)=CC2O", "physical_data": {"Molecular Weight": "302.24", "Molecular Formula": "C15H10O7", "Melting Point": "316.5 \u00b0C"}}