{"cas_no": "117-99-7", "cn_name": "2-\u7f9f\u57fa\u4e8c\u82ef\u7532\u916e", "en_name": ["2-Hydroxybenzophenone", "Methanone, (2-hydroxyphenyl)phenyl-", "Benzophenone, 2-hydroxy-", "(2-Hydroxyphenyl)phenylmethanone", "2-Hydroxybenzophenone", "o-Hydroxybenzophenone", "o-Benzoylphenol", "Phenyl 2-hydroxyphenyl ketone", "2\u2032-Hydroxybenzophenone", "o-Hydroxyphenyl phenyl ketone", "2-Benzoylphenol", "NSC 623", "UVA 635LP"], "SMILES": "C(=O)(C1=C(O)C=CC=C1)C2=CC=CC=C2", "physical_data": {"Molecular Weight": "198.22", "Molecular Formula": "C13H10O2", "Boiling Point": "250 \u00b0C", "Melting Point": "40 \u00b0C"}}