{"cas_no": "117-61-3", "cn_name": "\u8054\u82ef\u80fa\u53cc\u78fa\u9178", "en_name": ["2,2\u2032-Benzidinedisulfonic acid", "[1,1\u2032-Biphenyl]-2,2\u2032-disulfonic acid, 4,4\u2032-diamino-", "2,2\u2032-Biphenyldisulfonic acid, 4,4\u2032-diamino-", "4,4\u2032-Diamino[1,1\u2032-biphenyl]-2,2\u2032-disulfonic acid", "2,2\u2032-Disulfobenzidine", "2,2\u2032-Benzidinedisulfonic acid", "6,6\u2032-Bimetanilic acid", "4,4\u2032-Diaminobiphenyl-2,2\u2032-disulfonic acid", "4,4\u2032-Diaminodiphenyl-2,2\u2032-disulfonic acid", "2,2\u2032-Disulfo-4,4\u2032-diaminobiphenyl", "NSC 3763", "4,4\u2032-Diaminobiphenyl-2,2\u2032-bis(sulfonic acid)", "4,4\u2032-Benzidine-2,2\u2032-disulfonic acid", "4,4\u2032-Diamino-[1,1\u2032-biphenyl]-2,2\u2032-disulfonic acid"], "SMILES": "S(=O)(=O)(O)C1=C(C=CC(N)=C1)C2=C(S(=O)(=O)O)C=C(N)C=C2", "physical_data": {"Molecular Weight": "344.36", "Molecular Formula": "C12H12N2O6S2", "Melting Point": "168 \u00b0C"}}