{"cas_no": "117-96-4", "cn_name": "\u6cdb\u5f71\u9178", "en_name": ["Diatrizoate", "Benzoic acid, 3,5-bis(acetylamino)-2,4,6-triiodo-", "Benzoic acid, 3,5-diacetamido-2,4,6-triiodo-", "3,5-Bis(acetylamino)-2,4,6-triiodobenzoic acid", "Amidotrizoic acid", "Diatrizoate", "Diatrizoic acid", "2,4,6-Triiodo-3,5-diacetamidobenzoic acid", "Odiston", "Urografin acid", "Urotrast", "3,5-Diacetamido-2,4,6-triiodobenzoic acid", "Urogranoic acid", "NSC 262168", "MeSH ID: D003973"], "SMILES": "N(C(C)=O)C1=C(I)C(C(O)=O)=C(I)C(NC(C)=O)=C1I", "physical_data": {"Molecular Weight": "613.91", "Molecular Formula": "C11H9I3N2O4", "Melting Point": "&gt;300 \u00b0C"}}