{"cas_no": "117-81-7", "cn_name": "\u90bb\u82ef\u4e8c\u7532\u9178\u4e8c(2-\u4e59\u57fa\u5df1)\u916f", "en_name": ["Dioctyl phthalate", "1,2-Benzenedicarboxylic acid, 1,2-bis(2-ethylhexyl) ester", "Phthalic acid, bis(2-ethylhexyl) ester", "1,2-Benzenedicarboxylic acid, bis(2-ethylhexyl) ester", "Compound 889", "DOP", "Flexol DOP", "Octoil", "Pittsburgh PX 138", "Staflex DOP", "Truflex DOP", "Witcizer 312", "Octyl phthalate", "Palatinol AH", "Dioctyl phthalate", "Kodaflex DOP", "Sicol 150", "Ethylhexyl phthalate", "Vestinol AH", "Bisoflex 81", "Phthalic acid dioctyl ester", "Bis(2-ethylhexyl) 1,2-benzenedicarboxylate", "2-Ethylhexyl phthalate", "Bis(2-ethylhexyl) phthalate", "Kodaflex DEHP", "DEHP", "Fleximel", "Di(2-ethylhexyl) phthalate", "Eviplast 80", "Eviplast 81", "Vinycizer 80", "Bisoflex DOP", "Good-rite GP 264", "Ergoplast FDO", "Reomol D 79P", "Ergoplast FDO-S", "Bis(2-ethylhexyl) o-phthalate", "DOF (Russian plasticizer)", "DOF", "Sansocizer DOP", "Monocizer DOP", "Etalon (plasticizer)", "Etalon", "Hatco DOP", "Sconamoll DOP", "Di(isooctyl) phthalate", "Sansocizer R 8000", "Corflex 400", "Phthalic acid di(2-ethylhexyl) ester", "Vinycizer 80K", "Plasthall DOP", "Diacizer DOP", "Jayflex DOP", "3315AF2", "Garbeflex DOP-D 40", "Flexol DOD", "Palatinol AH-L", "NSC 17069", "ESBO-D 82", "Palatinol DOP", "ZS (plasticizer)", "ZS", "Scandinol SC 1000", "R 8000", "DOPT", "Diplast O", "Codan Set L 86P", "JSSD-DOP", "D 109648", "YGT 3", "LGflex DPHP", "JSWD DOP", "JSWD-DOP", "CX 166"], "SMILES": "C(OCC(CCCC)CC)(=O)C1=C(C(OCC(CCCC)CC)=O)C=CC=C1", "physical_data": {"Molecular Weight": "390.56", "Molecular Formula": "C24H38O4", "Boiling Point": "230 \u00b0C @ Press: 5 Torr", "Melting Point": "-55 \u00b0C", "Density": "0.9861 g/cm\u00b3 @ Temp: 20 \u00b0C"}}