{"cas_no": "117-47-5", "cn_name": "(2-\u620a\u57fa)\u4e19\u4e8c\u9178\u4e8c\u4e59\u916f", "en_name": ["1,3-Diethyl 2-(1-methylbutyl)propanedioate", "Propanedioic acid, 2-(1-methylbutyl)-, 1,3-diethyl ester", "Malonic acid, (1-methylbutyl)-, diethyl ester", "Propanedioic acid, (1-methylbutyl)-, diethyl ester", "1,3-Diethyl 2-(1-methylbutyl)propanedioate", "Diethyl (1-methylbutyl)malonate", "1-(Methylbutyl)malonic acid diethyl ester", "NSC 10820", "NSC 62700", "Diethyl 2-(pentan-2-yl)malonate"], "SMILES": "C(C(CCC)C)(C(OCC)=O)C(OCC)=O", "physical_data": {"Molecular Weight": "230.30", "Molecular Formula": "C12H22O4", "Boiling Point": "235-236 \u00b0C @ Press: 729 Torr", "Density": "0.9731 g/cm\u00b3 @ Temp: 20 \u00b0C"}}