{"cas_no": "117-84-0", "cn_name": "\u90bb\u82ef\u4e8c\u7532\u9178\u4e8c\u8f9b\u916f", "en_name": ["Di-n-octyl phthalate", "1,2-Benzenedicarboxylic acid, 1,2-dioctyl ester", "Phthalic acid, dioctyl ester", "1,2-Benzenedicarboxylic acid, dioctyl ester", "Di-n-octyl phthalate", "Dinopol NOP", "n-Octyl phthalate", "Vinycizer 85", "Octyl phthalate", "Phthalic acid dioctyl ester", "DNOP", "Dioctyl o-phthalate", "Dicaprylyl phthalate", "NSC 15318", "Bis(n-octyl) phthalate", "Monocizer W 555", "1,2-Di-n-octyl phthalate", "Dioctyl phthalate"], "SMILES": "C(OCCCCCCCC)(=O)C1=C(C(OCCCCCCCC)=O)C=CC=C1", "physical_data": {"Molecular Weight": "390.56", "Molecular Formula": "C24H38O4", "Boiling Point": "220 \u00b0C @ Press: 4 Torr", "Melting Point": "-25 \u00b0C", "Density": "0.978 g/cm\u00b3 @ Temp: 20 \u00b0C"}}