{"cas_no": "117-79-3", "cn_name": "2-\u6c28\u57fa\u84bd\u918c", "en_name": ["2-Aminoanthraquinone", "9,10-Anthracenedione, 2-amino-", "Anthraquinone, 2-amino-", "2-Amino-9,10-anthracenedione", "2-Aminoanthraquinone", "2-Amino-9,10-anthraquinone", "\u03b2-Aminoanthraquinone", "NSC 5", "2-Amino-9,10-dihydroanthracene-9,10-dione"], "SMILES": "O=C1C=2C(C(=O)C=3C1=CC=CC3)=CC=C(N)C2", "physical_data": {"Molecular Weight": "223.23", "Molecular Formula": "C14H9NO2", "Melting Point": "302 \u00b0C"}}