{"cas_no": "117-12-4", "cn_name": "1\uff0c5-\u4e8c\u7f9f\u57fa\u84bd\u918c", "en_name": ["Anthrarufin", "9,10-Anthracenedione, 1,5-dihydroxy-", "Anthrarufin", "Anthraquinone, 1,5-dihydroxy-", "1,5-Dihydroxy-9,10-anthracenedione", "1,5-Dihydroxyanthraquinone", "1,5-Dihydroxy-9,10-anthraquinone", "NSC 646570", "NSC 7211", "1,5-Dihydroxy-9,10-dihydroanthracene-9,10-dione"], "SMILES": "O=C1C=2C(C(=O)C=3C1=CC=CC3O)=CC=CC2O", "physical_data": {"Molecular Weight": "240.21", "Molecular Formula": "C14H8O4", "Melting Point": "280 \u00b0C", "Density": "1.56 g/cm\u00b3"}}