{"cas_no": "117-37-3", "cn_name": "\u8334\u831a\u4e8c\u916e", "en_name": ["Anisindione", "1H-Indene-1,3(2H)-dione, 2-(4-methoxyphenyl)-", "1,3-Indandione, 2-(p-methoxyphenyl)-", "2-(4-Methoxyphenyl)-1H-indene-1,3(2H)-dione", "Anisindione", "2-p-Anisyl-1,3-indandione", "2-(p-Methoxyphenyl)-1,3-indandione", "Miradon", "2-(4-Methoxyphenyl)-1,3-indandione", "Andion", "SPE 2792", "Unidone", "2-(4-Methoxy-phenyl)-indane-1,3-dione", "2-(4-Methoxyphenyl)indene-1,3-dione", "2-(4-Methoxyphenyl)-2,3-dihydro-1H-indene-1,3-dione"], "SMILES": "O=C1C(C(=O)C=2C1=CC=CC2)C3=CC=C(OC)C=C3", "physical_data": {"Molecular Weight": "252.26", "Molecular Formula": "C16H12O3", "Melting Point": "156-157 \u00b0C"}}