{"cas_no": "117-80-6", "cn_name": "2,3-\u4e8c\u6c2f-1,4-\u8418\u918c", "en_name": ["2,3-Dichloro-1,4-naphthoquinone", "1,4-Naphthalenedione, 2,3-dichloro-", "1,4-Naphthoquinone, 2,3-dichloro-", "2,3-Dichloro-1,4-naphthalenedione", "USR 604", "Compound 604", "Dichlone", "2,3-Dichloro-1,4-naphthoquinone", "Phygon", "Phygon Seed Protectant", "Sanquinon", "Diclone", "Algistat", "Phygon XL", "2,3-Dichloro-1,4-dihydro-1,4-dioxonaphthalene", "Algistat (quinone)", "NSC 537", "2,3-Dichloro-p-naphthoquinone", "2,3-Dichloro-1,4-dihydronaphthalene-1,4-dione"], "SMILES": "O=C1C=2C(C(=O)C(Cl)=C1Cl)=CC=CC2", "physical_data": {"Molecular Weight": "227.04", "Molecular Formula": "C10H4Cl2O2", "Boiling Point": "275 \u00b0C @ Press: 2 Torr", "Melting Point": "195 \u00b0C"}}