{"cas_no": "117-89-5", "cn_name": "\u4e09\u6c1f\u62c9\u55ea", "en_name": ["Trifluoperazine", "10H-Phenothiazine, 10-[3-(4-methyl-1-piperazinyl)propyl]-2-(trifluoromethyl)-", "Phenothiazine, 10-[3-(4-methyl-1-piperazinyl)propyl]-2-(trifluoromethyl)-", "10-[3-(4-Methyl-1-piperazinyl)propyl]-2-(trifluoromethyl)-10H-phenothiazine", "RP 7623", "Trifluoperazine", "2-Trifluoromethyl-10-[3\u2032-(1-methyl-4-piperazinyl)propyl]phenothiazine", "Trifluoromethylperazine", "Trifluperazine", "Trifluoroperazine", "Trifluoperazin", "Triflurin", "Triperazine", "TFP", "Flurazine", "NSC 17474", "10-[3-(4-Methylpiperazin-1-yl)propyl]-2-(trifluoromethyl)phenothiazine", "MeSH ID: D014268"], "SMILES": "C(CCN1CCN(C)CC1)N2C=3C(SC=4C2=CC=CC4)=CC=C(C(F)(F)F)C3", "physical_data": {"Molecular Weight": "407.50", "Molecular Formula": "C21H24F3N3S", "Boiling Point": "202-210 \u00b0C @ Press: 0.6 Torr", "Melting Point": "25.0 \u00b0C"}}