{"cas_no": "117-06-6", "cn_name": "1-\u6c28\u57fa-5-\u82ef\u7532\u9170\u80fa\u57fa\u84bd\u918c", "en_name": ["N-(5-Amino-9,10-dihydro-9,10-dioxo-1-anthracenyl)benzamide", "Benzamide, N-(5-amino-9,10-dihydro-9,10-dioxo-1-anthracenyl)-", "Benzamide, N-(5-amino-1-anthraquinonyl)-", "Anthraquinone, 1-amino-5-benzamido-", "N-(5-Amino-9,10-dihydro-9,10-dioxo-1-anthracenyl)benzamide", "1-Amino-5-benzoylaminoanthraquinone", "1-Amino-5-benzamido-9,10-anthraquinone", "1-Benzamido-5-amino-9,10-anthraquinone", "5-Benzamido-1-aminoanthraquinone", "1-Benzamido-5-aminoanthraquinone", "1-Amino-5-benzamidoanthraquinone", "NSC 13981"], "SMILES": "N(C(=O)C1=CC=CC=C1)C2=C3C(C(=O)C=4C(C3=O)=CC=CC4N)=CC=C2", "physical_data": {"Molecular Weight": "342.35", "Molecular Formula": "C21H14N2O3", "Melting Point": "258-260 \u00b0C"}}