{"cas_no": "117-10-2", "cn_name": "1,8-\u4e8c\u7f9f\u57fa\u84bd\u918c", "en_name": ["1,8-Dihydroxyanthraquinone", "9,10-Anthracenedione, 1,8-dihydroxy-", "Anthraquinone, 1,8-dihydroxy-", "1,8-Dihydroxy-9,10-anthracenedione", "Altan", "Antrapurol", "Chrysazin", "Danthron", "Dantron", "Diaquone", "1,8-Dihydroxyanthraquinone", "Dionone", "Istin", "Istizin", "Dorbane", "Laxipurin", "Zwitsalax", "Laxanorm", "Laxanthreen", "Laxipur", "1,8-Dihydroxy-9,10-anthraquinone", "1,8-Dioxyanthraquinone", "Danthrone", "Modane", "NSC 38626", "NSC 646568", "NSC 7210", "1,8-Dihydroxy-9,10-dihydroanthracene-9,10-dione"], "SMILES": "O=C1C=2C(C(=O)C=3C1=C(O)C=CC3)=CC=CC2O", "physical_data": {"Molecular Weight": "240.21", "Molecular Formula": "C14H8O4", "Melting Point": "193 \u00b0C"}}