{"cas_no": "117007-51-9", "cn_name": "3-\u6c2f-1H-\u5421\u5511\u5e76[3,4-B\u3015\u5421\u5576", "en_name": ["3-Chloro-1H-pyrazolo[3,4-b]pyridine", "1H-Pyrazolo[3,4-b]pyridine, 3-chloro-", "3-Chloro-1H-pyrazolo[3,4-b]pyridine", "3-Chloro-2H-pyrazolo[3,4-b]pyridine"], "SMILES": "ClC=1C=2C(=NC=CC2)NN1", "physical_data": {"Molecular Weight": "153.57", "Molecular Formula": "C6H4ClN3", "Melting Point": "174.5-176.5 \u00b0C"}}