{"cas_no": "117048-59-6", "cn_name": "(Z)-3,4,5,4',-\u56db\u7532\u6c27\u57fa-3'-\u7f9f\u57fa\u4e8c\u82ef\u4e59\u70ef", "en_name": ["Combretastatin A4", "Phenol, 2-methoxy-5-[(1Z)-2-(3,4,5-trimethoxyphenyl)ethenyl]-", "Phenol, 2-methoxy-5-[2-(3,4,5-trimethoxyphenyl)ethenyl]-, (Z)-", "2-Methoxy-5-[(1Z)-2-(3,4,5-trimethoxyphenyl)ethenyl]phenol", "Combretastatin A4", "NSC 817373", "CRC 87-09", "NSC 613729", "Combretastatin 4", "CA 4", "2\u2032-Deoxycombretastatin A1", "2-Methoxy-5-[(Z)-2-(3,4,5-trimethoxyphenyl)ethenyl]phenol", "cis-Combretastatin A4", "Cis-Combretastatin A4", "C 7744"], "SMILES": "O(C)C1=C(OC)C=C(C=CC2=CC(O)=C(OC)C=C2)C=C1OC", "physical_data": {"Molecular Weight": "316.35", "Molecular Formula": "C18H20O5", "Melting Point": "116-117 \u00b0C"}}