{"cas_no": "1170-76-9", "cn_name": "N-\u82c4\u6c27\u7fb0\u57fa\u7518\u6c28\u9170-L-\u82ef\u4e19\u6c28\u9178", "en_name": ["N-[(Phenylmethoxy)carbonyl]glycyl-L-phenylalanine", "L-Phenylalanine, N-[(phenylmethoxy)carbonyl]glycyl-", "Alanine, N-(N-carboxyglycyl)-3-phenyl-, N-benzyl ester, L-", "L-Phenylalanine, N-[N-[(phenylmethoxy)carbonyl]glycyl]-", "L-Alanine, N-(N-carboxyglycyl)-3-phenyl-, N-benzyl ester", "N-[(Phenylmethoxy)carbonyl]glycyl-L-phenylalanine", "(Carbobenzoxy)glycyl-L-phenylalanine", "N-(Benzyloxycarbonyl)glycyl-L-phenylalanine", "(Carbobenzyloxy)glycyl-L-phenylalanine", "N-(Carbobenzoxy)glycyl-L-phenylalanine", "N-(Carbobenzyloxy)glycyl-L-phenylalanine", "(Carbobenzoxy)glycylphenylalanine", "N-(Benzyloxycarbonyl)glycylphenylalanine", "NSC 89642", "(2S)-2-[[2-(Benzyloxycarbonylamino)acetyl]amino]-3-phenyl-propanoic acid", "(2S)-3-Phenyl-2-[[2-(phenylmethoxycarbonylamino)acetyl]amino]propanoic acid"], "SMILES": "C(C(NC(CNC(OCC1=CC=CC=C1)=O)=O)C(O)=O)C2=CC=CC=C2", "physical_data": {"Molecular Weight": "356.37", "Molecular Formula": "C19H20N2O5", "Melting Point": "125-126 \u00b0C"}}