{"cas_no": "1171919-00-8", "cn_name": "2-\u6c2f-3,5-\u4e8c\u7898-4-\u5421\u5576\u80fa", "en_name": ["2-Chloro-3,5-diiodo-4-pyridinamine", "4-Pyridinamine, 2-chloro-3,5-diiodo-", "2-Chloro-3,5-diiodo-4-pyridinamine"], "SMILES": "IC=1C(N)=C(I)C=NC1Cl", "physical_data": {"Molecular Weight": "380.35", "Molecular Formula": "C5H3ClI2N2", "Melting Point": "161-162 \u00b0C"}}