{"cas_no": "1171-47-7", "cn_name": "2,2-\u53cc(4-\u7fa7\u57fa\u82ef\u57fa)\u516d\u6c1f\u4e19\u70f7", "en_name": ["2,2-Bis(4-carboxyphenyl)hexafluoropropane", "Benzoic acid, 4,4\u2032-[2,2,2-trifluoro-1-(trifluoromethyl)ethylidene]bis-", "Benzoic acid, 4,4\u2032-[trifluoro-1-(trifluoromethyl)ethylidene]di-", "Benzoic acid, 4,4\u2032-[2,2,2-trifluoro-1-(trifluoromethyl)ethylidene]di-", "4,4\u2032-[2,2,2-Trifluoro-1-(trifluoromethyl)ethylidene]bis[benzoic acid]", "4,4\u2032-(Hexafluoroisopropylidene)dibenzoic acid", "2,2-Bis(p-carboxyphenyl)hexafluoropropane", "2,2-Bis(4-carboxyphenyl)hexafluoropropane", "Hexafluoro-2,2-bis(4-carboxyphenyl)propane", "4,4\u2032-Hexafluoroisopropylidenediphenyl-1,1\u2032-dicarboxylic acid", "4,4\u2032-(Hexafluoroisopropylidene)bis[benzoic acid]", "4,4\u2032-(1,1,1,3,3,3-Hexafluoropropane-2,2-diyl)dibenzoic acid", "2,2-Bis(4-carboxylphenyl)-1,1,1,3,3,3-hexafluoropropane", "2,2-Bis(4-carboxyphenyl)-1,1,1,3,3,3-hexafluoropropane"], "SMILES": "C(C(F)(F)F)(C(F)(F)F)(C1=CC=C(C(O)=O)C=C1)C2=CC=C(C(O)=O)C=C2", "physical_data": {"Molecular Weight": "392.25", "Molecular Formula": "C17H10F6O4", "Melting Point": "296 \u00b0C"}}