{"cas_no": "117106-20-4", "cn_name": "N-Fmoc-N-\u7532\u57fa-O-\u53d4\u4e01\u57fa-L-\u82cf\u6c28\u9178", "en_name": ["O-(1,1-Dimethylethyl)-N-[(9H-fluoren-9-ylmethoxy)carbonyl]-N-methyl-L-threonine", "L-Threonine, O-(1,1-dimethylethyl)-N-[(9H-fluoren-9-ylmethoxy)carbonyl]-N-methyl-", "O-(1,1-Dimethylethyl)-N-[(9H-fluoren-9-ylmethoxy)carbonyl]-N-methyl-L-threonine"], "SMILES": "C(OC(N(C(C(OC(C)(C)C)C)C(O)=O)C)=O)C1C=2C(C=3C1=CC=CC3)=CC=CC2", "physical_data": {"Molecular Weight": "411.49", "Molecular Formula": "C24H29NO5", "Melting Point": "44-46 \u00b0C"}}