{"cas_no": "1172-18-5", "cn_name": "\u76d0\u9178\u6c1f\u5b89\u5b9a", "en_name": ["Flurazepam hydrochloride", "2H-1,4-Benzodiazepin-2-one, 7-chloro-1-[2-(diethylamino)ethyl]-5-(2-fluorophenyl)-1,3-dihydro-, hydrochloride (1:2)", "2H-1,4-Benzodiazepin-2-one, 7-chloro-1-[2-(diethylamino)ethyl]-5-(o-fluorophenyl)-1,3-dihydro-, dihydrochloride", "2H-1,4-Benzodiazepin-2-one, 7-chloro-1-[2-(diethylamino)ethyl]-5-(2-fluorophenyl)-1,3-dihydro-, dihydrochloride", "Ro 5-6901", "7-Chloro-1-[2-(diethylamino)ethyl]-5-(o-fluorophenyl)-1,3-dihydro-2H-1,4-benzodiazepin-2-one dihydrochloride", "Dalmane", "Flurazepam hydrochloride", "7-Chloro-1-(2-diethylaminoethyl)-5-(2-fluorophenyl)-1,3-dihydro-2H-1,4-benzodiazepin-2-one dihydrochloride", "ID 480", "Flurazepam dihydrochloride", "Dalmadorm", "Dalmate", "Lunipax", "Insumin", "Dormodor", "Benozil", "Felson", "Somlan", "NSC 78559"], "SMILES": "C(CN(CC)CC)N1C=2C(C(=NCC1=O)C3=C(F)C=CC=C3)=CC(Cl)=CC2.Cl", "physical_data": {"Molecular Weight": "", "Molecular Formula": "C21H23ClFN3O.2ClH", "Melting Point": "190-220 \u00b0C"}}