{"cas_no": "1172-76-5", "cn_name": "1,2-\u4e8c\u7532\u57fa-1,1,2,2-\u56db\u82ef\u57fa\u4e59\u7845\u70f7", "en_name": ["1,2-Dimethyl-1,1,2,2-tetraphenyldisilane", "Disilane, 1,2-dimethyl-1,1,2,2-tetraphenyl-", "1,2-Dimethyl-1,1,2,2-tetraphenyldisilane", "1,2-Dimethyltetraphenyldisilane"], "SMILES": "[Si]([Si](C)(C1=CC=CC=C1)C2=CC=CC=C2)(C)(C3=CC=CC=C3)C4=CC=CC=C4", "physical_data": {"Molecular Weight": "394.66", "Molecular Formula": "C26H26Si2", "Melting Point": "142-144 \u00b0C"}}