{"cas_no": "117391-53-4", "cn_name": "3-\u6c28\u57fa-3-(4-\u5f02\u4e19\u57fa\u82ef\u57fa)\u4e19\u9178", "en_name": ["\u03b2-Amino-4-(1-methylethyl)benzenepropanoic acid", "Benzenepropanoic acid, \u03b2-amino-4-(1-methylethyl)-", "\u03b2-Amino-4-(1-methylethyl)benzenepropanoic acid", "3-Amino-3-[4-(propan-2-yl)phenyl]propanoic acid", "3-Amino-3-(4-isopropyl-phenyl)-propionic acid", "3-Amino-3-(4-isopropylphenyl)propanoic acid", "3-Amino-3-(4-propan-2-ylphenyl)propanoic acid"], "SMILES": "C(CC(O)=O)(N)C1=CC=C(C(C)C)C=C1", "physical_data": {"Molecular Weight": "207.27", "Molecular Formula": "C12H17NO2", "Melting Point": "243.1-243.4 \u00b0C"}}