{"cas_no": "117390-39-3", "cn_name": "\u567b\u5429\u5e76[3,2-B]\u5421\u5576-6-\u7fa7\u9178", "en_name": ["Thieno[3,2-b]pyridine-6-carboxylic acid", "Thieno[3,2-b]pyridine-6-carboxylic acid"], "SMILES": "C(O)(=O)C=1C=C2C(=NC1)C=CS2", "physical_data": {"Molecular Weight": "179.20", "Molecular Formula": "C8H5NO2S", "Melting Point": "&gt;250 \u00b0C"}}