{"cas_no": "1173-26-8", "cn_name": "21-\u4e59\u9178\u80be\u4e0a\u817a\u916e", "en_name": ["Corticosterone acetate", "Pregn-4-ene-3,20-dione, 21-(acetyloxy)-11-hydroxy-, (11\u03b2)-", "Corticosterone, 21-acetate", "Corticosterone acetate", "(11\u03b2)-21-(Acetyloxy)-11-hydroxypregn-4-ene-3,20-dione", "SKF 5654", "Cort A", "NSC 81764"], "SMILES": "CC12C3C(C4C(C)(CC3O)C(C(COC(C)=O)=O)CC4)CCC1=CC(=O)CC2", "physical_data": {"Molecular Weight": "388.50", "Molecular Formula": "C23H32O5", "Melting Point": "152.5-153.0 \u00b0C"}}