{"cas_no": "1173-88-2", "cn_name": "\u82ef\u5511\u897f\u6797", "en_name": ["Oxacillin sodium", "4-Thia-1-azabicyclo[3.2.0]heptane-2-carboxylic acid, 3,3-dimethyl-6-[[(5-methyl-3-phenyl-4-isoxazolyl)carbonyl]amino]-7-oxo-, sodium salt (1:1), (2S,5R,6R)-", "4-Thia-1-azabicyclo[3.2.0]heptane-2-carboxylic acid, 3,3-dimethyl-6-(5-methyl-3-phenyl-4-isoxazolecarboxamido)-7-oxo-, monosodium salt", "4-Thia-1-azabicyclo[3.2.0]heptane-2-carboxylic acid, 3,3-dimethyl-6-[[(5-methyl-3-phenyl-4-isoxazolyl)carbonyl]amino]-7-oxo-, monosodium salt, [2S-(2\u03b1,5\u03b1,6\u03b2)]-", "4-Thia-1-azabicyclo[3.2.0]heptane-2-carboxylic acid, 3,3-dimethyl-6-[[(5-methyl-3-phenyl-4-isoxazolyl)carbonyl]amino]-7-oxo-, monosodium salt, (2S,5R,6R)-", "Sodium (5-methyl-3-phenyl-2-isoxazoline-4-carboxamido)penicillanate", "5-Methyl-3-phenyl-4-isoxazolyl penicillin sodium salt", "Oxacillin sodium", "Sodium 5-methyl-3-phenyl-4-isoxazolyl penicillin", "Oxacillin sodium salt", "Sodium [(3-phenyl-5-methyl-4-isoxazolyl)carbonyl]penicillin", "Prostaphlin", "SQ 16423", "BRL 1400", "Penicillin P 12", "P 12", "Cryptocillin", "Bristopen", "Sodium oxacillin", "Stapenor", "Staphcillin V", "Monosodium oxacillin", "Bactocil sodium", "Bactocill", "Oxabel", "Micropenin", "Penstaphocid", "Penstapho", "NSC 527712", "Bactocil"], "SMILES": "C(O)(=O)C1N2C(C(NC(=O)C=3C(=NOC3C)C4=CC=CC=C4)C2=O)SC1(C)C.[Na]", "physical_data": {"Molecular Weight": "", "Molecular Formula": "C19H19N3O5S.Na", "Melting Point": "188 \u00b0C (decomp)"}}