{"cas_no": "117391-51-2", "cn_name": "3-\u6c28\u57fa-3-(3-\u6c1f\u82ef\u57fa)\u4e19\u9178", "en_name": ["\u03b2-Amino-3-fluorobenzenepropanoic acid", "Benzenepropanoic acid, \u03b2-amino-3-fluoro-", "\u03b2-Amino-3-fluorobenzenepropanoic acid", "3-Amino-3-(3-fluorophenyl)propionic acid", "3-Amino-3-(3-fluorophenyl)propanoic acid"], "SMILES": "C(CC(O)=O)(N)C1=CC(F)=CC=C1", "physical_data": {"Molecular Weight": "183.18", "Molecular Formula": "C9H10FNO2", "Melting Point": "237-239 \u00b0C"}}