{"cas_no": "117337-19-6", "cn_name": "\u55ea\u8349\u9178\u7532\u916f", "en_name": ["Fluthiacet-methyl", "Acetic acid, 2-[[2-chloro-4-fluoro-5-[(tetrahydro-3-oxo-1H,3H-[1,3,4]thiadiazolo[3,4-a]pyridazin-1-ylidene)amino]phenyl]thio]-, methyl ester", "Acetic acid, [[2-chloro-4-fluoro-5-[(tetrahydro-3-oxo-1H,3H-[1,3,4]thiadiazolo[3,4-a]pyridazin-1-ylidene)amino]phenyl]thio]-, methyl ester", "1H,3H-[1,3,4]Thiadiazolo[3,4-a]pyridazine, acetic acid deriv.", "Methyl 2-[[2-chloro-4-fluoro-5-[(tetrahydro-3-oxo-1H,3H-[1,3,4]thiadiazolo[3,4-a]pyridazin-1-ylidene)amino]phenyl]thio]acetamide", "Fluthiacet-methyl", "KIH 9201", "Action", "CGA 248757", "Blizzard", "Appeal", "Cadet"], "SMILES": "N(=C1N2N(C(=O)S1)CCCC2)C3=CC(SCC(OC)=O)=C(Cl)C=C3F", "physical_data": {"Molecular Weight": "403.88", "Molecular Formula": "C15H15ClFN3O3S2", "Melting Point": "106 \u00b0C"}}