{"cas_no": "1174-72-7", "cn_name": "\u7845\u9178\u56db\u82ef\u916f", "en_name": ["Tetraphenoxysilane", "Silicic acid (H4SiO4), tetraphenyl ester", "Phenyl silicate ((PhO)4Si)", "Silane, tetraphenoxy-", "Tetraphenoxysilane", "Tetraphenyl silicate", "Tetraphenyl orthosilicate", "NSC 252166"], "SMILES": "[Si](OC1=CC=CC=C1)(OC2=CC=CC=C2)(OC3=CC=CC=C3)OC4=CC=CC=C4", "physical_data": {"Molecular Weight": "400.50", "Molecular Formula": "C24H20O4Si", "Boiling Point": "417 \u00b0C", "Melting Point": "49 \u00b0C", "Density": "1.1328 g/cm\u00b3 @ Temp: 70 \u00b0C"}}