{"cas_no": "117467-28-4", "cn_name": "\u5934\u5b62\u59a5\u4ed1\u5339\u916f", "en_name": ["Cefditoren pivoxil", "5-Thia-1-azabicyclo[4.2.0]oct-2-ene-2-carboxylic acid, 7-[[(2Z)-2-(2-amino-4-thiazolyl)-2-(methoxyimino)acetyl]amino]-3-[(1Z)-2-(4-methyl-5-thiazolyl)ethenyl]-8-oxo-, (2,2-dimethyl-1-oxopropoxy)methyl ester, (6R,7R)-", "5-Thia-1-azabicyclo[4.2.0]oct-2-ene-2-carboxylic acid, 7-[[(2-amino-4-thiazolyl)(methoxyimino)acetyl]amino]-3-[2-(4-methyl-5-thiazolyl)ethenyl]-8-oxo-, (2,2-dimethyl-1-oxopropoxy)methyl ester, [6R-[3(Z),6\u03b1,7\u03b2(Z)]]-", "5-Thia-1-azabicyclo[4.2.0]oct-2-ene-2-carboxylic acid, 7-[[(2Z)-(2-amino-4-thiazolyl)(methoxyimino)acetyl]amino]-3-[(1Z)-2-(4-methyl-5-thiazolyl)ethenyl]-8-oxo-, (2,2-dimethyl-1-oxopropoxy)methyl ester, (6R,7R)-", "ME 1207", "Cefditoren pivoxil", "Cefditoren pivoxyl", "Meiact", "Spectracef", "CCRIS 7768", "Cefditoren pivaloyloxymethyl ester", "Cefditorin", "Zostum-O", "Cefditran", "Ceftorin"], "SMILES": "C(OCOC(C(C)(C)C)=O)(=O)C=1N2C(C(NC(C(=NOC)C3=CSC(N)=N3)=O)C2=O)SCC1C=CC4=C(C)N=CS4", "physical_data": {"Molecular Weight": "620.72", "Molecular Formula": "C25H28N6O7S3", "Melting Point": "127-129 \u00b0C"}}