{"cas_no": "117449-75-9", "cn_name": "5-CHLORO-2-HYDROXY-6-METHYL-NICOTINIC ACID", "en_name": ["5-Chloro-1,2-dihydro-6-methyl-2-oxo-3-pyridinecarboxylic acid", "3-Pyridinecarboxylic acid, 5-chloro-1,2-dihydro-6-methyl-2-oxo-", "5-Chloro-1,2-dihydro-6-methyl-2-oxo-3-pyridinecarboxylic acid"], "SMILES": "C(O)(=O)C=1C(=O)NC(C)=C(Cl)C1", "physical_data": {"Molecular Weight": "187.58", "Molecular Formula": "C7H6ClNO3", "Melting Point": "291-294 \u00b0C"}}