{"cas_no": "117428-22-5", "cn_name": "\u5576\u6c27\u83cc\u916f", "en_name": ["Picoxystrobin", "Benzeneacetic acid, \u03b1-(methoxymethylene)-2-[[[6-(trifluoromethyl)-2-pyridinyl]oxy]methyl]-, methyl ester, (\u03b1E)-", "Benzeneacetic acid, \u03b1-(methoxymethylene)-2-[[[6-(trifluoromethyl)-2-pyridinyl]oxy]methyl]-, methyl ester, (E)-", "Picoxystrobin", "ZEN 90160", "Acanto", "Acapela", "Aproach"], "SMILES": "C(C(OC)=O)(=COC)C1=C(COC=2N=C(C(F)(F)F)C=CC2)C=CC=C1", "physical_data": {"Molecular Weight": "367.32", "Molecular Formula": "C18H16F3NO4", "Melting Point": "68-69 \u00b0C"}}