{"cas_no": "117572-79-9", "cn_name": "3-\u6eb4-4-\u7532\u6c27\u57fa\u82ef\u7532\u8148", "en_name": ["3-Bromo-4-methoxybenzonitrile", "Benzonitrile, 3-bromo-4-methoxy-", "3-Bromo-4-methoxybenzonitrile", "3-Bromo-4-(methyloxy)benzonitrile"], "SMILES": "C(#N)C1=CC(Br)=C(OC)C=C1", "physical_data": {"Molecular Weight": "212.04", "Molecular Formula": "C8H6BrNO", "Melting Point": "122 \u00b0C"}}