{"cas_no": "117570-53-3", "cn_name": "2,5-\u5df1\u916e\u53ef\u53ef\u78b1", "en_name": ["5,6-Dimethylxanthenone-4-acetic acid", "9H-Xanthene-4-acetic acid, 5,6-dimethyl-9-oxo-", "5,6-Dimethyl-9-oxo-9H-xanthene-4-acetic acid", "5,6-Dimethylxanthenone-4-acetic acid", "NSC 640488", "DMXAA", "AS 1404", "5,6-Dimethyl-9-oxo-9H-xanthen-4-ylacetic acid", "Vadimezan", "ASA 404", "2-(5,6-Dimethyl-9-oxo-9H-xanthen-4-yl)acetic acid", "D5817", "2-(5,6-Dimethyl-9-oxoxanthen-4-yl)acetic acid"], "SMILES": "C(C(O)=O)C1=C2C(C(=O)C=3C(O2)=C(C)C(C)=CC3)=CC=C1", "physical_data": {"Molecular Weight": "282.29", "Molecular Formula": "C17H14O4", "Melting Point": "259-261 \u00b0C"}}