{"cas_no": "1175536-50-1", "cn_name": "(2R,3R)-2-(2,4-\u4e8c\u6c1f\u82ef\u57fa)-1-(1H-1,2,4-\u4e09\u5511-1-\u57fa)-2,3-\u4e01\u4e8c\u9187\u7532\u70f7\u78fa\u9178\u76d0", "en_name": ["2,3-Butanediol, 2-(2,4-difluorophenyl)-1-(1H-1,2,4-triazol-1-yl)-, (2R,3R)-, methanesulfonate (1:1)", "2,3-Butanediol, 2-(2,4-difluorophenyl)-1-(1H-1,2,4-triazol-1-yl)-, (2R,3R)-, methanesulfonate (1:1)"], "SMILES": "S(C)(=O)(=O)O.C(CN1C=NC=N1)(C(C)O)(O)C2=C(F)C=C(F)C=C2", "physical_data": {"Molecular Weight": "", "Molecular Formula": "C12H13F2N3O2.CH4O3S", "Melting Point": "173.5-174.5 \u00b0C"}}