{"cas_no": "1175-06-0", "cn_name": "3\u0392-\u7f9f\u57fa-5\u0391-(1,5-\u4e8c\u7532\u57fa\u5df1\u57fa)\u73af\u620a\u70f7\u4e09\u73af\u5df1\u70f7-6-\u916e", "en_name": ["6-Ketocholestanol", "Cholestan-6-one, 3-hydroxy-, (3\u03b2,5\u03b1)-", "5\u03b1-Cholestan-6-one, 3\u03b2-hydroxy-", "(3\u03b2,5\u03b1)-3-Hydroxycholestan-6-one", "3\u03b2-Hydroxy-5\u03b1-cholestan-6-one", "5\u03b1-Cholestan-3\u03b2-ol-6-one", "6-Ketocholestanol", "YS 164", "6-Oxocholestanol", "NSC 178278"], "SMILES": "CC12C3C(C4C(C)(CC3)C(C(CCCC(C)C)C)CC4)CC(=O)C1CC(O)CC2", "physical_data": {"Molecular Weight": "402.65", "Molecular Formula": "C27H46O2", "Melting Point": "143-144 \u00b0C"}}