{"cas_no": "1176-08-5", "cn_name": "\u67e0\u6aac\u9178\u82ef\u6258\u6c99\u654f", "en_name": ["Phenyltoloxamine citrate", "Ethanamine, N,N-dimethyl-2-[2-(phenylmethyl)phenoxy]-, 2-hydroxy-1,2,3-propanetricarboxylate (1:1)", "Ethylamine, N,N-dimethyl-2-[(\u03b1-phenyl-o-tolyl)oxy]-, citrate (1:1)", "Phenoxadrine citrate", "Phenyltoloxamine citrate", "NIH 10121", "Sinubid", "Mobigesic", "Kutrase", "NSC 148352", "NSC 169860", "2-(2-Benzylphenoxy)-N,N-dimethylethanamine 2-hydroxypropane-1,2,3-tricarboxylate"], "SMILES": "C(CC(O)=O)(CC(O)=O)(C(O)=O)O.C(C1=C(OCCN(C)C)C=CC=C1)C2=CC=CC=C2", "physical_data": {"Molecular Weight": "", "Molecular Formula": "C17H21NO.C6H8O7", "Melting Point": "138-140 \u00b0C"}}