{"cas_no": "117621-64-4", "cn_name": "6-(2-(2-\u6c2f\u82ef\u57fa-4-\u7f9f\u82ef\u57fa)-1,3-\u4e8c\u70f7-5-\u57fa)\u5df1\u70ef\u9178", "en_name": ["rel-(4Z)-6-[(2R,4R,5S)-2-(2-Chlorophenyl)-4-(2-hydroxyphenyl)-1,3-dioxan-5-yl]-4-hexenoic acid", "4-Hexenoic acid, 6-[(2R,4R,5S)-2-(2-chlorophenyl)-4-(2-hydroxyphenyl)-1,3-dioxan-5-yl]-, (4Z)-rel-", "4-Hexenoic acid, 6-[2-(2-chlorophenyl)-4-(2-hydroxyphenyl)-1,3-dioxan-5-yl]-, [2\u03b1,4\u03b1,5\u03b1(Z)]-", "rel-(4Z)-6-[(2R,4R,5S)-2-(2-Chlorophenyl)-4-(2-hydroxyphenyl)-1,3-dioxan-5-yl]-4-hexenoic acid", "ICI 192605", "ICI 191606"], "SMILES": "C(C=CCCC(O)=O)C1C(OC(OC1)C2=C(Cl)C=CC=C2)C3=C(O)C=CC=C3", "physical_data": {"Molecular Weight": "402.87", "Molecular Formula": "C22H23ClO5", "Melting Point": "124-126 \u00b0C"}}