{"cas_no": "117671-01-9", "cn_name": "3-(\u4e59\u78fa\u9170\u57fa)-2-\u5421\u5576\u78fa\u9170\u80fa", "en_name": ["3-(Ethylsulfonyl)-2-pyridinesulfonamide", "2-Pyridinesulfonamide, 3-(ethylsulfonyl)-", "3-(Ethylsulfonyl)-2-pyridinesulfonamide", "2-(Aminosulfonyl)-3-(ethylsulfonyl)pyridine"], "SMILES": "S(CC)(=O)(=O)C1=C(S(N)(=O)=O)N=CC=C1", "physical_data": {"Molecular Weight": "250.30", "Molecular Formula": "C7H10N2O4S2", "Melting Point": "211-212.5 \u00b0C"}}