{"cas_no": "117718-60-2", "cn_name": "\u567b\u8349\u5b9a", "en_name": ["Thiazopyr", "3-Pyridinecarboxylic acid, 2-(difluoromethyl)-5-(4,5-dihydro-2-thiazolyl)-4-(2-methylpropyl)-6-(trifluoromethyl)-, methyl ester", "Thiazopyr", "Thiazophyr", "MON 13200", "MON 13211", "Visor"], "SMILES": "C(C(C)C)C=1C(=C(C(F)(F)F)N=C(C(F)F)C1C(OC)=O)C2=NCCS2", "physical_data": {"Molecular Weight": "396.38", "Molecular Formula": "C16H17F5N2O2S", "Melting Point": "77.3-79.1 \u00b0C", "Density": "1.3777 g/cm\u00b3 @ Temp: 25 \u00b0C"}}