{"cas_no": "117704-25-3", "cn_name": "\u591a\u62c9\u83cc\u7d20", "en_name": ["Doramectin", "Avermectin A1a, 25-cyclohexyl-5-O-demethyl-25-de(1-methylpropyl)-", "Spiro[11,15-methano-2H,13H,17H-furo[4,3,2-pq][2,6]benzodioxacyclooctadecin-13,2\u2032-[2H]pyran], avermectin A1a deriv.", "25-Cyclohexyl-5-O-demethyl-25-de(1-methylpropyl)avermectin A1a", "Doramectin", "UK 67994", "25-Cyclohexylavermectin B1", "Dectomax", "L 701023", "Doramectin A1a", "Treo ACE", "Treo Ace Injetavel"], "SMILES": "OC12C3OCC1=CC=CC(C)C(OC4CC(OC)C(OC5CC(OC)C(O)C(C)O5)C(C)O4)C(C)=CCC6CC(OC(=O)C2C=C(C)C3O)CC7(OC(C(C)C=C7)C8CCCCC8)O6", "physical_data": {"Molecular Weight": "899.11", "Molecular Formula": "C50H74O14", "Melting Point": "116-119 \u00b0C"}}