{"cas_no": "1177-71-5", "cn_name": "\u62c9\u8096\u7682\u82f7\u5143", "en_name": ["Laxogenin", "Spirostan-6-one, 3-hydroxy-, (3\u03b2,5\u03b1,25R)-", "5\u03b1-Spirostan-6-one, 3\u03b2-hydroxy-", "Laxogenin", "Spiro[8H-naphth[2\u2032,1\u2032:4,5]indeno[2,1-b]furan-8,2\u2032-[2H]pyran], spirostan-6-one deriv.", "(3\u03b2,5\u03b1,25R)-3-Hydroxyspirostan-6-one", "Laxogenine", "6-Oxotigogenin", "(25R)-3\u03b2-Hydroxy-5\u03b1-spirostan-6-one"], "SMILES": "CC1C2(OC3C1C4(C)C(C3)C5C(CC4)C6(C)C(C(=O)C5)CC(O)CC6)CCC(C)CO2", "physical_data": {"Molecular Weight": "430.62", "Molecular Formula": "C27H42O4", "Melting Point": "210-212 \u00b0C"}}