{"cas_no": "1177-87-3", "cn_name": "\u918b\u9178\u5730\u585e\u7c73\u677e", "en_name": ["Dexamethasone acetate", "Pregna-1,4-diene-3,20-dione, 21-(acetyloxy)-9-fluoro-11,17-dihydroxy-16-methyl-, (11\u03b2,16\u03b1)-", "Pregna-1,4-diene-3,20-dione, 9-fluoro-11\u03b2,17,21-trihydroxy-16\u03b1-methyl-, 21-acetate", "(11\u03b2,16\u03b1)-21-(Acetyloxy)-9-fluoro-11,17-dihydroxy-16-methylpregna-1,4-diene-3,20-dione", "Dex-Cortidelt acetate", "16\u03b1-Methyl-9\u03b1-fluoroprednisolone 21-acetate", "Dexamethasone 21-acetate", "Fortecortin (crystal suspension)", "Dexamethasone acetate", "Fortecortin", "Decadron LA", "Dectancyl", "Dexa-Cortisyl", "Dalalone LA", "Decadronal", "Dalalone DP", "NSC 39471", "Prednitin"], "SMILES": "CC12C(C3C(F)(C4(C)C(CC3)=CC(=O)C=C4)C(O)C1)CC(C)C2(C(COC(C)=O)=O)O", "physical_data": {"Molecular Weight": "434.50", "Molecular Formula": "C24H31FO6", "Melting Point": "263 \u00b0C"}}