{"cas_no": "117846-58-9", "cn_name": "3,5-\u4e8c\u7532\u57fa-2,6-\u4e8c\u6eb4\u5421\u5576", "en_name": ["2,6-Dibromo-3,5-dimethylpyridine", "Pyridine, 2,6-dibromo-3,5-dimethyl-", "2,6-Dibromo-3,5-dimethylpyridine", "2,6-Dibromo-3,5-lutidine"], "SMILES": "CC1=C(Br)N=C(Br)C(C)=C1", "physical_data": {"Molecular Weight": "264.95", "Molecular Formula": "C7H7Br2N", "Melting Point": "107-108 \u00b0C"}}