{"cas_no": "117827-79-9", "cn_name": "\u9f50\u5e15\u7279\u7f57", "en_name": ["Zilpaterol", "Imidazo[4,5,1-jk][1]benzazepin-2(1H)-one, 4,5,6,7-tetrahydro-7-hydroxy-6-[(1-methylethyl)amino]-, (6R,7R)-rel-", "Imidazo[4,5,1-jk][1]benzazepin-2(1H)-one, 4,5,6,7-tetrahydro-7-hydroxy-6-[(1-methylethyl)amino]-, trans-(\u00b1)-", "rel-(6R,7R)-4,5,6,7-Tetrahydro-7-hydroxy-6-[(1-methylethyl)amino]imidazo[4,5,1-jk][1]benzazepin-2(1H)-one", "RU 42173", "Zilpaterol", "trans-(\u00b1)-Zilpaterol"], "SMILES": "OC1C2=C3N(C(=O)NC3=CC=C2)CCC1NC(C)C", "physical_data": {"Molecular Weight": "261.32", "Molecular Formula": "C14H19N3O2", "Melting Point": "177 \u00b0C (decomp)"}}