{"cas_no": "1178-24-1", "cn_name": "3,5,6,7,8,3',4'-\u4e03\u7532\u6c27\u57fa\u9ec4\u916e", "en_name": ["3,5,6,7,8,3\u2032,4\u2032-Heptamethoxyflavone", "4H-1-Benzopyran-4-one, 2-(3,4-dimethoxyphenyl)-3,5,6,7,8-pentamethoxy-", "Flavone, 3,3\u2032,4\u2032,5,6,7,8-heptamethoxy-", "2-(3,4-Dimethoxyphenyl)-3,5,6,7,8-pentamethoxy-4H-1-benzopyran-4-one", "3,5,6,7,8,3\u2032,4\u2032-Heptamethoxyflavone", "3,3\u2032,4\u2032,5,6,7,8-Heptamethoxyflavone", "3\u2032,4\u2032,3,5,6,7,8-Heptamethoxyflavone", "NSC 618928", "3-Methoxynobiletin", "3,5,6,7,8,3\u2032,4\u2032-Heptamethphoxyflavone", "2-(3,4-Dimethoxyphenyl)-3,5,6,7,8-pentamethoxychromen-4-one"], "SMILES": "O(C)C1=C2C(=C(OC)C(OC)=C1OC)C(=O)C(OC)=C(O2)C3=CC(OC)=C(OC)C=C3", "physical_data": {"Molecular Weight": "432.42", "Molecular Formula": "C22H24O9", "Melting Point": "129-131 \u00b0C"}}