{"cas_no": "117857-93-9", "cn_name": "(2S,1'S,2'S)-2-(\u7fa7\u57fa\u73af\u4e19\u57fa)\u7518\u6c28\u9178", "en_name": ["(\u03b1S,1S,2S)-\u03b1-Amino-2-carboxycyclopropaneacetic acid", "Cyclopropaneacetic acid, \u03b1-amino-2-carboxy-, (\u03b1S,1S,2S)-", "Cyclopropaneacetic acid, \u03b1-amino-2-carboxy-, [1S-[1\u03b1(R*),2\u03b2]]-", "(\u03b1S,1S,2S)-\u03b1-Amino-2-carboxycyclopropaneacetic acid", "(2S,3S,4S)-\u03b1-(Carboxycyclopropyl)glycine", "(2S,3S,4S)-2-(Carboxycyclopropyl)glycine", "L-CCG I", "L-CCG-I", "(2S,1\u2032S,2\u2032S)-2-(Carboxycyclopropyl)glycine"], "SMILES": "C(C(O)=O)(N)C1C(C(O)=O)C1", "physical_data": {"Molecular Weight": "159.14", "Molecular Formula": "C6H9NO4", "Melting Point": "243-245 \u00b0C (decomp)"}}