{"cas_no": "117860-56-7", "cn_name": "5-\u7532\u6c27\u7532\u9170\u57fa-1-\u7532\u57fa-3-\u7fa7\u9178\u5421\u5511", "en_name": ["5-Methyl 1-methyl-1H-pyrazole-3,5-dicarboxylate", "1H-Pyrazole-3,5-dicarboxylic acid, 1-methyl-, 5-methyl ester", "5-Methyl 1-methyl-1H-pyrazole-3,5-dicarboxylate", "5-(Methoxycarbonyl)-1-methyl-1H-pyrazole-3-carboxylic acid"], "SMILES": "C(OC)(=O)C1=CC(C(O)=O)=NN1C", "physical_data": {"Molecular Weight": "184.15", "Molecular Formula": "C7H8N2O4", "Melting Point": "172-172.5 \u00b0C"}}