{"cas_no": "117977-21-6", "cn_name": "2-[[[4-(3-\u7532\u6c27\u57fa\u4e19\u6c27\u57fa)-3-\u7532\u57fa\u5421\u5576-2-\u57fa]\u7532\u57fa]\u786b\u4ee3]-1H-\u82ef\u5e76\u54aa\u5511", "en_name": ["Rabeprazole-thioether", "1H-Benzimidazole, 2-[[[4-(3-methoxypropoxy)-3-methyl-2-pyridinyl]methyl]thio]-", "2-[[[4-(3-Methoxypropoxy)-3-methyl-2-pyridinyl]methyl]thio]-1H-benzimidazole", "H 295/43", "2-[[[3-Methyl-4-(3-methoxypropoxy)-2-pyridyl]methyl]thio]-1H-benzimidazole", "Rabeprazole-thioether", "2-[((4-(3-Methoxypropoxy)-3-methylpyridine-2-yl)methyl)thio]-1H-benzimidazole", "2-(((4-(3-Methoxypropoxy)-3-methylpyridin-2-yl)methyl)thio)-1H-benzo[d]imidazole", "2-[[4-(3-Methoxypropoxy)-3-methylpyridin-2-yl]methylsulfanyl]-1H-benzimidazole"], "SMILES": "S(CC1=C(C)C(OCCCOC)=CC=N1)C=2NC=3C(N2)=CC=CC3", "physical_data": {"Molecular Weight": "343.44", "Molecular Formula": "C18H21N3O2S", "Melting Point": "111-112 \u00b0C"}}