{"cas_no": "117976-90-6", "cn_name": "\u96f7\u8d1d\u62c9\u5511\u94a0", "en_name": ["Rabeprazole sodium", "1H-Benzimidazole, 2-[[[4-(3-methoxypropoxy)-3-methyl-2-pyridinyl]methyl]sulfinyl]-, sodium salt (1:1)", "1H-Benzimidazole, 2-[[[4-(3-methoxypropoxy)-3-methyl-2-pyridinyl]methyl]sulfinyl]-, sodium salt", "E 3810", "LY 307640 sodium", "Rabeprazole sodium", "Pariprazole", "Pariet", "Aciphex", "2-[[[4-(3-Methoxypropoxy)-3-methylpyridin-2-yl]methyl]sulfinyl]-1H-benzimidazole sodium salt", "Rabicip", "Pepcia", "Razo"], "SMILES": "S(CC1=C(C)C(OCCCOC)=CC=N1)(=O)C=2NC=3C(N2)=CC=CC3.[Na]", "physical_data": {"Molecular Weight": "", "Molecular Formula": "C18H21N3O3S.Na", "Melting Point": "140-141 \u00b0C (decomp)"}}