{"cas_no": "117976-89-3", "cn_name": "\u96f7\u8d1d\u62c9\u5511", "en_name": ["Rabeprazole", "1H-Benzimidazole, 2-[[[4-(3-methoxypropoxy)-3-methyl-2-pyridinyl]methyl]sulfinyl]-", "2-[[[4-(3-Methoxypropoxy)-3-methyl-2-pyridinyl]methyl]sulfinyl]-1H-benzimidazole", "2-[[[4-(3-Methoxypropoxy)-3-methyl-2-pyridyl]methyl]sulfinyl]benzimidazole", "Rabeprazole", "LY 307640", "2-[[[3-Methyl-4-(3-methoxypropoxy)-2-pyridyl]methyl]sulfinyl]-1H-benzimidazole", "Pariets", "2-[[[4-(3-Methoxypropoxy)-3-methyl-2-pyridyl]methyl]sulfinyl]-1H-benzimidazole", "2-[[[4-(3-Methoxypropoxy)-3-methylpyridin-2-yl]methyl]sulfinyl]-1H-benzimidazole", "Habeprazole", "(\u00b1)-Rabeprazole", "2-[[[3-Methyl-4-(3-methoxypropoxy)-2-pyridinyl]methyl]sulfinyl]-1H-benzimidazole", "Rabeloc", "Rabiral", "Newprazole", "Rabemax", "Dexrabeprazol", "2-[4-(3-Methoxy-propoxy)-3-methyl-pyridin-2-ylmethanesulfinyl]-1H-benzoimidazole", "MeSH ID: D064750"], "SMILES": "S(CC1=C(C)C(OCCCOC)=CC=N1)(=O)C=2NC=3C(N2)=CC=CC3", "physical_data": {"Molecular Weight": "359.44", "Molecular Formula": "C18H21N3O3S", "Melting Point": "99-100 \u00b0C (decomp)"}}