{"cas_no": "117946-91-5", "cn_name": "N-\u4e59\u9170-2-\u82c4\u57fa\u8272\u80fa", "en_name": ["Luzindole", "Acetamide, N-[2-[2-(phenylmethyl)-1H-indol-3-yl]ethyl]-", "N-[2-[2-(Phenylmethyl)-1H-indol-3-yl]ethyl]acetamide", "Luzindole", "N 0774", "2-Benzyl-N-acetyltryptamine"], "SMILES": "C(CNC(C)=O)C=1C=2C(NC1CC3=CC=CC=C3)=CC=CC2", "physical_data": {"Molecular Weight": "292.37", "Molecular Formula": "C19H20N2O", "Melting Point": "103-104 \u00b0C"}}