{"cas_no": "118-58-1", "cn_name": "\u67f3\u9178\u82c4\u916f", "en_name": ["Benzyl salicylate", "Benzoic acid, 2-hydroxy-, phenylmethyl ester", "Salicylic acid, benzyl ester", "Benzyl o-hydroxybenzoate", "Benzyl salicylate", "Benzyl 2-hydroxybenzoate", "NSC 6647"], "SMILES": "C(OCC1=CC=CC=C1)(=O)C2=C(O)C=CC=C2", "physical_data": {"Molecular Weight": "228.24", "Molecular Formula": "C14H12O3", "Boiling Point": "320 \u00b0C", "Melting Point": "130.5 \u00b0C", "Density": "1.1751 g/cm\u00b3 @ Temp: 25 \u00b0C"}}