{"cas_no": "118-34-3", "cn_name": "\u7d2b\u4e01\u9999\u915a\u7519(\u523a\u4e94\u52a0\u7519B)", "en_name": ["Syringin", "\u03b2-D-Glucopyranoside, 4-[(1E)-3-hydroxy-1-propen-1-yl]-2,6-dimethoxyphenyl", "Syringin", "\u03b2-D-Glucopyranoside, 4-(3-hydroxy-1-propenyl)-2,6-dimethoxyphenyl, (E)-", "\u03b2-D-Glucopyranoside, 4-[(1E)-3-hydroxy-1-propenyl]-2,6-dimethoxyphenyl", "4-[(1E)-3-Hydroxy-1-propen-1-yl]-2,6-dimethoxyphenyl \u03b2-D-glucopyranoside", "Ligustrin", "Lilacin", "Methoxyconiferine", "Syringoside", "Eleutheroside B", "Magnolenin", "Ilexanthin A", "Siringin", "NSC 287441", "Sinapyl alcohol 4-O-glucoside", "Sinapyl alcohol \u03b2-glucoside", "(E)-Sinapyl alcohol 4-glucoside", "(2R,3S,4S,5R,6S)-2-(Hydroxymethyl)-6-[4-(3-hydroxyprop-1-enyl)-2,6-dimethoxyphenoxy] oxane-3,4,5-triol", "Syringin B"], "SMILES": "O(C1=C(OC)C=C(C=CCO)C=C1OC)C2OC(CO)C(O)C(O)C2O", "physical_data": {"Molecular Weight": "372.37", "Molecular Formula": "C17H24O9", "Melting Point": "189-190 \u00b0C"}}