{"cas_no": "118-82-1", "cn_name": "\u6297\u6c27\u5242 702", "en_name": ["4,4\u2032-Methylenebis[2,6-di-tert-butylphenol]", "Phenol, 4,4\u2032-methylenebis[2,6-bis(1,1-dimethylethyl)-", "Phenol, 4,4\u2032-methylenebis[2,6-di-tert-butyl-", "4,4\u2032-Methylenebis[2,6-bis(1,1-dimethylethyl)phenol", "Ionox 220", "Bis(3,5-di-tert-butyl-4-hydroxyphenyl)methane", "Di(3,5-di-tert-butyl-4-hydroxyphenyl)methane", "Ionox 220 Antioxidant", "3,3\u2032,5,5\u2032-Tetra-tert-butyl-4,4\u2032-dihydroxydiphenylmethane", "Ethyl 702", "Binox M", "MB 1 (antioxidant)", "4,4\u2032-Methylenebis[2,6-di-tert-butylphenol]", "Antioxidant E 702", "Bis(4-hydroxy-3,5-di-tert-butylphenyl)methane", "E 702", "MB 1", "LZ-MB 1", "Ethyl 728", "Antioxidant 702", "Antioxidant 728", "Ethanox 702", "Ethyl Antioxidant 702", "Ethyl Antioxidant 728", "Vanlube DTB", "H 301/92", "Hitec 4702", "NSC 30551", "Ionol 220", "Antioxidant 4426", "Agidol 23", "Ethanox 4702", "Antioxidant T 511", "AO 4426", "4,4\u2032-Methylene-bis-2,6-tert-butylphenol", "T 511", "2,6-Di-tert-butyl-4-[(3,5-di-tert-butyl-4-hydroxyphenyl)methyl]phenol", "2,6-Ditert-butyl-4-[(3,5-ditert-butyl-4-hydroxyphenyl)methyl]phenol"], "SMILES": "C(C)(C)(C)C1=C(O)C(C(C)(C)C)=CC(CC2=CC(C(C)(C)C)=C(O)C(C(C)(C)C)=C2)=C1", "physical_data": {"Molecular Weight": "424.66", "Molecular Formula": "C29H44O2", "Melting Point": "154-155 \u00b0C"}}