{"cas_no": "118-78-5", "cn_name": "2-\u6c28\u57fa\u5df4\u6bd4\u571f\u9178", "en_name": ["5-Amino-2,4,6(1H,3H,5H)-pyrimidinetrione", "2,4,6(1H,3H,5H)-Pyrimidinetrione, 5-amino-", "Barbituric acid, 5-amino-", "Uramil", "2,4,6-Pyrimidinetriol, 5-amino-", "5-Amino-2,4,6(1H,3H,5H)-pyrimidinetrione", "5-Aminobarbituric acid", "Dialuramide", "5-Amino-2,4,6-pyrimidinetriol", "Murexan", "5-Amino-2,4,6-trihydroxypyrimidine", "5-Amino-6-hydroxy-2,4(1H,3H)-pyrimidinedione", "Aminobarbituric acid", "NSC 264287", "NSC 3971"], "SMILES": "NC1C(=O)NC(=O)NC1=O", "physical_data": {"Molecular Weight": "143.10", "Molecular Formula": "C4H5N3O3", "Melting Point": "&gt;400 \u00b0C"}}