{"cas_no": "118-10-5", "cn_name": "\u8f9b\u53ef\u5b81", "en_name": ["Cinchonine", "Cinchonan-9-ol, (9S)-", "Cinchonine", "(9S)-Cinchonan-9-ol", "d-Cinchonine", "(+)-Cinchonine", "(8R,9S)-Cinchonine", "NSC 6176"], "SMILES": "C(O)(C1N2CC(C=C)C(C1)CC2)C=3C4=C(N=CC3)C=CC=C4", "physical_data": {"Molecular Weight": "294.39", "Molecular Formula": "C19H22N2O", "Melting Point": "265 \u00b0C"}}