{"cas_no": "118-46-7", "cn_name": "1-\u6c28\u57fa-7-\u8418\u915a", "en_name": ["8-Amino-2-naphthol", "2-Naphthalenol, 8-amino-", "2-Naphthol, 8-amino-", "8-Amino-2-naphthalenol", "1-Amino-7-hydroxynaphthalene", "8-Amino-2-naphthol", "1-Amino-7-naphthol", "7-Hydroxy-1-naphthylamine", "NSC 60277", "NSC 7939"], "SMILES": "NC=1C2=C(C=CC(O)=C2)C=CC1", "physical_data": {"Molecular Weight": "159.18", "Molecular Formula": "C10H9NO", "Melting Point": "206 \u00b0C"}}