{"cas_no": "118-88-7", "cn_name": "4-\u6c28\u57fa\u7532\u82ef-2-\u78fa\u9178", "en_name": ["5-Amino-2-methylbenzenesulfonic acid", "Benzenesulfonic acid, 5-amino-2-methyl-", "o-Toluenesulfonic acid, 5-amino-", "5-Amino-2-methylbenzenesulfonic acid", "5-Amino-2-methyl-1-sulfobenzene", "4-Amino-2-sulfotoluene", "5-Amino-o-toluenesulfonic acid", "4-Methyl-3-sulfoaniline", "p-Toluidine-o-sulfonic acid", "3-Amino-6-methylbenzenesulfonic acid", "3-Sulfo-4-methylaniline", "4-Aminotoluene-2-sulfonic acid", "4-Toluidine-3-sulfonic acid", "1-Amino-4-methylbenzene-3-sulfonic acid", "NSC 22958", "NSC 5586", "4-Methylaniline-3-sulfonic acid", "2-Methyl-5-amino benzene sulfonic acid"], "SMILES": "S(=O)(=O)(O)C1=C(C)C=CC(N)=C1", "physical_data": {"Molecular Weight": "187.22", "Molecular Formula": "C7H9NO3S", "Melting Point": "&gt;300 \u00b0C"}}