{"cas_no": "118-97-8", "cn_name": "4-\u6c2f-3,5-\u4e8c\u785d\u57fa\u82ef\u7532\u9178", "en_name": ["4-Chloro-3,5-dinitrobenzoic acid", "Benzoic acid, 4-chloro-3,5-dinitro-", "4-Chloro-3,5-dinitrobenzoic acid", "3,5-Dinitro-4-chlorobenzoic acid", "NSC 76583", "4-Chloro-3,5-dinitrobenzenecarboxylic acid"], "SMILES": "N(=O)(=O)C1=C(Cl)C(N(=O)=O)=CC(C(O)=O)=C1", "physical_data": {"Molecular Weight": "246.56", "Molecular Formula": "C7H3ClN2O6", "Boiling Point": "161.5 \u00b0C", "Melting Point": "161-163 \u00b0C"}}