{"cas_no": "118-41-2", "cn_name": "3,4,5-\u4e09\u7532\u6c27\u57fa\u82ef\u7532\u9178", "en_name": ["3,4,5-Trimethoxybenzoic acid", "Benzoic acid, 3,4,5-trimethoxy-", "3,4,5-Trimethoxybenzoic acid", "Eudesmic acid", "Gallic acid trimethyl ether", "Tri-O-methylgallic acid", "Trimethylgallic acid", "NSC 2525"], "SMILES": "O(C)C1=C(OC)C=C(C(O)=O)C=C1OC", "physical_data": {"Molecular Weight": "212.20", "Molecular Formula": "C10H12O5", "Melting Point": "172.3 \u00b0C"}}