{"cas_no": "118-72-9", "cn_name": "2,6-\u4e8c\u7532\u57fa\u5def\u57fa\u82ef\u915a", "en_name": ["2,6-Dimethylbenzenethiol", "Benzenethiol, 2,6-dimethyl-", "2,6-Xylenethiol", "2,6-Dimethylbenzenethiol", "2,6-Dimethylthiophenol", "2,6-Dimethylphenylthiol", "2,6-Xylyl mercaptan"], "SMILES": "SC1=C(C)C=CC=C1C", "physical_data": {"Molecular Weight": "138.23", "Molecular Formula": "C8H10S", "Boiling Point": "91 \u00b0C @ Press: 50 Torr", "Density": "1.038 g/cm\u00b3 @ Temp: 25 \u00b0C"}}