{"cas_no": "118-93-4", "cn_name": "2'-\u7f9f\u57fa\u82ef\u4e59\u916e", "en_name": ["2\u2032-Hydroxyacetophenone", "Ethanone, 1-(2-hydroxyphenyl)-", "Acetophenone, 2\u2032-hydroxy-", "Acetophenone, o-hydroxy-", "1-(2-Hydroxyphenyl)ethanone", "o-Hydroxyacetophenone", "2\u2032-Hydroxyacetophenone", "o-Acetylphenol", "2-Acetylphenol", "o-Hydroxyphenyl methyl ketone", "2-Hydroxyphenyl methyl ketone", "2-Hydroxyacetophenone", "Methyl 2-hydroxyphenyl ketone", "2-Hydroxyphenylethanone", "NSC 16933", "NSC 44452", "NSC 83568", "NSC 9263", "o-Hydroxyhypnone", "1-(6-Hydroxyphenyl)ethanone", "1-(2-Hydroxyphenyl)ethan-1-one", "1-Acetyl-2-hydroxybenzene"], "SMILES": "C(C)(=O)C1=C(O)C=CC=C1", "physical_data": {"Molecular Weight": "136.15", "Molecular Formula": "C8H8O2", "Boiling Point": "218 \u00b0C", "Melting Point": "5 \u00b0C", "Density": "1.1326 g/cm\u00b3 @ Temp: 20 \u00b0C"}}