{"cas_no": "118-04-7", "cn_name": "2-(3-\u6c28\u57fa-4-\u6c2f\u82ef\u7532\u9170)\u82ef\u7532\u9178", "en_name": ["2-(3-Amino-4-chlorobenzoyl)benzoic acid", "Benzoic acid, 2-(3-amino-4-chlorobenzoyl)-", "Benzoic acid, o-(3-amino-4-chlorobenzoyl)-", "2-(3-Amino-4-chlorobenzoyl)benzoic acid", "o-(3-Amino-4-chlorobenzoyl)benzoic acid", "3\u2032-Amino-4\u2032-chloro-o-benzoylbenzoic acid", "4-Chloro-3-aminobenzophenone-2\u2032-carboxylic acid", "2-[(3-Amino-4-chlorophenyl)carbonyl]benzoic acid", "NSC 74496"], "SMILES": "C(=O)(C1=C(C(O)=O)C=CC=C1)C2=CC(N)=C(Cl)C=C2", "physical_data": {"Molecular Weight": "275.69", "Molecular Formula": "C14H10ClNO3", "Melting Point": "181.5-182.0 \u00b0C"}}