{"cas_no": "118-79-6", "cn_name": "\u4e09\u6eb4\u82ef\u915a", "en_name": ["2,4,6-Tribromophenol", "Phenol, 2,4,6-tribromo-", "2,4,6-Tribromophenol", "Bromol", "Bromkal Pur 3", "Flammex 3BP", "1,3,5-Tribromo-2-hydroxybenzene", "NSC 2136", "PH 73"], "SMILES": "OC1=C(Br)C=C(Br)C=C1Br", "physical_data": {"Molecular Weight": "330.80", "Molecular Formula": "C6H3Br3O", "Boiling Point": "286 \u00b0C", "Melting Point": "94-96 \u00b0C", "Density": "2.55 g/cm\u00b3 @ Temp: 20 \u00b0C"}}