{"cas_no": "118-96-7", "cn_name": "2,4,6-\u4e09\u785d\u57fa\u7532\u82ef", "en_name": ["2,4,6-Trinitrotoluene", "Benzene, 2-methyl-1,3,5-trinitro-", "Toluene, 2,4,6-trinitro-", "2-Methyl-1,3,5-trinitrobenzene", "TNT", "Tolite", "sym-Trinitrotoluene", "Trinitrotoluene", "sym-Trinitrotoluol", "Trotyl", "\u03b1-TNT", "2,4,6-Trinitrotoluene", "Tritol", "Tolit", "Trotyl oil", "1-Methyl-2,4,6-trinitrobenzene", "Tritol (explosive)", "Gradetol", "4-Methyl-1,3,5-trinitrobenzene", "NSC 36949", "MeSH ID: D014303"], "SMILES": "N(=O)(=O)C1=C(C)C(N(=O)=O)=CC(N(=O)=O)=C1", "physical_data": {"Molecular Weight": "227.13", "Molecular Formula": "C7H5N3O6", "Boiling Point": "335-340 \u00b0C", "Melting Point": "80.1 \u00b0C", "Density": "1.654 g/cm\u00b3 @ Temp: 20 \u00b0C"}}