{"cas_no": "118-92-3", "cn_name": "\u90bb\u6c28\u57fa\u82ef\u7532\u9178", "en_name": ["Anthranilic acid", "Benzoic acid, 2-amino-", "Anthranilic acid", "2-Aminobenzoic acid", "o-Aminobenzoic acid", "o-Carboxyaniline", "2-Carboxyaniline", "Vitamin L1", "o-Anthranilic acid", "\u03b1-Aminobenzoic acid", "NSC 144", "NSC 40929", "2-Carboxyphenylamine", "1-Aminobenzene-2-carboxylic acid", "2-Aminobenzenecarboxylic acid"], "SMILES": "C(O)(=O)C1=C(N)C=CC=C1", "physical_data": {"Molecular Weight": "137.14", "Molecular Formula": "C7H7NO2", "Boiling Point": "183 \u00b0C @ Press: 10 Torr", "Melting Point": "144-146 \u00b0C", "Density": "1.412 g/cm\u00b3 @ Temp: 20 \u00b0C"}}