{"cas_no": "118-44-5", "cn_name": "N-\u4e59\u57fa-1-\u8418\u80fa", "en_name": ["N-Ethyl-1-naphthalenamine", "1-Naphthalenamine, N-ethyl-", "1-Naphthylamine, N-ethyl-", "N-Ethyl-1-naphthalenamine", "Ethyl-\u03b1-naphthylamine", "N-Ethyl-\u03b1-naphthylamine", "N-Ethyl-1-naphthylamine", "1-(Ethylamino)naphthalene", "N-Ethyl-1-aminonaphthalene", "NSC 8636"], "SMILES": "N(CC)C=1C2=C(C=CC1)C=CC=C2", "physical_data": {"Molecular Weight": "171.24", "Molecular Formula": "C12H13N", "Boiling Point": "305 \u00b0C", "Melting Point": "164-165 \u00b0C (decomp)"}}