{"cas_no": "118-42-3", "cn_name": "\u7f9f\u57fa\u6c2f\u55b9", "en_name": ["Hydroxychloroquine", "Ethanol, 2-[[4-[(7-chloro-4-quinolinyl)amino]pentyl]ethylamino]-", "Ethanol, 2-[[4-[(7-chloro-4-quinolyl)amino]pentyl]ethylamino]-", "2-[[4-[(7-Chloro-4-quinolinyl)amino]pentyl]ethylamino]ethanol", "WIN 1258", "7-Chloro-4-[4-(N-ethyl-N-\u03b2-hydroxyethylamino)-1-methylbutylamino]quinoline", "7-Chloro-4-[4-[ethyl(2-hydroxyethyl)amino]-1-methylbutylamino]quinoline", "7-Chloro-4-[5-(N-ethyl-N-2-hydroxyethylamino)-2-pentyl]aminoquinoline", "Hydroxychloroquine", "Oxychlorochin", "Win 1258-2", "Racemic Hydroxychloroquine", "(\u00b1)-Hydroxychloroquine", "Oxichloroquine", "Oxychloroquine", "2-([4-[(7-Chloroquinolin-4-yl)amino]pentyl](ethyl)amino)ethan-1-ol", "MeSH ID: D006886"], "SMILES": "N(C(CCCN(CCO)CC)C)C=1C2=C(N=CC1)C=C(Cl)C=C2", "physical_data": {"Molecular Weight": "335.87", "Molecular Formula": "C18H26ClN3O", "Melting Point": "90 \u00b0C"}}