{"cas_no": "118-70-7", "cn_name": "4,5,6-\u4e09\u6c28\u57fa\u5627\u5576", "en_name": ["4,5,6-Pyrimidinetriamine", "4,5,6-Pyrimidinetriamine", "Pyrimidine, 4,5,6-triamino-", "4,5,6-Triaminopyrimidine", "NSC 145059"], "SMILES": "NC=1C(N)=NC=NC1N", "physical_data": {"Molecular Weight": "125.13", "Molecular Formula": "C4H7N5", "Melting Point": "257 \u00b0C (decomp)"}}