{"cas_no": "118-74-1", "cn_name": "\u516d\u6c2f\u82ef", "en_name": ["Hexachlorobenzene", "Benzene, 1,2,3,4,5,6-hexachloro-", "Benzene, hexachloro-", "1,2,3,4,5,6-Hexachlorobenzene", "Bunt-cure", "Bunt-no-more", "Anticarie", "HCB", "Hexachlorobenzene", "Julin's carbon chloride", "No Bunt", "No Bunt 40", "No Bunt 80", "No Bunt Liquid", "Perchlorobenzene", "Sanocide", "Amatin", "Co-op Hexa", "Pentachlorophenyl chloride", "Snieciotox", "Zaprawa nasienna sneciotox", "HCB (pesticide)", "NSC 9243", "BHC", "MeSH ID: D006581"], "SMILES": "ClC1=C(Cl)C(Cl)=C(Cl)C(Cl)=C1Cl", "physical_data": {"Molecular Weight": "284.78", "Molecular Formula": "C6Cl6", "Boiling Point": "325 \u00b0C", "Melting Point": "231.8 \u00b0C", "Density": "2.044 g/cm\u00b3 @ Temp: 23 \u00b0C"}}