{"cas_no": "118-61-6", "cn_name": "\u6c34\u6768\u9178\u4e59\u916f", "en_name": ["Ethyl salicylate", "Benzoic acid, 2-hydroxy-, ethyl ester", "Salicylic acid, ethyl ester", "Ethyl o-hydroxybenzoate", "Ethyl salicylate", "Salicylic ether", "Sal Ethyl", "Ethyl 2-hydroxybenzoate", "Mesotol", "Salotan", "o-(Ethoxycarbonyl)phenol", "2-Ethoxycarbonylphenol", "2-Hydroxybenzoic acid ethyl ester", "NSC 8209", "2-Carboethoxyphenol"], "SMILES": "C(OCC)(=O)C1=C(O)C=CC=C1", "physical_data": {"Molecular Weight": "166.17", "Molecular Formula": "C9H10O3", "Boiling Point": "232.5 \u00b0C", "Melting Point": "1 \u00b0C", "Density": "1.1299 g/cm\u00b3 @ Temp: 20 \u00b0C"}}