{"cas_no": "118-83-2", "cn_name": "5-\u6c2f-2-\u785d\u57fa\u4e09\u6c1f\u7532\u82ef", "en_name": ["5-Chloro-2-nitrobenzotrifluoride", "Benzene, 4-chloro-1-nitro-2-(trifluoromethyl)-", "Toluene, 5-chloro-\u03b1,\u03b1,\u03b1-trifluoro-2-nitro-", "4-Chloro-1-nitro-2-(trifluoromethyl)benzene", "4-Chloro-2-(trifluoromethyl)nitrobenzene", "5-Chloro-2-nitrobenzotrifluoride", "5-Chloro-2-nitro(trifluoromethyl)benzene", "5-Chloro-2-nitro-1-(trifluoromethyl)benzene", "5-Chloro-\u03b1,\u03b1,\u03b1-trifluoro-2-nitrotoluene", "2-Nitro-5-chlorobenzotrifluoride", "4-Nitro-3-trifluoromethyl-1-chlorobenzene"], "SMILES": "C(F)(F)(F)C1=C(N(=O)=O)C=CC(Cl)=C1", "physical_data": {"Molecular Weight": "225.55", "Molecular Formula": "C7H3ClF3NO2", "Boiling Point": "224 \u00b0C @ Press: 760 Torr", "Melting Point": "21-22 \u00b0C"}}