{"cas_no": "118-13-8", "cn_name": "3-\u7f9f\u57fa\u55b9\u5549-4-\u7fa7\u9178", "en_name": ["3-Hydroxy-4-quinolinecarboxylic acid", "4-Quinolinecarboxylic acid, 3-hydroxy-", "Cinchoninic acid, 3-hydroxy-", "3-Hydroxy-4-quinolinecarboxylic acid", "3-Hydroxycinchoninic acid"], "SMILES": "C(O)(=O)C=1C2=C(N=CC1O)C=CC=C2", "physical_data": {"Molecular Weight": "189.17", "Molecular Formula": "C10H7NO3", "Melting Point": "212 \u00b0C (decomp)"}}