{"cas_no": "118-90-1", "cn_name": "\u90bb\u7532\u57fa\u82ef\u7532\u9178", "en_name": ["2-Methylbenzoic acid", "Benzoic acid, 2-methyl-", "o-Toluic acid", "2-Methylbenzoic acid", "o-Toluylic acid", "o-Methylbenzoic acid", "NSC 2193"], "SMILES": "C(O)(=O)C1=C(C)C=CC=C1", "physical_data": {"Molecular Weight": "136.15", "Molecular Formula": "C8H8O2", "Boiling Point": "259 \u00b0C", "Melting Point": "103.7 \u00b0C"}}