{"cas_no": "118-52-5", "cn_name": "1,3-\u4e8c\u6c2f-5,5-\u4e8c\u7532\u57fa\u6d77\u56e0", "en_name": ["1,3-Dichloro-5,5-dimethylhydantoin", "2,4-Imidazolidinedione, 1,3-dichloro-5,5-dimethyl-", "Hydantoin, 1,3-dichloro-5,5-dimethyl-", "1,3-Dichloro-5,5-dimethyl-2,4-imidazolidinedione", "Dactin", "Dantoin", "Dichlorodimethylhydantoin", "1,3-Dichloro-5,5-dimethylhydantoin", "Halane", "Hydan (antiseptic)", "Dichlorantin", "Daktin", "Hydan", "N,N\u2032-Dichloro-5,5-dimethylhydantoin", "N,N\u2032-Dichlorodimethylhydantoin", "Dantochlor RW", "DCDMH", "NSC 33307", "NSC 38630", "2,4-Dichloro-5,5-dimethylhydantoin", "Sulfochlorantin D"], "SMILES": "CC1(C)C(=O)N(Cl)C(=O)N1Cl", "physical_data": {"Molecular Weight": "197.02", "Molecular Formula": "C5H6Cl2N2O2", "Melting Point": "132 \u00b0C", "Density": "1.5 g/cm\u00b3 @ Temp: 20 \u00b0C"}}