{"cas_no": "118-91-2", "cn_name": "2-\u6c2f\u82ef\u7532\u9178", "en_name": ["2-Chlorobenzoic acid", "Benzoic acid, 2-chloro-", "Benzoic acid, o-chloro-", "2-Chlorobenzoic acid", "2-CBA", "o-Chlorobenzoic acid", "NSC 15042", "NSC 32737"], "SMILES": "C(O)(=O)C1=C(Cl)C=CC=C1", "physical_data": {"Molecular Weight": "156.57", "Molecular Formula": "C7H5ClO2", "Boiling Point": "287 \u00b0C", "Melting Point": "142 \u00b0C", "Density": "1.544 g/cm\u00b3 @ Temp: 20 \u00b0C"}}