{"cas_no": "118-12-7", "cn_name": "1,3,3-\u4e09\u7532\u57fa-2-\u4e9a\u7532\u57fa\u5432\u54da\u5549", "en_name": ["1,3,3-Trimethyl-2-methyleneindoline", "1H-Indole, 2,3-dihydro-1,3,3-trimethyl-2-methylene-", "Indoline, 1,3,3-trimethyl-2-methylene-", "2,3-Dihydro-1,3,3-trimethyl-2-methylene-1H-indole", "Fischer base", "Fischer's base", "1,3,3-Trimethyl-2-methyleneindoline", "1,3,3-Trimethyl-2-methylene-2,3-dihydroindole", "2-Methylene-1,3,3-trimethylindoline", "1,2-Dihydro-1,3,3-trimethyl-2-methyleneindole", "2,3-Dihydro-1,3,3-trimethyl-2-methyleneindole", "1,3-Dihydro-1,3,3-trimethyl-2-methyleneindoline", "Fischer's methylene base", "NSC 66176", "1,3,3-Trimethyl-2-methylene indolenine", "1,3,3-Trimethyl-2-methylidene-2,3-dihydro-1H-indole", "1,3,3-Trimethyl-2-methylideneindole"], "SMILES": "CN1C=2C(C(C)(C)C1=C)=CC=CC2", "physical_data": {"Molecular Weight": "173.25", "Molecular Formula": "C12H15N", "Boiling Point": "80 \u00b0C @ Press: 0.01 Torr"}}