{"cas_no": "118-71-8", "cn_name": "\u7532\u57fa\u9ea6\u82bd\u915a", "en_name": ["Maltol", "4H-Pyran-4-one, 3-hydroxy-2-methyl-", "3-Hydroxy-2-methyl-4H-pyran-4-one", "3-Hydroxy-2-methyl-4-pyrone", "3-Hydroxy-2-methyl-\u03b3-pyrone", "Larixic acid", "Larixinic acid", "Maltol", "Palatone", "2-Methyl-3-hydroxy-4-pyrone", "3-Hydroxy-2-methyl-1,4-pyrone", "3-Hydroxy-2-methyl-4-pyranone", "2-Methyl-3-hydroxypyrone", "2-Methyl-3-hydroxypyran-4-one", "Veltol", "NSC 2829", "NSC 404458", "E 636", "Larixin", "Larixin (plant growth regulator)", "2-Methyl-4-oxo-4H-pyran-3-ol", "Methylmaltol"], "SMILES": "OC=1C(=O)C=COC1C", "physical_data": {"Molecular Weight": "126.11", "Molecular Formula": "C6H6O3", "Boiling Point": "140-150 \u00b0C @ Press: 20 Torr", "Melting Point": "161.5 \u00b0C"}}