{"cas_no": "118-08-1", "cn_name": "\u5317\u7f8e\u9ec4\u8fde\u78b1", "en_name": ["(-)-Hydrastine", "1(3H)-Isobenzofuranone, 6,7-dimethoxy-3-[(5R)-5,6,7,8-tetrahydro-6-methyl-1,3-dioxolo[4,5-g]isoquinolin-5-yl]-, (3S)-", "Hydrastine", "1(3H)-Isobenzofuranone, 6,7-dimethoxy-3-(5,6,7,8-tetrahydro-6-methyl-1,3-dioxolo[4,5-g]isoquinolin-5-yl)-, [S-(R*,S*)]-", "1,3-Dioxolo[4,5-g]isoquinoline, 1(3H)-isobenzofuranone deriv.", "(3S)-6,7-Dimethoxy-3-[(5R)-5,6,7,8-tetrahydro-6-methyl-1,3-dioxolo[4,5-g]isoquinolin-5-yl]-1(3H)-isobenzofuranone", "\u03b2-Hydrastine", "(-)-\u03b2-Hydrastine", "l-Hydrastine", "(-)-Hydrastine", "(1R,9S)-\u03b2-Hydrastine"], "SMILES": "CN1C(C2C=3C(C(=O)O2)=C(OC)C(OC)=CC3)C4=C(C=C5C(=C4)OCO5)CC1", "physical_data": {"Molecular Weight": "383.39", "Molecular Formula": "C21H21NO6", "Melting Point": "132 \u00b0C"}}