{"cas_no": "118-56-9", "cn_name": "\u80e1\u83ab\u67f3\u916f", "en_name": ["Homosalate", "Benzoic acid, 2-hydroxy-, 3,3,5-trimethylcyclohexyl ester", "Salicylic acid, 3,3,5-trimethylcyclohexyl ester", "Cyclohexanol, 3,3,5-trimethyl-, salicylate", "Heliophan", "Homosalate", "3,3,5-Trimethylcyclohexyl salicylate", "Heliopan", "Homomenthyl salicylate", "Filtrosol A", "Kemester", "Neo Heliopan", "Eusolex HMS", "Kemester HMS", "Neo Heliopan HMS", "Heliopan HMS", "Uniderm Homsal", "NSC 164918", "Parsol HMS", "3,3,5-Trimethylcyclohexyl 2-hydroxybenzoate", "Escalol HMS"], "SMILES": "C(OC1CC(C)(C)CC(C)C1)(=O)C2=C(O)C=CC=C2", "physical_data": {"Molecular Weight": "262.34", "Molecular Formula": "C16H22O3", "Boiling Point": "163 \u00b0C", "Density": "1.045-1.048 g/cm\u00b3 @ Temp: 25 \u00b0C"}}