{"cas_no": "118-31-0", "cn_name": "1-\u8418\u7532\u57fa\u80fa", "en_name": ["1-Naphthalenemethanamine", "1-Naphthalenemethanamine", "1-Naphthalenemethylamine", "\u03b1-Naphthylmethylamine", "1-Naphthylmethylamine", "1-(Aminomethyl)naphthalene", "1-(1-Naphthyl)methylamine", "(Naphthalen-1-ylmethyl)amine", "NSC 210425", "Naphthalen-1-ylmethanamine", "1-(1-Naphthyl)methanamine", "1-(Naphthalen-1-yl)methanamine", "C-(Naphthalen-1-yl)-methylamine", "1-Naphthylmethaneamine", "1-Naphthylmethanamine"], "SMILES": "C(N)C=1C2=C(C=CC1)C=CC=C2", "physical_data": {"Molecular Weight": "157.21", "Molecular Formula": "C11H11N", "Boiling Point": "155 \u00b0C @ Press: 12 Torr", "Melting Point": "62 \u00b0C", "Density": "1.0958 g/cm\u00b3 @ Temp: 20 \u00b0C"}}