{"cas_no": "118-29-6", "cn_name": "N-\u7f9f\u7532\u57fa\u90bb\u82ef\u4e8c\u7532\u9170\u4e9a\u80fa", "en_name": ["N-(Hydroxymethyl)phthalimide", "1H-Isoindole-1,3(2H)-dione, 2-(hydroxymethyl)-", "Phthalimide, N-(hydroxymethyl)-", "2-(Hydroxymethyl)-1H-isoindole-1,3(2H)-dione", "Phthalimidomethyl alcohol", "(Hydroxymethyl)phthalimide", "N-(Hydroxymethyl)phthalimide", "N-Methylolphthalimide", "NSC 27350", "NSC 27471", "NSC 39723", "2-(Hydroxymethyl)isoindoline-1,3-dione", "2-(Hydroxymethyl)-2,3-dihydro-1H-isoindole-1,3-dione", "2-(Hydroxymethyl)isoindole-1,3-dione"], "SMILES": "O=C1C=2C(C(=O)N1CO)=CC=CC2", "physical_data": {"Molecular Weight": "177.16", "Molecular Formula": "C9H7NO3", "Melting Point": "141-142 \u00b0C"}}