{"cas_no": "118-45-6", "cn_name": "4-\u6c2f\u4ee3\u82ef\u9150", "en_name": ["4-Chlorophthalic anhydride", "1,3-Isobenzofurandione, 5-chloro-", "Phthalic anhydride, 4-chloro-", "5-Chloro-1,3-isobenzofurandione", "4-Chlorophthalic anhydride", "p-Chlorophthalic anhydride", "4-Chlorophthalic acid anhydride", "5-Chloro-2-benzofuran-1,3-dione", "5-Chloroisobenzofuran-1,3-dione"], "SMILES": "O=C1C=2C(C(=O)O1)=CC=C(Cl)C2", "physical_data": {"Molecular Weight": "182.56", "Molecular Formula": "C8H3ClO3", "Boiling Point": "286-290 \u00b0C", "Melting Point": "98 \u00b0C"}}