{"cas_no": "118-69-4", "cn_name": "2,6-\u4e8c\u6c2f\u7532\u82ef", "en_name": ["2,6-Dichlorotoluene", "Benzene, 1,3-dichloro-2-methyl-", "Toluene, 2,6-dichloro-", "1,3-Dichloro-2-methylbenzene", "2,6-Dichlorotoluene", "2,6-Dichloro-1-methylbenzene", "NSC 60722"], "SMILES": "CC1=C(Cl)C=CC=C1Cl", "physical_data": {"Molecular Weight": "161.03", "Molecular Formula": "C7H6Cl2", "Boiling Point": "198 \u00b0C @ Press: 760 Torr", "Melting Point": "25.8 \u00b0C", "Density": "1.2686 g/cm\u00b3 @ Temp: 20 \u00b0C"}}