{"cas_no": "118-75-2", "cn_name": "\u56db\u6c2f\u82ef\u918c", "en_name": ["Chloranil", "2,5-Cyclohexadiene-1,4-dione, 2,3,5,6-tetrachloro-", "p-Benzoquinone, 2,3,5,6-tetrachloro-", "2,3,5,6-Tetrachloro-2,5-cyclohexadiene-1,4-dione", "ENT 3797", "Chloranil", "Dow Seed Disinfectant No. 5", "Reranil", "Spergon I", "Spergon", "Spergon Technical", "Tetrachlorobenzoquinone", "Tetrachloro-p-benzoquinone", "2,3,5,6-Tetrachloro-1,4-benzoquinone", "Tetrachloroquinone", "Tetrachloro-p-quinone", "Vulklor", "p-Chloranil", "Coversan", "Tetrachloro-1,4-benzoquinone", "2,3,5,6-Tetrachlorobenzoquinone", "2,3,5,6-Tetrachloro-p-benzoquinone", "2,3,5,6-Tetrachloroquinone", "Quinone tetrachloride", "\u03b1-Chloranil", "Psorisan", "Actor CL", "2,3,5,6-Tetrachlorocyclohexadiene-1,4-dione", "1,2,4,5-Tetrachlorobenzoquinone", "NSC 8432", "2,3,5,6-Tetrachloro-1,4-(p-)-benzoquinone", "MeSH ID: D002703"], "SMILES": "ClC1=C(Cl)C(=O)C(Cl)=C(Cl)C1=O", "physical_data": {"Molecular Weight": "245.88", "Molecular Formula": "C6Cl4O2", "Melting Point": "290 \u00b0C", "Density": "1.97 g/cm\u00b3"}}