{"cas_no": "118-55-8", "cn_name": "\u6c34\u6768\u9178\u82ef\u916f", "en_name": ["Phenyl salicylate", "Benzoic acid, 2-hydroxy-, phenyl ester", "Salicylic acid, phenyl ester", "Phenol salicylate", "Phenyl salicylate", "Salol", "Phenyl 2-hydroxybenzoate", "Salphenyl", "2-Phenoxycarbonylphenol", "Seesorb 201", "Seesorb K 201", "NSC 33406", "Phenyl o-hydroxybenzoate", "YC 136", "2-Hydroxy-benzoic acid phenyl ester"], "SMILES": "C(OC1=CC=CC=C1)(=O)C2=C(O)C=CC=C2", "physical_data": {"Molecular Weight": "214.22", "Molecular Formula": "C13H10O3", "Boiling Point": "173 \u00b0C", "Melting Point": "41-43 \u00b0C", "Density": "1.25 g/cm\u00b3"}}