{"cas_no": "118-48-9", "cn_name": "\u975b\u7ea2\u9178\u9150", "en_name": ["Isatoic anhydride", "2H-3,1-Benzoxazine-2,4(1H)-dione", "Isatoic anhydride", "Isatoic acid anhydride", "Benzoic acid, 2-(carboxyamino)-, cyclic anhydride", "2,4-Dioxo-1,2-dihydro-4H-3,1-benzoxazine", "1,2-Dihydro-3,1-benzoxazine-2,4-dione", "1H-Benz[d][1,3]oxazine-2,4-dione", "3,1-Benzoxazine-2,4(1H)-dione", "NSC 104662", "NSC 29555", "2,4-Dihydro-1H-3,1-benzoxazine-2,4-dione", "1H-3,1-Benzoxazine-2,4-dione", "2-Hydroxy-4H-3,1-benzoxazin-4-one"], "SMILES": "O=C1C=2C(NC(=O)O1)=CC=CC2", "physical_data": {"Molecular Weight": "163.13", "Molecular Formula": "C8H5NO3", "Melting Point": "243 \u00b0C (decomp)"}}