{"cas_no": "118024-26-3", "cn_name": "\u827e\u7eb3\u9999\u7d20", "en_name": ["Blumeatin", "4H-1-Benzopyran-4-one, 2-(3,5-dihydroxyphenyl)-2,3-dihydro-5-hydroxy-7-methoxy-, (2S)-", "(2S)-2-(3,5-Dihydroxyphenyl)-2,3-dihydro-5-hydroxy-7-methoxy-4H-1-benzopyran-4-one", "Blumeatin", "5,3\u2032,5\u2032-Trihydroxy-7-methoxyflavanone"], "SMILES": "O=C1C=2C(OC(C1)C3=CC(O)=CC(O)=C3)=CC(OC)=CC2O", "physical_data": {"Molecular Weight": "302.28", "Molecular Formula": "C16H14O6", "Melting Point": "218-220 \u00b0C"}}