{"cas_no": "1180-71-8", "cn_name": "\u67e0\u6aac\u82e6\u7d20", "en_name": ["Limonin", "11H,13H-Oxireno[d]pyrano[4\u2032,3\u2032:3,3a]isobenzofuro[5,4-f][2]benzopyran-4,6,13(2H,5aH)-trione, 8-(3-furanyl)decahydro-2,2,4a,8a-tetramethyl-, (2aR,4aR,4bR,5aS,8S,8aS,10aR,10bR,14aS)-", "11H,13H-Oxireno[d]pyrano[4\u2032,3\u2032:3,3a]isobenzofuro[5,4-f][2]benzopyran-4,6,13(2H,5aH)-trione, 8-(3-furyl)decahydro-2,2,4a,8a-tetramethyl-", "Limonin", "Limonoic acid, di-\u03b4-lactone", "(2aR,4aR,4bR,5aS,8S,8aS,10aR,10bR,14aS)-8-(3-Furanyl)decahydro-2,2,4a,8a-tetramethyl-11H,13H-oxireno[d]pyrano[4\u2032,3\u2032:3,3a]isobenzofuro[5,4-f][2]benzopyran-4,6,13(2H,5aH)-trione", "Citrolimonin", "Dictamnolactone", "Evodin", "11H,13H-Oxireno[d]pyrano[4\u2032,3\u2032:3,3a]isobenzofuro[5,4-f][2]benzopyran-4,6,13(2H,5aH)-trione, 8-(3-furanyl)decahydro-2,2,4a,8a-tetramethyl-, [2aR-(2a\u03b1,4a\u03b2,4bR*,5a\u03b1,8\u03b1,8a\u03b1,10a\u03b1,10bR*,14a\u03b1)]-", "Obaculactone", "Limonine", "7,16-Dioxo-7,16-dideoxylimondiol", "Obakulactone"], "SMILES": "CC12C34C(O3)C(=O)OC(C4(C)CCC1C56C(CC2=O)C(C)(C)OC5CC(=O)OC6)C=7C=COC7", "physical_data": {"Molecular Weight": "470.51", "Molecular Formula": "C26H30O8", "Melting Point": "298 \u00b0C"}}