{"cas_no": "118072-93-8", "cn_name": "\u5511\u6765\u81a6\u9178", "en_name": ["Zoledronic acid", "Phosphonic acid, P,P\u2032-[1-hydroxy-2-(1H-imidazol-1-yl)ethylidene]bis-", "Phosphonic acid, [1-hydroxy-2-(1H-imidazol-1-yl)ethylidene]bis-", "P,P\u2032-[1-Hydroxy-2-(1H-imidazol-1-yl)ethylidene]bis[phosphonic acid]", "(1-Hydroxy-2-imidazol-1-ylethylidene)diphosphonic acid", "Zoledronic acid", "CGP 42446", "Zoledronate", "Zometa", "1-Hydroxy-2-(1H-imidazol-1-yl)ethylidene-1,1-bisphosphonic acid", "ZOL 446", "2-(Imidazol-1-yl)-1-hydroxy-1,1\u2032-ethylidenediphosphonic acid", "BPH 91", "Reclast", "Orazol", "Aclasta", "[1-Hydroxy-2-(1H-imidazol-1-yl)-1-phosphonoethyl]phosphonic acid", "(1-Hydroxy-2-imidazol-1-yl-1-phosphonoethyl)phosphonic acid", "1-Hydroxy-2-(1-imidazolyl)ethane-1,1-diphosphonic acid"], "SMILES": "C(P(=O)(O)O)(P(=O)(O)O)(CN1C=CN=C1)O", "physical_data": {"Molecular Weight": "272.09", "Molecular Formula": "C5H10N2O7P2", "Melting Point": "237-240 \u00b0C"}}