{"cas_no": "1180-95-6", "cn_name": "\u725b\u78fa\u8131\u6c27\u80c6\u9178\u94a0", "en_name": ["Sodium taurodeoxycholate", "Ethanesulfonic acid, 2-[[(3\u03b1,5\u03b2,12\u03b1)-3,12-dihydroxy-24-oxocholan-24-yl]amino]-, monosodium salt", "Taurine, N-(3\u03b1,12\u03b1-dihydroxy-5\u03b2-cholan-24-oyl)-, monosodium salt", "Taurodeoxycholic acid sodium salt", "Cholane, ethanesulfonic acid deriv.", "Sodium taurodeoxycholate", "Taurodeoxycholate sodium", "Sodium 3\u03b1,12\u03b1-dihydroxy-5\u03b2-cholanoyltaurate", "STDC", "Sodium taurodesoxycholate", "Sodium deoxytaurocholate"], "SMILES": "CC12C(C3C(C4(C)C(CC3)CC(O)CC4)CC1O)CCC2C(CCC(NCCS(=O)(=O)O)=O)C.[Na]", "physical_data": {"Molecular Weight": "", "Molecular Formula": "C26H45NO6S.Na", "Melting Point": "171-175 \u00b0C"}}