{"cas_no": "118054-57-2", "cn_name": "1H-\u5421\u5511-3-\u4e59\u9178\u76d0\u9178\u76d0", "en_name": ["1H-Pyrazole-3-acetic acid, hydrochloride (1:1)", "1H-Pyrazole-3-acetic acid, hydrochloride (1:1)", "1H-Pyrazole-3-acetic acid, monohydrochloride", "2-(1H-Pyrazol-5-yl)acetic acid hydrochloride", "2-(1H-Pyrazol-3-yl)acetic acid hydrochloride"], "SMILES": "C(C(O)=O)C=1C=CNN1.Cl", "physical_data": {"Molecular Weight": "", "Molecular Formula": "C5H6N2O2.ClH", "Melting Point": "137-140 \u00b0C"}}