{"cas_no": "118058-74-5", "cn_name": "\u514b\u62c9\u9709\u7d20\u6742\u8d28H", "en_name": ["5-O-Desosaminyl-6-O-methylerythronolide A", "Erythromycin, 3-O-de(2,6-dideoxy-3-C-methyl-3-O-methyl-\u03b1-L-ribo-hexopyranosyl)-6-O-methyl-", "Oxacyclotetradecane, erythromycin deriv.", "3-O-De(2,6-dideoxy-3-C-methyl-3-O-methyl-\u03b1-L-ribo-hexopyranosyl)-6-O-methylerythromycin", "De(cladinosyl)clarithromycin", "5-O-Desosaminyl-6-O-methylerythronolide A"], "SMILES": "O(C1C(OC)(C)CC(C)C(=O)C(C)C(O)C(C)(O)C(CC)OC(=O)C(C)C(O)C1C)C2C(O)C(N(C)C)CC(C)O2", "physical_data": {"Molecular Weight": "589.76", "Molecular Formula": "C30H55NO10", "Melting Point": "158-160 \u00b0C"}}