{"cas_no": "118134-30-8", "cn_name": "\u87ba\u5641\u8302\u80fa", "en_name": ["Spiroxamine", "1,4-Dioxaspiro[4.5]decane-2-methanamine, 8-(1,1-dimethylethyl)-N-ethyl-N-propyl-", "8-(1,1-Dimethylethyl)-N-ethyl-N-propyl-1,4-dioxaspiro[4.5]decane-2-methanamine", "KWG 4168", "Spiroxamine", "Spiroketalamine", "Impulse", "Impulse (pesticide)", "Prosper", "Prosper (fungicide)", "Prosper Hoggar", "(8-tert-Butyl-1,4-dioxa-spiro[4.5]dec-2-ylmethyl)-ethyl-propyl-amine"], "SMILES": "C(N(CCC)CC)C1OC2(OC1)CCC(C(C)(C)C)CC2", "physical_data": {"Molecular Weight": "297.48", "Molecular Formula": "C18H35NO2", "Melting Point": "&lt;25 \u00b0C"}}