{"cas_no": "118194-13-1", "cn_name": "\u5927\u8c46\u7682\u82f7AB", "en_name": ["Soyasaponin Ab", "\u03b2-D-Glucopyranosiduronic acid, (3\u03b2,4\u03b2,21\u03b2,22\u03b2)-21,23-dihydroxy-22-[[3-O-(2,3,4,6-tetra-O-acetyl-\u03b2-D-glucopyranosyl)-\u03b1-L-arabinopyranosyl]oxy]olean-12-en-3-yl O-\u03b2-D-glucopyranosyl-(1\u21922)-O-\u03b2-D-galactopyranosyl-(1\u21922)-", "(3\u03b2,4\u03b2,21\u03b2,22\u03b2)-21,23-Dihydroxy-22-[[3-O-(2,3,4,6-tetra-O-acetyl-\u03b2-D-glucopyranosyl)-\u03b1-L-arabinopyranosyl]oxy]olean-12-en-3-yl O-\u03b2-D-glucopyranosyl-(1\u21922)-O-\u03b2-D-galactopyranosyl-(1\u21922)-\u03b2-D-glucopyranosiduronic acid", "Soyasaponin Ab", "Acetylsoyasaponin A1"], "SMILES": "CC12C3(C)C(C4C(C)(CC3)C(OC5C(O)C(OC6C(OC(C)=O)C(OC(C)=O)C(OC(C)=O)C(COC(C)=O)O6)C(O)CO5)C(O)C(C)(C)C4)=CCC1C7(C)C(CC2)C(CO)(C)C(OC8C(OC9C(OC%10OC(CO)C(O)C(O)C%10O)C(O)C(O)C(CO)O9)C(O)C(O)C(C(O)=O)O8)CC7", "physical_data": {"Molecular Weight": "1437.52", "Molecular Formula": "C67H104O33", "Melting Point": "253-256 \u00b0C"}}