{"cas_no": "118184-66-0", "cn_name": "2-\u73af\u4e19\u57fa\u82c4\u80fa", "en_name": ["2-Cyclopropylbenzenemethanamine", "Benzenemethanamine, 2-cyclopropyl-", "2-Cyclopropylbenzenemethanamine", "(2-Cyclopropylphenyl)methanamine"], "SMILES": "C(N)C1=C(C=CC=C1)C2CC2", "physical_data": {"Molecular Weight": "147.22", "Molecular Formula": "C10H13N", "Boiling Point": "107-108 \u00b0C @ Press: 6 Torr"}}