{"cas_no": "118263-97-1", "cn_name": "1-\u7532\u57fa-2,4-\u54cc\u5576\u4e8c\u916e", "en_name": ["1-Methyl-2,4-piperidinedione", "2,4-Piperidinedione, 1-methyl-", "1-Methyl-2,4-piperidinedione"], "SMILES": "O=C1N(C)CCC(=O)C1", "physical_data": {"Molecular Weight": "127.14", "Molecular Formula": "C6H9NO2", "Melting Point": "168-170 \u00b0C"}}