{"cas_no": "118292-40-3", "cn_name": "\u4ed6\u624e\u7f57\u6c40", "en_name": ["Tazarotene", "3-Pyridinecarboxylic acid, 6-[2-(3,4-dihydro-4,4-dimethyl-2H-1-benzothiopyran-6-yl)ethynyl]-, ethyl ester", "3-Pyridinecarboxylic acid, 6-[(3,4-dihydro-4,4-dimethyl-2H-1-benzothiopyran-6-yl)ethynyl]-, ethyl ester", "2H-1-Benzothiopyran, 3-pyridinecarboxylic acid deriv.", "AGN 190168", "Tazarotene", "Zorac", "Tazorac", "Acnitaz"], "SMILES": "CC1(C)C=2C(=CC=C(C#CC3=CC=C(C(OCC)=O)C=N3)C2)SCC1", "physical_data": {"Molecular Weight": "351.46", "Molecular Formula": "C21H21NO2S", "Melting Point": "97-98 \u00b0C"}}