{"cas_no": "1182-34-9", "cn_name": "\u6d0b\u84df\u7d20", "en_name": ["1,4-Dicaffeoylquinic acid", "Cyclohexanecarboxylic acid, 1,4-bis[[3-(3,4-dihydroxyphenyl)-1-oxo-2-propen-1-yl]oxy]-3,5-dihydroxy-, (1\u03b1,3R,4\u03b1,5R)-rel-", "Cinnamic acid, 3,4-dihydroxy-, 1-carboxy-3,5-dihydroxy-1,4-cyclohexylene ester", "Cyclohexanecarboxylic acid, 1,4-bis[[3-(3,4-dihydroxyphenyl)-1-oxo-2-propenyl]oxy]-3,5-dihydroxy-, (1\u03b1,3\u03b1,4\u03b1,5\u03b2)-", "rel-(1\u03b1,3R,4\u03b1,5R)-1,4-Bis[[3-(3,4-dihydroxyphenyl)-1-oxo-2-propen-1-yl]oxy]-3,5-dihydroxycyclohexanecarboxylic acid", "1,4-Dicaffeylquinic acid", "1,4-Dicaffeoylquinic acid"], "SMILES": "O(C(C=CC1=CC(O)=C(O)C=C1)=O)C2(C(O)=O)CC(O)C(OC(C=CC3=CC(O)=C(O)C=C3)=O)C(O)C2", "physical_data": {"Molecular Weight": "516.45", "Molecular Formula": "C25H24O12", "Melting Point": "224-226 \u00b0C"}}