{"cas_no": "1182-42-9", "cn_name": "\u80c6\u753e\u9187\u8f9b\u9178\u916f", "en_name": ["Cholesteryl caprylate", "Cholest-5-en-3-ol (3\u03b2)-, 3-octanoate", "Cholesterol, octanoate", "Cholest-5-en-3-ol (3\u03b2)-, octanoate", "Cholesteryl caprylate", "Cholesteryl octanoate", "Cholesterol caprylate", "3\u03b2-(Octanoyloxy)cholest-5-ene", "Cholest-5-en-3\u03b2-ol caprylate", "5-Cholesten-3\u03b2-ol caprylate", "Caprylic acid cholesterol ester"], "SMILES": "CC12C3C(C4C(C)(CC3)C(C(CCCC(C)C)C)CC4)CC=C1CC(OC(CCCCCCC)=O)CC2", "physical_data": {"Molecular Weight": "512.85", "Molecular Formula": "C35H60O2", "Melting Point": "106.0 \u00b0C"}}