{"cas_no": "1182-66-7", "cn_name": "\u80c6\u56fa\u9187\u58ec\u9178\u916f", "en_name": ["Cholesteryl nonanoate", "Cholest-5-en-3-ol (3\u03b2)-, 3-nonanoate", "Cholesterol, nonanoate", "Cholest-5-en-3-ol (3\u03b2)-, nonanoate", "Nonanoic acid, cholesteryl ester", "Cholesteryl nonanoate", "3\u03b2-(Nonanoyloxy)cholest-5-ene", "Cholesterol pelargonate", "Cholesteryl pelargonate", "Cholesteryl nonylate", "Cholesterin pelargonate", "Cholest-5-en-3\u03b2-ol nonanoate", "5-Cholesten-3\u03b2-ol nonanoate"], "SMILES": "CC12C3C(C4C(C)(CC3)C(C(CCCC(C)C)C)CC4)CC=C1CC(OC(CCCCCCCC)=O)CC2", "physical_data": {"Molecular Weight": "526.88", "Molecular Formula": "C36H62O2", "Melting Point": "80 \u00b0C"}}