{"cas_no": "118292-06-1", "cn_name": "6-\u4e59\u7094\u57fa-4,4-\u4e8c\u7532\u57fa\u4e8c\u6c22\u82ef\u5e76\u567b\u5583", "en_name": ["6-Ethynyl-3,4-dihydro-4,4-dimethyl-2H-1-benzothiopyran", "2H-1-Benzothiopyran, 6-ethynyl-3,4-dihydro-4,4-dimethyl-", "6-Ethynyl-3,4-dihydro-4,4-dimethyl-2H-1-benzothiopyran", "4,4-Dimethyl-6-ethynylthiochroman", "6-Ethynyl-4,4-dimethyl-1,2,3,4-tetrahydro[1]benzthiothiopyran", "(4,4-Dimethylthiochroman-6-yl)acetylene"], "SMILES": "CC1(C)C=2C(=CC=C(C#C)C2)SCC1", "physical_data": {"Molecular Weight": "202.32", "Molecular Formula": "C13H14S", "Boiling Point": "100 \u00b0C @ Press: 0.7 Torr"}}