{"cas_no": "1182-87-2", "cn_name": "\u9ec4\u5939\u6b21\u82f7", "en_name": ["Peruvoside", "Card-20(22)-enolide, 3-[(6-deoxy-3-O-methyl-\u03b1-L-glucopyranosyl)oxy]-14-hydroxy-19-oxo-, (3\u03b2,5\u03b2)-", "Peruvoside", "(3\u03b2,5\u03b2)-3-[(6-Deoxy-3-O-methyl-\u03b1-L-glucopyranosyl)oxy]-14-hydroxy-19-oxocard-20(22)-enolide", "Peruvosid", "Cannogenin \u03b1-L-thevetoside", "Encordin"], "SMILES": "C(=O)C12C3C(C4(O)C(C)(CC3)C(CC4)C=5COC(=O)C5)CCC1CC(OC6C(O)C(OC)C(O)C(C)O6)CC2", "physical_data": {"Molecular Weight": "548.66", "Molecular Formula": "C30H44O9", "Melting Point": "162.5 \u00b0C"}}