{"cas_no": "118289-55-7", "cn_name": "5-(2-\u6c2f\u4e59\u57fa)-6-\u6c2f-1,3-\u4e8c\u6c22-\u5432\u54da-2-(2H)-\u916e", "en_name": ["5-(2-Chloroethyl)-6-chlorooxindole", "2H-Indol-2-one, 6-chloro-5-(2-chloroethyl)-1,3-dihydro-", "6-Chloro-5-(2-chloroethyl)-1,3-dihydro-2H-indol-2-one", "5-(2-Chloroethyl)-6-chlorooxindole", "6-Chloro-5-(2-chloroethyl)oxindole", "5-(2-Chloroethyl)-6-chloro-1,3-dihydro-2H-indol-2-one", "6-Chloro-5-(2-chloroethyl)-2-oxoindoline", "6-Chloro-5-(2-chloroethyl)indolin-2-one"], "SMILES": "C(CCl)C=1C=C2C(=CC1Cl)NC(=O)C2", "physical_data": {"Molecular Weight": "230.09", "Molecular Formula": "C10H9Cl2NO", "Melting Point": "210-211 \u00b0C"}}