{"cas_no": "1182-07-6", "cn_name": "\u80c6\u56fa\u9187\u5e9a\u9178\u76d0", "en_name": ["Cholesteryl heptanoate", "Cholest-5-en-3-ol (3\u03b2)-, 3-heptanoate", "Cholesterol, heptanoate", "Cholest-5-en-3-ol (3\u03b2)-, heptanoate", "Heptanoic acid, cholesteryl ester", "Cholesteryl heptanoate", "Cholesteryl enanthate", "Cholest-5-en-3\u03b2-ol heptanoate", "5-Cholesten-3\u03b2-ol heptanoate"], "SMILES": "CC12C3C(C4C(C)(CC3)C(C(CCCC(C)C)C)CC4)CC=C1CC(OC(CCCCCC)=O)CC2", "physical_data": {"Molecular Weight": "498.82", "Molecular Formula": "C34H58O2", "Melting Point": "111.4-112.2 \u00b0C"}}