{"cas_no": "118289-17-1", "cn_name": "2-\u6eb4\u5421\u5576-4-\u7532\u919b", "en_name": ["2-Bromo-4-pyridinecarboxaldehyde", "4-Pyridinecarboxaldehyde, 2-bromo-", "2-Bromo-4-pyridinecarboxaldehyde", "2-Bromo-4-formylpyridine", "2-Bromoisonicotinaldehyde", "2-Bromopyridine-4-carbaldehyde"], "SMILES": "C(=O)C=1C=C(Br)N=CC1", "physical_data": {"Molecular Weight": "186.01", "Molecular Formula": "C6H4BrNO", "Melting Point": "52.6-53.5 \u00b0C"}}