{"cas_no": "1183-04-6", "cn_name": "\u80c6\u753e\u9187\u7678\u9178\u916f", "en_name": ["Cholesteryl decanoate", "Cholest-5-en-3-ol (3\u03b2)-, 3-decanoate", "Cholesterol, decanoate", "Cholest-5-en-3-ol (3\u03b2)-, decanoate", "Decanoic acid, cholesteryl ester", "Cholesteryl caprate", "Cholesterol caprate", "Cholesteryl decanoate", "Cholesteryl caprinate", "Cholesterol n-decylate", "Cholesteryl n-decylate", "Cholesteryl decylate", "3\u03b2-(Decanoyloxy)-5-cholestene", "Cholesterol 3-decanoate", "Cholest-5-en-3\u03b2-ol caprate", "5-Cholesten-3\u03b2-ol caprate"], "SMILES": "CC12C3C(C4C(C)(CC3)C(C(CCCC(C)C)C)CC4)CC=C1CC(OC(CCCCCCCCC)=O)CC2", "physical_data": {"Molecular Weight": "540.90", "Molecular Formula": "C37H64O2", "Melting Point": "91.0 \u00b0C"}}