{"cas_no": "118353-05-2", "cn_name": "\u5361\u5df4\u97e6", "en_name": ["Carbovir", "6H-Purin-6-one, 2-amino-1,9-dihydro-9-[(1R,4S)-4-(hydroxymethyl)-2-cyclopenten-1-yl]-, rel-", "6H-Purin-6-one, 2-amino-1,9-dihydro-9-[4-(hydroxymethyl)-2-cyclopenten-1-yl]-, cis-(\u00b1)-", "rel-2-Amino-1,9-dihydro-9-[(1R,4S)-4-(hydroxymethyl)-2-cyclopenten-1-yl]-6H-purin-6-one", "NSC 614846", "(\u00b1)-Carbovir", "Carbovir", "GR 90352X", "6H-Purin-6-one, 2-amino-1,9-dihydro-9-[4-(hydroxymethyl)-2-cyclopenten-1-yl]-, cis-"], "SMILES": "O=C1C2=C(N(C=N2)C3CC(CO)C=C3)NC(N)=N1", "physical_data": {"Molecular Weight": "247.25", "Molecular Formula": "C11H13N5O2", "Melting Point": "254-256 \u00b0C (decomp)"}}