{"cas_no": "118353-04-1", "cn_name": "4-\u6c2f-5-(2,3-\u4e8c\u6c2f\u82ef\u6c27\u57fa)-2-\u785d\u57fa\u82ef\u80fa", "en_name": ["4-Chloro-5-(2,3-dichlorophenoxy)-2-nitrobenzenamine", "Benzenamine, 4-chloro-5-(2,3-dichlorophenoxy)-2-nitro-", "4-Chloro-5-(2,3-dichlorophenoxy)-2-nitrobenzenamine", "4-Chloro-5-(2,3-dichlorophenoxy)-2-nitroaniline"], "SMILES": "O(C1=C(Cl)C=C(N(=O)=O)C(N)=C1)C2=C(Cl)C(Cl)=CC=C2", "physical_data": {"Molecular Weight": "333.55", "Molecular Formula": "C12H7Cl3N2O3", "Melting Point": "149-150 \u00b0C"}}