{"cas_no": "118307-04-3", "cn_name": "5-\u6c2f\u4e59\u9170-6-\u6c2f-1,3-\u4e8c\u6c22-2H-\u5432\u54da-2-\u916e", "en_name": ["5-(2-Chloroacetyl)-6-chlorooxindole", "2H-Indol-2-one, 6-chloro-5-(2-chloroacetyl)-1,3-dihydro-", "2H-Indol-2-one, 6-chloro-5-(chloroacetyl)-1,3-dihydro-", "6-Chloro-5-(2-chloroacetyl)-1,3-dihydro-2H-indol-2-one", "5-(2-Chloroacetyl)-6-chlorooxindole", "5-(2-Chloroacetyl)-6-chloro-2-oxindole", "6-Chloro-5-chloroacetyl-2-oxoindoline", "6-Chloro-5-(2-chloroacetyl)indolin-2-one", "6-Chloro-5-(chloroacetyl)oxindole"], "SMILES": "C(CCl)(=O)C=1C=C2C(=CC1Cl)NC(=O)C2", "physical_data": {"Molecular Weight": "244.07", "Molecular Formula": "C10H7Cl2NO2", "Melting Point": "206-207 \u00b0C"}}