{"cas_no": "118430-73-2", "cn_name": "5-AMINO-3-TERT-BUTYL-1-METHYLPYRAZOLE", "en_name": ["3-(1,1-Dimethylethyl)-1-methyl-1H-pyrazol-5-amine", "1H-Pyrazol-5-amine, 3-(1,1-dimethylethyl)-1-methyl-", "3-(1,1-Dimethylethyl)-1-methyl-1H-pyrazol-5-amine", "5-Amino-3-tert-butyl-1-methylpyrazole", "3-Amino-5-tert-butyl-1-methylisoxazole", "5-Amino-1-methyl-3-tert-butylpyrazole", "(5-tert-Butyl-2-methyl-2H-pyrazol-3-yl)amine", "3-tert-Butyl-1-methyl-1H-pyrazol-5-amine"], "SMILES": "C(C)(C)(C)C=1C=C(N)N(C)N1", "physical_data": {"Molecular Weight": "153.22", "Molecular Formula": "C8H15N3", "Melting Point": "156-157 \u00b0C"}}