{"cas_no": "118441-85-3", "cn_name": "\u7518\u8349\u7682\u82f7H2", "en_name": ["Licoricesaponin H2", "\u03b2-D-Glucopyranosiduronic acid, (3\u03b2,20\u03b1)-20-carboxy-11-oxo-30-norolean-12-en-3-yl 2-O-\u03b2-D-glucopyranuronosyl-", "30-Noroleanane, \u03b2-D-glucopyranosiduronic acid deriv.", "(3\u03b2,20\u03b1)-20-Carboxy-11-oxo-30-norolean-12-en-3-yl 2-O-\u03b2-D-glucopyranuronosyl-\u03b2-D-glucopyranosiduronic acid", "Licoricesaponin H2", "Saponin H2, from licorice", "20\u03b1-Glycyrrhizin"], "SMILES": "CC12C(C3(C)C(CC1)C(C)(C)C(OC4C(OC5OC(C(O)=O)C(O)C(O)C5O)C(O)C(O)C(C(O)=O)O4)CC3)C(=O)C=C6C2(C)CCC7(C)C6CC(C(O)=O)(C)CC7", "physical_data": {"Molecular Weight": "822.93", "Molecular Formula": "C42H62O16", "Melting Point": "209-210 \u00b0C"}}