{"cas_no": "118409-57-7", "cn_name": "\u916a\u6c28\u9178\u78f7\u9178\u5316\u6291\u5236\u524223", "en_name": ["Tyrphostin 23", "Propanedinitrile, 2-[(3,4-dihydroxyphenyl)methylene]-", "Propanedinitrile, [(3,4-dihydroxyphenyl)methylene]-", "2-[(3,4-Dihydroxyphenyl)methylene]propanedinitrile", "RG 50810", "RG 50858", "AG 18", "AG 18 (pharmaceutical)", "TX 825", "Tyrphostin 23", "Tyrphostin AG 18", "Tyrphostin A 23", "2-(3,4-Dihydroxybenzylidene)malononitrile", "(3,4-Dihydroxybenzylidene)malononitrile", "2-[(3,4-Dihydroxyphenyl)methylidene]propanedinitrile"], "SMILES": "C(=C(C#N)C#N)C1=CC(O)=C(O)C=C1", "physical_data": {"Molecular Weight": "186.17", "Molecular Formula": "C10H6N2O2", "Melting Point": "225 \u00b0C"}}