{"cas_no": "1184-85-6", "cn_name": "N-\u7532\u57fa\u7532\u78fa\u9170\u80fa", "en_name": ["N-Methylmethanesulfonamide", "Methanesulfonamide, N-methyl-", "N-Methylmethanesulfonamide", "NSC 137909", "Methyl(methylsulfonyl)amine", "N-Methylmethanesulfonamide"], "SMILES": "S(NC)(C)(=O)=O", "physical_data": {"Molecular Weight": "109.15", "Molecular Formula": "C2H7NO2S", "Boiling Point": "153-154 \u00b0C @ Press: 15 Torr"}}