{"cas_no": "1184-10-7", "cn_name": "\u82ef\u6c27\u57fa\u73af\u78f7\u8148", "en_name": ["Hexaphenoxycyclotriphosphazene", "2\u03bb5,4\u03bb5,6\u03bb5-1,3,5,2,4,6-Triazatriphosphorine, 2,2,4,4,6,6-hexaphenoxy-", "1,3,5,2,4,6-Triazatriphosphorine, 2,2,4,4,6,6-hexahydro-2,2,4,4,6,6-hexaphenoxy-", "Phenyl metaphosphimate, trimer", "2,2,4,4,6,6-Hexaphenoxy-2\u03bb5,4\u03bb5,6\u03bb5-1,3,5,2,4,6-triazatriphosphorine", "Trimeric bis(phenoxy)phosphonitrile", "2,2,4,4,6,6-Hexahydro-2,2,4,4,6,6-hexaphenoxytriazatriphosphorine", "Hexaphenoxycyclotriphosphazene", "Hexaphenoxy-1,3,5,2,4,6-triazatriphosphorine", "Hexaphenoxycyclotriphosphazatriene", "NSC 117810", "Diphenoxyphosphazene cyclic trimer", "PZ 100", "HT 231", "2,2,4,4,6,6-Hexaphenoxy-2\u03bb*5*,4\u03bb*5*,6\u03bb*5*-[1,3,5,2,4,6]triazatriphosphinine", "Rabitle FP 110", "FP 110", "Fushimi FP 110", "CG 40 (phosphazene)", "HPCTP", "CG 40"], "SMILES": "O(P=1(OC2=CC=CC=C2)N=P(OC3=CC=CC=C3)(OC4=CC=CC=C4)N=P(OC5=CC=CC=C5)(OC6=CC=CC=C6)N1)C7=CC=CC=C7", "physical_data": {"Molecular Weight": "693.56", "Molecular Formula": "C36H30N3O6P3", "Melting Point": "110-111 \u00b0C"}}