{"cas_no": "1184-05-0", "cn_name": "\u786c\u8102\u9178\u80c6\u753e\u9187\u916f", "en_name": ["Cholesteryl stearate", "Cholest-5-en-3-ol (3\u03b2)-, 3-octadecanoate", "Cholest-5-en-3-ol (3\u03b2)-, octadecanoate", "Cholesterol, stearate", "Stearic acid, cholesteryl ester", "Cholesteryl octadecanoate", "Cholesteryl stearate", "Cholesterol n-octanoate", "NSC 59693", "Nikkol Cholesteryl Stearate", "CE(18:0)"], "SMILES": "CC12C3C(C4C(C)(CC3)C(C(CCCC(C)C)C)CC4)CC=C1CC(OC(CCCCCCCCCCCCCCCCC)=O)CC2", "physical_data": {"Molecular Weight": "653.12", "Molecular Formula": "C45H80O2", "Melting Point": "82.5 \u00b0C"}}