{"cas_no": "1184-88-9", "cn_name": "\u65b0\u620a\u9178\u94a0", "en_name": ["Propanoic acid, 2,2-dimethyl-, sodium salt (1:1)", "Propanoic acid, 2,2-dimethyl-, sodium salt (1:1)", "Pivalic acid, sodium salt", "Propanoic acid, 2,2-dimethyl-, sodium salt", "Sodium neopentanoate", "Sodium trimethylacetate", "Sodium 2,2-dimethylpropanoate", "Trimethylacetic acid sodium salt", "Sodium pivalate", "Sodium 2,2-dimethylpropionate", "2,2-Dimethylpropionic acid sodium salt", "Sodium tert-butylcarboxylate", "2,2-Dimethylpropanoic acid sodium salt"], "SMILES": "C(C(O)=O)(C)(C)C.[Na]", "physical_data": {"Molecular Weight": "", "Molecular Formula": "C5H10O2.Na", "Boiling Point": "100-102 \u00b0C @ Press: 10 Torr", "Melting Point": "315 \u00b0C", "Density": "0.902 g/cm\u00b3 @ Temp: 22 \u00b0C"}}