{"cas_no": "1184-58-3", "cn_name": "\u4e8c\u7532\u57fa\u6c2f\u5316\u94dd", "en_name": ["Chlorodimethylaluminum", "Aluminum, chlorodimethyl-", "Aluminum, dimethyl-, chloride", "Chlorodimethylaluminum", "Dimethylaluminum chloride", "Dimethylchloroaluminum", "Dimethylchloroalane", "Dimethylchloralane"], "SMILES": "[Al](C)(C)Cl", "physical_data": {"Molecular Weight": "", "Molecular Formula": "C2H6AlCl", "Boiling Point": "126-127 \u00b0C", "Melting Point": "-21 \u00b0C", "Density": "0.996 g/cm\u00b3"}}