{"cas_no": "1184-84-5", "cn_name": "\u4e59\u70ef\u57fa\u78fa\u9178", "en_name": ["Vinylsulfonic acid", "Ethenesulfonic acid", "Ethylenesulfonic acid", "Vinylsulfonic acid", "VSA-S", "VSA-H"], "SMILES": "S(C=C)(=O)(=O)O", "physical_data": {"Molecular Weight": "108.12", "Molecular Formula": "C2H4O3S", "Boiling Point": "125 \u00b0C", "Density": "1.3921 g/cm\u00b3 @ Temp: 25 \u00b0C"}}