{"cas_no": "1184-78-7", "cn_name": "\u4e09\u7532\u80faN-\u6c27\u5316\u7269", "en_name": ["Trimethylamine oxide", "Methanamine, N,N-dimethyl-, N-oxide", "Trimethylamine, N-oxide", "TMAO", "Trimethylamine oxide", "Triox", "N,N-Dimethylmethanamine N-oxide", "NSC 408426"], "SMILES": "N(C)(C)(C)=O", "physical_data": {"Molecular Weight": "75.11", "Molecular Formula": "C3H9NO", "Melting Point": "208 \u00b0C"}}