{"cas_no": "1184-76-5", "cn_name": "\u4e8c\u7898\u4e8c\u6c1f\u7532\u70f7", "en_name": ["Methane, difluorodiiodo-", "Methane, difluorodiiodo-", "Difluorodiiodomethane", "Diiododifluoromethane"], "SMILES": "C(F)(F)(I)I", "physical_data": {"Molecular Weight": "303.82", "Molecular Formula": "CF2I2", "Melting Point": "-72 \u00b0C"}}