{"cas_no": "118468-18-1", "cn_name": "4-\u82ef\u6c27\u57fa\u82ef\u4e59\u80fa", "en_name": ["4-Phenoxyphenethylamine", "Benzeneethanamine, 4-phenoxy-", "4-Phenoxybenzeneethanamine", "2-(4-Phenoxyphenyl)ethyl amine", "4-Phenoxyphenethylamine", "2-(4-Phenoxyphenyl)ethanamine", "2-(4-Phenoxyphenyl)ethan-1-amine"], "SMILES": "O(C1=CC=C(CCN)C=C1)C2=CC=CC=C2", "physical_data": {"Molecular Weight": "213.27", "Molecular Formula": "C14H15NO", "Boiling Point": "169-173 \u00b0C @ Press: 12.5 Torr"}}