{"cas_no": "1185-81-5", "cn_name": "\u4e8c(\u5341\u4e8c\u70f7\u786b\u57fa)\u4e8c\u4e01\u57fa\u9521", "en_name": ["Dibutylbis(dodecylthio)stannane", "Stannane, dibutylbis(dodecylthio)-", "Tin, dibutylbis(dodecylthio)-", "Dibutylbis(dodecylthio)stannane", "Dibutyltin bis(lauryl mercaptide)", "Dibutylbis(dodecylthio)tin", "Mellite 39", "Dibutyltin bis(dodecyl mercaptide)", "Bis(dodecylthio)dibutyltin", "Advastab TM 918", "Mellite 139", "Thermolite 20", "Dibutyltin S,S\u2032-bis(dodecyl mercaptide)", "Dibutyltin dilauryl mercaptide", "Mark A", "Dabco 120", "UL 32", "Fomrez UL 32", "NSC 65503", "T 20", "Dabco T 120", "T 120", "Di(dodecylmercapto)dibutyl tin"], "SMILES": "[Sn](SCCCCCCCCCCCC)(SCCCCCCCCCCCC)(CCCC)CCCC", "physical_data": {"Molecular Weight": "635.72", "Molecular Formula": "C32H68S2Sn", "Boiling Point": "145 \u00b0C", "Melting Point": "-10 \u00b0C", "Density": "1.045 g/cm\u00b3"}}