{"cas_no": "118525-40-9", "cn_name": "\u53bb\u6c34\u6deb\u7f8a\u85ff\u9ec4\u7d20", "en_name": ["Icaritin", "4H-1-Benzopyran-4-one, 3,5,7-trihydroxy-2-(4-methoxyphenyl)-8-(3-methyl-2-buten-1-yl)-", "4H-1-Benzopyran-4-one, 3,5,7-trihydroxy-2-(4-methoxyphenyl)-8-(3-methyl-2-butenyl)-", "3,5,7-Trihydroxy-2-(4-methoxyphenyl)-8-(3-methyl-2-buten-1-yl)-4H-1-benzopyran-4-one", "Icaritin", "AF 40", "3,5,7-Trihydroxy-2-(4-methoxyphenyl)-8-(3-methylbut-2-enyl)chromen-4-one"], "SMILES": "C(C=C(C)C)C1=C2C(C(=O)C(O)=C(O2)C3=CC=C(OC)C=C3)=C(O)C=C1O", "physical_data": {"Molecular Weight": "368.38", "Molecular Formula": "C21H20O6", "Melting Point": "239-239.5 \u00b0C"}}