{"cas_no": "1185-53-1", "cn_name": "\u4e09\u7f9f\u7532\u57fa\u6c28\u57fa\u7532\u70f7\u76d0\u9178\u76d0", "en_name": ["Tris(hydroxymethyl)aminomethane hydrochloride", "1,3-Propanediol, 2-amino-2-(hydroxymethyl)-, hydrochloride (1:1)", "1,3-Propanediol, 2-amino-2-(hydroxymethyl)-, hydrochloride", "Tris chloride", "Tris hydrochloride", "Tris(hydroxymethyl)aminomethane hydrochloride", "Tromethamine hydrochloride", "Trizma hydrochloride", "2-Amino-2-(hydroxymethyl)-1,3-propanediol hydrochloride", "Tri(hydroxymethyl)aminomethane hydrochloride", "T 6666", "Tris-hydrochloric acid", "Tris-HCl", "T 105289", "Orthocarbamic acid, methyl-, hydrochloride", "Methanetriol, 1-(methylamino)-, hydrochloride (1:1)"], "SMILES": "C(CO)(CO)(CO)N.Cl", "physical_data": {"Molecular Weight": "", "Molecular Formula": "C4H11NO3.ClH", "Melting Point": "150.0-150.8 \u00b0C"}}