{"cas_no": "1185256-03-4", "cn_name": "2-\u53bb\u4e59\u6c27\u57fa-2-\u7f9f\u57fa-2H-2-\u4e59\u57fa\u574e\u5730\u6c99\u5766\u897f\u6765\u66ff\u6614\u916f", "en_name": ["1-[[(Cyclohexyloxy)carbonyl]oxy]ethyl 3-[[2\u2032-(2-ethyl-2H-tetrazol-5-yl)[1,1\u2032-biphenyl]-4-yl]methyl]-2,3-dihydro-2-oxo-1H-benzimidazole-4-carboxylate", "1H-Benzimidazole-4-carboxylic acid, 3-[[2\u2032-(2-ethyl-2H-tetrazol-5-yl)[1,1\u2032-biphenyl]-4-yl]methyl]-2,3-dihydro-2-oxo-, 1-[[(cyclohexyloxy)carbonyl]oxy]ethyl ester", "1-[[(Cyclohexyloxy)carbonyl]oxy]ethyl 3-[[2\u2032-(2-ethyl-2H-tetrazol-5-yl)[1,1\u2032-biphenyl]-4-yl]methyl]-2,3-dihydro-2-oxo-1H-benzimidazole-4-carboxylate", "1-(((Cyclohexyloxy)carbonyl)oxy)ethyl 1-((2\u2032-(2-ethyl-2H-tetrazol-5-yl)-[1,1\u2032-biphenyl]-4-yl)methyl)-2-hydroxy-1H-benzo[d]imidazole-7-carboxylate"], "SMILES": "C(N1C2=C(C(OC(OC(OC3CCCCC3)=O)C)=O)C=CC=C2NC1=O)C4=CC=C(C=C4)C5=C(C=CC=C5)C6=NN(CC)N=N6", "physical_data": {"Molecular Weight": "610.66", "Molecular Formula": "C33H34N6O6", "Melting Point": "173-176 \u00b0C"}}