{"cas_no": "1185-39-3", "cn_name": "2,2-\u4e8c\u7532\u57fa\u620a\u9178", "en_name": ["2,2-Dimethylpentanoic acid", "Pentanoic acid, 2,2-dimethyl-", "Valeric acid, 2,2-dimethyl-", "2,2-Dimethylpentanoic acid", "2,2-Dimethylvaleric acid", "\u03b1,\u03b1-Dimethylvaleric acid", "NSC 61983"], "SMILES": "C(CCC)(C(O)=O)(C)C", "physical_data": {"Molecular Weight": "130.18", "Molecular Formula": "C7H14O2", "Boiling Point": "101-102 \u00b0C @ Press: 11 Torr", "Melting Point": "71 \u00b0C", "Density": "0.8833 g/cm\u00b3 @ Temp: 20 \u00b0C"}}