{"cas_no": "118684-32-5", "cn_name": "3-(\u6eb4\u7532\u57fa)\u82ef\u57fa\u6c28\u57fa\u7532\u9178\u53d4\u4e01\u916f", "en_name": ["1,1-Dimethylethyl N-[3-(bromomethyl)phenyl]carbamate", "Carbamic acid, N-[3-(bromomethyl)phenyl]-, 1,1-dimethylethyl ester", "Carbamic acid, [3-(bromomethyl)phenyl]-, 1,1-dimethylethyl ester", "1,1-Dimethylethyl N-[3-(bromomethyl)phenyl]carbamate", "m-(tert-Butoxycarbonylamino)benzyl bromide", "3-[(tert-Butoxycarbonyl)amino]benzyl bromide", "(3-Bromomethylphenyl)carbamic acid tert-butyl ester", "tert-Butyl 3-(bromomethyl)phenylcarbamate"], "SMILES": "N(C(OC(C)(C)C)=O)C1=CC(CBr)=CC=C1", "physical_data": {"Molecular Weight": "286.16", "Molecular Formula": "C12H16BrNO2", "Melting Point": "122 \u00b0C"}}