{"cas_no": "1186-52-3", "cn_name": "\u4e59\u9178-D3", "en_name": ["Acetic acid-d4", "Acetic-d3 acid-d", "Acetic acid-d4", "Tetradeuteroacetic acid", "Perdeuterioacetic acid", "Acetic acid (CD3COOD)", "Tetradeuterioacetic acid", "Perdeuteroacetic acid"], "SMILES": "C(C([2H])([2H])[2H])(O)=O", "physical_data": {"Molecular Weight": "", "Molecular Formula": "C2D4O2", "Melting Point": "15.8-16 \u00b0C", "Density": "1.137 g/cm\u00b3 @ Temp: 25 \u00b0C"}}