{"cas_no": "1186-10-3", "cn_name": "\u4e8c\u4e59\u57fa(3-\u6eb4\u4e19\u57fa)\u81a6\u9178\u916f", "en_name": ["Diethyl P-(3-bromopropyl)phosphonate", "Phosphonic acid, P-(3-bromopropyl)-, diethyl ester", "Phosphonic acid, (3-bromopropyl)-, diethyl ester", "Diethyl P-(3-bromopropyl)phosphonate", "Diethyl (3-bromopropyl)phosphonate", "NSC 138345", "(3-Bromopropyl)phosphonic acid diethyl ester", "1-Bromo-3-diethoxyphosphorylpropane", "Phosphonic acid, P-(2-bromobutyl)-, diethyl ester", "3-Bromo-1-propanephosphonic acid diethyl ester"], "SMILES": "P(CCCBr)(OCC)(OCC)=O", "physical_data": {"Molecular Weight": "259.08", "Molecular Formula": "C7H16BrO3P", "Boiling Point": "87 \u00b0C @ Press: 0.06 Torr", "Density": "1.3072 g/cm\u00b3 @ Temp: 20 \u00b0C"}}