{"cas_no": "1186-73-8", "cn_name": "\u7532\u70f7\u4e09\u7532\u9178\u4e09\u7532\u916f", "en_name": ["1,1,1-Trimethyl methanetricarboxylate", "Methanetricarboxylic acid, 1,1,1-trimethyl ester", "Methanetricarboxylic acid, trimethyl ester", "1,1,1-Trimethyl methanetricarboxylate", "Trimethyl methanetricarboxylate", "Tricarbomethoxymethane"], "SMILES": "C(C(OC)=O)(C(OC)=O)C(OC)=O", "physical_data": {"Molecular Weight": "190.15", "Molecular Formula": "C7H10O6", "Boiling Point": "128 \u00b0C @ Press: 15 Torr", "Melting Point": "45-46 \u00b0C"}}