{"cas_no": "118612-00-3", "cn_name": "N,N-\u4e8c\u7532\u57fa\u82ef\u94f5\u56db(\u4e94\u6c1f\u82ef\u57fa)\u787c\u9178\u76d0", "en_name": ["Dimethylanilinium tetrakis(pentafluorophenyl)borate", "Borate(1-), tetrakis(pentafluorophenyl)-, hydrogen, compd. with N,N-dimethylbenzenamine (1:1:1)", "Benzene, pentafluoro-, boron complex", "Benzenamine, N,N-dimethyl-, tetrakis(pentafluorophenyl)borate(1-)", "N,N-Dimethylanilinium tetrakis(pentafluorophenyl)borate", "Dimethylanilinium tetrakis(pentafluorophenyl)borate", "Dimethylphenylammonium tetrakis(pentafluorophenyl)borate", "N,N-Dimethylanilinium tetrakis(perfluorophenyl)borate", "BF 20", "N,N-Dimethylphenylamine tetrakis(pentafluorophenyl)borate", "Dimethylphenylammonium tetrakis(perfluorophenyl)borate", "Dimethyl(phenyl)ammonium tetrakis(2,3,4,5,6-pentafluorophenyl)borate", "Phenyldimethylammonium tetrakis(pentafluorophenyl)borate", "N,N-Dimethylanilium tetrakis(pentafluorophenyl)borate", "N,N-Dimethylanilinium (tetrapentafluorophenyl)borate", "Dimethylphenylammonium tetrapentafluorophenylborate", "N,N-Dimethylanilinium tetra(perfluorophenyl)borate", "DMAH-BF 20", "Borate(1-), tetrakis(2,3,4,5,6-pentafluorophenyl)-, hydrogen, compd. with N,N-dimethylbenzenamine (1:1:1)"], "SMILES": "N(C)(C)C1=CC=CC=C1.[B+3]([C-]=1C(F)=C(F)C(F)=C(F)C1F)([C-]=2C(F)=C(F)C(F)=C(F)C2F)([C-]=3C(F)=C(F)C(F)=C(F)C3F)[C-]=4C(F)=C(F)C(F)=C(F)C4F.[H+]", "physical_data": {"Molecular Weight": "", "Molecular Formula": "C24BF20.C8H11N.H", "Melting Point": "225-227 \u00b0C (decomp)"}}