{"cas_no": "118758-48-8", "cn_name": "3-\u82ef\u57fa-L-\u812f\u6c28\u9178", "en_name": ["(3R)-3-Phenyl-L-proline", "L-Proline, 3-phenyl-, (3R)-", "L-Proline, 3-phenyl-, trans-", "(3R)-3-Phenyl-L-proline", "(3R)-Phenylpyrrolidine-(2S)-carboxylic acid", "(2S,3R)-3-Phenylpyrrolidine-2-carboxylic acid"], "SMILES": "C(O)(=O)C1C(CCN1)C2=CC=CC=C2", "physical_data": {"Molecular Weight": "191.23", "Molecular Formula": "C11H13NO2", "Melting Point": "284-285 \u00b0C"}}