{"cas_no": "1187594-09-7", "cn_name": "\u5df4\u745e\u514b\u66ff\u5c3c", "en_name": ["Baricitinib", "3-Azetidineacetonitrile, 1-(ethylsulfonyl)-3-[4-(7H-pyrrolo[2,3-d]pyrimidin-4-yl)-1H-pyrazol-1-yl]-", "1-(Ethylsulfonyl)-3-[4-(7H-pyrrolo[2,3-d]pyrimidin-4-yl)-1H-pyrazol-1-yl]-3-azetidineacetonitrile", "LY 3009104", "Baricitinib", "INCB 028050", "INCB 28050", "Olumiant", "2-(3-(4-(3H-Pyrrolo[2,3-d]pyrimidin-4-yl)-1H-pyrazol-1-yl)-1-(ethylsulfonyl)azetidin-3-yl)acetonitrile"], "SMILES": "C(C#N)C1(CN(S(CC)(=O)=O)C1)N2C=C(C=N2)C3=C4C(=NC=N3)NC=C4", "physical_data": {"Molecular Weight": "371.42", "Molecular Formula": "C16H17N7O2S", "Melting Point": "193-195 \u00b0C"}}