{"cas_no": "1187-58-2", "cn_name": "N-\u7532\u57fa\u4e19\u9170\u80fa", "en_name": ["N-Methylpropionamide", "Propanamide, N-methyl-", "Propionamide, N-methyl-", "N-Methylpropanamide", "N-Methylpropionamide", "N-Methylpropionic acid amide", "NSC 54114"], "SMILES": "C(CC)(NC)=O", "physical_data": {"Molecular Weight": "87.12", "Molecular Formula": "C4H9NO", "Boiling Point": "148 \u00b0C", "Melting Point": "-30.9 \u00b0C"}}