{"cas_no": "1187-42-4", "cn_name": "\u4e8c\u6c28\u57fa\u9a6c\u6765\u8148", "en_name": ["Diaminomaleonitrile", "2-Butenedinitrile, 2,3-diamino-, (2Z)-", "Maleonitrile, diamino-", "2-Butenedinitrile, 2,3-diamino-, (Z)-", "(2Z)-2,3-Diamino-2-butenedinitrile", "Diaminomaleonitrile", "Hydrogen cyanide tetramer", "2,3-Diaminomaleonitrile", "DAMN", "Diaminomaleodinitrile"], "SMILES": "C(=C(C#N)N)(C#N)N", "physical_data": {"Molecular Weight": "108.10", "Molecular Formula": "C4H4N4", "Melting Point": "182-184 \u00b0C"}}