{"cas_no": "1187-84-4", "cn_name": "S-\u7532\u57fa-L-\u534a\u80f1\u6c28\u9178", "en_name": ["(-)-S-Methyl-L-cysteine", "L-Cysteine, S-methyl-", "Alanine, 3-(methylthio)-, L-", "S-Methyl-L-cysteine", "S-Methylcysteine", "L-S-Methylcysteine", "3-(Methylthio)alanine", "(-)-S-Methyl-L-cysteine", "S-Methyl-(R)-cysteine", "NSC 15387", "(2R)-2-Amino-3-(methylsulfanyl)propanoic acid", "(2R)-2-Azaniumyl-3-methylsulfanylpropanoate"], "SMILES": "C(CSC)(C(O)=O)N", "physical_data": {"Molecular Weight": "135.18", "Molecular Formula": "C4H9NO2S", "Melting Point": "248 \u00b0C (decomp)"}}