{"cas_no": "1187595-85-2", "cn_name": "2-[1-(\u4e59\u57fa\u78fa\u9170\u57fa)-3-\u6c2e\u6742\u73af\u4e01\u4e9a\u57fa]\u4e59\u8148", "en_name": ["2-[1-(Ethylsulfonyl)-3-azetidinylidene]acetonitrile", "Acetonitrile, 2-[1-(ethylsulfonyl)-3-azetidinylidene]-", "2-[1-(Ethylsulfonyl)-3-azetidinylidene]acetonitrile", "[1-(Ethylsulfonyl)azetidin-3-ylidene]acetonitrile", "2-[1-(Ethanesulfonyl)azetidin-3-ylidene]acetonitrile"], "SMILES": "S(CC)(=O)(=O)N1CC(=CC#N)C1", "physical_data": {"Molecular Weight": "186.23", "Molecular Formula": "C7H10N2O2S", "Melting Point": "58-60 \u00b0C"}}