{"cas_no": "118712-89-3", "cn_name": "\u56db\u6c1f\u82ef\u83ca\u916f", "en_name": ["Transfluthrin", "Cyclopropanecarboxylic acid, 3-(2,2-dichloroethenyl)-2,2-dimethyl-, (2,3,5,6-tetrafluorophenyl)methyl ester, (1R,3S)-", "Cyclopropanecarboxylic acid, 3-(2,2-dichloroethenyl)-2,2-dimethyl-, (2,3,5,6-tetrafluorophenyl)methyl ester, (1R-trans)-", "Benfluthrin", "2,3,5,6-Tetrafluorobenzyl (+)-(1R-trans)-2,2-dimethyl-3-(2,2-dichlorovinyl)cyclopropanecarboxylate", "Transfluthrin", "Bayothrin", "(2,3,5,6-Tetrafluorophenyl)methyl (1R)-trans-3-(2,2-dichlorovinyl)-2,2-dimethylcyclopropane-carboxylate", "Molestrel", "2,3,5,6-Tetrafluorobenzyl (1R,3S)-3-(2,2-dichlorovinyl)-2,2-dimethylcyclopropanecarboxylate"], "SMILES": "C(=C(Cl)Cl)C1C(C(OCC2=C(F)C(F)=CC(F)=C2F)=O)C1(C)C", "physical_data": {"Molecular Weight": "371.15", "Molecular Formula": "C15H12Cl2F4O2", "Boiling Point": "135 \u00b0C @ Press: 0.15 Torr", "Melting Point": "32 \u00b0C"}}