{"cas_no": "1187-74-2", "cn_name": "\u4e19\u916e\u57fa\u4e01\u4e8c\u9178\u4e8c\u4e59\u916f", "en_name": ["1,4-Diethyl 2-(2-oxopropyl)butanedioate", "Butanedioic acid, 2-(2-oxopropyl)-, 1,4-diethyl ester", "Succinic acid, acetonyl-, diethyl ester", "Butanedioic acid, (2-oxopropyl)-, diethyl ester", "1,4-Diethyl 2-(2-oxopropyl)butanedioate", "Diethyl acetonylsuccinate", "(2-Oxopropyl)butanedioic acid diethyl ester"], "SMILES": "C(CC(OCC)=O)(C(OCC)=O)CC(C)=O", "physical_data": {"Molecular Weight": "230.26", "Molecular Formula": "C11H18O5", "Boiling Point": "135 \u00b0C @ Press: 1.3 Torr"}}