{"cas_no": "1187-59-3", "cn_name": "N-\u7532\u57fa-2-\u4e19\u70ef\u9170\u80fa", "en_name": ["Methylacrylamide", "2-Propenamide, N-methyl-", "Acrylamide, N-methyl-", "N-Methyl-2-propenamide", "N-Methylacrylamide", "Methylacrylamide"], "SMILES": "C(C=C)(NC)=O", "physical_data": {"Molecular Weight": "85.10", "Molecular Formula": "C4H7NO", "Boiling Point": "84 \u00b0C @ Press: 3.0 Torr", "Melting Point": "102-106 \u00b0C", "Density": "0.9872 g/cm\u00b3 @ Temp: 20 \u00b0C"}}