{"cas_no": "1187-03-7", "cn_name": "\u56db\u4e59\u57fa\u8132", "en_name": ["N,N,N\u2032,N\u2032-Tetraethylurea", "Urea, N,N,N\u2032,N\u2032-tetraethyl-", "Urea, tetraethyl-", "Urea, 1,1,3,3-tetraethyl-", "N,N,N\u2032,N\u2032-Tetraethylurea", "Tetraethylurea", "1,1,3,3-Tetraethylurea", "Tetraethylcarbamide"], "SMILES": "C(N(CC)CC)(N(CC)CC)=O", "physical_data": {"Molecular Weight": "172.27", "Molecular Formula": "C9H20N2O", "Boiling Point": "209 \u00b0C", "Density": "0.919 g/cm\u00b3 @ Temp: 20 \u00b0C"}}