{"cas_no": "1187-93-5", "cn_name": "\u4e09\u6c1f\u7532\u57fa\u4e09\u6c1f\u4e59\u70ef\u57fa\u919a", "en_name": ["Perfluoro(methyl vinyl ether)", "Ethene, 1,1,2-trifluoro-2-(trifluoromethoxy)-", "Ether, trifluoromethyl trifluorovinyl", "Ethene, trifluoro(trifluoromethoxy)-", "1,1,2-Trifluoro-2-(trifluoromethoxy)ethene", "Trifluoromethyl trifluorovinyl ether", "Trifluoro(trifluoromethoxy)ethylene", "Perfluoro(methyl vinyl ether)", "3-Oxaperfluorobutene", "Perfluorovinyl perfluoromethyl ether", "Trifluoromethoxytrifluoroethylene", "PMVE", "(Trifluorovinyl)(trifluoromethyl)ether", "Perfluorovinyl trifluoromethyl ether"], "SMILES": "C(OC(F)(F)F)(=C(F)F)F", "physical_data": {"Molecular Weight": "166.02", "Molecular Formula": "C3F6O", "Boiling Point": "-22 \u00b0C"}}