{"cas_no": "1188-38-1", "cn_name": "N-\u6c28\u57fa\u7532\u9170-L-\u8c37\u6c28\u9178", "en_name": ["Carbamylglutamic acid", "L-Glutamic acid, N-(aminocarbonyl)-", "Glutamic acid, N-carbamoyl-, L-", "N-(Aminocarbonyl)-L-glutamic acid", "Ureidoglutaric acid", "N-Carbamoyl-S-glutamic acid", "Carbamylglutamic acid", "Carbamino-L-glutamic acid", "N-Carbamyl-L-glutamic acid", "N-Carbamoyl-L-glutamic acid", "Carglumic acid", "Carbaglu", "OE 312", "(S)-2-Ureidopentanedioic acid", "(2S)-2-(Carbamoylamino)pentanedioic acid", "Ucedane"], "SMILES": "C(CCC(O)=O)(NC(N)=O)C(O)=O", "physical_data": {"Molecular Weight": "190.15", "Molecular Formula": "C6H10N2O5", "Melting Point": "157-159 \u00b0C"}}