{"cas_no": "1188-02-9", "cn_name": "2-\u7532\u57fa\u5e9a\u9178", "en_name": ["2-Methylheptanoic acid", "Heptanoic acid, 2-methyl-", "2-Methylheptanoic acid", "\u03b1-Methylheptanoic acid", "(\u00b1)-2-Methylheptanoic acid"], "SMILES": "C(CCCCC)(C(O)=O)C", "physical_data": {"Molecular Weight": "144.21", "Molecular Formula": "C8H16O2", "Boiling Point": "121-122 \u00b0C @ Press: 13 Torr", "Density": "0.9122 g/cm\u00b3 @ Temp: 20 \u00b0C"}}