{"cas_no": "1188-33-6", "cn_name": "N,N-\u4e8c\u7532\u57fa\u7532\u9170\u80fa\u4e8c\u4e59\u57fa\u7f29\u919b", "en_name": ["Dimethylformamide diethyl acetal", "Methanamine, 1,1-diethoxy-N,N-dimethyl-", "Trimethylamine, 1,1-diethoxy-", "1,1-Diethoxy-N,N-dimethylmethanamine", "Formamide, N,N-dimethyl-, diethyl acetal", "Dimethylformamide diethyl acetal", "N,N-Dimethylformamide diethyl acetal", "DMF diethyl acetal", "DMF di-Et acetal", "NSC 377652", "(Diethoxymethyl)dimethylamine"], "SMILES": "C(OCC)(OCC)N(C)C", "physical_data": {"Molecular Weight": "147.22", "Molecular Formula": "C7H17NO2", "Boiling Point": "129 \u00b0C"}}