{"cas_no": "118864-75-8", "cn_name": "(S)-1-\u82ef\u57fa-1,2,3,4-\u56db\u6c22\u5f02\u55b9\u5549", "en_name": ["(+)-1-Phenyl-1,2,3,4-tetrahydroisoquinoline", "Isoquinoline, 1,2,3,4-tetrahydro-1-phenyl-, (1S)-", "Isoquinoline, 1,2,3,4-tetrahydro-1-phenyl-, (S)-", "(1S)-1,2,3,4-Tetrahydro-1-phenylisoquinoline", "(S)-1-Phenyl-1,2,3,4-tetrahydroisoquinoline", "(1S)-1-Phenyl-1,2,3,4-tetrahydroisoquinoline", "(+)-1-Phenyl-1,2,3,4-tetrahydroisoquinoline", "(S)-(+)-1-Phenyl-1,2,3,4-tetrahydroisoquinoline", "(1S)-1-Phenyl-1,2,3,4-tetrahydroisoquinoline", "(-)-(S)-1-Phenyl-1,2,3,4-tetrahydroisoquinoline", "(S)-1,2,3,4-Tetrahydro-1-phenylisoquinoline"], "SMILES": "C1(C=2C(CCN1)=CC=CC2)C3=CC=CC=C3", "physical_data": {"Molecular Weight": "209.29", "Molecular Formula": "C15H15N", "Melting Point": "80-82 \u00b0C"}}