{"cas_no": "1188-37-0", "cn_name": "N-\u4e59\u9170-L-\u8c37\u6c28\u9178", "en_name": ["N-Acetyl-L-glutamic acid", "L-Glutamic acid, N-acetyl-", "Glutamic acid, N-acetyl-, L-", "N-Acetyl-L-glutamic acid", "N-Acetylglutamic acid", "N-Acetyl-S-glutamic acid", "Acetylglutamic acid", "L-N-Acetylglutamic acid", "\u03b1-(N-Acetyl)-L-glutamic acid", "N-Acetyl-L-glutaminic acid", "(2S)-2-Acetamidopentanedioic acid"], "SMILES": "C(CCC(O)=O)(NC(C)=O)C(O)=O", "physical_data": {"Molecular Weight": "189.17", "Molecular Formula": "C7H11NO5", "Melting Point": "195 \u00b0C"}}