{"cas_no": "1188-21-2", "cn_name": "N-\u4e59\u9170-L-\u4eae\u6c28\u9178", "en_name": ["N-Acetyl-L-leucine", "L-Leucine, N-acetyl-", "Leucine, N-acetyl-, L-", "N-Acetyl-L-leucine", "N-Acetylleucine", "Acetyl-L-leucine", "N-Acetyl-L-(-)-leucine", "Acetylleucine", "NSC 206316", "(S)-2-Acetamido-4-methylpentanoic acid", "(-)-N-Acetyl-L-leucine", "(2S)-2-Acetamido-4-methylpentanoic acid"], "SMILES": "C(CC(C)C)(NC(C)=O)C(O)=O", "physical_data": {"Molecular Weight": "173.21", "Molecular Formula": "C8H15NO3", "Melting Point": "189-190 \u00b0C"}}