{"cas_no": "1189-93-1", "cn_name": "1,1,3,3,5,5-\u516d\u7532\u57fa\u4e09\u7845\u6c27\u70f7", "en_name": ["1,1,3,3,5,5-Hexamethyltrisiloxane", "Trisiloxane, 1,1,3,3,5,5-hexamethyl-", "1,1,3,3,5,5-Hexamethyltrisiloxane", "DMS 03H", "2,4,4,6-Tetramethyl-3,5-dioxa-2,4,6-trisilaheptane"], "SMILES": "O([Si](O[SiH](C)C)(C)C)[SiH](C)C", "physical_data": {"Molecular Weight": "208.48", "Molecular Formula": "C6H20O2Si3", "Boiling Point": "128 \u00b0C", "Density": "0.822 g/cm\u00b3"}}