{"cas_no": "118909-22-1", "cn_name": "\u9a6c\u6765\u9178\u7ef4\u5416\u5576", "en_name": ["Velnacrine maleate", "1-Acridinol, 9-amino-1,2,3,4-tetrahydro-, (2Z)-2-butenedioate (1:1)", "1-Acridinol, 9-amino-1,2,3,4-tetrahydro-, (\u00b1)-, (Z)-2-butenedioate (1:1) (salt)", "1-Acridinol, 9-amino-1,2,3,4-tetrahydro-, (2Z)-2-butenedioate (1:1) (salt)", "HP 029", "Velnacrine maleate", "P 83-6029A", "Velnacrine hydrogen maleate", "Mentane", "1-Acridinol, 9-amino-1,2,3,4-tetrahydro-, (Z)-2-butenedioate (1:1) (salt)"], "SMILES": "C(=CC(O)=O)C(O)=O.NC1=C2C(=NC=3C1=CC=CC3)CCCC2O", "physical_data": {"Molecular Weight": "", "Molecular Formula": "C13H14N2O.C4H4O4", "Melting Point": "171-173 \u00b0C"}}