{"cas_no": "1189-71-5", "cn_name": "\u6c2f\u78fa\u9170\u5f02\u6c30\u9178\u916f", "en_name": ["Chlorosulfonyl isocyanate", "Sulfuryl chloride isocyanate", "Isocyanic acid, anhydride with chlorosulfonic acid", "Chlorosulfuric acid, anhydride with isocyanic acid", "Isocyanic acid, anhydride with chlorosulfuric acid", "Chlorosulfonyl isocyanate", "N-Chlorosulfonyl isocyanate", "Chlorsulfonyl isocyanate", "CSI", "Sulfonyl chloride isocyanate", "Sulfurisocyanatidic chloride", "Chlorosulfonamide isocyanate", "[(Chlorosulfonyl)imino]methanone"], "SMILES": "N(S(Cl)(=O)=O)=C=O", "physical_data": {"Molecular Weight": "141.53", "Molecular Formula": "CClNO3S", "Boiling Point": "107 \u00b0C", "Melting Point": "-44 \u00b0C", "Density": "1.626 g/cm\u00b3 @ Temp: 20 \u00b0C"}}