{"cas_no": "1189-09-9", "cn_name": "\u9999\u53f6\u9178\u7532\u916f", "en_name": ["Methyl geranate", "2,6-Octadienoic acid, 3,7-dimethyl-, methyl ester, (2E)-", "2,6-Octadienoic acid, 3,7-dimethyl-, methyl ester, (E)-", "Geranic acid methyl ester", "2,6-Octadienoic acid, 3,7-dimethyl-, methyl ester, trans-", "Methyl trans-geranate", "trans-Geranic acid methyl ester", "Methyl geranate", "Methyl (E)-geranate", "Methyl (E)-3,7-dimethylocta-2,6-dienoate"], "SMILES": "C(=CC(OC)=O)(CCC=C(C)C)C", "physical_data": {"Molecular Weight": "182.26", "Molecular Formula": "C11H18O2", "Boiling Point": "70-73 \u00b0C @ Press: 3 Torr"}}