{"cas_no": "118949-61-4", "cn_name": "(S,S)-2,6-\u53cc(4-\u5f02\u4e19\u57fa-2-\u6076\u5511\u5549-2-\u57fa)\u5421\u5576", "en_name": ["2,6-Bis[(4S)-4,5-dihydro-4-(1-methylethyl)-2-oxazolyl]pyridine", "Pyridine, 2,6-bis[(4S)-4,5-dihydro-4-(1-methylethyl)-2-oxazolyl]-", "Pyridine, 2,6-bis[4,5-dihydro-4-(1-methylethyl)-2-oxazolyl]-, [S-(R*,R*)]-", "2,6-Bis[(4S)-4,5-dihydro-4-(1-methylethyl)-2-oxazolyl]pyridine", "2,6-Bis[(4S)-4-isopropyl-2-oxazolin-2-yl]pyridine", "2,6-Bis[(4S)-4-isopropyloxazolin-2-yl]pyridine", "2,6-Bis[(4S)-(-)-isopropyl-2-oxazolin-2-yl]pyridine", "2,6-Bis((S)-4-isopropyl-2-oxazolin-2-yl)pyridine", "2,6-Bis[(4S)-isopropyl-2-oxazolin-2-yl]pyridine", "(S)-iPr-pybox", "2,6-Bis[(4S)-4,5-dihydro-4-isopropyloxazol-2-yl]pyridine", "(S,S)-iPr-Pybox", "2,6-Bis((4S)-4-isopropyl-4,5-dihydrooxazol-2-yl)pyridine", "2,6-Bis(4-(S)-isopropyloxazolinyl)pyridine", "2,6-Bis((S)-4-isopropyl-4,5-dihydrooxazol-2-yl)pyridine", "(S,S)-iPr-PyBox"], "SMILES": "C(C)(C)C1N=C(OC1)C=2N=C(C=CC2)C3=NC(C(C)C)CO3", "physical_data": {"Molecular Weight": "301.38", "Molecular Formula": "C17H23N3O2", "Melting Point": "151-154 \u00b0C"}}