{"cas_no": "118974-02-0", "cn_name": "\u70df\u66f2\u9709\u6bd2\u7d20c", "en_name": ["Fumitremorgin C", "5H,14H-Pyrrolo[1\u2032\u2032,2\u2032\u2032:4\u2032,5\u2032]pyrazino[1\u2032,2\u2032:1,6]pyrido[3,4-b]indole-5,14-dione, 1,2,3,5a,6,11,12,14a-octahydro-9-methoxy-12-(2-methyl-1-propen-1-yl)-, (5aS,12S,14aS)-", "5H,14H-Pyrrolo[1\u2032\u2032,2\u2032\u2032:4\u2032,5\u2032]pyrazino[1\u2032,2\u2032:1,6]pyrido[3,4-b]indole-5,14-dione, 1,2,3,5a,6,11,12,14a-octahydro-9-methoxy-12-(2-methyl-1-propenyl)-, [5aS-(5a\u03b1,12\u03b2,14a\u03b1)]-", "5H,14H-Pyrrolo[1\u2032\u2032,2\u2032\u2032:4\u2032,5\u2032]pyrazino[1\u2032,2\u2032:1,6]pyrido[3,4-b]indole-5,14-dione, 1,2,3,5a,6,11,12,14a-octahydro-9-methoxy-12-(2-methyl-1-propenyl)-, (5aS,12S,14aS)-", "(5aS,12S,14aS)-1,2,3,5a,6,11,12,14a-Octahydro-9-methoxy-12-(2-methyl-1-propen-1-yl)-5H,14H-pyrrolo[1\u2032\u2032,2\u2032\u2032:4\u2032,5\u2032]pyrazino[1\u2032,2\u2032:1,6]pyrido[3,4-b]indole-5,14-dione", "Fumitremorgin C", "12\u03b1-Fumitremorgin C"], "SMILES": "C(=C(C)C)C1N2C(CC3=C1NC=4C3=CC=C(OC)C4)C(=O)N5C(C2=O)CCC5", "physical_data": {"Molecular Weight": "379.45", "Molecular Formula": "C22H25N3O3", "Melting Point": "259.5-260.5 \u00b0C"}}