{"cas_no": "118994-86-8", "cn_name": "\u6076\u5511-5-\u7532\u919b", "en_name": ["5-Oxazolecarboxaldehyde", "5-Oxazolecarboxaldehyde", "5-Formyloxazole", "1,3-Oxazole-5-carbaldehyde"], "SMILES": "C(=O)C1=CN=CO1", "physical_data": {"Molecular Weight": "97.07", "Molecular Formula": "C4H3NO2", "Melting Point": "30-32 \u00b0C"}}