{"cas_no": "119-47-1", "cn_name": "\u6297\u6c27\u52422246", "en_name": ["2,2\u2032-Methylenebis[4-methyl-6-tert-butylphenol]", "Phenol, 2,2\u2032-methylenebis[6-(1,1-dimethylethyl)-4-methyl-", "p-Cresol, 2,2\u2032-methylenebis[6-tert-butyl-", "2,2\u2032-Methylenebis[6-(1,1-dimethylethyl)-4-methylphenol]", "CAO 5", "AO 2246", "Advastab 405", "Antioxidant 2246", "2,2\u2032-Bis(4-methyl-6-tert-butylphenol)methane", "Lederle 2246", "Bisalkofen BP", "Bis(2-hydroxy-3-tert-butyl-5-methylphenyl)methane", "Bis(3-tert-butyl-2-hydroxy-5-methylphenyl)methane", "Bis(6-hydroxy-3-methyl-5-tert-butylphenyl)methane", "Calco 2246", "2,2\u2032-Methylenebis[6-tert-butyl-p-cresol]", "6,6\u2032-Di-tert-butyl-4,4\u2032-dimethyl-2,2\u2032-methylenediphenol", "BKF", "2,2\u2032-Methylenebis(6-tert-butyl-4-methylphenol)", "NG 2246", "Antioxidant 1", "Antioxidant BKF", "Antioxidant NG 2246", "AO 1 (antioxidant)", "2,2\u2032-Methylenebis[4-methyl-6-tert-butylphenol]", "Anti Ox", "CAO 14", "Chemanox 21", "Bis(5-methyl-3-tert-butyl-2-hydroxyphenyl)methane", "Catolin 14", "Nocrac NS 6", "AO 1", "Antage W 400", "Sumilizer MDP", "Cyanox 2246", "Vulkanox BKF", "MBP 5", "Agidol 2", "Antioxidant OMB", "Sumilizer MDP-S", "Santowhite PC", "Ongrostab 2246", "Product 2246", "6,6\u2032-Methylenebis(2-tert-butyl-4-methylphenol)", "Irganox 2246", "Lowinox 22M46", "Naftonox 22M46", "Yoshinox 2246R", "Bis(2-hydroxy-5-methyl-3-tert-butylphenyl)methane", "MDP", "3,3\u2032-Di-tert-butyl-2,2\u2032-dihydroxy-5,5\u2032-dimethyldiphenylmethane", "Plastanox 2246", "Yoshinox 2246G", "GERI-BP 002A", "Nonflex MPP", "NS 6", "Noclizer NS 6", "A 02246", "Additin RC 7115", "Lowinox 22M48", "2,2\u2032-Methylenebis[4-methyl-6-t-butylphenol]", "NSC 7781", "Sumilizer MDP 9", "Nonflex MBP", "Ionol 46", "2,2\u2032-Methylenebis(4-methyl-6-tert-butylphenol)", "Vanox MBPC", "Baynox Plus", "Antioxidant MBP", "6,6-Methylenebis(2-tert-butyl-4-methylphenol)", "2,2\u2032-Methylenebis(6-tert-butyl-p-cresol)", "Akrochem AO 235", "AO 235", "2,2- Methylene bis(4-methyl-6-tert-butyl-phenol)", "2,2\u2032-Methylidenebis(6-tert-butyl-4-methylphenol)", "Vulkanox BPH", "MDP-S", "2-tert-Butyl-6-[(3-tert-butyl-2-hydroxy-5-methylphenyl)methyl]-4-methylphenol", "W 400", "Antioxidant 235", "Irganox 235"], "SMILES": "C(C1=C(O)C(C(C)(C)C)=CC(C)=C1)C2=C(O)C(C(C)(C)C)=CC(C)=C2", "physical_data": {"Molecular Weight": "340.50", "Molecular Formula": "C23H32O2", "Melting Point": "118-128 \u00b0C", "Density": "107-110 g/cm\u00b3"}}