{"cas_no": "119-42-6", "cn_name": "2-\u73af\u5df1\u57fa\u82ef\u915a", "en_name": ["2-Cyclohexylphenol", "Phenol, 2-cyclohexyl-", "Phenol, o-cyclohexyl-", "2-Cyclohexylphenol", "o-Cyclohexylphenol", "NSC 6093"], "SMILES": "OC1=C(C2CCCCC2)C=CC=C1", "physical_data": {"Molecular Weight": "176.25", "Molecular Formula": "C12H16O", "Boiling Point": "153-154 \u00b0C @ Press: 22 Torr", "Melting Point": "66-67 \u00b0C"}}