{"cas_no": "119-23-3", "cn_name": "2,5-\u4e8c\u4e59\u57fa\u785d\u57fa\u82ef", "en_name": ["1,4-Diethoxy-2-nitrobenzene", "Benzene, 1,4-diethoxy-2-nitro-", "1,4-Diethoxy-2-nitrobenzene", "2-Nitrohydroquinone diethyl ether", "2,5-Diethoxynitrobenzene", "NSC 81234", "2,5-Diethoxy-1-nitrobenzene"], "SMILES": "N(=O)(=O)C1=C(OCC)C=CC(OCC)=C1", "physical_data": {"Molecular Weight": "211.21", "Molecular Formula": "C10H13NO4", "Melting Point": "-49 \u00b0C"}}