{"cas_no": "119-36-8", "cn_name": "\u6c34\u6768\u9178\u7532\u916f", "en_name": ["Methyl salicylate", "Benzoic acid, 2-hydroxy-, methyl ester", "Salicylic acid, methyl ester", "Methyl o-hydroxybenzoate", "Methyl salicylate", "Methyl 2-hydroxybenzoate", "o-Hydroxybenzoic acid methyl ester", "2-Hydroxybenzoic acid methyl ester", "Analgit", "Exagien", "Flucarmit", "2-(Methoxycarbonyl)phenol", "Anthrapole ND", "Wintergreen oil", "2-Carbomethoxyphenol", "NSC 8204", "Ben Gay", "Methyl ester of 2-hydroxy benzoic acid", "Methyl ester 2-hydroxy benzoic acid", "PredaLure", "Holly oil"], "SMILES": "C(OC)(=O)C1=C(O)C=CC=C1", "physical_data": {"Molecular Weight": "152.15", "Molecular Formula": "C8H8O3", "Boiling Point": "220-224 \u00b0C", "Melting Point": "-8.6 \u00b0C", "Density": "1.184 g/cm\u00b3 @ Temp: 25 \u00b0C"}}