{"cas_no": "119-32-4", "cn_name": "4-\u7532\u57fa-3-\u785d\u57fa\u82ef\u80fa", "en_name": ["4-Methyl-3-nitroaniline", "Benzenamine, 4-methyl-3-nitro-", "p-Toluidine, 3-nitro-", "4-Methyl-3-nitrobenzenamine", "3-Nitro-4-methylaniline", "2-Nitro-4-aminotoluene", "3-Nitro-p-toluidine", "4-Amino-2-nitrotoluene", "4-Methyl-3-nitroaniline", "m-Nitro-p-toluidine", "5-Nitro-4-toluidine", "3-Nitro-4-toluidine", "1-Amino-3-nitro-4-methylbenzene", "NSC 7731", "4-Methyl-3-nitrophenylamine"], "SMILES": "N(=O)(=O)C1=C(C)C=CC(N)=C1", "physical_data": {"Molecular Weight": "152.15", "Molecular Formula": "C7H8N2O2", "Melting Point": "77 \u00b0C"}}