{"cas_no": "119-65-3", "cn_name": "\u5f02\u55b9\u5549", "en_name": ["Isoquinoline", "Isoquinoline", "Benzo[c]pyridine", "2-Azanaphthalene", "2-Benzazine", "Benzopyridine", "\u03b2-Quinoline", "NSC 3395"], "SMILES": "C12=C(C=CC=C1)C=NC=C2", "physical_data": {"Molecular Weight": "129.16", "Molecular Formula": "C9H7N", "Boiling Point": "243.2 \u00b0C", "Melting Point": "26.47 \u00b0C", "Density": "1.099 g/cm\u00b3 @ Temp: 20 \u00b0C"}}