{"cas_no": "119-41-5", "cn_name": "\u4e59\u916f\u9ec4\u916e", "en_name": ["Efloxate", "Acetic acid, 2-[(4-oxo-2-phenyl-4H-1-benzopyran-7-yl)oxy]-, ethyl ester", "Acetic acid, [(4-oxo-2-phenyl-4H-1-benzopyran-7-yl)oxy]-, ethyl ester", "Efloxate", "Ethyl [(4-oxo-2-phenyl-4H-1-benzopyran-7-yl)oxy]acetate", "Flacethyle", "Oxyflavil", "Recordil", "Oxiflavil", "Angorlisin", "Coril", "Corosanin", "Dilatan Kore", "Domucor", "Re 1-0185"], "SMILES": "O=C1C=2C(OC(=C1)C3=CC=CC=C3)=CC(OCC(OCC)=O)=CC2", "physical_data": {"Molecular Weight": "324.33", "Molecular Formula": "C19H16O5", "Melting Point": "123.7 \u00b0C"}}