{"cas_no": "119-90-4", "cn_name": "\u8054\u5927\u8334\u9999\u80fa", "en_name": ["Dianisidine", "[1,1\u2032-Biphenyl]-4,4\u2032-diamine, 3,3\u2032-dimethoxy-", "Fast Blue B Base", "Benzidine, 3,3\u2032-dimethoxy-", "3,3\u2032-Dimethoxy[1,1\u2032-biphenyl]-4,4\u2032-diamine", "Amacel Developed Navy SD", "Azogene Fast Blue B", "Blue Base Irga B", "Blue Base NB", "Blue BN Base", "Cellitazol B", "Cibacete Diazo Navy Blue 2B", "C.I. Disperse Black 6", "Diacel Navy DC", "o-Dianisidine", "3,3\u2032-Dimethoxybenzidine", "Fast Blue Base B", "Fast Blue DSC Base", "Hiltonil Fast Blue B Base", "Kayaku Blue B Base", "Lake Blue B Base", "Mitsui Blue B Base", "Naphthanil Blue B Base", "Setacyl Diazo Navy R", "4,4\u2032-Bi-o-anisidine", "3,3\u2032-Dimethoxy-4,4\u2032-diaminodiphenyl", "Dianisidine", "4,4\u2032-Diamino-3,3\u2032-dimethoxy-1,1\u2032-biphenyl", "3,3\u2032-Dimethoxybenzidene", "NSC 3168", "3,3\u2032-Dimethoxy-4,4\u2032-diaminobiphenyl", "3,3\u2032-Dimethoxy-biphenyl-4,4\u2032-diamine"], "SMILES": "O(C)C=1C=C(C=CC1N)C2=CC(OC)=C(N)C=C2", "physical_data": {"Molecular Weight": "244.29", "Molecular Formula": "C14H16N2O2", "Boiling Point": "356 \u00b0C", "Melting Point": "137 \u00b0C"}}