{"cas_no": "119-80-2", "cn_name": "\u4e8c\u786b\u4ee3\u6c34\u6768\u9178", "en_name": ["2,2\u2032-Dithiodibenzoic acid", "Benzoic acid, 2,2\u2032-dithiobis-", "Benzoic acid, 2,2\u2032-dithiodi-", "Benzoic acid, o,o\u2032-dithiobis-", "2,2\u2032-Dithiobis[benzoic acid]", "Bis(2-carboxyphenyl) disulfide", "Diphenyl disulfide-2,2\u2032-dicarboxylic acid", "Bis(o-carboxylphenyl) disulfide", "2,2\u2032-Dithiodibenzoic acid", "Dithiosalicylic acid", "NSC 405662", "NSC 213", "NSC 5346", "NSC 633230", "2-[(2-Carboxyphenyl)disulfanyl]benzoic acid"], "SMILES": "S(SC1=C(C(O)=O)C=CC=C1)C2=C(C(O)=O)C=CC=C2", "physical_data": {"Molecular Weight": "306.36", "Molecular Formula": "C14H10O4S2", "Melting Point": "289 \u00b0C"}}