{"cas_no": "119-39-1", "cn_name": "1-(2H)-\u915e\u55ea\u916e", "en_name": ["1(2H)-Phthalazinone", "1(2H)-Phthalazinone", "1-Phthalazinol", "Phthalazinone", "Phthalazin-1-one", "1-Hydroxyphthalazine", "1-Oxophthalazine", "ICX 56225770", "NSC 10432", "NSC 52567", "1-Hydroxy-2,3-benzodiazine"], "SMILES": "O=C1C=2C(C=NN1)=CC=CC2", "physical_data": {"Molecular Weight": "146.15", "Molecular Formula": "C8H6N2O", "Melting Point": "188 \u00b0C"}}