{"cas_no": "119-61-9", "cn_name": "\u4e8c\u82ef\u7532\u916e", "en_name": ["Benzophenone", "Methanone, diphenyl-", "Benzophenone", "Diphenylmethanone", "Benzene, benzoyl-", "Benzoylbenzene", "Diphenyl ketone", "\u03b1-Oxodiphenylmethane", "\u03b1-Oxoditane", "Phenyl ketone", "Adjutan 6016", "Kayacure BP", "Speedcure BP", "Darocur BP", "Lowlite 24", "NSC 8077", "Kayacure BP 100", "BLS 531", "Runtecure 1020", "BP", "Irgacure BP", "Winure BP", "JRCure 1020", "Daracure 1137", "Gencure BP", "PI BP", "Photoinitiator BP", "Hycure Benzophenone", "B 0083", "Omnirad BP", "SB-PI 710"], "SMILES": "C(=O)(C1=CC=CC=C1)C2=CC=CC=C2", "physical_data": {"Molecular Weight": "182.22", "Molecular Formula": "C13H10O", "Boiling Point": "305.4 \u00b0C @ Press: 760 Torr", "Melting Point": "48.5 \u00b0C", "Density": "1.1108 g/cm\u00b3 @ Temp: 18 \u00b0C"}}