{"cas_no": "119-56-2", "cn_name": "4-\u6c2f\u4e8c\u82ef\u7532\u9187", "en_name": ["4-Chlorobenzhydrol", "Benzenemethanol, 4-chloro-\u03b1-phenyl-", "Benzhydrol, 4-chloro-", "4-Chloro-\u03b1-phenylbenzenemethanol", "p-Chlorobenzhydrol", "4-Chlorobenzhydrol", "(4-Chlorophenyl)phenylmethanol", "NSC 59990", "\u03b1-(4-Chlorophenyl)benzyl alcohol"], "SMILES": "C(O)(C1=CC=C(Cl)C=C1)C2=CC=CC=C2", "physical_data": {"Molecular Weight": "218.68", "Molecular Formula": "C13H11ClO", "Boiling Point": "130 \u00b0C @ Press: 0.01 Torr", "Melting Point": "60.75 \u00b0C"}}