{"cas_no": "119-68-6", "cn_name": "N-\u7532\u57fa\u84bd", "en_name": ["N-Methylanthranilic acid", "Benzoic acid, 2-(methylamino)-", "Anthranilic acid, N-methyl-", "2-(Methylamino)benzoic acid", "N-Methyl-o-aminobenzoic acid", "N-Methyl-2-aminobenzoic acid", "N-Methylanthranilic acid", "o-(Methylamino)benzoic acid", "o-N-Methylaminobenzoic acid", "NSC 3782"], "SMILES": "N(C)C1=C(C(O)=O)C=CC=C1", "physical_data": {"Molecular Weight": "151.16", "Molecular Formula": "C8H9NO2", "Boiling Point": "80 \u00b0C @ Press: 0.01 Torr", "Melting Point": "180.5 \u00b0C", "Density": "1.307 g/cm\u00b3"}}