{"cas_no": "119-97-1", "cn_name": "4-(N-\u4e59\u57fa-N-\u6c30\u4e59\u57fa)\u6c28\u57fa-2-\u7532\u57fa\u82ef\u7532\u919b", "en_name": ["3-[Ethyl(4-formyl-3-methylphenyl)amino]propanenitrile", "Propanenitrile, 3-[ethyl(4-formyl-3-methylphenyl)amino]-", "Propionitrile, 3-(N-ethyl-4-formyl-m-toluidino)-", "o-Tolualdehyde, 4-[(2-cyanoethyl)ethylamino]-", "3-[Ethyl(4-formyl-3-methylphenyl)amino]propanenitrile", "2-Methyl-N-ethyl-N-(2-cyanoethyl)-4-aminobenzaldehyde"], "SMILES": "N(CCC#N)(CC)C1=CC(C)=C(C=O)C=C1", "physical_data": {"Molecular Weight": "216.28", "Molecular Formula": "C13H16N2O", "Melting Point": "60-61 \u00b0C"}}