{"cas_no": "119-63-1", "cn_name": "4'-\u6c28\u57fa-N-\u7532\u57fa\u4e59\u9170\u82ef\u80fa", "en_name": ["N-(4-Aminophenyl)-N-methylacetamide", "Acetamide, N-(4-aminophenyl)-N-methyl-", "Acetanilide, 4\u2032-amino-N-methyl-", "N-(4-Aminophenyl)-N-methylacetamide", "4-Amino-N-acetyl-N-methylaniline", "4\u2032-Amino-N-methylacetanilide", "p-Amino-N-methylacetanilide", "p-Amino-N-acetyl-N-methylaniline", "N-acetyl-N-methyl-p-phenylenediamine", "NSC 7107"], "SMILES": "N(C(C)=O)(C)C1=CC=C(N)C=C1", "physical_data": {"Molecular Weight": "164.20", "Molecular Formula": "C9H12N2O", "Melting Point": "63-65 \u00b0C"}}