{"cas_no": "119-13-1", "cn_name": "(+)-DELTA-\u751f\u80b2\u915a", "en_name": ["\u03b4-Tocopherol", "2H-1-Benzopyran-6-ol, 3,4-dihydro-2,8-dimethyl-2-[(4R,8R)-4,8,12-trimethyltridecyl]-, (2R)-", "6-Chromanol, 2,8-dimethyl-2-(4,8,12-trimethyltridecyl)-", "2H-1-Benzopyran-6-ol, 3,4-dihydro-2,8-dimethyl-2-(4,8,12-trimethyltridecyl)-, [2R-[2R*(4R*,8R*)]]-", "(2R)-3,4-Dihydro-2,8-dimethyl-2-[(4R,8R)-4,8,12-trimethyltridecyl]-2H-1-benzopyran-6-ol", "8-Methyltocol", "\u03b4-Tocopherol", "(+)-\u03b4-Tocopherol", "d-\u03b4-Tocopherol", "\u03b4-D-Tocopherol", "(R,R,R)-\u03b4-Tocopherol", "\u03b4-Vitamin E", "(2R,4\u2032R,8\u2032R)-\u03b4-Tocopherol", "D-\u03b4-Tocopherol", "E-Mix D", "E 309"], "SMILES": "CC1=C2C(CCC(CCCC(CCCC(CCCC(C)C)C)C)(C)O2)=CC(O)=C1", "physical_data": {"Molecular Weight": "402.65", "Molecular Formula": "C27H46O2", "Melting Point": "&lt;25 \u00b0C"}}