{"cas_no": "119-75-5", "cn_name": "\u90bb\u785d\u57fa\u4e8c\u82ef\u80fa", "en_name": ["2-Nitrodiphenylamine", "Benzenamine, 2-nitro-N-phenyl-", "Diphenylamine, 2-nitro-", "2-Nitro-N-phenylbenzenamine", "C.I. 10335", "o-Nitrodiphenylamine", "2-Nitrodiphenylamine", "Sudan Yellow 1339", "o-Nitro-N-phenylaniline", "N-Phenyl-o-nitroaniline", "o-(Phenylamino)nitrobenzene", "NSC 105613", "NSC 4754", "NSC 629274", "N-Phenyl-2-nitrobenzenamine", "2-Nitro-N-phenylaniline", "N-Phenyl-2-nitroaniline", "N-(2-Nitrophenyl)aniline"], "SMILES": "N(C1=C(N(=O)=O)C=CC=C1)C2=CC=CC=C2", "physical_data": {"Molecular Weight": "214.22", "Molecular Formula": "C12H10N2O2", "Boiling Point": "165-167 \u00b0C @ Press: 1 Torr", "Melting Point": "75 \u00b0C", "Density": "1.366 g/cm\u00b3"}}