{"cas_no": "119-51-7", "cn_name": "2-\u5f02\u4e9a\u785d\u57fa\u82ef\u4e19\u916e", "en_name": ["1-Phenyl-1,2-propanedione 2-oxime", "1,2-Propanedione, 1-phenyl-, 2-oxime", "1-Phenyl-1,2-propanedione 2-oxime", "2-(Hydroxyimino)propiophenone", "RA 58", "Isonitrosopropiophenone", "1-Phenyl-2-(hydroxyimino)propan-1-one", "\u03b1-(Hydroxyimino)propiophenone", "2-Hydroxyimino-1-phenyl-1-propanone", "NSC 5410"], "SMILES": "C(C(=NO)C)(=O)C1=CC=CC=C1", "physical_data": {"Molecular Weight": "163.17", "Molecular Formula": "C9H9NO2", "Melting Point": "114.5 \u00b0C"}}