{"cas_no": "119-93-7", "cn_name": "\u90bb\u8054\u7532\u82ef\u80fa", "en_name": ["o-Tolidine", "[1,1\u2032-Biphenyl]-4,4\u2032-diamine, 3,3\u2032-dimethyl-", "Benzidine, 3,3\u2032-dimethyl-", "3,3\u2032-Dimethyl[1,1\u2032-biphenyl]-4,4\u2032-diamine", "C.I. 37230", "C.I. Azoic Diazo Component 113", "3,3\u2032-Dimethylbenzidine", "Fast Dark Blue Base R", "o-Tolidine", "3,3\u2032-Tolidine", "3,3\u2032-Dimethyl-4,4\u2032-biphenyldiamine", "3,3\u2032-Dimethyl-4,4\u2032-diaminobiphenyl", "4,4\u2032-Diamino-3,3\u2032-dimethylbiphenyl", "o,o\u2032-Tolidine", "4\u2032-Amino-3,3\u2032-dimethyl[1,1\u2032-biphenyl]-4-ylamine", "4,4\u2032-Diamino-3,3\u2032-dimethyl-1,1\u2032-biphenyl"], "SMILES": "CC=1C=C(C=CC1N)C2=CC(C)=C(N)C=C2", "physical_data": {"Molecular Weight": "212.29", "Molecular Formula": "C14H16N2", "Boiling Point": "300 \u00b0C", "Melting Point": "129-131 \u00b0C", "Density": "1.234 g/cm\u00b3"}}