{"cas_no": "119-24-4", "cn_name": "\u8776\u9178", "en_name": ["Pteroic acid", "Benzoic acid, 4-[[(2-amino-3,4-dihydro-4-oxo-6-pteridinyl)methyl]amino]-", "Pteroic acid", "Benzoic acid, 4-[[(2-amino-1,4-dihydro-4-oxo-6-pteridinyl)methyl]amino]-", "Benzoic acid, p-[[(2-amino-3,4-dihydro-4-oxo-6-pteridinyl)methyl]amino]-", "4-[[(2-Amino-3,4-dihydro-4-oxo-6-pteridinyl)methyl]amino]benzoic acid", "p-[(2-Amino-4-hydroxy-6-pteridylmethyl)amino]benzoic acid", "NSC 14972", "Pyrofolic acid"], "SMILES": "O=C1C=2C(NC=C(CNC3=CC=C(C(O)=O)C=C3)N2)=NC(N)=N1", "physical_data": {"Molecular Weight": "312.28", "Molecular Formula": "C14H12N6O3", "Melting Point": "&gt;400 \u00b0C"}}