{"cas_no": "119-91-5", "cn_name": "2,2'-\u8054\u55b9\u5549", "en_name": ["2,2\u2032-Biquinoline", "2,2\u2032-Biquinoline", "Cuproine", "2,2\u2032-Biquinolyl", "2,2\u2032-Diquinolyl", "Cuproin", "2,2\u2032-Bichinoline", "NSC 1533", "2,2\u2032-Diquinoline", "2-Quinolin-2-ylquinoline", "2-(Quinolin-2-yl)quinoline"], "SMILES": "C1(=NC2=C(C=C1)C=CC=C2)C3=NC4=C(C=C3)C=CC=C4", "physical_data": {"Molecular Weight": "256.30", "Molecular Formula": "C18H12N2", "Melting Point": "194.5 \u00b0C"}}