{"cas_no": "119-62-0", "cn_name": "1-\u5bf9\u785d\u57fa\u82ef\u57fa-2-\u6c28\u57fa-1,3-\u4e19\u4e8c\u9187", "en_name": ["2-Amino-1-(4-nitrophenyl)-1,3-propanediol", "1,3-Propanediol, 2-amino-1-(4-nitrophenyl)-", "1,3-Propanediol, 2-amino-1-(p-nitrophenyl)-", "2-Amino-1-(4-nitrophenyl)-1,3-propanediol", "1-(p-Nitrophenyl)-2-amino-1,3-propanediol", "p-Nitrophenyl-2-amino-1,3-propanediol", "2-Amino-1-p-nitrophenyl-1,3-propanediol", "1-(p-Nitrophenyl)-1,3-dihydroxy-2-aminopropane", "1-(4-Nitrophenyl)-2-amino-1,3-propanediol", "1-(4-Nitrophenyl)-2-aminopropane-1,3-diol", "NSC 163951"], "SMILES": "C(C(CO)N)(O)C1=CC=C(N(=O)=O)C=C1", "physical_data": {"Molecular Weight": "212.20", "Molecular Formula": "C9H12N2O4", "Melting Point": "161-162 \u00b0C"}}