{"cas_no": "119-43-7", "cn_name": "2-\u4e59\u57fa-\u82ef\u4e59\u9178\u4e59\u916f", "en_name": ["Ethyl \u03b1-ethylbenzeneacetate", "Benzeneacetic acid, \u03b1-ethyl-, ethyl ester", "Butyric acid, 2-phenyl-, ethyl ester", "Ethyl \u03b1-ethylbenzeneacetate", "Ethyl 2-phenylbutyrate", "Ethyl \u03b1-phenylbutyrate", "Ethyl 2-phenylbutanoate", "(\u00b1)-Ethyl 2-phenylbutanoate", "NSC 30680"], "SMILES": "C(C(OCC)=O)(CC)C1=CC=CC=C1", "physical_data": {"Molecular Weight": "192.25", "Molecular Formula": "C12H16O2", "Boiling Point": "111 \u00b0C @ Press: 4 Torr", "Density": "0.996 g/cm\u00b3 @ Temp: 45 \u00b0C"}}