{"cas_no": "119-33-5", "cn_name": "2-\u785d\u57fa-4-\u7532\u82ef\u915a", "en_name": ["4-Methyl-2-nitrophenol", "Phenol, 4-methyl-2-nitro-", "p-Cresol, 2-nitro-", "4-Methyl-2-nitrophenol", "2-Nitro-p-cresol", "4-Hydroxy-3-nitrotoluene", "2-Nitro-4-methylphenol", "o-Nitro-p-methylphenol", "NSC 5387", "NSC 66511"], "SMILES": "N(=O)(=O)C1=C(O)C=CC(C)=C1", "physical_data": {"Molecular Weight": "153.14", "Molecular Formula": "C7H7NO3", "Boiling Point": "125 \u00b0C", "Melting Point": "36.5 \u00b0C", "Density": "1.2399 g/cm\u00b3 @ Temp: 38.60001953125 \u00b0C"}}