{"cas_no": "119-81-3", "cn_name": "4-\u7532\u6c27\u57fa-2-\u785d\u57fa\u4e59\u9170\u82ef\u80fa", "en_name": ["N-(4-Methoxy-2-nitrophenyl)acetamide", "Acetamide, N-(4-methoxy-2-nitrophenyl)-", "p-Acetanisidide, 2\u2032-nitro-", "N-(4-Methoxy-2-nitrophenyl)acetamide", "2\u2032-Nitro-4\u2032-methoxyacetanilide", "4-Acetylamino-1-methoxy-3-nitrobenzene", "4-Acetamido-1-methoxy-3-nitrobenzene", "2\u2032-Nitro-p-acetanisidide", "4-Methoxy-2-nitroacetanilide", "NSC 5516"], "SMILES": "N(C(C)=O)C1=C(N(=O)=O)C=C(OC)C=C1", "physical_data": {"Molecular Weight": "210.19", "Molecular Formula": "C9H10N2O4", "Melting Point": "117 \u00b0C"}}