{"cas_no": "119-27-7", "cn_name": "2,4-\u4e8c\u785d\u57fa\u82ef\u7532\u919a", "en_name": ["2,4-Dinitroanisole", "Benzene, 1-methoxy-2,4-dinitro-", "Anisole, 2,4-dinitro-", "1-Methoxy-2,4-dinitrobenzene", "Dinitroanisole", "2,4-Dinitroanisole", "2,4-Dinitrophenyl methyl ether", "2,4-Dinitroanisol", "NSC 8733", "2,4-Dinitro-1-methoxybenzene", "2,4-Dinitrophenol-methyl ether"], "SMILES": "N(=O)(=O)C1=C(OC)C=CC(N(=O)=O)=C1", "physical_data": {"Molecular Weight": "198.13", "Molecular Formula": "C7H6N2O5", "Boiling Point": "206 \u00b0C", "Melting Point": "94.5 \u00b0C"}}