{"cas_no": "119-58-4", "cn_name": "4,4'-\u4e8c(N,N-\u4e8c\u7532\u6c28\u57fa)\u4e8c\u82ef\u57fa\u7532\u9187", "en_name": ["4,4\u2032-Bis(dimethylamino)benzhydrol", "Benzenemethanol, 4-(dimethylamino)-\u03b1-[4-(dimethylamino)phenyl]-", "Benzhydrol, 4,4\u2032-bis(dimethylamino)-", "Benzohydrol, 4,4\u2032-bis(dimethylamino)-", "4-(Dimethylamino)-\u03b1-[4-(dimethylamino)phenyl]benzenemethanol", "\u03b1,\u03b1-Bis(p-dimethylaminophenyl)methanol", "Michler's hydrol", "Tetramethyldiaminobenzhydrol", "N,N\u2032-Tetramethyl-4,4\u2032-diaminobenzohydrol", "4,4\u2032-Bis(dimethylamino)diphenylcarbinol", "p,p\u2032-Bis(dimethylamino)benzhydrol", "4,4\u2032-Bis(dimethylamino)diphenylmethanol", "4,4\u2032-Bis(dimethylamino)benzhydrol", "NSC 3563", "4,4\u2032-(Dimethylamino)benzhydrol"], "SMILES": "C(O)(C1=CC=C(N(C)C)C=C1)C2=CC=C(N(C)C)C=C2", "physical_data": {"Molecular Weight": "270.37", "Molecular Formula": "C17H22N2O", "Melting Point": "98-100 \u00b0C"}}