{"cas_no": "119-64-2", "cn_name": "1,2,3,4-\u56db\u6c22\u8418", "en_name": ["Tetralin", "Naphthalene, 1,2,3,4-tetrahydro-", "1,2,3,4-Tetrahydronaphthalene", "Tetrahydronaphthalene", "Tetralin", "Tetranap", "Benzocyclohexane", "NSC 77451"], "SMILES": "C=12C(=CC=CC1)CCCC2", "physical_data": {"Molecular Weight": "132.20", "Molecular Formula": "C10H12", "Boiling Point": "207.6 \u00b0C @ Press: 760 Torr", "Melting Point": "-35.8 \u00b0C", "Density": "0.9702 g/cm\u00b3 @ Temp: 20 \u00b0C"}}