{"cas_no": "119-44-8", "cn_name": "\u9175\u6bcd\u7c89", "en_name": ["Xanthopterin", "4,6-Pteridinedione, 2-amino-3,5-dihydro-", "4,6-Pteridinedione, 2-amino-1,5-dihydro-", "4,6-Pteridinediol, 2-amino-", "4(1H)-Pteridinone, 2,3-dihydro-6-hydroxy-2-imino-", "2-Amino-3,5-dihydro-4,6-pteridinedione", "2-Amino-4,6-dihydroxypteridine", "2-Amino-4,6-dihydroxypyrimido[4,5-b]pyrazine", "Xanthopterin", "6-Hydroxy-2-amino-4-hydroxypteridine", "2-Amino-4,6(3H,5H)-pteridinedione", "NSC 41836", "NSC 91557", "2-Aminopteridine-4,6-diol", "2-Amino-1,5-dihydropteridine-4,6-dione", "2-Amino-3,4,5,6-tetrahydropteridine-4,6-dione", "MeSH ID: D014976"], "SMILES": "O=C1C2=C(NC(N)=N1)N=CC(=O)N2", "physical_data": {"Molecular Weight": "179.14", "Molecular Formula": "C6H5N5O2", "Boiling Point": "98-100 \u00b0C @ Press: 18 Torr", "Melting Point": "&gt;410 \u00b0C (decomp)", "Density": "1.559 g/cm\u00b3"}}