{"cas_no": "119-10-8", "cn_name": "4-\u7532\u57fa-2-\u785d\u57fa\u82ef\u7532\u919a", "en_name": ["1-Methoxy-4-methyl-2-nitrobenzene", "Benzene, 1-methoxy-4-methyl-2-nitro-", "Anisole, 4-methyl-2-nitro-", "1-Methoxy-4-methyl-2-nitrobenzene", "4-Methyl-2-nitroanisole", "4-Methoxy-3-nitrotoluene", "2-Nitro-4-methylanisole"], "SMILES": "N(=O)(=O)C1=C(OC)C=CC(C)=C1", "physical_data": {"Molecular Weight": "167.16", "Molecular Formula": "C8H9NO3", "Boiling Point": "159 \u00b0C @ Press: 15 Torr", "Melting Point": "8.5 \u00b0C", "Density": "1.20250061035156 g/cm\u00b3 @ Temp: 25 \u00b0C"}}