{"cas_no": "119-60-8", "cn_name": "\u4e8c\u73af\u5df1\u57fa\u7532\u916e", "en_name": ["Cyclohexyl ketone", "Methanone, dicyclohexyl-", "Cyclohexyl ketone", "Dicyclohexylmethanone", "Dicyclohexyl ketone", "Bicyclohexyl ketone", "NSC 49725", "NSC 60007"], "SMILES": "C(=O)(C1CCCCC1)C2CCCCC2", "physical_data": {"Molecular Weight": "194.31", "Molecular Formula": "C13H22O", "Boiling Point": "159 \u00b0C @ Press: 20 Torr", "Melting Point": "61 \u00b0C", "Density": "0.986 g/cm\u00b3 @ Temp: 0 \u00b0C"}}