{"cas_no": "119-30-2", "cn_name": "5-\u7898\u6c34\u6768\u9178", "en_name": ["5-Iodosalicylic acid", "Benzoic acid, 2-hydroxy-5-iodo-", "Salicylic acid, 5-iodo-", "2-Hydroxy-5-iodobenzoic acid", "5-Iodosalicylic acid", "5-Iodo-2-hydroxybenzoic acid", "6-Hydroxy-3-iodobenzoic acid", "NSC 2789"], "SMILES": "C(O)(=O)C1=C(O)C=CC(I)=C1", "physical_data": {"Molecular Weight": "264.02", "Molecular Formula": "C7H5IO3", "Melting Point": "190 \u00b0C"}}