{"cas_no": "119-34-6", "cn_name": "2-\u785d\u57fa-4-\u6c28\u57fa\u82ef\u915a", "en_name": ["4-Amino-2-nitrophenol", "Phenol, 4-amino-2-nitro-", "4-Amino-2-nitrophenol", "C.I. 76555", "C.I. Oxidation Base 25", "Fourrine 57", "Fourrine Brown PR", "o-Nitro-p-aminophenol", "2-Nitro-4-aminophenol", "4-Hydroxy-3-nitroaniline", "p-Amino-o-nitrophenol", "3-Nitro-4-hydroxyaniline", "1-Amino-3-nitro-4-hydroxybenzene", "2-Hydroxy-5-aminonitrobenzene", "NSC 56809"], "SMILES": "N(=O)(=O)C1=C(O)C=CC(N)=C1", "physical_data": {"Molecular Weight": "154.12", "Molecular Formula": "C6H6N2O3", "Melting Point": "131 \u00b0C"}}