{"cas_no": "119-54-0", "cn_name": "1-\u4e8c\u4e59\u6c28\u57fa\u7532\u9170\u57fa\u54cc\u55ea", "en_name": ["N,N-Diethyl-1-piperazinecarboxamide", "1-Piperazinecarboxamide, N,N-diethyl-", "N,N-Diethyl-1-piperazinecarboxamide", "Subdamine", "1-Diethylcarbamoylpiperazine", "1-(Diethylcarbamyl)piperazine", "N,N-Diethylcarbamoylpiperazine", "1-(N,N-Diethylaminocarbonyl)piperazine"], "SMILES": "C(N(CC)CC)(=O)N1CCNCC1", "physical_data": {"Molecular Weight": "185.27", "Molecular Formula": "C9H19N3O", "Boiling Point": "113.5-115.5 \u00b0C @ Press: 3 Torr"}}