{"cas_no": "119-18-6", "cn_name": "1-\u82ef\u57fa-5-\u5421\u5511\u5549\u916e-3-\u7fa7\u9178", "en_name": ["1-Phenyl-3-carboxy-5-pyrazolone", "1H-Pyrazole-3-carboxylic acid, 4,5-dihydro-5-oxo-1-phenyl-", "2-Pyrazoline-3-carboxylic acid, 5-oxo-1-phenyl-", "4,5-Dihydro-5-oxo-1-phenyl-1H-pyrazole-3-carboxylic acid", "1-Phenyl-5-pyrazolone-3-carboxylic acid", "1-Phenyl-3-carboxy-5-pyrazolone", "3-Carboxy-1-phenyl-5-pyrazolone", "3-Carboxy-1-phenyl-2-pyrazolin-5-one", "5-Oxo-1-phenyl-4,5-dihydro-1H-pyrazole-3-carboxylic acid"], "SMILES": "O=C1N(N=C(C(O)=O)C1)C2=CC=CC=C2", "physical_data": {"Molecular Weight": "204.18", "Molecular Formula": "C10H8N2O3", "Melting Point": "260 \u00b0C (decomp)"}}