{"cas_no": "119-15-3", "cn_name": "4-(2,4-\u4e8c\u785d\u57fa\u82ef\u80fa\uff09\u82ef\u915a", "en_name": ["Disperse Yellow 1", "Phenol, 4-[(2,4-dinitrophenyl)amino]-", "Phenol, p-(2,4-dinitroanilino)-", "4-[(2,4-Dinitrophenyl)amino]phenol", "C.I. 10345", "Acetamine Yellow 2R", "Acetoquinone Light Yellow 2RZ", "Amacel Yellow RR", "Celliton Fast Yellow RR", "Celliton Fast Yellow RRA-CF", "Cilla Fast Yellow RR", "2,4-Dinitro-4\u2032-hydroxydiphenylamine", "Disperse Yellow R", "Dispersol Fast Yellow A", "Dispersol Printing Yellow A", "Fenacet Fast Yellow 2R", "4-Hydroxy-2\u2032,4\u2032-dinitrodiphenylamine", "Kayalon Fast Yellow RR", "Microsetile Yellow 2R", "Nyloquinone Yellow 2R", "Perliton Yellow RR", "Reliton Yellow R", "Serisol Fast Yellow A", "Setacyl Yellow P-BS", "SRA Golden Yellow VIII", "Supracet Fast Yellow 2R", "Supracet Yellow RR", "C.I. Disperse Yellow 1", "Fast Disperse Yellow 2K", "Disperse Fast Yellow 2K", "N-(2,4-Dinitrophenyl)-4-aminophenol", "4-(2,4-Dinitroanilino)phenol", "4\u2032-Hydroxy-2,4-dinitrodiphenylamine", "Permanent Yellow 2K", "Dispersol Yellow B-A", "Synten Yellow P 2R", "C.I. Solvent Yellow 52", "Tulasteron Fast Yellow R-B", "NSC 13965", "NSC 408078", "NSC 6335", "Disperse Yellow Stable 2K", "Disperse Yellow 2G", "Disperse Yellow 1"], "SMILES": "N(=O)(=O)C1=C(NC2=CC=C(O)C=C2)C=CC(N(=O)=O)=C1", "physical_data": {"Molecular Weight": "275.22", "Molecular Formula": "C12H9N3O5", "Melting Point": "194 \u00b0C"}}