{"cas_no": "119-26-6", "cn_name": "2,4-\u4e8c\u785d\u57fa\u82ef\u80bc", "en_name": ["(2,4-Dinitrophenyl)hydrazine", "Hydrazine, (2,4-dinitrophenyl)-", "(2,4-Dinitrophenyl)hydrazine", "1-Hydrazino-2,4-dinitrobenzene", "DNPH", "NSC 5709", "1-(2,4-Dinitrophenyl)hydrazine", "2,4-Dinitrobenzenehydrazine"], "SMILES": "N(=O)(=O)C1=C(NN)C=CC(N(=O)=O)=C1", "physical_data": {"Molecular Weight": "198.14", "Molecular Formula": "C6H6N4O4", "Melting Point": "194 \u00b0C"}}