{"cas_no": "119-52-8", "cn_name": "\u8334\u9999\u5076\u59fb", "en_name": ["4,4\u2032-Dimethoxybenzoin", "Ethanone, 2-hydroxy-1,2-bis(4-methoxyphenyl)-", "p-Anisoin", "2-Hydroxy-1,2-bis(4-methoxyphenyl)ethanone", "4,4\u2032-Dimethoxybenzoin", "1-Oxo-1,2-bis(p-methoxyphenyl)-2-hydroxyethane", "p,p\u2032-Dimethoxybenzoin", "NSC 7960", "NSC 8504", "(\u00b1)-p-Anisoin", "1,2-Bis(4-methoxyphenyl)-2-hydroxyethanone", "2-Hydroxy-4\u2032-methoxy-2-(4-methoxyphenyl)-acetophenone", "2-Hydroxy-1,2-di(4-methoxyphenyl)ethanone", "2-Hydroxy-1,2-bis(4-methoxyphenyl)ethan-1-one"], "SMILES": "C(C(=O)C1=CC=C(OC)C=C1)(O)C2=CC=C(OC)C=C2", "physical_data": {"Molecular Weight": "272.30", "Molecular Formula": "C16H16O4", "Melting Point": "111-113 \u00b0C"}}