{"cas_no": "119-12-0", "cn_name": "\u54d2\u55ea\u786b\u78f7", "en_name": ["Pyridaphenthion", "Phosphorothioic acid, O-(1,6-dihydro-6-oxo-1-phenyl-3-pyridazinyl) O,O-diethyl ester", "Phosphorothioic acid, O,O-diethyl ester, O-ester with 6-hydroxy-2-phenyl-3(2H)-pyridazinone", "3(2H)-Pyridazinone, 6-hydroxy-2-phenyl-, O-ester with O,O-diethyl phosphorothioate", "ENT 23,968", "American Cyanamid 12,503", "O,O-Diethyl O-(2,3-dihydro-3-oxo-2-phenyl-6-pyridazinyl) phosphorothioate", "O,O-Diethyl phosphorothioate O-ester with 6-hydroxy-2-phenyl-3(2H)-pyridazinone", "O-(1,6)-Dihydro-6-oxo-1-phenylpyridazin-3-yl) O,O-diethyl phosphorothioate", "CL 12503", "Pyridafenthion", "Pyridaphenthion", "Ofunack", "Oreste"], "SMILES": "O=C1N(N=C(OP(OCC)(OCC)=S)C=C1)C2=CC=CC=C2", "physical_data": {"Molecular Weight": "340.33", "Molecular Formula": "C14H17N2O4PS", "Melting Point": "55 \u00b0C"}}