{"cas_no": "119-84-6", "cn_name": "\u6c22\u5316\u8089\u6842\u9178\u5185\u916f", "en_name": ["Dihydrocoumarin", "2H-1-Benzopyran-2-one, 3,4-dihydro-", "Hydrocoumarin", "3,4-Dihydro-2H-1-benzopyran-2-one", "Hydrocinnamic acid, o-hydroxy-, \u03b4-lactone", "2-Chromanone", "Melilotin (coumarin)", "Melilotol", "Dihydrocoumarin", "3,4-Dihydrocoumarin", "Melilotin", "3,4-Dihydro-1H-benzopyran-2-one", "D 1223", "DHC", "3,4-Dihydrochromen-2-one"], "SMILES": "O=C1OC=2C(CC1)=CC=CC2", "physical_data": {"Molecular Weight": "148.16", "Molecular Formula": "C9H8O2", "Boiling Point": "272 \u00b0C", "Melting Point": "25 \u00b0C", "Density": "1.169 g/cm\u00b3 @ Temp: 18 \u00b0C"}}