{"cas_no": "119-67-5", "cn_name": "\u90bb\u7fa7\u57fa\u82ef\u7532\u919b", "en_name": ["2-Carboxybenzaldehyde", "Benzoic acid, 2-formyl-", "Phthalaldehydic acid", "2-Formylbenzoic acid", "o-Formylbenzoic acid", "o-Carboxybenzaldehyde", "2-Carboxybenzaldehyde", "NSC 5045"], "SMILES": "C(=O)C1=C(C(O)=O)C=CC=C1", "physical_data": {"Molecular Weight": "150.13", "Molecular Formula": "C8H6O3", "Melting Point": "98 \u00b0C"}}