{"cas_no": "1190-73-4", "cn_name": "N-\u4e59\u9170\u57fa\u534a\u80f1\u80fa", "en_name": ["Acetylcysteamine", "Acetamide, N-(2-mercaptoethyl)-", "N-(2-Mercaptoethyl)acetamide", "N-Acetylcysteamine", "Acetylcysteamine", "2-Acetamidoethanethiol", "N-Acetylmercaptoethylamine", "N-Acetyl-\u03b2-mercaptoethylamine", "N-(\u03b2-Mercaptoethyl)acetamide", "NSC 38835", "N-Acetyl-2-mercaptoethylamine", "N-(2-Sulfanylethyl)acetamide"], "SMILES": "N(C(C)=O)CCS", "physical_data": {"Molecular Weight": "119.19", "Molecular Formula": "C4H9NOS", "Boiling Point": "138-140 \u00b0C @ Press: 7 Torr", "Melting Point": "~86 \u00b0C (approx)"}}