{"cas_no": "1190-53-0", "cn_name": "\u76d0\u9178\u4e01\u53cc\u80cd", "en_name": ["Buformin hydrochloride", "Imidodicarbonimidic diamide, N-butyl-, hydrochloride (1:1)", "Biguanide, 1-butyl-, monohydrochloride", "Imidodicarbonimidic diamide, N-butyl-, monohydrochloride", "N-Butylbiguanide hydrochloride", "1-Butylbiguanide hydrochloride", "1-Butyldiguanide hydrochloride", "N1-n-Butylbiguanide hydrochloride", "1-Butylbiguanide, monohydrochloride", "Glybutide", "N1-Butyl-biguanide hydrochloride", "Glibutide", "Buformin hydrochloride", "Biforon", "Panformin", "Bigunal", "Andere", "Bulbonin", "Krebon", "Bufonamin", "Diabrin", "Dibetos", "Tidemol", "Insulamin", "Gliporal", "Sindiatil", "Ziavetine"], "SMILES": "N(C(NC(=N)N)=N)CCCC.Cl", "physical_data": {"Molecular Weight": "", "Molecular Formula": "C6H15N5.ClH", "Melting Point": "174-177 \u00b0C"}}