{"cas_no": "1190-22-3", "cn_name": "1,3-\u4e8c\u6c2f\u6b63\u4e01\u70f7", "en_name": ["1,3-Dichlorobutane", "Butane, 1,3-dichloro-", "1,3-Dichlorobutane"], "SMILES": "C(C(C)Cl)CCl", "physical_data": {"Molecular Weight": "127.01", "Molecular Formula": "C4H8Cl2", "Boiling Point": "134 \u00b0C", "Density": "1.1158 g/cm\u00b3 @ Temp: 20 \u00b0C"}}