{"cas_no": "1190-92-7", "cn_name": "1-\u4e8c\u7532\u57fa\u6c28\u57fa-2-\u785d\u57fa\u4e59\u70ef", "en_name": ["N,N-Dimethyl-2-nitroethenamine", "Ethenamine, N,N-dimethyl-2-nitro-", "Vinylamine, N,N-dimethyl-2-nitro-", "N,N-Dimethyl-2-nitroethenamine", "N,N-Dimethyl-2-nitrovinylamine", "1-Nitro-2-(dimethylamino)ethylene", "1-(Dimethylamino)-2-nitroethylene", "N-(2-Nitrovinyl)dimethylamine", "1-(N,N-Dimethylamino)-2-nitroethylene", "1-(Dimethylamino)-2-nitroethene"], "SMILES": "C(=CN(=O)=O)N(C)C", "physical_data": {"Molecular Weight": "116.12", "Molecular Formula": "C4H8N2O2", "Melting Point": "104 \u00b0C"}}