{"cas_no": "1190-16-5", "cn_name": "\u4e8c\u6c2f(3-\u6c30\u57fa\u4e19\u57fa)\u7532\u57fa\u7845\u70f7", "en_name": ["(3-Cyanopropyl)methyldichlorosilane", "Butanenitrile, 4-(dichloromethylsilyl)-", "Butyronitrile, 4-(dichloromethylsilyl)-", "4-(Dichloromethylsilyl)butanenitrile", "(3-Cyanopropyl)dichloromethylsilane", "(\u03b3-Cyanopropyl)methyldichlorosilane", "Dichloro(3-cyanopropyl)methylsilane", "4-(Dichloromethylsilyl)butyronitrile", "(3-Cyanopropyl)methyldichlorosilane"], "SMILES": "C([Si](C)(Cl)Cl)CCC#N", "physical_data": {"Molecular Weight": "182.12", "Molecular Formula": "C5H9Cl2NSi", "Boiling Point": "79-82 \u00b0C @ Press: 1 Torr", "Density": "1.145 g/cm\u00b3 @ Temp: 25 \u00b0C"}}