{"cas_no": "119018-29-0", "cn_name": "4-[2-(3-\u4e59\u57fa-4-\u7532\u57fa-2-\u6c27\u4ee3-3-\u5421\u54af\u5549-1-\u7532\u9170\u80fa\u57fa)\u4e59\u57fa]-\u82ef\u78fa\u9170\u80fa", "en_name": ["N-[2-[4-(Aminosulfonyl)phenyl]ethyl]-3-ethyl-2,5-dihydro-4-methyl-2-oxo-1H-pyrrole-1-carboxamide", "1H-Pyrrole-1-carboxamide, N-[2-[4-(aminosulfonyl)phenyl]ethyl]-3-ethyl-2,5-dihydro-4-methyl-2-oxo-", "N-[2-[4-(Aminosulfonyl)phenyl]ethyl]-3-ethyl-2,5-dihydro-4-methyl-2-oxo-1H-pyrrole-1-carboxamide", "4-[2-[(3-Ethyl-4-methyl-2-oxo-3-pyrrolin-1-yl)carboxamido]ethyl]benzenesulfonamide"], "SMILES": "C(NCCC1=CC=C(S(N)(=O)=O)C=C1)(=O)N2C(=O)C(CC)=C(C)C2", "physical_data": {"Molecular Weight": "351.42", "Molecular Formula": "C16H21N3O4S", "Melting Point": "183-185 \u00b0C"}}