{"cas_no": "1190-49-4", "cn_name": "\u9ad8\u74dc\u6c28\u9178", "en_name": ["Homocitrulline", "L-Lysine, N6-(aminocarbonyl)-", "Lysine, N6-carbamoyl-, L-", "Lysine, N6-carbamoyl-", "N6-(Aminocarbonyl)-L-lysine", "Homocitrulline", "L-Homocitrulline", "N-\u03b5-Carbamyl-L-lysine", "Homo-L-citrulline", "NSC 27428", "(S)-2-Amino-6-ureidohexanoic acid"], "SMILES": "C(C(C(O)=O)N)CCCNC(N)=O", "physical_data": {"Molecular Weight": "189.21", "Molecular Formula": "C7H15N3O3", "Melting Point": "211-212 \u00b0C (decomp)"}}