{"cas_no": "1190-48-3", "cn_name": "N\u0395-\u7532\u9170\u57fa-L-\u8d56\u6c28\u9178", "en_name": ["N\u03b5-Formyl-L-lysine", "L-Lysine, N6-formyl-", "Lysine, N6-formyl-, L-", "Lysine, N6-formyl-", "N6-Formyl-L-lysine", "N\u03b5-Formyllysine", "N\u03b5-Formyl-L-lysine", "Formetol", "NSC 334317"], "SMILES": "C(C(C(O)=O)N)CCCNC=O", "physical_data": {"Molecular Weight": "174.20", "Molecular Formula": "C7H14N2O3", "Melting Point": "214-215 \u00b0C"}}