{"cas_no": "1190321-86-8", "cn_name": "4-\u7532\u57fa-1H-\u5421\u54af[2,3-C]\u5421\u5576\u76d0\u9178\u76d0", "en_name": ["4-Methyl-1H-pyrrolo[2,3-c]pyridine", "1H-Pyrrolo[2,3-c]pyridine, 4-methyl-", "4-Methyl-1H-pyrrolo[2,3-c]pyridine"], "SMILES": "CC1=C2C(=CN=C1)NC=C2", "physical_data": {"Molecular Weight": "132.16", "Molecular Formula": "C8H8N2", "Melting Point": "205-206 \u00b0C"}}