{"cas_no": "1190-93-8", "cn_name": "S-\u4e59\u9170\u786b\u57fa\u4e59\u9178", "en_name": ["(Acetylthio)acetic acid", "Acetic acid, 2-(acetylthio)-", "Acetic acid, mercapto-, acetate", "Acetic acid, (acetylthio)-", "Acetic acid, thio-, S-ester with mercaptoacetic acid", "2-(Acetylthio)acetic acid", "S-Acetylthioglycolic acid", "(Acetylthio)acetic acid", "2-Acetylthioacetic acid", "S-Acetylthioacetic acid", "S-Acetyl-2-mercaptoacetic acid", "S-Acetylmercaptoacetic acid", "2-Acetylsulfanylacetic acid"], "SMILES": "C(SC(C)=O)C(O)=O", "physical_data": {"Molecular Weight": "134.15", "Molecular Formula": "C4H6O3S", "Boiling Point": "158-159 \u00b0C @ Press: 17 Torr"}}