{"cas_no": "1190-32-5", "cn_name": "\u6c2f\u4e59\u9170\u57fa-DL-\u4e19\u6c28\u9178", "en_name": ["N-(2-Chloroacetyl)alanine", "Alanine, N-(2-chloroacetyl)-", "Alanine, N-(chloroacetyl)-, DL-", "Alanine, N-(chloroacetyl)-", "N-(2-Chloroacetyl)alanine", "N-Chloroacetyl-DL-alanine", "2-(2-Chloroacetamido)propanoic acid", "2-[(2-Chloroacetyl)amino]propanoic acid"], "SMILES": "N(C(C(O)=O)C)C(CCl)=O", "physical_data": {"Molecular Weight": "165.57", "Molecular Formula": "C5H8ClNO3", "Melting Point": "126-127 \u00b0C"}}