{"cas_no": "1190-24-5", "cn_name": "N-\u7532\u9178\u57fa\u8132", "en_name": ["Formylurea", "Urea, N-formyl-", "Urea, formyl-", "N-Formylurea", "Formamide, N-(aminocarbonyl)-", "Allophanaldehyde", "Formylurea", "NSC 60514", "N-Formamidoformamide"], "SMILES": "N(C(N)=O)C=O", "physical_data": {"Molecular Weight": "88.07", "Molecular Formula": "C2H4N2O2", "Melting Point": "168-169 \u00b0C"}}