{"cas_no": "1190320-08-1", "cn_name": "4-\u6c28\u57fa-6-\u6c1f\u55b9\u5511\u5549", "en_name": ["6-Fluoro-4-quinazolinamine", "4-Quinazolinamine, 6-fluoro-", "6-Fluoro-4-quinazolinamine"], "SMILES": "NC=1C2=C(C=CC(F)=C2)N=CN1", "physical_data": {"Molecular Weight": "163.15", "Molecular Formula": "C8H6FN3", "Melting Point": "329 \u00b0C"}}