{"cas_no": "119006-77-8", "cn_name": "\u6c1f\u66f2\u9a6c\u5511", "en_name": ["Flutrimazole", "1H-Imidazole, 1-[(2-fluorophenyl)(4-fluorophenyl)phenylmethyl]-", "1-[(2-Fluorophenyl)(4-fluorophenyl)phenylmethyl]-1H-imidazole", "Flutrimazole", "UR 4056", "1-[(2-Fluorophenyl)-(4-fluorophenyl)-phenylmethyl]imidazole"], "SMILES": "C(C1=C(F)C=CC=C1)(C2=CC=C(F)C=C2)(N3C=CN=C3)C4=CC=CC=C4", "physical_data": {"Molecular Weight": "346.37", "Molecular Formula": "C22H16F2N2", "Melting Point": "164-167 \u00b0C"}}