{"cas_no": "119168-77-3", "cn_name": "\u5421\u87a8\u80fa", "en_name": ["Tebufenpyrad", "1H-Pyrazole-5-carboxamide, 4-chloro-N-[[4-(1,1-dimethylethyl)phenyl]methyl]-3-ethyl-1-methyl-", "4-Chloro-N-[[4-(1,1-dimethylethyl)phenyl]methyl]-3-ethyl-1-methyl-1H-pyrazole-5-carboxamide", "N-(4-tert-Butylbenzyl)-4-chloro-3-ethyl-1-methylpyrazole-5-carboxamide", "MK 239", "AC 801757", "Tebufenpyrad", "Pyranica", "Fenpyrad", "Masai", "Oscar"], "SMILES": "C(NCC1=CC=C(C(C)(C)C)C=C1)(=O)C2=C(Cl)C(CC)=NN2C", "physical_data": {"Molecular Weight": "333.86", "Molecular Formula": "C18H24ClN3O", "Melting Point": "61.5 \u00b0C"}}