{"cas_no": "119192-10-8", "cn_name": "4-(1H-1,2,4-\u4e09\u6c2e\u5511-1-\u57fa\u7532\u57fa)\u82ef\u80fa", "en_name": ["1-(4-Aminobenzyl)-1,2,4-triazole", "Benzenamine, 4-(1H-1,2,4-triazol-1-ylmethyl)-", "4-(1H-1,2,4-Triazol-1-ylmethyl)benzenamine", "1-(4-Aminobenzyl)-1H-1,2,4-triazole", "1-(4-Aminobenzyl)-1,2,4-triazole", "4-(1H-1,2,4-Triazol-1-ylmethyl)aniline", "[4-[([1,2,4]Triazol-1-yl)methyl]phenyl]amine", "[4-[(1H-[1,2,4]Triazol-1-yl)methyl]phenyl]amine", "4-[(1,2,4-Triazol-1-yl)methyl]aniline"], "SMILES": "C(C1=CC=C(N)C=C1)N2C=NC=N2", "physical_data": {"Molecular Weight": "174.20", "Molecular Formula": "C9H10N4", "Melting Point": "128-130 \u00b0C"}}