{"cas_no": "1191-08-8", "cn_name": "1,4-\u4e01\u4e8c\u786b\u9187", "en_name": ["1,4-Butanedithiol", "1,4-Butanedithiol", "Tetramethylenedithiol", "1,4-Dimercaptobutane", "NSC 60198", "1,4-Dithiolbutane"], "SMILES": "C(CCS)CS", "physical_data": {"Molecular Weight": "122.25", "Molecular Formula": "C4H10S2", "Boiling Point": "195.5 \u00b0C", "Melting Point": "-53.9 \u00b0C"}}