{"cas_no": "1191-15-7", "cn_name": "\u4e8c\u5f02\u4e01\u57fa\u6c22\u5316\u94dd", "en_name": ["Diisobutylaluminum hydride", "Aluminum, hydrobis(2-methylpropyl)-", "Aluminum, hydrodiisobutyl-", "Diisobutylaluminum hydride", "Hydrobis(2-methylpropyl)aluminum", "Diisobutylhydroaluminum", "Hydrodiisobutylaluminum", "Diisobutylaluminium hydride", "Bis(isobutyl)hydroaluminum", "Dibal", "Bis(iso-butyl)aluminum hydride", "DIBAH", "DIBAL-H", "Di-iso-butylaluminum hydride", "Diisobutylalane", "Bis(isobutyl)aluminum hydride", "Diisobutylhydrogenaluminum"], "SMILES": "[AlH](CC(C)C)CC(C)C", "physical_data": {"Molecular Weight": "", "Molecular Formula": "C8H19Al", "Boiling Point": "105 \u00b0C @ Press: 0.2 Torr", "Melting Point": "-80 \u00b0C", "Density": "0.798 g/cm\u00b3"}}