{"cas_no": "1191-16-8", "cn_name": "\u68a8\u9187\u916f", "en_name": ["Prenyl acetate", "2-Buten-1-ol, 3-methyl-, 1-acetate", "2-Buten-1-ol, 3-methyl-, acetate", "3-Methyl-2-buten-1-ol acetate", "3-Methyl-2-butenyl acetate", "Prenyl acetate", "1-Acetoxy-3-methyl-2-butene", "3,3-Dimethylallyl acetate", "\u03b3,\u03b3-Dimethylallyl acetate", "Dimethylallyl acetate", "Isopent-2-enyl acetate", "3-Methyl-2-buten-1-yl acetate", "3-Methyl-1-acetoxy-2-butene", "Acetic acid 3-methyl-2-butenyl ester", "2-Methyl-4-acetyloxy-2-butene"], "SMILES": "C(C=C(C)C)OC(C)=O", "physical_data": {"Molecular Weight": "128.17", "Molecular Formula": "C7H12O2", "Boiling Point": "149-151 \u00b0C", "Density": "0.9169 g/cm\u00b3 @ Temp: 20 \u00b0C"}}