{"cas_no": "119193-19-0", "cn_name": "(3R,4R)-3,4-\u4e8c\u7532\u57fa-4-(3-\u7f9f\u57fa\u82ef\u57fa)\u54cc\u5576", "en_name": ["3-[(3R,4R)-3,4-Dimethyl-4-piperidinyl]phenol", "Phenol, 3-[(3R,4R)-3,4-dimethyl-4-piperidinyl]-", "Phenol, 3-(3,4-dimethyl-4-piperidinyl)-, (3R-cis)-", "3-[(3R,4R)-3,4-Dimethyl-4-piperidinyl]phenol", "(+)-(3R,4R)-Dimethyl-4-(3-hydroxyphenyl)piperidine", "(+)-(3R,4R)-3,4-Dimethyl-4-(3-hydroxyphenyl)piperidine", "(3R,4R)-3,4-Dimethyl-4-(3-hydroxyphenyl)piperidine", "(3R,4R)-3-(3,4-Dimethyl-4-piperidinyl)phenol"], "SMILES": "CC1(C(C)CNCC1)C2=CC(O)=CC=C2", "physical_data": {"Molecular Weight": "205.30", "Molecular Formula": "C13H19NO", "Melting Point": "174-175 \u00b0C"}}