{"cas_no": "1191951-57-1", "cn_name": "4-\u5341\u4e8c\u70f7\u57fa-N-1,3,4-\u567b\u4e8c\u5511-2-\u57fa\u82ef\u78fa\u9170\u80fa", "en_name": ["4-Dodecyl-N-1,3,4-thiadiazol-2-ylbenzenesulfonamide", "Benzenesulfonamide, 4-dodecyl-N-1,3,4-thiadiazol-2-yl-", "4-Dodecyl-N-1,3,4-thiadiazol-2-ylbenzenesulfonamide", "PHT 427"], "SMILES": "S(NC1=NN=CS1)(=O)(=O)C2=CC=C(CCCCCCCCCCCC)C=C2", "physical_data": {"Molecular Weight": "409.61", "Molecular Formula": "C20H31N3O2S2", "Melting Point": "126-127 \u00b0C"}}