{"cas_no": "1191-99-7", "cn_name": "2,3-\u4e8c\u6c22\u544b\u5583", "en_name": ["2,3-Dihydrofuran", "Furan, 2,3-dihydro-", "2,3-Dihydrofuran", "4,5-Dihydrofuran", "NSC 85221"], "SMILES": "C1C=COC1", "physical_data": {"Molecular Weight": "70.09", "Molecular Formula": "C4H6O", "Boiling Point": "54.5 \u00b0C", "Density": "0.927 g/cm\u00b3 @ Temp: 15.5 \u00b0C"}}