{"cas_no": "1191-43-1", "cn_name": "1,6-\u5df1\u4e8c\u786b\u9187", "en_name": ["1,6-Hexanedithiol", "1,6-Hexanedithiol", "1,6-Dimercaptohexane", "1,6-Hexanedimercaptan", "1,6-Hexamethylenedithiol", "NSC 29031", "NSC 403684"], "SMILES": "C(CCCS)CCS", "physical_data": {"Molecular Weight": "150.31", "Molecular Formula": "C6H14S2", "Boiling Point": "137-138 \u00b0C @ Press: 0.9 Torr", "Melting Point": "29.5-30.5 \u00b0C"}}