{"cas_no": "119192-09-5", "cn_name": "1-(4-\u785d\u57fa\u82ef\u57fa)\u7532\u57fa-1,2,4-\u4e09\u6c2e\u5511", "en_name": ["1-(4-Nitrobenzyl)-1H-1,2,4-triazole", "1H-1,2,4-Triazole, 1-[(4-nitrophenyl)methyl]-", "1-[(4-Nitrophenyl)methyl]-1H-1,2,4-triazole", "4-(1,2,4-Triazol-1-ylmethyl)nitrobenzene", "1-(4-Nitrobenzyl)-1H-1,2,4-triazole", "1-(4-Nitrobenzyl)-1,2,4-triazole", "1-(4-Nitrophenyl)methyl-1,2,4-triazole", "1-[(4-Nitrophenyl)methyl]-1,2,4-triazole"], "SMILES": "C(C1=CC=C(N(=O)=O)C=C1)N2C=NC=N2", "physical_data": {"Molecular Weight": "204.19", "Molecular Formula": "C9H8N4O2", "Melting Point": "100-101 \u00b0C"}}