{"cas_no": "1191-25-9", "cn_name": "6-\u7f9f\u57fa\u5df1\u9178", "en_name": ["6-Hydroxyhexanoic acid", "Hexanoic acid, 6-hydroxy-", "6-Hydroxyhexanoic acid", "6-Hydroxycaproic acid", "\u03b5-Hydroxycaproic acid", "NSC 617319"], "SMILES": "C(CC(O)=O)CCCO", "physical_data": {"Molecular Weight": "132.16", "Molecular Formula": "C6H12O3", "Boiling Point": "135-140 \u00b0C @ Press: 16 Torr", "Melting Point": "40-41 \u00b0C", "Density": "1.0214 g/cm\u00b3 @ Temp: 20 \u00b0C"}}