{"cas_no": "1191-95-3", "cn_name": "\u73af\u4e01\u916e", "en_name": ["Cyclobutanone", "Cyclobutanone", "NSC 87632"], "SMILES": "O=C1CCC1", "physical_data": {"Molecular Weight": "70.09", "Molecular Formula": "C4H6O", "Boiling Point": "99 \u00b0C", "Melting Point": "-50.9 \u00b0C", "Density": "0.9322 g/cm\u00b3 @ Temp: 20 \u00b0C"}}