{"cas_no": "1191-04-4", "cn_name": "\u53cd\u5f0f-2-\u5df1\u70ef\u9178", "en_name": ["2-Hexenoic acid", "2-Hexenoic acid", "\u03b1-Hexenoic acid"], "SMILES": "C(=CCCC)C(O)=O", "physical_data": {"Molecular Weight": "114.14", "Molecular Formula": "C6H10O2", "Boiling Point": "216.5 \u00b0C", "Melting Point": "36.5 \u00b0C", "Density": "0.949 g/cm\u00b3 @ Temp: 40 \u00b0C"}}