{"cas_no": "1191-67-9", "cn_name": "1,10-\u7678\u4e8c\u786b\u9187", "en_name": ["1,10-Decanedithiol", "1,10-Decanedithiol", "1,10-Dimercaptodecane", "NSC 9486"], "SMILES": "C(CCCCCS)CCCCS", "physical_data": {"Molecular Weight": "206.41", "Molecular Formula": "C10H22S2", "Boiling Point": "165-166 \u00b0C @ Press: 15 Torr", "Melting Point": "20 \u00b0C"}}