{"cas_no": "119139-23-0", "cn_name": "\u53cc\u5432\u54da\u9a6c\u6765\u9170\u4e9a\u80fa IV", "en_name": ["Arcyriarubin A", "1H-Pyrrole-2,5-dione, 3,4-di-1H-indol-3-yl-", "3,4-Di-1H-indol-3-yl-1H-pyrrole-2,5-dione", "Arcyriarubin A", "3,4-Bis[3-indolyl]-1H-pyrrole-2,5-dione", "bisindolylmaleimide IV", "3,4-Bis(1H-indol-3-yl)-2,5-dihydropyrrole-2,5-dione", "3,4-Bis(1H-indol-3-yl)pyrrole-2,5-dione"], "SMILES": "O=C1C(=C(C(=O)N1)C=2C=3C(NC2)=CC=CC3)C=4C=5C(NC4)=CC=CC5", "physical_data": {"Molecular Weight": "327.34", "Molecular Formula": "C20H13N3O2", "Melting Point": "161 \u00b0C"}}