{"cas_no": "1191-41-9", "cn_name": "\u4e9a\u9ebb\u9178\u4e59\u916f", "en_name": ["Ethyl linolenate", "9,12,15-Octadecatrienoic acid, ethyl ester, (9Z,12Z,15Z)-", "Linolenic acid, ethyl ester", "9,12,15-Octadecatrienoic acid, ethyl ester, (Z,Z,Z)-", "Ethyl linolenate", "Ethyl cis,cis,cis-9,12,15-octadecatrienoate", "Ethyl \u03b1-linolenate", "Ethyl (Z,Z,Z)-9,12,15-octadecatrienoate", "Ethyl linolenoate", "(Z,Z,Z)-9,12,15-Octadecatrienoic acid ethyl ester", "(Z,Z,Z)-9,12,15-Octadecatrienoic acid ethyl ester"], "SMILES": "C(CCCCCC=CCC=CCC=CCC)CC(OCC)=O", "physical_data": {"Molecular Weight": "306.48", "Molecular Formula": "C20H34O2", "Boiling Point": "197 \u00b0C @ Press: 6.5 Torr"}}