{"cas_no": "119162-46-8", "cn_name": "3-(3-\u7532\u6c27\u57fa\u82ef\u57fa)-5-\u6c28\u57fa\u5f02\u5641\u5511", "en_name": ["3-(3-Methoxyphenyl)-5-isoxazolamine", "5-Isoxazolamine, 3-(3-methoxyphenyl)-", "3-(3-Methoxyphenyl)-5-isoxazolamine"], "SMILES": "O(C)C=1C=C(C=CC1)C=2C=C(N)ON2", "physical_data": {"Molecular Weight": "190.20", "Molecular Formula": "C10H10N2O2", "Melting Point": "83-85 \u00b0C"}}