{"cas_no": "119170-52-4", "cn_name": "\u51b3\u660e\u5b50\u82f7C", "en_name": ["Cassiaside C", "1H-Naphtho[2,3-c]pyran-1-one, 9-[(6-O-\u03b2-D-glucopyranosyl-\u03b2-D-glucopyranosyl)oxy]-10-hydroxy-7-methoxy-3-methyl-", "9-[(6-O-\u03b2-D-Glucopyranosyl-\u03b2-D-glucopyranosyl)oxy]-10-hydroxy-7-methoxy-3-methyl-1H-naphtho[2,3-c]pyran-1-one", "Cassiaside C", "Toralactone gentiobioside", "Toralactone 9-O-\u03b2-D-gentiobioside", "Toralactone-9-O-gentiobioside"], "SMILES": "O(C=1C2=C(C=C3C(=C2O)C(=O)OC(C)=C3)C=C(OC)C1)C4OC(COC5OC(CO)C(O)C(O)C5O)C(O)C(O)C4O", "physical_data": {"Molecular Weight": "596.53", "Molecular Formula": "C27H32O15", "Melting Point": "235-237 \u00b0C"}}