{"cas_no": "119169-78-7", "cn_name": "\u7231\u666e\u5217\u7279", "en_name": ["Epristeride", "Androsta-3,5-diene-3-carboxylic acid, 17-[[(1,1-dimethylethyl)amino]carbonyl]-, (17\u03b2)-", "(17\u03b2)-17-[[(1,1-Dimethylethyl)amino]carbonyl]androsta-3,5-diene-3-carboxylic acid", "SKF 105657", "17\u03b2-(tert-Butylcarbamoyl)androsta-3,5-diene-3-carboxylic acid", "Epristeride", "N-tert-Butylandrosta-3,5-diene-17\u03b2-carboxamide-3-carboxylic acid", "ONO 9302"], "SMILES": "CC12C(C3C(C4(C)C(=CC3)C=C(C(O)=O)CC4)CC1)CCC2C(NC(C)(C)C)=O", "physical_data": {"Molecular Weight": "399.57", "Molecular Formula": "C25H37NO3", "Melting Point": "242-249 \u00b0C"}}