{"cas_no": "119171-18-5", "cn_name": "1-\u7532\u57fa-3-\u4e19\u57fa\u7898\u5316\u54aa\u5511\u55e1", "en_name": ["1-Methyl-3-propylimidazolium iodide", "1H-Imidazolium, 1-methyl-3-propyl-, iodide (1:1)", "1H-Imidazolium, 1-methyl-3-propyl-, iodide", "1-Methyl-3-propylimidazolium iodide", "1-Propyl-3-methylimidazolium iodide", "1-Methyl-3-n-propylimidazolium iodide", "Methylpropylimidazolium iodide", "MPII", "MPrZ-I", "3-Propyl-1-methylimidazolium iodide", "PMII", "3-Methyl-1-propylimidazolium iodide", "1-Methyl-3-propyl-1H-imidazolium iodide", "1-Methyl-3-propyl-1H-imidazol-3-ium iodide", "3-Methyl-1-propyl-1H-imidazol-3-ium iodide", "1-Propyl-3-methyl-1H-imidazol-3-ium iodide"], "SMILES": "C(CC)[N+]1=CN(C)C=C1.[I-]", "physical_data": {"Molecular Weight": "", "Molecular Formula": "C7H13N2.I", "Melting Point": "17.0 \u00b0C", "Density": "1.49 g/cm\u00b3 @ Temp: 85 \u00b0C"}}