{"cas_no": "1191-62-4", "cn_name": "1,8-\u8f9b\u4e8c\u786b\u9187", "en_name": ["1,8-Octanedithiol", "1,8-Octanedithiol", "1,8-Octamethylenedithiol"], "SMILES": "C(CCCCS)CCCS", "physical_data": {"Molecular Weight": "178.36", "Molecular Formula": "C8H18S2", "Boiling Point": "101 \u00b0C @ Press: 1 Torr"}}