{"cas_no": "1192-21-8", "cn_name": "1-\u7532\u57fa-5-\u6c28\u57fa\u5421\u5511", "en_name": ["1-Methyl-1H-pyrazol-5-amine", "1H-Pyrazol-5-amine, 1-methyl-", "Pyrazole, 5-amino-1-methyl-", "1-Methyl-1H-pyrazol-5-amine", "5-Amino-1-methylpyrazole", "1-Methyl-5-aminopyrazole", "2-Methyl-2H-pyrazol-3-ylamine", "3-Amino-2-methyl-2H-pyrazole", "NSC 76510", "(1-Methyl-1H-pyrazol-5-yl)amine", "5-Amino-1-methyl-1H-pyrazole", "2-Methylpyrazol-3-amine", "3-Amino-2-methylpyrazole"], "SMILES": "NC=1N(C)N=CC1", "physical_data": {"Molecular Weight": "97.12", "Molecular Formula": "C4H7N3", "Boiling Point": "127 \u00b0C @ Press: 12 Torr", "Melting Point": "71-72 \u00b0C"}}