{"cas_no": "1192651-80-1", "cn_name": "(1R,2S,5R)-2-(\u6c28\u57fa\u7fb0\u57fa)-7-\u6c27\u4ee3-1,6-\u4e8c\u6c2e\u6742\u53cc\u73af[3.2.1]\u8f9b-6-\u57fa\u786b\u9178\u916f(\u56db\u4e01\u57fa\u94f5)\u76d0", "en_name": ["1-Butanaminium, N,N,N-tributyl-, (1R,2S,5R)-2-(aminocarbonyl)-7-oxo-1,6-diazabicyclo[3.2.1]oct-6-yl sulfate (1:1)", "1-Butanaminium, N,N,N-tributyl-, (1R,2S,5R)-2-(aminocarbonyl)-7-oxo-1,6-diazabicyclo[3.2.1]oct-6-yl sulfate (1:1)"], "SMILES": "[N+](CCCC)(CCCC)(CCCC)CCCC.C(N)(=O)C1N2C(=O)N(OS(=O)(=O)[O-])C(C2)CC1", "physical_data": {"Molecular Weight": "", "Molecular Formula": "C16H36N.C7H10N3O6S", "Melting Point": "180.3-182.4 \u00b0C (decomp)"}}