{"cas_no": "1192-37-6", "cn_name": "\u4e9a\u7532\u57fa\u73af\u5df1\u70f7", "en_name": ["Methylenecyclohexane", "Cyclohexane, methylene-", "Methylenecyclohexane", "1-Methylenecyclohexane", "NSC 73918"], "SMILES": "C=C1CCCCC1", "physical_data": {"Molecular Weight": "96.17", "Molecular Formula": "C7H12", "Boiling Point": "102.5 \u00b0C", "Melting Point": "-106.7 \u00b0C", "Density": "0.828 g/cm\u00b3 @ Temp: 0 \u00b0C"}}