{"cas_no": "1192-30-9", "cn_name": "2-\u6eb4\u7532\u57fa\u56db\u6c22\u544b\u5583", "en_name": ["2-(Bromomethyl)tetrahydrofuran", "Furan, 2-(bromomethyl)tetrahydro-", "2-(Bromomethyl)tetrahydrofuran", "Tetrahydrofurfuryl bromide", "(\u00b1)-Tetrahydrofurfuryl bromide", "(RS)-Tetrahydrofurfuryl bromide", "NSC 93886", "(Tetrahydrofuran-2-yl)methyl bromide", "2-(Bromomethyl)oxolane"], "SMILES": "C(Br)C1CCCO1", "physical_data": {"Molecular Weight": "165.03", "Molecular Formula": "C5H9BrO", "Boiling Point": "170 \u00b0C", "Density": "1.483 g/cm\u00b3 @ Temp: 13 \u00b0C"}}