{"cas_no": "1192-34-3", "cn_name": "4-\u7532\u57fa-1,3-\u4e8c\u6c22\u54aa\u5511-2-\u916e", "en_name": ["1,3-Dihydro-4-methyl-2H-imidazol-2-one", "2H-Imidazol-2-one, 1,3-dihydro-4-methyl-", "4-Imidazolin-2-one, 4-methyl-", "1,3-Dihydro-4-methyl-2H-imidazol-2-one", "4-Methyl-4-imidazolin-2-one", "4-Methyl-2-(1H)imidazolone", "NSC 186756", "2-Hydroxy-4-methyl-1H-imidazole"], "SMILES": "CC=1NC(=O)NC1", "physical_data": {"Molecular Weight": "98.10", "Molecular Formula": "C4H6N2O", "Melting Point": "202.5-204.5 \u00b0C"}}