{"cas_no": "1192-81-0", "cn_name": "3-\u7532\u57fa-5-(\u6c2f\u7532\u57fa)-1,2,4-\u5641\u4e8c\u5511", "en_name": ["5-(Chloromethyl)-3-methyl-1,2,4-oxadiazole", "1,2,4-Oxadiazole, 5-(chloromethyl)-3-methyl-", "5-(Chloromethyl)-3-methyl-1,2,4-oxadiazole", "3-Methyl-5-(chloromethyl)-1,2,4-oxadiazole"], "SMILES": "C(Cl)C1=NC(C)=NO1", "physical_data": {"Molecular Weight": "132.55", "Molecular Formula": "C4H5ClN2O", "Boiling Point": "112 \u00b0C @ Press: 90 Torr"}}