{"cas_no": "1192651-49-2", "cn_name": "\uff082S\uff0c5R\uff09-6-\uff08\u82c4\u6c27\u57fa\uff09-7-\u6c27\u4ee3-1,6-\u4e8c\u6c2e\u6742\u53cc\u73af[3.2.1]\u8f9b\u70f7-2-\u7fa7\u9170\u80fa", "en_name": ["(1R,2S,5R)-7-Oxo-6-(phenylmethoxy)-1,6-diazabicyclo[3.2.1]octane-2-carboxamide", "1,6-Diazabicyclo[3.2.1]octane-2-carboxamide, 7-oxo-6-(phenylmethoxy)-, (1R,2S,5R)-", "(1R,2S,5R)-7-Oxo-6-(phenylmethoxy)-1,6-diazabicyclo[3.2.1]octane-2-carboxamide", "(2S,5R)-6-(Benzyloxy)-7-oxo-1,6-diazabicyclo[3.2.1]octane-2-carboxamide"], "SMILES": "C(N)(=O)C1N2C(=O)N(OCC3=CC=CC=C3)C(C2)CC1", "physical_data": {"Molecular Weight": "275.30", "Molecular Formula": "C14H17N3O3", "Melting Point": "154.2-156.1 \u00b0C"}}