{"cas_no": "1192491-61-4", "cn_name": "\u963f\u7ef4\u5df4\u5766\u94a0", "en_name": ["Avibactam sodium", "Sulfuric acid, mono[(1R,2S,5R)-2-(aminocarbonyl)-7-oxo-1,6-diazabicyclo[3.2.1]oct-6-yl] ester, sodium salt (1:1)", "NXL 104", "(2S,5R)-7-Oxo-6-(sulfooxy)-1,6-diazabicyclo[3.2.1]octane-2-carboxamide monosodium salt", "Avibactam sodium"], "SMILES": "C(N)(=O)C1N2C(=O)N(OS(=O)(=O)O)C(C2)CC1.[Na]", "physical_data": {"Molecular Weight": "", "Molecular Formula": "C7H11N3O6S.Na", "Melting Point": "259.1-262.4 \u00b0C (decomp)"}}