{"cas_no": "1192-52-5", "cn_name": "\u4e8c\u6c2f-1,2-\u4e8c\u786b\u73af\u620a\u70ef\u916e", "en_name": ["4,5-Dichloro-1,2-dithiol-3-one", "3H-1,2-Dithiol-3-one, 4,5-dichloro-", "1,2-Dithiol-3-one, dichloro-", "4,5-Dichloro-3H-1,2-dithiol-3-one", "4,5-Dichloro-1,2-dithiacyclopentenone", "4,5-Dichloro-1,2-dithiol-3-one", "HR 45", "NSC 135976", "Dithiol", "Daracide 7816", "RYH 86", "RYH 86Ex", "Daracide 816-12", "Daracide 7802", "Microban 86"], "SMILES": "ClC1=C(Cl)SSC1=O", "physical_data": {"Molecular Weight": "187.07", "Molecular Formula": "C3Cl2OS2", "Boiling Point": "125 \u00b0C @ Press: 11 Torr", "Melting Point": "61 \u00b0C"}}