{"cas_no": "1192-07-0", "cn_name": "\u5f02\u5641\u5511\u5549-3-\u916e", "en_name": ["3-Isoxazolidinone", "3-Isoxazolidinone", "3-Isoxazolidone", "3-Hydroxyisoxazoline", "1,2-Oxazolidin-3-one"], "SMILES": "O=C1CCON1", "physical_data": {"Molecular Weight": "87.08", "Molecular Formula": "C3H5NO2", "Melting Point": "69-70 \u00b0C"}}