{"cas_no": "1192-62-7", "cn_name": "2-\u4e59\u9170\u57fa\u544b\u5583", "en_name": ["2-Acetylfuran", "Ethanone, 1-(2-furanyl)-", "Ketone, 2-furyl methyl", "1-(2-Furanyl)ethanone", "Methyl 2-furyl ketone", "2-Furyl methyl ketone", "2-Furylethanone", "2-Acetylfuran", "1-(2-Furyl)ethanone", "\u03b1-Acetylfuran", "NSC 4665", "NSC 49133", "1-(Furan-2-yl)ethan-1-one"], "SMILES": "C(C)(=O)C1=CC=CO1", "physical_data": {"Molecular Weight": "110.11", "Molecular Formula": "C6H6O2", "Boiling Point": "175 \u00b0C", "Melting Point": "33 \u00b0C", "Density": "1.09750061035156 g/cm\u00b3 @ Temp: 20 \u00b0C"}}