{"cas_no": "1192-28-5", "cn_name": "\u73af\u620a\u916e\u809f", "en_name": ["Cyclopentanone, oxime", "Cyclopentanone, oxime", "Cyclopentanone oxime", "NSC 3164"], "SMILES": "N(O)=C1CCCC1", "physical_data": {"Molecular Weight": "99.13", "Molecular Formula": "C5H9NO", "Boiling Point": "196 \u00b0C", "Melting Point": "57.8 \u00b0C"}}