{"cas_no": "1192-63-8", "cn_name": "1-\u5421\u54af\u70f7\u7fb0\u9170\u6c2f", "en_name": ["1-Pyrrolidinecarbonyl chloride", "1-Pyrrolidinecarbonyl chloride", "1-Pyrrolidinylcarbonyl chloride", "Pyrrolidine-1-carbonyl chloride"], "SMILES": "C(Cl)(=O)N1CCCC1", "physical_data": {"Molecular Weight": "133.58", "Molecular Formula": "C5H8ClNO", "Boiling Point": "94-96 \u00b0C @ Press: 5 Torr", "Density": "1.2120 g/cm\u00b3 @ Temp: 20 \u00b0C"}}