{"cas_no": "1193-10-8", "cn_name": "3-\u7532\u57fa-3-\u73af\u4e01\u70ef\u781c", "en_name": ["3-Methylsulfolene", "Thiophene, 2,5-dihydro-3-methyl-, 1,1-dioxide", "3-Methyl-3-sulfolene", "3-Methyl-2,5-dihydrothiophene dioxide", "3-Methyl-2,5-dihydrothiophene 1,1-dioxide", "3-Methylsulfolene", "1,3-Butadiene, 2-methyl-, sulfone", "2,5-Dihydro-3-methylthiophene S,S-dioxide", "3-Methyl-3-thiolene 1,1-dioxide", "2,5-Dihydro-3-methylthiophene 1,1-dioxide", "NSC 15090", "3-Methyl-2,5-dihydro-1\u03bb6-thiophene-1,1-dione"], "SMILES": "O=S1(=O)CC(C)=CC1", "physical_data": {"Molecular Weight": "132.18", "Molecular Formula": "C5H8O2S", "Melting Point": "63-64 \u00b0C"}}