{"cas_no": "1193-21-1", "cn_name": "4,6-\u4e8c\u6c2f\u5627\u5576", "en_name": ["4,6-Dichloropyrimidine", "Pyrimidine, 4,6-dichloro-", "4,6-Dichloropyrimidine", "NSC 37530"], "SMILES": "ClC=1C=C(Cl)N=CN1", "physical_data": {"Molecular Weight": "148.98", "Molecular Formula": "C4H2Cl2N2", "Melting Point": "67.5 \u00b0C"}}