{"cas_no": "119302-91-9", "cn_name": "\u7f57\u5e93\u6eb4\u94f5", "en_name": ["Rocuronium bromide", "Pyrrolidinium, 1-[(2\u03b2,3\u03b1,5\u03b1,16\u03b2,17\u03b2)-17-(acetyloxy)-3-hydroxy-2-(4-morpholinyl)androstan-16-yl]-1-(2-propenyl)-, bromide", "Androstane, pyrrolidinium deriv.", "Org 9426", "Rocuronium bromide", "Zemuron", "Esmeron", "(+)-Rocuronium bromide"], "SMILES": "C(C=C)[N+]1(CCCC1)C2C(OC(C)=O)C3(C)C(C2)C4C(CC3)C5(C)C(CC4)CC(O)C(C5)N6CCOCC6.[Br-]", "physical_data": {"Molecular Weight": "", "Molecular Formula": "C32H53N2O4.Br", "Melting Point": "161-169 \u00b0C"}}