{"cas_no": "1193-02-8", "cn_name": "4-\u6c28\u57fa\u82ef\u786b\u915a", "en_name": ["4-Aminothiophenol", "Benzenethiol, 4-amino-", "Benzenethiol, p-amino-", "4-Aminobenzenethiol", "4-Mercaptoaniline", "p-Aminothiophenol", "p-Aminobenzenethiol", "p-Aminophenyl mercaptan", "4-Aminothiophenol", "p-Mercaptoaniline", "4-Mercaptobenzenamine", "p-Aminophenylthiol"], "SMILES": "NC1=CC=C(S)C=C1", "physical_data": {"Molecular Weight": "125.19", "Molecular Formula": "C6H7NS", "Boiling Point": "143 \u00b0C", "Melting Point": "46 \u00b0C"}}