{"cas_no": "1193-56-2", "cn_name": "5-\u6c2f-6-\u7f9f\u57fa-1H-\u5627\u5576-4-\u916e", "en_name": ["5-Chloro-6-hydroxy-4(3H)-pyrimidinone", "4(3H)-Pyrimidinone, 5-chloro-6-hydroxy-", "4(1H)-Pyrimidinone, 5-chloro-6-hydroxy-", "4,6-Pyrimidinediol, 5-chloro-", "5-Chloro-6-hydroxy-4(3H)-pyrimidinone", "NSC 42601"], "SMILES": "ClC=1C(=O)NC=NC1O", "physical_data": {"Molecular Weight": "146.53", "Molecular Formula": "C4H3ClN2O2", "Melting Point": "260 \u00b0C"}}