{"cas_no": "1193-82-4", "cn_name": "\u7532\u57fa\u82ef\u57fa\u4e9a\u781c", "en_name": ["Methyl phenyl sulfoxide", "Benzene, (methylsulfinyl)-", "Sulfoxide, methyl phenyl", "(Methylsulfinyl)benzene", "Methyl phenyl sulfoxide", "Phenyl methyl sulfoxide", "Thioanisole S-oxide", "Thioanisol sulfoxide", "(\u00b1)-Methyl phenyl sulfoxide", "(\u00b1)-(Methylsulfinyl)benzene", "(RS)-Methyl phenyl sulfoxide", "(\u00b1)-Phenyl methyl sulfoxide", "NSC 203014"], "SMILES": "S(C)(=O)C1=CC=CC=C1", "physical_data": {"Molecular Weight": "140.20", "Molecular Formula": "C7H8OS", "Boiling Point": "263.5 \u00b0C", "Melting Point": "32 \u00b0C"}}