{"cas_no": "1193-18-6", "cn_name": "3-\u7532\u57fa-2-\u73af\u5df1\u70ef-1-\u916e", "en_name": ["3-Methyl-2-cyclohexen-1-one", "2-Cyclohexen-1-one, 3-methyl-", "3-Methyl-2-cyclohexen-1-one", "1-Methyl-1-cyclohexen-3-one", "Seudenone", "MCH", "3-Methyl-2-cyclohexene-1-one", "NSC 43632", "3-Methyl-2-cyclohexenone"], "SMILES": "CC1=CC(=O)CCC1", "physical_data": {"Molecular Weight": "110.15", "Molecular Formula": "C7H10O", "Boiling Point": "201 \u00b0C", "Melting Point": "-21 \u00b0C", "Density": "0.978 g/cm\u00b3 @ Temp: 15 \u00b0C"}}