{"cas_no": "1193-92-6", "cn_name": "3-\u5421\u5576\u919b\u809f", "en_name": ["3-Pyridinecarboxaldehyde, oxime", "3-Pyridinecarboxaldehyde, oxime", "Nicotinaldehyde, oxime", "Nicotinaldoxime", "3-Pyridinaldoxime", "3-Pyridinecarboxaldoxime", "3-Pyridylaldoxime", "3-[(Hydroxyimino)methyl]pyridine", "NSC 66485"], "SMILES": "C(=NO)C=1C=CC=NC1", "physical_data": {"Molecular Weight": "122.12", "Molecular Formula": "C6H6N2O", "Melting Point": "150 \u00b0C"}}