{"cas_no": "1193-47-1", "cn_name": "2,2-\u4e8c\u7532\u57fa\u73af\u5df1\u916e", "en_name": ["2,2-Dimethylcyclohexanone", "Cyclohexanone, 2,2-dimethyl-", "2,2-Dimethylcyclohexanone", "2,2-Dimethyl-1-cyclohexanone", "NSC 20553"], "SMILES": "O=C1C(C)(C)CCCC1", "physical_data": {"Molecular Weight": "126.20", "Molecular Formula": "C8H14O", "Boiling Point": "172 \u00b0C", "Melting Point": "-20.5 \u00b0C", "Density": "0.9141 g/cm\u00b3 @ Temp: 20 \u00b0C"}}