{"cas_no": "1193-03-9", "cn_name": "2-\u6c1f\u82ef\u787c\u9178", "en_name": ["4-Piperidinamine, 1-methyl-, hydrochloride (1:2)", "4-Piperidinamine, 1-methyl-, hydrochloride (1:2)", "Piperidine, 4-amino-1-methyl-, dihydrochloride", "4-Piperidinamine, 1-methyl-, dihydrochloride", "4-Amino-1-methylpiperidine dihydrochloride", "1-Methylpiperidin-4-amine dihydrochloride"], "SMILES": "NC1CCN(C)CC1.Cl", "physical_data": {"Molecular Weight": "", "Molecular Formula": "C6H14N2.2ClH", "Melting Point": "247 \u00b0C"}}