{"cas_no": "1193-65-3", "cn_name": "3-\u594e\u5b81\u73af\u916e\u76d0\u9178\u76d0", "en_name": ["1-Azabicyclo[2.2.2]octan-3-one, hydrochloride (1:1)", "1-Azabicyclo[2.2.2]octan-3-one, hydrochloride (1:1)", "3-Quinuclidinone, hydrochloride", "1-Azabicyclo[2.2.2]octan-3-one, hydrochloride", "3-Quinuclidone hydrochloride", "3-Oxoquinuclidine hydrochloride", "Quinuclidinone hydrochloride"], "SMILES": "O=C1C2CCN(C1)CC2.Cl", "physical_data": {"Molecular Weight": "", "Molecular Formula": "C7H11NO.ClH", "Melting Point": "294-295 \u00b0C (decomp)"}}