{"cas_no": "119309-02-3", "cn_name": "5-\u7f9f\u57fa-2-(4-\u7f9f\u57fa\u82ef\u57fa)-8,8-\u4e8c\u7532\u57fa-4H,8H-\u82ef\u5e76[1,2-B:3,4-B']\u4e8c\u5421\u5583-4-\u916e", "en_name": ["Atalantoflavone", "4H,8H-Benzo[1,2-b:3,4-b\u2032]dipyran-4-one, 5-hydroxy-2-(4-hydroxyphenyl)-8,8-dimethyl-", "5-Hydroxy-2-(4-hydroxyphenyl)-8,8-dimethyl-4H,8H-benzo[1,2-b:3,4-b\u2032]dipyran-4-one", "Atalantoflavone", "Limonianin", "5,4\u2032-Dihydroxy-7,8-(2,2-dimethylpyrano)flavone"], "SMILES": "OC=1C2=C(C3=C(C1)OC(C)(C)C=C3)OC(=CC2=O)C4=CC=C(O)C=C4", "physical_data": {"Molecular Weight": "336.34", "Molecular Formula": "C20H16O5", "Melting Point": "285-293 \u00b0C"}}