{"cas_no": "1193-71-1", "cn_name": "2,4-\u4e8c\u7532\u57fa-5-\u6c28\u57fa\u5421\u5576", "en_name": ["4,6-Dimethyl-3-pyridinamine", "3-Pyridinamine, 4,6-dimethyl-", "2,4-Lutidine, 5-amino-", "4,6-Dimethyl-3-pyridinamine", "5-Amino-2,4-dimethylpyridine", "3-Amino-4,6-dimethylpyridine", "5-Amino-2,4-lutidine", "4,6-Dimethylpyridin-3-ylamine"], "SMILES": "CC=1C(N)=CN=C(C)C1", "physical_data": {"Molecular Weight": "122.17", "Molecular Formula": "C7H10N2", "Boiling Point": "255-257 \u00b0C", "Melting Point": "68 \u00b0C"}}