{"cas_no": "1193-79-9", "cn_name": "5-\u7532\u57fa-2-\u4e59\u9170\u57fa\u544b\u5583", "en_name": ["2-Acetyl-5-methylfuran", "Ethanone, 1-(5-methyl-2-furanyl)-", "Ketone, methyl 5-methyl-2-furyl", "1-(5-Methyl-2-furanyl)ethanone", "2-Methyl-5-acetylfuran", "5-Acetyl-2-methylfuran", "2-Acetyl-5-methylfuran", "5-Methyl-2-furylethanone", "NSC 80404", "1-(5-Methylfuran-2-yl)ethanone", "2-Acetyl-5-methylfural", "1-(5-Methylfuran-2-yl)ethan-1-one"], "SMILES": "C(C)(=O)C=1OC(C)=CC1", "physical_data": {"Molecular Weight": "124.14", "Molecular Formula": "C7H8O2", "Boiling Point": "74 \u00b0C", "Melting Point": "2 \u00b0C", "Density": "1.0655 g/cm\u00b3 @ Temp: 20 \u00b0C"}}