{"cas_no": "1193-12-0", "cn_name": "3,3-\u4e8c\u7532\u57fa\u54cc\u5576", "en_name": ["3,3-Dimethylpiperidine", "Piperidine, 3,3-dimethyl-", "3,3-Dimethylpiperidine"], "SMILES": "CC1(C)CCCNC1", "physical_data": {"Molecular Weight": "113.20", "Molecular Formula": "C7H15N", "Boiling Point": "137 \u00b0C"}}