{"cas_no": "1193-22-2", "cn_name": "4-\u6c28\u57fa-6-\u7f9f\u57fa\u5627\u5576", "en_name": ["6-Amino-4(3H)-pyrimidinone", "4(3H)-Pyrimidinone, 6-amino-", "4(1H)-Pyrimidinone, 6-amino-", "4-Pyrimidinol, 6-amino-", "6-Amino-4(3H)-pyrimidinone", "4-Hydroxy-6-aminopyrimidine", "4-Amino-6-hydroxypyrimidine", "4-Amino-6-pyrimidinol", "NSC 19868", "6-Aminopyrimidin-4(3H)-one"], "SMILES": "NC1=CC(=O)N=CN1", "physical_data": {"Molecular Weight": "111.10", "Molecular Formula": "C4H5N3O", "Melting Point": "263-264 \u00b0C (decomp)"}}