{"cas_no": "119318-15-9", "cn_name": "\u9f50\u58a9\u679c-12-\u70ef-3,24-\u4e8c\u9187", "en_name": ["3\u03b2,24-Dihydroxyolean-12-ene", "Olean-12-ene-3,23-diol, (3\u03b2,4\u03b2)-", "Olean-12-ene-3\u03b2,24-diol", "(3\u03b2,4\u03b2)-Olean-12-ene-3,23-diol", "3\u03b2,24-Dihydroxyolean-12-ene"], "SMILES": "CC12C3(C)C(C4C(C)(CC3)CCC(C)(C)C4)=CCC1C5(C)C(CC2)C(CO)(C)C(O)CC5", "physical_data": {"Molecular Weight": "442.72", "Molecular Formula": "C30H50O2", "Melting Point": "243-245 \u00b0C"}}