{"cas_no": "119389-05-8", "cn_name": "4-\u82ef\u57fa\u4e59\u7094\u57fa\u90bb\u82ef\u4e8c\u7532\u9178\u9150", "en_name": ["4-(Phenylethynyl)phthalic anhydride", "1,3-Isobenzofurandione, 5-(2-phenylethynyl)-", "1,3-Isobenzofurandione, 5-(phenylethynyl)-", "5-(2-Phenylethynyl)-1,3-isobenzofurandione", "4-(Phenylethynyl)phthalic anhydride", "4-(2-Phenylethynyl)phthalic anhydride", "2-(3,4-Dicarboxyphenyl)-1-phenylacetylene anhydride", "4-(Phenylethynyl)-1,2-benzenedicarboxylic anhydride", "CKK 2", "PEPA"], "SMILES": "O=C1C=2C(C(=O)O1)=CC=C(C#CC3=CC=CC=C3)C2", "physical_data": {"Molecular Weight": "248.23", "Molecular Formula": "C16H8O3", "Melting Point": "152.6-152.7 \u00b0C"}}