{"cas_no": "1193-24-4", "cn_name": "4,6-\u4e8c\u7f9f\u57fa\u5627\u5576", "en_name": ["4,6-Dihydroxypyrimidine", "4(3H)-Pyrimidinone, 6-hydroxy-", "4(1H)-Pyrimidinone, 6-hydroxy-", "4,6-Pyrimidinediol", "6-Hydroxy-4(3H)-pyrimidinone", "4,6-Dihydroxypyrimidine", "NSC 22838", "6-Hydroxypyrimidin-4(3H)-one"], "SMILES": "O=C1C=C(O)N=CN1", "physical_data": {"Molecular Weight": "112.09", "Molecular Formula": "C4H4N2O2", "Melting Point": "&gt;230 \u00b0C (decomp)"}}