{"cas_no": "1193-81-3", "cn_name": "1-\u73af\u5df1\u57fa\u4e59\u9187", "en_name": ["1-Cyclohexylethanol", "Cyclohexanemethanol, \u03b1-methyl-", "\u03b1-Methylcyclohexanemethanol", "Ethanol, 1-cyclohexyl-", "Methanol, cyclohexylmethyl-", "Cyclohexylmethylcarbinol", "1-Cyclohexylethanol", "1-Cyclohexyl-1-ethanol", "Methylcyclohexylcarbinol", "Methylcyclohexylmethanol", "1-Cyclohexane-1-ethanol", "(\u00b1)-1-Cyclohexylethanol", "(1-Hydroxyethyl)cyclohexane", "NSC 44898", "NSC 9476", "Surflot 944", "1-Cyclohexylethane-1-ol"], "SMILES": "C(C)(O)C1CCCCC1", "physical_data": {"Molecular Weight": "128.21", "Molecular Formula": "C8H16O", "Boiling Point": "189 \u00b0C", "Melting Point": "140 \u00b0C", "Density": "0.893 g/cm\u00b3 @ Temp: 22 \u00b0C"}}