{"cas_no": "119302-20-4", "cn_name": "(2b,3a,5a,16b,17b)-2-(4-\u5417\u5549\u57fa)-16-(1-\u5421\u54af\u70f7\u57fa)\u96c4\u753e\u70f7-3,17-\u4e8c\u9187", "en_name": ["2\u03b2-(4-Morpholinyl)-16\u03b2-(1-pyrrolidinyl)-5\u03b1-androstane-3\u03b1,17\u03b2-diol", "Androstane-3,17-diol, 2-(4-morpholinyl)-16-(1-pyrrolidinyl)-, (2\u03b2,3\u03b1,5\u03b1,16\u03b2,17\u03b2)-", "(2\u03b2,3\u03b1,5\u03b1,16\u03b2,17\u03b2)-2-(4-Morpholinyl)-16-(1-pyrrolidinyl)androstane-3,17-diol", "2\u03b2-(4-Morpholinyl)-16\u03b2-(1-pyrrolidinyl)-5\u03b1-androstane-3\u03b1,17\u03b2-diol", "(2\u03b2,3\u03b1,5\u03b1,16\u03b2,17\u03b2)-2-(4-Morpholinyl)-16-(1-pyrrolidinyl)androstan-3,17-diol", "2-(4-Morpholinyl)-16-(pyrrolidin-1-yl)androstane-3,17-diol"], "SMILES": "CC12C(C3C(C4(C)C(CC3)CC(O)C(C4)N5CCOCC5)CC1)CC(C2O)N6CCCC6", "physical_data": {"Molecular Weight": "446.67", "Molecular Formula": "C27H46N2O3", "Melting Point": "215-218 \u00b0C"}}