{"cas_no": "1193-72-2", "cn_name": "1-\u6eb4-2,4-\u4e8c\u6c2f\u82ef(\u4e8c\u6c2f\u6eb4\u82ef)", "en_name": ["1-Bromo-2,4-dichlorobenzene", "Benzene, 1-bromo-2,4-dichloro-", "1-Bromo-2,4-dichlorobenzene", "2,4-Dichlorobromobenzene", "2,4-Dichloro-1-bromobenzene", "NSC 158360", "4-Bromo-1,3-dichlorobenzene"], "SMILES": "ClC1=C(Br)C=CC(Cl)=C1", "physical_data": {"Molecular Weight": "225.90", "Molecular Formula": "C6H3BrCl2", "Boiling Point": "235 \u00b0C", "Melting Point": "26 \u00b0C"}}