{"cas_no": "1193-55-1", "cn_name": "2-\u7532\u57fa-1,3-\u73af\u5df1\u4e8c\u916e", "en_name": ["2-Methyl-1,3-cyclohexanedione", "1,3-Cyclohexanedione, 2-methyl-", "2-Methyl-1,3-cyclohexanedione", "1-Methyl-2,6-cyclohexanedione", "NSC 54460", "2-Methyl-1,3-cyclohexandione"], "SMILES": "CC1C(=O)CCCC1=O", "physical_data": {"Molecular Weight": "126.15", "Molecular Formula": "C7H10O2", "Melting Point": "205-207 \u00b0C"}}