{"cas_no": "1193-11-9", "cn_name": "2,2,4-\u4e09\u7532\u57fa-1,3-\u4e8c\u6076\u8302\u70f7", "en_name": ["2,2,4-Trimethyl-1,3-dioxolane", "1,3-Dioxolane, 2,2,4-trimethyl-", "2,2,4-Trimethyl-1,3-dioxolane", "NSC 87545"], "SMILES": "CC1(C)OC(C)CO1", "physical_data": {"Molecular Weight": "116.16", "Molecular Formula": "C6H12O2", "Boiling Point": "99-100 \u00b0C", "Density": "0.9090 g/cm\u00b3 @ Temp: 18.5 \u00b0C"}}