{"cas_no": "119446-68-3", "cn_name": "\u82ef\u919a\u7532\u73af\u5511", "en_name": ["Difenoconazole", "1H-1,2,4-Triazole, 1-[[2-[2-chloro-4-(4-chlorophenoxy)phenyl]-4-methyl-1,3-dioxolan-2-yl]methyl]-", "1-[[2-[2-Chloro-4-(4-chlorophenoxy)phenyl]-4-methyl-1,3-dioxolan-2-yl]methyl]-1H-1,2,4-triazole", "CGA 169374", "Difenoconazole", "Dragon", "Score", "Dividend", "Dividend (fungicide)", "Score EC 250", "Plover", "Difenconazole", "Score 10WG", "Bardos Neu", "Sico", "BaiJunTong"], "SMILES": "C(C1(OC(C)CO1)C2=C(Cl)C=C(OC3=CC=C(Cl)C=C3)C=C2)N4C=NC=N4", "physical_data": {"Molecular Weight": "406.26", "Molecular Formula": "C19H17Cl2N3O3", "Melting Point": "76 \u00b0C"}}