{"cas_no": "1194-21-4", "cn_name": "2-\u6c28\u57fa-6-\u6c2f-4-\u7f9f\u57fa\u5627\u5576", "en_name": ["2-Amino-6-chloro-4(1H)-pyrimidinone", "4(1H)-Pyrimidinone, 2-amino-6-chloro-", "4-Pyrimidinol, 2-amino-6-chloro-", "4(3H)-Pyrimidinone, 2-amino-6-chloro-", "2-Amino-6-chloro-4(1H)-pyrimidinone", "2-Amino-6-chloro-4-pyrimidinol", "2-Amino-4-chloro-6-hydroxypyrimidine", "6-Chloroisocytosine", "2-Amino-4-hydroxy-6-chloropyrimidine", "2-Amino-6-chloro-4-pyrimidinone", "2-Amino-6-chloro-4(3H)-pyrimidinone", "2-Amino-4-chloropyrimidine-6-one", "NSC 35655", "2-Amino-6-chloro-3H-pyrimidin-4-one", "2-Amino-6-chloro-1H-pyrimidin-4-one", "2-Amino-6-chloro-3,4-dihydropyrimidin-4-one"], "SMILES": "ClC1=CC(=O)N=C(N)N1", "physical_data": {"Molecular Weight": "145.55", "Molecular Formula": "C4H4ClN3O", "Melting Point": "261 \u00b0C"}}