{"cas_no": "1194-64-5", "cn_name": "2-\u6c2f-6-\u7532\u57fa\u82ef\u7532\u919b", "en_name": ["2-Chloro-6-methylbenzaldehyde", "Benzaldehyde, 2-chloro-6-methyl-", "o-Tolualdehyde, 6-chloro-", "2-Chloro-6-methylbenzaldehyde", "6-Chloro-2-methylbenzaldehyde"], "SMILES": "C(=O)C1=C(C)C=CC=C1Cl", "physical_data": {"Molecular Weight": "154.59", "Molecular Formula": "C8H7ClO", "Boiling Point": "74 \u00b0C @ Press: 0.4 Torr", "Melting Point": "37-39 \u00b0C"}}