{"cas_no": "1194-86-1", "cn_name": "D-\u0392-(3-\u567b\u5429\u57fa)-\u7518\u6c28\u9178", "en_name": ["(\u03b1R)-\u03b1-Amino-3-thiopheneacetic acid", "3-Thiopheneacetic acid, \u03b1-amino-, (\u03b1R)-", "3-Thiopheneacetic acid, \u03b1-amino-, (R)-", "(\u03b1R)-\u03b1-Amino-3-thiopheneacetic acid", "D-(-)-3-Thienylglycine", "(R)-2-Amino-2-(thiophen-3-yl)acetic acid", "(2R)-2-Amino-2-(thiophen-3-yl)acetic acid"], "SMILES": "C(C(O)=O)(N)C=1C=CSC1", "physical_data": {"Molecular Weight": "157.19", "Molecular Formula": "C6H7NO2S", "Melting Point": "218-221 \u00b0C"}}