{"cas_no": "1194-65-6", "cn_name": "2,6-\u4e8c\u6c2f\u82c4\u8148", "en_name": ["2,6-Dichlorobenzonitrile", "Benzonitrile, 2,6-dichloro-", "2,6-Dichlorobenzonitrile", "H 133", "Nia 5996", "Casoron 133", "Casoron", "Dichlobenil", "Niagara 5996", "DBN", "DBN (pesticide)", "2,6-Dichlorocyanobenzene", "Casoron G", "Surfassol", "NSC 521490", "Casoron 4G", "Casoron CS"], "SMILES": "C(#N)C1=C(Cl)C=CC=C1Cl", "physical_data": {"Molecular Weight": "172.01", "Molecular Formula": "C7H3Cl2N", "Boiling Point": "270 \u00b0C", "Melting Point": "144-145 \u00b0C"}}