{"cas_no": "119413-54-6", "cn_name": "\u76d0\u9178\u62d3\u6251\u66ff\u5eb7", "en_name": ["Topotecan hydrochloride", "1H-Pyrano[3\u2032,4\u2032:6,7]indolizino[1,2-b]quinoline-3,14(4H,12H)-dione, 10-[(dimethylamino)methyl]-4-ethyl-4,9-dihydroxy-, hydrochloride (1:1), (4S)-", "1H-Pyrano[3\u2032,4\u2032:6,7]indolizino[1,2-b]quinoline-3,14(4H,12H)-dione, 10-[(dimethylamino)methyl]-4-ethyl-4,9-dihydroxy-, monohydrochloride, (S)-", "1H-Pyrano[3\u2032,4\u2032:6,7]indolizino[1,2-b]quinoline-3,14(4H,12H)-dione, 10-[(dimethylamino)methyl]-4-ethyl-4,9-dihydroxy-, monohydrochloride, (4S)-", "SKF 104864A", "NSC 609669", "Topotecan hydrochloride", "Hycamtin", "SKFS 104864A", "Nogitecan hydrochloride", "Topotecan chlorohydrate", "(S)-10-[(Dimethylamino)methyl]-4-ethyl-4,9-dihydroxy-1H-pyrano[3\u2032,4\u2032:6,7]indolizino[l,2-b]quinoline-3,14(4H,12H)-dione monohydrochloride", "Xinze"], "SMILES": "C(C)C1(O)C2=C(C(=O)N3C(=C2)C=4C(C3)=CC=5C(N4)=CC=C(O)C5CN(C)C)COC1=O.Cl", "physical_data": {"Molecular Weight": "", "Molecular Formula": "C23H23N3O5.ClH", "Melting Point": "215 \u00b0C (decomp)"}}