{"cas_no": "1194-98-5", "cn_name": "2,5-\u4e8c\u7f9f\u57fa\u82ef\u7532\u919b", "en_name": ["2,5-Dihydroxybenzaldehyde", "Benzaldehyde, 2,5-dihydroxy-", "Gentisaldehyde", "2,5-Dihydroxybenzaldehyde", "5-Hydroxysalicylaldehyde", "Formylhydroquinone", "NSC 72387"], "SMILES": "C(=O)C1=C(O)C=CC(O)=C1", "physical_data": {"Molecular Weight": "138.12", "Molecular Formula": "C7H6O3", "Melting Point": "277 \u00b0C"}}