{"cas_no": "1194-02-1", "cn_name": "\u5bf9\u6c1f\u82ef\u8148", "en_name": ["4-Fluorobenzonitrile", "Benzonitrile, 4-fluoro-", "Benzonitrile, p-fluoro-", "4-Fluorobenzonitrile", "p-Fluorobenzonitrile", "p-Cyanofluorobenzene", "1-Cyano-4-fluorobenzene", "4-Fluorocyanobenzene", "4-Cyanofluorobenzene", "p-Fluorophenyl cyanide", "NSC 88330", "Para-fluorobenzonitrile"], "SMILES": "C(#N)C1=CC=C(F)C=C1", "physical_data": {"Molecular Weight": "121.11", "Molecular Formula": "C7H4FN", "Boiling Point": "188.8 \u00b0C", "Melting Point": "34.8 \u00b0C", "Density": "1.32 g/cm\u00b3"}}