{"cas_no": "119452-66-3", "cn_name": "2,6-\u4e8c\u6c1f\u82ef\u80bc", "en_name": ["(2,6-Difluorophenyl)hydrazine", "Hydrazine, (2,6-difluorophenyl)-", "(2,6-Difluorophenyl)hydrazine"], "SMILES": "N(N)C1=C(F)C=CC=C1F", "physical_data": {"Molecular Weight": "144.12", "Molecular Formula": "C6H6F2N2", "Melting Point": "49-50 \u00b0C"}}