{"cas_no": "1195-08-0", "cn_name": "5-\u7532\u9170\u57fa\u5c3f\u5627\u5576", "en_name": ["5-Formyluracil", "5-Pyrimidinecarboxaldehyde, 1,2,3,4-tetrahydro-2,4-dioxo-", "1,2,3,4-Tetrahydro-2,4-dioxo-5-pyrimidinecarboxaldehyde", "5-Formyluracil", "2,4(1H,3H)-Pyrimidinedione, 5-formyl-", "2,4-Dioxo-1,2,3,4-tetrahydropyrimidine-5-carboxaldehyde", "NSC 197200", "NSC 241524", "Immureg", "2,4-Dihydroxy-5-formylpyrimidine", "2,4-Dihydroxy-pyrimidine-5-carbaldehyde", "2,4-Dioxo-1H-pyrimidine-5-carbaldehyde", "2,4-Dioxo-1,2,3,4-tetrahydropyrimidine-5-carbaldehyde", "2,4-Dihydroxypyrimidine-5-carbaldehyde"], "SMILES": "C(=O)C=1C(=O)NC(=O)NC1", "physical_data": {"Molecular Weight": "140.10", "Molecular Formula": "C5H4N2O3", "Melting Point": "&gt;300 \u00b0C"}}