{"cas_no": "1195-92-2", "cn_name": "(+)-\u6c27\u5316\u67e0\u6aac\u70ef", "en_name": ["Limonene oxide", "7-Oxabicyclo[4.1.0]heptane, 1-methyl-4-(1-methylethenyl)-", "p-Menth-8-ene, 1,2-epoxy-", "1-Methyl-4-(1-methylethenyl)-7-oxabicyclo[4.1.0]heptane", "Limonene epoxide", "Limonene oxide", "1,2-Epoxy-p-menth-8-ene", "Limonene 1,2-oxide", "Limonene 1,2-epoxide", "Limonene monoxide", "1,2-Epoxylimonene", "LMO", "NSC 12045", "Cis/trans-(S)-(-)-limonene oxide", "1-Methyl-4-(prop-1-en-2-yl)-7-oxabicyclo[4.1.0]heptane"], "SMILES": "CC12C(O1)CC(C(C)=C)CC2", "physical_data": {"Molecular Weight": "152.23", "Molecular Formula": "C10H16O", "Boiling Point": "113.5 \u00b0C", "Density": "0.9303 g/cm\u00b3 @ Temp: 16 \u00b0C"}}