{"cas_no": "1195-45-5", "cn_name": "\u5f02\u6c30\u9178\u5bf9\u6c1f\u82ef\u57fa\u916f", "en_name": ["4-Fluorophenyl isocyanate", "Benzene, 1-fluoro-4-isocyanato-", "Isocyanic acid, p-fluorophenyl ester", "1-Fluoro-4-isocyanatobenzene", "p-Fluorophenyl isocyanate", "4-Fluorophenyl isocyanate", "p-Fluorobenzene isocyanate", "4-Fluoroisocyanatobenzene", "NSC 82348", "4-Fluoro-1-isocyanatobenzene"], "SMILES": "N(=C=O)C1=CC=C(F)C=C1", "physical_data": {"Molecular Weight": "137.11", "Molecular Formula": "C7H4FNO", "Boiling Point": "68 \u00b0C @ Press: 15 Torr", "Melting Point": "103-104 \u00b0C"}}