{"cas_no": "1195-32-0", "cn_name": "1-\u7532\u57fa-4-(1-\u7532\u57fa\u4e59\u70ef\u57fa)\u82ef", "en_name": ["p-Cymenene", "Benzene, 1-methyl-4-(1-methylethenyl)-", "Styrene, p,\u03b1-dimethyl-", "1-Methyl-4-(1-methylethenyl)benzene", "1-Methyl-4-isopropenylbenzene", "p-Methyl-\u03b1-methylstyrene", "p,\u03b1-Dimethylstyrene", "p-Isopropenyltoluene", "\u03b1,p-Dimethylstyrene", "4-Methyl-\u03b1-methylstyrene", "\u03b1,4-Dimethylstyrene", "2-(p-Methylphenyl)propene", "2-p-Tolylpropene", "4-Isopropenyltoluene", "Dehydro-p-cymene", "1-Isopropenyl-4-methylbenzene", "p-Cymenene", "4-Methylisopropenylbenzene", "p-Methylisopropenylbenzene", "1-p-Tolyl-1-methylethylene", "2-p-Tolyl-1-propene", "4-Isopropenyl-1-methylbenzene", "4,\u03b1-Dimethylstyrene", "NSC 361058", "\u03b1-Methyl-p-methylstyrene", "1-Methyl-4-(1-methylvinyl)benzene", "1-Methyl-4-(prop-1-en-2-yl)benzene", "2-(4-Methylphenyl)-1-propene"], "SMILES": "C(C)(=C)C1=CC=C(C)C=C1", "physical_data": {"Molecular Weight": "132.20", "Molecular Formula": "C10H12", "Boiling Point": "185.3 \u00b0C", "Melting Point": "-20 \u00b0C", "Density": "0.9065 g/cm\u00b3 @ Temp: 20 \u00b0C"}}