{"cas_no": "1195-16-0", "cn_name": "\u897f\u66ff\u6c83\u916e", "en_name": ["Citiolone", "Acetamide, N-(tetrahydro-2-oxo-3-thienyl)-", "Butyric acid, 2-acetamido-4-mercapto-, \u03b3-(thio lactone)", "N-(Tetrahydro-2-oxo-3-thienyl)acetamide", "N-Acetylhomocysteine thiolactone", "Citiolone", "2-Acetamido-4-mercaptobutyric acid thiolactone", "\u03b1-Acetamido-\u03b3-thiobutyrolactone", "AHCTL", "BO 714", "Thioxidrene", "N-Acetyl-DL-homocysteine thiolactone", "DL-3-(Acetylamino)tetrahydro-2-thiophenone", "DL-N-Acetylhomocysteine thiolactone", "Citiolase", "NSC 22878", "N-(2-Oxotetrahydrothiophen-3-yl)acetamide"], "SMILES": "N(C(C)=O)C1C(=O)SCC1", "physical_data": {"Molecular Weight": "159.21", "Molecular Formula": "C6H9NO2S", "Melting Point": "112 \u00b0C"}}