{"cas_no": "1195-42-2", "cn_name": "N-\u5f02\u4e19\u57fa-\u73af\u5df2\u80fa", "en_name": ["Isopropylcyclohexylamine", "Cyclohexanamine, N-(1-methylethyl)-", "Cyclohexylamine, N-isopropyl-", "N-(1-Methylethyl)cyclohexanamine", "N-Isopropylcyclohexylamine", "Cyclohexylisopropylamine", "N-Cyclohexyl-N-isopropylamine", "Isopropylcyclohexylamine", "N-Isopropylcyclohexanamine", "N-Cyclohexylisopropylamine", "NSC 86132", "N-Isopropyl-N-cyclohexylamine"], "SMILES": "N(C(C)C)C1CCCCC1", "physical_data": {"Molecular Weight": "141.25", "Molecular Formula": "C9H19N", "Boiling Point": "169-171 \u00b0C", "Melting Point": "60-63 \u00b0C"}}