{"cas_no": "1195-98-8", "cn_name": "2-\u7532\u57fa-2-\u82ef\u57fa\u4e19\u8148", "en_name": ["\u03b1,\u03b1-Dimethylbenzeneacetonitrile", "Benzeneacetonitrile, \u03b1,\u03b1-dimethyl-", "Hydratroponitrile, \u03b1-methyl-", "\u03b1,\u03b1-Dimethylbenzeneacetonitrile", "\u03b1-Phenylisobutyronitrile", "\u03b1-Phenyl-\u03b1-methylpropionitrile", "2-Methyl-2-phenylpropionitrile", "Dimethylphenylacetonitrile", "\u03b1,\u03b1-Dimethylbenzyl cyanide", "2-Phenylisobutyronitrile", "2-Methyl-2-phenylpropanenitrile"], "SMILES": "C(C#N)(C)(C)C1=CC=CC=C1", "physical_data": {"Molecular Weight": "145.20", "Molecular Formula": "C10H11N", "Boiling Point": "114-116 \u00b0C @ Press: 20 Torr"}}