{"cas_no": "1195-59-1", "cn_name": "2,6-\u5421\u5576\u4e8c\u7532\u9187", "en_name": ["2,6-Pyridinedimethanol", "2,6-Pyridinedimethanol", "2,6-Bis(hydroxymethyl)pyridine", "Pyridyl-2,6-dimethanol", "NSC 16571", "(Pyridine-2,6-diyl)bismethanol", "[6-(Hydroxymethyl)pyridin-2-yl]methanol", "2,6-Di(hydroxymethyl)pyridine"], "SMILES": "C(O)C=1N=C(CO)C=CC1", "physical_data": {"Molecular Weight": "139.15", "Molecular Formula": "C7H9NO2", "Melting Point": "114-115 \u00b0C"}}