{"cas_no": "1195-14-8", "cn_name": "2-\u7532\u57fa\u82ef\u5e76\u567b\u5429", "en_name": ["2-Methylbenzothiophene", "Benzo[b]thiophene, 2-methyl-", "2-Methylbenzo[b]thiophene", "2-Methylbenzothiophene", "2-Methyl-1-benzothiophene", "2-Methylthianaphthene", "NSC 18869"], "SMILES": "CC1=CC=2C(S1)=CC=CC2", "physical_data": {"Molecular Weight": "148.22", "Molecular Formula": "C9H8S", "Boiling Point": "105-108 \u00b0C @ Press: 10 Torr", "Melting Point": "51-52 \u00b0C", "Density": "1.27 g/cm\u00b3"}}