{"cas_no": "119509-24-9", "cn_name": "\u6297\u7663\u9752\u9709\u7d20 A 5", "en_name": ["Atpenin A 5", "2(1H)-Pyridinone, 3-[(2S,4S,5R)-5,6-dichloro-2,4-dimethyl-1-oxohexyl]-4-hydroxy-5,6-dimethoxy-", "2(1H)-Pyridinone, 3-(5,6-dichloro-2,4-dimethyl-1-oxohexyl)-4-hydroxy-5,6-dimethoxy-, [2S-(2R*,4R*,5S*)]-", "3-[(2S,4S,5R)-5,6-Dichloro-2,4-dimethyl-1-oxohexyl]-4-hydroxy-5,6-dimethoxy-2(1H)-pyridinone", "Atpenin A 5", "FO 125A5", "Antibiotic FO 125A5"], "SMILES": "C(C(CC(C(CCl)Cl)C)C)(=O)C1=C(O)C(OC)=C(OC)NC1=O", "physical_data": {"Molecular Weight": "366.24", "Molecular Formula": "C15H21Cl2NO5", "Melting Point": "83-85 \u00b0C"}}