{"cas_no": "1195-09-1", "cn_name": "2-\u7532\u6c27\u57fa-5-\u7532\u57fa\u82ef\u915a", "en_name": ["2-Methoxy-5-methylphenol", "Phenol, 2-methoxy-5-methyl-", "m-Cresol, 6-methoxy-", "Isocreosol", "2-Methoxy-5-methylphenol", "6-Methoxy-m-cresol", "o-Hydroxy-p-methylanisole", "3-Hydroxy-4-methoxytoluene", "5-Methylguaiacol", "3-Hydroxy-4-methoxy-1-methylbenzene", "2-Hydroxy-4-methylanisole", "5-Methyl-2-methoxyphenol"], "SMILES": "O(C)C1=C(O)C=C(C)C=C1", "physical_data": {"Molecular Weight": "138.16", "Molecular Formula": "C8H10O2", "Boiling Point": "217-218 \u00b0C", "Melting Point": "35.5 \u00b0C", "Density": "1.0742 g/cm\u00b3 @ Temp: 38.60001953125 \u00b0C"}}