{"cas_no": "1195-91-1", "cn_name": "2-BROMO-5,5-DIMETHYL-1,3-CYCLOHEXANDIONE", "en_name": ["2-Bromo-5,5-dimethyl-1,3-cyclohexanedione", "1,3-Cyclohexanedione, 2-bromo-5,5-dimethyl-", "2-Bromo-5,5-dimethyl-1,3-cyclohexanedione", "Bromodimedone", "2-Bromodimedone", "1-Bromo-4,4-dimethyl-2,6-cyclohexanedione"], "SMILES": "CC1(C)CC(=O)C(Br)C(=O)C1", "physical_data": {"Molecular Weight": "219.08", "Molecular Formula": "C8H11BrO2", "Melting Point": "175-176 \u00b0C (decomp)"}}