{"cas_no": "1195-52-4", "cn_name": "3-(3-\u567b\u5429\u57fa)\u4e19\u70ef\u9178", "en_name": ["3-(3-Thienyl)acrylic acid", "2-Propenoic acid, 3-(3-thienyl)-", "3-Thiopheneacrylic acid", "3-(3-Thienyl)-2-propenoic acid", "3-(3-Thienyl)acrylic acid", "3-(Thiophene-3-yl)propenoic acid", "3-(Thiophene-3-yl)acrylic acid", "3-(3-Thienyl)propenoic acid", "3-(Thien-3-yl)acrylic acid"], "SMILES": "C(=CC(O)=O)C=1C=CSC1", "physical_data": {"Molecular Weight": "154.19", "Molecular Formula": "C7H6O2S", "Melting Point": "149-150 \u00b0C"}}