{"cas_no": "1195-79-5", "cn_name": "1,3,3-\u4e09\u7532\u57fa-\u4e8c\u73af[2.2.1]\u5e9a-2-\u916e", "en_name": ["(\u00b1)-Fenchone", "Bicyclo[2.2.1]heptan-2-one, 1,3,3-trimethyl-", "2-Norbornanone, 1,3,3-trimethyl-", "1,3,3-Trimethylbicyclo[2.2.1]heptan-2-one", "Fenchone", "1,3,3-Trimethyl-2-norbornanone", "1,3,3-Trimethylnorcamphor", "dl-Fenchone", "(\u00b1)-Fenchone", "NSC 122687", "NSC 8896"], "SMILES": "CC12C(=O)C(C)(C)C(C1)CC2", "physical_data": {"Molecular Weight": "152.23", "Molecular Formula": "C10H16O", "Boiling Point": "191-193 \u00b0C", "Melting Point": "5 \u00b0C", "Density": "0.9443 g/cm\u00b3 @ Temp: 20 \u00b0C"}}