{"cas_no": "119584-74-6", "cn_name": "2-\u6c1f--6-(2,2,2-\u4e09\u6c1f\u4e59\u6c27\u57fa)\u82ef\u8148", "en_name": ["2-Fluoro-6-(2,2,2-trifluoroethoxy)benzonitrile", "Benzonitrile, 2-fluoro-6-(2,2,2-trifluoroethoxy)-", "2-Fluoro-6-(2,2,2-trifluoroethoxy)benzonitrile"], "SMILES": "O(CC(F)(F)F)C1=C(C#N)C(F)=CC=C1", "physical_data": {"Molecular Weight": "219.14", "Molecular Formula": "C9H5F4NO", "Melting Point": "83-85 \u00b0C"}}