{"cas_no": "1196152-51-8", "cn_name": "2-\u4e09\u6c1f\u7532\u57fa-\u5417\u5549\u76d0\u9178\u76d0", "en_name": ["Morpholine, 2-(trifluoromethyl)-, hydrochloride (1:1)", "Morpholine, 2-(trifluoromethyl)-, hydrochloride (1:1)", "2-(Trifluoromethyl)morpholine hydrochloride"], "SMILES": "C(F)(F)(F)C1CNCCO1.Cl", "physical_data": {"Molecular Weight": "", "Molecular Formula": "C5H8F3NO.ClH", "Melting Point": "187-188 \u00b0C"}}