{"cas_no": "1196-00-5", "cn_name": "(-)-ISOPINOCAMPHEOL", "en_name": ["(-)-Isopinocampheol", "Bicyclo[3.1.1]heptan-3-ol, 2,6,6-trimethyl-, (1R,2R,3R,5S)-", "3-Pinanol, (1R,2R,3R,5S)-(-)-", "Bicyclo[3.1.1]heptan-3-ol, 2,6,6-trimethyl-, [1R-(1\u03b1,2\u03b2,3\u03b1,5\u03b1)]-", "(1R,2R,3R,5S)-2,6,6-Trimethylbicyclo[3.1.1]heptan-3-ol", "l-Isopinocampheol", "(-)-Isopinocampheol", "(1R,2R,3R,5S)-(-)-Isopinocampheol", "(1R,2R,3R,5S)-2,6,6-Trimethylbicyclo[3.1.1]heptan-3-ol"], "SMILES": "CC1(C)C2CC1CC(O)C2C", "physical_data": {"Molecular Weight": "154.25", "Molecular Formula": "C10H18O", "Melting Point": "54.5 \u00b0C"}}