{"cas_no": "1196-57-2", "cn_name": "2-\u7f9f\u57fa\u55b9\u5594\u5549", "en_name": ["2(1H)-Quinoxalinone", "2(1H)-Quinoxalinone", "2-Quinoxalinol", "2-Hydroxyquinoxaline", "3-Quinoxalinone", "2-Quinoxalinone", "2-Quinoxalone", "1,2-Dihydroquinoxalin-2-one", "NSC 13154", "Quinoxaline-2-ol"], "SMILES": "O=C1NC=2C(N=C1)=CC=CC2", "physical_data": {"Molecular Weight": "146.15", "Molecular Formula": "C8H6N2O", "Melting Point": "265 \u00b0C"}}