{"cas_no": "1196-01-6", "cn_name": "\u9a6c\u97ad\u8349\u70ef\u9187", "en_name": ["(S)-Verbenone", "Bicyclo[3.1.1]hept-3-en-2-one, 4,6,6-trimethyl-, (1S,5S)-", "2-Pinen-4-one, (1S,5S)-(-)-", "Bicyclo[3.1.1]hept-3-en-2-one, 4,6,6-trimethyl-, (1S)-", "(1S,5S)-4,6,6-Trimethylbicyclo[3.1.1]hept-3-en-2-one", "(-)-Verbenone", "(S)-(-)-Verbenone", "(1S,5S)-(-)-Verbenone", "(S)-Verbenone", "(1S,5S)-Verbenone", "(1S)-(-)-cis-Verbenone", "(1S)-Verbenone", "NSC 6831", "(1S)-(-)-Verbenone", "Levoverbenone", "L(-)-Verbenone"], "SMILES": "CC1(C)C2CC1C(=O)C=C2C", "physical_data": {"Molecular Weight": "150.22", "Molecular Formula": "C10H14O", "Boiling Point": "227.5 \u00b0C", "Density": "0.980 g/cm\u00b3 @ Temp: 15 \u00b0C"}}