{"cas_no": "1196-29-8", "cn_name": "2'-\u7f9f\u57fa\u82ef\u4e59\u916e\u809f", "en_name": ["1-(2-Hydroxyphenyl)ethanone oxime", "Ethanone, 1-(2-hydroxyphenyl)-, oxime", "Acetophenone, 2\u2032-hydroxy-, oxime", "1-(2-Hydroxyphenyl)ethanone oxime", "o-Hydroxyacetophenone oxime", "2\u2032-Hydroxyacetophenone oxime", "Methyl 2-hydroxyphenyl ketoxime", "2-Hydroxyacetophenoxime", "2-Hydroxyacetophenone oxime", "1-(2-Hydroxyphenyl)-1-ethanone oxime"], "SMILES": "C(=NO)(C)C1=C(O)C=CC=C1", "physical_data": {"Molecular Weight": "151.16", "Molecular Formula": "C8H9NO2", "Melting Point": "195 \u00b0C"}}