{"cas_no": "1196-38-9", "cn_name": "3,4-\u4e8c\u6c22\u5f02\u55b9\u5549-1(2H)-\u916e", "en_name": ["3,4-Dihydroisoquinolin-1(2H)-one", "1(2H)-Isoquinolinone, 3,4-dihydro-", "Isocarbostyril, 3,4-dihydro-", "3,4-Dihydro-1(2H)-isoquinolinone", "3,4-Dihydro-1-isoquinolinone", "3,4-Dihydroisocarbostyril", "3,4-Dihydroisoquinolin-1(2H)-one", "3,4-Dihydroisoquinol-1(2H)-one", "3,4-Dihydro-2H-isoquinolin-1-one", "3,4-Dihydroisoquinolinone", "1,2,3,4-Tetrahydroisoquinolin-1-one"], "SMILES": "O=C1C=2C(CCN1)=CC=CC2", "physical_data": {"Molecular Weight": "147.17", "Molecular Formula": "C9H9NO", "Boiling Point": "138-143 \u00b0C @ Press: 0.3 Torr", "Melting Point": "166 \u00b0C"}}