{"cas_no": "119644-22-3", "cn_name": "2',3'-\u4e8c\u8131\u6c27-3'-\u6c1f-5-\u6c2f\u5c3f\u82f7", "en_name": ["935U83", "Uridine, 5-chloro-2\u2032,3\u2032-dideoxy-3\u2032-fluoro-", "5-Chloro-2\u2032,3\u2032-dideoxy-3\u2032-fluorouridine", "2\u2032,3\u2032-Dideoxy-3\u2032-fluoro-5-chlorouridine", "5-Chloro-3\u2032-fluoro-2\u2032,3\u2032-dideoxyuridine", "935U83", "Raluridine", "BW 935U83", "GW 274666X"], "SMILES": "O=C1N(C2OC(CO)C(F)C2)C=C(Cl)C(=O)N1", "physical_data": {"Molecular Weight": "264.64", "Molecular Formula": "C9H10ClFN2O4", "Melting Point": "181 \u00b0C (decomp)"}}