{"cas_no": "1196-79-8", "cn_name": "2,5-\u4e8c\u7532\u57fa\u5432\u54da", "en_name": ["2,5-Dimethylindole", "1H-Indole, 2,5-dimethyl-", "Indole, 2,5-dimethyl-", "2,5-Dimethyl-1H-indole", "2,5-Dimethylindole"], "SMILES": "CC=1NC=2C(C1)=CC(C)=CC2", "physical_data": {"Molecular Weight": "145.20", "Molecular Formula": "C10H11N", "Boiling Point": "105 \u00b0C @ Press: 0.3 Torr", "Melting Point": "115.3 \u00b0C"}}