{"cas_no": "1197-22-4", "cn_name": "N-\u82ef\u57fa\u7532\u78fa\u9170\u80fa", "en_name": ["N-Phenylmethanesulfonamide", "Methanesulfonamide, N-phenyl-", "Methanesulfonanilide", "N-Phenylmethanesulfonamide", "Methanesulfanilide", "N-Mesylaniline", "Methylsulfonanilide", "N-(Methylsulfonyl)aniline", "NSC 11329"], "SMILES": "N(S(C)(=O)=O)C1=CC=CC=C1", "physical_data": {"Molecular Weight": "171.22", "Molecular Formula": "C7H9NO2S", "Melting Point": "99-100 \u00b0C"}}