{"cas_no": "1197-01-9", "cn_name": "2-(4-\u7532\u57fa\u82ef\u57fa)\u4e19-2-\u9187", "en_name": ["p-Cymen-8-ol", "Benzenemethanol, \u03b1,\u03b1,4-trimethyl-", "p-Cymen-8-ol", "\u03b1,\u03b1,4-Trimethylbenzenemethanol", "1-Methyl-4-(\u03b1-hydroxyisopropyl)benzene", "1-Methyl-4-(1-hydroxy-1-methylethyl)benzene", "8-Hydroxy-p-cymene", "2-(4-Methylphenyl)-2-propanol", "p-Cymene-8-ol", "Dimethyl-p-tolyl carbinol", "2-(p-Methylphenyl)-2-propanol", "2-(p-Tolyl)-2-propanol", "4-Methylcumyl alcohol", "\u03b1,\u03b1,4-Trimethylbenzyl alcohol", "NSC 361057"], "SMILES": "C(C)(C)(O)C1=CC=C(C)C=C1", "physical_data": {"Molecular Weight": "150.22", "Molecular Formula": "C10H14O", "Boiling Point": "99 \u00b0C @ Press: 7 Torr", "Density": "0.9782 g/cm\u00b3 @ Temp: 20 \u00b0C"}}