{"cas_no": "1197-05-3", "cn_name": "3-\u6c28\u57fa\u82ef\u4e19\u916e", "en_name": ["1-(3-Aminophenyl)-1-propanone", "1-Propanone, 1-(3-aminophenyl)-", "Propiophenone, 3\u2032-amino-", "1-(3-Aminophenyl)-1-propanone", "3-Aminophenyl ethyl ketone", "3\u2032-Aminopropiophenone", "3-Propionylaniline", "m-Aminopropiophenone"], "SMILES": "C(CC)(=O)C1=CC(N)=CC=C1", "physical_data": {"Molecular Weight": "149.19", "Molecular Formula": "C9H11NO", "Boiling Point": "168-169 \u00b0C", "Melting Point": "42 \u00b0C"}}