{"cas_no": "1197-19-9", "cn_name": "4-(\u4e8c\u7532\u80fa\u57fa)\u82c4\u8148", "en_name": ["4-(Dimethylamino)benzonitrile", "Benzonitrile, 4-(dimethylamino)-", "Benzonitrile, p-(dimethylamino)-", "4-(Dimethylamino)benzonitrile", "4-(Dimethylamino)benzenecarbonitrile", "N,N-Dimethyl-p-cyanoaniline", "p-Cyano-N,N-dimethylaniline", "p-(Dimethylamino)benzonitrile", "1-(Dimethylamino)-4-cyanobenzene", "N,N-Dimethyl-4-cyanoaniline", "4-Cyano-N,N-dimethylaniline", "DMABN", "1-Cyano-4-(dimethylamino)benzene", "4-(Dimethylamino)benzenenitrile", "NSC 409122", "4-Dimethylaminophenylnitrile"], "SMILES": "N(C)(C)C1=CC=C(C#N)C=C1", "physical_data": {"Molecular Weight": "146.19", "Molecular Formula": "C9H10N2", "Boiling Point": "318 \u00b0C", "Melting Point": "74 \u00b0C", "Density": "1.139 g/cm\u00b3"}}