{"cas_no": "119738-06-6", "cn_name": "\u7cd6\u8349\u916f", "en_name": ["Quizalofop-tefuryl", "Propanoic acid, 2-[4-[(6-chloro-2-quinoxalinyl)oxy]phenoxy]-, (tetrahydro-2-furanyl)methyl ester", "UBI 1956", "Quizalofop-tefuryl"], "SMILES": "O(C1=NC2=C(N=C1)C=C(Cl)C=C2)C3=CC=C(OC(C(OCC4CCCO4)=O)C)C=C3", "physical_data": {"Molecular Weight": "428.87", "Molecular Formula": "C22H21ClN2O5", "Melting Point": "64 \u00b0C"}}