{"cas_no": "119793-66-7", "cn_name": "\u4e19\u9170\u8089\u78b1\u76d0\u9178\u76d0", "en_name": ["Dromos", "1-Propanaminium, 3-carboxy-N,N,N-trimethyl-2-(1-oxopropoxy)-, chloride (1:1), (2R)-", "1-Propanaminium, 3-carboxy-N,N,N-trimethyl-2-(1-oxopropoxy)-, chloride, (R)-", "1-Propanaminium, 3-carboxy-N,N,N-trimethyl-2-(1-oxopropoxy)-, chloride, (2R)-", "ST 261", "Dromos", "Levocarnitine propionate hydrochloride"], "SMILES": "C(OC(CC)=O)(C[N+](C)(C)C)CC(O)=O.[Cl-]", "physical_data": {"Molecular Weight": "", "Molecular Formula": "C10H20NO4.Cl", "Melting Point": "161.0-163.0 \u00b0C"}}