{"cas_no": "1197-21-3", "cn_name": "\u76d0\u9178\u82ef\u4e01\u80fa", "en_name": ["Phentermine hydrochloride", "Benzeneethanamine, \u03b1,\u03b1-dimethyl-, hydrochloride (1:1)", "Phenethylamine, \u03b1,\u03b1-dimethyl-, hydrochloride", "Benzeneethanamine, \u03b1,\u03b1-dimethyl-, hydrochloride", "MG 18370", "\u03b1-Methylamphetamine hydrochloride", "Phentermine hydrochloride", "1-Phenyl-2-methyl-2-aminopropane hydrochloride", "Wilpo", "\u03b1,\u03b1-Dimethylphenethylamine hydrochloride", "1,1-Dimethyl-2-phenylethylamine hydrochloride", "Obermine Black &", "Yellow", "Adipex P", "Fastin", "2-Methyl-1-phenyl-2-propanamine hydrochloride", "Adipex", "Adipex-P"], "SMILES": "C(C(C)(C)N)C1=CC=CC=C1.Cl", "physical_data": {"Molecular Weight": "", "Molecular Formula": "C10H15N.ClH", "Melting Point": "198 \u00b0C"}}