{"cas_no": "119770-60-4", "cn_name": "(1-\u7532\u57fa-4-\u54cc\u5576\u57fa)[3-[2-(3-\u6c2f\u82ef\u57fa)\u4e59\u57fa]\u5421\u5576-2-\u57fa]\u7532\u916e\u76d0\u9178\u76d0", "en_name": ["[3-[2-(3-Chlorophenyl)ethyl]-2-pyridinyl](1-methyl-4-piperidinyl)methanone hydrochloride", "Methanone, [3-[2-(3-chlorophenyl)ethyl]-2-pyridinyl](1-methyl-4-piperidinyl)-, hydrochloride (1:1)", "Methanone, [3-[2-(3-chlorophenyl)ethyl]-2-pyridinyl](1-methyl-4-piperidinyl)-, monohydrochloride", "[3-[2-(3-Chlorophenyl)ethyl]-2-pyridinyl](1-methyl-4-piperidinyl)methanone hydrochloride", "(1-Methyl-4-piperidinyl)[3-[2-(3-chlorophenyl)ethyl]pyridinyl]methanone hydrochloride"], "SMILES": "C(=O)(C1=C(CCC2=CC(Cl)=CC=C2)C=CC=N1)C3CCN(C)CC3.Cl", "physical_data": {"Molecular Weight": "", "Molecular Formula": "C20H23ClN2O.ClH", "Melting Point": "183-185 \u00b0C"}}