{"cas_no": "1197-09-7", "cn_name": "3,4-\u4e8c\u7f9f\u57fa\u82ef\u4e59\u916e", "en_name": ["3\u2032,4\u2032-Dihydroxyacetophenone", "Ethanone, 1-(3,4-dihydroxyphenyl)-", "Acetophenone, 3\u2032,4\u2032-dihydroxy-", "1-(3,4-Dihydroxyphenyl)ethanone", "4-Acetopyrocatechol", "Acetopyrocatechol", "4-Acetyl-1,2-benzenediol", "3\u2032,4\u2032-Dihydroxyacetophenone", "4-Acetylpyrocatechol", "Qingxintong", "4-Acetylcatechol", "1-(3,4-Dihydroxyphenyl)ethan-1-one", "Pungenol", "4-Acetyl-1,2-dihydroxybenzene"], "SMILES": "C(C)(=O)C1=CC(O)=C(O)C=C1", "physical_data": {"Molecular Weight": "152.15", "Molecular Formula": "C8H8O3", "Boiling Point": "127-133 \u00b0C @ Press: 11 Torr", "Melting Point": "118-119 \u00b0C"}}