{"cas_no": "1197-55-3", "cn_name": "\u5bf9\u6c28\u57fa\u82ef\u4e59\u9178", "en_name": ["4-Aminophenylacetic acid", "Benzeneacetic acid, 4-amino-", "Acetic acid, (p-aminophenyl)-", "4-Aminobenzeneacetic acid", "p-Aminophenylacetic acid", "4-Aminophenylacetic acid", "4-(Carboxymethyl)aniline", "2-(4-Aminophenyl)acetic acid", "NSC 7929"], "SMILES": "C(C(O)=O)C1=CC=C(N)C=C1", "physical_data": {"Molecular Weight": "151.16", "Molecular Formula": "C8H9NO2", "Melting Point": "200 \u00b0C (decomp)"}}