{"cas_no": "1197-18-8", "cn_name": "\u6c28\u7532\u73af\u9178", "en_name": ["Tranexamic acid", "Cyclohexanecarboxylic acid, 4-(aminomethyl)-, trans-", "trans-4-(Aminomethyl)cyclohexanecarboxylic acid", "DV 79", "AMCHA", "Amikapron", "trans-p-(Aminomethyl)cyclohexanecarboxylic acid", "Tranexamic acid", "Transamin", "Anvitoff", "trans-4-(Aminomethyl)-1-cyclohexanecarboxylic acid", "Bay 3517", "Cyklokapron", "TAMCHA", "trans-Amcha", "Ugurol", "Cyclocapron", "Transamin S", "Transamin G", "trans-Tranexamic acid", "AMCA", "t-AMCHA", "Xamig", "Zataranax", "Exacyl", "CL 65336", "Cyclokapron", "4-trans-Aminomethylcyclohexanecarboxylic acid", "Xed", "Tranol", "Haematrix", "Transcam", "HAKU", "Amchafibrin", "Lysteda", "LB 1148", "MeSH ID: D014148"], "SMILES": "C(O)(=O)C1CCC(CN)CC1", "physical_data": {"Molecular Weight": "157.21", "Molecular Formula": "C8H15NO2", "Melting Point": "&gt;300 \u00b0C"}}