{"cas_no": "1197-13-3", "cn_name": "\u7532\u57fa 5-\u919b\u57fa-1H-\u5421\u54af-2-\u7532\u9178\u916f", "en_name": ["1H-Pyrrole-2-carboxylic acid, 5-formyl-, methyl ester", "1H-Pyrrole-2-carboxylic acid, 5-formyl-, methyl ester", "Pyrrole-2-carboxylic acid, 5-formyl-, methyl ester", "Methyl 5-formyl-2-pyrrolecarboxylate", "NSC 244809", "5-Formyl-1H-pyrrole-2-carboxylic acid methyl ester", "Methyl 5-formyl-1H-pyrrole-2-carboxylate"], "SMILES": "C(OC)(=O)C=1NC(C=O)=CC1", "physical_data": {"Molecular Weight": "153.14", "Molecular Formula": "C7H7NO3", "Melting Point": "96 \u00b0C"}}