{"cas_no": "1198-84-1", "cn_name": "4-\u7f9f\u57fa\u6241\u6843\u9178", "en_name": ["(\u00b1)-4-Hydroxymandelic acid", "Benzeneacetic acid, \u03b1,4-dihydroxy-", "Mandelic acid, p-hydroxy-", "\u03b1,4-Dihydroxybenzeneacetic acid", "p-Hydroxymandelic acid", "4-Hydroxymandelic acid", "4-Hydroxyphenylglycolic acid", "p-Hydroxyphenylglycolic acid", "2-(4-Hydroxyphenyl)-2-hydroxyacetic acid", "(\u00b1)-p-Hydroxymandelic acid", "DL-p-Hydroxymandelic acid", "DL-p-Hydroxyphenylglycolic acid", "(\u00b1)-\u03b1,4-Dihydroxybenzeneacetic acid", "(\u00b1)-4-Hydroxymandelic acid", "4-Hydroxy-DL-mandelic acid", "DL-4-Hydroxymandelic acid", "(RS)-p-Hydroxymandelic acid", "4\u2032-Hydroxymandelic acid", "2-(4\u2032-Hydroxyphenyl)-2-hydroxyethanoic acid", "2-Hydroxy-2-(4-hydroxyphenyl)acetic acid"], "SMILES": "C(C(O)=O)(O)C1=CC=C(O)C=C1", "physical_data": {"Molecular Weight": "168.15", "Molecular Formula": "C8H8O4", "Melting Point": "105-106 \u00b0C"}}