{"cas_no": "1198-27-2", "cn_name": "1-\u6c28\u57fa-2-\u8418\u915a\u76d0\u9178\u76d0", "en_name": ["1-Amino-2-naphthol hydrochloride", "2-Naphthalenol, 1-amino-, hydrochloride (1:1)", "2-Naphthol, 1-amino-, hydrochloride", "2-Naphthalenol, 1-amino-, hydrochloride", "1-Amino-2-naphthol hydrochloride", "1-Amino-2-naphthalenol hydrochloride"], "SMILES": "NC=1C2=C(C=CC1O)C=CC=C2.Cl", "physical_data": {"Molecular Weight": "", "Molecular Formula": "C10H9NO.ClH", "Melting Point": "252 \u00b0C"}}