{"cas_no": "1198-61-4", "cn_name": "1,3-\u4e8c\u6c2f\u56db\u6c1f\u82ef", "en_name": ["1,3-Dichloro-2,4,5,6-tetrafluorobenzene", "Benzene, 1,3-dichloro-2,4,5,6-tetrafluoro-", "Benzene, 1,3-dichlorotetrafluoro-", "1,3-Dichloro-2,4,5,6-tetrafluorobenzene", "1,3-Dichlorotetrafluorobenzene", "2,4,5,6-Tetrafluoro-1,3-dichlorobenzene", "m-Dichlorotetrafluorobenzene"], "SMILES": "ClC1=C(F)C(Cl)=C(F)C(F)=C1F", "physical_data": {"Molecular Weight": "218.96", "Molecular Formula": "C6Cl2F4", "Boiling Point": "155.0-155.5 \u00b0C", "Melting Point": "3.2 \u00b0C", "Density": "1.6746 g/cm\u00b3 @ Temp: 20 \u00b0C"}}