{"cas_no": "119895-68-0", "cn_name": "2,2-\u4e8c\u6c1f\u80e1\u6912\u73af-4-\u7532\u919b", "en_name": ["2,2-Difluoro-1,3-benzodioxole-4-carboxaldehyde", "1,3-Benzodioxole-4-carboxaldehyde, 2,2-difluoro-", "2,2-Difluoro-1,3-benzodioxole-4-carboxaldehyde", "2,2-Difluoro-4-formylbenzodioxole", "2,2-Difluorobenzodioxole-4-carboxaldehyde", "2,2-Difluoro-1,3-benzodioxol-4-aldehyde", "2,2-Difluorobenz[1,3]dioxol-4-carboxaldehyde", "2,2-Difluoro-2H-1,3-benzodioxole-4-carbaldehyde", "2,2-Difluoro-1,3-dioxaindane-4-carbaldehyde"], "SMILES": "C(=O)C1=C2C(OC(F)(F)O2)=CC=C1", "physical_data": {"Molecular Weight": "186.11", "Molecular Formula": "C8H4F2O3", "Boiling Point": "99-101 \u00b0C @ Press: 14 Torr"}}