{"cas_no": "1198-55-6", "cn_name": "\u56db\u6c2f\u90bb\u82ef\u4e8c\u915a", "en_name": ["Tetrachlorocatechol", "1,2-Benzenediol, 3,4,5,6-tetrachloro-", "Pyrocatechol, tetrachloro-", "3,4,5,6-Tetrachloro-1,2-benzenediol", "Tetrachlorocatechol", "Tetrachloropyrocatechol", "Tetrachloro-1,2-benzenediol", "3,4,5,6-Tetrachlorocatechol", "Tetrachloro-1,2-hydroquinone", "3,4,5,6-Tetrachloro-1,2-dihydroxybenzene", "3,4,5,6-Tetrachlorobenzenediol", "Tetrachloro-o-hydroquinone", "3,4,5,6-Tetrachloropyrocatechol", "NSC 29027", "3,4,5,6-Tetrachloro-2-hydroxyphenol", "Perchlorocatechol"], "SMILES": "ClC1=C(Cl)C(Cl)=C(O)C(O)=C1Cl", "physical_data": {"Molecular Weight": "247.89", "Molecular Formula": "C6H2Cl4O2", "Melting Point": "194 \u00b0C"}}