{"cas_no": "1198-14-7", "cn_name": "5-\u6eb4-8-\u7f9f\u57fa\u55b9\u5549", "en_name": ["5-Bromo-8-hydroxyquinoline", "8-Quinolinol, 5-bromo-", "5-Bromo-8-quinolinol", "5-Bromo-8-hydroxyquinoline", "NSC 74941"], "SMILES": "BrC=1C2=C(C(O)=CC1)N=CC=C2", "physical_data": {"Molecular Weight": "224.05", "Molecular Formula": "C9H6BrNO", "Melting Point": "124 \u00b0C"}}