{"cas_no": "1198-37-4", "cn_name": "2,4-\u4e8c\u7532\u57fa\u55b9\u5549", "en_name": ["2,4-Dimethylquinoline", "Quinoline, 2,4-dimethyl-", "2,4-Dimethylquinoline", "4-Methylquinaldine", "NSC 62132"], "SMILES": "CC=1C2=C(N=C(C)C1)C=CC=C2", "physical_data": {"Molecular Weight": "157.21", "Molecular Formula": "C11H11N", "Boiling Point": "265 \u00b0C", "Density": "1.0558 g/cm\u00b3 @ Temp: 20 \u00b0C"}}