{"cas_no": "1198-40-9", "cn_name": "4-\u6c28\u57fa-7-\u6c2f\u55b9\u5549", "en_name": ["4-Amino-7-chloroquinoline", "4-Quinolinamine, 7-chloro-", "Quinoline, 4-amino-7-chloro-", "7-Chloro-4-quinolinamine", "4-Amino-7-chloroquinoline", "7-Chloro-4-aminoquinoline", "BM 07365", "NSC 119495", "NSC 13", "7-Chloroquinolin-4-amine", "(7-Chloroquinolin-4-yl)-amine"], "SMILES": "NC=1C2=C(C=C(Cl)C=C2)N=CC1", "physical_data": {"Molecular Weight": "178.62", "Molecular Formula": "C9H7ClN2", "Melting Point": "150-152.5 \u00b0C"}}