{"cas_no": "1198-63-6", "cn_name": "2,4,5,6-\u56db\u6c1f-1,3-\u82ef\u4e8c\u80fa", "en_name": ["2,4,5,6-Tetrafluoro-1,3-benzenediamine", "1,3-Benzenediamine, 2,4,5,6-tetrafluoro-", "m-Phenylenediamine, 2,4,5,6-tetrafluoro-", "2,4,5,6-Tetrafluoro-1,3-benzenediamine", "Tetrafluoro-m-phenylenediamine", "1,3-Diaminotetrafluorobenzene", "2,4,5,6-Tetrafluorophenylene-1,3-diamine", "1,3-Diamino-2,4,5,6-tetrafluorobenzene", "NSC 114705"], "SMILES": "FC1=C(F)C(N)=C(F)C(N)=C1F", "physical_data": {"Molecular Weight": "180.10", "Molecular Formula": "C6H4F4N2", "Melting Point": "128-129 \u00b0C"}}