{"cas_no": "1198-69-2", "cn_name": "D-\u8461\u8404\u7cd6\u9178-\u03b3-\u5185\u916f", "en_name": ["D-Gluconolactone", "D-Gluconic acid, \u03b3-lactone", "Gluconic acid, \u03b3-lactone, D-", "D-Gluconolactone", "Glucono-\u03b3-lactone", "1,4-Gluconolactone", "1,4-D-Gluconolactone", "Gluconic acid, \u03b3-lactone", "D-Glucono-1,4-lactone", "D-Glucono-\u03b3-lactone"], "SMILES": "C(CO)(O)C1C(O)C(O)C(=O)O1", "physical_data": {"Molecular Weight": "178.14", "Molecular Formula": "C6H10O6", "Melting Point": "134-135 \u00b0C"}}