{"cas_no": "1198-30-7", "cn_name": "1-\u6c30\u57fa\u5f02\u55b9\u5549", "en_name": ["1-Isoquinolinecarbonitrile", "1-Isoquinolinecarbonitrile", "Isoquinaldonitrile", "1-Cyanoisoquinoline", "NSC 203335"], "SMILES": "C(#N)C=1C2=C(C=CN1)C=CC=C2", "physical_data": {"Molecular Weight": "154.17", "Molecular Formula": "C10H6N2", "Melting Point": "89-89.5 \u00b0C"}}