{"cas_no": "1198-64-7", "cn_name": "2,4,5,6-\u56db\u6c1f-1,3-\u82ef\u4e8c\u80fa", "en_name": ["2,3,5,6-Tetrafluoro-1,4-benzenediamine", "1,4-Benzenediamine, 2,3,5,6-tetrafluoro-", "p-Phenylenediamine, 2,3,5,6-tetrafluoro-", "2,3,5,6-Tetrafluoro-1,4-benzenediamine", "1,4-Diaminotetrafluorobenzene", "Tetrafluoro-p-phenylenediamine", "2,3,5,6-Tetrafluoro-p-phenylenediamine", "1,4-Diamino-2,3,5,6-tetrafluorobenzene", "2,3,5,6-Tetrafluorophenylene-1,4-diamine", "2,3,5,6-Tetrafluoro-1,4-diaminobenzene", "Perfluorobenzene-1,4-diamine"], "SMILES": "FC1=C(F)C(N)=C(F)C(F)=C1N", "physical_data": {"Molecular Weight": "180.10", "Molecular Formula": "C6H4F4N2", "Melting Point": "143.5-145.0 \u00b0C"}}