{"cas_no": "1198-97-6", "cn_name": "4-\u82ef\u57fa-2-\u5421\u54af\u70f7\u916e", "en_name": ["4-Phenyl-2-pyrrolidinone", "2-Pyrrolidinone, 4-phenyl-", "4-Phenyl-2-pyrrolidinone", "\u03b2-Phenyl-\u03b3-aminobutyric acid lactam", "4-Phenyl-2-pyrrolidone", "3-Phenyl-5-pyrrolidinone"], "SMILES": "O=C1CC(CN1)C2=CC=CC=C2", "physical_data": {"Molecular Weight": "161.20", "Molecular Formula": "C10H11NO", "Boiling Point": "198-200 \u00b0C @ Press: 10 Torr", "Melting Point": "60 \u00b0C"}}