{"cas_no": "1198-47-6", "cn_name": "2-\u6c28\u57fa-6-\u5def\u560c\u5464", "en_name": ["6-Methylthioguanine", "9H-Purin-2-amine, 6-(methylthio)-", "Purine, 2-amino-6-(methylthio)-", "1H-Purin-2-amine, 6-(methylthio)-", "6-(Methylthio)-9H-purin-2-amine", "2-Amino-6-methylthiopurine", "2-Amino-6-methylmercaptopurine", "6-Methylthioguanine", "S-Methyl-6-thioguanine", "S6-Methyl-6-thioguanine", "NSC 29420"], "SMILES": "S(C)C1=C2C(=NC(N)=N1)N=CN2", "physical_data": {"Molecular Weight": "181.22", "Molecular Formula": "C6H7N5S", "Melting Point": "237-241 \u00b0C (decomp)"}}