{"cas_no": "1199-46-8", "cn_name": "2-\u6c28\u57fa-4-\u53d4\u4e01\u57fa\u915a", "en_name": ["2-Amino-4-tert-butylphenol", "Phenol, 2-amino-4-(1,1-dimethylethyl)-", "Phenol, 2-amino-4-tert-butyl-", "2-Amino-4-(1,1-dimethylethyl)phenol", "2-Amino-4-tert-butylphenol", "5-tert-Butyl-2-hydroxyaniline", "4-tert-Butyl-2-aminophenol", "o-Amino-p-tert-butylphenol", "2-Amino-4-t-butylphenol", "NSC 23803", "2-Hydroxy-5-tert-butylaniline"], "SMILES": "C(C)(C)(C)C1=CC(N)=C(O)C=C1", "physical_data": {"Molecular Weight": "165.23", "Molecular Formula": "C10H15NO", "Melting Point": "161 \u00b0C"}}