{"cas_no": "1199-08-2", "cn_name": "2-\u4e59\u57fa-1,4-\u4e8c\u7532\u6c27\u57fa\u82ef", "en_name": ["2-Ethyl-1,4-dimethoxybenzene", "Benzene, 2-ethyl-1,4-dimethoxy-", "2-Ethyl-1,4-dimethoxybenzene", "1,4-Dimethoxy-2-ethylbenzene"], "SMILES": "C(C)C1=C(OC)C=CC(OC)=C1", "physical_data": {"Molecular Weight": "166.22", "Molecular Formula": "C10H14O2", "Boiling Point": "120 \u00b0C @ Press: 15 Torr", "Melting Point": "-4-6.5 \u00b0C"}}