{"cas_no": "119910-45-1", "cn_name": "2-\u6eb4\u5432\u54da-3-\u7532\u919b", "en_name": ["2-Bromo-1H-indole-3-carboxaldehyde", "1H-Indole-3-carboxaldehyde, 2-bromo-", "2-Bromo-1H-indole-3-carboxaldehyde", "2-Bromo-3-indolecarboxaldehyde", "2-Bromoindole-3-carbaldehyde", "NSC 622163", "3-Formyl-2-bromoindole", "2-Bromo-1H-indole-3-carbaldehyde"], "SMILES": "C(=O)C=1C=2C(NC1Br)=CC=CC2", "physical_data": {"Molecular Weight": "224.05", "Molecular Formula": "C9H6BrNO", "Melting Point": "230 \u00b0C"}}