{"cas_no": "1199-77-5", "cn_name": "2-\u7532\u57fa-3-\u82ef\u57fa\u4e19\u70ef\u9178", "en_name": ["\u03b1-Methylcinnamic acid", "2-Propenoic acid, 2-methyl-3-phenyl-", "Cinnamic acid, \u03b1-methyl-", "2-Methyl-3-phenyl-2-propenoic acid", "\u03b1-Methylcinnamic acid", "NSC 401113", "3-Phenyl-2-methyl-2-propenoic acid", "2-Methyl-3-phenylacrylicacid"], "SMILES": "C(=C(C(O)=O)C)C1=CC=CC=C1", "physical_data": {"Molecular Weight": "162.19", "Molecular Formula": "C10H10O2", "Boiling Point": "225-230 \u00b0C @ Press: 0.2 Torr", "Melting Point": "79-81 \u00b0C"}}