{"cas_no": "119914-60-2", "cn_name": "\u683c\u5e15\u6c99\u661f", "en_name": ["Grepafloxacin", "3-Quinolinecarboxylic acid, 1-cyclopropyl-6-fluoro-1,4-dihydro-5-methyl-7-(3-methyl-1-piperazinyl)-4-oxo-", "1-Cyclopropyl-6-fluoro-1,4-dihydro-5-methyl-7-(3-methyl-1-piperazinyl)-4-oxo-3-quinolinecarboxylic acid", "Grepafloxacin", "Tomefloxacin", "1-Cyclopropyl-6-fluoro-7-(3-methyl-1-piperazinyl)-5-methyl-1,4-dihydro-4-oxoquinoline-3-carboxylic acid", "dl-Grepafloxacin"], "SMILES": "O=C1C=2C(N(C=C1C(O)=O)C3CC3)=CC(=C(F)C2C)N4CC(C)NCC4", "physical_data": {"Molecular Weight": "359.39", "Molecular Formula": "C19H22FN3O3", "Melting Point": "189-192 \u00b0C"}}