{"cas_no": "1199-01-5", "cn_name": "2-\u82ef\u57fa-5-\u5511\u916e", "en_name": ["Azlactone", "5(4H)-Oxazolone, 2-phenyl-", "2-Oxazolin-5-one, 2-phenyl-", "2-Phenyl-5(4H)-oxazolone", "2-Phenyl-2-oxazolin-5-one", "2-Phenyl-5-oxazolone", "Azlactone", "2-Phenyl-4,5-dihydro-1,3-oxazol-5-one", "NSC 79500", "2-Phenyl-4H-oxazol-5-one", "2-Phenyl-4,5-dihydro-5-oxazolone", "2-Phenyl-4H-1,3-oxazol-5-one"], "SMILES": "O=C1OC(=NC1)C2=CC=CC=C2", "physical_data": {"Molecular Weight": "161.16", "Molecular Formula": "C9H7NO2", "Melting Point": "90-91 \u00b0C"}}