{"cas_no": "1199-59-3", "cn_name": "4-\u4e8c\u7532\u6c28\u57fa\u90bb\u7532\u82ef\u919b", "en_name": ["4-(Dimethylamino)-2-methylbenzaldehyde", "Benzaldehyde, 4-(dimethylamino)-2-methyl-", "o-Tolualdehyde, 4-(dimethylamino)-", "4-(Dimethylamino)-2-methylbenzaldehyde", "4-Dimethylamino-o-tolualdehyde", "2-Methyl-4-(dimethylamino)benzaldehyde", "2-Methyl-4-(N,N-dimethylamino)benzaldehyde", "NSC 156548"], "SMILES": "N(C)(C)C1=CC(C)=C(C=O)C=C1", "physical_data": {"Molecular Weight": "163.22", "Molecular Formula": "C10H13NO", "Melting Point": "69.5 \u00b0C"}}