{"cas_no": "119904-90-4", "cn_name": "S-3-\u6c28\u57fa\u594e\u5b81\u73af\u80fa\u76d0\u9178\u76d0", "en_name": ["(S)-3-Aminoquinuclidine dihydrochloride", "1-Azabicyclo[2.2.2]octan-3-amine, hydrochloride (1:2), (3S)-", "1-Azabicyclo[2.2.2]octan-3-amine, dihydrochloride, (S)-", "1-Azabicyclo[2.2.2]octan-3-amine, dihydrochloride, (3S)-", "3(S)-Aminoquinuclidine dihydrochloride", "(S)-3-Aminoquinuclidine dihydrochloride", "(S)-(-)-3-Aminoquinuclidine dihydrochloride", "(3S)-3-Aminoquinuclidine dihydrochloride", "(3S)-1-Azabicyclo[2.2.2]octan-3-amine dihydrochloride", "(S)-Quinuclidin-3-amine dihydrochloride"], "SMILES": "NC1C2CCN(C1)CC2.Cl", "physical_data": {"Molecular Weight": "", "Molecular Formula": "C7H14N2.2ClH", "Melting Point": "&gt;260 \u00b0C"}}