{"cas_no": "1199-03-7", "cn_name": "2,3-\u55b9\u5594\u5549\u4e8c\u786b\u6742\u73af\u620a\u4e8c\u70ef", "en_name": ["2,3-Dimercaptoquinoxaline", "2,3-Quinoxalinedithione, 1,4-dihydro-", "2,3-Quinoxalinedithiol", "1,4-Dihydro-2,3-quinoxalinedithione", "2,3-Dimercaptoquinoxaline", "2,3-Dithiolquinoxaline", "NSC 56344", "NSC 63917", "NSC 9434", "DNR 12A"], "SMILES": "S=C1NC=2C(NC1=S)=CC=CC2", "physical_data": {"Molecular Weight": "194.28", "Molecular Formula": "C8H6N2S2", "Melting Point": "300 \u00b0C"}}