{"cas_no": "1199-20-8", "cn_name": "3-\u82ef\u57fa\u4e01-2-\u70ef\u9178", "en_name": ["\u03b2-Methylcinnamic acid", "2-Butenoic acid, 3-phenyl-", "Cinnamic acid, \u03b2-methyl-", "3-Phenyl-2-butenoic acid", "\u03b2-Methylcinnamic acid", "3-Phenylcrotonic acid", "NSC 16625", "3-Phenylbut-2-enoic acid"], "SMILES": "C(=CC(O)=O)(C)C1=CC=CC=C1", "physical_data": {"Molecular Weight": "162.19", "Molecular Formula": "C10H10O2", "Boiling Point": "125-170 \u00b0C @ Press: 20 Torr", "Melting Point": "98.5 \u00b0C"}}