{"cas_no": "120-67-2", "cn_name": "2 - (2,4-\u4e8c\u6c2f\u82ef\u6c27\u57fa)\u4e59\u9187", "en_name": ["2-(2,4-Dichlorophenoxy)ethanol", "Ethanol, 2-(2,4-dichlorophenoxy)-", "2-(2,4-Dichlorophenoxy)ethanol", "o,p-Dichlorophenoxyethanol", "NSC 423", "2-(2,4-Dichlorophenoxy)ethan-1-ol"], "SMILES": "O(CCO)C1=C(Cl)C=C(Cl)C=C1", "physical_data": {"Molecular Weight": "207.05", "Molecular Formula": "C8H8Cl2O2", "Boiling Point": "121-128 \u00b0C @ Press: 1 Torr", "Melting Point": "57-58 \u00b0C"}}