{"cas_no": "120-50-3", "cn_name": "\u82ef\u7532\u9178\u5f02\u4e01\u916f", "en_name": ["Isobutyl benzoate", "Benzoic acid, 2-methylpropyl ester", "Benzoic acid, isobutyl ester", "Isobutyl benzoate", "2-Methylpropyl benzoate", "Benzoic acid iso-butyl ester", "NSC 6580"], "SMILES": "C(OCC(C)C)(=O)C1=CC=CC=C1", "physical_data": {"Molecular Weight": "178.23", "Molecular Formula": "C11H14O2", "Boiling Point": "242 \u00b0C", "Density": "1.023 g/cm\u00b3 @ Temp: 23 \u00b0C"}}