{"cas_no": "120-92-3", "cn_name": "\u73af\u620a\u916e", "en_name": ["Cyclopentanone", "Cyclopentanone", "Adipic ketone", "Dumasin", "Ketocyclopentane", "Ketopentamethylene", "Adipin keton", "NSC 4122", "6: PN: WO2007101224 PAGE: 36 claimed sequence"], "SMILES": "O=C1CCCC1", "physical_data": {"Molecular Weight": "84.12", "Molecular Formula": "C5H8O", "Boiling Point": "130.6 \u00b0C @ Press: 760 Torr", "Melting Point": "-51.3 \u00b0C", "Density": "0.94869 g/cm\u00b3 @ Temp: 20 \u00b0C"}}