{"cas_no": "120-88-7", "cn_name": "\u53cc\u5341\u4e8c\u70f7\u57fa\u4e8c\u786b\u4ee3\u4e59\u4e8c\u9170\u80fa", "en_name": ["N1,N2-Didodecylethanedithioamide", "Ethanedithioamide, N1,N2-didodecyl-", "Oxamide, N,N\u2032-didodecyldithio-", "Ethanedithioamide, N,N\u2032-didodecyl-", "N1,N2-Didodecylethanedithioamide", "N,N\u2032-Didodecyldithiooxamide", "N,N\u2032-Bis(dodecyl)dithiooxamide", "N,N\u2032-Didodecyldithioxamide", "N,N\u2032-Didodecylethanedithioamide", "NSC 44699"], "SMILES": "C(C(NCCCCCCCCCCCC)=S)(NCCCCCCCCCCCC)=S", "physical_data": {"Molecular Weight": "456.83", "Molecular Formula": "C26H52N2S2", "Melting Point": "52-53 \u00b0C"}}