{"cas_no": "120-33-2", "cn_name": "3-\u7532\u57fa\u82ef\u7532\u9178\u4e59\u916f", "en_name": ["Ethyl 3-methylbenzoate", "Benzoic acid, 3-methyl-, ethyl ester", "m-Toluic acid, ethyl ester", "Ethyl 3-methylbenzoate", "Ethyl m-toluate", "Ethyl m-methylbenzoate", "3-Methylbenzoic acid ethyl ester", "NSC 20009"], "SMILES": "C(OCC)(=O)C1=CC(C)=CC=C1", "physical_data": {"Molecular Weight": "164.20", "Molecular Formula": "C10H12O2", "Boiling Point": "234 \u00b0C"}}