{"cas_no": "120-75-2", "cn_name": "2-\u7532\u57fa\u82ef\u5e76\u567b\u5511", "en_name": ["2-Methylbenzothiazole", "Benzothiazole, 2-methyl-", "2-Methylbenzothiazole", "NSC 3825", "2-Methyl-1,3-benzothiazole", "2-Methylbenzo[d]thiazole"], "SMILES": "CC1=NC=2C(S1)=CC=CC2", "physical_data": {"Molecular Weight": "149.21", "Molecular Formula": "C8H7NS", "Boiling Point": "238 \u00b0C", "Melting Point": "14 \u00b0C", "Density": "1.1697 g/cm\u00b3"}}