{"cas_no": "120-78-5", "cn_name": "\u4e8c\u786b\u5316\u4e8c\u82ef\u5e76\u567b\u5511", "en_name": ["Accelerator DM", "Benzothiazole, 2,2\u2032-dithiobis-", "2,2\u2032-Dithiobis[benzothiazole]", "Altax", "Benzothiazole disulfide", "Benzothiazolyl disulfide", "2-Benzothiazolyl disulfide", "Benzothiazyl disulfide", "Bis(2-benzothiazolyl) disulfide", "Bis(2-benzothiazyl) disulfide", "Dibenzothiazyl disulfide", "Dibenzthiazyl disulfide", "MBTS", "MBTS rubber accelerator", "2-Mercaptobenzothiazole disulfide", "Royal MBTS", "Thiofide", "Dibenzothiazolyl disulfide", "Di-2-benzothiazolyl disulfide", "2,2\u2032-Dibenzothiazolyl disulfide", "Pneumax DM", "Vulcafor MBTS", "Vulkacit DM", "Ekagom GS", "2,2\u2032-Benzothiazyl disulfide", "2-Benzothiazyl disulfide", "Vulkacit DM/C", "Accel TM", "Nocceler DM", "Merasulf MBTS", "Nocceler DM-PO", "DBTD", "Wobezit DM", "Sanceler DM", "2,2\u2032-Benzothiazolyl disulfide", "Accel DM", "Vulkacit DM/MG", "2,2\u2032-Dibenzothiazole disulfide", "NSC 677459", "Soxinol DM", "Vulkafil ZN 96TT11", "Perkacit MBTS", "Thiofide MBTS", "DM", "DM (accelerator)", "Tiazol 2MBS", "NSC 2", "1,2-Bis(2-benzothiazolyl) disulfide", "Bis(benzothiazol-2-yl)disulfide", "Accelerator DM", "Oricel DM", "Quick Accelerator 200", "Dibenzothiophene disulfide", "Sanceler DM-G", "OCITS", "Naugex MBTS", "Dispraktol K 16", "DM 80 (vulcanizer)", "DM 80", "Thiazole 2MBS", "Accelerator MBTS", "2,2\u2032-Benzothiazole disulfide", "Rhenogran MBTS 70", "Rhenogran MBTS 80", "MBTS 75", "Rhenogran MBTS 75", "Sunsine Mets", "Thanecure ZM", "DZ 42", "Sunsine MBTS", "1,2-Bis(benzo[d]thiazol-2-yl)disulfane", "2,2\u2032-Dithiobis-1,3-benzothiazole", "Promoter DM", "Rhenogran MBTS", "2-(1,3-Benzothiazol-2-yldisulfanyl)-1,3-benzothiazole", "MBTS MG", "Luvomaxx MBTS-GR 80", "MBTS 80", "Naugex MBTSW"], "SMILES": "S(SC1=NC=2C(S1)=CC=CC2)C3=NC=4C(S3)=CC=CC4", "physical_data": {"Molecular Weight": "332.49", "Molecular Formula": "C14H8N2S4", "Melting Point": "180 \u00b0C", "Density": "1.50 g/cm\u00b3"}}