{"cas_no": "120-29-6", "cn_name": "\u6258\u54c1\u9187", "en_name": ["Tropine", "8-Azabicyclo[3.2.1]octan-3-ol, 8-methyl-, (3-endo)-", "1\u03b1H,5\u03b1H-Tropan-3\u03b1-ol", "8-Azabicyclo[3.2.1]octan-3-ol, 8-methyl-, endo-", "Tropanol", "(3-endo)-8-Methyl-8-azabicyclo[3.2.1]octan-3-ol", "Tropine", "3\u03b1-Tropanol", "2,3-Dihydro-3\u03b1-hydroxy-8-methylnortropidine", "2,3-Dihydro-3\u03b1-hydroxytropidine", "NSC 43870", "\u03b1-Tropine"], "SMILES": "CN1C2CC(O)CC1CC2", "physical_data": {"Molecular Weight": "141.21", "Molecular Formula": "C8H15NO", "Boiling Point": "233 \u00b0C", "Melting Point": "64 \u00b0C", "Density": "1.001 g/cm\u00b3 @ Temp: 116 \u00b0C"}}