{"cas_no": "120-55-8", "cn_name": "\u4e8c\u7518\u9187\u4e8c\u82ef\u7532\u9178\u916f", "en_name": ["Di-O-benzoyldiethylene glycol", "Ethanol, 2,2\u2032-oxybis-, 1,1\u2032-dibenzoate", "Diethylene glycol, dibenzoate", "Ethanol, 2,2\u2032-oxybis-, dibenzoate", "Di-O-benzoyldiethylene glycol", "2-[2-(Benzoyloxy)ethoxy]ethyl benzoate", "Benzoflex S 45", "Benzoflex 2-45", "Benzoflex 2-42", "K-Flex DE", "Flexol 2GB", "Monocizer PB 3", "PB 3", "Velsicol 2-45", "PB 3A", "Monocizer PB 3A", "DEDB", "BF 50"], "SMILES": "C(OCCOCCOC(=O)C1=CC=CC=C1)(=O)C2=CC=CC=C2", "physical_data": {"Molecular Weight": "314.33", "Molecular Formula": "C18H18O5", "Boiling Point": "225-227 \u00b0C @ Press: 3 Torr", "Melting Point": "28 \u00b0C", "Density": "1.2 g/cm\u00b3"}}