{"cas_no": "120-25-2", "cn_name": "4-\u4e59\u6c27\u57fa-3-\u7532\u6c27\u57fa\u82ef\u7532\u919b", "en_name": ["4-Ethoxy-3-methoxybenzaldehyde", "Benzaldehyde, 4-ethoxy-3-methoxy-", "4-Ethoxy-3-methoxybenzaldehyde", "4-Ethoxy-m-anisaldehyde", "3-Methoxy-4-ethoxybenzaldehyde", "Vanillin ethyl ether", "NSC 16945", "NSC 62097"], "SMILES": "O(CC)C1=C(OC)C=C(C=O)C=C1", "physical_data": {"Molecular Weight": "180.20", "Molecular Formula": "C10H12O3", "Melting Point": "64.5 \u00b0C"}}