{"cas_no": "120-57-0", "cn_name": "\u80e1\u6912\u919b", "en_name": ["1,3-Benzodioxole-5-carboxaldehyde", "1,3-Benzodioxole-5-carboxaldehyde", "Piperonal", "Heliotropin", "Heliotropine", "Piperonaldehyde", "Protocatechuic aldehyde methylene ether", "3,4-Dihydroxybenzaldehyde methylene ketal", "Piperonylaldehyde", "3,4-(Methylenedioxy)benzaldehyde", "5-Formyl-1,3-benzodioxole", "Geliotropin", "3,4-Dimethylenedioxybenzaldehyde", "5-Formylbenzodioxole", "5-Formyl-1,3-benzodioxolane", "2H-Benzo[3,4-d]-1,3-dioxolan-5-ylformaldehyde", "NSC 26826", "Benzo[d][1,3]dioxole-5-carboxaldehyde", "Benzo[1,3]dioxole-5-carbaldehyde", "Benzo[d][1,3]dioxole-5-carbaldehyde", "2H-1,3-Benzodioxole-5-carboxaldehyde", "Benzo[d][1,3]dioxol-5-carboxaldehyde", "2H-1,3-Benzodioxole-5-carbaldehyde"], "SMILES": "C(=O)C=1C=C2C(=CC1)OCO2", "physical_data": {"Molecular Weight": "150.13", "Molecular Formula": "C8H6O3", "Boiling Point": "263 \u00b0C @ Press: 760 Torr", "Melting Point": "37 \u00b0C"}}