{"cas_no": "120-89-8", "cn_name": "\u4ef2\u73ed\u9178", "en_name": ["Parabanic acid", "2,4,5-Imidazolidinetrione", "Parabanic acid", "Imidazolidinetrione", "Oxalylurea", "Trioxoimidazolidine", "NSC 9789", "Parabenic acid"], "SMILES": "O=C1C(=O)NC(=O)N1", "physical_data": {"Molecular Weight": "114.06", "Molecular Formula": "C3H2N2O3", "Melting Point": "244 \u00b0C (decomp)", "Density": "1.712 g/cm\u00b3 @ Temp: -5 \u00b0C"}}