{"cas_no": "120-00-3", "cn_name": "\u56fa\u84dd BB", "en_name": ["Fast Blue BB", "Benzamide, N-(4-amino-2,5-diethoxyphenyl)-", "Benzanilide, 4\u2032-amino-2\u2032,5\u2032-diethoxy-", "N-(4-Amino-2,5-diethoxyphenyl)benzamide", "Blue Salt NBB", "Brentamine Fast Blue 2B Base", "Brentamine Fast Blue BB Base", "Fast Blue EB Base", "Spectrolene Blue BB", "4-Amino-1-(benzoylamino)-3,6-diethoxybenzene", "1-Amino-4-(benzoylamino)-2,5-diethoxybenzene", "2,5-Diethoxy-4-benzamidoaniline", "Fast Blue BB", "4-Benzamido-2,5-diethoxyaniline", "NSC 37184"], "SMILES": "N(C(=O)C1=CC=CC=C1)C2=C(OCC)C=C(N)C(OCC)=C2", "physical_data": {"Molecular Weight": "300.35", "Molecular Formula": "C17H20N2O3", "Melting Point": "101 \u00b0C"}}