{"cas_no": "120-47-8", "cn_name": "\u5c3c\u6cca\u91d1\u4e59\u916f", "en_name": ["Ethylparaben", "Benzoic acid, 4-hydroxy-, ethyl ester", "Benzoic acid, p-hydroxy-, ethyl ester", "Aseptoform E", "Bonomold OE", "p-Carbethoxyphenol", "Easeptol", "Ethyl p-hydroxybenzoate", "Ethyl parasept", "p-Hydroxybenzoic acid ethyl ester", "Nipagin A", "Nipazin A", "Solbrol A", "Tegosept E", "Ethylparaben", "Ethyl 4-hydroxybenzoate", "4-Hydroxybenzoic acid ethyl ester", "p-(Ethoxycarbonyl)phenol", "Napagin A", "Sobrol A", "Ethyl Butex", "Mycocten", "p-Hydroxybenzoate ethyl ester", "4-(Ethoxycarbonyl)phenol", "4-Carbethoxyphenol", "Aseptine A", "Aseptin A", "Mekkings E", "Ethyl nipagin", "NSC 23514", "NSC 8510", "E 214", "4-Hydroxybenzoic ethyl ester", "Ethyl parahydroxybenzoate", "Ethyparaben"], "SMILES": "C(OCC)(=O)C1=CC=C(O)C=C1", "physical_data": {"Molecular Weight": "166.17", "Molecular Formula": "C9H10O3", "Boiling Point": "297.5 \u00b0C", "Melting Point": "116 \u00b0C"}}