{"cas_no": "120-65-0", "cn_name": "2-\u4e8c\u7532\u80fa\u57fa\u7532\u57fa\u82ef\u915a", "en_name": ["2-[(Dimethylamino)methyl]phenol", "Phenol, 2-[(dimethylamino)methyl]-", "o-Cresol, \u03b1-(dimethylamino)-", "2-[(Dimethylamino)methyl]phenol", "\u03b1-(Dimethylamino)-o-cresol", "2-(Dimethylaminomethyl)phenol", "o-(Dimethylaminomethyl)phenol", "N,N-Dimethyl-2-hydroxybenzylamine", "(2-Hydroxybenzyl)dimethylamine", "o-Hydroxy-N,N-dimethylbenzylamine", "OM 1", "N,N-Dimethyl-o-hydroxybenzylamine", "NSC 12220"], "SMILES": "C(N(C)C)C1=C(O)C=CC=C1", "physical_data": {"Molecular Weight": "151.21", "Molecular Formula": "C9H13NO", "Boiling Point": "99-100 \u00b0C @ Press: 12 Torr"}}