{"cas_no": "120-73-0", "cn_name": "\u560c\u5464", "en_name": ["Purine", "9H-Purine", "Purine", "1H-Purine", "3,5,7-Triazaindole", "\u03b2-Purine", "3H-Imidazo[4,5-d]pyrimidine", "Isopurine", "7H-Purine", "NSC 753", "6H-Imidazo[4,5-d]pyrimidine"], "SMILES": "C1=2C(N=CN1)=NC=NC2", "physical_data": {"Molecular Weight": "120.11", "Molecular Formula": "C5H4N4", "Melting Point": "216.5 \u00b0C"}}