{"cas_no": "120-53-6", "cn_name": "6-\u4e59\u6c27\u57fa-2-\u5def\u57fa\u82ef\u5e76\u567b\u5511", "en_name": ["6-Ethoxy-2-mercaptobenzothiazole", "2(3H)-Benzothiazolethione, 6-ethoxy-", "2-Benzothiazolethiol, 6-ethoxy-", "Benzothiazole, 6-ethoxy-2-mercapto-", "6-Ethoxy-2(3H)-benzothiazolethione", "2-Mercapto-6-ethoxybenzothiazole", "6-Ethoxy-2-mercaptobenzothiazole", "6-Ethoxy-2-benzothiazolethiol", "6-Ethoxybenzothiazoline-2-thione", "6-Ethoxybenzothiazole-2-thione", "6-Ethoxy-1,3-benzothiazole-2-thiol", "NSC 503424"], "SMILES": "S=C1NC=2C(=CC(OCC)=CC2)S1", "physical_data": {"Molecular Weight": "211.30", "Molecular Formula": "C9H9NOS2", "Melting Point": "189 \u00b0C"}}