{"cas_no": "120-14-9", "cn_name": "\u85dc\u82a6\u919b", "en_name": ["3,4-Dimethoxybenzaldehyde", "Benzaldehyde, 3,4-dimethoxy-", "Veratraldehyde", "3,4-Dimethoxybenzaldehyde", "3,4-Dimethoxybenzenecarbonal", "Protocatechualdehyde dimethyl ether", "Protocatechuic aldehyde dimethyl ether", "Vanillin methyl ether", "Veratric aldehyde", "Veratral", "Veratryl aldehyde", "Methylvanillin", "4-O-Methylvanillin", "Veratrum aldehyde", "NSC 24521", "NSC 8500", "3,4-Dimethoxyphenylaldehyde", "YN 12098"], "SMILES": "O(C)C1=C(OC)C=CC(C=O)=C1", "physical_data": {"Molecular Weight": "166.17", "Molecular Formula": "C9H10O3", "Boiling Point": "281 \u00b0C", "Melting Point": "43 \u00b0C"}}