{"cas_no": "120-05-8", "cn_name": "SULFURETIN", "en_name": ["Sulfuretin", "3(2H)-Benzofuranone, 2-[(3,4-dihydroxyphenyl)methylene]-6-hydroxy-, (2Z)-", "Sulfuretin", "3(2H)-Benzofuranone, 2-(3,4-dihydroxybenzylidene)-6-hydroxy-", "3(2H)-Benzofuranone, 2-[(3,4-dihydroxyphenyl)methylene]-6-hydroxy-, (Z)-", "(2Z)-2-[(3,4-Dihydroxyphenyl)methylene]-6-hydroxy-3(2H)-benzofuranone", "2-(3,4-Dihydroxybenzylidene)-6-hydroxy-3(2H)-benzofuranone", "3\u2032,4\u2032,6-Trihydroxyaurone", "3\u2032,4\u2032,6-Trihydroxybenzalcoumaranone", "Sulphuretin"], "SMILES": "O=C1C=2C(OC1=CC3=CC(O)=C(O)C=C3)=CC(O)=CC2", "physical_data": {"Molecular Weight": "270.24", "Molecular Formula": "C15H10O5", "Melting Point": "303 \u00b0C"}}