{"cas_no": "120-83-2", "cn_name": "2,4-\u4e8c\u6c2f\u915a", "en_name": ["2,4-Dichlorophenol", "Phenol, 2,4-dichloro-", "2,4-Dichlorophenol", "DCP", "4,6-Dichlorophenol", "1,3-Dichloro-4-hydroxybenzene", "2,4-Dichlorophenic acid", "2,4-DCP", "NSC 2879"], "SMILES": "ClC1=C(O)C=CC(Cl)=C1", "physical_data": {"Molecular Weight": "163.00", "Molecular Formula": "C6H4Cl2O", "Boiling Point": "210 \u00b0C", "Melting Point": "45 \u00b0C", "Density": "1.383 g/cm\u00b3 @ Temp: 60 \u00b0C"}}