{"cas_no": "120-23-0", "cn_name": "2-\u8418\u6c27\u4e59\u9178", "en_name": ["2-Naphthoxyacetic acid", "Acetic acid, 2-(2-naphthalenyloxy)-", "Acetic acid, (2-naphthyloxy)-", "Acetic acid, (2-naphthalenyloxy)-", "Acetic acid, 2-naphthoxy-", "2-(2-Naphthalenyloxy)acetic acid", "Betoxon", "\u03b2-Naphthoxyacetic acid", "O-(2-Naphthyl)glycolic acid", "2-Naphthoxyacetic acid", "NOXA", "2-NOXA", "(2-Naphthyloxy)acetic acid", "(\u03b2-Naphthyloxy)acetic acid", "(\u03b2-Naphthalenyloxy)acetic acid", "Gerlach 1396", "(2-Naphthalenyloxy)acetic acid", "Betapal", "NOA", "Betokson", "No Seed", "Betokson Super", "NSC 2070", "F 31", "NOXA (naphthyloxyacetic acid)"], "SMILES": "O(CC(O)=O)C1=CC2=C(C=C1)C=CC=C2", "physical_data": {"Molecular Weight": "202.21", "Molecular Formula": "C12H10O3", "Melting Point": "156 \u00b0C"}}