{"cas_no": "120-08-1", "cn_name": "6,7-\u4e8c\u7532\u6c27\u57fa\u9999\u8c46\u7d20", "en_name": ["Scoparone", "2H-1-Benzopyran-2-one, 6,7-dimethoxy-", "Coumarin, 6,7-dimethoxy-", "6,7-Dimethoxy-2H-1-benzopyran-2-one", "6,7-Dimethoxycoumarin", "O-Methylisoscopoletin", "Scoparone", "Aesculetin dimethyl ether", "Escoparone", "Scoparon", "O,O-Dimethylesculetin", "Esculetin dimethyl ether", "Scopoletin methyl ether", "O-Methylscopoletin", "Scopoletin monomethyl ether", "Esculetin 6,7-dimethyl ether", "6,7-Dimethylesculetin", "NRB 03190", "6,7-Dimethoxy-2H-chromen-2-one"], "SMILES": "O(C)C=1C=C2C(=CC1OC)OC(=O)C=C2", "physical_data": {"Molecular Weight": "206.19", "Molecular Formula": "C11H10O4", "Melting Point": "145.5 \u00b0C", "Density": "1.25 g/cm\u00b3"}}