{"cas_no": "120-36-5", "cn_name": "2,4-\u6ef4\u4e19\u9178", "en_name": ["Dichlorprop", "Propanoic acid, 2-(2,4-dichlorophenoxy)-", "Propionic acid, 2-(2,4-dichlorophenoxy)-", "2-(2,4-Dichlorophenoxy)propanoic acid", "Cornox RK", "2-(2,4-Dichlorophenoxy)propionic acid", "Dichloroprop", "Dichlorprop", "2-(2,4-DP)", "2,4-DP", "\u03b1-(2,4-Dichlorophenoxy)propionic acid", "Hedonal DP", "Celatox DP", "Herbizid DP", "U 46DP Fluid", "Diprop", "Canapur DP", "Dichlorprop acid", "DCP", "AF 302", "(\u00b1)-2-(2,4-Dichlorophenoxy)propanoic acid", "(\u00b1)-2-(2,4-Dichlorophenoxy)propionic acid", "(\u00b1)-2,4-DP", "(\u00b1)-Dichlorprop", "NSC 39624", "Dicopur DP", "2,4-DCPPA", "2,4-Dichlorprop", "2,4-Dichlorophenoxypropionic acid"], "SMILES": "O(C(C(O)=O)C)C1=C(Cl)C=C(Cl)C=C1", "physical_data": {"Molecular Weight": "235.06", "Molecular Formula": "C9H8Cl2O3", "Melting Point": "117.5-118.1 \u00b0C", "Density": "~1.42 g/cm\u00b3 (approx)"}}