{"cas_no": "120-80-9", "cn_name": "\u90bb\u82ef\u4e8c\u915a", "en_name": ["Catechol", "1,2-Benzenediol", "Pyrocatechol", "C.I. 76500", "o-Benzenediol", "C.I. Oxidation Base 26", "o-Dihydroxybenzene", "1,2-Dihydroxybenzene", "Durafur Developer C", "Fouramine PCH", "Fourrine 68", "2-Hydroxyphenol", "Oxyphenic acid", "Pelagol Grey C", "Pyrocatechin", "Catechol", "o-Dioxybenzene", "o-Hydroxyphenol", "Catechol (phenol)", "Pyrocatechine", "o-Phenylenediol", "Phthalhydroquinone", "o-Hydroquinone", "Phthalic alcohol", "NSC 1573", "Z 1", "Z 1 (inhibitor)", "1,2-Hydroxybenzene", "5,6-Dihydroxybenzene"], "SMILES": "OC1=C(O)C=CC=C1", "physical_data": {"Molecular Weight": "110.11", "Molecular Formula": "C6H6O2", "Boiling Point": "245.5 \u00b0C @ Press: 760 Torr", "Melting Point": "105 \u00b0C", "Density": "1.344 g/cm\u00b3"}}