{"cas_no": "120-20-7", "cn_name": "3,4-\u4e8c\u7532\u6c27\u57fa\u82ef\u4e59\u80fa", "en_name": ["3,4-Dimethoxyphenethylamine", "Benzeneethanamine, 3,4-dimethoxy-", "Phenethylamine, 3,4-dimethoxy-", "3,4-Dimethoxybenzeneethanamine", "3,4-Di-O-methyldopamine", "\u03b2-(3,4-Dimethoxyphenyl)ethylamine", "3,4-Dimethoxy-\u03b2-phenylethylamine", "DIMPEA", "DMPE", "DMPEA", "Homoveratrylamine", "2-(3,4-Dimethoxyphenyl)ethylamine", "3,4-Dimethoxyphenethylamine", "Dopamine dimethyl ether", "O,O-Dimethyldopamine", "2-(3,4-Dimethoxyphenyl)ethanamine", "NSC 16948", "NSC 26152", "NSC 6328", "2-(3,4-Dimethoxyphenyl)-1-aminoethane", "2-(3,4-Dimethoxyphenyl)ethan-1-amine", "2-(3,4-Dimethoxyphenyl)ethaneamine"], "SMILES": "O(C)C1=C(OC)C=CC(CCN)=C1", "physical_data": {"Molecular Weight": "181.23", "Molecular Formula": "C10H15NO2", "Boiling Point": "188 \u00b0C @ Press: 15 Torr", "Melting Point": "124 \u00b0C"}}