{"cas_no": "120-95-6", "cn_name": "2,4-\u4e8c\u53d4\u620a\u57fa\u82ef\u915a", "en_name": ["2,4-Di-tert-amylphenol", "Phenol, 2,4-bis(1,1-dimethylpropyl)-", "Phenol, 2,4-di-tert-pentyl-", "2,4-Bis(1,1-dimethylpropyl)phenol", "2,4-Di-tert-pentylphenol", "2,4-Di-tert-amylphenol", "2,4-Bis(tert-pentyl)phenol", "2,4-Di(1,1-dimethylpropyl)phenol", "NSC 158351", "2,4-Bis(2-methylbutan-2-yl)phenol"], "SMILES": "C(CC)(C)(C)C1=CC(C(CC)(C)C)=CC=C1O", "physical_data": {"Molecular Weight": "234.38", "Molecular Formula": "C16H26O", "Boiling Point": "256 \u00b0C @ Press: 760 Torr", "Melting Point": "27 \u00b0C"}}