{"cas_no": "120-40-1", "cn_name": "N,N-\u4e8c\u4e59\u9187\u5341\u4e8c\u9170\u80fa", "en_name": ["Lauric acid diethanolamide", "Dodecanamide, N,N-bis(2-hydroxyethyl)-", "N,N-Bis(2-hydroxyethyl)dodecanamide", "N,N-Bis(2-hydroxyethyl)lauramide", "Crillon LDE", "Diethanollauramide", "N,N-Diethanollauramide", "N,N-Diethanollauric acid amide", "Lauric acid diethanolamide", "Lauric diethanolamide", "Lauroyl diethanolamide", "Lauryl diethanolamide", "LDA", "LDE", "N,N-Bis(hydroxyethyl)lauramide", "N,N-Bis(\u03b2-hydroxyethyl)lauramide", "N,N-Diethylollauramide", "Onyxol 345", "Lauroyldiethanolamine", "Ethylan MLD", "Bis(2-hydroxyethyl)lauramide", "Comperlan LD", "N,N-Bis(2-hydroxyethyl)laurylamide", "Lauramide DEA", "Steinamid DL 203S", "Unamide J 56", "Clindrol Superamide 100L", "Rewomid DLMS", "Rewomid DL 203S", "Standamid LD", "Condensate PL", "Synotol L 60", "Emid 6511", "Hetamide ML", "Super Amide L 9A", "Super Amide L 9C", "Richamide 6310", "Monamid 150LW", "Varamide ML 1", "Clindrol 200L", "Stepan LDA", "Richamide STD", "N,N-Bis(2-hydroxyethyl)lauroylamide", "N,N-Di(2-hydroxyethyl)lauramide", "Schercomid SL-EX", "Witcamide 5195", "Clindrol 100L", "Amisol LDE", "N,N-Diethanoldodecanamide", "Witcamide 5138", "Mackamide LL", "Mackamide LLM", "Ninol AA 62 Extra", "Lankrostat JP", "Empilan LDE", "Dehydat 10", "Trisophone PK", "Lalmin D", "Stafoam DL", "Nissan Stafoam DL", "LDA (surfactant)", "Monamid 150LWA", "Standamid LDS", "Ninol 55LL", "Ninol 52LL", "Ninol AA 62", "Diethanolamine lauroylamide", "Tohol N 230X", "Incromide LR", "Ninol 50LL", "Stremid K", "N-Lauroyldiethanolamine", "Mazamide LS 196", "Ninol 30LL", "Ninol 70SL", "Detergent 6501", "Denone 2863", "Standamid LDS-RV", "Pionin D 1110", "Standarmi AC LDS-RV", "Alkamide LE", "Duspar LA 2000", "Chemstat LD 100", "Aminon L 02", "N-Dodecanoyldiethanolamine", "Lauramido DEA", "LA 2000", "Surfactant 6501", "Chemistat 2500", "AC 1000", "AC 1000 (amide)", "Amisol SG", "Micopol LDE", "Profan AA 62EX", "Ninaer", "Detergent 6502", "Neo Duspar LA 2000P", "Amycol LDE", "Antistatic B 2", "Protamide L 80M", "Amisol LDE-G", "PUB 350", "Javachem A 2000", "A 2000"], "SMILES": "N(C(CCCCCCCCCCC)=O)(CCO)CCO", "physical_data": {"Molecular Weight": "287.44", "Molecular Formula": "C16H33NO3", "Melting Point": "38.7 \u00b0C"}}