{"cas_no": "120-43-4", "cn_name": "N-\u54cc\u55ea\u7532\u9178\u4e59\u916f", "en_name": ["Ethyl 1-piperazinecarboxylate", "1-Piperazinecarboxylic acid, ethyl ester", "N-(Ethoxycarbonyl)piperazine", "1-Carbethoxypiperazine", "1-(Ethoxycarbonyl)piperazine", "Ethyl 1-piperazinecarboxylate", "N-Carbethoxypiperazine", "Ethyl N-piperazinecarboxylate", "1-Carboethoxypiperazine", "N-Carboethoxypiperazine", "4-Carbethoxypiperazine", "NSC 21060", "NSC 22134", "NSC 280827", "N-Ethoxylcarbonylpiperazine", "N-Ethoxycarbonylpiperazine", "Ethoxycarbonylpiperazine"], "SMILES": "C(OCC)(=O)N1CCNCC1", "physical_data": {"Molecular Weight": "158.20", "Molecular Formula": "C7H14N2O2", "Boiling Point": "237 \u00b0C", "Melting Point": "163-164 \u00b0C"}}