{"cas_no": "120-71-8", "cn_name": "2-\u7532\u6c27\u57fa-5-\u7532\u57fa\u82ef\u80fa", "en_name": ["2-Methoxy-5-methylaniline", "Benzenamine, 2-methoxy-5-methyl-", "o-Anisidine, 5-methyl-", "2-Methoxy-5-methylbenzenamine", "Cresidine", "p-Cresidine", "5-Methyl-o-anisidine", "2-Methoxy-5-methylaniline", "3-Amino-4-methoxytoluene", "Krezidin", "4-Methyl-2-aminoanisole", "1-Amino-2-methoxy-5-methylbenzene", "m-Amino-p-cresol methyl ether", "NSC 406904", "NSC 6162", "5-Methyl-2-methoxyaniline", "6-Methoxy-m-toluidine", "3-Methyl-6-methoxyaniline", "(2-Methoxy-5-methylphenyl)amine", "2-Methoxy-5-methyl-phenylamine"], "SMILES": "O(C)C1=C(N)C=C(C)C=C1", "physical_data": {"Molecular Weight": "137.18", "Molecular Formula": "C8H11NO", "Boiling Point": "235 \u00b0C", "Melting Point": "51.5 \u00b0C"}}