{"cas_no": "120-61-6", "cn_name": "\u5bf9\u82ef\u4e8c\u7532\u9178\u4e8c\u7532\u916f", "en_name": ["Dimethyl terephthalate", "1,4-Benzenedicarboxylic acid, 1,4-dimethyl ester", "Terephthalic acid, dimethyl ester", "1,4-Benzenedicarboxylic acid, dimethyl ester", "Dimethyl p-phthalate", "Dimethyl 1,4-benzenedicarboxylate", "Methyl 4-(carbomethoxy)benzoate", "Dimethyl p-benzenedicarboxylate", "Methyl p-(methoxycarbonyl)benzoate", "DMT", "Dimethyl terephthalate", "NSC 3503", "1,4-Dimethyl benzene-1,4-dicarboxylate"], "SMILES": "C(OC)(=O)C1=CC=C(C(OC)=O)C=C1", "physical_data": {"Molecular Weight": "194.18", "Molecular Formula": "C10H10O4", "Boiling Point": "288 \u00b0C", "Melting Point": "140 \u00b0C", "Density": "1.2 g/cm\u00b3"}}