{"cas_no": "120-12-7", "cn_name": "\u84bd", "en_name": ["Anthracene", "Anthracene", "Anthracin", "Green Oil", "Paranaphthalene", "Tetra Olive N2G", "NSC 7958", "A 0495"], "SMILES": "C12=C(C=C3C(=C1)C=CC=C3)C=CC=C2", "physical_data": {"Molecular Weight": "178.23", "Molecular Formula": "C14H10", "Boiling Point": "342 \u00b0C", "Melting Point": "218 \u00b0C", "Density": "1.25 g/cm\u00b3 @ Temp: 27 \u00b0C"}}