{"cas_no": "120-07-0", "cn_name": "N,N-\u4e8c\u7f9f\u4e59\u57fa\u82ef\u80fa", "en_name": ["N-Phenyldiethanolamine", "Ethanol, 2,2\u2032-(phenylimino)bis-", "Ethanol, 2,2\u2032-(phenylimino)di-", "2,2\u2032-(Phenylimino)bis[ethanol]", "Diethanolaminobenzene", "Diethanolaniline", "N,N-Di(2-hydroxyethyl)aniline", "2,2\u2032-(Phenylimino)diethanol", "N-Phenyldiethanolamine", "Phenyldiethanolamine", "N,N-Di(\u03b2-hydroxyethyl)aniline", "N,N-Bis(2-hydroxyethyl)aniline", "Phenylbis(2-hydroxyethyl)amine", "N,N-Diethanolaniline", "N-Phenyl-N,N-diethanolamine", "Diethanolphenylamine", "N,N-Bis(\u03b2-hydroxyethyl)aniline", "[Bis(2-hydroxyethyl)amino]benzene", "N-Phenyliminodiethanol", "3-Phenyl-3-azapentane-1,5-diol", "NSC 6327", "2-[(2-Hydroxyethyl)phenylamino]ethanol", "N,N-Dihydroxyethylaniline", "N,N-Bis(2-hydroxyethyl)-N-phenylamine", "Bis(2-hydroxyethyl)aniline", "2,2\u2032-(Phenylazanediyl)diethanol", "2-[N-(2-Hydroxyethyl)anilino]ethanol", "2-[(2-Hydroxyethyl)(phenyl)amino]ethan-1-ol"], "SMILES": "N(CCO)(CCO)C1=CC=CC=C1", "physical_data": {"Molecular Weight": "181.23", "Molecular Formula": "C10H15NO2", "Boiling Point": "200 \u00b0C", "Melting Point": "57 \u00b0C"}}