{"cas_no": "120-11-6", "cn_name": "1-\u82c4\u6c27\u57fa-2-\u7532\u6c27\u57fa-4-\u4e19\u70ef\u57fa\u82ef", "en_name": ["Benzyl isoeugenol", "Benzene, 2-methoxy-1-(phenylmethoxy)-4-(1-propen-1-yl)-", "Benzene, 1-(benzyloxy)-2-methoxy-4-propenyl-", "Benzene, 2-methoxy-1-(phenylmethoxy)-4-(1-propenyl)-", "2-Methoxy-1-(phenylmethoxy)-4-(1-propen-1-yl)benzene", "Benzyl isoeugenol", "Benzyl isoeugenol ether", "Benzyl 2-methoxy-4-propenylphenyl ether", "Isoeugenol, benzyl ether", "NSC 46157", "Isoeugenyl benzyl ether"], "SMILES": "O(CC1=CC=CC=C1)C2=C(OC)C=C(C=CC)C=C2", "physical_data": {"Molecular Weight": "254.32", "Molecular Formula": "C17H18O2", "Boiling Point": "198-204 \u00b0C @ Press: 5 Torr", "Melting Point": "46-52 \u00b0C"}}