{"cas_no": "120-51-4", "cn_name": "\u82ef\u7532\u9178\u82c4\u916f", "en_name": ["Benzyl benzoate", "Benzoic acid, phenylmethyl ester", "Benzoic acid, benzyl ester", "Ascabin", "Ascabiol", "Benylate", "Benzyl benzenecarboxylate", "Benzyl benzoate", "Benzylets", "Benzyl phenylformate", "Colebenz", "Novoscabin", "Peruscabin", "Venzonate", "Vanzoate", "Scobenol", "Scabagen", "Scabanca", "Scabide", "Scabiozon", "Phenylmethyl benzoate", "Nicca Sunsolt LM 7EX", "Pelemol B66", "NSC 8081", "Scabcare BB", "Benzyloxy phenyl ketone"], "SMILES": "C(OCC1=CC=CC=C1)(=O)C2=CC=CC=C2", "physical_data": {"Molecular Weight": "212.24", "Molecular Formula": "C14H12O2", "Boiling Point": "323-324 \u00b0C", "Melting Point": "21 \u00b0C", "Density": "1.118 g/cm\u00b3 @ Temp: 25 \u00b0C"}}