{"cas_no": "120-46-7", "cn_name": "\u4e8c\u82ef\u7532\u9170\u57fa\u7532\u70f7", "en_name": ["Dibenzoylmethane", "1,3-Propanedione, 1,3-diphenyl-", "1,3-Diphenyl-1,3-propanedione", "\u03c9-Benzoylacetophenone", "Phenyl phenacyl ketone", "Dibenzoylmethane", "2-Benzoylacetophenone", "Karenz DK 2", "Rhodiastab 83", "NSC 406806", "NSC 52984", "NSC 6266", "DBM", "AD 158", "1,3-Diphenylpropan-1,3-dione", "Rhodiastab 83P", "DBM 83", "PB 201"], "SMILES": "C(CC(=O)C1=CC=CC=C1)(=O)C2=CC=CC=C2", "physical_data": {"Molecular Weight": "224.25", "Molecular Formula": "C15H12O2", "Boiling Point": "219-221 \u00b0C", "Melting Point": "70.5 \u00b0C"}}