{"cas_no": "120-87-6", "cn_name": "9,10-\u4e8c\u7f9f\u57fa\u5341\u516b\u9178", "en_name": ["9,10-Dihydroxystearic acid", "Octadecanoic acid, 9,10-dihydroxy-", "9,10-Dihydroxyoctadecanoic acid", "9,10-Dihydroxystearic acid", "NSC 60305"], "SMILES": "C(C(CCCCCCCC)O)(CCCCCCCC(O)=O)O", "physical_data": {"Molecular Weight": "316.48", "Molecular Formula": "C18H36O4", "Melting Point": "90 \u00b0C"}}