{"cas_no": "120-13-8", "cn_name": "4-\u4e59\u6c27\u57fa-3-\u7532\u6c27\u57fa\u82ef\u4e59\u9178", "en_name": ["4-Ethoxy-3-methoxybenzeneacetic acid", "Benzeneacetic acid, 4-ethoxy-3-methoxy-", "Acetic acid, (4-ethoxy-3-methoxyphenyl)-", "4-Ethoxy-3-methoxybenzeneacetic acid", "(4-Ethoxy-3-methoxyphenyl)acetic acid", "2-(4-Ethoxy-3-methoxyphenyl)acetic acid", "NSC 62696"], "SMILES": "O(C)C1=C(OCC)C=CC(CC(O)=O)=C1", "physical_data": {"Molecular Weight": "210.23", "Molecular Formula": "C11H14O4", "Melting Point": "183-185 \u00b0C"}}