{"cas_no": "120-21-8", "cn_name": "N,N-\u4e8c\u4e59\u57fa-4-\u6c28\u57fa\u82ef\u7532\u919b", "en_name": ["4-(Diethylamino)benzaldehyde", "Benzaldehyde, 4-(diethylamino)-", "Benzaldehyde, p-(diethylamino)-", "4-(Diethylamino)benzaldehyde", "p-(Diethylamino)benzaldehyde", "p-Formyl-N,N-diethylaniline", "4-(N,N-Diethylamino)benzaldehyde", "4-Formyl-N,N-diethylaniline", "p-(N,N-Diethylamino)benzaldehyde", "NSC 8782", "N,N-Diethyl-4-formylaniline", "4-(N,N-Diethylamine)benzaldehyde", "4-(N,N-Diethylphenyl)aldehyde", "N,N-Diethylaminobenzaldehyde"], "SMILES": "N(CC)(CC)C1=CC=C(C=O)C=C1", "physical_data": {"Molecular Weight": "177.24", "Molecular Formula": "C11H15NO", "Melting Point": "41 \u00b0C"}}