{"cas_no": "120-22-9", "cn_name": "N,N-\u4e8c\u4e59\u57fa-4-\u785d\u57fa\u82ef\u80fa", "en_name": ["N,N-Diethyl-4-nitrosoaniline", "Benzenamine, N,N-diethyl-4-nitroso-", "Aniline, N,N-diethyl-p-nitroso-", "N,N-Diethyl-4-nitrosobenzenamine", "p-Nitrosodiethylaniline", "p-Nitroso-N,N-diethylaniline", "N,N-Diethyl-p-nitrosoaniline", "N,N-Diethyl-4-nitrosoaniline", "4-(Diethylamino)nitrosobenzene", "4-Nitroso-N,N-diethylaniline", "4-(N,N-Diethylamino)nitrosobenzene", "4-Nitroso-N,N-diethylaminobenzene", "p-(Diethylamino)nitrosobenzene", "1-(Diethylamino)-4-nitrosobenzene", "NSC 5418"], "SMILES": "N(CC)(CC)C1=CC=C(N=O)C=C1", "physical_data": {"Molecular Weight": "178.23", "Molecular Formula": "C10H14N2O", "Melting Point": "87.5 \u00b0C"}}