{"cas_no": "120-93-4", "cn_name": "2-\u54aa\u5511\u70f7\u916e", "en_name": ["2-Imidazolidinone", "2-Imidazolidinone", "Urea, ethylene-", "Ethyleneurea", "2-Imidazolidone", "N,N\u2032-Ethyleneurea", "SD 6073", "Urea, N,N\u2032-(1,2-ethanediyl)-", "Imidazolidinone", "2-Oxoimidazolidine", "1,3-Ethyleneurea", "NSC 21314", "NSC 3338", "CY 100", "Imidazolidin-2-one", "Katalin CE", "Imidazolidine-2-one"], "SMILES": "O=C1NCCN1", "physical_data": {"Molecular Weight": "86.09", "Molecular Formula": "C3H6N2O", "Boiling Point": "163 \u00b0C @ Press: 3 Torr", "Melting Point": "131 \u00b0C"}}