{"cas_no": "120-15-0", "cn_name": "6-\u7532\u6c27\u57fa-1,2,3,4-\u56db\u6c22\u55b9\u5549", "en_name": ["6-Methoxy-1,2,3,4-tetrahydroquinoline", "Quinoline, 1,2,3,4-tetrahydro-6-methoxy-", "Thalline", "1,2,3,4-Tetrahydro-6-methoxyquinoline", "6-Methoxy-1,2,3,4-tetrahydroquinoline", "Thallin", "6-Methoxytetrahydroquinoline", "NSC 49188"], "SMILES": "O(C)C=1C=C2C(=CC1)NCCC2", "physical_data": {"Molecular Weight": "163.22", "Molecular Formula": "C10H13NO", "Boiling Point": "284 \u00b0C", "Melting Point": "42.5 \u00b0C"}}