{"cas_no": "120-72-9", "cn_name": "\u5432\u54da", "en_name": ["Indole", "1H-Indole", "Indole", "1-Azaindene", "1-Benzazole", "2,3-Benzopyrrole", "Ketole", "Benzo[b]pyrrole", "NSC 1964"], "SMILES": "C1=2C(NC=C1)=CC=CC2", "physical_data": {"Molecular Weight": "117.15", "Molecular Formula": "C8H7N", "Boiling Point": "128-133 \u00b0C @ Press: 28 Torr", "Melting Point": "52 \u00b0C", "Density": "1 x 10<sup>-6</sup> g/cm\u00b3 @ Temp: 25 \u00b0C"}}