{"cas_no": "120-35-4", "cn_name": "3-\u6c28\u57fa-4-\u7532\u6c27\u57fa\u82ef\u7532\u9170\u82ef\u80fa", "en_name": ["3-Amino-4-methoxy-N-phenylbenzamide", "Benzamide, 3-amino-4-methoxy-N-phenyl-", "p-Anisanilide, 3-amino-", "3-Amino-4-methoxy-N-phenylbenzamide", "3-Amino-p-anisanilide", "3-Amino-4-methoxybenzanilide", "1-Amino-2-methoxybenzene-5-carboxylic acid phenylamide", "NSC 50647", "3-Amino-4-methoxy-N-phenylbenzoic acid amide", "M 40 (pigment)", "M 40", "N-Phenyl-3-amino-4-methoxybenzenecarboxamide"], "SMILES": "C(NC1=CC=CC=C1)(=O)C2=CC(N)=C(OC)C=C2", "physical_data": {"Molecular Weight": "242.27", "Molecular Formula": "C14H14N2O2", "Melting Point": "197-198 \u00b0C"}}