{"cas_no": "120-82-1", "cn_name": "\u4e09\u6c2f\u82ef", "en_name": ["1,2,4-Trichlorobenzene", "Benzene, 1,2,4-trichloro-", "1,2,4-Trichlorobenzene", "unsym-Trichlorobenzene", "1,2,4-Trichlorobenzol", "1,2,5-Trichlorobenzene", "Hostetex L-PEC", "1,3,4-Trichlorobenzene", "NSC 406697"], "SMILES": "ClC1=C(Cl)C=CC(Cl)=C1", "physical_data": {"Molecular Weight": "181.45", "Molecular Formula": "C6H3Cl3", "Boiling Point": "213.5 \u00b0C @ Press: 760 Torr", "Melting Point": "17 \u00b0C", "Density": "1.5 g/cm\u00b3"}}