{"cas_no": "120-45-6", "cn_name": "alpha-\u7532\u57fa\u82ef\u7532\u9187\u4e19\u9178\u916f", "en_name": ["1-Phenylethyl propionate", "Benzenemethanol, \u03b1-methyl-, 1-propanoate", "Benzyl alcohol, \u03b1-methyl-, propionate", "Benzenemethanol, \u03b1-methyl-, propanoate", "\u03b1-Methylbenzyl propionate", "Methylphenylcarbinyl propionate", "1-Phenylethyl propionate", "Styrallyl propionate", "(\u00b1)-1-Phenylethyl propionate", "NSC 406571", "1-Phenylethanol propionic acid ester", "1-Phenylethyl propanoate"], "SMILES": "C(OC(CC)=O)(C)C1=CC=CC=C1", "physical_data": {"Molecular Weight": "178.23", "Molecular Formula": "C11H14O2", "Boiling Point": "91-92 \u00b0C @ Press: 5 Torr", "Density": "1.0074 g/cm\u00b3 @ Temp: 20 \u00b0C"}}