{"cas_no": "120-32-1", "cn_name": "4-\u6c2f-2-\u82c4\u57fa\u82ef\u915a", "en_name": ["Chlorophene", "Phenol, 4-chloro-2-(phenylmethyl)-", "o-Cresol, 4-chloro-\u03b1-phenyl-", "4-Chloro-2-(phenylmethyl)phenol", "2-Benzyl-4-chlorophenol", "5-Chloro-2-hydroxydiphenylmethane", "4-Chloro-\u03b1-phenyl-o-cresol", "Clorofene", "Clorophene", "Santophen 1", "Santophen", "Ketolin H", "Neosabenyl", "o-Benzyl-p-chlorophenol", "4-Chloro-2-benzylphenol", "Chlorophene", "Bio-Clave", "Septiphene", "p-Chloro-o-benzylphenol", "2-Hydroxy-5-chlorodiphenylmethane", "Preventol BP", "Nipacide BCP", "NSC 59989", "Nipacide BCP 50", "Septol"], "SMILES": "C(C1=C(O)C=CC(Cl)=C1)C2=CC=CC=C2", "physical_data": {"Molecular Weight": "218.68", "Molecular Formula": "C13H11ClO", "Boiling Point": "160-162 \u00b0C @ Press: 3.5 Torr", "Melting Point": "48.5 \u00b0C"}}