{"cas_no": "120-94-5", "cn_name": "1-\u7532\u57fa\u5421\u54af\u70f7", "en_name": ["1-Methylpyrrolidine", "Pyrrolidine, 1-methyl-", "1-Methylpyrrolidine", "N-Methylpyrrolidine", "N-Methyltetrahydropyrrole", "NSC 65579"], "SMILES": "CN1CCCC1", "physical_data": {"Molecular Weight": "85.15", "Molecular Formula": "C5H11N", "Boiling Point": "81 \u00b0C", "Density": "1.0450 g/cm\u00b3 @ Temp: 9.8 \u00b0C"}}