{"cas_no": "120-66-1", "cn_name": "2-\u7532\u57fa\u4e59\u9170\u82ef\u80fa", "en_name": ["N-(2-Methylphenyl)acetamide", "Acetamide, N-(2-methylphenyl)-", "o-Acetotoluidide", "N-(2-Methylphenyl)acetamide", "N-Acetyl-o-toluidine", "o-Methylacetanilide", "o-Acetyltoluidide", "2\u2032-Methylacetanilide", "N-o-Tolylacetamide", "o-Acetamidotoluene", "N-(o-Methylphenyl)acetamide", "NSC 3365", "N-Acetyl-2-toluidine", "N-Acetyl-2-methylaniline"], "SMILES": "N(C(C)=O)C1=C(C)C=CC=C1", "physical_data": {"Molecular Weight": "149.19", "Molecular Formula": "C9H11NO", "Boiling Point": "296 \u00b0C", "Melting Point": "110 \u00b0C", "Density": "1.168 g/cm\u00b3 @ Temp: 15 \u00b0C"}}