{"cas_no": "120-97-8", "cn_name": "\u53cc\u6c2f\u975e\u90a3\u80fa", "en_name": ["Dichlorphenamide", "1,3-Benzenedisulfonamide, 4,5-dichloro-", "m-Benzenedisulfonamide, 4,5-dichloro-", "4,5-Dichloro-1,3-benzenedisulfonamide", "Daranide", "Dichlofenamide", "4,5-Dichloro-m-benzenedisulfonamide", "4,5-Dichloro-1,3-disulfamoylbenzene", "Dichlorophenamide", "3,4-Dichloro-5-sulfamylbenzenesulfonamide", "Dichlorphenamide", "Oratrol", "1,3-Disulfamyl-4,5-dichlorobenzene", "Antidrasi", "1,3-Disulfamoyl-4,5-dichlorobenzene", "Daramide", "Diclofenamid", "Glaucol", "Diclofenamide", "CB 8000", "Keveyis", "MeSH ID: D004005"], "SMILES": "S(N)(=O)(=O)C1=CC(S(N)(=O)=O)=CC(Cl)=C1Cl", "physical_data": {"Molecular Weight": "305.16", "Molecular Formula": "C6H6Cl2N2O4S2", "Melting Point": "239-241 \u00b0C"}}