{"cas_no": "120-74-1", "cn_name": "5-\u964d\u51b0\u7247\u70ef-2-\u7fa7\u9178", "en_name": ["5-Norbornene-2-carboxylic acid", "Bicyclo[2.2.1]hept-5-ene-2-carboxylic acid", "5-Norbornene-2-carboxylic acid", "Norbornenecarboxylic acid", "Bicyclo[2.2.1]hept-2-ene-5-carboxylic acid", "2-Norbornene-5-carboxylic acid", "NSC 152348"], "SMILES": "C(O)(=O)C1C2CC(C1)C=C2", "physical_data": {"Molecular Weight": "138.16", "Molecular Formula": "C8H10O2", "Boiling Point": "132-134 \u00b0C @ Press: 22 Torr", "Melting Point": "32.5-35 \u00b0C", "Density": "1.12 g/cm\u00b3 @ Temp: 42 \u00b0C"}}