{"cas_no": "120-44-5", "cn_name": "\u8131\u6c27\u8334\u9999\u5076\u59fb", "en_name": ["1,2-Bis(4-methoxyphenyl)ethanone", "Ethanone, 1,2-bis(4-methoxyphenyl)-", "Acetophenone, 4\u2032-methoxy-2-(p-methoxyphenyl)-", "1,2-Bis(4-methoxyphenyl)ethanone", "Deoxyanisoin", "4,4\u2032-Dimethoxydeoxybenzoin", "4-Methoxybenzyl 4-methoxyphenyl ketone", "Deoxy-p-anisoin", "1,2-Di-p-anisylethanone", "1,2-Bis(p-methoxyphenyl)ethanone", "p-Methoxybenzyl p-methoxyphenyl ketone", "4\u2032-Methoxy-2-(p-methoxyphenyl)acetophenone", "Desoxy-p-anisoin", "\u03b1-(p-Methoxyphenyl)-p-methoxyacetophenone", "4\u2032-Methoxy-2-(4-methoxyphenyl)acetophenone", "NSC 26660", "NSC 8793", "Desoxyanisoin"], "SMILES": "C(CC1=CC=C(OC)C=C1)(=O)C2=CC=C(OC)C=C2", "physical_data": {"Molecular Weight": "256.30", "Molecular Formula": "C16H16O3", "Boiling Point": "130-200 \u00b0C @ Press: 3 Torr", "Melting Point": "109-111 \u00b0C"}}