{"cas_no": "120-70-7", "cn_name": "N,N'-\u4e8c\u4e9a\u6c34\u6768\u57fa-1,3-\u4e8c\u6c28\u57fa\u4e19\u70f7", "en_name": ["Bis(salicylidene)-1,3-propanediamine", "Phenol, 2,2\u2032-[1,3-propanediylbis(nitrilomethylidyne)]bis-", "o-Cresol, \u03b1,\u03b1\u2032-(trimethylenedinitrilo)di-", "2,2\u2032-[1,3-Propanediylbis(nitrilomethylidyne)]bis[phenol]", "Disalicylidenepropanediamine", "\u03b1,\u03b1\u2032-(Trimethylenedinitrilo)di-o-cresol", "DSPD", "1,3-Bis(o-hydroxybenzylideneamino)propane", "Disalicylidene-1,3-propanediamine", "N,N\u2032-Bis(salicylidene)-1,3-propylenediamine", "N,N\u2032-1,3-Propylenebis(salicylideneamine)", "1,3-Propanediylbis(salicylaldimine)", "N,N\u2032-Bis(salicylidene)-1,3-propanediamine", "Bis(salicylidene)-1,3-propanediamine", "N,N\u2032-Disalicylidene-1,3-diaminopropane", "N,N\u2032-Bis(salicylidene)-1,3-diaminopropane", "N,N\u2032-Trimethylenebis(salicylaldehyde imine)", "N,N\u2032-Bis(salicylidene)trimethylenediamine", "1,3-Bis(salicylideneamino)propane", "NSC 166332", "1,3-Bis[[(2-hydroxyphenyl)methylene]amino]propane", "1,7-Bis(2-hydroxyphenyl)-2,6-diaza-hepta-1,6-diene", "1,3-Diamino-N,N\u2032-bis(salicylidene)propane", "Salpn", "N,N\u2032-Disalicylidene propane diamine"], "SMILES": "C(=NCCCN=CC1=C(O)C=CC=C1)C2=C(O)C=CC=C2", "physical_data": {"Molecular Weight": "282.34", "Molecular Formula": "C17H18N2O2", "Melting Point": "52 \u00b0C"}}