{"cas_no": "120-18-3", "cn_name": "2-\u8418\u78fa\u9178", "en_name": ["2-Naphthalenesulfonic acid", "2-Naphthalenesulfonic acid", "\u03b2-Naphthalenesulfonic acid", "\u03b2-Naphthylsulfonic acid", "2-Naphthylsulfonic acid", "2-Sulfonaphthalene", "Dirinal NSK"], "SMILES": "S(=O)(=O)(O)C1=CC2=C(C=C1)C=CC=C2", "physical_data": {"Molecular Weight": "208.23", "Molecular Formula": "C10H8O3S", "Melting Point": "91 \u00b0C"}}