{"cas_no": "120-58-1", "cn_name": "\u5f02\u9ec4\u6a1f\u7d20", "en_name": ["Isosafrole", "1,3-Benzodioxole, 5-(1-propen-1-yl)-", "Isosafrole", "Benzene, 1,2-(methylenedioxy)-4-propenyl-", "1,3-Benzodioxole, 5-(1-propenyl)-", "5-(1-Propen-1-yl)-1,3-benzodioxole", "1,2-(Methylenedioxy)-4-propenylbenzene", "5-(Propen-1-yl)-1,3-benzodioxole", "3,4-(Methylenedioxy)-1-propenylbenzene", "6-(1-Propenyl)-1,3-benzodioxole", "NSC 4884", "NSC 59192", "NSC 92436"], "SMILES": "C(=CC)C=1C=C2C(=CC1)OCO2", "physical_data": {"Molecular Weight": "162.19", "Molecular Formula": "C10H10O2", "Boiling Point": "252 \u00b0C", "Melting Point": "6.7-6.8 \u00b0C", "Density": "1.122 g/cm\u00b3 @ Temp: 20 \u00b0C"}}