{"cas_no": "12007-89-5", "cn_name": "\u4e94\u787c\u9178\u94f5", "en_name": ["Ammonium boron oxide ((NH4)B5O8)", "Ammonium boron oxide ((NH4)B5O8)", "Boric acid (HB5O8), ammonium salt", "Ammonium pentaborate (NH4B5O8)", "Ammonium borate (NH4B5O8)", "Ammonium borate ((NH4)2B10O16)", "Ammonium pentaborate"], "SMILES": "[B].[NH4+].[O]", "physical_data": {"Molecular Weight": "", "Molecular Formula": "B.H4N.O", "Melting Point": "175 \u00b0C", "Density": "1.56 g/cm\u00b3"}}