{"cas_no": "120068-79-3", "cn_name": "5-\u6c28\u57fa-3-\u6c30\u57fa-1-(2,6-\u4e8c\u6c2f-4-\u4e09\u6c1f\u7532\u57fa\u82ef\u57fa)\u5421\u5511", "en_name": ["5-Amino-1-[2,6-dichloro-4-(trifluoromethyl)phenyl]-1H-pyrazole-3-carbonitrile", "1H-Pyrazole-3-carbonitrile, 5-amino-1-[2,6-dichloro-4-(trifluoromethyl)phenyl]-", "5-Amino-1-[2,6-dichloro-4-(trifluoromethyl)phenyl]-1H-pyrazole-3-carbonitrile", "5-Amino-3-cyano-1-[2,6-dichloro-4-(trifluoromethyl)phenyl]pyrazole", "5-Amino-1-(2,6-dichloro-4-trifluoromethylphenyl)-3-cyanopyrazole", "1-[2,6-Dichloro-4-(trifluoromethyl)phenyl]-3-cyano-5-aminopyrazole", "5-Amino-3-cyano-1-[2,6-dichloro-4-(trifluoromethyl)phenyl]-1H-pyrazole", "Fipronil-detrifluoromethylsulfinyl"], "SMILES": "NC=1N(N=C(C#N)C1)C2=C(Cl)C=C(C(F)(F)F)C=C2Cl", "physical_data": {"Molecular Weight": "321.09", "Molecular Formula": "C11H5Cl2F3N4", "Melting Point": "132-141 \u00b0C"}}