{"cas_no": "120014-07-5", "cn_name": "1-\u82c4\u57fa-4-(5,6-\u4e8c\u7532\u6c27\u57fa-1-\u831a\u916e-2-\u4e9a\u7532\u57fa)\u54cc\u5576", "en_name": ["1-Benzyl-4-[(5,6-dimethoxy-1-oxoindan-2-ylidene)methyl]piperidine", "1H-Inden-1-one, 2,3-dihydro-5,6-dimethoxy-2-[[1-(phenylmethyl)-4-piperidinyl]methylene]-", "2,3-Dihydro-5,6-dimethoxy-2-[[1-(phenylmethyl)-4-piperidinyl]methylene]-1H-inden-1-one", "1-Benzyl-4-[(5,6-dimethoxy-1-oxoindan-2-ylidene)methyl]piperidine", "2-(1-Benzylpiperidin-4-ylmethylidene)-5,6-dimethoxyindan-1-one", "2-[(1-Benzylpiperidin-4-yl)methylidene]-5,6-dimethoxy-3H-inden-1-one", "2-((1-Benzylpiperidin-4-yl)methylene)-5,6-dimethoxy-2,3-dihydro-1H-inden-1-one"], "SMILES": "O=C1C=2C(=CC(OC)=C(OC)C2)CC1=CC3CCN(CC4=CC=CC=C4)CC3", "physical_data": {"Molecular Weight": "377.48", "Molecular Formula": "C24H27NO3", "Melting Point": "171-174 \u00b0C"}}