{"cas_no": "1200-13-1", "cn_name": "(4-\u7532\u57fa\u82ef\u57fa\u786b)\u4e19\u916e", "en_name": ["1-[(4-Methylphenyl)thio]-2-propanone", "2-Propanone, 1-[(4-methylphenyl)thio]-", "2-Propanone, 1-(p-tolylthio)-", "2-Propanone, (p-tolylthio)-", "1-[(4-Methylphenyl)thio]-2-propanone", "(p-Tolylthio)acetone", "(4-Methylphenylthio)acetone", "2-Oxopropyl 4-tolyl sulfide", "4-Methylphenylthiomethyl methyl ketone", "1-(4-Methylphenylthio)-2-propanone", "1-(4-Methylphenyl)sulfanylpropan-2-one", "1-[(4-Methylphenyl)thio]acetone", "1-[(4-Methylphenyl)sulfanyl]propan-2-one"], "SMILES": "S(CC(C)=O)C1=CC=C(C)C=C1", "physical_data": {"Molecular Weight": "180.27", "Molecular Formula": "C10H12OS", "Boiling Point": "133-135 \u00b0C @ Press: 7-9 Torr", "Density": "1.088 g/cm\u00b3 @ Temp: 19 \u00b0C"}}