{"cas_no": "1200-07-3", "cn_name": "\u5bf9\u6eb4\u8089\u6842\u9178", "en_name": ["4-Bromocinnamic acid", "2-Propenoic acid, 3-(4-bromophenyl)-", "Cinnamic acid, p-bromo-", "3-(4-Bromophenyl)-2-propenoic acid", "p-Bromocinnamic acid", "4-Bromocinnamic acid", "NSC 218449", "3-(4-Bromophenyl)acrylic acid", "4-Bromocinnamoic acid"], "SMILES": "C(=CC(O)=O)C1=CC=C(Br)C=C1", "physical_data": {"Molecular Weight": "227.05", "Molecular Formula": "C9H7BrO2", "Melting Point": "257 \u00b0C"}}