{"cas_no": "12006-15-4", "cn_name": "\u7837\u5316\u9549", "en_name": ["Cadmium arsenide (Cd3As2)", "Cadmium arsenide (Cd3As2)", "Tricadmium diarsenide"], "SMILES": "[As].[Cd]", "physical_data": {"Molecular Weight": "", "Molecular Formula": "As.Cd", "Melting Point": "721 \u00b0C"}}