{"cas_no": "120004-79-7", "cn_name": "3,4-\u4e8c\u6c22-7-(4-\u6c2f\u4e01\u6c27\u57fa)-2(1H)-\u55b9\u5549\u916e", "en_name": ["7-(4-Chlorobutoxy)-3,4-dihydro-2(1H)-quinolinone", "2(1H)-Quinolinone, 7-(4-chlorobutoxy)-3,4-dihydro-", "7-(4-Chlorobutoxy)-3,4-dihydro-2(1H)-quinolinone", "7-(4-Chlorobutoxy)-3,4-dihydrocarbostyril", "7-(4-Chlorobutoxy)-3,4-dihydro-C2(1 H)-quinoline", "3,4-Dihydro-7-(4-chlorobutoxy)-2(1H)-quinolinone"], "SMILES": "O(CCCCCl)C=1C=C2C(=CC1)CCC(=O)N2", "physical_data": {"Molecular Weight": "253.72", "Molecular Formula": "C13H16ClNO2", "Melting Point": "100-102 \u00b0C"}}