{"cas_no": "120011-70-3", "cn_name": "\u76d0\u9178\u591a\u5948\u54cc\u9f50", "en_name": ["Donepezil hydrochloride", "1H-Inden-1-one, 2,3-dihydro-5,6-dimethoxy-2-[[1-(phenylmethyl)-4-piperidinyl]methyl]-, hydrochloride (1:1)", "1H-Inden-1-one, 2,3-dihydro-5,6-dimethoxy-2-[[1-(phenylmethyl)-4-piperidinyl]methyl]-, hydrochloride", "E 2020", "E 2020 (pharmaceutical)", "BNAG", "Donepezil hydrochloride", "Aricept", "Aricept D", "Dopezil", "Dorent", "Donep", "1-Benzyl-4-[(5,6-dimethoxy-1-indanon-2-yl)methyl]piperidine hydrochloride", "Aricept ODT"], "SMILES": "O=C1C=2C(=CC(OC)=C(OC)C2)CC1CC3CCN(CC4=CC=CC=C4)CC3.Cl", "physical_data": {"Molecular Weight": "", "Molecular Formula": "C24H29NO3.ClH", "Melting Point": "211-212 \u00b0C"}}