{"cas_no": "12002-99-2", "cn_name": "\u78b2\u5316\u94f6", "en_name": ["Silver telluride (Ag2Te)", "Silver telluride (Ag2Te)", "Disilver telluride", "Silver(1+) telluride", "Silver telluride (Ag0.67Te0.33)", "Silver telluride"], "SMILES": "[Te]([Ag])[Ag]", "physical_data": {"Molecular Weight": "", "Molecular Formula": "Ag2Te", "Melting Point": "959 \u00b0C", "Density": "8.08 g/cm\u00b3"}}