{"cas_no": "120092-68-4", "cn_name": "\u9a6c\u5c3c\u5730\u5e73", "en_name": ["Manidipine", "3,5-Pyridinedicarboxylic acid, 1,4-dihydro-2,6-dimethyl-4-(3-nitrophenyl)-, 3-[2-[4-(diphenylmethyl)-1-piperazinyl]ethyl] 5-methyl ester", "3,5-Pyridinedicarboxylic acid, 1,4-dihydro-2,6-dimethyl-4-(3-nitrophenyl)-, 2-[4-(diphenylmethyl)-1-piperazinyl]ethyl methyl ester", "Manidipine", "Franidipine", "(\u00b1)-Manidipine", "Manidipine 6300", "2,6-Dimethyl-4-(3-nitro-phenyl)-1,4-dihydro-pyridine-3,5-dicarboxylic acid 3-[2-(4-benzhydryl-piperazin-1-yl)-ethyl] ester 5-methyl ester"], "SMILES": "C(OCCN1CCN(C(C2=CC=CC=C2)C3=CC=CC=C3)CC1)(=O)C=4C(C(C(OC)=O)=C(C)NC4C)C5=CC(N(=O)=O)=CC=C5", "physical_data": {"Molecular Weight": "610.70", "Molecular Formula": "C35H38N4O6", "Melting Point": "125-128 \u00b0C"}}