{"cas_no": "1200-03-9", "cn_name": "4-\u82ef\u6c27\u57fa\u6eb4\u4e01\u70f7", "en_name": ["(4-Bromobutoxy)benzene", "Benzene, (4-bromobutoxy)-", "Ether, 4-bromobutyl phenyl", "(4-Bromobutoxy)benzene", "1-Bromo-4-phenoxybutane", "4-Bromobutyl phenyl ether", "4-Phenoxybutyl bromide", "1-Phenoxy-4-bromobutane", "4-Phenoxy-1-bromobutane", "4-Bromo-1-phenoxybutane", "NSC 17155"], "SMILES": "O(CCCCBr)C1=CC=CC=C1", "physical_data": {"Molecular Weight": "229.11", "Molecular Formula": "C10H13BrO", "Boiling Point": "156 \u00b0C @ Press: 18 Torr", "Melting Point": "41 \u00b0C"}}