{"cas_no": "1200-22-2", "cn_name": "R-(+)-\u786b\u8f9b\u9178", "en_name": ["\u03b1-Lipoic acid", "1,2-Dithiolane-3-pentanoic acid, (3R)-", "1,2-Dithiolane-3-valeric acid, (+)-", "1,2-Dithiolane-3-pentanoic acid, (R)-", "(3R)-1,2-Dithiolane-3-pentanoic acid", "d-Thioctic acid", "(R)-(+)-\u03b1-Lipoic acid", "\u03b1-(+)-Lipoic acid", "\u03b1-Lipoic acid", "Lipoic acid", "(R)-\u03b1-Lipoic acid", "(R)-Lipoic acid", "R-(+)-Thioctic acid", "Tiobec", "Thiogamma", "Byodinoral 300", "Tiobec Retard", "Lipoec", "Berlition", "Thioderm", "alpha-Lipoic acid", "Destior-R", "Matris thioctic", "(R)-(+)-1,2-Dithiolane-3-pentanoic acid", "(R)-5-(1,2-Dithiolan-3-yl)pentanoicacid", "Arlipoic acid"], "SMILES": "C(CCCC(O)=O)C1CCSS1", "physical_data": {"Molecular Weight": "206.33", "Molecular Formula": "C8H14O2S2", "Boiling Point": "185-195 \u00b0C @ Press: 0.5 Torr", "Melting Point": "46-48 \u00b0C"}}