{"cas_no": "12008-21-8", "cn_name": "\u516d\u787c\u5316\u9567", "en_name": ["Lanthanum hexaboride", "Lanthanum boride (LaB6), (OC-6-11)-", "Lanthanum boride (LaB6)", "Lanthanum hexaboride", "Lanthanum hexaboride (LaB6)", "Lanthanum boride", "LaB6-F", "KHF 7", "Alfa 43100", "KHGS 02", "KHDS 6", "KHF 7AH", "XT 0804-2-1", "HW-B 005", "202110LLF"], "SMILES": "[La](#B)(#B)(#B)(#B)(#B)#B", "physical_data": {"Molecular Weight": "", "Molecular Formula": "B6La", "Melting Point": "2715 \u00b0C"}}