{"cas_no": "120067-83-6", "cn_name": "\u6c1f\u82ef\u8148\u786b\u5316\u7269", "en_name": ["Fipronil sulfide", "1H-Pyrazole-3-carbonitrile, 5-amino-1-[2,6-dichloro-4-(trifluoromethyl)phenyl]-4-[(trifluoromethyl)thio]-", "5-Amino-1-[2,6-dichloro-4-(trifluoromethyl)phenyl]-4-[(trifluoromethyl)thio]-1H-pyrazole-3-carbonitrile", "MB 45950", "5-Amino-1-(2,6-dichloro-4-trifluoromethylphenyl)-3-cyano-4-trifluoromethylthiopyrazole", "Fipronil sulfide", "5-Amino-1-[2,6-Dichloro-4-(trifluoromethyl)phenyl]-4-(trifluoromethylthio)pyrazole-3-carbonitrile", "5-Amino-3-cyano-1-(2,6-dichloro-4-trifluoromethylphenyl)-4-(trifluoromethylthio)pyrazole", "1-(2,6-Dichloro-4-trifluoromethylphenyl)-3-cyano-5-amino-4-(trifluoromethylthio)pyrazole", "MBO 45950"], "SMILES": "NC=1N(N=C(C#N)C1SC(F)(F)F)C2=C(Cl)C=C(C(F)(F)F)C=C2Cl", "physical_data": {"Molecular Weight": "421.15", "Molecular Formula": "C12H4Cl2F6N4S", "Melting Point": "161-163 \u00b0C"}}