{"cas_no": "120077-69-2", "cn_name": "4-\u6eb4-3-\u6c2f-\u82ef\u7532\u919b", "en_name": ["4-Bromo-3-chlorobenzaldehyde", "Benzaldehyde, 4-bromo-3-chloro-", "4-Bromo-3-chlorobenzaldehyde"], "SMILES": "C(=O)C1=CC(Cl)=C(Br)C=C1", "physical_data": {"Molecular Weight": "219.46", "Molecular Formula": "C7H4BrClO", "Melting Point": "52 \u00b0C"}}