{"cas_no": "1200-14-2", "cn_name": "4-N-\u4e01\u57fa\u82ef\u7532\u919b", "en_name": ["4-Butylbenzaldehyde", "Benzaldehyde, 4-butyl-", "Benzaldehyde, p-butyl-", "4-Butylbenzaldehyde", "p-Butylbenzaldehyde", "4-n-Butylbenzaldehyde", "p-n-Butylbenzaldehyde", "NBBAL"], "SMILES": "C(CCC)C1=CC=C(C=O)C=C1", "physical_data": {"Molecular Weight": "162.23", "Molecular Formula": "C11H14O", "Boiling Point": "125-130 \u00b0C @ Press: 19 Torr", "Melting Point": "43 \u00b0C"}}