{"cas_no": "120013-57-2", "cn_name": "5-O-\u53bb\u7532\u57fa \u591a\u5948\u54cc\u9f50", "en_name": ["5-O-Desmethyl donepezil", "1H-Inden-1-one, 2,3-dihydro-5-hydroxy-6-methoxy-2-[[1-(phenylmethyl)-4-piperidinyl]methyl]-", "2,3-Dihydro-5-hydroxy-6-methoxy-2-[[1-(phenylmethyl)-4-piperidinyl]methyl]-1H-inden-1-one", "1-Benzyl-4-[(5-hydroxy-6-methoxy-1-oxo-indan-2-yl)methyl]piperidine", "5-O-Desmethyl donepezil", "2-[(1-Benzylpiperidin-4-yl)methyl]-5-hydroxy-6-methoxy-2,3-dihydroinden-1-one"], "SMILES": "O=C1C=2C(CC1CC3CCN(CC4=CC=CC=C4)CC3)=CC(O)=C(OC)C2", "physical_data": {"Molecular Weight": "365.47", "Molecular Formula": "C23H27NO3", "Melting Point": "170-171 \u00b0C (decomp)"}}