{"cas_no": "12003-78-0", "cn_name": "\u954d\u94dd\u5408\u91d1\u7c89", "en_name": ["Aluminum nickel (AlNi)", "Aluminum, compd. with nickel (1:1)", "AlNi", "Aluminum, compd. with nickel (AlNi)", "Nickel, compd. with aluminum (1:1)", "Nickel aluminide (NiAl)", "Aluminum nickel (AlNi)", "Nickel aluminide AlNi"], "SMILES": "[Al].[Ni]", "physical_data": {"Molecular Weight": "", "Molecular Formula": "Al.Ni", "Melting Point": "1380 \u00b0C", "Density": "5.85 g/cm\u00b3"}}