{"cas_no": "120068-37-3", "cn_name": "\u6c1f\u866b\u8148", "en_name": ["Fipronil", "1H-Pyrazole-3-carbonitrile, 5-amino-1-[2,6-dichloro-4-(trifluoromethyl)phenyl]-4-[(trifluoromethyl)sulfinyl]-", "5-Amino-1-[2,6-dichloro-4-(trifluoromethyl)phenyl]-4-[(trifluoromethyl)sulfinyl]-1H-pyrazole-3-carbonitrile", "Fipronil", "Regent", "Termidor 80WG", "Termidor", "5-Amino-1-(2,6-dichloro-4-trifluoromethylphenyl)-3-cyano-4-trifluoromethylsulfinylpyrazole", "Frontline Top Spot", "Ascend", "Blitz", "1-[2,6-Dichloro-4-(trifluoromethyl)phenyl]-3-cyano-4-[(trifluoromethyl)sulfinyl]-5-aminopyrazole", "Frontline Spray", "Frontline Spot-on", "Fluocyanobenpyrazole", "Maxforce FC", "Cosmos", "Cosmos (insecticide)", "Goliath gel", "Agenda", "TopChoice", "Grenade MC", "Granedo MC", "Maxforce FC Select Roach Killer Bait Gel", "Regent TS", "1-(2,6-Dichloro-4-trifluoromethylphenyl)-3-cyano-5-amino-4-(trifluoromethylsulfinyl)pyrazole", "(\u00b1)-Fipronil", "Over'n Out", "Agenda SC", "Regent 250 FS", "Formidor L", "Chipco Choice", "Regent 200 SC", "Taj", "Eliminall", "Standak 250SC", "Standak", "Regent 0.3G", "Prince", "Jump 80WG", "Regent 800WG", "Termidor (insecticide)", "Albatross (insecticide)", "Topline", "DEVIGENT PLUS", "Bakuda", "Prince Flowable", "Reagent 800 WG", "BRD-A 50675702", "Chance Profi VDG", "Shans Profi VDG"], "SMILES": "NC=1N(N=C(C#N)C1S(C(F)(F)F)=O)C2=C(Cl)C=C(C(F)(F)F)C=C2Cl", "physical_data": {"Molecular Weight": "437.15", "Molecular Formula": "C12H4Cl2F6N4OS", "Melting Point": "200-201 \u00b0C", "Density": "1.477-1.626 g/cm\u00b3 @ Temp: 20 \u00b0C"}}