{"cas_no": "120068-36-2", "cn_name": "\u6c1f\u5421\u5c3c\u781c", "en_name": ["Fipronil sulfone", "1H-Pyrazole-3-carbonitrile, 5-amino-1-[2,6-dichloro-4-(trifluoromethyl)phenyl]-4-[(trifluoromethyl)sulfonyl]-", "5-Amino-1-[2,6-dichloro-4-(trifluoromethyl)phenyl]-4-[(trifluoromethyl)sulfonyl]-1H-pyrazole-3-carbonitrile", "MB 46136", "5-Amino-1-(2,6-dichloro-4-trifluoromethylphenyl)-3-cyano-4-trifluoromethylsulfonylpyrazole", "5-Amino-1-[2,6-Dichloro-4-(trifluoromethyl)phenyl]-4-(trifluoromethylsulfonyl)pyrazole-3-carbonitrile", "Fipronil sulfone", "Fipronil metabolite 46136"], "SMILES": "S(C(F)(F)F)(=O)(=O)C=1C(C#N)=NN(C1N)C2=C(Cl)C=C(C(F)(F)F)C=C2Cl", "physical_data": {"Molecular Weight": "453.15", "Molecular Formula": "C12H4Cl2F6N4O2S", "Melting Point": "205-206 \u00b0C"}}