{"cas_no": "1201913-82-7", "cn_name": "\u6258\u683c\u5217\u51c0", "en_name": ["Spiro[isobenzofuran-1(3H),2\u2032-[2H]pyran]-3\u2032,4\u2032,5\u2032-triol, 6-[(4-ethylphenyl)methyl]-3\u2032,4\u2032,5\u2032,6\u2032-tetrahydro-6\u2032-(hydroxymethyl)-, hydrate (1:1), (1S,3\u2032R,4\u2032S,5\u2032S,6\u2032R)-", "Spiro[isobenzofuran-1(3H),2\u2032-[2H]pyran]-3\u2032,4\u2032,5\u2032-triol, 6-[(4-ethylphenyl)methyl]-3\u2032,4\u2032,5\u2032,6\u2032-tetrahydro-6\u2032-(hydroxymethyl)-, hydrate (1:1), (1S,3\u2032R,4\u2032S,5\u2032S,6\u2032R)-", "Deberza", "Tofogliflozin hydrate"], "SMILES": "OC1C2(C=3C(CO2)=CC=C(CC4=CC=C(CC)C=C4)C3)OC(CO)C(O)C1O.O", "physical_data": {"Molecular Weight": "", "Molecular Formula": "C22H26O6.H2O", "Melting Point": "71-80 \u00b0C"}}