{"cas_no": "12013-55-7", "cn_name": "\u7845\u5316\u9499", "en_name": ["Calcium silicide (CaSi)", "Calcium silicide (CaSi)", "Calcium monosilicide"], "SMILES": "[Ca]#[Si]", "physical_data": {"Molecular Weight": "", "Molecular Formula": "CaSi", "Melting Point": "1315 \u00b0C"}}