{"cas_no": "1201-08-7", "cn_name": "8-\u6eb4-4-\u7f9f\u57fa-2-\u7532\u57fa\u55b9\u5549", "en_name": ["8-Bromo-2-methyl-4-quinolinol", "4-Quinolinol, 8-bromo-2-methyl-", "8-Bromo-2-methyl-4-quinolinol"], "SMILES": "OC=1C2=C(N=C(C)C1)C(Br)=CC=C2", "physical_data": {"Molecular Weight": "238.08", "Molecular Formula": "C10H8BrNO", "Melting Point": "204-206 \u00b0C"}}