{"cas_no": "12013-82-0", "cn_name": "\u6c2e\u5316\u9499(Ca3N2)", "en_name": ["Calcium nitride (Ca3N2)", "Calcium nitride (Ca3N2)", "Tricalcium dinitride", "Calcium nitride"], "SMILES": "", "physical_data": {"Molecular Weight": "", "Molecular Formula": "Ca3N2", "Boiling Point": "1195 \u00b0C"}}