{"cas_no": "120157-97-3", "cn_name": "N-BOC-2-\u56db\u6eb4\u82ef\u4e59\u80fa", "en_name": ["1,1-Dimethylethyl N-[2-(4-bromophenyl)ethyl]carbamate", "Carbamic acid, N-[2-(4-bromophenyl)ethyl]-, 1,1-dimethylethyl ester", "Carbamic acid, [2-(4-bromophenyl)ethyl]-, 1,1-dimethylethyl ester", "1,1-Dimethylethyl N-[2-(4-bromophenyl)ethyl]carbamate", "2-(4-Bromophenyl)-N-(t-butoxycarbonyl)ethylamine", "N-Boc-4-bromophenethylamine", "N-[2-(4-Bromophenyl)ethyl]carbamic acid tert-butyl ester", "tert-Butyl N-[2-(4-bromophenyl)ethyl]carbamate", "tert-Butyl 4-bromophenethylcarbamate", "N-tert-Butoxycarbonyl-2-(4-bromophenyl)ethylamine"], "SMILES": "C(CNC(OC(C)(C)C)=O)C1=CC=C(Br)C=C1", "physical_data": {"Molecular Weight": "300.19", "Molecular Formula": "C13H18BrNO2", "Melting Point": "58-59 \u00b0C"}}