{"cas_no": "12013-56-8", "cn_name": "\u7845\u5316\u9499", "en_name": ["Calcium silicide (CaSi2)", "Calcium silicide (CaSi2)", "Calcium disilicide", "Calcium disilicide (CaSi2)", "CaSi2", "Calcium silicide (Ca0.5Si)"], "SMILES": "[Ca](#[Si])#[Si]", "physical_data": {"Molecular Weight": "", "Molecular Formula": "CaSi2", "Melting Point": "1033 \u00b0C"}}