{"cas_no": "120157-96-2", "cn_name": "4-(BOC-\u6c28\u7532\u57fa)\u82ef\u7532\u9178\u7532\u916f", "en_name": ["Methyl 4-[[[(1,1-dimethylethoxy)carbonyl]amino]methyl]benzoate", "Benzoic acid, 4-[[[(1,1-dimethylethoxy)carbonyl]amino]methyl]-, methyl ester", "Methyl 4-[[[(1,1-dimethylethoxy)carbonyl]amino]methyl]benzoate", "Methyl 4-[[N-(tert-butoxycarbonyl)amino]methyl]benzoate", "4-[(N-(tert-Butoxycarbonyl)amino)methyl]benzoic acid methyl ester", "4-[[(tert-butoxycarbonyl)amino]methyl]benzoic acid methyl ester", "Methyl 4-[[(tert-butoxycarbonyl)amino]methyl]benzoate"], "SMILES": "C(NC(OC(C)(C)C)=O)C1=CC=C(C(OC)=O)C=C1", "physical_data": {"Molecular Weight": "265.30", "Molecular Formula": "C14H19NO4", "Melting Point": "73.5-74 \u00b0C"}}