{"cas_no": "120157-98-4", "cn_name": "1-BOC-\u4e59\u9170\u80fa", "en_name": ["1,1-Dimethylethyl N-acetylcarbamate", "Carbamic acid, N-acetyl-, 1,1-dimethylethyl ester", "Carbamic acid, acetyl-, 1,1-dimethylethyl ester", "1,1-Dimethylethyl N-acetylcarbamate", "N-(tert-Butoxycarbonyl)acetamide"], "SMILES": "O(C(C)(C)C)C(NC(C)=O)=O", "physical_data": {"Molecular Weight": "159.18", "Molecular Formula": "C7H13NO3", "Melting Point": "77-78 \u00b0C"}}