{"cas_no": "12018-09-6", "cn_name": "\u7845\u5316\u94ec", "en_name": ["Chromium silicide (CrSi2)", "Chromium silicide (CrSi2)", "Chromium disilicide", "Chromium disilicide (CrSi2)"], "SMILES": "[Cr](#[Si])#[Si]", "physical_data": {"Molecular Weight": "", "Molecular Formula": "CrSi2", "Melting Point": "1470 \u00b0C"}}