{"cas_no": "120162-55-2", "cn_name": "\u56db\u5511\u5627\u78fa\u9686", "en_name": ["Azimsulfuron", "1H-Pyrazole-5-sulfonamide, N-[[(4,6-dimethoxy-2-pyrimidinyl)amino]carbonyl]-1-methyl-4-(2-methyl-2H-tetrazol-5-yl)-", "N-[[(4,6-Dimethoxy-2-pyrimidinyl)amino]carbonyl]-1-methyl-4-(2-methyl-2H-tetrazol-5-yl)-1H-pyrazole-5-sulfonamide", "DPX 47", "IN-A 8947", "Azimsulfuron", "DPX-A 8947", "Gulliver"], "SMILES": "S(NC(NC=1N=C(OC)C=C(OC)N1)=O)(=O)(=O)C2=C(C=NN2C)C3=NN(C)N=N3", "physical_data": {"Molecular Weight": "424.40", "Molecular Formula": "C13H16N10O5S", "Melting Point": "170 \u00b0C"}}