{"cas_no": "1201-38-3", "cn_name": "2,5-\u4e8c\u7532\u6c27\u57fa\u82ef\u4e59\u916e", "en_name": ["2\u2032,5\u2032-Dimethoxyacetophenone", "Ethanone, 1-(2,5-dimethoxyphenyl)-", "Acetophenone, 2\u2032,5\u2032-dimethoxy-", "1-(2,5-Dimethoxyphenyl)ethanone", "2\u2032,5\u2032-Dimethoxyacetophenone", "Methyl 2,5-dimethoxyphenyl ketone", "NSC 62094"], "SMILES": "C(C)(=O)C1=C(OC)C=CC(OC)=C1", "physical_data": {"Molecular Weight": "180.20", "Molecular Formula": "C10H12O3", "Boiling Point": "167 \u00b0C @ Press: 16 Torr", "Melting Point": "20-22 \u00b0C"}}