{"cas_no": "1201-26-9", "cn_name": "\u5432\u54da-3-\u4e19\u916e", "en_name": ["Indole-3-acetone", "2-Propanone, 1-(1H-indol-3-yl)-", "2-Propanone, 1-indol-3-yl-", "2-Propanone, indol-3-yl-", "1-(1H-Indol-3-yl)-2-propanone", "Indole-3-acetone", "Indol-3-yl-2-propanone", "3-(2-Oxopropyl)indole", "3-Indolylacetone", "3-Acetonylindole", "(1H-Indol-3-yl)acetone", "NSC 100751", "1-(1H-Indol-3-yl)propan-2-one"], "SMILES": "C(C(C)=O)C=1C=2C(NC1)=CC=CC2", "physical_data": {"Molecular Weight": "173.21", "Molecular Formula": "C11H11NO", "Melting Point": "116 \u00b0C"}}