{"cas_no": "12017-12-8", "cn_name": "\u7845\u5316\u94b4", "en_name": ["Cobalt silicide (CoSi2)", "Cobalt silicide (CoSi2)", "Cobalt disilicide"], "SMILES": "[Co](#[Si])#[Si]", "physical_data": {"Molecular Weight": "", "Molecular Formula": "CoSi2", "Melting Point": "1327 \u00b0C"}}