{"cas_no": "1201-31-6", "cn_name": "2,3,4,5-\u56db\u6c1f\u82ef\u7532\u9178", "en_name": ["2,3,4,5-Tetrafluorobenzoic acid", "Benzoic acid, 2,3,4,5-tetrafluoro-", "2,3,4,5-Tetrafluorobenzoic acid", "3,4,5,6-Tetrafluorobenzoic acid", "NSC 168728"], "SMILES": "C(O)(=O)C1=C(F)C(F)=C(F)C(F)=C1", "physical_data": {"Molecular Weight": "194.08", "Molecular Formula": "C7H2F4O2", "Boiling Point": "135-137 \u00b0C @ Press: 23 Torr", "Melting Point": "86 \u00b0C"}}