{"cas_no": "1201-99-6", "cn_name": "\u53cd\u5f0f-2,4-\u4e8c\u6c2f\u82ef\u4e59\u70ef\u9178", "en_name": ["3-(2,4-Dichlorophenyl)-2-propenoic acid", "2-Propenoic acid, 3-(2,4-dichlorophenyl)-", "Cinnamic acid, 2,4-dichloro-", "3-(2,4-Dichlorophenyl)-2-propenoic acid", "2,4-Dichlorocinnamic acid", "NSC 2076", "3-(2,4-Dichlorophenyl)acrylic acid"], "SMILES": "C(=CC(O)=O)C1=C(Cl)C=C(Cl)C=C1", "physical_data": {"Molecular Weight": "217.05", "Molecular Formula": "C9H6Cl2O2", "Melting Point": "235-236 \u00b0C"}}