{"cas_no": "1201-74-7", "cn_name": "(1-\u8418\u57fa)-2-\u4e59\u80fa", "en_name": ["1-(2-Naphthyl)ethylamine", "2-Naphthalenemethanamine, \u03b1-methyl-", "2-Naphthalenemethylamine, \u03b1-methyl-", "\u03b1-Methyl-2-naphthalenemethanamine", "1-(\u03b2-Naphthyl)ethylamine", "1-(2-Naphthyl)ethylamine", "1-Amino-1-(2-naphthyl)ethane", "(\u00b1)-1-(2-Naphthyl)ethylamine", "\u03b1-(2-Naphthyl)ethylamine", "(\u00b1)-\u03b1-(2-Naphthyl)ethylamine", "(RS)-1-(2-Naphthyl)ethylamine", "1-Naphthalen-2-yl-ethylamine", "1-Naphthalen-2-ylethanamine", "1-(Naphthalen-2-yl)ethan-1-amine"], "SMILES": "C(C)(N)C1=CC2=C(C=C1)C=CC=C2", "physical_data": {"Molecular Weight": "171.24", "Molecular Formula": "C12H13N", "Boiling Point": "157 \u00b0C", "Melting Point": "23 \u00b0C", "Density": "1.047 g/cm\u00b3 @ Temp: 20 \u00b0C"}}