{"cas_no": "120258-69-7", "cn_name": "2,8-\u4e8c\u6c2f\u55b9\u5641\u5549", "en_name": ["2,8-Dichloroquinoxaline", "Quinoxaline, 2,8-dichloro-", "2,8-Dichloroquinoxaline"], "SMILES": "ClC=1C2=C(N=CC(Cl)=N2)C=CC1", "physical_data": {"Molecular Weight": "199.04", "Molecular Formula": "C8H4Cl2N2", "Melting Point": "190-195 \u00b0C"}}