{"cas_no": "12027-38-2", "cn_name": "\u7845\u94a8\u9178", "en_name": ["12-Tungstosilicic acid", "Tungstate(4-), [\u03bc12-[orthosilicato(4-)-\u03baO:\u03baO:\u03baO:\u03baO\u2032:\u03baO\u2032:\u03baO\u2032:\u03baO\u2032\u2032:\u03baO\u2032\u2032:\u03baO\u2032\u2032:\u03baO\u2032\u2032\u2032:\u03baO\u2032\u2032\u2032:\u03baO\u2032\u2032\u2032]]tetracosa-\u03bc-oxododecaoxododeca-, hydrogen (1:4)", "Tungstosilicic acid (H4SiW12O40)", "Tungstate(4-), [\u03bc12-[orthosilicato(4-)-O:O:O:O\u2032:O\u2032:O\u2032:O\u2032\u2032:O\u2032\u2032:O\u2032\u2032:O\u2032\u2032\u2032:O\u2032\u2032\u2032:O\u2032\u2032\u2032]]tetracosa-\u03bc-oxododecaoxododeca-, tetrahydrogen", "Silicotungstic acid (H4SiW12O40)", "Tungstate(4-), [\u03bc12-[orthosilicato(4-)-\u03baO:\u03baO:\u03baO:\u03baO\u2032:\u03baO\u2032:\u03baO\u2032:\u03baO\u2032\u2032:\u03baO\u2032\u2032:\u03baO\u2032\u2032:\u03baO\u2032\u2032\u2032:\u03baO\u2032\u2032\u2032:\u03baO\u2032\u2032\u2032]]tetracosa-\u03bc-oxododecaoxododeca-, tetrahydrogen", "Silicic acid (H4SiO4), tungsten complex", "12-Tungstosilicic acid", "Tungsten oxide silicide (W12O38Si)", "Silicotungstic acid", "JM 1493", "PM 92", "Tungstosilicic acid (H4W12SiO40)", "12-Tungstosilicic acid (H4W12O40Si)", "Dodecatungstosilicic acid (H4SiW12O40)", "Tungsten hydroxide oxide silicate (W12(OH)4O32(SiO4))", "NSW 40"], "SMILES": "O=[W+4]1234[O-]56[Si]78[O-]9%10[W+4]%11%12(=O)([O-2]1)[O-2][W+4]%13%14(=O)([O-]7%15[W+4]%16%17(=O)([O-2][W+4]9%18(=O)([O-2]%11)[O-2][W+4]%10%19(=O)([O-2][W+4]5%20(=O)([O-2]2)[O-2][W+4]6%21(=O)([O-2]3)[O-2][W+4]%15(=O)([O-2]%13)([O-2]%16)[O-2][W+4]%22%23(=O)([O-]8%24[W+4](=O)([O-2]%18)([O-2]%17)([O-2][W+4]%24(=O)([O-2]%20)([O-2]%19)[O-2]%22)[O-2]%23)[O-2]%21)[O-2]%12)[O-2]%14)[O-2]4.[H+]", "physical_data": {"Molecular Weight": "", "Molecular Formula": "H.<sup>1</sup>/4O40SiW12", "Boiling Point": "210-220 \u00b0C @ Press: 1-2 Torr", "Density": "2.099 g/cm\u00b3"}}