{"cas_no": "1202-08-0", "cn_name": "5'-isopropyl-2'-methylacetophenone", "en_name": ["1-[2-Methyl-5-(1-methylethyl)phenyl]ethanone", "Ethanone, 1-[2-methyl-5-(1-methylethyl)phenyl]-", "Acetophenone, 5\u2032-isopropyl-2\u2032-methyl-", "1-[2-Methyl-5-(1-methylethyl)phenyl]ethanone", "2-Acetyl-p-cymene", "1-Acetyl-5-isopropyl-2-methylbenzene", "NSC 9414", "1-(5-Isopropyl-2-methylphenyl)ethanone", "1-(5-Isopropyl-2-methylphenyl)ethan-1-one", "1-(2-Methyl-5-propan-2-ylphenyl)ethanone", "1-[2-Methyl-5-(propan-2-yl)phenyl]ethan-1-one"], "SMILES": "C(C)(=O)C1=CC(C(C)C)=CC=C1C", "physical_data": {"Molecular Weight": "176.25", "Molecular Formula": "C12H16O", "Boiling Point": "249.5 \u00b0C", "Melting Point": "&lt;-20 \u00b0C", "Density": "0.9864 g/cm\u00b3 @ Temp: 0 \u00b0C"}}