{"cas_no": "12026-57-2", "cn_name": "\u78f7\u94bc\u9178", "en_name": ["12-Molybdophosphoric acid", "Molybdate(3-), tetracosa-\u03bc-oxododecaoxo[\u03bc12-[phosphato(3-)-\u03baO:\u03baO:\u03baO:\u03baO\u2032:\u03baO\u2032:\u03baO\u2032:\u03baO\u2032\u2032:\u03baO\u2032\u2032:\u03baO\u2032\u2032:\u03baO\u2032\u2032\u2032:\u03baO\u2032\u2032\u2032:\u03baO\u2032\u2032\u2032]]dodeca-, hydrogen (1:3)", "Molybdophosphoric acid (H3PMo12O40)", "Molybdate(3-), tetracosa-\u03bc-oxododecaoxo[\u03bc12-[phosphato(3-)-O:O:O:O\u2032:O\u2032:O\u2032:O\u2032\u2032:O\u2032\u2032:O\u2032\u2032:O\u2032\u2032\u2032:O\u2032\u2032\u2032:O\u2032\u2032\u2032]]dodeca-, trihydrogen", "Phosphomolybdic acid (H3PMo12O40)", "Molybdate(3-), tetracosa-\u03bc-oxododecaoxo[\u03bc12-[phosphato(3-)-\u03baO:\u03baO:\u03baO:\u03baO\u2032:\u03baO\u2032:\u03baO\u2032:\u03baO\u2032\u2032:\u03baO\u2032\u2032:\u03baO\u2032\u2032:\u03baO\u2032\u2032\u2032:\u03baO\u2032\u2032\u2032:\u03baO\u2032\u2032\u2032]]dodeca-, trihydrogen", "Phosphoric acid, molybdenum complex", "Dodecamolybdophosphoric acid", "12-Molybdophosphoric acid", "Molybdophosphoric acid (H3Mo12PO40)", "H3PMo12O40", "Phosphomolybdic acid", "Molybdenum hydroxide oxide phosphate (Mo12(OH)3O33(PO4))", "12-Phosphomolybdic acid", "Molybdophosphoric acid (H3Mo12O40P)", "Phosphomolybdic acid (H3Mo12PO40)", "Molybdophosphoric acid", "NPM 40"], "SMILES": "O=[Mo+4]1234[O-]56P7=8[O-]9%10[Mo+4]%11%12%13(=O)[O-2][Mo+4]5%14(=O)([O-2]1)[O-2][Mo+4]%15%16(=O)([O-]7%17[Mo+4]%18(=O)([O-2]2)([O-2][Mo+4]%19%20(=O)(O8%21[Mo+4]%22%23(=O)([O-2][Mo+4]9(=O)([O-2]%11)([O-2][Mo+4]%10%24(=O)([O-2][Mo+4]6(=O)([O-2]3)([O-2]%14)[O-2][Mo+4]%21(=O)([O-2]%24)([O-2]%19)[O-2]%22)[O-2]%12)[O-2][Mo+4]%17(=O)([O-2]%23)([O-2]%18)[O-2]%15)[O-2]%20)[O-2]4)[O-2]%16)[O-2]%13.[H+]", "physical_data": {"Molecular Weight": "", "Molecular Formula": "H.<sup>1</sup>/3Mo12O40P", "Melting Point": "172-174 \u00b0C", "Density": "1.684 g/cm\u00b3"}}