{"cas_no": "120202-66-6", "cn_name": "\u786b\u9178\u6c2f\u5421\u683c\u96f7", "en_name": ["Clopidogrel bisulfate", "Thieno[3,2-c]pyridine-5(4H)-acetic acid, \u03b1-(2-chlorophenyl)-6,7-dihydro-, methyl ester, (\u03b1S)-, sulfate (1:1)", "Thieno[3,2-c]pyridine-5(4H)-acetic acid, \u03b1-(2-chlorophenyl)-6,7-dihydro-, methyl ester, (S)-, sulfate (1:1)", "SR 25990C", "Clopidogrel hydrogen sulfate", "Clopidogrel bisulfate", "Plavix", "Clopidogrel hemisulfate", "Iscover", "(S)-(+)-Methyl (2-chlorophenyl)(6,7-dihydro-4H-thieno[3,2-c]pyrid-5-yl)acetate bisulfate", "(S)-(+)-Methyl 2-(2-chlorophenyl)-2-(6,7-dihydro-4H-thieno[3,2-c]pyridin-5-yl)acetate hydrogen sulfate", "Methyl (S)-(4,5,6,7-tetrahydrothieno[3,2-c]pyridin-5-yl)(2-chlorophenyl)ethanoate hydrogen sulfate", "(S)-(+)-Clopidogrel hydrogen sulfate", "Myogrel", "Stroka", "Clopidogrel sulfate", "Plavitor", "(+)-(S)-5-[(2-Chlorophenyl)(methoxycarbonyl)methyl]-4,5,6,7-tetrahydrothieno[3,2-c]-pyridin-5-ium hydrogen sulfate]", "Clopidix", "Areplex", "Trombex", "Zyllt"], "SMILES": "S(=O)(=O)(O)O.C(C(OC)=O)(N1CC2=C(CC1)SC=C2)C3=C(Cl)C=CC=C3", "physical_data": {"Molecular Weight": "", "Molecular Formula": "C16H16ClNO2S.H2O4S", "Melting Point": "184 \u00b0C"}}