{"cas_no": "1202-39-7", "cn_name": "3,4-\u4e8c\u6c2f\u8089\u6842\u9178", "en_name": ["3,4-Dichlorocinnamic acid", "2-Propenoic acid, 3-(3,4-dichlorophenyl)-", "Cinnamic acid, 3,4-dichloro-", "3-(3,4-Dichlorophenyl)-2-propenoic acid", "3,4-Dichlorocinnamic acid", "NSC 518800", "3-(3,4-Dichlorophenyl)acrylic acid"], "SMILES": "C(=CC(O)=O)C1=CC(Cl)=C(Cl)C=C1", "physical_data": {"Molecular Weight": "217.05", "Molecular Formula": "C9H6Cl2O2", "Melting Point": "217.2-218.2 \u00b0C"}}