{"cas_no": "120279-26-7", "cn_name": "5,6-\u4e8c\u6c22-4-\u7f9f\u57fa-6-\u7532\u57fa-4H-\u567b\u5429\u5e76[2,3-b]\u567b\u5583-2-\u78fa\u9170\u80fa 7,7-\u4e8c\u6c27\u5316\u7269", "en_name": ["4H-Thieno[2,3-b]thiopyran-2-sulfonamide, 5,6-dihydro-4-hydroxy-6-methyl-, 7,7-dioxide", "4H-Thieno[2,3-b]thiopyran-2-sulfonamide, 5,6-dihydro-4-hydroxy-6-methyl-, 7,7-dioxide"], "SMILES": "O=S1(=O)C2=C(C=C(S(N)(=O)=O)S2)C(O)CC1C", "physical_data": {"Molecular Weight": "297.37", "Molecular Formula": "C8H11NO5S3", "Melting Point": "195-197 \u00b0C"}}