{"cas_no": "12024-21-4", "cn_name": "\u6c27\u5316\u9553", "en_name": ["Gallium sesquioxide", "Gallium oxide (Ga2O3)", "Digallium trioxide", "Gallium sesquioxide", "Gallium trioxide", "Gallium(3+) oxide", "Gallia", "Gallium oxide (2:3)", "Gallium oxide", "Gallium oxide (GaO1.5)"], "SMILES": "", "physical_data": {"Molecular Weight": "", "Molecular Formula": "Ga2O3", "Melting Point": "1740 \u00b0C"}}