{"cas_no": "12025-34-2", "cn_name": "\u4e8c\u786b\u5316\u9517", "en_name": ["Germanium sulfide (GeS2)", "Germanium sulfide (GeS2)", "Germanium sulfide (Ge0.33S0.67)", "Germanium disulfide"], "SMILES": "[Ge](=S)=S", "physical_data": {"Molecular Weight": "136.77", "Molecular Formula": "GeS2", "Melting Point": "825 \u00b0C", "Density": "2.34 g/cm\u00b3"}}