{"cas_no": "12022-95-6", "cn_name": "\u7845\u5316\u94c1", "en_name": ["Iron silicide (FeSi)", "Iron silicide (FeSi)", "Iron monosilicide", "Iron silicide (Fe0.5Si0.5)"], "SMILES": "[Fe]#[Si]", "physical_data": {"Molecular Weight": "", "Molecular Formula": "FeSi", "Melting Point": "1410 \u00b0C"}}