{"cas_no": "1202-25-1", "cn_name": "4-\u4e8c\u7532\u6c28\u57fa\u82ef\u7532\u9178\u7532\u916f", "en_name": ["Methyl 4-(dimethylamino)benzoate", "Benzoic acid, 4-(dimethylamino)-, methyl ester", "Benzoic acid, p-(dimethylamino)-, methyl ester", "Methyl 4-(dimethylamino)benzoate", "Methyl p-(dimethylamino)benzoate", "Methyl 4-(N,N-dimethylamino)benzoate", "4-Methoxycarbonyl-N,N-dimethylaniline"], "SMILES": "C(OC)(=O)C1=CC=C(N(C)C)C=C1", "physical_data": {"Molecular Weight": "179.22", "Molecular Formula": "C10H13NO2", "Melting Point": "100 \u00b0C"}}