{"cas_no": "1202-04-6", "cn_name": "\u5432\u54da-2-\u7fa7\u9178\u7532\u916f", "en_name": ["Methyl 1H-indole-2-carboxylate", "1H-Indole-2-carboxylic acid, methyl ester", "Indole-2-carboxylic acid, methyl ester", "Methyl 2-indolecarboxylate", "2-(Methoxycarbonyl)indole", "Methyl 1H-indole-2-carboxylate", "NSC 78006"], "SMILES": "C(OC)(=O)C1=CC=2C(N1)=CC=CC2", "physical_data": {"Molecular Weight": "175.18", "Molecular Formula": "C10H9NO2", "Melting Point": "150.0-151.3 \u00b0C"}}