{"cas_no": "12024-24-7", "cn_name": "\u7852\u5316\u9553(III)", "en_name": ["Gallium selenide (Ga2Se3)", "Gallium selenide (Ga2Se3)", "Digallium triselenide", "Gallium sesquiselenide", "Gallium(3+) selenide"], "SMILES": "[Ga].[Se]", "physical_data": {"Molecular Weight": "", "Molecular Formula": "Ga.Se", "Melting Point": "1020 \u00b0C", "Density": "4.83 g/cm\u00b3"}}