{"cas_no": "12024-22-5", "cn_name": "\u4e09\u786b\u5316\u4e8c\u9553", "en_name": ["Gallium sulfide (Ga2S3)", "Gallium sulfide (Ga2S3)", "Gallium sesquisulfide", "Gallium(3+) sulfide", "Digallium trisulfide"], "SMILES": "[Ga].[S]", "physical_data": {"Molecular Weight": "", "Molecular Formula": "Ga.S", "Melting Point": "978 \u00b0C"}}