{"cas_no": "1202-34-2", "cn_name": "2,2'-\u4e8c\u5421\u5576\u80fa", "en_name": ["2,2\u2032-Dipyridylamine", "2-Pyridinamine, N-2-pyridinyl-", "Pyridine, 2,2\u2032-iminodi-", "N-2-Pyridinyl-2-pyridinamine", "2,2\u2032-Dipyridylamine", "Di-2-pyridylamine", "2,2\u2032-Bipyridylamine", "Di-\u03b1-pyridylamine", "2,2\u2032-Iminodipyridine", "Bis(2-pyridyl)amine", "2-(2-Pyridylamino)pyridine", "Bis(o-pyridyl)amine", "NSC 7494", "Bis(pyridin-2-yl)amine", "Dipyridin-2-ylamine"], "SMILES": "N(C1=CC=CC=N1)C2=CC=CC=N2", "physical_data": {"Molecular Weight": "171.20", "Molecular Formula": "C10H9N3", "Boiling Point": "307.5 \u00b0C", "Melting Point": "90.5 \u00b0C"}}