{"cas_no": "12027-06-4", "cn_name": "\u7898\u5316\u94f5", "en_name": ["Ammonium iodide", "Ammonium iodide ((NH4)I)", "Ammonium iodide"], "SMILES": "I[NH4]", "physical_data": {"Molecular Weight": "144.94", "Molecular Formula": "H4IN", "Melting Point": "551 \u00b0C", "Density": "2.514 g/cm\u00b3 @ Temp: 25 \u00b0C"}}