{"cas_no": "120210-48-2", "cn_name": "\u66ff\u5c3c\u8fbe\u666e", "en_name": ["Tenidap", "1H-Indole-1-carboxamide, 5-chloro-2,3-dihydro-3-(hydroxy-2-thienylmethylene)-2-oxo-, (3Z)-", "1H-Indole-1-carboxamide, 5-chloro-2,3-dihydro-3-(hydroxy-2-thienylmethylene)-2-oxo-, (Z)-", "(3Z)-5-Chloro-2,3-dihydro-3-(hydroxy-2-thienylmethylene)-2-oxo-1H-indole-1-carboxamide", "CP 66248", "Tenidap"], "SMILES": "C(O)(=C1C=2C(N(C(N)=O)C1=O)=CC=C(Cl)C2)C3=CC=CS3", "physical_data": {"Molecular Weight": "320.75", "Molecular Formula": "C14H9ClN2O3S", "Melting Point": "230 \u00b0C (decomp)"}}