{"cas_no": "12025-39-7", "cn_name": "\u78b2\u5316\u9517", "en_name": ["Germanium telluride (GeTe)", "Germanium telluride (GeTe)", "Germanous telluride", "Germanium monotelluride", "Germanium telluride", "Germanium telluride (Ge0.5Te0.5)"], "SMILES": "[Ge]=[Te]", "physical_data": {"Molecular Weight": "", "Molecular Formula": "GeTe", "Melting Point": "725 \u00b0C", "Density": "6.2 g/cm\u00b3"}}