{"cas_no": "120221-14-9", "cn_name": "2-\u6c2f-4-\u785d\u57fa\u82ef\u57fa-BETA-\u8461\u8404\u7cd6\u5421\u5583\u7cd6\u82f7", "en_name": ["2-Chloro-4-nitrophenyl \u03b2-D-glucopyranoside", "\u03b2-D-Glucopyranoside, 2-chloro-4-nitrophenyl", "2-Chloro-4-nitrophenyl \u03b2-D-glucopyranoside", "2\u2032-Chloro-4\u2032-nitrophenyl \u03b2-D-glucopyranoside"], "SMILES": "O(C1OC(CO)C(O)C(O)C1O)C2=C(Cl)C=C(N(=O)=O)C=C2", "physical_data": {"Molecular Weight": "335.69", "Molecular Formula": "C12H14ClNO8", "Melting Point": "181-183 \u00b0C"}}