{"cas_no": "12024-11-2", "cn_name": "\u7852\u5316\u9553", "en_name": ["Gallium selenide (GaSe)", "Gallium selenide (GaSe)", "Gallium monoselenide", "Gallium selenide", "Gallium monoselenide (GaSe)"], "SMILES": "[Ga]=[Se]", "physical_data": {"Molecular Weight": "", "Molecular Formula": "GaSe", "Melting Point": "938 \u00b0C"}}