{"cas_no": "1202-66-0", "cn_name": "N-\u4e59\u9170\u57fa\u916a\u80fa", "en_name": ["N-Acetyltyramine", "Acetamide, N-[2-(4-hydroxyphenyl)ethyl]-", "Acetamide, N-(p-hydroxyphenethyl)-", "N-[2-(4-Hydroxyphenyl)ethyl]acetamide", "N-Acetyltyramine", "Tyramine, N-acetyl-", "N-(4-Hydroxyphenethyl)acetamide"], "SMILES": "C(CNC(C)=O)C1=CC=C(O)C=C1", "physical_data": {"Molecular Weight": "179.22", "Molecular Formula": "C10H13NO2", "Melting Point": "169 \u00b0C"}}