{"cas_no": "1203-68-5", "cn_name": "\u8054\u82ef-2-\u7532\u919b", "en_name": ["[1,1\u2032-Biphenyl]-2-carboxaldehyde", "[1,1\u2032-Biphenyl]-2-carboxaldehyde", "2-Biphenylcarboxaldehyde", "2-Phenylbenzaldehyde", "2-Formyl-1,1\u2032-biphenyl", "2-Formylbiphenyl", "o-Formylphenyl benzene", "o-Phenylbenzaldehyde", "[1,1\u2032-Biphenyl]-2-carbaldehyde", "Biphenyl-2-carbaldehyde"], "SMILES": "C(=O)C1=C(C=CC=C1)C2=CC=CC=C2", "physical_data": {"Molecular Weight": "182.22", "Molecular Formula": "C13H10O", "Boiling Point": "150 \u00b0C @ Press: 7 Torr", "Melting Point": "202 \u00b0C"}}