{"cas_no": "12039-87-1", "cn_name": "\u7845\u5316\u9492", "en_name": ["Vanadium silicide (VSi2)", "Vanadium silicide (VSi2)", "Vanadium disilicide", "Monovanadium disilicide", "Vanadium disilicide (VSi2)"], "SMILES": "[V](#[Si])#[Si]", "physical_data": {"Molecular Weight": "", "Molecular Formula": "Si2V", "Melting Point": "1677 \u00b0C"}}