{"cas_no": "12031-83-3", "cn_name": "\u9506\u9178\u9502", "en_name": ["Zirconate (ZrO32-), lithium (1:2)", "Zirconate (ZrO32-), lithium (1:2)", "Lithium zirconium oxide (Li2ZrO3)", "Zirconate (ZrO32-), dilithium", "Lithium zirconate(IV) (Li2ZrO3)", "Zirconium lithium oxide (Li2ZrO3)", "Lithium zirconate (Li2ZrO3)", "Dilithium zirconium trioxide"], "SMILES": "[Zr-2](=O)(=O)=O.[Li+]", "physical_data": {"Molecular Weight": "", "Molecular Formula": "Li.<sup>1</sup>/2O3Zr", "Melting Point": "720 \u00b0C"}}