{"cas_no": "12032-88-1", "cn_name": "\u78b2\u5316\u9530", "en_name": ["Manganese telluride (MnTe)", "Manganese telluride (MnTe)", "Manganous telluride", "Manganese monotelluride", "Manganese(II) telluride", "Manganese telluride (Mn0.50Te0.50)", "Manganese(2+) telluride"], "SMILES": "[Mn]=[Te]", "physical_data": {"Molecular Weight": "", "Molecular Formula": "MnTe", "Melting Point": "1177 \u00b0C"}}