{"cas_no": "120351-90-8", "cn_name": "2-(2-\u6c1f\u82ef\u6c27\u57fa)-1-\u4e59\u80fa", "en_name": ["2-(2-Fluorophenoxy)ethanamine", "Ethanamine, 2-(2-fluorophenoxy)-", "2-(2-Fluorophenoxy)ethanamine", "2-(2-Fluorophenoxy)ethylamine", "1-(2-Aminoethoxy)-2-fluorobenzene", "2-(2-Fluorophenoxy)ethan-1-amine"], "SMILES": "O(CCN)C1=C(F)C=CC=C1", "physical_data": {"Molecular Weight": "155.17", "Molecular Formula": "C8H10FNO", "Boiling Point": "104-105 \u00b0C @ Press: 10 Torr"}}