{"cas_no": "12034-09-2", "cn_name": "\u94cc\u9178\u94a0", "en_name": ["Sodium niobate (NaNbO3)", "Niobium sodium oxide (NbNaO3)", "Niobium sodium oxide (NaNbO3)", "Sodium niobate(V) (NaNbO3)", "Sodium niobium oxide (NaNbO3)", "Sodium niobate (NaNbO3)"], "SMILES": "[Nb].[Na].[O]", "physical_data": {"Molecular Weight": "", "Molecular Formula": "Na.Nb.O", "Melting Point": "1422 \u00b0C"}}