{"cas_no": "12030-88-5", "cn_name": "\u8fc7\u6c27\u5316\u94be", "en_name": ["Potassium superoxide", "Potassium superoxide (K(O2))", "Potassium superoxide", "Potassium dioxide", "Potassium oxide (KO2)"], "SMILES": "[O-]([K+])=O", "physical_data": {"Molecular Weight": "", "Molecular Formula": "KO2", "Melting Point": "490-530 \u00b0C"}}