{"cas_no": "12030-85-2", "cn_name": "\u94cc\u9178\u94be", "en_name": ["Niobium potassium oxide (NbKO3)", "Niobium potassium oxide (NbKO3)", "Niobium potassium oxide (KNbO3)", "Niobate (NbO31-), potassium", "Potassium niobate(V) (KNbO3)", "Potassium niobium oxide (KNbO3)", "Potassium niobate (KNbO3)", "Potassium niobium trioxide", "Potassium metaniobate (KNbO3)"], "SMILES": "[Nb].[K].[O]", "physical_data": {"Molecular Weight": "", "Molecular Formula": "K.Nb.O", "Melting Point": "1100 \u00b0C"}}