{"cas_no": "1203-24-3", "cn_name": "N-(\u90bb\u6c2f\u82ef\u57fa)\u9a6c\u6765\u9178", "en_name": ["(o-Chlorophenyl)maleimide", "1H-Pyrrole-2,5-dione, 1-(2-chlorophenyl)-", "Maleimide, N-(o-chlorophenyl)-", "1-(2-Chlorophenyl)-1H-pyrrole-2,5-dione", "N-(o-Chlorophenyl)maleimide", "N-(2-Chlorophenyl)maleimide", "(o-Chlorophenyl)maleimide", "1-(2-Chlorophenyl)pyrrole-2,5-dione", "1-(2-Chlorophenyl)-2,5-dihydro-1H-pyrrole-2,5-dione"], "SMILES": "O=C1N(C(=O)C=C1)C2=C(Cl)C=CC=C2", "physical_data": {"Molecular Weight": "207.61", "Molecular Formula": "C10H6ClNO2", "Boiling Point": "137-144 \u00b0C @ Press: 0.9 Torr", "Melting Point": "59-60 \u00b0C"}}