{"cas_no": "12031-66-2", "cn_name": "\u94bd\u9178\u9502", "en_name": ["Lithium tantalum oxide (LiTaO3)", "Lithium tantalum oxide (LiTaO3)", "Lithium tantalate(V) (LiTaO3)", "Tantalate (TaO31-), lithium", "Tantalum lithium oxide (LiTaO3)", "Lithium tantalate (LiTaO3)", "Lithium tantalate", "Lithium tantalum oxide"], "SMILES": "[Li].[Ta].[O]", "physical_data": {"Molecular Weight": "", "Molecular Formula": "Li.O.Ta", "Melting Point": "1562 \u00b0C"}}