{"cas_no": "12039-88-2", "cn_name": "\u7845\u5316\u94a8", "en_name": ["Tungsten silicide (WSi2)", "Tungsten silicide (WSi2)", "Tungsten disilicide", "Tungsten disilicide (WSi2)", "Tungsten silicide"], "SMILES": "[W](#[Si])#[Si]", "physical_data": {"Molecular Weight": "", "Molecular Formula": "Si2W", "Melting Point": "2065 \u00b0C", "Density": "9.88 g/cm\u00b3"}}