{"cas_no": "12031-63-9", "cn_name": "\u94cc\u9178\u9502", "en_name": ["Lithium niobium oxide (LiNbO3)", "Lithium niobium oxide (LiNbO3)", "Niobate (NbO31-), lithium", "Lithium niobate(V) (LiNbO3)", "Lithium niobium trioxide", "Lithium niobate", "Lithium niobate (LiNbO3)", "Lithium metaniobate", "LN", "Lithium niobium oxide (Li0.67Nb0.67O2)"], "SMILES": "", "physical_data": {"Molecular Weight": "", "Molecular Formula": "LiNbO3", "Melting Point": "1267 \u00b0C", "Density": "&gt;4.22 g/cm\u00b3"}}