{"cas_no": "12030-24-9", "cn_name": "\u786b\u5316\u94df", "en_name": ["Indium sulfide (In2S3)", "Indium sulfide (In2S3)", "Indium sesquisulfide", "Indium(3+) sulfide", "Indium sulfide (2:3)"], "SMILES": "", "physical_data": {"Molecular Weight": "", "Molecular Formula": "In2S3", "Melting Point": "1050 \u00b0C"}}