{"cas_no": "12036-22-5", "cn_name": "\u4e8c\u6c27\u5316\u94a8", "en_name": ["Tungsten oxide (WO2)", "Tungsten oxide (WO2)", "Tungsten dioxide", "Tungsten oxide (O2W)", "Tungsten(IV) oxide", "JCPDS 71-614"], "SMILES": "[W](=O)=O", "physical_data": {"Molecular Weight": "", "Molecular Formula": "O2W", "Melting Point": "1500-1600 \u00b0C"}}