{"cas_no": "12035-72-2", "cn_name": "\u786b\u5316\u954d", "en_name": ["Nickel sulfide (Ni3S2)", "Nickel sulfide (Ni3S2)", "Nickel subsulfide", "Nickel subsulfide (Ni3S2)", "Trinickel disulfide", "Nickel sesquisulfide"], "SMILES": "", "physical_data": {"Molecular Weight": "", "Molecular Formula": "Ni3S2", "Melting Point": "787 \u00b0C", "Density": "5.87 g/cm\u00b3"}}