{"cas_no": "12047-27-7", "cn_name": "\u949b\u9178\u94a1", "en_name": ["Barium titanate", "Barium titanium oxide (BaTiO3)", "Barium titanate(IV) (BaTiO3)", "VK 4", "Barium titanate", "Barium metatitanate (BaTiO3)", "Barium titanium trioxide", "VK 4 (oxide)", "Barium metatitanate", "Titanate (TiO32-) barium (1:1)", "BT 204", "YV 100AN", "BT 303", "BT 201", "HPBT 1", "HBT 3", "Barium titanium oxide", "BT 203", "Titanium barium oxide (TiBaO3)", "Titanium barium oxide", "Kyorix BT-S", "N 220 (titanate)", "N 220", "N 5500", "BT 100P", "Tamtron X 7R302H", "Tamtron X 7R262L", "BT 10 (titanate)", "BT 10", "Barium titanate (BaTiO3)", "BT 206", "BT 100M", "Ticon 5016", "Transelco 219-3", "BT 05", "BT 05 (filler)", "TB 1", "BT 01", "BT-HP 8KB2", "BT 02", "Kyorix BT-HD 9DX", "BT-HD 9DX", "Nova Chem AB", "BT 8", "BT 16", "BT 03", "BT 8 (oxide)", "Tamtron X 7R412H", "BT 04", "HPB (titanate)", "HPB", "BT 100PR", "BT 325", "BT 335", "Transtech D 50", "BT 325 (titanate)", "Ticon HBP", "BT 100T", "BT 5100", "K-Plus 16", "BT-HP 9DX", "SB 05", "BT-SA", "MBRT 95", "BT 07", "YT 51", "BT-HP 8YF", "XJ 4000", "CFPI", "BTZ 09", "HPB 1000", "5622ON01", "T-BTO 020RF", "BT 04A", "T-BTO 010RF", "BTO 30", "BT-HP 100", "Nanometer Grade", "HBT 3S", "467634-100G", "TB 0-030R", "BTO 150S02", "BT-S", "NanoAmor 1150XW", "BT-HP 3", "T-BTO 030R", "Palceram BT", "BTO 1", "BTO 020", "Palceram BT 4", "HPBT 1B", "BT-UP 1", "BT 005", "Palceram AKBT-S", "T-BTO 50RF", "DBT 301", "BT NB1X04", "T BTO 030RF", "T BTO 050RF", "T BTO 100RF", "BT 300", "BT-HP 150", "BT-TO 020RF", "KZM 50", "Palceram BT-UP 2", "HBT 010", "T-BTO 100RK", "T-BTO 155RK", "T-BTO 200", "T-BTO 300", "PBT 0.5", "BT9DX-400", "BTD-UP", "BT-UP 2", "B PARCELAM BTUP-2", "BT 03B", "YH 1220", "BT-HP 9DH", "BTC 4FA", "AKBT-M", "SBT 050", "PBT 03", "HW-M 575", "HBPT 01", "HF 90D", "BST 101", "BST 111", "ZL 9000", "XF 117", "BT 3003", "Palceram BTE-UP", "Palceram BTC 4FB", "Titanate(2-), trioxo-, barium (1:1)"], "SMILES": "", "physical_data": {"Molecular Weight": "", "Molecular Formula": "BaO3Ti", "Melting Point": "1580 \u00b0C", "Density": "5.98 g/cm\u00b3"}}