{"cas_no": "1204-75-7", "cn_name": "3-\u7f9f\u57fa-2-\u55b9\u5594\u5549\u7fa7\u9178", "en_name": ["3,4-Dihydro-3-oxo-2-quinoxalinecarboxylic acid", "2-Quinoxalinecarboxylic acid, 3,4-dihydro-3-oxo-", "2-Quinoxalinecarboxylic acid, 3-hydroxy-", "3,4-Dihydro-3-oxo-2-quinoxalinecarboxylic acid", "3-Hydroxyquinoxaline-2-carboxylic acid", "NSC 34263", "3-Oxo-3,4-dihydroquinoxaline-2-carboxylic acid", "3-Oxo-4H-quinoxaline-2-carboxylic acid"], "SMILES": "C(O)(=O)C1=NC=2C(NC1=O)=CC=CC2", "physical_data": {"Molecular Weight": "190.16", "Molecular Formula": "C9H6N2O3", "Melting Point": "263-265 \u00b0C (decomp)"}}