{"cas_no": "1204-60-0", "cn_name": "3-\u82ef\u57fa\u82ef\u7532\u919b", "en_name": ["[1,1\u2032-Biphenyl]-3-carboxaldehyde", "[1,1\u2032-Biphenyl]-3-carboxaldehyde", "3-Biphenylcarboxaldehyde", "3-Phenylbenzaldehyde", "3-Formylbiphenyl", "m-Formylphenyl benzene", "Biphenyl-3-carbaldehyde", "3-Formyl-1,1\u2032-biphenyl"], "SMILES": "C(=O)C=1C=C(C=CC1)C2=CC=CC=C2", "physical_data": {"Molecular Weight": "182.22", "Molecular Formula": "C13H10O", "Boiling Point": "187-188 \u00b0C @ Press: 21 Torr", "Melting Point": "167-168 \u00b0C"}}