{"cas_no": "1204-21-3", "cn_name": "2-\u6eb4-2',5'-\u4e8c\u7532\u6c27\u57fa\u82ef\u4e59\u916e", "en_name": ["2-Bromo-2\u2032,5\u2032-dimethoxyacetophenone", "Ethanone, 2-bromo-1-(2,5-dimethoxyphenyl)-", "Acetophenone, 2-bromo-2\u2032,5\u2032-dimethoxy-", "2-Bromo-1-(2,5-dimethoxyphenyl)ethanone", "2-Bromo-2\u2032,5\u2032-dimethoxyacetophenone", "\u03b1-Bromo-2,5-dimethoxyacetophenone", "2,5-Dimethoxyphenacyl bromide", "\u03c9-Bromo-2,5-dimethoxyacetophenone", "2-Bromo-1-(2,5-dimethoxyphenyl)ethan-1-one"], "SMILES": "C(CBr)(=O)C1=C(OC)C=CC(OC)=C1", "physical_data": {"Molecular Weight": "259.10", "Molecular Formula": "C10H11BrO3", "Melting Point": "84-85 \u00b0C"}}