{"cas_no": "1204-23-5", "cn_name": "1-\u7532\u57fa-7-\u7532\u6c27\u57fa-2-\u8418\u6ee1\u916e", "en_name": ["1-Methyl-7-methoxy-2-tetralone", "2(1H)-Naphthalenone, 3,4-dihydro-7-methoxy-1-methyl-", "3,4-Dihydro-7-methoxy-1-methyl-2(1H)-naphthalenone", "1-Methyl-7-methoxy-2-tetralone", "1-Methyl-7-methoxy-3,4-dihydro-2(1H)-naphthalenone", "7-Methoxy-1-methyl-2-tetralone", "1-Methyl-7-methoxy-\u03b2-tetralone"], "SMILES": "CC1C=2C(=CC=C(OC)C2)CCC1=O", "physical_data": {"Molecular Weight": "190.24", "Molecular Formula": "C12H14O2", "Boiling Point": "125-126 \u00b0C @ Press: 0.8 Torr"}}