{"cas_no": "1204-78-0", "cn_name": "4'-\u7532\u57fa-[1,1'-\u8054\u82ef]-4-\u80fa", "en_name": ["4\u2032-Methyl[1,1\u2032-biphenyl]-4-amine", "[1,1\u2032-Biphenyl]-4-amine, 4\u2032-methyl-", "4-Biphenylamine, 4\u2032-methyl-", "4\u2032-Methyl[1,1\u2032-biphenyl]-4-amine", "4-Amino-4\u2032-methylbiphenyl", "4\u2032-Methylbiphenyl-4-ylamine", "4-(4-Tolyl)benzenamine", "4\u2032-Methyl-1,1\u2032-biphenyl-4-amine", "4-Amino-4\u2032-methyl-1,1\u2032-biphenyl", "4\u2032-Methylbiphenyl-4-amine", "4-(4-Methylphenyl)aniline", "4-(p-Methylphenyl)aniline"], "SMILES": "CC1=CC=C(C=C1)C2=CC=C(N)C=C2", "physical_data": {"Molecular Weight": "183.25", "Molecular Formula": "C13H13N", "Boiling Point": "160-163 \u00b0C @ Press: 5 Torr", "Melting Point": "98-99 \u00b0C"}}