{"cas_no": "12045-63-5", "cn_name": "\u4e8c\u787c\u5316\u949b", "en_name": ["Titanium diboride", "Titanium boride (TiB2)", "Titanium diboride", "Titanium boride", "TiBX", "Ceralloy 225", "Titanium boride (Ti8B16)"], "SMILES": "[Ti](#B)#B", "physical_data": {"Molecular Weight": "", "Molecular Formula": "B2Ti", "Melting Point": "2850-2900 \u00b0C", "Density": "4.52 g/cm\u00b3"}}