{"cas_no": "12045-64-6", "cn_name": "\u787c\u5316\u9506", "en_name": ["Zirconium diboride", "Zirconium boride (ZrB2)", "Zirconium diboride", "Zirconium boride", "ZB-MOD", "Ceraborex", "Ceraborex CR"], "SMILES": "[Zr](#B)#B", "physical_data": {"Molecular Weight": "", "Molecular Formula": "B2Zr", "Melting Point": "3040 \u00b0C", "Density": "6.119 g/cm\u00b3 @ Temp: Room temp"}}