{"cas_no": "1204-86-0", "cn_name": "4-(4-\u5417\u5549)\u82ef\u7532\u919b", "en_name": ["4-Morpholinobenzaldehyde", "Benzaldehyde, 4-(4-morpholinyl)-", "Benzaldehyde, p-morpholino-", "4-(4-Morpholinyl)benzaldehyde", "4-Morpholinobenzaldehyde", "p-Morpholinobenzaldehyde", "N-(4-Formylphenyl)morpholine", "NSC 156543"], "SMILES": "C(=O)C1=CC=C(C=C1)N2CCOCC2", "physical_data": {"Molecular Weight": "191.23", "Molecular Formula": "C11H13NO2", "Melting Point": "63 \u00b0C"}}