{"cas_no": "12040-02-7", "cn_name": "\u78b2\u5316\u9521(II)", "en_name": ["Tin telluride (SnTe)", "Tin telluride (SnTe)", "Stannous telluride", "Tin monotelluride", "Tin telluride", "Tin(2+) telluride"], "SMILES": "[Sn]=[Te]", "physical_data": {"Molecular Weight": "", "Molecular Formula": "SnTe", "Melting Point": "780 \u00b0C", "Density": "6.02 g/cm\u00b3"}}