{"cas_no": "1204-28-0", "cn_name": "1,2,4-\u504f\u82ef\u4e09\u9178\u9150\u9170\u6c2f", "en_name": ["Trimellitic anhydride chloride", "5-Isobenzofurancarbonyl chloride, 1,3-dihydro-1,3-dioxo-", "Phthalic anhydride, 4-(chloroformyl)-", "1,3-Dihydro-1,3-dioxo-5-isobenzofurancarbonyl chloride", "Trimellitic anhydride monoacid chloride", "Trimellitic anhydride chloride", "4-(Chloroformyl)phthalic anhydride", "Trimellitic anhydride acid chloride", "4-(Chlorocarbonyl)phthalic anhydride", "Trimellitic acid anhydride 4-monoacid chloride", "1,3-Benzofurandione-5-carbonyl chloride", "Trimellitic acid anhydride chloride", "Anhydrotrimellitic acid chloride", "Trimellitic anhydride monochloride", "1,3-Dioxo-1,3-dihydro-2-benzofuran-5-carbonyl chloride", "NSC 89728", "1,3-Dioxo-2-benzofuran-5-carbonyl chloride", "1,3-Dioxo-1,3-dihydro-isobenzofuran-5-carbonyl chloride"], "SMILES": "O=C1C=2C(C(=O)O1)=CC=C(C(Cl)=O)C2", "physical_data": {"Molecular Weight": "210.57", "Molecular Formula": "C9H3ClO4", "Boiling Point": "162-164 \u00b0C @ Press: 1 Torr", "Melting Point": "68 \u00b0C"}}