{"cas_no": "1204-06-4", "cn_name": "3-\u5432\u54da\u4e19\u70ef\u9178", "en_name": ["Indole-3-acrylic acid", "2-Propenoic acid, 3-(1H-indol-3-yl)-", "Indole-3-acrylic acid", "3-(1H-Indol-3-yl)-2-propenoic acid", "3-Indolylacrylic acid", "Indoleacrylic acid", "3-\u03b2-Indoleacrylic acid", "3-(3-Indolyl)acrylic acid", "3-(1H-Indol-3-yl)acrylic acid", "NSC 137806", "NSC 29428", "NSC 612862", "3-(Indol-3-yl)prop-2-enoic acid"], "SMILES": "C(=CC(O)=O)C=1C=2C(NC1)=CC=CC2", "physical_data": {"Molecular Weight": "187.19", "Molecular Formula": "C11H9NO2", "Melting Point": "195-196 \u00b0C"}}