{"cas_no": "1204-44-0", "cn_name": "4'-\u6c2f-2-\u6c28\u57fa\u8054\u82ef", "en_name": ["4\u2032-Chloro[1,1\u2032-biphenyl]-2-amine", "[1,1\u2032-Biphenyl]-2-amine, 4\u2032-chloro-", "2-Biphenylamine, 4\u2032-chloro-", "4\u2032-Chloro[1,1\u2032-biphenyl]-2-amine", "2-Amino-4\u2032-chlorobiphenyl", "NSC 95712", "4\u2032-Chlorobiphenyl-2-ylamine", "2-(4-Chlorophenyl)aniline", "2-Amino-4\u2032-chloro-1,1\u2032-biphenyl"], "SMILES": "NC1=C(C2=CC=C(Cl)C=C2)C=CC=C1", "physical_data": {"Molecular Weight": "203.67", "Molecular Formula": "C12H10ClN", "Melting Point": "71 \u00b0C"}}