{"cas_no": "1204-79-1", "cn_name": "4'-\u6c28\u57fa-4-\u8054\u82ef\u915a", "en_name": ["4\u2032-Amino[1,1\u2032-biphenyl]-4-ol", "[1,1\u2032-Biphenyl]-4-ol, 4\u2032-amino-", "4-Biphenylol, 4\u2032-amino-", "Phenol, p-(p-aminophenyl)-", "4\u2032-Amino[1,1\u2032-biphenyl]-4-ol", "4-Amino-4\u2032-hydroxybiphenyl", "4\u2032-Amino-4-biphenylol", "4-(4-Aminophenyl)phenol", "4\u2032-Hydroxy-4-aminobiphenyl"], "SMILES": "NC1=CC=C(C=C1)C2=CC=C(O)C=C2", "physical_data": {"Molecular Weight": "185.22", "Molecular Formula": "C12H11NO", "Melting Point": "271.5 \u00b0C"}}