{"cas_no": "12054-85-2", "cn_name": "\u94bc\u9178\u94f5", "en_name": ["Ammonium molybdate ((NH4)6Mo7O24) tetrahydrate", "Molybdate (Mo7O246-), ammonium, hydrate (1:6:4)", "Molybdic acid (H6Mo7O24), hexaammonium salt, tetrahydrate", "Ammonium molybdate tetrahydrate [(NH4)6Mo7O24.4H2O]", "Ammonium heptamolybdate ((NH4)6Mo7O24) tetrahydrate", "Ammonium molybdate ((NH4)6Mo7O24) tetrahydrate", "Ammonium molybdate [(NH4)6Mo7O27.4H2O]", "Ammonium molybdate hydrate ((NH4)6Mo7O24.4H2O)", "Ammonium paramolybdate tetrahydrate", "Hexaammonium heptamolybdate tetrahydrate", "Ammonium molybdate tetrahydrate"], "SMILES": "O=[Mo+2]123(=O)[O-]45[Mo]6789[O-]%10%11[Mo+2](=O)(=O)([O-]61)([O-2]2)[O-2][Mo+2]%10(=O)(=O)([O-]7)[O-2][Mo+2]%11%12(=O)(=O)[O-]8[Mo+2]4(=O)(=O)([O-2]%12)[O-2][Mo+2]5(=O)(=O)([O-]9)[O-2]3.[NH4+].O", "physical_data": {"Molecular Weight": "", "Molecular Formula": "H4N.<sup>2</sup>/3H2O.<sup>1</sup>/6Mo7O24", "Melting Point": "~400 \u00b0C (decomp) (approx)"}}