{"cas_no": "120568-11-8", "cn_name": "5-[2-(4'-\u7532\u57fa\u8054\u82ef\u57fa)]\u56db\u5511", "en_name": ["5-(4\u2032-Methyl-1,1\u2032-biphenyl-2-yl)-1H-tetrazole", "2H-Tetrazole, 5-(4\u2032-methyl[1,1\u2032-biphenyl]-2-yl)-", "1H-Tetrazole, 5-(4\u2032-methyl[1,1\u2032-biphenyl]-2-yl)-", "5-(4\u2032-Methyl[1,1\u2032-biphenyl]-2-yl)-2H-tetrazole", "5-(4\u2032-Methylbiphenyl-2-yl)tetrazole", "5-[2-(4\u2032-Methylbiphenyl)]tetrazole", "2-(Tetrazol-5-yl)-4\u2032-methyl-1,1\u2032-biphenyl", "L 158507", "5-(4\u2032-Methyl-1,1\u2032-biphenyl-2-yl)-1H-tetrazole", "5-(4\u2032-Methyl-2-biphenyl)tetrazole", "5-(4\u2032-Methylbiphenyl-2-yl)-1H-tetrazole"], "SMILES": "CC1=CC=C(C2=C(C=CC=C2)C=3NN=NN3)C=C1", "physical_data": {"Molecular Weight": "236.27", "Molecular Formula": "C14H12N4", "Melting Point": "150 \u00b0C"}}