{"cas_no": "120511-73-1", "cn_name": "\u963f\u90a3\u66f2\u5511", "en_name": ["Anastrozole", "1,3-Benzenediacetonitrile, \u03b11,\u03b11,\u03b13,\u03b13-tetramethyl-5-(1H-1,2,4-triazol-1-ylmethyl)-", "1,3-Benzenediacetonitrile, \u03b1,\u03b1,\u03b1\u2032,\u03b1\u2032-tetramethyl-5-(1H-1,2,4-triazol-1-ylmethyl)-", "\u03b11,\u03b11,\u03b13,\u03b13-Tetramethyl-5-(1H-1,2,4-triazol-1-ylmethyl)-1,3-benzenediacetonitrile", "Anastrozole", "ZD 1033", "Arimidex", "ICI-D 1033", "Anastrol", "2-[3-(2-Cyano-2-propyl)-5-(1,2,4-triazol-1-ylmethyl)phenyl]-2-methylpropiononitrile", "2,2\u2032-[5-(1H-1,2,4-triazol-1-ylmethyl)-1,3-phenylene]di(2-methylpropionitrile)", "Anastrazole", "2-[3-(2-Cyanopropan-2-yl)-5-(1,2,4-triazol-1-ylmethyl)phenyl]-2-methylpropanenitrile", "2-[3-(1-Cyano-1-methylethyl)-5-[(1H-1,2,4-triazol-1-yl)methyl]phenyl]-2-methylpropanenitrile"], "SMILES": "C(C#N)(C)(C)C1=CC(C(C#N)(C)C)=CC(CN2C=NC=N2)=C1", "physical_data": {"Molecular Weight": "293.37", "Molecular Formula": "C17H19N5", "Melting Point": "81-82 \u00b0C"}}