{"cas_no": "1205-06-7", "cn_name": "4-\u4e59\u6c27\u7fb0\u57fa\u82ef\u57fa\u5f02\u786b\u6c30\u9178\u916f", "en_name": ["Benzoic acid, 4-isothiocyanato-, ethyl ester", "Benzoic acid, 4-isothiocyanato-, ethyl ester", "Benzoic acid, p-isothiocyanato-, ethyl ester", "4-Carbethoxyphenyl isothiocyanate", "4-(Ethoxycarbonyl)phenyl isothiocyanate", "p-Carbethoxyphenyl isothiocyanate", "Ethyl 4-isothiocyanatobenzoate", "NSC 294821", "4-Isothiocyanatobenzoic acid ethyl ester"], "SMILES": "C(OCC)(=O)C1=CC=C(N=C=S)C=C1", "physical_data": {"Molecular Weight": "207.25", "Molecular Formula": "C10H9NO2S", "Boiling Point": "123-127 \u00b0C @ Press: 0.1 Torr", "Melting Point": "98 \u00b0C"}}