{"cas_no": "1205-40-9", "cn_name": "N-\u82ef\u57fa-2-\u6c2f\u82ef\u80fa", "en_name": ["2-Chloro-N-phenylbenzenamine", "Benzenamine, 2-chloro-N-phenyl-", "Diphenylamine, 2-chloro-", "2-Chloro-N-phenylbenzenamine", "N-(o-Chlorophenyl)aniline", "2-Chlorodiphenylamine", "N-Phenyl-2-chloroaniline", "2-Chloro-N-phenylaniline"], "SMILES": "N(C1=C(Cl)C=CC=C1)C2=CC=CC=C2", "physical_data": {"Molecular Weight": "203.67", "Molecular Formula": "C12H10ClN", "Boiling Point": "174-175 \u00b0C @ Press: 12 Torr", "Melting Point": "15-16 \u00b0C"}}