{"cas_no": "1205-91-0", "cn_name": "\u5bf9\u4e8c\u4e59\u9170\u6c27\u57fa\u82ef", "en_name": ["1,4-Diacetoxybenzene", "1,4-Benzenediol, 1,4-diacetate", "Hydroquinone, diacetate", "1,4-Benzenediol, diacetate", "1,4-Diacetoxybenzene", "p-Acetoxyphenyl acetate", "p-Phenylene diacetate", "4-Acetoxyphenyl acetate", "1,4-Hydroquinone diacetate", "p-Dihydroxybenzene diacetate", "NSC 9277", "Benzene-1,4-diacetate", "p-Diacetoxybenzene", "(4-Acetyloxyphenyl) acetate", "Phenol, 4-[(1-methylethenyl)oxy]-, 1-acetate"], "SMILES": "O(C(C)=O)C1=CC=C(OC(C)=O)C=C1", "physical_data": {"Molecular Weight": "194.18", "Molecular Formula": "C10H10O4", "Melting Point": "123.5 \u00b0C"}}