{"cas_no": "120511-72-0", "cn_name": "\u4e94\u7532\u57fa-1,3-\u4e8c\u4e59\u6c30\u57fa\u82ef", "en_name": ["3,5-Bis(2-cyanoprop-2-yl)toluene", "1,3-Benzenediacetonitrile, \u03b11,\u03b11,\u03b13,\u03b13,5-pentamethyl-", "1,3-Benzenediacetonitrile, \u03b1,\u03b1,\u03b1\u2032,\u03b1\u2032,5-pentamethyl-", "\u03b11,\u03b11,\u03b13,\u03b13,5-Pentamethyl-1,3-benzenediacetonitrile", "2,2\u2032-(5-Methyl-1,3-phenylene)di(2-methylpropionitrile)", "3,5-Bis(2-cyanoprop-2-yl)toluene", "3,5-Bis(2-cyano-2-methylethyl)toluene", "2-[3-(Cyanodimethylmethyl)-5-methylphenyl]-2-methylpropionitrile", "2,2\u2032-(5-Methyl-1,3-phenylene)bis(2-methylpropanenitrile)", "2,2\u2032-(5-methylbenzene-1,3-diyl)bis(2-methylpropanenitrile)", "2-[3-(2-Cyanopropan-2-yl)-5-methylphenyl]-2-methylpropanenitrile"], "SMILES": "C(C#N)(C)(C)C1=CC(C(C#N)(C)C)=CC(C)=C1", "physical_data": {"Molecular Weight": "226.32", "Molecular Formula": "C15H18N2", "Melting Point": "124-129 \u00b0C"}}