{"cas_no": "12057-74-8", "cn_name": "\u78f7\u5316\u9541", "en_name": ["Magnesium phosphide (Mg3P2)", "Magnesium phosphide (Mg3P2)", "Detiaphos R", "Magtoxin", "Trimagnesium diphosphide", "Magnesium phosphide"], "SMILES": "[Mg].[P]", "physical_data": {"Molecular Weight": "", "Molecular Formula": "Mg.P", "Melting Point": "750 \u00b0C", "Density": "2.1 g/cm\u00b3"}}