{"cas_no": "1205-30-7", "cn_name": "4-\u6c2f-3-\u78fa\u9170\u80fa\u57fa\u82ef\u7532\u9178", "en_name": ["4-Chloro-3-sulfamoylbenzoic acid", "Benzoic acid, 3-(aminosulfonyl)-4-chloro-", "Benzoic acid, 4-chloro-3-sulfamoyl-", "3-(Aminosulfonyl)-4-chlorobenzoic acid", "4-Chloro-5-sulfamoylbenzoic acid", "3-Sulfamyl-4-chlorobenzoic acid", "3-Sulfamoyl-4-chlorobenzoic acid", "4-Chloro-3-sulfamoylbenzoic acid", "4-Chloro-3-(aminosulfonyl)benzoic acid"], "SMILES": "S(N)(=O)(=O)C1=CC(C(O)=O)=CC=C1Cl", "physical_data": {"Molecular Weight": "235.64", "Molecular Formula": "C7H6ClNO4S", "Melting Point": "260.5-262.0 \u00b0C"}}