{"cas_no": "120511-74-2", "cn_name": "5-\u7532\u57fa-1,3-\u82ef\u4e8c\u4e59\u8148", "en_name": ["(3-Cyanomethyl-5-methylphenyl)acetonitrile", "1,3-Benzenediacetonitrile, 5-methyl-", "5-Methyl-1,3-benzenediacetonitrile", "5-Methylbenzene-1,3-diacetonitrile", "(3-Cyanomethyl-5-methylphenyl)acetonitrile"], "SMILES": "C(C#N)C1=CC(CC#N)=CC(C)=C1", "physical_data": {"Molecular Weight": "170.21", "Molecular Formula": "C11H10N2", "Boiling Point": "224-225 \u00b0C @ Press: 14 Torr", "Melting Point": "73 \u00b0C"}}