{"cas_no": "1205-02-3", "cn_name": "N-\u82ef\u7532\u9170-DL-\u4e19\u6c28\u9178", "en_name": ["N-Benzoyl-DL-alanine", "Alanine, N-benzoyl-", "Alanine, N-benzoyl-, DL-", "N-Benzoylalanine", "Benzoyl-DL-alanine", "N-Benzoyl-DL-alanine", "DL-N-Benzoylalanine", "NSC 8069", "2-Benzamidopropanoic acid", "2-Benzoylamino-propionic acid", "2-(Phenylformamido)propanoic acid"], "SMILES": "C(NC(C(O)=O)C)(=O)C1=CC=CC=C1", "physical_data": {"Molecular Weight": "193.20", "Molecular Formula": "C10H11NO3", "Melting Point": "165.5 \u00b0C"}}