{"cas_no": "1205-72-7", "cn_name": "4-\u6c28\u57fa-1-\u82c4\u57fa\u54cc\u5576\u4e8c\u76d0\u9178\u76d0\u6c34\u5408\u7269**", "en_name": ["4-Piperidinamine, 1-(phenylmethyl)-, hydrochloride (1:2)", "4-Piperidinamine, 1-(phenylmethyl)-, hydrochloride (1:2)", "Piperidine, 4-amino-1-benzyl-, dihydrochloride", "4-Piperidinamine, 1-(phenylmethyl)-, dihydrochloride", "4-Amino-1-benzylpiperidine dihydrochloride", "1-Benzyl-4-aminopiperidine dihydrochloride"], "SMILES": "C(N1CCC(N)CC1)C2=CC=CC=C2.Cl", "physical_data": {"Molecular Weight": "", "Molecular Formula": "C12H18N2.2ClH", "Melting Point": "275 \u00b0C"}}