{"cas_no": "1205-08-9", "cn_name": "N-\u82ef\u7532\u9170\u57fa\u7518\u6c28\u9178\u7532\u916f", "en_name": ["Methyl hippurate", "Glycine, N-benzoyl-, methyl ester", "Hippuric acid, methyl ester", "Methyl hippurate", "N-Benzoylglycine methyl ester", "Methyl N-benzoylglycinate", "Methyl benzoylglycinate", "Methyl benzoylaminoacetate"], "SMILES": "C(NCC(OC)=O)(=O)C1=CC=CC=C1", "physical_data": {"Molecular Weight": "193.20", "Molecular Formula": "C10H11NO3", "Melting Point": "82-83 \u00b0C"}}