{"cas_no": "120570-77-6", "cn_name": "\u4e8c\u4e59\u4e8c\u9187\u4e8c\u7532\u9178\u916f", "en_name": ["Diethyleneglycol diformate", "Ethanol, 2,2\u2032-oxybis-, 1,1\u2032-diformate", "Ethanol, 2,2\u2032-oxybis-, diformate", "Diethyleneglycol diformate", "NSC 404481", "2-(2-Formyloxyethoxy)ethyl formate"], "SMILES": "O(CCOC=O)CCOC=O", "physical_data": {"Molecular Weight": "162.14", "Molecular Formula": "C6H10O5", "Boiling Point": "209-210 \u00b0C @ Press: 760 Torr", "Density": "1.1713 g/cm\u00b3 @ Temp: 20 \u00b0C"}}