{"cas_no": "12055-23-1", "cn_name": "\u6c27\u5316\u94ea", "en_name": ["Hafnium oxide", "Hafnium oxide (HfO2)", "Hafnium dioxide", "Hafnium dioxide (HfO2)", "Hafnia", "Hafnotrast", "Hafnia (HfO2)", "Hafnium oxide", "NSC 158931", "Hf 05 (oxide)", "Hf 05"], "SMILES": "[Hf](=O)=O", "physical_data": {"Molecular Weight": "", "Molecular Formula": "HfO2", "Melting Point": "2780 \u00b0C", "Density": "9.7 g/cm\u00b3"}}