{"cas_no": "12056-07-4", "cn_name": "\u7852\u5316\u94df", "en_name": ["Indium selenide (In2Se3)", "Indium selenide (In2Se3)", "Indium sesquiselenide", "Diindium triselenide", "Indium selenide", "Selanylidene-selanylideneindiganylselanylindigane"], "SMILES": "[In].[Se]", "physical_data": {"Molecular Weight": "", "Molecular Formula": "In.Se", "Melting Point": "&gt;900 \u00b0C", "Density": "5.0 g/cm\u00b3"}}