{"cas_no": "1205-17-0", "cn_name": "\u80e1\u6912\u57fa\u4e19\u919b", "en_name": ["Helional", "1,3-Benzodioxole-5-propanal, \u03b1-methyl-", "Hydrocinnamaldehyde, \u03b1-methyl-3,4-(methylenedioxy)-", "\u03b1-Methyl-1,3-benzodioxole-5-propanal", "Helional", "3-(3,4-Methylenedioxyphenyl)-2-methylpropanal", "2-Methyl-3-(3,4-methylenedioxyphenyl)propionaldehyde", "Tropional", "NSC 22282", "2-Methyl-3-(3,4-methylenedioxyphenyl)propanal", "Helipropanal", "\u03b1-Methyl-3,4-(methylenedioxy)hydrocinnamaldehyde", "Heliogan", "Heliobouquet", "Heliofresh", "3-(Benzo[d][1,3]dioxol-5-yl)-2-methylpropanal", "3-(1,3-Benzodioxol-5-yl)-2-methylpropanal", "Floramelon"], "SMILES": "C(C(C=O)C)C=1C=C2C(=CC1)OCO2", "physical_data": {"Molecular Weight": "192.21", "Molecular Formula": "C11H12O3", "Boiling Point": "128 \u00b0C @ Press: 3 Torr", "Density": "1.1637 g/cm\u00b3 @ Temp: 20 \u00b0C"}}