{"cas_no": "1205-64-7", "cn_name": "3-\u7532\u57fa\u4e8c\u82ef\u80fa", "en_name": ["3-Methyldiphenylamine", "Benzenamine, 3-methyl-N-phenyl-", "m-Toluidine, N-phenyl-", "3-Methyl-N-phenylbenzenamine", "3-Methyldiphenylamine", "N-Phenyl-m-toluidine", "(3-Methylphenyl)phenylamine", "N-(3-Methylphenyl)-N-phenylamine", "N-(3-Methylphenyl)aniline", "N-Phenyl-3-methylaniline", "Phenyl-m-tolylamine", "N-Phenyl-3-toluidine", "3-Methyl-N-phenylaniline"], "SMILES": "N(C1=CC(C)=CC=C1)C2=CC=CC=C2", "physical_data": {"Molecular Weight": "183.25", "Molecular Formula": "C13H13N", "Boiling Point": "316 \u00b0C", "Melting Point": "30 \u00b0C"}}