{"cas_no": "12054-48-7", "cn_name": "\u6c22\u6c27\u5316\u954d", "en_name": ["Nickel dihydroxide", "Nickel hydroxide (Ni(OH)2)", "Nickelous hydroxide", "Nickel hydroxide", "Nickel dihydroxide", "Nickel(II) hydroxide", "Nickel(2+) hydroxide", "N 104966"], "SMILES": "[Ni](O)O", "physical_data": {"Molecular Weight": "", "Molecular Formula": "H2NiO2", "Melting Point": "230 \u00b0C (decomp)", "Density": "4.1 g/cm\u00b3"}}