{"cas_no": "12057-24-8", "cn_name": "\u6c27\u5316\u9502", "en_name": ["Lithium oxide", "Lithium oxide (Li2O)", "Dilithium oxide", "Lithia", "Dilithium monoxide", "Lithium oxide", "Lithium oxide (LiO0.5)"], "SMILES": "O([Li])[Li]", "physical_data": {"Molecular Weight": "", "Molecular Formula": "Li2O", "Melting Point": "&gt;1600 \u00b0C", "Density": "2.01 g/cm\u00b3"}}