{"cas_no": "12068-69-8", "cn_name": "\u7837\u5316\u94cb", "en_name": ["Bismuth selenide (Bi2Se3)", "Bismuth selenide (Bi2Se3)", "Bismuth sesquiselenide", "Dibismuth triselenide", "Bismuth selenide", "Bismuth selenide (Bi2Se3), selenium"], "SMILES": "[Bi].[Se]", "physical_data": {"Molecular Weight": "", "Molecular Formula": "Bi.Se", "Boiling Point": "1007 \u00b0C", "Melting Point": "710 \u00b0C", "Density": "6.97 g/cm\u00b3"}}