{"cas_no": "12069-69-1", "cn_name": "\u78b1\u5f0f\u78b3\u9178\u94dc", "en_name": ["Basic copper carbonate", "Copper, [\u03bc-[carbonato(2-)-\u03baO:\u03baO\u2032]]dihydroxydi-", "Copper carbonate hydroxide (Cu2(OH)2CO3)", "Copper, (carbonato)dihydroxydi-", "Copper, [\u03bc-[carbonato(2-)-O:O\u2032]]dihydroxydi-", "Carbonic acid, copper complex", "[\u03bc-[Carbonato(2-)-\u03baO:\u03baO\u2032]]dihydroxydicopper", "Cheshunt compound", "Dicopper dihydroxycarbonate", "Copper basic carbonate", "Copper hydroxide carbonate (Cu2(OH)2CO3)", "Basic cupric carbonate", "Basic copper carbonate", "Copper carbonate hydroxide [CuCO3.Cu(OH)2]", "Cupric carbonate, basic", "Cupric carbonate hydroxide (CuCO3.Cu(OH)2)", "Basic copper(II) carbonate", "Cupric carbonate (CuCO3.Cu(OH)2)", "Basic copper carbonate (Cu2(OH)2CO3)", "Basic copper carbonate (Cu2(CO3)(OH)2)", "Carbonic acid, copper(2+) salt (1:1), basic", "Dicopper(2+) carbonate dihydroxide", "Carbonatodihydroxodicopper", "Copper dihydroxide carbonate", "Copper carbonate hydroxide (Cu2(CO3)(OH)2)", "[Carbonato(2-)]copper-dihydroxycopper (1:1)", "Copper(II) hydroxycarbonate"], "SMILES": "C(O[Cu]O)(O[Cu]O)=O", "physical_data": {"Molecular Weight": "", "Molecular Formula": "CH2Cu2O5", "Melting Point": "200 \u00b0C (decomp)"}}