{"cas_no": "1206-13-9", "cn_name": "1-(4-\u7532\u57fa\u82ef\u57fa)-1-\u73af\u5df1\u8148", "en_name": ["1-(4-Methylphenyl)cyclohexanecarbonitrile", "Cyclohexanecarbonitrile, 1-(4-methylphenyl)-", "Cyclohexanecarbonitrile, 1-p-tolyl-", "1-(4-Methylphenyl)cyclohexanecarbonitrile", "NSC 155170", "1-(4-Methylphenyl)-1-cyclohexanecarbonitrile", "1-(4-Methylphenyl)cyclohexane-1-carbonitrile"], "SMILES": "C(#N)C1(CCCCC1)C2=CC=C(C)C=C2", "physical_data": {"Molecular Weight": "199.29", "Molecular Formula": "C14H17N", "Boiling Point": "135 \u00b0C @ Press: 2 Torr"}}