{"cas_no": "12064-03-8", "cn_name": "\u9511\u5316\u9553", "en_name": ["Gallium antimonide", "Antimony, compd. with gallium (1:1)", "Gallium antimonide (GaSb)", "Gallium, compd. with antimony (1:1)", "Gallium antimonide", "Gallium monoantimonide", "Gallium antimony (GaSb)"], "SMILES": "[Sb].[Ga]", "physical_data": {"Molecular Weight": "", "Molecular Formula": "Ga.Sb", "Melting Point": "705 \u00b0C"}}