{"cas_no": "12060-08-1", "cn_name": "\u6c27\u5316\u94aa", "en_name": ["Scandium oxide (Sc2O3)", "Scandium oxide (Sc2O3)", "Scandium sesquioxide", "Scandium oxide", "Discandium trioxide", "Scandia", "Scandium trioxide", "Scandium(3+) oxide", "Scandium(III) oxide", "Scandia (Sc2O3)", "Scandium oxide (ScO1.5)"], "SMILES": "", "physical_data": {"Molecular Weight": "", "Molecular Formula": "O3Sc2", "Melting Point": "2430 \u00b0C", "Density": "3.860 g/cm\u00b3"}}