{"cas_no": "12069-85-1", "cn_name": "\u78b3\u5316\u94ea", "en_name": ["Hafnium carbide (HfC)", "Hafnium carbide (HfC)", "Hafnium monocarbide", "Hafnium monocarbide (HfC)", "Hafnium carbide"], "SMILES": "", "physical_data": {"Molecular Weight": "", "Molecular Formula": "CHf", "Melting Point": "4160 \u00b0C"}}