{"cas_no": "12065-11-1", "cn_name": "\u7852\u5316\u9517(IV)", "en_name": ["Germanium diselenide", "Germanium selenide (GeSe2)", "Germanium diselenide", "Germanium selenide (Ge0.33Se0.67)"], "SMILES": "[Ge](=[Se])=[Se]", "physical_data": {"Molecular Weight": "230.56", "Molecular Formula": "GeSe2", "Melting Point": "707 \u00b0C", "Density": "4.56 g/cm\u00b3"}}