{"cas_no": "12068-90-5", "cn_name": "\u78b2\u5316\u6c5e", "en_name": ["Mercury telluride", "Mercury telluride (HgTe)", "Mercury monotelluride", "Mercuric telluride", "Mercury telluride", "Mercury(II) telluride", "Mercury(2+) telluride"], "SMILES": "[Hg]=[Te]", "physical_data": {"Molecular Weight": "", "Molecular Formula": "HgTe", "Melting Point": "793 \u00b0C"}}