{"cas_no": "12069-89-5", "cn_name": "\u78b3\u5316\u94bc", "en_name": ["Molybdenum carbide (Mo2C)", "Molybdenum carbide (Mo2C)", "Dimolybdenum carbide", "Dimolybdenum monocarbide", "Molybdenum carbide (MoC0.5)"], "SMILES": "", "physical_data": {"Molecular Weight": "", "Molecular Formula": "CMo2", "Melting Point": "2960 \u00b0C"}}