{"cas_no": "12063-98-8", "cn_name": "\u78f7\u5316\u9553", "en_name": ["Gallium phosphide", "Gallium phosphide (GaP)", "Gallium phosphide", "Gallium monophosphide", "Gallium monophosphide (GaP)"], "SMILES": "[Ga]#P", "physical_data": {"Molecular Weight": "", "Molecular Formula": "GaP", "Melting Point": "1525 \u00b0C"}}