{"cas_no": "12065-10-0", "cn_name": "\u7852\u5316\u9517", "en_name": ["Germanium selenide (GeSe)", "Germanium selenide (GeSe)", "Germanous selenide", "Germanium monoselenide", "Germanium selenide (Ge0.5Se0.5)"], "SMILES": "[Ge]=[Se]", "physical_data": {"Molecular Weight": "", "Molecular Formula": "GeSe", "Melting Point": "670 \u00b0C", "Density": "5.634 g/cm\u00b3"}}