{"cas_no": "12061-16-4", "cn_name": "\u6c27\u5316\u94d2", "en_name": ["Erbia", "Erbium oxide (Er2O3)", "Erbium sesquioxide", "Dierbium trioxide", "Erbium(3+) oxide", "Erbium trioxide", "Erbium(III) oxide", "Erbia", "Erbium oxide (ErO1.5)", "Erbium oxide", "Erbium sesquioxide (Er2O3)", "2330RE"], "SMILES": "", "physical_data": {"Molecular Weight": "", "Molecular Formula": "Er2O3", "Melting Point": "2430 \u00b0C"}}