{"cas_no": "12067-57-1", "cn_name": "\u7845\u5316\u949b", "en_name": ["Titanium silicide (Ti5Si3)", "Titanium silicide (Ti5Si3)", "Pentatitanium trisilicon", "Pentatitanium trisilicide", "Titanium silicide (TiSi0.6)"], "SMILES": "", "physical_data": {"Molecular Weight": "", "Molecular Formula": "Si3Ti5", "Melting Point": "2130 \u00b0C", "Density": "4.3 g/cm\u00b3 @ Temp: Room temp"}}