{"cas_no": "120686-17-1", "cn_name": "(3S)-3-\u6c28\u57fa-4-\u82ef\u57fa\u4e01\u9178\u53d4\u4e01\u916f", "en_name": ["1,1-Dimethylethyl (\u03b2S)-\u03b2-aminobenzenebutanoate", "Benzenebutanoic acid, \u03b2-amino-, 1,1-dimethylethyl ester, (\u03b2S)-", "Benzenebutanoic acid, \u03b2-amino-, 1,1-dimethylethyl ester, (S)-", "1,1-Dimethylethyl (\u03b2S)-\u03b2-aminobenzenebutanoate", "tert-Butyl (S)-3-amino-4-phenylbutanoate", "tert-Butyl (3S)-3-amino-4-phenylbutanoate"], "SMILES": "C(C(CC(OC(C)(C)C)=O)N)C1=CC=CC=C1", "physical_data": {"Molecular Weight": "235.32", "Molecular Formula": "C14H21NO2", "Melting Point": "30-31 \u00b0C"}}