{"cas_no": "12060-01-4", "cn_name": "\u9506\u9178\u94c5", "en_name": ["Lead zirconate", "Lead zirconium oxide (PbZrO3)", "Zirconium lead oxide (PbZrO3)", "Lead zirconate", "Lead zirconate (PbZrO3)", "Lead zirconium trioxide"], "SMILES": "[Pb].[Zr].[O]", "physical_data": {"Molecular Weight": "", "Molecular Formula": "O.Pb.Zr", "Melting Point": "1570 \u00b0C"}}