{"cas_no": "12069-94-2", "cn_name": "\u78b3\u5316\u94cc", "en_name": ["Niobium carbide (NbC)", "Niobium carbide (NbC)", "Niobium monocarbide", "Niobium carbide", "Niobium monocarbide (NbC)"], "SMILES": "", "physical_data": {"Molecular Weight": "", "Molecular Formula": "CNb", "Melting Point": "3600 \u00b0C"}}