{"cas_no": "120738-89-8", "cn_name": "\u70ef\u5576\u866b\u80fa", "en_name": ["N-[(6-Chloro-3-pyridinyl)methyl]-N-ethyl-N\u2032-methyl-2-nitro-1,1-ethenediamine", "1,1-Ethenediamine, N-[(6-chloro-3-pyridinyl)methyl]-N-ethyl-N\u2032-methyl-2-nitro-", "N-[(6-Chloro-3-pyridinyl)methyl]-N-ethyl-N\u2032-methyl-2-nitro-1,1-ethenediamine"], "SMILES": "N(C(=CN(=O)=O)NC)(CC=1C=CC(Cl)=NC1)CC", "physical_data": {"Molecular Weight": "270.72", "Molecular Formula": "C11H15ClN4O2", "Melting Point": "83.5 \u00b0C"}}