{"cas_no": "12078-25-0", "cn_name": "\u4e8c\u7fb0\u57fa\u73af\u620a\u4e8c\u70ef\u94b4", "en_name": ["Dicarbonyl(\u03b75-cyclopentadienyl)cobalt", "Cobalt, dicarbonyl(\u03b75-2,4-cyclopentadien-1-yl)-", "Cobalt, dicarbonyl-\u03c0-cyclopentadienyl-", "Cyclopentadienylcobalt dicarbonyl", "Cobalt, dicarbonylcyclopentadienyl-", "Dicarbonyl(\u03b75-2,4-cyclopentadien-1-yl)cobalt", "Dicarbonyl-\u03c0-cyclopentadienyl cobalt", "\u03b75-Cyclopentadienylcobalt dicarbonyl", "Dicarbonylcyclopentadienylcobalt", "\u03c0-Cyclopentadienyldicarbonylcobalt", "Cyclopentadienyldicarbonylcobalt", "Dicarbonyl(\u03b75-cyclopentadienyl)cobalt", "\u03c0-Cyclopentadienylcobalt dicarbonyl", "Cobalt dicarbonyl cyclopentadiene"], "SMILES": "C(#O)[Co+]1234(C#O)[CH-]5[CH]1=[CH]2[CH]3=[CH]45", "physical_data": {"Molecular Weight": "", "Molecular Formula": "C7H5CoO2", "Boiling Point": "75 \u00b0C @ Press: 22 Torr", "Melting Point": "-22 \u00b0C"}}