{"cas_no": "1207-12-1", "cn_name": "4,6-\u4e8c\u7532\u57fa\u4e8c\u82ef\u5e76\u567b\u5429", "en_name": ["4,6-Dimethyldibenzothiophene", "Dibenzothiophene, 4,6-dimethyl-", "4,6-Dimethyldibenzothiophene", "4,6-DMDBT"], "SMILES": "CC1=C2C(C=3C(S2)=C(C)C=CC3)=CC=C1", "physical_data": {"Molecular Weight": "212.31", "Molecular Formula": "C14H12S", "Boiling Point": "~340 \u00b0C (approx)", "Melting Point": "153-157 \u00b0C"}}