{"cas_no": "12070-06-3", "cn_name": "\u78b3\u5316\u94bd", "en_name": ["Tantalum carbide (TaC)", "Tantalum carbide (TaC)", "Tantalum monocarbide", "Tantalum monocarbide (TaC)", "Tantalum carbide"], "SMILES": "", "physical_data": {"Molecular Weight": "", "Molecular Formula": "CTa", "Melting Point": "&gt;1427 \u00b0C"}}