{"cas_no": "12070-12-1", "cn_name": "\u78b3\u5316\u94a8", "en_name": ["Tungsten carbide (WC)", "Tungsten carbide (WC)", "Tungsten monocarbide", "Tungsten carbide", "Tungsten monocarbide (WC)", "WCIO", "SL 350", "Tungsten carbide (W2C2)", "WC 20", "Sylcarb SC 45", "Syl-Carb SC 104", "J 05", "TJ 05", "WC 20 (carbide)", "GWC 30", "WC 10 (carbide)", "Valenite 1399", "CW 500", "NC 16", "NC 16 (carbide)", "WC-F", "WWI 13PB", "WC 02NR", "Wolfram carbide", "YG 1", "1WC", "WC 50", "GWC 030", "ZBW 15", "XLWC 30", "ZWC 30", "Xiamen 20", "Xiamen 46", "Guangdong 17", "Guangdong 18", "WC 10", "WC 25", "WC60", "NCWC 10", "WC 250H", "WC 100C", "WC 25S", "W-U 010", "WC 60S"], "SMILES": "", "physical_data": {"Molecular Weight": "", "Molecular Formula": "CW", "Boiling Point": "6000 \u00b0C", "Melting Point": "2780 \u00b0C", "Density": "15.6 g/cm\u00b3"}}