{"cas_no": "1207-72-3", "cn_name": "10-\u7532\u57fa\u5429\u567b\u55ea", "en_name": ["10-Methylphenothiazine", "10H-Phenothiazine, 10-methyl-", "Phenothiazine, 10-methyl-", "10-Methyl-10H-phenothiazine", "N-Methylphenothiazine", "10-Methylphenothiazine", "NSC 120", "J 3-56"], "SMILES": "CN1C=2C(SC=3C1=CC=CC3)=CC=CC2", "physical_data": {"Molecular Weight": "213.30", "Molecular Formula": "C13H11NS", "Melting Point": "99.5 \u00b0C"}}