{"cas_no": "12070-08-5", "cn_name": "\u78b3\u5316\u949b", "en_name": ["Titanium carbide (TiC)", "Titanium carbide (TiC)", "Titanium monocarbide", "Titanium carbide", "Titanium monocarbide (TiC)", "TiC-HP", "TiC 01", "TIC 007", "OR 07", "Titanium carbide (Ti0.5C0.5)", "STD 250", "FTiC 1"], "SMILES": "", "physical_data": {"Molecular Weight": "", "Molecular Formula": "CTi", "Boiling Point": "4820 \u00b0C", "Melting Point": "3140 \u00b0C", "Density": "4.9 g/cm\u00b3"}}