{"cas_no": "1207-69-8", "cn_name": "9-\u6c2f\u5416\u5576", "en_name": ["9-Chloroacridine", "Acridine, 9-chloro-", "9-Chloroacridine", "NSC 51950"], "SMILES": "ClC=1C2=C(N=C3C1C=CC=C3)C=CC=C2", "physical_data": {"Molecular Weight": "213.66", "Molecular Formula": "C13H8ClN", "Melting Point": "121 \u00b0C"}}