{"cas_no": "12079-65-1", "cn_name": "\u4e09\u7fb0\u57fa\u73af\u620a\u4e8c\u70ef\u9530", "en_name": ["Tricarbonyl(\u03b75-cyclopentadienyl)manganese", "Manganese, tricarbonyl(\u03b75-2,4-cyclopentadien-1-yl)-", "Manganese, tricarbonyl-\u03c0-cyclopentadienyl-", "Cyclopentadienylmanganese tricarbonyl", "Tricarbonyl(\u03b75-2,4-cyclopentadien-1-yl)manganese", "Cyclopentadienyltricarbonylmanganese", "Cymantrene", "Tricarbonyl-\u03c0-cyclopentadienylmanganese", "\u03c0-Cyclopentadienylmanganese tricarbonyl", "Manganese cyclopentadienyltricarbonyl", "Tricarbonylcyclopentadienylmanganese", "Tricarbonyl(\u03b75-cyclopentadienyl)manganese", "Cyclopentadienyl-\u03c0-tricarbonylmanganese", "\u03b75-Cyclopentadienylmanganese tricarbonyl", "Cyclopentadiene tricarbonyl manganese", "CpMn(CO)3"], "SMILES": "C(#O)[Mn+]1234(C#O)(C#O)[CH-]5[CH]1=[CH]2[CH]3=[CH]45", "physical_data": {"Molecular Weight": "", "Molecular Formula": "C8H5MnO3", "Melting Point": "75 \u00b0C"}}