{"cas_no": "12070-14-3", "cn_name": "\u78b3\u5316\u9506", "en_name": ["Zirconium monocarbide", "Zirconium carbide (ZrC)", "Zirconium monocarbide", "Zirconium carbide", "Zirconium monocarbide (ZrC)", "Z 1034", "ZrC-CLF", "OV 25"], "SMILES": "", "physical_data": {"Molecular Weight": "", "Molecular Formula": "CZr", "Melting Point": "3805 \u00b0C", "Density": "6.74 g/cm\u00b3"}}