{"cas_no": "1207181-62-1", "cn_name": "SCUTEBATA F", "en_name": ["Scutebarbatine F", "3-Pyridinecarboxylic acid, (3S,4\u2032aR,5\u2032S,6\u2032R,6\u2032aR,10\u2032R,10\u2032aS,10\u2032bR)-5\u2032,6\u2032-bis(acetyloxy)-1\u2032,2\u2032,4,4\u2032a,5,5\u2032,6\u2032,6\u2032a,9\u2032,10\u2032,10\u2032a,10\u2032b-dodecahydro-4\u2032a,6\u2032a,7\u2032,10\u2032b-tetramethyl-5-oxospiro[furan-3(2H),3\u2032-[3H]naphtho[2,1-b]pyran]-10\u2032-yl ester", "Scutebata F", "Scutebarbatine F", "Barbatine C"], "SMILES": "CC12C3C(C)(C(OC(C)=O)C(OC(C)=O)C1(C)OC4(CC2)COC(=O)C4)C(C)=CCC3OC(=O)C=5C=CC=NC5", "physical_data": {"Molecular Weight": "555.62", "Molecular Formula": "C30H37NO9", "Melting Point": "130-132 \u00b0C"}}