{"cas_no": "12075-68-2", "cn_name": "\u4e09\u6c2f\u4e09\u4e59\u57fa\u7edc\u94dd", "en_name": ["Di-\u03bc-chlorochlorotriethyldialuminum", "Aluminum, di-\u03bc-chlorochlorotriethyldi-", "Aluminum, trichlorotriethyldi-", "Di-\u03bc-chlorochlorotriethyldialuminum", "Triethyldialuminum trichloride", "Trichlorotriethyldialuminum", "Triethyltrichlorodialuminum", "Triethylaluminum sesquichloride", "Trichlorotriethyldialuminium", "Sesquiethylaluminum chloride", "Ethylaluminum sesquichloride"], "SMILES": "[CH2-](C)[Al+3]1([CH2-]C)[Cl-][Al+3]([CH2-]C)([Cl-])[Cl-]1", "physical_data": {"Molecular Weight": "", "Molecular Formula": "C6H15Al2Cl3", "Boiling Point": "204 \u00b0C", "Melting Point": "-21 \u00b0C", "Density": "1.092 g/cm\u00b3 @ Temp: 25 \u00b0C"}}