{"cas_no": "12080-32-9", "cn_name": "(1,5-\u73af\u8f9b\u4e8c\u70ef)\u4e8c\u6c2f\u5316\u94c2(II)", "en_name": ["Dichloro[(1,2,5,6-\u03b7)-1,5-cyclooctadiene]platinum", "Platinum, dichloro[(1,2,5,6-\u03b7)-1,5-cyclooctadiene]-", "Platinum, dichloro(1,5-cyclooctadiene)-", "1,5-Cyclooctadiene, platinum complex", "Dichloro[(1,2,5,6-\u03b7)-1,5-cyclooctadiene]platinum", "Dichloro(1,5-cyclooctadiene)platinum", "1,5-Cyclooctadienedichloroplatinum", "(1,5-Cyclooctadiene)platinum dichloride", "(1,5-Cyclooctadiene)platinum(II) dichloride", "Dichloro(1,5-cyclooctadiene)-platinum(II)", "NSC 239486", "Platinum, dichloro[(1,2,4,5-\u03b7)-1,4-cyclooctadiene]-"], "SMILES": "[Cl-][Pt+2]123([Cl-])[CH]4=[CH]1CC[CH]2=[CH]3CC4", "physical_data": {"Molecular Weight": "", "Molecular Formula": "C8H12Cl2Pt", "Melting Point": "250-280 \u00b0C (decomp)"}}