{"cas_no": "1208-52-2", "cn_name": "2-[(4-\u6c28\u57fa\u82ef)\u7532\u57fa]\u82ef\u80fa", "en_name": ["2-[(4-Aminophenyl)methyl]benzenamine", "Benzenamine, 2-[(4-aminophenyl)methyl]-", "Aniline, 2,4\u2032-methylenedi-", "2-[(4-Aminophenyl)methyl]benzenamine", "2,4\u2032-Diaminodiphenylmethane", "2\u2032,4-Bis(aminophenyl)methane", "2,4\u2032-Methylenebis(aniline)", "2,4\u2032-Methylenedianiline", "o,p\u2032-Diaminodiphenylmethane", "2,4\u2032-Diphenylmethanediamine", "2,4\u2032-Methylenediphenylamine", "2-(4-Aminobenzyl)aniline", "2-[(4-Aminophenyl)methyl]aniline"], "SMILES": "C(C1=C(N)C=CC=C1)C2=CC=C(N)C=C2", "physical_data": {"Molecular Weight": "198.26", "Molecular Formula": "C13H14N2", "Boiling Point": "22 \u00b0C @ Press: 9 Torr", "Melting Point": "88 \u00b0C"}}