{"cas_no": "12083-48-6", "cn_name": "\u4e8c\u6c2f\u4e8c\u8302\u9492", "en_name": ["Dichlorobis(\u03b75-2,4-cyclopentadien-1-yl)vanadium", "Vanadium, dichlorobis(\u03b75-2,4-cyclopentadien-1-yl)-", "Vanadium, dichlorodi-\u03c0-cyclopentadienyl-", "Vanadium, dichlorodicyclopentadienyl-", "Dicyclopentadienylvanadium dichloride", "Dichlorobis(\u03b75-2,4-cyclopentadien-1-yl)vanadium", "Vanadocene, dichloride", "Dichlorodi-\u03c0-cyclopentadienylvanadium", "Dicyclopentadienyldichlorovanadium", "Bis(cyclopentadienyl)vanadium dichloride", "Dichlorovanadocene", "Dichlorobis(\u03b7-cyclopentadienyl)vanadium", "Dichlorobis(\u03b5-cyclopentadienyl)vanadium", "Dicyclopentadienevanadium dichloride", "Di-\u03c0-Cyclopentadienylvanadium dichloride", "Dichlorobis(cyclopentadienyl)vanadium", "Dichlorobis(\u03b75-cyclopentadienyl)vanadium", "Vanadinocene dichloride"], "SMILES": "[Cl-][V+4]12345678([Cl-])([CH]=9[CH-]1[CH]2=[CH]3[CH]49)[CH]=%10[CH]5=[CH]6[CH-]7[CH]8%10", "physical_data": {"Molecular Weight": "", "Molecular Formula": "C10H10Cl2V", "Melting Point": "250 \u00b0C (decomp)"}}