{"cas_no": "1208-86-2", "cn_name": "4-\u7532\u6c27\u57fa\u4e8c\u82ef\u80fa", "en_name": ["N-(4-Methoxyphenyl)aniline", "Benzenamine, 4-methoxy-N-phenyl-", "p-Anisidine, N-phenyl-", "4-Methoxy-N-phenylbenzenamine", "p-Methoxydiphenylamine", "N-Phenyl-p-anisidine", "4-Methoxydiphenylamine", "N-Phenyl-p-methoxyaniline", "N-(4-Methoxyphenyl)aniline", "(4-Methoxyphenyl)phenylamine", "N-Phenyl-4-methoxyaniline", "NSC 31630", "N-(4-Methoxyphenyl)phenylamine", "4-Methoxy-N-phenylaniline", "N-(4-Methoxyphenyl)-N-phenylamine", "N-(p-Methoxyphenyl)aniline"], "SMILES": "N(C1=CC=C(OC)C=C1)C2=CC=CC=C2", "physical_data": {"Molecular Weight": "199.25", "Molecular Formula": "C13H13NO", "Boiling Point": "195 \u00b0C @ Press: 12 Torr", "Melting Point": "105 \u00b0C"}}