{"cas_no": "1208-03-3", "cn_name": "4-[\u53cc(\u03b2-\u6c2f\u4e59\u57fa)\u6c28\u57fa]\u82ef\u7532\u919b", "en_name": ["4-[Bis(2-chloroethyl)amino]benzaldehyde", "Benzaldehyde, 4-[bis(2-chloroethyl)amino]-", "Benzaldehyde, p-[bis(2-chloroethyl)amino]-", "4-[Bis(2-chloroethyl)amino]benzaldehyde", "p-Bis(\u03b2-chloroethyl)aminobenzaldehyde", "4-[N,N-Bis(2-chloroethyl)amino]benzaldehyde", "p-Bis(2-chloroethyl)aminobenzaldehyde", "N,N-Bis(\u03b2-chloroethyl)-4-aminobenzaldehyde", "4-N,N-Bis(\u03b2-chloroethyl)aminobenzaldehyde", "4-Bis(\u03b2-chloroethyl)aminobenzaldehyde", "p-[N,N-Bis(2-chloroethyl)amino]benzaldehyde", "NSC 19996"], "SMILES": "N(CCCl)(CCCl)C1=CC=C(C=O)C=C1", "physical_data": {"Molecular Weight": "246.13", "Molecular Formula": "C11H13Cl2NO", "Melting Point": "88.5 \u00b0C"}}