{"cas_no": "1208-88-4", "cn_name": "4-\u82ef\u786b\u57fa\u82ef\u7532\u919b", "en_name": ["4-(Phenylthio)benzaldehyde", "Benzaldehyde, 4-(phenylthio)-", "Benzaldehyde, p-(phenylthio)-", "4-(Phenylthio)benzaldehyde", "4-Formyldiphenyl sulfide", "4-Phenylsulfanylbenzaldehyde"], "SMILES": "S(C1=CC=C(C=O)C=C1)C2=CC=CC=C2", "physical_data": {"Molecular Weight": "214.28", "Molecular Formula": "C13H10OS", "Boiling Point": "136-138 \u00b0C @ Press: 0.1 Torr", "Melting Point": "53-54 \u00b0C"}}