{"cas_no": "12082-08-5", "cn_name": "\u82ef\u4e09\u7fb0\u57fa\u94ec", "en_name": ["(\u03b76-Benzene)tricarbonylchromium", "Chromium, (\u03b76-benzene)tricarbonyl-", "Chromium, (benzene)tricarbonyl-", "Benzenechromium tricarbonyl", "(\u03b76-Benzene)tricarbonylchromium", "Benchrotrene", "\u03c0-Benzenetricarbonylchromium", "(Benzene)tricarbonylchromium", "Benzenechromotricarbonyl", "\u03c0-Benzenechromium tricarbonyl", "Benzenetricarbonyl chromium(0)", "\u03b76-Benzenetricarbonylchromium", "Tricarbonylbenzene chromium", "\u03b76-Benzenechromium tricarbonyl"], "SMILES": "C(#O)[Cr]12345(C#O)(C#O)[CH]=6[CH]1=[CH]2[CH]3=[CH]4[CH]56", "physical_data": {"Molecular Weight": "", "Molecular Formula": "C9H6CrO3", "Melting Point": "163-165 \u00b0C"}}