{"cas_no": "1208-87-3", "cn_name": "4-\u82ef\u786b\u57fa\u6c2f\u82c4", "en_name": ["1-(Chloromethyl)-4-(phenylthio)benzene", "Benzene, 1-(chloromethyl)-4-(phenylthio)-", "Sulfide, \u03b1-chloro-p-tolyl phenyl", "1-(Chloromethyl)-4-(phenylthio)benzene", "4-Phenylthiobenzyl chloride", "NSC 43056", "1-(Chloromethyl)-4-phenylsulfanylbenzene", "(4-(Chloromethyl)phenyl)(phenyl)sulfane", "1-(Chloromethyl)-4-(phenylsulfanyl)benzene"], "SMILES": "S(C1=CC=C(CCl)C=C1)C2=CC=CC=C2", "physical_data": {"Molecular Weight": "234.74", "Molecular Formula": "C13H11ClS", "Boiling Point": "136-138 \u00b0C @ Press: 0.1 Torr"}}