{"cas_no": "12086-40-7", "cn_name": "(\u4e8c\u8302\u94c1\u57fa\u7532\u57fa)\u4e09\u7532\u57fa\u7898\u5316\u94f5", "en_name": ["(Ferrocenylmethyl)trimethylammonium iodide", "Methanaminium, 1-ferrocenyl-N,N,N-trimethyl-, iodide (1:1)", "Ammonium, (ferrocenylmethyl)trimethyl-, iodide", "Methanaminium, 1-ferrocenyl-N,N,N-trimethyl-, iodide", "Iron, cyclopentadienyl[[(dimethylamino)methyl]cyclopentadienyl]-, methiodide", "N-Ferrocenylmethyl-N,N,N-trimethylammonium iodide", "(N,N-Dimethylaminomethyl)ferrocene methiodide", "(Trimethylammoniomethyl)ferrocene iodide", "N-(Ferrocenylmethyl)trimethylammonium iodide", "(Ferrocenylmethyl)trimethylammonium iodide", "NSC 20888", "N,N,N-Trimethyl(ferrocenylmethyl)ammonium iodide"], "SMILES": "C([N+](C)(C)C)[C-]12[Fe+2]3456789([CH]1=[CH]3[CH]4=[CH]52)[CH-]%10[CH]6=[CH]7[CH]8=[CH]9%10.[I-]", "physical_data": {"Molecular Weight": "", "Molecular Formula": "C14H20FeN.I", "Melting Point": "218 \u00b0C (decomp)"}}