{"cas_no": "1208-65-7", "cn_name": "(2E)-3-(4-\u53d4\u4e01\u57fa\u82ef\u57fa)\u4e19\u70ef\u9178", "en_name": ["4-tert-Butylcinnamic acid", "2-Propenoic acid, 3-[4-(1,1-dimethylethyl)phenyl]-", "Cinnamic acid, p-tert-butyl-", "3-[4-(1,1-Dimethylethyl)phenyl]-2-propenoic acid", "p-tert-Butylcinnamic acid", "4-tert-Butylcinnamic acid", "3-(4-tert-Butylphenyl)acrylic acid"], "SMILES": "C(C)(C)(C)C1=CC=C(C=CC(O)=O)C=C1", "physical_data": {"Molecular Weight": "204.26", "Molecular Formula": "C13H16O2", "Melting Point": "195-197 \u00b0C"}}