{"cas_no": "120983-64-4", "cn_name": "\u8131\u786b\u4e19\u786b\u83cc\u5511", "en_name": ["\u03b1-(1-Chlorocyclopropyl)-\u03b1-[(2-chlorophenyl)methyl]-1H-1,2,4-triazole-1-ethanol", "1H-1,2,4-Triazole-1-ethanol, \u03b1-(1-chlorocyclopropyl)-\u03b1-[(2-chlorophenyl)methyl]-", "\u03b1-(1-Chlorocyclopropyl)-\u03b1-[(2-chlorophenyl)methyl]-1H-1,2,4-triazole-1-ethanol", "Prothioconazole-desthio", "2-(1-Chlorocyclopropyl)-1-(2-chlorophenyl)-3-(1,3-dihydro-1,2,4-triazol-2-yl)propan-2-ol"], "SMILES": "C(CC1=C(Cl)C=CC=C1)(CN2C=NC=N2)(O)C3(Cl)CC3", "physical_data": {"Molecular Weight": "312.19", "Molecular Formula": "C14H15Cl2N3O", "Melting Point": "108 \u00b0C"}}