{"cas_no": "120928-09-8", "cn_name": "\u55b9\u87a8\u919a", "en_name": ["Fenazaquin", "Quinazoline, 4-[2-[4-(1,1-dimethylethyl)phenyl]ethoxy]-", "4-[2-[4-(1,1-Dimethylethyl)phenyl]ethoxy]quinazoline", "EL 436", "Fenazachin", "Fenazaquin", "Magister", "XDE 436", "Phenazaquin", "Magus", "Fenaza", "GWN 1708", "Pride Ultra"], "SMILES": "O(CCC1=CC=C(C(C)(C)C)C=C1)C=2C3=C(N=CN2)C=CC=C3", "physical_data": {"Molecular Weight": "306.40", "Molecular Formula": "C20H22N2O", "Melting Point": "78.5 \u00b0C"}}