{"cas_no": "12091-64-4", "cn_name": "\u4e09\u7fb0\u57fa(\u0397-\u73af\u620a\u4e8c\u70ef\u57fa)\u5408\u9530\u4e8c\u805a\u4f53", "en_name": ["Molybdenum, hexacarbonylbis(\u03b75-2,4-cyclopentadien-1-yl)di-, (Mo-Mo)", "Molybdenum, hexacarbonylbis(\u03b75-2,4-cyclopentadien-1-yl)di-, (Mo-Mo)", "Molybdenum, hexacarbonyldi-\u03c0-cyclopentadienyldi-", "Molybdenum, hexacarbonyldicyclopentadienyldi-", "Bis(\u03c0-cyclopentadienylmolybdenum tricarbonyl)", "Hexacarbonyldi-\u03c0-cyclopentadienyldimolybdenum", "Cyclopentadienyltricarbonylmolybdenum dimer", "Hexacarbonylbis(\u03b75-cyclopentadienyl)dimolybdenum(I)", "Bis[(\u03b75-cyclopentadienyl)tricarbonylmolybdenum]", "Bis[tricarbonyl(\u03b75-cyclopentadienyl)molybdenum]", "Hexacarbonylbis(cyclopentadienyl)dimolybdenum", "Hexacarbonylbis(\u03b75-cyclopentadienyl)dimolybdenum", "Hexacarbonylbis(\u03b75-cyclopentadienyl)dimolybdenum(Mo-Mo)", "Cyclopentadienylmolybdenum(II) tricarbonyl"], "SMILES": "C(#O)[Mo+]1234(C#O)(C#O)([CH-]5[CH]1=[CH]2[CH]3=[CH]45)[Mo+]6789(C#O)(C#O)(C#O)[CH-]%10[CH]6=[CH]7[CH]8=[CH]9%10", "physical_data": {"Molecular Weight": "", "Molecular Formula": "C16H10Mo2O6", "Melting Point": "215 \u00b0C (decomp)"}}