{"cas_no": "12092-47-6", "cn_name": "(1,5-\u73af\u8f9b\u4e8c\u70ef)\u6c2f\u94d1(I)\u4e8c\u805a\u4f53", "en_name": ["Di-\u03bc-chlorobis[(1,2,5,6-\u03b7)-1,5-cyclooctadiene]dirhodium", "Rhodium, di-\u03bc-chlorobis[(1,2,5,6-\u03b7)-1,5-cyclooctadiene]di-", "Rhodium, di-\u03bc-chlorobis(1,5-cyclooctadiene)di-", "Rhodium, dichlorobis(1,5-cyclooctadiene)di-", "1,5-Cyclooctadiene, rhodium complex", "Di-\u03bc-chlorobis[(1,2,5,6-\u03b7)-1,5-cyclooctadiene]dirhodium", "Rhodium 1,5-cyclooctadiene chloride dimer", "Di-\u03bc-Chlorobis(1,5-cyclooctadiene)dirhodium", "Chloro(1,5-cyclooctadiene)rhodium dimer", "Dichlorobis(cyclooctadiene)dirhodium", "Dichlorobis(1,5-cyclooctadiene)dirhodium", "Bis(\u03bc-chloro)bis(1,5-cyclooctadiene)dirhodium", "Chloro(cyclooctadiene)rhodium dimer", "Cyclooctadiene rhodium chloride dimer", "Di-\u03bc-chlorobis(cyclooctadiene)dirhodium", "(1,5-Cyclooctadiene)rhodium chloride dimer", "Chlororhodium (1,5-cyclooctadiene) dimer", "Bis(chloro(1,5-cyclooctadiene)rhodium)", "Bis(1,5-cyclooctadiene)dirhodium dichloride", "Di-\u03bc-chlorobis(\u03b74-1,5-cyclooctadiene)dirhodium", "Bis((1,5-cyclooctadiene)(chloro)rhodium)", "(\u03b74-1,5-Cyclooctadiene)rhodium chloride dimer", "(1,5-Cyclooctadiene)rhodium(I) chloride dimer", "Bis((\u03bc-chloro)(\u03b74-1,5-cyclooctadiene)rhodium)", "\u03bc-Chloro(1,5-cyclooctadiene)rhodium(I) dimer", "Bis(chloro(\u03b74-1,5-cyclooctadiene)rhodium)", "[Rh(COD)Cl]2", "Di-\u03bc-chlorobis(\u03b74-1,5-cyclooctadiene)dirhodium(I)", "Dichlorobis(1,5-cyclooctadiene)rhodium(I)", "Bis(\u03bc2-chloro)bis(1,5-cyclooctadiene)dirhodium", "Bis(cyclooctadienerhodium chloride)", "Bis(\u03bc-chloro)bis[(1,5-cyclooctadiene)rhodium]", "Di-\u03bc2-chlorobis(1,5-cyclooctadiene)dirhodium", "Di-\u03bc-chlorobis[(1,5-cyclooctadiene)rhodium]", "Bis(cyclooctadiene)dichlorodirhodium", "Chloro(1,5-cyclooctadiene)rhodium (I) dimer", "[Rh(1,5-cod)Cl]2"], "SMILES": "[Rh+]1234([Cl-][Rh+]567([Cl-]1)[CH]8=[CH]5CC[CH]6=[CH]7CC8)[CH]9=[CH]2CC[CH]3=[CH]4CC9", "physical_data": {"Molecular Weight": "", "Molecular Formula": "C16H24Cl2Rh2", "Melting Point": "224-226 \u00b0C (decomp)"}}