{"cas_no": "12093-10-6", "cn_name": "\u4e8c\u8302\u94c1\u7532\u919b", "en_name": ["Ferrocenecarboxaldehyde", "Ferrocene, formyl-", "Ferrocenecarboxaldehyde", "Iron, cyclopentadienyl(formylcyclopentadienyl)-", "Formylferrocene", "Cyclopentadienecarboxaldehyde, cyclopentadienyliron deriv.", "Formyldicyclopentadienyliron", "Ferrocenecarbaldehyde", "2-Ferrocenecarboxaldehyde", "Ferrocenylcarbaldehyde", "1-Formylferrocene", "Ferrocenylcarboxaldehyde", "NSC 407052", "Ferrocene-1-carboxaldehyde"], "SMILES": "C(=O)[C-]12[Fe+2]3456789([CH]1=[CH]3[CH]4=[CH]52)[CH-]%10[CH]6=[CH]7[CH]8=[CH]9%10", "physical_data": {"Molecular Weight": "", "Molecular Formula": "C11H10FeO", "Melting Point": "120 \u00b0C"}}