{"cas_no": "120934-96-5", "cn_name": "2,5-DIMETHYL-4-[2-(PHENYLMETHYL)BENZOYL]-1H-PYRROLE-3-CARBOXYLIC ACID METHYL ESTER", "en_name": ["Methyl 2,5-dimethyl-4-[2-(phenylmethyl)benzoyl]-1H-pyrrole-3-carboxylate", "1H-Pyrrole-3-carboxylic acid, 2,5-dimethyl-4-[2-(phenylmethyl)benzoyl]-, methyl ester", "Methyl 2,5-dimethyl-4-[2-(phenylmethyl)benzoyl]-1H-pyrrole-3-carboxylate", "FPL 64176"], "SMILES": "C(=O)(C=1C(C(OC)=O)=C(C)NC1C)C2=C(CC3=CC=CC=C3)C=CC=C2", "physical_data": {"Molecular Weight": "347.41", "Molecular Formula": "C22H21NO3", "Melting Point": "145-146 \u00b0C"}}