{"cas_no": "12093-05-9", "cn_name": "\u73af\u8f9b\u56db\u70ef\u4e09\u7fb0\u57fa\u94c1", "en_name": ["Tricarbonyl[(1,2,3,4-\u03b7)-1,3,5,7-cyclooctatetraene]iron", "Iron, tricarbonyl[(1,2,3,4-\u03b7)-1,3,5,7-cyclooctatetraene]-", "Iron, tricarbonyl(1,3,5,7-cyclooctatetraene)-", "Cyclooctatetraeneiron tricarbonyl", "1,3,5,7-Cyclooctatetraene, iron complex", "Tricarbonyl[(1,2,3,4-\u03b7)-1,3,5,7-cyclooctatetraene]iron", "Cyclooctatetraenetricarbonyliron", "Tricarbonyl(cyclooctatetraene)iron", "Tricarbonyl(\u03b74-cyclooctatetraene)iron", "1,3,5,7-Cyclooctatetraeneiron tricarbonyl", "NSC 167370", "NSC 168049"], "SMILES": "C(#O)[Fe]123(C#O)(C#O)[CH]=4[CH]1=[CH]2C=CC=C[CH]34", "physical_data": {"Molecular Weight": "", "Molecular Formula": "C11H8FeO3", "Melting Point": "94 \u00b0C"}}