{"cas_no": "120923-37-7", "cn_name": "\u9170\u5627\u78fa\u9686", "en_name": ["Amidosulfuron", "3,5-Dithia-2,4-diazahexanamide, N-(4,6-dimethoxy-2-pyrimidinyl)-4-methyl-, 3,3,5,5-tetraoxide", "2,4-Dithia-3,5-diazahexan-6-amide, N-(4,6-dimethoxy-2-pyrimidinyl)-3-methyl-, 2,2,4,4-tetraoxide", "Cratil", "Amidosulfuron", "Grodyl", "Gratil", "HOE 075032", "Hoestar", "Adret"], "SMILES": "N(C(NS(N(S(C)(=O)=O)C)(=O)=O)=O)C=1N=C(OC)C=C(OC)N1", "physical_data": {"Molecular Weight": "369.37", "Molecular Formula": "C9H15N5O7S2", "Melting Point": "161.5 \u00b0C"}}