{"cas_no": "121-14-2", "cn_name": "2,4-\u4e8c\u785d\u57fa\u7532\u82ef", "en_name": ["2,4-Dinitrotoluene", "Benzene, 1-methyl-2,4-dinitro-", "Toluene, 2,4-dinitro-", "1-Methyl-2,4-dinitrobenzene", "2,4-DNT", "2,4-Dinitrotoluene", "4-Methyl-1,3-dinitrobenzene", "6-Methyl-1,3-dinitrobenzene", "NSC 7194"], "SMILES": "N(=O)(=O)C1=CC(N(=O)=O)=CC=C1C", "physical_data": {"Molecular Weight": "182.13", "Molecular Formula": "C7H6N2O4", "Boiling Point": "300 \u00b0C", "Melting Point": "71 \u00b0C", "Density": "1.3208 g/cm\u00b3 @ Temp: 71 \u00b0C"}}