{"cas_no": "121-86-8", "cn_name": "2-\u6c2f-4-\u785d\u57fa\u7532\u82ef", "en_name": ["2-Chloro-4-nitrotoluene", "Benzene, 2-chloro-1-methyl-4-nitro-", "Toluene, 2-chloro-4-nitro-", "2-Chloro-1-methyl-4-nitrobenzene", "2-Chloro-4-nitrotoluene", "3-Chloro-4-methylnitrobenzene", "2-Chloro-4-nitro-1-methylbenzene", "1-Chloro-2-methyl-5-nitrobenzene", "4-Nitro-2-chlorotoluene", "2-Chloro-4-nitrophenylmethane", "NSC 60111", "3-Chloro-4-methyl-1-nitrobenzene", "1-Methyl-2-chloro-4-nitrobenzene"], "SMILES": "N(=O)(=O)C1=CC(Cl)=C(C)C=C1", "physical_data": {"Molecular Weight": "171.58", "Molecular Formula": "C7H6ClNO2", "Boiling Point": "260 \u00b0C @ Press: 760 Torr", "Melting Point": "68 \u00b0C"}}