{"cas_no": "121-00-6", "cn_name": "4-\u7f9f\u57fa-3-\u53d4\u4e01\u57fa-\u82ef\u7532\u919a", "en_name": ["3-tert-Butyl-4-hydroxyanisole", "Phenol, 2-(1,1-dimethylethyl)-4-methoxy-", "Phenol, 2-tert-butyl-4-methoxy-", "2-(1,1-Dimethylethyl)-4-methoxyphenol", "3-BHA", "4-Methoxy-2-tert-butylphenol", "2-tert-Butyl-4-methoxyphenol", "3-tert-Butyl-4-hydroxyanisole", "4-Methoxy-6-tert-butylphenol", "o-tert-Butyl-p-methoxyphenol", "tert-Butyl-2-methoxy-4-phenol", "3-tert-Butyl-p-hydroxyanisole", "3-(1,1-Dimethylethyl)-4-hydroxyanisole", "4-Hydroxy-3-tert-butylanisole", "2-tert-Butyl-p-methoxyphenol"], "SMILES": "C(C)(C)(C)C1=CC(OC)=CC=C1O", "physical_data": {"Molecular Weight": "180.24", "Molecular Formula": "C11H16O2", "Boiling Point": "134-137 \u00b0C @ Press: 7 Torr", "Melting Point": "62-63 \u00b0C", "Density": "1.0587 g/cm\u00b3 @ Temp: 20 \u00b0C"}}