{"cas_no": "121-43-7", "cn_name": "\u787c\u9178\u4e09\u7532\u916f", "en_name": ["Trimethyl borate", "Boric acid (H3BO3), trimethyl ester", "Methyl borate ((MeO)3B)", "Borester O", "Trimethoxyborane", "Trimethoxyborine", "Trimethyl borate", "Boric acid trimethyl ester", "Trimethoxyboron", "Boron trimethoxide", "TMB", "NSC 777", "Trimethylborate", "TMB-R"], "SMILES": "B(OC)(OC)OC", "physical_data": {"Molecular Weight": "103.91", "Molecular Formula": "C3H9BO3", "Boiling Point": "67-68 \u00b0C", "Melting Point": "-29.3 \u00b0C", "Density": "0.915 g/cm\u00b3"}}