{"cas_no": "121-51-7", "cn_name": "3-\u785d\u57fa\u82ef\u78fa\u9170\u6c2f", "en_name": ["3-Nitrobenzenesulfonyl chloride", "Benzenesulfonyl chloride, 3-nitro-", "Benzenesulfonyl chloride, m-nitro-", "3-Nitrobenzenesulfonyl chloride", "m-Nitrobenzenesulfonyl chloride", "m-Nitrophenylsulfonyl chloride", "3-Nitrophenylsulfonyl chloride", "NSC 9806", "m-Nosyl chloride", "3-(Chlorosulfonyl)nitrobenzene", "3-Nitrobenzene-1-sulfonyl chloride", "(3-Nitro)-phenyl-sulphonyl chloride"], "SMILES": "S(Cl)(=O)(=O)C1=CC(N(=O)=O)=CC=C1", "physical_data": {"Molecular Weight": "221.62", "Molecular Formula": "C6H4ClNO4S", "Melting Point": "61 \u00b0C"}}