{"cas_no": "121-58-4", "cn_name": "4-\u4e8c\u7532\u6c28\u57fa\u82ef\u78fa\u9178", "en_name": ["4-(Dimethylamino)benzenesulfonic acid", "Benzenesulfonic acid, 4-(dimethylamino)-", "Sulfanilic acid, N,N-dimethyl-", "4-(Dimethylamino)benzenesulfonic acid", "N,N-Dimethylsulfanilic acid", "p-(Dimethylamino)benzenesulfonic acid", "NSC 3540"], "SMILES": "S(=O)(=O)(O)C1=CC=C(N(C)C)C=C1", "physical_data": {"Molecular Weight": "201.24", "Molecular Formula": "C8H11NO3S", "Melting Point": "270 \u00b0C"}}