{"cas_no": "121-91-5", "cn_name": "\u95f4\u82ef\u4e8c\u7532\u9178", "en_name": ["Isophthalic acid", "1,3-Benzenedicarboxylic acid", "Isophthalic acid", "m-Benzenedicarboxylic acid", "m-Phthalic acid", "m-Dicarboxybenzene", "m-Carboxybenzoic acid", "Isoterephthalic acid", "m-Phthalic acid", "3-Carboxybenzoic acid", "NSC 15310", "HA 20 (acid)", "HA 20"], "SMILES": "C(O)(=O)C1=CC(C(O)=O)=CC=C1", "physical_data": {"Molecular Weight": "166.13", "Molecular Formula": "C8H6O4", "Boiling Point": "100 \u00b0C", "Melting Point": "347 \u00b0C", "Density": "1.507 g/cm\u00b3 @ Temp: 20 \u00b0C"}}