{"cas_no": "121-75-5", "cn_name": "\u9a6c\u62c9\u786b\u78f7", "en_name": ["Malathion", "Butanedioic acid, 2-[(dimethoxyphosphinothioyl)thio]-, 1,4-diethyl ester", "Succinic acid, mercapto-, diethyl ester, S-ester with O,O-dimethyl phosphorodithioate", "Butanedioic acid, [(dimethoxyphosphinothioyl)thio]-, diethyl ester", "SF 60", "8059HC", "ENT 17,034", "American Cyanamid 4,049", "S-[1,2-Bis(ethoxycarbonyl)ethyl] O,O-dimethyl phosphorodithioate", "S-[1,2-Bis(ethoxycarbonyl)ethyl] O,O-dimethyl thiophosphate", "Carbophos", "Compound 4049", "Fosfothion", "Insecticide no. 4049", "Karbofos", "Malathion", "Malathion LV Concentrate", "Mercaptothion", "Phosphothion", "Ethiolacar", "Fosfotion", "Malamar 50", "Oleophosphothion", "Sadophos", "Siptox I", "Sadofos", "Cythion", "O,O-Dimethyl S-(1,2-dicarbethoxyethyl) dithiophosphate", "Sumitox", "Carbetox", "Malathion E 50", "S-[1,2-Bis(carbethoxy)ethyl] O,O-dimethyl dithiophosphate", "[(Dimethoxyphosphinothioyl)thio]butanedioic acid diethyl ester", "Diethyl mercaptosuccinate S-ester with O,O-dimethyl phosphorodithioate", "Insecticide 4049", "Carbofos", "Malaspray", "Prioderm", "Zithiol", "Ortho Malathion", "Malatol", "Fyfanon", "Moscarda", "TM 4049", "Malafor", "Etiol", "Vetiol", "Carbetovur", "TAK (pesticide)", "Malasol", "Extermathion", "Forthion", "Malathyl", "Cimexan", "Hilthion", "IFO 13140", "Malataf", "TAK", "Mavidan", "Security", "Malathyne", "Malamar", "Malathine", "Maldison", "Ovide", "Organoderm", "Suleo M", "Derbac M", "ENT 17034", "NSC 6524", "Malatol 500CE", "Malathion ULV", "Hi-Yield", "Radotion P 5", "Radotion", "Gammaxine", "Atrapa", "Nassrlathion", "Kunamala", "Radotion E 50", "Hymal", "Malataf 57EC", "Malapron", "MeSH ID: D008294"], "SMILES": "C(SP(OC)(OC)=S)(CC(OCC)=O)C(OCC)=O", "physical_data": {"Molecular Weight": "330.36", "Molecular Formula": "C10H19O6PS2", "Boiling Point": "156-157 \u00b0C @ Press: 0.7 Torr", "Melting Point": "2.9 \u00b0C", "Density": "1.23 g/cm\u00b3 @ Temp: 25 \u00b0C"}}