{"cas_no": "121-66-4", "cn_name": "2-\u6c28\u57fa-5-\u785d\u57fa\u567b\u5511", "en_name": ["2-Amino-5-nitrothiazole", "2-Thiazolamine, 5-nitro-", "Thiazole, 2-amino-5-nitro-", "5-Nitro-2-thiazolamine", "2-Amino-5-nitrothiazole", "Enheptin", "Entramin", "5-Nitro-2-thiazolylamine", "Amnizol soluble", "Enheptin T", "Nitramin IDO", "5-Nitro-2-aminothiazole", "2-Amino-5-nitro-1,3-thiazole", "2-Amino-4-nitrothiazole", "NSC 4", "5-Nitro-thiazole-2-ylamine"], "SMILES": "N(=O)(=O)C=1SC(N)=NC1", "physical_data": {"Molecular Weight": "145.14", "Molecular Formula": "C3H3N3O2S", "Melting Point": "202 \u00b0C (decomp)"}}