{"cas_no": "121-17-5", "cn_name": "4-\u6c2f-3-\u785d\u57fa\u4e09\u6c1f\u7532\u82ef", "en_name": ["1-Chloro-2-nitro-4-(trifluoromethyl)benzene", "Benzene, 1-chloro-2-nitro-4-(trifluoromethyl)-", "Toluene, 4-chloro-\u03b1,\u03b1,\u03b1-trifluoro-3-nitro-", "1-Chloro-2-nitro-4-(trifluoromethyl)benzene", "4-Chloro-\u03b1,\u03b1,\u03b1-trifluoro-3-nitrotoluene", "3-Nitro-4-chloro-1-(trifluoromethyl)benzene", "4-Chloro-3-nitrobenzotrifluoride", "2-Nitro-4-(trifluoromethyl)-1-chlorobenzene", "4-Chloro-3-nitro-1-(trifluoromethyl)benzene", "2-Nitro-4-(trifluoromethyl)chlorobenzene", "2-Chloro-5-(trifluoromethyl)nitrobenzene", "(3-Nitro-4-chlorophenyl)trifluoromethane", "2-Chloro-5-(trifluoromethyl)-1-nitrobenzene", "3-Nitro-4-chlorobenzotrifluoride", "6-Chloro-3-(trifluoromethyl)nitrobenzene", "1-Chloro-4-trifluoromethyl-2-nitrobenzene", "4-Trifluoromethyl-2-nitrochlorobenzene", "NSC 8760"], "SMILES": "N(=O)(=O)C1=CC(C(F)(F)F)=CC=C1Cl", "physical_data": {"Molecular Weight": "225.55", "Molecular Formula": "C7H3ClF3NO2", "Boiling Point": "222 \u00b0C", "Melting Point": "-2.5 \u00b0C", "Density": "1.5421 g/cm\u00b3 @ Temp: 21 \u00b0C"}}