{"cas_no": "121-21-1", "cn_name": "\u9664\u866b\u83ca\u7d20I", "en_name": ["Pyrethrin I", "Cyclopropanecarboxylic acid, 2,2-dimethyl-3-(2-methyl-1-propen-1-yl)-, (1S)-2-methyl-4-oxo-3-(2Z)-2,4-pentadien-1-yl-2-cyclopenten-1-yl ester, (1R,3R)-", "Cyclopropanecarboxylic acid, 2,2-dimethyl-3-(2-methylpropenyl)-, ester with 4-hydroxy-3-methyl-2-(2,4-pentadienyl)-2-cyclopenten-1-one", "Pyrethrin 1", "Cyclopropanecarboxylic acid, 2,2-dimethyl-3-(2-methyl-1-propenyl)-, 2-methyl-4-oxo-3-(2,4-pentadienyl)-2-cyclopenten-1-yl ester, [1R-[1\u03b1[S*(Z)],3\u03b2]]-", "Cyclopropanecarboxylic acid, 2,2-dimethyl-3-(2-methyl-1-propenyl)-, (1S)-2-methyl-4-oxo-3-(2Z)-2,4-pentadienyl-2-cyclopenten-1-yl ester, (1R,3R)-", "Chrysanthemummonocarboxylic acid pyrethrolone ester", "Pyrethrin I", "(+)-Pyrethronyl (+)-trans-chrysanthemate", "Pyrethrin A"], "SMILES": "C(OC1C(C)=C(CC=CC=C)C(=O)C1)(=O)C2C(C=C(C)C)C2(C)C", "physical_data": {"Molecular Weight": "328.45", "Molecular Formula": "C21H28O3", "Boiling Point": "146-150 \u00b0C @ Press: 5 x 10<sup>-4</sup> Torr", "Density": "1.5192 g/cm\u00b3 @ Temp: 18 \u00b0C"}}