{"cas_no": "121-27-7", "cn_name": "5-\u6c2f-2-(4-\u6c2f\u82ef\u6c27\u57fa)-\u82ef\u80fa", "en_name": ["5-Chloro-2-(4-chlorophenoxy)benzenamine", "Benzenamine, 5-chloro-2-(4-chlorophenoxy)-", "Aniline, 5-chloro-2-(p-chlorophenoxy)-", "5-Chloro-2-(4-chlorophenoxy)benzenamine", "5-Chloro-2-(p-chlorophenoxy)aniline", "4,4\u2032-Dichloro-2-aminodiphenyl ether", "2-Amino-4,4\u2032-dichlorodiphenyl ether", "Fast Red FR Base", "5-Chloro-2-(4-chlorophenoxy)aniline", "Red FR Base", "NSC 42129"], "SMILES": "O(C1=C(N)C=C(Cl)C=C1)C2=CC=C(Cl)C=C2", "physical_data": {"Molecular Weight": "254.11", "Molecular Formula": "C12H9Cl2NO", "Melting Point": "67 \u00b0C"}}