{"cas_no": "121-33-5", "cn_name": "\u9999\u5170\u7d20", "en_name": ["Vanillin", "Benzaldehyde, 4-hydroxy-3-methoxy-", "Vanillin", "4-Hydroxy-3-methoxybenzaldehyde", "3-Methoxy-4-hydroxybenzaldehyde", "Vanillic aldehyde", "Vanillaldehyde", "Lioxin", "p-Hydroxy-m-methoxybenzaldehyde", "2-Methoxy-4-formylphenol", "4-Hydroxy-5-methoxybenzaldehyde", "4-Formyl-2-methoxyphenol", "4-Hydroxy-m-anisaldehyde", "p-Vanillin", "m-Methoxy-p-hydroxybenzaldehyde", "H 0264", "Rhovanil", "NSC 15351", "NSC 403658", "NSC 48383", "Vanillum", "4-Hydroxy-3-methoxy-benzyldehyde", "NPLC 0145"], "SMILES": "O(C)C1=CC(C=O)=CC=C1O", "physical_data": {"Molecular Weight": "152.15", "Molecular Formula": "C8H8O3", "Boiling Point": "284-285 \u00b0C @ Press: 760 Torr", "Melting Point": "80-81 \u00b0C", "Density": "1.056 g/cm\u00b3"}}