{"cas_no": "121-02-8", "cn_name": "2-\u7532\u57fa-5-\u785d\u57fa\u82ef\u78fa\u9170\u6c2f", "en_name": ["2-Methyl-5-nitrobenzenesulfonyl chloride", "Benzenesulfonyl chloride, 2-methyl-5-nitro-", "o-Toluenesulfonyl chloride, 5-nitro-", "2-Methyl-5-nitrobenzenesulfonyl chloride", "5-Nitro-o-toluenesulfonyl chloride", "2-Methyl-5-nitrophenylsulfonyl chloride", "NSC 49752", "2-Methyl-5-nitrobenzene-1-sulfonyl chloride"], "SMILES": "S(Cl)(=O)(=O)C1=CC(N(=O)=O)=CC=C1C", "physical_data": {"Molecular Weight": "235.64", "Molecular Formula": "C7H6ClNO4S", "Boiling Point": "195-198 \u00b0C @ Press: 20 Torr", "Melting Point": "42.0-44.5 \u00b0C"}}