{"cas_no": "121-92-6", "cn_name": "\u95f4\u785d\u57fa\u82ef\u7532\u9178", "en_name": ["3-Nitrobenzoic acid", "Benzoic acid, 3-nitro-", "Benzoic acid, m-nitro-", "3-Nitrobenzoic acid", "m-Nitrobenzoic acid", "m-Nitrobenzenecarboxylic acid", "m-Carboxynitrobenzene", "m-Nitrobenzoic acid", "NSC 9801"], "SMILES": "C(O)(=O)C1=CC(N(=O)=O)=CC=C1", "physical_data": {"Molecular Weight": "167.12", "Molecular Formula": "C7H5NO4", "Melting Point": "142 \u00b0C", "Density": "1.494 g/cm\u00b3"}}