{"cas_no": "121-34-6", "cn_name": "\u9999\u8349\u9178", "en_name": ["Vanillic acid", "Benzoic acid, 4-hydroxy-3-methoxy-", "Vanillic acid", "4-Hydroxy-3-methoxybenzoic acid", "VA", "3-Methoxy-4-hydroxybenzoic acid", "2-Methoxy-4-carboxyphenol", "NSC 3987", "NSC 674322", "m-Methoxy-p-hydroxy-benzoic acid", "Methylprotocatechuic acid", "4-Carboxyl-2-methoxyphenol", "MeSH ID: D014641"], "SMILES": "O(C)C1=CC(C(O)=O)=CC=C1O", "physical_data": {"Molecular Weight": "168.15", "Molecular Formula": "C8H8O4", "Melting Point": "211.5 \u00b0C"}}