{"cas_no": "121-18-6", "cn_name": "4-\u6c2f-3-\u785d\u57fa\u82ef\u78fa\u9178", "en_name": ["4-Chloro-3-nitrobenzenesulfonic acid", "Benzenesulfonic acid, 4-chloro-3-nitro-", "4-Chloro-3-nitrobenzenesulfonic acid", "o-Nitrochlorobenzene-p-sulfonic acid", "2-Nitrochlorobenzene-4-sulfonic acid", "1-Chloro-2-nitrobenzene-4-sulfonic acid", "3-Nitro-4-chlorobenzenesulfonic acid", "NSC 7827"], "SMILES": "N(=O)(=O)C1=CC(S(=O)(=O)O)=CC=C1Cl", "physical_data": {"Molecular Weight": "237.62", "Molecular Formula": "C6H4ClNO5S", "Melting Point": "114-115 \u00b0C"}}