{"cas_no": "121-25-5", "cn_name": "\u5b89\u666e\u7f57\u6797", "en_name": ["Amprolium chloride", "Pyridinium, 1-[(4-amino-2-propyl-5-pyrimidinyl)methyl]-2-methyl-, chloride (1:1)", "1-[(4-Amino-2-propyl-5-pyrimidinyl)methyl]-2-picolinium chloride", "2-Picolinium, 1-[(4-amino-2-propyl-5-pyrimidinyl)methyl]-, chloride", "Pyridinium, 1-[(4-amino-2-propyl-5-pyrimidinyl)methyl]-2-methyl-, chloride", "Amprolium", "Anticoccid", "Amprolium chloride", "Amprovine", "Amprolium plus", "Amprolsol", "Ampisol", "1-((4-Amino-2-propylpyrimidin-5-yl)methyl)-2-methylpyridin-1-ium chloride", "MeSH ID: D000670"], "SMILES": "C(C=1C(N)=NC(CCC)=NC1)[N+]=2C(C)=CC=CC2.[Cl-]", "physical_data": {"Molecular Weight": "", "Molecular Formula": "C14H19N4.Cl", "Melting Point": "246-248 \u00b0C (decomp)"}}