{"cas_no": "121-63-1", "cn_name": "4,4'-\u6c27\u53cc\u82ef\u78fa\u9170\u6c2f", "en_name": ["4,4\u2032-Oxybis[benzenesulfonyl chloride]", "Benzenesulfonyl chloride, 4,4\u2032-oxybis-", "Benzenesulfonyl chloride, 4,4\u2032-oxydi-", "4,4\u2032-Oxybis[benzenesulfonyl chloride]", "4,4\u2032-Oxydibenzenesulfonyl chloride", "Diphenyl ether 4,4\u2032-disulfonyl chloride", "Oxybis(benzenesulfonyl chloride)", "Bis(4-chlorosulfonylphenyl) ether", "p,p\u2032-Oxybis(benzenesulfonyl chloride)", "4,4\u2032-Oxybis(benzenesulfonyl chloride)", "Oxybis(4-benzenesulfonyl chloride)", "Phenoxybenzene-4,4\u2032-disulfonyl chloride", "4,4\u2032-Bis(chlorosulfonyl)biphenyl ether", "4,4\u2032-Bis(chlorosulfonyl)diphenyl ether", "NSC 212"], "SMILES": "S(Cl)(=O)(=O)C1=CC=C(OC2=CC=C(S(Cl)(=O)=O)C=C2)C=C1", "physical_data": {"Molecular Weight": "367.22", "Molecular Formula": "C12H8Cl2O5S2", "Melting Point": "128-129 \u00b0C"}}