{"cas_no": "121-03-9", "cn_name": "4-\u785d\u57fa\u7532\u82ef-2-\u78fa\u9178", "en_name": ["2-Methyl-5-nitrobenzenesulfonic acid", "Benzenesulfonic acid, 2-methyl-5-nitro-", "o-Toluenesulfonic acid, 5-nitro-", "2-Methyl-5-nitrobenzenesulfonic acid", "p-Nitrotoluene-o-sulfonic acid", "PNTOS", "4-Nitro-2-toluenesulfonic acid", "5-Nitro-o-toluenesulfonic acid", "5-Nitro-2-methylbenzenesulfonic acid", "NSC 9580"], "SMILES": "S(=O)(=O)(O)C1=CC(N(=O)=O)=CC=C1C", "physical_data": {"Molecular Weight": "217.20", "Molecular Formula": "C7H7NO5S", "Melting Point": "133.5 \u00b0C"}}