{"cas_no": "121-24-4", "cn_name": "\u6c27\u5316\u578b\u8c37\u80f1\u7518\u80bd", "en_name": ["Oxidized glutathione", "Glycine, L-\u03b3-glutamyl-L-cysteinyl-, bimol. (2\u21922\u2032)-disulfide", "Glutamine, N,N\u2032-[dithiobis[1-[(carboxymethyl)carbamoyl]ethylene]]di-, L-", "Glutamine, N,N\u2032-[dithiobis[1-[(carboxymethyl)carbamoyl]ethylene]]di-", "Glutathione-SSG", "GSSG", "Oxidized glutathione", "Glutathione, disulfide", "Glutathione, oxidized", "Glutathione-S-S-glutathione", "Oxidized L-glutathione", "Glutathione disulphide", "Sleep-promoting factor B", "Oxiglutatione", "Selenoglutathione", "MeSH ID: D019803"], "SMILES": "C(NC(CCC(C(O)=O)N)=O)(C(NCC(O)=O)=O)CSSCC(NC(CCC(C(O)=O)N)=O)C(NCC(O)=O)=O", "physical_data": {"Molecular Weight": "", "Molecular Formula": "C20H32N6O12S2", "Melting Point": "170-172 \u00b0C"}}