{"cas_no": "121-44-8", "cn_name": "\u4e09\u4e59\u80fa", "en_name": ["Triethylamine", "Ethanamine, N,N-diethyl-", "Triethylamine", "N,N-Diethylethanamine", "(Diethylamino)ethane", "TEA", "N,N,N-Triethylamine", "LE 11-5RG", "ATB 0489", "T 0886"], "SMILES": "N(CC)(CC)CC", "physical_data": {"Molecular Weight": "101.19", "Molecular Formula": "C6H15N", "Boiling Point": "89.3 \u00b0C", "Melting Point": "-114.7 \u00b0C", "Density": "0.7255 g/cm\u00b3 @ Temp: 25 \u00b0C"}}