{"cas_no": "121-72-2", "cn_name": "N,N-\u4e8c\u7532\u57fa-\u95f4\u7532\u57fa\u82ef\u80fa", "en_name": ["Dimethyl-m-toluidine", "Benzenamine, N,N,3-trimethyl-", "m-Toluidine, N,N-dimethyl-", "N,N,3-Trimethylbenzenamine", "N,N-Dimethyl-m-methylaniline", "m-Methyl-N,N-dimethylaniline", "N,N-Dimethyl-3-methylaniline", "m,N,N-Trimethylaniline", "Dimethyl-m-toluidine", "N,N,3-Trimethylaniline", "3-Methyl-N,N-dimethylaniline", "3-(Dimethylamino)toluene", "N,N-Dimethyl-m-toluidine", "NSC 1788"], "SMILES": "N(C)(C)C1=CC(C)=CC=C1", "physical_data": {"Molecular Weight": "135.21", "Molecular Formula": "C9H13N", "Boiling Point": "212 \u00b0C", "Melting Point": "127 \u00b0C", "Density": "0.9410 g/cm\u00b3"}}