{"cas_no": "121-88-0", "cn_name": "2-\u6c28\u57fa-5-\u785d\u57fa\u82ef\u915a", "en_name": ["2-Amino-5-nitrophenol", "Phenol, 2-amino-5-nitro-", "2-Amino-5-nitrophenol", "C.I. 76535", "5-Nitro-2-aminophenol", "Ursol Yellow Brown A", "2-Hydroxy-4-nitroaniline", "5-Nitro-2-amino-1-hydroxybenzene", "3-Hydroxy-4-aminonitrobenzene", "3-Nitro-6-aminophenol", "NSC 7087"], "SMILES": "N(=O)(=O)C1=CC(O)=C(N)C=C1", "physical_data": {"Molecular Weight": "154.12", "Molecular Formula": "C6H6N2O3", "Melting Point": "207-208 \u00b0C"}}