{"cas_no": "121-98-2", "cn_name": "4-\u7532\u6c27\u57fa\u82ef\u7532\u9178\u7532\u916f", "en_name": ["Methyl 4-methoxybenzoate", "Benzoic acid, 4-methoxy-, methyl ester", "p-Anisic acid, methyl ester", "Methyl p-methoxybenzoate", "Methyl p-anisate", "Methyl 4-methoxybenzoate", "p-Methoxybenzoic acid methyl ester", "4-Methoxybenzoic acid methyl ester", "4-(Methoxycarbonyl)anisole", "NSC 7324"], "SMILES": "C(OC)(=O)C1=CC=C(OC)C=C1", "physical_data": {"Molecular Weight": "166.17", "Molecular Formula": "C9H10O3", "Boiling Point": "256 \u00b0C", "Melting Point": "49 \u00b0C"}}