{"cas_no": "121-32-4", "cn_name": "\u4e59\u57fa\u9999\u5170\u7d20", "en_name": ["Ethylvanillin", "Benzaldehyde, 3-ethoxy-4-hydroxy-", "3-Ethoxy-4-hydroxybenzaldehyde", "Bourbonal", "Ethavan", "Ethovan", "Ethylprotal", "Protocatechuic aldehyde ethyl ether", "Quantrovanil", "Vanillal", "Ethylvanillin", "4-Hydroxy-3-ethoxybenzaldehyde", "Vanirom", "2-Ethoxy-4-formylphenol", "Rhodiarome", "NSC 1803", "NSC 67240", "Arovanillon", "3-Ethylvanillin", "YS 065"], "SMILES": "O(CC)C1=CC(C=O)=CC=C1O", "physical_data": {"Molecular Weight": "166.17", "Molecular Formula": "C9H10O3", "Boiling Point": "285 \u00b0C", "Melting Point": "77.5 \u00b0C"}}