{"cas_no": "121-89-1", "cn_name": "\u95f4\u785d\u57fa\u82ef\u4e59\u916e", "en_name": ["3\u2032-Nitroacetophenone", "Ethanone, 1-(3-nitrophenyl)-", "Acetophenone, 3\u2032-nitro-", "1-(3-Nitrophenyl)ethanone", "m-Nitroacetophenone", "3\u2032-Nitroacetophenone", "Methyl 3-nitrophenyl ketone", "(3-Nitrophenyl) methyl ketone", "m-Acetylnitrobenzene", "1-Acetyl-3-nitrobenzene", "3-Acetylnitrobenzene", "NSC 5511", "1-(3-Nitrophenyl)-1-ethanone", "3-Nitrophenylethanone", "Ethanone, 1-[3-(nitromethyl)phenyl]-"], "SMILES": "C(C)(=O)C1=CC(N(=O)=O)=CC=C1", "physical_data": {"Molecular Weight": "165.15", "Molecular Formula": "C8H7NO3", "Boiling Point": "202 \u00b0C", "Melting Point": "81 \u00b0C"}}