{"cas_no": "121-97-1", "cn_name": "\u5bf9\u7532\u6c27\u57fa\u82ef\u4e19\u916e", "en_name": ["4\u2032-Methoxypropiophenone", "1-Propanone, 1-(4-methoxyphenyl)-", "Propiophenone, 4\u2032-methoxy-", "Propiophenone, p-methoxy-", "1-(4-Methoxyphenyl)-1-propanone", "4\u2032-Methoxypropiophenone", "p-Methoxypropiophenone", "Ethyl 4-methoxyphenyl ketone", "4-Propanoylanisole", "NSC 11834", "Ethyl p-methoxyphenyl ketone", "1-Methoxy-4-propanoylbenzene", "1-Propanoyl-4-methoxybenzene"], "SMILES": "C(CC)(=O)C1=CC=C(OC)C=C1", "physical_data": {"Molecular Weight": "164.20", "Molecular Formula": "C10H12O2", "Boiling Point": "125 \u00b0C @ Press: 4 Torr", "Melting Point": "24-26 \u00b0C"}}