{"cas_no": "121-54-0", "cn_name": "\u82c4\u7d22\u6c2f\u94f5", "en_name": ["Benzethonium chloride", "Benzenemethanaminium, N,N-dimethyl-N-[2-[2-[4-(1,1,3,3-tetramethylbutyl)phenoxy]ethoxy]ethyl]-, chloride (1:1)", "Ammonium, benzyldimethyl[2-[2-[p-(1,1,3,3-tetramethylbutyl)phenoxy]ethoxy]ethyl]-, chloride", "Benzenemethanaminium, N,N-dimethyl-N-[2-[2-[4-(1,1,3,3-tetramethylbutyl)phenoxy]ethoxy]ethyl]-, chloride", "Benzethonium chloride", "Benzetonium chloride", "Benzyldimethyl[2-[2-[p-(1,1,3,3-tetramethylbutyl)phenoxy]ethoxy]ethyl]ammonium chloride", "BZT", "Diapp", "Anti-Germ 77", "Hyamine 1622", "p-tert-Octylphenoxyethoxyethyldimethylbenzylammonium chloride", "Phemeride", "Phemerol chloride", "Polymine D", "Quatrachlor", "Phemerol", "Benzyldimethyl[2-[2-[4-(1,1,3,3-tetramethylbutyl)phenoxy]ethoxy]ethyl]ammonium chloride", "(Diisobutylphenoxyethoxyethyl)dimethylbenzylammonium chloride", "Phemithyn", "Solamin", "[2-[2-(4-Diisobutylphenoxy)ethoxy]ethyl]dimethylbenzylammonium chloride", "Antiseptol", "MED 81", "N-Benzyl-N,N-dimethyl-N-(4-[1,1,3,3-tetramethylbutyl]phenoxyethoxyethyl)ammonium chloride", "Antiseptol (quaternary compound)", "Bencetonium chloride", "Benzethionium chloride", "LonzaGuard", "2-[2-[p-(Diisobutyl)phenoxy]ethoxy]ethyldimethylbenzylammonium chloride", "Bian Suo Lv An", "Hyamine 1622M"], "SMILES": "C(CC(C)(C)C)(C)(C)C1=CC=C(OCCOCC[N+](CC2=CC=CC=C2)(C)C)C=C1.[Cl-]", "physical_data": {"Molecular Weight": "", "Molecular Formula": "C27H42NO2.Cl", "Melting Point": "164-166 \u00b0C"}}