{"cas_no": "121-79-9", "cn_name": "\u6ca1\u98df\u5b50\u9178\u4e19\u916f", "en_name": ["Propyl gallate", "Benzoic acid, 3,4,5-trihydroxy-, propyl ester", "Gallic acid, propyl ester", "Nipa 49", "Nipagallin P", "Progallin P", "Propyl gallate", "n-Propyl 3,4,5-trihydroxybenzoate", "Tenox PG", "n-Propyl gallate", "Propyl 3,4,5-trihydroxybenzoate", "PG", "Nipanox S 1", "Gallic acid n-propyl ester", "E 310", "NSC 2626", "Hemostyptin", "Marupi Gallate", "Antioxidant PG", "GAPR", "3,4,5-Trihydroxybenzoic acid propyl ester", "MeSH ID: D011435"], "SMILES": "C(OCCC)(=O)C1=CC(O)=C(O)C(O)=C1", "physical_data": {"Molecular Weight": "212.20", "Molecular Formula": "C10H12O5", "Melting Point": "130 \u00b0C"}}