{"cas_no": "121-82-4", "cn_name": "\u9ed1\u7d22\u4eca(\u73af\u4e09\u4e9a\u7532\u57fa\u4e09\u785d\u80fa)", "en_name": ["RDX", "1,3,5-Triazine, hexahydro-1,3,5-trinitro-", "s-Triazine, hexahydro-1,3,5-trinitro-", "Hexahydro-1,3,5-trinitro-1,3,5-triazine", "T4", "Cyclonite", "Cyclotrimethylenenitramine", "Cyclotrimethylenetrinitramine", "Hexahydro-1,3,5-trinitro-s-triazine", "Hexogen", "RDX", "1,3,5-Trinitro-1,3,5-triazacyclohexane", "Hexogen (explosive)", "Trimethylenetrinitramine", "Hexogen 5W", "1,3,5-Trinitrohexahydro-s-triazine", "1,3,5-Triaza-1,3,5-trinitrocyclohexane", "1,3,5-Trinitroperhydro-1,3,5-triazine", "1,3,5-Trinitrohexahydro-1,3,5-triazine", "PBX(AF) 108", "PBXW 108(E)", "PE 4", "CX 84A", "PE 4 (explosive)", "PBX-L 3", "PBX-L 5", "PBX-MC", "PBX-MVF", "PBXN 107A", "Hexahydro-1,3,5-trinitro-1,3,5-s-triazine", "V 29", "V 29 (propellant)", "PBX-B 2238", "PBXN 108", "PBXN(AF) 108", "PBX-C 117", "CPX 301", "TS 1", "PHX 34", "PBX-W 108", "TS 1 (propellant)", "PBXN 6", "PBXN 107", "PBXN 201", "PBX 9407", "Composition A 3", "A 3", "A 3 (explosive)", "PBXN 8", "PMW 8", "A-IX 1", "Giekfol", "Heksoflen", "NSC 312447", "A-IX 2", "PBXC 116", "CH 6", "CH 6 (explosive)", "Hexomax"], "SMILES": "N(=O)(=O)N1CN(N(=O)=O)CN(N(=O)=O)C1", "physical_data": {"Molecular Weight": "222.12", "Molecular Formula": "C3H6N6O6", "Melting Point": "205-206 \u00b0C", "Density": "1.82 g/cm\u00b3 @ Temp: 20 \u00b0C"}}