{"cas_no": "121-39-1", "cn_name": "3-\u82ef\u57fa\u73af\u6c27\u4e59\u70f7\u7532\u9178\u4e59\u916f", "en_name": ["Ethyl 3-phenylglycidate", "2-Oxiranecarboxylic acid, 3-phenyl-, ethyl ester", "Glycidic acid, 3-phenyl-, ethyl ester", "Oxiranecarboxylic acid, 3-phenyl-, ethyl ester", "Ethyl 3-phenylglycidate", "Ethyl \u03b1,\u03b2-epoxyhydrocinnamate", "Ethyl phenylglycidate", "Ethyl 2,3-epoxy-3-phenylpropionate", "Ethyl 3-phenyl-2-oxiranecarboxylate", "NSC 8899"], "SMILES": "C(OCC)(=O)C1C(O1)C2=CC=CC=C2", "physical_data": {"Molecular Weight": "192.21", "Molecular Formula": "C11H12O3", "Boiling Point": "128-130 \u00b0C @ Press: 4-5 Torr", "Melting Point": "17-18 \u00b0C", "Density": "1.1023 g/cm\u00b3 @ Temp: 20 \u00b0C"}}