{"cas_no": "121-57-3", "cn_name": "\u5bf9\u6c28\u57fa\u82ef\u78fa\u9178", "en_name": ["Sulfanilic acid", "Benzenesulfonic acid, 4-amino-", "Sulfanilic acid", "4-Aminobenzenesulfonic acid", "p-Aminobenzenesulfonic acid", "Aniline-p-sulfonic acid", "Aniline-4-sulfonic acid", "Sulphanilic acid", "1-Aminobenzene-4-sulfonic acid", "p-Aminophenylsulfonic acid", "p-Sulfoaniline", "4-Aminophenylsulfonic acid", "4-Sulfoaniline", "NSC 7170", "4-Aminobenzene-1-sulfonic acid"], "SMILES": "S(=O)(=O)(O)C1=CC=C(N)C=C1", "physical_data": {"Molecular Weight": "173.19", "Molecular Formula": "C6H7NO3S", "Boiling Point": "279 \u00b0C", "Melting Point": "288 \u00b0C", "Density": "1.485 g/cm\u00b3 @ Temp: 25 \u00b0C"}}