{"cas_no": "121-01-7", "cn_name": "2-\u6c28\u57fa-5-\u785d\u57fa\u4e09\u6c1f\u7532\u82ef", "en_name": ["4-Nitro-2-(trifluoromethyl)aniline", "Benzenamine, 4-nitro-2-(trifluoromethyl)-", "o-Toluidine, \u03b1,\u03b1,\u03b1-trifluoro-4-nitro-", "4-Nitro-2-(trifluoromethyl)benzenamine", "\u03b1,\u03b1,\u03b1-Trifluoro-4-nitro-o-toluidine", "4-Nitro-2-(trifluoromethyl)aniline", "2-(Trifluoromethyl)-4-nitroaniline", "2-Amino-5-nitrobenzotrifluoride", "1-Amino-2-trifluoromethyl-4-nitrobenzene", "4-Nitro-2-trifluoromethylphenylamine", "4-Nitro-2-trifluoromethylbenzenamine"], "SMILES": "C(F)(F)(F)C1=CC(N(=O)=O)=CC=C1N", "physical_data": {"Molecular Weight": "206.12", "Molecular Formula": "C7H5F3N2O2", "Melting Point": "88 \u00b0C"}}