{"cas_no": "121-29-9", "cn_name": "\u9664\u866b\u83ca\u7d20", "en_name": ["Pyrethrin II", "Cyclopropanecarboxylic acid, 3-[(1E)-3-methoxy-2-methyl-3-oxo-1-propen-1-yl]-2,2-dimethyl-, (1S)-2-methyl-4-oxo-3-(2Z)-2,4-pentadien-1-yl-2-cyclopenten-1-yl ester, (1R,3R)-", "Pyrethrin II", "Cyclopropaneacrylic acid, 3-carboxy-\u03b1,2,2-trimethyl-, 1-methyl ester, ester with 4-hydroxy-3-methyl-2-(2,4-pentadienyl)-2-cyclopenten-1-one", "Cyclopropanecarboxylic acid, 3-(3-methoxy-2-methyl-3-oxo-1-propenyl)-2,2-dimethyl-, 2-methyl-4-oxo-3-(2,4-pentadienyl)-2-cyclopenten-1-yl ester, [1R-[1\u03b1[S*(Z)],3\u03b2(E)]]-", "Cyclopropanecarboxylic acid, 3-[(1E)-3-methoxy-2-methyl-3-oxo-1-propenyl]-2,2-dimethyl-, (1S)-2-methyl-4-oxo-3-(2Z)-2,4-pentadienyl-2-cyclopenten-1-yl ester, (1R,3R)-", "Pyrethrin", "Pyrethrin 2", "(+)-Pyrethronyl (+)-pyrethrate", "Biospray S", "Pyrethrum mist", "Pyrethrin B"], "SMILES": "C(=C(C(OC)=O)C)C1C(C(OC2C(C)=C(CC=CC=C)C(=O)C2)=O)C1(C)C", "physical_data": {"Molecular Weight": "372.45", "Molecular Formula": "C22H28O5", "Boiling Point": "192-193 \u00b0C @ Press: 7 x 10<sup>-3</sup> Torr"}}