{"cas_no": "121-61-9", "cn_name": "\u5bf9\u4e59\u9170\u80fa\u57fa\u82ef\u78fa\u9170\u80fa", "en_name": ["Acetylsulfanilamide", "Acetamide, N-[4-(aminosulfonyl)phenyl]-", "Acetanilide, 4\u2032-sulfamoyl-", "N-[4-(Aminosulfonyl)phenyl]acetamide", "N4-Acetylsulfanilamide", "Neotherapol", "p-Sulfamylacetanilide", "Erytrin", "p-Acetamidobenzenesulfonamide", "Benzenesulfonamide, 4-(acetylamino)-", "Sulfanilamide-N4-acetate", "A-319", "N-(4-Sulfamoylphenyl)acetamide", "p-(Acetylamino)benzenesulfonamide", "4\u2032-Sulfamoylacetanilide", "Acetylsulfanilamide", "N4-Acetsulfanilamide", "4-Acetylaminobenzenesulfonamide", "4-Acetamidobenzenesulfonamide", "p-Sulfamoylacetanilide", "N\u2032-Acetylsulphanilamide", "NSC 217", "NSC 406839"], "SMILES": "S(N)(=O)(=O)C1=CC=C(NC(C)=O)C=C1", "physical_data": {"Molecular Weight": "214.24", "Molecular Formula": "C8H10N2O3S", "Melting Point": "219.5 \u00b0C"}}