{"cas_no": "121-73-3", "cn_name": "3-\u785d\u57fa\u6c2f\u82ef", "en_name": ["1-Chloro-3-nitrobenzene", "Benzene, 1-chloro-3-nitro-", "1-Chloro-3-nitrobenzene", "3-Nitrochlorobenzene", "3-Chloronitrobenzene", "3-Chloro-1-nitrobenzene", "m-Nitrochlorobenzene", "m-Chloronitrobenzene", "NSC 5502", "3-Nitrophenyl chloride", "3-Nitro-1-chlorobenzene", "1-Nitro-3-chlorobenzene"], "SMILES": "N(=O)(=O)C1=CC(Cl)=CC=C1", "physical_data": {"Molecular Weight": "157.55", "Molecular Formula": "C6H4ClNO2", "Boiling Point": "236 \u00b0C @ Press: 760 Torr", "Melting Point": "46 \u00b0C", "Density": "1.534 g/cm\u00b3 @ Temp: 20 \u00b0C"}}