{"cas_no": "121-50-6", "cn_name": "3-\u6c28\u57fa-4-\u6c2f\u4e09\u6c1f\u7532\u82ef", "en_name": ["2-Chloro-5-(trifluoromethyl)aniline", "Benzenamine, 2-chloro-5-(trifluoromethyl)-", "m-Toluidine, 6-chloro-\u03b1,\u03b1,\u03b1-trifluoro-", "2-Chloro-5-(trifluoromethyl)benzenamine", "3-Amino-4-chlorobenzotrifluoride", "3-Amino-4-chloro-\u03b1,\u03b1,\u03b1-trifluorotoluene", "Azoene Fast Orange RD Salt", "4-Chloro-3-aminobenzotrifluoride", "2-Chloro-5-(trifluoromethyl)aniline", "6-Chloro-\u03b1,\u03b1,\u03b1-trifluoro-m-toluidine", "Daito Orange Salt RD", "Fast Orange RD Salt", "Fast Orange Salt RD", "Fast Orange Salt RDA", "Fast Orange Salt RDN", "Hiltosal Fast Orange RD Salt", "Orange Salt NRD", "Sanyo Fast Orange Salt RD", "\u03b1,\u03b1,\u03b1-Trifluoro-6-chloro-m-toluidine", "6-Chloro-3-(trifluoromethyl)aniline", "NSC 10318", "(2-Chloro-5-trifluoromethylphenyl)amine", "1-Amino-2-chloro-5-trifluoromethylbenzene"], "SMILES": "C(F)(F)(F)C1=CC(N)=C(Cl)C=C1", "physical_data": {"Molecular Weight": "195.57", "Molecular Formula": "C7H5ClF3N", "Boiling Point": "82-83 \u00b0C @ Press: 9-10 Torr"}}