{"cas_no": "121-05-1", "cn_name": "N,N-\u4e8c\u5f02\u4e19\u57fa\u4e59\u4e8c\u80fa", "en_name": ["N,N-Diisopropylethylenediamine", "1,2-Ethanediamine, N1,N1-bis(1-methylethyl)-", "Ethylenediamine, N,N-diisopropyl-", "1,2-Ethanediamine, N,N-bis(1-methylethyl)-", "N1,N1-Bis(1-methylethyl)-1,2-ethanediamine", "N,N-Diisopropylethylenediamine", "2-(Diisopropylamino)ethylamine", "N,N-Diisopropyl-1,2-ethanediamine", "2-(Diisopropylamino)ethanamine", "N-(N,N-Diisopropylamino)ethylamine", "N,N-Bis(1-methylethyl)-1,2-ethanediamine", "NSC 166335", "[2-(Diisopropylamino)ethan-1-yl]amine", "(2-Aminoethyl)bis(propan-2-yl)amine", "2-Aminoethyldiisopropylamine"], "SMILES": "N(CCN)(C(C)C)C(C)C", "physical_data": {"Molecular Weight": "144.26", "Molecular Formula": "C8H20N2", "Boiling Point": "38 \u00b0C @ Press: 3-4 Torr", "Melting Point": "109-111.5 \u00b0C"}}