{"cas_no": "121-59-5", "cn_name": "\u5361\u5df4\u80c2", "en_name": ["Carbarsone", "Arsonic acid, [4-[(aminocarbonyl)amino]phenyl]-", "Arsanilic acid, N-carbamoyl-", "Carbarsone", "[4-[(Aminocarbonyl)amino]phenyl]arsonic acid", "Amabevan", "Ameban", "Amebarsone", "Amibiarson", "Aminarson", "Aminarsone", "Aminoarson", "Arsambide", "p-Arsonophenylurea", "p-Carbamidobenzenearsonic acid", "4-Carbamylaminophenylarsonic acid", "N-Carbamylarsanilic acid", "Fenarsone", "Histocarb", "Leucarsone", "p-Ureidobenzenearsonic acid", "4-Ureidophenylarsonic acid", "N-Carbamoylarsanilic acid", "Carbarson", "4-Ureidobenzenearsonic acid", "Pentarsone", "Amebarsene", "Kutan", "Carb-O-Sep", "NSC 32868"], "SMILES": "[As](=O)(O)(O)C1=CC=C(NC(N)=O)C=C1", "physical_data": {"Molecular Weight": "260.08", "Molecular Formula": "C7H9AsN2O4", "Melting Point": "174 \u00b0C"}}