{"cas_no": "121-30-2", "cn_name": "\u7cbe\u78fa\u80fa", "en_name": ["4-Amino-6-chloro-1,3-benzenedisulfonamide", "1,3-Benzenedisulfonamide, 4-amino-6-chloro-", "m-Benzenedisulfonamide, 4-amino-6-chloro-", "4-Amino-6-chloro-1,3-benzenedisulfonamide", "1-Amino-5-chloro-2,4-benzenedisulfonamide", "4-Amino-6-chloro-m-benzenedisulfonamide", "Salmid", "Su 5683", "4-Amino-6-chlorobenzene-1,3-disulfonamide", "5-Chloro-2,4-disulfamoylaniline", "Chloraminophenamide", "Chloroaminophenamide", "Idorese", "Salamid", "3-Chloro-4,6-disulfamoylaniline", "Salamide", "Salamide (diuretic)", "NSC 93772", "4-Amino-6-chlorobenzene-1,3-disulphonamide"], "SMILES": "S(N)(=O)(=O)C1=CC(S(N)(=O)=O)=C(N)C=C1Cl", "physical_data": {"Molecular Weight": "285.73", "Molecular Formula": "C6H8ClN3O4S2", "Melting Point": "254.5 \u00b0C"}}