{"cas_no": "121-45-9", "cn_name": "\u4e09\u7532\u6c27\u57fa\u78f7", "en_name": ["Trimethyl phosphite", "Phosphorous acid, trimethyl ester", "Trimethyl phosphite", "Trimethoxyphosphine", "NSC 6513"], "SMILES": "P(OC)(OC)OC", "physical_data": {"Molecular Weight": "124.08", "Molecular Formula": "C3H9O3P", "Boiling Point": "111.5 \u00b0C", "Melting Point": "-78 \u00b0C", "Density": "1.0520 g/cm\u00b3 @ Temp: 20 \u00b0C"}}