{"cas_no": "121-90-4", "cn_name": "\u95f4\u785d\u57fa\u82ef\u7532\u9170\u6c2f", "en_name": ["3-Nitrobenzoyl chloride", "Benzoyl chloride, 3-nitro-", "Benzoyl chloride, m-nitro-", "3-Nitrobenzoyl chloride", "m-Nitrobenzoyl chloride", "3-Nitrobenzoic acid chloride", "NSC 5380"], "SMILES": "C(Cl)(=O)C1=CC(N(=O)=O)=CC=C1", "physical_data": {"Molecular Weight": "185.56", "Molecular Formula": "C7H4ClNO3", "Boiling Point": "276.5 \u00b0C", "Melting Point": "36 \u00b0C"}}