{"cas_no": "121-52-8", "cn_name": "3-\u785d\u57fa\u82ef\u78fa\u9170\u80fa", "en_name": ["3-Nitrobenzenesulfonamide", "Benzenesulfonamide, 3-nitro-", "Benzenesulfonamide, m-nitro-", "3-Nitrobenzenesulfonamide", "m-Nitrobenzenesulfonamide", "3-Nitrobenzolesulfamide", "NSC 407487", "3-Nitrobenzene-1-sulfonamide"], "SMILES": "S(N)(=O)(=O)C1=CC(N(=O)=O)=CC=C1", "physical_data": {"Molecular Weight": "202.19", "Molecular Formula": "C6H6N2O4S", "Melting Point": "167 \u00b0C"}}