{"cas_no": "121-81-3", "cn_name": "3,5-\u4e8c\u785d\u57fa\u82ef\u7532\u9170\u80fa", "en_name": ["3,5-Dinitrobenzamide", "Benzamide, 3,5-dinitro-", "3,5-Dinitrobenzamide", "Nitromide", "Unistat", "Tristat", "NSC 60719"], "SMILES": "C(N)(=O)C1=CC(N(=O)=O)=CC(N(=O)=O)=C1", "physical_data": {"Molecular Weight": "211.13", "Molecular Formula": "C7H5N3O5", "Melting Point": "184 \u00b0C"}}