{"cas_no": "121-46-0", "cn_name": "\u4e8c\u73af\u5e9a\u4e8c\u70ef", "en_name": ["Norbornadiene", "Bicyclo[2.2.1]hepta-2,5-diene", "2,5-Norbornadiene", "3,6-Methano-1,4-cyclohexadiene", "Bicyclo[2.2.1]heptadiene", "Norbornadiene", "NSC 13672"], "SMILES": "C12CC(C=C1)C=C2", "physical_data": {"Molecular Weight": "92.14", "Molecular Formula": "C7H8", "Boiling Point": "89.5 \u00b0C", "Melting Point": "-19.1 \u00b0C", "Density": "0.8770-0.9100 g/cm\u00b3 @ Temp: 20 \u00b0C"}}