{"cas_no": "121-40-4", "cn_name": "(-)-\u571f\u66f2\u9709\u9178", "en_name": ["(1R,6S)-3-Hydroxy-4-methyl-7-oxabicyclo[4.1.0]hept-3-ene-2,5-dione", "7-Oxabicyclo[4.1.0]hept-3-ene-2,5-dione, 3-hydroxy-4-methyl-, (1R,6S)-", "Terreic acid", "7-Oxabicyclo[4.1.0]hept-3-ene-2,5-dione, 3-hydroxy-4-methyl-, stereoisomer", "7-Oxabicyclo[4.1.0]hept-3-ene-2,5-dione, 3-hydroxy-4-methyl-, (1R)-", "(1R,6S)-3-Hydroxy-4-methyl-7-oxabicyclo[4.1.0]hept-3-ene-2,5-dione", "(-)-Terreic acid"], "SMILES": "O=C1C2C(O2)C(=O)C(O)=C1C", "physical_data": {"Molecular Weight": "154.12", "Molecular Formula": "C7H6O4", "Melting Point": "127 \u00b0C"}}