{"cas_no": "121-69-7", "cn_name": "N,N-\u4e8c\u7532\u57fa\u82ef\u80fa", "en_name": ["N,N-Dimethylaniline", "Benzenamine, N,N-dimethyl-", "Aniline, N,N-dimethyl-", "N,N-Dimethylbenzenamine", "Dimethylaniline", "(Dimethylamino)benzene", "Dimethylphenylamine", "N,N-Dimethylaminobenzene", "Versneller NL 63/10", "N,N-Dimethylaniline", "N,N-Dimethylphenylamine", "NL 63-10P", "EP 210", "NSC 7195", "DMA", "Accelerator NL 63-100"], "SMILES": "N(C)(C)C1=CC=CC=C1", "physical_data": {"Molecular Weight": "121.18", "Molecular Formula": "C8H11N", "Boiling Point": "193.54 \u00b0C", "Melting Point": "2.50 \u00b0C", "Density": "0.956 g/cm\u00b3 @ Temp: 20 \u00b0C"}}