{"cas_no": "121-71-1", "cn_name": "3-\u7f9f\u57fa\u82ef\u4e59\u916e", "en_name": ["3-Hydroxyacetophenone", "Ethanone, 1-(3-hydroxyphenyl)-", "Acetophenone, 3\u2032-hydroxy-", "1-(3-Hydroxyphenyl)ethanone", "m-Hydroxyacetophenone", "m-Acetylphenol", "3-Hydroxyacetophenone", "3-Acetylphenol", "3\u2032-Hydroxyacetophenone", "3-Hydroxyphenylethanone", "NSC 2440", "A 0104"], "SMILES": "C(C)(=O)C1=CC(O)=CC=C1", "physical_data": {"Molecular Weight": "136.15", "Molecular Formula": "C8H8O2", "Boiling Point": "296 \u00b0C", "Melting Point": "96 \u00b0C"}}