{"cas_no": "121-47-1", "cn_name": "3-\u6c28\u57fa\u82ef\u78fa\u9178", "en_name": ["3-Aminobenzenesulfonic acid", "Benzenesulfonic acid, 3-amino-", "Metanilic acid", "3-Aminobenzenesulfonic acid", "m-Anilinesulfonic acid", "m-Sulfanilic acid", "3-Anilinesulfonic acid", "m-Aminophenylsulfonic acid", "3-Sulfoaniline", "3-Aminophenylsulfonic acid", "m-Aminobenzenesulfonic acid", "m-Aminobenzenesulfonic acid", "NSC 4504", "3-Azaniumylbenzenesulfonate", "3-Aminobenzene-1-sulfonic acid", "5-Aminobenzene sulfonic acid"], "SMILES": "S(=O)(=O)(O)C1=CC(N)=CC=C1", "physical_data": {"Molecular Weight": "173.19", "Molecular Formula": "C6H7NO3S", "Melting Point": "142-143 \u00b0C"}}