{"cas_no": "121-62-0", "cn_name": "\u78fa\u80fa\u4e8c\u7532\u6c27\u5627\u5576EP\u6742\u8d28C", "en_name": ["4-Acetamidobenzenesulfonic acid", "Benzenesulfonic acid, 4-(acetylamino)-", "Sulfanilic acid, N-acetyl-", "4-(Acetylamino)benzenesulfonic acid", "4-Acetamidobenzenesulfonic acid", "Acetanilide-p-sulfonic acid", "p-Acetylaminobenzenesulfonic acid", "N-p-Acetylanilinosulfonic acid", "N-Acetylsulfanilic acid", "N4-Acetylsulfanilic acid", "p-Acetamidobenzenesulfonic acid", "4-Acetylaminobenzenesulfonic acid"], "SMILES": "S(=O)(=O)(O)C1=CC=C(NC(C)=O)C=C1", "physical_data": {"Molecular Weight": "215.23", "Molecular Formula": "C8H9NO4S", "Melting Point": "320 \u00b0C (decomp)"}}