{"cas_no": "121-87-9", "cn_name": "2-\u6c2f-4-\u785d\u57fa\u82ef\u80fa", "en_name": ["2-Chloro-4-nitroaniline", "Benzenamine, 2-chloro-4-nitro-", "Aniline, 2-chloro-4-nitro-", "2-Chloro-4-nitrobenzenamine", "o-Chloro-p-nitroaniline", "2-Chloro-4-nitroaniline", "OCPNA", "1-Amino-2-chloro-4-nitrobenzene", "2-Chloro-4-nitrophenylamine", "4-Nitro-2-chloroaniline", "NSC 3548"], "SMILES": "N(=O)(=O)C1=CC(Cl)=C(N)C=C1", "physical_data": {"Molecular Weight": "172.57", "Molecular Formula": "C6H5ClN2O2", "Boiling Point": "&gt;200 \u00b0C", "Melting Point": "108 \u00b0C", "Density": "&lt;1 g/cm\u00b3"}}