{"cas_no": "121-60-8", "cn_name": "\u5bf9\u4e59\u9170\u80fa\u57fa\u82ef\u78fa\u9170\u6c2f", "en_name": ["4-Acetamidobenzenesulfonyl chloride", "Benzenesulfonyl chloride, 4-(acetylamino)-", "Sulfanilyl chloride, N-acetyl-", "4-(Acetylamino)benzenesulfonyl chloride", "Acetanilide-p-sulfonyl chloride", "p-(Acetylamino)benzenesulfonyl chloride", "ASC", "Dagenan chloride", "4-Acetamidophenylsulfonyl chloride", "N4-Acetylsulfanilyl chloride", "p-Acetamidobenzenesulfonyl chloride", "4\u2032-(Chlorosulfonyl)acetanilide", "p-Acetamidophenylsulfonyl chloride", "4-Acetamidobenzenesulfonyl chloride", "4-Chlorosulfonylacetanilide", "p-(Chlorosulfonyl)acetanilide", "N-Acetylsulfanilyl chloride", "4-(Acetylamino)phenylsulfonyl chloride", "N-Acetyl-p-aminobenzenesulfonyl chloride", "NSC 127860", "4-Acetamidobenzene-1-sulfonyl chloride", "N-(4-Chlorosulfonylphenyl)acetamide", "p-Acetylaminophenylsulfonyl chloride", "ASC (acetylsulfanilyl chloride)"], "SMILES": "S(Cl)(=O)(=O)C1=CC=C(NC(C)=O)C=C1", "physical_data": {"Molecular Weight": "233.67", "Molecular Formula": "C8H8ClNO3S", "Melting Point": "149 \u00b0C"}}