{"cas_no": "12108-13-3", "cn_name": "2-\u7532\u57fa\u73af\u620a\u4e8c\u70ef\u4e09\u7fb0\u57fa\u9530", "en_name": ["Methylcyclopentadienylmanganese tricarbonyl", "Manganese, tricarbonyl[(1,2,3,4,5-\u03b7)-1-methyl-2,4-cyclopentadien-1-yl]-", "Manganese, tricarbonyl(methyl-\u03c0-cyclopentadienyl)-", "Manganese, tricarbonyl(methylcyclopentadienyl)-", "Methylcyclopentadienylmanganese tricarbonyl", "Tricarbonyl[(1,2,3,4,5-\u03b7)-1-methyl-2,4-cyclopentadien-1-yl]manganese", "\u03c0-Methylcyclopentadienylmanganese tricarbonyl", "Tricarbonyl(methylcyclopentadienyl)manganese", "Tricarbonyl(2-methylcyclopentadienyl)manganese", "(Methylcyclopentadienyl)tricarbonylmanganese", "2-Methylcyclopentadienylmanganese tricarbonyl", "Methylcymantrene", "Tricarbonyl(methyl-\u03c0-cyclopentadienyl)manganese", "MMT", "Tricarbonyl(\u03b75-methylcyclopentadienyl)manganese", "Tricarbonyl(\u03b75-methylcyclopentadienyl)manganese(I)", "Ethyl MMT", "Hitec 3000", "NSC 22316", "Hitec 3062"], "SMILES": "C(#O)[Mn+]1234(C#O)(C#O)[C-]5(C)[CH]1=[CH]2[CH]3=[CH]45", "physical_data": {"Molecular Weight": "", "Molecular Formula": "C9H7MnO3", "Boiling Point": "233 \u00b0C", "Melting Point": "2.2 \u00b0C", "Density": "1.39 g/cm\u00b3 @ Temp: 20 \u00b0C"}}