{"cas_no": "12107-76-5", "cn_name": "\u4e8c\u4e01\u57fa\u56db\u6c1f\u787c\u9178\u94f5", "en_name": ["1-Butanamine, N-butyl-, tetrafluoroborate(1-) (1:1)", "1-Butanamine, N-butyl-, tetrafluoroborate(1-) (1:1)", "Borate(1-), tetrafluoro-, hydrogen, compd. with N-butyl-1-butanamine (1:1)", "1-Butanamine, N-butyl-, tetrafluoroborate(1-)", "Dibutylamine, tetrafluoroborate", "Dibutylamine, fluoborate", "Dibutylamine tetrafluoroborate(1-)", "Dibutylammonium tetrafluoroborate(1-)", "NSC 221675"], "SMILES": "N(CCCC)CCCC.[B+3]([F-])([F-])([F-])[F-].[H+]", "physical_data": {"Molecular Weight": "", "Molecular Formula": "C8H19N.BF4.H", "Melting Point": "212.8 \u00b0C"}}