{"cas_no": "1210-33-9", "cn_name": "\u4e8c\u82ef\u5e76\u73af\u5e9a\u70ef\u916e\u57fa\u6c2f", "en_name": ["5-Chlorodibenzosuberane", "5H-Dibenzo[a,d]cycloheptene, 5-chloro-10,11-dihydro-", "5-Chloro-10,11-dihydro-5H-dibenzo[a,d]cycloheptene", "10,11-Dihydro-5H-dibenzo[a,d]cyclohepten-5-yl chloride", "5-Chlorodibenzo[a,d]cyclohepta[1,4]diene", "5-Chlorodibenzo[a,d]cycloheptane", "5-Chlorodibenzosuberane", "NSC 86154", "Dibenzosuberanyl chloride"], "SMILES": "ClC1C=2C(CCC=3C1=CC=CC3)=CC=CC2", "physical_data": {"Molecular Weight": "228.72", "Molecular Formula": "C15H13Cl", "Melting Point": "105-107 \u00b0C"}}