{"cas_no": "1210-05-5", "cn_name": "\u4e8c\u82ef\u57fa-2,2`-\u4e8c\u7532\u919b", "en_name": ["[1,1\u2032-Biphenyl]-2,2\u2032-dicarboxaldehyde", "[1,1\u2032-Biphenyl]-2,2\u2032-dicarboxaldehyde", "Diphenaldehyde", "2,2\u2032-Biphenyldicarboxaldehyde", "2,2\u2032-Biphenyldicarbaldehyde", "Biphenyl-2,2\u2032-dialdehyde", "2,2\u2032-Diformylbiphenyl", "NSC 314066", "2-(2-Formylphenyl)benzaldehyde"], "SMILES": "C(=O)C1=C(C=CC=C1)C2=C(C=O)C=CC=C2", "physical_data": {"Molecular Weight": "210.23", "Molecular Formula": "C14H10O2", "Boiling Point": "169 \u00b0C @ Press: 2.5 Torr", "Melting Point": "62 \u00b0C"}}