{"cas_no": "1210-83-9", "cn_name": "N-\u4e59\u9170-5-\u7f9f\u8272\u80fa", "en_name": ["N-Acetylserotonin", "Acetamide, N-[2-(5-hydroxy-1H-indol-3-yl)ethyl]-", "Acetamide, N-[2-(5-hydroxyindol-3-yl)ethyl]-", "N-[2-(5-Hydroxy-1H-indol-3-yl)ethyl]acetamide", "N-Acetylserotonin", "N-Acetyl-5-hydroxytryptamine", "Serotonin, N-acetyl-", "5-Hydroxy-N-acetyltryptamine", "5-Hydroxymelatonin", "N-Acetyl-2-(5-hydroxyindol-3-yl)ethylamine", "Normelatonin", "O-Demethylmelatonin"], "SMILES": "C(CNC(C)=O)C=1C=2C(NC1)=CC=C(O)C2", "physical_data": {"Molecular Weight": "218.25", "Molecular Formula": "C12H14N2O2", "Melting Point": "93-94 \u00b0C"}}