{"cas_no": "1210-12-4", "cn_name": "9-\u6c30\u57fa\u84bd", "en_name": ["9-Cyanoanthracene", "9-Anthracenecarbonitrile", "9-Anthronitrile", "9-Cyanoanthracene", "9-Anthracenenitrile", "NSC 26997"], "SMILES": "C(#N)C=1C2=C(C=C3C1C=CC=C3)C=CC=C2", "physical_data": {"Molecular Weight": "203.24", "Molecular Formula": "C15H9N", "Melting Point": "175 \u00b0C"}}