{"cas_no": "12107-56-1", "cn_name": "(1,5-\u73af\u8f9b\u4e8c\u70ef)\u4e8c\u6c2f\u5316\u94af(II)", "en_name": ["Dichloro[(1,2,5,6-\u03b7)-1,5-cyclooctadiene]palladium", "Palladium, dichloro[(1,2,5,6-\u03b7)-1,5-cyclooctadiene]-", "Palladium, dichloro(1,5-cyclooctadiene)-", "1,5-Cyclooctadiene, palladium complex", "Dichloro[(1,2,5,6-\u03b7)-1,5-cyclooctadiene]palladium", "Dichloro(1,5-cyclooctadiene)palladium", "(1,5-Cyclooctadiene)palladium dichloride", "Dichloro(cyclooctadiene)palladium", "Dichloro(1,5-cyclooctadiene)palladium(II)", "Dichloro(\u03b74-1,5-cyclooctadiene)palladium", "NSC 169973"], "SMILES": "[Cl-][Pd+2]123([Cl-])[CH]4=[CH]1CC[CH]2=[CH]3CC4", "physical_data": {"Molecular Weight": "", "Molecular Formula": "C8H12Cl2Pd", "Melting Point": "210-215 \u00b0C"}}