{"cas_no": "12109-71-6", "cn_name": "\u53cc(\u7532\u57fa\u73af\u620a\u4e8c\u70ef)\u4e8c\u6c2f\u5316\u9506", "en_name": ["Bis(methylcyclopentadienyl)zirconium dichloride", "Zirconium, dichlorobis[(1,2,3,4,5-\u03b7)-1-methyl-2,4-cyclopentadien-1-yl]-", "Zirconium, dichlorobis(methyl-\u03c0-cyclopentadienyl)-", "Bis(methylcyclopentadienyl)zirconium dichloride", "1,3-Cyclopentadiene, 1-methyl-, zirconium complex", "Dichlorobis[(1,2,3,4,5-\u03b7)-1-methyl-2,4-cyclopentadien-1-yl]zirconium", "1,1\u2032-Dimethylzirconocene dichloride", "Dichlorobis(methylcyclopentadienyl)zirconium", "Dichlorobis(\u03b75-methylcyclopentadienyl)zirconium", "Di(methylcyclopentadienyl) zirconium dichloride"], "SMILES": "[Cl-][Zr+4]12345678([Cl-])([C-]9(C)[CH]1=[CH]2[CH]3=[CH]49)[C-]%10(C)[CH]5=[CH]6[CH]7=[CH]8%10", "physical_data": {"Molecular Weight": "", "Molecular Formula": "C12H14Cl2Zr", "Melting Point": "180-184 \u00b0C"}}