{"cas_no": "121032-29-9", "cn_name": "\u5948\u62c9\u6ee8", "en_name": ["Nelarabine", "9H-Purin-2-amine, 9-\u03b2-D-arabinofuranosyl-6-methoxy-", "9-\u03b2-D-Arabinofuranosyl-6-methoxy-9H-purin-2-amine", "506u", "Nelzarabine", "MAY", "GW 506U78", "Nelarabine", "Arranon", "Atriance"], "SMILES": "OC1C(N2C=3C(N=C2)=C(OC)N=C(N)N3)OC(CO)C1O", "physical_data": {"Molecular Weight": "297.27", "Molecular Formula": "C11H15N5O5", "Melting Point": "208-210 \u00b0C"}}