{"cas_no": "1210-39-5", "cn_name": "3,3-\u4e8c\u82ef\u57fa\u4e19\u70ef\u919b", "en_name": ["\u03b2-Phenylcinnamaldehyde", "2-Propenal, 3,3-diphenyl-", "Acrolein, 3,3-diphenyl-", "3,3-Diphenyl-2-propenal", "\u03b2-Phenylcinnamaldehyde", "3,3-Diphenylacrolein", "\u03b2,\u03b2-Diphenylacrolein", "3-Phenylcinnamaldehyde", "NSC 87895", "3,3-Diphenylacrylaldehyde"], "SMILES": "C(=CC=O)(C1=CC=CC=C1)C2=CC=CC=C2", "physical_data": {"Molecular Weight": "208.26", "Molecular Formula": "C15H12O", "Boiling Point": "205-210 \u00b0C @ Press: 14 Torr", "Melting Point": "44 \u00b0C"}}