{"cas_no": "1210-34-0", "cn_name": "\u4e8c\u82ef\u5e76\u567b\u5511", "en_name": ["Dibenzosuberol", "5H-Dibenzo[a,d]cyclohepten-5-ol, 10,11-dihydro-", "10,11-Dihydro-5H-dibenzo[a,d]cyclohepten-5-ol", "5-Hydroxy-10,11-dihydro-5H-dibenzo[a,d]cycloheptene", "Dibenzosuberol", "NSC 86157"], "SMILES": "OC1C=2C(CCC=3C1=CC=CC3)=CC=CC2", "physical_data": {"Molecular Weight": "210.27", "Molecular Formula": "C15H14O", "Melting Point": "93 \u00b0C"}}