{"cas_no": "1210-66-8", "cn_name": "N-\u82ef\u57fa-N-(9H-\u560c\u5464-6-\u57fa)\u80fa", "en_name": ["N-Phenyl-9H-purin-6-amine", "9H-Purin-6-amine, N-phenyl-", "Adenine, N-phenyl-", "1H-Purin-6-amine, N-phenyl-", "Adenine, N6-phenyl-", "N-Phenyl-9H-purin-6-amine", "N6-Phenylaminopurine", "6-Phenylaminopurine", "6-Anilinopurine", "N-Phenyladenine", "NSC 519242"], "SMILES": "N(C1=C2C(N=CN2)=NC=N1)C3=CC=CC=C3", "physical_data": {"Molecular Weight": "211.22", "Molecular Formula": "C11H9N5", "Melting Point": "284-285 \u00b0C (decomp)"}}