{"cas_no": "1210-35-1", "cn_name": "10,11-\u4e8c\u6c22\u4e8c\u82ef\u5e76[a,b]\u73af\u5e9a\u70ef-5-\u916e", "en_name": ["Dibenzosuberone", "5H-Dibenzo[a,d]cyclohepten-5-one, 10,11-dihydro-", "10,11-Dihydro-5H-dibenzo[a,d]cyclohepten-5-one", "Dibenzosuberone", "Dibenzocycloheptenone", "Dibenzo[a,d]cycloheptadien-5-one", "Dibenzo[a,d]cyclohepta[1,4]dien-5-one", "10,11-Dihydrodibenzo[a,d]cyclohepten-5-one", "10,11-Dihydro-5H-dibenzo[a,d]cycloheptan-5-one", "2,3:6,7-Dibenzosuberone", "Dibenzosuberan-5-one", "10,11-Dihydro-5H-dibenzo[a,d]cycloheptatrien-5-one", "NSC 49727", "10,11-Dihydro-5H-dibenzo[a,d][7]annulen-5-one"], "SMILES": "O=C1C=2C(CCC=3C1=CC=CC3)=CC=CC2", "physical_data": {"Molecular Weight": "208.26", "Molecular Formula": "C15H12O", "Boiling Point": "203-204 \u00b0C @ Press: 7 Torr", "Melting Point": "30 \u00b0C", "Density": "1.1635 g/cm\u00b3 @ Temp: 20 \u00b0C"}}