{"cas_no": "121104-96-9", "cn_name": "CELGOSIVIR", "en_name": ["Celgosivir", "Butanoic acid, (1S,6S,7S,8R,8aR)-octahydro-1,7,8-trihydroxy-6-indolizinyl ester", "Butanoic acid, octahydro-1,7,8-trihydroxy-6-indolizinyl ester, [1S-(1\u03b1,6\u03b2,7\u03b1,8\u03b2,8a\u03b2)]-", "6-O-Butanoylcastanospermine", "MDL 28574", "BuCast", "Celgosivir", "6-O-Butyrylcastanospermine"], "SMILES": "OC1C2N(CC(OC(CCC)=O)C1O)CCC2O", "physical_data": {"Molecular Weight": "259.30", "Molecular Formula": "C12H21NO5", "Melting Point": "114-115 \u00b0C"}}