{"cas_no": "1211443-58-1", "cn_name": "2-\u6c2f-7-\u73af\u620a\u57fa-7H-\u5421\u54af\u5e76[2,3-D]\u5627\u5576-6-\u7532\u9178", "en_name": ["2-Chloro-7-cyclopentyl-7H-pyrrolo[2,3-d]pyrimidine-6-carboxylic acid", "7H-Pyrrolo[2,3-d]pyrimidine-6-carboxylic acid, 2-chloro-7-cyclopentyl-", "2-Chloro-7-cyclopentyl-7H-pyrrolo[2,3-d]pyrimidine-6-carboxylic acid"], "SMILES": "C(O)(=O)C=1N(C=2C(C1)=CN=C(Cl)N2)C3CCCC3", "physical_data": {"Molecular Weight": "265.70", "Molecular Formula": "C12H12ClN3O2", "Melting Point": "223-225 \u00b0C"}}