{"cas_no": "121124-98-9", "cn_name": "4-\u82c4\u6c27\u57fa-3-\u7532\u9170\u57fa\u82ef\u787c\u9178", "en_name": ["B-[3-Formyl-4-(phenylmethoxy)phenyl]boronic acid", "Boronic acid, B-[3-formyl-4-(phenylmethoxy)phenyl]-", "Boronic acid, [3-formyl-4-(phenylmethoxy)phenyl]-", "B-[3-Formyl-4-(phenylmethoxy)phenyl]boronic acid", "[4-(Benzyloxy)-3-formylphenyl]boronic acid", "3-Formyl-4-benzyloxyphenylboronic acid"], "SMILES": "O(CC1=CC=CC=C1)C2=C(C=O)C=C(B(O)O)C=C2", "physical_data": {"Molecular Weight": "256.06", "Molecular Formula": "C14H13BO4", "Melting Point": "199 \u00b0C"}}