{"cas_no": "12116-66-4", "cn_name": "\u4e8c\u6c2f\u4e8c\u8302\u94ea", "en_name": ["Hafnocene dichloride", "Hafnium, dichlorobis(\u03b75-2,4-cyclopentadien-1-yl)-", "Hafnium, dichlorodi-\u03c0-cyclopentadienyl-", "Dicyclopentadienylhafnium dichloride", "Dichlorobis(\u03b75-2,4-cyclopentadien-1-yl)hafnium", "Hafnocene dichloride", "Dichlorodicyclopentadienylhafnium", "Dichlorodi-\u03c0-cyclopentadienylhafnium", "Hafnium dicyclopentadiene dichloride", "Dichlorobis(\u03b7-cyclopentadienyl)hafnium", "Dichlorobis(\u03b75-cyclopentadienyl)hafnium", "Dichlorobis(cyclopentadienyl)hafnium", "Bis(cyclopentadienyl)hafnium dichloride", "Dichlorohafnocene", "Bis(cyclopentadienyl)hafnium(IV) dichloride", "NSC 102788"], "SMILES": "[Cl-][Hf+4]12345678([Cl-])([CH]=9[CH-]1[CH]2=[CH]3[CH]49)[CH]=%10[CH-]5[CH]6=[CH]7[CH]8%10", "physical_data": {"Molecular Weight": "", "Molecular Formula": "C10H10Cl2Hf", "Melting Point": "230-233 \u00b0C"}}