{"cas_no": "12112-67-3", "cn_name": "1,5-\u73af\u8f9b\u4e8c\u70ef\u6c2f\u5316\u94f1\u4e8c\u805a\u4f53", "en_name": ["Di-\u03bc-chlorobis[(1,2,5,6-\u03b7)-1,5-cyclooctadiene]diiridium", "Iridium, di-\u03bc-chlorobis[(1,2,5,6-\u03b7)-1,5-cyclooctadiene]di-", "Iridium, di-\u03bc-chlorobis(1,5-cyclooctadiene)di-", "Iridium, dichlorobis(cyclooctadiene)di-", "1,5-Cyclooctadiene, iridium complex", "Di-\u03bc-chlorobis[(1,2,5,6-\u03b7)-1,5-cyclooctadiene]diiridium", "Di-\u03bc-Chlorobis(\u03c0-1,5-cyclooctadiene)diiridium", "\u03bc,\u03bc-Dichlorobis(1,5-cyclooctadiene)diiridium", "Di-\u03bc-Chlorobis(1,5-cyclooctadiene)diiridium", "Dichlorobis(cyclooctadiene)diiridium", "Chloro(1,5-cyclooctadiene)iridium dimer", "5-Chlorobis(1,5-cyclooctadiene)diiridium", "Dichlorobis(1,5-cyclooctadiene)diiridium", "Cyclooctadieneiridium chloride dimer", "(1,5-Cyclooctadiene)iridium chloride dimer", "Dichlorobis(\u03b74-1,5-cyclooctadiene)diiridium", "(1,5-Cyclooctadiene)chloroiridium dimer", "Bis(chloro(1,5-cyclooctadiene)iridium)", "Di-\u03bc-chlorobis(\u03b74-1,5-cyclooctadiene)diiridium", "Bis(\u03bc-chloro)bis(1,5-cyclooctadiene)diiridium", "Bis((\u03bc-chloro)(1,5-cyclooctadiene)iridium)", "(\u03b74-1,5-Cyclooctadiene)iridium chloride dimer", "Di-\u03bc-chlorobis(\u03b74-1,5-cyclooctadiene)diiridium(I)", "Chloro(cyclooctadiene)iridium dimer", "Bis(chloro(cyclooctadiene)iridium)", "NSC 326162", "Di-\u03bc2-chlorobis(1,5-cyclooctadiene)diiridium", "Bis(1,5-cyclooctadiene)diiridium(I) dichloride", "Di-\u03bc-chlorobis[(1,5-cyclooctadiene)iridium]", "Bis[\u03bc-chloro(\u03b74-1,5-cyclooctadiene)iridium]"], "SMILES": "[Ir+]1234([Cl-][Ir+]567([Cl-]1)[CH]8=[CH]5CC[CH]6=[CH]7CC8)[CH]9=[CH]2CC[CH]3=[CH]4CC9", "physical_data": {"Molecular Weight": "", "Molecular Formula": "C16H24Cl2Ir2", "Melting Point": "200-202 \u00b0C"}}