{"cas_no": "1211-40-1", "cn_name": "4-\u6c28\u57fa-4'-\u785d\u57fa\u8054\u82ef", "en_name": ["4-Amino-4\u2032-nitrobiphenyl", "[1,1\u2032-Biphenyl]-4-amine, 4\u2032-nitro-", "4-Biphenylamine, 4\u2032-nitro-", "4\u2032-Nitro[1,1\u2032-biphenyl]-4-amine", "4-Amino-4\u2032-nitrobiphenyl", "4\u2032-Nitro-4-biphenylamine", "4\u2032-Nitro-4-aminodiphenyl", "4-Nitro-4\u2032-aminodiphenyl", "4-Amino-4\u2032-nitro-1,1\u2032-biphenyl", "(4\u2032-Nitrobiphenyl-4-yl)amine"], "SMILES": "N(=O)(=O)C1=CC=C(C=C1)C2=CC=C(N)C=C2", "physical_data": {"Molecular Weight": "214.22", "Molecular Formula": "C12H10N2O2", "Melting Point": "200-201 \u00b0C"}}