{"cas_no": "1211-29-6", "cn_name": "\u8309\u8389\u9178\u7532\u916f", "en_name": ["(-)-Methyl jasmonate", "Cyclopentaneacetic acid, 3-oxo-2-(2Z)-2-penten-1-yl-, methyl ester, (1R,2R)-", "Cyclopentaneacetic acid, 3-oxo-2-(2-pentenyl)-, methyl ester, (Z)-trans-", "Cyclopentaneacetic acid, 3-oxo-2-(2-pentenyl)-, methyl ester, [1R-[1\u03b1,2\u03b2(Z)]]-", "Cyclopentaneacetic acid, 3-oxo-2-(2Z)-2-pentenyl-, methyl ester, (1R,2R)-", "Methyl jasmonate", "Methyl cis-jasmonate", "(-)-Methyl jasmonate", "Jasmonic acid methyl ester", "(-)-Jasmonic acid methyl ester", "(3R,7R)-Methyl jasmonate", "Methyl jasmonic acid", "(Z)-Methyl jasmonate", "(1R,2R)-Jasmonic acid methyl ester", "Methyl 2-((1R,2R)-3-oxo-2-((Z)-pent-2-en-1-yl)cyclopentyl)acetate"], "SMILES": "C(C(OC)=O)C1C(CC=CCC)C(=O)CC1", "physical_data": {"Molecular Weight": "224.30", "Molecular Formula": "C13H20O3", "Boiling Point": "93 \u00b0C @ Press: 0.02 Torr", "Density": "1.021 g/cm\u00b3 @ Temp: 22.6 \u00b0C"}}