{"cas_no": "121177-93-3", "cn_name": "(\u7532\u57fa\u4e19\u70ef\u9170\u6c27\u7532\u57fa)\u7532\u57fa\u4e8c\u7532\u6c27\u57fa\u7845\u70f7", "en_name": ["(Methacryloxymethyl)methyldimethoxysilane", "2-Propenoic acid, 2-methyl-, (dimethoxymethylsilyl)methyl ester", "Geniosil XL 32", "XL 32", "(Dimethoxy)(methacryloyloxymethyl)(methyl)silane", "(Methacryloxymethyl)methyldimethoxysilane", "Methacryloxymethylenemethyldimethoxysilane", "Methacryloyloxymethylmethyldimethoxysilane", "[Dimethoxy(methyl)silyl]methyl 2-methylprop-2-enoate", "(Dimethoxy(methyl)silyl)methyl methacrylate"], "SMILES": "[Si](COC(C(C)=C)=O)(OC)(OC)C", "physical_data": {"Molecular Weight": "204.30", "Molecular Formula": "C8H16O4Si", "Boiling Point": "205 \u00b0C", "Density": "1.02 g/cm\u00b3"}}