{"cas_no": "121219-08-7", "cn_name": "4-\u5df1\u6c27\u57fa\u82ef\u787c\u9178", "en_name": ["B-[4-(Hexyloxy)phenyl]boronic acid", "Boronic acid, B-[4-(hexyloxy)phenyl]-", "Boronic acid, [4-(hexyloxy)phenyl]-", "B-[4-(Hexyloxy)phenyl]boronic acid", "(4-Hexyloxyphenyl)boronic acid", "4-Hexyloxybenzeneboronic acid", "p-Hexyloxyphenylboronic acid", "Para-hexyloxyphenylboronic acid", "4-(n-Hexyl-1-oxy)phenylboronic acid", "(4-Hexoxyphenyl)boronic acid"], "SMILES": "O(CCCCCC)C1=CC=C(B(O)O)C=C1", "physical_data": {"Molecular Weight": "222.09", "Molecular Formula": "C12H19BO3", "Melting Point": "89-91 \u00b0C"}}