{"cas_no": "1212-29-9", "cn_name": "N,N'-\u4e8c\u73af\u5df1\u57fa\u786b\u8132", "en_name": ["Dicyclohexylthiourea", "Thiourea, N,N\u2032-dicyclohexyl-", "Urea, 1,3-dicyclohexyl-2-thio-", "N,N\u2032-Dicyclohexylthiourea", "sym-Dicyclohexylthiourea", "1,3-Dicyclohexylthiourea", "N,N\u2032-Dicyclohexylthiocarbamide", "1,3-Dicyclohexyl-2-thiourea", "Dicyclohexylthiourea", "1,3-Bis(cyclohexyl)thiourea", "NSC 33443"], "SMILES": "N(C(NC1CCCCC1)=S)C2CCCCC2", "physical_data": {"Molecular Weight": "240.41", "Molecular Formula": "C13H24N2S", "Melting Point": "180-181 \u00b0C"}}