{"cas_no": "121268-17-5", "cn_name": "\u963f\u4ed1\u81a6\u9178\u94a0\u4e09\u6c34\u5408\u7269", "en_name": ["Alendronate monosodium trihydrate", "Phosphonic acid, P,P\u2032-(4-amino-1-hydroxybutylidene)bis-, sodium salt, hydrate (1:1:3)", "Phosphonic acid, (4-amino-1-hydroxybutylidene)bis-, monosodium salt, trihydrate", "Alendronate sodium hydrate", "Sodium alendronate hydrate", "Alendronate monosodium trihydrate", "Alendronic acid monosodium salt trihydrate", "Monosodium alendronate trihydrate", "Teiroc", "Sodium alendronate trihydrate"], "SMILES": "C(P(=O)(O)O)(P(=O)(O)O)(CCCN)O.[Na].O", "physical_data": {"Molecular Weight": "", "Molecular Formula": "C4H13NO7P2.3H2O.Na", "Melting Point": "252 \u00b0C"}}