{"cas_no": "12129-06-5", "cn_name": "\u4e94\u7532\u57fa\u73af\u620a\u4e8c\u70ef\u57fa\u4e09\u6c2f\u5316\u949b(IV)", "en_name": ["(Pentamethylcyclopentadienyl)titanium trichloride", "Titanium, trichloro[(1,2,3,4,5-\u03b7)-1,2,3,4,5-pentamethyl-2,4-cyclopentadien-1-yl]-", "Titanium, trichloro(pentamethyl-\u03c0-cyclopentadienyl)-", "Titanium, trichloro(pentamethylcyclopentadienyl)-", "Trichloro[(1,2,3,4,5-\u03b7)-1,2,3,4,5-pentamethyl-2,4-cyclopentadien-1-yl]titanium", "(Pentamethylcyclopentadienyl)titanium trichloride", "(Pentamethylcyclopentadienyl)trichlorotitanium", "Trichloro(\u03b75-pentamethylcyclopentadienyl)titanium", "Trichloro(pentamethylcyclopentadienyl)titanium", "(Pentamethylcyclopentadienyl)titanium(IV) trichloride", "(1,2,3,4,5-Pentamethylcyclopentadienyl)titanium trichloride"], "SMILES": "[Cl-][Ti+4]1234([Cl-])([Cl-])[C-]5(C)C1(C)=C2(C)C3(C)=C45C", "physical_data": {"Molecular Weight": "", "Molecular Formula": "C10H15Cl3Ti", "Boiling Point": "190-220 \u00b0C @ Press: 4-7 Torr", "Melting Point": "225 \u00b0C"}}