{"cas_no": "121239-75-6", "cn_name": "4-\u8f9b\u6c27\u57fa\u4e8c\u82ef\u7898\u516d\u6c1f\u9511\u9178\u76d0", "en_name": ["p-(Octyloxyphenyl)phenyliodonium hexafluoroantimonate", "Iodonium, [4-(octyloxy)phenyl]phenyl-, (OC-6-11)-hexafluoroantimonate(1-) (1:1)", "Iodonium, [4-(octyloxy)phenyl]phenyl-, (OC-6-11)-hexafluoroantimonate(1-)", "Antimonate(1-), hexafluoro-, (OC-6-11)-, [4-(octyloxy)phenyl]phenyliodonium", "[4-(Octyloxy)phenyl]phenyliodonium hexafluoroantimonate", "[4-(Octyloxy)phenyl]phenyliodonium hexafluroroantimonate", "OPPI", "(4-n-Octyloxyphenyl)phenyliodonium hexafluoroantimonate", "Uvacure 1600", "Phenyl-p-octyloxyphenyliodonium hexafluoroantimonate", "UV 9392C", "OMAN 071", "p-(Octyloxyphenyl)phenyliodonium hexafluoroantimonate", "H-Nu 254", "4-Octyloxydiphenyliodonium hexafluoroantimonate", "OPPI-FP 5386", "IOC 8 SbF6", "HRcure 9392"], "SMILES": "[Sb+5]([F-])([F-])([F-])([F-])([F-])[F-].[I+](C1=CC=C(OCCCCCCCC)C=C1)C2=CC=CC=C2", "physical_data": {"Molecular Weight": "", "Molecular Formula": "C20H26IO.F6Sb", "Melting Point": "57-58 \u00b0C"}}