{"cas_no": "121216-42-0", "cn_name": "(S)-2-\u6c28\u57fa-7-\u7532\u6c27\u57fa\u56db\u6c22\u8418", "en_name": ["(S)-(-)-2-Amino-7-methoxytetralin", "2-Naphthalenamine, 1,2,3,4-tetrahydro-7-methoxy-, (2S)-", "2-Naphthalenamine, 1,2,3,4-tetrahydro-7-methoxy-, (S)-", "(2S)-1,2,3,4-Tetrahydro-7-methoxy-2-naphthalenamine", "(S)-(-)-2-Amino-7-methoxytetralin", "(S)-7-Methoxy-2-aminotetralin", "(S)-2-Amino-1,2,3,4-tetrahydro-7-methoxynaphthalene", "(S)-7-Methoxy-1,2,3,4-tetrahydro-naphthalen-2-ylamine", "(2S)-7-Methoxy-1,2,3,4-tetrahydronaphthalen-2-amine"], "SMILES": "O(C)C=1C=C2C(=CC1)CCC(N)C2", "physical_data": {"Molecular Weight": "177.24", "Molecular Formula": "C11H15NO", "Melting Point": "203 \u00b0C"}}