{"cas_no": "1212-48-2", "cn_name": "\u5730\u5df4\u5511\u78b1\u76d0", "en_name": ["1H-Benzimidazole, 2-(phenylmethyl)-, hydrochloride (1:1)", "1H-Benzimidazole, 2-(phenylmethyl)-, hydrochloride (1:1)", "Benzimidazole, 2-benzyl-, monohydrochloride", "1H-Benzimidazole, 2-(phenylmethyl)-, monohydrochloride", "Dibazole hydrochloride", "Dibazol hydrochloride", "Bendazol hydrochloride", "Dibasole", "2-Benzyl-1H-benzoimidazole", "hydrochloride", "2-Benzyl-1H-benzimidazole monohydrochloride", "2-Benzyl-1H-benzo[d]imidazole hydrochloride"], "SMILES": "C(C=1NC=2C(N1)=CC=CC2)C3=CC=CC=C3.Cl", "physical_data": {"Molecular Weight": "", "Molecular Formula": "C14H12N2.ClH", "Melting Point": "175 \u00b0C"}}