{"cas_no": "12126-50-0", "cn_name": "\u53cc(\u4e94\u7532\u57fa\u73af\u620a\u4e8c\u70ef\u57fa)\u94c1", "en_name": ["Decamethylferrocene", "Ferrocene, 1,1\u2032,2,2\u2032,3,3\u2032,4,4\u2032,5,5\u2032-decamethyl-", "Ferrocene, decamethyl-", "1,1\u2032,2,2\u2032,3,3\u2032,4,4\u2032,5,5\u2032-Decamethylferrocene", "Permethylferrocene", "Decamethylferrocene", "Bis(pentamethylcyclopentadienyl)iron", "Bis(\u03b75-pentamethylcyclopentadienyl)iron", "Bis(pentamethylcyclopentadienyl)iron(II)"], "SMILES": "CC1=2[Fe+2]3456789(C1(C)=C3(C)[C-]4(C)C52C)C=%10(C)C6(C)=C7(C)[C-]8(C)C9%10C", "physical_data": {"Molecular Weight": "", "Molecular Formula": "C20H30Fe", "Melting Point": "277-278 \u00b0C"}}