{"cas_no": "1212-08-4", "cn_name": "S-\u82ef\u57fa\u786b\u4ee3\u82ef\u57fa\u781c", "en_name": ["S-Phenyl benzenesulfonothioate", "Benzenesulfonothioic acid, S-phenyl ester", "Benzenesulfonic acid, thio-, S-phenyl ester", "Benzenethiol, benzenesulfonate", "S-Phenyl benzenesulfonothioate", "Phenyl benzenethiosulfonate", "S-Phenyl benzenethiosulfonate", "Phenyl phenylthio sulfone", "NSC 74657", "S-Phenyl benzenemonothiosulfonate", "Phenylsulfonyl phenyl sulfide", "(Benzenesulfonyl)sulfanylbenzene", "[(Benzenesulfonyl)sulfanyl]benzene"], "SMILES": "S(S(=O)(=O)C1=CC=CC=C1)C2=CC=CC=C2", "physical_data": {"Molecular Weight": "250.34", "Molecular Formula": "C12H10O2S2", "Boiling Point": "125 \u00b0C @ Press: 0.01 Torr", "Melting Point": "45 \u00b0C"}}