{"cas_no": "12125-02-9", "cn_name": "\u6c2f\u5316\u94f5", "en_name": ["Ammonium chloride", "Ammonium chloride ((NH4)Cl)", "Ammonium chloride", "Ammoneric", "Darammon", "Sal ammoniac", "Salmiac", "Amchlor", "Darvan 20", "Catalyst RD", "Salmiacum", "Salammoniacus", "Amoklor", "A649-3", "Fenidin", "MeSH ID: D000643"], "SMILES": "Cl[NH4]", "physical_data": {"Molecular Weight": "53.49", "Molecular Formula": "ClH4N", "Boiling Point": "520 \u00b0C", "Melting Point": "338 \u00b0C (decomp)", "Density": "1.5274 g/cm\u00b3 @ Temp: 25 \u00b0C"}}