{"cas_no": "12122-67-7", "cn_name": "\u4ee3\u68ee\u950c", "en_name": ["Zineb", "Zinc, [N-[2-[(dithiocarboxy)amino]ethyl]carbamodithioato(2-)-\u03baS,\u03baS\u2032]-", "Zinc, [ethylenebis[dithiocarbamato]]-", "Zinc, [[1,2-ethanediylbis[carbamodithioato]](2-)]-", "Zinc, [[2-[(dithiocarboxy)amino]ethyl]carbamodithioato(2-)-\u03baS,\u03baS\u2032]-", "Carbamodithioic acid, 1,2-ethanediylbis-, zinc complex", "[N-[2-[(Dithiocarboxy)amino]ethyl]carbamodithioato(2-)-\u03baS,\u03baS\u2032]zinc", "Aspor", "Blizene", "Carbadine", "Dithane Z 78", "Lirotan", "Lonacol", "Novozir N", "Parzate zineb", "Zineb", "Cynkotox", "Hexathane", "Asporum", "Crittox", "Micide 55", "Zineb 80", "Carbamodithioic acid, 1,2-ethanediylbis-, zinc salt", "Zebenide", "Dithane Z", "Novozir N 50", "Novozir", "Daisen", "Dithane 65", "Perozine", "Perozin", "Zinc ethylenebis[dithiocarbamate]", "Discon", "Perozine 75B", "Perozin 75B", "Ethylenebis[dithiocarbamato]zinc", "Ethylenebis[dithiocarbamic acid] zinc salt", "Zinc N,N\u2032-ethylenebisdithiocarbamate", "Aaphytora", "Aphytora", "Deikusol", "Fungo-Pulvit", "Thionic M", "Pilzol SZ", "Unizeb", "Zinosan", "Aspor C", "Funjeb", "Polyram Z", "Phytox", "Dipher", "Tiezene", "Zebtox", "Tritoftorol", "Curit", "Turbair Zineb Fungicide", "Bonzeb 10", "Bonzeb", "Indofil Z 78", "Azzurro", "NSC 49513", "Zineb TC", "MeSH ID: D015038"], "SMILES": "N(CCNC(=S)[S-])C=1[S-][Zn+2][S]1", "physical_data": {"Molecular Weight": "", "Molecular Formula": "C4H6N2S4Zn", "Melting Point": "157 \u00b0C (decomp)", "Density": "~1.74 g/cm\u00b3 (approx) @ Temp: 20 \u00b0C"}}