{"cas_no": "1212-53-9", "cn_name": "CBZ-\u7518\u6c28\u9178\u7532\u916f", "en_name": ["Glycine, N-[(phenylmethoxy)carbonyl]-, methyl ester", "Glycine, N-[(phenylmethoxy)carbonyl]-, methyl ester", "Glycine, N-carboxy-, N-benzyl methyl ester", "N-Benzyloxycarbonylglycine methyl ester", "Methyl N-benzyloxycarbonylglycinate", "(Benzyloxycarbonyl)glycine methyl ester", "N-(Phenylmethoxycarbonyl)glycine methyl ester", "NSC 88470", "Methyl 2-[[(benzyloxy)carbonyl]amino]acetate", "N-(Carbobenzyloxy)glycine methyl ester", "Carbobenzyloxyglycine methyl ester"], "SMILES": "C(OC(NCC(OC)=O)=O)C1=CC=CC=C1", "physical_data": {"Molecular Weight": "223.23", "Molecular Formula": "C11H13NO4", "Melting Point": "111-112 \u00b0C"}}