{"cas_no": "12136-78-6", "cn_name": "\u7845\u5316\u94bc", "en_name": ["Molybdenum silicide (MoSi2)", "Molybdenum silicide (MoSi2)", "Molybdenum disilicide (MoSi2)", "Molybdenum disilicide", "MS (silicide)", "MS", "GMY 180-17", "CW-MoSi2-002", "CW-MoSi 2-002"], "SMILES": "[Mo](#[Si])#[Si]", "physical_data": {"Molecular Weight": "", "Molecular Formula": "MoSi2", "Melting Point": "~1930 \u00b0C (approx)", "Density": "6.31 g/cm\u00b3"}}