{"cas_no": "12135-76-1", "cn_name": "\u786b\u5316\u94f5", "en_name": ["Ammonium sulfide", "Ammonium sulfide ((NH4)2S)", "True ammonium sulfide", "Ammonium monosulfide", "Diammonium sulfide", "Ammonium sulfide"], "SMILES": "S([NH4])[NH4]", "physical_data": {"Molecular Weight": "68.14", "Molecular Formula": "H8N2S", "Boiling Point": "40.0 \u00b0C"}}