{"cas_no": "12136-58-2", "cn_name": "\u786b\u5316\u9502", "en_name": ["Lithium sulfide", "Lithium sulfide (Li2S)", "Dilithium sulfide", "Lithium sulfide", "Dilithium monosulfide"], "SMILES": "S([Li])[Li]", "physical_data": {"Molecular Weight": "", "Molecular Formula": "Li2S", "Melting Point": "900-975 \u00b0C"}}