{"cas_no": "121303-76-2", "cn_name": "3-\u7532\u57fa\u6c28\u57fa-4,4,4-\u4e09\u6c1f\u4e01\u70ef\u9178\u4e59\u916f", "en_name": ["2-Butenoic acid, 4,4,4-trifluoro-3-(methylamino)-, ethyl ester", "2-Butenoic acid, 4,4,4-trifluoro-3-(methylamino)-, ethyl ester", "Ethyl 3-(methylamino)-4,4,4-trifluoro-2-butenoate", "Ethyl 4,4,4-trifluoro-3-(methylamino)crotonate", "Ethyl 3-methylamino-4,4,4-trifluorocrotonate", "3-(Methylamino)-4,4,4-trifluorobut-2-enoic acid ethyl ester", "Ethyl 4,4,4-trifluoro-3-(methylamino)but-2-enoate", "3-Methylamino-4,4,4-trifluorocrotonic acid ethyl ester"], "SMILES": "C(=CC(OCC)=O)(C(F)(F)F)NC", "physical_data": {"Molecular Weight": "197.15", "Molecular Formula": "C7H10F3NO2", "Boiling Point": "95-98 \u00b0C @ Press: 19 Torr"}}