{"cas_no": "12137-20-1", "cn_name": "\u6c27\u5316\u949b", "en_name": ["Titanium monoxide", "Titanium oxide (TiO)", "Titanium monoxide", "Titanium Black 12S", "Titan Black 12S", "12S"], "SMILES": "O=[Ti]", "physical_data": {"Molecular Weight": "", "Molecular Formula": "OTi", "Melting Point": "1750 \u00b0C", "Density": "4.93 g/cm\u00b3"}}