{"cas_no": "1214-16-0", "cn_name": "3,6-\u4e8c\u6eb4-9-\u4e59\u70ef\u57fa\u5494\u5511", "en_name": ["3,6-Dibromo-9-ethenyl-9H-carbazole", "9H-Carbazole, 3,6-dibromo-9-ethenyl-", "Carbazole, 3,6-dibromo-9-vinyl-", "3,6-Dibromo-9-ethenyl-9H-carbazole", "3,6-Dibromo-9-vinylcarbazole", "3,6-Dibromo-N-vinylcarbazole"], "SMILES": "C(=C)N1C=2C(C=3C1=CC=C(Br)C3)=CC(Br)=CC2", "physical_data": {"Molecular Weight": "351.04", "Molecular Formula": "C14H9Br2N", "Melting Point": "74-75 \u00b0C"}}