{"cas_no": "121459-15-2", "cn_name": "1H-\u5432\u54da-1-\u4e59\u9187", "en_name": ["1H-Indole-1-ethanol", "1H-Indole-1-ethanol", "1-(2-Hydroxyethyl)indole", "2-(1H-1-Indolyl)ethanol", "2-(1-Indole)ethyl alcohol", "2-(Indol-1-yl)ethanol", "2-(1H-Indol-1-yl)ethan-1-ol"], "SMILES": "C(CO)N1C=2C(C=C1)=CC=CC2", "physical_data": {"Molecular Weight": "161.20", "Molecular Formula": "C10H11NO", "Boiling Point": "141-142 \u00b0C @ Press: 2.5 Torr", "Melting Point": "42-43 \u00b0C"}}