{"cas_no": "1214-39-7", "cn_name": "6-\u82c4\u6c28\u57fa\u560c\u5464", "en_name": ["Benzylaminopurine", "9H-Purin-6-amine, N-(phenylmethyl)-", "Adenine, N-benzyl-", "1H-Purin-6-amine, N-(phenylmethyl)-", "Adenine, N6-benzyl-", "N-(Phenylmethyl)-9H-purin-6-amine", "Benzyladenine", "SD 4901", "6-Benzyladenine", "N-Benzyladenine", "6-(Benzylamino)purine", "SQ 4609", "BA (growth stimulant)", "BAP", "BAP (growth stimulant)", "BA", "6-BA", "N6-Benzyladenine", "Benzylaminopurine", "6-BAP", "6-(N-Benzylamino)purine", "ABG 3034", "N-(Phenylmethyl)-1H-purin-6-amine", "Cytokinin B", "N6-(Benzylamino)purine", "Pro-Shear", "N6-Benzylaminopurine", "TOG-L 101", "CyLex", "Paturyl", "Paturyl 10WSC", "NSC 40818", "MaxCel", "6-Benzylaminoadenine", "CTP", "Bongrow", "Cytokinin 6BA"], "SMILES": "N(CC1=CC=CC=C1)C2=C3C(N=CN3)=NC=N2", "physical_data": {"Molecular Weight": "225.25", "Molecular Formula": "C12H11N5", "Melting Point": "233 \u00b0C"}}