{"cas_no": "1214-32-0", "cn_name": "2 -\u6c28\u57fa- 7 -\u785d\u57fa\u82b4", "en_name": ["7-Nitro-9H-fluoren-2-amine", "9H-Fluoren-2-amine, 7-nitro-", "Fluoren-2-amine, 7-nitro-", "7-Nitro-9H-fluoren-2-amine", "2-Amino-7-nitrofluorene", "NSC 12278"], "SMILES": "N(=O)(=O)C=1C=C2C(C=3C(C2)=CC(N)=CC3)=CC1", "physical_data": {"Molecular Weight": "226.23", "Molecular Formula": "C13H10N2O2", "Melting Point": "221 \u00b0C"}}