{"cas_no": "12148-49-1", "cn_name": "\u4e8c\u831a\u57fa\u4e8c\u6c2f\u5316\u9506", "en_name": ["Bis(indenyl)zirconium dichloride", "Zirconium, dichlorobis[(1,2,3,3a,7a-\u03b7)-1H-inden-1-yl]-", "Zirconium, dichlorodiindenyl-", "Dichlorobis[(1,2,3,3a,7a-\u03b7)-1H-inden-1-yl]zirconium", "Dichlorobis(\u03c0-indenyl)zirconium", "Bis(indenyl)zirconium dichloride", "Bis(indenyl)zirconium chloride", "Dichlorobis(\u03b75-indenyl)zirconium", "Dichlorodiindenylzirconium", "Dichlorobis(indenyl)zirconium", "Bis(\u03b75-indenyl)zirconium dichloride", "Diindenylzirconium dichloride"], "SMILES": "[Cl-][Zr+4]12345678([Cl-])(C9=%10C1([CH-]2[CH]3=[CH]49)=CC=CC%10)C%11=%12C5([CH-]6[CH]7=[CH]8%11)=CC=CC%12", "physical_data": {"Molecular Weight": "", "Molecular Formula": "C18H14Cl2Zr", "Melting Point": "110.3 \u00b0C"}}