{"cas_no": "1214-47-7", "cn_name": "2'-\u7f9f\u57fa\u67e5\u5c14\u916e", "en_name": ["2\u2032-Hydroxychalcone", "2-Propen-1-one, 1-(2-hydroxyphenyl)-3-phenyl-", "Chalcone, 2\u2032-hydroxy-", "1-(2-Hydroxyphenyl)-3-phenyl-2-propen-1-one", "o-Hydroxychalcone", "2\u2032-Hydroxychalcone", "o-Cinnamoylphenol", "3-Phenyl-1-(2-hydroxyphenyl)-2-propen-1-one", "RVC 556", "NSC 18939", "2-(3-Phenyl-2-propenoyl)phenol"], "SMILES": "C(C=CC1=CC=CC=C1)(=O)C2=C(O)C=CC=C2", "physical_data": {"Molecular Weight": "224.25", "Molecular Formula": "C15H12O2", "Melting Point": "89 \u00b0C"}}