{"cas_no": "121552-61-2", "cn_name": "\u5627\u83cc\u73af\u80fa", "en_name": ["Cyprodinil", "2-Pyrimidinamine, 4-cyclopropyl-6-methyl-N-phenyl-", "4-Cyclopropyl-6-methyl-N-phenyl-2-pyrimidinamine", "Cyprodinil", "CGA 219417", "Unix", "Chorus", "Vangard", "Chorus (pesticide)", "Chorus 75WG", "Vangard 75WG", "CXR 6024", "Kayak", "Vangard WG"], "SMILES": "N(C=1N=C(C=C(C)N1)C2CC2)C3=CC=CC=C3", "physical_data": {"Molecular Weight": "225.29", "Molecular Formula": "C14H15N3", "Melting Point": "75.9 \u00b0C", "Density": "1.21 g/cm\u00b3 @ Temp: 20 \u00b0C"}}