{"cas_no": "12154-84-6", "cn_name": "1,5-\u73af\u8f9b\u4e8c\u70ef(\u4e59\u9170\u4e59\u9178)\u94f1", "en_name": ["[(1,2,5,6-\u03b7)-1,5-Cyclooctadiene](2,4-pentanedionato-\u03baO2,\u03baO4)iridium", "Iridium, [(1,2,5,6-\u03b7)-1,5-cyclooctadiene](2,4-pentanedionato-\u03baO2,\u03baO4)-", "Iridium, [(1,2,5,6-\u03b7)-1,5-cyclooctadiene](2,4-pentanedionato-O,O\u2032)-", "Iridium, (1,5-cyclooctadiene)(2,4-pentanedionato)-", "Iridium, (2,4-pentanedionato)(1,5-cyclooctadiene)-", "Iridium, [(1,2,5,6-\u03b7)-1,5-cyclooctadiene](2,4-pentanedionato-\u03baO,\u03baO\u2032)-", "1,5-Cyclooctadiene, iridium complex", "[(1,2,5,6-\u03b7)-1,5-Cyclooctadiene](2,4-pentanedionato-\u03baO2,\u03baO4)iridium", "(Acetylacetonato)(1,5-cyclooctadiene)iridium", "Ir(cod)(acac)"], "SMILES": "CC1=O[Ir+]234([CH]5=[CH]2CC[CH]3=[CH]4CC5)O=C(C)[CH-]1", "physical_data": {"Molecular Weight": "", "Molecular Formula": "C13H19IrO2", "Melting Point": "155 \u00b0C"}}