{"cas_no": "12150-46-8", "cn_name": "1,1'-\u53cc(\u4e8c\u82ef\u57fa\u81a6)\u4e8c\u8302\u94c1", "en_name": ["1,1-Bis(diphenylphosphino)ferrocene", "Ferrocene, 1,1\u2032-bis(diphenylphosphino)-", "Phosphine, 1,1\u2032-ferrocenediylbis[diphenyl-", "Phosphine, cyclopentadienyldiphenyl-, iron deriv.", "1,1\u2032-Bis(diphenylphosphino)ferrocene", "DPPF", "1,1\u2032-Ferrocendiylbis(diphenylphosphine)", "NSC 238923", "1,1-Bis(diphenylphosphino)ferrocene", "1,10-Bis(diphenylphosphanyl)ferrocene", "Zirconium ionophore I"], "SMILES": "P([C-]12[Fe+2]3456789([C-]%10(P(C%11=CC=CC=C%11)C%12=CC=CC=C%12)[CH]3=[CH]4[CH]5=[CH]6%10)[CH]1=[CH]7[CH]8=[CH]92)(C%13=CC=CC=C%13)C%14=CC=CC=C%14", "physical_data": {"Molecular Weight": "", "Molecular Formula": "C34H28FeP2", "Melting Point": "180-184 \u00b0C"}}