{"cas_no": "12154-95-9", "cn_name": "\u4e8c\u7fb0\u57fa\u73af\u620a\u4e8c\u70ef\u57fa\u94c1\u4e8c\u805a\u7269", "en_name": ["Iron, di-\u03bc-carbonyldicarbonylbis(\u03b75-2,4-cyclopentadien-1-yl)di-, (Fe-Fe)", "Iron, di-\u03bc-carbonyldicarbonylbis(\u03b75-2,4-cyclopentadien-1-yl)di-, (Fe-Fe)", "Iron, di-\u03bc-carbonyldicarbonyldi-\u03c0-cyclopentadienyldi-, (Fe-Fe)", "Dicyclopentadienyldiiron tetracarbonyl", "Bis(cyclopentadienyliron dicarbonyl)", "Bis(cyclopentadienyldicarbonyliron)", "Bis(\u03c0-cyclopentadienylirondicarbonyl)", "Di-\u03bc-carbonyldicarbonyldi-\u03c0-cyclopentadienyldiiron", "Dicyclopentadienyliron dicarbonyl dimer", "Cyclopentadienyldicarbonyliron dimer", "Dicarbonyl-\u03c0-cyclopentadienyliron dimer", "Tetracarbonylbis(cyclopentadienyl)diiron", "Bis(\u03c0-cyclopentadienyldicarbonyliron)", "Dicarbonylcyclopentadienyliron dimer", "Cyclopentadienylirondicarbonyl dimer", "Bis(dicarbonyl-\u03c0-cyclopentadienyliron)", "Dicyclopentadienyltetracarbonyldiiron", "Bis[dicarbonyl(\u03c0-cyclopentadienyl)iron(II)]", "Tetracarbonylbis(\u03b75-cyclopentadienyl)diiron", "Bis(dicarbonyl(\u03b75-cyclopentadienyl)iron)", "Di-\u03bc-carbonyldicarbonylbis[(1,2,3,4,5-\u03b7)-2,4-cyclopentadien-1-yl]diiron", "Di-\u03bc-carbonylbis[carbonyl(\u03b75-cyclopentadienyl)iron]", "Di-\u03bc-carbonyldicarbonylbis(\u03b75-cyclopentadienyl)diiron"], "SMILES": "C(#O)[Fe+3]123456([Fe+3]789%10(C#O)([C-2]1=O)([C-2]2=O)[CH-]%11[CH]7=[CH]8[CH]9=[CH]%10%11)[CH-]%12[CH]3=[CH]4[CH]5=[CH]6%12", "physical_data": {"Molecular Weight": "", "Molecular Formula": "C14H10Fe2O4", "Melting Point": "195 \u00b0C (decomp)"}}