{"cas_no": "121521-90-2", "cn_name": "\u4e39\u53c2\u915a\u9178 B", "en_name": ["Salvianolic acid B", "3-Benzofurancarboxylic acid, 4-[(1E)-3-[(1R)-1-carboxy-2-(3,4-dihydroxyphenyl)ethoxy]-3-oxo-1-propen-1-yl]-2-(3,4-dihydroxyphenyl)-2,3-dihydro-7-hydroxy-, 3-[(1R)-1-carboxy-2-(3,4-dihydroxyphenyl)ethyl] ester, (2S,3S)-", "3-Benzofurancarboxylic acid, 4-[3-[1-carboxy-2-(3,4-dihydroxyphenyl)ethoxy]-3-oxo-1-propenyl]-2-(3,4-dihydroxyphenyl)-2,3-dihydro-7-hydroxy-, 3-[1-carboxy-2-(3,4-dihydroxyphenyl)ethyl] ester, [2S-[2\u03b1,3\u03b2(S*),4[E(S*)]]]-", "3-Benzofurancarboxylic acid, 4-[(1E)-3-[(1R)-1-carboxy-2-(3,4-dihydroxyphenyl)ethoxy]-3-oxo-1-propenyl]-2-(3,4-dihydroxyphenyl)-2,3-dihydro-7-hydroxy-, 3-[(1R)-1-carboxy-2-(3,4-dihydroxyphenyl)ethyl] ester, (2S,3S)-", "Lithospermic acid B", "Dan Shen Suan B", "Danfensuan B", "Salvianolic acid B", "ZINC 49538628", "Lithospermate B", "Salvianolate"], "SMILES": "C(OC(CC1=CC(O)=C(O)C=C1)C(O)=O)(=O)C2C=3C(OC2C4=CC(O)=C(O)C=C4)=C(O)C=CC3C=CC(OC(CC5=CC(O)=C(O)C=C5)C(O)=O)=O", "physical_data": {"Molecular Weight": "718.61", "Molecular Formula": "C36H30O16", "Melting Point": "&gt;250 \u00b0C"}}