{"cas_no": "1215-59-4", "cn_name": "5-\u82c4\u6c27\u57fa\u5432\u54da", "en_name": ["5-Benzyloxyindole", "1H-Indole, 5-(phenylmethoxy)-", "Indole, 5-(benzyloxy)-", "5-(Phenylmethoxy)-1H-indole", "5-Benzyloxyindole", "5-(Phenylmethoxy)indole", "5-(Benzyloxy)-1H-indole", "Benzyl 1H-indol-5-yl ether", "NSC 62895", "CC-1-17"], "SMILES": "O(CC1=CC=CC=C1)C=2C=C3C(=CC2)NC=C3", "physical_data": {"Molecular Weight": "223.27", "Molecular Formula": "C15H13NO", "Boiling Point": "200-210 \u00b0C @ Press: 0.1 Torr", "Melting Point": "96-97 \u00b0C"}}