{"cas_no": "12152-94-2", "cn_name": "\u4e8c\u8302\u94c1\u787c\u9178", "en_name": ["Ferroceneboronic acid", "Ferrocene, borono-", "Ferroceneboronic acid", "Iron, (boronocyclopentadienyl)cyclopentadienyl-", "Boronoferrocene", "Cyclopentadieneboronic acid, cyclopentadienyliron deriv.", "Ferrocenylboronic acid", "NSC 119337"], "SMILES": "B(O)(O)[C-]12[Fe+2]3456789([CH]1=[CH]3[CH]4=[CH]52)[CH-]%10[CH]6=[CH]7[CH]8=[CH]9%10", "physical_data": {"Molecular Weight": "", "Molecular Formula": "C10H11BFeO2", "Melting Point": "136-140 \u00b0C (decomp)"}}