{"cas_no": "121554-10-7", "cn_name": "5-\u6eb4-2-\u7898\u82ef\u7532\u8148", "en_name": ["5-Bromo-2-iodobenzonitrile", "Benzonitrile, 5-bromo-2-iodo-", "5-Bromo-2-iodobenzonitrile", "2-Iodo-5-bromobenzonitrile"], "SMILES": "C(#N)C1=C(I)C=CC(Br)=C1", "physical_data": {"Molecular Weight": "307.91", "Molecular Formula": "C7H3BrIN", "Melting Point": "123-124 \u00b0C"}}