{"cas_no": "121679-13-8", "cn_name": "\u90a3\u62c9\u66f2\u5766", "en_name": ["Naratriptan", "1H-Indole-5-ethanesulfonamide, N-methyl-3-(1-methyl-4-piperidinyl)-", "N-Methyl-3-(1-methyl-4-piperidinyl)-1H-indole-5-ethanesulfonamide", "N-Methyl-3-(1-methyl-4-piperidyl)indole-5-ethanesulfonamide", "Naratriptan"], "SMILES": "C(CS(NC)(=O)=O)C=1C=C2C(=CNC2=CC1)C3CCN(C)CC3", "physical_data": {"Molecular Weight": "335.46", "Molecular Formula": "C17H25N3O2S", "Melting Point": "170-171 \u00b0C"}}