{"cas_no": "121660-37-5", "cn_name": "2-\u73af\u4e19\u57fa-4-(4-\u6c1f\u82ef\u57fa)\u55b9\u5549-3-\u7532\u919b", "en_name": ["2-Cyclopropyl-4-(4-fluorophenyl)-3-quinolinecarboxaldehyde", "3-Quinolinecarboxaldehyde, 2-cyclopropyl-4-(4-fluorophenyl)-", "2-Cyclopropyl-4-(4-fluorophenyl)-3-quinolinecarboxaldehyde", "2-Cyclopropyl-3-formyl-4-(4-fluorophenyl)quinoline", "2-Cyclopropyl-4-(4-fluorophenyl)quinoline-3-carboxaldehyde", "4-(4-Fluorophenyl)-2-cyclopropylquinoline-3-carboxaldehyde", "2-Cyclopropyl-4-(4-fluorophenyl)quinoline-3-carbaldehyde"], "SMILES": "C(=O)C1=C(C2=C(N=C1C3CC3)C=CC=C2)C4=CC=C(F)C=C4", "physical_data": {"Molecular Weight": "291.32", "Molecular Formula": "C19H14FNO", "Melting Point": "156-157 \u00b0C"}}