{"cas_no": "1216941-48-8", "cn_name": "\u5e15\u5229\u666e\u97e6", "en_name": ["Paritaprevir", "Cyclopropa[e]pyrrolo[1,2-a][1,4]diazacyclopentadecine-14a(5H)-carboxamide, N-(cyclopropylsulfonyl)-1,2,3,6,7,8,9,10,11,13a,14,15,16,16a-tetradecahydro-6-[[(5-methyl-2-pyrazinyl)carbonyl]amino]-5,16-dioxo-2-(6-phenanthridinyloxy)-, (2R,6S,12Z,13aS,14aR,16aS)-", "(2R,6S,12Z,13aS,14aR,16aS)-N-(Cyclopropylsulfonyl)-1,2,3,6,7,8,9,10,11,13a,14,15,16,16a-tetradecahydro-6-[[(5-methyl-2-pyrazinyl)carbonyl]amino]-5,16-dioxo-2-(6-phenanthridinyloxy)cyclopropa[e]pyrrolo[1,2-a][1,4]diazacyclopentadecine-14a(5H)-carboxamide", "Paritaprevir", "ABT 450"], "SMILES": "C(NS(=O)(=O)C1CC1)(=O)C23C(C2)C=CCCCCCC(NC(=O)C=4C=NC(C)=CN4)C(=O)N5C(C(=O)N3)CC(OC6=C7C(=C8C(=N6)C=CC=C8)C=CC=C7)C5", "physical_data": {"Molecular Weight": "765.88", "Molecular Formula": "C40H43N7O7S", "Melting Point": "169-172 \u00b0C"}}