{"cas_no": "121776-33-8", "cn_name": "\u89e3\u8349\u6076\u5511", "en_name": ["Furilazole", "Ethanone, 2,2-dichloro-1-[5-(2-furanyl)-2,2-dimethyl-3-oxazolidinyl]-", "Oxazolidine, 3-(dichloroacetyl)-5-(2-furanyl)-2,2-dimethyl-", "2,2-Dichloro-1-[5-(2-furanyl)-2,2-dimethyl-3-oxazolidinyl]ethanone", "Furilazole", "MON 13900"], "SMILES": "C(C(Cl)Cl)(=O)N1CC(OC1(C)C)C2=CC=CO2", "physical_data": {"Molecular Weight": "278.13", "Molecular Formula": "C11H13Cl2NO3", "Melting Point": "97 \u00b0C"}}