{"cas_no": "1217501-08-0", "cn_name": "4-(1-(METHOXYCARBONYL)CYCLOPROPYL)PHENYLBORONIC ACID", "en_name": ["1-Methyl 1-(4-boronophenyl)cyclopropanecarboxylate", "Cyclopropanecarboxylic acid, 1-(4-boronophenyl)-, 1-methyl ester", "1-Methyl 1-(4-boronophenyl)cyclopropanecarboxylate", "(4-(1-(Methoxycarbonyl)cyclopropyl)phenyl)boronic acid"], "SMILES": "C(OC)(=O)C1(CC1)C2=CC=C(B(O)O)C=C2", "physical_data": {"Molecular Weight": "220.03", "Molecular Formula": "C11H13BO4", "Melting Point": "251-254 \u00b0C"}}