{"cas_no": "1217-45-4", "cn_name": "9,10-\u4e8c\u6c30\u57fa\u84bd", "en_name": ["9,10-Dicyanoanthracene", "9,10-Anthracenedicarbonitrile", "9,10-Dicyanoanthracene", "DCA (sensitizer)", "DCA", "NSC 17556"], "SMILES": "C(#N)C=1C2=C(C(C#N)=C3C1C=CC=C3)C=CC=C2", "physical_data": {"Molecular Weight": "228.25", "Molecular Formula": "C16H8N2", "Melting Point": "328-330 \u00b0C"}}