{"cas_no": "12185-10-3", "cn_name": "\u9ec4\u78f7", "en_name": ["Tetraphosphorus", "Phosphorus, mol. (P4)", "Phosphorus molecule (P4)", "Phosphorus (P4)", "Molecular phosphorus (P4)", "Tetraatomic phosphorus", "Phosphorus tetraatomic molecule", "Tetrameric phosphorus", "Tetraphosphorus", "White phosphorus", "Yellow phosphorus", "Phosphorus tetramer", "P4"], "SMILES": "", "physical_data": {"Molecular Weight": "", "Molecular Formula": "P4", "Boiling Point": "280 \u00b0C", "Melting Point": "44.77 \u00b0C", "Density": "1.831 g/cm\u00b3"}}