{"cas_no": "12180-80-2", "cn_name": "1,1'-\u4e8c\u82ef\u7532\u9170\u57fa\u4e8c\u8302\u94c1", "en_name": ["1,1\u2032-Dibenzoylferrocene", "Ferrocene, 1,1\u2032-dibenzoyl-", "Ketone, cyclopentadienyl phenyl, iron deriv.", "Ketone, cyclopentadienyl phenyl, Fe deriv.", "1,1\u2032-Dibenzoylferrocene", "Dibenzoylferrocene", "NSC 223086", "Iron, bis(benzoylcyclopentadienyl)-"], "SMILES": "C(=O)([C-]12[Fe+2]3456789([C-]%10(C(=O)C%11=CC=CC=C%11)[CH]3=[CH]4[CH]5=[CH]6%10)[CH]1=[CH]7[CH]8=[CH]92)C%12=CC=CC=C%12", "physical_data": {"Molecular Weight": "", "Molecular Formula": "C24H18FeO2", "Melting Point": "105-106 \u00b0C", "Density": "1.42 g/cm\u00b3"}}