{"cas_no": "1218790-22-7", "cn_name": "4-AMINONAPHTHALENE-1-BORONIC ACID, PINACOL ESTER", "en_name": ["4-(4,4,5,5-Tetramethyl-1,3,2-dioxaborolan-2-yl)-1-naphthalenamine", "1-Naphthalenamine, 4-(4,4,5,5-tetramethyl-1,3,2-dioxaborolan-2-yl)-", "4-(4,4,5,5-Tetramethyl-1,3,2-dioxaborolan-2-yl)-1-naphthalenamine", "4-Aminonaphthalene-1-boronic acid pinacol ester"], "SMILES": "CC1(C)OB(OC1(C)C)C=2C3=C(C(N)=CC2)C=CC=C3", "physical_data": {"Molecular Weight": "269.15", "Molecular Formula": "C16H20BNO2", "Melting Point": "142-143 \u00b0C"}}