{"cas_no": "1218-34-4", "cn_name": "N-\u4e59\u9170-L-\u8272\u6c28\u9178", "en_name": ["Acetyl-L-tryptophan", "L-Tryptophan, N-acetyl-", "Tryptophan, N-acetyl-, L-", "N-Acetyl-L-tryptophan", "Acetyltryptophan", "Acetyl-L-tryptophan", "N-Acetyltryptophan", "(S)-N-Acetyltryptophan", "L-N-Acetyltryptophan", "NSC 90726", "(2S)-2-Acetamido-3-(1H-indol-3-yl)propanoic acid"], "SMILES": "C(C(NC(C)=O)C(O)=O)C=1C=2C(NC1)=CC=CC2", "physical_data": {"Molecular Weight": "246.26", "Molecular Formula": "C13H14N2O3", "Melting Point": "185-186 \u00b0C"}}