{"cas_no": "121808-62-6", "cn_name": "\u5339\u591a\u83ab\u5fb7", "en_name": ["Pidotimod", "4-Thiazolidinecarboxylic acid, 3-[[(2S)-5-oxo-2-pyrrolidinyl]carbonyl]-, (4R)-", "4-Thiazolidinecarboxylic acid, 3-[(5-oxo-2-pyrrolidinyl)carbonyl]-, [R-(R*,S*)]-", "(4R)-3-[[(2S)-5-Oxo-2-pyrrolidinyl]carbonyl]-4-thiazolidinecarboxylic acid", "Pidotimod", "Adimod", "Axil (pharmaceutical)", "Onaka", "Pigitil", "Polimod"], "SMILES": "C(=O)(N1C(C(O)=O)CSC1)C2NC(=O)CC2", "physical_data": {"Molecular Weight": "244.27", "Molecular Formula": "C9H12N2O4S", "Melting Point": "194-198 \u00b0C (decomp)"}}