{"cas_no": "1219-38-1", "cn_name": "\u5c3c\u6cca\u91d1\u6b63\u8f9b\u916f", "en_name": ["Octyl p-hydroxybenzoate", "Benzoic acid, 4-hydroxy-, octyl ester", "Benzoic acid, p-hydroxy-, octyl ester", "Octyl p-hydroxybenzoate", "Octyl 4-hydroxybenzoate", "n-Octyl p-hydroxybenzoate", "n-Octyl 4-hydroxybenzoate", "p-Hydroxybenzoic acid octyl ester", "NSC 309820", "Octyl paraben"], "SMILES": "C(OCCCCCCCC)(=O)C1=CC=C(O)C=C1", "physical_data": {"Molecular Weight": "250.33", "Molecular Formula": "C15H22O3", "Melting Point": "50.0 \u00b0C"}}