{"cas_no": "122-48-5", "cn_name": "\u59dc\u916e", "en_name": ["Zingerone", "2-Butanone, 4-(4-hydroxy-3-methoxyphenyl)-", "4-(4-Hydroxy-3-methoxyphenyl)-2-butanone", "4-Hydroxy-3-methoxybenzylacetone", "(4-Hydroxy-3-methoxyphenyl)ethyl methyl ketone", "3-Methoxy-4-hydroxybenzylacetone", "Vanillylacetone", "Zingiberone", "Zingerone", "[0]-Paradol", "Gingerone", "NSC 15335"], "SMILES": "C(CC(C)=O)C1=CC(OC)=C(O)C=C1", "physical_data": {"Molecular Weight": "194.23", "Molecular Formula": "C11H14O3", "Boiling Point": "187-188 \u00b0C @ Press: 14 Torr", "Melting Point": "40.5 \u00b0C", "Density": "1.138-1.139 g/cm\u00b3 @ Temp: 25 \u00b0C"}}