{"cas_no": "122-88-3", "cn_name": "\u5bf9\u6c2f\u82ef\u6c27\u4e59\u9178", "en_name": ["(4-Chlorophenoxy)acetic acid", "Acetic acid, 2-(4-chlorophenoxy)-", "Acetic acid, (p-chlorophenoxy)-", "Acetic acid, (4-chlorophenoxy)-", "2-(4-Chlorophenoxy)acetic acid", "4-CPA", "Tomatotone", "(p-Chlorophenoxy)acetic acid", "(4-Chlorophenoxy)acetic acid", "BI 12", "Tomatone", "PCPA", "p-CPA", "P 10", "NSC 8769", "NSC 9213", "HP 55", "2-(p-Chlorophenoxy)acetic acid"], "SMILES": "O(CC(O)=O)C1=CC=C(Cl)C=C1", "physical_data": {"Molecular Weight": "186.59", "Molecular Formula": "C8H7ClO3", "Melting Point": "156-157 \u00b0C", "Density": "1.525 g/cm\u00b3"}}