{"cas_no": "122-32-7", "cn_name": "\u4e09\u6cb9\u9178\u7518\u6cb9\u916f", "en_name": ["Triolein", "9-Octadecenoic acid (9Z)-, 1,1\u2032,1\u2032\u2032-(1,2,3-propanetriyl) ester", "Olein, tri-", "9-Octadecenoic acid (Z)-, 1,2,3-propanetriyl ester", "9-Octadecenoic acid (9Z)-, 1,2,3-propanetriyl ester", "Emery oleic acid ester 2230", "Glycerol trioleate", "Glyceryl trioleate", "Raoline", "Triolein", "Oleic acid triglyceride", "Trioleoylglycerol", "Aldo TO", "Emery 2423", "Oleyl triglyceride", "Glycerin trioleate", "Glycerol triolein", "Glyceryl-1,2,3-trioleate", "Trioleoylglyceride", "Oleic triglyceride", "Estol 1433", "sn-Glyceryl trioleate", "Emerest 2423", "Triglyceride OOO", "Kemester 1000", "Actor LO 1", "Kaolube 190", "Edenor NHTi-G", "Radia 7363", "OOO triacylglycerol", "Palmester 4010", "Actor OL 1", "MeSH ID: D014304"], "SMILES": "C(OC(CCCCCCCC=CCCCCCCCC)=O)(COC(CCCCCCCC=CCCCCCCCC)=O)COC(CCCCCCCC=CCCCCCCCC)=O", "physical_data": {"Molecular Weight": "885.43", "Molecular Formula": "C57H104O6", "Boiling Point": "235-240 \u00b0C @ Press: 15 Torr", "Melting Point": "~5.5 \u00b0C (approx)", "Density": "0.915 g/cm\u00b3 @ Temp: 15 \u00b0C"}}