{"cas_no": "122-67-8", "cn_name": "\u8089\u6842\u9178\u5f02\u4e01\u916f", "en_name": ["Isobutyl cinnamate", "2-Propenoic acid, 3-phenyl-, 2-methylpropyl ester", "Cinnamic acid, isobutyl ester", "Labdanol", "Isobutyl cinnamate", "NSC 404181"], "SMILES": "C(=CC(OCC(C)C)=O)C1=CC=CC=C1", "physical_data": {"Molecular Weight": "204.26", "Molecular Formula": "C13H16O2", "Boiling Point": "154 \u00b0C @ Press: 12 Torr", "Density": "1.0170 g/cm\u00b3 @ Temp: 20 \u00b0C"}}