{"cas_no": "122-42-9", "cn_name": "\u82ef\u80fa\u7075", "en_name": ["Propham", "Carbamic acid, N-phenyl-, 1-methylethyl ester", "Carbanilic acid, isopropyl ester", "Carbamic acid, phenyl-, 1-methylethyl ester", "Y 2", "Chem-Hoe", "IFK", "INPC", "IPC", "Isopropyl carbanilate", "Isopropyl phenylcarbamate", "O-Isopropyl N-phenylcarbamate", "Propham", "Tuberit", "Profam", "Agermin", "IPPC", "Birgin", "Collavin", "Tixit", "Isopropyl phenylurethane", "Tuberite", "N-Phenyl-O-isopropylurethane", "NSC 2105"], "SMILES": "N(C(OC(C)C)=O)C1=CC=CC=C1", "physical_data": {"Molecular Weight": "179.22", "Molecular Formula": "C10H13NO2", "Melting Point": "90 \u00b0C", "Density": "1.09 g/cm\u00b3 @ Temp: 20 \u00b0C"}}