{"cas_no": "122-87-2", "cn_name": "4-\u7f9f\u57fa\u82ef\u57fa-\u7518\u6c28\u9178", "en_name": ["p-Hydroxyphenylglycine", "Glycine, N-(4-hydroxyphenyl)-", "Glycine, N-(p-hydroxyphenyl)-", "N-(4-Hydroxyphenyl)glycine", "p-Hydroxyanilinoacetic acid", "p-Hydroxyphenylaminoacetic acid", "N-(p-Hydroxyphenyl)glycine", "Iconyl", "Monazol", "Photoglycine", "p-Hydroxyphenylglycine", "4-(Carboxymethylamino)phenol", "NSC 9267", "2-[(4-Hydroxyphenyl)amino]acetic acid", "2-(4-Hydroxyanilino)acetic acid"], "SMILES": "N(CC(O)=O)C1=CC=C(O)C=C1", "physical_data": {"Molecular Weight": "167.16", "Molecular Formula": "C8H9NO3", "Melting Point": "246 \u00b0C (decomp)"}}