{"cas_no": "122-00-9", "cn_name": "4'-\u7532\u57fa\u82ef\u4e59\u916e", "en_name": ["p-Methylacetophenone", "Ethanone, 1-(4-methylphenyl)-", "Acetophenone, 4\u2032-methyl-", "1-(4-Methylphenyl)ethanone", "p-Acetyltoluene", "Melilotal", "p-Methylacetophenone", "4\u2032-Methylacetophenone", "Methyl p-tolyl ketone", "1-Acetyl-4-methylbenzene", "4-Methylphenyl methyl ketone", "p-Tolyl methyl ketone", "Methyl 4-methylphenyl ketone", "1-p-Tolylethanone", "1-(4-Methylphenyl)-1-ethanone", "4-Acetyltoluene", "1-(4-Tolyl)ethanone", "NSC 9401", "4-Methylhypnone", "4-Methyl-1-acetylbenzene", "1-(p-Tolyl)ethan-1-one"], "SMILES": "C(C)(=O)C1=CC=C(C)C=C1", "physical_data": {"Molecular Weight": "134.18", "Molecular Formula": "C9H10O", "Boiling Point": "226 \u00b0C", "Melting Point": "28 \u00b0C", "Density": "1.0051 g/cm\u00b3 @ Temp: 20 \u00b0C"}}