{"cas_no": "122-56-5", "cn_name": "\u4e09\u4e01\u57fa\u787c", "en_name": ["Tributylborane", "Borane, tributyl-", "Tributylborane", "Tri-n-butylboron", "Tributylboron", "Tri-n-butylborane", "TBB"], "SMILES": "B(CCCC)(CCCC)CCCC", "physical_data": {"Molecular Weight": "182.15", "Molecular Formula": "C12H27B", "Boiling Point": "209 \u00b0C", "Melting Point": "&lt;25 \u00b0C", "Density": "0.8255 g/cm\u00b3 @ Temp: 25 \u00b0C"}}