{"cas_no": "122-31-6", "cn_name": "1,1,3,3-\u56db\u4e59\u6c27\u57fa\u4e19\u70f7", "en_name": ["1,1,3,3-Tetraethoxypropane", "Propane, 1,1,3,3-tetraethoxy-", "Malonaldehyde, bis(diethyl acetal)", "1,1,3,3-Tetraethoxypropane", "Malonaldehyde tetraethyl diacetal", "Tetraethyl malondialdehyde acetal", "Malonaldehyde tetraethyl acetal", "Malondialdehyde tetraethyl acetal", "TEP", "1,1,3,3-Tetrakis(ethoxy)propane", "1,1,3,3-Triethoxypropane", "NSC 17068"], "SMILES": "C(CC(OCC)OCC)(OCC)OCC", "physical_data": {"Molecular Weight": "220.31", "Molecular Formula": "C11H24O4", "Boiling Point": "77-78 \u00b0C @ Press: 3 Torr", "Density": "0.916 g/cm\u00b3 @ Temp: 25 \u00b0C"}}