{"cas_no": "122-52-1", "cn_name": "\u4e9a\u78f7\u9178\u4e09\u4e59\u916f", "en_name": ["Triethyl phosphite", "Phosphorous acid, triethyl ester", "Ethyl phosphite, (EtO)3P", "Ethyl phosphite, Et3PO3", "Tris(ethoxy)phosphine", "Triethoxyphosphine", "Triethyl phosphite", "NSC 5284"], "SMILES": "P(OCC)(OCC)OCC", "physical_data": {"Molecular Weight": "166.16", "Molecular Formula": "C6H15O3P", "Boiling Point": "157.9 \u00b0C", "Melting Point": "-112 \u00b0C", "Density": "0.9629 g/cm\u00b3 @ Temp: 20 \u00b0C"}}