{"cas_no": "122-59-8", "cn_name": "\u82ef\u6c27\u4e59\u9178", "en_name": ["Phenoxyacetic acid", "Acetic acid, 2-phenoxy-", "Acetic acid, phenoxy-", "2-Phenoxyacetic acid", "Glycolic acid phenyl ether", "Phenoxyacetic acid", "Phenoxyethanoic acid", "POA", "NSC 9810", "2-Phenyloxyacetic acid"], "SMILES": "O(CC(O)=O)C1=CC=CC=C1", "physical_data": {"Molecular Weight": "152.15", "Molecular Formula": "C8H8O3", "Boiling Point": "285 \u00b0C", "Melting Point": "98.5 \u00b0C"}}