{"cas_no": "122-97-4", "cn_name": "3-\u82ef\u4e19\u9187", "en_name": ["Benzenepropanol", "Benzenepropanol", "1-Propanol, 3-phenyl-", "Hydrocinnamic alcohol", "Hydrocinnamyl alcohol", "3-Phenyl-n-propanol", "3-Phenyl-1-propanol", "3-Phenylpropanol", "3-Phenylpropyl alcohol", "\u03b3-Phenylpropanol", "\u03b3-Phenylpropyl alcohol", "(3-Hydroxypropyl)benzene", "3-Benzenepropanol", "1-Hydroxy-3-phenylpropane", "NSC 16942", "3-Hydroxy-1-phenylpropane", "Dihydrocinnamyl alcohol", "Dihydrocinnamic alcohol"], "SMILES": "C(CCO)C1=CC=CC=C1", "physical_data": {"Molecular Weight": "136.19", "Molecular Formula": "C9H12O", "Boiling Point": "235 \u00b0C", "Melting Point": "&lt;-18 \u00b0C", "Density": "1.006 g/cm\u00b3 @ Temp: 24 \u00b0C"}}