{"cas_no": "122-04-3", "cn_name": "4-\u785d\u57fa\u82ef\u7532\u9170\u6c2f", "en_name": ["4-Nitrobenzoyl chloride", "Benzoyl chloride, 4-nitro-", "Benzoyl chloride, p-nitro-", "4-Nitrobenzoyl chloride", "p-Nitrobenzoyl chloride", "p-Nitrobenzoic acid chloride", "4-Nitrobenzoic acid chloride", "NSC 5381", "4-Nitrobenzenecarboxylic chloride"], "SMILES": "C(Cl)(=O)C1=CC=C(N(=O)=O)C=C1", "physical_data": {"Molecular Weight": "185.56", "Molecular Formula": "C7H4ClNO3", "Boiling Point": "155 \u00b0C @ Press: 20 Torr", "Melting Point": "75 \u00b0C"}}