{"cas_no": "122-84-9", "cn_name": "\u5bf9\u7532\u6c27\u57fa\u82ef\u57fa\u4e19\u916e", "en_name": ["4-Methoxyphenylacetone", "2-Propanone, 1-(4-methoxyphenyl)-", "2-Propanone, 1-(p-methoxyphenyl)-", "2-Propanone, (p-methoxyphenyl)-", "1-(4-Methoxyphenyl)-2-propanone", "p-Acetonylanisole", "Anisketone", "Anisyl methyl ketone", "1-(p-Methoxyphenyl)-2-propanone", "p-Methoxybenzyl methyl ketone", "4-Methoxybenzyl methyl ketone", "p-Methoxyphenylacetone", "p-Anisylacetone", "4-Methoxyphenylacetone", "1-(p-Anisyl)-2-propanone", "4\u2032-Methoxyphenyl-2-propanone", "1-(4-Methoxyphenyl)acetone", "NSC 22983", "NSC 46101", "3-(4-Methoxyphenyl)propan-2-one"], "SMILES": "C(C(C)=O)C1=CC=C(OC)C=C1", "physical_data": {"Molecular Weight": "164.20", "Molecular Formula": "C10H12O2", "Boiling Point": "268 \u00b0C", "Melting Point": "&lt;-15 \u00b0C", "Density": "1.0861 g/cm\u00b3 @ Temp: 15 \u00b0C"}}