{"cas_no": "122-99-6", "cn_name": "\u4e59\u4e8c\u9187\u82ef\u919a", "en_name": ["Phenoxyethanol", "Ethanol, 2-phenoxy-", "2-Phenoxyethanol", "Arosol", "Dowanol EP", "Ethylene glycol monophenyl ether", "\u03b2-Hydroxyethyl phenyl ether", "1-Hydroxy-2-phenoxyethane", "Phenoxethol", "Phenoxetol", "Phenoxyethyl alcohol", "Phenyl cellosolve", "Phenoxyethanol", "2-Hydroxyethyl phenyl ether", "\u03b2-Phenoxyethyl alcohol", "\u03b2-Phenoxyethanol", "2-Phenoxyethyl alcohol", "Ethylene glycol phenyl ether", "Dalpad A", "Dowanol EPh", "H 4644", "Newpol EFP", "(2-Hydroxyethoxy)benzene", "Rokafenol F 1", "Plastilit DS 3431", "PHE-G", "Phenova", "PHE", "PHE (alcohol)", "PHE-S", "NSC 1864", "Sepicide LD", "Hisolve EPH", "Emeressence 1160", "Euxyl PE 90120", "Agrisol PX 401", "Ultrasolve P 240A", "PhG", "RGP 55", "Protectol PE", "Glycol Ether EPh", "Phenyl Glycol", "JS-EPh", "Neolone PH 100", "HYSOLVE EPH", "Kafurekuto PE 1", "Phenoxyethanol SP", "Acticide PHE", "Microcare PE", "Phenoxitol"], "SMILES": "O(CCO)C1=CC=CC=C1", "physical_data": {"Molecular Weight": "138.16", "Molecular Formula": "C8H10O2", "Boiling Point": "245.2 \u00b0C @ Press: 760 Torr", "Melting Point": "14 \u00b0C", "Density": "1.1094 g/cm\u00b3 @ Temp: 20 \u00b0C"}}