{"cas_no": "122-07-6", "cn_name": "\u7532\u6c28\u57fa\u4e59\u919b\u7f29\u4e8c\u7532\u9187", "en_name": ["(Methylamino)acetaldehyde dimethyl acetal", "Ethanamine, 2,2-dimethoxy-N-methyl-", "Acetaldehyde, (methylamino)-, dimethyl acetal", "2,2-Dimethoxy-N-methylethanamine", "(N-Methylamino)acetaldehyde dimethyl acetal", "2,2-Dimethoxy-N-methylethylamine", "2-(Methylamino)acetaldehyde dimethyl acetal", "(Methylamino)acetaldehyde dimethyl acetal", "N-(2,2-Dimethoxyethyl)methanamine", "N-(2,2-Dimethoxyethyl)methylamine", "Sarcosinal dimethyl acetal", "1-(Methylamino)-2,2-dimethoxyethane", "Methyl(2,2-dimethoxyethyl)amine", "NSC 66270", "N-(2,2-Dimethoxyethyl)-N-methylamine", "(2,2-Dimethoxyethyl)methylamine", "N-Methyl(2,2-dimethoxyethyl)amine", "N-Methyl-2,2-dimethoxyethanamine", "2,2-Dimethoxy-N-methylethan-1-amine"], "SMILES": "C(CNC)(OC)OC", "physical_data": {"Molecular Weight": "119.16", "Molecular Formula": "C5H13NO2", "Boiling Point": "140 \u00b0C"}}