{"cas_no": "122-47-4", "cn_name": "3,4-\u4e8c\u7532\u6c27\u57fa-BETA-\u7532\u57fa-BETA-\u785d\u57fa\u82ef\u4e59\u70ef", "en_name": ["1,2-Dimethoxy-4-(2-nitro-1-propen-1-yl)benzene", "Benzene, 1,2-dimethoxy-4-(2-nitro-1-propen-1-yl)-", "Benzene, 1,2-dimethoxy-4-(2-nitropropenyl)-", "Benzene, 1,2-dimethoxy-4-(2-nitro-1-propenyl)-", "1,2-Dimethoxy-4-(2-nitro-1-propen-1-yl)benzene", "1,2-Dimethoxy-4-(2-nitropropenyl)benzene", "NSC 105317", "NSC 12113", "NSC 243016", "NSC 54548", "1,2-Dimethoxy-4-(2-nitroprop-1-enyl)benzene", "3,4-Dimethoxy-\u03b2-methyl-\u03b2-nitrostyrene"], "SMILES": "C(=C(N(=O)=O)C)C1=CC(OC)=C(OC)C=C1", "physical_data": {"Molecular Weight": "223.23", "Molecular Formula": "C11H13NO4", "Melting Point": "73 \u00b0C"}}