{"cas_no": "122-85-0", "cn_name": "\u5bf9\u4e59\u9170\u6c28\u57fa\u82ef\u7532\u919b", "en_name": ["4-Acetamidobenzaldehyde", "Acetamide, N-(4-formylphenyl)-", "Acetanilide, 4\u2032-formyl-", "N-(4-Formylphenyl)acetamide", "p-Acetamidobenzaldehyde", "4-Acetamidobenzaldehyde", "4\u2032-Formylacetanilide", "p-Formylacetanilide", "Micotiazone", "p-(Acetylamino)benzaldehyde", "4-(Acetylamino)benzaldehyde", "NSC 1701", "NSC 1774"], "SMILES": "N(C(C)=O)C1=CC=C(C=O)C=C1", "physical_data": {"Molecular Weight": "163.17", "Molecular Formula": "C9H9NO2", "Melting Point": "157 \u00b0C"}}