{"cas_no": "122-66-7", "cn_name": "1,2-\u4e8c\u82ef\u80bc", "en_name": ["Hydrazobenzene", "Hydrazine, 1,2-diphenyl-", "Hydrazobenzene", "1,2-Diphenylhydrazine", "N,N\u2032-Bianiline", "Benzene, 1,1\u2032-hydrazobis-", "N,N\u2032-Diphenylhydrazine", "NSC 3510"], "SMILES": "N(NC1=CC=CC=C1)C2=CC=CC=C2", "physical_data": {"Molecular Weight": "184.24", "Molecular Formula": "C12H12N2", "Boiling Point": "293 \u00b0C @ Press: 760 Torr", "Melting Point": "131 \u00b0C (decomp)", "Density": "1.158 g/cm\u00b3 @ Temp: 16 \u00b0C"}}