{"cas_no": "122-65-6", "cn_name": "N,N'-\u4e8c\u82c4\u57fa\u786b\u4ee3\u8349\u9170\u80fa", "en_name": ["N1,N2-Bis(phenylmethyl)ethanedithioamide", "Ethanedithioamide, N1,N2-bis(phenylmethyl)-", "Oxamide, N,N\u2032-dibenzyldithio-", "Ethanedithioamide, N,N\u2032-bis(phenylmethyl)-", "N1,N2-Bis(phenylmethyl)ethanedithioamide", "N,N\u2032-Dibenzyldithiooxamide", "Dibenzylrubeanic acid", "Dibenzylhydrorubeanic acid", "N,N\u2032-Dibenzyldithioxamide", "NSC 44704"], "SMILES": "C(NC(C(NCC1=CC=CC=C1)=S)=S)C2=CC=CC=C2", "physical_data": {"Molecular Weight": "300.44", "Molecular Formula": "C16H16N2S2", "Melting Point": "120 \u00b0C"}}