{"cas_no": "122-18-9", "cn_name": "N-\u5341\u516d\u70f7\u57fa-N,N-\u4e8c\u7532\u57fa\u82c4\u57fa\u6c2f\u5316\u94f5", "en_name": ["Benzylhexadecyldimethylammonium chloride", "Benzenemethanaminium, N-hexadecyl-N,N-dimethyl-, chloride (1:1)", "Benzylhexadecyldimethylammonium chloride", "Ammonium, benzylhexadecyldimethyl-, chloride", "Benzenemethanaminium, N-hexadecyl-N,N-dimethyl-, chloride", "Ammonyx G", "Benzylcetyldimethylammonium chloride", "Cetalkonium chloride", "Cetol", "Cetyldimethylbenzylammonium chloride", "Cetylon", "Cetyl zephiran", "Dimethylbenzylhexadecylammonium chloride", "N-Hexadecyl-N-benzyl-N,N-dimethylammonium chloride", "Hexadecyldimethylbenzylammonium chloride", "n-Hexadecyldimethylbenzylammonium chloride", "Pharycidin Concentrate", "Tetraseptan", "Zettyn chloride", "Hexadecylbenzyldimethylammonium chloride", "Dimethylbenzylcetylammonium chloride", "Acinol", "Ammonyx T", "Cetylbenzyldimethylammonium chloride", "Benzyldimethylhexadecylammonium chloride", "DMCBAC", "Dehyquart CBB", "N-Benzyl-N-cetyldimethylammonium chloride", "Baktonium", "Win 357", "Banicol", "Benzaletas", "Bicetonium", "Bonjela", "Spilan", "Dehyquart CDB", "CDBAC", "Benzyldimethylcetylammonium chloride", "Querton 16BCL", "Sanisol C", "Acquat CDAC", "Acetoquate CDAC", "Zettyn", "N-Hexadecyl-N,N-dimethyl-N-benzylammonium chloride", "Benzyl-n-hexadecyldimethylammonium chloride", "HBAC", "N-Benzyl-N,N-dimethyl-N-hexadecylammonium chloride"], "SMILES": "C([N+](CCCCCCCCCCCCCCCC)(C)C)C1=CC=CC=C1.[Cl-]", "physical_data": {"Molecular Weight": "", "Molecular Formula": "C25H46N.Cl", "Melting Point": "59 \u00b0C"}}