{"cas_no": "122-16-7", "cn_name": "\u4e59\u9170\u78fa\u80fa\u5bf9\u785d\u57fa\u82ef", "en_name": ["Sulfanitran", "Acetamide, N-[4-[[(4-nitrophenyl)amino]sulfonyl]phenyl]-", "Acetanilide, 4\u2032-[(p-nitrophenyl)sulfamoyl]-", "N-[4-[[(4-Nitrophenyl)amino]sulfonyl]phenyl]acetamide", "N4-Acetyl-N1-(4-nitrophenyl)sulfanilamide", "N4-Acetyl-N1-(p-nitrophenyl)sulfanilamide", "4\u2032-[(p-Nitrophenyl)sulfamoyl]acetanilide", "Sulfanitran", "N4-Acetyl-4\u2032-nitrosulfanilanilide", "NSC 77120", "NSC 217299"], "SMILES": "N(S(=O)(=O)C1=CC=C(NC(C)=O)C=C1)C2=CC=C(N(=O)=O)C=C2", "physical_data": {"Molecular Weight": "335.34", "Molecular Formula": "C14H13N3O5S", "Melting Point": "240 \u00b0C"}}