{"cas_no": "122-75-8", "cn_name": "N,N'-\u4e8c\u82c4\u57fa\u4e59\u4e8c\u80fa\u4e8c\u918b\u9178", "en_name": ["1,2-Ethanediamine, N1,N2-bis(phenylmethyl)-, acetate (1:2)", "1,2-Ethanediamine, N1,N2-bis(phenylmethyl)-, acetate (1:2)", "Ethylenediamine, N,N\u2032-dibenzyl-, diacetate", "1,2-Ethanediamine, N,N\u2032-bis(phenylmethyl)-, diacetate", "N,N\u2032-Dibenzylethylenediamine diacetate", "Benzathine diacetate", "NSC 33274", "NSC 81591"], "SMILES": "C(C)(O)=O.C(NCCNCC1=CC=CC=C1)C2=CC=CC=C2", "physical_data": {"Molecular Weight": "", "Molecular Formula": "C16H20N2.2C2H4O2", "Melting Point": "110-112 \u00b0C"}}