{"cas_no": "122-60-1", "cn_name": "\u82ef\u57fa\u7f29\u6c34\u7518\u6cb9\u919a", "en_name": ["Phenyl glycidyl ether", "Oxirane, 2-(phenoxymethyl)-", "Propane, 1,2-epoxy-3-phenoxy-", "Oxirane, (phenoxymethyl)-", "2-(Phenoxymethyl)oxirane", "1,2-Epoxy-3-phenoxypropane", "Glycidyl phenyl ether", "Phenol glycidyl ether", "Phenyl 2,3-epoxypropyl ether", "Phenyl glycidyl ether", "3-Phenoxy-1,2-epoxypropane", "3-Phenoxy-1,2-propylene oxide", "\u03b3-Phenoxypropylene oxide", "1-Phenoxy-2,3-epoxypropane", "2,3-Epoxypropyl phenyl ether", "Glycidol phenyl ether", "3-(Phenyloxy)-1,2-epoxypropane", "(Phenoxymethyl)oxirane", "2,3-Epoxy-1-phenoxypropane", "2,3-Epoxypropoxybenzene", "3-Phenoxy-1-propene oxide", "Oxiranylmethyl phenyl ether", "3-Phenoxypropylene oxide", "(\u00b1)-Phenyl glycidyl ether", "(\u00b1)-1,2-Epoxy-3-phenoxypropane", "(\u00b1)-(Phenoxymethyl)oxirane", "(\u00b1)-Glycidyl phenyl ether", "Denacol EX 141", "Heloxy 63", "Heloxy Modifier 63", "NSC 53476", "NSC 635", "PGE-H", "Epoxy 690", "(Phenyloxymethyl)oxirane", "EX 141", "Epiol P", "K 103", "YS 690", "JX 016", "O-Phenylglycidol", "3-(Phenoxy)propylene epoxide", "Diluent 690", "Beihe CGE", "XY 690", "G 830179", "KF-Epiol ME 700"], "SMILES": "O(CC1CO1)C2=CC=CC=C2", "physical_data": {"Molecular Weight": "150.17", "Molecular Formula": "C9H10O2", "Boiling Point": "245 \u00b0C @ Press: 760 Torr", "Melting Point": "3.5 \u00b0C", "Density": "1.1092 g/cm\u00b3"}}