{"cas_no": "122-94-1", "cn_name": "4-\u6b63\u4e01\u6c27\u57fa\u82ef\u915a", "en_name": ["4-Butoxyphenol", "Phenol, 4-butoxy-", "Phenol, p-butoxy-", "4-Butoxyphenol", "p-Butoxyphenol", "Hydroquinone butyl ether", "Hydroquinone monobutyl ether", "4-n-Butoxyphenol", "NSC 60292"], "SMILES": "O(CCCC)C1=CC=C(O)C=C1", "physical_data": {"Molecular Weight": "166.22", "Molecular Formula": "C10H14O2", "Boiling Point": "125 \u00b0C @ Press: 4 Torr", "Melting Point": "65.5 \u00b0C"}}