{"cas_no": "122-43-0", "cn_name": "\u82ef\u4e59\u9178\u4e01\u916f", "en_name": ["Butyl phenylacetate", "Benzeneacetic acid, butyl ester", "Acetic acid, phenyl-, butyl ester", "Butyl phenylacetate", "Phenylethanoic acid butyl ester", "Butyl benzeneacetate"], "SMILES": "C(C(OCCCC)=O)C1=CC=CC=C1", "physical_data": {"Molecular Weight": "192.25", "Molecular Formula": "C12H16O2", "Boiling Point": "138-140 \u00b0C @ Press: 19 Torr", "Density": "0.9980 g/cm\u00b3 @ Temp: 20 \u00b0C"}}