{"cas_no": "122-72-5", "cn_name": "\u4e59\u9178-3-\u82ef\u57fa\u4e19\u916f", "en_name": ["3-Phenylpropyl acetate", "Benzenepropanol, 1-acetate", "1-Propanol, 3-phenyl-, acetate", "Benzenepropanol, acetate", "Hydrocinnamyl acetate", "3-Acetoxy-1-phenylpropane", "\u03b3-Phenylpropyl acetate", "3-Phenylpropyl acetate", "(3-Acetoxypropyl)benzene", "1-Acetoxy-3-phenylpropane", "3-Phenyl-1-propanol acetate", "3-Phenyl-1-propyl acetate", "Acetic acid 3-phenylpropyl ester", "NSC 404453"], "SMILES": "C(CCOC(C)=O)C1=CC=CC=C1", "physical_data": {"Molecular Weight": "178.23", "Molecular Formula": "C11H14O2", "Boiling Point": "87 \u00b0C @ Press: 1 Torr", "Density": "1.0242 g/cm\u00b3 @ Temp: 27 \u00b0C"}}