{"cas_no": "122-03-2", "cn_name": "4-\u5f02\u4e19\u57fa\u82ef\u7532\u919b", "en_name": ["Cuminaldehyde", "Benzaldehyde, 4-(1-methylethyl)-", "Benzaldehyde, p-isopropyl-", "4-(1-Methylethyl)benzaldehyde", "Cumaldehyde", "Cumic aldehyde", "Cuminal", "Cuminic aldehyde", "p-Isopropylbenzaldehyde", "Cuminaldehyde", "4-Isopropylbenzaldehyde", "Cuminyl aldehyde", "p-Cumic aldehyde", "p-Isopropylbenzenecarboxaldehyde", "NSC 4886", "4-Isopropylphenylcarboxaldehyde", "4-(Propan-2-yl)benzaldehyde", "4-i-Propylbenzaldehyde"], "SMILES": "C(C)(C)C1=CC=C(C=O)C=C1", "physical_data": {"Molecular Weight": "148.20", "Molecular Formula": "C10H12O", "Boiling Point": "235.5 \u00b0C", "Melting Point": "97 \u00b0C", "Density": "0.9799 g/cm\u00b3 @ Temp: 30 \u00b0C"}}