{"cas_no": "122-69-0", "cn_name": "\u6842\u9178\u6842\u916f", "en_name": ["Cinnamyl cinnamate", "2-Propenoic acid, 3-phenyl-, 3-phenyl-2-propen-1-yl ester", "Cinnamic acid, cinnamyl ester", "Styracin", "2-Propenoic acid, 3-phenyl-, 3-phenyl-2-propenyl ester", "Cinnamyl alcohol, cinnamate", "Cinnamyl cinnamate", "Phenylallyl cinnamate", "NSC 46161"], "SMILES": "C(=CC(OCC=CC1=CC=CC=C1)=O)C2=CC=CC=C2", "physical_data": {"Molecular Weight": "264.32", "Molecular Formula": "C18H16O2", "Boiling Point": "370 \u00b0C", "Melting Point": "44 \u00b0C"}}