{"cas_no": "122-96-3", "cn_name": "N,N'-\u53cc(2-\u7f9f\u4e59\u57fa)\u54cc\u55ea", "en_name": ["1,4-Piperazinediethanol", "1,4-Piperazinediethanol", "N,N\u2032-Bis(\u03b2-hydroxyethyl)piperazine", "1,4-Bis(2-hydroxyethyl)piperazine", "N,N\u2032-Di(2-hydroxyethyl)piperazine", "1,4-Di(2-hydroxyethyl)piperazine", "1,4-Bis(\u03b2-hydroxyethyl)piperazine", "N,N\u2032-Bis(2-hydroxyethyl)piperazine", "NSC 26892", "NSC 31268", "NSC 36645", "1,4-Bis(hydroxyethyl)piperazine", "2,2\u2032-(Piperazine-1,4-diyl)diethanol", "2-[4-(2-Hydroxyethyl)piperazin-1-yl]ethan-1-ol", "2-[4-(2-Hydroxyethyl)piperazin-1-yl]ethanol"], "SMILES": "C(CO)N1CCN(CCO)CC1", "physical_data": {"Molecular Weight": "174.24", "Molecular Formula": "C8H18N2O2", "Boiling Point": "215-220 \u00b0C @ Press: 50 Torr", "Melting Point": "134-135 \u00b0C"}}