{"cas_no": "122-46-3", "cn_name": "\u4e59\u9178\u95f4\u7532\u82ef\u916f", "en_name": ["3-Methylphenyl acetate", "Acetic acid, 3-methylphenyl ester", "Acetic acid, m-tolyl ester", "Acetic acid m-cresol ester", "m-Acetoxytoluene", "Cresatin", "m-Cresyl acetate", "Kresatin", "m-Tolyl acetate", "m-Cresol acetate", "3-Methylphenyl acetate", "3-Acetoxytoluene", "3-Cresyl acetate", "3-Tolyl acetate", "3-Methylphenol acetate", "m-Methylphenyl acetate", "NSC 4795"], "SMILES": "O(C(C)=O)C1=CC(C)=CC=C1", "physical_data": {"Molecular Weight": "150.17", "Molecular Formula": "C9H10O2", "Boiling Point": "212 \u00b0C", "Melting Point": "12 \u00b0C", "Density": "1.048 g/cm\u00b3 @ Temp: 20 \u00b0C"}}