{"cas_no": "122-25-8", "cn_name": "5,5'-\u4e9a\u7532\u57fa\u4e8c\u6c34\u6768\u9178", "en_name": ["5,5\u2032-Methylenedisalicylic acid", "Benzoic acid, 3,3\u2032-methylenebis[6-hydroxy-", "Salicylic acid, 5,5\u2032-methylenedi-", "3,3\u2032-Methylenebis[6-hydroxybenzoic acid]", "3,3\u2032-Dicarboxy-4,4\u2032-dihydroxydiphenylmethane", "4,4\u2032-Dihydroxydiphenylmethane-3,3\u2032-dicarboxylic acid", "Methylenebis(salicylic acid)", "5,5\u2032-Methylenedisalicylic acid", "4,4\u2032-Dihydroxy-3,3\u2032-dicarboxydiphenylmethane", "5-(3-Carboxy-4-hydroxybenzyl)salicylic acid", "5,5\u2032-Methylenebis(salicylic acid)", "2,2\u2032-Dihydroxy-5,5\u2032-methylenedibenzoic acid", "NSC 622445", "NSC 14778"], "SMILES": "C(C1=CC(C(O)=O)=C(O)C=C1)C2=CC(C(O)=O)=C(O)C=C2", "physical_data": {"Molecular Weight": "288.25", "Molecular Formula": "C15H12O6", "Melting Point": "243.5 \u00b0C"}}