{"cas_no": "122-95-2", "cn_name": "\u5bf9\u4e8c\u4e59\u6c27\u57fa\u82ef", "en_name": ["1,4-Diethoxybenzene", "Benzene, 1,4-diethoxy-", "Benzene, p-diethoxy-", "1,4-Diethoxybenzene", "p-Diethoxybenzene", "Hydroquinone diethyl ether", "NSC 2113", "NSC 68808", "1,4-Diethyloxybenzene"], "SMILES": "O(CC)C1=CC=C(OCC)C=C1", "physical_data": {"Molecular Weight": "166.22", "Molecular Formula": "C10H14O2", "Boiling Point": "246 \u00b0C", "Melting Point": "72 \u00b0C"}}