{"cas_no": "122-28-1", "cn_name": "\u95f4\u785d\u57fa\u4e59\u9170\u66ff\u82ef\u80fa", "en_name": ["N-(3-Nitrophenyl)acetamide", "Acetamide, N-(3-nitrophenyl)-", "Acetanilide, 3\u2032-nitro-", "Acetanilide, m-nitro-", "N-(3-Nitrophenyl)acetamide", "N-Acetyl-m-nitroaniline", "3\u2032-Nitroacetanilide", "3-Nitro-N-acetylaniline", "m-Nitroacetanilide", "NSC 1314", "NSC 99339", "1-(Acetylamino)-3-nitrobenzene"], "SMILES": "N(C(C)=O)C1=CC(N(=O)=O)=CC=C1", "physical_data": {"Molecular Weight": "180.16", "Molecular Formula": "C8H8N2O3", "Boiling Point": "100 \u00b0C", "Melting Point": "155 \u00b0C"}}