{"cas_no": "122-98-5", "cn_name": "N-\u82ef\u57fa\u4e59\u9187\u80fa", "en_name": ["N-(2-Hydroxyethyl)aniline", "Ethanol, 2-(phenylamino)-", "Ethanol, 2-anilino-", "2-(Phenylamino)ethanol", "N-(\u03b2-Hydroxyethyl)aniline", "N-(2-Hydroxyethyl)phenylamine", "N-Phenylethanolamine", "Benzenamine, N-(2-hydroxyethyl)-", "2-Anilinoethanol", "N-(2-Hydroxyethyl)aniline", "\u03b2-Anilinoethanol", "N-Ethanolaniline", "N-(2-Hydroxyethyl)benzenamine", "N-Phenyl-2-aminoethanol", "NSC 8393", "N-Anilinoethanol", "2-(Phenylamino)ethan-1-ol"], "SMILES": "N(CCO)C1=CC=CC=C1", "physical_data": {"Molecular Weight": "137.18", "Molecular Formula": "C8H11NO", "Boiling Point": "279.5 \u00b0C", "Melting Point": "11 \u00b0C", "Density": "1.101 g/cm\u00b3 @ Temp: 24 \u00b0C"}}