{"cas_no": "122-80-5", "cn_name": "4-\u6c28\u57fa\u4e59\u9170\u82ef\u80fa", "en_name": ["N-(4-Aminophenyl)acetamide", "Acetamide, N-(4-aminophenyl)-", "Acetanilide, 4\u2032-amino-", "Acetanilide, p-amino-", "N-(4-Aminophenyl)acetamide", "C.I. 76005", "p-Acetamidoaniline", "Acetyl-p-phenylenediamine", "C.I. Oxidation Base 19", "Fourrine A", "4\u2032-Aminoacetanilide", "Fourrine 88", "p-Aminoacetanilide", "N-Acetyl-p-phenylenediamine", "4-(Acetylamino)aniline", "4-Acetamidoaniline", "N-(p-Aminophenyl)acetamide", "1-Amino-4-(acetylamino)benzene", "p-(Acetylamino)aniline", "Acetparamin", "p-Acetoaminoaniline", "4-Acetoamidoaniline", "N-Acetyl-1,4-benzenediamine", "Paracetamin", "N-Acetyl-1,4-phenylenediamine", "(4-(Acetylamino)phenyl)amine", "NSC 2135", "4-Acetylaminobenzeneamine", "4-Amino-N-acetylaniline", "4-Amino-acetaniline"], "SMILES": "N(C(C)=O)C1=CC=C(N)C=C1", "physical_data": {"Molecular Weight": "150.18", "Molecular Formula": "C8H10N2O", "Boiling Point": "267 \u00b0C", "Melting Point": "166.5 \u00b0C", "Density": "1.19 g/cm\u00b3"}}