{"cas_no": "122-19-0", "cn_name": "\u5341\u516b\u70f7\u57fa\u4e8c\u7532\u57fa\u82c4\u57fa\u6c2f\u5316\u94f5", "en_name": ["Stearyldimethylbenzylammonium chloride", "Benzenemethanaminium, N,N-dimethyl-N-octadecyl-, chloride (1:1)", "Ammonium, benzyldimethyloctadecyl-, chloride", "Benzenemethanaminium, N,N-dimethyl-N-octadecyl-, chloride", "Benzyldimethyloctadecylammonium chloride", "Ammonyx 4", "Benzyldimethylstearylammonium chloride", "Benzylstearyldimethylammonium chloride", "Dimethylbenzyloctadecylammonium chloride", "Dimethyloctadecylbenzylammonium chloride", "N-Octadecyl-N-benzyl-N,N-dimethylammonium chloride", "Octadecyldimethylbenzylammonium chloride", "Quaternol 1", "Stearyldimethylbenzylammonium chloride", "Stebac", "Stedbac", "Triton X 400", "Octadecylbenzyldimethylammonium chloride", "2B (onium compound)", "Intexsan SB 85", "Stearalkonium chloride", "Ammonyx 490", "Ammonyx 4002", "Intexan SB 85", "Triton X 40", "Benzyloctadecyldimethylammonium chloride", "Orthosan MB", "Stearylbenzyldimethyl ammonium chloride", "Triton CG 500", "Triton CG 400", "Dimethylstearylbenzylammonium chloride", "Maquat SC 18", "Nissan Cation S2-100", "2B", "Cation S (surfactant)", "Larostat HTS 905", "Alkaquat DMB-ST", "Arquad DM 18B90", "Incroquat SDQ 25", "Mackernium SDC 25", "Varisoft SDC 85", "Swanol CA 1485", "Mackernium SDC 85", "Carsoquat SDQ 85", "Carsoquat SDQ 25", "SDQ 85", "SDQ 25", "Algene SC 25", "Catinal OB 80E", "Dodigen 1828", "Varisoft SDC", "Cation S 2-100", "ODBAC 1827", "Incroquat S 85", "Pentonium SD 75", "DC", "Leveling agent 1827", "DC (leveling agent)", "N,N-Dimethyl-N-benzyl-N-octadecylammonium chloride", "Tetranyl B 2MTH", "Antistatic 1827", "Surfactant 1827", "Larostat 905", "BAC 18"], "SMILES": "C([N+](CCCCCCCCCCCCCCCCCC)(C)C)C1=CC=CC=C1.[Cl-]", "physical_data": {"Molecular Weight": "", "Molecular Formula": "C27H50N.Cl", "Melting Point": "57 \u00b0C", "Density": "0.90 g/cm\u00b3 @ Temp: 60 \u00b0C"}}