{"cas_no": "122-14-5", "cn_name": "\u6740\u879f\u677e", "en_name": ["Fenitrothion", "Phosphorothioic acid, O,O-dimethyl O-(3-methyl-4-nitrophenyl) ester", "Phosphorothioic acid, O,O-dimethyl O-(4-nitro-m-tolyl) ester", "OMS 43", "S 112A", "S 5660", "8057HC", "ENT 25,715", "Bayer 41831", "CP 47114", "O,O-Dimethyl O-(3-methyl-4-nitrophenyl) phosphorothioate", "O,O-Dimethyl O-4-nitro-m-tolyl phosphorothioate", "Fenitrothion", "Metathion", "Metathione", "Metathionine E 50", "Nitrophos", "BAY 41831", "CL 47300", "Folithion", "Metathion E 50", "Monsanto CP 47114", "Sumithion", "EI 47300", "Accothion", "Phenitrothion", "Folithion EC 50", "Metation E 50", "Agrothion", "Ovadofos", "O,O-Dimethyl O-(3-methyl-4-nitrophenyl) thiophosphate", "O,O-Dimethyl O-(4-nitro-3-methylphenyl)thiophosphate", "O,O-Dimethyl O-(3-methyl-4-nitrophenyl) phosphorothioate", "O,O-Dimethyl O-(3-methyl-4-nitrophenyl) phosphorothioate", "MEP", "O,O-Dimethyl O-4-nitro-m-tolyl thiophosphate", "Bayer S 5660", "Verthion", "Agriya 1050", "Oleosumifene", "Metation", "Agria 1050", "O,O-DiMe O-(3-methyl-4-nitrophenyl) thiophosphate", "Nuvanol", "MEP (pesticide)", "Arbogal", "Methylnitrophos", "Dimethyl 4-nitro-m-tolyl phosphorothionate", "Mglawik F", "Owadofos", "Fenition", "Oleometathion", "Methadion", "Insectigas F", "Sumithion 20F", "Sumifene", "Owadophos", "Super Sumithion", "Sumithion 20MC", "Sumi oil", "Sumithion 50EC", "Tionfos 50 LE", "Sumigran", "Sumithion Super 1000EC", "Sumithion Super", "Paluthion", "ShaMingSong", "Smichion 10FL", "Sumithion 10FL", "MeSH ID: D005278"], "SMILES": "O(P(OC)(OC)=S)C1=CC(C)=C(N(=O)=O)C=C1", "physical_data": {"Molecular Weight": "277.23", "Molecular Formula": "C9H12NO5PS", "Boiling Point": "118 \u00b0C @ Press: 0.05 Torr", "Melting Point": "3.4 \u00b0C", "Density": "1.3227 g/cm\u00b3 @ Temp: 25 \u00b0C"}}