{"cas_no": "122-57-6", "cn_name": "\u82c4\u53c9\u4e19\u916e", "en_name": ["4-Phenyl-3-buten-2-one", "3-Buten-2-one, 4-phenyl-", "Ketone, methyl styryl", "2-Butenone, 4-phenyl-", "4-Phenyl-3-buten-2-one", "Acetocinnamone", "Methyl styryl ketone", "Benzalacetone", "Benzylideneacetone", "4-Phenylbutenone", "1-Phenyl-1-buten-3-one", "Methyl \u03b2-styryl ketone", "2-Phenylvinyl methyl ketone", "Methyl 2-phenylvinyl ketone", "Styryl methyl ketone", "4-Phenyl-3-butene-2-one", "2-Phenylethenyl methyl ketone", "NSC 5605", "Methyl phenylvinyl ketone"], "SMILES": "C(=CC(C)=O)C1=CC=CC=C1", "physical_data": {"Molecular Weight": "146.19", "Molecular Formula": "C10H10O", "Boiling Point": "261 \u00b0C", "Melting Point": "41.5 \u00b0C"}}