{"cas_no": "122-35-0", "cn_name": "2-\u82ef\u6c27\u57fa\u4e19\u9170\u6c2f", "en_name": ["2-Phenoxypropanoyl chloride", "Propanoyl chloride, 2-phenoxy-", "Propionyl chloride, 2-phenoxy-", "2-Phenoxypropanoyl chloride", "2-Phenoxypropionic acid chloride", "\u03b1-Phenoxypropionyl chloride", "2-Phenoxypropionyl chloride", "NSC 9825", "2-Phenoxypropionoyl chloride"], "SMILES": "O(C(C(Cl)=O)C)C1=CC=CC=C1", "physical_data": {"Molecular Weight": "184.62", "Molecular Formula": "C9H9ClO2", "Boiling Point": "147 \u00b0C", "Density": "1.1865 g/cm\u00b3 @ Temp: 20 \u00b0C"}}