{"cas_no": "122-62-3", "cn_name": "\u7678\u4e8c\u9178\u4e8c\u5f02\u8f9b\u916f", "en_name": ["Bis(2-ethylhexyl) sebacate", "Decanedioic acid, 1,10-bis(2-ethylhexyl) ester", "Sebacic acid, bis(2-ethylhexyl) ester", "Decanedioic acid, bis(2-ethylhexyl) ester", "PX 438", "Bis(2-ethylhexyl) sebacate", "Bisoflex DOS", "DOS", "Monoplex DOS", "Octoil S", "Staflex DOS", "Dioctyl sebacate", "Plexol", "Bisoflex", "Bis(2-ethylhexyl) decanedioate", "Bis(ethylhexyl) sebacate", "Reolube DOS", "Plexol 201J", "Edenol 888", "Ergoplast SDO", "Sebacic acid di(2-ethylhexyl) ester", "Plasthall DOS", "Reomol DDS", "Di-2-ethylhexyl sebacate", "Edenor DEHS", "Sebacic acid di-2-ethylhexyl diester", "Decanedioic acid di(2-ethylhexyl) ester", "Sansocizer DOS", "Uniflex DOS", "Hallstar DOS", "Jeetox T-5", "NSC 68878", "BEHS", "Trivent DOS", "Synative ES DEHS", "Edenol DOS 888", "Neosolue-EHS", "ES-DOS", "FineNeo-EHS", "Priolube 1856", "Nycobase 20307 FG", "Lubricit DOS"], "SMILES": "C(COC(CCCCCCCCC(OCC(CCCC)CC)=O)=O)(CCCC)CC", "physical_data": {"Molecular Weight": "426.67", "Molecular Formula": "C26H50O4", "Boiling Point": "256 \u00b0C @ Press: 5 Torr", "Melting Point": "-48 \u00b0C", "Density": "0.912 g/cm\u00b3 @ Temp: 25 \u00b0C"}}