{"cas_no": "122-63-4", "cn_name": "\u4e19\u9178\u82c4\u916f", "en_name": ["Benzyl propionate", "Propanoic acid, phenylmethyl ester", "Propionic acid, benzyl ester", "Benzyl propionate", "Benzyl propanoate", "Phenylmethyl propanoate", "NSC 46100"], "SMILES": "C(OC(CC)=O)C1=CC=CC=C1", "physical_data": {"Molecular Weight": "164.20", "Molecular Formula": "C10H12O2", "Boiling Point": "220 \u00b0C", "Density": "1.034 g/cm\u00b3 @ Temp: 20 \u00b0C"}}