{"cas_no": "122-51-0", "cn_name": "\u539f\u7532\u9178\u4e09\u4e59\u916f", "en_name": ["Triethyl orthoformate", "Ethane, 1,1\u2032,1\u2032\u2032-[methylidynetris(oxy)]tris-", "Orthoformic acid, triethyl ester", "1,1\u2032,1\u2032\u2032-[Methylidynetris(oxy)]tris[ethane]", "Aethon", "Ethyl orthoformate", "Triethoxymethane", "Triethyl orthoformate", "Orthoformic acid ethyl ester", "Ethone", "OF", "OFE (ether)", "OFE", "NSC 5289", "(Diethoxymethoxy)ethane"], "SMILES": "C(OCC)(OCC)OCC", "physical_data": {"Molecular Weight": "148.20", "Molecular Formula": "C7H16O3", "Boiling Point": "143 \u00b0C", "Density": "0.8858 g/cm\u00b3 @ Temp: 25 \u00b0C"}}