{"cas_no": "122-78-1", "cn_name": "\u82ef\u4e59\u919b", "en_name": ["Phenylacetaldehyde", "Benzeneacetaldehyde", "Acetaldehyde, phenyl-", "Phenylacetaldehyde", "Phenylacetic aldehyde", "\u03b1-Tolualdehyde", "\u03b1-Toluic aldehyde", "2-Phenylethanal", "Phenylethanal", "\u03b1-Phenylacetaldehyde", "Phenacetaldehyde", "NSC 406309", "Hyacinthin", "Benzylcarboxaldehyde"], "SMILES": "C(C=O)C1=CC=CC=C1", "physical_data": {"Molecular Weight": "120.15", "Molecular Formula": "C8H8O", "Boiling Point": "195 \u00b0C", "Melting Point": "33.5 \u00b0C", "Density": "1.0252 g/cm\u00b3 @ Temp: 20 \u00b0C"}}