{"cas_no": "122-73-6", "cn_name": "[(3-\u7532\u57fa\u4e01\u6c27\u57fa)\u7532\u57fa]\u82ef", "en_name": ["Benzyl isopentyl ether", "Benzene, [(3-methylbutoxy)methyl]-", "Ether, benzyl isopentyl", "[(3-Methylbutoxy)methyl]benzene", "Benzyl isopentyl ether", "Benzyl isoamyl ether", "Isoamyl benzyl ether", "NSC 9294"], "SMILES": "C(OCCC(C)C)C1=CC=CC=C1", "physical_data": {"Molecular Weight": "178.27", "Molecular Formula": "C12H18O", "Boiling Point": "237 \u00b0C", "Density": "0.9082 g/cm\u00b3 @ Temp: 20 \u00b0C"}}