{"cas_no": "122-39-4", "cn_name": "\u4e8c\u82ef\u80fa", "en_name": ["Diphenylamine", "Benzenamine, N-phenyl-", "Diphenylamine", "N-Phenylbenzenamine", "Anilinobenzene", "DFA", "DPA", "Benzene, (phenylamino)-", "N,N-Diphenylamine", "N-Phenylaniline", "DBA", "No-Scald", "Naugalube 428L", "NSC 215210", "Antioxidant DPA", "N-Phenyl-\u03b1-aniline", "MeSH ID: D004159"], "SMILES": "N(C1=CC=CC=C1)C2=CC=CC=C2", "physical_data": {"Molecular Weight": "169.22", "Molecular Formula": "C12H11N", "Boiling Point": "302 \u00b0C", "Melting Point": "53-54 \u00b0C", "Density": "1.16 g/cm\u00b3"}}