{"cas_no": "122-82-7", "cn_name": "\u5bf9\u4e59\u6c27\u57fa-N-\u4e59\u9170\u4e59\u9170\u82ef\u80fa", "en_name": ["N-(4-Ethoxyphenyl)-3-oxobutanamide", "Butanamide, N-(4-ethoxyphenyl)-3-oxo-", "p-Acetoacetophenetidide", "N-(4-Ethoxyphenyl)-3-oxobutanamide", "Acetoacetic acid p-phenetidide", "4\u2032-Ethoxyacetoacetanilide", "NSC 50630", "3-Oxo-N-(4\u2032-ethoxyphenyl)butanamide"], "SMILES": "N(C(CC(C)=O)=O)C1=CC=C(OCC)C=C1", "physical_data": {"Molecular Weight": "221.25", "Molecular Formula": "C12H15NO3", "Melting Point": "104-105 \u00b0C"}}