{"cas_no": "122-91-8", "cn_name": "4-\u7532\u6c27\u57fa\u82ef\u7532\u9187\u7532\u9178\u916f", "en_name": ["4-Methoxybenzyl formate", "Benzenemethanol, 4-methoxy-, 1-formate", "Benzyl alcohol, p-methoxy-, formate", "Anisyl alcohol, formate", "Benzenemethanol, 4-methoxy-, formate", "Anisyl formate", "p-Methoxybenzyl alcohol, formate", "4-Methoxybenzyl formate", "p-Methoxybenzyl formate", "NSC 5949", "(4-Anisyl)methyl formate"], "SMILES": "C(OC=O)C1=CC=C(OC)C=C1", "physical_data": {"Molecular Weight": "166.17", "Molecular Formula": "C9H10O3", "Boiling Point": "100 \u00b0C"}}