{"cas_no": "122-37-2", "cn_name": "\u5bf9\u7f9f\u57fa\u4e8c\u82ef\u80fa", "en_name": ["4-Hydroxydiphenylamine", "Phenol, 4-(phenylamino)-", "Phenol, p-anilino-", "4-(Phenylamino)phenol", "p-Hydroxydiphenylamine", "N-Phenyl-p-aminophenol", "p-(Phenylamino)phenol", "p-Anilinophenol", "p-Oxydiphenylamine", "4-Hydroxydiphenylamine", "VTI 1", "4-Anilinophenol", "N-(4-Hydroxyphenyl)aniline", "VTI 1 (phenol)", "p-Hydroxyldiphenylamine", "NSC 1543"], "SMILES": "N(C1=CC=C(O)C=C1)C2=CC=CC=C2", "physical_data": {"Molecular Weight": "185.22", "Molecular Formula": "C12H11NO", "Boiling Point": "330 \u00b0C", "Melting Point": "73 \u00b0C"}}