{"cas_no": "122-70-3", "cn_name": "\u4e19\u9178-2-\u82ef\u4e59\u916f", "en_name": ["Phenylethyl propionate", "Propanoic acid, 2-phenylethyl ester", "Propionic acid, phenethyl ester", "Benzylcarbinyl propionate", "Phenethyl propionate", "Phenylethyl propionate", "Phenethyl alcohol propionate", "2-Phenethyl propionate", "2-Phenylethyl propionate", "2-Phenylethyl propanoate", "\u03b2-Phenylethyl propionate", "Phenethyl propanoate", "NSC 404457", "EcoPCO ACU"], "SMILES": "C(COC(CC)=O)C1=CC=CC=C1", "physical_data": {"Molecular Weight": "178.23", "Molecular Formula": "C11H14O2", "Boiling Point": "238 \u00b0C", "Melting Point": "&lt;25 \u00b0C", "Density": "1.0101 g/cm\u00b3 @ Temp: 20 \u00b0C"}}