{"cas_no": "122-10-1", "cn_name": "O\uff0cO-\u4e8c\u7532\u57fa-O-1\uff0c3-(\u4e8c\u7532\u6c27\u7532\u9170\u57fa)\u4e19\u70ef-2-\u57fa\u78f7\u9178\u916f", "en_name": ["2-Pentenedioic acid, 3-[(dimethoxyphosphinyl)oxy]-, 1,5-dimethyl ester", "2-Pentenedioic acid, 3-[(dimethoxyphosphinyl)oxy]-, 1,5-dimethyl ester", "Glutaconic acid, 3-hydroxy-, dimethyl ester, dimethyl phosphate", "2-Pentenedioic acid, 3-[(dimethoxyphosphinyl)oxy]-, dimethyl ester", "Phosphoric acid, dimethyl ester, ester with dimethyl 3-hydroxyglutaconate", "GC 3707", "ENT 24,833", "Bomyl", "Dimethyl-1,3-di(carbomethoxy)-1-propen-2-yl phosphate", "Dimethyl 3-hydroxyglutaconate dimethyl phosphate", "General Chemicals 3707"], "SMILES": "C(OP(OC)(OC)=O)(CC(OC)=O)=CC(OC)=O", "physical_data": {"Molecular Weight": "282.18", "Molecular Formula": "C9H15O8P", "Boiling Point": "155-164 \u00b0C @ Press: 17 Torr", "Melting Point": "&lt;25 \u00b0C", "Density": "1.2 g/cm\u00b3"}}