{"cas_no": "122-34-9", "cn_name": "\u897f\u739b\u6d25", "en_name": ["Simazine", "1,3,5-Triazine-2,4-diamine, 6-chloro-N2,N4-diethyl-", "s-Triazine, 2-chloro-4,6-bis(ethylamino)-", "1,3,5-Triazine-2,4-diamine, 6-chloro-N,N\u2032-diethyl-", "6-Chloro-N2,N4-diethyl-1,3,5-triazine-2,4-diamine", "W 6658", "G 27692", "Geigy 27692", "Aktinit S", "2,4-Bis(ethylamino)-6-chloro-s-triazine", "CDT", "CET", "2-Chloro-4,6-bis(ethylamino)-s-triazine", "Herboxy", "Hungazin DT", "Simazin", "Simazine", "H 1803", "Simazine 80W", "Triazine A 384", "2-Chloro-4,6-bis(ethylamino)-1,3,5-triazine", "Herbex (pesticide)", "Tafazine 50W", "Premazine", "Radocon", "Tafazine", "Gesatop", "Herbazin 50", "Simazine 50", "Herbazin", "Radokor", "Princep", "Bitemol S 50", "CAT (pesticide)", "Taphazine", "Aquazine", "Symazine", "CAT", "Gesatop 50", "Herbex", "Yrodazin", "Simanex", "4,6-Bis(ethylamino)-2-chlorotriazine", "2-Chloro-4,6-bis(ethylamino)-sym-triazine", "Herbatoxol S", "Simatsin-neste", "Gesatop D", "Azotop", "Batazina FLO", "Simazin S 50", "Simatox", "2,4-Di(ethylamino)-6-chloro-1,3,5-triazine", "NSC 25999", "2-Chloro-4,6-di(ethylamino)triazine", "6-Chloro-N2,N4-diethyl-1,3,5-triazine-2,4-diamine", "Sim-Trol 4L", "MeSH ID: D012839"], "SMILES": "N(CC)C=1N=C(NCC)N=C(Cl)N1", "physical_data": {"Molecular Weight": "201.66", "Molecular Formula": "C7H12ClN5", "Melting Point": "225-227 \u00b0C (decomp)", "Density": "1.33 g/cm\u00b3 @ Temp: 22 \u00b0C"}}