{"cas_no": "122-40-7", "cn_name": "\u7532\u4f4d\u620a\u57fa\u6842\u919b", "en_name": ["Amylcinnamaldehyde", "Heptanal, 2-(phenylmethylene)-", "Cinnamaldehyde, \u03b1-pentyl-", "Cinnamaldehyde, \u03b1-amyl-", "2-(Phenylmethylene)heptanal", "\u03b1-Amylcinnamaldehyde", "\u03b1-Amyl-\u03b2-phenylacrolein", "Flomine", "\u03b1-Pentylcinnamaldehyde", "Jasminaldehyde", "Amylcinnamaldehyde", "2-Benzylideneheptanal", "Pentylcinnamaldehyde", "Amylcinnamic acid aldehyde", "Amylcinnamic aldehyde", "Jasminal", "\u03b1-Amylcinnamal", "NSC 6649", "Jasmine aldehyde", "Amyl cinnamal", "2-Benzylidenheptanal"], "SMILES": "C(=C(CCCCC)C=O)C1=CC=CC=C1", "physical_data": {"Molecular Weight": "202.29", "Molecular Formula": "C14H18O", "Boiling Point": "174-175 \u00b0C @ Press: 20 Torr", "Melting Point": "80 \u00b0C", "Density": "0.97108 g/cm\u00b3 @ Temp: 20 \u00b0C"}}