{"cas_no": "122-20-3", "cn_name": "\u4e09\u5f02\u4e19\u9187\u80fa", "en_name": ["Triisopropanolamine", "2-Propanol, 1,1\u2032,1\u2032\u2032-nitrilotris-", "2-Propanol, 1,1\u2032,1\u2032\u2032-nitrilotri-", "1,1\u2032,1\u2032\u2032-Nitrilotris[2-propanol]", "Triisopropanolamine", "Tri-iso-propanolamine", "Tris(2-hydroxypropyl)amine", "Tris(2-hydroxy-1-propyl)amine", "1,1\u2032,1\u2032\u2032-Nitrilotri-2-propanol", "Tris(2-propanol)amine", "Tri-2-propanolamine", "TIPA", "NTP", "NSC 4010", "CBA (aminoalcohol)", "CBA", "1-[Bis(2-hydroxypropyl)amino]propan-2-ol"], "SMILES": "N(CC(C)O)(CC(C)O)CC(C)O", "physical_data": {"Molecular Weight": "191.27", "Molecular Formula": "C9H21NO3", "Boiling Point": "306 \u00b0C", "Melting Point": "45 \u00b0C", "Density": "1.0 g/cm\u00b3"}}