{"cas_no": "122-11-2", "cn_name": "\u78fa\u80fa\u4e8c\u7532\u6c27\u55ea", "en_name": ["Sulfadimethoxine", "Benzenesulfonamide, 4-amino-N-(2,6-dimethoxy-4-pyrimidinyl)-", "Sulfanilamide, N1-(2,6-dimethoxy-4-pyrimidinyl)-", "4-Amino-N-(2,6-dimethoxy-4-pyrimidinyl)benzenesulfonamide", "Abcid", "Albon", "4-(p-Aminobenzenesulfonamido)-2,6-dimethoxypyrimidine", "N1-(2,6-Dimethoxy-4-pyrimidinyl)sulfanilamide", "2,4-Dimethoxy-6-sulfanilamido-1,3-diazine", "2,4-Dimethoxy-6-sulfanilamidopyrimidine", "2,4-Dimethoxy-6-sulfanilamido-1,3-pyrimidine", "Madribon", "Madriqid", "Madroxin", "Omnibon", "SDMO", "Sulfadimethoxine", "Sulfadimethoxydiazine", "4-Sulfa-2,6-dimethoxypyrimidine", "6-Sulfanilamido-2,4-dimethoxy-1,3-diazine", "6-Sulfanilamido-2,4-dimethoxypyrimidine", "4-Sulfanilamido-2,6-dimethoxypyrimidine", "Sulfastop", "2,6-Dimethoxy-4-sulfanilamidopyrimidine", "Deposul", "Sulxin", "2,4-Dimethoxy-6-sulfonylamido-1,3-diazine", "Sulfadimethoxin", "Dimethoxysulfadiazine", "Sudine", "Madroxine", "Symbio", "Sulphadimethoxine", "Sulfadimetoxin", "Madrigid", "Persulfen", "Fuxal", "Metoxidon", "Scandisil", "Dinosol", "Sulfoplan", "Dorisul", "Arnosulfan", "Redifal", "Diasulfa", "Mecozine", "Lasibon", "Sulforal", "Sulfadimetoxine", "Agribon", "Sulfabon", "Maxulvet", "Bactrovet", "Sumbio", "Neostreptal", "Ultrasulfon", "Suldixine", "NSC 683544", "Sulfamed G", "N-(2,6-Dimethoxypyrimidin-4-yl)-4-aminobenzenesulfonamide", "MeSH ID: D013412"], "SMILES": "N(S(=O)(=O)C1=CC=C(N)C=C1)C=2C=C(OC)N=C(OC)N2", "physical_data": {"Molecular Weight": "310.33", "Molecular Formula": "C12H14N4O4S", "Melting Point": "203.5 \u00b0C", "Density": "1.654 g/cm\u00b3"}}