{"cas_no": "122-79-2", "cn_name": "\u4e59\u9178\u82ef\u916f", "en_name": ["Phenyl acetate", "Acetic acid, phenyl ester", "Phenyl acetate", "Phenol acetate", "(Acetyloxy)benzene", "Acetoxybenzene", "NSC 27795", "2-Acetoxybenzene"], "SMILES": "O(C(C)=O)C1=CC=CC=C1", "physical_data": {"Molecular Weight": "136.15", "Molecular Formula": "C8H8O2", "Boiling Point": "196 \u00b0C", "Melting Point": "-30 \u00b0C", "Density": "1.073 g/cm\u00b3 @ Temp: 20 \u00b0C"}}