{"cas_no": "122-05-4", "cn_name": "2\uff0c5-\u5421\u55ea\u4e8c\u7fa7\u9178", "en_name": ["2,5-Pyrazinedicarboxylic acid", "2,5-Pyrazinedicarboxylic acid", "NSC 80650"], "SMILES": "C(O)(=O)C=1C=NC(C(O)=O)=CN1", "physical_data": {"Molecular Weight": "168.11", "Molecular Formula": "C6H4N2O4", "Melting Point": "269 \u00b0C (decomp)"}}