{"cas_no": "122-01-0", "cn_name": "4-\u6c2f\u82ef\u7532\u9170\u6c2f", "en_name": ["4-Chlorobenzoyl chloride", "Benzoyl chloride, 4-chloro-", "Benzoyl chloride, p-chloro-", "4-Chlorobenzoyl chloride", "p-Chlorobenzoyl chloride", "4-Chlorobenzoic acid chloride", "para-Chlorobenzoyl chloride"], "SMILES": "C(Cl)(=O)C1=CC=C(Cl)C=C1", "physical_data": {"Molecular Weight": "175.01", "Molecular Formula": "C7H4Cl2O", "Boiling Point": "222 \u00b0C", "Melting Point": "16 \u00b0C"}}