{"cas_no": "1220-00-4", "cn_name": "1,3-\u53cc(4-\u6c2f\u82ef\u57fa)\u786b\u8132", "en_name": ["N,N\u2032-Bis(4-chlorophenyl)thiourea", "Thiourea, N,N\u2032-bis(4-chlorophenyl)-", "Carbanilide, 4,4\u2032-dichlorothio-", "N,N\u2032-Bis(4-chlorophenyl)thiourea", "N,N\u2032-Bis(p-chlorophenyl)thiourea", "1,3-Bis(p-chlorophenyl)thiourea", "1,3-Bis(4-chlorophenyl)thiourea", "NSC 56546"], "SMILES": "N(C(NC1=CC=C(Cl)C=C1)=S)C2=CC=C(Cl)C=C2", "physical_data": {"Molecular Weight": "297.20", "Molecular Formula": "C13H10Cl2N2S", "Melting Point": "166-168 \u00b0C"}}