{"cas_no": "1220-83-3", "cn_name": "\u78fa\u80fa\u95f4\u7532\u6c27\u5627\u5576", "en_name": ["Sulfamonomethoxine", "Benzenesulfonamide, 4-amino-N-(6-methoxy-4-pyrimidinyl)-", "Sulfanilamide, N1-(6-methoxy-4-pyrimidinyl)-", "4-Amino-N-(6-methoxy-4-pyrimidinyl)benzenesulfonamide", "ICI 32525", "N1-(6-Methoxy-4-pyrimidinyl)sulfanilamide", "4-Methoxy-6-sulfanilamidopyrimidine", "6-Methoxy-4-sulfanilamidopyrimidine", "Sulfamonomethoxine", "6-Sulfanilamido-4-methoxypyrimidine", "4-Sulfanilamido-6-methoxypyrimidine", "Daimeton", "Sulfamonomethoxin", "DJ 1550", "DS 36", "Ro 4-3476", "Duphadin"], "SMILES": "S(NC=1C=C(OC)N=CN1)(=O)(=O)C2=CC=C(N)C=C2", "physical_data": {"Molecular Weight": "280.30", "Molecular Formula": "C11H12N4O3S", "Melting Point": "200-202 \u00b0C"}}