{"cas_no": "122143-19-5", "cn_name": "1-(2-CHLORO-PHENYL)-CYCLOPROPANECARBOXYLIC ACID", "en_name": ["1-(2-Chlorophenyl)cyclopropanecarboxylic acid", "Cyclopropanecarboxylic acid, 1-(2-chlorophenyl)-", "1-(2-Chlorophenyl)cyclopropanecarboxylic acid", "1-(2-Chlorophenyl)cyclopropane-1-carboxylic acid"], "SMILES": "C(O)(=O)C1(CC1)C2=C(Cl)C=CC=C2", "physical_data": {"Molecular Weight": "196.63", "Molecular Formula": "C10H9ClO2", "Melting Point": "159-162 \u00b0C"}}