{"cas_no": "1221-43-8", "cn_name": "8-(2-\u7f9f\u57fa-3-\u7532\u57fa-3-\u4e01\u70ef\u57fa)-7-\u7532\u6c27\u57fa\u9999\u8c46\u7d20", "en_name": ["Auraptenol", "2H-1-Benzopyran-2-one, 8-[(2S)-2-hydroxy-3-methyl-3-buten-1-yl]-7-methoxy-", "Coumarin, 8-(2-hydroxy-3-methyl-3-butenyl)-7-methoxy-", "2H-1-Benzopyran-2-one, 8-(2-hydroxy-3-methyl-3-butenyl)-7-methoxy-, (S)-", "2H-1-Benzopyran-2-one, 8-[(2S)-2-hydroxy-3-methyl-3-butenyl]-7-methoxy-", "8-[(2S)-2-Hydroxy-3-methyl-3-buten-1-yl]-7-methoxy-2H-1-benzopyran-2-one", "Auraptenol", "(+)-Auraptenol"], "SMILES": "C(C(C(C)=C)O)C1=C2C(=CC=C1OC)C=CC(=O)O2", "physical_data": {"Molecular Weight": "260.29", "Molecular Formula": "C15H16O4", "Melting Point": "109-110 \u00b0C"}}