{"cas_no": "122151-38-6", "cn_name": "(S)-2-\u7f9f\u57fa-1-(\u5421\u54af\u70f7-1-\u57fa)-1-\u4e19\u916e", "en_name": ["(2S)-2-Hydroxy-1-(1-pyrrolidinyl)-1-propanone", "1-Propanone, 2-hydroxy-1-(1-pyrrolidinyl)-, (2S)-", "Pyrrolidine, 1-(2-hydroxy-1-oxopropyl)-, (S)-", "Pyrrolidine, 1-[(2S)-2-hydroxy-1-oxopropyl]-", "(2S)-2-Hydroxy-1-(1-pyrrolidinyl)-1-propanone", "(-)-(S)-N,N-Tetramethylene-2-hydroxypropionamide", "(2S)-1-Oxo-1-(1-pyrrolidinyl)-2-propanol", "(2S)-2-Hydroxy-1-(pyrrolidin-1-yl)propan-1-one", "(S)-1-(Pyrrolidin-1-yl)-2-hydroxypropan-1-one", "(2S)-2-Hydroxy-1-pyrrolidin-1-ylpropan-1-one"], "SMILES": "C(C(C)O)(=O)N1CCCC1", "physical_data": {"Molecular Weight": "143.18", "Molecular Formula": "C7H13NO2", "Boiling Point": "95-97 \u00b0C @ Press: 1 Torr"}}