{"cas_no": "122151-32-0", "cn_name": "1-[(2S)-2-(BENZYLOXY)PROPANOYL]PYRROLIDINE", "en_name": ["(2S)-2-(Phenylmethoxy)-1-(1-pyrrolidinyl)-1-propanone", "1-Propanone, 2-(phenylmethoxy)-1-(1-pyrrolidinyl)-, (2S)-", "Pyrrolidine, 1-[1-oxo-2-(phenylmethoxy)propyl]-, (S)-", "Pyrrolidine, 1-[(2S)-1-oxo-2-(phenylmethoxy)propyl]-", "(2S)-2-(Phenylmethoxy)-1-(1-pyrrolidinyl)-1-propanone", "(S)-N,N-Tetramethylene-2-benzyloxypropionamide", "(2S)-2-Phenylmethoxy-1-pyrrolidin-1-ylpropan-1-one", "(2S)-2-(Benzyloxy)-1-(pyrrolidin-1-yl)propan-1-one"], "SMILES": "C(C(OCC1=CC=CC=C1)C)(=O)N2CCCC2", "physical_data": {"Molecular Weight": "233.31", "Molecular Formula": "C14H19NO2", "Melting Point": "42-42.5 \u00b0C"}}