{"cas_no": "122111-03-9", "cn_name": "\u76d0\u9178\u5409\u897f\u4ed6\u6ee8", "en_name": ["Gemcitabine hydrochloride", "Cytidine, 2\u2032-deoxy-2\u2032,2\u2032-difluoro-, hydrochloride (1:1)", "Cytidine, 2\u2032-deoxy-2\u2032,2\u2032-difluoro-, monohydrochloride", "LY 188011 hydrochloride", "Gemcitabine hydrochloride", "Gemzar", "Gemsar", "Gemcitera", "GEMORAL", "2\u2032-Deoxy-2\u2032,2\u2032-difluorocytidine monohydrochloride"], "SMILES": "FC1(F)C(OC(CO)C1O)N2C(=O)N=C(N)C=C2.Cl", "physical_data": {"Molecular Weight": "", "Molecular Formula": "C9H11F2N3O4.ClH", "Melting Point": "287-292 \u00b0C"}}