{"cas_no": "12224-12-3", "cn_name": "\u8367\u5149\u589e\u767d\u5242135", "en_name": ["Fluorescent Brightener 135", "Benzoxazole, 2,2\u2032-(1,2-ethenediyl)bis[5-methyl-", "Benzoxazole, 2,2\u2032-vinylenebis[5-methyl-", "2,2\u2032-(1,2-Ethenediyl)bis[5-methylbenzoxazole]", "1,2-Bis(5-methyl-2-benzoxazolyl)ethylene", "1,2-Bis(5\u2032-methyl-2\u2032-benzoxazolyl)ethylene", "1,2-Bis(5-methyl-2-benzoxazolyl)ethene", "C.I. 481520", "Fluorescent Brightener 135", "C.I. Fluorescent Brightening Agent 135", "Uvitex ERN CONC P", "Whitex ERN", "Uvitex ERN", "C.I. Fluorescent Brightener 135", "Uvitex ERN-P", "2,2\u2032-Vinylenebis[5-methylbenzoxazole]", "\u03b1,\u03b2-Di(5-methylbenzoxazol-2-yl)ethene", "Hakkol STR", "Illuminarl BGF", "DT", "DT (brightener)", "ERN-P", "Fluorescent Brightener PF"], "SMILES": "C(=CC=1OC=2C(N1)=CC(C)=CC2)C3=NC=4C(O3)=CC=C(C)C4", "physical_data": {"Molecular Weight": "290.32", "Molecular Formula": "C18H14N2O2", "Melting Point": "183-184 \u00b0C"}}