{"cas_no": "122294-10-4", "cn_name": "3,4-\u4e8c\u7532\u6c27\u57fa\u8054\u82ef-4-\u7fa7\u9178", "en_name": ["3\u2032,4\u2032-Dimethoxy[1,1\u2032-biphenyl]-4-carboxylic acid", "[1,1\u2032-Biphenyl]-4-carboxylic acid, 3\u2032,4\u2032-dimethoxy-", "3\u2032,4\u2032-Dimethoxy[1,1\u2032-biphenyl]-4-carboxylic acid", "3\u2032,4\u2032-Dimethoxy-[1,1\u2032-biphenyl]-4-carboxylic acid", "3\u2032,4\u2032-Dimethoxybiphenyl-4-carboxylic acid"], "SMILES": "O(C)C=1C=C(C=CC1OC)C2=CC=C(C(O)=O)C=C2", "physical_data": {"Molecular Weight": "258.27", "Molecular Formula": "C15H14O4", "Melting Point": "221-222 \u00b0C"}}