{"cas_no": "12223-86-8", "cn_name": "\u5206\u6563\u9ec4SE-3GL", "en_name": ["Disperse Yellow 64", "1H-Indene-1,3(2H)-dione, 2-(4-bromo-3-hydroxy-2-quinolinyl)-", "1,3-Indandione, 2-(4-bromo-3-hydroxy-2-quinolyl)-", "2-(4-Bromo-3-hydroxy-2-quinolinyl)-1H-indene-1,3(2H)-dione", "3\u2032-Hydroxy-4\u2032-bromoquinophthalone", "4-Bromo-3-hydroxyquinophthalone", "Miketon Polyester Yellow 3GSL", "C.I. Disperse Yellow 64", "Tersetile Yellow 3GL", "Palanil Yellow 3G", "Dispersion Yellow VP 247", "Disperse Yellow 64", "Samaron Yellow H 3GL", "Transetile Yellow P 3GL", "Resolin Yellow 3GL", "Dianix Yellow F 3G-E", "Sumikaron Yellow SE 3GL", "Tulasteron Fast Yellow 3G-B", "Solvaperm Yellow G", "Disperse Yellow 3G", "Navilene Yellow 3G", "C.I. 47023", "Dianix Yellow F 3G-E concentrate", "Solvent Yellow 176", "C.I. Solvent Yellow 176", "4-Bromo-3-hydroxy-2-(1,3-indandion-2-yl)quinoline", "Disperse Yellow E 3G", "Dianix Yellow E 3G", "Allilon Yellow 3G", "Disperse Yellow 4GL", "Dianix Yellow E 3GL"], "SMILES": "O=C1C(C(=O)C=2C1=CC=CC2)C3=NC4=C(C(Br)=C3O)C=CC=C4", "physical_data": {"Molecular Weight": "368.18", "Molecular Formula": "C18H10BrNO3", "Melting Point": "242-244 \u00b0C"}}