{"cas_no": "1222-05-5", "cn_name": "\u4f73\u4e50\u9e9d\u9999", "en_name": ["Galaxolide", "Cyclopenta[g]-2-benzopyran, 1,3,4,6,7,8-hexahydro-4,6,6,7,8,8-hexamethyl-", "1,3,4,6,7,8-Hexahydro-4,6,6,7,8,8-hexamethylcyclopenta[g]-2-benzopyran", "Galaxolide", "Galaxolide 50", "Pearlide", "Abbalide", "HHCB", "Galaxolide 50BB", "Galaxolide 50IPM", "Galaxolide White", "1,3,4,6,7,8-Hexahydro-4,6,6,7,8,8-hexamethylcyclopenta[g]-2-benzopyrane", "1,3,4,6,7,8-Hexahydro-4,6,6,8,8,8-hexamethylcyclopenta-2-benzopyran", "4,6,6,7,8,8-Hexamethyl-1,3,4,6,7,8-hexahydrocyclopenta[g]isochromene", "Hexamethylindanopyran"], "SMILES": "CC1(C)C=2C(=CC3=C(C2)COCC3C)C(C)(C)C1C", "physical_data": {"Molecular Weight": "258.40", "Molecular Formula": "C18H26O", "Boiling Point": "129 \u00b0C @ Press: 0.8 Torr"}}