{"cas_no": "1222-98-6", "cn_name": "4-\u785d\u57fa\u67e5\u8033\u916e", "en_name": ["4-Nitrochalcone", "2-Propen-1-one, 3-(4-nitrophenyl)-1-phenyl-", "Chalcone, 4-nitro-", "3-(4-Nitrophenyl)-1-phenyl-2-propen-1-one", "4-Nitrochalcone", "1-(4-Nitrophenyl)-3-oxo-3-phenylpropene", "p-Nitrobenzylideneacetophenone", "p-Nitrostyryl phenyl ketone", "3-(p-Nitrophenyl)-1-phenyl-2-propen-1-one", "4-Nitrostyryl phenyl ketone", "NSC 3383", "NSC 636936", "p-Nitrochalcone", "1-Phenyl-3-(4-nitrophenyl)-2-propenone", "1-Phenyl-3-(4-nitrophenyl)-2-propen-1-one"], "SMILES": "C(C=CC1=CC=C(N(=O)=O)C=C1)(=O)C2=CC=CC=C2", "physical_data": {"Molecular Weight": "253.25", "Molecular Formula": "C15H11NO3", "Melting Point": "164.5 \u00b0C"}}