{"cas_no": "122321-04-4", "cn_name": "2-[N-\u7532\u57fa-N-(2-\u5421\u5576\u57fa)\u6c28\u57fa]\u4e59\u9187", "en_name": ["2-[N-Methyl-N-(2-pyridyl)amino]ethanol", "Ethanol, 2-(methyl-2-pyridinylamino)-", "2-(Methyl-2-pyridinylamino)ethanol", "2-(Methyl-2-pyridylamino)ethanol", "2-[N-Methyl-N-(2-pyridyl)amino]ethanol", "2-[Methyl(2-pyridinyl)amino]ethanol", "2-[N-Methyl-N-(pyridin-2-yl)amino]ethanol", "2-[Methyl(pyridin-2-yl)amino]ethan-1-ol", "2-[N-(2-Hydroxyethyl)-N-methylamino]pyridine"], "SMILES": "N(CCO)(C)C1=CC=CC=N1", "physical_data": {"Molecular Weight": "152.19", "Molecular Formula": "C8H12N2O", "Boiling Point": "106-108 \u00b0C @ Press: 0.9 Torr"}}