{"cas_no": "12236-29-2", "cn_name": "\u5206\u6563\u9ec439", "en_name": ["Disperse Yellow 39", "3H-Indol-3-one, 2-[[4-(dimethylamino)phenyl]methylene]-1,2-dihydro-", "C.I. Disperse Yellow 39", "[4-[(3-Hydroxyindol-2-yl)methylene]-2,5-cyclohexadien-1-ylidene]dimethylammonium hydroxide, inner salt", "Dispersol Fast Yellow GR", "Dispersol Yellow B-GR", "Disperse Yellow 39", "C.I. 480095"], "SMILES": "O=C1C=2C(NC1=CC3=CC=C(N(C)C)C=C3)=CC=CC2", "physical_data": {"Molecular Weight": "264.32", "Molecular Formula": "C17H16N2O", "Melting Point": "232-234 \u00b0C"}}