{"cas_no": "12239-58-6", "cn_name": "\u5206\u6563\u9ec482", "en_name": ["Coumarin 7", "2H-1-Benzopyran-2-one, 3-(1H-benzimidazol-2-yl)-7-(diethylamino)-", "Coumarin, 3-(2-benzimidazolyl)-7-(diethylamino)-", "3-(1H-Benzimidazol-2-yl)-7-(diethylamino)-2H-1-benzopyran-2-one", "3-(2-Benzimidazolyl)-7-(diethylamino)coumarin", "Coumarin 7", "Coumarin 535", "Oracet Yellow 8GF", "C.I. Disperse Yellow 82", "Setaron Brilliant Flavine 8GFF", "Terasil Brilliant Flavine 8GFF", "Disperse Yellow 82", "Kayaset Yellow SF-G", "K 7", "Polycron Brilliant Yellow 10GF", "Terasil Flavine 8GFF", "Sumikaron Brilliant Flavine S 10G", "Disperse Yellow 8GFF", "Yellow 8GFF", "Solvent Yellow 185", "C.I. Solvent Yellow 185", "C.I. 551200", "Solvent Yellow 145", "C.I. Solvent Yellow 145", "Keystone Fluorescent Yellow 10G", "NSC 303254", "3-(Benzimidazol-2-yl)-7-diethylamino-2H-benzopyran-2-one", "Day-Glo Savannah Yellow", "C.I. Solvent Yellow 171", "Fluorescent Yellow 9GF", "3-(2\u2032-Benzimidazolyl)-7-(diethylamino)coumarin", "D 820 Savannah Yellow", "Savannah Yellow", "Fluorescent Yellow 10G"], "SMILES": "O=C1C(=CC=2C(O1)=CC(N(CC)CC)=CC2)C=3NC=4C(N3)=CC=CC4", "physical_data": {"Molecular Weight": "333.38", "Molecular Formula": "C20H19N3O2", "Melting Point": "242 \u00b0C", "Density": "1.345 g/cm\u00b3"}}