{"cas_no": "12233-56-6", "cn_name": "\u9517\u9178\u94cb", "en_name": ["Bismuth germanium oxide (Bi4Ge3O12)", "Bismuth germanium oxide (Bi4Ge3O12)", "Bismuth germanate(IV) (Bi4Ge3O12)", "Bismuth germanate (Bi4Ge3O12)", "Bismuth germanate (Bi4(GeO4)3)", "BGO"], "SMILES": "[Ge].[Bi].[O]", "physical_data": {"Molecular Weight": "", "Molecular Formula": "Bi.Ge.O", "Melting Point": "1061 \u00b0C"}}