{"cas_no": "122320-73-4", "cn_name": "\u7f57\u683c\u5217\u916e", "en_name": ["Rosiglitazone", "2,4-Thiazolidinedione, 5-[[4-[2-(methyl-2-pyridinylamino)ethoxy]phenyl]methyl]-", "5-[[4-[2-(Methyl-2-pyridinylamino)ethoxy]phenyl]methyl]-2,4-thiazolidinedione", "BRL 49653", "Rosiglitazone", "5-[4-[2-(N-Methyl-N-(2-pyridyl)amino)ethoxy]benzyl]thiazolidine-2,4-dione", "Rosiglizole", "5-[[4-[2-[N-Methyl-N-(2-pyridyl)amino]ethoxy]phenyl]methyl]thiazolidine-2,4-dione", "TDZ 01", "Rezult", "Rosvel", "Venvia", "Nyracta"], "SMILES": "C(C1SC(=O)NC1=O)C2=CC=C(OCCN(C)C3=CC=CC=N3)C=C2", "physical_data": {"Molecular Weight": "357.43", "Molecular Formula": "C18H19N3O3S", "Melting Point": "151-153 \u00b0C"}}