{"cas_no": "1223-31-0", "cn_name": "\u5bf9\u785d\u57fa\u82ef\u786b\u919a", "en_name": ["1,1\u2032-Thiobis[4-nitrobenzene]", "Benzene, 1,1\u2032-thiobis[4-nitro-", "Sulfide, bis(p-nitrophenyl)", "1,1\u2032-Thiobis[4-nitrobenzene]", "4,4\u2032-Dinitrodiphenyl sulfide", "Bis(4-nitrophenyl) sulfide", "Bis(p-nitrophenyl) sulfide", "p,p\u2032-Dinitrodiphenyl sulfide", "4-Nitrophenyl sulfide", "1,1\u2032-Thiobis(4-nitrobenzene)", "NSC 11350", "NSC 629272", "1-Nitro-4-(4-nitrophenyl)sulfanylbenzene", "1-Nitro-4-[(4-nitrophenyl)sulfanyl]benzene"], "SMILES": "S(C1=CC=C(N(=O)=O)C=C1)C2=CC=C(N(=O)=O)C=C2", "physical_data": {"Molecular Weight": "276.27", "Molecular Formula": "C12H8N2O4S", "Melting Point": "152-154 \u00b0C"}}