{"cas_no": "122341-38-2", "cn_name": "\u66ff\u83ab\u535f\u5429", "en_name": ["mTHPC", "Phenol, 3,3\u2032,3\u2032\u2032,3\u2032\u2032\u2032-(7,8-dihydro-21H,23H-porphine-5,10,15,20-tetrayl)tetrakis-", "3,3\u2032,3\u2032\u2032,3\u2032\u2032\u2032-(7,8-Dihydro-21H,23H-porphine-5,10,15,20-tetrayl)tetrakis[phenol]", "5,10,15,20-Tetra(m-hydroxyphenyl)chlorin", "Temoporfin", "3,3\u2032,3\u2032\u2032,3\u2032\u2032\u2032-(7,8-Dihydroporphyrin-5,10,15,20-tetrayl)tetraphenol", "mTHPC", "EF 9", "5,10,15,20-Tetrakis(m-hydroxyphenyl)chlorin", "Foscan", "8-Dihydroporphyrin-5", "Fosgel", "Foslip", "Fospeg", "Foslipos", "m-Tetrahydroxyphenylchlorin", "SML 1707"], "SMILES": "OC=1C=C(C=2C=3NC(=CC3)C(=C4N=C(C=C4)C(=C5NC(=C(C6=NC2CC6)C7=CC(O)=CC=C7)C=C5)C8=CC(O)=CC=C8)C9=CC(O)=CC=C9)C=CC1", "physical_data": {"Molecular Weight": "680.75", "Molecular Formula": "C44H32N4O4", "Melting Point": "&gt;250 \u00b0C"}}