{"cas_no": "12239-34-8", "cn_name": "\u5206\u6563\u5170 79", "en_name": ["Disperse Blue 79", "Acetamide, N-[5-[bis[2-(acetyloxy)ethyl]amino]-2-[2-(2-bromo-4,6-dinitrophenyl)diazenyl]-4-ethoxyphenyl]-", "C.I. Disperse Blue 79", "Acetamide, N-[5-[bis[2-(acetyloxy)ethyl]amino]-2-[(2-bromo-4,6-dinitrophenyl)azo]-4-ethoxyphenyl]-", "p-Acetophenetidide, 5\u2032-[bis(2-hydroxyethyl)amino]-2\u2032-[(2-bromo-4,6-dinitrophenyl)azo]-, diacetate", "N-[5-[Bis[2-(acetyloxy)ethyl]amino]-2-[2-(2-bromo-4,6-dinitrophenyl)diazenyl]-4-ethoxyphenyl]acetamide", "Samaron Navy Blue G", "Foron Navy 2GL", "Foron Navy S 2GL", "Foron Navy Blue S 2GL", "Disperse Blue 79", "Eastman Polyester Navy Blue 2R-LSW", "Ostacet Navy Blue S-G", "Navy Blue 2GL", "Disperse Navy Blue 2GL", "Disperse Blue 2GL", "2-Bromo-4,6-dinitrophenylazo-2-acetamido-4-di-(2-acetoxyethyl)amino-5-ethoxybenzene", "2\u2032-Acetylamino-4\u2032-[bis(acetoxyethyl)amino]-6-bromo-2,4-dinitro-5\u2032-ethoxyazobenzene", "2-Acetamido-4-[N,N-bis(\u03b2-acetoxyethyl)amino]-5-ethoxy-2\u2032-bromo-4\u2032,6\u2032-dinitroazobenzene", "Tulasteron Fast Navy Blue 2G-D", "Samaron Marine Blue G", "Terasil Navy GRL", "Foron Navy S 2GLI", "Serilene Navy Blue 2GN-LS", "C.I. 11345", "Miketon Polyester Navy Blue GLSF", "Tulasteron Navy Blue 2GDN", "Disperse Blue HGL", "Dianix Navy S 2G", "Disperse Dark Blue HGL", "Disperse Deep Blue H-GL", "Lonsperse Dark Blue HGL", "Disperse Navy Blue HGL"], "SMILES": "N(CCOC(C)=O)(CCOC(C)=O)C1=C(OCC)C=C(N=NC2=C(N(=O)=O)C=C(N(=O)=O)C=C2Br)C(NC(C)=O)=C1", "physical_data": {"Molecular Weight": "639.41", "Molecular Formula": "C24H27BrN6O10", "Melting Point": "157 \u00b0C"}}