{"cas_no": "122453-73-0", "cn_name": "\u866b\u87a8\u8148", "en_name": ["Chlorfenapyr", "1H-Pyrrole-3-carbonitrile, 4-bromo-2-(4-chlorophenyl)-1-(ethoxymethyl)-5-(trifluoromethyl)-", "4-Bromo-2-(4-chlorophenyl)-1-(ethoxymethyl)-5-(trifluoromethyl)-1H-pyrrole-3-carbonitrile", "AC 303630", "CL 303630", "Pirate", "4-Bromo-2-(p-chlorophenyl)-1-(ethoxymethyl)-5-(trifluoromethyl)pyrrole-3-carbonitrile", "Chlorfenapyr", "Pirate 3F", "Kotetsu", "Pylon", "Rampage", "Citrex (acaricide)", "Citrex", "Secure", "Secure 360SC Insecticide-Miticide", "Phantom", "Mystox MP", "Stealth", "AC 303-630", "Bromchlorfenapyr", "Lepido", "Rampage (insecticide)", "Phantom 240SC", "Chongmanqing"], "SMILES": "C(OCC)N1C(=C(C#N)C(Br)=C1C(F)(F)F)C2=CC=C(Cl)C=C2", "physical_data": {"Molecular Weight": "407.61", "Molecular Formula": "C15H11BrClF3N2O", "Melting Point": "100.5 \u00b0C"}}