{"cas_no": "122455-85-0", "cn_name": "5-\u6c28\u57fa-4-\u6c1f-2-\u7532\u57fa\u82ef\u915a", "en_name": ["5-Amino-4-fluoro-2-methylphenol", "Phenol, 5-amino-4-fluoro-2-methyl-", "5-Amino-4-fluoro-2-methylphenol", "2-Methyl-4-fluoro-5-aminophenol", "3-Amino-4-fluoro-6-methylphenol", "2-Fluoro-5-hydroxy-4-methylaniline"], "SMILES": "CC1=C(O)C=C(N)C(F)=C1", "physical_data": {"Molecular Weight": "141.14", "Molecular Formula": "C7H8FNO", "Melting Point": "147 \u00b0C"}}