{"cas_no": "1224709-68-5", "cn_name": "3,6-\u53cc(5-\u6eb4\u567b\u5429-2-\u57fa)-2,5-\u53cc(2-\u4e01\u57fa\u8f9b\u57fa)\u5421\u54af\u5e76[3,4-C]\u5421\u54af-1,4(2H,5H)-\u4e8c\u916e", "en_name": ["3,6-Bis(5-bromo-2-thienyl)-2,5-bis(2-butyloctyl)-2,5-dihydropyrrolo[3,4-c]pyrrole-1,4-dione", "Pyrrolo[3,4-c]pyrrole-1,4-dione, 3,6-bis(5-bromo-2-thienyl)-2,5-bis(2-butyloctyl)-2,5-dihydro-", "3,6-Bis(5-bromo-2-thienyl)-2,5-bis(2-butyloctyl)-2,5-dihydropyrrolo[3,4-c]pyrrole-1,4-dione", "3,6-Bis(5-bromothiophen-2-yl)-2,5-bis(2-butyloctyl)pyrrolo[3,4-c]pyrrole-1,4(2H,5H)-dione"], "SMILES": "O=C1C=2C(=C(N1CC(CCCCCC)CCCC)C3=CC=C(Br)S3)C(=O)N(CC(CCCCCC)CCCC)C2C4=CC=C(Br)S4", "physical_data": {"Molecular Weight": "794.79", "Molecular Formula": "C38H54Br2N2O2S2", "Melting Point": "151.2-153.7 \u00b0C"}}