{"cas_no": "122537-60-4", "cn_name": "GELOMULIDE B", "en_name": ["(3S,4aS,6aS,7aR,10aS,11aS,11bR,11cR)-3-(Acetyloxy)-1,2,3,4,4a,5,6,11a,11b,11c-decahydro-4,4,8,11c-tetramethylbisoxireno[1,10a:3,4]phenanthro[3,2-b]furan-9(7aH)-one", "Bisoxireno[1,10a:3,4]phenanthro[3,2-b]furan-9(7aH)-one, 3-(acetyloxy)-1,2,3,4,4a,5,6,11a,11b,11c-decahydro-4,4,8,11c-tetramethyl-, (3S,4aS,6aS,7aR,10aS,11aS,11bR,11cR)-", "Bisoxireno[1,10a:3,4]phenanthro[3,2-b]furan-9(7aH)-one, 3-(acetyloxy)-1,2,3,4,4a,5,6,11a,11b,11c-decahydro-4,4,8,11c-tetramethyl-, [3S-(3\u03b1,4a\u03b1,6aR*,7a\u03b2,10aR*,11a\u03b1,11b\u03b1,11c\u03b2)]-", "(3S,4aS,6aS,7aR,10aS,11aS,11bR,11cR)-3-(Acetyloxy)-1,2,3,4,4a,5,6,11a,11b,11c-decahydro-4,4,8,11c-tetramethylbisoxireno[1,10a:3,4]phenanthro[3,2-b]furan-9(7aH)-one", "Gelomulide B"], "SMILES": "CC12C3C4(C(O4)C=5C6(C3O6)OC(=O)C5C)CCC1C(C)(C)C(OC(C)=O)CC2", "physical_data": {"Molecular Weight": "388.45", "Molecular Formula": "C22H28O6", "Melting Point": "252 \u00b0C"}}