{"cas_no": "122520-86-9", "cn_name": "\u916a\u6c28\u9178\u78f7\u9178\u5316\u6291\u5236\u5242", "en_name": ["Tyrphostin AG 213", "2-Propenethioamide, 2-cyano-3-(3,4-dihydroxyphenyl)-, (2E)-", "2-Propenethioamide, 2-cyano-3-(3,4-dihydroxyphenyl)-, (E)-", "(2E)-2-Cyano-3-(3,4-dihydroxyphenyl)-2-propenethioamide", "AG 213", "Tyrphostin AG 213"], "SMILES": "C(=C(C(N)=S)C#N)C1=CC(O)=C(O)C=C1", "physical_data": {"Molecular Weight": "220.25", "Molecular Formula": "C10H8N2O2S", "Melting Point": "213 \u00b0C"}}