{"cas_no": "1225-55-4", "cn_name": "\u76d0\u9178\u666e\u7f57\u66ff\u6797", "en_name": ["Protriptyline hydrochloride", "5H-Dibenzo[a,d]cycloheptene-5-propanamine, N-methyl-, hydrochloride (1:1)", "5H-Dibenzo[a,d]cycloheptene-5-propylamine, N-methyl-, hydrochloride", "5H-Dibenzo[a,d]cycloheptene-5-propanamine, N-methyl-, hydrochloride", "MK-240", "N-Methyl-5H-dibenzo[a,d]cycloheptene-5-propylamine hydrochloride", "Normethyl EX4442", "Protriptyline hydrochloride", "Triptil Hydrochloride", "Vivactil", "Concordin", "Maximed", "Triptil", "Protryptyline hydrochloride", "Maximet"], "SMILES": "C(CCNC)C1C=2C(C=CC=3C1=CC=CC3)=CC=CC2.Cl", "physical_data": {"Molecular Weight": "", "Molecular Formula": "C19H21N.ClH", "Melting Point": "169-171 \u00b0C"}}