{"cas_no": "1225-13-4", "cn_name": "\u5185\u6d88\u65cb-2,3-\u4e8c\u82ef\u57fa\u7425\u73c0\u9178", "en_name": ["rel-(2R,3S)-2,3-Diphenylbutanedioic acid", "Butanedioic acid, 2,3-diphenyl-, (2R,3S)-rel-", "Succinic acid, 2,3-diphenyl-, meso-", "Butanedioic acid, 2,3-diphenyl-, (R*,S*)-", "rel-(2R,3S)-2,3-Diphenylbutanedioic acid", "meso-2,3-Diphenylsuccinic acid", "NSC 75627"], "SMILES": "C(C(C(O)=O)C1=CC=CC=C1)(C(O)=O)C2=CC=CC=C2", "physical_data": {"Molecular Weight": "270.28", "Molecular Formula": "C16H14O4", "Melting Point": "227-229 \u00b0C"}}