{"cas_no": "122548-33-8", "cn_name": "\u54aa\u5511\u78fa\u9686", "en_name": ["Imazosulfuron", "Imidazo[1,2-a]pyridine-3-sulfonamide, 2-chloro-N-[[(4,6-dimethoxy-2-pyrimidinyl)amino]carbonyl]-", "2-Chloro-N-[[(4,6-dimethoxy-2-pyrimidinyl)amino]carbonyl]imidazo[1,2-a]pyridine-3-sulfonamide", "Imazosulfuron", "TH 913", "Takeoff", "N-(2-Chloroimidazo[1,2-a]pyridin-3-ylsulfonyl)-N\u2032-(4,6-dimethoxy-2-pyrimidinyl)urea", "Brazzos", "League"], "SMILES": "S(NC(NC=1N=C(OC)C=C(OC)N1)=O)(=O)(=O)C=2N3C(=NC2Cl)C=CC=C3", "physical_data": {"Molecular Weight": "412.81", "Molecular Formula": "C14H13ClN6O5S", "Melting Point": "183 \u00b0C (decomp)"}}