{"cas_no": "12257-42-0", "cn_name": "\u6c2f\u964d\u51b0\u7247\u4e8c\u70ef\u94d1\u4e8c\u805a\u4f53", "en_name": ["Bis[chloro(norbornadiene)rhodium]", "Rhodium, bis[(2,3,5,6-\u03b7)-bicyclo[2.2.1]hepta-2,5-diene]di-\u03bc-chlorodi-", "Rhodium, di-\u03bc-chlorobis(2,5-norbornadiene)di-", "Rhodium, dichlorobis(2,5-norbornadiene)di-", "Bicyclo[2.2.1]hepta-2,5-diene, rhodium complex", "Bis[(2,3,5,6-\u03b7)-bicyclo[2.2.1]hepta-2,5-diene]di-\u03bc-chlorodirhodium", "Dichloro(norbornadiene)dirhodium", "Rhodium norbornadiene chloride dimer", "Bis[chloro(norbornadiene)rhodium]", "Norbornadiene rhodium chloride dimer", "Chloronorbornadiene rhodium dimer", "Bis((\u03bc-chloro)(norbornadiene)rhodium)", "Bis(chloro(\u03b74-norbornadiene)rhodium)", "(Bicyclo[2.2.1]hepta-2,5-diene)rhodium (I) chloride dimer", "(\u03b74-Norbornadiene)rhodium chloride dimer", "Bis(\u03bc-chloro)bis(norbornadiene)dirhodium", "Bis((\u03bc-chloro)(2,5-norbornadiene)rhodium)", "Di-\u03bc-chlorobis(norbornadiene)dirhodium", "Di-\u03bc-chlorobis(\u03b74-norbornadiene)dirhodium(I)", "Dichlorobis(norbornadiene)dirhodium", "Bis(\u03bc-chloro)bis[(norbornadiene)rhodium]"], "SMILES": "[Rh+]1234([CH]5=[CH]1C6[CH]2=[CH]3C5C6)[Cl-][Rh+]789([Cl-]4)[CH]%10=[CH]7C%11[CH]8=[CH]9C%10C%11", "physical_data": {"Molecular Weight": "", "Molecular Formula": "C14H16Cl2Rh2", "Melting Point": "240 \u00b0C (decomp)"}}