{"cas_no": "1226-42-2", "cn_name": "4,4'-\u4e8c\u7532\u6c27\u57fa\u82ef\u915a\u916f", "en_name": ["4,4\u2032-Dimethoxybenzil", "1,2-Ethanedione, 1,2-bis(4-methoxyphenyl)-", "p-Anisil", "Ethanedione, bis(4-methoxyphenyl)-", "Anisil", "1,2-Bis(4-methoxyphenyl)-1,2-ethanedione", "4,4\u2032-Dimethoxybenzil", "Bis(p-methoxyphenyl)ethanedione", "Bis(4-methoxyphenyl)ethanedione", "Di-p-anisylethanedione", "p,p\u2032-Dimethoxybenzil", "NSC 19218", "NSC 602910", "4,4\u2032-Dimethoxylbenzil", "1,2-Bis(4-methoxyphenyl)ethanedione", "1,2-Bis(p-methoxyphenyl)ethane-1,2-dione", "1,2-Bis(4-methoxyphenyl)ethan-1,2-dione"], "SMILES": "C(C(=O)C1=CC=C(OC)C=C1)(=O)C2=CC=C(OC)C=C2", "physical_data": {"Molecular Weight": "270.28", "Molecular Formula": "C16H14O4", "Boiling Point": "195 \u00b0C @ Press: 16 Torr", "Melting Point": "132 \u00b0C"}}