{"cas_no": "12262-58-7", "cn_name": "\u8fc7\u6c27\u5316\u73af\u5df1\u916e", "en_name": ["Cyclohexanone peroxide", "Cyclohexanone, peroxide", "Cyclohexanone peroxide", "Cyclonox LNC", "Cyclonox LE 50", "Luperox CH-S", "Cyclonox LE", "Interox CHP-HA-M 2", "Peroxycyclohexanone", "Cyclonox BT 50", "Perhexa H", "Cyclonox LR", "Trigonox 113"], "SMILES": "", "physical_data": {"Molecular Weight": "", "Molecular Formula": "Unspecified", "Melting Point": "65-70 \u00b0C"}}