{"cas_no": "1226-46-6", "cn_name": "\u786b\u4ee3\u7c73\u6c0f\u916e", "en_name": ["4,4\u2032-Bis(dimethylamino)thiobenzophenone", "Methanethione, bis[4-(dimethylamino)phenyl]-", "Benzophenone, 4,4\u2032-bis(dimethylamino)thio-", "Bis[4-(dimethylamino)phenyl]methanethione", "4,4\u2032-Bis(dimethylamino)thiobenzophenone", "Michler's thioketone", "Michler's thione", "p,p\u2032-Bis(dimethylamino)thiobenzophenone", "TMK", "NSC 30656"], "SMILES": "C(=S)(C1=CC=C(N(C)C)C=C1)C2=CC=C(N(C)C)C=C2", "physical_data": {"Molecular Weight": "284.42", "Molecular Formula": "C17H20N2S", "Melting Point": "202-204 \u00b0C", "Density": "1.230 g/cm\u00b3"}}