{"cas_no": "122647-32-9", "cn_name": "\u5bcc\u9a6c\u9178\u4f0a\u5e03\u5229\u7279", "en_name": ["Ibutilide fumarate", "Methanesulfonamide, N-[4-[4-(ethylheptylamino)-1-hydroxybutyl]phenyl]-, (2E)-2-butenedioate (2:1)", "Methanesulfonamide, N-[4-[4-(ethylheptylamino)-1-hydroxybutyl]phenyl]-, (\u00b1)-, (E)-2-butenedioate (2:1) (salt)", "Methanesulfonamide, N-[4-[4-(ethylheptylamino)-1-hydroxybutyl]phenyl]-, (2E)-2-butenedioate (2:1) (salt)", "U 70226E", "Ibutilide fumarate", "Corvert", "Methanesulfonamide, N-[4-[4-(ethylheptylamino)-1-hydroxybutyl]phenyl]-, (E)-2-butenedioate (2:1) (salt)"], "SMILES": "C(=CC(O)=O)C(O)=O.C(CCCN(CCCCCCC)CC)(O)C1=CC=C(NS(C)(=O)=O)C=C1", "physical_data": {"Molecular Weight": "", "Molecular Formula": "C20H36N2O3S.<sup>1</sup>/2C4H4O4", "Melting Point": "117-119 \u00b0C"}}