{"cas_no": "122684-35-9", "cn_name": "3-\u786b\u4ee3\u6c28\u57fa\u7532\u9170\u5421\u54af\u70f7-1-\u7fa7\u9178\u53d4\u4e01\u916f", "en_name": ["1,1-Dimethylethyl 3-(aminothioxomethyl)-1-pyrrolidinecarboxylate", "1-Pyrrolidinecarboxylic acid, 3-(aminothioxomethyl)-, 1,1-dimethylethyl ester", "1,1-Dimethylethyl 3-(aminothioxomethyl)-1-pyrrolidinecarboxylate", "3-Thiocarbamoylpyrrolidine-1-carboxylic acid tert-butyl ester", "tert-Butyl 3-carbamothioylpyrrolidine-1-carboxylate", "1-Boc-3-thiocarbamoyl-pyrrolidine"], "SMILES": "C(OC(C)(C)C)(=O)N1CC(C(N)=S)CC1", "physical_data": {"Molecular Weight": "230.33", "Molecular Formula": "C10H18N2O2S", "Melting Point": "131-133 \u00b0C"}}