{"cas_no": "122672-46-2", "cn_name": "(1R,2S)-2-\u6c28\u57fa\u73af\u620a\u70f7\u7532\u9178", "en_name": ["Cispentacin", "Cyclopentanecarboxylic acid, 2-amino-, (1R,2S)-", "Cyclopentanecarboxylic acid, 2-amino-, (1R-cis)-", "(1R,2S)-2-Aminocyclopentanecarboxylic acid", "FR 109615", "Antibiotic FR 109615", "Cispentacin", "(-)-(1R,2S)-Cispentacin", "(-)-Cispentacin", "cis-(1R,2S)-2-Aminocyclopentane-1-carboxylic acid", "(1R,2S)-2-Aminocyclopentanecarboxylic acid"], "SMILES": "C(O)(=O)C1C(N)CCC1", "physical_data": {"Molecular Weight": "129.16", "Molecular Formula": "C6H11NO2", "Melting Point": "194-197 \u00b0C (decomp)"}}