{"cas_no": "12263-85-3", "cn_name": "\u4e09\u6eb4\u5316\u4e09\u7532\u57fa\u4e8c\u94dd", "en_name": ["Tribromotrimethyldialuminum", "Aluminum, tribromotrimethyldi-", "Tribromotrimethyldialuminum", "Methylaluminum sesquibromide"], "SMILES": "", "physical_data": {"Molecular Weight": "", "Molecular Formula": "C3H9Al2Br3", "Boiling Point": "166 \u00b0C", "Density": "1.514 g/cm\u00b3 @ Temp: 25 \u00b0C"}}