{"cas_no": "1226-22-8", "cn_name": "3,7,4\u2032-\u4e09\u7f9f\u57fa\u9ec4\u70f7\u916e", "en_name": ["Garbanzol", "4H-1-Benzopyran-4-one, 2,3-dihydro-3,7-dihydroxy-2-(4-hydroxyphenyl)-, (2R,3R)-", "Flavanone, 3,4\u2032,7-trihydroxy-", "4H-1-Benzopyran-4-one, 2,3-dihydro-3,7-dihydroxy-2-(4-hydroxyphenyl)-, (2R-trans)-", "(2R,3R)-2,3-Dihydro-3,7-dihydroxy-2-(4-hydroxyphenyl)-4H-1-benzopyran-4-one", "Garbanzol", "(2R-trans)-3,4\u2032,7-Trihydroxyflavanone"], "SMILES": "OC1C(OC=2C(C1=O)=CC=C(O)C2)C3=CC=C(O)C=C3", "physical_data": {"Molecular Weight": "272.25", "Molecular Formula": "C15H12O5", "Melting Point": "207-208 \u00b0C"}}