{"cas_no": "122665-97-8", "cn_name": "4,4-\u4e8c\u6c1f\u73af\u5df1\u7532\u9178", "en_name": ["4,4-Difluorocyclohexanecarboxylic acid", "Cyclohexanecarboxylic acid, 4,4-difluoro-", "4,4-Difluorocyclohexanecarboxylic acid", "4,4-Difluorocyclohexylcarboxylic acid", "4,4\u2032-Difluorocyclohexanecarboxylic acid", "4,4-Difluorocyclohexanoic acid", "4,4-Difluorocyclohexane-1-carboxylic acid", "4,4-Difluorocyclohexan-1-carboxylic acid"], "SMILES": "C(O)(=O)C1CCC(F)(F)CC1", "physical_data": {"Molecular Weight": "164.15", "Molecular Formula": "C7H10F2O2", "Melting Point": "105.9 \u00b0C"}}