{"cas_no": "122773-97-1", "cn_name": "2-\u82ef\u57fa\u5627\u5576-5-\u7532\u9178", "en_name": ["2-Phenyl-5-pyrimidinecarboxylic acid", "5-Pyrimidinecarboxylic acid, 2-phenyl-", "2-Phenyl-5-pyrimidinecarboxylic acid"], "SMILES": "C(O)(=O)C=1C=NC(=NC1)C2=CC=CC=C2", "physical_data": {"Molecular Weight": "200.19", "Molecular Formula": "C11H8N2O2", "Melting Point": "&gt;220 \u00b0C (decomp)"}}