{"cas_no": "122775-35-3", "cn_name": "3,4-\u4e8c\u7532\u6c27\u57fa\u82ef\u787c\u9178", "en_name": ["3,4-Dimethoxyphenylboronic acid", "Boronic acid, B-(3,4-dimethoxyphenyl)-", "Boronic acid, (3,4-dimethoxyphenyl)-", "B-(3,4-Dimethoxyphenyl)boronic acid", "3,4-Dimethoxyphenylboronic acid", "3,4-Dimethoxybenzeneboronic acid"], "SMILES": "O(C)C1=C(OC)C=CC(B(O)O)=C1", "physical_data": {"Molecular Weight": "181.98", "Molecular Formula": "C8H11BO4", "Melting Point": "&gt;220 \u00b0C"}}