{"cas_no": "1227-45-8", "cn_name": "1,3-\u53cc(4-\u7532\u6c27\u57fa\u82ef\u57fa)\u786b\u8132", "en_name": ["N,N\u2032-Bis(4-methoxyphenyl)thiourea", "Thiourea, N,N\u2032-bis(4-methoxyphenyl)-", "Carbanilide, 4,4\u2032-dimethoxythio-", "N,N\u2032-Bis(4-methoxyphenyl)thiourea", "Urea, 1,3-bis(p-methoxyphenyl)-2-thio-", "1,3-Bis(4-methoxyphenyl)thiourea", "NSC 164990", "sym-Bis(4-methoxyphenyl)thiourea"], "SMILES": "N(C(NC1=CC=C(OC)C=C1)=S)C2=CC=C(OC)C=C2", "physical_data": {"Molecular Weight": "288.36", "Molecular Formula": "C15H16N2O2S", "Melting Point": "192 \u00b0C"}}