{"cas_no": "1227311-09-2", "cn_name": "4-\u7898-3,5-\u4e8c\u7532\u57fa\u82ef\u7532\u6c30", "en_name": ["4-Iodo-3,5-dimethylbenzonitrile", "Benzonitrile, 4-iodo-3,5-dimethyl-", "4-Iodo-3,5-dimethylbenzonitrile"], "SMILES": "C(#N)C1=CC(C)=C(I)C(C)=C1", "physical_data": {"Molecular Weight": "257.07", "Molecular Formula": "C9H8IN", "Melting Point": "147-148 \u00b0C"}}