{"cas_no": "12279-09-3", "cn_name": "\u53cc\u73af\u8f9b\u70ef\u6c2f\u5316\u94d1\u4e8c\u805a\u4f53", "en_name": ["Di-\u03bc-chlorotetrakis[(1,2-\u03b7)-cyclooctene]dirhodium", "Rhodium, di-\u03bc-chlorotetrakis[(1,2-\u03b7)-cyclooctene]di-", "Rhodium, di-\u03bc-chlorotetrakis(cyclooctene)di-", "Cyclooctene, rhodium complex", "Di-\u03bc-chlorotetrakis[(1,2-\u03b7)-cyclooctene]dirhodium", "Di-\u03bc-Chlorotetrakis(cyclooctene)dirhodium", "Chlorobis(cyclooctene)rhodium(I) dimer", "Chlorobis(cyclooctene)rhodium dimer", "Bis(chlorobis(cyclooctene)rhodium)", "Bis((\u03bc-chloro)bis(cyclooctene)rhodium)", "Bis(\u03bc-chloro)tetracyclooctenedirhodium", "Bis((\u03bc-chloro)bis(\u03b72-cyclooctene)rhodium)", "Di-\u03bc-chlorotetrakis(\u03b72-cyclooctene)dirhodium(I)", "[RhCl(coe)2]2", "[Rh(coe)2Cl]2"], "SMILES": "[Rh+]123([Cl-][Rh+]45([Cl-]1)([CH]6=[CH]4CCCCCC6)[CH]7=[CH]5CCCCCC7)([CH]8=[CH]2CCCCCC8)[CH]9=[CH]3CCCCCC9", "physical_data": {"Molecular Weight": "", "Molecular Formula": "C32H56Cl2Rh2", "Melting Point": "140 \u00b0C (decomp)"}}