{"cas_no": "1227958-32-8", "cn_name": "N-(2-\u6eb4-6-\u6c2f-3-\u5421\u5576\u57fa)\u6c28\u57fa\u7532\u9178\u53d4\u4e01\u916f", "en_name": ["1,1-Dimethylethyl N-(2-bromo-6-chloro-3-pyridinyl)carbamate", "Carbamic acid, N-(2-bromo-6-chloro-3-pyridinyl)-, 1,1-dimethylethyl ester", "1,1-Dimethylethyl N-(2-bromo-6-chloro-3-pyridinyl)carbamate", "tert-Butyl (2-bromo-6-chloropyridin-3-yl)carbamate"], "SMILES": "N(C(OC(C)(C)C)=O)C1=C(Br)N=C(Cl)C=C1", "physical_data": {"Molecular Weight": "307.57", "Molecular Formula": "C10H12BrClN2O2", "Melting Point": "95-96 \u00b0C"}}