{"cas_no": "1227-49-2", "cn_name": "3,3'-\u4e8c\u7fa7\u57fa\u4e8c\u82ef\u4e8c\u786b\u919a", "en_name": ["3,3\u2032-Dithiobis[benzoic acid]", "Benzoic acid, 3,3\u2032-dithiobis-", "Benzoic acid, 3,3\u2032-dithiodi-", "3,3\u2032-Dithiobis[benzoic acid]", "3,3\u2032-Dithiodibenzoic acid", "NSC 113997", "3,3\u2032-Disulfanediyldibenzoic acid", "3-[(3-Carboxyphenyl)disulfanyl]benzoic acid"], "SMILES": "S(SC1=CC(C(O)=O)=CC=C1)C2=CC(C(O)=O)=CC=C2", "physical_data": {"Molecular Weight": "306.36", "Molecular Formula": "C14H10O4S2", "Melting Point": "246 \u00b0C"}}