{"cas_no": "122883-93-6", "cn_name": "5-[2-[4-(1,2-\u82ef\u5e76\u5f02\u567b\u5511-3-\u57fa)-1-\u54cc\u55ea\u57fa]\u4e59\u57fa]-6-\u6c2f-1,3-\u4e8c\u6c22-2H-\u5432\u54da-2-\u916e", "en_name": ["Ziprasidone hydrochloride", "2H-Indol-2-one, 5-[2-[4-(1,2-benzisothiazol-3-yl)-1-piperazinyl]ethyl]-6-chloro-1,3-dihydro-, hydrochloride (1:1)", "2H-Indol-2-one, 5-[2-[4-(1,2-benzisothiazol-3-yl)-1-piperazinyl]ethyl]-6-chloro-1,3-dihydro-, monohydrochloride", "CP 88059-1", "Ziprasidone hydrochloride", "5-[2-[4-(1,2-Benzisothiazol-3-yl)-1-piperazinyl)ethyl]-6-chloro-1,3-dihydro-2H-indol-2-one hydrochloride", "Zeldox", "Zipsydon", "Azona"], "SMILES": "C(CC=1C=C2C(=CC1Cl)NC(=O)C2)N3CCN(C=4C=5C(SN4)=CC=CC5)CC3.Cl", "physical_data": {"Molecular Weight": "", "Molecular Formula": "C21H21ClN4OS.ClH", "Melting Point": "&gt;300 \u00b0C"}}