{"cas_no": "122898-67-3", "cn_name": "\u4f9d\u6258\u5fc5\u5229", "en_name": ["Itopride", "Benzamide, N-[[4-[2-(dimethylamino)ethoxy]phenyl]methyl]-3,4-dimethoxy-", "N-[[4-[2-(Dimethylamino)ethoxy]phenyl]methyl]-3,4-dimethoxybenzamide", "Itopride", "N-(4-(2-(Dimethylamino)ethoxy)benzyl)-3,4-dimethoxybenzamide"], "SMILES": "C(NCC1=CC=C(OCCN(C)C)C=C1)(=O)C2=CC(OC)=C(OC)C=C2", "physical_data": {"Molecular Weight": "358.43", "Molecular Formula": "C20H26N2O4", "Melting Point": "109-110.5 \u00b0C"}}