{"cas_no": "122852-42-0", "cn_name": "\u963f\u6d1b\u53f8\u743c", "en_name": ["Alosetron", "1H-Pyrido[4,3-b]indol-1-one, 2,3,4,5-tetrahydro-5-methyl-2-[(4-methyl-1H-imidazol-5-yl)methyl]-", "1H-Pyrido[4,3-b]indol-1-one, 2,3,4,5-tetrahydro-5-methyl-2-[(5-methyl-1H-imidazol-4-yl)methyl]-", "2,3,4,5-Tetrahydro-5-methyl-2-[(4-methyl-1H-imidazol-5-yl)methyl]-1H-pyrido[4,3-b]indol-1-one", "GR 68755X", "Alosetron", "GR 68755", "Lotronex"], "SMILES": "O=C1C=2C=3C(N(C)C2CCN1CC4=C(C)N=CN4)=CC=CC3", "physical_data": {"Molecular Weight": "294.35", "Molecular Formula": "C17H18N4O", "Melting Point": "238-240 \u00b0C"}}