{"cas_no": "122836-35-5", "cn_name": "\u7532\u78fa\u8349\u80fa", "en_name": ["Sulfentrazone", "Methanesulfonamide, N-[2,4-dichloro-5-[4-(difluoromethyl)-4,5-dihydro-3-methyl-5-oxo-1H-1,2,4-triazol-1-yl]phenyl]-", "N-[2,4-Dichloro-5-[4-(difluoromethyl)-4,5-dihydro-3-methyl-5-oxo-1H-1,2,4-triazol-1-yl]phenyl]methanesulfonamide", "F 6285", "Sulfentrazone", "Authority", "Authority 75DF", "Capaz", "Boral", "Blanket", "Spartan", "Dismiss", "2\u2032,4\u2032-Dichloro-5\u2032-(4-difluoromethyl-4,5-dihydro-3-methyl-5-oxo-1H-1,2,4-triazol-1-yl)methanesulfonanilide"], "SMILES": "O=C1N(N=C(C)N1C(F)F)C2=CC(NS(C)(=O)=O)=C(Cl)C=C2Cl", "physical_data": {"Molecular Weight": "387.19", "Molecular Formula": "C11H10Cl2F2N4O3S", "Melting Point": "121-123 \u00b0C", "Density": "1.21 g/cm\u00b3 @ Temp: 20 \u00b0C"}}