{"cas_no": "122852-75-9", "cn_name": "2,3,4,5-\u56db\u6c22-5-\u7532\u57fa-1H-\u5421\u5576\u5e76[4,3-b]\u5432\u54da-1-\u916e", "en_name": ["2,3,4,5-Tetrahydro-5-methyl-1H-pyrido[4,3-b]indol-1-one", "1H-Pyrido[4,3-b]indol-1-one, 2,3,4,5-tetrahydro-5-methyl-", "2,3,4,5-Tetrahydro-5-methyl-1H-pyrido[4,3-b]indol-1-one"], "SMILES": "O=C1C=2C=3C(N(C)C2CCN1)=CC=CC3", "physical_data": {"Molecular Weight": "200.24", "Molecular Formula": "C12H12N2O", "Melting Point": "234-238 \u00b0C"}}