{"cas_no": "122892-31-3", "cn_name": "\u76d0\u9178\u4f0a\u6258\u5fc5\u5229", "en_name": ["Itopride hydrochloride", "Benzamide, N-[[4-[2-(dimethylamino)ethoxy]phenyl]methyl]-3,4-dimethoxy-, hydrochloride (1:1)", "Benzamide, N-[[4-[2-(dimethylamino)ethoxy]phenyl]methyl]-3,4-dimethoxy-, monohydrochloride", "HSR 803", "Itopride hydrochloride", "Ganaton"], "SMILES": "C(NCC1=CC=C(OCCN(C)C)C=C1)(=O)C2=CC(OC)=C(OC)C=C2.Cl", "physical_data": {"Molecular Weight": "", "Molecular Formula": "C20H26N2O4.ClH", "Melting Point": "192-196 \u00b0C"}}