{"cas_no": "1228-72-4", "cn_name": "17-\u73af\u96cc\u4e09\u9187", "en_name": ["17-Epiestriol", "Estra-1,3,5(10)-triene-3,16,17-triol, (16\u03b1,17\u03b1)-", "Estra-1,3,5(10)-triene-3,16\u03b1,17\u03b1-triol", "(16\u03b1,17\u03b1)-Estra-1,3,5(10)-triene-3,16,17-triol", "17\u03b1-Estriol", "17-Epiestriol", "17-epi-Estriol", "16\u03b1,17\u03b1-Estriol", "NSC 84051", "16\u03b1-Hydroxy-17\u03b1-estradiol"], "SMILES": "CC12C(C3C(C=4C(CC3)=CC(O)=CC4)CC1)CC(O)C2O", "physical_data": {"Molecular Weight": "288.38", "Molecular Formula": "C18H24O3", "Melting Point": "114-115 \u00b0C"}}