{"cas_no": "1228-53-1", "cn_name": "3,3'-\u4e8c\u785d\u57fa\u4e8c\u82ef\u781c", "en_name": ["1,1\u2032-Sulfonylbis[3-nitrobenzene]", "Benzene, 1,1\u2032-sulfonylbis[3-nitro-", "Sulfone, bis(m-nitrophenyl)", "1,1\u2032-Sulfonylbis[3-nitrobenzene]", "Bis(3-nitrophenyl) sulfone", "Bis(m-nitrophenyl) sulfone", "3,3\u2032-Dinitrodiphenyl sulfone", "NSC 20608", "1-Nitro-3-(3-nitrophenyl)sulfonylbenzene", "3,3\u2032-Sulfonylbis(nitrobenzene)"], "SMILES": "S(=O)(=O)(C1=CC(N(=O)=O)=CC=C1)C2=CC(N(=O)=O)=CC=C2", "physical_data": {"Molecular Weight": "308.27", "Molecular Formula": "C12H8N2O6S", "Boiling Point": "200-201 \u00b0C", "Melting Point": "197 \u00b0C"}}