{"cas_no": "122852-69-1", "cn_name": "\u76d0\u9178\u963f\u6d1b\u53f8\u743c", "en_name": ["Alosetron hydrochloride", "1H-Pyrido[4,3-b]indol-1-one, 2,3,4,5-tetrahydro-5-methyl-2-[(4-methyl-1H-imidazol-5-yl)methyl]-, hydrochloride (1:1)", "1H-Pyrido[4,3-b]indol-1-one, 2,3,4,5-tetrahydro-5-methyl-2-[(5-methyl-1H-imidazol-4-yl)methyl]-, monohydrochloride", "Alosetron hydrochloride", "GR 68755C"], "SMILES": "O=C1C=2C=3C(N(C)C2CCN1CC4=C(C)N=CN4)=CC=CC3.Cl", "physical_data": {"Molecular Weight": "", "Molecular Formula": "C17H18N4O.ClH", "Melting Point": "288-291 \u00b0C"}}