{"cas_no": "122955-42-4", "cn_name": "10,10\u4e8c(4-\u5421\u5576\u7532\u57fa)-9(10H)-\u84bd\u916e", "en_name": ["10,10-Bis(4-pyridinylmethyl)-9(10H)-anthracenone", "9(10H)-Anthracenone, 10,10-bis(4-pyridinylmethyl)-", "10,10-Bis(4-pyridinylmethyl)-9(10H)-anthracenone", "XE 991", "DR 960418"], "SMILES": "C(C1(CC=2C=CN=CC2)C=3C(C(=O)C=4C1=CC=CC4)=CC=CC3)C=5C=CN=CC5", "physical_data": {"Molecular Weight": "376.45", "Molecular Formula": "C26H20N2O", "Melting Point": "231-232 \u00b0C"}}