{"cas_no": "1229-29-4", "cn_name": "\u76d0\u9178\u591a\u585e\u5e73", "en_name": ["Doxepin hydrochloride", "1-Propanamine, 3-(dibenz[b,e]oxepin-11(6H)-ylidene)-N,N-dimethyl-, hydrochloride (1:1)", "Dibenz[b,e]oxepin-\u039411(6H),\u03b3-propylamine, N,N-dimethyl-, hydrochloride", "1-Propanamine, 3-dibenz[b,e]oxepin-11(6H)-ylidene-N,N-dimethyl-, hydrochloride", "Dibenz[b,e]oxepin, 1-propanamine deriv.", "P 3693A", "Curatin", "N,N-Dimethyldibenz[b,e]oxepin-\u039411(6H),\u03b3-propylamine hydrochloride", "Doxepin hydrochloride", "Doxepine hydrochloride", "Sinequan", "Aponal", "Quitaxon", "Adapin", "Sinequin", "Silenor"], "SMILES": "C(CCN(C)C)=C1C=2C(COC=3C1=CC=CC3)=CC=CC2.Cl", "physical_data": {"Molecular Weight": "", "Molecular Formula": "C19H21NO.ClH", "Melting Point": "184-186 \u00b0C"}}