{"cas_no": "1229208-44-9", "cn_name": "GS-9973", "en_name": ["Entospletinib", "Imidazo[1,2-a]pyrazin-8-amine, 6-(1H-indazol-6-yl)-N-[4-(4-morpholinyl)phenyl]-", "6-(1H-Indazol-6-yl)-N-[4-(4-morpholinyl)phenyl]imidazo[1,2-a]pyrazin-8-amine", "GS 9973", "Entospletinib"], "SMILES": "N(C=1C=2N(C=C(N1)C=3C=C4C(=CC3)C=NN4)C=CN2)C5=CC=C(C=C5)N6CCOCC6", "physical_data": {"Molecular Weight": "411.46", "Molecular Formula": "C23H21N7O", "Melting Point": "&gt;250 \u00b0C"}}