{"cas_no": "1229236-86-5", "cn_name": "\u56fe\u5361\u66ff\u5c3c", "en_name": ["Gandotinib", "Imidazo[1,2-b]pyridazin-6-amine, 3-[(4-chloro-2-fluorophenyl)methyl]-2-methyl-N-(5-methyl-1H-pyrazol-3-yl)-8-(4-morpholinylmethyl)-", "3-[(4-Chloro-2-fluorophenyl)methyl]-2-methyl-N-(5-methyl-1H-pyrazol-3-yl)-8-(4-morpholinylmethyl)imidazo[1,2-b]pyridazin-6-amine", "LY 2784544", "Gandotinib"], "SMILES": "C(C=1C=2N(C(CC3=C(F)C=C(Cl)C=C3)=C(C)N2)N=C(NC=4C=C(C)NN4)C1)N5CCOCC5", "physical_data": {"Molecular Weight": "469.94", "Molecular Formula": "C23H25ClFN7O", "Melting Point": "235.6-237.2 \u00b0C"}}