{"cas_no": "1229-55-6", "cn_name": "\u6eb6\u5242\u7ea2 1", "en_name": ["Solvent Red 1", "2-Naphthalenol, 1-[2-(2-methoxyphenyl)diazenyl]-", "Sudan Red G", "C.I. Solvent Red 1", "2-Naphthalenol, 1-[(2-methoxyphenyl)azo]-", "2-Naphthol, 1-(o-methoxyphenylazo)-", "1-[2-(2-Methoxyphenyl)diazenyl]-2-naphthalenol", "C.I. 12150", "Brilliant Fat Scarlet R", "Ceres Red G", "Fat Red G", "Fat Red BG", "Fat Red RS", "Lacquer Red V 2G", "Oil Pink", "Oil Scarlet 389", "Oil Vermilion", "Oil Vermilion LP", "Oleal Red G", "Organol Vermilion", "Plastoresin Red FR", "Resinol Red G", "Silotras Red TG", "Somalia Red PG", "Sudan R", "Ceres Red G 102", "C.I. Food Red 16", "Anisole-2-azo-\u03b2-naphthol", "Fat Soluble Red S", "1-(o-Anisylazo)-2-naphthol", "1-[(2-Methoxyphenyl)azo]-2-naphthol", "Oil Soluble Red S", "Oil Red 113", "Oil Red OG", "Sico Fat Red BG New", "Solvent Red 1", "Orient Oil Red OG", "C Red 2", "Oil Red", "Food Red 16", "Sudan Red 290", "NSC 11232", "NSC 45194", "1-((2-Methoxyphenyl)diazenyl)naphthalen-2-ol"], "SMILES": "N(=NC1=C(OC)C=CC=C1)C=2C3=C(C=CC2O)C=CC=C3", "physical_data": {"Molecular Weight": "278.31", "Molecular Formula": "C17H14N2O2", "Melting Point": "183 \u00b0C"}}