{"cas_no": "122931-48-0", "cn_name": "\u781c\u5627\u78fa\u9686", "en_name": ["Rimsulfuron", "2-Pyridinesulfonamide, N-[[(4,6-dimethoxy-2-pyrimidinyl)amino]carbonyl]-3-(ethylsulfonyl)-", "N-[[(4,6-Dimethoxy-2-pyrimidinyl)amino]carbonyl]-3-(ethylsulfonyl)-2-pyridinesulfonamide", "DPX-E 9636", "Rimsulfuron", "Titus", "Tarot", "Titus (pesticide)", "Matrix", "Cato", "Cato (pesticide)", "Amurg", "Amurg 25WG", "Tiger (herbicide)", "Tiger 25OD", "Tarot 25WG", "Tiger", "Titus 25WG", "Rush", "Doncep", "Resolve SG", "Rimel 25SG", "Renriduron"], "SMILES": "S(NC(NC=1N=C(OC)C=C(OC)N1)=O)(=O)(=O)C2=C(S(CC)(=O)=O)C=CC=N2", "physical_data": {"Molecular Weight": "431.44", "Molecular Formula": "C14H17N5O7S2", "Melting Point": "177 \u00b0C"}}