{"cas_no": "123-61-5", "cn_name": "\u95f4\u82ef\u4e8c\u5f02\u6c30\u9178\u916f", "en_name": ["1,3-Phenylene diisocyanate", "Benzene, 1,3-diisocyanato-", "Isocyanic acid, m-phenylene ester", "1,3-Diisocyanatobenzene", "Nacconate 400", "m-Phenylene isocyanate", "Benzene 1,3-diisocyanate", "1,3-Phenylene diisocyanate", "m-Phenylene diisocyanate", "NSC 511721"], "SMILES": "N(=C=O)C1=CC(N=C=O)=CC=C1", "physical_data": {"Molecular Weight": "160.13", "Molecular Formula": "C8H4N2O2", "Boiling Point": "102-104 \u00b0C @ Press: 8 Torr", "Melting Point": "51 \u00b0C"}}