{"cas_no": "123-30-8", "cn_name": "4-\u6c28\u57fa\u82ef\u915a", "en_name": ["4-Aminophenol", "Phenol, 4-amino-", "Phenol, p-amino-", "4-Aminophenol", "C.I. 76550", "Activol", "p-Aminophenol", "Azol", "BASF Ursol P Base", "Benzofur P", "Certinal", "Citol", "C.I. Oxidation Base 6", "Durafur Brown RB", "Fouramine P", "Fourrine 84", "Fourrine P Base", "Furro P base", "p-Hydroxyaniline", "4-Hydroxyaniline", "Nako Brown R", "Paranol", "Pelagol P Base", "Pelagol Grey P Base", "Renal AC", "Rodinal", "Tertral P Base", "Unal", "Ursol P", "Ursol P Base", "Zoba Brown P Base", "p-Hydroxyphenylamine", "4-Amino-1-hydroxybenzene", "1-Amino-4-hydroxybenzene", "4-Hydroxybenzenamine", "4-Hydroxyphenylamine", "4-Hydroxy-1-aminobenzene", "NSC 1545", "A 0384"], "SMILES": "NC1=CC=C(O)C=C1", "physical_data": {"Molecular Weight": "109.13", "Molecular Formula": "C6H7NO", "Boiling Point": "284 \u00b0C", "Melting Point": "189.6-190.2 \u00b0C"}}