{"cas_no": "123-79-5", "cn_name": "\u5df1\u4e8c\u9178\u4e8c\u8f9b\u916f", "en_name": ["Dioctyl adipate", "Hexanedioic acid, 1,6-dioctyl ester", "Adipic acid, dioctyl ester", "Hexanedioic acid, dioctyl ester", "Dioctyl adipate", "Di-n-octyl adipate", "Octyl adipate", "NSC 16201", "Dicaprylyl adipate"], "SMILES": "C(CCCC(OCCCCCCCC)=O)C(OCCCCCCCC)=O", "physical_data": {"Molecular Weight": "370.57", "Molecular Formula": "C22H42O4", "Boiling Point": "214 \u00b0C", "Melting Point": "7.49 \u00b0C"}}