{"cas_no": "123-81-9", "cn_name": "\u53cc\u5def\u57fa\u4e59\u9178\u4e59\u4e8c\u9187\u916f", "en_name": ["Glycol dimercaptoacetate", "Acetic acid, 2-mercapto-, 1,1\u2032-(1,2-ethanediyl) ester", "Acetic acid, mercapto-, ethylene ester", "Acetic acid, mercapto-, 1,2-ethanediyl ester", "Ethylene glycol, bis(mercaptoacetate)", "Glycol dimercaptoacetate", "Ethylene glycol bis(thioglycolate)", "Ethylene mercaptoacetate", "Ethylene glycol bis(thioglycolic ester)", "Glycol bis(mercaptoacetate)", "Ethylenebis(thioglycolate)", "Ethylene bis(mercaptoacetate)", "PETP", "EGTG (polythiol)", "EGTG", "Glycol(bis thioglycolate)", "NSC 30032", "Ethylene glycol bis(2-mercaptoacetate)", "Thiocure GDMA", "2-[(2-Sulfanylacetyl)oxy]ethyl 2-sulfanylacetate"], "SMILES": "O(CCOC(CS)=O)C(CS)=O", "physical_data": {"Molecular Weight": "210.27", "Molecular Formula": "C6H10O4S2", "Boiling Point": "129-130 \u00b0C @ Press: 5 Torr"}}