{"cas_no": "123-63-7", "cn_name": "\u4e09\u805a\u4e59\u919b", "en_name": ["Paraldehyde", "1,3,5-Trioxane, 2,4,6-trimethyl-", "s-Trioxane, 2,4,6-trimethyl-", "2,4,6-Trimethyl-1,3,5-trioxane", "Paraacetaldehyde", "Paracetaldehyde", "Paraldehyde", "PCHO", "s-Trimethyltrioxymethylene", "2,4,6-Trimethyl-s-trioxane", "1,3,5-Trimethyl-2,4,6-trioxane", "Elaldehyde", "Paral", "2,4,6-Trimethyl-1,3,5-trioxacyclohexane", "Acetaldehyde, trimer", "NSC 9799", "MeSH ID: D010242"], "SMILES": "CC1OC(C)OC(C)O1", "physical_data": {"Molecular Weight": "132.16", "Molecular Formula": "C6H12O3", "Boiling Point": "124.5 \u00b0C", "Melting Point": "12.6 \u00b0C", "Density": "0.9923 g/cm\u00b3 @ Temp: 20 \u00b0C"}}