{"cas_no": "123-92-2", "cn_name": "\u4e59\u9178\u5f02\u620a\u916f", "en_name": ["Isoamyl acetate", "1-Butanol, 3-methyl-, 1-acetate", "Isopentyl alcohol, acetate", "1-Butanol, 3-methyl-, acetate", "Acetic acid, isoamyl ester", "Banana oil", "Isoamyl ethanoate", "Isopentyl acetate", "3-Methylbutyl acetate", "Pear oil", "Acetic acid 3-methylbutyl ester", "i-Amyl acetate", "3-Methyl-1-butyl acetate", "Isopentyl ethanoate", "Isoamyl acetate", "iso-Amyl acetate", "Isoamyl alcohol acetate", "3-Methyl-1-butanol acetate", "Acetic acid isopentyl ester", "NSC 9260", "iso-Pentyl acetate", "3-Methylbutyl ethanoate", "Acetic acid 3-methyl-1-butyl ester", "T 615B", "T 815A"], "SMILES": "C(CC(C)C)OC(C)=O", "physical_data": {"Molecular Weight": "130.18", "Molecular Formula": "C7H14O2", "Boiling Point": "142.5 \u00b0C", "Melting Point": "-78.5 \u00b0C", "Density": "0.876 g/cm\u00b3 @ Temp: 15 \u00b0C"}}