{"cas_no": "123-01-3", "cn_name": "\u6b63\u5341\u4e8c\u70f7\u57fa\u82ef", "en_name": ["Dodecylbenzene", "Benzene, dodecyl-", "Dodecane, 1-phenyl-", "Dodecylbenzene", "1-Phenyldodecane", "Detergent Alkylate No. 2", "n-Dodecylbenzene", "Nalkylene 500", "Alkylate P 1", "1-Phenyl-n-dodecane", "1-Dodecylbenzene", "NSC 102805", "NSC 4584", "Laurylbenzene"], "SMILES": "C(CCCCCCCCCCC)C1=CC=CC=C1", "physical_data": {"Molecular Weight": "246.43", "Molecular Formula": "C18H30", "Boiling Point": "328 \u00b0C", "Melting Point": "3 \u00b0C", "Density": "0.8851 g/cm\u00b3 @ Temp: 20 \u00b0C"}}