{"cas_no": "123-94-4", "cn_name": "\u5355\u786c\u8102\u9178\u7518\u6cb9\u916f", "en_name": ["1-Monostearin", "Octadecanoic acid, 2,3-dihydroxypropyl ester", "Stearin, 1-mono-", "Aldo 33", "Aldo 75", "Glycerol \u03b1-monostearate", "\u03b1-Monostearin", "1-Monostearin", "Stearic acid 1-monoglyceride", "Glycerin 1-monostearate", "1-Monostearoylglycerol", "Glycerol 1-monostearate", "Glyceryl 1-monostearate", "Sandin EU", "Glycerin 1-stearate", "1-Glyceryl stearate", "Tegin 55G", "Emerest 2407", "Aldo MSD", "Aldo MSLG", "Glycerol 1-stearate", "Stearic acid \u03b1-monoglyceride", "3-Stearoyloxy-1,2-propanediol", "1-Monooctadecanoylglycerol", "2,3-Dihydroxypropyl octadecanoate", "(\u00b1)-2,3-Dihydroxypropyl octadecanoate", "1-monostearoyl-rac-glycerol", "Glyceryl 1-octadecanoate", "NSC 3875", "AS 8 (surfactant)", "2,3-Dihydroxypropyl stearate", "1-Stearoyl-rac-glycerol", "1-Monostearoyl-rac-glycerol"], "SMILES": "C(CC(OCC(CO)O)=O)CCCCCCCCCCCCCCC", "physical_data": {"Molecular Weight": "358.56", "Molecular Formula": "C21H42O4", "Melting Point": "81-82 \u00b0C", "Density": "0.9678 g/cm\u00b3 @ Temp: 20 \u00b0C"}}