{"cas_no": "123-98-8", "cn_name": "\u58ec\u4e8c\u9170\u6c2f", "en_name": ["Nonanedioyl dichloride", "Nonanedioyl dichloride", "Azelaoyl chloride", "Azelaic acid chloride", "Azelaoyl dichloride", "Nonanedioyl chloride", "Azelaic acid dichloride", "Nonanedioic dichloride", "NSC 519866", "Azelaoyl acid dichloride", "Azelaic dichloride"], "SMILES": "C(CC(Cl)=O)CCCCCC(Cl)=O", "physical_data": {"Molecular Weight": "225.11", "Molecular Formula": "C9H14Cl2O2", "Boiling Point": "153-157 \u00b0C @ Press: 6.5 Torr"}}