{"cas_no": "123-07-9", "cn_name": "4-\u4e59\u57fa\u82ef\u915a", "en_name": ["4-Ethylphenol", "Phenol, 4-ethyl-", "Phenol, p-ethyl-", "4-Ethylphenol", "p-Ethylphenol", "1-Ethyl-4-hydroxybenzene", "(4-Hydroxyphenyl)ethane", "(p-Hydroxyphenyl)ethane", "p-Hydroxyethylbenzene", "NSC 62012"], "SMILES": "C(C)C1=CC=C(O)C=C1", "physical_data": {"Molecular Weight": "122.16", "Molecular Formula": "C8H10O", "Boiling Point": "217.9 \u00b0C", "Melting Point": "46 \u00b0C", "Density": "1.011 g/cm\u00b3 @ Temp: 20 \u00b0C"}}