{"cas_no": "123-72-8", "cn_name": "\u6b63\u4e01\u919b", "en_name": ["Butanal", "Butanal", "Butyraldehyde", "Butal", "Butaldehyde", "Butyl aldehyde", "n-Butyl aldehyde", "Butyral", "n-Butyraldehyde", "Butyric aldehyde", "Butyrylaldehyde", "n-Butanal", "Butanaldehyde", "n-Butyric aldehyde", "NSC 62779"], "SMILES": "C(CC)C=O", "physical_data": {"Molecular Weight": "72.11", "Molecular Formula": "C4H8O", "Boiling Point": "74.8 \u00b0C", "Melting Point": "-99 \u00b0C", "Density": "0.8016 g/cm\u00b3 @ Temp: 20 \u00b0C"}}