{"cas_no": "123-73-9", "cn_name": "\u5df4\u8c46\u919b", "en_name": ["trans-Crotonaldehyde", "2-Butenal, (2E)-", "Crotonaldehyde, (E)-", "2-Butenal, (E)-", "(2E)-2-Butenal", "trans-2-Butenal", "Topanel CA", "trans-Crotonaldehyde", "(E)-Crotonaldehyde", "(E)-2-Butenal", "trans-2-Buten-1-al", "2(E)-Butenal", "trans-Crotonal", "(E)-But-2-en-1-al"], "SMILES": "C(=CC)C=O", "physical_data": {"Molecular Weight": "70.09", "Molecular Formula": "C4H6O", "Boiling Point": "104 \u00b0C", "Melting Point": "-76 \u00b0C", "Density": "0.869 g/cm\u00b3 @ Temp: 20 \u00b0C"}}