{"cas_no": "123-38-6", "cn_name": "\u4e19\u919b", "en_name": ["Propanal", "Propanal", "Propionaldehyde", "Methylacetaldehyde", "Propaldehyde", "Propionic aldehyde", "Propylic aldehyde", "Propional", "Propylaldehyde", "Propanaldehyde", "n-Propanal", "1-Propanal", "n-Propionaldehyde", "Ethylcarboxaldehyde", "NSC 6493"], "SMILES": "C(C=O)C", "physical_data": {"Molecular Weight": "58.08", "Molecular Formula": "C3H6O", "Boiling Point": "49 \u00b0C @ Press: 760 Torr", "Melting Point": "-81 \u00b0C", "Density": "0.8657 g/cm\u00b3 @ Temp: 25 \u00b0C"}}