{"cas_no": "123-99-9", "cn_name": "\u58ec\u4e8c\u9178", "en_name": ["Azelaic acid", "Nonanedioic acid", "Azelaic acid", "Anchoic acid", "1,7-Heptanedicarboxylic acid", "Lepargylic acid", "Emerox 1144", "1,9-Nonanedioic acid", "1,7-Dicarboxyheptane", "n-Nonanedioic acid", "Emery 1110", "ZK 62498", "Skinoren", "Empol 1144", "NSC 19493", "Finacea", "Emery 1144", "Azelic acid", "\u03b1,\u03c9-Nonanedioic acid", "Aziderm", "Azelex", "Crodacid DC 1195"], "SMILES": "C(CC(O)=O)CCCCCC(O)=O", "physical_data": {"Molecular Weight": "188.22", "Molecular Formula": "C9H16O4", "Boiling Point": "286.5 \u00b0C", "Melting Point": "106.5 \u00b0C", "Density": "1.251 g/cm\u00b3"}}