{"cas_no": "123-70-6", "cn_name": "N,N',N''-\u4e09\u7532\u57fa\u4e8c\u4e19\u6491\u4e09\u80fa", "en_name": ["Bis(3-(methylamino)propyl)methylamine", "1,3-Propanediamine, N1,N3-dimethyl-N1-[3-(methylamino)propyl]-", "Dipropylamine, N-methyl-3,3\u2032-bis(methylamino)-", "1,3-Propanediamine, N,N\u2032-dimethyl-N-[3-(methylamino)propyl]-", "N1,N3-Dimethyl-N1-[3-(methylamino)propyl]-1,3-propanediamine", "3,3\u2032-Bis(methylamino)-N-methyldipropylamine", "3,3\u2032-Methyliminobis(N-methylpropylamine)", "Bis(3-(methylamino)propyl)methylamine", "N,N-Bis(3-(N-methylamino)propyl)methylamine", "NSC 166322", "N-Methyl-N,N-bis[3-(methylamino)propyl]amine", "N,N\u2032-Dimethyl-N-[3-(methylamino)propyl]-1,3-propanediamine", "N1,N3-Dimethyl-N1-[3-(methylamino)propyl]propane-1,3-diamine", "N,N-Bis[3-(methylamino)-propyl]methylamine"], "SMILES": "C(N(CCCNC)C)CCNC", "physical_data": {"Molecular Weight": "173.30", "Molecular Formula": "C9H23N3", "Boiling Point": "65 \u00b0C @ Press: 0.2 Torr"}}