{"cas_no": "123-69-3", "cn_name": "(Z)-\u6c27\u4ee3\u73af\u5341\u4e03\u78b3-8-\u70ef-2-\u916e", "en_name": ["Ambrettolide", "Oxacycloheptadec-8-en-2-one, (8Z)-", "Oxacycloheptadec-8-en-2-one, (Z)-", "(8Z)-Oxacycloheptadec-8-en-2-one", "Ambrettolid", "Ambrettolide", "Musk ambrette", "Musk natural", "Musk ambrette (natural)", "Natural musk ambrette", "16-Hydroxy-7-hexadecenoic acid lactone", "Ambrette musk", "(Z)-Oxacycloheptadec-8-en-2-one"], "SMILES": "O=C1CCCCCC=CCCCCCCCCO1", "physical_data": {"Molecular Weight": "252.39", "Molecular Formula": "C16H28O2", "Boiling Point": "154-156 \u00b0C", "Density": "0.9380 g/cm\u00b3 @ Temp: 20 \u00b0C"}}