{"cas_no": "123-68-2", "cn_name": "\u5df1\u9178\u70ef\u4e19\u916f", "en_name": ["Allyl caproate", "Hexanoic acid, 2-propen-1-yl ester", "Hexanoic acid, allyl ester", "Hexanoic acid, 2-propenyl ester", "Allyl alcohol, hexanoate", "Allyl caproate", "Allyl hexanoate", "Allyl capronate", "2-Propenyl hexanoate", "NSC 20962", "Caproic acid allyl ester"], "SMILES": "C(C(OCC=C)=O)CCCC", "physical_data": {"Molecular Weight": "156.22", "Molecular Formula": "C9H16O2", "Boiling Point": "186-188 \u00b0C", "Density": "0.8869 g/cm\u00b3 @ Temp: 20 \u00b0C"}}