{"cas_no": "123-62-6", "cn_name": "\u4e19\u9178\u9150", "en_name": ["Propionic anhydride", "Propanoic acid, 1,1\u2032-anhydride", "Propanoic acid, anhydride", "Propionic anhydride", "Methylacetic anhydride", "Propanoic anhydride", "Propionic acid anhydride", "Propionyl oxide", "Propionyl anhydride", "Propanoyl propanoate"], "SMILES": "O(C(CC)=O)C(CC)=O", "physical_data": {"Molecular Weight": "130.14", "Molecular Formula": "C6H10O3", "Boiling Point": "167.0 \u00b0C @ Press: 760 Torr", "Melting Point": "-45 \u00b0C", "Density": "1.01 g/cm\u00b3"}}