{"cas_no": "123-46-6", "cn_name": "\u5409\u62c9\u5c14\u7279\u8bd5\u5242 T", "en_name": ["Girard-T reagent", "Ethanaminium, 2-hydrazinyl-N,N,N-trimethyl-2-oxo-, chloride (1:1)", "(Carboxymethyl)trimethylammonium chloride hydrazide", "Ammonium, (carboxymethyl)trimethyl-, chloride, hydrazide", "Ethanaminium, 2-hydrazino-N,N,N-trimethyl-2-oxo-, chloride", "Ammonium compounds, substituted, (carboxymethyl)trimethyl-, chloride, hydrazide", "Betaine hydrazide hydrochloride", "Trimethylacetylhydrazide ammonium chloride", "Trimethylaminoacetohydrazide chloride", "Trimethylammonium acetyl hydrazide chloride", "Trimethylammonium chloride acetylhydrazide", "(Carbazoylmethyl)trimethylammonium chloride", "Girard's T reagent", "Betaine hydrazide chloride", "Trimethylammonioacetohydrazide chloride", "Reagents, Girard's T", "Girard-T reagent", "(2-Hydrazino-2-oxoethyl)trimethylammonium chloride", "[(Hydrazinecarbonyl)methyl]trimethylazanium chloride", "(Hydrazinocarbonylmethyl)trimethylammonium chloride"], "SMILES": "C([N+](C)(C)C)C(NN)=O.[Cl-]", "physical_data": {"Molecular Weight": "", "Molecular Formula": "C5H14N3O.Cl", "Melting Point": "192 \u00b0C"}}