{"cas_no": "123-57-9", "cn_name": "\u5417\u5549, 3,5-\u4e8c\u7532\u57fa-", "en_name": ["3,5-Dimethylmorpholine", "Morpholine, 3,5-dimethyl-", "3,5-Dimethylmorpholine", "NSC 28666"], "SMILES": "CC1NC(C)COC1", "physical_data": {"Molecular Weight": "115.17", "Molecular Formula": "C6H13NO", "Boiling Point": "142.5 \u00b0C", "Density": "0.9308 g/cm\u00b3 @ Temp: 16 \u00b0C"}}