{"cas_no": "123-93-3", "cn_name": "\u786b\u4ee3\u4e8c\u4e59\u9178", "en_name": ["Thiodiglycolic acid", "Acetic acid, 2,2\u2032-thiobis-", "Acetic acid, thiodi-", "Acetic acid, thiobis-", "2,2\u2032-Thiobis[acetic acid]", "Dimethylsulfide-\u03b1,\u03b1\u2032-dicarboxylic acid", "Mercaptodiacetic acid", "Thiodiacetic acid", "Thiodiglycolic acid", "\u03b2,\u03b2\u2032-Thiodiglycolic acid", "2,2\u2032-Thiodiglycolic acid", "(Carboxymethylthio)acetic acid", "Dicarboxymethyl sulfide", "2,2\u2032-Thiodiethanoic acid", "2,2\u2032-Thiodiacetic acid", "NSC 28743", "NSC 40469", "NSC 52326", "2-(Carboxymethylsulfanyl)acetic acid", "2-[(Carboxymethyl)sulfanyl]acetic acid"], "SMILES": "S(CC(O)=O)CC(O)=O", "physical_data": {"Molecular Weight": "150.15", "Molecular Formula": "C4H6O4S", "Melting Point": "129 \u00b0C"}}