{"cas_no": "123-17-1", "cn_name": "2,6,8-\u4e09\u7532\u57fa-4-\u58ec\u9187", "en_name": ["2,6,8-Trimethyl-4-nonanol", "4-Nonanol, 2,6,8-trimethyl-", "2,6,8-Trimethyl-4-nonanol", "NSC 60574"], "SMILES": "C(CC(CC(C)C)O)(CC(C)C)C", "physical_data": {"Molecular Weight": "186.33", "Molecular Formula": "C12H26O", "Boiling Point": "225 \u00b0C"}}