{"cas_no": "123-76-2", "cn_name": "\u4e59\u9170\u4e19\u9178", "en_name": ["Levulinic acid", "Pentanoic acid, 4-oxo-", "Levulinic acid", "4-Oxopentanoic acid", "\u03b2-Acetylpropionic acid", "\u03b3-Ketovaleric acid", "Laevulinic acid", "Levulic acid", "3-Acetylpropionic acid", "4-Oxovaleric acid", "4-Ketovaleric acid", "NSC 3716", "3-Oxobutanecarboxylic acid", "3-Acetylpropanoic acid", "Lev-OH"], "SMILES": "C(CC(O)=O)C(C)=O", "physical_data": {"Molecular Weight": "116.12", "Molecular Formula": "C5H8O3", "Boiling Point": "245.5 \u00b0C", "Melting Point": "33 \u00b0C", "Density": "1.1447 g/cm\u00b3 @ Temp: 15.0 \u00b0C"}}