{"cas_no": "123-47-7", "cn_name": "\u666e\u9c81\u7898\u80fa", "en_name": ["1,3-Propanediaminium, 2-hydroxy-N1,N1,N1,N3,N3,N3-hexamethyl-, iodide (1:2)", "1,3-Propanediaminium, 2-hydroxy-N1,N1,N1,N3,N3,N3-hexamethyl-, iodide (1:2)", "Ammonium, (2-hydroxytrimethylene)bis[trimethyl-, diiodide", "1,3-Propanediaminium, 2-hydroxy-N,N,N,N\u2032,N\u2032,N\u2032-hexamethyl-, diiodide", "(2-Hydroxytrimethylene)bis[trimethylammonium iodide]", "Endoiodin", "Endoiodine", "Endoyodina", "Entodon", "Esoiodine", "Hexayodina", "Iodisan", "Prolonium iodide", "Propiodal", "Yodanodia", "Intraiodine", "Endojodin", "Yodorgan", "Iodo-Fluothymina", "Iodoxil", "Espectona-Gotas", "Soluyodina", "Intrajodin", "2-Hydroxy-N,N,N,N\u2032,N\u2032,N\u2032-hexamethyl-1,3-propane diaminium diiodide"], "SMILES": "C([N+](C)(C)C)C(C[N+](C)(C)C)O.[I-]", "physical_data": {"Molecular Weight": "", "Molecular Formula": "C9H24N2O.2I", "Melting Point": "275 \u00b0C (decomp)"}}