{"cas_no": "123-54-6", "cn_name": "\u4e59\u9170\u4e19\u916e", "en_name": ["Acetylacetone", "2,4-Pentanedione", "Acetylacetone", "Diacetylmethane", "2-Propanone, acetyl-", "2,4-Dioxopentane", "Acetoacetone", "2,4-Pentadione", "ACAC", "Pentan-2,4-dione", "NSC 139614", "NSC 2679", "NSC 2927", "NSC 52336", "NSC 54069", "NSC 5575", "NSC 77075", "NSC 78795", "2,4-Pentandione"], "SMILES": "C(C(C)=O)C(C)=O", "physical_data": {"Molecular Weight": "100.12", "Molecular Formula": "C5H8O2", "Boiling Point": "140 \u00b0C", "Melting Point": "-23 \u00b0C", "Density": "0.9721 g/cm\u00b3 @ Temp: 25 \u00b0C"}}