{"cas_no": "123-56-8", "cn_name": "\u4e01\u4e8c\u9170\u4e9a\u80fa", "en_name": ["Succinimide", "2,5-Pyrrolidinedione", "Succinimide", "Butanimide", "2,5-Diketopyrrolidine", "Succinic imide", "2,5-Dioxopyrrolidine", "Succinic acid imide", "Lubrizol 6406", "NSC 11204", "NSC 13114", "NSC 49152", "Acure 510-079"], "SMILES": "O=C1NC(=O)CC1", "physical_data": {"Molecular Weight": "99.09", "Molecular Formula": "C4H5NO2", "Boiling Point": "288 \u00b0C", "Melting Point": "126.5 \u00b0C"}}