{"cas_no": "123-25-1", "cn_name": "\u4e01\u4e8c\u9178\u4e8c\u4e59\u916f", "en_name": ["Diethyl succinate", "Butanedioic acid, 1,4-diethyl ester", "Succinic acid, diethyl ester", "Butanedioic acid, diethyl ester", "Diethyl succinate", "Ethyl succinate", "Clorius", "Diethyl butanedioate", "NSC 8875", "Butandioic acid diethyl ester", "DESU", "1,4-Diethyl butanedioate", "Diethyl 1,2-ethanedicarboxylate"], "SMILES": "C(CCC(OCC)=O)(OCC)=O", "physical_data": {"Molecular Weight": "174.19", "Molecular Formula": "C8H14O4", "Boiling Point": "217.7 \u00b0C", "Melting Point": "-21 \u00b0C", "Density": "1.041 g/cm\u00b3 @ Temp: 20 \u00b0C"}}