{"cas_no": "123-29-5", "cn_name": "\u58ec\u9178\u4e59\u916f", "en_name": ["Ethyl nonanoate", "Nonanoic acid, ethyl ester", "Ethyl nonanoate", "Ethyl nonylate", "Ethyl pelargonate", "Wine ether", "Pelargonic acid ethyl ester", "Ethyl n-nonanoate", "NSC 8901"], "SMILES": "C(CCCCCCCC)(OCC)=O", "physical_data": {"Molecular Weight": "186.29", "Molecular Formula": "C11H22O2", "Boiling Point": "227 \u00b0C", "Melting Point": "-36.7 \u00b0C"}}