{"cas_no": "123-66-0", "cn_name": "\u6b63\u5df1\u9178\u4e59\u916f", "en_name": ["Ethyl hexanoate", "Hexanoic acid, ethyl ester", "Ethyl caproate", "Ethyl hexanoate", "Caproic acid ethyl ester", "Ethyl capronate", "NSC 8882"], "SMILES": "C(C(OCC)=O)CCCC", "physical_data": {"Molecular Weight": "144.21", "Molecular Formula": "C8H16O2", "Boiling Point": "167 \u00b0C", "Melting Point": "-67 \u00b0C", "Density": "0.8733 g/cm\u00b3 @ Temp: 19 \u00b0C"}}