{"cas_no": "123-11-5", "cn_name": "\u5bf9\u7532\u6c27\u57fa\u82ef\u7532\u919b", "en_name": ["4-Methoxybenzaldehyde", "Benzaldehyde, 4-methoxy-", "p-Anisaldehyde", "4-Methoxybenzaldehyde", "Anisic aldehyde", "Crategine", "Anisaldehyde", "Aubepine", "p-Anisic aldehyde", "4-Anisaldehyde", "p-Formylanisole", "Obepin", "p-Methoxybenzaldehyde", "NSC 5590"], "SMILES": "C(=O)C1=CC=C(OC)C=C1", "physical_data": {"Molecular Weight": "136.15", "Molecular Formula": "C8H8O2", "Boiling Point": "249.5 \u00b0C @ Press: 760 Torr", "Melting Point": "0 \u00b0C", "Density": "1.1191 g/cm\u00b3 @ Temp: 15 \u00b0C"}}