{"cas_no": "123-82-0", "cn_name": "2-\u5e9a\u80fa", "en_name": ["2-Aminoheptane", "2-Heptanamine", "Hexylamine, 1-methyl-", "Armeen L-7", "1-Methylhexylamine", "Rineptil", "Tuamine", "Tuaminoheptane", "2-Heptylamine", "Heptamine (sympathomimetic)", "2-Aminoheptane", "Heptamine", "Rineptyl", "Heptin", "Tuaminoheptan", "1-Methylhexanamine", "DL-1-Methylhexylamine", "(\u00b1)-2-Aminoheptane", "dl-2-Aminoheptane", "(RS)-2-aminoheptane", "NSC 1091", "NSC 27160"], "SMILES": "C(CCCC)C(C)N", "physical_data": {"Molecular Weight": "115.22", "Molecular Formula": "C7H17N", "Boiling Point": "142 \u00b0C", "Melting Point": "101-102 \u00b0C", "Density": "0.7629 g/cm\u00b3 @ Temp: 20 \u00b0C"}}