{"cas_no": "123-06-8", "cn_name": "\u4e59\u6c27\u57fa\u4e9a\u7532\u57fa\u4e19\u4e8c\u8148", "en_name": ["2-(Ethoxymethylene)propanedinitrile", "Propanedinitrile, 2-(ethoxymethylene)-", "Malononitrile, (ethoxymethylene)-", "Propanedinitrile, (ethoxymethylene)-", "2-(Ethoxymethylene)propanedinitrile", "(Ethoxymethylene)malononitrile", "2-Cyano-3-ethoxyacrylonitrile", "(\u03b2-Ethoxymethylene)malononitrile", "(Ethoxymethylene)malonodinitrile", "\u03b1-Cyano-\u03b2-ethoxyacrylonitrile", "1,1-Dicyano-2-ethoxyethene", "1-Ethoxy-2,2-dicyanoethene", "2-Ethoxy-1,1-ethenedicarbonitrile", "1-Ethoxy-2,2-dicyanoethylene", "(Ethoxymethylene)propanedinitrile", "NSC 27792", "(Ethoxymethylidene)malononitrile", "1-Ethoxymethylenemalonitrile", "Ethoxymethylenemalonitrile", "2-(Ethoxymethylene)malononitrile", "2-(Ethoxymethylidene)propanedinitrile"], "SMILES": "C(=COCC)(C#N)C#N", "physical_data": {"Molecular Weight": "122.12", "Molecular Formula": "C6H6N2O", "Boiling Point": "156-157 \u00b0C @ Press: 15 Torr", "Melting Point": "66 \u00b0C"}}