{"cas_no": "123-31-9", "cn_name": "1,4-\u82ef\u4e8c\u915a", "en_name": ["Hydroquinone", "1,4-Benzenediol", "Hydroquinone", "Arctuvin", "p-Benzenediol", "Benzohydroquinone", "Benzoquinol", "p-Dihydroxybenzene", "Eldoquin", "Hydroquinol", "Quinol", "Tecquinol", "Tenox HQ", "p-Dioxybenzene", "p-Hydroquinone", "1,4-Dihydroxybenzene", "p-Hydroxyphenol", "HE 5", "Diak 5", "Eldopaque", "Phiaquin", "4-Hydroxyphenol", "Dihydroquinone", "p-Quinol", "BQ(H)", "p-Dihydroquinone", "1,4-Benzoquinol", "p-Phenylenediol", "Eldoquin Forte", "Solaquin Forte", "Black &", "White Bleaching Cream", "Eldopacque", "Aida", "Eldopaque Forte", "NSC 9247", "Solution Q", "1,4-p-Benzenediol", "1,4-Phenylenediol", "1,4-Benzenediol (hydroquinone)"], "SMILES": "OC1=CC=C(O)C=C1", "physical_data": {"Molecular Weight": "110.11", "Molecular Formula": "C6H6O2", "Boiling Point": "285-287 \u00b0C", "Melting Point": "170-171 \u00b0C", "Density": "1.332 g/cm\u00b3"}}