{"cas_no": "123-91-1", "cn_name": "1,4-\u4e8c\u6c27\u516d\u73af", "en_name": ["1,4-Dioxane", "1,4-Dioxane", "p-Dioxane", "Diethylene dioxide", "Diethylene ether", "Diethylene oxide", "1,4-Dioxacyclohexane", "1,4-Diethylene dioxide", "Dioxyethylene ether", "1,4-Dioxin, tetrahydro-", "Dioxane", "p-Dioxan", "Dioxan", "1,4-Dioxan", "NE 220", "NSC 8728"], "SMILES": "C1COCCO1", "physical_data": {"Molecular Weight": "88.11", "Molecular Formula": "C4H8O2", "Boiling Point": "101.1 \u00b0C @ Press: 760 Torr", "Melting Point": "11.80 \u00b0C", "Density": "1.0337 g/cm\u00b3 @ Temp: 20 \u00b0C"}}