{"cas_no": "123-03-5", "cn_name": "\u6c2f\u5316\u5341\u516d\u70f7\u57fa\u5421\u5576", "en_name": ["Cetylpyridinium chloride", "Pyridinium, 1-hexadecyl-, chloride (1:1)", "1-Hexadecylpyridinium chloride", "Pyridinium, 1-hexadecyl-, chloride", "Cepacol chloride", "Cetamium", "N-Cetylpyridinium chloride", "Cetylpyridinium chloride", "n-Hexadecylpyridinium chloride", "Hexadecylpyridinium chloride", "Pyrisept", "Ammonyx CPC", "Ceprim", "Aktivex", "Biosept", "1-Cetylpyridinium chloride", "Quaternario CPC", "Acetoquat CPC", "Intexsan CPC", "Ceepryn chloride", "Pristacin", "1-Palmitylpyridinium chloride", "Cetafilm", "CPC", "Merocet", "Merothol", "Ipanol", "1-n-Hexadecanepyridinium chloride", "Newkalgen B 651P", "Pionin B 651P", "CPC (onium compound)", "Dobendan", "Cepacol", "Medilave", "Cecure", "Halset", "NB 401", "NB 002", "TsPKh", "NB 003", "Septolete", "N-Cetylpyridium chloride", "Ronacare CPC", "C 9002"], "SMILES": "C(CCCCCCCCCCCCCCC)[N+]=1C=CC=CC1.[Cl-]", "physical_data": {"Molecular Weight": "", "Molecular Formula": "C21H38N.Cl", "Melting Point": "80 \u00b0C", "Density": "0.83 g/cm\u00b3"}}