{"cas_no": "123-95-5", "cn_name": "\u786c\u8102\u9178\u4e01\u916f", "en_name": ["Butyl stearate", "Octadecanoic acid, butyl ester", "Stearic acid, butyl ester", "Apex 4", "n-Butyl octadecanoate", "Butyl stearate", "Kesscoflex BS", "Polycizer 332", "RC Plasticizer B 17", "n-Butyl stearate", "Witcizer 200", "Witcizer 201", "Butyl octadecanoate", "Emerest 2325", "Groco 5810", "Tegester Butyl Stearate", "Wickenol 122", "Kessco BSC", "Starfol BS 100", "Uniflex BYS-Code C", "NJLUB BS", "Exceparl BS", "Loxiol G 31", "Kemester 5510", "Crodamol BS", "Nissan Unister M 476", "Emerest 2326", "Nikkol BS", "NSC 4820", "Kessco BS-COS", "DL 100", "BST-COS", "B 875938", "Fuji Additive AS 15"], "SMILES": "C(CC(OCCCC)=O)CCCCCCCCCCCCCCC", "physical_data": {"Molecular Weight": "340.58", "Molecular Formula": "C22H44O2", "Boiling Point": "343 \u00b0C", "Melting Point": "27 \u00b0C", "Density": "0.854 g/cm\u00b3 @ Temp: 25 \u00b0C"}}