{"cas_no": "123-12-6", "cn_name": "N,N,N',N'-\u56db\u4e59\u57fa\u4e8c\u4e59\u70ef\u4e09\u80fa", "en_name": ["N,N,N\u2032\u2032,N\u2032\u2032-Tetraethyldiethylenetriamine", "1,2-Ethanediamine, N2-[2-(diethylamino)ethyl]-N1,N1-diethyl-", "Diethylenetriamine, 1,1,7,7-tetraethyl-", "1,2-Ethanediamine, N\u2032-[2-(diethylamino)ethyl]-N,N-diethyl-", "N2-[2-(Diethylamino)ethyl]-N1,N1-diethyl-1,2-ethanediamine", "3,9-Diethyl-3,6,9-triazaundecane", "Bis[2-(diethylamino)ethyl]amine", "1,1,7,7-Tetraethyldiethylenetriamine", "N,N,N\u2032,N\u2032-Tetraethyldiethylenetriamine", "N,N,N\u2032\u2032,N\u2032\u2032-Tetraethylbis(2-aminoethyl)amine", "NSC 21238", "N-[2-(Diethylamino)ethyl]-N\u2032,N\u2032-diethylethane-1,2-diamine", "Di[2-(diethylamino)ethyl]amine", "N,N,N\u2032\u2032,N\u2032\u2032-Tetraethyldiethylenetriamine", "1,2-Ethanediamine N2-[2-(diethylamino)ethyl]-N1,N1-diethyl-", "(2-[[2-(Diethylamino)ethyl]amino]ethyl)diethylamine"], "SMILES": "N(CCNCCN(CC)CC)(CC)CC", "physical_data": {"Molecular Weight": "215.38", "Molecular Formula": "C12H29N3", "Boiling Point": "155-157 \u00b0C @ Press: 50 Torr"}}