{"cas_no": "123-42-2", "cn_name": "\u4e8c\u4e19\u916e\u9187", "en_name": ["Diacetone alcohol", "2-Pentanone, 4-hydroxy-4-methyl-", "4-Hydroxy-4-methyl-2-pentanone", "Diacetone alcohol", "Diketone alcohol", "4-Hydroxy-2-keto-4-methylpentane", "2-Methyl-2-pentanol-4-one", "Tyranton", "Acetonyldimethylcarbinol", "2-Methyl-4-oxo-2-pentanol", "Pyranton A", "4-Methyl-4-hydroxy-2-pentanone", "2-Hydroxy-2-methyl-4-pentanone", "4-Hydroxy-4-methyl-2-oxopentane", "NSC 9005", "2-Methyl-4-oxopentan-2-ol"], "SMILES": "C(C(C)(C)O)C(C)=O", "physical_data": {"Molecular Weight": "116.16", "Molecular Formula": "C6H12O2", "Boiling Point": "22.0 \u00b0C @ Press: 1.0 Torr", "Melting Point": "-44 \u00b0C", "Density": "0.9382 g/cm\u00b3 @ Temp: 20 \u00b0C"}}