{"cas_no": "123-20-6", "cn_name": "\u6b63\u4e01\u9178\u4e59\u70ef\u916f", "en_name": ["Vinyl butyrate", "Butanoic acid, ethenyl ester", "Butyric acid, vinyl ester", "Vinyl butyrate", "Vinyl butanoate", "Vinyl n-butyrate", "NSC 5280", "Ethenyl butanoate"], "SMILES": "C(CCC)(OC=C)=O", "physical_data": {"Molecular Weight": "114.14", "Molecular Formula": "C6H10O2", "Boiling Point": "107-108 \u00b0C", "Density": "0.8966 g/cm\u00b3 @ Temp: 20 \u00b0C"}}