{"cas_no": "123-02-4", "cn_name": "\u5341\u4e09\u70f7\u57fa\u82ef", "en_name": ["Tridecylbenzene", "Benzene, tridecyl-", "Tridecane, 1-phenyl-", "Tridecylbenzene", "Detergent Alkylate No. 5", "1-Phenyltridecane", "1-Phenyl-n-tridecane", "n-Tridecylbenzene", "Tridecylbenzol"], "SMILES": "C(CCCCCCCCCCCC)C1=CC=CC=C1", "physical_data": {"Molecular Weight": "260.46", "Molecular Formula": "C19H32", "Boiling Point": "346 \u00b0C", "Melting Point": "10 \u00b0C", "Density": "0.8550 g/cm\u00b3 @ Temp: 25 \u00b0C"}}