{"cas_no": "123-78-4", "cn_name": "D-\u9798\u6c28\u9187", "en_name": ["Sphingosine", "4-Octadecene-1,3-diol, 2-amino-, (2S,3R,4E)-", "4-Octadecene-1,3-diol, 2-amino-, (E)-D-erythro-", "4-Octadecene-1,3-diol, 2-amino-, [R-[R*,S*-(E)]]-", "(2S,3R,4E)-2-Amino-4-octadecene-1,3-diol", "Erythrosphingosine", "D-erythro-Sphingosine", "erythro-C18-Sphingosine", "C18-Sphingosine", "4-Sphingenine", "Sphingenine", "D-Sphingosine", "erythro-4-Sphingenine", "D-(+)-erythro-4-trans-Sphingenine", "4-trans-Sphingenine", "trans-4-Sphingenine", "Sphingosine", "D-erythro-C18-Sphingosine", "(4E)-Sphingenine", "(-)-D-erythro-Sphingosine", "(2S,3R)-Sphingosine", "(-)-Sphingosine", "MeSH ID: D013110"], "SMILES": "C(=CCCCCCCCCCCCCC)C(C(CO)N)O", "physical_data": {"Molecular Weight": "299.49", "Molecular Formula": "C18H37NO2", "Melting Point": "67 \u00b0C"}}