{"cas_no": "123-83-1", "cn_name": "N,N-\u4e8c\u7532\u57fa-N'-\u4e59\u57fa\u4e59\u4e8c\u80fa", "en_name": ["N,N-Dimethyl-N\u2032-ethylethylenediamine", "1,2-Ethanediamine, N2-ethyl-N1,N1-dimethyl-", "Ethylenediamine, N\u2032-ethyl-N,N-dimethyl-", "1,2-Ethanediamine, N\u2032-ethyl-N,N-dimethyl-", "N2-Ethyl-N1,N1-dimethyl-1,2-ethanediamine", "N\u2032-Ethyl-N,N-dimethyl-1,2-ethanediamine", "N\u2032-Ethyl-N,N-dimethylethylenediamine", "N,N-Dimethyl-N\u2032-ethylethylenediamine", "N,N-Dimethyl-N\u2032-ethyl-1,2-diaminoethane", "N-Ethyl-2-dimethylaminoethylamine", "N-[2-(Dimethylamino)ethyl]-N-ethylamine", "N-Ethyl-N\u2032,N\u2032-dimethylethane-1,2-diamine", "N-Ethyl-N\u2032,N\u2032-dimethylethylenediamine", "N\u2032-Ethyl-N,N-dimethyl-ethan-1,2-diamine", "[2-(Dimethylamino)ethyl](ethyl)amine"], "SMILES": "C(CNCC)N(C)C", "physical_data": {"Molecular Weight": "116.20", "Molecular Formula": "C6H16N2", "Boiling Point": "134.5 \u00b0C"}}