{"cas_no": "123-90-0", "cn_name": "\u786b\u4ee3\u5417\u5549", "en_name": ["Thiomorpholine", "Thiomorpholine", "Parathiazan", "Tetrahydro-1,4-thiazine", "1,4-Thiazan", "Thiamorpholine", "1-Thia-4-azacyclohexane", "1,4-Thiazane", "1,4-Thiazine, tetrahydro-", "Thiamorpholin"], "SMILES": "C1CSCCN1", "physical_data": {"Molecular Weight": "103.19", "Molecular Formula": "C4H9NS", "Boiling Point": "175 \u00b0C", "Melting Point": "170-175 \u00b0C", "Density": "1.0882 g/cm\u00b3 @ Temp: 20 \u00b0C"}}