{"cas_no": "123-84-2", "cn_name": "N-(2-\u7f9f\u57fa\u4e19\u57fa)\u4e59\u4e8c\u80fa", "en_name": ["N-(2-Hydroxypropyl)ethylenediamine", "2-Propanol, 1-[(2-aminoethyl)amino]-", "1-[(2-Aminoethyl)amino]-2-propanol", "N-(\u03b2-Hydroxypropyl)ethylenediamine", "N-(2-Hydroxypropyl)ethylenediamine", "\u03b2-Hydroxypropylethylenediamine", "Monolene", "N-(\u03b2-Hydroxypropyl)-1,2-diaminoethane", "(2-Hydroxypropylamino)ethylamine", "N-(\u03b2-Aminoethyl)isopropanolamine", "Amino Alcohol PA"], "SMILES": "C(NCCN)C(C)O", "physical_data": {"Molecular Weight": "118.18", "Molecular Formula": "C5H14N2O", "Boiling Point": "155 \u00b0C", "Melting Point": "-50 \u00b0C", "Density": "0.9810 g/cm\u00b3 @ Temp: 28.5 \u00b0C"}}