{"cas_no": "123-05-7", "cn_name": "2-\u4e59\u57fa\u5df2\u57fa\u919b", "en_name": ["2-Ethylhexanal", "Hexanal, 2-ethyl-", "Caproaldehyde, \u03b1-ethyl-", "2-Ethylhexanal", "Butylethylacetaldehyde", "Ethylbutylacetaldehyde", "\u03b1-Ethylcaproaldehyde", "2-Ethylhexaldehyde", "2-Ethylhexylaldehyde", "3-Formylheptane", "\u03b1-Ethylhexanal", "2-Ethylcaproaldehyde", "(\u00b1)-2-Ethylhexanal", "NSC 42871"], "SMILES": "C(CCCC)(CC)C=O", "physical_data": {"Molecular Weight": "128.21", "Molecular Formula": "C8H16O", "Boiling Point": "163 \u00b0C @ Press: 760 Torr", "Melting Point": "&lt;-100 \u00b0C", "Density": "0.8540 g/cm\u00b3 @ Temp: 20 \u00b0C"}}