{"cas_no": "123-96-6", "cn_name": "\u4ef2\u8f9b\u9187", "en_name": ["2-Octanol", "2-Octanol", "sec-Caprylic alcohol", "Hexylmethylcarbinol", "Methylhexylcarbinol", "s-Octyl alcohol", "\u03b2-Octyl alcohol", "1-Methylheptyl alcohol", "2-Octyl alcohol", "n-Octan-2-ol", "2-Hydroxyoctane", "2-Hydroxy-n-octane", "1-Methyl-1-heptanol", "1-Methylheptanol", "DL-2-Octanol", "dl-Methylhexylcarbinol", "(\u00b1)-2-Octanol", "(RS)-2-Octanol", "NSC 14759"], "SMILES": "C(CC(C)O)CCCC", "physical_data": {"Molecular Weight": "130.23", "Molecular Formula": "C8H18O", "Boiling Point": "178.5 \u00b0C", "Melting Point": "-38.6 \u00b0C", "Density": "0.82 g/cm\u00b3"}}