{"cas_no": "123-04-6", "cn_name": "\u6c2f\u4ee3\u5f02\u8f9b\u70f7", "en_name": ["3-(Chloromethyl)heptane", "Heptane, 3-(chloromethyl)-", "3-(Chloromethyl)heptane", "2-Ethylhexyl chloride", "1-Chloro-2-ethylhexane", "NSC 8883"], "SMILES": "C(CCCC)(CC)CCl", "physical_data": {"Molecular Weight": "148.67", "Molecular Formula": "C8H17Cl", "Boiling Point": "172 \u00b0C"}}