{"cas_no": "123-51-3", "cn_name": "\u5f02\u620a\u9187", "en_name": ["Isoamyl alcohol", "1-Butanol, 3-methyl-", "Isopentyl alcohol", "3-Methyl-1-butanol", "Isoamyl alcohol", "Isoamylol", "Isopentanol", "2-Methyl-4-butanol", "Isobutyl carbinol", "iso-Amyl alcohol", "iso-Pentanol", "3-Methylbutyl alcohol", "NSC 1029", "NSC 7905", "3-Methylbutane-1-ol"], "SMILES": "C(C(C)C)CO", "physical_data": {"Molecular Weight": "88.15", "Molecular Formula": "C5H12O", "Boiling Point": "132.5 \u00b0C", "Melting Point": "-117.2 \u00b0C", "Density": "0.813 g/cm\u00b3 @ Temp: 15 \u00b0C"}}