{"cas_no": "123-86-4", "cn_name": "\u4e59\u9178\u4e01\u916f", "en_name": ["Butyl acetate", "Acetic acid, butyl ester", "Butyl acetate", "n-Butyl acetate", "Butyl ethanoate", "1-Butyl acetate", "Acetic acid n-butyl ester", "1-Acetoxybutane", "NSC 9298", "NBA", "H 6D4051"], "SMILES": "O(CCCC)C(C)=O", "physical_data": {"Molecular Weight": "116.16", "Molecular Formula": "C6H12O2", "Boiling Point": "126.1 \u00b0C", "Melting Point": "-78 \u00b0C", "Density": "0.8826 g/cm\u00b3 @ Temp: 20 \u00b0C"}}