{"cas_no": "123-23-9", "cn_name": "\u8fc7\u6c27\u5316\u4e01\u4e8c\u9178", "en_name": ["Succinic acid peroxide", "Butanoic acid, 4,4\u2032-dioxybis[4-oxo-", "Peroxide, bis(3-carboxypropionyl)", "4,4\u2032-Dioxybis[4-oxobutanoic acid]", "Alphozone", "Succinic acid peroxide", "Succinyl peroxide", "Disuccinoyl peroxide", "Succinoyl peroxide", "Peroxydisuccinic acid", "Disuccinic acid peroxide", "Alfozono", "Succinic monoperoxyanhydride", "Peroyl SA", "NSC 676", "Disuccinyl peroxide"], "SMILES": "C(OOC(CCC(O)=O)=O)(CCC(O)=O)=O", "physical_data": {"Molecular Weight": "234.16", "Molecular Formula": "C8H10O8", "Melting Point": "125 \u00b0C (decomp)"}}