{"cas_no": "123-19-3", "cn_name": "4-\u5e9a\u916e", "en_name": ["4-Heptanone", "4-Heptanone", "Butyrone", "Dipropyl ketone", "GBL", "Propyl ketone", "Di-n-Propyl ketone", "4-Oxoheptane", "NSC 8692"], "SMILES": "C(CCC)(CCC)=O", "physical_data": {"Molecular Weight": "114.19", "Molecular Formula": "C7H14O", "Boiling Point": "144-146 \u00b0C", "Melting Point": "-33 \u00b0C", "Density": "0.8 g/cm\u00b3"}}