{"cas_no": "123-18-2", "cn_name": "2,6,8-\u4e09\u7532\u57fa-4-\u58ec\u916e", "en_name": ["2,6,8-Trimethyl-4-nonanone", "4-Nonanone, 2,6,8-trimethyl-", "2,6,8-Trimethyl-4-nonanone", "2,4,8-Trimethylnonan-6-one", "NSC 66186"], "SMILES": "C(CC(CC(C)C)=O)(CC(C)C)C", "physical_data": {"Molecular Weight": "184.32", "Molecular Formula": "C12H24O", "Boiling Point": "210-212 \u00b0C", "Density": "0.820 g/cm\u00b3"}}