{"cas_no": "123-15-9", "cn_name": "2-\u7532\u57fa\u620a\u919b", "en_name": ["(\u00b1)-2-Methylpentanal", "Pentanal, 2-methyl-", "Valeraldehyde, 2-methyl-", "2-Methylpentanal", "2-Methylvaleraldehyde", "\u03b1-Methylpentanal", "2-Formylpentane", "2-Methylvaleric aldehyde", "(\u00b1)-2-Methylpentanal", "NSC 49351", "\u03b1-Methylvaleraldehyde"], "SMILES": "C(CCC)(C=O)C", "physical_data": {"Molecular Weight": "100.16", "Molecular Formula": "C6H12O", "Boiling Point": "117 \u00b0C", "Density": "0.8092 g/cm\u00b3"}}