{"cas_no": "123-35-3", "cn_name": "\u6708\u6842\u70ef", "en_name": ["Myrcene", "1,6-Octadiene, 7-methyl-3-methylene-", "7-Methyl-3-methylene-1,6-octadiene", "\u03b2-Myrcene", "Myrcene", "2-Methyl-6-methylene-2,7-octadiene", "3-Methylene-7-methyl-1,6-octadiene", "\u03b2-Geraniolene", "NSC 406264", "beta-Myrcene"], "SMILES": "C(CCC=C(C)C)(C=C)=C", "physical_data": {"Molecular Weight": "136.23", "Molecular Formula": "C10H16", "Boiling Point": "167 \u00b0C @ Press: 760 Torr", "Melting Point": "&lt;-10 \u00b0C", "Density": "0.794 g/cm\u00b3 @ Temp: 20 \u00b0C"}}