{"cas_no": "123-34-2", "cn_name": "\u7518\u6cb9\u70ef\u4e19\u57fa\u919a", "en_name": ["3-(Allyloxy)-1,2-propanediol", "1,2-Propanediol, 3-(2-propen-1-yloxy)-", "1,2-Propanediol, 3-(allyloxy)-", "1,2-Propanediol, 3-(2-propenyloxy)-", "3-(2-Propen-1-yloxy)-1,2-propanediol", "1-(Allyloxy)-2,3-propanediol", "Glycerol \u03b1-monoallyl ether", "Glycerol \u03b1-allyl ether", "Glycerol 1-monoallyl ether", "Glycerin 1-allyl ether", "3-(Allyloxy)-1,2-propanediol", "1-Allyloxy-2,3-dihydroxypropane", "3-(2-Propenyloxy)-1,2-propanediol", "NSC 59722", "Glycerol 1-allyl ether", "Allyl chlorohydrin ether", "1-O-Prop-2-enylglycerol", "1-O-Allylglycerol", "\u03b1-Allyl glycerol ether", "3-Prop-2-enoxypropane-1,2-diol"], "SMILES": "C(COCC=C)(CO)O", "physical_data": {"Molecular Weight": "132.16", "Molecular Formula": "C6H12O3", "Boiling Point": "107-109 \u00b0C @ Press: 4.3-4.5 Torr", "Melting Point": "-100--90 \u00b0C", "Density": "1.061 g/cm\u00b3 @ Temp: 30 \u00b0C"}}