{"cas_no": "123-00-2", "cn_name": "N-(3-\u6c28\u4e19\u57fa)\u5417\u5549", "en_name": ["4-(3-Aminopropyl)morpholine", "4-Morpholinepropanamine", "Morpholine, 4-(3-aminopropyl)-", "\u03b3-Morpholinopropylamine", "N-(3-Aminopropyl)morpholine", "4-(\u03b3-Aminopropyl)morpholine", "1-Amino-3-morpholinopropane", "3-Morpholinopropylamine", "3-Amino-1-(morpholino)propane", "4-(3-Aminopropyl)morpholine", "3-(4-Morpholinyl)propylamine", "3-(N-Morpholino)-1-aminopropane", "3-Morpholinopropanamine", "3-(Morpholino)-n-propylamine", "3-(4-Morpholinyl)propanamine", "3-(4-Morpholinyl)-1-propanamine", "1-Morpholino-3-aminopropane", "NSC 1081", "3-(4-Morpholinyl)-1-propylamine", "3-(Morpholin-4-yl)propylamine", "3-(4-Morpholino)propylamine", "[3-(4-Morpholinyl)propan-1-yl]amine", "[3-(Morpholino)propan-1-yl]amine", "N-Morpholino-3-propylamine", "3-(Morpholin-4-yl)propan-1-amine"], "SMILES": "C(CCN)N1CCOCC1", "physical_data": {"Molecular Weight": "144.21", "Molecular Formula": "C7H16N2O", "Boiling Point": "220 \u00b0C", "Melting Point": "-15 \u00b0C", "Density": "0.9902 g/cm\u00b3 @ Temp: 15 \u00b0C"}}