{"cas_no": "123-39-7", "cn_name": "N-\u7532\u57fa\u7532\u9170\u80fa", "en_name": ["N-Methylformamide", "Formamide, N-methyl-", "N-Methylformamide", "Monomethylformamide", "Methylformamide", "N-Monomethylformamide", "NSC 3051", "N-Methylformimidic acid", "Methyl methanamide"], "SMILES": "C(NC)=O", "physical_data": {"Molecular Weight": "59.07", "Molecular Formula": "C2H5NO", "Boiling Point": "180-185 \u00b0C", "Melting Point": "-5.4 \u00b0C", "Density": "0.9961 g/cm\u00b3 @ Temp: 25 \u00b0C"}}