{"cas_no": "123-75-1", "cn_name": "\u56db\u6c22\u5421\u54af", "en_name": ["Pyrrolidine", "Pyrrolidine", "Azacyclopentane", "Prolamine", "Pyrrole, tetrahydro-", "Tetrahydropyrrole", "Tetramethylenimine", "Pyrrolidine ring", "Butylenimine", "Azolidine", "Perhydropyrrole", "NSC 62781", "9: PN: WO2017048620 SEQID: 14 claimed sequence"], "SMILES": "C1CCNC1", "physical_data": {"Molecular Weight": "71.12", "Molecular Formula": "C4H9N", "Boiling Point": "86.71 \u00b0C", "Melting Point": "-63 \u00b0C", "Density": "0.8520 g/cm\u00b3 @ Temp: 22.5 \u00b0C"}}