{"cas_no": "123-43-3", "cn_name": "\u78fa\u57fa\u4e59\u9178", "en_name": ["Sulfoacetic acid", "Acetic acid, 2-sulfo-", "Acetic acid, sulfo-", "2-Sulfoacetic acid", "Sulfoacetic acid", "Sulfoethanoic acid", "Carboxymethylsulfonic acid"], "SMILES": "C(S(=O)(=O)O)C(O)=O", "physical_data": {"Molecular Weight": "140.12", "Molecular Formula": "C2H4O5S", "Melting Point": "84 \u00b0C"}}