{"cas_no": "123-08-0", "cn_name": "\u5bf9\u7f9f\u57fa\u82ef\u7532\u919b", "en_name": ["4-Hydroxybenzaldehyde", "Benzaldehyde, 4-hydroxy-", "Benzaldehyde, p-hydroxy-", "4-Hydroxybenzaldehyde", "4-Formylphenol", "p-Formylphenol", "p-Oxybenzaldehyde", "Parahydroxybenzaldehyde", "p-Hydroxybenzaldehyde", "NSC 2127"], "SMILES": "C(=O)C1=CC=C(O)C=C1", "physical_data": {"Molecular Weight": "122.12", "Molecular Formula": "C7H6O2", "Boiling Point": "310 \u00b0C", "Melting Point": "117 \u00b0C", "Density": "1.1364 g/cm\u00b3 @ Temp: 119.6 \u00b0C"}}