{"cas_no": "123-28-4", "cn_name": "\u786b\u4ee3\u4e8c\u4e19\u9178\u53cc\u5341\u4e8c\u70f7\u916f", "en_name": ["Dilauryl thiodipropionate", "Propanoic acid, 3,3\u2032-thiobis-, 1,1\u2032-didodecyl ester", "Propionic acid, 3,3\u2032-thiodi-, didodecyl ester", "Propanoic acid, 3,3\u2032-thiobis-, didodecyl ester", "Dilauryl thiodipropionate", "Dilauryl \u03b2,\u03b2\u2032-thiodipropionate", "Dilauryl 3,3\u2032-thiodipropionate", "Plastanox LTDP Antioxidant", "Thiodipropionic acid didodecyl ester", "Tyox B", "Antioxidant AS", "Thiobis(dodecyl propionate)", "Didodecyl 3,3\u2032-thiodipropionate", "Stabilizer DLT", "Bis(dodecyloxycarbonylethyl) sulfide", "DLTDP", "DLT", "Plastanox LTDP", "Lauryl 3,3\u2032-thiodipropionate", "Advastab 800", "DMPTP", "DLTP", "Ipognox 89", "Neganox DLTP", "Antioxidant LTDP", "Dilauryl \u03b2-thiodipropionate", "Irganox PS 800", "Milban F", "Lusmit", "Carstab DLTDP", "D 1 (antioxidant)", "PS 800", "Arbestab DLTP", "D 1", "Nonox DLTDP", "Antiox L", "Rasumitto", "Sumilizer TPL", "Cyanox LTDP", "Hostanox SE 1", "Sumilizer TPL-R", "TPL", "Nocrac 400", "Antiox DLTP", "Irgafos PS 800", "TPL-R", "Rasumitto LG", "Yoshinox DLTP", "NSC 65494", "Irganox PS 800FL", "KY 800", "BNX DLTDP", "Naugard DLTDP", "Irganox DLTP", "Antioxidant 800", "Chinox DLTP", "Thanox DLTP", "3,3\u2032-Thiodipropionic acid di(n-dodecyl) ester", "Irganox PS 800FD", "PS 800FD", "Sonox DLTDP", "Songnox DLTDP", "Antioxidant DLDP", "Antioxidant DLTP", "Antioxidant TPL", "PS 800FL", "Antioxidant DLTDP", "Tinogard DA", "TF 6693", "Gsinox DLTP", "BSD-DLTP"], "SMILES": "C(CCSCCC(OCCCCCCCCCCCC)=O)(OCCCCCCCCCCCC)=O", "physical_data": {"Molecular Weight": "514.84", "Molecular Formula": "C30H58O4S", "Melting Point": "40 \u00b0C"}}