{"cas_no": "123-32-0", "cn_name": "2,5-\u4e8c\u7532\u57fa\u5421\u55ea", "en_name": ["2,5-Dimethylpyrazine", "Pyrazine, 2,5-dimethyl-", "2,5-Dimethylpyrazine", "NSC 49139"], "SMILES": "CC=1C=NC(C)=CN1", "physical_data": {"Molecular Weight": "108.14", "Molecular Formula": "C6H8N2", "Boiling Point": "155 \u00b0C", "Melting Point": "15 \u00b0C", "Density": "0.9887 g/cm\u00b3 @ Temp: 20 \u00b0C"}}