{"cas_no": "123-09-1", "cn_name": "4-\u6c2f\u8334\u9999\u786b\u919a", "en_name": ["1-Chloro-4-(methylthio)benzene", "Benzene, 1-chloro-4-(methylthio)-", "Sulfide, p-chlorophenyl methyl", "1-Chloro-4-(methylthio)benzene", "p-Chlorothioanisole", "Methyl 4-chlorophenyl sulfide", "4-Chlorothioanisole", "Methyl p-chlorophenyl sulfide", "p-Chlorophenyl methyl sulfide", "4-Chlorophenyl methyl sulfide", "p-(Methylthio)chlorobenzene", "NSC 72090", "1-Chloro-4-(methylsulfanyl)benzene", "1-Chloro-4-methylsulfanylbenzene", "(4-Chlorophenyl)(methyl)sulfane"], "SMILES": "S(C)C1=CC=C(Cl)C=C1", "physical_data": {"Molecular Weight": "158.65", "Molecular Formula": "C7H7ClS", "Boiling Point": "170 \u00b0C", "Melting Point": "18-19 \u00b0C"}}