{"cas_no": "123040-16-4", "cn_name": "\u76d0\u9178\u963f\u624e\u53f8\u743c", "en_name": ["Y 25130", "2H-1,4-Benzoxazine-8-carboxamide, N-1-azabicyclo[2.2.2]oct-3-yl-6-chloro-3,4-dihydro-4-methyl-3-oxo-, hydrochloride (1:1)", "2H-1,4-Benzoxazine-8-carboxamide, N-1-azabicyclo[2.2.2]oct-3-yl-6-chloro-3,4-dihydro-4-methyl-3-oxo-, monohydrochloride", "Y 25130", "Azasetron hydrochloride", "Serotone", "(\u00b1)-6-Chloro-3,4-dihydro-4-methyl-3-oxo-N-(3-quinuclidinyl)-2H-1,4-benzoxazine-8-carboxamide hydrochloride"], "SMILES": "C(NC1C2CCN(C1)CC2)(=O)C3=C4C(N(C)C(=O)CO4)=CC(Cl)=C3.Cl", "physical_data": {"Molecular Weight": "", "Molecular Formula": "C17H20ClN3O3.ClH", "Melting Point": "281 \u00b0C (decomp)"}}