{"cas_no": "123040-75-5", "cn_name": "6-\u6c2f-3,4-\u4e8c\u6c22-3-\u6c27\u4ee3-2H-1,4-\u82ef\u5e76\u6076\u55ea-8-\u7532\u9178\u7532\u916f", "en_name": ["Methyl 6-chloro-3,4-dihydro-3-oxo-2H-1,4-benzoxazine-8-carboxylate", "2H-1,4-Benzoxazine-8-carboxylic acid, 6-chloro-3,4-dihydro-3-oxo-, methyl ester", "Methyl 6-chloro-3,4-dihydro-3-oxo-2H-1,4-benzoxazine-8-carboxylate"], "SMILES": "C(OC)(=O)C1=C2C(NC(=O)CO2)=CC(Cl)=C1", "physical_data": {"Molecular Weight": "241.63", "Molecular Formula": "C10H8ClNO4", "Melting Point": "239-241 \u00b0C"}}