{"cas_no": "123040-79-9", "cn_name": "6-\u6c2f-4-\u7532\u57fa-3-\u6c27\u4ee3-3,4-\u4e8c\u6c22-2H-1,4-\u82ef\u5e76\u55ea-8-\u7fa7\u9178", "en_name": ["6-Chloro-3,4-dihydro-4-methyl-3-oxo-2H-1,4-benzoxazine-8-carboxylic acid", "2H-1,4-Benzoxazine-8-carboxylic acid, 6-chloro-3,4-dihydro-4-methyl-3-oxo-", "6-Chloro-3,4-dihydro-4-methyl-3-oxo-2H-1,4-benzoxazine-8-carboxylic acid"], "SMILES": "C(O)(=O)C1=C2C(N(C)C(=O)CO2)=CC(Cl)=C1", "physical_data": {"Molecular Weight": "241.63", "Molecular Formula": "C10H8ClNO4", "Melting Point": "241-243 \u00b0C"}}