{"cas_no": "12317-46-3", "cn_name": "\u4e8c\u6c2f(\u964d\u51b0\u7247\u4e8c\u70ef)\u94af(II)", "en_name": ["[(2,3,5,6-\u03b7)-Bicyclo[2.2.1]hepta-2,5-diene]dichloropalladium", "Palladium, [(2,3,5,6-\u03b7)-bicyclo[2.2.1]hepta-2,5-diene]dichloro-", "Palladium, dichloro(2,5-norbornadiene)-", "Bicyclo[2.2.1]hepta-2,5-diene, palladium complex", "[(2,3,5,6-\u03b7)-Bicyclo[2.2.1]hepta-2,5-diene]dichloropalladium", "Norbornadiene palladium dichloride", "Bicyclo[2.2.1]hepta-2,5-diene(dichloro)palladium", "Dichloro(norbornadiene)palladium", "Dichloro(norbornadiene)palladium(II)", "NSC 176915", "2,5-Norbornadiene Palladium(II) Dichloride"], "SMILES": "[Cl-][Pd+2]123([Cl-])[CH]4=[CH]1C5[CH]2=[CH]3C4C5", "physical_data": {"Molecular Weight": "", "Molecular Formula": "C7H8Cl2Pd", "Melting Point": "190-200 \u00b0C (decomp)"}}