{"cas_no": "123237-62-7", "cn_name": "\u53d4\u4e01\u57fa\u4e8c\u7532\u57fa\u7532\u7845\u70f7\u57fa(S)-(+)-\u7f29\u6c34\u7518\u6cb9\u919a", "en_name": ["tert-Butyldimethyl[((S)-oxiranyl)methoxy]silane", "Oxirane, 2-[[[(1,1-dimethylethyl)dimethylsilyl]oxy]methyl]-, (2S)-", "Silane, (1,1-dimethylethyl)dimethyl(oxiranylmethoxy)-, (S)-", "Silane, (1,1-dimethylethyl)dimethyl[(2S)-oxiranylmethoxy]-", "(2S)-2-[[[(1,1-Dimethylethyl)dimethylsilyl]oxy]methyl]oxirane", "(2S)-1-O-(tert-Butyldimethylsilyl)glycidol", "tert-Butyldimethyl[((2S)-oxiran-2-yl)methoxy]silane", "tert-Butyldimethyl[((S)-oxiranyl)methoxy]silane", "(S)-TBS-glycidol", "(S)-2-((tert-Butyldimethylsilyloxy)methyl)oxirane", "(2S)-tert-Butyldimethyl(oxiran-2-ylmethoxy)silane"], "SMILES": "[Si](C(C)(C)C)(OCC1CO1)(C)C", "physical_data": {"Molecular Weight": "188.34", "Molecular Formula": "C9H20O2Si", "Boiling Point": "195-199 \u00b0C", "Density": "0.87 g/cm\u00b3"}}