{"cas_no": "123350-57-2", "cn_name": "HEDERAGENIN-3-O-\u0391-L-RHAMNOPYRANOSYL (1\u21922)-\u0391-L-ARABINOPYRANOSIDE", "en_name": ["\u03b1-Hederin", "Olean-12-en-28-oic acid, 3-[[2-O-(6-deoxy-\u03b1-L-mannopyranosyl)-\u03b1-L-arabinopyranosyl]oxy]-23-hydroxy-, (3\u03b2,4\u03b1)-", "\u03b1-Hederin", "(3\u03b2,4\u03b1)-3-[[2-O-(6-Deoxy-\u03b1-L-mannopyranosyl)-\u03b1-L-arabinopyranosyl]oxy]-23-hydroxyolean-12-en-28-oic acid", "Helixin", "Sapindoside A", "Hederagenin 3-O-\u03b1-L-rhamnopyranosyl-(1 \u2192 2)-\u03b1-L-arabinopyranoside", "Akebia saponin PD", "Prosapogenin CP3b", "Kizuta saponin K6", "Nepalin 2", "Tauroside E", "Kalopanaxsaponin A", "Pulsatilla saponin A", "Hederoside C", "Koronaroside A", "Akeboside Stc", "Glycoside L-E1", "Dipsacoside A", "Dipsacobioside", "(+)-Dipsacobioside", "Cephalaroside C", "NSC 106553", "23-Hydroxy-3\u03b2-[(O-\u03b1-L-rhamnopyranosyl-(1\u21922)-\u03b1-L-arabinopyranosyl)oxy]olean-12-en-28-oic acid", "3-O-\u03b1-L-Rhamnopyranosyl-(1\u21922)-\u03b1-L-arabinopyranosylhederagenin", "Dipsacus saponin L", "Pulchinenoside BD"], "SMILES": "CC12C3(C)C(C4C(C(O)=O)(CC3)CCC(C)(C)C4)=CCC1C5(C)C(CC2)C(CO)(C)C(OC6C(OC7C(O)C(O)C(O)C(C)O7)C(O)C(O)CO6)CC5", "physical_data": {"Molecular Weight": "750.96", "Molecular Formula": "C41H66O12", "Melting Point": "253-256 \u00b0C"}}