{"cas_no": "123367-27-1", "cn_name": "3 - (\u4e8c\u7532\u6c28\u57fa)-1 - (4-\u5421\u5576\u57fa)-2-\u4e19\u70ef-1-\u916e", "en_name": ["(2E)-3-(Dimethylamino)-1-(4-pyridinyl)-2-propen-1-one", "2-Propen-1-one, 3-(dimethylamino)-1-(4-pyridinyl)-, (2E)-", "2-Propen-1-one, 3-(dimethylamino)-1-(4-pyridinyl)-, (E)-", "(2E)-3-(Dimethylamino)-1-(4-pyridinyl)-2-propen-1-one", "(E)-3-(Dimethylamino)-1-(pyridin-4-yl)prop-2-en-1-one", "(2E)-3-(Dimethylamino)-1-(4-pyridyl)prop-2-en-1-one", "(E)-3-(Dimethylamino)-1-(pyridin-4-yl)prop-2-en-1-one"], "SMILES": "C(C=CN(C)C)(=O)C=1C=CN=CC1", "physical_data": {"Molecular Weight": "176.22", "Molecular Formula": "C10H12N2O", "Melting Point": "114 \u00b0C"}}