{"cas_no": "123343-16-8", "cn_name": "Pyrithiobac-sodium", "en_name": ["Pyrithiobac sodium", "Benzoic acid, 2-chloro-6-[(4,6-dimethoxy-2-pyrimidinyl)thio]-, sodium salt (1:1)", "Benzoic acid, 2-chloro-6-[(4,6-dimethoxy-2-pyrimidinyl)thio]-, sodium salt", "KIH 2031", "DPX-PE 350", "Pyrithiobac sodium salt", "Staple", "Staple 85SP", "Pyrithiobac sodium", "Staple LX"], "SMILES": "C(O)(=O)C1=C(SC=2N=C(OC)C=C(OC)N2)C=CC=C1Cl.[Na]", "physical_data": {"Molecular Weight": "", "Molecular Formula": "C13H11ClN2O4S.Na", "Melting Point": "248 \u00b0C"}}