{"cas_no": "123324-71-0", "cn_name": "4-\u53d4\u4e01\u57fa\u82ef\u787c\u9178", "en_name": ["4-tert-Butylphenylboronic acid", "Boronic acid, B-[4-(1,1-dimethylethyl)phenyl]-", "Boronic acid, [4-(1,1-dimethylethyl)phenyl]-", "B-[4-(1,1-Dimethylethyl)phenyl]boronic acid", "4-tert-Butylphenylboronic acid", "(p-tert-Butylphenyl)boronic acid", "4-tert-Butylbenzeneboronic acid", "p-tert-Butylbenzeneboronic acid", "4-t-Butylbenzeneboronic acid", "[4-(1,1-Dimethylethyl)phenyl]boronic acid", "4-t-Butylphenylboronic acid"], "SMILES": "C(C)(C)(C)C1=CC=C(B(O)O)C=C1", "physical_data": {"Molecular Weight": "178.04", "Molecular Formula": "C10H15BO2", "Melting Point": "160 \u00b0C"}}