{"cas_no": "123318-82-1", "cn_name": "\u514b\u7f57\u62c9\u6ee8", "en_name": ["Clofarabine", "9H-Purin-6-amine, 2-chloro-9-(2-deoxy-2-fluoro-\u03b2-D-arabinofuranosyl)-", "2-Chloro-9-(2-deoxy-2-fluoro-\u03b2-D-arabinofuranosyl)-9H-purin-6-amine", "2-Chloro-9-(2-deoxy-2-fluoro-\u03b2-D-arabinofuranosyl)adenine", "Clofarabine", "Clofarex", "Clolar", "Evoltra", "Ivozall"], "SMILES": "NC1=C2C(N(C=N2)C3OC(CO)C(O)C3F)=NC(Cl)=N1", "physical_data": {"Molecular Weight": "303.68", "Molecular Formula": "C10H11ClFN5O3", "Melting Point": "225-227 \u00b0C"}}