{"cas_no": "123387-51-9", "cn_name": "4,4-(\u4e59\u70ef\u4e8c\u6c27\u57fa)-1-\u53d4\u4e01\u6c27\u7fb0\u57fa\u54cc\u5576", "en_name": ["1,1-Dimethylethyl 1,4-dioxa-8-azaspiro[4.5]decane-8-carboxylate", "1,4-Dioxa-8-azaspiro[4.5]decane-8-carboxylic acid, 1,1-dimethylethyl ester", "1,1-Dimethylethyl 1,4-dioxa-8-azaspiro[4.5]decane-8-carboxylate", "4,4-(Ethylenedioxy)-1-tert-butoxycarbonylpiperidine", "8-(tert-Butoxycarbonyl)-1,4-dioxa-8-azaspiro[4.5]decane", "1-tert-Butoxycarbonyl-4-piperidone ethylene ketal", "tert-Butyl 1,4-dioxa-8-azaspiro[4.5]decane-8-carboxylate"], "SMILES": "C(OC(C)(C)C)(=O)N1CCC2(CC1)OCCO2", "physical_data": {"Molecular Weight": "243.30", "Molecular Formula": "C12H21NO4", "Boiling Point": "180-190 \u00b0C @ Press: 0.4 Torr", "Melting Point": "55 \u00b0C"}}