{"cas_no": "1233855-46-3", "cn_name": "3-(1-(\u73af\u5df1\u57fa(\u7532\u57fa\u6c28\u57fa\u7532\u9170\u57fa)-1H-\u54aa\u5511-4-\u57fa)\u5421\u55761-\u6c27\u5316\u7269", "en_name": ["N-Cyclohexyl-N-methyl-4-(1-oxido-3-pyridinyl)-1H-imidazole-1-carboxamide", "1H-Imidazole-1-carboxamide, N-cyclohexyl-N-methyl-4-(1-oxido-3-pyridinyl)-", "N-Cyclohexyl-N-methyl-4-(1-oxido-3-pyridinyl)-1H-imidazole-1-carboxamide"], "SMILES": "C(N(C)C1CCCCC1)(=O)N2C=C(N=C2)C3=CN(=O)=CC=C3", "physical_data": {"Molecular Weight": "300.36", "Molecular Formula": "C16H20N4O2", "Melting Point": "227.5 \u00b0C"}}