{"cas_no": "123312-89-0", "cn_name": "\u5421\u869c\u916e", "en_name": ["Pymetrozine", "1,2,4-Triazin-3(2H)-one, 4,5-dihydro-6-methyl-4-[(E)-(3-pyridinylmethylene)amino]-", "1,2,4-Triazin-3(2H)-one, 4,5-dihydro-6-methyl-4-[(3-pyridinylmethylene)amino]-, (E)-", "4,5-Dihydro-6-methyl-4-[(E)-(3-pyridinylmethylene)amino]-1,2,4-triazin-3(2H)-one", "CGA 215944", "Pymetrozine", "Chess", "Fulfill", "Plenum", "Endeavor", "A 9364A"], "SMILES": "N(=CC=1C=CC=NC1)N2C(=O)NN=C(C)C2", "physical_data": {"Molecular Weight": "217.23", "Molecular Formula": "C10H11N5O", "Melting Point": "217 \u00b0C", "Density": "1.36 g/cm\u00b3 @ Temp: 20 \u00b0C"}}