{"cas_no": "123348-27-6", "cn_name": "2-\u6eb4-7-\u7898\u82b4", "en_name": ["2-Bromo-7-iodo-9H-fluorene", "9H-Fluorene, 2-bromo-7-iodo-", "2-Bromo-7-iodo-9H-fluorene", "2-Bromo-7-iodofluorene", "2-Bromo-7-iodo-9H-fluoren"], "SMILES": "BrC=1C=C2C(C=3C(C2)=CC(I)=CC3)=CC1", "physical_data": {"Molecular Weight": "371.01", "Molecular Formula": "C13H8BrI", "Melting Point": "160.5 \u00b0C"}}