{"cas_no": "123464-89-1", "cn_name": "PNU-282987", "en_name": ["Benzamide, N-(3R)-1-azabicyclo[2.2.2]oct-3-yl-4-chloro-, hydrochloride (1:1)", "Benzamide, N-(3R)-1-azabicyclo[2.2.2]oct-3-yl-4-chloro-, hydrochloride (1:1)", "Benzamide, N-1-azabicyclo[2.2.2]oct-3-yl-4-chloro-, monohydrochloride, (R)-", "Benzamide, N-(3R)-1-azabicyclo[2.2.2]oct-3-yl-4-chloro-, monohydrochloride", "PNU 282987", "(R)-4-Chloro-N-(quinuclidin-3-yl)benzamide hydrochloride", "PNU282987", "PNU 282987 hydrochloride", "PNU 282987 HCl"], "SMILES": "N(C(=O)C1=CC=C(Cl)C=C1)C2C3CCN(C2)CC3.Cl", "physical_data": {"Molecular Weight": "", "Molecular Formula": "C14H17ClN2O.ClH", "Melting Point": "&gt;260 \u00b0C"}}