{"cas_no": "1234-35-1", "cn_name": "N-\u82c4\u6c27\u7fb0\u57fa-L-\u7cbe\u6c28\u9178", "en_name": ["Benzyloxycarbonyl-L-arginine", "L-Arginine, N2-[(phenylmethoxy)carbonyl]-", "Arginine, N2-carboxy-, N2-benzyl ester, L-", "Arginine, N2-carboxy-, N-benzyl ester", "L-Arginine, N2-carboxy-, N-benzyl ester", "N2-[(Phenylmethoxy)carbonyl]-L-arginine", "Benzyloxycarbonyl-L-arginine", "N2-Benzyloxycarbonyl-L-arginine", "N-Carbobenzoxyarginine", "N\u03b1-(Benzyloxycarbonyl)arginine", "(2S)-2-[[(Benzyloxy)carbonyl]amino]-5-carbamimidamidopentanoic acid", "(2S)-5-(Diaminomethylideneazaniumyl)-2-(phenylmethoxycarbonylamino)pentanoate"], "SMILES": "C(OC(NC(CCCNC(=N)N)C(O)=O)=O)C1=CC=CC=C1", "physical_data": {"Molecular Weight": "308.33", "Molecular Formula": "C14H20N4O4", "Melting Point": "175 \u00b0C"}}