{"cas_no": "1234616-70-6", "cn_name": "6-\u6eb4-2,4-\u4e8c\u6c2f\u5421\u5576\u5e76[2,3-D]\u5627\u5576", "en_name": ["6-Bromo-2,4-dichloropyrido[2,3-d]pyrimidine", "Pyrido[2,3-d]pyrimidine, 6-bromo-2,4-dichloro-", "6-Bromo-2,4-dichloropyrido[2,3-d]pyrimidine"], "SMILES": "ClC=1C2=C(N=C(Cl)N1)N=CC(Br)=C2", "physical_data": {"Molecular Weight": "278.92", "Molecular Formula": "C7H2BrCl2N3", "Melting Point": "176-177 \u00b0C"}}