{"cas_no": "1234616-25-1", "cn_name": "4-\u6eb4-1-\u7532\u57fa-7-\u6c2e\u6742\u5432\u54da", "en_name": ["4-Bromo-1-methyl-1H-pyrrolo[2,3-b]pyridine", "1H-Pyrrolo[2,3-b]pyridine, 4-bromo-1-methyl-", "4-Bromo-1-methyl-1H-pyrrolo[2,3-b]pyridine"], "SMILES": "BrC1=C2C(N(C)C=C2)=NC=C1", "physical_data": {"Molecular Weight": "211.06", "Molecular Formula": "C8H7BrN2", "Melting Point": "25.2-27.1 \u00b0C"}}