{"cas_no": "123402-21-1", "cn_name": "3\u2018-\u6c1f-3'-\u8131\u6c27\u9e1f\u82f7", "en_name": ["3\u2032-Deoxy-3\u2032-fluoroguanosine", "Guanosine, 3\u2032-deoxy-3\u2032-fluoro-", "3\u2032-Deoxy-3\u2032-fluoroguanosine", "3\u2032-Fluoro-3\u2032-deoxyguanosine", "2-Amino-9-((2R,3S,4S,5R)-4-fluoro-3-hydroxy-5-(hydroxymethyl)tetrahydrofuran-2-yl)-1H-purin-6(9H)-one"], "SMILES": "O=C1C2=C(N(C=N2)C3OC(CO)C(F)C3O)NC(N)=N1", "physical_data": {"Molecular Weight": "285.23", "Molecular Formula": "C10H12FN5O4", "Melting Point": "289-291 \u00b0C"}}