{"cas_no": "1235-21-8", "cn_name": "\u4e59\u9170\u4e09\u82ef\u57fa\u6c2f\u5316\u78f7", "en_name": ["Phosphonium, (2-oxopropyl)triphenyl-, chloride (1:1)", "Phosphonium, (2-oxopropyl)triphenyl-, chloride (1:1)", "Phosphonium, acetonyltriphenyl-, chloride", "Phosphonium, (2-oxopropyl)triphenyl-, chloride", "Acetonyltriphenylphosphonium chloride", "(Acetylmethyl)triphenylphosphonium chloride", "(2-Oxopropyl)triphenylphosphonium chloride"], "SMILES": "[P+](CC(C)=O)(C1=CC=CC=C1)(C2=CC=CC=C2)C3=CC=CC=C3.[Cl-]", "physical_data": {"Molecular Weight": "", "Molecular Formula": "C21H20OP.Cl", "Melting Point": "234 \u00b0C (decomp)"}}