{"cas_no": "12354-84-6", "cn_name": "\u4e8c\u6c2f(\u4e94\u7532\u57fa\u73af\u620a\u4e8c\u70ef\u57fa)\u5408\u94f1(III)\u4e8c\u805a\u4f53", "en_name": ["Iridium, di-\u03bc-chlorodichlorobis[(1,2,3,4,5-\u03b7)-1,2,3,4,5-pentamethyl-2,4-cyclopentadien-1-yl]di-", "Iridium, di-\u03bc-chlorodichlorobis[(1,2,3,4,5-\u03b7)-1,2,3,4,5-pentamethyl-2,4-cyclopentadien-1-yl]di-", "1,3-Cyclopentadiene, 1,2,3,4,5-pentamethyl-, iridium complex", "Bis[dichloro(pentamethylcyclopentadienyl)iridium]", "(Pentamethylcyclopentadienyl)iridium dichloride dimer", "Di-\u03bc-chlorodichlorobis(pentamethylcyclopentadienyl)diiridium", "Tetrachlorobis(pentamethylcyclopentadienyl)diiridium", "Bis((\u03bc-chloro)chloro(\u03b75-pentamethylcyclopentadienyl)iridium)", "Bis(dichloro(\u03b75-pentamethylcyclopentadienyl)iridium)", "Bis(dichloro(\u03b75-\u03b7-pentamethylcyclopentadienyl)iridium)", "Tetrachlorobis(\u03b75-pentamethylcyclopentadienyl)diiridium", "Dichlorobis(\u03bc2-chloro)bis(\u03b75-pentamethylcyclopentadienyl)diiridium", "(\u03b75-Pentamethylcyclopentadienyl)iridium dichloride dimer", "Bis(chloro(\u03bc2-chloro)(\u03b75-pentamethylcyclopentadienyl)iridium)", "Dichlorodi-\u03bc-chlorobis(\u03b75-pentamethylcyclopentadienyl)diiridium", "Bis(pentamethylcyclopentadienyliridium dichloride)", "Di-\u03bc-chlorobis(chloro(\u03b75-pentamethylcyclopentadienyl)iridium)", "Bis(\u03bc-chloro)bis[chloro(\u03b75-pentamethylcyclopentadienyl)iridium]", "Dichloro(pentamethylcyclopentadienyl)iridium dimer", "Dichloro(pentamethylcyclopentadienyl)iridium(III) dimer", "Bis(pentamethylcyclopentadiene)tetrachlorodiiridium", "(Ir(Cp*)Cl2)2", "Pentamethylcyclopentadienyliridium(III) dichloride dimer", "[Cp*IrCl2]2"], "SMILES": "[Cl-][Ir+3]12345(C=6(C)C1(C)=C2(C)[C-]3(C)C46C)[Cl-][Ir+3]789%10([Cl-])([Cl-]5)[C-]%11(C)C7(C)=C8(C)C9(C)=C%10%11C", "physical_data": {"Molecular Weight": "", "Molecular Formula": "C20H30Cl4Ir2", "Melting Point": "245 \u00b0C (decomp)"}}