{"cas_no": "1235406-42-4", "cn_name": "N-BOC-4-\u6c28\u57fa\u567b\u5511", "en_name": ["1,1-Dimethylethyl N-4-thiazolylcarbamate", "Carbamic acid, N-4-thiazolyl-, 1,1-dimethylethyl ester", "1,1-Dimethylethyl N-4-thiazolylcarbamate", "(1,3-Thiazol-4-yl)carbamic acid tert-butyl ester", "Thiazol-4-ylcarbamic acid tert-butyl ester"], "SMILES": "N(C(OC(C)(C)C)=O)C1=CSC=N1", "physical_data": {"Molecular Weight": "200.26", "Molecular Formula": "C8H12N2O2S", "Melting Point": "153-155 \u00b0C"}}