{"cas_no": "123524-52-7", "cn_name": "\u963f\u6298\u5730\u5e73", "en_name": ["Azelnidipine", "3,5-Pyridinedicarboxylic acid, 2-amino-1,4-dihydro-6-methyl-4-(3-nitrophenyl)-, 3-[1-(diphenylmethyl)-3-azetidinyl] 5-(1-methylethyl) ester", "3,5-Pyridinedicarboxylic acid, 2-amino-1,4-dihydro-6-methyl-4-(3-nitrophenyl)-, 3-[1-(diphenylmethyl)-3-azetidinyl] 5-(1-methylethyl) ester, (\u00b1)-", "CS 905", "3-[1-(Diphenylmethyl)-3-azetidinyl] 5-isopropyl (\u00b1)-2-amino-1,4-dihydro-6-methyl-4-(m-nitrophenyl)-3,5-pyridinedicarboxylate", "Azelnidipine", "Calblock", "2-Amino-1,4-dihydro-6-methyl-4-(3-nitrophenyl)-3,5-pyridinedicarboxylic acid 3-(1-diphenylmethylazetidin-3-yl) 5-isopropyl ester", "3-O-(1-Benzhydrylazetidin-3-yl) 5-O-propan-2-yl 2-amino-6-methyl-4-(3-nitrophenyl)-1,4-dihydropyridine-3,5-dicarboxylate"], "SMILES": "C(OC1CN(C(C2=CC=CC=C2)C3=CC=CC=C3)C1)(=O)C=4C(C(C(OC(C)C)=O)=C(C)NC4N)C5=CC(N(=O)=O)=CC=C5", "physical_data": {"Molecular Weight": "582.65", "Molecular Formula": "C33H34N4O6", "Melting Point": "95-98 \u00b0C"}}