{"cas_no": "123557-91-5", "cn_name": "RACBHFF;RAC-BHFF;RAC BHFF", "en_name": ["5,7-Bis(1,1-dimethylethyl)-3-hydroxy-3-(trifluoromethyl)-2(3H)-benzofuranone", "2(3H)-Benzofuranone, 5,7-bis(1,1-dimethylethyl)-3-hydroxy-3-(trifluoromethyl)-", "5,7-Bis(1,1-dimethylethyl)-3-hydroxy-3-(trifluoromethyl)-2(3H)-benzofuranone", "5,7-Di-tert-butyl-3-hydroxy-3-trifluoromethyl-3H-benzofuran-2-one"], "SMILES": "C(F)(F)(F)C1(O)C=2C(=C(C(C)(C)C)C=C(C(C)(C)C)C2)OC1=O", "physical_data": {"Molecular Weight": "330.34", "Molecular Formula": "C17H21F3O3", "Melting Point": "83 \u00b0C"}}