{"cas_no": "12354-85-7", "cn_name": "\u4e8c\u6c2f(\u4e94\u7532\u57fa\u73af\u620a\u4e8c\u70ef\u57fa)\u5408\u94d1(III)\u4e8c\u805a\u4f53", "en_name": ["Bis[dichloro[\u03b75-(pentamethylcyclopentadienyl)]rhodium]", "Rhodium, di-\u03bc-chlorodichlorobis[(1,2,3,4,5-\u03b7)-1,2,3,4,5-pentamethyl-2,4-cyclopentadien-1-yl]di-", "1,3-Cyclopentadiene, 1,2,3,4,5-pentamethyl-, rhodium complex", "Di-\u03bc-Chlorodichlorobis(pentamethyl-\u03c0-cyclopentadienyl)dirhodium", "Tetrachlorobis(pentamethylcyclopentadienyl)dirhodium", "Di-\u03bc-chlorodichlorobis(pentamethylcyclopentadienyl)dirhodium", "Bis(dichloro(pentamethylcyclopentadienyl)rhodium)", "Bis(chloro(\u03bc-chloro)(\u03b75-pentamethylcyclopentadienyl)rhodium)", "Tetrachlorobis(\u03b75-pentamethylcyclopentadienyl)dirhodium", "Bis[dichloro[\u03b75-(pentamethylcyclopentadienyl)]rhodium]", "Bis(\u03bc-chloro)bis(chloro(\u03b75-pentamethylcyclopentadienyl)rhodium)", "Dichlorobis(\u03bc2-chloro)bis(\u03b75-pentamethylcyclopentadienyl)dirhodium", "(\u03b75-Pentamethylcyclopentadienyl)rhodium dichloride dimer", "Bis(pentamethylcyclopentadienylrhodium dichloride)", "Di-\u03bc-chlorodichlorobis((\u03b75-pentamethylcyclopentadienyl)rhodium)", "Dichloro(pentamethylcyclopentadienyl)rhodium dimer", "Di-\u03bc-chlorobis[chloro(\u03b75-pentamethylcyclopentadienyl)rhodium]", "Pentamethylcyclopentadienerhodium dichloride dimer", "Dichloro(pentamethylcyclopentadienyl)rhodium(II) dimer", "Dichloro(pentamethylcyclopentadienyl)rhodium(III) dimer", "Di-\u03bc-chlorodichlorobis(\u03b75-pentamethylcyclopentadienyl)dirhodium", "(Pentamethylcyclopentadienyl)rhodium dichloride dimer", "Pentamethylcyclopentadienylrhodium(III) chloride dimer", "[RhCl2Cp*]2"], "SMILES": "[Cl-][Rh+3]12345(C=6(C)C1(C)=C2(C)[C-]3(C)C46C)[Cl-][Rh+3]789%10([Cl-])([Cl-]5)[C-]%11(C)C7(C)=C8(C)C9(C)=C%10%11C", "physical_data": {"Molecular Weight": "", "Molecular Formula": "C20H30Cl4Rh2", "Melting Point": "&gt;350 \u00b0C (decomp)"}}