{"cas_no": "123536-14-1", "cn_name": "R-3-\u6c28\u57fa\u594e\u5b81\u73af\u4e8c\u76d0\u9178\u76d0", "en_name": ["(R)-(+)-3-Aminoquinuclidine dihydrochloride", "1-Azabicyclo[2.2.2]octan-3-amine, hydrochloride (1:2), (3R)-", "1-Azabicyclo[2.2.2]octan-3-amine, dihydrochloride, (R)-", "1-Azabicyclo[2.2.2]octan-3-amine, dihydrochloride, (3R)-", "(R)-(+)-3-Aminoquinuclidine dihydrochloride", "(3R)-3-Aminoquinuclidine dihydrochloride", "3-(R)-Aminoquinuclidine dihydrochloride", "(R)-3-Aminoquinuclidine dihydrochloride", "(R)-Quinuclidin-3-amine dihydrochloride", "(3r)-Quinuclidin-3-amine dihydrochloride", "(R)-(+)-3-Aminoquinuclidine dihydrochlorid"], "SMILES": "NC1C2CCN(C1)CC2.Cl", "physical_data": {"Molecular Weight": "", "Molecular Formula": "C7H14N2.2ClH", "Melting Point": "&gt;260 \u00b0C"}}