{"cas_no": "1235-82-1", "cn_name": "\u76d0\u9178\u6bd4\u54cc\u7acb\u767b", "en_name": ["Biperiden hydrochloride", "1-Piperidinepropanol, \u03b1-bicyclo[2.2.1]hept-5-en-2-yl-\u03b1-phenyl-, hydrochloride (1:1)", "1-Piperidinepropanol, \u03b1-5-norbornen-2-yl-\u03b1-phenyl-, hydrochloride", "1-Piperidinepropanol, \u03b1-bicyclo[2.2.1]hept-5-en-2-yl-\u03b1-phenyl-, hydrochloride", "Akineton hydrochloride", "\u03b1-(Bicyclo[2.2.1]hept-5-en-2-yl)-\u03b1-phenyl-1-piperidinepropanol hydrochloride", "Biperidene hydrochloride", "Biperiden hydrochloride", "Akinophyl", "NSC 170950", "NSC 84989", "Tasmolin", "1-(Bicyclo[2.2.1]hept-5-en-2-yl)-1-phenyl-3-(piperidin-1-yl)propan-1-ol hydrochloride"], "SMILES": "C(CCN1CCCCC1)(O)(C2C3CC(C2)C=C3)C4=CC=CC=C4.Cl", "physical_data": {"Molecular Weight": "", "Molecular Formula": "C21H29NO.ClH", "Melting Point": "275 \u00b0C (decomp)"}}