{"cas_no": "123572-88-3", "cn_name": "\u6c1f\u5421\u83cc\u80fa", "en_name": ["Furametpyr", "1H-Pyrazole-4-carboxamide, 5-chloro-N-(1,3-dihydro-1,1,3-trimethyl-4-isobenzofuranyl)-1,3-dimethyl-", "5-Chloro-N-(1,3-dihydro-1,1,3-trimethyl-4-isobenzofuranyl)-1,3-dimethyl-1H-pyrazole-4-carboxamide", "Furametpyr", "Limber"], "SMILES": "N(C(=O)C1=C(Cl)N(C)N=C1C)C2=C3C(C(C)(C)OC3C)=CC=C2", "physical_data": {"Molecular Weight": "333.81", "Molecular Formula": "C17H20ClN3O2", "Melting Point": "145 \u00b0C"}}