{"cas_no": "123696-02-6", "cn_name": "3-\u6c2f-5-\u7532\u6c27\u57fa\u54d2\u55ea", "en_name": ["3-Chloro-5-methoxypyridazine", "Pyridazine, 3-chloro-5-methoxy-", "3-Chloro-5-methoxypyridazine"], "SMILES": "O(C)C=1C=C(Cl)N=NC1", "physical_data": {"Molecular Weight": "144.56", "Molecular Formula": "C5H5ClN2O", "Melting Point": "101 \u00b0C"}}