{"cas_no": "123653-11-2", "cn_name": "\u6291\u5236\u5242", "en_name": ["N-[2-(Cyclohexyloxy)-4-nitrophenyl]methanesulfonamide", "Methanesulfonamide, N-[2-(cyclohexyloxy)-4-nitrophenyl]-", "N-[2-(Cyclohexyloxy)-4-nitrophenyl]methanesulfonamide", "NS 398", "Taisho NS 398"], "SMILES": "O(C1=C(NS(C)(=O)=O)C=CC(N(=O)=O)=C1)C2CCCCC2", "physical_data": {"Molecular Weight": "314.36", "Molecular Formula": "C13H18N2O5S", "Melting Point": "124-126 \u00b0C"}}