{"cas_no": "123863-99-0", "cn_name": "9,9-\u4e8c\u6b63\u8f9b\u57fa\u82b4", "en_name": ["9,9-Dioctyl-9H-fluorene", "9H-Fluorene, 9,9-dioctyl-", "9,9-Dioctyl-9H-fluorene", "9,9-Dioctylfluorene", "9,9-Di-n-octylfluorene"], "SMILES": "C(CCCCCCC)C1(CCCCCCCC)C=2C(C=3C1=CC=CC3)=CC=CC2", "physical_data": {"Molecular Weight": "390.64", "Molecular Formula": "C29H42", "Melting Point": "27-28 \u00b0C"}}