{"cas_no": "1239-29-8", "cn_name": "\u592b\u62c9\u624e\u52c3", "en_name": ["Furazabol", "Androstano[2,3-c][1,2,5]oxadiazol-17-ol, 17-methyl-, (5\u03b1,17\u03b2)-", "5\u03b1-Androstano[2,3-c][1,2,5]oxadiazol-17\u03b2-ol, 17-methyl-", "1H-Cyclopenta[7,8]phenanthro[2,3-c][1,2,5]oxadiazol-1-ol, 2,3,3a\u03b1,3b\u03b2,4,5,5a\u03b1,6,10,10a,10b\u03b1,11,12,12a-tetradecahydro-1\u03b1,10a\u03b2,12a\u03b2-trimethyl-", "(5\u03b1,17\u03b2)-17-Methylandrostano[2,3-c][1,2,5]oxadiazol-17-ol", "Furazabol", "17-Methyl-5\u03b1-androstano[2,3-c]furazan-17\u03b2-ol", "5\u03b1-Androstano[2,3-c]furazan-17\u03b2-ol, 17-methyl-", "Frazalon", "Miotolon", "Qu Zhi Shu"], "SMILES": "CC12C3C(C4C(C)(CC3)C(C)(O)CC4)CCC1CC=5C(C2)=NON5", "physical_data": {"Molecular Weight": "330.46", "Molecular Formula": "C20H30N2O2", "Melting Point": "152.5 \u00b0C"}}