{"cas_no": "123950-44-7", "cn_name": "4-\u6c28\u57fa-2,6-\u4e8c\u6c1f\u4e09\u6c1f\u7532\u82ef", "en_name": ["3,5-Difluoro-4-(trifluoromethyl)benzenamine", "Benzenamine, 3,5-difluoro-4-(trifluoromethyl)-", "3,5-Difluoro-4-(trifluoromethyl)benzenamine", "2,6-Difluoro-4-aminobenzotrifluoride", "3,5-Difluoro-4-trifluoromethylaniline", "4-Amino-2,6-difluorobenzotrifluoride", "3,5-Difluoro-4-trifluoromethyl-phenylamine"], "SMILES": "C(F)(F)(F)C1=C(F)C=C(N)C=C1F", "physical_data": {"Molecular Weight": "197.11", "Molecular Formula": "C7H4F5N", "Melting Point": "62 \u00b0C"}}