{"cas_no": "123940-54-5", "cn_name": "\u7af9\u7ea2\u83cc\u4e59\u7d20", "en_name": ["Hypocrellin B", "1H-Cyclohepta[ghi]perylene-5,12-dione, 3-acetyl-6,11-dihydroxy-4,8,9,13-tetramethoxy-2-methyl-", "3-Acetyl-6,11-dihydroxy-4,8,9,13-tetramethoxy-2-methyl-1H-cyclohepta[ghi]perylene-5,12-dione", "Hypocrellin B"], "SMILES": "O(C)C1=C2C=3C4=C5C(=C6C3C(C1=O)=C(O)C=C6OC)C(OC)=CC(O)=C5C(=O)C(OC)=C4CC(C)=C2C(C)=O", "physical_data": {"Molecular Weight": "528.51", "Molecular Formula": "C30H24O9", "Melting Point": "261-263 \u00b0C"}}