{"cas_no": "1239-31-2", "cn_name": "\u918b\u9178\u53bb\u6c22\u8868\u96c4\u916e", "en_name": ["3\u03b2-Acetoxy-5\u03b1-androstan-17-one", "Androstan-17-one, 3-(acetyloxy)-, (3\u03b2,5\u03b1)-", "5\u03b1-Androstan-17-one, 3\u03b2-hydroxy-, acetate", "(3\u03b2,5\u03b1)-3-(Acetyloxy)androstan-17-one", "3\u03b2-Acetoxy-5\u03b1-androstan-17-one", "Epiandrosterone acetate", "5\u03b1-Androstan-3\u03b2-acetoxy-17-one", "epi-Androsterone acetate", "Isoandrosterone acetate", "5\u03b1-Androstan-3\u03b2-ol-17-one acetate", "17-Oxo-5\u03b1-androstan-3\u03b2-yl acetate", "3\u03b2-Acetoxyepiandrosterone", "NSC 120612"], "SMILES": "CC12C3C(C4C(C)(CC3)C(=O)CC4)CCC1CC(OC(C)=O)CC2", "physical_data": {"Molecular Weight": "332.48", "Molecular Formula": "C21H32O3", "Melting Point": "103-104 \u00b0C"}}