{"cas_no": "124-18-5", "cn_name": "\u7678\u70f7", "en_name": ["Decane", "Decane", "n-Decane", "Cactus Normal Paraffin N 10", "NSC 8781"], "SMILES": "C(CCCCC)CCCC", "physical_data": {"Molecular Weight": "142.28", "Molecular Formula": "C10H22", "Boiling Point": "174.1 \u00b0C", "Melting Point": "-29.7 \u00b0C", "Density": "0.7300 g/cm\u00b3 @ Temp: 20 \u00b0C"}}