{"cas_no": "124-13-0", "cn_name": "\u6b63\u8f9b\u919b", "en_name": ["Octanal", "Octanal", "Antifoam LF", "Caprylaldehyde", "Caprylic aldehyde", "Octaldehyde", "n-Octanal", "n-Octylal", "n-Caprylaldehyde", "n-Octaldehyde", "Octanoic aldehyde", "Octanaldehyde", "Octylaldehyde", "n-Octyl aldehyde", "Aldehyde C 8", "NSC 1508", "NSC 8969"], "SMILES": "C(CCCC)CCC=O", "physical_data": {"Molecular Weight": "128.21", "Molecular Formula": "C8H16O", "Boiling Point": "163.4 \u00b0C @ Press: 760 Torr", "Melting Point": "-23 \u00b0C", "Density": "0.821 g/cm\u00b3 @ Temp: 20 \u00b0C"}}