{"cas_no": "124-41-4", "cn_name": "\u7532\u9187\u94a0", "en_name": ["Sodium methoxide", "Methanol, sodium salt (1:1)", "Sodium methoxide", "Methanol, sodium salt", "Sodium methylate", "Sodium methanolate", "Feldalat NM", "Methoxysodium", "SM 24", "Sodium methoxylate", "SM 28", "S 108357"], "SMILES": "CO.[Na]", "physical_data": {"Molecular Weight": "", "Molecular Formula": "CH4O.Na", "Boiling Point": "~80 \u00b0C (approx) @ Press: 0.4 Torr", "Melting Point": "127 \u00b0C (decomp)", "Density": "0.45 g/cm\u00b3"}}