{"cas_no": "124-06-1", "cn_name": "\u5341\u56db\u9178\u4e59\u916f", "en_name": ["Ethyl myristate", "Tetradecanoic acid, ethyl ester", "Myristic acid, ethyl ester", "Ethyl myristate", "Ethyl tetradecanoate", "NSC 8917", "Nikkol BM"], "SMILES": "C(CCCCCCCCCCC)CC(OCC)=O", "physical_data": {"Molecular Weight": "256.42", "Molecular Formula": "C16H32O2", "Boiling Point": "295 \u00b0C", "Melting Point": "12.3 \u00b0C"}}