{"cas_no": "124-26-5", "cn_name": "\u786c\u8102\u9170\u80fa", "en_name": ["Stearamide", "Octadecanamide", "Stearamide", "Adogen 42", "Octadecamide", "Octadecylamide", "Stearic acid amide", "Stearic amide", "Stearylamide", "Stearoylamide", "Stearoylamine", "Kemamide S", "Armid 18", "Advawax 290", "EBF", "Amide T", "Crodamide S", "Hidorin M 7", "Alflow S 10", "Amide S (binder)", "Selosol 2M", "Neutron 2", "Octadecaneamide", "Hidorin F 792", "Uniwax 1750", "Hymicron G 270", "Crodamide SR", "Amide AP", "Armoslip 18LF", "Neutron 2S", "Kawaslip VL", "NSC 66462", "G 270", "L 271", "Hymicron L 271", "Kao Fatty Amide S", "Fatty Amide T", "Atmer SA 1750", "Lutamide S", "Alflow S 100", "Finawax S", "Impoe HE 88", "N 327", "Hidorin L 271", "Loxamid S", "Finawax S 70", "Daiwax SA 200", "Finawax S 90", "Hidorin B 934", "Lutamide SR", "T 22", "T 22 (amide)", "Chamide SSA", "Chamide S", "IncroMax PS", "Eviwax 140", "DY 2016", "DY 1182", "Ceretan MA 7250", "Deurex A 28", "Crodamide SRV"], "SMILES": "C(CCCCCCCCCCC)CCCCCC(N)=O", "physical_data": {"Molecular Weight": "283.49", "Molecular Formula": "C18H37NO", "Boiling Point": "250-251 \u00b0C @ Press: 12 Torr", "Melting Point": "109 \u00b0C"}}