{"cas_no": "124-20-9", "cn_name": "\u4e9a\u7cbe\u80fa", "en_name": ["Spermidine", "1,4-Butanediamine, N1-(3-aminopropyl)-", "Spermidine", "1,4-Butanediamine, N-(3-aminopropyl)-", "N1-(3-Aminopropyl)-1,4-butanediamine", "4-Azaoctane-1,8-diamine", "Spermidin", "N-(4-Aminobutyl)-1,3-diaminopropane", "1,5,10-Triazadecane", "N-(3-Aminopropyl)-1,4-butanediamine", "N-(3-Aminopropyl)-4-aminobutylamine", "N-(3-Aminopropyl)-1,4-diaminobutane", "1,8-Diamino-4-azaoctane", "(4-Aminobutyl)(3-aminopropyl)amine", "MeSH ID: D013095"], "SMILES": "C(NCCCN)CCCN", "physical_data": {"Molecular Weight": "145.25", "Molecular Formula": "C7H19N3", "Boiling Point": "129 \u00b0C", "Melting Point": "&lt;25 \u00b0C"}}