{"cas_no": "124-58-3", "cn_name": "\u7532\u57fa\u80c2\u9178", "en_name": ["Methylarsonic acid", "Arsonic acid, methyl-", "Methanearsonic acid", "Methylarsonic acid", "MAA", "Monomethylarsonic acid", "NSC 71150", "NSC 71151", "NSC 71153", "NSC 71154"], "SMILES": "[As](C)(=O)(O)O", "physical_data": {"Molecular Weight": "139.97", "Molecular Formula": "CH5AsO3", "Melting Point": "160.5 \u00b0C"}}