{"cas_no": "124-63-0", "cn_name": "\u7532\u57fa\u78fa\u9170\u6c2f", "en_name": ["Methanesulfonyl chloride", "Methanesulfonyl chloride", "Methanesulfonic acid chloride", "Methylsulfonyl chloride", "Chloro methyl sulfone", "Mesyl chloride", "Methyl sulfochloride", "NSC 15039", "Methanesulfochloride", "MsCl"], "SMILES": "S(C)(Cl)(=O)=O", "physical_data": {"Molecular Weight": "114.55", "Molecular Formula": "CH3ClO2S", "Boiling Point": "62 \u00b0C @ Press: 18 Torr", "Melting Point": "-32 \u00b0C", "Density": "1.4805 g/cm\u00b3 @ Temp: 18 \u00b0C"}}