{"cas_no": "124-47-0", "cn_name": "\u785d\u9178\u8132", "en_name": ["Urea nitrate", "Urea, nitrate (1:1)", "Urea, mononitrate", "Acidogen nitrate", "Urea nitrate"], "SMILES": "C(N)(N)=O.N(=O)(=O)O", "physical_data": {"Molecular Weight": "", "Molecular Formula": "CH4N2O.HNO3", "Melting Point": "152 \u00b0C (decomp)", "Density": "1.690 g/cm\u00b3 @ Temp: 20 \u00b0C"}}