{"cas_no": "124-94-7", "cn_name": "\u66f2\u5b89\u897f\u9f99", "en_name": ["Triamcinolone", "Pregna-1,4-diene-3,20-dione, 9-fluoro-11,16,17,21-tetrahydroxy-, (11\u03b2,16\u03b1)-", "Pregna-1,4-diene-3,20-dione, 9-fluoro-11\u03b2,16\u03b1,17,21-tetrahydroxy-", "(11\u03b2,16\u03b1)-9-Fluoro-11,16,17,21-tetrahydroxypregna-1,4-diene-3,20-dione", "Aristocort", "9\u03b1-Fluoro-16\u03b1-hydroxyprednisolone", "9\u03b1-Fluoro-11\u03b2,16\u03b1,17\u03b1,21-tetrahydroxypregna-1,4-diene-3,20-dione", "9\u03b1-Fluoro-11\u03b2,16\u03b1,17,21-tetrahydroxypregna-1,4-diene-3,20-dione", "Fluoxyprednisolone", "Rodinolone", "11\u03b2,16\u03b1,17\u03b1,21-Tetrahydroxy-9\u03b1-fluoro-1,4-pregnadiene-3,20-dione", "11\u03b2,16\u03b1,17\u03b1,21-Tetrahydroxy-9\u03b1-fluoro-\u03941,4-pregnadiene-3,20-dione", "Triamcinolone", "9-Fluoro-11\u03b2,16\u03b1,17,21-tetrahydroxypregna-1,4-diene-3,20-dione", "Triamcinolon", "Delphicort", "Volon", "Triamcinlon", "Adcortyl", "CL 19823", "Ledercort", "Kenacort", "Polcortolon", "Kenacort AG", "Tricortale", "Omicilon", "Cinolone", "NSC 13397", "Mycolog", "Fluoxiprednisolone", "MeSH ID: D014221"], "SMILES": "FC12C(C3C(C)(CC1O)C(C(CO)=O)(O)C(O)C3)CCC=4C2(C)C=CC(=O)C4", "physical_data": {"Molecular Weight": "394.43", "Molecular Formula": "C21H27FO6", "Melting Point": "269-271 \u00b0C"}}