{"cas_no": "124-28-7", "cn_name": "\u5341\u516b\u70f7\u57fa\u4e8c\u7532\u57fa\u53d4\u80fa", "en_name": ["Dimethyloctadecylamine", "1-Octadecanamine, N,N-dimethyl-", "Octadecylamine, N,N-dimethyl-", "N,N-Dimethyl-1-octadecanamine", "Dimantine", "N,N-Dimethyl-n-octadecylamine", "Dymanthine", "Octadecyldimethylamine", "Stearyldimethylamine", "Dimethyloctadecylamine", "Dimethyl-n-octadecylamine", "Dimethylstearylamine", "N,N-Dimethyloctadecylamine", "N,N-Dimethylstearylamine", "Armeen DM 18D", "N,N-Dimethyloctadecanamine", "Kemamine 9902D", "Adogen 342D", "N-Stearyl-N,N-dimethylamine", "Farmin DM 80", "N-Octadecyl-N,N-dimethylamine", "ADMA 18", "DM 18D", "Farmin DM 8098", "Genamin 18R302D", "AT 1895A", "Tertiary Nissan Amine AB", "Nissan Tertiary Amine AB", "N-Octadecyldimethylamine", "N,N-Dimethyloctadecan-1-amine"], "SMILES": "C(CCCCCCCCCCCC)CCCCCN(C)C", "physical_data": {"Molecular Weight": "297.56", "Molecular Formula": "C20H43N", "Boiling Point": "194 \u00b0C @ Press: 6 Torr", "Melting Point": "22.89 \u00b0C"}}