{"cas_no": "124-48-1", "cn_name": "\u4e00\u6c2f\u4e8c\u6eb4\u7532\u70f7", "en_name": ["Dibromochloromethane", "Methane, dibromochloro-", "Dibromochloromethane", "Chlorodibromomethane", "Monochlorodibromomethane", "Dibromomonochloromethane", "DBCM"], "SMILES": "C(Br)(Br)Cl", "physical_data": {"Molecular Weight": "208.28", "Molecular Formula": "CHBr2Cl", "Boiling Point": "120 \u00b0C", "Melting Point": "-20 \u00b0C", "Density": "2.38 g/cm\u00b3"}}