{"cas_no": "124-22-1", "cn_name": "\u5341\u4e8c\u70f7\u57fa\u4f2f\u80fa", "en_name": ["Dodecylamine", "1-Dodecanamine", "Dodecylamine", "Laurylamine", "Alamine 4", "Armeen 12D", "1-Aminododecane", "n-Dodecylamine", "Laurinamine", "1-Dodecylamine", "Nissan Amine BB", "n-Laurylamine", "Amine BB", "Kemamine P 690", "Monododecylamine", "Farmin 20D", "Lauramine", "Monolaurylamine", "HAN 12", "Lipomin 12D", "Adogen 163D"], "SMILES": "C(CCCCCC)CCCCCN", "physical_data": {"Molecular Weight": "185.35", "Molecular Formula": "C12H27N", "Boiling Point": "259 \u00b0C", "Melting Point": "28.3 \u00b0C", "Density": "0.8015 g/cm\u00b3 @ Temp: 20 \u00b0C"}}