{"cas_no": "124-42-5", "cn_name": "\u76d0\u9178\u4e59\u8112", "en_name": ["Ethanimidamide, hydrochloride (1:1)", "Ethanimidamide, hydrochloride (1:1)", "Acetamidine, monohydrochloride", "Ethanimidamide, monohydrochloride", "Acetamidine, hydrochloride", "Acediamine hydrochloride", "\u03b1-Amino-\u03b1-iminoethane hydrochloride", "Ethanamidine hydrochloride", "SN 4455", "Acetamidinium chloride", "Acetimidinium chloride", "Ethanimidamide, hydrochloride", "Methylamidine hydrochloride", "Acetamidine hydrochloride", "Acetimidamide hydrochloride"], "SMILES": "C(C)(=N)N.Cl", "physical_data": {"Molecular Weight": "", "Molecular Formula": "C2H6N2.ClH", "Melting Point": "177.5 \u00b0C"}}