{"cas_no": "124-64-1", "cn_name": "\u56db\u7f9f\u7532\u57fa\u6c2f\u5316\u78f7", "en_name": ["Tetrakis(hydroxymethyl)phosphonium chloride", "Phosphonium, tetrakis(hydroxymethyl)-, chloride (1:1)", "Phosphonium, tetrakis(hydroxymethyl)-, chloride", "Tetrakis(hydroxymethyl)phosphonium chloride", "THPC", "Tetramethylolphosphonium chloride", "Tetrakis(hydroxymethyl)phosphochloride", "Tetrahydroxymethylphosphonium chloride", "Pyroset TKC", "NSC 30698", "T 0670"], "SMILES": "[P+](CO)(CO)(CO)CO.[Cl-]", "physical_data": {"Molecular Weight": "", "Molecular Formula": "C4H12O4P.Cl", "Melting Point": "154 \u00b0C", "Density": "1.341 g/cm\u00b3"}}