{"cas_no": "124-76-5", "cn_name": "\u5f02\u9f99\u8111", "en_name": ["Isoborneol", "Bicyclo[2.2.1]heptan-2-ol, 1,7,7-trimethyl-, (1R,2R,4R)-rel-", "Isoborneol", "Bicyclo[2.2.1]heptan-2-ol, 1,7,7-trimethyl-, exo-", "rel-(1R,2R,4R)-1,7,7-Trimethylbicyclo[2.2.1]heptan-2-ol", "Isobornyl alcohol", "exo-2-Hydroxy-1,7,7-trimethylnorbornane", "2-exo-Bornyl alcohol", "(\u00b1)-Isoborneol", "dl-Isoborneol", "DL-Isoborneol", "NSC 26350"], "SMILES": "CC12C(C)(C)C(CC1O)CC2", "physical_data": {"Molecular Weight": "154.25", "Molecular Formula": "C10H18O", "Boiling Point": "76-77 \u00b0C @ Press: 3 Torr", "Melting Point": "213 \u00b0C", "Density": "0.9867 g/cm\u00b3 @ Temp: 20 \u00b0C"}}