{"cas_no": "124-73-2", "cn_name": "1,2-\u4e8c\u6eb4\u56db\u6c1f\u4e59\u70f7", "en_name": ["1,2-Dibromo-1,1,2,2-tetrafluoroethane", "Ethane, 1,2-dibromo-1,1,2,2-tetrafluoro-", "Ethane, 1,2-dibromotetrafluoro-", "1,2-Dibromo-1,1,2,2-tetrafluoroethane", "Freon 114B2", "F 114B2", "Halon 2402", "1,2-Dibromoperfluoroethane", "sym-Dibromotetrafluoroethane", "R 114B2", "Khladon 114B2", "Fluobrene", "FC 114B2", "Daiflon 114B2", "sym-1,2-Dibromo-1,1,2,2-tetrafluoroethane", "Halon 114B2", "1,2-Dibromotetrafluoroethane", "H 2402"], "SMILES": "C(C(Br)(F)F)(Br)(F)F", "physical_data": {"Molecular Weight": "259.82", "Molecular Formula": "C2Br2F4", "Boiling Point": "47.3 \u00b0C", "Melting Point": "-112 \u00b0C", "Density": "2.18 g/cm\u00b3 @ Temp: 21.1 \u00b0C"}}