{"cas_no": "124-11-8", "cn_name": "\u58ec\u70ef", "en_name": ["1-Nonene", "1-Nonene", "n-Non-1-ene", "\u03b1-Nonene", "1-n-Nonene", "NSC 73961", "1-Nonylene"], "SMILES": "C(CCCC)CCC=C", "physical_data": {"Molecular Weight": "126.24", "Molecular Formula": "C9H18", "Boiling Point": "146.9 \u00b0C", "Melting Point": "-81.3 \u00b0C", "Density": "0.7433 g/cm\u00b3"}}