{"cas_no": "124-02-7", "cn_name": "\u4e8c\u70ef\u4e19\u57fa\u80fa", "en_name": ["Diallylamine", "2-Propen-1-amine, N-2-propen-1-yl-", "Diallylamine", "2-Propen-1-amine, N-2-propenyl-", "N-2-Propen-1-yl-2-propen-1-amine", "Di-2-propenylamine", "N-2-propenyl-2-propen-1-amine", "NSC 20948", "Bisallylamine", "N,N-Bis(allyl)amine", "Bis-allylamine"], "SMILES": "N(CC=C)CC=C", "physical_data": {"Molecular Weight": "97.16", "Molecular Formula": "C6H11N", "Boiling Point": "111 \u00b0C", "Melting Point": "-88.4 \u00b0C", "Density": "0.7889 g/cm\u00b3 @ Temp: 20 \u00b0C"}}