{"cas_no": "124-40-3", "cn_name": "\u4e8c\u7532\u80fa", "en_name": ["Dimethylamine", "Methanamine, N-methyl-", "Dimethylamine", "N-Methylmethanamine", "N,N-Dimethylamine", "NSC 8650"], "SMILES": "N(C)C", "physical_data": {"Molecular Weight": "45.08", "Molecular Formula": "C2H7N", "Boiling Point": "6.8 \u00b0C", "Melting Point": "-92.2 \u00b0C", "Density": "0.6804 g/cm\u00b3 @ Temp: 0 \u00b0C"}}