{"cas_no": "124-12-9", "cn_name": "\u6b63\u8f9b\u8148", "en_name": ["Octanenitrile", "Octanenitrile", "Arneel 8", "Caprylonitrile", "Octanonitrile", "n-Octanonitrile", "1-Cyanoheptane", "n-Heptyl cyanide", "Heptylcyanide", "NSC 5513", "Aldinyle 3884 Synarome"], "SMILES": "C(CCCC)CCC#N", "physical_data": {"Molecular Weight": "125.21", "Molecular Formula": "C8H15N", "Boiling Point": "205.2 \u00b0C", "Melting Point": "-45.6 \u00b0C", "Density": "0.82862 g/cm\u00b3 @ Temp: 0 \u00b0C"}}