{"cas_no": "124-87-8", "cn_name": "\u82e6\u6bd2\u6d46\u679c[\u6728\u9632\u5df2\u5c5e]", "en_name": ["Picrotoxin", "3,6-Methano-8H-1,5,7-trioxacyclopenta[ij]cycloprop[a]azulene-4,8(3H)-dione, hexahydro-2a-hydroxy-9-(1-hydroxy-1-methylethyl)-8b-methyl-, (1aR,2aR,3S,6R,6aS,8aS,8bR,9S)-, compd. with (1aR,2aR,3S,6R,6aS,8aS,8bR,9R)-hexahydro-2a-hydroxy-8b-methyl-9-(1-methylethenyl)-3,6-methano-8H-1,5,7-trioxacyclopenta[ij]cycloprop[a]azulene-4,8(3H)-dione (1:1)", "3,6-Methano-8H-1,5,7-trioxacyclopenta[ij]cycloprop[a]azulene-4,8(3H)-dione, hexahydro-2a-hydroxy-9-(1-hydroxy-1-methylethyl)-8b-methyl-, [1aR-(1a\u03b1,2a\u03b2,3\u03b2,6\u03b2,6a\u03b2,8aS*,8b\u03b2,9S*)]-, compd. with [1aR-(1a\u03b1,2a\u03b2,3\u03b2,6\u03b2,6a\u03b2,8aS*,8b\u03b2,9R*)]-hexahydro-2a-hydroxy-8b-methyl-9-(1-methylethenyl)-3,6-methano-8H-1,5,7-trioxacyclopenta[ij]cycloprop[a]azulene-4,8(3H)-dione (1:1)", "3,6-Methano-8H-1,5,7-trioxacyclopenta[ij]cycloprop[a]azulene-4,8(3H)-dione, hexahydro-2a-hydroxy-8b-methyl-9-(1-methylethenyl)-, [1aR-(1a\u03b1,2a\u03b2,3\u03b2,6\u03b2,6a\u03b2,8aS*,8b\u03b2,9R*)]-, compd. with [1aR-(1a\u03b1,2a\u03b2,3\u03b2,6\u03b2,6a\u03b2,8aS*,8b\u03b2,9S*)]-hexahydro-2a-hydroxy-9-(1-hydroxy-1-methylethyl)-8b-methyl-3,6-methano-8H-1,5,7-trioxacyclopenta[ij]cycloprop[a]azulene-4,8(3H)-dione (1:1)", "3,6-Methano-8H-1,5,7-trioxacyclopenta[ij]cycloprop[a]azulene-4,8(3H)-dione, hexahydro-2a-hydroxy-8b-methyl-9-(1-methylethenyl)-, (1aR,2aR,3S,6R,6aS,8aS,8bR,9R)-, compd. with (1aR,2aR,3S,6R,6aS,8aS,8bR,9S)-hexahydro-2a-hydroxy-9-(1-hydroxy-1-methylethyl)-8b-methyl-3,6-methano-8H-1,5,7-trioxacyclopenta[ij]cycloprop[a]azulene-4,8(3H)-dione (1:1)", "Cocculin", "Picrotoxin", "Fish berry", "NSC 403139", "Picrotoxinum", "MeSH ID: D010852"], "SMILES": "CC12C34C(O3)CC1(O)C5C(C(C)=C)C(C2OC4=O)OC5=O.CC12C34C(O3)CC1(O)C5C(C(C)(C)O)C(C2OC4=O)OC5=O", "physical_data": {"Molecular Weight": "", "Molecular Formula": "C15H18O7.C15H16O6", "Melting Point": "203 \u00b0C"}}