{"cas_no": "124-03-8", "cn_name": "\u5341\u516d\u70f7\u57fa\u4e8c\u7532\u57fa\u4e59\u57fa\u6eb4\u5316\u94f5", "en_name": ["Cetyldimethylethylammonium bromide", "1-Hexadecanaminium, N-ethyl-N,N-dimethyl-, bromide (1:1)", "Ammonium, ethylhexadecyldimethyl-, bromide", "Ethylhexadecyldimethylammonium bromide", "1-Hexadecanaminium, N-ethyl-N,N-dimethyl-, bromide", "Ammonyx DME", "Bretol", "CDA", "Cetyldimethylethylammonium bromide", "Cetylethyldimethylammonium bromide", "Dimethylethylhexadecylammonium bromide", "Ethyl cetab", "Radiol germicidal solution", "Quaternium 17", "N-Ethyl-N,N-dimethyl-N-hexadecylammonium bromide", "Cetethyldimonium bromide", "Zap-Oglobin II"], "SMILES": "C(CCCCCCCCCCCCCC)C[N+](CC)(C)C.[Br-]", "physical_data": {"Molecular Weight": "", "Molecular Formula": "C20H44N.Br", "Melting Point": "182 \u00b0C"}}