{"cas_no": "124-10-7", "cn_name": "\u4e94\u7532\u57fa\u544b\u5583\u6eb4\u9178\u916f", "en_name": ["Methyl myristate", "Tetradecanoic acid, methyl ester", "Myristic acid, methyl ester", "Metholeneat 2495", "Methyl myristate", "Methyl tetradecanoate", "Uniphat A50", "Methyl n-tetradecanoate", "Pastell M 14", "NSC 5029", "Emery 2214"], "SMILES": "C(CCC(OC)=O)CCCCCCCCCC", "physical_data": {"Molecular Weight": "242.40", "Molecular Formula": "C15H30O2", "Boiling Point": "295 \u00b0C", "Melting Point": "19 \u00b0C", "Density": "0.8671 g/cm\u00b3 @ Temp: 20 \u00b0C"}}