{"cas_no": "124-09-4", "cn_name": "\u5df1\u4e8c\u80fa", "en_name": ["Hexamethylenediamine", "1,6-Hexanediamine", "1,6-Diaminohexane", "Hexamethylenediamine", "HMDA", "1,6-Hexylenediamine", "1,6-Diamino-n-hexane", "Hexylenediamine", "\u03b1,\u03c9-Hexanediamine", "V 1", "Hi Perm", "NSC 9257", "80HMD", "Advancure", "RT Advancure HD", "Dytek 70", "6-Aminohexylamine", "Dytek HMD"], "SMILES": "C(CCCN)CCN", "physical_data": {"Molecular Weight": "116.20", "Molecular Formula": "C6H16N2", "Boiling Point": "205 \u00b0C", "Melting Point": "42 \u00b0C", "Density": "0.93 g/cm\u00b3"}}