{"cas_no": "124-70-9", "cn_name": "\u7532\u57fa\u4e59\u70ef\u57fa\u4e8c\u6c2f\u7845\u70f7", "en_name": ["Methylvinyldichlorosilane", "Silane, dichloroethenylmethyl-", "Silane, dichloromethylvinyl-", "Dichloroethenylmethylsilane", "Dichloromethylvinylsilane", "Methylvinyldichlorosilane", "Vinylmethyldichlorosilane", "Methyldichlorovinylsilane", "Dichlorovinylmethylsilane", "Methylethenyldichlorosilane", "MVS", "MVS (silane)", "NSC 96610", "LS 190"], "SMILES": "[Si](C=C)(C)(Cl)Cl", "physical_data": {"Molecular Weight": "141.07", "Molecular Formula": "C3H6Cl2Si", "Boiling Point": "92.5 \u00b0C", "Melting Point": "-78 \u00b0C", "Density": "1.087 g/cm\u00b3"}}