{"cas_no": "124-25-4", "cn_name": "\u5341\u56db\u919b\u4e09\u805a\u7269", "en_name": ["Tetradecanal", "Tetradecanal", "Myristaldehyde", "n-Tetradecyl aldehyde", "Myristylaldehyde", "Tetradecyl aldehyde", "n-Tetradecanal", "Tetradecanaldehyde", "1-Tetradecanal", "Myristinaldehyde", "NSC 66435", "Aldehyde peche (C14)", "Peach aldehyde (C14)"], "SMILES": "C(CCCCCCC)CCCCCC=O", "physical_data": {"Molecular Weight": "212.37", "Molecular Formula": "C14H28O", "Boiling Point": "166 \u00b0C @ Press: 24 Torr", "Melting Point": "26-27 \u00b0C"}}