{"cas_no": "124-17-4", "cn_name": "\u4e8c\u4e59\u4e8c\u9187\u4e01\u919a\u918b\u9178\u916f", "en_name": ["Diethylene glycol monobutyl ether acetate", "Ethanol, 2-(2-butoxyethoxy)-, 1-acetate", "Ethanol, 2-(2-butoxyethoxy)-, acetate", "2-(2-Butoxyethoxy)ethyl acetate", "Butyl carbitol acetate", "Diethylene glycol monobutyl ether acetate", "Diglycol monobutyl ether acetate", "Diethylene glycol butyl ether acetate", "Butyl diethylene glycol acetate", "Butoxyethoxyethyl acetate", "Hykleen 340", "DE Acetate", "2-(2-n-Butoxyethoxy)ethyl acetate", "Butyl diglycol acetate", "Butasol V", "NSC 5175", "NSC 6570", "Diethylene glycol monobutyl acetate", "2-(2-Butoxyethoxy)ethanol acetate", "ABG", "Diethylene glycol mono-n-butyl ether acetate", "Diethylene glycol n-butyl ether acetate", "CELTOL BDGAC", "Butysenol 20 acetate"], "SMILES": "C(OCCOCCCC)COC(C)=O", "physical_data": {"Molecular Weight": "204.26", "Molecular Formula": "C10H20O4", "Boiling Point": "245 \u00b0C @ Press: 760 Torr", "Melting Point": "-32 \u00b0C", "Density": "0.985 g/cm\u00b3 @ Temp: 20 \u00b0C"}}