{"cas_no": "124-83-4", "cn_name": "D-\u6a1f\u8111\u9178", "en_name": ["D-Camphoric acid", "1,3-Cyclopentanedicarboxylic acid, 1,2,2-trimethyl-, (1R,3S)-", "Camphoric acid, (1R,3S)-(+)-", "1,3-Cyclopentanedicarboxylic acid, 1,2,2-trimethyl-, (1R-cis)-", "(1R,3S)-1,2,2-Trimethyl-1,3-cyclopentanedicarboxylic acid", "d-Camphoric acid", "Dextrocamphoric acid", "d-(+)-Camphoric acid", "(+)-Camphoric acid", "(1R)-cis-Camphoric acid", "D-Camphoric acid", "(+)-(1R,3S)-1,2,2-trimethyl-1,3-cyclopentanedicarboxylic acid", "(1R,3S)-Camphoric acid", "D-(+)-Camphoric acid", "(1R,3S)-(+)-cis-1,2,2-Trimethylcyclopentane-1,3-dicarboxylic acid", "(1R,3S)-1,2,2-Trimethylcyclopentane-1,3-dicarboxylic acid", "(1R,3S)-(+)-Camphoric acid"], "SMILES": "C(O)(=O)C1(C)C(C)(C)C(C(O)=O)CC1", "physical_data": {"Molecular Weight": "200.23", "Molecular Formula": "C10H16O4", "Melting Point": "189.1 \u00b0C"}}