{"cas_no": "124-07-2", "cn_name": "\u8f9b\u9178", "en_name": ["Octanoic acid", "Octanoic acid", "Caprylic acid", "n-Caprylic acid", "Neo-Fat 8", "1-Heptanecarboxylic acid", "n-Octoic acid", "Octylic acid", "n-Octylic acid", "n-Octanoic acid", "Lunac 8-95", "NAA 82", "Prifac 2901", "Lunac 8-98", "Neo-Fat 8S", "Kortacid 0899", "Emery 657", "NSC 5024", "Edenor C 8-98-100", "Cg 100 (fatty acid)", "Cg 100", "Edenor 8-99MY", "Edenor C 8-99MY", "MCFA 8S", "C 8-99K"], "SMILES": "C(CCCCC)CC(O)=O", "physical_data": {"Molecular Weight": "144.21", "Molecular Formula": "C8H16O2", "Boiling Point": "239.7 \u00b0C", "Melting Point": "16.7 \u00b0C", "Density": "0.910 g/cm\u00b3 @ Temp: 20 \u00b0C"}}