{"cas_no": "124-38-9", "cn_name": "\u4e8c\u6c27\u5316\u78b3", "en_name": ["Carbon dioxide", "Carbon dioxide", "Carbonic acid gas", "Carbonic anhydride", "Dry ice", "Carbon oxide (CO2)", "R 744", "Carbonic acid anhydride", "Khladon 744", "Carbon-12 dioxide", "Carbon-12C dioxide-16O2", "EN 439C1", "Baros Effervescent Granules", "N 45 (gas)", "N 45", "CO2", "Gost 8050-85", "EOST 8050-85", "supercritical CO2"], "SMILES": "C(=O)=O", "physical_data": {"Molecular Weight": "44.01", "Molecular Formula": "CO2", "Boiling Point": "-78.5 \u00b0C", "Melting Point": "-56.6 \u00b0C", "Density": "1.2 x 10<sup>-3</sup>-0.2100 g/cm\u00b3"}}