{"cas_no": "124-65-2", "cn_name": "\u4e8c\u7532\u80c2\u9178\u94a0", "en_name": ["Sodium cacodylate", "Arsinic acid, As,As-dimethyl-, sodium salt (1:1)", "Arsine oxide, hydroxydimethyl-, sodium salt", "Arsinic acid, dimethyl-, sodium salt", "Sodium, [(dimethylarsino)oxy]-, As-oxide", "Arsecodile", "Arsicodile", "Arsycodile", "Hydroxydimethylarsine oxide sodium salt", "Sodium cacodylate", "Cacodylic acid sodium salt", "Sodium dimethylarsinate", "Alkarsodyl", "Chemaid", "Cacodylic acid sodium salt (1:1)", "Cacodylate sodium"], "SMILES": "[As](C)(C)(=O)O.[Na]", "physical_data": {"Molecular Weight": "", "Molecular Formula": "C2H7AsO2.Na", "Melting Point": "200 \u00b0C"}}