{"cas_no": "124-19-6", "cn_name": "\u58ec\u919b", "en_name": ["Nonanal", "Nonanal", "Nonanaldehyde", "Nonaldehyde", "Nonylic aldehyde", "Pelargonaldehyde", "Pelargonic aldehyde", "n-Nonanal", "n-Nonylaldehyde", "Nonanoic aldehyde", "Nonylaldehyde", "Aldehyde C 9", "NSC 5518", "Aldehyde C 09"], "SMILES": "C(CCCC=O)CCCC", "physical_data": {"Molecular Weight": "142.24", "Molecular Formula": "C9H18O", "Boiling Point": "191 \u00b0C", "Melting Point": "94-95 \u00b0C", "Density": "0.8264 g/cm\u00b3 @ Temp: 22 \u00b0C"}}