{"cas_no": "124-04-9", "cn_name": "\u5df1\u4e8c\u9178", "en_name": ["Adipic acid", "Hexanedioic acid", "Adipic acid", "Adipinic acid", "1,4-Butanedicarboxylic acid", "1,6-Hexanedioic acid", "Acifloctin", "Acinetten", "Adilactetten", "Asapic", "Inipol DS", "E 355", "NSC 7622", "NSC 87836", "Rhodiacid AA", "Edenol 1208", "HA 26", "A 108267"], "SMILES": "C(CCC(O)=O)CC(O)=O", "physical_data": {"Molecular Weight": "146.14", "Molecular Formula": "C6H10O4", "Boiling Point": "338 \u00b0C", "Melting Point": "152 \u00b0C", "Density": "1.360 g/cm\u00b3 @ Temp: 25 \u00b0C"}}