{"cas_no": "124-30-1", "cn_name": "\u5341\u516b\u80fa", "en_name": ["Octadecylamine", "1-Octadecanamine", "Octadecylamine", "Adogenen 142", "Alamine 7", "n-Octadecylamine", "Stearylamine", "n-Stearylamine", "Alamine 7D", "1-Octadecylamine", "Kemamine P 990", "1-Aminooctadecane", "Armofilm", "Armeen 18D", "Nissan Amine AB", "Stearamine", "Crodamine 1.18D", "Amine AB", "Monooctadecylamine", "Farmin 80", "Armeen 18", "ODA", "Genamin SH 100", "Kemamine P 990D", "Amine 18D", "Armeen 18D-FLK", "NSC 9857", "18D", "Lipomin 18D", "Farmin 80S", "Farmin 86V", "Farmin 80V", "Lipomin HTD"], "SMILES": "C(CCCCCCCCC)CCCCCCCCN", "physical_data": {"Molecular Weight": "269.51", "Molecular Formula": "C18H39N", "Boiling Point": "346.8 \u00b0C @ Press: 760 Torr", "Melting Point": "52.9 \u00b0C", "Density": "0.8618 g/cm\u00b3 @ Temp: 20 \u00b0C"}}