{"cas_no": "124-68-5", "cn_name": "2-\u6c28\u57fa-2-\u7532\u57fa-1-\u4e19\u9187", "en_name": ["2-Amino-2-methyl-1-propanol", "1-Propanol, 2-amino-2-methyl-", "2-Amino-2-methyl-1-propanol", "\u03b2-Aminoisobutanol", "2-Amino-2-methylpropanol", "Isobutanol-2-amine", "2-Methyl-2-aminopropanol", "2-Aminoisobutanol", "1,1-Dimethyl-2-hydroxyethylamine", "2-Methyl-2-amino-1-propanol", "2-Amino-2,2-dimethylethanol", "Hydroxy-tert-butylamine", "2-Hydroxymethyl-2-propylamine", "2-Amino-1-hydroxy-2-methylpropane", "AMP Regular", "AMP 95", "2,2-Dimethylethanolamine", "2-Hydroxy-1,1-dimethylethylamine", "AMP", "AMP (thinner)", "KV 5088", "Corrguard 75", "AMP 75", "NSC 441", "AMP 90 (amine)", "AMP 90", "Pamabron", "AMP 100", "1-Hydroxy-2-methylpropan-2-amine", "AMP-ULTRA PC 2000", "AMP-Ultra PC 1000", "AMP buffer", "Dolapix A 88", "CE 64", "AMP-Ultra PC", "produkt kv 5088", "AMP 95 (dispersant)"], "SMILES": "C(CO)(C)(C)N", "physical_data": {"Molecular Weight": "89.14", "Molecular Formula": "C4H11NO", "Boiling Point": "165 \u00b0C @ Press: 760 Torr", "Melting Point": "31 \u00b0C", "Density": "0.934 g/cm\u00b3 @ Temp: 20 \u00b0C"}}