{"cas_no": "124027-58-3", "cn_name": "\u84bf\u8349\u915aA", "en_name": ["Kobophenol A", "[3,4\u2032-Bibenzofuran]-6,6\u2032-diol, 3\u2032-(3,5-dihydroxyphenyl)-4-[(2S,3S,4R,5S)-4-(3,5-dihydroxyphenyl)tetrahydro-2,5-bis(4-hydroxyphenyl)-3-furanyl]-2,2\u2032,3,3\u2032-tetrahydro-2,2\u2032-bis(4-hydroxyphenyl)-, (2S,2\u2032R,3S,3\u2032R)-", "[3,4\u2032-Bibenzofuran]-6,6\u2032-diol, 3\u2032-(3,5-dihydroxyphenyl)-4-[4-(3,5-dihydroxyphenyl)tetrahydro-2,5-bis(4-hydroxyphenyl)-3-furanyl]-2,2\u2032,3,3\u2032-tetrahydro-2,2\u2032-bis(4-hydroxyphenyl)-, [2S-[2\u03b1,3\u03b1[2R*,3R*(2\u2032S*,3\u2032S*)],4\u03b1,5\u03b2]]-", "(2S,2\u2032R,3S,3\u2032R)-3\u2032-(3,5-Dihydroxyphenyl)-4-[(2S,3S,4R,5S)-4-(3,5-dihydroxyphenyl)tetrahydro-2,5-bis(4-hydroxyphenyl)-3-furanyl]-2,2\u2032,3,3\u2032-tetrahydro-2,2\u2032-bis(4-hydroxyphenyl)[3,4\u2032-bibenzofuran]-6,6\u2032-diol", "Kobophenol A"], "SMILES": "OC1=CC(C2C3=C(C=C(O)C=C3OC2C4=CC=C(O)C=C4)C5C(C(OC5C6=CC=C(O)C=C6)C7=CC=C(O)C=C7)C8=CC(O)=CC(O)=C8)=C9C(C(OC9=C1)C%10=CC=C(O)C=C%10)C%11=CC(O)=CC(O)=C%11", "physical_data": {"Molecular Weight": "924.94", "Molecular Formula": "C56H44O13", "Melting Point": "233.5-235 \u00b0C (decomp)"}}