{"cas_no": "124004-75-7", "cn_name": "2,2,2,2'-\u56db\u6c1f\u82ef\u4e59\u916e", "en_name": ["2,2,2-Trifluoro-1-(2-fluorophenyl)ethanone", "Ethanone, 2,2,2-trifluoro-1-(2-fluorophenyl)-", "2,2,2-Trifluoro-1-(2-fluorophenyl)ethanone", "2-Fluorophenyl trifluoromethyl ketone", "2,2,2-Trifluoro-1-(2-fluorophenyl)ethan-1-one"], "SMILES": "C(C(F)(F)F)(=O)C1=C(F)C=CC=C1", "physical_data": {"Molecular Weight": "192.11", "Molecular Formula": "C8H4F4O", "Boiling Point": "40-42 \u00b0C @ Press: 0.069 Torr"}}