{"cas_no": "124027-47-0", "cn_name": "\u7ef4\u5416\u5576", "en_name": ["Velnacrine", "1-Acridinol, 9-amino-1,2,3,4-tetrahydro-", "9-Amino-1,2,3,4-tetrahydro-1-acridinol", "9-Amino-1,2,3,4-tetrahydroacridin-1-ol", "1-Hydroxytacrine", "Velnacrine", "(\u00b1)-9-Amino-1,2,3,4-tetrahydroacridin-1-ol", "Hydroxytacrine"], "SMILES": "NC1=C2C(=NC=3C1=CC=CC3)CCCC2O", "physical_data": {"Molecular Weight": "214.26", "Molecular Formula": "C13H14N2O", "Melting Point": "245 \u00b0C"}}