{"cas_no": "1241-94-7", "cn_name": "\u78f7\u9178\u4e8c\u82ef\u57fa\u5f02\u8f9b\u916f", "en_name": ["2-Ethylhexyl diphenyl phosphate", "Phosphoric acid, 2-ethylhexyl diphenyl ester", "Diphenyl 2-ethylhexyl phosphate", "2-Ethylhexyl diphenyl phosphate", "Santicizer 141", "Octicizer", "Phosflex 362", "Disflamoll DPO", "Phosflex 342", "EHDPP"], "SMILES": "P(OC1=CC=CC=C1)(OC2=CC=CC=C2)(OCC(CCCC)CC)=O", "physical_data": {"Molecular Weight": "362.40", "Molecular Formula": "C20H27O4P", "Boiling Point": "375 \u00b0C", "Melting Point": "-30 \u00b0C", "Density": "1.090 g/cm\u00b3 @ Temp: 25 \u00b0C"}}