{"cas_no": "124172-53-8", "cn_name": "\u5149\u7a33\u5b9a\u52424050", "en_name": ["Uvinul 4050H", "Formamide, N,N\u2032-1,6-hexanediylbis[N-(2,2,6,6-tetramethyl-4-piperidinyl)-", "N,N\u2032-1,6-Hexanediylbis[N-(2,2,6,6-tetramethyl-4-piperidinyl)formamide]", "N,N\u2032-Bis(2,2,6,6-tetramethylpiperidin-4-yl)-N,N\u2032-diformyl-1,6-diaminohexane", "Uvinul 4050H", "N,N\u2032-Bis(formyl)-N,N\u2032-bis(2,2,6,6-tetramethyl-4-piperidyl)-1,6-hexanediamine", "Uvinul FK 4145", "4050H", "1,6-Hexamethylenebis[N-formyl-N-(2,2,6,6-tetramethylpiperidin-4-yl)amine]", "N,N\u2032-Bis(formyl)-N,N\u2032-bis(2,2,6,6-tetramethyl-4-piperidyl)-1,6-hexamethylenediamine", "N,N\u2032-Bisformyl-N,N\u2032-bis(2,2,6,6-tetramethyl-4-piperidyl)hexamethylenediamine", "N,N\u2032-Bis(2,2,6,6-tetramethyl-4-piperidyl)-N,N\u2032-diformylhexamethylenediamine", "Uvinul 4050", "Uvinul 4050FF", "UV 4050", "Uvinyl 4050FF"], "SMILES": "N(CCCCCCN(C=O)C1CC(C)(C)NC(C)(C)C1)(C=O)C2CC(C)(C)NC(C)(C)C2", "physical_data": {"Molecular Weight": "450.70", "Molecular Formula": "C26H50N4O2", "Melting Point": "155 \u00b0C"}}