{"cas_no": "1242137-16-1", "cn_name": "4-[3-[4-\u6c30\u57fa-3-(\u4e09\u6c1f\u7532\u57fa)\u82ef\u57fa]-5,5-\u4e8c\u7532\u57fa-4-\u6c27\u4ee3-2-\u786b\u4ee3-1-\u54aa\u5511\u70f7\u57fa]-2-\u6c1f\u82ef\u7532\u9170\u80fa", "en_name": ["4-[3-[4-Cyano-3-(trifluoromethyl)phenyl]-5,5-dimethyl-4-oxo-2-thioxo-1-imidazolidinyl]-2-fluorobenzamide", "Benzamide, 4-[3-[4-cyano-3-(trifluoromethyl)phenyl]-5,5-dimethyl-4-oxo-2-thioxo-1-imidazolidinyl]-2-fluoro-", "4-[3-[4-Cyano-3-(trifluoromethyl)phenyl]-5,5-dimethyl-4-oxo-2-thioxo-1-imidazolidinyl]-2-fluorobenzamide", "N-Desmethylenzalutamide"], "SMILES": "S=C1N(C(C)(C)C(=O)N1C2=CC(C(F)(F)F)=C(C#N)C=C2)C3=CC(F)=C(C(N)=O)C=C3", "physical_data": {"Molecular Weight": "450.41", "Molecular Formula": "C20H14F4N4O2S", "Melting Point": "231-233 \u00b0C"}}