{"cas_no": "124236-29-9", "cn_name": "(E)-N-\u4e59\u57fa-N-(\u90bb\u7532\u82ef\u57fa)\u4e01-2-\u70ef\u9170\u80fa", "en_name": ["(2E)-N-Ethyl-N-(2-methylphenyl)-2-butenamide", "2-Butenamide, N-ethyl-N-(2-methylphenyl)-, (2E)-", "2-Butenamide, N-ethyl-N-(2-methylphenyl)-, (E)-", "(2E)-N-Ethyl-N-(2-methylphenyl)-2-butenamide", "trans-Crotamiton"], "SMILES": "N(C(C=CC)=O)(CC)C1=C(C)C=CC=C1", "physical_data": {"Molecular Weight": "203.28", "Molecular Formula": "C13H17NO", "Boiling Point": "153-155 \u00b0C @ Press: 13 Torr"}}