{"cas_no": "12427-38-2", "cn_name": "\u4ee3\u68ee\u9530", "en_name": ["Maneb", "Manganese, [N-[2-[(dithiocarboxy)amino]ethyl]carbamodithioato(2-)-\u03baS,\u03baS\u2032]-", "Manganese, [ethylenebis[dithiocarbamato]]-", "Manganese, [[1,2-ethanediylbis[carbamodithioato]](2-)]-", "Manganese, [[2-[(dithiocarboxy)amino]ethyl]carbamodithioato(2-)-\u03baS,\u03baS\u2032]-", "Carbamodithioic acid, 1,2-ethanediylbis-, manganese complex", "[N-[2-[(Dithiocarboxy)amino]ethyl]carbamodithioato(2-)-\u03baS,\u03baS\u2032]manganese", "Dithane M 22", "Maneb", "Manzate", "F 10", "Manzate D", "Polyram M", "Nereb", "Manesan", "Trimangol", "Carbamodithioic acid, 1,2-ethanediylbis-, manganese(2+) salt (1:1)", "1,2-Ethylenediylbis(carbamodithioato)manganese", "Rhodianebe", "Trimangol 80", "AAmangan", "F 10 (pesticide)", "Ethylenebis[dithiocarbamic acid] manganous salt", "Manganous ethylenebis[dithiocarbamate]", "Maneb 80", "Nespor", "Plantifog 160M", "Manex", "Agrox flowable", "Tritogol M", "Agrox N-M", "Manebgan", "NM Drill Box", "ZZ-Maneb Col", "Graneor", "Saneb M 22", "MeSH ID: D008344"], "SMILES": "N(CCNC(=S)[S-])C=1[S-][Mn+2][S]1", "physical_data": {"Molecular Weight": "", "Molecular Formula": "C4H6MnN2S4", "Melting Point": "192-204 \u00b0C (decomp)", "Density": "1.92 g/cm\u00b3 @ Temp: 25 \u00b0C"}}