{"cas_no": "12427-42-8", "cn_name": "\u4e8c\u8302\u94b4\u516d\u6c1f\u78f7\u9178\u76d0", "en_name": ["Cobaltocenium, hexafluorophosphate(1-) (1:1)", "Cobaltocenium, hexafluorophosphate(1-) (1:1)", "Cobalt(1+), di-\u03c0-cyclopentadienyl-, hexafluorophosphate(1-)", "Cobaltocenium, hexafluorophosphate(1-)", "Dicyclopentadienylcobalt hexafluorophosphate", "Phosphate(1-), hexafluoro-, di-\u03c0-cyclopentadienylcobalt(1+)", "Phosphate(1-), hexafluoro-, cobaltocenium", "Cobaltocenium hexafluorophosphate", "Bis(cyclopentadienyl)cobalt(1+) hexafluorophosphate(1-)", "Dicyclopentadienylcobalt(1+) hexafluorophosphate(1-)", "Bis(cyclopentadienyl)cobalt(1+) hexafluorophosphate", "Bis(\u03b75-cyclopentadienyl)cobalt(1+) hexafluorophosphate", "Bis(cyclopentadienyl)cobalt(III) hexafluorophosphate"], "SMILES": "[Co+3]12345678([CH]=9[CH]1=[CH]2[CH-]3[CH]49)[CH-]%10[CH]5=[CH]6[CH]7=[CH]8%10.[P+5]([F-])([F-])([F-])([F-])([F-])[F-]", "physical_data": {"Molecular Weight": "", "Molecular Formula": "C10H10Co.F6P", "Melting Point": "300 \u00b0C"}}