{"cas_no": "124379-29-9", "cn_name": "4-(3,4-\u4e8c\u6c2f\u82ef)-3,4-\u4e8c\u6c22-2H-\u8418-1-\u916e", "en_name": ["(S)-4-(3,4-Dichlorophenyl)-1-tetralone", "1(2H)-Naphthalenone, 4-(3,4-dichlorophenyl)-3,4-dihydro-, (4S)-", "1(2H)-Naphthalenone, 4-(3,4-dichlorophenyl)-3,4-dihydro-, (S)-", "(4S)-4-(3,4-Dichlorophenyl)-3,4-dihydro-1(2H)-naphthalenone", "(4S)-(3,4-Dichlorophenyl)-3,4-dihydro-1(2H)-naphthalenone", "(S)-4-(3,4-Dichlorophenyl)-1-tetralone", "(S)-4-(3,4-Dichlorophenyl)-3,4-dihydro-1-naphthalenone", "(4S)-4-(3,4-Dichlorophenyl)-3,4-dihydro-2H-naphthalen-1-one", "(4S)-4-(3,4-Dichlorophenyl)-3,4-dihydronaphthalen-1(2H)-one"], "SMILES": "O=C1C=2C(C(CC1)C3=CC(Cl)=C(Cl)C=C3)=CC=CC2", "physical_data": {"Molecular Weight": "291.17", "Molecular Formula": "C16H12Cl2O", "Melting Point": "83-85 \u00b0C"}}