{"cas_no": "124432-63-9", "cn_name": "3-\u6eb4-2-\u7532\u6c27\u57fa-5-\u4e09\u6c1f\u7532\u57fa\u5421\u5576", "en_name": ["3-Bromo-2-methoxy-5-(trifluoromethyl)pyridine", "Pyridine, 3-bromo-2-methoxy-5-(trifluoromethyl)-", "3-Bromo-2-methoxy-5-(trifluoromethyl)pyridine", "3-Bromo-2-methoxy-5-trifluoromethylpyridine"], "SMILES": "C(F)(F)(F)C=1C=C(Br)C(OC)=NC1", "physical_data": {"Molecular Weight": "256.02", "Molecular Formula": "C7H5BrF3NO", "Boiling Point": "86-88 \u00b0C @ Press: 21 Torr"}}