{"cas_no": "1245649-46-0", "cn_name": "\u4e01\u57fa-3,5-\u4e8c\u6c1f\u82ef", "en_name": ["1-Butyl-3,5-difluorobenzene", "Benzene, 1-butyl-3,5-difluoro-", "1-Butyl-3,5-difluorobenzene"], "SMILES": "C(CCC)C1=CC(F)=CC(F)=C1", "physical_data": {"Molecular Weight": "170.20", "Molecular Formula": "C10H12F2", "Boiling Point": "90 \u00b0C @ Press: 35 mmHg"}}