{"cas_no": "1245-15-4", "cn_name": "\u680e\u7cbe-3,7,3',4'-\u56db\u7532\u919a", "en_name": ["5-Hydroxy-3,7,3\u2032,4\u2032-tetramethoxyflavone", "4H-1-Benzopyran-4-one, 2-(3,4-dimethoxyphenyl)-5-hydroxy-3,7-dimethoxy-", "Flavone, 5-hydroxy-3,3\u2032,4\u2032,7-tetramethoxy-", "2-(3,4-Dimethoxyphenyl)-5-hydroxy-3,7-dimethoxy-4H-1-benzopyran-4-one", "Retusin (Ariocarpus)", "Retusine", "Quercetin 3,7,3\u2032,4\u2032-tetramethyl ether", "Retusin", "3,3\u2032,4\u2032,7-Tetramethylquercetin", "5-Hydroxy-3,3\u2032,4\u2032,7-tetramethoxyflavone", "5-Hydroxy-3,7,3\u2032,4\u2032-tetramethoxyflavone", "NSC 61837", "NSC 618937", "Quercetin 3,3\u2032,4\u2032,7-O-tetramethyl ether", "3,3\u2032,4\u2032,7-Tetra-O-methylquercetin", "2-(3,4-Dimethoxyphenyl)-5-hydroxy-3,7-dimethoxy-4H-chromen-4-one"], "SMILES": "O(C)C1=C(OC=2C(C1=O)=C(O)C=C(OC)C2)C3=CC(OC)=C(OC)C=C3", "physical_data": {"Molecular Weight": "358.34", "Molecular Formula": "C19H18O7", "Melting Point": "159-160 \u00b0C"}}