{"cas_no": "1245-13-2", "cn_name": "2,2'-\u4e8c\u8f9b\u53ef\u5b81\u9178", "en_name": ["Bicinchoninic acid", "[2,2\u2032-Biquinoline]-4,4\u2032-dicarboxylic acid", "2,2\u2032-Bicinchoninic acid", "2,2\u2032-Dicinchoninic acid", "Bicinchoninic acid", "4,4\u2032-Dicarboxy-2,2\u2032-biquinoline", "NSC 133815", "(2,2\u2032)Biquinolinyl-4,4\u2032-dicarboxylic acid", "2-(4-Carboxyquinolin-2-yl)quinoline-4-carboxylic acid"], "SMILES": "C(O)(=O)C=1C2=C(N=C(C1)C=3C=C(C(O)=O)C4=C(N3)C=CC=C4)C=CC=C2", "physical_data": {"Molecular Weight": "344.32", "Molecular Formula": "C20H12N2O4", "Melting Point": "352 \u00b0C (decomp)"}}