{"cas_no": "124605-42-1", "cn_name": "(2R,3S)-N-\u53d4\u4e01\u6c27\u7fb0\u57fa-3-\u82ef\u57fa\u5f02\u4e1d\u6c28\u9178\u7532\u916f", "en_name": ["Methyl (\u03b1R,\u03b2S)-\u03b2-[[(1,1-dimethylethoxy)carbonyl]amino]-\u03b1-hydroxybenzenepropanoate", "Benzenepropanoic acid, \u03b2-[[(1,1-dimethylethoxy)carbonyl]amino]-\u03b1-hydroxy-, methyl ester, (\u03b1R,\u03b2S)-", "Benzenepropanoic acid, \u03b2-[[(1,1-dimethylethoxy)carbonyl]amino]-\u03b1-hydroxy-, methyl ester, [R-(R*,S*)]-", "Methyl (\u03b1R,\u03b2S)-\u03b2-[[(1,1-dimethylethoxy)carbonyl]amino]-\u03b1-hydroxybenzenepropanoate", "Methyl (2R,3S)-3-(tert-butoxycarbonylamino)-2-hydroxy-3-phenylpropionate", "(2R,3S)-N-tert-Butoxycarbonyl-3-phenylisoserine methyl ester"], "SMILES": "C(C(C(OC)=O)O)(NC(OC(C)(C)C)=O)C1=CC=CC=C1", "physical_data": {"Molecular Weight": "295.33", "Molecular Formula": "C15H21NO5", "Melting Point": "132-133 \u00b0C"}}