{"cas_no": "1247-42-3", "cn_name": "\u7532\u57fa\u6cfc\u5c3c\u677e", "en_name": ["Methylprednisone", "Pregna-1,4-diene-3,11,20-trione, 17,21-dihydroxy-16-methyl-, (16\u03b2)-", "Pregna-1,4-diene-3,11,20-trione, 17,21-dihydroxy-16\u03b2-methyl-", "(16\u03b2)-17,21-Dihydroxy-16-methylpregna-1,4-diene-3,11,20-trione", "17,21-Dihydroxy-16\u03b2-methylpregna-1,4-diene-3,11,20-trione", "Meprednisone", "16\u03b2-Methylprednisone", "Bitanisone", "Deltacortene Beta", "Betalone", "Deltisona B", "Betapred", "Betapar", "Betanisona", "Lepicortin-Beta", "Methylprednisone", "Sch 4358", "NSC 527579", "Beta", "36: PN: US20220380460 SEQID: 37 claimed sequence"], "SMILES": "CC12C(C3C(C(=O)C1)C4(C)C(CC3)=CC(=O)C=C4)CC(C)C2(C(CO)=O)O", "physical_data": {"Molecular Weight": "372.45", "Molecular Formula": "C22H28O5", "Melting Point": "202.5 \u00b0C"}}