{"cas_no": "124750-99-8", "cn_name": "\u6c2f\u6c99\u5766\u94be", "en_name": ["Losartan potassium", "1H-Imidazole-5-methanol, 2-butyl-4-chloro-1-[[2\u2032-(2H-tetrazol-5-yl)[1,1\u2032-biphenyl]-4-yl]methyl]-, potassium salt (1:1)", "1H-Imidazole-5-methanol, 2-butyl-4-chloro-1-[[2\u2032-(1H-tetrazol-5-yl)[1,1\u2032-biphenyl]-4-yl]methyl]-, monopotassium salt", "DuP 753", "Du Pont 753", "MK 954", "Losartan potassium", "Cozaar", "Nu-Lotan", "Losartan monopotassium salt", "Zaart", "Losacar", "Losium", "Aradois", "Losartan potassium salt", "Losar", "Presartan 50", "Losata", "Tancin", "Amosar", "Losatan potassium", "Potassium 5-(4\u2032-((2-butyl-4-chloro-5-(hydroxymethyl)-1H-imidazol-1-yl)methyl)-[1,1\u2032-biphenyl]-2-yl)tetrazol-1-ide"], "SMILES": "C(N1C(CCCC)=NC(Cl)=C1CO)C2=CC=C(C=C2)C3=C(C=CC=C3)C=4NN=NN4.[K]", "physical_data": {"Molecular Weight": "", "Molecular Formula": "C22H23ClN6O.K", "Melting Point": "183.5-184.5 \u00b0C"}}