{"cas_no": "124700-41-0", "cn_name": "2-\u6c1f-5-\u7898\u82ef\u7532\u9178", "en_name": ["2-Fluoro-5-iodobenzoic acid", "Benzoic acid, 2-fluoro-5-iodo-", "2-Fluoro-5-iodobenzoic acid"], "SMILES": "C(O)(=O)C1=C(F)C=CC(I)=C1", "physical_data": {"Molecular Weight": "266.01", "Molecular Formula": "C7H4FIO2", "Melting Point": "161-163 \u00b0C"}}