{"cas_no": "124728-93-4", "cn_name": "2,3-\u4e8c\u6c1f\u82ef\u4e19\u919a", "en_name": ["1,2-Difluoro-3-propoxybenzene", "Benzene, 1,2-difluoro-3-propoxy-", "1,2-Difluoro-3-propoxybenzene", "2,3-Difluoro-1-propyloxybenzene", "1,2-Difluoro-3-propyloxybenzene", "3-Propoxy-1,2-difluorobenzene", "2,3-Difluorophenyl propyl ether", "1-Propoxy-2,3-difluorobenzene"], "SMILES": "O(CCC)C1=C(F)C(F)=CC=C1", "physical_data": {"Molecular Weight": "172.17", "Molecular Formula": "C9H10F2O", "Boiling Point": "105 \u00b0C @ Press: 15 mmHg"}}