{"cas_no": "124750-92-1", "cn_name": "\u6c2f\u6c99\u5766\u7fa7\u9178", "en_name": ["Losartan carboxylic acid", "1H-Imidazole-5-carboxylic acid, 2-butyl-4-chloro-1-[[2\u2032-(2H-tetrazol-5-yl)[1,1\u2032-biphenyl]-4-yl]methyl]-", "1H-Imidazole-5-carboxylic acid, 2-butyl-4-chloro-1-[[2\u2032-(1H-tetrazol-5-yl)[1,1\u2032-biphenyl]-4-yl]methyl]-", "2-Butyl-4-chloro-1-[[2\u2032-(2H-tetrazol-5-yl)[1,1\u2032-biphenyl]-4-yl]methyl]-1H-imidazole-5-carboxylic acid", "EXP 3174", "E 3174", "Losartan carboxylic acid", "2-Butyl-5-chloro-3-[[4-[2-(2H-tetrazol-5-yl)phenyl]phenyl]methyl]imidazole-4-carboxylic acid"], "SMILES": "C(N1C(CCCC)=NC(Cl)=C1C(O)=O)C2=CC=C(C=C2)C3=C(C=CC=C3)C=4NN=NN4", "physical_data": {"Molecular Weight": "436.89", "Molecular Formula": "C22H21ClN6O2", "Melting Point": "176-178 \u00b0C"}}