{"cas_no": "124728-90-1", "cn_name": "2,3-\u4e8c\u6c1f\u5bf9\u82ef\u4e8c\u915a", "en_name": ["2,3-Difluoro-1,4-benzenediol", "1,4-Benzenediol, 2,3-difluoro-", "2,3-Difluoro-1,4-benzenediol", "2,3-Difluoro-4-hydroxyphenol", "2,3-Difluorobenzene-1,4-diol", "2,3-Difluoro-1,4-dihydroquinone"], "SMILES": "FC1=C(F)C(O)=CC=C1O", "physical_data": {"Molecular Weight": "146.09", "Molecular Formula": "C6H4F2O2", "Melting Point": "124-126 \u00b0C"}}