{"cas_no": "1247-97-8", "cn_name": "\u680e\u7cbe-3,5,7,3',4'-\u4e94\u7532\u919a", "en_name": ["3,5,7,3\u2032,4\u2032-Pentamethoxyflavone", "4H-1-Benzopyran-4-one, 2-(3,4-dimethoxyphenyl)-3,5,7-trimethoxy-", "Flavone, 3,3\u2032,4\u2032,5,7-pentamethoxy-", "2-(3,4-Dimethoxyphenyl)-3,5,7-trimethoxy-4H-1-benzopyran-4-one", "3,3\u2032,4\u2032,5,7-Pentamethoxyflavone", "Penta-O-methylquercetin", "Quercetin pentamethyl ether", "3,3\u2032,4\u2032,5,7-Pentamethylquercetin", "Pentamethylquercetin", "Pentamethoxyquercetin", "3,5,7,3\u2032,4\u2032-Pentamethoxyflavone", "NSC 115922", "NSC 618936", "TUM 8437", "Quercetin 3,5,7,3\u2032,4\u2032-pentamethyl ether", "2-(3,4-Dimethoxyphenyl)-3,5,7-trimethoxy-4H-chromen-4-one", "3,5,7,4\u2032,5\u2032-Pentamethoxyflavone", "2-(3,4-Dimethoxyphenyl)-3,5,7-trimethoxychromen-4-one"], "SMILES": "O(C)C1=C2C(OC(=C(OC)C2=O)C3=CC(OC)=C(OC)C=C3)=CC(OC)=C1", "physical_data": {"Molecular Weight": "372.37", "Molecular Formula": "C20H20O7", "Melting Point": "149-151 \u00b0C"}}