{"cas_no": "124750-51-2", "cn_name": "N-(\u4e09\u82ef\u57fa\u7532\u57fa)-5-(4'-\u6eb4\u7532\u57fa\u8054\u82ef-2-\u57fa)\u56db\u6c2e\u5511", "en_name": ["5-[4\u2032-(Bromomethyl)[1,1\u2032-biphenyl]-2-yl]-1-(triphenylmethyl)-1H-tetrazole", "1H-Tetrazole, 5-[4\u2032-(bromomethyl)[1,1\u2032-biphenyl]-2-yl]-1-(triphenylmethyl)-", "5-[4\u2032-(Bromomethyl)[1,1\u2032-biphenyl]-2-yl]-1-(triphenylmethyl)-1H-tetrazole", "4\u2032-Bromomethyl-2-(1-trityl-1H-tetrazol-5-yl)biphenyl", "N-Triphenylmethyl-5-[2-(4\u2032-bromomethylbiphenyl)]tetrazole", "4-Bromomethyl-2\u2032-[N-triphenylmethyl-1H-tetrazol-5-yl]biphenyl", "4\u2032-Bromomethyl-2-(1-triphenylmethyltetrazol-5-yl)biphenyl", "[2\u2032-(N-Trityltetrazol-5-yl)biphenyl-4-yl]methyl bromide", "[2\u2032-(1-Trityl-1H-tetrazol-5-yl)biphenyl-4-yl]methyl bromide", "[2\u2032-(Triphenylmethyl-1H-tetrazol-5-yl)biphenyl-4-yl]methyl bromide", "4\u2032-Bromomethyl-2-(N-trityl-1H-tetrazol-5-yl)biphenyl", "N-Triphenylmethyl-5-[4\u2032-(bromomethyl)biphenyl-2-yl]tetrazole", "5-[4\u2032-(Bromomethyl)biphenyl-2-yl]-N-(triphenylmethyl)tetrazole", "4-[2\u2032-(N-Triphenylmethyltetrazol-5-yl)phenyl]benzyl bromide", "5-(4\u2032-Bromomethylbiphenyl-2-yl)-1-trityl-1H-tetrazole", "1-Triphenylmethyl-5-[4\u2032-(bromomethyl)biphenyl-2-yl]tetrazole"], "SMILES": "C(N1C(=NN=N1)C2=C(C=CC=C2)C3=CC=C(CBr)C=C3)(C4=CC=CC=C4)(C5=CC=CC=C5)C6=CC=CC=C6", "physical_data": {"Molecular Weight": "557.48", "Molecular Formula": "C33H25BrN4", "Boiling Point": "61 \u00b0C @ Press: 12 mmHg", "Melting Point": "135-137 \u00b0C"}}