{"cas_no": "124832-26-4", "cn_name": "\u4f10\u6614\u6d1b\u97e6", "en_name": ["Valacyclovir", "L-Valine, 2-[(2-amino-1,6-dihydro-6-oxo-9H-purin-9-yl)methoxy]ethyl ester", "L-Valine ester with 9-[(2-hydroxyethoxy)methyl]guanine", "Valaciclovir", "Valacyclovir", "ValACV", "256U87", "L-VACV", "Valcivir", "2-[(2-Amino-6-oxo-3H-purin-9-yl)methoxy]ethyl (2S)-2-amino-3-methylbutanoate", "2-[(2-Amino-6-oxo-6,9-dihydro-1H-purin-9-yl)methoxy]ethyl (2S)-2-amino-3-methylbutanoate"], "SMILES": "C(OCCOC(C(C(C)C)N)=O)N1C2=C(N=C1)C(=O)N=C(N)N2", "physical_data": {"Molecular Weight": "324.34", "Molecular Formula": "C13H20N6O4", "Melting Point": "299 \u00b0C"}}