{"cas_no": "124858-35-1", "cn_name": "\u90a3\u6c1f\u6c99\u661f", "en_name": ["Nadifloxacin", "1H,5H-Benzo[ij]quinolizine-2-carboxylic acid, 9-fluoro-6,7-dihydro-8-(4-hydroxy-1-piperidinyl)-5-methyl-1-oxo-", "1H,5H-Benzo[ij]quinolizine-2-carboxylic acid, 9-fluoro-6,7-dihydro-8-(4-hydroxy-1-piperidinyl)-5-methyl-1-oxo-, (\u00b1)-", "9-Fluoro-6,7-dihydro-8-(4-hydroxy-1-piperidinyl)-5-methyl-1-oxo-1H,5H-benzo[ij]quinolizine-2-carboxylic acid", "OPC 7251", "Nadifloxacin", "Jinofloxacin", "Nadixa", "9-Fluoro-8-(4-hydroxypiperidin-1-yl)-5-methyl-1-oxo-6,7-dihydro-1H,5H-pyrido[3,2,1-ij]quinoline-2-carboxylic acid", "Nadibact"], "SMILES": "O=C1C=2C3=C(C(=C(F)C2)N4CCC(O)CC4)CCC(C)N3C=C1C(O)=O", "physical_data": {"Molecular Weight": "360.38", "Molecular Formula": "C19H21FN2O4", "Melting Point": "245-247 \u00b0C (decomp)"}}