{"cas_no": "1249-97-4", "cn_name": "\u82c4\u9170\u57fa\u65e0\u8272\u4e9a\u7532\u57fa\u5170", "en_name": ["3,7-Bis(dimethylamino)-10-benzoylphenothiazine", "Methanone, [3,7-bis(dimethylamino)-10H-phenothiazin-10-yl]phenyl-", "Phenothiazine, 10-benzoyl-3,7-bis(dimethylamino)-", "10H-Phenothiazine-3,7-diamine, 10-benzoyl-N,N,N\u2032,N\u2032-tetramethyl-", "[3,7-Bis(dimethylamino)-10H-phenothiazin-10-yl]phenylmethanone", "10-Benzoyl-3,7-bis(dimethylamino)phenothiazine", "3,7-Bis(dimethylamino)-10-benzoylphenothiazine", "N-Benzoylleucomethylene Blue", "Copikem II", "BLMB", "NSC 11881"], "SMILES": "C(=O)(N1C=2C(SC=3C1=CC=C(N(C)C)C3)=CC(N(C)C)=CC2)C4=CC=CC=C4", "physical_data": {"Molecular Weight": "389.51", "Molecular Formula": "C23H23N3OS", "Melting Point": "185-187 \u00b0C"}}