{"cas_no": "124936-75-0", "cn_name": "3-(2-\u7532\u6c27\u57fa-5-\u7532\u57fa\u82ef\u57fa)-3-\u82ef\u57fa\u4e19\u9187", "en_name": ["Phenol, 2-[3-[bis(1-methylethyl)amino]-1-phenylpropyl]-4-methyl-, hydrochloride (1:1)", "Phenol, 2-[3-[bis(1-methylethyl)amino]-1-phenylpropyl]-4-methyl-, hydrochloride (1:1)", "Phenol, 2-[3-[bis(1-methylethyl)amino]-1-phenylpropyl]-4-methyl-, hydrochloride", "(+-)-Tolterodine hydrochloride", "N,N-Diisopropyl-3-(2-hydroxy-5-methylphenyl)-3-phenylpropylamine hydrochloride"], "SMILES": "C(CCN(C(C)C)C(C)C)(C1=C(O)C=CC(C)=C1)C2=CC=CC=C2.Cl", "physical_data": {"Molecular Weight": "", "Molecular Formula": "C22H31NO.ClH", "Melting Point": "196-197 \u00b0C"}}