{"cas_no": "124937-52-6", "cn_name": "\u9152\u77f3\u9178\u6258\u7279\u7f57\u5b9a", "en_name": ["Tolterodine tartrate", "Phenol, 2-[(1R)-3-[bis(1-methylethyl)amino]-1-phenylpropyl]-4-methyl-, (2R,3R)-2,3-dihydroxybutanedioate (1:1)", "Phenol, 2-[3-[bis(1-methylethyl)amino]-1-phenylpropyl]-4-methyl-, (R)-, [R-(R*,R*)]-2,3-dihydroxybutanedioate (1:1) (salt)", "Phenol, 2-[(1R)-3-[bis(1-methylethyl)amino]-1-phenylpropyl]-4-methyl-, (2R,3R)-2,3-dihydroxybutanedioate (1:1) (salt)", "Detrusitol", "Tolterodine tartrate", "PNU 200583E", "Detrol", "Tolterodinium (+)-(2R,3R)-hydrogen tartrate (1:1)", "(R)-Tolterodine L-tartrate", "(R)-(+)-N,N-Diisopropyl-3-(2-hydroxy-5-methylphenyl)-3-phenylpropylamine L-tartrate", "Tolterodine L-tartrate", "(R)-Tolterodine tartrate", "Tolterodine tartaric acid", "Terol"], "SMILES": "C(C(C(O)=O)O)(C(O)=O)O.C(CCN(C(C)C)C(C)C)(C1=C(O)C=CC(C)=C1)C2=CC=CC=C2", "physical_data": {"Molecular Weight": "", "Molecular Formula": "C22H31NO.C4H6O6", "Melting Point": "216 \u00b0C"}}