{"cas_no": "125-20-2", "cn_name": "\u767e\u91cc\u915a\u915e", "en_name": ["Thymolphthalein", "1(3H)-Isobenzofuranone, 3,3-bis[4-hydroxy-2-methyl-5-(1-methylethyl)phenyl]-", "Phenolphthalein, 5\u2032,5\u2032\u2032-diisopropyl-2\u2032,2\u2032\u2032-dimethyl-", "Thymolphthalein", "3,3-Bis[4-hydroxy-2-methyl-5-(1-methylethyl)phenyl]-1(3H)-isobenzofuranone", "3,3-Bis(4-hydroxy-3-isopropyl-6-methyl)phthalide", "2\u2032,2\u2032\u2032-Diisopropyl-5\u2032,5\u2032\u2032-dimethylphenolphthalein", "NSC 2186", "2-[(4-Hydroxy-5-isopropyl-2-methylphenyl)(5-isopropyl-2-methyl-4-oxo-2,5-cyclohexadien-1-ylidene)methyl]benzoic acid", "3,3-Bis(4-hydroxy-2-methyl-5-propan-2-ylphenyl)-2-benzofuran-1-one", "3,3-Bis-(4-hydroxy-5-isopropyl-2-methyl-phenyl)-3H-isobenzofuran-1-one", "DTXSID2051633", "MeSH ID: D013944"], "SMILES": "CC=1C(C2(C=3C(C(=O)O2)=CC=CC3)C4=CC(C(C)C)=C(O)C=C4C)=CC(C(C)C)=C(O)C1", "physical_data": {"Molecular Weight": "430.54", "Molecular Formula": "C28H30O4", "Melting Point": "253 \u00b0C"}}