{"cas_no": "125-84-8", "cn_name": "\u6c28\u9c81\u7c73\u7279", "en_name": ["Aminoglutethimide", "2,6-Piperidinedione, 3-(4-aminophenyl)-3-ethyl-", "Glutarimide, 2-(p-aminophenyl)-2-ethyl-", "3-(4-Aminophenyl)-3-ethyl-2,6-piperidinedione", "Aminoglutethimide", "\u03b1-(p-Aminophenyl)-\u03b1-ethylglutarimide", "2-(p-Aminophenyl)-2-ethylglutarimide", "Elipten", "p-Aminoglutethimide", "Ba-16038", "DL-Aminoglutethimide", "dl-Aminoglutethimide", "(\u00b1)-Aminoglutethimide", "(RS)-Aminoglutethimide", "Cytadren", "NSC 330915", "Orimeten", "3-(4-Aminophenyl)-3-ethylpiperidine-2,6-dione", "MeSH ID: D000616"], "SMILES": "C(C)C1(C(=O)NC(=O)CC1)C2=CC=C(N)C=C2", "physical_data": {"Molecular Weight": "232.28", "Molecular Formula": "C13H16N2O2", "Melting Point": "149.5 \u00b0C"}}