{"cas_no": "125-12-2", "cn_name": "\u4e59\u9178\u5f02\u9f99\u8111\u916f", "en_name": ["Isobornyl acetate", "Bicyclo[2.2.1]heptan-2-ol, 1,7,7-trimethyl-, 2-acetate, (1R,2R,4R)-rel-", "Isoborneol, acetate", "Bicyclo[2.2.1]heptan-2-ol, 1,7,7-trimethyl-, acetate, exo-", "Bicyclo[2.2.1]heptan-2-ol, 1,7,7-trimethyl-, acetate, (1R,2R,4R)-rel-", "Isobornyl acetate", "Pichtosine", "Pichtosin", "(\u00b1)-Isobornyl acetate", "exo-Bornyl acetate", "NSC 62486"], "SMILES": "CC12C(OC(C)=O)CC(C1(C)C)CC2", "physical_data": {"Molecular Weight": "196.29", "Molecular Formula": "C12H20O2", "Boiling Point": "106-107 \u00b0C @ Press: 13 Torr", "Melting Point": "211-212 \u00b0C"}}