{"cas_no": "125-15-5", "cn_name": "\u756a\u6728\u9cd6\u6b21\u78b1", "en_name": ["Vomicine", "12H-6a,4-(Ethaniminomethano)indolo[3,2,1-ij]oxepino[2,3,4-de]quinoline-6,12(2H)-dione, 4a,5,13,13a,13b,13c-hexahydro-10-hydroxy-16-methyl-, (4aR,6aS,13aS,13bR,13cS)-", "Vomicine", "16,19-Secostrychnidine-10,16-dione, 4-hydroxy-19-methyl-", "(4aR,6aS,13aS,13bR,13cS)-4a,5,13,13a,13b,13c-Hexahydro-10-hydroxy-16-methyl-12H-6a,4-(ethaniminomethano)indolo[3,2,1-ij]oxepino[2,3,4-de]quinoline-6,12(2H)-dione", "Vomicin", "Strychnicine", "12H-6a,4-(Ethaniminomethano)indolo[3,2,1-ij]oxepino[2,3,4-de]quinoline-6,12(2H)-dione, 4a,5,13,13a,13b,13c-hexahydro-10-hydroxy-16-methyl-, [4aR-(4aR*,6aS*,13aS*,13bR*,13cS*)]-", "12-Hydroxyicajine"], "SMILES": "O=C1C23C4C5C(C1)C(CN(C)CC2)=CCOC5CC(=O)N4C=6C3=CC=CC6O", "physical_data": {"Molecular Weight": "380.44", "Molecular Formula": "C22H24N2O4", "Melting Point": "282 \u00b0C"}}