{"cas_no": "125-60-0", "cn_name": "\u82ef\u7ef4\u6eb4\u94f5", "en_name": ["Fenpiverinium bromide", "Piperidinium, 1-(4-amino-4-oxo-3,3-diphenylbutyl)-1-methyl-, bromide (1:1)", "Piperidinium, 1-(3-carbamoyl-3,3-diphenylpropyl)-1-methyl-, bromide", "1-(3-Carbamoyl-3,3-diphenylpropyl)-1-methylpiperidinium bromide", "Piperidinium, 1-(4-amino-4-oxo-3,3-diphenylbutyl)-1-methyl-, bromide", "2-(Diphenylpiperidinoethyl)acetamide methobromide", "\u03b1,\u03b1-Diphenyl-\u03b3-piperidylbutyramide methobromide", "Resantin", "U 0385", "Fenpiverinium bromide", "\u03b1,\u03b1-Diphenyl-1-piperidinebutyramide methobromide", "2,2-Diphenyl-2-(2-piperidinoethyl)acetamide methyl bromide", "2-(Diphenylpiperidinoethyl)acetamide methyl bromide", "12494Hoechst", "Hoechst 12494", "Bulgar amide", "Baralgin-Amid", "Baralgin-Amide", "Fenpipramide methobromide"], "SMILES": "C(CC[N+]1(C)CCCCC1)(C(N)=O)(C2=CC=CC=C2)C3=CC=CC=C3.[Br-]", "physical_data": {"Molecular Weight": "", "Molecular Formula": "C22H29N2O.Br", "Melting Point": "178 \u00b0C"}}