{"cas_no": "125-71-3", "cn_name": "\u53f3\u7f8e\u6c99\u82ac", "en_name": ["Dextromethorphan", "Morphinan, 3-methoxy-17-methyl-, (9\u03b1,13\u03b1,14\u03b1)-", "9\u03b1,13\u03b1,14\u03b1-Morphinan, 3-methoxy-17-methyl-", "(9\u03b1,13\u03b1,14\u03b1)-3-Methoxy-17-methylmorphinan", "Dextromethorphan", "d-Methorphan", "Ba 2666", "(+)-3-Methoxy-17-methylmorphinan", "Nodex", "DEX", "(+)-Dextromethorphan", "3-Methoxy-17-methyl-9\u03b1,13\u03b1,14\u03b1-morphinan", "Bromhist", "MeSH ID: D003915"], "SMILES": "O(C)C=1C=C2C34C(C(CC2=CC1)N(C)CC3)CCCC4", "physical_data": {"Molecular Weight": "271.40", "Molecular Formula": "C18H25NO", "Melting Point": "80 \u00b0C"}}