{"cas_no": "125-31-5", "cn_name": "\u4e8c\u7532\u82ef\u915a\u84dd", "en_name": ["Xylenol blue", "Phenol, 4,4\u2032-(1,1-dioxido-3H-2,1-benzoxathiol-3-ylidene)bis[2,5-dimethyl-", "p-Xylenolsulfonephthalein", "2,5-Xylenol, 4,4\u2032-(3H-2,1-benzoxathiol-3-ylidene)di-, S,S-dioxide", "Phenol, 4,4\u2032-(3H-2,1-benzoxathiol-3-ylidene)bis[2,5-dimethyl-, S,S-dioxide", "p-Xylenolsulfophthalein", "3H-2,1-Benzoxathiole, phenol deriv.", "4,4\u2032-(1,1-Dioxido-3H-2,1-benzoxathiol-3-ylidene)bis[2,5-dimethylphenol]", "1,4-Dimethyl-5-hydroxybenzenesulfonphthalein", "p-Xylenesulfonephthalein", "p-Xylenol blue", "p-Xylenolsulfonphthalein", "Xylenol blue", "NSC 10471"], "SMILES": "CC1=C(C2(C=3C(S(=O)(=O)O2)=CC=CC3)C4=C(C)C=C(O)C(C)=C4)C=C(C)C(O)=C1", "physical_data": {"Molecular Weight": "410.48", "Molecular Formula": "C23H22O5S", "Melting Point": "215 \u00b0C"}}