{"cas_no": "125-73-5", "cn_name": "\u53f3\u7f9f\u5417\u5583", "en_name": ["Dextrorphan", "Morphinan-3-ol, 17-methyl-, (9\u03b1,13\u03b1,14\u03b1)-", "9\u03b1,13\u03b1,14\u03b1-Morphinan-3-ol, 17-methyl-", "(9\u03b1,13\u03b1,14\u03b1)-17-Methylmorphinan-3-ol", "Dextrorphan", "(+)-Dromoran", "(+)-N-Methylmorphinan-3-ol", "(+)-3-Hydroxy-N-methylmorphinan", "dextro-Dromoran", "Ro 1-6794", "d-Levorphanol", "O-Demethyldextromethorphan", "(+)-Dextrorphan", "MeSH ID: D003917"], "SMILES": "CN1C2C3C(C=4C(C2)=CC=C(O)C4)(CC1)CCCC3", "physical_data": {"Molecular Weight": "257.37", "Molecular Formula": "C17H23NO", "Melting Point": "198-199 \u00b0C"}}