{"cas_no": "125-10-0", "cn_name": "\u918b\u9178\u6cfc\u5c3c\u677e", "en_name": ["Prednisone acetate", "Pregna-1,4-diene-3,11,20-trione, 21-(acetyloxy)-17-hydroxy-", "Pregna-1,4-diene-3,11,20-trione, 17,21-dihydroxy-, 21-acetate", "21-(Acetyloxy)-17-hydroxypregna-1,4-diene-3,11,20-trione", "21-Acetoxy-17\u03b1-hydroxypregna-1,4-diene-3,11,20-trione", "\u03941-Cortisone 21-acetate", "Delcortin", "Delta-Corlin", "Deltalone", "Ferrosan", "Nisone", "Prednisone acetate", "Prednisone 21-acetate", "Cortancyl", "\u03941-Dehydrocortisone acetate", "NSC 10965"], "SMILES": "CC12C(C3C(C(=O)C1)C4(C)C(CC3)=CC(=O)C=C4)CCC2(C(COC(C)=O)=O)O", "physical_data": {"Molecular Weight": "400.46", "Molecular Formula": "C23H28O6", "Melting Point": "226 \u00b0C (decomp)"}}