{"cas_no": "125-13-3", "cn_name": "3,3-\u4e8c(4-\u7f9f\u57fa\u82ef\u57fa)-2(3H)-\u5432\u54da\u916e", "en_name": ["Oxyphenisatin", "2H-Indol-2-one, 1,3-dihydro-3,3-bis(4-hydroxyphenyl)-", "2-Indolinone, 3,3-bis(p-hydroxyphenyl)-", "Oxindole, 3,3-bis(p-hydroxyphenyl)-", "1,3-Dihydro-3,3-bis(4-hydroxyphenyl)-2H-indol-2-one", "3,3-Bis(p-hydroxyphenyl)-2-indolinone", "3,3-Bis(p-hydroxyphenyl)oxindole", "3,3-Bis(4-hydroxyphenyl)oxindole", "Diphenolisatin", "Neodrast", "Oxyphenisatin", "Oxyphenisatine", "Phenolisatin", "Veripaque", "Lavema", "4,4\u2032-Dihydroxydiphenylisatin", "Isolax", "Isatinbisphenol", "Hoscolax", "Normalax", "Propellax", "Recolon", "NSC 59814", "3,3-Bis(4-hydroxyphenyl)-1,3-dihydroindol-2-one", "3,3-Bis(4-hydroxyphenyl)-1H-indol-2-one"], "SMILES": "O=C1C(C=2C(N1)=CC=CC2)(C3=CC=C(O)C=C3)C4=CC=C(O)C=C4", "physical_data": {"Molecular Weight": "317.34", "Molecular Formula": "C20H15NO3", "Melting Point": "260-261 \u00b0C"}}