{"cas_no": "125-04-2", "cn_name": "\u6c22\u5316\u53ef\u7684\u677e\u7425\u73c0\u9178\u94a0", "en_name": ["Hydrocortisone sodium succinate", "Pregn-4-ene-3,20-dione, 21-(3-carboxy-1-oxopropoxy)-11,17-dihydroxy-, sodium salt (1:1), (11\u03b2)-", "Cortisol, 21-(hydrogen succinate), monosodium salt", "Pregn-4-ene-3,20-dione, 21-(3-carboxy-1-oxopropoxy)-11,17-dihydroxy-, monosodium salt, (11\u03b2)-", "Cortisol, hydrogen succinate, sodium salt", "Cortisol, succinate, sodium salt", "Corlan", "Cortisol sodium succinate", "EF-Cortelan Soluble", "Hydrocortisone 21-hemisuccinate sodium salt", "Hydrocortisone hemisuccinate sodium salt", "Hydrocortisone sodium hemisuccinate", "Hydrocortisone sodium succinate", "Sodium hydrocortisone 21-hemisuccinate", "Sodium hydrocortisone succinate", "Sodium 17-hydroxycorticosterone 21-succinate", "Solu-Cortef", "Cortisol 21-sodium succinate", "U 4905", "Sodium hydrocortisone 21-succinate", "Hydrocortisone 21-sodium succinate", "Hydrocortisone sodium 21-hemisuccinate", "Cortisol hemisuccinate sodium salt", "Hydrocortisone 21-sodium succinide", "Buccalsone", "Solu-Glyc", "Intracort", "Nordicort", "Flebocortid", "Emi-Corlin", "Oralsone", "Cortisol sodium hemisuccinate", "Hydrocortisone 21-succinate sodium salt", "A-HydroCort"], "SMILES": "CC12C(C3C(C(O)C1)C4(C)C(CC3)=CC(=O)CC4)CCC2(C(COC(CCC(O)=O)=O)=O)O.[Na]", "physical_data": {"Molecular Weight": "", "Molecular Formula": "C25H34O8.Na", "Melting Point": "169-172 \u00b0C"}}