{"cas_no": "125-52-0", "cn_name": "\u76d0\u9178\u5965\u897f\u514b\u5229\u5e73", "en_name": ["Oxyphencyclimine hydrochloride", "Benzeneacetic acid, \u03b1-cyclohexyl-\u03b1-hydroxy-, (1,4,5,6-tetrahydro-1-methyl-2-pyrimidinyl)methyl ester, hydrochloride (1:1)", "Cyclohexaneglycolic acid, \u03b1-phenyl-, (1,4,5,6-tetrahydro-1-methyl-2-pyrimidinyl)methyl ester monohydrochloride", "Benzeneacetic acid, \u03b1-cyclohexyl-\u03b1-hydroxy-, (1,4,5,6-tetrahydro-1-methyl-2-pyrimidinyl)methyl ester, monohydrochloride", "Daricon", "Dominil", "(1-Methyl-1,4,5,6-tetrahydro-2-pyrimidyl)methyl \u03b1-cyclohexyl-\u03b1-phenylglycolate hydrochloride", "Oxyphencyclimine hydrochloride", "Setrol", "Ulcociclinina", "Oximin", "Vio-Thene", "Daricol", "S 1-1236", "Enterex", "Syklifen", "(\u00b1)-Oxyphencyclimine hydrochloride", "NSC 528449", "(1-Methyl-1,4,5,6-tetrahydropyrimidin-2-yl)methyl 2-cyclohexyl-2-hydroxy-2-phenylacetate hydrochloride"], "SMILES": "C(C(OCC=1N(C)CCCN1)=O)(O)(C2CCCCC2)C3=CC=CC=C3.Cl", "physical_data": {"Molecular Weight": "", "Molecular Formula": "C20H28N2O3.ClH", "Melting Point": "231-232 \u00b0C (decomp)"}}