{"cas_no": "125-65-5", "cn_name": "\u622a\u77ed\u4fa7\u8033\u7d20", "en_name": ["Pleuromutilin", "Acetic acid, 2-hydroxy-, (3aS,4R,5S,6S,8R,9R,9aR,10R)-6-ethenyldecahydro-5-hydroxy-4,6,9,10-tetramethyl-1-oxo-3a,9-propano-3aH-cyclopentacycloocten-8-yl ester", "Glycolic acid, 8-ester with octahydro-5,8-dihydroxy-4,6,9,10-tetramethyl-6-vinyl-3a,9-propano-3aH-cyclopentacycloocten-1(4H)-one", "Acetic acid, hydroxy-, 6-ethenyldecahydro-5-hydroxy-4,6,9,10-tetramethyl-1-oxo-3a,9-propano-3aH-cyclopentacycloocten-8-yl ester, [3aS-(3a\u03b1,4\u03b2,5\u03b1,6\u03b1,8\u03b2,9\u03b1,9a\u03b2,10S*)]-", "Pleuromutilin", "Acetic acid, hydroxy-, (3aS,4R,5S,6S,8R,9R,9aR,10R)-6-ethenyldecahydro-5-hydroxy-4,6,9,10-tetramethyl-1-oxo-3a,9-propano-3aH-cyclopentacycloocten-8-yl ester", "3a,9-Propano-3aH-cyclopentacyclooctene, acetic acid deriv.", "BC 757", "Drosophilin B", "Antibiotic A 40104C", "14-Deoxy-14-[(hydroxyacetyl)oxy]mutilin", "(+)-Pleuromutilin", "Pleuromulin", "NSC 121145", "Mutilin 14-glycolate"], "SMILES": "CC1C23C(C(C)(C(OC(CO)=O)CC(C=C)(C)C1O)C(C)CC2)C(=O)CC3", "physical_data": {"Molecular Weight": "378.50", "Molecular Formula": "C22H34O5", "Melting Point": "170.5 \u00b0C"}}