{"cas_no": "125-51-9", "cn_name": "\u6eb4\u54cc\u55b7\u916f", "en_name": ["Pipenzolate bromide", "Piperidinium, 1-ethyl-3-[(2-hydroxy-2,2-diphenylacetyl)oxy]-1-methyl-, bromide (1:1)", "Piperidinium, 1-ethyl-3-hydroxy-1-methyl-, bromide, benzilate", "1-Ethyl-3-hydroxy-1-methylpiperidinium bromide benzilate", "Piperidinium, 1-ethyl-3-[(hydroxydiphenylacetyl)oxy]-1-methyl-, bromide", "Benzilic acid, ester with 1-ethyl-3-hydroxy-1-methylpiperidinium bromide", "JB 323", "N-Ethyl-3-piperidyl benzilate methobromide", "Pipenzolate methobromide", "Piptal", "QPB", "Pipenzolate bromide", "Piper", "Piptalake", "Piptal (tablet)", "Pibenzolone bromide", "NSC 4347", "Babytal", "1-Ethyl-3-(2-hydroxy-2,2-diphenylacetoxy)-1-methylpiperidin-1-ium bromide"], "SMILES": "C(C(OC1C[N+](CC)(C)CCC1)=O)(O)(C2=CC=CC=C2)C3=CC=CC=C3.[Br-]", "physical_data": {"Molecular Weight": "", "Molecular Formula": "C22H28NO3.Br", "Melting Point": "179.5 \u00b0C"}}