{"cas_no": "125-33-7", "cn_name": "\u6251\u7c73\u916e", "en_name": ["Primidone", "4,6(1H,5H)-Pyrimidinedione, 5-ethyldihydro-5-phenyl-", "5-Ethyldihydro-5-phenyl-4,6(1H,5H)-pyrimidinedione", "Roe 101", "2-Desoxyphenobarbital", "5-Ethylhexahydro-5-phenylpyrimidine-4,6-dione", "5-Ethyl-5-phenylhexahydropyrimidine-4,6-dione", "Misodine", "Mizodin", "Mylepsin", "Mysoline", "5-Phenyl-5-ethyl-hexahydropyrimidine-4,6-dione", "Primaclone", "Primidone", "Hexamidine", "Sertan", "2-Deoxyphenobarbital", "Pyrimidone Medi-pets", "Lepimidin", "Mizolin", "Milepsin", "Primakton", "Primidon", "Primacone", "Misolyne", "Mysedon", "Hexamidine (antiepileptic)", "Hexamydin", "Liskantin", "Neurosyn", "Resimatil", "NSC 41701", "5-Ethyl-5-phenyl-1,3-diazinane-4,6-dione", "Desoxyphenobarbital", "MeSH ID: D011324"], "SMILES": "C(C)C1(C(=O)NCNC1=O)C2=CC=CC=C2", "physical_data": {"Molecular Weight": "218.25", "Molecular Formula": "C12H14N2O2", "Melting Point": "281-282 \u00b0C"}}