{"cas_no": "125-46-2", "cn_name": "\u677e\u841d\u9178", "en_name": ["Usnic acid", "1,3(2H,9bH)-Dibenzofurandione, 2,6-diacetyl-7,9-dihydroxy-8,9b-dimethyl-", "Usnic acid", "2,6-Diacetyl-7,9-dihydroxy-8,9b-dimethyl-1,3(2H,9bH)-dibenzofurandione", "Usno", "Usnein", "Usniacin", "(\u00b1)-Usnic acid", "NSC 8517", "2,6-Diacetyl-7,9-dihydroxy-8,9b-dimethyldibenzo[b,d]furan-1,3(2H,9bH)-dione", "2,6-Diacetyl-7,9-dihydroxy-8,9b-dimethyldibenzofuran-1,3-dione"], "SMILES": "CC12C=3C(OC1=CC(=O)C(C(C)=O)C2=O)=C(C(C)=O)C(O)=C(C)C3O", "physical_data": {"Molecular Weight": "344.32", "Molecular Formula": "C18H16O7", "Melting Point": "204 \u00b0C"}}