{"cas_no": "1250-95-9", "cn_name": "\u80c6\u56fa\u9187-5\u0391,6\u0391-\u73af\u6c27\u5316\u7269", "en_name": ["5\u03b1,6\u03b1-Epoxycholesterol", "Cholestan-3-ol, 5,6-epoxy-, (3\u03b2,5\u03b1,6\u03b1)-", "5\u03b1-Cholestan-3\u03b2-ol, 5,6\u03b1-epoxy-", "5,6-Epoxy-5H-cyclopenta[a]phenanthrene, cholestan-3-ol deriv.", "(3\u03b2,5\u03b1,6\u03b1)-5,6-Epoxycholestan-3-ol", "Cholesterol \u03b1-oxide", "5\u03b1,6\u03b1-Epoxycholestanol", "Cholesterol 5\u03b1,6\u03b1-epoxide", "5,6\u03b1-Epoxy-5\u03b1-cholestan-3\u03b2-ol", "Cholesterol \u03b1-epoxide", "3\u03b2-Hydroxycholestane 5\u03b1,6\u03b1-epoxide", "5\u03b1,6\u03b1-Epoxycholestan-3\u03b2-ol", "Cholesterol 5\u03b1,6\u03b1-oxide", "3\u03b2-Hydroxy-5,6\u03b1-epoxy-5\u03b1-cholestane", "5\u03b1-Epoxycholesterol", "5\u03b1,6\u03b1-Epoxycholesterol", "NSC 18176", "5,6\u03b1-Epoxycholesterol"], "SMILES": "CC12C3(C(O3)CC4C1CCC5(C)C4CCC5C(CCCC(C)C)C)CC(O)CC2", "physical_data": {"Molecular Weight": "402.65", "Molecular Formula": "C27H46O2", "Melting Point": "140-141 \u00b0C"}}