{"cas_no": "125072-69-7", "cn_name": "\u8868\u53bb\u7532\u7edc\u77f3\u7519\u5143", "en_name": ["(3R,4S)-Dihydro-3-hydroxy-3,4-bis[(4-hydroxy-3-methoxyphenyl)methyl]-2(3H)-furanone", "2(3H)-Furanone, dihydro-3-hydroxy-3,4-bis[(4-hydroxy-3-methoxyphenyl)methyl]-, (3R,4S)-", "2(3H)-Furanone, dihydro-3-hydroxy-3,4-bis[(4-hydroxy-3-methoxyphenyl)methyl]-, (3R-trans)-", "(3R,4S)-Dihydro-3-hydroxy-3,4-bis[(4-hydroxy-3-methoxyphenyl)methyl]-2(3H)-furanone", "Epinortrachelogenin", "(-)-Epinortrachelogenin"], "SMILES": "C(C1C(CC2=CC(OC)=C(O)C=C2)(O)C(=O)OC1)C3=CC(OC)=C(O)C=C3", "physical_data": {"Molecular Weight": "374.38", "Molecular Formula": "C20H22O7", "Melting Point": "170-172 \u00b0C"}}