{"cas_no": "1251-84-9", "cn_name": "3,5,6,7,3',4'-\u516d\u7532\u6c27\u57fa\u9ec4\u916e", "en_name": ["3,5,6,7,3\u2032,4\u2032-Hexamethoxyflavone", "4H-1-Benzopyran-4-one, 2-(3,4-dimethoxyphenyl)-3,5,6,7-tetramethoxy-", "Flavone, 3,3\u2032,4\u2032,5,6,7-hexamethoxy-", "2-(3,4-Dimethoxyphenyl)-3,5,6,7-tetramethoxy-4H-1-benzopyran-4-one", "3,5,6,7,3\u2032,4\u2032-Hexamethoxyflavone", "Hexamethylquercetagetin", "Quercetagetin hexamethyl ether", "3,3\u2032,4\u2032,5,6,7-Hexamethoxyflavone", "Oxyayanin B trimethyl ether", "Hexa-O-methylquercetagetin", "NSC 678108", "Quercetogetin", "3\u2032,4\u2032,3,5,6,7-Hexamethoxyflavone"], "SMILES": "O(C)C1=C2C(OC(=C(OC)C2=O)C3=CC(OC)=C(OC)C=C3)=CC(OC)=C1OC", "physical_data": {"Molecular Weight": "402.39", "Molecular Formula": "C21H22O8", "Melting Point": "142-144 \u00b0C"}}