{"cas_no": "1251-85-0", "cn_name": "\u4e8c\u5b89\u66ff\u6bd4\u6797\u7532\u70f7", "en_name": ["Diantipyrylmethane", "3H-Pyrazol-3-one, 4,4\u2032-methylenebis[1,2-dihydro-1,5-dimethyl-2-phenyl-", "Antipyrine, 4,4\u2032-methylenedi-", "4,4\u2032-Methylenebis[1,2-dihydro-1,5-dimethyl-2-phenyl-3H-pyrazol-3-one]", "Diantipyrinylmethane", "Diantipyrylmethane", "Bisantipyrylmethane", "4,4\u2032-Diantipyrylmethane", "NSC 60670"], "SMILES": "O=C1N(N(C)C(C)=C1CC=2C(=O)N(N(C)C2C)C3=CC=CC=C3)C4=CC=CC=C4", "physical_data": {"Molecular Weight": "388.46", "Molecular Formula": "C23H24N4O2", "Melting Point": "178-179 \u00b0C"}}