{"cas_no": "125116-23-6", "cn_name": "\u53f6\u83cc\u5511", "en_name": ["Metconazole", "Cyclopentanol, 5-[(4-chlorophenyl)methyl]-2,2-dimethyl-1-(1H-1,2,4-triazol-1-ylmethyl)-", "5-[(4-Chlorophenyl)methyl]-2,2-dimethyl-1-(1H-1,2,4-triazol-1-ylmethyl)cyclopentanol", "Metconazole", "Caramba", "Quash", "Sunorg Pro", "Tourney", "Metlock, 5-[(4-chlorophenyl)methyl]-2,2-dimethyl-1-(1H-1,2,4-triazol-1-ylmethyl)-", "Metlock", "Dimetconazole", "Work-up Flowable"], "SMILES": "C(C1(O)C(CC2=CC=C(Cl)C=C2)CCC1(C)C)N3C=NC=N3", "physical_data": {"Molecular Weight": "319.83", "Molecular Formula": "C17H22ClN3O", "Boiling Point": "285 \u00b0C", "Melting Point": "111.5 \u00b0C"}}