{"cas_no": "125225-28-7", "cn_name": "\u79cd\u83cc\u5511\u6807\u51c6\u54c1", "en_name": ["Ipconazole", "Cyclopentanol, 2-[(4-chlorophenyl)methyl]-5-(1-methylethyl)-1-(1H-1,2,4-triazol-1-ylmethyl)-", "2-[(4-Chlorophenyl)methyl]-5-(1-methylethyl)-1-(1H-1,2,4-triazol-1-ylmethyl)cyclopentanol", "Ipconazole", "Vortex FL", "Rancona", "Vortex", "Vortex (fungicide)", "Lumiflex"], "SMILES": "C(C1(O)C(CC2=CC=C(Cl)C=C2)CCC1C(C)C)N3C=NC=N3", "physical_data": {"Molecular Weight": "333.86", "Molecular Formula": "C18H24ClN3O", "Melting Point": "89 \u00b0C"}}