{"cas_no": "125224-62-6", "cn_name": "(1S,4S)-2-\u7532\u57fa-2,5-\u4e8c\u6c2e\u4e8c\u73af[2.2.1]\u5e9a\u70f7\u4e8c\u6c22\u6eb4\u9178\u76d0", "en_name": ["2,5-Diazabicyclo[2.2.1]heptane, 2-methyl-, hydrobromide (1:2), (1S,4S)-", "2,5-Diazabicyclo[2.2.1]heptane, 2-methyl-, hydrobromide (1:2), (1S,4S)-", "2,5-Diazabicyclo[2.2.1]heptane, 2-methyl-, dihydrobromide, (1S)-", "2,5-Diazabicyclo[2.2.1]heptane, 2-methyl-, dihydrobromide, (1S,4S)-", "(1S,4S)-2-Methyl-2,5-diazabicyclo[2.2.1]heptane dihydrobromide", "(1S,4S)-2-Methyl-2,5-diazabicyclo[2.2.1]heptane dihydrobromide"], "SMILES": "CN1C2CC(C1)NC2.Br", "physical_data": {"Molecular Weight": "", "Molecular Formula": "C6H12N2.2BrH", "Melting Point": "258-259 \u00b0C"}}