{"cas_no": "125306-83-4", "cn_name": "\u82ef\u916e\u5511", "en_name": ["Cafenstrole", "1H-1,2,4-Triazole-1-carboxamide, N,N-diethyl-3-[(2,4,6-trimethylphenyl)sulfonyl]-", "N,N-Diethyl-3-[(2,4,6-trimethylphenyl)sulfonyl]-1H-1,2,4-triazole-1-carboxamide", "CH 900", "Cafenstrole", "Himeadow", "Grachitor", "Zuocaoan"], "SMILES": "S(=O)(=O)(C1=NN(C(N(CC)CC)=O)C=N1)C2=C(C)C=C(C)C=C2C", "physical_data": {"Molecular Weight": "350.44", "Molecular Formula": "C16H22N4O3S", "Melting Point": "115 \u00b0C"}}