{"cas_no": "1253-67-4", "cn_name": "N-[2-(\u7f9f\u57fa\u7532\u57fa)-2-\u82ef\u57fa\u4e01\u57fa]-3,4,5-\u4e09\u7532\u6c27\u57fa-N-\u4e19\u57fa\u82ef\u7532\u9170\u80fa", "en_name": ["N-[2-(Hydroxymethyl)-2-phenylbutyl]-3,4,5-trimethoxy-N-propylbenzamide", "Benzamide, N-[2-(hydroxymethyl)-2-phenylbutyl]-3,4,5-trimethoxy-N-propyl-", "Benzamide, N-[\u03b2-ethyl-\u03b2-(hydroxymethyl)phenethyl]-3,4,5-trimethoxy-N-propyl-", "N-[2-(Hydroxymethyl)-2-phenylbutyl]-3,4,5-trimethoxy-N-propylbenzamide"], "SMILES": "C(CN(C(=O)C1=CC(OC)=C(OC)C(OC)=C1)CCC)(CC)(CO)C2=CC=CC=C2", "physical_data": {"Molecular Weight": "415.52", "Molecular Formula": "C24H33NO5", "Melting Point": "125-126 \u00b0C"}}