{"cas_no": "125328-80-5", "cn_name": "N-(4-\u6eb4-3-\u6c2f-2-\u7532\u57fa\u82ef\u57fa)\u4e59\u9170\u80fa", "en_name": ["N-(4-Bromo-3-chloro-2-methylphenyl)acetamide", "Acetamide, N-(4-bromo-3-chloro-2-methylphenyl)-", "N-(4-Bromo-3-chloro-2-methylphenyl)acetamide"], "SMILES": "N(C(C)=O)C1=C(C)C(Cl)=C(Br)C=C1", "physical_data": {"Molecular Weight": "262.53", "Molecular Formula": "C9H9BrClNO", "Melting Point": "157 \u00b0C"}}