{"cas_no": "1253-84-5", "cn_name": "\u80c6\u753e\u70f7-3,5,6-\u4e09\u9187", "en_name": ["Cholestane-3\u03b2,5\u03b1,6\u03b2-triol", "Cholestane-3,5,6-triol, (3\u03b2,5\u03b1,6\u03b2)-", "5\u03b1-Cholestane-3\u03b2,5,6\u03b2-triol", "(3\u03b2,5\u03b1,6\u03b2)-Cholestane-3,5,6-triol", "Cholestane-3\u03b2,5\u03b1,6\u03b2-triol", "Cholesta-3\u03b2,5\u03b1,6\u03b2-triol", "3\u03b2,5\u03b1,6\u03b2-Trihydroxycholestane", "5\u03b1,6\u03b2-Dihydroxycholestanol", "3\u03b2-Hydroxycholestane-5\u03b1,6\u03b2-diol", "NSC 124751", "NSC 18178", "Cholestanetriol", "Cholestane-3,5,6-triol"], "SMILES": "CC12C3C(C4C(C)(CC3)C(C(CCCC(C)C)C)CC4)CC(O)C1(O)CC(O)CC2", "physical_data": {"Molecular Weight": "420.67", "Molecular Formula": "C27H48O3", "Melting Point": "217-218 \u00b0C"}}