{"cas_no": "125367-34-2", "cn_name": "BAPTA-\u56db\u7532\u916f", "en_name": ["N,N\u2032-[1,2-Ethanediylbis(oxy-2,1-phenylene)]bis[N-(2-methoxy-2-oxoethyl)glycine] 1,1\u2032-dimethyl ester", "Glycine, N,N\u2032-[1,2-ethanediylbis(oxy-2,1-phenylene)]bis[N-(2-methoxy-2-oxoethyl)-, 1,1\u2032-dimethyl ester", "Glycine, N,N\u2032-[1,2-ethanediylbis(oxy-2,1-phenylene)]bis[N-(2-methoxy-2-oxoethyl)-, dimethyl ester", "N,N\u2032-[1,2-Ethanediylbis(oxy-2,1-phenylene)]bis[N-(2-methoxy-2-oxoethyl)glycine] 1,1\u2032-dimethyl ester", "Tetramethyl 1,2-bis(2-aminophenoxy)ethane-N,N,N\u2032,N\u2032-tetraacetate"], "SMILES": "N(CC(OC)=O)(CC(OC)=O)C1=C(OCCOC2=C(N(CC(OC)=O)CC(OC)=O)C=CC=C2)C=CC=C1", "physical_data": {"Molecular Weight": "532.54", "Molecular Formula": "C26H32N2O10", "Melting Point": "87-89 \u00b0C"}}