{"cas_no": "1253-28-7", "cn_name": "\u5df1\u9178\u5404\u53f8\u5b55\u753e\u9187", "en_name": ["Gestonorone caproate", "19-Norpregn-4-ene-3,20-dione, 17-[(1-oxohexyl)oxy]-", "19-Norpregn-4-ene-3,20-dione, 17-hydroxy-, hexanoate", "Hexanoic acid, ester with 17-hydroxy-19-norpregn-4-ene-3,20-dione", "17-[(1-Oxohexyl)oxy]-19-norpregn-4-ene-3,20-dione", "Gestonorone caproate", "17-Hydroxy-19-norpregn-4-ene-3,20-dione hexanoate", "19-Norpregn-4-ene-3,20-dione 17-caproate", "Gestonorone capronate", "Depostat", "Gestronol hexanoate", "17\u03b1-Hydroxy-19-norprogesterone capronate", "17\u03b1-Hydroxy-19-norprogesterone caproate", "SH 80582", "SH 582", "17\u03b2-Acetyl-17-hydroxyestr-4-ene-3-one hexanoate", "Gestronol caproate", "19-Nor-17\u03b1-caproyloxy-4-pregnene-3,20-dione", "Primostat", "ZK 5623", "NSC 84054", "Gestonorone hexanoate"], "SMILES": "O(C(CCCCC)=O)C1(C(C)=O)C2(C)C(CC1)C3C(CC2)C4C(CC3)=CC(=O)CC4", "physical_data": {"Molecular Weight": "414.58", "Molecular Formula": "C26H38O4", "Melting Point": "123.5 \u00b0C"}}