{"cas_no": "125317-39-7", "cn_name": "\u9152\u77f3\u9178\u957f\u6625\u745e\u6ee8", "en_name": ["Navelbine", "Aspidospermidine-3-carboxylic acid, 4-(acetyloxy)-6,7-didehydro-15-[(2R,6R,8S)-4-ethyl-1,3,6,7,8,9-hexahydro-8-(methoxycarbonyl)-2,6-methano-2H-azecino[4,3-b]indol-8-yl]-3-hydroxy-16-methoxy-1-methyl-, methyl ester, (2\u03b2,3\u03b2,4\u03b2,5\u03b1,12R,19\u03b1)-, (2R,3R)-2,3-dihydroxybutanedioate (1:2) (salt)", "C\u2032-Norvincaleukoblastine, 3\u2032,4\u2032-didehydro-4\u2032-deoxy-, [R-(R*,R*)]-2,3-dihydroxybutanedioate (1:2) (salt)", "Vinorelbine ditartrate", "KW 2307", "Navelbine ditartrate", "Vinorelbine tartrate", "Navelbine", "Nor-5\u2032-anhydrovinblastine ditartrate", "Aspidospermidine-3-carboxylic acid, 4-(acetyloxy)-6,7-didehydro-15-[(2R,6R,8S)-4-ethyl-1,3,6,7,8,9-hexahydro-8-(methoxycarbonyl)-2,6-methano-2H-azecino[4,3-b]indol-8-yl]-3-hydroxy-16-methoxy-1-methyl-, methyl ester, (2\u03b2,3\u03b2,4\u03b2,5\u03b1,12\u03b2,19\u03b1)-, (2R,3R)-2,3-dihydroxybutanedioate (1:2) (salt)", "3\u2032,4\u2032-Didehydro-4\u2032-deoxy-C\u2032-norvincaleukoblastine tartrate"], "SMILES": "C(C(C(O)=O)O)(C(O)=O)O.C(C)C12C3C4(C(C(C(OC)=O)(O)C1OC(C)=O)N(C)C=5C4=CC(=C(OC)C5)C6(C(OC)=O)C7=C(C=8C(N7)=CC=CC8)CN9CC(C6)C=C(CC)C9)CCN3CC=C2", "physical_data": {"Molecular Weight": "", "Molecular Formula": "C45H54N4O8.2C4H6O6", "Melting Point": "190 \u00b0C"}}