{"cas_no": "125401-75-4", "cn_name": "\u53cc\u8349\u919a", "en_name": ["Bispyribac", "Benzoic acid, 2,6-bis[(4,6-dimethoxy-2-pyrimidinyl)oxy]-", "2,6-Bis[(4,6-dimethoxy-2-pyrimidinyl)oxy]benzoic acid", "Bispyribac"], "SMILES": "C(O)(=O)C1=C(OC=2N=C(OC)C=C(OC)N2)C=CC=C1OC=3N=C(OC)C=C(OC)N3", "physical_data": {"Molecular Weight": "430.37", "Molecular Formula": "C19H18N4O8", "Melting Point": "148-150 \u00b0C"}}