{"cas_no": "125464-42-8", "cn_name": "3-\u6c28\u57fa-2-(4-\u6c2f\u82ef\u57fa-\u4e19\u70f7\u78fa\u9178", "en_name": ["Saclofen", "Benzeneethanesulfonic acid, \u03b2-(aminomethyl)-4-chloro-", "\u03b2-(Aminomethyl)-4-chlorobenzeneethanesulfonic acid", "Saclofen", "3-Amino-2-(4-chlorophenyl)propane-1-sulfonic acid"], "SMILES": "C(CS(=O)(=O)O)(CN)C1=CC=C(Cl)C=C1", "physical_data": {"Molecular Weight": "249.71", "Molecular Formula": "C9H12ClNO3S", "Melting Point": "310-315 \u00b0C (decomp)"}}