{"cas_no": "125401-92-5", "cn_name": "\u53cc\u8349\u919a\u94a0\u76d0", "en_name": ["Bispyribac-sodium", "Benzoic acid, 2,6-bis[(4,6-dimethoxy-2-pyrimidinyl)oxy]-, sodium salt (1:1)", "Benzoic acid, 2,6-bis[(4,6-dimethoxy-2-pyrimidinyl)oxy]-, sodium salt", "KIH 2023", "Bispyribac-sodium", "V 10029", "Nominee", "Regiment", "Designee", "Short-keep", "Nominee 400SC", "Adora", "Nominee KZ"], "SMILES": "C(O)(=O)C1=C(OC=2N=C(OC)C=C(OC)N2)C=CC=C1OC=3N=C(OC)C=C(OC)N3.[Na]", "physical_data": {"Molecular Weight": "", "Molecular Formula": "C19H18N4O8.Na", "Melting Point": "235-237 \u00b0C"}}