{"cas_no": "125494-59-9", "cn_name": "\u76d0\u9178\u897f\u5e03\u66f2\u660e\u5355\u6c34\u5408\u7269", "en_name": ["Sibutramine hydrochloride monohydrate", "Cyclobutanemethanamine, 1-(4-chlorophenyl)-N,N-dimethyl-\u03b1-(2-methylpropyl)-, hydrochloride, hydrate (1:1:1)", "Cyclobutanemethanamine, 1-(4-chlorophenyl)-N,N-dimethyl-\u03b1-(2-methylpropyl)-, hydrochloride, monohydrate", "Sibutramine hydrochloride monohydrate", "1-(1-(4-Chlorophenyl)cyclobutyl)-N,N,3-trimethylbutan-1-amine hydrochloride hydrate"], "SMILES": "C(CC(C)C)(N(C)C)C1(CCC1)C2=CC=C(Cl)C=C2.Cl.O", "physical_data": {"Molecular Weight": "", "Molecular Formula": "C17H26ClN.ClH.H2O", "Melting Point": "193-195.5 \u00b0C"}}