{"cas_no": "1255-49-8", "cn_name": "\u82ef\u4e19\u9178\u777e\u916e", "en_name": ["Testosterone phenylpropionate", "Androst-4-en-3-one, 17-(1-oxo-3-phenylpropoxy)-, (17\u03b2)-", "Testosterone, hydrocinnamate", "Hydrocinnamic acid, ester with testosterone", "(17\u03b2)-17-(1-Oxo-3-phenylpropoxy)androst-4-en-3-one", "Hydrocinnamic acid, testosterone ester", "Testosterone phenylpropionate", "3-Oxoandrost-4-en-17\u03b2-yl \u03b2-phenylpropionate", "Testosterone 17-phenylpropionate", "Retandrol", "Testosterone phenpropionate", "Androject", "NSC 26643", "Testosterone phenylpropanoate"], "SMILES": "CC12C3C(C4C(C)(CC3)C(OC(CCC5=CC=CC=C5)=O)CC4)CCC1=CC(=O)CC2", "physical_data": {"Molecular Weight": "420.58", "Molecular Formula": "C28H36O3", "Melting Point": "116.5 \u00b0C"}}