{"cas_no": "1255580-76-7", "cn_name": "UNC0638", "en_name": ["2-Cyclohexyl-6-methoxy-N-[1-(1-methylethyl)-4-piperidinyl]-7-[3-(1-pyrrolidinyl)propoxy]-4-quinazolinamine", "4-Quinazolinamine, 2-cyclohexyl-6-methoxy-N-[1-(1-methylethyl)-4-piperidinyl]-7-[3-(1-pyrrolidinyl)propoxy]-", "2-Cyclohexyl-6-methoxy-N-[1-(1-methylethyl)-4-piperidinyl]-7-[3-(1-pyrrolidinyl)propoxy]-4-quinazolinamine", "UNC 0638", "2-Cyclohexyl-N-(1-isopropylpiperidin-4-yl)-6-methoxy-7-(3-(pyrrolidin-1-yl)propoxy) quinazolin-4-amine", "2-Cyclohexyl-6-methoxy-N-(1-propan-2-ylpiperidin-4-yl)-7-(3-pyrrolidin-1-ylpropoxy)quinazolin-4-amine"], "SMILES": "N(C=1C2=C(N=C(N1)C3CCCCC3)C=C(OCCCN4CCCC4)C(OC)=C2)C5CCN(C(C)C)CC5", "physical_data": {"Molecular Weight": "509.73", "Molecular Formula": "C30H47N5O2", "Melting Point": "93-94 \u00b0C"}}