{"cas_no": "1256359-15-5", "cn_name": "1-(\u53d4\u4e01\u57fa)-4-(4,4,5,5-\u56db\u7532\u57fa-1,3,2-\u4e8c\u6c27\u787c\u6742\u73af\u620a\u70f7-2-\u57fa)\u5421\u5511", "en_name": ["1-(1,1-Dimethylethyl)-4-(4,4,5,5-tetramethyl-1,3,2-dioxaborolan-2-yl)-1H-pyrazole", "1H-Pyrazole, 1-(1,1-dimethylethyl)-4-(4,4,5,5-tetramethyl-1,3,2-dioxaborolan-2-yl)-", "1-(1,1-Dimethylethyl)-4-(4,4,5,5-tetramethyl-1,3,2-dioxaborolan-2-yl)-1H-pyrazole", "1-tert-Butyl-4-(4,4,5,5-tetramethyl-1,3,2-dioxaborolan-2-yl)-1H-pyrazole", "1-tert-Butyl-4-(4,4,5,5-tetramethyl-1,3,2-dioxaborolan-2-yl)pyrazole", "1-Tert-butyl-4-(4,4,5,5-tetramethyl-1,3,2-dioxaborolan-2-yl)1H-pyrazole", "(1-(tert-Butyl)-1H-pyrazol-4-yl)boronic acid pinacol ester", "1-tert-Butyl-4-(tetramethyl-1,3,2-dioxaborolan-2-yl)-1H-pyrazole"], "SMILES": "CC1(C)OB(OC1(C)C)C2=CN(C(C)(C)C)N=C2", "physical_data": {"Molecular Weight": "250.14", "Molecular Formula": "C13H23BN2O2", "Melting Point": "100-102 \u00b0C"}}