{"cas_no": "1256781-64-2", "cn_name": "2,5-\u4e8c\u6eb4\u82ef\u787c\u9178\u9891\u54ea\u9187\u916f", "en_name": ["2-(2,5-Dibromophenyl)-4,4,5,5-tetramethyl-1,3,2-dioxaborolane", "1,3,2-Dioxaborolane, 2-(2,5-dibromophenyl)-4,4,5,5-tetramethyl-", "2-(2,5-Dibromophenyl)-4,4,5,5-tetramethyl-1,3,2-dioxaborolane"], "SMILES": "BrC1=C(B2OC(C)(C)C(C)(C)O2)C=C(Br)C=C1", "physical_data": {"Molecular Weight": "361.87", "Molecular Formula": "C12H15BBr2O2", "Melting Point": "54-56 \u00b0C"}}