{"cas_no": "1257-08-5", "cn_name": "\u8868\u513f\u8336\u7d20\u6ca1\u98df\u5b50\u9178\u916f", "en_name": ["Epicatechin gallate", "Benzoic acid, 3,4,5-trihydroxy-, (2R,3R)-2-(3,4-dihydroxyphenyl)-3,4-dihydro-5,7-dihydroxy-2H-1-benzopyran-3-yl ester", "Epicatechol, 3-gallate, (-)-", "Benzoic acid, 3,4,5-trihydroxy-, 2-(3,4-dihydroxyphenyl)-3,4-dihydro-5,7-dihydroxy-2H-1-benzopyran-3-yl ester, (2R-cis)-", "Epicatechol, gallate", "Gallic acid, 3-ester with epicatechol, (-)-", "(-)-Epicatechol gallate", "(-)-Epicatechin 3-gallate", "(-)-Epicatechin gallate", "(-)-Epicatechin 3-O-gallate", "3-O-Galloyl-(-)-epicatechin", "3-Galloyl-(-)-epicatechin", "L-Epicatechin gallate", "3-O-Galloylepicatechin", "epi-Catechin 3-O-gallate", "(-)-epi-Catechin 3-O-gallate", "Epicatechol 3-gallate", "Epicatechin gallate", "Epicatechin 3-O-gallate", "L-ECG", "ECG", "3-Galloyl-(2R,3R)-(-)-Epicatechin"], "SMILES": "O(C(=O)C1=CC(O)=C(O)C(O)=C1)C2C(OC=3C(C2)=C(O)C=C(O)C3)C4=CC(O)=C(O)C=C4", "physical_data": {"Molecular Weight": "442.37", "Molecular Formula": "C22H18O10", "Melting Point": "231 \u00b0C"}}