{"cas_no": "125814-23-5", "cn_name": "Z-L-\u4e19\u6c28\u9178-N-\u7fa7\u57fa-\u73af\u5185\u9178\u9150", "en_name": ["Phenylmethyl (4S)-4-methyl-2,5-dioxo-3-oxazolidinecarboxylate", "3-Oxazolidinecarboxylic acid, 4-methyl-2,5-dioxo-, phenylmethyl ester, (4S)-", "3-Oxazolidinecarboxylic acid, 4-methyl-2,5-dioxo-, phenylmethyl ester, (S)-", "Phenylmethyl (4S)-4-methyl-2,5-dioxo-3-oxazolidinecarboxylate", "(S)-3-Benzyloxycarbonyl-4-methyl-2,5-oxazolidinedione", "Benzyl (S)-4-methyl-2,5-dioxo-1,3-oxazolidine-3-carboxylate", "(S)-Benzyl 4-methyl-2,5-dioxooxazolidine-3-carboxylate"], "SMILES": "C(OCC1=CC=CC=C1)(=O)N2C(C)C(=O)OC2=O", "physical_data": {"Molecular Weight": "249.22", "Molecular Formula": "C12H11NO5", "Melting Point": "101-104 \u00b0C"}}