{"cas_no": "125971-57-5", "cn_name": "2-(\u82ef\u7532\u6491)-3-\u6c27\u4ee3-4-\u7532\u57fa-N-\u82ef\u57fa-\u620a\u9170\u80fa", "en_name": ["4-Methyl-3-oxo-N-phenyl-2-(phenylmethylene)pentanamide", "Pentanamide, 4-methyl-3-oxo-N-phenyl-2-(phenylmethylene)-", "4-Methyl-3-oxo-N-phenyl-2-(phenylmethylene)pentanamide", "2-Isobutyryl-N-phenyl-3-phenylacrylamide"], "SMILES": "C(=CC1=CC=CC=C1)(C(NC2=CC=CC=C2)=O)C(C(C)C)=O", "physical_data": {"Molecular Weight": "293.36", "Molecular Formula": "C19H19NO2", "Melting Point": "190-193 \u00b0C"}}