{"cas_no": "125971-96-2", "cn_name": "\u963f\u6258\u4f10\u4ed6\u6c40\u4e2d\u95f4\u4f53M4", "en_name": ["2-[2-(4-Fluorophenyl)-2-oxo-1-phenylethyl]-4-methyl-3-oxopentanoic acid phenylamide", "Benzenebutanamide, 4-fluoro-\u03b1-(2-methyl-1-oxopropyl)-\u03b3-oxo-N,\u03b2-diphenyl-", "4-Fluoro-\u03b1-(2-methyl-1-oxopropyl)-\u03b3-oxo-N,\u03b2-diphenylbenzenebutanamide", "2-[2-(4-Fluorophenyl)-2-oxo-1-phenylethyl]-4-methyl-3-oxopentanoic acid phenylamide", "2-[2-(4-Fluorophenyl)-2-oxo-1-phenylethyl]-4-methyl-3-oxo-N-phenylpentanamide"], "SMILES": "C(C(C(NC1=CC=CC=C1)=O)C(C(C)C)=O)(C(=O)C2=CC=C(F)C=C2)C3=CC=CC=C3", "physical_data": {"Molecular Weight": "417.47", "Molecular Formula": "C26H24FNO3", "Melting Point": "206-209 \u00b0C"}}