{"cas_no": "1259-35-4", "cn_name": "\u4e09(\u4e94\u6c1f\u82ef\u57fa)\u81a6", "en_name": ["Tris(pentafluorophenyl)phosphine", "Phosphine, tris(2,3,4,5,6-pentafluorophenyl)-", "Phosphine, tris(pentafluorophenyl)-", "Tris(2,3,4,5,6-pentafluorophenyl)phosphine", "Tris(pentafluorophenyl)phosphine", "MLO 74-62", "Tris(perfluorophenyl)phosphine"], "SMILES": "P(C1=C(F)C(F)=C(F)C(F)=C1F)(C2=C(F)C(F)=C(F)C(F)=C2F)C3=C(F)C(F)=C(F)C(F)=C3F", "physical_data": {"Molecular Weight": "532.14", "Molecular Formula": "C18F15P", "Melting Point": "114-115 \u00b0C"}}