{"cas_no": "125995-03-1", "cn_name": "\u963f\u6258\u4f10\u4ed6\u6c40\u5185\u916f", "en_name": ["Atorvastatin lactone", "1H-Pyrrole-3-carboxamide, 5-(4-fluorophenyl)-2-(1-methylethyl)-N,4-diphenyl-1-[2-[(2R,4R)-tetrahydro-4-hydroxy-6-oxo-2H-pyran-2-yl]ethyl]-", "1H-Pyrrole-3-carboxamide, 5-(4-fluorophenyl)-2-(1-methylethyl)-N,4-diphenyl-1-[2-(tetrahydro-4-hydroxy-6-oxo-2H-pyran-2-yl)ethyl]-, (2R-trans)-", "5-(4-Fluorophenyl)-2-(1-methylethyl)-N,4-diphenyl-1-[2-[(2R,4R)-tetrahydro-4-hydroxy-6-oxo-2H-pyran-2-yl]ethyl]-1H-pyrrole-3-carboxamide", "Atorvastatin lactone", "Atorvastatin \u03b4-lactone", "5-(4-Fluorophenyl)-1-[2-[(2R,4R)-4-hydroxy-6-oxotetrahydropyran-2-yl]ethyl]-2-isopropyl-4-phenyl-1H-pyrrole-3-carboxylic acid phenylamide"], "SMILES": "C(NC1=CC=CC=C1)(=O)C=2C(=C(N(CCC3CC(O)CC(=O)O3)C2C(C)C)C4=CC=C(F)C=C4)C5=CC=CC=C5", "physical_data": {"Molecular Weight": "540.62", "Molecular Formula": "C33H33FN2O4", "Melting Point": "160-162 \u00b0C"}}