{"cas_no": "126-86-3", "cn_name": "2,4,7,9-\u56db\u7532\u57fa-5-\u7678\u7094-4,7-\u4e8c\u9187", "en_name": ["2,4,7,9-Tetramethyl-5-decyne-4,7-diol", "5-Decyne-4,7-diol, 2,4,7,9-tetramethyl-", "2,4,7,9-Tetramethyl-5-decyne-4,7-diol", "Surfynol 104", "Surfynol 104A", "Surfynol 104E", "1,4-Diisobutyl-1,4-dimethylbutynediol", "Surfynol TG", "Surfynol 104H", "Surfynol 104PA", "Olfine STG-E", "Surfynol CT 111", "Surfynol 104BC", "NSC 5630", "Olfine AK 02", "2,4,7,9-Tetramethyl-5-decyn-4,7-diol", "Acetylenol E 00", "Olfine PD 301", "PD 301", "104E", "Zetasperse 1200", "Surfynol PG 50", "LA-W 1092", "Olfine PD 001", "104H", "Surfadol 541", "TMDDO", "TMDD", "GS 850PA", "Tuyile FS 204", "Surfynol DF 104E", "PD 001", "104BC", "Surfadol 541DPM", "DF 104E"], "SMILES": "C(C#CC(CC(C)C)(C)O)(CC(C)C)(C)O", "physical_data": {"Molecular Weight": "226.35", "Molecular Formula": "C14H26O2", "Boiling Point": "153-157 \u00b0C @ Press: 20 Torr", "Melting Point": "56-60 \u00b0C"}}