{"cas_no": "126-14-7", "cn_name": "\u8517\u7cd6\u516b\u4e59\u9178\u916f", "en_name": ["Octaacetyl sucrose", "\u03b1-D-Glucopyranoside, 1,3,4,6-tetra-O-acetyl-\u03b2-D-fructofuranosyl, 2,3,4,6-tetraacetate", "Sucrose, octaacetate", "\u03b1-D-Glucopyranoside, 1,3,4,6-tetra-O-acetyl-\u03b2-D-fructofuranosyl, tetraacetate", "Octaacetyl sucrose", "2,3,4,6,1\u2032,3\u2032,4\u2032,6\u2032-Octa-O-acetylsucrose", "Octa-O-acetylsucrose", "Saccharose octaacetate", "NSC 1695", "Monopet SOA"], "SMILES": "O(C1(COC(C)=O)C(OC(C)=O)C(OC(C)=O)C(COC(C)=O)O1)C2C(OC(C)=O)C(OC(C)=O)C(OC(C)=O)C(COC(C)=O)O2", "physical_data": {"Molecular Weight": "678.59", "Molecular Formula": "C28H38O19", "Boiling Point": "0.180-5 \u00b0C @ Press: 1 x 10<sup>-4</sup> Torr", "Melting Point": "86.5 \u00b0C", "Density": "1.335 g/cm\u00b3"}}