{"cas_no": "126-98-7", "cn_name": "\u7532\u57fa\u4e19\u70ef\u8148", "en_name": ["Methacrylonitrile", "2-Propenenitrile, 2-methyl-", "Methacrylonitrile", "2-Methyl-2-propenenitrile", "Isopropene cyanide", "Isopropenylnitrile", "\u03b1-Methylacrylonitrile", "2-Methylpropenenitrile", "2-Cyano-1-propene", "2-Cyanopropene", "\u03b1-Methacrylonitrile", "Methylacrylonitrile", "2-Methylacrylonitrile", "Methacrylnitrile", "1-Methylethenyl cyanide", "Isobutenenitrile", "NSC 24145"], "SMILES": "C(C#N)(C)=C", "physical_data": {"Molecular Weight": "67.09", "Molecular Formula": "C4H5N", "Boiling Point": "90.3 \u00b0C @ Press: 760 Torr", "Melting Point": "-35.8 \u00b0C", "Density": "0.8001 g/cm\u00b3 @ Temp: 20 \u00b0C"}}