{"cas_no": "126-27-2", "cn_name": "\u5965\u6614\u5361\u56e0", "en_name": ["Oxethazaine", "Acetamide, 2,2\u2032-[(2-hydroxyethyl)imino]bis[N-(1,1-dimethyl-2-phenylethyl)-N-methyl-", "Acetamide, 2,2\u2032-[(2-hydroxyethyl)imino]bis[N-(\u03b1,\u03b1-dimethylphenethyl)-N-methyl-", "2,2\u2032-[(2-Hydroxyethyl)imino]bis[N-(1,1-dimethyl-2-phenylethyl)-N-methylacetamide]", "FH 099", "Wy 806", "Betalgil", "2-Di(N-methyl-N-phenyl-tert-butyl-carbamoylmethyl)aminoethanol", "2,2\u2032-[(2-Hydroxyethyl)imino]bis[N-(\u03b1,\u03b1-dimethylphenethyl)-N-methylacetamide]", "Oxaine", "Oxethazaine", "Mucoxin", "Oxetacaine", "Storocain", "Storocaine", "Topicain", "2-[2-Hydroxyethyl-[2-[methyl-(2-methyl-1-phenylpropan-2-yl)amino]-2-oxoethyl]amino]-N-methyl-N-(2-methyl-1-phenylpropan-2-yl)acetamide"], "SMILES": "C(N(C(CN(CC(N(C(CC1=CC=CC=C1)(C)C)C)=O)CCO)=O)C)(CC2=CC=CC=C2)(C)C", "physical_data": {"Molecular Weight": "467.64", "Molecular Formula": "C28H41N3O3", "Melting Point": "104 \u00b0C"}}