{"cas_no": "126-00-1", "cn_name": "\u53cc\u915a\u9178", "en_name": ["4,4\u2032-Bis(4-hydroxyphenyl)valeric acid", "Benzenebutanoic acid, 4-hydroxy-\u03b3-(4-hydroxyphenyl)-\u03b3-methyl-", "Valeric acid, 4,4-bis(p-hydroxyphenyl)-", "4-Hydroxy-\u03b3-(4-hydroxyphenyl)-\u03b3-methylbenzenebutanoic acid", "4,4-Bis(p-hydroxyphenyl)pentanoic acid", "4,4-Bis(4-hydroxyphenyl)pentanoic acid", "\u03b3,\u03b3-Bis(p-hydroxyphenyl)valeric acid", "4,4-Bis(p-hydroxyphenyl)valeric acid", "Diphenolic acid", "DPA", "4,4-Bis(4-hydroxyphenyl)valeric acid", "4,4-Bis(4-hydroxyphenyl)pentanic acid", "4,4\u2032-Bis(4-hydroxyphenyl)valeric acid", "NSC 3371", "NSC 34824", "NSC 55069", "Bisphenol acid", "D 1274"], "SMILES": "C(CCC(O)=O)(C)(C1=CC=C(O)C=C1)C2=CC=C(O)C=C2", "physical_data": {"Molecular Weight": "286.32", "Molecular Formula": "C17H18O4", "Melting Point": "171.5 \u00b0C"}}