{"cas_no": "126-75-0", "cn_name": "\u5185\u5438\u78f7-S", "en_name": ["Demeton-S", "Phosphorothioic acid, O,O-diethyl S-[2-(ethylthio)ethyl] ester", "Demeton-S", "Isosystox", "Thioldemeton", "O,O-Diethyl S-[2-(ethylthio)ethyl] phosphorothioate", "Ethylthionodemeton", "Systox-thiol", "Demetonthiol", "Demeton thiolo", "O,O-Diethyl S-[2-(ethylthio)ethyl] thiophosphate", "1-Diethoxyphosphorylsulfanyl-2-ethylsulfanylethane", "Mercaptophos thiol"], "SMILES": "P(SCCSCC)(OCC)(OCC)=O", "physical_data": {"Molecular Weight": "258.34", "Molecular Formula": "C8H19O3PS2", "Boiling Point": "128 \u00b0C @ Press: 1 Torr", "Melting Point": "95-97 \u00b0C", "Density": "1.132 g/cm\u00b3 @ Temp: 21 \u00b0C"}}