{"cas_no": "126-64-7", "cn_name": "3,7-\u4e8c\u7532\u57fa-1,6-\u8f9b\u4e8c\u70ef-3-\u9187\u82ef\u7532\u9178\u916f", "en_name": ["Linalyl benzoate", "1,6-Octadien-3-ol, 3,7-dimethyl-, 3-benzoate", "1,6-Octadien-3-ol, 3,7-dimethyl-, benzoate", "Linalool, benzoate", "3,7-Dimethyl-1,6-octadien-3-ol benzoate", "3,7-Dimethyl-1,6-octadien-3-yl benzoate", "Linalyl benzoate", "NSC 71926"], "SMILES": "C(OC(=O)C1=CC=CC=C1)(CCC=C(C)C)(C=C)C", "physical_data": {"Molecular Weight": "258.36", "Molecular Formula": "C17H22O2", "Boiling Point": "263 \u00b0C"}}