{"cas_no": "126-91-0", "cn_name": "(R)-3,7-\u4e8c\u7532\u57fa-1,6-\u8f9b\u4e8c\u70ef-3-\u9187", "en_name": ["(-)-Linalool", "1,6-Octadien-3-ol, 3,7-dimethyl-, (3R)-", "1,6-Octadien-3-ol, 3,7-dimethyl-, (R)-(-)-", "1,6-Octadien-3-ol, 3,7-dimethyl-, (R)-", "(3R)-3,7-Dimethyl-1,6-octadien-3-ol", "(-)-3,7-Dimethyl-1,6-octadien-3-ol", "Licareol", "l-Licareol", "l-Linalool", "(R)-Linalool", "(-)-Linalool", "(3R)-(-)-Linalool", "(R)-(-)-Linalool", "(-)-(3R)-Linalool", "(-)-Licareol", "(3R)-Linalool", "(-)-\u03b2-Linalool", "(3R)-3,7-Dimethylocta-1,6-dien-3-ol"], "SMILES": "C(CCC=C(C)C)(C=C)(C)O", "physical_data": {"Molecular Weight": "154.25", "Molecular Formula": "C10H18O", "Boiling Point": "80 \u00b0C", "Density": "0.8657 g/cm\u00b3 @ Temp: 20 \u00b0C"}}