{"cas_no": "126-06-7", "cn_name": "3-\u6eb4-1-\u6c2f-5,5-\u4e8c\u7532\u57fa\u6d77\u56e0", "en_name": ["3-Bromo-1-chloro-5,5-dimethylhydantoin", "2,4-Imidazolidinedione, 3-bromo-1-chloro-5,5-dimethyl-", "Hydantoin, 3-bromo-1-chloro-5,5-dimethyl-", "3-Bromo-1-chloro-5,5-dimethyl-2,4-imidazolidinedione", "1-Chloro-3-bromo-5,5-dimethylhydantoin", "3-Bromo-1-chloro-5,5-dimethylhydantoin"], "SMILES": "CC1(C)C(=O)N(Br)C(=O)N1Cl", "physical_data": {"Molecular Weight": "241.47", "Molecular Formula": "C5H6BrClN2O2", "Melting Point": "163-164 \u00b0C"}}