{"cas_no": "126-81-8", "cn_name": "5,5-\u4e8c\u7532\u57fa-1,3-\u73af\u5df1\u4e8c\u916e", "en_name": ["Dimedone", "1,3-Cyclohexanedione, 5,5-dimethyl-", "5,5-Dimethyl-1,3-cyclohexanedione", "Cyclomethone", "Dimedon", "Dimedone", "1,1-Dimethyl-3,5-cyclohexanedione", "5,5-Dimethyldihydroresorcinol", "1,1-Dimethyl-3,5-diketocyclohexane", "Medon", "Methone", "Lu 274", "5,5-Dimethylhydroresorcinol", "Methon", "NSC 14984", "NSC 17544", "NSC 242994", "NSC 43759", "5,5-Dimethyl-1,3-cyclohexandione", "5,5-Dimethyl-1,3-dioxocyclohexane"], "SMILES": "CC1(C)CC(=O)CC(=O)C1", "physical_data": {"Molecular Weight": "140.18", "Molecular Formula": "C8H12O2", "Melting Point": "150 \u00b0C (decomp)"}}