{"cas_no": "126-99-8", "cn_name": "2-\u6c2f-1,3-\u4e01\u4e8c\u70ef", "en_name": ["Chloroprene", "1,3-Butadiene, 2-chloro-", "2-Chloro-1,3-butadiene", "Chloroprene", "2-Chlorobutadiene", "\u03b2-Chloroprene", "NSC 18589", "2-Chloro-1,3-buatdiene", "MeSH ID: D002737"], "SMILES": "C(C=C)(=C)Cl", "physical_data": {"Molecular Weight": "88.54", "Molecular Formula": "C4H5Cl", "Boiling Point": "59.4 \u00b0C", "Melting Point": "-130 \u00b0C", "Density": "0.956 g/cm\u00b3 @ Temp: 20 \u00b0C"}}