{"cas_no": "126-33-0", "cn_name": "\u73af\u4e01\u781c", "en_name": ["Sulfolane", "Thiophene, tetrahydro-, 1,1-dioxide", "Cyclic tetramethylene sulfone", "Cyclotetramethylene sulfone", "Sulfolan", "Sulfolane", "Tetrahydrothiophene 1,1-dioxide", "Tetramethylene sulfone", "1,1-Dioxothiolan", "Bondolane A", "Thiacyclopentane dioxide", "Tetrahydrothiophene dioxide", "Sulpholane", "Thiophane dioxide", "Bondelane A", "Thiophane 1,1-dioxide", "Thiolane 1,1-dioxide", "Tetrahydrothiophene S,S-dioxide", "NSC 46443", "Sulfolane SG", "1\u03bb6-Thiolane-1,1-dione"], "SMILES": "O=S1(=O)CCCC1", "physical_data": {"Molecular Weight": "120.17", "Molecular Formula": "C4H8O2S", "Boiling Point": "285 \u00b0C", "Melting Point": "27.4-27.8 \u00b0C", "Density": "1.2606 g/cm\u00b3 @ Temp: 30 \u00b0C"}}