{"cas_no": "126-38-5", "cn_name": "1-\u6eb4-2,2-\u4e8c\u7532\u6c27\u57fa\u4e19\u70f7", "en_name": ["1-Bromo-2,2-dimethoxypropane", "Propane, 1-bromo-2,2-dimethoxy-", "2-Propanone, bromo-, dimethyl acetal", "1-Bromo-2,2-dimethoxypropane", "Bromoacetone dimethyl ketal"], "SMILES": "C(CBr)(OC)(OC)C", "physical_data": {"Molecular Weight": "183.04", "Molecular Formula": "C5H11BrO2", "Boiling Point": "81-83 \u00b0C @ Press: 70 Torr"}}