{"cas_no": "126-73-8", "cn_name": "\u78f7\u9178\u4e09\u4e01\u916f", "en_name": ["Tributyl phosphate", "Phosphoric acid tributyl ester", "Butyl phosphate ((BuO)3PO)", "Tributyl phosphate", "Celluphos 4", "Tri-n-butyl phosphate", "TBP", "Disflamoll TB", "Tributoxyphosphine oxide", "TBPA", "Calloway 6814", "NSC 8484", "Phosflex 4", "Phosphoric acid, tributyl ester", "Degressal SD 40", "Moussex 941PL", "941PL", "X 8054", "DL 1157", "DU 155"], "SMILES": "P(OCCCC)(OCCCC)(OCCCC)=O", "physical_data": {"Molecular Weight": "266.31", "Molecular Formula": "C12H27O4P", "Boiling Point": "177-178 \u00b0C @ Press: 27 Torr", "Melting Point": "&lt;-80 \u00b0C", "Density": "0.976 g/cm\u00b3 @ Temp: 25 \u00b0C"}}