{"cas_no": "126-58-9", "cn_name": "\u53cc\u5b63\u620a\u56db\u9187", "en_name": ["Dipentaerythritol", "1,3-Propanediol, 2,2\u2032-[oxybis(methylene)]bis[2-(hydroxymethyl)-", "Dipentaerythritol", "2,2\u2032-[Oxybis(methylene)]bis[2-(hydroxymethyl)-1,3-propanediol]", "Bis(pentaerythritol)", "Dipentek", "Dipentalide", "Dipentarit SP", "Di-Pentarit 300", "NSC 65881", "Di-Pentarit", "Charmor DP 15", "Charmor DP 40", "Di-Penta 93", "2,2,6,6-Tetrakis(hydroxymethyl)-4-oxaheptane-1,7-diol", "Neulizer N", "Holtac D", "LK 48952", "DPER-HY", "D 806414", "2,2\u2032-(Oxybis(methylene))bis(2-(hydroxymethyl)propane-1,3-diol)", "Dipenta 85", "Dipenta 90", "2,2,2\u2032,2\u2032-Tetrakis(hydroxymethyl)-3,3\u2032-oxydipropan-1-ol", "2-[[3-Hydroxy-2,2-bis(hydroxymethyl)propoxy]methyl]-2-(hydroxymethyl)propane-1,3-diol", "DPER AR", "JLS Dipenta", "Voxtar D 40"], "SMILES": "C(COCC(CO)(CO)CO)(CO)(CO)CO", "physical_data": {"Molecular Weight": "254.28", "Molecular Formula": "C10H22O7", "Melting Point": "212-220 \u00b0C", "Density": "1.33 g/cm\u00b3 @ Temp: 25 \u00b0C"}}