{"cas_no": "126-18-1", "cn_name": "\u83dd\u845c", "en_name": ["Smilagenin", "Spirostan-3-ol, (3\u03b2,5\u03b2,25R)-", "Smilagenin", "5\u03b2-Spirostan-3\u03b2-ol, (25R)-", "Spiro[8H-naphth[2\u2032,1\u2032:4,5]indeno[2,1-b]furan-8,2\u2032-[2H]pyran], spirostan-3-ol deriv.", "(3\u03b2,5\u03b2,25R)-Spirostan-3-ol", "Isosarsasapogenin", "(25R)-5\u03b2-Spirostan-3\u03b2-ol", "Esmilagenin", "NSC 93747", "PYM 50028", "Cogane"], "SMILES": "CC1C2(OC3C1C4(C)C(C3)C5C(CC4)C6(C)C(CC5)CC(O)CC6)CCC(C)CO2", "physical_data": {"Molecular Weight": "416.64", "Molecular Formula": "C27H44O3", "Melting Point": "185 \u00b0C"}}