{"cas_no": "126-19-2", "cn_name": "\u83dd\u845c\u7682\u82f7\u5143", "en_name": ["Sarsasapogenin", "Spirostan-3-ol, (3\u03b2,5\u03b2,25S)-", "5\u03b2-Spirostan-3\u03b2-ol, (25S)-", "Sarsasapogenin", "Spiro[8H-naphth[2\u2032,1\u2032:4,5]indeno[2,1-b]furan-8,2\u2032-[2H]pyran], spirostan-3-ol deriv.", "(3\u03b2,5\u03b2,25S)-Spirostan-3-ol", "Parigenin", "NSC 1615", "Sarsagenin", "Yucconin"], "SMILES": "CC1C2(OC3C1C4(C)C(C3)C5C(CC4)C6(C)C(CC5)CC(O)CC6)CCC(C)CO2", "physical_data": {"Molecular Weight": "416.64", "Molecular Formula": "C27H44O3", "Melting Point": "200.5 \u00b0C"}}