{"cas_no": "126-68-1", "cn_name": "\u4e09\u4e59\u57fa\u786b\u4ee3\u78f7\u9178\u916f", "en_name": ["O,O\u2032,O\u2032\u2032-Triethyl phosphorothioate", "Phosphorothioic acid, O,O,O-triethyl ester", "Ethyl phosphorothioate, (EtO)3PS", "Ethyl thiophosphate, (EtO)3PS", "O,O,O-Triethyl thiophosphate", "O,O,O-Triethyl phosphorothioate", "Triethyl thiophosphate", "O,O\u2032,O\u2032\u2032-Triethyl phosphorothioate", "Thiophosphoric acid tri-O-ethyl ester", "Triethyl phosphorothionate", "Triethoxyphosphine sulfide", "Triethyl phosphorothioate", "O,O,O-TEPT", "NSC 2650"], "SMILES": "P(OCC)(OCC)(OCC)=S", "physical_data": {"Molecular Weight": "198.22", "Molecular Formula": "C6H15O3PS", "Boiling Point": "214 \u00b0C @ Press: 745 Torr", "Melting Point": "&gt;280 \u00b0C (decomp)", "Density": "1.0725 g/cm\u00b3 @ Temp: 0 \u00b0C"}}