{"cas_no": "126-72-7", "cn_name": "\u78f7\u9178\u4e09(2,3-\u4e8c\u6eb4\u4e19\u57fa)\u916f", "en_name": ["Tris", "1-Propanol, 2,3-dibromo-, 1,1\u2032,1\u2032\u2032-phosphate", "1-Propanol, 2,3-dibromo-, phosphate (3:1)", "Phosphoric acid, tris(2,3-dibromopropyl) ester", "Tris(2,3-dibromopropyl) phosphate", "FireMaster T 23P", "T 23P", "Apex 462-5", "FireMaster LV-T 23P", "Zetofex ZN", "ES 685", "Flammex AP", "Flammex T 23P", "Bromkal P 67-6HP", "Fyrol HB 32", "Tris", "Tris (flame retardant)", "TDBPP", "Phoscon PE 60", "3PBR", "Flammex LV-T 23P", "Phoscon UF-S", "FireMaster T 23", "Phoscon FR 150", "NSC 3240", "Unflame 3PB"], "SMILES": "P(OCC(CBr)Br)(OCC(CBr)Br)(OCC(CBr)Br)=O", "physical_data": {"Molecular Weight": "697.61", "Molecular Formula": "C9H15Br6O4P", "Melting Point": "5.5 \u00b0C", "Density": "2.27 g/cm\u00b3 @ Temp: 25 \u00b0C"}}