{"cas_no": "126-29-4", "cn_name": "\u7d2b\u9ec4\u7d20", "en_name": ["Violaxanthin", "\u03b2,\u03b2-Carotene-3,3\u2032-diol, 5,6:5\u2032,6\u2032-diepoxy-5,5\u2032,6,6\u2032-tetrahydro-, (3S,3\u2032S,5R,5\u2032R,6S,6\u2032S)-", "\u03b2-Carotene-3,3\u2032-diol, 5,6:5\u2032,6\u2032-diepoxy-5,5\u2032,6,6\u2032-tetrahydro-, all-trans-", "\u03b2-Carotene-3,3\u2032-diol, 5,6:5\u2032,6\u2032-diepoxy-5,5\u2032,6,6\u2032-tetrahydro-", "7-Oxabicyclo[4.1.0]heptane, \u03b2,\u03b2-carotene-3,3\u2032-diol deriv.", "(3S,3\u2032S,5R,5\u2032R,6S,6\u2032S)-5,6:5\u2032,6\u2032-Diepoxy-5,5\u2032,6,6\u2032-tetrahydro-\u03b2,\u03b2-carotene-3,3\u2032-diol", "Violaxanthin, all-trans-", "Violaxanthin", "all-trans-Violaxanthin", "trans-Violaxanthin", "C Orange 15", "all-E-Violaxanthin", "E 161e", "anti,anti-Violaxanthin"], "SMILES": "C(=CC(=CC=CC(=CC=CC=C(C=CC=C(C=CC12C(C)(O1)CC(O)CC2(C)C)C)C)C)C)C34C(C)(O3)CC(O)CC4(C)C", "physical_data": {"Molecular Weight": "600.87", "Molecular Formula": "C40H56O4", "Melting Point": "208 \u00b0C"}}