{"cas_no": "126-17-0", "cn_name": "\u6fb3\u6d32\u8304\u94f5", "en_name": ["Solasodine", "Spirosol-5-en-3-ol, (3\u03b2,22\u03b1,25R)-", "Solasod-5-en-3\u03b2-ol", "Spiro[8H-naphth[2\u2032,1\u2032:4,5]indeno[2,1-b]furan-8,2\u2032-piperidine], spirosol-5-en-3-ol deriv.", "(3\u03b2,22\u03b1,25R)-Spirosol-5-en-3-ol", "Purapuridine", "Solancarpidine", "Solasodin", "Solasodine", "NSC 178260", "NSC 179187", "(-)-Solasodine"], "SMILES": "CC1C2(OC3C1C4(C)C(C3)C5C(CC4)C6(C)C(=CC5)CC(O)CC6)CCC(C)CN2", "physical_data": {"Molecular Weight": "413.64", "Molecular Formula": "C27H43NO2", "Melting Point": "200-202 \u00b0C"}}