{"cas_no": "126-15-8", "cn_name": "\u4e8c\u73af\u4e01\u5e76\u56db\u6c22\u7ce0\u919b", "en_name": ["Dibutylene tetrafurfural", "4a(4H)-Dibenzofurancarboxaldehyde, 1,5a,6,9,9a,9b-hexahydro-", "1,5a,6,9,9a,9b-Hexahydro-4a(4H)-dibenzofurancarboxaldehyde", "2,3,4,5-Bis(2-butenylene)tetrahydrofurfural", "2,3,4,5-Bis(\u03942-butenylene)tetrahydrofurfural", "Bisbutenylenetetrahydrofurfural", "4a-Formyl-1,4,4a,5a,6,9,9a,9b-octahydrodibenzofuran", "MGK Repellent 11", "2-Furancarboxaldehyde, 2,3:4,5-bis(2-butene-1,4-diyl)tetrahydro-", "R 11", "2,3:4,5-Bis(2-butene-1,4-diyl)tetrahydrofurfural", "Dibutylene tetrafurfural", "Repel 111", "ENT 17596", "MKG 11", "MGK-R 11", "NSC 52965"], "SMILES": "C(=O)C12C(C3C(O1)CC=CC3)CC=CC2", "physical_data": {"Molecular Weight": "204.26", "Molecular Formula": "C13H16O2", "Boiling Point": "307 \u00b0C", "Melting Point": "-80 \u00b0C", "Density": "1.10 g/cm\u00b3 @ Temp: 20 \u00b0C"}}