{"cas_no": "126-07-8", "cn_name": "(+)-\u7070\u9ec4\u9709\u7d20", "en_name": ["Griseofulvin", "Spiro[benzofuran-2(3H),1\u2032-[2]cyclohexene]-3,4\u2032-dione, 7-chloro-2\u2032,4,6-trimethoxy-6\u2032-methyl-, (1\u2032S,6\u2032R)-", "Spiro[benzofuran-2(3H),1\u2032-[2]cyclohexene]-3,4\u2032-dione, 7-chloro-2\u2032,4,6-trimethoxy-6\u2032\u03b2-methyl-", "Spiro[benzofuran-2(3H),1\u2032-[2]cyclohexene]-3,4\u2032-dione, 7-chloro-2\u2032,4,6-trimethoxy-6\u2032-methyl-, (1\u2032S-trans)-", "(1\u2032S,6\u2032R)-7-Chloro-2\u2032,4,6-trimethoxy-6\u2032-methylspiro[benzofuran-2(3H),1\u2032-[2]cyclohexene]-3,4\u2032-dione", "7-Chloro-2\u2032,4,6-trimethoxy-6\u2032\u03b2-methylspiro[benzofuran-2(3H),1\u2032-[2]cyclohexene]-3,4\u2032-dione", "Curling factor", "Fulcin", "Fulvicin", "Grifulvin", "Grisactin", "Griseofulvin", "Grisofulvin", "Grisovin", "Grysio", "Gricin", "Griseofulvin, (+)-", "Amudane", "Fulvistatin", "Neo-Fulcin", "Lamoryl", "Spirofulvin", "Likuden", "Poncyl", "Fulvinil", "(+)-Griseofulvin", "Grifulin", "Fulvina", "Xuanjing", "Grisovin FP", "Idifulvin", "Polygris", "Sporostatin", "Fulvicin U/F", "Fulvidex", "Grifulvin V", "Fulvicin P/G", "Fulvicin Bolus", "Gris-PEG", "Poncyl FP", "Grisefulin", "Griseovin", "MeSH ID: D006118"], "SMILES": "O=C1C2(OC=3C1=C(OC)C=C(OC)C3Cl)C(OC)=CC(=O)CC2C", "physical_data": {"Molecular Weight": "352.77", "Molecular Formula": "C17H17ClO6", "Melting Point": "220 \u00b0C", "Density": "1.45 g/cm\u00b3"}}