{"cas_no": "126-30-7", "cn_name": "\u65b0\u620a\u4e8c\u9187", "en_name": ["Neopentyl glycol", "1,3-Propanediol, 2,2-dimethyl-", "2,2-Dimethyl-1,3-propanediol", "Dimethylolpropane", "Neopentylene glycol", "Neopentyl glycol", "Neopentanediol", "Hydroxypivalyl alcohol", "1,3-Dihydroxy-2,2-dimethylpropane", "2,2-Dimethyl-1,3-dihydroxypropane", "2,2-Dimethyltrimethylene glycol", "2,2-Bis(hydroxymethyl)propane", "2,2-Dimethylpropan-1,3-diol", "Nexcoat 600", "NSC 55836", "NSC 6366", "2,2-Dimethylolpropane", "2,2-Dimethyl-1,3-propylene glycol", "2,2-Dimethylpropanediol monoacrylate monomethacrylate", "3-Hydroxy-2,2-dimethylpropanol", "R 2490", "Neeture N 40", "G 259"], "SMILES": "C(CO)(CO)(C)C", "physical_data": {"Molecular Weight": "104.15", "Molecular Formula": "C5H12O2", "Boiling Point": "210 \u00b0C", "Melting Point": "127 \u00b0C", "Density": "1.1 g/cm\u00b3"}}