{"cas_no": "126-11-4", "cn_name": "\u4e09(\u7f9f\u7532\u57fa)\u785d\u57fa\u7532\u70f7", "en_name": ["Tris(hydroxymethyl)nitromethane", "1,3-Propanediol, 2-(hydroxymethyl)-2-nitro-", "2-(Hydroxymethyl)-2-nitro-1,3-propanediol", "Isobutylglycerol, nitro-", "2-Nitro-2-(hydroxymethyl)-1,3-propanediol", "Trihydroxymethylnitromethane", "Trimethylolnitromethane", "Tris(hydroxymethyl)nitromethane", "Nitroisobutylglycerol", "2-(Hydroxymethyl)-2-nitropropanediol", "Nitrotris(hydroxymethyl)methane", "1,3-Dihydroxy-2-(hydroxymethyl)-2-nitropropane", "Tris Nitro", "Nitrotrimethylolmethane", "NSC 17675", "NSC 2344", "1-Nitro-1,1,1-tris(hydroxymethyl)methane", "2-(Hydroxymethyl)-2-nitropropan-1,3-diol"], "SMILES": "C(N(=O)=O)(CO)(CO)CO", "physical_data": {"Molecular Weight": "151.12", "Molecular Formula": "C4H9NO5", "Melting Point": "165 \u00b0C", "Density": "1.458 g/cm\u00b3"}}