{"cas_no": "126-80-7", "cn_name": "1,1,3,3-\u56db\u7532\u57fa-1,3\u4e8c[3-(\u73af\u6c27\u4e59\u57fa\u7532\u6c27\u57fa)\u4e19\u57fa]\u4e8c\u7845\u6c27\u70f7", "en_name": ["1,3-Bis(3-glycidoxypropyl)-1,1,3,3-tetramethyldisiloxane", "Disiloxane, 1,1,3,3-tetramethyl-1,3-bis[3-(2-oxiranylmethoxy)propyl]-", "Disiloxane, 1,3-bis[3-(2,3-epoxypropoxy)propyl]-1,1,3,3-tetramethyl-", "Disiloxane, 1,1,3,3-tetramethyl-1,3-bis[3-(oxiranylmethoxy)propyl]-", "1,1,3,3-Tetramethyl-1,3-bis[3-(2-oxiranylmethoxy)propyl]disiloxane", "1,3-Bis[3-(2,3-epoxypropoxy)propyl]tetramethyldisiloxane", "1,3-Bis[3-(glycidyloxy)propyl]-1,1,3,3-tetramethyldisiloxane", "1,3-Bis(3-glycidyloxypropyl)tetramethyldisiloxane", "1,3-Di(3-glycidoxypropyl)-1,1,3,3-tetramethyldisiloxane", "NSC 93976", "1,3-Bis(3-glycidoxypropyl)-1,1,3,3-tetramethyldisiloxane", "1,1,3,3-Tetramethyl-1,3-di[3-(epoxyethylmethoxy)propyl]disiloxane", "1,3-Bis(glycidyloxypropyl)tetramethyldisiloxane", "1,3-Bis(3-glycidoxypropyl)tetramethyldisiloxane", "[Dimethyl-[3-(oxiran-2-ylmethoxy)propyl]silyl]oxy-dimethyl-[3-(oxiran-2-ylmethoxy)propyl]silane", "MY 010", "GP 600", "S 081369"], "SMILES": "[Si](O[Si](CCCOCC1CO1)(C)C)(CCCOCC2CO2)(C)C", "physical_data": {"Molecular Weight": "362.61", "Molecular Formula": "C16H34O5Si2", "Boiling Point": "184-187 \u00b0C @ Press: 2 Torr", "Melting Point": "-50--48 \u00b0C", "Density": "0.996 g/cm\u00b3"}}