{"cas_no": "126-71-6", "cn_name": "\u78f7\u9178\u4e09\u5f02\u4e01\u916f", "en_name": ["Triisobutyl phosphate", "Phosphoric acid, tris(2-methylpropyl) ester", "Phosphoric acid, triisobutyl ester", "Isobutyl phosphate ((C4H9O)3PO)", "Triisobutyl phosphate", "Antifoam TIP", "NSC 62222", "Daiguard 400", "Reomol TIBP"], "SMILES": "P(OCC(C)C)(OCC(C)C)(OCC(C)C)=O", "physical_data": {"Molecular Weight": "266.31", "Molecular Formula": "C12H27O4P", "Boiling Point": "264 \u00b0C", "Density": "0.9617 g/cm\u00b3 @ Temp: 25 \u00b0C"}}