{"cas_no": "126-84-1", "cn_name": "2,2-\u4e8c\u4e59\u6c27\u57fa\u4e19\u70f7", "en_name": ["2,2-Diethoxypropane", "Propane, 2,2-diethoxy-", "Acetone, diethyl acetal", "2,2-Diethoxypropane", "Acetone diethyl ketal", "NSC 528014"], "SMILES": "C(OCC)(OCC)(C)C", "physical_data": {"Molecular Weight": "132.20", "Molecular Formula": "C7H16O2", "Boiling Point": "114 \u00b0C", "Density": "0.824 g/cm\u00b3 @ Temp: 25 \u00b0C"}}