{"cas_no": "126-39-6", "cn_name": "2-\u4e59\u57fa-2-\u7532\u57fa-1,3-\u4e8c\u6c27\u6742\u70f7", "en_name": ["2-Ethyl-2-methyl-1,3-dioxolane", "1,3-Dioxolane, 2-ethyl-2-methyl-", "2-Ethyl-2-methyl-1,3-dioxolane", "2-Ethyl-2-methyldioxolane", "2-Methyl-2-ethyl-1,3-dioxolane", "2-Methyl-2-ethyldioxolane", "2-Butanone ethylene ketal", "2-Butanone, cyclic 1,2-ethanediyl acetal", "NSC 829"], "SMILES": "C(C)C1(C)OCCO1", "physical_data": {"Molecular Weight": "116.16", "Molecular Formula": "C6H12O2", "Boiling Point": "115.4-116.2 \u00b0C @ Press: 763 Torr", "Melting Point": "111-113 \u00b0C", "Density": "0.9374 g/cm\u00b3 @ Temp: 20 \u00b0C"}}