{"cas_no": "126-92-1", "cn_name": "2-\u4e59\u57fa\u5df1\u57fa\u786b\u9178\u916f\u94a0\u76d0", "en_name": ["Sodium 2-ethylhexyl sulfate", "Sulfuric acid, mono(2-ethylhexyl) ester, sodium salt (1:1)", "Sulfuric acid, mono(2-ethylhexyl) ester, sodium salt", "1-Hexanol, 2-ethyl-, hydrogen sulfate, sodium salt", "2-Ethyl-1-hexanol sulfate sodium salt", "2-Ethylhexyl sodium sulfate", "Sodium etasulfate", "Sodium ethasulfate", "Sodium 2-ethylhexyl sulfate", "Tergemist", "Tergimist", "Tergitol 08", "Ethasulfate sodium", "Sulfirol 8", "Pentrone ON", "Emcol D 5-10", "Sole Tege TS 25", "2-Ethyl-1-hexanol sodium sulfate", "Tergitol Anionic 08", "2-Ethylhexyl sulfate sodium salt", "NAS 08", "Niaproof 08", "Sintrex EHR", "Nissan Sintrex EHR", "Lugalvan TC-EHS", "Sulfotex CA", "Rewopol NEHS 40", "Witcolate D 5-10", "Texapon 890", "Sodium octyl sulphate", "Sodium octyl sulfate", "Newcol 1000SN", "Avirol SA 4106", "Sinolin SO 35", "Rhodapon BOS", "Supralate SP", "Carsonol SHS", "Rhodapon OLS", "Lutensit TC-EHS", "NSC 4744", "Sulfotex OA", "Stepanol EHS", "Pionin A 20", "Texapon EHS", "Kraftex OA", "Disponil EHS 47", "Sandet OHE", "Steponol EHS", "Sulfopon O", "TC-EHS", "Rewopol D 510NC", "Sandet ONA"], "SMILES": "C(COS(=O)(=O)O)(CCCC)CC.[Na]", "physical_data": {"Molecular Weight": "", "Molecular Formula": "C8H18O4S.Na", "Melting Point": "148-149 \u00b0C"}}