{"cas_no": "1260-04-4", "cn_name": "\u8fdc\u5fd7\u7682\u7519", "en_name": ["(2\u03b2,3\u03b2,4\u03b1)-2,3-Dihydroxy-27-norolean-13-ene-23,28-dioic acid", "27-Norolean-13-ene-23,28-dioic acid, 2,3-dihydroxy-, (2\u03b2,3\u03b2,4\u03b1)-", "27-Norolean-13-ene-23,28-dioic acid, 2\u03b2,3\u03b2-dihydroxy-", "(2\u03b2,3\u03b2,4\u03b1)-2,3-Dihydroxy-27-norolean-13-ene-23,28-dioic acid", "Polygalic acid", "Senegenic acid"], "SMILES": "CC12C(C3(C)C(CC1)C(C(O)=O)(C)C(O)C(O)C3)CCC4=C2CCC5(C(O)=O)C4CC(C)(C)CC5", "physical_data": {"Molecular Weight": "488.66", "Molecular Formula": "C29H44O6", "Melting Point": "299-301 \u00b0C"}}