{"cas_no": "1260-17-9", "cn_name": "\u80ed\u8102\u7ea2\u9178", "en_name": ["Carminic acid", "2-Anthracenecarboxylic acid, 7-\u03b2-D-glucopyranosyl-9,10-dihydro-3,5,6,8-tetrahydroxy-1-methyl-9,10-dioxo-", "Carminic acid", "2-Anthroic acid, 7-D-glucopyranosyl-9,10-dihydro-3,5,6,8-tetrahydroxy-1-methyl-9,10-dioxo-", "7-\u03b2-D-Glucopyranosyl-9,10-dihydro-3,5,6,8-tetrahydroxy-1-methyl-9,10-dioxo-2-anthracenecarboxylic acid", "C.I. Natural Red 4", "E 120", "C.I. 75470", "Natural Red 4", "E 120 (dye)", "Sun Red 1", "Sun Red No. 1", "San Red 1", "San-Ei Gen San Red 1", "NSC 326224", "Carmine 5297", "Cochineal Red PWD", "Natural Red 2180", "Creasperse Carmine CP 057", "Carmine Cochineal", "Carmine Red E 120"], "SMILES": "O=C1C=2C(C(=O)C=3C1=C(C)C(C(O)=O)=C(O)C3)=C(O)C(O)=C(C2O)C4OC(CO)C(O)C(O)C4O", "physical_data": {"Molecular Weight": "492.39", "Molecular Formula": "C22H20O13", "Melting Point": "136 \u00b0C (decomp)"}}