{"cas_no": "126162-96-7", "cn_name": "2,3-\u4e8c\u6c1f-4-\u6c30\u57fa\u82ef\u4e59\u919a", "en_name": ["4-Ethoxy-2,3-difluorobenzonitrile", "Benzonitrile, 4-ethoxy-2,3-difluoro-", "4-Ethoxy-2,3-difluorobenzonitrile"], "SMILES": "O(CC)C1=C(F)C(F)=C(C#N)C=C1", "physical_data": {"Molecular Weight": "183.15", "Molecular Formula": "C9H7F2NO", "Melting Point": "45 \u00b0C"}}