{"cas_no": "1262036-50-9", "cn_name": "N-[3-[(4AS,7AS)-2-\u6c28\u57fa-4A,5-\u4e8c\u6c22-4H-\u544b\u5583\u5e76[3,4-D][1,3]\u567b\u55ea-7A(7H)-\u57fa]-4-\u6c1f\u82ef\u57fa]-5-\u6c1f-2-\u5421\u5576\u7532\u9170\u80fa", "en_name": ["N-[3-[(4aS,7aS)-2-Amino-4a,5-dihydro-4H-furo[3,4-d][1,3]thiazin-7a(7H)-yl]-4-fluorophenyl]-5-fluoro-2-pyridinecarboxamide", "2-Pyridinecarboxamide, N-[3-[(4aS,7aS)-2-amino-4a,5-dihydro-4H-furo[3,4-d][1,3]thiazin-7a(7H)-yl]-4-fluorophenyl]-5-fluoro-", "N-[3-[(4aS,7aS)-2-Amino-4a,5-dihydro-4H-furo[3,4-d][1,3]thiazin-7a(7H)-yl]-4-fluorophenyl]-5-fluoro-2-pyridinecarboxamide", "LY 2886721", "VTP 37948", "BI 1181181"], "SMILES": "FC=1C(C23C(COC2)CSC(N)=N3)=CC(NC(=O)C4=CC=C(F)C=N4)=CC1", "physical_data": {"Molecular Weight": "390.41", "Molecular Formula": "C18H16F2N4O2S", "Melting Point": "254.9-255.7 \u00b0C"}}