{"cas_no": "1262-21-1", "cn_name": "\u53cc(\u4e09\u82ef\u57fa\u9521)\u6c27\u5316\u7269", "en_name": ["1,1,1,3,3,3-Hexaphenyldistannoxane", "Distannoxane, 1,1,1,3,3,3-hexaphenyl-", "Distannoxane, hexaphenyl-", "Bis(triphenyltin) oxide", "Tin, oxybis[triphenyl-", "1,1,1,3,3,3-Hexaphenyldistannoxane", "Triphenyltin oxide", "Hexaphenyldistannoxane", "Oxobis(triphenyltin)", "Bis(triphenylstannyl) oxide", "Oxobis(triphenylstannane)", "Bis(triphenylstannyl) ether", "NSC 113258"], "SMILES": "[Sn](O[Sn](C1=CC=CC=C1)(C2=CC=CC=C2)C3=CC=CC=C3)(C4=CC=CC=C4)(C5=CC=CC=C5)C6=CC=CC=C6", "physical_data": {"Molecular Weight": "716.04", "Molecular Formula": "C36H30OSn2", "Melting Point": "123-124 \u00b0C"}}