{"cas_no": "1263-89-4", "cn_name": "\u786b\u9178\u5df4\u9f99\u9709\u7d20", "en_name": ["Paromomycin sulfate", "D-Streptamine, O-2,6-diamino-2,6-dideoxy-\u03b2-L-idopyranosyl-(1\u21923)-O-\u03b2-D-ribofuranosyl-(1\u21925)-O-[2-amino-2-deoxy-\u03b1-D-glucopyranosyl-(1\u21924)]-2-deoxy-, sulfate (1:?)", "D-Streptamine, O-2,6-diamino-2,6-dideoxy-\u03b2-L-idopyranosyl-(1\u21923)-O-\u03b2-D-ribofuranosyl-(1\u21925)-O-[2-amino-2-deoxy-\u03b1-D-glucopyranosyl-(1\u21924)]-2-deoxy-, sulfate (salt)", "D-Streptamine, O-2-amino-2-deoxy-\u03b1-D-glucopyranosyl-(1\u21924)-O-[O-2,6-diamino-2,6-dideoxy-\u03b2-L-idopyranosyl-(1\u21923)-\u03b2-D-ribofuranosyl-(1\u21925)]-2-deoxy-, sulfate (salt)", "Humycin sulfate", "Paromomycin sulfate", "Aminosidine sulfate", "Aminosidin sulfate", "Humatin", "Gabbroral", "Sinosid", "Paramicina", "Farmiglucin", "Farminosidin", "Pargonyl", "Paricina", "Aminoxidin", "FI 5853", "1600 Antibiotic", "Humagel"], "SMILES": "O(C1C(OC2C(O)C(OC3OC(CN)C(O)C(O)C3N)C(CO)O2)C(O)C(N)CC1N)C4OC(CO)C(O)C(O)C4N.S(=O)(=O)(O)O", "physical_data": {"Molecular Weight": "", "Molecular Formula": "C23H45N5O14.xH2O4S", "Melting Point": "145 \u00b0C (decomp)"}}