{"cas_no": "126330-90-3", "cn_name": "(R)-\u54cc\u55ea-2-\u7fa7\u9178\u4e8c\u76d0\u9178\u76d0", "en_name": ["2-Piperazinecarboxylic acid, hydrochloride (1:2), (2R)-", "2-Piperazinecarboxylic acid, hydrochloride (1:2), (2R)-", "2-Piperazinecarboxylic acid, dihydrochloride, (R)-", "2-Piperazinecarboxylic acid, dihydrochloride, (2R)-", "(R)-2-Piperazinecarboxylic acid dihydrochloride", "(2R)-Piperazine-2-carboxylic acid dihydrochloride", "(R)-2-Piperazinecarboxylic acid dihydrochloride"], "SMILES": "C(O)(=O)C1CNCCN1.Cl", "physical_data": {"Molecular Weight": "", "Molecular Formula": "C5H10N2O2.2ClH", "Melting Point": "238-243 \u00b0C (decomp)"}}