{"cas_no": "1264-62-6", "cn_name": "\u7425\u4e59\u7ea2\u9709\u7d20", "en_name": ["Erythromycin ethyl succinate", "Erythromycin, 2\u2032-(ethyl butanedioate)", "Erythromycin, mono(ethyl succinate) (ester)", "Erythromycin ethyl succinate", "Erythromycin, 2\u2032-(ethyl succinate)", "Succinic acid, ethyl ester, monoester with erythromycin", "Oxacyclotetradecane, erythromycin deriv.", "Erythrocin ethyl succinate", "Pediamycin", "Erythroped", "Evesin", "Eritrocina", "Esinol", "EryPed", "Paediathrocin", "Erythro ES", "Wyamycin E", "Sigapedil", "Durapaediat", "Eryliquid", "EES", "Arpimycin", "Erythro-Holz", "Refkas", "Anamycin", "E-Mycin e", "Monomycin"], "SMILES": "O(C(CCC(OCC)=O)=O)C1C(OC2C(C)C(OC3CC(OC)(C)C(O)C(C)O3)C(C)C(=O)OC(CC)C(C)(O)C(O)C(C)C(=O)C(C)CC2(C)O)OC(C)CC1N(C)C", "physical_data": {"Molecular Weight": "862.05", "Molecular Formula": "C43H75NO16", "Melting Point": "109-110 \u00b0C"}}