{"cas_no": "126411-39-0", "cn_name": "(2-(3,5-\u4e8c\u53d4\u4e01\u57fa-4-\u7f9f\u57fa\u82ef\u57fa)\u4e59\u70ef-1,1-\u4e8c\u57fa)\u53cc(\u81a6\u9178)\u56db\u4e59\u916f", "en_name": ["P,P,P\u2032,P\u2032-Tetraethyl P,P\u2032-[[3,5-bis(1,1-dimethylethyl)-4-hydroxyphenyl]ethenylidene]bis[phosphonate]", "Phosphonic acid, P,P\u2032-[[3,5-bis(1,1-dimethylethyl)-4-hydroxyphenyl]ethenylidene]bis-, P,P,P\u2032,P\u2032-tetraethyl ester", "Phosphonic acid, [[3,5-bis(1,1-dimethylethyl)-4-hydroxyphenyl]ethenylidene]bis-, tetraethyl ester", "P,P,P\u2032,P\u2032-Tetraethyl P,P\u2032-[[3,5-bis(1,1-dimethylethyl)-4-hydroxyphenyl]ethenylidene]bis[phosphonate]", "SR 12813", "GW 485801"], "SMILES": "P(C(P(OCC)(OCC)=O)=CC1=CC(C(C)(C)C)=C(O)C(C(C)(C)C)=C1)(OCC)(OCC)=O", "physical_data": {"Molecular Weight": "504.53", "Molecular Formula": "C24H42O7P2", "Melting Point": "120-121 \u00b0C"}}