{"cas_no": "126456-43-7", "cn_name": "(1S,2R)-(-)-1-\u6c28\u57fa-2-\u831a\u9187", "en_name": ["(1S,2R)-(-)-1-Amino-2-indanol", "1H-Inden-2-ol, 1-amino-2,3-dihydro-, (1S,2R)-", "1H-Inden-2-ol, 1-amino-2,3-dihydro-, (1S-cis)-", "(1S,2R)-1-Amino-2,3-dihydro-1H-inden-2-ol", "(1S-cis)-1-Amino-2-indanol", "2(R)-Hydroxy-1(S)-aminoindane", "(2R-cis)-1-Amino-2,3-dihydro-1H-inden-2-ol", "(1S,2R)-1-Aminoindan-2-ol", "(1S,2R)-1-Amino-2-hydroxyindan", "cis-(1S,2R)-1-Amino-2-indanol", "(1S)-Amino-(2R)-indanol", "(-)-cis-1-Aminoindan-2-ol", "2(R)-Hydroxy-1(S)-aminoindan", "(1S,2R)-cis-1-Amino-2-indanol", "(1S,2R)-(-)-cis-1-Amino-2-indanol", "[(1S,2R)-2-Hydroxy-2,3-dihydro-1H-inden-1-yl]amine", "(1S,2R)-(-)-1-Amino-2-indanol", "(1S,2R)-1-Amino-2,3-dihydro-1H-inden-2-ol", "(1S,2R)-1-Amino-2,3-dihydro-1-inden-2-ol"], "SMILES": "NC1C=2C(CC1O)=CC=CC2", "physical_data": {"Molecular Weight": "149.19", "Molecular Formula": "C9H11NO", "Melting Point": "117-118 \u00b0C"}}