{"cas_no": "126544-47-6", "cn_name": "\u73af\u7d22\u5948\u5fb7", "en_name": ["Ciclesonide", "Pregna-1,4-diene-3,20-dione, 16,17-[[(R)-cyclohexylmethylene]bis(oxy)]-11-hydroxy-21-(2-methyl-1-oxopropoxy)-, (11\u03b2,16\u03b1)-", "Pregna-1,4-diene-3,20-dione, 16,17-[(cyclohexylmethylene)bis(oxy)]-11-hydroxy-21-(2-methyl-1-oxopropoxy)-, [11\u03b2,16\u03b1(R)]-", "2H-Naphth[2\u2032,1\u2032:4,5]indeno[1,2-d][1,3]dioxole, pregna-1,4-diene-3,20-dione deriv.", "(11\u03b2,16\u03b1)-16,17-[[(R)-Cyclohexylmethylene]bis(oxy)]-11-hydroxy-21-(2-methyl-1-oxopropoxy)pregna-1,4-diene-3,20-dione", "Ciclesonide", "(R)-11\u03b2,16\u03b1,17,21-Tetrahydroxypregna-1,4-diene-3,20-dione cyclic 16,17-acetal with cyclohexanecarboxaldehyde, 21-isobutyrate", "RPR 251526", "Alvesco", "Omnaris", "Cinase", "BI 54903", "Aservo EquiHaler", "Omniair", "Zetonna"], "SMILES": "C(COC(C(C)C)=O)(=O)C12C3(C)C(CC1OC(O2)C4CCCCC4)C5C(C(O)C3)C6(C)C(CC5)=CC(=O)C=C6", "physical_data": {"Molecular Weight": "540.69", "Molecular Formula": "C32H44O7", "Melting Point": "209-211 \u00b0C"}}