{"cas_no": "12650-69-0", "cn_name": "\u83ab\u5339\u7f57\u661f", "en_name": ["Mupirocin", "L-talo-Non-2-enonic acid, 5,9-anhydro-2,3,4,8-tetradeoxy-8-[[(2S,3S)-3-[(1S,2S)-2-hydroxy-1-methylpropyl]oxiranyl]methyl]-3-methyl-, 8-carboxyoctyl ester, (2E)-", "L-talo-Non-2-enonic acid, 5,9-anhydro-2,3,4,8-tetradeoxy-8-[[3-(2-hydroxy-1-methylpropyl)oxiranyl]methyl]-3-methyl-, 8-carboxyoctyl ester, [2E,8[2S,3S(1S,2S)]]-", "Pseudomonic acid", "Pseudomonic acid A", "trans-Pseudomonic acid", "Mupirocin", "Bactroban", "Bactroban Ointment", "BRL 4910A", "Turixin", "Bactoderm", "Mupricin", "Mupirocin Neo-Sensitabs", "Centany", "MeSH ID: D016712"], "SMILES": "C(C1C(C(C(C)O)C)O1)C2C(O)C(O)C(CC(=CC(OCCCCCCCCC(O)=O)=O)C)OC2", "physical_data": {"Molecular Weight": "500.62", "Molecular Formula": "C26H44O9", "Melting Point": "77-78 \u00b0C"}}