{"cas_no": "126613-06-7", "cn_name": "(R)-(-)-1,1'-\u8054-2-\u8418\u915a\u4e8c(\u4e09\u6c1f\u7532\u78fa\u9178\u916f)", "en_name": ["(R)-2,2\u2032-Bis(trifluoromethanesulfonyloxy)-1,1\u2032-binaphthyl", "Methanesulfonic acid, 1,1,1-trifluoro-, 1,1\u2032-(1R)-[1,1\u2032-binaphthalene]-2,2\u2032-diyl ester, stereoisomer", "Methanesulfonic acid, trifluoro-, [1,1\u2032-binaphthalene]-2,2\u2032-diyl ester, (R)-", "Methanesulfonic acid, trifluoro-, (1R)-[1,1\u2032-binaphthalene]-2,2\u2032-diyl ester", "(R)-2,2\u2032-Bis(trifluoromethanesulfonyloxy)-1,1\u2032-binaphthyl", "(R)-2,2\u2032-Bis(trifluoromethanesulfonyloxy)-1,1\u2032-binaphthalene", "(R)-(-)-1,1\u2032-Bi-2-naphthol bis(trifluoromethanesulfonate)", "(R)-1,1\u2032-Binaphthalene-2,2\u2032-diyl bis(trifluoromethanesulfonate)", "(R)-BINOL bis(triflate)", "(R)-1,1\u2032-Binaphthalene-2,2\u2032-diyl ditriflate", "(R)-BINOL ditriflate"], "SMILES": "O(S(C(F)(F)F)(=O)=O)C1=C(C2=C(C=C1)C=CC=C2)C=3C4=C(C=CC3OS(C(F)(F)F)(=O)=O)C=CC=C4", "physical_data": {"Molecular Weight": "550.45", "Molecular Formula": "C22H12F6O6S2", "Melting Point": "64-74 \u00b0C"}}