{"cas_no": "126784-99-4", "cn_name": "\u918b\u9178\u4e4c\u5229\u53f8\u4ed6", "en_name": ["Ulipristal acetate", "19-Norpregna-4,9-diene-3,20-dione, 17-(acetyloxy)-11-[4-(dimethylamino)phenyl]-, (11\u03b2)-", "(11\u03b2)-17-(Acetyloxy)-11-[4-(dimethylamino)phenyl]-19-norpregna-4,9-diene-3,20-dione", "CDB 2914", "RTI 3021-012", "CBD(VA) 2914", "VA 2914", "17\u03b1-Acetoxy-11\u03b2-(4-dimethylaminophenyl)-19-norpregna-4,9-dien-3,20-dione", "RU 44675", "HRP 2000", "Ulipristal acetate", "17\u03b1-Acetoxy-11\u03b2-[4-N,N-dimethylaminophenyl]-19-norpregna-4,9-diene-3,20-dione", "EllaOne", "Esmya", "17-Acetoxy-11\u03b2-[(4-(N,N-dimethylamino)phenyl]-19-norpregna-4,9-diene-3,20-dione", "17-Acetyloxy-11\u03b2-[(4-(N,N-dimethylamino)phenyl]-19-norpregna-4,9-diene-3,20-dione", "17-Acetoxy-11\u03b2-[(4-(dimethylamino)phenyl]-19-norpregna-4,9-diene-3,20-dione", "[(8S,11R,13S,14S,17R)-17-Acetyl-11-[4-(dimethylamino)phenyl]-13-methyl-3-oxo-1,2,6,7,8,11,12,14,15,16-decahydro-1H-cyclopenta[a]phenanthren-17-yl]acetate"], "SMILES": "CC12C(C3C(C(C1)C4=CC=C(N(C)C)C=C4)=C5C(CC3)=CC(=O)CC5)CCC2(OC(C)=O)C(C)=O", "physical_data": {"Molecular Weight": "475.62", "Molecular Formula": "C30H37NO4", "Melting Point": "183-185 \u00b0C"}}