{"cas_no": "126747-14-6", "cn_name": "4-\u6c30\u57fa\u82ef\u787c\u9178", "en_name": ["4-Cyanophenylboronic acid", "Boronic acid, B-(4-cyanophenyl)-", "Boronic acid, (4-cyanophenyl)-", "B-(4-Cyanophenyl)boronic acid", "4-Cyanophenylboronic acid", "4-Cyanobenzeneboronic acid", "4-Cyanophenylboric acid", "(p-Cyanophenyl)boronic acid"], "SMILES": "B(O)(O)C1=CC=C(C#N)C=C1", "physical_data": {"Molecular Weight": "146.94", "Molecular Formula": "C7H6BNO2", "Melting Point": "280 \u00b0C"}}