{"cas_no": "1268810-17-8", "cn_name": "1-\u6c28\u57fa\u73af\u4e19\u57fa\u4e59\u7094\u76d0\u9178\u76d0", "en_name": ["Cyclopropanamine, 1-ethynyl-, hydrochloride (1:1)", "Cyclopropanamine, 1-ethynyl-, hydrochloride (1:1)", "1-Ethynylcyclopropanamine hydrochloride", "1-Ethynylcyclopropan-1-amine hydrochloride"], "SMILES": "C(#C)C1(N)CC1.Cl", "physical_data": {"Molecular Weight": "", "Molecular Formula": "C5H7N.ClH", "Melting Point": "185-186 \u00b0C (decomp)"}}