{"cas_no": "126833-17-8", "cn_name": "\u73af\u9170\u83cc\u80fa", "en_name": ["Fenhexamid", "Cyclohexanecarboxamide, N-(2,3-dichloro-4-hydroxyphenyl)-1-methyl-", "N-(2,3-Dichloro-4-hydroxyphenyl)-1-methylcyclohexanecarboxamide", "KBR 2738", "Fenhexamid", "Elevate", "Teldor", "Decree"], "SMILES": "C(NC1=C(Cl)C(Cl)=C(O)C=C1)(=O)C2(C)CCCCC2", "physical_data": {"Molecular Weight": "302.20", "Molecular Formula": "C14H17Cl2NO2", "Melting Point": "141 \u00b0C"}}