{"cas_no": "1268810-09-8", "cn_name": "N-BOC-1-\u6c28\u57fa\u73af\u4e19\u57fa\u4e59\u7094", "en_name": ["1,1-Dimethylethyl N-(1-ethynylcyclopropyl)carbamate", "Carbamic acid, N-(1-ethynylcyclopropyl)-, 1,1-dimethylethyl ester", "1,1-Dimethylethyl N-(1-ethynylcyclopropyl)carbamate", "tert-Butyl (1-ethynylcyclopropyl)carbamate", "tert-Butyl N-(1-ethynylcyclopropyl)carbamate"], "SMILES": "N(C(OC(C)(C)C)=O)C1(C#C)CC1", "physical_data": {"Molecular Weight": "181.23", "Molecular Formula": "C10H15NO2", "Melting Point": "68-70 \u00b0C"}}