{"cas_no": "126801-58-9", "cn_name": "\u4e59\u6c27\u5627\u78fa\u9686", "en_name": ["Ethoxysulfuron", "Sulfamic acid, N-[[(4,6-dimethoxy-2-pyrimidinyl)amino]carbonyl]-, 2-ethoxyphenyl ester", "Sulfamic acid, [[(4,6-dimethoxy-2-pyrimidinyl)amino]carbonyl]-, 2-ethoxyphenyl ester", "HOE 095404", "Ethoxysulfuron", "Gladium"], "SMILES": "O(S(NC(NC=1N=C(OC)C=C(OC)N1)=O)(=O)=O)C2=C(OCC)C=CC=C2", "physical_data": {"Molecular Weight": "398.39", "Molecular Formula": "C15H18N4O7S", "Melting Point": "145 \u00b0C"}}