{"cas_no": "126990-35-0", "cn_name": "\u4e8c\u73af\u620a\u57fa\u4e8c\u7532\u6c27\u57fa\u7845\u70f7", "en_name": ["Dicyclopentyldimethoxysilane", "Cyclopentane, 1,1\u2032-(dimethoxysilylene)bis-", "Silane, dicyclopentyldimethoxy-", "1,1\u2032-(Dimethoxysilylene)bis[cyclopentane]", "Dicyclopentyldimethoxysilane", "Bis(cyclopentyl)dimethoxysilane", "D-Donor", "Dicyclopentanyldimethoxysilane", "Z 6228", "DCPMS"], "SMILES": "[Si](OC)(OC)(C1CCCC1)C2CCCC2", "physical_data": {"Molecular Weight": "228.40", "Molecular Formula": "C12H24O2Si", "Boiling Point": "120 \u00b0C @ Press: 6 Torr", "Density": "1 g/cm\u00b3"}}