{"cas_no": "126910-68-7", "cn_name": "5-\u6c2f-3-(\u6c2f\u78fa\u9170\u57fa)-2-\u567b\u5429\u7fa7\u9178\u7532\u916f", "en_name": ["Methyl 5-chloro-3-(chlorosulfonyl)-2-thiophenecarboxylate", "2-Thiophenecarboxylic acid, 5-chloro-3-(chlorosulfonyl)-, methyl ester", "Methyl 5-chloro-3-(chlorosulfonyl)-2-thiophenecarboxylate"], "SMILES": "S(Cl)(=O)(=O)C1=C(C(OC)=O)SC(Cl)=C1", "physical_data": {"Molecular Weight": "275.13", "Molecular Formula": "C6H4Cl2O4S2", "Melting Point": "50-52 \u00b0C"}}