{"cas_no": "127-91-3", "cn_name": "beta-\u848e\u70ef", "en_name": ["\u03b2-Pinene", "Bicyclo[3.1.1]heptane, 6,6-dimethyl-2-methylene-", "2(10)-Pinene", "6,6-Dimethyl-2-methylenebicyclo[3.1.1]heptane", "Nopinene", "Terebenthene", "\u03b2-Pinene", "Pseudopinen", "Pseudopinene", "Nopinen", "PC 600", "(\u00b1)-2(10)-Pinene", "(\u00b1)-\u03b2-Pinene", "(\u00b1)-6,6-Dimethyl-2-methylenebicyclo[3.1.1]heptane", "PC 600 (pesticide)", "NSC 21447", "NSC 406265", "NSC 59190", "beta-Pinene"], "SMILES": "CC1(C)C2CC1CCC2=C", "physical_data": {"Molecular Weight": "136.23", "Molecular Formula": "C10H16", "Boiling Point": "166 \u00b0C", "Melting Point": "-61.5 \u00b0C", "Density": "0.860 g/cm\u00b3 @ Temp: 25 \u00b0C"}}