{"cas_no": "127-19-5", "cn_name": "N,N-\u4e8c\u7532\u57fa\u4e59\u9170\u80fa", "en_name": ["Dimethylacetamide", "Acetamide, N,N-dimethyl-", "N,N-Dimethylacetamide", "Acetdimethylamide", "Dimethylacetamide", "Dimethylamide acetate", "DMA", "N,N-Dimethylethanamide", "DMAc", "NSC 3138", "Ejjyxa 2"], "SMILES": "C(N(C)C)(C)=O", "physical_data": {"Molecular Weight": "87.12", "Molecular Formula": "C4H9NO", "Boiling Point": "163-165 \u00b0C", "Melting Point": "-18.59 \u00b0C", "Density": "0.9366 g/cm\u00b3 @ Temp: 25 \u00b0C"}}