{"cas_no": "127-63-9", "cn_name": "\u4e8c\u82ef\u781c", "en_name": ["Phenyl sulfone", "Benzene, 1,1\u2032-sulfonylbis-", "Phenyl sulfone", "1,1\u2032-Sulfonylbis[benzene]", "Diphenyl sulfone", "Diphenyl sulphone", "DPS", "Phenyl sulphone", "Sulfobenzide", "NSC 627706", "NSC 6780", "Sulfonyldibenzene", "1,1\u2032-Sulfonyldibenzene"], "SMILES": "S(=O)(=O)(C1=CC=CC=C1)C2=CC=CC=C2", "physical_data": {"Molecular Weight": "218.27", "Molecular Formula": "C12H10O2S", "Boiling Point": "279 \u00b0C", "Melting Point": "128.5 \u00b0C"}}