{"cas_no": "127-08-2", "cn_name": "\u4e59\u9178\u94be", "en_name": ["Potassium acetate", "Acetic acid, potassium salt (1:1)", "Potassium acetate", "Acetic acid, potassium salt", "Catacyst LB", "Potassium ethanoate", "Polycat 46", "PC 46", "DPG 35", "LK 25", "Dabco K 2097", "Dabco K 2008", "Dabco P 15", "P 15", "Cryotech E 36", "Safeway KA-HOT", "LCM 1", "Pelcat 9648A", "K 15", "PC CAT TKA 30", "Desmorapid PU 1792", "Desmorapid 1792", "PC CAT Q 7-2", "Pelcat 9650", "PU 1792", "Vapex", "VaporGrip Xtra", "VaporGrip Xtra Agent", "Vaporgrip", "Kosmos 33", "Kosmos 45MEG", "Kosmos 45", "MeSH ID: D019347"], "SMILES": "C(C)(O)=O.[K]", "physical_data": {"Molecular Weight": "", "Molecular Formula": "C2H4O2.K", "Melting Point": "292 \u00b0C", "Density": "1.57 g/cm\u00b3 @ Temp: 25 \u00b0C"}}