{"cas_no": "127-25-3", "cn_name": "\u677e\u8102\u9178\u7532\u916f", "en_name": ["Methyl abietate", "1-Phenanthrenecarboxylic acid, 1,2,3,4,4a,4b,5,6,10,10a-decahydro-1,4a-dimethyl-7-(1-methylethyl)-, methyl ester, (1R,4aR,4bR,10aR)-", "Podocarpa-7,13-dien-15-oic acid, 13-isopropyl-, methyl ester", "1-Phenanthrenecarboxylic acid, 1,2,3,4,4a,4b,5,6,10,10a-decahydro-1,4a-dimethyl-7-(1-methylethyl)-, methyl ester, [1R-(1\u03b1,4a\u03b2,4b\u03b1,10a\u03b1)]-", "Abietic acid methyl ester", "Methyl abietate", "NSC 2141"], "SMILES": "CC12C(C(C(OC)=O)(C)CCC1)CC=C3C2CCC(C(C)C)=C3", "physical_data": {"Molecular Weight": "316.48", "Molecular Formula": "C21H32O2", "Boiling Point": "362.5 \u00b0C", "Melting Point": "&lt;25 \u00b0C"}}