{"cas_no": "127-31-1", "cn_name": "\u6c1f\u6c22\u53ef\u7684\u677e", "en_name": ["Fludrocortisone", "Pregn-4-ene-3,20-dione, 9-fluoro-11,17,21-trihydroxy-, (11\u03b2)-", "Pregn-4-ene-3,20-dione, 9-fluoro-11\u03b2,17,21-trihydroxy-", "(11\u03b2)-9-Fluoro-11,17,21-trihydroxypregn-4-ene-3,20-dione", "Alflorone", "F-COL", "Florinef", "Fludrocortisone", "Fludrocortone", "Fluohydrisone", "Fluohydrocortisone", "9\u03b1-Fluorocortisol", "Fluorocortisone", "9\u03b1-Fluoro-17-hydroxycorticosterone", "9\u03b1-Fluoro-11\u03b2,17\u03b1,21-trihydroxy-4-pregnene-3,20-dione", "9-Fluorocortisol", "Fluorocortisol", "9-Fluorohydrocortisone", "9-Fluoro-11\u03b2,17,21-trihydroxypregn-4-ene-3,20-dione", "F-Cortef", "Astonin-H", "Fludrone", "Fludronef", "9\u03b1-Fludrocortisone", "Fluorohydrocortisone", "9\u03b1-Fluorohydrocortisone", "Fluodrocortisone", "9\u03b1-Fluorcortisol", "NSC 11318", "MeSH ID: D005438"], "SMILES": "FC12C(C3C(C)(CC1O)C(C(CO)=O)(O)CC3)CCC=4C2(C)CCC(=O)C4", "physical_data": {"Molecular Weight": "380.45", "Molecular Formula": "C21H29FO5", "Melting Point": "260-262 \u00b0C"}}