{"cas_no": "127-48-0", "cn_name": "\u4e09\u7532\u53cc\u916e", "en_name": ["Trimethadione", "2,4-Oxazolidinedione, 3,5,5-trimethyl-", "3,5,5-Trimethyl-2,4-oxazolidinedione", "Epidione", "Petidion", "Petidon", "Pitmal", "Tridione", "Tridone", "Trimedal", "Trimetadione", "Trimethadione", "3,3,5-Trimethyl-2,4-diketooxazolidine", "Trimetin", "Troxidone", "Minoaleviatin", "Trimethin", "Tridion", "Absentol", "Ptimal", "Edion", "Trimethadion", "Petilep", "Epixal", "Trioxanona", "NSC 15799", "NSC 169503", "3,5,5-Trimethyl-1,3-oxazolidine-2,4-dione", "MeSH ID: D014293"], "SMILES": "O=C1C(C)(C)OC(=O)N1C", "physical_data": {"Molecular Weight": "143.14", "Molecular Formula": "C6H9NO3", "Boiling Point": "78-80 \u00b0C @ Press: 5 Torr", "Melting Point": "46 \u00b0C"}}