{"cas_no": "127-71-9", "cn_name": "\u82ef\u7532\u9170\u78fa\u80fa", "en_name": ["Sulfabenzamide", "Benzamide, N-[(4-aminophenyl)sulfonyl]-", "Benzamide, N-sulfanilyl-", "N-[(4-Aminophenyl)sulfonyl]benzamide", "N-(p-Aminobenzenesulfonyl)benzamide", "N1-Benzoylsulfanilamide", "Sulfabenzamide", "Sulfabenzide", "N-Sulfamylbenzamide", "N-Sulfanilylbenzamide", "Sulfabenzoylamide", "Sulfabenzamid", "Sulfabenzid", "NSC 74587G", "NSC 74587", "N-(Benzoyl)-4-aminobenzenesulfonamide"], "SMILES": "S(NC(=O)C1=CC=CC=C1)(=O)(=O)C2=CC=C(N)C=C2", "physical_data": {"Molecular Weight": "276.31", "Molecular Formula": "C13H12N2O3S", "Melting Point": "181.5 \u00b0C"}}