{"cas_no": "127-22-0", "cn_name": "\u84b2\u516c\u82f1\u841c\u9187", "en_name": ["Taraxerol", "27-Norolean-14-en-3-ol, 13-methyl-, (3\u03b2,13\u03b1)-", "Taraxerol", "D-Friedoolean-14-en-3\u03b2-ol", "D-Friedoolean-14-en-3-ol, (3\u03b2)-", "(3\u03b2,13\u03b1)-13-Methyl-27-norolean-14-en-3-ol", "Alnulin", "Skimmiol", "Tiliadin", "\u039414-Taraxen-3\u03b2-ol", "\u03b2-Taraxerol", "3-Picenol, 1,2,3,4,4a,5,6,6a,8,8a,9,10,11,12,12a,12b,13,14,14a,14b-eicosahydro-4,4,6a,8a,11,11,12b,14b-octamethyl-, (3S,4aR,6aR,8aR,12aR,12bS,14aR,14bR)-", "3\u03b2-Taraxerol", "14-Taraxen-3-ol"], "SMILES": "CC12C=3C(C)(C4C(C)(CC3)CCC(C)(C)C4)CCC1C5(C)C(CC2)C(C)(C)C(O)CC5", "physical_data": {"Molecular Weight": "426.72", "Molecular Formula": "C30H50O", "Melting Point": "283.5 \u00b0C"}}