{"cas_no": "127-21-9", "cn_name": "\u4e8c\u6c2f\u56db\u6c1f\u4e19\u916e", "en_name": ["1,3-Dichlorotetrafluoroacetone", "2-Propanone, 1,3-dichloro-1,1,3,3-tetrafluoro-", "1,3-Dichloro-1,1,3,3-tetrafluoro-2-propanone", "DCTFA", "sym-Dichlorotetrafluoroacetone", "Stauffer N 3412", "1,3-Dichlorotetrafluoroacetone", "1,1,3,3-Tetrafluoro-1,3-dichloroacetone", "1,3-Dichloro-1,1,3,3-tetrafluoroacetone", "Bis(chlorodifluoromethyl) ketone", "1,3-Dichlorotetrafluoropropan-2-one", "NSC 62662"], "SMILES": "C(C(Cl)(F)F)(C(Cl)(F)F)=O", "physical_data": {"Molecular Weight": "198.93", "Molecular Formula": "C3Cl2F4O", "Boiling Point": "44 \u00b0C"}}