{"cas_no": "127-90-2", "cn_name": "\u516b\u6c2f\u4e8c\u4e19\u919a", "en_name": ["Octachlorodipropyl ether", "Propane, 1,1\u2032-oxybis[2,3,3,3-tetrachloro-", "Ether, bis(2,3,3,3-tetrachloropropyl)", "1,1\u2032-Oxybis[2,3,3,3-tetrachloropropane]", "Bis(2,3,3,3-tetrachloropropyl) ether", "Monsanto 16226", "S 421", "Octachlorodipropyl ether", "Octachloro-di-n-propyl ether", "2,3,3,3,2\u2032,3\u2032,3\u2032,3\u2032-Octachlorodipropyl ether", "SV2"], "SMILES": "C(C(Cl)(Cl)Cl)(COCC(C(Cl)(Cl)Cl)Cl)Cl", "physical_data": {"Molecular Weight": "377.74", "Molecular Formula": "C6H6Cl8O", "Boiling Point": "147 \u00b0C", "Melting Point": "-50 \u00b0C"}}