{"cas_no": "127-17-3", "cn_name": "\u4e19\u916e\u9178", "en_name": ["Pyruvic acid", "Propanoic acid, 2-oxo-", "Pyruvic acid", "2-Oxopropanoic acid", "Acetylformic acid", "BTS", "\u03b1-Ketopropionic acid", "Pyroracemic acid", "2-Oxopropionic acid", "NSC 179", "MeSH ID: D019289"], "SMILES": "C(C(O)=O)(C)=O", "physical_data": {"Molecular Weight": "88.06", "Molecular Formula": "C3H4O3", "Boiling Point": "58 \u00b0C @ Press: 7 Torr", "Melting Point": "13.8 \u00b0C", "Density": "1.2227 g/cm\u00b3 @ Temp: 20 \u00b0C"}}