{"cas_no": "127-88-8", "cn_name": "\u53cc(2-\u6c2f\u4e59\u57fa)\u6c28\u57fa\u78f7\u9170\u4e8c\u6c2f", "en_name": ["N,N-Bis(2-chloroethyl)phosphoramidic dichloride", "Phosphoramidic dichloride, N,N-bis(2-chloroethyl)-", "Phosphoramidic dichloride, bis(2-chloroethyl)-", "N,N-Bis(2-chloroethyl)phosphoramidic dichloride", "(N,N-Di-2-chloroethyl) phosphoramidic dichloride", "Bis(2-chloroethyl)phosphoramidic dichloride", "N,N-Bis(2-chloroethyl)phosphamide dichloride", "Bis(2-chloroethyl)aminophosphoric dichloride", "Bis(2-chloroethyl)aminophosphoryl dichloride", "NSC 64119", "2-Chloro-N-(2-chloroethyl)-N-dichlorophosphorylethanamine"], "SMILES": "N(P(Cl)(Cl)=O)(CCCl)CCCl", "physical_data": {"Molecular Weight": "258.90", "Molecular Formula": "C4H8Cl4NOP", "Boiling Point": "127 \u00b0C @ Press: 2 Torr", "Melting Point": "56 \u00b0C"}}