{"cas_no": "127-07-1", "cn_name": "\u7f9f\u57fa\u8132", "en_name": ["Hydroxyurea", "Urea, N-hydroxy-", "Urea, hydroxy-", "N-Hydroxyurea", "SQ 1089", "NSC 32065", "Carbamohydroxamic acid", "HU", "Hydrea", "Hydroxycarbamide", "Hydroxylurea", "Hydroxyurea", "Hydroxylamine, N-(aminocarbonyl)-", "Carbamoyl oxime", "Carbamohydroximic acid", "Hydroxycarbamine", "Litaler", "Oxyurea", "Hidrix", "Hydreia", "Hydura", "Litalir", "Onco-Carbide", "Biosupressin", "NCI C04831", "N-Carbamoylhydroxylamine", "Hydurea", "SK 22591", "Oxyrea", "Droxia", "Cytodrox", "Siklos", "Mylocel", "1-Hydroxyurea", "Xromi", "MeSH ID: D006918"], "SMILES": "C(NO)(N)=O", "physical_data": {"Molecular Weight": "76.05", "Molecular Formula": "CH4N2O2", "Melting Point": "141 \u00b0C"}}