{"cas_no": "127-42-4", "cn_name": "\u7532\u57fa\u7d2b\u7f57\u5170\u916e", "en_name": ["(1E)-1-[(1R)-2,6,6-Trimethyl-2-cyclohexen-1-yl]-1-penten-3-one", "1-Penten-3-one, 1-[(1R)-2,6,6-trimethyl-2-cyclohexen-1-yl]-, (1E)-", "1-Penten-3-one, 1-(2,6,6-trimethyl-2-cyclohexen-1-yl)-, [R-(E)]-", "(1E)-1-[(1R)-2,6,6-Trimethyl-2-cyclohexen-1-yl]-1-penten-3-one", "Methyl-\u03b1-ionone", "(+)-\u03b1-Methylionone", "(R,E)-1-(2,6,6-Trimethylcyclohex-2-en-1-yl)pent-1-en-3-one"], "SMILES": "C(=CC(CC)=O)C1C(C)(C)CCC=C1C", "physical_data": {"Molecular Weight": "206.32", "Molecular Formula": "C14H22O", "Boiling Point": "238 \u00b0C"}}