{"cas_no": "127-06-0", "cn_name": "\u4e19\u916e\u809f", "en_name": ["Acetone, oxime", "2-Propanone, oxime", "Acetone, oxime", "2-Propanone oxime", "Acetoxime", "\u03b2-Isonitrosopropane", "Propanone oxime", "Dimethyl ketoxime", "N-Isopropylidenehydroxylamine", "NSC 7601", "Acetone oxime", "Exkin 518"], "SMILES": "C(=NO)(C)C", "physical_data": {"Molecular Weight": "73.09", "Molecular Formula": "C3H7NO", "Boiling Point": "136 \u00b0C", "Melting Point": "61 \u00b0C", "Density": "0.9232 g/cm\u00b3 @ Temp: 804 \u00b0C"}}