{"cas_no": "127-66-2", "cn_name": "2-\u82ef\u57fa-3-\u4e01\u7094-2-\u9187", "en_name": ["2-Phenyl-3-butyn-2-ol", "Benzenemethanol, \u03b1-ethynyl-\u03b1-methyl-", "3-Butyn-2-ol, 2-phenyl-", "Benzyl alcohol, \u03b1-ethynyl-\u03b1-methyl-", "\u03b1-Ethynyl-\u03b1-methylbenzenemethanol", "3-Phenyl-1-butyn-3-ol", "Methylphenylethynylcarbinol", "2-Phenyl-3-butyn-2-ol", "Ethynylmethylphenylcarbinol", "2-Hydroxy-2-phenyl-3-butyne", "3-Phenylbutyn-3-ol", "2-Phenyl-2-hydroxy-3-butyne", "NSC 4329", "3-Hydroxy-3-phenyl-1-butyne"], "SMILES": "C(C#C)(C)(O)C1=CC=CC=C1", "physical_data": {"Molecular Weight": "146.19", "Molecular Formula": "C10H10O", "Boiling Point": "217.5 \u00b0C", "Melting Point": "52.3 \u00b0C"}}