{"cas_no": "127-20-8", "cn_name": "2,2-\u4e8c\u6c2f\u4e19\u9178", "en_name": ["Dalapon sodium", "Propanoic acid, 2,2-dichloro-, sodium salt (1:1)", "Propionic acid, 2,2-dichloro-, sodium salt", "Propanoic acid, 2,2-dichloro-, sodium salt", "Dalapon sodium", "Dalapon sodium salt", "\u03b1,\u03b1-Dichloropropionic acid sodium salt", "Radapon", "Sodium Dalapon", "Sodium \u03b1,\u03b1-dichloropropionate", "Sodium 2,2-dichloropropionate", "Antigramigna", "Dowpon", "SYS 67 Omnidel", "Tafapon", "Dikopan", "Basfapon", "Sodium dichloropropionate", "2,2-Dichloropropionic acid sodium salt", "Sodium 2,2-dichloropropionic acid", "Gramevin", "Propinate", "Omnidel Spezial", "Omnidel", "Dowpon S", "2,2-DPA Na salt"], "SMILES": "C(C(O)=O)(C)(Cl)Cl.[Na]", "physical_data": {"Molecular Weight": "", "Molecular Formula": "C3H4Cl2O2.Na", "Melting Point": "166.5 \u00b0C"}}