{"cas_no": "127-09-3", "cn_name": "\u65e0\u6c34\u918b\u9178\u94a0", "en_name": ["Sodium acetate", "Acetic acid, sodium salt (1:1)", "Sodium acetate", "Acetic acid, sodium salt", "Anhydrous sodium acetate", "Cryotech NAAC", "Safeway SD", "Protecta Super", "Sanmi-Ace 42", "Smitey", "Acetic acid, sodium salt, hydrate (1:1:3)", "MeSH ID: D019346"], "SMILES": "C(C)(O)=O.[Na]", "physical_data": {"Molecular Weight": "", "Molecular Formula": "C2H4O2.Na", "Melting Point": "324 \u00b0C", "Density": "1.528 g/cm\u00b3"}}