{"cas_no": "127-69-5", "cn_name": "\u78fa\u80fa\u4e8c\u7532\u5f02\u5511", "en_name": ["Sulfisoxazole", "Benzenesulfonamide, 4-amino-N-(3,4-dimethyl-5-isoxazolyl)-", "Sulfanilamide, N1-(3,4-dimethyl-5-isoxazolyl)-", "4-Amino-N-(3,4-dimethyl-5-isoxazolyl)benzenesulfonamide", "Alphazole", "5-(p-Aminobenzenesulfonamido)-3,4-dimethylisoxazole", "5-(p-Aminobenzenesulphonamido)-3,4-dimethylisoxazole", "5-(4-Aminophenylsulfonamido)-3,4-dimethylisoxazole", "Chemouag", "N1-(3,4-Dimethyl-5-isoxazolyl)sulfanilamide", "3,4-Dimethyl-5-sulfanilamidoisoxazole", "Entusul", "Gantrisin", "Gantrosan", "Neazolin", "Roxosul tablets", "Soxisol", "Stansin", "Sulbio", "Sulfadimethylisoxazole", "Sulfafurazol", "Sulfafurazole", "Sulfaisoxazole", "5-Sulfanilamido-3,4-dimethylisoxazole", "Sulfazin", "Sulfisoxazol", "Sulfisoxazole", "Sulphafurazole", "Unisulf", "Thiasin", "Amidoxal", "Neoxazol", "3,4-Dimethyl-5-sulfonamidoisoxazole", "Dorsulfan Warthausen", "Uritrisin", "Gantrisona", "Pancid", "Isoxamin", "Sulfagan", "Norilgan-S", "Sulfasol", "Sulfisoxazole dialamine", "Sulphisoxazole", "Gantrizin", "4-Amino-N-(3,4-dimethylisoxazol-5-yl)benzenesulfonamide", "Sosol", "Sulfalar", "Sulfoxol", "Soxomide", "Sulsoxin", "NSC 13120", "NSC 33807", "NSC 38588", "NSC 683536", "N-(3,4-Dimethylisoxazol-5-yl)-4-aminobenzenesulfonamide", "Soxazole", "MeSH ID: D013444"], "SMILES": "S(NC1=C(C)C(C)=NO1)(=O)(=O)C2=CC=C(N)C=C2", "physical_data": {"Molecular Weight": "267.30", "Molecular Formula": "C11H13N3O3S", "Melting Point": "194 \u00b0C", "Density": "1.40 g/cm\u00b3"}}