{"cas_no": "127-33-3", "cn_name": "\u5730\u7f8e\u73af\u7d20", "en_name": ["Demeclocycline", "2-Naphthacenecarboxamide, 7-chloro-4-(dimethylamino)-1,4,4a,5,5a,6,11,12a-octahydro-3,6,10,12,12a-pentahydroxy-1,11-dioxo-, (4S,4aS,5aS,6S,12aS)-", "2-Naphthacenecarboxamide, 7-chloro-4-(dimethylamino)-1,4,4a,5,5a,6,11,12a-octahydro-3,6,10,12,12a-pentahydroxy-1,11-dioxo-", "2-Naphthacenecarboxamide, 7-chloro-4-(dimethylamino)-1,4,4a,5,5a,6,11,12a-octahydro-3,6,10,12,12a-pentahydroxy-1,11-dioxo-, [4S-(4\u03b1,4a\u03b1,5a\u03b1,6\u03b2,12a\u03b1)]-", "(4S,4aS,5aS,6S,12aS)-7-Chloro-4-(dimethylamino)-1,4,4a,5,5a,6,11,12a-octahydro-3,6,10,12,12a-pentahydroxy-1,11-dioxo-2-naphthacenecarboxamide", "RP 10192", "7-Chloro-6-demethyltetracycline", "7-Chloro-4-dimethylamino-1,4,4a,5,5a,6,11,12a-octahydro-3,6,10,12,12a-pentahydroxy-1,11-dioxo-2-naphthacenecarboxamide", "Chlortetracycline, 6-demethyl-", "Demethylchlorotetracycline", "6-Demethylchlorotetracycline", "6-Demethyl-7-chlorotetracycline", "Demethylchlortetracyclin", "Demethylchlortetracycline", "6-Demethylchlortetracycline", "6-Demethyl-7-chlortetracycline", "DMCT", "Ledermycin", "Mexocine", "Tri-demethylchlortetracycline", "Demeclocycline", "Bioterciclin", "Perciclina", "Elkamicina", "Demeclor", "Sumaclina", "Diuciclin", "Novotriclina", "Demetraclin", "DMCT (antibiotic)", "Periciclina", "Declostatin", "MeSH ID: D003707"], "SMILES": "OC12C(C(N(C)C)C(O)=C(C(N)=O)C1=O)CC3C(=C2O)C(=O)C=4C(C3O)=C(Cl)C=CC4O", "physical_data": {"Molecular Weight": "464.85", "Molecular Formula": "C21H21ClN2O8", "Melting Point": "174-178 \u00b0C (decomp)"}}