{"cas_no": "127-00-4", "cn_name": "1-\u6c2f-2-\u4e19\u9187", "en_name": ["1-Chloro-2-propanol", "2-Propanol, 1-chloro-", "1-Chloro-2-propanol", "1-Chloroisopropyl alcohol", "\u03b1-Propylene chlorohydrin", "sec-Propylene chlorohydrin", "1-Chloro-2-hydroxypropane", "(\u00b1)-1-Chloro-2-propanol", "NSC 77373"], "SMILES": "C(CCl)(C)O", "physical_data": {"Molecular Weight": "94.54", "Molecular Formula": "C3H7ClO", "Boiling Point": "126-127 \u00b0C", "Density": "1.115 g/cm\u00b3 @ Temp: 20 \u00b0C"}}