{"cas_no": "127-68-4", "cn_name": "3-\u785d\u57fa\u82ef\u78fa\u9178\u94a0", "en_name": ["Benzenesulfonic acid, 3-nitro-, sodium salt (1:1)", "Benzenesulfonic acid, 3-nitro-, sodium salt (1:1)", "Benzenesulfonic acid, m-nitro-, sodium salt", "Benzenesulfonic acid, 3-nitro-, sodium salt", "Nitrol S", "Nacan", "Sodium m-nitrobenzenesulfonate", "Sodium 3-nitrobenzenesulfonate", "m-Nitrobenzenesulfonic acid sodium salt", "Ludigol", "3-Nitrobenzenesulfonic acid sodium salt", "m-Nitrobenzenesulfonic acid sodium salt", "Sodium m-nitrobenzenesulfonate", "Sodium 3-nitrophenylsulfonate", "Register liquid", "Resist S", "Fangranyan S", "Resist salt L"], "SMILES": "S(=O)(=O)(O)C1=CC(N(=O)=O)=CC=C1.[Na]", "physical_data": {"Molecular Weight": "", "Molecular Formula": "C6H5NO5S.Na", "Boiling Point": "217.5 \u00b0C", "Melting Point": "52.3 \u00b0C"}}