{"cas_no": "127-41-3", "cn_name": "alpha-\u7d2b\u7f57\u916e", "en_name": ["\u03b1-Ionone", "3-Buten-2-one, 4-(2,6,6-trimethyl-2-cyclohexen-1-yl)-, (3E)-", "3-Buten-2-one, 4-(2,6,6-trimethyl-2-cyclohexen-1-yl)-, (E)-", "(3E)-4-(2,6,6-Trimethyl-2-cyclohexen-1-yl)-3-buten-2-one", "\u03b1-Cyclocitrylideneacetone", "4-(2,6,6-Trimethyl-2-cyclohexen-1-yl)-3-buten-2-one", "\u03b1-Ionone", "trans-\u03b1-Ionone", "(E)-\u03b1-Ionone", "4-(2,6,6-Trimethyl-2-cyclohexenyl)-3-buten-2-one", "(5E)-Ionone", "(\u00b1)-\u03b1-Ionone", "(\u00b1)-trans-\u03b1-Ionone", "(E)-4-(2,6,6-Trimethyl-2-cyclohexen-1-yl)-3-buten-2-one"], "SMILES": "C(=CC(C)=O)C1C(C)(C)CCC=C1C", "physical_data": {"Molecular Weight": "192.30", "Molecular Formula": "C13H20O", "Boiling Point": "121-122 \u00b0C @ Press: 10 Torr", "Melting Point": "&lt;25 \u00b0C", "Density": "0.9319 g/cm\u00b3 @ Temp: 20 \u00b0C"}}