{"cas_no": "127-52-6", "cn_name": "\u6c2f\u80fa B", "en_name": ["Chloramine B", "Benzenesulfonamide, N-chloro-, sodium salt (1:1)", "Benzenesulfonamide, N-chloro-, sodium salt", "Chloramine-B", "Sodium, (N-chlorobenzenesulfonamido)-", "Annogen", "Benzene chloramine", "Benzenesulfochloramide sodium", "Sodium benzosulfochloramide", "Sodium, [chloro(phenylsulfonyl)amino]-", "Monochloramine B", "Sodium N-chlorobenzenesulfonamide", "N-Chlorobenzenesulfonamide sodium salt", "Chlorogen", "Neomagnol", "N-Chloro-N-sodiobenzenesulfonamide", "Sodium (phenylsulfonyl)chloramide", "Sodium N-chlorobenzenesulfonamidate", "Khloramin B", "Chlordetal", "Sodium benzenesulfochloramine", "Chloramine B"], "SMILES": "S(NCl)(=O)(=O)C1=CC=CC=C1.[Na]", "physical_data": {"Molecular Weight": "", "Molecular Formula": "C6H6ClNO2S.Na", "Melting Point": "170-173 \u00b0C"}}