{"cas_no": "127-51-5", "cn_name": "\u03b1-\u5f02\u7532\u57fa\u7d2b\u7f57\u5170\u916e", "en_name": ["Isomethyl-\u03b1-ionone", "3-Buten-2-one, 3-methyl-4-(2,6,6-trimethyl-2-cyclohexen-1-yl)-", "3-Methyl-4-(2,6,6-trimethyl-2-cyclohexen-1-yl)-3-buten-2-one", "\u03b1-Cetone", "4-(2,6,6-Trimethyl-2-cyclohexen-1-yl)-3-methyl-3-buten-2-one", "\u03b1-Ionone, isomethyl-", "Isomethyl-\u03b1-ionone", "Cetone Alpha", "NSC 66432", "3-Methyl-4-(2,6,6-trimethylcyclohex-2-enyl)-3-buten-2-one"], "SMILES": "C(=C(C(C)=O)C)C1C(C)(C)CCC=C1C", "physical_data": {"Molecular Weight": "206.32", "Molecular Formula": "C14H22O", "Boiling Point": "121-122 \u00b0C @ Press: 9 Torr", "Density": "0.9345 g/cm\u00b3 @ Temp: 20 \u00b0C"}}