{"cas_no": "127-47-9", "cn_name": "\u7ef4\u751f\u7d20 A \u918b\u9178\u916f", "en_name": ["Retinol, acetate", "Retinol, acetate", "Retinol, acetate, all-trans-", "Myvak", "Myvax", "Retinyl acetate", "all-trans-Vitamin A acetate", "all-trans-Retinyl acetate", "Vitamin A acetate", "trans-Retinyl acetate", "Vitamin A1 acetate", "Arovit", "Ro 1-5275", "all-trans-Retinol acetate", "trans-Retinol acetate", "NSC 122045", "NSC 122760", "Rovimix A 1000", "Retinol acetate", "Dry Vitamin A Acetate 325CWS/A"], "SMILES": "C(=CC(=CC=CC(=CCOC(C)=O)C)C)C=1C(C)(C)CCCC1C", "physical_data": {"Molecular Weight": "328.49", "Molecular Formula": "C22H32O2", "Melting Point": "57-58 \u00b0C"}}