{"cas_no": "127-56-0", "cn_name": "\u78fa\u80fa\u4e59\u9170\u94a0", "en_name": ["Sodium sulfacetamide", "Acetamide, N-[(4-aminophenyl)sulfonyl]-, sodium salt (1:1)", "Acetamide, N-sulfanilyl-, monosodium salt", "Acetamide, N-[(4-aminophenyl)sulfonyl]-, monosodium salt", "Sodium, (N1-acetylsulfanilamido)-", "Acetamide, N-sulfanilyl-, sodium deriv.", "Bleph 10", "N1-Acetylsulfanilamide sodium", "N1-Acetylsulfanilamide sodium salt", "Albucid soluble", "Oc-U-Mid", "Sodium sulfacetamide", "Sodium sulfacyl", "Sodium sulfanilylacetamide", "Sodium N-sulfanilylacetamide", "Sulamyd sodium", "Sulfacetamide sodium", "Sulfacetamide sodium salt", "Sulfacyl sol", "Sulfacyl soluble", "Soluble sulfacyl", "Sulfacyl sodium", "Sodium albucid", "Albucide", "N-Sulfanilylacetamide sodium", "Soluble sulfacetamide", "Beocid-Isoptal", "Supracid", "Locula", "Sulphacetamide sodium", "Farmamid", "Galseptil", "Almocetamide", "Antebor", "Prontamid", "Octsetan", "Sulfacyl sodium salt", "N-Acetylsulfanilamide sodium salt", "Klaron", "Andremide"], "SMILES": "S(NC(C)=O)(=O)(=O)C1=CC=C(N)C=C1.[Na]", "physical_data": {"Molecular Weight": "", "Molecular Formula": "C8H10N2O3S.Na", "Melting Point": "257 \u00b0C"}}