{"cas_no": "127-65-1", "cn_name": "\u6c2f\u80fa T", "en_name": ["Chloramine-T", "Benzenesulfonamide, N-chloro-4-methyl-, sodium salt (1:1)", "p-Toluenesulfonamide, N-chloro-, sodium salt", "Benzenesulfonamide, N-chloro-4-methyl-, sodium salt", "Aktivin", "Chloraseptine", "Chlorazone", "N-Chloro-p-toluenesulfonamide sodium", "Chlorozone", "Clorina", "Chlorazene", "Euclorina", "Gansil", "Gyneclorina", "Mannolite", "Mianine", "Sodium N-chloro-p-toluenesulfonamide", "Sodium p-toluenesulfonchloramide", "Sodium p-toluenesulfonylchloramide", "Sodium tosylchloramide", "Tampules", "Tochlorine", "Tolamine", "Tosylchloramide sodium", "Halamid", "Chlorazan", "Kloramin", "Sodium chloramine T", "Chlorasan", "Kloramine-T", "Monochloramine T", "N-Chloro-p-toluenesulfonamide sodium salt", "Chloramine-T", "N-Chlorotoluenesulfonamide sodium salt", "Acti-chlore", "Clorosan", "Anexol", "Berkendyl", "Heliogen", "Chloralone", "Cloramine T", "Chlorseptol", "Sodium p-toluenesulfochloramide", "Multichlor", "Desinfect", "Sodium N-chloro-4-methylbenzenesulfonamide", "Aseptoclean", "Aktiven", "Chlorazene hydrosol", "N-Chloro-4-methylbenzenesulfonamide sodium salt", "Kloramin B", "Asepto-Sol"], "SMILES": "S(NCl)(=O)(=O)C1=CC=C(C)C=C1.[Na]", "physical_data": {"Molecular Weight": "", "Molecular Formula": "C7H8ClNO2S.Na", "Melting Point": "170-177 \u00b0C (decomp)"}}