{"cas_no": "127-77-5", "cn_name": "\u78fa\u80fa\u82ef", "en_name": ["Sulfabenz", "Benzenesulfonamide, 4-amino-N-phenyl-", "Sulfanilanilide", "4-Amino-N-phenylbenzenesulfonamide", "4-Aminobenzenesulfonanilide", "N1-Phenylsulfanilamide", "Sulfa Vet", "Sulfabenz", "p-Aminobenzenesulfonanilide", "p-Amino-N-phenylbenzenesulfonamide", "4-(Phenylsulfamoyl)benzenamine", "NSC 2619", "N-Phenyl 4-aminobenzenesulfonamide"], "SMILES": "S(NC1=CC=CC=C1)(=O)(=O)C2=CC=C(N)C=C2", "physical_data": {"Molecular Weight": "248.30", "Molecular Formula": "C12H12N2O2S", "Melting Point": "200 \u00b0C"}}