{"cas_no": "127-40-2", "cn_name": "\u53f6\u9ec4\u7d20", "en_name": ["Lutein A", "\u03b2,\u03b5-Carotene-3,3\u2032-diol, (3R,3\u2032R,6\u2032R)-", "(3R,3\u2032R,6\u2032R)-\u03b2,\u03b5-Carotene-3,3\u2032-diol", "trans-Lutein", "Vegetable lutein", "Vegetable luteol", "Xanthophyll", "Lutein", "all-trans-Lutein", "all-trans-(+)-Xanthophyll", "Bo-Xan", "all-trans-Xanthophyll", "Luteine", "Lutein A", "Oro Glo 7", "FloraGLO", "(3R,3\u2032R,6\u2032R)-Lutein", "E 161", "E 161b", "6\u2032-Hydro-4\u2032,5\u2032-dehydro-\u03b2-carotene-3,3\u2032-diol", "(all-E)-Lutein", "OS 24", "FloraGLO Lutein", "Retidyne", "Retidyne plus", "Phacodyne", "Vitreodyne", "(3R,3\u2032R,6R)-Lutein", "MeSH ID: D014975"], "SMILES": "C(=CC(=CC=CC(=CC=CC=C(C=CC=C(C=CC=1C(C)(C)CC(O)CC1C)C)C)C)C)C2C(C)(C)CC(O)C=C2C", "physical_data": {"Molecular Weight": "568.87", "Molecular Formula": "C40H56O2", "Melting Point": "196 \u00b0C"}}