{"cas_no": "127-18-4", "cn_name": "\u56db\u6c2f\u4e59\u70ef", "en_name": ["Tetrachloroethylene", "Ethene, 1,1,2,2-tetrachloro-", "Ethylene, tetrachloro-", "Ethene, tetrachloro-", "1,1,2,2-Tetrachloroethene", "Ankilostin", "Didakene", "Ethylene tetrachloride", "Nema", "Perchloroethylene", "PerSec", "Tetracap", "Tetrachloroethylene", "1,1,2,2-Tetrachloroethylene", "Tetrachlorethylene", "Perchlorethylene", "Tetrachloroethene", "Antisal 1", "Tetraguer", "Fedal-Un", "Tetraleno", "Tetropil", "Perclene", "Tetlen", "Dilatin PT", "Freon 1110", "Perchloroethene", "F 1110 (halocarbon)", "F 1110", "PCE", "R 1110", "Perklone", "PCE (chlorohydrocarbon)", "NSC 9777", "Asahi Perchlor", "Persa P 3", "LXGL 15", "HCO 1110", "MeSH ID: D013750"], "SMILES": "C(=C(Cl)Cl)(Cl)Cl", "physical_data": {"Molecular Weight": "165.83", "Molecular Formula": "C2Cl4", "Boiling Point": "121.3 \u00b0C", "Melting Point": "-22.3 \u00b0C", "Density": "1.6227 g/cm\u00b3 @ Temp: 20 \u00b0C"}}