{"cas_no": "127-79-7", "cn_name": "\u78fa\u80fa\u7532\u57fa\u5627\u5576", "en_name": ["Sulfamerazine", "Benzenesulfonamide, 4-amino-N-(4-methyl-2-pyrimidinyl)-", "Sulfanilamide, N1-(4-methyl-2-pyrimidinyl)-", "4-Amino-N-(4-methyl-2-pyrimidinyl)benzenesulfonamide", "RP 2632", "Cremomerazine", "Methylpyrimal", "N1-(4-Methyl-2-pyrimidinyl)sulfanilamide", "Methylsulfazine", "Percoccide", "Pyralcid", "Pyrimal m", "2643RP", "Sulfamerazine", "Sulfamethyldiazine", "2-Sulfa-4-methylpyrimidine", "2-Sulfanilamido-4-methylpyrimidine", "Sumedine", "Veta-Merazine", "Romezin", "A 310", "Sulfameradine", "N-(4-Methyl-2-pyrimidyl)sulfanilamide", "Sulphamerazine", "Metilsulfazin", "Metilsulfadiazin", "Pirimal-M", "Sulfamerazin", "Debenal-M", "Kelamerazine", "2632RP", "Septacil", "Mesulfa", "Mebacid", "2-(4-Aminobenzenesulfonamido)-4-methylpyrimidine", "Spanbolet II", "NSC 27259", "N-(4-Methylpyrimidin-2-yl)-4-aminobenzenesulfonamide", "MeSH ID: D013416"], "SMILES": "S(NC=1N=C(C)C=CN1)(=O)(=O)C2=CC=C(N)C=C2", "physical_data": {"Molecular Weight": "264.30", "Molecular Formula": "C11H12N4O2S", "Melting Point": "236 \u00b0C", "Density": "1.3425 g/cm\u00b3"}}