{"cas_no": "127-27-5", "cn_name": "\u6d77\u677e\u9178", "en_name": ["Pimaric acid", "1-Phenanthrenecarboxylic acid, 7-ethenyl-1,2,3,4,4a,4b,5,6,7,9,10,10a-dodecahydro-1,4a,7-trimethyl-, (1R,4aR,4bS,7S,10aR)-", "Podocarp-8(14)-en-15-oic acid, 13\u03b1-methyl-13-vinyl-", "1-Phenanthrenecarboxylic acid, 7-ethenyl-1,2,3,4,4a,4b,5,6,7,9,10,10a-dodecahydro-1,4a,7-trimethyl-, [1R-(1\u03b1,4a\u03b2,4b\u03b1,7\u03b2,10a\u03b1)]-", "(1R,4aR,4bS,7S,10aR)-7-Ethenyl-1,2,3,4,4a,4b,5,6,7,9,10,10a-dodecahydro-1,4a,7-trimethyl-1-phenanthrenecarboxylic acid", "Dextropimaric acid", "13\u03b1-Methyl-13-vinylpodocarp-8(14)-en-15-oic acid", "Pimara-8(14),15-dien-19-oic acid", "Pimaric acid", "d-Pimaric acid", "\u03b1-Pimaric acid", "\u03948(14)-Pimaric acid", "8(14),15-Pimaradien-18-oic acid", "NSC 2956"], "SMILES": "CC12C(C(C(O)=O)(C)CCC1)CCC=3C2CCC(C=C)(C)C3", "physical_data": {"Molecular Weight": "302.45", "Molecular Formula": "C20H30O2", "Boiling Point": "282 \u00b0C @ Press: 16-20 Torr", "Melting Point": "218.5 \u00b0C"}}