{"cas_no": "127045-41-4", "cn_name": "\u5e15\u73e0\u6c99\u661f", "en_name": ["Pazufloxacin", "7H-Pyrido[1,2,3-de]-1,4-benzoxazine-6-carboxylic acid, 10-(1-aminocyclopropyl)-9-fluoro-2,3-dihydro-3-methyl-7-oxo-, (3S)-", "7H-Pyrido[1,2,3-de]-1,4-benzoxazine-6-carboxylic acid, 10-(1-aminocyclopropyl)-9-fluoro-2,3-dihydro-3-methyl-7-oxo-, (S)-", "(3S)-10-(1-Aminocyclopropyl)-9-fluoro-2,3-dihydro-3-methyl-7-oxo-7H-pyrido[1,2,3-de]-1,4-benzoxazine-6-carboxylic acid", "T 3761", "(-)-(3S)-10-(1-Aminocyclopropyl)-9-fluoro-2,3-dihydro-3-methyl-7-oxo-7H-pyrido[1,2,3-de]-1,4-benzoxazine-6-carboxylic acid", "Pazufloxacin"], "SMILES": "O=C1C=2C3=C(C(=C(F)C2)C4(N)CC4)OCC(C)N3C=C1C(O)=O", "physical_data": {"Molecular Weight": "318.30", "Molecular Formula": "C16H15FN2O4", "Melting Point": "269-271.5 \u00b0C"}}