{"cas_no": "1270-98-0", "cn_name": "\u4e09\u6c2f\u4e00\u8302\u949b", "en_name": ["Cyclopentadienyltitanium trichloride", "Titanium, trichloro(\u03b75-2,4-cyclopentadien-1-yl)-", "Titanium, trichloro-\u03c0-cyclopentadienyl-", "Titanium, trichlorocyclopentadienyl-", "Cyclopentadienyltitanium(IV) trichloride", "Trichloro(\u03b75-2,4-cyclopentadien-1-yl)titanium", "Cyclopentadienyltitanium trichloride", "\u03c0-Cyclopentadienyltitanium trichloride", "Trichloro-\u03c0-cyclopentadienyltitanium", "Trichloro(cyclopentadienyl)titanium", "Cyclopentadienyltrichlorotitanium", "Trichloro(cyclopentyldienyl)titanium", "\u03b75-Cyclopentadienyltitanium trichloride", "Trichloro(\u03b75-cyclopentadienyl)titanium", "Monocyclopentadienyltitanium trichloride", "NSC 332761", "Titanocene trichloride"], "SMILES": "[Cl-][Ti+4]1234([Cl-])([Cl-])[CH-]5[CH]1=[CH]2[CH]3=[CH]45", "physical_data": {"Molecular Weight": "", "Molecular Formula": "C5H5Cl3Ti", "Melting Point": "198-199 \u00b0C"}}