{"cas_no": "1271-86-9", "cn_name": "N,N-\u4e8c\u7532\u6c28\u57fa\u7532\u57fa\u4e8c\u8302\u94c1", "en_name": ["N,N-Dimethylaminomethylferrocene", "Ferrocene, [(dimethylamino)methyl]-", "Ferrocenemethylamine, N,N-dimethyl-", "Iron, cyclopentadienyl[[(dimethylamino)methyl]cyclopentadienyl]-", "[(Dimethylamino)methyl]ferrocene", "N,N-Dimethylferrocenylmethylamine", "\u03b1-Ferrocenyltrimethylamine", "N,N-Dimethylaminomethylferrocene", "N-Dimethylaminomethylferrocene", "(Ferrocenylmethyl)dimethylamine", "NSC 3432"], "SMILES": "C(N(C)C)[C-]12[Fe+2]3456789([CH]1=[CH]3[CH]4=[CH]52)[CH-]%10[CH]6=[CH]7[CH]8=[CH]9%10", "physical_data": {"Molecular Weight": "", "Molecular Formula": "C13H17FeN", "Boiling Point": "91-92 \u00b0C @ Press: 0.45 Torr", "Melting Point": "5.25-8.31 \u00b0C"}}