{"cas_no": "1271-51-8", "cn_name": "\u4e59\u70ef\u57fa\u4e8c\u8302\u94c1", "en_name": ["Vinylferrocene", "Ferrocene, ethenyl-", "Ferrocene, vinyl-", "Iron, cyclopentadienyl(vinylcyclopentadienyl)-", "Ethenylferrocene", "Vinylferrocene", "Ferrocenylethylene", "Ferrocenylethene", "2-(Ferrocenyl)ethene"], "SMILES": "C(=C)[C-]12[Fe+2]3456789([CH]1=[CH]3[CH]4=[CH]52)[CH-]%10[CH]6=[CH]7[CH]8=[CH]9%10", "physical_data": {"Molecular Weight": "", "Molecular Formula": "C12H12Fe", "Boiling Point": "80-85 \u00b0C @ Press: 0.2 Torr", "Melting Point": "50-52 \u00b0C"}}