{"cas_no": "1271-54-1", "cn_name": "\u53cc\u82ef\u94ec", "en_name": ["Chromium, bis(\u03b76-benzene)-", "Chromium, bis(\u03b76-benzene)-", "Chromium, bis(benzene)-", "Bis(benzene)chromium", "Dibenzenechromium", "\u03c0-Bis(benzene)chromium(0)", "Bis(benzene)chromium(0)", "Di(\u03b76-benzene)chromium", "Bis(\u03b76-benzene)chromium"], "SMILES": "[Cr]123456789%10([CH]=%11[CH]1=[CH]2[CH]3=[CH]4[CH]5%11)[CH]=%12[CH]6=[CH]7[CH]8=[CH]9[CH]%10%12", "physical_data": {"Molecular Weight": "", "Molecular Formula": "C12H12Cr", "Melting Point": "282-284 \u00b0C"}}