{"cas_no": "127199-14-8", "cn_name": "(1S,2S)-2-\u6c1f\u73af\u4e19\u7532\u9178", "en_name": ["(1S,2S)-2-Fluorocyclopropanecarboxylic acid", "Cyclopropanecarboxylic acid, 2-fluoro-, (1S,2S)-", "Cyclopropanecarboxylic acid, 2-fluoro-, (1S-cis)-", "(1S,2S)-2-Fluorocyclopropanecarboxylic acid", "(+)-cis-2-Fluorocyclopropanecarboxylic acid", "(1S,2S)-2-Fluorocyclopropane-1-carboxylic acid", "(1S,2S)-2-Fluorocyclopropanecarboxylic acid"], "SMILES": "C(O)(=O)C1C(F)C1", "physical_data": {"Molecular Weight": "104.08", "Molecular Formula": "C4H5FO2", "Melting Point": "55-56 \u00b0C"}}