{"cas_no": "1271-94-9", "cn_name": "\u4e01\u9170\u57fa\u4e8c\u8302\u94c1", "en_name": ["(1-Oxobutyl)ferrocene", "Ferrocene, (1-oxobutyl)-", "1-Butanone, 1-ferrocenyl-", "Iron, (butyrylcyclopentadienyl)cyclopentadienyl-", "(1-Oxobutyl)ferrocene", "1-Butanone, 1-(cyclopentadienyl)-, cyclopentadienyliron deriv.", "Butyrylferrocene", "Butyryldicyclopentadienyliron", "Butanoyl ferrocene", "n-Butyrylferrocene"], "SMILES": "C(CCC)(=O)[C-]12[Fe+2]3456789([CH]1=[CH]3[CH]4=[CH]52)[CH-]%10[CH]6=[CH]7[CH]8=[CH]9%10", "physical_data": {"Molecular Weight": "", "Molecular Formula": "C14H16FeO", "Boiling Point": "120-122 \u00b0C @ Press: 0.25 Torr", "Melting Point": "36 \u00b0C"}}