{"cas_no": "1271-03-0", "cn_name": "\u73af\u620a\u4e8c\u70ef\u57fa\u70ef\u4e19\u57fa\u94af", "en_name": ["(\u03b75-2,4-Cyclopentadien-1-yl)(\u03b73-2-propen-1-yl)palladium", "Palladium, (\u03b75-2,4-cyclopentadien-1-yl)(\u03b73-2-propen-1-yl)-", "Palladium, \u03c0-allyl-\u03c0-cyclopentadienyl-", "Palladium, (\u03b75-2,4-cyclopentadien-1-yl)(\u03b73-2-propenyl)-", "Palladium, \u03c0-allylcyclopentadienyl-", "Palladium, allylcyclopentadienyl-", "(\u03b75-2,4-Cyclopentadien-1-yl)(\u03b73-2-propen-1-yl)palladium", "\u03c0-Cyclopentadienyl-\u03c0-allylpalladium", "\u03c0-Allyl-\u03c0-cyclopentadienylpalladium", "(\u03b73-Allyl)(\u03b75-cyclopentadienyl)palladium", "Allyl(cyclopentadienyl)palladium", "Allyl(\u03b75-cyclopentadienyl)palladium", "(\u03b73-Allyl)(cyclopentadienyl)palladium", "Allyl (cyclopentadienyl)palladium(II)"], "SMILES": "[Pd+2]123456([CH-]7[CH]1=[CH]2[CH]3=[CH]47)[CH]([CH2-]5)=[CH2]6", "physical_data": {"Molecular Weight": "", "Molecular Formula": "C8H10Pd", "Melting Point": "60-62 \u00b0C", "Density": "1.73 g/cm\u00b3"}}