{"cas_no": "1271-24-5", "cn_name": "\u53cc(\u73af\u620a\u4e8c\u70ef)\u94ec", "en_name": ["Chromocene", "Chromocene", "Chromium, di-\u03c0-cyclopentadienyl-", "Chromium, dicyclopentadienyl-", "Chromium, bis(\u03b75-2,4-cyclopentadien-1-yl)-", "Bis(cyclopentadiene)chromium(II)", "Bis(cyclopentadienyl)chromium(II)", "Dicyclopentadienylchromium", "Bis(cyclopentadiene)chromium", "Bis(cyclopentadienyl)chromium", "Di(\u03b75-cyclopentadienyl)chromium", "Bis(\u03b75-cyclopentadienyl)chromium"], "SMILES": "[Cr+2]12345678([CH]=9[CH]1=[CH]2[CH-]3[CH]49)[CH]=%10[CH-]5[CH]6=[CH]7[CH]8%10", "physical_data": {"Molecular Weight": "", "Molecular Formula": "C10H10Cr", "Melting Point": "170-172 \u00b0C"}}