{"cas_no": "1271-28-9", "cn_name": "\u4e8c\u8302\u954d", "en_name": ["Nickelocene", "Nickelocene", "Nickel, di-\u03c0-cyclopentadienyl-", "Nickel, dicyclopentadienyl-", "Di-\u03c0-Cyclopentadienylnickel", "Dicyclopentadienylnickel", "Nickel, bis(\u03b75-2,4-cyclopentadien-1-yl)-", "Bis(\u03b75-2,4-cyclopentadien-1-yl)nickel", "Bis(cyclopentadienyl)nickel(II)", "Bis(\u03b75-cyclopentadienyl)nickel", "Ni(cyclopentadienyl)2"], "SMILES": "[Ni+2]12345678([CH]=9[CH]1=[CH]2[CH-]3[CH]49)[CH]=%10[CH]5=[CH]6[CH-]7[CH]8%10", "physical_data": {"Molecular Weight": "", "Molecular Formula": "C10H10Ni", "Melting Point": "172-173 \u00b0C (decomp)"}}