{"cas_no": "1271-42-7", "cn_name": "\u4e8c\u8302\u94c1\u7532\u9178", "en_name": ["Ferrocenemonocarboxylic acid", "Ferrocene, carboxy-", "Ferrocenecarboxylic acid", "Iron, (carboxycyclopentadienyl)cyclopentadienyl-", "Cyclopentadienecarboxylic acid, cyclopentadienyliron deriv.", "Ferrocenoic acid", "Ferrocenemonocarboxylic acid", "Carboxyferrocene", "Carboxylferrocene", "Ferrocenylcarboxylic acid", "NSC 97552"], "SMILES": "C(O)(=O)[C-]12[Fe+2]3456789([CH]1=[CH]3[CH]4=[CH]52)[CH-]%10[CH]6=[CH]7[CH]8=[CH]9%10", "physical_data": {"Molecular Weight": "", "Molecular Formula": "C11H10FeO2", "Melting Point": "&gt;200 \u00b0C"}}