{"cas_no": "1271-19-8", "cn_name": "\u4e8c\u6c2f\u4e8c\u8302\u949b", "en_name": ["Titanocene dichloride", "Titanium, dichlorobis(\u03b75-2,4-cyclopentadien-1-yl)-", "Titanium, dichlorodi-\u03c0-cyclopentadienyl-", "Dicyclopentadienyltitanium(IV) dichloride", "Dichlorobis(\u03b75-2,4-cyclopentadien-1-yl)titanium", "Bis(cyclopentadienyl)titanium dichloride", "Dicyclopentadienyltitanium dichloride", "Dichlorodicyclopentadienyltitanium", "Titanocene dichloride", "Bis(\u03c0-cyclopentadienyl)titanium dichloride", "Dichlorodi-\u03c0-cyclopentadienyltitanium", "Dichlorotitanocene", "Dicyclopentadienyldichlorotitanium", "Dichlorobis(\u03c0-cyclopentadienyl)titanium", "Bis(\u03b75-cyclopentadienyl)titanium dichloride", "Dichlorobis(\u03b75-cyclopentadienyl)titanium", "Dichlorobis(cyclopentadienyl)titanium", "Dichlorobis(1,3-cyclopentadiene)titanium", "Bis(cyclopentadienyl)dichlorotitanium", "NSC 78453"], "SMILES": "[Cl-][Ti+4]12345678([Cl-])([CH]=9[CH-]1[CH]2=[CH]3[CH]49)[CH-]%10[CH]5=[CH]6[CH]7=[CH]8%10", "physical_data": {"Molecular Weight": "", "Molecular Formula": "C10H10Cl2Ti", "Boiling Point": "138-140 \u00b0C @ Press: 1 Torr", "Melting Point": "289 \u00b0C", "Density": "1.60 g/cm\u00b3"}}