{"cas_no": "1271-55-2", "cn_name": "\u4e59\u9170\u57fa\u4e8c\u8302\u94c1", "en_name": ["Acetylferrocene", "Ferrocene, acetyl-", "Ketone, ferrocenyl methyl", "Iron, (acetylcyclopentadienyl)cyclopentadienyl-", "Acetylferrocene", "Ethanone, 1-ferrocenyl-", "Acetoferrocene", "Monoacetylferrocene", "1-Acetylferrocene", "Ferrocenyl methyl ketone", "(\u03b75-Acetylcyclopentadienyl)(\u03b75-cyclopentadienyl)iron", "1-Ferrocenylethanone", "NSC 115511"], "SMILES": "C(C)(=O)[C-]12[Fe+2]3456789([CH]1=[CH]3[CH]4=[CH]52)[CH-]%10[CH]6=[CH]7[CH]8=[CH]9%10", "physical_data": {"Molecular Weight": "", "Molecular Formula": "C12H12FeO", "Melting Point": "85 \u00b0C"}}