{"cas_no": "1272-26-0", "cn_name": "\u4e09(\u73af\u620a\u4e8c\u70ef\u57fa)\u94e5(III)", "en_name": ["Tris(\u03b75-2,4-cyclopentadien-1-yl)thulium", "Thulium, tris(\u03b75-2,4-cyclopentadien-1-yl)-", "Thulium, tri-\u03c0-cyclopentadienyl-", "Thulium, tricyclopentadienyl-", "Tris(\u03b75-2,4-cyclopentadien-1-yl)thulium", "Tris(cyclopentadienyl)thulium", "Thulium tricyclopentadienide", "Tricyclopentadienyl thulium", "Tris(\u03b75-cyclopentadienyl)thulium"], "SMILES": "[Tm+3]123456789%10%11%12([CH]=%13[CH-]1[CH]2=[CH]3[CH]4%13)([CH]%14=[CH]5[CH-]6[CH]7=[CH]8%14)[CH]=%15[CH]9=[CH]%10[CH-]%11[CH]%12%15", "physical_data": {"Molecular Weight": "", "Molecular Formula": "C15H15Tm", "Melting Point": "278 \u00b0C"}}