{"cas_no": "1272-44-2", "cn_name": "\u82ef\u7532\u9170\u57fa\u4e8c\u8302\u94c1", "en_name": ["Benzoylferrocene", "Ferrocene, benzoyl-", "Ketone, ferrocenyl phenyl", "Iron, (benzoylcyclopentadienyl)cyclopentadienyl-", "Benzoylferrocene", "Monobenzoylferrocene", "Methanone, ferrocenylphenyl-", "Ferrecenophenone", "Benzoyldicyclopentadienyliron", "Ferrocenyl phenyl ketone", "1-Benzoylferrocene", "Ferrocenyl(phenyl)methanone", "NSC 54800", "Phenyl ferrocenyl ketone"], "SMILES": "C(=O)([C-]12[Fe+2]3456789([CH]1=[CH]3[CH]4=[CH]52)[CH-]%10[CH]6=[CH]7[CH]8=[CH]9%10)C%11=CC=CC=C%11", "physical_data": {"Molecular Weight": "", "Molecular Formula": "C17H14FeO", "Melting Point": "108-109 \u00b0C", "Density": "1.507 g/cm\u00b3"}}