{"cas_no": "1273-97-8", "cn_name": "1,1'-\u4e8c\u4e59\u57fa\u4e8c\u8302\u94c1", "en_name": ["Ferrocene, 1,1\u2032-diethyl-", "Ferrocene, 1,1\u2032-diethyl-", "Iron, bis(ethylcyclopentadienyl)-", "1,1\u2032-Diethylferrocene"], "SMILES": "C(C)[C-]12[Fe+2]3456789([C-]%10(CC)[CH]3=[CH]4[CH]5=[CH]6%10)[CH]1=[CH]7[CH]8=[CH]92", "physical_data": {"Molecular Weight": "", "Molecular Formula": "C14H18Fe", "Boiling Point": "123-124 \u00b0C @ Press: 5.5 Torr", "Density": "1.1787 g/cm\u00b3 @ Temp: 20 \u00b0C"}}