{"cas_no": "1273-94-5", "cn_name": "1,1'-\u4e8c\u4e59\u9170\u57fa\u4e8c\u8302\u94c1", "en_name": ["1,1\u2032-Diacetylferrocene", "Ferrocene, 1,1\u2032-diacetyl-", "Iron, bis(cyclopentadienyl methyl ketone)-", "1,1\u2032-Diacetylferrocene", "DAF", "NSC 16677", "NSC 511707", "Bis(\u03b75-acetylcyclopentadienyl)iron", "Diacetylferrocene"], "SMILES": "C(C)(=O)[C-]12[Fe+2]3456789([C-]%10(C(C)=O)[CH]3=[CH]4[CH]5=[CH]6%10)[CH]1=[CH]7[CH]8=[CH]92", "physical_data": {"Molecular Weight": "", "Molecular Formula": "C14H14FeO2", "Melting Point": "127-127.5 \u00b0C"}}