{"cas_no": "1273-84-3", "cn_name": "\u6c30\u57fa\u4e8c\u8302\u94c1", "en_name": ["Cyanoferrocene", "Ferrocene, cyano-", "Ferrocenecarbonitrile", "Iron, (cyanocyclopentadienyl)cyclopentadienyl-", "Cyanoferrocene", "Cyclopentadienecarbonitrile, cyclopentadienyliron deriv.", "1-Cyanoferrocene", "Ferrocenyl cyanide", "Ferrocenylnitrile"], "SMILES": "C(#N)[C-]12[Fe+2]3456789([CH]1=[CH]3[CH]4=[CH]52)[CH-]%10[CH]6=[CH]7[CH]8=[CH]9%10", "physical_data": {"Molecular Weight": "", "Molecular Formula": "C11H9FeN", "Melting Point": "105.5-106.5 \u00b0C"}}