{"cas_no": "12738-64-6", "cn_name": "\u8517\u7cd6\u82ef\u7532\u9178\u916f", "en_name": ["Sucrose benzoate", "\u03b1-D-Glucopyranoside, \u03b2-D-fructofuranosyl, benzoate", "Sucrose benzoate", "Benzoylsaccharose", "Saccharose benzoate", "Uniplex 280", "Uniplex 280CG"], "SMILES": "O(C1(CO)OC(CO)C(O)C1O)C2OC(CO)C(O)C(O)C2O.C(O)(=O)C1=CC=CC=C1", "physical_data": {"Molecular Weight": "", "Molecular Formula": "C12H22O11.xC7H6O2", "Melting Point": "98 \u00b0C"}}