{"cas_no": "127373-66-4", "cn_name": "\u897f\u7ef4\u6765\u53f8\u4ed6", "en_name": ["Sivelestat", "Propanoic acid, 2,2-dimethyl-, 4-[[[2-[[(carboxymethyl)amino]carbonyl]phenyl]amino]sulfonyl]phenyl ester", "Glycine, N-[2-[[[4-(2,2-dimethyl-1-oxopropoxy)phenyl]sulfonyl]amino]benzoyl]-", "ONO 5046", "EI 546", "Sivelestat", "LY 544349", "2-(2-(4-(Pivaloyloxy)phenylsulfonamido)benzamido)acetic acid"], "SMILES": "C(NCC(O)=O)(=O)C1=C(NS(=O)(=O)C2=CC=C(OC(C(C)(C)C)=O)C=C2)C=CC=C1", "physical_data": {"Molecular Weight": "434.46", "Molecular Formula": "C20H22N2O7S", "Melting Point": "213-217 \u00b0C"}}