{"cas_no": "1273-89-8", "cn_name": "\u4e59\u57fa\u4e8c\u8302\u94c1", "en_name": ["Ethylferrocene", "Ferrocene, ethyl-", "Iron, cyclopentadienyl(ethylcyclopentadienyl)-", "Ethylferrocene", "1-Ethylferrocene", "Monoethylferrocene"], "SMILES": "C(C)[C-]12[Fe+2]3456789([CH]1=[CH]3[CH]4=[CH]52)[CH-]%10[CH]6=[CH]7[CH]8=[CH]9%10", "physical_data": {"Molecular Weight": "", "Molecular Formula": "C12H14Fe", "Boiling Point": "108-109 \u00b0C @ Press: 5.5 Torr", "Density": "1.2469 g/cm\u00b3 @ Temp: 20.5 \u00b0C"}}