{"cas_no": "127446-35-9", "cn_name": "N-(4-\u7532\u9170\u57fa\u5421\u5576-3-\u57fa)-2,2-\u4e8c\u7532\u57fa\u4e19\u9170\u80fa", "en_name": ["N-(4-Formyl-3-pyridinyl)-2,2-dimethylpropanamide", "Propanamide, N-(4-formyl-3-pyridinyl)-2,2-dimethyl-", "N-(4-Formyl-3-pyridinyl)-2,2-dimethylpropanamide", "2,2-Dimethyl-N-(4-formyl-3-pyridinyl)propanamide"], "SMILES": "N(C(C(C)(C)C)=O)C=1C(C=O)=CC=NC1", "physical_data": {"Molecular Weight": "206.24", "Molecular Formula": "C11H14N2O2", "Melting Point": "76-78 \u00b0C"}}