{"cas_no": "127406-56-8", "cn_name": "4-(2-\u5421\u5576\u57fa)-\u82ef\u7532\u919b", "en_name": ["4-(2-Pyridinyl)benzaldehyde", "Benzaldehyde, 4-(2-pyridinyl)-", "4-(2-Pyridinyl)benzaldehyde", "4-(2-Pyridyl)benzaldehyde", "2-(p-Formylphenyl)pyridine", "4-Pyridin-2-ylbenzaldehyde", "2-(4\u2032-Formylphenyl)pyridine", "2-(4-Formylphenyl)pyridine"], "SMILES": "C(=O)C1=CC=C(C=C1)C2=CC=CC=N2", "physical_data": {"Molecular Weight": "183.21", "Molecular Formula": "C12H9NO", "Melting Point": "196-198 \u00b0C"}}