{"cas_no": "127464-43-1", "cn_name": "\u7f8e\u6614\u5f97\u4e50", "en_name": ["Mexidol", "Butanedioic acid, compd. with 2-ethyl-6-methyl-3-pyridinol (1:1)", "3-Pyridinol, 2-ethyl-6-methyl-, butanedioate (1:1) (salt)", "Mexidol", "Mexicor", "Emicidine", "Emicidin", "Mexiprim", "2-Ethyl-6-methyl-3-hydroxypyridine succinate", "2-Ethyl-6-methyl-3-Pyridinol butanedioate"], "SMILES": "C(CC(O)=O)C(O)=O.C(C)C1=C(O)C=CC(C)=N1", "physical_data": {"Molecular Weight": "", "Molecular Formula": "C8H11NO.C4H6O4", "Melting Point": "119-120 \u00b0C"}}