{"cas_no": "12758-40-6", "cn_name": "\u4e8c\u7fa7\u4e59\u57fa\u4e09\u6c27\u5316\u4e8c\u9517", "en_name": ["Carboxyethylgermanium sesquioxide", "Propanoic acid, 3,3\u2032-(1,3-dioxo-1,3-digermoxanediyl)bis-", "3,3\u2032-(1,3-Dioxo-1,3-digermoxanediyl)bis[propanoic acid]", "Carboxyethylgermanium sesquioxide", "2-(Carboxyethyl)germanium sesquioxide", "Ge 132", "SK 818", "Proxigermanium", "\u03b2-Carboxyethylgermanium sesquioxide", "Arlamol GEO", "Rapagermanium", "Serocion", "Repagermanium", "NSC 267004", "3-[[2-Carboxyethyl(oxo)germyl]oxy-oxogermyl]propanoic acid"], "SMILES": "[Ge](O[Ge](CCC(O)=O)=O)(CCC(O)=O)=O", "physical_data": {"Molecular Weight": "339.42", "Molecular Formula": "C6H10Ge2O7", "Melting Point": "270 \u00b0C (decomp)"}}