{"cas_no": "127510-95-6", "cn_name": "2-\u6c30\u57fa-5-\u7532\u6c27\u57fa\u82ef\u7532\u9178\u7532\u916f", "en_name": ["Methyl 2-cyano-5-methoxybenzoate", "Benzoic acid, 2-cyano-5-methoxy-, methyl ester", "Methyl 2-cyano-5-methoxybenzoate", "2-Cyano-5-methoxybenzoic acid methyl ester"], "SMILES": "C(OC)(=O)C1=C(C#N)C=CC(OC)=C1", "physical_data": {"Molecular Weight": "191.18", "Molecular Formula": "C10H9NO3", "Melting Point": "74-77 \u00b0C"}}