{"cas_no": "127510-96-7", "cn_name": "2-\u6c30\u7532\u57fa\u82ef\u7532\u9178\u7532\u916f", "en_name": ["Benzoic acid, 2-cyano-4-fluoro-, methyl ester", "Benzoic acid, 2-cyano-4-fluoro-, methyl ester", "Methyl 2-cyano-4-fluorobenzoate"], "SMILES": "C(OC)(=O)C1=C(C#N)C=C(F)C=C1", "physical_data": {"Molecular Weight": "179.15", "Molecular Formula": "C9H6FNO2", "Melting Point": "104-106 \u00b0C"}}