{"cas_no": "127667-01-0", "cn_name": "2-\u6c1f-5-\u7532\u6c27\u57fa\u82ef\u7532\u8148", "en_name": ["2-Fluoro-5-methoxybenzonitrile", "Benzonitrile, 2-fluoro-5-methoxy-", "2-Fluoro-5-methoxybenzonitrile", "2-Fluoro-5-(methyloxy)benzonitrile"], "SMILES": "C(#N)C1=CC(OC)=CC=C1F", "physical_data": {"Molecular Weight": "151.14", "Molecular Formula": "C8H6FNO", "Melting Point": "82-84 \u00b0C"}}