{"cas_no": "127625-29-0", "cn_name": "\u6cd5\u5357\u8272\u6797", "en_name": ["Fananserin", "2H-Naphth[1,8-cd]isothiazole, 2-[3-[4-(4-fluorophenyl)-1-piperazinyl]propyl]-, 1,1-dioxide", "RP 62203", "2-[3-[4-(p-Fluorophenyl)-1-piperazinyl]propyl]-2H-naphth[1,8-cd]isothiazole 1,1-dioxide", "Fananserin"], "SMILES": "C(CCN1CCN(CC1)C2=CC=C(F)C=C2)N3C4=C5C(S3(=O)=O)=CC=CC5=CC=C4", "physical_data": {"Molecular Weight": "425.52", "Molecular Formula": "C23H24FN3O2S", "Melting Point": "95-97 \u00b0C"}}