{"cas_no": "127799-54-6", "cn_name": "1-BOC-2-\u7532\u57fa\u80bc", "en_name": ["1,1-Dimethylethyl 2-methylhydrazinecarboxylate", "Hydrazinecarboxylic acid, 2-methyl-, 1,1-dimethylethyl ester", "1,1-Dimethylethyl 2-methylhydrazinecarboxylate", "2-Methylhydrazinecarboxylic acid tert-butyl ester", "tert-Butyl 2-methylhydrazinecarboxylate", "tert-Butyl N-(methylamino)carbamate", "1-Boc-2-methylhydrazine", "tert-Butyl 2-methylhydrazine-1-carboxylate", "tert-Butyl 2-methylhydrazino-1-carboxylate"], "SMILES": "C(OC(C)(C)C)(NNC)=O", "physical_data": {"Molecular Weight": "146.19", "Molecular Formula": "C6H14N2O2", "Melting Point": "49-51 \u00b0C"}}