{"cas_no": "127786-29-2", "cn_name": "\u4f9d\u5339\u65af\u6c40\u6c22\u6eb4\u9178\u76d0", "en_name": ["1H-Dibenz[c,f]imidazo[1,5-a]azepin-3-amine, 9,13b-dihydro-, hydrobromide (1:1)", "1H-Dibenz[c,f]imidazo[1,5-a]azepin-3-amine, 9,13b-dihydro-, hydrobromide (1:1)", "1H-Dibenz[c,f]imidazo[1,5-a]azepin-3-amine, 9,13b-dihydro-, monohydrobromide"], "SMILES": "NC=1N2C(C=3C(CC=4C2=CC=CC4)=CC=CC3)CN1.Br", "physical_data": {"Molecular Weight": "", "Molecular Formula": "C16H15N3.BrH", "Melting Point": "284-286 \u00b0C"}}