{"cas_no": "127785-96-0", "cn_name": "6-\u6c28\u7532\u57fa-6,11-\u4e8c\u6c22-5H-\u4e8c\u82ef\u5e76[b,e]\u6c2e\u6742\u5353\u5bcc\u9a6c\u9178\u76d0", "en_name": ["5H-Dibenz[b,e]azepine-6-methanamine, 6,11-dihydro-, (2E)-2-butenedioate (1:1)", "5H-Dibenz[b,e]azepine-6-methanamine, 6,11-dihydro-, (2E)-2-butenedioate (1:1)", "5H-Dibenz[b,e]azepine-6-methanamine, 6,11-dihydro-, (E)-2-butenedioate (1:1)"], "SMILES": "C(=CC(O)=O)C(O)=O.C(N)C1C=2C(CC=3C(N1)=CC=CC3)=CC=CC2", "physical_data": {"Molecular Weight": "", "Molecular Formula": "C15H16N2.C4H4O4", "Melting Point": "194-195 \u00b0C (decomp)"}}