{"cas_no": "1277-47-0", "cn_name": "\u53cc(\u73af\u620a\u4e8c\u70ef)\u9492", "en_name": ["Vanadocene", "Vanadocene", "Vanadium, di-\u03c0-cyclopentadienyl-", "Vanadium, dicyclopentadienyl-", "Di-\u03c0-Cyclopentadienylvanadium", "Dicyclopentadienylvanadium", "Vanadium, bis(\u03b75-2,4-cyclopentadien-1-yl)-", "Bis(cyclopentadienyl)vanadium", "Bis(\u03c0-cyclopentadienyl)vanadium", "Bis(cyclopentadiene)vanadium", "Bis(\u03b75-cyclopentadienyl)vanadium"], "SMILES": "[V+2]12345678([CH]=9[CH]1=[CH]2[CH-]3[CH]49)[CH-]%10[CH]5=[CH]6[CH]7=[CH]8%10", "physical_data": {"Molecular Weight": "", "Molecular Formula": "C10H10V", "Melting Point": "166 \u00b0C"}}