{"cas_no": "12772-57-5", "cn_name": "\u6839\u8d64\u58f3\u83cc\u7d20", "en_name": ["Radicicol", "6H-Oxireno[e][2]benzoxacyclotetradecin-6,12(7H)-dione, 8-chloro-1a,14,15,15a-tetrahydro-9,11-dihydroxy-14-methyl-, (1aR,2Z,4E,14R,15aR)-", "Radicicol", "\u03b2-Resorcylic acid, 5-chloro-6-(7,8-epoxy-10-hydroxy-2-oxo-3,5-undecadienyl)-, \u03bc-lactone", "(1aR,2Z,4E,14R,15aR)-8-Chloro-1a,14,15,15a-tetrahydro-9,11-dihydroxy-14-methyl-6H-oxireno[e][2]benzoxacyclotetradecin-6,12(7H)-dione", "Monorden", "Monordene", "Radisicol", "NSC 294404", "Radicicol R 2146", "Monorden A", "(+)-Monorden A", "Radicolol"], "SMILES": "OC1=C2C(=C(Cl)C(O)=C1)CC(=O)C=CC=CC3C(CC(C)OC2=O)O3", "physical_data": {"Molecular Weight": "364.78", "Molecular Formula": "C18H17ClO6", "Melting Point": "193.5 \u00b0C"}}