{"cas_no": "12771-68-5", "cn_name": "\u73af\u4e19\u5627\u5576\u9187", "en_name": ["(\u00b1)-Ancymidol", "5-Pyrimidinemethanol, \u03b1-cyclopropyl-\u03b1-(4-methoxyphenyl)-", "5-Pyrimidinemethanol, \u03b1-cyclopropyl-\u03b1-(p-methoxyphenyl)-", "\u03b1-Cyclopropyl-\u03b1-(4-methoxyphenyl)-5-pyrimidinemethanol", "Ancymidol", "\u03b1-Cyclopropyl-\u03b1-(4-methoxyphenyl)-5-pyrimidinylmethanol", "\u03b1-Cyclopropyl-\u03b1-(methoxyphenyl)-5-pyrimidinemethanol", "A-Rest", "EL 531", "Thritone", "Reducymol", "Amcymidol", "(\u00b1)-Ancymidol"], "SMILES": "C(O)(C1CC1)(C2=CC=C(OC)C=C2)C=3C=NC=NC3", "physical_data": {"Molecular Weight": "256.30", "Molecular Formula": "C15H16N2O2", "Melting Point": "110-111 \u00b0C"}}