{"cas_no": "1277-49-2", "cn_name": "1-\u4e8c\u8302\u94c1\u57fa\u4e59\u9187", "en_name": ["1-Ferrocenylethanol", "Ferrocene, (1-hydroxyethyl)-", "Ferrocenemethanol, \u03b1-methyl-", "Iron, cyclopentadienyl[(1-hydroxyethyl)cyclopentadienyl]-", "Ethanol, 1-ferrocenyl-", "1-Ferrocenylethanol", "(\u03b1-Hydroxyethyl)ferrocene", "\u03b1-Ferrocenylethanol", "NSC 162110", "(1-Hydroxyethyl)ferrocene", "(\u00b1)-1-Ferrocenylethanol"], "SMILES": "C(C)(O)[C-]12[Fe+2]3456789([CH]1=[CH]3[CH]4=[CH]52)[CH-]%10[CH]6=[CH]7[CH]8=[CH]9%10", "physical_data": {"Molecular Weight": "", "Molecular Formula": "C12H14FeO", "Melting Point": "78-79 \u00b0C"}}