{"cas_no": "127759-89-1", "cn_name": "\u6d1b\u5e03\u5361\u97e6", "en_name": ["Lobucavir", "6H-Purin-6-one, 2-amino-9-[(1R,2R,3S)-2,3-bis(hydroxymethyl)cyclobutyl]-1,9-dihydro-", "6H-Purin-6-one, 2-amino-9-[2,3-bis(hydroxymethyl)cyclobutyl]-1,9-dihydro-, [1R-(1\u03b1,2\u03b2,3\u03b1)]-", "2-Amino-9-[(1R,2R,3S)-2,3-bis(hydroxymethyl)cyclobutyl]-1,9-dihydro-6H-purin-6-one", "(+)-Cyclobut G", "SQ 34514", "BMS 180194", "Lobucavir"], "SMILES": "C(O)C1C(N2C3=C(N=C2)C(=O)N=C(N)N3)CC1CO", "physical_data": {"Molecular Weight": "265.27", "Molecular Formula": "C11H15N5O3", "Melting Point": "275-280 \u00b0C (decomp)"}}