{"cas_no": "1277-43-6", "cn_name": "\u94b4\u70ef", "en_name": ["Cobaltocene", "Cobaltocene", "Cobalt, di-\u03c0-cyclopentadienyl-", "Cobalt, dicyclopentadienyl-", "Cobalt, bis(\u03b75-2,4-cyclopentadien-1-yl)-", "Dicyclopentadienylcobalt", "Bis(cyclopentadienyl)cobalt", "Bis(\u03b7-cyclopentadienyl)cobalt", "Bis(cyclopentadienyl)cobalt(II)", "Bis(\u03b75-cyclopentadienyl)cobalt", "NSC 62690"], "SMILES": "[Co+2]12345678([CH]=9[CH]1=[CH]2[CH-]3[CH]49)[CH-]%10[CH]5=[CH]6[CH]7=[CH]8%10", "physical_data": {"Molecular Weight": "", "Molecular Formula": "C10H10Co", "Melting Point": "172 \u00b0C"}}