{"cas_no": "127946-77-4", "cn_name": "1-\u6c28\u57fa-1-\u73af\u4e19\u57fa\u6c30\u76d0\u9178\u76d0", "en_name": ["Cyclopropanecarbonitrile, 1-amino-, hydrochloride (1:1)", "Cyclopropanecarbonitrile, 1-amino-, hydrochloride (1:1)", "Cyclopropanecarbonitrile, 1-amino-, monohydrochloride", "1-Aminocyclopropanecarbonitrile hydrochloride", "1-Cyanocyclopropanamine hydrochloride", "1-Cyanocyclopropanaminium chloride", "1-Amino-1-cyclopropanecarbonitrile hydrochloride", "1-Cyanocyclopropylamine hydrochloride", "1-Aminocyclopropanecarbonitrile monohydrochloride", "1-Amino-1-cyanocyclopropane hydrochloride", "1-Aminocyclopropanecarbonitrile hydrochloride (1:1)"], "SMILES": "C(#N)C1(N)CC1.Cl", "physical_data": {"Molecular Weight": "", "Molecular Formula": "C4H6N2.ClH", "Melting Point": "170-172 \u00b0C"}}