{"cas_no": "128-37-0", "cn_name": "\u6297\u6c27\u5242264", "en_name": ["2,6-Di-tert-butyl-4-methylphenol", "Phenol, 2,6-bis(1,1-dimethylethyl)-4-methyl-", "p-Cresol, 2,6-di-tert-butyl-", "2,6-Bis(1,1-dimethylethyl)-4-methylphenol", "CAO 1", "CAO 3", "Dalpac", "DBPC", "Deenax", "2,6-Di-tert-butyl-p-methylphenol", "4-Hydroxy-3,5-di-tert-butyltoluene", "Impruvol", "Ionol", "Ionole", "4-Methyl-2,6-di-tert-butylphenol", "Parabar 441", "Sustane BHT", "Tenamene 3", "Topanol OC", "Vianol", "BHT", "Butylated hydroxytoluene", "Topanol O", "Topanol", "Dibunol", "Nonox TBC", "AO 4K", "Dibutylated hydroxytoluene", "Ionol 1", "Buks", "2,6-Di-tert-butylcresol", "Stavox", "Di-tert-Butyl-4-methylphenol", "o-Di-tert-butyl-p-methylphenol", "Di-tert-butyl-p-cresol", "Antioxidant KB", "2,6-Di-tert-butyl-p-cresol", "Antioxidant 4K", "Sumilizer BHT", "Di-tert-butylcresol", "Catalin CAO 3", "Chemanox 11", "Vanlube PCX", "Vanlube PC", "Advastab 401", "2,6-Di-tert-butyl-p-cresole", "Antioxidant 29", "AO 29", "Antioxidant 30", "P 21", "Antioxidant DBPC", "Agidol", "Alkofen BP", "Kerabit", "Agidol 1", "AO 4", "Vulkanox KB", "2,6-Di-tert-butylmethylphenol", "Nocrac 200", "2,6-Di-tert-butyl-4-hydroxytoluene", "2,6-Di-tert-butyl-4-methyl-1-hydroxybenzene", "Ionol BHT", "AOX 4", "AOX 4K", "Antioxidant 4", "Tenox BHT", "Topanol BHT", "Swanox BHT", "2,6-Di-tert-butyl-4-methylhydroxybenzene", "Antioxidant 264", "Vanox PC", "Antage BHT", "3,5-Di-tert-butyl-4-hydroxytoluene", "Popol", "Ralox BHT", "Permanax BHT", "Antioxidant MPJ", "Topanol OL", "Naugard BHT", "2,6-Di-tert-butyl-p-cresol", "BAT", "Ultranox 226", "Lubrizol 817", "2,6-Di-tert-butyl-4-methylphenol", "P 21 (phenol)", "T 501", "Ionol 330", "Yoshinox BHT", "2,6-Bis(tert-butyl)-4-methylphenol", "2,6-tert-Butyl-4-methylphenol", "Antox QT", "Ionol K", "Ionol CP", "4-Methyl-2,6-bis(1,1-dimethylethyl)phenol", "T 501 (phenol)", "Antioxidant T 501", "BHT 264", "Lowinox BHT", "Selosol H 633", "Tonarol", "BHT-C", "E 321", "Dibutylcresol", "Dibutylhydroxytoluene", "NSC 6347", "Nocrac 2000", "2,6-Di-tert-butyl-4-cresol", "Topanol O-FG", "Sumilizer BHT-R", "BHT Swanox", "Agidol 1A", "2,6-Di(tert-butyl)hydroxytoluene", "B-NOX BHT-P", "Nipanox", "Antioxidant 246", "K-NOX-BHT", "3,5-Di-tert-butyl-p-hydroxytoluene", "Grindox BHT", "4-Methyl-2,6-ditertbutyl phenol", "FG", "Addiox 1005", "2,6-Di-t-butyl-4-methylphenol", "2,6-Ditertbutyl paracresol", "Topanol C", "2,6-Di-tert-butyl-p-cresol", "Vulkanox BHT", "Na-Lube AO 220", "Dibutyl paracresol", "Additin RC 1220", "PN 01", "M 4801", "Antioxidant 501", "BHT 501", "Lavinix BHT", "Nipanox BHT", "H-BHT", "Antioxidant OC", "3,5-Bis(1,1-dimethylethyl)-4-hydroxytoluene", "Antioxidant BHT", "T 502A", "NK-BHT", "2,6-Di-tert-butyl-4-methyl phenol", "Nocrac SP-N", "AO 246", "Chinox BHT", "Antioxidant 502A", "K-NOX BHT-P", "Antiager 264", "Antioxidant 1005"], "SMILES": "C(C)(C)(C)C1=C(O)C(C(C)(C)C)=CC(C)=C1", "physical_data": {"Molecular Weight": "220.35", "Molecular Formula": "C15H24O", "Boiling Point": "265 \u00b0C", "Melting Point": "70 \u00b0C", "Density": "1.048 g/cm\u00b3 @ Temp: 20 \u00b0C"}}