{"cas_no": "128-42-7", "cn_name": "4,4'-\u4e8c\u785d\u57fa\u4e8c\u82ef\u4e59\u70ef-2,2'-\u4e8c\u78fa\u9178", "en_name": ["4,4\u2032-Dinitro-2,2\u2032-stilbenedisulfonic acid", "Benzenesulfonic acid, 2,2\u2032-(1,2-ethenediyl)bis[5-nitro-", "2,2\u2032-Stilbenedisulfonic acid, 4,4\u2032-dinitro-", "2,2\u2032-(1,2-Ethenediyl)bis[5-nitrobenzenesulfonic acid]", "4,4\u2032-Dinitro-2,2\u2032-stilbenedisulfonic acid", "Dinitrostilbenedisulfonic acid", "DNS", "DNDS", "NSC 1793"], "SMILES": "S(=O)(=O)(O)C1=C(C=CC2=C(S(=O)(=O)O)C=C(N(=O)=O)C=C2)C=CC(N(=O)=O)=C1", "physical_data": {"Molecular Weight": "430.37", "Molecular Formula": "C14H10N2O10S2", "Melting Point": "266 \u00b0C"}}