{"cas_no": "128-46-1", "cn_name": "\u53cc\u6c22\u9709\u7d20", "en_name": ["Dihydrostreptomycin", "D-Streptamine, O-2-deoxy-2-(methylamino)-\u03b1-L-glucopyranosyl-(1\u21922)-O-5-deoxy-3-C-(hydroxymethyl)-\u03b1-L-lyxofuranosyl-(1\u21924)-N1,N3-bis(aminoiminomethyl)-", "Streptomycin, dihydro-", "D-Streptamine, O-2-deoxy-2-(methylamino)-\u03b1-L-glucopyranosyl-(1\u21922)-O-5-deoxy-3-C-(hydroxymethyl)-\u03b1-L-lyxofuranosyl-(1\u21924)-N,N\u2032-bis(aminoiminomethyl)-", "Streptomycin, deoxydihydrohydroxy-", "O-2-Deoxy-2-(methylamino)-\u03b1-L-glucopyranosyl-(1\u21922)-O-5-deoxy-3-C-(hydroxymethyl)-\u03b1-L-lyxofuranosyl-(1\u21924)-N1,N3-bis(aminoiminomethyl)-D-streptamine", "DHSM", "2,4-Diguanidino-3,5,6-trihydroxycyclohexyl-5-deoxy-2-O-(2-deoxy-2-methylamino-\u03b1-L-glucopyranosyl)-3-hydroxymethyl-\u03b2-L-lyxo-pentanofuranoside", "Dihydrostreptomycin", "DST", "Abiocine", "Vibriomycin"], "SMILES": "O(C1C(OC2C(NC(=N)N)C(O)C(NC(=N)N)C(O)C2O)OC(C)C1(CO)O)C3C(NC)C(O)C(O)C(CO)O3", "physical_data": {"Molecular Weight": "583.59", "Molecular Formula": "C21H41N7O12", "Melting Point": "&gt;300 \u00b0C"}}