{"cas_no": "128-53-0", "cn_name": "N-\u4e59\u57fa\u9a6c\u6765\u9170\u4e9a\u80fa", "en_name": ["N-Ethylmaleimide", "1H-Pyrrole-2,5-dione, 1-ethyl-", "Maleimide, N-ethyl-", "1-Ethyl-1H-pyrrole-2,5-dione", "N-Ethylmaleimide", "NEM", "Ethylmaleimide", "Maleic acid N-ethylimide", "NSC 7638", "1-Ethyl-2,5-dihydro-1H-pyrrole-2,5-dione", "MeSH ID: D005033"], "SMILES": "C(C)N1C(=O)C=CC1=O", "physical_data": {"Molecular Weight": "125.13", "Molecular Formula": "C6H7NO2", "Boiling Point": "128 \u00b0C @ Press: 10 Torr", "Melting Point": "45.5 \u00b0C"}}