{"cas_no": "128-65-4", "cn_name": "DP-PTCDI", "en_name": ["2,9-Diphenylanthra[2,1,9-def:6,5,10-d'e'f\u2032]diisoquinoline-1,3,8,10(2H,9H)-tetrone", "Anthra[2,1,9-def:6,5,10-d'e'f\u2032]diisoquinoline-1,3,8,10(2H,9H)-tetrone, 2,9-diphenyl-", "3,4,9,10-Perylenetetracarboxylic 3,4:9,10-diimide, N,N\u2032-diphenyl-", "2,9-Diphenylanthra[2,1,9-def:6,5,10-d'e'f\u2032]diisoquinoline-1,3,8,10(2H,9H)-tetrone", "Perylenetetracarboxylic N,N\u2032-bis(phenylimide)", "3,4,9,10-Perylenetetracarboxylic acid bis(phenylimide)", "N,N\u2032-Diphenyl-3,4:9,10-perylenebis(dicarboximide)", "N,N\u2032-Diphenyl-3,4:9,10-perylenetetracarboxylic diimide", "N,N\u2032-Diphenylperylenetetracarboxylic diimide", "2,9-Diphenylanthra[2,1,9-def:6,5,10-d'e'f\u2032]diisoquinoline-1,3,8,10(2H,9H)-tetraone"], "SMILES": "O=C1C=2C3=C4C(C=5C=6C(C4=CC2)=CC=C7C6C(=CC5)C(=O)N(C7=O)C8=CC=CC=C8)=CC=C3C(=O)N1C9=CC=CC=C9", "physical_data": {"Molecular Weight": "542.54", "Molecular Formula": "C36H18N2O4", "Melting Point": "201-203 \u00b0C"}}