{"cas_no": "128-70-1", "cn_name": "\u8fd8\u539f\u6a59 9", "en_name": ["Pyranthrone", "8,16-Pyranthrenedione", "C.I. 59700", "Ahcovat Golden Orange G", "Amanthrene Golden Orange G", "Benzadone Gold Orange G", "Calcoloid Golden Orange GD", "Calcoloid Golden Orange GFD", "Caledon Gold Orange G", "Caledon Gold Orange GN", "Caledon Paper Gold Orange G", "Caledon Printing Orange G", "Carbanthrene Golden Orange G", "Carbanthrene Golden Orange GD", "Carbanthrene Golden Orange GP", "Carbanthrene Printing Golden Orange G", "Cibanone Golden Orange G", "Cibanone Golden Orange FG", "C.I. Pigment Orange 40", "C.I. Vat Orange 9", "Endurol Golden Orange G", "Fenanthren Golden Orange G", "Indanthrene Golden Orange G", "Indanthrene Golden Orange GA", "Indanthren Golden Orange G", "Indanthren Golden Orange GLP", "Indanthren Gold Orange G", "Mikethrene Gold Orange G", "Monolite Fast Gold Orange GV", "Nihonthrene Golden Orange G", "Nyanthrene Golden Orange G", "Palanthrene Gold Orange G", "Paradone Golden Orange G", "Ponsol Golden Orange G", "Ponsol Golden Orange GD", "Pyranthrone", "Romantrene Golden Orange FG", "Sandothrene Golden Orange NG", "Solanthrene Orange J", "Tinon Golden Orange G", "Tinon Golden Orange GN", "Tyrian Golden Orange I-G", "Mikethren Gold Orange G", "Indanthrene Gold Orange G", "Pyranthron", "Solanthrene Orange F-J", "C.I. Pigment Orange 41", "Caledon Golden Orange G", "Vat Orange G", "NSC 5267", "NSC 667752", "Indanthrene Golden Orange RG"], "SMILES": "O=C1C2=C3C4=C5C6=C(C=C4C=C2)C=7C(C(=O)C6=CC=C5C=C3C=8C1=CC=CC8)=CC=CC7", "physical_data": {"Molecular Weight": "406.43", "Molecular Formula": "C30H14O2", "Melting Point": "269 \u00b0C"}}