{"cas_no": "128-63-2", "cn_name": "1,3,6,8-\u56db\u6eb4\u8298", "en_name": ["1,3,6,8-Tetrabromopyrene", "Pyrene, 1,3,6,8-tetrabromo-", "1,3,6,8-Tetrabromopyrene", "Pyrene, 1,3,6,8-tetrabromo-1,9-dihydro-"], "SMILES": "BrC1=C2C3=C4C(C(Br)=CC(Br)=C4C=C2)=CC=C3C(Br)=C1", "physical_data": {"Molecular Weight": "517.83", "Molecular Formula": "C16H6Br4", "Melting Point": "&gt;300 \u00b0C"}}