{"cas_no": "128-62-1", "cn_name": "\u90a3\u53ef\u6c40", "en_name": ["Noscapine", "1(3H)-Isobenzofuranone, 6,7-dimethoxy-3-[(5R)-5,6,7,8-tetrahydro-4-methoxy-6-methyl-1,3-dioxolo[4,5-g]isoquinolin-5-yl]-, (3S)-", "Narcotine", "1(3H)-Isobenzofuranone, 6,7-dimethoxy-3-(5,6,7,8-tetrahydro-4-methoxy-6-methyl-1,3-dioxolo[4,5-g]isoquinolin-5-yl)-, [S-(R*,S*)]-", "1,3-Dioxolo[4,5-g]isoquinoline, 1(3H)-isobenzofuranone deriv.", "(3S)-6,7-Dimethoxy-3-[(5R)-5,6,7,8-tetrahydro-4-methoxy-6-methyl-1,3-dioxolo[4,5-g]isoquinolin-5-yl]-1(3H)-isobenzofuranone", "Narcosine", "Nectadon", "Noscapine", "\u03b1-Narcotine", "Longatin", "Coscopin", "Coscotabs", "O-Methylnarcotoline", "Narcotin", "Opianine", "Narkotin", "Noscapin", "Opianin", "Nicolane", "Narcompren", "Noscapalin", "Narcotussin", "Opian", "(-)-Narcotine", "(-)-\u03b1-Narcotine", "Longactin", "l-\u03b1-Narcotine", "L-\u03b1-Noscapine", "Tusscapine", "Terbenol", "Vadebex", "NSC 5366", "Methoxyhydrastine", "Nipaxon", "Capval", "Lyobex", "MeSH ID: D009665"], "SMILES": "O(C)C=1C=2C(N(C)CCC2C=C3C1OCO3)C4C=5C(C(=O)O4)=C(OC)C(OC)=CC5", "physical_data": {"Molecular Weight": "413.42", "Molecular Formula": "C22H23NO7", "Melting Point": "176 \u00b0C", "Density": "1.395 g/cm\u00b3"}}