{"cas_no": "128-93-8", "cn_name": "1-\u7532\u6c28\u57fa-4-\u6eb4\u84bd\u918c", "en_name": ["1-Bromo-4-(methylamino)-9,10-anthracenedione", "9,10-Anthracenedione, 1-bromo-4-(methylamino)-", "Anthraquinone, 1-bromo-4-(methylamino)-", "1-Bromo-4-(methylamino)-9,10-anthracenedione", "1-(Methylamino)-4-bromoanthraquinone", "1-Bromo-4-(methylamino)anthraquinone", "1-N-Methylamino-4-bromo-9,10-anthraquinone", "4-Bromo-1-(methylamino)anthraquinone", "NSC 39941", "1-Bromo-4-(N-methylamino)anthraquinone", "4-Bromo-1-(N-methylamino)anthraquinone", "4-Bromo-1-methylamino-9,10-anthraquinone", "1-Bromo-4-(methylamino)-9,10-dihydroanthracene-9,10-dione"], "SMILES": "O=C1C=2C(C(=O)C=3C1=CC=CC3)=C(Br)C=CC2NC", "physical_data": {"Molecular Weight": "316.15", "Molecular Formula": "C15H10BrNO2", "Melting Point": "178-181 \u00b0C"}}