{"cas_no": "128-20-1", "cn_name": "\u5b55\u70f7\u9187\u916e", "en_name": ["Pregnanolone", "Pregnan-20-one, 3-hydroxy-, (3\u03b1,5\u03b2)-", "5\u03b2-Pregnan-20-one, 3\u03b1-hydroxy-", "(3\u03b1,5\u03b2)-3-Hydroxypregnan-20-one", "3\u03b1-Hydroxy-5\u03b2-pregnan-20-one", "3\u03b1-Hydroxy-5\u03b2-tetrahydroprogesterone", "Pregnan-3\u03b1-ol-20-one", "5\u03b2-Pregnan-3\u03b1-ol-20-one", "Pregnanolone", "SKF 6455", "3\u03b1-Hydroxy-20-oxo-5\u03b2-pregnane", "3\u03b1-Hydroxy-5\u03b2,17\u03b2-pregnan-20-one", "5\u03b2-Pregnane-3\u03b1-ol-20-one", "Pregnanolone II", "3\u03b1,5\u03b2-Pregnanolone", "U 2340", "Eltanolone", "KABI 2213", "3-Deoxo-3\u03b1-hydroxy-5\u03b2-dihydroprogesterone", "3\u03b1,5\u03b2-Tetrahydroprogesterone", "NSC 82867", "MeSH ID: D011280"], "SMILES": "CC12C3C(C4C(C)(CC3)C(C(C)=O)CC4)CCC1CC(O)CC2", "physical_data": {"Molecular Weight": "318.49", "Molecular Formula": "C21H34O2", "Melting Point": "149.5 \u00b0C"}}