{"cas_no": "128-97-2", "cn_name": "1,4,5,8-\u8418\u56db\u7532\u9178", "en_name": ["1,4,5,8-Naphthalenetetracarboxylic acid", "1,4,5,8-Naphthalenetetracarboxylic acid", "Tetra acid", "1,4,5,8-Tetracarboxynaphthalene", "NSC 66207"], "SMILES": "C(O)(=O)C=1C2=C(C(C(O)=O)=CC=C2C(O)=O)C(C(O)=O)=CC1", "physical_data": {"Molecular Weight": "304.21", "Molecular Formula": "C14H8O8", "Melting Point": "180 \u00b0C"}}