{"cas_no": "128-13-2", "cn_name": "\u718a\u53bb\u6c27\u80c6\u9178", "en_name": ["Ursodeoxycholic acid", "Cholan-24-oic acid, 3,7-dihydroxy-, (3\u03b1,5\u03b2,7\u03b2)-", "5\u03b2-Cholan-24-oic acid, 3\u03b1,7\u03b2-dihydroxy-", "5\u03b2-Cholanic acid, 3\u03b1,7\u03b2-dihydroxy-", "(3\u03b1,5\u03b2,7\u03b2)-3,7-Dihydroxycholan-24-oic acid", "17\u03b2-(1-Methyl-3-carboxypropyl)etiocholane-3\u03b1,7\u03b2-diol", "Ursocholic acid, deoxy-", "Ursodeoxycholic acid", "Ursodesoxycholic acid", "3\u03b1,7\u03b2-Dihydroxy-5\u03b2-cholan-24-oate", "3\u03b1,7\u03b2-Dihydroxycholanic acid", "3\u03b1,7\u03b2-Dihydroxy-5\u03b2-cholanic acid", "3\u03b1,7\u03b2-Dihydroxy-5\u03b2-cholanoic acid", "7\u03b2-Hydroxylithocholic acid", "3\u03b1,7\u03b2-Dihydroxy-5\u03b2-cholan-24-oic acid", "Urso", "Actigall", "Ursodiol", "Deursil", "Desocol", "Ursofalk", "Ursochol", "Cholit-Ursan", "Ursacol", "Destolit", "Paptarom", "Arsacol", "Urdes", "Solutrat", "Lyeton", "Ursobilin", "Ursolvan", "Ursodamor", "Delursan", "Desol", "Litursol", "NSC 683769", "Adursal", "UDCA", "Ursic acid", "Ursosan", "Ursocol", "Ursogall", "Urosiol", "MeSH ID: D014580"], "SMILES": "CC12C(C3C(C4(C)C(CC3O)CC(O)CC4)CC1)CCC2C(CCC(O)=O)C", "physical_data": {"Molecular Weight": "392.57", "Molecular Formula": "C24H40O4", "Melting Point": "203 \u00b0C"}}