{"cas_no": "128-38-1", "cn_name": "\u56db\u53d4\u4e01\u57fa\u8054\u82ef\u915a", "en_name": ["4,4\u2032-Bis(2,6-di-tert-butylphenol)", "[1,1\u2032-Biphenyl]-4,4\u2032-diol, 3,3\u2032,5,5\u2032-tetrakis(1,1-dimethylethyl)-", "4,4\u2032-Biphenyldiol, 3,3\u2032,5,5\u2032-tetra-tert-butyl-", "p,p\u2032-Biphenol, 2,2\u2032,6,6\u2032-tetra-tert-butyl-", "3,3\u2032,5,5\u2032-Tetrakis(1,1-dimethylethyl)[1,1\u2032-biphenyl]-4,4\u2032-diol", "4,4\u2032-Bis(2,6-di-tert-butylphenol)", "3,5,3\u2032,5\u2032-Tetra-tert-butyl-4,4\u2032-dihydroxydiphenyl", "Ethyl 712", "3,3\u2032,5,5\u2032-Tetra-tert-butyl-4,4\u2032-biphenyldiol", "4,4\u2032-Dihydroxy-3,3\u2032,5,5\u2032-tetra-tert-butylbiphenyl", "3,3\u2032,5,5\u2032-Tetra-tert-butyl-4,4\u2032-biphenol", "TBB", "TBB (antioxidant)", "Agidol 5", "3,3\u2032,5,5\u2032-Tetra-tert-butyl[1,1\u2032-biphenyl]-4,4\u2032-diol", "3,3\u2032,5,5\u2032-Tetra-tert-butyl-4,4\u2032-dihydroxydiphenyl", "3,3\u2032,5,5\u2032-Tetra-tert-butyl-p,p\u2032-biphenol", "3,3\u2032,5,5\u2032-Tetra-tert-butyl-4,4\u2032-hydroxybiphenyl", "3,3\u2032,5,5\u2032-Tetra-tert-butyl-4,4\u2032-dihydroxybiphenyl", "3,3\u2032,5,5\u2032-Tetrakis(1,1-dimethylethyl)-1,1\u2032-biphenyl-4,4\u2032-diol", "H 212/43", "3,3\u2032,5,5\u2032-Tetra-tert-butyl-4,4\u2032-dihydroxy-1,1\u2032-biphenyl", "NSC 14479", "NSC 39768", "NSC 61171", "2,2\u2032,6,6\u2032-Tetra-tert-butyl-4,4\u2032-biphenol", "4,4\u2032-Dihydroxy-3,5,3\u2032,5\u2032-tetra-tert-butylbiphenyl"], "SMILES": "C(C)(C)(C)C1=C(O)C(C(C)(C)C)=CC(=C1)C2=CC(C(C)(C)C)=C(O)C(C(C)(C)C)=C2", "physical_data": {"Molecular Weight": "410.63", "Molecular Formula": "C28H42O2", "Melting Point": "184-185 \u00b0C"}}