{"cas_no": "128-44-9", "cn_name": "\u7cd6\u7cbe\u94a0", "en_name": ["Sodium saccharin", "1,2-Benzisothiazol-3(2H)-one, 1,1-dioxide, sodium salt (1:1)", "1,2-Benzisothiazolin-3-one, 1,1-dioxide, sodium salt", "1,2-Benzisothiazol-3(2H)-one, 1,1-dioxide, sodium salt", "1,2-Benzisothiazolin-3-one, 1,1-dioxide, sodium deriv.", "Saccharin, sodium deriv.", "Cristallose", "Crystallose", "Kristallose", "Saccharin sodium", "Saccharin soluble", "Saxin", "Sodium o-benzosulfimide", "Sodium saccharin", "Sodium saccharine", "Soluble saccharin", "Sweeta", "Sykose", "Willosetten", "Sodium saccharinate", "1,2-Benzothiazol-3(2H)-one 1,1-dioxide sodium salt", "Sodium saccharide", "Saccharin sodium salt", "o-Benzoylsulfimide sodium salt", "Sodium o-sulfobenzimide", "Sucram C 150", "Sodium 1,1,3-trioxo-2,3-dihydro-1\u03bb6,2-benzothiazol-2-ide", "1,1-Dioxo-1,2-benzothiazole-3(2H)-one sodium salt"], "SMILES": "O=S1(=O)C=2C(C(=O)N1)=CC=CC2.[Na]", "physical_data": {"Molecular Weight": "", "Molecular Formula": "C7H5NO3S.Na", "Melting Point": "120 \u00b0C"}}