{"cas_no": "128-04-1", "cn_name": "\u798f\u7f8e\u94a0", "en_name": ["Sodium dimethyldithiocarbamate", "Carbamodithioic acid, N,N-dimethyl-, sodium salt (1:1)", "Carbamic acid, dimethyldithio-, sodium salt", "Carbamodithioic acid, dimethyl-, sodium salt", "Aceto SDD 40", "Alcobam NM", "Methyl Namate", "SDDC", "Sodium dimethyldithiocarbamate", "Thiostop N", "Vulnopol NM", "Wing Stop B", "Sharstop 204", "Sodium N,N-dimethyldithiocarbamate", "Dimethyldithiocarbamic acid sodium salt", "N,N-Dimethyldithiocarbamic acid sodium salt", "Sodium dimethylaminocarbodithioate", "MSL", "Nocceler S", "DDC", "Sanceler S", "Carbam S", "Sodam", "Dibam", "Vinditat", "Sodium dimethylaminodithiocarbamate", "Amersep MP 3R", "(Dimethyldithiocarbamato)sodium", "Midfloc 1300L", "MSL (carbamate)", "Diaprosim AB 13", "Diram", "MetalPlex 143", "Nalmet A 1", "Nocceler S 35", "Sanceler S 40", "SDD", "SDD (polymerization inhibitor)", "Sodium N,N-dimethylcarbamodithioate", "Preventol Z-L", "Sodium 2-(dimethylamino)-2-thioxoethanethiolate", "SMC", "R 051044"], "SMILES": "C(N(C)C)(=S)S.[Na]", "physical_data": {"Molecular Weight": "", "Molecular Formula": "C3H7NS2.Na", "Melting Point": "106-108 \u00b0C", "Density": "1.18 g/cm\u00b3"}}