{"cas_no": "128-23-4", "cn_name": "5\u0392-\u4e8c\u6c22\u5b55\u916e", "en_name": ["5\u03b2-Dihydroprogesterone", "Pregnane-3,20-dione, (5\u03b2)-", "5\u03b2-Pregnane-3,20-dione", "(5\u03b2)-Pregnane-3,20-dione", "5\u03b2-Dihydroprogesterone", "5\u03b2-Pregnan-3,20-dione", "U 2411", "NSC 82868"], "SMILES": "CC12C3C(C4C(C)(CC3)C(C(C)=O)CC4)CCC1CC(=O)CC2", "physical_data": {"Molecular Weight": "316.48", "Molecular Formula": "C21H32O2", "Melting Point": "123 \u00b0C"}}