{"cas_no": "128-39-2", "cn_name": "2,6-\u4e8c\u53d4\u4e01\u57fa\u82ef\u915a", "en_name": ["2,6-Di-tert-butylphenol", "Phenol, 2,6-bis(1,1-dimethylethyl)-", "Phenol, 2,6-di-tert-butyl-", "2,6-Bis(1,1-dimethylethyl)phenol", "2,6-Bis(tert-butyl)phenol", "2,6-Di-tert-butylphenol", "2,6-Di-tert-butylhydroxybenzene", "2,6-Di-t-butylphenol", "Ethyl 701", "Isonox 103", "Ethyl AN 701", "AN 701", "Hitec 4701", "NSC 49175", "T 502 (antioxidant)", "T 502", "Na Lube AO 242", "Ethanox 4733", "Agidol 0", "Ethanox 4701", "2,6-tert-Butylphenol", "2,6-Di-tert-butyl-4-phenol", "Antioxidant T 502", "Kerobit TP 26", "2,6-Di-(1,1-Dimethylethyl)phenol", "Aladdin 1138077", "KY 02"], "SMILES": "C(C)(C)(C)C1=C(O)C(C(C)(C)C)=CC=C1", "physical_data": {"Molecular Weight": "206.32", "Molecular Formula": "C14H22O", "Boiling Point": "253 \u00b0C", "Melting Point": "37 \u00b0C", "Density": "0.914 g/cm\u00b3 @ Temp: 20 \u00b0C"}}