{"cas_no": "128-51-8", "cn_name": "\u4e59\u9178\u8bfa\u535c\u916f", "en_name": ["Nopyl acetate", "Bicyclo[3.1.1]hept-2-ene-2-ethanol, 6,6-dimethyl-, 2-acetate", "2-Norpinene-2-ethanol, 6,6-dimethyl-, acetate", "Bicyclo[3.1.1]hept-2-ene-2-ethanol, 6,6-dimethyl-, acetate", "Citroviol", "7,7-Dimethylbicyclo[3.1.1]hept-2-ene-2-ethanol acetate", "Nopyl acetate", "Nopol acetate", "NSC 1286", "NSC 404963", "2-(6,6-Dimethylbicyclo[3.1.1]hept-2-en-2-yl)ethyl acetate"], "SMILES": "C(COC(C)=O)C=1C2C(C)(C)C(C2)CC1", "physical_data": {"Molecular Weight": "208.30", "Molecular Formula": "C13H20O2", "Boiling Point": "118 \u00b0C @ Press: 10 Torr", "Density": "0.9772 g/cm\u00b3 @ Temp: 25 \u00b0C"}}