{"cas_no": "128-08-5", "cn_name": "N-\u6eb4\u4ee3\u4e01\u4e8c\u9170\u4e9a\u80fa(NBS)", "en_name": ["N-Bromosuccinimide", "2,5-Pyrrolidinedione, 1-bromo-", "Succinimide, N-bromo-", "1-Bromo-2,5-pyrrolidinedione", "N-Bromosuccinimide", "NBS", "Succinbromimide", "Bromosuccinimide", "NSC 16", "N-Bromobutanimide"], "SMILES": "BrN1C(=O)CCC1=O", "physical_data": {"Molecular Weight": "177.98", "Molecular Formula": "C4H4BrNO2", "Melting Point": "174 \u00b0C"}}