{"cas_no": "128-95-0", "cn_name": "1,4-\u4e8c\u6c28\u57fa\u84bd\u918c", "en_name": ["Disperse Violet 1", "9,10-Anthracenedione, 1,4-diamino-", "Cibacet Violet 2R", "Anthraquinone, 1,4-diamino-", "1,4-Diamino-9,10-anthracenedione", "C.I. 61100", "Acetate Red Violet R", "Acetoquinone Light Heliotrope NL", "Acetylon Fast Red Violet R", "Amacel Heliotrope R", "Artisil Direct Violet 2RP", "Celanthrene Red Violet R", "Celliton Fast Red Violet", "Celliton Fast Red Violet RN", "Celliton Fast Red Violet RNA-CF", "Celutate Red Violet RH", "Cibacet Violet E 2R", "Cilla Fast Red Violet RN", "C.I. Solvent Violet 11", "Diacelliton Fast Violet 5R", "1,4-Diaminoanthraquinone", "Duranol Violet 2R", "Fenacet Fast Violet 5R", "Gracet Violet 2R", "Grasol Violet R", "Interchem Acetate Red Violet RRLF", "Interchem Acetate Violet R", "Interchem Hisperse Violet 2RH", "Krisolamine", "Microsetile Violet 3R", "Miketon Fast Red Violet R", "Nacelan Violet 4R", "Nyloquinone Violet R", "Oracet Violet 2R", "Perliton Violet 3R", "Serisol Brilliant Violet 2R", "Setacyl Violet P-R", "Setacyl Violet R", "Setile Violet 3R", "Supracet Brilliant Violet 3R", "C.I. Disperse Violet 1", "Amaplast Red Violet P 2R", "Disperse Violet K", "Artisil Violet 2RP", "1,4-Diamino-9,10-anthraquinone", "Resiren Violet TR", "Celliton Fast Violet R", "Oil Violet R", "Transetile Violet P 3R", "Sudan Violet", "NSC 7833", "Celliton Red Violet RN", "Smoke Violet LK 6064", "Diacelliton Fast Violet 3R", "Solvent Violet 11", "Disperse Violet 1", "Cibacet Violet 2RI", "Dispersol Violet B 2RA", "Violet 14447", "Serilene Brilliant Violet 2R", "Akasperse Violet 3R", "NSC 63807", "1,4-Diamine anthoaquine", "1,4-Diamino-9,10-dihydroanthracene-9,10-dione"], "SMILES": "O=C1C=2C(C(=O)C=3C1=CC=CC3)=C(N)C=CC2N", "physical_data": {"Molecular Weight": "238.24", "Molecular Formula": "C14H10N2O2", "Melting Point": "268 \u00b0C"}}