{"cas_no": "128-91-6", "cn_name": "1,5-\u4e8c\u7f9f\u57fa-4,8-\u4e8c\u785d\u57fa\u84bd\u918c", "en_name": ["1,5-Dihydroxy-4,8-dinitro-9,10-anthracenedione", "9,10-Anthracenedione, 1,5-dihydroxy-4,8-dinitro-", "Anthraquinone, 1,5-dihydroxy-4,8-dinitro-", "1,5-Dihydroxy-4,8-dinitro-9,10-anthracenedione", "Anthrarufin, 4,8-dinitro-", "1,5-Dihydroxy-4,8-dinitroanthraquinone", "4,8-Dinitro-1,5-dihydroxyanthraquinone", "1,5-Dinitro-4,8-dihydroxyanthraquinone", "4,8-Dihydroxy-1,5-dinitroanthraquinone", "4,8-Dinitroanthrarufin", "NSC 37584"], "SMILES": "O=C1C=2C(C(=O)C=3C1=C(O)C=CC3N(=O)=O)=C(O)C=CC2N(=O)=O", "physical_data": {"Molecular Weight": "330.21", "Molecular Formula": "C14H6N2O8", "Melting Point": "360-362 \u00b0C"}}