{"cas_no": "128-80-3", "cn_name": "\u6eb6\u5242\u7eff 3", "en_name": ["Solvent Green 3", "9,10-Anthracenedione, 1,4-bis[(4-methylphenyl)amino]-", "Anthraquinone, 1,4-di-p-toluidino-", "1,4-Bis[(4-methylphenyl)amino]-9,10-anthracenedione", "11091 Green", "C.I. 61565", "Ahcoquinone Cyanine Green Base", "Alizarine Cyanine Green Base", "Alizarine Cyanine Green G Fat Soluble", "Alizarine Green G Base", "Anthraquinone Green G Base", "Arlosol Green B", "Arlosol Green BS", "Arlosol Green BSS", "C.I. Solvent Green 3", "1,4-Di-p-toluidinoanthraquinone", "Nitro Fast Green GB", "Organol Fast Green J", "Quinizarine Green Base", "Quinizarin Green SS", "Sudan Green 4B", "Toyo Oriental Oil Blue G", "Waxoline Green G", "D and C Green No. 6", "Amaplast Green OZ", "Solvent Green 3", "Fat Soluble Anthraquinone Green", "Organol Green J", "Quinazarin green", "C-Green 10", "Green No. 202", "1,4-Bis-p-toluidino-9,10-anthraquinone", "Fat Soluble Green Anthraquinone", "Macrolex Green 5B", "Cyanine Green G base", "Sumiplast Green G", "Oil Green 530", "Orient Oil Green 530", "1,4-Bis[(4-methylphenyl)amino]anthraquinone", "FD and C Green no. 6", "C.I. Disperse Green 6:1", "1,4-Bis(4\u2032-methylanilino)anthraquinone", "Diaresin Green C", "Ceres Green BB", "Nitro Fast Green GSB", "Kayaset Green A-B", "Oil Green 5602", "1,4-Bis(p-tolylamino)anthraquinone", "Oplas Green 533", "Japan Green 202", "D 4", "D 4 (dye)", "D&", "C Green No. 6", "Sandoplast Green GSB", "1,4-Di-(4\u2032-toluidino)anthraquinone", "NSC 84207", "Waxoline Green 6GFW", "Green 6", "Brown 921", "DC Green 6", "KP Plast Green G", "Transparent Green 5B", "1,4-Bis(4-methylanilino)anthracene-9,10-dione", "Solvaperm Green GSB", "1,4-Bis(p-tolylamino)anthracene-9,10-dione", "Q 0021", "Mitsui PS Green B", "Macrolex Green 5B Gran", "Parasol Green 5B", "DTXSID9044376"], "SMILES": "N(C1=C2C(=C(NC3=CC=C(C)C=C3)C=C1)C(=O)C=4C(C2=O)=CC=CC4)C5=CC=C(C)C=C5", "physical_data": {"Molecular Weight": "418.49", "Molecular Formula": "C28H22N2O2", "Melting Point": "218 \u00b0C"}}