{"cas_no": "128-50-7", "cn_name": "6,6-\u4e8c\u7532\u57fa-\u4e8c\u73af[3.1.1]\u5e9a-2-\u70ef-2-\u4e59\u9187", "en_name": ["Nopol", "Bicyclo[3.1.1]hept-2-ene-2-ethanol, 6,6-dimethyl-", "2-Norpinene-2-ethanol, 6,6-dimethyl-", "6,6-Dimethylbicyclo[3.1.1]hept-2-ene-2-ethanol", "6,6-Dimethyl-2-norpinene-2-ethanol", "Nopol (terpene)", "Homomyrtenol", "Nopol", "10-(Hydroxymethyl)-2-pinene", "NSC 1284", "NSC 404962", "2-(6,6-Dimethylbicyclo[3.1.1]hept-2-en-2-yl)ethanol", "2-[6,6-Dimethylbicyclo[3.1.1]hept-2-en-2-yl]ethan-1-ol", "2-(6,6-Dimethyl-4-bicyclo[3.1.1]hept-3-enyl)ethanol"], "SMILES": "C(CO)C=1C2C(C)(C)C(C2)CC1", "physical_data": {"Molecular Weight": "166.26", "Molecular Formula": "C11H18O", "Boiling Point": "235 \u00b0C", "Density": "0.9647 g/cm\u00b3 @ Temp: 25 \u00b0C"}}