{"cas_no": "128-09-6", "cn_name": "N-\u6c2f\u4ee3\u4e01\u4e8c\u9170\u4e9a\u80fa", "en_name": ["Chlorosuccinimide", "2,5-Pyrrolidinedione, 1-chloro-", "Succinimide, N-chloro-", "1-Chloro-2,5-pyrrolidinedione", "N-Chlorosuccinimide", "Succinchlorimide", "Succinic N-chloroimide", "Chlorosuccinimide", "NSC 8748", "NCS"], "SMILES": "ClN1C(=O)CCC1=O", "physical_data": {"Molecular Weight": "133.53", "Molecular Formula": "C4H4ClNO2", "Boiling Point": "216.5 \u00b0C", "Melting Point": "150-151 \u00b0C", "Density": "1.65 g/cm\u00b3"}}