{"cas_no": "128073-33-6", "cn_name": "(\u00b1)-2,2-\u4e8c\u6c1f-1-\u7532\u57fa\u73af\u4e19\u70f7\u7fa7\u9178", "en_name": ["2,2-Difluoro-1-methylcyclopropanecarboxylic acid", "Cyclopropanecarboxylic acid, 2,2-difluoro-1-methyl-", "2,2-Difluoro-1-methylcyclopropanecarboxylic acid", "2,2-Difluoro-1-methylcyclopropane-1-carboxylic acid", "2,2-Difluoro-1-methyl-1-cyclopropanecarboxylic acid"], "SMILES": "C(O)(=O)C1(C)C(F)(F)C1", "physical_data": {"Molecular Weight": "136.10", "Molecular Formula": "C5H6F2O2", "Melting Point": "59-61 \u00b0C"}}