{"cas_no": "128173-53-5", "cn_name": "D-DTTA \u76d0", "en_name": ["Butanedioic acid, 2,3-bis[(4-methylbenzoyl)oxy]-, (2S,3S)-, compd. with 4-[(1S)-4-(dimethylamino)-1-(4-fluorophenyl)-1-hydroxybutyl]-3-(hydroxymethyl)benzonitrile (1:2)", "Butanedioic acid, 2,3-bis[(4-methylbenzoyl)oxy]-, (2S,3S)-, compd. with 4-[(1S)-4-(dimethylamino)-1-(4-fluorophenyl)-1-hydroxybutyl]-3-(hydroxymethyl)benzonitrile (1:2)", "Benzonitrile, 4-[4-(dimethylamino)-1-(4-fluorophenyl)-1-hydroxybutyl]-3-(hydroxymethyl)-, (S)-, (2S,3S)-2,3-bis[(4-methylbenzoyl)oxy]butanedioate (2:1) (salt)", "(1S)-4-[4-(Dimethylamino)-1-(4-fluorophenyl)-1-hydroxybutyl]-3-(hydroxymethyl)benzonitrile hemi-(+)-di(p-toluoyl)tartrate"], "SMILES": "C(C(OC(=O)C1=CC=C(C)C=C1)C(O)=O)(OC(=O)C2=CC=C(C)C=C2)C(O)=O.C(CCCN(C)C)(O)(C1=C(CO)C=C(C#N)C=C1)C2=CC=C(F)C=C2", "physical_data": {"Molecular Weight": "", "Molecular Formula": "C20H23FN2O2.<sup>1</sup>/2C20H18O8", "Melting Point": "134-135 \u00b0C"}}