{"cas_no": "128143-89-5", "cn_name": "4-\u6c2f-\u56db\u5421\u5576", "en_name": ["4\u2032-Chloro-2,2\u2032:6\u2032,2\u2032\u2032-terpyridine", "2,2\u2032:6\u2032,2\u2032\u2032-Terpyridine, 4\u2032-chloro-", "4\u2032-Chloro-2,2\u2032:6\u2032,2\u2032\u2032-terpyridine", "4\u2032-Chloro-2,2,2\u2032:6\u2032,2\u2032\u2032-terpyridine"], "SMILES": "ClC=1C=C(N=C(C1)C2=CC=CC=N2)C3=CC=CC=N3", "physical_data": {"Molecular Weight": "267.71", "Molecular Formula": "C15H10ClN3", "Melting Point": "149-152 \u00b0C"}}