{"cas_no": "128196-01-0", "cn_name": "\u4f9d\u4ed6\u666e\u4ed1", "en_name": ["(+)-Citalopram", "5-Isobenzofurancarbonitrile, 1-[3-(dimethylamino)propyl]-1-(4-fluorophenyl)-1,3-dihydro-, (1S)-", "5-Isobenzofurancarbonitrile, 1-[3-(dimethylamino)propyl]-1-(4-fluorophenyl)-1,3-dihydro-, (S)-", "(1S)-1-[3-(Dimethylamino)propyl]-1-(4-fluorophenyl)-1,3-dihydro-5-isobenzofurancarbonitrile", "S-(+)-Citalopram", "Escitalopram", "(S)-Citalopram", "(+)-(S)-1-(3-(Dimethylamino)propyl)-1-(4-fluorophenyl)-1,3-dihydroisobenzofuran-5-carbonitrile", "(+)-Citalopram", "Seroplex", "(+)-(S)-Citalopram", "(1S)-1-(3-(Dimethylamino)propyl)-1-(4-fluorophenyl)-1,3-dihydroisobenzofuran-5-carbonitrile", "(1S)-1-[3-(Dimethylamino)propyl]-1-(4-fluorophenyl)-3H-2-benzofuran-5-carbonitrile"], "SMILES": "C(CCN(C)C)C1(C=2C(CO1)=CC(C#N)=CC2)C3=CC=C(F)C=C3", "physical_data": {"Molecular Weight": "324.39", "Molecular Formula": "C20H21FN2O", "Melting Point": "144-146 \u00b0C"}}