{"cas_no": "128241-72-5", "cn_name": "D(-)-2-\u6c28\u57fa-3-\u81a6\u4e19\u9178", "en_name": ["3-Phosphono-D-alanine", "D-Alanine, 3-phosphono-", "3-Phosphono-D-alanine", "(S)-2-Amino-3-phosphonopropanoic acid", "D-2-Amino-3-phosphonopropionic acid", "(2S)-2-Amino-3-phosphonopropanoic acid"], "SMILES": "C(CP(=O)(O)O)(C(O)=O)N", "physical_data": {"Molecular Weight": "169.07", "Molecular Formula": "C3H8NO5P", "Melting Point": "224-226 \u00b0C"}}