{"cas_no": "128293-64-1", "cn_name": "4-\u53d4\u4e01\u6c27\u7fb0\u57fa\u6c28\u57fa-1-\u7532\u57fa-1H-\u54aa\u5511-2-\u7532\u9178", "en_name": ["4-[[(1,1-Dimethylethoxy)carbonyl]amino]-1-methyl-1H-imidazole-2-carboxylic acid", "1H-Imidazole-2-carboxylic acid, 4-[[(1,1-dimethylethoxy)carbonyl]amino]-1-methyl-", "4-[[(1,1-Dimethylethoxy)carbonyl]amino]-1-methyl-1H-imidazole-2-carboxylic acid", "4-tert-Butoxycarbonylamino-1-methyl-1H-imidazole-2-carboxylic acid"], "SMILES": "C(O)(=O)C1=NC(NC(OC(C)(C)C)=O)=CN1C", "physical_data": {"Molecular Weight": "241.24", "Molecular Formula": "C10H15N3O4", "Melting Point": "200-201 \u00b0C"}}