{"cas_no": "1282512-48-4", "cn_name": "GDC 0032", "en_name": ["1H-Pyrazole-1-acetamide, 4-[5,6-dihydro-2-[3-methyl-1-(1-methylethyl)-1H-1,2,4-triazol-5-yl]imidazo[1,2-d][1,4]benzoxazepin-9-yl]-\u03b1,\u03b1-dimethyl-", "1H-Pyrazole-1-acetamide, 4-[5,6-dihydro-2-[3-methyl-1-(1-methylethyl)-1H-1,2,4-triazol-5-yl]imidazo[1,2-d][1,4]benzoxazepin-9-yl]-\u03b1,\u03b1-dimethyl-", "4-[5,6-Dihydro-2-[3-methyl-1-(1-methylethyl)-1H-1,2,4-triazol-5-yl]imidazo[1,2-d][1,4]benzoxazepin-9-yl]-\u03b1,\u03b1-dimethyl-1H-pyrazole-1-acetamide", "GDC 0032", "RG 7604", "Taselisib", "2-Methyl-2-[4-[2-(5-methyl-2-propan-2-yl-1,2,4-triazol-3-yl)-5,6-dihydroimidazo[1,2-d][1,4]benzoxazepin-9-yl]pyrazol-1-yl]propanamide"], "SMILES": "C(C)(C)N1C(C=2N=C3C=4C(=CC(=CC4)C5=CN(C(C(N)=O)(C)C)N=C5)OCCN3C2)=NC(C)=N1", "physical_data": {"Molecular Weight": "460.53", "Molecular Formula": "C24H28N8O2", "Melting Point": "259 \u00b0C"}}