{"cas_no": "128345-57-3", "cn_name": "(S)-3-\u6c28\u57fa\u5421\u54af\u70f7", "en_name": ["(-)-3-Aminopyrrolidine", "3-Pyrrolidinamine, (3S)-", "3-Pyrrolidinamine, (S)-", "(3S)-3-Pyrrolidinamine", "(3S)-(-)-3-Aminopyrrolidine", "(S)-3-Aminopyrrolidine", "(3S)-Aminopyrrolidine", "(3S)-3-Aminopyrrolidine", "(-)-3-Aminopyrrolidine", "(S)-(-)-3-Aminopyrrolidine", "(S)-Pyrrolidin-3-amine", "(3S)-Pyrrolidin-3-amine", "3-Pyrrolidinamine (3S)-"], "SMILES": "NC1CCNC1", "physical_data": {"Molecular Weight": "86.14", "Molecular Formula": "C4H10N2", "Boiling Point": "80-83 \u00b0C @ Press: 300 Torr"}}