{"cas_no": "128397-09-1", "cn_name": "HYPTADIENIC ACID", "en_name": ["Hyptadienic acid", "Benzo[3,4]-18-norandrosta-3,5,15-triene-3(2\u2032H)-carboxylic acid, 3\u2032,4\u2032,5\u2032,6\u2032-tetrahydro-3\u2032-hydroxy-15-(hydroxymethyl)-3\u2032,4\u2032,9,14,17,17-hexamethyl-, (3\u03b2,3\u2032\u03b1,4\u03b2,4\u2032\u03b1,8\u03b1,9\u03b2,10\u03b1,13\u03b1,14\u03b2)-", "A(1)-Norursa-2,12-dien-28-oic acid, 19-hydroxy-2-(hydroxymethyl)-", "(3\u03b2,3\u2032\u03b1,4\u03b2,4\u2032\u03b1,8\u03b1,9\u03b2,10\u03b1,13\u03b1,14\u03b2)-3\u2032,4\u2032,5\u2032,6\u2032-Tetrahydro-3\u2032-hydroxy-15-(hydroxymethyl)-3\u2032,4\u2032,9,14,17,17-hexamethylbenzo[3,4]-18-norandrosta-3,5,15-triene-3(2\u2032H)-carboxylic acid", "Hyptadienic acid", "(+)-Hyptadienic acid", "Coleonolic acid"], "SMILES": "CC12C(C3C(C(O)=O)(CC1)CCC(C)C3(C)O)=CCC4C2(C)CCC5C4(C)C(CO)=CC5(C)C", "physical_data": {"Molecular Weight": "470.68", "Molecular Formula": "C30H46O4", "Melting Point": "208-210 \u00b0C"}}