{"cas_no": "128455-63-0", "cn_name": "5-\u6c2f-1-\u7532\u57fa-3-(\u4e09\u6c1f\u7532\u57fa)\u5421\u54af-4-\u7fa7\u9178", "en_name": ["5-Chloro-1-methyl-3-(trifluoromethyl)-1H-pyrazole-4-carboxylic acid", "1H-Pyrazole-4-carboxylic acid, 5-chloro-1-methyl-3-(trifluoromethyl)-", "5-Chloro-1-methyl-3-(trifluoromethyl)-1H-pyrazole-4-carboxylic acid", "1-Methyl-3-trifluoromethyl-5-chloropyrazole-4-carboxylic acid", "5-Chloro-1-methyl-3-trifluoromethyl-4-pyrazolecarboxylic acid", "3-(Trifluoromethyl)-5-chloro-1-methyl-1H-pyrazole-4-carboxylic acid"], "SMILES": "C(O)(=O)C=1C(C(F)(F)F)=NN(C)C1Cl", "physical_data": {"Molecular Weight": "228.56", "Molecular Formula": "C6H4ClF3N2O2", "Melting Point": "198-201 \u00b0C"}}