{"cas_no": "128495-46-5", "cn_name": "3-\u7532\u6c27\u57fa-4-\u6c1f\u82ef\u7532\u919b", "en_name": ["4-Fluoro-3-methoxybenzaldehyde", "Benzaldehyde, 4-fluoro-3-methoxy-", "4-Fluoro-3-methoxybenzaldehyde", "4-Fluoro-m-anisaldehyde", "3-Methoxy-4-fluorobenzaldehyde", "4-Fluoro-5-methoxybenzaldehyde"], "SMILES": "O(C)C1=CC(C=O)=CC=C1F", "physical_data": {"Molecular Weight": "154.14", "Molecular Formula": "C8H7FO2", "Boiling Point": "93 \u00b0C @ Press: 4.5 Torr", "Melting Point": "29-30 \u00b0C"}}