{"cas_no": "1284-72-6", "cn_name": "\u4e8c\u8302\u9541", "en_name": ["Bis(cyclopentadienyl)magnesium", "Magnesocene", "Magnesium, di-\u03c0-cyclopentadienyl-", "Magnesium, dicyclopentadienyl-", "Bis(\u03c0-cyclopentadienyl)magnesium", "Dicyclopentadienylmagnesium", "Di-\u03c0-cyclopentadienylmagnesium", "Magnesium dicyclopentadienide", "Bis(cyclopentadienyl)magnesium", "Bis(\u03b75-cyclopentadienyl)magnesium"], "SMILES": "[Mg+2]12345678([CH-]9[CH]1=[CH]2[CH]3=[CH]49)[CH-]%10[CH]5=[CH]6[CH]7=[CH]8%10", "physical_data": {"Molecular Weight": "", "Molecular Formula": "C10H10Mg", "Melting Point": "176-178 \u00b0C"}}