{"cas_no": "128595-07-3", "cn_name": "\u73af\u620a\u57fa-N-\u7425\u73c0\u9170\u4e9a\u80fa\u57fa\u78b3\u9178\u916f", "en_name": ["Cyclopentyl 2,5-dioxo-1-pyrrolidinyl carbonate", "Carbonic acid, cyclopentyl 2,5-dioxo-1-pyrrolidinyl ester", "2,5-Pyrrolidinedione, 1-[[(cyclopentyloxy)carbonyl]oxy]-", "Cyclopentyl 2,5-dioxo-1-pyrrolidinyl carbonate"], "SMILES": "O(C(OC1CCCC1)=O)N2C(=O)CCC2=O", "physical_data": {"Molecular Weight": "227.21", "Molecular Formula": "C10H13NO5", "Melting Point": "78-80 \u00b0C"}}