{"cas_no": "128544-05-8", "cn_name": "(S)-(+)-1,1'-\u8054-2-\u8418\u915a\u4e8c(\u4e09\u6c1f\u7532\u78fa\u9178\u916f)", "en_name": ["(S)-BINOL bis(triflate)", "Methanesulfonic acid, 1,1,1-trifluoro-, 1,1\u2032-(1S)-[1,1\u2032-binaphthalene]-2,2\u2032-diyl ester", "Methanesulfonic acid, trifluoro-, [1,1\u2032-binaphthalene]-2,2\u2032-diyl ester, (S)-", "Methanesulfonic acid, trifluoro-, (1S)-[1,1\u2032-binaphthalene]-2,2\u2032-diyl ester", "(S)-2,2\u2032-Bis(trifluoromethanesulfonyloxy)-1,1\u2032-binaphthyl", "(S)-(+)-1,1\u2032-Bi-2-naphthol bis(trifluoromethanesulfonate)", "(S)-2,2\u2032-Bis(trifluoromethanesulfonyloxy)-1,1\u2032-binaphthalene", "(S)-BINOL bis(triflate)"], "SMILES": "O(S(C(F)(F)F)(=O)=O)C1=C(C2=C(C=C1)C=CC=C2)C=3C4=C(C=CC3OS(C(F)(F)F)(=O)=O)C=CC=C4", "physical_data": {"Molecular Weight": "550.45", "Molecular Formula": "C22H12F6O6S2", "Melting Point": "73-76 \u00b0C"}}