{"cas_no": "128639-02-1", "cn_name": "\u6c1f\u916e\u5511\u8349", "en_name": ["Carfentrazone-ethyl", "Benzenepropanoic acid, \u03b1,2-dichloro-5-[4-(difluoromethyl)-4,5-dihydro-3-methyl-5-oxo-1H-1,2,4-triazol-1-yl]-4-fluoro-, ethyl ester", "F 8426", "Carfentrazone-ethyl", "Aurora", "Aurora 50WG", "Aurora (pesticide)", "Spotlight", "Spotlight 24EC", "Kuaimieling", "Aim", "Aim (herbicide)", "Quicksilver T&", "O", "Spotlight Plus", "Spotlight (triazolinone herbicide)", "Ethyl (RS)-2-chloro-3-[2-chloro-5-[4-(difluoromethyl)-4,5-dihydro-3-methyl-5-oxo-1H-1,2,4-triazol-1-yl]-4-fluorophenyl]propionate", "Task", "Task (herbicide)", "Shark EW", "Zuocaotong"], "SMILES": "O=C1N(N=C(C)N1C(F)F)C2=CC(CC(C(OCC)=O)Cl)=C(Cl)C=C2F", "physical_data": {"Molecular Weight": "412.19", "Molecular Formula": "C15H14Cl2F3N3O3", "Boiling Point": "352.5 \u00b0C", "Melting Point": "-22.1 \u00b0C"}}