{"cas_no": "128625-52-5", "cn_name": "1H-\u82ef\u5e76\u4e09\u5511-1-\u57fa\u6c27\u4e09\u5421\u54af\u70f7\u57fa\u516d\u6c1f\u78f7\u9178\u76d0", "en_name": ["PyBOP", "Phosphorus(1+), [1-(hydroxy-\u03baO)-1H-benzotriazolato]tri-1-pyrrolidinyl-, (T-4)-, hexafluorophosphate(1-) (1:1)", "Pyrrolidine, phosphorus complex", "1H-Benzotriazole, 1-hydroxy-, phosphorus complex", "PyBOP", "Benzotriazol-1-yloxytripyrrolidinophosphonium hexafluorophosphate", "1-Benzotriazolyloxytripyrrolidinylphosphonium hexafluorophosphate", "(1-Hydroxy-1H-benzotriazolato-O)tri-1-pyrrolidinylphosphorus(1+) hexafluorophosphate(1-)", "1H-Benzotriazol-1-yloxytripyrrolidinophosphonium hexafluorophosphate"], "SMILES": "[P+5]([F-])([F-])([F-])([F-])([F-])[F-].[P+](ON1C=2C(N=N1)=CC=CC2)(N3CCCC3)(N4CCCC4)N5CCCC5", "physical_data": {"Molecular Weight": "", "Molecular Formula": "C18H28N6OP.F6P", "Melting Point": "156-157 \u00b0C"}}