{"cas_no": "1286754-14-0", "cn_name": "\u54aa\u5511\u5e76[1,2-B]\u5421\u55ea-3-\u7532\u9178\u4e59\u916f", "en_name": ["Ethyl imidazo[1,2-a]pyrazine-3-carboxylate", "Imidazo[1,2-a]pyrazine-3-carboxylic acid, ethyl ester", "Ethyl imidazo[1,2-a]pyrazine-3-carboxylate"], "SMILES": "C(OCC)(=O)C=1N2C(=NC1)C=NC=C2", "physical_data": {"Molecular Weight": "191.19", "Molecular Formula": "C9H9N3O2", "Melting Point": "118-119 \u00b0C"}}