{"cas_no": "1287-16-7", "cn_name": "\u4e8c\u8302\u94c1\u57fa\u4e59\u9178", "en_name": ["Ferroceneacetic acid", "Ferrocene, (carboxymethyl)-", "Ferroceneacetic acid", "Iron, [(carboxymethyl)cyclopentadienyl]cyclopentadienyl-", "(Carboxymethyl)ferrocene", "Cyclopentadieneacetic acid, cyclopentadienyliron deriv.", "Ferrocenylacetic acid", "NSC 128978"], "SMILES": "C(C(O)=O)[C-]12[Fe+2]3456789([CH]1=[CH]3[CH]4=[CH]52)[CH-]%10[CH]6=[CH]7[CH]8=[CH]9%10", "physical_data": {"Molecular Weight": "", "Molecular Formula": "C12H12FeO2", "Melting Point": "161 \u00b0C"}}