{"cas_no": "1287-13-4", "cn_name": "\u4e8c\u8302\u948c", "en_name": ["Ruthenocene", "Ruthenocene", "Ruthenium, di-\u03c0-cyclopentadienyl-", "Ruthenium, dicyclopentadienyl-", "Ruthenium, bis(\u03b75-2,4-cyclopentadien-1-yl)-", "Dicyclopentadienyl ruthenium", "Bis(cyclopentadienyl)ruthenium", "Bis(cyclopentadienyl)ruthenium(II)"], "SMILES": "[Ru+2]12345678([CH]=9[CH]1=[CH]2[CH-]3[CH]49)[CH]=%10[CH-]5[CH]6=[CH]7[CH]8%10", "physical_data": {"Molecular Weight": "", "Molecular Formula": "C10H10Ru", "Melting Point": "195.5 \u00b0C"}}