{"cas_no": "128796-39-4", "cn_name": "4-\u4e09\u6c1f\u7532\u57fa\u82ef\u787c\u9178", "en_name": ["4-(Trifluoromethyl)phenylboronic acid", "Boronic acid, B-[4-(trifluoromethyl)phenyl]-", "Boronic acid, [4-(trifluoromethyl)phenyl]-", "B-[4-(Trifluoromethyl)phenyl]boronic acid", "4-(Trifluoromethyl)phenylboronic acid", "4-(Trifluoromethyl)benzeneboronic acid", "\u03b1,\u03b1,\u03b1-Trifluoro-p-tolylboronic acid", "[p-(Trifluoromethyl)phenyl]boronic acid"], "SMILES": "C(F)(F)(F)C1=CC=C(B(O)O)C=C1", "physical_data": {"Molecular Weight": "189.93", "Molecular Formula": "C7H6BF3O2", "Melting Point": "230-235 \u00b0C (decomp)"}}