{"cas_no": "129-39-5", "cn_name": "1,8-\u4e8c\u785d\u57fa\u84bd\u918c", "en_name": ["1,8-Dinitro-9,10-anthracenedione", "9,10-Anthracenedione, 1,8-dinitro-", "Anthraquinone, 1,8-dinitro-", "1,8-Dinitro-9,10-anthracenedione", "Alizarine Violet R Base", "1,8-Dinitroanthraquinone", "Waxoline Violet BA", "1,8-Dinitro-9,10-anthraquinone", "NSC 37108"], "SMILES": "O=C1C=2C(C(=O)C=3C1=C(N(=O)=O)C=CC3)=CC=CC2N(=O)=O", "physical_data": {"Molecular Weight": "298.21", "Molecular Formula": "C14H6N2O6", "Melting Point": "310 \u00b0C"}}