{"cas_no": "129-77-1", "cn_name": "\u76d0\u9178\u54cc\u7acb\u5ea6\u916f", "en_name": ["Piperidolate hydrochloride", "Benzeneacetic acid, \u03b1-phenyl-, 1-ethyl-3-piperidinyl ester, hydrochloride (1:1)", "Acetic acid, diphenyl-, 1-ethyl-3-piperidyl ester hydrochloride", "Benzeneacetic acid, \u03b1-phenyl-, 1-ethyl-3-piperidinyl ester, hydrochloride", "3-Piperidinol, 1-ethyl-, diphenylacetate (ester), hydrochloride", "Dactil hydrochloride", "Piperidolate hydrochloride", "Crapinon", "NSC 4349", "1-Ethylpiperidin-3-yl 2,2-diphenylacetate hydrochloride"], "SMILES": "C(C(OC1CN(CC)CCC1)=O)(C2=CC=CC=C2)C3=CC=CC=C3.Cl", "physical_data": {"Molecular Weight": "", "Molecular Formula": "C21H25NO2.ClH", "Melting Point": "195-196 \u00b0C"}}