{"cas_no": "129-79-3", "cn_name": "2,4,7-\u4e09\u785d\u57fa-9-\u82b4\u916e", "en_name": ["Trinitrofluorenone", "9H-Fluoren-9-one, 2,4,7-trinitro-", "Fluoren-9-one, 2,4,7-trinitro-", "2,4,7-Trinitro-9H-fluoren-9-one", "Trinitrofluorenone", "2,4,7-Trinitrofluoren-9-one", "2,4,7-Trinitrofluorenone", "TNF (ketone)", "2,4,7-Trinitrofluorone", "9-Oxo-2,4,7-trinitrofluorene", "NSC 12367"], "SMILES": "N(=O)(=O)C1=C2C=3C(C(=O)C2=CC(N(=O)=O)=C1)=CC(N(=O)=O)=CC3", "physical_data": {"Molecular Weight": "315.19", "Molecular Formula": "C13H5N3O7", "Melting Point": "175.2-176 \u00b0C"}}