{"cas_no": "129-94-2", "cn_name": "2-(8-\u6c2f-1-\u8418\u786b)\u4e59\u9178", "en_name": ["2-[(8-Chloro-1-naphthalenyl)thio]acetic acid", "Acetic acid, 2-[(8-chloro-1-naphthalenyl)thio]-", "Acetic acid, [(8-chloro-1-naphthyl)thio]-", "Acetic acid, [(8-chloro-1-naphthalenyl)thio]-", "2-[(8-Chloro-1-naphthalenyl)thio]acetic acid", "(8-Chloro-1-naphthylthio)acetic acid", "2-(8-Chloronaphthalen-1-yl)sulfanylacetic acid", "2-[(8-Chloro-1-naphthyl)thio]acetic acid", "2-[(8-Chloronaphthalen-1-yl)sulfanyl]acetic acid"], "SMILES": "S(CC(O)=O)C=1C2=C(C=CC1)C=CC=C2Cl", "physical_data": {"Molecular Weight": "252.72", "Molecular Formula": "C12H9ClO2S", "Melting Point": "159-160 \u00b0C"}}