{"cas_no": "129-00-0", "cn_name": "\u8298", "en_name": ["Pyrene", "Pyrene", "Benzo[def]phenanthrene", "NSC 17534", "NSC 66449"], "SMILES": "C12=C3C4=CC=C1C=CC=C2C=CC3=CC=C4", "physical_data": {"Molecular Weight": "202.25", "Molecular Formula": "C16H10", "Boiling Point": "404 \u00b0C @ Press: 760 Torr", "Melting Point": "151.2 \u00b0C", "Density": "1.271 g/cm\u00b3 @ Temp: 23 \u00b0C"}}