{"cas_no": "129-44-2", "cn_name": "1,5-\u4e8c\u6c28\u57fa\u84bd\u918c", "en_name": ["1,5-Diaminoanthraquinone", "9,10-Anthracenedione, 1,5-diamino-", "Anthraquinone, 1,5-diamino-", "1,5-Diamino-9,10-anthracenedione", "1,5-Anthraquinonyldiamine", "1,5-Diaminoanthraquinone", "1,5-Diamino-9,10-anthraquinone", "NSC 507213", "Smoke Red F", "NSC 63791", "NSC 7213", "1,5-Diamino-9,10-dihydroanthracene-9,10-dione"], "SMILES": "O=C1C=2C(C(=O)C=3C1=CC=CC3N)=CC=CC2N", "physical_data": {"Molecular Weight": "238.24", "Molecular Formula": "C14H10N2O2", "Melting Point": "319 \u00b0C"}}