{"cas_no": "129-43-1", "cn_name": "1-\u7f9f\u57fa\u84bd\u918c", "en_name": ["1-Hydroxyanthraquinone", "9,10-Anthracenedione, 1-hydroxy-", "Anthraquinone, 1-hydroxy-", "1-Hydroxy-9,10-anthracenedione", "1-Hydroxyanthraquinone", "1-Hydroxy-9,10-anthraquinone", "\u03b1-Hydroxyanthraquinone", "Erythroxyanthraquinone", "NSC 8640", "1-Hydroxy-9,10-dihydroanthracene-9,10-dione"], "SMILES": "O=C1C=2C(C(=O)C=3C1=CC=CC3)=CC=CC2O", "physical_data": {"Molecular Weight": "224.21", "Molecular Formula": "C14H8O3", "Melting Point": "193.8 \u00b0C"}}