{"cas_no": "129-03-3", "cn_name": "\u585e\u5e9a\u5576", "en_name": ["Cyproheptadine", "Piperidine, 4-(5H-dibenzo[a,d]cyclohepten-5-ylidene)-1-methyl-", "4-(5H-Dibenzo[a,d]cyclohepten-5-ylidene)-1-methylpiperidine", "Cyproheptadine", "1-Methyl-4-(5H-dibenzo[a,d]cycloheptenylidene)piperidine", "Periactinol", "1-Methyl-4-(dibenzo[a,e]cycloheptatrien-5-ylidene)piperidine", "Cycloheptadine", "MeSH ID: D003533"], "SMILES": "CN1CCC(=C2C=3C(C=CC=4C2=CC=CC4)=CC=CC3)CC1", "physical_data": {"Molecular Weight": "287.40", "Molecular Formula": "C21H21N", "Melting Point": "112.3-113.3 \u00b0C"}}