{"cas_no": "129-64-6", "cn_name": "\u964d\u51b0\u7247\u70ef\u4e8c\u9178\u9150", "en_name": ["Carbic anhydride", "4,7-Methanoisobenzofuran-1,3-dione, 3a,4,7,7a-tetrahydro-, (3aR,4S,7R,7aS)-rel-", "5-Norbornene-2,3-dicarboxylic anhydride, cis-endo-", "4,7-Methanoisobenzofuran-1,3-dione, 3a,4,7,7a-tetrahydro-, (3a\u03b1,4\u03b1,7\u03b1,7a\u03b1)-", "rel-(3aR,4S,7R,7aS)-3a,4,7,7a-Tetrahydro-4,7-methanoisobenzofuran-1,3-dione", "Bicyclo[2.2.1]-2-heptene-endo-5,6-dicarboxylic acid anhydride", "endo-cis-Bicyclo[2.2.1]hept-5-ene-2,3-dicarboxylic anhydride", "Nadic anhydride", "endo-cis-3,6-endo-Methylene-\u03944-tetrahydrophthalic anhydride", "endo-cis-Bicyclo[2.2.1]hept-5-ene-2,3-dicarboxylic acid anhydride", "endo-3,6-Methylene-1,2,3,6-tetrahydrophthalic anhydride", "endo-Bicyclo[2.2.1]hept-5-ene-2,3-dicarboxylic anhydride", "endo-Bicyclo[2.2.1]hept-2-ene-5,6-dicarboxylic anhydride", "endo-Himic acid anhydride", "cis-3,6-endo-Methylene-1,2,3,6-tetrahydrophthalic anhydride", "Endic anhydride", "endo-3,6-Methylene-4-cyclohexene-1,2-dicarboxylic anhydride", "endo,cis-5-Norbornene-2,3-dicarboxylic anhydride", "Carbic anhydride", "5-Norbornene-endo-2,3-dicarboxylic anhydride", "Bicyclo[2.2.1]hept-5-ene-2,3-dicarboxylic acid endo-cis-anhydride", "Nadic acid anhydride", "endo-5-Norbornene-2,3-dicarboxylic anhydride", "cis-5-Norbornene-endo-2,3-dicarboxylic anhydride", "Kayahard CD", "Bicyclo[2.2.1hept-5-ene-2-endo,3-endo-dicarboxylic anhydride", "endo-Norbornene-2,3-dicarboxylic acid anhydride", "NSC 102277", "cis-endo-5-Norbornene-2,3-dicarboxylic acid anhydride", "Bicyclo[2.2.1]hept-5-ene-endo,endo-2,3-dicarboxylic anhydride", "endo-Carbic anhydride", "endo,cis-5-Norbornene-2,3-dicarboxylic acid anhydride", "cis-5-Norbornene-endo-2,3-dicarboxylic acid anhydride", "Norbornene-5,6-endo-dicarboxylic anhydride", "cis-endo-Bicyclo[2.2.1]hept-5-ene-2,3-dicarboxylic anhydride", "cis-5-Norbornene-endo-2,3-dicarboxylic andhyride", "NAH"], "SMILES": "O=C1C2C(C3CC2C=C3)C(=O)O1", "physical_data": {"Molecular Weight": "164.16", "Molecular Formula": "C9H8O3", "Boiling Point": "110-125 \u00b0C @ Press: 1 x 10<sup>-3</sup> Torr", "Melting Point": "164.5 \u00b0C"}}