{"cas_no": "129-06-6", "cn_name": "\u534e\u6cd5\u6797\u94a0", "en_name": ["(\u00b1)-Warfarin sodium", "2H-1-Benzopyran-2-one, 4-hydroxy-3-(3-oxo-1-phenylbutyl)-, sodium salt (1:1)", "Coumarin, 3-(\u03b1-acetonylbenzyl)-4-hydroxy-, sodium salt", "2H-1-Benzopyran-2-one, 4-hydroxy-3-(3-oxo-1-phenylbutyl)-, sodium salt", "Warfarin, sodium deriv.", "3-(\u03b1-Acetonylbenzyl)-4-hydroxycoumarin sodium", "Athrombin", "Coumadin sodium", "Prothromadin", "Panwarfin", "Sodium coumadin", "Sodium warfarin", "Warfarin sodium", "Warfarin sodium salt", "Sodium, [[2-oxo-3-(3-oxo-1-phenylbutyl)-2H-1-benzopyran-4-yl]oxy]-", "Coumafene sodium", "Varfine", "Tintorane", "Marevan", "Waran", "Warfilone", "Coumadin", "Ratsul Soluble", "Zoocoumarin sodium salt", "(\u00b1)-Warfarin sodium", "Aldocumar", "Coumadan Sodico", "Dimantil", "Farin", "Coumadine", "Orfarin", "Simarc 2", "Sofarin", "UniWarfin", "Warfarina", "Warfil 5", "Marevam", "Taro-warfarin", "Warfant"], "SMILES": "C(CC(C)=O)(C1=C(O)C=2C(OC1=O)=CC=CC2)C3=CC=CC=C3.[Na]", "physical_data": {"Molecular Weight": "", "Molecular Formula": "C19H16O4.Na", "Melting Point": "160 \u00b0C"}}