{"cas_no": "129-20-4", "cn_name": "\u7f9f\u4fdd\u677e", "en_name": ["Oxazolidin", "3,5-Pyrazolidinedione, 4-butyl-1-(4-hydroxyphenyl)-2-phenyl-", "3,5-Pyrazolidinedione, 4-butyl-1-(p-hydroxyphenyl)-2-phenyl-", "4-Butyl-1-(4-hydroxyphenyl)-2-phenyl-3,5-pyrazolidinedione", "G 27202", "4-Butyl-2-(p-hydroxyphenyl)-1-phenyl-3,5-pyrazolidinedione", "1-(p-Hydroxyphenyl)-2-phenyl-4-butyl-3,5-pyrazolidinedione", "1-p-Hydroxyphenyl-2-phenyl-3,5-dioxo-4-n-butylpyrazolidine", "Metabolite I", "Oxazolidin", "Oxyphenbutazone", "Oxyphenobutazone", "Oxyphenylbutazone", "1-Phenyl-2-(p-hydroxyphenyl)-3,5-dioxo-4-butylpyrazolidine", "Tandearil", "Tanderil", "Tendearil", "p-Hydroxyphenylbutazone", "4-Butyl-2-(4-hydroxyphenyl)-1-phenyl-3,5-dioxopyrazolidine", "1-Phenyl-2-(p-hydroxyphenyl)-3,5-dioxo-4-n-butylpyrazolidine", "4-Butyl-2-(p-hydroxyphenyl)-1-phenyl-3,4-pyrazolidinedione", "p-Oxyphenylbutazone", "Flogoril", "Crovaril", "Oxalid", "Tandacote", "Floghene", "Telidal", "Flogitolo", "Butapirone", "Neo-Farmadol", "Flamaril", "Offitril", "Suganril", "Romaxin", "Ro 04-4410", "Rapostan", "Visubutina", "Frabel", "Californit", "NSC 526053", "MeSH ID: D010113"], "SMILES": "O=C1N(N(C(=O)C1CCCC)C2=CC=CC=C2)C3=CC=C(O)C=C3", "physical_data": {"Molecular Weight": "324.37", "Molecular Formula": "C19H20N2O3", "Melting Point": "96 \u00b0C"}}