{"cas_no": "129-81-7", "cn_name": "\u7898\u5b89\u66ff\u6bd4\u6797", "en_name": ["4-Iodoantipyrine", "3H-Pyrazol-3-one, 1,2-dihydro-4-iodo-1,5-dimethyl-2-phenyl-", "Antipyrine, 4-iodo-", "1,2-Dihydro-4-iodo-1,5-dimethyl-2-phenyl-3H-pyrazol-3-one", "Antipyrine iodide", "Iodoantipyrine", "4-Iodoantipyrine", "Iodophenazone", "Iodopyrine", "4-Iodo-2,3-dimethyl-1-phenylpyrazolone", "4-Iodo-2,3-dimethyl-1-phenylpyrazol-5-one", "Arthripur", "Jodantipyrin", "Jodopyrin", "Iodantipirin", "Iodantipyrine"], "SMILES": "O=C1N(N(C)C(C)=C1I)C2=CC=CC=C2", "physical_data": {"Molecular Weight": "314.12", "Molecular Formula": "C11H11IN2O", "Melting Point": "160-161 \u00b0C"}}