{"cas_no": "129-15-7", "cn_name": "1-\u785d\u57fa-2-\u7532\u57fa\u84bd\u918c", "en_name": ["2-Methyl-1-nitroanthraquinone", "9,10-Anthracenedione, 2-methyl-1-nitro-", "Anthraquinone, 2-methyl-1-nitro-", "2-Methyl-1-nitro-9,10-anthracenedione", "1-Nitro-2-methylanthraquinone", "2-Methyl-1-nitroanthraquinone", "1-Nitro-2-methyl-9,10-anthraquinone", "NSC 8"], "SMILES": "N(=O)(=O)C1=C2C(C(=O)C=3C(C2=O)=CC=CC3)=CC=C1C", "physical_data": {"Molecular Weight": "267.24", "Molecular Formula": "C15H9NO4", "Melting Point": "270-271 \u00b0C"}}