{"cas_no": "129-74-8", "cn_name": "\u76d0\u9178\u5b89\u5176\u654f", "en_name": ["Buclizine hydrochloride", "Piperazine, 1-[(4-chlorophenyl)phenylmethyl]-4-[[4-(1,1-dimethylethyl)phenyl]methyl]-, hydrochloride (1:2)", "Piperazine, 1-(p-tert-butylbenzyl)-4-(p-chloro-\u03b1-phenylbenzyl)-, dihydrochloride", "Piperazine, 1-[(4-chlorophenyl)phenylmethyl]-4-[[4-(1,1-dimethylethyl)phenyl]methyl]-, dihydrochloride", "UCB 4445", "Buclodin", "1-(p-tert-Butylbenzyl)-4-(p-chlorodiphenylmethyl)piperazine dihydrochloride", "1-(p-Chlorobenzhydryl)-4-(p-tert-butylbenzyl)diethylenediamine hydrochloride", "1-p-Chlorobenzhydryl-4-p-(t)-butylbenzylpiperazine dihydrochloride", "Histabutyzine hydrochloride", "Softran", "Vibazine Hydrochloride", "Buclizine hydrochloride", "Buclizine dihydrochloride", "Longifene", "Aphilan R", "Buclina", "Vibazine", "Bucladin S", "NSC 25141", "1-(4-(tert-Butyl)benzyl)-4-((4-chlorophenyl)(phenyl)methyl)piperazine dihydrochloride"], "SMILES": "C(N1CCN(CC2=CC=C(C(C)(C)C)C=C2)CC1)(C3=CC=C(Cl)C=C3)C4=CC=CC=C4.Cl", "physical_data": {"Molecular Weight": "", "Molecular Formula": "C28H33ClN2.2ClH", "Melting Point": "230-240 \u00b0C"}}