{"cas_no": "129-66-8", "cn_name": "2,4,6-\u4e09\u785d\u57fa\u82ef\u7532\u9178", "en_name": ["2,4,6-Trinitrobenzoic acid", "Benzoic acid, 2,4,6-trinitro-", "2,4,6-Trinitrobenzoic acid", "sym-Trinitrobenzoic acid", "Trinitrobenzoic acid", "1-Carboxy-2,4,6-trinitrobenzene", "TNBA", "NSC 133453", "2,4,6-Trinitrophenylcarboxylic acid"], "SMILES": "C(O)(=O)C1=C(N(=O)=O)C=C(N(=O)=O)C=C1N(=O)=O", "physical_data": {"Molecular Weight": "257.11", "Molecular Formula": "C7H3N3O8", "Melting Point": "228.7 \u00b0C"}}