{"cas_no": "129-73-7", "cn_name": "\u9690\u8272\u5b54\u96c0\u7eff", "en_name": ["Leucomalachite green", "Benzenamine, 4,4\u2032-(phenylmethylene)bis[N,N-dimethyl-", "Aniline, 4,4\u2032-benzylidenebis[N,N-dimethyl-", "4,4\u2032-(Phenylmethylene)bis[N,N-dimethylbenzenamine]", "4,4\u2032-Benzylidene bis[N,N-dimethylaniline]", "Bis[p-(N,N-dimethylamino)phenyl]phenylmethane", "C.I. Basic Green 4, leuco base", "Leucomalachite green", "Malachite green leuco", "Malachite green leuco base", "p,p\u2032-Benzylidenebis(N,N-dimethylaniline)", "4,4\u2032-Bis(dimethylamino)triphenylmethane", "4,4\u2032-Bis(N,N-dimethylaminophenyl)phenylmethane", "Bis(p-dimethylaminophenyl)phenylmethane", "NSC 36379", "Bis(4-dimethylaminophenyl)phenylmethane"], "SMILES": "C(C1=CC=C(N(C)C)C=C1)(C2=CC=C(N(C)C)C=C2)C3=CC=CC=C3", "physical_data": {"Molecular Weight": "330.47", "Molecular Formula": "C23H26N2", "Melting Point": "92 \u00b0C"}}