{"cas_no": "129-51-1", "cn_name": "\u9a6c\u6765\u9178\u9ea6\u89d2\u65b0\u78b1", "en_name": ["Ergonovine maleate", "Ergoline-8-carboxamide, 9,10-didehydro-N-((S)-2-hydroxy-1-methylethyl)-6-methyl-, (8\u03b2)-, (2Z)-2-butenedioate (1:1)", "Ergoline-8\u03b2-carboxamide, 9,10-didehydro-N-((S)-2-hydroxy-1-methylethyl)-6-methyl-, maleate (1:1) (salt)", "Ergonovine maleate", "Ergoline-8-carboxamide, 9,10-didehydro-N-(2-hydroxy-1-methylethyl)-6-methyl-, [8\u03b2(S)]-, (Z)-2-butenedioate (1:1) (salt)", "Ergoline-8-carboxamide, 9,10-didehydro-N-[(1S)-2-hydroxy-1-methylethyl]-6-methyl-, (8\u03b2)-, (2Z)-2-butenedioate (1:1) (salt)", "Indolo[4,3-fg]quinoline, ergoline-8-carboxamide deriv.", "Cornocentin", "Ergometrine acid maleate", "Ergometrine maleate", "Ergotrate", "D-Ergonovine maleate", "Ergometrin maleate", "Ermetrin", "Ergomet", "Ergometrine hydrogen maleate", "Ergonovine hydrogen maleate", "Ergobasine maleate", "Ermetrine", "NSC 93752"], "SMILES": "CN1C2C(C=3C=4C(C2)=CNC4C=CC3)=CC(C(NC(CO)C)=O)C1.C(=CC(O)=O)C(O)=O", "physical_data": {"Molecular Weight": "", "Molecular Formula": "C19H23N3O2.C4H4O4", "Melting Point": "167 \u00b0C (decomp)"}}