{"cas_no": "129-56-6", "cn_name": "\u5421\u5511\u84bd\u916e", "en_name": ["Anthra[1,9-cd]pyrazol-6(2H)-one", "Anthra[1,9-cd]pyrazol-6(2H)-one", "C.I. 70300", "Pyrazoleanthrone", "1,9-Pyrazoloanthrone", "Pyrazolanthrone", "SP 600125", "NSC 75890", "2H-Dibenzo[cd,g]indazol-6-one", "1PMV", "JNK inhibitor II", "420119 JNK inhibitor II", "14,15-Diazatetracyclo[7.6.1.0[2,7].0[13,16]]hexadeca-1(15),2,4,6,9(16),10,12-heptaen-8-one"], "SMILES": "O=C1C=2C=3C(C=4C1=CC=CC4)=NNC3C=CC2", "physical_data": {"Molecular Weight": "220.23", "Molecular Formula": "C14H8N2O", "Melting Point": "277-278 \u00b0C"}}