{"cas_no": "129042-71-3", "cn_name": "3-\u6c28\u57fa-3-\u73af\u5df1\u57fa\u4e19\u9178", "en_name": ["\u03b2-Aminocyclohexanepropanoic acid", "Cyclohexanepropanoic acid, \u03b2-amino-", "\u03b2-Aminocyclohexanepropanoic acid", "3-Amino-3-cyclohexanepropionic acid", "3-Amino-3-cyclohexylpropionic acid", "(\u00b1)-3-Amino-3-cyclohexylpropanoic acid", "3-Cyclohexyl-3-aminopropionic acid"], "SMILES": "C(CC(O)=O)(N)C1CCCCC1", "physical_data": {"Molecular Weight": "171.24", "Molecular Formula": "C9H17NO2", "Melting Point": "217-218 \u00b0C"}}