{"cas_no": "129135-87-1", "cn_name": "\u53cc(\u4e5d\u6c1f-1-\u4e01\u70f7\u78fa\u9170)\u4e9a\u80fa\u94be\u76d0", "en_name": ["Potassium bis(nonafluorobutanesulfonyl)imide", "1-Butanesulfonamide, 1,1,2,2,3,3,4,4,4-nonafluoro-N-[(1,1,2,2,3,3,4,4,4-nonafluorobutyl)sulfonyl]-, potassium salt (1:1)", "1-Butanesulfonamide, 1,1,2,2,3,3,4,4,4-nonafluoro-N-[(nonafluorobutyl)sulfonyl]-, potassium salt", "1,1,2,2,3,3,4,4,4-nonafluoro-N-[(nonafluorobutyl)sulfonyl]-1-butanesulfonamide potassium salt", "Potassium bis(perfluorobutanesulfonyl)imide", "Potassium bis(nonafluorobutanesulfonyl)imide", "EF-N 442", "Bis(nonafluorobutanesulfone)imide potassium salt", "Potassium Bis(nonafluorobutanesulfonimide)"], "SMILES": "C(C(C(C(F)(F)F)(F)F)(F)F)(S(NS(C(C(C(C(F)(F)F)(F)F)(F)F)(F)F)(=O)=O)(=O)=O)(F)F.[K]", "physical_data": {"Molecular Weight": "", "Molecular Formula": "C8HF18NO4S2.K", "Melting Point": "340-341 \u00b0C (decomp)"}}