{"cas_no": "129145-51-3", "cn_name": "\u7518\u8349\u5b81 M", "en_name": ["Gancaonin M", "4H-1-Benzopyran-4-one, 5,7-dihydroxy-3-(4-methoxyphenyl)-8-(3-methyl-2-buten-1-yl)-", "4H-1-Benzopyran-4-one, 5,7-dihydroxy-3-(4-methoxyphenyl)-8-(3-methyl-2-butenyl)-", "5,7-Dihydroxy-3-(4-methoxyphenyl)-8-(3-methyl-2-buten-1-yl)-4H-1-benzopyran-4-one", "Gancaonin M"], "SMILES": "C(C=C(C)C)C1=C2C(C(=O)C(=CO2)C3=CC=C(OC)C=C3)=C(O)C=C1O", "physical_data": {"Molecular Weight": "352.38", "Molecular Formula": "C21H20O5", "Melting Point": "139-141 \u00b0C"}}