{"cas_no": "1291-47-0", "cn_name": "\u4e8c\u7532\u57fa\u4e8c\u8302\u94c1", "en_name": ["1,1\u2032-Dimethylferrocene", "Ferrocene, 1,1\u2032-dimethyl-", "Iron, bis(methylcyclopentadienyl)-", "1,1\u2032-Dimethylferrocene", "Bis(methylcyclopentadienyl)iron", "Dimethylferrocene"], "SMILES": "C[C-]12[Fe+2]3456789([C-]%10(C)[CH]3=[CH]4[CH]5=[CH]6%10)[CH]1=[CH]7[CH]8=[CH]92", "physical_data": {"Molecular Weight": "", "Molecular Formula": "C12H14Fe", "Boiling Point": "70-80 \u00b0C @ Press: 2 Torr", "Melting Point": "34-35 \u00b0C", "Density": "1.2349 g/cm\u00b3 @ Temp: 35 \u00b0C"}}