{"cas_no": "1291-32-3", "cn_name": "\u4e8c\u6c2f\u4e8c\u8302\u9506", "en_name": ["Zirconocene, dichloride", "Zirconium, dichlorobis(\u03b75-2,4-cyclopentadien-1-yl)-", "Zirconium, dichlorodi-\u03c0-cyclopentadienyl-", "Zirconium, dichlorodicyclopentadienyl-", "Dichlorobis(\u03b75-2,4-cyclopentadien-1-yl)zirconium", "Zirconocene, dichloride", "Dichlorodicyclopentadienylzirconium", "Dichlorodi-\u03c0-cyclopentadienylzirconium", "Dicyclopentadienyldichlorozirconium", "Zirconium dicyclopentadiene dichloride", "Bis-\u03c0-cyclopentadienyldichlorozirconium", "Dichlorodi-\u03c0-dicyclopentadienylzirconium", "Dichlorobis(cyclopentadienyl) zirconium", "Dichlorozirconocene", "Dichlorobis(\u03c0-cyclopentadienyl)zirconium", "Bis(cyclopentadienyl)zirconium dichloride", "Dichlorobis(\u03b75-cyclopentadienyl)zirconium", "Bis(cyclopentadienyl)dichlorozirconium", "Bis(\u03b75-cyclopentadienyl)zirconium dichloride", "Dichloro(cyclopentadienyl)zirconium", "Dicyclopentadienylzirconium dichloride", "Eurecen 5034", "Bis(cyclopentadienyl)zirconium(IV) dichloride", "Bis(\u03b75-cyclopentadienyl)dichlorozirconium", "NSC 93930", "dichlorobis(\u03b75-2,4-cyclopentadien-1-yl)zirconium", "Zirconocene dichloride", "Cp2ZrCl2"], "SMILES": "[Cl-][Zr+4]12345678([Cl-])([CH]=9[CH]1=[CH]2[CH-]3[CH]49)[CH]=%10[CH]5=[CH]6[CH-]7[CH]8%10", "physical_data": {"Molecular Weight": "", "Molecular Formula": "C10H10Cl2Zr", "Boiling Point": "242-245 \u00b0C", "Melting Point": "242-243 \u00b0C"}}