{"cas_no": "129101-54-8", "cn_name": "\u9152\u77f3\u9178\u5361\u5df4\u62c9\u6c40", "en_name": ["Rivastigmine tartrate", "Carbamic acid, N-ethyl-N-methyl-, 3-[(1S)-1-(dimethylamino)ethyl]phenyl ester, (2R,3R)-2,3-dihydroxybutanedioate (1:1)", "Carbamic acid, ethylmethyl-, 3-[1-(dimethylamino)ethyl]phenyl ester, (S)-, [R-(R*,R*)]-2,3-dihydroxybutanedioate (1:1)", "Carbamic acid, ethylmethyl-, 3-[(1S)-1-(dimethylamino)ethyl]phenyl ester, (2R,3R)-2,3-dihydroxybutanedioate (1:1)", "SDZ-ENA 713", "ENA 713", "Rivastigmine hydrogentartrate", "Rivastigmine tartrate", "rivastigmine bitartrate"], "SMILES": "C(C(C(O)=O)O)(C(O)=O)O.O(C(N(CC)C)=O)C1=CC(C(N(C)C)C)=CC=C1", "physical_data": {"Molecular Weight": "", "Molecular Formula": "C14H22N2O2.C4H6O6", "Melting Point": "123-124 \u00b0C"}}