{"cas_no": "129332-30-5", "cn_name": "\u8d39\u8010\u529b", "en_name": ["3-[3-(4-Fluorophenyl)-1-(1-methylethyl)-1H-indol-2-yl]-2-propenal", "2-Propenal, 3-[3-(4-fluorophenyl)-1-(1-methylethyl)-1H-indol-2-yl]-", "3-[3-(4-Fluorophenyl)-1-(1-methylethyl)-1H-indol-2-yl]-2-propenal"], "SMILES": "C(=CC=O)C1=C(C=2C(N1C(C)C)=CC=CC2)C3=CC=C(F)C=C3", "physical_data": {"Molecular Weight": "307.36", "Molecular Formula": "C20H18FNO", "Melting Point": "122-124 \u00b0C"}}