{"cas_no": "129318-43-0", "cn_name": "\u963f\u4f26\u81a6\u9178\u94a0", "en_name": ["Alendronate sodium", "Phosphonic acid, P,P\u2032-(4-amino-1-hydroxybutylidene)bis-, sodium salt (1:1)", "Phosphonic acid, (4-amino-1-hydroxybutylidene)bis-, monosodium salt", "MK 217", "Alendronate sodium", "Monosodium alendronate", "Fosamax", "Indrol", "Alend", "NeoBon", "Mavil", "Eucalen", "Osteovan", "Fosalan", "Bifosa", "4-Amino-1-hydroxybutylidene-1,1-bisphosphonic acid monosodium salt", "Alendronic acid monosodium salt", "4-Amino-1-hydroxy-1,1-butanediphosphonic acid monosodium salt", "Bonalon", "Onclast", "Fosamac", "Alenmax", "Sodium alendronate", "Monosodium (4-amino-1-hydroxybutane-1,1-diyl)bisphosphonate", "MeSH ID: D019386"], "SMILES": "C(P(=O)(O)O)(P(=O)(O)O)(CCCN)O.[Na]", "physical_data": {"Molecular Weight": "", "Molecular Formula": "C4H13NO7P2.Na", "Melting Point": "119 \u00b0C"}}