{"cas_no": "1293-87-4", "cn_name": "1,1'-\u4e8c\u8302\u94c1\u7532\u9178", "en_name": ["1,1\u2032-Ferrocenedicarboxylic acid", "Ferrocene, 1,1\u2032-dicarboxy-", "1,1\u2032-Ferrocenedicarboxylic acid", "Cyclopentadienecarboxylic acid, iron deriv.", "Cyclopentadienecarboxylic acid, Fe deriv.", "1,1\u2032-Dicarboxyferrocene", "1,1\u2032-Biscarboxylferrocene", "1,1\u2032-Bis(carboxy)ferrocene", "Ferrocenedicarboxylic acid"], "SMILES": "C(O)(=O)[C-]12[Fe+2]3456789([C-]%10(C(O)=O)[CH]3=[CH]4[CH]5=[CH]6%10)[CH]1=[CH]7[CH]8=[CH]92", "physical_data": {"Molecular Weight": "", "Molecular Formula": "C12H10FeO4", "Melting Point": "&gt;300 \u00b0C (decomp)"}}