{"cas_no": "129322-83-4", "cn_name": "2',4',5'-\u4e09\u6c1f\u82ef\u4e59\u916e", "en_name": ["1-(2,4,5-Trifluorophenyl)ethanone", "Ethanone, 1-(2,4,5-trifluorophenyl)-", "1-(2,4,5-Trifluorophenyl)ethanone", "2,4,5-Trifluoroacetophenone", "2\u2032,4\u2032,5\u2032-Trifluoroacetophenone", "1-(2,4,5-Trifluorophenyl)ethan-1-one"], "SMILES": "C(C)(=O)C1=C(F)C=C(F)C(F)=C1", "physical_data": {"Molecular Weight": "174.12", "Molecular Formula": "C8H5F3O", "Boiling Point": "63-64 \u00b0C @ Press: 7.5 Torr"}}