{"cas_no": "129432-25-3", "cn_name": "2,6-\u4e8c\u6c2f-4-\u7532\u57fa-3-\u6c28\u57fa\u5421\u5576", "en_name": ["2,6-Dichloro-4-methyl-3-pyridinamine", "3-Pyridinamine, 2,6-dichloro-4-methyl-", "2,6-Dichloro-4-methyl-3-pyridinamine", "3-Amino-2,6-dichloro-4-methylpyridine", "Dapic", "2,6-Dichloro-4-methyl-pyridin-3-ylamine", "2,6-Dichloro-3-amino-4-methylpyridine"], "SMILES": "NC=1C(C)=CC(Cl)=NC1Cl", "physical_data": {"Molecular Weight": "177.03", "Molecular Formula": "C6H6Cl2N2", "Melting Point": "83.5-85.5 \u00b0C"}}