{"cas_no": "129453-61-8", "cn_name": "\u6c1f\u7ef4\u53f8\u7fa4", "en_name": ["Fulvestrant", "Estra-1,3,5(10)-triene-3,17-diol, 7-[9-[(4,4,5,5,5-pentafluoropentyl)sulfinyl]nonyl]-, (7\u03b1,17\u03b2)-", "(7\u03b1,17\u03b2)-7-[9-[(4,4,5,5,5-Pentafluoropentyl)sulfinyl]nonyl]estra-1,3,5(10)-triene-3,17-diol", "ICI 182780", "ZD 182780", "Fulvestrant", "ZM 182780", "Faslodex", "ZD 9238", "ICI 182-780"], "SMILES": "C(CCCCCCCCS(CCCC(C(F)(F)F)(F)F)=O)C1C2C(C=3C(C1)=CC(O)=CC3)CCC4(C)C2CCC4O", "physical_data": {"Molecular Weight": "606.77", "Molecular Formula": "C32H47F5O3S", "Melting Point": "104-112 \u00b0C"}}