{"cas_no": "1294481-82-5", "cn_name": "9-[(2R)-3,5-\u53cc-O-(4-\u6c2f\u82ef\u7532\u9170\u57fa)-2-\u8131\u6c27-2-\u6c1f-2-\u7532\u57fa-BETA-D-\u8d64\u5f0f\u4e94\u544b\u5583\u7cd6\u57fa]-6-\u6c2f-9H-\u560c\u5464-2-\u80fa", "en_name": ["9-[(2R)-3,5-Bis-O-(4-chlorobenzoyl)-2-deoxy-2-fluoro-2-methyl-\u03b2-D-erythro-pentofuranosyl]-6-chloro-9H-purin-2-amine", "9H-Purin-2-amine, 9-[(2R)-3,5-bis-O-(4-chlorobenzoyl)-2-deoxy-2-fluoro-2-methyl-\u03b2-D-erythro-pentofuranosyl]-6-chloro-", "9-[(2R)-3,5-Bis-O-(4-chlorobenzoyl)-2-deoxy-2-fluoro-2-methyl-\u03b2-D-erythro-pentofuranosyl]-6-chloro-9H-purin-2-amine"], "SMILES": "CC1(F)C(N2C=3C(N=C2)=C(Cl)N=C(N)N3)OC(COC(=O)C4=CC=C(Cl)C=C4)C1OC(=O)C5=CC=C(Cl)C=C5", "physical_data": {"Molecular Weight": "594.81", "Molecular Formula": "C25H19Cl3FN5O5", "Melting Point": "171-176 \u00b0C"}}