{"cas_no": "1295-20-1", "cn_name": "\u4e09(\u73af\u620a\u4e8c\u70ef)\u5316\u9571", "en_name": ["Tris(\u03b75-2,4-cyclopentadien-1-yl)ytterbium", "Ytterbium, tris(\u03b75-2,4-cyclopentadien-1-yl)-", "Ytterbium, tri-\u03c0-cyclopentadienyl-", "Ytterbium, tricyclopentadienyl-", "Tris(\u03b75-2,4-cyclopentadien-1-yl)ytterbium", "Tricyclopentadienylytterbium", "Tris(cyclopentadienyl)ytterbium", "Tris(\u03b75-cyclopentadienyl)ytterbium", "Tris(\u03b75-cyclopentadienyl)ytterbium(III)"], "SMILES": "[Yb+3]123456789%10%11%12([CH]=%13[CH-]1[CH]2=[CH]3[CH]4%13)([CH]=%14[CH-]5[CH]6=[CH]7[CH]8%14)[CH]=%15[CH-]9[CH]%10=[CH]%11[CH]%12%15", "physical_data": {"Molecular Weight": "", "Molecular Formula": "C15H15Yb", "Melting Point": "267-270 \u00b0C"}}