{"cas_no": "1295-35-8", "cn_name": "\u53cc-\uff081\uff0c5-\u73af\u8f9b\u4e8c\u70ef\uff09\u954d", "en_name": ["Bis(1,5-cyclooctadiene)nickel", "Nickel, bis[(1,2,5,6-\u03b7)-1,5-cyclooctadiene]-", "Nickel, bis(1,5-cyclooctadiene)-", "1,5-Cyclooctadiene, nickel complex", "Bis[(1,2,5,6-\u03b7)-1,5-cyclooctadiene]nickel", "Bis(1,5-cyclooctadiene)nickel", "Bis(cyclooctadiene)nickel", "Bis(1,5-cyclooctadiene)nickel(0)", "Nickel dicyclooctadiene", "Bis-1,5-cyclooctadienylnickel", "Dicyclooctadiene nickel", "Di(1,5-cyclooctadiene)nickel", "Bis(cyclooctadiene)nickel(0)", "Bis(\u03b74-1,5-cyclooctadiene)nickel", "Bis(cyclooctadienyl)nickel", "Nickel bis(cyclooctadiene)", "Nickel(COD)2"], "SMILES": "[Ni]123456([CH]7=[CH]1CC[CH]2=[CH]3CC7)[CH]8=[CH]4CC[CH]5=[CH]6CC8", "physical_data": {"Molecular Weight": "", "Molecular Formula": "C16H24Ni", "Melting Point": "50-90 \u00b0C"}}