{"cas_no": "129630-17-7", "cn_name": "\u9738\u8349\u7075\u5355\u6c34\u5408\u7269(\u81ea\u7531\u9178)", "en_name": ["Pyraflufen", "Acetic acid, 2-[2-chloro-5-[4-chloro-5-(difluoromethoxy)-1-methyl-1H-pyrazol-3-yl]-4-fluorophenoxy]-", "Acetic acid, [2-chloro-5-[4-chloro-5-(difluoromethoxy)-1-methyl-1H-pyrazol-3-yl]-4-fluorophenoxy]-", "2-[2-Chloro-5-[4-chloro-5-(difluoromethoxy)-1-methyl-1H-pyrazol-3-yl]-4-fluorophenoxy]acetic acid", "Pyraflufen", "E 1", "2-Chloro-5-(4-chloro-5-difluoromethoxy-1-methylpyrazol-3-yl)-4-fluorophenoxyacetic acid"], "SMILES": "ClC=1C(=NN(C)C1OC(F)F)C2=CC(OCC(O)=O)=C(Cl)C=C2F", "physical_data": {"Molecular Weight": "385.12", "Molecular Formula": "C13H9Cl2F3N2O4", "Melting Point": "126.5 \u00b0C"}}