{"cas_no": "129618-40-2", "cn_name": "\u5948\u97e6\u62c9\u5e73", "en_name": ["Nevirapine", "6H-Dipyrido[3,2-b:2\u2032,3\u2032-e][1,4]diazepin-6-one, 11-cyclopropyl-5,11-dihydro-4-methyl-", "11-Cyclopropyl-5,11-dihydro-4-methyl-6H-dipyrido[3,2-b:2\u2032,3\u2032-e][1,4]diazepin-6-one", "BI-RG 587", "Nevirapine", "Nevarapine", "Viramune", "NSC 641530", "NVP", "11-Cyclopropyl-4-methylDipyrido[3,2-b:2\u2032,3\u2032-e][1,4]diazepin-6-one", "MeSH ID: D019829"], "SMILES": "CC1=C2C(N(C=3C(C(=O)N2)=CC=CN3)C4CC4)=NC=C1", "physical_data": {"Molecular Weight": "266.30", "Molecular Formula": "C15H14N4O", "Melting Point": "247-249 \u00b0C"}}