{"cas_no": "129611-32-1", "cn_name": "2-\u6eb4-3-\u7f9f\u57fa-6-\u7898\u5421\u5576", "en_name": ["2-Bromo-6-iodo-3-pyridinol", "3-Pyridinol, 2-bromo-6-iodo-", "2-Bromo-6-iodo-3-pyridinol", "2-Bromo-3-hydroxy-6-iodopyridine", "2-Bromo-6-iodopyridin-3-ol"], "SMILES": "BrC1=C(O)C=CC(I)=N1", "physical_data": {"Molecular Weight": "299.89", "Molecular Formula": "C5H3BrINO", "Melting Point": "141-142 \u00b0C"}}