{"cas_no": "129604-27-9", "cn_name": "3-\u6c2f-4-\u4e09\u6c1f\u7532\u6c27\u57fa\u82ef\u4e59\u916e", "en_name": ["1-[3-Chloro-4-(trifluoromethoxy)phenyl]ethanone", "Ethanone, 1-[3-chloro-4-(trifluoromethoxy)phenyl]-", "1-[3-Chloro-4-(trifluoromethoxy)phenyl]ethanone", "3-Chloro-4-trifluoromethoxyacetophenone"], "SMILES": "O(C(F)(F)F)C1=C(Cl)C=C(C(C)=O)C=C1", "physical_data": {"Molecular Weight": "238.59", "Molecular Formula": "C9H6ClF3O2", "Boiling Point": "98-99 \u00b0C @ Press: 0.1 Torr"}}