{"cas_no": "1297537-45-1", "cn_name": "5-\u4e59\u9170-1H-\u5421\u5511-3-\u7fa7\u9178", "en_name": ["3-Acetyl-1H-pyrazole-5-carboxylic acid", "1H-Pyrazole-3-carboxylic acid, 5-acetyl-", "5-Acetyl-1H-pyrazole-3-carboxylic acid", "3-Acetyl-1H-pyrazole-5-carboxylic acid"], "SMILES": "C(C)(=O)C1=CC(C(O)=O)=NN1", "physical_data": {"Molecular Weight": "154.12", "Molecular Formula": "C6H6N2O3", "Melting Point": "257-269 \u00b0C (decomp)"}}