{"cas_no": "1297537-37-1", "cn_name": "2-\u6c2f-4-(1H-\u5421\u5511-3-\u57fa)\u82ef\u7532\u8148", "en_name": ["2-Chloro-4-(1H-pyrazol-3-yl)benzonitrile", "Benzonitrile, 2-chloro-4-(1H-pyrazol-3-yl)-", "2-Chloro-4-(1H-pyrazol-3-yl)benzonitrile", "2-Chloro-4-(1H-pyrazol-5-yl)benzonitrile"], "SMILES": "ClC=1C=C(C=CC1C#N)C=2C=CNN2", "physical_data": {"Molecular Weight": "203.63", "Molecular Formula": "C10H6ClN3", "Melting Point": "144.5 \u00b0C"}}