{"cas_no": "129722-34-5", "cn_name": "7-(4-\u6eb4\u4e01\u6c27\u57fa)-3,4-\u4e8c\u6c22-2(1H)-\u55b9\u5549\u916e", "en_name": ["7-(4-Bromobutoxy)-3,4-dihydro-2(1H)-quinolinone", "2(1H)-Quinolinone, 7-(4-bromobutoxy)-3,4-dihydro-", "7-(4-Bromobutoxy)-3,4-dihydro-2(1H)-quinolinone", "7-(4-Bromobutoxy)-3,4-dihydro-2-quinolinone", "Lanzapine", "3,4-Dihydro-7-(4-bromobutoxy)-2(1H)-quinolinone"], "SMILES": "O(CCCCBr)C=1C=C2C(=CC1)CCC(=O)N2", "physical_data": {"Molecular Weight": "298.18", "Molecular Formula": "C13H16BrNO2", "Melting Point": "110.5-111 \u00b0C"}}