{"cas_no": "129722-12-9", "cn_name": "\u963f\u7acb\u54cc\u5511", "en_name": ["Aripiprazole", "2(1H)-Quinolinone, 7-[4-[4-(2,3-dichlorophenyl)-1-piperazinyl]butoxy]-3,4-dihydro-", "7-[4-[4-(2,3-Dichlorophenyl)-1-piperazinyl]butoxy]-3,4-dihydro-2(1H)-quinolinone", "OPC 14597", "Aripiprazole", "OPC 31", "7-[4-[4-(2,3-Dichlorophenyl)-1-piperazinyl]butoxy]-3,4-dihydrocarbostyril", "Abilitat", "Abilify", "Arpizol", "Asprito", "Pripiprazole", "Aripiperazole", "Aripirazole", "Aripiprazol", "Aristab", "Biopiprazole", "AZ 1", "AZ 2", "AZ 3", "AZ 4", "Abilify Maintena"], "SMILES": "O(CCCCN1CCN(CC1)C2=C(Cl)C(Cl)=CC=C2)C=3C=C4C(=CC3)CCC(=O)N4", "physical_data": {"Molecular Weight": "448.39", "Molecular Formula": "C23H27Cl2N3O2", "Melting Point": "109-111 \u00b0C"}}