{"cas_no": "1298-55-1", "cn_name": "\u4e09(\u73af\u620a\u4e8c\u70ef)\u5316\u9490", "en_name": ["Tris(\u03b75-2,4-cyclopentadien-1-yl)samarium", "Samarium, tris(\u03b75-2,4-cyclopentadien-1-yl)-", "Samarium, tri-\u03c0-cyclopentadienyl-", "Samarium, tricyclopentadienyl-", "Tris(\u03b75-2,4-cyclopentadien-1-yl)samarium", "Tri-\u03c0-cyclopentadienylsamarium", "Samarium tricyclopentadienide", "Tris(cyclopentadienyl)samarium", "Tricyclopentadienylsamarium", "Tris(\u03b75-cyclopentadienyl)samarium"], "SMILES": "[Sm+3]123456789%10%11%12([CH]=%13[CH-]1[CH]2=[CH]3[CH]4%13)([CH]=%14[CH-]5[CH]6=[CH]7[CH]8%14)[CH]=%15[CH-]9[CH]%10=[CH]%11[CH]%12%15", "physical_data": {"Molecular Weight": "", "Molecular Formula": "C15H15Sm", "Melting Point": "365 \u00b0C"}}