{"cas_no": "129909-90-6", "cn_name": "\u80fa\u5511\u8349\u916e", "en_name": ["Amicarbazone", "1H-1,2,4-Triazole-1-carboxamide, 4-amino-N-(1,1-dimethylethyl)-4,5-dihydro-3-(1-methylethyl)-5-oxo-", "4-Amino-N-(1,1-dimethylethyl)-4,5-dihydro-3-(1-methylethyl)-5-oxo-1H-1,2,4-triazole-1-carboxamide", "BAY-MKH 3586", "Amicarbazone", "BAY 314666", "Dinamic", "4-Amino-N-tert-butyl-3-isopropyl-5-oxo-4,5-dihydro-1H-1,2,4-triazole-1-carboxamide", "Galago", "Xonerate", "Anzuocaotong"], "SMILES": "C(NC(C)(C)C)(=O)N1N=C(C(C)C)N(N)C1=O", "physical_data": {"Molecular Weight": "241.29", "Molecular Formula": "C10H19N5O2", "Melting Point": "100-105 \u00b0C"}}