{"cas_no": "129940-50-7", "cn_name": "\u4e09\u82ef\u7532\u57fa-(S)-\u7f29\u6c34\u7518\u6cb9\u919a", "en_name": ["(2S)-2-[(Triphenylmethoxy)methyl]oxirane", "Oxirane, 2-[(triphenylmethoxy)methyl]-, (2S)-", "Oxirane, [(triphenylmethoxy)methyl]-, (S)-", "Oxirane, [(triphenylmethoxy)methyl]-, (2S)-", "(2S)-2-[(Triphenylmethoxy)methyl]oxirane", "(S)-O-Tritylglycidol", "Trityl (S)-glycidyl ether", "(S)-(-)-Glycidyl trityl ether", "(S)-Trityloxymethyloxirane", "(S)-2-[(Trityloxy)methyl]oxirane", "(R)-Glycidol trityl ether", "(S)-(-)-Glycidyl triphenylmethyl ether", "(2S)-2-(Trityloxymethyl)oxirane"], "SMILES": "C(OCC1CO1)(C2=CC=CC=C2)(C3=CC=CC=C3)C4=CC=CC=C4", "physical_data": {"Molecular Weight": "316.39", "Molecular Formula": "C22H20O2", "Melting Point": "94-96 \u00b0C"}}