{"cas_no": "1299-86-1", "cn_name": "\u78b3\u5316\u94dd", "en_name": ["Aluminum carbide (Al4C3)", "Aluminum carbide (Al4C3)", "Tetraaluminum tricarbide", "Aluminum carbide", "ALI 03PB", "Aluminum carbide (AlC0.75)"], "SMILES": "", "physical_data": {"Molecular Weight": "", "Molecular Formula": "C3Al4", "Melting Point": "2200 \u00b0C"}}