{"cas_no": "129968-11-2", "cn_name": "2-\u6eb4-5-\u7532\u6c27\u57fa\u82ef\u80fa\u76d0\u9178\u76d0", "en_name": ["Benzenamine, 2-bromo-5-methoxy-, hydrochloride (1:1)", "Benzenamine, 2-bromo-5-methoxy-, hydrochloride (1:1)", "Benzenamine, 2-bromo-5-methoxy-, hydrochloride", "2-Bromo-5-methoxyaniline hydrochloride"], "SMILES": "O(C)C1=CC(N)=C(Br)C=C1.Cl", "physical_data": {"Molecular Weight": "", "Molecular Formula": "C7H8BrNO.ClH", "Melting Point": "186 \u00b0C"}}