{"cas_no": "130-49-4", "cn_name": "\u817a\u82f7-2'-\u4e00\u78f7\u9178", "en_name": ["Adenosine 2\u2032-phosphate", "2\u2032-Adenylic acid", "2\u2032-AMP", "Adenosine 2\u2032-phosphate", "Adenosine 2\u2032-monophosphate", "Adenosine 2\u2032-(dihydrogen phosphate)"], "SMILES": "O(P(=O)(O)O)C1C(OC(CO)C1O)N2C=3C(N=C2)=C(N)N=CN3", "physical_data": {"Molecular Weight": "347.22", "Molecular Formula": "C10H14N5O7P", "Melting Point": "183 \u00b0C"}}