{"cas_no": "130-00-7", "cn_name": "1,8-\u8418\u5185\u9170\u4e9a\u80fa", "en_name": ["Benz[cd]indol-2(1H)-one", "Benz[cd]indol-2(1H)-one", "Naphthostyril", "2(1H)-peri-Naphthazolone", "2(1H)-Perinaphthazolone", "1-Naphthalenecarboxylic acid, 8-amino-, lactam", "Naphtholactam", "1,8-Naphtholactam", "NSC 25094", "Benz[c,d]indole-2(1H)-one", "1H-Benzo[cd]indol-2-one"], "SMILES": "O=C1C2=C3C(N1)=CC=CC3=CC=C2", "physical_data": {"Molecular Weight": "169.18", "Molecular Formula": "C11H7NO", "Melting Point": "181 \u00b0C"}}