{"cas_no": "130-95-0", "cn_name": "\u594e\u5b81", "en_name": ["Quinine", "Cinchonan-9-ol, 6\u2032-methoxy-, (8\u03b1,9R)-", "Quinine", "(8\u03b1,9R)-6\u2032-Methoxycinchonan-9-ol", "6\u2032-Methoxycinchonidine", "(-)-Quinine", "(8S,9R)-Quinine", "(R)-(-)-Quinine", "NSC 192949", "WR297608", "Qualaquin", "Mosgard", "Quinlup", "Quine 9", "Cinkona", "Quinex", "Quinlex", "Rezquin", "QSM", "SW 85833", "(R)-(6-Methoxy-4-quinolyl)[(2S)-5-vinylquinuclidin-2-yl]methanol", "MeSH ID: D011803"], "SMILES": "C(O)(C=1C2=C(C=CC(OC)=C2)N=CC1)C3N4CC(C=C)C(C3)CC4", "physical_data": {"Molecular Weight": "324.42", "Molecular Formula": "C20H24N2O2", "Melting Point": "177 \u00b0C (decomp)"}}