{"cas_no": "130-01-8", "cn_name": "\u5343\u91cc\u5149\u5b81", "en_name": ["(-)-Senecionine", "[1,6]Dioxacyclododecino[2,3,4-gh]pyrrolizine-2,7-dione, 3-ethylidene-3,4,5,6,9,11,13,14,14a,14b-decahydro-6-hydroxy-5,6-dimethyl-, (3Z,5R,6R,14aR,14bR)-", "Senecionine", "Senecionan-11,16-dione, 12-hydroxy-", "(3Z,5R,6R,14aR,14bR)-3-Ethylidene-3,4,5,6,9,11,13,14,14a,14b-decahydro-6-hydroxy-5,6-dimethyl[1,6]dioxacyclododecino[2,3,4-gh]pyrrolizine-2,7-dione", "Aureine", "Senecionin", "(-)-Senecionine", "[1,6]Dioxacyclododecino[2,3,4-gh]pyrrolizine-2,7-dione, 3-ethylidene-3,4,5,6,9,11,13,14,14a,14b-decahydro-6-hydroxy-5,6-dimethyl-, [5R-(3Z,5R*,6R*,14aR*,14bR*)]-", "NSC 89935"], "SMILES": "O=C1OC2C3N(CC2)CC=C3COC(=O)C(C)(O)C(C)CC1=CC", "physical_data": {"Molecular Weight": "335.39", "Molecular Formula": "C18H25NO5", "Melting Point": "236 \u00b0C", "Density": "1.266 g/cm\u00b3"}}