{"cas_no": "130-86-9", "cn_name": "\u539f\u963f\u7247\u78b1", "en_name": ["Protopine", "Bis[1,3]benzodioxolo[4,5-c:5\u2032,6\u2032-g]azecin-13(5H)-one, 4,6,7,14-tetrahydro-5-methyl-", "Protopine", "7,13a-Secoberbin-13a-one, 7-methyl-2,3:9,10-bis(methylenedioxy)-", "4,6,7,14-Tetrahydro-5-methylbis[1,3]benzodioxolo[4,5-c:5\u2032,6\u2032-g]azecin-13(5H)-one", "Biflorine", "Fumarine", "Macleyine", "Corydinine", "Protopin", "Fumarin"], "SMILES": "CN1CC=2C3=C(C=CC2CC(=O)C=4C(CC1)=CC5=C(C4)OCO5)OCO3", "physical_data": {"Molecular Weight": "353.37", "Molecular Formula": "C20H19NO5", "Melting Point": "208 \u00b0C", "Density": "1.399 g/cm\u00b3"}}