{"cas_no": "130-22-3", "cn_name": "\u831c\u7d20\u7ea2 S", "en_name": ["Alizarin Red S", "2-Anthracenesulfonic acid, 9,10-dihydro-3,4-dihydroxy-9,10-dioxo-, sodium salt (1:1)", "2-Anthracenesulfonic acid, 9,10-dihydro-3,4-dihydroxy-9,10-dioxo-, monosodium salt", "2-Anthraquinonesulfonic acid, 3,4-dihydroxy-, sodium salt", "C.I. 58005", "Ahcoquinone Red S", "Alizarin S", "Alizarin Carmine", "Alizarine Carmine", "Alizarine Carmine Indicator", "Alizarine S Extra Conc. A Export", "Alizarine S Extra Pure A", "Alizarine Red AS", "Alizarine Red W", "Alizarine Red S", "Alizarine Red for Wool", "Alizarine Red Indicator", "Alizarine Red SW", "Alizarine Red SZ", "Alizarine Red WA", "Alizarine Red WS", "Alizarinsulfonate", "Calcochrome Alizarine Red SC", "Carnelio Rubine Lake", "C.I. Mordant Red 3", "Diamond Red W", "Ext D and C Red No. 7", "Fenakrom Red W", "Mitsui Alizarine Red S", "Oxanal Fast Red SW", "Alizarin Red S", "Sodium 3,4-dihydroxyanthraquinone-2-sulfonate", "Sodium alizarin-3-sulfonate", "Alizarine S", "Sodium alizarinesulfonate", "Alizarine Red A", "Chrome Red Alizarine", "Acid Red Alizarine", "Alizarine Red S sodium salt", "Sodium alizarinsulfonate", "Mordant Red 3", "Acid Mordant Red SW", "Alizarin Red C", "Mordant Scarlet S 80", "Acid Mordant Red S 80", "Mordant Red S 80"], "SMILES": "O=C1C=2C(C(=O)C=3C1=CC=CC3)=C(O)C(O)=C(S(=O)(=O)O)C2.[Na]", "physical_data": {"Molecular Weight": "", "Molecular Formula": "C14H8O7S.Na", "Melting Point": "283 \u00b0C"}}