{"cas_no": "130-15-4", "cn_name": "1,4-\u8418\u918c", "en_name": ["1,4-Naphthoquinone", "1,4-Naphthalenedione", "1,4-Naphthoquinone", "1,4-Dihydro-1,4-diketonaphthalene", "\u03b1-Naphthoquinone", "1,4-Naphthylquinone", "p-Naphthoquinone", "NSC 113960", "NSC 9583", "Quino Power NQ", "Quino Power NQI", "1,4-Dihydronaphthalene-1,4-dione"], "SMILES": "O=C1C=2C(C(=O)C=C1)=CC=CC2", "physical_data": {"Molecular Weight": "158.15", "Molecular Formula": "C10H6O2", "Boiling Point": "123 \u00b0C", "Melting Point": "126 \u00b0C", "Density": "1.422 g/cm\u00b3"}}