{"cas_no": "130-85-8", "cn_name": "\u5e15\u83ab\u9178", "en_name": ["Pamoic acid", "2-Naphthalenecarboxylic acid, 4,4\u2032-methylenebis[3-hydroxy-", "2-Naphthoic acid, 4,4\u2032-methylenebis[3-hydroxy-", "4,4\u2032-Methylenebis[3-hydroxy-2-naphthalenecarboxylic acid]", "2,2\u2032-Dihydroxy-1,1\u2032-dinaphthylmethane-3,3\u2032-dicarboxylic acid", "Embonic acid", "Pamoic acid", "Bis(2-hydroxy-3-carboxy-1-naphthyl)methane", "4,4\u2032-Methylenebis[3-hydroxy-2-naphthoic acid]", "NSC 30188", "NSC 40132", "KG 122", "4,4\u2032-Methylenebis(3-hydroxy-2-naphthalenecarboxylic acid)", "4-[(3-Carboxy-2-hydroxynaphthalen-1-yl)methyl]-3-hydroxynaphthalene-2-carboxylic acid"], "SMILES": "C(C=1C2=C(C=C(C(O)=O)C1O)C=CC=C2)C=3C4=C(C=C(C(O)=O)C3O)C=CC=C4", "physical_data": {"Molecular Weight": "388.37", "Molecular Formula": "C23H16O6", "Melting Point": "315 \u00b0C"}}