{"cas_no": "130-61-0", "cn_name": "\u76d0\u9178\u786b\u5229\u8fbe\u55ea", "en_name": ["Thioridazine hydrochloride", "10H-Phenothiazine, 10-[2-(1-methyl-2-piperidinyl)ethyl]-2-(methylthio)-, hydrochloride (1:1)", "Phenothiazine, 10-[2-(1-methyl-2-piperidyl)ethyl]-2-(methylthio)-, monohydrochloride", "10H-Phenothiazine, 10-[2-(1-methyl-2-piperidinyl)ethyl]-2-(methylthio)-, monohydrochloride", "Phenothiazine, 10-[2-(1-methyl-2-piperidyl)ethyl]-2-(methylthio)-, hydrochloride", "Mellaril hydrochloride", "2-Methylmercapto-10-[2-(N-methyl-2-piperidyl)ethyl]phenothiazine hydrochloride", "10-[3-(1-Methyl-2-piperidyl)ethyl]-2-(methylthio)phenothiazine hydrochloride", "Thioridazine hydrochloride", "Melleril", "Mellaril", "Melleril (tablet)", "Orsanil", "Stalleril", "Aldazine", "Ridazin", "Novoridazine", "Melleretten", "Mallorol", "NSC 186060", "Thioril", "Thiozine", "10-[2-(1-Methylpiperidin-2-yl)ethyl]-2-(methylsulfanyl)-10H-phenothiazine hydrochloride"], "SMILES": "C(CC1N(C)CCCC1)N2C=3C(SC=4C2=CC=CC4)=CC=C(SC)C3.Cl", "physical_data": {"Molecular Weight": "", "Molecular Formula": "C21H26N2S2.ClH", "Melting Point": "158-160 \u00b0C"}}