{"cas_no": "130-14-3", "cn_name": "1-\u8418\u78fa\u9178\u94a0\u76d0", "en_name": ["Sodium 1-naphthalenesulfonate", "1-Naphthalenesulfonic acid, sodium salt (1:1)", "1-Naphthalenesulfonic acid, sodium salt", "Alpha salt", "\u03b1-Naphthalenesulfonic acid sodium salt", "Sodium \u03b1-naphthalenesulfonate", "Sodium \u03b1-naphthalenesulfonic acid", "Sodium \u03b1-naphthylsulfonate", "Sodium 1-naphthalenesulfonate", "Sodium 1-naphthylsulfonate"], "SMILES": "S(=O)(=O)(O)C=1C2=C(C=CC1)C=CC=C2.[Na]", "physical_data": {"Molecular Weight": "", "Molecular Formula": "C10H8O3S.Na", "Melting Point": "&lt;300 \u00b0C"}}