{"cas_no": "130-24-5", "cn_name": "\u7ef4\u751f\u7d20K5", "en_name": ["4-Amino-2-methyl-1-naphthol hydrochloride", "1-Naphthalenol, 4-amino-2-methyl-, hydrochloride (1:1)", "1-Naphthol, 4-amino-2-methyl-, hydrochloride", "1-Naphthalenol, 4-amino-2-methyl-, hydrochloride", "4-Amino-2-methylnaphthol hydrochloride", "Synkamin hydrochloride", "2-Methyl-4-amino-1-naphthol hydrochloride", "4-Amino-2-methyl-1-naphthol hydrochloride", "Kayvisyn"], "SMILES": "OC=1C2=C(C(N)=CC1C)C=CC=C2.Cl", "physical_data": {"Molecular Weight": "", "Molecular Formula": "C11H11NO.ClH", "Melting Point": "280 \u00b0C (decomp)"}}