{"cas_no": "130-80-3", "cn_name": "\u4e19\u9178\u5df1\u70ef\u96cc\u915a", "en_name": ["Diethylstilbestrol dipropionate", "Phenol, 4,4\u2032-[(1E)-1,2-diethyl-1,2-ethenediyl]bis-, 1,1\u2032-propanoate", "4,4\u2032-Stilbenediol, \u03b1,\u03b1\u2032-diethyl-, dipropionate, (E)-", "Phenol, 4,4\u2032-(1,2-diethyl-1,2-ethenediyl)bis-, dipropanoate, (E)-", "Phenol, 4,4\u2032-[(1E)-1,2-diethyl-1,2-ethenediyl]bis-, dipropanoate", "Clinestrol", "Cyren B", "Dibestil", "\u03b1,\u03b1\u2032-Diethyl-4,4\u2032-stilbenediol dipropionate", "Diethylstilbestrol dipropionate", "p,p\u2032-Dipropionoxy-trans-\u03b1,\u03b2-diethylstilbene", "Estilben", "Estilbin", "Estroben DF", "Estrobene DP", "Euvestin", "Neo-Oestranol II", "New-Oestranol 11", "Orestol", "Pabestrol D", "Stilbestrol dipropionate", "Stilbestrol propionate", "Stilbestronate", "Stilboestrol DP", "Stilronate", "Syntestrin", "Syntestrine", "Willestrol", "Diethylstilbestrol propionate", "\u03b1,\u03b1\u2032-Diethyl-4,4\u2032-stilbenediol dipropionyl ester", "Dihydroxydiethylstilbene dipropionate", "Estrogenin", "Estrostilben", "Sinciclan", "Gynolett", "Horfemine", "Stilbofax", "Synoestron", "Oestrogynaedron", "Sinestrol", "Synestrol", "Synoestrol", "Tauripar B", "Vetoestrol"], "SMILES": "C(=C(CC)C1=CC=C(OC(CC)=O)C=C1)(CC)C2=CC=C(OC(CC)=O)C=C2", "physical_data": {"Molecular Weight": "380.48", "Molecular Formula": "C24H28O4", "Melting Point": "104 \u00b0C"}}