{"cas_no": "130-03-0", "cn_name": "1-\u82ef\u5e76\u567b\u5429-3(2H)-\u916e", "en_name": ["Benzo[b]thiophen-3(2H)-one", "Benzo[b]thiophen-3(2H)-one", "Thioindoxyl", "Thiaindoxyl", "Benzo[b]thiophen-3-one", "3-Oxo-2H-benzothiophene", "Benzothiophen-3(2H)-one", "1-Thiaindan-3-one", "3-Oxo-2,3-dihydrobenzo[b]thiophene", "Thia-3-coumaranone", "2,3-Dihydrobenzothiophen-3-one", "2,3-Dihydro-1-benzothiophen-3-one", "1-Benzothiophen-3-one"], "SMILES": "O=C1C=2C(=CC=CC2)SC1", "physical_data": {"Molecular Weight": "150.20", "Molecular Formula": "C8H6OS", "Boiling Point": "129-130 \u00b0C @ Press: 3 Torr", "Melting Point": "63-64 \u00b0C"}}