{"cas_no": "130-16-5", "cn_name": "5-\u6c2f-8-\u7f9f\u57fa\u55b9\u5549", "en_name": ["5-Chloro-8-hydroxyquinoline", "8-Quinolinol, 5-chloro-", "5-Chloro-8-quinolinol", "5-Chloro-8-hydroxyquinoline", "Dermofungin", "Dermofongin", "5-Chloro-8-oxyquinoline", "Cloxyquin", "5-Chlorooxine", "8-Hydroxy-5-chloroquinoline", "Cloxiquine", "NSC 35083", "NSC 53182", "NSC 74943", "5-Chloro-quinoline-8-ol"], "SMILES": "ClC=1C2=C(C(O)=CC1)N=CC=C2", "physical_data": {"Molecular Weight": "179.60", "Molecular Formula": "C9H6ClNO", "Melting Point": "130 \u00b0C"}}