{"cas_no": "130-89-2", "cn_name": "\u91d1\u9e21\u7eb3\u78b1\u5355\u76d0\u9178\u76d0", "en_name": ["Quinine, monohydrochloride", "Cinchonan-9-ol, 6\u2032-methoxy-, hydrochloride (1:1), (8\u03b1,9R)-", "Quinine, monohydrochloride", "Cinchonan-9-ol, 6\u2032-methoxy-, monohydrochloride, (8\u03b1,9R)-", "Quinine hydrochloride", "Quinine muriate", "Chinimetten", "Chinine hydrochloride"], "SMILES": "C(O)(C=1C2=C(C=CC(OC)=C2)N=CC1)C3N4CC(C=C)C(C3)CC4.Cl", "physical_data": {"Molecular Weight": "", "Molecular Formula": "C20H24N2O2.ClH", "Melting Point": "159 \u00b0C"}}