{"cas_no": "130-17-6", "cn_name": "2-(4-\u6c28\u57fa\u82ef\u57fa)-6-\u7532\u57fa\u82ef\u5e76\u567b\u5511-7-\u78fa\u9178", "en_name": ["2-(4-Aminophenyl)-6-methyl-7-benzothiazolesulfonic acid", "7-Benzothiazolesulfonic acid, 2-(4-aminophenyl)-6-methyl-", "7-Benzothiazolesulfonic acid, 2-(p-aminophenyl)-6-methyl-", "2-(4-Aminophenyl)-6-methyl-7-benzothiazolesulfonic acid", "2-(p-Aminophenyl)-6-methyl-7-benzothiazolesulfonic acid", "Dehydrothio-p-toluidinesulfonic acid", "p-(6-Methyl-7-sulfobenzothiazole)aniline", "2-(4\u2032-Aminophenyl)-6-methylbenzothiazole-7-sulfonic acid", "NSC 203387", "NSC 44566", "2-(4-Aminophenyl)-6-methylbenzothiazolesulfonic acid", "2-(4-Aminophenyl)-6-methylbenzothiazole-7-sulphonic acid", "2-(4-Aminophenyl)-6-methyl-1,3-benzothiazole-7-sulfonic acid"], "SMILES": "S(=O)(=O)(O)C1=C2C(N=C(S2)C3=CC=C(N)C=C3)=CC=C1C", "physical_data": {"Molecular Weight": "320.39", "Molecular Formula": "C14H12N2O3S2", "Melting Point": "319 \u00b0C"}}