{"cas_no": "130-26-7", "cn_name": "\u6c2f\u7898\u7f9f\u55b9", "en_name": ["Clioquinol", "8-Quinolinol, 5-chloro-7-iodo-", "5-Chloro-7-iodo-8-quinolinol", "Alchloquin", "Amebil", "Amoenol", "Bactol", "5-Chloro-8-hydroxy-7-iodoquinoline", "5-Chloro-7-iodo-8-hydroxyquinoline", "Chloroiodoquine", "Clioquinol", "Eczecidin", "Emaform", "Enteroquinol", "Entero-Vioform", "Enterozol", "Entrokin", "Iodenterol", "Iodochlorhydroxyquin", "Iodochlorhydroxyquinol", "7-Iodo-5-chloroxine", "Iodoenterol", "Nioform", "Quinambicide", "Rometin", "Vioform", "Iodochloroxyquinoline", "Chinoform", "Cifoform", "5-Chloro-7-iodo-8-oxyquinoline", "7-Iodo-5-chloro-8-hydroxyquinoline", "Quinoform", "Dioquinol", "8-Hydroxy-7-iodo-5-chloroquinoline", "Chloroiodoquin", "Barquinol", "Budoform", "Cliquinol", "Hi-Enterol", "Iodochloroxine", "Iodochloroquine", "Chlorojodochin", "Iodoxyquinoline", "Lekosept", "Enteroseptol", "Quinoform (antiseptic)", "Quiniodochlor", "Dizenterol", "Rheaform", "Vioformio", "Quin-O-Creme", "Hi-Eneterol", "Rheaform Boluses", "Cort-Quin", "NSC 3531", "NSC 74938", "Quinidochlor", "MeSH ID: D007464"], "SMILES": "OC=1C2=C(C(Cl)=CC1I)C=CC=N2", "physical_data": {"Molecular Weight": "305.50", "Molecular Formula": "C9H5ClINO", "Melting Point": "178-179 \u00b0C"}}