{"cas_no": "13001-28-0", "cn_name": "1-\u6c2f-4-(2-\u6c2f\u4e59\u6c27\u57fa)\u82ef", "en_name": ["1-Chloro-4-(2-chloroethoxy)benzene", "Benzene, 1-chloro-4-(2-chloroethoxy)-", "Phenetole, p,\u03b2-dichloro-", "1-Chloro-4-(2-chloroethoxy)benzene", "2-Chloroethyl 4-chlorophenyl ether", "4-(2-Chloroethoxy)chlorobenzene", "2-(4-Chlorophenoxy)ethyl chloride"], "SMILES": "O(CCCl)C1=CC=C(Cl)C=C1", "physical_data": {"Molecular Weight": "191.05", "Molecular Formula": "C8H8Cl2O", "Boiling Point": "184-186 \u00b0C @ Press: 92 Torr", "Melting Point": "39 \u00b0C"}}