{"cas_no": "13001-38-2", "cn_name": "1-\u90bb\u6c30\u82ef\u4e59\u70ef\u57fa-4-\u5bf9\u6c30\u82ef\u4e59\u70ef\u57fa\u82ef", "en_name": ["2-[2-[4-[2-(4-Cyanophenyl)ethenyl]phenyl]ethenyl]benzonitrile", "Benzonitrile, 2-[2-[4-[2-(4-cyanophenyl)ethenyl]phenyl]ethenyl]-", "Benzonitrile, 2,4\u2032-(p-phenylenedivinylene)di-", "2-[2-[4-[2-(4-Cyanophenyl)ethenyl]phenyl]ethenyl]benzonitrile", "Fluorescent Brightener ER-II", "1-(2-Cyanostyryl)-4-(4-cyanostyryl)benzene"], "SMILES": "C(=CC1=CC=C(C=CC2=CC=C(C#N)C=C2)C=C1)C3=C(C#N)C=CC=C3", "physical_data": {"Molecular Weight": "332.40", "Molecular Formula": "C24H16N2", "Melting Point": "190-192 \u00b0C"}}