{"cas_no": "130000-40-7", "cn_name": "\u567b\u544b\u9170\u80fa", "en_name": ["Thifluzamide", "5-Thiazolecarboxamide, N-[2,6-dibromo-4-(trifluoromethoxy)phenyl]-2-methyl-4-(trifluoromethyl)-", "N-[2,6-Dibromo-4-(trifluoromethoxy)phenyl]-2-methyl-4-(trifluoromethyl)-5-thiazolecarboxamide", "MON 24000", "Thifluzamide", "Greatam", "Pulsor", "2\u2032,6\u2032-Dibromo-2-methyl-4\u2032-trifluoromethoxy-4-trifluoromethyl-1,3-thiazole-5-carboxyanilide"], "SMILES": "C(NC1=C(Br)C=C(OC(F)(F)F)C=C1Br)(=O)C2=C(C(F)(F)F)N=C(C)S2", "physical_data": {"Molecular Weight": "528.06", "Molecular Formula": "C13H6Br2F6N2O2S", "Melting Point": "178 \u00b0C"}}