{"cas_no": "1300-73-8", "cn_name": "\u4e8c\u7532\u4ee3\u82ef\u80fa (\u5f02\u6784\u4f53\u6df7\u5408\u7269)", "en_name": ["Xylidine", "Benzenamine, ar,ar-dimethyl-", "Xylidine", "ar,ar-Dimethylbenzenamine", "Aminodimethylbenzene", "ar,ar-Dimethylaniline"], "SMILES": "", "physical_data": {"Molecular Weight": "", "Molecular Formula": "C8H11N", "Boiling Point": "213-226 \u00b0C", "Melting Point": "-36 \u00b0C", "Density": "0.97-0.99 g/cm\u00b3"}}