{"cas_no": "13007-90-4", "cn_name": "\u53cc\u4e09\u82ef\u57fa\u81a6\u4e8c\u7fb0\u57fa\u954d", "en_name": ["Dicarbonylbis(triphenylphosphine)nickel", "Nickel, dicarbonylbis(triphenylphosphine)-, (T-4)-", "Nickel, dicarbonylbis(triphenylphosphine)-", "Bis(triphenylphosphine)nickel dicarbonyl", "(T-4)-Dicarbonylbis(triphenylphosphine)nickel", "Bis(triphenylphosphine)dicarbonylnickel", "Dicarbonyldi(triphenylphosphino)nickel", "Dicarbonylbis(triphenylphosphine)nickel", "Bis(triphenylphosphine)dicarbonylnickel(0)"], "SMILES": "[P]([Ni]([P](C1=CC=CC=C1)(C2=CC=CC=C2)C3=CC=CC=C3)(C#O)C#O)(C4=CC=CC=C4)(C5=CC=CC=C5)C6=CC=CC=C6", "physical_data": {"Molecular Weight": "", "Molecular Formula": "C38H30NiO2P2", "Melting Point": "68-70 \u00b0C"}}