{"cas_no": "13002-65-8", "cn_name": "\u4ed6\u83ab\u6614\u82acEP\u6742\u8d28A", "en_name": ["(E)-Tamoxifen", "Ethanamine, 2-[4-[(1E)-1,2-diphenyl-1-buten-1-yl]phenoxy]-N,N-dimethyl-", "Ethylamine, 2-[p-(1,2-diphenyl-1-butenyl)phenoxy]-N,N-dimethyl-, (E)-", "Ethanamine, 2-[4-(1,2-diphenyl-1-butenyl)phenoxy]-N,N-dimethyl-, (E)-", "Ethanamine, 2-[4-[(1E)-1,2-diphenyl-1-butenyl]phenoxy]-N,N-dimethyl-", "2-[4-[(1E)-1,2-Diphenyl-1-buten-1-yl]phenoxy]-N,N-dimethylethanamine", "cis-Tamoxifen", "(E)-Tamoxifen"], "SMILES": "C(=C(CC)C1=CC=CC=C1)(C2=CC=C(OCCN(C)C)C=C2)C3=CC=CC=C3", "physical_data": {"Molecular Weight": "371.51", "Molecular Formula": "C26H29NO", "Melting Point": "70-72 \u00b0C"}}