{"cas_no": "13007-92-6", "cn_name": "\u516d\u7fb0\u57fa\u94ec", "en_name": ["Chromium hexacarbonyl", "Chromium carbonyl (Cr(CO)6), (OC-6-11)-", "Chromium carbonyl (Cr(CO)6)", "Chromium hexacarbonyl", "Hexacarbonylchromium", "Chromium carbonyl"], "SMILES": "[Cr](C#O)(C#O)(C#O)(C#O)(C#O)C#O", "physical_data": {"Molecular Weight": "", "Molecular Formula": "C6CrO6", "Boiling Point": "64 \u00b0C @ Press: 50 Torr", "Melting Point": "149-150 \u00b0C", "Density": "1.77 g/cm\u00b3"}}