{"cas_no": "1300-94-3", "cn_name": "\u620a\u7532\u915a", "en_name": ["Amylmetacresol", "Phenol, 5-methyl-2-pentyl-", "m-Cresol, 6-pentyl-", "5-Methyl-2-pentylphenol", "6-n-Amyl-m-cresol", "Amylmetacresol"], "SMILES": "C(CCCC)C1=C(O)C=C(C)C=C1", "physical_data": {"Molecular Weight": "178.27", "Molecular Formula": "C12H18O", "Boiling Point": "119-122 \u00b0C @ Press: 10 Torr", "Melting Point": "24 \u00b0C"}}