{"cas_no": "13001-39-3", "cn_name": "1,4-\u53cc(2-\u6c30\u57fa\u82ef\u4e59\u70ef\u57fa)\u82ef", "en_name": ["2,2\u2032-(1,4-Phenylenedi-2,1-ethenediyl)bis[benzonitrile]", "Benzonitrile, 2,2\u2032-(1,4-phenylenedi-2,1-ethenediyl)bis-", "Benzonitrile, 2,2\u2032-(p-phenylenedivinylene)di-", "2,2\u2032-(1,4-Phenylenedi-2,1-ethenediyl)bis[benzonitrile]", "ER 1", "ER-I", "Fluorescent Agent ER", "2,2\u2032-(1,4-Phenylenebis(ethene-2,1-diyl))dibenzonitrile", "1,4-Bis(2-cyanostyryl)benzene", "Fluorescent Brightener CPA", "DTXSID4065317"], "SMILES": "C(=CC1=CC=C(C=CC2=C(C#N)C=CC=C2)C=C1)C3=C(C#N)C=CC=C3", "physical_data": {"Molecular Weight": "332.40", "Molecular Formula": "C24H16N2", "Melting Point": "229-231 \u00b0C"}}