{"cas_no": "1300-71-6", "cn_name": "\u4e8c\u7532\u915a", "en_name": ["Dimethylphenol", "Phenol, dimethyl-", "Xylenol", "Dimethylphenol", "Sudol", "LBX 98"], "SMILES": "", "physical_data": {"Molecular Weight": "", "Molecular Formula": "C8H10O", "Boiling Point": "203-225 \u00b0C", "Melting Point": "20-76 \u00b0C", "Density": "1.02-1.03 g/cm\u00b3 @ Temp: 15 \u00b0C"}}