{"cas_no": "1300-21-6", "cn_name": "\u4e8c\u6c2f\u4e59\u70f7", "en_name": ["Dichloroethane", "Ethane, dichloro-", "Dichloroethane", "R 150A", "PS 400-5"], "SMILES": "", "physical_data": {"Molecular Weight": "", "Molecular Formula": "C2H4Cl2", "Boiling Point": "82-84 \u00b0C", "Density": "1.2521 g/cm\u00b3 @ Temp: 204 \u00b0C"}}