{"cas_no": "13009-99-9", "cn_name": "\u918b\u9178\u78fa\u80fa\u7c73\u9686", "en_name": ["Mafenide acetate", "Benzenesulfonamide, 4-(aminomethyl)-, acetate (1:1)", "p-Toluenesulfonamide, \u03b1-amino-, monoacetate", "Benzenesulfonamide, 4-(aminomethyl)-, monoacetate", "Mafenide acetate", "Sulfamylon acetate", "\u03b1-Amino-p-toluenesulfonamide acetate", "Maphenide acetate", "Mafatate", "Mefamide"], "SMILES": "C(C)(O)=O.S(N)(=O)(=O)C1=CC=C(CN)C=C1", "physical_data": {"Molecular Weight": "", "Molecular Formula": "C7H10N2O2S.C2H4O2", "Melting Point": "169-172 \u00b0C"}}