{"cas_no": "13001-40-6", "cn_name": "4,4'-\u53cc[2-(\u90bb\u6c30\u82ef\u57fa)\u4e59\u70ef\u57fa]\u82ef", "en_name": ["4,4\u2032-(1,4-Phenylenedi-2,1-ethenediyl)bis[benzonitrile]", "Benzonitrile, 4,4\u2032-(1,4-phenylenedi-2,1-ethenediyl)bis-", "Benzonitrile, 4,4\u2032-(p-phenylenedivinylene)di-", "4,4\u2032-(1,4-Phenylenedi-2,1-ethenediyl)bis[benzonitrile]", "1,4-Bis(p-cyanostyryl)benzene", "C.I. Fluorescent Brightener 199", "Palanil Brilliant White R", "Fluorescent Brightener 199", "C.I. 40705", "1,4-Bis(4-cyanostyryl)benzene", "Ultraphor RN", "Blankophor ER", "4,4\u2032-(p-Phenylenediethene-2,1-diyl)bisbenzonitrile"], "SMILES": "C(=CC1=CC=C(C#N)C=C1)C2=CC=C(C=CC3=CC=C(C#N)C=C3)C=C2", "physical_data": {"Molecular Weight": "332.40", "Molecular Formula": "C24H16N2", "Melting Point": "278-279 \u00b0C"}}