{"cas_no": "13005-11-3", "cn_name": "N,1-\u4e8c\u7532\u57fa\u5421\u54af\u70f7-3-\u80fa", "en_name": ["1-Methyl-3-pyrrolidinemethanamine", "3-Pyrrolidinemethanamine, 1-methyl-", "Pyrrolidine, 3-(aminomethyl)-1-methyl-", "1-Methyl-3-pyrrolidinemethanamine", "3-(Aminomethyl)-1-methylpyrrolidine", "1-(1-Methylpyrrolidin-3-yl)methanamine", "(1-Methylpyrrolidin-3-yl)methanamine"], "SMILES": "C(N)C1CN(C)CC1", "physical_data": {"Molecular Weight": "114.19", "Molecular Formula": "C6H14N2", "Boiling Point": "72-76 \u00b0C @ Press: 0.3 Torr"}}