{"cas_no": "13013-02-0", "cn_name": "\u7532\u57fa-4-\u785d\u57fa\u4e01\u9178", "en_name": ["Methyl 4-nitrobutyrate", "Butanoic acid, 4-nitro-, methyl ester", "Butyric acid, 4-nitro-, methyl ester", "Methyl 4-nitrobutyrate", "4-Nitrobutyric acid methyl ester", "Methyl 4-nitrobutanoate", "NSC 126459", "4-Nitrobutanoic acid methyl ester"], "SMILES": "C(CCCN(=O)=O)(OC)=O", "physical_data": {"Molecular Weight": "147.13", "Molecular Formula": "C5H9NO4", "Boiling Point": "109 \u00b0C @ Press: 9 Torr"}}