{"cas_no": "13014-24-9", "cn_name": "3,4-\u4e8c\u6c2f\u4e09\u6c2f\u82c4", "en_name": ["1,2-Dichloro-4-(trichloromethyl)benzene", "Benzene, 1,2-dichloro-4-(trichloromethyl)-", "Toluene, \u03b1,\u03b1,\u03b1,3,4-pentachloro-", "1,2-Dichloro-4-(trichloromethyl)benzene", "3,4-Dichlorophenyltrichloromethane", "\u03b1,\u03b1,\u03b1,3,4-Pentachlorotoluene", "3,4-Dichlorobenzotrichloride", "3,4-Dichlorotrichloromethylbenzene", "3,4-\u03b1,\u03b1,\u03b1-Pentachlorotoluene", "NSC 163901"], "SMILES": "C(Cl)(Cl)(Cl)C1=CC(Cl)=C(Cl)C=C1", "physical_data": {"Molecular Weight": "264.36", "Molecular Formula": "C7H3Cl5", "Boiling Point": "283.1 \u00b0C", "Melting Point": "25.8 \u00b0C"}}