{"cas_no": "13018-10-5", "cn_name": "TORILIN", "en_name": ["Torilin", "2-Butenoic acid, 2-methyl-, (5S,6R,8S,8aR)-5-[1-(acetyloxy)-1-methylethyl]-1,2,4,5,6,7,8,8a-octahydro-3,8-dimethyl-2-oxo-6-azulenyl ester, (2Z)-", "Torilin", "1\u03b2-Guai-4-en-3-one, 8\u03b2,11-dihydroxy-, 11-acetate 2-methylcrotonate, (Z)-", "2-Butenoic acid, 2-methyl-, 5-[1-(acetyloxy)-1-methylethyl]-1,2,4,5,6,7,8,8a-octahydro-3,8-dimethyl-2-oxo-6-azulenyl ester, [5S-[5\u03b1,6\u03b1(Z),8\u03b1,8a\u03b1]]-"], "SMILES": "C(OC(C)=O)(C)(C)C1C(OC(C(=CC)C)=O)CC(C)C2C(C1)=C(C)C(=O)C2", "physical_data": {"Molecular Weight": "376.49", "Molecular Formula": "C22H32O5", "Melting Point": "77-78 \u00b0C"}}