{"cas_no": "130198-05-9", "cn_name": "1-[2-\u6c28\u57fa-1-(4-\u7532\u6c27\u57fa\u82ef\u57fa)\u4e59\u57fa]\u73af\u5df1\u9187\u76d0\u9178\u76d0", "en_name": ["Cyclohexanol, 1-[2-amino-1-(4-methoxyphenyl)ethyl]-, hydrochloride (1:1)", "Cyclohexanol, 1-[2-amino-1-(4-methoxyphenyl)ethyl]-, hydrochloride (1:1)", "Cyclohexanol, 1-[2-amino-1-(4-methoxyphenyl)ethyl]-, hydrochloride, (\u00b1)-", "Cyclohexanol, 1-[2-amino-1-(4-methoxyphenyl)ethyl]-, hydrochloride", "1-[2-Amino-1-(4-methoxyphenyl)ethyl]cyclohexanol hydrochloride", "N,N-Didesmethylvenlafaxine hydrochloride", "1-[2-Amino-1-(p-methoxyphenyl)ethyl]cyclohexanol hydrochloride"], "SMILES": "C(CN)(C1(O)CCCCC1)C2=CC=C(OC)C=C2.Cl", "physical_data": {"Molecular Weight": "", "Molecular Formula": "C15H23NO2.ClH", "Melting Point": "168-172 \u00b0C"}}