{"cas_no": "13014-18-1", "cn_name": "1,3-\u4e8c\u6c2f-4-\u4e09\u7532\u57fa\u82ef", "en_name": ["2,4-Dichlorobenzotrichloride", "Benzene, 2,4-dichloro-1-(trichloromethyl)-", "Toluene, \u03b1,\u03b1,\u03b1,2,4-pentachloro-", "2,4-Dichloro-1-(trichloromethyl)benzene", "2,4-Dichlorophenyltrichloromethane", "2,4,\u03b1,\u03b1,\u03b1-Pentachlorotoluene", "1,3-Dichloro-4-(trichloromethyl)benzene", "2,4-Dichlorobenzotrichloride", "\u03b1,\u03b1,\u03b1,2,4-Pentachlorotoluene", "NSC 403840"], "SMILES": "C(Cl)(Cl)(Cl)C1=C(Cl)C=C(Cl)C=C1", "physical_data": {"Molecular Weight": "264.36", "Molecular Formula": "C7H3Cl5", "Boiling Point": "146-151 \u00b0C @ Press: 12 Torr", "Melting Point": "47-48 \u00b0C"}}