{"cas_no": "13019-22-2", "cn_name": "9-\u5341\u70ef-1-\u9187", "en_name": ["9-Decen-1-ol", "9-Decen-1-ol", "Decylenic alcohol", "\u03c9-Decen-1-ol", "9-Decenol", "Rosalva", "Trepanol", "NSC 103158", "1-Hydroxy-9-decene"], "SMILES": "C(CCCC=C)CCCCO", "physical_data": {"Molecular Weight": "156.27", "Molecular Formula": "C10H20O", "Boiling Point": "236 \u00b0C", "Melting Point": "53-54 \u00b0C", "Density": "0.8446 g/cm\u00b3 @ Temp: 20 \u00b0C"}}