{"cas_no": "13019-20-0", "cn_name": "2-\u7532\u57fa-3-\u5e9a\u916e", "en_name": ["2-Methyl-3-heptanone", "3-Heptanone, 2-methyl-", "2-Methyl-3-heptanone", "NSC 21978", "Butyl isopropyl ketone", "6-Methyl-5-heptanone"], "SMILES": "C(C(C)C)(CCCC)=O", "physical_data": {"Molecular Weight": "128.21", "Molecular Formula": "C8H16O", "Boiling Point": "158 \u00b0C", "Density": "0.816 g/cm\u00b3 @ Temp: 20 \u00b0C"}}