{"cas_no": "13010-47-4", "cn_name": "\u6d1b\u83ab\u53f8\u6c40", "en_name": ["Lomustine", "Urea, N-(2-chloroethyl)-N\u2032-cyclohexyl-N-nitroso-", "Urea, 1-(2-chloroethyl)-3-cyclohexyl-1-nitroso-", "N-(2-Chloroethyl)-N\u2032-cyclohexyl-N-nitrosourea", "3-Cyclohexyl-1-(2-chloroethyl)-1-nitrosourea", "CCNU", "1-(2-Chloroethyl)-3-cyclohexyl-1-nitrosourea", "Lomustine", "NSC 79037", "1-(2-Chloroethyl)-3-cyclohexylnitrosourea", "ICIG 1109", "Belustine", "1-(2-Chloroethyl)-1-nitroso-3-cyclohexylurea", "Lomustin", "CeeNU", "CiNu", "Chloroethylcyclohexylnitrosourea", "SRI 2200", "Cecenu", "NCI C04740", "RB 1509", "Lustine", "Moostine", "Lomtin", "Gleostine", "MeSH ID: D008130"], "SMILES": "N(C(N(CCCl)N=O)=O)C1CCCCC1", "physical_data": {"Molecular Weight": "233.70", "Molecular Formula": "C9H16ClN3O2", "Melting Point": "~89 \u00b0C (approx)"}}