{"cas_no": "13026-12-5", "cn_name": "3-(1-\u8418\u57fa)\u4e19\u70ef\u9178", "en_name": ["3-(1-Naphthalenyl)-2-propenoic acid", "2-Propenoic acid, 3-(1-naphthalenyl)-", "1-Naphthaleneacrylic acid", "3-(1-Naphthalenyl)-2-propenoic acid", "\u03b2-1-Naphthylacrylic acid", "3-(1-Naphthyl)acrylic acid", "3-(Naphthalen-1-yl)acrylic acid", "3-(Naphthalen-1-yl)propenoic acid", "NSC 99085"], "SMILES": "C(=CC(O)=O)C=1C2=C(C=CC1)C=CC=C2", "physical_data": {"Molecular Weight": "198.22", "Molecular Formula": "C13H10O2", "Melting Point": "207 \u00b0C"}}