{"cas_no": "13024-90-3", "cn_name": "1-(4-\u6c2f\u82ef\u57fa)-3-\u7532\u57fa-2-\u5421\u5511\u5549-5-\u916e", "en_name": ["1-(4-Chlorophenyl)-3-methyl-5-pyrazolone", "3H-Pyrazol-3-one, 2-(4-chlorophenyl)-2,4-dihydro-5-methyl-", "2-Pyrazolin-5-one, 1-(p-chlorophenyl)-3-methyl-", "2-(4-Chlorophenyl)-2,4-dihydro-5-methyl-3H-pyrazol-3-one", "1-(4-Chlorophenyl)-3-methyl-5-pyrazolone", "3-Methyl-1-(4-chlorophenyl)-5-pyrazolone", "1-(4-Chlorophenyl)-3-methyl-4,5-dihydropyrazole-5-one", "3-Methyl-1-(4-chlorophenyl)-2-pyrazolin-5-one", "1-(4-Chlorophenyl)-3-methyl-4,5-dihydro-1H-pyrazol-5-one", "3-Methyl-1-(4\u2032-chlorophenyl)-2-pyrazolin-5-one", "2-(4-Chlorophenyl)-5-methyl-4H-pyrazol-3-one", "2-(4-Chloro-phenyl)-5-methyl-2,4-dihydro-pyrazol-3-one"], "SMILES": "O=C1N(N=C(C)C1)C2=CC=C(Cl)C=C2", "physical_data": {"Molecular Weight": "208.64", "Molecular Formula": "C10H9ClN2O", "Melting Point": "168 \u00b0C"}}