{"cas_no": "1302-09-6", "cn_name": "\u7852\u5316\u94f6", "en_name": ["Silver selenide (Ag2Se)", "Silver selenide (Ag2Se)", "Disilver selenide", "Silver selenide", "Silver(1+) selenide", "Disilver monoselenide", "Silver(I) selenide"], "SMILES": "[Se]([Ag])[Ag]", "physical_data": {"Molecular Weight": "", "Molecular Formula": "Ag2Se", "Melting Point": "880 \u00b0C", "Density": "7.5 g/cm\u00b3"}}