{"cas_no": "1302-42-7", "cn_name": "\u94dd\u9178\u94a0", "en_name": ["Sodium metaaluminate", "Aluminate (AlO21-), sodium (1:1)", "Aluminate (AlO21-), sodium", "Sodium aluminate (NaAlO2)", "Sodium metaaluminate", "Aluminum sodium oxide (AlNaO2)", "Sodium aluminum oxide (NaAlO2)", "Sodium aluminate", "Sodium metaaluminate (NaAlO2)", "Sodium aluminum dioxide", "Aluminum sodium dioxide", "Aluminum sodium oxide (Al2Na2O4)", "Sodium aluminate (Na2Al2O4)", "Kitakurito 10", "Fimar A 2527", "P 100", "SAX 220", "Gilunal A"], "SMILES": "[Al-](=O)=O.[Na+]", "physical_data": {"Molecular Weight": "", "Molecular Formula": "AlO2.Na", "Melting Point": "1650 \u00b0C", "Density": "1.5 g/cm\u00b3"}}