{"cas_no": "13026-23-8", "cn_name": "\u8054\u82ef-4-\u4e19\u70ef\u9178", "en_name": ["3-[1,1\u2032-Biphenyl]-4-yl-2-propenoic acid", "2-Propenoic acid, 3-[1,1\u2032-biphenyl]-4-yl-", "Cinnamic acid, p-phenyl-", "3-[1,1\u2032-Biphenyl]-4-yl-2-propenoic acid", "4-Phenylcinnamic acid", "[1,1\u2032-Biphenyl]-4-acrylic acid", "p-Phenylcinnamic acid", "3-Biphenyl-4-ylacrylic acid", "3-(1,1\u2032-Biphenyl-4-yl)acrylic acid"], "SMILES": "C(=CC(O)=O)C1=CC=C(C=C1)C2=CC=CC=C2", "physical_data": {"Molecular Weight": "224.25", "Molecular Formula": "C15H12O2", "Melting Point": "225 \u00b0C"}}