{"cas_no": "13021-15-3", "cn_name": "N,N,2,4,6-\u4e94\u7532\u57fa\u82ef\u80fa", "en_name": ["N,N,2,4,6-Pentamethylbenzenamine", "Benzenamine, N,N,2,4,6-pentamethyl-", "Aniline, N,N,2,4,6-pentamethyl-", "N,N,2,4,6-Pentamethylbenzenamine", "N,N-Dimethylmesidine", "N,N,2,4,6-Pentamethylaniline", "2,4,6,N,N-Pentamethylaniline", "2-(Dimethylamino)mesitylene", "NSC 243164"], "SMILES": "N(C)(C)C1=C(C)C=C(C)C=C1C", "physical_data": {"Molecular Weight": "163.26", "Molecular Formula": "C11H17N", "Boiling Point": "214 \u00b0C"}}