{"cas_no": "13027-88-8", "cn_name": "2-\u7f9f\u57fa\u5f02\u4e01\u9170\u80fa", "en_name": ["2-Hydroxy-2-methylpropanamide", "Propanamide, 2-hydroxy-2-methyl-", "Lactamide, 2-methyl-", "2-Hydroxy-2-methylpropanamide", "\u03b1-Hydroxyisobutyramide", "2-Hydroxy-2-methylpropionamide", "2-Methyllactamide", "\u03b1-Hydroxyisobutyric acid amide", "2-Hydroxyisobutyramide"], "SMILES": "C(C(N)=O)(C)(C)O", "physical_data": {"Molecular Weight": "103.12", "Molecular Formula": "C4H9NO2", "Melting Point": "93-94 \u00b0C"}}