{"cas_no": "13029-08-8", "cn_name": "2,2'-\u4e8c\u6c2f\u8054\u82ef", "en_name": ["PCB 4", "1,1\u2032-Biphenyl, 2,2\u2032-dichloro-", "Biphenyl, 2,2\u2032-dichloro-", "2,2\u2032-Dichloro-1,1\u2032-biphenyl", "2,2\u2032-Dichlorobiphenyl", "2,2\u2032-Dichlorodiphenyl", "o,o\u2032-Dichlorobiphenyl", "2,2\u2032-DCBP", "PCB 4", "NSC 59902"], "SMILES": "ClC1=C(C=CC=C1)C2=C(Cl)C=CC=C2", "physical_data": {"Molecular Weight": "223.10", "Molecular Formula": "C12H8Cl2", "Melting Point": "61.5 \u00b0C"}}