{"cas_no": "13029-09-9", "cn_name": "2,2'-\u53cc\u6eb4\u53cc\u82ef", "en_name": ["2,2\u2032-Dibromobiphenyl", "1,1\u2032-Biphenyl, 2,2\u2032-dibromo-", "Biphenyl, 2,2\u2032-dibromo-", "2,2\u2032-Dibromo-1,1\u2032-biphenyl", "2,2\u2032-Dibromobiphenyl", "o,o\u2032-Dibromobiphenyl", "2,2\u2032-Dibromodiphenyl", "NSC 91566", "PBB 4", "1-Bromo-2-(2-bromophenyl)benzene"], "SMILES": "BrC1=C(C=CC=C1)C2=C(Br)C=CC=C2", "physical_data": {"Molecular Weight": "312.00", "Molecular Formula": "C12H8Br2", "Melting Point": "81 \u00b0C"}}