{"cas_no": "130263-10-4", "cn_name": "3'-DEMETHOXYPIPLARTINE", "en_name": ["Demethoxypiplartine", "2(1H)-Pyridinone, 1-[3-(3,4-dimethoxyphenyl)-1-oxo-2-propenyl]-5,6-dihydro-, (E)-", "N-(3,4-Dimethoxy-(E)-cinnamoyl)-\u03943-pyridin-2-one", "Demethoxypiplartine"], "SMILES": "O(C)C1=C(OC)C=CC(C=CC(=O)N2C(=O)C=CCC2)=C1", "physical_data": {"Molecular Weight": "287.31", "Molecular Formula": "C16H17NO4", "Melting Point": "116-117 \u00b0C"}}