{"cas_no": "13020-19-4", "cn_name": "\u6ee8\u84df\u9ec4\u7519", "en_name": ["Cirsimarin", "4H-1-Benzopyran-4-one, 2-[4-(\u03b2-D-glucopyranosyloxy)phenyl]-5-hydroxy-6,7-dimethoxy-", "Cirsimarin", "2-[4-(\u03b2-D-Glucopyranosyloxy)phenyl]-5-hydroxy-6,7-dimethoxy-4H-1-benzopyran-4-one", "Cirsimarine", "Cirsimaritin 4\u2032-glucoside", "Cirsitakaoside", "Cismaritin", "Cirsimaretin", "Cirsimartin", "5,4\u2032-Dihydroxy-6,7-dimethoxyflavone 4\u2032-O-\u03b2-D-glucoside"], "SMILES": "OC1=C2C(OC(=CC2=O)C3=CC=C(OC4OC(CO)C(O)C(O)C4O)C=C3)=CC(OC)=C1OC", "physical_data": {"Molecular Weight": "476.43", "Molecular Formula": "C23H24O11", "Melting Point": "244-246 \u00b0C"}}