{"cas_no": "1302-81-4", "cn_name": "\u786b\u5316\u94dd", "en_name": ["Aluminum sulfide (Al2S3)", "Aluminum sulfide (Al2S3)", "Aluminum trisulfide", "Aluminum sesquisulfide", "Dialuminum trisulfide", "Aluminum sulfide"], "SMILES": "[Al].[S]", "physical_data": {"Molecular Weight": "", "Molecular Formula": "Al.S", "Melting Point": "1100 \u00b0C", "Density": "2.78 g/cm\u00b3"}}