{"cas_no": "13020-57-0", "cn_name": "3-\u7f9f\u57fa\u82ef\u7532\u916e", "en_name": ["3-Hydroxybenzophenone", "Methanone, (3-hydroxyphenyl)phenyl-", "Benzophenone, 3-hydroxy-", "(3-Hydroxyphenyl)phenylmethanone", "m-Hydroxybenzophenone", "3-Hydroxybenzophenone", "3-Benzoylphenol"], "SMILES": "C(=O)(C1=CC(O)=CC=C1)C2=CC=CC=C2", "physical_data": {"Molecular Weight": "198.22", "Molecular Formula": "C13H10O2", "Melting Point": "115 \u00b0C"}}