{"cas_no": "1303-96-4", "cn_name": "\u787c\u7802", "en_name": ["Borax (B4Na2O7.10H2O)", "Borax (B4Na2O7.10H2O)", "Borax", "Borascu", "Borax decahydrate", "Boricin", "Gerstley borate", "Sodium biborate decahydrate", "Sodium pyroborate decahydrate", "Sodium tetraborate decahydrate", "Boric acid (H2B4O7), disodium salt, decahydrate", "Disodium tetraborate decahydrate", "Solubor", "Bura", "Boron sodium oxide (B4Na2O7), decahydrate", "Sodium borate (Na2B4O7), decahydrate", "Three Elephant", "Tincal", "Solubor DF", "Sodium pyroborate", "20 Mule Team Borax", "20 Mule Team Borax Tech 4/200 Mesh", "BR 100", "BR 100 (borate)", "M 9358", "Terro PCO", "Dominant", "Fullbor W6364"], "SMILES": "", "physical_data": {"Molecular Weight": "", "Molecular Formula": "B4Na2O7.10H2O", "Boiling Point": "320 \u00b0C", "Melting Point": "75 \u00b0C", "Density": "1.73 g/cm\u00b3"}}