{"cas_no": "13035-19-3", "cn_name": "4-\u6c28\u57fa\u54cc\u5576", "en_name": ["4-Piperidinamine", "4-Piperidinamine", "Piperidine, 4-amino-", "Piperidine, 4-amino-, 5610070f", "", "4-Aminopiperidine", "Piperidin-4-ylamine"], "SMILES": "NC1CCNCC1", "physical_data": {"Molecular Weight": "100.16", "Molecular Formula": "C5H12N2", "Boiling Point": "65 \u00b0C @ Press: 18 Torr"}}