{"cas_no": "1303-00-0", "cn_name": "\u7837\u5316\u9553", "en_name": ["Gallium arsenide", "Gallium arsenide (GaAs)", "Gallium monoarsenide", "Gallium arsenide", "Gallium monoarsenide (GaAs)"], "SMILES": "[As]#[Ga]", "physical_data": {"Molecular Weight": "", "Molecular Formula": "AsGa", "Melting Point": "1238 \u00b0C", "Density": "5.3176 g/cm\u00b3 @ Temp: 25 \u00b0C"}}