{"cas_no": "130370-60-4", "cn_name": "\u5df4\u9a6c\u53f8\u4ed6", "en_name": ["Batimastat", "Butanediamide, N4-hydroxy-N1-[(1S)-2-(methylamino)-2-oxo-1-(phenylmethyl)ethyl]-2-(2-methylpropyl)-3-[(2-thienylthio)methyl]-, (2R,3S)-", "Butanediamide, N4-hydroxy-N1-[2-(methylamino)-2-oxo-1-(phenylmethyl)ethyl]-2-(2-methylpropyl)-3-[(2-thienylthio)methyl]-, [2R-[1(S*),2R*,3S*]]-", "(2R,3S)-N4-Hydroxy-N1-[(1S)-2-(methylamino)-2-oxo-1-(phenylmethyl)ethyl]-2-(2-methylpropyl)-3-[(2-thienylthio)methyl]butanediamide", "BB 94", "Batimastat", "(2S,3R)-5-Methyl-3-[[(\u03b1S)-\u03b1-(methylcarbamoyl)phenethyl]carbamoyl]-2-[(2-thienylthio)methyl]hexanohydroxamic acid"], "SMILES": "C(C(CSC1=CC=CS1)C(NO)=O)(C(NC(CC2=CC=CC=C2)C(NC)=O)=O)CC(C)C", "physical_data": {"Molecular Weight": "477.64", "Molecular Formula": "C23H31N3O4S2", "Melting Point": "236-238 \u00b0C"}}