{"cas_no": "13035-61-5", "cn_name": "\u56db\u4e59\u9170\u6838\u7cd6", "en_name": ["\u03b2-D-Ribofuranose, 1,2,3,5-tetraacetate", "\u03b2-D-Ribofuranose, 1,2,3,5-tetraacetate", "Ribofuranose, tetraacetate, \u03b2-D-", "\u03b2-D-Ribofuranose, tetraacetate", "1,2,3,5-Tetra-O-acetyl-\u03b2-D-ribofuranose", "Tetra-O-acetyl-\u03b2-D-ribofuranose", "Tetraacetyl-\u03b2-D-ribofuranose", "1,2,3,5-Tetra-O-acetyl-\u03b2-D-ribose", "1,2,3,5-Tetraacetyl-\u03b2-D-ribofuranose", "1\u03b2-D-Tetraacetylribose", "NSC 18738", "\u03b2-Ribofuranose-1,2,3,5-tetraacetate", "1\u2032,2\u2032,3\u2032,5\u2032-Tetra-O-acetyl-\u03b2-D-ribofuranose"], "SMILES": "O(C(C)=O)C1C(OC(C)=O)C(OC(C)=O)OC1COC(C)=O", "physical_data": {"Molecular Weight": "318.28", "Molecular Formula": "C13H18O9", "Boiling Point": "~0.105 \u00b0C (approx) @ Press: 1 x 10<sup>-3</sup> Torr", "Melting Point": "82 \u00b0C"}}