{"cas_no": "13038-26-1", "cn_name": "\u4e5d\u6c1f\u620a\u9178\u7532\u916f", "en_name": ["Methyl 2,2,3,3,4,4,5,5,5-nonafluoropentanoate", "Pentanoic acid, 2,2,3,3,4,4,5,5,5-nonafluoro-, methyl ester", "Valeric acid, nonafluoro-, methyl ester", "Pentanoic acid, nonafluoro-, methyl ester", "Methyl 2,2,3,3,4,4,5,5,5-nonafluoropentanoate", "Methyl perfluoropentanoate", "Methyl nonafluorovalerate", "Methyl nonafluoropentanoate", "Nonafluoropentanoic acid methyl ester"], "SMILES": "C(C(C(OC)=O)(F)F)(C(C(F)(F)F)(F)F)(F)F", "physical_data": {"Molecular Weight": "278.07", "Molecular Formula": "C6H3F9O2", "Boiling Point": "99-100 \u00b0C"}}