{"cas_no": "13031-43-1", "cn_name": "4-\u4e59\u9170\u6c27\u57fa\u82ef\u5e76\u916e", "en_name": ["1-[4-(Acetyloxy)phenyl]ethanone", "Ethanone, 1-[4-(acetyloxy)phenyl]-", "Acetophenone, 4\u2032-hydroxy-, acetate", "1-[4-(Acetyloxy)phenyl]ethanone", "p-Acetoxyacetophenone", "p-Acetylphenyl acetate", "4\u2032-Acetoxyacetophenone", "4-Acetoxyacetophenone", "4-Acetylphenyl acetate", "NSC 41974"], "SMILES": "O(C(C)=O)C1=CC=C(C(C)=O)C=C1", "physical_data": {"Molecular Weight": "178.18", "Molecular Formula": "C10H10O3", "Boiling Point": "157-162 \u00b0C @ Press: 13 Torr", "Melting Point": "53 \u00b0C"}}