{"cas_no": "13038-22-7", "cn_name": "\u4e59\u9178-8-\u58ec\u70ef-1-\u57fa\u916f", "en_name": ["8-Nonen-1-ol, 1-acetate", "8-Nonen-1-ol, 1-acetate", "8-Nonen-1-ol, acetate", "8-Nonen-1-yl acetate", "8-Nonenyl acetate"], "SMILES": "C(CCCCC=C)CCOC(C)=O", "physical_data": {"Molecular Weight": "184.28", "Molecular Formula": "C11H20O2", "Boiling Point": "138-140 \u00b0C @ Press: 50 Torr"}}