{"cas_no": "13036-19-6", "cn_name": "p-\u7532\u6c27\u57fa\u82c4\u70ef-p-\u6c30\u57fa\u82ef\u80fa", "en_name": ["4-[[(4-Methoxyphenyl)methylene]amino]benzonitrile", "Benzonitrile, 4-[[(4-methoxyphenyl)methylene]amino]-", "Benzonitrile, p-[(p-methoxybenzylidene)amino]-", "4-[[(4-Methoxyphenyl)methylene]amino]benzonitrile", "N-(4-Methoxybenzylidene)-4-cyanoaniline", "N-(p-Methoxybenzylidene)-p-cyanoaniline", "p-Methoxybenzylidene-p\u2032-aminobenzonitrile", "p-Methoxybenzylidene-p\u2032-cyanoaniline", "p-[(p-Methoxybenzylidene)amino]benzonitrile", "p-Methoxybenzylidene-p-cyanoaniline", "p-Cyano-N-(p-methoxybenzylidene)aniline", "p-Methoxybenzilidene-p\u2032-cyanoaniline", "p-[N-(p\u2032-Methoxybenzylidene)amino]benzonitrile", "4-[(4-Methoxybenzylidene)aminol]benzonitrile"], "SMILES": "C(=NC1=CC=C(C#N)C=C1)C2=CC=C(OC)C=C2", "physical_data": {"Molecular Weight": "236.27", "Molecular Formula": "C15H12N2O", "Melting Point": "106 \u00b0C"}}