{"cas_no": "13031-04-4", "cn_name": "\u4e8c\u6c22-4,4-\u4e8c\u7532\u57fa-2,3-\u544b\u5583\u4e8c\u916e", "en_name": ["Ketopantolactone", "2,3-Furandione, dihydro-4,4-dimethyl-", "Butyric acid, 4-hydroxy-3,3-dimethyl-2-oxo-, \u03b3-lactone", "Dihydro-4,4-dimethyl-2,3-furandione", "2-Ketopantoyl lactone", "Ketopantolactone", "4,5-Dihydro-4,4-dimethyl-2,3-furandione", "Tetrahydro-4,4-dimethyl-2,3-furandione", "\u03b1-Ketopantolactone", "3,3-Dimethyl-2-oxo-\u03b3-butyrolactone", "4,4-Dimethyltetrahydrofuran-2,3-dione", "4,4-Dimethyl-2,3-furandione", "2-Oxo-3,3-dimethyl-\u03b3-butyrolactone", "Dihydro-4,4\u2032-dimethyl-2,3-furandione", "4,4-Dimethyldihydrofuran-2,3-dione"], "SMILES": "O=C1C(C)(C)COC1=O", "physical_data": {"Molecular Weight": "128.13", "Molecular Formula": "C6H8O3", "Boiling Point": "125-126 \u00b0C @ Press: 15 Torr", "Melting Point": "60 \u00b0C"}}