{"cas_no": "13031-39-5", "cn_name": "\u95f4\u6c2f\u82ef\u4e59\u9178\u4e59\u916f", "en_name": ["Acetic acid, 3-chlorophenyl ester", "Acetic acid, 3-chlorophenyl ester", "Acetic acid, m-chlorophenyl ester", "Phenol, m-chloro-, acetate", "m-Chlorophenyl acetate", "m-Acetoxychlorobenzene", "3-Chlorophenol acetate", "3-Chlorophenyl acetate"], "SMILES": "O(C(C)=O)C1=CC(Cl)=CC=C1", "physical_data": {"Molecular Weight": "170.59", "Molecular Formula": "C8H7ClO2", "Boiling Point": "108 \u00b0C"}}