{"cas_no": "13031-76-0", "cn_name": "1,1-\u4e8c\u6c27\u4ee3-3-\u7f9f\u57fa-\u56db\u6c22\u567b\u5429", "en_name": ["3-Hydroxysulfolane", "Thiophene-3-ol, tetrahydro-, 1,1-dioxide", "Sulfolan-3-ol", "3-Hydroxysulfolane", "3-Hydroxythiolane 1,1-dioxide", "NSC 147314", "1,1-Dioxothiolan-3-ol", "3-Hydroxy-1\u03bb6-thiolane-1,1-dione", "3-Hydroxytetrahydro-1H-1\u03bb6-thiophene-1,1-dione"], "SMILES": "O=S1(=O)CC(O)CC1", "physical_data": {"Molecular Weight": "136.17", "Molecular Formula": "C4H8O3S", "Boiling Point": "140-144 \u00b0C", "Melting Point": "35 \u00b0C"}}