{"cas_no": "13031-60-2", "cn_name": "4-\u6c28\u57fa\u4e01\u9178\u7532\u916f\u76d0\u9178\u76d0", "en_name": ["Methyl 4-aminobutyrate hydrochloride", "Butanoic acid, 4-amino-, methyl ester, hydrochloride (1:1)", "Butyric acid, 4-amino-, methyl ester, hydrochloride", "Butanoic acid, 4-amino-, methyl ester, hydrochloride", "4-Aminobutyric acid methyl ester hydrochloride", "Methyl \u03b3-aminobutyrate hydrochloride", "GABA methyl ester hydrochloride", "\u03b3-Aminobutyric acid methyl ester hydrochloride", "Methyl 4-aminobutyrate hydrochloride", "Methyl 4-aminobutanoate hydrochloride", "4-Aminobutanoic acid methyl ester hydrochloride", "Methyl aminobutyrate hydrochloride"], "SMILES": "C(CCCN)(OC)=O.Cl", "physical_data": {"Molecular Weight": "", "Molecular Formula": "C5H11NO2.ClH", "Melting Point": "105-107 \u00b0C"}}