{"cas_no": "1303-36-2", "cn_name": "\u7852\u5316\u7837", "en_name": ["Arsenic selenide (As2Se3)", "Arsenic selenide (As2Se3)", "Arsenic sesquiselenide", "Arsenic sesquiselenide (As2Se3)", "Arsenous selenide", "Diarsenic triselenide", "Arsenic triselenide", "Diarsenic triselenide (As2Se3)", "Arsenic selenide (AsSe1.5)", "Arsenic selenide (As0.4Se0.6)", "Arsenic selenide (As40Se60)"], "SMILES": "", "physical_data": {"Molecular Weight": "", "Molecular Formula": "As2Se3", "Melting Point": "260 \u00b0C", "Density": "4.62 g/cm\u00b3"}}