{"cas_no": "13033-84-6", "cn_name": "D-\u82ef\u4e19\u6c28\u9178\u7532\u916f\u76d0\u9178\u76d0", "en_name": ["D-Phenylalanine, methyl ester, hydrochloride (1:1)", "D-Phenylalanine, methyl ester, hydrochloride (1:1)", "Alanine, phenyl-, methyl ester, hydrochloride, D-", "D-Phenylalanine, methyl ester, hydrochloride", "Methyl (R)-phenylalaninate hydrochloride", "Methyl D-phenylalaninate hydrochloride", "(R)-Phenylalanine methyl ester hydrochloride", "D-Phe-OMe monohydrochloride", "(R)-Methyl 2-amino-3-phenylpropanoate hydrochloride"], "SMILES": "C(C(C(OC)=O)N)C1=CC=CC=C1.Cl", "physical_data": {"Molecular Weight": "", "Molecular Formula": "C10H13NO2.ClH", "Melting Point": "156-158 \u00b0C"}}