{"cas_no": "130312-01-5", "cn_name": "(\u56db\u6c22\u5421\u5583-4-\u4e9a\u57fa)-\u4e59\u9178", "en_name": ["2-(Tetrahydro-4H-pyran-4-ylidene)acetic acid", "Acetic acid, 2-(tetrahydro-4H-pyran-4-ylidene)-", "Acetic acid, (tetrahydro-4H-pyran-4-ylidene)-", "2-(Tetrahydro-4H-pyran-4-ylidene)acetic acid", "(Tetrahydro-pyran-4-ylidene)-acetic acid", "2-(Oxan-4-ylidene)acetic acid"], "SMILES": "C(C(O)=O)=C1CCOCC1", "physical_data": {"Molecular Weight": "142.15", "Molecular Formula": "C7H10O3", "Melting Point": "84-85 \u00b0C"}}