{"cas_no": "1303-28-2", "cn_name": "\u4e94\u6c27\u5316\u4e8c\u7837(\u7812\u971c)", "en_name": ["Arsenic oxide (As2O5)", "Arsenic oxide (As2O5)", "Arsenic pentoxide", "Diarsenic pentoxide", "Arsenic anhydride", "Arsenic oxide (As2O5)", "Arsenic (V) oxide", "Diarsonic pentoxide", "Arsenic oxide (As4O10)", "Arsenic(V) pentoxide"], "SMILES": "[As].[O]", "physical_data": {"Molecular Weight": "", "Molecular Formula": "As.O", "Melting Point": "~300 \u00b0C (decomp) (approx)", "Density": "4.32 g/cm\u00b3"}}