{"cas_no": "1303-11-3", "cn_name": "\u7837\u5316\u94df", "en_name": ["Indium arsenide", "Indium arsenide (InAs)", "Indium arsenide", "Indium monoarsenide (InAs)", "Indium monoarsenide"], "SMILES": "[As]#[In]", "physical_data": {"Molecular Weight": "", "Molecular Formula": "AsIn", "Melting Point": "943.3 \u00b0C", "Density": "5.69 g/cm\u00b3"}}