{"cas_no": "13037-86-0", "cn_name": "4-\u5e9a\u6c27\u57fa\u82ef\u915a", "en_name": ["4-(Heptyloxy)phenol", "Phenol, 4-(heptyloxy)-", "Phenol, p-(heptyloxy)-", "4-(Heptyloxy)phenol", "p-(Heptyloxy)phenol", "p-Heptoxyphenol"], "SMILES": "O(CCCCCCC)C1=CC=C(O)C=C1", "physical_data": {"Molecular Weight": "208.30", "Molecular Formula": "C13H20O2", "Melting Point": "60-63 \u00b0C"}}