{"cas_no": "1303-86-2", "cn_name": "\u4e09\u6c27\u5316\u4e8c\u787c", "en_name": ["Boron oxide (B2O3)", "Boron oxide (B2O3)", "Boric oxide", "Boron sesquioxide", "Boron trioxide", "Fused boric acid", "Boric acid (HBO2), anhydride", "Boric oxide (B2O3)", "Boria", "Boric anhydride", "Diboron trioxide", "Boracic anhydride", "Boron oxide", "Boria (B2O3)", "Boric acid anhydride", "Boron(III) oxide", "Boron oxide (BO1.5)", "B 108406"], "SMILES": "", "physical_data": {"Molecular Weight": "", "Molecular Formula": "B2O3", "Boiling Point": "~1860 \u00b0C (approx)", "Melting Point": "450 \u00b0C", "Density": "2.46 g/cm\u00b3"}}