{"cas_no": "13036-02-7", "cn_name": "5-\u7f9f\u57fa\u95f4\u82ef\u4e8c\u7532\u9178\u4e8c\u7532\u916f", "en_name": ["Dimethyl 5-hydroxyisophthalate", "1,3-Benzenedicarboxylic acid, 5-hydroxy-, 1,3-dimethyl ester", "Isophthalic acid, 5-hydroxy-, dimethyl ester", "1,3-Benzenedicarboxylic acid, 5-hydroxy-, dimethyl ester", "5-Hydroxyisophthalic acid dimethyl ester", "Dimethyl 5-hydroxyisophthalate", "1-Hydroxy-3,5-bis(methoxycarbonyl)benzene", "3,5-Bis(methoxycarbonyl)phenol", "Dimethyl 5-hydroxy-1,3-benzenedicarboxylate", "1,3-Dimethyl 5-hydroxybenzene-1,3-dicarboxylate"], "SMILES": "C(OC)(=O)C1=CC(C(OC)=O)=CC(O)=C1", "physical_data": {"Molecular Weight": "210.18", "Molecular Formula": "C10H10O5", "Melting Point": "163-165 \u00b0C"}}