{"cas_no": "1303-33-9", "cn_name": "\u786b\u5316\u7837(III)", "en_name": ["Arsenic sulfide", "Arsenic sulfide (As2S3)", "C.I. 77086", "Arsenic yellow", "C.I. Pigment Yellow 39", "Arsenic sesquisulfide", "Auripigment", "Arsenous sulfide", "Diarsenic trisulfide", "Arsenious sulfide", "Arsenic trisulfide", "Arsenic sesquisulfide (As2S3)", "Arsenic trisulfide (As2S3)", "Arsenic(III) sulfide", "Arsenic sulfide (AsS1.5)", "Pigment Yellow 39", "Shio", "Auripigmentum", "Arsenic sulfide", "Arsenic sulfide (As0.4S0.6)", "Sekio"], "SMILES": "", "physical_data": {"Molecular Weight": "", "Molecular Formula": "As2S3", "Boiling Point": "707 \u00b0C", "Melting Point": "310 \u00b0C", "Density": "3.46 g/cm\u00b3"}}