{"cas_no": "13031-62-4", "cn_name": "4-\u6c28\u57fa\u4e01\u9170\u80fa\u76d0\u9178\u76d0", "en_name": ["Butanamide, 4-amino-, hydrochloride (1:1)", "Butanamide, 4-amino-, hydrochloride (1:1)", "Butanamide, 4-amino-, monohydrochloride", "Butyramide, 4-amino-, hydrochloride", "4-Aminobutyramide hydrochloride", "4-Aminobutanamide hydrochloride", "Gabamide hydrochloride"], "SMILES": "C(C(N)=O)CCN.Cl", "physical_data": {"Molecular Weight": "", "Molecular Formula": "C4H10N2O.ClH", "Melting Point": "126-129 \u00b0C"}}