{"cas_no": "1304-28-5", "cn_name": "\u65e0\u6c34\u6c27\u5316\u94a1", "en_name": ["Barium oxide", "Barium oxide (BaO)", "Barium oxide", "Barium monoxide", "Baryta", "Baria", "Barium oxide (Ba2O2)"], "SMILES": "[Ba]=O", "physical_data": {"Molecular Weight": "", "Molecular Formula": "BaO", "Boiling Point": "2000 \u00b0C", "Melting Point": "1923 \u00b0C", "Density": "5.7 g/cm\u00b3"}}