{"cas_no": "1304-85-4", "cn_name": "\u78b1\u6027\u785d\u9178\u94cb", "en_name": ["Bismuth subnitrate", "Bismuth hydroxide nitrate oxide (Bi5(OH)9(NO3)4O)", "Bismuth hydroxide nitrate oxide (Bi5O(OH)9(NO3)4)", "C.I. 77169", "Basic bismuth nitrate", "Bismuth Magistery", "Bismuth white", "Blanc de fard", "C.I. Pigment White 17", "Cosmetic White", "Flake White", "Novismuth", "Spanish white", "Bismuth subnitrate", "Bismuth subnitricum", "Bismuthyl nitrate", "Magistery of bismuth", "Snowcal 5SW", "Vicalin", "Vikaline", "Pigment White 17", "Roter", "Bismuth oxynitrate", "OrbeSeal", "Bi(III) sub-nitrate"], "SMILES": "", "physical_data": {"Molecular Weight": "", "Molecular Formula": "Bi5H9N4O22", "Melting Point": "260 \u00b0C (decomp)", "Density": "4.928 g/cm\u00b3"}}