{"cas_no": "130405-40-2", "cn_name": "\u513f\u8336\u7d20\u6ca1\u98df\u5b50\u9178\u916f", "en_name": ["(-)-Catechin gallate", "Benzoic acid, 3,4,5-trihydroxy-, (2S,3R)-2-(3,4-dihydroxyphenyl)-3,4-dihydro-5,7-dihydroxy-2H-1-benzopyran-3-yl ester", "Benzoic acid, 3,4,5-trihydroxy-, 2-(3,4-dihydroxyphenyl)-3,4-dihydro-5,7-dihydroxy-2H-1-benzopyran-3-yl ester, (2S-trans)-", "(-)-Catechin gallate", "(-)-Catechin 3-gallate", "(-)-Catechin 3-O-gallate"], "SMILES": "O(C(=O)C1=CC(O)=C(O)C(O)=C1)C2C(OC=3C(C2)=C(O)C=C(O)C3)C4=CC(O)=C(O)C=C4", "physical_data": {"Molecular Weight": "442.37", "Molecular Formula": "C22H18O10", "Melting Point": "248-251 \u00b0C (decomp)"}}