{"cas_no": "13048-34-5", "cn_name": "1,4-\u7678\u4e8c\u9187\u4e8c\u4e19\u70ef\u9178\u916f(\u542b\u7a33\u5b9a\u5242\u7532\u6c27\u57fa\u6c22\u918c)", "en_name": ["1,10-Decanediol, diacrylate", "2-Propenoic acid, 1,1\u2032-(1,10-decanediyl) ester", "Acrylic acid, decamethylene ester", "2-Propenoic acid, 1,10-decanediyl ester", "1,10-Decanediol, diacrylate", "Decamethyleneglycol diacrylate", "Decamethylene acrylate", "A-DOD", "NK Ester A-DOD", "NK Ester A-DOD-N", "A-DOD-N", "1,10-Bis(acryloyloxy)decane", "CD 595", "1,10-Decamethylene diacrylate", "Sartomer CD 595", "Sarbio 5201", "SR 595", "10-Prop-2-enoyloxydecyl prop-2-enoate", "NK Ester DOD", "Miramer M 2010"], "SMILES": "C(OCCCCCCCCCCOC(C=C)=O)(C=C)=O", "physical_data": {"Molecular Weight": "282.38", "Molecular Formula": "C16H26O4", "Boiling Point": "180-181 \u00b0C @ Press: 1-2 Torr"}}