{"cas_no": "1304-82-1", "cn_name": "\u78b2\u5316\u94cb", "en_name": ["Bismuth telluride", "Bismuth telluride (Bi2Te3)", "Bismuth sesquitelluride", "Bismuth telluride", "Bismuth(3+) telluride", "Dibismuth tritelluride"], "SMILES": "", "physical_data": {"Molecular Weight": "", "Molecular Formula": "Bi2Te3", "Boiling Point": "1172 \u00b0C", "Melting Point": "585 \u00b0C", "Density": "7.26 g/cm\u00b3"}}