{"cas_no": "13047-04-6", "cn_name": "4-AMINOBENZENE-1,2-DIOL", "en_name": ["4-Aminocatechol", "1,2-Benzenediol, 4-amino-", "Pyrocatechol, 4-amino-", "4-Amino-1,2-benzenediol", "3,4-Dihydroxyphenylamine", "4-Aminocatechol", "3,4-Dihydroxyaniline", "1-Amino-3,4-dihydroxybenzene", "A 3253", "A 3253 (pharmaceutical)", "KYJ 3-018"], "SMILES": "OC1=C(O)C=CC(N)=C1", "physical_data": {"Molecular Weight": "125.13", "Molecular Formula": "C6H7NO2", "Melting Point": "124-125 \u00b0C"}}