{"cas_no": "13047-13-7", "cn_name": "\u83f2\u5c3c\u916e S", "en_name": ["Dimezone S", "3-Pyrazolidinone, 4-(hydroxymethyl)-4-methyl-1-phenyl-", "4-(Hydroxymethyl)-4-methyl-1-phenyl-3-pyrazolidinone", "1-Phenyl-4-methyl-4-(hydroxymethyl)-3-pyrazolidinone", "1-Phenyl-4-(hydroxymethyl)-4-methyl-3-pyrazolidone", "4-(Hydroxymethyl)-4-methyl-1-phenyl-3-pyrazolidone", "Dimezone S", "1-Phenyl-4-methyl-4-(hydroxymethyl)-3-pyrazolidone", "Phenidone S"], "SMILES": "C(O)C1(C)CN(NC1=O)C2=CC=CC=C2", "physical_data": {"Molecular Weight": "206.24", "Molecular Formula": "C11H14N2O2", "Melting Point": "121.8-123.3 \u00b0C"}}