{"cas_no": "13042-39-2", "cn_name": "\u5f02\u5c71\u68a8\u9187-2-\u918b\u9178\u916f", "en_name": ["Isosorbide 2-acetate", "D-Glucitol, 1,4:3,6-dianhydro-, 2-acetate", "Glucitol, 1,4:3,6-dianhydro-, 2-acetate, D-", "Glucitol, 1,4:3,6-dianhydro-, 2-acetate", "Furo[3,2-b]furan, D-glucitol deriv.", "Isosorbide 2-acetate", "1,4:3,6-Dianhydro-D-glucitol 2-acetate"], "SMILES": "O(C(C)=O)C1C2C(C(O)CO2)OC1", "physical_data": {"Molecular Weight": "188.18", "Molecular Formula": "C8H12O5", "Melting Point": "78 \u00b0C"}}