{"cas_no": "130473-27-7", "cn_name": "1H-\u5421\u54af\u5e76[2,3-C]\u5421\u5576-5-\u7fa7\u9178", "en_name": ["1H-Pyrrolo[2,3-c]pyridine-5-carboxylic acid", "1H-Pyrrolo[2,3-c]pyridine-5-carboxylic acid"], "SMILES": "C(O)(=O)C=1C=C2C(=CN1)NC=C2", "physical_data": {"Molecular Weight": "162.15", "Molecular Formula": "C8H6N2O2", "Melting Point": "325-328 \u00b0C (decomp)"}}