{"cas_no": "1304-56-9", "cn_name": "\u6c27\u5316\u94cd", "en_name": ["Beryllium oxide", "Beryllium oxide (BeO)", "Beryllium oxide", "Beryllia", "Beryllium monoxide", "Thermalox 995"], "SMILES": "[Be]=O", "physical_data": {"Molecular Weight": "", "Molecular Formula": "BeO", "Boiling Point": "~3900 \u00b0C (approx)", "Melting Point": "2530 \u00b0C", "Density": "3.01 g/cm\u00b3"}}