{"cas_no": "1304-29-6", "cn_name": "\u8fc7\u6c27\u5316\u94a1", "en_name": ["Barium peroxide", "Barium peroxide (Ba(O2))", "Barium peroxide", "Barium oxide (BaO2)"], "SMILES": "[Ba]1OO1", "physical_data": {"Molecular Weight": "", "Molecular Formula": "BaO2", "Melting Point": "450 \u00b0C", "Density": "4.96 g/cm\u00b3"}}