{"cas_no": "13041-62-8", "cn_name": "4-\u7532\u6c27\u57fa-1-\u8418\u7532\u9178", "en_name": ["4-Methoxy-1-naphthalenecarboxylic acid", "1-Naphthalenecarboxylic acid, 4-methoxy-", "1-Naphthoic acid, 4-methoxy-", "4-Methoxy-1-naphthalenecarboxylic acid", "4-Methoxy-1-naphthoic acid", "4-Methoxy-\u03b1-naphthoic acid"], "SMILES": "C(O)(=O)C=1C2=C(C(OC)=CC1)C=CC=C2", "physical_data": {"Molecular Weight": "202.21", "Molecular Formula": "C12H10O3", "Melting Point": "230 \u00b0C"}}