{"cas_no": "13048-33-4", "cn_name": "1,6-\u5df1\u4e8c\u9187\u4e8c\u4e19\u70ef\u9178\u916f", "en_name": ["1,6-Hexanediol diacrylate", "2-Propenoic acid, 1,1\u2032-(1,6-hexanediyl) ester", "Acrylic acid, hexamethylene ester", "2-Propenoic acid, 1,6-hexanediyl ester", "1,6-Hexanediol diacrylate", "Hexamethylene diacrylate", "Hexamethylene acrylate", "Hexamethyleneglycol diacrylate", "1,6-Hexanediyl diacrylate", "SR 238", "1,6-Hexamethylene diacrylate", "Sartomer SR 238", "Setalux UV 2243", "Hexaneglycol diacrylate", "HDDA", "Kayarad HDDA", "Light Acrylate 1,6HX-A", "1,6-HDDA", "1,6-Hexenediol diacrylate", "NK Ester A-HD", "C 716", "Viscoat 230", "Photomer 4017", "1,6HX-A", "AHD", "Sartomer 238", "1,6-Hexamethylenediol diacrylate", "Kayarad KS-HDDA", "Actilane 425", "Light Ester 1.6HX-A", "Laromer HDDA", "HDODA", "Hexamethylenediol diacrylate", "Genomer 1223", "NK Ester A-HD-N", "KS-HDDA", "SR 238F", "AgiSyn 2816", "A-HD-N", "1.6HX", "EM 221", "C 6DA", "V 230", "M 200", "SM 626", "M 200 (acrylate)", "Photomer 4017F", "SR 2389", "EM 221TF", "SR 238NS", "Light Acrylate SR 238F", "SR 238B", "FA 126AS", "1,2-Bisacryloyloxyhexane", "Miramer M 200", "1,6-Hexandiol diacrylate", "Newfrontier HDDA", "LM 254", "Hexylene-1,6-diacrylate", "Doublemer HDDA", "Cognis 4017", "Fancryl FA 126AS", "1,6-Hexyleneglycol diacrylate", "SR 238TFN", "EM 2021", "Miramer M 201B", "H 222"], "SMILES": "C(OCCCCCCOC(C=C)=O)(C=C)=O", "physical_data": {"Molecular Weight": "226.27", "Molecular Formula": "C12H18O4", "Boiling Point": "158-165 \u00b0C @ Press: 5 Torr", "Melting Point": "&lt;25 \u00b0C", "Density": "1.01 g/cm\u00b3"}}