{"cas_no": "1304-76-3", "cn_name": "\u6c27\u5316\u94cb", "en_name": ["Bismuth oxide (Bi2O3)", "Bismuth oxide (Bi2O3)", "C.I. 77160", "Bismuthous oxide", "Bismuth trioxide", "Bismuth yellow", "Dibismuth trioxide", "Bismuth sesquioxide", "Bismuth oxide", "Bismuth(3+) oxide", "Bismuth(III) oxide", "Bismuth sesquioxide (Bi2O3)", "Bismuth oxide (BiO1.5)", "NanoArc Bismuth Oxide", "Nanotek", "B 18401", "Tomatec 42-970A", "Bismuth oxide (Bi12.8O19.2)"], "SMILES": "", "physical_data": {"Molecular Weight": "", "Molecular Formula": "Bi2O3", "Melting Point": "836 \u00b0C", "Density": "8.437 g/cm\u00b3"}}