{"cas_no": "1305-79-9", "cn_name": "\u8fc7\u6c27\u5316\u9499", "en_name": ["Calcium peroxide", "Calcium peroxide (Ca(O2))", "Calcium dioxide", "Calcium oxide (CaO2)", "Calper", "Calper G", "Calcium peroxide", "Neocaloxo", "Ixper C"], "SMILES": "[Ca]1OO1", "physical_data": {"Molecular Weight": "", "Molecular Formula": "CaO2", "Melting Point": "200 \u00b0C (decomp)", "Density": "3.34 g/cm\u00b3 @ Temp: 25 \u00b0C"}}