{"cas_no": "130525-58-5", "cn_name": "5-\u4e59\u9170\u6c28\u57fa-7,8,9-O-\u4e09\u4e59\u9170\u57fa-2,6-\u8131\u6c34-4-\u53e0\u6c2e-3,4,5-\u4e09\u8131\u6c27-D-\u7518\u6cb9-D-\u534a\u4e73-2-\u58ec\u70ef\u9178\u7532\u916f", "en_name": ["D-glycero-D-galacto-Non-2-enonic acid, 5-(acetylamino)-2,6-anhydro-4-azido-3,4,5-trideoxy-, methyl ester, 7,8,9-triacetate", "D-glycero-D-galacto-Non-2-enonic acid, 5-(acetylamino)-2,6-anhydro-4-azido-3,4,5-trideoxy-, methyl ester, 7,8,9-triacetate"], "SMILES": "C(C(COC(C)=O)OC(C)=O)(OC(C)=O)C1C(NC(C)=O)C(N=[N+]=[N-])C=C(C(OC)=O)O1", "physical_data": {"Molecular Weight": "", "Molecular Formula": "C18H24N4O10", "Melting Point": "91-92 \u00b0C"}}