{"cas_no": "1305-62-0", "cn_name": "\u6c22\u6c27\u5316\u9499", "en_name": ["Calcium hydroxide", "Calcium hydroxide (Ca(OH)2)", "Calcium hydroxide", "Lime water", "Hydrated lime", "Milk of lime", "Calcium dihydroxide", "Carboxide", "Kalkhydrate", "Biocalc", "Slaked lime", "Limbux", "Calvit", "Lime milk", "Hydralime", "Caldic 1000", "NICC 3000", "Lime hydrate", "Rhenofit CF", "SA 074", "Yukijirushisakanyo", "Calbit", "Kentoku K 100", "Super Microstar", "A-Rock", "Calbreed", "CH 2N", "TP 2B", "CLS-B", "Karutekku LT", "LoFloSorb", "Cal-Z", "Precal 54", "Microstar T", "TempCanal", "Calcicure", "Caldic 2000", "Ecolomaster", "Superia", "Yukijirushi Shosekkai", "Soprocal", "Rhein CF 1", "BTTE", "Calen", "Vitacal H", "High Purity Calcium Hydroxide CH", "Nekablanc 0", "HA 20", "HA 20 (hydroxide)", "Kalic", "SA 149", "Nekapur 2", "Ultradent-UltraCal XS", "JIS-R 9001", "HP-XL", "Omix C", "Calcium Hydroxide Plus Points", "Tamakalk-Spongiacal", "NICC 5000", "Lime Type S", "Lime S", "Sorbacal SP", "Sorbacal SPS", "CL 90S", "Tama Ace S", "CF 2000", "Fluorox E", "Okhotsk Calcium F 2000", "Okhotsk Calcium F 015", "Okhotsk Calcium OH-I", "Okhotsk Calcium OH", "Scallow S", "Rutaro", "Edelhydrate CL 90S", "JYH-S 01", "350M", "SL 90T", "Innovox OH", "CA 100T", "SuperCalco 97", "MeSH ID: D002126"], "SMILES": "[Ca](O)O", "physical_data": {"Molecular Weight": "", "Molecular Formula": "CaH2O2", "Melting Point": "580 \u00b0C (decomp)", "Density": "2.24 g/cm\u00b3"}}