{"cas_no": "13050-47-0", "cn_name": "3-\u7532\u57fa\u82ef\u7532\u9170\u80bc", "en_name": ["3-Methylbenzohydrazide", "Benzoic acid, 3-methyl-, hydrazide", "m-Toluic acid, hydrazide", "3-Methylbenzhydrazide", "m-Methylbenzoic acid hydrazide", "(m-Methylbenzoyl)hydrazine", "m-Toluic hydrazide", "3-Methylbenzoic acid hydrazide", "(3-Methylbenzoyl)hydrazine", "m-Toluoylhydrazine", "3-Methylbenzohydrazide", "3-Methylbenzenecarboxylic acid hydrazide", "m-Methylbenzoyl hydrazide", "3-Methylbenzoic hydrazide", "3-Toluic hydrazide", "NSC 116189"], "SMILES": "C(NN)(=O)C1=CC(C)=CC=C1", "physical_data": {"Molecular Weight": "150.18", "Molecular Formula": "C8H10N2O", "Melting Point": "96-98 \u00b0C"}}