{"cas_no": "13050-38-9", "cn_name": "\u7f9f\u57fa-\u4e8c\u82ef\u57fa-\u4e59\u9170\u80bc", "en_name": ["\u03b1-Hydroxy-\u03b1-phenylbenzeneacetic acid hydrazide", "Benzeneacetic acid, \u03b1-hydroxy-\u03b1-phenyl-, hydrazide", "Benzilic acid, hydrazide", "\u03b1-Hydroxy-\u03b1-phenylbenzeneacetic acid hydrazide", "Diphenylhydroxyacethydrazide", "Benziloyl hydrazide", "Hydroxydiphenylacetic acid hydrazide", "NSC 45251", "2-Hydroxy-2,2-diphenylacetic hydrazide", "2-Hydroxy-2,2-diphenylacetohydrazide", "2-Hydroxy-2,2-diphenylethanohydrazide"], "SMILES": "C(C(NN)=O)(O)(C1=CC=CC=C1)C2=CC=CC=C2", "physical_data": {"Molecular Weight": "242.27", "Molecular Formula": "C14H14N2O2", "Melting Point": "172 \u00b0C"}}