{"cas_no": "1305-78-8", "cn_name": "\u6c27\u5316\u9499", "en_name": ["Calcium oxide", "Calcium oxide (CaO)", "Calcium oxide", "Calx", "Calcium monoxide", "Caloxol W 3", "Calcia", "Calxyl", "Rhenosorb C", "Rhenosorb F", "Desical P", "Caloxol CP 2", "Burnt lime", "Calcia (CaO)", "Airlock", "Quicklime (CaO)", "CML 31", "Bell CML(E)", "CML 21", "CML 35", "Vesta PP", "QC-X", "Bell CML(P)", "Caloxal CPA", "CSQ", "CML 35S", "E 529", "FCA 8A", "F Raimu 1300D", "F Raimu 900K", "Nanotek CaO", "Mikuronraimu", "NanoActive CaO", "NanoActive CaO Plus", "Calciogreen", "Caltrac", "KSX", "Rhenogran CaO 80", "Bell CML 41", "Chelan", "Power-Ca", "Moisutoppu 10", "Borumikku", "Vesta 20", "NanoActive Calcium Oxide", "Shell Lime HTO", "Fishcal", "CAC 20209A", "Rhenofit F", "Moisutoppu 20", "Rhenofit C", "Stomilex", "Vesta QCX", "CA 602", "OM 1", "OM 1 (pigment)", "Polycal OFT 15", "DryPaste S 1", "Hyper Expan M", "Nekafin 2", "Polycal O 5325", "Polycal OS 325", "Caloxol CP 2HU", "CaO", "CL 90Q90", "CaO WFK Super 40", "CaO 80", "UPC-B 01", "JYQ-S 02", "F Raimu 1300K", "Calcium oxide (CaO)", "TK 107", "Rapidquell Quicklime CL 90Q", "Vesta 18", "WKF 40", "HAL-G", "Seisekkai J 1P", "Kezadol PCI", "HAL-J", "Kezadol DAB", "Calcium oxide (Ca0.49O0.51)", "F 1300K", "Nekafin 0", "CMB-EE 0B688", "Inovox SG", "UNI-OX", "Kezadol GR 80", "BYK 2616", "Byk 2616"], "SMILES": "[Ca]=O", "physical_data": {"Molecular Weight": "", "Molecular Formula": "CaO", "Boiling Point": "2850 \u00b0C", "Melting Point": "2572 \u00b0C", "Density": "3.3-3.4 g/cm\u00b3"}}