{"cas_no": "13058-16-7", "cn_name": "\u82ef\u7532\u6c27\u7fb0\u57fa-DL-\u8272\u6c28\u9178", "en_name": ["N-(Benzyloxycarbonyl)-DL-tryptophan", "Tryptophan, N-[(phenylmethoxy)carbonyl]-", "Tryptophan, N-carboxy-, N-benzyl ester, DL-", "DL-Tryptophan, N-[(phenylmethoxy)carbonyl]-", "N-[(Phenylmethoxy)carbonyl]tryptophan", "N-(Benzyloxycarbonyl)-DL-tryptophan", "DL-(Carbobenzyloxy)tryptophan", "N-Carbobenzyloxy-DL-tryptophan", "NSC 88478", "Cbz-DL-tryptophan", "2-[[(Benzyloxy)carbonyl]amino]-3-(1H-indol-3-yl)propanoic acid"], "SMILES": "C(C(NC(OCC1=CC=CC=C1)=O)C(O)=O)C=2C=3C(NC2)=CC=CC3", "physical_data": {"Molecular Weight": "338.36", "Molecular Formula": "C19H18N2O4", "Melting Point": "167 \u00b0C"}}