{"cas_no": "13053-81-1", "cn_name": "2-\u4e59\u9170\u6c28\u57fa\u567b\u5429", "en_name": ["N-2-Thienylacetamide", "Acetamide, N-2-thienyl-", "Thiophene, 2-acetamido-", "N-2-Thienylacetamide", "2-(Acetylamino)thiophene", "2-Acetamidothiophene"], "SMILES": "N(C(C)=O)C1=CC=CS1", "physical_data": {"Molecular Weight": "141.19", "Molecular Formula": "C6H7NOS", "Melting Point": "154-157 \u00b0C"}}