{"cas_no": "13051-21-3", "cn_name": "2,2-\u4e8c\u7532\u57fa\u4e19\u4e8c\u9178\u5355\u7532\u916f", "en_name": ["1-Methyl 2,2-dimethylpropanedioate", "Propanedioic acid, 2,2-dimethyl-, 1-methyl ester", "Malonic acid, dimethyl-, monomethyl ester", "Malonic acid, dimethyl-, methyl ester", "Propanedioic acid, dimethyl-, monomethyl ester", "1-Methyl 2,2-dimethylpropanedioate", "Methyl 2,2-dimethylmalonate", "3-Methoxy-2,2-dimethyl-3-oxopropanoic acid"], "SMILES": "C(C(OC)=O)(C(O)=O)(C)C", "physical_data": {"Molecular Weight": "146.14", "Molecular Formula": "C6H10O4", "Boiling Point": "78.5 \u00b0C @ Press: 20 Torr", "Melting Point": "35-38 \u00b0C", "Density": "1.0624 g/cm\u00b3 @ Temp: 20 \u00b0C"}}