{"cas_no": "13055-06-6", "cn_name": "2-\u6c28\u57fa\u5df4\u6bd4\u571f\u9178-N,N-\u4e8c\u4e59\u9178\u4e00\u6c34\u5408\u7269", "en_name": ["N-(Carboxymethyl)-N-(hexahydro-2,4,6-trioxo-5-pyrimidinyl)glycine", "Glycine, N-(carboxymethyl)-N-(hexahydro-2,4,6-trioxo-5-pyrimidinyl)-", "Acetic acid, [(hexahydro-2,4,6-trioxo-5-pyrimidinyl)imino]di-", "Barbituric acid, 5-[bis(carboxymethyl)amino]-", "N-(Carboxymethyl)-N-(hexahydro-2,4,6-trioxo-5-pyrimidinyl)glycine", "Uramil-N,N-diacetic acid", "Uramildiacetic acid", "NSC 28807", "2,2\u2032-[(2,4,6-Trioxohexahydro-5-pyrimidinyl)imino]diacetic acid", "2-[(Carboxymethyl)(2,4,6-trioxo-1,3-diazinan-5-yl)amino]acetic acid"], "SMILES": "N(CC(O)=O)(CC(O)=O)C1C(=O)NC(=O)NC1=O", "physical_data": {"Molecular Weight": "259.17", "Molecular Formula": "C8H9N3O7", "Melting Point": "240 \u00b0C (decomp)"}}