{"cas_no": "13057-72-2", "cn_name": "7-\u7f9f\u57fa\u5f02\u9ec4\u916e", "en_name": ["7-Hydroxyisoflavone", "4H-1-Benzopyran-4-one, 7-hydroxy-3-phenyl-", "Isoflavone, 7-hydroxy-", "7-Hydroxy-3-phenyl-4H-1-benzopyran-4-one", "7-Hydroxyisoflavone", "7-Hydroxy-3-phenylchromen-4-one", "NSC 607392", "7-Hydroxy-3-phenyl-4H-chromen-4-one"], "SMILES": "O=C1C=2C(OC=C1C3=CC=CC=C3)=CC(O)=CC2", "physical_data": {"Molecular Weight": "238.24", "Molecular Formula": "C15H10O3", "Melting Point": "215 \u00b0C"}}