{"cas_no": "13055-63-5", "cn_name": "2-\u7532\u57fa-5-(\u4e09\u6c1f\u7532\u57fa)\u82ef\u7532\u9178", "en_name": ["2-Methyl-5-(trifluoromethyl)benzoic acid", "Benzoic acid, 2-methyl-5-(trifluoromethyl)-", "2-Methyl-5-(trifluoromethyl)benzoic acid", "2-Methyl-5-trifluoromethylbenzoic acid", "5-Trifluoromethyl-2-methylbenzoic acid"], "SMILES": "C(O)(=O)C1=CC(C(F)(F)F)=CC=C1C", "physical_data": {"Molecular Weight": "204.15", "Molecular Formula": "C9H7F3O2", "Melting Point": "123.0-124.5 \u00b0C"}}