{"cas_no": "13051-49-5", "cn_name": "2-\u6c2f-3-\u6c27\u4ee3\u620a\u57fa\u4e59\u9178\u916f", "en_name": ["5-(Acetyloxy)-3-chloro-2-pentanone", "2-Pentanone, 5-(acetyloxy)-3-chloro-", "2-Pentanone, 3-chloro-5-hydroxy-, acetate", "5-(Acetyloxy)-3-chloro-2-pentanone", "5-Acetoxy-3-chloro-2-pentanone", "3-Chloro-4-oxopentyl acetate", "3-Chloro-5-acetoxy-2-pentanone", "3-Chloro-3-acetopropyl acetate"], "SMILES": "C(C(C(C)=O)Cl)COC(C)=O", "physical_data": {"Molecular Weight": "178.61", "Molecular Formula": "C7H11ClO3", "Boiling Point": "90-93 \u00b0C @ Press: 2 Torr", "Density": "1.165 g/cm\u00b3 @ Temp: 20 \u00b0C"}}