{"cas_no": "13057-17-5", "cn_name": "\u6eb4\u7532\u57fa\u7532\u57fa\u919a", "en_name": ["Bromomethyl methyl ether", "Methane, bromomethoxy-", "Ether, bromomethyl methyl", "Bromomethoxymethane", "Bromomethyl methyl ether", "Methoxymethyl bromide", "NSC 155338", "1-Bromomethyl methyl ether"], "SMILES": "C(OC)Br", "physical_data": {"Molecular Weight": "124.96", "Molecular Formula": "C2H5BrO", "Boiling Point": "87 \u00b0C"}}