{"cas_no": "13064-83-0", "cn_name": "\u53cd\u5f0f-4-\u7532\u57fa\u73af\u5df1\u7fa7\u9178", "en_name": ["trans-4-Methylcyclohexanecarboxylic acid", "Cyclohexanecarboxylic acid, 4-methyl-, trans-", "trans-4-Methylcyclohexanecarboxylic acid", "trans-4-Methylcyclohexane-1-carboxylic acid", "trans-4-Methylcyclohexanoic acid", "trans-4-Methylcyclohexylcarboxylic acid"], "SMILES": "C(O)(=O)C1CCC(C)CC1", "physical_data": {"Molecular Weight": "142.20", "Molecular Formula": "C8H14O2", "Boiling Point": "133-134 \u00b0C @ Press: 20.4 Torr", "Melting Point": "112 \u00b0C"}}