{"cas_no": "1306-23-6", "cn_name": "\u786b\u5316\u9549", "en_name": ["Cadmium sulfide", "Cadmium sulfide (CdS)", "Cadmium sulfide", "Cadmium Golden 366", "Cadmium Lemon Yellow 527", "Cadmium Primrose 819", "Cadmium Yellow 000", "Cadmium Yellow 892", "Cadmium Yellow 10G conc", "Cadmium Yellow Conc. Deep", "Cadmium Yellow Conc. Golden", "Cadmium Yellow Conc. Lemon", "Cadmium Yellow Conc. Primrose", "Cadmium Yellow OZ dark", "Cadmium Yellow Primrose 47-4100", "Cadmopur Golden Yellow N", "Cadmopur Yellow", "Capsebon", "Ferro Lemon Yellow", "Ferro Orange Yellow", "Ferro Yellow", "Cadmium yellow", "Cadmium sulfide yellow", "Cadmium monosulfide", "C. P. Golden Yellow 55", "PC 108", "Primrose 1466", "GSK (cadmium sulfide)", "Reckitt Yellow 12", "Sicotherm Yellow L 1001", "Cadmium Yellow ST", "Lumidot CdS 480", "FP 102"], "SMILES": "[Cd]=S", "physical_data": {"Molecular Weight": "", "Molecular Formula": "CdS", "Melting Point": "980 \u00b0C (sublm)", "Density": "4.8 g/cm\u00b3"}}