{"cas_no": "13062-76-5", "cn_name": "4-[2-(\u7532\u57fa\u6c28\u57fa)\u4e59\u57fa]\u82ef\u915a\u76d0\u9178\u76d0", "en_name": ["Phenol, 4-[2-(methylamino)ethyl]-, hydrochloride (1:1)", "Phenol, 4-[2-(methylamino)ethyl]-, hydrochloride (1:1)", "Phenol, p-[2-(methylamino)ethyl]-, hydrochloride", "Phenol, 4-[2-(methylamino)ethyl]-, hydrochloride", "N-Methyltyramine hydrochloride"], "SMILES": "C(CNC)C1=CC=C(O)C=C1.Cl", "physical_data": {"Molecular Weight": "", "Molecular Formula": "C9H13NO.ClH", "Melting Point": "145-147 \u00b0C"}}