{"cas_no": "130636-61-2", "cn_name": "4-(4-\u785d\u57fa\u82ef)\u54cc\u55ea-1-\u7fa7\u9178\u53d4\u4e01\u916f", "en_name": ["1,1-Dimethylethyl 4-[(4-nitrophenyl)methyl]-1-piperazinecarboxylate", "1-Piperazinecarboxylic acid, 4-[(4-nitrophenyl)methyl]-, 1,1-dimethylethyl ester", "1,1-Dimethylethyl 4-[(4-nitrophenyl)methyl]-1-piperazinecarboxylate", "4-(4-Nitrobenzyl)piperazine-1-carboxylic acid tert-butyl ester", "1-Boc-4-(4-Nitrobenzyl)piperazine"], "SMILES": "C(OC(C)(C)C)(=O)N1CCN(CC2=CC=C(N(=O)=O)C=C2)CC1", "physical_data": {"Molecular Weight": "321.37", "Molecular Formula": "C16H23N3O4", "Melting Point": "99-100 \u00b0C"}}