{"cas_no": "13063-04-2", "cn_name": "\u6c2f\u5316\u4e24\u9762\u9488\u78b1", "en_name": ["Nitidine, chloride", "[1,3]Benzodioxolo[5,6-c]phenanthridinium, 2,3-dimethoxy-12-methyl-, chloride (1:1)", "Nitidine, chloride", "[1,3]Benzodioxolo[5,6-c]phenanthridinium, 2,3-dimethoxy-12-methyl-, chloride", "NSC 146397", "SML 0610"], "SMILES": "C[N+]=1C=2C(C=3C(C1)=CC(OC)=C(OC)C3)=CC=C4C2C=C5C(=C4)OCO5.[Cl-]", "physical_data": {"Molecular Weight": "", "Molecular Formula": "C21H18NO4.Cl", "Melting Point": "283-286 \u00b0C"}}