{"cas_no": "1306-06-5", "cn_name": "\u7f9f\u78f7\u7070\u77f3", "en_name": ["Hydroxylapatite (Ca5(OH)(PO4)3)", "Hydroxylapatite (Ca5(OH)(PO4)3)", "Hydroxylapatite", "Monite", "Supertite 10", "Calcium hydroxyapatite", "Hydroxyapatite", "Tri-Tab", "Durapatite", "Apaceram", "HAP-B", "Synamel", "Hy-Apatite", "Interpore 500", "Apatite", "Interpore 200", "Boneceram P", "Bonfil", "FKI", "Apatite hydroxide (Ca10(PO4)6(OH)2)", "APAFILL-G", "AMDRY 6021", "Win 40350", "Alveograf", "Ceratite", "HA 300BP", "HW 004", "HA 200", "Captal R", "HW 004 (mineral)", "Captal 90", "HAP (mineral)", "HAP", "Captal", "Hydroxypol", "APP 600", "HAP 08NP", "PeriApatite", "ProOsteon", "Neobone", "SP 1", "Boneceram P-G 0", "Boneceram P-G 1", "Bone ject", "Boneceram K", "HAP-SC", "HAP 300", "Nukbone", "Captal 30", "Radiesse", "HAP 15NP", "Apapore", "Actifuse", "Cellyard-AX", "Apaceram-AX", "Captal 60-1", "Coralina HAP 200", "Engipore", "Apatite HAP", "CHT", "Bongros", "HAP 200", "P 218R", "Captal 30SD", "CHT Typell", "Apapore 60", "Apa-micron PP", "nano-SHAp-MHS 00405", "Cellyard", "HAP 100 (mineral)", "HAP 100", "Ostim 35", "nanoXIM.TCP 202", "nanoXIM.HAp 402", "Sintlife", "Micro-SHAp", "IHM 100P000", "Neo Active Apatite", "Fin-Granule", "Micro-SHAp IHM 100P000", "GAP 85UD", "Captal S", "Hydroxyapatite C", "BABI-HAP-N 100", "Radiesse K 100086592", "Metco 6903A", "CA-PATOH 018NP", "Kalident PF", "HAP 04", "GC 01-337"], "SMILES": "[Ca].P(=O)([O-])([O-])[O-].[OH-]", "physical_data": {"Molecular Weight": "", "Molecular Formula": "Ca.HO.O4P", "Melting Point": "1500 \u00b0C", "Density": "3.076 g/cm\u00b3 @ Temp: 18 \u00b0C"}}