{"cas_no": "1306-25-8", "cn_name": "\u78b2\u5316\u9549", "en_name": ["Cadmium telluride", "Cadmium telluride (CdTe)", "Cadmium telluride", "Irtran 6", "Cadmium monotelluride", "Cadmium telluride (Cd0.5Te0.5)"], "SMILES": "[Cd]=[Te]", "physical_data": {"Molecular Weight": "", "Molecular Formula": "CdTe", "Melting Point": "1100 \u00b0C", "Density": "5.57 g/cm\u00b3"}}