{"cas_no": "1306-24-7", "cn_name": "\u7852\u5316\u9549", "en_name": ["Cadmium selenide", "Cadmium selenide (CdSe)", "Cadmium selenide", "Cadmium Colours", "Cadmium monoselenide", "Red BBS", "Lumidot CdSe 520", "Cadmium selenide (Cd0.5Se0.5)"], "SMILES": "[Cd]=[Se]", "physical_data": {"Molecular Weight": "", "Molecular Formula": "CdSe", "Melting Point": "1258 \u00b0C", "Density": "5.816 g/cm\u00b3"}}