{"cas_no": "130693-82-2", "cn_name": "\u76d0\u9178\u591a\u4f50\u80fa", "en_name": ["Dorzolamide hydrochloride", "4H-Thieno[2,3-b]thiopyran-2-sulfonamide, 4-(ethylamino)-5,6-dihydro-6-methyl-, 7,7-dioxide, hydrochloride (1:1), (4S,6S)-", "4H-Thieno[2,3-b]thiopyran-2-sulfonamide, 4-(ethylamino)-5,6-dihydro-6-methyl-, 7,7-dioxide, monohydrochloride, (4S-trans)-", "4H-Thieno[2,3-b]thiopyran-2-sulfonamide, 4-(ethylamino)-5,6-dihydro-6-methyl-, 7,7-dioxide, monohydrochloride, (4S,6S)-", "L 671152", "MK 507", "Trusopt", "Dorzolamide hydrochloride", "(S,S)-(-)-5,6-Dihydro-4-ethylamino-6-methyl-4H-thieno[2,3-b]thiopyran-2-sulfonamide-7,7-dioxide monohydrochloride", "Biosopt", "(4S,6S)-4-(Ethylamino)-5,6-dihydro-6-methyl-4H-thieno-[2,3-b]thiopyran-2-sulfonamide 7,7-dioxide hydrochloride"], "SMILES": "O=S1(=O)C2=C(C(NCC)CC1C)C=C(S(N)(=O)=O)S2.Cl", "physical_data": {"Molecular Weight": "", "Molecular Formula": "C10H16N2O4S3.ClH", "Melting Point": "283-285 \u00b0C"}}