{"cas_no": "13060-14-5", "cn_name": "\u9e45\u638c\u6978\u6811\u8102\u915aB\u4e8c\u7532\u919a", "en_name": ["(+)-Yangambin", "1H,3H-Furo[3,4-c]furan, tetrahydro-1,4-bis(3,4,5-trimethoxyphenyl)-, (1S,3aR,4S,6aR)-", "Yangambin", "1H,3H-Furo[3,4-c]furan, 3a\u03b1,4,6,6a\u03b1-tetrahydro-1\u03b1,4\u03b1-bis(3,4,5-trimethoxyphenyl)-", "1H,3H-Furo[3,4-c]furan, tetrahydro-1,4-bis(3,4,5-trimethoxyphenyl)-, [1S-(1\u03b1,3a\u03b1,4\u03b1,6a\u03b1)]-", "Lirioresinol B, dimethyl-", "(1S,3aR,4S,6aR)-Tetrahydro-1,4-bis(3,4,5-trimethoxyphenyl)-1H,3H-furo[3,4-c]furan", "(+)-O,O-Dimethyllirioresinol B", "Lirioresinol B, O,O-dimethyl-", "Lirioresinol B dimethyl ether", "O,O-Dimethyllirioresinol B", "(+)-Yangambin", "(+)-Yangabin", "Yangabin"], "SMILES": "O(C)C=1C=C(C2C3C(C(OC3)C4=CC(OC)=C(OC)C(OC)=C4)CO2)C=C(OC)C1OC", "physical_data": {"Molecular Weight": "446.49", "Molecular Formula": "C24H30O8", "Melting Point": "105-106 \u00b0C"}}