{"cas_no": "13061-28-4", "cn_name": "1-(2,4,5-\u4e09\u6c2f\u82ef\u57fa)-1-\u4e59\u916e", "en_name": ["1-(2,4,5-Trichlorophenyl)ethanone", "Ethanone, 1-(2,4,5-trichlorophenyl)-", "Acetophenone, 2\u2032,4\u2032,5\u2032-trichloro-", "1-(2,4,5-Trichlorophenyl)ethanone", "2\u2032,4\u2032,5\u2032-Trichloroacetophenone", "1-(2,4,5-Trichlorophenyl)ethan-1-one"], "SMILES": "C(C)(=O)C1=C(Cl)C=C(Cl)C(Cl)=C1", "physical_data": {"Molecular Weight": "223.48", "Molecular Formula": "C8H5Cl3O", "Boiling Point": "128-132 \u00b0C @ Press: 1.5 Torr", "Melting Point": "47 \u00b0C"}}