{"cas_no": "13067-93-1", "cn_name": "\u82ef\u8148\u78f7", "en_name": ["Cyanofenphos", "Phosphonothioic acid, P-phenyl-, O-(4-cyanophenyl) O-ethyl ester", "Phosphonothioic acid, phenyl-, O-ethyl ester, O-ester with p-hydroxybenzonitrile", "Phosphonothioic acid, phenyl-, O-(4-cyanophenyl) O-ethyl ester", "Phosphonothioic acid, phenyl-, O-p-cyanophenyl O-ethyl ester", "S 4087", "Monsanto CP-19699", "Surecide", "B 10094", "CP 19699", "Cyanophenphos", "CYP (cyanofenphos)", "O-Ethyl O-(4-cyanophenyl) phenylphosphonothioate", "Cyanofenphos", "OMS 870", "Surazon", "SUD"], "SMILES": "P(OC1=CC=C(C#N)C=C1)(OCC)(=S)C2=CC=CC=C2", "physical_data": {"Molecular Weight": "303.32", "Molecular Formula": "C15H14NO2PS", "Melting Point": "83 \u00b0C"}}