{"cas_no": "13067-19-1", "cn_name": "N-(\u82ef\u5e76[D][1,3]\u4e8c\u6c27\u620a\u73af-5-\u57fa)\u4e59\u9170\u80fa", "en_name": ["N-1,3-Benzodioxol-5-ylacetamide", "Acetamide, N-1,3-benzodioxol-5-yl-", "Acetanilide, 3\u2032,4\u2032-(methylenedioxy)-", "N-1,3-Benzodioxol-5-ylacetamide", "N-(1,3-Benzodioxol-5-yl)acetamide", "1-Acetamido-3,4-(methylenedioxy)benzene", "3\u2032,4\u2032-(Methylenedioxy)acetanilide", "3,4-Methylenedioxyacetanilide", "NSC 159113", "N-(Benzo[d][1,3]dioxol-5-yl)acetamide"], "SMILES": "N(C(C)=O)C=1C=C2C(=CC1)OCO2", "physical_data": {"Molecular Weight": "179.17", "Molecular Formula": "C9H9NO3", "Melting Point": "135-136 \u00b0C"}}