{"cas_no": "13063-43-9", "cn_name": "\u4e8c\u6c2f\u4e19\u4e8c\u8148", "en_name": ["2,2-Dichloropropanedinitrile", "Propanedinitrile, 2,2-dichloro-", "Malononitrile, dichloro-", "Propanedinitrile, dichloro-", "2,2-Dichloropropanedinitrile", "Dichlorodicyanomethane", "Dichloromalononitrile", "Dichloromalonodinitrile", "NSC 89686", "2,2-Dichloromalononitrile", "2,2-Dichloro-malononitrile"], "SMILES": "C(C#N)(C#N)(Cl)Cl", "physical_data": {"Molecular Weight": "134.95", "Molecular Formula": "C3Cl2N2", "Boiling Point": "97 \u00b0C"}}