{"cas_no": "1306-19-0", "cn_name": "\u6c27\u5316\u9549", "en_name": ["Cadmium oxide", "Cadmium oxide (CdO)", "Cadmium oxide", "Cadmium monoxide", "Cadmia"], "SMILES": "[Cd]=O", "physical_data": {"Molecular Weight": "", "Molecular Formula": "CdO", "Melting Point": "1230 \u00b0C", "Density": "8.15 g/cm\u00b3"}}