{"cas_no": "130676-64-1", "cn_name": "\u5965\u5229\u53f8\u4ed6\u4e8c\u6c22\u5421\u5583\u916e\u6742\u8d28", "en_name": ["2H-Pyran-2-one, 3-hexyl-5,6-dihydro-6-undecyl-, (S)-", "2H-Pyran-2-one, 3-hexyl-5,6-dihydro-6-undecyl-, (S)-"], "SMILES": "C(CCCCCCCCCC)C1OC(=O)C(CCCCCC)=CC1", "physical_data": {"Molecular Weight": "336.55", "Molecular Formula": "C22H40O2", "Melting Point": "51-53 \u00b0C"}}