{"cas_no": "13078-82-5", "cn_name": "4-\u6c28\u57fa\u82ef\u4e59\u80fa\u53cc\u76d0\u9178\u76d0", "en_name": ["Benzeneethanamine, 4-amino-, hydrochloride (1:2)", "Benzeneethanamine, 4-amino-, hydrochloride (1:2)", "Phenethylamine, p-amino-, dihydrochloride", "Benzeneethanamine, 4-amino-, dihydrochloride", "4-(2-Aminoethyl)aniline dihydrochloride", "4-Aminobenzeneethanamine dihydrochloride", "4-Aminophenethylamine dihydrochloride", "2-(4-Aminophenyl)ethylamine Dihydrochloride"], "SMILES": "C(CN)C1=CC=C(N)C=C1.Cl", "physical_data": {"Molecular Weight": "", "Molecular Formula": "C8H12N2.2ClH", "Melting Point": "296 \u00b0C (decomp)"}}