{"cas_no": "1307-96-6", "cn_name": "\u6c27\u5316\u94b4", "en_name": ["Cobalt oxide (CoO)", "Cobalt oxide (CoO)", "C.I. 77322", "Cobalt Black", "Cobalt monoxide", "Cobaltous oxide", "C.I. Pigment Black 13", "Zaffre", "Cobalt oxide", "Cobalt monooxide", "Cobalt(2+) oxide", "Cobalt(II) oxide", "Cobaltous oxide (CoO)", "FCO 178", "SP 301"], "SMILES": "[Co]=O", "physical_data": {"Molecular Weight": "", "Molecular Formula": "CoO", "Melting Point": "~1935 \u00b0C (approx)"}}