{"cas_no": "13076-17-0", "cn_name": "D(+)-\u4e19\u4ea4\u916f", "en_name": ["D-Lactide", "1,4-Dioxane-2,5-dione, 3,6-dimethyl-, (3R,6R)-", "p-Dioxane-2,5-dione, 3,6-dimethyl-, D-", "1,4-Dioxane-2,5-dione, 3,6-dimethyl-, (3R-cis)-", "(3R,6R)-3,6-Dimethyl-1,4-dioxane-2,5-dione", "D-Lactide", "D-(+)-Lactide", "DD-lactide", "1,4-Dioxane-2,5-dione, 3,6-dimethyl-, (3R,5R)-", "D,D-Dilactide", "D-Dilactide", "Purasorb D", "PuraLact D", "(R,R)-3,6-Di-methyl-1,4-dioxane-2,5-dione"], "SMILES": "CC1C(=O)OC(C)C(=O)O1", "physical_data": {"Molecular Weight": "144.13", "Molecular Formula": "C6H8O4", "Melting Point": "96.5-97.5 \u00b0C"}}