{"cas_no": "13074-65-2", "cn_name": "2-\u5df1\u57fa\u73af\u620a\u916e", "en_name": ["2-Hexylcyclopentanone", "Cyclopentanone, 2-hexyl-", "2-Hexylcyclopentanone", "2-n-Hexylcyclopentanone", "2-Hexyl-1-cyclopentanone", "Jasmatone"], "SMILES": "C(CCCCC)C1C(=O)CCC1", "physical_data": {"Molecular Weight": "168.28", "Molecular Formula": "C11H20O", "Boiling Point": "118 \u00b0C @ Press: 10 Torr"}}