{"cas_no": "13071-11-9", "cn_name": "\u76d0\u9178\u666e\u5948\u6d1b\u5c14", "en_name": ["(+)-Propranolol hydrochloride", "2-Propanol, 1-[(1-methylethyl)amino]-3-(1-naphthalenyloxy)-, hydrochloride (1:1), (2R)-", "2-Propanol, 1-(isopropylamino)-3-(1-naphthyloxy)-, hydrochloride, (+)-", "2-Propanol, 1-[(1-methylethyl)amino]-3-(1-naphthalenyloxy)-, hydrochloride, (R)-", "2-Propanol, 1-[(1-methylethyl)amino]-3-(1-naphthalenyloxy)-, hydrochloride, (2R)-", "(+)-Propranolol hydrochloride", "d-Propranolol hydrochloride", "(+)-1-(Isopropylamino)-3-(1-naphthyloxy)-2-propanol hydrochloride", "Dexpropranolol hydrochloride", "AY 20694", "R-(+)-1-Isopropylamino-3-(1-naphthoxy)-2-propanol hydrochloride", "ICI 47319", "d-Anapriline", "(R)-(+)-Propranolol hydrochloride", "(R)-Propranolol hydrochloride", "(+)-Anapriline", "(R)-1-(Isopropylamino)-3-(naphthalen-1-yloxy)propan-2-ol hydrochloride"], "SMILES": "O(CC(CNC(C)C)O)C=1C2=C(C=CC1)C=CC=C2.Cl", "physical_data": {"Molecular Weight": "", "Molecular Formula": "C16H21NO2.ClH", "Melting Point": "192 \u00b0C"}}