{"cas_no": "13078-76-7", "cn_name": "3,4-\u4e8c\u7532\u6c27\u57fa-N-\u7532\u57fa\u82ef\u4e59\u80fa\u76d0\u9178\u76d0", "en_name": ["Benzeneethanamine, 3,4-dimethoxy-N-methyl-, hydrochloride (1:1)", "Benzeneethanamine, 3,4-dimethoxy-N-methyl-, hydrochloride (1:1)", "Phenethylamine, 3,4-dimethoxy-N-methyl-, hydrochloride", "Benzeneethanamine, 3,4-dimethoxy-N-methyl-, hydrochloride", "N-Methyl-3,4-dimethoxyphenethylamine hydrochloride", "N-Methyl-3,4-dimethoxybenzeneethanamine hydrochloride", "[2-(3,4-Dimethoxyphenyl)ethyl](methyl)amine hydrochloride", "3,4-Dimethoxy-N-methylphenethylamine hydrochloride", "2-(3,4-Dimethoxyphenyl)-N-methylethanamine hydrochloride"], "SMILES": "O(C)C1=C(OC)C=CC(CCNC)=C1.Cl", "physical_data": {"Molecular Weight": "", "Molecular Formula": "C11H17NO2.ClH", "Melting Point": "167 \u00b0C"}}