{"cas_no": "13074-06-1", "cn_name": "L-\u5ca9\u85fb\u7cd6\u9187", "en_name": ["L-Fucitol", "D-Galactitol, 1-deoxy-", "Galactitol, 1-deoxy-, D-", "Fucitol, L-", "1-Deoxy-D-galactitol", "L-Galactitol, 6-deoxy-", "L-Fucitol", "6-Deoxy-L-galactitol", "NSC 1957"], "SMILES": "C(C(C(C)O)O)(C(CO)O)O", "physical_data": {"Molecular Weight": "166.17", "Molecular Formula": "C6H14O5", "Melting Point": "154-156 \u00b0C"}}