{"cas_no": "13078-80-3", "cn_name": "2-\u6c2f\u82ef\u4e59\u80fa", "en_name": ["2-(2-Chlorophenyl)ethylamine", "Benzeneethanamine, 2-chloro-", "Phenethylamine, o-chloro-", "2-Chlorobenzeneethanamine", "o-Chlorophenethylamine", "o-Chlorophenylethylamine", "2-(2-Chlorophenyl)ethylamine", "2-Chlorophenethylamine", "2-(2-Aminoethyl)chlorobenzene", "2-(2-Chlorophenyl)ethanamine", "2-(2-Chlorophenyl)ethan-1-amine"], "SMILES": "C(CN)C1=C(Cl)C=CC=C1", "physical_data": {"Molecular Weight": "155.62", "Molecular Formula": "C8H10ClN", "Boiling Point": "128 \u00b0C @ Press: 23-26 Torr", "Melting Point": "145 \u00b0C"}}