{"cas_no": "13071-60-8", "cn_name": "1,2-O-\u53cc\u5341\u516d\u70f7\u57fa-rac-\u7518\u6cb9", "en_name": ["1,2-Di-O-hexadecylglycerol", "1-Propanol, 2,3-bis(hexadecyloxy)-", "1-Propanol, 2,3-bis(hexadecyloxy)-, (\u00b1)-", "2,3-Bis(hexadecyloxy)-1-propanol", "rac-1,2-Dihexadecylglycerol", "1,2-Di-O-hexadecylglycerol", "2,3-Dihexadecoxypropan-1-ol"], "SMILES": "C(COCCCCCCCCCCCCCCCC)(OCCCCCCCCCCCCCCCC)CO", "physical_data": {"Molecular Weight": "540.94", "Molecular Formula": "C35H72O3", "Melting Point": "54 \u00b0C"}}