{"cas_no": "13074-31-2", "cn_name": "(+/-)-\u56db\u6c22\u7f42\u7c9f\u78b1", "en_name": ["(\u00b1)-Tetrahydropapaverine", "Isoquinoline, 1-[(3,4-dimethoxyphenyl)methyl]-1,2,3,4-tetrahydro-6,7-dimethoxy-", "Isoquinoline, 1,2,3,4-tetrahydro-6,7-dimethoxy-1-veratryl-", "1-[(3,4-Dimethoxyphenyl)methyl]-1,2,3,4-tetrahydro-6,7-dimethoxyisoquinoline", "Tetrahydropapaverine", "1-(3,4-Dimethoxybenzyl)-6,7-dimethoxy-1,2,3,4-tetrahydroisoquinoline", "1,2,3,4-Tetrahydropapaverine", "(\u00b1)-Tetrahydropapaverine", "(\u00b1)-N-Norlaudanosine", "(\u00b1)-Norlaudanosine"], "SMILES": "C(C1C=2C(=CC(OC)=C(OC)C2)CCN1)C3=CC(OC)=C(OC)C=C3", "physical_data": {"Molecular Weight": "343.42", "Molecular Formula": "C20H25NO4", "Melting Point": "142 \u00b0C"}}