{"cas_no": "13074-39-0", "cn_name": "2-\u6c28\u57fa\u91d1\u521a\u70f7", "en_name": ["2-Aminoadamantane", "Tricyclo[3.3.1.13,7]decan-2-amine", "2-Adamantanamine", "2-Aminoadamantane", "2-Adamantylamine", "JP 60", "2-Amantadine", "Tricyclo[3.3.1.13,7]decan-2-amine, (\u00b1)-", "NSC 127842", "(Adamantan-2-yl)amine", "2-Adamantaneamine"], "SMILES": "NC1C2CC3CC1CC(C2)C3", "physical_data": {"Molecular Weight": "151.25", "Molecular Formula": "C10H17N", "Melting Point": "230-236 \u00b0C"}}