{"cas_no": "13072-69-0", "cn_name": "N-(1-\u91d1\u521a\u70f7)-\u5c3f\u7d20", "en_name": ["1-Adamantylurea", "Urea, N-tricyclo[3.3.1.13,7]dec-1-yl-", "Urea, (1-adamantyl)-", "Urea, tricyclo[3.3.1.13,7]dec-1-yl-", "N-Tricyclo[3.3.1.13,7]dec-1-ylurea", "1-Adamantylurea", "1-(1-Adamantyl)urea", "N-(1-Adamantyl)urea", "NSC 114904"], "SMILES": "N(C(N)=O)C12CC3CC(C1)CC(C2)C3", "physical_data": {"Molecular Weight": "194.27", "Molecular Formula": "C11H18N2O", "Melting Point": "158-161 \u00b0C"}}