{"cas_no": "13078-21-2", "cn_name": "2-\u7532\u6c27\u57fa\u82ef\u6c27\u57fa\u4e59\u9178\u4e59\u916f", "en_name": ["Acetic acid, 2-(2-methoxyphenoxy)-, ethyl ester", "Acetic acid, 2-(2-methoxyphenoxy)-, ethyl ester", "Acetic acid, (o-methoxyphenoxy)-, ethyl ester", "Acetic acid, (2-methoxyphenoxy)-, ethyl ester", "Ethyl 2-(2-methoxyphenoxy)acetate", "Ethyl (2-methoxyphenoxy)acetate"], "SMILES": "O(CC(OCC)=O)C1=C(OC)C=CC=C1", "physical_data": {"Molecular Weight": "210.23", "Molecular Formula": "C11H14O4", "Boiling Point": "116 \u00b0C @ Press: 0.2 Torr"}}