{"cas_no": "13073-35-3", "cn_name": "L-\u4e59\u786b\u80fa\u9178", "en_name": ["L-Ethionine", "L-Homocysteine, S-ethyl-", "Butyric acid, 2-amino-4-(ethylthio)-, L-", "S-Ethyl-L-homocysteine", "L-Ethionine", "Ethionine", "Butanoic acid, 2-amino-4-(ethylthio)-, (S)-", "S-Ethylhomocysteine", "ETH", "NSC 82393", "(2S)-2-Amino-4-(ethylsulfanyl)butanoic acid", "(2S)-2-Azaniumyl-4-ethylsulfanylbutanoate"], "SMILES": "C(CCSCC)(C(O)=O)N", "physical_data": {"Molecular Weight": "163.24", "Molecular Formula": "C6H13NO2S", "Melting Point": "272-274 \u00b0C (decomp)"}}