{"cas_no": "13071-79-9", "cn_name": "\u7279\u4e01\u78f7", "en_name": ["Terbufos", "Phosphorodithioic acid, S-[[(1,1-dimethylethyl)thio]methyl] O,O-diethyl ester", "Phosphorodithioic acid, S-[(tert-butylthio)methyl] O,O-diethyl ester", "Methanethiol, (tert-butylthio)-, S-ester with O,O-diethyl phosphorodithioate", "O,O-Diethyl S-(tert-butylthio)methyl phosphorodithioate", "Counter", "AC 92100", "S-[(tert-Butylthio)methyl] O,O-diethyl phosphorodithioate", "Terbufos", "Counter 15G", "O,O-Diethyl S-[[(1,1-dimethylethyl)thio]methyl] phosphorodithioate", "Cyanater", "Terbuphos", "Terbutifos", "Counter 20G"], "SMILES": "P(SCSC(C)(C)C)(OCC)(OCC)=S", "physical_data": {"Molecular Weight": "288.43", "Molecular Formula": "C9H21O2PS3", "Boiling Point": "69 \u00b0C @ Press: 0.01 Torr", "Melting Point": "-29 \u00b0C", "Density": "1.105 g/cm\u00b3 @ Temp: 24 \u00b0C"}}