{"cas_no": "13080-86-9", "cn_name": "2,2'-\u53cc[4-(4-\u6c28\u57fa\u82ef\u6c27\u57fa\u82ef\u57fa)]\u4e19\u70f7", "en_name": ["2,2-Bis[4-(4-aminophenoxy)phenyl]propane", "Benzenamine, 4,4\u2032-[(1-methylethylidene)bis(4,1-phenyleneoxy)]bis-", "Aniline, 4,4\u2032-[isopropylidenebis(p-phenyleneoxy)]di-", "4,4\u2032-[(1-Methylethylidene)bis(4,1-phenyleneoxy)]bis[benzenamine]", "2,2-Bis[p-(4-aminophenoxy)phenyl]propane", "2,2-Bis[4-(4-aminophenoxy)phenyl]propane", "4,4\u2032-[Isopropylidenebis(1,4-phenylene)dioxy]dianiline", "Bisphenol A bis(4-aminophenyl) ether", "BAPP", "Cheminox CLP 5250", "CLP 5250", "KA 4", "4-[4-[2-[4-(4-Aminophenoxy)phenyl]propan-2-yl]phenoxy]benzenamine", "4,4\u2032-Propane-2,2-diylbis(4,1-phenyleneoxy)dianiline", "4,4\u2032-(4,4\u2032-Isopropylidenediphenyl-1,1\u2032-diyldioxy)dianiline", "Norcure 1313-50", "[4-(4-[1-[4-(4-Aminophenoxy)phenyl]-1-methylethyl]phenoxy)phenyl]amine", "p-BAPP"], "SMILES": "C(C)(C)(C1=CC=C(OC2=CC=C(N)C=C2)C=C1)C3=CC=C(OC4=CC=C(N)C=C4)C=C3", "physical_data": {"Molecular Weight": "410.51", "Molecular Formula": "C27H26N2O2", "Melting Point": "126-128 \u00b0C"}}