{"cas_no": "13080-89-2", "cn_name": "4,4'-\u53cc(4-\u6c28\u57fa\u82ef\u6c27\u57fa)\u4e8c\u82ef\u781c", "en_name": ["4,4\u2032-[Sulfonylbis(4,1-phenyleneoxy)]bis[benzenamine]", "Benzenamine, 4,4\u2032-[sulfonylbis(4,1-phenyleneoxy)]bis-", "Aniline, 4,4\u2032-[sulfonylbis(p-phenyleneoxy)]di-", "4,4\u2032-[Sulfonylbis(4,1-phenyleneoxy)]bis[benzenamine]", "Bis[4-(4-aminophenoxy)phenyl] sulfone", "Bis[p-(p-aminophenoxy)phenyl] sulfone", "4,4\u2032-[Sulfonylbis(p-phenyleneoxy)]dianiline", "4,4\u2032-Bis(4-aminophenoxy)diphenyl sulfone", "SED", "Bis[4-(4\u2032-aminophenoxy)phenyl) sulfone", "4,4\u2032-(Sulfonylbis(4,1-phenylene))bis(oxy)dianiline", "BAPS"], "SMILES": "S(=O)(=O)(C1=CC=C(OC2=CC=C(N)C=C2)C=C1)C3=CC=C(OC4=CC=C(N)C=C4)C=C3", "physical_data": {"Molecular Weight": "432.49", "Molecular Formula": "C24H20N2O4S", "Melting Point": "188-191 \u00b0C"}}