{"cas_no": "13080-90-5", "cn_name": "5-\u964d\u51b0\u7247\u70ef-2-\u9187", "en_name": ["5-Norbornen-2-ol", "Bicyclo[2.2.1]hept-5-en-2-ol", "5-Norbornen-2-ol", "5-Hydroxybicyclo[2.2.1]hept-2-ene", "NSC 50234"], "SMILES": "OC1C2CC(C1)C=C2", "physical_data": {"Molecular Weight": "110.15", "Molecular Formula": "C7H10O", "Melting Point": "105 \u00b0C"}}