{"cas_no": "13089-18-4", "cn_name": "PHENYL N-ACETYL-\u0391-D-GALACTOSAMINIDE", "en_name": ["Phenyl N-acetyl-\u03b1-D-galactosaminide", "\u03b1-D-Galactopyranoside, phenyl 2-(acetylamino)-2-deoxy-", "Galactopyranoside, phenyl 2-acetamido-2-deoxy-, \u03b1-D-", "Phenyl 2-(acetylamino)-2-deoxy-\u03b1-D-galactopyranoside", "Phenyl 2-acetamido-2-deoxy-\u03b1-D-galactopyranoside", "Phenyl N-acetyl-\u03b1-D-galactosaminoside", "Phenyl \u03b1-N-acetylgalactosaminide", "Phenyl N-acetyl-\u03b1-D-galactosaminide"], "SMILES": "N(C(C)=O)C1C(OC2=CC=CC=C2)OC(CO)C(O)C1O", "physical_data": {"Molecular Weight": "297.30", "Molecular Formula": "C14H19NO6", "Melting Point": "248 \u00b0C (decomp)"}}