{"cas_no": "13083-94-8", "cn_name": "1,6-\u4e8c(\u4e09\u6c2f\u78fa\u9170\u57fa)\u5df1\u70f7", "en_name": ["1,1\u2032-(1,6-Hexanediyl)bis[1,1,1-trichlorosilane]", "Silane, 1,1\u2032-(1,6-hexanediyl)bis[1,1,1-trichloro-", "1,8-Disilaoctane, 1,1,1,8,8,8-hexachloro-", "Silane, 1,6-hexanediylbis[trichloro-", "1,1\u2032-(1,6-Hexanediyl)bis[1,1,1-trichlorosilane]", "1,6-Bis(trichlorosilyl)hexane"], "SMILES": "C([Si](Cl)(Cl)Cl)CCCCC[Si](Cl)(Cl)Cl", "physical_data": {"Molecular Weight": "353.05", "Molecular Formula": "C6H12Cl6Si2", "Boiling Point": "148-150 \u00b0C @ Press: 10 Torr", "Density": "1.327 g/cm\u00b3"}}