{"cas_no": "1308-38-9", "cn_name": "\u4e09\u6c27\u5316\u4e8c\u94ec", "en_name": ["Chromia", "Chromium oxide (Cr2O3)", "11661 Green", "C.I. 77288", "Casalis Green", "Chrome green", "Chromium Oxide Green", "Chromium Oxide Pigment", "Chromium Oxide X1134", "Chromium sesquioxide", "Green Chrome Oxide", "Green cinnabar", "Green Oxide of Chromium", "Levanox Green GA", "Pure Chromium Oxide Green 59", "Chromic oxide", "Chromia", "Green chromic oxide", "Chromium trioxide (Cr2O3)", "Dichromium trioxide", "Chromium oxide", "C.I. Pigment Green 17", "Chromium(3+) oxide", "Chrome Oxide Green GN-M", "Green chromium oxide", "P 106F10", "Chrome Oxide Green BX", "PK 5304", "OKhP 1", "Chrome Oxide Green GN", "Amperit 704.0", "Chrome Oxide Green GP", "Amdry 6410", "G 112 (oxide)", "G 112", "Sicopal Green 9996", "Chrome Green G 7", "LC 4", "LC 4 (ceramic)", "Chrome Green F 3", "CRO 2A", "200P2", "Metco A-F 15", "Kromex U 1", "G 4099", "G 7", "Chromium oxide (Cr0.67O)", "G 5", "G 5 (abrasive)", "E 410", "E 410 (catalyst)", "Nanox S 2400", "PG 17", "Pigment Green 17", "Black 10P922", "Geode V 775", "Eclipse Green 10241", "Oxide Green PE 621", "Arctic Black 10C909", "Shepherd Black 10C909", "Shepherd Black 10C909A", "Shepherd 10C909A", "Black 10C909", "Unicer 166", "DK 412", "Green Chromium Oxide GN", "Colortherm Green GN", "Black 10C909A", "SGC", "G 105", "GR 30C654", "Shepherd Green 30C654", "Colortherm Green GN-M", "Newport Chrome", "G 8599", "Green GN-M", "42-703A", "JM 205", "Amdry 6420", "KFB 17"], "SMILES": "", "physical_data": {"Molecular Weight": "", "Molecular Formula": "Cr2O3", "Boiling Point": "4000 \u00b0C", "Melting Point": "2435 \u00b0C", "Density": "5.22 g/cm\u00b3 @ Temp: 25 \u00b0C"}}