{"cas_no": "13086-84-5", "cn_name": "\u4e8c\u53d4\u4e01\u57fa\u4e9a\u78f7\u9178\u76d0", "en_name": ["Di-tert-butyl phosphite", "Phosphonic acid, bis(1,1-dimethylethyl) ester", "Phosphonic acid, di-tert-butyl ester", "tert-Butyl phosphonate ((C4H9O)2PH(O))", "Di-tert-butyl phosphonate", "Di-tert-butyl phosphite", "tert-Butyl phosphite ((C4H9O)2P(OH))", "2-Methyl-2-[(2-methylpropan-2-yl)oxyphosphonoyloxy]propane"], "SMILES": "O(C(C)(C)C)P(OC(C)(C)C)=O", "physical_data": {"Molecular Weight": "194.21", "Molecular Formula": "C8H19O3P", "Boiling Point": "62-62.5 \u00b0C @ Press: 4 Torr", "Melting Point": "&gt;235 \u00b0C (decomp)", "Density": "0.975 g/cm\u00b3 @ Temp: 25 \u00b0C"}}