{"cas_no": "1308-96-9", "cn_name": "\u6c27\u5316\u94d5", "en_name": ["Europium oxide", "Europium oxide (Eu2O3)", "Europia", "Europium sesquioxide", "Dieuropium trioxide", "Europium oxide", "Europium(3+) oxide", "Europium trioxide", "Europia (Eu2O3)", "Europium(III) oxide", "Europium oxide (EuO1.5)"], "SMILES": "", "physical_data": {"Molecular Weight": "", "Molecular Formula": "Eu2O3", "Melting Point": "2240 \u00b0C"}}