{"cas_no": "1308-04-9", "cn_name": "\u4e09\u6c27\u5316\u4e8c\u94b4", "en_name": ["Cobalt oxide (Co2O3)", "Cobalt oxide (Co2O3)", "C.I. 77323", "Cobaltic oxide", "Cobalt peroxide", "Dicobalt trioxide", "Cobalt trioxide", "Dicobalt oxide", "Cobalt(3+) oxide", "Cobalt sesquioxide", "Cobalt(III) oxide", "Cobalt oxide (CoO1.5)"], "SMILES": "", "physical_data": {"Molecular Weight": "", "Molecular Formula": "Co2O3", "Melting Point": "895 \u00b0C (decomp)", "Density": "5.2 g/cm\u00b3"}}