{"cas_no": "130848-06-5", "cn_name": "\u7d2b\u82b1\u524d\u80e1\u9187\u5f53\u5f52\u9178\u916f", "en_name": ["Decursinol angelate", "2-Butenoic acid, 2-methyl-, (7S)-7,8-dihydro-8,8-dimethyl-2-oxo-2H,6H-benzo[1,2-b:5,4-b\u2032]dipyran-7-yl ester, (2Z)-", "2-Butenoic acid, 2-methyl-, 7,8-dihydro-8,8-dimethyl-2-oxo-2H,6H-benzo[1,2-b:5,4-b\u2032]dipyran-7-yl ester, [S-(Z)]-", "2H,6H-Benzo[1,2-b:5,4-b\u2032]dipyran, 2-butenoic acid deriv.", "Decursinol angelate", "Acutilobin"], "SMILES": "CC1(C)OC=2C(CC1OC(C(=CC)C)=O)=CC3=C(C2)OC(=O)C=C3", "physical_data": {"Molecular Weight": "328.36", "Molecular Formula": "C19H20O5", "Melting Point": "93-94 \u00b0C"}}