{"cas_no": "13089-48-0", "cn_name": "\u82ef\u7532\u9170\u80de\u82f7", "en_name": ["N-Benzoylcytidine", "Cytidine, N-benzoyl-", "Benzamide, N-(1,2-dihydro-2-oxo-1-\u03b2-D-ribofuranosyl-4-pyrimidinyl)-", "N-Benzoylcytidine", "N6-Benzoylcytidine", "N4-Benzoylcytidine", "NSC 242979"], "SMILES": "OC1C(OC(CO)C1O)N2C(=O)N=C(NC(=O)C3=CC=CC=C3)C=C2", "physical_data": {"Molecular Weight": "347.32", "Molecular Formula": "C16H17N3O6", "Melting Point": "232 \u00b0C (decomp)"}}