{"cas_no": "130931-83-8", "cn_name": "(1S)-(+)-2-\u6c2e\u6742\u53cc\u73af[2.2.1]\u5e9a-5-\u70ef-3-\u916e", "en_name": ["(+)-2-Azabicyclo[2.2.1]hept-5-en-3-one", "2-Azabicyclo[2.2.1]hept-5-en-3-one, (1S,4R)-", "2-Azabicyclo[2.2.1]hept-5-en-3-one, (1S)-", "(1S,4R)-2-Azabicyclo[2.2.1]hept-5-en-3-one", "(1S)-(+)-2-Azabicyclo[2.2.1]hept-5-en-3-one", "(1S,4R)-(+)-2-Azabicyclo[2.2.1]hept-5-en-3-one", "(+)-2-Azabicyclo[2.2.1]hept-5-en-3-one", "(1S,4R)-2-Azabicyclo[2.2.1]hept-5-en-3-one", "(+)-Vince lactam"], "SMILES": "O=C1C2CC(N1)C=C2", "physical_data": {"Molecular Weight": "109.13", "Molecular Formula": "C6H7NO", "Melting Point": "93-95 \u00b0C"}}