{"cas_no": "1309-60-0", "cn_name": "\u4e8c\u6c27\u5316\u94c5", "en_name": ["Lead dioxide", "Lead oxide (PbO2)", "C.I. 77580", "Lead Brown", "Lead oxide brown", "Lead peroxide", "Lead superoxide", "Lead peroxide (PbO2)", "Lead oxide", "Lead(IV) oxide", "Plumbic oxide", "Thiolead A", "Lead dioxide"], "SMILES": "[Pb](=O)=O", "physical_data": {"Molecular Weight": "239.20", "Molecular Formula": "O2Pb", "Melting Point": "290 \u00b0C (decomp)", "Density": "9.38 g/cm\u00b3"}}