{"cas_no": "13096-31-6", "cn_name": "5-\u7f9f\u57fa\u54cc\u5576-2-\u7fa7\u9178", "en_name": ["5-Hydroxypipecolic acid", "2-Piperidinecarboxylic acid, 5-hydroxy-", "Pipecolic acid, 5-hydroxy-", "5-Hydroxy-2-piperidinecarboxylic acid", "5-Hydroxypipecolic acid"], "SMILES": "C(O)(=O)C1CCC(O)CN1", "physical_data": {"Molecular Weight": "145.16", "Molecular Formula": "C6H11NO3", "Melting Point": "240-246 \u00b0C"}}