{"cas_no": "13093-04-4", "cn_name": "N,N'-\u4e8c\u7532\u57fa-1,6-\u5df1\u4e8c\u80fa", "en_name": ["N1,N6-Dimethyl-1,6-hexanediamine", "1,6-Hexanediamine, N1,N6-dimethyl-", "1,6-Hexanediamine, N,N\u2032-dimethyl-", "N1,N6-Dimethyl-1,6-hexanediamine", "N,N\u2032-Dimethyl-1,6-hexanediamine", "N,N\u2032-Dimethylhexamethylenediamine", "N,N\u2032-Dimethyl-1,6-diaminohexane", "1,6-Bis(methylamino)hexane", "N,N\u2032-Dimethylhexanediamine", "N,N\u2032-Dimethyl-1,6-hexamethylenediamine"], "SMILES": "C(CCCNC)CCNC", "physical_data": {"Molecular Weight": "144.26", "Molecular Formula": "C8H20N2", "Boiling Point": "85-90 \u00b0C @ Press: 9 Torr"}}