{"cas_no": "13093-05-5", "cn_name": "N,N'-\u4e8c\u4e59\u57fa-1,6-\u4e8c\u6c28\u57fa\u5df1\u70f7", "en_name": ["N1,N6-Diethyl-1,6-hexanediamine", "1,6-Hexanediamine, N1,N6-diethyl-", "1,6-Hexanediamine, N,N\u2032-diethyl-", "N1,N6-Diethyl-1,6-hexanediamine", "N,N\u2032-Diethylhexylenediamine", "N,N\u2032-Diethyl-1,6-hexanediamine", "1,6-Bis(ethylamino)hexane", "N,N\u2032-Diethylhexamethylenediamine", "NSC 166319", "N1,N6-Dimethylhexane-1,6-diamine", "1,6-Hexanediamine N1,N6-diethyl-"], "SMILES": "C(CCCNCC)CCNCC", "physical_data": {"Molecular Weight": "172.31", "Molecular Formula": "C10H24N2", "Boiling Point": "105 \u00b0C @ Press: 6 Torr", "Density": "0.8226 g/cm\u00b3 @ Temp: 25 \u00b0C"}}