{"cas_no": "13093-87-3", "cn_name": "\u9752\u9709\u7d20EP\u6742\u8d28D", "en_name": ["Benzylpenillic acid", "Imidazo[5,1-b]thiazole-3,7-dicarboxylic acid, 2,3,7,7a-tetrahydro-2,2-dimethyl-5-(phenylmethyl)-", "Imidazo[5,1-b]thiazole-3,7-dicarboxylic acid, 5-benzyl-2,3,7,7a-tetrahydro-2,2-dimethyl-", "2,3,7,7a-Tetrahydro-2,2-dimethyl-5-(phenylmethyl)imidazo[5,1-b]thiazole-3,7-dicarboxylic acid", "Benzylpenillic acid", "NSC 76064"], "SMILES": "C(O)(=O)C1N2C(C(C(O)=O)N=C2CC3=CC=CC=C3)SC1(C)C", "physical_data": {"Molecular Weight": "334.39", "Molecular Formula": "C16H18N2O4S", "Melting Point": "180-182 \u00b0C"}}