{"cas_no": "13094-51-4", "cn_name": "\u6eb4\u4ee3\u4e59\u9178\u9150", "en_name": ["Bromoacetic anhydride", "Acetic acid, 2-bromo-, 1,1\u2032-anhydride", "Acetic acid, bromo-, anhydride", "Bromoacetic anhydride", "2-Bromoacetyl 2-bromoacetate", "2-Bromoacetic anhydride"], "SMILES": "O(C(CBr)=O)C(CBr)=O", "physical_data": {"Molecular Weight": "259.88", "Molecular Formula": "C4H4Br2O3", "Boiling Point": "130-138 \u00b0C @ Press: 12.3 Torr", "Melting Point": "41-42 \u00b0C"}}