{"cas_no": "13099-35-9", "cn_name": "17-\u6eb4\u5341\u4e03\u9178", "en_name": ["17-Bromoheptadecanoic acid", "Heptadecanoic acid, 17-bromo-", "17-Bromoheptadecanoic acid", "\u03c9-Bromoheptadecanoic acid"], "SMILES": "C(CCCCCCCCCCBr)CCCCCC(O)=O", "physical_data": {"Molecular Weight": "349.35", "Molecular Formula": "C17H33BrO2", "Melting Point": "74 \u00b0C"}}