{"cas_no": "13093-65-7", "cn_name": "DL-4-\u7f9f\u57fa\u6241\u6843\u8148", "en_name": ["\u03b1,4-Dihydroxybenzeneacetonitrile", "Benzeneacetonitrile, \u03b1,4-dihydroxy-", "Mandelonitrile, p-hydroxy-", "\u03b1,4-Dihydroxybenzeneacetonitrile", "(p-Hydroxyphenyl)glycolonitrile", "p-Hydroxymandelonitrile", "4-Hydroxymandelonitrile", "(R,S)-p-Hydroxymandelonitrile", "(\u00b1)-\u03b1,4-Dihydroxybenzeneacetonitrile", "(\u00b1)-4-Hydroxymandelonitrile", "Alpha-hydroxy 4-hydroxyphenylacetonitrile", "2-Hydroxy-2-(4-hydroxyphenyl)acetonitrile"], "SMILES": "C(C#N)(O)C1=CC=C(O)C=C1", "physical_data": {"Molecular Weight": "149.15", "Molecular Formula": "C8H7NO2", "Melting Point": "99-102 \u00b0C"}}