{"cas_no": "1309-38-2", "cn_name": "\u6c27\u5316\u94c1\u9ed1", "en_name": ["Magnetite (Fe3O4)", "Magnetite (Fe3O4)", "11557 Black", "Black Gold F 89", "Magnetic Black", "Magnetic oxide", "Magnetite", "Meramec M 25", "H 3S", "RB-BL", "Black Iron BM", "Toda Color EPT 500", "EPT 1000", "CJ 3000B", "RN 320", "CKN 320", "KBC 100 (mineral)", "MTC 840", "Iron ores, magnetite", "BL 270", "COP 1 (oxide)", "MTA 840", "COP 1", "EFP 500", "KBC 100", "MgW-PE", "Bayferrox AC 5110M", "Biomagnet", "EP 7-500", "KBC 100S", "EPT 100", "Bayferrox AC 5111M", "MG-WL", "Mapico BL 200", "MTB 15", "MER 1", "EP 100 (oxide)", "BL 600", "EP 100", "MG-RF", "MAT 740", "MG-SH", "Toda Color EPT 1001", "EPT 1001", "BD 5099FF", "KBC 100L", "KN 320", "KBC 100SNW", "MagniF 10", "KBC 100SS", "Tarox BL 50", "BL 50", "EPT 500", "Magnetitium", "Magnetitum", "RB-SP", "Geldart B", "FO 0000/0090/HA", "CTK 1", "MagniF 150", "MagniF 25", "Magnet Pigment 340", "FeRex", "KS 63", "DS 63"], "SMILES": "[Fe].[O]", "physical_data": {"Molecular Weight": "", "Molecular Formula": "Fe.O", "Melting Point": "1595 \u00b0C", "Density": "0.37 g/cm\u00b3"}}