{"cas_no": "13091-23-1", "cn_name": "4-\u6c2f-3-\u785d\u57fa\u5421\u5576", "en_name": ["4-Chloro-3-nitropyridine", "Pyridine, 4-chloro-3-nitro-", "4-Chloro-3-nitropyridine", "3-Nitro-4-chloropyridine"], "SMILES": "N(=O)(=O)C=1C(Cl)=CC=NC1", "physical_data": {"Molecular Weight": "158.54", "Molecular Formula": "C5H3ClN2O2", "Boiling Point": "95 \u00b0C @ Press: 5 Torr", "Melting Point": "45 \u00b0C"}}