{"cas_no": "1309-36-0", "cn_name": "\u4e8c\u786b\u5316\u4e9a\u94c1", "en_name": ["Pyrite", "Pyrite (FeS2)", "Pyrite", "Iron pyrite", "Iron pyrite (FeS2)", "Iron ores, pyrite", "Iron pyrites"], "SMILES": "[Fe](=S)=S", "physical_data": {"Molecular Weight": "", "Molecular Formula": "FeS2", "Melting Point": "743 \u00b0C"}}