{"cas_no": "13095-73-3", "cn_name": "4-\u5def\u57fa\u4e01\u9178", "en_name": ["4-Mercaptobutanoic acid", "Butanoic acid, 4-mercapto-", "Butyric acid, 4-mercapto-", "4-Mercaptobutanoic acid", "4-Mercaptobutyric acid", "\u03b3-Mercaptobutyric acid"], "SMILES": "C(C(O)=O)CCS", "physical_data": {"Molecular Weight": "120.17", "Molecular Formula": "C4H8O2S", "Boiling Point": "102-103 \u00b0C @ Press: 2.5 Torr", "Melting Point": "108-110 \u00b0C", "Density": "1.1630 g/cm\u00b3 @ Temp: 20 \u00b0C"}}