{"cas_no": "130929-57-6", "cn_name": "\u6069\u4ed6\u5361\u670b", "en_name": ["Entacapone", "2-Propenamide, 2-cyano-3-(3,4-dihydroxy-5-nitrophenyl)-N,N-diethyl-, (2E)-", "2-Propenamide, 2-cyano-3-(3,4-dihydroxy-5-nitrophenyl)-N,N-diethyl-, (E)-", "(2E)-2-Cyano-3-(3,4-dihydroxy-5-nitrophenyl)-N,N-diethyl-2-propenamide", "Entacapone", "Comtan", "OR 611", "(E)-Entacapone", "Entacom", "Parkicapone", "Comtess"], "SMILES": "C(=C(C(N(CC)CC)=O)C#N)C1=CC(N(=O)=O)=C(O)C(O)=C1", "physical_data": {"Molecular Weight": "305.29", "Molecular Formula": "C14H15N3O5", "Melting Point": "162-163 \u00b0C"}}