{"cas_no": "131-53-3", "cn_name": "2,2'-\u7f9f\u57fa-4-\u7532\u6c27\u57fa\u4e8c\u82ef\u7532\u916e", "en_name": ["2,2\u2032-Dihydroxy-4-methoxybenzophenone", "Methanone, (2-hydroxy-4-methoxyphenyl)(2-hydroxyphenyl)-", "Benzophenone, 2,2\u2032-dihydroxy-4-methoxy-", "(2-Hydroxy-4-methoxyphenyl)(2-hydroxyphenyl)methanone", "Cyasorb UV 24", "Cyasorb UV 24 Light Absorber", "2,2\u2032-Dihydroxy-4-methoxybenzophenone", "Dioxybenzone", "Spectra-Sorb UV 24", "Advastab 47", "UF 2", "UV 24", "Dioxybenzon", "Benzophenone 8", "NSC 56769", "Kemisorb 111", "4-Methoxy-2,2\u2032-dihydroxybenzophenone", "DMB", "Eversorb 52", "BP 8"], "SMILES": "C(=O)(C1=C(O)C=C(OC)C=C1)C2=C(O)C=CC=C2", "physical_data": {"Molecular Weight": "244.24", "Molecular Formula": "C14H12O4", "Boiling Point": "170-175 \u00b0C @ Press: 1 Torr", "Melting Point": "68 \u00b0C"}}