{"cas_no": "131-03-3", "cn_name": "ALPHA-YOHIMBINE", "en_name": ["Rauwolscine", "Yohimban-16-carboxylic acid, 17-hydroxy-, methyl ester, (16\u03b2,17\u03b1,20\u03b1)-", "Rauwolscine", "20\u03b1-Yohimban-16\u03b2-carboxylic acid, 17\u03b1-hydroxy-, methyl ester", "Benz[g]indolo[2,3-a]quinolizine, yohimban-16-carboxylic acid deriv.", "Mesoyohimbine", "\u03b1-Yohimbine", "Isoyohimbine", "meso-Yohimbine", "Corynanthidine", "(-)-Rauwolscine"], "SMILES": "C(OC)(=O)C1C2CC3C4=C(C=5C(N4)=CC=CC5)CCN3CC2CCC1O", "physical_data": {"Molecular Weight": "354.44", "Molecular Formula": "C21H26N2O3", "Melting Point": "243.5 \u00b0C"}}