{"cas_no": "131-91-9", "cn_name": "1-\u4e9a\u785d\u57fa-2-\u8418\u915a", "en_name": ["1-Nitroso-2-naphthol", "2-Naphthalenol, 1-nitroso-", "2-Naphthol, 1-nitroso-", "1-Nitroso-2-naphthalenol", "\u03b1-Nitroso-\u03b2-naphthol", "1-Nitroso-2-naphthol", "1-Nitroso-2-hydroxynaphthalene", "2-Hydroxy-1-nitrosonaphthalene", "NSC 4151", "NSC 677525"], "SMILES": "N(=O)C=1C2=C(C=CC1O)C=CC=C2", "physical_data": {"Molecular Weight": "173.17", "Molecular Formula": "C10H7NO2", "Melting Point": "109.5 \u00b0C"}}