{"cas_no": "131-70-4", "cn_name": "\u90bb\u82ef\u4e8c\u7532\u9178\u5355\u4e01\u916f", "en_name": ["Monobutyl phthalate", "1,2-Benzenedicarboxylic acid, 1-butyl ester", "Phthalic acid, monobutyl ester", "1,2-Benzenedicarboxylic acid, monobutyl ester", "Phthalic acid, butyl ester", "Monobutyl phthalate", "Butyl hydrogen phthalate", "Mono-n-butyl phthalate", "NSC 8479", "2-Butoxycarbonylbenzoic acid", "2-(Butoxycarbonyl)benzoic acid"], "SMILES": "C(OCCCC)(=O)C1=C(C(O)=O)C=CC=C1", "physical_data": {"Molecular Weight": "222.24", "Molecular Formula": "C12H14O4", "Melting Point": "73-74 \u00b0C"}}