{"cas_no": "131-11-3", "cn_name": "\u90bb\u82ef\u4e8c\u7532\u9178\u4e8c\u7532\u916f", "en_name": ["Dimethyl phthalate", "1,2-Benzenedicarboxylic acid, 1,2-dimethyl ester", "Phthalic acid, dimethyl ester", "1,2-Benzenedicarboxylic acid, dimethyl ester", "Dimethyl 1,2-benzenedicarboxylate", "Dimethyl phthalate", "DMP", "Fermine", "Avolin", "Mipax", "NTM", "Palatinol M", "Solvanom", "Solvarone", "Unimoll DM", "DMF (insect repellent)", "Repeftal", "Dimethyl o-phthalate", "NSC 15398", "Metox 50", "1,2-Dimethyl benzene-1,2-dicarboxylate"], "SMILES": "C(OC)(=O)C1=C(C(OC)=O)C=CC=C1", "physical_data": {"Molecular Weight": "194.18", "Molecular Formula": "C10H10O4", "Boiling Point": "283.7 \u00b0C @ Press: 760 Torr", "Melting Point": "5.5 \u00b0C", "Density": "1.189 g/cm\u00b3 @ Temp: 25 \u00b0C"}}