{"cas_no": "131-74-8", "cn_name": "D\u70b8\u836f", "en_name": ["Ammonium picrate", "Phenol, 2,4,6-trinitro-, ammonium salt (1:1)", "Obeline picrate", "Picric acid, ammonium salt", "Phenol, 2,4,6-trinitro-, ammonium salt", "Ammonium picrate", "Picratol", "Explosive D"], "SMILES": "N(=O)(=O)C1=C(O)C(N(=O)=O)=CC(N(=O)=O)=C1.N", "physical_data": {"Molecular Weight": "", "Molecular Formula": "C6H3N3O7.H3N", "Boiling Point": "423 \u00b0C", "Melting Point": "277-282 \u00b0C (decomp)", "Density": "1.72 g/cm\u00b3"}}