{"cas_no": "131-57-7", "cn_name": "\u7d2b\u5916\u7ebf\u5438\u6536\u5242 UV-9", "en_name": ["2-Hydroxy-4-methoxybenzophenone", "Methanone, (2-hydroxy-4-methoxyphenyl)phenyl-", "Benzophenone, 2-hydroxy-4-methoxy-", "(2-Hydroxy-4-methoxyphenyl)phenylmethanone", "Cyasorb UV 9", "Cyasorb UV 9 Light Absorber", "Spectra-Sorb UV 9", "Uvinul M 40", "UF 3", "4-Methoxy-2-hydroxybenzophenone", "Oxybenzone", "MOB", "UV 9", "Advastab 45", "Benzophenone 3", "Sunscreen UV 15", "Chimassorb 90", "Oxybenzon", "Anuvex", "Uvistat 24", "Uvinul 9", "Syntase 62", "Ongrostab HMB", "2-Benzoyl-5-methoxyphenol", "Sumisorb 110", "Aduvex 24", "ASL 24", "Escalol 567", "Seesorb 101", "2-Hydroxy-4-methoxybenzophenone", "Viosorb 110", "Uvinul 3040", "Neo Heliopan BB", "Onzone", "Uvasorb MET/C", "NSC 7778", "Tinosorb B 3", "Jeescreen Benzophenone 3", "Eusolex 4360", "Kemisorb 11", "Uvinul MC 40", "Sunscreen 567", "BP 3", "Speedblock UV 9", "CFN 98729", "Light Stabilizer 3040", "Chemsorb BP 3", "Eversorb 11"], "SMILES": "C(=O)(C1=C(O)C=C(OC)C=C1)C2=CC=CC=C2", "physical_data": {"Molecular Weight": "228.24", "Molecular Formula": "C14H12O3", "Boiling Point": "155 \u00b0C", "Melting Point": "66 \u00b0C"}}