{"cas_no": "131-55-5", "cn_name": "2,2',4,4'-\u56db\u7f9f\u57fa\u4e8c\u82ef\u7532\u916e", "en_name": ["2,2\u2032,4,4\u2032-Tetrahydroxybenzophenone", "Methanone, bis(2,4-dihydroxyphenyl)-", "Benzophenone, 2,2\u2032,4,4\u2032-tetrahydroxy-", "Bis(2,4-dihydroxyphenyl)methanone", "Uvinul D 50", "2,2\u2032,4,4\u2032-Tetrahydroxybenzophenone", "2,4,2\u2032,4\u2032-Tetrahydroxybenzophenone", "Benzophenone 2", "T 0118", "Sumisorb 150", "Seesorb 106", "Uvinul 3050", "NSC 38556", "2,2\u2032,4,4\u2032-Tetrahydroxy diphenyl ketone", "Dainsorb P 6", "SUV 1", "BP 2", "Eversorb 51"], "SMILES": "C(=O)(C1=C(O)C=C(O)C=C1)C2=C(O)C=C(O)C=C2", "physical_data": {"Molecular Weight": "246.22", "Molecular Formula": "C13H10O5", "Boiling Point": "354 \u00b0C", "Melting Point": "196-198 \u00b0C"}}