{"cas_no": "131-09-9", "cn_name": "2-\u6c2f\u84bd\u918c", "en_name": ["2-Chloroanthraquinone", "9,10-Anthracenedione, 2-chloro-", "Anthraquinone, 2-chloro-", "2-Chloro-9,10-anthracenedione", "\u03b2-Chloroanthraquinone", "2-Chloroanthraquinone", "2-Chloro-9,10-anthraquinone", "NSC 1702", "2-Chloro-9,10-dihydroanthracene-9,10-dione"], "SMILES": "O=C1C=2C(C(=O)C=3C1=CC=CC3)=CC=C(Cl)C2", "physical_data": {"Molecular Weight": "242.66", "Molecular Formula": "C14H7ClO2", "Melting Point": "211 \u00b0C"}}