{"cas_no": "131-48-6", "cn_name": "N-\u4e59\u9170\u795e\u7ecf\u6c28\u9178", "en_name": ["Acetylneuraminic acid", "Neuraminic acid, N-acetyl-", "D-glycero-D-galacto-Nonulosonic acid, 5-acetamido-3,5-dideoxy-", "Lactaminic acid", "D-glycero-D-galacto-2-Nonulosonic acid, 5-(acetylamino)-3,5-dideoxy-", "N-Acetylneuraminic acid", "Acetylneuraminic acid", "NANA", "N-Acetyl-D-neuraminic acid", "5-N-Acetyl-D-neuraminic acid", "Aceneuramic acid", "N-Acetylneuramic acid", "N-Acetylsialic acid", "5-N-Acetylneuraminic acid", "UX 001"], "SMILES": "C(C(C(C(CO)O)O)O)(C(CC(C(O)=O)=O)O)NC(C)=O", "physical_data": {"Molecular Weight": "309.27", "Molecular Formula": "C11H19NO9", "Melting Point": "182-185 \u00b0C (decomp)"}}