{"cas_no": "131-12-4", "cn_name": "\u8334\u82b9\u5185\u916f", "en_name": ["Pimpinellin", "2H-Furo[2,3-h]-1-benzopyran-2-one, 5,6-dimethoxy-", "Pimpinellin", "5,6-Dimethoxy-2H-furo[2,3-h]-1-benzopyran-2-one", "Pimpinelline", "Pimpinecilin", "6,7-Dimethoxyangelicin", "Pimpinelin"], "SMILES": "O(C)C=1C2=C(C3=C(C1OC)C=CC(=O)O3)C=CO2", "physical_data": {"Molecular Weight": "246.22", "Molecular Formula": "C13H10O5", "Melting Point": "119 \u00b0C"}}