{"cas_no": "131-56-6", "cn_name": "\u7d2b\u5916\u7ebf\u5438\u6536\u5242", "en_name": ["2,4-Dihydroxybenzophenone", "Methanone, (2,4-dihydroxyphenyl)phenyl-", "Benzophenone, 2,4-dihydroxy-", "(2,4-Dihydroxyphenyl)phenylmethanone", "Uvinul 400", "2,4-Dihydroxybenzophenone", "Eastman inhibitor DHPB", "UF 1", "UV 12", "Benzoresorcinol", "Advastab 48", "Benzophenone 1", "4-Benzoylresorcinol", "Inhibitor DHBP", "Uvistat 12", "Resbenzophenone", "HHB", "Dastib 263", "Seesorb 100", "Sumisorb 100", "NC 011", "Aduvex 12", "ASL 23", "Viosorb 100", "Ultrafast 800", "Syntase 100", "Uvinul M 400", "Uvinul 3000", "Lowilite 24", "Sanduvor 3041", "NSC 38555", "NSC 5358", "UV 214", "Eversorb 10", "Uvasorb 20H", "UV 0", "Zislizer", "UV-O", "UV 214 (UV absorber)", "BP 1", "CD 113500"], "SMILES": "C(=O)(C1=C(O)C=C(O)C=C1)C2=CC=CC=C2", "physical_data": {"Molecular Weight": "214.22", "Molecular Formula": "C13H10O3", "Boiling Point": "194 \u00b0C @ Press: 1 Torr", "Melting Point": "142 \u00b0C"}}