{"cas_no": "131-17-9", "cn_name": "\u90bb\u82ef\u4e8c\u7532\u9178\u4e8c\u70ef\u4e19\u916f", "en_name": ["Diallyl phthalate", "1,2-Benzenedicarboxylic acid, 1,2-di-2-propen-1-yl ester", "Phthalic acid, diallyl ester", "1,2-Benzenedicarboxylic acid, di-2-propenyl ester", "Dapon R", "Diallyl phthalate", "Allyl phthalate", "Dappu", "DAP-M", "DT 170", "DAP Monomer", "Dap Tohto DT 170", "NSC 7667", "Daiso DAP monomer", "KY 5200", "DAP", "Monoplex DAP", "DCP-A"], "SMILES": "C(OCC=C)(=O)C1=C(C(OCC=C)=O)C=CC=C1", "physical_data": {"Molecular Weight": "246.26", "Molecular Formula": "C14H14O4", "Boiling Point": "158-165 \u00b0C @ Press: 4 Torr", "Melting Point": "-70 \u00b0C", "Density": "1.120 g/cm\u00b3 @ Temp: 20 \u00b0C"}}