{"cas_no": "131-01-1", "cn_name": "\u5730\u820d\u5e73", "en_name": ["Deserpidine", "Yohimban-16-carboxylic acid, 17-methoxy-18-[(3,4,5-trimethoxybenzoyl)oxy]-, methyl ester, (3\u03b2,16\u03b2,17\u03b1,18\u03b2,20\u03b1)-", "3\u03b2,20\u03b1-Yohimban-16\u03b2-carboxylic acid, 18\u03b2-hydroxy-17\u03b1-methoxy-, methyl ester, 3,4,5-trimethoxybenzoate (ester)", "Deserpidine", "Deserpidic acid, methyl ester, 3,4,5-trimethoxybenzoate", "Benz[g]indolo[2,3-a]quinolizine, yohimban-16-carboxylic acid deriv.", "Canescine", "11-Desmethoxyreserpine", "Harmonyl", "Raunormine", "Recanescine", "Reserpidine", "11-Demethoxyreserpine", "Deserpidin", "Recanescin", "Raunormin", "Canescin", "Deserpic acid, methyl ester, 3,4,5-trimethoxybenzoate", "NSC 72138", "Canescine (Rauwolfia)", "(-)-Deserpidine"], "SMILES": "C(OC)(=O)C1C2CC3C4=C(C=5C(N4)=CC=CC5)CCN3CC2CC(OC(=O)C6=CC(OC)=C(OC)C(OC)=C6)C1OC", "physical_data": {"Molecular Weight": "578.65", "Molecular Formula": "C32H38N2O8", "Melting Point": "230.5 \u00b0C"}}