{"cas_no": "131-62-4", "cn_name": "1-\u7f9f\u57fa-1,2-\u82ef\u7898\u9170-3(1H)-\u916e", "en_name": ["1-Hydroxy-1,2-benziodoxol-3(1H)-one", "1,2-Benziodoxol-3(1H)-one, 1-hydroxy-", "1-Hydroxy-1,2-benziodoxol-3(1H)-one", "NSC 364374", "1-Hydroxy-1\u03bb3-benzo[d][1,2]iodaoxol-3(1H)-one", "1-Hydroxy-1,2-benziodoxol-3-one", "1-Hydroxy-1\u03bb3,2-benziodoxol-3(1H)-one", "1-Hydroxy-3H-1\u03bb3,2-benziodaoxol-3-one", "1-Hydroxy-3-oxo-1,3-dihydro-1,2-benzoiodoxole", "BIOH"], "SMILES": "O=C1C=2C(I(O)O1)=CC=CC2", "physical_data": {"Molecular Weight": "264.02", "Molecular Formula": "C7H5IO3", "Melting Point": "260 \u00b0C (decomp)"}}