{"cas_no": "131-18-0", "cn_name": "\u90bb\u82ef\u4e8c\u7532\u9178\u4e8c\u620a\u916f", "en_name": ["Dipentyl phthalate", "1,2-Benzenedicarboxylic acid, 1,2-dipentyl ester", "Phthalic acid, dipentyl ester", "1,2-Benzenedicarboxylic acid, dipentyl ester", "Amoil", "Amyl phthalate", "Diamyl phthalate", "Dipentyl phthalate", "Di-n-amyl phthalate", "Di-n-pentyl phthalate", "Di-n-pentyl o-phthalate", "NSC 4720", "1,2-Dipentyl benzene-1,2-dicarboxylate"], "SMILES": "C(OCCCCC)(=O)C1=C(C(OCCCCC)=O)C=CC=C1", "physical_data": {"Molecular Weight": "306.40", "Molecular Formula": "C18H26O4", "Boiling Point": "342 \u00b0C", "Density": "1.022 g/cm\u00b3 @ Temp: 20 \u00b0C"}}