{"cas_no": "131-69-1", "cn_name": "\u915e\u78fa\u918b\u80fa", "en_name": ["Phthalylsulfacetamide", "Benzoic acid, 2-[[[4-[(acetylamino)sulfonyl]phenyl]amino]carbonyl]-", "Phthalanilic acid, 4\u2032-(acetylsulfamoyl)-", "2-[[[4-[(Acetylamino)sulfonyl]phenyl]amino]carbonyl]benzoic acid", "4\u2032-(Acetylsulfamoyl)phthalanilic acid", "4\u2032-(Acetylsulfamyl)phthalanilic acid", "Enterocid", "Enterosulfamid", "Ftalicetimida", "Enterosulfon", "Phthaloylsulfacetamide", "Phthalylsulfacetamide", "Rabalan", "Sterathal", "Talecid", "Talicetimida", "Talsutin", "Tamid", "Thalisul", "Thalocid", "TSC-80 Medicated", "TSC-80", "Thalajen", "Talasulfa", "Kalacet", "Sulphalyl", "NSC 163977T", "Talsigel", "NSC 163977", "NSC 4368", "2-((4-(N-Acetylsulfamoyl)phenyl)carbamoyl)benzoic acid"], "SMILES": "C(NC1=CC=C(S(NC(C)=O)(=O)=O)C=C1)(=O)C2=C(C(O)=O)C=CC=C2", "physical_data": {"Molecular Weight": "362.36", "Molecular Formula": "C16H14N2O6S", "Melting Point": "196 \u00b0C", "Density": "1.378 g/cm\u00b3"}}