{"cas_no": "131-58-8", "cn_name": "2-\u7532\u57fa\u4e8c\u82ef\u7532\u916e", "en_name": ["2-Methylbenzophenone", "Methanone, (2-methylphenyl)phenyl-", "Benzophenone, 2-methyl-", "(2-Methylphenyl)phenylmethanone", "o-Methylbenzophenone", "o-Tolyl phenyl ketone", "2-Methylbenzophenone", "Phenyl o-tolyl ketone", "o-Benzoyltoluene", "2-Methylphenyl phenyl ketone", "Phenyl 2-methylphenyl ketone", "Phenyl 2-tolyl ketone", "Phenyl(2-tolyl)methanone", "NSC 67362", "(Phenyl)(o-tolyl)methanone"], "SMILES": "C(=O)(C1=C(C)C=CC=C1)C2=CC=CC=C2", "physical_data": {"Molecular Weight": "196.24", "Molecular Formula": "C14H12O", "Boiling Point": "308 \u00b0C", "Melting Point": "&lt;-18 \u00b0C", "Density": "1.1098 g/cm\u00b3 @ Temp: 20 \u00b0C"}}