{"cas_no": "131-15-7", "cn_name": "\u90bb\u82ef\u4e8c\u7532\u9178\u4e8c\u8f9b\u9170", "en_name": ["Di-sec-octyl phthalate", "1,2-Benzenedicarboxylic acid, 1,2-bis(1-methylheptyl) ester", "Phthalic acid, bis(1-methylheptyl) ester", "1,2-Benzenedicarboxylic acid, bis(1-methylheptyl) ester", "2-Octanol, phthalate (2:1)", "Genomoll 100", "Di-sec-octyl phthalate", "Di(2-octyl)phthalate", "Bis(1-methylheptyl) phthalate", "NSC 3926"], "SMILES": "C(OC(CCCCCC)C)(=O)C1=C(C(OC(CCCCCC)C)=O)C=CC=C1", "physical_data": {"Molecular Weight": "390.56", "Molecular Formula": "C24H38O4", "Boiling Point": "206-210 \u00b0C @ Press: 0.5 Torr"}}