{"cas_no": "131-52-2", "cn_name": "\u4e94\u6c2f\u915a\u94a0", "en_name": ["Sodium pentachlorophenolate", "Phenol, 2,3,4,5,6-pentachloro-, sodium salt (1:1)", "Phenol, pentachloro-, sodium salt", "Phenol, pentachloro-, sodium deriv.", "PCP-Sodium", "Pentachlorophenate sodium", "Pentachlorophenoxy sodium", "Sodium PCP", "Sodium pentachlorophenate", "Sodium pentachlorophenol", "Sodium pentachlorophenolate", "Sodium pentachlorophenoxide", "Pentachlorophenol sodium salt", "Dowicide G", "PCP sodium salt", "Mystox D", "Sapco 25", "Santobrite", "PKhFN", "GR 48-32S", "GR 48-11PS", "NAPCP", "Witophen N", "Preventol PN", "Pentanot 25", "CL 208", "PCP-Na", "Biocel WD"], "SMILES": "ClC1=C(Cl)C(Cl)=C(O)C(Cl)=C1Cl.[Na]", "physical_data": {"Molecular Weight": "", "Molecular Formula": "C6HCl5O.Na", "Melting Point": "145-146 \u00b0C"}}