{"cas_no": "131-73-7", "cn_name": "\u6c2f\u82ef\u90a3\u654f", "en_name": ["Dipicrylamine", "Benzenamine, 2,4,6-trinitro-N-(2,4,6-trinitrophenyl)-", "Diphenylamine, 2,2\u2032,4,4\u2032,6,6\u2032-hexanitro-", "2,4,6-Trinitro-N-(2,4,6-trinitrophenyl)benzenamine", "Dipicrylamine", "2,4,6,2\u2032,4\u2032,6\u2032-Hexanitrodiphenylamine", "Hexamine (potassium reagent)", "Hexyl", "2,2\u2032,4,4\u2032,6,6\u2032-Hexanitrodiphenylamine", "Hexyl (reagent)", "Bis(2,4,6-trinitrophenyl)amine", "Hexanitrodiphenylamine", "Hexamine", "NSC 1786", "N,N-Bis(2,4,6-Trinitrophenyl)amine"], "SMILES": "N(C1=C(N(=O)=O)C=C(N(=O)=O)C=C1N(=O)=O)C2=C(N(=O)=O)C=C(N(=O)=O)C=C2N(=O)=O", "physical_data": {"Molecular Weight": "439.21", "Molecular Formula": "C12H5N7O12", "Melting Point": "244 \u00b0C (decomp)"}}