{"cas_no": "131-89-5", "cn_name": "\u6d88\u87a8\u915a", "en_name": ["Dinex", "Phenol, 2-cyclohexyl-4,6-dinitro-", "2-Cyclohexyl-4,6-dinitrophenol", "DN 1", "SN 46", "Dinex", "2,4-Dinitro-6-cyclohexylphenol", "4,6-Dinitro-o-cyclohexylphenol", "DNOCHP", "Dry Mix No. 1", "DN", "DN (pesticide)", "NSC 403662", "NSC 7739"], "SMILES": "OC1=C(C=C(N(=O)=O)C=C1N(=O)=O)C2CCCCC2", "physical_data": {"Molecular Weight": "266.25", "Molecular Formula": "C12H14N2O5", "Melting Point": "106.5-107.5 \u00b0C"}}