{"cas_no": "131-54-4", "cn_name": "2,2'-\u4e8c\u7f9f\u57fa-4,4'-\u4e8c\u7532\u6c27\u57fa\u4e8c\u82ef\u7532\u916e", "en_name": ["2,2\u2032-Dihydroxy-4,4\u2032-dimethoxybenzophenone", "Methanone, bis(2-hydroxy-4-methoxyphenyl)-", "Benzophenone, 2,2\u2032-dihydroxy-4,4\u2032-dimethoxy-", "Bis(2-hydroxy-4-methoxyphenyl)methanone", "2,2\u2032-Dihydroxy-4,4\u2032-dimethoxybenzophenone", "Uvinul D 49", "Cyasorb UV 12", "Benzophenone 6", "4,4\u2032-Dimethoxy-2,2\u2032-dihydroxybenzophenone", "Uvinul 3049", "Seesorb 107", "NSC 40149", "UV 49", "2-(2-Hydroxy-4-methoxybenzoyl)-5-methoxyphenol", "BP 6", "BP 6 (UV absorber)", "Dainsorb P 7", "Chiguard BP-6", "Chemsorb BP 6"], "SMILES": "C(=O)(C1=C(O)C=C(OC)C=C1)C2=C(O)C=C(OC)C=C2", "physical_data": {"Molecular Weight": "274.27", "Molecular Formula": "C15H14O5", "Melting Point": "139.5 \u00b0C"}}