{"cas_no": "131-16-8", "cn_name": "\u90bb\u82ef\u4e8c\u7532\u9178\u4e8c\u4e19\u916f", "en_name": ["Dipropyl phthalate", "1,2-Benzenedicarboxylic acid, 1,2-dipropyl ester", "Phthalic acid, dipropyl ester", "1,2-Benzenedicarboxylic acid, dipropyl ester", "Dipropyl phthalate", "Di-n-Propyl phthalate", "Dipropyl benzene-1,2-dicarboxylate", "NSC 15314"], "SMILES": "C(OCCC)(=O)C1=C(C(OCCC)=O)C=CC=C1", "physical_data": {"Molecular Weight": "250.29", "Molecular Formula": "C14H18O4", "Boiling Point": "317.5 \u00b0C", "Density": "1.0820 g/cm\u00b3 @ Temp: 20 \u00b0C"}}