{"cas_no": "1310-32-3", "cn_name": "\u7852\u5316\u94c1", "en_name": ["Iron selenide (FeSe)", "Iron selenide (FeSe)", "Ferrous selenide", "Iron monoselenide", "NSC 378337"], "SMILES": "[Fe]=[Se]", "physical_data": {"Molecular Weight": "", "Molecular Formula": "FeSe", "Melting Point": "1070 \u00b0C"}}