{"cas_no": "13103-80-5", "cn_name": "3'-\u7f9f\u57fa\u82ef\u4e19\u916e", "en_name": ["3\u2032-Hydroxypropiophenone", "1-Propanone, 1-(3-hydroxyphenyl)-", "Propiophenone, 3\u2032-hydroxy-", "1-(3-Hydroxyphenyl)-1-propanone", "3\u2032-Hydroxypropiophenone", "m-Hydroxypropiophenone", "NSC 63366", "(3-Hydroxyphenyl)propan-1-one"], "SMILES": "C(CC)(=O)C1=CC(O)=CC=C1", "physical_data": {"Molecular Weight": "150.17", "Molecular Formula": "C9H10O2", "Melting Point": "82 \u00b0C"}}