{"cas_no": "1310-73-2", "cn_name": "\u6c22\u6c27\u5316\u94a0", "en_name": ["Sodium hydroxide", "Sodium hydroxide (Na(OH))", "Sodium hydroxide", "Caustic soda", "White caustic", "Ascarite", "Collo-Grillrein", "Collo-Tapetta", "Aetznatron", "Soda, caustic", "GR (sodium hydroxide)", "GR (alkali reagent)", "NSC 135799", "E 33", "E 33 (degreasing agent)", "MO 67", "FC 4370", "StamperPrep", "Tosoh Pearl", "DL \u03b1", "Promoter 3308B", "ma-D 331", "BO-200B", "Caustic Solution 70TW", "Reasol", "S/4920/AP1", "G 19852H", "RNase AWAY", "MeSH ID: D012972"], "SMILES": "[Na]O", "physical_data": {"Molecular Weight": "", "Molecular Formula": "HNaO", "Boiling Point": "1388 \u00b0C", "Melting Point": "323 \u00b0C", "Density": "2.13 g/cm\u00b3 @ Temp: 25 \u00b0C"}}