{"cas_no": "13101-54-7", "cn_name": "\u5421\u5583\u8461\u7cd6\u57fa\u8517\u7cd6", "en_name": ["Erlose", "\u03b1-D-Glucopyranoside, \u03b2-D-fructofuranosyl O-\u03b1-D-glucopyranosyl-(1\u21924)-", "Glucopyranoside, \u03b2-D-fructofuranosyl 4-O-\u03b1-D-glucopyranosyl-, \u03b1-D-", "Fructofuranoside, O-\u03b1-D-glucopyranosyl-(1\u21924)-\u03b1-D-glucopyranosyl, \u03b2-D-", "Fructofuranoside, \u03b1-maltosyl, \u03b2-D-", "\u03b2-D-Fructofuranosyl O-\u03b1-D-glucopyranosyl-(1\u21924)-\u03b1-D-glucopyranoside", "Fructomaltose", "Erlose"], "SMILES": "O(C1(CO)OC(CO)C(O)C1O)C2OC(CO)C(OC3OC(CO)C(O)C(O)C3O)C(O)C2O", "physical_data": {"Molecular Weight": "504.44", "Molecular Formula": "C18H32O16", "Melting Point": "105 \u00b0C"}}