{"cas_no": "13108-19-5", "cn_name": "10-\u6c28\u57fa\u6b63\u7678\u9178", "en_name": ["10-Aminodecanoic acid", "Decanoic acid, 10-amino-", "10-Aminodecanoic acid", "\u03c9-Aminodecanoic acid", "10-Aminodecanic Acid"], "SMILES": "C(CCCCCN)CCCC(O)=O", "physical_data": {"Molecular Weight": "187.28", "Molecular Formula": "C10H21NO2", "Melting Point": "177 \u00b0C"}}