{"cas_no": "131002-10-3", "cn_name": "1-\u7f9f\u57fa-6-\u7532\u57fa\u5f02\u55b9\u5549", "en_name": ["6-Methyl-1(2H)-isoquinolinone", "1(2H)-Isoquinolinone, 6-methyl-", "6-Methyl-1(2H)-isoquinolinone", "6-Methyl-2H-isoquinolin-1-one"], "SMILES": "O=C1C=2C(=CC(C)=CC2)C=CN1", "physical_data": {"Molecular Weight": "159.18", "Molecular Formula": "C10H9NO", "Melting Point": "181-183 \u00b0C"}}