{"cas_no": "1310-53-8", "cn_name": "\u4e8c\u6c27\u5316\u9517", "en_name": ["Germanium oxide (GeO2)", "Germanium oxide (GeO2)", "Germanium dioxide (GeO2)", "Germanium oxide", "Germania", "Germania (GeO2)", "Germanium(IV) oxide", "NSC 294212", "J 005 (oxide)", "J 005", "Germanium dioxide"], "SMILES": "[Ge](=O)=O", "physical_data": {"Molecular Weight": "104.64", "Molecular Formula": "GeO2", "Melting Point": "1115.0 \u00b0C", "Density": "4.228 g/cm\u00b3 @ Temp: 25 \u00b0C"}}