{"cas_no": "13100-46-4", "cn_name": "1,2,3,4-\u56db-\u90bb-\u4e59\u9170\u57fa-beta-d-\u5421\u5583(\u578b)\u8461\u8404\u7cd6", "en_name": ["\u03b2-D-Glucopyranose, 1,2,3,4-tetraacetate", "\u03b2-D-Glucopyranose, 1,2,3,4-tetraacetate", "Glucopyranose, 1,2,3,4-tetraacetate, \u03b2-D-", "1,2,3,4-Tetra-O-acetyl-\u03b2-D-glucopyranose", "1,2,3,4-Tetra-O-acetyl-\u03b2-D-glucose", "NSC 409250"], "SMILES": "O(C(C)=O)C1C(OC(C)=O)C(OC(C)=O)OC(CO)C1OC(C)=O", "physical_data": {"Molecular Weight": "348.30", "Molecular Formula": "C14H20O10", "Boiling Point": "~0.120 \u00b0C (approx) @ Press: 1 x 10<sup>-4</sup> Torr", "Melting Point": "128-129 \u00b0C"}}