{"cas_no": "1310-66-3", "cn_name": "\u6c22\u6c27\u5316\u9502", "en_name": ["Lithium hydroxide, monohydrate", "Lithium hydroxide (Li(OH)), monohydrate", "Lithium hydroxide, monohydrate", "Lithium hydroxide hydrate"], "SMILES": "[Li]O.O", "physical_data": {"Molecular Weight": "", "Molecular Formula": "H2O.HLiO", "Melting Point": "450 \u00b0C", "Density": "1.51 g/cm\u00b3"}}