{"cas_no": "1310-65-2", "cn_name": "\u6c22\u6c27\u5316\u9502", "en_name": ["Lithium hydroxide", "Lithium hydroxide (Li(OH))", "Lithium hydroxide"], "SMILES": "[Li]O", "physical_data": {"Molecular Weight": "", "Molecular Formula": "HLiO", "Melting Point": "450 \u00b0C", "Density": "1.46 g/cm\u00b3"}}