{"cas_no": "13106-53-1", "cn_name": "1-\u6b63\u5341\u516d\u70f7\u57fa-4-\u7532\u57fa\u5421\u5576\u6c2f\u76d0,\u6c34\u5408\u7269", "en_name": ["Pyridinium, 1-hexadecyl-4-methyl-, chloride (1:1)", "Pyridinium, 1-hexadecyl-4-methyl-, chloride (1:1)", "4-Picolinium, 1-hexadecyl-, chloride", "Pyridinium, 1-hexadecyl-4-methyl-, chloride", "1-Hexadecyl-4-picolinium chloride", "N-Hexadecyl-\u03b3-picolinium chloride", "1-Hexadecyl-4-methylpyridinium chloride"], "SMILES": "C(CCCCCCCCCCCCCCC)[N+]=1C=CC(C)=CC1.[Cl-]", "physical_data": {"Molecular Weight": "", "Molecular Formula": "C22H40N.Cl", "Melting Point": "75-76.5 \u00b0C"}}