{"cas_no": "1310-58-3", "cn_name": "\u6c22\u6c27\u5316\u94be", "en_name": ["Potassium hydroxide", "Potassium hydroxide (K(OH))", "Potassium hydroxide", "Caustic potash", "Potash", "Cyantek CC 723", "PSE 200", "Arrocon 2298", "Clearcut S", "Gardoclean S 5167", "Pipeline Gold", "FD 40", "Caustic Potash Flake", "Denkazai K 10M"], "SMILES": "[K]O", "physical_data": {"Molecular Weight": "", "Molecular Formula": "HKO", "Boiling Point": "1327 \u00b0C", "Melting Point": "380 \u00b0C", "Density": "2.044 g/cm\u00b3"}}