{"cas_no": "1310-82-3", "cn_name": "\u6c22\u6c27\u5316\u94f7", "en_name": ["Rubidium hydroxide", "Rubidium hydroxide (Rb(OH))", "Rubidium hydroxide"], "SMILES": "O[Rb]", "physical_data": {"Molecular Weight": "", "Molecular Formula": "HORb", "Melting Point": "301 \u00b0C", "Density": "1.0058 g/cm\u00b3 @ Temp: 25 \u00b0C"}}