{"cas_no": "13103-75-8", "cn_name": "4-2-\u5421\u5576\u5076\u6c2e-N,N-\u4e8c\u7532\u6c27\u57fa\u82ef\u80fa", "en_name": ["Pyridine-2-azo-p-dimethylaniline", "Benzenamine, N,N-dimethyl-4-[2-(2-pyridinyl)diazenyl]-", "Pyridine, 2-[[p-(dimethylamino)phenyl]azo]-", "Benzenamine, N,N-dimethyl-4-(2-pyridinylazo)-", "N,N-Dimethyl-4-[2-(2-pyridinyl)diazenyl]benzenamine", "4-(2-Pyridylazo)-N,N-dimethylaniline", "2-[[p-(Dimethylamino)phenyl]azo]pyridine", "PADA", "p-(2-Pyridylazo)dimethylaniline", "2-(p-N,N-Dimethylaminophenylazo)pyridine", "Pyridine-2-azo-p-dimethylaniline", "N,N-Dimethyl-4-(2-pyridylazo)aniline", "p-(2-Pyridylazo)-N,N-dimethylaniline", "NSC 9358"], "SMILES": "N(=NC1=CC=CC=N1)C2=CC=C(N(C)C)C=C2", "physical_data": {"Molecular Weight": "226.28", "Molecular Formula": "C13H14N4", "Melting Point": "142-143 \u00b0C"}}