{"cas_no": "13106-85-9", "cn_name": "2,4,6-\u4e09\u7532\u6c27\u57fa\u5627\u5576", "en_name": ["2,4,6-Trimethoxypyrimidine", "Pyrimidine, 2,4,6-trimethoxy-", "2,4,6-Trimethoxypyrimidine"], "SMILES": "O(C)C=1C=C(OC)N=C(OC)N1", "physical_data": {"Molecular Weight": "170.17", "Molecular Formula": "C7H10N2O3", "Melting Point": "53 \u00b0C"}}