{"cas_no": "1310-43-6", "cn_name": "\u78f7\u5316\u94c1", "en_name": ["Iron phosphide (Fe2P)", "Iron phosphide (Fe2P)", "Ferrous phosphide", "Diiron phosphide", "Diiron monophosphide", "Ferrophos (pigment)", "Ferrophos", "Ferrophos HRS 3095", "Ferrophos HRS 3212", "Ferrophos 31"], "SMILES": "", "physical_data": {"Molecular Weight": "", "Molecular Formula": "Fe2P", "Melting Point": "1420 \u00b0C", "Density": "5.7 g/cm\u00b3"}}