{"cas_no": "13117-94-7", "cn_name": "6-\u53d4\u4e01\u57fa\u90bb\u7532\u82ef\u80fa", "en_name": ["2-(1,1-Dimethylethyl)-6-methylbenzenamine", "Benzenamine, 2-(1,1-dimethylethyl)-6-methyl-", "o-Toluidine, 6-tert-butyl-", "2-(1,1-Dimethylethyl)-6-methylbenzenamine", "2-tert-Butyl-6-methylaniline", "2-Methyl-6-tert-butylaniline"], "SMILES": "C(C)(C)(C)C1=C(N)C(C)=CC=C1", "physical_data": {"Molecular Weight": "163.26", "Molecular Formula": "C11H17N", "Boiling Point": "225-250 \u00b0C"}}