{"cas_no": "13114-87-9", "cn_name": "1-(3-(\u4e09\u6c1f\u7532\u57fa)\u82ef\u57fa)\u8132", "en_name": ["(3-Trifluoromethylphenyl)urea", "Urea, N-[3-(trifluoromethyl)phenyl]-", "Urea, (\u03b1,\u03b1,\u03b1-trifluoro-m-tolyl)-", "Urea, [3-(trifluoromethyl)phenyl]-", "N-[3-(Trifluoromethyl)phenyl]urea", "3-(\u03b1,\u03b1,\u03b1-Trifluoro-m-tolyl)urea", "N-(3-Trifluoromethylphenyl)urea", "(3-Trifluoromethylphenyl)urea", "Didemethylfluometuron", "[m-(Trifluoromethyl)phenyl]urea", "NSC 136288", "1-(3-(Trifluoromethyl)phenyl)urea"], "SMILES": "N(C(N)=O)C1=CC(C(F)(F)F)=CC=C1", "physical_data": {"Molecular Weight": "204.15", "Molecular Formula": "C8H7F3N2O", "Melting Point": "105 \u00b0C"}}