{"cas_no": "13114-72-2", "cn_name": "3-\u7532\u57fa-1,1-\u4e8c\u82ef\u57fa\u8132", "en_name": ["Akardite II", "Urea, N\u2032-methyl-N,N-diphenyl-", "Urea, 3-methyl-1,1-diphenyl-", "N\u2032-Methyl-N,N-diphenylurea", "Acardite II", "Akardite II", "Akardit II", "N-Methyl-N\u2032,N\u2032-diphenylurea", "Acardit II", "3-Methyl-1,1-diphenyl-urea"], "SMILES": "N(C(NC)=O)(C1=CC=CC=C1)C2=CC=CC=C2", "physical_data": {"Molecular Weight": "226.27", "Molecular Formula": "C14H14N2O", "Melting Point": "173 \u00b0C"}}