{"cas_no": "13115-71-4", "cn_name": "\u7518\u6c28\u9170-L-\u8c37\u6c28\u9170\u80fa\u4e00\u6c34\u5408\u7269", "en_name": ["Glycyl-L-glutamine", "L-Glutamine, glycyl-", "Glutamine, N2-glycyl-, L-", "L-Glutamine, N2-glycyl-", "Glycyl-L-glutamine", "105: PN: EP2161028 PAGE: 10 claimed protein", "101: PN: WO2011146121 PAGE: 115 claimed sequence", "143: PN: US20130123467 SEQID: 172 claimed protein", "(2S)-2-(2-Aminoacetamido)-4-carbamoylbutanoic acid", "(S)-5-Amino-2-(2-aminoacetamido)-5-oxopentanoic acid", "(2S)-5-Amino-2-[(2-azaniumylacetyl)amino]-5-oxopentanoate", "23: PN: WO2020009548 SEQID: 23 claimed protein", "15: PN: WO2021055880 SEQID: 16 claimed protein", "23: PN: WO2021211467 SEQID: 176 claimed sequence"], "SMILES": "C(NC(CN)=O)(CCC(N)=O)C(O)=O", "physical_data": {"Molecular Weight": "203.20", "Molecular Formula": "C7H13N3O4", "Melting Point": "202-203 \u00b0C"}}