{"cas_no": "13110-37-7", "cn_name": "\u5bf9\u6c28\u57fa\u82ef\u7532\u9178\u6b63\u620a\u916f", "en_name": ["Pentyl 4-aminobenzoate", "Benzoic acid, 4-amino-, pentyl ester", "Benzoic acid, p-amino-, pentyl ester", "Pentyl 4-aminobenzoate", "Pentyl p-aminobenzoate", "4-Aminobenzoic acid amyl ester", "Sun Block Gel", "Sun Screen Gel", "Weatherproofer", "n-Pentyl p-aminobenzoate", "Amyl p-aminobenzoate", "NSC 69110"], "SMILES": "C(OCCCCC)(=O)C1=CC=C(N)C=C1", "physical_data": {"Molecular Weight": "207.27", "Molecular Formula": "C12H17NO2", "Melting Point": "52 \u00b0C"}}