{"cas_no": "131179-95-8", "cn_name": "\u4e59\u4e19\u6614\u7f57", "en_name": ["Efaproxiral", "Propanoic acid, 2-[4-[2-[(3,5-dimethylphenyl)amino]-2-oxoethyl]phenoxy]-2-methyl-", "2-[4-[2-[(3,5-Dimethylphenyl)amino]-2-oxoethyl]phenoxy]-2-methylpropanoic acid", "RSR 13", "2-[4-[[[(3,5-Dimethylphenyl)amino]carbonyl]methyl]phenoxy]-2-methylpropionic acid", "Efaproxiral", "2-[4-[(3,5-Dimethylanilino carbonyl)methyl]phenoxy]-2-methylpropionic acid"], "SMILES": "O(C(C(O)=O)(C)C)C1=CC=C(CC(NC2=CC(C)=CC(C)=C2)=O)C=C1", "physical_data": {"Molecular Weight": "341.40", "Molecular Formula": "C20H23NO4", "Melting Point": "138-139 \u00b0C"}}