{"cas_no": "13110-96-8", "cn_name": "5-\u4e59\u9170\u57fa\u6c34\u6768\u9178", "en_name": ["5-Acetylsalicylic acid", "Benzoic acid, 5-acetyl-2-hydroxy-", "Salicylic acid, 5-acetyl-", "5-Acetyl-2-hydroxybenzoic acid", "5-Acetylsalicylic acid", "3-Acetyl-6-hydroxybenzoic acid", "4-Hydroxy-3-carboxyacetophenone", "2-Hydroxy-5-acetylbenzoic acid"], "SMILES": "C(O)(=O)C1=CC(C(C)=O)=CC=C1O", "physical_data": {"Molecular Weight": "180.16", "Molecular Formula": "C9H8O4", "Melting Point": "216-217 \u00b0C"}}