{"cas_no": "13116-53-5", "cn_name": "\u56db\u6c2f\u4e19\u70f7", "en_name": ["1,2,2,3-Tetrachloropropane", "Propane, 1,2,2,3-tetrachloro-", "1,2,2,3-Tetrachloropropane", "HCC 250AA"], "SMILES": "C(CCl)(CCl)(Cl)Cl", "physical_data": {"Molecular Weight": "181.88", "Molecular Formula": "C3H4Cl4", "Boiling Point": "165 \u00b0C", "Density": "1.500 g/cm\u00b3 @ Temp: 18 \u00b0C"}}