{"cas_no": "13127-18-9", "cn_name": "\u7ea2\u9709\u7d20A\u809f", "en_name": ["Erythromycin A oxime", "Erythromycin, 9-oxime", "Oxacyclotetradecane, erythromycin deriv.", "Erythromycin 9-ketoxime", "Erythromycin A oxime", "Erythromycin oxime", "Erythromycin A 9-oxime", "RU 28111", "9-Hydroxyiminoerythromycin"], "SMILES": "O(C1C(C)C(OC2C(O)C(N(C)C)CC(C)O2)C(C)(O)CC(C)C(=NO)C(C)C(O)C(C)(O)C(CC)OC(=O)C1C)C3CC(OC)(C)C(O)C(C)O3", "physical_data": {"Molecular Weight": "748.94", "Molecular Formula": "C37H68N2O13", "Melting Point": "184-189 \u00b0C (decomp)"}}