{"cas_no": "1312-41-0", "cn_name": "\u9511\u5316\u94df", "en_name": ["Indium antimonide", "Antimony, compd. with indium (1:1)", "Indium antimonide (InSb)", "Antimony compd. with indium (1:1)", "Indium antimonide", "Indium compd. with antimony (1:1)", "Indium monoantimonide"], "SMILES": "[Sb].[In]", "physical_data": {"Molecular Weight": "", "Molecular Formula": "In.Sb", "Melting Point": "536 \u00b0C", "Density": "6.51 g/cm\u00b3"}}