{"cas_no": "13122-91-3", "cn_name": "N-\u82c4\u6c27\u7fb0\u57fa-L-\u82ef\u4e19\u6c28\u9170\u57fa-L-\u82ef\u4e19\u6c28\u9178", "en_name": ["N-[(Phenylmethoxy)carbonyl]-L-phenylalanyl-L-phenylalanine", "L-Phenylalanine, N-[(phenylmethoxy)carbonyl]-L-phenylalanyl-", "Alanine, N-(N-carboxy-3-phenyl-L-alanyl)-3-phenyl-, N-benzyl ester, L-", "L-Phenylalanine, N-[N-[(phenylmethoxy)carbonyl]-L-phenylalanyl]-", "N-[(Phenylmethoxy)carbonyl]-L-phenylalanyl-L-phenylalanine", "N-Benzyloxycarbonyl-L-phenylalanyl-L-phenylalanine", "Cbz-Phe-Phe-OH"], "SMILES": "C(CC1=CC=CC=C1)(C(NC(CC2=CC=CC=C2)C(O)=O)=O)NC(OCC3=CC=CC=C3)=O", "physical_data": {"Molecular Weight": "446.49", "Molecular Formula": "C26H26N2O5", "Melting Point": "155-156 \u00b0C"}}