{"cas_no": "13126-12-0", "cn_name": "\u785d\u9178\u94f7", "en_name": ["Nitric acid, rubidium salt (1:1)", "Nitric acid, rubidium salt (1:1)", "Nitric acid, rubidium salt", "Rubidium nitrate"], "SMILES": "N(=O)(=O)O.[Rb]", "physical_data": {"Molecular Weight": "", "Molecular Formula": "HNO3.Rb", "Melting Point": "313 \u00b0C"}}