{"cas_no": "1312-73-8", "cn_name": "\u786b\u5316\u94be", "en_name": ["Potassium sulfide", "Potassium sulfide (K2S)", "Potassium monosulfide", "Potassium sulfide", "Dipotassium sulfide", "Dipotassium monosulfide", "Dipotassium monosulfide (K2S)"], "SMILES": "S([K])[K]", "physical_data": {"Molecular Weight": "", "Molecular Formula": "K2S", "Boiling Point": "912 \u00b0C", "Melting Point": "912 \u00b0C", "Density": "1.74 g/cm\u00b3"}}