{"cas_no": "1312-43-2", "cn_name": "\u6c27\u5316\u94df", "en_name": ["Indium oxide", "Indium oxide (In2O3)", "Indium sesquioxide", "Indium(III) oxide", "Diindium trioxide", "Indium oxide", "Indium trioxide", "Indium(3+) oxide", "India", "Indium oxide (2:3)", "Mesatron", "Trioxodiindium", "EP-ITO-DL 1", "XH-ITO 02-1"], "SMILES": "", "physical_data": {"Molecular Weight": "", "Molecular Formula": "In2O3", "Melting Point": "1910 \u00b0C", "Density": "7.18 g/cm\u00b3 @ Temp: Room temp"}}