{"cas_no": "13122-90-2", "cn_name": "Boc-L-\u82ef\u4e19\u6c28\u9170-\u82ef\u4e19\u6c28\u9178", "en_name": ["N-[(1,1-Dimethylethoxy)carbonyl]-L-phenylalanyl-L-phenylalanine", "L-Phenylalanine, N-[(1,1-dimethylethoxy)carbonyl]-L-phenylalanyl-", "Alanine, N-(N-carboxy-3-phenyl-L-alanyl)-3-phenyl-, N-tert-butyl ester, L-", "L-Phenylalanine, N-[N-[(1,1-dimethylethoxy)carbonyl]-L-phenylalanyl]-", "N-[(1,1-Dimethylethoxy)carbonyl]-L-phenylalanyl-L-phenylalanine", "N-tert-Butoxycarbonyl-L-phenylalanyl-L-phenylalanine", "6: PN: WO2005025623 PAGE: 44 claimed protein", "Boc-L-Phe-L-Phe-OH"], "SMILES": "C(CC1=CC=CC=C1)(C(NC(CC2=CC=CC=C2)C(O)=O)=O)NC(OC(C)(C)C)=O", "physical_data": {"Molecular Weight": "412.48", "Molecular Formula": "C23H28N2O5", "Boiling Point": "30-60 \u00b0C", "Melting Point": "72-75 \u00b0C"}}