{"cas_no": "13127-88-3", "cn_name": "\u82ef\u915a-D6", "en_name": ["Phen-2,3,4,5,6-d5-ol-d", "Phen-2,3,4,5,6-d5-ol-d", "Phenol-d6", "Hexadeuteriophenol", "1,2,3,4,5-Pentadeuterio-6-deuteriooxybenzene"], "SMILES": "O(C1=CC=CC=C1)[2H]", "physical_data": {"Molecular Weight": "", "Molecular Formula": "C6D6O", "Melting Point": "40-40.5 \u00b0C"}}