{"cas_no": "13121-70-5", "cn_name": "\u4e09\u73af\u9521", "en_name": ["Cyhexatin", "Stannane, tricyclohexylhydroxy-", "Tin, tricyclohexylhydroxy-", "Tricyclohexylhydroxystannane", "Plictran", "Tricyclohexyltin hydroxide", "Tricyclohexylhydroxytin", "Plyctran", "M 3180", "Cyhexatin", "Hydroxytricyclohexylstannane", "Dowco 213", "Tricyclohexylstannanol", "Tricyclohexylstannyl hydroxide", "Redran 25PB", "Pliktran", "Acarex", "Acarstin", "Acarstin L", "NSC 179742", "Sipcatin", "Pennstyl", "Hokko Cyhexatin"], "SMILES": "[Sn](O)(C1CCCCC1)(C2CCCCC2)C3CCCCC3", "physical_data": {"Molecular Weight": "385.17", "Molecular Formula": "C18H34OSn", "Melting Point": "196 \u00b0C"}}