{"cas_no": "131211-27-3", "cn_name": "\u4e8c-1-\u91d1\u521a\u70f7\u57fa\u81a6", "en_name": ["Di-1-adamantylphosphine", "Phosphine, bis(tricyclo[3.3.1.13,7]dec-1-yl)-", "Bis(tricyclo[3.3.1.13,7]dec-1-yl)phosphine", "Di-1-adamantylphosphine", "Diadamantylphosphine", "Bis(adamant-1-yl)phosphine"], "SMILES": "P(C12CC3CC(C1)CC(C2)C3)C45CC6CC(C4)CC(C5)C6", "physical_data": {"Molecular Weight": "302.43", "Molecular Formula": "C20H31P", "Melting Point": "174-176 \u00b0C"}}