{"cas_no": "13122-99-1", "cn_name": "Z-PHE-GLY-OH", "en_name": ["N-[(Phenylmethoxy)carbonyl]-L-phenylalanylglycine", "Glycine, N-[(phenylmethoxy)carbonyl]-L-phenylalanyl-", "Glycine, N-(N-carboxy-3-phenyl-L-alanyl)-, N-benzyl ester", "Glycine, N-[N-[(phenylmethoxy)carbonyl]-L-phenylalanyl]-", "Glycine, N-(N-carboxy-3-phenylalanyl)-, N-benzyl ester", "N-[(Phenylmethoxy)carbonyl]-L-phenylalanylglycine", "N-(Benzyloxycarbonyl)-L-phenylalanylglycine", "Benzyloxycarbonyl-L-phenylalanylglycine", "N-Carbobenzoxy-L-phenylalanylglycine", "N-(Benzyloxycarbonyl)phenylalanylglycine", "NSC 76846", "2-[[(2S)-3-Phenyl-2-(phenylmethoxycarbonylamino)propanoyl]amino]acetic acid"], "SMILES": "C(CC1=CC=CC=C1)(NC(OCC2=CC=CC=C2)=O)C(NCC(O)=O)=O", "physical_data": {"Molecular Weight": "356.37", "Molecular Formula": "C19H20N2O5", "Melting Point": "151-152 \u00b0C"}}