{"cas_no": "13120-77-9", "cn_name": "5-\u785d\u57fa-2-\u7532\u57fa\u82ef\u7532\u919a", "en_name": ["2-Methoxy-1-methyl-4-nitrobenzene", "Benzene, 2-methoxy-1-methyl-4-nitro-", "Anisole, 2-methyl-5-nitro-", "2-Methoxy-1-methyl-4-nitrobenzene", "2-Methoxy-4-nitrotoluene", "4-Nitro-2-methoxytoluene", "2-Methyl-5-nitroanisole", "NSC 25213", "3-Methoxy-4-methylnitrobenzene"], "SMILES": "O(C)C1=CC(N(=O)=O)=CC=C1C", "physical_data": {"Molecular Weight": "167.16", "Molecular Formula": "C8H9NO3", "Melting Point": "69-70 \u00b0C"}}