{"cas_no": "13122-18-4", "cn_name": "\u53d4\u4e01\u57fa\u8fc7\u6c27\u5316-3,5,5-\u4e09\u7532\u57fa\u5df1\u9178\u916f", "en_name": ["tert-Butyl peroxy-3,5,5-trimethylhexanoate", "Hexaneperoxoic acid, 3,5,5-trimethyl-, 1,1-dimethylethyl ester", "Peroxyhexanoic acid, 3,5,5-trimethyl-, tert-butyl ester", "tert-Butyl 3,5,5-trimethylperoxyhexanoate", "tert-Butyl peroxy-3,5,5-trimethylhexanoate", "Trigonox 42", "Perbutyl 355", "Trigonox 42S", "Luperox 270", "Trigonox 42-50PS", "tert-Butyl 3,5,5-trimethylhexaneperoxoate", "Trigonox 42-40B", "Trigonox 42PR", "tert-Butyl 3,5,5-trimethylhexanoyl peroxide", "Peroxan PIN"], "SMILES": "C(CC(OOC(C)(C)C)=O)(CC(C)(C)C)C", "physical_data": {"Molecular Weight": "230.34", "Molecular Formula": "C13H26O3", "Melting Point": "160 \u00b0C (decomp)"}}