{"cas_no": "13137-64-9", "cn_name": "\u6760\u67f3\u6bd2\u82f7", "en_name": ["Periplocin", "Card-20(22)-enolide, 3-[(2,6-dideoxy-4-O-\u03b2-D-glucopyranosyl-3-O-methyl-\u03b2-D-ribo-hexopyranosyl)oxy]-5,14-dihydroxy-, (3\u03b2,5\u03b2)-", "Periplocin", "(3\u03b2,5\u03b2)-3-[(2,6-Dideoxy-4-O-\u03b2-D-glucopyranosyl-3-O-methyl-\u03b2-D-ribo-hexopyranosyl)oxy]-5,14-dihydroxycard-20(22)-enolide", "Periplocoside", "Periplogenin 3-O-[\u03b2-D-glucopyranosyl-(1\u21924)-\u03b2-D-cymaropyranoside]"], "SMILES": "OC12C3C(C4(C)C(O)(CC3)CC(OC5CC(OC)C(OC6OC(CO)C(O)C(O)C6O)C(C)O5)CC4)CCC1(C)C(CC2)C7=CC(=O)OC7", "physical_data": {"Molecular Weight": "696.82", "Molecular Formula": "C36H56O13", "Melting Point": "224 \u00b0C (decomp)"}}