{"cas_no": "13139-17-8", "cn_name": "\u82ef\u7532\u6c27\u7fb0\u9170\u7425\u73c0\u9170\u4e9a\u80fa", "en_name": ["N-(Benzyloxycarbonyloxy)succinimide", "Carbonic acid, 2,5-dioxo-1-pyrrolidinyl phenylmethyl ester", "Succinimide, N-(carboxyoxy)-, benzyl ester", "2,5-Pyrrolidinedione, 1-[[(phenylmethoxy)carbonyl]oxy]-", "Carbonic acid, monobenzyl ester, succinimido deriv.", "N-(Benzyloxycarbonyloxy)succinimide", "Benzyloxycarbonyloxysuccinimide", "Benzyl 2,5-dioxopyrrolid-1-yl carbonate", "N-(N-Benzyloxycarbonyloxy)succinimide", "Benzyl N-succinimidyl carbonate", "Benzyl succinimidyl carbonate", "Cbz-OSu", "1-[[(Benzyloxy)carbonyl]oxy]-2,5-pyrrolidinedione", "1-[[(Phenylmethoxy)carbonyl]oxy]-2,5-pyrrolidinedione", "Benzyl 2,5-dioxopyrrolidin-1-yl carbonate", "1-[[[(Phenylmethyl)oxy]carbonyl]oxy]-2,5-pyrrolidinedione"], "SMILES": "O(C(OCC1=CC=CC=C1)=O)N2C(=O)CCC2=O", "physical_data": {"Molecular Weight": "249.22", "Molecular Formula": "C12H11NO5", "Melting Point": "78-80 \u00b0C"}}