{"cas_no": "13133-07-8", "cn_name": "\u8517\u679c\u56db\u7cd6", "en_name": ["Nystose", "\u03b1-D-Glucopyranoside, O-\u03b2-D-fructofuranosyl-(2\u21921)-O-\u03b2-D-fructofuranosyl-(2\u21921)-\u03b2-D-fructofuranosyl", "Nystose", "Glucopyranoside, O-\u03b2-D-fructofuranosyl-(2\u21921)-O-\u03b2-D-fructofuranosyl-(2\u21921)-\u03b2-D-fructofuranosyl, \u03b1-D-", "O-\u03b2-D-Fructofuranosyl-(2\u21921)-O-\u03b2-D-fructofuranosyl-(2\u21921)-\u03b2-D-fructofuranosyl \u03b1-D-glucopyranoside", "Fructosyl-(2\u21921)-fructosyl-(2\u21921)-fructosyl-(2\u21921)-glucose", "Fungitetraose", "1,1-Kestotetraose"], "SMILES": "O(C1(COC2(COC3(CO)OC(CO)C(O)C3O)OC(CO)C(O)C2O)OC(CO)C(O)C1O)C4OC(CO)C(O)C(O)C4O", "physical_data": {"Molecular Weight": "666.58", "Molecular Formula": "C24H42O21", "Melting Point": "130-133 \u00b0C"}}