{"cas_no": "1313-13-9", "cn_name": "\u4e8c\u6c27\u5316\u9530", "en_name": ["Manganese oxide (MnO2)", "Manganese oxide (MnO2)", "Manganese dioxide", "Manganese dioxide (MnO2)", "Manganese oxide", "Manganese(IV) oxide", "FMH", "Battery manganese", "Eagle Picher G", "Cellmax CMD 1", "Cellmax CMD-U", "EMD", "G 80-325", "\u03b3-Manganese dioxide", "EP Type II", "CMD 100", "RB-A", "RB-A (oxide)", "PS 1102B", "Thiobrown", "HC 9", "OL 1", "HHTF", "HC 9 (oxide)", "GH-T", "GH-U", "GMR-T", "HH-TF 7", "HM 370", "HM 370 (oxide)", "HH-S", "HH-XFA", "Activated Manganese Dioxide", "DK 420", "Honeywell Fa 4", "Manganese oxide (MnO2)", "YJ 0169", "AMD 250", "LMD 180", "ZY 920"], "SMILES": "[Mn](=O)=O", "physical_data": {"Molecular Weight": "", "Molecular Formula": "MnO2", "Melting Point": "553 \u00b0C (decomp)", "Density": "5.0 g/cm\u00b3"}}