{"cas_no": "13139-16-7", "cn_name": "BOC-L-\u5f02\u4eae\u6c28\u9178", "en_name": ["tert-Butoxycarbonyl-L-isoleucine", "L-Isoleucine, N-[(1,1-dimethylethoxy)carbonyl]-", "Isoleucine, N-carboxy-, N-tert-butyl ester, L-", "N-[(1,1-Dimethylethoxy)carbonyl]-L-isoleucine", "tert-Butoxycarbonyl-L-isoleucine", "N-(tert-Butoxycarbonyl)-L-isoleucine", "N-(tert-Butyloxycarbonyl)-L-isoleucine", "N-Carboxyisoleucine N-tert-butyl ester", "N-tert-Butoxycarbonylisoleucine", "BOC-isoleucine", "BOC-L-isoleucine", "NSC 334311", "N-t-Boc-L-isoleucine", "(2S,3S)-2-[(tert-Butoxycarbonyl)amino]-3-methylpentanoic acid", "N-Boc-L-isoleucine", "(2S,3S)-2-(tert-Butoxycarbonylamino)-3-methylpentanoic acid"], "SMILES": "C(C(CC)C)(NC(OC(C)(C)C)=O)C(O)=O", "physical_data": {"Molecular Weight": "231.29", "Molecular Formula": "C11H21NO4", "Melting Point": "48-52 \u00b0C"}}