{"cas_no": "131341-86-1", "cn_name": "\u54af\u83cc\u8148", "en_name": ["Fludioxonil", "1H-Pyrrole-3-carbonitrile, 4-(2,2-difluoro-1,3-benzodioxol-4-yl)-", "4-(2,2-Difluoro-1,3-benzodioxol-4-yl)-1H-pyrrole-3-carbonitrile", "CGA 173506", "Maxim", "Fludioxonil", "Celeste", "Beret Gold", "Savior", "Maxim (pesticide)", "Scholar", "Geoxe", "Saphire", "Maxim PSP", "Seibia", "Maxim 4FS", "Spirato 480 FS", "Spirato", "Maxin XL"], "SMILES": "FC1(F)OC2=C(C=CC=C2O1)C=3C(C#N)=CNC3", "physical_data": {"Molecular Weight": "248.18", "Molecular Formula": "C12H6F2N2O2", "Melting Point": "199.8 \u00b0C"}}