{"cas_no": "13138-53-9", "cn_name": "4-\u785d\u57fa\u90bb\u82ef\u4e8c\u7532\u9170\u80fa", "en_name": ["4-Nitro-1,2-benzenedicarboxamide", "1,2-Benzenedicarboxamide, 4-nitro-", "4-Nitro-1,2-benzenedicarboxamide", "4-Nitrophthalamide", "NSC 94821"], "SMILES": "C(N)(=O)C1=C(C(N)=O)C=CC(N(=O)=O)=C1", "physical_data": {"Molecular Weight": "209.16", "Molecular Formula": "C8H7N3O4", "Melting Point": "189-191 \u00b0C"}}