{"cas_no": "13139-12-3", "cn_name": "N-\u7425\u73c0\u9170\u4e9a\u80fa\u78b3\u9178\u53d4\u4e01\u916f", "en_name": ["Carbonic acid, 1,1-dimethylethyl 2,5-dioxo-1-pyrrolidinyl ester", "Carbonic acid, 1,1-dimethylethyl 2,5-dioxo-1-pyrrolidinyl ester", "Succinimide, N-(carboxyoxy)-, tert-butyl ester", "2,5-Pyrrolidinedione, 1-[[(1,1-dimethylethoxy)carbonyl]oxy]-", "Carbonic acid, mono-tert-butyl ester, succinimido deriv.", "tert-Butyl succinimidyl carbonate", "N-(tert-Butoxycarbonyloxy)succinimide", "1-[(tert-Butoxycarbonyl)oxy]pyrrolidine-2,5-dione"], "SMILES": "O(C(OC(C)(C)C)=O)N1C(=O)CCC1=O", "physical_data": {"Molecular Weight": "215.20", "Molecular Formula": "C9H13NO5", "Melting Point": "98-100 \u00b0C"}}