{"cas_no": "13138-45-9", "cn_name": "\u785d\u9178\u954d(2+)", "en_name": ["Nickel nitrate", "Nitric acid, nickel(2+) salt (2:1)", "Nitric acid, nickel(2+) salt", "Nickel nitrate", "Nickelous nitrate", "Nickel nitrate (Ni(NO3)2)", "Nickel(II) nitrate", "Nickel dinitrate", "Nickel(2+) nitrate", "Nickel bis(nitrate)"], "SMILES": "N(=O)(=O)O.[Ni]", "physical_data": {"Molecular Weight": "", "Molecular Formula": "HNO3.<sup>1</sup>/2Ni", "Melting Point": "105-110 \u00b0C (decomp)"}}