{"cas_no": "13134-76-4", "cn_name": "3-\u7f9f\u57fa\u82ef\u5e76[B]\u567b\u5429-2-\u7fa7\u9178\u7532\u916f", "en_name": ["Methyl 3-hydroxybenzo[b]thiophene-2-carboxylate", "Benzo[b]thiophene-2-carboxylic acid, 3-hydroxy-, methyl ester", "Methyl 3-hydroxybenzo[b]thiophene-2-carboxylate", "3-Hydroxybenzo[b]thiophene-2-carboxylic acid methyl ester"], "SMILES": "OC=1C=2C(SC1C(OC)=O)=CC=CC2", "physical_data": {"Molecular Weight": "208.23", "Molecular Formula": "C10H8O3S", "Melting Point": "106-108 \u00b0C"}}