{"cas_no": "13132-23-5", "cn_name": "\u6c2f\u5316\u65b0\u620a\u70f7\u57fa\u9541", "en_name": ["Magnesium, chloro(2,2-dimethylpropyl)-", "Magnesium, chloro(2,2-dimethylpropyl)-", "Magnesium, chloroneopentyl-", "Neopentylmagnesium chloride", "Pivalylmagnesium chloride", "(2,2-Dimethylpropyl)magnesium chloride", "Chloroneopentylmagnesium", "Chloro(2,2-dimethylpropyl)magnesium"], "SMILES": "C(C(C)(C)C)[Mg]Cl", "physical_data": {"Molecular Weight": "", "Molecular Formula": "C5H11ClMg", "Boiling Point": "118-120 \u00b0C @ Press: 12 Torr"}}