{"cas_no": "13139-14-5", "cn_name": "N-\u53d4\u4e01\u6c27\u7fb0\u57fa-L-\u8272\u6c28\u9178", "en_name": ["N-tert-Butoxycarbonyl-L-tryptophan", "L-Tryptophan, N-[(1,1-dimethylethoxy)carbonyl]-", "Tryptophan, N-carboxy-, N-tert-butyl ester, L-", "Tryptophan, N-carboxy-, N-tert-butyl ester", "N-[(1,1-Dimethylethoxy)carbonyl]-L-tryptophan", "tert-Butoxycarbonyl-L-tryptophan", "N-tert-Butoxycarbonyl-L-tryptophan", "N-tert-Butyloxycarbonyl-L-tryptophan", "N\u03b1-tert-Butoxycarbonyl-L-tryptophan", "tert-Butyloxycarbonyl-L-tryptophan", "N\u03b1-tert-Butoxycarbonyltryptophan", "N\u03b1-BOC-L-tryptophan", "N-Boc-L-tryptophan", "N-(tert-Butoxycarbonyl)-L-tryptophan methyl ester", "NSC 334306", "(S)-2-[(tert-Butoxycarbonyl)amino]-3-(1H-indol-3-yl)propionic acid", "(S)-2-(((tert-Butoxy)carbonyl)amino)-3-(1H-indol-3-yl)propanoic acid", "N-BOC-L-Trp-OH", "(2S)-3-(1H-Indol-3-yl)-2-[(2-methylpropan-2-yl)oxycarbonylamino]propanoic acid", "(2S)-2-[[(tert-Butoxy)carbonyl]amino]-3-(1H-indol-3-yl)propanoic acid"], "SMILES": "C(C(NC(OC(C)(C)C)=O)C(O)=O)C=1C=2C(NC1)=CC=CC2", "physical_data": {"Molecular Weight": "304.34", "Molecular Formula": "C16H20N2O4", "Melting Point": "135.5-189.5 \u00b0C"}}