{"cas_no": "1313-82-2", "cn_name": "\u786b\u5316\u94a0", "en_name": ["Disodium sulfide", "Sodium sulfide (Na2S)", "Sodium monosulfide", "Sodium sulphide", "Disodium sulfide", "Sodium sulfide", "Disodium monosulfide", "Disodium sulfide (Na2S)", "NSC 41874"], "SMILES": "S([Na])[Na]", "physical_data": {"Molecular Weight": "", "Molecular Formula": "Na2S", "Melting Point": "&gt;1200 \u00b0C", "Density": "1.856 g/cm\u00b3 @ Temp: 14 \u00b0C"}}