{"cas_no": "1313-60-6", "cn_name": "\u8fc7\u6c27\u5316\u94a0", "en_name": ["Sodium peroxide", "Sodium peroxide (Na2(O2))", "Sodium peroxide", "Sodium oxide (Na2O2)", "Disodium dioxide", "Disodium peroxide"], "SMILES": "O(O[Na])[Na]", "physical_data": {"Molecular Weight": "", "Molecular Formula": "Na2O2", "Melting Point": "460 \u00b0C (decomp)", "Density": "2.805 g/cm\u00b3 @ Temp: 20 \u00b0C"}}