{"cas_no": "13139-15-6", "cn_name": "BOC-L-\u4eae\u6c28\u9178", "en_name": ["BOC-L-leucine", "L-Leucine, N-[(1,1-dimethylethoxy)carbonyl]-", "Leucine, N-carboxy-, N-tert-butyl ester, L-", "Leucine, N-carboxy-, N-tert-butyl ester", "N-[(1,1-Dimethylethoxy)carbonyl]-L-leucine", "tert-Butoxycarbonyl-L-leucine", "N-tert-Butoxycarbonylleucine", "N-(tert-Butoxycarbonyl)-L-leucine", "N-[(1,1-Dimethylethoxy)carbonyl]leucine", "N-Carboxy-L-leucine N-tert-butyl ester", "N-(\u03b1-tert-Butoxycarbonyl)leucine", "BOC-L-leucine", "BOC-L-Leu-OH", "NSC 108690", "(S)-2-[(tert-Butoxycarbonyl)amino]-4-methylpentanoic acid", "(2S)-2-[(tert-Butoxycarbonyl)amino]-4-methylpentanoic acid", "N-Boc-L-leucine", "(S)-N-(t-Butoxycarbonyl)leucine", "Boc-L-Leu-OH", "(2S)-2-[[(tert-Butoxy)carbonyl]amino]-4-methylpentanoic acid", "(2S)-4-Methyl-2-[(2-methylpropan-2-yl)oxycarbonylamino]pentanoic acid"], "SMILES": "C(NC(OC(C)(C)C)=O)(CC(C)C)C(O)=O", "physical_data": {"Molecular Weight": "231.29", "Molecular Formula": "C11H21NO4", "Melting Point": "67-72 \u00b0C"}}