{"cas_no": "1313-84-4", "cn_name": "\u4e5d\u6c34\u786b\u5316\u94a0", "en_name": ["Sodium sulfide nonahydrate", "Sodium sulfide (Na2S), nonahydrate", "Sodium monosulfide nonahydrate", "Sodium sulfide enneahydrate", "Sodium sulfide nonahydrate", "Disodium sulfide nonahydrate"], "SMILES": "S([Na])[Na].O", "physical_data": {"Molecular Weight": "", "Molecular Formula": "H2O.<sup>1</sup>/9Na2S", "Melting Point": "52 \u00b0C"}}