{"cas_no": "1313-99-1", "cn_name": "\u6c27\u5316\u954d", "en_name": ["Nickel monoxide", "Nickel oxide (NiO)", "Nickel monooxide", "Nickelous oxide", "Nickel(II) oxide", "Nickel monoxide", "Nickel(2+) oxide", "Mononickel oxide", "Nickel Oxide Sinter 75", "Nickel oxide", "NiO-G 39", "NiO-D", "NiO-FP", "High purity nickel oxide F", "Avantama P21"], "SMILES": "[Ni]=O", "physical_data": {"Molecular Weight": "", "Molecular Formula": "NiO", "Melting Point": "1955 \u00b0C", "Density": "6.72 g/cm\u00b3"}}