{"cas_no": "1313-27-5", "cn_name": "\u4e09\u6c27\u5316\u94bc", "en_name": ["Molybdenum oxide (MoO3)", "Molybdenum oxide (MoO3)", "Molybdenum trioxide", "Molybdic acid anhydride", "Molybdic anhydride", "Molybdenum(VI) oxide", "Molybdenum oxide", "Mo 1202T", "Molybdic oxide", "Molybdena", "Molybdenum(VI) trioxide", "Molybdenum oxide (Mo4O12)", "Molybdenum trioxide tetramer", "Molybdenum oxide (Mo5O15)", "Molybdenum trioxide pentamer", "Bouen SKN 301", "MFR", "Pol-U", "JCPDS 35-0609", "NSC 215191", "MOP-P 100", "SS-M 0100"], "SMILES": "[Mo](=O)(=O)=O", "physical_data": {"Molecular Weight": "", "Molecular Formula": "MoO3", "Boiling Point": "1155 \u00b0C", "Melting Point": "795 \u00b0C", "Density": "4.69 g/cm\u00b3 @ Temp: 26 \u00b0C"}}