{"cas_no": "13130-50-2", "cn_name": "2,2:5,2-\u4e09\u567b\u5429-5,5-\u4e8c\u7532\u919b", "en_name": ["[2,2\u2032:5\u2032,2\u2032\u2032-Terthiophene]-5,5\u2032\u2032-dicarboxaldehyde", "[2,2\u2032:5\u2032,2\u2032\u2032-Terthiophene]-5,5\u2032\u2032-dicarboxaldehyde", "5,5\u2032\u2032-Di(carbaldehyde)-2,2\u2032:5\u2032,2\u2032\u2032-terthiophene", "5,5\u2032\u2032-Biformyl-2,2\u2032:5\u2032,2\u2032\u2032-terthiophene"], "SMILES": "C(=O)C=1SC(C=2SC(=CC2)C=3SC(C=O)=CC3)=CC1", "physical_data": {"Molecular Weight": "304.41", "Molecular Formula": "C14H8O2S3", "Melting Point": "215-218 \u00b0C"}}