{"cas_no": "1313725-88-0", "cn_name": "\u6c83\u5229\u66ff\u5c3c", "en_name": ["1-[(1S)-1-Imidazo[1,2-a]pyridin-6-ylethyl]-6-(1-methyl-1H-pyrazol-4-yl)-1H-1,2,3-triazolo[4,5-b]pyrazine", "1H-1,2,3-Triazolo[4,5-b]pyrazine, 1-[(1S)-1-imidazo[1,2-a]pyridin-6-ylethyl]-6-(1-methyl-1H-pyrazol-4-yl)-", "1-[(1S)-1-Imidazo[1,2-a]pyridin-6-ylethyl]-6-(1-methyl-1H-pyrazol-4-yl)-1H-1,2,3-triazolo[4,5-b]pyrazine", "Savolitinib", "AZD 6094", "HMPL 504", "HM 5016504", "Volitinib", "1H-1,2,3-Triazolo[4,5-b]pyrazine 1-[(1S)-1-imidazo[1,2-a]pyridin-6-ylethyl]-6-(1-methyl-1H-pyrazol-4-yl)-", "3-[(1S)-1-Imidazo[1,2-a]pyridin-6-ylethyl]-5-(1-methylpyrazol-4-yl)triazolo[4,5-b]pyrazine", "AZD6094", "AZD-6094"], "SMILES": "C(C)(N1C=2C(N=N1)=NC=C(N2)C3=CN(C)N=C3)C4=CN5C(C=C4)=NC=C5", "physical_data": {"Molecular Weight": "345.36", "Molecular Formula": "C17H15N9", "Melting Point": "205.9-208.8 \u00b0C"}}