{"cas_no": "1313-59-3", "cn_name": "\u6c27\u5316\u94a0", "en_name": ["Sodium oxide", "Sodium oxide (Na2O)", "Sodium oxide", "Disodium monoxide", "Disodium oxide", "Sodium oxide (NaO0.5)", "Natria"], "SMILES": "O([Na])[Na]", "physical_data": {"Molecular Weight": "", "Molecular Formula": "Na2O", "Melting Point": "1130 \u00b0C", "Density": "2.25 g/cm\u00b3 @ Temp: 0 \u00b0C"}}