{"cas_no": "1313-96-8", "cn_name": "\u4e94\u6c27\u5316\u4e8c\u94cc", "en_name": ["Niobium pentoxide", "Niobium oxide (Nb2O5)", "Niobium pentoxide", "Diniobium pentaoxide", "Diniobium pentoxide", "Niobium pentaoxide", "Niobium(V) oxide", "Niobium oxide", "Niobia", "Niobium(5+) oxide", "Niobium oxide (Nb10O25)", "Cerac N 1117", "Optolake 17", "Nd-AC 25E", "Biral Nb-X 10", "HY 340", "HY 340 (metal oxide)", "Biral Nb-G 6000", "Nb-X 10", "Nb-G 6000", "Biral Nb-G 6600", "Nb-G 6600", "Biral Nb 6000"], "SMILES": "", "physical_data": {"Molecular Weight": "", "Molecular Formula": "Nb2O5", "Melting Point": "1485 \u00b0C", "Density": "4.36 g/cm\u00b3"}}