{"cas_no": "1314-80-3", "cn_name": "\u4e94\u786b\u5316\u4e8c\u78f7", "en_name": ["Phosphorus sulfide (P2S5)", "Phosphorus sulfide (P2S5)", "Phosphoric sulfide", "Phosphorus pentasulfide", "Phosphorus persulfide", "Thiophosphoric anhydride", "Phosphorus pentasulfide (P2S5)", "Phosphorus sulfide (P4S10)", "Tetraphosphorus decasulfide", "Phosphorus pentasulfide (P4S10)", "Diphosphorus pentasulfide", "Sulfur phosphenodithioite (S(PS2)2)"], "SMILES": "[S].[P]", "physical_data": {"Molecular Weight": "", "Molecular Formula": "P.S", "Boiling Point": "513-515 \u00b0C", "Melting Point": "286-290 \u00b0C", "Density": "2.062 g/cm\u00b3"}}