{"cas_no": "1314-95-0", "cn_name": "\u786b\u5316\u4e9a\u9521(II)", "en_name": ["Tin sulfide (SnS)", "Tin sulfide (SnS)", "Tin monosulfide", "Tin protosulfide", "Stannous sulfide", "Tin(2+) sulfide", "Tin(II) sulfide", "Tin sulfide (Sn2S2)", "Frenostannid"], "SMILES": "S=[Sn]", "physical_data": {"Molecular Weight": "", "Molecular Formula": "SSn", "Boiling Point": "~1230 \u00b0C (approx)", "Melting Point": "880 \u00b0C"}}