{"cas_no": "1314-34-7", "cn_name": "\u4e09\u6c27\u5316\u4e8c\u9492(III)", "en_name": ["Vanadium oxide (V2O3)", "Vanadium oxide (V2O3)", "Vanadic oxide", "Vanadium sesquioxide", "Vanadium trioxide", "Divanadium trioxide", "Vanadium(3+) oxide"], "SMILES": "", "physical_data": {"Molecular Weight": "", "Molecular Formula": "O3V2", "Melting Point": "1940 \u00b0C", "Density": "4.87 g/cm\u00b3"}}