{"cas_no": "1314-24-5", "cn_name": "\u4e09\u6c27\u5316\u78f7", "en_name": ["Phosphorus oxide (P2O3)", "Phosphorus oxide (P2O3)", "Diphosphorus trioxide", "Phosphorus trioxide", "Phosphorus sesquioxide"], "SMILES": "[P].[O]", "physical_data": {"Molecular Weight": "", "Molecular Formula": "O.P", "Boiling Point": "175.4 \u00b0C", "Melting Point": "23.8 \u00b0C"}}