{"cas_no": "13147-25-6", "cn_name": "N-\u4e59\u57fa-N-(2-\u7f9f\u4e59\u57fa)\u4e9a\u785d\u80fa", "en_name": ["2-(Ethylnitrosoamino)ethanol", "Ethanol, 2-(ethylnitrosoamino)-", "Ethanol, 2-(ethylnitrosamino)-", "2-(Ethylnitrosoamino)ethanol", "N-Nitroso-2-(ethylamino)ethanol", "N-Nitrosoethyl-2-hydroxyethylamine", "N-Nitroso-N-ethyl-2-hydroxyethylamine", "N-Ethyl-N-(2-hydroxyethyl)nitrosamine", "N-(2-Hydroxyethyl)-N-ethylnitrosamine", "2-[Ethyl(nitroso)amino]ethan-1-ol"], "SMILES": "N(CCO)(CC)N=O", "physical_data": {"Molecular Weight": "118.13", "Molecular Formula": "C4H10N2O2", "Boiling Point": "103-105 \u00b0C @ Press: 3 Torr"}}