{"cas_no": "1314-28-9", "cn_name": "\u6c27\u5316\u94fc", "en_name": ["Rhenium oxide (ReO3)", "Rhenium oxide (ReO3)", "Rhenic anhydride", "Rhenium trioxide", "Rhenium trioxide (ReO3)", "Rhenium(VI) oxide", "Rhenium oxide (Re2O6)"], "SMILES": "[Re](=O)(=O)=O", "physical_data": {"Molecular Weight": "", "Molecular Formula": "O3Re", "Boiling Point": "614 \u00b0C", "Density": "7.2 g/cm\u00b3"}}