{"cas_no": "1314-85-8", "cn_name": "\u4e09\u786b\u5316\u78f7", "en_name": ["3,5,7-Trithia-1,2,4,6-tetraphosphatricyclo[2.2.1.02,6]heptane", "3,5,7-Trithia-1,2,4,6-tetraphosphatricyclo[2.2.1.02,6]heptane", "Phosphorus sulfide (P4S3)", "Phosphorus sesquisulfide", "Tetraphosphorus trisulfide", "Trisulfurated phosphorus"], "SMILES": "P12P3P1SP(S2)S3", "physical_data": {"Molecular Weight": "220.09", "Molecular Formula": "P4S3", "Boiling Point": "407.5 \u00b0C", "Melting Point": "172.5 \u00b0C", "Density": "2.03 g/cm\u00b3 @ Temp: 20 \u00b0C"}}