{"cas_no": "1314-96-1", "cn_name": "\u786b\u5316\u9536", "en_name": ["Strontium sulfide", "Strontium sulfide (SrS)", "Strontium sulfide", "C.I. 77847", "C.I. Pigment White 8", "Strontium monosulfide", "Pigment White 8"], "SMILES": "S=[Sr]", "physical_data": {"Molecular Weight": "", "Molecular Formula": "SSr", "Melting Point": "2002 \u00b0C", "Density": "3.70 g/cm\u00b3 @ Temp: 25 \u00b0C"}}