{"cas_no": "1314-62-1", "cn_name": "\u4e94\u6c27\u5316\u4e8c\u9492", "en_name": ["Vanadium oxide (V2O5)", "Vanadium oxide (V2O5)", "C.I. 77938", "Vanadic anhydride", "Vanadium pentoxide", "Divanadium pentoxide", "Divanadium pentaoxide", "Vanadium oxide", "Vanadia", "Pentaoxodivanadium", "Vanadium(V) oxide", "Vanadium oxide (V4O10)", "VT 1", "VT 1 (colorant)", "Vanadium oxide (VO2.5)", "Red vanadium"], "SMILES": "", "physical_data": {"Molecular Weight": "", "Molecular Formula": "O5V2", "Melting Point": "690 \u00b0C", "Density": "3.357 g/cm\u00b3 @ Temp: 18 \u00b0C"}}