{"cas_no": "1314-18-7", "cn_name": "\u8fc7\u6c27\u5316\u9536", "en_name": ["Strontium peroxide", "Strontium peroxide (Sr(O2))", "Strontium dioxide", "Strontium oxide (SrO2)", "Strontium peroxide"], "SMILES": "O1O[Sr]1", "physical_data": {"Molecular Weight": "", "Molecular Formula": "O2Sr", "Melting Point": "215 \u00b0C (decomp)", "Density": "4.78 g/cm\u00b3"}}