{"cas_no": "1314-98-3", "cn_name": "\u786b\u5316\u950c", "en_name": ["Zinc sulfide", "Zinc sulfide (ZnS)", "Zinc sulfide", "Albalith", "Zinc monosulfide", "Irtran 2", "Sachtolith HD-S", "Sachtolith", "C.I. Pigment White 7", "Cleartran", "Pigment White 7", "KV 1", "KV 2", "HD-S", "Sachtolith L", "FV 40-1", "Zinc(II) sulfide", "FV 40-1 (sulfide)", "Sachtolith HD", "C.I. Pigment Black 17", "Pigment Black 17", "C.I. 77975", "Litopone L", "RAK-LC", "RAK-S", "ZNI 08PB", "RAK-N", "Sachtolith HD-L", "Sachtotec MD 300", "UPL 10478", "AM-ZnS 001-1"], "SMILES": "S=[Zn]", "physical_data": {"Molecular Weight": "", "Molecular Formula": "SZn", "Melting Point": "1700 \u00b0C", "Density": "4.32 g/cm\u00b3"}}