{"cas_no": "1314-35-8", "cn_name": "\u4e09\u6c27\u5316\u94a8", "en_name": ["Tungsten oxide (WO3)", "Tungsten oxide (WO3)", "Tungsten trioxide", "Tungstic anhydride", "Tungstic oxide", "C.I. 77901", "Tungsten trioxide (WO3)", "Tungsten oxide", "Tungsten(VI) oxide", "Tungstic oxide (WO3)", "Tungsten oxide (W2O6)", "Ditungsten hexaoxide", "Tungsten oxide (W3O9)", "Tritungsten nonaoxide", "Tungsten oxide (W4O12)", "WWO 03PB", "YMDS 06", "FI-WO 3", "Renecat", "SII 30", "CQ 8116", "CQ 81G16", "CQM 30", "Avantama P10", "W 5", "MG-W 03-50"], "SMILES": "[W](=O)(=O)=O", "physical_data": {"Molecular Weight": "", "Molecular Formula": "O3W", "Melting Point": "1472 \u00b0C", "Density": "7.2 g/cm\u00b3"}}