{"cas_no": "13149-00-3", "cn_name": "\u516d\u6c22\u90bb\u82ef\u4e8c\u7532\u9178\u9150", "en_name": ["cis-1,2-Cyclohexanedicarboxylic anhydride", "1,3-Isobenzofurandione, hexahydro-, (3aR,7aS)-rel-", "1,2-Cyclohexanedicarboxylic anhydride, cis-", "1,3-Isobenzofurandione, hexahydro-, cis-", "rel-(3aR,7aS)-Hexahydro-1,3-isobenzofurandione", "cis-1,2-Cyclohexanedicarboxylic anhydride", "cis-Hexahydrophthalic anhydride", "cis-Cyclohexane-1,2-dicarboxylic acid anhydride", "rel-(3aR,7aS)-Hexahydroisobenzofuran-1,3-dione", "cis-1,2-Cyclohexanecarboxylic acid anhydride"], "SMILES": "O=C1C2C(C(=O)O1)CCCC2", "physical_data": {"Molecular Weight": "154.16", "Molecular Formula": "C8H10O3", "Boiling Point": "158-160 \u00b0C @ Press: 17 Torr", "Melting Point": "72.0-72.5 \u00b0C"}}