{"cas_no": "1314-68-7", "cn_name": "\u4e03\u6c27\u5316\u4e8c\u94fc", "en_name": ["Rhenium oxide (Re2O7)", "Rhenium oxide (Re2O7)", "Dirhenium heptoxide", "Rhenium heptaoxide", "Rhenium heptoxide", "Dirhenium heptaoxide", "Rhenium(VII) oxide"], "SMILES": "", "physical_data": {"Molecular Weight": "", "Molecular Formula": "O7Re2", "Boiling Point": "358.6 \u00b0C", "Melting Point": "26-30 \u00b0C", "Density": "6.14 g/cm\u00b3"}}