{"cas_no": "1314-20-1", "cn_name": "\u785d\u9178\u948d\u6c34\u5408\u7269", "en_name": ["Thorium oxide (ThO2)", "Thorium oxide (ThO2)", "Thoria", "Thorium dioxide", "Thorotrast", "Umbrathor", "Thorium oxide", "Thorium(IV) oxide"], "SMILES": "[Th](=O)=O", "physical_data": {"Molecular Weight": "", "Molecular Formula": "O2Th", "Boiling Point": "4400 \u00b0C", "Melting Point": "3390 \u00b0C", "Density": "10.0 g/cm\u00b3"}}