{"cas_no": "1314-41-6", "cn_name": "\u56db\u6c27\u5316\u4e09\u94c5", "en_name": ["Lead oxide (Pb3O4)", "Lead oxide (Pb3O4)", "C.I. 77578", "C.I. Pigment Red 105", "Gold Satinobre", "Lead orthoplumbate", "Lead oxide red", "Lead tetroxide", "Mineral Orange", "Mineral red", "Minium", "Minium Non-Setting RL 95", "Orange Lead", "Paris Red", "Sandix", "Saturn Red", "Red lead", "Minium red", "Trilead tetroxide", "Red lead oxide (Pb3O4)", "Trilead tetraoxide", "Lead tetraoxide", "Lead oxide", "Mennige", "Red lead oxide", "Lead oxide (3:4)", "Pigment Red 105", "Heuconin 5", "Minium (Pb3O4)", "Red lead (pigment)", "Azarcon", "Entan", "Flowsperse R 12", "Kremer 42500", "Lead minium", "PAB 1631", "Hongdon", "Zuoshi T 97", "T 97"], "SMILES": "", "physical_data": {"Molecular Weight": "", "Molecular Formula": "O4Pb3", "Melting Point": "500 \u00b0C (decomp)", "Density": "9.1 g/cm\u00b3"}}