{"cas_no": "1314-36-9", "cn_name": "\u6c27\u5316\u9487", "en_name": ["Yttrium sesquioxide", "Yttrium oxide (Y2O3)", "Yttria", "Yttrium sesquioxide", "Diyttrium trioxide", "Yttrium trioxide", "Yttrium(3+) oxide", "Yttrium(III) oxide", "Yttrium oxide", "YO 3-245", "Yttrium oxide (YO1.5)", "Y-F", "Nanotek Y2O3", "RU-PB", "PC-YH", "SY (oxide)", "SY", "BB", "BB (metal oxide)", "FCD-660-2", "Y-F (metal oxide)", "YYO 01PA", "PC Y 350", "Yttrium oxide grade C", "Type BB", "Amperit 849.054", "NR", "RU-P (oxide)", "RU-P", "SSE-R1-7", "FY-10", "FY-7", "FY-5", "FY-2", "YYK01LB Y-03", "N-YT 4CP", "5610ZQ", "UG-Y 01", "YT 3CP"], "SMILES": "", "physical_data": {"Molecular Weight": "", "Molecular Formula": "O3Y2", "Melting Point": "2415 \u00b0C", "Density": "4.86 g/cm\u00b3"}}