{"cas_no": "1314-84-7", "cn_name": "\u78f7\u5316\u950c", "en_name": ["Zinc phosphide", "Zinc phosphide (Zn3P2)", "Zinc phosphide", "Trizinc diphosphide", "Delusal", "Stutox", "Arrex E", "Stutox I", "ZP Rodent Bait AG", "Ratol", "Zinctox", "Nera"], "SMILES": "", "physical_data": {"Molecular Weight": "", "Molecular Formula": "P2Zn3", "Boiling Point": "1100 \u00b0C", "Melting Point": "420 \u00b0C", "Density": "4.55 g/cm\u00b3"}}