{"cas_no": "1314-32-5", "cn_name": "\u6c27\u5316\u94ca[\u4e09\u6c27\u5316(\u4e8c)\u94ca]", "en_name": ["Thallium oxide (Tl2O3)", "Thallium oxide (Tl2O3)", "Thallic oxide", "Thallium sesquioxide", "Dithallium trioxide", "Thallium(III) oxide", "Thallium oxide", "Thallium(3+) oxide", "Thallium trioxide", "Thallium oxide (2:3)"], "SMILES": "", "physical_data": {"Molecular Weight": "", "Molecular Formula": "O3Tl2", "Boiling Point": "896 \u00b0C", "Melting Point": "717 \u00b0C", "Density": "10.2 g/cm\u00b3"}}