{"cas_no": "1314-61-0", "cn_name": "\u6c27\u5316\u94bd", "en_name": ["Tantalum pentoxide", "Tantalum oxide (Ta2O5)", "Tantalic acid anhydride", "Tantalum pentaoxide", "Tantalum pentoxide", "Tantalum pentoxide (Ta2O5)", "Tantalum(V) oxide", "Ditantalum pentoxide", "Ditantalum pentaoxide", "Tantala", "Tantalum oxide", "Cerac T 1013", "Tantalum oxide (TaO2.5)", "Tantalum oxide (Ta0.8O2)", "TBTEMT"], "SMILES": "", "physical_data": {"Molecular Weight": "", "Molecular Formula": "O5Ta2", "Melting Point": "1875 \u00b0C", "Density": "8 g/cm\u00b3"}}