{"cas_no": "1314-91-6", "cn_name": "\u78b2\u5316\u94c5", "en_name": ["Lead telluride", "Lead telluride (PbTe)", "Lead monotelluride", "Lead telluride", "Lead(2+) telluride", "Lead telluride (Pb0.5Te0.5)", "Plumbous telluride"], "SMILES": "[Pb]=[Te]", "physical_data": {"Molecular Weight": "", "Molecular Formula": "PbTe", "Melting Point": "925 \u00b0C", "Density": "8.17 g/cm\u00b3 @ Temp: Room temp"}}