{"cas_no": "131427-22-0", "cn_name": "1-\u82c4\u57fa-3-(\u6c2f\u7532\u57fa)-1H-\u5432\u5511", "en_name": ["3-(Chloromethyl)-1-(phenylmethyl)-1H-indazole", "1H-Indazole, 3-(chloromethyl)-1-(phenylmethyl)-", "3-(Chloromethyl)-1-(phenylmethyl)-1H-indazole", "1-Benzyl-3-chloromethylindazole", "1-Benzyl-3-(chloromethyl)-1H-indazole"], "SMILES": "C(N1C=2C(C(CCl)=N1)=CC=CC2)C3=CC=CC=C3", "physical_data": {"Molecular Weight": "256.73", "Molecular Formula": "C15H13ClN2", "Melting Point": "89-91 \u00b0C"}}