{"cas_no": "1314-56-3", "cn_name": "\u4e94\u6c27\u5316\u4e8c\u78f7", "en_name": ["Phosphorus pentoxide", "Phosphorus oxide (P2O5)", "Diphosphorus pentoxide", "Phosphoric anhydride", "Phosphorus pentaoxide", "Phosphorus pentoxide", "Diphosphorus pentaoxide", "Phosphoric pentoxide", "Diphosphorus pentaoxide (P2O5)", "Phosphorus oxide", "Phosphoric acid anhydride", "Phosphoric oxide"], "SMILES": "", "physical_data": {"Molecular Weight": "", "Molecular Formula": "O5P2", "Boiling Point": "500 \u00b0C @ Press: 550 Torr", "Melting Point": "562 \u00b0C", "Density": "2.30 g/cm\u00b3"}}