{"cas_no": "1314-87-0", "cn_name": "\u786b\u5316\u94c5", "en_name": ["Lead sulfide (PbS)", "Lead sulfide (PbS)", "C.I. 77640", "Natural lead sulfide", "Plumbous sulfide", "Lead monosulfide", "P 128 (sulfide)", "Lead sulfide", "Lead(2+) sulfide", "Lead(II) sulfide", "P 37", "P 37 (filter)", "Lead sulfide (1:1)", "P 128", "Lead sulfide (Pb2S2)"], "SMILES": "[Pb]=S", "physical_data": {"Molecular Weight": "", "Molecular Formula": "PbS", "Boiling Point": "1281 \u00b0C @ Press: 800 Torr", "Melting Point": "1114 \u00b0C", "Density": "7.57-7.59 g/cm\u00b3"}}