{"cas_no": "13156-95-1", "cn_name": "\u4e59\u9170\u80fa,2-\u6c2f-N-\u82ef\u4e59\u57fa-", "en_name": ["2-Chloro-N-(2-phenylethyl)acetamide", "Acetamide, 2-chloro-N-(2-phenylethyl)-", "Acetamide, 2-chloro-N-phenethyl-", "2-Chloro-N-(2-phenylethyl)acetamide", "N-Phenethylchloroacetamide", "NSC 8377", "2-Chloro-N-phenethylacetamide", "N-(2-Phenylethyl)-2-chloroacetamide"], "SMILES": "C(CNC(CCl)=O)C1=CC=CC=C1", "physical_data": {"Molecular Weight": "197.66", "Molecular Formula": "C10H12ClNO", "Boiling Point": "186-189 \u00b0C @ Press: 14 Torr", "Melting Point": "67 \u00b0C"}}