{"cas_no": "13154-25-1", "cn_name": "\u4e09\u5f02\u4e01\u57fa\u6c2f\u7845\u70f7", "en_name": ["Chlorotris(2-methylpropyl)silane", "Silane, chlorotris(2-methylpropyl)-", "Silane, chlorotriisobutyl-", "Chlorotris(2-methylpropyl)silane", "NSC 516680", "Triisobutylsilyl chloride", "Chlorotris(isobutyl)silane", "Chloro(tri-isobutyl)silane"], "SMILES": "[Si](CC(C)C)(CC(C)C)(CC(C)C)Cl", "physical_data": {"Molecular Weight": "234.88", "Molecular Formula": "C12H27ClSi", "Boiling Point": "225-228 \u00b0C", "Density": "0.877 g/cm\u00b3"}}