{"cas_no": "1315-01-1", "cn_name": "\u4e8c\u786b\u5316\u9521", "en_name": ["Tin sulfide (SnS2)", "Tin sulfide (SnS2)", "C.I. 77878", "C.I. Pigment Yellow 38", "Stannic sulfide", "Tin disulfide", "Tin disulfide (SnS2)", "Pigment Yellow 38", "Tin(IV) sulfide", "Mosaic gold"], "SMILES": "[Sn](=S)=S", "physical_data": {"Molecular Weight": "182.84", "Molecular Formula": "S2Sn", "Melting Point": "870 \u00b0C"}}