{"cas_no": "1315-05-5", "cn_name": "\u7852\u5316\u9511", "en_name": ["Antimony selenide (Sb2Se3)", "Antimony selenide (Sb2Se3)", "Antimony triselenide", "Antimony sesquiselenide", "Diantimony triselenide", "Antimony(3+) selenide", "Antimony selenide", "Antimony(III) selenide"], "SMILES": "", "physical_data": {"Molecular Weight": "", "Molecular Formula": "Sb2Se3", "Boiling Point": "1031.9 \u00b0C", "Melting Point": "605 \u00b0C"}}