{"cas_no": "13156-04-2", "cn_name": "N-\u53d4\u4e01\u57fa-3-\u7f9f\u57fa\u6c2e\u6742\u73af\u4e01\u70f7", "en_name": ["1-tert-Butyl-3-hydroxyazetidine", "3-Azetidinol, 1-(1,1-dimethylethyl)-", "3-Azetidinol, 1-tert-butyl-", "1-(1,1-Dimethylethyl)-3-azetidinol", "1-tert-Butyl-3-azetidinol", "N-tert-Butyl-3-azetidinol", "1-tert-Butyl-3-hydroxyazetidine", "NSC 148268"], "SMILES": "C(C)(C)(C)N1CC(O)C1", "physical_data": {"Molecular Weight": "129.20", "Molecular Formula": "C7H15NO", "Melting Point": "45-46 \u00b0C"}}