{"cas_no": "13154-24-0", "cn_name": "\u4e09\u5f02\u4e19\u57fa\u6c2f\u7845\u70f7", "en_name": ["Triisopropylsilyl chloride", "Silane, chlorotris(1-methylethyl)-", "Silane, chlorotriisopropyl-", "Chlorotris(1-methylethyl)silane", "Triisopropylchlorosilane", "Triisopropylsilyl chloride", "Chlorotriisopropylsilane"], "SMILES": "[Si](C(C)C)(C(C)C)(C(C)C)Cl", "physical_data": {"Molecular Weight": "192.80", "Molecular Formula": "C9H21ClSi", "Boiling Point": "79-80 \u00b0C @ Press: 10 Torr", "Density": "0.903 g/cm\u00b3"}}