{"cas_no": "1315-11-3", "cn_name": "\u78b2\u5316\u950c", "en_name": ["Zinc telluride", "Zinc telluride (ZnTe)", "Zinc monotelluride", "Zinc telluride", "Zinc telluride (Zn0.5Te0.5)"], "SMILES": "[Te]=[Zn]", "physical_data": {"Molecular Weight": "", "Molecular Formula": "TeZn", "Melting Point": "1300 \u00b0C"}}