{"cas_no": "1315-09-9", "cn_name": "\u7852\u5316\u950c", "en_name": ["Zinc selenide", "Zinc selenide (ZnSe)", "Zinc selenide", "Irtran 4", "Zinc monoselenide"], "SMILES": "[Se]=[Zn]", "physical_data": {"Molecular Weight": "", "Molecular Formula": "SeZn", "Melting Point": "1515 \u00b0C"}}