{"cas_no": "13159-52-9", "cn_name": "3-\u6c2f-2-\u7f9f\u57fa\u4e19\u57fa\u7532\u57fa\u4e19\u70ef\u9178\u916f", "en_name": ["3-Chloro-2-hydroxypropyl methacrylate", "2-Propenoic acid, 2-methyl-, 3-chloro-2-hydroxypropyl ester", "Methacrylic acid, 3-chloro-2-hydroxypropyl ester", "1,2-Propanediol, 3-chloro-, 1-methacrylate", "3-Chloro-2-hydroxypropyl methacrylate", "\u03b2-Hydroxy-\u03b3-chloropropyl methacrylate", "2-Hydroxy-3-chloropropyl methacrylate", "Noimer M", "1-Chloro-3-methacryloxy-2-propanol", "Topolene M", "3-Chloro-2-hydroxyprop-1-yl methacrylate", "(3-Chloro-2-hydroxypropyl) 2-methylprop-2-enoate", "2-Methyl-acrylic acid 3-chloro-2-hydroxy-propyl ester", "3-Chloro-2-hydroxypropyl 2-methylprop-2-enoate"], "SMILES": "O(CC(CCl)O)C(C(C)=C)=O", "physical_data": {"Molecular Weight": "178.61", "Molecular Formula": "C7H11ClO3", "Boiling Point": "104-108 \u00b0C @ Press: 5 Torr", "Density": "1.1740 g/cm\u00b3 @ Temp: 20 \u00b0C"}}