{"cas_no": "131690-61-4", "cn_name": "(R)-3-\u6c28\u57fa-3-(4-\u6c2f\u82ef\u57fa)-\u4e19\u9178", "en_name": ["(\u03b2R)-\u03b2-Amino-4-chlorobenzenepropanoic acid", "Benzenepropanoic acid, \u03b2-amino-4-chloro-, (\u03b2R)-", "Benzenepropanoic acid, \u03b2-amino-4-chloro-, (R)-", "(\u03b2R)-\u03b2-Amino-4-chlorobenzenepropanoic acid", "(R)-3-Amino-3-(4-chlorophenyl)propanoic acid", "(3R)-3-Azaniumyl-3-(4-chlorophenyl)propanoate", "(3R)-3-Amino-3-(4-chlorophenyl)propanoic acid"], "SMILES": "C(CC(O)=O)(N)C1=CC=C(Cl)C=C1", "physical_data": {"Molecular Weight": "199.63", "Molecular Formula": "C9H10ClNO2", "Melting Point": "241-244 \u00b0C (sublm)"}}