{"cas_no": "1316755-16-4", "cn_name": "EMA401", "en_name": ["(3S)-2-(2,2-Diphenylacetyl)-1,2,3,4-tetrahydro-6-methoxy-5-(phenylmethoxy)-3-isoquinolinecarboxylic acid", "3-Isoquinolinecarboxylic acid, 2-(2,2-diphenylacetyl)-1,2,3,4-tetrahydro-6-methoxy-5-(phenylmethoxy)-, (3S)-", "(3S)-2-(2,2-Diphenylacetyl)-1,2,3,4-tetrahydro-6-methoxy-5-(phenylmethoxy)-3-isoquinolinecarboxylic acid", "Olodanrigan", "EMA 401", "(S)-2-(Diphenylacetyl)-1,2,3,4-tetrahydro-6-methoxy-5-(phenylmethoxy)-3-isoquinolinecarboxylic acid"], "SMILES": "O(CC1=CC=CC=C1)C2=C3C(CN(C(C(C4=CC=CC=C4)C5=CC=CC=C5)=O)C(C(O)=O)C3)=CC=C2OC", "physical_data": {"Molecular Weight": "507.58", "Molecular Formula": "C32H29NO5", "Melting Point": "82-84 \u00b0C"}}