{"cas_no": "131674-40-3", "cn_name": "2-\u7532\u6c27\u57fa\u5421\u5576-3-\u4e59\u916e", "en_name": ["1-(2-Methoxy-3-pyridinyl)ethanone", "Ethanone, 1-(2-methoxy-3-pyridinyl)-", "1-(2-Methoxy-3-pyridinyl)ethanone", "1-(2-Methoxypyridin-3-yl)ethan-1-one"], "SMILES": "O(C)C1=C(C(C)=O)C=CC=N1", "physical_data": {"Molecular Weight": "151.16", "Molecular Formula": "C8H9NO2", "Boiling Point": "62 \u00b0C @ Press: 9 Torr"}}