{"cas_no": "13161-75-6", "cn_name": "\u5317\u7f8e\u82b9\u7d20", "en_name": ["(+)-Pteryxin", "2-Butenoic acid, 2-methyl-, (9R,10R)-9-(acetyloxy)-9,10-dihydro-8,8-dimethyl-2-oxo-2H,8H-benzo[1,2-b:3,4-b\u2032]dipyran-10-yl ester, (2Z)-", "Pteryxin", "Crotonic acid, 2-methyl-, 10-ester with 9,10-dihydro-9,10-dihydroxy-8,8-dimethyl-2H,8H-benzo[1,2-b:3,4-b\u2032]dipyran-2-one acetate, (Z)-", "2-Butenoic acid, 2-methyl-, 9-(acetyloxy)-9,10-dihydro-8,8-dimethyl-2-oxo-2H,8H-benzo[1,2-b:3,4-b\u2032]dipyran-10-yl ester, [9R-[9\u03b1,10\u03b1(Z)]]-", "2H,8H-Benzo[1,2-b:3,4-b\u2032]dipyran, 2-butenoic acid deriv.", "Pterixin", "Pteryxine", "(+)-Pteryxin", "(+)-(3\u2032R,4\u2032R)-3\u2032-Acetyl-4\u2032-angeloylkhellactone", "cis-3\u2032-Acetyl-4\u2032-angeloylkhellactone"], "SMILES": "O(C(C(=CC)C)=O)C1C=2C3=C(C=CC2OC(C)(C)C1OC(C)=O)C=CC(=O)O3", "physical_data": {"Molecular Weight": "386.40", "Molecular Formula": "C21H22O7", "Melting Point": "81 \u00b0C"}}