{"cas_no": "13162-46-4", "cn_name": "\u53cd,\u53cd-2,4-\u5341\u4e00\u78b3\u70ef\u919b", "en_name": ["2,4-Undecadienal", "2,4-Undecadienal"], "SMILES": "C(C=CC=CC=O)CCCCC", "physical_data": {"Molecular Weight": "166.26", "Molecular Formula": "C11H18O", "Boiling Point": "80-81 \u00b0C @ Press: 1 Torr"}}