{"cas_no": "13162-05-5", "cn_name": "N-\u4e59\u70ef\u57fa\u7532\u9170\u80fa", "en_name": ["N-Vinylformamide", "Formamide, N-ethenyl-", "Formamide, N-vinyl-", "N-Ethenylformamide", "N-Vinylformamide", "SR 497", "Beam Set 770", "NVF-P", "NVF-TM"], "SMILES": "N(C=C)C=O", "physical_data": {"Molecular Weight": "71.08", "Molecular Formula": "C3H5NO", "Boiling Point": "84 \u00b0C @ Press: 9.98 Torr", "Melting Point": "16 \u00b0C", "Density": "1.014 g/cm\u00b3 @ Temp: 25 \u00b0C"}}