{"cas_no": "13161-30-3", "cn_name": "2-\u7f9f\u57fa\u5421\u5576-N-\u6c27\u5316\u7269", "en_name": ["2-Hydroxypyridine N-oxide", "2-Pyridinol, 1-oxide", "2-Hydroxypyridine 1-oxide", "2-Hydroxypyridine N-oxide", "NSC 406972", "Oxypyrion", "2-Pyridinol N-oxide", "1-Oxypyridin-2-ol", "2-Hydroxypyridin-1-ium-1-olate"], "SMILES": "OC=1N(=O)=CC=CC1", "physical_data": {"Molecular Weight": "111.10", "Molecular Formula": "C5H5NO2", "Melting Point": "149-151 \u00b0C"}}