{"cas_no": "13175-44-5", "cn_name": "7-\u8f9b\u70ef-1-\u9187", "en_name": ["7-Octen-1-ol", "7-Octen-1-ol", "7OEA", "1-Octene-8-ol", "7-Octenol"], "SMILES": "C(CCC=C)CCCO", "physical_data": {"Molecular Weight": "128.21", "Molecular Formula": "C8H16O", "Boiling Point": "94-96 \u00b0C @ Press: 17 Torr"}}