{"cas_no": "1317-33-5", "cn_name": "\u4e8c\u786b\u5316\u94bc", "en_name": ["Molybdenum disulfide", "Molybdenum sulfide (MoS2)", "Molybdenum disulfide", "Molybdenum(IV) sulfide", "Molybdenum disulfide (MoS2)", "DAG 325", "Molykote", "Mopol S", "Mopol M", "DAG-V 657", "Motimol", "DAG 206", "Molysulfide", "Liqui-Moly LM 2", "DM 1", "MD 40 (lubricant)", "MD 40", "Moly Powder C", "Molybdenum sulfide", "Moly Powder PA", "Moly Powder B", "Liqui-Moly LM 11", "Moly Powder PS", "Molybdenum bisulfide", "Moly Powder PB", "C.I. Pigment Black 34", "C.I. 77770", "Pigment Black 34", "Sumipowder PA", "Molykote Z", "LM 13", "LM 13 (lubricant)", "DM 1 (sulfide)", "Solvest 390A", "Nichimoly C", "T-Powder", "Molycolloid CF 626", "Molykote Microsize Powder", "Molyka R", "M 5", "M 5 (lubricant)", "PA Powder", "Powder PA", "A Powder", "Moly Fine Powder Y", "NeoZ", "Molyka R-L 3", "Molybdenum sulphide (MoS2)", "UP 10", "UP 50", "Molyform 15", "MVCh 1", "Defric coat HMB 2", "C-Powder", "DMI 7", "OKS 110", "Molykote Z Powder", "Liqui-Moly Z Powder", "MIPO-M 15", "MF 000", "RAC 01", "M 5 Powder", "ZBM 52-999", "McLube MoS2 98", "McLube MoS2 100", "McLube MoS2 99", "ZWEZ-Lube MD 210", "L-GPM 210", "XT 0808-2-2", "XF 184-1", "XF 209", "Liqui-Moly LM 12", "ZBY 801", "HD 7352", "XT 0805-3-1", "LM 12", "OKS 100", "R 11 (fireproofing agent)", "R 11", "BSM 10J"], "SMILES": "[Mo](=S)=S", "physical_data": {"Molecular Weight": "", "Molecular Formula": "MoS2", "Melting Point": "2375 \u00b0C", "Density": "5.06 g/cm\u00b3 @ Temp: 15 \u00b0C"}}