{"cas_no": "1317-60-8", "cn_name": "\u8d64\u94c1\u77ff", "en_name": ["Hematite (Fe2O3)", "Hematite (Fe2O3)", "Hematite", "Iron, specular", "Oligist", "Specularite", "Raphisiderite", "Haematite", "Miox", "\u03b3-Hematite", "Hi-Dense 3", "MR 270E", "Natural red iron oxide", "Natural iron red", "Miox DB", "Miox SF", "Miox AS", "RO 8097FF", "RO 4097FF", "DP 80 (carrier)", "DP 80", "ED 100", "Miox (mineral)", "Portafer AP", "Hi-Dense 4", "Bengara MR 270E", "Miox Micro 40", "Miox SG", "Miox Micro 30", "Feomica", "Miox HL", "Morishita Color MR 320A", "Hematite, natural", "Natural hematite", "MRM 400", "Miox Micro 10"], "SMILES": "[Fe].[O]", "physical_data": {"Molecular Weight": "", "Molecular Formula": "Fe.O", "Melting Point": "1565 \u00b0C", "Density": "5.24 g/cm\u00b3"}}