{"cas_no": "1317-36-8", "cn_name": "\u6c27\u5316\u94c5", "en_name": ["Lead oxide (PbO)", "Lead oxide (PbO)", "C.I. 77577", "C.I. Pigment Yellow 46", "Lead monooxide", "Lead monoxide", "Lead(II) oxide", "Lead oxide yellow", "Lead protoxide", "Litharge Yellow L 28", "Plumbous oxide", "Yellow lead ocher", "Lead oxide", "Lead(2+) oxide", "Litharge S", "Litharge", "Pigment Yellow 46", "G 2", "Rhenogran PbO 80"], "SMILES": "O=[Pb]", "physical_data": {"Molecular Weight": "", "Molecular Formula": "OPb", "Boiling Point": "1470 \u00b0C", "Melting Point": "888 \u00b0C", "Density": "9.53 g/cm\u00b3"}}