{"cas_no": "1317-35-7", "cn_name": "\u56db\u6c27\u5316\u4e09\u9530", "en_name": ["Manganese oxide (Mn3O4)", "Manganese oxide (Mn3O4)", "Manganomanganic oxide", "Trimanganese tetroxide", "Trimanganese tetraoxide", "Manganese oxide", "M 34 (pigment)", "M 34", "Manganese oxide (MnO4/3)", "Manganese tetraoxide", "Brownox"], "SMILES": "", "physical_data": {"Molecular Weight": "", "Molecular Formula": "Mn3O4", "Melting Point": "1564 \u00b0C", "Density": "4.8 g/cm\u00b3"}}