{"cas_no": "13171-25-0", "cn_name": "\u76d0\u9178\u66f2\u7f8e\u4ed6\u55ea", "en_name": ["Trimetazidine dihydrochloride", "Piperazine, 1-[(2,3,4-trimethoxyphenyl)methyl]-, hydrochloride (1:2)", "Piperazine, 1-(2,3,4-trimethoxybenzyl)-, dihydrochloride", "Piperazine, 1-[(2,3,4-trimethoxyphenyl)methyl]-, dihydrochloride", "Trimetazidine dihydrochloride", "Vastarel", "S 4004", "1-(2,3,4-Trimethoxybenzyl)piperazine dihydrochloride", "Vastarel F", "Yoshimilon", "Kyurinett", "Trivedon"], "SMILES": "C(C1=C(OC)C(OC)=C(OC)C=C1)N2CCNCC2.Cl", "physical_data": {"Molecular Weight": "", "Molecular Formula": "C14H22N2O3.2ClH", "Melting Point": "225-228 \u00b0C"}}