{"cas_no": "13171-64-7", "cn_name": "(-)-D-\u9152\u77f3\u9178\u4e8c\u7532\u916f", "en_name": ["Dimethyl (2S,3S)-2,3-dihydroxybutanedioate", "Butanedioic acid, 2,3-dihydroxy-, dimethyl ester, (2S,3S)-", "Tartaric acid, dimethyl ester, D-(-)-", "Butanedioic acid, 2,3-dihydroxy-, dimethyl ester, [S-(R*,R*)]-", "Dimethyl (2S,3S)-2,3-dihydroxybutanedioate", "Dimethyl (-)-D-tartrate", "Dimethyl D-tartrate", "D-(-)-Tartaric acid dimethyl ester", "Dimethyl (-)-tartrate", "D-Tartaric acid dimethyl ester", "(S,S)-Dimethyl tartrate", "(-)-Dimethyl D-tartarate", "(-)-Dimethyl D-tartrate"], "SMILES": "C(C(C(OC)=O)O)(C(OC)=O)O", "physical_data": {"Molecular Weight": "178.14", "Molecular Formula": "C6H10O6", "Boiling Point": "153 \u00b0C @ Press: 12 Torr", "Melting Point": "112-113 \u00b0C"}}