{"cas_no": "13171-21-6", "cn_name": "\u78f7\u80fa", "en_name": ["Phosphamidon", "Phosphoric acid, 2-chloro-3-(diethylamino)-1-methyl-3-oxo-1-propen-1-yl dimethyl ester", "Phosphoric acid, dimethyl ester, ester with 2-chloro-N,N-diethyl-3-hydroxycrotonamide", "Phosphoric acid, 2-chloro-3-(diethylamino)-1-methyl-3-oxo-1-propenyl dimethyl ester", "Dimecron", "Phosphamidon", "Dimecron 50", "Dimecron 100", "O,O-Dimethyl-O-1-chloro-1-N-diethyl-carbamoyl-1-propen-2-yl phosphate", "Dimecron 20", "Phosphamidone", "Sundaram 1975", "Merkon", "Kinadan", "Kinadon plus", "MeSH ID: D010707"], "SMILES": "P(OC(=C(C(N(CC)CC)=O)Cl)C)(OC)(OC)=O", "physical_data": {"Molecular Weight": "299.69", "Molecular Formula": "C10H19ClNO5P", "Boiling Point": "162 \u00b0C @ Press: 1.5 Torr", "Melting Point": "-45 \u00b0C", "Density": "1.2132 g/cm\u00b3 @ Temp: 25 \u00b0C"}}