{"cas_no": "13171-00-1", "cn_name": "\u8428\u5229\u9e9d\u9999", "en_name": ["Celestolide", "Ethanone, 1-[6-(1,1-dimethylethyl)-2,3-dihydro-1,1-dimethyl-1H-inden-4-yl]-", "Ketone, 6-tert-butyl-1,1-dimethyl-4-indanyl methyl", "1-[6-(1,1-Dimethylethyl)-2,3-dihydro-1,1-dimethyl-1H-inden-4-yl]ethanone", "4-Acetyl-1,1-dimethyl-6-tert-butylindan", "4-Acetyl-6-tert-butyl-1,1-dimethylindan", "Celestolide", "4-Acetyl-6-tert-butyl-1,1-dimethylindane", "Esperone", "Crysolide", "ADBI", "4-Acetyl-1,1-dimethyl-6-tert-butylindane", "6-tert-Butyl-1,1-dimethyl-4-indanyl methyl ketone", "1-[6-(tert-Butyl)-1,1-dimethyl-2,3-dihydro-1H-inden-4-yl]ethan-1-one", "1-(6-(tert-Butyl)-1,1-dimethyl-2,3-dihydro-1H-inden-4-yl)ethanone", "1-(6-tert-Butyl-1,1-dimethyl-indan-4-yl)-ethanone"], "SMILES": "C(C)(=O)C1=C2C(C(C)(C)CC2)=CC(C(C)(C)C)=C1", "physical_data": {"Molecular Weight": "244.37", "Molecular Formula": "C17H24O", "Melting Point": "77.2-77.9 \u00b0C"}}