{"cas_no": "13170-23-5", "cn_name": "\u4e8c\u53d4\u4e01\u6c27\u57fa\u4e8c\u4e59\u9170\u6c27\u57fa\u7845\u70f7", "en_name": ["Acetic acid, 1,1\u2032-dianhydride with silicic acid (H4SiO4) bis(1,1-dimethylethyl) ester", "Acetic acid, 1,1\u2032-dianhydride with silicic acid (H4SiO4) bis(1,1-dimethylethyl) ester", "Acetic acid, dianhydride with silicic acid (H4SiO4) di-tert-butyl ester", "Acetic acid, dianhydride with silicic acid (H4SiO4) bis(1,1-dimethylethyl) ester", "Acetic acid, dianhydride with (tert-BuO)2(HO)2Si", "Silicic acid (H4SiO4), dianhydride with acetic acid di-tert-butyl ester", "Di-tert-butoxydiacetoxysilane", "Diacetoxydi-tert-butoxysilane", "Diacetoxydi-t-butoxysilane", "Haftvermittler DBS", "[Acetyloxy-bis[(2-methylpropan-2-yl)oxy]silyl] acetate", "Dynasylan BDAC", "PC 7910"], "SMILES": "[Si](OC(C)(C)C)(OC(C)(C)C)(OC(C)=O)OC(C)=O", "physical_data": {"Molecular Weight": "292.40", "Molecular Formula": "C12H24O6Si", "Boiling Point": "102 \u00b0C @ Press: 5 Torr", "Melting Point": "-4 \u00b0C", "Density": "1.019 g/cm\u00b3"}}