{"cas_no": "13179-98-1", "cn_name": "1,6-\u4e8c\u7532\u6c27\u57fa\u5df1\u70f7", "en_name": ["1,6-Dimethoxyhexane", "Hexane, 1,6-dimethoxy-", "1,6-Dimethoxyhexane", "1,6-Hexanediol 1,6-dimethyl ether"], "SMILES": "C(CCCOC)CCOC", "physical_data": {"Molecular Weight": "146.23", "Molecular Formula": "C8H18O2", "Boiling Point": "74-74.5 \u00b0C @ Press: 30 mmHg"}}