{"cas_no": "1317-39-1", "cn_name": "\u6c27\u5316\u4e9a\u94dc", "en_name": ["Copper oxide (Cu2O)", "Copper oxide (Cu2O)", "C.I. 77402", "Cuprous oxide", "Perenox", "Red copper oxide", "Copper Sandoz", "Cupramar", "Yellow cuprocide", "Fungimar", "Copper(I) oxide", "Nordox", "Dicopper monoxide", "Dicopper oxide", "Copper suboxide", "Copper(1+) oxide", "Copper protoxide", "Copper(I) oxide (Cu2O)", "Copper oxide", "Dicopper monooxide", "Copperoxy", "Cobre Sandoz", "R 30 (oxide)", "R 30", "NX 3", "Chem Copp 50", "Lolo Tint 97", "Purple Copp", "Red Copp 97N Premium", "GG", "GG (pigment)", "NC 303", "NC 102", "NSC 83538", "Ag Copp 75", "NC 803", "NC 301", "NC 301 (oxide)", "LoLo Tint LM", "Caocobre Sandoz", "Copper red Cu2O", "FCO-M 6", "Cupron A", "FRC 05B", "Copper oxide (Cu2O)", "FRC-AF", "FRC-N 10"], "SMILES": "O([Cu])[Cu]", "physical_data": {"Molecular Weight": "", "Molecular Formula": "Cu2O", "Melting Point": "1235 \u00b0C", "Density": "6.0 g/cm\u00b3"}}