{"cas_no": "13171-18-1", "cn_name": "1,1,1,3,3,3-\u516d\u6c1f\u5f02\u4e19\u57fa\u7532\u57fa\u919a", "en_name": ["Hexafluoroisopropyl methyl ether", "Propane, 1,1,1,3,3,3-hexafluoro-2-methoxy-", "Ether, methyl 2,2,2-trifluoro-1-(trifluoromethyl)ethyl", "1,1,1,3,3,3-Hexafluoro-2-methoxypropane", "Hexafluoroisopropyl methyl ether", "Bis(trifluoromethyl)methyl methyl ether", "1,1,1,3,3,3-Hexafluoroisopropyl methyl ether", "Isoindoklon", "356mmzE\u03b2\u03b3", "Iso-flurothyl", "1-Methoxy-1-trifluoromethyl-2,2,2-trifluoroethane", "HFE 356mmz", "1-(Trifluoromethyl)-2,2,2-trifluoroethyl methyl ether", "Methyl 1-(trifluoromethyl)-2,2,2-trifluoroethyl ether"], "SMILES": "C(C(F)(F)F)(C(F)(F)F)OC", "physical_data": {"Molecular Weight": "182.06", "Molecular Formula": "C4H4F6O", "Boiling Point": "50.0-50.5 \u00b0C"}}