{"cas_no": "131747-42-7", "cn_name": "6-(\u4e09\u6c1f\u7532\u57fa)\u5421\u5576-2-\u7532\u9178", "en_name": ["6-Trifluoromethyl-2-pyridinecarboxylic acid", "2-Pyridinecarboxylic acid, 6-(trifluoromethyl)-", "6-(Trifluoromethyl)-2-pyridinecarboxylic acid", "6-Trifluoromethyl-2-pyridinecarboxylic acid", "6-(Trifluoromethyl)picolinic acid", "2-Trifluoromethyl-6-pyridinecarboxylic acid"], "SMILES": "C(F)(F)(F)C=1N=C(C(O)=O)C=CC1", "physical_data": {"Molecular Weight": "191.11", "Molecular Formula": "C7H4F3NO2", "Melting Point": "156-157 \u00b0C"}}