{"cas_no": "131747-70-1", "cn_name": "2-\u6c30\u57fa\u5421\u5576-4-\u919b", "en_name": ["4-Formyl-2-pyridinecarbonitrile", "2-Pyridinecarbonitrile, 4-formyl-", "4-Formyl-2-pyridinecarbonitrile", "2-Cyanopyridine-4-carboxaldehyde", "4-Formylpyridine-2-carbonitrile"], "SMILES": "C(=O)C=1C=C(C#N)N=CC1", "physical_data": {"Molecular Weight": "132.12", "Molecular Formula": "C7H4N2O", "Melting Point": "67-69 \u00b0C"}}