{"cas_no": "1317-37-9", "cn_name": "\u786b\u5316\u4e9a\u94c1", "en_name": ["Iron sulfide (FeS)", "Iron sulfide (FeS)", "C.I. 77540", "Black Iron Sulfide", "Ferrous sulfide", "Iron monosulfide", "Iron monosulfide (FeS)", "Ferrous sulfide (FeS)", "Ferrous monosulfide", "Iron(II) sulfide", "FES", "Synthetic troilite", "Iron sulfide (FeS)"], "SMILES": "[Fe]=S", "physical_data": {"Molecular Weight": "", "Molecular Formula": "FeS", "Melting Point": "1194 \u00b0C", "Density": "4.84 g/cm\u00b3"}}