{"cas_no": "13170-43-9", "cn_name": "(\u4e09\u7532\u57fa\u7845\u57fa)\u7532\u57fa\u6c2f\u5316\u9541", "en_name": ["Magnesium, chloro[(trimethylsilyl)methyl]-", "Magnesium, chloro[(trimethylsilyl)methyl]-", "[(Trimethylsilyl)methyl]magnesium chloride", "Chloro(trimethylsilylmethyl)magnesium"], "SMILES": "C([Si](C)(C)C)[Mg]Cl", "physical_data": {"Molecular Weight": "", "Molecular Formula": "C4H11ClMgSi", "Melting Point": "105.8-106.4 \u00b0C", "Density": "0.777 g/cm\u00b3"}}