{"cas_no": "1317-42-6", "cn_name": "\u4e00\u786b\u5316\u94b4", "en_name": ["Cobalt sulfide (CoS)", "Cobalt sulfide (CoS)", "Cobaltous sulfide", "Cobalt monosulfide", "Cobalt sulfide", "Cobalt(2+) sulfide", "Cobalt(II) sulfide", "Cobalt sulfide (Co0.5S0.5)", "Cobalt sulfide (Co4S)"], "SMILES": "[Co]=S", "physical_data": {"Molecular Weight": "", "Molecular Formula": "CoS", "Melting Point": "1182 \u00b0C", "Density": "5.45 g/cm\u00b3"}}