{"cas_no": "13177-41-8", "cn_name": "N,N-\u4e8c\u7532\u57fa-N-(3-\u78fa\u4e19\u57fa)-1-\u5341\u516b\u70f7\u94f5\u5185\u76d0", "en_name": ["N-Octadecyl-N,N-dimethyl-3-ammonio-1-propanesulfonate", "1-Octadecanaminium, N,N-dimethyl-N-(3-sulfopropyl)-, inner salt", "Ammonium, dimethyloctadecyl(3-sulfopropyl)-, hydroxide, inner salt", "1-Octadecanaminium, N,N-dimethyl-N-(3-sulfopropyl)-, hydroxide, inner salt", "Dimethyloctadecyl(3-sulfopropyl)ammonium hydroxide, inner salt", "N-(Stearylamino)sulfobetaine", "3-(N-Octadecyl-N,N-dimethylammonio)propane-1-sulfonate", "3-(N,N-Dimethyl-N-octadecylammonio)propane-1-sulfonate", "3-(Octadecyldimethylammonio)-1-propanesulfonate", "N-Stearyl-N,N-dimethyl-N-(3-sulfopropyl)ammonium betaine", "N-Octadecyl-N,N-dimethyl-3-ammonio-1-propanesulfonate", "SB 3-18", "SB18", "Sulfobetaine 18", "3-(N,N-Dimethylstearylammonio)propanesulfonate", "3-(Dimethyloctadecylammonio)propanesulfonate", "3-(N,N-Dimethyloctadecylammonio)propanesulfonate", "Octadecyl 3-hydroxypropyl sulfobetaine", "Sulfobetaine 3-18", "Stearyldimethylsulfopropylbetaine", "(3-(N,N-Dimethyloctadecylammonio)propanesulfonate)", "3-(Dimethyl(octadecyl)ammonio)propane-1-sulfonate", "ASC 18"], "SMILES": "C([N+](CCCS(=O)(=O)[O-])(C)C)CCCCCCCCCCCCCCCCC", "physical_data": {"Molecular Weight": "", "Molecular Formula": "C23H49NO3S", "Melting Point": "280-285 \u00b0C (decomp)"}}