{"cas_no": "13183-70-5", "cn_name": "1,4-\u4e8c(\u4e09\u7532\u57fa\u7845\u70f7\u57fa)\u82ef", "en_name": ["1,4-Bis(trimethylsilyl)benzene", "Benzene, 1,4-bis(trimethylsilyl)-", "Silane, p-phenylenebis[trimethyl-", "Silane, 1,4-phenylenebis[trimethyl-", "1,4-Bis(trimethylsilyl)benzene", "p-Bis(trimethylsilyl)benzene", "1,4-Phenylenebis(trimethylsilane)"], "SMILES": "[Si](C)(C)(C)C1=CC=C([Si](C)(C)C)C=C1", "physical_data": {"Molecular Weight": "222.47", "Molecular Formula": "C12H22Si2", "Boiling Point": "194-195 \u00b0C", "Melting Point": "92-94 \u00b0C"}}