{"cas_no": "13181-17-4", "cn_name": "\u6eb4\u915a\u809f", "en_name": ["Bromofenoxim", "Benzaldehyde, 3,5-dibromo-4-hydroxy-, O-(2,4-dinitrophenyl)oxime", "C 9122", "3,5-Dibromo-4-hydroxybenzaldoxime 2,4-dinitrophenyl ether", "3,5-Dibromo-4-hydroxybenzaldehyde 2,4-dinitrophenyl oxime", "Faneron", "Bromphenoxim", "Bromofenoxim", "Bromfenoxime", "3,5-Dibromo-4-hydroxybenzaldehyde O-(2,4-dinitrophenyl)oxime", "Bromfenoxim", "Bromophenoxim", "Bromophenoxime"], "SMILES": "O(N=CC1=CC(Br)=C(O)C(Br)=C1)C2=C(N(=O)=O)C=C(N(=O)=O)C=C2", "physical_data": {"Molecular Weight": "461.02", "Molecular Formula": "C13H7Br2N3O6", "Melting Point": "196.5 \u00b0C"}}