{"cas_no": "131860-97-4", "cn_name": "(E)-2-[2-(6-\u6c2f\u5627\u5576-4-\u57fa\u6c27)\u82ef\u57fa]-3-\u7532\u6c27\u57fa\u4e19\u70ef\u9178\u7532\u916f", "en_name": ["Methyl (\u03b1E)-2-[(6-chloro-4-pyrimidinyl)oxy]-\u03b1-(methoxymethylene)benzeneacetate", "Benzeneacetic acid, 2-[(6-chloro-4-pyrimidinyl)oxy]-\u03b1-(methoxymethylene)-, methyl ester, (\u03b1E)-", "Benzeneacetic acid, 2-[(6-chloro-4-pyrimidinyl)oxy]-\u03b1-(methoxymethylene)-, methyl ester, (E)-", "Methyl (\u03b1E)-2-[(6-chloro-4-pyrimidinyl)oxy]-\u03b1-(methoxymethylene)benzeneacetate", "Methyl (E)-2-[2-(6-chloropyrimidin-4-yloxy)phenyl]-3-methoxypropenoate", "Methyl (E)-2-[2-(6-chloropyrimidin-4-yloxy)phenyl]-3-methoxyacrylate", "Methyl (E)-2-[2-[6-chloropyrimidin-4-yloxy]phenyl]-3-methoxyacrylate"], "SMILES": "C(C(OC)=O)(=COC)C1=C(OC=2C=C(Cl)N=CN2)C=CC=C1", "physical_data": {"Molecular Weight": "320.73", "Molecular Formula": "C15H13ClN2O4", "Melting Point": "103-104 \u00b0C"}}