{"cas_no": "13184-86-6", "cn_name": "\u9999\u8349\u9187\u4e59\u919a", "en_name": ["Vanillyl ethyl ether", "Phenol, 4-(ethoxymethyl)-2-methoxy-", "p-Cresol, \u03b1-ethoxy-2-methoxy-", "4-(Ethoxymethyl)-2-methoxyphenol", "4-Hydroxy-3-methoxybenzyl ethyl ether", "Vanillyl ethyl ether", "Ethyl vanillyl ether", "Ethyl 4-hydroxy-3-methoxybenzyl ether", "Vanillyl alcohol ethyl ether"], "SMILES": "C(OCC)C1=CC(OC)=C(O)C=C1", "physical_data": {"Molecular Weight": "182.22", "Molecular Formula": "C10H14O3", "Boiling Point": "124-125 \u00b0C @ Press: 4 Torr"}}