{"cas_no": "13185-09-6", "cn_name": "1-\u82c4\u57fa-3-\u7f9f\u57fa-1H-\u5432\u5511\u94a0\u76d0", "en_name": ["3H-Indazol-3-one, 1,2-dihydro-1-(phenylmethyl)-, sodium salt (1:1)", "3H-Indazol-3-one, 1,2-dihydro-1-(phenylmethyl)-, sodium salt (1:1)", "1H-Indazol-3-ol, 1-benzyl-, sodium salt", "3H-Indazol-3-one, 1,2-dihydro-1-(phenylmethyl)-, sodium salt", "1H-Indazole, 1-benzyl-3-hydroxy-, sodium salt", "1-Benzyl-3-hydroxy-1H-indazole sodium salt", "1-Benzyl-3-hydroxyindazole sodium salt"], "SMILES": "C(N1C=2C(C(=O)N1)=CC=CC2)C3=CC=CC=C3.[Na]", "physical_data": {"Molecular Weight": "", "Molecular Formula": "C14H12N2O.Na", "Melting Point": "167-168 \u00b0C"}}