{"cas_no": "13182-89-3", "cn_name": "\u82ef\u9170\u7532\u785d\u5511", "en_name": ["Metronidazole benzoate", "1H-Imidazole-1-ethanol, 2-methyl-5-nitro-, 1-benzoate", "Imidazole-1-ethanol, 2-methyl-5-nitro-, benzoate (ester)", "1H-Imidazole-1-ethanol, 2-methyl-5-nitro-, benzoate (ester)", "Imidazole-1-ethanol, 2-methyl-5-nitro-, benzoate", "Metronidazole benzoate", "Benzoylmetronidazole", "Klion suspension", "2-(2-Methyl-5-nitro-1H-imidazol-1-yl)ethyl benzoate", "2-(2-Methyl-5-nitro-1H-imidazol-1-yl)ethylbenzoate"], "SMILES": "C(COC(=O)C1=CC=CC=C1)N2C(N(=O)=O)=CN=C2C", "physical_data": {"Molecular Weight": "275.26", "Molecular Formula": "C13H13N3O4", "Melting Point": "100 \u00b0C"}}