{"cas_no": "1318-00-9", "cn_name": "\u86ed\u77f3", "en_name": ["Vermiculite (Mg0.33[Mg2-3(Al0-1Fe0-1)0-1](Si2.33-3.33Al0.67-1.67)(OH)2O10.4H2O)", "Vermiculite (Mg0.33[Mg2-3(Al0-1Fe0-1)0-1](Si2.33-3.33Al0.67-1.67)(OH)2O10.4H2O)", "Vermiculite", "Zonolite", "Verxite", "Vermex F", "Siplast", "M 729", "Microlite 903", "Grace 3", "Microlite HTS-XE", "FR-MH", "JISA 5009", "Palabora", "Microlite 963 Plus", "Microlite 963+", "Microlite 963++", "Microlite 963 Plus Plus", "Hilcon S 80", "Hilcon S", "Hilcon S 1-600", "Hilcon S 3", "Hilcon S 2", "Hilcon S 0", "Hilcon S 1", "Shawa Super Fain", "G 1", "G 1 (mineral)", "Verxspand", "AV-I", "AV-I (mineral)", "Thermiculite 815", "Vermiculite Fine", "OPV 1", "FPSV", "Microlite 963", "PCEV", "HTS", "Grace FPSV", "OPV 1 (mineral)", "Vermex SF", "Bamikuraito G 20", "Dupre DM651", "Dupre DM338S", "Microlite 963HS", "Microlite HTS", "Agrolite", "DM 217"], "SMILES": "[Al].[Fe].[Mg].[OH-].[Si]([O-])([O-])=O.[O].O", "physical_data": {"Molecular Weight": "", "Molecular Formula": "Al.Fe.4H2O.HO.Mg.O3Si.O", "Melting Point": "1350 \u00b0C"}}