{"cas_no": "13183-79-4", "cn_name": "1-\u7532\u57fa-5-\u5def\u57fa-1H-\u56db\u6c2e\u5511", "en_name": ["5-Mercapto-1-methyltetrazole", "5H-Tetrazole-5-thione, 1,2-dihydro-1-methyl-", "1H-Tetrazole-5-thiol, 1-methyl-", "2-Tetrazoline-5-thione, 1-methyl-", "1,2,3,4-Tetrazole-5-thiol, 1-methyl-", "1,2-Dihydro-1-methyl-5H-tetrazole-5-thione", "1-Methyl-5-mercapto-1,2,3,4-tetrazole", "1-Methyltetrazole-5-thiol", "5-Mercapto-1-methyltetrazole", "1-Methyl-5-mercaptotetrazole", "1-Methyl-5-tetrazolethione", "1-Methyl-1H-tetrazole-5-thiol", "1-Methyl-1,2,3,4-tetrazole-5-thiol", "5-Mercapto-1-methyl-1,2,3,4-tetrazole", "5-Mercapto-1-methyl-1H-tetrazole", "1-Methyl-5-tetrazolinethione", "1-Methyl-1,2,3,4-tetrazoline-5-thione", "1-Methyl-5-mercapto-1H-tetrazole", "T 1982F", "1-Methyl-1H-tetrazol-5-thiol", "1-Methyl-5-thiotetrazole", "N-Methyl-5-tetrazolethiol", "NSC 520787", "[1-Methyl-1H-1H-tetrazol-5-yl]thiol", "1-Methyl-1H-1,2,3,4-tetrazole-5-thiol", "1-Methyl-2,5-dihydro-1H-1,2,3,4-tetrazole-5-thione", "1-Methyl-2H-tetrazole-5-thione"], "SMILES": "S=C1N(C)N=NN1", "physical_data": {"Molecular Weight": "116.14", "Molecular Formula": "C2H4N4S", "Melting Point": "126 \u00b0C"}}