{"cas_no": "131860-33-8", "cn_name": "\u5627\u83cc\u916f", "en_name": ["Azoxystrobin", "Benzeneacetic acid, 2-[[6-(2-cyanophenoxy)-4-pyrimidinyl]oxy]-\u03b1-(methoxymethylene)-, methyl ester, (\u03b1E)-", "Benzeneacetic acid, 2-[[6-(2-cyanophenoxy)-4-pyrimidinyl]oxy]-\u03b1-(methoxymethylene)-, methyl ester, (E)-", "ICI-A 5504", "Amistar", "Azoxystrobin", "Methyl (E)-2-[2-[6-(2-cyanophenoxy)pyrimidin-4-yloxy]phenyl]-3-methoxypropenoate", "Heritage", "Quadris", "Bankit", "Abound", "Priori", "Protege FL", "Protege", "Dynasty", "Ortiva", "Heritage 50DF", "A 14115", "Cruiser Extreme", "Amistar 250SC", "Azoxystrobine", "Azaka", "Onestar", "Methyl (E)-2-[2-[[6-(2-cyanophenoxy)pyrimidin-4-yl]oxy]phenyl]-3-methoxyacrylate", "Abound 2.08F", "Satori", "Mazolin", "Mirador", "Mirador 250SC"], "SMILES": "C(C(OC)=O)(=COC)C1=C(OC=2C=C(OC3=C(C#N)C=CC=C3)N=CN2)C=CC=C1", "physical_data": {"Molecular Weight": "403.39", "Molecular Formula": "C22H17N3O5", "Melting Point": "116 \u00b0C"}}