{"cas_no": "13189-00-9", "cn_name": "2-\u7532\u57fa\u4e19\u70ef\u9178\u950c\u76d0", "en_name": ["Zinc methacrylate", "2-Propenoic acid, 2-methyl-, zinc salt (2:1)", "Methacrylic acid, zinc salt", "2-Propenoic acid, 2-methyl-, zinc salt", "Zinc methacrylate", "Zinc dimethacrylate", "Actor ZMA", "Saret 634", "R 20S", "SR 708", "Hi-Cross ZT", "R 205", "R 205 (acrylate)", "SR 634", "Sartomer 634", "San Ester SK 30", "SK 30", "Sartomer SR 634", "Saret SR 634", "CXZN 050", "Sartomer SR 708", "PRO 5642", "PRO 11234", "Dimalink 634", "Dymalink 634", "Dymalink 708", "ZDMA", "Dymalink 709", "M-CP", "Dyamlink 708"], "SMILES": "C(C(O)=O)(C)=C.[Zn]", "physical_data": {"Molecular Weight": "", "Molecular Formula": "C4H6O2.<sup>1</sup>/2Zn", "Melting Point": "250 \u00b0C (decomp)", "Density": "1.480 g/cm\u00b3"}}