{"cas_no": "131807-57-3", "cn_name": "\u6076\u5511\u83cc\u916e", "en_name": ["Famoxadone", "2,4-Oxazolidinedione, 5-methyl-5-(4-phenoxyphenyl)-3-(phenylamino)-", "5-Methyl-5-(4-phenoxyphenyl)-3-(phenylamino)-2,4-oxazolidinedione", "DPX-JE 874", "Famoxadone", "Famoxate", "(\u00b1)-Famoxadone"], "SMILES": "CC1(C(=O)N(NC2=CC=CC=C2)C(=O)O1)C3=CC=C(OC4=CC=CC=C4)C=C3", "physical_data": {"Molecular Weight": "374.39", "Molecular Formula": "C22H18N2O4", "Melting Point": "141 \u00b0C"}}