{"cas_no": "131833-93-7", "cn_name": "(S,S)-(-)-2,2'-\u5f02\u4e19\u53c9\u53cc(4-\u7279\u4e01\u57fa-2-\u5641\u5511\u5549)", "en_name": ["2,2-Bis[2-[4(S)-tert-butyl-1,3-oxazolinyl]]propane", "Oxazole, 2,2\u2032-(1-methylethylidene)bis[4-(1,1-dimethylethyl)-4,5-dihydro-, (4S,4\u2032S)-", "Oxazole, 2,2\u2032-(1-methylethylidene)bis[4-(1,1-dimethylethyl)-4,5-dihydro-, [S-(R*,R*)]-", "(4S,4\u2032S)-2,2\u2032-(1-Methylethylidene)bis[4-(1,1-dimethylethyl)-4,5-dihydrooxazole]", "2,2-Bis[2-[4(S)-tert-butyl-1,3-oxazolinyl]]propane", "2,2-Bis((S)-4-tert-butyl-2-oxazolin-2-yl)propane", "Isopropylidenebis[(4S)-4-tert-butyl-2-oxazoline]", "(S,S)-2,2\u2032-Isopropylidenebis[4-tert-butyl-2-oxazoline]", "(S)-2,2\u2032-Isopropylidenebis(4-tert-butyl-2-oxazoline)", "2,2-Bis((4S)-4-tert-butyl-4,5-dihydrooxazol-2-yl)propane", "(S,S)-t-BuBox"], "SMILES": "C(C)(C)(C1=NC(C(C)(C)C)CO1)C2=NC(C(C)(C)C)CO2", "physical_data": {"Molecular Weight": "294.43", "Molecular Formula": "C17H30N2O2", "Melting Point": "82 \u00b0C"}}