{"cas_no": "13192-04-6", "cn_name": "alpha-\u916e\u620a\u4e8c\u9178\u4e8c\u7532\u916f", "en_name": ["Dimethyl 2-oxoglutarate", "Pentanedioic acid, 2-oxo-, 1,5-dimethyl ester", "Glutaric acid, 2-oxo-, dimethyl ester", "Pentanedioic acid, 2-oxo-, dimethyl ester", "Dimethyl 2-oxoglutarate", "Dimethyl \u03b1-ketoglutarate", "Dimethyl \u03b1-oxoglutarate", "2-Oxoglutaric acid dimethyl ester", "Dimethyl 2-oxopentanedioate", "\u03b1-Ketoglutaric acid dimethyl ester", "1,5-Dimethyl 2-oxopentanedioate"], "SMILES": "C(CCC(OC)=O)(C(OC)=O)=O", "physical_data": {"Molecular Weight": "174.15", "Molecular Formula": "C7H10O5", "Boiling Point": "90-95 \u00b0C @ Press: 0.4 Torr"}}