{"cas_no": "13195-76-1", "cn_name": "\u787c\u9178\u4e09\u5f02\u4e01\u916f", "en_name": ["Boric acid (H3BO3), tris(2-methylpropyl) ester", "Boric acid (H3BO3), tris(2-methylpropyl) ester", "Boric acid (H3BO3), triisobutyl ester", "Isobutyl borate ((C4H9O)3B)", "Isobutyl borate", "Triisobutyl borate", "Triisobutyl orthoborate", "NSC 65329"], "SMILES": "B(OCC(C)C)(OCC(C)C)OCC(C)C", "physical_data": {"Molecular Weight": "230.15", "Molecular Formula": "C12H27BO3", "Boiling Point": "211.5-213.0 \u00b0C", "Density": "0.83909 g/cm\u00b3 @ Temp: 25 \u00b0C"}}