{"cas_no": "13190-97-1", "cn_name": "\u8304\u5c3c\u9187", "en_name": ["Solanesol", "2,6,10,14,18,22,26,30,34-Hexatriacontanonaen-1-ol, 3,7,11,15,19,23,27,31,35-nonamethyl-, (2E,6E,10E,14E,18E,22E,26E,30E)-", "2,6,10,14,18,22,26,30,34-Hexatriacontanonaen-1-ol, 3,7,11,15,19,23,27,31,35-nonamethyl-, (all-E)-", "(2E,6E,10E,14E,18E,22E,26E,30E)-3,7,11,15,19,23,27,31,35-Nonamethyl-2,6,10,14,18,22,26,30,34-hexatriacontanonaen-1-ol", "Solanesol", "Nonaisoprenol", "Farnesylfarnesylfarnesol"], "SMILES": "C(=CCCC(=CCCC(=CCCC(=CCCC(=CCO)C)C)C)C)(CCC=C(CCC=C(CCC=C(CCC=C(C)C)C)C)C)C", "physical_data": {"Molecular Weight": "631.07", "Molecular Formula": "C45H74O", "Melting Point": "33-35 \u00b0C"}}