{"cas_no": "1319-77-3", "cn_name": "\u7532\u915a", "en_name": ["Cresol", "Phenol, methyl-", "Cresol", "Methylphenol", "ar-Toluenol", "Cresylic acid", "Tricresol", "Tekresol", "Bacillol", "Hydroxytoluene", "Cresylol", "Cresols"], "SMILES": "", "physical_data": {"Molecular Weight": "", "Molecular Formula": "C7H8O", "Boiling Point": "191-203 \u00b0C", "Density": "1.030-1.038 g/cm\u00b3 @ Temp: 25 \u00b0C"}}