{"cas_no": "13194-68-8", "cn_name": "4-\u7898-2-\u7532\u57fa\u82ef\u80fa", "en_name": ["4-Iodo-2-methylaniline", "Benzenamine, 4-iodo-2-methyl-", "o-Toluidine, 4-iodo-", "4-Iodo-2-methylbenzenamine", "4-Iodo-o-toluidine", "4-Iodo-2-methylaniline", "2-Amino-5-iodotoluene", "NSC 60731", "2-Methyl-4-iodoaniline", "4-Iodo-2-Methylbenzenamine"], "SMILES": "CC1=C(N)C=CC(I)=C1", "physical_data": {"Molecular Weight": "233.05", "Molecular Formula": "C7H8IN", "Melting Point": "88 \u00b0C"}}