{"cas_no": "131986-05-5", "cn_name": "4-\u4e59\u9170\u57fa\u8418\u7532\u9178", "en_name": ["4-Acetyl-1-naphthalenecarboxylic acid", "1-Naphthalenecarboxylic acid, 4-acetyl-", "4-Acetyl-1-naphthalenecarboxylic acid"], "SMILES": "C(C)(=O)C=1C2=C(C(C(O)=O)=CC1)C=CC=C2", "physical_data": {"Molecular Weight": "214.22", "Molecular Formula": "C13H10O3", "Melting Point": "184 \u00b0C"}}