{"cas_no": "13195-64-7", "cn_name": "\u4e19\u4e8c\u9178\u4e8c\u5f02\u4e19\u916f", "en_name": ["Diisopropyl malonate", "Propanedioic acid, 1,3-bis(1-methylethyl) ester", "Malonic acid, diisopropyl ester", "Propanedioic acid, bis(1-methylethyl) ester", "Diisopropyl malonate", "NSC 406716", "Diisopropyl propanedioic acid", "1,3-Bis(propan-2-yl) propanedioate"], "SMILES": "C(CC(OC(C)C)=O)(OC(C)C)=O", "physical_data": {"Molecular Weight": "188.22", "Molecular Formula": "C9H16O4", "Melting Point": "114 \u00b0C"}}