{"cas_no": "13191-36-1", "cn_name": "2,5-\u4e8c\u6eb4-3-\u7532\u57fa\u567b\u5429", "en_name": ["2,5-Dibromo-3-methylthiophene", "Thiophene, 2,5-dibromo-3-methyl-", "2,5-Dibromo-3-methylthiophene", "3-Methyl-2,5-dibromothiophene"], "SMILES": "CC1=C(Br)SC(Br)=C1", "physical_data": {"Molecular Weight": "255.96", "Molecular Formula": "C5H4Br2S", "Boiling Point": "55 \u00b0C @ Press: 2 Torr", "Density": "1.972 g/cm\u00b3 @ Temp: 20 \u00b0C"}}