{"cas_no": "13195-66-9", "cn_name": "3-\u7fb0\u57fa\u7678\u9178\u4e59\u916f", "en_name": ["Decanoic acid, 3-oxo-, ethyl ester", "Decanoic acid, 3-oxo-, ethyl ester", "Capric acid, \u03b2-oxo-, ethyl ester", "Ethyl octanoylacetate", "3-Oxodecanoic acid ethyl ester", "Ethyl 3-oxodecanoate"], "SMILES": "C(CC(OCC)=O)(CCCCCCC)=O", "physical_data": {"Molecular Weight": "214.30", "Molecular Formula": "C12H22O3", "Boiling Point": "123-126 \u00b0C @ Press: 11 Torr"}}