{"cas_no": "131983-72-7", "cn_name": "\u706d\u83cc\u5511", "en_name": ["Triticonazole", "Cyclopentanol, 5-[(4-chlorophenyl)methylene]-2,2-dimethyl-1-(1H-1,2,4-triazol-1-ylmethyl)-", "5-[(4-Chlorophenyl)methylene]-2,2-dimethyl-1-(1H-1,2,4-triazol-1-ylmethyl)cyclopentanol", "Triticonazole", "Alios", "Premis T", "Charter", "Premis", "Premise (fungicide)", "Premise", "Premis 25 FS", "5-(4-Chlorobenzylidene)-2,2-dimethyl-1-[1,2,4]triazol-1-ylmethyl-cyclopentanol", "Trinity"], "SMILES": "C(C1(O)C(=CC2=CC=C(Cl)C=C2)CCC1(C)C)N3C=NC=N3", "physical_data": {"Molecular Weight": "317.81", "Molecular Formula": "C17H20ClN3O", "Melting Point": "140 \u00b0C"}}