{"cas_no": "13194-69-9", "cn_name": "2-\u7898-5-\u7532\u57fa\u82ef\u80fa", "en_name": ["2-Iodo-5-methylbenzenamine", "Benzenamine, 2-iodo-5-methyl-", "m-Toluidine, 6-iodo-", "2-Iodo-5-methylbenzenamine", "2-Iodo-5-methylaniline", "2-Iodo-5-methylphenylamine"], "SMILES": "NC1=C(I)C=CC(C)=C1", "physical_data": {"Molecular Weight": "233.05", "Molecular Formula": "C7H8IN", "Melting Point": "37-39 \u00b0C"}}