{"cas_no": "1319-88-6", "cn_name": "\u82ef\u7532\u919b\u4e19\u4e09\u9187\u7f29\u919b", "en_name": ["Benzaldehyde glyceryl acetal", "Benzaldehyde, cyclic acetal with 1,2,3-propanetriol", "Benzaldehyde, cyclic acetal with glycerol", "Benzaldehyde glyceryl acetal"], "SMILES": "", "physical_data": {"Molecular Weight": "", "Molecular Formula": "C10H12O3", "Boiling Point": "152-154 \u00b0C @ Press: 12 Torr", "Density": "1.2115 g/cm\u00b3 @ Temp: 25 \u00b0C"}}