{"cas_no": "13195-50-1", "cn_name": "2-\u6eb4-5-\u785d\u57fa\u567b\u5429", "en_name": ["2-Bromo-5-nitrothiophene", "Thiophene, 2-bromo-5-nitro-", "2-Bromo-5-nitrothiophene", "2-Nitro-5-bromothiophene", "5-Bromo-2-nitrothiophene", "NSC 511505"], "SMILES": "N(=O)(=O)C=1SC(Br)=CC1", "physical_data": {"Molecular Weight": "208.03", "Molecular Formula": "C4H2BrNO2S", "Boiling Point": "235-237 \u00b0C", "Melting Point": "45-46 \u00b0C"}}