{"cas_no": "13194-48-4", "cn_name": "\u706d\u7ebf\u78f7", "en_name": ["Ethoprophos", "Phosphorodithioic acid, O-ethyl S,S-dipropyl ester", "Ethyl propyl phosphorodithioate ((EtO)(PrS)2PO)", "O-Ethyl S,S-dipropyl phosphorodithioate", "Mocap", "VC 9-104", "S,S-Dipropyl O-ethyl phosphorodithioate", "Prophos (ester)", "Mocap 10G", "Ethoprop", "Ethoprophos", "Rovokil", "O-Ethyl S,S-dipropyl dithiophosphate", "Profos", "Prophos", "ENT 27318", "Mocap 6EC", "Mobile", "Mocap 15G", "1-(Ethoxy-propylsulfanylphosphoryl)sulfanylpropane", "Mocap EC"], "SMILES": "P(SCCC)(SCCC)(OCC)=O", "physical_data": {"Molecular Weight": "242.34", "Molecular Formula": "C8H19O2PS2", "Boiling Point": "86-91 \u00b0C @ Press: 0.2 Torr", "Melting Point": "-13 \u00b0C", "Density": "1.094 g/cm\u00b3 @ Temp: 20 \u00b0C"}}