{"cas_no": "13195-79-4", "cn_name": "\u03b1,\u03b1,4-\u4e09\u6eb4\u82ef\u4e59\u916e", "en_name": ["2,2-Dibromo-1-(4-bromophenyl)ethanone", "Ethanone, 2,2-dibromo-1-(4-bromophenyl)-", "Acetophenone, 2,2,4\u2032-tribromo-", "2,2-Dibromo-1-(4-bromophenyl)ethanone", "4,\u03b1,\u03b1-Tribromoacetophenone", "2,2,4\u2032-Tribromoacetophenone", "\u03b1,\u03b1-Dibromo-4-bromoacetophenone", "NSC 78440", "2,2-Dibromo-1-(4-bromophenyl)ethan-1-one"], "SMILES": "C(C(Br)Br)(=O)C1=CC=C(Br)C=C1", "physical_data": {"Molecular Weight": "356.84", "Molecular Formula": "C8H5Br3O", "Boiling Point": "160-162 \u00b0C @ Press: 3 Torr", "Melting Point": "93-94 \u00b0C"}}