{"cas_no": "13190-34-6", "cn_name": "DL-\u7532\u72b6\u817a\u80bf\u7d20", "en_name": ["(\u00b1)-Goitrin", "2-Oxazolidinethione, 5-ethenyl-", "2-Oxazolidinethione, 5-vinyl-", "5-Ethenyl-2-oxazolidinethione", "5-Vinyloxazolidinethione", "5-Vinyl-2-thiooxazolidone", "5-Vinylthiooxazolidone", "5-Vinyl-2-oxazolidinethione", "5-Vinyl-2-oxazolidine-2-thione", "5-Vinyl-2-thiooxazolidinone", "(\u00b1)-Goitrin", "DL-Goitrin"], "SMILES": "C(=C)C1OC(=S)NC1", "physical_data": {"Molecular Weight": "129.18", "Molecular Formula": "C5H7NOS", "Melting Point": "50 \u00b0C"}}