{"cas_no": "132-53-6", "cn_name": "2-\u4e9a\u785d\u57fa-1-\u8418\u915a", "en_name": ["2-Nitroso-1-naphthol", "1-Naphthalenol, 2-nitroso-", "1-Naphthol, 2-nitroso-", "2-Nitroso-1-naphthalenol", "C.I. 76610", "\u03b2-Nitroso-\u03b1-naphthol", "2-Nitroso-1-naphthol", "2-Nitrosonaphthol", "\u03b2-Nitrosonaphthol", "2-Nitroso-1-hydroxynaphthalene", "NSC 5034"], "SMILES": "OC=1C2=C(C=CC1N=O)C=CC=C2", "physical_data": {"Molecular Weight": "173.17", "Molecular Formula": "C10H7NO2", "Melting Point": "158 \u00b0C (decomp)"}}