{"cas_no": "132-64-9", "cn_name": "\u4e8c\u82ef\u5e76\u544b\u5583", "en_name": ["Dibenzofuran", "Dibenzofuran", "2,2\u2032-Biphenylene oxide", "2,2\u2032-Biphenylylene oxide", "Dibenzo[b,d]furan", "Diphenylene oxide", "[1,1\u2032-Biphenyl]-2,2\u2032-diyl oxide", "NSC 1245"], "SMILES": "C1=2C=3C(OC1=CC=CC2)=CC=CC3", "physical_data": {"Molecular Weight": "168.19", "Molecular Formula": "C12H8O", "Boiling Point": "287 \u00b0C @ Press: 760 Torr", "Melting Point": "86.5 \u00b0C", "Density": "1.0886 g/cm\u00b3 @ Temp: 99 \u00b0C"}}