{"cas_no": "132-63-8", "cn_name": "1-\u7532\u6c27\u57fa\u78b3\u9170\u6c28\u57fa-7-\u8418\u915a", "en_name": ["Methyl N-(7-hydroxy-1-naphthalenyl)carbamate", "Carbamic acid, N-(7-hydroxy-1-naphthalenyl)-, methyl ester", "1-Naphthalenecarbamic acid, 7-hydroxy-, methyl ester", "Carbamic acid, (7-hydroxy-1-naphthalenyl)-, methyl ester", "Methyl N-(7-hydroxy-1-naphthalenyl)carbamate", "1-Methoxycarbonylamino-7-naphthol"], "SMILES": "N(C(OC)=O)C=1C2=C(C=CC1)C=CC(O)=C2", "physical_data": {"Molecular Weight": "217.22", "Molecular Formula": "C12H11NO3", "Melting Point": "104 \u00b0C"}}