{"cas_no": "132-20-7", "cn_name": "\u9a6c\u6765\u9178\u975e\u5c3c\u62c9\u654f", "en_name": ["Pheniramine maleate", "2-Pyridinepropanamine, N,N-dimethyl-\u03b3-phenyl-, (2Z)-2-butenedioate (1:1)", "Pyridine, 2-[\u03b1-[2-(dimethylamino)ethyl]benzyl]-, maleate (1:1)", "Prophenpyridamine maleate", "2-Pyridinepropanamine, N,N-dimethyl-\u03b3-phenyl-, (Z)-2-butenedioate (1:1)", "Daneral", "2-[\u03b1-[2-(Dimethylamino)ethyl]benzyl]pyridine bimaleate", "Pheniramine maleate", "1-Phenyl-1-(2-pyridyl)-3-dimethylaminopropane maleate", "Trimetose", "1-Phenyl-1-(2-pyridyl)-3-dimethaminopropane maleinate", "Inhiston", "Metron", "PM 241", "Pheniramine hydrogen maleate", "Naphcon A", "Trimeton", "Antolozine"], "SMILES": "C(CCN(C)C)(C1=CC=CC=C1)C2=CC=CC=N2.C(=CC(O)=O)C(O)=O", "physical_data": {"Molecular Weight": "", "Molecular Formula": "C16H20N2.C4H4O4", "Melting Point": "107 \u00b0C"}}