{"cas_no": "132-27-4", "cn_name": "\u90bb\u82ef\u57fa\u82ef\u915a\u94a0", "en_name": ["Sodium o-phenylphenate", "[1,1\u2032-Biphenyl]-2-ol, sodium salt (1:1)", "2-Biphenylol, sodium salt", "[1,1\u2032-Biphenyl]-2-ol, sodium salt", "Phenol, o-phenyl-, sodium deriv.", "Dowicide A", "Dowicide", "2-Hydroxydiphenyl sodium", "Natriphene", "Preventol ON", "Sodium 2-hydroxydiphenyl", "Sodium o-phenylphenate", "Sodium 2-phenylphenate", "Sodium o-phenylphenolate", "Sodium o-phenylphenoxide", "Stopmold B", "Topane", "o-Phenylphenol sodium salt", "2-Phenylphenol sodium salt", "SOPP", "2-Hydroxybiphenyl sodium salt", "Sodium 2-biphenylolate", "Sodium o-phenylphenol", "Preventol ON extra", "Dowicide A Flakes", "Mystox WFA", "Sodium 2-phenylphenoxide", "Deccosol", "o-Hydroxybiphenyl sodium salt", "Sodium 2-phenylphenol", "Bactolyse 74880", "Microban Additive P 2", "Sodium 2-phenylphenoate", "Microban P 2", "Sodium orthophenylphenoxide", "Sodium orthophenylphenol", "Sodium, (2-biphenylyloxy)-"], "SMILES": "OC1=C(C2=CC=CC=C2)C=CC=C1.[Na]", "physical_data": {"Molecular Weight": "", "Molecular Formula": "C12H10O.Na", "Melting Point": "282 \u00b0C"}}