{"cas_no": "132-18-3", "cn_name": "\u76d0\u9178\u53cc\u82ef\u6bd4\u62c9\u6797", "en_name": ["Diafen", "Piperidine, 4-(diphenylmethoxy)-1-methyl-, hydrochloride (1:1)", "Piperidine, 4-(diphenylmethoxy)-1-methyl-, hydrochloride", "Diafen hydrochloride", "4-Diphenylmethoxy-1-methylpiperidine hydrochloride", "Diphenylpyraline hydrochloride", "Hispril hydrochloride", "1-Methyl-4-piperidyl benzhydryl ether hydrochloride", "Sumadil", "Diphenpyraline hydrochloride", "Diafen (antihistamine)", "Diafen", "Diaphen", "Lergoban", "Dayfen", "Belfene", "Histryl", "Kolton Jelly", "Anginosan", "Histryl Spansule Capsules", "Lergobine", "Hispril", "Histyn", "Diphenylpyraline teoclate"], "SMILES": "C(OC1CCN(C)CC1)(C2=CC=CC=C2)C3=CC=CC=C3.Cl", "physical_data": {"Molecular Weight": "", "Molecular Formula": "C19H23NO.ClH", "Melting Point": "206 \u00b0C"}}