{"cas_no": "132-69-4", "cn_name": "\u76d0\u9178\u82c4\u8fbe\u660e", "en_name": ["Benzidamine hydrochloride", "1-Propanamine, N,N-dimethyl-3-[[1-(phenylmethyl)-1H-indazol-3-yl]oxy]-, hydrochloride (1:1)", "1H-Indazole, 1-benzyl-3-[3-(dimethylamino)propoxy]-, monohydrochloride", "1-Propanamine, N,N-dimethyl-3-[[1-(phenylmethyl)-1H-indazol-3-yl]oxy]-, monohydrochloride", "AF 864", "Benzidamine hydrochloride", "Benzydamine hydrochloride", "1-Benzyl-3-(3-dimethylaminopropoxy)-1H-indazole chloride", "1-Benzyl-3-\u03b3-dimethylaminopropoxy-1H-indazole hydrochloride", "1-Benzyl-3-[3-(dimethylamino)propoxy]-1H-indazole hydrochloride", "Tantum", "Benzindamine hydrochloride", "Tamas", "Alcidol", "Algiflog", "Benalgin", "Benciflam", "Bendaminol", "Benflogin", "Difflam", "Saniflor", "Dorinamin", "Difflam Cream", "Ririlim", "Benzyrin", "Enzamin", "Riripen", "Verax", "Salyzoron", "Difflam Oral Rinse", "Andolex", "Afloben", "Imotryl", "3-((1-Benzyl-1H-indazol-3-yl)oxy)-N,N-dimethylpropan-1-amine hydrochloride"], "SMILES": "C(N1C=2C(C(OCCCN(C)C)=N1)=CC=CC2)C3=CC=CC=C3.Cl", "physical_data": {"Molecular Weight": "", "Molecular Formula": "C19H23N3O.ClH", "Melting Point": "160 \u00b0C"}}