{"cas_no": "132-22-9", "cn_name": "2-(4-\u6c2f\u82ef\u57fa)-4-(\u4e8c\u7532\u6c28\u57fa)-2-\u5421\u5576\u4e19\u80fa", "en_name": ["(\u00b1)-Chlorpheniramine", "2-Pyridinepropanamine, \u03b3-(4-chlorophenyl)-N,N-dimethyl-", "Pyridine, 2-[p-chloro-\u03b1-[2-(dimethylamino)ethyl]benzyl]-", "\u03b3-(4-Chlorophenyl)-N,N-dimethyl-2-pyridinepropanamine", "Allergican", "2-[p-Chloro-\u03b1-[2-(dimethylamino)ethyl]benzyl]pyridine", "Chlorophenylpyridamine", "1-(p-Chlorophenyl)-1-(2-pyridyl)-3-dimethylaminopropane", "3-(p-Chlorophenyl)-3-(2-pyridyl)-N,N-dimethylpropylamine", "\u03b3-(4-Chlorophenyl)-\u03b3-(2-pyridyl)propyldimethylamine", "Chloroprophenpyridamine", "Chlorphenamine", "Chlorpheniramine", "Chlorprophenpyridamine", "4-Chloropheniramine", "Haynon", "Chloropheniramine", "(\u00b1)-Chloropheniramine", "(\u00b1)-Chlorpheniramine", "dl-1-(p-Chlorophenyl)-1-(2-pyridyl)-3-(dimethylamino)propane", "RS-Chlorpheniramine", "Chloropheriamine", "[3-(4-Chlorophenyl)-3-(pyridin-2-yl)propyl]dimethylamine", "3-(4-Chlorophenyl)-N,N-dimethyl-3-(pyridin-2-yl)propan-1-amine"], "SMILES": "C(CCN(C)C)(C1=CC=C(Cl)C=C1)C2=CC=CC=N2", "physical_data": {"Molecular Weight": "274.79", "Molecular Formula": "C16H19ClN2", "Boiling Point": "141-143 \u00b0C @ Press: 1.0 Torr"}}