{"cas_no": "132-86-5", "cn_name": "\u95f4\u8418\u4e8c\u915a", "en_name": ["1,3-Dihydroxynaphthalene", "1,3-Naphthalenediol", "1,3-Dihydroxynaphthalene", "Naphthoresorcinol", "NSC 115890"], "SMILES": "OC=1C2=C(C=C(O)C1)C=CC=C2", "physical_data": {"Molecular Weight": "160.17", "Molecular Formula": "C10H8O2", "Melting Point": "123.5 \u00b0C"}}