{"cas_no": "132-32-1", "cn_name": "3-\u6c28\u57fa-9-\u4e59\u57fa\u5494\u5511", "en_name": ["3-Amino-9-ethylcarbazole", "9H-Carbazol-3-amine, 9-ethyl-", "Carbazole, 3-amino-9-ethyl-", "9-Ethyl-9H-carbazol-3-amine", "3-Amino-9-ethylcarbazole", "3-Amino-N-ethylcarbazole", "9-Ethyl-3-carbazolamine", "9-Ethyl-9H-carbazol-3-ylamine", "NSC 67709", "NSC 96640", "AEC", "AEC (chromogen)", "9-Ethyl-9H-carbazole-3-amine", "3-Amino-9-ethyl-9H-carbazole", "N-(9-Ethyl-9H-carbazol-3-yl)amine"], "SMILES": "C(C)N1C=2C(C=3C1=CC=C(N)C3)=CC=CC2", "physical_data": {"Molecular Weight": "210.27", "Molecular Formula": "C14H14N2", "Melting Point": "127 \u00b0C"}}