{"cas_no": "132-17-2", "cn_name": "\u82ef\u624e\u6258\u54c1", "en_name": ["Benztropine mesylate", "8-Azabicyclo[3.2.1]octane, 3-(diphenylmethoxy)-8-methyl-, (3-endo)-, methanesulfonate (1:1)", "1\u03b1H,5\u03b1H-Tropane, 3\u03b1-(diphenylmethoxy)-, methanesulfonate", "8-Azabicyclo[3.2.1]octane, 3-(diphenylmethoxy)-8-methyl-, endo-, methanesulfonate", "8-Azabicyclo[3.2.1]octane, 3-(diphenylmethoxy)-8-methyl-, (3-endo)-, methanesulfonate", "MK 02", "Benzatropine methanesulfonate", "Benzotropine methanesulfonate", "Benztropine mesylate", "Benztropine methanesulfonate", "Cobrentin methanesulfonate", "Cogentin methanesulfonate", "3-Diphenylmethoxytropane mesylate", "3-Diphenylmethoxytropane methanesulfonate", "Tropine benzohydryl ether methanesulfonate", "Benzotropine mesylate", "Cogentin", "Cogentinol", "NSC 169913", "NSC 42199"], "SMILES": "S(C)(=O)(=O)O.C(OC1CC2N(C)C(C1)CC2)(C3=CC=CC=C3)C4=CC=CC=C4", "physical_data": {"Molecular Weight": "", "Molecular Formula": "C21H25NO.CH4O3S", "Melting Point": "143 \u00b0C"}}