{"cas_no": "132-75-2", "cn_name": "1-\u8418\u4e59\u8148", "en_name": ["1-Naphthaleneacetonitrile", "1-Naphthaleneacetonitrile", "1-Naphthylacetonitrile", "\u03b1-Naphthylacetonitrile", "2-(1-Naphthyl)acetonitrile", "1-Cyanomethylnaphthalene", "NSC 9844", "2-(Naphthalen-1-yl)acetonitrile", "Naphthalen-1-ylacetonitrile"], "SMILES": "C(C#N)C=1C2=C(C=CC1)C=CC=C2", "physical_data": {"Molecular Weight": "167.21", "Molecular Formula": "C12H9N", "Boiling Point": "175-185 \u00b0C @ Press: 11-14 Torr", "Melting Point": "32.5 \u00b0C"}}