{"cas_no": "132-16-1", "cn_name": "\u94c1\u915e\u83c1", "en_name": ["Iron(II) phthalocyanine", "Iron, [29H,31H-phthalocyaninato(2-)-\u03baN29,\u03baN30,\u03baN31,\u03baN32]-, (SP-4-1)-", "Iron, [phthalocyaninato(2-)]-", "Iron, [29H,31H-phthalocyaninato(2-)-N29,N30,N31,N32]-, (SP-4-1)-", "Phthalocyanine, iron deriv.", "29H,31H-Phthalocyanine, iron complex", "(SP-4-1)-[29H,31H-Phthalocyaninato(2-)-\u03baN29,\u03baN30,\u03baN31,\u03baN32]iron", "Iron phthalocyanine", "Ferrophthalocyanine complex", "Iron(II) phthalocyanine", "Ferrous phthalocyanine", "Phthalocyanine-iron(II)", "[Phthalocyaninato(2-)]iron", "Iron(2+) phthalocyanine", "(Phthalocyaninato)iron", "Phthalocyanine iron", "[Phthalocyanato(2-)]iron", "Ferrophthalocyanine", "Sanyo P 26", "(Phthalocyaninato)iron(II)", "P 26", "Iron(2+) phthalocyaninate", "P 0774", "FePc"], "SMILES": "[Fe+2]123[N-]4C=5C=6C(C4=NC7=[N]1C(=NC=8[N-]2C(=C9C8C=CC=C9)N=C%10[N]3=C(N5)C=%11C%10=CC=CC%11)C=%12C7=CC=CC%12)=CC=CC6", "physical_data": {"Molecular Weight": "", "Molecular Formula": "C32H16FeN8", "Melting Point": "&gt;300 \u00b0C"}}