{"cas_no": "132-98-9", "cn_name": "\u9752\u9709\u7d20 V \u94be", "en_name": ["Penicillin V potassium", "4-Thia-1-azabicyclo[3.2.0]heptane-2-carboxylic acid, 3,3-dimethyl-7-oxo-6-[(2-phenoxyacetyl)amino]-, potassium salt (1:1), (2S,5R,6R)-", "4-Thia-1-azabicyclo[3.2.0]heptane-2-carboxylic acid, 3,3-dimethyl-7-oxo-6-(2-phenoxyacetamido)-, monopotassium salt", "4-Thia-1-azabicyclo[3.2.0]heptane-2-carboxylic acid, 3,3-dimethyl-7-oxo-6-[(phenoxyacetyl)amino]-, monopotassium salt, [2S-(2\u03b1,5\u03b1,6\u03b2)]-", "4-Thia-1-azabicyclo[3.2.0]heptane-2-carboxylic acid, 3,3-dimethyl-7-oxo-6-[(phenoxyacetyl)amino]-, monopotassium salt, (2S,5R,6R)-", "V-Cillin K", "Compocillin VK", "Penicillin V potassium", "Pen-Vee-K", "Pen-Vee K Powder", "Penvikal", "Phenoxymethylpenicillin potassium", "Potassium penicillin V", "Potassium penicillin V salt", "Potassium phenoxymethylpenicillin", "Isocillin", "Penicillin V potassium salt", "Stabillin VK syrup 62.5", "Stabillin VK syrup 125", "Phenoxymethylpenicillin potassium salt", "Potassium 2,2-dimethyl-6\u03b2-phenoxyacetamidopenam-3\u03b1-carboxylate", "Potassium phenoxymethylpenicillinate", "Cliacil", "Beromycin", "Beromycin (penicillin)", "Roscopenin", "Fenoxypen", "Kavepenin", "Penicillin VK", "Primcillin", "Megacillin-oral", "Fenocin", "V-Pen", "Uticillin Vk", "Suspen", "Anapenil", "Penadur VK Mega", "Fenoxcillin", "Apsin VK", "V-Penicillin Kalium", "Newcillin", "Trepopen VK", "Pen-Vi-K", "Milcopen", "Robicillin VK", "Abbocillin VK", "Megacilina Oral", "Apo-Pen VK", "DuraPenicillin", "Pfizerpen Vk", "Pentabs", "Novopen VK", "Beepen Vk", "Acipen", "Rafapen V-K", "Stabilin V-K", "Orvek", "Penivoral", "Betapen Vk", "Len VK", "Cilicaine VK", "Nadopen V", "Vepicombin", "Trepopen", "V-Kal K", "V-Cil K", "Penoxilin", "Pen-V", "Distaquaine V-K", "Oracillin VK", "Ospen KV", "Servipen V", "Pentacillin", "Veetids", "L.P.V.", "Pentranex", "Ispenoral", "Arcasin", "Novo VK", "Ospen 250", "Vamosyn", "Microcillin VK", "Micropen VK", "Cilacil", "Penvisil", "Beapen", "Asillin", "Rocilin", "P.V.O.", "PVK", "Fenospen", "Ledercillin Vk", "Monocillin E", "Betapen V", "Vepen", "Ocillin VK", "Beromycin 400", "Calciopen K", "Distakaps V-K", "Ospeneff", "Pedipen", "Dowpen V-K", "SK-Penicillin VK", "Pen V-K", "Antibiocin", "Fenocin Forte", "Pencompren", "Qidpen VK", "Orapen", "DQV-K", "Rocillin VK", "Oracil VK", "Penapar VK", "Icipen", "Penagen", "Sumapen VK", "Arcacil", "Penicillin V Potassium"], "SMILES": "C(O)(=O)C1N2C(C(NC(COC3=CC=CC=C3)=O)C2=O)SC1(C)C.[K]", "physical_data": {"Molecular Weight": "", "Molecular Formula": "C16H18N2O5S.K", "Melting Point": "120-128 \u00b0C (decomp)"}}