{"cas_no": "132-29-6", "cn_name": "\u78f7\u9178-2-\u8054\u82ef\u57fa\u4e8c\u82ef\u57fa\u916f", "en_name": ["Phosphoric acid, [1,1\u2032-biphenyl]-2-yl diphenyl ester", "Phosphoric acid, [1,1\u2032-biphenyl]-2-yl diphenyl ester", "Phosphoric acid, 2-biphenylyl diphenyl ester", "2-Biphenylyl phenyl phosphate ((C12H9O)(PhO)2PO)", "2-Biphenylol, diphenyl phosphate", "Dow 5", "2-Biphenylyl diphenyl phosphate", "Diphenyl mono-o-xenyl phosphate", "Dow Plasticizer 5", "o-Phenylphenyl diphenyl phosphate", "Diphenyl o-biphenylyl phosphate", "o-Phenylphenyl bisphenyl phosphate", "NSC 2889", "o-Xelenyl diphenyl phosphate"], "SMILES": "O(P(OC1=CC=CC=C1)(OC2=CC=CC=C2)=O)C3=C(C=CC=C3)C4=CC=CC=C4", "physical_data": {"Molecular Weight": "402.38", "Molecular Formula": "C24H19O4P", "Boiling Point": "289-290 \u00b0C @ Press: 11.5 Torr", "Density": "1.2896 g/cm\u00b3 @ Temp: 204 \u00b0C"}}