{"cas_no": "132-66-1", "cn_name": "\u6291\u8349\u751f", "en_name": ["1-Naphthylphthalamic acid", "Benzoic acid, 2-[(1-naphthalenylamino)carbonyl]-", "Phthalamic acid, N-1-naphthyl-", "2-[(1-Naphthalenylamino)carbonyl]benzoic acid", "Alanap 1", "Alanap", "Alanap 10G at", "Analape", "Naptalam", "NPA", "Naphthalam", "N-1-Naphthylphthalamic acid", "Grelutin", "N-\u03b1-Naphthylphthalamic acid", "1-Naphthylphthalamic acid", "2-[(1-Naphthylamino)carbonyl]benzoic acid", "2-(1-Naphthylcarbamoyl)benzoic acid", "NSC 204421", "NPA (pesticide)", "2-(N-(1-Naphthyl)amido)benzoic acid"], "SMILES": "N(C(=O)C1=C(C(O)=O)C=CC=C1)C=2C3=C(C=CC2)C=CC=C3", "physical_data": {"Molecular Weight": "291.30", "Molecular Formula": "C18H13NO3", "Melting Point": "203 \u00b0C", "Density": "1.40 g/cm\u00b3 @ Temp: 20 \u00b0C"}}