{"cas_no": "132-65-0", "cn_name": "\u4e8c\u82ef\u5e76\u567b\u5429", "en_name": ["Dibenzothiophene", "Dibenzothiophene", "2,2\u2032-Biphenylylene sulfide", "Diphenylene sulfide", "9-Thiafluorene", "[1,1\u2032-Biphenyl]-2,2\u2032-diyl sulfide", "Dibenzo[b,d]thiophene", "DBT", "NSC 2843"], "SMILES": "C1=2C=3C(SC1=CC=CC2)=CC=CC3", "physical_data": {"Molecular Weight": "184.26", "Molecular Formula": "C12H8S", "Boiling Point": "332.5 \u00b0C", "Melting Point": "97 \u00b0C"}}