{"cas_no": "132-60-5", "cn_name": "2-\u82ef\u57fa-4-\u55b9\u5549\u7fa7\u9178", "en_name": ["2-Phenyl-4-quinolinecarboxylic acid", "4-Quinolinecarboxylic acid, 2-phenyl-", "Cinchoninic acid, 2-phenyl-", "2-Phenyl-4-quinolinecarboxylic acid", "Agotan", "Alutyl", "Artam", "Atocin", "Atophan", "Cinchophen", "Cinchophene", "Cinchophenic acid", "Cinconal", "Cincophen", "Cincosal", "Mylofanol", "Phenoquin", "2-Phenylcinchonic acid", "2-Phenylcinchoninic acid", "Quinophan", "Rhematan", "Rheumine", "Tophol", "Tophosan", "Vantyl", "Viophan", "Quinophen", "Aciphenochinolinium", "Polyphlogin", "Quinofen", "Atofan", "Artexin", "Traubofan", "Atigoa", "Tervalon", "Aminophan", "Phenophan", "Ikterosan", "Aciphenochinoline", "4-Carboxy-2-phenylquinoline", "Rheumatan", "Alutyo", "Rheumin", "NSC 2617", "NSC 70178"], "SMILES": "C(O)(=O)C=1C2=C(N=C(C1)C3=CC=CC=C3)C=CC=C2", "physical_data": {"Molecular Weight": "249.26", "Molecular Formula": "C16H11NO2", "Melting Point": "218 \u00b0C"}}