{"cas_no": "132089-34-0", "cn_name": "2-(3-\u6c2f\u82ef\u57fa)-\u567b\u5511-4-\u7fa7\u9178\u4e59\u916f", "en_name": ["Ethyl 2-(3-chlorophenyl)-4-thiazolecarboxylate", "4-Thiazolecarboxylic acid, 2-(3-chlorophenyl)-, ethyl ester", "Ethyl 2-(3-chlorophenyl)-4-thiazolecarboxylate", "2-(3-Chloro-phenyl)-thiazole-4-carboxylic acid ethyl ester"], "SMILES": "C(OCC)(=O)C=1N=C(SC1)C2=CC(Cl)=CC=C2", "physical_data": {"Molecular Weight": "267.73", "Molecular Formula": "C12H10ClNO2S", "Melting Point": "66 \u00b0C"}}