{"cas_no": "13209-15-9", "cn_name": "\u56db\u6eb4\u5bf9\u70ef", "en_name": ["\u03b1,\u03b1,\u03b1\u2032,\u03b1\u2032-Tetrabromo-o-xylene", "Benzene, 1,2-bis(dibromomethyl)-", "o-Xylene, \u03b1,\u03b1,\u03b1\u2032,\u03b1\u2032-tetrabromo-", "1,2-Bis(dibromomethyl)benzene", "\u03b1,\u03b1,\u03b1\u2032,\u03b1\u2032-Tetrabromo-o-xylene", "NSC 38607"], "SMILES": "C(Br)(Br)C1=C(C(Br)Br)C=CC=C1", "physical_data": {"Molecular Weight": "421.75", "Molecular Formula": "C8H6Br4", "Melting Point": "115-116 \u00b0C"}}