{"cas_no": "13209-16-0", "cn_name": "4-\u785d\u57fa-\u0391,\u0391,\u0391',\u0391'-\u56db\u6eb4\u90bb\u4e8c\u7532\u82ef", "en_name": ["1,2-Bis(dibromomethyl)-4-nitrobenzene", "Benzene, 1,2-bis(dibromomethyl)-4-nitro-", "o-Xylene, \u03b1,\u03b1,\u03b1\u2032,\u03b1\u2032-tetrabromo-4-nitro-", "1,2-Bis(dibromomethyl)-4-nitrobenzene", "4-Nitro-1,2-bis(dibromomethyl)benzene", "3,4-Bis(dibromomethyl)nitrobenzene"], "SMILES": "C(Br)(Br)C1=C(C(Br)Br)C=CC(N(=O)=O)=C1", "physical_data": {"Molecular Weight": "466.75", "Molecular Formula": "C8H5Br4NO2", "Melting Point": "126-127 \u00b0C"}}