{"cas_no": "13205-46-4", "cn_name": "4-\u5f02\u4e19\u6c27\u82ef\u7532\u9178", "en_name": ["4-(1-Methylethoxy)benzoic acid", "Benzoic acid, 4-(1-methylethoxy)-", "Benzoic acid, p-isopropoxy-", "4-(1-Methylethoxy)benzoic acid", "4-Isopropoxybenzoic acid", "4-(Isopropyloxy)benzoic acid", "p-Isopropoxybenzoic acid", "4-(2-Propyloxy)benzoic acid", "NSC 16646", "4-[(Propan-2-yl)oxy]benzoic acid"], "SMILES": "O(C(C)C)C1=CC=C(C(O)=O)C=C1", "physical_data": {"Molecular Weight": "180.20", "Molecular Formula": "C10H12O3", "Melting Point": "161 \u00b0C"}}