{"cas_no": "13205-49-7", "cn_name": "4-(\u4e59\u786b\u57fa)\u82ef\u7532\u9178", "en_name": ["4-(Ethylthio)benzoic acid", "Benzoic acid, 4-(ethylthio)-", "Benzoic acid, p-(ethylthio)-", "Benzoic acid, p-(ethylmercapto)-", "4-(Ethylthio)benzoic acid", "p-(Ethylthio)benzoic acid", "NSC 138415", "4-(Ethylsulfanyl)benzoic acid"], "SMILES": "C(O)(=O)C1=CC=C(SCC)C=C1", "physical_data": {"Molecular Weight": "182.24", "Molecular Formula": "C9H10O2S", "Melting Point": "145 \u00b0C"}}