{"cas_no": "13201-14-4", "cn_name": "\u4e8c\u6c22\u846b\u82a6\u7d20B", "en_name": ["Dihydrocucurbitacin B", "19-Norlanost-5-ene-3,11,22-trione, 25-(acetyloxy)-2,16,20-trihydroxy-9-methyl-, (2\u03b2,9\u03b2,10\u03b1,16\u03b1)-", "19-Nor-9\u03b2,10\u03b1-lanost-5-ene-3,11,22-trione, 2\u03b2,16\u03b1,20,25-tetrahydroxy-9-methyl-, 25-acetate", "Cucurbitacin B, dihydro-", "(2\u03b2,9\u03b2,10\u03b1,16\u03b1)-25-(Acetyloxy)-2,16,20-trihydroxy-9-methyl-19-norlanost-5-ene-3,11,22-trione", "Dihydrocucurbitacin B", "23,24-Dihydrocucurbitacin B", "NSC 106401"], "SMILES": "CC12C(C)(C(C(C(CCC(OC(C)=O)(C)C)=O)(C)O)C(O)C1)CC(=O)C3(C)C2CC=C4C3CC(O)C(=O)C4(C)C", "physical_data": {"Molecular Weight": "560.72", "Molecular Formula": "C32H48O8", "Melting Point": "110-115 \u00b0C"}}