{"cas_no": "132095-54-6", "cn_name": "7-\u6eb4-3,4-\u4e8c\u6c22-1H-2-\u8418\u916e", "en_name": ["7-Bromo-2-tetralone", "2(1H)-Naphthalenone, 7-bromo-3,4-dihydro-", "7-Bromo-3,4-dihydro-2(1H)-naphthalenone", "OSU 71B", "7-Bromo-2-tetralone", "7-Bromo-3,4-dihydro-1H-naphthalen-2-one"], "SMILES": "BrC=1C=C2C(CCC(=O)C2)=CC1", "physical_data": {"Molecular Weight": "225.08", "Molecular Formula": "C10H9BrO", "Melting Point": "72-74 \u00b0C"}}