{"cas_no": "13200-86-7", "cn_name": "N-\u7532\u9170\u57fa-L-\u916a\u6c28\u9178", "en_name": ["N-Formyl-L-tyrosine", "L-Tyrosine, N-formyl-", "Tyrosine, N-formyl-, L-", "Tyrosine, N-formyl-", "N-Formyl-L-tyrosine", "N-Formyltyrosine", "FTyr", "L-Formyltyrosine", "NSC 74484", "(2S)-3-(4-Hydroxyphenyl)-2-formamidopropanoic acid"], "SMILES": "C(C(NC=O)C(O)=O)C1=CC=C(O)C=C1", "physical_data": {"Molecular Weight": "209.20", "Molecular Formula": "C10H11NO4", "Melting Point": "170-171 \u00b0C"}}