{"cas_no": "13205-48-6", "cn_name": "4-\u7532\u786b\u57fa\u82ef\u7532\u9178", "en_name": ["4-(Methylthio)benzoic acid", "Benzoic acid, 4-(methylthio)-", "Benzoic acid, p-(methylthio)-", "4-(Methylthio)benzoic acid", "p-(Methylthio)benzoic acid", "p-Carboxyphenyl methyl sulfide", "4-Carboxyphenyl methyl sulfide", "p-Carboxythioanisole", "NSC 400301", "4-(Methylsulfanyl)benzoic acid"], "SMILES": "C(O)(=O)C1=CC=C(SC)C=C1", "physical_data": {"Molecular Weight": "168.21", "Molecular Formula": "C8H8O2S", "Melting Point": "193-196 \u00b0C"}}