{"cas_no": "1320-67-8", "cn_name": "\u4e19\u4e8c\u9187\u5355\u7532\u919a", "en_name": ["Propylene glycol monomethyl ether", "Propanol, 1(or 2)-methoxy-", "Propanol, methoxy-", "1(or 2)-Methoxypropanol", "Dowanol PM", "Propylene glycol monomethyl ether", "Solvenon PM", "Propylene glycol methyl ether", "Methoxypropanol", "Arcosolv PM", "Kuraray PGM", "Methyl Propasol", "PM", "PM (solvent)", "Polysolv MPM", "MFG", "1,2-Propanediol monomethyl ether", "MMPG", "Hisolve MP", "Hisolve PM", "PGM-AC 4120Y", "PGME"], "SMILES": "", "physical_data": {"Molecular Weight": "", "Molecular Formula": "C4H10O2", "Boiling Point": "118 \u00b0C"}}