{"cas_no": "13200-85-6", "cn_name": "N-\u7532\u9170\u57fa-L-\u82ef\u4e19\u6c28\u9178", "en_name": ["N-Formyl-L-phenylalanine", "L-Phenylalanine, N-formyl-", "Alanine, N-formyl-3-phenyl-, L-", "L-Alanine, N-formyl-3-phenyl-", "N-Formyl-L-phenylalanine", "L-N-Formylphenylalanine", "N-Formylphenylalanine", "N-Formyl-3-phenylalanine", "NSC 334342", "(2S)-2-Formamido-3-phenylpropanoic acid"], "SMILES": "C(CC1=CC=CC=C1)(NC=O)C(O)=O", "physical_data": {"Molecular Weight": "193.20", "Molecular Formula": "C10H11NO3", "Melting Point": "161-162 \u00b0C"}}