{"cas_no": "13209-41-1", "cn_name": "\u5730\u585e\u7c73\u677eEP\u6742\u8d28E", "en_name": ["(16\u03b1)-17,21-Dihydroxy-16-methylpregna-1,4,9(11)-triene-3,20-dione", "Pregna-1,4,9(11)-triene-3,20-dione, 17,21-dihydroxy-16-methyl-, (16\u03b1)-", "Pregna-1,4,9(11)-triene-3,20-dione, 17,21-dihydroxy-16\u03b1-methyl-", "(16\u03b1)-17,21-Dihydroxy-16-methylpregna-1,4,9(11)-triene-3,20-dione", "17\u03b1,21-Dihydroxy-16\u03b1-methylpregna-1,4,9(11)-triene-3,20-dione", "VBP 15", "Vamorolone", "17,21-Dihydroxy-16\u03b1-methylpregna-1,4,9(11)-triene-3,20-dione"], "SMILES": "CC12C(C3C(=CC1)C4(C)C(CC3)=CC(=O)C=C4)CC(C)C2(C(CO)=O)O", "physical_data": {"Molecular Weight": "356.46", "Molecular Formula": "C22H28O4", "Melting Point": "228-231 \u00b0C"}}