{"cas_no": "13214-66-9", "cn_name": "\u82ef\u57fa-4-\u4e01\u80fa", "en_name": ["Benzenebutanamine", "Benzenebutanamine", "Butylamine, 4-phenyl-", "4-Phenylbutylamine", "4-Phenyl-1-butylamine", "\u03b4-Phenyl-n-butylamine", "\u03b4-Phenbutylamine", "4-Phenyl-n-butylamine", "4-Benzenebutanamine", "4-Phenylbutanamine", "1-Amino-4-phenylbutane", "4-Phenyl-1-aminobutane", "4-Phenylbutan-1-amine"], "SMILES": "C(CCCN)C1=CC=CC=C1", "physical_data": {"Molecular Weight": "149.23", "Molecular Formula": "C10H15N", "Boiling Point": "123-124 \u00b0C"}}