{"cas_no": "13214-53-4", "cn_name": "N-\u6c2f\u7532\u9170\u57fa-2-\u54aa\u5511\u70f7\u916e", "en_name": ["2-Oxo-1-imidazolidinecarbonyl chloride", "1-Imidazolidinecarbonyl chloride, 2-oxo-", "2-Oxo-1-imidazolidinecarbonyl chloride", "Ethyleneallophanoyl chloride", "N-(Chlorocarbonyl)-2-imidazolidinone", "2-Imidazolidone-1-carbonyl chloride", "2-Oxoimidazolidinocarbonyl chloride", "1-(Chlorocarbonyl)-2-imidazolidinone", "N-(Chlorocarbonyl)ethyleneurea", "1-Chlorocarbonyl-2-oxoimidazoline", "2-Hydroxy-4,5-dihydro-1H-imidazole-1-carbonyl chloride"], "SMILES": "C(Cl)(=O)N1C(=O)NCC1", "physical_data": {"Molecular Weight": "148.55", "Molecular Formula": "C4H5ClN2O2", "Melting Point": "150-153 \u00b0C"}}