{"cas_no": "132112-35-7", "cn_name": "\u76d0\u9178\u7f57\u54cc\u5361\u56e0", "en_name": ["2-Piperidinecarboxamide, N-(2,6-dimethylphenyl)-1-propyl-, hydrochloride, hydrate (1:1:1), (2S)-", "2-Piperidinecarboxamide, N-(2,6-dimethylphenyl)-1-propyl-, hydrochloride, hydrate (1:1:1), (2S)-", "2-Piperidinecarboxamide, N-(2,6-dimethylphenyl)-1-propyl-, monohydrochloride, monohydrate, (S)-", "2-Piperidinecarboxamide, N-(2,6-dimethylphenyl)-1-propyl-, monohydrochloride, monohydrate, (2S)-", "Ropivacaine hydrochloride monohydrate", "(2S)-2-[(Dimethylphenyl)carbamoyl]-1-propylpiperidin-1-ium chloride monohydrate"], "SMILES": "C(NC1=C(C)C=CC=C1C)(=O)C2N(CCC)CCCC2.Cl.O", "physical_data": {"Molecular Weight": "", "Molecular Formula": "C17H26N2O.ClH.H2O", "Melting Point": "269.5-270.6 \u00b0C"}}