{"cas_no": "13211-31-9", "cn_name": "L-\u7f2c\u6c28\u9178\u53d4\u4e01\u916f\u76d0\u9178\u76d0", "en_name": ["L-Valine, 1,1-dimethylethyl ester", "L-Valine, 1,1-dimethylethyl ester", "Valine, tert-butyl ester, L-", "L-Valine tert-butyl ester", "Valine tert-butyl ester", "(S)-Valine tert-butyl ester", "tert-Butyl L-valinate", "(S)-tert-Butyl 2-amino-3-methylbutanoate", "(S)-2-Amino-3-methylbutanoic acid tert-butyl ester", "L-Val-OtBu"], "SMILES": "C(C(C(C)C)N)(OC(C)(C)C)=O", "physical_data": {"Molecular Weight": "173.25", "Molecular Formula": "C9H19NO2", "Boiling Point": "77-78 \u00b0C @ Press: 12 Torr"}}