{"cas_no": "1321-74-0", "cn_name": "\u4e8c\u4e59\u70ef\u82ef", "en_name": ["Divinylbenzene", "Benzene, diethenyl-", "Benzene, divinyl-", "Diethenylbenzene", "Divinylbenzene", "Vinylstyrene", "DVB 960", "DVB 96", "DVR 960", "DVB-H", "DVB HP"], "SMILES": "", "physical_data": {"Molecular Weight": "", "Molecular Formula": "C10H10", "Boiling Point": "200 \u00b0C", "Melting Point": "-66.9 \u00b0C", "Density": "0.9 g/cm\u00b3"}}