{"cas_no": "1321-94-4", "cn_name": "\u7532\u57fa\u8418", "en_name": ["Methylnaphthalene", "Naphthalene, methyl-", "Methylnaphthalene", "Tetrosin MNLF", "Dycar MN", "Monomethylnaphthalene", "Sure-Sol 187"], "SMILES": "", "physical_data": {"Molecular Weight": "", "Molecular Formula": "C11H10", "Boiling Point": "240 \u00b0C", "Melting Point": "34 \u00b0C", "Density": "1.02015 g/cm\u00b3 @ Temp: 20 \u00b0C"}}