{"cas_no": "13211-01-3", "cn_name": "4-\u4e01\u9170\u57fa\u8054\u82ef", "en_name": ["1-[1,1\u2032-Biphenyl]-4-yl-1-butanone", "1-Butanone, 1-[1,1\u2032-biphenyl]-4-yl-", "Butyrophenone, 4\u2032-phenyl-", "1-[1,1\u2032-Biphenyl]-4-yl-1-butanone", "p-Phenylbutyrophenone", "4\u2032-Phenylbutyrophenone", "1-p-Biphenylyl-1-butanone", "4-Butyrylbiphenyl", "NSC 24804", "4-Butanoylbiphenyl", "1-(4-Biphenylyl)-1-butanone", "1-(4-Phenylphenyl)butan-1-one"], "SMILES": "C(CCC)(=O)C1=CC=C(C=C1)C2=CC=CC=C2", "physical_data": {"Molecular Weight": "224.30", "Molecular Formula": "C16H16O", "Boiling Point": "187-190 \u00b0C @ Press: 1 Torr", "Melting Point": "94 \u00b0C"}}