{"cas_no": "1321-40-0", "cn_name": "2-\u7f9f\u57fa\u55b9\u5549", "en_name": ["Quinolinol", "Quinolinol", "Quinoline, hydroxy-"], "SMILES": "", "physical_data": {"Molecular Weight": "", "Molecular Formula": "C9H7NO", "Melting Point": "~320 \u00b0C (approx)"}}