{"cas_no": "13214-70-5", "cn_name": "2,3-\u4e8c\u6eb4\u8418", "en_name": ["2,3-Dibromonaphthalene", "Naphthalene, 2,3-dibromo-", "2,3-Dibromonaphthalene"], "SMILES": "BrC1=CC2=C(C=C1Br)C=CC=C2", "physical_data": {"Molecular Weight": "285.96", "Molecular Formula": "C10H6Br2", "Melting Point": "140 \u00b0C"}}