{"cas_no": "132131-24-9", "cn_name": "\u82ef\u7532\u8148,2 -\u6c28\u57fa- 5 -\u7898", "en_name": ["2-Amino-5-iodobenzonitrile", "Benzonitrile, 2-amino-5-iodo-", "2-Amino-5-iodobenzonitrile", "2-Cyano-4-iodoaniline"], "SMILES": "C(#N)C1=C(N)C=CC(I)=C1", "physical_data": {"Molecular Weight": "244.03", "Molecular Formula": "C7H5IN2", "Melting Point": "85-86 \u00b0C"}}