{"cas_no": "132182-92-4", "cn_name": "1,1,1,2,3,4,4,5,5,5-\u5341\u6c1f-3-\u7532\u6c27\u57fa-2-\u4e09\u6c1f\u7532\u57fa\u620a\u70f7", "en_name": ["1,1,1,2,2,3,4,5,5,5-Decafluoro-3-methoxy-4-(trifluoromethyl)pentane", "Pentane, 1,1,1,2,2,3,4,5,5,5-decafluoro-3-methoxy-4-(trifluoromethyl)-", "1,1,1,2,2,3,4,5,5,5-Decafluoro-3-methoxy-4-(trifluoromethyl)pentane", "Novec HFE 7300", "Novec 7300", "HFE 7300", "CT-solv 100E", "Decafluoro-3-methoxy-2-(trifluoromethyl)pentane", "3-Methoxyperfluoro(2-methylpentane)", "D 4484"], "SMILES": "C(C(C(F)(F)F)(C(F)(F)F)F)(C(C(F)(F)F)(F)F)(OC)F", "physical_data": {"Molecular Weight": "350.08", "Molecular Formula": "C7H3F13O", "Boiling Point": "98-100 \u00b0C @ Press: 760 Torr"}}