{"cas_no": "1322-14-1", "cn_name": "\u5341\u4e00\u78b3\u70ef\u9178\u9499", "en_name": ["Calcium undecylenate", "10-Undecenoic acid, calcium salt (2:1)", "10-Undecenoic acid, calcium salt", "Calcium undecylenate", "Cal-Desene"], "SMILES": "C(CCCCC=C)CCCC(O)=O.[Ca]", "physical_data": {"Molecular Weight": "", "Molecular Formula": "C11H20O2.<sup>1</sup>/2Ca", "Melting Point": "146 \u00b0C (decomp)"}}