{"cas_no": "13228-39-2", "cn_name": "1-\u4e59\u57fa-2-\u82ef\u57fa\u5432\u54da", "en_name": ["1-Ethyl-2-phenyl-1H-indole", "1H-Indole, 1-ethyl-2-phenyl-", "Indole, 1-ethyl-2-phenyl-", "1-Ethyl-2-phenyl-1H-indole", "1-Ethyl-2-phenylindole", "N-Ethyl-2-phenylindole"], "SMILES": "C(C)N1C(=CC=2C1=CC=CC2)C3=CC=CC=C3", "physical_data": {"Molecular Weight": "221.30", "Molecular Formula": "C16H15N", "Boiling Point": "207-209 \u00b0C @ Press: 19 Torr", "Melting Point": "84-84.5 \u00b0C"}}