{"cas_no": "13222-26-9", "cn_name": "2-\u6c2f\u5f02\u4e01\u9170\u6c2f", "en_name": ["2-Chloro-2-methylpropanoyl chloride", "Propanoyl chloride, 2-chloro-2-methyl-", "Propionyl chloride, 2-chloro-2-methyl-", "2-Chloro-2-methylpropanoyl chloride", "\u03b1-Chloroisobutyryl chloride", "2-Chloro-2-methylpropionyl chloride", "\u03b1-Chloroisobutyric acid chloride", "2-Chloroisobutyryl chloride"], "SMILES": "C(C(Cl)=O)(C)(C)Cl", "physical_data": {"Molecular Weight": "141.00", "Molecular Formula": "C4H6Cl2O", "Boiling Point": "113-114 \u00b0C @ Press: 760 Torr", "Density": "1.1802 g/cm\u00b3 @ Temp: 25 \u00b0C"}}