{"cas_no": "13224-94-7", "cn_name": "\u7532\u57fa\u8461\u8404\u7cd6", "en_name": ["3-O-Methyl-\u03b1-D-glucopyranose", "\u03b1-D-Glucopyranose, 3-O-methyl-", "Glucopyranose, 3-O-methyl-, \u03b1-D-", "3-O-Methyl-\u03b1-D-glucopyranose", "3-O-Methyl-\u03b1-D-glucose"], "SMILES": "O(C)C1C(O)C(CO)OC(O)C1O", "physical_data": {"Molecular Weight": "194.18", "Molecular Formula": "C7H14O6", "Melting Point": "163-167 \u00b0C"}}