{"cas_no": "13224-99-2", "cn_name": "4,6-\u4e9a\u4e59\u57fa-alpha-D-\u8461\u8404\u7cd6", "en_name": ["4,6-O-Ethylidene-\u03b1-D-glucopyranose", "\u03b1-D-Glucopyranose, 4,6-O-ethylidene-", "Glucopyranose, 4,6-O-ethylidene-, \u03b1-D-", "Pyrano[3,2-d]-1,3-dioxin, \u03b1-D-glucopyranose deriv.", "4,6-O-Ethylidene-\u03b1-D-glucopyranose", "Ethylidene glucose", "4,6-O-Ethylidene \u03b1-D-glucopyranose", "4,6-O-Ethylidene-\u03b1-D-glucose", "NSC 89726"], "SMILES": "OC1C2C(OC(O)C1O)COC(C)O2", "physical_data": {"Molecular Weight": "206.19", "Molecular Formula": "C8H14O6", "Melting Point": "179-182 \u00b0C"}}