{"cas_no": "13223-25-1", "cn_name": "2-\u6c2f-4,6-\u4e8c\u7532\u6c27\u57fa\u5627\u5576", "en_name": ["2-Chloro-4,6-dimethoxypyrimidine", "Pyrimidine, 2-chloro-4,6-dimethoxy-", "2-Chloro-4,6-dimethoxypyrimidine", "4,6-Dimethoxy-2-chloropyrimidine"], "SMILES": "O(C)C=1C=C(OC)N=C(Cl)N1", "physical_data": {"Molecular Weight": "174.59", "Molecular Formula": "C6H7ClN2O2", "Melting Point": "102 \u00b0C"}}