{"cas_no": "13223-43-3", "cn_name": "2-\u6c28\u57fa-5,7-\u4e8c\u7532\u6c27\u57fa-1,2,4-\u4e09\u55ea\u5e76[1,5-a]\u5627\u5576", "en_name": ["5,7-Dimethoxy[1,2,4]triazolo[1,5-a]pyrimidin-2-amine", "[1,2,4]Triazolo[1,5-a]pyrimidin-2-amine, 5,7-dimethoxy-", "s-Triazolo[1,5-a]pyrimidine, 2-amino-5,7-dimethoxy-", "5,7-Dimethoxy[1,2,4]triazolo[1,5-a]pyrimidin-2-amine", "2-Amino-5,7-dimethoxy-1,2,4-triazolo[1,5-a]pyrimidine"], "SMILES": "O(C)C=1N2C(N=C(OC)C1)=NC(N)=N2", "physical_data": {"Molecular Weight": "195.18", "Molecular Formula": "C7H9N5O2", "Melting Point": "275.6-277.5 \u00b0C"}}