{"cas_no": "132201-33-3", "cn_name": "N-\u82ef\u7532\u9170\u57fa-(2R,3S)-3-\u82ef\u57fa\u5f02\u4e1d\u6c28\u9178", "en_name": ["(2R,3S)-N-Benzoyl-3-phenylisoserine", "Benzenepropanoic acid, \u03b2-(benzoylamino)-\u03b1-hydroxy-, (\u03b1R,\u03b2S)-", "Benzenepropanoic acid, \u03b2-(benzoylamino)-\u03b1-hydroxy-, [R-(R*,S*)]-", "(\u03b1R,\u03b2S)-\u03b2-(Benzoylamino)-\u03b1-hydroxybenzenepropanoic acid", "N-Benzoyl-(2R,3S)-3-phenylisoserine", "(2R,3S)-N-Benzoyl-3-phenylisoserine", "(2R,3S)-3-(Benzoylamino)-2-hydroxy-3-phenylpropionic acid"], "SMILES": "C(NC(=O)C1=CC=CC=C1)(C(C(O)=O)O)C2=CC=CC=C2", "physical_data": {"Molecular Weight": "285.29", "Molecular Formula": "C16H15NO4", "Melting Point": "166-168 \u00b0C"}}