{"cas_no": "13220-57-0", "cn_name": "\u8272\u80fa\u916e", "en_name": ["Tryptanthrin", "Indolo[2,1-b]quinazoline-6,12-dione", "Tryptanthrine", "Couroupitine A", "Tryptanthrin", "NSC 349447", "Triptantrin"], "SMILES": "O=C1N2C(C(=O)C=3C2=CC=CC3)=NC=4C1=CC=CC4", "physical_data": {"Molecular Weight": "248.24", "Molecular Formula": "C15H8N2O2", "Melting Point": "258 \u00b0C"}}