{"cas_no": "13220-33-2", "cn_name": "3-\u7f9f\u57fa-1-\u7532\u57fa\u56db\u6c22\u5421\u54af", "en_name": ["1-Methyl-3-pyrrolidinol", "3-Pyrrolidinol, 1-methyl-", "1-Methyl-3-pyrrolidinol", "N-Methyl-3-pyrrolidinol", "3-Hydroxy-1-methylpyrrolidine", "1-Methyl-3-hydroxypyrrolidine", "3-Hydroxy-N-methylpyrrolidine", "N-Methyl-3-hydroxypyrrolidine", "NSC 89279"], "SMILES": "OC1CN(C)CC1", "physical_data": {"Molecular Weight": "101.15", "Molecular Formula": "C5H11NO", "Boiling Point": "77 \u00b0C @ Press: 16 Torr"}}