{"cas_no": "132203-70-4", "cn_name": "\u897f\u5c3c\u5730\u5e73", "en_name": ["Cilnidipine", "3,5-Pyridinedicarboxylic acid, 1,4-dihydro-2,6-dimethyl-4-(3-nitrophenyl)-, 3-(2-methoxyethyl) 5-[(2E)-3-phenyl-2-propen-1-yl] ester", "3,5-Pyridinedicarboxylic acid, 1,4-dihydro-2,6-dimethyl-4-(3-nitrophenyl)-, 2-methoxyethyl 3-phenyl-2-propenyl ester, (E)-(\u00b1)-", "3,5-Pyridinedicarboxylic acid, 1,4-dihydro-2,6-dimethyl-4-(3-nitrophenyl)-, 2-methoxyethyl (2E)-3-phenyl-2-propenyl ester", "(\u00b1)-FRC 8653", "FRC 8653", "Cilnidipine", "Atelec", "Cinalong", "Siscard", "3,5-Pyridinedicarboxylic acid, 1,4-dihydro-2,6-dimethyl-4-(3-nitrophenyl)-, 2-methoxyethyl 3-phenyl-2-propenyl ester, (E)-", "FRG 8653", "Cinaldipine", "Cilacar 10", "C 1493", "Prestw 1376"], "SMILES": "C(OCC=CC1=CC=CC=C1)(=O)C=2C(C(C(OCCOC)=O)=C(C)NC2C)C3=CC(N(=O)=O)=CC=C3", "physical_data": {"Molecular Weight": "492.52", "Molecular Formula": "C27H28N2O7", "Melting Point": "115.5-116.6 \u00b0C"}}