{"cas_no": "132201-32-2", "cn_name": "(2R,3S)-3-\u82ef\u57fa\u5f02\u4e1d\u6c28\u9178\u76d0\u9178\u76d0", "en_name": ["Benzenepropanoic acid, \u03b2-amino-\u03b1-hydroxy-, hydrochloride (1:1), (\u03b1R,\u03b2S)-", "Benzenepropanoic acid, \u03b2-amino-\u03b1-hydroxy-, hydrochloride (1:1), (\u03b1R,\u03b2S)-", "Benzenepropanoic acid, \u03b2-amino-\u03b1-hydroxy-, hydrochloride, [R-(R*,S*)]-", "Benzenepropanoic acid, \u03b2-amino-\u03b1-hydroxy-, hydrochloride, (\u03b1R,\u03b2S)-", "(2R,3S)-3-Phenylisoserine hydrochloride"], "SMILES": "C(C(C(O)=O)O)(N)C1=CC=CC=C1.Cl", "physical_data": {"Molecular Weight": "", "Molecular Formula": "C9H11NO3.ClH", "Melting Point": "222-224 \u00b0C (decomp)"}}