{"cas_no": "13238-84-1", "cn_name": "2,5-\u4e8c\u4e59\u57fa\u5421\u55ea", "en_name": ["2,5-Diethylpyrazine", "Pyrazine, 2,5-diethyl-", "2,5-Diethylpyrazine"], "SMILES": "C(C)C=1C=NC(CC)=CN1", "physical_data": {"Molecular Weight": "136.19", "Molecular Formula": "C8H12N2", "Boiling Point": "187-188 \u00b0C"}}