{"cas_no": "132335-44-5", "cn_name": "S-(-)-N,N-\u4e8c\u7532\u57fa-3-\u7f9f\u57fa-3-(2-\u567b\u5429)\u4e19\u80fa", "en_name": ["(S)-N,N-Dimethyl-3-(2-thienyl)-3-hydroxypropanamine", "2-Thiophenemethanol, \u03b1-[2-(dimethylamino)ethyl]-, (\u03b1S)-", "2-Thiophenemethanol, \u03b1-[2-(dimethylamino)ethyl]-, (S)-", "(\u03b1S)-\u03b1-[2-(Dimethylamino)ethyl]-2-thiophenemethanol", "(S)-(-)-N,N-Dimethyl-3-hydroxy-3-(2-thienyl)propanamine", "(S)-3-(Dimethylamino)-1-(2-thienyl)-1-propanol", "(1S)-3-(Dimethylamino)-1-(2-thienyl)-1-propanol", "(S)-N,N-Dimethyl-3-(2-thienyl)-3-hydroxypropanamine", "(S)-(-)-3-(Dimethylamino)-1-(thiophen-2-yl)propan-1-ol", "(S)-N,N-Dimethyl-3-hydroxy-3-(2-thienyl)-1-propylamine", "(S)-\u03b1-[2-(Dimethylamino)ethyl]-2-thiophenemethanol", "(1S)-3-(Dimethylamino)-1-(thiophen-2-yl)propan-1-ol", "(S)-(-)-N,N-Dimethyl-3-hydroxy-3-(2-thienyl)propylamine", "(1S)-3-(Dimethylamino)-1-thiophen-2-ylpropan-1-ol"], "SMILES": "C(CCN(C)C)(O)C1=CC=CS1", "physical_data": {"Molecular Weight": "185.29", "Molecular Formula": "C9H15NOS", "Melting Point": "78-80 \u00b0C"}}