{"cas_no": "13239-97-9", "cn_name": "2-\u786b\u4ee3\u80de\u82f7", "en_name": ["2-Thiocytidine", "Cytidine, 2-thio-", "2(1H)-Pyrimidinethione, 4-amino-1-\u03b2-D-ribofuranosyl-", "2-Thiocytidine"], "SMILES": "OC1C(OC(CO)C1O)N2C(=S)N=C(N)C=C2", "physical_data": {"Molecular Weight": "259.28", "Molecular Formula": "C9H13N3O4S", "Melting Point": "208-209 \u00b0C"}}