{"cas_no": "1323-83-7", "cn_name": "\u4e8c\u786c\u8102\u9178\u7518\u6cb9\u916f", "en_name": ["Glycerol distearate", "Octadecanoic acid, diester with 1,2,3-propanetriol", "Stearin, di-", "Glyceryl distearate", "Glycerol distearate", "Stearic acid diglyceride", "Distearin", "Diglyceryl stearate", "Distearoylglycerol", "Glycerin distearate", "Stearic diglyceride", "Loxiol VP 1206", "Nikkol DGS 80", "Kessco GDS 386F", "Loxiol P 1200", "Loxiol P 1206", "Estol 374GDST2", "Precirol ATO", "Emalex EGS-C", "Percirol ATO 5"], "SMILES": "", "physical_data": {"Molecular Weight": "", "Molecular Formula": "C39H76O5", "Melting Point": "74.5 \u00b0C"}}