{"cas_no": "13248-54-9", "cn_name": "\u6c2f\u7532\u9178\u73af\u5df1\u916f", "en_name": ["Cyclohexyl carbonochloridate", "Carbonochloridic acid, cyclohexyl ester", "Formic acid, chloro-, cyclohexyl ester", "Cyclohexyl carbonochloridate", "Chloroformic acid cyclohexyl ester", "Cyclohexyl chloroformate", "(Cyclohexyloxy)carbonyl chloride"], "SMILES": "O(C(Cl)=O)C1CCCCC1", "physical_data": {"Molecular Weight": "162.61", "Molecular Formula": "C7H11ClO2", "Boiling Point": "78-83 \u00b0C @ Press: 12 Torr"}}