{"cas_no": "13242-53-0", "cn_name": "2,3,4,6-\u56db-O-\u4e59\u9170\u57fa-1-\u6eb4-\u0391-D-\u7518\u9732\u7cd6", "en_name": ["\u03b1-D-Mannopyranosyl bromide, 2,3,4,6-tetraacetate", "\u03b1-D-Mannopyranosyl bromide, 2,3,4,6-tetraacetate", "Mannopyranosyl bromide, tetraacetate, \u03b1-D-", "\u03b1-D-Mannopyranosyl bromide, tetraacetate", "Mannopyranosyl bromide, tetraacetate", "2,3,4,6-Tetra-O-acetyl-\u03b1-D-mannopyranosyl bromide", "Tetra-O-acetyl-\u03b1-D-mannopyranosyl bromide", "Acetobromomannose", "Tetra-O-acetyl-\u03b1-D-mannosyl bromide", "1-Bromo-2,3,4,6-tetra-O-acetyl-\u03b1-D-mannopyranose"], "SMILES": "O(C(C)=O)C1C(OC(C)=O)C(COC(C)=O)OC(Br)C1OC(C)=O", "physical_data": {"Molecular Weight": "411.20", "Molecular Formula": "C14H19BrO9", "Melting Point": "60-61 \u00b0C"}}