{"cas_no": "13242-44-9", "cn_name": "2-\u4e8c\u7532\u80fa\u57fa\u4e59\u786b\u9187\u76d0\u9178\u76d0", "en_name": ["2-(Dimethylamino)ethanethiol hydrochloride", "Ethanethiol, 2-(dimethylamino)-, hydrochloride (1:1)", "Ethanethiol, 2-(dimethylamino)-, hydrochloride", "Captamine hydrochloride", "2-(Dimethylamino)ethanethiol hydrochloride", "N-(2-Mercaptoethyl)dimethylamine hydrochloride", "N,N-Dimethylcysteamine hydrochloride", "1-(Dimethylamino)-2-mercaptoethane hydrochloride", "(2-Mercaptoethyl)dimethylammonium chloride", "MEDA", "N,N-Dimethyl-2-aminoethanethiol hydrochloride", "2-(N,N-Dimethylamino)ethanethiol hydrochloride", "2-(Dimethylamino)ethyl mercaptan hydrochloride", "Thiofluor", "NSC 45463", "2-(Dimethylamino)ethane-1-thiol hydrochloride"], "SMILES": "C(N(C)C)CS.Cl", "physical_data": {"Molecular Weight": "", "Molecular Formula": "C4H11NS.ClH", "Melting Point": "158-160 \u00b0C"}}