{"cas_no": "13244-33-2", "cn_name": "\u5bf9\u6c28\u57fa\u82ef\u7532\u919a-3-\u78fa\u9178", "en_name": ["2-Amino-5-methoxybenzenesulfonic acid", "Benzenesulfonic acid, 2-amino-5-methoxy-", "2-Amino-5-methoxybenzenesulfonic acid", "4-Aminoanisole-3-sulfonic acid", "4-Methoxy-2-sulfoaniline", "4-Amino-3-sulfoanisole", "1-Amino-4-methoxybenzene-2-sulfonic acid", "4-Methoxyaniline-2-sulfonic acid", "4-Methoxy-1-aminobenzene-2-sulfonic acid", "4-Anisidine-2-sulfonic acid", "6-Amino-3-methoxybenzenesulfonic acid", "2-Amino-5-methoxybenzene-1-sulfonic acid"], "SMILES": "S(=O)(=O)(O)C1=CC(OC)=CC=C1N", "physical_data": {"Molecular Weight": "203.22", "Molecular Formula": "C7H9NO4S", "Melting Point": "&gt;232 \u00b0C (decomp)"}}