{"cas_no": "13244-35-4", "cn_name": "2-\u6c2f-4-\u7532\u57fa\u78fa\u9170\u82ef\u80fa", "en_name": ["2-Chloro-4-(methylsulfonyl)benzenamine", "Benzenamine, 2-chloro-4-(methylsulfonyl)-", "Aniline, 2-chloro-4-(methylsulfonyl)-", "2-Chloro-4-(methylsulfonyl)benzenamine", "3-Chloro-4-aminophenylmethylsulfone", "4-Amino-3-chlorophenyl methyl sulfone", "2-Chloro-4-(methylsulfonyl)aniline", "2-Chloro-4-methanesulfonylaniline"], "SMILES": "S(C)(=O)(=O)C1=CC(Cl)=C(N)C=C1", "physical_data": {"Molecular Weight": "205.66", "Molecular Formula": "C7H8ClNO2S", "Melting Point": "195-196 \u00b0C"}}