{"cas_no": "13241-33-3", "cn_name": "\u65b0\u6a59\u76ae\u82f7", "en_name": ["Neohesperidin", "4H-1-Benzopyran-4-one, 7-[[2-O-(6-deoxy-\u03b1-L-mannopyranosyl)-\u03b2-D-glucopyranosyl]oxy]-2,3-dihydro-5-hydroxy-2-(3-hydroxy-4-methoxyphenyl)-, (2S)-", "Neohesperidin", "4H-1-Benzopyran-4-one, 7-[[2-O-(6-deoxy-\u03b1-L-mannopyranosyl)-\u03b2-D-glucopyranosyl]oxy]-2,3-dihydro-5-hydroxy-2-(3-hydroxy-4-methoxyphenyl)-, (S)-", "Flavanone, 3\u2032,5,7-trihydroxy-4\u2032-methoxy-, 7-(2-O-\u03b1-L-rhamnopyranosyl-\u03b2-D-glucopyranoside)", "(2S)-7-[[2-O-(6-Deoxy-\u03b1-L-mannopyranosyl)-\u03b2-D-glucopyranosyl]oxy]-2,3-dihydro-5-hydroxy-2-(3-hydroxy-4-methoxyphenyl)-4H-1-benzopyran-4-one", "Hesperetin 7-neohesperidoside", "NSC 31048", "(2S)-Neohesperidin", "Hesperetin 7-O-neohesperidoside", "Neohespirin"], "SMILES": "O=C1C=2C(OC(C1)C3=CC(O)=C(OC)C=C3)=CC(OC4C(OC5C(O)C(O)C(O)C(C)O5)C(O)C(O)C(CO)O4)=CC2O", "physical_data": {"Molecular Weight": "610.56", "Molecular Formula": "C28H34O15", "Melting Point": "244 \u00b0C"}}