{"cas_no": "13246-52-1", "cn_name": "2,4-\u4e8c\u6c27\u5df1\u9178\u4e59\u916f", "en_name": ["Ethyl 2,4-dioxohexanoate", "Hexanoic acid, 2,4-dioxo-, ethyl ester", "Ethyl 2,4-dioxohexanoate", "Ethyl propionylpyruvate", "Ethyl \u03b2-propionylpyruvate", "2,4-Dioxohexanoic acid ethyl ester"], "SMILES": "C(C(OCC)=O)(CC(CC)=O)=O", "physical_data": {"Molecular Weight": "172.18", "Molecular Formula": "C8H12O4", "Boiling Point": "128-129 \u00b0C @ Press: 11 Torr"}}