{"cas_no": "13241-28-6", "cn_name": "\u5927\u9ec4\u915a-8-O-\u8461\u8404\u7cd6\u82f7", "en_name": ["Chrysophanol 8-O-\u03b2-D-glucopyranoside", "9,10-Anthracenedione, 8-(\u03b2-D-glucopyranosyloxy)-1-hydroxy-3-methyl-", "Glucopyranoside, 8-hydroxy-6-methyl-1-anthraquinonyl, \u03b2-D-", "Glucopyranoside, 8-hydroxy-6-methyl-1-anthraquinonyl", "Anthraquinone, 8-(\u03b2-D-glucopyranosyloxy)-1-hydroxy-3-methyl-", "8-(\u03b2-D-Glucopyranosyloxy)-1-hydroxy-3-methyl-9,10-anthracenedione", "Chrysophanol-8-mono-\u03b2-D-glucoside", "O-\u03b2-D-Glucopyranosylchrysophanol", "Chrysophanol 8-O-\u03b2-D-glucopyranoside", "Chrysophanol-8-\u03b2-D-glucoside", "Pulmatin", "Chrysophanol 8-O-glucoside"], "SMILES": "O(C1=C2C(C(=O)C=3C(C2=O)=C(O)C=C(C)C3)=CC=C1)C4OC(CO)C(O)C(O)C4O", "physical_data": {"Molecular Weight": "416.38", "Molecular Formula": "C21H20O9", "Melting Point": "110 \u00b0C"}}