{"cas_no": "13242-55-2", "cn_name": "2,3,4-\u4e09-O-\u4e59\u9170-1,6-\u8131\u6c34-\u0392-D-\u8461\u8404\u7cd6", "en_name": ["\u03b2-D-Glucopyranose, 1,6-anhydro-, 2,3,4-triacetate", "\u03b2-D-Glucopyranose, 1,6-anhydro-, 2,3,4-triacetate", "Levoglucosan, triacetate", "\u03b2-D-Glucopyranose, 1,6-anhydro-, triacetate", "6,8-Dioxabicyclo[3.2.1]octane, \u03b2-D-glucopyranose deriv.", "Triacetyllevoglucosan", "2,3,4-Tri-O-acetyl-1,6-anhydro-\u03b2-D-glucopyranose", "1,6-Anhydro-\u03b2-D-glucopyranose triacetate", "1,6-Anhydro-2,3,4-tri-O-acetyl-\u03b2-D-glucopyranose", "NSC 25284"], "SMILES": "O(C(C)=O)C1C(OC(C)=O)C2OC(C1OC(C)=O)OC2", "physical_data": {"Molecular Weight": "288.25", "Molecular Formula": "C12H16O8", "Melting Point": "110 \u00b0C"}}