{"cas_no": "13257-81-3", "cn_name": "4-\uff08\u4e09\u7532\u7845\u70f7\u6c27\u57fa\uff09-3-\u4e94\u4e9a\u4e59\u57fa\u516d\u80fa-2-1", "en_name": ["4-[(Trimethylsilyl)oxy]-3-penten-2-one", "3-Penten-2-one, 4-[(trimethylsilyl)oxy]-", "3-Penten-2-one, 4-(trimethylsiloxy)-", "4-[(Trimethylsilyl)oxy]-3-penten-2-one", "2-(Trimethylsiloxy)pent-2-en-4-one", "4-(Trimethylsiloxy)-3-penten-2-one", "4-(Trimethylsilyloxy)-3-penten-2-one", "4-Trimethylsiloxy-3-pentene-2-one"], "SMILES": "O([Si](C)(C)C)C(=CC(C)=O)C", "physical_data": {"Molecular Weight": "172.30", "Molecular Formula": "C8H16O2Si", "Boiling Point": "63 \u00b0C @ Press: 3 Torr", "Density": "0.912 g/cm\u00b3"}}