{"cas_no": "13252-14-7", "cn_name": "\u5168\u6c1f-2,5-\u4e8c\u7532\u57fa-3,6-\u4e8c\u6c27\u6742\u58ec\u9178", "en_name": ["2,3,3,3-Tetrafluoro-2-[1,1,2,3,3,3-hexafluoro-2-(1,1,2,2,3,3,3-heptafluoropropoxy)propoxy]propanoic acid", "Propanoic acid, 2,3,3,3-tetrafluoro-2-[1,1,2,3,3,3-hexafluoro-2-(1,1,2,2,3,3,3-heptafluoropropoxy)propoxy]-", "Propionic acid, 2,3,3,3-tetrafluoro-2-[1,1,2,3,3,3-hexafluoro-2-(heptafluoropropoxy)propoxy]-", "Propanoic acid, 2,3,3,3-tetrafluoro-2-[1,1,2,3,3,3-hexafluoro-2-(heptafluoropropoxy)propoxy]-", "2,3,3,3-Tetrafluoro-2-[1,1,2,3,3,3-hexafluoro-2-(1,1,2,2,3,3,3-heptafluoropropoxy)propoxy]propanoic acid", "X 70-540-3", "2,3,3,3-Tetrafluoro-2-[1,1,2,3,3,3-hexafluoro-2-(1,1,2,2,3,3,3-heptafluoropropoxy)propoxy]-1-propanoic acid", "Perfluoro-2,5-dimethyl-3,6-dioxa-nonanoic acid"], "SMILES": "C(C(OC(C(F)(F)F)(C(O)=O)F)(F)F)(OC(C(C(F)(F)F)(F)F)(F)F)(C(F)(F)F)F", "physical_data": {"Molecular Weight": "496.07", "Molecular Formula": "C9HF17O4", "Boiling Point": "80 \u00b0C @ Press: 3 mmHg"}}