{"cas_no": "13254-34-7", "cn_name": "2,6-\u4e8c\u7532\u57fa-2-\u5e9a\u9187", "en_name": ["2,6-Dimethyl-2-heptanol", "2-Heptanol, 2,6-dimethyl-", "2,6-Dimethyl-2-heptanol", "Freesiol", "Dimetol", "2,6-Dimethyl-heptane-2-ol"], "SMILES": "C(CCC(C)C)C(C)(C)O", "physical_data": {"Molecular Weight": "144.25", "Molecular Formula": "C9H20O", "Boiling Point": "173 \u00b0C"}}