{"cas_no": "13257-51-7", "cn_name": "\u4e09\u6c1f\u4e59\u9178\u6c5e", "en_name": ["Acetic acid, 2,2,2-trifluoro-, mercury(2+) salt (2:1)", "Acetic acid, 2,2,2-trifluoro-, mercury(2+) salt (2:1)", "Acetic acid, trifluoro-, mercury(2+) salt", "Mercuric trifluoroacetate", "Trifluoroacetic acid mercury(2+) salt", "Bis(trifluoroacetato)mercury", "Mercury(II) trifluoroacetate", "Mercury bis(trifluoroacetate)", "Mercury(2+) trifluoroacetate", "Mercury(II) bis(trifluoroacetate)", "Bis(trifluoroacetoxy)mercury"], "SMILES": "C(C(O)=O)(F)(F)F.[Hg]", "physical_data": {"Molecular Weight": "", "Molecular Formula": "C2HF3O2.<sup>1</sup>/2Hg", "Melting Point": "164-168 \u00b0C"}}