{"cas_no": "13258-63-4", "cn_name": "4-(2-\u6c28\u57fa\u4e59\u57fa)\u5421\u5576", "en_name": ["4-Pyridineethanamine", "4-Pyridineethanamine", "Pyridine, 4-(2-aminoethyl)-", "4-(2-Aminoethyl)pyridine", "4-Pyridylethylamine", "2-(\u03b3-Pyridyl)ethylamine", "2-(4-Pyridyl)ethylamine", "4-(\u03b2-Aminoethyl)pyridine", "2-(4-Pyridyl)ethanamine", "2-(4-Pyridinyl)ethylamine", "NSC 194298", "2-(Pyridin-4-yl)ethanamine", "2-(Pyridine-4-yl)ethanamine", "2-(Pyridin-4-yl)ethan-1-amine"], "SMILES": "C(CN)C=1C=CN=CC1", "physical_data": {"Molecular Weight": "122.17", "Molecular Formula": "C7H10N2", "Boiling Point": "221-223 \u00b0C", "Melting Point": "115-116 \u00b0C"}}