{"cas_no": "13254-07-4", "cn_name": "Z-ILE-PHE-OH", "en_name": ["N-[(Phenylmethoxy)carbonyl]-L-isoleucyl-L-phenylalanine", "L-Phenylalanine, N-[(phenylmethoxy)carbonyl]-L-isoleucyl-", "L-Phenylalanine, N-[N-[(phenylmethoxy)carbonyl]-L-isoleucyl]-", "Alanine, N-(N-carboxy-L-isoleucyl)-3-phenyl-, N-benzyl ester", "N-[(Phenylmethoxy)carbonyl]-L-isoleucyl-L-phenylalanine", "N-Benzyloxycarbonyl-L-isoleucyl-L-phenylalanine", "N-Carbobenzyloxy-L-isoleucyl-L-phenylalanine", "Carbobenzoxy-L-isoleucyl-L-phenylalanine"], "SMILES": "C(C(NC(CC1=CC=CC=C1)C(O)=O)=O)(NC(OCC2=CC=CC=C2)=O)C(CC)C", "physical_data": {"Molecular Weight": "412.48", "Molecular Formula": "C23H28N2O5", "Melting Point": "166-167 \u00b0C"}}