{"cas_no": "13253-44-6", "cn_name": "5-[2-(\u7532\u786b\u57fa)\u4e59\u57fa]\u6d77\u56e0", "en_name": ["5-[2-(Methylthio)ethyl]-2,4-imidazolidinedione", "2,4-Imidazolidinedione, 5-[2-(methylthio)ethyl]-", "Hydantoin, 5-[2-(methylthio)ethyl]-", "5-[2-(Methylthio)ethyl]-2,4-imidazolidinedione", "5-[2-(Methylthio)ethyl]hydantoin", "5-[\u03b2-(Methylthio)ethyl]hydantoin", "5-(\u03b2-Methylmercaptoethyl)hydantoin", "Methionine hydantoin", "DL-5-[2-(Methylthio)ethyl]hydantoin", "DL-5-(\u03b2-Methylmercaptoethyl)hydantoin", "(\u00b1)-5-[2-(Methylthio)ethyl]hydantoin", "5-[2-(Methylthio)ethyl]imidazolidine-2,4-dione", "5-[2-(Methylmercapto)ethyl]hydantoin"], "SMILES": "C(CSC)C1NC(=O)NC1=O", "physical_data": {"Molecular Weight": "174.22", "Molecular Formula": "C6H10N2O2S", "Melting Point": "117-118 \u00b0C"}}