{"cas_no": "132539-06-1", "cn_name": "\u5965\u6c2e\u5e73", "en_name": ["Olanzapine", "10H-Thieno[2,3-b][1,5]benzodiazepine, 2-methyl-4-(4-methyl-1-piperazinyl)-", "2-Methyl-4-(4-methyl-1-piperazinyl)-10H-thieno[2,3-b][1,5]benzodiazepine", "Olanzapine", "LY 170053", "Zyprexa", "Lanzac", "Oleanz", "Oltal", "Oliza", "Integrol", "Olenz", "Olimelt", "Olanz", "Zyprexa-Velotab", "Oferta", "Zolafren Flas", "Arenbil", "Zolafren", "ADAMED", "Zyprobiox", "Rexapin", "Prexal", "2-Methyl-10-(4-methyl-piperazin-1-yl)-4H-3-thia-4,9-diaza-benzo[f]azulene", "Olazax Disperzi", "Olazax", "Olansek", "Zalasta"], "SMILES": "CC1=CC=2C(=NC=3C(NC2S1)=CC=CC3)N4CCN(C)CC4", "physical_data": {"Molecular Weight": "312.43", "Molecular Formula": "C17H20N4S", "Melting Point": "195 \u00b0C"}}