{"cas_no": "13254-33-6", "cn_name": "\u5361\u666e\u6c2f\u94f5", "en_name": ["Carpronium chloride", "1-Butanaminium, 4-methoxy-N,N,N-trimethyl-4-oxo-, chloride (1:1)", "Ammonium, (3-carboxypropyl)trimethyl-, chloride, methyl ester", "1-Butanaminium, 4-methoxy-N,N,N-trimethyl-4-oxo-, chloride", "(3-Carboxypropyl)trimethylammonium chloride, methyl ester", "Methyl N-trimethyl-\u03b3-aminobutyrate chloride", "Methyl trimethyl-\u03b3-aminobutyrate chloride", "Carpronium chloride", "3-Carboxy-N,N,N-trimethyl-1-propanaminium chloride methyl ester", "\u03b3-Butyrobetaine chloride methyl ester", "Actinamin", "Furozin", "Actinomin"], "SMILES": "C(CC[N+](C)(C)C)C(OC)=O.[Cl-]", "physical_data": {"Molecular Weight": "", "Molecular Formula": "C8H18NO2.Cl", "Melting Point": "126 \u00b0C"}}