{"cas_no": "13269-19-7", "cn_name": "3-\u6c28\u57fa-2-\u785d\u57fa\u5421\u5576", "en_name": ["2-Nitro-3-pyridinamine", "3-Pyridinamine, 2-nitro-", "Pyridine, 3-amino-2-nitro-", "2-Nitro-3-pyridinamine", "3-Amino-2-nitropyridine", "2-Nitro-3-aminopyridine", "2-Nitropyridin-3-amine", "(2-Nitropyridin-3-yl)amine"], "SMILES": "N(=O)(=O)C1=C(N)C=CC=N1", "physical_data": {"Molecular Weight": "139.11", "Molecular Formula": "C5H5N3O2", "Melting Point": "180-184 \u00b0C"}}