{"cas_no": "132606-40-7", "cn_name": "5-\u6eb4-2-\u6c2f-6-\u7532\u57fa\u5421\u5576", "en_name": ["3-Bromo-6-chloro-2-methylpyridine", "Pyridine, 3-bromo-6-chloro-2-methyl-", "3-Bromo-6-chloro-2-methylpyridine", "5-Bromo-2-chloro-6-methylpyridine", "2-Chloro-6-methyl-5-bromopyridine"], "SMILES": "CC1=C(Br)C=CC(Cl)=N1", "physical_data": {"Molecular Weight": "206.47", "Molecular Formula": "C6H5BrClN", "Melting Point": "46-47 \u00b0C"}}