{"cas_no": "132622-69-6", "cn_name": "(2S,4R)-4-\u6c28\u57fa\u5421\u54af\u70f7-1,2-\u4e8c\u7532\u9178 1-\u53d4\u4e01\u916f", "en_name": ["1-(1,1-Dimethylethyl) (2S,4R)-4-amino-1,2-pyrrolidinedicarboxylate", "1,2-Pyrrolidinedicarboxylic acid, 4-amino-, 1-(1,1-dimethylethyl) ester, (2S,4R)-", "1,2-Pyrrolidinedicarboxylic acid, 4-amino-, 1-(1,1-dimethylethyl) ester, (2S-trans)-", "1-(1,1-Dimethylethyl) (2S,4R)-4-amino-1,2-pyrrolidinedicarboxylate"], "SMILES": "C(OC(C)(C)C)(=O)N1C(C(O)=O)CC(N)C1", "physical_data": {"Molecular Weight": "230.26", "Molecular Formula": "C10H18N2O4", "Melting Point": "228-229 \u00b0C"}}