{"cas_no": "132628-16-1", "cn_name": "N2-\u82ef\u4e59\u9170\u9e1f\u560c\u5464\u6838\u82f7", "en_name": ["N-(2-Phenylacetyl)guanosine", "Guanosine, N-(2-phenylacetyl)-", "Guanosine, N-(phenylacetyl)-", "N-(2-Phenylacetyl)guanosine"], "SMILES": "O=C1C2=C(N(C=N2)C3OC(CO)C(O)C3O)NC(NC(CC4=CC=CC=C4)=O)=N1", "physical_data": {"Molecular Weight": "401.37", "Molecular Formula": "C18H19N5O6", "Melting Point": "189 \u00b0C"}}