{"cas_no": "13265-84-4", "cn_name": "D-\u8461\u8404\u70ef\u7cd6", "en_name": ["D-(+)-Glucal", "D-arabino-Hex-1-enitol, 1,5-anhydro-2-deoxy-", "D-arabino-Hex-1-enopyranose, 1,2-dideoxy-", "Glucal", "1,5-Anhydro-2-deoxy-D-arabino-hex-1-enitol", "D-Glucal", "D-(+)-Glucal"], "SMILES": "C(O)C1C(O)C(O)C=CO1", "physical_data": {"Molecular Weight": "146.14", "Molecular Formula": "C6H10O4", "Melting Point": "58 \u00b0C"}}