{"cas_no": "132605-96-0", "cn_name": "BOC-(R)-2-(AMINOMETHYL)-4-METHYLPENTANOIC ACID", "en_name": ["(2R)-2-[[[(1,1-Dimethylethoxy)carbonyl]amino]methyl]-4-methylpentanoic acid", "Pentanoic acid, 2-[[[(1,1-dimethylethoxy)carbonyl]amino]methyl]-4-methyl-, (2R)-", "Pentanoic acid, 2-[[[(1,1-dimethylethoxy)carbonyl]amino]methyl]-4-methyl-, (R)-", "(2R)-2-[[[(1,1-Dimethylethoxy)carbonyl]amino]methyl]-4-methylpentanoic acid", "(2R)-2-([[(tert-Butoxy)carbonyl]amino]methyl)-4-methylpentanoic acid"], "SMILES": "C(CNC(OC(C)(C)C)=O)(CC(C)C)C(O)=O", "physical_data": {"Molecular Weight": "245.32", "Molecular Formula": "C12H23NO4", "Melting Point": "74 \u00b0C"}}