{"cas_no": "13269-52-8", "cn_name": "\u53cd-3-\u5df2\u70ef", "en_name": ["trans-3-Hexene", "3-Hexene, (3E)-", "3-Hexene, (E)-", "(3E)-3-Hexene", "trans-3-Hexene", "(E)-3-Hexene", "NSC 74125"], "SMILES": "C(=CCC)CC", "physical_data": {"Molecular Weight": "84.16", "Molecular Formula": "C6H12", "Boiling Point": "67.1 \u00b0C", "Melting Point": "-115.4 \u00b0C", "Density": "0.67306 g/cm\u00b3 @ Temp: 25 \u00b0C"}}