{"cas_no": "13264-92-1", "cn_name": "2-\u785d\u57fa\u82ef\u57fa-N-\u4e59\u9170\u57fa-BETA-D-\u6c28\u57fa\u8461\u8404\u7cd6\u82f7", "en_name": ["2-Nitrophenyl 2-(acetylamino)-2-deoxy-\u03b2-D-glucopyranoside", "\u03b2-D-Glucopyranoside, 2-nitrophenyl 2-(acetylamino)-2-deoxy-", "Glucopyranoside, o-nitrophenyl 2-acetamido-2-deoxy-, \u03b2-D-", "\u03b2-D-Glucoside, o-nitrophenyl 2-acetamido-2-deoxy-", "2-Nitrophenyl 2-(acetylamino)-2-deoxy-\u03b2-D-glucopyranoside"], "SMILES": "O(C1C(NC(C)=O)C(O)C(O)C(CO)O1)C2=C(N(=O)=O)C=CC=C2", "physical_data": {"Molecular Weight": "342.30", "Molecular Formula": "C14H18N2O8", "Melting Point": "176-177 \u00b0C"}}