{"cas_no": "13278-36-9", "cn_name": "\u6c2f\u706d\u9178", "en_name": ["2-[(3-Chlorophenyl)amino]benzoic acid", "Benzoic acid, 2-[(3-chlorophenyl)amino]-", "Anthranilic acid, N-(m-chlorophenyl)-", "2-[(3-Chlorophenyl)amino]benzoic acid", "N-(3-Chlorophenyl)-anthranilic acid", "N-(m-Chlorophenyl)anthranilic acid", "NSC 49135", "2-(3-Chloroanilino)benzoic acid"], "SMILES": "N(C1=C(C(O)=O)C=CC=C1)C2=CC(Cl)=CC=C2", "physical_data": {"Molecular Weight": "247.68", "Molecular Formula": "C13H10ClNO2", "Melting Point": "167-168 \u00b0C"}}