{"cas_no": "13276-08-9", "cn_name": "N-\u5341\u516b\u70f7\u57fa\u5341\u516b\u9170\u80fa", "en_name": ["N-Octadecyloctadecanamide", "Octadecanamide, N-octadecyl-", "N-Octadecyloctadecanamide", "N-Stearylstearamide", "Stearylstearamide", "N-Octadecylstearamide", "Kemamide S 180", "N-Stearylstearic acid amide", "Nikkamide S", "Nikka Amide S", "Alflow 80", "S 180", "S 180 (amide)"], "SMILES": "N(C(CCCCCCCCCCCCCCCCC)=O)CCCCCCCCCCCCCCCCCC", "physical_data": {"Molecular Weight": "535.97", "Molecular Formula": "C36H73NO", "Melting Point": "95-96 \u00b0C"}}