{"cas_no": "132765-36-7", "cn_name": "2,3,6,7-\u56db(2-\u6c30\u4e59\u57fa\u786b\u4ee3)\u56db\u786b\u5bcc\u74e6\u70ef", "en_name": ["3,3\u2032-[[2-[4,5-Bis[(2-cyanoethyl)thio]-1,3-dithiol-2-ylidene]-1,3-dithiole-4,5-diyl]bis(thio)]bis[propanenitrile]", "Propanenitrile, 3,3\u2032-[[2-[4,5-bis[(2-cyanoethyl)thio]-1,3-dithiol-2-ylidene]-1,3-dithiole-4,5-diyl]bis(thio)]bis-", "1,3-Dithiole, propanenitrile deriv.", "3,3\u2032-[[2-[4,5-Bis[(2-cyanoethyl)thio]-1,3-dithiol-2-ylidene]-1,3-dithiole-4,5-diyl]bis(thio)]bis[propanenitrile]", "2,3,6,7-Tetra(cyanoethylsulfanyl)tetrathiafulvalene", "TCE-TTF"], "SMILES": "S(CCC#N)C=1SC(SC1SCCC#N)=C2SC(SCCC#N)=C(SCCC#N)S2", "physical_data": {"Molecular Weight": "544.87", "Molecular Formula": "C18H16N4S8", "Melting Point": "186 \u00b0C"}}