{"cas_no": "1327-53-3", "cn_name": "\u4e09\u6c27\u5316\u4e8c\u7837", "en_name": ["Arsenic trioxide", "Arsenic oxide (As2O3)", "Arsenic sesquioxide", "Arsenic trioxide", "Arsenous oxide", "White arsenic", "Arsenous anhydride", "Arsodent", "Diarsenic trioxide", "Arsenious oxide", "Arsenicum album", "Arsenic sesquioxide (As2O3)", "Arsenic oxide (AsO1.5)", "Arsenious trioxide", "Trisenox", "Arsenic(III) trioxide", "Trisonex"], "SMILES": "", "physical_data": {"Molecular Weight": "", "Molecular Formula": "As2O3", "Boiling Point": "460 \u00b0C", "Melting Point": "275-313 \u00b0C", "Density": "3.7-4.2 g/cm\u00b3"}}