{"cas_no": "1327-50-0", "cn_name": "\u78b2\u5316\u9511", "en_name": ["Antimony telluride (Sb2Te3)", "Antimony telluride (Sb2Te3)", "Antimony tritelluride", "Antimony sesquitelluride", "Diantimony tritelluride", "Antimony(3+) telluride", "Antimony telluride", "Antimony 95-100, tellurium 0-5 (atomic)"], "SMILES": "[Sb].[Te]", "physical_data": {"Molecular Weight": "", "Molecular Formula": "Sb.Te", "Boiling Point": "1173.8 \u00b0C", "Melting Point": "600 \u00b0C", "Density": "6.09 g/cm\u00b3"}}