{"cas_no": "1327-36-2", "cn_name": "\u94dd\u7845\u9178\u76d0", "en_name": ["Aluminatesilicate", "Aluminatesilicate", "Aluminosilicate", "ASP 500", "Maarlite EA 20", "Maarlite BA 20", "Taisetsu Balloon C", "Taisetsu Balloon A", "Taisetsu Balloon B", "Kyowaad 700PH", "Siralox 70/170HPV", "MGH 005", "MG 005 (silicate)", "MG 005"], "SMILES": "", "physical_data": {"Molecular Weight": "", "Molecular Formula": "Unspecified", "Melting Point": "1480 \u00b0C"}}