{"cas_no": "13275-42-8", "cn_name": "2-(2-\u6eb4\u82ef\u57fa)\u82ef\u5e76\u54aa\u5511", "en_name": ["2-(2-Bromophenyl)-1H-benzimidazole", "1H-Benzimidazole, 2-(2-bromophenyl)-", "Benzimidazole, 2-(o-bromophenyl)-", "2-(2-Bromophenyl)-1H-benzimidazole", "2-(2-Bromophenyl)benzimidazole", "G 641", "G 641 (biocide)", "NSC 128738", "2-(2-Bromophenyl)-1H-benzo[d]imidazole", "2-(2-Bromophenyl)-1H-1,3-benzodiazole"], "SMILES": "BrC1=C(C=2NC=3C(N2)=CC=CC3)C=CC=C1", "physical_data": {"Molecular Weight": "273.13", "Molecular Formula": "C13H9BrN2", "Melting Point": "246 \u00b0C"}}