{"cas_no": "13283-01-7", "cn_name": "\u516d\u6c2f\u5316\u94a8", "en_name": ["Tungsten hexachloride", "Tungsten chloride (WCl6), (OC-6-11)-", "Tungsten chloride (WCl6)", "Tungsten hexachloride", "Hexachlorotungsten", "Wolfram hexachloride", "Hexachlorotungsten (Cl6W)", "Tungsten(VI) chloride", "Tungsten chloride"], "SMILES": "[W](Cl)(Cl)(Cl)(Cl)(Cl)Cl", "physical_data": {"Molecular Weight": "", "Molecular Formula": "Cl6W", "Boiling Point": "336.5 \u00b0C", "Melting Point": "283 \u00b0C"}}