{"cas_no": "13288-70-5", "cn_name": "\u96d9(3,5-\u4e8c\u7532-4-\u7fa5\u82ef)\u78b8", "en_name": ["4,4\u2032-Sulfonylbis[2,6-dimethylphenol]", "Phenol, 4,4\u2032-sulfonylbis[2,6-dimethyl-", "2,6-Xylenol, 4,4\u2032-sulfonyldi-", "4,4\u2032-Sulfonylbis[2,6-dimethylphenol]", "Bis(3,5-dimethyl-4-hydroxyphenyl) sulfone", "4,4\u2032-Dihydroxy-3,3\u2032,5,5\u2032-tetramethylphenyl sulfone", "2,2\u2032,6,6\u2032-Tetramethyl-4,4\u2032-sulfonyldiphenol", "Bis(4-hydroxy-3,5-dimethylphenyl) sulfone", "BS-TM", "4,4\u2032-Dihydroxy-3,3\u2032,5,5\u2032-tetramethyldiphenyl sulfone", "TX 0902"], "SMILES": "S(=O)(=O)(C1=CC(C)=C(O)C(C)=C1)C2=CC(C)=C(O)C(C)=C2", "physical_data": {"Molecular Weight": "306.38", "Molecular Formula": "C16H18O4S", "Melting Point": "303-306 \u00b0C"}}