{"cas_no": "13287-42-8", "cn_name": "4-\u6eb4-1,2-\u73af\u6c27\u4e01\u70f7", "en_name": ["2-(2-Bromoethyl)oxirane", "Oxirane, 2-(2-bromoethyl)-", "Butane, 4-bromo-1,2-epoxy-", "Oxirane, (2-bromoethyl)-", "2-(2-Bromoethyl)oxirane", "4-Bromo-1,2-epoxybutane", "1,2-Epoxy-4-bromobutane", "(2-Bromoethyl)oxirane", "NSC 295369", "1-Bromo-3,4-epoxybutane", "4-Bromo-1,2-butylene oxide"], "SMILES": "C(CBr)C1CO1", "physical_data": {"Molecular Weight": "151.00", "Molecular Formula": "C4H7BrO", "Boiling Point": "65 \u00b0C @ Press: 240 mmHg"}}