{"cas_no": "13280-07-4", "cn_name": "4-\u6c2f-2-\u4e01-1-\u9187", "en_name": ["4-Chloro-2-butyn-1-ol", "2-Butyn-1-ol, 4-chloro-", "4-Chloro-2-butyn-1-ol", "4-Chloro-2-butynol", "1-Chloro-2-butyn-4-ol", "4-Chloro-2-butyne-1-ol", "1-Chloro-4-hydroxy-2-butyne"], "SMILES": "C(#CCO)CCl", "physical_data": {"Molecular Weight": "104.53", "Molecular Formula": "C4H5ClO", "Boiling Point": "87-88 \u00b0C @ Press: 12 Torr", "Density": "1.2049 g/cm\u00b3 @ Temp: 25 \u00b0C"}}