{"cas_no": "13280-61-0", "cn_name": "\u53cc(MSB)", "en_name": ["Bis-MSB", "Benzene, 1,4-bis[2-(2-methylphenyl)ethenyl]-", "Benzene, p-bis(o-methylstyryl)-", "1,4-Bis[2-(2-methylphenyl)ethenyl]benzene", "p-Bis(o-methylstyryl)benzene", "Bis-MSB", "1,4-Bis(2-methylstyryl)benzene", "1,4-Bis(o-methylstyryl)benzene", "p-Bis(2-methylstyryl)benzene", "DST", "DST (hole transport material)"], "SMILES": "C(=CC1=CC=C(C=CC2=C(C)C=CC=C2)C=C1)C3=C(C)C=CC=C3", "physical_data": {"Molecular Weight": "310.43", "Molecular Formula": "C24H22", "Melting Point": "178-179 \u00b0C"}}