{"cas_no": "1328893-17-9", "cn_name": "5-\u6eb4-1H-\u5421\u5511-3-\u7532\u9178\u7532\u916f", "en_name": ["1H-Pyrazole-3-carboxylic acid, 5-bromo-, methyl ester", "1H-Pyrazole-3-carboxylic acid, 5-bromo-, methyl ester", "Methyl 5-bromo-1H-pyrazole-3-carboxylate", "5-Bromo-1H-pyrazole-3-carboxylic acid methyl ester"], "SMILES": "C(OC)(=O)C=1C=C(Br)NN1", "physical_data": {"Molecular Weight": "205.01", "Molecular Formula": "C5H5BrN2O2", "Melting Point": "94-96 \u00b0C"}}