{"cas_no": "132871-11-5", "cn_name": "(R)-1-\u82c4\u57fa-3-\u7532\u57fa\u54cc\u55ea", "en_name": ["(3R)-3-Methyl-1-(phenylmethyl)piperazine", "Piperazine, 3-methyl-1-(phenylmethyl)-, (3R)-", "Piperazine, 3-methyl-1-(phenylmethyl)-, (R)-", "(3R)-3-Methyl-1-(phenylmethyl)piperazine", "(R)-1-Benzyl-3-methylpiperazine", "1-Benzyl-3(R)-methylpiperazine", "(3R)-1-Benzyl-3-methylpiperazine", "(3R)-1-Benzyl-3-methylpiperazine", "1-Benzyl-3(R)-methyl-piperazine"], "SMILES": "C(N1CC(C)NCC1)C2=CC=CC=C2", "physical_data": {"Molecular Weight": "190.28", "Molecular Formula": "C12H18N2", "Melting Point": "30-32 \u00b0C"}}