{"cas_no": "13286-32-3", "cn_name": "S-\u82c4\u57fa-O,O-\u4e8c\u4e59\u57fa\u786b\u4ee3\u78f7\u9178\u916f", "en_name": ["Kitazin", "Phosphorothioic acid, O,O-diethyl S-(phenylmethyl) ester", "Phosphorothioic acid, S-benzyl O,O-diethyl ester", "Benzyl ethyl phosphorothioate ((PhCH2S)(EtO)2PO)", "O,O-Diethyl S-benzyl thiophosphate", "Kitazin", "S-Benzyl O,O-diethyl phosphorothioate", "O,O-Diethyl S-benzyl phosphorothioate", "Ricide", "Ricid", "EBP", "NSC 49723", "EBP (insecticide)", "Isoprobenphos", "Kitazin 48EC"], "SMILES": "P(SCC1=CC=CC=C1)(OCC)(OCC)=O", "physical_data": {"Molecular Weight": "260.29", "Molecular Formula": "C11H17O3PS", "Boiling Point": "165-170 \u00b0C @ Press: 2 Torr", "Density": "1.1589 g/cm\u00b3 @ Temp: 20 \u00b0C"}}