{"cas_no": "13287-76-8", "cn_name": "2-\u7f9f\u57fa\u4e59\u57fa 4-\u785d\u57fa\u82ef\u57fa\u786b\u919a", "en_name": ["2-[(4-Nitrophenyl)thio]ethanol", "Ethanol, 2-[(4-nitrophenyl)thio]-", "Ethanol, 2-[(p-nitrophenyl)thio]-", "2-[(4-Nitrophenyl)thio]ethanol", "2-Hydroxyethyl p-nitrophenyl sulfide", "2-[(p-Nitrophenyl)thio]ethanol", "4-Nitrophenyl 2-hydroxyethyl sulfide", "2-Hydroxyethyl 4-nitrophenyl sulfide", "2-(4-Nitrophenylthio)ethanol", "2-[(4-Nitrophenyl)sulfanyl]ethan-1-ol", "2-(4-Nitrophenyl)sulfanylethanol", "2-[(4-Nitrophenyl)sulfanyl]ethanol"], "SMILES": "N(=O)(=O)C1=CC=C(SCCO)C=C1", "physical_data": {"Molecular Weight": "199.23", "Molecular Formula": "C8H9NO3S", "Melting Point": "60-61 \u00b0C"}}