{"cas_no": "13287-49-5", "cn_name": "4-\u785d\u57fa\u786b\u6c30\u9178\u82c4\u916f", "en_name": ["(4-Nitrophenyl)methyl thiocyanate", "Thiocyanic acid, (4-nitrophenyl)methyl ester", "Thiocyanic acid, p-nitrobenzyl ester", "Toluene, p-nitro-\u03b1-thiocyanato-", "(4-Nitrophenyl)methyl thiocyanate", "4-Nitrobenzyl thiocyanate", "p-Nitrobenzyl thiocyanate", "NSC 56364", "1-Nitro-4-(thiocyanatomethyl)benzene"], "SMILES": "N(=O)(=O)C1=CC=C(CSC#N)C=C1", "physical_data": {"Molecular Weight": "194.21", "Molecular Formula": "C8H6N2O2S", "Melting Point": "85-86 \u00b0C"}}