{"cas_no": "13284-42-9", "cn_name": "2-\u620a\u70ef\u8148", "en_name": ["2-Pentenenitrile", "2-Pentenenitrile", "1-Cyano-1-butene"], "SMILES": "C(=CC#N)CC", "physical_data": {"Molecular Weight": "81.12", "Molecular Formula": "C5H7N", "Boiling Point": "67-74 \u00b0C @ Press: 100 Torr"}}