{"cas_no": "13289-18-4", "cn_name": "\u849c\u8606\u9ece\u7d20", "en_name": ["Hellebrin", "Bufa-20,22-dienolide, 3-[(6-deoxy-4-O-\u03b2-D-glucopyranosyl-\u03b1-L-mannopyranosyl)oxy]-5,14-dihydroxy-19-oxo-, (3\u03b2,5\u03b2)-", "Hellebrin", "(3\u03b2,5\u03b2)-3-[(6-Deoxy-4-O-\u03b2-D-glucopyranosyl-\u03b1-L-mannopyranosyl)oxy]-5,14-dihydroxy-19-oxobufa-20,22-dienolide", "Corelborin", "Corelborin \u03c0", "Korelborin", "Korelborin P", "NSC 93134"], "SMILES": "C(=O)C12C3C(C4(O)C(C)(CC3)C(CC4)C=5C=CC(=O)OC5)CCC1(O)CC(OC6C(O)C(O)C(OC7OC(CO)C(O)C(O)C7O)C(C)O6)CC2", "physical_data": {"Molecular Weight": "724.79", "Molecular Formula": "C36H52O15", "Melting Point": "283.5 \u00b0C"}}