{"cas_no": "13296-94-1", "cn_name": "2-\u6eb4-4-\u785d\u57fa\u82ef\u80fa", "en_name": ["2-Bromo-4-nitrobenzenamine", "Benzenamine, 2-bromo-4-nitro-", "Aniline, 2-bromo-4-nitro-", "2-Bromo-4-nitrobenzenamine", "2-Bromo-4-nitroaniline", "1-Amino-2-bromo-4-nitrobenzene", "2-Amino-5-nitrophenyl bromide", "NSC 28330", "4-Nitro-2-bromoaniline", "2-Bromo-4-nitro-phenylamine"], "SMILES": "N(=O)(=O)C1=CC(Br)=C(N)C=C1", "physical_data": {"Molecular Weight": "217.02", "Molecular Formula": "C6H5BrN2O2", "Melting Point": "104.5 \u00b0C"}}