{"cas_no": "13293-59-9", "cn_name": "3-\u7532\u57fa-1-\u73af\u5df1\u70f7\u7532\u9178", "en_name": ["3-Methylcyclohexanecarboxylic acid", "Cyclohexanecarboxylic acid, 3-methyl-", "3-Methylcyclohexanecarboxylic acid", "3-Methyl-1-cyclohexanecarboxylic acid"], "SMILES": "C(O)(=O)C1CC(C)CCC1", "physical_data": {"Molecular Weight": "142.20", "Molecular Formula": "C8H14O2", "Boiling Point": "128-130 \u00b0C @ Press: 11 Torr", "Melting Point": "114 \u00b0C", "Density": "1.0557 g/cm\u00b3 @ Temp: 25 \u00b0C"}}