{"cas_no": "13294-71-8", "cn_name": "2-\u6eb4-2-\u4e01\u70ef", "en_name": ["2-Bromo-2-butene", "2-Butene, 2-bromo-", "2-Bromo-2-butene"], "SMILES": "C(=CC)(Br)C", "physical_data": {"Molecular Weight": "135.00", "Molecular Formula": "C4H7Br", "Boiling Point": "95 \u00b0C", "Melting Point": "-114.65 \u00b0C", "Density": "1.320 g/cm\u00b3 @ Temp: 23 \u00b0C"}}