{"cas_no": "13297-17-1", "cn_name": "2-\u4e59\u9170\u57fa-3-\u7532\u57fa\u55b9\u5594\u5549-1,4-\u4e8c\u6c27\u5316\u7269", "en_name": ["Mequindox", "Ethanone, 1-(3-methyl-1,4-dioxido-2-quinoxalinyl)-", "Ketone, methyl 3-methyl-2-quinoxalinyl, N,N\u2032-dioxide", "Ethanone, 1-(3-methyl-2-quinoxalinyl)-, N,N\u2032-dioxide", "1-(3-Methyl-1,4-dioxido-2-quinoxalinyl)ethanone", "2-Acetyl-3-methylquinoxaline 1,4-di-N-oxide", "2-Acetyl-3-methylquinoxaline 1,4-dioxide", "2-Methyl-3-acetylquinoxaline 1,4-dioxide", "Maqo", "Maquindox", "Mequindox", "3-Acetyl-2-methylquinoxaline-1,4-diium-1,4-bis(olate)"], "SMILES": "O=N=1C2=C(N(=O)=C(C)C1C(C)=O)C=CC=C2", "physical_data": {"Molecular Weight": "218.21", "Molecular Formula": "C11H10N2O3", "Melting Point": "153-154 \u00b0C"}}