{"cas_no": "13290-74-9", "cn_name": "2-\u6c2f-5-\u785d\u57fa\u7532\u82ef", "en_name": ["1-Chloro-2-methyl-4-nitrobenzene", "Benzene, 1-chloro-2-methyl-4-nitro-", "Toluene, 2-chloro-5-nitro-", "1-Chloro-2-methyl-4-nitrobenzene", "4-Chloro-3-methylnitrobenzene", "2-Chloro-5-nitrotoluene", "2-Methyl-4-nitrochlorobenzene", "6-Chloro-3-nitrotoluene", "2-Methyl-4-nitro-1-chlorobenzene", "1-Chloro-4-nitro-2-methylbenzene"], "SMILES": "N(=O)(=O)C1=CC(C)=C(Cl)C=C1", "physical_data": {"Molecular Weight": "171.58", "Molecular Formula": "C7H6ClNO2", "Boiling Point": "249 \u00b0C", "Melting Point": "42.5 \u00b0C"}}