{"cas_no": "13292-22-3", "cn_name": "3\u7532\u9170\u5229\u798f\u5e73\u9709\u7d20", "en_name": ["3-Formylrifamycin", "Rifamycin, 3-formyl-", "2,7-(Epoxypentadeca[1,11,13]trienimino)naphtho[2,1-b]furan-8-carboxaldehyde, 1,2-dihydro-5,6,9,17,19,21-hexahydroxy-23-methoxy-2,4,12,16,18,20,22-heptamethyl-1,11-dioxo-, 21-acetate", "2,7-(Epoxypentadeca[1,11,13]trienimino)naphtho[2,1-b]furan, rifamycin deriv.", "3-Formylrifamycin", "3-Formylrifamycin SV", "3-Formylrifampicin SV", "Rifaldehyde", "NCI 145-635", "Rifamycin AF"], "SMILES": "O=C1C=2C=3C4=C(O)C(=C(C=O)C3O)NC(=O)C(C)=CC=CC(C)C(O)C(C)C(O)C(C)C(OC(C)=O)C(C)C(OC)C=COC1(C)OC2C(C)=C4O", "physical_data": {"Molecular Weight": "725.78", "Molecular Formula": "C38H47NO13", "Melting Point": "180-185 \u00b0C (decomp)"}}