{"cas_no": "13291-18-4", "cn_name": "\u5f02\u4e19\u70ef\u57fa\u6eb4\u5316\u9541", "en_name": ["Magnesium, bromo(1-methylethenyl)-", "Magnesium, bromo(1-methylethenyl)-", "Magnesium, bromoisopropenyl-", "Isopropenylmagnesium bromide", "\u03b1-Methylvinylmagnesium bromide", "1-Methylvinylmagnesium bromide", "1-Propen-2-ylmagnesium bromide", "Bromo(isopropenyl)magnesium"], "SMILES": "C([Mg]Br)(C)=C", "physical_data": {"Molecular Weight": "", "Molecular Formula": "C3H5BrMg", "Melting Point": "102-104 \u00b0C"}}