{"cas_no": "13290-96-5", "cn_name": "5-\u785d\u57fa\u95f4\u82ef\u4e8c\u7532\u9178\u4e8c\u7532\u916f", "en_name": ["Dimethyl 5-nitroisophthalate", "1,3-Benzenedicarboxylic acid, 5-nitro-, 1,3-dimethyl ester", "Isophthalic acid, 5-nitro-, dimethyl ester", "1,3-Benzenedicarboxylic acid, 5-nitro-, dimethyl ester", "Dimethyl 5-nitroisophthalate", "5-Nitroisophthalic acid dimethyl ester", "Dimethyl 5-nitrobenzene-1,3-dicarboxylate", "5-Nitrobenzene-1,3-dicarboxylic acid dimethyl ester", "NSC 93786"], "SMILES": "C(OC)(=O)C1=CC(C(OC)=O)=CC(N(=O)=O)=C1", "physical_data": {"Molecular Weight": "239.18", "Molecular Formula": "C10H9NO6", "Melting Point": "118-121 \u00b0C"}}