{"cas_no": "13292-46-1", "cn_name": "\u5229\u798f\u5e73", "en_name": ["Rifampicin", "Rifamycin, 3-[[(4-methyl-1-piperazinyl)imino]methyl]-", "2,7-(Epoxypentadeca[1,11,13]trienimino)naphtho[2,1-b]furan-1,11(2H)-dione, 5,6,9,17,19,21-hexahydroxy-23-methoxy-2,4,12,16,18,20,22-heptamethyl-8-[N-(4-methyl-1-piperazinyl)formimidoyl]-, 21-acetate", "2,7-(Epoxypentadeca[1,11,13]trienimino)naphtho[2,1-b]furan-1,11(2H)-dione, 5,6,9,17,19,21-hexahydroxy-23-methoxy-2,4,12,16,20,22-heptamethyl-8-[N-(4-methyl-1-piperazinyl)formimidoyl]-, 21-acetate", "2,7-(Epoxypentadeca[1,11,13]trienimino)naphtho[2,1-b]furan, rifamycin deriv.", "3-[[(4-Methyl-1-piperazinyl)imino]methyl]rifamycin", "5,6,9,17,19,21-Hexahydroxy-23-methoxy-2,4,12,16,18,20,22-heptamethyl-8-[N-(4-methyl-1-piperazinyl)formimidoyl]-2,7-(epoxypentadeca[1,11,13]trienimino)-naphtho[2,1-b]furan-1,11(2H)-dione 21-acetate", "Rifampicin", "Rifampin", "Rifaldazine", "Rifamycin AMP", "Rimactan", "Rifampicin SV", "Rifadin", "3-[(4-Methyl-1-piperazinyl)iminomethyl]rifamycin SV", "R/AMP", "Rifa", "Rifadine", "Rifaldin", "Rifoldine", "Riforal", "Tubocin", "NSC 113926", "Sinerdol", "Famcin", "R-Cin", "Rimapen", "NIH 10782", "Rifaprodin", "Eremfat", "Refampicin", "Ba 41166/E", "Rimactane", "Abrifam", "Rifoldin", "L 5103 Lepetit", "Rifacap", "Rifodex", "Rifactine"], "SMILES": "OC1=C2C3=C4OC(C)(C3=O)OC=CC(OC)C(C)C(OC(C)=O)C(C)C(O)C(C)C(O)C(C)C=CC=C(C)C(=O)NC(C(O)=C2C(O)=C4C)=C1C=NN5CCN(C)CC5", "physical_data": {"Molecular Weight": "822.94", "Molecular Formula": "C43H58N4O12", "Melting Point": "184-185 \u00b0C"}}