{"cas_no": "133-37-9", "cn_name": "DL-\u9152\u77f3\u9178", "en_name": ["dl-Tartaric acid", "Butanedioic acid, 2,3-dihydroxy-, (2R,3R)-rel-", "Tartaric acid, (\u00b1)-", "Butanedioic acid, 2,3-dihydroxy-, (R*,R*)-(\u00b1)-", "rel-(2R,3R)-2,3-Dihydroxybutanedioic acid", "Paratartaric acid", "Racemic acid", "Racemic tartaric acid", "Uvic acid", "DL-Tartaric acid", "dl-Tartaric acid", "(\u00b1)-Tartaric acid", "(2RS,3RS)-Tartaric acid", "Butanedioic acid, 2,3-dihydroxy-, (R*,R*)-", "NSC 148314"], "SMILES": "C(C(C(O)=O)O)(C(O)=O)O", "physical_data": {"Molecular Weight": "150.09", "Molecular Formula": "C4H6O6", "Melting Point": "206 \u00b0C", "Density": "1.79 g/cm\u00b3"}}