{"cas_no": "133-74-4", "cn_name": "4-\u6c2f\u82ef\u80fa-2-\u78fa\u9178", "en_name": ["2-Amino-5-chlorobenzenesulfonic acid", "Benzenesulfonic acid, 2-amino-5-chloro-", "2-Amino-5-chlorobenzenesulfonic acid", "p-Chloroaniline-o-sulfonic acid", "4-Chloroaniline-2-sulfonic acid", "1-Amino-4-chloro-2-benzenesulfonic acid", "2-Amino-5-chlorobenzene-1-sulfonic acid"], "SMILES": "S(=O)(=O)(O)C1=C(N)C=CC(Cl)=C1", "physical_data": {"Molecular Weight": "207.63", "Molecular Formula": "C6H6ClNO3S", "Melting Point": "&gt;325 \u00b0C (decomp)"}}