{"cas_no": "133-67-5", "cn_name": "\u4e09\u6c2f\u567b\u55ea", "en_name": ["Trichlormethiazide", "2H-1,2,4-Benzothiadiazine-7-sulfonamide, 6-chloro-3-(dichloromethyl)-3,4-dihydro-, 1,1-dioxide", "6-Chloro-3-(dichloromethyl)-3,4-dihydro-2H-1,2,4-benzothiadiazine-7-sulfonamide 1,1-dioxide", "6-Chloro-3-(dichloromethyl)-3,4-dihydro-7-sulfamyl-1,2,4-benzothiadiazine-1,1-dioxide", "3-Dichloromethyl-6-chloro-7-sulfamoyl-3,4-dihydro-1,2,4-benzothiadiazine-1,1-dioxide", "3-Dichloromethyl-6-chloro-7-sulfamyl-3,4-dihydro-1,2,4-benzothiadiazine 1,1-dioxide", "Esmarin", "Fluitran", "Flutra", "Hydrotrichlorothiazide", "Metahydrin", "Nakva", "Naqua", "Trichlormetazid", "Trichlormethiazide", "Trichloromethiazide", "Trichlormethiazid", "6-Chloro-3-dichloromethyl-3,4-dihydro-7-sulfamoyl-2H-1,2,4-benzothiadiazine 1,1-dioxide", "Ciba 7057-Su", "Flurese", "Gangesol", "Diurazida", "Diuroral", "Tachionin", "Anatran", "Carvacron", "Intromene", "Salirom", "Naquival", "Metatensin", "Kubacron", "Tolcasone", "3-Dichloromethylhydrochlorothiazide", "Aponorin", "Achletin", "Diurese", "Triflumen", "Naquasone", "Anistadin", "NSC 61560", "MeSH ID: D014237"], "SMILES": "O=S1(=O)C=2C(NC(C(Cl)Cl)N1)=CC(Cl)=C(S(N)(=O)=O)C2", "physical_data": {"Molecular Weight": "380.66", "Molecular Formula": "C8H8Cl3N3O4S2", "Melting Point": "270 \u00b0C (decomp)"}}