{"cas_no": "133-90-4", "cn_name": "\u8349\u706d\u754f", "en_name": ["Chloramben", "Benzoic acid, 3-amino-2,5-dichloro-", "3-Amino-2,5-dichlorobenzoic acid", "Ambiben", "Amibin", "Amoben", "Amiben", "Chloramben", "2,5-Dichloro-3-aminobenzoic acid", "Vegiben"], "SMILES": "C(O)(=O)C1=C(Cl)C(N)=CC(Cl)=C1", "physical_data": {"Molecular Weight": "206.03", "Molecular Formula": "C7H5Cl2NO2", "Boiling Point": "312 \u00b0C", "Melting Point": "200-201 \u00b0C"}}