{"cas_no": "133-14-2", "cn_name": "\u8fc7\u6c27\u5316\u4e8c(2,4-\u4e8c\u6c2f\u82ef\u7532\u9170)", "en_name": ["2,4-Dichlorobenzoyl peroxide", "Peroxide, bis(2,4-dichlorobenzoyl)", "Bis(2,4-dichlorobenzoyl) peroxide", "Cadox TS 50", "2,4-Dichlorobenzoyl peroxide", "o,o\u2032,p,p\u2032-Tetrachlorodibenzoyl peroxide", "Siloprene CL 40", "Cadox TS", "Luperco CST", "Cadox TDP", "DCBP", "TC 2 (peroxide)", "TC 2", "C 2", "C 2 (crosslinking agent)", "Chaloxyd DCLBP 50PSI", "Perkadox PD 50S", "DCLBP 50PSI", "Elastosil AUX Crosslinker E", "2,4-Dichlorobibenzoyl peroxide", "Elastosil AUX-E", "Varox DCBP 50", "Perkadox PD 50S-PS", "Di(2,4-dichlorobenzoyl)peroxide", "2,4-Dichlorobenzoyl 2,4-dichlorobenzene-1-carboperoxoate", "CMJ 898", "Xiameter RBM 9020"], "SMILES": "C(OOC(=O)C1=C(Cl)C=C(Cl)C=C1)(=O)C2=C(Cl)C=C(Cl)C=C2", "physical_data": {"Molecular Weight": "380.01", "Molecular Formula": "C14H6Cl4O4", "Melting Point": "106 \u00b0C", "Density": "1.260 g/cm\u00b3"}}