{"cas_no": "133-10-8", "cn_name": "\u5bf9\u6c28\u57fa\u6c34\u6768\u9178\u94a0", "en_name": ["Sodium p-aminosalicylate", "Benzoic acid, 4-amino-2-hydroxy-, sodium salt (1:1)", "Salicylic acid, 4-amino-, monosodium salt", "Benzoic acid, 4-amino-2-hydroxy-, monosodium salt", "p-Aminosalicylate sodium", "p-Aminosalicylic acid sodium salt", "Bactylan", "Lepasen", "Natri-Pas", "Nippas", "Pamisyl Sodium", "Pasalon-Rakeet", "PASNa", "Pasnal", "Passodico", "Salvis", "Sanipirol", "Sodium PAS", "Tubersan", "4-Aminosalicylic acid sodium salt", "Sodium 4-aminosalicylate", "Sodium p-aminosalicylate", "Pasade", "Sodiopas", "Sodium 4-amino-2-hydroxybenzoate", "Sodium 2-hydroxy-4-aminobenzoate", "Monopas"], "SMILES": "C(O)(=O)C1=C(O)C=C(N)C=C1.[Na]", "physical_data": {"Molecular Weight": "", "Molecular Formula": "C7H7NO3.Na", "Melting Point": "265-270 \u00b0C"}}