{"cas_no": "133-08-4", "cn_name": "\u6b63\u4e01\u57fa\u4e19\u4e8c\u9178\u4e8c\u4e59\u916f", "en_name": ["1,3-Diethyl 2-butylpropanedioate", "Propanedioic acid, 2-butyl-, 1,3-diethyl ester", "Malonic acid, butyl-, diethyl ester", "Propanedioic acid, butyl-, diethyl ester", "1,3-Diethyl 2-butylpropanedioate", "Diethyl butylmalonate", "Diethyl n-butylmalonate", "Butylmalonic acid diethyl ester", "Ethyl butylmalonate", "Diethyl \u03b1-butylmalonate", "Diethyl 2-butylmalonate", "Butylpropanedioic acid diethyl ester", "NSC 4565", "Diethyl 2-n-butylmalonate"], "SMILES": "C(C(OCC)=O)(C(OCC)=O)CCCC", "physical_data": {"Molecular Weight": "216.27", "Molecular Formula": "C11H20O4", "Boiling Point": "237.5 \u00b0C", "Melting Point": "238 \u00b0C", "Density": "0.9745 g/cm\u00b3 @ Temp: 20 \u00b0C"}}