{"cas_no": "133-11-9", "cn_name": "\u5bf9\u6c28\u57fa\u6c34\u6768\u9178\u82ef\u916f", "en_name": ["Phenyl 4-aminosalicylate", "Benzoic acid, 4-amino-2-hydroxy-, phenyl ester", "Salicylic acid, 4-amino-, phenyl ester", "p-Aminosalicylic acid phenyl ester", "p-Aminosalol", "Fenamisal", "Phenyl p-aminosalicylate", "Phenyl 4-aminosalicylate", "Phenyl aminosalicylate", "Phenyl PAS", "Phenyl-PAS-Tebamin", "Tebamin", "Tebanyl", "FR 7", "PAS-Tebamin", "Tebamin-Leo", "Phenyl 4-amino-2-hydroxybenzoate", "4-Aminosalicylic acid phenyl ester", "Pheny-PAS-Tebamin", "4-Amino-2-hydroxybenzoic acid phenyl ester", "NSC 40144"], "SMILES": "C(OC1=CC=CC=C1)(=O)C2=C(O)C=C(N)C=C2", "physical_data": {"Molecular Weight": "229.23", "Molecular Formula": "C13H11NO3", "Melting Point": "153 \u00b0C"}}