{"cas_no": "133-13-1", "cn_name": "\u4e59\u57fa\u4e19\u4e8c\u9178\u4e8c\u4e59\u916f", "en_name": ["1,3-Diethyl 2-ethylpropanedioate", "Propanedioic acid, 2-ethyl-, 1,3-diethyl ester", "Malonic acid, ethyl-, diethyl ester", "Propanedioic acid, ethyl-, diethyl ester", "1,3-Diethyl 2-ethylpropanedioate", "Diethyl ethylmalonate", "Diethyl 2-ethylmalonate", "Diethyl \u03b1-ethylmalonate", "Ethylpropanedioic acid diethyl ester", "NSC 8706", "2-Ethylmalonic acid diethyl ester"], "SMILES": "C(C(OCC)=O)(C(OCC)=O)CC", "physical_data": {"Molecular Weight": "188.22", "Molecular Formula": "C9H16O4", "Boiling Point": "208 \u00b0C", "Melting Point": "202 \u00b0C", "Density": "1.004 g/cm\u00b3 @ Temp: 20 \u00b0C"}}