{"cas_no": "133-06-2", "cn_name": "\u514b\u83cc\u4e39", "en_name": ["Captan", "1H-Isoindole-1,3(2H)-dione, 3a,4,7,7a-tetrahydro-2-[(trichloromethyl)thio]-", "4-Cyclohexene-1,2-dicarboximide, N-[(trichloromethyl)thio]-", "3a,4,7,7a-Tetrahydro-2-[(trichloromethyl)thio]-1H-isoindole-1,3(2H)-dione", "SR 406", "Amercide", "Captan", "Flit 406", "Fungus Ban Type II", "Orthocide 7.5", "Orthocide 406", "Orthocide", "Stauffer captan", "N-Trichloromethylmercapto-4-cyclohexene-1,2-dicarboximide", "N-[(Trichloromethyl)thio]-4-cyclohexene-1,2-dicarboximide", "N-[(Trichloromethyl)thio]tetrahydrophthalimide", "N-Trichloromethylthio-3a,4,7,7a-tetrahydrophthalimide", "Vancide 89", "Vangard K", "Esso fungicide 406", "Malipur", "Captan 50W", "Neracid", "Captaf 85W", "Orthocide 50", "Glyodex 37-22", "Vancide 89RE", "N-Trichloromethylthio-4-cyclohexene-1,2-dicarboximide", "Orthocide 75", "Orthocide 83", "Aacaptan", "Kaptan", "Captaf", "Captex", "Merpan", "Hexacap", "N-[(Trichloromethyl)thio]-\u03944-tetrahydrophthalimide", "Osocide", "Bangton", "Trimegol", "Rallis captaf", "Buvisild K", "Captadin", "Deltan", "Radocaptan", "Captab", "Orthocide 75W", "Orthocide S 50", "Orthocide 83RP", "Kaptazor", "Zenecal", "Bangtan", "Ugecap 83", "Ugecap", "NSC 36726", "Captan 4L", "Venturin", "Micro-Chek 12", "Crystal 50", "Crystal 50 WDG", "Captan 50WP", "Kaptan 50WP", "Kejundan", "Captan 80WDG", "2-[(Trichloromethyl)sulfanyl]-2,3,3a,4,7,7a-hexahydro-1H-isoindole-1,3-dione", "Merpan 80WDG", "Merpan 480SC", "MeSH ID: D002215"], "SMILES": "S(C(Cl)(Cl)Cl)N1C(=O)C2C(C1=O)CC=CC2", "physical_data": {"Molecular Weight": "300.59", "Molecular Formula": "C9H8Cl3NO2S", "Melting Point": "178 \u00b0C", "Density": "1.74 g/cm\u00b3"}}