{"cas_no": "133-49-3", "cn_name": "\u4e94\u6c2f\u82ef\u786b\u915a", "en_name": ["Pentachlorothiophenol", "Benzenethiol, 2,3,4,5,6-pentachloro-", "Benzenethiol, pentachloro-", "2,3,4,5,6-Pentachlorobenzenethiol", "Pentachlorobenzenethiol", "RPA 6", "Pentachlorothiophenol", "AP", "Struktol A 95", "NSC 5578"], "SMILES": "ClC1=C(Cl)C(Cl)=C(S)C(Cl)=C1Cl", "physical_data": {"Molecular Weight": "282.40", "Molecular Formula": "C6HCl5S", "Melting Point": "240 \u00b0C"}}