{"cas_no": "133-53-9", "cn_name": "2,4-\u4e8c\u6c2f-3,5-\u4e8c\u7532\u57fa\u82ef\u915a", "en_name": ["2,4-Dichloro-3,5-dimethylphenol", "Phenol, 2,4-dichloro-3,5-dimethyl-", "3,5-Xylenol, 2,4-dichloro-", "2,4-Dichloro-3,5-dimethylphenol", "Decasept", "2,4-Dichloro-3,5-xylenol", "Dichloroxylenol", "DCMX", "Dixol", "Hewsol", "Prinsyl", "NSC 9774", "Dichlorometaxylenol"], "SMILES": "ClC1=C(C)C(Cl)=C(O)C=C1C", "physical_data": {"Molecular Weight": "191.05", "Molecular Formula": "C8H8Cl2O", "Melting Point": "95-96 \u00b0C"}}