{"cas_no": "133-32-4", "cn_name": "3-\u5432\u54da\u4e01\u9178", "en_name": ["Indole-3-butyric acid", "1H-Indole-3-butanoic acid", "Indole-3-butyric acid", "IBA", "\u03b3-(Indol-3-yl)butyric acid", "3-Indolylbutyric acid", "3-Indolyl-\u03b3-butyric acid", "4-(Indol-3-yl)butyric acid", "\u03b3-(Indole-3)-butyric acid", "Indolebutyric acid", "1H-Indole-3-butyric acid", "Indole-3-butanoic acid", "Hormodin", "Seradix", "\u03b2-IBA", "\u03b2-Indolebutyric acid", "Seradix 2", "Hormex", "\u03b2-Indolylbutyric acid", "Seradix B 3", "Seradix B 2", "Seradix 3", "4-(3-Indolyl)butanoic acid", "Oxyberon", "[3-(3-Indolyl)propyl]carboxylic acid", "Stim-Root", "4-(1H-Indol-3-yl)butanoic acid", "4-(1H-Indol-3-yl)butyric acid", "NSC 3130", "Clonex (rooting hormone)", "Clonex", "Rootex", "Kornevin"], "SMILES": "C(CCC(O)=O)C=1C=2C(NC1)=CC=CC2", "physical_data": {"Molecular Weight": "203.24", "Molecular Formula": "C12H13NO2", "Melting Point": "124.5 \u00b0C"}}