{"cas_no": "133-91-5", "cn_name": "3,5-\u4e8c\u7898\u6c34\u6768\u9178", "en_name": ["3,5-Diiodosalicylic acid", "Benzoic acid, 2-hydroxy-3,5-diiodo-", "Salicylic acid, 3,5-diiodo-", "2-Hydroxy-3,5-diiodobenzoic acid", "3,5-Diiodosalicylic acid", "2-Hydroxy-3,5-diiodobenzenecarboxylic acid", "3,5-Diiodo-2-hydroxybenzoic acid", "NSC 6303"], "SMILES": "C(O)(=O)C1=C(O)C(I)=CC(I)=C1", "physical_data": {"Molecular Weight": "389.91", "Molecular Formula": "C7H4I2O3", "Melting Point": "235.5 \u00b0C"}}