{"cas_no": "133-07-3", "cn_name": "\u706d\u83cc\u4e39", "en_name": ["Folpet", "1H-Isoindole-1,3(2H)-dione, 2-[(trichloromethyl)thio]-", "Phthalimide, N-[(trichloromethyl)thio]-", "2-[(Trichloromethyl)thio]-1H-isoindole-1,3(2H)-dione", "Folpet", "Ftalan", "Orthophaltan", "Phaltan", "Phthaltan", "N-[(Trichloromethyl)thio]phthalimide", "Spolacid", "Phaltane", "Fungitrol 11", "Faltan", "Folpel", "Folpan", "Vinicoll", "Cosan T", "Intercide TMP", "Folnit", "Orthofaltan 50", "Sanfol", "Trifol", "Ryl", "Acryptane", "Dipet", "MCW 296 SC", "2-[(Trichloromethyl)sulfanyl]-2,3-dihydro-1H-isoindole-1,3-dione", "Lanzador", "MCW 296WG", "Folpan 80WDG", "Stavento"], "SMILES": "S(C(Cl)(Cl)Cl)N1C(=O)C=2C(C1=O)=CC=CC2", "physical_data": {"Molecular Weight": "296.56", "Molecular Formula": "C9H4Cl3NO2S", "Melting Point": "177 \u00b0C"}}