{"cas_no": "133-59-5", "cn_name": "\u90bb\u7532\u82ef\u78fa\u9170\u6c2f", "en_name": ["2-Methylbenzenesulfonyl chloride", "Benzenesulfonyl chloride, 2-methyl-", "o-Toluenesulfonyl chloride", "2-Methylbenzenesulfonyl chloride", "o-Tosyl chloride", "o-Tolylsulfonyl chloride", "2-Methylphenylsulfonyl chloride", "o-Methylbenzenesulfonyl chloride", "2-Toluenesulfonyl chloride", "NSC 9354", "2-Methylbenzene-1-sulfonyl chloride"], "SMILES": "S(Cl)(=O)(=O)C1=C(C)C=CC=C1", "physical_data": {"Molecular Weight": "190.65", "Molecular Formula": "C7H7ClO2S", "Boiling Point": "154 \u00b0C @ Press: 36 Torr", "Melting Point": "10.2 \u00b0C", "Density": "1.3383 g/cm\u00b3 @ Temp: 20 \u00b0C"}}