{"cas_no": "133081-25-1", "cn_name": "6-[2-(\u53d4\u4e01\u6c27\u7fb0\u57fa)\u80bc\u57fa]\u70df\u9178", "en_name": ["6-[2-(tert-Butoxycarbonyl)hydrazinyl]nicotinic acid", "3-Pyridinecarboxylic acid, 6-[1-[(1,1-dimethylethoxy)carbonyl]hydrazinyl]-", "3-Pyridinecarboxylic acid, 6-[2-[(1,1-dimethylethoxy)carbonyl]hydrazino]-", "6-[1-[(1,1-Dimethylethoxy)carbonyl]hydrazinyl]-3-pyridinecarboxylic acid", "6-[2-(tert-Butoxycarbonyl)hydrazinyl]nicotinic acid", "6-Boc-Hynic", "6-[2-(tert-Butoxycarbonyl)hydrazono]-1,6-dihydropyridine-2-carboxylic acid", "6-[[(tert-Butoxycarbonyl)amino]amino]nicotinic acid"], "SMILES": "N(NC(OC(C)(C)C)=O)C1=CC=C(C(O)=O)C=N1", "physical_data": {"Molecular Weight": "253.25", "Molecular Formula": "C11H15N3O4", "Melting Point": "126 \u00b0C"}}