{"cas_no": "1330-61-6", "cn_name": "\u4e19\u70ef\u9178\u5341\u916f", "en_name": ["Isodecyl acrylate", "2-Propenoic acid, isodecyl ester", "Acrylic acid, isodecyl ester", "Isodecyl alcohol, acrylate", "Isodecyl acrylate", "SR 395", "SR 396", "Sartomer 395", "Miramer M 130", "EM 219", "EM 219 (acrylate)", "Miramer 130", "M 130", "M 130 (ester)", "Sartomer SR 395", "SR 395NS", "Photomer 4810", "EM 2191", "FA 111A", "IDAA"], "SMILES": "", "physical_data": {"Molecular Weight": "", "Molecular Formula": "C13H24O2", "Boiling Point": "158 \u00b0C @ Press: 50 Torr", "Melting Point": "-100 \u00b0C", "Density": "0.885 g/cm\u00b3 @ Temp: 20 \u00b0C"}}