{"cas_no": "13301-61-6", "cn_name": "\u5206\u6563\u6a59 76", "en_name": ["Disperse Orange 37", "Propanenitrile, 3-[[4-[2-(2,6-dichloro-4-nitrophenyl)diazenyl]phenyl]ethylamino]-", "Propionitrile, 3-[p-[(2,6-dichloro-4-nitrophenyl)azo]-N-ethylanilino]-", "Propanenitrile, 3-[[4-[(2,6-dichloro-4-nitrophenyl)azo]phenyl]ethylamino]-", "3-[[4-[2-(2,6-Dichloro-4-nitrophenyl)diazenyl]phenyl]ethylamino]propanenitrile", "Disperse Polyester Yellow Brown", "Serilene Yellow Brown 2RL", "Serilene Yellow Brown 2RL150", "C.I. Disperse Orange 37", "Eastman Polyester Dark Orange RL", "Eastone Dark Orange R-GLF", "C.I. Disperse Orange 59", "Kayalon Polyester Yellow Brown 3RL", "C.I. Disperse Orange 76", "Disperse Orange 76", "Disperse Orange 37", "Disperse Orange 59", "Intrasil Dark Orange 3GH", "Disperse Yellow Brown 2RCW", "Akasperse Orange RL 150"], "SMILES": "N(=NC1=CC=C(N(CCC#N)CC)C=C1)C2=C(Cl)C=C(N(=O)=O)C=C2Cl", "physical_data": {"Molecular Weight": "392.24", "Molecular Formula": "C17H15Cl2N5O2", "Melting Point": "144-146 \u00b0C"}}