{"cas_no": "1330-80-9", "cn_name": "\u4e19\u4e8c\u9187\u6cb9\u9178\u916f", "en_name": ["Propylene glycol monooleate", "9-Octadecenoic acid (9Z)-, monoester with 1,2-propanediol", "Oleic acid, monoester with 1,2-propanediol", "9-Octadecenoic acid (Z)-, monoester with 1,2-propanediol", "Oleic acid, ester with 1,2-propanediol", "1,2-Propanediol, monooleate", "Crill 25", "Nonex 59", "Propylene glycol monooleate", "Propylene glycol oleate", "G 923", "Sunsoft 25O", "Sunsoft 25OD", "Sunsoft O 30", "PO 100", "Nissan Nonion PO 100", "Nonion PO 100", "Hydroxypropyl oleate", "Sunsoft 25ODV", "Nofable PO 991", "Emcol PO 50", "Edenol EFC 100", "EFC 100", "Rikemal PO 100V"], "SMILES": "", "physical_data": {"Molecular Weight": "", "Molecular Formula": "C21H40O3", "Boiling Point": "176-183 \u00b0C @ Press: 2 Torr"}}