{"cas_no": "1330-70-7", "cn_name": "\u7f9f\u57fa\u786c\u8102\u9178", "en_name": ["Hydroxyoctadecanoic acid", "Octadecanoic acid, hydroxy-", "Hydroxyoctadecanoic acid", "Hyfac 12", "Hydroxystearic acid", "Monohydroxystearic acid", "Cenwax A", "Edenor DSSG", "C18:0-OH"], "SMILES": "", "physical_data": {"Molecular Weight": "", "Molecular Formula": "C18H36O3", "Melting Point": "90 \u00b0C"}}