{"cas_no": "1330-86-5", "cn_name": "\u5df1\u4e8c\u9178\u4e8c\u5f02\u8f9b\u916f", "en_name": ["Diisooctyl adipate", "Hexanedioic acid, 1,6-diisooctyl ester", "Adipic acid, diisooctyl ester", "Hexanedioic acid, diisooctyl ester", "Isooctyl alcohol, adipate (2:1)", "Adipol 10A", "Diisooctyl adipate", "DIOA", "DB 32", "DB 32 (ester)", "Hatcol 2906"], "SMILES": "", "physical_data": {"Molecular Weight": "", "Molecular Formula": "C22H42O4", "Boiling Point": "205-220 \u00b0C @ Press: 4 Torr", "Melting Point": "-70 \u00b0C", "Density": "0.930 g/cm\u00b3 @ Temp: 20 \u00b0C"}}