{"cas_no": "1330-20-7", "cn_name": "\u4e8c\u7532\u82ef", "en_name": ["Xylene", "Benzene, dimethyl-", "Xylene", "Dimethylbenzene", "Xylol", "Dilan", "ZEP-RD", "Entellan New", "X 0040"], "SMILES": "", "physical_data": {"Molecular Weight": "", "Molecular Formula": "C8H10", "Boiling Point": "137-140 \u00b0C", "Density": "0.864 g/cm\u00b3 @ Temp: 20 \u00b0C"}}