{"cas_no": "13304-62-6", "cn_name": "N-\u82c4\u57fa\u4e19\u70ef\u9170\u80fa", "en_name": ["N-Benzylacrylamide", "2-Propenamide, N-(phenylmethyl)-", "Acrylamide, N-benzyl-", "N-(Phenylmethyl)-2-propenamide", "N-Benzylacrylamide", "N-Benzyl-2-propenamide"], "SMILES": "C(NC(C=C)=O)C1=CC=CC=C1", "physical_data": {"Molecular Weight": "161.20", "Molecular Formula": "C10H11NO", "Boiling Point": "138-140 \u00b0C @ Press: 0.3 Torr", "Melting Point": "69 \u00b0C"}}