{"cas_no": "133040-01-4", "cn_name": "\u4f9d\u666e\u7f57\u6c99\u5766", "en_name": ["Eprosartan", "2-Thiophenepropanoic acid, \u03b1-[[2-butyl-1-[(4-carboxyphenyl)methyl]-1H-imidazol-5-yl]methylene]-, (\u03b1E)-", "2-Thiophenepropanoic acid, \u03b1-[[2-butyl-1-[(4-carboxyphenyl)methyl]-1H-imidazol-5-yl]methylene]-, (E)-", "(\u03b1E)-\u03b1-[[2-Butyl-1-[(4-carboxyphenyl)methyl]-1H-imidazol-5-yl]methylene]-2-thiophenepropanoic acid", "SKF 108566", "SKB 108566", "Eprosartan", "(E)-2-Butyl-1-(p-carboxybenzyl)-\u03b1-2-thenylimidazole-5-acrylic acid", "Teveten", "Navixen"], "SMILES": "C(N1C(C=C(CC2=CC=CS2)C(O)=O)=CN=C1CCCC)C3=CC=C(C(O)=O)C=C3", "physical_data": {"Molecular Weight": "424.51", "Molecular Formula": "C23H24N2O4S", "Melting Point": "260-261 \u00b0C"}}