{"cas_no": "13307-05-6", "cn_name": "\u4e09(\u4e8c\u7532\u6c28\u57fa)\u6c2f\u7845\u70f7", "en_name": ["1-Chloro-N,N,N\u2032,N\u2032,N\u2032\u2032,N\u2032\u2032-hexamethylsilanetriamine", "Silanetriamine, 1-chloro-N,N,N\u2032,N\u2032,N\u2032\u2032,N\u2032\u2032-hexamethyl-", "1-Chloro-N,N,N\u2032,N\u2032,N\u2032\u2032,N\u2032\u2032-hexamethylsilanetriamine", "Tris(dimethylamino)chlorosilane", "Tris(dimethylamino)silyl chloride", "Chlorotris(dimethylamino)silane", "[Chlorobis(dimethylamino)silyl]dimethylamine"], "SMILES": "[Si](N(C)C)(N(C)C)(N(C)C)Cl", "physical_data": {"Molecular Weight": "195.77", "Molecular Formula": "C6H18ClN3Si", "Boiling Point": "62-63 \u00b0C @ Press: 12 Torr", "Melting Point": "2.5-3.5 \u00b0C", "Density": "0.975 g/cm\u00b3"}}