{"cas_no": "133052-90-1", "cn_name": "GF109203X", "en_name": ["3-[1-[3-(Dimethylamino)propyl]-1H-indol-3-yl]-4-(1H-indol-3-yl)-1H-pyrrole-2,5-dione", "1H-Pyrrole-2,5-dione, 3-[1-[3-(dimethylamino)propyl]-1H-indol-3-yl]-4-(1H-indol-3-yl)-", "3-[1-[3-(Dimethylamino)propyl]-1H-indol-3-yl]-4-(1H-indol-3-yl)-1H-pyrrole-2,5-dione", "GF 109203X", "Go 6850", "Bisindolylmaleimide I", "BIM 1", "Bis(indolyl)maleimide 1", "GF 109203", "3-[1-[3-(Dimethylamino)propyl]-1H-indol-3-yl]-4-(1H-indol-3-yl)-1H-pyrrol-2,5-dione"], "SMILES": "O=C1C(=C(C(=O)N1)C=2C=3C(NC2)=CC=CC3)C=4C=5C(N(CCCN(C)C)C4)=CC=CC5", "physical_data": {"Molecular Weight": "412.48", "Molecular Formula": "C25H24N4O2", "Melting Point": "280 \u00b0C (decomp)"}}