{"cas_no": "1330-43-4", "cn_name": "\u56db\u787c\u9178\u94a0", "en_name": ["Sodium tetraborate", "Boron sodium oxide (B4Na2O7)", "Sodium tetraborate (Na2B4O7)", "Boric acid (H2B4O7), disodium salt", "Anhydrous borax", "Borax glass", "Fused Borax", "Sodium biborate", "Disodium tetraborate", "Sodium borate", "FR 28", "Rasorite 65", "Sodium tetraborate", "Sodium boron oxide (Na2B4O7)", "Spraybor", "Fireless B Liquid", "Fireless B", "Granubor", "FR 28 (borate)", "Ecoboron PRO", "Dehybor", "DC Dehybor", "Etibor 68", "Na2B4O7"], "SMILES": "", "physical_data": {"Molecular Weight": "", "Molecular Formula": "B4Na2O7", "Melting Point": "741 \u00b0C", "Density": "2.367 g/cm\u00b3"}}