{"cas_no": "1330-78-5", "cn_name": "\u78f7\u9178\u4e09\u7532\u82ef\u916f", "en_name": ["Tricresyl phosphate", "Phosphoric acid, tris(methylphenyl) ester", "Phosphoric acid, tritolyl ester", "Kronitex", "Lindol", "Tricresyl phosphate", "Tritolyl phosphate", "Tricresol phosphate", "Cresyl phosphate", "Phosphoric acid tricresyl ester", "Imol S 140", "Disflamoll TKP", "Celluflex 179C", "TCP", "Tris(tolyloxy)phosphine oxide", "Fyrquel 150", "Kronitex R", "Kronitex TCP", "Phosphlex 179A", "Syn-O-Ad 8484", "Sumiguard TBT", "Reomol TCP", "Tris(methylphenyl) phosphate", "Durad 124", "Tricresyl orthophosphate", "Sansocizer TCP", "Durad 125", "Nissan Unflame TCP", "T 306", "RB 6", "T 306 (ester)", "Lindol XP Plus", "Phosflex TCP", "TCF", "Durad TCP", "Disflamoll TKP-P", "WSFR-TCP", "MeSH ID: D014317"], "SMILES": "", "physical_data": {"Molecular Weight": "", "Molecular Formula": "C21H21O4P", "Boiling Point": "420 \u00b0C", "Melting Point": "-33 \u00b0C", "Density": "1.215 g/cm\u00b3 @ Temp: 15 \u00b0C"}}