{"cas_no": "13314-85-7", "cn_name": "5-\u7f9f\u57fa-2-\u7532\u57fa\u5432\u54da", "en_name": ["2-Methyl-1H-indol-5-ol", "1H-Indol-5-ol, 2-methyl-", "Indol-5-ol, 2-methyl-", "2-Methyl-1H-indol-5-ol", "5-Hydroxy-2-methylindole", "2-Methyl-5-hydroxyindole", "5-Hydroxy-2-methyl-1H-indole"], "SMILES": "CC=1NC=2C(C1)=CC(O)=CC2", "physical_data": {"Molecular Weight": "147.17", "Molecular Formula": "C9H9NO", "Melting Point": "188 \u00b0C"}}