{"cas_no": "1331-83-5", "cn_name": "\u4e59\u9178\u8334\u9999\u916f", "en_name": ["Anisyl acetate", "Benzenemethanol, ar-methoxy-, 1-acetate", "Benzyl alcohol, ar-methoxy-, acetate", "Benzenemethanol, ar-methoxy-, acetate", "Anisyl acetate"], "SMILES": "", "physical_data": {"Molecular Weight": "", "Molecular Formula": "C10H12O3", "Boiling Point": "115-130 \u00b0C @ Press: 6 Torr"}}