{"cas_no": "13314-52-8", "cn_name": "\u4e8c\u4e59\u57fa\u4e8c\u6c2f\u5316\u9517", "en_name": ["Dichlorodiethylgermane", "Germane, dichlorodiethyl-", "Diethylgermanium dichloride", "Dichlorodiethylgermane", "Diethyldichlorogermane", "Diethylgermanyl dichloride", "NSC 342212"], "SMILES": "[Ge](CC)(CC)(Cl)Cl", "physical_data": {"Molecular Weight": "201.67", "Molecular Formula": "C4H10Cl2Ge", "Boiling Point": "175 \u00b0C", "Melting Point": "-39 \u00b0C", "Density": "1.374 g/cm\u00b3"}}