{"cas_no": "13319-71-6", "cn_name": "6-\u6eb4-2-\u7532\u57fa\u82ef\u915a", "en_name": ["2-Bromo-6-methylphenol", "Phenol, 2-bromo-6-methyl-", "o-Cresol, 6-bromo-", "2-Bromo-6-methylphenol", "2-Methyl-6-bromophenol", "6-Bromo-o-cresol"], "SMILES": "OC1=C(Br)C=CC=C1C", "physical_data": {"Molecular Weight": "187.03", "Molecular Formula": "C7H7BrO", "Boiling Point": "55-57 \u00b0C @ Press: 4 Torr", "Melting Point": "155-156 \u00b0C"}}