{"cas_no": "13311-84-7", "cn_name": "\u6c1f\u4ed6\u80fa", "en_name": ["Flutamide", "Propanamide, 2-methyl-N-[4-nitro-3-(trifluoromethyl)phenyl]-", "m-Propionotoluidide, \u03b1,\u03b1,\u03b1-trifluoro-2-methyl-4\u2032-nitro-", "2-Methyl-N-[4-nitro-3-(trifluoromethyl)phenyl]propanamide", "Sch 13521", "4\u2032-Nitro-3\u2032-trifluoromethylisobutyranilide", "N-(Isopropylcarbonyl)-4-nitro-3-trifluoromethylaniline", "4-Nitro-3-(trifluoromethyl)isobutyranilide", "Flutamide", "Niftolide", "Niftholide", "Eulexin", "Euflex", "Flucinom", "NSC 147834", "NSC 215876", "Odyne", "Grisetin", "Flutopharm", "MeSH ID: D005485"], "SMILES": "C(F)(F)(F)C1=C(N(=O)=O)C=CC(NC(C(C)C)=O)=C1", "physical_data": {"Molecular Weight": "276.21", "Molecular Formula": "C11H11F3N2O3", "Melting Point": "110-111 \u00b0C"}}