{"cas_no": "13311-79-0", "cn_name": "6-\u7532\u6c27\u56db\u6c22\u55b9\u5594\u5549", "en_name": ["1,2,3,4-Tetrahydro-6-methoxyquinoxaline", "Quinoxaline, 1,2,3,4-tetrahydro-6-methoxy-", "1,2,3,4-Tetrahydro-6-methoxyquinoxaline"], "SMILES": "O(C)C=1C=C2C(=CC1)NCCN2", "physical_data": {"Molecular Weight": "164.20", "Molecular Formula": "C9H12N2O", "Melting Point": "77-78.5 \u00b0C"}}