{"cas_no": "1331-81-3", "cn_name": "4-\u7532\u6c27\u57fa\u82c4\u9187", "en_name": ["Anisyl alcohol", "Benzenemethanol, ar-methoxy-", "Benzyl alcohol, ar-methoxy-", "Anisyl alcohol", "ar-Methoxybenzenemethanol", "Methoxybenzyl alcohol"], "SMILES": "", "physical_data": {"Molecular Weight": "", "Molecular Formula": "C8H10O2", "Boiling Point": "141-143 \u00b0C", "Melting Point": "23.7 \u00b0C", "Density": "1.1064 g/cm\u00b3 @ Temp: 30 \u00b0C"}}