{"cas_no": "1331-22-2", "cn_name": "\u7532\u57fa\u73af\u5df1\u916e", "en_name": ["Methylcyclohexanone", "Cyclohexanone, methyl-", "Methylcyclohexanone", "Methylcyclohexan-1-one"], "SMILES": "", "physical_data": {"Molecular Weight": "", "Molecular Formula": "C7H12O", "Boiling Point": "164 \u00b0C", "Density": "0.912 g/cm\u00b3 @ Temp: 20 \u00b0C"}}