{"cas_no": "13310-75-3", "cn_name": "2-\u4e19\u57fa\u620a\u8148", "en_name": ["2-Propylpentanenitrile", "Pentanenitrile, 2-propyl-", "Valeronitrile, 2-propyl-", "2-Propylpentanenitrile", "2-Propylvaleronitrile", "4-Cyanoheptane", "Dipropylacetonitrile"], "SMILES": "C(CCC)(CCC)C#N", "physical_data": {"Molecular Weight": "125.21", "Molecular Formula": "C8H15N", "Boiling Point": "183-184 \u00b0C"}}