{"cas_no": "13321-74-9", "cn_name": "1-\u6eb4-2,5-\u4e8c\u7532\u6c27\u57fa-4-\u7532\u57fa\u82ef", "en_name": ["1-Bromo-2,5-dimethoxy-4-methylbenzene", "Benzene, 1-bromo-2,5-dimethoxy-4-methyl-", "Toluene, 4-bromo-2,5-dimethoxy-", "1-Bromo-2,5-dimethoxy-4-methylbenzene", "4-Bromo-2,5-dimethoxytoluene", "4-Methyl-2,5-dimethoxybromobenzene", "2-Bromo-5-methyl-1,4-dimethoxybenzene"], "SMILES": "O(C)C1=C(Br)C=C(OC)C(C)=C1", "physical_data": {"Molecular Weight": "231.09", "Molecular Formula": "C9H11BrO2", "Melting Point": "92-93 \u00b0C"}}