{"cas_no": "133238-87-6", "cn_name": "2-\u4e01\u57fa-5-\u785d\u57fa\u82ef\u5e76\u544b\u5583", "en_name": ["2-Butyl-5-nitrobenzofuran", "Benzofuran, 2-butyl-5-nitro-", "2-Butyl-5-nitrobenzofuran", "2-n-Butyl-5-nitrobenzofuran", "2-Butyl-5-nitro-1-benzofuran"], "SMILES": "N(=O)(=O)C=1C=C2C(OC(CCCC)=C2)=CC1", "physical_data": {"Molecular Weight": "219.24", "Molecular Formula": "C12H13NO3", "Boiling Point": "120-123 \u00b0C"}}