{"cas_no": "1332-81-6", "cn_name": "\u6c27\u5316\u9511", "en_name": ["Antimony tetroxide", "Antimony oxide (Sb2O4)", "Antimony antimonate (Sb(SbO4))", "\u03b2-Antimony tetroxide", "Antimony tetroxide", "Antimony tetroxide (Sb2O4)", "Diantimony tetraoxide", "Diantimony tetroxide", "Sun Epoch NA 5050", "NA 5050", "FOX-L", "ATE-H", "ATE-S"], "SMILES": "O([Sb](=O)=O)[Sb]=O", "physical_data": {"Molecular Weight": "", "Molecular Formula": "O4Sb2", "Melting Point": "930 \u00b0C"}}