{"cas_no": "13327-27-0", "cn_name": "6-\u7532\u57fa-3(2H)-\u54d2\u55ea\u916e", "en_name": ["6-Methyl-3(2H)-pyridazinone", "3(2H)-Pyridazinone, 6-methyl-", "6-Methyl-3(2H)-pyridazinone", "3-Hydroxy-6-methylpyridazine", "6-Methyl-3-pyridazinone", "4-Methyl-5,6-diaza-2,4-cyclohexadien-1-one", "NSC 10841", "NSC 17180", "6-Methyl-2H-pyridazin-3-one", "6-Methyl-2H-pyridazine-3-one", "6-Methylpyridazin-3-ol", "3-Methyl-1H-pyridazin-6-one"], "SMILES": "CC=1C=CC(=O)NN1", "physical_data": {"Molecular Weight": "110.11", "Molecular Formula": "C5H6N2O", "Melting Point": "138 \u00b0C"}}