{"cas_no": "13324-11-3", "cn_name": "2-\u6c2f-4-\u785d\u57fa\u82ef\u7532\u9178\u7532\u916f", "en_name": ["Benzoic acid, 2-chloro-4-nitro-, methyl ester", "Benzoic acid, 2-chloro-4-nitro-, methyl ester", "Methyl 2-chloro-4-nitrobenzoate", "2-Chloro-4-nitrobenzoic acid methyl ester", "4-nitro-2-chlorobenzoic acid methyl ester"], "SMILES": "C(OC)(=O)C1=C(Cl)C=C(N(=O)=O)C=C1", "physical_data": {"Molecular Weight": "215.59", "Molecular Formula": "C8H6ClNO4", "Melting Point": "75.5-76.7 \u00b0C"}}