{"cas_no": "13323-45-0", "cn_name": "3-\u7532\u57fa-3,9-\u4e8c\u6c2e\u6742\u87ba[5,5]\u5341\u4e00\u70f7", "en_name": ["3-Methyl-3,9-diazaspiro[5.5]undecane", "3,9-Diazaspiro[5.5]undecane, 3-methyl-", "3-Methyl-3,9-diazaspiro[5.5]undecane"], "SMILES": "CN1CCC2(CC1)CCNCC2", "physical_data": {"Molecular Weight": "168.28", "Molecular Formula": "C10H20N2", "Melting Point": "128-130 \u00b0C"}}