{"cas_no": "13324-66-8", "cn_name": "N-\u73af\u4e19\u57fa\u82c4\u80fa", "en_name": ["N-Cyclopropylbenzenemethanamine", "Benzenemethanamine, N-cyclopropyl-", "Benzylamine, N-cyclopropyl-", "N-Cyclopropylbenzenemethanamine", "N-Cyclopropylbenzylamine", "N-Benzylcyclopropylamine", "Benzylcyclopropylamine", "N-Benzyl-N-(cyclopropyl)amine"], "SMILES": "C(NC1CC1)C2=CC=CC=C2", "physical_data": {"Molecular Weight": "147.22", "Molecular Formula": "C10H13N", "Boiling Point": "80-81 \u00b0C @ Press: 5 Torr", "Melting Point": "97-98.5 \u00b0C"}}