{"cas_no": "13329-40-3", "cn_name": "4-\u7898\u4ee3\u82ef\u4e59\u916e", "en_name": ["4-Iodoacetophenone", "Ethanone, 1-(4-iodophenyl)-", "Acetophenone, 4\u2032-iodo-", "Acetophenone, p-iodo-", "1-(4-Iodophenyl)ethanone", "4-Iodoacetophenone", "4\u2032-Iodoacetophenone", "p-Iodoacetophenone", "p-Acetylphenyl iodide", "1-(4-Iodophenyl)-1-ethanone", "4-Acetylphenyl iodide", "4-Iodophenyl methyl ketone", "p-Iodophenyl methyl ketone", "1-Acetyl-4-iodobenzene", "NSC 97396", "4-Acetyl-1-iodobenzene", "1-Iodo-4-acetylbenzene", "Methyl 4-iodophenyl ketone", "4-Acetyliodobenzene", "Methyl p-iodophenyl ketone"], "SMILES": "C(C)(=O)C1=CC=C(I)C=C1", "physical_data": {"Molecular Weight": "246.05", "Molecular Formula": "C8H7IO", "Boiling Point": "142-144 \u00b0C @ Press: 12 Torr", "Melting Point": "86 \u00b0C"}}