{"cas_no": "13325-10-5", "cn_name": "4-\u6c28\u57fa-1-\u4e01\u9187", "en_name": ["4-Amino-1-butanol", "1-Butanol, 4-amino-", "4-Amino-1-butanol", "4-Aminobutanol", "4-Hydroxybutylamine", "4-Hydroxy-1-butanamine", "Butanolamine", "1-Amino-4-butanol"], "SMILES": "C(CCO)CN", "physical_data": {"Molecular Weight": "89.14", "Molecular Formula": "C4H11NO", "Boiling Point": "202 \u00b0C", "Density": "0.9688 g/cm\u00b3 @ Temp: 20 \u00b0C"}}