{"cas_no": "13327-56-5", "cn_name": "3-\u7532\u786b\u57fa\u4e19\u9178\u4e59\u916f", "en_name": ["Ethyl 3-methylthiopropionate", "Propanoic acid, 3-(methylthio)-, ethyl ester", "Propionic acid, 3-(methylthio)-, ethyl ester", "Ethyl \u03b2-methylthiopropionate", "3-(Methylthio)propionic acid ethyl ester", "Ethyl 3-methylthiopropanoate", "Ethyl 3-methylthiopropionate", "NSC 165650", "3-(Methylthio)propanoic acid ethyl ester", "Ethyl 3-methylthio-1-propanoate", "Ethyl 3-methylmercapto-propionate"], "SMILES": "C(CCSC)(OCC)=O", "physical_data": {"Molecular Weight": "148.22", "Molecular Formula": "C6H12O2S", "Boiling Point": "71-72 \u00b0C @ Press: 0.8 Torr"}}