{"cas_no": "13327-32-7", "cn_name": "\u6c22\u6c27\u5316\u94cd", "en_name": ["Beryllium hydroxide", "Beryllium hydroxide (Be(OH)2)", "Beryllium hydroxide", "Beryllium dihydroxide"], "SMILES": "[Be](O)O", "physical_data": {"Molecular Weight": "", "Molecular Formula": "BeH2O2", "Melting Point": "105 \u00b0C (decomp)", "Density": "1.92 g/cm\u00b3"}}