{"cas_no": "133343-34-7", "cn_name": "\u86cb\u767d\u9176\u4f53\u6291\u5236\u5242", "en_name": ["Lactacystin", "L-Cysteine, N-acetyl-S-[(3S,4R)-3-hydroxy-2-[(1S)-1-hydroxy-2-methylpropyl]-4-methyl-5-oxo-D-prolyl]-", "L-Cysteine, N-acetyl-, 3-hydroxy-2-(1-hydroxy-2-methylpropyl)-4-methyl-5-oxo-2-pyrrolidinecarboxylate (ester), [2R-[2\u03b1,2(S*),3\u03b1,4\u03b1]]-", "L-Cysteine, N-acetyl-, (2R,3S,4R)-3-hydroxy-2-[(1S)-1-hydroxy-2-methylpropyl]-4-methyl-5-oxo-2-pyrrolidinecarboxylate (ester)", "N-Acetyl-S-[(3S,4R)-3-hydroxy-2-[(1S)-1-hydroxy-2-methylpropyl]-4-methyl-5-oxo-D-prolyl]-L-cysteine", "Lactacystin", "(+)-Lactacystin"], "SMILES": "C(SCC(NC(C)=O)C(O)=O)(=O)C1(C(C(C)C)O)C(O)C(C)C(=O)N1", "physical_data": {"Molecular Weight": "376.43", "Molecular Formula": "C15H24N2O7S", "Melting Point": "233-235 \u00b0C (decomp)"}}