{"cas_no": "13338-82-4", "cn_name": "4-\u6c28\u7532\u57fa\u73af\u5df1\u80fa", "en_name": ["4-Aminocyclohexanemethanamine", "Cyclohexanemethanamine, 4-amino-", "Cyclohexanemethylamine, 4-amino-", "4-Aminocyclohexanemethanamine", "4-(Aminomethyl)cyclohexylamine", "4-Aminomethyl-1-cyclohexanamine"], "SMILES": "C(N)C1CCC(N)CC1", "physical_data": {"Molecular Weight": "128.22", "Molecular Formula": "C7H16N2", "Boiling Point": "102-103 \u00b0C @ Press: 15 Torr"}}