{"cas_no": "13334-49-1", "cn_name": "2,4-\u4e8c\u7532\u57fa\u82ef\u6c27\u57fa\u4e59\u9178", "en_name": ["2-(2,4-Dimethylphenoxy)acetic acid", "Acetic acid, 2-(2,4-dimethylphenoxy)-", "Acetic acid, (2,4-xylyloxy)-", "Acetic acid, (2,4-dimethylphenoxy)-", "2-(2,4-Dimethylphenoxy)acetic acid", "(2,4-Dimethylphenoxy)acetic acid", "NSC 408598", "[(2,4-Dimethylphenyl)oxy]acetic acid"], "SMILES": "O(CC(O)=O)C1=C(C)C=C(C)C=C1", "physical_data": {"Molecular Weight": "180.20", "Molecular Formula": "C10H12O3", "Melting Point": "140.5 \u00b0C"}}