{"cas_no": "1333-07-9", "cn_name": "\u90bb/\u5bf9\u7532\u82ef\u78fa\u9170\u80fa", "en_name": ["Toluenesulfonamide", "Benzenesulfonamide, ar-methyl-", "ar-Toluenesulfonamide", "Toluenesulfonamide", "ar-Methylbenzenesulfonamide", "Ketjenflex 3", "Ketjenflex 7", "Ketjenflex 15"], "SMILES": "", "physical_data": {"Molecular Weight": "", "Molecular Formula": "C7H9NO2S", "Melting Point": "193 \u00b0C"}}