{"cas_no": "13331-52-7", "cn_name": "\u4e09\u4e01\u57fa\u9521\u57fa\u4e19\u70ef\u9178\u916f", "en_name": ["Tributyltin acrylate", "2-Propenoic acid, tributylstannyl ester", "Stannane, (acryloyloxy)tributyl-", "Stannane, tributyl[(1-oxo-2-propenyl)oxy]-", "Tributyltin acrylate", "Tin, (acryloyloxy)tributyl-", "Tributylstannyl acrylate", "Tributylacryloyloxystannane"], "SMILES": "[Sn](OC(C=C)=O)(CCCC)(CCCC)CCCC", "physical_data": {"Molecular Weight": "361.11", "Molecular Formula": "C15H30O2Sn", "Melting Point": "69-70 \u00b0C"}}