{"cas_no": "13339-01-0", "cn_name": "1-(2-\u4e59\u6c27\u57fa\u82ef\u57fa)\u54cc\u55ea", "en_name": ["1-(2-Ethoxyphenyl)piperazine", "Piperazine, 1-(2-ethoxyphenyl)-", "Piperazine, 1-(o-ethoxyphenyl)-", "1-(2-Ethoxyphenyl)piperazine", "1-(o-Ethoxyphenyl)piperazine", "4-(2-Ethoxyphenyl)piperazine", "4-(2-Ethoxyphenyl)-1-piperazine", "N-(2-Ethoxyphenyl)piperazine"], "SMILES": "O(CC)C1=C(C=CC=C1)N2CCNCC2", "physical_data": {"Molecular Weight": "206.28", "Molecular Formula": "C12H18N2O", "Boiling Point": "112-114 \u00b0C @ Press: 0.08 Torr"}}