{"cas_no": "13335-71-2", "cn_name": "2,6-\u4e8c\u7532\u57fa\u82ef\u6c27\u57fa\u4e59\u9178", "en_name": ["2-(2,6-Dimethylphenoxy)acetic acid", "Acetic acid, 2-(2,6-dimethylphenoxy)-", "Acetic acid, (2,6-xylyloxy)-", "Acetic acid, (2,6-dimethylphenoxy)-", "2-(2,6-Dimethylphenoxy)acetic acid", "(2,6-Dimethylphenoxy)acetic acid", "NSC 408599"], "SMILES": "O(CC(O)=O)C1=C(C)C=CC=C1C", "physical_data": {"Molecular Weight": "180.20", "Molecular Formula": "C10H12O3", "Melting Point": "141 \u00b0C"}}