{"cas_no": "13331-93-6", "cn_name": "2,6-\u4e8c\u7532\u57fa-4-\u4e9a\u785d\u57fa\u82ef\u915a", "en_name": ["2,6-Dimethyl-4-nitrosophenol", "Phenol, 2,6-dimethyl-4-nitroso-", "2,6-Xylenol, 4-nitroso-", "2,6-Dimethyl-4-nitrosophenol", "2,6-Dimethyl-p-nitrosophenol", "4-Nitroso-2,6-xylenol", "NSC 677516", "NSC 73813"], "SMILES": "N(=O)C1=CC(C)=C(O)C(C)=C1", "physical_data": {"Molecular Weight": "151.16", "Molecular Formula": "C8H9NO2", "Melting Point": "170-171 \u00b0C"}}