{"cas_no": "133331-77-8", "cn_name": "\u5168\u6c1f\u5df2\u57fa\u8f9b\u70f7", "en_name": ["Perfluorohexyloctane", "Tetradecane, 1,1,1,2,2,3,3,4,4,5,5,6,6-tridecafluoro-", "1,1,1,2,2,3,3,4,4,5,5,6,6-Tridecafluorotetradecane", "Perfluorohexyloctane", "F 6H8", "8-(Perfluorohexyl)octane", "1-(Perfluorohexyl)octane", "NOV03", "NOV 03"], "SMILES": "C(C(C(C(F)(F)F)(F)F)(F)F)(C(C(CCCCCCCC)(F)F)(F)F)(F)F", "physical_data": {"Molecular Weight": "432.26", "Molecular Formula": "C14H17F13", "Boiling Point": "223 \u00b0C", "Melting Point": "-5.2 \u00b0C", "Density": "1.331 g/cm\u00b3 @ Temp: 25 \u00b0C"}}