{"cas_no": "13338-63-1", "cn_name": "3,4,5-\u4e09\u7532\u6c27\u57fa\u82ef\u4e59\u8148", "en_name": ["(3,4,5-Trimethoxyphenyl)acetonitrile", "Benzeneacetonitrile, 3,4,5-trimethoxy-", "Acetonitrile, (3,4,5-trimethoxyphenyl)-", "3,4,5-Trimethoxybenzeneacetonitrile", "3,4,5-Trimethoxybenzylnitrile", "(3,4,5-Trimethoxyphenyl)acetonitrile", "3,4,5-Trimethoxybenzyl cyanide", "2-(3,4,5-Trimethoxyphenyl)acetonitrile", "NSC 97556"], "SMILES": "O(C)C1=C(OC)C=C(CC#N)C=C1OC", "physical_data": {"Molecular Weight": "207.23", "Molecular Formula": "C11H13NO3", "Melting Point": "77 \u00b0C"}}