{"cas_no": "1333-41-1", "cn_name": "\u78b3\u9178\u7532\u4e19\u916f", "en_name": ["Methylpyridine", "Pyridine, methyl-", "Picoline", "Methylpyridine"], "SMILES": "", "physical_data": {"Molecular Weight": "", "Molecular Formula": "C6H7N", "Boiling Point": "196 \u00b0C @ Press: 2 Torr"}}