{"cas_no": "1333-82-0", "cn_name": "\u4e09\u6c27\u5316\u94ec", "en_name": ["Chromium trioxide", "Chromium oxide (CrO3)", "Chromic anhydride", "Chromic trioxide", "Chromium trioxide", "Chromium(VI) oxide", "Monochromium trioxide", "Chromium oxide (Cr4O12)", "Chromia (CrO3)", "Chromium(VI) trioxide", "Chromium oxide (Cr0.25O0.75)"], "SMILES": "[Cr](=O)(=O)=O", "physical_data": {"Molecular Weight": "", "Molecular Formula": "CrO3", "Melting Point": "197 \u00b0C", "Density": "2.70 g/cm\u00b3"}}