{"cas_no": "13330-96-6", "cn_name": "\u4e8c\u7532\u6c28\u4e01\u9187", "en_name": ["4-(Dimethylamino)-1-butanol", "1-Butanol, 4-(dimethylamino)-", "4-(Dimethylamino)-1-butanol", "4-(Dimethylamino)butanol", "N,N-Dimethyl-4-aminobutanol", "NSC 165645", "N,N-Dimethyl-4-hydroxybutylamine"], "SMILES": "C(CCCO)N(C)C", "physical_data": {"Molecular Weight": "117.19", "Molecular Formula": "C6H15NO", "Boiling Point": "81-84 \u00b0C @ Press: 12 Torr", "Density": "0.8826 g/cm\u00b3 @ Temp: 21 \u00b0C"}}