{"cas_no": "13339-02-1", "cn_name": "2-(1-\u54cc\u55ea)\u82ef\u80fa", "en_name": ["2-(1-Piperazinyl)benzenamine", "Benzenamine, 2-(1-piperazinyl)-", "Piperazine, 1-(o-aminophenyl)-", "2-(1-Piperazinyl)benzenamine", "NSC 285885", "1-(2-Aminophenyl)piperazine", "2-(Piperazin-1-yl)aniline"], "SMILES": "NC1=C(N2CCNCC2)C=CC=C1", "physical_data": {"Molecular Weight": "177.25", "Molecular Formula": "C10H15N3", "Melting Point": "114 \u00b0C"}}