{"cas_no": "1333-53-5", "cn_name": "6-(1-\u7532\u57fa\u4e59\u57fa)\u55b9\u5549", "en_name": ["Isopropylquinoline", "Quinoline, (1-methylethyl)-", "Quinoline, isopropyl-", "(1-Methylethyl)quinoline", "Lichenol", "Isopropylquinoline"], "SMILES": "", "physical_data": {"Molecular Weight": "", "Molecular Formula": "C12H13N", "Melting Point": "73.5-74 \u00b0C"}}