{"cas_no": "13331-27-6", "cn_name": "3-\u785d\u57fa\u82ef\u787c\u9178", "en_name": ["3-Nitrophenylboronic acid", "Boronic acid, B-(3-nitrophenyl)-", "Benzeneboronic acid, m-nitro-", "Boronic acid, (3-nitrophenyl)-", "B-(3-Nitrophenyl)boronic acid", "m-Nitrobenzeneboronic acid", "3-Nitrobenzeneboronic acid", "m-Nitrophenylboronic acid", "3-Nitrophenylboronic acid", "NSC 401539", "NSC 59739", "Boronic acid, B-[3-(dihydroxyamino)phenyl]-", "B-[3-(Dihydroxyamino)phenyl]boronic acid"], "SMILES": "B(O)(O)C1=CC(N(=O)=O)=CC=C1", "physical_data": {"Molecular Weight": "166.93", "Molecular Formula": "C6H6BNO4", "Melting Point": "282-286 \u00b0C"}}