{"cas_no": "13335-73-4", "cn_name": "3,4-\u4e8c\u7532\u57fa\u82ef\u6c27\u57fa\u4e59\u9178", "en_name": ["2-(3,4-Dimethylphenoxy)acetic acid", "Acetic acid, 2-(3,4-dimethylphenoxy)-", "Acetic acid, (3,4-xylyloxy)-", "Acetic acid, (3,4-dimethylphenoxy)-", "2-(3,4-Dimethylphenoxy)acetic acid", "(3,4-Dimethylphenoxy)acetic acid", "NSC 408600", "[(3,4-Dimethylphenyl)oxy]acetic acid", "2-[(3,4-Dimethylphenyl)oxy]acetic acid"], "SMILES": "O(CC(O)=O)C1=CC(C)=C(C)C=C1", "physical_data": {"Molecular Weight": "180.20", "Molecular Formula": "C10H12O3", "Melting Point": "162.5 \u00b0C"}}