{"cas_no": "1333-74-0", "cn_name": "\u6c22\u6c14", "en_name": ["Hydrogen", "Hydrogen", "Orthohydrogen", "Parahydrogen", "Hydrogen (H2)", "Hydrogen molecule", "Molecular hydrogen", "Mol. hydrogen", "Dihydrogen", "Hydrogen gas", "Hydrogen element"], "SMILES": "[H][H]", "physical_data": {"Molecular Weight": "2.02", "Molecular Formula": "H2", "Boiling Point": "-252.77 \u00b0C", "Melting Point": "-259.2 \u00b0C", "Density": "0.07631 g/cm\u00b3"}}