{"cas_no": "13349-91-2", "cn_name": "1-(2,2,2-\u4e09\u6c1f\u4e59\u57fa)\u54cc\u55ea\u4e8c\u76d0\u9178\u76d0", "en_name": ["Piperazine, 1-(2,2,2-trifluoroethyl)-, hydrochloride (1:2)", "Piperazine, 1-(2,2,2-trifluoroethyl)-, hydrochloride (1:2)", "Piperazine, 1-(2,2,2-trifluoroethyl)-, dihydrochloride", "4-(2,2,2-Trifluoroethyl)piperazine bishydrochloride", "1-(2,2,2-Trifluoroethyl)piperazine dihydrochloride"], "SMILES": "C(C(F)(F)F)N1CCNCC1.Cl", "physical_data": {"Molecular Weight": "", "Molecular Formula": "C6H11F3N2.2ClH", "Melting Point": "198-205 \u00b0C"}}