{"cas_no": "13349-82-1", "cn_name": "1-[2-(2-\u7f9f\u57fa\u4e59\u6c27\u57fa)\u4e59\u57fa]\u54cc\u55ea", "en_name": ["1-[2-(2-Hydroxyethoxy)ethyl]piperazine", "Ethanol, 2-[2-(1-piperazinyl)ethoxy]-", "2-[2-(1-Piperazinyl)ethoxy]ethanol", "N-Hydroxyethoxyethylpiperazine", "1-[2-(2-Hydroxyethoxy)ethyl]piperazine", "1-[2-[(2-Hydroxyethyl)oxy]ethyl]piperazine", "1-((2-Hydroxyethoxy)ethyl)piperazine", "2-[2-(Piperazin-1-yl)ethoxy]ethan-1-ol"], "SMILES": "C(COCCO)N1CCNCC1", "physical_data": {"Molecular Weight": "174.24", "Molecular Formula": "C8H18N2O2", "Boiling Point": "112-114 \u00b0C @ Press: 0.25 Torr"}}