{"cas_no": "13343-63-0", "cn_name": "\u82c4\u57fa2 -\u4e59\u9170\u6c28\u57fa- 4 ,6 - O\u4e9a\u82c4\u57fa- 2 -\u8131\u6c27-\u0391- D -\u8461\u8404\u7cd6\u82f7", "en_name": ["Phenylmethyl 2-(acetylamino)-2-deoxy-4,6-O-(phenylmethylene)-\u03b1-D-glucopyranoside", "\u03b1-D-Glucopyranoside, phenylmethyl 2-(acetylamino)-2-deoxy-4,6-O-(phenylmethylene)-", "Glucopyranoside, benzyl 2-acetamido-4,6-O-benzylidene-2-deoxy-, \u03b1-D-", "\u03b1-D-Glucopyranoside, benzyl 2-acetamido-4,6-O-benzylidene-2-deoxy-", "Pyrano[3,2-d]-1,3-dioxin, \u03b1-D-glucopyranoside deriv.", "Phenylmethyl 2-(acetylamino)-2-deoxy-4,6-O-(phenylmethylene)-\u03b1-D-glucopyranoside", "Benzyl 2-acetamido-2-deoxy-4,6-O-benzylidene-\u03b1-D-glucopyranoside"], "SMILES": "OC1C2C(OC(OCC3=CC=CC=C3)C1NC(C)=O)COC(O2)C4=CC=CC=C4", "physical_data": {"Molecular Weight": "399.44", "Molecular Formula": "C22H25NO6", "Melting Point": "260-262 \u00b0C"}}