{"cas_no": "133407-82-6", "cn_name": "MG132,\u86cb\u767d\u9176\u4f53\u6291\u5236\u5242", "en_name": ["N-[(Phenylmethoxy)carbonyl]-L-leucyl-N-[(1S)-1-formyl-3-methylbutyl]-L-leucinamide", "L-Leucinamide, N-[(phenylmethoxy)carbonyl]-L-leucyl-N-[(1S)-1-formyl-3-methylbutyl]-", "L-Leucinamide, N-[(phenylmethoxy)carbonyl]-L-leucyl-N-(1-formyl-3-methylbutyl)-, (S)-", "N-[(Phenylmethoxy)carbonyl]-L-leucyl-N-[(1S)-1-formyl-3-methylbutyl]-L-leucinamide", "MG 132", "Calpain inhibitor IV-2"], "SMILES": "C(NC(C(NC(OCC1=CC=CC=C1)=O)CC(C)C)=O)(C(NC(CC(C)C)C=O)=O)CC(C)C", "physical_data": {"Molecular Weight": "475.62", "Molecular Formula": "C26H41N3O5", "Melting Point": "80-84 \u00b0C (decomp)"}}