{"cas_no": "13343-62-9", "cn_name": "\u82c4\u57fa2-\u4e59\u9170\u6c28\u57fa-2-\u53bb\u6c27- -D-\u5421\u5583\u8461\u8404\u7cd6\u82f7", "en_name": ["Phenylmethyl 2-(acetylamino)-2-deoxy-\u03b1-D-glucopyranoside", "\u03b1-D-Glucopyranoside, phenylmethyl 2-(acetylamino)-2-deoxy-", "Glucopyranoside, benzyl 2-acetamido-2-deoxy-, \u03b1-D-", "\u03b1-D-Glucopyranoside, benzyl 2-acetamido-2-deoxy-", "Phenylmethyl 2-(acetylamino)-2-deoxy-\u03b1-D-glucopyranoside", "Benzyl 2-acetamido-2-deoxy-\u03b1-D-glucopyranoside"], "SMILES": "O(CC1=CC=CC=C1)C2C(NC(C)=O)C(O)C(O)C(CO)O2", "physical_data": {"Molecular Weight": "311.33", "Molecular Formula": "C15H21NO6", "Melting Point": "183-184 \u00b0C"}}