{"cas_no": "133481-09-1", "cn_name": "1-\u6c30\u57fa\u73af\u5df1\u70f7\u4e59\u9178", "en_name": ["1-Cyanocyclohexaneacetic acid", "Cyclohexaneacetic acid, 1-cyano-", "1-Cyanocyclohexaneacetic acid", "(1-Cyanocyclohexyl)acetic acid", "2-(1-Cyanocyclohexyl)acetic acid"], "SMILES": "C(C(O)=O)C1(C#N)CCCCC1", "physical_data": {"Molecular Weight": "167.21", "Molecular Formula": "C9H13NO2", "Melting Point": "103-105 \u00b0C"}}