{"cas_no": "13343-67-4", "cn_name": "\u82c4\u57fa-2-O-\u4e59\u9170\u6c28\u57fa-2-\u8131\u6c27-\u0392-D-\u8461\u8404\u7cd6\u82f7", "en_name": ["Phenylmethyl 2-(acetylamino)-2-deoxy-\u03b2-D-glucopyranoside", "\u03b2-D-Glucopyranoside, phenylmethyl 2-(acetylamino)-2-deoxy-", "Glucopyranoside, benzyl 2-acetamido-2-deoxy-, \u03b2-D-", "\u03b2-D-Glucopyranoside, benzyl 2-acetamido-2-deoxy-", "Phenylmethyl 2-(acetylamino)-2-deoxy-\u03b2-D-glucopyranoside", "Benzyl 2-acetamido-2-deoxy-\u03b2-D-glucopyranoside"], "SMILES": "O(CC1=CC=CC=C1)C2C(NC(C)=O)C(O)C(O)C(CO)O2", "physical_data": {"Molecular Weight": "311.33", "Molecular Formula": "C15H21NO6", "Melting Point": "210-211 \u00b0C"}}