{"cas_no": "133408-50-1", "cn_name": "(E)-\u82ef\u6c27\u83cc\u80fa", "en_name": ["Metominostrobin", "Benzeneacetamide, \u03b1-(methoxyimino)-N-methyl-2-phenoxy-, (\u03b1E)-", "Benzeneacetamide, \u03b1-(methoxyimino)-N-methyl-2-phenoxy-, (E)-", "(\u03b1E)-\u03b1-(Methoxyimino)-N-methyl-2-phenoxybenzeneacetamide", "SSF 126", "(E)-2-(Methoxyimino)-N-methyl-2-(2-phenoxyphenyl)acetamide", "Metominostrobin", "Oribright", "E-Metominostrobin", "(E)-Metominostrobin"], "SMILES": "C(C(NC)=O)(=NOC)C1=C(OC2=CC=CC=C2)C=CC=C1", "physical_data": {"Molecular Weight": "284.31", "Molecular Formula": "C16H16N2O3", "Melting Point": "88 \u00b0C"}}