{"cas_no": "1335-40-6", "cn_name": "\u7ce0\u9178\u4e59\u916f", "en_name": ["Ethyl furoate", "Furancarboxylic acid, ethyl ester", "Furoic acid, ethyl ester", "Ethyl furoate"], "SMILES": "", "physical_data": {"Molecular Weight": "", "Molecular Formula": "C7H8O3", "Boiling Point": "90 \u00b0C @ Press: 15 Torr", "Melting Point": "48-50 \u00b0C"}}