{"cas_no": "1335-46-2", "cn_name": "\u7532\u57fa\u7d2b\u7f57\u5170\u916e", "en_name": ["Methylionone", "Ionone, methyl-", "Methylionone", "6-Methylionone"], "SMILES": "", "physical_data": {"Molecular Weight": "", "Molecular Formula": "C14H22O", "Boiling Point": "125-128 \u00b0C @ Press: 8 Torr"}}