{"cas_no": "13352-76-6", "cn_name": "2,4,6,8,10,12-\u516d\u6c27\u6742\u5341\u4e09\u70f7", "en_name": ["2,4,6,8,10,12-Hexaoxatridecane", "2,4,6,8,10,12-Hexaoxatridecane", "Methane, bis[(methoxymethoxy)methoxy]-", "Pentakis(oxymethylene) glycol dimethyl ether", "Pentaoxymethylene dimethyl ether"], "SMILES": "C(OCOCOC)OCOCOC", "physical_data": {"Molecular Weight": "196.20", "Molecular Formula": "C7H16O6", "Boiling Point": "242.3 \u00b0C @ Press: 760 Torr", "Melting Point": "18.3 \u00b0C", "Density": "1.1003 g/cm\u00b3 @ Temp: 25 \u00b0C"}}