{"cas_no": "13351-61-6", "cn_name": "2,2-\u4e8c\u7532\u57fa-3-\u82ef\u4e19\u9187", "en_name": ["2,2-Dimethyl-3-phenylpropanol", "Benzenepropanol, \u03b2,\u03b2-dimethyl-", "1-Propanol, 2,2-dimethyl-3-phenyl-", "\u03b2,\u03b2-Dimethylbenzenepropanol", "2,2-Dimethyl-3-phenylpropanol", "2,2-Dimethyl-3-phenyl-1-propanol", "2,2-Dimethyl-3-phenylpropyl alcohol", "Muguet alcohol"], "SMILES": "C(C(CO)(C)C)C1=CC=CC=C1", "physical_data": {"Molecular Weight": "164.24", "Molecular Formula": "C11H16O", "Boiling Point": "120-124 \u00b0C @ Press: 14 Torr", "Melting Point": "34.5 \u00b0C"}}