{"cas_no": "13356-08-6", "cn_name": "\u82ef\u4e01\u9521", "en_name": ["Fenbutatin oxide", "Distannoxane, 1,1,1,3,3,3-hexakis(2-methyl-2-phenylpropyl)-", "Distannoxane, hexakis(\u03b2,\u03b2-dimethylphenethyl)-", "Distannoxane, hexakis(2-methyl-2-phenylpropyl)-", "1,1,1,3,3,3-Hexakis(2-methyl-2-phenylpropyl)distannoxane", "Trineophyltin oxide", "SD 14114", "Vendex", "Hexakis(2-methyl-2-phenylpropyl)distannoxane", "Hexakis(\u03b2,\u03b2-dimethylphenethyl)distannoxane", "Torque (pesticide)", "Fenbutatin oxide", "Neostanox", "Torque", "Vendex 4L", "Hexakis", "Osadan", "Vendex 4 Liquid", "Bis[tris(2-methyl-2-phenylpropyl)tin] oxide", "Partner", "Bis[tri(2-phenyl-2-methylpropyl)tin] oxide", "Bis[tris(2-phenyl-2-methylpropyl)tin] oxide", "Bis[tri(2-methyl-2-phenylpropyl)tin] oxide", "1,1,1,3,3,3-Hexakis(2,2-dimethyl-2-phenylethyl)distannoxane"], "SMILES": "[Sn](O[Sn](CC(C)(C)C1=CC=CC=C1)(CC(C)(C)C2=CC=CC=C2)CC(C)(C)C3=CC=CC=C3)(CC(C)(C)C4=CC=CC=C4)(CC(C)(C)C5=CC=CC=C5)CC(C)(C)C6=CC=CC=C6", "physical_data": {"Molecular Weight": "1052.68", "Molecular Formula": "C60H78OSn2", "Boiling Point": "235-240 \u00b0C @ Press: 0.05 Torr", "Melting Point": "138-139 \u00b0C", "Density": "0.42 g/cm\u00b3"}}