{"cas_no": "1335-32-6", "cn_name": "\u76d0\u57fa\u6027\u918b\u9178\u94c5", "en_name": ["Lead acetate (Pb3(AcO)2(OH)4)", "Lead, bis(acetato-\u03baO)tetrahydroxytri-", "Lead, bis(acetato)tetrahydroxytri-", "Lead, bis(acetato-O)tetrahydroxytri-", "Lead acetate (Pb3(AcO)2(OH)4)", "Lead, subacetate", "Bis(acetato)dihydroxytrilead", "Lead acetate, basic", "Monobasic lead acetate", "Lead acetate hydroxide (Pb3(OAc)2(OH)4)"], "SMILES": "", "physical_data": {"Molecular Weight": "", "Molecular Formula": "C4H10O8Pb3", "Melting Point": "75 \u00b0C"}}