{"cas_no": "13355-96-9", "cn_name": "\u6c2f\u4ee3\u5355\u4e01\u57fa\u9521\u9178", "en_name": ["Butyltin chloride dihydroxide", "Stannane, butylchlorodihydroxy-", "Butylchlorodihydroxystannane", "Butylchlorotin dihydroxide", "Fascat 4101", "NSC 323990", "Butyltin chloride dihydroxide", "Butylchlorostannanediol", "Butyltin dihydroxychloride", "PC 4101", "TMG 250", "XB 3 (catalyst)", "XB 3"], "SMILES": "C([Sn](Cl)(O)O)CCC", "physical_data": {"Molecular Weight": "245.29", "Molecular Formula": "C4H11ClO2Sn", "Melting Point": "107-112 \u00b0C"}}