{"cas_no": "13351-73-0", "cn_name": "1-\u7532\u57fa\u82ef\u5e76\u4e09\u5511", "en_name": ["1-Methylbenzotriazole", "1H-Benzotriazole, 1-methyl-", "1-Methyl-1H-benzotriazole", "1-Methylbenzotriazole", "1-Methyl-1,2,3-benzotriazole", "NSC 11743", "1-Methyl-1H-benzo[d][1,2,3]triazole", "1-Methyl-1H-1,2,3-benzotriazole"], "SMILES": "CN1C=2C(=CC=CC2)N=N1", "physical_data": {"Molecular Weight": "133.15", "Molecular Formula": "C7H7N3", "Boiling Point": "270.5 \u00b0C", "Melting Point": "64.5 \u00b0C"}}