{"cas_no": "13358-73-1", "cn_name": "\u4e8c\u4e01\u57fa\u6c28\u57fa\u7532\u9170\u6c2f", "en_name": ["N,N-Dibutylcarbamic chloride", "Carbamic chloride, N,N-dibutyl-", "Carbamoyl chloride, dibutyl-", "Carbamic chloride, dibutyl-", "N,N-Dibutylcarbamic chloride", "Dibutylcarbamoyl chloride", "N,N-Dibutylcarbamoyl chloride"], "SMILES": "N(CCCC)(CCCC)C(Cl)=O", "physical_data": {"Molecular Weight": "191.70", "Molecular Formula": "C9H18ClNO", "Boiling Point": "242-243 \u00b0C @ Press: 755 Torr", "Density": "0.987 g/cm\u00b3"}}