{"cas_no": "133627-46-0", "cn_name": "2-\u6c2f-N-(2-\u6c2f-4-\u7532\u57fa\u5421\u5576-3-\u57fa)\u70df\u9170\u80fa", "en_name": ["2-Chloro-N-(2-chloro-4-methyl-3-pyridinyl)-3-pyridinecarboxamide", "3-Pyridinecarboxamide, 2-chloro-N-(2-chloro-4-methyl-3-pyridinyl)-", "2-Chloro-N-(2-chloro-4-methyl-3-pyridinyl)-3-pyridinecarboxamide", "Picnic", "2-Chloro-N-(2-chloro-4-methyl-3-pyridyl)-3-pyridine carboxamide", "2-Chloro-N-(2-chloro-4-methylpyridin-3-yl)nicotinamide"], "SMILES": "N(C(=O)C1=C(Cl)N=CC=C1)C=2C(C)=CC=NC2Cl", "physical_data": {"Molecular Weight": "282.13", "Molecular Formula": "C12H9Cl2N3O", "Melting Point": "189-191 \u00b0C"}}