{"cas_no": "13369-74-9", "cn_name": "1-\u70ef\u4e19\u57fa-3,5-\u4e8c\u7532\u57fa\u5421\u5511", "en_name": ["3,5-Dimethyl-1-(2-propen-1-yl)-1H-pyrazole", "1H-Pyrazole, 3,5-dimethyl-1-(2-propen-1-yl)-", "Pyrazole, 1-allyl-3,5-dimethyl-", "1H-Pyrazole, 3,5-dimethyl-1-(2-propenyl)-", "3,5-Dimethyl-1-(2-propen-1-yl)-1H-pyrazole", "N-Allyl-3,5-dimethylpyrazole", "1-Allyl-3,5-dimethylpyrazole", "3,5-Dimethyl-1-prop-2-enylpyrazole"], "SMILES": "C(C=C)N1C(C)=CC(C)=N1", "physical_data": {"Molecular Weight": "136.19", "Molecular Formula": "C8H12N2", "Boiling Point": "187-190 \u00b0C @ Press: 746 Torr", "Density": "0.9559 g/cm\u00b3 @ Temp: 20 \u00b0C"}}