{"cas_no": "13360-65-1", "cn_name": "3-\u4e59\u57fa-2,5-\u7532\u57fa\u5421\u55ea", "en_name": ["3-Ethyl-2,5-dimethylpyrazine", "Pyrazine, 3-ethyl-2,5-dimethyl-", "3-Ethyl-2,5-dimethylpyrazine", "2,5-Dimethyl-3-ethylpyrazine", "2-Ethyl-3,6-dimethylpyrazine", "3,6-Dimethyl-2-ethylpyrazine"], "SMILES": "C(C)C=1C(C)=NC=C(C)N1", "physical_data": {"Molecular Weight": "136.19", "Molecular Formula": "C8H12N2", "Boiling Point": "180.5 \u00b0C", "Density": "0.973 g/cm\u00b3 @ Temp: 24 \u00b0C"}}