{"cas_no": "133627-45-9", "cn_name": "2-\u6c2f-3-\u6c28\u57fa-4-\u7532\u57fa\u5421\u5576", "en_name": ["3-amino-2-chloro-4-methylpyridine", "3-Pyridinamine, 2-chloro-4-methyl-", "2-Chloro-4-methyl-3-pyridinamine", "3-amino-2-chloro-4-methylpyridine", "Capic", "2-Chloro-4-methylpyridin-3-amine", "2-Chloro-3-amino-4-methylpyridine"], "SMILES": "NC=1C(C)=CC=NC1Cl", "physical_data": {"Molecular Weight": "142.59", "Molecular Formula": "C6H7ClN2", "Melting Point": "60-62 \u00b0C"}}