{"cas_no": "1336-36-3", "cn_name": "1,1\u2019-\u8054\u82ef\u6c2f\u4ee3\u884d\u751f\u7269", "en_name": ["1,1\u2032-Biphenyl, chloro derivs.", "1,1\u2032-Biphenyl, chloro derivs."], "SMILES": "", "physical_data": {"Molecular Weight": "", "Molecular Formula": "Unspecified", "Melting Point": "340-375 \u00b0C", "Density": "1.44 g/cm\u00b3 @ Temp: 30 \u00b0C"}}