{"cas_no": "13361-30-3", "cn_name": "\u6c30\u4e59\u9178\u5f02\u4e19\u916f", "en_name": ["1-Methylethyl 2-cyanoacetate", "Acetic acid, 2-cyano-, 1-methylethyl ester", "Acetic acid, cyano-, isopropyl ester", "Acetic acid, cyano-, 1-methylethyl ester", "1-Methylethyl 2-cyanoacetate", "Isopropyl cyanoacetate", "Isopropyl 2-cyanoacetate", "Cyanoacetic acid isopropyl ester", "NSC 1071"], "SMILES": "O(C(CC#N)=O)C(C)C", "physical_data": {"Molecular Weight": "127.14", "Molecular Formula": "C6H9NO2", "Boiling Point": "205.5 \u00b0C @ Press: 754 Torr", "Density": "1.0114 g/cm\u00b3 @ Temp: 20 \u00b0C"}}