{"cas_no": "13363-59-2", "cn_name": "2,2'-\u4e8c\u786b\u53cc(3-\u7532\u57fa\u82ef\u7532\u9178)", "en_name": ["Benzoic acid, 2,2\u2032-dithiobis[3-methyl-", "Benzoic acid, 2,2\u2032-dithiobis[3-methyl-", "m-Toluic acid, 2,2\u2032-dithiodi-", "2,2\u2032-Dithiobis(3-methylbenzoic acid)", "2-[(2-Carboxy-6-methylphenyl)disulfanyl]-3-methylbenzoic acid"], "SMILES": "S(SC1=C(C(O)=O)C=CC=C1C)C2=C(C(O)=O)C=CC=C2C", "physical_data": {"Molecular Weight": "334.41", "Molecular Formula": "C16H14O4S2", "Melting Point": "251-253 \u00b0C"}}