{"cas_no": "13362-78-2", "cn_name": "1,2-\u4e8c(4-\u5421\u5576\u57fa)\u4e59\u70ef", "en_name": ["trans-1,2-Bis(4-pyridyl)ethylene", "Pyridine, 4,4\u2032-(1E)-1,2-ethenediylbis-", "Pyridine, 4,4\u2032-vinylenedi-, (E)-", "Pyridine, 4,4\u2032-(1,2-ethenediyl)bis-, (E)-", "4,4\u2032-(1E)-1,2-Ethenediylbis[pyridine]", "trans-4,4\u2032-Dipyridylethylene", "trans-1,2-Bis(4-pyridyl)ethylene", "trans-1,2-Bis(4-pyridyl)ethene", "1,2-trans-Bis(4-pyridyl)ethene", "1,2-trans-(4-Pyridyl)ethene", "(E)-1,2-Bis(4-pyridyl)ethene", "trans-1,2-Di(4-pyridyl)ethylene", "(E)-4,4\u2032-Vinylenedipyridine", "trans-1,2-Bis(4-pyridinyl)ethene", "(E)-1,2-Bis(4-pyridyl)ethylene", "trans-1,2-Di-4-pyridylethene", "trans-Bis(4-pyridyl)ethylene", "1,2-trans-Bis(4-pyridyl)ethylene", "(E)-1,2-Bis(4-pyridinyl)ethene", "SERS 440", "(E)-4,4\u2032-Diazastilbene", "(E)-1,2-Di-4-pyridylethene", "trans-1,2-(4-Pyridyl)ethene", "(E)-4-(2-Pyridine-4-ethyl)pyridine", "(E)-1,2-Di(pyridin-4-yl)ethene"], "SMILES": "C(=CC=1C=CN=CC1)C=2C=CN=CC2", "physical_data": {"Molecular Weight": "182.22", "Molecular Formula": "C12H10N2", "Melting Point": "149-150 \u00b0C"}}