{"cas_no": "13368-42-8", "cn_name": "N-(\u4e09\u7532\u57fa\u7845\u57fa)\u5417\u5549", "en_name": ["4-(Trimethylsilyl)morpholine", "Morpholine, 4-(trimethylsilyl)-", "4-(Trimethylsilyl)morpholine", "Trimethylmorpholinosilane", "N-(Trimethylsilyl)morpholine", "Morpholinotrimethylsilane"], "SMILES": "[Si](C)(C)(C)N1CCOCC1", "physical_data": {"Molecular Weight": "159.30", "Molecular Formula": "C7H17NOSi", "Boiling Point": "160 \u00b0C", "Density": "0.897 g/cm\u00b3"}}