{"cas_no": "13360-63-9", "cn_name": "N-\u4e59\u57fa\u6b63\u4e01\u80fa", "en_name": ["Ethylbutylamine", "1-Butanamine, N-ethyl-", "Butylamine, N-ethyl-", "N-Ethyl-1-butanamine", "N-Butyl-N-ethylamine", "N-Ethylbutylamine", "Butylethylamine", "Ethylbutylamine", "N-Ethyl-N-butylamine", "N-Butylethylamine", "N-Ethylbutanamine", "N-Ethyl,N-(n-butyl)amine"], "SMILES": "C(CCC)NCC", "physical_data": {"Molecular Weight": "101.19", "Molecular Formula": "C6H15N", "Boiling Point": "107.5 \u00b0C", "Melting Point": "-78 \u00b0C", "Density": "0.7398 g/cm\u00b3 @ Temp: 20 \u00b0C"}}