{"cas_no": "133605-27-3", "cn_name": "2-\u785d\u57fa-4-(\u4e09\u6c1f\u7532\u57fa)\u82ef\u7532\u9187", "en_name": ["2-Nitro-4-(trifluoromethyl)benzenemethanol", "Benzenemethanol, 2-nitro-4-(trifluoromethyl)-", "2-Nitro-4-(trifluoromethyl)benzenemethanol", "(2-Nitro-4-trifluoromethylphenyl)methanol", "2-Nitro-4-(trifluoromethyl)benzyl alcohol"], "SMILES": "N(=O)(=O)C1=C(CO)C=CC(C(F)(F)F)=C1", "physical_data": {"Molecular Weight": "221.13", "Molecular Formula": "C8H6F3NO3", "Melting Point": "60-70 \u00b0C"}}