{"cas_no": "13360-61-7", "cn_name": "\u5341\u4e94\u70ef", "en_name": ["1-Pentadecene", "1-Pentadecene", "NSC 77125"], "SMILES": "C(CCCCCCC)CCCCCC=C", "physical_data": {"Molecular Weight": "210.40", "Molecular Formula": "C15H30", "Boiling Point": "268.2 \u00b0C", "Melting Point": "-2.8 \u00b0C", "Density": "0.7769 g/cm\u00b3 @ Temp: 20 \u00b0C"}}