{"cas_no": "13365-26-9", "cn_name": "3-\u785d\u57fa-\u90bb\u82ef\u4e8c\u7532\u916f", "en_name": ["1,2-Benzenedicarboxylic acid, 3-nitro-, 1,2-dimethyl ester", "1,2-Benzenedicarboxylic acid, 3-nitro-, 1,2-dimethyl ester", "Phthalic acid, 3-nitro-, dimethyl ester", "1,2-Benzenedicarboxylic acid, 3-nitro-, dimethyl ester", "Dimethyl 3-nitrophthalate", "Methyl 2-(methoxycarbonyl)-3-nitrobenzoate", "NSC 68806", "1,2-Dimethyl 3-nitrobenzene-1,2-dicarboxylate"], "SMILES": "C(OC)(=O)C1=C(C(OC)=O)C=CC=C1N(=O)=O", "physical_data": {"Molecular Weight": "239.18", "Molecular Formula": "C10H9NO6", "Melting Point": "67-69 \u00b0C"}}