{"cas_no": "13361-32-5", "cn_name": "\u6c30\u4e59\u9178\u70ef\u4e19\u916f", "en_name": ["2-Propen-1-yl 2-cyanoacetate", "Acetic acid, 2-cyano-, 2-propen-1-yl ester", "Acetic acid, cyano-, allyl ester", "Acetic acid, cyano-, 2-propenyl ester", "2-Propen-1-yl 2-cyanoacetate", "Cyanoacetic acid allyl ester", "Allyl cyanoacetate", "Allyl 2-cyanoacetate"], "SMILES": "C(OCC=C)(CC#N)=O", "physical_data": {"Molecular Weight": "125.13", "Molecular Formula": "C6H7NO2", "Boiling Point": "89-90 \u00b0C @ Press: 3.8 Torr"}}