{"cas_no": "13360-45-7", "cn_name": "\u6c2f\u6eb4\u9686", "en_name": ["Chlorbromuron", "Urea, N\u2032-(4-bromo-3-chlorophenyl)-N-methoxy-N-methyl-", "Urea, 3-(4-bromo-3-chlorophenyl)-1-methoxy-1-methyl-", "N\u2032-(4-Bromo-3-chlorophenyl)-N-methoxy-N-methylurea", "C 6313", "Maloran", "Chlorbromuron", "N-(4-Bromo-3-chlorophenyl)-N\u2032-methoxy-N\u2032-methylurea", "3-(4-Bromo-3-chlorophenyl)-1-methoxy-1-methylurea", "1-(3-Chloro-4-bromophenyl)-3-methyl-3-methoxyurea", "N-(4-Bromo-3-chlorophenyl)-N\u2032-methyl-N\u2032-methoxyurea", "3-(3-Chloro-4-bromophenyl)-1-methyl-1-methoxyurea", "3-(3-Chloro-4-bromophenyl)-1-methoxy-1-methylurea", "N-(3-Chloro-4-bromophenyl)-N\u2032-methoxy-N\u2032-methyl-urea", "Bromex (herbicide)", "Bromex", "N-(3-Chloro-4-bromophenyl)-N\u2032-methoxy-N\u2032-methylurea", "1-(4-Bromo-3-chlorophenyl)-3-methoxy-3-methylurea"], "SMILES": "N(C(N(OC)C)=O)C1=CC(Cl)=C(Br)C=C1", "physical_data": {"Molecular Weight": "293.54", "Molecular Formula": "C9H10BrClN2O2", "Melting Point": "95-97 \u00b0C", "Density": "1.68 g/cm\u00b3 @ Temp: 20 \u00b0C"}}