{"cas_no": "13368-45-1", "cn_name": "\u4e8c(\u4e8c\u7532\u6c28\u57fa)\u7532\u57fa\u4e59\u70ef\u57fa\u7845\u70f7", "en_name": ["1-Ethenyl-N,N,N\u2032,N\u2032,1-pentamethylsilanediamine", "Silanediamine, 1-ethenyl-N,N,N\u2032,N\u2032,1-pentamethyl-", "Silanediamine, N,N,N\u2032,N\u2032,1-pentamethyl-1-vinyl-", "1-Ethenyl-N,N,N\u2032,N\u2032,1-pentamethylsilanediamine", "Methylvinylbis(dimethylamino)silane", "Vinylmethylbis(dimethylamino)silane", "Bis(dimethylamino)methylvinylsilane", "Bis(dimethylamino)vinylmethylsilane", "[(Dimethylamino)(ethenyl)methylsilyl]dimethylamine"], "SMILES": "[Si](N(C)C)(N(C)C)(C=C)C", "physical_data": {"Molecular Weight": "158.32", "Molecular Formula": "C7H18N2Si", "Boiling Point": "146-147 \u00b0C"}}