{"cas_no": "13360-57-1", "cn_name": "\u4e8c\u7532\u80fa\u57fa\u78fa\u9170\u6c2f", "en_name": ["Dimethylsulfamoyl chloride", "Sulfamoyl chloride, N,N-dimethyl-", "Sulfamoyl chloride, dimethyl-", "N,N-Dimethylsulfamoyl chloride", "Dimethylsulfamoyl chloride", "Dimethylamidosulfonyl chloride", "Dimethylaminosulfonyl chloride", "N,N-Dimethylsulfamyl chloride", "N,N-Dimethylamidosulfonyl chloride", "N,N-Dimethylaminosulfonyl chloride", "NSC 93875", "Dimethylsulphamoyl chloride"], "SMILES": "S(N(C)C)(Cl)(=O)=O", "physical_data": {"Molecular Weight": "143.59", "Molecular Formula": "C2H6ClNO2S", "Boiling Point": "74-76 \u00b0C @ Press: 12 Torr"}}