{"cas_no": "13361-31-4", "cn_name": "\u6c30\u4e59\u9178\u5f02\u4e01\u916f", "en_name": ["2-Methylpropyl 2-cyanoacetate", "Acetic acid, 2-cyano-, 2-methylpropyl ester", "Acetic acid, cyano-, isobutyl ester", "Acetic acid, cyano-, 2-methylpropyl ester", "Acetic acid, cyano-, iso-butyl ester", "2-Methylpropyl 2-cyanoacetate", "Isobutyl cyanoacetate", "Cyanoacetic acid isobutyl ester", "Isobutyl 2-cyanoacetate"], "SMILES": "C(OCC(C)C)(CC#N)=O", "physical_data": {"Molecular Weight": "141.17", "Molecular Formula": "C7H11NO2", "Boiling Point": "222.8-223.3 \u00b0C @ Press: 757 Torr", "Density": "0.99342 g/cm\u00b3 @ Temp: 20 \u00b0C"}}