{"cas_no": "13361-64-3", "cn_name": "\u7094\u4e19\u57fa\u4e09\u7532\u57fa\u7845\u70f7", "en_name": ["Trimethyl-2-propyn-1-ylsilane", "Silane, trimethyl-2-propyn-1-yl-", "Silane, trimethyl-2-propynyl-", "Trimethyl-2-propyn-1-ylsilane", "Trimethyl-2-propynylsilane", "3-(Trimethylsilyl)propyne", "Propargyltrimethylsilane", "Trimethylpropargylsilane", "3-(Trimethylsilyl)-1-propyne", "[(Trimethylsilyl)methyl]acetylene", "1-(Trimethylsilyl)-2-propyne"], "SMILES": "C([Si](C)(C)C)C#C", "physical_data": {"Molecular Weight": "112.25", "Molecular Formula": "C6H12Si", "Boiling Point": "97 \u00b0C @ Press: 752 Torr", "Density": "0.8020 g/cm\u00b3 @ Temp: 20 \u00b0C"}}