{"cas_no": "13371-17-0", "cn_name": "\u4e01\u57fa\u4e09\u82ef\u57fa\u6c2f\u5316\u81a6", "en_name": ["Phosphonium, butyltriphenyl-, chloride (1:1)", "Phosphonium, butyltriphenyl-, chloride (1:1)", "Phosphonium, butyltriphenyl-, chloride", "Butyltriphenylphosphonium chloride", "Triphenylbutylphosphonium chloride", "n-Butyl(triphenyl)phosphonium chloride"], "SMILES": "[P+](CCCC)(C1=CC=CC=C1)(C2=CC=CC=C2)C3=CC=CC=C3.[Cl-]", "physical_data": {"Molecular Weight": "", "Molecular Formula": "C22H24P.Cl", "Melting Point": "220-222 \u00b0C"}}