{"cas_no": "13374-31-7", "cn_name": "(1R,2R)-2-\u6c28\u57fa\u73af\u5df1\u9187\u76d0\u9178\u76d0", "en_name": ["Cyclohexanol, 2-amino-, hydrochloride (1:1), (1R,2R)-", "Cyclohexanol, 2-amino-, hydrochloride (1:1), (1R,2R)-", "Cyclohexanol, 2-amino-, hydrochloride, (1R,2R)-", "Cyclohexanol, 2-amino-, hydrochloride, (1R-trans)-", "(1R,2R)-2-Aminocyclohexanol hydrochloride (1:1)", "(1R,2R)-2-Aminocyclohexanol hydrochloride"], "SMILES": "NC1C(O)CCCC1.Cl", "physical_data": {"Molecular Weight": "", "Molecular Formula": "C6H13NO.ClH", "Melting Point": "176-177 \u00b0C"}}