{"cas_no": "13375-29-6", "cn_name": "\u53cc\u73af\u4e19\u57fa\u7532\u80fa", "en_name": ["\u03b1-Cyclopropylcyclopropanemethanamine", "Cyclopropanemethanamine, \u03b1-cyclopropyl-", "Methylamine, 1,1-dicyclopropyl-", "\u03b1-Cyclopropylcyclopropanemethanamine", "Dicyclopropylmethylamine", "1,1-Dicyclopropylmethanamine", "Dicyclopropylmethanamine"], "SMILES": "C(N)(C1CC1)C2CC2", "physical_data": {"Molecular Weight": "111.18", "Molecular Formula": "C7H13N", "Boiling Point": "55-65 \u00b0C @ Press: 11 Torr"}}