{"cas_no": "133737-32-3", "cn_name": "\u5e15\u6208\u9686", "en_name": ["Pagoclone", "1H-Isoindol-1-one, 2-(7-chloro-1,8-naphthyridin-2-yl)-2,3-dihydro-3-(5-methyl-2-oxohexyl)-, (+)-", "(+)-2-(7-Chloro-1,8-naphthyridin-2-yl)-2,3-dihydro-3-(5-methyl-2-oxohexyl)-1H-isoindol-1-one", "(+)-RP 59037", "RP 62955", "Pagoclone", "IP 456"], "SMILES": "C(C(CCC(C)C)=O)C1N(C(=O)C=2C1=CC=CC2)C3=NC4=C(C=C3)C=CC(Cl)=N4", "physical_data": {"Molecular Weight": "407.89", "Molecular Formula": "C23H22ClN3O2", "Melting Point": "169 \u00b0C"}}