{"cas_no": "13372-81-1", "cn_name": "\u8089\u6842\u919b\u809f", "en_name": ["3-Phenyl-2-propenal oxime", "2-Propenal, 3-phenyl-, oxime", "Cinnamaldehyde, oxime", "3-Phenyl-2-propenal oxime", "Cinnamaldoxime", "3-Phenylacrylicaldoxime", "NSC 77420", "3-Phenylacrylaldehyde oxime"], "SMILES": "C(=CC=NO)C1=CC=CC=C1", "physical_data": {"Molecular Weight": "147.17", "Molecular Formula": "C9H9NO", "Melting Point": "136 \u00b0C"}}