{"cas_no": "13373-97-2", "cn_name": "1-\u4e8c\u5341\u70f7\u786b\u9187", "en_name": ["1-Eicosanethiol", "1-Eicosanethiol", "n-Eicosylmercaptan", "Eicosane-1-thiol"], "SMILES": "C(CCCCCCCCCC)CCCCCCCCCS", "physical_data": {"Molecular Weight": "314.61", "Molecular Formula": "C20H42S", "Melting Point": "31 \u00b0C"}}