{"cas_no": "13389-42-9", "cn_name": "\u53cd-2-\u8f9b\u70ef", "en_name": ["trans-2-Octene", "2-Octene, (2E)-", "2-Octene, (E)-", "2-Octene, trans-", "(2E)-2-Octene", "trans-2-Octene", "(E)-2-Octene", "\u03b2-trans-Octene", "NSC 97522"], "SMILES": "C(CC=CC)CCC", "physical_data": {"Molecular Weight": "112.21", "Molecular Formula": "C8H16", "Boiling Point": "125 \u00b0C", "Melting Point": "-87.7 \u00b0C", "Density": "0.741 g/cm\u00b3 @ Temp: 0 \u00b0C"}}