{"cas_no": "13382-47-3", "cn_name": "(2-\u7f9f\u57fa\u4e59\u6c27\u57fa)\u4e59\u9178", "en_name": ["(2-Hydroxyethoxy)acetic acid", "Acetic acid, 2-(2-hydroxyethoxy)-", "Acetic acid, (2-hydroxyethoxy)-", "2-(2-Hydroxyethoxy)acetic acid", "(2-Hydroxyethoxy)acetic acid", "\u03b2-Hydroxyethoxyacetic acid"], "SMILES": "C(OCCO)C(O)=O", "physical_data": {"Molecular Weight": "120.10", "Molecular Formula": "C4H8O4", "Melting Point": "44 \u00b0C"}}