{"cas_no": "13382-43-9", "cn_name": "5-\u6c28\u57fa-2-\u7532\u57fa\u82ef\u5e76\u567b\u5511", "en_name": ["5-Amino-2-methylbenzothiazole", "5-Benzothiazolamine, 2-methyl-", "Benzothiazole, 5-amino-2-methyl-", "2-Methyl-5-benzothiazolamine", "5-Amino-2-methylbenzothiazole", "2-Methyl-5-aminobenzothiazole", "2-Methylbenzothiazol-5-ylamine", "2-Methyl-1,3-benzothiazol-5-amine", "2-Methylbenzo[d]thiazol-5-amine"], "SMILES": "CC=1SC=2C(N1)=CC(N)=CC2", "physical_data": {"Molecular Weight": "164.23", "Molecular Formula": "C8H8N2S", "Melting Point": "102 \u00b0C"}}