{"cas_no": "13380-94-4", "cn_name": "\u4e09\u73af[5,2,1,0(2,6)]\u7678-8-\u916e", "en_name": ["Octahydro-4,7-methano-5H-inden-5-one", "4,7-Methano-5H-inden-5-one, octahydro-", "4,7-Methanoindan-5(4H)-one, tetrahydro-", "Octahydro-4,7-methano-5H-inden-5-one", "8-Oxotricyclo[5.2.1.02,6]decane", "Tricyclo[5.2.1.02,6]decan-8-one", "8-Ketotricyclo[5.2.1.02,6]decane", "NSC 77098"], "SMILES": "O=C1C2C3C(C(C2)C1)CCC3", "physical_data": {"Molecular Weight": "150.22", "Molecular Formula": "C10H14O", "Boiling Point": "70 \u00b0C @ Press: 1 Torr"}}