{"cas_no": "13380-89-7", "cn_name": "\u516b\u7f9f\u57fa-4,7-\u4e9a\u7532\u57fa-1H-\u5432\u54da-5-\u9187", "en_name": ["Octahydro-4,7-methano-1H-inden-5-ol", "4,7-Methano-1H-inden-5-ol, octahydro-", "4,7-Methanoindan-5-ol, hexahydro-", "Octahydro-4,7-methano-1H-inden-5-ol", "Tricyclo[5.2.1.02,6]decan-8-ol", "NSC 22466", "Hydroxytetrahydrodicyclopentadiene", "Tricyclo[5.2.1.06,2]decan-9-ol"], "SMILES": "OC1C2C3C(C(C2)C1)CCC3", "physical_data": {"Molecular Weight": "152.23", "Molecular Formula": "C10H16O", "Boiling Point": "110-120 \u00b0C @ Press: 3 Torr", "Melting Point": "120-121 \u00b0C"}}