{"cas_no": "133841-05-1", "cn_name": "7-\u7532\u6c27\u57fa-1H-\u5432\u5511", "en_name": ["7-Methoxy-1H-indazole", "1H-Indazole, 7-methoxy-", "7-Methoxy-1H-indazole", "7-Methoxyindazole"], "SMILES": "O(C)C1=C2C(C=NN2)=CC=C1", "physical_data": {"Molecular Weight": "148.16", "Molecular Formula": "C8H8N2O", "Melting Point": "91-92 \u00b0C"}}