{"cas_no": "13389-03-2", "cn_name": "8-\u6eb42\u2018-\u8131\u6c27\u9e1f\u82f7", "en_name": ["8-Bromo-2\u2032-deoxyguanosine", "Guanosine, 8-bromo-2\u2032-deoxy-", "8-Bromo-2\u2032-deoxyguanosine", "NSC 105830"], "SMILES": "BrC=1N(C2=C(N1)C(=O)N=C(N)N2)C3OC(CO)C(O)C3", "physical_data": {"Molecular Weight": "346.14", "Molecular Formula": "C10H12BrN5O4", "Melting Point": "209-213 \u00b0C"}}