{"cas_no": "133865-89-1", "cn_name": "\u6c99\u82ac\u9170\u80fa", "en_name": ["Safinamide", "Propanamide, 2-[[[4-[(3-fluorophenyl)methoxy]phenyl]methyl]amino]-, (2S)-", "Propanamide, 2-[[[4-[(3-fluorophenyl)methoxy]phenyl]methyl]amino]-, (S)-", "(2S)-2-[[[4-[(3-Fluorophenyl)methoxy]phenyl]methyl]amino]propanamide", "FCE 26743", "Safinamide", "(S)-2-[[4-[(3-Fluorobenzyl)oxy]benzyl]amino]propanamide", "EMD 1195686", "(2S)-2-[[4-[(3-Fluorophenyl)methoxy]phenyl]methylamino]propanamide", "(S)-2-[[[4-[(3-Fluorophenyl)methoxy]phenyl]methyl]amino]propanamide"], "SMILES": "O(CC1=CC(F)=CC=C1)C2=CC=C(CNC(C(N)=O)C)C=C2", "physical_data": {"Molecular Weight": "302.34", "Molecular Formula": "C17H19FN2O2", "Melting Point": "123-125 \u00b0C"}}