{"cas_no": "133860-76-1", "cn_name": "2-\u6c2f-N4-(2-\u7532\u57fa\u4e19\u57fa)-3,4-\u55b9\u5549\u4e8c\u80fa", "en_name": ["2-Chloro-N4-(2-methylpropyl)-3,4-quinolinediamine", "3,4-Quinolinediamine, 2-chloro-N4-(2-methylpropyl)-", "2-Chloro-N4-(2-methylpropyl)-3,4-quinolinediamine", "2-Chloro-N\u2032-(2-methylpropyl)quinoline-3,4-diamine", "2-Chloro-3-Amino-4-IsobutylAminoQuinoline", "2-Chloro-4-N-(2-methylpropyl)quinoline-3,4-diamine", "2-Chloro-N4-isobutylquinoline-3,4-diamine"], "SMILES": "N(CC(C)C)C=1C2=C(N=C(Cl)C1N)C=CC=C2", "physical_data": {"Molecular Weight": "249.74", "Molecular Formula": "C13H16ClN3", "Melting Point": "145-148 \u00b0C"}}