{"cas_no": "1338-02-9", "cn_name": "\u73af\u70f7\u9178\u94dc", "en_name": ["Naphthenic acids, copper salts", "Naphthenic acids, copper salts", "Naphthenic acids, copper salt", "Copper naphthenate", "Naphthenic acid copper salt", "Gori 22", "Cuprinol", "Cellavit", "K 204 (accelerator)", "Cuprinol green", "Sanpreser Wog", "Cunap", "K 204", "Shakelast", "Redycoat", "Cunapsol 5", "Naphthex Cu", "Thrush XX", "Naphthenic acids, cuprous salts", "CuNap 5W"], "SMILES": "", "physical_data": {"Molecular Weight": "", "Molecular Formula": "Unspecified", "Boiling Point": "154-202 \u00b0C @ Press: 800 Torr", "Density": "1.055 g/cm\u00b3"}}