{"cas_no": "13395-36-3", "cn_name": "\u4e09\u7532\u57fa\u4e59\u9170\u57fa\u4e19\u916e\u9178\u4e59\u916f", "en_name": ["Hexanoic acid, 5,5-dimethyl-2,4-dioxo-, ethyl ester", "Hexanoic acid, 5,5-dimethyl-2,4-dioxo-, ethyl ester", "Ethyl pivaloylpyruvate", "5,5-Dimethyl-2,4-dioxohexanoic acid ethyl ester", "Ethyl 2,4-dioxo-5,5-dimethylhexanoate", "Ethyl 5,5-dimethyl-2,4-dioxohexanoate"], "SMILES": "C(CC(C(C)(C)C)=O)(C(OCC)=O)=O", "physical_data": {"Molecular Weight": "200.23", "Molecular Formula": "C10H16O4", "Boiling Point": "124 \u00b0C @ Press: 13 Torr"}}