{"cas_no": "13395-16-9", "cn_name": "\u4e59\u9170\u4e19\u916e\u9178\u94dc", "en_name": ["Copper(II) acetylacetonate", "Copper, bis(2,4-pentanedionato-\u03baO2,\u03baO4)-, (SP-4-1)-", "Copper, bis(2,4-pentanedionato)-", "Copper, bis(2,4-pentanedionato-O,O\u2032)-, (SP-4-1)-", "Copper, bis(2,4-pentanedionato-\u03baO,\u03baO\u2032)-, (SP-4-1)-", "(SP-4-1)-Bis(2,4-pentanedionato-\u03baO2,\u03baO4)copper", "Copper(II) acetylacetonate", "Copper bis(acetylacetonate)", "Bis(2,4-pentanedionato)copper", "Copper bis(acetylacetone)", "Copper diacetylacetonate", "Cupric acetylacetonate", "Bis(acetylacetonato)copper", "Bis(acetylacetone)copper", "Copper bis(2,4-pentanedionate)", "CD 9", "Cupric bis(2,4-pentanedionate)", "Nacem Copper", "Copper(2+) bis(acetylacetonate)", "Copper(II) bis(2,4-pentanedionate)", "Copper acetylacetonate"], "SMILES": "CC1=O[Cu+2]2(O=C(C)[CH-]C(C)=O2)O=C(C)[CH-]1", "physical_data": {"Molecular Weight": "", "Molecular Formula": "C10H14CuO4", "Melting Point": "279-283 \u00b0C", "Density": "0.721 g/cm\u00b3"}}