{"cas_no": "13393-64-1", "cn_name": "1,5,9-\u7678\u4e09\u70ef", "en_name": ["1,5,9-Decatriene", "1,5,9-Decatriene"], "SMILES": "C(=CCCC=C)CCC=C", "physical_data": {"Molecular Weight": "136.23", "Molecular Formula": "C10H16", "Boiling Point": "170 \u00b0C @ Press: 760 Torr"}}