{"cas_no": "13395-02-3", "cn_name": "\u9a6c\u515c\u94c3\u5185\u9170\u80fa", "en_name": ["Aristolactam", "Benzo[f]-1,3-benzodioxolo[6,5,4-cd]indol-5(6H)-one, 8-methoxy-", "8-Methoxybenzo[f]-1,3-benzodioxolo[6,5,4-cd]indol-5(6H)-one", "Aristololactam", "Aristolactam", "Aristolactam I", "Aristololactam I", "NSC 87406"], "SMILES": "O=C1C=2C3=C(C=4C(C=C3N1)=C(OC)C=CC4)C5=C(C2)OCO5", "physical_data": {"Molecular Weight": "293.27", "Molecular Formula": "C17H11NO4", "Melting Point": "319 \u00b0C"}}