{"cas_no": "13391-28-1", "cn_name": "5-\u7532\u6c27\u57fa\u82ef\u5e76\u544b\u5583", "en_name": ["5-Methoxybenzofuran", "Benzofuran, 5-methoxy-", "5-Methoxybenzofuran", "R 7236", "NSC 149953"], "SMILES": "O(C)C=1C=C2C(=CC1)OC=C2", "physical_data": {"Molecular Weight": "148.16", "Molecular Formula": "C9H8O2", "Boiling Point": "266 \u00b0C @ Press: 706 Torr", "Melting Point": "32-33 \u00b0C"}}