{"cas_no": "13398-94-2", "cn_name": "2-(3-\u7f9f\u57fa\u82ef\u57fa)\u4e59\u9187", "en_name": ["3-Hydroxybenzeneethanol", "Benzeneethanol, 3-hydroxy-", "Phenethyl alcohol, m-hydroxy-", "3-Hydroxybenzeneethanol", "m-Hydroxyphenethyl alcohol", "m-Tyrosol", "2-(m-Hydroxyphenyl)ethanol", "3-(\u03b2-Hydroxyethyl)phenol", "2-(3-Hydroxyphenyl)ethanol", "1,3-Tyrosol", "2-(3-Hydroxyphenyl)ethyl alcohol", "3-Hydroxyphenethyl alcohol", "NSC 101846", "3-(2-Hydroxyethyl)phenol", "m-Hydroxyphenylethyl alcohol"], "SMILES": "C(CO)C1=CC(O)=CC=C1", "physical_data": {"Molecular Weight": "138.16", "Molecular Formula": "C8H10O2", "Boiling Point": "168-173 \u00b0C @ Press: 4 Torr"}}