{"cas_no": "13392-69-3", "cn_name": "5-\u7f9f\u57fa \u620a\u9178", "en_name": ["5-Hydroxypentanoic acid", "Pentanoic acid, 5-hydroxy-", "Valeric acid, 5-hydroxy-", "5-Hydroxypentanoic acid", "5-Hydroxyvaleric acid", "\u03b4-Hydroxypentanoic acid"], "SMILES": "C(CCCO)C(O)=O", "physical_data": {"Molecular Weight": "118.13", "Molecular Formula": "C5H10O3", "Boiling Point": "120-122 \u00b0C @ Press: 20 Torr"}}