{"cas_no": "13397-24-5", "cn_name": "\u4e0a(\u72b6)\u77f3\u818f", "en_name": ["Gypsum (Ca(SO4).2H2O)", "Gypsum (Ca(SO4).2H2O)", "Gypsum", "Gypsite", "Landplaster", "Gips", "Crystacal R", "G 75 (mineral)", "G 75", "Duracal Cement", "CoCoat T", "Hydrocal", "G 16 (gypsum)", "Tiger Kencoat", "G 16", "SK", "SK (mineral)", "PE 20A", "G 6", "G 6 (refractory)", "Primoplast", "G 7A", "Hydroperm", "New Diastone", "B-YN Plaster", "G 2 (gypsum)", "B 13 (gypsum)", "B 13", "B-YNN Plaster", "G 40", "Soil-Saver", "FT 2", "FT 2 (mineral)", "J 5", "J 5 (mineral)", "PE 20A (gypsum)", "G 7", "G 10", "Gypstone L", "G 5", "G 5 (mineral)", "Gypsum Fibrosum", "Densite HL-GP", "IAEA 434", "New Fujirock", "GC Fujirock EP", "G 5BP", "P 52A", "Gemstone N 1000", "Q 140422", "DLJ 02", "DLJ 01", "B 80", "ZY 001", "ZY 021", "Hydrocal C-Base", "YS 100G"], "SMILES": "S(=O)(=O)(O)O.[Ca].O", "physical_data": {"Molecular Weight": "", "Molecular Formula": "Ca.H2O4S.2H2O", "Melting Point": "100 \u00b0C", "Density": "2.3 g/cm\u00b3"}}