{"cas_no": "134-31-6", "cn_name": "8-\u7f9f\u57fa\u55b9\u5549\u786b\u9178\u76d0", "en_name": ["Hydroxyquinoline sulfate", "8-Quinolinol, sulfate (2:1)", "8-Quinolinol, sulfate (2:1) (salt)", "Chinosol", "Cryptonol", "8-Hydroxyquinoline sulfate", "8-Hydroxyquinoline sulfuric acid salt", "8-Hydroxyquinoline sulphate", "Octofen", "Oxine sulfate", "8-Quinolinol sulphate", "Quinosol", "Sunoxol", "Superol", "Oxyquinoline sulfate", "8-Quinolinol sulfate (salt)", "8-Quinolinol sulfate", "Quinosol extra", "Khinozol", "Criptonol", "Hydroxyquinoline sulfate", "Solvochin-Extra", "Oxyquinol", "Quinolin-8-ol sulfate (2:1)", "Oxyquinoline Hemisulfate"], "SMILES": "OC=1C2=C(C=CC1)C=CC=N2.S(=O)(=O)(O)O", "physical_data": {"Molecular Weight": "", "Molecular Formula": "C9H7NO.<sup>1</sup>/2H2O4S", "Melting Point": "177.5 \u00b0C"}}