{"cas_no": "134-09-8", "cn_name": "5-\u7532\u57fa-2-(1-\u7532\u57fa\u4e59\u57fa)\u73af\u5df1\u9187 2-\u6c28\u57fa\u82ef\u7532\u9178\u916f", "en_name": ["Menthyl anthranilate", "Cyclohexanol, 5-methyl-2-(1-methylethyl)-, 1-(2-aminobenzoate)", "Anthranilic acid, p-menth-3-yl ester", "Cyclohexanol, 5-methyl-2-(1-methylethyl)-, 2-aminobenzoate", "Menthol, anthranilate", "Antisolaire", "Menthyl anthranilate", "Sunburn preventive No. 2", "Menthyl o-aminobenzoate", "Meradimate", "Neo Heliopan MA", "(5-Methyl-2-propan-2-ylcyclohexyl) 2-aminobenzoate", "2-Amino-benzoic acid 2-isopropyl-5-methyl-cyclohexyl ester"], "SMILES": "C(C)(C)C1C(OC(=O)C2=C(N)C=CC=C2)CC(C)CC1", "physical_data": {"Molecular Weight": "275.39", "Molecular Formula": "C17H25NO2", "Boiling Point": "177-179 \u00b0C"}}