{"cas_no": "134-63-4", "cn_name": "\u76d0\u9178\u6d1b\u8d1d\u6797", "en_name": ["(-)-Lobeline hydrochloride", "Ethanone, 2-[(2R,6S)-6-[(2S)-2-hydroxy-2-phenylethyl]-1-methyl-2-piperidinyl]-1-phenyl-, hydrochloride (1:1)", "Lobeline, hydrochloride", "Ethanone, 2-[6-(2-hydroxy-2-phenylethyl)-1-methyl-2-piperidinyl]-1-phenyl-, hydrochloride, [2R-[2\u03b1,6\u03b1(S*)]]-", "Ethanone, 2-[(2R,6S)-6-[(2S)-2-hydroxy-2-phenylethyl]-1-methyl-2-piperidinyl]-1-phenyl-, hydrochloride", "(-)-Lobeline hydrochloride", "Lobelin hydrochloride", "(-)-\u03b1-Lobeline hydrochloride", "Zoolobelin", "Lobron", "VUF 10751"], "SMILES": "C(C(O)C1=CC=CC=C1)C2N(C)C(CC(=O)C3=CC=CC=C3)CCC2.Cl", "physical_data": {"Molecular Weight": "", "Molecular Formula": "C22H27NO2.ClH", "Melting Point": "178-180 \u00b0C"}}