{"cas_no": "134-84-9", "cn_name": "4-\u7532\u57fa\u4e8c\u82ef\u7532\u916e", "en_name": ["4-Methylbenzophenone", "Methanone, (4-methylphenyl)phenyl-", "Benzophenone, 4-methyl-", "(4-Methylphenyl)phenylmethanone", "4-Methylbenzophenone", "Phenyl p-tolyl ketone", "p-Methylbenzophenone", "p-Tolyl phenyl ketone", "p-Benzoyltoluene", "4-Methylphenyl phenyl ketone", "4-Benzoyltoluene", "Phenyl(4-tolyl)methanone", "p-Methylphenyl phenyl ketone", "NSC 4898", "(Phenyl)(4-methylphenyl)methanone", "UV-Cure PMB", "Speedcure MBP", "SB-PI 712", "JRCure 1024", "Phenyl(p-tolyl)methanone", "1-p-Tolyl-1-phenylmethanone", "Photoinitiator MBZ", "Gencure MBZ", "Omnirad 4MBZ"], "SMILES": "C(=O)(C1=CC=C(C)C=C1)C2=CC=CC=C2", "physical_data": {"Molecular Weight": "196.24", "Molecular Formula": "C14H12O", "Boiling Point": "164-169 \u00b0C @ Press: 9 Torr", "Melting Point": "59.5 \u00b0C", "Density": "1.079 g/cm\u00b3 @ Temp: 20 \u00b0C"}}