{"cas_no": "134-62-3", "cn_name": "\u907f\u868a\u80fa", "en_name": ["N,N-Diethyl-m-toluamide", "Benzamide, N,N-diethyl-3-methyl-", "m-Toluamide, N,N-diethyl-", "N,N-Diethyl-3-methylbenzamide", "ENT 20218", "Delphene", "DET", "DETA", "Detamide", "m-Delphene", "Metadelphene", "3-Methyl-N,N-diethylbenzamide", "Naugatuck DET", "DEET", "Diethyl-m-toluamide", "m-Toluic acid diethylamide", "ENT 22542", "Diethyltoluamide", "m-DETA", "Autan", "Dieltamid", "Flypel", "Off", "AI 3-22542", "Repper DET", "Repudin-Special", "M-Det", "DET (insect repellent)", "Amincene C-EM", "Amincene C 140", "Bepper DET", "N,N-Diethyl-m-methylbenzamide", "N,N-Diethyl-m-tolylamide", "N,N-Diethyl-m-toluamide", "N,N-Diethyl-m-toluamide", "NSC 33840", "Finish MIT", "Ultrathon", "Sawyer Control Release Formula", "Metadelfene", "Amway Hour Guard", "Off! Skintastic", "Cutter Unscented", "Sawyer Controlled-Release", "Vaseline Mosquito Repellent", "N,N-Diethyl-meta-toluamide", "N,N-Diethyl-3-methylbenzoylamide", "Ultra 30", "N,N\u2032-Diethyl-3-methylbenzamide", "Off! Active", "Off! FamilyCare"], "SMILES": "C(N(CC)CC)(=O)C1=CC(C)=CC=C1", "physical_data": {"Molecular Weight": "191.27", "Molecular Formula": "C12H17NO", "Boiling Point": "160 \u00b0C @ Press: 19 Torr", "Melting Point": "-45 \u00b0C", "Density": "0.996 g/cm\u00b3 @ Temp: 20 \u00b0C"}}