{"cas_no": "134-20-3", "cn_name": "\u90bb\u6c28\u57fa\u82ef\u7532\u9178\u7532\u916f", "en_name": ["Methyl anthranilate", "Benzoic acid, 2-amino-, methyl ester", "Anthranilic acid, methyl ester", "Methyl 2-aminobenzoate", "Methyl anthranilate", "Methyl o-aminobenzoate", "2-Aminobenzoic acid methyl ester", "2-(Methoxycarbonyl)aniline", "o-Carbomethoxyaniline", "2-Carbomethoxyaniline", "o-Aminobenzoic acid methyl ester", "ReJex-iT", "Bird Shield", "Rejex-iT TP 40", "Rejex-iT AP 50", "[2-(Methoxycarbonyl)phenyl]amine", "o-(Methoxycarbonyl)aniline", "NSC 3109", "Grain 96-1", "Sunarome UVA", "Methyl 6-aminobenzoate", "Fog Force", "RejeX-it Fog Force", "2-Amino-1-methylbenzoate", "PPC 17F"], "SMILES": "C(OC)(=O)C1=C(N)C=CC=C1", "physical_data": {"Molecular Weight": "151.16", "Molecular Formula": "C8H9NO2", "Boiling Point": "256 \u00b0C", "Melting Point": "24.5 \u00b0C", "Density": "1.168 g/cm\u00b3 @ Temp: 20 \u00b0C"}}