{"cas_no": "134-32-7", "cn_name": "1-\u8418\u80fa", "en_name": ["1-Naphthylamine", "1-Naphthalenamine", "1-Naphthylamine", "1-Aminonaphthalene", "Fast Garnet Base B", "Naphthalidam", "Naphthalidine", "\u03b1-Naphthylamine", "\u03b1-Aminonaphthalene", "C.I. 37265", "1-Naphthalamine", "C.I. Azoic Diazo Component 114", "Naphthalen-1-ylamine", "MeSH ID: D015057"], "SMILES": "NC=1C2=C(C=CC1)C=CC=C2", "physical_data": {"Molecular Weight": "143.19", "Molecular Formula": "C10H9N", "Boiling Point": "300.7 \u00b0C", "Melting Point": "49.2 \u00b0C", "Density": "1.114 g/cm\u00b3"}}