{"cas_no": "134-03-2", "cn_name": "\u7ef4\u751f\u7d20C\u94a0", "en_name": ["Sodium ascorbate", "L-Ascorbic acid, sodium salt (1:1)", "L-Ascorbic acid, monosodium salt", "Ascorbic acid, sodium deriv.", "Ascorbicin", "Ascorbin", "Natrascorb", "Natri-C", "3-Oxo-L-gulofuranolactone sodium", "Sodascorbate", "Sodium ascorbate", "Sodium L-ascorbate", "Vitamin C sodium", "Cebitate", "Cenolate", "Monosodium ascorbate", "Ascorbic acid sodium salt", "L-Ascorbic acid sodium salt", "Iskia C", "HBL 508", "ASK-P 10KR", "CK 40", "CK 40 (ascorbate)", "E 301", "E 301 (antioxidant)", "Limcee", "Monosodium L-ascorbate", "Vitamin C Na salt", "Sodium (+)-L-ascorbate", "Sodium L-(+)-ascorbate", "Vitamin C Na", "Sodium 2-(1,2-dihydroxyethyl)-4-hydroxy-5-oxo-2,5-dihydrofuran-3-olate"], "SMILES": "C(CO)(O)C1C(O)=C(O)C(=O)O1.[Na]", "physical_data": {"Molecular Weight": "", "Molecular Formula": "C6H8O6.Na", "Boiling Point": "235 \u00b0C", "Melting Point": "220 \u00b0C"}}