{"cas_no": "134-52-1", "cn_name": "4-PHENYLBENZENE-1,3-DIOL", "en_name": ["4-Phenylresorcinol", "[1,1\u2032-Biphenyl]-2,4-diol", "Resorcinol, 4-phenyl-", "4-Phenylresorcinol", "1,3-Benzenediol, 4-phenyl-", "2,4-Biphenyldiol", "2,4-Dihydroxybiphenyl", "4-Phenyl-1,3-benzenediol"], "SMILES": "OC1=C(C2=CC=CC=C2)C=CC(O)=C1", "physical_data": {"Molecular Weight": "186.21", "Molecular Formula": "C12H10O2", "Melting Point": "145 \u00b0C"}}