{"cas_no": "134-11-2", "cn_name": "2-\u4e59\u6c27\u57fa\u82ef\u7532\u9178", "en_name": ["2-Ethoxybenzoic acid", "Benzoic acid, 2-ethoxy-", "Benzoic acid, o-ethoxy-", "2-Ethoxybenzoic acid", "o-Ethoxybenzoic acid", "NSC 406710"], "SMILES": "C(O)(=O)C1=C(OCC)C=CC=C1", "physical_data": {"Molecular Weight": "166.17", "Molecular Formula": "C9H10O3", "Boiling Point": "170 \u00b0C @ Press: 0.1 Torr", "Melting Point": "20.7 \u00b0C"}}