{"cas_no": "134-96-3", "cn_name": "\u4e01\u9999\u919b", "en_name": ["Syringaldehyde", "Benzaldehyde, 4-hydroxy-3,5-dimethoxy-", "4-Hydroxy-3,5-dimethoxybenzaldehyde", "3,5-Dimethoxy-4-hydroxybenzaldehyde", "4-Formyl-2,6-dimethoxyphenol", "Gallaldehyde 3,5-dimethyl ether", "Syringaldehyde", "Syringic aldehyde", "Cedar aldehyde", "2,6-Dimethoxy-4-formylphenol", "NSC 41153", "SM 707", "VND 3207", "4-Formylsyringol"], "SMILES": "O(C)C1=C(O)C(OC)=CC(C=O)=C1", "physical_data": {"Molecular Weight": "182.17", "Molecular Formula": "C9H10O4", "Melting Point": "113 \u00b0C"}}