{"cas_no": "134-91-8", "cn_name": "\u4e8c(4-\u4e8c\u4e59\u6c28\u57fa\u82ef\u57fa)\u7532\u9187", "en_name": ["4-(Diethylamino)-\u03b1-[4-(diethylamino)phenyl]benzenemethanol", "Benzenemethanol, 4-(diethylamino)-\u03b1-[4-(diethylamino)phenyl]-", "Benzhydrol, 4,4\u2032-bis(diethylamino)-", "4-(Diethylamino)-\u03b1-[4-(diethylamino)phenyl]benzenemethanol", "4,4\u2032-Bis(diethylamino)benzhydrol", "Bis(4-diethylaminophenyl)methanol"], "SMILES": "C(O)(C1=CC=C(N(CC)CC)C=C1)C2=CC=C(N(CC)CC)C=C2", "physical_data": {"Molecular Weight": "326.48", "Molecular Formula": "C21H30N2O", "Melting Point": "78.5-79 \u00b0C"}}