{"cas_no": "134-85-0", "cn_name": "4-\u6c2f\u4e8c\u82ef\u7532\u916e", "en_name": ["4-Chlorobenzophenone", "Methanone, (4-chlorophenyl)phenyl-", "Benzophenone, 4-chloro-", "Benzophenone, p-chloro-", "(4-Chlorophenyl)phenylmethanone", "p-Chlorobenzophenone", "4-Chlorobenzophenone", "p-CBP", "p-Chlorophenyl phenyl ketone", "CBP", "4-Chlorophenyl phenyl ketone", "NSC 2872", "Initiator 1046", "Phenyl 4-chlorophenyl ketone", "4-Benzoylphenyl chloride", "4-CBP", "1-(4\u2032-Chlorophenyl)-phenylmethanone", "1-p-Chlorophenyl-1-phenylmethanone", "Photoinitiator CBP", "JRcure 1046", "CBZ"], "SMILES": "C(=O)(C1=CC=C(Cl)C=C1)C2=CC=CC=C2", "physical_data": {"Molecular Weight": "216.66", "Molecular Formula": "C13H9ClO", "Boiling Point": "332 \u00b0C @ Press: 771 Torr", "Melting Point": "78 \u00b0C"}}