{"cas_no": "134-81-6", "cn_name": "\u8054\u82ef\u7532\u9170", "en_name": ["Benzil", "1,2-Ethanedione, 1,2-diphenyl-", "Benzil", "Ethanedione, diphenyl-", "1,2-Diphenyl-1,2-ethanedione", "Bibenzoyl", "Dibenzoyl", "Diphenyl-\u03b1,\u03b2-diketone", "1,2-Diphenylethanedione", "Diphenylglyoxal", "Diphenylethanedione", "1,2-Diphenylethane-1,2-dione", "Wy 20910", "Esacure KBO", "Diphenyl diketone", "NSC 220315", "NSC 4041"], "SMILES": "C(C(=O)C1=CC=CC=C1)(=O)C2=CC=CC=C2", "physical_data": {"Molecular Weight": "210.23", "Molecular Formula": "C14H10O2", "Boiling Point": "347 \u00b0C", "Melting Point": "94.8 \u00b0C", "Density": "1.084 g/cm\u00b3"}}