{"cas_no": "134-25-8", "cn_name": "2,4-\u4e8c\u6c2f\u4e9a\u82c4\u57fa\u4e8c\u6c2f", "en_name": ["2,4-Dichloro-1-(dichloromethyl)benzene", "Benzene, 2,4-dichloro-1-(dichloromethyl)-", "Toluene, \u03b1,\u03b1,2,4-tetrachloro-", "2,4-Dichloro-1-(dichloromethyl)benzene", "\u03b1,\u03b1,2,4-Tetrachlorotoluene", "2,4-Dichlorobenzal chloride"], "SMILES": "C(Cl)(Cl)C1=C(Cl)C=C(Cl)C=C1", "physical_data": {"Molecular Weight": "229.92", "Molecular Formula": "C7H4Cl4", "Boiling Point": "110-115 \u00b0C @ Press: 1 Torr"}}