{"cas_no": "134-36-1", "cn_name": "\u7ea2\u9709\u7d20\u4e19\u9178\u916f", "en_name": ["Erythromycin propionate", "Erythromycin, 2\u2032-propanoate", "Erythromycin, 2\u2032-propionate", "Erythromycin propionate", "Oxacyclotetradecane, erythromycin deriv.", "Propionylerythromycin", "2\u2032-Propionylerythromycin", "Propionyl erythromicin", "Propiocine"], "SMILES": "O(C1C(OC(CC)=O)C(N(C)C)CC(C)O1)C2C(C)C(OC3CC(OC)(C)C(O)C(C)O3)C(C)C(=O)OC(CC)C(C)(O)C(O)C(C)C(=O)C(C)CC2(C)O", "physical_data": {"Molecular Weight": "789.99", "Molecular Formula": "C40H71NO14", "Melting Point": "122-126 \u00b0C"}}