{"cas_no": "134-04-3", "cn_name": "\u6c2f\u5316\u82b1\u8475\u7d20", "en_name": ["Pelargonidin chloride", "1-Benzopyrylium, 3,5,7-trihydroxy-2-(4-hydroxyphenyl)-, chloride (1:1)", "Pelargonidin", "Flavylium, 3,4\u2032,5,7-tetrahydroxy-, chloride", "1-Benzopyrylium, 3,5,7-trihydroxy-2-(4-hydroxyphenyl)-, chloride", "3,4\u2032,5,7-Tetrahydroxyflavylium chloride", "Pelargonidin chloride", "Pelargonidol chloride"], "SMILES": "OC=1C2=C([O+]=C(C(O)=C2)C3=CC=C(O)C=C3)C=C(O)C1.[Cl-]", "physical_data": {"Molecular Weight": "", "Molecular Formula": "C15H11O5.Cl", "Melting Point": "&gt;350 \u00b0C"}}