{"cas_no": "134-72-5", "cn_name": "\u786b\u9178\u9ebb\u9ec4\u78b1", "en_name": ["(-)-Ephedrine sulfate", "Benzenemethanol, \u03b1-[(1S)-1-(methylamino)ethyl]-, (\u03b1R)-, sulfate (2:1)", "Ephedrine, sulfate (2:1) (salt), (-)-", "Benzenemethanol, \u03b1-[1-(methylamino)ethyl]-, [R-(R*,S*)]-, sulfate (2:1) (salt)", "Benzenemethanol, \u03b1-[(1S)-1-(methylamino)ethyl]-, (\u03b1R)-, sulfate (2:1) (salt)", "Ephedrine sulfate", "Isofedrol", "(1R,2S)-1-Phenyl-2-methylaminopropanol-1 sulfate", "l-Ephedrine sulfate", "(-)-Ephedrine sulfate", "(-)-erythro-1-Hydroxy-2-(methylamino)-1-phenylpropane sulfate", "Ephedrine sulphate", "(-)-Ephedrine hemisulfate"], "SMILES": "C(C(NC)C)(O)C1=CC=CC=C1.S(=O)(=O)(O)O", "physical_data": {"Molecular Weight": "", "Molecular Formula": "C10H15NO.<sup>1</sup>/2H2O4S", "Melting Point": "245 \u00b0C (decomp)"}}