{"cas_no": "134-71-4", "cn_name": "DL-\u76d0\u9178\u9ebb\u9ec4\u78b1", "en_name": ["DL-Ephedrine hydrochloride", "Benzenemethanol, \u03b1-[(1R)-1-(methylamino)ethyl]-, hydrochloride (1:1), (\u03b1S)-rel-", "Ephedrine, hydrochloride, (\u00b1)-", "Benzenemethanol, \u03b1-[1-(methylamino)ethyl]-, hydrochloride, (R*,S*)-(\u00b1)-", "Benzenemethanol, \u03b1-[(1R)-1-(methylamino)ethyl]-, hydrochloride, (\u03b1S)-rel-", "dl-Ephedrine hydrochloride", "Ephetonin", "Ephetonine", "dl-\u03b1-[1-(Methylamino)ethyl]benzyl Alcohol Hydrochloride", "Racephedrine Hydrochloride", "(\u00b1)-Ephedrine hydrochloride", "DL-erythro-Ephedrine hydrochloride", "DL-Ephedrine hydrochloride", "Benzenemethanol, \u03b1-[1-(methylamino)ethyl]-, hydrochloride, (R*,S*)-", "(\u00b1)-2-Ephedrinium hydrochloride"], "SMILES": "C(C(NC)C)(O)C1=CC=CC=C1.Cl", "physical_data": {"Molecular Weight": "", "Molecular Formula": "C10H15NO.ClH", "Melting Point": "134 \u00b0C"}}