{"cas_no": "134-80-5", "cn_name": "\u76d0\u9178\u5b89\u975e\u62c9\u916e", "en_name": ["Diethylpropion hydrochloride", "1-Propanone, 2-(diethylamino)-1-phenyl-, hydrochloride (1:1)", "Propiophenone, 2-(diethylamino)-, hydrochloride", "1-Propanone, 2-(diethylamino)-1-phenyl-, hydrochloride", "Amphepramonum hydrochloride", "\u03b1-Benzoyltriethylamine hydrochloride", "\u03b1-Benzoyltriethylammonium chloride", "2-(Diethylamino)propiophenone hydrochloride", "Diethylpropione hydrochloride", "Diethylpropion hydrochloride", "1-Phenyl-2-(diethylamino)propanone-1 hydrochloride", "Regenon hydrochloride", "Tenuate", "Tenuate hydrochloride", "Amfepramon hydrochloride", "\u03b1-(Diethylamino)propiophenone hydrochloride", "Fepranon", "Phepranon", "Tenuate-Dospan", "Moderatan", "Modulor", "Prefamone", "Regenon", "Parabolin", "Danylen", "Anorex", "Dobesin", "Keramik", "Frekentine", "Tepanil", "Tylinal", "Keramin", "Anfamon", "N,N-Diethylcathinone hydrochloride", "2-(Diethylamino)-1-phenylpropan-1-one hydrochloride"], "SMILES": "C(C(N(CC)CC)C)(=O)C1=CC=CC=C1.Cl", "physical_data": {"Molecular Weight": "", "Molecular Formula": "C13H19NO.ClH", "Melting Point": "168 \u00b0C (decomp)"}}