{"cas_no": "134-58-7", "cn_name": "8-\u6c2e\u9e1f\u560c\u5464", "en_name": ["Azaguanine", "7H-1,2,3-Triazolo[4,5-d]pyrimidin-7-one, 5-amino-3,6-dihydro-", "7H-v-Triazolo[4,5-d]pyrimidin-7-one, 5-amino-1,6-dihydro-", "7H-1,2,3-Triazolo[4,5-d]pyrimidin-7-one, 5-amino-1,4-dihydro-", "v-Triazolo[4,5-d]pyrimidin-7-ol, 5-amino-", "5-Amino-3,6-dihydro-7H-1,2,3-triazolo[4,5-d]pyrimidin-7-one", "8-AG", "8-Azaguanine", "Azan", "5-Amino-7-hydroxy-1H-v-triazolo[d]pyrimidine", "5-Amino-1H-v-triazolo[d]pyrimidin-7-ol", "Guanazolo", "Azaguanine", "Pathocidine", "5-Amino-1H-vic-triazolo[d]pyrimidin-7-ol", "Guanazol", "NSC 749", "Pathocidin", "NSC 151069", "NSC 223526", "MeSH ID: D001375"], "SMILES": "O=C1C2=C(NC(N)=N1)N=NN2", "physical_data": {"Molecular Weight": "152.11", "Molecular Formula": "C4H4N6O", "Melting Point": "300 \u00b0C"}}