{"cas_no": "134-29-2", "cn_name": "\u90bb\u8334\u9999\u80fa\u76d0\u9178\u76d0", "en_name": ["o-Anisidine, hydrochloride", "Benzenamine, 2-methoxy-, hydrochloride (1:1)", "o-Anisidine, hydrochloride", "Benzenamine, 2-methoxy-, hydrochloride", "C.I. 37115", "Fast Red BB Base", "2-Methoxyaniline hydrochloride", "o-Methoxyaniline hydrochloride", "2-Methoxybenzenamine hydrochloride"], "SMILES": "O(C)C1=C(N)C=CC=C1.Cl", "physical_data": {"Molecular Weight": "", "Molecular Formula": "C7H9NO.ClH", "Melting Point": "228-230 \u00b0C"}}