{"cas_no": "13402-96-5", "cn_name": "2,4-\u4e8c\u7279\u620a\u57fa\u82ef\u6c27\u57fa\u4e59\u9178", "en_name": ["2-[2,4-Bis(1,1-dimethylpropyl)phenoxy]acetic acid", "Acetic acid, 2-[2,4-bis(1,1-dimethylpropyl)phenoxy]-", "Acetic acid, (2,4-di-tert-pentylphenoxy)-", "Acetic acid, [2,4-bis(1,1-dimethylpropyl)phenoxy]-", "2-[2,4-Bis(1,1-dimethylpropyl)phenoxy]acetic acid", "2,4-Di-tert-amylphenoxyacetic acid", "2-(2,4-Di-tert-amylphenoxy)acetic acid", "2,4-Bis(1,1-dimethylpropyl)phenoxyacetic acid", "2-(2,4-Di-tert-pentylphenoxy)aceticacid", "2-[2,4-Bis(2-methylbutan-2-yl)phenoxy]acetic acid", "2-(2,4-Di-tert-pentylphenoxy)acetic acid"], "SMILES": "C(CC)(C)(C)C1=C(OCC(O)=O)C=CC(C(CC)(C)C)=C1", "physical_data": {"Molecular Weight": "292.41", "Molecular Formula": "C18H28O3", "Melting Point": "116-117 \u00b0C"}}