{"cas_no": "13401-56-4", "cn_name": "3-\u6c2f-2,2-\u4e8c\u7532\u57fa-1-\u4e19\u9187", "en_name": ["3-Chloro-2,2-dimethylpropanol", "1-Propanol, 3-chloro-2,2-dimethyl-", "3-Chloro-2,2-dimethyl-1-propanol", "3-Chloro-2,2-dimethylpropanol", "NSC 245179", "2,2-Dimethyl-3-chloropropan-1-ol"], "SMILES": "C(CCl)(CO)(C)C", "physical_data": {"Molecular Weight": "122.59", "Molecular Formula": "C5H11ClO", "Boiling Point": "78-80 \u00b0C @ Press: 10 Torr", "Melting Point": "35 \u00b0C"}}