{"cas_no": "134030-22-1", "cn_name": "N,N'-\u4e8c(2,6-\u4e8c\u5f02\u4e19\u57fa\u82ef\u57fa)\u4e59\u4e8c\u80fa", "en_name": ["N1,N2-Bis[2,6-bis(1-methylethyl)phenyl]-1,2-ethanediamine", "1,2-Ethanediamine, N1,N2-bis[2,6-bis(1-methylethyl)phenyl]-", "1,2-Ethanediamine, N,N\u2032-bis[2,6-bis(1-methylethyl)phenyl]-", "N1,N2-Bis[2,6-bis(1-methylethyl)phenyl]-1,2-ethanediamine", "N,N\u2032-Bis(2,6-diisopropylphenyl)ethylenediamine", "N-[2-[(2,6-Diisopropylphenyl)amino]ethyl]-2,6-diisopropylaniline", "N,N\u2032-Bis(2,6-diisopropylphenyl)ethane-1,2-diamine"], "SMILES": "N(CCNC1=C(C(C)C)C=CC=C1C(C)C)C2=C(C(C)C)C=CC=C2C(C)C", "physical_data": {"Molecular Weight": "380.61", "Molecular Formula": "C26H40N2", "Melting Point": "101.5 \u00b0C"}}