{"cas_no": "13403-01-5", "cn_name": "2-(2,4-\u4e8c\u7279\u620a\u57fa\u82ef\u6c27\u57fa)\u4e01\u9178", "en_name": ["2-[2,4-Bis(1,1-dimethylpropyl)phenoxy]butanoic acid", "Butanoic acid, 2-[2,4-bis(1,1-dimethylpropyl)phenoxy]-", "Butyric acid, 2-(2,4-di-tert-pentylphenoxy)-", "2-[2,4-Bis(1,1-dimethylpropyl)phenoxy]butanoic acid", "2-(2,4-Di-tert-amylphenoxy)butyric acid", "2-(2,4-Di-tert-pentylphenoxy)butyric acid", "2-(2,4-Di-tert-pentylphenoxy)butanoic acid", "2-[2,4-Bis-(1,1-dimethyl-propyl)-phenoxy]-butyric acid"], "SMILES": "O(C(C(O)=O)CC)C1=C(C(CC)(C)C)C=C(C(CC)(C)C)C=C1", "physical_data": {"Molecular Weight": "320.47", "Molecular Formula": "C20H32O3", "Boiling Point": "170-200 \u00b0C @ Press: 1.0 Torr", "Melting Point": "76-78 \u00b0C"}}