{"cas_no": "13401-40-6", "cn_name": "\u83dc\u8c46\u86cb\u767d", "en_name": ["(-)-Phaseollin", "3H,7H-Furo[3,2-c:5,4-f\u2032]bis[1]benzopyran-10-ol, 6b,12b-dihydro-3,3-dimethyl-, (6bR,12bR)-", "3H,7H-Furo[3,2-c:5,4-f\u2032]bis[1]benzopyran-10-ol, 6b,12b-dihydro-3,3-dimethyl-, (6bR-cis)-", "3H,7H-Furo[3,2-c:5,4-f\u2032]bis[1]benzopyran-10-ol, 6b,12b-dihydro-3,3-dimethyl-", "(6bR,12bR)-6b,12b-Dihydro-3,3-dimethyl-3H,7H-furo[3,2-c:5,4-f\u2032]bis[1]benzopyran-10-ol", "Phaseolin (phytoalexin)", "Phaseolin", "(-)-Phaseollin"], "SMILES": "CC1(C)OC=2C(=C3C(C4C(O3)C=5C(OC4)=CC(O)=CC5)=CC2)C=C1", "physical_data": {"Molecular Weight": "322.35", "Molecular Formula": "C20H18O4", "Melting Point": "177.5 \u00b0C"}}