{"cas_no": "13402-55-6", "cn_name": "4-\u7f9f\u57fa\u5432\u54da\u916e", "en_name": ["1,3-Dihydro-4-hydroxy-2H-indol-2-one", "2H-Indol-2-one, 1,3-dihydro-4-hydroxy-", "2-Indolinone, 4-hydroxy-", "1,3-Dihydro-4-hydroxy-2H-indol-2-one", "4-Hydroxyoxindole", "4-Hydroxy-2-oxindole", "4-Hydroxy-2-indolinone", "4-Hydroxy-1,3-dihydro-2H-indol-2-one"], "SMILES": "OC1=C2C(NC(=O)C2)=CC=C1", "physical_data": {"Molecular Weight": "149.15", "Molecular Formula": "C8H7NO2", "Melting Point": "267 \u00b0C"}}