{"cas_no": "13408-56-5", "cn_name": "\u5761\u90a3\u753e\u916eA", "en_name": ["Ponasterone A", "Cholest-7-en-6-one, 2,3,14,20,22-pentahydroxy-, (2\u03b2,3\u03b2,5\u03b2,22R)-", "5\u03b2-Cholest-7-en-6-one, 2\u03b2,3\u03b2,14,20,22-pentahydroxy-, (22R)-", "(2\u03b2,3\u03b2,5\u03b2,22R)-2,3,14,20,22-Pentahydroxycholest-7-en-6-one", "Ponasterone A", "25-Deoxyecdysterone"], "SMILES": "OC12C=3C(C4(C)C(C(=O)C3)CC(O)C(O)C4)CCC1(C)C(C(C(CCC(C)C)O)(C)O)CC2", "physical_data": {"Molecular Weight": "464.63", "Molecular Formula": "C27H44O6", "Melting Point": "259-260 \u00b0C (decomp)"}}