{"cas_no": "13402-02-3", "cn_name": "\u4e19\u70ef\u9178\u5341\u516d\u916f", "en_name": ["Hexadecyl acrylate", "2-Propenoic acid, hexadecyl ester", "Acrylic acid, hexadecyl ester", "1-Hexadecanol, acrylate", "Palmityl acrylate", "Hexadecyl acrylate", "Cetyl acrylate", "n-Hexadecyl acrylate", "NSC 72788", "Photomer 4816", "Hexadecanyl acrylate", "CD 585", "Blemmer CA", "Komerate A 169"], "SMILES": "C(CCCCCCCCCCCC)CCCOC(C=C)=O", "physical_data": {"Molecular Weight": "296.49", "Molecular Formula": "C19H36O2", "Boiling Point": "148 \u00b0C @ Press: 0.04 Torr", "Melting Point": "24 \u00b0C", "Density": "0.8628 g/cm\u00b3 @ Temp: 30 \u00b0C"}}