{"cas_no": "13404-22-3", "cn_name": "L-\u4e19\u6c28\u9178\u53d4\u4e01\u916f\u76d0\u9178\u76d0", "en_name": ["L-Alanine tert-butyl ester hydrochloride", "L-Alanine, 1,1-dimethylethyl ester, hydrochloride (1:1)", "Alanine, tert-butyl ester, hydrochloride, L-", "L-Alanine, 1,1-dimethylethyl ester, hydrochloride", "Alanine tert-butyl ester hydrochloride", "tert-Butyl L-alaninate hydrochloride", "L-Alanine tert-butyl ester hydrochloride", "tert-Butyl (S)-2-aminopropanoate hydrochloride", "(S)-2-Aminopropionic acid tert-butyl ester hydrochloride", "(S)-Alanine tert-butyl ester hydrochloride", "L-Alanine tert-Butyl ester hydrogen chloride", "L-Ala-OtBu\u00b7HCl"], "SMILES": "C(OC(C)(C)C)(C(C)N)=O.Cl", "physical_data": {"Molecular Weight": "", "Molecular Formula": "C7H15NO2.ClH", "Melting Point": "168 \u00b0C (decomp)"}}