{"cas_no": "13405-60-2", "cn_name": "1-\u6ca1\u98df\u5b50\u9178\u9170\u8461\u8404\u7cd6", "en_name": ["1-O-Galloyl-\u03b2-D-glucose", "\u03b2-D-Glucopyranose, 1-(3,4,5-trihydroxybenzoate)", "Glucopyranose, 1-gallate, \u03b2-D-", "\u03b2-D-Glucose, 1-gallate", "1-O-Galloyl-\u03b2-D-glucose", "\u03b2-D-Glucogallin", "\u03b2-Glucogallin", "1-Galloyl-\u03b2-glucose", "1-Galloylglucose", "D-Glucose 1-(3,4,5-trihydroxybenzoate)", "1(\u03b2)-O-Galloylglucose", "Gallotannin 1", "1-O-Galloyl-\u03b2-D-glucopyranose", "Gallic glucoside"], "SMILES": "O(C(=O)C1=CC(O)=C(O)C(O)=C1)C2OC(CO)C(O)C(O)C2O", "physical_data": {"Molecular Weight": "332.26", "Molecular Formula": "C13H16O10", "Melting Point": "214 \u00b0C"}}