{"cas_no": "1341-49-7", "cn_name": "\u6c1f\u5316\u6c22\u94f5", "en_name": ["Ammonium bifluoride", "Ammonium fluoride ((NH4)(HF2))", "Ammonium bifluoride", "Acid ammonium fluoride", "Ammonium hydrogen fluoride", "Ammonium fluoride compd. with hydrogen fluoride (1:1)", "Ammonium hydrogen bifluoride", "Ammonium difluoride", "Ammonium bifluoride (NH5F2)", "Ammonium hydrogen difluoride", "Ammonium hydrofluoride (NH4HF2)", "Ammonium hydrofluoride (NH5F2)", "Ammonium bifluoride (NH4HF2)", "Ammonium hydrogen difluoride (NH4(HF2))", "Ammonium difluoride (NH4HF2)", "Ammonium hydrogen fluoride ((NH4)(HF2))", "Ammonium monohydrogen difluoride", "Flammon", "Hydrofluoric acid compd. with ammonium fluoride (NH4)F (1:1)", "Ammonium fluoride hydrofluoride", "Chemfos AFL"], "SMILES": "[NH4+].[H+]([F-])[F-]", "physical_data": {"Molecular Weight": "", "Molecular Formula": "F2H.H4N", "Boiling Point": "240 \u00b0C", "Melting Point": "125.6 \u00b0C", "Density": "1.50 g/cm\u00b3"}}