{"cas_no": "13419-69-7", "cn_name": "\u53cd\u5f0f-2-\u5df1\u70ef\u9178", "en_name": ["trans-2-Hexenoic acid", "2-Hexenoic acid, (2E)-", "2-Hexenoic acid, (E)-", "(2E)-2-Hexenoic acid", "trans-2-Hexenoic acid", "(E)-2-Hexenoic acid"], "SMILES": "C(=CCCC)C(O)=O", "physical_data": {"Molecular Weight": "114.14", "Molecular Formula": "C6H10O2", "Boiling Point": "98-102 \u00b0C @ Press: 8 Torr", "Melting Point": "30-32 \u00b0C", "Density": "0.946945 g/cm\u00b3 @ Temp: 20 \u00b0C"}}