{"cas_no": "13411-42-2", "cn_name": "2-\u4e09\u7532\u57fa\u7845\u57fa-1,3-\u4e8c\u567b\u5429", "en_name": ["2-(Trimethylsilyl)-1,3-dithiane", "1,3-Dithiane, 2-(trimethylsilyl)-", "Silane, m-dithian-2-yltrimethyl-", "Silane, 1,3-dithian-2-yltrimethyl-", "2-(Trimethylsilyl)-1,3-dithiane", "(1,3-Dithian-2-yl)trimethylsilane"], "SMILES": "[Si](C)(C)(C)C1SCCCS1", "physical_data": {"Molecular Weight": "192.42", "Molecular Formula": "C7H16S2Si", "Boiling Point": "85 \u00b0C @ Press: 1 Torr", "Density": "1.014 g/cm\u00b3"}}