{"cas_no": "13417-49-7", "cn_name": "5,6-\u4e8c\u6c22-2-H\u5421\u5583-3-\u7532\u919b", "en_name": ["5,6-Dihydro-2H-pyran-3-carboxaldehyde", "2H-Pyran-3-carboxaldehyde, 5,6-dihydro-", "5,6-Dihydro-2H-pyran-3-carboxaldehyde", "3-Formyl-5,6-dihydro-2H-pyran", "3,6-Dihydro-2H-pyran-5-carbaldehyde"], "SMILES": "C(=O)C1=CCCOC1", "physical_data": {"Molecular Weight": "112.13", "Molecular Formula": "C6H8O2", "Boiling Point": "49.2 \u00b0C", "Density": "1.114 g/cm\u00b3 @ Temp: 20 \u00b0C"}}