{"cas_no": "13411-16-0", "cn_name": "\u785d\u544b\u5421\u9187", "en_name": ["Nifurpirinol", "2-Pyridinemethanol, 6-[2-(5-nitro-2-furanyl)ethenyl]-", "2-Pyridinemethanol, 6-[2-(5-nitro-2-furyl)vinyl]-", "6-[2-(5-Nitro-2-furanyl)ethenyl]-2-pyridinemethanol", "6-(Hydroxymethyl)-2-[2-(5-nitro-2-furyl)vinyl]pyridine", "Nifurpirinol", "P 7138", "NF 323", "Furanace", "Furpyrinol", "Furanace 10", "Prefuran", "Furpirinol"], "SMILES": "C(=CC=1N=C(CO)C=CC1)C=2OC(N(=O)=O)=CC2", "physical_data": {"Molecular Weight": "246.22", "Molecular Formula": "C12H10N2O4", "Melting Point": "170-171 \u00b0C"}}