{"cas_no": "13414-95-4", "cn_name": "4,5,6,7-\u56db\u6c22-4-\u82ef\u5e76\u567b\u5429", "en_name": ["6,7-Dihydrobenzo[b]thiophen-4(5H)-one", "Benzo[b]thiophen-4(5H)-one, 6,7-dihydro-", "6,7-Dihydrobenzo[b]thiophen-4(5H)-one", "4-keto-4,5,6,7-Tetrahydrothianaphthene", "4,5,6,7-Tetrahydro-4-benzo[b]thiophenone", "4-Oxo-4,5,6,7-tetrahydrothianaphthene", "4,5,6,7-Tetrahydrothianaphthen-4-one", "4-Oxo-4,5,6,7-tetrahydrobenzo[b]thiophene", "6,7-Dihydrobenzothiophen-4(5H)-one", "6,7-Dihydro-1-benzo[b]thiophen-4(5H)-one", "6,7-Dihydro-1-benzothiophen-4(5H)-one", "NSC 99002", "4,5,6,7-Tetrahydrobenzothiophen-4-one", "6,7-Dihydro-4-benzo[b]thiophenone", "6,7-Dihydrobenzo[b]thiophen-4-one", "6,7-Dihydro-4(5H)-benzothiophene", "6,7-Dihydrobenzo[b]thien-4(5H)-one"], "SMILES": "O=C1C2=C(CCC1)SC=C2", "physical_data": {"Molecular Weight": "152.21", "Molecular Formula": "C8H8OS", "Boiling Point": "102-110 \u00b0C @ Press: 2 Torr", "Melting Point": "35.5-37 \u00b0C"}}