{"cas_no": "13421-13-1", "cn_name": "4-\u6c2f-2-\u7898\u82ef\u7532\u9178", "en_name": ["4-Chloro-2-iodobenzoic acid", "Benzoic acid, 4-chloro-2-iodo-", "4-Chloro-2-iodobenzoic acid", "2-Iodo-4-chlorobenzoic acid"], "SMILES": "C(O)(=O)C1=C(I)C=C(Cl)C=C1", "physical_data": {"Molecular Weight": "282.46", "Molecular Formula": "C7H4ClIO2", "Melting Point": "161-163 \u00b0C"}}