{"cas_no": "13423-15-9", "cn_name": "3-\u7532\u57fa\u56db\u6c22\u544b\u5583", "en_name": ["3-Methyltetrahydrofuran", "Furan, tetrahydro-3-methyl-", "Furan, tetrahydro-3-methyl-, (\u00b1)-", "Tetrahydro-3-methylfuran", "3-Methyltetrahydrofuran", "(\u00b1)-3-Methyltetrahydrofuran", "NSC 91487", "3-Methyloxolane"], "SMILES": "CC1CCOC1", "physical_data": {"Molecular Weight": "86.13", "Molecular Formula": "C5H10O", "Boiling Point": "86.5 \u00b0C", "Density": "0.8643 g/cm\u00b3 @ Temp: 20 \u00b0C"}}