{"cas_no": "13425-93-9", "cn_name": "4-\u7f9f\u57fa-6,7-\u4e8c\u7532\u6c27\u57fa\u55b9\u5549", "en_name": ["6,7-Dimethoxy-4-hydroxyquinoline", "4-Quinolinol, 6,7-dimethoxy-", "6,7-Dimethoxy-4-quinolinol", "6,7-Dimethoxy-4-hydroxyquinoline"], "SMILES": "OC=1C2=C(C=C(OC)C(OC)=C2)N=CC1", "physical_data": {"Molecular Weight": "205.21", "Molecular Formula": "C11H11NO3", "Melting Point": "224-225 \u00b0C"}}