{"cas_no": "13429-83-9", "cn_name": "(1S)-(-)-\u6a1f\u8111\u70f7\u9178", "en_name": ["(1S,4R)-4,7,7-Trimethyl-3-oxo-2-oxabicyclo[2.2.1]heptane-1-carboxylic acid", "2-Oxabicyclo[2.2.1]heptane-1-carboxylic acid, 4,7,7-trimethyl-3-oxo-, (1S,4R)-", "2-Oxabicyclo[2.2.1]heptane-1-carboxylic acid, 4,7,7-trimethyl-3-oxo-, (1S)-", "(1S,4R)-4,7,7-Trimethyl-3-oxo-2-oxabicyclo[2.2.1]heptane-1-carboxylic acid", "(-)-Camphanic acid", "Camphanic acid", "\u03c9-Camphanic acid, (-)-", "(-)-\u03c9-Camphanic acid", "(1S,4R)-(-)-Camphanic acid", "(1S)-Camphanic acid", "(1S)-(-)-Camphanic acid", "(1S,4R)-\u03c9-Camphanic acid", "(S)-Camphanic acid", "(1R,4R)-4,7,7-Trimethyl-3-oxo-2-oxabicyclo[2.2.1]heptane-1-carboxylic acid"], "SMILES": "C(O)(=O)C12C(C)(C)C(C)(C(=O)O1)CC2", "physical_data": {"Molecular Weight": "198.22", "Molecular Formula": "C10H14O4", "Boiling Point": "108-110 \u00b0C @ Press: 13 Torr", "Melting Point": "199-200 \u00b0C"}}