{"cas_no": "13423-73-9", "cn_name": "\u5f02\u4e19\u915a-4-\u7fa7\u9178", "en_name": ["4-Hydroxy-3,5-bis(1-methylethyl)benzoic acid", "Benzoic acid, 4-hydroxy-3,5-bis(1-methylethyl)-", "Benzoic acid, 4-hydroxy-3,5-diisopropyl-", "4-Hydroxy-3,5-bis(1-methylethyl)benzoic acid", "4-Hydroxy-3,5-diisopropylbenzoic acid", "3,5-Diisopropyl-4-hydroxybenzoic acid"], "SMILES": "C(C)(C)C1=C(O)C(C(C)C)=CC(C(O)=O)=C1", "physical_data": {"Molecular Weight": "222.28", "Molecular Formula": "C13H18O3", "Melting Point": "141 \u00b0C"}}