{"cas_no": "13422-51-0", "cn_name": "\u7f9f\u94b4\u80fa", "en_name": ["Hydroxocobalamin", "Cobinamide, Co-hydroxy-, f-(dihydrogen phosphate), inner salt, 3\u2032-ester with (5,6-dimethyl-1-\u03b1-D-ribofuranosyl-1H-benzimidazole-\u03baN3)", "Cobinamide, dihydroxide, dihydrogen phosphate (ester), mono(inner salt), 3\u2032-ester with 5,6-dimethyl-1-\u03b1-D-ribofuranosylbenzimidazole", "Cobinamide, dihydroxide, dihydrogen phosphate (ester), mono(inner salt), 3\u2032-ester with 5,6-dimethyl-1-\u03b1-D-ribofuranosyl-1H-benzimidazole", "Hydroxocobalamin", "Vitamin B12a", "Hydroxycobalamin", "Hydroxycobalamine", "Hydroxocobalamine", "Vibeden", "Cobinamide hydroxide phosphate 3\u2032-ester with 5,6-dimethyl-1-\u03b1-D-ribofuranosylbenzimidazole inner salt", "\u03b1-(5,6-Dimethylbenzimidazolyl)hydroxocobamide", "Hydroxocobemine", "Alpha Cobione", "Axlon", "Ciplamin H", "Cobalex", "Docclan", "Docevita", "Duradoce", "Duralta-12", "Hydrogrisevit", "Hydrovit", "Hyxobamine", "Idrogrisevit", "Neo-Cytamen", "Neo-Macrabin", "Neo-Rojamin", "OH-Duphar", "Oxobemin", "AlphaRedisol", "Vitadurin", "Primabalt RP", "Hydroxy vitamin B12", "Cobalamin, hydroxo-", "Hydrocobalamin", "Redisol H", "Docelan", "Codroxomin", "Ducobee Hy", "Droxomin", "Cobalin H", "Sytobex H", "Neo-Betalin 12", "Megamilbedoce", "Cyanokit", "Depovit B12", "MeSH ID: D006879"], "SMILES": "[OH-][Co+3]1234[N]=5C6(C)C7[N-]1C(C(C)(C7CC(N)=O)CCC(=O)NCC(C)OP(=O)([O-])OC8C(O)C(N9C=[N]2C=%10C9=CC(C)=C(C)C%10)OC8CO)=C(C)C%11=[N]3C(=CC%12=[N]4C(=C(C)C5C(CCC(N)=O)C6(CC(N)=O)C)C(CC(N)=O)(C)C%12CCC(N)=O)C(C)(C)C%11CCC(N)=O", "physical_data": {"Molecular Weight": "", "Molecular Formula": "C62H89CoN13O15P", "Melting Point": "&gt;300 \u00b0C"}}