{"cas_no": "13423-60-4", "cn_name": "1 -\u82ef\u57fa-1H -1,2,4-\u4e09\u6c2e\u5511", "en_name": ["1-Phenyl-1H-1,2,4-triazole", "1H-1,2,4-Triazole, 1-phenyl-", "1-Phenyl-1H-1,2,4-triazole", "1-Phenyl-1,2,4-triazole", "1-Phenyl-s-triazole", "N-Phenyl-1H-1,2,4-triazole", "NSC 609753"], "SMILES": "N1(C=NC=N1)C2=CC=CC=C2", "physical_data": {"Molecular Weight": "145.16", "Molecular Formula": "C8H7N3", "Boiling Point": "268-270 \u00b0C", "Melting Point": "47 \u00b0C"}}