{"cas_no": "13423-48-8", "cn_name": "(1-\u5e9a\u57fa)\u4e09\u82ef\u57fa\u6eb4\u5316\u78f7", "en_name": ["Phosphonium, heptyltriphenyl-, bromide (1:1)", "Phosphonium, heptyltriphenyl-, bromide (1:1)", "Phosphonium, heptyltriphenyl-, bromide", "Heptyltriphenylphosphonium bromide", "n-Heptyltriphenylphosphonium bromide", "Triphenylheptylphosphonium bromide", "Bromo(heptyl)triphenylphosphorane", "H 0545"], "SMILES": "[P+](CCCCCCC)(C1=CC=CC=C1)(C2=CC=CC=C2)C3=CC=CC=C3.[Br-]", "physical_data": {"Molecular Weight": "", "Molecular Formula": "C25H30P.Br", "Melting Point": "170 \u00b0C"}}