{"cas_no": "13429-24-8", "cn_name": "\u516d\u6c1f\u4e19\u70ef\u4e8c\u805a\u7269", "en_name": ["1-Propene, 1,1,2,3,3,3-hexafluoro-, dimer", "1-Propene, 1,1,2,3,3,3-hexafluoro-, dimer", "Propene, hexafluoro-, cyclic dimer", "Hexafluoropropene dimer", "Hexafluoropropylene dimer", "Cheminox HFP-D", "1,1,2,3,3,3-Hexafluoro-1-propene dimer"], "SMILES": "C(C(F)(F)F)(=C(F)F)F", "physical_data": {"Molecular Weight": "", "Molecular Formula": "(C3F6)2", "Boiling Point": "56 \u00b0C"}}