{"cas_no": "13431-41-9", "cn_name": "4-\u82c4\u57fa-3-\u6c28\u57fa\u786b\u8132", "en_name": ["4-Benzylthiosemicarbazide", "Hydrazinecarbothioamide, N-(phenylmethyl)-", "Semicarbazide, 4-benzyl-3-thio-", "N-(Phenylmethyl)hydrazinecarbothioamide", "B 1308", "4-Benzylthiosemicarbazide", "4-Benzyl-3-thiosemicarbazide", "NSC 263514", "4-Benzylhydrazinethiocarbamide", "N-Benzylthiosemicarbazide", "1-Amino-3-benzylthiourea", "3-Amino-1-benzylthiourea"], "SMILES": "C(NC(NN)=S)C1=CC=CC=C1", "physical_data": {"Molecular Weight": "181.26", "Molecular Formula": "C8H11N3S", "Melting Point": "130 \u00b0C"}}