{"cas_no": "13433-00-6", "cn_name": "\u6c28\u57fa\u4e19\u4e8c\u9178\u4e8c\u4e59\u916f\u76d0\u9178\u76d0", "en_name": ["Propanedioic acid, 2-amino-, 1,3-diethyl ester, hydrochloride (1:1)", "Propanedioic acid, 2-amino-, 1,3-diethyl ester, hydrochloride (1:1)", "Malonic acid, amino-, diethyl ester, hydrochloride", "Propanedioic acid, amino-, diethyl ester, hydrochloride", "Aminomalonic acid diethyl ester, hydrochloride", "Diethyl aminomalonate hydrochloride", "Diethyl 2-aminomalonate hydrochloride", "2-Aminomalonic acid diethyl ester hydrochloride", "Diethyl aminopropanedioate hydrochloride", "1,3-Diethyl 2-aminopropanedioate hydrochloride", "1,3-Diethoxy-1,3-dioxopropan-2-aminium chloride"], "SMILES": "C(C(OCC)=O)(C(OCC)=O)N.Cl", "physical_data": {"Molecular Weight": "", "Molecular Formula": "C7H13NO4.ClH", "Melting Point": "162 \u00b0C"}}