{"cas_no": "13434-12-3", "cn_name": "N-\u5f02\u620a\u57fa\u4e59\u9170\u80fa", "en_name": ["N-(3-Methylbutyl)acetamide", "Acetamide, N-(3-methylbutyl)-", "Acetamide, N-isopentyl-", "N-(3-Methylbutyl)acetamide", "N-Isoamylacetamide", "NSC 156656", "N-Isopentylacetamide"], "SMILES": "C(CC(C)C)NC(C)=O", "physical_data": {"Molecular Weight": "129.20", "Molecular Formula": "C7H15NO", "Boiling Point": "220-224 \u00b0C"}}