{"cas_no": "134356-74-4", "cn_name": "(S)-(4-\u6c1f\u82ef\u57fa)\u73af\u6c27\u4e59\u70f7", "en_name": ["(2S)-2-(4-Fluorophenyl)oxirane", "Oxirane, 2-(4-fluorophenyl)-, (2S)-", "Oxirane, (4-fluorophenyl)-, (S)-", "Oxirane, (4-fluorophenyl)-, (2S)-", "(2S)-2-(4-Fluorophenyl)oxirane", "(S)-4-Fluorostyrene oxide", "(S)-(4-Fluorophenyl)oxirane", "(2S)-2-(4-Fluorophenyl)oxirane"], "SMILES": "FC1=CC=C(C2CO2)C=C1", "physical_data": {"Molecular Weight": "138.14", "Molecular Formula": "C8H7FO", "Melting Point": "200 \u00b0C"}}