{"cas_no": "13431-39-5", "cn_name": "4-\u53d4\u4e01\u57fa-2,6-\u80fa\u57fa\u786b\u8132", "en_name": ["N-(1,1-Dimethylethyl)hydrazinecarbothioamide", "Hydrazinecarbothioamide, N-(1,1-dimethylethyl)-", "Semicarbazide, 4-tert-butyl-3-thio-", "N-(1,1-Dimethylethyl)hydrazinecarbothioamide", "B 1179", "4-tert-Butyl-3-thiosemicarbazide", "4-tert-Butylthiosemicarbazide", "1-Amino-3-tert-butylthiourea", "3-Amino-1-tert-butylthiourea"], "SMILES": "N(C(C)(C)C)C(NN)=S", "physical_data": {"Molecular Weight": "147.24", "Molecular Formula": "C5H13N3S", "Melting Point": "142-143 \u00b0C"}}