{"cas_no": "13431-34-0", "cn_name": "4-\u4e59\u57fa-3-\u786b\u4ee3\u6c28\u57fa\u8132", "en_name": ["Ethylthiosemicarbazide", "Hydrazinecarbothioamide, N-ethyl-", "Semicarbazide, 4-ethyl-3-thio-", "N-Ethylhydrazinecarbothioamide", "B 1131", "4-Ethyl-3-thiosemicarbazide", "4-Ethylthiosemicarbazide", "Ethylthiosemicarbazide", "4-Ethylthiosemicarbizide", "N-Ethylthiosemicarbazide", "N1-Ethylthiosemicarbazide", "NSC 84217", "4-N-Ethyl-3-thiosemicarbazide", "4-N-Ethylthiosemicarbazide", "1-Amino-3-ethylthiourea", "3-Amino-1-ethylthiourea"], "SMILES": "C(NCC)(NN)=S", "physical_data": {"Molecular Weight": "119.19", "Molecular Formula": "C3H9N3S", "Melting Point": "83.5-84 \u00b0C"}}