{"cas_no": "134395-00-9", "cn_name": "\u963f\u6258\u4f10\u4ed6\u6c40\u53d4\u4e01\u916f", "en_name": ["Atorvastatin tert-butyl ester", "1H-Pyrrole-1-heptanoic acid, 2-(4-fluorophenyl)-\u03b2,\u03b4-dihydroxy-5-(1-methylethyl)-3-phenyl-4-[(phenylamino)carbonyl]-, 1,1-dimethylethyl ester, (\u03b2R,\u03b4R)-", "1H-Pyrrole-1-heptanoic acid, 2-(4-fluorophenyl)-\u03b2,\u03b4-dihydroxy-5-(1-methylethyl)-3-phenyl-4-[(phenylamino)carbonyl]-, 1,1-dimethylethyl ester, [R-(R*,R*)]-", "(3R,5R)-7-[2-(4-Fluorophenyl)-5-isopropyl-3-phenyl-4-phenylcarbamoylpyrrol-1-yl]-3,5-dihydroxyheptanoic acid tert-butyl ester", "Atorvastatin tert-butyl ester"], "SMILES": "C(NC1=CC=CC=C1)(=O)C=2C(=C(N(CCC(CC(CC(OC(C)(C)C)=O)O)O)C2C(C)C)C3=CC=C(F)C=C3)C4=CC=CC=C4", "physical_data": {"Molecular Weight": "614.75", "Molecular Formula": "C37H43FN2O5", "Melting Point": "155 \u00b0C (decomp)"}}