{"cas_no": "13435-20-6", "cn_name": "\u6c30\u5316\u56db\u4e59\u57fa\u94f5", "en_name": ["Tetraethylammonium cyanide", "Ethanaminium, N,N,N-triethyl-, hydrocyanic acid (1:1)", "Ammonium, tetraethyl-, cyanide", "Tetraethylammonium cyanide", "Ethanaminium, N,N,N-triethyl-, cyanide"], "SMILES": "[C-]#N.[N+](CC)(CC)(CC)CC", "physical_data": {"Molecular Weight": "", "Molecular Formula": "C8H20N.CN", "Melting Point": "240 \u00b0C"}}