{"cas_no": "134308-13-7", "cn_name": "\u6258\u5361\u670b", "en_name": ["Tolcapone", "Methanone, (3,4-dihydroxy-5-nitrophenyl)(4-methylphenyl)-", "(3,4-Dihydroxy-5-nitrophenyl)(4-methylphenyl)methanone", "Ro 40-7592", "Tolcapone", "3,4-Dihydroxy-4\u2032-methyl-5-nitrobenzophenone", "Tasmar", "CAP 1160"], "SMILES": "C(=O)(C1=CC(N(=O)=O)=C(O)C(O)=C1)C2=CC=C(C)C=C2", "physical_data": {"Molecular Weight": "273.24", "Molecular Formula": "C14H11NO5", "Melting Point": "141-143 \u00b0C"}}