{"cas_no": "13435-12-6", "cn_name": "N-\u4e09\u7532\u57fa\u7845\u57fa\u4e59\u9170\u80fa", "en_name": ["Trimethylsilylacetamide", "Acetamide, N-(trimethylsilyl)-", "N-(Trimethylsilyl)acetamide", "(Acetylamino)trimethylsilane", "NSC 139859", "Trimethylsilylacetamide"], "SMILES": "N([Si](C)(C)C)C(C)=O", "physical_data": {"Molecular Weight": "131.25", "Molecular Formula": "C5H13NOSi", "Boiling Point": "104 \u00b0C @ Press: 35 Torr", "Melting Point": "46-49 \u00b0C"}}