{"cas_no": "13431-36-2", "cn_name": "4-\u5f02\u4e19\u57fa-3-\u6c28\u57fa\u786b\u8132", "en_name": ["4-Isopropylthiosemicarbazide", "Hydrazinecarbothioamide, N-(1-methylethyl)-", "Semicarbazide, 4-isopropyl-3-thio-", "N-(1-Methylethyl)hydrazinecarbothioamide", "B 1132", "4-Isopropylthiosemicarbazide", "4-Isopropyl-3-thiosemicarbazide", "1-Amino-3-isopropylthiourea", "1-Amino-3-propan-2-ylthiourea", "3-Amino-1-(propan-2-yl)thiourea"], "SMILES": "C(NC(C)C)(NN)=S", "physical_data": {"Molecular Weight": "133.22", "Molecular Formula": "C4H11N3S", "Melting Point": "82-83 \u00b0C"}}