{"cas_no": "13434-13-4", "cn_name": "\u653e\u7ebf\u9170\u80fa\u7d20", "en_name": ["Actinonin", "Butanediamide, N4-hydroxy-N1-[(1S)-1-[[(2S)-2-(hydroxymethyl)-1-pyrrolidinyl]carbonyl]-2-methylpropyl]-2-pentyl-, (2R)-", "Actinonine", "Octanohydroxamic acid, 3-[[1-[[2-(hydroxymethyl)-1-pyrrolidinyl]carbonyl]-2-methylpropyl]carbamoyl]-", "Butanediamide, N4-hydroxy-N1-[1-[[2-(hydroxymethyl)-1-pyrrolidinyl]carbonyl]-2-methylpropyl]-2-pentyl-, stereoisomer", "(2R)-N4-Hydroxy-N1-[(1S)-1-[[(2S)-2-(hydroxymethyl)-1-pyrrolidinyl]carbonyl]-2-methylpropyl]-2-pentylbutanediamide", "Actinonin", "(-)-Actinonin", "Ro 06-1467", "CONA 57"], "SMILES": "C(C(NC(C(CC(NO)=O)CCCCC)=O)C(C)C)(=O)N1C(CO)CCC1", "physical_data": {"Molecular Weight": "385.50", "Molecular Formula": "C19H35N3O5", "Melting Point": "148-149 \u00b0C"}}