{"cas_no": "1344-70-3", "cn_name": "COPPER(II) OXIDE", "en_name": ["Copper oxide (CuOx)", "Copper oxide", "Copper oxide (CuOx)", "CB 250", "Perfect Copper", "NO 0031HP", "CUAP 15WT%-G180"], "SMILES": "", "physical_data": {"Molecular Weight": "", "Molecular Formula": "Unspecified", "Melting Point": "77 \u00b0C"}}