{"cas_no": "13446-49-6", "cn_name": "\u94bc\u9178\u94be", "en_name": ["Potassium molybdate", "Molybdate (MoO42-), potassium (1:2), (T-4)-", "Molybdic acid (H2MoO4), dipotassium salt", "Potassium molybdate(VI) (K2MoO4)", "Molybdate (MoO42-), dipotassium, (T-4)-", "Dipotassium molybdate (K2MoO4)", "Molybdenum potassium oxide (MoK2O4)", "Potassium molybdate (K2MoO4)", "Dipotassium molybdate", "Potassium molybdate", "Potassium orthomolybdate", "Dipotassium tetraoxomolybdate(2-)", "Dipotassium tetraoxomolybdate", "Potassium molybdenum oxide (K2MoO4)"], "SMILES": "[Mo-2](=O)(=O)(=O)=O.[K+]", "physical_data": {"Molecular Weight": "", "Molecular Formula": "K.<sup>1</sup>/2MoO4", "Melting Point": "920 \u00b0C"}}