{"cas_no": "13440-24-9", "cn_name": "1,2-\u4e8c\u6eb4-1,2-\u4e8c\u82ef\u57fa\u4e59\u70f7", "en_name": ["meso-1,2-Dibromo-1,2-diphenylethane", "Benzene, 1,1\u2032-[(1R,2S)-1,2-dibromo-2-phenylethyl]-, rel-", "Bibenzyl, \u03b1,\u03b1\u2032-dibromo-, meso-", "Benzene, 1,1\u2032-(1,2-dibromo-1,2-ethanediyl)bis-, (R*,S*)-", "rel-1,1\u2032-[(1R,2S)-1,2-Dibromo-2-phenylethyl]benzene", "meso-Dibromostilbene", "meso-1,2-Dibromo-1,2-diphenylethane", "meso-Stilbene dibromide", "meso-\u03b1,\u03b2-Dibromostilbene", "erythro-1,2-Dibromo-1,2-diphenylethane"], "SMILES": "C(C(Br)C1=CC=CC=C1)(Br)C2=CC=CC=C2", "physical_data": {"Molecular Weight": "340.05", "Molecular Formula": "C14H12Br2", "Melting Point": "236-237 \u00b0C"}}