{"cas_no": "13446-74-7", "cn_name": "\u6c1f\u5316\u94f7", "en_name": ["Rubidium fluoride", "Rubidium fluoride (RbF)", "Rubidium fluoride", "Rubidium monofluoride"], "SMILES": "F[Rb]", "physical_data": {"Molecular Weight": "", "Molecular Formula": "FRb", "Melting Point": "780 \u00b0C"}}