{"cas_no": "13446-18-9", "cn_name": "\u516d\u6c34\u5408\u785d\u9178\u9541", "en_name": ["Magnesium nitrate hexahydrate", "Nitric acid, magnesium salt, hydrate (2:1:6)", "Nitric acid, magnesium salt, hexahydrate", "Magnesium nitrate hexahydrate", "Magnesium nitrate (Mg(NO3)2) hexahydrate", "Magnesium dinitrate hexahydrate", "Magnesium nitrate hydrate (Mg(NO3)2.6H2O)", "Magnesium nitrate hexahydrate (Mg(NO3)2.6H2O)", "Mg(NO3)2\u00b76H2O"], "SMILES": "N(=O)(=O)O.[Mg].O", "physical_data": {"Molecular Weight": "", "Molecular Formula": "H2O.<sup>1</sup>/3HNO3.<sup>1</sup>/6Mg", "Boiling Point": "147 \u00b0C", "Melting Point": "89 \u00b0C"}}