{"cas_no": "1344-48-5", "cn_name": "\u786b\u5316\u6c5e(II)", "en_name": ["Mercury sulfide (HgS)", "Mercury sulfide (HgS)", "C.I. 77766", "Chinese Vermilion", "C.I. Pigment Red 106", "Ethiops mineral", "Mercuric sulfide", "Mercuric sulfide red", "Mercury sulphide", "Orange Vermilion", "Pure English (Quicksilver) Vermilion", "Red Cinnabar", "Red Mercury Sulphide", "Scarlet Vermilion", "Vermilion", "Mercury monosulfide", "Monomercury sulfide", "\u03b2-Mercuric sulfide", "Mercuric Sulfide, Black", "Mercury(2+) sulfide", "Mercury sulfide", "Almaden", "Pigment Red 106", "Vermilion (HgS)", "Red mercuric sulfide", "Mercury(II) sulfide", "Syu", "Vermillion"], "SMILES": "[Hg]=S", "physical_data": {"Molecular Weight": "", "Molecular Formula": "HgS", "Melting Point": "160 \u00b0C (decomp)"}}