{"cas_no": "1344-08-7", "cn_name": "\u591a\u786b\u5316\u94a0", "en_name": ["Sodium polysulfide", "Sodium sulfide (Na2(Sx))", "Sodium polysulfide", "Disodium polysulfide"], "SMILES": "", "physical_data": {"Molecular Weight": "", "Molecular Formula": "Unspecified", "Melting Point": "400 \u00b0C"}}