{"cas_no": "1344-43-0", "cn_name": "\u4e00\u6c27\u5316\u9530", "en_name": ["Manganese oxide (MnO)", "Manganese oxide (MnO)", "C.I. 77726", "Cassel Green", "Manganese Green", "Manganous oxide", "Rosenstiehl Green", "Nu-Manese", "Manganese monoxide", "Manganese monooxide", "Manganese oxide", "Manganese(II) oxide"], "SMILES": "[Mn]=O", "physical_data": {"Molecular Weight": "", "Molecular Formula": "MnO", "Melting Point": "1840 \u00b0C", "Density": "5.37 g/cm\u00b3"}}