{"cas_no": "13444-24-1", "cn_name": "N-\u4e59\u57fa-3-\u7f9f\u57fa\u54cc\u5576", "en_name": ["1-Ethyl-3-piperidinol", "3-Piperidinol, 1-ethyl-", "1-Ethyl-3-piperidinol", "N-Ethyl-3-piperidinol", "3-Hydroxy-1-ethylpiperidine", "1-Ethyl-3-hydroxypiperidine", "N-Ethyl-3-hydroxypiperidine"], "SMILES": "C(C)N1CC(O)CCC1", "physical_data": {"Molecular Weight": "129.20", "Molecular Formula": "C7H15NO", "Boiling Point": "94 \u00b0C", "Melting Point": "&lt;25 \u00b0C", "Density": "0.966 g/cm\u00b3 @ Temp: 23 \u00b0C"}}