{"cas_no": "1345-25-1", "cn_name": "\u6c27\u5316\u4e9a\u94c1", "en_name": ["Ferrous oxide", "Iron oxide (FeO)", "C.I. 77489", "Ferrous oxide", "Iron monoxide", "Iron monooxide", "Iron(II) oxide", "Iron oxide"], "SMILES": "[Fe]=O", "physical_data": {"Molecular Weight": "", "Molecular Formula": "FeO", "Melting Point": "1360 \u00b0C", "Density": "5.7 g/cm\u00b3"}}