{"cas_no": "13450-90-3", "cn_name": "\u6c2f\u5316\u9553", "en_name": ["Gallium chloride", "Gallium chloride (GaCl3)", "Gallium trichloride", "Trichlorogallium", "Gallium chloride", "Gallium (III) chloride", "NSC 94002"], "SMILES": "[Ga](Cl)(Cl)Cl", "physical_data": {"Molecular Weight": "", "Molecular Formula": "Cl3Ga", "Boiling Point": "201 \u00b0C", "Melting Point": "77.9 \u00b0C", "Density": "2.47 g/cm\u00b3"}}