{"cas_no": "13455-22-6", "cn_name": "\u6c1f\u786b\u9178\u94be", "en_name": ["Potassium fluorosulfonate", "Fluorosulfuric acid, potassium salt", "Potassium fluorosulfate (KSO3F)", "Potassium fluosulfonate (KSO3F)", "Potassium fluorosulfonate", "Potassium fluorosulfonate (KSO3F)"], "SMILES": "S(F)(=O)(=O)O.[K]", "physical_data": {"Molecular Weight": "", "Molecular Formula": "FHO3S.K", "Melting Point": "311 \u00b0C"}}