{"cas_no": "13455-00-0", "cn_name": "\u56db\u7898\u5316\u4e8c\u78f7", "en_name": ["Hypodiphosphorous tetraiodide", "Hypodiphosphorous tetraiodide", "Phosphorus iodide (P2I4)", "Phosphorous diiodide", "Diphosphorus tetraiodide", "Tetraiododiphosphine"], "SMILES": "P(P(I)I)(I)I", "physical_data": {"Molecular Weight": "569.57", "Molecular Formula": "I4P2", "Melting Point": "123-124 \u00b0C"}}