{"cas_no": "13454-96-1", "cn_name": "\u6c2f\u5316\u94c2", "en_name": ["Platinum tetrachloride", "Platinum chloride (PtCl4), (SP-4-1)-", "Platinum chloride (PtCl4)", "Platinum tetrachloride", "Platinum(IV) tetrachloride", "Platinum(IV) chloride", "Tetrachloroplatinum"], "SMILES": "[Pt](Cl)(Cl)(Cl)Cl", "physical_data": {"Molecular Weight": "", "Molecular Formula": "Cl4Pt", "Melting Point": "327 \u00b0C (decomp)", "Density": "4.3 g/cm\u00b3 @ Temp: 25 \u00b0C"}}