{"cas_no": "13453-07-1", "cn_name": "\u6c2f\u5316\u91d1", "en_name": ["Gold trichloride", "Gold chloride (AuCl3)", "Auric chloride", "Gold trichloride", "Gold chloride", "Gold(III) chloride", "Auric trichloride", "520918-1G"], "SMILES": "[Au](Cl)(Cl)Cl", "physical_data": {"Molecular Weight": "", "Molecular Formula": "AuCl3", "Boiling Point": "265 \u00b0C", "Melting Point": "102-103 \u00b0C"}}