{"cas_no": "13455-01-1", "cn_name": "\u4e09\u7898\u5316\u78f7", "en_name": ["Phosphorous triiodide", "Phosphorous triiodide", "Phosphorus iodide (PI3)", "Phosphorus triiodide", "Triiodophosphine"], "SMILES": "P(I)(I)I", "physical_data": {"Molecular Weight": "411.69", "Molecular Formula": "I3P", "Melting Point": "61 \u00b0C"}}