{"cas_no": "13450-77-6", "cn_name": "(4-\u6c2f\u82ef\u7532\u9170\u57fa\u6c28\u57fa)-\u4e59\u9178", "en_name": ["N-(4-Chlorobenzoyl)glycine", "Glycine, N-(4-chlorobenzoyl)-", "Hippuric acid, p-chloro-", "N-(4-Chlorobenzoyl)glycine", "p-Chlorohippuric acid", "4-Chlorohippuric acid", "p-Chlorobenzoylglycine", "N-(p-Chlorobenzoyl)glycine", "4-Chlorobenzoylglycine", "Ro 11-1903", "2-(4-Chlorobenzamido)aceticacid", "2-[(4-Chlorophenyl)formamido]acetic acid", "2-(4-Chlorobenzamido)acetic acid"], "SMILES": "C(NCC(O)=O)(=O)C1=CC=C(Cl)C=C1", "physical_data": {"Molecular Weight": "213.62", "Molecular Formula": "C9H8ClNO3", "Melting Point": "143 \u00b0C"}}