{"cas_no": "13450-95-8", "cn_name": "\u56db\u7898\u5316\u9517", "en_name": ["Tetraiodogermane", "Germane, tetraiodo-", "Germanium iodide (GeI4)", "Tetraiodogermane", "Germanium tetraiodide"], "SMILES": "[Ge](I)(I)(I)I", "physical_data": {"Molecular Weight": "580.26", "Molecular Formula": "GeI4", "Melting Point": "146 \u00b0C", "Density": "4.416 g/cm\u00b3 @ Temp: 25 \u00b0C"}}