{"cas_no": "134523-00-5", "cn_name": "\u963f\u6258\u4f10\u4ed6\u6c40", "en_name": ["Atorvastatin", "1H-Pyrrole-1-heptanoic acid, 2-(4-fluorophenyl)-\u03b2,\u03b4-dihydroxy-5-(1-methylethyl)-3-phenyl-4-[(phenylamino)carbonyl]-, (\u03b2R,\u03b4R)-", "1H-Pyrrole-1-heptanoic acid, 2-(4-fluorophenyl)-\u03b2,\u03b4-dihydroxy-5-(1-methylethyl)-3-phenyl-4-[(phenylamino)carbonyl]-, [R-(R*,R*)]-", "(\u03b2R,\u03b4R)-2-(4-Fluorophenyl)-\u03b2,\u03b4-dihydroxy-5-(1-methylethyl)-3-phenyl-4-[(phenylamino)carbonyl]-1H-pyrrole-1-heptanoic acid", "(\u03b2R,\u03b4R)-2-(p-Fluorophenyl)-\u03b2,\u03b4-dihydroxy-5-isopropyl-3-phenyl-4-(phenylcarbamoyl)pyrrole-1-heptanoic acid", "Atorvastatin", "Cardyl", "(3R,5R)-7-[2-(4-Fluorophenyl)-5-isopropyl-3-phenyl-4-phenylcarbamoylpyrrol-1-yl]-3,5-dihydroxyheptanoic acid", "Atorvastatin acid", "Lipilou", "Ator", "Atorfit 20", "Atorcor", "Atofast", "Atorin", "Alip", "Statofilm", "Lipinon", "Atorvox", "Atoris", "Atrox", "Atavastatin", "1: PN: WO2019129231 SEQID: 2 claimed sequence"], "SMILES": "C(NC1=CC=CC=C1)(=O)C=2C(=C(N(CCC(CC(CC(O)=O)O)O)C2C(C)C)C3=CC=C(F)C=C3)C4=CC=CC=C4", "physical_data": {"Molecular Weight": "558.64", "Molecular Formula": "C33H35FN2O5", "Melting Point": "159.1-190.6 \u00b0C"}}