{"cas_no": "1345-07-9", "cn_name": "\u786b\u5316\u94cb", "en_name": ["Bismuth sulfide (Bi2S3)", "Bismuth sulfide (Bi2S3)", "C.I. 77172", "Bismuth sulfide", "Bismuth(3+) sulfide", "Bismuth sesquisulfide", "Dibismuth trisulfide", "AustroTec Bis 84", "BIS 83"], "SMILES": "", "physical_data": {"Molecular Weight": "", "Molecular Formula": "Bi2S3", "Melting Point": "685 \u00b0C", "Density": "6 g/cm\u00b3"}}