{"cas_no": "1345-04-6", "cn_name": "\u786b\u5316\u9511", "en_name": ["Antimony sulfide (Sb2S3)", "Antimony sulfide (Sb2S3)", "C.I. 77060", "Antimonous sulfide", "Antimony Orange", "Antimony Vermilion", "C.I. Pigment Red 107", "Crimson Antimony Sulphide", "Needle antimony", "Antimony trisulfide", "Diantimony trisulfide", "Antimony sesquisulfide", "Antimony(3+) sulfide", "Antimony sulfide (Sb4S6)", "Antimony(III) sulfide", "Frixsta"], "SMILES": "", "physical_data": {"Molecular Weight": "", "Molecular Formula": "S3Sb2", "Boiling Point": "1013 \u00b0C", "Melting Point": "550 \u00b0C", "Density": "4.562 g/cm\u00b3"}}