{"cas_no": "134575-17-0", "cn_name": "TERT-BUTYL N-(3-AZABICYCLO[3.1.0]HEXAN-6-YL)CARBAMATE", "en_name": ["Carbamic acid, N-(1\u03b1,5\u03b1,6\u03b1)-3-azabicyclo[3.1.0]hex-6-yl-, 1,1-dimethylethyl ester", "Carbamic acid, N-(1\u03b1,5\u03b1,6\u03b1)-3-azabicyclo[3.1.0]hex-6-yl-, 1,1-dimethylethyl ester", "Carbamic acid, 3-azabicyclo[3.1.0]hex-6-yl-, 1,1-dimethylethyl ester, (1\u03b1,5\u03b1,6\u03b1)-", "3-Azabicyclo[3.1.0]hexane, carbamic acid deriv."], "SMILES": "N(C(OC(C)(C)C)=O)C1C2C1CNC2", "physical_data": {"Molecular Weight": "198.26", "Molecular Formula": "C10H18N2O2", "Melting Point": "110-111 \u00b0C"}}