{"cas_no": "13450-91-4", "cn_name": "\u4e09\u7898\u5316\u9553", "en_name": ["Gallium iodide", "Gallium iodide (GaI3)", "Gallium triiodide", "Triiodogallium", "Gallium iodide", "NSC 94003"], "SMILES": "[Ga](I)(I)I", "physical_data": {"Molecular Weight": "", "Molecular Formula": "GaI3", "Boiling Point": "345 \u00b0C", "Melting Point": "212 \u00b0C", "Density": "4.15 g/cm\u00b3"}}