{"cas_no": "13451-05-3", "cn_name": "\u94a8\u9178\u94ef", "en_name": ["Strontium tungsten oxide (SrWO4)", "Strontium tungsten oxide (SrWO4)", "Tungstic acid (H2WO4), strontium salt (1:1)", "Strontium tungstate (SrWO4)", "Tungstate (WO42-), strontium (1:1), (T-4)-", "Strontium tungstate"], "SMILES": "[W-2](=O)(=O)(=O)=O.[Sr+2]", "physical_data": {"Molecular Weight": "", "Molecular Formula": "O4W.Sr", "Melting Point": "1490 \u00b0C", "Density": "6.439 g/cm\u00b3 @ Temp: 22 \u00b0C"}}