{"cas_no": "13451-11-1", "cn_name": "\u4e94\u6eb4\u5316\u94bd", "en_name": ["Tantalum bromide (TaBr5)", "Tantalum bromide (TaBr5)", "Tantalum pentabromide", "Tantalum pentabromide (TaBr5)"], "SMILES": "[Ta](Br)(Br)(Br)(Br)Br", "physical_data": {"Molecular Weight": "", "Molecular Formula": "Br5Ta", "Boiling Point": "348-349 \u00b0C", "Melting Point": "265 \u00b0C", "Density": "4.67 g/cm\u00b3"}}