{"cas_no": "13450-92-5", "cn_name": "\u6eb4\u5316\u9517", "en_name": ["Tetrabromogermane", "Germane, tetrabromo-", "Germanium bromide (GeBr4)", "Germanium bromide", "Tetrabromogermane", "Germanium tetrabromide", "Germanium tetraboride"], "SMILES": "[Ge](Br)(Br)(Br)Br", "physical_data": {"Molecular Weight": "392.26", "Molecular Formula": "Br4Ge", "Boiling Point": "186.5 \u00b0C", "Melting Point": "26.1 \u00b0C", "Density": "3.132 g/cm\u00b3 @ Temp: 25 \u00b0C"}}