{"cas_no": "13457-18-6", "cn_name": "\u5b9a\u83cc\u78f7,\u5421\u83cc\u78f7", "en_name": ["Pyrazophos", "Pyrazolo[1,5-a]pyrimidine-6-carboxylic acid, 2-[(diethoxyphosphinothioyl)oxy]-5-methyl-, ethyl ester", "Pyrazolo[1,5-a]pyrimidine-6-carboxylic acid, 2-hydroxy-5-methyl-, ethyl ester, O-ester with O,O-diethyl phosphorothioate", "Afugan", "Diethyl 6-carbethoxy-5-methylpyrazolo[1,5-a]pyrimidin-2-yl phosphorothioate", "HOE 2873", "Hoechst 2873", "2-(O,O-Diethylthionophosphoryl)-5-methyl-6-carbethoxypyrazolopyrimidine", "Pyrazophos", "Curamil", "Missile", "Afugan WP 30", "NSC 232671"], "SMILES": "C(OCC)(=O)C1=CN2C(=CC(OP(OCC)(OCC)=S)=N2)N=C1C", "physical_data": {"Molecular Weight": "373.36", "Molecular Formula": "C14H20N3O5PS", "Melting Point": "51 \u00b0C"}}