{"cas_no": "13450-88-9", "cn_name": "\u6eb4\u5316\u9553", "en_name": ["Gallium bromide", "Gallium bromide (GaBr3)", "Gallium tribromide", "Tribromogallium", "Gallium bromide", "NSC 94001"], "SMILES": "[Ga](Br)(Br)Br", "physical_data": {"Molecular Weight": "", "Molecular Formula": "Br3Ga", "Boiling Point": "279 \u00b0C", "Melting Point": "122.5 \u00b0C"}}