{"cas_no": "134568-16-4", "cn_name": "3-\u6c27\u4ee3-3-(2-\u567b\u5429\u57fa)\u4e19\u9178\u7532\u916f", "en_name": ["Methyl \u03b2-oxo-2-thiophenepropanoate", "2-Thiophenepropanoic acid, \u03b2-oxo-, methyl ester", "Methyl \u03b2-oxo-2-thiophenepropanoate", "Methyl 3-oxo-3-(2-thienyl)propanoate", "Methyl 3-(2-thienyl)-3-oxopropanoate", "3-Oxo-3-thiophen-2-yl-propionic acid methyl ester"], "SMILES": "C(CC(OC)=O)(=O)C1=CC=CS1", "physical_data": {"Molecular Weight": "184.21", "Molecular Formula": "C8H8O3S", "Boiling Point": "133-134 \u00b0C @ Press: 3 Torr"}}