{"cas_no": "1345-13-7", "cn_name": "\u4e09\u6c27\u5316\u4e8c\u94c8", "en_name": ["Cerium oxide (Ce2O3)", "Cerium oxide (Ce2O3)", "C.I. 77280", "Cerous oxide", "Cerium trioxide", "Cerium(III) oxide", "Dicerium trioxide", "Cerium sesquioxide", "Cerium(3+) oxide", "Cerium oxide (Ce0.8O1.2)", "Cerium oxide (CeO1.5)"], "SMILES": "", "physical_data": {"Molecular Weight": "", "Molecular Formula": "Ce2O3", "Melting Point": "1692 \u00b0C", "Density": "6.86 g/cm\u00b3"}}