{"cas_no": "134521-16-7", "cn_name": "\u53cc(4-\u6c30\u57fa\u82ef\u57fa)\u7532\u9187", "en_name": ["Bis(4-cyanophenyl)methanol", "Benzonitrile, 4,4\u2032-(hydroxymethylene)bis-", "4,4\u2032-(Hydroxymethylene)bis[benzonitrile]", "CGP 44645", "Bis(4-cyanophenyl)methanol", "Bis(p-cyanophenyl)methanol", "4,4\u2032-Methanolbisbenzonitrile", "4-[(4-Cyanophenyl)(hydroxy)methyl]benzonitrile"], "SMILES": "C(O)(C1=CC=C(C#N)C=C1)C2=CC=C(C#N)C=C2", "physical_data": {"Molecular Weight": "234.25", "Molecular Formula": "C15H10N2O", "Melting Point": "158-159 \u00b0C"}}