{"cas_no": "134575-06-7", "cn_name": "\u53cd\u5f0f-3-\u82c4\u57fa-2,4-\u4e8c\u6c27\u4ee3-3-\u6c2e\u6742-\u53cc\u73af[3.1.0]\u5df1\u70f7-6-\u7fa7\u9178\u4e59\u916f", "en_name": ["Ethyl (1\u03b1,5\u03b1,6\u03b1)-2,4-dioxo-3-(phenylmethyl)-3-azabicyclo[3.1.0]hexane-6-carboxylate", "3-Azabicyclo[3.1.0]hexane-6-carboxylic acid, 2,4-dioxo-3-(phenylmethyl)-, ethyl ester, (1\u03b1,5\u03b1,6\u03b1)-", "Ethyl (1\u03b1,5\u03b1,6\u03b1)-2,4-dioxo-3-(phenylmethyl)-3-azabicyclo[3.1.0]hexane-6-carboxylate"], "SMILES": "C(OCC)(=O)C1C2C1C(=O)N(CC3=CC=CC=C3)C2=O", "physical_data": {"Molecular Weight": "273.28", "Molecular Formula": "C15H15NO4", "Melting Point": "105 \u00b0C"}}