{"cas_no": "13463-28-0", "cn_name": "\u5723\u8349\u6b21\u7519", "en_name": ["Eriocitrin", "4H-1-Benzopyran-4-one, 7-[[6-O-(6-deoxy-\u03b1-L-mannopyranosyl)-\u03b2-D-glucopyranosyl]oxy]-2-(3,4-dihydroxyphenyl)-2,3-dihydro-5-hydroxy-, (2S)-", "Eriocitrin", "Flavanone, 3\u2032,4\u2032,5,7-tetrahydroxy-, 7-[6-O-(6-deoxy-\u03b1-L-mannopyranosyl)-\u03b2-D-glucopyranoside]", "4H-1-Benzopyran-4-one, 7-[[6-O-(6-deoxy-\u03b1-L-mannopyranosyl)-\u03b2-D-glucopyranosyl]oxy]-2-(3,4-dihydroxyphenyl)-2,3-dihydro-5-hydroxy-, (S)-", "Glucopyranoside, eriodictyol-7 6-O-(6-deoxy-\u03b1-L-mannopyranosyl)-, \u03b2-D-", "(2S)-7-[[6-O-(6-Deoxy-\u03b1-L-mannopyranosyl)-\u03b2-D-glucopyranosyl]oxy]-2-(3,4-dihydroxyphenyl)-2,3-dihydro-5-hydroxy-4H-1-benzopyran-4-one", "Eriodictyol 7-O-rutinoside", "Eriodictioside"], "SMILES": "O=C1C=2C(OC(C1)C3=CC(O)=C(O)C=C3)=CC(OC4OC(COC5C(O)C(O)C(O)C(C)O5)C(O)C(O)C4O)=CC2O", "physical_data": {"Molecular Weight": "596.53", "Molecular Formula": "C27H32O15", "Melting Point": "154-164 \u00b0C"}}