{"cas_no": "13465-84-4", "cn_name": "\u7898\u5316\u7845", "en_name": ["Tetraiodosilane", "Silane, tetraiodo-", "Silicon iodide (SiI4)", "Tetraiodosilane", "Silicon tetraiodide"], "SMILES": "[Si](I)(I)(I)I", "physical_data": {"Molecular Weight": "535.70", "Molecular Formula": "I4Si", "Boiling Point": "287-288 \u00b0C", "Melting Point": "120-121 \u00b0C", "Density": "4.198 g/cm\u00b3"}}