{"cas_no": "134678-17-4", "cn_name": "\u62c9\u7c73\u592b\u5b9a", "en_name": ["Lamivudine", "2(1H)-Pyrimidinone, 4-amino-1-[(2R,5S)-2-(hydroxymethyl)-1,3-oxathiolan-5-yl]-", "2(1H)-Pyrimidinone, 4-amino-1-[2-(hydroxymethyl)-1,3-oxathiolan-5-yl]-, (2R-cis)-", "1,3-Oxathiolane, 2(1H)-pyrimidinone deriv.", "4-Amino-1-[(2R,5S)-2-(hydroxymethyl)-1,3-oxathiolan-5-yl]-2(1H)-pyrimidinone", "(-)-BCH 189", "GR 109714X", "Lamivudine", "BCH 189, (-)-", "(-)-2\u2032-Deoxy-3\u2032-thiacytidine", "\u03b2-L-3\u2032-Thia-2\u2032,3\u2032-dideoxycytidine", "Epivir", "Zeffix", "Heptovir", "Epivir HBV", "L-SddC", "Zefix", "Hepitec", "\u03b2-L-2\u2032,3\u2032-Dideoxy-3\u2032-thiacytidine", "3TC", "Lamivir", "Heptodin", "Virolam", "2-Hydroxymethyl-5-(cytosin-1-yl)-1,3-oxathiolane", "cis(-)-2-Hydroxymethyl-5-(cytosin-1-yl)-1,3-oxathiolane", "Lamidine", "29: PN: WO2016077321 SEQID: 29 claimed sequence", "Hiviral", "MeSH ID: D019259"], "SMILES": "O=C1N(C2OC(CO)SC2)C=CC(N)=N1", "physical_data": {"Molecular Weight": "229.26", "Molecular Formula": "C8H11N3O3S", "Melting Point": "160-162 \u00b0C"}}