{"cas_no": "134680-32-3", "cn_name": "ENT-\u62c9\u7c73\u592b\u5b9a", "en_name": ["2\u2032,3\u2032-Dideoxy-3\u2032-thiacytidine", "2(1H)-Pyrimidinone, 4-amino-1-[(2S,5R)-2-(hydroxymethyl)-1,3-oxathiolan-5-yl]-", "2(1H)-Pyrimidinone, 4-amino-1-[2-(hydroxymethyl)-1,3-oxathiolan-5-yl]-, (2S-cis)-", "1,3-Oxathiolane, 2(1H)-pyrimidinone deriv.", "4-Amino-1-[(2S,5R)-2-(hydroxymethyl)-1,3-oxathiolan-5-yl]-2(1H)-pyrimidinone", "2\u2032-Deoxy-3\u2032-thiacytidine", "(+)-BCH 189", "BCH 189, (+)-", "NSC 620753", "2\u2032,3\u2032-Dideoxy-3\u2032-thiacytidine", "3TC", "cis(+)-2-Hydroxymethyl-5-(cytosin-1-yl)-1,3-oxathiolane", "Ent-lamivudine"], "SMILES": "O=C1N(C2OC(CO)SC2)C=CC(N)=N1", "physical_data": {"Molecular Weight": "229.26", "Molecular Formula": "C8H11N3O3S", "Melting Point": "171.4 \u00b0C"}}