{"cas_no": "13465-77-5", "cn_name": "\u516d\u6c2f\u4e59\u7845\u70f7", "en_name": ["1,1,1,2,2,2-Hexachlorodisilane", "Disilane, 1,1,1,2,2,2-hexachloro-", "Silicon chloride (Si2Cl6)", "Disilane, hexachloro-", "1,1,1,2,2,2-Hexachlorodisilane", "Hexachlorodisilane", "Disilicon hexachloride"], "SMILES": "[Si]([Si](Cl)(Cl)Cl)(Cl)(Cl)Cl", "physical_data": {"Molecular Weight": "268.89", "Molecular Formula": "Cl6Si2", "Boiling Point": "144-146 \u00b0C", "Melting Point": "-1 \u00b0C", "Density": "1.562 g/cm\u00b3"}}