{"cas_no": "13466-78-9", "cn_name": "3-\u8488\u70ef", "en_name": ["3-Carene", "Bicyclo[4.1.0]hept-3-ene, 3,7,7-trimethyl-", "3-Carene", "3,7,7-Trimethylbicyclo[4.1.0]hept-3-ene", "\u03943-Carene", "\u03b4-3-Carene", "(\u00b1)-3-Carene", "(\u00b1)-\u03943-Carene"], "SMILES": "CC1(C)C2C1CC(C)=CC2", "physical_data": {"Molecular Weight": "136.23", "Molecular Formula": "C10H16", "Boiling Point": "170 \u00b0C", "Melting Point": "&lt;25 \u00b0C", "Density": "0.8586 g/cm\u00b3 @ Temp: 30 \u00b0C"}}