{"cas_no": "13463-39-3", "cn_name": "\u7fb0\u57fa\u954d", "en_name": ["Nickel tetracarbonyl", "Nickel carbonyl (Ni(CO)4), (T-4)-", "Nickel carbonyl (Ni(CO)4)", "Nickel tetracarbonyl", "Tetracarbonylnickel", "Nickel carbonyl", "Carbonyl nickel", "Tetracarbonylnickel(0)", "PN-S 27"], "SMILES": "[Ni](C#O)(C#O)(C#O)C#O", "physical_data": {"Molecular Weight": "", "Molecular Formula": "C4NiO4", "Boiling Point": "43 \u00b0C", "Melting Point": "-19.3 \u00b0C", "Density": "1.318 g/cm\u00b3 @ Temp: 17 \u00b0C"}}