{"cas_no": "13461-16-0", "cn_name": "1,3-\u4e8c\u7532\u57fa\u54aa\u5511\u70f7-2-\u786b\u916e", "en_name": ["1,3-Dimethyl-2-imidazolidinethione", "2-Imidazolidinethione, 1,3-dimethyl-", "1,3-Dimethyl-2-imidazolidinethione", "N,N\u2032-Dimethylethylenethiourea", "1,3-Dimethylimidazoline-2(3H)-thione", "1,3-Dimethyl-1,3-diazolidine-2-thione", "N,N\u2032-Dimethylimidazolidine-2-thione"], "SMILES": "S=C1N(C)CCN1C", "physical_data": {"Molecular Weight": "130.21", "Molecular Formula": "C5H10N2S", "Melting Point": "110-112 \u00b0C"}}