{"cas_no": "13465-10-6", "cn_name": "\u6c2f\u5316\u4e9a\u94df", "en_name": ["Indium chloride (InCl)", "Indium chloride (InCl)", "Indium monochloride", "Indium(1+) chloride", "Indium(I) chloride"], "SMILES": "Cl[In]", "physical_data": {"Molecular Weight": "", "Molecular Formula": "ClIn", "Melting Point": "216 \u00b0C"}}