{"cas_no": "13463-41-7", "cn_name": "\u5421\u5576\u786b\u916e\u950c", "en_name": ["Pyrithione zinc", "Zinc, bis[1-(hydroxy-\u03baO)-2(1H)-pyridinethionato-\u03baS2]-, (T-4)-", "Zinc, bis(1-hydroxy-2(1H)-pyridinethionato)-", "Zinc, bis(1-hydroxy-2(1H)-pyridinethionato-O,S)-, (T-4)-", "2(1H)-Pyridinethione, 1-hydroxy-, zinc complex", "(T-4)-Bis[1-(hydroxy-\u03baO)-2(1H)-pyridinethionato-\u03baS2]zinc", "Zinc pyrithione", "Omadine Zinc", "Pyrithione zinc", "Bis(1-hydroxy-2-(1H)-pyridinethionato)zinc", "Zinc, bis(2-pyridinylthio)-, N,N\u2032-dioxide", "Zinc 2-pyridinethiol 1-oxide", "Vancide P", "Zinc Omadine", "ZPT", "OM 1563", "2-Mercaptopyridine 1-oxide zinc salt", "Zinc 1-hydroxy-2-pyridinethione", "2-Pyridinethiol 1-oxide zinc salt", "Zinc pyrethion", "2-Pyridinethiol N-oxide zinc salt", "Zincpolyanemine", "Zinc 2-mercaptopyridine N-oxide", "Zinc pyridine-2-thione-N-oxide", "FSB 8332", "1-Hydroxy-2-pyridinethione, zinc salt", "Evafine P 50", "Tomicide Z 50", "Bis(1-hydroxy-2(1H)-pyridinethionato)zinc", "Hokucide ZPT", "Finecide ZPT", "Biocut ZP", "Bis(2-pyridinethiol 1-oxide)zinc", "BC-J", "Tomicide ZPT 50", "Niccanon SKT", "Niccanon ZP", "Marukacide YP-DP", "Zinc bis(2-pyridylthio-1-oxide)", "Sebulon Shampoo", "Desquaman", "Danex", "ZNP Bar", "Tomicide ZPT", "NSC 290409", "AF-Z", "Tomicide ZPT 100", "Zinc Pyrion", "2-Pyridylthiol-1-oxide zinc salt", "Microban Additive ZO 1", "ZO-E", "Zn Omadine ZOE", "Microban Z 01", "Sanitized TH 22-27", "Clean-Bio ZP", "Sanaizol 200", "Dantrol", "Zincopan", "Sanitized TH 27-24BT", "Slaoff 95", "Slaoff 94", "Vedexil-PZ", "Hybricide 89", "Denistat ANK", "ZOE-T", "Intercide ZNP", "SR-A 103", "ZnPT", "Zinc Omadine ZOE Dispersion", "Zinc Omadine ZOE", "TH 22-27", "Zinc bis(2-mercaptopyridine-N-oxide)", "Zinc Omacide ZOE", "FK-C", "RUCO-BAC ZPY", "Microcare ZP", "Neostuf ZP 10", "Zinc, bis[(2-pyridinethiol-\u03baS2) 1-oxidato]-", "Bis[(2-pyridinethiol-\u03baS2) 1-oxidato]zinc", "2-Pyridinethiol, 1-oxide, zinc salt (2:1)", "Biomaster 627", "ZPT 38", "Zinc Omadine FPS", "Kopthione"], "SMILES": "[Zn+2]12([O-]N3C(=[S]1)C=CC=C3)[O-]N4C(=[S]2)C=CC=C4", "physical_data": {"Molecular Weight": "", "Molecular Formula": "C10H8N2O2S2Zn", "Melting Point": "240 \u00b0C (decomp)", "Density": "1.782 g/cm\u00b3 @ Temp: 25 \u00b0C"}}