{"cas_no": "13466-38-1", "cn_name": "2-\u7f9f\u57fa-5-\u6eb4\u5421\u5576", "en_name": ["5-Bromo-2-hydroxypyridine", "2(1H)-Pyridinone, 5-bromo-", "2(1H)-Pyridone, 5-bromo-", "5-Bromo-2(1H)-pyridinone", "5-Bromo-2(1H)-pyridone", "5-Bromo-2-hydroxypyridine", "5-Bromo-2-pyridinol", "2-Hydroxy-5-bromopyridine", "5-Bromo-2-pyridone", "5-Bromo-1H-pyridin-2-one", "3-Bromo-6-hydroxypyridine", "5-Bromo-1,2-dihydropyridin-2-one"], "SMILES": "BrC=1C=CC(=O)NC1", "physical_data": {"Molecular Weight": "174.00", "Molecular Formula": "C5H4BrNO", "Melting Point": "177-178 \u00b0C"}}