{"cas_no": "13468-02-5", "cn_name": "N,N-\u4e8c\u7532\u57fa-2-\u82ef\u6c27\u57fa\u4e59\u80fa", "en_name": ["N,N-Dimethyl-2-phenoxyethanamine", "Ethanamine, N,N-dimethyl-2-phenoxy-", "Ethylamine, N,N-dimethyl-2-phenoxy-", "N,N-Dimethyl-2-phenoxyethanamine", "2-(N,N-Dimethylamino)ethyl phenyl ether", "Dimethyl(2-phenoxyethyl)amine", "2-(Dimethylamino)ethyl phenyl ether", "(2-Dimethylaminoethoxy)benzene", "N,N-Dimethyl-2-phenoxyethylamine", "N,N-Dimethyl-2-phenoxyethan-1-amine"], "SMILES": "O(CCN(C)C)C1=CC=CC=C1", "physical_data": {"Molecular Weight": "165.23", "Molecular Formula": "C10H15NO", "Boiling Point": "125-127 \u00b0C @ Press: 15 Torr", "Melting Point": "163-164 \u00b0C", "Density": "0.9830 g/cm\u00b3 @ Temp: 20 \u00b0C"}}