{"cas_no": "13463-40-6", "cn_name": "\u7fb0\u57fa\u94c1", "en_name": ["Iron pentacarbonyl", "Iron carbonyl (Fe(CO)5), (TB-5-11)-", "Iron carbonyl (Fe(CO)5)", "Iron pentacarbonyl", "Pentacarbonyl iron", "Iron pentacarbonyl (Fe(CO)5)"], "SMILES": "[Fe](C#O)(C#O)(C#O)(C#O)C#O", "physical_data": {"Molecular Weight": "", "Molecular Formula": "C5FeO5", "Boiling Point": "102.8 \u00b0C @ Press: 749 Torr", "Melting Point": "-21 \u00b0C", "Density": "1.457 g/cm\u00b3 @ Temp: 21 \u00b0C"}}