{"cas_no": "13462-90-3", "cn_name": "\u7898\u5316\u954d", "en_name": ["Nickel iodide (NiI2)", "Nickel iodide (NiI2)", "Nickelous iodide", "Nickel diiodide", "Nickel(2+) iodide", "Nickel iodide"], "SMILES": "[Ni](I)I", "physical_data": {"Molecular Weight": "", "Molecular Formula": "I2Ni", "Melting Point": "780 \u00b0C", "Density": "5.834 g/cm\u00b3"}}