{"cas_no": "13472-00-9", "cn_name": "2-(4-\u6c28\u57fa\u82ef)\u4e59\u80fa", "en_name": ["2-(4-Aminophenyl)ethylamine", "Benzeneethanamine, 4-amino-", "Phenethylamine, p-amino-", "4-Aminobenzeneethanamine", "4-Aminophenylethylamine", "4-Amino-\u03b2-phenylethylamine", "p-(2-Aminoethyl)aniline", "2-(4-Aminophenyl)ethylamine", "4-Amino-\u03b2-phenethylamine", "\u03b2-(4-Aminophenyl)ethylamine", "4-(2-Aminoethyl)aniline", "\u03b2-(p-Aminophenyl)ethylamine", "p-Aminophenethylamine", "4-Aminophenethylamine", "2-(p-Aminophenyl)ethylamine", "2-(4-Aminophenyl)phenethylamine", "(p-Aminophenyl)ethylamine", "4-(2-Aminoethyl)phenylamine", "NSC 299558", "NSC 9060", "4-(2-Aminoethyl)benzenamine"], "SMILES": "C(CN)C1=CC=C(N)C=C1", "physical_data": {"Molecular Weight": "136.19", "Molecular Formula": "C8H12N2", "Boiling Point": "140-142 \u00b0C @ Press: 12 Torr", "Melting Point": "62-63 \u00b0C"}}