{"cas_no": "13472-59-8", "cn_name": "3-\u6eb4-2-\u7532\u6c27\u57fa\u5421\u5576", "en_name": ["3-Bromo-2-methoxypyridine", "Pyridine, 3-bromo-2-methoxy-", "3-Bromo-2-methoxypyridine"], "SMILES": "O(C)C1=C(Br)C=CC=N1", "physical_data": {"Molecular Weight": "188.02", "Molecular Formula": "C6H6BrNO", "Boiling Point": "87 \u00b0C @ Press: 16 Torr"}}