{"cas_no": "13479-54-4", "cn_name": "\u7518\u6c28\u9178\u94dc", "en_name": ["Cupric glycinate", "Copper, bis(glycinato-\u03baN,\u03baO)-", "Copper, bis(glycinato)-", "Copper, bis(glycinato-N,O)-", "Bis(glycinato-\u03baN,\u03baO)copper", "Copper glycinate", "Bis(glycinato)copper", "Copper diglycinate", "Copper(glycine)2", "Cupric glycinate", "Bis(aminoacetato)copper", "Copper aminoacetate", "Cupric aminoacetate", "Bis(glycinato)copper(II)", "Copper(II) glycinate", "Glycine, copper(2+) salt (2:1)", "Copper bis(glycinate)", "Copper Chelazome", "NSC 162736", "B-Traxim 2C Cu", "Luoantong"], "SMILES": "O=C1[O-][Cu+2]2([O-]C(=O)C[NH2]2)[NH2]C1", "physical_data": {"Molecular Weight": "", "Molecular Formula": "C4H8CuN2O4", "Melting Point": "212 \u00b0C (decomp)"}}