{"cas_no": "13472-61-2", "cn_name": "5-\u7898-2-\u7532\u6c27\u57fa\u5421\u5576", "en_name": ["5-Iodo-2-methoxypyridine", "Pyridine, 5-iodo-2-methoxy-", "5-Iodo-2-methoxypyridine", "2-Methoxy-5-iodopyridine"], "SMILES": "O(C)C1=CC=C(I)C=N1", "physical_data": {"Molecular Weight": "235.02", "Molecular Formula": "C6H6INO", "Boiling Point": "109-110 \u00b0C"}}