{"cas_no": "13472-58-7", "cn_name": "2-\u7532\u6c27\u57fa-3,5-\u4e8c\u6c2f\u5421\u5576", "en_name": ["3,5-Dichloro-2-methoxypyridine", "Pyridine, 3,5-dichloro-2-methoxy-", "3,5-Dichloro-2-methoxypyridine"], "SMILES": "O(C)C1=C(Cl)C=C(Cl)C=N1", "physical_data": {"Molecular Weight": "178.02", "Molecular Formula": "C6H5Cl2NO", "Melting Point": "90 \u00b0C"}}