{"cas_no": "13472-30-5", "cn_name": "\u7845\u9178\u56db\u94a0\u76d0", "en_name": ["Sodium silicate (Na4SiO4)", "Silicic acid (H4SiO4), sodium salt (1:4)", "Silicic acid (H4SiO4), tetrasodium salt", "Sodium silicate (Na4SiO4)", "Sodium orthosilicate (Na4SiO4)", "Tetrasodium orthosilicate", "Metso 200", "Tetrasodium silicate (Na4SiO4)", "Dryorth", "Neoortho 80", "Sodium silicate (Na2(SiO4)0.5)", "Sodium silicon oxide (SiNa4O4)"], "SMILES": "[Si](O)(O)(O)O.[Na]", "physical_data": {"Molecular Weight": "", "Molecular Formula": "H4O4Si.4Na", "Melting Point": "1018 \u00b0C"}}