{"cas_no": "13475-82-6", "cn_name": "2,2,4,6,6-\u4e94\u7532\u57fa\u5e9a\u70f7", "en_name": ["2,2,4,6,6-Pentamethylheptane", "Heptane, 2,2,4,6,6-pentamethyl-", "2,2,4,6,6-Pentamethylheptane", "Marukazol R", "Daphne Alpha Cleaner MX"], "SMILES": "C(C(C)(C)C)C(CC(C)(C)C)C", "physical_data": {"Molecular Weight": "170.33", "Molecular Formula": "C12H26", "Boiling Point": "177.8 \u00b0C", "Melting Point": "-67 \u00b0C", "Density": "0.7487 g/cm\u00b3 @ Temp: 20 \u00b0C"}}