{"cas_no": "13470-13-8", "cn_name": "\u6c2f\u5316\u94a8(IV)", "en_name": ["Tungsten chloride (WCl4), (T-4)-", "Tungsten chloride (WCl4), (T-4)-", "Tungsten chloride (WCl4)", "Tungsten tetrachloride", "Tungstenyl tetrachloride", "Tetrachlorotungsten"], "SMILES": "[W](Cl)(Cl)(Cl)Cl", "physical_data": {"Molecular Weight": "", "Molecular Formula": "Cl4W", "Melting Point": "300 \u00b0C"}}