{"cas_no": "13473-90-0", "cn_name": "\u785d\u9178\u94dd", "en_name": ["Aluminum nitrate", "Nitric acid, aluminum salt (3:1)", "Nitric acid, aluminum salt", "Aluminum nitrate", "Aluminum nitrate (Al(NO3)3)", "Aluminum trinitrate", "Aluminum(III) nitrate", "Nitric acid, aluminum salt (1:1)"], "SMILES": "N(=O)(=O)O.[Al]", "physical_data": {"Molecular Weight": "", "Molecular Formula": "Al.3HNO3", "Melting Point": "70-76 \u00b0C", "Density": "1.4 g/cm\u00b3 @ Temp: 27 \u00b0C"}}