{"cas_no": "13478-00-7", "cn_name": "\u516d\u6c34\u5408\u785d\u9178\u954d", "en_name": ["Nickel nitrate hexahydrate", "Nitric acid, nickel(2+) salt, hydrate (2:1:6)", "Nitric acid, nickel(2+) salt, hexahydrate", "Nitric acid nickel(2+) salt (2:1) hexahydrate", "Nickel(II) nitrate hexahydrate", "Nickel dinitrate hexahydrate", "Nickelous nitrate hexahydrate", "Nickel(2+) dinitrate hexahydrate", "Nickel nitrate hexahydrate", "Nickel(2+) bis(nitrate) hexahydrate", "Nickel(2+) nitrate hexahydrate", "Nickel nitrate (Ni(NO3)2) hydrate (1:6)", "Nickel nitrate (Ni(NO3)2) hexahydrate", "Nickel nitrate trihydrate"], "SMILES": "N(=O)(=O)O.[Ni].O", "physical_data": {"Molecular Weight": "", "Molecular Formula": "H2O.<sup>1</sup>/3HNO3.<sup>1</sup>/6Ni", "Melting Point": "56.7 \u00b0C"}}