{"cas_no": "13472-85-0", "cn_name": "5-\u6eb4-2-\u7532\u6c27\u57fa\u5421\u5576", "en_name": ["5-Bromo-2-methoxypyridine", "Pyridine, 5-bromo-2-methoxy-", "5-Bromo-2-methoxypyridine", "2-Methoxy-5-bromopyridine", "3-Bromo-6-methoxypyridine", "5-Bromo-2-methyloxypyridine"], "SMILES": "O(C)C1=CC=C(Br)C=N1", "physical_data": {"Molecular Weight": "188.02", "Molecular Formula": "C6H6BrNO", "Boiling Point": "65-70 \u00b0C @ Press: 3.5 Torr"}}