{"cas_no": "13472-60-1", "cn_name": "2-\u7532\u6c27\u57fa-3,5-\u4e8c\u6eb4\u5421\u5576", "en_name": ["3,5-Dibromo-2-methoxypyridine", "Pyridine, 3,5-dibromo-2-methoxy-", "3,5-Dibromo-2-methoxypyridine"], "SMILES": "O(C)C1=C(Br)C=C(Br)C=N1", "physical_data": {"Molecular Weight": "266.92", "Molecular Formula": "C6H5Br2NO", "Melting Point": "49-51 \u00b0C"}}