{"cas_no": "13470-08-1", "cn_name": "\u6c1f\u5316\u949b", "en_name": ["Titanium fluoride (TiF3)", "Titanium fluoride (TiF3)", "Titanium trifluoride"], "SMILES": "[Ti](F)(F)F", "physical_data": {"Molecular Weight": "", "Molecular Formula": "F3Ti", "Melting Point": "300 \u00b0C (decomp)"}}