{"cas_no": "13476-99-8", "cn_name": "\u4e59\u9170\u4e19\u916e\u9492", "en_name": ["Tris(acetylacetonato)vanadium", "Vanadium, tris(2,4-pentanedionato-\u03baO2,\u03baO4)-, (OC-6-11)-", "Vanadium, tris(2,4-pentanedionato)-", "Vanadium, tris(2,4-pentanedionato-O,O\u2032)-, (OC-6-11)-", "Vanadium, tris(2,4-pentanedionato-\u03baO,\u03baO\u2032)-, (OC-6-11)-", "(OC-6-11)-Tris(2,4-pentanedionato-\u03baO2,\u03baO4)vanadium", "Tris(acetylacetonato)vanadium", "Vanadium tris(acetylacetonate)", "Tris(2,4-pentanedionato)vanadium", "Vanadium(III) acetylacetonate", "Vanadium(III) tris(acetylacetonate)", "Tris(acetylacetonato)vanadium(III)", "NSC 177701"], "SMILES": "CC1=O[V+3]23(O=C(C)[CH-]C(C)=O2)(O=C(C)[CH-]C(C)=O3)O=C(C)[CH-]1", "physical_data": {"Molecular Weight": "", "Molecular Formula": "C15H21O6V", "Melting Point": "184 \u00b0C (polymorph)"}}