{"cas_no": "13476-25-0", "cn_name": "\u4e4c\u836f\u919a\u5185\u916f", "en_name": ["Linderane", "2H-10,1a-(Epoxymethano)oxireno[4,5]cyclodeca[1,2-b]furan-12-one, 3,6,10,10a-tetrahydro-5,9-dimethyl-, (1aS,4E,10S,10aS)-", "4\u03b2H-Germacra-1(10),7,11-trien-15-oic acid, 4,5\u03b2:8,12-diepoxy-6\u03b1-hydroxy-, \u03b3-lactone, (E)-", "2H-10,1a-(Epoxymethano)oxireno[4,5]cyclodeca[1,2-b]furan-12-one, 3,6,10,10a-tetrahydro-5,9-dimethyl-, [1aS-(1aR*,4E,10R*,10aR*)]-", "Linderane", "(1aS,4E,10S,10aS)-3,6,10,10a-Tetrahydro-5,9-dimethyl-2H-10,1a-(epoxymethano)oxireno[4,5]cyclodeca[1,2-b]furan-12-one"], "SMILES": "O=C1C23C(O2)C(O1)C4=C(OC=C4C)CC(C)=CCC3", "physical_data": {"Molecular Weight": "260.29", "Molecular Formula": "C15H16O4", "Melting Point": "190-191 \u00b0C (decomp)"}}