{"cas_no": "13472-81-6", "cn_name": "3,5-\u4e8c\u6eb4-2-\u7f9f\u57fa\u5627\u5576", "en_name": ["3,5-Dibromo-2(1H)-pyridinone", "2(1H)-Pyridinone, 3,5-dibromo-", "2(1H)-Pyridone, 3,5-dibromo-", "3,5-Dibromo-2(1H)-pyridinone", "3,5-Dibromo-2-pyridone", "3,5-Dibromo-2-pyridinol", "3,5-Dibromo-1H-pyridin-2-one", "3,5-Dibromo-2-hydroxypyridine", "3,5-Dibromo-1,2-dihydropyridin-2-one"], "SMILES": "BrC=1C(=O)NC=C(Br)C1", "physical_data": {"Molecular Weight": "252.89", "Molecular Formula": "C5H3Br2NO", "Melting Point": "207 \u00b0C"}}