{"cas_no": "13472-08-7", "cn_name": "\u5076\u6c2e\u4e8c\u5f02\u620a\u8148", "en_name": ["2,2\u2032-Azobis[2-methylbutyronitrile]", "Butanenitrile, 2,2\u2032-(1,2-diazenediyl)bis[2-methyl-", "Butyronitrile, 2,2\u2032-azobis[2-methyl-", "Butanenitrile, 2,2\u2032-azobis[2-methyl-", "2,2\u2032-(1,2-Diazenediyl)bis[2-methylbutanenitrile]", "2,2\u2032-Azobis[2-methylbutyronitrile]", "2,2\u2032-Azobis[\u03b1-methylbutyronitrile]", "2,2\u2032-Dimethyl-2,2\u2032-azodibutyronitrile", "Vazo 67", "Perkadox AMBN", "Azostarter V 59", "2,2\u2032-Azobis[2-methylbutanenitrile]", "Azocatalyst M", "V 59", "Wako V 59", "AMBN", "2,2\u2032-Azobis(2-cyanobutane)", "Perkadox AMBN-gr", "AIPN", "ABN-E", "Vazo 59", "AIVN", "2,2\u2032-Azodi(2-methylbutyronitrile)", "2,2\u2032-(Diazene-1,2-diyl)bis(2-methylbutanenitrile)", "2-[2-(1-Cyano-1-methylpropyl)diazen-1-yl]-2-methylbutanenitrile"], "SMILES": "C(N=NC(CC)(C#N)C)(CC)(C#N)C", "physical_data": {"Molecular Weight": "192.26", "Molecular Formula": "C10H16N4", "Melting Point": "50 \u00b0C"}}