{"cas_no": "13477-00-4", "cn_name": "\u6c2f\u9178\u94a1", "en_name": ["Barium chlorate", "Chloric acid, barium salt (2:1)", "Chloric acid, barium salt", "Barium chlorate", "Barium chlorate (Ba(ClO3)2)"], "SMILES": "Cl(=O)(=O)O.[Ba]", "physical_data": {"Molecular Weight": "", "Molecular Formula": "Ba.2ClHO3", "Melting Point": "414 \u00b0C", "Density": "3.179 g/cm\u00b3"}}