{"cas_no": "13477-53-7", "cn_name": "2-\u7f9f\u57fa-4-\u6c28\u57fa\u4e01\u9178", "en_name": ["4-Amino-2-hydroxybutanoic acid", "Butanoic acid, 4-amino-2-hydroxy-", "Butyric acid, 4-amino-2-hydroxy-", "4-Amino-2-hydroxybutanoic acid", "HABA", "2-Hydroxy-\u03b3-aminobutyric acid", "4-Amino-2-hydroxybutyric acid", "\u03b3-Amino-\u03b1-hydroxybutyric acid", "DL-4-Amino-2-hydroxybutanoic acid", "(RS)-2-Hydroxy-\u03b3-aminobutyric acid", "DL-4-Amino-2-hydroxybutyric acid", "(RS)-2-Hydroxy-GABA", "\u03b1-Hydroxy-\u03b3-aminobutyric acid"], "SMILES": "C(CCN)(C(O)=O)O", "physical_data": {"Molecular Weight": "119.12", "Molecular Formula": "C4H9NO3", "Melting Point": "191-192 \u00b0C"}}