{"cas_no": "13472-45-2", "cn_name": "\u94a8\u9178\u94a0", "en_name": ["Sodium tungsten oxide (Na2WO4)", "Sodium tungsten oxide (Na2WO4)", "Tungstic acid (H2WO4), disodium salt", "Tungstate (WO42-), disodium, (T-4)-", "Disodium tungstate", "Disodium tungstate (Na2WO4)", "Sodium tungstate (Na2(WO4))", "Sodium tungstate", "Sodium tungstate(VI) (Na2WO4)", "Disodium tetraoxotungstate(2-)", "Disodium tetraoxatungstate(2-)", "Tungstate (WO42-), sodium (1:2), (T-4)-"], "SMILES": "[Na].[W].[O]", "physical_data": {"Molecular Weight": "", "Molecular Formula": "Na.O.W", "Melting Point": "698 \u00b0C", "Density": "4.179 g/cm\u00b3"}}