{"cas_no": "13471-69-7", "cn_name": "4-\u7532\u57fa-3-\u785d\u57fa\u82ef\u5f02\u6c30\u9178\u916f", "en_name": ["4-Isocyanato-1-methyl-2-nitrobenzene", "Benzene, 4-isocyanato-1-methyl-2-nitro-", "Isocyanic acid, 3-nitro-p-tolyl ester", "4-Isocyanato-1-methyl-2-nitrobenzene", "4-Isocyanato-2-nitrotoluene", "3-Nitro-4-methylphenyl isocyanate", "4-Methyl-3-nitrophenyl isocyanate", "2-Nitro-4-isocyanatotoluene", "NSC 158456"], "SMILES": "N(=O)(=O)C1=CC(N=C=O)=CC=C1C", "physical_data": {"Molecular Weight": "178.14", "Molecular Formula": "C8H6N2O3", "Boiling Point": "100-102 \u00b0C @ Press: 0.2 Torr"}}