{"cas_no": "13485-59-1", "cn_name": "L-\u4e19\u6c28\u9170-L-\u812f\u6c28\u9178", "en_name": ["L-Alanyl-L-proline", "L-Proline, L-alanyl-", "Proline, 1-L-alanyl-, L-", "L-Proline, 1-L-alanyl-", "Proline, 1-L-alanyl-", "L-Alanyl-L-proline", "L-\u03b1-Alanyl-L-proline", "Alanylproline", "N-Alanylproline", "NSC 97932", "443: PN: WO2005081628 SEQID: 445 claimed protein", "101: PN: US20070066537 PAGE: 17 claimed protein", "150: PN: EP2161028 PAGE: 10 claimed protein", "76: PN: WO2011146121 PAGE: 115 claimed sequence", "12: PN: WO2014170713 SEQID: 112 claimed protein", "3: PN: WO2019040282 PAGE: 70 claimed sequence", "2: PN: WO2020023418 PAGE: 66 claimed sequence", "20: PN: WO2020097235 SEQID: 249 claimed protein", "96: PN: WO2021211467 SEQID: 249 claimed sequence", "164: PN: WO2022103927 SEQID: 201 claimed protein", "4: PN: WO2022197971 PAGE: 96 claimed sequence", "51: PN: WO2022228492 SEQID: 51 claimed protein"], "SMILES": "C(C(C)N)(=O)N1C(C(O)=O)CCC1", "physical_data": {"Molecular Weight": "186.21", "Molecular Formula": "C8H14N2O3", "Melting Point": "154-155 \u00b0C"}}