{"cas_no": "13482-22-9", "cn_name": "4-\u7f9f\u57fa\u73af\u5df1\u916e", "en_name": ["4-Hydroxycyclohexanone", "Cyclohexanone, 4-hydroxy-", "4-Hydroxycyclohexanone", "p-Hydroxycyclohexanone", "4-Hydroxycyclohexan-1-one"], "SMILES": "OC1CCC(=O)CC1", "physical_data": {"Molecular Weight": "114.14", "Molecular Formula": "C6H10O2", "Boiling Point": "83-85 \u00b0C", "Melting Point": "80-82 \u00b0C"}}