{"cas_no": "13484-38-3", "cn_name": "1-(2-\u4e59\u6c27\u57fa\u4e59\u57fa)\u54cc\u55ea", "en_name": ["1-(2-Ethoxyethyl)piperazine", "Piperazine, 1-(2-ethoxyethyl)-", "1-(2-Ethoxyethyl)piperazine", "1-[2-(Ethyloxy)ethyl]piperazine"], "SMILES": "C(COCC)N1CCNCC1", "physical_data": {"Molecular Weight": "158.24", "Molecular Formula": "C8H18N2O", "Boiling Point": "100 \u00b0C @ Press: 10 Torr", "Melting Point": "115-117 \u00b0C"}}