{"cas_no": "13484-50-9", "cn_name": "\u56db\u6c2f\u5421\u55ea", "en_name": ["2,3,5,6-Tetrachloropyrazine", "Pyrazine, 2,3,5,6-tetrachloro-", "Pyrazine, tetrachloro-", "2,3,5,6-Tetrachloropyrazine", "Tetrachloropyrazine", "NSC 217912"], "SMILES": "ClC=1C(Cl)=NC(Cl)=C(Cl)N1", "physical_data": {"Molecular Weight": "217.87", "Molecular Formula": "C4Cl4N2", "Melting Point": "97 \u00b0C"}}