{"cas_no": "13488-22-7", "cn_name": "5,8,11-\u5341\u4e8c\u70ef\u9178", "en_name": ["5,8,11-Eicosatriynoic acid", "5,8,11-Eicosatriynoic acid", "ETI"], "SMILES": "C(#CCC#CCCCCCCCC)CC#CCCCC(O)=O", "physical_data": {"Molecular Weight": "300.44", "Molecular Formula": "C20H28O2", "Melting Point": "70.5-71.5 \u00b0C"}}