{"cas_no": "13482-23-0", "cn_name": "4-\u7532\u6c27\u57fa\u73af\u5df1\u916e", "en_name": ["4-Methoxycyclohexanone", "Cyclohexanone, 4-methoxy-", "4-Methoxycyclohexanone", "p-Methoxycyclohexanone", "4-Methoxycyclohexan-1-one"], "SMILES": "O(C)C1CCC(=O)CC1", "physical_data": {"Molecular Weight": "128.17", "Molecular Formula": "C7H12O2", "Boiling Point": "72 \u00b0C @ Press: 9 Torr"}}