{"cas_no": "13498-14-1", "cn_name": "\u56db\u6c2f\u4e09\u6c27\u5316\u4e8c\u78f7", "en_name": ["Diphosphoryl chloride", "Diphosphoryl chloride", "Pyrophosphoryl chloride", "Phosphorodichloridic anhydride", "Tetrachloropyrophosphoric acid", "Phosphorus chloride oxide (P2Cl4O3)", "Pyrophosphoryl tetrachloride"], "SMILES": "O(P(Cl)(Cl)=O)P(Cl)(Cl)=O", "physical_data": {"Molecular Weight": "251.76", "Molecular Formula": "Cl4O3P2", "Boiling Point": "65 \u00b0C", "Density": "1.820 g/cm\u00b3 @ Temp: 415 \u00b0C"}}