{"cas_no": "13494-80-9", "cn_name": "\u78b2", "en_name": ["Tellurium", "Tellurium", "Tellurium element", "MeSH ID: D013691"], "SMILES": "[Te]", "physical_data": {"Molecular Weight": "", "Molecular Formula": "Te", "Boiling Point": "989.9 \u00b0C", "Melting Point": "449.8 \u00b0C", "Density": "6.11-6.27 g/cm\u00b3"}}