{"cas_no": "13494-10-5", "cn_name": "2,3-\u4e8c\u7f9f\u57fa\u82ef\u4e59\u916e", "en_name": ["2\u2032,3\u2032-Dihydroxyacetophenone", "Ethanone, 1-(2,3-dihydroxyphenyl)-", "Acetophenone, 2\u2032,3\u2032-dihydroxy-", "1-(2,3-Dihydroxyphenyl)ethanone", "3-Acetyl-1,2-benzenediol", "2\u2032,3\u2032-Dihydroxyacetophenone", "1-(2,3-Dihydroxyphenyl)ethan-1-one"], "SMILES": "C(C)(=O)C1=C(O)C(O)=CC=C1", "physical_data": {"Molecular Weight": "152.15", "Molecular Formula": "C8H8O3", "Melting Point": "97-98 \u00b0C"}}