{"cas_no": "13494-06-9", "cn_name": "3,4-\u4e8c\u7532\u57fa-1,2-\u73af\u620a\u4e8c\u916e", "en_name": ["3,4-Dimethyl-1,2-cyclopentanedione", "1,2-Cyclopentanedione, 3,4-dimethyl-", "3,4-Dimethyl-1,2-cyclopentanedione"], "SMILES": "CC1C(=O)C(=O)CC1C", "physical_data": {"Molecular Weight": "126.15", "Molecular Formula": "C7H10O2", "Boiling Point": "66 \u00b0C @ Press: 1 Torr", "Melting Point": "71-72 \u00b0C"}}