{"cas_no": "13492-01-8", "cn_name": "\u53cd\u82ef\u73af\u4e19\u80fa\u534a\u786b\u9178\u76d0", "en_name": ["Tranylcypromine sulfate", "Cyclopropanamine, 2-phenyl-, (1R,2S)-rel-, sulfate (2:1)", "Cyclopropylamine, 2-phenyl-, sulfate (2:1), trans-(\u00b1)-", "Cyclopropanamine, 2-phenyl-, trans-(\u00b1)-, sulfate (2:1)", "Parnate", "Tranylcypromine sulfate", "dl-Tranylcypromine sulfate", "Tylciprine", "trans-2-Phenylcyclopropanamine sulfate (2:1)", "Cyclopropanamine, 2-phenyl-, trans-, sulfate (2:1)", "Parnetil", "trans-2-Phenylcyclopropylamine hemisulfate"], "SMILES": "NC1C(C1)C2=CC=CC=C2.S(=O)(=O)(O)O", "physical_data": {"Molecular Weight": "", "Molecular Formula": "C9H11N.<sup>1</sup>/2H2O4S", "Melting Point": "242-243 \u00b0C"}}