{"cas_no": "13499-05-3", "cn_name": "\u56db\u6c2f\u5316\u94ea", "en_name": ["Hafnium tetrachloride", "Hafnium chloride (HfCl4), (T-4)-", "Hafnium chloride (HfCl4)", "Hafnium tetrachloride", "Tetrachlorohafnium", "Hafnium chloride", "Hafnium(IV) chloride"], "SMILES": "[Hf](Cl)(Cl)(Cl)Cl", "physical_data": {"Molecular Weight": "", "Molecular Formula": "Cl4Hf", "Boiling Point": "250 \u00b0C", "Density": "0.32 g/cm\u00b3"}}