{"cas_no": "13494-07-0", "cn_name": "3,5-\u4e8c\u7532\u57fa-1,2-\u73af\u620a\u4e8c\u916e", "en_name": ["3,5-Dimethyl-1,2-cyclopentanedione", "1,2-Cyclopentanedione, 3,5-dimethyl-", "3,5-Dimethyl-1,2-cyclopentanedione"], "SMILES": "O=C1C(=O)C(C)CC1C", "physical_data": {"Molecular Weight": "126.15", "Molecular Formula": "C7H10O2", "Melting Point": "91-92 \u00b0C"}}