{"cas_no": "13491-79-7", "cn_name": "2-\u53d4\u4e01\u57fa\u73af\u5df2\u9187(\u987a\u53cd\u6df7\u5408)", "en_name": ["2-tert-Butylcyclohexanol", "Cyclohexanol, 2-(1,1-dimethylethyl)-", "Cyclohexanol, 2-tert-butyl-", "2-(1,1-Dimethylethyl)cyclohexanol", "2-tert-Butylcyclohexanol", "2-(tert-Butyl)cyclohexan-1-ol"], "SMILES": "C(C)(C)(C)C1C(O)CCCC1", "physical_data": {"Molecular Weight": "156.27", "Molecular Formula": "C10H20O", "Melting Point": "45 \u00b0C"}}