{"cas_no": "13497-18-2", "cn_name": "\u53cc[3-(\u4e09\u4e59\u6c27\u57fa\u7845)\u4e19\u57fa]\u80fa", "en_name": ["Bis(triethoxysilylpropyl)amine", "1-Propanamine, 3-(triethoxysilyl)-N-[3-(triethoxysilyl)propyl]-", "3,13-Dioxa-8-aza-4,12-disilapentadecane, 4,4,12,12-tetraethoxy-", "Silane, [iminobis(trimethylene)]bis[triethoxy-", "3-(Triethoxysilyl)-N-[3-(triethoxysilyl)propyl]-1-propanamine", "Bis(triethoxysilylpropyl)amine", "3,3\u2032-Bis(triethoxysilyl)propylamine", "Bis[3-(triethoxysilyl)propyl]amine", "G 402 (coupling agent)", "Si 252", "G 402", "Dynasylan 1122", "Bis(3-methoxysilylpropyl)amine", "SIB 1824.5", "N,N-Bis(3-triethoxysilylpropyl)amine", "DB 520", "KH 270", "SiSiB PC 1108", "Y 11699", "Silquest Y 11699", "SCA-A 67X", "Degussa D 1122", "D 1122"], "SMILES": "[Si](CCCNCCC[Si](OCC)(OCC)OCC)(OCC)(OCC)OCC", "physical_data": {"Molecular Weight": "425.71", "Molecular Formula": "C18H43NO6Si2", "Boiling Point": "160 \u00b0C @ Press: 0.6 Torr", "Density": "0.97 g/cm\u00b3"}}