{"cas_no": "135-88-6", "cn_name": "N-\u82ef\u57fa-2-\u8418\u80fa", "en_name": ["N-Phenyl-2-naphthylamine", "2-Naphthalenamine, N-phenyl-", "2-Naphthylamine, N-phenyl-", "N-Phenyl-2-naphthalenamine", "Aceto PBN", "AgeRite Powder", "2-Anilinonaphthalene", "N-(2-Naphthyl)aniline", "Neosone D", "Neozone D", "PBNA", "2-(Phenylamino)naphthalene", "Phenyl-2-naphthylamine", "Neozone", "Nilox PBNA", "Neozon D", "2-Naphthylphenylamine", "\u03b2-Naphthylphenylamine", "Stabilizator AR", "Nonox D", "Phenyl-\u03b2-naphthylamine", "N-Phenyl-\u03b2-naphthylamine", "Antioxidant PBN", "Antioxidant 116", "Vulkanox PBN", "Nonox DN", "N-Phenyl-2-naphthylamine", "N-(2-Naphthyl)-N-phenylamine", "Stabilizer AR", "Antioxidant D", "Nocrac D", "Naftam 2", "N-\u03b2-Naphthyl-N-phenylamine", "PNA", "AK 1 (stabilizer)", "AK 1", "Noclizer D", "N-Phenyl-N-(2-naphthyl)amine", "NSC 37151", "N-Phenylnaphthalene-2-amine", "N-(Naphthalen-2-yl)aniline"], "SMILES": "N(C1=CC2=C(C=C1)C=CC=C2)C3=CC=CC=C3", "physical_data": {"Molecular Weight": "219.28", "Molecular Formula": "C16H13N", "Boiling Point": "395.5 \u00b0C", "Melting Point": "108 \u00b0C", "Density": "1.24 g/cm\u00b3"}}