{"cas_no": "135-98-8", "cn_name": "\u4ef2\u4e01\u57fa\u82ef", "en_name": ["sec-Butylbenzene", "Benzene, (1-methylpropyl)-", "Benzene, sec-butyl-", "(1-Methylpropyl)benzene", "sec-Butylbenzene", "2-Phenylbutane", "(\u03b1-Methylpropyl)benzene", "(\u00b1)-sec-Butylbenzene", "(RS)-2-Phenylbutane", "NSC 8466"], "SMILES": "C(CC)(C)C1=CC=CC=C1", "physical_data": {"Molecular Weight": "134.22", "Molecular Formula": "C10H14", "Boiling Point": "173.5 \u00b0C", "Melting Point": "-82.7 \u00b0C", "Density": "0.8580 g/cm\u00b3 @ Temp: 25 \u00b0C"}}