{"cas_no": "135-65-9", "cn_name": "3-\u7f9f\u57fa-N-(3-\u785d\u57fa\u82ef\u57fa)-2-\u8418\u7532\u9170\u80fa", "en_name": ["3-Hydroxy-N-(3-nitrophenyl)-2-naphthalenecarboxamide", "2-Naphthalenecarboxamide, 3-hydroxy-N-(3-nitrophenyl)-", "2-Naphthanilide, 3-hydroxy-3\u2032-nitro-", "3-Hydroxy-N-(3-nitrophenyl)-2-naphthalenecarboxamide", "C.I. 37515", "Acco Naphthol AS-BS", "Acna Naphthol M", "Amanil Naphthol AS-BS", "Amarthol AS-BS", "Anthonaphthol AS-BS", "Azoground BS", "Azoic Coupling Component 17", "Azonaphtol MNA", "Azotol MNA", "Brenthol MN", "Celcot RM", "Cibanaphthol RM", "C.I. Azoic Coupling Component 17", "Daito Grounder BS", "Diathol BS", "Dragonthol BS", "Hiltonaphthol AS-BS", "3-Hydroxy-3\u2032-nitro-2-naphthanilide", "Irganaphthol RM", "Kambothol ASBS", "Mitsui Naphthozol BS", "Naftolo MBS", "Naphtanilide BS", "Naphtazol B", "Naphthanil BS", "Naphthoide BS", "Naphthol AS-BS Dispersible", "Naphthol AS-BS Supra", "Naphtoelan BS", "Naphtol AS-BS", "Naphtol AS-BS Supra", "Naptanilide BS Supra", "Solunaptol MNL", "Tulathol AS-BS", "Ultrazol IV-BS", "Naphthol AS-BS", "2-Hydroxy-3\u2032-nitro-3-naphthanilide", "2-Hydroxy-3-naphthoic acid 3-nitroanilide", "2-Hydroxy-N-(3-nitrophenyl)-3-naphthamide", "2-Hydroxy-3-naphthoic acid m-nitroanilide", "NSC 37168", "Conazoic AL", "Scarlet Base VD", "Anarthol AS-BS", "Hebeithol AS-BS", "Kiwa Grounder BS", "Dycosthol AS-BS", "Naftol AS-BS", "Napthol ASBS", "C.I. Azo Coupling Comp. 17", "N-(3-Nitrophenyl)-3-hydroxynaphthalene-2-carboxamide", "3-Hydroxy-N-(3-nitrophenyl)-2-naphthamide"], "SMILES": "C(NC1=CC(N(=O)=O)=CC=C1)(=O)C2=CC3=C(C=C2O)C=CC=C3", "physical_data": {"Molecular Weight": "308.29", "Molecular Formula": "C17H12N2O4", "Melting Point": "242-244 \u00b0C"}}