{"cas_no": "135-01-3", "cn_name": "1,2-\u4e8c\u4e59\u82ef", "en_name": ["1,2-Diethylbenzene", "Benzene, 1,2-diethyl-", "Benzene, o-diethyl-", "1,2-Diethylbenzene", "o-Diethylbenzene"], "SMILES": "C(C)C1=C(CC)C=CC=C1", "physical_data": {"Molecular Weight": "134.22", "Molecular Formula": "C10H14", "Boiling Point": "184 \u00b0C", "Melting Point": "-31.2 \u00b0C", "Density": "0.8800 g/cm\u00b3 @ Temp: 20 \u00b0C"}}