{"cas_no": "135-73-9", "cn_name": "2-\u6eb4-4-\u82ef\u57fa\u4e59\u9170\u82ef", "en_name": ["1-[1,1\u2032-Biphenyl]-4-yl-2-bromoethanone", "Ethanone, 1-[1,1\u2032-biphenyl]-4-yl-2-bromo-", "Acetophenone, 2-bromo-4\u2032-phenyl-", "1-[1,1\u2032-Biphenyl]-4-yl-2-bromoethanone", "2-Bromo-4\u2032-phenylacetophenone", "p-Phenylphenacyl bromide", "\u03b1-Bromo-p-phenylacetophenone", "\u03c9-Bromo-4-phenylacetophenone", "Bromomethyl p-biphenylyl ketone", "4-Phenylphenacyl bromide", "p-(Bromoacetyl)biphenyl", "4-(Bromoacetyl)biphenyl", "Bromomethyl 4-phenylphenyl ketone", "1-(2-Bromo-1-oxoethyl)-4-phenylbenzene", "\u03b1-Bromo-4-phenylacetophenone", "4-Phenyl-\u03b1-bromoacetophenone", "NSC 37117", "1-Biphenyl-4-yl-2-bromoethanone", "4-Phenyl-2\u2032-bromoacetophenone", "2-Bromo(1-biphenyl-4-yl)ethanone", "2-Bromo-1-(4-phenylphenyl)ethanone", "4-Bromoacetyl-1,1\u2032-biphenyl", "4-(2-Bromoacetyl)biphenyl", "1-(1,1\u2032-Biphenyl-4-yl)-2-bromoethan-1-one", "2-Bromo-1-(4-phenylphenyl)ethan-1-one"], "SMILES": "C(CBr)(=O)C1=CC=C(C=C1)C2=CC=CC=C2", "physical_data": {"Molecular Weight": "275.14", "Molecular Formula": "C14H11BrO", "Melting Point": "126-127 \u00b0C"}}