{"cas_no": "135-02-4", "cn_name": "\u90bb\u7532\u6c27\u57fa\u82ef\u7532\u919b", "en_name": ["2-Methoxybenzaldehyde", "Benzaldehyde, 2-methoxy-", "o-Anisaldehyde", "Benzaldehyde, o-methoxy-", "2-Methoxybenzaldehyde", "6-Methoxybenzaldehyde", "o-Methoxybenzaldehyde", "2-Anisaldehyde", "2-Methoxybenzenecarboxaldehyde", "Salicylaldehyde methyl ether", "o-Formylanisole", "2-Methoxyphenylformaldehyde", "NC 064", "NSC 58960", "2-(Methyloxy)benzaldehyde"], "SMILES": "C(=O)C1=C(OC)C=CC=C1", "physical_data": {"Molecular Weight": "136.15", "Molecular Formula": "C8H8O2", "Boiling Point": "243.5 \u00b0C", "Melting Point": "37.5 \u00b0C", "Density": "1.0992 g/cm\u00b3 @ Temp: 50.8 \u00b0C"}}