{"cas_no": "135-19-3", "cn_name": "2-\u8418\u915a", "en_name": ["2-Naphthol", "2-Naphthalenol", "2-Naphthol", "C.I. 37500", "Azogen Developer A", "C.I. Azoic Coupling Component 1", "C.I. Developer 5", "Developer A", "Developer AMS", "Developer BN", "Developer NA", "\u03b2-Hydroxynaphthalene", "Isonaphthol", "2-Hydroxynaphthalene", "Naphthol B", "\u03b2-Naphthol", "Betanaphthol", "\u03b2-Naphthyl alcohol", "NSC 2044", "NSC 5737", "Bordeaux Base GP"], "SMILES": "OC1=CC2=C(C=C1)C=CC=C2", "physical_data": {"Molecular Weight": "144.17", "Molecular Formula": "C10H8O", "Boiling Point": "285 \u00b0C", "Melting Point": "121.6 \u00b0C", "Density": "1.28 g/cm\u00b3 @ Temp: 20 \u00b0C"}}