{"cas_no": "135-77-3", "cn_name": "1,2,4-\u4e09\u7532\u6c27\u57fa\u82ef", "en_name": ["1,2,4-Trimethoxybenzene", "Benzene, 1,2,4-trimethoxy-", "1,2,4-Trimethoxybenzene", "1,2,4-Benzenetriol trimethyl ether", "TMB 124", "1,3,4-Trimethoxybenzene", "1,2,5-Trimethoxybenzene", "Hydroxyhydroquinone trimethyl ether", "2,4-Dimethoxyanisole"], "SMILES": "O(C)C1=C(OC)C=CC(OC)=C1", "physical_data": {"Molecular Weight": "168.19", "Molecular Formula": "C9H12O3", "Boiling Point": "247 \u00b0C"}}