{"cas_no": "135-91-1", "cn_name": "4,4'-\u4e9a\u7532\u57fa\u53cc(N,N-\u4e8c\u7532\u57fa\u82ef\u80fa)", "en_name": ["4,4\u2032-Methylenebis[N,N-diethylbenzenamine]", "Benzenamine, 4,4\u2032-methylenebis[N,N-diethyl-", "Aniline, 4,4\u2032-methylenebis[N,N-diethyl-", "Aniline, p,p\u2032-methylenebis[N,N-diethyl-", "4,4\u2032-Methylenebis[N,N-diethylbenzenamine]", "N,N,N\u2032,N\u2032-Tetraethyl-4,4\u2032-diaminodiphenylmethane", "4,4\u2032-Tetraethyldiaminodiphenylmethane", "4,4\u2032-Bis(diethylamino)diphenylmethane"], "SMILES": "N(CC)(CC)C1=CC=C(CC2=CC=C(N(CC)CC)C=C2)C=C1", "physical_data": {"Molecular Weight": "310.48", "Molecular Formula": "C21H30N2", "Melting Point": "43.5-44 \u00b0C"}}