{"cas_no": "135-87-5", "cn_name": "\u76d0\u9178\u54cc\u7f57\u514b\u751f", "en_name": ["Piperidine, 1-[(2,3-dihydro-1,4-benzodioxin-2-yl)methyl]-, hydrochloride (1:1)", "Piperidine, 1-[(2,3-dihydro-1,4-benzodioxin-2-yl)methyl]-, hydrochloride (1:1)", "Piperidine, 1-(1,4-benzodioxan-2-ylmethyl)-, hydrochloride", "Piperoxan hydrochloride", "Piperidine, 1-[(2,3-dihydro-1,4-benzodioxin-2-yl)methyl]-, hydrochloride", "1,4-Benzodioxin, piperidine deriv.", "933F hydrochloride", "F 933 hydrochloride", "Benodaine hydrochloride", "Benzodioxane hydrochloride", "Fourneau 933 hydrochloride", "2-Piperidinomethyl-1,4-benzodioxan hydrochloride", "2-(1-Piperidylmethyl)-1,4-benzodioxan hydrochloride", "Piperoxane hydrochloride", "dl-Piperoxan hydrochloride", "Compd. 933F"], "SMILES": "C(C1OC=2C(OC1)=CC=CC2)N3CCCCC3.Cl", "physical_data": {"Molecular Weight": "", "Molecular Formula": "C14H19NO2.ClH", "Melting Point": "229-231 \u00b0C"}}