{"cas_no": "135-64-8", "cn_name": "N-2-\u8418\u57fa-3-\u7f9f\u57fa-2-\u8418\u7532\u9170\u80fa", "en_name": ["3-Hydroxy-N-2-naphthalenyl-2-naphthalenecarboxamide", "2-Naphthalenecarboxamide, 3-hydroxy-N-2-naphthalenyl-", "2-Naphthamide, 3-hydroxy-N-2-naphthyl-", "3-Hydroxy-N-2-naphthalenyl-2-naphthalenecarboxamide", "C.I. 37565", "Acco Naf-Sol AS-SW", "Acco Naphthol AS-SW", "Acna Naphthol D", "Amanil Naphthol AS-SW", "Amarthol AS-SW", "Anthonaphthol SW", "Celcot RA", "Cibanaphthol RA", "C.I. Azoic Coupling Component 7", "Diathol SW", "Dragonthol SW", "Hiltonaphthol AS-SW", "3-Hydroxy-N-2-naphthyl-2-naphthamide", "Mitsui Naphthozol SW", "Naftolo MSW", "Naphtanilide SW", "Naphtazol SW", "Naphthanilid SW", "Naphthanil SW", "Naphthoide SW", "Naphthol AS-SW Dispersible", "Naphtholate AS-SW Soln", "Naphthol AS-SW", "Naphthosol SWF", "N-(\u03b2-Naphthyl)-2-hydroxy-3-naphthamide", "Naphtoelan SW", "Naphtol AS-SW", "Naphtol AS-SWLL", "Naphtol AS-SWN", "Naphtol AS-SW Supra", "Naphtolate AS-SW Conc. Soln.", "Solunaptol BNXL", "Tulathol AS-SW", "C.I. Developer 23", "Miketazol Developer HF", "WR 81231", "Naphthol SW", "NSC 37622", "NSC 42112", "Dycosthol AS-SW", "Hebeithol AS-SW", "Anarthol AS-SW", "Napthol ASSW", "Conazoic L", "Naftol AS-SW"], "SMILES": "C(NC1=CC2=C(C=C1)C=CC=C2)(=O)C3=CC4=C(C=C3O)C=CC=C4", "physical_data": {"Molecular Weight": "313.35", "Molecular Formula": "C21H15NO2", "Melting Point": "258-260 \u00b0C"}}