{"cas_no": "135-13-7", "cn_name": "2-\u7fa7\u7532\u57fa\u786b\u4ee3\u82ef\u7532\u9178", "en_name": ["2-[(Carboxymethyl)thio]benzoic acid", "Benzoic acid, 2-[(carboxymethyl)thio]-", "Benzoic acid, o-[(carboxymethyl)thio]-", "Benzoic acid, o-(carboxymethylmercapto)-", "2-[(Carboxymethyl)thio]benzoic acid", "o-[(Carboxymethyl)thio]benzoic acid", "(o-Carboxyphenylthio)acetic acid", "NSC 379", "NSC 5347", "2-[(Carboxymethyl)sulfanyl]benzoic acid"], "SMILES": "S(CC(O)=O)C1=C(C(O)=O)C=CC=C1", "physical_data": {"Molecular Weight": "212.22", "Molecular Formula": "C9H8O4S", "Melting Point": "215 \u00b0C"}}