{"cas_no": "135-70-6", "cn_name": "\u56db\u8054\u82ef", "en_name": ["p-Quaterphenyl", "1,1\u2032:4\u2032,1\u2032\u2032:4\u2032\u2032,1\u2032\u2032\u2032-Quaterphenyl", "p-Quaterphenyl", "Biphenyl, 4,4\u2032-diphenyl-", "Benzerythrene", "Quadriphenyl", "p-Tetraphenyl", "1,1\u2032-Biphenyl, 4,4\u2032-diphenyl-", "4,4\u2032-Diphenylbiphenyl", "PQP", "NSC 24860", "p-Phenylene tetramer"], "SMILES": "C1(=CC=C(C=C1)C2=CC=CC=C2)C3=CC=C(C=C3)C4=CC=CC=C4", "physical_data": {"Molecular Weight": "306.40", "Molecular Formula": "C24H18", "Boiling Point": "240-280 \u00b0C @ Press: 3 Torr", "Melting Point": "320 \u00b0C"}}