{"cas_no": "135-58-0", "cn_name": "\u7532\u786b\u915a", "en_name": ["Mesulfen", "Thianthrene, 2,7-dimethyl-", "2,7-Dimethylthianthrene", "Mesulfen", "Mesulphen", "Mitigal", "Neosulfine", "Odylen", "Sudermo", "Cutilen", "Cutosolo", "Scabol", "Thianthol", "Mitabol", "Thianthrol", "Peligal"], "SMILES": "CC=1C=C2C(SC=3C(S2)=CC=C(C)C3)=CC1", "physical_data": {"Molecular Weight": "244.38", "Molecular Formula": "C14H12S2", "Boiling Point": "184 \u00b0C @ Press: 3 Torr", "Melting Point": "123 \u00b0C"}}