{"cas_no": "135-79-5", "cn_name": "6-\u5f02\u4e19\u57fa\u55b9\u5549", "en_name": ["6-Isopropylquinoline", "Quinoline, 6-(1-methylethyl)-", "Quinoline, 6-isopropyl-", "6-(1-Methylethyl)quinoline", "6-Isopropylquinoline"], "SMILES": "C(C)(C)C1=CC2=C(C=C1)N=CC=C2", "physical_data": {"Molecular Weight": "171.24", "Molecular Formula": "C12H13N", "Boiling Point": "143 \u00b0C @ Press: 12 Torr"}}