{"cas_no": "135-23-9", "cn_name": "\u76d0\u9178\u7f8e\u6c99\u5421\u6797", "en_name": ["Blue Line", "1,2-Ethanediamine, N1,N1-dimethyl-N2-2-pyridinyl-N2-(2-thienylmethyl)-, hydrochloride (1:1)", "Pyridine, 2-[[2-(dimethylamino)ethyl]-2-thenylamino]-, monohydrochloride", "1,2-Ethanediamine, N,N-dimethyl-N\u2032-2-pyridinyl-N\u2032-(2-thienylmethyl)-, monohydrochloride", "Barhist", "Blue Line", "Capathyn", "Cohistine", "Coryzol", "2-[[2-(Dimethylamino)ethyl]-2-thenylamino]pyridine hydrochloride", "N,N-Dimethyl-N\u2032-(2-thenyl)-N\u2032-(2-pyridyl-ethylene-diamine hydrochloride)", "Histafed", "Lullamin", "Methacon", "Methoxylene", "Pyrathyn", "Somnicaps", "Tem-Histine", "Teralin", "Thenylene hydrochloride", "Thenylpyramine hydrochloride", "Methapyrilene hydrochloride", "Histadyl", "Bu-pyra-histrit", "Butyl-pyra-hist", "Bu-pyra-hist"], "SMILES": "N(CC1=CC=CS1)(CCN(C)C)C2=CC=CC=N2.Cl", "physical_data": {"Molecular Weight": "", "Molecular Formula": "C14H19N3S.ClH", "Melting Point": "162 \u00b0C"}}