{"cas_no": "135-00-2", "cn_name": "2-\u82ef\u7532\u9170\u567b\u5429", "en_name": ["2-Benzoylthiophene", "Methanone, phenyl-2-thienyl-", "Ketone, phenyl 2-thienyl", "Phenyl-2-thienylmethanone", "Phenyl 2-thienyl ketone", "2-Benzoylthiophene", "\u03b1-Benzoylthiophene", "2-Thienyl phenyl ketone", "Phenyl(2-thienyl)methanone", "NSC 4502", "Phenyl thiophene-2-yl ketone"], "SMILES": "C(=O)(C1=CC=CS1)C2=CC=CC=C2", "physical_data": {"Molecular Weight": "188.25", "Molecular Formula": "C11H8OS", "Boiling Point": "300 \u00b0C", "Melting Point": "56.5 \u00b0C"}}