{"cas_no": "135-12-6", "cn_name": "4,4'-\u4e8c\u6c2f-2-\u785d\u57fa\u4e8c\u82ef\u919a", "en_name": ["4,4\u2032-Dichloro-2-nitrodiphenyl ether", "Benzene, 4-chloro-1-(4-chlorophenoxy)-2-nitro-", "Ether, 4-chloro-2-nitrophenyl p-chlorophenyl", "4-Chloro-1-(4-chlorophenoxy)-2-nitrobenzene", "4-Chloro-2-nitrophenyl p-chlorophenyl ether", "4,4\u2032-Dichloro-2-nitrodiphenyl ether", "4-Chlorophenyl 4-chloro-2-nitrophenyl ether", "NSC 12988"], "SMILES": "O(C1=C(N(=O)=O)C=C(Cl)C=C1)C2=CC=C(Cl)C=C2", "physical_data": {"Molecular Weight": "284.09", "Molecular Formula": "C12H7Cl2NO3", "Boiling Point": "220-223 \u00b0C @ Press: 11 Torr", "Melting Point": "79 \u00b0C"}}