{"cas_no": "135-48-8", "cn_name": "\u5e76\u4e94\u82ef", "en_name": ["Pentacene", "Pentacene", "Benzo[b]naphthacene", "lin-Dibenzanthracene", "lin-Naphthoanthracene", "2,3:6,7-Dibenzanthracene", "Dibenz[b,i]anthracene", "NSC 90784"], "SMILES": "C12=C(C=C3C(=C1)C=C4C(=C3)C=CC=C4)C=C5C(=C2)C=CC=C5", "physical_data": {"Molecular Weight": "278.35", "Molecular Formula": "C22H14", "Boiling Point": "40-43 \u00b0C @ Press: 0.15 Torr", "Melting Point": "257 \u00b0C"}}