{"cas_no": "135-97-7", "cn_name": "beta-\u6258\u54c1\u9187", "en_name": ["Pseudotropine", "8-Azabicyclo[3.2.1]octan-3-ol, 8-methyl-, (3-exo)-", "Pseudotropine", "1\u03b1H,5\u03b1H-Tropan-3\u03b2-ol", "8-Azabicyclo[3.2.1]octan-3-ol, 8-methyl-, exo-", "(3-exo)-8-Methyl-8-azabicyclo[3.2.1]octan-3-ol", "\u03c8-Tropine", "Pseudotropanol", "3\u03b2-Tropanol", "3-Pseudotropanol", "NSC 43871"], "SMILES": "CN1C2CC(O)CC1CC2", "physical_data": {"Molecular Weight": "141.21", "Molecular Formula": "C8H15NO", "Boiling Point": "241 \u00b0C", "Melting Point": "109 \u00b0C", "Density": "0.998 g/cm\u00b3 @ Temp: 116 \u00b0C"}}