{"cas_no": "135-76-2", "cn_name": "6-\u7f9f\u57fa-2-\u8418\u78fa\u9178\u94a0", "en_name": ["Sodium 6-hydroxy-2-naphthalenesulfonate", "2-Naphthalenesulfonic acid, 6-hydroxy-, sodium salt (1:1)", "2-Naphthalenesulfonic acid, 6-hydroxy-, monosodium salt", "Schaeffer's salt", "Sodium \u03b2-naphthol-6-sulfonate", "2-Naphthol-6-sodium sulfonate", "Schaeffer salt", "Sodium 2-naphthol-6-sulfonate", "2-Naphthol-6-sulfonic acid sodium salt", "Sodium 6-hydroxy-2-naphthalenesulfonate", "6-Sulfo-2-naphthol sodium salt", "2-Hydroxy-6-naphthalenesulfonic acid sodium salt", "Sodium 2-naphthol-3-sulfonate"], "SMILES": "S(=O)(=O)(O)C1=CC2=C(C=C1)C=C(O)C=C2.[Na]", "physical_data": {"Molecular Weight": "", "Molecular Formula": "C10H8O4S.Na", "Melting Point": "123 \u00b0C"}}