{"cas_no": "135-09-1", "cn_name": "\u6c22\u6c1f\u567b\u55ea", "en_name": ["Hydroflumethiazide", "2H-1,2,4-Benzothiadiazine-7-sulfonamide, 3,4-dihydro-6-(trifluoromethyl)-, 1,1-dioxide", "Bristab", "Dihydroflumethiazide", "3,4-Dihydro-7-sulfamyl-6-trifluoromethyl-2H-1,2,4-benzothiadiazine 1,1-dioxide", "3,4-Dihydro-6-trifluoromethyl-2H-1,2,4-benzothiadiazine-7-sulfonamide 1,1-dioxide", "3,4-Dihydro-6-trifluoromethyl-2H-1,2,4-benzothiazide-7-sulfonamide 1,1-dioxide", "3,4-Dihydro-6-trifluoromethyl-7-sulfamoylbenzo-1,2,4-thiadiazine 1,1-dioxide", "Hydrenox", "Hydroflumethiazide", "Metflorylthiazidine", "Olmagran", "Rodiuran", "Saluron", "Sisuril", "7-Sulfamyl-6-trifluoromethyl-3,4-dihydro-1,2,4-benzothiadiazine 1,1-dioxide", "6-Trifluoromethyl-3,4-dihydro-7-sulfamoyl-2H-1,2,4-benzothiadiazine 1,1-dioxide", "Trifluoromethylhydrothiazide", "6-Trifluoromethyl-7-sulfamyl-3,4-dihydro-1,2,4-benzothiadiazine-1,1-dioxide", "Methforylthiazidine", "Bristurin", "Di-Ademil", "Elodrine", "Finuret", "Hydol", "Leodrine", "NaClex (Glaxo)", "Rontyl", "Vergonil", "3,4-Dihydro-7-sulfamyl-6-trifluoromethyl-1,2,4-benzothiadiazine 1,1-dioxide", "Hidroflumetiazid", "3,4-Dihydro-7-sulfamoyl-6-trifluoromethyl-2H-1,2,4-benzothiadiazine 1,1-dioxide", "Glomerulin", "Diuredemina", "Hidroalogen", "Diurometon", "Flutizide", "Spandiuril", "NaClex", "Diucardin", "Salutensin", "Diumide K", "NSC 44627", "1,1-Dioxo-6-(trifluoromethyl)-3,4-dihydro-2H-1\u03bb6,2,4-benzothiadiazine-7-sulfonamide", "1,1-Dioxo-6-(trifluoromethyl)-1,2,3,4-tetrahydro-1\u03bb6,2,4-benzothiadiazine-7-sulfonamide", "MeSH ID: D006857"], "SMILES": "O=S1(=O)C=2C(=CC(C(F)(F)F)=C(S(N)(=O)=O)C2)NCN1", "physical_data": {"Molecular Weight": "331.29", "Molecular Formula": "C8H8F3N3O4S2", "Melting Point": "272-273 \u00b0C"}}