{"cas_no": "135-20-6", "cn_name": "\u94dc\u94c1\u8bd5\u5242", "en_name": ["Cupferron", "Benzenamine, N-hydroxy-N-nitroso-, ammonium salt (1:1)", "Hydroxylamine, N-nitroso-N-phenyl-, ammonium salt", "Benzenamine, N-hydroxy-N-nitroso-, ammonium salt", "Cupferron", "N-Nitroso-N-phenylhydroxylamine ammonium salt", "N-Nitroso-N-phenylhydroxyamine ammonium salt", "Kupferron", "Q 1300", "N-Nitroso-N-phenylhydroxyamine-ammonium compd.", "Ammonium N-nitroso-N-phenylhydroxylamine", "Ammonium N-nitroso-N-phenylhydroxylaminato"], "SMILES": "N(N=O)(O)C1=CC=CC=C1.N", "physical_data": {"Molecular Weight": "", "Molecular Formula": "C6H6N2O2.H3N", "Melting Point": "163-164 \u00b0C"}}