{"cas_no": "135-07-9", "cn_name": "\u7532\u6c2f\u567b\u55ea", "en_name": ["Methyclothiazide", "2H-1,2,4-Benzothiadiazine-7-sulfonamide, 6-chloro-3-(chloromethyl)-3,4-dihydro-2-methyl-, 1,1-dioxide", "6-Chloro-3-(chloromethyl)-3,4-dihydro-2-methyl-2H-1,2,4-benzothiadiazine-7-sulfonamide 1,1-dioxide", "6-Chloro-3-chloromethyl-2-methyl-7-sulfamyl-3,4-dihydro-1,2,4-benzothiadiazine 1,1-dioxide", "Enduron", "Methyclothiazide", "Methycyclothiazide", "Methylcyclothiazide", "6-Chloro-3-chloromethyl-3,4-dihydro-2-methyl-7-sulfamoyl-1,2,4-benzothiadiazine 1,1-dioxide", "Duretic", "Enduronum", "Naturon", "Aquatensen", "6-Chloro-3-chloromethyl-3,4-dihydro-2-methyl-7-sulfamoyl-2H-1,2,4-benzothiadiazine 1,1-dioxide", "Ciba 7272-Su", "Methyclothiazid", "Eutron", "NSC 110431", "MeSH ID: D008736"], "SMILES": "O=S1(=O)C=2C(NC(CCl)N1C)=CC(Cl)=C(S(N)(=O)=O)C2", "physical_data": {"Molecular Weight": "360.24", "Molecular Formula": "C9H11Cl2N3O4S2", "Melting Point": "225 \u00b0C"}}