{"cas_no": "135-67-1", "cn_name": "\u5429\u5641\u55ea", "en_name": ["Phenoxazine", "10H-Phenoxazine", "Phenoxazine", "2,3", "5,6-Dibenzo-1,4-oxazine", "Phenazoxine", "NSC 72990"], "SMILES": "C1=2C(OC=3C(N1)=CC=CC3)=CC=CC2", "physical_data": {"Molecular Weight": "183.21", "Molecular Formula": "C12H9NO", "Boiling Point": "215 \u00b0C @ Press: 4 Torr", "Melting Point": "156 \u00b0C"}}