{"cas_no": "135-57-9", "cn_name": "2,2'-\u4e8c\u82ef\u7532\u9170\u6c28\u57fa\u4e8c\u82ef\u4e8c\u786b", "en_name": ["N,N\u2032-(Dithiodi-2,1-phenylene)bis[benzamide]", "Benzamide, N,N\u2032-(dithiodi-2,1-phenylene)bis-", "Benzanilide, 2\u2032,2\u2032\u2032\u2032-dithiobis-", "N,N\u2032-(Dithiodi-2,1-phenylene)bis[benzamide]", "Bis(2-benzamidophenyl) disulfide", "o,o\u2032-Dibenzamidodiphenyl disulfide", "2,2\u2032-Dibenzoylaminodiphenyl disulfide", "Bis(o-benzamidophenyl) disulfide", "Pepton 22", "2\u2032,2\u2032\u2032\u2032-Dithiodibenzanilide", "Di-o-benzamidophenyl disulfide", "Peptazin BAFD", "o-(Benzoylamino)phenyl disulfide", "Peptisant 10", "2,2\u2032-Dibenzamidodiphenyl disulfide", "Pepton 3S", "Noctizer SS", "Bis(2-benzoylaminophenyl)disulfide", "Renazit 11", "Bisbenzamide", "Vuchtazin RV/G-M", "SS", "K 202", "Vuchtazin RV/G-S", "3S", "SL 6010", "DBD", "Zincolet 89NT"], "SMILES": "S(SC1=C(NC(=O)C2=CC=CC=C2)C=CC=C1)C3=C(NC(=O)C4=CC=CC=C4)C=CC=C3", "physical_data": {"Molecular Weight": "456.58", "Molecular Formula": "C26H20N2O2S2", "Melting Point": "143-144.5 \u00b0C"}}