{"cas_no": "135-62-6", "cn_name": "3-\u7f9f\u57fa-N-(2-\u7532\u6c27\u57fa\u82ef\u57fa)-2-\u8418\u7532\u9170\u80fa", "en_name": ["3-Hydroxy-N-(2-methoxyphenyl)-2-naphthalenecarboxamide", "2-Naphthalenecarboxamide, 3-hydroxy-N-(2-methoxyphenyl)-", "2-Naphth-o-anisidide, 3-hydroxy-", "3-Hydroxy-N-(2-methoxyphenyl)-2-naphthalenecarboxamide", "C.I. 37530", "Acna Naphthol O", "Amanil Naphthol AS-OL", "Amarthol AS-OL", "Anthonaphthol MF", "Azoground OL", "Azonaphtol OA", "Azotol OA", "Brentosyn FR", "Celcot RK", "Cibanaphthol RK", "C.I. Azoic Coupling Component 20", "Daito Grounder OL", "Diathol BO", "Diathol OL", "Dragonthol OL", "Hiltonaphthol AS-OL", "Irganaphthol RK", "Kambothol ASOL", "N-(o-Methoxyphenyl)-3-hydroxy-2-naphthamide", "Mitsui Naphthozol OL", "Naftolo MOL", "Naphtanilide OL", "Naphtazol F", "Naphthanil OL", "Naphthoide OL", "Naphthol AS-OL", "Naphtoelan OL", "Solunaptol FRL", "Tulathol AS-OL", "2-Hydroxy-N-(2-methoxyphenyl)-3-naphthamide", "2-(3-Hydroxy-2-naphthamido)anisole", "3-(o-Methoxyphenylaminocarbonyl)-2-naphthol", "1-(2-Hydroxy-3-naphthoylamino)-2-methoxybenzene", "2-Hydroxy-3-naphth-o-anisidide", "3-Hydroxy-2-naphth-o-anisidide", "2-Hydroxy-3-naphthoylamino-2\u2032-methoxybenzene", "C.I. Developer 22", "Miketazol Developer NLF", "3-Hydroxy-2\u2032-methoxy-2-naphthanilide", "3-(2-Methoxyphenylcarbamoyl)-2-naphthol", "2-Hydroxy-3-naphthoic o-anisidide", "2-Hydroxy-3-naphthoic acid 2\u2032-anisidide", "2-Hydroxy-3-naphthoic acid o-methoxyanilide", "Naphthol AS-DL", "Naphthol OL", "NSC 50680", "Naftol AS-OL", "Dycosthol AS-OL", "Conazoic BO", "Kiwa Grounder OL", "Anarthol AS-OL", "Hebeithol AS-OL", "Napthol ASOL", "Blue Base BB", "N-(2-Methoxyphenyl)-3-hydroxy-2-naphthamide"], "SMILES": "C(NC1=C(OC)C=CC=C1)(=O)C2=CC3=C(C=C2O)C=CC=C3", "physical_data": {"Molecular Weight": "293.32", "Molecular Formula": "C18H15NO3", "Melting Point": "162-164 \u00b0C"}}