{"cas_no": "135-68-2", "cn_name": "4'-\u6c2f-[1,1'-\u8054\u82ef]-4-\u80fa", "en_name": ["4\u2032-Chloro[1,1\u2032-biphenyl]-4-amine", "[1,1\u2032-Biphenyl]-4-amine, 4\u2032-chloro-", "4-Biphenylamine, 4\u2032-chloro-", "4\u2032-Chloro[1,1\u2032-biphenyl]-4-amine", "p-Amino-p\u2032-chlorobiphenyl", "4-Amino-4\u2032-chlorobiphenyl", "4-Amino-4\u2032-chlorodiphenyl", "p\u2032-Chloro-p-phenylaniline", "4\u2032-Chloro-4-aminobiphenyl", "4\u2032-Chloro-4-biphenylamine", "4-Chloro-4\u2032-aminobiphenyl", "NSC 95713", "(4\u2032-Chlorobiphenyl-4-yl)amine", "4-(4-Chlorophenyl)aniline", "4\u2032-Chloro-[1,1\u2032-biphenyl]-4-amine", "4-Amino-4\u2032-chloro-1,1\u2032-biphenyl"], "SMILES": "ClC1=CC=C(C=C1)C2=CC=C(N)C=C2", "physical_data": {"Molecular Weight": "203.67", "Molecular Formula": "C12H10ClN", "Melting Point": "134 \u00b0C"}}