{"cas_no": "135-61-5", "cn_name": "\u51b0\u67d3\u5076\u5408\u7ec4\u5206 18", "en_name": ["3-Hydroxy-N-(2-methylphenyl)-2-naphthalenecarboxamide", "2-Naphthalenecarboxamide, 3-hydroxy-N-(2-methylphenyl)-", "2-Naphtho-o-toluidide, 3-hydroxy-", "3-Hydroxy-N-(2-methylphenyl)-2-naphthalenecarboxamide", "C.I. 37520", "Acco Naf-Sol AS-D", "Acco Naphthol AS-D", "Acna Naphthol E", "Amanil Naphthol AS-D", "Amarthol AS-D", "Anthonaphthol AS-D", "Azoground D", "Azoic Coupling Component 18", "Azonaphtol OT", "Brenthol OT", "Brentosyn OTN", "Celcot RTO", "Cibanaphthol RTO", "C.I. Azoic Coupling Component 18", "Daito Grounder D", "Diathol D", "Dragonthol D", "Hiltonaphthol AS-D", "3-Hydroxynaphthalene-2-carboxy-o-toluidide", "Mitsui Naphthozol D", "Naftolo MD", "Naphtanilide D", "Naphtanilide D Supra", "Naphtazol D", "Naphthanil AS-D", "Naphthoide AD", "Naphthol AS-D Supra", "Naphtoelan D", "Naphtol AS-D", "Naphtol AS-D Supra", "Solunaptol OT", "N-(o-Tolyl)-3-hydroxy-2-naphthamide", "Tulathol AS-D", "Ultrazol D", "Azotol OT", "Naphthol AS-D", "3-Hydroxy-2-naphtho-o-toluidide", "3-Hydroxy-2-naphth-o-toluidide", "1-(2-Hydroxy-3-naphthoylamino)-2-methylbenzene", "2-Hydroxy-3-naphtho-o-toluidide", "C.I. Developer 21", "Miketazol Developer NDF", "C.I. Azoic Coupling Component 110", "Dianix Developer ND", "2-Hydroxy-3-naphthoic o-toluidide", "3-Hydroxy-2\u2032-methyl-2-naphthanilide", "2-Hydroxynaphthalene-3-carbonyl-2\u2032-methylanilide", "2-Hydroxy-N-(2-methylphenyl)-3-naphthamide", "2-Hydroxy-3-naphthoic acid o-toluidide", "NSC 37188", "N-(2-Methylphenyl)-3-hydroxynaphthalene-2-carboxamide", "Kiwa Grounder D", "Dycosthol AS-D", "Azobase Red OT", "Conazoic AM", "Anarthol AS-D", "Napthol AD", "Napthol ASD", "Naftol AS-D", "Naphthol ASBT", "Hebeithol AS-D", "C.I. Azo Coupling Comp. 18", "N-(2-Methylphenyl)-3-hydroxynaphthalene-2-carboxamide", "3-Hydroxy-N-(o-tolyl)-2-naphthamide", "Agrocer Red 112"], "SMILES": "C(NC1=C(C)C=CC=C1)(=O)C2=CC3=C(C=C2O)C=CC=C3", "physical_data": {"Molecular Weight": "277.32", "Molecular Formula": "C18H15NO2", "Melting Point": "192-193 \u00b0C"}}