{"cas_no": "13508-51-5", "cn_name": "1-\u6c2f\u4e59\u57fa\u7532\u57fa\u4e8c\u7532\u6c27\u57fa\u7845\u70f7", "en_name": ["2-Chloroethylmethyldimethoxysilane", "Silane, (2-chloroethyl)dimethoxymethyl-", "(2-Chloroethyl)dimethoxymethylsilane", "2-Chloroethylmethyldimethoxysilane"], "SMILES": "[Si](CCCl)(OC)(OC)C", "physical_data": {"Molecular Weight": "168.69", "Molecular Formula": "C5H13ClO2Si", "Boiling Point": "77 \u00b0C @ Press: 25 Torr", "Density": "1.029 g/cm\u00b3 @ Temp: 25 \u00b0C"}}