{"cas_no": "13506-76-8", "cn_name": "2-\u7532\u57fa-6-\u785d\u57fa\u82ef\u7532\u9178", "en_name": ["2-Methyl-6-nitrobenzoic acid", "Benzoic acid, 2-methyl-6-nitro-", "o-Toluic acid, 6-nitro-", "2-Methyl-6-nitrobenzoic acid", "6-Methyl-2-nitrobenzoic acid", "6-Nitro-o-toluic acid"], "SMILES": "C(O)(=O)C1=C(N(=O)=O)C=CC=C1C", "physical_data": {"Molecular Weight": "181.15", "Molecular Formula": "C8H7NO4", "Melting Point": "151-153 \u00b0C"}}