{"cas_no": "13501-76-3", "cn_name": "\u0393-\u6c2f\u4e19\u57fa\u7532\u57fa\u4e8c\u4e59\u6c27\u57fa\u7845\u70f7", "en_name": ["(3-Chloropropyl)diethoxymethylsilane", "Silane, (3-chloropropyl)diethoxymethyl-", "(3-Chloropropyl)diethoxymethylsilane", "3-Chloropropylmethyldiethoxysilane", "(\u03b3-Chloropropyl)diethoxymethylsilane", "DB 220", "YDH 701", "FX-M 01868"], "SMILES": "[Si](CCCCl)(OCC)(OCC)C", "physical_data": {"Molecular Weight": "210.77", "Molecular Formula": "C8H19ClO2Si", "Boiling Point": "81-83 \u00b0C @ Press: 8 Torr", "Density": "0.9744 g/cm\u00b3 @ Temp: 20 \u00b0C"}}