{"cas_no": "13508-53-7", "cn_name": "\u4e59\u6c27\u57fa\u4e8c\u7532\u57fa\u6c2f\u7532\u57fa\u7845\u70f7", "en_name": ["(Chloromethyl)ethoxydimethylsilane", "Silane, (chloromethyl)ethoxydimethyl-", "(Chloromethyl)ethoxydimethylsilane", "(Chloromethyl)dimethylethoxysilane", "NSC 107485"], "SMILES": "[Si](OCC)(CCl)(C)C", "physical_data": {"Molecular Weight": "152.69", "Molecular Formula": "C5H13ClOSi", "Boiling Point": "132-133 \u00b0C", "Density": "0.944 g/cm\u00b3 @ Temp: 25 \u00b0C"}}