{"cas_no": "13504-85-3", "cn_name": "Cbz-L-\u7f9f\u812f\u6c28\u9178", "en_name": ["1-(Phenylmethyl) (2S,4R)-4-hydroxy-1,2-pyrrolidinedicarboxylate", "1,2-Pyrrolidinedicarboxylic acid, 4-hydroxy-, 1-(phenylmethyl) ester, (2S,4R)-", "1,2-Pyrrolidinedicarboxylic acid, 4-hydroxy-, 1-benzyl ester, L-trans-", "1,2-Pyrrolidinedicarboxylic acid, 4-hydroxy-, 1-(phenylmethyl) ester, (2S-trans)-", "1-(Phenylmethyl) (2S,4R)-4-hydroxy-1,2-pyrrolidinedicarboxylate", "1-(Benzyloxycarbonyl)-4-hydroxy-L-proline", "N-Carbobenzoxy-4-hydroxy-L-proline", "N-(Benzyloxycarbonyl)-trans-4-hydroxy-L-proline", "1-(Benzyloxycarbonyl)-trans-4-hydroxy-(S)-proline", "trans-N-(Benzyloxycarbonyl)-4-hydroxy-L-proline", "4-(R)-Hydroxy-1-(phenylmethoxycarbonyl)-L-proline", "(2S,4R)-4-Hydroxypyrrolidine-1,2-dicarboxylic acid 1-benzyl ester", "(2S,4R)-1-[(Benzyloxy)carbonyl]-4-hydroxy-2-pyrrolidinecarboxylic acid", "(2S,4R)-1-(Benzyloxycarbonyl)-4-hydroxyproline", "(2S,4R)-1-((Benzyloxy)carbonyl)-4-hydroxypyrrolidine-2-carboxylic Acid"], "SMILES": "C(OCC1=CC=CC=C1)(=O)N2C(C(O)=O)CC(O)C2", "physical_data": {"Molecular Weight": "265.26", "Molecular Formula": "C13H15NO5", "Melting Point": "102.2-102.9 \u00b0C"}}