{"cas_no": "135050-44-1", "cn_name": "3-\u6c2f-4-\u7898\u82ef\u80fa", "en_name": ["3-Chloro-4-iodobenzenamine", "Benzenamine, 3-chloro-4-iodo-", "3-Chloro-4-iodobenzenamine", "3-Chloro-4-iodoaniline", "3-Chloro-4-iodophenylamine", "NSC 137036"], "SMILES": "ClC1=C(I)C=CC(N)=C1", "physical_data": {"Molecular Weight": "253.47", "Molecular Formula": "C6H5ClIN", "Melting Point": "65 \u00b0C"}}