{"cas_no": "13509-52-9", "cn_name": "1,3,6-\u4e09\u7532\u57fa-1H,3H-\u5627\u5576-2,4-\u4e8c\u916e", "en_name": ["1,3,6-Trimethyl-2,4(1H,3H)-pyrimidinedione", "2,4(1H,3H)-Pyrimidinedione, 1,3,6-trimethyl-", "Uracil, 1,3,6-trimethyl-", "1,3,6-Trimethyl-2,4(1H,3H)-pyrimidinedione", "1,3,4-Trimethyluracil", "1,3,6-Trimethyluracil", "1,3,6-Trimethyl-1H,3H-pyrimidine-2,4-dione", "1,3,6-Trimethylpyrimidine-2,4-dione"], "SMILES": "CN1C(=O)N(C)C(=O)C=C1C", "physical_data": {"Molecular Weight": "154.17", "Molecular Formula": "C7H10N2O2", "Boiling Point": "40-60 \u00b0C", "Melting Point": "109 \u00b0C"}}