{"cas_no": "13505-01-6", "cn_name": "3-\u6c1f-4-\u785d\u57fa\u5421\u5576", "en_name": ["3-Fluoro-4-nitropyridine", "Pyridine, 3-fluoro-4-nitro-", "3-Fluoro-4-nitropyridine"], "SMILES": "N(=O)(=O)C=1C(F)=CN=CC1", "physical_data": {"Molecular Weight": "142.09", "Molecular Formula": "C5H3FN2O2", "Boiling Point": "62-64 \u00b0C @ Press: 5 Torr"}}