{"cas_no": "13504-15-9", "cn_name": "\u500d\u4ed6\u7c73\u677eEP\u6742\u8d28C", "en_name": ["(16\u03b2)-17,21-Dihydroxy-16-methylpregna-1,4,9(11)-triene-3,20-dione", "Pregna-1,4,9(11)-triene-3,20-dione, 17,21-dihydroxy-16-methyl-, (16\u03b2)-", "Pregna-1,4,9(11)-triene-3,20-dione, 17,21-dihydroxy-16\u03b2-methyl-", "(16\u03b2)-17,21-Dihydroxy-16-methylpregna-1,4,9(11)-triene-3,20-dione"], "SMILES": "CC12C(C3C(=CC1)C4(C)C(CC3)=CC(=O)C=C4)CC(C)C2(C(CO)=O)O", "physical_data": {"Molecular Weight": "356.46", "Molecular Formula": "C22H28O4", "Melting Point": "209-212 \u00b0C"}}