{"cas_no": "135062-02-1", "cn_name": "\u745e\u683c\u5217\u5948", "en_name": ["Repaglinide", "Benzoic acid, 2-ethoxy-4-[2-[[(1S)-3-methyl-1-[2-(1-piperidinyl)phenyl]butyl]amino]-2-oxoethyl]-", "Benzoic acid, 2-ethoxy-4-[2-[[3-methyl-1-[2-(1-piperidinyl)phenyl]butyl]amino]-2-oxoethyl]-, (S)-", "2-Ethoxy-4-[2-[[(1S)-3-methyl-1-[2-(1-piperidinyl)phenyl]butyl]amino]-2-oxoethyl]benzoic acid", "Repaglinide", "AG-EE 623ZW", "Prandin", "NovoNorm", "(S)-(+)-2-Ethoxy-4-[[[N-[1-(2-piperidinophenyl)-3-methylbutyl]amino]carbonyl]methyl]benzoic acid", "AGEE 623", "Novolon", "Eurepa", "(S)-(+)-Repaglinide", "GlucoNorm", "Europa 0.5", "Europa 1", "(S)-2-Ethoxy-4-[2-[[3-methyl-1-[2-(piperidin-1-yl)phenyl]butyl]amino]-2-oxoethyl]benzoic acid", "Enyglid"], "SMILES": "C(NC(CC1=CC(OCC)=C(C(O)=O)C=C1)=O)(CC(C)C)C2=C(C=CC=C2)N3CCCCC3", "physical_data": {"Molecular Weight": "452.59", "Molecular Formula": "C27H36N2O4", "Melting Point": "132 \u00b0C"}}