{"cas_no": "13519-90-9", "cn_name": "4-\u6c1f\u95f4\u82ef\u4e8c\u6c30", "en_name": ["4-Fluoro-1,3-benzenedicarbonitrile", "1,3-Benzenedicarbonitrile, 4-fluoro-", "Isophthalonitrile, 4-fluoro-", "4-Fluoro-1,3-benzenedicarbonitrile", "4-Fluoroisophthalonitrile"], "SMILES": "C(#N)C1=CC(C#N)=CC=C1F", "physical_data": {"Molecular Weight": "146.12", "Molecular Formula": "C8H3FN2", "Melting Point": "82-84 \u00b0C"}}