{"cas_no": "13512-31-7", "cn_name": "Z-L-\u916a\u6c28\u9178\u7532\u916f", "en_name": ["N-[(Phenylmethoxy)carbonyl]-L-tyrosine methyl ester", "L-Tyrosine, N-[(phenylmethoxy)carbonyl]-, methyl ester", "Tyrosine, N-carboxy-, N-benzyl methyl ester, L-", "N-[(Phenylmethoxy)carbonyl]-L-tyrosine methyl ester", "N-(Benzyloxycarbonyl)-L-tyrosine methyl ester", "N-Carbobenzoxy-L-tyrosine methyl ester", "N-(Benzyloxycarbonyl)tyrosine methyl ester", "N-Cbz-L-tyrosine methyl ester"], "SMILES": "C(C(NC(OCC1=CC=CC=C1)=O)C(OC)=O)C2=CC=C(O)C=C2", "physical_data": {"Molecular Weight": "329.35", "Molecular Formula": "C18H19NO5", "Melting Point": "92-93 \u00b0C"}}