{"cas_no": "13511-38-1", "cn_name": "3-\u6c2f\u7279\u620a\u9178", "en_name": ["3-Chloro-2,2-dimethylpropanoic acid", "Propanoic acid, 3-chloro-2,2-dimethyl-", "Propionic acid, 3-chloro-2,2-dimethyl-", "3-Chloro-2,2-dimethylpropanoic acid", "\u03b2-Chloro-\u03b1,\u03b1-dimethylpropionic acid", "Chloropivalic acid", "3-Chloropivalic acid", "\u03b2-Chloropivalic acid", "Chlorotrimethylacetic acid", "3-Chloro-2,2-dimethylpropionic acid", "NSC 89696"], "SMILES": "C(C(O)=O)(CCl)(C)C", "physical_data": {"Molecular Weight": "136.58", "Molecular Formula": "C5H9ClO2", "Boiling Point": "90-120 \u00b0C @ Press: 7 Torr", "Melting Point": "41.5 \u00b0C"}}