{"cas_no": "135158-54-2", "cn_name": "S-\u7532\u57fa\u82ef\u5e76[1,2,3]\u567b\u4e8c\u5511-7-\u786b\u4ee3\u7fa7\u9178\u916f", "en_name": ["Acibenzolar-S-methyl", "1,2,3-Benzothiadiazole-7-carbothioic acid, S-methyl ester", "CGA 245704", "Actigard", "Benzothiadiazole", "BTH", "Acibenzolar-S-methyl", "Bendicar", "Bion", "Bion (pesticide)", "BTH (agrochemical)", "Bion 50WG", "Bion 49", "Actigard AM 87", "Bion 500WG"], "SMILES": "C(SC)(=O)C1=C2C(=CC=C1)N=NS2", "physical_data": {"Molecular Weight": "210.28", "Molecular Formula": "C8H6N2OS2", "Boiling Point": "~267 \u00b0C (approx)", "Melting Point": "132.9 \u00b0C"}}