{"cas_no": "13518-80-4", "cn_name": "2-(\u4e09\u7532\u57fa\u7845\u57fa)-1,2,3-\u4e09\u6c2e\u5511", "en_name": ["2-(Trimethylsilyl)-2H-1,2,3-triazole", "2H-1,2,3-Triazole, 2-(trimethylsilyl)-", "2-(Trimethylsilyl)-2H-1,2,3-triazole", "2-(Trimethylsilyl)-1,2,3-triazole"], "SMILES": "[Si](C)(C)(C)N1N=CC=N1", "physical_data": {"Molecular Weight": "141.25", "Molecular Formula": "C5H11N3Si", "Melting Point": "148 \u00b0C"}}