{"cas_no": "13510-35-5", "cn_name": "\u7898\u5316\u94df", "en_name": ["Indium triiodide", "Indium iodide (InI3)", "Indium triiodide", "Indium iodide", "Indium(III) iodide", "Triiodoindium"], "SMILES": "[In](I)(I)I", "physical_data": {"Molecular Weight": "", "Molecular Formula": "I3In", "Melting Point": "198 \u00b0C", "Density": "4.66 g/cm\u00b3 @ Temp: 25 \u00b0C"}}