{"cas_no": "13515-97-4", "cn_name": "DL-\u4e19\u6c28\u9178\u7532\u916f\u76d0\u9178\u76d0", "en_name": ["Alanine, methyl ester, hydrochloride (1:1)", "Alanine, methyl ester, hydrochloride (1:1)", "Alanine, methyl ester, hydrochloride, DL-", "DL-Alanine, methyl ester, hydrochloride", "Alanine, methyl ester, hydrochloride", "(\u00b1)-Alanine methyl ester hydrochloride", "Methyl DL-alaninate hydrochloride", "Methyl 2-aminopropanoate hydrochloride", "DL-Alanine methyl ester hydrochloride"], "SMILES": "C(C(C)N)(OC)=O.Cl", "physical_data": {"Molecular Weight": "", "Molecular Formula": "C4H9NO2.ClH", "Melting Point": "155-157 \u00b0C"}}