{"cas_no": "13513-82-1", "cn_name": "\u7532\u6c27\u57fa\u4e8c\u7532\u57fa\u82c4\u7532\u9187", "en_name": ["2-Methoxy-\u03b1-methylbenzenemethanol", "Benzenemethanol, 2-methoxy-\u03b1-methyl-", "Benzyl alcohol, o-methoxy-\u03b1-methyl-", "2-Methoxy-\u03b1-methylbenzenemethanol", "\u03b1-Methyl-o-methoxybenzyl alcohol", "\u03b1-(2-Methoxyphenyl)ethanol", "(\u00b1)-2-Methoxy-\u03b1-methylbenzyl alcohol", "(\u00b1)-1-(2-Methoxyphenyl)ethanol", "1-(2-Methoxyphenyl)ethanol", "o-Methoxy-\u03b1-methylbenzyl alcohol", "2-Methoxy-\u03b1-methylbenzyl alcohol", "1-(o-Methoxyphenyl)ethanol", "1-(2-Methoxyphenyl)ethan-1-ol"], "SMILES": "O(C)C1=C(C(C)O)C=CC=C1", "physical_data": {"Molecular Weight": "152.19", "Molecular Formula": "C9H12O2", "Boiling Point": "125 \u00b0C", "Melting Point": "-85.1 \u00b0C", "Density": "1.0780 g/cm\u00b3 @ Temp: 25 \u00b0C"}}