{"cas_no": "13519-75-0", "cn_name": "\u4e59\u57fa\u6c2f\u82ef\u80fa", "en_name": ["4-Chloro-N-ethylbenzenamine", "Benzenamine, 4-chloro-N-ethyl-", "Aniline, p-chloro-N-ethyl-", "4-Chloro-N-ethylbenzenamine", "p-Chloro-N-ethylaniline", "N-Ethyl-p-chloroaniline", "N-Ethyl-4-chloroaniline", "4-Chloro-N-ethylaniline", "N-(4-Chlorophenyl)-N-ethylamine", "N-(4-Chlorophenyl)ethylamine"], "SMILES": "N(CC)C1=CC=C(Cl)C=C1", "physical_data": {"Molecular Weight": "155.62", "Molecular Formula": "C8H10ClN", "Boiling Point": "247-250 \u00b0C @ Press: 760 Torr"}}