{"cas_no": "13517-10-7", "cn_name": "\u4e09\u7898\u5316\u787c", "en_name": ["Boron triiodide", "Borane, triiodo-", "Boron iodide (BI3)", "Boron iodide", "Triiodoborane", "Boron triiodide", "Triiodoboron"], "SMILES": "B(I)(I)I", "physical_data": {"Molecular Weight": "391.52", "Molecular Formula": "BI3", "Melting Point": "49.6 \u00b0C"}}