{"cas_no": "13529-27-6", "cn_name": "2-\u7ce0\u919b\u7f29\u4e8c\u4e59\u9187", "en_name": ["2-Furaldehyde, diethyl acetal", "Furan, 2-(diethoxymethyl)-", "2-Furaldehyde, diethyl acetal", "2-(Diethoxymethyl)furan", "2-Furfural diethyl acetal", "2-Furancarboxaldehyde diethyl acetal", "Furfural diethyl acetal"], "SMILES": "C(OCC)(OCC)C1=CC=CO1", "physical_data": {"Molecular Weight": "170.21", "Molecular Formula": "C9H14O3", "Boiling Point": "191.5 \u00b0C"}}