{"cas_no": "13522-14-0", "cn_name": "\u96c4\u753e-3-\u7f9f\u57fa-2,16-\u53cc\u54cc\u5576\u57fa-17-\u916e", "en_name": ["(2\u03b2,3\u03b1,5\u03b1,16\u03b2)-3-Hydroxy-2,16-di-1-piperidinylandrostan-17-one", "Androstan-17-one, 3-hydroxy-2,16-di-1-piperidinyl-, (2\u03b2,3\u03b1,5\u03b1,16\u03b2)-", "5\u03b1-Androstan-17-one, 3\u03b2-hydroxy-2\u03b2,16\u03b2-dipiperidino-", "(2\u03b2,3\u03b1,5\u03b1,16\u03b2)-3-Hydroxy-2,16-di-1-piperidinylandrostan-17-one", "2\u03b2,16\u03b2-Dipiperidino-5\u03b1-androstan-3\u03b1-ol-17-one"], "SMILES": "CC12C(C3C(C4(C)C(CC3)CC(O)C(C4)N5CCCCC5)CC1)CC(C2=O)N6CCCCC6", "physical_data": {"Molecular Weight": "456.70", "Molecular Formula": "C29H48N2O2", "Melting Point": "179-185 \u00b0C"}}