{"cas_no": "13522-16-2", "cn_name": "2,16-\u53cc(\u54cc\u5576-1-\u57fa)\u96c4\u753e-3,17-\u4e8c\u9187", "en_name": ["(2\u03b2,3\u03b1,5\u03b1,16\u03b2,17\u03b2)-2,16-Di-1-piperidinylandrostane-3,17-diol", "Androstane-3,17-diol, 2,16-di-1-piperidinyl-, (2\u03b2,3\u03b1,5\u03b1,16\u03b2,17\u03b2)-", "5\u03b1-Androstane-3\u03b1,17\u03b2-diol, 2\u03b2,16\u03b2-dipiperidino-", "(2\u03b2,3\u03b1,5\u03b1,16\u03b2,17\u03b2)-2,16-Di-1-piperidinylandrostane-3,17-diol", "2\u03b2,16\u03b2-Dipiperidino-5\u03b1-androstane-3\u03b1,17\u03b2-diol", "2,16-Di(piperidin-1-yl)androstane-3,17-diol"], "SMILES": "CC12C(C3C(C4(C)C(CC3)CC(O)C(C4)N5CCCCC5)CC1)CC(C2O)N6CCCCC6", "physical_data": {"Molecular Weight": "458.72", "Molecular Formula": "C29H50N2O2", "Melting Point": "157 \u00b0C"}}