{"cas_no": "13524-04-4", "cn_name": "1-(2-\u6c2f\u82ef\u57fa)-1-\u4e59\u9187", "en_name": ["1-(2-Chlorophenyl)ethanol", "Benzenemethanol, 2-chloro-\u03b1-methyl-", "Benzyl alcohol, o-chloro-\u03b1-methyl-", "2-Chloro-\u03b1-methylbenzenemethanol", "\u03b1-(o-Chlorophenyl)ethanol", "1-(2-Chlorophenyl)ethanol", "(\u00b1)-1-(2-Chlorophenyl)ethanol", "1-(o-Chlorophenyl)ethanol", "(\u00b1)-1-(o-Chlorophenyl)ethanol", "1-(2-Chlorophenyl)-1-ethanol"], "SMILES": "C(C)(O)C1=C(Cl)C=CC=C1", "physical_data": {"Molecular Weight": "156.61", "Molecular Formula": "C8H9ClO", "Boiling Point": "115-116 \u00b0C @ Press: 12 Torr", "Density": "1.355 g/cm\u00b3 @ Temp: 20 \u00b0C"}}