{"cas_no": "13520-78-0", "cn_name": "\u6c27\u4ee3\u6c2f\u5316\u94a8", "en_name": ["Tungsten chloride oxide (WCl4O)", "Tungsten chloride oxide (WCl4O)", "Tungsten chloride oxide (WOCl4)", "Tungsten oxytetrachloride", "Tungsten oxide chloride (WOCl4)", "Tetrachlorooxotungsten", "Tungsten oxide tetrachloride", "Tungsten tetrachloride oxide", "Tetrachlorooxytungsten", "Tungsten tetrachloride monoxide", "Tungsten tetrachloride monooxide", "Tungsten oxychloride (WOCl4)", "Tetrachlorotungsten oxide", "Tungsten(VI) oxychloride", "Tungsten(VI) oxochloride", "Tungsten(VI) oxytetrachloride"], "SMILES": "[W](Cl)(Cl)(Cl)(Cl)=O", "physical_data": {"Molecular Weight": "", "Molecular Formula": "Cl4OW", "Boiling Point": "232 \u00b0C", "Melting Point": "209 \u00b0C"}}