{"cas_no": "13528-93-3", "cn_name": "1,2-\u53cc(\u6c2f\u4e8c\u7532\u57fa\u7845\u57fa)\u4e59\u70f7", "en_name": ["1,1\u2032-(1,2-Ethanediyl)bis[1-chloro-1,1-dimethylsilane]", "Silane, 1,1\u2032-(1,2-ethanediyl)bis[1-chloro-1,1-dimethyl-", "2,5-Disilahexane, 2,5-dichloro-2,5-dimethyl-", "Silane, 1,2-ethanediylbis[chlorodimethyl-", "1,1\u2032-(1,2-Ethanediyl)bis[1-chloro-1,1-dimethylsilane]", "1,2-Bis(chlorodimethylsilyl)ethane", "Ethylenebis[chlorodimethylsilane]", "1,2-Bis(dimethylchlorosilyl)ethane", "2,5-Dimethyl-2,5-dichloro-2,5-disilahexane", "LS 7080", "1,1,4,4-Tetramethyl-1,4-dichlorodisilylethylene", "Chloro[2-[chlorodimethylsilyl]ethyl]dimethylsilane"], "SMILES": "C(C[Si](C)(C)Cl)[Si](C)(C)Cl", "physical_data": {"Molecular Weight": "215.27", "Molecular Formula": "C6H16Cl2Si2", "Boiling Point": "198-199 \u00b0C", "Melting Point": "36-39 \u00b0C"}}