{"cas_no": "13529-31-2", "cn_name": "(2b,3a,16b,17b)-2,16-\u53cc(\u54cc\u5576\u57fa)-3,17-\u4e8c\u4e59\u9170\u6c27\u57fa-5-\u96c4\u753e\u70f7", "en_name": ["Androstane-3,17-diol, 2,16-di-1-piperidinyl-, 3,17-diacetate, (2\u03b2,3\u03b1,5\u03b1,16\u03b2,17\u03b2)-", "Androstane-3,17-diol, 2,16-di-1-piperidinyl-, 3,17-diacetate, (2\u03b2,3\u03b1,5\u03b1,16\u03b2,17\u03b2)-", "5\u03b1-Androstane-3\u03b1,17\u03b2-diol, 2\u03b2,16\u03b2-dipiperidino-, diacetate (ester)", "Androstane-3,17-diol, 2,16-di-1-piperidinyl-, diacetate (ester), (2\u03b2,3\u03b1,5\u03b1,16\u03b2,17\u03b2)-", "2\u03b2,16\u03b2-Dipiperidino-5\u03b1-androstane-3\u03b1,17\u03b2-diol diacetate (ester)", "(2\u03b2,3\u03b1,5\u03b1,16\u03b2,17\u03b2)-2,16-Bispiperidino-3,17-diacetoxy-5-androstane", "(2\u03b2,3\u03b1,5\u03b1,16\u03b2,17\u03b2)-2,16-Bis(piperidino)androstane-3,17-diol 3,17-diacetate"], "SMILES": "CC12C(C3C(CC1)C4(C)C(CC3)CC(OC(C)=O)C(C4)N5CCCCC5)CC(C2OC(C)=O)N6CCCCC6", "physical_data": {"Molecular Weight": "542.79", "Molecular Formula": "C33H54N2O4", "Melting Point": "176-180 \u00b0C"}}