{"cas_no": "13523-86-9", "cn_name": "\u5432\u54da\u6d1b\u5c14", "en_name": ["Pindolol", "2-Propanol, 1-(1H-indol-4-yloxy)-3-[(1-methylethyl)amino]-", "2-Propanol, 1-(indol-4-yloxy)-3-(isopropylamino)-", "1-(1H-Indol-4-yloxy)-3-[(1-methylethyl)amino]-2-propanol", "4-(2-Hydroxy-3-isopropylaminopropoxy)indole", "Pindolol", "1-[(1-Methylethyl)amino]-3-(4-indolyloxy)-2-propanol", "Prinodolol", "4-(3-Isopropylamino-2-hydroxypropoxy)indole", "Carvisken", "LB 46", "DL-4-[2-Hydroxy-3-(isopropylamino)propoxy]indole", "DL-LB 46", "Visken", "(\u00b1)-4-[2-Hydroxy-3-(isopropylamino)propoxy]indole", "(\u00b1)-Pindolol", "DL-Pindolol", "(\u00b1)-LB 46", "dl-Pindolol", "(RS)-Pindolol", "Glauco-Visken", "Pectobloc", "Decreten", "Pynastin", "Blocklin L", "Calvisken", "Betapindol", "Durapindol", "Pinbetol", "N-[2-Hydroxy-3-(1H-indol-4-yloxy)propyl]-N-isopropylamine", "LB 46 (pharmaceutical)", "Apo-pindol", "[2-Hydroxy-3-(1H-indol-4-yloxy)propyl](propan-2-yl)amine", "1-(1H-Indol-4-yloxy)-3-(propan-2-ylamino)propan-2-ol", "MeSH ID: D010869"], "SMILES": "O(CC(CNC(C)C)O)C1=C2C(NC=C2)=CC=C1", "physical_data": {"Molecular Weight": "248.32", "Molecular Formula": "C14H20N2O2", "Melting Point": "171-173 \u00b0C"}}