{"cas_no": "13531-48-1", "cn_name": "3-\u6c30\u57fa\u82ef\u7532\u9178\u7532\u916f", "en_name": ["Benzoic acid, 3-cyano-, methyl ester", "Benzoic acid, 3-cyano-, methyl ester", "Benzoic acid, m-cyano-, methyl ester", "Methyl m-cyanobenzoate", "Methyl 3-cyanobenzoate", "3-Cyanobenzoic acid methyl ester", "3-(Methoxycarbonyl)benzonitrile"], "SMILES": "C(OC)(=O)C1=CC(C#N)=CC=C1", "physical_data": {"Molecular Weight": "161.16", "Molecular Formula": "C9H7NO2", "Melting Point": "38-40 \u00b0C"}}