{"cas_no": "13531-52-7", "cn_name": "N-(2-\u4e59\u6c28\u57fa)-1,3-\u4e19\u4e8c\u80fa", "en_name": ["3-(Aminopropyl)ethylenediamine", "1,3-Propanediamine, N1-(2-aminoethyl)-", "1,3-Propanediamine, N-(2-aminoethyl)-", "N1-(2-Aminoethyl)-1,3-propanediamine", "1,4,8-Triazaoctane", "N-(3-Aminopropyl)-1,2-diaminoethane", "3-(Aminopropyl)ethylenediamine", "3-[(2-Aminoethyl)amino]propylamine", "N-(2-Aminoethyl)-1,3-diaminopropane", "N-(3-Aminopropyl)ethylenediamine", "3-Azahexane-1,6-diamine", "N3 Amine", "1,6-Diamino-3-azahexane", "N-(3-Aminoethyl)-1,3-propanediamine", "N-(2-Aminoethyl)-1,3-propanediamine", "1,6-Diamino-4-azahexane", "(2-Aminoethyl)(3-aminopropyl)amine"], "SMILES": "C(NCCN)CCN", "physical_data": {"Molecular Weight": "117.19", "Molecular Formula": "C5H15N3", "Boiling Point": "72 \u00b0C @ Press: 1.0 Torr", "Density": "0.9401 g/cm\u00b3 @ Temp: 20 \u00b0C"}}