{"cas_no": "13537-18-3", "cn_name": "\u4e09\u6c2f\u5316\u94e5", "en_name": ["Thulium trichloride", "Thulium chloride (TmCl3)", "Thulium trichloride", "Thulium chloride", "Thulium(III) chloride"], "SMILES": "[Tm](Cl)(Cl)Cl", "physical_data": {"Molecular Weight": "", "Molecular Formula": "Cl3Tm", "Boiling Point": "1488 \u00b0C", "Melting Point": "821 \u00b0C"}}