{"cas_no": "13534-99-1", "cn_name": "2-\u6c28\u57fa-3-\u6eb4\u5421\u5576", "en_name": ["2-Amino-3-bromopyridine", "2-Pyridinamine, 3-bromo-", "Pyridine, 2-amino-3-bromo-", "3-Bromo-2-pyridinamine", "3-Bromo-2-aminopyridine", "2-Amino-3-bromopyridine", "(3-Bromopyridin-2-yl)amine", "2-Amino-3-bromo-2-pyridine"], "SMILES": "BrC1=C(N)N=CC=C1", "physical_data": {"Molecular Weight": "173.01", "Molecular Formula": "C5H5BrN2", "Melting Point": "65-66 \u00b0C"}}