{"cas_no": "13532-18-8", "cn_name": "3-\u7532\u786b\u57fa\u4e19\u9178\u7532\u916f", "en_name": ["Methyl 3-(methylthio)propionate", "Propanoic acid, 3-(methylthio)-, methyl ester", "Propionic acid, 3-(methylthio)-, methyl ester", "Methyl \u03b2-methylthiopropionate", "Methyl 3-(methylthio)propionate", "2-Methoxycarbonylethyl methyl sulfide", "Methyl 3-methylthiopropanoate", "NSC 76415", "Methyl 3-(methylsulfanyl)propanoate"], "SMILES": "C(CCSC)(OC)=O", "physical_data": {"Molecular Weight": "134.20", "Molecular Formula": "C5H10O2S", "Boiling Point": "69 \u00b0C @ Press: 11 Torr", "Melting Point": "204-205 \u00b0C", "Density": "1.075 g/cm\u00b3 @ Temp: 20 \u00b0C"}}