{"cas_no": "13530-65-9", "cn_name": "\u94ec\u9178\u950c(1:1)", "en_name": ["Zinc chromate", "Chromic acid (H2CrO4), zinc salt (1:1)", "Zinc chromate(VI) (ZnCrO4)", "Zinc chromate", "Zinc chromate (ZnCrO4)", "Chromium zinc oxide (ZnCrO4)", "Zinc chromium oxide (ZnCrO4)", "Buttercup yellow", "Zinc chrome yellow", "Zincro ZTO"], "SMILES": "[Cr](O)(O)(=O)=O.[Zn]", "physical_data": {"Molecular Weight": "", "Molecular Formula": "CrH2O4.Zn", "Melting Point": "316 \u00b0C", "Density": "3.40 g/cm\u00b3"}}