{"cas_no": "13532-94-0", "cn_name": "2-\u7532\u57fa-2-\u4e19\u70ef\u9178-2-\u4e01\u6c27\u57fa\u4e59\u916f", "en_name": ["2-Butoxyethyl methacrylate", "2-Propenoic acid, 2-methyl-, 2-butoxyethyl ester", "Methacrylic acid, 2-butoxyethyl ester", "2-Butoxyethyl methacrylate", "2-Butoxyethyl 2-methyl-2-propenoate", "Light Ester BO", "2-n-Butoxyethyl methacrylate", "NSC 35170", "2-Butoxyethyl metharylate", "Butylmonoglycol (meth)acrylate"], "SMILES": "O(C(C(C)=C)=O)CCOCCCC", "physical_data": {"Molecular Weight": "186.25", "Molecular Formula": "C10H18O3", "Boiling Point": "122 \u00b0C @ Press: 12 Torr"}}