{"cas_no": "13534-97-9", "cn_name": "5-\u6c28\u57fa-2-\u6eb4\u5421\u5576", "en_name": ["5-Amino-2-bromopyridine", "3-Pyridinamine, 6-bromo-", "Pyridine, 5-amino-2-bromo-", "6-Bromo-3-pyridinamine", "2-Bromo-5-aminopyridine", "5-Amino-2-bromopyridine", "3-Amino-6-bromopyridine", "6-Bromopyridin-3-ylamine", "(2-Bromopyridin-5-yl)amine", "6-Bromo-3-aminopyridine", "2-Bromopyridin-5-amine"], "SMILES": "NC=1C=CC(Br)=NC1", "physical_data": {"Molecular Weight": "173.01", "Molecular Formula": "C5H5BrN2", "Boiling Point": "177-178 \u00b0C @ Press: 12 Torr", "Melting Point": "77 \u00b0C"}}