{"cas_no": "13548-69-1", "cn_name": "2,7-\u4e8c\u6c28\u57fa\u82b4\u4e8c\u76d0\u9178\u76d0", "en_name": ["9H-Fluorene-2,7-diamine, hydrochloride (1:2)", "9H-Fluorene-2,7-diamine, hydrochloride (1:2)", "Fluorene-2,7-diamine, dihydrochloride", "9H-Fluorene-2,7-diamine, dihydrochloride", "2,7-Diaminofluorene dihydrochloride"], "SMILES": "NC=1C=C2C(C=3C(C2)=CC(N)=CC3)=CC1.Cl", "physical_data": {"Molecular Weight": "", "Molecular Formula": "C13H12N2.2ClH", "Melting Point": "&gt;300 \u00b0C"}}