{"cas_no": "13545-04-5", "cn_name": "2,3-\u4e8c\u7532\u57fa\u4e01\u4e8c\u9178", "en_name": ["2,3-Dimethylsuccinic acid", "Butanedioic acid, 2,3-dimethyl-", "Succinic acid, 2,3-dimethyl-", "Succinic acid, \u03b1,\u03b2-dimethyl-", "2,3-Dimethylbutanedioic acid", "2,3-Butanedicarboxylic acid", "2,3-Dimethylsuccinic acid", "\u03b1,\u03b2-Dimethylsuccinic acid", "NSC 41215"], "SMILES": "C(C(C(O)=O)C)(C(O)=O)C", "physical_data": {"Molecular Weight": "146.14", "Molecular Formula": "C6H10O4", "Boiling Point": "98-99 \u00b0C @ Press: 11 Torr", "Melting Point": "132 \u00b0C (decomp)", "Density": "0.9988 g/cm\u00b3 @ Temp: 20 \u00b0C"}}