{"cas_no": "13547-70-1", "cn_name": "\u4e00\u6c2f\u9891\u5450\u916e", "en_name": ["1-Chloropinacolone", "2-Butanone, 1-chloro-3,3-dimethyl-", "1-Chloro-3,3-dimethyl-2-butanone", "\u03b1-Chloropinacolone", "Chloromethyl tert-butyl ketone", "tert-Butyl chloromethyl ketone", "1-Chloropinacolone", "\u03b1-Chloropinacolin", "3,3-Dimethyl-2-oxobutyl chloride", "Chloromethyl tert-butyl ketone"], "SMILES": "C(C(C)(C)C)(CCl)=O", "physical_data": {"Molecular Weight": "134.60", "Molecular Formula": "C6H11ClO", "Boiling Point": "60.5 \u00b0C @ Press: 7 Torr", "Melting Point": "120 \u00b0C"}}