{"cas_no": "135410-20-7", "cn_name": "\u5576\u866b\u8112", "en_name": ["Acetamiprid", "Ethanimidamide, N-[(6-chloro-3-pyridinyl)methyl]-N\u2032-cyano-N-methyl-, (1E)-", "(1E)-N-[(6-Chloro-3-pyridinyl)methyl]-N\u2032-cyano-N-methylethanimidamide", "Acetamiprid", "Mospilan", "NI 25", "NI 25 (pesticide)", "Pristine", "Assail", "Piorun", "Stonkat", "Intruder", "TD 2472-01", "TD 2472", "TD 2480", "ADA 06200", "NFK 17", "Prize", "Prize (insecticide)", "BY 102960", "Pristine (insecticide)", "Gazelle SG", "Mospilan 20SP", "Assail 30SG", "Supreme", "Epik 20 SG", "Quasar 8.5SL", "Mukhnet A", "Mospilan 20SG", "Mospilan SG", "Acelan 20", "Acelan 20SL", "Acelan 20SP", "Azomar"], "SMILES": "C(N(C(=NC#N)C)C)C=1C=CC(Cl)=NC1", "physical_data": {"Molecular Weight": "222.67", "Molecular Formula": "C10H11ClN4", "Melting Point": "98.9 \u00b0C"}}