{"cas_no": "135484-83-2", "cn_name": "2-\u6c28\u57fa-4-\u6eb4\u82ef\u7532\u9178\u7532\u916f", "en_name": ["Methyl 2-amino-4-bromobenzoate", "Benzoic acid, 2-amino-4-bromo-, methyl ester", "Methyl 2-amino-4-bromobenzoate", "2-Amino-4-bromobenzoic acid methyl ester"], "SMILES": "C(OC)(=O)C1=C(N)C=C(Br)C=C1", "physical_data": {"Molecular Weight": "230.06", "Molecular Formula": "C8H8BrNO2", "Melting Point": "78 \u00b0C"}}