{"cas_no": "13544-06-4", "cn_name": "2-\u785d\u57fa-4-(\u4e09\u6c1f\u7532\u57fa)\u82ef\u4e59\u8148", "en_name": ["2-Nitro-4-(trifluoromethyl)benzeneacetonitrile", "Benzeneacetonitrile, 2-nitro-4-(trifluoromethyl)-", "Acetonitrile, (\u03b1,\u03b1,\u03b1-trifluoro-2-nitro-p-tolyl)-", "2-Nitro-4-(trifluoromethyl)benzeneacetonitrile", "4-Trifluoromethyl-2-nitrobenzeneacetonitrile", "(2-Nitro-4-trifluoromethylphenyl)acetonitrile", "2-[2-Nitro-4-(trifluoromethyl)phenyl]acetonitrile"], "SMILES": "N(=O)(=O)C1=C(CC#N)C=CC(C(F)(F)F)=C1", "physical_data": {"Molecular Weight": "230.14", "Molecular Formula": "C9H5F3N2O2", "Boiling Point": "134-138 \u00b0C", "Melting Point": "37-38 \u00b0C"}}