{"cas_no": "13544-44-0", "cn_name": "2,4-\u4e8c\u6c2f-5-\u7898\u5627\u5576", "en_name": ["2,4-Dichloro-5-iodopyrimidine", "Pyrimidine, 2,4-dichloro-5-iodo-", "2,4-Dichloro-5-iodopyrimidine", "5-Iodo-2,4-dichloropyrimidine", "NSC 97872", "2,4-Chloro-5-iodopyrimidine"], "SMILES": "ClC=1C(I)=CN=C(Cl)N1", "physical_data": {"Molecular Weight": "274.87", "Molecular Formula": "C4HCl2IN2", "Melting Point": "71-72 \u00b0C"}}