{"cas_no": "13551-87-6", "cn_name": "\u7c73\u7d22\u785d\u5511", "en_name": ["Misonidazole", "1H-Imidazole-1-ethanol, \u03b1-(methoxymethyl)-2-nitro-", "Imidazole-1-ethanol, \u03b1-(methoxymethyl)-2-nitro-", "\u03b1-(Methoxymethyl)-2-nitro-1H-imidazole-1-ethanol", "1-(2-Nitro-1-imidazolyl)-3-methoxy-2-propanol", "Ro 7-0582", "2-Nitro-1H-imidazole-1-(3-methoxy-2-propanol)", "1-(2-Hydroxy-3-methoxypropyl)-2-nitroimidazole", "Misonidazole", "SRI 1354", "SR 1354", "NSC 261037", "Racemic misonidazole", "1-(2\u2032-Hydroxy-3\u2032-methoxypropyl)-2-nitroimidazole", "1-Methoxy-3-(2-nitroimidazol-1-yl)propan-2-ol", "MISO", "MISO (misonidazole)", "Misonidazole (MISO)", "MeSH ID: D008920"], "SMILES": "N(=O)(=O)C=1N(CC(COC)O)C=CN1", "physical_data": {"Molecular Weight": "201.18", "Molecular Formula": "C7H11N3O4", "Melting Point": "110-111 \u00b0C"}}