{"cas_no": "135531-86-1", "cn_name": "CAMALEXIN", "en_name": ["Camalexin", "1H-Indole, 3-(2-thiazolyl)-", "3-(2-Thiazolyl)-1H-indole", "Camalexin", "Camalexine", "SML 1016", "3-(1,3-Thiazol-2-yl)-1H-indole"], "SMILES": "C=1(C=2C(NC1)=CC=CC2)C3=NC=CS3", "physical_data": {"Molecular Weight": "200.26", "Molecular Formula": "C11H8N2S", "Melting Point": "137-138 \u00b0C"}}