{"cas_no": "13552-21-1", "cn_name": "1-\u6c28\u57fa-2-\u4e01\u9187", "en_name": ["1-Amino-2-butanol", "2-Butanol, 1-amino-", "1-Amino-2-butanol", "1-Ethyl-2-aminoethanol", "1-Amino-2-hydroxybutane", "2-Hydroxybutylamine", "(\u00b1)-1-Amino-2-butanol", "NSC 17695", "Mono-sec-butanolamine"], "SMILES": "C(CC)(CN)O", "physical_data": {"Molecular Weight": "89.14", "Molecular Formula": "C4H11NO", "Boiling Point": "169 \u00b0C", "Melting Point": "3 \u00b0C"}}