{"cas_no": "13552-72-2", "cn_name": "\u76d0\u9178\u5f02\u53ef\u5229\u5b9a", "en_name": ["Isocorydine hydrochloride", "4H-Dibenzo[de,g]quinolin-11-ol, 5,6,6a,7-tetrahydro-1,2,10-trimethoxy-6-methyl-, hydrochloride (1:1), (6aS)-", "6a\u03b1-Aporphin-11-ol, 1,2,10-trimethoxy-, hydrochloride", "4H-Dibenzo[de,g]quinolin-11-ol, 5,6,6a,7-tetrahydro-1,2,10-trimethoxy-6-methyl-, hydrochloride, (S)-", "4H-Dibenzo[de,g]quinolin-11-ol, 5,6,6a,7-tetrahydro-1,2,10-trimethoxy-6-methyl-, hydrochloride, (6aS)-", "Isocorydine hydrochloride", "(+)-Isocorydine hydrochloride"], "SMILES": "O(C)C1=C2C=3C(CC=4C2=C(O)C(OC)=CC4)N(C)CCC3C=C1OC.Cl", "physical_data": {"Molecular Weight": "", "Molecular Formula": "C20H23NO4.ClH", "Melting Point": "200-210 \u00b0C"}}