{"cas_no": "13553-79-2", "cn_name": "\u5229\u798f\u9709\u7d20S", "en_name": ["Rifamycin S", "Rifamycin, 1,4-dideoxy-1,4-dihydro-1,4-dioxo-", "2,7-(Epoxypentadeca[1,11,13]trienimino)naphtho[2,1-b]furan-1,6,9,11(2H)-tetrone, 5,17,19,21-tetrahydroxy-23-methoxy-2,4,12,16,18,20,22-heptamethyl-, 21-acetate", "Rifomycin S", "2,7-(Epoxypentadeca[1,11,13]trienimino)naphtho[2,1-b]furan, rifamycin deriv.", "1,4-Dideoxy-1,4-dihydro-1,4-dioxorifamycin", "Rifamycin S", "NSC 144130"], "SMILES": "O=C1C=2C3=C4C(=O)C(=CC3=O)NC(=O)C(C)=CC=CC(C)C(O)C(C)C(O)C(C)C(OC(C)=O)C(C)C(OC)C=COC1(C)OC2C(C)=C4O", "physical_data": {"Molecular Weight": "695.75", "Molecular Formula": "C37H45NO12", "Melting Point": "180-182 \u00b0C"}}