{"cas_no": "13552-11-9", "cn_name": "\u690d\u7269\u9798\u6c28\u9187", "en_name": ["4-Hydroxysphinganine", "1,3,4-Octadecanetriol, 2-amino-", "2-Amino-1,3,4-octadecanetriol", "4-Hydroxysphinganine", "4-Hydroxysphiganine"], "SMILES": "C(CCCCCCCCCCCCCC)(C(C(CO)N)O)O", "physical_data": {"Molecular Weight": "317.51", "Molecular Formula": "C18H39NO3", "Melting Point": "136-138 \u00b0C"}}