{"cas_no": "135590-91-9", "cn_name": "\u5421\u5511\u89e3\u8349\u916f", "en_name": ["Mefenpyr-diethyl", "1H-Pyrazole-3,5-dicarboxylic acid, 1-(2,4-dichlorophenyl)-4,5-dihydro-5-methyl-, 3,5-diethyl ester", "1H-Pyrazole-3,5-dicarboxylic acid, 1-(2,4-dichlorophenyl)-4,5-dihydro-5-methyl-, diethyl ester", "Mefenpyr-diethyl", "HOE 107892", "AE-F 107892", "Ethyl 1-(2,4-dichlorophenyl)-5-(ethoxycarbonyl)-5-methyl-2-pyrazoline-3-carboxylate"], "SMILES": "C(OCC)(=O)C1(C)N(N=C(C(OCC)=O)C1)C2=C(Cl)C=C(Cl)C=C2", "physical_data": {"Molecular Weight": "373.23", "Molecular Formula": "C16H18Cl2N2O4", "Melting Point": "51 \u00b0C"}}