{"cas_no": "13568-40-6", "cn_name": "\u94bc\u9178\u9502", "en_name": ["Lithium molybdate (Li2MoO4)", "Molybdate (MoO42-), lithium (1:2), (T-4)-", "Molybdic acid (H2MoO4), dilithium salt", "Molybdate (MoO42-), dilithium, (T-4)-", "Lithium molybdate(VI) (Li2MoO4)", "Dilithium molybdate (Li2MoO4)", "Lithium molybdate", "Lithium molybdate (Li2MoO4)", "Dilithium tetraoxomolybdate(2-)", "Lithium molybdenum oxide (Li2MoO4)", "Dilithium molybdenum tetraoxide"], "SMILES": "[Mo-2](=O)(=O)(=O)=O.[Li+]", "physical_data": {"Molecular Weight": "", "Molecular Formula": "Li.<sup>1</sup>/2MoO4", "Melting Point": "700 \u00b0C", "Density": "3.06 g/cm\u00b3"}}