{"cas_no": "13569-65-8", "cn_name": "\u4e09\u6c34\u5408\u4e09\u6c2f\u5316", "en_name": ["Rhodium trichloride trihydrate", "Rhodium chloride (RhCl3), trihydrate", "Rhodium trichloride trihydrate", "Rhodium(III) chloride trihydrate", "Trichlororhodium trihydrate", "Rhodium(3+) trichloride trihydrate", "Rhodium chloride trihydrate"], "SMILES": "[Rh](Cl)(Cl)Cl.O", "physical_data": {"Molecular Weight": "", "Molecular Formula": "Cl3Rh.3H2O", "Melting Point": "100 \u00b0C (decomp)", "Density": "1 g/cm\u00b3"}}