{"cas_no": "13569-80-7", "cn_name": "\u6c1f\u5316\u955d", "en_name": ["Dysprosium fluoride (DyF3)", "Dysprosium fluoride (DyF3)", "Dysprosium trifluoride", "Dysprosium fluoride"], "SMILES": "[Dy](F)(F)F", "physical_data": {"Molecular Weight": "", "Molecular Formula": "DyF3", "Melting Point": "1154 \u00b0C"}}