{"cas_no": "13565-08-7", "cn_name": "\u5bf9\u6c1f\u8089\u6842\u9170\u6c2f", "en_name": ["(E)-4-Fluorocinnamoyl chloride", "2-Propenoyl chloride, 3-(4-fluorophenyl)-, (2E)-", "Cinnamoyl chloride, p-fluoro-, (E)-", "2-Propenoyl chloride, 3-(4-fluorophenyl)-, (E)-", "(2E)-3-(4-Fluorophenyl)-2-propenoyl chloride", "(E)-4-Fluorocinnamoyl chloride", "(E)-3-(4-Fluorophenyl)-2-propenoyl chloride", "trans-4-Fluorocinnamoyl chloride", "(E)-3-(4-Fluorophenyl)acryloyl chloride", "(E)-4-Fluorocinnamoyl chloride"], "SMILES": "C(=CC(Cl)=O)C1=CC=C(F)C=C1", "physical_data": {"Molecular Weight": "184.59", "Molecular Formula": "C9H6ClFO", "Boiling Point": "110 \u00b0C @ Press: 10 Torr", "Melting Point": "40-44 \u00b0C"}}