{"cas_no": "135616-36-3", "cn_name": "1,2-\u73af\u5df1\u80fa\u53cc\uff083\uff0c5-\u786b\u9178\u4e01\u57fa)", "en_name": ["2,2\u2032-[(1S,2S)-1,2-Cyclohexanediylbis[(E)-nitrilomethylidyne]]bis[4,6-bis(1,1-dimethylethyl)phenol", "Phenol, 2,2\u2032-[(1S,2S)-1,2-cyclohexanediylbis[(E)-nitrilomethylidyne]]bis[4,6-bis(1,1-dimethylethyl)-", "Phenol, 2,2\u2032-[1,2-cyclohexanediylbis(nitrilomethylidyne)]bis[4,6-bis(1,1-dimethylethyl)-, [1S-[1\u03b1(E),2\u03b2(E)]]-", "2,2\u2032-[(1S,2S)-1,2-Cyclohexanediylbis[(E)-nitrilomethylidyne]]bis[4,6-bis(1,1-dimethylethyl)phenol"], "SMILES": "C(C)(C)(C)C1=C(O)C(C=NC2C(N=CC3=C(O)C(C(C)(C)C)=CC(C(C)(C)C)=C3)CCCC2)=CC(C(C)(C)C)=C1", "physical_data": {"Molecular Weight": "546.83", "Molecular Formula": "C36H54N2O2", "Melting Point": "206-207 \u00b0C"}}