{"cas_no": "13560-89-9", "cn_name": "\u6613\u6765\u706d DK-15", "en_name": ["Dechlorane Plus", "1,4:7,10-Dimethanodibenzo[a,e]cyclooctene, 1,2,3,4,7,8,9,10,13,13,14,14-dodecachloro-1,4,4a,5,6,6a,7,10,10a,11,12,12a-dodecahydro-", "1,2,3,4,7,8,9,10,13,13,14,14-Dodecachloro-1,4,4a,5,6,6a,7,10,10a,11,12,12a-dodecahydro-1,4:7,10-dimethanodibenzo[a,e]cyclooctene", "Dodecachlorodimethanodibenzocyclooctane", "Dechlorane Plus 25", "Bis(hexachlorocyclopentadieno)cyclooctane", "Dechlorane Plus", "Dechlorane Plus 515", "Dodecachlorododecahydrodimethanodibenzocyclooctene", "Dechlorane Plus 2520", "Dechloran A", "1,2,3,4,7,8,9,10,13,13,14,14-Dodecachloro-1,4,4a,5,6,6a,7,10,10a,11,12,12a-dodecahydro-1,4:7,10-dimethanodibenzo[a,e]cyclooctane", "Dechlorane Plus 1000", "Dechlorane Plus 35", "Dodecachlorododecahydrodimethanodibenzocyclooctane"], "SMILES": "ClC12C(Cl)(Cl)C(Cl)(C3C1CCC4C(CC3)C5(Cl)C(Cl)(Cl)C4(Cl)C(Cl)=C5Cl)C(Cl)=C2Cl", "physical_data": {"Molecular Weight": "653.72", "Molecular Formula": "C18H12Cl12", "Melting Point": "&gt;325 \u00b0C"}}