{"cas_no": "13575-75-2", "cn_name": "6,7-\u4e8c\u7532\u6c27\u57fa-3,4-\u4e8c\u6c22-2H-1-\u8418\u916e", "en_name": ["3,4-Dihydro-6,7-dimethoxy-1(2H)-naphthalenone", "1(2H)-Naphthalenone, 3,4-dihydro-6,7-dimethoxy-", "3,4-Dihydro-6,7-dimethoxy-1(2H)-naphthalenone", "6,7-Dimethoxy-3,4-dihydro-1(2H)-naphthalenone", "6,7-Dimethoxy-1-tetralone", "6,7-Dimethoxy-\u03b1-tetralone", "6,7-Dimethoxy-1-oxo-1,2,3,4-tetrahydronaphthalene", "NSC 105617", "6,7-Dimethoxy-1,2,3,4-tetrahydro-1-oxonaphthalene", "6,7-Dimethoxy-3,4-dihydronaphthalen-1(2H)-one"], "SMILES": "O=C1C=2C(=CC(OC)=C(OC)C2)CCC1", "physical_data": {"Molecular Weight": "206.24", "Molecular Formula": "C12H14O3", "Melting Point": "98-99 \u00b0C"}}