{"cas_no": "13570-08-6", "cn_name": "\u82ef\u5e76\u54aa\u5511-2-\u4e59\u9178", "en_name": ["1H-Benzimidazole-2-acetic acid", "1H-Benzimidazole-2-acetic acid", "2-Benzimidazoleacetic acid", "2-(Carboxymethyl)benzimidazole", "2-Benzimidazolylacetic acid", "(1H-Benzimidazol-2-yl)acetic acid", "NSC 525202", "2-(1H-Benzimidazol-2-yl)acetic acid", "2-(1H-Benzo[d]imidazol-2-yl)acetic acid", "2-(1H-1,3-Benzodiazol-2-yl)acetic acid", "2-(1H-Benzimidazol-3-ium-2-yl)acetate"], "SMILES": "C(C(O)=O)C=1NC=2C(N1)=CC=CC2", "physical_data": {"Molecular Weight": "176.17", "Molecular Formula": "C9H8N2O2", "Melting Point": "116 \u00b0C"}}