{"cas_no": "13572-98-0", "cn_name": "\u7898\u5316\u9486", "en_name": ["Gadolinium iodide (GdI3)", "Gadolinium iodide (GdI3)", "Gadolinium triiodide", "Gadolinium iodide"], "SMILES": "[Gd](I)(I)I", "physical_data": {"Molecular Weight": "", "Molecular Formula": "GdI3", "Melting Point": "626 \u00b0C"}}