{"cas_no": "13574-84-0", "cn_name": "2-\u5f02\u4e01\u5432\u54da\u4e01\u9187", "en_name": ["L-Glutamic acid, N-[(1,1-dimethylethoxy)carbonyl]-, 5-(phenylmethyl) ester, compd. with N-cyclohexylcyclohexanamine (1:1)", "L-Glutamic acid, N-[(1,1-dimethylethoxy)carbonyl]-, 5-(phenylmethyl) ester, compd. with N-cyclohexylcyclohexanamine (1:1)", "Glutamic acid, N-carboxy-, 5-benzyl N-tert-butyl ester, compd. with dicyclohexylamine (1:1), L-", "Glutamic acid, N-carboxy-, 5-benzyl N-tert-butyl ester, compd. with dicyclohexylamine", "N-tert-Butoxycarbonyl-\u03b3-benzyl-L-glutamic acid compound with dicyclohexylamine (1:1)", "tert-Butoxycarbonyl-\u03b3-benzyl-L-glutamic acid-dicyclohexylamine salt"], "SMILES": "N(C1CCCCC1)C2CCCCC2.C(OC(CCC(NC(OC(C)(C)C)=O)C(O)=O)=O)C1=CC=CC=C1", "physical_data": {"Molecular Weight": "", "Molecular Formula": "C17H23NO6.C12H23N", "Melting Point": "136-139 \u00b0C"}}