{"cas_no": "13573-08-5", "cn_name": "4-\u4e8c\u4e59\u57fa\u6c34\u6768\u919b", "en_name": ["Germanium iodide (GeI2)", "Germanium iodide (GeI2)", "Germanium diiodide", "Diiodogermylene", "Germanium(II) iodide"], "SMILES": "[Ge](I)I", "physical_data": {"Molecular Weight": "", "Molecular Formula": "GeI2", "Melting Point": "460 \u00b0C", "Density": "5.73 g/cm\u00b3"}}