{"cas_no": "135861-56-2", "cn_name": "\u6210\u6838\u5242 HX-3", "en_name": ["Bis(3,4-dimethylbenzylidene) sorbitol", "D-Glucitol, 1,3:2,4-bis-O-[(3,4-dimethylphenyl)methylene]-", "[1,3]Dioxino[5,4-d]-1,3-dioxin, D-glucitol deriv.", "1,3:2,4-Bis-O-[(3,4-dimethylphenyl)methylene]-D-glucitol", "1,3:2,4-Bis(3,4-dimethylbenzylidene)sorbitol", "1,3:2,4-Bis-O-(3,4-dimethylbenzylidene)-D-sorbitol", "1,3:2,4-Bis(3\u2032,4\u2032-dimethylbenzylidene)sorbitol", "Millad 3988", "Millad 8C41-10", "1,3:2,4-Di(3,4-dimethylbenzylidene)sorbitol", "Bis(3,4-dimethylbenzylidene) sorbitol", "Millad 3988I", "DMDBS", "1,3:2,4-Di(3,4-dimethylbenzylidene)-D-sorbitol", "ZC 3", "1,3:2,4-Di-O-3,4-dimethylbenzylidene-D-sorbitol", "Chiclear 390", "Millad 3998", "Geniset DXR", "Nucleating Agent 3988", "Jadewin 3988", "TH 3988", "ST-NC 38", "ZN 3S", "Gel All DXR", "Uclear 183"], "SMILES": "C(CO)(O)C1C2C(OC(O1)C3=CC(C)=C(C)C=C3)COC(O2)C4=CC(C)=C(C)C=C4", "physical_data": {"Molecular Weight": "414.49", "Molecular Formula": "C24H30O6", "Melting Point": "267.1-267.9 \u00b0C"}}