{"cas_no": "1358-75-4", "cn_name": "\u94a9\u543b\u7d20\u620a", "en_name": ["(16S,19Z)-Sarpagan-17-ol", "Sarpagan-17-ol, (16S,19Z)-", "Koumidine", "(16S,19Z)-Sarpagan-17-ol", "(19Z)-16-Epinormacusine B", "(16S,19Z)-Normacusine B", "(-)-Koumidine"], "SMILES": "C(O)C1C2N3C(C4=C(C=5C(N4)=CC=CC5)C2)CC1C(=CC)C3", "physical_data": {"Molecular Weight": "", "Molecular Formula": "C19H22N2O", "Melting Point": "202-204 \u00b0C"}}