{"cas_no": "13589-77-0", "cn_name": "5-AMINO-2-PHENYLPYRIDAZIN-3(2H)-ONE", "en_name": ["5-Amino-2-phenyl-3(2H)-pyridazinone", "3(2H)-Pyridazinone, 5-amino-2-phenyl-", "5-Amino-2-phenyl-3(2H)-pyridazinone", "5-Amino-2-phenyl-3-pyridazinone", "1-Phenyl-4-amino-6-pyridazone"], "SMILES": "O=C1N(C2=CC=CC=C2)N=CC(N)=C1", "physical_data": {"Molecular Weight": "187.20", "Molecular Formula": "C10H9N3O", "Melting Point": "209-211 \u00b0C"}}