{"cas_no": "1358-76-5", "cn_name": "\u94a9\u543b\u7d20\u5b50", "en_name": ["Koumine", "6,4-(Epoxymethano)-3,11b-methano-11bH-pyrido[4,3-c]carbazole, 11c-ethenyl-1,2,3,4,4a,5,6,11c-octahydro-2-methyl-, (3S,4S,4aR,6R,11bS,11cS)-", "Koumine", "7,20(2H,19H)-Cyclovobasan, 1,2,18,19-tetradehydro-3,17-epoxy-, (3R,7\u03b1,20\u03b1)-", "6,4-(Epoxymethano)-3,11b-methano-11bH-pyrido[4,3-c]carbazole, 7,20(2H,19H)-cyclovobasan deriv.", "(3S,4S,4aR,6R,11bS,11cS)-11c-Ethenyl-1,2,3,4,4a,5,6,11c-octahydro-2-methyl-6,4-(epoxymethano)-3,11b-methano-11bH-pyrido[4,3-c]carbazole"], "SMILES": "C(=C)C12C34C(C5CC1C(C(C3)N(C)C2)CO5)=NC=6C4=CC=CC6", "physical_data": {"Molecular Weight": "306.40", "Molecular Formula": "C20H22N2O", "Melting Point": "168 \u00b0C"}}