{"cas_no": "13580-38-6", "cn_name": "1-\u4e19\u7094\u57fa\u7518\u6cb9\u919a", "en_name": ["3-(2-Propyn-1-yloxy)-1,2-propanediol", "1,2-Propanediol, 3-(2-propyn-1-yloxy)-", "1,2-Propanediol, 3-(2-propynyloxy)-", "3-(2-Propyn-1-yloxy)-1,2-propanediol", "Monopropargylylglycerol ether", "3-(2-Propynyloxy)-1,2-propanediol", "NSC 215123", "3-Propargyloxy-1,2-propanediol", "3-Prop-2-ynoxypropane-1,2-diol"], "SMILES": "C(COCC#C)(CO)O", "physical_data": {"Molecular Weight": "130.14", "Molecular Formula": "C6H10O3", "Boiling Point": "30 \u00b0C @ Press: 1 Torr", "Density": "1.1341 g/cm\u00b3 @ Temp: 20 \u00b0C"}}