{"cas_no": "13595-25-0", "cn_name": "\u53cc\u915aM", "en_name": ["Bisphenol M", "Phenol, 4,4\u2032-[1,3-phenylenebis(1-methylethylidene)]bis-", "Phenol, 4,4\u2032-(m-phenylenediisopropylidene)di-", "4,4\u2032-[1,3-Phenylenebis(1-methylethylidene)]bis[phenol]", "1,3-Bis[2-(4-hydroxyphenyl)-2-propyl]benzene", "1,3-Di[2-(4-hydroxyphenyl)-2-propyl]benzene", "1,3-Bis(4-hydroxycumyl)benzene", "4,4\u2032-(m-Phenylenediisopropylidene)diphenol", "4,4\u2032-(m-Phenylenediisopropylidene)bisphenol", "Bisphenol M", "1,3-Bis[\u03b1-methyl-\u03b1-(4-hydroxyphenyl)ethyl]benzene", "1,3-Bis[1-methyl-1-(4-hydroxyphenyl)ethyl]benzene", "4,4\u2032-[1,3-Phenylenebis(2,2-propylidene)]bisphenol", "4,4\u2032-(1,3-Phenylenediisopropylidene)bisphenol"], "SMILES": "C(C)(C)(C1=CC(C(C)(C)C2=CC=C(O)C=C2)=CC=C1)C3=CC=C(O)C=C3", "physical_data": {"Molecular Weight": "346.46", "Molecular Formula": "C24H26O2", "Melting Point": "137.5-140.5 \u00b0C"}}