{"cas_no": "13597-19-8", "cn_name": "\u9492\u9178\u94c8", "en_name": ["Cerium vanadium oxide (CeVO4)", "Cerium vanadium oxide (CeVO4)", "Vanadic acid (H3VO4), cerium(3+) salt (1:1)", "Cerium vanadate(V) (CeVO4)", "Cerium vanadate (CeVO4)", "Cerium(3+) orthovanadate", "Cerium orthovanadate (CeVO4)"], "SMILES": "[Ce].[V].[O]", "physical_data": {"Molecular Weight": "", "Molecular Formula": "Ce.O.V", "Melting Point": "1100 \u00b0C"}}