{"cas_no": "13597-56-3", "cn_name": "\u94a8\u9178\u950c", "en_name": ["Zinc tungstate (ZnWO4)", "Tungsten zinc oxide (WZnO4)", "Tungstic acid (H2WO4), zinc salt (1:1)", "Zinc tungstate(VI) (ZnWO4)", "Zinc tungstate", "Zinc tungstate (ZnWO4)"], "SMILES": "[W].[Zn].[O]", "physical_data": {"Molecular Weight": "", "Molecular Formula": "O.W.Zn", "Melting Point": "1220 \u00b0C", "Density": "7.41 g/cm\u00b3 @ Temp: Room temp"}}