{"cas_no": "13597-99-4", "cn_name": "\u785d\u9178\u94cd", "en_name": ["Nitric acid, beryllium salt (2:1)", "Nitric acid, beryllium salt (2:1)", "Nitric acid, beryllium salt", "Beryllium nitrate", "Beryllium nitrate (Be(NO3)2)", "Beryllium dinitrate"], "SMILES": "N(=O)(=O)O.[Be]", "physical_data": {"Molecular Weight": "", "Molecular Formula": "Be.2HNO3", "Melting Point": "60.5 \u00b0C", "Density": "1.56 g/cm\u00b3"}}