{"cas_no": "1359986-21-2", "cn_name": "2-\u4e8c\u53d4\u4e01\u57fa\u81a6\u57fa-4-\u7532\u6c27\u57fa-3,5,6-\u4e09\u7532\u57fa-2',4',6'-\u4e09-\u5f02\u4e19\u57fa", "en_name": ["Bis(1,1-dimethylethyl)[4-methoxy-3,5,6-trimethyl-2\u2032,4\u2032,6\u2032-tris(1-methylethyl)[1,1\u2032-biphenyl]-2-yl]phosphine", "Phosphine, bis(1,1-dimethylethyl)[4-methoxy-3,5,6-trimethyl-2\u2032,4\u2032,6\u2032-tris(1-methylethyl)[1,1\u2032-biphenyl]-2-yl]-", "Bis(1,1-dimethylethyl)[4-methoxy-3,5,6-trimethyl-2\u2032,4\u2032,6\u2032-tris(1-methylethyl)[1,1\u2032-biphenyl]-2-yl]phosphine"], "SMILES": "P(C(C)(C)C)(C(C)(C)C)C1=C(C(C)=C(C)C(OC)=C1C)C2=C(C(C)C)C=C(C(C)C)C=C2C(C)C", "physical_data": {"Molecular Weight": "496.75", "Molecular Formula": "C33H53OP", "Melting Point": "130-132 \u00b0C"}}