{"cas_no": "13593-03-8", "cn_name": "\u55b9\u786b\u78f7", "en_name": ["Quinalphos", "Phosphorothioic acid, O,O-diethyl O-2-quinoxalinyl ester", "Bayrusil", "O,O-Diethyl O-(quinoxalin-2-yl) thiophosphate", "O,O-Diethyl O-(2-quinoxalyl) phosphorothionate", "O,O-Diethyl-O-quinoxal-2-yl thionophosphate", "SAN 6538", "Sandoz 6538", "Diethyl 2-quinoxalyl phosphorothionate", "Bayer 77049", "Quinalphos", "BAY 77049", "Diethchinalphion", "SAN 6626", "Sandoz 6626", "Ekalux", "Quinaltaf", "O,O-Diethyl O-2-quinoxalinyl phosphorothioate", "Ekalux G5", "Diethquinalphion", "Quinalfos", "Oleoekalux", "O,O-Diethyl-O-(2-quinoxalyl)thiophosphate", "Kinalux", "Ekalux 25EC", "Chinalphos"], "SMILES": "O(P(OCC)(OCC)=S)C1=NC2=C(N=C1)C=CC=C2", "physical_data": {"Molecular Weight": "298.30", "Molecular Formula": "C12H15N2O3PS", "Boiling Point": "142 \u00b0C", "Melting Point": "31.5 \u00b0C"}}