{"cas_no": "13598-36-2", "cn_name": "\u4e9a\u78f7\u9178", "en_name": ["Phosphonic acid", "Phosphonic acid", "Dihydroxyphosphine oxide"], "SMILES": "P(=O)(O)O", "physical_data": {"Molecular Weight": "82.00", "Molecular Formula": "H3O3P", "Melting Point": "~73 \u00b0C (approx)"}}