{"cas_no": "13590-42-6", "cn_name": "L-\u5929\u51ac\u6c28\u9178-4-\u82c4\u916f-N-\u7fa7\u57fa\u73af\u5185\u9178\u9150", "en_name": ["Phenylmethyl (4S)-2,5-dioxo-4-oxazolidineacetate", "4-Oxazolidineacetic acid, 2,5-dioxo-, phenylmethyl ester, (4S)-", "4-Oxazolidineacetic acid, 2,5-dioxo-, benzyl ester, L-", "4-Oxazolidineacetic acid, 2,5-dioxo-, phenylmethyl ester, (S)-", "Phenylmethyl (4S)-2,5-dioxo-4-oxazolidineacetate", "\u03b2-Benzyl L-aspartate N-carboxyanhydride", "\u03b2-Benzyl L-aspartic acid N-carboxyanhydride", "L-Aspartic acid \u03b2-benzyl ester N-carboxylic acid anhydride", "\u03b2-Benzyl L-aspartate-N-carboxylic acid anhydride", "L-Asp-NCA"], "SMILES": "C(C(OCC1=CC=CC=C1)=O)C2C(=O)OC(=O)N2", "physical_data": {"Molecular Weight": "249.22", "Molecular Formula": "C12H11NO5", "Melting Point": "120-122 \u00b0C"}}