{"cas_no": "13596-35-5", "cn_name": "\u6c2f\u5316\u94fc(V)", "en_name": ["Rhenium pentachloride", "Rhenium chloride (ReCl5)", "Rhenium pentachloride", "Rhenium(V) chloride"], "SMILES": "[Re](Cl)(Cl)(Cl)(Cl)Cl", "physical_data": {"Molecular Weight": "", "Molecular Formula": "Cl5Re", "Melting Point": "220 \u00b0C"}}