{"cas_no": "136-95-8", "cn_name": "2-\u6c28\u57fa\u82ef\u5e76\u567b\u5511", "en_name": ["2-Aminobenzothiazole", "2-Benzothiazolamine", "Benzothiazole, 2-amino-", "Benzothiazole, 1-amino-", "Benzothiazoline, 2-imino-", "2-Aminobenzothiazole", "2(3H)-Benzothiazolimine", "2-Benzothiazolylamine", "2-Iminobenzothiazoline", "1,3-Benzothiazol-2-ylamine", "NSC 4670", "Benzo[d]thiazol-2-amine", "2-Aminobenzo[d]thiazole", "ABT", "SKA 1", "1,3-Benzothiazol-2-amine", "Cerium ionophore I"], "SMILES": "NC1=NC=2C(S1)=CC=CC2", "physical_data": {"Molecular Weight": "150.20", "Molecular Formula": "C7H6N2S", "Boiling Point": "190-195 \u00b0C @ Press: 0.05 Torr", "Melting Point": "132 \u00b0C"}}