{"cas_no": "136-90-3", "cn_name": "3-\u7532\u57fa-4-\u7532\u6c27\u57fa\u82ef\u80fa", "en_name": ["4-Methoxy-3-methylaniline", "Benzenamine, 4-methoxy-3-methyl-", "p-Anisidine, 3-methyl-", "4-Methoxy-3-methylbenzenamine", "4-Amino-2-methylanisole", "3-Methyl-p-anisidine", "4-Methoxy-3-methylaniline", "3-Methyl-4-methoxyaniline", "3-Methyl-4-methoxybenzenamine", "4-Methoxy-3-methylphenylamine"], "SMILES": "O(C)C1=C(C)C=C(N)C=C1", "physical_data": {"Molecular Weight": "137.18", "Molecular Formula": "C8H11NO", "Melting Point": "92-93 \u00b0C"}}