{"cas_no": "136-77-6", "cn_name": "4-\u5df1\u57fa\u95f4\u82ef\u4e8c\u915a", "en_name": ["Hexylresorcinol", "1,3-Benzenediol, 4-hexyl-", "Resorcinol, 4-hexyl-", "4-Hexyl-1,3-benzenediol", "S.T. 37", "Caprokol", "Crystoids", "Cystoids Anthelmintic", "4-Hexyl-1,3-dihydroxybenzene", "4-Hexylresorcine", "Hexylresorcinol", "p-Hexylresorcinol", "4-Hexylresorcinol", "Sucrets", "4-n-Hexylresorcinol", "1,3-Dihydroxy-4-hexylbenzene", "Adrover", "Hidesol", "Antascarin", "Ascaricid", "Oxana", "Ascarinol", "Prensol", "4-(1-Hexyl)resorcinol", "1-(2\u2032,4\u2032-Dihydroxyphenyl)hexane", "Mycoderm", "EverFresh", "KOM 14", "Worm-Agen", "Gelovermin", "Ascaryl", "NSC 1570", "Synovea HR", "MeSH ID: D006604"], "SMILES": "C(CCCCC)C1=C(O)C=C(O)C=C1", "physical_data": {"Molecular Weight": "194.27", "Molecular Formula": "C12H18O2", "Boiling Point": "178-180 \u00b0C @ Press: 6.7 Torr", "Melting Point": "67.5-69 \u00b0C"}}