{"cas_no": "136-36-7", "cn_name": "1,3-\u82ef\u4e8c\u915a\u5355\u82ef\u7532\u9178\u916f", "en_name": ["Resorcinol, monobenzoate", "1,3-Benzenediol, 1-benzoate", "Resorcinol, monobenzoate", "1,3-Benzenediol, monobenzoate", "Resorcinol, benzoate", "3-Hydroxyphenyl benzoate", "Eastman Inhibitor RMB", "1,3-Benzenediol benzoate", "Seesorb 300", "m-Hydroxyphenyl benzoate", "Eastman RMB", "RMB", "3-Benzoyloxyphenol", "NSC 4807"], "SMILES": "C(OC1=CC(O)=CC=C1)(=O)C2=CC=CC=C2", "physical_data": {"Molecular Weight": "214.22", "Molecular Formula": "C13H10O3", "Melting Point": "132 \u00b0C"}}