{"cas_no": "136-47-0", "cn_name": "\u76d0\u9178\u4e01\u5361\u56e0", "en_name": ["Tetracaine hydrochloride", "Benzoic acid, 4-(butylamino)-, 2-(dimethylamino)ethyl ester, hydrochloride (1:1)", "Benzoic acid, p-(butylamino)-, 2-(dimethylamino)ethyl ester, monohydrochloride", "Benzoic acid, 4-(butylamino)-, 2-(dimethylamino)ethyl ester, monohydrochloride", "Ethanol, 2-dimethylamino-, p-butylaminobenzoate, HCl", "Amethocaine monohydrochloride", "Anacel", "Anethaine", "Butethanol", "Curtacain", "Decicain", "Decicaine", "Dicaine", "2-Dimethylaminoethanol 4-n-butylaminobenzoate hydrochloride", "2-(Dimethylamino)ethyl p-(butylamino)benzoate hydrochloride", "Menonasal", "Pantocaine monohydrochloride", "Tetracaine monohydrochloride", "Tonexol", "Tetracainium chloride", "Tetracaine hydrochloride", "Amethocaine hydrochloride", "Dikain", "Pantocain", "Anethain", "Dessicain", "Pontocaine hydrochloride", "Pantocaine", "Pantocaine hydrochloride", "Intercaine", "Niphanoid", "p-(Butylamino)benzoic acid 2-(dimethylamino)ethyl ester hydrochloride", "Leocaine", "Tetocaine", "Tetracaine chlorhydrate", "Dianguang", "TetraVisc", "Lining"], "SMILES": "C(OCCN(C)C)(=O)C1=CC=C(NCCCC)C=C1.Cl", "physical_data": {"Molecular Weight": "", "Molecular Formula": "C15H24N2O2.ClH", "Melting Point": "147 \u00b0C"}}