{"cas_no": "136-35-6", "cn_name": "\u91cd\u6c2e\u80fa\u57fa\u82ef", "en_name": ["Diazoaminobenzene", "1-Triazene, 1,3-diphenyl-", "Triazene, 1,3-diphenyl-", "1,3-Diphenyl-1-triazene", "Diazoaminobenzene", "Aniline, N-(phenylazo)-", "1,3-Diphenyltriazene", "NSC 2077", "N1,N3-Diphenyltriazene", "DAB"], "SMILES": "N(=NNC1=CC=CC=C1)C2=CC=CC=C2", "physical_data": {"Molecular Weight": "197.24", "Molecular Formula": "C12H11N3", "Boiling Point": "38 \u00b0C @ Press: 50 Torr", "Melting Point": "98 \u00b0C"}}