{"cas_no": "136-60-7", "cn_name": "\u82ef\u7532\u9178\u4e01\u916f", "en_name": ["Butyl benzoate", "Benzoic acid, butyl ester", "Butyl benzoate", "n-Butyl benzoate", "Chemcryl C 101N", "IP Carrier N 20", "Benzoic acid n-butyl ester", "NSC 8474"], "SMILES": "C(OCCCC)(=O)C1=CC=CC=C1", "physical_data": {"Molecular Weight": "178.23", "Molecular Formula": "C11H14O2", "Boiling Point": "250 \u00b0C", "Melting Point": "-22 \u00b0C", "Density": "1.00 g/cm\u00b3 @ Temp: 20 \u00b0C"}}