{"cas_no": "136-80-1", "cn_name": "N-\u7f9f\u4e59\u57fa-\u90bb\u7532\u57fa\u82ef\u80fa", "en_name": ["2-[(2-Methylphenyl)amino]ethanol", "Ethanol, 2-[(2-methylphenyl)amino]-", "Ethanol, 2-o-toluidino-", "2-[(2-Methylphenyl)amino]ethanol", "N-\u03b2-Hydroxyethyl-o-toluidine", "o-Toluidino ethanol", "o-Tolyl ethanolamine", "N-(2-Hydroxyethyl)-o-toluidine", "2-(o-Toluidino)ethanol", "2-o-Tolylaminoethanol", "N-(2-Hydroxyethyl)-2-methylaniline", "NSC 2152", "2-[(2-Methylphenyl)amino]ethan-1-ol", "2-(2-Methylanilino)ethanol"], "SMILES": "N(CCO)C1=C(C)C=CC=C1", "physical_data": {"Molecular Weight": "151.21", "Molecular Formula": "C9H13NO", "Boiling Point": "285.5 \u00b0C", "Density": "1.0962 g/cm\u00b3 @ Temp: 20 \u00b0C"}}