{"cas_no": "136-64-1", "cn_name": "\u5bf9\u82ef\u4e8c\u9178\u4e8c\u80bc", "en_name": ["Terephthalic dihydrazide", "1,4-Benzenedicarboxylic acid, 1,4-dihydrazide", "Terephthalic acid, dihydrazide", "1,4-Benzenedicarboxylic acid, dihydrazide", "Terephthaloyl dihydrazide", "Terephthalic hydrazide", "Terephthalic acid bishydrazide", "Terephthalic dihydrazide", "Terephthalic acid hydrazide", "Terephthaloyl hydrazide", "NSC 29538", "1,4-Dicarbonylphenyldihydrazide"], "SMILES": "C(NN)(=O)C1=CC=C(C(NN)=O)C=C1", "physical_data": {"Molecular Weight": "194.19", "Molecular Formula": "C8H10N4O2", "Melting Point": "320 \u00b0C"}}