{"cas_no": "136-23-2", "cn_name": "\u4e8c\u4e01\u57fa\u4e8c\u786b\u4ee3\u6c28\u57fa\u7532\u9178\u950c", "en_name": ["Zinc dibutyldithiocarbamate", "Zinc, bis(dibutylcarbamodithioato-\u03baS,\u03baS\u2032)-, (T-4)-", "Zinc, bis(dibutyldithiocarbamato)-", "Zinc, bis(dibutylcarbamodithioato-S,S\u2032)-, (T-4)-", "Carbamodithioic acid, dibutyl-, zinc complex", "(T-4)-Bis(dibutylcarbamodithioato-\u03baS,\u03baS\u2032)zinc", "Aceto ZDBD", "Butazate", "Butazate 50D", "Butyl zimate", "Dibutyldithiocarbamic acid zinc salt", "Vulcacure ZB", "Zinc dibutyldithiocarbamate", "Zinc N,N-dibutyldithiocarbamate", "Soxinol BZ", "(Dibutyldithiocarbamato)zinc(II)", "Bis(dibutyldithiocarbamato)zinc", "Zinc bis(dibutyldithiocarbamate)", "Carbamodithioic acid, dibutyl-, zinc salt", "Bis(N,N-dibutyldithiocarbamato)zinc", "Butyl ziram", "Vulkacit LDB", "Zinc bis(N,N-dibutyldithiocarbamate)", "Accel BZ", "Nocceler BZ", "ZnBDC", "Vulkacit LDS", "Sanceler BZ", "Perkacit ZDBC", "Nocceler BZ-P", "Nocceler BZ-G", "Zinc di-n-butylthiocarbamate", "NSC 36548", "NSC 3880", "Vulcafor ZDBC", "Rhenogran ZBDC 80", "Rhenogran ZDBC 75", "Accelerator BZ", "Antioxidant BZ", "Rhenogran ZDBC 80", "ZDBC", "BZ", "T 202", "T 202 (antioxidant)", "ZDBC 80", "BZ-P", "ZDBC 50", "Rhexon ZDBC 75", "T 353", "BZ 75", "ZDBC 75", "Nocceler BZ-S", "Rhenocure LDB/C", "Carbamodithioic acid, N,N-dibutyl-, zinc salt (2:1)", "Transcure ZDB 50"], "SMILES": "N(CCCC)(CCCC)C=1[S-][Zn+2]2([S-]C(N(CCCC)CCCC)=[S]2)[S]1", "physical_data": {"Molecular Weight": "", "Molecular Formula": "C18H36N2S4Zn", "Melting Point": "104-108 \u00b0C", "Density": "1.24 g/cm\u00b3 @ Temp: 20 \u00b0C"}}