{"cas_no": "13605-66-8", "cn_name": "\u6c2f\u4e59\u9170\u57fa\u4e9a\u7532\u57fa\u4e09\u82ef\u57fa\u81a6", "en_name": ["1-Chloro-3-(triphenylphosphoranylidene)-2-propanone", "2-Propanone, 1-chloro-3-(triphenylphosphoranylidene)-", "1-Chloro-3-(triphenylphosphoranylidene)-2-propanone", "(3-Chloroacetonylidene)triphenylphosphorane", "NSC 146374", "1-Chloro-3-(triphenylphosphoranylidene)acetone", "1-Chloro-3-(triphenyl-\u03bb5-phosphanylidene)propan-2-one", "3-Chloro-2-oxopropylidene triphenylphosphorane"], "SMILES": "P(=CC(CCl)=O)(C1=CC=CC=C1)(C2=CC=CC=C2)C3=CC=CC=C3", "physical_data": {"Molecular Weight": "352.79", "Molecular Formula": "C21H18ClOP", "Melting Point": "179-180 \u00b0C"}}