{"cas_no": "13602-11-4", "cn_name": "6-\u7532\u57fa-2-\u5421\u5576\u7532\u9178\u7532\u916f", "en_name": ["2-Pyridinecarboxylic acid, 6-methyl-, methyl ester", "2-Pyridinecarboxylic acid, 6-methyl-, methyl ester", "Picolinic acid, 6-methyl-, methyl ester", "Methyl 6-methyl-2-pyridinecarboxylate", "Methyl 6-methylpicolinate", "6-Methylpicolinic acid methyl ester", "6-Methylpyridine-2-carboxylic acid methyl ester", "NSC 109151", "6-Methylpyridin-2-carboxylic acid methyl ester", "2-Methyl-6-methoxycarbonylpyridine"], "SMILES": "C(OC)(=O)C=1N=C(C)C=CC1", "physical_data": {"Molecular Weight": "151.16", "Molecular Formula": "C8H9NO2", "Boiling Point": "96-97 \u00b0C @ Press: 4 Torr"}}