{"cas_no": "13608-87-2", "cn_name": "2',3',4'-\u4e09\u6c2f\u82ef\u4e59\u916e", "en_name": ["1-(2,3,4-Trichlorophenyl)ethanone", "Ethanone, 1-(2,3,4-trichlorophenyl)-", "Acetophenone, 2\u2032,3\u2032,4\u2032-trichloro-", "1-(2,3,4-Trichlorophenyl)ethanone", "2\u2032,3\u2032,4\u2032-Trichloroacetophenone", "2,3,4-Trichloroacetophenone", "1-(2,3,4-Trichlorophenyl)ethan-1-one"], "SMILES": "C(C)(=O)C1=C(Cl)C(Cl)=C(Cl)C=C1", "physical_data": {"Molecular Weight": "223.48", "Molecular Formula": "C8H5Cl3O", "Melting Point": "65.5-66 \u00b0C"}}