{"cas_no": "13600-43-6", "cn_name": "3-\u6c30\u57fa-4-\u4e09\u6c1f\u7532\u57fa\u5421\u5576", "en_name": ["4-(Trifluoromethyl)-3-pyridinecarbonitrile", "3-Pyridinecarbonitrile, 4-(trifluoromethyl)-", "Nicotinonitrile, 4-(trifluoromethyl)-", "4-(Trifluoromethyl)-3-pyridinecarbonitrile", "3-Cyano-4-(trifluoromethyl)pyridine", "4-(Trifluoromethyl)nicotinonitrile"], "SMILES": "C(#N)C=1C(C(F)(F)F)=CC=NC1", "physical_data": {"Molecular Weight": "172.11", "Molecular Formula": "C7H3F3N2", "Boiling Point": "70 \u00b0C"}}