{"cas_no": "1360-76-5", "cn_name": "7-\u7f9f\u57fa\u9ad8\u4e4c\u7532\u7d20", "en_name": ["Ranaconitine", "Aconitane-4,7,8,9-tetrol, 20-ethyl-1,14,16-trimethoxy-, 4-[2-(acetylamino)benzoate], (1\u03b1,14\u03b1,16\u03b2)-", "Ranaconitine", "2H-12,3,6a-Ethanylylidene-7,9-methanonaphth[2,3-b]azocine, aconitane-4,7,8,9-tetrol deriv.", "7-Hydroxylappaconitine"], "SMILES": "O(C)C1C23C4C(O)(CC2C(OC(=O)C5=C(NC(C)=O)C=CC=C5)(CN4CC)CC1)C6(O)C7(O)C3CC(C7OC)C(OC)C6", "physical_data": {"Molecular Weight": "600.70", "Molecular Formula": "C32H44N2O9", "Melting Point": "132-134 \u00b0C"}}