{"cas_no": "13609-67-1", "cn_name": "\u4e01\u9178\u6c22\u5316\u53ef\u7684\u677e", "en_name": ["Hydrocortisone butyrate", "Pregn-4-ene-3,20-dione, 11,21-dihydroxy-17-(1-oxobutoxy)-, (11\u03b2)-", "Cortisol, 17-butyrate", "Butyric acid, 17-ester with cortisol", "(11\u03b2)-11,21-Dihydroxy-17-(1-oxobutoxy)pregn-4-ene-3,20-dione", "Hydrocortisone 17-butyrate", "Hydrocortisone 17\u03b1-butyrate", "Locoid", "Hydrocortisone butyrate", "4-Pregnene-11\u03b2,21-dihydroxy-17\u03b1-butyryloxy-3,20-dione", "Alfason", "Laticort", "Plancol"], "SMILES": "O(C(CCC)=O)C1(C(CO)=O)C2(C)C(CC1)C3C(C(O)C2)C4(C)C(CC3)=CC(=O)CC4", "physical_data": {"Molecular Weight": "432.55", "Molecular Formula": "C25H36O6", "Melting Point": "217-220 \u00b0C"}}