{"cas_no": "13603-44-6", "cn_name": "2,6-\u4e8c\u7532\u57fa-4-\u7f9f\u57fa\u5421\u5576", "en_name": ["2,6-Dimethyl-4-pyridinol", "4-Pyridinol, 2,6-dimethyl-", "2,6-Dimethyl-4-pyridinol", "4-Hydroxy-2,6-dimethylpyridine", "4-Hydroxy-2,6-lutidine", "2,6-Dimethyl-4-hydroxypyridine", "NSC 111932"], "SMILES": "OC=1C=C(C)N=C(C)C1", "physical_data": {"Molecular Weight": "123.15", "Molecular Formula": "C7H9NO", "Boiling Point": "220-225 \u00b0C @ Press: 30 Torr", "Melting Point": "225 \u00b0C"}}