{"cas_no": "13603-25-3", "cn_name": "3-\u82c4\u57fa\u54cc\u5576", "en_name": ["3-Benzylpiperidine", "Piperidine, 3-(phenylmethyl)-", "Piperidine, 3-benzyl-", "3-(Phenylmethyl)piperidine", "3-Benzylpiperidine"], "SMILES": "C(C1=CC=CC=C1)C2CCCNC2", "physical_data": {"Molecular Weight": "175.27", "Molecular Formula": "C12H17N", "Melting Point": "190 \u00b0C"}}