{"cas_no": "13602-12-5", "cn_name": "\u5f02\u70df\u9178-N-\u6c27\u5316\u7269", "en_name": ["Isonicotinic acid N-oxide", "4-Pyridinecarboxylic acid, 1-oxide", "Isonicotinic acid, 1-oxide", "Isonicotinic acid oxide", "4-Carboxypyridine N-oxide", "4-Pyridinecarboxylic acid oxide", "Isonicotinic acid N-oxide", "4-Pyridinecarboxylic acid N-oxide", "NSC 63044", "4-Carboxypyridine 1-oxide", "1-Oxidopyridin-1-ium-4-carboxylic acid"], "SMILES": "C(O)(=O)C=1C=CN(=O)=CC1", "physical_data": {"Molecular Weight": "139.11", "Molecular Formula": "C6H5NO3", "Melting Point": "270-271 \u00b0C"}}