{"cas_no": "13605-19-1", "cn_name": "2-(3-\u7532\u57fa\u82ef\u6c27\u57fa)\u4e59\u9187", "en_name": ["2-(3-Methylphenoxy)ethanol", "Ethanol, 2-(3-methylphenoxy)-", "Ethanol, 2-(m-tolyloxy)-", "2-(3-Methylphenoxy)ethanol", "m-Cresoxyethanol", "2-(m-Tolyloxy)ethanol", "2-(3-Tolyloxy)ethanol", "Ethylene glycol m-cresyl ether", "NSC 523916", "2-(3-Methylphenoxy)ethan-1-ol", "2-Hydroxyethyl m-tolyl ether"], "SMILES": "O(CCO)C1=CC(C)=CC=C1", "physical_data": {"Molecular Weight": "152.19", "Molecular Formula": "C9H12O2", "Boiling Point": "145-147 \u00b0C @ Press: 19 Torr", "Density": "1.1097 g/cm\u00b3 @ Temp: 20 \u00b0C"}}