{"cas_no": "1361110-64-6", "cn_name": "2H-1,4-\u82ef\u5e76\u5f02\u5641\u55ea, 3,4-\u4e8c\u6c22-7-(4,4,5,5-\u56db\u7532\u57fa-1,3,2-\u4e8c\u6c27\u6742\u73af\u5df1\u787c\u70f7-2-\u57fa)-", "en_name": ["3,4-Dihydro-7-(4,4,5,5-tetramethyl-1,3,2-dioxaborolan-2-yl)-2H-1,4-benzoxazine", "2H-1,4-Benzoxazine, 3,4-dihydro-7-(4,4,5,5-tetramethyl-1,3,2-dioxaborolan-2-yl)-", "3,4-Dihydro-7-(4,4,5,5-tetramethyl-1,3,2-dioxaborolan-2-yl)-2H-1,4-benzoxazine"], "SMILES": "CC1(C)OB(OC1(C)C)C=2C=C3C(=CC2)NCCO3", "physical_data": {"Molecular Weight": "261.12", "Molecular Formula": "C14H20BNO3", "Melting Point": "120 \u00b0C"}}