{"cas_no": "13616-82-5", "cn_name": "2,4-\u4e8c\u7532\u57fa\u82ef\u786b\u915a", "en_name": ["2,4-Dimethylbenzenethiol", "Benzenethiol, 2,4-dimethyl-", "2,4-Xylenethiol", "2,4-Dimethylbenzenethiol", "2,4-Thioxylenol", "2,4-Dimethylthiophenol", "NSC 202925", "2,4-Dimethylbenzene-1-thiol"], "SMILES": "CC1=C(S)C=CC(C)=C1", "physical_data": {"Molecular Weight": "138.23", "Molecular Formula": "C8H10S", "Boiling Point": "204-205 \u00b0C", "Melting Point": "91-93 \u00b0C"}}