{"cas_no": "13614-98-7", "cn_name": "\u76d0\u9178\u7c73\u8bfa\u73af\u7d20", "en_name": ["Minocycline hydrochloride", "2-Naphthacenecarboxamide, 4,7-bis(dimethylamino)-1,4,4a,5,5a,6,11,12a-octahydro-3,10,12,12a-tetrahydroxy-1,11-dioxo-, hydrochloride (1:1), (4S,4aS,5aR,12aS)-", "2-Naphthacenecarboxamide, 4,7-bis(dimethylamino)-1,4,4a,5,5a,6,11,12a-octahydro-3,10,12,12a-tetrahydroxy-1,11-dioxo-, monohydrochloride", "2-Naphthacenecarboxamide, 4,7-bis(dimethylamino)-1,4,4a,5,5a,6,11,12a-octahydro-3,10,12,12a-tetrahydroxy-1,11-dioxo-, monohydrochloride, [4S-(4\u03b1,4a\u03b1,5a\u03b1,12a\u03b1)]-", "2-Naphthacenecarboxamide, 4,7-bis(dimethylamino)-1,4,4a,5,5a,6,11,12a-octahydro-3,10,12,12a-tetrahydroxy-1,11-dioxo-, monohydrochloride, (4S,4aS,5aR,12aS)-", "Minocycline hydrochloride", "Minocin", "Minocycline chloride", "Periocline", "Klinomycin", "Vectrin", "Minomycin", "NSC 141993", "Acnez", "Periofeel"], "SMILES": "OC12C(C(N(C)C)C(O)=C(C(N)=O)C1=O)CC3C(=C2O)C(=O)C=4C(C3)=C(N(C)C)C=CC4O.Cl", "physical_data": {"Molecular Weight": "", "Molecular Formula": "C23H27N3O7.ClH", "Melting Point": "155-161 \u00b0C (decomp)"}}