{"cas_no": "13616-83-6", "cn_name": "DISULFIDE, BIS(2,4-DIMETHYLPHENYL)", "en_name": ["Bis(2,4-dimethylphenyl) disulfide", "Disulfide, bis(2,4-dimethylphenyl)", "2,4-Xylyl disulfide", "Bis(2,4-dimethylphenyl) disulfide", "1,2-Bis(2,4-dimethylphenyl)disulfane"], "SMILES": "S(SC1=C(C)C=C(C)C=C1)C2=C(C)C=C(C)C=C2", "physical_data": {"Molecular Weight": "274.44", "Molecular Formula": "C16H18S2", "Boiling Point": "170-172 \u00b0C @ Press: 3.5 Torr", "Melting Point": "265 \u00b0C"}}