{"cas_no": "136164-66-4", "cn_name": "E 3330", "en_name": ["(2E)-2-[(4,5-Dimethoxy-2-methyl-3,6-dioxo-1,4-cyclohexadien-1-yl)methylene]undecanoic acid", "Undecanoic acid, 2-[(4,5-dimethoxy-2-methyl-3,6-dioxo-1,4-cyclohexadien-1-yl)methylene]-, (2E)-", "Undecanoic acid, 2-[(4,5-dimethoxy-2-methyl-3,6-dioxo-1,4-cyclohexadien-1-yl)methylene]-, (E)-", "(2E)-2-[(4,5-Dimethoxy-2-methyl-3,6-dioxo-1,4-cyclohexadien-1-yl)methylene]undecanoic acid", "E 3330", "APX 3330"], "SMILES": "C(=C(CCCCCCCCC)C(O)=O)C=1C(=O)C(OC)=C(OC)C(=O)C1C", "physical_data": {"Molecular Weight": "378.46", "Molecular Formula": "C21H30O6", "Melting Point": "56-57 \u00b0C"}}