{"cas_no": "13617-28-2", "cn_name": "(2-\u7532\u57fa-2-\u82ef\u4e59\u57fa)\u7532\u57fa\u4e8c\u6c2f\u7845\u70f7", "en_name": ["[2-(Dichloromethylsilyl)-1-methylethyl]benzene", "Benzene, [2-(dichloromethylsilyl)-1-methylethyl]-", "Silane, dichloromethyl(\u03b2-methylphenethyl)-", "Silane, dichloromethyl(2-phenylpropyl)-", "[2-(Dichloromethylsilyl)-1-methylethyl]benzene", "Dichloro(methyl)(2-phenylpropyl)silane", "(2-Phenylpropyl)methyldichlorosilane"], "SMILES": "C(C[Si](C)(Cl)Cl)(C)C1=CC=CC=C1", "physical_data": {"Molecular Weight": "233.21", "Molecular Formula": "C10H14Cl2Si", "Boiling Point": "104-105 \u00b0C @ Press: 9 Torr", "Density": "1.1165 g/cm\u00b3"}}