{"cas_no": "136117-73-2", "cn_name": "7-\u919b\u57fa\u54aa\u5511[1,2-A]\u5e76\u5421\u5576", "en_name": ["Imidazo[1,2-a]pyridine-7-carboxaldehyde", "Imidazo[1,2-a]pyridine-7-carboxaldehyde"], "SMILES": "C(=O)C1=CC=2N(C=C1)C=CN2", "physical_data": {"Molecular Weight": "146.15", "Molecular Formula": "C8H6N2O", "Melting Point": "137-139 \u00b0C"}}