{"cas_no": "13610-02-1", "cn_name": "\u82ef\u57fa\u7094\u4e19\u57fa\u919a", "en_name": ["(2-Propyn-1-yloxy)benzene", "Benzene, (2-propyn-1-yloxy)-", "Ether, phenyl 2-propynyl", "Benzene, (2-propynyloxy)-", "(2-Propyn-1-yloxy)benzene", "Phenyl propargyl ether", "3-Phenoxypropyne", "(2-Propynyloxy)benzene", "Propargyl phenyl ether", "Phenyl 2-propynyl ether", "3-Phenoxy-1-propyne", "(Phenoxymethyl)acetylene", "1-Phenoxy-2-propyne", "(Propargyloxy)benzene", "Phenyloxymethylacetylene", "3-Phenyloxy-1-propyne", "2-Propynyoxybenzene", "1-(Prop-2-ynyloxy)benzene", "1-Naphthyl propargyl ether"], "SMILES": "O(CC#C)C1=CC=CC=C1", "physical_data": {"Molecular Weight": "132.16", "Molecular Formula": "C9H8O", "Boiling Point": "98 \u00b0C @ Press: 23 Torr", "Melting Point": "273 \u00b0C (decomp)", "Density": "1.0426 g/cm\u00b3 @ Temp: 9 \u00b0C"}}