{"cas_no": "13612-34-5", "cn_name": "2,5-\u4e8c\u7532\u57fa\u82ef\u4e59\u9178", "en_name": ["2,5-Dimethylbenzeneacetic acid", "Benzeneacetic acid, 2,5-dimethyl-", "Acetic acid, (2,5-xylyl)-", "2,5-Dimethylbenzeneacetic acid", "2,5-Dimethylphenylacetic acid", "2,5-Xylylacetic acid", "2-(2,5-Dimethylphenyl)acetic acid"], "SMILES": "C(C(O)=O)C1=C(C)C=CC(C)=C1", "physical_data": {"Molecular Weight": "164.20", "Molecular Formula": "C10H12O2", "Melting Point": "128 \u00b0C"}}