{"cas_no": "13618-91-2", "cn_name": "4,5,6,7-\u56db\u6c22-1H-\u5432\u54da", "en_name": ["4,5,6,7-Tetrahydro-1H-indole", "1H-Indole, 4,5,6,7-tetrahydro-", "Indole, 4,5,6,7-tetrahydro-", "4,5,6,7-Tetrahydro-1H-indole", "Cyclohex[b]pyrrole", "2,3-Tetramethylenepyrrole", "4,5,6,7-Tetrahydroindole", "NSC 122455"], "SMILES": "C12=C(NC=C1)CCCC2", "physical_data": {"Molecular Weight": "121.18", "Molecular Formula": "C8H11N", "Boiling Point": "64 \u00b0C @ Press: 0.1 Torr", "Melting Point": "53-55 \u00b0C"}}