{"cas_no": "13623-94-4", "cn_name": "1,1-\u53cc(\u7532\u786b\u57fa)-2-\u4e9a\u785d\u57fa\u4e59\u70ef", "en_name": ["1,1-Bis(methylthio)-2-nitroethylene", "Ethene, 1,1-bis(methylthio)-2-nitro-", "Ketene, nitro-, dimethyl mercaptole", "Ethylene, 1,1-bis(methylthio)-2-nitro-", "1,1-Bis(methylthio)-2-nitroethene", "2,2-Bis(methylthio)-1-nitroethylene", "1,1-Bis(methylthio)-2-nitroethylene", "1-Nitro-2,2-bis(methylthio)ethylene", "1-Nitro-2,2-bis(methylmercapto)ethylene", "1-Nitro-2,2-bis(methylthio)ethene", "1,1-Bis(methylsulfanyl)-2-nitroethene", "NSC 241513", "(2-Nitroethene-1,1-diyl)bis(methylsulfane)"], "SMILES": "C(=CN(=O)=O)(SC)SC", "physical_data": {"Molecular Weight": "165.23", "Molecular Formula": "C4H7NO2S2", "Melting Point": "125-126 \u00b0C"}}