{"cas_no": "13623-87-5", "cn_name": "1,2,3,4-\u56db\u6c22-1,8-\u8418\u5576", "en_name": ["1,2,3,4-Tetrahydro-1,8-naphthyridine", "1,8-Naphthyridine, 1,2,3,4-tetrahydro-", "1,2,3,4-Tetrahydro-1,8-naphthyridine"], "SMILES": "C=12C(NC=CC1)=NCCC2", "physical_data": {"Molecular Weight": "134.18", "Molecular Formula": "C8H10N2", "Boiling Point": "96 \u00b0C @ Press: 0.6 Torr", "Melting Point": "67-68 \u00b0C"}}