{"cas_no": "136239-66-2", "cn_name": "2,3-\u4e8c\u6c1f\u82ef\u4e01\u919a", "en_name": ["1-Butoxy-2,3-difluorobenzene", "Benzene, 1-butoxy-2,3-difluoro-", "1-Butoxy-2,3-difluorobenzene", "3-Butoxy-1,2-difluorobenzene"], "SMILES": "O(CCCC)C1=C(F)C(F)=CC=C1", "physical_data": {"Molecular Weight": "186.20", "Molecular Formula": "C10H12F2O", "Boiling Point": "54-56 \u00b0C @ Press: 1.0 Torr"}}