{"cas_no": "13623-11-5", "cn_name": "2,4,5-\u4e09\u7532\u57fa\u567b\u5511", "en_name": ["2,4,5-Trimethylthiazole", "Thiazole, 2,4,5-trimethyl-", "Thiazole, trimethyl-", "2,4,5-Trimethylthiazole", "Trimethylthiazole", "NSC 170614", "2,4,5-Trimethyl-1,3-thiazole"], "SMILES": "CC1=C(C)SC(C)=N1", "physical_data": {"Molecular Weight": "127.21", "Molecular Formula": "C6H9NS", "Boiling Point": "164-166 \u00b0C", "Density": "1.0327 g/cm\u00b3 @ Temp: 20 \u00b0C"}}