{"cas_no": "13623-84-2", "cn_name": "1,2,3,4-\u56db\u6c22-1,6-\u8418\u5576", "en_name": ["1,2,3,4-Tetrahydro-1,6-naphthyridine", "1,6-Naphthyridine, 1,2,3,4-tetrahydro-", "1,2,3,4-Tetrahydro-1,6-naphthyridine"], "SMILES": "C=12C(=CC=NC1)NCCC2", "physical_data": {"Molecular Weight": "134.18", "Molecular Formula": "C8H10N2", "Melting Point": "155-158 \u00b0C"}}