{"cas_no": "13621-25-5", "cn_name": "5,7-\u4e8c\u7532\u57fa-3,4-\u4e8c\u6c22-2H-1-\u8418\u916e", "en_name": ["3,4-Dihydro-5,7-dimethyl-1(2H)-naphthalenone", "1(2H)-Naphthalenone, 3,4-dihydro-5,7-dimethyl-", "3,4-Dihydro-5,7-dimethyl-1(2H)-naphthalenone", "5,7-Dimethyl-1-tetralone", "5,7-Dimethyl-1,2,3,4-tetrahydro-1-naphthalenone", "5,7-Dimethyl-3,4-dihydro-2H-naphthalen-1-one", "NSC 63113", "5,7-Dimethyl-3,4-dihydronaphthalen-1(2H)-one"], "SMILES": "CC1=C2C(=CC(C)=C1)C(=O)CCC2", "physical_data": {"Molecular Weight": "174.24", "Molecular Formula": "C12H14O", "Boiling Point": "160 \u00b0C @ Press: 14 Torr", "Melting Point": "50 \u00b0C"}}