{"cas_no": "13623-25-1", "cn_name": "6-\u7532\u6c27\u57fa-1-\u831a\u916e", "en_name": ["6-Methoxy-1-indanone", "1H-Inden-1-one, 2,3-dihydro-6-methoxy-", "1-Indanone, 6-methoxy-", "2,3-Dihydro-6-methoxy-1H-inden-1-one", "6-Methoxy-1-indanone", "6-Methoxyindane-1-one", "NSC 338231", "6-Methoxy-2,3-dihydro-1H-inden-1-one", "2,3-Dihydro-6-methoxyinden-1-one"], "SMILES": "O=C1C=2C(=CC=C(OC)C2)CC1", "physical_data": {"Molecular Weight": "162.19", "Molecular Formula": "C10H10O2", "Melting Point": "109 \u00b0C"}}