{"cas_no": "136236-51-6", "cn_name": "\u96f7\u6c99\u5409\u5170", "en_name": ["Rasagiline", "1H-Inden-1-amine, 2,3-dihydro-N-2-propyn-1-yl-, (1R)-", "1H-Inden-1-amine, 2,3-dihydro-N-2-propynyl-, (R)-", "1H-Inden-1-amine, 2,3-dihydro-N-2-propynyl-, (1R)-", "(1R)-2,3-Dihydro-N-2-propyn-1-yl-1H-inden-1-amine", "Rasagiline", "(R)-N-2-Propynyl-1-indanamine", "(R)-(+)-Rasagiline", "Azilect", "R-(+)-N-Propargyl-1-aminoindan", "(1R)-N-Prop-2-ynyl-2,3-dihydro-1H-inden-1-amine", "(R)-N-(2-Propynyl)-2,3-dihydroinden-1-amine", "(1R)-N-(Prop-2-yn-1-yl)-2,3-dihydro-1H-inden-1-amine", "(R)-N-(Prop-2-yn-1-yl)-2,3-dihydro-1H-inden-1-amine"], "SMILES": "N(CC#C)C1C=2C(CC1)=CC=CC2", "physical_data": {"Molecular Weight": "171.24", "Molecular Formula": "C12H13N", "Melting Point": "148 \u00b0C"}}