{"cas_no": "1362-42-1", "cn_name": "\u6d0b\u827e\u7d20", "en_name": ["Absinthin", "2H-7,13b-Ethenopentaleno[1\u2032\u2032,2\u2032\u2032:6,7", "5\u2032\u2032,4\u2032\u2032:6\u2032,7\u2032]dicyclohepta[1,2-b:1\u2032,2\u2032-b\u2032]difuran-2,12(11H)-dione, 3,3a,4,5,6,6a,6b,7,7a,8,9,10,10a,13a,13c,14b-hexadecahydro-6,8-dihydroxy-3,6,8,11,14,15-hexamethyl-, (3S,3aS,6S,6aR,6bS,7S,7aR,8S,10aS,11S,13aS,13bR,13cR,14bS)-", "Absinthin", "2H-7,13b-Ethenopentaleno[1\u2032\u2032,2\u2032\u2032:6,7", "5\u2032\u2032,4\u2032\u2032:6\u2032,7\u2032]dicyclohepta[1,2-b:1\u2032,2\u2032-b\u2032]difuran-2,12(11H)-dione, 3,3a,4,5,6,6a,6b,7,7a,8,9,10,10a,13a,13c,14b-hexadecahydro-6,8-dihydroxy-3,6,8,11,14,15-hexamethyl-, [3S-(3\u03b1,3a\u03b1,6\u03b2,6a\u03b1,6b\u03b2,7\u03b1,7a\u03b2,8\u03b1,10a\u03b2,11\u03b2,13a\u03b1,13b\u03b1,13c\u03b2,14b\u03b2)]-", "(3S,3aS,6S,6aR,6bS,7S,7aR,8S,10aS,11S,13aS,13bR,13cR,14bS)-3,3a,4,5,6,6a,6b,7,7a,8,9,10,10a,13a,13c,14b-Hexadecahydro-6,8-dihydroxy-3,6,8,11,14,15-hexamethyl-2H-7,13b-ethenopentaleno[1\u2032\u2032,2\u2032\u2032:6,7", "5\u2032\u2032,4\u2032\u2032:6\u2032,7\u2032]dicyclohepta[1,2-b:1\u2032,2\u2032-b\u2032]difuran-2,12(11H)-dione", "NSC 407315"], "SMILES": "CC=1C23C4C(C(C2C(C)(O)CCC5C3OC(=O)C5C)C1)C6C(=C4C)C7C(CCC6(C)O)C(C)C(=O)O7", "physical_data": {"Molecular Weight": "496.64", "Molecular Formula": "C30H40O6", "Melting Point": "179-180 \u00b0C (decomp)"}}