{"cas_no": "13626-60-3", "cn_name": "3-\u6c27-2,3-\u4e8c\u7f9f\u57fa\u5f02\u6076\u5511-5-\u7532\u9178", "en_name": ["3-Hydroxyisoxazole-5-carboxylic acid", "5-Isoxazolecarboxylic acid, 2,3-dihydro-3-oxo-", "5-Isoxazolecarboxylic acid, 3-hydroxy-", "2,3-Dihydro-3-oxo-5-isoxazolecarboxylic acid", "3-Hydroxyisoxazole-5-carboxylic acid", "3-Oxo-2,3-dihydroisoxazole-5-carboxylic acid", "3-Hydroxy-1,2-oxazole-5-carboxylic acid", "3-Oxo-2,3-dihydro-1,2-oxazole-5-carboxylic acid", "3-Oxo-1,2-oxazole-5-carboxylic acid"], "SMILES": "C(O)(=O)C1=CC(=O)NO1", "physical_data": {"Molecular Weight": "129.07", "Molecular Formula": "C4H3NO4", "Melting Point": "265 \u00b0C"}}