{"cas_no": "13629-22-6", "cn_name": "9-\u82b4\u916e\u8159", "en_name": ["9H-Fluoren-9-one, hydrazone", "9H-Fluoren-9-one, hydrazone", "Fluoren-9-one, hydrazone", "Fluorenone hydrazone", "NSC 24099", "NSC 90662", "Fluoren-9-ylidenehydrazine", "(9H-Fluoren-9-ylidene)hydrazine"], "SMILES": "N(N)=C1C=2C(C=3C1=CC=CC3)=CC=CC2", "physical_data": {"Molecular Weight": "194.23", "Molecular Formula": "C13H10N2", "Melting Point": "149 \u00b0C"}}