{"cas_no": "13631-21-5", "cn_name": "4-\u6eb4-3-\u6c2f\u915a", "en_name": ["4-Bromo-3-chlorophenol", "Phenol, 4-bromo-3-chloro-", "4-Bromo-3-chlorophenol", "3-Chloro-4-bromophenol"], "SMILES": "ClC1=C(Br)C=CC(O)=C1", "physical_data": {"Molecular Weight": "207.45", "Molecular Formula": "C6H4BrClO", "Melting Point": "63 \u00b0C"}}