{"cas_no": "13637-63-3", "cn_name": "\u4e94\u6c1f\u5316\u6c2f", "en_name": ["Chlorine fluoride (ClF5)", "Chlorine fluoride (ClF5)", "Chlorine pentafluoride"], "SMILES": "Cl(F)(F)(F)(F)F", "physical_data": {"Molecular Weight": "130.45", "Molecular Formula": "ClF5", "Boiling Point": "-12.9 \u00b0C"}}