{"cas_no": "13636-02-7", "cn_name": "3-(\u4e8c\u7532\u57fa\u6c28\u57fa)-1-(2-\u567b\u5429\u57fa)-1-\u4e19\u9187", "en_name": ["N,N-Dimethyl-3-(2-thienyl)-3-hydroxypropanamine", "2-Thiophenemethanol, \u03b1-[2-(dimethylamino)ethyl]-", "\u03b1-[2-(Dimethylamino)ethyl]-2-thiophenemethanol", "3-(Dimethylamino)-1-(2-thienyl)-1-propanol", "N,N-Dimethyl-3-(2-thienyl)-3-hydroxypropanamine", "3-(N,N-Dimethylamino)-1-(2-thienyl)propan-1-ol", "N,N-Dimethyl-3-hydroxy-3-(2-thienyl)propanamine", "N,N-Dimethyl-3-hydroxy-3-(2-thienyl)propan-1-amine"], "SMILES": "C(CCN(C)C)(O)C1=CC=CS1", "physical_data": {"Molecular Weight": "185.29", "Molecular Formula": "C9H15NOS", "Melting Point": "69-71 \u00b0C"}}