{"cas_no": "13636-18-5", "cn_name": "\u76d0\u9178\u82ac\u4ed6\u6797", "en_name": ["Phenoxan", "Benzenepropanamine, \u03b3-phenyl-N-(1-phenylethyl)-, hydrochloride (1:1)", "Benzylamine, N-(3,3-diphenylpropyl)-\u03b1-methyl-, hydrochloride", "Benzenepropanamine, \u03b3-phenyl-N-(1-phenylethyl)-, hydrochloride", "Fendiline hydrochloride", "Sensit", "Sensite", "Phenoxan", "Fendilar", "Cordan", "3,3-Diphenyl-N-(1-phenylethyl)propan-1-amine hydrochloride"], "SMILES": "C(CCNC(C)C1=CC=CC=C1)(C2=CC=CC=C2)C3=CC=CC=C3.Cl", "physical_data": {"Molecular Weight": "", "Molecular Formula": "C23H25N.ClH", "Melting Point": "204-205 \u00b0C"}}