{"cas_no": "13637-84-8", "cn_name": "\u6c2f\u6c1f\u78fa\u9170(\u7981\u8fd0)", "en_name": ["Sulfuryl chloride fluoride", "Sulfuryl chloride fluoride", "Chlorosulfonyl fluoride", "Fluorosulfuryl chloride", "Chloro fluoro sulfone", "Sulfuryl fluoride chloride", "Sulfonyl chloride fluoride", "Fluorosulfonyl chloride", "Sulfuryl chlorofluoride"], "SMILES": "S(Cl)(F)(=O)=O", "physical_data": {"Molecular Weight": "118.52", "Molecular Formula": "ClFO2S", "Boiling Point": "7.1 \u00b0C", "Melting Point": "-124.7 \u00b0C", "Density": "1.623 g/cm\u00b3 @ Temp: 0 \u00b0C"}}