{"cas_no": "13630-19-8", "cn_name": "\u90bb\u7532\u57fa\u4e09\u6c1f\u7532\u82ef", "en_name": ["1-Methyl-2-(trifluoromethyl)benzene", "Benzene, 1-methyl-2-(trifluoromethyl)-", "o-Xylene, \u03b1,\u03b1,\u03b1-trifluoro-", "1-Methyl-2-(trifluoromethyl)benzene", "2-(Trifluoromethyl)toluene", "o-(Trifluoromethyl)toluene", "2-Methyl-1-(trifluoromethyl)benzene"], "SMILES": "C(F)(F)(F)C1=C(C)C=CC=C1", "physical_data": {"Molecular Weight": "160.14", "Molecular Formula": "C8H7F3", "Boiling Point": "125-126 \u00b0C", "Density": "1.1740 g/cm\u00b3 @ Temp: 19 \u00b0C"}}