{"cas_no": "136310-64-0", "cn_name": "\u4e8c(2-\u567b\u5429\u57fa)\u4e59\u9187\u9178\u4e1c\u83a8\u83ea\u916f", "en_name": ["(1\u03b1,2\u03b2,4\u03b2,5\u03b1,7\u03b2)-9-Methyl-3-oxa-9-azatricyclo[3.3.1.02,4]non-7-yl \u03b1-hydroxy-\u03b1-2-thienyl-2-thiopheneacetate", "2-Thiopheneacetic acid, \u03b1-hydroxy-\u03b1-2-thienyl-, (1\u03b1,2\u03b2,4\u03b2,5\u03b1,7\u03b2)-9-methyl-3-oxa-9-azatricyclo[3.3.1.02,4]non-7-yl ester", "2-Thiopheneacetic acid, \u03b1-hydroxy-\u03b1-2-thienyl-, 9-methyl-3-oxa-9-azatricyclo[3.3.1.02,4]non-7-yl ester, (1\u03b1,2\u03b2,4\u03b2,5\u03b1,7\u03b2)-", "(1\u03b1,2\u03b2,4\u03b2,5\u03b1,7\u03b2)-9-Methyl-3-oxa-9-azatricyclo[3.3.1.02,4]non-7-yl \u03b1-hydroxy-\u03b1-2-thienyl-2-thiopheneacetate", "Di(2-thienyl)glycolic acid scopine ester", "N-Demethyl tiotropium", "Scopine di(2-thienylglycolate)", "(1\u03b1,2\u03b2,4\u03b2,5\u03b1,7\u03b2)-7-[(Hydroxydi(2-thienyl)acetyl)oxy]-9-methyl-3-oxa-9-azatricyclo[3.3.1.0]nonane", "Scopine hydroxydi(2-thienyl)acetate", "Dithienylglycolic acid scopine ester"], "SMILES": "CN1C2C3C(O3)C1CC(OC(C(O)(C4=CC=CS4)C5=CC=CS5)=O)C2", "physical_data": {"Molecular Weight": "377.48", "Molecular Formula": "C18H19NO4S2", "Melting Point": "115-117 \u00b0C"}}