{"cas_no": "136310-93-5", "cn_name": "\u567b\u6258\u6eb4\u94f5", "en_name": ["Tiotropium bromide", "3-Oxa-9-azoniatricyclo[3.3.1.02,4]nonane, 7-[(2-hydroxy-2,2-di-2-thienylacetyl)oxy]-9,9-dimethyl-, bromide (1:1), (1\u03b1,2\u03b2,4\u03b2,5\u03b1,7\u03b2)-", "3-Oxa-9-azoniatricyclo[3.3.1.02,4]nonane, 7-[(hydroxydi-2-thienylacetyl)oxy]-9,9-dimethyl-, bromide, (1\u03b1,2\u03b2,4\u03b2,5\u03b1,7\u03b2)-", "3-Oxa-9-azatricyclo[3.3.1.02,4]nonane, 3-oxa-9-azoniatricyclo[3.3.1.02,4]nonane deriv.", "Tiotropium bromide", "BA 679BR", "Spiriva", "tiopropium", "(1\u03b1,2\u03b2,4\u03b2,5\u03b1,7\u03b2)-7-[(Hydroxydi-2-thienylacetyl)oxy]-9,9-di-methyl-3-oxa-9-azoniatricyclo[3.3.1.0]nonane bromide"], "SMILES": "C(C(OC1CC2C3C(C(C1)[N+]2(C)C)O3)=O)(O)(C4=CC=CS4)C5=CC=CS5.[Br-]", "physical_data": {"Molecular Weight": "", "Molecular Formula": "C19H22NO4S2.Br", "Melting Point": "218-220 \u00b0C"}}