{"cas_no": "13639-54-8", "cn_name": "beta-D-\u56db\u4e59\u9170\u8461\u8404\u7cd6\u4e59\u57fa\u9ec4\u539f\u9178\u916f", "en_name": ["\u03b2-D-Glucopyranose, 1-thio-, 2,3,4,6-tetraacetate 1-(O-ethyl carbonodithioate)", "\u03b2-D-Glucopyranose, 1-thio-, 2,3,4,6-tetraacetate 1-(O-ethyl carbonodithioate)", "Glucopyranose, 1-thio-, 2,3,4,6-tetraacetate 1-(O-ethyl dithiocarbonate), \u03b2-D-", "NSC 66060"], "SMILES": "O(C(C)=O)C1C(OC(C)=O)C(OC(C)=O)C(COC(C)=O)OC1SC(OCC)=S", "physical_data": {"Molecular Weight": "452.50", "Molecular Formula": "C17H24O10S2", "Melting Point": "78-80 \u00b0C"}}