{"cas_no": "13637-68-8", "cn_name": "\u4e8c\u6c2f\u4e8c\u6c27\u5316\u94bc", "en_name": ["Molybdenum chloride oxide (MoCl2O2), (T-4)-", "Molybdenum chloride oxide (MoCl2O2), (T-4)-", "Molybdenum chloride oxide (MoO2Cl2)", "Molybdenum chloride (MoO2Cl2)", "Molybdenum dioxide dichloride", "Molybdenum dioxychloride", "Molybdenum dichloride dioxide", "Molybdenum oxychloride (MoO2Cl2)", "Molybdyl chloride", "Dichlorodioxomolybdenum", "Molybdenum chloride oxide (MoCl2O2)", "Dichlorodioxomolybdenum(VI)", "Molybdenum dioxodichloride"], "SMILES": "[Mo](Cl)(Cl)(=O)=O", "physical_data": {"Molecular Weight": "", "Molecular Formula": "Cl2MoO2", "Melting Point": "298 \u00b0C"}}