{"cas_no": "136470-78-5", "cn_name": "\u963f\u5df4\u5361\u97e6", "en_name": ["Abacavir", "2-Cyclopentene-1-methanol, 4-[2-amino-6-(cyclopropylamino)-9H-purin-9-yl]-, (1S,4R)-", "2-Cyclopentene-1-methanol, 4-[2-amino-6-(cyclopropylamino)-9H-purin-9-yl]-, (1S-cis)-", "(1S,4R)-4-[2-Amino-6-(cyclopropylamino)-9H-purin-9-yl]-2-cyclopentene-1-methanol", "Abacavir", "1592U89", "ABC", "(-)-Abacavir"], "SMILES": "N(C1=C2C(N(C=N2)C3CC(CO)C=C3)=NC(N)=N1)C4CC4", "physical_data": {"Molecular Weight": "286.33", "Molecular Formula": "C14H18N6O", "Melting Point": "125-128 \u00b0C"}}