{"cas_no": "136426-54-5", "cn_name": "\u6c1f\u55b9\u5511", "en_name": ["Fluquinconazole", "4(3H)-Quinazolinone, 3-(2,4-dichlorophenyl)-6-fluoro-2-(1H-1,2,4-triazol-1-yl)-", "3-(2,4-Dichlorophenyl)-6-fluoro-2-(1H-1,2,4-triazol-1-yl)-4(3H)-quinazolinone", "Fluquinconazole", "SN 597265", "Palisade", "Castellan", "Flamenco", "Flamenco (pesticide)", "Palisade PM", "Jockey", "Jockey 201 FS", "Jockey (pesticide)"], "SMILES": "O=C1N(C(=NC=2C1=CC(F)=CC2)N3C=NC=N3)C4=C(Cl)C=C(Cl)C=C4", "physical_data": {"Molecular Weight": "376.17", "Molecular Formula": "C16H8Cl2FN5O", "Melting Point": "192 \u00b0C"}}