{"cas_no": "13641-96-8", "cn_name": "\u5f02\u6c30\u9178\u916f\u4e19\u70ef\u9178\u4e59\u916f", "en_name": ["2-Isocyanatoethyl acrylate", "2-Propenoic acid, 2-isocyanatoethyl ester", "Acrylic acid, ester with 2-hydroxyethyl isocyanate", "Acrylic acid, 2-isocyanatoethyl ester", "Isocyanic acid 2-hydroxyethyl ester acrylate (ester)", "2-Isocyanatoethyl acrylate", "Karenz AOI", "2-Acryloyloxyethyl isocyanate", "Karenz AOI-VM", "\u03b2-Acryloxyethyl isocyanate", "AOI-VM", "2-Isocyanatoethyl prop-2-enoate", "2-Propenoic acid, 2-nitrosoethyl ester", "2-Nitrosoethyl 2-propenoate"], "SMILES": "C(OCCN=C=O)(C=C)=O", "physical_data": {"Molecular Weight": "141.12", "Molecular Formula": "C6H7NO3", "Boiling Point": "80-82 \u00b0C @ Press: 10 Torr", "Melting Point": "58 \u00b0C"}}