{"cas_no": "136434-34-9", "cn_name": "\u76d0\u9178\u5ea6\u6d1b\u897f\u6c40", "en_name": ["Duloxetine hydrochloride", "2-Thiophenepropanamine, N-methyl-\u03b3-(1-naphthalenyloxy)-, hydrochloride (1:1), (\u03b3S)-", "2-Thiophenepropanamine, N-methyl-\u03b3-(1-naphthalenyloxy)-, hydrochloride, (S)-", "2-Thiophenepropanamine, N-methyl-\u03b3-(1-naphthalenyloxy)-, hydrochloride, (\u03b3S)-", "LY 248686 HCl", "(S)-(+)-N-Methyl-3-(1-naphthalenyloxy)-3-(2-thienyl)propanamine hydrochloride", "Duloxetine hydrochloride", "Cymbalta", "(S)-Duloxetine hydrochloride", "(S)-(+)-Duloxetine hydrochloride", "Dulane 20", "(S)-\u03b3-(1-Naphthalenoxy)-N-methylthiophene-2-propanamine monohydrochloride", "(S)-N-Methyl-3-(naphthalen-1-yloxy)-3-(thiophen-2-yl)propan-1-amine hydrochloride", "Yentreve", "Irenka", "Drizalma Sprinkle"], "SMILES": "O(C(CCNC)C1=CC=CS1)C=2C3=C(C=CC2)C=CC=C3.Cl", "physical_data": {"Molecular Weight": "", "Molecular Formula": "C18H19NOS.ClH", "Melting Point": "165-171 \u00b0C (polymorph)"}}