{"cas_no": "13647-35-3", "cn_name": "\u66f2\u6d1b\u53f8\u5766", "en_name": ["Trilostane", "Androst-2-ene-2-carbonitrile, 4,5-epoxy-3,17-dihydroxy-, (4\u03b1,5\u03b1,17\u03b2)-", "(4\u03b1,5\u03b1,17\u03b2)-4,5-Epoxy-3,17-dihydroxyandrost-2-ene-2-carbonitrile", "Trilostane", "Win 24540", "Modrenal", "Modrefen", "Desopan", "Modrastane", "Vetoryl"], "SMILES": "CC12C3(C(O3)C(O)=C(C#N)C1)CCC4C2CCC5(C)C4CCC5O", "physical_data": {"Molecular Weight": "329.43", "Molecular Formula": "C20H27NO3", "Melting Point": "264 \u00b0C (decomp)"}}