{"cas_no": "136465-81-1", "cn_name": "N-\u53d4\u4e01\u57fa-\u5341\u6c22\u5f02\u55b9\u5549-3(S)-\u7532\u9170\u80fa", "en_name": ["(3S,4aS,8aS)-N-(1,1-Dimethylethyl)decahydro-3-isoquinolinecarboxamide", "3-Isoquinolinecarboxamide, N-(1,1-dimethylethyl)decahydro-, (3S,4aS,8aS)-", "3-Isoquinolinecarboxamide, N-(1,1-dimethylethyl)decahydro-, [3S-(3\u03b1,4a\u03b2,8a\u03b2)]-", "(3S,4aS,8aS)-N-(1,1-Dimethylethyl)decahydro-3-isoquinolinecarboxamide", "(S,S,S)-N-tert-Butyldecahydroisoquinoline-3-carboxamide", "[(3S)-(3\u03b1,4a\u03b2,8a\u03b2)]-N-(tert-Butyl)decahydro-3-isoquinolinecarboxamide", "(3S,4aS,8aS)-Decahydroisoquinoline-3-carboxylic acid tert-butylamide"], "SMILES": "C(NC(C)(C)C)(=O)C1CC2C(CN1)CCCC2", "physical_data": {"Molecular Weight": "238.37", "Molecular Formula": "C14H26N2O", "Melting Point": "111-113 \u00b0C"}}