{"cas_no": "1365-19-1", "cn_name": "\u6c27\u5316\u82b3\u6a1f\u9187", "en_name": ["Linalool, oxide", "Linalool oxide", "Linalool, epoxydihydro-", "Linalool, oxide", "Epoxylinalool"], "SMILES": "", "physical_data": {"Molecular Weight": "", "Molecular Formula": "C10H18O2", "Boiling Point": "68 \u00b0C @ Press: 8 Torr", "Density": "0.9440 g/cm\u00b3 @ Temp: 20 \u00b0C"}}