{"cas_no": "13657-68-6", "cn_name": "\u83aa\u672f\u4e8c\u916e", "en_name": ["(+)-Curdione", "6-Cyclodecene-1,4-dione, 6,10-dimethyl-3-(1-methylethyl)-, (3S,6E,10S)-", "6-Cyclodecene-1,4-dione, 6,10-dimethyl-3-(1-methylethyl)-, [3S-(3R*,6E,10R*)]-", "Germacr-1(10)-ene-5,8-dione", "(3S,6E,10S)-6,10-Dimethyl-3-(1-methylethyl)-6-cyclodecene-1,4-dione", "Curdione", "(+)-Germacr-1(10)-ene-5,8-dione", "(+)-Curdione"], "SMILES": "C(C)(C)C1C(=O)CC(C)=CCCC(C)C(=O)C1", "physical_data": {"Molecular Weight": "236.35", "Molecular Formula": "C15H24O2", "Melting Point": "61.5-62.0 \u00b0C"}}