{"cas_no": "136507-15-8", "cn_name": "2-\u7532\u6c27\u57fa-4-\u785d\u57fa\u82ef\u7532\u919b", "en_name": ["2-Methoxy-4-nitrobenzaldehyde", "Benzaldehyde, 2-methoxy-4-nitro-", "2-Methoxy-4-nitrobenzaldehyde", "4-Nitro-2-methoxybenzaldehyde", "1-Formyl-2-methoxy-4-nitrobenzene"], "SMILES": "O(C)C1=C(C=O)C=CC(N(=O)=O)=C1", "physical_data": {"Molecular Weight": "181.15", "Molecular Formula": "C8H7NO4", "Melting Point": "122 \u00b0C"}}