{"cas_no": "13656-57-0", "cn_name": "5-\u6c2f-2,4-\u4e8c\u6c1f\u82ef\u78fa\u9170\u6c2f", "en_name": ["5-Chloro-2,4-difluorobenzenesulfonyl chloride", "Benzenesulfonyl chloride, 5-chloro-2,4-difluoro-", "5-Chloro-2,4-difluorobenzenesulfonyl chloride", "5-Chloro-2,4-difluorophenylsulfonyl chloride", "2,4-Difluoro-5-chlorobenzenesulfonyl chloride", "5-Chloro-2,4-difluorobenzene-1-sulfonyl chloride"], "SMILES": "S(Cl)(=O)(=O)C1=C(F)C=C(F)C(Cl)=C1", "physical_data": {"Molecular Weight": "247.05", "Molecular Formula": "C6H2Cl2F2O2S", "Boiling Point": "97-98 \u00b0C @ Press: 3.5 Torr"}}