{"cas_no": "13654-09-6", "cn_name": "\u5341\u6eb4\u8054\u82ef", "en_name": ["Decabromobiphenyl", "1,1\u2032-Biphenyl, 2,2\u2032,3,3\u2032,4,4\u2032,5,5\u2032,6,6\u2032-decabromo-", "Biphenyl, decabromo-", "2,2\u2032,3,3\u2032,4,4\u2032,5,5\u2032,6,6\u2032-Decabromo-1,1\u2032-biphenyl", "Perbromobiphenyl", "Flammex B 10", "Berkflam B 10", "Decabromobiphenyl", "Adine 0102", "2,2\u2032,3,3\u2032,4,4\u2032,5,5\u2032,6,6\u2032-Decabromobiphenyl", "PBB 209", "RBF 102", "BB 209"], "SMILES": "BrC1=C(C(Br)=C(Br)C(Br)=C1Br)C2=C(Br)C(Br)=C(Br)C(Br)=C2Br", "physical_data": {"Molecular Weight": "943.17", "Molecular Formula": "C12Br10", "Melting Point": "375 \u00b0C"}}