{"cas_no": "136572-09-3", "cn_name": "\u76d0\u9178\u4f0a\u7acb\u66ff\u5eb7\u4e09\u6c34\u5408\u7269", "en_name": ["Irinotecan hydrochloride trihydrate", "[1,4\u2032-Bipiperidine]-1\u2032-carboxylic acid, (4S)-4,11-diethyl-3,4,12,14-tetrahydro-4-hydroxy-3,14-dioxo-1H-pyrano[3\u2032,4\u2032:6,7]indolizino[1,2-b]quinolin-9-yl ester, hydrochloride, hydrate (1:1:3)", "[1,4\u2032-Bipiperidine]-1\u2032-carboxylic acid, 4,11-diethyl-3,4,12,14-tetrahydro-4-hydroxy-3,14-dioxo-1H-pyrano[3\u2032,4\u2032:6,7]indolizino[1,2-b]quinolin-9-yl ester, monohydrochloride, trihydrate, (S)-", "[1,4\u2032-Bipiperidine]-1\u2032-carboxylic acid, (4S)-4,11-diethyl-3,4,12,14-tetrahydro-4-hydroxy-3,14-dioxo-1H-pyrano[3\u2032,4\u2032:6,7]indolizino[1,2-b]quinolin-9-yl ester, monohydrochloride, trihydrate", "1H-Pyrano[3\u2032,4\u2032:6,7]indolizino[1,2-b]quinoline, [1,4\u2032-bipiperidine]-1\u2032-carboxylic acid deriv.", "Irinotecan hydrochloride hydrate", "Irinotecan hydrochloride trihydrate", "Onivyde", "Onivyde pegylated liposomal"], "SMILES": "C(C)C1=C2C(C=3N(C2)C(=O)C4=C(C3)C(CC)(O)C(=O)OC4)=NC=5C1=CC(OC(=O)N6CCC(CC6)N7CCCCC7)=CC5.Cl.O", "physical_data": {"Molecular Weight": "", "Molecular Formula": "C33H38N4O6.ClH.3H2O", "Melting Point": "256.5 \u00b0C"}}