{"cas_no": "13655-52-2", "cn_name": "\u963f\u666e\u6d1b\u5c14", "en_name": ["Alprenolol", "2-Propanol, 1-[(1-methylethyl)amino]-3-[2-(2-propen-1-yl)phenoxy]-", "2-Propanol, 1-(o-allylphenoxy)-3-(isopropylamino)-", "2-Propanol, 1-[(1-methylethyl)amino]-3-[2-(2-propenyl)phenoxy]-", "1-[(1-Methylethyl)amino]-3-[2-(2-propen-1-yl)phenoxy]-2-propanol", "Alprenolol", "1-(o-Allylphenoxy)-3-(isopropylamino)-2-propanol", "Alpheprol", "1-Isopropylamino-3-(2-allyl)phenoxypropan-2-ol", "(\u00b1)-Alprenolol", "dl-Alprenolol", "(RS)-Alprenolol", "1-(2-Allyl-phenoxy)-3-isopropylamino-propan-2-ol", "1-(Propan-2-ylamino)-3-(2-prop-2-enylphenoxy)propan-2-ol", "[2-Hydroxy-3-[2-(prop-2-en-1-yl)phenoxy]propyl](propan-2-yl)amine", "BRD-A O0993607", "MeSH ID: D000526"], "SMILES": "O(CC(CNC(C)C)O)C1=C(CC=C)C=CC=C1", "physical_data": {"Molecular Weight": "249.35", "Molecular Formula": "C15H23NO2", "Melting Point": "107-109 \u00b0C"}}