{"cas_no": "13651-14-4", "cn_name": "2,3-\u4e8c\u7532\u57fa\u82c4\u9187", "en_name": ["2,3-Dimethylbenzenemethanol", "Benzenemethanol, 2,3-dimethyl-", "Benzyl alcohol, 2,3-dimethyl-", "2,3-Dimethylbenzenemethanol", "2,3-Dimethylbenzyl alcohol", "Hemellitol", "NSC 59890", "(2,3-Dimethylphenyl)methanol"], "SMILES": "C(O)C1=C(C)C(C)=CC=C1", "physical_data": {"Molecular Weight": "136.19", "Molecular Formula": "C9H12O", "Boiling Point": "125 \u00b0C", "Melting Point": "64 \u00b0C"}}