{"cas_no": "13669-42-6", "cn_name": "3-\u55b9\u5549\u7532\u919b", "en_name": ["3-Quinolinecarboxaldehyde", "3-Quinolinecarboxaldehyde", "3-Formylquinoline", "Quinoline-3-carbaldehyde"], "SMILES": "C(=O)C1=CC2=C(N=C1)C=CC=C2", "physical_data": {"Molecular Weight": "157.17", "Molecular Formula": "C10H7NO", "Melting Point": "120 \u00b0C"}}