{"cas_no": "13668-61-6", "cn_name": "2-\u73af\u620a\u70ef\u57fa-1-\u4e59\u9178", "en_name": ["2-Cyclopentene-1-acetic acid", "2-Cyclopentene-1-acetic acid", "Cyclopent-2-en-1-ylacetic acid", "Cyclopenten-3-ylacetic acid", "(2-Cyclopentenyl)acetic acid", "2-Cyclopenteneacetic acid", "(\u00b1)-2-Cyclopentene-1-acetic acid", "2-(Cyclopent-2-enyl)acetic acid", "NSC 60126", "2-(Cyclopent-2-en-1-yl)acetic acid"], "SMILES": "C(C(O)=O)C1CCC=C1", "physical_data": {"Molecular Weight": "126.15", "Molecular Formula": "C7H10O2", "Boiling Point": "94-95 \u00b0C @ Press: 2 Torr", "Density": "1.0519 g/cm\u00b3 @ Temp: 20 \u00b0C"}}