{"cas_no": "13678-59-6", "cn_name": "2-\u7532\u57fa-5-(\u7532\u786b\u57fa)\u544b\u5583", "en_name": ["2-Methyl-5-(methylthio)furan", "Furan, 2-methyl-5-(methylthio)-", "2-Methyl-5-(methylthio)furan", "Methyl 5-methylfuryl sulfide", "5-Methyl-2-(methylthio)furan", "2-Methyl-5-methylsulfanylfuran"], "SMILES": "S(C)C=1OC(C)=CC1", "physical_data": {"Molecular Weight": "128.19", "Molecular Formula": "C6H8OS", "Boiling Point": "80 \u00b0C @ Press: 45-50 Torr"}}