{"cas_no": "13674-87-8", "cn_name": "\u78f7\u9178\u4e09(1,3-\u4e8c\u6c2f\u5f02\u4e19\u57fa)\u916f", "en_name": ["Tris(1,3-dichloro-2-propyl) phosphate", "2-Propanol, 1,3-dichloro-, 2,2\u2032,2\u2032\u2032-phosphate", "2-Propanol, 1,3-dichloro-, phosphate (3:1)", "Tris(1,3-dichloroisopropyl) phosphate", "PF 38", "Tris(1-chloromethyl-2-chloroethyl)phosphate", "Tris(1,3-dichloro-2-propyl) phosphate", "Fyrol FR 2", "Tris[2-chloro-1-(chloromethyl)ethyl] phosphate", "TDCPP", "PF 38/3", "CRP", "CRP (fireproofing agent)", "Antiblaze 195", "FR 10", "FR 10 (phosphate)", "3PC-R", "Tri(1,3-dichloroisopropyl) phosphate", "WR 30LV", "Antiblaze WR 30LV", "Tris(1,3-dichloro-2-isopropyl)phosphate"], "SMILES": "P(OC(CCl)CCl)(OC(CCl)CCl)(OC(CCl)CCl)=O", "physical_data": {"Molecular Weight": "430.90", "Molecular Formula": "C9H15Cl6O4P", "Boiling Point": "236-237 \u00b0C @ Press: 5 Torr", "Melting Point": "27 \u00b0C", "Density": "148 g/cm\u00b3 @ Temp: 25 \u00b0C"}}