{"cas_no": "13674-84-5", "cn_name": "\u78f7\u9178\u4e09(2-\u6c2f\u4e19\u57fa)\u916f", "en_name": ["Tris(2-chloroisopropyl) phosphate", "2-Propanol, 1-chloro-, 2,2\u2032,2\u2032\u2032-phosphate", "2-Propanol, 1-chloro-, phosphate (3:1)", "Tris(1-chloro-2-propyl) phosphate", "Tris(1-methyl-2-chloroethyl) phosphate", "Amgard TMCP", "Tris(chloroisopropyl) phosphate", "Hostaflam OP 820", "Tris(2-chloro-1-methylethyl) phosphate", "TCPP", "Daltoguard F", "Tris(\u03b2-chloroisopropyl) phosphate", "Tris(2-chloroisopropyl) phosphate", "Levagard PP", "Tolgard TMCP", "Fyrol PCF", "Antiblaze 80", "Antiblaze TMCP", "PUMA 4010", "Levagard PP-Z", "Phireguard TCPP", "Levagard TCPP", "WSFR-TCPP", "Yoke TCPP", "TMPCC", "Tris(1-chloro-2-isopropyl)phosphate", "Levagard PP 2", "PC 1389", "ProFlame PC 1389", "BS 5852", "Antiblaze AB 80", "Fyrol PCF-LO"], "SMILES": "P(OC(CCl)C)(OC(CCl)C)(OC(CCl)C)=O", "physical_data": {"Molecular Weight": "327.57", "Molecular Formula": "C9H18Cl3O4P", "Boiling Point": "&gt;270 \u00b0C", "Melting Point": "-40 \u00b0C", "Density": "1.2885 g/cm\u00b3 @ Temp: 20 \u00b0C"}}