{"cas_no": "13679-85-1", "cn_name": "\u4e8c\u6c22-2-\u7532\u57fa-3(2H)-\u567b\u5429\u916e", "en_name": ["Dihydro-2-methyl-3(2H)-thiophenone", "3(2H)-Thiophenone, dihydro-2-methyl-", "Dihydro-2-methyl-3(2H)-thiophenone", "2-Methyltetrahydrothiophen-3-one", "2-Methyl-3-oxotetrahydrothiophene", "2-Methylthiophan-3-one", "Dihydro-2-methyl-3-thiophenone", "2-Methyl-4,5-dihydro-3(2H)-thiophenone", "2-Methylthiolan-3-one"], "SMILES": "O=C1C(C)SCC1", "physical_data": {"Molecular Weight": "116.18", "Molecular Formula": "C5H8OS", "Boiling Point": "82 \u00b0C @ Press: 28 Torr"}}