{"cas_no": "13678-68-7", "cn_name": "\u786b\u4ee3\u4e59\u9178\u7ce0\u916f", "en_name": ["Furfurylthiol acetate", "Ethanethioic acid, S-(2-furanylmethyl) ester", "Acetic acid, thio-, S-furfuryl ester", "2-Furanmethanethiol, acetate", "Furfurylthiol acetate", "S-(2-Furanylmethyl)thioacetate"], "SMILES": "C(SC(C)=O)C1=CC=CO1", "physical_data": {"Molecular Weight": "156.20", "Molecular Formula": "C7H8O2S", "Boiling Point": "90-92 \u00b0C @ Press: 12 Torr"}}