{"cas_no": "13673-95-5", "cn_name": "L-3-\u82ef\u57fa\u4e73\u9178\u7532\u916f", "en_name": ["Methyl (\u03b1S)-\u03b1-hydroxybenzenepropanoate", "Benzenepropanoic acid, \u03b1-hydroxy-, methyl ester, (\u03b1S)-", "Lactic acid, 3-phenyl-, methyl ester, L-", "Benzenepropanoic acid, \u03b1-hydroxy-, methyl ester, (S)-", "Methyl (\u03b1S)-\u03b1-hydroxybenzenepropanoate", "L-\u03b2-Phenyllactic acid methyl ester", "Methyl \u03b2-phenyl-L-lactate", "Methyl L-phenyllactate", "(S)-\u03b2-Phenyllactic acid methyl ester", "Methyl (S)-\u03b1-hydroxy-\u03b2-phenylpropionate", "Methyl L-2-hydroxy-3-phenylpropionate", "Papulin", "Methyl (S)-(-)-3-phenyllactate", "Methyl 3-phenyl-L-lactate", "Methyl (S)-3-phenyllactate", "(-)-3-Phenyllactic acid methyl ester", "(\u03b1S)-\u03b1-Hydroxybenzenepropanoic acid methyl ester", "(2S)-2-Hydroxy-3-phenylpropionic acid methyl ester", "Methyl (2S)-2-hydroxy-3-phenylpropanoate", "Methyl (2S)-2-hydroxy-3-phenylpropanoate", "(S)-2-Hydroxy-3-phenylpropionic acid methyl ester", "Methyl (S)-2-hydroxy-3-phenylpropanoate", "Papuline"], "SMILES": "C(C(C(OC)=O)O)C1=CC=CC=C1", "physical_data": {"Molecular Weight": "180.20", "Molecular Formula": "C10H12O3", "Boiling Point": "110-115 \u00b0C @ Press: 3 Torr", "Melting Point": "45-47 \u00b0C", "Density": "1.129 g/cm\u00b3 @ Temp: 20 \u00b0C"}}