{"cas_no": "13676-54-5", "cn_name": "N,N'-(4,4'-\u4e9a\u7532\u57fa\u4e8c\u82ef\u57fa)\u53cc\u9a6c\u6765\u9170\u4e9a\u80fa", "en_name": ["Bismaleimidodiphenylmethane", "1H-Pyrrole-2,5-dione, 1,1\u2032-(methylenedi-4,1-phenylene)bis-", "Maleimide, N,N\u2032-(methylenedi-p-phenylene)di-", "1,1\u2032-(Methylenedi-4,1-phenylene)bis[1H-pyrrole-2,5-dione]", "N,N\u2032-(Methylenedi-p-phenylene)dimaleimide", "4,4\u2032-Methylenebis(N-phenylenemaleimide)", "4,4\u2032-Bis(maleimido)diphenylmethane", "4,4\u2032-Diphenylmethanebismaleimide", "4,4\u2032-Methylenebis(N-phenylmaleimide)", "4,4\u2032-Biphenylmethanebismaleimide", "4,4\u2032-Methylenebis(phenylmaleimide)", "N,N\u2032-Bismaleimido-4,4\u2032-diphenylmethane", "p,p\u2032-Dimaleimidodiphenylmethane", "Methylenedi-p-phenylene-N,N\u2032-bismaleimide", "N,N\u2032-(p,p\u2032-Diphenylmethane)bismaleimide", "Bis(4-maleimidophenyl)methane", "N,N\u2032-(4,4\u2032-Diphenylmethane)bismaleimide", "N,N\u2032-(Methylenedi-4,1-phenylene)bismaleimide", "4,4\u2032-Diphenylmethanedimaleimide", "4,4\u2032-Dimaleimidodiphenylmethane", "Bis(p-maleimidophenyl)methane", "4,4\u2032-(N,N\u2032-Bismaleimido)diphenylmethane", "N,N\u2032-4,4\u2032-Diaminodiphenylmethanebis[maleimide]", "p,p\u2032-Methylenebis(N-phenylmaleimide)", "4,4\u2032-Methylenedianiline bismaleimide", "1,1\u2032-Methylenebis(4-maleimidobenzene)", "N,N\u2032-(Methylenedi-p-phenylene)bismaleimide", "4,4\u2032-(Methylenedi-p-phenylene)dimaleimide", "4,4\u2032-Bis(maleimidophenyl)methane", "N,N\u2032-(Methylene-p-phenylene)dimaleimide", "XU 292A", "Bismaleimide S", "1,1\u2032-(Methylenedi-4,1-phenylene)bismaleimide", "Matrimid 5292A", "BMI-S", "BMI", "MB 3000", "Matrimid 5258", "MB 3000H", "Bestlex BH 180", "MDABMI", "4,4\u2032-Methylenebis[maleimidobenzene]", "4,4\u2032-Diaminodiphenylmethane bismaleimide", "BMI-H", "BMI-H (maleimide compound)", "N,N\u2032-(Methylenebis-p-phenylene)bismaleimide", "Bismaleimidodiphenylmethane", "NSC 44754", "4,4\u2032-Dimaleimidediphenylmethane", "BMI (maleimide compound)", "BDM-S", "BMI 1000", "4,4\u2032-Bismalimidodiphenylmethane", "N,N\u2032-4,4\u2032-Bismaleimide diphenylmethane", "BMI 1000H", "BMI-RB", "T-Bismaleimide", "Homide 121", "BMI 1100", "BMI 1100H", "BM 200", "1,1\u2032-(Methylenedi-4,4\u2032-phenylene)bismaleimide", "4,4-Bis(4-maleimidophenyl)methane", "EM 23-30", "ED-BM 25", "1-[4-[[4-(2,5-Dioxopyrrol-1-yl)phenyl]methyl]phenyl]pyrrole-2,5-dione", "1,1\u2032-[methylenebis(4,1-phenylene)]bis(1H-pyrrole-2,5-dione)", "D 928", "BMI 01", "Homide 121G", "BMI-LA", "Compimide MDAB", "KI 70"], "SMILES": "O=C1N(C(=O)C=C1)C2=CC=C(CC3=CC=C(C=C3)N4C(=O)C=CC4=O)C=C2", "physical_data": {"Molecular Weight": "358.35", "Molecular Formula": "C21H14N2O4", "Melting Point": "120-145 \u00b0C"}}