{"cas_no": "13678-58-5", "cn_name": "1-\u7532\u786b\u57fa-2-\u4e01\u916e", "en_name": ["Methylthiomethyl ethyl ketone", "2-Butanone, 1-(methylthio)-", "1-(Methylthio)-2-butanone", "1-Methylthio-2-butanone", "Methylthiomethyl ethyl ketone", "1-(Methylsulfanyl)butan-2-one", "1-Methylsulfanyl-butan-2-one"], "SMILES": "C(CSC)(CC)=O", "physical_data": {"Molecular Weight": "118.20", "Molecular Formula": "C5H10OS", "Boiling Point": "72-73 \u00b0C @ Press: 16 Torr", "Density": "0.9970 g/cm\u00b3 @ Temp: 22 \u00b0C"}}