{"cas_no": "13679-74-8", "cn_name": "2-\u4e59\u9170-5-\u7532\u57fa\u567b\u5429", "en_name": ["2-Acetyl-5-methylthiophene", "Ethanone, 1-(5-methyl-2-thienyl)-", "Ketone, methyl 5-methyl-2-thienyl", "1-(5-Methyl-2-thienyl)ethanone", "Methyl 5-methyl-2-thienyl ketone", "2-Acetyl-5-methylthiophene", "2-Methyl-5-acetylthiophene", "5-Methyl-2-thienyl methyl ketone", "1-(5-Methylthiophen-2-yl)ethanone", "1-(5-Methylthiophen-2-yl)ethan-1-one"], "SMILES": "C(C)(=O)C=1SC(C)=CC1", "physical_data": {"Molecular Weight": "140.20", "Molecular Formula": "C7H8OS", "Boiling Point": "232.5 \u00b0C", "Melting Point": "27.5 \u00b0C", "Density": "1.12 g/cm\u00b3 @ Temp: 25 \u00b0C"}}