{"cas_no": "13679-72-6", "cn_name": "2-\u4e59\u9170-3-\u7532\u57fa\u567b\u5429", "en_name": ["2-Acetyl-3-methylthiophene", "Ethanone, 1-(3-methyl-2-thienyl)-", "Ketone, methyl 3-methyl-2-thienyl", "1-(3-Methyl-2-thienyl)ethanone", "2-Acetyl-3-methylthiophene", "3-Methyl-2-acetylthiophene", "3-Methyl-2-thienyl methyl ketone", "NSC 170616", "1-(3-Methylthien-2-yl)ethanone", "1-(3-Methylthiophen-2-yl)ethanone", "1-(3-Methylthiophen-2-yl)ethan-1-one"], "SMILES": "C(C)(=O)C1=C(C)C=CS1", "physical_data": {"Molecular Weight": "140.20", "Molecular Formula": "C7H8OS", "Boiling Point": "98-99 \u00b0C @ Press: 14 Torr"}}