{"cas_no": "13678-67-6", "cn_name": "\u4e8c\u7ce0\u57fa\u786b\u919a", "en_name": ["Difurfuryl sulfide", "Furan, 2,2\u2032-[thiobis(methylene)]bis-", "Furan, 2,2\u2032-(thiodimethylene)di-", "2,2\u2032-[Thiobis(methylene)]bis[furan]", "Difurfuryl sulfide", "2-[[(Furan-2-ylmethyl)sulfanyl]methyl]furan", "2-(Furan-2-ylmethylsulfanylmethyl)furan"], "SMILES": "C(SCC1=CC=CO1)C2=CC=CO2", "physical_data": {"Molecular Weight": "194.25", "Molecular Formula": "C10H10O2S", "Boiling Point": "135-143 \u00b0C @ Press: 14 Torr"}}