{"cas_no": "13679-75-9", "cn_name": "2-\u4e19\u9170\u567b\u5429", "en_name": ["1-(2-Thienyl)-1-propanone", "1-Propanone, 1-(2-thienyl)-", "1-(2-Thienyl)-1-propanone", "Ethyl 2-thienyl ketone", "2-Propionylthiophene", "2-Propanoylthiophene", "1-(Thiophen-2-yl)propan-1-one", "NSC 76041"], "SMILES": "C(CC)(=O)C1=CC=CS1", "physical_data": {"Molecular Weight": "140.20", "Molecular Formula": "C7H8OS", "Boiling Point": "128-129 \u00b0C @ Press: 25 Torr", "Density": "1.1390 g/cm\u00b3 @ Temp: 20 \u00b0C"}}