{"cas_no": "13676-02-3", "cn_name": "2-\u6c2f-6-\u7532\u6c27\u57fa\u55b9\u5549", "en_name": ["2-Chloro-6-methoxyquinoline", "Quinoline, 2-chloro-6-methoxy-", "2-Chloro-6-methoxyquinoline"], "SMILES": "O(C)C1=CC2=C(N=C(Cl)C=C2)C=C1", "physical_data": {"Molecular Weight": "193.63", "Molecular Formula": "C10H8ClNO", "Melting Point": "107-108 \u00b0C"}}