{"cas_no": "13676-91-0", "cn_name": "\u6eb6\u5242\u9ec4163", "en_name": ["Solvent Yellow 163", "9,10-Anthracenedione, 1,8-bis(phenylthio)-", "Anthraquinone, 1,8-bis(phenylthio)-", "1,8-Bis(phenylthio)-9,10-anthracenedione", "1,8-Bis(phenylthio)anthraquinone", "C.I. 58840", "C.I. Solvent Yellow 163", "Oracet Yellow GHS", "Oplas Yellow 120", "Solvent Yellow 163", "Morplas Yellow GS", "NSC 156516", "Dymic MBR-D 05", "Oracet GHS", "KP Plast Yellow HK", "Teratop Yellow HL-G", "Dymic MBR-D 05 Yellow", "Oracet Yellow 180"], "SMILES": "S(C1=C2C(C(=O)C=3C(C2=O)=C(SC4=CC=CC=C4)C=CC3)=CC=C1)C5=CC=CC=C5", "physical_data": {"Molecular Weight": "424.53", "Molecular Formula": "C26H16O2S2", "Melting Point": "187 \u00b0C"}}