{"cas_no": "13679-61-3", "cn_name": "\u786b\u4ee3\u7ce0\u9178\u7532\u916f", "en_name": ["Methyl 2-thiofuroate", "2-Furancarbothioic acid, S-methyl ester", "2-Furoic acid, thio-, S-methyl ester", "Methyl 2-thiofuroate", "Methylthiol furoate", "S-Methyl 2-furancarbothioate", "(Furan-2-yl)(methylsulfanyl)methanone"], "SMILES": "C(SC)(=O)C1=CC=CO1", "physical_data": {"Molecular Weight": "142.18", "Molecular Formula": "C6H6O2S", "Boiling Point": "83 \u00b0C @ Press: 7 Torr"}}