{"cas_no": "13677-79-7", "cn_name": "3,4,5-\u4e09\u7f9f\u57fa\u82ef\u7532\u919b", "en_name": ["3,4,5-Trihydroxybenzaldehyde", "Benzaldehyde, 3,4,5-trihydroxy-", "Gallaldehyde", "3,4,5-Trihydroxybenzaldehyde", "NSC 153692", "Gallic aldehyde"], "SMILES": "C(=O)C1=CC(O)=C(O)C(O)=C1", "physical_data": {"Molecular Weight": "154.12", "Molecular Formula": "C7H6O4", "Melting Point": "212 \u00b0C (decomp)"}}