{"cas_no": "13679-70-4", "cn_name": "5-\u7532\u57fa-2-\u567b\u5429\u7532\u919b", "en_name": ["5-Methyl-2-thiophenecarboxaldehyde", "2-Thiophenecarboxaldehyde, 5-methyl-", "5-Methyl-2-thiophenecarboxaldehyde", "5-Methyl-2-formylthiophene", "2-Formyl-5-methylthiophene", "5-Methylthiophene-2-carbaldehyde", "2-Methylthiophene-5-carboxaldehyde", "2-Methyl-5-formylthiophene", "5-Methyl-2-thiophenealdehyde", "5-Methyl-2-thienaldehyde", "NSC 87542", "5-Methyl-2-thienylcarbaldehyde", "5-Methylthiophen-2-carboxaldehyde"], "SMILES": "C(=O)C=1SC(C)=CC1", "physical_data": {"Molecular Weight": "126.18", "Molecular Formula": "C6H6OS", "Boiling Point": "52.5 \u00b0C @ Press: 0.7 Torr", "Melting Point": "184-186 \u00b0C"}}