{"cas_no": "13670-99-0", "cn_name": "2,6-\u4e8c\u6c1f\u82ef\u4e59\u916e", "en_name": ["1-(2,6-Difluorophenyl)ethanone", "Ethanone, 1-(2,6-difluorophenyl)-", "Acetophenone, 2\u2032,6\u2032-difluoro-", "1-(2,6-Difluorophenyl)ethanone", "2\u2032,6\u2032-Difluoroacetophenone", "2,6-Difluoroacetophenone", "1-(2,6-Difluorophenyl)ethan-1-one"], "SMILES": "C(C)(=O)C1=C(F)C=CC=C1F", "physical_data": {"Molecular Weight": "156.13", "Molecular Formula": "C8H6F2O", "Boiling Point": "76-79 \u00b0C @ Press: 15 Torr"}}