{"cas_no": "13672-07-6", "cn_name": "2-\u6eb4-1-\u56db\u6c22\u8418\u916e", "en_name": ["2-Bromo-1-tetralone", "1(2H)-Naphthalenone, 2-bromo-3,4-dihydro-", "2-Bromo-3,4-dihydro-1(2H)-naphthalenone", "2-Bromo-1-tetralone", "2-Bromo-\u03b1-tetralone", "2-Bromotetralone", "2-Bromo-1-oxotetralin", "3,4-Dihydro-2-bromo-1(2H)-naphthalenone", "2-Bromo-3,4-dihydro-2H-naphthalen-1-one", "NSC 402212", "2-Bromo-1,2,3,4-tetrahydro-1-naphthalenone"], "SMILES": "O=C1C=2C(CCC1Br)=CC=CC2", "physical_data": {"Molecular Weight": "225.08", "Molecular Formula": "C10H9BrO", "Boiling Point": "140-142 \u00b0C @ Press: 0.56-1 Torr", "Melting Point": "40-41 \u00b0C"}}