{"cas_no": "136849-15-5", "cn_name": "\u73af\u4e19\u5627\u78fa\u9686", "en_name": ["Cyclosulfamuron", "Urea, N-[[[2-(cyclopropylcarbonyl)phenyl]amino]sulfonyl]-N\u2032-(4,6-dimethoxy-2-pyrimidinyl)-", "N-[[[2-(Cyclopropylcarbonyl)phenyl]amino]sulfonyl]-N\u2032-(4,6-dimethoxy-2-pyrimidinyl)urea", "1-[[o-(Cyclopropylcarbonyl)phenyl]sulfamoyl]-3-(4,6-dimethoxy-2-pyrimidinyl)urea", "AC 140", "AC 322140", "CL 322140", "Cyclosulfamuron", "AC 014", "Sultan", "Gopter"], "SMILES": "C(=O)(C1=C(NS(NC(NC=2N=C(OC)C=C(OC)N2)=O)(=O)=O)C=CC=C1)C3CC3", "physical_data": {"Molecular Weight": "421.43", "Molecular Formula": "C17H19N5O6S", "Melting Point": "161.9 \u00b0C"}}