{"cas_no": "13688-90-9", "cn_name": "\u4e09\u6c2f[4-(\u6c2f\u7532\u57fa)\u82ef\u57fa]\u7845\u70f7", "en_name": ["Trichloro[4-(chloromethyl)phenyl]silane", "Benzene, 1-(chloromethyl)-4-(trichlorosilyl)-", "Silane, trichloro(\u03b1-chloro-p-tolyl)-", "Silane, trichloro[4-(chloromethyl)phenyl]-", "1-(Chloromethyl)-4-(trichlorosilyl)benzene", "[4-(Chloromethyl)phenyl]trichlorosilane", "Trichloro[4-(chloromethyl)phenyl]silane", "[p-(Chloromethyl)phenyl]trichlorosilane", "4-(Trichlorosilyl)benzyl chloride"], "SMILES": "[Si](Cl)(Cl)(Cl)C1=CC=C(CCl)C=C1", "physical_data": {"Molecular Weight": "260.02", "Molecular Formula": "C7H6Cl4Si", "Boiling Point": "142-144 \u00b0C @ Press: 15 Torr", "Density": "1.361 g/cm\u00b3"}}