{"cas_no": "13689-19-5", "cn_name": "\u4e09\u73af\u5df1\u57fa\u6c27\u81a6", "en_name": ["Tricyclohexylphosphine oxide", "Phosphine oxide, tricyclohexyl-", "Tricyclohexylphosphine oxide", "NSC 222417"], "SMILES": "P(=O)(C1CCCCC1)(C2CCCCC2)C3CCCCC3", "physical_data": {"Molecular Weight": "296.43", "Molecular Formula": "C18H33OP", "Melting Point": "155-157 \u00b0C"}}