{"cas_no": "13686-66-3", "cn_name": "\u4e8c\u7532\u57fa\u7845\u57fa\u4e8c\u4e59\u80fa", "en_name": ["N,N-Diethyl-1,1-dimethylsilanamine", "Silanamine, N,N-diethyl-1,1-dimethyl-", "Silylamine, N,N-diethyl-1,1-dimethyl-", "N,N-Diethyl-1,1-dimethylsilanamine", "Dimethylsilyldiethylamine"], "SMILES": "N([SiH](C)C)(CC)CC", "physical_data": {"Molecular Weight": "131.29", "Molecular Formula": "C6H17NSi", "Boiling Point": "112-112.5 \u00b0C", "Density": "0.7505 g/cm\u00b3 @ Temp: 20 \u00b0C"}}