{"cas_no": "13681-87-3", "cn_name": "\u4e8c\u4e59\u57fa\u4e8c\u786b\u7fb0\u6c28\u9178\u94dc\u76d0", "en_name": ["Bis(diethyldithiocarbamato)copper", "Copper, bis(diethylcarbamodithioato-\u03baS,\u03baS\u2032)-, (SP-4-1)-", "Copper, bis(diethyldithiocarbamato)-", "Copper, bis(diethylcarbamodithioato-S,S\u2032)-, (SP-4-1)-", "Carbamodithioic acid, diethyl-, copper(2+) salt", "Bis(diethyldithiocarbamato)copper", "Copper(II) diethyldithiocarbamate", "Bis(N,N-diethyldithiocarbamato)copper(II)", "Cupric diethyldithiocarbamate", "Copper bis(diethyldithiocarbamate)", "Copper(2+) diethyldithiocarbamate", "Bis(diethyldithiocarbamato)copper(II)", "Copper bis(N,N-diethyldithiocarbamate)", "Bis(N,N-diethyldithiocarbamato)copper", "Bis[N,N-diethyl(dithiocarbamato-S,S\u2032)]copper", "Accelerator CDC", "Carbamodithioic acid, diethyl-, copper(II) salt", "Copper(II) N,N-diethyldithiocarbamate", "Copper diethyldithiocarbamate", "NSC 177697", "Merkupral"], "SMILES": "N(CC)(CC)C=1[S-][Cu+2]2([S-]C(N(CC)CC)=[S]2)[S]1", "physical_data": {"Molecular Weight": "", "Molecular Formula": "C10H20CuN2S4", "Melting Point": "189-191 \u00b0C"}}