{"cas_no": "13682-99-0", "cn_name": "\u4e8c\u6c2f\u7532\u57fa\u620a\u57fa\u7845\u70f7", "en_name": ["Dichloromethylpentylsilane", "Silane, dichloromethylpentyl-", "Dichloromethylpentylsilane", "Methylpentyldichlorosilane", "Pentylmethyldichlorosilane", "Amylmethyldichlorosilane"], "SMILES": "C([Si](C)(Cl)Cl)CCCC", "physical_data": {"Molecular Weight": "185.17", "Molecular Formula": "C6H14Cl2Si", "Boiling Point": "170 \u00b0C", "Density": "0.999 g/cm\u00b3 @ Temp: 25 \u00b0C"}}