{"cas_no": "13686-51-6", "cn_name": "2-\u6eb4-1-\u8418-1-\u4e59\u916e", "en_name": ["2-Bromo-1-(1-naphthalenyl)ethanone", "Ethanone, 2-bromo-1-(1-naphthalenyl)-", "1\u2032-Acetonaphthone, 2-bromo-", "2-Bromo-1-(1-naphthalenyl)ethanone", "1-(Bromoacetyl)naphthalene", "\u03c9-Bromo-1-acetonaphthone", "Bromomethyl 1-naphthyl ketone", "2-Bromo-1-(1-naphthyl)ethanone", "2-Bromo-1-naphthalen-1-ylethanone", "2-Bromo-1-(naphthalen-1-yl)ethan-1-one"], "SMILES": "C(CBr)(=O)C=1C2=C(C=CC1)C=CC=C2", "physical_data": {"Molecular Weight": "249.10", "Molecular Formula": "C12H9BrO", "Boiling Point": "176-178 \u00b0C @ Press: 3 Torr", "Melting Point": "177-179 \u00b0C"}}