{"cas_no": "13680-35-8", "cn_name": "4,4'-\u4e9a\u7532\u57fa\u53cc(2,6-\u4e8c\u4e59\u57fa\u82ef\u80fa)", "en_name": ["4,4\u2032-Methylenebis[2,6-diethylaniline]", "Benzenamine, 4,4\u2032-methylenebis[2,6-diethyl-", "Aniline, 4,4\u2032-methylenebis[2,6-diethyl-", "4,4\u2032-Methylenebis[2,6-diethylbenzenamine]", "3,3\u2032,5,5\u2032-Tetraethyl-4,4\u2032-diaminodiphenylmethane", "4,4\u2032-Methylenebis[2,6-diethylaniline]", "4,4\u2032-Diamino-3,3\u2032,5,5\u2032-tetraethyldiphenylmethane", "Kayabond C 300", "Ethacure 208", "Kayabond C 300S", "Lonzacure M-DEA", "M-DEA", "C 300S", "Bis(3,5-diethyl-4-aminophenyl)methane", "Mosacure 310"], "SMILES": "C(C1=CC(CC)=C(N)C(CC)=C1)C2=CC(CC)=C(N)C(CC)=C2", "physical_data": {"Molecular Weight": "310.48", "Molecular Formula": "C21H30N2", "Melting Point": "88-90 \u00b0C", "Density": "1.35 g/cm\u00b3"}}