{"cas_no": "13684-63-4", "cn_name": "\u751c\u83dc\u5b81", "en_name": ["Phenmedipham", "Carbamic acid, N-(3-methylphenyl)-, 3-[(methoxycarbonyl)amino]phenyl ester", "Carbanilic acid, m-hydroxy-, methyl ester, m-methylcarbanilate (ester)", "Carbamic acid, (3-methylphenyl)-, 3-[(methoxycarbonyl)amino]phenyl ester", "Carbanilic acid, m-methyl-, ester with methyl m-hydroxycarbanilate", "Betanal", "Phenmedipham", "Methyl N-[3-[N\u2032-(3\u2032-methylphenyl)carbamoyloxy]phenyl]carbamate", "Methyl m-hydroxycarbanilate m-methylcarbanilate", "Methyl N-[3-[N-(3-methylphenyl)carbamoyloxy]phenyl]carbamate", "3-(Carbomethoxyamino)phenyl 3-methylcarbanilate", "3-[(Methoxycarbonyl)amino]phenyl N-(3-methylphenyl)carbamate", "Fenmedifam", "SN 38584", "Synbetan P", "Vangard", "Stepham", "Kemifam", "Kemifam FL", "Kontakt FCS", "Methyl 3-(m-tolylcarbamoyl)carbanilate", "Kontakt", "Kontakt (herbicide)", "Fenifan", "3-((Methoxycarbonyl)amino)phenyl m-tolylcarbamate", "Betasana"], "SMILES": "O(C(NC1=CC(C)=CC=C1)=O)C2=CC(NC(OC)=O)=CC=C2", "physical_data": {"Molecular Weight": "300.31", "Molecular Formula": "C16H16N2O4", "Melting Point": "143 \u00b0C"}}