{"cas_no": "13683-41-5", "cn_name": "(1-\u6eb4\u4e59\u70ef\u57fa)\u4e09\u7532\u7845\u70f7", "en_name": ["(1-Bromoethenyl)trimethylsilane", "Silane, (1-bromoethenyl)trimethyl-", "Silane, (1-bromovinyl)trimethyl-", "(1-Bromoethenyl)trimethylsilane", "1-Bromo-1-(trimethylsilyl)ethylene", "\u03b1-(Trimethylsilyl)vinyl bromide", "1-(Trimethylsilyl)vinyl bromide", "(1-Bromovinyl)trimethylsilane", "1-(Trimethylsilyl)ethenyl bromide", "(\u03b1-Bromovinyl)trimethylsilane", "1-Bromo-1-(trimethylsilyl)ethene"], "SMILES": "[Si](C(Br)=C)(C)(C)C", "physical_data": {"Molecular Weight": "179.13", "Molecular Formula": "C5H11BrSi", "Boiling Point": "55-57 \u00b0C @ Press: 80 Torr", "Density": "1.163 g/cm\u00b3"}}