{"cas_no": "13684-56-5", "cn_name": "[3-[[(\u82ef\u57fa\u6c28\u57fa)\u7532\u9170\u57fa]\u6c27]\u82ef\u57fa]\u6c28\u57fa\u7532\u9178\u4e59\u916f", "en_name": ["Desmedipham", "Carbamic acid, N-[3-[[(phenylamino)carbonyl]oxy]phenyl]-, ethyl ester", "Carbanilic acid, m-hydroxy-, ethyl ester, carbanilate (ester)", "Carbamic acid, [3-[[(phenylamino)carbonyl]oxy]phenyl]-, ethyl ester", "Ethyl m-hydroxycarbanilate carbanilate", "EP 475", "Ethyl N-[3-(N-phenylcarbamoyloxy)phenyl]carbamate", "Desmedipham", "3-Ethoxycarbonylaminophenyl N-phenylcarbamate", "Betanex", "EP 475 (pesticide)", "Synbetan D", "DMP Stefes", "SN 38107", "Destor"], "SMILES": "O(C(NC1=CC=CC=C1)=O)C2=CC(NC(OCC)=O)=CC=C2", "physical_data": {"Molecular Weight": "300.31", "Molecular Formula": "C16H16N2O4", "Melting Point": "120 \u00b0C"}}