{"cas_no": "13688-56-7", "cn_name": "\u7532\u57fa\u4e19\u70ef\u9178\u4e09\u7532\u57fa\u7845\u916f", "en_name": ["Trimethylsilyl methacrylate", "2-Propenoic acid, 2-methyl-, trimethylsilyl ester", "Methacrylic acid, trimethylsilyl ester", "Silanol, trimethyl-, methacrylate", "Trimethylsilyl methacrylate", "T 3633", "Trimethylsilyl 2-methylacrylate"], "SMILES": "C(O[Si](C)(C)C)(C(C)=C)=O", "physical_data": {"Molecular Weight": "158.27", "Molecular Formula": "C7H14O2Si", "Boiling Point": "43-58 \u00b0C @ Press: 23 Torr", "Density": "0.885 g/cm\u00b3"}}