{"cas_no": "136817-59-9", "cn_name": "\u5730\u62c9\u97e6\u5576", "en_name": ["Delavirdine", "Methanesulfonamide, N-[2-[[4-[3-[(1-methylethyl)amino]-2-pyridinyl]-1-piperazinyl]carbonyl]-1H-indol-5-yl]-", "Piperazine, 1-[3-[(1-methylethyl)amino]-2-pyridinyl]-4-[[5-[(methylsulfonyl)amino]-1H-indol-2-yl]carbonyl]-", "N-[2-[[4-[3-[(1-Methylethyl)amino]-2-pyridinyl]-1-piperazinyl]carbonyl]-1H-indol-5-yl]methanesulfonamide", "U 90152", "1-[3-(Isopropylamino)-2-pyridyl]-4-[(5-methanesulfonamidoindol-2-yl)carbonyl]piperazine", "Delavirdine", "2-[4-(5-Methanesulfonamido-1H-indol-2-ylcarbonyl)-1-piperazinyl]-N-(1-methylethyl)-3-pyridinamine", "BHAP-U 90152", "MeSH ID: D020008"], "SMILES": "N(C(C)C)C1=C(N=CC=C1)N2CCN(C(=O)C3=CC=4C(N3)=CC=C(NS(C)(=O)=O)C4)CC2", "physical_data": {"Molecular Weight": "456.56", "Molecular Formula": "C22H28N6O3S", "Melting Point": "226-228 \u00b0C"}}