{"cas_no": "13689-20-8", "cn_name": "\u73af\u5df1\u57fa\u53cc\u82ef\u81a6\u6c27\u5316\u7269", "en_name": ["Cyclohexyldiphenylphosphine oxide", "Phosphine oxide, cyclohexyldiphenyl-", "Cyclohexyldiphenylphosphine oxide", "Diphenylcyclohexylphosphine oxide", "[Cyclohexyl(phenyl)phosphoryl]benzene"], "SMILES": "P(=O)(C1CCCCC1)(C2=CC=CC=C2)C3=CC=CC=C3", "physical_data": {"Molecular Weight": "284.33", "Molecular Formula": "C18H21OP", "Melting Point": "165-166 \u00b0C"}}