{"cas_no": "13697-89-7", "cn_name": "2,6-\u4e8c\u6c1f\u7898\u82ef", "en_name": ["1,3-Difluoro-2-iodobenzene", "Benzene, 1,3-difluoro-2-iodo-", "1,3-Difluoro-2-iodobenzene", "2,6-Difluoroiodobenzene", "1-Iodo-2,6-difluorobenzene"], "SMILES": "IC1=C(F)C=CC=C1F", "physical_data": {"Molecular Weight": "239.99", "Molecular Formula": "C6H3F2I", "Boiling Point": "55-56 \u00b0C @ Press: 8 Torr", "Melting Point": "24.5-26.5 \u00b0C"}}