{"cas_no": "13692-14-3", "cn_name": "2,4-\u4e8c\u6c2f-\u03b1-\u6c2f\u7532\u57fa\u82ef\u7532\u9187", "en_name": ["2,4-Dichloro-\u03b1-(chloromethyl)benzenemethanol", "Benzenemethanol, 2,4-dichloro-\u03b1-(chloromethyl)-", "Benzyl alcohol, 2,4-dichloro-\u03b1-(chloromethyl)-", "2,4-Dichloro-\u03b1-(chloromethyl)benzenemethanol", "2,4-Dichloro-\u03b1-(chloromethyl)benzyl alcohol", "\u03b1-(2,4-Dichlorophenyl)-\u03b2-chloroethanol", "\u03b1-(Chloromethyl)-2,4-dichlorobenzyl alcohol", "2-Chloro-1-(2,4-dichlorophenyl)ethanol", "2,4-Dichloro-\u03b1-chloromethylbenzenemethanol", "2-Chloro-1-(2,4-dichlorophenyl)ethan-1-ol"], "SMILES": "C(CCl)(O)C1=C(Cl)C=C(Cl)C=C1", "physical_data": {"Molecular Weight": "225.50", "Molecular Formula": "C8H7Cl3O", "Melting Point": "47-49 \u00b0C"}}