{"cas_no": "13698-49-2", "cn_name": "\u918b\u9178\u5730\u9a6c\u5b55\u916e", "en_name": ["Delmadinone acetate", "Pregna-1,4,6-triene-3,20-dione, 17-(acetyloxy)-6-chloro-", "Pregna-1,4,6-triene-3,20-dione, 6-chloro-17-hydroxy-, acetate", "17-(Acetyloxy)-6-chloropregna-1,4,6-triene-3,20-dione", "\u03941-Chlormadinone acetate", "17\u03b1-Acetoxy-6-chloropregna-1,4,6-triene-3,20-dione", "17-Acetoxy-6-chloropregna-1,4,6-triene-3,20-dione", "Delmadinone acetate", "6-Chloro-17-hydroxypregna-1,4,6-triene-3,20-dione acetate", "Estrex", "Tardastrex", "Delminal", "Tarden", "RS 1301", "Zenadrex"], "SMILES": "O(C(C)=O)C1(C(C)=O)C2(C)C(CC1)C3C(CC2)C4(C)C(C(Cl)=C3)=CC(=O)C=C4", "physical_data": {"Molecular Weight": "402.91", "Molecular Formula": "C23H27ClO4", "Melting Point": "168 \u00b0C"}}