{"cas_no": "13695-31-3", "cn_name": "\u7532\u57fa\u4e19\u70ef\u9178-2,2,3,3,4,4,4-\u4e03\u6c1f\u4ee3-\u4e01\u916f", "en_name": ["2,2,3,3,4,4,4-Heptafluorobutyl 2-methyl-2-propenoate", "2-Propenoic acid, 2-methyl-, 2,2,3,3,4,4,4-heptafluorobutyl ester", "Methacrylic acid, 2,2,3,3,4,4,4-heptafluorobutyl ester", "1-Butanol, 2,2,3,3,4,4,4-heptafluoro-, methacrylate", "2,2,3,3,4,4,4-Heptafluorobutyl 2-methyl-2-propenoate", "2,2,3,3,4,4,4-Heptafluorobutyl methacrylate", "2,2,3,3,4,4,4-Hexafluorobutyl methacrylate", "1H,1H-Heptafluorobutyl methacrylate", "2,2,3,3,4,4,4-Heptafluorobutyl 2-methylprop-2-enoate"], "SMILES": "C(C(COC(C(C)=C)=O)(F)F)(C(F)(F)F)(F)F", "physical_data": {"Molecular Weight": "268.13", "Molecular Formula": "C8H7F7O2", "Boiling Point": "55-56 \u00b0C @ Press: 30 Torr"}}