{"cas_no": "137-06-4", "cn_name": "2-\u5def\u57fa\u7532\u82ef", "en_name": ["2-Methylbenzenethiol", "Benzenethiol, 2-methyl-", "o-Toluenethiol", "2-Methylbenzenethiol", "o-Thiocresol", "o-Methylbenzenethiol", "o-Methylthiophenol", "2-Methylthiophenol", "o-Mercaptotoluene", "2-Toluenethiol", "o-Tolyl mercaptan", "2-Methylphenylthiol", "o-Tolylthiol", "NSC 80655", "2-Methylbenzothiol", "2-Methylbenzene-1-thiol"], "SMILES": "CC1=C(S)C=CC=C1", "physical_data": {"Molecular Weight": "124.20", "Molecular Formula": "C7H8S", "Boiling Point": "195 \u00b0C", "Melting Point": "15 \u00b0C", "Density": "1.041 g/cm\u00b3 @ Temp: 20 \u00b0C"}}