{"cas_no": "137-05-3", "cn_name": "\u03b1-\u6c30\u57fa\u4e19\u70ef\u9178\u7532\u916f", "en_name": ["Methyl cyanoacrylate", "2-Propenoic acid, 2-cyano-, methyl ester", "Acrylic acid, 2-cyano-, methyl ester", "ADhere", "\u03b1-Cyanoacrylic acid methyl ester", "Eastman 910", "Methyl \u03b1-cyanoacrylate", "Methyl 2-cyanoacrylate", "Mecrylate", "Methyl cyanoacrylate", "2-Cyanoacrylic acid methyl ester", "Mecrilat", "Cyanobond SS", "Cemedine 3000", "Cemedine 3000 Type-II", "CA 7 (adhesive)", "CA 7", "Cemedine 3000DX", "Sicomet 7000", "Mecrilate", "Fimofix P 1048", "Cyanobond 5000", "Three Bond 1701", "Eastman 910 Super Glue", "Wipescar"], "SMILES": "C(C(OC)=O)(C#N)=C", "physical_data": {"Molecular Weight": "111.10", "Molecular Formula": "C5H5NO2", "Boiling Point": "47-49 \u00b0C @ Press: 1.8 Torr", "Melting Point": "-40 \u00b0C", "Density": "1.1044 g/cm\u00b3 @ Temp: 27 \u00b0C"}}