{"cas_no": "137-44-0", "cn_name": "\u4e8c\u6c2b\u5421\u5511\u916e", "en_name": ["5-Pyrazolone", "3H-Pyrazol-3-one, 2,4-dihydro-", "2-Pyrazolin-5-one", "2,4-Dihydro-3H-pyrazol-3-one", "5-Pyrazolone", "1H-Pyrazol-5(4H)-one", "NSC 243823", "1,4-Dihydropyrazol-5-one"], "SMILES": "O=C1CC=NN1", "physical_data": {"Molecular Weight": "84.08", "Molecular Formula": "C3H4N2O", "Boiling Point": "143-144 \u00b0C @ Press: 0.3 Torr", "Melting Point": "268 \u00b0C"}}