{"cas_no": "137-26-8", "cn_name": "\u798f\u7f8e\u53cc", "en_name": ["Tetramethylthiuram disulfide", "Thioperoxydicarbonic diamide ([(H2N)C(S)]2S2), N,N,N\u2032,N\u2032-tetramethyl-", "Disulfide, bis(dimethylthiocarbamoyl)", "Thioperoxydicarbonic diamide ([(H2N)C(S)]2S2), tetramethyl-", "SQ 1489", "Accelerator Thiuram", "Aceto TETD", "Arasan M", "Arasan", "Arasan-SF", "Bis(dimethylthiocarbamoyl) disulfide", "Bis(dimethylthiocarbamyl) disulfide", "Fernasan", "Fernasan A", "Hermal", "Heryl", "Mercuram", "Methyl Thiram", "Normersan", "Panoram 75", "Pomarsol", "Pomasol", "Puralin", "Rezifilm", "Royal TMTD", "Spotrete", "Tersan", "Tetramethylthiuram bisulfide", "N,N,N\u2032,N\u2032-Tetramethylthiuram disulfide", "Tetramethylthiuram disulphide", "Tetramethylthiuram disulfide", "Thiosan", "Thiram", "Thiram 75", "Thiurad", "Thiuram", "Thiuram M", "Thiuram disulfide, tetramethyl-", "Thiuramyl", "Tiuramyl", "TMTD", "TMTDS", "Thylate", "Tridipam", "Tuads", "Tulisan", "Arasan 75", "Fernide", "Kregasan", "Polyram ultra", "Sadoplon", "Tetrasipton", "Thiulin", "Tripomol", "VUAgT-I-4", "Thiuram D", "Thiotox", "Thillate", "Arasan 42S", "Thirasan", "Arasan 70", "Ekagom TB", "Nobecutan", "Vulcafor TMTD", "Vulkacit Th", "Sadoplon 75", "Accelerator T", "Trametan", "Hexathir", "Zaprawa Nasienna T", "Aatiram", "Thiram 80", "Vulcafor TMT", "Vulkacit thiuram", "Hermat TMT", "Thiram B", "AApirol", "Atiram", "Falitiram", "Formalsol", "Thioscabin", "Arasan 70-S Red", "Tutan", "Accel TMT", "Tyradin", "Tersan 75", "Pol-Thiuram", "TMT", "TUEX", "Tigam", "Rhenogran TMTD", "Metiurac", "Nocceler TT", "Rhodiauram", "Thiotox (fungicide)", "Accelerant T", "Ferna-Col", "Methyl Tuads", "Arasan 50 red", "Radothiram", "Radotiram", "Thiride", "Thiuram TMTD", "Tetramethylthioperoxydicarbonic diamide", "Zupa S 80", "Betoxin", "Robac TMT", "Pomarsol Forte", "Delsan", "Basultra", "Anles", "Tiradin", "Soxinol TT", "Tirama", "Sanceler TT", "T 30", "Metiur", "Tirep", "Emol", "Cunitex", "Tripomol 80", "Vulkacit Thiuram C", "SOX TT", "Orac TMTD", "NSC 1771", "Vulkafil ZN 96TT09", "Thiuramin", "Vulkacit DTMT", "Perkacit TMTD", "Nomersan", "ENT 987", "NSC 49512", "NSC 59637", "NSC 622696", "Vulkacit Thiuram TMTD", "Thiuram MDP", "Accel TT", "Vulkazit Thiuram", "TT", "Vulkazam S", "Vulkafil TMTD", "Bis(dimethylaminothiocarbonyl) disulfide", "Rhenogran TMTD 80", "Granuflo", "Oricel TT", "Super Accelerator 501", "Nocceler TT-P", "Noxela TTP", "Rhenogran TMTD 75", "Preventol VPOC 3480", "Chew-Nott", "Bis(dimethylthiocarbamyl) sulfide", "Vulkacit TMTD", "Sanceler TT-PO", "Nocceler TT-PO", "Accelerator TT", "TMTD-II", "Accel TMT-PO", "Rhenogran TMTD 70", "TMTD 80", "Nocceler TT-P(TT)", "Royal Flo", "Thiram Granuflo 80WG", "Accelerator TMTD", "Accelerant TMTD", "Thiram Granuflo", "Seedon", "M 05833", "Nocceler TMTD", "Thianosan", "DIMACIT TMTD-PDR-D", "SH 167432", "Sanceler EM 2", "Rhenogran TMTD/C"], "SMILES": "C(N(C)C)(SSC(N(C)C)=S)=S", "physical_data": {"Molecular Weight": "240.43", "Molecular Formula": "C6H12N2S4", "Boiling Point": "129 \u00b0C @ Press: 20 Torr", "Melting Point": "155-156 \u00b0C", "Density": "1.29 g/cm\u00b3 @ Temp: 20 \u00b0C"}}