{"cas_no": "137-30-4", "cn_name": "\u798f\u7f8e\u950c", "en_name": ["Ziram", "Zinc, bis(N,N-dimethylcarbamodithioato-\u03baS,\u03baS\u2032)-, (T-4)-", "Zinc, bis(dimethyldithiocarbamato)-", "Zinc, bis(dimethylcarbamodithioato-S,S\u2032)-, (T-4)-", "Zinc, bis(dimethylcarbamodithioato-\u03baS,\u03baS\u2032)-, (T-4)-", "Carbamodithioic acid, dimethyl-, zinc complex", "(T-4)-Bis(N,N-dimethylcarbamodithioato-\u03baS,\u03baS\u2032)zinc", "Accelerator L", "Aceto ZDED", "Aceto ZDMD", "Alcobam ZM", "Corona Corozate", "Corozate", "Eptac 1", "Fuclasin", "Fuklasin", "Karbam White", "Methasan", "Methazate", "Methyl Ziram", "Milbam", "Orchard brand Ziram", "Vulcacure ZM", "Zerlate", "Zimate", "Zinc dimethyldithiocarbamate", "Ziram", "Zirberk", "Bis(dimethyldithiocarbamato)zinc", "Cuman", "Rhodiacid", "Z 75", "Soxinol PZ", "Molurame", "Methyl zimate", "Carbamodithioic acid, dimethyl-, zinc salt", "Methyl zineb", "Soxinal PZ", "Zinc bis(dimethyldithiocarbamate)", "Pomarzol Z-forte", "Vulkacit L", "Vulkacite L", "Cymate", "Carbazinc", "Hermat ZDM", "Hexazir", "Aavolex", "Aazira", "Fuclasin-Ultra", "Zarlate", "Cuman L", "Z-C Spray", "Aaprotect", "Zirthane", "Mycronil", "Crittam", "Rodisan", "Mezene", "Nocceler PZ", "Trikagol", "Ziride", "Ziradin", "Fulasin", "Sanceler PZ", "ZnMDC", "PZ", "ZDMC", "Zirol", "NSC 737", "Octocure ZDM 50", "Perkacit ZDMC", "Ancazate ME", "Accelerator MZ Powder", "Accelerator MZX", "Vancide MZ 96", "Ultra Zinc DMC", "Rhenogran ZDMC 80", "ZDMC 80", "Accelerator PZ", "Accel PZ", "Carbamodithioic acid, N,N-dimethyl-, zinc salt (2:1)", "Zinc, bis(N,N-dimethylcarbamodithioato-\u03baS)-", "Korit 420 FS", "Korit Pro", "Korit"], "SMILES": "N(C)(C)C=1[S-][Zn+2]2([S-]C(N(C)C)=[S]2)[S]1", "physical_data": {"Molecular Weight": "", "Molecular Formula": "C6H12N2S4Zn", "Melting Point": "246 \u00b0C", "Density": "1.7 g/cm\u00b3"}}