{"cas_no": "137-03-1", "cn_name": "2-\u5e9a\u57fa\u73af\u620a\u916e", "en_name": ["2-Heptylcyclopentanone", "Cyclopentanone, 2-heptyl-", "2-Heptylcyclopentanone", "Alismone", "2-(n-Heptyl)cyclopentanone", "2-Heptylcyclopentan-1-one", "NSC 78468", "Fleuramone", "Projasmone P"], "SMILES": "C(CCCCCC)C1C(=O)CCC1", "physical_data": {"Molecular Weight": "182.30", "Molecular Formula": "C12H22O", "Boiling Point": "130 \u00b0C @ Press: 10 Torr", "Density": "0.8871 g/cm\u00b3 @ Temp: 20 \u00b0C"}}