{"cas_no": "137-08-6", "cn_name": "D-\u6cdb\u9178\u9499", "en_name": ["Calcium pantothenate", "\u03b2-Alanine, N-[(2R)-2,4-dihydroxy-3,3-dimethyl-1-oxobutyl]-, calcium salt (2:1)", "Pantothenic acid, calcium salt (2:1), D-", "\u03b2-Alanine, N-(2,4-dihydroxy-3,3-dimethyl-1-oxobutyl)-, calcium salt (2:1), (R)-", "Calcium, bis(pantothenato)-", "Calcium D-(+)-N-(\u03b1,\u03b3-dihydroxy-\u03b2,\u03b2-dimethylbutyryl)-\u03b2-alaninate", "Calpanate", "Dextro calcium pantothenate", "N-(2,4-Dihydroxy-3,3-dimethylbutyryl)-\u03b2-alanine calcium", "Pancal", "Panthoject", "Pantholin", "Pantothenate calcium", "(+)-Pantothenic acid calcium salt", "Calcium pantothenate", "Pantothenic acid calcium salt", "Vitamin B5 calcium salt", "Calcium D-pantothenate", "Calcium D-(+)-pantothenate", "Pantothenic acid hemicalcium salt", "Calpan", "NSC 36292", "Panthothenic acid hemicalcium salt", "D-Pantothenic acid hemicalcium salt"], "SMILES": "C(C(CO)(C)C)(C(NCCC(O)=O)=O)O.[Ca]", "physical_data": {"Molecular Weight": "", "Molecular Formula": "C9H17NO5.<sup>1</sup>/2Ca", "Melting Point": "195-196 \u00b0C (decomp)"}}