{"cas_no": "137-97-3", "cn_name": "N,N'-\u4e8c\u90bb\u7532\u82ef\u57fa\u786b\u8132", "en_name": ["N,N\u2032-Bis(2-methylphenyl)thiourea", "Thiourea, N,N\u2032-bis(2-methylphenyl)-", "Carbanilide, 2,2\u2032-dimethylthio-", "N,N\u2032-Bis(2-methylphenyl)thiourea", "Di-o-tolylthiourea", "sym-Di-o-tolylthiourea", "N,N\u2032-Di-o-tolylthiourea", "1,3-Di-o-tolylthiourea", "1,3-Bis(o-tolyl)thiourea", "NSC 119321", "NSC 37140", "1,3-Bis(2-methylphenyl)thiourea", "Accelerator DOTU"], "SMILES": "N(C(NC1=C(C)C=CC=C1)=S)C2=C(C)C=CC=C2", "physical_data": {"Molecular Weight": "256.37", "Molecular Formula": "C15H16N2S", "Melting Point": "161 \u00b0C"}}