{"cas_no": "137-64-4", "cn_name": "2 -\u6c2f-5-(\u6c2f\u78fa\u9170\u57fa)\u82ef\u7532\u9178", "en_name": ["2-Chloro-5-(chlorosulfonyl)benzoic acid", "Benzoic acid, 2-chloro-5-(chlorosulfonyl)-", "2-Chloro-5-(chlorosulfonyl)benzoic acid", "3-Carboxy-4-chlorobenzenesulfonyl chloride", "NSC 137839", "5-Chlorosulfonyl-2-chlorobenzoic acid"], "SMILES": "C(O)(=O)C1=CC(S(Cl)(=O)=O)=CC=C1Cl", "physical_data": {"Molecular Weight": "255.08", "Molecular Formula": "C7H4Cl2O4S", "Melting Point": "61-62 \u00b0C"}}