{"cas_no": "137-29-1", "cn_name": "\u6a61\u80f6\u4fc3\u8fdb\u5242 CDD", "en_name": ["Copper dimethyldithiocarbamate", "Copper, bis(dimethylcarbamodithioato-\u03baS,\u03baS\u2032)-, (SP-4-1)-", "Copper, bis(dimethyldithiocarbamato)-", "Copper, bis(dimethylcarbamodithioato-S,S\u2032)-, (SP-4-1)-", "Carbamodithioic acid, dimethyl-, copper complex", "(SP-4-1)-Bis(dimethylcarbamodithioato-\u03baS,\u03baS\u2032)copper", "Cumate", "Wolfen", "Carbamodithioic acid, dimethyl-, copper(2+) salt", "Copper dimethyldithiocarbamate", "Copper(II) dimethyldithiocarbamate", "Dimethyldithiocarbamatocopper", "Copper bis(dimethyldithiocarbamate)", "Copper(2+) dimethyldithiocarbamate", "Hermat Cu", "Bis(dimethyldithiocarbamato)copper", "Bis[N,N-dimethyl(dithiocarbamato-S,S\u2032)]copper", "Cupric N,N-dimethyldithiocarbamate", "Bis(dimethyldithiocarbamato)copper(II)", "Nocceler TTCU", "NSC 32947", "Sanceler TT-CU", "Accelerator TTCU", "CDDC"], "SMILES": "N(C)(C)C=1[S-][Cu+2]2([S-]C(N(C)C)=[S]2)[S]1", "physical_data": {"Molecular Weight": "", "Molecular Formula": "C6H12CuN2S4", "Melting Point": "260 \u00b0C (decomp)", "Density": "1.75 g/cm\u00b3"}}