{"cas_no": "137-00-8", "cn_name": "4-\u7532\u57fa-5-(beta-\u7f9f\u4e59\u57fa)\u567b\u5511", "en_name": ["4-Methyl-5-(2-hydroxyethyl)thiazole", "5-Thiazoleethanol, 4-methyl-", "4-Methyl-5-thiazoleethanol", "5-(2-Hydroxyethyl)-4-methylthiazole", "4-Methyl-5-(\u03b2-hydroxyethyl)thiazole", "4-Methyl-5-(2-hydroxyethyl)thiazole", "MHT", "5-(Hydroxyethyl)-4-methylthiazole", "2-(4-Methylthiazole-5-yl)ethanol", "5-(\u03b2-Hydroxyethyl)-4-methylthiazole", "Sulfurol", "2-(4-Methyl-5-thiazolyl)ethanol", "4-Methyl-5-thiazolylethanol", "2-(4-Methyl-1,3-thiazol-5-yl)ethanol", "NSC 23262", "NSC 41831", "Hemineurine", "4-Methyl-5-(2-thiazoleethanol)", "2-(4-Methyl-1,3-thiazol-5-yl)ethan-1-ol"], "SMILES": "C(CO)C1=C(C)N=CS1", "physical_data": {"Molecular Weight": "143.21", "Molecular Formula": "C6H9NOS", "Boiling Point": "135 \u00b0C", "Melting Point": "&lt;25 \u00b0C", "Density": "1.196 g/cm\u00b3 @ Temp: 24 \u00b0C"}}