{"cas_no": "137-43-9", "cn_name": "\u6eb4\u4ee3\u73af\u620a\u70f7", "en_name": ["Cyclopentyl bromide", "Cyclopentane, bromo-", "Bromocyclopentane", "Cyclopentyl bromide", "NSC 1110", "2-Bromocyclopentane", "4-Bromocyclopentane"], "SMILES": "BrC1CCCC1", "physical_data": {"Molecular Weight": "149.03", "Molecular Formula": "C5H9Br", "Boiling Point": "137.5 \u00b0C", "Density": "1.38500122070313 g/cm\u00b3 @ Temp: 19 \u00b0C"}}