{"cas_no": "137-47-3", "cn_name": "4-\u6c2f-3-\u785d\u57fa-N,N-\u4e8c\u7532\u57fa\u82ef\u78fa\u9170\u80fa", "en_name": ["4-Chloro-N,N-dimethyl-3-nitrobenzenesulfonamide", "Benzenesulfonamide, 4-chloro-N,N-dimethyl-3-nitro-", "4-Chloro-N,N-dimethyl-3-nitrobenzenesulfonamide", "N,N-Dimethyl-3-nitro-4-chlorobenzenesulfonamide", "N,N-Dimethyl-4-chloro-3-nitrobenzenesulfonamide", "5-(Dimethylsulfamoyl)-2-chloronitrobenzene", "NSC 231629"], "SMILES": "S(N(C)C)(=O)(=O)C1=CC(N(=O)=O)=C(Cl)C=C1", "physical_data": {"Molecular Weight": "264.69", "Molecular Formula": "C8H9ClN2O4S", "Melting Point": "99-100 \u00b0C"}}