{"cas_no": "137-88-2", "cn_name": "\u76d0\u9178\u6c28\u4e19\u5549", "en_name": ["Amprolium hydrochloride", "Pyridinium, 1-[(4-amino-2-propyl-5-pyrimidinyl)methyl]-2-methyl-, chloride, hydrochloride (1:1:1)", "2-Picolinium, 1-[(4-amino-2-propyl-5-pyrimidinyl)methyl]-, chloride, monohydrochloride", "Pyridinium, 1-[(4-amino-2-propyl-5-pyrimidinyl)methyl]-2-methyl-, chloride, monohydrochloride", "1-(4-Amino-2-propyl-5-pyrimidinylmethyl)-2-methylpyridinium chloride hydrochloride", "1-(4-Amino-2-n-propyl-5-pyrimidinylmethyl)-2-picolinium chloride hydrochloride", "Amprol", "Mepyrium", "Amprol 25", "Amprolium hydrochloride", "Thiacoccid", "Amdon"], "SMILES": "C(C=1C(N)=NC(CCC)=NC1)[N+]=2C(C)=CC=CC2.[Cl-].Cl", "physical_data": {"Molecular Weight": "", "Molecular Formula": "C14H19N4.ClH.Cl", "Melting Point": "246-247 \u00b0C"}}