{"cas_no": "137-19-9", "cn_name": "4,6-\u4e8c\u6c2f\u95f4\u82ef\u4e8c\u915a", "en_name": ["4,6-Dichlororesorcinol", "1,3-Benzenediol, 4,6-dichloro-", "Resorcinol, 4,6-dichloro-", "4,6-Dichloro-1,3-benzenediol", "4,6-Dichlororesorcinol", "4,6-Dichlororesorcin", "1,5-Dichloro-2,4-dihydroxybenzene", "NSC 60650"], "SMILES": "ClC1=C(O)C=C(O)C(Cl)=C1", "physical_data": {"Molecular Weight": "179.00", "Molecular Formula": "C6H4Cl2O2", "Boiling Point": "254 \u00b0C", "Melting Point": "113 \u00b0C"}}