{"cas_no": "137-40-6", "cn_name": "\u4e19\u9178\u94a0", "en_name": ["Sodium propionate", "Propanoic acid, sodium salt (1:1)", "Propionic acid, sodium salt", "Propanoic acid, sodium salt", "Impedex", "Mycoban", "Napropion", "Ocuseptine", "Sodium propionate", "Whit-Pro", "Bioban-S", "Sodium propanoate", "Deketon", "Propiofar", "Propion", "Propi-Ophtal", "Propisol", "Sodium ethanecarboxylate"], "SMILES": "C(CC)(O)=O.[Na]", "physical_data": {"Molecular Weight": "", "Molecular Formula": "C3H6O2.Na", "Melting Point": "298 \u00b0C"}}