{"cas_no": "137-18-8", "cn_name": "2,5-\u4e8c\u7532\u57fa-\u5bf9\u82ef\u918c", "en_name": ["2,5-Dimethyl-p-benzoquinone", "2,5-Cyclohexadiene-1,4-dione, 2,5-dimethyl-", "p-Benzoquinone, 2,5-dimethyl-", "2,5-Dimethyl-2,5-cyclohexadiene-1,4-dione", "Phlorone", "p-Xyloquinone", "2,5-Dimethyl-p-benzoquinone", "2,5-Dimethyl-1,4-benzoquinone", "2,5-Dimethylbenzoquinone", "3,6-Dimethyl-p-benzoquinone", "2,5-Xyloquinone", "2,5-Dimethyl-p-quinone", "DMBQ", "NSC 15309", "NCI 15309", "NSC 36547", "NSC 37558"], "SMILES": "CC=1C(=O)C=C(C)C(=O)C1", "physical_data": {"Molecular Weight": "136.15", "Molecular Formula": "C8H8O2", "Melting Point": "123.5-125 \u00b0C"}}