{"cas_no": "137-07-5", "cn_name": "2-\u6c28\u57fa\u82ef\u786b\u9187", "en_name": ["2-Aminothiophenol", "Benzenethiol, 2-amino-", "Benzenethiol, o-amino-", "2-Aminobenzenethiol", "o-Aminobenzenethiol", "o-Aminothiophenol", "2-Aminothiophenol", "o-Mercaptoaniline", "2-Mercaptoaniline", "1-Amino-2-mercaptobenzene", "o-Aminophenyl mercaptan", "2-Aminophenyl mercaptan", "2-Amino-1-mercaptobenzene", "\u03b1-Aminothiophenol", "2-Thioaniline", "NSC 106635"], "SMILES": "NC1=C(S)C=CC=C1", "physical_data": {"Molecular Weight": "125.19", "Molecular Formula": "C6H7NS", "Boiling Point": "234 \u00b0C", "Melting Point": "26 \u00b0C"}}