{"cas_no": "137-65-5", "cn_name": "2-\u6c28\u57fa\u82ef\u7532\u9178-5-\u78fa\u9170\u80fa", "en_name": ["2-Amino-5-(aminosulfonyl)benzoic acid", "Benzoic acid, 2-amino-5-(aminosulfonyl)-", "Anthranilic acid, 5-sulfamoyl-", "2-Amino-5-(aminosulfonyl)benzoic acid", "5-Sulfamoylanthranilic acid", "2-Amino-5-(aminosulphonyl)benzoic acid", "2-Amino-5-sulfamoylbenzoic acid"], "SMILES": "C(O)(=O)C1=CC(S(N)(=O)=O)=CC=C1N", "physical_data": {"Molecular Weight": "216.21", "Molecular Formula": "C7H8N2O4S", "Melting Point": "246 \u00b0C (decomp)"}}