{"cas_no": "137-58-6", "cn_name": "\u5229\u591a\u5361\u56e0", "en_name": ["Lidocaine", "Acetamide, 2-(diethylamino)-N-(2,6-dimethylphenyl)-", "2\u2032,6\u2032-Acetoxylidide, 2-(diethylamino)-", "2-(Diethylamino)-N-(2,6-dimethylphenyl)acetamide", "\u03b1-Diethylamino-2,6-acetoxylidide", "2-(Diethylamino)-2\u2032,6\u2032-acetoxylidide", "Isicaine", "Leostesin", "Lidocaine", "Lignocaine", "Maricaine", "Rucaina", "Xycaine", "Xylocaine", "Xylocitin", "Duncaine", "Xylestesin", "Anestacon", "Solcain", "Xylocain", "Isicaina", "Xilina", "Xyline", "Remicaine", "Medicaine", "Jetocaine", "Lidoderm", "Cuivasil", "Dalcaine", "Solarcaine", "Lida-Mantle", "NSC 40030", "Lidocadren", "Esracaine", "Penles", "LMX", "ELA-Max", "Aritmal", "Trachisan", "Linisol", "Xylovet", "Versatis", "Xybrex", "LidoPosterine", "Lidocain", "Anesta", "PSD 597", "MeSH ID: D008012"], "SMILES": "N(C(CN(CC)CC)=O)C1=C(C)C=CC=C1C", "physical_data": {"Molecular Weight": "234.34", "Molecular Formula": "C14H22N2O", "Boiling Point": "159-160 \u00b0C @ Press: 2 Torr", "Melting Point": "68.5 \u00b0C"}}