{"cas_no": "137-66-6", "cn_name": "L-\u6297\u574f\u8840\u9178\u68d5\u6988\u9178\u916f", "en_name": ["Ascorbyl palmitate", "L-Ascorbic acid, 6-hexadecanoate", "L-Ascorbic acid, 6-palmitate", "Palmitic acid, 6-ester with ascorbic acid", "Palmitoyl L-ascorbic acid", "Ascorbyl palmitate", "Ascorbylpalmitic acid", "L-Ascorbyl palmitate", "Ascorbyl monopalmitate", "6-Monopalmitoyl-L-ascorbate", "Ascorbic palmitate", "6-O-Palmitoylascorbic acid", "6-Palmitoylascorbic acid", "Ascorbic acid palmitate", "Cetyl ascorbate", "Ondascora", "Quicifal", "L-Ascorbyl 6-palmitate", "6-Hexadecanoyl-L-ascorbic acid", "L-Ascorbyl monopalmitate", "Ascorbyl 6-palmitate", "Ascorboyl palmitate", "Ascorbic acid 6-palmitate", "6-Palmitate-L-ascorbic acid", "6-O-Palmitoyl-L-ascorbic acid", "6-O-Palmitoyl-L-ascorbic acid", "NSC 402451", "VCP 10", "E 304", "Vcpal", "Grindox 562", "AP", "Coa-ASC 16"], "SMILES": "C(COC(CCCCCCCCCCCCCCC)=O)(O)C1OC(=O)C(O)=C1O", "physical_data": {"Molecular Weight": "414.53", "Molecular Formula": "C22H38O7", "Melting Point": "116 \u00b0C"}}