{"cas_no": "137-04-2", "cn_name": "\u90bb\u6c2f\u82ef\u80fa\u76d0\u9178\u76d0", "en_name": ["Benzenamine, 2-chloro-, hydrochloride (1:1)", "Benzenamine, 2-chloro-, hydrochloride (1:1)", "Aniline, o-chloro-, hydrochloride", "Benzenamine, 2-chloro-, hydrochloride", "Amarthol Fast Yellow GC Base", "Amarthol Fast Yellow GC Salt", "Ansibases Yellow GC", "Azoene Fast Yellow GC Base", "Azoene Fast Yellow GC Salt", "Daito Yellow Base GC", "Daito Yellow Salt GC", "Fast Yellow Base GC", "Fast Yellow Base JS", "Fast Yellow MC", "Fast Yellow OC Base", "Fast Yellow OC Salt", "Fast Yellow Salt GC", "Fast Yellow Salt JS", "Hiltonil Fast Yellow GC Base", "Hiltosal Fast Yellow GC Salt", "Hindasol Yellow GC Salt", "Kako Yellow GC Base", "Mitsui Yellow GC Base", "Naphtoelan Fast Yellow GC Base", "Naphtoelan Fast Yellow GC Salt", "Natasol Fast Yellow GC Salt", "Sanyo Fast Yellow GC Base", "Sanyo Fast Yellow Salt GC", "Spectrolene Orange HD", "Yellow Base NGC", "Yellow GC Salt", "o-Chloroaniline hydrochloride", "2-Chloroaniline hydrochloride", "2-Chloroanilinium chloride"], "SMILES": "ClC1=C(N)C=CC=C1.Cl", "physical_data": {"Molecular Weight": "", "Molecular Formula": "C6H6ClN.ClH", "Melting Point": "235 \u00b0C", "Density": "1.505 g/cm\u00b3"}}