{"cas_no": "137-17-7", "cn_name": "2,4,5-\u4e09\u7532\u57fa\u82ef\u80fa", "en_name": ["2,4,5-Trimethylaniline", "Benzenamine, 2,4,5-trimethyl-", "Aniline, 2,4,5-trimethyl-", "2,4,5-Trimethylbenzenamine", "2,4,5-Trimethylaniline", "Pseudocumidine", "\u03c8-Cumidine", "2,4,5-Trimethylphenylamine", "NSC 37004", "NSC 5297"], "SMILES": "CC1=C(C)C=C(N)C(C)=C1", "physical_data": {"Molecular Weight": "135.21", "Molecular Formula": "C9H13N", "Boiling Point": "234.5 \u00b0C", "Melting Point": "68 \u00b0C", "Density": "0.957 g/cm\u00b3"}}