{"cas_no": "137-09-7", "cn_name": "2,4-\u4e8c\u6c28\u57fa\u915a\u4e8c\u76d0\u9178\u76d0", "en_name": ["Dianol", "Phenol, 2,4-diamino-, hydrochloride (1:2)", "Phenol, 2,4-diamino-, dihydrochloride", "Amidol", "Acrol", "Diamidophenol hydrochloride", "2,4-Diaminophenol dihydrochloride", "Dianol", "2,4-Diaminophenol hydrochloride", "Amidol dihydrochloride"], "SMILES": "NC1=C(O)C=CC(N)=C1.Cl", "physical_data": {"Molecular Weight": "", "Molecular Formula": "C6H8N2O.2ClH", "Melting Point": "205 \u00b0C"}}