{"cas_no": "13709-52-9", "cn_name": "\u56db\u6c1f\u5316\u94ea", "en_name": ["Hafnium tetrafluoride", "Hafnium fluoride (HfF4), (T-4)-", "Hafnium fluoride (HfF4)", "Hafnium fluoride", "Hafnium tetrafluoride"], "SMILES": "[Hf](F)(F)(F)F", "physical_data": {"Molecular Weight": "", "Molecular Formula": "F4Hf", "Melting Point": "762 \u00b0C"}}