{"cas_no": "13709-03-0", "cn_name": "\u51b3\u660e\u5b50\u82f7", "en_name": ["Cassiaside", "4H-Naphtho[2,3-b]pyran-4-one, 6-(\u03b2-D-glucopyranosyloxy)-5,8-dihydroxy-2-methyl-", "Glucopyranoside, 5,8-dihydroxy-2-methyl-4-oxo-4H-naphtho[2,3-b]pyran-6-yl, \u03b2-D-", "6-(\u03b2-D-Glucopyranosyloxy)-5,8-dihydroxy-2-methyl-4H-naphtho[2,3-b]pyran-4-one", "Cassiaside", "Cassiaside A", "Norrubrofusarin 6-\u03b2-mono-D-glucoside", "Norrubrofusarin 6-\u03b2-D-glucopyranoside", "Casside"], "SMILES": "O(C=1C2=C(C=C3C(=C2O)C(=O)C=C(C)O3)C=C(O)C1)C4OC(CO)C(O)C(O)C4O", "physical_data": {"Molecular Weight": "420.37", "Molecular Formula": "C20H20O10", "Melting Point": "256-257 \u00b0C"}}