{"cas_no": "13708-12-8", "cn_name": "5-\u7532\u57fa\u55b9\u5594\u5549", "en_name": ["5-Methylquinoxaline", "Quinoxaline, 5-methyl-", "5-Methylquinoxaline"], "SMILES": "CC=1C2=C(C=CC1)N=CC=N2", "physical_data": {"Molecular Weight": "144.17", "Molecular Formula": "C9H8N2", "Boiling Point": "120 \u00b0C @ Press: 15 Torr", "Melting Point": "20-21 \u00b0C"}}