{"cas_no": "13709-46-1", "cn_name": "\u6c1f\u5316\u9568", "en_name": ["Praseodymium fluoride", "Praseodymium fluoride (PrF3)", "Praseodymium trifluoride", "Praseodymium fluoride"], "SMILES": "[Pr](F)(F)F", "physical_data": {"Molecular Weight": "", "Molecular Formula": "F3Pr", "Melting Point": "1370 \u00b0C", "Density": "6.267 g/cm\u00b3"}}