{"cas_no": "13706-86-0", "cn_name": "5-\u7532\u57fa-2,3-\u5df1\u70f7\u4e8c\u916e", "en_name": ["5-methyl-2,3-hexanedione", "2,3-Hexanedione, 5-methyl-", "5-Methyl-2,3-hexanedione", "2-Methylhexa-4,5-dione", "5-methyl-2,3-hexanedione"], "SMILES": "C(CC(C)C)(C(C)=O)=O", "physical_data": {"Molecular Weight": "128.17", "Molecular Formula": "C7H12O2", "Boiling Point": "138 \u00b0C", "Density": "0.9135 g/cm\u00b3 @ Temp: 420 \u00b0C"}}