{"cas_no": "13709-49-4", "cn_name": "\u6c1f\u5316\u9487", "en_name": ["Yttrium fluoride", "Yttrium fluoride (YF3)", "Yttrium trifluoride", "Yttrium trifluoride (YF3)", "Yttrium fluoride", "FCD-546-3"], "SMILES": "[Y](F)(F)F", "physical_data": {"Molecular Weight": "", "Molecular Formula": "F3Y", "Melting Point": "1143 \u00b0C"}}