{"cas_no": "13709-47-2", "cn_name": "\u4e09\u6c1f\u5316\u94aa", "en_name": ["Scandium fluoride", "Scandium fluoride (ScF3)", "Scandium trifluoride", "Scandium trifluoride (ScF3)", "Scandium fluoride"], "SMILES": "[Sc](F)(F)F", "physical_data": {"Molecular Weight": "", "Molecular Formula": "F3Sc", "Melting Point": "1530 \u00b0C", "Density": "2.52 g/cm\u00b3"}}