{"cas_no": "13709-42-7", "cn_name": "\u6c1f\u5316\u9495", "en_name": ["Neodymium fluoride (NdF3)", "Neodymium fluoride (NdF3)", "Neodymium trifluoride", "Neodymium fluoride", "Neodymium trifluoride (NdF3)"], "SMILES": "[Nd](F)(F)F", "physical_data": {"Molecular Weight": "", "Molecular Formula": "F3Nd", "Melting Point": "1410 \u00b0C", "Density": "6.505 g/cm\u00b3"}}