{"cas_no": "13709-31-4", "cn_name": "\u4e09\u6c1f\u6c28\u5316\u9492", "en_name": ["Vanadium, trifluorooxo-, (T-4)-", "Vanadium, trifluorooxo-, (T-4)-", "Vanadium fluoride oxide (VOF3)", "Vanadyl fluoride (VOF3)", "Vanadium, trifluorooxo-", "Vanadium oxyfluoride (VOF3)", "Vanadium oxytrifluoride", "Vanadium oxofluoride (VOF3)", "Vanadyl trifluoride", "Vanadium oxide fluoride (VOF3)", "Vanadium fluoride oxide (VF3O)", "Vanadium trifluoride monoxide"], "SMILES": "[V](F)(F)(F)=O", "physical_data": {"Molecular Weight": "", "Molecular Formula": "F3OV", "Boiling Point": "480 \u00b0C", "Melting Point": "300 \u00b0C", "Density": "2.4591 g/cm\u00b3 @ Temp: 20.5 \u00b0C"}}