{"cas_no": "13709-38-1", "cn_name": "\u6c1f\u5316\u9567", "en_name": ["Lanthanum trifluoride", "Lanthanum fluoride (LaF3)", "Lanthanum trifluoride", "Lanthanum fluoride", "Lanthanum fluoride (La2F6)", "Lanthanum trifluoride (LaF3)"], "SMILES": "[La](F)(F)F", "physical_data": {"Molecular Weight": "", "Molecular Formula": "F3La", "Melting Point": "1493 \u00b0C", "Density": "5.936 g/cm\u00b3"}}