{"cas_no": "13707-88-5", "cn_name": "\u963f\u666e\u6d1b\u5c14\u76d0\u9178\u76d0", "en_name": ["Alprenolol hydrochloride", "2-Propanol, 1-[(1-methylethyl)amino]-3-[2-(2-propen-1-yl)phenoxy]-, hydrochloride (1:1)", "2-Propanol, 1-(o-allylphenoxy)-3-(isopropylamino)-, hydrochloride", "2-Propanol, 1-[(1-methylethyl)amino]-3-[2-(2-propenyl)phenoxy]-, hydrochloride", "1-(o-Allylphenoxy)-3-(isopropylamino)-2-propanol hydrochloride", "Alprenolol hydrochloride", "H 56/28", "1-(2-Allylphenoxy)-2-hydroxy-3-isopropylaminopropane hydrochloride", "Gubernal", "Aptine", "Alfeprol", "Aptin", "Betaptin", "Dimacor", "Aptol Duriles", "Apllobal", "(\u00b1)-1-(o-Allylphenoxy)-3-isopropylamino-2-propanol hydrochloride", "(\u00b1)-Alprenolol hydrochloride", "dl-Alprenolol chloride", "DL-1-(o-Allylphenoxy)-3-isopropylamino-2-propanol hydrochloride", "Regletin", "Applobal", "Yobir", "Aprobal", "1-(2-Allylphenoxy)-3-(isopropylamino)propan-2-ol hydrochloride", "[2-Hydroxy-3-[2-(prop-2-en-1-yl)phenoxy]propyl](propan-2-yl)amine hydrochloride"], "SMILES": "O(CC(CNC(C)C)O)C1=C(CC=C)C=CC=C1.Cl", "physical_data": {"Molecular Weight": "", "Molecular Formula": "C15H23NO2.ClH", "Melting Point": "107-109 \u00b0C"}}