{"cas_no": "13709-36-9", "cn_name": "\u4e8c\u6c1f\u4ee3\u6c19", "en_name": ["Xenon difluoride", "Xenon fluoride (XeF2)", "Xenon difluoride", "Xenon difluoride (XeF2)", "Xenon(II) fluoride"], "SMILES": "[Xe](F)F", "physical_data": {"Molecular Weight": "", "Molecular Formula": "F2Xe", "Melting Point": "136 \u00b0C"}}