{"cas_no": "13709-59-6", "cn_name": "\u56db\u6c1f\u5316\u948d", "en_name": ["Thorium fluoride (ThF4), (T-4)-", "Thorium fluoride (ThF4), (T-4)-", "Thorium fluoride (ThF4)", "Thorium tetrafluoride", "Thorium tetrafluoride (ThF4)", "Thorium fluoride"], "SMILES": "[Th](F)(F)(F)F", "physical_data": {"Molecular Weight": "", "Molecular Formula": "F4Th", "Melting Point": "527 \u00b0C"}}