{"cas_no": "1370003-76-1", "cn_name": "yk11", "en_name": ["Methyl (17\u03b1,20E)-17,20-[(1-methoxyethylidene)bis(oxy)]-3-oxo-19-norpregna-4,20-diene-21-carboxylate", "19-Norpregna-4,20-diene-21-carboxylic acid, 17,20-[(1-methoxyethylidene)bis(oxy)]-3-oxo-, methyl ester, (17\u03b1,20E)-", "Methyl (17\u03b1,20E)-17,20-[(1-methoxyethylidene)bis(oxy)]-3-oxo-19-norpregna-4,20-diene-21-carboxylate", "YK 11"], "SMILES": "CC12C3(C(=CC(OC)=O)OC(OC)(C)O3)CCC1C4C(CC2)C5C(CC4)=CC(=O)CC5", "physical_data": {"Molecular Weight": "430.53", "Molecular Formula": "C25H34O6", "Melting Point": "136 \u00b0C"}}