{"cas_no": "137071-32-0", "cn_name": "\u5421\u7f8e\u83ab\u53f8", "en_name": ["(-)-Pimecrolimus", "15,19-Epoxy-3H-pyrido[2,1-c][1,4]oxaazacyclotricosine-1,7,20,21(4H,23H)-tetrone, 3-[(1E)-2-[(1R,3R,4S)-4-chloro-3-methoxycyclohexyl]-1-methylethenyl]-8-ethyl-5,6,8,11,12,13,14,15,16,17,18,19,24,25,26,26a-hexadecahydro-5,19-dihydroxy-14,16-dimethoxy-4,10,12,18-tetramethyl-, (3S,4R,5S,8R,9E,12S,14S,15R,16S,18R,19R,26aS)-", "15,19-Epoxy-3H-pyrido[2,1-c][1,4]oxaazacyclotricosine-1,7,20,21(4H,23H)-tetrone, 3-[2-(4-chloro-3-methoxycyclohexyl)-1-methylethenyl]-8-ethyl-5,6,8,11,12,13,14,15,16,17,18,19,24,25,26,26a-hexadecahydro-5,19-dihydroxy-14,16-dimethoxy-4,10,12,18-tetramethyl-, [3S-[3R*[E(1S*,3S*,4R*)],4S*,5R*,8S*,9E,12R*,14R*,15S*,16R*,18S*,19S*,26aR*]]-", "(3S,4R,5S,8R,9E,12S,14S,15R,16S,18R,19R,26aS)-3-[(1E)-2-[(1R,3R,4S)-4-Chloro-3-methoxycyclohexyl]-1-methylethenyl]-8-ethyl-5,6,8,11,12,13,14,15,16,17,18,19,24,25,26,26a-hexadecahydro-5,19-dihydroxy-14,16-dimethoxy-4,10,12,18-tetramethyl-15,19-epoxy-3H-pyrido[2,1-c][1,4]oxaazacyclotricosine-1,7,20,21(4H,23H)-tetrone", "33-epi-Chloro-33-desoxyascomycin", "SDZ-ASM 981", "Pimecrolimus", "Elidel", "ASM 981", "33-Epichloro-33-desoxyascomycin", "Picrolimus", "(-)-Pimecrolimus"], "SMILES": "O(C)C1C2OC(O)(C(C)C1)C(=O)C(=O)N3C(C(=O)OC(C(=CC4CC(OC)C(Cl)CC4)C)C(C)C(O)CC(=O)C(CC)C=C(C)CC(C)CC2OC)CCCC3", "physical_data": {"Molecular Weight": "810.45", "Molecular Formula": "C43H68ClNO11", "Melting Point": "135-136 \u00b0C"}}