{"cas_no": "137071-78-4", "cn_name": "2,5-\u4e8c\u6c2f-1,3,4-\u82ef\u4e09\u7532\u9178", "en_name": ["3,6-Dichloro-1,2,4-benzenetricarboxylic acid", "1,2,4-Benzenetricarboxylic acid, 3,6-dichloro-", "3,6-Dichloro-1,2,4-benzenetricarboxylic acid", "3,6-Dichlorotrimellitic acid", "2,5-Dichloro-1,3,4-benzenetricarboxylic acid"], "SMILES": "C(O)(=O)C1=C(C(O)=O)C(Cl)=CC(C(O)=O)=C1Cl", "physical_data": {"Molecular Weight": "279.03", "Molecular Formula": "C9H4Cl2O6", "Melting Point": "226-230 \u00b0C"}}