{"cas_no": "13717-00-5", "cn_name": "\u78b3\u9178\u9541", "en_name": ["Magnesite", "Magnesite (Mg(CO3))", "Australian magnesite", "Magnesite", "Giobertite", "LH 1253", "SH 123L"], "SMILES": "C(=O)(O)O.[Mg]", "physical_data": {"Molecular Weight": "", "Molecular Formula": "CH2O3.Mg", "Melting Point": "2200 \u00b0C", "Density": "3.001 g/cm\u00b3"}}