{"cas_no": "13710-19-5", "cn_name": "\u6258\u706d\u9178", "en_name": ["Tolfenamic acid", "Benzoic acid, 2-[(3-chloro-2-methylphenyl)amino]-", "Anthranilic acid, N-(3-chloro-o-tolyl)-", "2-[(3-Chloro-2-methylphenyl)amino]benzoic acid", "N-(2-Methyl-3-chlorophenyl)anthranilic acid", "N-(3-Chloro-o-tolyl)anthranilic acid", "Tolfenamic acid", "GEA 6414", "Clotam", "Tolfedine", "Tolfine", "Migea", "Tolfenamate", "2-(3-Chloro-2-methylanilino)benzoic acid"], "SMILES": "N(C1=C(C(O)=O)C=CC=C1)C2=C(C)C(Cl)=CC=C2", "physical_data": {"Molecular Weight": "261.70", "Molecular Formula": "C14H12ClNO2", "Melting Point": "207-207.5 \u00b0C"}}