{"cas_no": "137173-46-7", "cn_name": "\u5341\u4e8c\u70f7\u9170-L-\u9ad8\u4e1d\u6c28\u9178\u5185\u916f", "en_name": ["N-Dodecanoyl-L-homoserine lactone", "Dodecanamide, N-[(3S)-tetrahydro-2-oxo-3-furanyl]-", "Dodecanamide, N-(tetrahydro-2-oxo-3-furanyl)-, (S)-", "N-[(3S)-Tetrahydro-2-oxo-3-furanyl]dodecanamide", "N-Dodecanoyl-L-homoserine lactone", "C12-HSL (autoinducer)", "(S)-N-(2-Oxotetrahydrofuran-3-yl)dodecanamide"], "SMILES": "N(C(CCCCCCCCCCC)=O)C1C(=O)OCC1", "physical_data": {"Molecular Weight": "283.41", "Molecular Formula": "C16H29NO3", "Melting Point": "128 \u00b0C"}}