{"cas_no": "13716-89-7", "cn_name": "H-GLU-GLY-OH", "en_name": ["L-Glutamyl-glycine", "Glycine, L-\u03b1-glutamyl-", "Glutaramic acid, 4-amino-N-(carboxymethyl)-, stereoisomer", "Glycine, N-L-\u03b1-glutamyl-", "L-\u03b1-Glutamylglycine", "Glutamylglycine", "L-Glutamyl-glycine", "\u03b1-Glutamylglycine", "\u03b1-L-Glutamylglycine", "H-Glu-Gly-OH", "NSC 186906", "Immune disease-associated protein PRO91025 (human)", "4408: PN: WO2005019258 SEQID: 4850 claimed protein", "4408: PN: WO2005016962 SEQID: 4850 claimed protein", "116: PN: US20130123467 SEQID: 140 claimed protein", "\u03b1-Glu-Gly", "(4S)-4-Amino-5-(carboxymethylamino)-5-oxopentanoic acid"], "SMILES": "C(C(NCC(O)=O)=O)(CCC(O)=O)N", "physical_data": {"Molecular Weight": "204.18", "Molecular Formula": "C7H12N2O5", "Melting Point": "175-176 \u00b0C"}}