{"cas_no": "13716-10-4", "cn_name": "\u4e8c\u53d4\u4e01\u57fa\u6c2f\u5316\u81a6", "en_name": ["Di-tert-butylchlorophosphine", "Phosphinous chloride, P,P-bis(1,1-dimethylethyl)-", "Phosphinous chloride, di-tert-butyl-", "Phosphinous chloride, bis(1,1-dimethylethyl)-", "P,P-Bis(1,1-dimethylethyl)phosphinous chloride", "Di-tert-Butylphosphinous chloride", "Di-tert-butylchlorophosphine", "Chlorodi-tert-butylphosphine", "Bis(1,1-dimethylethyl)phosphinous chloride", "Bis(tert-butyl)phosphinous chloride", "Bis(tert-butyl)chlorophosphine"], "SMILES": "P(C(C)(C)C)(C(C)(C)C)Cl", "physical_data": {"Molecular Weight": "180.66", "Molecular Formula": "C8H18ClP", "Boiling Point": "69-70 \u00b0C @ Press: 10 Torr"}}