{"cas_no": "13716-12-6", "cn_name": "\u4e09\u53d4\u4e01\u57fa\u81a6", "en_name": ["Tri-tert-butylphosphine", "Phosphine, tris(1,1-dimethylethyl)-", "Phosphine, tri-tert-butyl-", "Tris(1,1-dimethylethyl)phosphine", "Tri-tert-butylphosphine", "Tris(tert-butyl)phosphine"], "SMILES": "P(C(C)(C)C)(C(C)(C)C)C(C)(C)C", "physical_data": {"Molecular Weight": "202.32", "Molecular Formula": "C12H27P", "Melting Point": "19-23 \u00b0C"}}