{"cas_no": "13718-26-8", "cn_name": "\u9492\u9178\u94a0", "en_name": ["Sodium metavanadate", "Vanadate (VO31-), sodium (1:1)", "Vanadic acid (HVO3), sodium salt", "Sodium vanadate(V) (NaVO3)", "Vanadate (VO31-), sodium", "Sodium metavanadate", "Sodium vanadium oxide (NaVO3)", "Sodium vanadate", "Sodium metavanadate (NaVO3)", "Sodium vanadate (NaVO3)", "Sodium vanadium trioxide", "Monosodium trioxovanadate(1-)", "Sodium trioxovanadate(1-)"], "SMILES": "[V-](=O)(=O)=O.[Na+]", "physical_data": {"Molecular Weight": "", "Molecular Formula": "Na.O3V", "Melting Point": "630 \u00b0C", "Density": "3.241 g/cm\u00b3 @ Temp: 20 \u00b0C"}}