{"cas_no": "137234-62-9", "cn_name": "\u4f0f\u7acb\u5eb7\u5511", "en_name": ["Voriconazole", "4-Pyrimidineethanol, \u03b1-(2,4-difluorophenyl)-5-fluoro-\u03b2-methyl-\u03b1-(1H-1,2,4-triazol-1-ylmethyl)-, (\u03b1R,\u03b2S)-", "4-Pyrimidineethanol, \u03b1-(2,4-difluorophenyl)-5-fluoro-\u03b2-methyl-\u03b1-(1H-1,2,4-triazol-1-ylmethyl)-, [R-(R*,S*)]-", "(\u03b1R,\u03b2S)-\u03b1-(2,4-Difluorophenyl)-5-fluoro-\u03b2-methyl-\u03b1-(1H-1,2,4-triazol-1-ylmethyl)-4-pyrimidineethanol", "Voriconazole", "UK 109496", "Vfend", "DRG 0301", "VRC", "Voriconazol", "G-573", "MeSH ID: D065819"], "SMILES": "C(C(C)C=1C(F)=CN=CN1)(CN2C=NC=N2)(O)C3=C(F)C=C(F)C=C3", "physical_data": {"Molecular Weight": "349.31", "Molecular Formula": "C16H14F3N5O", "Melting Point": "134 \u00b0C"}}