{"cas_no": "13726-16-4", "cn_name": "4-\u6c2f-3-\u7532\u6c27\u57fa\u82ef\u7532\u919b", "en_name": ["4-Chloro-3-methoxybenzaldehyde", "Benzaldehyde, 4-chloro-3-methoxy-", "m-Anisaldehyde, 4-chloro-", "4-Chloro-3-methoxybenzaldehyde", "3-Methoxy-4-chlorobenzaldehyde", "4-Chloro-3-methoxylbenzaldehyde"], "SMILES": "O(C)C1=CC(C=O)=CC=C1Cl", "physical_data": {"Molecular Weight": "170.59", "Molecular Formula": "C8H7ClO2", "Melting Point": "52 \u00b0C"}}