{"cas_no": "137252-25-6", "cn_name": "3-HYDROXY-2-[(1R,6R)-3-METHYL-6-(1-METHYLETHENYL)-2-CYCLOHEXENE-1-YL]-5-PENTYL-2,5-CYCLOHEXADIENE-1,4-DIONE", "en_name": ["3-Hydroxy-2-[(1R,6R)-3-methyl-6-(1-methylethenyl)-2-cyclohexen-1-yl]-5-pentyl-2,5-cyclohexadiene-1,4-dione", "2,5-Cyclohexadiene-1,4-dione, 3-hydroxy-2-[(1R,6R)-3-methyl-6-(1-methylethenyl)-2-cyclohexen-1-yl]-5-pentyl-", "2,5-Cyclohexadiene-1,4-dione, 3-hydroxy-2-[3-methyl-6-(1-methylethenyl)-2-cyclohexen-1-yl]-5-pentyl-, (1R-trans)-", "3-Hydroxy-2-[(1R,6R)-3-methyl-6-(1-methylethenyl)-2-cyclohexen-1-yl]-5-pentyl-2,5-cyclohexadiene-1,4-dione", "HU 331", "VCE 004"], "SMILES": "C(C)(=C)C1C(C=C(C)CC1)C2=C(O)C(=O)C(CCCCC)=CC2=O", "physical_data": {"Molecular Weight": "328.45", "Molecular Formula": "C21H28O3", "Melting Point": "50-51 \u00b0C"}}