{"cas_no": "13726-84-6", "cn_name": "\u53d4\u4e01\u6c27\u7fb0\u57fa-L-\u8c37\u6c28\u9178-5-\u53d4\u4e01\u916f", "en_name": ["5-(1,1-Dimethylethyl) hydrogen N-[(1,1-dimethylethoxy)carbonyl]-L-glutamate", "L-Glutamic acid, N-[(1,1-dimethylethoxy)carbonyl]-, 5-(1,1-dimethylethyl) ester", "Glutamic acid, N-carboxy-, N,5-di-tert-butyl ester, L-", "5-(1,1-Dimethylethyl) hydrogen N-[(1,1-dimethylethoxy)carbonyl]-L-glutamate", "(2S)-5-tert-Butoxy-2-[(tert-butoxycarbonyl)amino]-5-oxopentanoic acid", "N-tert-Butoxycarbonylglutamic acid \u03b3-tert-butyl ester", "N-Boc-glutaminic acid \u03b4-(tert-butyl) ester", "N-Boc-L-glutamic acid \u03b3-(tert-butyl) ester", "NSC 164048", "(2S)-5-tert-Butoxy-2-[(tert-butoxycarbonyl)amino]-5-oxopentanoic acid", "(S)-5-tert-Butoxy-2-(tert-butoxycarbonylamino)-5-oxopentanoic acid", "Boc-L-Glu(OtBu)-OH", "Boc-Glu(O-tBu)-OH"], "SMILES": "C(CCC(OC(C)(C)C)=O)(NC(OC(C)(C)C)=O)C(O)=O", "physical_data": {"Molecular Weight": "303.35", "Molecular Formula": "C14H25NO6", "Melting Point": "101-102 \u00b0C"}}