{"cas_no": "13721-20-5", "cn_name": "[3-\u6c2f-4-(\u7532\u6c27\u57fa)\u82ef\u57fa]\u4e59\u9178", "en_name": ["3-Chloro-4-methoxybenzeneacetic acid", "Benzeneacetic acid, 3-chloro-4-methoxy-", "Acetic acid, (3-chloro-4-methoxyphenyl)-", "3-Chloro-4-methoxybenzeneacetic acid", "(3-Chloro-4-methoxyphenyl)acetic acid", "2-(3-Chloro-4-methoxyphenyl)acetic acid"], "SMILES": "O(C)C1=C(Cl)C=C(CC(O)=O)C=C1", "physical_data": {"Molecular Weight": "200.62", "Molecular Formula": "C9H9ClO3", "Melting Point": "95-96 \u00b0C"}}