{"cas_no": "13726-69-7", "cn_name": "Boc-L-\u7f9f\u812f\u6c28\u9178", "en_name": ["1-(1,1-Dimethylethyl) (2S,4R)-4-hydroxy-1,2-pyrrolidinedicarboxylate", "1,2-Pyrrolidinedicarboxylic acid, 4-hydroxy-, 1-(1,1-dimethylethyl) ester, (2S,4R)-", "1,2-Pyrrolidinedicarboxylic acid, 4-hydroxy-, 1-tert-butyl ester, L-", "1,2-Pyrrolidinedicarboxylic acid, 4-hydroxy-, 1-(1,1-dimethylethyl) ester, (2S-trans)-", "1-(1,1-Dimethylethyl) (2S,4R)-4-hydroxy-1,2-pyrrolidinedicarboxylate", "N-(tert-Butoxycarbonyl)hydroxy-L-proline", "N-(tert-Butyloxycarbonyl)-4-hydroxyproline", "N-(tert-Butoxycarbonyl)hydroxyproline", "N-(tert-Butoxycarbonyl)-4-hydroxy-L-proline", "(2S,4R)-1-(tert-Butoxycarbonyl)-4-hydroxypyrrolidine-2-carboxylic acid", "N-tert-Butoxycarbonyl-(4R)-4-hydroxy-L-proline", "trans-1-(tert-Butoxycarbonyl)-4-hydroxy-L-proline", "(2S,4R)-4-Hydroxypyrrolidine-1,2-dicarboxylic acid 1-tert-butyl ester", "(2S,4R)-4-Hydroxy-1-(tert-butoxycarbonyl)pyrrolidine-2-carboxylic acid", "NSC 343720", "(4R)-1-(tert-Butoxycarbonyl)-4-hydroxy-L-proline", "1-(tert-Butoxycarbonyl)-(2S,4R)-4-hydroxypyrrolidine-2-carboxylic acid", "(2S,4R)-1-(tert-Butoxycarbonyl)-4-hydroxypyrrolidine-2-carboxylic acid", "(2S,4R)-4-Hydroxy-1-[(2-methylpropan-2-yl)oxycarbonyl]pyrrolidine-2-carboxylic acid", "Boc-L-trans-\u03b3-hydroxyproline", "N-Boc-trans-4-hydroxy-L-proline", "Boc-trans-Hydroxy-L-proline", "(2S,4R)-N-tert-Butoxycarbonyl-4-hydroxyproline", "N-tert-Butoxycarbonyl trans-4-hydroxy-L-proline"], "SMILES": "C(OC(C)(C)C)(=O)N1C(C(O)=O)CC(O)C1", "physical_data": {"Molecular Weight": "231.25", "Molecular Formula": "C10H17NO5", "Melting Point": "126-128 \u00b0C"}}