{"cas_no": "13721-01-2", "cn_name": "4-\u6c27\u4ee3-1,4-\u4e8c\u6c22\u55b9\u5549-3-\u7fa7\u9178", "en_name": ["1,4-Dihydro-4-oxo-3-quinolinecarboxylic acid", "3-Quinolinecarboxylic acid, 1,4-dihydro-4-oxo-", "1,4-Dihydro-4-oxo-3-quinolinecarboxylic acid", "4-Quinolone-3-carboxylic acid", "4-Oxo-1,4-dihydroquinoline-3-carboxylic acid"], "SMILES": "O=C1C=2C(NC=C1C(O)=O)=CC=CC2", "physical_data": {"Molecular Weight": "189.17", "Molecular Formula": "C10H7NO3", "Melting Point": "269-270 \u00b0C"}}