{"cas_no": "137234-87-8", "cn_name": "6-\u4e59\u57fa-5-\u6c1f\u5627\u5576-4(3H)-\u916e", "en_name": ["6-Ethyl-5-fluoro-4(3H)-pyrimidinone", "4(3H)-Pyrimidinone, 6-ethyl-5-fluoro-", "4(1H)-Pyrimidinone, 6-ethyl-5-fluoro-", "6-Ethyl-5-fluoro-4(3H)-pyrimidinone", "6-Ethyl-5-fluoropyrimidin-4(3H)-one", "6-Ethyl-5-fluoro-4-hydroxypyrimidine", "6-Ethyl-5-fluoropyrimidin-4-ol"], "SMILES": "C(C)C1=C(F)C(=O)N=CN1", "physical_data": {"Molecular Weight": "142.13", "Molecular Formula": "C6H7FN2O", "Melting Point": "112-114 \u00b0C"}}