{"cas_no": "13726-85-7", "cn_name": "BOC-L-\u8c37\u6c28\u9170\u80fa", "en_name": ["BOC-L-glutamine", "L-Glutamine, N2-[(1,1-dimethylethoxy)carbonyl]-", "Glutamine, N2-carboxy-, N2-tert-butyl ester, L-", "Glutamine, N2-carboxy-, N-tert-butyl ester", "N2-[(1,1-Dimethylethoxy)carbonyl]-L-glutamine", "tert-Butoxycarbonyl-L-glutamine", "N\u03b1-tert-Butoxycarbonyl-L-glutamine", "N2-tert-Butoxycarbonyl-L-glutamine", "N-(tert-Butoxycarbonyl)glutamine", "BOC-glutamine", "N\u03b1-(tert-Butoxycarbonyl)glutamine", "N-(tert-Butoxycarbonyl)-L-glutamine", "BOC-L-glutamine", "NSC 334370", "(S)-2-[(tert-Butoxycarbonyl)amino]-4-carbamoylbutanoic acid", "(S)-5-Amino-2-[(tert-butoxycarbonyl)amino]-5-oxopentanoic acid", "(2S)-5-Amino-2-[(2-methylpropan-2-yl)oxycarbonylamino]-5-oxopentanoic acid", "(2S)-2-[(tert-Butoxycarbonyl)amino]-4-carbamoylbutanoic acid"], "SMILES": "C(NC(OC(C)(C)C)=O)(CCC(N)=O)C(O)=O", "physical_data": {"Molecular Weight": "246.26", "Molecular Formula": "C10H18N2O5", "Melting Point": "48.0-49.8 \u00b0C"}}