{"cas_no": "13726-52-8", "cn_name": "N-(4-\u6c28\u57fa\u82c4\u9170\u57fa)-L-\u8c37\u6c28\u9178\u4e8c\u4e59\u916f", "en_name": ["1,5-Diethyl N-(4-aminobenzoyl)-L-glutamate", "L-Glutamic acid, N-(4-aminobenzoyl)-, 1,5-diethyl ester", "Glutamic acid, N-(p-aminobenzoyl)-, diethyl ester, L-", "L-Glutamic acid, N-(4-aminobenzoyl)-, diethyl ester", "Glutamic acid, N-(p-aminobenzoyl)-, diethyl ester", "1,5-Diethyl N-(4-aminobenzoyl)-L-glutamate", "Diethyl p-aminobenzoyl-L-glutamate", "4-Aminobenzoyl-L-glutamic acid, diethyl ester", "N-(4-Aminobenzoyl)-L-glutamic acid diethyl ester", "NSC 82885", "(S)-Diethyl 2-(4-aminobenzamido)pentanedioate"], "SMILES": "C(NC(CCC(OCC)=O)C(OCC)=O)(=O)C1=CC=C(N)C=C1", "physical_data": {"Molecular Weight": "322.36", "Molecular Formula": "C16H22N2O5", "Melting Point": "143-144 \u00b0C"}}