{"cas_no": "13726-76-6", "cn_name": "BOC-\u7cbe\u6c28\u9178", "en_name": ["N-tert-Butoxycarbonyl-L-arginine", "L-Arginine, N2-[(1,1-dimethylethoxy)carbonyl]-", "Arginine, N2-carboxy-, N2-tert-butyl ester, L-", "N2-[(1,1-Dimethylethoxy)carbonyl]-L-arginine", "N-tert-Butoxycarbonyl-L-arginine", "N-\u03b1-Butyloxycarbonyl-L-arginine", "N2-tert-Butoxycarbonyl-L-arginine", "(S)-2-[(tert-Butoxycarbonyl)amino]-5-guanidinopentanoic acid", "Boc-L-arginine", "(2S)-5-(Diaminomethylideneazaniumyl)-2-[(2-methylpropan-2-yl)oxycarbonylamino]pentanoate", "(2S)-2-[[(tert-Butoxy)carbonyl]amino]-5-carbamimidamidopentanoic acid"], "SMILES": "C(NC(OC(C)(C)C)=O)(CCCNC(=N)N)C(O)=O", "physical_data": {"Molecular Weight": "274.32", "Molecular Formula": "C11H22N4O4", "Melting Point": "121-124 \u00b0C"}}