{"cas_no": "13726-67-5", "cn_name": "Boc-L-\u5929\u51ac\u6c28\u9178", "en_name": ["N-tert-Butoxycarbonyl-L-aspartic acid", "L-Aspartic acid, N-[(1,1-dimethylethoxy)carbonyl]-", "Aspartic acid, N-carboxy-, N-tert-butyl ester, L-", "Aspartic acid, N-carboxy-, N-tert-butyl ester", "N-[(1,1-Dimethylethoxy)carbonyl]-L-aspartic acid", "N\u03b1-(tert-Butyloxycarbonyl)aspartic acid", "N-tert-Butoxycarbonyl-L-aspartic acid", "N-(tert-Butoxycarbonyl)aspartic acid", "N-tert-Butyloxycarbonyl-L-aspartic acid", "N-Boc-L-aspartic acid", "NSC 186910", "Boc-L-aspartic acid", "(2S)-2-[(2-Methylpropan-2-yl)oxycarbonylamino]butanedioic acid", "(2S)-2-[[(tert-Butoxy)carbonyl]amino]butanedioic acid"], "SMILES": "C(NC(OC(C)(C)C)=O)(CC(O)=O)C(O)=O", "physical_data": {"Molecular Weight": "233.22", "Molecular Formula": "C9H15NO6", "Melting Point": "175-176 \u00b0C"}}