{"cas_no": "13737-36-5", "cn_name": "4-\u6eb4\u7532\u57fa\u82ef\u4e59\u9178", "en_name": ["4-(Bromomethyl)phenylacetic acid", "Benzeneacetic acid, 4-(bromomethyl)-", "Acetic acid, (\u03b1-bromo-p-tolyl)-", "4-(Bromomethyl)benzeneacetic acid", "4-(Bromomethyl)phenylacetic acid", "p-(Bromomethyl)phenylacetic acid", "2-[4-(Bromomethyl)phenyl]acetic acid"], "SMILES": "C(C(O)=O)C1=CC=C(CBr)C=C1", "physical_data": {"Molecular Weight": "229.07", "Molecular Formula": "C9H9BrO2", "Melting Point": "180 \u00b0C"}}