{"cas_no": "13735-81-4", "cn_name": "1-\u82ef\u57fa-1-\u4e09\u7532\u57fa\u7845\u6c27\u4e59\u70ef", "en_name": ["\u03b1-(Trimethylsiloxy)styrene", "Benzene, [1-[(trimethylsilyl)oxy]ethenyl]-", "Silane, trimethyl[(1-phenylvinyl)oxy]-", "Silane, trimethyl[(1-phenylethenyl)oxy]-", "[1-[(Trimethylsilyl)oxy]ethenyl]benzene", "Trimethyl(1-phenylvinyloxy)silane", "\u03b1-(Trimethylsilyloxy)styrene", "\u03b1-(Trimethylsiloxy)styrene", "1-Phenyl-1-(trimethylsilyloxy)ethylene", "1-Phenyl-1-(trimethylsiloxy)ethylene", "1-(Trimethylsilyloxy)-1-phenylethene", "1-Phenyl-1-(trimethylsiloxy)ethene", "Acetophenone trimethylsilyl enol ether", "1-(Trimethylsilyloxy)styrene", "1-(Trimethylsilyloxy)-1-phenylethylene", "1-Phenyl-1-(trimethylsilyloxy)ethene", "Trimethyl(1-phenylethenyloxy)silane", "1-(Trimethylsiloxy)-1-phenylethene", "[1-(Trimethylsiloxy)vinyl]benzene", "1-Phenylethenyloxytrimethylsilane"], "SMILES": "C(O[Si](C)(C)C)(=C)C1=CC=CC=C1", "physical_data": {"Molecular Weight": "192.33", "Molecular Formula": "C11H16OSi", "Boiling Point": "53-54 \u00b0C @ Press: 1 Torr", "Melting Point": "122-123 \u00b0C", "Density": "0.938 g/cm\u00b3"}}