{"cas_no": "13734-41-3", "cn_name": "Boc-L-\u7f2c\u6c28\u9178", "en_name": ["Boc-L-valine", "L-Valine, N-[(1,1-dimethylethoxy)carbonyl]-", "Valine, N-carboxy-, N-tert-butyl ester, L-", "N-[(1,1-Dimethylethoxy)carbonyl]-L-valine", "N-tert-Butoxycarbonyl-L-valine", "tert-Butoxycarbonyl-L-valine", "N-tert-Butoxycarbonylvaline", "N-tert-Butyloxycarbonyl-L-valine", "N-\u03b1-tert-Butoxycarbonyl-L-valine", "BOC-valine", "N-tert-Butyloxycarbonylvaline", "Boc-L-valine", "t-Butoxycarbonyl-L-valine", "(S)-N-tert-Butoxycarbonylvaline", "(2S)-2-(tert-Butoxycarbonylamino)-3-methylbutanoic acid", "N-BOC-L-valine", "NSC 197197", "N-BOC-valine", "(S)-2-(tert-Butoxycarbonylamino)-3-methylbutanoic acid", "(2S)-2-[[(1,1-Dimethylethoxy)carbonyl]amino]-3-methylbutanoic acid", "N-tert-Butoxycarbonyl-L-valine vinyl ester", "(S)-2-(Boc-amino)-3-methylbutyric acid", "(S)-Boc-Valine", "Boc-L-Val", "(2S)-2-[[(tert-Butoxy)carbonyl]amino]-3-methylbutanoic acid", "(2S)-3-Methyl-2-[(2-methylpropan-2-yl)oxycarbonylamino]butanoic acid"], "SMILES": "C(NC(OC(C)(C)C)=O)(C(C)C)C(O)=O", "physical_data": {"Molecular Weight": "217.26", "Molecular Formula": "C10H19NO4", "Melting Point": "77-79 \u00b0C", "Density": "1.185 g/cm\u00b3"}}