{"cas_no": "13734-34-4", "cn_name": "BOC-L-\u82ef\u4e19\u6c28\u9178", "en_name": ["BOC-L-Phenylalanine", "L-Phenylalanine, N-[(1,1-dimethylethoxy)carbonyl]-", "Alanine, N-carboxy-3-phenyl-, N-tert-butyl ester, L-", "N-[(1,1-Dimethylethoxy)carbonyl]-L-phenylalanine", "N-(tert-Butyloxycarbonyl)-L-phenylalanine", "tert-Butoxycarbonyl-L-phenylalanine", "N-(tert-Butoxycarbonyl)phenylalanine", "(tert-Butoxycarbonyl)phenylalanine", "N-(tert-Butoxycarbonyl)-L-phenylalanine", "N-(tert-Butyloxycarbonyl)phenylalanine", "BOC-L-Phenylalanine", "(S)-N-(tert-Butoxycarbonyl)phenylalanine", "N-BOC-L-phenylalanine", "N-(tert-Butoxycarbonyl)-(S)-phenylalanine", "N-t-BOC-L-phenylalanine", "N-BOC-phenylalanine", "(2S)-2-((tert-Butoxycarbonyl)amino)-3-phenylpropionic acid", "(2S)-2-(tert-Butoxycarbonylamino)-3-phenylpropanoic acid", "NSC 111172", "N-BOC-(S)-phenylalanine", "(S)-2-[(tert-Butoxycarbonyl)amino]-3-phenylpropionic acid", "(S)-N-Boc-phenylalanine", "(S)-2-(tert-Butoxycarbonylamino)-3-phenylpropanoic acid", "6: PN: RU2506269 PAGE: 13 claimed sequence", "Boc-L-Phe-OH", "(2S)-2-[(2-Methylpropan-2-yl)oxycarbonylamino]-3-phenylpropanoic acid", "(2S)-2-(tert-Butoxycarbonylamino)-3-phenyl-propanoic acid", "(2S)-2-[[(tert-Butoxy)carbonyl]amino]-3-phenylpropanoic acid"], "SMILES": "C(CC1=CC=CC=C1)(NC(OC(C)(C)C)=O)C(O)=O", "physical_data": {"Molecular Weight": "265.30", "Molecular Formula": "C14H19NO4", "Melting Point": "79-80 \u00b0C"}}