{"cas_no": "13730-09-1", "cn_name": "2,5-\u4e8c\u7532\u57fa\u82ef\u8148", "en_name": ["2,5-Dimethylbenzonitrile", "Benzonitrile, 2,5-dimethyl-", "2,5-Dimethylbenzonitrile"], "SMILES": "C(#N)C1=C(C)C=CC(C)=C1", "physical_data": {"Molecular Weight": "131.17", "Molecular Formula": "C9H9N", "Boiling Point": "104-105 \u00b0C @ Press: 18 Torr", "Melting Point": "-3-6 \u00b0C"}}