{"cas_no": "13730-98-8", "cn_name": "4-\u6c2f\u82ef\u6c27\u4e59\u9178\u94a0", "en_name": ["Sodium p-chlorophenoxyacetate", "Acetic acid, 2-(4-chlorophenoxy)-, sodium salt (1:1)", "Acetic acid, (p-chlorophenoxy)-, sodium salt", "Acetic acid, (4-chlorophenoxy)-, sodium salt", "Parafen", "Sodium p-chlorophenoxyacetate", "p-Chlorophenoxyacetic acid sodium salt", "Sodium 4-chlorophenoxyacetate", "4-CPA sodium salt"], "SMILES": "O(CC(O)=O)C1=CC=C(Cl)C=C1.[Na]", "physical_data": {"Molecular Weight": "", "Molecular Formula": "C8H7ClO3.Na", "Melting Point": "164 \u00b0C"}}