{"cas_no": "13734-28-6", "cn_name": "N-alpha-\u53d4\u4e01\u6c27\u7fb0\u57fa-L-\u8d56\u6c28\u9178", "en_name": ["\u03b1-tert-Butoxycarbonyl-L-lysine", "L-Lysine, N2-[(1,1-dimethylethoxy)carbonyl]-", "Lysine, N2-carboxy-, N2-tert-butyl ester, L-", "N2-[(1,1-Dimethylethoxy)carbonyl]-L-lysine", "N2-tert-Butoxycarbonyl-L-lysine", "BOC-Lys-OH", "\u03b1-N-tert-Butoxycarbonyl-L-lysine", "\u03b1-tert-Butoxycarbonyl-L-lysine", "N\u03b1-BOC-L-lysine", "NSC 343721", "\u03b1-N-Boc-lysine", "N-\u03b1-(tert-Butoxycarbonyl)-L-lysine", "(S)-6-Amino-2-(tert-butoxycarbonylamino)hexanoic acid", "N-tert-Butoxycarbonyllysine", "N\u03b1-Boc-L-lysine", "BOC-L-Lys-OH", "(2S)-6-Amino-2-[[(tert-butoxy)carbonyl]amino]hexanoic acid", "(2S)-6-Azaniumyl-2-[(2-methylpropan-2-yl)oxycarbonylamino]hexanoate", "N-Boc-lysine"], "SMILES": "C(NC(OC(C)(C)C)=O)(CCCCN)C(O)=O", "physical_data": {"Molecular Weight": "246.30", "Molecular Formula": "C11H22N2O4", "Melting Point": "195-196 \u00b0C"}}