{"cas_no": "13731-82-3", "cn_name": "2,5-\u4e8c\u6eb4\u5bf9\u82ef\u4e8c\u7532\u9178", "en_name": ["2,5-Dibromo-1,4-benzenedicarboxylic acid", "1,4-Benzenedicarboxylic acid, 2,5-dibromo-", "Terephthalic acid, 2,5-dibromo-", "2,5-Dibromo-1,4-benzenedicarboxylic acid", "2,5-Dibromoterephthalic acid", "NSC 115430", "2,5-Dibromo-4-carboxybenzoic acid", "1,4-Dibromo-2,5-benzenedicarboxylic acid", "2,5-Dibromotetrephthalic acid"], "SMILES": "C(O)(=O)C1=C(Br)C=C(C(O)=O)C(Br)=C1", "physical_data": {"Molecular Weight": "323.92", "Molecular Formula": "C8H4Br2O4", "Melting Point": "313 \u00b0C"}}