{"cas_no": "13735-13-2", "cn_name": "6-\u6eb4-2,3-\u4e8c\u6c22\u786b\u8272\u70ef-4-\u916e", "en_name": ["6-Bromo-2,3-dihydro-4H-1-benzothiopyran-4-one", "4H-1-Benzothiopyran-4-one, 6-bromo-2,3-dihydro-", "Thiochroman-4-one, 6-bromo-", "6-Bromo-2,3-dihydro-4H-1-benzothiopyran-4-one", "6-Bromothiochroman-4-one", "2,3-Dihydro-6-bromo-4H-1-benzothiopyran-4-one", "6-Bromo-2,3-dihydro-4H-thiochromen-4-one"], "SMILES": "O=C1C=2C(=CC=C(Br)C2)SCC1", "physical_data": {"Molecular Weight": "243.12", "Molecular Formula": "C9H7BrOS", "Melting Point": "70 \u00b0C"}}