{"cas_no": "13739-02-1", "cn_name": "\u53cc\u918b\u745e\u56e0", "en_name": ["Diacerein", "2-Anthracenecarboxylic acid, 4,5-bis(acetyloxy)-9,10-dihydro-9,10-dioxo-", "2-Anthroic acid, 9,10-dihydro-4,5-dihydroxy-9,10-dioxo-, diacetate", "Rhein, diacetate", "4,5-Bis(acetyloxy)-9,10-dihydro-9,10-dioxo-2-anthracenecarboxylic acid", "1,8-Diacetoxy-3-carboxyanthraquinone", "Diacetylrhein", "4,5-Diacetylrhein", "Diacerhein", "Diacerein", "4,5-Diacetoxyanthraquinone-2-carboxylic acid", "DAR", "SF 277", "Fisiodar", "Artrodar", "4,5-Diacetoxy-9,10-dioxoanthracene-2-carboxylic acid", "Osteocerein", "AC 201", "Inflabion"], "SMILES": "O(C(C)=O)C1=C2C(C(=O)C=3C(C2=O)=C(OC(C)=O)C=CC3)=CC(C(O)=O)=C1", "physical_data": {"Molecular Weight": "368.29", "Molecular Formula": "C19H12O8", "Melting Point": "217.5 \u00b0C"}}