{"cas_no": "13734-36-6", "cn_name": "\u53d4\u4e01\u6c27\u7fb0\u9170\u57fa\u808c\u6c28\u9178", "en_name": ["[(tert-Butoxycarbonyl)(methyl)amino]acetic acid", "Glycine, N-[(1,1-dimethylethoxy)carbonyl]-N-methyl-", "Sarcosine, N-carboxy-, N-tert-butyl ester", "N-[(1,1-Dimethylethoxy)carbonyl]-N-methylglycine", "N-(tert-Butoxycarbonyl)sarcosine", "N-(tert-Butyloxycarbonyl)sarcosine", "(tert-Butyloxycarbonyl)sarcosine", "(tert-Butoxycarbonyl)sarcosine", "(t-Butoxycarbonyl)sarcosine", "[N-(tert-Butoxycarbonyl)-N-methylamino]acetic acid", "2-[(tert-Butoxycarbonyl)(methyl)amino]acetic acid", "[(tert-Butoxycarbonyl)(methyl)amino]acetic acid", "N-(tert-Butoxycarbonyl)-N-methylglycine", "Boc-sarcosine", "2-((t-Butoxycarbonyl)(methyl)amino)acetic acid", "N-Methyl-N-Boc-glycine", "Boc-N-Me-Gly-OH", "2-[Methyl-[(2-methylpropan-2-yl)oxycarbonyl]amino]acetic acid", "N-Methyl-2-(tert-butoxycarbonylamino)acetic acid"], "SMILES": "C(N(CC(O)=O)C)(OC(C)(C)C)=O", "physical_data": {"Molecular Weight": "189.21", "Molecular Formula": "C8H15NO4", "Melting Point": "88-90 \u00b0C"}}