{"cas_no": "13749-61-6", "cn_name": "N-\u5f02\u4e19\u57fa\u7532\u57fa\u4e19\u70ef\u9170\u80fa", "en_name": ["N-Isopropylmethacrylamide", "2-Propenamide, 2-methyl-N-(1-methylethyl)-", "Acrylamide, N-isopropyl-2-methyl-", "2-Methyl-N-(1-methylethyl)-2-propenamide", "N-Isopropylmethacrylamide", "2-Methyl-N-propan-2-ylprop-2-enamide", "2-Methyl-N-(propan-2-yl)prop-2-enamide"], "SMILES": "C(NC(C)C)(C(C)=C)=O", "physical_data": {"Molecular Weight": "127.18", "Molecular Formula": "C7H13NO", "Melting Point": "87.8 \u00b0C"}}