{"cas_no": "13749-38-7", "cn_name": "1,2-\u4e8c\u6eb4-1,1,2-\u4e09\u6c2f\u4e59\u70f7", "en_name": ["1,2-Dibromo-1,1,2-trichloroethane", "Ethane, 1,2-dibromo-1,1,2-trichloro-", "1,2-Dibromo-1,1,2-trichloroethane"], "SMILES": "C(C(Br)Cl)(Br)(Cl)Cl", "physical_data": {"Molecular Weight": "291.20", "Molecular Formula": "C2HBr2Cl3", "Boiling Point": "125-126 \u00b0C @ Press: 35 Torr"}}