{"cas_no": "1374639-77-6", "cn_name": "2-\u6c2f-7-\u73af\u620a\u57fa-7H-\u5421\u54af\u5e76[2,3-D]\u5627\u5576-6-\u7532\u9187", "en_name": ["2-Chloro-7-cyclopentyl-7H-pyrrolo[2,3-d]pyrimidine-6-methanol", "7H-Pyrrolo[2,3-d]pyrimidine-6-methanol, 2-chloro-7-cyclopentyl-", "2-Chloro-7-cyclopentyl-7H-pyrrolo[2,3-d]pyrimidine-6-methanol", "(2-Chloro-7-cyclopentyl-7H-pyrrolo[2,3-d]pyrimidin-6-yl)methanol", "(2-Chloro-7-cyclopentyl-7H-pyrrolo[2,3-d]pyriMidin-6-yl)Methanol"], "SMILES": "C(O)C=1N(C=2C(C1)=CN=C(Cl)N2)C3CCCC3", "physical_data": {"Molecular Weight": "251.71", "Molecular Formula": "C12H14ClN3O", "Melting Point": "176-178 \u00b0C"}}