{"cas_no": "13748-90-8", "cn_name": "L-alpha-\u7f9f\u57fa\u5f02\u5df1\u9178", "en_name": ["L-Leucic acid", "Pentanoic acid, 2-hydroxy-4-methyl-, (2S)-", "Valeric acid, 2-hydroxy-4-methyl-, L-(+)-", "Pentanoic acid, 2-hydroxy-4-methyl-, (S)-", "(2S)-2-Hydroxy-4-methylpentanoic acid", "L-\u03b1-Hydroxyisocaproic acid", "L-2-Hydroxy-4-methylvaleric acid", "L-Leucic acid", "L-2-Hydroxyisocaproic acid", "(S)-Leucic acid", "S-2-Hydroxy-4-methylpentanoic acid", "(S)-2-Hydroxyisocaproic acid", "(+)-\u03b1-Hydroxyisocaproic acid", "(+)-2-Hydroxyisocaproic acid", "(2S)-Hydroxy-4-methylpentanoic acid", "(2S)-2-Hydroxy-4-methylpentanoic acid"], "SMILES": "C(CC(C)C)(C(O)=O)O", "physical_data": {"Molecular Weight": "132.16", "Molecular Formula": "C6H12O3", "Melting Point": "75-77 \u00b0C"}}