{"cas_no": "13745-86-3", "cn_name": "11-\u6c2f-\u4e8c\u82ef\u5e76[b,f][1,4]\u786b\u6c2e\u6742\u5353", "en_name": ["11-Chlorodibenzo[b,f][1,4]thiazepine", "Dibenzo[b,f][1,4]thiazepine, 11-chloro-", "11-Chlorodibenzo[b,f][1,4]thiazepine"], "SMILES": "ClC=1C=2C(SC=3C(N1)=CC=CC3)=CC=CC2", "physical_data": {"Molecular Weight": "245.73", "Molecular Formula": "C13H8ClNS", "Melting Point": "110-111 \u00b0C"}}