{"cas_no": "13754-56-8", "cn_name": "\u76d0\u9178\u4e8c\u6c27\u4e19\u55ea", "en_name": ["Dioxopromethazine", "10H-Phenothiazine-10-ethanamine, N,N,\u03b1-trimethyl-, 5,5-dioxide", "Phenothiazine, 10-[2-(dimethylamino)propyl]-, 5,5-dioxide", "Promethazine 5,5-dioxide", "Prothanon", "9,9-Dioxopromethazine", "9,9-Dioxypromethazin", "Dioxopromethazine", "1-(5,5-Dioxophenothiazin-10-yl)-N,N-dimethylpropan-2-amine"], "SMILES": "C(C(N(C)C)C)N1C=2C(S(=O)(=O)C=3C1=CC=CC3)=CC=CC2", "physical_data": {"Molecular Weight": "316.42", "Molecular Formula": "C17H20N2O2S", "Melting Point": "127-129 \u00b0C"}}