{"cas_no": "13759-10-9", "cn_name": "\u786b\u5316\u7845", "en_name": ["Silicon sulfide (SiS2)", "Silicon sulfide (SiS2)", "Silicon disulfide"], "SMILES": "[Si](=S)=S", "physical_data": {"Molecular Weight": "92.22", "Molecular Formula": "S2Si", "Boiling Point": "1090 \u00b0C", "Density": "2.02 g/cm\u00b3"}}