{"cas_no": "13754-19-3", "cn_name": "4,5-\u4e8c\u6c28\u57fa\u5627\u5576", "en_name": ["4,5-Diaminopyrimidine", "4,5-Pyrimidinediamine", "Pyrimidine, 4,5-diamino-", "4,5-Diaminopyrimidine", "5,6-Diaminopyrimidine", "NSC 14348"], "SMILES": "NC=1C(N)=NC=NC1", "physical_data": {"Molecular Weight": "110.12", "Molecular Formula": "C4H6N4", "Melting Point": "205-206 \u00b0C"}}