{"cas_no": "13750-62-4", "cn_name": "1-\u82c4\u57fa-2-\u7532\u57fa\u54aa\u5511", "en_name": ["1-Benzyl-2-methylimidazole", "1H-Imidazole, 2-methyl-1-(phenylmethyl)-", "Imidazole, 1-benzyl-2-methyl-", "2-Methyl-1-(phenylmethyl)-1H-imidazole", "1-Benzyl-2-methylimidazole", "N-Benzyl-2-methylimidazole", "Curezol 1B2MZ", "1B2MZ", "2-Methyl-N-benzylimidazole", "Epicure BMI 12", "1-Benzyl-2-methyl-1H-imidazole", "JER Cure BMI 12", "Texnol BEM 12", "1-Phenylmethyl-2-methylimidazole", "BMI 12"], "SMILES": "C(N1C(C)=NC=C1)C2=CC=CC=C2", "physical_data": {"Molecular Weight": "172.23", "Molecular Formula": "C11H12N2", "Boiling Point": "125-127 \u00b0C @ Press: 3 Torr"}}