{"cas_no": "13754-86-4", "cn_name": "1,5,6,7-\u56db\u6c22-4H-\u5432\u54da-4-\u916e", "en_name": ["1,5,6,7-Tetrahydro-4H-indol-4-one", "4H-Indol-4-one, 1,5,6,7-tetrahydro-", "Indol-4(5H)-one, 6,7-dihydro-", "1,5,6,7-Tetrahydro-4H-indol-4-one", "4-Oxo-4,5,6,7-tetrahydroindole", "4,5,6,7-Tetrahydro-4-indolone", "4,5,6,7-Tetrahydro-4-oxoindole", "1,5,6,7-Tetrahydroindol-4-one", "NSC 131681", "6,7-Dihydro-1H-indol-4(5H)-one"], "SMILES": "O=C1C2=C(CCC1)NC=C2", "physical_data": {"Molecular Weight": "135.16", "Molecular Formula": "C8H9NO", "Boiling Point": "160-180 \u00b0C @ Press: 0.02 Torr", "Melting Point": "187-188 \u00b0C"}}