{"cas_no": "13752-51-7", "cn_name": "\u4fc3\u8fdb\u5242 OTOS", "en_name": ["OTOS", "4-Morpholinecarbodithioic acid, 4-morpholinyl ester", "Morpholine, 4-[(morpholinothiocarbonyl)thio]-", "Morpholine, 4-[(4-morpholinylthio)thioxomethyl]-", "N,N:N\u2032,N\u2032-Bis(oxydiethylene)thiocarbamoylsulfenamide", "N,N\u2032-Bis(oxydiethylene)thiocarbamoylsulfenamide", "N-Oxydiethylenethiocarbamoyl-N\u2032-oxydiethylenesulfenamide", "4-[(Morpholinothio)thiocarbonyl]morpholine", "N,N\u2032-[(Thiocarbonyl)thio]dimorpholine", "N-Oxydiethylene thiocarbamyl-N-oxydiethylene sulfenamide", "Cure-rite 18", "Accelerator OTOS", "OTOS", "Curite 18"], "SMILES": "C(SN1CCOCC1)(=S)N2CCOCC2", "physical_data": {"Molecular Weight": "248.37", "Molecular Formula": "C9H16N2O2S2", "Melting Point": "139 \u00b0C"}}