{"cas_no": "13760-83-3", "cn_name": "\u6c1f\u5316\u94d2", "en_name": ["Erbium fluoride", "Erbium fluoride (ErF3)", "Erbium trifluoride", "Erbium fluoride", "ErF3"], "SMILES": "[Er](F)(F)F", "physical_data": {"Molecular Weight": "", "Molecular Formula": "ErF3", "Melting Point": "1146 \u00b0C"}}