{"cas_no": "13760-80-0", "cn_name": "\u6c1f\u5316\u9571", "en_name": ["Ytterbium fluoride", "Ytterbium fluoride (YbF3)", "Ytterbium trifluoride", "Ytterbium fluoride", "SG-YBF 100", "SG-YBF 100-702", "SG-YBF 20", "YbF-20-AV 330"], "SMILES": "[Yb](F)(F)F", "physical_data": {"Molecular Weight": "", "Molecular Formula": "F3Yb", "Melting Point": "1207 \u00b0C"}}