{"cas_no": "13760-81-1", "cn_name": "\u6c1f\u5316\u9565", "en_name": ["Lutetium fluoride", "Lutetium fluoride (LuF3)", "Lutetium trifluoride", "Lutetium fluoride"], "SMILES": "[Lu](F)(F)F", "physical_data": {"Molecular Weight": "", "Molecular Formula": "F3Lu", "Melting Point": "1184 \u00b0C"}}