{"cas_no": "13768-86-0", "cn_name": "\u4e09\u6c27\u5316\u7852", "en_name": ["Selenium trioxide", "Selenium oxide (SeO3)", "Selenium trioxide", "Selenium trioxide (SeO3)"], "SMILES": "[Se](=O)(=O)=O", "physical_data": {"Molecular Weight": "126.96", "Molecular Formula": "O3Se", "Melting Point": "118 \u00b0C", "Density": "3.6 g/cm\u00b3"}}