{"cas_no": "13769-20-5", "cn_name": "\u6c2f\u5316\u94d5", "en_name": ["Europium chloride (EuCl2)", "Europium chloride (EuCl2)", "Europium dichloride", "NSC 281264"], "SMILES": "[Eu](Cl)Cl", "physical_data": {"Molecular Weight": "", "Molecular Formula": "Cl2Eu", "Boiling Point": "2190 \u00b0C", "Melting Point": "738 \u00b0C"}}