{"cas_no": "13762-51-1", "cn_name": "\u787c\u6c22\u5316\u94be", "en_name": ["Potassium borohydride", "Borate(1-), tetrahydro-, potassium (1:1)", "Borate(1-), tetrahydro-, potassium", "Potassium tetrahydroborate", "Potassium borohydride", "Potassium tetrahydroborate(1-)", "Potassium borohydride (KBH4)", "Potassium tetrahydroborate (KBH4)"], "SMILES": "[B+3]([H-])([H-])([H-])[H-].[K+]", "physical_data": {"Molecular Weight": "", "Molecular Formula": "BH4.K", "Melting Point": "585 \u00b0C"}}