{"cas_no": "137628-17-2", "cn_name": "2,3-\u4e8c\u6eb4-5-\u6c2f\u5421\u5576", "en_name": ["2,3-Dibromo-5-chloropyridine", "Pyridine, 2,3-dibromo-5-chloro-", "2,3-Dibromo-5-chloropyridine"], "SMILES": "BrC1=C(Br)N=CC(Cl)=C1", "physical_data": {"Molecular Weight": "271.34", "Molecular Formula": "C5H2Br2ClN", "Melting Point": "38-41 \u00b0C"}}