{"cas_no": "13760-78-6", "cn_name": "\u6c1f\u5316\u94ac", "en_name": ["Holmium fluoride", "Holmium fluoride (HoF3)", "Holmium trifluoride", "Holmium fluoride"], "SMILES": "[Ho](F)(F)F", "physical_data": {"Molecular Weight": "", "Molecular Formula": "F3Ho", "Melting Point": "1145 \u00b0C"}}