{"cas_no": "13762-75-9", "cn_name": "\u504f\u78f7\u9178\u9502", "en_name": ["Lithium metaphosphate", "Metaphosphoric acid (HPO3), lithium salt", "Lithium metaphosphate (LiPO3)", "Lithium phosphate (LiPO3)", "Lithium polymetaphosphate", "Lithium metaphosphate", "Lithium metaphosphate (Li(PO3))"], "SMILES": "P(=O)(=O)O.[Li]", "physical_data": {"Molecular Weight": "", "Molecular Formula": "HO3P.Li", "Melting Point": "656 \u00b0C", "Density": "2.73 g/cm\u00b3"}}