{"cas_no": "13765-26-9", "cn_name": "\u6c1f\u5316\u9486", "en_name": ["Gadolinium fluoride", "Gadolinium fluoride (GdF3)", "Gadolinium trifluoride", "Gadolinium fluoride"], "SMILES": "[Gd](F)(F)F", "physical_data": {"Molecular Weight": "", "Molecular Formula": "F3Gd", "Melting Point": "1231 \u00b0C"}}