{"cas_no": "13765-03-2", "cn_name": "\u7898\u9178\u9502", "en_name": ["Lithium iodate", "Iodic acid (HIO3), lithium salt (1:1)", "Iodic acid (HIO3), lithium salt", "Lithium iodate (LiIO3)", "Lithium iodate"], "SMILES": "I(=O)(=O)O.[Li]", "physical_data": {"Molecular Weight": "", "Molecular Formula": "HIO3.Li", "Melting Point": "430 \u00b0C"}}