{"cas_no": "13765-24-7", "cn_name": "\u65e0\u6c34\u6c1f\u5316\u9490", "en_name": ["Samarium fluoride", "Samarium fluoride (SmF3)", "Samarium trifluoride", "Samarium fluoride"], "SMILES": "[Sm](F)(F)F", "physical_data": {"Molecular Weight": "", "Molecular Formula": "F3Sm", "Melting Point": "1397 \u00b0C"}}