{"cas_no": "13777-23-6", "cn_name": "\u7898\u5316\u94ea", "en_name": ["Hafnium iodide (HfI4)", "Hafnium iodide (HfI4)", "Hafnium tetraiodide"], "SMILES": "[Hf](I)(I)(I)I", "physical_data": {"Molecular Weight": "", "Molecular Formula": "HfI4", "Boiling Point": "400 \u00b0C", "Density": "5.663 g/cm\u00b3"}}