{"cas_no": "13775-80-9", "cn_name": "\u6c22\u6eb4\u9178\u80bc", "en_name": ["Hydrazine, hydrobromide (1:1)", "Hydrazine, hydrobromide (1:1)", "Hydrazine, monohydrobromide", "Hydrazine, hydrobromide", "Hydrazinium bromide"], "SMILES": "NN.Br", "physical_data": {"Molecular Weight": "", "Molecular Formula": "BrH.H4N2", "Melting Point": "84 \u00b0C"}}