{"cas_no": "13775-52-5", "cn_name": "\u6c1f\u5316\u94dd\u94be", "en_name": ["Aluminate(3-), hexafluoro-, potassium (1:3), (OC-6-11)-", "Aluminate(3-), hexafluoro-, potassium (1:3), (OC-6-11)-", "Aluminate(3-), hexafluoro-, tripotassium", "Potassium hexafluoroaluminate", "Aluminate(3-), hexafluoro-, tripotassium, (OC-6-11)-", "Potassium hexafluoroaluminate (K3[AlF6])", "Aluminum potassium fluoride (K3AlF6)", "Tripotassium hexafluoroaluminate", "Tripotassium hexafluoroaluminate(3-)", "Potassium fluoaluminate (K3AlF6)", "Potassium aluminum fluoride (K3AlF6)", "Potassium fluoroaluminate", "Aluminum potassium fluoride (AlK3F6)", "Aluminum tripotassium hexafluoride", "Potassium hexafluoroaluminate(3-)"], "SMILES": "[Al+3]([F-])([F-])([F-])([F-])([F-])[F-].[K+]", "physical_data": {"Molecular Weight": "", "Molecular Formula": "AlF6.3K", "Melting Point": "548 \u00b0C"}}