{"cas_no": "13774-81-7", "cn_name": "\u787c\u70f7\u6c28\u7edc\u5408\u7269", "en_name": ["Ammonia borane", "Boron, amminetrihydro-, (T-4)-", "Borane, monoammoniate", "Borane, ammoniate", "Borine, ammoniate", "(T-4)-Amminetrihydroboron", "Ammonia borane", "Borazane", "Amminetrihydroboron", "Ammineborane", "Ammonia compd. with borane (1:1)", "Ammonia, mixt. contg.", "Borane, mixt. with ammonia"], "SMILES": "[B+3]([H-])([H-])([H-])[NH3]", "physical_data": {"Molecular Weight": "", "Molecular Formula": "BH6N", "Melting Point": "111-114 \u00b0C"}}