{"cas_no": "13775-53-6", "cn_name": "\u516d\u6c1f\u94dd\u9178\u94a0", "en_name": ["Trisodium hexafluoroaluminate", "Aluminate(3-), hexafluoro-, sodium (1:3), (OC-6-11)-", "Aluminate(3-), hexafluoro-, trisodium", "Aluminate(3-), hexafluoro-, trisodium, (OC-6-11)-", "Sodium hexafluoroaluminate (Na3AlF6)", "Trisodium aluminum hexafluoride", "Trisodium hexafluoroaluminate", "Sodium fluoroaluminate (Na3AlF6)", "Aluminum sodium fluoride (Na3AlF6)", "Sodium fluoaluminate(3-)", "Sodium aluminum hexafluoride", "Aluminum trisodium hexafluoride", "Aluminum sodium hexafluoride (AlNa3F6)", "Sodium hexafluoroaluminate(3-)"], "SMILES": "[Al+3]([F-])([F-])([F-])([F-])([F-])[F-].[Na+]", "physical_data": {"Molecular Weight": "", "Molecular Formula": "AlF6.3Na", "Melting Point": "1008 \u00b0C", "Density": "2.95 g/cm\u00b3 @ Temp: 20 \u00b0C"}}