{"cas_no": "137848-29-4", "cn_name": "(S)-(+)-2-\u6c28\u57fa-2'-\u7f9f\u57fa-1,1'-\u8054\u8418", "en_name": ["(-)-2\u2032-Amino-1,1\u2032-binaphthalen-2-ol", "[1,1\u2032-Binaphthalen]-2-ol, 2\u2032-amino-, (1S)-", "[1,1\u2032-Binaphthalen]-2-ol, 2\u2032-amino-, (S)-", "(1S)-2\u2032-Amino[1,1\u2032-binaphthalen]-2-ol", "(S)-NOBIN", "(S)-2-Amino-2\u2032-hydroxy-1,1\u2032-binaphthyl", "(S)-2\u2032-Amino-1,1\u2032-binaphthalen-2-ol", "(-)-2\u2032-Amino-1,1\u2032-binaphthalen-2-ol"], "SMILES": "NC1=C(C2=C(C=C1)C=CC=C2)C=3C4=C(C=CC3O)C=CC=C4", "physical_data": {"Molecular Weight": "285.34", "Molecular Formula": "C20H15NO", "Melting Point": "169-171 \u00b0C"}}