{"cas_no": "13781-53-8", "cn_name": "3-\u567b\u5429\u4e59\u8148", "en_name": ["3-Thiopheneacetonitrile", "3-Thiopheneacetonitrile", "3-Thienylacetonitrile", "3-Cyanomethylthiophene", "2-(3-Thienyl)acetonitrile", "2-(Thiophen-3-yl)acetonitrile", "2-Thiophen-3-ylacetonitrile"], "SMILES": "C(C#N)C=1C=CSC1", "physical_data": {"Molecular Weight": "123.18", "Molecular Formula": "C6H5NS", "Boiling Point": "203-205 \u00b0C", "Density": "1.172 g/cm\u00b3 @ Temp: 20 \u00b0C"}}