{"cas_no": "13781-67-4", "cn_name": "\u567b\u5429-3-\u4e59\u9187", "en_name": ["3-Thiopheneethanol", "3-Thiopheneethanol", "2-(3-Thienyl)ethanol", "3-(2-Hydroxyethyl)thiophene", "2-(3-Thienyl)-1-ethanol", "2-(Thiophen-3-yl)ethanol", "2-(Thiophen-3-yl)ethan-1-ol"], "SMILES": "C(CO)C=1C=CSC1", "physical_data": {"Molecular Weight": "128.19", "Molecular Formula": "C6H8OS", "Boiling Point": "110-111 \u00b0C @ Press: 14 Torr", "Density": "1.169 g/cm\u00b3 @ Temp: 20 \u00b0C"}}