{"cas_no": "137862-53-4", "cn_name": "\u7f2c\u6c99\u5766", "en_name": ["Valsartan", "L-Valine, N-(1-oxopentyl)-N-[[2\u2032-(2H-tetrazol-5-yl)[1,1\u2032-biphenyl]-4-yl]methyl]-", "L-Valine, N-(1-oxopentyl)-N-[[2\u2032-(1H-tetrazol-5-yl)[1,1\u2032-biphenyl]-4-yl]methyl]-", "N-(1-Oxopentyl)-N-[[2\u2032-(2H-tetrazol-5-yl)[1,1\u2032-biphenyl]-4-yl]methyl]-L-valine", "Valsartan", "CGP 48933", "Diovan", "Tareg", "Nisis", "Valsartanin", "Cardopan", "Valsarect", "Vazar", "(2S)-3-Methyl-2-[pentanoyl-[[4-[2-(2H-tetrazol-5-yl)phenyl]phenyl]methyl]amino]butanoic acid", "Valsacor", "Valtensin"], "SMILES": "C(N(C(C(C)C)C(O)=O)C(CCCC)=O)C1=CC=C(C2=C(C=CC=C2)C=3NN=NN3)C=C1", "physical_data": {"Molecular Weight": "435.52", "Molecular Formula": "C24H29N5O3", "Melting Point": "116-117 \u00b0C"}}