{"cas_no": "13780-06-8", "cn_name": "\u4e9a\u785d\u9178\u9499", "en_name": ["Calcium nitrite", "Nitrous acid, calcium salt (2:1)", "Nitrous acid, calcium salt", "Calcium nitrite", "Calcium nitrite (Ca(NO2)2)", "Calcium dinitrite", "Daraset", "DCI (corrosion inhibitor)", "DCI", "DCI-S", "CANI 30"], "SMILES": "N(=O)O.[Ca]", "physical_data": {"Molecular Weight": "", "Molecular Formula": "Ca.2HNO2", "Melting Point": "390 \u00b0C"}}