{"cas_no": "13794-15-5", "cn_name": "2-(4-\u7532\u6c27\u57fa\u82ef\u6c27\u57fa)\u4e19\u9178", "en_name": ["2-(4-Methoxyphenoxy)propionic acid", "Propanoic acid, 2-(4-methoxyphenoxy)-", "Propionic acid, 2-(p-methoxyphenoxy)-", "2-(4-Methoxyphenoxy)propanoic acid", "Lactisol", "2-(4-Methoxyphenoxy)propionic acid", "NSC 352144", "2-(p-Methoxyphenoxy)propionic acid"], "SMILES": "O(C(C(O)=O)C)C1=CC=C(OC)C=C1", "physical_data": {"Molecular Weight": "196.20", "Molecular Formula": "C10H12O4", "Boiling Point": "173-175 \u00b0C @ Press: 1 Torr", "Melting Point": "90 \u00b0C"}}