{"cas_no": "13799-90-1", "cn_name": "2,5-\u4e8c\u6c2f\u5bf9\u4e8c\u82ef\u7532\u9178", "en_name": ["2,5-Dichloro-1,4-benzenedicarboxylic acid", "1,4-Benzenedicarboxylic acid, 2,5-dichloro-", "Terephthalic acid, 2,5-dichloro-", "2,5-Dichloro-1,4-benzenedicarboxylic acid", "2,5-Dichloroterephthalic acid", "NSC 59392", "2,5-Dichloro-4-carboxybenzoic acid"], "SMILES": "C(O)(=O)C1=C(Cl)C=C(C(O)=O)C(Cl)=C1", "physical_data": {"Molecular Weight": "235.02", "Molecular Formula": "C8H4Cl2O4", "Melting Point": "306 \u00b0C"}}