{"cas_no": "13795-24-9", "cn_name": "4-\u785d\u57fa\u82ef\u57fa\u78b3\u9178\u82c4\u916f", "en_name": ["Benzyl 4-nitrophenyl carbonate", "Carbonic acid, 4-nitrophenyl phenylmethyl ester", "Carbonic acid, benzyl p-nitrophenyl ester", "Benzyl p-nitrophenyl carbonate", "4-Nitrophenyl benzyl carbonate", "p-Nitrophenyl benzyl carbonate", "Benzyl 4-nitrophenyl carbonate", "NSC 171047"], "SMILES": "O(C(OCC1=CC=CC=C1)=O)C2=CC=C(N(=O)=O)C=C2", "physical_data": {"Molecular Weight": "273.24", "Molecular Formula": "C14H11NO5", "Melting Point": "78-79 \u00b0C"}}