{"cas_no": "13794-14-4", "cn_name": "2-\u82ef\u6c27\u57fa\u4e01\u9178", "en_name": ["2-Phenoxybutanoic acid", "Butanoic acid, 2-phenoxy-", "Butyric acid, 2-phenoxy-", "Butyric acid, \u03b1-phenoxy-", "2-Phenoxybutanoic acid", "\u03b1-Phenoxybutyric acid", "2-Phenoxybutyric acid", "DL-2-Phenoxybutyric acid"], "SMILES": "O(C(C(O)=O)CC)C1=CC=CC=C1", "physical_data": {"Molecular Weight": "180.20", "Molecular Formula": "C10H12O3", "Boiling Point": "258 \u00b0C", "Melting Point": "98 \u00b0C"}}