{"cas_no": "138-92-1", "cn_name": "\u76d0\u9178\u500d\u4ed6\u5511", "en_name": ["1H-Pyrazole-3-ethanamine, hydrochloride (1:2)", "1H-Pyrazole-3-ethanamine, hydrochloride (1:2)", "Pyrazole, 3-(2-aminoethyl)-, dihydrochloride", "1H-Pyrazole-3-ethanamine, dihydrochloride", "Pyrazole, 3(or 5)-(2-aminoethyl)-, dihydrochloride", "Ametazole dihydrochloride", "3-(2-Aminoethyl)pyrazole dihydrochloride", "Betazole dihydrochloride", "Betazole hydrochloride", "Gastramine", "Histalog", "3-(\u03b2-Aminoethyl)pyrazole dihydrochloride", "Ametazole hydrochloride", "Betazol hydrochloride", "Gastramine hydrochloride", "[2-(1H-Pyrazol-3-yl)ethyl]amine dihydrochloride", "2-(1H-Pyrazol-3-yl)ethan-1-amine dihydrochloride"], "SMILES": "C(CN)C=1C=CNN1.Cl", "physical_data": {"Molecular Weight": "", "Molecular Formula": "C5H9N3.2ClH", "Melting Point": "223-224 \u00b0C"}}