{"cas_no": "138-15-8", "cn_name": "L-\u8c37\u6c28\u9178\u76d0\u9178\u76d0", "en_name": ["L-Glutamic acid, hydrochloride", "L-Glutamic acid, hydrochloride (1:1)", "Glutamic acid, hydrochloride, L-", "L-Glutamic acid, hydrochloride", "Acidalin", "Acidoride", "Acidothyn", "Aciglumin", "Acidulin", "Aclor", "Acridogen", "Acridoride", "2-Aminopentanedioic acid hydrochloride", "Antalka", "Gastuloric", "Glusatin", "Glutamic acid hydrochloride", "Glutamidin", "Glutan Hydrochloric", "Glutan hydrochloride", "Glutasin", "Hydrionic", "Hypochylin", "Muriamic", "Pepsdol", "L-Glutamic acid monohydrochloride", "Acidogen", "Acidulen", "Pepsidol", "Glutan HCl", "Glutamic acid monohydrochloride", "L(+)-Glutamic acid hydrochloride", "NSC 9239"], "SMILES": "C(CCC(O)=O)(C(O)=O)N.Cl", "physical_data": {"Molecular Weight": "", "Molecular Formula": "C5H9NO4.ClH", "Melting Point": "214 \u00b0C (decomp)", "Density": "1.525 g/cm\u00b3"}}