{"cas_no": "138-65-8", "cn_name": "DL-\u53bb\u7532\u80be\u4e0a\u817a\u7d20", "en_name": ["(\u00b1)-Norepinephrine", "1,2-Benzenediol, 4-(2-amino-1-hydroxyethyl)-", "Benzyl alcohol, \u03b1-(aminomethyl)-3,4-dihydroxy-, (\u00b1)-", "1,2-Benzenediol, 4-(2-amino-1-hydroxyethyl)-, (\u00b1)-", "Arterenol, dl-", "4-(2-Amino-1-hydroxyethyl)-1,2-benzenediol", "dl-Noradrenaline", "dl-Norepinephrine", "(\u00b1)-Noradrenaline", "(\u00b1)-Norepinephrine", "DL-Arterenol", "Racemic norepinephrine", "DL-Norepinephrine", "DL-Noradrenaline", "\u03b1-(Aminomethyl)-3,4-dihydroxybenzyl alcohol", "2-Amino-1-(3,4-dihydroxyphenyl)ethanol", "1-(3,4-Dihydroxy)phenyl-2-aminoethanol", "4-(1-Hydroxy-2-aminoethyl)catechol", "NSC 294898", "2-(Hydroxy)-2-(3,4-dihydroxyphenyl)ethylamine"], "SMILES": "C(CN)(O)C1=CC(O)=C(O)C=C1", "physical_data": {"Molecular Weight": "169.18", "Molecular Formula": "C8H11NO3", "Melting Point": "216.5-218 \u00b0C (decomp)"}}