{"cas_no": "138-32-9", "cn_name": "\u897f\u66f2\u94f5\u5bf9\u7532\u82ef\u78fa\u9178\u76d0", "en_name": ["Cetyltrimethylammonium tosylate", "1-Hexadecanaminium, N,N,N-trimethyl-, 4-methylbenzenesulfonate (1:1)", "Ammonium, hexadecyltrimethyl-, p-toluenesulfonate", "Hexadecyltrimethylammonium p-toluenesulfonate", "1-Hexadecanaminium, N,N,N-trimethyl-, salt with 4-methylbenzenesulfonic acid (1:1)", "Tricetol", "Cetats", "Cetyltrimethylammonium p-toluenesulfonate", "Cetyltrimethylammonium tosylate", "Quatrol", "Cetyltrimethylammonium 4-toluenesulfonate", "CTAOTOS", "Hexadecyltrimethylammonium p-tosylate", "Cetrimonium tosylate", "Hexadecyltrimethylammonium tosylate"], "SMILES": "C(CCCCCCCCCCCCC)CC[N+](C)(C)C.S(=O)(=O)([O-])C1=CC=C(C)C=C1", "physical_data": {"Molecular Weight": "", "Molecular Formula": "C19H42N.C7H7O3S", "Melting Point": "223-229 \u00b0C (decomp)"}}