{"cas_no": "138-89-6", "cn_name": "N,N-\u4e8c\u7532\u57fa-4-\u4e9a\u785d\u57fa\u82ef\u80fa", "en_name": ["N,N-Dimethyl-4-nitrosoaniline", "Benzenamine, N,N-dimethyl-4-nitroso-", "Aniline, N,N-dimethyl-p-nitroso-", "N,N-Dimethyl-4-nitrosobenzenamine", "Accelerine", "NDMA", "p-Nitroso-N,N-dimethylaniline", "Ultra Brilliant Blue P", "N,N-Dimethyl-4-nitrosoaniline", "p-(Dimethylamino)nitrosobenzene", "4-Nitroso-N,N-dimethylaniline", "4-(Dimethylamino)nitrosobenzene", "p-(N,N-Dimethylamino)nitrosobenzene", "1-(Dimethylamino)-4-nitrosobenzene", "N,N-Dimethyl-p-nitrosoaniline", "p-NDMA", "4-Nitroso-N,N-dimethylaminobenzene", "NSC 2775"], "SMILES": "N(C)(C)C1=CC=C(N=O)C=C1", "physical_data": {"Molecular Weight": "150.18", "Molecular Formula": "C8H10N2O", "Melting Point": "92.5-93.5 \u00b0C", "Density": "1.145 g/cm\u00b3 @ Temp: 20 \u00b0C"}}