{"cas_no": "138-14-7", "cn_name": "\u53bb\u94c1\u94f5", "en_name": ["Deferoxamine mesylate", "Butanediamide, N4-[5-[[4-[[5-(acetylhydroxyamino)pentyl]amino]-1,4-dioxobutyl]hydroxyamino]pentyl]-N1-(5-aminopentyl)-N1-hydroxy-, methanesulfonate (1:1)", "Propionohydroxamic acid, N-[5-[3-[(5-aminopentyl)hydroxycarbamoyl]propionamido]pentyl]-3-[[5-(N-hydroxyacetamido)pentyl]carbamoyl]-, monomethanesulfonate (salt)", "Butanediamide, N\u2032-[5-[[4-[[5-(acetylhydroxyamino)pentyl]amino]-1,4-dioxobutyl]hydroxyamino]pentyl]-N-(5-aminopentyl)-N-hydroxy-, monomethanesulfonate (salt)", "Propionohydroxamic acid, N-[5-[3-[(5-aminopentyl)hydroxycarbamoyl]propionamido]pentyl]-3-[[5-(N-hydroxyacetamido)pentyl]carbamoyl]-, methanesulfonate", "Desferrioxamine methanesulfonate", "Desferrioxamine B mesylate", "Desferrioxamine B methanesulfonate", "Deferoxamine B mesylate", "Deferrioxamine methanesulfonate", "Desferrioxamine mesylate", "Desferal mesylate", "Desferal", "Deferrioxamine B methanesulfonate", "Deferoxamine mesylate", "Deferoxamine methanesulfonate", "DFOM", "Ba 33112", "NSC 644468", "DFX mesylate", "Desferrioxamine mesilate"], "SMILES": "C(CCC(NCCCCCN(C(C)=O)O)=O)(N(CCCCCNC(CCC(N(CCCCCN)O)=O)=O)O)=O.S(C)(=O)(=O)O", "physical_data": {"Molecular Weight": "", "Molecular Formula": "C25H48N6O8.CH4O3S", "Melting Point": "148-149 \u00b0C"}}