{"cas_no": "138-41-0", "cn_name": "\u5bf9\u78fa\u9170\u80fa\u82ef\u7532\u9178", "en_name": ["4-Carboxybenzenesulfonamide", "Benzoic acid, 4-(aminosulfonyl)-", "Benzoic acid, p-sulfamoyl-", "Benzoic acid, p-sulfamyl-", "4-(Aminosulfonyl)benzoic acid", "Benzoic acid p-sulfamide", "p-Carboxybenzenesulfonamide", "Carzenide", "Dirnate", "p-Sulfamoylbenzoic acid", "p-Sulfamylbenzoic acid", "p-Sulfonamidobenzoic acid", "4-Carboxybenzenesulfonamide", "p-Aminobenzoic acid sulfamide", "4-Sulfamoylbenzoic acid", "NSC 22976", "NSC 683540", "p-Aminosulfonylbenzoic acid"], "SMILES": "S(N)(=O)(=O)C1=CC=C(C(O)=O)C=C1", "physical_data": {"Molecular Weight": "201.20", "Molecular Formula": "C7H7NO4S", "Melting Point": "290.5 \u00b0C (decomp)"}}