{"cas_no": "138-24-9", "cn_name": "\u82ef\u57fa\u4e09\u7532\u57fa\u6c2f\u5316\u94f5", "en_name": ["Phenyltrimethylammonium chloride", "Benzenaminium, N,N,N-trimethyl-, chloride (1:1)", "Ammonium, trimethylphenyl-, chloride", "Trimethylphenylammonium chloride", "Benzenaminium, N,N,N-trimethyl-, chloride", "Phenyltrimethylammonium chloride", "Trimethylanilinium chloride", "Ammonyx 200", "N,N,N-Trimethylanilinium chloride", "N,N,N-Trimethylphenylammonium chloride"], "SMILES": "[N+](C)(C)(C)C1=CC=CC=C1.[Cl-]", "physical_data": {"Molecular Weight": "", "Molecular Formula": "C9H14N.Cl", "Melting Point": "220-221 \u00b0C"}}