{"cas_no": "138-56-7", "cn_name": "\u66f2\u7f8e\u82c4\u80fa", "en_name": ["Trimethobenzamide", "Benzamide, N-[[4-[2-(dimethylamino)ethoxy]phenyl]methyl]-3,4,5-trimethoxy-", "Benzamide, N-[p-[2-(dimethylamino)ethoxy]benzyl]-3,4,5-trimethoxy-", "N-[[4-[2-(Dimethylamino)ethoxy]phenyl]methyl]-3,4,5-trimethoxybenzamide", "N-[p-[2-(Dimethylamino)ethoxy]benzyl]-3,4,5-trimethoxybenzamide", "4-(2-Dimethylaminoethoxy)-N-(3,4,5-trimethoxybenzoyl)benzylamine", "Trimethobenzamide", "Emedur", "N-(4-(2-(Dimethylamino)ethoxy)benzyl)-3,4,5-trimethoxybenzamide"], "SMILES": "C(NCC1=CC=C(OCCN(C)C)C=C1)(=O)C2=CC(OC)=C(OC)C(OC)=C2", "physical_data": {"Molecular Weight": "388.46", "Molecular Formula": "C21H28N2O5", "Melting Point": "188.7 \u00b0C"}}