{"cas_no": "138-38-5", "cn_name": "4-\u4e59\u57fa\u82ef\u78fa\u9170\u80fa", "en_name": ["4-Ethylbenzenesulfonamide", "Benzenesulfonamide, 4-ethyl-", "Benzenesulfonamide, p-ethyl-", "4-Ethylbenzenesulfonamide", "p-Ethylbenzenesulfonamide", "NSC 9909", "EBSA"], "SMILES": "S(N)(=O)(=O)C1=CC=C(CC)C=C1", "physical_data": {"Molecular Weight": "185.24", "Molecular Formula": "C8H11NO2S", "Melting Point": "109-110 \u00b0C"}}