{"cas_no": "138-52-3", "cn_name": "\u6c34\u6768\u7519", "en_name": ["Salicin", "\u03b2-D-Glucopyranoside, 2-(hydroxymethyl)phenyl", "Salicin", "2-(Hydroxymethyl)phenyl \u03b2-D-glucopyranoside", "o-(Hydroxymethyl)phenyl \u03b2-D-glucopyranoside", "Salicine", "Salicoside", "Salicyl alcohol glucoside", "Saligenin \u03b2-D-glucopyranoside", "1-\u03b2-D-Glucosyloxy-2-hydroxymethylbenzene", "D-Salicin", "NSC 5751"], "SMILES": "O(C1OC(CO)C(O)C(O)C1O)C2=C(CO)C=CC=C2", "physical_data": {"Molecular Weight": "286.28", "Molecular Formula": "C13H18O7", "Melting Point": "207 \u00b0C"}}