{"cas_no": "138-55-6", "cn_name": "\u82e6\u756a\u7d05\u82b1\u7d20", "en_name": ["Picrocrocin", "1-Cyclohexene-1-carboxaldehyde, 4-(\u03b2-D-glucopyranosyloxy)-2,6,6-trimethyl-, (4R)-", "1-Cyclohexene-1-carboxaldehyde, 4-(\u03b2-D-glucopyranosyloxy)-2,6,6-trimethyl-, (R)-", "(4R)-4-(\u03b2-D-Glucopyranosyloxy)-2,6,6-trimethyl-1-cyclohexene-1-carboxaldehyde", "Saffron-bitter", "Picrocrocin", "Picrocrocine"], "SMILES": "O(C1OC(CO)C(O)C(O)C1O)C2CC(C)(C)C(C=O)=C(C)C2", "physical_data": {"Molecular Weight": "330.37", "Molecular Formula": "C16H26O7", "Melting Point": "196 \u00b0C"}}