{"cas_no": "138-86-3", "cn_name": "\u53cc\u620a\u70ef", "en_name": ["Limonene", "Cyclohexene, 1-methyl-4-(1-methylethenyl)-", "p-Mentha-1,8-diene", "1-Methyl-4-(1-methylethenyl)cyclohexene", "Cajeputene", "Cinene", "Kautschin", "Nesol", "Limonene", "1-Methyl-4-isopropenyl-1-cyclohexene", "\u03b1-Limonene", "Dipentene", "1,8-p-Menthadiene", "Limonen", "Cajeputen", "Cinen", "Dipenten", "Eulimen", "4-Isopropenyl-1-methyl-1-cyclohexene", "4-Isopropenyl-1-methylcyclohexene", "1-Methyl-4-isopropenylcyclohexene", "Flavor orange", "Orange flavor", "1-Methyl-p-isopropenyl-1-cyclohexene", "PC 560", "Goldflush II", "(\u00b1)-Dipentene", "(\u00b1)-Limonene", "dl-Limonene", "DL-Limonene", "(\u00b1)-\u03b1-Limonene", "NSC 21446", "NSC 844", "Roti-Histol", "SF 001", "Orange X", "1-Methyl-4-(prop-1-en-2-yl)cyclohex-1-ene", "Lemosol", "Florasolv DPE", "(\u00b1)-1-Methyl-4-(1-methylvinyl)cyclohexene", "1-Methyl-4-(1-methylvinyl)cyclohexene"], "SMILES": "C(C)(=C)C1CCC(C)=CC1", "physical_data": {"Molecular Weight": "136.23", "Molecular Formula": "C10H16", "Boiling Point": "175.5-176.5 \u00b0C @ Press: 763 Torr", "Melting Point": "-95.5 \u00b0C", "Density": "0.8402 g/cm\u00b3 @ Temp: 20.85 \u00b0C"}}