{"cas_no": "138-39-6", "cn_name": "\u78fa\u80fa\u706d\u8113", "en_name": ["Mafenide", "Benzenesulfonamide, 4-(aminomethyl)-", "p-Toluenesulfonamide, \u03b1-amino-", "4-(Aminomethyl)benzenesulfonamide", "\u03b1-Amino-p-toluenesulfonamide", "Homosulfanilamide", "Mafenide", "Sulfamylon", "Benzamsulfonamide", "Homosul", "Maphenide", "p-(Aminomethyl)benzenesulfonamide", "4-Homosulfanilamide", "Mesudrin", "Mesudin", "Ambamide", "Neofamid", "Septicid", "Emilene", "Paramenyl", "Homonal", "Malfamin", "Maphenid", "Marprontil", "4-Sulfamoylbenzylamine", "p-Sulfamoylbenzylamine", "NSC 34632", "4-(Aminosulfonyl)benzylamine", "4-(Aminomethyl)benzene-1-sulfonamide"], "SMILES": "S(N)(=O)(=O)C1=CC=C(CN)C=C1", "physical_data": {"Molecular Weight": "186.23", "Molecular Formula": "C7H10N2O2S", "Melting Point": "151-152 \u00b0C"}}