{"cas_no": "138-59-0", "cn_name": "\u83bd\u8349\u9178", "en_name": ["Shikimic acid", "1-Cyclohexene-1-carboxylic acid, 3,4,5-trihydroxy-, (3R,4S,5R)-", "1-Cyclohexene-1-carboxylic acid, 3,4,5-trihydroxy-, [3R-(3\u03b1,4\u03b1,5\u03b2)]-", "(3R,4S,5R)-3,4,5-Trihydroxy-1-cyclohexene-1-carboxylic acid", "Shikimic acid", "[3R-(3\u03b1,4\u03b1,5\u03b2)]-3,4,5-Trihydroxy-1-cyclohexene-1-carboxylic acid", "(-)-Shikimic acid", "L-Shikimic acid", "NSC 59257", "(-)-3,4,5-Trihydroxy-1-cyclohexene-1-carboxylic acid", "MeSH ID: D012765"], "SMILES": "C(O)(=O)C=1CC(O)C(O)C(O)C1", "physical_data": {"Molecular Weight": "174.15", "Molecular Formula": "C7H10O5", "Boiling Point": "185-187 \u00b0C", "Melting Point": "183-184.5 \u00b0C"}}