{"cas_no": "138-22-7", "cn_name": "\u4e73\u9178\u4e01\u916f", "en_name": ["Butyl lactate", "Propanoic acid, 2-hydroxy-, butyl ester", "Lactic acid, butyl ester", "n-Butyl lactate", "2-Hydroxypropanoic acid butyl ester", "Butyl \u03b1-hydroxypropionate", "Butyl lactate", "(\u00b1)-n-Butyl lactate", "\u03b1-Hydroxypropionic acid butyl ester", "Butyl 2-hydroxypropanoate", "Butyl 2-hydroxypropionate", "NSC 6533", "Purasolv BL", "2-Hydroxypropionic acid 1-butyl ester"], "SMILES": "C(OCCCC)(C(C)O)=O", "physical_data": {"Molecular Weight": "146.18", "Molecular Formula": "C7H14O3", "Boiling Point": "186 \u00b0C", "Melting Point": "-28 \u00b0C", "Density": "0.9837 g/cm\u00b3 @ Temp: 20 \u00b0C"}}