{"cas_no": "138-60-3", "cn_name": "\u767d\u5c48\u6c28\u9178", "en_name": ["Chelidamic acid", "2,6-Pyridinedicarboxylic acid, 1,4-dihydro-4-oxo-", "Chelidamic acid", "1,4-Dihydro-4-oxo-2,6-pyridinedicarboxylic acid", "NSC 3983", "4-Oxo-1,4-dihydropyridine-2,6-dicarboxylic acid"], "SMILES": "C(O)(=O)C=1NC(C(O)=O)=CC(=O)C1", "physical_data": {"Molecular Weight": "183.12", "Molecular Formula": "C7H5NO5", "Melting Point": "248 \u00b0C (decomp)"}}