{"cas_no": "138-37-4", "cn_name": "\u76d0\u9178\u78fa\u80fa\u7c73\u9686", "en_name": ["Benzenesulfonamide, 4-(aminomethyl)-, hydrochloride (1:1)", "Benzenesulfonamide, 4-(aminomethyl)-, hydrochloride (1:1)", "p-Toluenesulfonamide, \u03b1-amino-, monohydrochloride", "Benzenesulfonamide, 4-(aminomethyl)-, monohydrochloride", "p-Toluenesulfonamide, \u03b1-amino-, hydrochloride", "p-(Aminomethyl)benzenesulfonamide hydrochloride", "p-Aminomethylphenylsulfonamide hydrochloride", "\u03b1-Amino-p-toluenesulfonamide hydrochloride", "4-Homosulfanilamide hydrochloride", "Mafenide hydrochloride", "Sulfamylon hydrochloride", "Homosulfamine", "Marfanil", "Homosulfanilamide hydrochloride", "Homosulfamine hydrochloride", "p-(Aminomethyl)benzenesulfonamide monohydrochloride", "4-(Aminomethyl)benzene sulfonamide monohydrochloride", "4-Aminosulfonylbenzylamine hydrochloride", "(4-Sulfamoylphenyl)methanaminium chloride"], "SMILES": "S(N)(=O)(=O)C1=CC=C(CN)C=C1.Cl", "physical_data": {"Molecular Weight": "", "Molecular Formula": "C7H10N2O2S.ClH", "Melting Point": "256 \u00b0C"}}