{"cas_no": "13808-65-6", "cn_name": "4-BROMO-3-PHENYL-1(2)H-PYRAZOLE", "en_name": ["4-Bromo-3-phenyl-1H-pyrazole", "1H-Pyrazole, 4-bromo-3-phenyl-", "Pyrazole, 4-bromo-3-phenyl-", "4-Bromo-3-phenyl-1H-pyrazole", "4-Bromo-3-phenylpyrazole"], "SMILES": "BrC=1C(=NNC1)C2=CC=CC=C2", "physical_data": {"Molecular Weight": "223.07", "Molecular Formula": "C9H7BrN2", "Melting Point": "116-117 \u00b0C"}}