{"cas_no": "13808-64-5", "cn_name": "4-\u6eb4-3-\u7532\u57fa\u5421\u5511", "en_name": ["4-Bromo-3-methyl-1H-pyrazole", "1H-Pyrazole, 4-bromo-3-methyl-", "Pyrazole, 4-bromo-3-methyl-", "4-Bromo-3-methyl-1H-pyrazole", "4-Bromo-3-methylpyrazole", "3-Methyl-4-bromopyrazole", "NSC 50563"], "SMILES": "BrC=1C(C)=NNC1", "physical_data": {"Molecular Weight": "161.00", "Molecular Formula": "C4H5BrN2", "Melting Point": "76.5 \u00b0C"}}