{"cas_no": "13803-65-1", "cn_name": "\u76d0\u9178\u8131\u6c34\u56db\u73af\u7d20", "en_name": ["Anhydrotetracycline hydrochloride", "2-Naphthacenecarboxamide, 4-(dimethylamino)-1,4,4a,5,12,12a-hexahydro-3,10,11,12a-tetrahydroxy-6-methyl-1,12-dioxo-, hydrochloride (1:1), (4S,4aS,12aS)-", "2-Naphthacenecarboxamide, 4-(dimethylamino)-1,4,4a,5,12,12a-hexahydro-3,10,11,12a-tetrahydroxy-6-methyl-1,12-dioxo-, monohydrochloride", "2-Naphthacenecarboxamide, 4-(dimethylamino)-1,4,4a,5,12,12a-hexahydro-3,10,11,12a-tetrahydroxy-6-methyl-1,12-dioxo-, monohydrochloride, [4S-(4\u03b1,4a\u03b1,12a\u03b1)]-", "2-Naphthacenecarboxamide, 4-(dimethylamino)-1,4,4a,5,12,12a-hexahydro-3,10,11,12a-tetrahydroxy-6-methyl-1,12-dioxo-, monohydrochloride, (4S,4aS,12aS)-", "Anhydrotetracycline hydrochloride"], "SMILES": "OC12C(C(N(C)C)C(O)=C(C(N)=O)C1=O)CC=3C(C2=O)=C(O)C=4C(C3C)=CC=CC4O.Cl", "physical_data": {"Molecular Weight": "", "Molecular Formula": "C22H22N2O7.ClH", "Melting Point": "214 \u00b0C (decomp)"}}