{"cas_no": "138113-08-3", "cn_name": "2-(7-\u7532\u6c27\u57fa\u8418-1-\u57fa)\u4e59\u8148", "en_name": ["(7-Methoxynaphthalen-1-yl)acetonitrile", "1-Naphthaleneacetonitrile, 7-methoxy-", "7-Methoxy-1-naphthaleneacetonitrile", "7-Methoxy-1-naphthylacetonitrile", "1-Cyanomethyl-7-methoxynaphthalene", "2-(7-Methoxy-1-naphthyl)acetonitrile", "(7-Methoxynaphthalen-1-yl)acetonitrile", "7-Methoxynaphthalene-1-acetonitrile", "2-(7-Methoxynaphthalen-1-yl)acetonitrile"], "SMILES": "C(C#N)C=1C2=C(C=CC(OC)=C2)C=CC1", "physical_data": {"Molecular Weight": "197.23", "Molecular Formula": "C13H11NO", "Melting Point": "56-58 \u00b0C"}}