{"cas_no": "13811-50-2", "cn_name": "1,3-\u4e8c\u4e59\u70ef\u57fa-2-\u54aa\u5511\u5549\u916e", "en_name": ["N,N\u2032-Divinylethyleneurea", "2-Imidazolidinone, 1,3-diethenyl-", "2-Imidazolidinone, 1,3-divinyl-", "1,3-Diethenyl-2-imidazolidinone", "N,N\u2032-Divinyl-2-imidazolidinone", "1,3-Divinylimidazolid-2-one", "N,N\u2032-Divinylethyleneurea", "2-Imidazolidinone, 1,3-diethynyl-", "1,3-Diethynylimidazolidin-2-one", "N,N\u2032-Divinylimidazolidone", "1,3-Divinylimidazolidin-2-one"], "SMILES": "C(=C)N1C(=O)N(C=C)CC1", "physical_data": {"Molecular Weight": "138.17", "Molecular Formula": "C7H10N2O", "Boiling Point": "120-130 \u00b0C @ Press: 3 Torr", "Melting Point": "66-70 \u00b0C"}}