{"cas_no": "13814-75-0", "cn_name": "\u6c2f\u5316\u926c", "en_name": ["Molybdenum chloride oxide (MoCl4O)", "Molybdenum chloride oxide (MoCl4O)", "Molybdenum chloride oxide (MoOCl4)", "Molybdenum oxide chloride (MoOCl4)", "Molybdenum oxide tetrachloride", "Tetrachlorooxomolybdenum", "Molybdenum tetrachloride oxide", "Molybdenum oxychloride (MoOCl4)", "Molybdenum oxytetrachloride", "Molybdenum tetrachloride monoxide", "Molybdenum oxychloride (MoCl4O)"], "SMILES": "[Mo](Cl)(Cl)(Cl)(Cl)=O", "physical_data": {"Molecular Weight": "", "Molecular Formula": "Cl4MoO", "Boiling Point": "197 \u00b0C", "Melting Point": "97 \u00b0C"}}