{"cas_no": "13818-75-2", "cn_name": "\u6eb4\u5316\u9486", "en_name": ["Gadolinium bromide (GdBr3)", "Gadolinium bromide (GdBr3)", "Gadolinium tribromide", "Gadolinium bromide"], "SMILES": "[Gd](Br)(Br)Br", "physical_data": {"Molecular Weight": "", "Molecular Formula": "Br3Gd", "Boiling Point": "1455 \u00b0C", "Melting Point": "765-786 \u00b0C"}}