{"cas_no": "13813-24-6", "cn_name": "\u65e0\u6c34\u7898\u5316\u9495(III)", "en_name": ["Neodymium iodide (NdI3)", "Neodymium iodide (NdI3)", "Neodymium triiodide", "Neodymium iodide"], "SMILES": "[Nd](I)(I)I", "physical_data": {"Molecular Weight": "", "Molecular Formula": "I3Nd", "Melting Point": "775 \u00b0C (decomp)"}}