{"cas_no": "138165-77-2", "cn_name": "(S)-3-\u6c28\u57fa-4-\u82ef\u57fa\u4e01\u9178\u76d0\u9178\u76d0", "en_name": ["Benzenebutanoic acid, \u03b2-amino-, hydrochloride (1:1), (\u03b2S)-", "Benzenebutanoic acid, \u03b2-amino-, hydrochloride (1:1), (\u03b2S)-", "Benzenebutanoic acid, \u03b2-amino-, hydrochloride, (S)-", "Benzenebutanoic acid, \u03b2-amino-, hydrochloride, (\u03b2S)-", "(S)-3-Amino-4-phenylbutyric acid hydrochloride", "(S)-\u03b2-Aminobenzenebutanoic acid hydrochloride", "(S)-3-Amino-4-phenylbutanoic acid hydrochloride"], "SMILES": "C(C(CC(O)=O)N)C1=CC=CC=C1.Cl", "physical_data": {"Molecular Weight": "", "Molecular Formula": "C10H13NO2.ClH", "Melting Point": "176-178 \u00b0C"}}