{"cas_no": "13814-97-6", "cn_name": "\u6c1f\u787c\u9178\u4e9a\u9521", "en_name": ["Borate(1-), tetrafluoro-, tin(2+) (2:1)", "Borate(1-), tetrafluoro-, tin(2+) (2:1)", "Borate(1-), tetrafluoro-, tin(2+)", "Tin tetrafluoroborate", "Tin fluoborate", "Stannous fluoborate", "Tin fluoroborate", "Tin(II) fluoborate", "Stannous tetrafluoroborate(1-)", "Tin tetrafluoroborate (Sn(BF4)2)", "Tin borofluoride", "Tin(II) fluoroborate", "Tin(II) tetrafluoroborate", "Tin(2+) fluoroborate", "Stannous fluoroborate [Sn(BF4)2]", "Stannous fluoroborate"], "SMILES": "[B+3]([F-])([F-])([F-])[F-].[Sn+2]", "physical_data": {"Molecular Weight": "", "Molecular Formula": "BF4.<sup>1</sup>/2Sn", "Melting Point": "&gt;130 \u00b0C (decomp)", "Density": "1.6 g/cm\u00b3"}}