{"cas_no": "13818-44-5", "cn_name": "2-Propenoic acid, 2-Methyl-, (2-oxo-1,3-dioxolan-4-yl)Methyl ester", "en_name": ["(2-Oxo-1,3-dioxolan-4-yl)methyl 2-methyl-2-propenoate", "2-Propenoic acid, 2-methyl-, (2-oxo-1,3-dioxolan-4-yl)methyl ester", "Methacrylic acid, 1-ester with 1,2,3-propanetriol cyclic carbonate", "Methacrylic acid, 2,3-dihydroxypropyl ester, cyclic carbonate", "(2-Oxo-1,3-dioxolan-4-yl)methyl 2-methyl-2-propenoate", "4-(Hydroxymethyl)-1,3-dioxolan-2-one methacrylate", "2,3-Carbonatopropyl methacrylate", "(2-Oxo-1,3-dioxolan-4-yl)methyl methacrylate", "4-(Methacryloyloxy)methyl-1,3-dioxolane-2-ketone", "4-Methacryloyloxymethyl-1,3-dioxolan-2-one", "Glycerol carbonate methacrylate", "(2-Oxo-1,3-dioxolan-4-yl)methyl 2-methylprop-2-enoate", "Propylene carbonate methacrylate", "2-Methyl-acrylic acid 2-oxo-[1,3]-dioxolan-4-ylmethyl ester", "Blemmer DOMA"], "SMILES": "C(OC(C(C)=C)=O)C1OC(=O)OC1", "physical_data": {"Molecular Weight": "186.16", "Molecular Formula": "C8H10O5", "Boiling Point": "112-132 \u00b0C @ Press: 0.06 Torr"}}