{"cas_no": "138164-12-2", "cn_name": "\u4e01\u6c27\u73af\u916e", "en_name": ["Butroxydim", "2-Cyclohexen-1-one, 2-[1-(ethoxyimino)propyl]-3-hydroxy-5-[2,4,6-trimethyl-3-(1-oxobutyl)phenyl]-", "2-[1-(Ethoxyimino)propyl]-3-hydroxy-5-[2,4,6-trimethyl-3-(1-oxobutyl)phenyl]-2-cyclohexen-1-one", "Fenoxydim", "Butroxydim", "5-(3-Butyryl-2,4,6-trimethylphenyl)-2-(1-ethoxyiminopropyl)-3-hydroxycyclohex-2-enone"], "SMILES": "CC1=C(C(C)=CC(C)=C1C(CCC)=O)C2CC(=O)C(C(=NOCC)CC)=C(O)C2", "physical_data": {"Molecular Weight": "399.52", "Molecular Formula": "C24H33NO4", "Melting Point": "80.8 \u00b0C"}}