{"cas_no": "13813-41-7", "cn_name": "\u7898\u5316\u94ac", "en_name": ["Holmium iodide (HoI3)", "Holmium iodide (HoI3)", "Holmium triiodide", "Holmium iodide"], "SMILES": "[Ho](I)(I)I", "physical_data": {"Molecular Weight": "", "Molecular Formula": "HoI3", "Melting Point": "1010 \u00b0C"}}