{"cas_no": "13813-42-8", "cn_name": "\u65e0\u6c34\u7898\u5316\u94d2(III)", "en_name": ["Erbium iodide (ErI3)", "Erbium iodide (ErI3)", "Erbium triiodide", "Erbium iodide"], "SMILES": "[Er](I)(I)I", "physical_data": {"Molecular Weight": "", "Molecular Formula": "ErI3", "Melting Point": "1020 \u00b0C"}}