{"cas_no": "138112-76-2", "cn_name": "\u963f\u6208\u7f8e\u62c9\u6c40", "en_name": ["Agomelatine", "Acetamide, N-[2-(7-methoxy-1-naphthalenyl)ethyl]-", "N-[2-(7-Methoxy-1-naphthalenyl)ethyl]acetamide", "S 20098", "N-[2-(7-Methoxy-1-naphthyl)ethyl]acetamide", "Agomelatine", "Valdoxan", "N-[2-(7-Methoxynaphthalen-1-yl)ethyl]acetamide", "AGO 178", "Thymanax"], "SMILES": "C(CNC(C)=O)C=1C2=C(C=CC(OC)=C2)C=CC1", "physical_data": {"Molecular Weight": "243.30", "Molecular Formula": "C15H17NO2", "Melting Point": "109-110 \u00b0C"}}