{"cas_no": "13811-71-7", "cn_name": "D-(-)-\u9152\u77f3\u9178\u4e8c\u4e59\u916f", "en_name": ["(-)-Diethyl tartrate", "Butanedioic acid, 2,3-dihydroxy-, 1,4-diethyl ester, (2S,3S)-", "Butanedioic acid, 2,3-dihydroxy-, diethyl ester, [S-(R*,R*)]-", "Tartaric acid, diethyl ester, (-)-", "D-Tartaric acid diethyl ester", "(-)-Diethyl tartrate", "Diethyl D-tartrate", "Diethyl (2S,3S)-(-)-tartrate", "Diethyl D-(-)-tartrate", "Diethyl (S,S)-(-)-tartrate", "D-(-)-Diethyl tartrate", "(S,S)-Diethyl tartrate", "Diethyl (-)-D-tartrate", "(2S,3S)-Diethyl tartrate", "D-Diethyl tartarate", "D-Ethyl tartrate", "(-)-Diethyl D-tartarate", "D-(-)DET", "D-(-)-Tartaric acid diethyl ester"], "SMILES": "C(C(C(OCC)=O)O)(C(OCC)=O)O", "physical_data": {"Molecular Weight": "206.19", "Molecular Formula": "C8H14O6", "Boiling Point": "126-127 \u00b0C @ Press: 2 Torr"}}