{"cas_no": "13813-43-9", "cn_name": "\u7898\u5316\u94e5(III)", "en_name": ["Thulium iodide (TmI3)", "Thulium iodide (TmI3)", "Thulium triiodide", "Thulium iodide", "Thulium(III) iodide"], "SMILES": "[Tm](I)(I)I", "physical_data": {"Molecular Weight": "", "Molecular Formula": "I3Tm", "Melting Point": "1015 \u00b0C"}}