{"cas_no": "13816-33-6", "cn_name": "4-\u5f02\u4e19\u57fa\u82ef\u7532\u8148", "en_name": ["4-(1-Methylethyl)benzonitrile", "Benzonitrile, 4-(1-methylethyl)-", "Benzonitrile, p-isopropyl-", "4-(1-Methylethyl)benzonitrile", "p-Cyanocumene", "p-Isopropylbenzonitrile", "Cuminylnitrile", "4-Isopropylbenzonitrile"], "SMILES": "C(C)(C)C1=CC=C(C#N)C=C1", "physical_data": {"Molecular Weight": "145.20", "Molecular Formula": "C10H11N", "Boiling Point": "143-145 \u00b0C @ Press: 40 Torr"}}