{"cas_no": "13813-19-9", "cn_name": "\u6c18\u4ee3\u786b\u9178", "en_name": ["Sulfuric acid-d2", "Sulfuric acid-d2", "Deuterosulfuric acid", "Perdeuteriosulfuric acid", "Sulfuric acid (D2SO4)", "Perdeuterated sulfuric acid"], "SMILES": "S(=O)(=O)(O[2H])O", "physical_data": {"Molecular Weight": "", "Molecular Formula": "D2O4S", "Boiling Point": "323.6 \u00b0C", "Melting Point": "-39 \u00b0C", "Density": "1.8573 g/cm\u00b3 @ Temp: 25 \u00b0C"}}