{"cas_no": "13822-56-5", "cn_name": "\u7845\u70f7\u5076\u8054\u5242 KH-540", "en_name": ["Aminopropyltrimethoxysilane", "1-Propanamine, 3-(trimethoxysilyl)-", "Propylamine, 3-(trimethoxysilyl)-", "3-(Trimethoxysilyl)-1-propanamine", "(\u03b3-Aminopropyl)trimethoxysilane", "(3-Aminopropyl)trimethoxysilane", "3-(Trimethoxysilyl)propylamine", "SC 3900", "Silane SC 3900", "A 0800", "A 1110", "Trimethoxy(3-aminopropyl)silane", "Aminopropyltrimethoxysilane", "NUC Silane A 1110", "LS 1420", "TSL 8330", "KBM 903", "Silquest A 1110", "Dynasylan AMMO", "AMMO", "A 1108", "A 1001", "Sila-Ace S 360", "S 360", "Sila-Ace MS 3301", "NSC 83845", "KBM 903P", "A 110", "A 110 (coupling agent)", "Geniosil GF 96", "JH 56", "KH 540", "APTMS", "Silquest A 1108", "KMB 903", "Z 6610", "Toray Silicone Z 6610", "KH 555", "SCA 1103", "KH 551", "KBM 903TMI", "WD 56", "TSL 8331E", "AY 43-059P", "SIA 0611.0", "DB 551", "A 301", "KH 170", "KH 170 (coupling agent)", "3-(Trimethoxysilanyl)propylamine", "KH 1101", "GX 540", "\u03b3-Aminopropyl trimethoxysilane", "CG 551", "3-(Trimethoxysilyl)-1-propyl amine", "SCA-A 10M", "LT 540", "PC 1110", "AP-Si 3M", "JH-A 111", "USI 1302", "SG-Si 1110", "A 11264", "CG-A 110", "(3-Aminopropyl)trimethoxymethylsilane"], "SMILES": "[Si](CCCN)(OC)(OC)OC", "physical_data": {"Molecular Weight": "179.29", "Molecular Formula": "C6H17NO3Si", "Boiling Point": "80 \u00b0C @ Press: 8 Torr", "Density": "1.027 g/cm\u00b3"}}