{"cas_no": "13825-76-8", "cn_name": "\u6eb4\u5316\u94ac", "en_name": ["Holmium bromide (HoBr3)", "Holmium bromide (HoBr3)", "Holmium tribromide", "Holmium bromide"], "SMILES": "[Ho](Br)(Br)Br", "physical_data": {"Molecular Weight": "", "Molecular Formula": "Br3Ho", "Melting Point": "914 \u00b0C"}}