{"cas_no": "13825-74-6", "cn_name": "\u6c27\u786b\u5316\u949b", "en_name": ["Titanium oxysulfate", "Titanium, oxo[sulfato(2-)-\u03baO,\u03baO\u2032]-", "Titanium, oxosulfato-", "Titanyl sulfate (TiO(SO4))", "Titanium, oxo[sulfato(2-)-O,O\u2032]-", "Oxo[sulfato(2-)-\u03baO,\u03baO\u2032]titanium", "Titanium oxide sulfate (TiO(SO4))", "Titanium oxide sulfate", "Titanium oxysulfate", "Tai-Sult Y 9", "Uniti 909"], "SMILES": "O=S1(=O)O[Ti](=O)O1", "physical_data": {"Molecular Weight": "", "Molecular Formula": "O5STi", "Boiling Point": "&gt;130 \u00b0C", "Density": "1.3984 g/cm\u00b3 @ Temp: 25 \u00b0C"}}