{"cas_no": "13826-83-0", "cn_name": "\u6c1f\u787c\u9178\u94f5", "en_name": ["Ammonium tetrafluoroborate", "Borate(1-), tetrafluoro-, ammonium (1:1)", "Borate(1-), tetrafluoro-, ammonium", "Ammonium fluoborate", "Ammonium tetrafluoroborate", "Ammonium fluoroborate", "Ammonium tetrafluoroborate(1-)", "Ammonium fluoroborate (NH4BF4)", "Ammonium tetrafluoroborate (NH4BF4)", "Ammonium borofluoride (NH4BF4)"], "SMILES": "[B+3]([F-])([F-])([F-])[F-].[NH4+]", "physical_data": {"Molecular Weight": "", "Molecular Formula": "BF4.H4N", "Melting Point": "230 \u00b0C", "Density": "1.871 g/cm\u00b3 @ Temp: 15 \u00b0C"}}