{"cas_no": "13829-21-5", "cn_name": "\u7678\u57fa\u4e09\u6c2f\u7845\u70f7", "en_name": ["Decyltrichlorosilane", "Silane, trichlorodecyl-", "Trichlorodecylsilane", "Decyltrichlorosilane", "n-Decyltrichlorosilane", "Trichloro(decyl)silane"], "SMILES": "C(CCCCCCCC)C[Si](Cl)(Cl)Cl", "physical_data": {"Molecular Weight": "275.72", "Molecular Formula": "C10H21Cl3Si", "Boiling Point": "133-137 \u00b0C @ Press: 5 Torr", "Density": "1.054 g/cm\u00b3"}}