{"cas_no": "13823-29-5", "cn_name": "\u785d\u9178\u948d\u6c34\u5408\u7269", "en_name": ["Thorium nitrate", "Nitric acid, thorium(4+) salt (4:1)", "Nitric acid, thorium(4+) salt", "Thorium nitrate ((Th(NO3)4))", "Thorium tetranitrate", "Thorium(4+) nitrate", "Thorium nitrate", "Thorium(IV) nitrate", "Prolabo"], "SMILES": "N(=O)(=O)O.[Th]", "physical_data": {"Molecular Weight": "", "Molecular Formula": "HNO3.<sup>1</sup>/4Th", "Melting Point": "101 \u00b0C"}}