{"cas_no": "13821-20-0", "cn_name": "\u516d\u6c1f\u94dd\u9178\u9502", "en_name": ["Aluminate(3-), hexafluoro-, lithium (1:3), (OC-6-11)-", "Aluminate(3-), hexafluoro-, lithium (1:3), (OC-6-11)-", "Aluminate(3-), hexafluoro-, trilithium", "Aluminate(3-), hexafluoro-, trilithium, (OC-6-11)-", "Lithium hexafluoroaluminate", "Trilithium hexafluoroaluminate", "Trilithium hexafluoroaluminum(3-)", "Lithium hexafluoroaluminate(3-)", "Aluminum lithium fluoride (AlLi3F6)", "Aluminum lithium fluoride (AlLi3F4)"], "SMILES": "[Al+3]([F-])([F-])([F-])([F-])([F-])[F-].[Li+]", "physical_data": {"Molecular Weight": "", "Molecular Formula": "AlF6.3Li", "Melting Point": "785 \u00b0C"}}