{"cas_no": "13820-09-2", "cn_name": "\u539f\u620a\u9178\u4e09\u7532\u916f", "en_name": ["Trimethyl orthovalerate", "Pentane, 1,1,1-trimethoxy-", "Orthovaleric acid, trimethyl ester", "1,1,1-Trimethoxypentane", "Trimethyl orthovalerate", "Trimethyl orthopentanoate"], "SMILES": "C(CCCC)(OC)(OC)OC", "physical_data": {"Molecular Weight": "162.23", "Molecular Formula": "C8H18O3", "Boiling Point": "167-170 \u00b0C", "Density": "0.9413 g/cm\u00b3 @ Temp: 27 \u00b0C"}}