{"cas_no": "138261-41-3", "cn_name": "\u5421\u866b\u5549", "en_name": ["Imidacloprid", "2-Imidazolidinimine, 1-[(6-chloro-3-pyridinyl)methyl]-N-nitro-, (2E)-", "(2E)-1-[(6-Chloro-3-pyridinyl)methyl]-N-nitro-2-imidazolidinimine", "BAY-NTN 33893", "Merit", "Imidacloprid", "NTN 33893", "1-[(6-Chloro-3-pyridinyl)methyl]-N-nitro-2-imidazolidinimine", "Gaucho", "Confidor 200SL", "Confidor", "Admire", "Provado", "Merit (insecticide)", "Confidor SL", "CP 1", "NTN 33893-240FS", "Advantage Flea Adulticide", "1-[(6-Chloro-3-pyridinyl)methyl]-4,5-dihydro-N-nitro-1H-imidazol-2-amine", "Premise", "Meritgreen", "Hachikusan", "1-(2-Chloro-5-pyridylmethyl)-2-(N-nitroimino)imidazolidine", "Baimieshi", "Prescribe", "Trimax", "Trimax (pesticide)", "Pro-Agro", "Imicide", "Admire 2F", "Premis", "Premise (insecticide)", "Gaucho Grande", "Genesis", "Marathon II", "Preventol TM", "Grubex", "Bayer Advanced Season-Long Grub control", "AGST 03001", "Genesis (pesticide)", "Rinfidor", "Comodor", "Admire Pro", "Quick-Bayt", "Marathon", "Marathon (insecticide)", "Trimax Pro", "NUP 06024", "Nuprid", "NUP 06023", "Alias 2F", "AEF 106464", "Couraze", "Mallet 2F", "Pasada", "Confidate", "Alias", "NUQ 05054", "Widow", "Macho Max", "Torrent", "Advise", "CoreTect", "1-(6-Chloro-3-pyridylmethyl)-N-nitroimidazolidin-2-ylideneamine", "AE-F 106464-00GR01B0", "Couraze Max", "Senator", "Confidor 240 O-TEQ", "Confidor 200 O-TEQ", "Timbertreat N 98", "Senator (neonicotinoid)", "Jade", "Gaucho 600FS", "Kohinor", "Confidor 70WG", "Biunik 200SL", "Provado 2F", "Tanrec", "Lada", "Lada (insecticide)", "Kumiai Admire", "Enforce (pesticide)", "Enforce", "Yashijing", "Confidor 100SL", "Confidor 350SC", "Acceleron IX 409", "Merit 2F", "Biotlin", "Merit 75WP", "1-[(6-Chloro-3-pyridyl)methyl]-N-nitro-2-imidazolidineimine", "Imidamex", "Imida Nova 60", "TM 0314", "Suscon Maxi", "Senator WG", "IX 104", "Confidence 555", "Permatek IM 30", "Velcloprid 200SC"], "SMILES": "C(N1C(=NN(=O)=O)NCC1)C=2C=CC(Cl)=NC2", "physical_data": {"Molecular Weight": "255.66", "Molecular Formula": "C9H10ClN5O2", "Melting Point": "144 \u00b0C"}}