{"cas_no": "13836-37-8", "cn_name": "N-\u53d4\u4e01\u6c27\u7fb0\u57fa-N'-\u7532\u82ef\u78fa\u9170\u57fa-L-\u7cbe\u6c28\u9178", "en_name": ["N2-[(1,1-Dimethylethoxy)carbonyl]-N5-[imino[[(4-methylphenyl)sulfonyl]amino]methyl]-L-ornithine", "L-Ornithine, N2-[(1,1-dimethylethoxy)carbonyl]-N5-[imino[[(4-methylphenyl)sulfonyl]amino]methyl]-", "Ornithine, N2-carboxy-N5-[(p-tolylsulfonyl)amidino]-, N2-tert-butyl ester, L-", "N2-[(1,1-Dimethylethoxy)carbonyl]-N5-[imino[[(4-methylphenyl)sulfonyl]amino]methyl]-L-ornithine", "N2-tert-Butoxycarbonyl-NG-tosyl-L-arginine", "NSC 164058", "Boc-L-Arg(Tos)-OH", "(2S)-5-[[Amino-[(4-methylphenyl)sulfonylamino]methylidene]amino]-2-[(2-methylpropan-2-yl)oxycarbonylamino]pentanoic acid"], "SMILES": "S(NC(NCCCC(NC(OC(C)(C)C)=O)C(O)=O)=N)(=O)(=O)C1=CC=C(C)C=C1", "physical_data": {"Molecular Weight": "428.50", "Molecular Formula": "C18H28N4O6S", "Melting Point": "99-100 \u00b0C"}}