{"cas_no": "13838-08-9", "cn_name": "\u53e0\u6c2e\u6c2f\u9709\u7d20", "en_name": ["Azidamfenicol", "Acetamide, 2-azido-N-[(1R,2R)-2-hydroxy-1-(hydroxymethyl)-2-(4-nitrophenyl)ethyl]-", "Acetamide, 2-azido-N-[\u03b2-hydroxy-\u03b1-(hydroxymethyl)-p-nitrophenethyl]-, D-threo-(-)-", "Acetamide, 2-azido-N-[2-hydroxy-1-(hydroxymethyl)-2-(4-nitrophenyl)ethyl]-, [R-(R*,R*)]-", "2-Azido-N-[(1R,2R)-2-hydroxy-1-(hydroxymethyl)-2-(4-nitrophenyl)ethyl]acetamide", "D-(-)-threo-1-p-Nitrophenyl-2-azidoacetylamino-1,3-propanediol", "Azidamphenicol", "Azidoamphenicol", "Azidamfenicol", "Leukomycin N", "(-)-Azidamphenicol"], "SMILES": "C(C(NC(CN=[N+]=[N-])=O)CO)(O)C1=CC=C(N(=O)=O)C=C1", "physical_data": {"Molecular Weight": "", "Molecular Formula": "C11H13N5O5", "Melting Point": "107 \u00b0C"}}