{"cas_no": "13838-16-9", "cn_name": "\u6069\u6c1f\u70f7", "en_name": ["Enflurane", "Ethane, 2-chloro-1-(difluoromethoxy)-1,1,2-trifluoro-", "Ether, 2-chloro-1,1,2-trifluoroethyl difluoromethyl", "2-Chloro-1-(difluoromethoxy)-1,1,2-trifluoroethane", "Compound 347", "Ethrane", "Enflurane", "Ohio 347", "347", "2-Chloro-1,1,2-trifluoroethyl difluoromethyl ether", "2-Chloro-1,1,2-trifluoro-1-difluoromethoxyethane", "R-E 235ca2", "(\u00b1)-Enflurane", "Methylflurether", "Alyrane", "Anesthetic Compound No. 347", "NSC 115944", "Efrane", "MeSH ID: D004737"], "SMILES": "C(OC(F)F)(C(Cl)F)(F)F", "physical_data": {"Molecular Weight": "184.49", "Molecular Formula": "C3H2ClF5O", "Boiling Point": "56.5 \u00b0C", "Density": "1.52 g/cm\u00b3"}}