{"cas_no": "13832-70-7", "cn_name": "\u786c\u8102\u9187\u7518\u8349\u4ead\u9178\u916f", "en_name": ["Stearyl glycyrrhetinate", "Olean-12-en-29-oic acid, 3-hydroxy-11-oxo-, octadecyl ester, (3\u03b2,20\u03b2)-", "Olean-12-en-30-oic acid, 3\u03b2-hydroxy-11-oxo-, octadecyl ester", "Stearyl glycyrrhetinate", "\u03b1-Glycyrrhetinic acid stearyl ester", "n-Octadecyl glycyrrhetinate", "Octadecyl glycyrrhetinate", "Stearyl glycyrrhetate", "CO-Grhetinol", "Sea og Retinol"], "SMILES": "CC12C3(C)C(C4(C)C(CC3)C(C)(C)C(O)CC4)C(=O)C=C1C5C(C)(CC2)CCC(C(OCCCCCCCCCCCCCCCCCC)=O)(C)C5", "physical_data": {"Molecular Weight": "723.16", "Molecular Formula": "C48H82O4", "Melting Point": "116-118 \u00b0C"}}