{"cas_no": "13831-31-7", "cn_name": "\u4e59\u9170\u6c27\u57fa\u4e59\u9170\u6c2f", "en_name": ["2-(Acetyloxy)acetyl chloride", "Acetyl chloride, 2-(acetyloxy)-", "Glycoloyl chloride, acetate", "Acetyl chloride, (acetyloxy)-", "2-(Acetyloxy)acetyl chloride", "Acetoxyacetyl chloride", "Acetylglycoloyl chloride", "2-Acetoxyacetyl chloride", "(Acetyloxy)acetyl chloride", "\u03b1-Acetoxyacetyl chloride", "Acetic acid (chlorocarbonyl)methyl ester", "2-Chloro-2-oxoethyl acetate", "(Chlorocarbonyl)methyl acetate"], "SMILES": "C(OC(C)=O)C(Cl)=O", "physical_data": {"Molecular Weight": "136.53", "Molecular Formula": "C4H5ClO3", "Boiling Point": "55 \u00b0C @ Press: 12 Torr", "Melting Point": "159-160 \u00b0C"}}