{"cas_no": "13831-30-6", "cn_name": "\u4e59\u9170\u6c27\u57fa\u4e59\u9178", "en_name": ["Acetoxyacetic acid", "Acetic acid, 2-(acetyloxy)-", "Glycolic acid, acetate", "Acetic acid, (acetyloxy)-", "2-(Acetyloxy)acetic acid", "\u03b1-Acetoxyacetic acid", "2-Hydroxyacetic acid acetate", "Acetylglycolic acid", "(Acetyloxy)acetic acid", "Acetoxyacetic acid", "O-Acetylglycolic acid", "NSC 72984", "2-Acetoxyacetic acid"], "SMILES": "C(OC(C)=O)C(O)=O", "physical_data": {"Molecular Weight": "118.09", "Molecular Formula": "C4H6O4", "Boiling Point": "141-142 \u00b0C @ Press: 12 Torr", "Melting Point": "67.5 \u00b0C"}}