{"cas_no": "13849-91-7", "cn_name": "\u5761\u6a21\u9178", "en_name": ["Pomolic acid", "Urs-12-en-28-oic acid, 3,19-dihydroxy-, (3\u03b2)-", "Urs-12-en-28-oic acid, 3\u03b2,19-dihydroxy-", "(3\u03b2)-3,19-Dihydroxyurs-12-en-28-oic acid", "Benthamic acid", "Pomolic acid", "19\u03b1-Hydroxyursolic acid", "Randialic acid A", "3\u03b2,19\u03b1-Dihydroxy Urs-12-en-28-oic acid"], "SMILES": "C(O)(=O)C12C(C=3C(C)(CC1)C4(C)C(CC3)C5(C)C(CC4)C(C)(C)C(O)CC5)C(C)(O)C(C)CC2", "physical_data": {"Molecular Weight": "472.70", "Molecular Formula": "C30H48O4", "Melting Point": "297-299 \u00b0C"}}