{"cas_no": "138402-11-6", "cn_name": "\u5384\u8d1d\u6c99\u5766", "en_name": ["Irbesartan", "1,3-Diazaspiro[4.4]non-1-en-4-one, 2-butyl-3-[[2\u2032-(2H-tetrazol-5-yl)[1,1\u2032-biphenyl]-4-yl]methyl]-", "1,3-Diazaspiro[4.4]non-1-en-4-one, 2-butyl-3-[[2\u2032-(1H-tetrazol-5-yl)[1,1\u2032-biphenyl]-4-yl]methyl]-", "2-Butyl-3-[[2\u2032-(2H-tetrazol-5-yl)[1,1\u2032-biphenyl]-4-yl]methyl]-1,3-diazaspiro[4.4]non-1-en-4-one", "SR 47436", "2-Butyl-3-[p-(o-1H-tetrazol-5-ylphenyl)benzyl]-1,3-diazaspiro[4.4]non-1-en-4-one", "Irbesartan", "BMS 186295", "Avapro", "Aprovel", "Karvea", "2-Butyl-3-[[2\u2032-(tetrazol-5-yl)biphenyl-4-yl]-methyl]-1,3-diazaspiro[4.4]non-1-en-4-one", "Irbetan", "Irbest", "Kansartan", "X-Tension", "3-Butyl-2-[[4-[2-(2H-tetrazol-5-yl)phenyl]phenyl]methyl]-2,4-diazaspiro[4.4]non-3-en-1-one", "2-Butyl-3-[[4-[2-(2H-tetrazol-5-yl)phenyl]phenyl]methyl]-1,3-diazaspiro[4.4]non-1-en-4-one", "2-Butyl-3-[2\u2032-(2H-tetrazol-5-yl)-biphenyl-4-ylmethyl]-1,3-diaza-spiro[4.4]non-1-en-4-one", "Sabervel"], "SMILES": "O=C1C2(N=C(CCCC)N1CC3=CC=C(C=C3)C4=C(C=CC=C4)C=5NN=NN5)CCCC2", "physical_data": {"Molecular Weight": "428.53", "Molecular Formula": "C25H28N6O", "Melting Point": "180-181 \u00b0C"}}