{"cas_no": "138402-10-5", "cn_name": "\u4e09\u82ef\u7532\u57fa\u4f9d\u8d1d\u6c99\u5766", "en_name": ["2-Butyl-3-[[2\u2032-[1-(triphenylmethyl)-1H-tetrazol-5-yl][1,1\u2032-biphenyl]-4-yl]methyl]-1,3-diazaspiro[4.4]non-1-en-4-one", "1,3-Diazaspiro[4.4]non-1-en-4-one, 2-butyl-3-[[2\u2032-[1-(triphenylmethyl)-1H-tetrazol-5-yl][1,1\u2032-biphenyl]-4-yl]methyl]-", "2-Butyl-3-[[2\u2032-[1-(triphenylmethyl)-1H-tetrazol-5-yl][1,1\u2032-biphenyl]-4-yl]methyl]-1,3-diazaspiro[4.4]non-1-en-4-one", "2-Butyl-3-[[4-[2-(1-trityltetrazol-5-yl)phenyl]phenyl]methyl]-1,3-diazaspiro[4.4]non-1-en-4-one"], "SMILES": "C(N1C(=NN=N1)C2=C(C=CC=C2)C3=CC=C(CN4C(=O)C5(N=C4CCCC)CCCC5)C=C3)(C6=CC=CC=C6)(C7=CC=CC=C7)C8=CC=CC=C8", "physical_data": {"Molecular Weight": "670.84", "Molecular Formula": "C44H42N6O", "Melting Point": "109 \u00b0C"}}