{"cas_no": "13849-08-6", "cn_name": "\u5f02\u7d2b\u82b1\u524d\u80e1\u5185\u916f", "en_name": ["(+)-Marmesin", "7H-Furo[3,2-g][1]benzopyran-7-one, 2,3-dihydro-2-(1-hydroxy-1-methylethyl)-, (2S)-", "Marmesin", "7H-Furo[3,2-g][1]benzopyran-7-one, 2,3-dihydro-2-(1-hydroxy-1-methylethyl)-, (S)-", "7H-Furo[3,2-g][1]benzopyran-7-one, 2,3-dihydro-2-(1-hydroxy-1-methylethyl)-, (S)-(+)-", "(2S)-2,3-Dihydro-2-(1-hydroxy-1-methylethyl)-7H-furo[3,2-g][1]benzopyran-7-one", "(+)-Marmesin", "S-(+)-Marmesin", "(S)-Marmesin", "NSC 340840"], "SMILES": "C(C)(C)(O)C1CC=2C(=CC3=C(C2)C=CC(=O)O3)O1", "physical_data": {"Molecular Weight": "246.26", "Molecular Formula": "C14H14O4", "Melting Point": "189.5 \u00b0C"}}