{"cas_no": "138401-24-8", "cn_name": "4'-[(2-\u4e01\u57fa-4-\u6c27-1,3-\u4e8c\u6c2e\u6742\u87ba\u73af[4.4]\u58ec-1-\u70ef-3-\u57fa)\u7532\u57fa]\u8054\u82ef-2-\u7532\u8148", "en_name": ["2-Butyl-3-[[2\u2032-(cyano)biphenyl-4-yl]methyl]-1,3-diazaspiro[4.4]non-1-en-4-one", "[1,1\u2032-Biphenyl]-2-carbonitrile, 4\u2032-[(2-butyl-4-oxo-1,3-diazaspiro[4.4]non-1-en-3-yl)methyl]-", "1,3-Diazaspiro[4.4]nonane, [1,1\u2032-biphenyl]-2-carbonitrile deriv.", "4\u2032-[(2-Butyl-4-oxo-1,3-diazaspiro[4.4]non-1-en-3-yl)methyl][1,1\u2032-biphenyl]-2-carbonitrile", "2-Butyl-3-[[2\u2032-(cyano)biphenyl-4-yl]methyl]-1,3-diazaspiro[4.4]non-1-en-4-one", "2-[4-[(2-Butyl-4-oxo-1,3-diazaspiro[4.4]non-1-en-3-yl)methyl]phenyl]benzonitrile"], "SMILES": "O=C1C2(N=C(CCCC)N1CC3=CC=C(C=C3)C4=C(C#N)C=CC=C4)CCCC2", "physical_data": {"Molecular Weight": "385.50", "Molecular Formula": "C25H27N3O", "Melting Point": "92-98 \u00b0C"}}