{"cas_no": "13851-11-1", "cn_name": "1,3,3-\u4e09\u7532\u57fa-\u4e8c\u73af[2.2.1]\u5e9a-2-\u9187\u4e59\u9178\u916f", "en_name": ["Fenchyl acetate", "Bicyclo[2.2.1]heptan-2-ol, 1,3,3-trimethyl-, 2-acetate", "2-Norbornanol, 1,3,3-trimethyl-, acetate", "Bicyclo[2.2.1]heptan-2-ol, 1,3,3-trimethyl-, acetate", "Fenchyl acetate", "NSC 404295", "1,3,3-Trimethylbicyclo[2.2.1]heptan-2-yl acetate", "1,3,3-Trimethyl-2-norbornanyl acetate"], "SMILES": "CC12C(OC(C)=O)C(C)(C)C(C1)CC2", "physical_data": {"Molecular Weight": "196.29", "Molecular Formula": "C12H20O2", "Boiling Point": "87 \u00b0C @ Press: 10 Torr"}}