{"cas_no": "13852-51-2", "cn_name": "2-\u7532\u57fa-4-\u785d\u57fa-5-\u6c2f\u82ef\u80fa", "en_name": ["5-Chloro-2-methyl-4-nitrobenzenamine", "Benzenamine, 5-chloro-2-methyl-4-nitro-", "o-Toluidine, 5-chloro-4-nitro-", "5-Chloro-2-methyl-4-nitrobenzenamine", "2-Methyl-4-nitro-5-chloroaniline", "5-Chloro-2-methyl-4-nitroaniline", "5-Chloro-4-nitro-o-toluidine", "2-Amino-4-chloro-1-methyl-5-nitrobenzene", "NSC 60116", "(5-Chloro-2-methyl-4-nitrophenyl)amine"], "SMILES": "N(=O)(=O)C1=C(Cl)C=C(N)C(C)=C1", "physical_data": {"Molecular Weight": "186.60", "Molecular Formula": "C7H7ClN2O2", "Melting Point": "164 \u00b0C"}}