{"cas_no": "138564-60-0", "cn_name": "4-\u6c28\u57fa-2-\u7532\u57fa-10H-\u567b\u5429[2,3-b][1,5]\u82ef\u5e76\u4e8c\u6c2e\u6742\u5353\u76d0\u9178\u76d0", "en_name": ["10H-Thieno[2,3-b][1,5]benzodiazepin-4-amine, 2-methyl-, hydrochloride (1:1)", "10H-Thieno[2,3-b][1,5]benzodiazepin-4-amine, 2-methyl-, hydrochloride (1:1)", "10H-Thieno[2,3-b][1,5]benzodiazepin-4-amine, 2-methyl-, monohydrochloride", "4-Amino-2-methyl-10H-thieno[2,3-b][1,5]benzodiazepine monohydrochloride", "4-Amino-2-methyl-10H-thieno[2,3-b][1,5]benzodiazepine hydrochloride", "Olanzamine"], "SMILES": "NC=1C2=C(NC=3C(N1)=CC=CC3)SC(C)=C2.Cl", "physical_data": {"Molecular Weight": "", "Molecular Formula": "C12H11N3S.ClH", "Melting Point": "&gt;250 \u00b0C"}}