{"cas_no": "138529-46-1", "cn_name": "N-\u751f\u7269\u7d20-3,6-\u4e8c\u6c27\u8f9b\u70f7-1,8-\u4e8c\u80fa", "en_name": ["(+)-Biotinyl-3,6-dioxaoctanediamine", "1H-Thieno[3,4-d]imidazole-4-pentanamide, N-[2-[2-(2-aminoethoxy)ethoxy]ethyl]hexahydro-2-oxo-, (3aS,4S,6aR)-", "1H-Thieno[3,4-d]imidazole-4-pentanamide, N-[2-[2-(2-aminoethoxy)ethoxy]ethyl]hexahydro-2-oxo-, [3aS-(3a\u03b1,4\u03b2,6a\u03b1)]-", "(3aS,4S,6aR)-N-[2-[2-(2-Aminoethoxy)ethoxy]ethyl]hexahydro-2-oxo-1H-thieno[3,4-d]imidazole-4-pentanamide", "Biotinyl-3,6-dioxaoctanediamine", "Biotin-DADOO", "EZ-Link Amine-PEO2-Biotin", "(+)-Biotinyl-3,6-dioxaoctanediamine"], "SMILES": "C(CCCC(NCCOCCOCCN)=O)C1C2C(CS1)NC(=O)N2", "physical_data": {"Molecular Weight": "374.50", "Molecular Formula": "C16H30N4O4S", "Melting Point": "109-110 \u00b0C"}}