{"cas_no": "138588-40-6", "cn_name": "2-\u5627\u5576\u7532\u8112\u76d0\u9178\u76d0", "en_name": ["2-Pyrimidinecarboximidamide, hydrochloride (1:1)", "2-Pyrimidinecarboximidamide, hydrochloride (1:1)", "2-Pyrimidinecarboximidamide, monohydrochloride", "2-Pyrimidinecarboximidamide, hydrochloride", "2-Amidinopyrimidine hydrochloride"], "SMILES": "C(=N)(N)C=1N=CC=CN1.Cl", "physical_data": {"Molecular Weight": "", "Molecular Formula": "C5H6N4.ClH", "Melting Point": "126-127 \u00b0C"}}