{"cas_no": "13850-16-3", "cn_name": "2\u0391,19\u0391-\u4e8c\u7f9f\u57fa\u718a\u679c\u9178", "en_name": ["Tormentic acid", "Urs-12-en-28-oic acid, 2,3,19-trihydroxy-, (2\u03b1,3\u03b2)-", "Urs-12-en-28-oic acid, 2\u03b1,3\u03b2,19-trihydroxy-", "(2\u03b1,3\u03b2)-2,3,19-Trihydroxyurs-12-en-28-oic acid", "Tormentic acid", "2\u03b1,19\u03b1-Dihydroxyursolic acid", "2\u03b1,3\u03b2,19\u03b1-Trihydroxyurs-12-en-28-oic acid", "2\u03b1,3\u03b2,19-Trihydroxyurs-12-en-28-oic acid", "Tormentolic acid"], "SMILES": "C(O)(=O)C12C(C=3C(C)(CC1)C4(C)C(CC3)C5(C)C(CC4)C(C)(C)C(O)C(O)C5)C(C)(O)C(C)CC2", "physical_data": {"Molecular Weight": "488.70", "Molecular Formula": "C30H48O5", "Melting Point": "273 \u00b0C"}}