{"cas_no": "138564-59-7", "cn_name": "2-(2-\u785d\u57fa\u82ef\u80fa\u57fa)-3-\u6c30\u57fa-5-\u7532\u57fa\u567b\u5429", "en_name": ["5-Methyl-2-[(2-nitrophenyl)amino]-3-thiophenecarbonitrile", "3-Thiophenecarbonitrile, 5-methyl-2-[(2-nitrophenyl)amino]-", "5-Methyl-2-[(2-nitrophenyl)amino]-3-thiophenecarbonitrile", "2-(2-Nitroanilino)-5-methylthiophene-3-carbonitrile", "ROY"], "SMILES": "N(C1=C(C#N)C=C(C)S1)C2=C(N(=O)=O)C=CC=C2", "physical_data": {"Molecular Weight": "259.28", "Molecular Formula": "C12H9N3O2S", "Melting Point": "97-100 \u00b0C"}}