{"cas_no": "138517-66-5", "cn_name": "(11S,12S)-9,10-\u4e8c\u6c22-9,10-\u4e59\u6491\u84bd-11,12-\u4e8c\u80fa", "en_name": ["(11S,12S)-9,10-Dihydro-9,10-ethanoanthracene-11,12-diamine", "9,10-Ethanoanthracene-11,12-diamine, 9,10-dihydro-, (11S,12S)-", "9,10-Ethanoanthracene-11,12-diamine, 9,10-dihydro-, (11S-trans)-", "(11S,12S)-9,10-Dihydro-9,10-ethanoanthracene-11,12-diamine"], "SMILES": "NC1C2C=3C(C(C=4C2=CC=CC4)C1N)=CC=CC3", "physical_data": {"Molecular Weight": "236.31", "Molecular Formula": "C16H16N2", "Melting Point": "152.5-153.9 \u00b0C"}}