{"cas_no": "138517-61-0", "cn_name": "(1R,2R)-(+)-1,2-\u4e8c\u80fa\u57fa\u73af\u5df1\u57fa-N,N'-\u53cc(2'-\u4e8c\u82ef\u57fa\u78f7\u57fa\u82ef\u7532\u9170)", "en_name": ["Trost Ligand", "Benzamide, N,N\u2032-(1R,2R)-1,2-cyclohexanediylbis[2-(diphenylphosphino)-", "Benzamide, N,N\u2032-1,2-cyclohexanediylbis[2-(diphenylphosphino)-, (1R-trans)-", "N,N\u2032-(1R,2R)-1,2-Cyclohexanediylbis[2-(diphenylphosphino)benzamide]", "(R,R)-Trost ligand", "Trost Ligand", "(1R,2R)-N,N\u2032-Bis[o-(diphenylphosphino)benzoyl]cyclohexane-1,2-diamine", "(R,R)-DPPBA", "(R)-Trost ligand", "(1R,2R)-1,2-Bis[[2-(diphenylphosphanyl)benzoyl]amino]cyclohexane", "(1R,2R)-1,2-Bis[[2-(diphenylphosphino)benzoyl]amino]cyclohexane", "(1R,2R)-(+)-1,2-Diaminocyclohexane-N,N\u2032-bis(2\u2032-diphenylphosphinobenzoyl)"], "SMILES": "P(C1=C(C(NC2C(NC(=O)C3=C(P(C4=CC=CC=C4)C5=CC=CC=C5)C=CC=C3)CCCC2)=O)C=CC=C1)(C6=CC=CC=C6)C7=CC=CC=C7", "physical_data": {"Molecular Weight": "690.75", "Molecular Formula": "C44H40N2O2P2", "Melting Point": "136-139 \u00b0C"}}