{"cas_no": "13865-50-4", "cn_name": "\u7532\u6c27\u57fa\u7532\u57fa\u82ef\u786b\u919a", "en_name": ["[(Methoxymethyl)thio]benzene", "Benzene, [(methoxymethyl)thio]-", "Ether, methyl (phenylthio)methyl", "[(Methoxymethyl)thio]benzene", "Methoxymethyl phenyl sulfide", "Methoxy(phenylthio)methane", "[(Methoxymethyl)sulfanyl]benzene"], "SMILES": "S(COC)C1=CC=CC=C1", "physical_data": {"Molecular Weight": "154.23", "Molecular Formula": "C8H10OS", "Boiling Point": "112-113 \u00b0C @ Press: 18 Torr", "Density": "1.1047 g/cm\u00b3 @ Temp: 16 \u00b0C"}}