{"cas_no": "13862-28-7", "cn_name": "\u7532\u57fa\u4e09\u6c1f\u787c\u9178\u94be", "en_name": ["Borate(1-), trifluoromethyl-, potassium, (T-4)-", "Borate(1-), trifluoromethyl-, potassium, (T-4)-", "Borate(1-), trifluoromethyl-, potassium", "Potassium trifluoromethylborate", "Potassium methyltrifluoroborate"], "SMILES": "[B+3]([CH3-])([F-])([F-])[F-].[K+]", "physical_data": {"Molecular Weight": "", "Molecular Formula": "CH3BF3.K", "Melting Point": "282 \u00b0C"}}