{"cas_no": "138642-97-4", "cn_name": "6-\u6c2f\u54aa\u5511\u5e76[1,2-A]\u5421\u5576-3-\u7fa7\u9178", "en_name": ["6-Chloroimidazo[1,2-a]pyridine-3-carboxylic acid", "Imidazo[1,2-a]pyridine-3-carboxylic acid, 6-chloro-", "6-Chloroimidazo[1,2-a]pyridine-3-carboxylic acid"], "SMILES": "C(O)(=O)C=1N2C(=NC1)C=CC(Cl)=C2", "physical_data": {"Molecular Weight": "196.59", "Molecular Formula": "C8H5ClN2O2", "Melting Point": "206 \u00b0C"}}