{"cas_no": "13865-19-5", "cn_name": "4-\u6c27\u4e01\u9178\u7532\u57fa\u916f", "en_name": ["Methyl 4-oxobutanoate", "Butanoic acid, 4-oxo-, methyl ester", "Succinaldehydic acid, methyl ester", "Methyl 4-oxobutanoate", "Methyl \u03b2-formylpropionate", "3-(Methoxycarbonyl)propionaldehyde", "Methyl 3-formylpropionate", "\u03b2-(Methoxycarbonyl)propionaldehyde", "Methyl 4-oxobutyrate", "3-Carbomethoxypropionaldehyde", "\u03b2-Carbomethoxypropionaldehyde", "3-Formylpropionic acid methyl ester", "Methoxycarbonylpropanal", "3-(Methoxycarbonyl)propanal", "4-Oxobutanoic acid methyl ester", "Methyl 3-formylpropanoate", "4-Oxobutyric acid methyl ester"], "SMILES": "C(CCC=O)(OC)=O", "physical_data": {"Molecular Weight": "116.12", "Molecular Formula": "C5H8O3", "Boiling Point": "62 \u00b0C @ Press: 10 Torr"}}