{"cas_no": "13861-22-8", "cn_name": "\u7532\u57fa\u4e19\u70ef\u9178\u4e19\u7094\u57fa\u916f", "en_name": ["Propargyl methacrylate", "2-Propenoic acid, 2-methyl-, 2-propyn-1-yl ester", "Methacrylic acid, 2-propynyl ester", "2-Propenoic acid, 2-methyl-, 2-propynyl ester", "Propargyl methacrylate", "2-Propynyl methacrylate"], "SMILES": "C(C(C)=C)(OCC#C)=O", "physical_data": {"Molecular Weight": "124.14", "Molecular Formula": "C7H8O2", "Boiling Point": "43 \u00b0C @ Press: 6.5 Torr", "Density": "0.9865 g/cm\u00b3 @ Temp: 20 \u00b0C"}}