{"cas_no": "13863-41-7", "cn_name": "\u6c2f\u5316\u6eb4", "en_name": ["Bromine chloride (BrCl)", "Bromine chloride (BrCl)", "Bromochloride", "Bromine monochloride", "Bromine chloride"], "SMILES": "BrCl", "physical_data": {"Molecular Weight": "115.36", "Molecular Formula": "BrCl", "Melting Point": "158 \u00b0C"}}