{"cas_no": "13877-91-3", "cn_name": "\u7f57\u52d2\u70ef", "en_name": ["\u03b2-Ocimene", "1,3,6-Octatriene, 3,7-dimethyl-", "\u03b2-Ocimene", "3,7-Dimethyl-1,3,6-octatriene"], "SMILES": "C(=CCC=C(C)C)(C=C)C", "physical_data": {"Molecular Weight": "136.23", "Molecular Formula": "C10H16", "Boiling Point": "73 \u00b0C", "Density": "0.8000 g/cm\u00b3 @ Temp: 204 \u00b0C"}}