{"cas_no": "138775-03-8", "cn_name": "(S)-N-1-\u53d4\u4e01\u6c27\u7fb0\u57fa-N-4-\u82c4\u6c27\u7fb0\u57fa-2-\u54cc\u55ea\u7532\u9178", "en_name": ["1-(1,1-Dimethylethyl) 4-(phenylmethyl) (2S)-1,2,4-piperazinetricarboxylate", "1,2,4-Piperazinetricarboxylic acid, 1-(1,1-dimethylethyl) 4-(phenylmethyl) ester, (2S)-", "1,2,4-Piperazinetricarboxylic acid, 1-(1,1-dimethylethyl) 4-(phenylmethyl) ester, (S)-", "1-(1,1-Dimethylethyl) 4-(phenylmethyl) (2S)-1,2,4-piperazinetricarboxylate", "(S)-4-(Benzyloxycarbonyl)-1-(tert-butoxycarbonyl)piperazine-2-carboxylic acid", "(2S)-1-(Benzyloxycarbonyl)-2-carboxy-4-(benzyloxycarbonyl)piperazine"], "SMILES": "C(OC(C)(C)C)(=O)N1C(C(O)=O)CN(C(OCC2=CC=CC=C2)=O)CC1", "physical_data": {"Molecular Weight": "364.39", "Molecular Formula": "C18H24N2O6", "Melting Point": "50-53 \u00b0C"}}