{"cas_no": "138786-67-1", "cn_name": "\u6cee\u6258\u62c9\u5511\u94a0", "en_name": ["1H-Benzimidazole, 6-(difluoromethoxy)-2-[[(3,4-dimethoxy-2-pyridinyl)methyl]sulfinyl]-, sodium salt (1:1)", "1H-Benzimidazole, 6-(difluoromethoxy)-2-[[(3,4-dimethoxy-2-pyridinyl)methyl]sulfinyl]-, sodium salt (1:1)", "1H-Benzimidazole, 5-(difluoromethoxy)-2-[[(3,4-dimethoxy-2-pyridinyl)methyl]sulfinyl]-, sodium salt", "Pantoprazole sodium", "Protonix", "Controloc", "Pantoloc", "Pantoprazole sodium salt", "Zurcal", "5-Difluoromethoxy-2-[[(3,4-dimethoxypyridin-2-yl)methyl]sulfinyl]-1H-benzimidazole sodium salt", "Pantecta", "Nolpaza", "Somac"], "SMILES": "S(CC1=C(OC)C(OC)=CC=N1)(=O)C=2NC=3C(N2)=CC(OC(F)F)=CC3.[Na]", "physical_data": {"Molecular Weight": "", "Molecular Formula": "C16H15F2N3O4S.Na", "Melting Point": "&gt;130 \u00b0C (decomp)"}}