{"cas_no": "13871-68-6", "cn_name": "4-\u6c28\u57fa\u4e59\u9178\u82ef\u915a\u916f", "en_name": ["Phenol, 4-amino-, 1-acetate", "Phenol, 4-amino-, 1-acetate", "Phenol, p-amino-, acetate (ester)", "Phenol, 4-amino-, acetate (ester)", "Phenol, p-amino-, acetate", "p-Aminophenyl acetate", "p-Acetoxyaniline", "4-Aminophenyl acetate", "4-Acetoxyaniline", "Acetic acid 4-aminophenyl ester"], "SMILES": "O(C(C)=O)C1=CC=C(N)C=C1", "physical_data": {"Molecular Weight": "151.16", "Molecular Formula": "C8H9NO2", "Boiling Point": "173-174 \u00b0C @ Press: 14 Torr", "Melting Point": "75 \u00b0C"}}