{"cas_no": "13870-30-9", "cn_name": "\u7845\u9178\u94a0", "en_name": ["Sodium silicate (Na2Si3O7)", "Silicon sodium oxide (Si3Na2O7)", "Silicic acid (H2Si3O7), disodium salt", "Sodium silicate (Na2Si3O7)", "Disodium trisilicate", "Sodium trisilicate", "JM", "Disodium trisilicate (Na2Si3O7)", "Sodium silicon oxide (Na2Si3O7)"], "SMILES": "[Si].[Na].[O]", "physical_data": {"Molecular Weight": "", "Molecular Formula": "Na.O.Si", "Melting Point": "750 \u00b0C"}}