{"cas_no": "138716-37-7", "cn_name": "5-(4-\u6c1f\u82ef\u57fa)\u5f02\u6076\u5511", "en_name": ["5-(4-Fluorophenyl)isoxazole", "Isoxazole, 5-(4-fluorophenyl)-", "5-(4-Fluorophenyl)isoxazole"], "SMILES": "FC1=CC=C(C=C1)C2=CC=NO2", "physical_data": {"Molecular Weight": "163.15", "Molecular Formula": "C9H6FNO", "Melting Point": "51-53 \u00b0C"}}