{"cas_no": "13870-29-6", "cn_name": "\u7126\u786b\u9178\u94a0", "en_name": ["Sodium pyrosulfate", "Disulfuric acid, sodium salt (1:2)", "Pyrosulfuric acid, disodium salt", "Sodium pyrosulfate", "Disulfuric acid, disodium salt", "Disodium pyrosulfate", "Sodium disulfate", "Sodium pyrosulfate (Na2S2O7)", "Disodium disulfate", "Sodium sulfate (Na2S2O7)", "Pyrosulfuric acid sodium salt (1:2)"], "SMILES": "O(S(=O)(=O)O)S(=O)(=O)O.[Na]", "physical_data": {"Molecular Weight": "", "Molecular Formula": "H2O7S2.2Na", "Melting Point": "396 \u00b0C"}}