{"cas_no": "13878-54-1", "cn_name": "(T-4)-\u53cc(1-\u5471\u5576\u4e8c\u786b\u4ee3\u7fa7\u9178-S,S\u2019)-\u950c", "en_name": ["Bis(piperidinocarbodithioato)zinc", "Zinc, bis(1-piperidinecarbodithioato-\u03baS1,\u03baS1\u2032)-, (T-4)-", "Zinc, bis(1-piperidinecarbodithioato)-", "Zinc, bis(1-piperidinecarbodithioato-S,S\u2032)-, (T-4)-", "1-Piperidinecarbodithioic acid, zinc complex", "Zinc pentamethylenedithiocarbamate", "Zinc N,N-pentamethylenedithiocarbamate", "Vulkacit ZP", "Vulkacit ZPD", "Bis(piperidinocarbodithioato)zinc", "Nocceler ZP", "ZP", "Accelerator ZPD", "1-Piperidinecarbodithioic acid, zinc salt (2:1)"], "SMILES": "[Zn+2]12([S-]C(=[S]1)N3CCCCC3)[S-]C(=[S]2)N4CCCCC4", "physical_data": {"Molecular Weight": "", "Molecular Formula": "C12H20N2S4Zn", "Melting Point": "204 \u00b0C"}}