{"cas_no": "13884-92-9", "cn_name": "(\u82ef\u786b\u7532\u57fa)\u4e09\u82ef\u57fa\u6c2f\u5316\u93fb", "en_name": ["Phosphonium, triphenyl[(phenylthio)methyl]-, chloride (1:1)", "Phosphonium, triphenyl[(phenylthio)methyl]-, chloride (1:1)", "Phosphonium, triphenyl[(phenylthio)methyl]-, chloride", "Triphenyl[(phenylthio)methyl]phosphonium chloride", "[(Phenylthio)methyl]triphenylphosphonium chloride"], "SMILES": "[P+](CSC1=CC=CC=C1)(C2=CC=CC=C2)(C3=CC=CC=C3)C4=CC=CC=C4.[Cl-]", "physical_data": {"Molecular Weight": "", "Molecular Formula": "C25H22PS.Cl", "Melting Point": "242-244 \u00b0C"}}