{"cas_no": "138825-96-4", "cn_name": "2-\u4e59\u9170\u80fa\u57fa-5-\u6eb4\u82ef\u7532\u9178\u7532\u916f", "en_name": ["Methyl 2-(acetylamino)-5-bromobenzoate", "Benzoic acid, 2-(acetylamino)-5-bromo-, methyl ester", "Methyl 2-(acetylamino)-5-bromobenzoate", "N-[4-Bromo-2-(methoxycarbonyl)phenyl]acetamide", "Methyl 5-bromo-2-acetamidobenzoate"], "SMILES": "N(C(C)=O)C1=C(C(OC)=O)C=C(Br)C=C1", "physical_data": {"Molecular Weight": "272.10", "Molecular Formula": "C10H10BrNO3", "Melting Point": "134-135 \u00b0C"}}