{"cas_no": "13880-05-2", "cn_name": "N-\u4e09\u7f9f\u7532\u57fa\u7532\u57fa\u4e19\u70ef\u9170\u80fa", "en_name": ["N-[Tris(hydroxymethyl)methyl]acrylamide", "2-Propenamide, N-[2-hydroxy-1,1-bis(hydroxymethyl)ethyl]-", "Acrylamide, N-[2-hydroxy-1,1-bis(hydroxymethyl)ethyl]-", "N-[2-Hydroxy-1,1-bis(hydroxymethyl)ethyl]-2-propenamide", "2-Acrylamido-2-(hydroxymethyl)-1,3-propanediol", "Tris(hydroxymethyl)acrylamidomethane", "N-[Tris(hydroxymethyl)methyl]acrylamide", "N-[1,3-Dihydroxy-2-(hydroxymethyl)propan-2-yl]acrylamide", "N-[2-Hydroxy-1,1-bis(hydroxymethyl)ethyl]propenamide"], "SMILES": "C(NC(C=C)=O)(CO)(CO)CO", "physical_data": {"Molecular Weight": "175.18", "Molecular Formula": "C7H13NO4", "Melting Point": "131-133 \u00b0C"}}