{"cas_no": "13880-89-2", "cn_name": "3-\u7f9f\u57fa\u620a\u4e8c\u8148", "en_name": ["3-Hydroxypentanedinitrile", "Pentanedinitrile, 3-hydroxy-", "Glutaronitrile, 3-hydroxy-", "3-Hydroxypentanedinitrile", "3-Hydroxyglutaronitrile", "1,3-Dicyano-2-hydroxypropane", "1,3-Dicyano-2-propanol", "NSC 625028"], "SMILES": "C(CC#N)(CC#N)O", "physical_data": {"Molecular Weight": "110.11", "Molecular Formula": "C5H6N2O", "Boiling Point": "202-203 \u00b0C @ Press: 11 Torr", "Density": "1.808 g/cm\u00b3 @ Temp: 22 \u00b0C"}}