{"cas_no": "13881-91-9", "cn_name": "\u6c28\u57fa\u7532\u78fa\u9178", "en_name": ["Aminomethanesulfonic acid", "Methanesulfonic acid, 1-amino-", "Methanesulfonic acid, amino-", "1-Aminomethanesulfonic acid", "(Aminomethyl)sulfonic acid", "Aminomethanesulfonic acid", "NSC 209983"], "SMILES": "S(CN)(=O)(=O)O", "physical_data": {"Molecular Weight": "111.12", "Molecular Formula": "CH5NO3S", "Melting Point": "182-183 \u00b0C"}}