{"cas_no": "13889-98-0", "cn_name": "1-\u4e59\u9170\u54cc\u55ea", "en_name": ["1-Acetylpiperazine", "Ethanone, 1-(1-piperazinyl)-", "Piperazine, 1-acetyl-", "1-(1-Piperazinyl)ethanone", "1-Acetylpiperazine", "4-Acetylpiperazine", "N-Acetylpiperazine", "1-(Piperazinyl)ethanone", "NSC 39649", "N-Acetylpiperazin", "1-(Piperazin-1-yl)ethanone", "1-(Piperazin-1-yl)ethan-1-one", "1-(Piperazine-1-yl)ethan-1-one"], "SMILES": "C(C)(=O)N1CCNCC1", "physical_data": {"Molecular Weight": "128.17", "Molecular Formula": "C6H12N2O", "Boiling Point": "101-110 \u00b0C @ Press: 1 Torr", "Melting Point": "218-220 \u00b0C"}}