{"cas_no": "13883-39-1", "cn_name": "3-\u6eb4\u4e19\u57fa\u4e09\u6c2f\u7845\u70f7", "en_name": ["(3-Bromopropyl)trichlorosilane", "Silane, (3-bromopropyl)trichloro-", "(3-Bromopropyl)trichlorosilane", "3-Bromopropyltrichlorosilane"], "SMILES": "C([Si](Cl)(Cl)Cl)CCBr", "physical_data": {"Molecular Weight": "256.43", "Molecular Formula": "C3H6BrCl3Si", "Boiling Point": "85-86 \u00b0C @ Press: 16 Torr", "Density": "1.618 g/cm\u00b3"}}