{"cas_no": "13894-63-8", "cn_name": "\u53cd\u5f0f-2-\u5df1\u70ef\u9178\u7532\u916f", "en_name": ["Methyl (E)-2-hexenoate", "2-Hexenoic acid, methyl ester, (2E)-", "2-Hexenoic acid, methyl ester, (E)-", "Methyl (E)-2-hexenoate", "Methyl trans-2-hexenoate", "(2E)-2-Hexenoic acid methyl ester", "Methyl (E)-hex-2-enoate"], "SMILES": "C(C=CCCC)(OC)=O", "physical_data": {"Molecular Weight": "128.17", "Molecular Formula": "C7H12O2", "Boiling Point": "132-135 \u00b0C @ Press: 760 Torr"}}