{"cas_no": "138907-71-8", "cn_name": "5-\u6c28\u57fa-1-(4-\u6eb4\u82ef\u57fa)-1H-\u5421\u5511-4-\u7fa7\u9178\u4e59\u916f", "en_name": ["Ethyl 5-amino-1-(4-bromophenyl)-1H-pyrazole-4-carboxylate", "1H-Pyrazole-4-carboxylic acid, 5-amino-1-(4-bromophenyl)-, ethyl ester", "Ethyl 5-amino-1-(4-bromophenyl)-1H-pyrazole-4-carboxylate"], "SMILES": "NC=1N(N=CC1C(OCC)=O)C2=CC=C(Br)C=C2", "physical_data": {"Molecular Weight": "310.15", "Molecular Formula": "C12H12BrN3O2", "Melting Point": "120-122 \u00b0C"}}