{"cas_no": "139-59-3", "cn_name": "4-\u6c28\u57fa\u4e8c\u82ef\u919a", "en_name": ["(4-Aminophenoxy)benzene", "Benzenamine, 4-phenoxy-", "Aniline, p-phenoxy-", "4-Phenoxybenzenamine", "p-Phenoxyaniline", "4-Aminodiphenyl ether", "4-Phenoxyaniline", "p-Aminophenyl phenyl ether", "4-Amino-1-phenoxybenzene", "4-Aminophenyl phenyl ether", "p-Phenoxyphenylamine", "4-Phenoxyphenylamine", "NSC 4629", "NSC 57084", "NSC 61131", "4-(Phenyloxy)aniline", "(4-Aminophenoxy)benzene", "1-Amino-4-phenoxybenzene"], "SMILES": "O(C1=CC=C(N)C=C1)C2=CC=CC=C2", "physical_data": {"Molecular Weight": "185.22", "Molecular Formula": "C12H11NO", "Boiling Point": "187-189 \u00b0C", "Melting Point": "83 \u00b0C"}}