{"cas_no": "139-85-5", "cn_name": "3,4-\u4e8c\u7f9f\u57fa\u82ef\u7532\u919b", "en_name": ["3,4-Dihydroxybenzaldehyde", "Benzaldehyde, 3,4-dihydroxy-", "Protocatechualdehyde", "3,4-Dihydroxybenzaldehyde", "3,4-Dihydroxybenzenecarbonal", "Protocatechuic aldehyde", "4-Formyl-1,2-dihydroxybenzene", "Rancinamycin IV", "1,2-Dihydroxy-4-formylbenzene", "NC 033", "4-Formyl-1,2-benzenediol", "Catechaldehyde", "NSC 22961", "4-Formylcatechol", "3,4-Dihydroxybezaldehyde", "4-Formyl-2-hydroxyphenol"], "SMILES": "C(=O)C1=CC(O)=C(O)C=C1", "physical_data": {"Molecular Weight": "138.12", "Molecular Formula": "C7H6O3", "Melting Point": "153 \u00b0C (decomp)"}}