{"cas_no": "139-89-9", "cn_name": "\u7f9f\u4e59\u57fa\u4e59\u4e8c\u80fa\u4e09\u4e59\u9178\u4e09\u94a0\u76d0", "en_name": ["Trisodium HEDTA", "Glycine, N-[2-[bis(carboxymethyl)amino]ethyl]-N-(2-hydroxyethyl)-, sodium salt (1:3)", "Glycine, N-(carboxymethyl)-N\u2032-(2-hydroxyethyl)-N,N\u2032-ethylenedi-, trisodium salt", "Glycine, N-[2-[bis(carboxymethyl)amino]ethyl]-N-(2-hydroxyethyl)-, trisodium salt", "N-(Carboxymethyl)-N\u2032-(2-hydroxyethyl)-N,N\u2032-ethylenediglycine trisodium salt", "N-Hydroxyethylethylenediaminetriacetic acid trisodium salt", "Monaquest ICA 120", "Trisodium N-hydroxyethylethylenediamine-N,N\u2032,N\u2032-triacetate", "N-(Hydroxyethyl)-N,N\u2032,N\u2032-ethylenediaminetriacetic acid trisodium salt", "Trisodium N-(hydroxyethyl)ethylenediaminetriacetate", "Trisodium salt N-hydroxyethylethylenediaminetriacetic acid", "Detarol trisodium salt", "Trisodium N-(2-hydroxyethyl)ethylenediamine-N,N\u2032,N\u2032-triacetate", "Chemcolox 800", "N-(2-Hydroxyethyl)-N,N\u2032,N\u2032-ethylenediaminetriacetic acid trisodium salt", "Hamp-ol Crystals", "Hamp-ol 120", "Trisodium HEDTA", "Perma Kleer 80", "Perma Kleer 80 Crystals", "Versenol 120", "Chel DM 41", "Trisodium N-(2-hydroxyethyl)ethylenediaminetriacetate", "Sodium N-(2-hydroxylethyl)ethylenediamine-N,N\u2032,N\u2032-triacetate", "Clewat OH 300", "Trilon D", "Chelest H", "Hydroxyethylethylenediaminetriacetic acid trisodium salt", "Clewat OH 35", "Chelest HC", "Dissolvine H 40", "N-Hydroxyethyl ethylenediamine triacetate trisodium salt", "Chelest HC-SD"], "SMILES": "N(CCN(CC(O)=O)CCO)(CC(O)=O)CC(O)=O.[Na]", "physical_data": {"Molecular Weight": "", "Molecular Formula": "C10H18N2O7.3Na", "Melting Point": "288 \u00b0C (decomp)", "Density": "1.285 g/cm\u00b3"}}