{"cas_no": "139-08-2", "cn_name": "\u5341\u56db\u70f7\u57fa\u4e8c\u7532\u57fa\u82c4\u57fa\u6c2f\u5316\u94f5", "en_name": ["Benzyldimethyltetradecylammonium chloride", "Benzenemethanaminium, N,N-dimethyl-N-tetradecyl-, chloride (1:1)", "Benzyldimethyltetradecylammonium chloride", "Ammonium, benzyldimethyltetradecyl-, chloride", "Benzenemethanaminium, N,N-dimethyl-N-tetradecyl-, chloride", "BTC 824P100", "Dibactol", "Dimethylbenzyltetradecylammonium chloride", "Myristyldimethylbenzylammonium chloride", "Tetradecyldimethylbenzylammonium chloride", "Zephiramine", "N-Benzyl-N,N-dimethylmyristylammonium chloride", "Tetradecylbenzyldimethylammonium chloride", "Quarton 14BCl", "Sanibond 200LG", "Dimethylbenzylmyristylammonium chloride", "Barquat MS 100", "N-Benzyl-N-tetradecyldimethylammonium chloride", "Zephiramine chloride", "N-Tetradecyl-N,N-dimethylbenzylammonium chloride", "Benzyl(tetradecyl)dimethylammonium chloride", "Sanisol M 100", "N,N-Dimethyl-N-tetradecylbenzenemethanaminium chloride", "Cation M 2-100", "Nissan Cation M 2-100", "Querton 14BCL", "14BCL", "Arquad DM 14B90", "M 2-100", "Miristalkonium chloride", "Myristalkonium chloride", "Cyncal", "N-Benzyl-N,N-dimethyltetradecylammonium chloride", "Zeph", "JAQ Powdered Quat", "Zephyramine", "Zephyramine (surfactant)", "TDMBAC", "Nissan Cation M 2-100R", "Cation M 2-100R", "M 2-100R", "Ammonyx", "N-Tetradecyl-N-benzyl-N,N-dimethylammonium chloride", "TDBAC", "Myristyl benzyl dimethyl ammonium chloride", "Uniquat J"], "SMILES": "C([N+](CCCCCCCCCCCCCC)(C)C)C1=CC=CC=C1.[Cl-]", "physical_data": {"Molecular Weight": "", "Molecular Formula": "C23H42N.Cl", "Melting Point": "63 \u00b0C"}}