{"cas_no": "139-40-2", "cn_name": "\u6251\u706d\u6d25", "en_name": ["Propazine", "1,3,5-Triazine-2,4-diamine, 6-chloro-N2,N4-bis(1-methylethyl)-", "s-Triazine, 2-chloro-4,6-bis(isopropylamino)-", "1,3,5-Triazine-2,4-diamine, 6-chloro-N,N\u2032-bis(1-methylethyl)-", "6-Chloro-N2,N4-bis(1-methylethyl)-1,3,5-triazine-2,4-diamine", "G 30028", "Geigy 30,028", "2,4-Bis(isopropylamino)-6-chloro-s-triazine", "2-Chloro-4,6-bis(isopropylamino)-s-triazine", "2-Chloro-4,6-bis(isopropylamino)-1,3,5-triazine", "Plantulin", "Propazin", "Propazine", "Propazine (herbicide)", "Propasin", "Gesamil", "2-Chloro-4-isopropylamino-6-isopropylamino-s-triazine", "Milogard", "s-Bis(isopropylamino)chlorotriazine", "Primatol P", "Prozinex", "NSC 26002", "2,4-Bis[(1-methylethyl)amino]-6-chloro-s-triazine", "2,4-Bis(isopropylamino)-6-chloro-1,3,5-triazine"], "SMILES": "N(C(C)C)C=1N=C(NC(C)C)N=C(Cl)N1", "physical_data": {"Molecular Weight": "229.71", "Molecular Formula": "C9H16ClN5", "Melting Point": "229.7 \u00b0C", "Density": "1.162 g/cm\u00b3 @ Temp: 20 \u00b0C"}}