{"cas_no": "139-45-7", "cn_name": "\u4e09\u4e19\u9178\u7518\u6cb9\u916f", "en_name": ["Tripropionin", "1,2,3-Propanetriol, 1,2,3-tripropanoate", "1,2,3-Propanetriol, tripropanoate", "Propionin, tri-", "Glyceryl tripropionate", "Glycerol tripropionate", "Tripropionin", "Glycerine tripropionate", "Tripropionylglycerol", "NSC 36744", "Tripropanoin", "2,3-Di(propanoyloxy)propyl propanoate"], "SMILES": "C(OC(CC)=O)(COC(CC)=O)COC(CC)=O", "physical_data": {"Molecular Weight": "260.28", "Molecular Formula": "C12H20O6", "Boiling Point": "175-176 \u00b0C", "Density": "1.100 g/cm\u00b3 @ Temp: 18 \u00b0C"}}