{"cas_no": "139-65-1", "cn_name": "4,4-\u4e8c\u6c28\u57fa\u4e8c\u82ef\u786b\u919a", "en_name": ["4,4\u2032-Diaminodiphenyl sulfide", "Benzenamine, 4,4\u2032-thiobis-", "Aniline, 4,4\u2032-thiodi-", "4,4\u2032-Thiobis[benzenamine]", "Bis(4-aminophenyl) sulfide", "p,p\u2032-Diaminodiphenyl sulfide", "4,4\u2032-Diaminodiphenyl sulfide", "Di(p-aminophenyl) sulfide", "p,p-Thiodianiline", "Thioaniline", "Thiodi-p-phenylenediamine", "4,4\u2032-Thiodianiline", "4,4\u2032-Diaminophenyl sulfide", "4,4\u2032-Thiobis[aniline]", "4-(Aminophenylthio)phenylamine", "NSC 6191", "BAPS", "4,4\u2032-Diaminodiphenyl thioether", "p-Aminodiphenyl sulfide", "[4-[(4-Aminophenyl)thio]phenyl]amine"], "SMILES": "S(C1=CC=C(N)C=C1)C2=CC=C(N)C=C2", "physical_data": {"Molecular Weight": "216.30", "Molecular Formula": "C12H12N2S", "Boiling Point": "361 \u00b0C", "Melting Point": "108-109 \u00b0C"}}