{"cas_no": "139-13-9", "cn_name": "\u6c2e\u5ddd\u4e09\u4e59\u9178", "en_name": ["Nitrilotriacetic acid", "Glycine, N,N-bis(carboxymethyl)-", "Acetic acid, nitrilotri-", "N,N-Bis(carboxymethyl)glycine", "Chel 300", "Complexon I", "Nitrilotriacetic acid", "NTA", "Triglycollamic acid", "Nitrilo-2,2\u2032,2\u2032\u2032-triacetic acid", "Titriplex I", "\u03b1,\u03b1\u2032,\u03b1\u2032\u2032-Trimethylaminetricarboxylic acid", "Triglycine", "Hampshire NTA acid", "Versene NTA acid", "Chelest NT", "Nitrilotris(methylenecarboxylic acid)", "Dissolvine A", "NSC 2121", "Tris(hydroxycarbonylmethyl)amine", "Nitrilo-N,N,N-triacetic acid", "412: PN: WO2007070372 PAGE: 72 claimed protein", "Trilon AS", "Tris(carboxymethyl)amine", "Dissolvine AZ", "N 0098", "(Bis-carboxymethyl-amino)-acetic acid", "Glycine-N,N-diacetic acid", "2-[Bis(carboxymethyl)amino]acetic acid", "MeSH ID: D009571"], "SMILES": "N(CC(O)=O)(CC(O)=O)CC(O)=O", "physical_data": {"Molecular Weight": "191.14", "Molecular Formula": "C6H9NO6", "Melting Point": "242 \u00b0C (decomp)", "Density": "&gt;1 g/cm\u00b3 @ Temp: 20 \u00b0C"}}