{"cas_no": "139-07-1", "cn_name": "\u5341\u4e8c\u70f7\u57fa\u4e8c\u7532\u57fa\u82c4\u57fa\u6c2f\u5316\u94f5", "en_name": ["Benzyldodecyldimethylammonium chloride", "Benzenemethanaminium, N-dodecyl-N,N-dimethyl-, chloride (1:1)", "Benzyldodecyldimethylammonium chloride", "Ammonium, benzyldodecyldimethyl-, chloride", "Benzenemethanaminium, N-dodecyl-N,N-dimethyl-, chloride", "Bas 2631", "Benzododecinium chloride", "Catigene OM", "Dimethylbenzyldodecylammonium chloride", "Dodecylbenzyldimethylammonium chloride", "Dodecyldimethylbenzylammonium chloride", "Lauryldimethylbenzylammonium chloride", "Noramium DA 50", "Vantoc CL", "N-Dodecyl-N,N-dimethylbenzenemethanaminium chloride", "Benzyldimethyllaurylammonium chloride", "Benzyllauryldimethylammonium chloride", "Dimethyldodecylbenzylammonium chloride", "Lauryl benzalkonium chloride", "Laurylbenzyldimethylammonium chloride", "Cequartyl A", "Benzyldimethyldodecylammonium chloride", "Dimethylbenzyllaurylammonium chloride", "Dehyquart LDB", "N-Benzyl-N-dodecyl-N,N-dimethylammonium chloride", "N-Dodecyl-N,N-dimethyl-N-benzylammonium chloride", "DYK 1125", "Catiolite BC 50", "Swanol CA 100", "Dimethylaurylbenzylammonium chloride", "Rolcril", "Orthosan HM", "Zephirol", "Swanol CA 101", "Dimethyllaurylbenzylammonium chloride", "Rewoquat B 50", "Tetranil BC 80", "Catiogen PAN", "Loraquat B 50", "Retarder N", "Catinal CB 50", "Texnol R 5", "QBA 1211", "Lauralkonium chloride", "Katamin AB 18", "Croda N-Dodecyl", "Cationic 1227", "Leveling Agent 1227", "Pionin B 231", "N-Lauryl-N,N-dimethyl-N-benzylammonium chloride", "Catiogen BC 50", "Accelerator 1227", "Surfactant 1227", "BenzylQUAT?", "Germicide 1227", "BAC 12", "Cationic Surfactant 1227", "BTC 1218-50", "N-Benzyl-N,N-dimethyl-N-laurylammonium chloride", "D 1227", "QBA 1211S", "Fentacare 1227-45", "Cationic surfactant 1227"], "SMILES": "C([N+](CCCCCCCCCCCC)(C)C)C1=CC=CC=C1.[Cl-]", "physical_data": {"Molecular Weight": "", "Molecular Formula": "C21H38N.Cl", "Melting Point": "42 \u00b0C"}}