{"cas_no": "139-33-3", "cn_name": "\u4e59\u4e8c\u80fa\u56db\u4e59\u9178\u4e8c\u94a0", "en_name": ["Disodium ethylenediaminetetraacetate", "Glycine, N,N\u2032-1,2-ethanediylbis[N-(carboxymethyl)-, sodium salt (1:2)", "Acetic acid, (ethylenedinitrilo)tetra-, disodium salt", "Glycine, N,N\u2032-1,2-ethanediylbis[N-(carboxymethyl)-, disodium salt", "Complexon III", "Disodium diacid ethylenediaminetetraacetate", "Disodium dihydrogen ethylenediaminetetraacetate", "Disodium edetate", "Disodium EDTA", "Disodium ethylenediaminetetraacetate", "Disodium (ethylenedinitrilo)tetraacetate", "Disodium sequestrene", "Disodium versene", "Edathamil disodium", "Edetate Disodium", "Endrate disodium", "Metaquest B", "Triplex III", "Chelaplex III", "Ethylenediaminetetraacetic acid disodium salt", "Disodium versenate", "Disodium tetracemate", "F 1 (complexon)", "Selekton B2", "Sodium versenate", "F 1", "Titriplex III", "Perma Kleer Di Crystals", "Versene NA", "Versene Na2", "Sequestrene Na2", "Disodium ethylenediamine-N,N,N\u2032,N\u2032-tetraacetate", "Trilon BD", "Chelest B", "Chelaton III", "Chelaplex", "Zonon D", "Disodium ethylenediaminetetraacetic acid salt", "Dotite 2NA", "Khelaton 3", "EDTA disodium salt", "Komplexon III", "Mavacid ED 4", "Chelest 200", "Clewat N", "Versonol 120", "Tetracemate disodium", "Versene disodium salt", "Disodium edathamil", "Clewat N 2", "Salina", "Dissolvine Na2", "Chelest 2BS", "TW 204", "Idranal III", "Nervanaid Ba2", "Edeta BD", "Dissolvine Na2S", "Dissolvine Na 2T", "Dissolvine Na 2x", "VRP 1034", "Ethylenedinitrilotetraacetate disodium", "Chelest 2B-SD", "EDTA&", "bull", "Na2", "Protachem NA 2P", "Krewat N"], "SMILES": "N(CCN(CC(O)=O)CC(O)=O)(CC(O)=O)CC(O)=O.[Na]", "physical_data": {"Molecular Weight": "", "Molecular Formula": "C10H16N2O8.2Na", "Melting Point": "252 \u00b0C (decomp)"}}