{"cas_no": "139-87-7", "cn_name": "N-\u4e59\u57fa\u4e8c\u4e59\u9187\u80fa", "en_name": ["N-Ethyldiethanolamine", "Ethanol, 2,2\u2032-(ethylimino)bis-", "Ethanol, 2,2\u2032-(ethylimino)di-", "2,2\u2032-(Ethylimino)bis[ethanol]", "Ethyldiethanolamine", "N-Ethyl-2,2\u2032-iminodiethanol", "2,2\u2032-(Ethylimino)diethanol", "N-Ethyldiethanolamine", "Diethanolethylamine", "N,N-Bis(2-hydroxyethyl)ethylamine", "Ethylbis(2-hydroxyethyl)amine", "N-Ethyl-N,N-diethanolamine", "2-[Ethyl(2-hydroxyethyl)amino]ethanol", "EDEA", "Amino Alcohol MED", "2,2\u2032-(Ethylazanediyl)diethanol", "2-[Ethyl(2-hydroxyethyl)amino]ethan-1-ol"], "SMILES": "N(CCO)(CCO)CC", "physical_data": {"Molecular Weight": "133.19", "Molecular Formula": "C6H15NO2", "Boiling Point": "247 \u00b0C", "Melting Point": "-50 \u00b0C"}}