{"cas_no": "139-66-2", "cn_name": "\u4e8c\u82ef\u786b\u919a", "en_name": ["Diphenyl sulfide", "Benzene, 1,1\u2032-thiobis-", "Phenyl sulfide", "1,1\u2032-Thiobis[benzene]", "Diphenyl sulfide", "Diphenyl sulphide", "Diphenyl thioether", "Diphenyl monosulfide", "Diphenylmercaptan", "Phenylthiobenzene", "NSC 4568", "Diphenylsulfane", "(Phenylsulfanyl)benzene"], "SMILES": "S(C1=CC=CC=C1)C2=CC=CC=C2", "physical_data": {"Molecular Weight": "186.27", "Molecular Formula": "C12H10S", "Boiling Point": "296 \u00b0C", "Melting Point": "-25.9 \u00b0C", "Density": "1.1136 g/cm\u00b3 @ Temp: 20 \u00b0C"}}