{"cas_no": "139-77-5", "cn_name": "1-(3-\u7532\u6c27\u57fa\u82ef\u57fa)\u8132", "en_name": ["N-(3-Methoxyphenyl)urea", "Urea, N-(3-methoxyphenyl)-", "Urea, (m-methoxyphenyl)-", "Urea, (3-methoxyphenyl)-", "N-(3-Methoxyphenyl)urea", "(m-Methoxyphenyl)urea", "G 5", "3-Ureidoanisole", "3-Methoxyphenylurea", "NSC 526659", "1-(3-Methoxyphenyl)urea"], "SMILES": "N(C(N)=O)C1=CC(OC)=CC=C1", "physical_data": {"Molecular Weight": "166.18", "Molecular Formula": "C8H10N2O2", "Melting Point": "134.5 \u00b0C"}}