{"cas_no": "139-91-3", "cn_name": "\u544b\u5583\u4ed6\u916e", "en_name": ["Furaltadone", "2-Oxazolidinone, 5-(4-morpholinylmethyl)-3-[[(5-nitro-2-furanyl)methylene]amino]-", "2-Oxazolidinone, 5-(morpholinomethyl)-3-[(5-nitrofurfurylidene)amino]-", "5-(4-Morpholinylmethyl)-3-[[(5-nitro-2-furanyl)methylene]amino]-2-oxazolidinone", "F 150", "NF 260", "Altafur", "Furaltadone", "Furazolin", "Furazoline", "Furmethonol", "5-Morpholinomethyl-3-(5-nitrofurfurylideneamino)-2-oxazolidinone", "5-(4-Morpholinomethyl)-3-(5-nitro-2-furfurylideneamino)-2-oxazolidinone", "5-(N-Morpholinomethyl)-3-(5-nitrofurfurylideneamino)-2-oxazolidone", "N-(5-Nitro-2-furylidene)-3-amino-5-(N\u2032-morpholinomethyl)-2-oxazolidone", "Valsyn", "Furmethanol", "5-Morpholinomethyl-3-(5-nitrofurfurylideneamino)-2-oxazolidone", "5-Morpholinomethyl-3-(5-nitrofurfurylidenamino)-2-oxazolidone", "5-Morpholinomethyl-3-(5-nitrofurfurylideneamino)oxazolidone", "Nitrofurmethone", "Altabactina", "Sepsinol", "Unifur", "Medifuran", "Ibifur", "Nitraldone", "Otifuril", "Ultrafur", "3-(5-Nitro-2-furfurylideneamino)-5-(4-morpholinomethyl)-2-oxazolidone", "Furmetonol", "Nitrofurmeton", "Furaltadon", "Furitale", "Furlate", "Furlidon", "Furmetox", "Fur-Novo", "Furantoina", "Anauran", "NSC 42388"], "SMILES": "C(C1CN(N=CC=2OC(N(=O)=O)=CC2)C(=O)O1)N3CCOCC3", "physical_data": {"Molecular Weight": "324.29", "Molecular Formula": "C13H16N4O6", "Melting Point": "206 \u00b0C (decomp)"}}