{"cas_no": "139-44-6", "cn_name": "\u4e09\u7f9f\u57fa\u786c\u8102\u7cbe", "en_name": ["Trihydroxystearin", "Octadecanoic acid, 12-hydroxy-, 1,1\u2032,1\u2032\u2032-(1,2,3-propanetriyl) ester", "Octadecanoic acid, 12-hydroxy-, 1,2,3-propanetriyl ester", "Octadecanoic acid, 12-hydroxy-, triester with glycerol", "Glycerol, tris(12-hydroxyoctadecanoate)", "Glyceryl tris(12-hydroxystearate)", "Tri-12-hydroxystearin", "12-Hydroxystearic acid triglyceride", "Glycerol tris(12-hydroxystearate)", "Glycerol 12-hydroxystearate", "Kao Wax 85", "K 3 (wax)", "K 3", "Rikemal TG 12", "K 3 Wax 200", "Trihydroxystearin", "Flowtone R", "Glycerine tris(12-hydroxystearate)", "Kao Wax 85P", "Cutina BW", "Thixcin R", "NSC 2389", "Rheocin", "Reosin", "Kawastar CR"], "SMILES": "C(OC(CCCCCCCCCCC(CCCCCC)O)=O)(COC(CCCCCCCCCCC(CCCCCC)O)=O)COC(CCCCCCCCCCC(CCCCCC)O)=O", "physical_data": {"Molecular Weight": "939.48", "Molecular Formula": "C57H110O9", "Melting Point": "89.4 \u00b0C"}}