{"cas_no": "139-02-6", "cn_name": "\u82ef\u915a\u94a0", "en_name": ["Sodium phenoxide", "Phenol, sodium salt (1:1)", "Sodium phenoxide", "Phenol, sodium salt", "Phenol sodium", "Sodium carbolate", "Sodium phenate", "Sodium phenolate", "Sodium phenylate"], "SMILES": "OC1=CC=CC=C1.[Na]", "physical_data": {"Molecular Weight": "", "Molecular Formula": "C6H6O.Na", "Melting Point": "59-60 \u00b0C", "Density": "0.898 g/cm\u00b3"}}