{"cas_no": "13909-73-4", "cn_name": "2',3',4'-\u4e09\u7532\u6c27\u57fa\u82ef\u4e59\u916e", "en_name": ["2\u2032,3\u2032,4\u2032-Trimethoxyacetophenone", "Ethanone, 1-(2,3,4-trimethoxyphenyl)-", "Acetophenone, 2\u2032,3\u2032,4\u2032-trimethoxy-", "1-(2,3,4-Trimethoxyphenyl)ethanone", "Tri-O-methylgallacetophenone", "2\u2032,3\u2032,4\u2032-Trimethoxyacetophenone", "Methyl 2,3,4-trimethoxyphenyl ketone", "NSC 68811", "1-(2,3,4-Trimethoxyphenyl)ethan-1-one"], "SMILES": "O(C)C1=C(OC)C(OC)=CC=C1C(C)=O", "physical_data": {"Molecular Weight": "210.23", "Molecular Formula": "C11H14O4", "Boiling Point": "296 \u00b0C", "Melting Point": "15.8 \u00b0C"}}