{"cas_no": "139001-49-3", "cn_name": "\u73af\u82ef\u8349\u916e", "en_name": ["Profoxydim", "2-Cyclohexen-1-one, 2-[1-[[2-(4-chlorophenoxy)propoxy]imino]butyl]-3-hydroxy-5-(tetrahydro-2H-thiopyran-3-yl)-", "2H-Thiopyran, 2-cyclohexen-1-one deriv.", "2-[1-[[2-(4-Chlorophenoxy)propoxy]imino]butyl]-3-hydroxy-5-(tetrahydro-2H-thiopyran-3-yl)-2-cyclohexen-1-one", "BAS 625H", "Aura", "Tetris", "Profoxydim", "BAS 625", "Clefoxydim", "Aura Plus", "2-[1-[2-(4-Chlorophenoxy)propoxyimino]butyl]-3-hydroxy-5-thian-3-ylcyclohex-2-enone"], "SMILES": "O=C1CC(CC(O)=C1C(=NOCC(OC2=CC=C(Cl)C=C2)C)CCC)C3CCCSC3", "physical_data": {"Molecular Weight": "466.03", "Molecular Formula": "C24H32ClNO4S", "Melting Point": "&lt;25 \u00b0C"}}