{"cas_no": "139079-39-3", "cn_name": "7-\u7f9f\u57fa\u55b9\u786b\u5e73\u6742\u8d28", "en_name": ["7-Hydroxyquetiapine", "Dibenzo[b,f][1,4]thiazepin-7-ol, 11-[4-[2-(2-hydroxyethoxy)ethyl]-1-piperazinyl]-", "11-[4-[2-(2-Hydroxyethoxy)ethyl]-1-piperazinyl]dibenzo[b,f][1,4]thiazepin-7-ol", "ICI 214227", "7-Hydroxyquetiapine"], "SMILES": "C(COCCO)N1CCN(C=2C=3C(SC=4C(N2)=CC=C(O)C4)=CC=CC3)CC1", "physical_data": {"Molecular Weight": "399.51", "Molecular Formula": "C21H25N3O3S", "Melting Point": "219-221 \u00b0C"}}