{"cas_no": "13906-09-7", "cn_name": "2-\u5def\u57fa-4(3H)-\u55b9\u5511\u916e", "en_name": ["2-Mercapto-4(3H)-quinazolinone", "4(1H)-Quinazolinone, 2,3-dihydro-2-thioxo-", "2,4(1H,3H)-Quinazolinedione, 2-thio-", "2,3-Dihydro-2-thioxo-4(1H)-quinazolinone", "2-Thio-4-oxo-1,2,3,4-tetrahydroquinazoline", "2-Thio-2,4(1H,3H)-quinazolinedione", "2-Mercapto-4-quinazolinol", "2-Mercaptoquinazolin-4-one", "2,3-Dihydro-2-thioxoquinazolin-4(1H)-one", "2-Thioxo-4-quinazolinone", "2-Mercapto-4(3H)-quinazolinone", "2-Mercapto-3H-quinazolin-4-one", "2-Thioxo-2,3-dihydroquinazolin-4(1H)-one", "2-Mercapto-3,4-dihydro-4-quinazolone", "2-Mercaptoquinazolin-4(1H)-one", "2-Sulfanylquinazolin-4-ol", "2-Sulfanyl-1,4-dihydroquinazolin-4-one", "2-Sulfanylidene-1H-quinazolin-4-one", "2-Thioxo-2,3-dihydro-1H-quinazolin-4-one", "2-Sulfanyl-3,4-dihydroquinazolin-4-one", "2-Sulfanylidene-1,2,3,4-tetrahydroquinazolin-4-one"], "SMILES": "O=C1C=2C(NC(=S)N1)=CC=CC2", "physical_data": {"Molecular Weight": "178.21", "Molecular Formula": "C8H6N2OS", "Melting Point": "315-316 \u00b0C"}}