{"cas_no": "13902-62-0", "cn_name": "(1S,4R,4AR,8AR)-1,2,3,4,4A,5,8,8A-\u516b\u6c22-1,4A-\u4e8c\u7532\u57fa-7-(1-\u7532\u57fa\u4e59\u57fa)-1,4-\u4e8c\u7f9f\u57fa\u8418", "en_name": ["Oplodiol", "1,4-Naphthalenediol, 1,2,3,4,4a,5,8,8a-octahydro-1,4a-dimethyl-7-(1-methylethyl)-, (1S,4R,4aR,8aR)-", "Eudesm-7-ene-1\u03b2,4-diol", "1,4-Naphthalenediol, 1,2,3,4,4a,5,8,8a-octahydro-1,4a-dimethyl-7-(1-methylethyl)-, [1S-(1\u03b1,4\u03b1,4a\u03b1,8a\u03b2)]-", "(1S,4R,4aR,8aR)-1,2,3,4,4a,5,8,8a-Octahydro-1,4a-dimethyl-7-(1-methylethyl)-1,4-naphthalenediol", "Oplodiol", "(-)-Oplodiol"], "SMILES": "CC12C(C(C)(O)CCC1O)CC(C(C)C)=CC2", "physical_data": {"Molecular Weight": "238.37", "Molecular Formula": "C15H26O2", "Melting Point": "106-107 \u00b0C"}}