{"cas_no": "1390-65-4", "cn_name": "\u80ed\u8102\u7ea2", "en_name": ["Carmine", "Carmine", "B Rose Liquid", "Carmine red", "CC 1000WS", "MeSH ID: D002329"], "SMILES": "", "physical_data": {"Molecular Weight": "", "Molecular Formula": "Unspecified", "Melting Point": "298-300 \u00b0C (decomp)"}}