{"cas_no": "139147-73-2", "cn_name": "\u4e8c\u73af\u620a\u57fa\u4e8c\u6c2f\u7845\u70f7", "en_name": ["1,1\u2032-(Dichlorosilylene)bis[cyclopentane]", "Cyclopentane, 1,1\u2032-(dichlorosilylene)bis-", "Silane, dichlorodicyclopentyl-", "1,1\u2032-(Dichlorosilylene)bis[cyclopentane]", "Dichlorodicyclopentylsilane", "Dicyclopentyldichlorosilane", "Dichlorobis(cyclopentyl)silane"], "SMILES": "[Si](Cl)(Cl)(C1CCCC1)C2CCCC2", "physical_data": {"Molecular Weight": "237.24", "Molecular Formula": "C10H18Cl2Si", "Boiling Point": "105-107 \u00b0C @ Press: 10 Torr", "Density": "1.110 g/cm\u00b3"}}