{"cas_no": "139110-80-8", "cn_name": "\u624e\u90a3\u7c73\u97e6", "en_name": ["Zanamivir", "D-glycero-D-galacto-Non-2-enonic acid, 5-(acetylamino)-4-[(aminoiminomethyl)amino]-2,6-anhydro-3,4,5-trideoxy-", "5-(Acetylamino)-4-[(aminoiminomethyl)amino]-2,6-anhydro-3,4,5-trideoxy-D-glycero-D-galacto-non-2-enonic acid", "4-Guanidino-Neu5Ac2en", "GG 167", "GR 121167X", "Zanamivir", "GANA", "GANA (inhibitor)", "4-Guanidino-2,4-dideoxy-2,3-dehydro-N-acetylneuraminic acid", "Relenza", "Zanamir", "5-Acetamido-4-guanidino-2,3,4,5-tetradeoxy-D-glycero-D-galacto-non-2-enopyranosonic acid", "(2R,3R,4S)-4-Guanidino-3-(prop-1-en-2-ylamino)-2-((1R,2R)-1,2,3-trihydroxypropyl)-3,4-dihydro-2H-pyran-6-carboxylic acid", "Zanamvir", "Zanamiwei", "Dectova", "MeSH ID: D053243"], "SMILES": "N(C(C)=O)C1C(C(C(CO)O)O)OC(C(O)=O)=CC1NC(=N)N", "physical_data": {"Molecular Weight": "332.31", "Molecular Formula": "C12H20N4O7", "Melting Point": "253-255 \u00b0C"}}