{"cas_no": "13912-65-7", "cn_name": "4-(2,5-\u4e8c\u6c27\u4ee3\u56db\u6c22\u544b\u5583-3-\u57fa)-1,2,3,4-\u56db\u6c22\u8418-1,2-\u4e8c\u7532\u9178\u9150", "en_name": ["1,3,3a,4,5,9b-Hexahydro-5-(tetrahydro-2,5-dioxo-3-furanyl)naphtho[1,2-c]furan-1,3-dione", "Naphtho[1,2-c]furan-1,3-dione, 3a,4,5,9b-tetrahydro-5-(tetrahydro-2,5-dioxo-3-furanyl)-", "1-Naphthalenesuccinic acid, 3,4-dicarboxy-1,2,3,4-tetrahydro-, cyclic \u03b1,\u03b2:3,4-dianhydride", "1-Naphthalenesuccinic anhydride, 3,4-dicarboxy-1,2,3,4-tetrahydro-, cyclic anhydride", "Naphtho[1,2-c]furan-5-succinic anhydride, 1,3,3a,4,5,9b-hexahydro-1,3-dioxo-", "3a,4,5,9b-Tetrahydro-5-(tetrahydro-2,5-dioxo-3-furanyl)naphtho[1,2-c]furan-1,3-dione", "2-(3,4-Dicarboxy-1,2,3,4-tetrahydro-1-naphthyl)succinic dianhydride", "3,4-Dicarboxy-1,2,3,4-tetrahydro-1-naphthalenesuccinic dianhydride", "Tetralin dianhydride", "3,4-Dicarboxy-1,2,3,4-tetrahydro-1-naphthalenesuccinic acid dianhydride", "Rikacid TDA 100", "1,3,3a,4,5,9b-Hexahydro-5-(tetrahydro-2,5-dioxo-3-furanyl)naphtho[1,2-c]furan-1,3-dione", "3,4-Dicarboxy-1,2,3,4-tetrahydro-1-naphthalenesuccinic anhydride", "4-(2,5-Dioxotetrahydrofuran-3-yl)-1,2,3,4-tetrahydronaphthalene-1,2-dicarboxylic anhydride", "4-(2,5-Dioxotetrahydrofuran-3-yl)-1,2,3,4-tetrahydronaphthalene-1,2-dicarboxylic dianhydride", "TDA 100", "4-(2,5-Dioxotetrahydrofuran-3-yl)-1,2,3,4-tetrahydronaphthalene-1,2-dicarboxylic acid anhydride", "1,3,3a,4,5,9b-Hexahydro-5-(tetrahydro-2,5-dioxo-3-furanyl)-naphtho [1,2-c] tetracarboxylic dianhydride"], "SMILES": "O=C1C(C2C=3C(C4C(C2)C(=O)OC4=O)=CC=CC3)CC(=O)O1", "physical_data": {"Molecular Weight": "300.26", "Molecular Formula": "C16H12O6", "Melting Point": "182-197 \u00b0C"}}