{"cas_no": "139122-81-9", "cn_name": "\u96f7\u516c\u85e4\u798f\u5b9a", "en_name": ["Tripterifordin", "Kauran-18-oic acid, 16,20-dihydroxy-, \u03b4-lactone, (4\u03b1)-", "1H,3H-6a,9-Methano-4,11b-propanocyclohepta[h][2]benzopyran, kauran-18-oic acid deriv.", "Tripterifordin", "(-)-Tripterifordin", "Hypodiolide A", "Antriptolactone", "Hydroxyodolide"], "SMILES": "CC12C3C(C4C5(CC(CC4)C(C)(O)C5)CC3)(COC1=O)CCC2", "physical_data": {"Molecular Weight": "318.45", "Molecular Formula": "C20H30O3", "Melting Point": "245-248 \u00b0C"}}