{"cas_no": "13910-48-0", "cn_name": "3-\u82c4\u80fa\u57fa\u4e19\u80fa", "en_name": ["N-Benzyl-1,3-propanediamine", "1,3-Propanediamine, N1-(phenylmethyl)-", "1,3-Propanediamine, N-benzyl-", "1,3-Propanediamine, N-(phenylmethyl)-", "Benzylamine, N-(3-aminopropyl)-", "N1-(Phenylmethyl)-1,3-propanediamine", "1-Benzylamino-3-aminopropane", "N-Benzylpropylenediamine", "N-(Phenylmethyl)-1,3-propanediamine", "N-Benzyl-1,3-diaminopropane", "N-Benzyl-1,3-propanediamine", "N-Benzyl-1,3-propylenediamine", "3-(Benzylamino)propylamine", "N-Benzyltrimethylenediamine", "3-(Benzylamino)propanamine", "N-(3-Aminopropyl)benzylamine", "(3-Aminopropyl)(benzyl)amine"], "SMILES": "C(NCCCN)C1=CC=CC=C1", "physical_data": {"Molecular Weight": "164.25", "Molecular Formula": "C10H16N2", "Boiling Point": "98-102 \u00b0C @ Press: 1 Torr"}}