{"cas_no": "139180-30-6", "cn_name": "ZM 241385", "en_name": ["4-[2-[7-Amino-2-(2-furyl)[1,2,4]triazolo[2,3-a][1,3,5]triazin-5-ylamino]ethyl]phenol", "Phenol, 4-[2-[[7-amino-2-(2-furanyl)[1,2,4]triazolo[1,5-a][1,3,5]triazin-5-yl]amino]ethyl]-", "[1,2,4]Triazolo[1,5-a][1,3,5]triazine, phenol deriv.", "4-[2-[[7-Amino-2-(2-furanyl)[1,2,4]triazolo[1,5-a][1,3,5]triazin-5-yl]amino]ethyl]phenol", "ZM 241385", "4-[2-[7-Amino-2-(2-furyl)[1,2,4]triazolo[2,3-a][1,3,5]triazin-5-ylamino]ethyl]phenol", "ZM 241358"], "SMILES": "NC=1N2C(=NC(=N2)C3=CC=CO3)N=C(NCCC4=CC=C(O)C=C4)N1", "physical_data": {"Molecular Weight": "337.34", "Molecular Formula": "C16H15N7O2", "Melting Point": "229-231 \u00b0C"}}