{"cas_no": "13922-41-3", "cn_name": "1-\u8418\u787c\u9178", "en_name": ["1-Naphthylboronic acid", "Boronic acid, B-1-naphthalenyl-", "1-Naphthaleneboronic acid", "Boronic acid, 1-naphthalenyl-", "B-1-Naphthalenylboronic acid", "\u03b1-Naphthaleneboronic acid", "1-Naphthylboronic acid", "1-Naphthylboric acid", "(1-Naphthalenyl)boronic acid", "NSC 78936", "\u03b1-Naphthylboronic acid", "(Naphthalen-1-yl)boronic acid", "(1-Naphthalyl)boronic acid"], "SMILES": "B(O)(O)C=1C2=C(C=CC1)C=CC=C2", "physical_data": {"Molecular Weight": "171.99", "Molecular Formula": "C10H9BO2", "Melting Point": "202 \u00b0C"}}