{"cas_no": "13925-00-3", "cn_name": "2-\u4e59\u57fa\u5421\u55ea", "en_name": ["2-Ethylpyrazine", "Pyrazine, 2-ethyl-", "Pyrazine, ethyl-", "2-Ethylpyrazine", "Ethylpyrazine"], "SMILES": "C(C)C=1C=NC=CN1", "physical_data": {"Molecular Weight": "108.14", "Molecular Formula": "C6H8N2", "Boiling Point": "152.5 \u00b0C"}}