{"cas_no": "13921-90-9", "cn_name": "(R)-3-\u6c28\u57fa-3-\u82ef\u57fa\u4e19\u9178", "en_name": ["(+)-3-Amino-3-phenylpropanoic acid", "Benzenepropanoic acid, \u03b2-amino-, (\u03b2R)-", "Hydrocinnamic acid, \u03b2-amino-, L-", "Benzenepropanoic acid, \u03b2-amino-, (R)-", "(\u03b2R)-\u03b2-Aminobenzenepropanoic acid", "L-\u03b2-Phenyl-\u03b2-alanine", "L-3-Amino-3-phenylpropionic acid", "(R)-3-Amino-3-phenylpropionic acid", "(+)-3-Amino-3-phenylpropanoic acid", "(R)-3-Amino-3-phenylpropanoic acid", "(R)-\u03b2-Phenylalanine", "(R)-3-Phenyl-\u03b2-alanine", "(3R)-3-Amino-3-phenylpropanoic acid"], "SMILES": "C(CC(O)=O)(N)C1=CC=CC=C1", "physical_data": {"Molecular Weight": "165.19", "Molecular Formula": "C9H11NO2", "Melting Point": "242-246 \u00b0C"}}