{"cas_no": "1392-21-8", "cn_name": "\u67f1\u6676\u767d\u9709\u7d20", "en_name": ["Leucomycin", "Leucomycin", "Kitasamycin", "Stereomycine", "C 637", "Ayermicina", "Syneptine", "Sineptina"], "SMILES": "", "physical_data": {"Molecular Weight": "", "Molecular Formula": "Unspecified", "Melting Point": "128-145 \u00b0C"}}