{"cas_no": "13924-95-3", "cn_name": "5-\u7f9f\u57fa\u5421\u55ea-2-\u7fa7\u9178\u7532\u916f", "en_name": ["Methyl 4,5-dihydro-5-oxo-2-pyrazinecarboxylate", "2-Pyrazinecarboxylic acid, 4,5-dihydro-5-oxo-, methyl ester", "Pyrazinecarboxylic acid, 5-hydroxy-, methyl ester", "Pyrazinecarboxylic acid, 4,5-dihydro-5-oxo-, methyl ester", "Methyl 4,5-dihydro-5-oxo-2-pyrazinecarboxylate", "Methyl 5-hydroxy-2-pyrazinecarboxylate", "Methyl 5-oxo-4,5-dihydro-2-pyrazinecarboxylate", "5-Hydroxypyrazine-2-carboxylic acid methyl ester"], "SMILES": "C(OC)(=O)C1=CNC(=O)C=N1", "physical_data": {"Molecular Weight": "154.12", "Molecular Formula": "C6H6N2O3", "Melting Point": "183-185 \u00b0C"}}