{"cas_no": "13925-03-6", "cn_name": "2-\u4e59\u57fa-6-\u7532\u57fa\u5421\u55ea", "en_name": ["2-Ethyl-6-methylpyrazine", "Pyrazine, 2-ethyl-6-methyl-", "2-Ethyl-6-methylpyrazine", "2-Methyl-6-ethylpyrazine", "6-Methyl-2-ethylpyrazine"], "SMILES": "C(C)C1=NC(C)=CN=C1", "physical_data": {"Molecular Weight": "122.17", "Molecular Formula": "C7H10N2", "Boiling Point": "54-57 \u00b0C @ Press: 11 Torr", "Melting Point": "57-63 \u00b0C"}}