{"cas_no": "139272-67-6", "cn_name": "OMEPRAZOLE SULPHONE", "en_name": ["2-Ethoxy-2-oxoethyl 2-[(2,6-dichlorophenyl)amino]benzeneacetate", "Benzeneacetic acid, 2-[(2,6-dichlorophenyl)amino]-, 2-ethoxy-2-oxoethyl ester", "2-Ethoxy-2-oxoethyl 2-[(2,6-dichlorophenyl)amino]benzeneacetate", "2-Ethoxy-2-oxoethyl 2-(2-(2,6-dichlorophenylamino)-phenyl)acetate", "2-Ethoxy-2-oxoethyl 2-(2-((2,6-dichlorophenyl)amino)phenyl)acetate"], "SMILES": "N(C1=C(CC(OCC(OCC)=O)=O)C=CC=C1)C2=C(Cl)C=CC=C2Cl", "physical_data": {"Molecular Weight": "382.24", "Molecular Formula": "C18H17Cl2NO4", "Melting Point": "165-166 \u00b0C"}}