{"cas_no": "13927-71-4", "cn_name": "\u4e8c\u4e01\u57fa\u4e8c\u786b\u4ee3\u6c28\u57fa\u7532\u9178\u94dc(II)", "en_name": ["(SP-4-1)-Bis(N,N-dibutylcarbamodithioato-\u03baS,\u03baS\u2032)copper", "Copper, bis(N,N-dibutylcarbamodithioato-\u03baS,\u03baS\u2032)-, (SP-4-1)-", "Copper, bis(dibutyldithiocarbamato)-", "Copper, bis(dibutylcarbamodithioato-S,S\u2032)-, (SP-4-1)-", "Copper, bis(dibutylcarbamodithioato-\u03baS,\u03baS\u2032)-, (SP-4-1)-", "Carbamodithioic acid, dibutyl-, copper complex", "(SP-4-1)-Bis(N,N-dibutylcarbamodithioato-\u03baS,\u03baS\u2032)copper", "Copper dibutyldithiocarbamate", "Copper(2+) dibutyldithiocarbamate", "Bis(N,N-dibutyldithiocarbamato)copper", "Copper bis(dibutyldithiocarbamate)", "Bis(dibutyldithiocarbamato)copper", "NSC 22318", "AI 61R", "CDBC"], "SMILES": "N(CCCC)(CCCC)C=1[S-][Cu+2]2([S-]C(N(CCCC)CCCC)=[S]2)[S]1", "physical_data": {"Molecular Weight": "", "Molecular Formula": "C18H36CuN2S4", "Melting Point": "60-61 \u00b0C"}}