{"cas_no": "1392102-38-3", "cn_name": "(S)-3,10-\u4e8c\u6eb4-6-\u82ef\u57fa-6H-\u82ef\u5e76[5,6] [1,3]\u6076\u55ea\u5e76[3,4-\u0391]\u5432\u54da", "en_name": ["(6S)-3,10-Dibromo-6-phenyl-6H-indolo[1,2-c][1,3]benzoxazine", "6H-Indolo[1,2-c][1,3]benzoxazine, 3,10-dibromo-6-phenyl-, (6S)-", "(6S)-3,10-Dibromo-6-phenyl-6H-indolo[1,2-c][1,3]benzoxazine", "(6S)-3,10-Dibromo-6-phenyl-6H-indolo[1,2-c][1,3]benzoxazine"], "SMILES": "BrC=1C=C2C(N3C(C=4C(OC3C5=CC=CC=C5)=CC(Br)=CC4)=C2)=CC1", "physical_data": {"Molecular Weight": "455.14", "Molecular Formula": "C21H13Br2NO", "Melting Point": "177-179 \u00b0C"}}