{"cas_no": "13925-06-9", "cn_name": "2-\u7532\u57fa-3-(2-\u7532\u57fa\u4e19\u57fa)\u5421\u55ea", "en_name": ["2-Isobutyl-3-methylpyrazine", "Pyrazine, 2-methyl-3-(2-methylpropyl)-", "Pyrazine, 2-isobutyl-3-methyl-", "2-Methyl-3-(2-methylpropyl)pyrazine", "2-Methyl-3-isobutylpyrazine", "2-Isobutyl-3-methylpyrazine"], "SMILES": "C(C(C)C)C=1C(C)=NC=CN1", "physical_data": {"Molecular Weight": "150.22", "Molecular Formula": "C9H14N2", "Boiling Point": "90-92 \u00b0C @ Press: 30 Torr", "Melting Point": "74 \u00b0C"}}