{"cas_no": "13925-07-0", "cn_name": "2-\u4e59\u57fa-3,5-\u4e8c\u7532\u57fa\u5421\u55ea", "en_name": ["2-Ethyl-3,5-dimethylpyrazine", "Pyrazine, 2-ethyl-3,5-dimethyl-", "2-Ethyl-3,5-dimethylpyrazine", "2,6-Dimethyl-3-ethylpyrazine", "3,5-Dimethyl-2-ethylpyrazine", "3-Ethyl-2,6-dimethylpyrazine"], "SMILES": "C(C)C=1C(C)=NC(C)=CN1", "physical_data": {"Molecular Weight": "136.19", "Molecular Formula": "C8H12N2", "Boiling Point": "72-73 \u00b0C @ Press: 11 Torr", "Melting Point": "64-66 \u00b0C", "Density": "0.958 g/cm\u00b3 @ Temp: 24 \u00b0C"}}