{"cas_no": "13929-35-6", "cn_name": "4-O-\u7fa7\u7532\u57fa\u5229\u798f\u9709\u7d20", "en_name": ["Rifamycin B", "Rifamycin, 4-O-(carboxymethyl)-", "Acetic acid, [(1,2-dihydro-5,6,17,19,21-pentahydroxy-23-methoxy-2,4,12,16,18,20,22-heptamethyl-1,11-dioxo-2,7-(epoxypentadeca[1,11,13]trienimino)naphtho[2,1-b]furan-9-yl)oxy]-, 21-acetate", "Rifomycin B", "2,7-(Epoxypentadeca[1,11,13]trienimino)naphtho[2,1-b]furan, rifamycin deriv.", "4-O-(Carboxymethyl)rifamycin", "Rifamycin B", "Nancimycin", "NSC 145604"], "SMILES": "O(CC(O)=O)C1=C2C3=C4OC(C)(C3=O)OC=CC(OC)C(C)C(OC(C)=O)C(C)C(O)C(C)C(O)C(C)C=CC=C(C)C(=O)NC(C(O)=C2C(O)=C4C)=C1", "physical_data": {"Molecular Weight": "755.80", "Molecular Formula": "C39H49NO14", "Melting Point": "170-173 \u00b0C"}}