{"cas_no": "13939-06-5", "cn_name": "\u516d\u7fb0\u57fa\u94bc", "en_name": ["Molybdenum hexacarbonyl", "Molybdenum carbonyl (Mo(CO)6), (OC-6-11)-", "Molybdenum carbonyl (Mo(CO)6)", "Hexacarbonylmolybdenum", "Molybdenum hexacarbonyl", "Molybdenum hexacarbonyl (Mo(CO)6)", "Hexacarbonylmolybdenum(0)", "NSC 173702", "NSC 215198"], "SMILES": "[Mo](C#O)(C#O)(C#O)(C#O)(C#O)C#O", "physical_data": {"Molecular Weight": "", "Molecular Formula": "C6MoO6", "Boiling Point": "155 \u00b0C @ Press: 754 Torr", "Melting Point": "150-151 \u00b0C (decomp)", "Density": "1.96 g/cm\u00b3"}}