{"cas_no": "139356-37-9", "cn_name": "[2-[(3R,5R-3,5-\u53cc[\u53d4\u4e01\u57fa\u4e8c\u7532\u57fa\u7845\u6c27\u57fa]\u73af\u5df1\u70ef]\u4e59\u9187", "en_name": ["2-[(3R,5R)-3,5-Bis[[(1,1-dimethylethyl)dimethylsilyl]oxy]cyclohexylidene]ethanol", "Ethanol, 2-[(3R,5R)-3,5-bis[[(1,1-dimethylethyl)dimethylsilyl]oxy]cyclohexylidene]-", "Ethanol, 2-[3,5-bis[[(1,1-dimethylethyl)dimethylsilyl]oxy]cyclohexylidene]-, (3R-trans)-", "2-[(3R,5R)-3,5-Bis[[(1,1-dimethylethyl)dimethylsilyl]oxy]cyclohexylidene]ethanol"], "SMILES": "O([Si](C(C)(C)C)(C)C)C1CC(O[Si](C(C)(C)C)(C)C)CC(=CCO)C1", "physical_data": {"Molecular Weight": "386.72", "Molecular Formula": "C20H42O3Si2", "Melting Point": "63-65 \u00b0C"}}