{"cas_no": "13939-69-0", "cn_name": "1-\u54cc\u5576\u9170\u6c2f", "en_name": ["1-Piperidinecarbonyl chloride", "1-Piperidinecarbonyl chloride", "Piperidinocarbonyl chloride", "Piperidine, 1-(chlorocarbonyl)-", "N-(Chlorocarbonyl)piperidine", "1-(Chlorocarbonyl)piperidine", "N-Chloroformylpiperidine", "1-(Chloroformyl)piperidine", "NSC 50227"], "SMILES": "C(Cl)(=O)N1CCCCC1", "physical_data": {"Molecular Weight": "147.60", "Molecular Formula": "C6H10ClNO", "Boiling Point": "120-125 \u00b0C @ Press: 31 Torr"}}