{"cas_no": "139306-10-8", "cn_name": "3-(1-(S)-(N,N-\u4e8c\u7532\u57fa\u6c28\u57fa)\u4e59\u57fa)\u82ef\u915a", "en_name": ["(S)-3-[1-(Dimethylamino)ethyl]phenol", "Phenol, 3-[(1S)-1-(dimethylamino)ethyl]-", "Phenol, 3-[1-(dimethylamino)ethyl]-, (S)-", "3-[(1S)-1-(Dimethylamino)ethyl]phenol", "NAP 226-90", "(S)-3-[1-(Dimethylamino)ethyl]phenol", "3-[(1S)-1-(Dimethylamino)ethyl]phenol"], "SMILES": "C(N(C)C)(C)C1=CC(O)=CC=C1", "physical_data": {"Molecular Weight": "165.23", "Molecular Formula": "C10H15NO", "Melting Point": "101-102 \u00b0C"}}