{"cas_no": "13936-21-5", "cn_name": "2-\u620a\u57fa\u84bd\u918c", "en_name": ["2-Pentyl-9,10-anthracenedione", "9,10-Anthracenedione, 2-pentyl-", "Anthraquinone, 2-pentyl-", "2-Pentyl-9,10-anthracenedione", "\u03b2-Pentylanthraquinone", "2-Amylanthraquinone", "2-Pentylanthraquinone", "2-Pentyl-9,10-dihydroanthracene-9,10-dione"], "SMILES": "O=C1C=2C(C(=O)C=3C1=CC=CC3)=CC=C(CCCCC)C2", "physical_data": {"Molecular Weight": "278.35", "Molecular Formula": "C19H18O2", "Melting Point": "85 \u00b0C"}}