{"cas_no": "139399-63-6", "cn_name": "4-\u6eb4-8-\u7f9f\u57fa\u55b9\u5549", "en_name": ["4-Bromo-8-quinolinol", "8-Quinolinol, 4-bromo-", "4-Bromo-8-quinolinol", "NSC 673456"], "SMILES": "BrC=1C2=C(C(O)=CC=C2)N=CC1", "physical_data": {"Molecular Weight": "224.05", "Molecular Formula": "C9H6BrNO", "Melting Point": "134-135 \u00b0C"}}