{"cas_no": "139399-67-0", "cn_name": "3-\u6eb4-8-\u6c28\u57fa\u55b9\u5549", "en_name": ["3-Bromo-8-quinolinamine", "8-Quinolinamine, 3-bromo-", "3-Bromo-8-quinolinamine", "8-Amino-3-bromoquinoline", "3-Bromoquinolin-8-amine", "(3-Bromoquinolin-8-yl)amine"], "SMILES": "NC=1C2=C(C=C(Br)C=N2)C=CC1", "physical_data": {"Molecular Weight": "223.07", "Molecular Formula": "C9H7BrN2", "Melting Point": "106-107 \u00b0C"}}