{"cas_no": "1393-48-2", "cn_name": "\u786b\u94fe\u4e1d\u83cc\u7d20", "en_name": ["Thiostrepton", "Alaninamide, N-[(7R,8S)-2-carboxy-7,8-dihydro-8-hydroxy-4-[(1S)-1-hydroxyethyl]-7-quinolinyl]-L-isoleucyl-L-alanyl-2,3-didehydroalanyl-L-alanyl-2-[(4aR,11S,14Z,18S,21S,28S,32aS)-4a-amino-21-[(1S,2R)-1,2-dihydroxy-1-methylpropyl]-14-ethylidene-3,4,4a,9,10,11,12,13,14,18,19,20,21,27,28,32a-hexadecahydro-11,28-bis[(1R)-1-hydroxyethyl]-9,12,19,26-tetraoxo-17H,26H-8,5:18,15:25,22:32,29-tetranitrilo-5H,15H-pyrido[3,2-m][1,11,17,24,4,7,20,27]tetrathiatetraazacyclotriacontin-2-yl]-4-thiazolecarbonyl-2,3-didehydroalanyl-2,3-didehydro-, (1\u2192528)-lactone", "Thiostrepton", "Alaninamide, L-threonyl-(4S)-2-[(1Z)-1-amino-1-propenyl]-4,5-dihydro-4-thiazolecarbonyl-2-[(1S,2S,3R)-1-amino-2,3-dihydroxy-2-methylbutyl]-4-thiazolecarbonyl-2-[(5R,6S)-6-[2-[(1S,2R)-1-amino-2-hydroxypropyl]-4-thiazolyl]-5-[[N-[(7R,8S)-2-carboxy-7,8-dihydro-8-hydroxy-4-[(1S)-1-hydroxyethyl]-7-quinolinyl]-L-isoleucyl-L-alanyl-2,3-didehydroalanyl-L-alanyl]amino]-5-(4-carboxy-2-thiazolyl)-3,4,5,6-tetrahydro-2-pyridinyl]-4-thiazolecarbonyl-2,3-didehydroalanyl-2,3-didehydro-, (1\u2032\u21924)-lactone, (4\u21921)-lactam", "Bryamycin", "Thiactin", "Gargon", "NSC 170365", "NSC 81722", "Thiostrepton A", "MeSH ID: D013883"], "SMILES": "O=C1NC23C(C=4N=C(SC4)C(NC(=O)C=5N=C(SC5)C(C(C(C)O)(C)O)NC(=O)C6N=C(C(=CC)NC(=O)C(C(C)O)NC(=O)C=7N=C2SC7)SC6)C(C)OC(=O)C=8N=C9C(=C(C(C)O)C8)C=CC(C9O)NC(C(CC)C)C(=O)NC(C)C(=O)NC(=C)C(=O)NC1C)N=C(CC3)C%10=NC(C(NC(C(NC(C(N)=O)=C)=O)=C)=O)=CS%10", "physical_data": {"Molecular Weight": "1664.89", "Molecular Formula": "C72H85N19O18S5", "Melting Point": "223-235 \u00b0C (decomp)"}}