{"cas_no": "139399-64-7", "cn_name": "6-\u6eb4-8-\u7f9f\u57fa\u55b9\u5549", "en_name": ["6-Bromo-8-quinolinol", "8-Quinolinol, 6-bromo-", "6-Bromo-8-quinolinol", "NSC 673454"], "SMILES": "OC=1C2=C(C=C(Br)C1)C=CC=N2", "physical_data": {"Molecular Weight": "224.05", "Molecular Formula": "C9H6BrNO", "Melting Point": "138-139 \u00b0C"}}