{"cas_no": "13938-94-8", "cn_name": "\u6c2f\u5316\u7fb0\u57fa\u53cc\u4e09\u82ef\u57fa\u78f7\u57fa\u94f7", "en_name": ["Carbonylchlorobis(triphenylphosphine)rhodium", "Rhodium, carbonylchlorobis(triphenylphosphine)-", "Rhodium, chlorocarbonylbis(triphenylphosphine)-", "Carbonylchlorobis(triphenylphosphine)rhodium", "Bis(triphenylphosphine)rhodiumcarbonyl chloride", "Chlorocarbonylbis(triphenylphosphine)rhodium", "Chlorocarbonylbis(triphenylphosphine)rhodium(I)", "Bis(triphenylphosphine)carbonylchlororhodium(I)", "Carbonylbis(triphenylphosphine)rhodium chloride", "Bis(triphenylphosphine)carbonylchlororhodium", "Rhodium carbonyl bis(triphenylphosphine) chloride", "Bis(triphenylphosphine)carbonylrhodium(I) chloride", "Bis(triphenylphosphine)carbonylrhodium chloride", "NSC 168792", "Carbonylbis(triphenylphosphine)rhodium(I) chloride"], "SMILES": "[P]([Rh+]([P](C1=CC=CC=C1)(C2=CC=CC=C2)C3=CC=CC=C3)(C#O)[Cl-])(C4=CC=CC=C4)(C5=CC=CC=C5)C6=CC=CC=C6", "physical_data": {"Molecular Weight": "", "Molecular Formula": "C37H30ClOP2Rh", "Melting Point": "198-205 \u00b0C"}}