{"cas_no": "139481-59-7", "cn_name": "\u574e\u5730\u6c99\u5766", "en_name": ["Candesartan", "1H-Benzimidazole-7-carboxylic acid, 2-ethoxy-1-[[2\u2032-(2H-tetrazol-5-yl)[1,1\u2032-biphenyl]-4-yl]methyl]-", "1H-Benzimidazole-7-carboxylic acid, 2-ethoxy-1-[[2\u2032-(1H-tetrazol-5-yl)[1,1\u2032-biphenyl]-4-yl]methyl]-", "2-Ethoxy-1-[[2\u2032-(2H-tetrazol-5-yl)[1,1\u2032-biphenyl]-4-yl]methyl]-1H-benzimidazole-7-carboxylic acid", "CV 11974", "Candesartan", "Candesartan M1", "2-Ethoxy-1-[[2\u2032-(1H-tetrazol-5-yl)biphenyl-4-yl]methyl]-1H-benzimidazole-7-carboxylic acid", "2-Ethoxy-1-[[2\u2032-(1H-tetrazol-5-yl)-1,1\u2032-biphenyl-4-yl]methyl]-7-benzimidazolecarboxylic acid", "2-Ethoxy-1-[[2\u2032-(1H-tetrazol-5-yl)biphenyl-4-yl]methyl]benzimidazole-7-carboxylic acid", "3-[[2\u2032-(1H-Tetrazol-5-yl)biphenyl-4-yl]methyl]-2-ethoxy-3H-benzimidazole-4-carboxylic acid", "1-((2\u2032-(1H-Tetrazol-5-yl)-[1,1\u2032-biphenyl]-4-yl)methyl)-2-ethoxy-1H-benzo[d]imidazole-7-carboxylic acid", "2-Ethoxy-1-([4-[2-(1H-1,2,3,4-tetrazol-5-yl)phenyl]phenyl]methyl)-1H-1,3-benzodiazole-7-carboxylic acid"], "SMILES": "C(N1C=2C(N=C1OCC)=CC=CC2C(O)=O)C3=CC=C(C=C3)C4=C(C=CC=C4)C=5NN=NN5", "physical_data": {"Molecular Weight": "440.45", "Molecular Formula": "C24H20N6O3", "Melting Point": "183-185 \u00b0C"}}