{"cas_no": "13940-94-8", "cn_name": "4-\u6c2f-1-(\u4e8c\u6c2f\u7532\u57fa)-\u82ef(4-\u6c2f\u7f57\u5bbe\u624e\u6c2f)", "en_name": ["4-Chlorobenzal chloride", "Benzene, 1-chloro-4-(dichloromethyl)-", "Toluene, p,\u03b1,\u03b1-trichloro-", "1-Chloro-4-(dichloromethyl)benzene", "p-Chlorobenzal chloride", "4-Chloro-1-(dichloromethyl)benzene", "4-Chlorobenzylidene chloride", "p-Chlorobenzylidene chloride", "\u03b1,\u03b1,p-Trichlorotoluene", "p-(Dichloromethyl)benzyl chloride", "4-Chlorobenzal chloride", "Dichloro(4-chlorophenyl)methane", "\u03b1,\u03b1,4-Trichlorotoluene"], "SMILES": "C(Cl)(Cl)C1=CC=C(Cl)C=C1", "physical_data": {"Molecular Weight": "195.47", "Molecular Formula": "C7H5Cl3", "Boiling Point": "1-20 \u00b0C"}}