{"cas_no": "13943-58-3", "cn_name": "\u4e9a\u94c1\u6c30\u5316\u94be", "en_name": ["Potassium ferrocyanide", "Ferrate(4-), hexakis(cyano-\u03baC)-, potassium (1:4), (OC-6-11)-", "Ferrate(4-), hexacyano-, tetrapotassium", "Ferrate(4-), hexakis(cyano-C)-, tetrapotassium, (OC-6-11)-", "Ferrate(4-), hexakis(cyano-\u03baC)-, tetrapotassium, (OC-6-11)-", "Potassium hexacyanoferrate(II)", "Tetrapotassium hexacyanoferrate", "Potassium ferrocyanate", "Tetrapotassium ferrocyanide", "Tetrapotassium hexacyanoferrate(4-)", "Potassium ferrocyanide", "Potassium ferrocyanide (K4Fe(CN)6)", "Tetrapotassium hexacyanoferrate(II)", "Potassium hexacyanoferrate (K4Fe(CN)6)", "Potassium hexacyanoferrate(4-)", "Iron potassium cyanide (FeK4(CN)6)", "ZJ 15"], "SMILES": "[Fe+2]([C-]#N)([C-]#N)([C-]#N)([C-]#N)([C-]#N)[C-]#N.[K+]", "physical_data": {"Molecular Weight": "", "Molecular Formula": "C6FeN6.4K", "Boiling Point": "104.2 \u00b0C", "Density": "1.886 g/cm\u00b3"}}