{"cas_no": "139481-69-9", "cn_name": "2-\u4e59\u6c27\u57fa-1-[[(2'-(1H-\u56db\u5511-5-\u57fa)\u8054\u82ef-4-\u57fa)\u7532\u57fa]\u82ef\u5e76\u54aa\u5511]-7-\u7532\u9178\u7532\u916f", "en_name": ["1H-Benzimidazole-7-carboxylic acid, 2-ethoxy-1-[[2\u2032-(2H-tetrazol-5-yl)[1,1\u2032-biphenyl]-4-yl]methyl]-, methyl ester", "1H-Benzimidazole-7-carboxylic acid, 2-ethoxy-1-[[2\u2032-(2H-tetrazol-5-yl)[1,1\u2032-biphenyl]-4-yl]methyl]-, methyl ester", "1H-Benzimidazole-7-carboxylic acid, 2-ethoxy-1-[[2\u2032-(1H-tetrazol-5-yl)[1,1\u2032-biphenyl]-4-yl]methyl]-, methyl ester", "Methyl 1-[(2\u2032-(1H-tetrazol-5-yl)biphenyl-4-yl)methyl]-2-ethoxybenzimidazole-7-carboxylate", "Methyl 2-ethoxy-1-[[2\u2032-(1H-tetrazol-5-yl)biphenyl-4-yl]methyl]benzimidazole-7-carboxylate"], "SMILES": "C(N1C=2C(N=C1OCC)=CC=CC2C(OC)=O)C3=CC=C(C=C3)C4=C(C=CC=C4)C=5NN=NN5", "physical_data": {"Molecular Weight": "454.48", "Molecular Formula": "C25H22N6O3", "Melting Point": "190-192 \u00b0C"}}