{"cas_no": "139481-72-4", "cn_name": "\u4e09\u82ef\u7532\u57fa\u574e\u5730\u6c99\u5766", "en_name": ["2-Ethoxy-1-[[2\u2032-[1-(triphenylmethyl)-1H-tetrazol-5-yl][1,1\u2032-biphenyl]-4-yl]methyl]-1H-benzimidazole-7-carboxylic acid", "1H-Benzimidazole-7-carboxylic acid, 2-ethoxy-1-[[2\u2032-[1-(triphenylmethyl)-1H-tetrazol-5-yl][1,1\u2032-biphenyl]-4-yl]methyl]-", "2-Ethoxy-1-[[2\u2032-[1-(triphenylmethyl)-1H-tetrazol-5-yl][1,1\u2032-biphenyl]-4-yl]methyl]-1H-benzimidazole-7-carboxylic acid", "2-Ethoxy-1-[(2\u2032-(1-trityl-1H-tetrazol-5-yl)-1,1\u2032-biphenyl-4-yl)methyl]-7-benzimidazolecarboxylic acid", "2-Ethoxy-1-((2\u2032-(1-trityl-1H-tetrazol-5-yl)-[1,1\u2032-biphenyl]-4-yl)methyl)-1H-benzo[d]imidazole-7-carboxylic acid"], "SMILES": "C(N1C(=NN=N1)C2=C(C=CC=C2)C3=CC=C(CN4C=5C(N=C4OCC)=CC=CC5C(O)=O)C=C3)(C6=CC=CC=C6)(C7=CC=CC=C7)C8=CC=CC=C8", "physical_data": {"Molecular Weight": "682.77", "Molecular Formula": "C43H34N6O3", "Melting Point": "163-165 \u00b0C"}}