{"cas_no": "13945-76-1", "cn_name": "\u6708\u6842\u9187\u6708\u6842\u9178\u916f", "en_name": ["Lauryl laurate", "Dodecanoic acid, dodecyl ester", "Lauric acid, dodecyl ester", "Dodecyl alcohol, laurate", "Lauryl laurate", "Dodecyl laurate", "1-Dodecyl dodecanoate", "Dodecyl dodecanoate", "NSC 404384", "Purester 24", "Dodecanyl dodecanoate", "Electol WE 20"], "SMILES": "C(OCCCCCCCCCCCC)(CCCCCCCCCCC)=O", "physical_data": {"Molecular Weight": "368.64", "Molecular Formula": "C24H48O2", "Boiling Point": "210 \u00b0C @ Press: 1 Torr", "Melting Point": "27 \u00b0C"}}