{"cas_no": "13949-67-2", "cn_name": "2-(1-\u8418\u6c27\u57fa)\u4e19\u9178", "en_name": ["2-(1-Naphthalenyloxy)propanoic acid", "Propanoic acid, 2-(1-naphthalenyloxy)-", "Propionic acid, 2-(1-naphthyloxy)-", "2-(1-Naphthalenyloxy)propanoic acid", "NSC 523899", "2-(1-Naphthyloxy)propanoic acid"], "SMILES": "O(C(C(O)=O)C)C=1C2=C(C=CC1)C=CC=C2", "physical_data": {"Molecular Weight": "216.23", "Molecular Formula": "C13H12O3", "Melting Point": "148-149 \u00b0C"}}