{"cas_no": "139523-30-1", "cn_name": "\u9189\u9c7c\u8349\u7682\u82f7 \u2163", "en_name": ["Buddlejasaponin IV", "\u03b2-D-Galactopyranoside, (3\u03b2,4\u03b1,16\u03b2)-13,28-epoxy-16,23-dihydroxyolean-11-en-3-yl O-\u03b2-D-glucopyranosyl-(1\u21922)-O-[\u03b2-D-glucopyranosyl-(1\u21923)]-6-deoxy-", "(3\u03b2,4\u03b1,16\u03b2)-13,28-Epoxy-16,23-dihydroxyolean-11-en-3-yl O-\u03b2-D-glucopyranosyl-(1\u21922)-O-[\u03b2-D-glucopyranosyl-(1\u21923)]-6-deoxy-\u03b2-D-galactopyranoside", "Buddlejasaponin IV", "Saikosaponin 1", "Buddleoglucoside IV"], "SMILES": "CC12C3(C4C(CO3)(C(O)C1)CCC(C)(C)C4)C=CC5C2(C)CCC6C5(C)CCC(OC7C(OC8OC(CO)C(O)C(O)C8O)C(OC9OC(CO)C(O)C(O)C9O)C(O)C(C)O7)C6(CO)C", "physical_data": {"Molecular Weight": "943.12", "Molecular Formula": "C48H78O18", "Melting Point": "288-290 \u00b0C"}}