{"cas_no": "13951-70-7", "cn_name": "16alpha-\u7f9f\u57fa\u6cfc\u5c3c\u677e\u9f99", "en_name": ["16\u03b1-Hydroxyprednisolone", "Pregna-1,4-diene-3,20-dione, 11,16,17,21-tetrahydroxy-, (11\u03b2,16\u03b1)-", "Pregna-1,4-diene-3,20-dione, 11\u03b2,16\u03b1,17,21-tetrahydroxy-", "(11\u03b2,16\u03b1)-11,16,17,21-Tetrahydroxypregna-1,4-diene-3,20-dione", "16\u03b1-Hydroxyprednisolone", "11\u03b2,16\u03b1,17,21-Tetrahydroxypregna-1,4-dien-3,20-dione", "16\u03b1-Hydroxylprednisolone", "16alpha-Hydroxyprednisolone"], "SMILES": "CC12C(C3C(C(O)C1)C4(C)C(CC3)=CC(=O)C=C4)CC(O)C2(C(CO)=O)O", "physical_data": {"Molecular Weight": "376.44", "Molecular Formula": "C21H28O6", "Melting Point": "229-231 \u00b0C"}}