{"cas_no": "139525-77-2", "cn_name": "2-(7-\u7532\u6c27\u57fa\u8418-1-\u57fa)\u4e59\u80fa\u76d0\u9178\u76d0", "en_name": ["2-(7-Methoxy-1-naphthyl)ethylamine hydrochloride", "1-Naphthaleneethanamine, 7-methoxy-, hydrochloride (1:1)", "1-Naphthaleneethanamine, 7-methoxy-, hydrochloride", "2-(7-Methoxy-1-naphthyl)ethylamine hydrochloride", "2-(7-Methoxy-1-naphthyl)ethanamine hydrochloride", "2-(7-Methoxynaphthalen-1-yl)ethanamine hydrochloride", "2-(7-Methoxynaphthyl)ethanamine hydrochloride"], "SMILES": "C(CN)C=1C2=C(C=CC(OC)=C2)C=CC1.Cl", "physical_data": {"Molecular Weight": "", "Molecular Formula": "C13H15NO.ClH", "Melting Point": "245 \u00b0C"}}