{"cas_no": "139528-85-1", "cn_name": "\u78fa\u8349\u5511\u80fa", "en_name": ["Metosulam", "[1,2,4]Triazolo[1,5-a]pyrimidine-2-sulfonamide, N-(2,6-dichloro-3-methylphenyl)-5,7-dimethoxy-", "N-(2,6-Dichloro-3-methylphenyl)-5,7-dimethoxy[1,2,4]triazolo[1,5-a]pyrimidine-2-sulfonamide", "DE 511", "Metosulam", "Tacco", "Sinal"], "SMILES": "O(C)C=1N2C(=NC(S(NC3=C(Cl)C(C)=CC=C3Cl)(=O)=O)=N2)N=C(OC)C1", "physical_data": {"Molecular Weight": "418.26", "Molecular Formula": "C14H13Cl2N5O4S", "Melting Point": "211 \u00b0C"}}