{"cas_no": "139504-50-0", "cn_name": "\u7f8e\u767b\u7d20", "en_name": ["Maytansinoid DM 1", "Maytansine, N2\u2032-deacetyl-N2\u2032-(3-mercapto-1-oxopropyl)-", "N2\u2032-Deacetyl-N2\u2032-(3-mercapto-1-oxopropyl)maytansine", "Maytansinoid DM 1", "DM 1", "Mertansine", "Emtansine", "DM1 maytansine"], "SMILES": "CC12C(O1)C(C)C3CC(O)(C(OC)C=CC=C(C)CC4=CC(N(C)C(=O)CC2OC(C(N(C(CCS)=O)C)C)=O)=C(Cl)C(OC)=C4)NC(=O)O3", "physical_data": {"Molecular Weight": "738.29", "Molecular Formula": "C35H48ClN3O10S", "Melting Point": "190-192 \u00b0C (decomp)"}}