{"cas_no": "13952-84-6", "cn_name": "\u4e01\u80fa", "en_name": ["(\u00b1)-sec-Butylamine", "2-Butanamine", "sec-Butylamine", "2-Aminobutane", "Tutane", "2-AB", "1-Methylpropylamine", "2-Butylamine", "1-Methylpropanamine", "Butafume", "dl-2-Butylamine", "DL-sec-Butylamine", "(\u00b1)-2-Butylamine", "(\u00b1)-2-Aminobutane", "(\u00b1)-2-Butanamine", "(\u00b1)-sec-Butylamine", "(RS)-sec-butylamine", "NSC 8030", "Butan-2-ylamine"], "SMILES": "C(CC)(C)N", "physical_data": {"Molecular Weight": "73.14", "Molecular Formula": "C4H11N", "Boiling Point": "63 \u00b0C", "Melting Point": "-104 \u00b0C", "Density": "0.724 g/cm\u00b3 @ Temp: 20 \u00b0C"}}