{"cas_no": "13959-02-9", "cn_name": "3-\u6eb4\u5f02\u70df\u9178", "en_name": ["3-Bromoisonicotinic acid", "4-Pyridinecarboxylic acid, 3-bromo-", "Isonicotinic acid, 3-bromo-", "3-Bromo-4-pyridinecarboxylic acid", "3-Bromoisonicotinic acid"], "SMILES": "C(O)(=O)C=1C(Br)=CN=CC1", "physical_data": {"Molecular Weight": "202.01", "Molecular Formula": "C6H4BrNO2", "Melting Point": "220 \u00b0C"}}