{"cas_no": "13956-52-0", "cn_name": "\u5c71\u829d\u70ef\u4e09\u9187", "en_name": ["(3S,4S,4aR,6aS,9aR,11S,13aR,13bS,15aS,15bR)-2,3,4,4a,5,6,6a,7,9,9a,10,11,12,13,13a,13b,14,15,15a,15b-Eicosahydro-4-(hydroxymethyl)-4,6a,10,10,13a,15b-hexamethyl-1H-cyclohepta[1,2-a:5,4-a\u2032]dinaphthalene-3,11-diol", "1H-Cyclohepta[1,2-a:5,4-a\u2032]dinaphthalene-3,11-diol, 2,3,4,4a,5,6,6a,7,9,9a,10,11,12,13,13a,13b,14,15,15a,15b-eicosahydro-4-(hydroxymethyl)-4,6a,10,10,13a,15b-hexamethyl-, (3S,4S,4aR,6aS,9aR,11S,13aR,13bS,15aS,15bR)-", "C(14a)-Homo-27-norgammacer-14-ene-3\u03b2,21\u03b1,24-triol", "Serratriol", "C(14a)-Homo-27-norgammacer-14-ene-3,21,23-triol, (3\u03b2,4\u03b2,21\u03b1)-", "(3S,4S,4aR,6aS,9aR,11S,13aR,13bS,15aS,15bR)-2,3,4,4a,5,6,6a,7,9,9a,10,11,12,13,13a,13b,14,15,15a,15b-Eicosahydro-4-(hydroxymethyl)-4,6a,10,10,13a,15b-hexamethyl-1H-cyclohepta[1,2-a:5,4-a\u2032]dinaphthalene-3,11-diol", "Serrat-14-en-3\u03b2,21\u03b1,24-triol"], "SMILES": "CC12C3C(C)(CC=4C(CC3)C5(C)C(CC4)C(C)(C)C(O)CC5)CCC1C(CO)(C)C(O)CC2", "physical_data": {"Molecular Weight": "458.72", "Molecular Formula": "C30H50O3", "Melting Point": "335-336 \u00b0C"}}