{"cas_no": "13958-99-1", "cn_name": "3-\u6eb4\u5421\u5576-4-\u9170\u80fa", "en_name": ["3-Bromo-4-pyridinecarboxamide", "4-Pyridinecarboxamide, 3-bromo-", "Isonicotinamide, 3-bromo-", "3-Bromo-4-pyridinecarboxamide", "3-Bromopyridine-4-carboxamide", "3-Bromoisonicotinamide"], "SMILES": "C(N)(=O)C=1C(Br)=CN=CC1", "physical_data": {"Molecular Weight": "201.02", "Molecular Formula": "C6H5BrN2O", "Melting Point": "149-150 \u00b0C"}}