{"cas_no": "13956-29-1", "cn_name": "\u5927\u9ebb\u4e8c\u915a", "en_name": ["Cannabidiol", "1,3-Benzenediol, 2-[(1R,6R)-3-methyl-6-(1-methylethenyl)-2-cyclohexen-1-yl]-5-pentyl-", "Resorcinol, 2-p-mentha-1,8-dien-3-yl-5-pentyl-, trans-(-)-", "1,3-Benzenediol, 2-[3-methyl-6-(1-methylethenyl)-2-cyclohexen-1-yl]-5-pentyl-, (1R-trans)-", "Cannabidiol", "2-[(1R,6R)-3-Methyl-6-(1-methylethenyl)-2-cyclohexen-1-yl]-5-pentyl-1,3-benzenediol", "(-)-trans-Cannabidiol", "(-)-Cannabidiol", "\u03941(2)-trans-Cannabidiol", "CBD", "(-)-CBD", "Epidiolex", "GWP 42003P", "Epidyolex", "Canapure PH", "MeSH ID: D002185"], "SMILES": "C(C)(=C)C1C(C=C(C)CC1)C2=C(O)C=C(CCCCC)C=C2O", "physical_data": {"Molecular Weight": "", "Molecular Formula": "C21H30O2", "Boiling Point": "188.5 \u00b0C", "Melting Point": "67 \u00b0C"}}