{"cas_no": "13957-31-8", "cn_name": "4-\u786b\u4ee3\u5c3f\u82f7", "en_name": ["4-Thiouridine", "Uridine, 4-thio-", "4-Thiouridine", "Thiouridine", "NSC 518132"], "SMILES": "OC1C(OC(CO)C1O)N2C(=O)NC(=S)C=C2", "physical_data": {"Molecular Weight": "260.27", "Molecular Formula": "C9H12N2O5S", "Melting Point": "139-140 \u00b0C"}}