{"cas_no": "13965-03-2", "cn_name": "\u53cc\u4e09\u82ef\u57fa\u78f7\u4e8c\u6c2f\u5316\u94af", "en_name": ["Dichlorobis(triphenylphosphine)palladium", "Palladium, dichlorobis(triphenylphosphine)-", "Dichlorobis(triphenylphosphine)palladium", "Bis(triphenylphosphine)dichloropalladium", "Bis(triphenylphosphine)palladium chloride", "Bis(triphenylphosphine)palladium(II) dichloride", "Dichlorobis(triphenylphosphine)palladium(II)", "Bis(triphenylphosphine)palladium(II) chloride", "Bis(triphenylphosphine)palladium dichloride", "Palladiumbis(triphenylphosphine) dichloride", "NSC 122924", "Bis(triphenylphosphino)palladium chloride", "Bis(triphenylphosphino)-palladium(II) dichloride", "B 1667"], "SMILES": "[P]([Pd+2]([P](C1=CC=CC=C1)(C2=CC=CC=C2)C3=CC=CC=C3)([Cl-])[Cl-])(C4=CC=CC=C4)(C5=CC=CC=C5)C6=CC=CC=C6", "physical_data": {"Molecular Weight": "", "Molecular Formula": "C36H30Cl2P2Pd", "Melting Point": "297-298 \u00b0C"}}