{"cas_no": "13961-37-0", "cn_name": "2-\u4e59\u57fa\u54cc\u55ea", "en_name": ["2-Ethylpiperazine", "Piperazine, 2-ethyl-", "2-Ethylpiperazine"], "SMILES": "C(C)C1CNCCN1", "physical_data": {"Molecular Weight": "114.19", "Molecular Formula": "C6H14N2", "Boiling Point": "178.0-181.0 \u00b0C"}}