{"cas_no": "13963-57-0", "cn_name": "\u4e09\u4e59\u9170\u4e19\u916e\u94dd", "en_name": ["Aluminum acetylacetonate", "Aluminum, tris(2,4-pentanedionato-\u03baO2,\u03baO4)-, (OC-6-11)-", "Aluminum, tris(2,4-pentanedionato)-", "Aluminum, tris(2,4-pentanedionato-O,O\u2032)-, (OC-6-11)-", "Aluminum, tris(2,4-pentanedionato-\u03baO,\u03baO\u2032)-, (OC-6-11)-", "(OC-6-11)-Tris(2,4-pentanedionato-\u03baO2,\u03baO4)aluminum", "Aluminum acetylacetonate", "Tris(acetylacetonyl)aluminum", "Tris(2,4-pentanedionato)aluminum", "Tris(acetylacetonato)aluminum", "Tris(acetylacetone)aluminum", "Tris(2,4-pentanedione)aluminum", "Dotite Al", "Triacetylacetonate aluminum", "Alumichelate A", "Aluminum Chelate A", "Nacem Al", "Nacem Aluminum", "Tris(acetylacetonate)aluminum", "AKA 080", "Aluminum trisacetoacetate", "Coponyl N 5792", "NSC 4650", "NSC 52330", "Coponyl 5792", "M 5A", "Aluminum pentanedionate", "Orgatix LA 80", "Aluminum tris(2,4-pentadionate)", "Al(III)-AA", "A 033", "TR 25D", "A 1009", "LD 805", "A 1013R", "AL 3100", "Orgatix AL 3100", "A 6"], "SMILES": "CC1=O[Al+3]23(O=C(C)[CH-]C(C)=O2)(O=C(C)[CH-]C(C)=O3)O=C(C)[CH-]1", "physical_data": {"Molecular Weight": "", "Molecular Formula": "C15H21AlO6", "Boiling Point": "315 \u00b0C", "Melting Point": "189 \u00b0C", "Density": "1.213 g/cm\u00b3"}}