{"cas_no": "13963-59-2", "cn_name": "\u4e8c\u4e59\u57fa\u4e8c\u786b\u4ee3\u6c28\u57fa\u7532\u9178\u94c1", "en_name": ["Iron diethyldithiocarbamate", "Iron, tris(N,N-diethylcarbamodithioato-\u03baS,\u03baS\u2032)-, (OC-6-11)-", "Iron, tris(diethyldithiocarbamato)-", "Iron, tris(diethylcarbamodithioato-S,S\u2032)-, (OC-6-11)-", "Iron, tris(diethylcarbamodithioato-\u03baS,\u03baS\u2032)-, (OC-6-11)-", "(OC-6-11)-Tris(N,N-diethylcarbamodithioato-\u03baS,\u03baS\u2032)iron", "Iron diethyldithiocarbamate", "Tris(diethyldithiocarbamato)iron", "Iron tris(diethyldithiocarbamate)", "Iron(III) diethyldithiocarbamate", "Tris(N,N-diethyldithiocarbamato)iron", "NSC 177698", "Rhenogran TTFE 75"], "SMILES": "N(CC)(CC)C=1[S-][Fe+3]23([S-]C(N(CC)CC)=[S]2)([S-]C(N(CC)CC)=[S]3)[S]1", "physical_data": {"Molecular Weight": "", "Molecular Formula": "C15H30FeN3S6", "Melting Point": "165 \u00b0C"}}