{"cas_no": "1397-89-3", "cn_name": "\u4e24\u6027\u9709\u7d20 B", "en_name": ["Fungizone", "Amphotericin B", "Fungizone", "14,39-Dioxabicyclo[33.3.1]nonatriaconta-19,21,23,25,27,29,31-heptaene-36-carboxylic acid, 33-[(3-amino-3,6-dideoxy-\u03b2-D-mannopyranosyl)oxy]-1,3,5,6,9,11,17,37-octahydroxy-15,16,18-trimethyl-13-oxo-, (1R,3S,5R,6R,9R,11R,15S,16R,17R,18S,19E,21E,23E,25E,27E,29E,31E,33R,35S,36R,37S)-", "Fungilin", "Ampho-Moronal", "(1R,3S,5R,6R,9R,11R,15S,16R,17R,18S,19E,21E,23E,25E,27E,29E,31E,33R,35S,36R,37S)-33-[(3-Amino-3,6-dideoxy-\u03b2-D-mannopyranosyl)oxy]-1,3,5,6,9,11,17,37-octahydroxy-15,16,18-trimethyl-13-oxo-14,39-dioxabicyclo[33.3.1]nonatriaconta-19,21,23,25,27,29,31-heptaene-36-carboxylic acid", "AmBisome", "NS 718", "Abelcet", "LNS-AmB", "Halizon", "Amphozone", "Amphocin", "NSC 527017", "Apothecon", "Fungizona", "Abelecet", "Kalsome 10", "MeSH ID: D000666"], "SMILES": "C(O)(=O)C1C2OC(O)(CC1O)CC(O)CC(O)C(O)CCC(O)CC(O)CC(=O)OC(C)C(C)C(O)C(C)C=CC=CC=CC=CC=CC=CC=CC(OC3C(O)C(N)C(O)C(C)O3)C2", "physical_data": {"Molecular Weight": "924.08", "Molecular Formula": "C47H73NO17", "Melting Point": "&gt;170 \u00b0C (decomp)"}}