{"cas_no": "139756-22-2", "cn_name": "3-(6,7-\u4e8c\u6c22-1-\u7532\u57fa-7-\u6c27\u4ee3-3-\u4e19\u57fa-1H-\u5421\u5511O-(4-3-D)-\u5627\u5576-5", "en_name": ["5-(5-Chlorosulfonyl-2-ethoxyphenyl)-1-methyl-3-propyl-1,6-dihydro-7H-pyrazolo[4,3-d]pyrimidin-7-one", "Benzenesulfonyl chloride, 3-(6,7-dihydro-1-methyl-7-oxo-3-propyl-1H-pyrazolo[4,3-d]pyrimidin-5-yl)-4-ethoxy-", "Benzenesulfonyl chloride, 3-(4,7-dihydro-1-methyl-7-oxo-3-propyl-1H-pyrazolo[4,3-d]pyrimidin-5-yl)-4-ethoxy-", "1H-Pyrazolo[4,3-d]pyrimidine, benzenesulfonyl chloride deriv.", "3-(6,7-Dihydro-1-methyl-7-oxo-3-propyl-1H-pyrazolo[4,3-d]pyrimidin-5-yl)-4-ethoxybenzenesulfonyl chloride", "5-(5-Chlorosulfonyl-2-ethoxyphenyl)-1-methyl-3-propyl-1,6-dihydro-7H-pyrazolo[4,3-d]pyrimidin-7-one", "4-Ethoxy-3-(6,7-dihydro-1-methyl-7-oxo-3-propyl-1H-pyrazolo[4,3-d]pyrimidin-5-yl)benzene-1-sulfonyl chloride", "4-Ethoxy-3-(1-methyl-7-oxo-3-propyl-6,7-dihydro-1H-pyrazolo[4,3-d]pyrimidin-5-yl)benzenesulfonyl chloride"], "SMILES": "C(CC)C=1C2=C(C(=O)N=C(N2)C3=C(OCC)C=CC(S(Cl)(=O)=O)=C3)N(C)N1", "physical_data": {"Molecular Weight": "410.88", "Molecular Formula": "C17H19ClN4O4S", "Melting Point": "179-181 \u00b0C"}}