{"cas_no": "139756-02-8", "cn_name": "4-\u6c28\u57fa-1-\u7532\u57fa-3-\u6b63\u4e19\u57fa-1H-\u5421\u5511-5-\u7532\u9170\u80fa", "en_name": ["4-Amino-1-methyl-3-propyl-1H-pyrazole-5-carboxamide", "1H-Pyrazole-5-carboxamide, 4-amino-1-methyl-3-propyl-", "4-Amino-1-methyl-3-propyl-1H-pyrazole-5-carboxamide", "4-Amino-1-methyl-3-propylpyrazole-5-carboxamide", "4-Amino-2-methyl-5-propyl-2H-pyrazole-3-carboxamide"], "SMILES": "C(N)(=O)C1=C(N)C(CCC)=NN1C", "physical_data": {"Molecular Weight": "182.22", "Molecular Formula": "C8H14N4O", "Melting Point": "98 \u00b0C"}}