{"cas_no": "13979-81-2", "cn_name": "3,5-\u4e8c\u6eb4-4-\u7532\u57fa\u82ef\u915a", "en_name": ["3,5-Dibromo-4-methylphenol", "Phenol, 3,5-dibromo-4-methyl-", "p-Cresol, 3,5-dibromo-", "3,5-Dibromo-4-methylphenol", "3,5-Dibromo-p-cresol"], "SMILES": "CC1=C(Br)C=C(O)C=C1Br", "physical_data": {"Molecular Weight": "265.93", "Molecular Formula": "C7H6Br2O", "Boiling Point": "280-286 \u00b0C", "Melting Point": "97 \u00b0C"}}