{"cas_no": "139756-03-9", "cn_name": "\u897f\u5730\u90a3\u975e\u9170\u80fa\u6742\u8d28", "en_name": ["4-(2-Ethoxybenzamido)-1-methyl-3-propylpyrazole-5-carboxamide", "1H-Pyrazole-5-carboxamide, 4-[(2-ethoxybenzoyl)amino]-1-methyl-3-propyl-", "4-[(2-Ethoxybenzoyl)amino]-1-methyl-3-propyl-1H-pyrazole-5-carboxamide", "4-(2-Ethoxybenzamido)-1-methyl-3-propylpyrazole-5-carboxamide"], "SMILES": "N(C(=O)C1=C(OCC)C=CC=C1)C=2C(CCC)=NN(C)C2C(N)=O", "physical_data": {"Molecular Weight": "330.38", "Molecular Formula": "C17H22N4O3", "Melting Point": "153-155 \u00b0C"}}