{"cas_no": "139756-01-7", "cn_name": "1-\u7532\u57fa-4-\u785d\u57fa-3-\u4e19\u57fa-(1H)-\u5421\u5511-5-\u7532\u9170\u80fa", "en_name": ["1-Methyl-4-nitro-3-propyl-1H-pyrazole-5-carboxamide", "1H-Pyrazole-5-carboxamide, 1-methyl-4-nitro-3-propyl-", "1-Methyl-4-nitro-3-propyl-1H-pyrazole-5-carboxamide", "1-Methyl-4-nitro-3-propylpyrazole-5-carboxamide", "2-Methyl-4-nitro-5-propylpyrazole-3-carboxamide"], "SMILES": "N(=O)(=O)C1=C(C(N)=O)N(C)N=C1CCC", "physical_data": {"Molecular Weight": "212.21", "Molecular Formula": "C8H12N4O3", "Melting Point": "141-143 \u00b0C"}}