{"cas_no": "139756-00-6", "cn_name": "1-\u7532\u57fa-4-\u785d\u57fa-3-\u4e19\u57fa-1H-\u5421\u5511-5-\u7fa7\u9178", "en_name": ["1-Methyl-4-nitro-3-propyl-1H-pyrazole-5-carboxylic acid", "1H-Pyrazole-5-carboxylic acid, 1-methyl-4-nitro-3-propyl-", "1-Methyl-4-nitro-3-propyl-1H-pyrazole-5-carboxylic acid", "1-Methyl-4-nitro-3-propylpyrazole-5-carboxylic acid"], "SMILES": "N(=O)(=O)C1=C(C(O)=O)N(C)N=C1CCC", "physical_data": {"Molecular Weight": "213.19", "Molecular Formula": "C8H11N3O4", "Melting Point": "124-127 \u00b0C"}}