{"cas_no": "139755-83-2", "cn_name": "\u897f\u5730\u90a3\u975e", "en_name": ["Sildenafil", "7H-Pyrazolo[4,3-d]pyrimidin-7-one, 5-[2-ethoxy-5-[(4-methyl-1-piperazinyl)sulfonyl]phenyl]-1,6-dihydro-1-methyl-3-propyl-", "Piperazine, 1-[[3-(4,7-dihydro-1-methyl-7-oxo-3-propyl-1H-pyrazolo[4,3-d]pyrimidin-5-yl)-4-ethoxyphenyl]sulfonyl]-4-methyl-", "1H-Pyrazolo[4,3-d]pyrimidine, piperazine deriv.", "5-[2-Ethoxy-5-[(4-methyl-1-piperazinyl)sulfonyl]phenyl]-1,6-dihydro-1-methyl-3-propyl-7H-pyrazolo[4,3-d]pyrimidin-7-one", "Sildenafil", "5-[2-Ethoxy-5-(4-methyl-1-piperazinylsulfonyl)phenyl]-1-methyl-3-n-propyl-1,6-dihydro-7H-pyrazolo[4,3-d]pyrimidin-7-one", "Revatio", "Vizarsin", "Patrex"], "SMILES": "O(CC)C1=C(C=C(S(=O)(=O)N2CCN(C)CC2)C=C1)C=3NC4=C(C(=O)N3)N(C)N=C4CCC", "physical_data": {"Molecular Weight": "474.58", "Molecular Formula": "C22H30N6O4S", "Melting Point": "188-190 \u00b0C"}}