{"cas_no": "13978-85-3", "cn_name": "8-\u7f9f\u57fa\u55b9\u5549\u950c\u76d0", "en_name": ["Bis(8-hydroxyquinolinato)zinc", "Zinc, bis(8-quinolinolato-\u03baN1,\u03baO8)-, (T-4)-", "Zinc, bis(8-quinolinolato)-", "Zinc, bis(8-quinolinolato-N1,O8)-, (T-4)-", "(T-4)-Bis(8-quinolinolato-\u03baN1,\u03baO8)zinc", "Bis(8-quinolinolato)zinc", "Zinc 8-quinolinolate", "Zinc 8-hydroxyquinolinate", "Zinc oxinate", "Bis(8-hydroxyquinolinato)zinc", "8-Hydroxyquinoline zinc salt", "8-Hydroxyquinolinezinc", "Zinc bis(8-hydroxyquinolinate)"], "SMILES": "[Zn+2]12([N]=3C=4C([O-]1)=CC=CC4C=CC3)[N]=5C=6C([O-]2)=CC=CC6C=CC5", "physical_data": {"Molecular Weight": "", "Molecular Formula": "C18H12N2O2Zn", "Melting Point": "&gt;350 \u00b0C"}}