{"cas_no": "139755-99-0", "cn_name": "1-\u7532\u57fa-3-\u4e19\u57fa-1H-\u5421\u5511-5-\u7532\u9178", "en_name": ["1-Methyl-3-propyl-1H-pyrazole-5-carboxylic acid", "1H-Pyrazole-5-carboxylic acid, 1-methyl-3-propyl-", "1-Methyl-3-propyl-1H-pyrazole-5-carboxylic acid", "1-Methyl-3-propylpyrazole-5-carboxylic acid", "2-Methyl-5-propyl-2H-pyrazole-3-carboxylic acid", "2-Methyl-5-propylpyrazole-3-carboxylic acid"], "SMILES": "C(O)(=O)C1=CC(CCC)=NN1C", "physical_data": {"Molecular Weight": "168.19", "Molecular Formula": "C8H12N2O2", "Melting Point": "150-154 \u00b0C"}}