{"cas_no": "13984-57-1", "cn_name": "4-\u4e59\u9170\u57fa\u4e01\u57fa\u4e59\u916f", "en_name": ["Hexanoic acid, 5-oxo-, ethyl ester", "Hexanoic acid, 5-oxo-, ethyl ester", "Ethyl 5-oxohexanoate", "5-Oxohexanoic acid ethyl ester", "Ethyl 5-oxocaproate", "4-Acetylbutyric acid ethyl ester", "Ethyl 4-acetylbutyrate"], "SMILES": "C(CCCC(C)=O)(OCC)=O", "physical_data": {"Molecular Weight": "158.20", "Molecular Formula": "C8H14O3", "Boiling Point": "221.5 \u00b0C", "Density": "0.9971 g/cm\u00b3 @ Temp: 20 \u00b0C"}}