{"cas_no": "13983-13-6", "cn_name": "\u918c\u5f0f\u5229\u798f\u5e73", "en_name": ["Rifampicin quinone", "Rifamycin, 1,4-dideoxy-1,4-dihydro-3-[(E)-[(4-methyl-1-piperazinyl)imino]methyl]-1,4-dioxo-", "2,7-(Epoxypentadeca[1,11,13]trienimino)naphtho[2,1-b]furan-1,6,9,11(2H)-tetrone, 5,17,19,21-tetrahydroxy-23-methoxy-2,4,12,16,18,20,22-heptamethyl-8-[N-(4-methyl-1-piperazinyl)formimidoyl]-, 21-acetate", "2,7-(Epoxypentadeca[1,11,13]trienimino)naphtho[2,1-b]furan, rifamycin deriv.", "1,4-Dideoxy-1,4-dihydro-3-[(E)-[(4-methyl-1-piperazinyl)imino]methyl]-1,4-dioxorifamycin", "Rifaldazinequinone", "Rifampicin quinone", "Rifampin quinone", "NSC 145633"], "SMILES": "O=C1C=2C3=C4OC(C)(C3=O)OC=CC(OC)C(C)C(OC(C)=O)C(C)C(O)C(C)C(O)C(C)C=CC=C(C)C(=O)NC(C(=O)C2C(O)=C4C)=C1C=NN5CCN(C)CC5", "physical_data": {"Molecular Weight": "820.92", "Molecular Formula": "C43H56N4O12", "Melting Point": "185 \u00b0C"}}