{"cas_no": "13986-26-0", "cn_name": "\u7898\u5316\u9506", "en_name": ["Zirconium iodide (ZrI4)", "Zirconium iodide (ZrI4)", "Zirconium tetraiodide", "Zirconium iodide"], "SMILES": "[Zr](I)(I)(I)I", "physical_data": {"Molecular Weight": "", "Molecular Formula": "I4Zr", "Melting Point": "499 \u00b0C"}}