{"cas_no": "139891-98-8", "cn_name": "3,6'-\u4e8c\u82a5\u5b50\u9170\u57fa\u8517\u7cd6", "en_name": ["3\u2032,6-Disinapoylsucrose", "\u03b1-D-Glucopyranoside, 3-O-[(2E)-3-(4-hydroxy-3,5-dimethoxyphenyl)-1-oxo-2-propen-1-yl]-\u03b2-D-fructofuranosyl, 6-[(2E)-3-(4-hydroxy-3,5-dimethoxyphenyl)-2-propenoate]", "\u03b1-D-Glucopyranoside, 3-O-[3-(4-hydroxy-3,5-dimethoxyphenyl)-1-oxo-2-propenyl]-\u03b2-D-fructofuranosyl, 6-[3-(4-hydroxy-3,5-dimethoxyphenyl)-2-propenoate], [1(E),6(E)]-", "\u03b1-D-Glucopyranoside, 3-O-[(2E)-3-(4-hydroxy-3,5-dimethoxyphenyl)-1-oxo-2-propenyl]-\u03b2-D-fructofuranosyl, 6-[(2E)-3-(4-hydroxy-3,5-dimethoxyphenyl)-2-propenoate]", "\u03b2-D-(3-O-Sinapoyl)-fructofuranosyl-(2\u21921)-\u03b1-D-[6-O-sinapoyl]-glucopyranoside", "3\u2032,6-Disinapoylsucrose", "3,6\u2032-Disinapoylsucrose ester", "(3-O-Sinapoyl)-\u03b2-D-fructofuranosyl-(2\u21921)-(6-O-sinapoyl)-\u03b1-D-glucopyranoside"], "SMILES": "O(C1(CO)C(OC(C=CC2=CC(OC)=C(O)C(OC)=C2)=O)C(O)C(CO)O1)C3OC(COC(C=CC4=CC(OC)=C(O)C(OC)=C4)=O)C(O)C(O)C3O", "physical_data": {"Molecular Weight": "754.69", "Molecular Formula": "C34H42O19", "Melting Point": "129-130 \u00b0C"}}