{"cas_no": "13984-50-4", "cn_name": "4-\u4e59\u9170\u4e01\u9178\u7532\u916f", "en_name": ["Hexanoic acid, 5-oxo-, methyl ester", "Hexanoic acid, 5-oxo-, methyl ester", "Methyl 5-oxohexanoate", "5-Oxohexanoic acid methyl ester", "Methyl 4-acetylbutyrate", "Methyl 5-oxocaproate", "4-Acetylbutyric acid methyl ester"], "SMILES": "C(CCCC(C)=O)(OC)=O", "physical_data": {"Molecular Weight": "144.17", "Molecular Formula": "C7H12O3", "Boiling Point": "100-101 \u00b0C @ Press: 11 Torr"}}