{"cas_no": "13989-82-7", "cn_name": "4-(\u4e8c\u7532\u6c28\u57fa)\u4e01\u8148", "en_name": ["4-(Dimethylamino)butanenitrile", "Butanenitrile, 4-(dimethylamino)-", "Butyronitrile, 4-(dimethylamino)-", "4-(Dimethylamino)butanenitrile", "4-(Dimethylamino)butyronitrile", "NSC 163159"], "SMILES": "C(CCC#N)N(C)C", "physical_data": {"Molecular Weight": "112.17", "Molecular Formula": "C6H12N2", "Boiling Point": "187 \u00b0C @ Press: 761 Torr", "Density": "0.870 g/cm\u00b3 @ Temp: 20 \u00b0C"}}