{"cas_no": "13997-73-4", "cn_name": "2-\u70ef\u4e19\u57fa-4-\u6c2f\u82ef\u915a", "en_name": ["2-Allyl-4-chlorophenol", "Phenol, 4-chloro-2-(2-propen-1-yl)-", "Phenol, 2-allyl-4-chloro-", "Phenol, 4-chloro-2-(2-propenyl)-", "4-Chloro-2-(2-propen-1-yl)phenol", "2-Allyl-4-chlorophenol", "4-Chloro-2-allylphenol", "NSC 1539"], "SMILES": "C(C=C)C1=C(O)C=CC(Cl)=C1", "physical_data": {"Molecular Weight": "168.62", "Molecular Formula": "C9H9ClO", "Boiling Point": "133-134 \u00b0C @ Press: 15 Torr", "Melting Point": "48 \u00b0C"}}