{"cas_no": "13999-39-8", "cn_name": "3-\u6c28\u57fa-4,5-\u4e8c\u7532\u57fa\u5f02\u5641\u5511", "en_name": ["4,5-Dimethyl-3-isoxazolamine", "3-Isoxazolamine, 4,5-dimethyl-", "Isoxazole, 3-amino-4,5-dimethyl-", "4,5-Dimethyl-3-isoxazolamine", "4,5-Dimethyl-3-aminoisoxazole", "3-Amino-4,5-dimethylisoxazole", "(4,5-Dimethylisoxazol-3-yl)amine"], "SMILES": "CC=1C(N)=NOC1C", "physical_data": {"Molecular Weight": "112.13", "Molecular Formula": "C5H8N2O", "Melting Point": "115-117 \u00b0C"}}