{"cas_no": "13992-26-2", "cn_name": "2,3,4,6-O-\u56db\u4e59\u9170\u57fa-1-\u53e0\u6c2e-BETA-D-\u534a\u4e73\u7cd6", "en_name": ["\u03b2-D-Galactopyranosyl azide, 2,3,4,6-tetraacetate", "\u03b2-D-Galactopyranosyl azide, 2,3,4,6-tetraacetate", "Galactopyranosyl azide, 2,3,4,6-tetraacetate, \u03b2-D-", "2,3,4,6-Tetra-O-acetyl-\u03b2-D-galactopyranosyl azide", "1-Azido-\u03b2-D-galactopyranoside peracetate"], "SMILES": "O(C(C)=O)C1C(OC(C)=O)C(COC(C)=O)OC(N=[N+]=[N-])C1OC(C)=O", "physical_data": {"Molecular Weight": "", "Molecular Formula": "C14H19N3O9", "Melting Point": "96 \u00b0C"}}