{"cas_no": "13997-19-8", "cn_name": "\u7532\u6c27\u82c4\u55b9\u916f", "en_name": ["Nequinate", "3-Quinolinecarboxylic acid, 6-butyl-1,4-dihydro-4-oxo-7-(phenylmethoxy)-, methyl ester", "3-Quinolinecarboxylic acid, 7-(benzyloxy)-6-butyl-1,4-dihydro-4-oxo-, methyl ester", "Methyl benzoquate", "Methyl 7-(benzyloxy)-6-n-butyl-4-oxo-1,4-dihydroquinoline-3-carboxylate", "Nequinate", "Neqoinate", "Methyl 7-(benzyloxy)-6-butyl-1,4-dihydro-4-oxo-3-quinoline carboxylate", "Mequinate", "AY 20385", "ICI 55052", "Statoquate", "Statyl", "Tranil", "Statil", "7-Benzyloxy-6-butyl-1,4-dihydro-4-oxo-3-quinolinecarboxylic acid methyl ester"], "SMILES": "O=C1C=2C(=CC(OCC3=CC=CC=C3)=C(CCCC)C2)NC=C1C(OC)=O", "physical_data": {"Molecular Weight": "365.42", "Molecular Formula": "C22H23NO4", "Melting Point": "287.5 \u00b0C"}}