{"cas_no": "13991-37-2", "cn_name": "\u53cd\u5f0f2-\u620a\u70ef\u9178", "en_name": ["trans-2-Pentenoic acid", "2-Pentenoic acid, (2E)-", "2-Pentenoic acid, (E)-", "(2E)-2-Pentenoic acid", "trans-2-Pentenoic acid", "(E)-2-Pentenoic acid", "(E)-Pent-2-enoic acid", "(2E)-Pent-2-enoic acid"], "SMILES": "C(C(O)=O)=CCC", "physical_data": {"Molecular Weight": "100.12", "Molecular Formula": "C5H8O2", "Boiling Point": "174-175 \u00b0C"}}