{"cas_no": "13993-31-2", "cn_name": "5-\u6eb4\u5432\u54da-3-\u4e01\u9178", "en_name": ["5-Bromo-1H-indole-3-butanoic acid", "1H-Indole-3-butanoic acid, 5-bromo-", "Indole-3-butyric acid, 5-bromo-", "5-Bromo-1H-indole-3-butanoic acid"], "SMILES": "C(CCC(O)=O)C=1C=2C(NC1)=CC=C(Br)C2", "physical_data": {"Molecular Weight": "282.13", "Molecular Formula": "C12H12BrNO2", "Melting Point": "143 \u00b0C"}}