{"cas_no": "140-76-1", "cn_name": "2-\u7532\u57fa-5-\u4e59\u70ef\u57fa\u5421\u5576", "en_name": ["2-Methyl-5-vinylpyridine", "Pyridine, 5-ethenyl-2-methyl-", "2-Picoline, 5-vinyl-", "5-Ethenyl-2-methylpyridine", "2-Methyl-5-vinylpyridine", "5-Vinyl-2-picoline"], "SMILES": "C(=C)C=1C=CC(C)=NC1", "physical_data": {"Molecular Weight": "119.16", "Molecular Formula": "C8H9N", "Boiling Point": "181 \u00b0C", "Melting Point": "-12.0 \u00b0C", "Density": "0.978-0.982 g/cm\u00b3 @ Temp: 20 \u00b0C"}}