{"cas_no": "140-67-0", "cn_name": "4-\u70ef\u4e19\u57fa\u82ef\u7532\u919a", "en_name": ["Estragole", "Benzene, 1-methoxy-4-(2-propen-1-yl)-", "Anisole, p-allyl-", "Estragole", "Benzene, 1-methoxy-4-(2-propenyl)-", "Ether, p-allylphenyl methyl", "1-Methoxy-4-(2-propen-1-yl)benzene", "p-Allylanisole", "Chavicol methyl ether", "Esdragol", "Esdragon", "Isoanethole", "p-Methoxyallylbenzene", "Methyl chavicol", "Chavicol, O-methyl-", "Esdragole", "4-Methoxyallylbenzene", "4-Allylanisole", "3-(p-Methoxyphenyl)propene", "Estragol", "4-Allylmethoxybenzene", "1-Allyl-4-methoxybenzene", "Chavicol, methyl-", "1-Methoxy-4-(2-propenyl)benzene", "p-Allylphenyl methyl ether", "3-(p-Methoxyphenyl)-1-propene", "3-(4-Methoxyphenyl)-1-propene", "NSC 404113", "O-Methylchavicol", "Estragenole", "AUSTL 21320", "Esteragol", "3-(4-Methoxyphenyl)propene"], "SMILES": "C(C=C)C1=CC=C(OC)C=C1", "physical_data": {"Molecular Weight": "148.20", "Molecular Formula": "C10H12O", "Boiling Point": "215.5 \u00b0C", "Melting Point": "28-35 \u00b0C", "Density": "0.9645 g/cm\u00b3 @ Temp: 21 \u00b0C"}}