{"cas_no": "140-28-3", "cn_name": "N,N-\u4e8c\u82c4\u57fa\u4e59\u4e8c\u80fa", "en_name": ["Benzathine", "1,2-Ethanediamine, N1,N2-bis(phenylmethyl)-", "Ethylenediamine, N,N\u2032-dibenzyl-", "1,2-Ethanediamine, N,N\u2032-bis(phenylmethyl)-", "N1,N2-Bis(phenylmethyl)-1,2-ethanediamine", "Benzathine", "Benzatin", "1,2-Bis(benzylamino)ethane", "DBED", "N,N\u2032-Dibenzylethylenediamine", "N,N\u2032-Dibenzyl-1,2-ethanediamine", "N,N\u2032-Dibenzyl-1,2-ethylenediamine", "N,N\u2032-Dibenzyl-1,2-diaminoethane", "N,N\u2032-Bis(phenylmethyl)-1,2-ethanediamine", "NSC 5632", "NSC 62936", "Benzyl (2-(benzylamino)ethyl)amine"], "SMILES": "C(NCCNCC1=CC=CC=C1)C2=CC=CC=C2", "physical_data": {"Molecular Weight": "240.34", "Molecular Formula": "C16H20N2", "Boiling Point": "212-213 \u00b0C", "Melting Point": "26 \u00b0C", "Density": "1.024 g/cm\u00b3 @ Temp: 20 \u00b0C"}}