{"cas_no": "140-25-0", "cn_name": "\u5341\u4e8c\u9178\u82ef\u7532\u916f", "en_name": ["Benzyl laurate", "Dodecanoic acid, phenylmethyl ester", "Lauric acid, benzyl ester", "Benzyl dodecanoate", "Benzyl laurate", "NSC 404342"], "SMILES": "C(OC(CCCCCCCCCCC)=O)C1=CC=CC=C1", "physical_data": {"Molecular Weight": "290.44", "Molecular Formula": "C19H30O2", "Boiling Point": "209-211 \u00b0C @ Press: 12 Torr", "Melting Point": "8.5 \u00b0C", "Density": "0.9457 g/cm\u00b3 @ Temp: 25 \u00b0C"}}