{"cas_no": "140-95-4", "cn_name": "1'3-\u53cc\u7f9f\u7532\u57fa\u8132", "en_name": ["Dimethylolurea", "Urea, N,N\u2032-bis(hydroxymethyl)-", "Urea, 1,3-bis(hydroxymethyl)-", "N,N\u2032-Bis(hydroxymethyl)urea", "N,N\u2032-(Dihydroxymethyl)urea", "Methural", "Dimethylolurea", "1,3-Dimethylolurea", "Dimethanol urea", "N,N\u2032-Dimethylolurea", "Protesine DMU", "1,3-Bis(hydroxymethyl)urea", "Oxymethurea", "CSI Paste", "Ureol P", "Finish EN", "Permafresh 477", "Metural", "DMU", "Knittex ASL", "Papirol J 001", "NSC 41819", "Texapret R-S"], "SMILES": "C(NCO)(NCO)=O", "physical_data": {"Molecular Weight": "120.11", "Molecular Formula": "C3H8N2O3", "Melting Point": "126 \u00b0C"}}