{"cas_no": "140-11-4", "cn_name": "\u4e59\u9178\u82c4\u916f", "en_name": ["Benzyl acetate", "Acetic acid, phenylmethyl ester", "Acetic acid, benzyl ester", "Benzyl alcohol, acetate", "Benzyl acetate", "Benzyl ethanoate", "\u03b1-Acetoxytoluene", "(Acetoxymethyl)benzene", "Phenylmethyl acetate", "NSC 4550", "Jeffsol AG 1705", "Jeffsol AG 1700"], "SMILES": "C(OC(C)=O)C1=CC=CC=C1", "physical_data": {"Molecular Weight": "150.17", "Molecular Formula": "C9H10O2", "Boiling Point": "213 \u00b0C", "Melting Point": "-51 \u00b0C", "Density": "1.050 g/cm\u00b3 @ Temp: 25 \u00b0C"}}