{"cas_no": "140-92-1", "cn_name": "\u4e8c\u786b\u4ee3\u7532\u9178-O-1-\u7532\u57fa\u4e59\u916f\u94be\u76d0", "en_name": ["Potassium isopropylxanthate", "Carbonodithioic acid, O-(1-methylethyl) ester, potassium salt (1:1)", "Carbonic acid, dithio-, O-isopropyl ester, potassium salt", "Carbonodithioic acid, O-(1-methylethyl) ester, potassium salt", "Isopropylxanthic acid potassium salt", "Potassium isopropylxanthate", "Potassium isopropyl xanthogenate", "Potassium O-isopropyldithiocarbonate", "Isopropyl potassium xanthate", "Potassium isopropyl xanthanate", "O-Isopropyl dithiocarbonate potassium salt", "Potassium isopropyl dithiocarbonate"], "SMILES": "O(C(C)C)C(=S)S.[K]", "physical_data": {"Molecular Weight": "", "Molecular Formula": "C4H8OS2.K", "Melting Point": "223-227 \u00b0C"}}