{"cas_no": "140-26-1", "cn_name": "\u5f02\u620a\u9178\u82ef\u4e59\u916f", "en_name": ["Phenylethyl isovalerate", "Butanoic acid, 3-methyl-, 2-phenylethyl ester", "Isovaleric acid, phenethyl ester", "Phenethyl isovalerate", "Phenylethyl isovalerate", "Phenylethyl 3-methylbutyrate", "\u03b2-Phenylethyl isovalerate", "2-Phenylethyl 3-methylbutanoate", "2-Phenylethyl isovalerate", "2-Phenylethyl 3-methylbutyrate", "NSC 21899", "Phenylethyl 3-methylbutanoate"], "SMILES": "C(COC(CC(C)C)=O)C1=CC=CC=C1", "physical_data": {"Molecular Weight": "206.28", "Molecular Formula": "C13H18O2", "Boiling Point": "264 \u00b0C", "Density": "0.9791 g/cm\u00b3 @ Temp: 20 \u00b0C"}}