{"cas_no": "140-69-2", "cn_name": "4-\u7532\u6c27\u57fa\u82c4\u80bc", "en_name": ["[(4-Methoxyphenyl)methyl]hydrazine", "Hydrazine, [(4-methoxyphenyl)methyl]-", "Hydrazine, (p-methoxybenzyl)-", "[(4-Methoxyphenyl)methyl]hydrazine", "4-Methoxybenzylhydrazine", "p-Methoxybenzylhydrazine"], "SMILES": "C(NN)C1=CC=C(OC)C=C1", "physical_data": {"Molecular Weight": "152.19", "Molecular Formula": "C8H12N2O", "Boiling Point": "135-136 \u00b0C", "Melting Point": "34-36 \u00b0C"}}