{"cas_no": "140-39-6", "cn_name": "\u4e59\u9178\u5bf9\u7532\u915a\u916f", "en_name": ["4-Methylphenyl acetate", "Acetic acid, 4-methylphenyl ester", "Acetic acid, p-tolyl ester", "p-Cresol acetate", "Narceol", "p-Tolyl acetate", "p-Tolyl ethanoate", "p-Methylphenyl acetate", "p-Acetoxytoluene", "4-Methylphenyl acetate", "4-Acetoxytoluene", "4-Tolyl acetate", "NSC 43244", "NSC 65594"], "SMILES": "O(C(C)=O)C1=CC=C(C)C=C1", "physical_data": {"Molecular Weight": "150.17", "Molecular Formula": "C9H10O2", "Boiling Point": "212.5 \u00b0C", "Melting Point": "48.5 \u00b0C"}}