{"cas_no": "140-29-4", "cn_name": "\u82ef\u4e59\u8148", "en_name": ["Phenylacetonitrile", "Benzeneacetonitrile", "Acetonitrile, phenyl-", "Benzyl cyanide", "Benzyl nitrile", "\u03c9-Cyanotoluene", "Phenylacetonitrile", "\u03b1-Tolunitrile", "\u03b1-Cyanotoluene", "2-Phenylacetonitrile", "(Cyanomethyl)benzene", "Phenacetonitrile", "\u03b1-Phenylacetonitrile", "2-Phenylethanenitrile", "NSC 118418", "NSC 3407", "Benzeneethanenitrile"], "SMILES": "C(C#N)C1=CC=CC=C1", "physical_data": {"Molecular Weight": "117.15", "Molecular Formula": "C8H7N", "Boiling Point": "233.5 \u00b0C", "Melting Point": "-23.8 \u00b0C", "Density": "1.0214 g/cm\u00b3 @ Temp: 15 \u00b0C"}}