{"cas_no": "140-18-1", "cn_name": "\u6c2f\u4e59\u9178\u82c4\u916f", "en_name": ["Phenylmethyl 2-chloroacetate", "Acetic acid, 2-chloro-, phenylmethyl ester", "Acetic acid, chloro-, benzyl ester", "Acetic acid, chloro-, phenylmethyl ester", "Phenylmethyl 2-chloroacetate", "Benzyl chloroacetate", "Benzyl \u03b1-chloroacetate", "Chloroacetic acid benzyl ester", "NSC 8061", "Benzyl 2-chloroacetate"], "SMILES": "C(OC(CCl)=O)C1=CC=CC=C1", "physical_data": {"Molecular Weight": "184.62", "Molecular Formula": "C9H9ClO2", "Boiling Point": "132 \u00b0C @ Press: 12 Torr"}}