{"cas_no": "140-75-0", "cn_name": "\u5bf9\u6c1f\u82c4\u80fa", "en_name": ["4-Fluorobenzylamine", "Benzenemethanamine, 4-fluoro-", "Benzylamine, p-fluoro-", "4-Fluorobenzenemethanamine", "p-Fluorobenzylamine", "4-Fluorobenzylamine", "[(4-Fluorophenyl)methyl]amine", "(4-Fluorophenyl)methanamine", "NSC 158269", "1-(4-Fluorophenyl)methanamine"], "SMILES": "C(N)C1=CC=C(F)C=C1", "physical_data": {"Molecular Weight": "125.14", "Molecular Formula": "C7H8FN", "Boiling Point": "75-80 \u00b0C @ Press: 35 Torr", "Melting Point": "183 \u00b0C"}}