{"cas_no": "140-49-8", "cn_name": "4-\u6c2f\u4e59\u9170\u57fa\u4e59\u9170\u82ef\u80fa", "en_name": ["N-[4-(2-Chloroacetyl)phenyl]acetamide", "Acetamide, N-[4-(2-chloroacetyl)phenyl]-", "Acetanilide, 4\u2032-(chloroacetyl)-", "Acetamide, N-[4-(chloroacetyl)phenyl]-", "N-[4-(2-Chloroacetyl)phenyl]acetamide", "1-Acetylamino-4-chloroacetylbenzene", "p-(Acetylamino)phenacyl chloride", "p-Acetamidophenacyl chloride", "1-Acetamido-4-chloroacetylbenzene", "4\u2032-(Chloroacetyl)acetanilide", "4-Acetamidophenacyl chloride", "4-Acetylaminophenacyl chloride", "NSC 768"], "SMILES": "N(C(C)=O)C1=CC=C(C(CCl)=O)C=C1", "physical_data": {"Molecular Weight": "211.64", "Molecular Formula": "C10H10ClNO2", "Melting Point": "212 \u00b0C"}}