{"cas_no": "140-57-8", "cn_name": "\u963f\u87a8\u7279", "en_name": ["Aramite", "Sulfurous acid, 2-chloroethyl 2-[4-(1,1-dimethylethyl)phenoxy]-1-methylethyl ester", "Sulfurous acid, 2-(p-tert-butylphenoxy)-1-methylethyl 2-chloroethyl ester", "Ethanol, 2-chloro-, 2-(p-tert-butylphenoxy)-1-methylethyl sulfite", "88R", "Aramite", "2-(p-tert-Butylphenoxy)isopropyl 2-chloroethyl sulfite", "2-(p-tert-Butylphenoxy)-1-methylethyl 2-chloroethyl sulfite", "CES", "\u03b2-Chloroethyl-\u03b2\u2032-(p-tert-butylphenoxy)-\u03b1\u2032-methylethyl sulfite", "Niagaramite", "Ortho-Mite", "Aramit", "NSC 404155"], "SMILES": "O(CC(OS(OCCCl)=O)C)C1=CC=C(C(C)(C)C)C=C1", "physical_data": {"Molecular Weight": "334.86", "Molecular Formula": "C15H23ClO4S", "Boiling Point": "175 \u00b0C @ Press: 0.1 Torr", "Melting Point": "-31.7 \u00b0C", "Density": "1.145 g/cm\u00b3 @ Temp: 20 \u00b0C"}}