{"cas_no": "140-53-4", "cn_name": "\u5bf9\u6c2f\u82ef\u4e59\u8148", "en_name": ["(4-Chlorophenyl)acetonitrile", "Benzeneacetonitrile, 4-chloro-", "Acetonitrile, (p-chlorophenyl)-", "4-Chlorobenzeneacetonitrile", "(p-Chlorophenyl)acetonitrile", "p-Chlorobenzyl cyanide", "(4-Chlorophenyl)acetonitrile", "4-Chlorobenzyl cyanide", "2-(4-Chlorophenyl)acetonitrile", "p-Chloro-\u03b1-cyanotoluene", "4-Chlorobenzyl nitrile", "p-Chlorbenzylnitrile", "NSC 49108"], "SMILES": "C(C#N)C1=CC=C(Cl)C=C1", "physical_data": {"Molecular Weight": "151.59", "Molecular Formula": "C8H6ClN", "Boiling Point": "100-101 \u00b0C @ Press: 1 Torr", "Melting Point": "30 \u00b0C", "Density": "1.1968 g/cm\u00b3 @ Temp: 20 \u00b0C"}}