{"cas_no": "140-24-9", "cn_name": "\u7678\u4e8c\u9178\u4e8c\u82c4\u916f", "en_name": ["Dibenzyl sebacate", "Decanedioic acid, 1,10-bis(phenylmethyl) ester", "Sebacic acid, dibenzyl ester", "Decanedioic acid, bis(phenylmethyl) ester", "Dibenzyl sebacate", "NSC 3896"], "SMILES": "C(OC(CCCCCCCCC(OCC1=CC=CC=C1)=O)=O)C2=CC=CC=C2", "physical_data": {"Molecular Weight": "382.49", "Molecular Formula": "C24H30O4", "Boiling Point": "257 \u00b0C", "Melting Point": "28.3 \u00b0C", "Density": "1.0519 g/cm\u00b3 @ Temp: 4 \u00b0C"}}