{"cas_no": "140-80-7", "cn_name": "2-\u6c28\u57fa-5-\u4e8c\u4e59\u57fa\u6c28\u57fa\u620a\u70f7", "en_name": ["N,N-Diethyl-1,4-pentanediamine", "1,4-Pentanediamine, N1,N1-diethyl-", "N1,N1-Diethyl-1,4-pentanediamine", "2-Amino-5-(diethylamino)pentane", "2-Amino-5-diethylamino-n-pentane", "4-Amino-1-(diethylamino)pentane", "1-(Diethylamino)-4-aminopentane", "\u03b4-(Diethylamino)-\u03b1-methylbutylamine", "Novoldiamine", "1-Methyl-4-(diethylamino)butylamine", "4-(Diethylamino)-1-methylbutylamine", "5-(Diethylamino)-2-pentylamine", "N5,N5-Diethyl-2,5-pentanediamine", "5-(Diethylamino)-2-pentanamine", "N,N-Diethyl-1,4-pentanediamine", "NSC 2606", "(4-Aminopentyl)diethylamine"], "SMILES": "N(CCCC(C)N)(CC)CC", "physical_data": {"Molecular Weight": "158.28", "Molecular Formula": "C9H22N2", "Boiling Point": "201 \u00b0C", "Melting Point": "42-44 \u00b0C", "Density": "0.819 g/cm\u00b3 @ Temp: 26 \u00b0C"}}