{"cas_no": "140-03-4", "cn_name": "\u4e59\u9170\u84d6\u9ebb\u6cb9\u7532\u916f", "en_name": ["Methyl acetyl ricinoleate", "9-Octadecenoic acid, 12-(acetyloxy)-, methyl ester, (9Z,12R)-", "Ricinoleic acid, methyl ester, acetate", "9-Octadecenoic acid, 12-(acetyloxy)-, methyl ester, [R-(Z)]-", "Methyl acetyl ricinoleate", "Methyl ricinoleate acetate", "Flexricin P 4", "MAR-N", "NSC 2398", "NSC 4818", "Ric-Cizer C 101", "Ricsizer C 101", "Methyl cis-(R)-12-acetoxyoctadec-9-enoate", "Methyl O-acetylricinoleate"], "SMILES": "C(CC=CCCCCCCCC(OC)=O)(CCCCCC)OC(C)=O", "physical_data": {"Molecular Weight": "354.52", "Molecular Formula": "C21H38O4", "Boiling Point": "204-207 \u00b0C @ Press: 0.5 Torr"}}