{"cas_no": "140-10-3", "cn_name": "\u8089\u6842\u9178", "en_name": ["trans-Cinnamic acid", "2-Propenoic acid, 3-phenyl-, (2E)-", "Cinnamic acid, (E)-", "2-Propenoic acid, 3-phenyl-, (E)-", "(2E)-3-Phenyl-2-propenoic acid", "trans-Cinnamic acid", "trans-\u03b2-Carboxystyrene", "trans-3-Phenylacrylic acid", "trans-3-Phenyl-2-propenoic acid", "(E)-3-Phenylprop-2-enoic acid", "trans-Cinnamic acid", "(E)-Cinnamic acid", "(E)-3-Phenylacrylic acid", "NSC 44010", "(2E)-2-Phenyl-2-propenoic acid", "(2E)-Cinnamic acid", "3-Phenyl-(E)-2-propenoic acid", "(E)-3-Phenyl-2-propenoic acid", "(2E)-3-Phenylprop-2-enoic acid", "(E)-3-Phenylacrylic acid"], "SMILES": "C(=CC(O)=O)C1=CC=CC=C1", "physical_data": {"Molecular Weight": "148.16", "Molecular Formula": "C9H8O2", "Boiling Point": "300 \u00b0C", "Melting Point": "133 \u00b0C"}}