{"cas_no": "140-72-7", "cn_name": "\u6eb4\u4ee3\u5341\u516d\u70f7\u57fa\u5421\u5576", "en_name": ["Cetylpyridinium bromide", "Pyridinium, 1-hexadecyl-, bromide (1:1)", "1-Hexadecylpyridinium bromide", "Pyridinium, 1-hexadecyl-, bromide", "Pyridinium, 1-cetyl-, bromide", "Cetazol", "Cetylpyridinium bromide", "Fixanol C", "Sterogenol", "Bromocet", "Seprisan", "Nitrogenol", "N-Cetylpyridinium bromide", "N-Hexadecylpyridinium bromide", "Morpan CBP", "Acetoquat CPB", "Hexadecylpyridinium bromide", "1-Cetylpyridinium bromide", "Cetasol", "TsPB", "Hexadecylpyridine bromide", "Cetapharm", "CPB", "Cetazol 80"], "SMILES": "C(CCCCCCCCCCCCCCC)[N+]=1C=CC=CC1.[Br-]", "physical_data": {"Molecular Weight": "", "Molecular Formula": "C21H38N.Br", "Melting Point": "64.5 \u00b0C"}}