{"cas_no": "140-64-7", "cn_name": "\u55b7\u4ed6\u8112\u7f9f\u4e59\u78fa\u9178\u76d0", "en_name": ["Pentamidine isethionate", "Ethanesulfonic acid, 2-hydroxy-, compd. with 4,4\u2032-[1,5-pentanediylbis(oxy)]bis[benzenecarboximidamide] (2:1)", "Ethanesulfonic acid, 2-hydroxy-, compd. with 4,4\u2032-(pentamethylenedioxy)dibenzamidine (2:1)", "Benzamidine, 4,4\u2032-(pentamethylenedioxy)di-, diisethionate", "Benzenecarboximidamide, 4,4\u2032-[1,5-pentanediylbis(oxy)]bis-, bis(2-hydroxyethanesulfonate)", "RP 2512", "4,4\u2032-Diamidinodiphenoxypentane di(\u03b2-hydroxyethanesulfonate)", "4,4\u2032-Diamidino-\u03b1,\u03c9-diphenoxypentane diisethionate", "Lomidine", "p,p\u2032-(Pentamethylenedioxy)dibenzamidine bis(\u03b2-hydroxyethanesulfonate)", "Pentamidine diisethionate", "Pentamidine isethionate", "Lomidin", "1,5-Bis(4-amidinophenoxy)pentane diisethionate", "Diamidine", "M &", "B 800", "2512RP", "WR 4931", "Pentam", "NebuPent", "Pentam 300", "Banambax", "Pentamidine isetionate", "Pneumopent", "Aeropent", "Pentacarinat", "VLX 103"], "SMILES": "C(=N)(N)C1=CC=C(OCCCCCOC2=CC=C(C(=N)N)C=C2)C=C1.C(S(=O)(=O)O)CO", "physical_data": {"Molecular Weight": "", "Molecular Formula": "C19H24N4O2.2C2H6O4S", "Melting Point": "180 \u00b0C"}}