{"cas_no": "140-87-4", "cn_name": "\u6c30\u4e59\u9170\u80bc", "en_name": ["Cyanoacetic acid hydrazide", "Acetic acid, 2-cyano-, hydrazide", "Acetic acid, cyano-, hydrazide", "AB-42", "Armazal", "Cyacetacide", "Cyacetazide", "Cyanacethydrazide", "Cyanacetic acid hydrazide", "Cyanacetohydrazide", "Cyanacetylhydrazide", "Cyanazide", "Cyanizide", "Cyanoacetic acid hydrazide", "Cyanoacetohydrazide", "Cyazide", "Dictycide", "Dictyzide", "Helmox", "Hidacian", "Leandin", "Malonitrile hydrazide", "Malononitrile hydrazide", "Neohydrazid", "Reacid", "Reazide", "Cyanoacethydrazide", "\u03b1-Cyanoacetohydrazide", "Cyanoacetyl hydrazide", "(Cyanoacetyl)hydrazine", "Mackreazid", "Tsiazid", "Cyazid", "Cyacetazid", "Reazid", "Cianazil", "Cyacetacid", "Hidaciann", "2-Cyanoacetohydrazide", "Cyanoacetic hydrazide", "(\u03b1-Cyanoacetyl)hydrazine", "Cyanoethanoic hydrazide", "2-Cyanoacethydrazide", "2-Cyanoacetylhydrazide", "NSC 24261", "2-Cyanoacetyl hydrazine", "2-Cyanoacetic acid hydrazide"], "SMILES": "C(CC#N)(NN)=O", "physical_data": {"Molecular Weight": "99.09", "Molecular Formula": "C3H5N3O", "Melting Point": "114.5-115 \u00b0C"}}