{"cas_no": "140-82-9", "cn_name": "2-(2-\u4e8c\u4e59\u6c28\u57fa\u4e59\u6c27\u57fa)\u4e59\u9187", "en_name": ["2-[2-(Diethylamino)ethoxy]ethanol", "Ethanol, 2-[2-(diethylamino)ethoxy]-", "Ethanol, 2-(\u03b2-diethylaminoethoxy)-", "2-[2-(Diethylamino)ethoxy]ethanol", "2-(\u03b2-Diethylamino)ethoxyethanol", "2-[2-(N,N-Diethylamino)ethoxy]ethanol", "Diethyl[2-(2-hydroxyethoxy)ethyl]amine", "NSC 163322", "DEAE-EO", "2-[2\u2032-(Diethylamino)ethoxy]ethanol", "2-[2-(Diethylamino)ethoxy]ethan-1-ol"], "SMILES": "N(CCOCCO)(CC)CC", "physical_data": {"Molecular Weight": "161.24", "Molecular Formula": "C8H19NO2", "Boiling Point": "221.5 \u00b0C", "Density": "0.9399 g/cm\u00b3 @ Temp: 25 \u00b0C"}}