{"cas_no": "140-40-9", "cn_name": "\u918b\u80fa\u785d\u5511", "en_name": ["2-(Acetylamino)-5-nitrothiazole", "Acetamide, N-(5-nitro-2-thiazolyl)-", "Thiazole, 2-acetamido-5-nitro-", "N-(5-Nitro-2-thiazolyl)acetamide", "2-Acetamido-5-nitrothiazole", "Acetyl enheptin", "Acinitrazole", "Aminitrozole", "Enheptin A", "Pleocide", "Trichlorad", "Trichorad", "Trichoral", "Tricolaval", "Tritheon", "Lavoflagin", "2-(Acetylamino)-5-nitrothiazole", "5-Nitro-2-acetamidothiazole", "Gynofon", "Cyzine Premix", "Nitazol", "Trichocid", "Acinitrazol", "Trikolaval", "Tricosteril", "Ametoterina", "Aminitrozol", "Tricogen", "Trichoman", "Tricoral", "Nithiamide", "Nitazole", "CL 5279", "NSC 31539", "NSC 45914", "N-(5-Nitro-1,3-thiazol-2-yl)acetamide"], "SMILES": "N(C(C)=O)C=1SC(N(=O)=O)=CN1", "physical_data": {"Molecular Weight": "187.18", "Molecular Formula": "C5H5N3O3S", "Melting Point": "264.5 \u00b0C"}}