{"cas_no": "140-77-2", "cn_name": "3-\u73af\u620a\u57fa\u4e19\u9178", "en_name": ["Cyclopentanepropanoic acid", "Cyclopentanepropanoic acid", "Cyclopentanepropionic acid", "3-Cyclopentylpropionic acid", "Cyclopentylpropionic acid", "3-Cyclopentylpropanoic acid", "NSC 8771", "Cypionic acid"], "SMILES": "C(CC(O)=O)C1CCCC1", "physical_data": {"Molecular Weight": "142.20", "Molecular Formula": "C8H14O2", "Boiling Point": "130-132 \u00b0C", "Melting Point": "131 \u00b0C", "Density": "1.01 g/cm\u00b3 @ Temp: 17.4 \u00b0C"}}