{"cas_no": "140-66-9", "cn_name": "\u5bf9\u7279\u8f9b\u57fa\u82ef\u915a", "en_name": ["4-tert-Octylphenol", "Phenol, 4-(1,1,3,3-tetramethylbutyl)-", "Phenol, p-(1,1,3,3-tetramethylbutyl)-", "4-(1,1,3,3-Tetramethylbutyl)phenol", "p-tert-Octylphenol", "4-tert-Octylphenol", "p-Octylphenol", "p-(1,1,3,3-Tetramethylbutyl)phenol", "4-Octylphenol", "NSC 5427", "NSC 7248", "p-t-Octylphenol", "4-(2,4,4-Trimethylpentan-2-yl)phenol", "4-(2,2,4-Trimethylpentan-2-yl)phenol"], "SMILES": "C(CC(C)(C)C)(C)(C)C1=CC=C(O)C=C1", "physical_data": {"Molecular Weight": "206.32", "Molecular Formula": "C14H22O", "Boiling Point": "158 \u00b0C @ Press: 20 Torr", "Melting Point": "84-85 \u00b0C", "Density": "0.89 g/cm\u00b3 @ Temp: 90 \u00b0C"}}