{"cas_no": "140-38-5", "cn_name": "4-\u6c2f\u82ef\u57fa\u8132", "en_name": ["4-Chlorophenylurea", "Urea, N-(4-chlorophenyl)-", "Urea, (4-chlorophenyl)-", "Urea, (p-chlorophenyl)-", "N-(4-Chlorophenyl)urea", "(p-Chlorophenyl)urea", "4-Chlorophenylurea", "p-CPU", "3-(p-Chlorophenyl)urea", "1-(4-Chlorophenyl)urea", "NSC 12971", "NSC 400071"], "SMILES": "N(C(N)=O)C1=CC=C(Cl)C=C1", "physical_data": {"Molecular Weight": "170.60", "Molecular Formula": "C7H7ClN2O", "Melting Point": "212 \u00b0C"}}