{"cas_no": "140-22-7", "cn_name": "\u4e8c\u82ef\u6c28\u57fa\u8132", "en_name": ["Diphenylcarbazide", "Carbonic dihydrazide, 2,2\u2032-diphenyl-", "Carbohydrazide, 1,5-diphenyl-", "2,2\u2032-Diphenylcarbonic dihydrazide", "sym-Diphenylcarbazide", "DPC", "1,5-Diphenylcarbohydrazide", "1,5-Diphenylcarbazide", "Diphenylcarbazide", "2,2\u2032-Diphenylcarbazide", "s-Diphenylcarbazide", "N,N\u2032-Diphenylcarbazide", "NSC 5058", "1,3-Dianilinourea", "MeSH ID: D004160"], "SMILES": "N(NC(NNC1=CC=CC=C1)=O)C2=CC=CC=C2", "physical_data": {"Molecular Weight": "242.28", "Molecular Formula": "C13H14N4O", "Melting Point": "170 \u00b0C"}}