{"cas_no": "140-31-8", "cn_name": "N-\u6c28\u4e59\u57fa\u54cc\u55ea", "en_name": ["1-Piperazineethanamine", "1-Piperazineethanamine", "Piperazine, 1-(2-aminoethyl)-", "N-(\u03b2-Aminoethyl)piperazine", "1-(2-Aminoethyl)piperazine", "N-(2-Aminoethyl)piperazine", "1-Piperazineethylamine", "2-Piperazinylethylamine", "4-(2-Aminoethyl)piperazine", "1-(\u03b2-Aminoethyl)piperazine", "AEP", "2-(1-Piperazinyl)ethylamine", "Ancamine AEP", "2-(1-Piperazinyl)ethanamine", "N-AEP", "NSC 38968", "Epikure 3202", "Epicure 3200", "2-(Piperazinyl-1-yl)ethanamine", "2-(Piperazin-1-yl)ethaneamine", "2-(Piperazin-1-yl)ethan-1-amine", "AEP1 protein ligase", "AEP1", "Proteins, AEP1", "RoyOxy RAC 111"], "SMILES": "C(CN)N1CCNCC1", "physical_data": {"Molecular Weight": "129.20", "Molecular Formula": "C6H15N3", "Boiling Point": "222 \u00b0C", "Density": "0.9837 g/cm\u00b3"}}