{"cas_no": "140-79-4", "cn_name": "1,4-\u4e8c\u4e9e\u785d\u54cc\u3010\u53e3+\u4e95\u3011", "en_name": ["N,N\u2032-Dinitrosopiperazine", "Piperazine, 1,4-dinitroso-", "1,4-Dinitrosopiperazine", "N,N\u2032-Dinitrosopiperazine", "DNP", "NSC 339"], "SMILES": "N(=O)N1CCN(N=O)CC1", "physical_data": {"Molecular Weight": "144.13", "Molecular Formula": "C4H8N4O2", "Melting Point": "158 \u00b0C"}}