{"cas_no": "140-88-5", "cn_name": "\u4e19\u70ef\u9178\u4e59\u916f", "en_name": ["Ethyl acrylate", "2-Propenoic acid, ethyl ester", "Acrylic acid ethyl ester", "Ethyl acrylate", "Ethyl propenoate", "2-Propenoic acid ethyl ester", "Ethyl 2-propenoate", "Ethyl acrylic ester", "NSC 8263", "A 0143"], "SMILES": "C(OCC)(C=C)=O", "physical_data": {"Molecular Weight": "100.12", "Molecular Formula": "C5H8O2", "Boiling Point": "99.4 \u00b0C", "Melting Point": "-71.2 \u00b0C", "Density": "0.9234 g/cm\u00b3 @ Temp: 20 \u00b0C"}}