{"cas_no": "140-50-1", "cn_name": "N,N'-\u4e8c\u4e59\u9170-1,4-\u82ef\u4e8c\u80fa", "en_name": ["N,N\u2032-Diacetyl-p-phenylenediamine", "Acetamide, N,N\u2032-1,4-phenylenebis-", "Acetamide, N,N\u2032-p-phenylenebis-", "N,N\u2032-1,4-Phenylenebis[acetamide]", "p-Phenylenediacetamide", "N,N\u2032-Diacetyl-p-phenylenediamine", "1,4-Diacetamidobenzene", "1,4-Bisacetamidobenzene", "4\u2032-Acetamidoacetanilide", "1,4-Diacetylaminobenzene", "N,N\u2032-Diacetyl-1,4-phenylenediamine", "NSC 401116", "N-[4-(Acetylamino)phenyl]acetamide", "N,N\u2032-(1,4-Phenylene)diacetamide", "1,4-Bis(acetylamino)benzene"], "SMILES": "N(C(C)=O)C1=CC=C(NC(C)=O)C=C1", "physical_data": {"Molecular Weight": "192.21", "Molecular Formula": "C10H12N2O2", "Melting Point": "204 \u00b0C"}}