{"cas_no": "140-08-9", "cn_name": "2-\u6c2f\u4e59\u9187\u4e9a\u78f7\u9178\u76d0(3:1)", "en_name": ["Tris(2-chloroethyl) phosphite", "Ethanol, 2-chloro-, 1,1\u2032,1\u2032\u2032-phosphite", "Ethanol, 2-chloro-, phosphite (3:1)", "Ethanol, 2-chloro-, phosphite", "Tris(\u03b2-chloroethyl) phosphite", "Tris(2-chloroethyl) phosphite", "Tris(chloroethyl) phosphite", "Phosphorous acid, tris(2-chloroethyl) ester", "CLP 1", "Tri(2-chloroethyl) phosphite", "NSC 6514"], "SMILES": "P(OCCCl)(OCCCl)OCCCl", "physical_data": {"Molecular Weight": "269.49", "Molecular Formula": "C6H12Cl3O3P", "Boiling Point": "119 \u00b0C @ Press: 0.15 Torr", "Density": "1.353 g/cm\u00b3 @ Temp: 20 \u00b0C"}}