{"cas_no": "140-89-6", "cn_name": "\u4e59\u57fa\u9ec4\u539f\u9178\u94be", "en_name": ["Potassium ethylxanthate", "Carbonodithioic acid, O-ethyl ester, potassium salt (1:1)", "Carbonic acid, dithio-, O-ethyl ester, potassium salt", "Carbonodithioic acid, O-ethyl ester, potassium salt", "Z 3", "Ethylxanthic acid potassium salt", "Potassium ethylxanthate", "Potassium ethylxanthogenate", "Ethyl potassium xanthogenate", "Potassium O-ethyl dithiocarbonate", "Potassium xanthogenate", "Ethyl potassium xanthate", "Potassium xanthate", "Z 3 (pesticide)", "O-Ethyl potassium dithiocarbonate", "(O-Ethyl dithiocarbonato)potassium", "O-Ethyl dithiocarbonate potassium salt", "Potassium O-ethyl carbonodithioate", "KEX", "Dithiocarbonic acid O-ethyl ester potassium salt", "BKs", "BKs (flotation agent)", "Ethoxymethanedithioic acid potassium"], "SMILES": "O(C(=S)S)CC.[K]", "physical_data": {"Molecular Weight": "", "Molecular Formula": "C3H6OS2.K", "Melting Point": "210 \u00b0C (decomp)"}}