{"cas_no": "14001-64-0", "cn_name": "2-\u7532\u786b\u57fa-4,6-\u4e8c\u7532\u57fa\u5627\u5576", "en_name": ["4,6-Dimethyl-2-(methylthio)pyrimidine", "Pyrimidine, 4,6-dimethyl-2-(methylthio)-", "4,6-Dimethyl-2-(methylthio)pyrimidine", "2-(Methylthio)-4,6-dimethylpyrimidine", "4,6-Dimethyl-2-methylsulfanylpyrimidine", "2-Thiomethyl-4,6-dimethylpyrimidine"], "SMILES": "S(C)C=1N=C(C)C=C(C)N1", "physical_data": {"Molecular Weight": "154.23", "Molecular Formula": "C7H10N2S", "Boiling Point": "120-122 \u00b0C @ Press: 17 Torr", "Melting Point": "24 \u00b0C"}}