{"cas_no": "14003-66-8", "cn_name": "4-\u7532\u57fa-5-\u785d\u57fa\u54aa\u5511", "en_name": ["5-Methyl-4-nitroimidazole", "1H-Imidazole, 4-methyl-5-nitro-", "Imidazole, 4-methyl-5-nitro-", "Imidazole, 4(or 5)-methyl-5(or 4)-nitro-", "4-Methyl-5-nitro-1H-imidazole", "4-Methyl-5-nitroimidazole", "5-Methyl-4-nitroimidazole", "RP 8549", "NSC 156634"], "SMILES": "N(=O)(=O)C1=C(C)N=CN1", "physical_data": {"Molecular Weight": "127.10", "Molecular Formula": "C4H5N3O2", "Melting Point": "242-245 \u00b0C"}}