{"cas_no": "1400-61-9", "cn_name": "\u5236\u9709\u83cc\u7d20", "en_name": ["Nystatin", "Nystatin", "Fungicidin", "Mycostatin", "Mykostatyna", "Myconystatin", "Stamycin", "Candio-Hermal", "Diastatin", "Nystan", "Nystavescent", "O-V Statin", "Moronal (antibiotic)", "Nistatin", "Nysfungin", "Nyotran", "Nystop", "L-Nystatin", "Nystex", "Biofanal", "Mycostatin Pastilles", "Flagystatin", "Nystacid", "Ceratocide", "Nilstat", "MeSH ID: D009761"], "SMILES": "", "physical_data": {"Molecular Weight": "", "Molecular Formula": "Unspecified", "Melting Point": "44-46 \u00b0C"}}