{"cas_no": "14002-51-8", "cn_name": "\u8054\u82ef-4-\u7532\u9170\u6c2f", "en_name": ["[1,1\u2032-Biphenyl]-4-carbonyl chloride", "[1,1\u2032-Biphenyl]-4-carbonyl chloride", "4-Biphenylcarbonyl chloride", "4-Phenylbenzoyl chloride", "Diphenyl-4-carboxylic acid chloride", "p-Phenylbenzoyl chloride", "p-Biphenylcarbonyl chloride", "4-Biphenylylformyl chloride", "4-(Phen-4-yl)benzoyl chloride"], "SMILES": "C(Cl)(=O)C1=CC=C(C=C1)C2=CC=CC=C2", "physical_data": {"Molecular Weight": "216.66", "Molecular Formula": "C13H9ClO", "Melting Point": "113 \u00b0C"}}