{"cas_no": "14008-44-7", "cn_name": "\u7f8e\u6258\u54cc\u4e19\u55ea", "en_name": ["Metopimazine", "4-Piperidinecarboxamide, 1-[3-[2-(methylsulfonyl)-10H-phenothiazin-10-yl]propyl]-", "Isonipecotamide, 1-[3-[2-(methylsulfonyl)phenothiazin-10-yl]propyl]-", "1-[3-[2-(Methylsulfonyl)-10H-phenothiazin-10-yl]propyl]-4-piperidinecarboxamide", "EXP 999", "1-[3-[2-(Methylsulfonyl)phenothiazin-10-yl]propyl]isonipecotamide", "Metopimazine", "2-Methylsulfonyl-10-[3-(4-carbamoylpiperidino)propyl]phenothiazine", "RP 9965", "1-[3-[2-(Methylsulfonyl)phenothiazin-10-yl]propyl]-4-piperidinecarboxamide", "Vogalene"], "SMILES": "C(CCN1CCC(C(N)=O)CC1)N2C=3C(SC=4C2=CC=CC4)=CC=C(S(C)(=O)=O)C3", "physical_data": {"Molecular Weight": "445.60", "Molecular Formula": "C22H27N3O3S2", "Melting Point": "170.5 \u00b0C"}}