{"cas_no": "14003-34-0", "cn_name": "3-\u7532\u57fa-2-\u7f9f\u57fa\u55b9\u5594\u5549", "en_name": ["3-Methyl-2(1H)-quinoxalinone", "2(1H)-Quinoxalinone, 3-methyl-", "3-Methyl-2(1H)-quinoxalinone", "2-Hydroxy-3-methylquinoxaline", "3-Methyl-2-quinoxalone", "3-Methyl-2-quinoxalinol", "3-Methyl-2-quinoxalinone", "3-Methyl-2-hydroxyquinoxaline", "NSC 149824", "NSC 17798", "NSC 38589", "3-Methyl-1H-quinoxalin-2-one"], "SMILES": "CC1=NC=2C(NC1=O)=CC=CC2", "physical_data": {"Molecular Weight": "160.17", "Molecular Formula": "C9H8N2O", "Melting Point": "245 \u00b0C"}}