{"cas_no": "14008-48-1", "cn_name": "\u53cc\u915a\u6c99\u4e01\u918b\u9178\u916f", "en_name": ["Bisoxatin acetate", "2H-1,4-Benzoxazin-3(4H)-one, 2,2-bis[4-(acetyloxy)phenyl]-", "2H-1,4-Benzoxazin-3(4H)-one, 2,2-bis(p-hydroxyphenyl)-, diacetate (ester)", "2H-1,4-Benzoxazin-3(4H)-one, 2,2-bis(p-hydroxyphenyl)-, diacetate", "2,2-Bis[4-(acetyloxy)phenyl]-2H-1,4-benzoxazin-3(4H)-one", "Wy 8138", "2,2-Bis(p-hydroxyphenyl)-2H-1,4-benzoxazin-3(4H)-one diacetate", "Bisoxatin acetate", "2,2-Bis(p-acetoxyphenyl)-3-oxo-1,4-dihydrobenzoxazine", "Laxonalin", "Tasis", "Exodol", "Kritel", "La 271a", "Lasotin", "Metrolax", "Regoxal", "Wylaxine", "Maratan", "Talsis"], "SMILES": "O=C1C(OC=2C(N1)=CC=CC2)(C3=CC=C(OC(C)=O)C=C3)C4=CC=C(OC(C)=O)C=C4", "physical_data": {"Molecular Weight": "417.41", "Molecular Formula": "C24H19NO6", "Melting Point": "190 \u00b0C"}}