{"cas_no": "14002-80-3", "cn_name": "\u7f9f\u57fa\u4e09\u7532\u57fa\u4e59\u9178\u7532\u916f", "en_name": ["Methyl 3-hydroxy-2,2-dimethylpropanoate", "Propanoic acid, 3-hydroxy-2,2-dimethyl-, methyl ester", "Hydracrylic acid, 2,2-dimethyl-, methyl ester", "Methyl \u03b2-hydroxypivalate", "Methyl 3-hydroxy-2,2-dimethylpropanoate", "Methyl hydroxypivalate", "2-Methoxycarbonyl-2-methylpropan-1-ol", "Methyl 2,2-dimethyl-3-hydroxypropionate", "Hydroxypivalic acid methyl ester", "2,2-Dimethyl-3-hydroxypropanoic acid methyl ester", "Methyl 3-hydroxy-2,2-dimethylpropionate", "3-Hydroxy-2,2-dimethylpropionic acid methyl ester", "Methyl 2,2-dimethyl-3-hydroxypropanoate", "3-Hydroxy-2,2-dimethylpropanoic acid methyl ester"], "SMILES": "C(C(OC)=O)(CO)(C)C", "physical_data": {"Molecular Weight": "132.16", "Molecular Formula": "C6H12O3", "Boiling Point": "65 \u00b0C @ Press: 10 Torr"}}