{"cas_no": "14001-63-9", "cn_name": "4-\u7532\u57fa-2-\u7532\u786b\u57fa\u5627\u5576", "en_name": ["4-Methyl-2-(methylthio)pyrimidine", "Pyrimidine, 4-methyl-2-(methylthio)-", "4-Methyl-2-(methylthio)pyrimidine", "2-Methylthio-4-methylpyrimidine", "4-Methyl-2-methylsulfanylpyrimidine"], "SMILES": "S(C)C=1N=C(C)C=CN1", "physical_data": {"Molecular Weight": "140.21", "Molecular Formula": "C6H8N2S", "Boiling Point": "78-80 \u00b0C @ Press: 1 Torr"}}