{"cas_no": "14010-23-2", "cn_name": "\u5341\u4e03\u70f7\u9178\u4e59\u916f", "en_name": ["Ethyl heptadecanoate", "Heptadecanoic acid, ethyl ester", "Ethyl heptadecanoate", "Ethyl n-heptadecanoate", "Ethyl margarate", "NSC 137831", "Margaric acid ethyl ester"], "SMILES": "C(CCCCCCCCCCCCCC)CC(OCC)=O", "physical_data": {"Molecular Weight": "298.50", "Molecular Formula": "C19H38O2", "Melting Point": "28 \u00b0C"}}