{"cas_no": "1401-69-0", "cn_name": "\u6cf0\u4e50\u83cc\u7d20", "en_name": ["Tylosin", "Tylosin", "Oxacyclohexadecane, tylosin deriv.", "Tylosin A", "Tylosine", "Tylocine", "[4R-(4R*,5S*,6S*,7R*,9R*,11E,13E,15R*,16R*)]-15-[[(6-Deoxy-2,3-di-O-methyl-\u03b2-D-allopyranosyl)oxy]methyl]-6-[[3,6-dideoxy-4-O-(2,6-dideoxy-3-C-methyl-\u03b1-L-ribo-hexopyranosyl)-3-(dimethylamino)-\u03b2-D-glucopyranosyl]oxy]-16-ethyl-4-hydroxy-5,9,13-trimethyl-2,10-dioxooxacyclohexadeca-11,13-diene-7-acetaldehyde", "Oxacyclohexadeca-11,13-diene-7-acetaldehyde, 15-[[(6-deoxy-2,3-di-O-methyl-\u03b2-D-allopyranosyl)oxy]methyl]-6-[[3,6-dideoxy-4-O-(2,6-dideoxy-3-C-methyl-\u03b1-L-ribo-hexopyranosyl)-3-(dimethylamino)-\u03b2-D-glucopyranosyl]oxy]-16-ethyl-4-hydroxy-5,9,13-trimethyl-2,10-dioxo-, [4R-(4R*,5S*,6S*,7R*,9R*,11E,13E,15R*,16R*)]-", "Fradizine", "Vubityl 200", "MeSH ID: D015645"], "SMILES": "O(C1C(N(C)C)C(O)C(OC2C(CC=O)CC(C)C(=O)C=CC(C)=CC(COC3C(OC)C(OC)C(O)C(C)O3)C(CC)OC(=O)CC(O)C2C)OC1C)C4CC(C)(O)C(O)C(C)O4", "physical_data": {"Molecular Weight": "916.10", "Molecular Formula": "C46H77NO17", "Melting Point": "128-132 \u00b0C"}}