{"cas_no": "1401-55-4", "cn_name": "\u5355\u5b81\u9178", "en_name": ["Tannins", "Tannins", "Tannic acids", "Tannin analysis", "Sunlife TN", "Hifix SL", "Tanaphen P 500", "Tanex RS 93", "Hifix SLA", "Floctan 1", "Floctan 3", "Fresh Shiraimatsu FS 500M", "MP-TR", "TW 75", "Brewtan", "Tanal 1", "Resorcinex Pecan Tannin 9901L", "Vitanil B", "Quertanil", "Vitanil IM", "Weibull", "Tannic Acid X", "F-Tannin", "Tannic Acid KT", "Tannin", "Gallotannic acid", "Gallotannin", "Tannic acid AL", "Lexsod P", "Tannic acid", "FS 500M", "Textan 3", "Colatan GT 100", "Bondtite 345", "Excellence Vintage", "Kakitafu", "Tannic Acid ME", "Bondtite 645", "Arbor Lock 20", "UT 10", "UT 10 (tannin)", "SV 82", "Makubunri Seisei Kaki Tannin H 1", "Pancil", "Brewtan C", "Tanal 02C", "Tanex A-FCC", "Hifix SW-A", "Hifix 45", "BM 539", "Bondtite 241", "Pancil FG 30", "DT-R 240", "Pancil FG 22", "Crown ATO", "Pancil FG 70", "Fintan OP", "Tru/tan", "HLE 100", "Pancil PO 10", "Enoxil", "Basyntan AS", "Baxindan AS", "Galalcool", "Tanigan PKA-S", "JOM", "Bondtite 945", "Syntan WT", "SETA TUN", "Retan MD", "Mimosa NT", "DNS 101", "R 129", "Colatan GT 10", "Fintan 737B", "ATO (tannin)", "MeSH ID: D013634"], "SMILES": "", "physical_data": {"Molecular Weight": "", "Molecular Formula": "Unspecified", "Melting Point": "200 \u00b0C"}}