{"cas_no": "14024-18-1", "cn_name": "\u4e09\u4e59\u9170\u4e19\u916e\u94c1", "en_name": ["Iron(III) acetylacetonate", "Iron, tris(2,4-pentanedionato-\u03baO2,\u03baO4)-, (OC-6-11)-", "Iron, tris(2,4-pentanedionato)-", "Iron, tris(2,4-pentanedionato-O,O\u2032)-, (OC-6-11)-", "Iron, tris(2,4-pentanedionato-\u03baO,\u03baO\u2032)-, (OC-6-11)-", "(OC-6-11)-Tris(2,4-pentanedionato-\u03baO2,\u03baO4)iron", "Ferric acetylacetonate", "Iron(III) acetylacetonate", "Ferric tris(acetylacetonate)", "Iron tris(acetylacetonate)", "Tris(acetylacetonato)iron", "Iron acetylacetonate", "Iron triacetylacetonate", "Tris(2,4-pentanedionato)iron", "Iron tris(acetoacetonate)", "Tris(acetylacetone)iron", "(Acetylacetonato)iron(III)", "Iron(3+) acetylacetonate", "Ferric tris(acetoacetonate)", "Iron tris(2,4-pentanedionate)", "Acetope Fe(II)", "Nacem Iron", "NSC 43622", "Iron(III) tris(2,4-pentanedionate)", "Nacem Ferric Iron", "Nacem Ferric", "Nasem Ferric Iron"], "SMILES": "CC1=O[Fe+3]23(O=C(C)[CH-]C(C)=O2)(O=C(C)[CH-]C(C)=O3)O=C(C)[CH-]1", "physical_data": {"Molecular Weight": "", "Molecular Formula": "C15H21FeO6", "Melting Point": "176-179 \u00b0C (decomp)", "Density": "1.360 g/cm\u00b3"}}