{"cas_no": "14028-44-5", "cn_name": "\u963f\u83ab\u6c99\u5e73", "en_name": ["Amoxapine", "Dibenz[b,f][1,4]oxazepine, 2-chloro-11-(1-piperazinyl)-", "2-Chloro-11-(1-piperazinyl)dibenz[b,f][1,4]oxazepine", "Amoxapine", "CL 67772", "Demolox", "Moxadil", "Amoxan", "Asendin", "Asendis", "2-Chloro-11-(piperazin-1-yl)dibenzo[b,f][1,4]oxazepine", "MeSH ID: D000657"], "SMILES": "ClC=1C=C2C(=NC=3C(OC2=CC1)=CC=CC3)N4CCNCC4", "physical_data": {"Molecular Weight": "313.78", "Molecular Formula": "C17H16ClN3O", "Melting Point": "175.5 \u00b0C"}}