{"cas_no": "14024-63-6", "cn_name": "\u4e59\u9170\u4e19\u916e\u950c", "en_name": ["Zinc acetylacetonate", "Zinc, bis(2,4-pentanedionato-\u03baO2,\u03baO4)-, (T-4)-", "Zinc, bis(2,4-pentanedionato)-", "Zinc, bis(2,4-pentanedionato-O,O\u2032)-, (T-4)-", "Zinc, bis(2,4-pentanedionato-\u03baO,\u03baO\u2032)-, (T-4)-", "(T-4)-Bis(2,4-pentanedionato-\u03baO2,\u03baO4)zinc", "Zinc acetylacetonate", "Zinc bis(acetylacetonate)", "Zinc bis(acetylacetone)", "Bis(2,4-pentanedionato)zinc", "Zinc acetoacetonate", "Bis(acetylacetonato)zinc", "Zinc acetylacetone chelate", "Zinc(II) acetylacetonate", "Zinc bis(2,4-pentanedionate)", "Zinc diacetoacetate", "Bis(pentanedionato)zinc", "Nacem Zinc", "NSC 18472", "Aldrich 48,099-1", "Tegokat 623", "X 1301", "Z 0002"], "SMILES": "CC1=O[Zn+2]2(O=C(C)[CH-]C(C)=O2)O=C(C)[CH-]1", "physical_data": {"Molecular Weight": "", "Molecular Formula": "C10H14O4Zn", "Melting Point": "127 \u00b0C"}}