{"cas_no": "14024-58-9", "cn_name": "\u4e59\u9170\u4e19\u916e\u9530", "en_name": ["Manganese(II) acetylacetonate", "Manganese, bis(2,4-pentanedionato-\u03baO2,\u03baO4)-", "Manganese, bis(2,4-pentanedionato)-", "Manganese, bis(2,4-pentanedionato-O,O\u2032)-", "Manganese, bis(2,4-pentanedionato-\u03baO,\u03baO\u2032)-", "Bis(2,4-pentanedionato-\u03baO2,\u03baO4)manganese", "Manganous acetylacetonate", "Manganese(II) acetylacetonate", "Manganese bis(acetylacetonate)", "Acetylacetone manganese(II)", "Bis(2,4-pentanedionato)manganese", "Bis(acetylacetone)manganese", "Manganese(2+) acetylacetonate", "Bis(acetylacetonato)manganese(II)", "Manganese bis(2,4-pentanedionate)", "Manganese(II) bis(acetylacetonate)", "Bis(acetylacetonato)manganese", "Manganese diacetylacetonate", "NSC 177707", "NSC 4656", "NSC 52334", "Manganese (II) 2,4-pentanedionate"], "SMILES": "CC1=O[Mn+2]2(O=C(C)[CH-]C(C)=O2)O=C(C)[CH-]1", "physical_data": {"Molecular Weight": "", "Molecular Formula": "C10H14MnO4", "Melting Point": "187.6 \u00b0C (decomp)"}}