{"cas_no": "140235-34-3", "cn_name": "\u82f9\u679c\u9178-1-\u7532\u916f", "en_name": ["1-Methyl malate", "Butanedioic acid, 2-hydroxy-, 1-methyl ester", "Butanedioic acid, hydroxy-, 1-methyl ester", "1-Methyl malate", "Malic acid 1-methyl ester", "3-Hydroxy-4-methoxy-4-oxobutanoic acid", "2-Hydroxysuccinic Acid Methyl Ester"], "SMILES": "C(C(OC)=O)(CC(O)=O)O", "physical_data": {"Molecular Weight": "148.11", "Molecular Formula": "C5H8O5", "Boiling Point": "121-122 \u00b0C @ Press: 15 Torr", "Density": "1.1975 g/cm\u00b3 @ Temp: 26 \u00b0C"}}