{"cas_no": "14024-61-4", "cn_name": "\u4e8c(\u4e59\u9170\u4e19\u916e)\u94af(II)", "en_name": ["Palladium acetylacetonate", "Palladium, bis(2,4-pentanedionato-\u03baO2,\u03baO4)-, (SP-4-1)-", "Palladium, bis(2,4-pentanedionato)-", "Palladium, bis(2,4-pentanedionato-O,O\u2032)-, (SP-4-1)-", "Palladium, bis(2,4-pentanedionato-\u03baO,\u03baO\u2032)-, (SP-4-1)-", "(SP-4-1)-Bis(2,4-pentanedionato-\u03baO2,\u03baO4)palladium", "Palladium bis(acetylacetonate)", "Bis(2,4-pentanedionato)palladium", "Palladium(II) acetylacetonate", "Palladium bis(acetoacetonate)", "Bis(acetylacetonato)palladium", "Palladium bis(2,4-pentanedionate)", "Bis(acetylacetonato)palladium(II)", "Palladium acetylacetonate", "Bis(2,4-pentanedionato-\u03baO,\u03baO\u2032)palladium", "NSC 187660", "Pd (II) diacetylacetonate"], "SMILES": "CC1=O[Pd+2]2(O=C(C)[CH-]C(C)=O2)O=C(C)[CH-]1", "physical_data": {"Molecular Weight": "", "Molecular Formula": "C10H14O4Pd", "Melting Point": "205-210 \u00b0C (decomp)"}}