{"cas_no": "1403-66-3", "cn_name": "\u5e86\u5927\u9709\u7d20", "en_name": ["Gentamicin", "Gentamicin", "Gentamycin", "Gentavet", "Gentacycol", "Gentalline", "Oksitselanim", "Lyramycin", "Septigen", "Centicin", "Gentamycins"], "SMILES": "", "physical_data": {"Molecular Weight": "", "Molecular Formula": "Unspecified", "Melting Point": "102-108 \u00b0C"}}