{"cas_no": "14035-96-2", "cn_name": "\u4e19\u57fa\u4e19\u4e8c\u9178\u4e8c\u7532\u916f", "en_name": ["1,3-Dimethyl 2-propylpropanedioate", "Propanedioic acid, 2-propyl-, 1,3-dimethyl ester", "Malonic acid, propyl-, dimethyl ester", "Propanedioic acid, propyl-, dimethyl ester", "1,3-Dimethyl 2-propylpropanedioate", "Dimethyl propylmalonate", "Methyl propylmalonate", "Dimethyl 2-propylmalonate", "2-Propylmalonic acid dimethyl ester"], "SMILES": "C(C(OC)=O)(C(OC)=O)CCC", "physical_data": {"Molecular Weight": "174.19", "Molecular Formula": "C8H14O4", "Boiling Point": "203 \u00b0C @ Press: 756 Torr", "Density": "1.0398 g/cm\u00b3 @ Temp: 20 \u00b0C"}}