{"cas_no": "14036-06-7", "cn_name": "\u4e59\u9178\u4e8c\u4e59\u6c27\u57fa\u7532\u916f", "en_name": ["Methanol, 1,1-diethoxy-, 1-acetate", "Methanol, 1,1-diethoxy-, 1-acetate", "Acetic acid, anhydride with diethyl orthoformate", "Methanol, diethoxy-, acetate", "Orthoformic acid, diethyl ester, anhydride with acetic acid", "Diethoxymethyl acetate", "NSC 158267"], "SMILES": "C(OC(C)=O)(OCC)OCC", "physical_data": {"Molecular Weight": "162.18", "Molecular Formula": "C7H14O4", "Boiling Point": "170-172 \u00b0C @ Press: 743 Torr"}}