{"cas_no": "1403-36-7", "cn_name": "\u6bdb\u58f3\u83cc\u7d20", "en_name": ["Chetomin", "3,11a-Epidithio-11aH-pyrazino[1\u2032,2\u2032:1,5]pyrrolo[2,3-b]indole-1,4-dione, 2,3,5a,6,10b,11-hexahydro-3-(hydroxymethyl)-10b-[(1S,4S)-3-[[4-(hydroxymethyl)-5,7-dimethyl-6,8-dioxo-2,3-dithia-5,7-diazabicyclo[2.2.2]oct-1-yl]methyl]-1H-indol-1-yl]-2-methyl-, (3S,5aR,10bS,11aS)-", "Chaetomin", "3,11a-Epidithio-11aH-pyrazino[1\u2032,2\u2032:1,5]pyrrolo[2,3-b]indole, chaetomin deriv.", "2,3-Dithia-5,7-diazabicyclo[2.2.2]octane, chaetomin deriv.", "(3S,5aR,10bS,11aS)-2,3,5a,6,10b,11-Hexahydro-3-(hydroxymethyl)-10b-[(1S,4S)-3-[[4-(hydroxymethyl)-5,7-dimethyl-6,8-dioxo-2,3-dithia-5,7-diazabicyclo[2.2.2]oct-1-yl]methyl]-1H-indol-1-yl]-2-methyl-3,11a-epidithio-11aH-pyrazino[1\u2032,2\u2032:1,5]pyrrolo[2,3-b]indole-1,4-dione", "Chetomin", "Stereoisomer of 2,3,5a,6,10b,11-hexahydro-3-(hydroxymethyl)-10b-[3-[[4-(hydroxymethyl)-5,7-dimethyl-6,8-dioxo-2,3-dithia-5,7-diazabicyclo[2.2.2]oct-1-yl]methyl]-1H-indol-1-yl]-2-methyl-3,11a-epidithio-11aH-pyrazino[1\u2032,2\u2032:1,5]pyrrolo[2,3-b]indole-1,4-dione", "NSC 289491"], "SMILES": "O=C1N2C3C(CC24C(=O)N(C)C1(CO)SS4)(C=5C(N3)=CC=CC5)N6C=7C(C(CC89C(=O)N(C)C(CO)(C(=O)N8C)SS9)=C6)=CC=CC7", "physical_data": {"Molecular Weight": "710.87", "Molecular Formula": "C31H30N6O6S4", "Melting Point": "215 \u00b0C"}}