{"cas_no": "14046-55-0", "cn_name": "3',4'-\u4e8c\u7532\u6c27\u57fa\u5f02\u82ef\u4e01\u916e", "en_name": ["1-(3,4-Dimethoxyphenyl)-2-methyl-1-propanone", "1-Propanone, 1-(3,4-dimethoxyphenyl)-2-methyl-", "Propiophenone, 3\u2032,4\u2032-dimethoxy-2-methyl-", "1-(3,4-Dimethoxyphenyl)-2-methyl-1-propanone", "3\u2032,4\u2032-Dimethoxyisobutyrophenone", "2-Methyl-1-(3,4-dimethoxyphenyl)-1-propanone", "3,4-Dimethoxyphenyl isopropyl ketone", "NSC 63844", "1-(3,4-Dimethoxyphenyl)-2-methylpropanone"], "SMILES": "C(C(C)C)(=O)C1=CC(OC)=C(OC)C=C1", "physical_data": {"Molecular Weight": "208.25", "Molecular Formula": "C12H16O3", "Boiling Point": "117-126 \u00b0C @ Press: 0.1-0.7 Torr"}}