{"cas_no": "1404-19-9", "cn_name": "\u5be1\u9709\u7d20", "en_name": ["Oligomycin", "Oligomycin"], "SMILES": "", "physical_data": {"Molecular Weight": "", "Molecular Formula": "Unspecified", "Melting Point": "135.8-136.3 \u00b0C", "Density": "1.143 g/cm\u00b3"}}