{"cas_no": "14047-53-1", "cn_name": "3-\u7f9f\u57fa\u5421\u5576-2-\u7532\u9187", "en_name": ["3-Hydroxy-2-pyridinemethanol", "2-Pyridinemethanol, 3-hydroxy-", "3-Hydroxy-2-pyridinemethanol", "3-Hydroxy-2-pyridylmethanol", "3-Hydroxy-2-(hydroxymethyl)pyridine", "2-Hydroxymethyl-3-hydroxypyridine", "2-(Hydroxymethyl)-3-pyridinol", "NSC 18473"], "SMILES": "C(O)C1=C(O)C=CC=N1", "physical_data": {"Molecular Weight": "125.13", "Molecular Formula": "C6H7NO2", "Melting Point": "132 \u00b0C"}}