{"cas_no": "14047-60-0", "cn_name": "\u58ec\u9178\u94a0", "en_name": ["Sodium nonanoate", "Nonanoic acid, sodium salt (1:1)", "Nonanoic acid, sodium salt", "Sodium nonanoate", "Sodium pelargonate", "Pelargonic acid sodium salt", "Monotrope 1250"], "SMILES": "C(CCCCC)CCC(O)=O.[Na]", "physical_data": {"Molecular Weight": "", "Molecular Formula": "C9H18O2.Na", "Melting Point": "240-244 \u00b0C"}}