{"cas_no": "1404-15-5", "cn_name": "\u8bfa\u62c9\u9709\u7d20", "en_name": ["Nogalamycin", "2,6-Epoxy-2H-naphthaceno[1,2-b]oxocin-14-carboxylic acid, 11-[(6-deoxy-3-C-methyl-2,3,4-tri-O-methyl-\u03b1-L-mannopyranosyl)oxy]-4-(dimethylamino)-3,4,5,6,9,11,12,13,14,16-decahydro-3,5,8,10,13-pentahydroxy-6,13-dimethyl-9,16-dioxo-, methyl ester, (2R,3S,4R,5R,6R,11S,13S,14R)-", "Nogalamycin", "2,6-Epoxy-2H-naphthaceno[1,2-b]oxocin-14-carboxylic acid, 11-[(6-deoxy-3-C-methyl-2,3,4-tri-O-methyl-\u03b1-L-mannopyranosyl)oxy]-4-(dimethylamino)-3,4,5,6,9,11,12,13,14,16-decahydro-3,5,8,10,13-pentahydroxy-6,13-dimethyl-9,16-dioxo-, methyl ester, [2R-(2\u03b1,3\u03b2,4\u03b1,5\u03b2,6\u03b1,11\u03b2,13\u03b1,14\u03b1)]-", "NSC 70845", "U 15167", "Antibiotic 205t3"], "SMILES": "O=C1C=2C3=C(C4(C)OC(O3)C(O)C(N(C)C)C4O)C=C(O)C2C(=O)C=5C1=CC6=C(C5O)C(OC7C(OC)C(OC)(C)C(OC)C(C)O7)CC(C)(O)C6C(OC)=O", "physical_data": {"Molecular Weight": "787.80", "Molecular Formula": "C39H49NO16", "Melting Point": "195-196 \u00b0C (decomp)"}}