{"cas_no": "14047-27-9", "cn_name": "(S)-9-(2-\u7f9f\u4e19\u57fa)\u817a\u560c\u5464", "en_name": ["(\u03b1S)-6-Amino-\u03b1-methyl-9H-purine-9-ethanol", "9H-Purine-9-ethanol, 6-amino-\u03b1-methyl-, (\u03b1S)-", "9H-Purine-9-ethanol, 6-amino-\u03b1-methyl-, L-", "9H-Purine-9-ethanol, 6-amino-\u03b1-methyl-, (S)-", "(\u03b1S)-6-Amino-\u03b1-methyl-9H-purine-9-ethanol", "L-(+)-9-(2-Hydroxypropyl)adenine", "9-[(2S)-2-Hydroxypropyl]adenine", "(S)-9-(2-Hydroxypropyl)adenine"], "SMILES": "C(C(C)O)N1C=2C(N=C1)=C(N)N=CN2", "physical_data": {"Molecular Weight": "193.21", "Molecular Formula": "C8H11N5O", "Melting Point": "200-202 \u00b0C"}}