{"cas_no": "1404-04-2", "cn_name": "\u65b0\u9709\u7d20", "en_name": ["Neomycin", "Neomycin", "Myacyne", "Fradiomycin", "Bycomycin", "Jernadex", "Vonamycin Powder V", "Neomin", "Pimavecort", "Neomas", "MeSH ID: D009355"], "SMILES": "", "physical_data": {"Molecular Weight": "", "Molecular Formula": "Unspecified", "Melting Point": "250 \u00b0C (decomp)"}}