{"cas_no": "1404-59-7", "cn_name": "\u82a6\u4ed6\u9709\u7d20", "en_name": ["Rutamycin", "Spiro[2,26-dioxabicyclo[23.3.1]nonacosa-4,18,20-triene-27,2\u2032-[2H]pyran]-3,9,13-trione, 22-ethyl-3\u2032,4\u2032,5\u2032,6\u2032-tetrahydro-7,11,14,15-tetrahydroxy-6\u2032-[(2R)-2-hydroxypropyl]-5\u2032,6,8,10,12,14,16,29-octamethyl-, (1S,2\u2032R,4E,5\u2032S,6S,6\u2032S,7R,8S,10R,11R,12S,14R,15S,16R,18E,20E,22R,25S,29R)-", "Rutamycin", "Oligomycin A, 26-demethyl-", "Spiro[2,26-dioxabicyclo[23.3.1]nonacosane-27,2\u2032-[2H]pyran], oligomycin A deriv.", "(1S,2\u2032R,4E,5\u2032S,6S,6\u2032S,7R,8S,10R,11R,12S,14R,15S,16R,18E,20E,22R,25S,29R)-22-Ethyl-3\u2032,4\u2032,5\u2032,6\u2032-tetrahydro-7,11,14,15-tetrahydroxy-6\u2032-[(2R)-2-hydroxypropyl]-5\u2032,6,8,10,12,14,16,29-octamethylspiro[2,26-dioxabicyclo[23.3.1]nonacosa-4,18,20-triene-27,2\u2032-[2H]pyran]-3,9,13-trione", "A 272", "RR 32705", "Oligomycin D", "Rutamycin A"], "SMILES": "C(C(C)O)C1OC2(CC3C(C)C(O2)CCC(CC)C=CC=CCC(C)C(O)C(C)(O)C(=O)C(C)C(O)C(C)C(=O)C(C)C(O)C(C)C=CC(=O)O3)CCC1C", "physical_data": {"Molecular Weight": "777.04", "Molecular Formula": "C44H72O11", "Melting Point": "116-119 \u00b0C"}}