{"cas_no": "14040-11-0", "cn_name": "\u516d\u7fb0\u57fa\u94a8", "en_name": ["Tungsten hexacarbonyl", "Tungsten carbonyl (W(CO)6), (OC-6-11)-", "Tungsten carbonyl (W(CO)6)", "Tungsten hexacarbonyl", "Hexacarbonyltungsten", "Hexacarbonyl wolfram", "Tungsten carbonyl", "NSC 173699"], "SMILES": "[W](C#O)(C#O)(C#O)(C#O)(C#O)C#O", "physical_data": {"Molecular Weight": "", "Molecular Formula": "C6O6W", "Melting Point": "169-170 \u00b0C (decomp)", "Density": "2.65 g/cm\u00b3"}}