{"cas_no": "14047-29-1", "cn_name": "4-\u7fa7\u57fa\u82ef\u787c\u9178", "en_name": ["4-Carboxyphenylboronic acid", "Benzoic acid, 4-borono-", "Benzoic acid, p-borono-", "4-Boronobenzoic acid", "4-Carboxybenzeneboronic acid", "4-Carboxyphenylboronic acid", "p-Boronobenzoic acid", "p-Carboxyphenylboronic acid", "p-Carboxybenzeneboronic acid", "NSC 221170", "4-Hydroxycarbonylphenyl boronic acid", "4-(Dihydroxyboryl)benzoic acid", "4-Carboxylphenylboronic acid", "4-(Dihydroxyboronyl)benzoic acid", "4-(Dihydroxyboranyl)benzoic acid"], "SMILES": "B(O)(O)C1=CC=C(C(O)=O)C=C1", "physical_data": {"Molecular Weight": "165.94", "Molecular Formula": "C7H7BO4", "Melting Point": "219-220 \u00b0C"}}