{"cas_no": "140462-76-6", "cn_name": "\u76d0\u9178\u5965\u6d1b\u4ed6\u5b9a", "en_name": ["Olopatadine hydrochloride", "Dibenz[b,e]oxepin-2-acetic acid, 11-[3-(dimethylamino)propylidene]-6,11-dihydro-, hydrochloride (1:1), (11Z)-", "Dibenz[b,e]oxepin-2-acetic acid, 11-[3-(dimethylamino)propylidene]-6,11-dihydro-, hydrochloride, (Z)-", "Dibenz[b,e]oxepin-2-acetic acid, 11-[3-(dimethylamino)propylidene]-6,11-dihydro-, hydrochloride, (11Z)-", "KW 4679", "ALO 4943A", "Olopatadine hydrochloride", "Allelock", "(Z)-11-(3-Dimethylaminopropylidene)-6,11-dihydrodibenzo[b,e]oxepin-2-acetic acid hydrochloride", "Patanase", "Allerock", "Patadine", "Olopine", "Olopax", "Pazeo", "Opatanol", "Patanol", "Pataday"], "SMILES": "C(CCN(C)C)=C1C=2C(OCC=3C1=CC=CC3)=CC=C(CC(O)=O)C2.Cl", "physical_data": {"Molecular Weight": "", "Molecular Formula": "C21H23NO3.ClH", "Melting Point": "231-233 \u00b0C (decomp)"}}