{"cas_no": "14047-28-0", "cn_name": "(R)-(+)-9-(2-\u7f9f\u4e19\u57fa)\u817a\u560c\u5464", "en_name": ["(\u03b1R)-6-Amino-\u03b1-methyl-9H-purine-9-ethanol", "9H-Purine-9-ethanol, 6-amino-\u03b1-methyl-, (\u03b1R)-", "9H-Purine-9-ethanol, 6-amino-\u03b1-methyl-, D-", "9H-Purine-9-ethanol, 6-amino-\u03b1-methyl-, (R)-", "(\u03b1R)-6-Amino-\u03b1-methyl-9H-purine-9-ethanol", "D-(-)-9-(2-Hydroxypropyl)adenine", "9-[(2R)-2-Hydroxypropyl]adenine", "(R)-9-(2-Hydroxypropyl)adenine", "9-[2-(R)-(Hydroxy)propyl]adenine", "(R)-(+)-9-(2-Hydroxypropyl)adenine", "(2R)-1-(6-Aminopurin-9-yl)propan-2-ol", "(R)-(+)-9-(2-Hydroxypropyl)adenine"], "SMILES": "C(C(C)O)N1C=2C(N=C1)=C(N)N=CN2", "physical_data": {"Molecular Weight": "193.21", "Molecular Formula": "C8H11N5O", "Melting Point": "193 \u00b0C"}}