{"cas_no": "1405-41-0", "cn_name": "\u786b\u9178\u5e86\u5927\u9709\u7d20", "en_name": ["Gentamicin sulfate", "Gentamicin, sulfate (salt)", "Gentamycin, sulfate (salt)", "Gentamycin sulfate", "Gentamicin sulfate", "Urocydin", "Gentamicin sulphate", "Geramycin", "Genticyn", "Gentalin", "Garamycin", "Refobacin L", "Refobacin 10", "Refobacin", "Sulmycin", "Gentacin", "Gentocin", "Septopal", "Alcomicin", "Gentak", "Nichogencin", "Bristagen", "Gent-Ophtal", "Gentibioptal", "Garasol", "Duragentam", "Cidomycin", "Gentamicin C complex sulfate", "Genticin", "Ophtagram", "Gentrasul", "Pangram", "U-gencin", "Genoptic", "Gentogram", "Lugacin", "Gentalyn", "Dispagent", "Gentamina", "Gentacidin", "Garasent", "Genta Swift", "Intragen", "Eltacin"], "SMILES": "", "physical_data": {"Molecular Weight": "", "Molecular Formula": "H2O4S.xUnspecified", "Melting Point": "218-237 \u00b0C"}}