{"cas_no": "14059-92-8", "cn_name": "4-\u7f9f\u57fa-3,5-\u4e8c\u7532\u6c27\u57fa\u82ef\u4e59\u70f7", "en_name": ["4-Ethylsyringol", "Phenol, 4-ethyl-2,6-dimethoxy-", "4-Ethyl-2,6-dimethoxyphenol", "4-Hydroxy-3,5-dimethoxyethylbenzene", "2,6-Dimethoxy-4-ethylphenol", "4-Ethylpyrogallol dimethyl ether", "4-Ethylsyringol", "1-Ethyl-3,5-dimethoxy-4-hydroxybenzene", "4-Hydroxy-3,5-dimethoxyphenylethane", "4-Ethylsryingol"], "SMILES": "O(C)C1=C(O)C(OC)=CC(CC)=C1", "physical_data": {"Molecular Weight": "182.22", "Molecular Formula": "C10H14O3", "Boiling Point": "272-274 \u00b0C"}}