{"cas_no": "14055-02-8", "cn_name": "\u915e\u83c1\u954d", "en_name": ["Nickel phthalocyanine", "Nickel, [29H,31H-phthalocyaninato(2-)-\u03baN29,\u03baN30,\u03baN31,\u03baN32]-, (SP-4-1)-", "Nickel, [phthalocyaninato(2-)]-", "Nickel, [29H,31H-phthalocyaninato(2-)-N29,N30,N31,N32]-, (SP-4-1)-", "Phthalocyanine, nickel deriv.", "29H,31H-Phthalocyanine, nickel complex", "29H,31H-Phthalocyanine, nickel deriv.", "(SP-4-1)-[29H,31H-Phthalocyaninato(2-)-\u03baN29,\u03baN30,\u03baN31,\u03baN32]nickel", "Nickel phthalocyanine", "Nickel(II) phthalocyanine", "Nickel phthalocyanine blue", "[Phthalocyaninato(2-)]nickel", "Phthalocyaninatonickel(II)", "NSC 173214", "Nickel(2+) phthalocyaninate"], "SMILES": "[Ni+2]123[N-]4C=5C=6C(C4=NC7=[N]1C(=NC=8[N-]2C(=C9C8C=CC=C9)N=C%10[N]3=C(N5)C=%11C%10=CC=CC%11)C=%12C7=CC=CC%12)=CC=CC6", "physical_data": {"Molecular Weight": "", "Molecular Formula": "C32H16N8Ni", "Melting Point": "&gt;300 \u00b0C"}}