{"cas_no": "1405-86-3", "cn_name": "\u7518\u8349\u9178", "en_name": ["Glycyrrhizic acid", "\u03b1-D-Glucopyranosiduronic acid, (3\u03b2,20\u03b2)-20-carboxy-11-oxo-30-norolean-12-en-3-yl 2-O-\u03b2-D-glucopyranuronosyl-", "Glycyrrhizic acid", "30-Noroleanane, \u03b1-D-glucopyranosiduronic acid deriv.", "(3\u03b2,20\u03b2)-20-Carboxy-11-oxo-30-norolean-12-en-3-yl 2-O-\u03b2-D-glucopyranuronosyl-\u03b1-D-glucopyranosiduronic acid", "Glycyrrhizin", "Glycyrrhizinic acid", "Glycyrrhetinic acid glycoside", "Glycyron", "\u03b2-Glycyrrhizin", "18\u03b2-Glycyrrhizic acid", "Potenlini", "NSC 167409", "NSC 234419", "18\u03b2-Glycyrrhizinic acid", "Gancaotiansu"], "SMILES": "CC12C(C3(C)C(CC1)C(C)(C)C(OC4C(OC5OC(C(O)=O)C(O)C(O)C5O)C(O)C(O)C(C(O)=O)O4)CC3)C(=O)C=C6C2(C)CCC7(C)C6CC(C(O)=O)(C)CC7", "physical_data": {"Molecular Weight": "822.93", "Molecular Formula": "C42H62O16", "Melting Point": "220 \u00b0C (decomp)"}}