{"cas_no": "1405-97-6", "cn_name": "\u77ed\u6746\u83cc\u80bd", "en_name": ["Gramicidin", "Gramicidin", "Gramicidins", "Gramoderm", "MeSH ID: D006096"], "SMILES": "", "physical_data": {"Molecular Weight": "", "Molecular Formula": "Unspecified", "Melting Point": "228-230 \u00b0C"}}