{"cas_no": "14068-53-2", "cn_name": "2-\u6c28\u57fa-5-\u4e59\u57fa-1,3,4-\u567b\u4e8c\u5511", "en_name": ["2-Amino-5-ethyl-1,3,4-thiadiazole", "1,3,4-Thiadiazol-2-amine, 5-ethyl-", "1,3,4-Thiadiazole, 2-amino-5-ethyl-", "5-Ethyl-1,3,4-thiadiazol-2-amine", "2-Amino-5-ethyl-1,3,4-thiadiazole", "2-Ethyl-5-amino-1,3,4-thiadiazole", "5-Ethyl-2-amino-1,3,4-thiadiazole", "5-Amino-2-ethyl-1,3,4-thiadiazole", "NSC 75711", "(5-Ethyl-1,3,4-thiadiazol-2-yl)amine"], "SMILES": "C(C)C=1SC(N)=NN1", "physical_data": {"Molecular Weight": "129.18", "Molecular Formula": "C4H7N3S", "Melting Point": "188-193 \u00b0C"}}