{"cas_no": "14062-23-8", "cn_name": "\u8054\u82ef\u4e59\u9178\u4e59\u916f", "en_name": ["Ethyl [1,1\u2032-biphenyl]-4-acetate", "[1,1\u2032-Biphenyl]-4-acetic acid, ethyl ester", "4-Biphenylacetic acid, ethyl ester", "Acetic acid, (4-biphenylyl)-, ethyl ester", "Ethyl [1,1\u2032-biphenyl]-4-acetate", "Ethyl p-biphenylylacetate", "LM 001", "Ethyl 4-biphenylylacetate", "Diatec", "Felbinac ethyl ester"], "SMILES": "C(C(OCC)=O)C1=CC=C(C=C1)C2=CC=CC=C2", "physical_data": {"Molecular Weight": "240.30", "Molecular Formula": "C16H16O2", "Boiling Point": "145-154 \u00b0C @ Press: 0.2 Torr"}}