{"cas_no": "140681-55-6", "cn_name": "1-\u6c2f\u7532\u57fa-4-\u6c1f-1,4-\u4e8c\u6c2e\u6742\u53cc\u73af[2.2.2]\u8f9b\u70f7\u4e8c(\u56db\u6c1f\u787c\u9178)\u76d0", "en_name": ["Selectfluor", "1,4-Diazoniabicyclo[2.2.2]octane, 1-(chloromethyl)-4-fluoro-, tetrafluoroborate(1-) (1:2)", "1,4-Diazoniabicyclo[2.2.2]octane, 1-(chloromethyl)-4-fluoro-, bis[tetrafluoroborate(1-)]", "1,4-Diazabicyclo[2.2.2]octane, 1,4-diazoniabicyclo[2.2.2]octane deriv.", "1-Chloromethyl-4-fluoro-1,4-diazoniabicyclo[2.2.2]octane bis(tetrafluoroborate)", "Selectfluor", "1-Chloromethyl-4-fluoro-1,4-diazobicyclo[2.2.2]octane bis(tetrafluoroborate)", "1-(Chloromethyl)-4-fluoro-1,4-diazoniabicyclo[2.2.2]octane ditetrafluoroborate", "N-Fluoro-N\u2032-chloromethyltriethylenediamine bis(tetrafluoroborate)", "1-(Chloromethyl)-4-fluoro-1,4-diazabicyclo[2.2.2]octane-1,4-diium tetrafluoroborate"], "SMILES": "[B+3]([F-])([F-])([F-])[F-].C(Cl)[N+]12CC[N+](F)(CC1)CC2", "physical_data": {"Molecular Weight": "", "Molecular Formula": "C7H14ClFN2.2BF4", "Melting Point": "170 \u00b0C"}}