{"cas_no": "14062-24-9", "cn_name": "4-\u6c2f\u82ef\u57fa\u4e59\u9178\u4e59\u916f", "en_name": ["Benzeneacetic acid, 4-chloro-, ethyl ester", "Benzeneacetic acid, 4-chloro-, ethyl ester", "Acetic acid, (p-chlorophenyl)-, ethyl ester", "p-Chlorophenylacetic acid ethyl ester", "Ethyl (4-chlorophenyl)acetate", "Ethyl (p-chlorophenyl)acetate", "Ethyl 4-chlorobenzeneacetate", "NSC 368009", "(4-Chlorophenyl)acetic acid ethyl ester", "4-Chlorobenzeneacetic acid ethyl ester", "2-(4-Chlorophenyl)acetic acid ethyl ester", "Ethyl 2-(4-chlorophenyl)acetate"], "SMILES": "C(C(OCC)=O)C1=CC=C(Cl)C=C1", "physical_data": {"Molecular Weight": "198.65", "Molecular Formula": "C10H11ClO2", "Boiling Point": "134-135 \u00b0C @ Press: 15 Torr", "Melting Point": "32-34 \u00b0C"}}