{"cas_no": "14062-30-7", "cn_name": "2-(3-\u6eb4\u82ef\u57fa)\u4e59\u9178\u4e59\u916f", "en_name": ["Ethyl 3-(bromophenyl)acetate", "Benzeneacetic acid, 3-bromo-, ethyl ester", "Acetic acid, (m-bromophenyl)-, ethyl ester", "Ethyl (m-bromophenyl)acetate", "Ethyl 3-(bromophenyl)acetate", "3-Bromophenylacetic acid, ethyl ester", "Ethyl 2-(3-Bromophenyl)acetate", "Ethyl 3-bromobenzeneacetate"], "SMILES": "C(C(OCC)=O)C1=CC(Br)=CC=C1", "physical_data": {"Molecular Weight": "243.10", "Molecular Formula": "C10H11BrO2", "Boiling Point": "132-134 \u00b0C @ Press: 8 Torr", "Density": "1.3810 g/cm\u00b3 @ Temp: 20 \u00b0C"}}