{"cas_no": "14062-25-0", "cn_name": "\u5bf9\u6eb4\u82ef\u4e59\u9178\u4e59\u916f", "en_name": ["Ethyl 2-(4-bromophenyl)acetate", "Benzeneacetic acid, 4-bromo-, ethyl ester", "Acetic acid, (p-bromophenyl)-, ethyl ester", "Ethyl 4-bromophenyl acetate", "Ethyl 4-bromobenzeneacetate", "Ethyl (p-bromophenyl)acetate", "Ethyl 2-(4-bromophenyl)acetate", "(4-Bromophenyl)acetic acid ethyl ester"], "SMILES": "C(C(OCC)=O)C1=CC=C(Br)C=C1", "physical_data": {"Molecular Weight": "243.10", "Molecular Formula": "C10H11BrO2", "Boiling Point": "142-144 \u00b0C @ Press: 12-14 Torr", "Melting Point": "30 \u00b0C"}}