{"cas_no": "14062-18-1", "cn_name": "\u5bf9\u7532\u6c27\u57fa\u82ef\u4e59\u9178\u4e59\u916f", "en_name": ["Benzeneacetic acid, 4-methoxy-, ethyl ester", "Benzeneacetic acid, 4-methoxy-, ethyl ester", "Acetic acid, (p-methoxyphenyl)-, ethyl ester", "Ethyl p-methoxyphenylacetate", "p-Methoxyphenylacetic acid ethyl ester", "Ethyl 2-(p-anisyl)acetate", "Ethyl (4-methoxyphenyl)acetate", "Ethyl 4-methoxybenzeneacetate", "Ethyl 2-(4-methoxyphenyl)acetate", "2-(p-Methoxyphenyl)acetic acid ethyl ester", "NSC 24760", "(4-Methoxyphenyl)acetic acid ethyl ester"], "SMILES": "C(C(OCC)=O)C1=CC=C(OC)C=C1", "physical_data": {"Molecular Weight": "194.23", "Molecular Formula": "C11H14O3", "Boiling Point": "138-140 \u00b0C", "Melting Point": "85 \u00b0C"}}