{"cas_no": "14062-19-2", "cn_name": "4-\u7532\u57fa\u82ef\u57fa\u4e59\u9178\u4e59\u916f", "en_name": ["Benzeneacetic acid, 4-methyl-, ethyl ester", "Benzeneacetic acid, 4-methyl-, ethyl ester", "Acetic acid, p-tolyl-, ethyl ester", "Ethyl p-tolylacetate", "p-Tolylacetic acid ethyl ester", "Ethyl (4-methylphenyl)acetate", "Ethyl 4-methylbenzeneacetate", "Ethyl \u03b1-(p-tolyl)acetate", "NSC 46878", "Ethyl 2-(p-tolyl)acetate", "4-Methylbenzeneacetic acid ethyl ester"], "SMILES": "C(C(OCC)=O)C1=CC=C(C)C=C1", "physical_data": {"Molecular Weight": "178.23", "Molecular Formula": "C11H14O2", "Boiling Point": "72-74 \u00b0C @ Press: 0.9 Torr"}}