{"cas_no": "1406-18-4", "cn_name": "\u751f\u80b2\u915a", "en_name": ["Vitamin E", "Vitamin E", "Erevit forte", "Aquasol E", "Rontex 201", "Rocavit E", "Fujimix E 20N", "E-Mix 40", "Hydrovit E forte", "Irganox E 218", "Irganox E 217", "Juvela E", "Juvela Food 500", "Palmvitee", "MDE 6000", "E-Mix 70L", "Sunactive VE 202", "Sunactive VE 720", "Riken E Oil 100", "Riken E Oil 400", "Sursum", "Riken E Oil 805", "Riken E Oil 800", "Tocofer 400", "Riken E Oil 600", "T 50 vitamin E oil", "Riken E Oil 1000", "E Gems Liquid", "Novatol 5-67S", "Bio-E 400", "Envirose 100", "Vea lipogel", "Polfamix E", "Evitam 400", "E-Oil Gold 80S", "DeltaGold", "DeltaGold (tocopherol)", "E-Mix S 4\u03b1", "T 3251", "Vitamin E \u03b150A", "MeSH ID: D014810"], "SMILES": "", "physical_data": {"Molecular Weight": "", "Molecular Formula": "Unspecified", "Melting Point": "292 \u00b0C"}}