{"cas_no": "14062-34-1", "cn_name": "3-\u6c28\u57fa\u82ef\u9170\u80bc", "en_name": ["m-Aminobenzhydrazide", "Benzoic acid, 3-amino-, hydrazide", "Benzoic acid, m-amino-, hydrazide", "m-Aminobenzhydrazide", "m-Aminobenzoic hydrazide", "m-Aminobenzoic acid hydrazide", "3-Aminobenzoic acid hydrazide", "3-Aminobenzohydrazide", "3-Aminobenzhydrazide", "NSC 28878", "3-Aminobenzoylhydrazide", "INHd 23", "m-Aminobenzohydrazide"], "SMILES": "C(NN)(=O)C1=CC(N)=CC=C1", "physical_data": {"Molecular Weight": "151.17", "Molecular Formula": "C7H9N3O", "Melting Point": "78 \u00b0C"}}