{"cas_no": "14068-54-3", "cn_name": "5-\u4e01\u57fa-1,3,4-\u567b\u4e8c\u5511-2-\u80fa", "en_name": ["5-Butyl-1,3,4-thiadiazol-2-amine", "1,3,4-Thiadiazol-2-amine, 5-butyl-", "1,3,4-Thiadiazole, 2-amino-5-butyl-", "5-Butyl-1,3,4-thiadiazol-2-amine", "5-Butyl-2-amino-1,3,4-thiadiazole", "2-Amino-5-butyl-1,3,4-thiadiazole", "2-Amino-5-n-butyl-1,3,4-thiadiazole"], "SMILES": "C(CCC)C=1SC(N)=NN1", "physical_data": {"Molecular Weight": "157.24", "Molecular Formula": "C6H11N3S", "Melting Point": "195-196 \u00b0C"}}