{"cas_no": "14062-80-7", "cn_name": "N,N-DIMETHYL 4-CHLOROBENZAMIDE", "en_name": ["4-Chloro-N,N-dimethylbenzamide", "Benzamide, 4-chloro-N,N-dimethyl-", "Benzamide, p-chloro-N,N-dimethyl-", "4-Chloro-N,N-dimethylbenzamide", "p-Chloro-N,N-dimethylbenzamide", "N,N-Methyl-p-chlorobenzamide", "N,N-Dimethyl-4-chlorobenzamide", "N,N-Dimethyl-p-chlorobenzamide", "NSC 38420"], "SMILES": "C(N(C)C)(=O)C1=CC=C(Cl)C=C1", "physical_data": {"Molecular Weight": "183.63", "Molecular Formula": "C9H10ClNO", "Boiling Point": "128-130 \u00b0C @ Press: 1.2 Torr", "Melting Point": "57-58 \u00b0C"}}