{"cas_no": "14064-10-9", "cn_name": "\u6c2f\u4ee3\u4e19\u4e8c\u9178\u4e8c\u4e59\u916f", "en_name": ["1,3-Diethyl 2-chloropropanedioate", "Propanedioic acid, 2-chloro-, 1,3-diethyl ester", "Malonic acid, chloro-, diethyl ester", "Propanedioic acid, chloro-, diethyl ester", "1,3-Diethyl 2-chloropropanedioate", "Chloromalonic acid diethyl ester", "Diethyl chloromalonate", "Ethyl chloromalonate", "\u03b1-Chlorodiethyl malonate", "Diethyl monochloromalonate", "NSC 227952", "Chloropropanedioic acid ethyl ester", "Diethyl chloropropanedioate", "Diethyl 2-chloromalonate"], "SMILES": "C(C(OCC)=O)(C(OCC)=O)Cl", "physical_data": {"Molecular Weight": "194.61", "Molecular Formula": "C7H11ClO4", "Boiling Point": "222 \u00b0C"}}