{"cas_no": "14075-53-7", "cn_name": "\u6c1f\u787c\u9178\u94be", "en_name": ["Potassium tetrafluoroborate", "Borate(1-), tetrafluoro-, potassium (1:1)", "Borate(1-), tetrafluoro-, potassium", "Potassium fluoborate (KBF4)", "Potassium borofluoride", "Potassium fluoroborate", "Potassium tetrafluoroborate(1-)", "Potassium fluoroborate (KBF4)", "Potassium borofluoride (KBF4)", "Potassium tetrafluoroborate", "Boron potassium fluoride (KBF4)", "Potassium boride fluoride (KBF4)", "Potassium fluoborate", "Potassium tetrafluoroborate (KBF4)", "Spec 102", "Spec 104", "NSC 168351", "Spec 101"], "SMILES": "[B+3]([F-])([F-])([F-])[F-].[K+]", "physical_data": {"Molecular Weight": "", "Molecular Formula": "BF4.K", "Melting Point": "650-850 \u00b0C", "Density": "2.554-2.559 g/cm\u00b3 @ Temp: 15 \u00b0C"}}