{"cas_no": "14073-97-3", "cn_name": "\u5de6\u65cb\u8584\u8377\u916e", "en_name": ["(-)-Menthone", "Cyclohexanone, 5-methyl-2-(1-methylethyl)-, (2S,5R)-", "p-Menthan-3-one, (1R,4S)-(-)-", "Cyclohexanone, 5-methyl-2-(1-methylethyl)-, (2S-trans)-", "(2S,5R)-5-Methyl-2-(1-methylethyl)cyclohexanone", "(-)-Menthone", "L-Menthone", "trans-(-)-p-Menthan-3-one", "(1R,4S)-Menthone", "l-Menthone", "(1R,4S)-p-Menthan-3-one", "(1R,4S)-p-Menth-3-one", "(2S,5R)-2-Isopropyl-5-methylcyclohexanone", "(2S,5R)-(-)-Menthone", "(2S,5R)-2-Isopropyl-5-methylcyclohexan-1-one", "(2S,5R)-2-Isopropyl-5-methylcyclohexanone", "(-)-L-Menthone"], "SMILES": "C(C)(C)C1C(=O)CC(C)CC1", "physical_data": {"Molecular Weight": "154.25", "Molecular Formula": "C10H18O", "Boiling Point": "207 \u00b0C", "Melting Point": "-6 \u00b0C", "Density": "0.8955 g/cm\u00b3 @ Temp: 20 \u00b0C"}}