{"cas_no": "14070-48-5", "cn_name": "1-(3-\u4e59\u9170\u80fa\u57fa)\u82ef\u57fa-5-\u5def\u57fa\u56db\u6c2e\u5511", "en_name": ["N-[3-(2,5-Dihydro-5-thioxo-1H-tetrazol-1-yl)phenyl]acetamide", "Acetamide, N-[3-(2,5-dihydro-5-thioxo-1H-tetrazol-1-yl)phenyl]-", "Acetanilide, 3\u2032-(5-mercapto-1H-tetrazol-1-yl)-", "N-[3-(2,5-Dihydro-5-thioxo-1H-tetrazol-1-yl)phenyl]acetamide", "1-(3-Acetamidophenyl)-5-mercaptotetrazole", "1-(m-Acetamidophenyl)-5-mercaptotetrazole", "1-(3-Acetamidophenyl)-2-tetrazoline-5-thione", "FOG 0901"], "SMILES": "S=C1N(C2=CC(NC(C)=O)=CC=C2)N=NN1", "physical_data": {"Molecular Weight": "235.27", "Molecular Formula": "C9H9N5OS", "Melting Point": "201-202 \u00b0C"}}