{"cas_no": "14074-80-7", "cn_name": "\u56db\u82ef\u57fa\u535f\u5549\u950c", "en_name": ["Zinc tetraphenylporphyrin", "Zinc, [5,10,15,20-tetraphenyl-21H,23H-porphinato(2-)-\u03baN21,\u03baN22,\u03baN23,\u03baN24]-, (SP-4-1)-", "Zinc, [5,10,15,20-tetraphenylporphinato(2-)]-", "Zinc, [5,10,15,20-tetraphenyl-21H,23H-porphinato(2-)-N21,N22,N23,N24]-, (SP-4-1)-", "Zinc, [\u03b1,\u03b2,\u03b3,\u03b4-tetraphenylporphinato(2-)]-", "Porphine, \u03b1,\u03b2,\u03b3,\u03b4-tetraphenyl-, Zn deriv.", "21H,23H-Porphine, 5,10,15,20-tetraphenyl-, zinc complex", "(SP-4-1)-[5,10,15,20-Tetraphenyl-21H,23H-porphinato(2-)-\u03baN21,\u03baN22,\u03baN23,\u03baN24]zinc", "Tetraphenylporphine zinc chelate", "Zinc tetraphenylporphyrin", "Tetraphenylporphyrin zinc complex", "[5,10,15,20-Tetraphenylporphinato(2-)]zinc", "Zinc tetraphenylporphine", "Tetraphenylporphinatozinc(II)", "Zinc(II)tetraphenylporphyrin", "Tetraphenylporphyrinzinc(II)", "5,10,15,20-Tetraphenylporphinatozinc", "(5,10,15,20-Tetraphenylporphyrinato)zinc", "Tetraphenylporphinato zinc", "(meso-Tetraphenylporphinato)zinc", "(5,10,15,20-Tetraphenyl-21H,23H-porphinato)zinc", "meso-(Tetraphenylporphyrinato)zinc", "Zinc meso-tetraphenylporphyrin", "(Tetraphenylporphyrinato)zinc", "Zinc, 5,10,15,20-tetraphenyl-21H,23H-porphine", "(5,10,15,20-Tetraphenylporphyrinato)zinc(II)", "(5,10,15,20-Tetraphenylporphine)zinc", "ZnTPP", "5,10,15,20-Tetraphenyl-21H,23H-porphine zinc(II)", "5,10,15,20-Tetraphenyl-21H,23H-porphine zinc"], "SMILES": "[Zn+2]123[N-]4C5=C(C6=[N]1C(=C(C=7[N-]2C(C(=C8[N]3=C(C(=C4C=C5)C9=CC=CC=C9)C=C8)C%10=CC=CC=C%10)=CC7)C%11=CC=CC=C%11)C=C6)C%12=CC=CC=C%12", "physical_data": {"Molecular Weight": "", "Molecular Formula": "C44H28N4Zn", "Melting Point": "&gt;350 \u00b0C (decomp)"}}