{"cas_no": "14077-58-8", "cn_name": "\u4e59\u6c27\u57fa\u4e59\u9170\u6c2f", "en_name": ["2-Ethoxyacetyl chloride", "Acetyl chloride, 2-ethoxy-", "Acetyl chloride, ethoxy-", "2-Ethoxyacetyl chloride", "Ethoxyacetyl chloride", "\u03b1-Ethoxyacetyl chloride", "Ethoxyacetic acid chloride"], "SMILES": "C(C(Cl)=O)OCC", "physical_data": {"Molecular Weight": "122.55", "Molecular Formula": "C4H7ClO2", "Boiling Point": "125 \u00b0C"}}