{"cas_no": "1408282-26-7", "cn_name": "8-\u6c1f-1,3,4,5-\u56db\u6c22-2-[4-[(\u7532\u57fa\u6c28\u57fa)\u7532\u57fa]\u82ef\u57fa]-6H-\u5421\u54af\u5e76[4,3,2-EF][2]\u82ef\u5e76\u6c2e\u6742-6-\u916e", "en_name": ["8-Fluoro-1,3,4,5-tetrahydro-6H-pyrrolo[4,3,2-ef][2]benzazepin-6-one", "6H-Pyrrolo[4,3,2-ef][2]benzazepin-6-one, 8-fluoro-1,3,4,5-tetrahydro-", "8-Fluoro-1,3,4,5-tetrahydro-6H-pyrrolo[4,3,2-ef][2]benzazepin-6-one"], "SMILES": "O=C1C2=C3C(=CC(F)=C2)NC=C3CCN1", "physical_data": {"Molecular Weight": "204.20", "Molecular Formula": "C11H9FN2O", "Melting Point": "187 \u00b0C"}}