{"cas_no": "14088-96-1", "cn_name": "1-(3-\u6eb4\u82ef\u57fa)-2-\u54aa\u5511\u70f7\u916e", "en_name": ["1-(3-Bromophenyl)-2-imidazolidinone", "2-Imidazolidinone, 1-(3-bromophenyl)-", "2-Imidazolidinone, 1-(m-bromophenyl)-", "1-(3-Bromophenyl)-2-imidazolidinone"], "SMILES": "O=C1N(C2=CC(Br)=CC=C2)CCN1", "physical_data": {"Molecular Weight": "241.08", "Molecular Formula": "C9H9BrN2O", "Melting Point": "127-130 \u00b0C"}}