{"cas_no": "14088-98-3", "cn_name": "1-(3-\u6c2f\u82ef\u57fa)-2-\u54aa\u5511\u5549\u916e", "en_name": ["1-(3-Chlorophenyl)-2-imidazolidinone", "2-Imidazolidinone, 1-(3-chlorophenyl)-", "2-Imidazolidinone, 1-(m-chlorophenyl)-", "1-(3-Chlorophenyl)-2-imidazolidinone", "1-(m-Chlorophenyl)-2-imidazolidinone"], "SMILES": "O=C1N(C2=CC(Cl)=CC=C2)CCN1", "physical_data": {"Molecular Weight": "196.63", "Molecular Formula": "C9H9ClN2O", "Melting Point": "121 \u00b0C"}}