{"cas_no": "140898-91-5", "cn_name": "5-\u6c28\u57fa\u916e\u620a\u9178\u5df1\u916f\u76d0\u9178\u76d0", "en_name": ["Pentanoic acid, 5-amino-4-oxo-, hexyl ester, hydrochloride (1:1)", "Pentanoic acid, 5-amino-4-oxo-, hexyl ester, hydrochloride (1:1)", "Pentanoic acid, 5-amino-4-oxo-, hexyl ester, hydrochloride", "n-Hexyl 5-aminolevulinate hydrochloride", "Hexyl 5-aminolevulinate hydrochloride", "Hexaminolevulinate hydrochloride", "P 1206", "Hexvix", "SML 1637", "Cysview"], "SMILES": "C(CCC(CN)=O)(OCCCCCC)=O.Cl", "physical_data": {"Molecular Weight": "", "Molecular Formula": "C11H21NO3.ClH", "Melting Point": "145.0-147.0 \u00b0C"}}