{"cas_no": "14080-23-0", "cn_name": "2-\u6c30\u57fa\u5627\u5576", "en_name": ["2-Pyrimidinecarbonitrile", "2-Pyrimidinecarbonitrile", "2-Cyanopyrimidine"], "SMILES": "C(#N)C=1N=CC=CN1", "physical_data": {"Molecular Weight": "105.10", "Molecular Formula": "C5H3N3", "Melting Point": "24 \u00b0C"}}