{"cas_no": "1408075-90-0", "cn_name": "2-BOC-5-\u6c27\u6742-7-\u6c27\u4ee3-2-\u6c2e\u6742\u87ba[3.4]\u8f9b\u70f7", "en_name": ["1,1-Dimethylethyl 7-oxo-5-oxa-2-azaspiro[3.4]octane-2-carboxylate", "5-Oxa-2-azaspiro[3.4]octane-2-carboxylic acid, 7-oxo-, 1,1-dimethylethyl ester", "1,1-Dimethylethyl 7-oxo-5-oxa-2-azaspiro[3.4]octane-2-carboxylate", "2-Boc-5-oxa-7-oxo-2-azaspiro[3.4]octane"], "SMILES": "C(OC(C)(C)C)(=O)N1CC2(C1)OCC(=O)C2", "physical_data": {"Molecular Weight": "227.26", "Molecular Formula": "C11H17NO4", "Melting Point": "70.6-80.5 \u00b0C"}}