{"cas_no": "14099-81-1", "cn_name": "1,2,3,4-\u56db\u6c22\u5f02\u55b9\u5549 \u76d0\u9178\u76d0", "en_name": ["1,2,3,4-Tetrahydroisoquinoline hydrochloride", "Isoquinoline, 1,2,3,4-tetrahydro-, hydrochloride (1:1)", "Isoquinoline, 1,2,3,4-tetrahydro-, hydrochloride", "1,2,3,4-Tetrahydroisoquinoline hydrochloride"], "SMILES": "C=12C(=CC=CC1)CNCC2.Cl", "physical_data": {"Molecular Weight": "", "Molecular Formula": "C9H11N.ClH", "Melting Point": "195-196 \u00b0C"}}