{"cas_no": "14091-15-7", "cn_name": "\u5bf9\u6eb4\u82ef\u4e19\u6c28\u9178", "en_name": ["4-Bromophenylalanine", "Phenylalanine, 4-bromo-", "Alanine, 3-(p-bromophenyl)-, DL-", "DL-Phenylalanine, 4-bromo-", "4-Bromophenylalanine", "DL-4-Bromophenylalanine", "DL-p-Bromophenylalanine", "p-Bromo-DL-phenylalanine", "4-Bromo-DL-phenylalanine", "p-Bromophenylalanine", "NSC 12762", "2-Amino-3-(4-bromophenyl)propionic acid", "2-Amino-3-(4-bromophenyl)propanoic acid", "\u03b1-Amino-4-bromobenzenepropanoic acid"], "SMILES": "C(C(C(O)=O)N)C1=CC=C(Br)C=C1", "physical_data": {"Molecular Weight": "244.09", "Molecular Formula": "C9H10BrNO2", "Melting Point": "258 \u00b0C (decomp)"}}