{"cas_no": "14098-24-9", "cn_name": "\u82ef\u5e76-18-\u51a0-6-\u919a", "en_name": ["Benzo-18-crown-6", "1,4,7,10,13,16-Benzohexaoxacyclooctadecin, 2,3,5,6,8,9,11,12,14,15-decahydro-", "2,3,5,6,8,9,11,12,14,15-Decahydro-1,4,7,10,13,16-benzohexaoxacyclooctadecin", "2,3-Benzo-1,4,7,10,13,16-hexaoxacyclooctadeca-2-ene", "Benzo-18-crown-6", "2,3-Benzo-18-crown-6", "Monobenzo-18-crown-6", "Benzo18C6", "18-Benzo-6-crown ether", "2,5,8,11,14,17-Hexaoxabicyclo[16.4.0]docosa-1(22),18,20-triene"], "SMILES": "C=12C(=CC=CC1)OCCOCCOCCOCCOCCO2", "physical_data": {"Molecular Weight": "312.36", "Molecular Formula": "C16H24O6", "Melting Point": "43-44 \u00b0C"}}