{"cas_no": "14098-44-3", "cn_name": "\u82ef\u5e76-15-\u51a0\u919a-5", "en_name": ["Benzo-15-crown-5", "1,4,7,10,13-Benzopentaoxacyclopentadecin, 2,3,5,6,8,9,11,12-octahydro-", "2,3,5,6,8,9,11,12-Octahydro-1,4,7,10,13-benzopentaoxacyclopentadecin", "Benzo-15-crown-5", "Monobenzo-15-crown-5", "2,3-Benzo-15-crown-5", "2,3-Benzo-1,4,7,10,13-pentaoxacyclopentadecane", "Benzo15C5", "NSC 175877", "2,5,8,11,14-Pentaoxabicyclo[13.4.0]nonadeca-1(19),15,17-triene"], "SMILES": "C=12C(=CC=CC1)OCCOCCOCCOCCO2", "physical_data": {"Molecular Weight": "268.31", "Molecular Formula": "C14H20O5", "Melting Point": "78-80 \u00b0C", "Density": "1.230 g/cm\u00b3"}}