{"cas_no": "14091-11-3", "cn_name": "2-\u6c2f\u82ef\u4e19\u6c28\u9178", "en_name": ["2-Chlorophenylalanine", "Phenylalanine, 2-chloro-", "Alanine, 3-(o-chlorophenyl)-, DL-", "DL-Phenylalanine, 2-chloro-", "2-Chlorophenylalanine", "o-Chloro-DL-phenylalanine", "DL-2-Chlorophenylalanine", "NSC 154946", "NSC 233876", "NSC 28185", "2-Amino-3-(2-chlorophenyl)propanoic acid", "2-Chloro-DL-PhenyLalanine", "2-Amino-3-(2-chlorophenyl)propanoicacid"], "SMILES": "C(C(C(O)=O)N)C1=C(Cl)C=CC=C1", "physical_data": {"Molecular Weight": "199.63", "Molecular Formula": "C9H10ClNO2", "Melting Point": "216-219 \u00b0C"}}