{"cas_no": "141-93-5", "cn_name": "1,3-\u4e8c\u4e59\u57fa\u82ef", "en_name": ["1,3-Diethylbenzene", "Benzene, 1,3-diethyl-", "Benzene, m-diethyl-", "1,3-Diethylbenzene", "m-Diethylbenzene", "m-Ethylethylbenzene", "m-Diethylbenzene", "NSC 62102", "1-Ethyl-3-ethylbenzene"], "SMILES": "C(C)C1=CC(CC)=CC=C1", "physical_data": {"Molecular Weight": "134.22", "Molecular Formula": "C10H14", "Boiling Point": "181.1 \u00b0C", "Melting Point": "-83.9 \u00b0C", "Density": "0.8602 g/cm\u00b3 @ Temp: 20 \u00b0C"}}