{"cas_no": "141-32-2", "cn_name": "\u4e19\u70ef\u9178\u6b63\u4e01\u916f", "en_name": ["Butyl acrylate", "2-Propenoic acid, butyl ester", "Acrylic acid butyl ester", "Acrylic acid n-butyl ester", "n-Butyl acrylate", "Butyl 2-propenoate", "Butyl acrylate", "NSC 5163", "BA 100PPM", "DL 325", "Butyl propenoate", "EM 24", "YDCN 330-607P", "Z 1104", "G 23168A", "B 100036"], "SMILES": "C(OCCCC)(C=C)=O", "physical_data": {"Molecular Weight": "128.17", "Molecular Formula": "C7H12O2", "Boiling Point": "145-149 \u00b0C", "Melting Point": "-64.6 \u00b0C", "Density": "0.8898 g/cm\u00b3 @ Temp: 20 \u00b0C"}}