{"cas_no": "141-12-8", "cn_name": "(Z)-3,7-\u4e8c\u7532\u57fa-2,6-\u8f9b\u4e8c\u70ef-1-\u9187\u4e59\u9178\u916f", "en_name": ["Neryl acetate", "2,6-Octadien-1-ol, 3,7-dimethyl-, 1-acetate, (2Z)-", "2,6-Octadien-1-ol, 3,7-dimethyl-, acetate, (Z)-", "Nerol acetate", "2,6-Octadien-1-ol, 3,7-dimethyl-, acetate, (2Z)-", "2,6-Octadien-1-ol, 3,7-dimethyl-, formate, cis-", "Neryl acetate", "cis-Geranyl acetate", "cis-1-Acetoxy-3,7-dimethyl-2,6-octadiene", "Z-3,7-Dimethyl-2,6-octadien-1-ol acetate", "Acetic acid neryl ester"], "SMILES": "C(CCC=C(C)C)(=CCOC(C)=O)C", "physical_data": {"Molecular Weight": "196.29", "Molecular Formula": "C12H20O2", "Boiling Point": "235 \u00b0C", "Melting Point": "&lt;25 \u00b0C", "Density": "0.903 g/cm\u00b3 @ Temp: 15 \u00b0C"}}