{"cas_no": "141-43-5", "cn_name": "\u4e59\u9187\u80fa", "en_name": ["Ethanolamine", "Ethanol, 2-amino-", "2-Aminoethanol", "\u03b2-Aminoethyl alcohol", "Ethanolamine", "Ethylolamine", "Glycinol", "2-Hydroxyethylamine", "\u03b2-Hydroxyethylamine", "\u03b2-Ethanolamine", "Monoethanolamine", "MEA", "Olamine", "Aminoethanol", "2-Amino-1-ethanol", "2-Ethanolamine", "\u03b2-Aminoethanol", "Colamine", "2-Hydroxyethanamine", "1-Amino-2-hydroxyethane", "MEA (alcohol)", "2-Aminoethyl alcohol", "ETA", "Envision Conditioner PDD 9020", "Seramine", "Mealan", "MEA-LCI", "MEA 90", "R 100 (amine)", "R 100", "Kolamin", "R 8747", "HT 95", "2-Aminoethan-1-ol", "MeSH ID: D019856"], "SMILES": "C(CO)N", "physical_data": {"Molecular Weight": "61.08", "Molecular Formula": "C2H7NO", "Boiling Point": "170.8 \u00b0C @ Press: 760 Torr", "Melting Point": "10.3 \u00b0C", "Density": "1.0180 g/cm\u00b3 @ Temp: 20 \u00b0C"}}