{"cas_no": "141-66-2", "cn_name": "\u500d\u786b\u78f7", "en_name": ["Dicrotophos", "Phosphoric acid, (1E)-3-(dimethylamino)-1-methyl-3-oxo-1-propen-1-yl dimethyl ester", "Phosphoric acid, dimethyl ester, ester with 3-hydroxy-N,N-dimethylcrotonamide, (E)-", "Phosphoric acid, 3-(dimethylamino)-1-methyl-3-oxo-1-propenyl dimethyl ester, (E)-", "Phosphoric acid, (1E)-3-(dimethylamino)-1-methyl-3-oxo-1-propenyl dimethyl ester", "SD 3562", "ENT 24,482", "Bidrin", "3-(Dimethoxyphosphinyloxy)-N,N-dimethyl-cis-crotonamide", "3-Hydroxy-N,N-dimethyl-cis-crotonamide dimethyl phosphate", "Dicrotophos", "Karbicron", "Carbicron", "Carbomicron", "trans-Bidrin", "Dimethyl 2-dimethylcarbamoyl-1-methylvinyl phosphate", "Dimethyl 1-dimethylcarbamoyl-1-propen-2-yl phosphate", "C 709", "Ektafos", "Oleobidrin", "Bidrin 8"], "SMILES": "O(P(OC)(OC)=O)C(=CC(N(C)C)=O)C", "physical_data": {"Molecular Weight": "237.19", "Molecular Formula": "C8H16NO5P", "Boiling Point": "130 \u00b0C @ Press: 0.1 Torr", "Melting Point": "&lt;25 \u00b0C", "Density": "1.216 g/cm\u00b3 @ Temp: 15 \u00b0C"}}