{"cas_no": "141-97-9", "cn_name": "\u4e59\u9170\u4e59\u9178\u4e59\u916f", "en_name": ["Ethyl acetoacetate", "Butanoic acid, 3-oxo-, ethyl ester", "Acetoacetic acid, ethyl ester", "EAA", "Ethyl acetoacetate", "Ethyl 3-oxobutanoate", "Ethyl 3-oxobutyrate", "Ethyl acetylacetate", "1-Ethoxybutane-1,3-dione", "Ethyl acetonecarboxylate", "3-Oxobutanoic acid ethyl ester", "Ethyl 3-ketobutyrate", "NSC 37390", "NSC 8657", "Ethyl 2-acetoacetate", "3-Oxobutyric acid ethyl ester", "Acetylacetic acid ethyl ester", "Ethyl 2-methyl-3-oxopropionate"], "SMILES": "C(C(OCC)=O)C(C)=O", "physical_data": {"Molecular Weight": "130.14", "Molecular Formula": "C6H10O3", "Boiling Point": "180.8 \u00b0C @ Press: 760 Torr", "Melting Point": "-45 \u00b0C", "Density": "1.0282 g/cm\u00b3 @ Temp: 20 \u00b0C"}}