{"cas_no": "141-84-4", "cn_name": "\u7f57\u4e39\u5b81", "en_name": ["Rhodanine", "4-Thiazolidinone, 2-thioxo-", "Rhodanine", "2-Thioxo-4-thiazolidinone", "4-Oxo-2-thionothiazolidine", "2-Thio-4-ketothiazolidine", "Rhodaninic acid", "4-Thiazolidinone-2-thione", "4-Oxo-1,3-thiazolidine-2-thione", "4-Oxo-2-thioxothiazolidine", "4-Oxo-2-thiazolidinethione", "NSC 1899", "2-Thioxo-1,3-thiazolidin-4-one", "2-Thio-4-thiazolinone", "2-Mercaptothiazol-4(5H)-one", "AMT-ZP", "2-Sulfanylidene-1,3-thiazolidin-4-one", "MeSH ID: D012236"], "SMILES": "O=C1NC(=S)SC1", "physical_data": {"Molecular Weight": "133.19", "Molecular Formula": "C3H3NOS2", "Melting Point": "170 \u00b0C", "Density": "0.868 g/cm\u00b3"}}