{"cas_no": "141-23-1", "cn_name": "12-\u7f9f\u57fa\u786c\u8102\u9178\u7532\u916f", "en_name": ["Methyl 12-hydroxystearate", "Octadecanoic acid, 12-hydroxy-, methyl ester", "Methyl 12-hydroxystearate", "Kemester 1288", "Methyl 12-hydroxyoctadecanoate", "12-Hydroxyoctadecanoic acid methyl ester", "Methyl DL-12-hydroxyoctadecanoate", "NSC 2392", "CW-FA Methyl Ester", "Itohwax E 210", "Paracin 1", "Cenwax ME"], "SMILES": "C(CCCCCCCCCCC(OC)=O)(CCCCCC)O", "physical_data": {"Molecular Weight": "314.50", "Molecular Formula": "C19H38O3", "Melting Point": "48 \u00b0C"}}