{"cas_no": "141-06-0", "cn_name": "\u620a\u9178\u4e19\u916f", "en_name": ["Propyl pentanoate", "Pentanoic acid, propyl ester", "Valeric acid, propyl ester", "n-Propyl n-valerate", "Propyl pentanoate", "Propyl valerate", "NSC 57638"], "SMILES": "C(CCCC)(OCCC)=O", "physical_data": {"Molecular Weight": "144.21", "Molecular Formula": "C8H16O2", "Boiling Point": "167.5 \u00b0C", "Melting Point": "-70.7 \u00b0C"}}