{"cas_no": "141-63-9", "cn_name": "\u5341\u4e8c\u7532\u57fa\u4e94\u7845\u6c27\u70f7", "en_name": ["Dodecamethylpentasiloxane", "Pentasiloxane, 1,1,1,3,3,5,5,7,7,9,9,9-dodecamethyl-", "Pentasiloxane, dodecamethyl-", "1,1,1,3,3,5,5,7,7,9,9,9-Dodecamethylpentasiloxane", "Dodecamethylpentasiloxane", "DC 200 Fluid 2", "KF 96L2CS", "PSF 2CST", "PSF 2Cst Pure Silicone Fluid", "MD 3M"], "SMILES": "O([Si](O[Si](O[Si](C)(C)C)(C)C)(C)C)[Si](O[Si](C)(C)C)(C)C", "physical_data": {"Molecular Weight": "384.84", "Molecular Formula": "C12H36O4Si5", "Boiling Point": "232 \u00b0C", "Melting Point": "-80 \u00b0C", "Density": "0.876 g/cm\u00b3"}}