{"cas_no": "141-01-5", "cn_name": "\u5bcc\u9a6c\u9178\u4e9a\u94c1", "en_name": ["Ferrous fumarate", "2-Butenedioic acid (2E)-, iron(2+) salt (1:1)", "Fumaric acid, iron(2+) salt (1:1)", "2-Butenedioic acid (E)-, iron(2+) salt (1:1)", "Iron fumarate (Fe(O4C4H2))", "Cpiron", "Fersamal", "Firon", "Fumar F", "Fumiron", "Hemoton", "Toleron", "Iron fumarate (Fe(C4H2O4))", "Ferrous fumarate", "Erco-Fer", "Feostat", "Feroton", "Ferrofume", "Ferronat", "Ferrotemp", "Ferrone", "Fumafer", "Ircon", "One-Iron", "Palafer", "Tolferain", "Tolifer", "Ercoferro", "Iron fumarate", "Orgasal", "Ferrum", "Meterfer", "Galfer", "Fresamal", "Heferol", "Fepstat", "Iron(II) fumarate", "Fumacure", "Oral-Fe1"], "SMILES": "C(=CC(O)=O)C(O)=O.[Fe]", "physical_data": {"Molecular Weight": "", "Molecular Formula": "C4H4O4.Fe", "Melting Point": "&gt;280 \u00b0C", "Density": "2.435 g/cm\u00b3 @ Temp: 25 \u00b0C"}}