{"cas_no": "141-03-7", "cn_name": "\u4e01\u4e8c\u9178\u4e8c\u4e01\u916f", "en_name": ["Dibutyl succinate", "Butanedioic acid, 1,4-dibutyl ester", "Succinic acid, dibutyl ester", "Butanedioic acid, dibutyl ester", "Succinic acid di-n-butyl ester", "Tabatrex", "Di-n-butyl succinate", "Tabutrex", "Dibutyl succinate", "NSC 1502"], "SMILES": "C(CCC(OCCCC)=O)(OCCCC)=O", "physical_data": {"Molecular Weight": "230.30", "Molecular Formula": "C12H22O4", "Boiling Point": "274.5 \u00b0C", "Melting Point": "-29.0 \u00b0C", "Density": "0.9768 g/cm\u00b3 @ Temp: 20 \u00b0C"}}