{"cas_no": "141-62-8", "cn_name": "\u5341\u7532\u57fa\u56db\u7845\u6c27\u70f7", "en_name": ["Decamethyltetrasiloxane", "Tetrasiloxane, 1,1,1,3,3,5,5,7,7,7-decamethyl-", "Tetrasiloxane, decamethyl-", "1,1,1,3,3,5,5,7,7,7-Decamethyltetrasiloxane", "Decamethyltetrasiloxane", "KF 96L1.5", "DC 200 Fluid 1.5", "1,1,3,3-Tetramethyl-1,3-bis(trimethylsiloxy)disiloxane", "SH 200-1.5CS", "KF 96L1.5CS", "MD 2M (siloxane derivative)", "Xiameter PMX 200 Silicone Fluid 1.5CS", "Xiameter PMX 200-1.5CS", "OS 30 Fluid", "OS 30", "Dow Corning OS 30", "[Dimethyl(trimethylsilyloxy)silyl]oxy-dimethyl-trimethylsilyloxysilane", "SF 1.5"], "SMILES": "O([Si](O[Si](C)(C)C)(C)C)[Si](O[Si](C)(C)C)(C)C", "physical_data": {"Molecular Weight": "310.69", "Molecular Formula": "C10H30O3Si4", "Boiling Point": "194 \u00b0C", "Melting Point": "-76 \u00b0C", "Density": "0.853 g/cm\u00b3"}}