{"cas_no": "141-94-6", "cn_name": "\u6d77\u514b\u66ff\u5576", "en_name": ["Hexetidine", "5-Pyrimidinamine, 1,3-bis(2-ethylhexyl)hexahydro-5-methyl-", "Pyrimidine, 5-amino-1,3-bis(2-ethylhexyl)hexahydro-5-methyl-", "1,3-Bis(2-ethylhexyl)hexahydro-5-methyl-5-pyrimidinamine", "5-Amino-1,3-bis(2-ethylhexyl)hexahydro-5-methylpyrimidine", "5-Amino-1,3-bis(\u03b2-ethylhexyl)-5-methylhexahydropyrimidine", "5-Amino-1,3-bis(2-ethylhexyl)-5-methylhexahydropyrimidine", "5-Amino-1,3-di(\u03b2-ethylhexyl)hexahydro-5-methylpyrimidine", "1,3-Bis(\u03b2-ethylhexyl)-5-methyl-5-aminohexahydropyrimidine", "Hexetidine", "Sterilate", "Sterisil", "Triscol", "Hextril", "Oraldene", "Hexoral", "Glypesin", "Triocil", "Steri/Sol", "Elsix", "Hexigel", "Hexocil", "NSC 17764", "Hexopyrimidine", "MeSH ID: D006590"], "SMILES": "C(C(CCCC)CC)N1CN(CC(CCCC)CC)CC(C)(N)C1", "physical_data": {"Molecular Weight": "339.60", "Molecular Formula": "C21H45N3", "Boiling Point": "160 \u00b0C", "Melting Point": "&lt;25 \u00b0C", "Density": "0.8889 g/cm\u00b3 @ Temp: 20 \u00b0C"}}