{"cas_no": "141-14-0", "cn_name": "\u4e19\u9178\u9999\u8305\u916f", "en_name": ["Citronellyl propionate", "6-Octen-1-ol, 3,7-dimethyl-, 1-propanoate", "6-Octen-1-ol, 3,7-dimethyl-, propionate", "6-Octen-1-ol, 3,7-dimethyl-, propanoate", "Propionic acid, ester with citronellol", "Citronellyl propionate", "Citronellyl propanoate", "Citronellol propanoate", "Citronellol propionate"], "SMILES": "C(CCOC(CC)=O)(CCC=C(C)C)C", "physical_data": {"Molecular Weight": "212.33", "Molecular Formula": "C13H24O2", "Boiling Point": "120-124 \u00b0C @ Press: 14 Torr", "Density": "0.8950 g/cm\u00b3 @ Temp: 15 \u00b0C"}}