{"cas_no": "141-28-6", "cn_name": "\u5df1\u4e8c\u9178\u4e8c\u4e59\u916f", "en_name": ["Diethyl adipate", "Hexanedioic acid, 1,6-diethyl ester", "Adipic acid, diethyl ester", "Hexanedioic acid, diethyl ester", "Diethyl adipate", "Ethyl adipate", "Ethyl \u03b4-carboethoxyvalerate", "Diethyl hexanedioate", "NSC 19160", "NSC 3363", "Crodamol SE-LQ-(JP)", "1,6-Diethyl hexanedioate"], "SMILES": "C(CCCCC(OCC)=O)(OCC)=O", "physical_data": {"Molecular Weight": "202.25", "Molecular Formula": "C10H18O4", "Boiling Point": "245 \u00b0C", "Melting Point": "-19.8 \u00b0C", "Density": "1.0076 g/cm\u00b3 @ Temp: 20 \u00b0C"}}