{"cas_no": "141-92-4", "cn_name": "8,8-\u4e8c\u7532\u6c27\u57fa-2,6-\u4e8c\u7532\u57fa-2-\u8f9b\u9187", "en_name": ["Hydroxycitronellal dimethyl acetal", "2-Octanol, 8,8-dimethoxy-2,6-dimethyl-", "Octanal, 7-hydroxy-3,7-dimethyl-, dimethyl acetal", "8,8-Dimethoxy-2,6-dimethyl-2-octanol", "1,1-Dimethoxy-3,7-dimethyloctan-7-ol", "Hydroxycitronellal dimethyl acetal", "7-Hydroxy-3,7-dimethyloctanal, dimethyl acetal", "Laurine dimethyl acetal", "NSC 76412"], "SMILES": "C(C(OC)OC)C(CCCC(C)(C)O)C", "physical_data": {"Molecular Weight": "218.33", "Molecular Formula": "C12H26O3", "Boiling Point": "71 \u00b0C @ Press: 0.01 Torr", "Density": "0.938 g/cm\u00b3 @ Temp: 20 \u00b0C"}}