{"cas_no": "141-04-8", "cn_name": "\u5df1\u4e8c\u9178\u4e8c\u5f02\u4e01\u916f", "en_name": ["Diisobutyl adipate", "Hexanedioic acid, 1,6-bis(2-methylpropyl) ester", "Adipic acid, diisobutyl ester", "Hexanedioic acid, bis(2-methylpropyl) ester", "DIBA", "Diisobutyl adipate", "Ftaflex DIBA", "Isobutyl adipate", "Adipic acid bis(2-methylpropyl) ester", "Adipic acid di-iso-butyl ester", "Plasthall DIBA", "Vinycizer 40", "NSC 6343", "KAK-DIBA", "DI 4A", "Rhodisolv DIB", "Halltress DIBA", "Plasticizer 40"], "SMILES": "C(OCC(C)C)(CCCCC(OCC(C)C)=O)=O", "physical_data": {"Molecular Weight": "258.35", "Molecular Formula": "C14H26O4", "Boiling Point": "278-280 \u00b0C", "Melting Point": "-20 \u00b0C", "Density": "0.9534 g/cm\u00b3 @ Temp: 19 \u00b0C"}}