{"cas_no": "141-53-7", "cn_name": "\u7532\u9178\u94a0", "en_name": ["Sodium formate", "Formic acid, sodium salt (1:1)", "Sodium formate", "Formic acid, sodium salt", "NA-Amasil"], "SMILES": "C(O)=O.[Na]", "physical_data": {"Molecular Weight": "", "Molecular Formula": "CH2O2.Na", "Melting Point": "253 \u00b0C", "Density": "1.92 g/cm\u00b3 @ Temp: 20 \u00b0C"}}