{"cas_no": "141-10-6", "cn_name": "6,10-\u4e8c\u7532\u57fa-3\uff0c5\uff0c9-\u5341\u4e00\u4e09\u70ef-2-\u916e", "en_name": ["Pseudoionone", "3,5,9-Undecatrien-2-one, 6,10-dimethyl-", "Pseudoionone", "6,10-Dimethyl-3,5,9-undecatrien-2-one", "Citrylideneacetone", "2,6-Dimethylhendeca-2,6,8-trien-10-one", "\u03c8-Ionone", "2,6-Dimethyl-2,6,8-undecatrien-10-one", "2-Pseudoionone", "2-Pseudojonon", "\u03c6-Ionone"], "SMILES": "C(CCC=C(C)C)(=CC=CC(C)=O)C", "physical_data": {"Molecular Weight": "192.30", "Molecular Formula": "C13H20O", "Boiling Point": "144 \u00b0C", "Melting Point": "&lt;25 \u00b0C", "Density": "0.9003 g/cm\u00b3 @ Temp: 23 \u00b0C"}}