{"cas_no": "141-05-9", "cn_name": "\u9a6c\u6765\u9178\u4e8c\u4e59\u916f", "en_name": ["Diethyl maleate", "2-Butenedioic acid (2Z)-, 1,4-diethyl ester", "Maleic acid, diethyl ester", "2-Butenedioic acid (Z)-, diethyl ester", "2-Butenedioic acid (2Z)-, diethyl ester", "Diethyl maleate", "Ethyl maleate", "Diethyl (Z)-2-butenedioate", "Staflex DEM", "(2Z)-2-Butenedioic acid diethyl ester", "Maleinic acid diethyl ester", "(Z)-2-Butenedioic acid diethyl ester"], "SMILES": "C(C=CC(OCC)=O)(OCC)=O", "physical_data": {"Molecular Weight": "172.18", "Molecular Formula": "C8H12O4", "Boiling Point": "223 \u00b0C", "Melting Point": "-8.8 \u00b0C", "Density": "1.0690 g/cm\u00b3 @ Temp: 20 \u00b0C"}}