{"cas_no": "141-79-7", "cn_name": "4-\u7532\u57fa-3\u620a\u70ef-2-\u916e", "en_name": ["Mesityl oxide", "3-Penten-2-one, 4-methyl-", "4-Methyl-3-penten-2-one", "Isobutenyl methyl ketone", "Isopropylideneacetone", "Mesityl oxide", "Methyl isobutenyl ketone", "2-Methyl-2-penten-4-one", "4-Methyl-3-pentene-2-one", "Methyl 2-methyl-1-propenyl ketone", "Methyl 2,2-dimethylvinyl ketone", "2-Methyl-4-oxo-2-pentene", "2,2-Dimethylvinyl methyl ketone", "NSC 38717"], "SMILES": "C(=C(C)C)C(C)=O", "physical_data": {"Molecular Weight": "98.14", "Molecular Formula": "C6H10O", "Boiling Point": "130 \u00b0C @ Press: 760 Torr", "Melting Point": "-52.9 \u00b0C", "Density": "0.8592 g/cm\u00b3 @ Temp: 15 \u00b0C"}}