{"cas_no": "141-24-2", "cn_name": "\u84d6\u9ebb\u6cb9\u9178\u7532\u916f", "en_name": ["Methyl ricinoleate", "9-Octadecenoic acid, 12-hydroxy-, methyl ester, (9Z,12R)-", "Ricinoleic acid, methyl ester", "9-Octadecenoic acid, 12-hydroxy-, methyl ester, [R-(Z)]-", "Flexricin P 1", "Methyl ricinoleate", "cis-Ricinoleic acid methyl ester", "Methyl 12-D-hydroxy-9-cis-octadecenoate", "Methyl ricinate", "Ricinic acid methyl ester", "NSC 1254", "Edenor Me-Ri 90", "K-PON 180", "K-PON 180HP", "Ricinoleic methyl ester", "Methyl (R)-ricinoleate", "Methyl cis-(R)-12-hydroxyoctadec-9-enoate", "Radia 7081"], "SMILES": "C(CC=CCCCCCCCC(OC)=O)(CCCCCC)O", "physical_data": {"Molecular Weight": "312.49", "Molecular Formula": "C19H36O3", "Boiling Point": "245 \u00b0C @ Press: 10 Torr", "Melting Point": "-4.5 \u00b0C", "Density": "0.9236 g/cm\u00b3 @ Temp: 22 \u00b0C"}}