{"cas_no": "141-02-6", "cn_name": "\u987a\u4e01\u70ef\u4e8c\u9178\u4e8c(2-\u4e59\u57fa\u5df1)\u916f", "en_name": ["2-Ethylhexyl fumarate", "2-Butenedioic acid (2E)-, 1,4-bis(2-ethylhexyl) ester", "Fumaric acid, bis(2-ethylhexyl) ester", "2-Butenedioic acid (E)-, bis(2-ethylhexyl) ester", "2-Butenedioic acid (2E)-, bis(2-ethylhexyl) ester", "Bis(2-ethylhexyl) fumarate", "Dioctyl fumarate", "DOF", "2-Ethylhexyl fumarate", "RC Comonomer DOF", "Maximol FOK 670", "Di-2-ethylhexyl fumarate"], "SMILES": "C(COC(C=CC(OCC(CCCC)CC)=O)=O)(CCCC)CC", "physical_data": {"Molecular Weight": "340.50", "Molecular Formula": "C20H36O4", "Boiling Point": "180-188 \u00b0C @ Press: 5 Torr", "Density": "0.9398 g/cm\u00b3 @ Temp: 20 \u00b0C"}}