{"cas_no": "141-57-1", "cn_name": "\u4e19\u57fa\u4e09\u6c2f\u7845\u70f7", "en_name": ["Propyltrichlorosilane", "Silane, trichloropropyl-", "Trichloropropylsilane", "Propyltrichlorosilane", "Trichloro-n-propylsilane", "n-Propyltrichlorosilane", "NSC 93878", "Dynasylan PTCS"], "SMILES": "C([Si](Cl)(Cl)Cl)CC", "physical_data": {"Molecular Weight": "177.53", "Molecular Formula": "C3H7Cl3Si", "Boiling Point": "123.5 \u00b0C", "Density": "1.195 g/cm\u00b3 @ Temp: 20 \u00b0C"}}