{"cas_no": "141-83-3", "cn_name": "1-\u80fa\u7532\u91af\u80cd", "en_name": ["Guanylurea", "Urea, N-(aminoiminomethyl)-", "Urea, amidino-", "Urea, (aminoiminomethyl)-", "N-(Aminoiminomethyl)urea", "Amidinourea", "Dicyandiamidine", "Guanylurea", "Guanidine, (aminocarbonyl)-", "1-Amidinourea", "N-Carbamoylguanidine", "N-Amidinourea", "Guanidinecarboxamide", "1-Carbamoylguanidine"], "SMILES": "N(C(=N)N)C(N)=O", "physical_data": {"Molecular Weight": "102.10", "Molecular Formula": "C2H6N4O", "Melting Point": "105 \u00b0C"}}