{"cas_no": "141-31-1", "cn_name": "2-\u7f9f\u57fa\u5df1\u4e8c\u919b", "en_name": ["2-Hydroxyadipaldehyde", "Hexanedial, 2-hydroxy-", "2-Hydroxyhexanedial", "\u03b1-Hydroxyadipaldehyde", "2-Hydroxyadipaldehyde", "2-Hydroxyadipic dialdehyde", "NSC 11064"], "SMILES": "C(CCCC=O)(C=O)O", "physical_data": {"Molecular Weight": "130.14", "Molecular Formula": "C6H10O3", "Boiling Point": "78-82 \u00b0C @ Press: 1.5 Torr"}}