{"cas_no": "141-20-8", "cn_name": "\u805a\u4e59\u4e8c\u9187(400)\u6708\u6842\u9178\u916f", "en_name": ["Diethylene glycol laurate", "Dodecanoic acid, 2-(2-hydroxyethoxy)ethyl ester", "Lauric acid, 2-(2-hydroxyethoxy)ethyl ester", "Diethylene glycol, monolaurate", "Nonex 413", "Atlas G 2124", "Diethylene glycol laurate", "Diethylene glycol lauric acid monoester", "Diglycol monolaurate", "2,2\u2032-Dihydroxyethyl ether monododecanoate", "Emcol RDC-D", "Glaurin", "Lauro-Sebum", "Diglycol laurate", "2-(2-Hydroxyethoxy)ethyl laurate", "PEG-2 Laurate", "Pegosperse 100LN", "G 2124", "NSC 3868", "Emcol DL 50", "2-(2-Hydroxyethoxy)ethyl dodecanoate", "Genapol DEL"], "SMILES": "C(CCCCCCCCCCC)(OCCOCCO)=O", "physical_data": {"Molecular Weight": "288.42", "Molecular Formula": "C16H32O4", "Melting Point": "17.5 \u00b0C"}}