{"cas_no": "141-76-4", "cn_name": "3-\u7898\u4e19\u9178", "en_name": ["3-Iodopropionic acid", "Propanoic acid, 3-iodo-", "Propionic acid, 3-iodo-", "3-Iodopropanoic acid", "3-Iodopropionic acid", "\u03b2-Iodopropionic acid", "NSC 2124"], "SMILES": "C(C(O)=O)CI", "physical_data": {"Molecular Weight": "199.98", "Molecular Formula": "C3H5IO2", "Melting Point": "81.5 \u00b0C"}}