{"cas_no": "141-90-2", "cn_name": "2-\u786b\u8132\u5627\u5576", "en_name": ["Thiouracil", "4(1H)-Pyrimidinone, 2,3-dihydro-2-thioxo-", "Uracil, 2-thio-", "2,3-Dihydro-2-thioxo-4(1H)-pyrimidinone", "6-Hydroxy-2-mercaptopyrimidine", "2-Mercapto-4-hydroxypyrimidine", "2-Thiouracil", "Thiouracil", "2-Mercapto-4-pyrimidinol", "Antagothyroil", "Deracil", "Nobilen", "4-Hydroxy-2-pyrimidinethiol", "4-Hydroxy-2-mercaptopyrimidine", "2-Mercapto-4-pyrimidinone", "NSC 19473", "NSC 290412", "NSC 290413", "NSC 290414", "2-Thioxo-2,3-dihydropyrimidin-4(1H)-one", "2-Sulfanyl-3,4-dihydropyrimidin-4-one", "2-Sulfanylidene-1H-pyrimidin-4-one", "2-Sulfanylpyrimidin-4-ol", "2-Sulfanylidene-1,2,3,4-tetrahydropyrimidin-4-one", "2-Mercapto-3H-pyrimidin-4-one", "2-Thioxo-2,3-dihydro-1H-pyrimidin-4-one", "MeSH ID: D013889"], "SMILES": "O=C1NC(=S)NC=C1", "physical_data": {"Molecular Weight": "128.15", "Molecular Formula": "C4H4N2OS", "Melting Point": "&gt;340 \u00b0C (decomp)"}}