{"cas_no": "141-72-0", "cn_name": "\u4e19\u916e\u7f29\u4e8c\u4e01\u9187", "en_name": ["1,1\u2032-[(1-Methylethylidene)bis(oxy)]bis[butane]", "Butane, 1,1\u2032-[(1-methylethylidene)bis(oxy)]bis-", "Acetone, dibutyl acetal", "Propane, 2,2-dibutoxy-", "1,1\u2032-[(1-Methylethylidene)bis(oxy)]bis[butane]", "2,2-Dibutoxypropane", "Acetone dibutyl ketal", "2,2-Di-n-butoxypropane", "NSC 58115"], "SMILES": "O(C(OCCCC)(C)C)CCCC", "physical_data": {"Molecular Weight": "188.31", "Molecular Formula": "C11H24O2", "Boiling Point": "70 \u00b0C @ Press: 24 Torr", "Density": "0.8363 g/cm\u00b3 @ Temp: 20 \u00b0C"}}