{"cas_no": "141-30-0", "cn_name": "3,6-\u4e8c\u6c2f\u54d2\u55ea", "en_name": ["3,6-Dichloropyridazine", "Pyridazine, 3,6-dichloro-", "3,6-Dichloropyridazine", "NSC 54498"], "SMILES": "ClC1=CC=C(Cl)N=N1", "physical_data": {"Molecular Weight": "148.98", "Molecular Formula": "C4H2Cl2N2", "Boiling Point": "123-127 \u00b0C @ Press: 5 Torr", "Melting Point": "66-68 \u00b0C"}}