{"cas_no": "141-78-6", "cn_name": "\u4e59\u9178\u4e59\u916f", "en_name": ["Ethyl acetate", "Acetic acid ethyl ester", "Acetic acid, ester with EtOH", "Ethyl acetate", "Acetic ether", "Acetidin", "Ethyl ethanoate", "Vinegar naphtha", "Acetoxyethane", "EtOAc", "NSC 70930", "Acetic acid, ethyl ester", "DY 026", "1: PN: CN110526858 SEQID: 1 claimed sequence", "NC 401"], "SMILES": "O(C(C)=O)CC", "physical_data": {"Molecular Weight": "88.11", "Molecular Formula": "C4H8O2", "Boiling Point": "77 \u00b0C", "Melting Point": "-83 \u00b0C", "Density": "0.902 g/cm\u00b3 @ Temp: 20 \u00b0C"}}