{"cas_no": "141-86-6", "cn_name": "2,6-\u4e8c\u6c28\u57fa\u5421\u5576", "en_name": ["2,6-Diaminopyridine", "2,6-Pyridinediamine", "Pyridine, 2,6-diamino-", "2,6-Diaminopyridine", "DAP", "DAP (amine)", "NSC 1921", "NSC 403346"], "SMILES": "NC=1N=C(N)C=CC1", "physical_data": {"Molecular Weight": "109.13", "Molecular Formula": "C5H7N3", "Boiling Point": "285 \u00b0C", "Melting Point": "121.5 \u00b0C"}}