{"cas_no": "141-22-0", "cn_name": "\u84d6\u9ebb\u6cb9\u9178", "en_name": ["Ricinoleic acid", "9-Octadecenoic acid, 12-hydroxy-, (9Z,12R)-", "Ricinoleic acid", "9-Octadecenoic acid, 12-hydroxy-, [R-(Z)]-", "(9Z,12R)-12-Hydroxy-9-octadecenoic acid", "12-Hydroxy-cis-9-octadecenoic acid", "Ricinic acid", "Ricinolic acid", "12-D-Hydroxy-9-cis-octadecenoic acid", "Nouracid CS 80", "12-Hydroxyoctadeca-9-enoic acid", "Edenor Ri 90", "(R)-12-Hydroxyoleic acid", "NSC 281242", "Cenwax C", "CS 80", "H 1657", "(9Z,12R)-12-Hydroxyoctadec-9-enoic acid", "(R)-Ricinoleic acid", "Nouracid CZ 80", "9-Nonadecenoic acid, 12-hydroxy-, (9Z,12R)-"], "SMILES": "C(CC=CCCCCCCCC(O)=O)(CCCCCC)O", "physical_data": {"Molecular Weight": "298.46", "Molecular Formula": "C18H34O3", "Boiling Point": "245 \u00b0C @ Press: 10 Torr", "Melting Point": "5.5 \u00b0C", "Density": "0.940 g/cm\u00b3 @ Temp: 27.4 \u00b0C"}}