{"cas_no": "141-75-3", "cn_name": "\u6b63\u4e01\u9170\u6c2f", "en_name": ["Butanoyl chloride", "Butanoyl chloride", "Butyryl chloride", "Butyroyl chloride", "n-Butyryl chloride", "Butyric chloride", "Butyric acid chloride", "n-Butanoyl chloride", "n-Butyroyl chloride", "Butanoic acid chloride"], "SMILES": "C(C(Cl)=O)CC", "physical_data": {"Molecular Weight": "106.55", "Molecular Formula": "C4H7ClO", "Boiling Point": "101-102 \u00b0C", "Melting Point": "-89 \u00b0C", "Density": "1.0263 g/cm\u00b3 @ Temp: 20.6 \u00b0C"}}