{"cas_no": "141-17-3", "cn_name": "\u5df1\u4e8c\u9178\u4e8c[2-(2-\u4e01\u6c27\u57fa\u4e59\u6c27\u57fa)\u4e59\u916f]", "en_name": ["1,6-Bis[2-(2-butoxyethoxy)ethyl] hexanedioate", "Hexanedioic acid, 1,6-bis[2-(2-butoxyethoxy)ethyl] ester", "Adipic acid, bis[2-(2-butoxyethoxy)ethyl] ester", "Hexanedioic acid, bis[2-(2-butoxyethoxy)ethyl] ester", "Ethanol, 2-(2-butoxyethoxy)-, adipate (2:1)", "1,6-Bis[2-(2-butoxyethoxy)ethyl] hexanedioate", "Bis(diethylene glycol monobutyl ether) adipate", "Wareflex", "Bis[2-(2-butoxyethoxy)ethyl] adipate", "Plasthall DBEEA", "Di(butoxyethoxyethyl) adipate", "TP 95", "Thiokol TP 95", "TP 759", "RX 11806", "Thiokol TP 759", "Bisoflex 111", "Di[2-(2-butoxyethoxy)ethyl] adipate", "Reomol BCD", "Plasthall 226S", "Plasthall 226", "Sartomer 650", "Morton TP 95", "Morton TP 759", "SR 650", "Sankonol 0862", "Rhenosin W 95", "BXA (ester)", "BXA", "Sankonol 0862-0", "SR 86A", "ADK Cizer RS 107", "RS 107", "Sartomer Wareflex SR 650", "Wareflex SR 650", "Ccpcizer D 600", "Edenol 422", "ADK Cizer RS 107S", "BXA-N", "TP 795", "BXA-R", "Hallstar TP 759", "Proviplast 01422"], "SMILES": "C(CCCCC(OCCOCCOCCCC)=O)(OCCOCCOCCCC)=O", "physical_data": {"Molecular Weight": "434.56", "Molecular Formula": "C22H42O8", "Boiling Point": "240 \u00b0C @ Press: 5 Torr", "Melting Point": "-47 \u00b0C"}}