{"cas_no": "141-98-0", "cn_name": "\u4e59\u57fa\u786b\u4ee3\u6c28\u57fa\u7532\u9178-O-(1-\u7532\u57fa\u4e59\u57fa)\u916f", "en_name": ["O-(1-Methylethyl) N-ethylcarbamothioate", "Carbamothioic acid, N-ethyl-, O-(1-methylethyl) ester", "Carbamic acid, ethylthio-, O-isopropyl ester", "Carbamothioic acid, ethyl-, O-(1-methylethyl) ester", "O-(1-Methylethyl) N-ethylcarbamothioate", "O-Isopropyl N-ethylthiocarbamate", "Ethylthiocarbamic acid, O-isopropyl ester", "O-Isopropyl ethylthiocarbamate", "Z 200 (flotation agent)", "O-Isopropyl N-ethylthionocarbamate", "Minerec 2030", "Z 200", "XKP 03"], "SMILES": "O(C(NCC)=S)C(C)C", "physical_data": {"Molecular Weight": "147.24", "Molecular Formula": "C6H13NOS", "Boiling Point": "120-122 \u00b0C @ Press: 0.7 Torr", "Density": "0.9854 g/cm\u00b3 @ Temp: 20 \u00b0C"}}