{"cas_no": "141-91-3", "cn_name": "2,6-\u4e8c\u7532\u57fa\u5417\u5549", "en_name": ["2,6-Dimethylmorpholine", "Morpholine, 2,6-dimethyl-", "2,6-Dimethylmorpholine", "NSC 60704"], "SMILES": "CC1OC(C)CNC1", "physical_data": {"Molecular Weight": "115.17", "Molecular Formula": "C6H13NO", "Boiling Point": "146.6 \u00b0C @ Press: 760 Torr", "Melting Point": "-88 \u00b0C", "Density": "0.9346 g/cm\u00b3 @ Temp: 20 \u00b0C"}}