{"cas_no": "141-82-2", "cn_name": "\u4e19\u4e8c\u9178", "en_name": ["Malonic acid", "Propanedioic acid", "Malonic acid", "Carboxyacetic acid", "Dicarboxymethane", "Methanedicarboxylic acid", "1,3-Propanedioic acid", "NSC 8124", "Malonates", "MeSH ID: D008314"], "SMILES": "C(C(O)=O)C(O)=O", "physical_data": {"Molecular Weight": "104.06", "Molecular Formula": "C3H4O4", "Boiling Point": "215 \u00b0C @ Press: 14 Torr", "Melting Point": "135 \u00b0C (decomp)", "Density": "1.6 g/cm\u00b3"}}