{"cas_no": "141-16-2", "cn_name": "3,7-\u4e8c\u7532\u57fa-6-\u8f9b\u70ef\u9187\u4e01\u9178\u916f", "en_name": ["Citronellyl butyrate", "Butanoic acid, 3,7-dimethyl-6-octen-1-yl ester", "Butyric acid, 3,7-dimethyl-6-octenyl ester", "Butanoic acid, 3,7-dimethyl-6-octenyl ester", "Butyric acid, ester with citronellol", "6-Octen-1-ol, 3,7-dimethyl-, butyrate", "Citronellyl butyrate", "2,6-Dimethyl-2-octen-8-ol ester with butyric acid", "2,6-Dimethyl-2-octen-8-yl butyrate", "Citronellyl n-butyrate", "Citronellyl butanoate", "3,7-Dimethyl-6-octenyl butanoate", "Citronellol butyrate", "NSC 46147"], "SMILES": "C(CCOC(CCC)=O)(CCC=C(C)C)C", "physical_data": {"Molecular Weight": "226.35", "Molecular Formula": "C14H26O2", "Boiling Point": "135-139 \u00b0C @ Press: 13 Torr", "Density": "0.8898-0.8928 g/cm\u00b3 @ Temp: 15 \u00b0C"}}