{"cas_no": "141-59-3", "cn_name": "1,1,3,3-\u56db\u7532\u57fa-1-\u4e01\u786b\u9187", "en_name": ["2,4,4-Trimethyl-2-pentanethiol", "2-Pentanethiol, 2,4,4-trimethyl-", "2,4,4-Trimethyl-2-pentanethiol", "tert-Octyl mercaptan", "tert-Octylthiol", "tert-Octanethiol"], "SMILES": "C(C(C)(C)C)C(C)(C)S", "physical_data": {"Molecular Weight": "146.29", "Molecular Formula": "C8H18S", "Boiling Point": "154-166 \u00b0C", "Melting Point": "-74 \u00b0C", "Density": "0.848 g/cm\u00b3"}}