{"cas_no": "141-18-4", "cn_name": "\u5df1\u4e8c\u9178\u53cc(2-\u4e01\u6c27\u57fa\u4e59)\u916f", "en_name": ["Bis(2-butoxyethyl) adipate", "Hexanedioic acid, 1,6-bis(2-butoxyethyl) ester", "Adipic acid, bis(2-butoxyethyl) ester", "Hexanedioic acid, bis(2-butoxyethyl) ester", "Ethanol, 2-butoxy-, adipate (2:1)", "Adipic acid, bis(ethylene glycol monobutyl ether) ester", "Adipol BCA", "Bis(2-butoxyethyl) adipate", "Bis(ethylene glycol monobutyl ether) adipate", "Di(2-butoxyethyl) adipate", "Staflex DBEA", "Di(butoxyethyl) adipate", "Bis(butoxyethyl) adipate", "Plasthall 203", "Sunkonol 0862-0", "D 931", "NSC 4813", "Bis(2-butoxylethyl) adipate", "SDX 3789"], "SMILES": "C(CCCCC(OCCOCCCC)=O)(OCCOCCCC)=O", "physical_data": {"Molecular Weight": "346.46", "Molecular Formula": "C18H34O6", "Boiling Point": "199-200 \u00b0C @ Press: 12 Torr", "Density": "1.051 g/cm\u00b3 @ Temp: 25 \u00b0C"}}