{"cas_no": "14101-04-3", "cn_name": "\u6cfb\u9f20\u674e\u76ae\u82f7B", "en_name": ["Frangulin B", "9,10-Anthracenedione, 3-(D-apio-\u03b2-D-furanosyloxy)-1,8-dihydroxy-6-methyl-", "Frangulin B", "3-(D-Apio-\u03b2-D-furanosyloxy)-1,8-dihydroxy-6-methyl-9,10-anthracenedione"], "SMILES": "O=C1C=2C(C(=O)C=3C1=CC(C)=CC3O)=C(O)C=C(OC4C(O)C(CO)(O)CO4)C2", "physical_data": {"Molecular Weight": "402.35", "Molecular Formula": "C20H18O9", "Melting Point": "196 \u00b0C"}}