{"cas_no": "14109-72-9", "cn_name": "(\u7532\u786b\u57fa)\u4e19\u916e", "en_name": ["1-(Methylthio)-2-propanone", "2-Propanone, 1-(methylthio)-", "2-Propanone, (methylthio)-", "1-(Methylthio)-2-propanone", "(Methylthio)acetone", "\u03b1-(Methylthio)propanone", "2-Thia-4-pentanone", "\u03b1-(Methylthio)acetone", "Acetonyl methyl sulfide", "1-Methylsulfanylpropan-2-one", "1-(Methylsulfanyl)acetone"], "SMILES": "C(C(C)=O)SC", "physical_data": {"Molecular Weight": "104.17", "Molecular Formula": "C4H8OS", "Boiling Point": "152.5-153 \u00b0C @ Press: 760 Torr"}}