{"cas_no": "14113-05-4", "cn_name": "10-\u7f9f\u57fa-2-\u7678\u70ef\u9178", "en_name": ["trans-10-Hydroxy-2-decenoic acid", "2-Decenoic acid, 10-hydroxy-, (2E)-", "2-Decenoic acid, 10-hydroxy-, (E)-", "Royal jelly acid", "2-Decenoic acid, 10-hydroxy-, trans-", "(2E)-10-Hydroxy-2-decenoic acid", "10-Hydroxy-trans-2-decenoic acid", "trans-10-Hydroxy-2-decenoic acid", "(E)-10-Hydroxy-2-decenoic acid", "10-Hydroxy-2E-decenoic acid", "NSC 87516", "Biosil"], "SMILES": "C(CCCCCO)CC=CC(O)=O", "physical_data": {"Molecular Weight": "186.25", "Molecular Formula": "C10H18O3", "Melting Point": "64-65 \u00b0C"}}