{"cas_no": "14114-46-6", "cn_name": "A2A\u53d7\u4f53\u9009\u62e9\u6027\u62ee\u6297\u5242,DMPX", "en_name": ["3,7-Dimethyl-1-propargylxanthine", "1H-Purine-2,6-dione, 3,7-dihydro-3,7-dimethyl-1-(2-propyn-1-yl)-", "Theobromine, 1-(2-propynyl)-", "1H-Purine-2,6-dione, 3,7-dihydro-3,7-dimethyl-1-(2-propynyl)-", "3,7-Dihydro-3,7-dimethyl-1-(2-propyn-1-yl)-1H-purine-2,6-dione", "3,7-Dimethyl-1-propargylxanthine", "DMPX", "NSC 242985", "1-Propargyl 3,7-Dimethylxanthine", "3,7-Dimethyl-1-(prop-2-yn-1-yl)-2,3,6,7-tetrahydro-1H-purine-2,6-dione", "3,7-Dimethyl-1-(prop-2-yn-1-yl)-1H-purine-2,6(3H,7H)-dione", "3,7-Dihydro-3,7-dimethyl-1-(2-propynyl)-1H-purine-2,6-dione", "3,7-Dimethyl-1-prop-2-ynylpurine-2,6-dione"], "SMILES": "O=C1C2=C(N(C)C(=O)N1CC#C)N=CN2C", "physical_data": {"Molecular Weight": "218.21", "Molecular Formula": "C10H10N4O2", "Melting Point": "207 \u00b0C"}}