{"cas_no": "14112-98-2", "cn_name": "7-\u916e\u57fa\u8f9b\u9178", "en_name": ["7-Oxooctanoic acid", "Octanoic acid, 7-oxo-", "7-Oxooctanoic acid", "7-Ketooctanoic acid"], "SMILES": "C(CC(C)=O)CCCC(O)=O", "physical_data": {"Molecular Weight": "158.20", "Molecular Formula": "C8H14O3", "Boiling Point": "186-187 \u00b0C @ Press: 20 Torr", "Melting Point": "29-30 \u00b0C"}}