{"cas_no": "14118-16-2", "cn_name": "\u56db-N-\u82ef\u57fa-\u5bf9\u82ef\u4e8c\u80fa", "en_name": ["N1,N1,N4,N4-Tetraphenyl-1,4-benzenediamine", "1,4-Benzenediamine, N1,N1,N4,N4-tetraphenyl-", "p-Phenylenediamine, N,N,N\u2032,N\u2032-tetraphenyl-", "1,4-Benzenediamine, N,N,N\u2032,N\u2032-tetraphenyl-", "N1,N1,N4,N4-Tetraphenyl-1,4-benzenediamine", "N,N,N\u2032,N\u2032-Tetraphenyl-p-phenylenediamine", "N,N,N\u2032,N\u2032-Tetraphenyl-1,4-phenylenediamine", "1,4-Bis(diphenylamino)benzene", "N,N,N'N\u2032-Tetraphenyl-1,4-benzenediamine", "1-N,1-N,4-N,4-N-Tetraphenylbenzene-1,4-diamine"], "SMILES": "N(C1=CC=C(N(C2=CC=CC=C2)C3=CC=CC=C3)C=C1)(C4=CC=CC=C4)C5=CC=CC=C5", "physical_data": {"Molecular Weight": "412.52", "Molecular Formula": "C30H24N2", "Melting Point": "200 \u00b0C"}}