{"cas_no": "14113-01-0", "cn_name": "\u8f9b\u4e8c\u9178\u6c22\u4e59\u916f", "en_name": ["1-Ethyl octanedioate", "Octanedioic acid, 1-ethyl ester", "Suberic acid, monoethyl ester", "Octanedioic acid, monoethyl ester", "Suberic acid, ethyl ester", "1-Ethyl octanedioate", "Monoethyl suberate", "Ethyl hydrogen suberate"], "SMILES": "C(CCCCCC(O)=O)C(OCC)=O", "physical_data": {"Molecular Weight": "202.25", "Molecular Formula": "C10H18O4", "Boiling Point": "192 \u00b0C @ Press: 17 Torr", "Melting Point": "25 \u00b0C", "Density": "0.9807 g/cm\u00b3 @ Temp: 20 \u00b0C"}}