{"cas_no": "14110-64-6", "cn_name": "\u7ec6\u80de\u677e\u9a70\u7d20 A", "en_name": ["Cytochalasin A", "2H-Oxacyclotetradecino[2,3-d]isoindole-2,5,18-trione, 6,7,8,9,10,12a,13,14,15,15a,16,17-dodecahydro-13-hydroxy-9,15-dimethyl-14-methylene-16-(phenylmethyl)-, (3E,9R,11E,12aS,13S,15S,15aS,16S,18aS)-", "2H-Oxacyclotetradecino[2,3-d]isoindole-2,5,18-trione, 16-benzyl-6,7,8,9,10,12a,13,14,15,15a,16,17-dodecahydro-13-hydroxy-9,15-dimethyl-14-methylene-", "24-Oxa[14]cytochalasa-6(12),13,21-triene-1,20,23-trione, 7-hydroxy-16-methyl-10-phenyl-, (7S,13E,16R,21E)-", "(3E,9R,11E,12aS,13S,15S,15aS,16S,18aS)-6,7,8,9,10,12a,13,14,15,15a,16,17-Dodecahydro-13-hydroxy-9,15-dimethyl-14-methylene-16-(phenylmethyl)-2H-oxacyclotetradecino[2,3-d]isoindole-2,5,18-trione", "5-Dehydrophomin", "Phomin, 5,5-didehydro-", "Cytochalasin A", "Dehydrophomin", "5,5-Didehydrophomin", "2H-Oxacyclotetradecino[2,3-d]isoindole-2,5,18-trione, 6,7,8,9,10,12a,13,14,15,15a,16,17-dodecahydro-13-hydroxy-9,15-dimethyl-14-methylene-16-(phenylmethyl)-, [9R-(3E,9R*,11E,12aS*,13S*,15S*,15aS*,16S*,18aS*)]-", "NSC 174119"], "SMILES": "O=C1C23C(C(CC4=CC=CC=C4)N1)C(C)C(=C)C(O)C2C=CCC(C)CCCC(=O)C=CC(=O)O3", "physical_data": {"Molecular Weight": "477.59", "Molecular Formula": "C29H35NO5", "Melting Point": "185-187 \u00b0C"}}