{"cas_no": "141112-29-0", "cn_name": "\u5f02\u6076\u5511\u8349\u916e", "en_name": ["Isoxaflutole", "Methanone, (5-cyclopropyl-4-isoxazolyl)[2-(methylsulfonyl)-4-(trifluoromethyl)phenyl]-", "(5-Cyclopropyl-4-isoxazolyl)[2-(methylsulfonyl)-4-(trifluoromethyl)phenyl]methanone", "RPA 201772", "Isoxaflutole", "EXP 31130A", "RP 201772", "Merlin", "Balance", "EXP 30953", "Balance Pro", "Provence", "Balance (herbicide)", "Balance Bean", "ForDor WG 75"], "SMILES": "C(=O)(C1=C(ON=C1)C2CC2)C3=C(S(C)(=O)=O)C=C(C(F)(F)F)C=C3", "physical_data": {"Molecular Weight": "359.32", "Molecular Formula": "C15H12F3NO4S", "Melting Point": "140 \u00b0C"}}