{"cas_no": "1412-19-7", "cn_name": "\u8607\u6728\u7cbe\u6c34\u5408\u7269", "en_name": ["Hematoxylin", "Benz[b]indeno[1,2-d]pyran-3,4,6a,9,10(6H)-pentol, 7,11b-dihydro-, (6aS,11bR)-", "Benz[b]indeno[1,2-d]pyran-3,4,6a,9,10(6H)-pentol, 7,11b-dihydro-", "Benz[b]indeno[1,2-d]pyran-3,4,6a,9,10(6H)-pentol, 7,11b-dihydro-, (6aS-cis)-", "(6aS,11bR)-7,11b-Dihydrobenz[b]indeno[1,2-d]pyran-3,4,6a,9,10(6H)-pentol", "Haematoxylin", "Hematoxyline", "Hydroxybrasilin", "Hematoxylin", "Hydroxybrazilin", "(+)-Hematoxylin", "NSC 270085", "(6AS,11bR)-7,11b-dihydro-6H-indeno[2,1-c]chromene-3,4,6a,9,10-pentol", "MeSH ID: D006416"], "SMILES": "OC12C(C=3C(C1)=CC(O)=C(O)C3)C=4C(OC2)=C(O)C(O)=CC4", "physical_data": {"Molecular Weight": "302.28", "Molecular Formula": "C16H14O6", "Melting Point": "140 \u00b0C"}}