{"cas_no": "14121-49-4", "cn_name": "\u82ef\u5e76\u567b\u5428\u4e8c\u7fa7\u9178\u9150", "en_name": ["1H,3H-Thioxantheno[2,1,9-def]-2-benzopyran-1,3-dione", "1H,3H-Thioxantheno[2,1,9-def]-2-benzopyran-1,3-dione", "Benzo[kl]thioxanthene-3,4-dicarboxylic anhydride", "Benzothioxanthene-3,4-dicarboxylic anhydride", "4,10-Benzothioxanthene-3,1\u2032-dicarboxylic acid anhydride"], "SMILES": "O=C1C=2C3=C4C(C=5C(SC4=CC=C3C(=O)O1)=CC=CC5)=CC2", "physical_data": {"Molecular Weight": "304.32", "Molecular Formula": "C18H8O3S", "Melting Point": "&gt;300 \u00b0C"}}