{"cas_no": "14121-36-9", "cn_name": "2,4,5,6-\u56db\u6c2f\u5627\u5576", "en_name": ["2,3,4,6-Tetrachloropyridine", "Pyridine, 2,3,4,6-tetrachloro-", "2,3,4,6-Tetrachloropyridine"], "SMILES": "ClC=1C(Cl)=CC(Cl)=NC1Cl", "physical_data": {"Molecular Weight": "216.88", "Molecular Formula": "C5HCl4N", "Boiling Point": "248.0-249.5 \u00b0C @ Press: 760 Torr", "Melting Point": "37.5-38 \u00b0C"}}