{"cas_no": "14123-48-9", "cn_name": "1-\u4e8c\u7532\u6c28\u57fa-2-\u7532\u57fa-2-\u4e19\u9187", "en_name": ["1-(Dimethylamino)-2-methyl-2-propanol", "2-Propanol, 1-(dimethylamino)-2-methyl-", "1-(Dimethylamino)-2-methyl-2-propanol", "1-Dimethylamino-2-methyl-2-propanol", "N,N-Dimethyl-3-amino-2-methyl-2-propanol", "2-Methyl-1-dimethylamino-2-propanol", "N,N-Dimethyl-1-amino-2-methyl-2-propanol"], "SMILES": "C(C(C)(C)O)N(C)C", "physical_data": {"Molecular Weight": "117.19", "Molecular Formula": "C6H15NO", "Boiling Point": "130 \u00b0C @ Press: 758 Torr", "Density": "0.85881 g/cm\u00b3 @ Temp: 20 \u00b0C"}}