{"cas_no": "14126-40-0", "cn_name": "\u53cc(\u4e09\u82ef\u57fa\u81a6)\u6c2f\u5316\u94b4", "en_name": ["(T-4)-Dichlorobis(triphenylphosphine)cobalt", "Cobalt, dichlorobis(triphenylphosphine)-, (T-4)-", "Cobalt, dichlorobis(triphenylphosphine)-", "(T-4)-Dichlorobis(triphenylphosphine)cobalt", "Cobaltous chloride-triphenylphosphine complex (1:2)", "Dichlorobis(triphenylphosphine)cobalt", "Bis(triphenylphosphine)cobalt dichloride", "Dichlorobis(triphenylphosphine)cobalt(II)", "NSC 303234"], "SMILES": "[P]([Co+2]([P](C1=CC=CC=C1)(C2=CC=CC=C2)C3=CC=CC=C3)([Cl-])[Cl-])(C4=CC=CC=C4)(C5=CC=CC=C5)C6=CC=CC=C6", "physical_data": {"Molecular Weight": "", "Molecular Formula": "C36H30Cl2CoP2", "Melting Point": "&gt;250 \u00b0C"}}