{"cas_no": "14133-90-5", "cn_name": "4-\u7f9f\u57fa\u666e\u8418\u6d1b\u5c14\u76d0\u9178\u76d0", "en_name": ["4-Hydroxypropranolol hydrochloride", "1-Naphthalenol, 4-[2-hydroxy-3-[(1-methylethyl)amino]propoxy]-, hydrochloride (1:1)", "2-Propanol, 1-[(4-hydroxy-1-naphthyl)oxy]-3-(isopropylamino)-, hydrochloride", "1-Naphthalenol, 4-[2-hydroxy-3-[(1-methylethyl)amino]propoxy]-, hydrochloride", "4-Hydroxypropranolol hydrochloride"], "SMILES": "O(CC(CNC(C)C)O)C=1C2=C(C(O)=CC1)C=CC=C2.Cl", "physical_data": {"Molecular Weight": "", "Molecular Formula": "C16H21NO3.ClH", "Melting Point": "176-178 \u00b0C"}}