{"cas_no": "141315-50-6", "cn_name": "(S)-2-\u6c2f\u82ef\u7518\u6c28\u9178", "en_name": ["(\u03b1S)-\u03b1-Amino-2-chlorobenzeneacetic acid", "Benzeneacetic acid, \u03b1-amino-2-chloro-, (\u03b1S)-", "Benzeneacetic acid, \u03b1-amino-2-chloro-, (S)-", "(\u03b1S)-\u03b1-Amino-2-chlorobenzeneacetic acid", "L-(o-Chlorophenyl)glycine", "(S)-2-Chlorophenylglycine", "(S)-2-Amino-2-(2-chlorophenyl)aceticacid", "(S)-2-Amino-2-(2-chlorophenyl)acetic acid", "(2S)-2-Azaniumyl-2-(2-chlorophenyl)acetate"], "SMILES": "C(C(O)=O)(N)C1=C(Cl)C=CC=C1", "physical_data": {"Molecular Weight": "185.61", "Molecular Formula": "C8H8ClNO2", "Melting Point": "184.4-185.7 \u00b0C"}}