{"cas_no": "14140-15-9", "cn_name": "4-\u7f9f\u57fa\u82ef\u4e59\u57fa\u6eb4", "en_name": ["4-(2-Bromoethyl)phenol", "Phenol, 4-(2-bromoethyl)-", "Phenol, p-(2-bromoethyl)-", "4-(2-Bromoethyl)phenol", "4-Hydroxyphenethyl bromide", "2-(4-Hydroxyphenyl)-1-bromoethane", "2-(4-Hydroxyphenyl)ethyl bromide", "1-Bromo-2-(p-hydroxyphenyl)ethane"], "SMILES": "C(CBr)C1=CC=C(O)C=C1", "physical_data": {"Molecular Weight": "201.06", "Molecular Formula": "C8H9BrO", "Boiling Point": "150-155 \u00b0C @ Press: 12 Torr", "Melting Point": "89-91 \u00b0C"}}