{"cas_no": "14144-06-0", "cn_name": "\u5730\u7d22\u82f7", "en_name": ["Trillin", "\u03b2-D-Glucopyranoside, (3\u03b2,25R)-spirost-5-en-3-yl", "Diosgenin \u03b2-D-glucopyranoside", "Trillin", "Spirostan, \u03b2-D-glucopyranoside deriv.", "Spiro[8H-naphth[2\u2032,1\u2032:4,5]indeno[2,1-b]furan-8,2\u2032-[2H]pyran], \u03b2-D-glucopyranoside deriv.", "(3\u03b2,25R)-Spirost-5-en-3-yl \u03b2-D-glucopyranoside", "Diosgenin 3-O-\u03b2-D-glucopyranoside", "Alliumoside A", "Funkioside A", "Polygonatoside A", "Prosapogenin D\u20323", "Diosgenin \u03b2-D-glucoside", "Polyphyllin A", "Melongoside B", "Collettiside I", "Diosgenin glucoside", "Diosgenin 3-\u03b2-D-glucoside", "Disogluside", "Lilioglycoside A"], "SMILES": "CC12C3C(OC4(C3C)CCC(C)CO4)CC1C5C(CC2)C6(C)C(=CC5)CC(OC7OC(CO)C(O)C(O)C7O)CC6", "physical_data": {"Molecular Weight": "576.76", "Molecular Formula": "C33H52O8", "Melting Point": "275-280 \u00b0C (decomp)"}}