{"cas_no": "141573-95-7", "cn_name": "3-\u4e8c\u6c1f\u7532\u57fa-1-\u7532\u57fa\u5421\u5511-4-\u7532\u9178\u4e59\u916f", "en_name": ["1H-Pyrazole-4-carboxylic acid, 3-(difluoromethyl)-1-methyl-, ethyl ester", "1H-Pyrazole-4-carboxylic acid, 3-(difluoromethyl)-1-methyl-, ethyl ester", "1-Methyl-3-(difluoromethyl)pyrazole-4-carboxylic acid ethyl ester", "3-Difluoromethyl-1-methylpyrazole-4-carboxylic acid ethyl ester", "Ethyl 3-difluoromethyl-1-methyl-1H-pyrazole-4-carboxylate", "Ethyl 1-methyl-3-difluoromethyl-1H-pyrazole-4-carboxylate", "Ethyl 1-methyl-3-(difluoromethyl)pyrazole-4-carboxylate", "Ethyl 3-(difluoromethyl)-1-methyl-7H-pyrazole-4-carboxylate"], "SMILES": "C(OCC)(=O)C=1C(C(F)F)=NN(C)C1", "physical_data": {"Molecular Weight": "204.17", "Molecular Formula": "C8H10F2N2O2", "Melting Point": "58-59 \u00b0C"}}