{"cas_no": "14159-61-6", "cn_name": "3-\u5f02\u4e01\u57fa\u5421\u5576", "en_name": ["3-(2-Methylpropyl)pyridine", "Pyridine, 3-(2-methylpropyl)-", "Pyridine, 3-isobutyl-", "3-(2-Methylpropyl)pyridine", "3-Isobutylpyridine"], "SMILES": "C(C(C)C)C=1C=CC=NC1", "physical_data": {"Molecular Weight": "135.21", "Molecular Formula": "C9H13N", "Boiling Point": "85.5-87.5 \u00b0C @ Press: 19 Torr", "Melting Point": "113-114 \u00b0C"}}