{"cas_no": "1415-73-2", "cn_name": "\u82a6\u835f\u7519", "en_name": ["Barbaloin", "9(10H)-Anthracenone, 10-\u03b2-D-glucopyranosyl-1,8-dihydroxy-3-(hydroxymethyl)-, (10S)-", "Barbaloin", "9(10H)-Anthracenone, 10-\u03b2-D-glucopyranosyl-1,8-dihydroxy-3-(hydroxymethyl)-, (S)-", "Anthrone, 10-glucopyranosyl-1,8-dihydroxy-3-(hydroxymethyl)-", "(10S)-10-\u03b2-D-Glucopyranosyl-1,8-dihydroxy-3-(hydroxymethyl)-9(10H)-anthracenone", "Aloin", "Aloin A", "Barbaloin A", "NSC 407305", "10-epi-Aloin B"], "SMILES": "OC1C(C2C=3C(C(=O)C=4C2=CC=CC4O)=C(O)C=C(CO)C3)OC(CO)C(O)C1O", "physical_data": {"Molecular Weight": "418.39", "Molecular Formula": "C21H22O9", "Melting Point": "148-149 \u00b0C"}}