{"cas_no": "141556-42-5", "cn_name": "1,3-\u4e8c\u5747\u4e09\u7532\u82ef\u57fa\u54aa\u5511-2-\u53c9", "en_name": ["1,3-Dihydro-1,3-bis(2,4,6-trimethylphenyl)-2H-imidazol-2-ylidene", "2H-Imidazol-2-ylidene, 1,3-dihydro-1,3-bis(2,4,6-trimethylphenyl)-", "1,3-Dihydro-1,3-bis(2,4,6-trimethylphenyl)-2H-imidazol-2-ylidene", "1,3-Dimesitylimidazolin-2-ylidene", "1,3-Bis(2,4,6-trimethylphenyl)imidazol-2-ylidene", "1,3-Dihydro-1,3-dimesityl-2H-imidazol-2-ylidene", "1,3-Dimesityl-4-imidazolin-2-ylidene", "1,3-Dihydro-1,3-bis(mesityl)-2H-imidazol-2-ylidene", "1,3-Dimesityl-2-imidazolylidene", "1,3-Bis(2,4,6-trimethylphenyl)imidazolin-2-ylidene", "1,3-Bis(mesityl)imidazol-2-ylidene", "N,N\u2032-Bis(2,4,6-trimethylphenyl)imidazolin-2-ylidene", "1,3-Di(2,4,6-trimethylphenyl)imidazol-2-ylidene", "IMes", "1,3-Di-tert-mesitylimidazol-2-ylidene", "1,3-Bis(2,4,6-trimethylphenyl)imidazole-2-ylidene"], "SMILES": "CC1=C(N2[C]N(C=C2)C3=C(C)C=C(C)C=C3C)C(C)=CC(C)=C1", "physical_data": {"Molecular Weight": "", "Molecular Formula": "C21H24N2", "Melting Point": "149-151 \u00b0C"}}