{"cas_no": "141524-74-5", "cn_name": "4-\u6eb4-1-\u7532\u57fa-1H-\u54aa\u5511-5-\u7532\u919b", "en_name": ["4-Bromo-1-methyl-1H-imidazole-5-carboxaldehyde", "1H-Imidazole-5-carboxaldehyde, 4-bromo-1-methyl-", "4-Bromo-1-methyl-1H-imidazole-5-carboxaldehyde", "4-Bromo-1-methylimidazole-5-carboxaldehyde"], "SMILES": "C(=O)C1=C(Br)N=CN1C", "physical_data": {"Molecular Weight": "189.01", "Molecular Formula": "C5H5BrN2O", "Melting Point": "87-92 \u00b0C"}}