{"cas_no": "1415566-28-7", "cn_name": "\u5229\u4f10\u6c99\u73ed\u6742\u8d28A", "en_name": ["N-[[(5S)-2-Oxo-3-[4-(3-oxo-4-morpholinyl)phenyl]-5-oxazolidinyl]methyl]-2-thiophenecarboxamide", "2-Thiophenecarboxamide, N-[[(5S)-2-oxo-3-[4-(3-oxo-4-morpholinyl)phenyl]-5-oxazolidinyl]methyl]-", "N-[[(5S)-2-Oxo-3-[4-(3-oxo-4-morpholinyl)phenyl]-5-oxazolidinyl]methyl]-2-thiophenecarboxamide"], "SMILES": "O=C1N(CC(CNC(=O)C2=CC=CS2)O1)C3=CC=C(C=C3)N4C(=O)COCC4", "physical_data": {"Molecular Weight": "401.44", "Molecular Formula": "C19H19N3O5S", "Melting Point": "200-203 \u00b0C"}}