{"cas_no": "14159-57-0", "cn_name": "ALPHA-\u82ef\u57fa-2-\u5421\u5576\u7532\u9187", "en_name": ["\u03b1-Phenyl-2-pyridinemethanol", "2-Pyridinemethanol, \u03b1-phenyl-", "\u03b1-Phenyl-2-pyridinemethanol", "Phenyl-2-pyridylcarbinol", "2-(\u03b1-Hydroxybenzyl)pyridine", "(\u00b1)-2-Pyridylphenylmethanol", "(\u00b1)-2-(\u03b1-Hydroxybenzyl)pyridine", "Phenyl(2-pyridinyl)methanol", "Phenyl(2-pyridyl)methanol", "NSC 241060", "1-Phenyl-1-(pyridin-2-yl)methanol"], "SMILES": "C(O)(C1=CC=CC=C1)C2=CC=CC=N2", "physical_data": {"Molecular Weight": "185.22", "Molecular Formula": "C12H11NO", "Boiling Point": "127-129 \u00b0C @ Press: 0.3 Torr", "Melting Point": "82 \u00b0C"}}