{"cas_no": "14161-11-6", "cn_name": "3,4,5-\u4e09\u6c2f\u54d2\u55ea", "en_name": ["3,4,5-Trichloropyridazine", "Pyridazine, 3,4,5-trichloro-", "3,4,5-Trichloropyridazine", "NSC 75074"], "SMILES": "ClC=1C(Cl)=CN=NC1Cl", "physical_data": {"Molecular Weight": "183.42", "Molecular Formula": "C4HCl3N2", "Boiling Point": "117-118 \u00b0C @ Press: 14-15 Torr", "Melting Point": "56-58 \u00b0C"}}