{"cas_no": "14166-21-3", "cn_name": "(+/-)-\u53cd-1,2-\u73af\u5df1\u4e8c\u7fa7\u9178\u9150", "en_name": ["trans-1,2-Cyclohexanedicarboxylic anhydride", "1,3-Isobenzofurandione, hexahydro-, (3aR,7aR)-rel-", "1,2-Cyclohexanedicarboxylic anhydride, trans-", "1,3-Isobenzofurandione, hexahydro-, trans-", "rel-(3aR,7aR)-Hexahydro-1,3-isobenzofurandione", "trans-1,2-Cyclohexanedicarboxylic anhydride", "trans-Hexahydrophthalic anhydride", "dl-trans-1,2-Cyclohexanedicarboxylic anhydride", "trans-Cyclohexane-1,2-dicarboxylic acid anhydride", "rel-(3aS,7aS)-Hexahydroisobenzofuran-1,3-dione"], "SMILES": "O=C1C2C(C(=O)O1)CCCC2", "physical_data": {"Molecular Weight": "154.16", "Molecular Formula": "C8H10O3", "Melting Point": "218-220 \u00b0C"}}