{"cas_no": "14167-18-1", "cn_name": "\u53cc\u6c34\u6768\u9170\u80fa\u4e59\u57fa\u94b4", "en_name": ["Cobalt salen", "Cobalt, [[2,2\u2032-[1,2-ethanediylbis[(nitrilo-\u03baN)methylidyne]]bis[phenolato-\u03baO]](2-)]-, (SP-4-2)-", "Cobalt, [[\u03b1,\u03b1\u2032-(ethylenedinitrilo)di-o-cresolato](2-)]-", "Cobalt, [[2,2\u2032-[1,2-ethanediylbis(nitrilomethylidyne)]bis[phenolato]](2-)-N,N\u2032,O,O\u2032]-, (SP-4-2)-", "o-Cresol, \u03b1,\u03b1\u2032-(ethylenedinitrilo)di-, Co deriv.", "(SP-4-2)-[[2,2\u2032-[1,2-Ethanediylbis[(nitrilo-\u03baN)methylidyne]]bis[phenolato-\u03baO]](2-)]cobalt", "[N,N\u2032-Ethylenebis(salicylaldehyde iminato)]cobalt(II)", "[N,N\u2032-Ethylenebis(salicylideniminato)]cobalt", "N,N\u2032-Ethylenebis(salicylideniminato)cobalt(II)", "Salcomine", "Salcomin", "Bis(salicylidene)ethylenediaminatocobalt(II)", "Cobalt bis(salicylidene)ethylenediamine", "[Bis(salicylidene)ethylenediamine]cobalt", "Co(salen)", "Cobalt salen", "[N,N\u2032-Bis(salicylidene)ethylenediaminato]cobalt", "[N,N\u2032-Disalicylideneethylenediamine]cobalt", "[Bis(salicylidene)ethylenediaminato]cobalt", "NSC 32965", "(N,N\u2032-Bis(salicylidene)ethylenediamine)cobalt(II)", "[2,2\u2032-[Ethane-1,2-diylbis(nitrilomethylidene)]diphenolato]cobalt(II)", "[N,N\u2032-Bis(salicylidene)ethane-1,2-diaminato]cobalt(II)"], "SMILES": "[Co+2]123[N](=CC=4C([O-]1)=CC=CC4)CC[N]2=CC=5C([O-]3)=CC=CC5", "physical_data": {"Molecular Weight": "", "Molecular Formula": "C16H14CoN2O2", "Melting Point": "&gt;300 \u00b0C"}}