{"cas_no": "1416439-08-1", "cn_name": "spiro[3.3]heptan-2-amine hydrochloride", "en_name": ["Spiro[3.3]heptan-2-amine, hydrochloride (1:1)", "Spiro[3.3]heptan-2-amine, hydrochloride (1:1)", "Spiro[3.3]heptan-2-amine hydrochloride"], "SMILES": "NC1CC2(C1)CCC2.Cl", "physical_data": {"Molecular Weight": "", "Molecular Formula": "C7H13N.ClH", "Melting Point": "236-237 \u00b0C"}}