{"cas_no": "14167-59-0", "cn_name": "\u6b63\u4e09\u5341\u56db\u70f7", "en_name": ["Tetratriacontane", "Tetratriacontane", "n-Tetratriacontane", "NSC 2998"], "SMILES": "C(CCCCCCCCCCCCCCCCC)CCCCCCCCCCCCCCCC", "physical_data": {"Molecular Weight": "478.92", "Molecular Formula": "C34H70", "Boiling Point": "483 \u00b0C", "Melting Point": "72.6 \u00b0C"}}