{"cas_no": "14165-55-0", "cn_name": "\u56db\u4e59\u6c27\u57fa\u94ed", "en_name": ["Germanium tetraethoxide", "Ethanol, germanium(4+) salt (4:1)", "Ethyl alcohol, germanium(4+) salt", "Ethanol, germanium(4+) salt", "Ethyl germanate(IV)", "Tetraethoxygermanium", "Tetraethyl germanate", "Germane, tetraethoxy-", "Germanium tetraethoxide", "Germanium ethoxide", "Ethyl orthogermanate", "Tetraethoxygermane", "Germanium ethylate", "Germanium tetraethoxide (Ge(OEt)4)", "Ethyl germanate, Et4GeO4", "Germanium(IV) ethoxide"], "SMILES": "C(C)O.[Ge]", "physical_data": {"Molecular Weight": "", "Molecular Formula": "C2H6O.<sup>1</sup>/4Ge", "Boiling Point": "185-186 \u00b0C", "Melting Point": "-72 \u00b0C", "Density": "1.134 g/cm\u00b3"}}