{"cas_no": "141699-59-4", "cn_name": "1-Boc-4-\u7532\u70f7\u78fa\u9170\u6c27\u57fa\u54cc\u5576", "en_name": ["4-[(Methylsulfonyl)oxy]piperidine-1-carboxylic acid tert-butyl ester", "1-Piperidinecarboxylic acid, 4-[(methylsulfonyl)oxy]-, 1,1-dimethylethyl ester", "1-(tert-Butoxycarbonyl)-4-piperidinyl methanesulfonate", "tert-Butyl 4-methylsulfonyloxy-1-piperidinecarboxylate", "1-tert-Butoxycarbonyl-4-methylsulfonyloxypiperidine", "1-(tert-Butoxycarbonyl)-4-methanesulfonyloxypiperidine", "1,1-Dimethylethyl 4-[(methylsulfonyl)oxy]-1-piperidinecarboxylate", "tert-Butyl 4-(methanesulfonyloxy)piperidine-1-carboxylate", "4-[(Methylsulfonyl)oxy]piperidine-1-carboxylic acid tert-butyl ester", "1-Boc-4-(methylsulfonyloxy)piperidine", "tert-Butyl 4-(methylsulfonyloxy)piperidin-1-carboxylate", "4-Methanesulfonyloxy-piperidine-1-carboxylic acid tert-butyl ester"], "SMILES": "O(S(C)(=O)=O)C1CCN(C(OC(C)(C)C)=O)CC1", "physical_data": {"Molecular Weight": "279.35", "Molecular Formula": "C11H21NO5S", "Melting Point": "193-195 \u00b0C"}}