{"cas_no": "1416134-49-0", "cn_name": "(2S,5R)-\u82c4\u6c27\u80fa\u57fa\u54cc\u5576-2-\u7532\u9170\u80fa", "en_name": ["(2S,5R)-5-[(Phenylmethoxy)amino]-2-piperidinecarboxamide", "2-Piperidinecarboxamide, 5-[(phenylmethoxy)amino]-, (2S,5R)-", "(2S,5R)-5-[(Phenylmethoxy)amino]-2-piperidinecarboxamide"], "SMILES": "N(OCC1=CC=CC=C1)C2CCC(C(N)=O)NC2", "physical_data": {"Molecular Weight": "249.31", "Molecular Formula": "C13H19N3O2", "Melting Point": "148.2-150.9 \u00b0C"}}