{"cas_no": "141645-16-1", "cn_name": "2-\u4e01\u57fa-3-(4-\u7f9f\u57fa\u82ef\u7532\u9170\u57fa)-5-\u785d\u57fa\u82ef\u5e76\u544b\u5583", "en_name": ["2-(n-Butyl)-3-(4-hydroxybenzoyl)-5-nitrobenzofuran", "Methanone, (2-butyl-5-nitro-3-benzofuranyl)(4-hydroxyphenyl)-", "(2-Butyl-5-nitro-3-benzofuranyl)(4-hydroxyphenyl)methanone", "2-(n-Butyl)-3-(4-hydroxybenzoyl)-5-nitrobenzofuran", "2-Butyl-3-(4-hydroxybenzoyl)-5-nitrobenzofuran", "(2-Butyl-5-nitrobenzo[b]furan-3-yl)(4-hydroxyphenyl)methanone", "(2-Butyl-5-nitrobenzofuran-3-yl)(4-hydroxyphenyl)methanone", "(2-Butyl-5-nitro-1-benzofuran-3-yl)-(4-hydroxyphenyl)methanone"], "SMILES": "C(=O)(C=1C=2C(OC1CCCC)=CC=C(N(=O)=O)C2)C3=CC=C(O)C=C3", "physical_data": {"Molecular Weight": "339.34", "Molecular Formula": "C19H17NO5", "Melting Point": "120-122 \u00b0C"}}