{"cas_no": "1416881-53-2", "cn_name": "2,3,5,6-\u56db(9-\u5494\u5511\u57fa)-\u5bf9\u82ef\u4e8c\u8148", "en_name": ["2,3,5,6-Tetra-9H-carbazol-9-yl-1,4-benzenedicarbonitrile", "1,4-Benzenedicarbonitrile, 2,3,5,6-tetra-9H-carbazol-9-yl-", "2,3,5,6-Tetra-9H-carbazol-9-yl-1,4-benzenedicarbonitrile", "1,2,4,5-Tetrakis(carbazol-9-yl)-3,6-dicyanobenzene", "2,3,5,6-Tetrakis(carbazol-9-yl)-1,4-dicyanobenzene", "4CzTPN", "2,3,5,6-Tetra(9H-carbazol-9-yl)terephthalonitrile", "2,3,5,6-Tetra(carbazol-9-yl)terephthalonitrile"], "SMILES": "C(#N)C=1C(=C(C(C#N)=C(C1N2C=3C(C=4C2=CC=CC4)=CC=CC3)N5C=6C(C=7C5=CC=CC7)=CC=CC6)N8C=9C(C=%10C8=CC=CC%10)=CC=CC9)N%11C=%12C(C=%13C%11=CC=CC%13)=CC=CC%12", "physical_data": {"Molecular Weight": "788.89", "Molecular Formula": "C56H32N6", "Melting Point": "&gt;360 \u00b0C"}}