{"cas_no": "14165-18-5", "cn_name": "N-\u7532\u57fa-N-\u82c4\u57fa-1,2-\u4e59\u4e8c\u80fa", "en_name": ["N1-Methyl-N1-(phenylmethyl)-1,2-ethanediamine", "1,2-Ethanediamine, N1-methyl-N1-(phenylmethyl)-", "Ethylenediamine, N-benzyl-N-methyl-", "1,2-Ethanediamine, N-methyl-N-(phenylmethyl)-", "N1-Methyl-N1-(phenylmethyl)-1,2-ethanediamine", "N-Benzyl-N-methylethylenediamine", "N-Benzyl-N-methylethane-1,2-diamine", "1,2-Ethanediamine N1-methyl-N1-(phenylmethyl)-"], "SMILES": "C(N(CCN)C)C1=CC=CC=C1", "physical_data": {"Molecular Weight": "164.25", "Molecular Formula": "C10H16N2", "Boiling Point": "122 \u00b0C @ Press: 13 Torr", "Melting Point": "124-128 \u00b0C"}}