{"cas_no": "14177-51-6", "cn_name": "\u94a8\u9178\u954d", "en_name": ["Nickel tungsten oxide (NiWO4)", "Nickel tungsten oxide (NiWO4)", "Tungstic acid (H2WO4), nickel(2+) salt (1:1)", "Nickel tungstate(VI) (NiWO4)", "Nickel tungstate (NiWO4)"], "SMILES": "[Ni].[W].[O]", "physical_data": {"Molecular Weight": "", "Molecular Formula": "Ni.O.W", "Melting Point": "1420 \u00b0C"}}