{"cas_no": "14176-49-9", "cn_name": "\u66ff\u6765\u4ed6\u660e", "en_name": ["Tiletamine", "Cyclohexanone, 2-(ethylamino)-2-(2-thienyl)-", "2-(Ethylamino)-2-(2-thienyl)cyclohexanone", "Tiletamine", "2-(Ethylamino)-2-(thiophen-2-yl)cyclohexanone", "2-(Ethylamino)-2-(thiophen-2-yl)cyclohexan-1-one"], "SMILES": "N(CC)C1(C(=O)CCCC1)C2=CC=CS2", "physical_data": {"Molecular Weight": "223.33", "Molecular Formula": "C12H17NOS", "Melting Point": "41-43 \u00b0C"}}