{"cas_no": "14177-55-0", "cn_name": "\u954d\u94bc\u6c27\u5316\u7269", "en_name": ["Molybdenum nickel oxide (MoNiO4)", "Molybdenum nickel oxide (MoNiO4)", "Molybdic acid (H2MoO4), nickel(2+) salt (1:1)", "Nickel molybdate(VI) (NiMoO4)", "Nickel molybdate (NiMoO4)", "Nickelous molybdate", "Nickel molybdenum oxide (NiMoO4)"], "SMILES": "[Mo].[Ni].[O]", "physical_data": {"Molecular Weight": "", "Molecular Formula": "Mo.Ni.O", "Melting Point": "1310 \u00b0C"}}