{"cas_no": "14173-30-9", "cn_name": "3-\u7f9f\u57fa-2-\u7f9f\u7532\u57fa\u5421\u5576\u76d0\u9178\u76d0", "en_name": ["2-Pyridinemethanol, 3-hydroxy-, hydrochloride (1:1)", "2-Pyridinemethanol, 3-hydroxy-, hydrochloride (1:1)", "2-Pyridinemethanol, 3-hydroxy-, hydrochloride", "2-(Hydroxymethyl)-3-hydroxypyridine hydrochloride", "3-Hydroxy-2-pyridinemethanol hydrochloride", "3-Hydroxy-2-(hydroxymethyl)pyridine hydrochloride", "2-(Hydroxymethyl)pyridin-3-ol hydrochloride"], "SMILES": "C(O)C1=C(O)C=CC=N1.Cl", "physical_data": {"Molecular Weight": "", "Molecular Formula": "C6H7NO2.ClH", "Melting Point": "206 \u00b0C"}}