{"cas_no": "14173-25-2", "cn_name": "\u7532\u57fa\u82ef\u57fa\u4e8c\u786b\u919a", "en_name": ["Methyl phenyl disulfide", "Disulfide, methyl phenyl", "Methyl phenyl disulfide", "Phenyl methyl disulfide", "NSC 677545", "NSC 87076", "(Methyldisulfanyl)benzene"], "SMILES": "S(SC)C1=CC=CC=C1", "physical_data": {"Molecular Weight": "156.27", "Molecular Formula": "C7H8S2", "Boiling Point": "83-84 \u00b0C @ Press: 1 Torr"}}