{"cas_no": "14173-39-8", "cn_name": "L-4-\u6c2f\u82ef\u4e19\u6c28\u9178", "en_name": ["4-Chloro-L-phenylalanine", "L-Phenylalanine, 4-chloro-", "Alanine, 3-(p-chlorophenyl)-, L-", "4-Chloro-L-phenylalanine", "L-p-Chlorophenylalanine", "p-Chloro-L-phenylalanine", "L-4-Chlorophenylalanine", "(S)-4-Chlorophenylalanine", "(S)-2-Amino-3-(4-chlorophenyl)propanoicacid", "(2S)-2-Amino-3-(4-chlorophenyl)propanoic acid"], "SMILES": "C(C(C(O)=O)N)C1=CC=C(Cl)C=C1", "physical_data": {"Molecular Weight": "199.63", "Molecular Formula": "C9H10ClNO2", "Melting Point": "259-264 \u00b0C"}}