{"cas_no": "14173-40-1", "cn_name": "4-\u6c2f-DL-\u82ef\u4e19\u6c28\u9178\u7532\u916f\u76d0\u9178\u76d0", "en_name": ["Phenylalanine, 4-chloro-, methyl ester, hydrochloride (1:1)", "Phenylalanine, 4-chloro-, methyl ester, hydrochloride (1:1)", "Alanine, 3-(p-chlorophenyl)-, methyl ester, hydrochloride, DL-", "DL-Phenylalanine, 4-chloro-, methyl ester, hydrochloride", "Phenylalanine, 4-chloro-, methyl ester, hydrochloride", "DL-(p-Chlorophenyl)alanine methyl ester hydrochloride", "p-Chlorophenylalanine methyl ester hydrochloride", "4-Chlorophenylalanine methyl ester hydrochloride", "DL-(4-Chlorophenyl)alanine methyl ester hydrochloride"], "SMILES": "C(C(C(OC)=O)N)C1=CC=C(Cl)C=C1.Cl", "physical_data": {"Molecular Weight": "", "Molecular Formula": "C10H12ClNO2.ClH", "Melting Point": "185-186 \u00b0C"}}