{"cas_no": "141776-32-1", "cn_name": "\u78fa\u9170\u78fa\u9686", "en_name": ["Sulfosulfuron", "Imidazo[1,2-a]pyridine-3-sulfonamide, N-[[(4,6-dimethoxy-2-pyrimidinyl)amino]carbonyl]-2-(ethylsulfonyl)-", "N-[[(4,6-Dimethoxy-2-pyrimidinyl)amino]carbonyl]-2-(ethylsulfonyl)imidazo[1,2-a]pyridine-3-sulfonamide", "MON 37500", "Sulfosulfuron", "MON 37532", "Monitor", "Monitor (herbicide)", "Apyros", "Apyros 75WG", "MON 37560", "Monza", "N-(2-Ethylsulfonylimidazo[1,2-a]pyridin-3-ylsulfonyl)-N\u2032-(4,6-dimethoxy-2-pyrimidinyl)urea", "Maverick", "Apirus"], "SMILES": "S(NC(NC=1N=C(OC)C=C(OC)N1)=O)(=O)(=O)C=2N3C(=NC2S(CC)(=O)=O)C=CC=C3", "physical_data": {"Molecular Weight": "470.48", "Molecular Formula": "C16H18N6O7S2", "Melting Point": "201.4 \u00b0C"}}