{"cas_no": "14174-09-5", "cn_name": "\u4e8c\u82ef\u5e76-24-\u51a0\u919a-8", "en_name": ["Dibenzo-24-crown-8", "Dibenz[b,n][1,4,7,10,13,16,19,22]octaoxacyclotetracosin, 6,7,9,10,12,13,20,21,23,24,26,27-dodecahydro-", "6,7,9,10,12,13,20,21,23,24,26,27-Dodecahydrodibenz[b,n][1,4,7,10,13,16,19,22]octaoxacyclotetracosin", "Dibenzo-24-crown-8", "Dibenzo24C8", "NSC 244972", "Dibenzo-24-crown-8 ether"], "SMILES": "C=12C(=CC=CC1)OCCOCCOCCOC=3C(OCCOCCOCCO2)=CC=CC3", "physical_data": {"Molecular Weight": "448.51", "Molecular Formula": "C24H32O8", "Melting Point": "103-105 \u00b0C"}}