{"cas_no": "14178-15-5", "cn_name": "3-\u6c30\u57fa-2-\u82ef\u6c27\u57fa\u5421\u5576", "en_name": ["2-Phenoxy-3-pyridinecarbonitrile", "3-Pyridinecarbonitrile, 2-phenoxy-", "Nicotinonitrile, 2-phenoxy-", "2-Phenoxy-3-pyridinecarbonitrile", "2-Phenoxynicotinonitrile", "2-Phenoxy-3-cyanopyridine"], "SMILES": "O(C1=C(C#N)C=CC=N1)C2=CC=CC=C2", "physical_data": {"Molecular Weight": "196.20", "Molecular Formula": "C12H8N2O", "Melting Point": "109-110 \u00b0C"}}