{"cas_no": "1417456-04-2", "cn_name": "2-\u6c28\u57fa-6-\u6c1f-N-\u82ef\u57fa\u82ef\u80fa", "en_name": ["2-Amino-6-fluoro-N-phenylbenzamide", "Benzamide, 2-amino-6-fluoro-N-phenyl-", "2-Amino-6-fluoro-N-phenylbenzamide", "2-Fluoro-6-amino-N-phenylbenzamide"], "SMILES": "C(NC1=CC=CC=C1)(=O)C2=C(F)C=CC=C2N", "physical_data": {"Molecular Weight": "230.24", "Molecular Formula": "C13H11FN2O", "Melting Point": "114-115 \u00b0C"}}