{"cas_no": "14172-92-0", "cn_name": "\u56db\u82ef\u57fa\u535f\u5549\u954d", "en_name": ["Nickel tetraphenylporphyrin", "Nickel, [5,10,15,20-tetraphenyl-21H,23H-porphinato(2-)-\u03baN21,\u03baN22,\u03baN23,\u03baN24]-, (SP-4-1)-", "Nickel, [5,10,15,20-tetraphenylporphinato(2-)]-", "Nickel, [5,10,15,20-tetraphenyl-21H,23H-porphinato(2-)-N21,N22,N23,N24]-, (SP-4-1)-", "Nickel, [\u03b1,\u03b2,\u03b3,\u03b4-tetraphenylporphinato(2-)]-", "Porphine, \u03b1,\u03b2,\u03b3,\u03b4-tetraphenyl-, Ni deriv.", "21H,23H-Porphine, 5,10,15,20-tetraphenyl-, nickel complex", "21H,23H-Porphine, nickel deriv.", "[5,10,15,20-Tetraphenylporphinato(2-)]nickel", "Tetraphenylporphine nickel complex", "[meso-Tetraphenylporphinato(2-)]nickel", "Nickel tetraphenylporphine", "Nickel tetraphenylporphyrin", "Nickel(II) 5,10,15,20-tetraphenylporphine", "Nickel(II) tetraphenylporphyrin", "Nickel meso-tetraphenylporphyrin", "(5,10,15,20-Tetraphenylporphyrinato)nickel", "Nickel 5,10,15,20-tetraphenyl-21H,23H-porphyrin", "Nickel(II) meso-tetraphenylporphyrin", "(meso-Tetraphenylporphinato)nickel", "(Tetraphenylporphyrinato)nickel", "(meso-Tetraphenylporphinato)nickel(II)", "Nickel 5,10,15,20-tetraphenylporphyrin", "(meso-Tetraphenylporphyrinato)nickel", "Nickel(II) meso-tetraphenylporphine", "5,10,15,20-Tetraphenylporphyrin nickel"], "SMILES": "[Ni+2]123[N-]4C5=C(C6=[N]1C(=C(C=7[N-]2C(C(=C8[N]3=C(C(=C4C=C5)C9=CC=CC=C9)C=C8)C%10=CC=CC=C%10)=CC7)C%11=CC=CC=C%11)C=C6)C%12=CC=CC=C%12", "physical_data": {"Molecular Weight": "", "Molecular Formula": "C44H28N4Ni", "Melting Point": "&gt;300 \u00b0C"}}