{"cas_no": "14186-60-8", "cn_name": "2-\u7532\u57fa-1,4-\u82ef\u4e8c\u7532\u9178\u4e8c\u7532\u916f", "en_name": ["1,4-Dimethyl 2-methyl-1,4-benzenedicarboxylate", "1,4-Benzenedicarboxylic acid, 2-methyl-, 1,4-dimethyl ester", "Terephthalic acid, methyl-, dimethyl ester", "1,4-Benzenedicarboxylic acid, 2-methyl-, dimethyl ester", "1,4-Dimethyl 2-methyl-1,4-benzenedicarboxylate", "Dimethyl 2-methylterephthalate", "Dimethyl methylterephthalate", "Dimethyl 3-methylterephthalate"], "SMILES": "C(OC)(=O)C1=C(C)C=C(C(OC)=O)C=C1", "physical_data": {"Molecular Weight": "208.21", "Molecular Formula": "C11H12O4", "Boiling Point": "156 \u00b0C @ Press: 10 Torr", "Melting Point": "75.5 \u00b0C"}}