{"cas_no": "14187-32-7", "cn_name": "\u4e8c\u82ef\u5e76-18-\u51a0\u919a-6", "en_name": ["Dibenzo-18-crown-6", "Dibenzo[b,k][1,4,7,10,13,16]hexaoxacyclooctadecin, 6,7,9,10,17,18,20,21-octahydro-", "6,7,9,10,17,18,20,21-Octahydrodibenzo[b,k][1,4,7,10,13,16]hexaoxacyclooctadecin", "Crown 18", "Dibenzo-18-crown-6", "Dibenzo[b,k][1,4,7,10,13,16]hexaoxacyclooctadecane", "2,3:11,12-Dibenzo-1,4,7,10,13,16-hexaoxacyclooctadecane", "NSC 147771", "Tin(II) ionophore I"], "SMILES": "C=12C(=CC=CC1)OCCOCCOC=3C(OCCOCCO2)=CC=CC3", "physical_data": {"Molecular Weight": "360.40", "Molecular Formula": "C20H24O6", "Melting Point": "162-164 \u00b0C", "Density": "1.400 g/cm\u00b3"}}