{"cas_no": "14188-94-4", "cn_name": "3-\u4e59\u9170\u57fa\u5421\u5576N-\u6c27\u5316\u7269", "en_name": ["1-(1-Oxido-3-pyridinyl)ethanone", "Ethanone, 1-(1-oxido-3-pyridinyl)-", "Ketone, methyl 3-pyridyl, N-oxide", "Ethanone, 1-(3-pyridinyl)-, N-oxide", "Ketone, methyl 3-pyridyl, 1-oxide", "1-(1-Oxido-3-pyridinyl)ethanone", "3-Acetylpyridine 1-oxide", "3-Acetylpyridine N-oxide", "1-(1-Oxopyridin-3-yl)ethanone", "1-(1-Oxidopyridin-1-ium-3-yl)ethanone", "3-Acetylpyridin-1-ium-1-olate"], "SMILES": "C(C)(=O)C1=CN(=O)=CC=C1", "physical_data": {"Molecular Weight": "137.14", "Molecular Formula": "C7H7NO2", "Melting Point": "142 \u00b0C"}}