{"cas_no": "141846-57-3", "cn_name": "1-\u6c2f-2-\u8131\u6c27-3,5-\u4e8c-O-\u5bf9\u7532\u82ef\u7532\u9170\u57fa-L-\u544b\u5583\u6838\u7cd6", "en_name": ["\u03b1-L-erythro-Pentofuranosyl chloride, 2-deoxy-, 3,5-bis(4-methylbenzoate)", "\u03b1-L-erythro-Pentofuranosyl chloride, 2-deoxy-, 3,5-bis(4-methylbenzoate)", "\u03b1-L-erythro-Pentofuranosyl chloride, 2-deoxy-, bis(4-methylbenzoate)", "3,5-Di-O-(4-methylbenzoyl)-2-deoxy-\u03b1-L-erythro-pentofuranosyl chloride"], "SMILES": "C(OC(=O)C1=CC=C(C)C=C1)C2C(OC(=O)C3=CC=C(C)C=C3)CC(Cl)O2", "physical_data": {"Molecular Weight": "388.84", "Molecular Formula": "C21H21ClO5", "Melting Point": "118-121 \u00b0C"}}