{"cas_no": "14189-82-3", "cn_name": "3-(N-\u82ef\u57fa-N-\u7532\u57fa)\u6c28\u57fa\u4e19\u70ef\u919b", "en_name": ["3-(Methylphenylamino)-2-propenal", "2-Propenal, 3-(methylphenylamino)-", "Acrolein, 3-(N-methylanilino)-", "3-(Methylphenylamino)-2-propenal", "3-(N-Methylanilino)acrolein", "3-(N-Methyl-N-phenylamino)acrolein", "N-Methyl-N-phenyl-3-aminoacrolein", "3-(Methylphenylamino)acrolein"], "SMILES": "N(C=CC=O)(C)C1=CC=CC=C1", "physical_data": {"Molecular Weight": "161.20", "Molecular Formula": "C10H11NO", "Boiling Point": "144-145 \u00b0C @ Press: 0.8 Torr", "Melting Point": "166 \u00b0C (decomp)"}}