{"cas_no": "14191-95-8", "cn_name": "\u5bf9\u7f9f\u57fa\u82ef\u4e59\u8148", "en_name": ["4-Hydroxybenzyl cyanide", "Benzeneacetonitrile, 4-hydroxy-", "Acetonitrile, (p-hydroxyphenyl)-", "4-Hydroxybenzeneacetonitrile", "p-Hydroxybenzyl cyanide", "p-Hydroxyphenylacetonitrile", "(4-Hydroxyphenyl)acetonitrile", "4-Hydroxybenzyl cyanide", "\u03b1-Cyano-p-cresol", "4-(Cyanomethyl)phenol", "4-Hydroxybenzylnitrile", "NSC 76080", "2-(4-Hydroxyphenyl)acetonitrile"], "SMILES": "C(C#N)C1=CC=C(O)C=C1", "physical_data": {"Molecular Weight": "133.15", "Molecular Formula": "C8H7NO", "Melting Point": "65-70 \u00b0C"}}