{"cas_no": "14199-15-6", "cn_name": "4-\u7f9f\u57fa\u82ef\u4e59\u9178\u7532\u916f", "en_name": ["Methyl (4-hydroxyphenyl)acetate", "Benzeneacetic acid, 4-hydroxy-, methyl ester", "Acetic acid, (p-hydroxyphenyl)-, methyl ester", "Methyl (4-hydroxyphenyl)acetate", "Methyl (p-hydroxyphenyl)acetate", "4-Hydroxybenzeneacetic acid methyl ester", "Methyl 4-hydroxybenzeneacetate", "(4-Hydroxyphenyl)acetic acid methyl ester", "Methyl 2-(4-hydroxyphenyl)acetate", "Methyl 2-(p-hydroxyphenyl)acetate", "p-Hydroxyphenylacetic acid methyl ester", "Methyl 2-(4\u2032-hydroxyphenyl)acetate"], "SMILES": "C(C(OC)=O)C1=CC=C(O)C=C1", "physical_data": {"Molecular Weight": "166.17", "Molecular Formula": "C9H10O3", "Boiling Point": "169-171 \u00b0C @ Press: 8.5 Torr", "Melting Point": "54-56 \u00b0C"}}