{"cas_no": "14192-12-2", "cn_name": "2,5-\u4e8c\u7898\u82ef\u7532\u9178", "en_name": ["2,5-Diiodobenzoic acid", "Benzoic acid, 2,5-diiodo-", "2,5-Diiodobenzoic acid", "NSC 97505"], "SMILES": "C(O)(=O)C1=C(I)C=CC(I)=C1", "physical_data": {"Molecular Weight": "373.91", "Molecular Formula": "C7H4I2O2", "Melting Point": "183 \u00b0C"}}