{"cas_no": "141940-37-6", "cn_name": "TERT-BUTYL 2-NITRO-4-(TRIFLUOROMETHYL)-PHENYLCARBAMATE", "en_name": ["1,1-Dimethylethyl N-[4-(trifluoromethyl)phenyl]carbamate", "Carbamic acid, N-[4-(trifluoromethyl)phenyl]-, 1,1-dimethylethyl ester", "Carbamic acid, [4-(trifluoromethyl)phenyl]-, 1,1-dimethylethyl ester", "1,1-Dimethylethyl N-[4-(trifluoromethyl)phenyl]carbamate", "tert-Butyl 4-trifluoromethylphenylcarbamate", "(4-Trifluoromethylphenyl)carbamic acid tert-butyl ester"], "SMILES": "C(F)(F)(F)C1=CC=C(NC(OC(C)(C)C)=O)C=C1", "physical_data": {"Molecular Weight": "261.24", "Molecular Formula": "C12H14F3NO2", "Melting Point": "123-124 \u00b0C"}}