{"cas_no": "14197-60-5", "cn_name": "\u4eba\u53c2\u7682\u7519 RG3", "en_name": ["Ginsenoside Rg3", "\u03b2-D-Glucopyranoside, (3\u03b2,12\u03b2)-12,20-dihydroxydammar-24-en-3-yl 2-O-\u03b2-D-glucopyranosyl-", "Dammar-24-ene-12\u03b2,20-diol, 3\u03b2-[(2-O-\u03b2-D-glucopyranosyl-\u03b2-D-glucopyranosyl)oxy]-", "Dammarane, \u03b2-D-glucopyranoside deriv.", "(3\u03b2,12\u03b2)-12,20-Dihydroxydammar-24-en-3-yl 2-O-\u03b2-D-glucopyranosyl-\u03b2-D-glucopyranoside", "(20S)-Propanaxadiol", "Ginsenoside Rg3", "20(S)-Ginsenoside-Rg3", "(3\u03b2,12\u03b2)-12,20-Dihydroxydammar-24-en-3-yl O-\u03b2-D-glucopyranosyl-(1\u21922)-\u03b2-D-glucopyranoside", "3-O-\u03b2-D-Glucopyranosyl-(1\u21922)-\u03b2-D-glucopyranosyldammar-24-ene-3\u03b2,12\u03b2,20S-triol", "S-Ginsenoside Rg3", "Ginsenoside 20-Rg3", "20S-Ginsenoside Rg3", "20(S)-Rg3", "Ginsenoside Rg3s"], "SMILES": "CC12C3(C)C(C(C(CCC=C(C)C)(C)O)CC3)C(O)CC1C4(C)C(CC2)C(C)(C)C(OC5C(OC6OC(CO)C(O)C(O)C6O)C(O)C(O)C(CO)O5)CC4", "physical_data": {"Molecular Weight": "785.01", "Molecular Formula": "C42H72O13", "Melting Point": "146-147 \u00b0C"}}