{"cas_no": "14193-38-5", "cn_name": "\u987a\u5f0f-4,5-\u4e8c\u7f9f\u57fa-1,2-\u4e8c\u567b\u70f7", "en_name": ["(\u00b1)-trans-1,2-Dithiane-4,5-diol", "1,2-Dithiane-4,5-diol, (4R,5R)-rel-", "o-Dithiane-4,5-diol, trans-", "1,2-Dithiane-4,5-diol, trans-", "rel-(4R,5R)-1,2-Dithiane-4,5-diol", "trans-1,2-Dithiane-4,5-diol", "trans-4,5-Dihydroxy-o-dithiane", "trans-4,5-Dihydroxy-1,2-dithiane", "NSC 663605", "(\u00b1)-trans-1,2-Dithiane-4,5-diol"], "SMILES": "OC1C(O)CSSC1", "physical_data": {"Molecular Weight": "152.24", "Molecular Formula": "C4H8O2S2", "Melting Point": "129-130 \u00b0C"}}