{"cas_no": "142-62-1", "cn_name": "\u5df1\u9178", "en_name": ["Hexanoic acid", "Hexanoic acid", "Butylacetic acid", "Caproic acid", "Capronic acid", "n-Hexoic acid", "n-Hexanoic acid", "Pentylformic acid", "n-Caproic acid", "n-Hexylic acid", "1-Pentanecarboxylic acid", "Hexoic acid", "1-Hexanoic acid", "Hexylic acid", "NSC 35598", "NSC 8266", "NAA 60"], "SMILES": "C(CCCC)C(O)=O", "physical_data": {"Molecular Weight": "116.16", "Molecular Formula": "C6H12O2", "Boiling Point": "205.8 \u00b0C", "Melting Point": "-3.4 \u00b0C", "Density": "0.929 g/cm\u00b3 @ Temp: 20 \u00b0C"}}