{"cas_no": "142-91-6", "cn_name": "\u68d5\u6988\u9178\u5f02\u4e19\u916f", "en_name": ["Isopropyl palmitate", "Hexadecanoic acid, 1-methylethyl ester", "Palmitic acid, isopropyl ester", "Deltyl", "Deltyl Prime", "Emcol IP", "Isopal", "Isopropyl palmitate", "Propal", "Sinnoester PIT", "Kessco IPP", "Wickenol 111", "Crodamol IPP", "Emerest 2316", "Isopalm", "Stepan D 70", "Isopropyl hexadecanoate", "Nikkol IPP", "IPP", "1-Methylethyl hexadecanoate", "Exceparl IPP", "Estol 1517", "IPP-EX", "Palmsurf IPP 98", "Lexol IPP", "NSC 69169", "Versagel MP 1600", "Stepan IPP", "Neoderm IPP", "Nikkol IPP-EX", "SR Crodamol IPP-LQ", "IPP-R", "Radia 7732", "Tegosoft P"], "SMILES": "C(CCCCCCCCCCCCC)CC(OC(C)C)=O", "physical_data": {"Molecular Weight": "298.50", "Molecular Formula": "C19H38O2", "Boiling Point": "342 \u00b0C", "Melting Point": "13.5 \u00b0C", "Density": "0.8404 g/cm\u00b3 @ Temp: 38 \u00b0C"}}