{"cas_no": "142-94-9", "cn_name": "2-\u6eb4\u4ee3\u786c\u8102\u9178", "en_name": ["2-Bromooctadecanoic acid", "Octadecanoic acid, 2-bromo-", "Stearic acid, \u03b1-bromo-", "2-Bromooctadecanoic acid", "2-Bromostearic acid", "\u03b1-Bromostearic acid", "DL-\u03b1-Bromostearic acid", "NSC 58376"], "SMILES": "C(CCC(C(O)=O)Br)CCCCCCCCCCCCC", "physical_data": {"Molecular Weight": "363.37", "Molecular Formula": "C18H35BrO2", "Melting Point": "58 \u00b0C"}}