{"cas_no": "142-18-7", "cn_name": "1-\u5341\u4e8c\u70f7\u9178\u5355\u7518\u6cb9\u916f", "en_name": ["1-Monolaurin", "Dodecanoic acid, 2,3-dihydroxypropyl ester", "Laurin, 1-mono-", "Glycerol 1-monolaurate", "Glyceryl monolaurate", "\u03b1-Monolaurin", "1-Monolaurin", "Glycerol \u03b1-monolaurate", "Lauric acid 1-monoglyceride", "Glycerin 1-monolaurate", "Glyceryl monododecanoate", "1-Glyceryl laurate", "Lauric acid \u03b1-monoglyceride", "Glyceryl laurate", "Lauricidin", "Dodecanoic acid \u03b1-monoglyceride", "Glycerol 1-laurate", "1-Monododecanoylglycerol", "(\u00b1)-Glyceryl 1-monododecanoate", "1-Monolauroyl-rac-glycerol", "(\u00b1)-2,3-Dihydroxypropyl dodecanoate", "3-Dodecanoyloxy-1,2-propanediol", "NSC 698570", "Glycerol 1-monododecanoate", "2,3-Dihydroxypropyl dodecanoate"], "SMILES": "C(C(OCC(CO)O)=O)CCCCCCCCCC", "physical_data": {"Molecular Weight": "274.40", "Molecular Formula": "C15H30O4", "Melting Point": "52 \u00b0C"}}