{"cas_no": "142-90-5", "cn_name": "\u7532\u57fa\u4e19\u70ef\u9178\u6708\u6842\u916f", "en_name": ["Lauryl methacrylate", "2-Propenoic acid, 2-methyl-, dodecyl ester", "Methacrylic acid, dodecyl ester", "Dodecyl methacrylate", "Dodecyl 2-methyl-2-propenoate", "Lauryl methacrylate", "n-Dodecyl methacrylate", "Sipomer LMA", "LAMA", "1-Dodecyl methacrylate", "Rocryl 320", "SR 313", "Ageflex FM 246", "GE 410 (methacrylate)", "GE 410", "Acryester L", "NSC 5188", "Exceparl L-MA", "Light Ester L", "SR 313E", "MA 13", "MA 13 (methacrylate)", "Blemmer LMA", "LMA", "EM 315", "SR 313NS", "SR 313A", "LMA 2114F", "M 121", "Miramer M 121", "C 12M", "Light Ester LM", "Komerate A 1290M"], "SMILES": "C(CCCCCCCCCCC)OC(C(C)=C)=O", "physical_data": {"Molecular Weight": "254.41", "Molecular Formula": "C16H30O2", "Boiling Point": "272 \u00b0C", "Melting Point": "-20 \u00b0C", "Density": "0.868 g/cm\u00b3 @ Temp: 20 \u00b0C"}}