{"cas_no": "142-30-3", "cn_name": "2,5-\u4e8c\u7532\u57fa-3-\u5df1\u7094-2,5-\u4e8c\u9187", "en_name": ["2,5-Dimethyl-3-hexyne-2,5-diol", "3-Hexyne-2,5-diol, 2,5-dimethyl-", "2,5-Dimethyl-3-hexyne-2,5-diol", "D 43", "Kemitracin 50", "2,5-Dihydroxy-2,5-dimethyl-3-hexyne", "2,5-Dimethyl-2,5-dihydroxy-3-hexyne", "2,5-Dimethyl-3-hexyn-2,5-diol", "Tetramethyl-2-butynediol", "Tetramethyl-2-butyne-1,4-diol", "Olfine Y", "NSC 117261", "NSC 8340"], "SMILES": "C(#CC(C)(C)O)C(C)(C)O", "physical_data": {"Molecular Weight": "142.20", "Molecular Formula": "C8H14O2", "Boiling Point": "205 \u00b0C @ Press: 759 Torr", "Melting Point": "95 \u00b0C", "Density": "0.949 g/cm\u00b3 @ Temp: 20 \u00b0C"}}