{"cas_no": "142-68-7", "cn_name": "\u56db\u6c22\u5421\u5583", "en_name": ["Tetrahydropyran", "2H-Pyran, tetrahydro-", "Pyran, tetrahydro-", "Tetrahydro-2H-pyran", "Oxacyclohexane", "Pentamethylene oxide", "Tetrahydropyran", "Tetrahydropyrane", "THP", "Oxane", "NSC 65448"], "SMILES": "C1CCOCC1", "physical_data": {"Molecular Weight": "86.13", "Molecular Formula": "C5H10O", "Boiling Point": "88 \u00b0C", "Melting Point": "-49.2 \u00b0C", "Density": "0.8814 g/cm\u00b3 @ Temp: 20 \u00b0C"}}