{"cas_no": "142-77-8", "cn_name": "\u6cb9\u9178\u4e01\u916f", "en_name": ["Butyl oleate", "9-Octadecenoic acid (9Z)-, butyl ester", "Oleic acid, butyl ester", "9-Octadecenoic acid (Z)-, butyl ester", "Butyl oleate", "Hallco C 503", "Kessco 554", "Kesscoflex BO", "Wilmar Butyl Oleate", "Witcizer 100", "Witcizer 101", "Advaplast 42", "n-Butyl oleate", "Butyl cis-9-octadecenoate", "Plasthall 914", "Kemester 4000", "Butyl (Z)-9-octadecenoate", "Kaolube 804"], "SMILES": "C(CC(OCCCC)=O)CCCCCC=CCCCCCCCC", "physical_data": {"Molecular Weight": "338.57", "Molecular Formula": "C22H42O2", "Boiling Point": "228 \u00b0C @ Press: 15 Torr", "Melting Point": "-26.4 \u00b0C", "Density": "0.8704 g/cm\u00b3 @ Temp: 15 \u00b0C"}}