{"cas_no": "142-84-7", "cn_name": "\u4e8c\u6b63\u4e19\u80fa", "en_name": ["Dipropylamine", "1-Propanamine, N-propyl-", "Dipropylamine", "N-Propyl-1-propanamine", "Di-n-propylamine", "n-Dipropylamine", "Dipropanamine", "N,N-Dipropylamine", "N,N-Di(n-propyl)amine"], "SMILES": "N(CCC)CCC", "physical_data": {"Molecular Weight": "101.19", "Molecular Formula": "C6H15N", "Boiling Point": "109.3 \u00b0C", "Melting Point": "-63 \u00b0C", "Density": "0.738 g/cm\u00b3 @ Temp: 20 \u00b0C"}}