{"cas_no": "142-81-4", "cn_name": "\u6b63\u5df1\u80fa\u76d0\u9178\u76d0", "en_name": ["Hexylammonium chloride", "1-Hexanamine, hydrochloride (1:1)", "Hexylamine, hydrochloride", "1-Hexanamine, hydrochloride", "Hexylammonium chloride", "n-Hexylammonium chloride", "n-Hexylamine hydrochloride", "1-Hexylamine hydrochloride", "1-Aminohexane hydrochloride"], "SMILES": "C(CCC)CCN.Cl", "physical_data": {"Molecular Weight": "", "Molecular Formula": "C6H15N.ClH", "Melting Point": "218-219 \u00b0C"}}