{"cas_no": "142-59-6", "cn_name": "\u4ee3\u68ee\u94a0", "en_name": ["DSE", "Carbamodithioic acid, N,N\u2032-1,2-ethanediylbis-, sodium salt (1:2)", "Carbamic acid, ethylenebis[dithio-, disodium salt", "Carbamodithioic acid, 1,2-ethanediylbis-, disodium salt", "Chem Bam", "Disodium ethylenebis[dithiocarbamate]", "Dithane D 14", "DSE", "Ethylenebis[dithiocarbamic acid] disodium salt", "Nabam", "Parzate", "Parzate Liquid", "Nafun IPO", "Dithane A 40"], "SMILES": "C(CNC(=S)S)NC(=S)S.[Na]", "physical_data": {"Molecular Weight": "", "Molecular Formula": "C4H8N2S4.2Na", "Melting Point": "76-80 \u00b0C"}}