{"cas_no": "142-61-0", "cn_name": "\u5df1\u9170\u6c2f", "en_name": ["Hexanoyl chloride", "Hexanoyl chloride", "Caproyl chloride", "n-Caproyl chloride", "Caproic chloride", "n-Hexanoyl chloride", "Caproic acid chloride", "Hexanoic acid chloride", "1-Pentanecarbonyl chloride"], "SMILES": "C(CCCC)C(Cl)=O", "physical_data": {"Molecular Weight": "134.60", "Molecular Formula": "C6H11ClO", "Boiling Point": "153 \u00b0C", "Melting Point": "-87 \u00b0C", "Density": "0.98017 g/cm\u00b3 @ Temp: 15 \u00b0C"}}