{"cas_no": "142-78-9", "cn_name": "N-(2-\u7f9f\u4e59\u57fa)\u5341\u4e8c\u70f7\u57fa\u9170\u80fa", "en_name": ["Lauric acid monoethanolamide", "Dodecanamide, N-(2-hydroxyethyl)-", "N-(2-Hydroxyethyl)dodecanamide", "Copramyl", "Crillon LME", "2-Dodecanamidoethanol", "N-(2-Hydroxyethyl)lauramide", "Lauric acid ethanolamide", "Lauric ethylolamide", "Laurylamidoethanol", "Laurylethanolamide", "Lauryl monoethanolamide", "Stabilor CMH", "Ultrapole H", "Lauric acid monoethanolamide", "Vistalan", "Lauric monoethanolamide", "Lauridit LM", "Steinamid L 203", "Lauric acid monoethanolamine", "Cyclomide LM", "Rewomid L 203", "Lauramide MEA", "Lauroyl monoethanolamide", "Comperlan LM", "Rolamid CM", "Lauric N-(2-hydroxyethyl)amide", "Amisol LME", "N-Dodecanoylethanolamine", "N-(\u03b2-Hydroxyethyl)dodecanamide", "Tohol N 120", "N-Lauroylethanolamine", "Alkamide L 203", "Mackamide LMM", "Tohol N 230", "Lauramide monoethanolamine", "Aminon C 01", "Aminon C 01S", "Lauric acid N-(2-hydroxyethyl)amide", "Mackamide LMA", "N 120"], "SMILES": "C(CC(NCCO)=O)CCCCCCCCC", "physical_data": {"Molecular Weight": "243.39", "Molecular Formula": "C14H29NO2", "Melting Point": "62 \u00b0C"}}