{"cas_no": "142-22-3", "cn_name": "\u70ef\u4e19\u57fa\u4e8c\u7518\u9187\u4e8c\u78b3\u9178\u916f", "en_name": ["Diallyl diglycol carbonate", "2,5,8,10-Tetraoxatridec-12-enoic acid, 9-oxo-, 2-propen-1-yl ester", "Carbonic acid, oxydiethylene diallyl ester", "2,5,8,10-Tetraoxatridec-12-enoic acid, 9-oxo-, 2-propenyl ester", "Carbonic acid, allyl ester, diester with diethylene glycol", "Diethylene glycol diallyl dicarbonate", "Carbonic acid, oxydi-2,1-ethanediyl di-2-propenyl ester", "Diallyl diglycol carbonate", "01M", "Transallyl CR 39", "TS 16", "Diethylene glycol, bis(allyl carbonate)", "Nouryset 200", "RAV 7N", "Diallyl oxydiethylene dicarbonate", "High ADC-CR 39", "NSC 5246", "RAV 7AT", "Hoya HL", "RAV 7", "Brite 55", "CR 39R", "Allyl diglycol carbonate", "2,5,8-Trioxanonanedioic acid di-2-propenyl ester", "CR 39 monomer", "RAV 7AX"], "SMILES": "O(C(OCC=C)=O)CCOCCOC(OCC=C)=O", "physical_data": {"Molecular Weight": "274.27", "Molecular Formula": "C12H18O7", "Boiling Point": "160 \u00b0C @ Press: 4 Torr", "Melting Point": "-4 \u00b0C", "Density": "1.143 g/cm\u00b3 @ Temp: 20 \u00b0C"}}