{"cas_no": "142-28-9", "cn_name": "1,3-\u4e8c\u6c2f\u4e19\u70f7", "en_name": ["1,3-Dichloropropane", "Propane, 1,3-dichloro-", "1,3-Dichloropropane", "Trimethylene dichloride", "R 270fa", "NSC 6204"], "SMILES": "C(CCl)CCl", "physical_data": {"Molecular Weight": "112.99", "Molecular Formula": "C3H6Cl2", "Boiling Point": "120.4 \u00b0C @ Press: 760 Torr", "Melting Point": "-99.5 \u00b0C", "Density": "1.1876 g/cm\u00b3 @ Temp: 20 \u00b0C"}}