{"cas_no": "142-16-5", "cn_name": "\u9a6c\u6765\u9178\u4e8c\u4e59\u57fa\u5df1\u916f", "en_name": ["Bis(2-ethylhexyl) maleate", "2-Butenedioic acid (2Z)-, 1,4-bis(2-ethylhexyl) ester", "Maleic acid, bis(2-ethylhexyl) ester", "2-Butenedioic acid (Z)-, bis(2-ethylhexyl) ester", "2-Butenedioic acid (2Z)-, bis(2-ethylhexyl) ester", "Bis(2-ethylhexyl) maleate", "Di-2-ethylhexyl maleate", "Dioctyl maleate", "DOM", "Ceraphyl 45", "Activemol DOM-R", "Diethylhexyl maleate"], "SMILES": "C(COC(C=CC(OCC(CCCC)CC)=O)=O)(CCCC)CC", "physical_data": {"Molecular Weight": "340.50", "Molecular Formula": "C20H36O4", "Boiling Point": "164 \u00b0C @ Press: 10 Torr", "Melting Point": "-60 \u00b0C", "Density": "0.9436 g/cm\u00b3"}}