{"cas_no": "142-60-9", "cn_name": "\u4e19\u9178\u8f9b\u916f", "en_name": ["Octyl propionate", "Propanoic acid, octyl ester", "Propionic acid, octyl ester", "Octyl alcohol, propionate", "Octyl propionate", "n-Octyl propionate", "Octyl propanoate", "NSC 190978"], "SMILES": "O(CCCCCCCC)C(CC)=O", "physical_data": {"Molecular Weight": "186.29", "Molecular Formula": "C11H22O2", "Boiling Point": "228 \u00b0C", "Melting Point": "-42.6 \u00b0C"}}