{"cas_no": "142-25-6", "cn_name": "N,N,N'-\u4e09\u7532\u57fa\u4e59\u4e8c\u80fa", "en_name": ["N,N,N\u2032-Trimethylethylenediamine", "1,2-Ethanediamine, N1,N1,N2-trimethyl-", "Ethylenediamine, N,N,N\u2032-trimethyl-", "1,2-Ethanediamine, N,N,N\u2032-trimethyl-", "N1,N1,N2-Trimethyl-1,2-ethanediamine", "N,N,N\u2032-Trimethyldiaminoethane", "N,N,N\u2032-Trimethylethylenediamine", "2-(Dimethylamino)-N-methylethylamine", "N,N,N\u2032-Trimethyl-1,2-ethanediamine", "N,N,N\u2032-Trimethylethanediamine", "N,N,N\u2032-Trimethyl-1,2-diaminoethane", "N,N\u2032,N\u2032-Trimethylethylenediamine", "N,N,N\u2032-Trimethyl-1,2-ethylenediamine", "1-(Dimethylamino)-2-(methylamino)ethane", "[2-(Dimethylamino)ethyl]methylamine", "1-(N,N-Dimethylamino)-2-(N-methylamino)ethane", "N-[2-(Dimethylamino)ethyl]-N-methylamine", "Methyl(2-(dimethylamino)ethyl)amine", "N-Methyl-N\u2032,N\u2032-dimethylethylenediamine", "N-[2-(Dimethylamino)ethyl]methylamine", "N,N\u2032,N\u2032-Trimethylethane-1,2-diamine", "N1,N1,N2-Trimethylethane-1,2-diamine", "N\u2032,N,N-Trimethylethylenediamine", "N,N,N\u2032-Trimethylethan-1,2-diamine", "N,N\u2032,N\u2032-Trimethylethan-1,2-diamine"], "SMILES": "C(N(C)C)CNC", "physical_data": {"Molecular Weight": "102.18", "Molecular Formula": "C5H14N2", "Boiling Point": "117 \u00b0C"}}