{"cas_no": "142-09-6", "cn_name": "\u7532\u57fa\u4e19\u70ef\u9178\u5df1\u916f", "en_name": ["Hexyl methacrylate", "2-Propenoic acid, 2-methyl-, hexyl ester", "Methacrylic acid, hexyl ester", "Hexyl alcohol, methacrylate", "Hexyl methacrylate", "ENT 25419", "Hexyl 2-methyl-2-propenoate", "n-Hexyl methacrylate", "SR 211", "NSC 24169", "2-Methyl-2-propenoic acid hexyl ester"], "SMILES": "O(C(C(C)=C)=O)CCCCCC", "physical_data": {"Molecular Weight": "170.25", "Molecular Formula": "C10H18O2", "Boiling Point": "162 \u00b0C", "Density": "0.880 g/cm\u00b3 @ Temp: 25 \u00b0C"}}