{"cas_no": "142-26-7", "cn_name": "N-\u4e59\u9170\u4e59\u9187\u80fa", "en_name": ["N-(2-Hydroxyethyl)acetamide", "Acetamide, N-(2-hydroxyethyl)-", "N-(2-Hydroxyethyl)acetamide", "N-Acetylethanolamine", "\u03b2-Hydroxyethylacetamide", "Acetylcolamine", "N-(\u03b2-Hydroxyethyl)acetamide", "2-Acetamidoethanol", "N-Ethanolacetamide", "2-Acetylaminoethanol", "N-Acetyl-2-aminoethanol", "Schercomid AME 70", "2-N-Acetylaminoethanol", "Acetamide MEA", "Incromectant AMEA 100", "Incromectant AMEA 70", "NSC 5999", "Mackamide AME 100"], "SMILES": "N(C(C)=O)CCO", "physical_data": {"Molecular Weight": "103.12", "Molecular Formula": "C4H9NO2", "Boiling Point": "166-167 \u00b0C @ Press: 8 Torr", "Melting Point": "63-65 \u00b0C", "Density": "1.1079 g/cm\u00b3 @ Temp: 25 \u00b0C"}}