{"cas_no": "142-82-5", "cn_name": "\u6b63\u5e9a\u70f7", "en_name": ["Heptane", "Heptane", "Dipropylmethane", "Heptyl hydride", "n-Heptane", "Skellysolve C", "NSC 62784"], "SMILES": "C(CCC)CCC", "physical_data": {"Molecular Weight": "100.20", "Molecular Formula": "C7H16", "Boiling Point": "98 \u00b0C", "Melting Point": "-91 \u00b0C", "Density": "0.68 g/cm\u00b3"}}