{"cas_no": "142-64-3", "cn_name": "\u54cc\u55ea\u4e8c\u76d0\u9178\u76d0", "en_name": ["Piperazine, hydrochloride (1:2)", "Piperazine, hydrochloride (1:2)", "Piperazine, dihydrochloride", "Diethylenediamine dihydrochloride", "Dihydro Pip Wormer", "Dowzene DHC", "Piperazine hydrochloride", "Piperazine wormer premix", "Piperazinium dichloride", "Ascarex D"], "SMILES": "C1CNCCN1.Cl", "physical_data": {"Molecular Weight": "", "Molecular Formula": "C4H10N2.2ClH", "Melting Point": "310 \u00b0C"}}