{"cas_no": "142-71-2", "cn_name": "\u65e0\u6c34\u918b\u9178\u94dc", "en_name": ["Cupric acetate", "Acetic acid, copper(2+) salt (2:1)", "Acetic acid, copper(2+) salt", "Copper acetate (Cu(OAc)2)", "Acetic acid cupric salt", "Copper diacetate", "Crystallized verdigris", "Crystals of Venus", "Cupric acetate", "Neutral verdigris", "Copper(II) acetate", "Copper acetate", "Copper(2+) acetate", "Copper(2+) diacetate", "Cupric diacetate", "Copper acetate (Cu(C2H3O2)2)", "Venus copper", "Copper acetate (Cu(MeCO2)2)", "Ploss Blue", "Copper, bis(acetato-\u03baO)-"], "SMILES": "C(C)(O)=O.[Cu]", "physical_data": {"Molecular Weight": "", "Molecular Formula": "C2H4O2.<sup>1</sup>/2Cu", "Melting Point": "232 \u00b0C"}}