{"cas_no": "142-95-0", "cn_name": "\u58ec\u80fa\u76d0\u9178\u76d0", "en_name": ["Octylammonium chloride", "1-Octanamine, hydrochloride (1:1)", "Octylamine, hydrochloride", "1-Octanamine, hydrochloride", "Octylammonium chloride", "Octylamine monohydrochloride", "n-Octylamine hydrochloride"], "SMILES": "C(CCCC)CCCN.Cl", "physical_data": {"Molecular Weight": "", "Molecular Formula": "C8H19N.ClH", "Melting Point": "197-198 \u00b0C"}}