{"cas_no": "142-63-2", "cn_name": "\u54cc\u55ea(\u516d\u6c34)", "en_name": ["Piperazine, hexahydrate", "Piperazine, hydrate (1:6)", "Piperazine, hexahydrate", "Arpezine", "Arthriticine", "Parid", "Vermisol"], "SMILES": "C1CNCCN1.O", "physical_data": {"Molecular Weight": "", "Molecular Formula": "C4H10N2.6H2O", "Melting Point": "44 \u00b0C"}}