{"cas_no": "142-72-3", "cn_name": "\u4e59\u9178\u9541", "en_name": ["Magnesium acetate", "Acetic acid, magnesium salt (2:1)", "Magnesium acetate", "Acetic acid, magnesium salt", "Cromosan", "Magnesium diacetate", "Magnesium acetate, Mg(OAc)2"], "SMILES": "C(C)(O)=O.[Mg]", "physical_data": {"Molecular Weight": "", "Molecular Formula": "C2H4O2.<sup>1</sup>/2Mg", "Melting Point": "323 \u00b0C", "Density": "1.42 g/cm\u00b3"}}