{"cas_no": "142-58-5", "cn_name": "\u8089\u8c46\u853b\u9170\u80fa MEA", "en_name": ["N-Myristoylethanolamine", "Tetradecanamide, N-(2-hydroxyethyl)-", "N-(2-Hydroxyethyl)tetradecanamide", "Myristic acid monoethanolamide", "Myristic monoethanolamide", "Loramine MY 228", "Myristamide MEA", "Comperlan MM", "Schercomid MME", "Myristyl monoethanolamide", "N-Tetradecanoylethanolamine", "N-Myristoylethanolamine", "N-(2-Hydroxyethyl)myristamide", "AM 3165", "Tetradecanoic acid monoethanolamide"], "SMILES": "C(CCCCCCCCCCCC)C(NCCO)=O", "physical_data": {"Molecular Weight": "271.44", "Molecular Formula": "C16H33NO2", "Melting Point": "93-94 \u00b0C"}}