{"cas_no": "142-79-0", "cn_name": "1,7-\u5e9a\u4e8c\u9170\u6c2f", "en_name": ["Heptanedioyl dichloride", "Heptanedioyl dichloride", "Pimeloyl chloride", "Pimelyl chloride", "Heptanedioyl chloride", "Pimelic dichloride", "Pentane-1,5-dicarbonyl chloride", "Pimeloyl dichloride", "Heptane-1,7-dioic acid chloride", "Heptanedioic dichloride", "Heptanedioatyl chloride", "1,7-Dichloro-1,7-heptanedione", "1,7-Heptanedioyl dichloride"], "SMILES": "C(CC(Cl)=O)CCCC(Cl)=O", "physical_data": {"Molecular Weight": "197.06", "Molecular Formula": "C7H10Cl2O2", "Boiling Point": "137 \u00b0C @ Press: 15 Torr", "Melting Point": "103-105 \u00b0C"}}