{"cas_no": "142-29-0", "cn_name": "\u73af\u620a\u70ef", "en_name": ["Cyclopentene", "Cyclopentene", "NSC 5160", "1-Cyclopentene"], "SMILES": "C1CC=CC1", "physical_data": {"Molecular Weight": "68.12", "Molecular Formula": "C5H8", "Boiling Point": "44.2 \u00b0C", "Melting Point": "-135.1 \u00b0C", "Density": "0.7754 g/cm\u00b3 @ Temp: 14 \u00b0C"}}