{"cas_no": "142-92-7", "cn_name": "\u4e59\u9178\u5df1\u916f", "en_name": ["Hexyl acetate", "Acetic acid, hexyl ester", "Hexyl alcohol, acetate", "Hexyl acetate", "Hexyl ethanoate", "n-Hexyl acetate", "1-Hexyl acetate", "Exceed 600", "NSC 7323", "n-Hexyl ethanoate", "Hexyl ester acetic acid", "ZED-N 60"], "SMILES": "C(CCCCC)OC(C)=O", "physical_data": {"Molecular Weight": "144.21", "Molecular Formula": "C8H16O2", "Boiling Point": "171.5 \u00b0C @ Press: 760 Torr", "Melting Point": "-80.9 \u00b0C", "Density": "0.8779 g/cm\u00b3 @ Temp: 15 \u00b0C"}}