{"cas_no": "142-73-4", "cn_name": "\u4e9a\u6c28\u57fa\u4e8c\u4e59\u9178", "en_name": ["Iminodiacetic acid", "Glycine, N-(carboxymethyl)-", "Acetic acid, iminodi-", "N-(Carboxymethyl)glycine", "Aminodiacetic acid", "Diglycine", "IDA", "Iminobis(acetic acid)", "Iminodiacetic acid", "Iminodiethanoic acid", "Acetic acid, 2,2\u2032-iminobis-", "Diglycin", "Diglycocoll", "IDA (chelating agent)", "\u03b1-Iminodiacetic acid", "IMDA", "((Carboxymethyl)amino)acetic acid", "NSC 18467", "2,2\u2032-Azanediyldiacetic acid", "2-[(Carboxymethyl)amino]acetic acid", "2-(Carboxymethylamino)acetic acid"], "SMILES": "N(CC(O)=O)CC(O)=O", "physical_data": {"Molecular Weight": "133.10", "Molecular Formula": "C4H7NO4", "Boiling Point": "126-127 \u00b0C @ Press: 13.5 Torr", "Melting Point": "247.5 \u00b0C"}}