{"cas_no": "142-45-0", "cn_name": "\u4e01\u7094\u4e8c\u9178", "en_name": ["2-Butynedioic acid", "2-Butynedioic acid", "Acetylenedicarboxylic acid", "Butynedioic acid", "2-Butyne-1,4-dioic acid", "NSC 1903", "NSC 631597"], "SMILES": "C(#CC(O)=O)C(O)=O", "physical_data": {"Molecular Weight": "114.06", "Molecular Formula": "C4H2O4", "Melting Point": "193-194 \u00b0C"}}