{"cas_no": "142-46-1", "cn_name": "2,5-\u4e8c\u786b\u4ee3\u8054\u4e8c\u8132", "en_name": ["Dithiourea", "1,2-Hydrazinedicarbothioamide", "Biurea, 2,5-dithio-", "Bithiourea", "Dithiobiurea", "2,5-Dithiodiurea", "Dithiocarbamoylhydrazine", "Dithiourea", "2,5-Dithiobiurea", "1,2-Dithiocarbamoylhydrazine", "1,2-Bis(thiocarbamoyl)hydrazine", "NSC 3511", "(Carbamothioylamino)thiourea"], "SMILES": "N(NC(N)=S)C(N)=S", "physical_data": {"Molecular Weight": "150.23", "Molecular Formula": "C2H6N4S2", "Melting Point": "233 \u00b0C"}}