{"cas_no": "142-83-6", "cn_name": "(E,E)-2,4-\u5df1\u4e8c\u70ef\u919b", "en_name": ["Sorbaldehyde", "2,4-Hexadienal, (2E,4E)-", "Sorbaldehyde", "2,4-Hexadienal, (E,E)-", "(2E,4E)-2,4-Hexadienal", "Sorbic aldehyde", "(E,E)-Hexa-2,4-dienal", "trans-2,trans-4-Hexadienal", "(E,E)-2,4-Hexadienal", "trans,trans-2,4-Hexadien-1-al"], "SMILES": "C(C=CC)=CC=O", "physical_data": {"Molecular Weight": "96.13", "Molecular Formula": "C6H8O", "Boiling Point": "76 \u00b0C @ Press: 30 Torr", "Density": "0.898 g/cm\u00b3 @ Temp: 20 \u00b0C"}}