{"cas_no": "142-96-1", "cn_name": "\u4e8c\u4e01\u919a", "en_name": ["Butyl ether", "Butane, 1,1\u2032-oxybis-", "Butyl ether", "1,1\u2032-Oxybis[butane]", "Di-n-butyl ether", "Dibutyl oxide", "n-Butyl ether", "Dibutyl ether", "Butyl oxide", "NSC 8459", "n-Bu2O", "1-Butoxybutane"], "SMILES": "O(CCCC)CCCC", "physical_data": {"Molecular Weight": "130.23", "Molecular Formula": "C8H18O", "Boiling Point": "140.2 \u00b0C", "Melting Point": "-95.2 \u00b0C", "Density": "0.7684 g/cm\u00b3 @ Temp: 20 \u00b0C"}}