{"cas_no": "142-08-5", "cn_name": "2-\u7f9f\u57fa\u5421\u5576", "en_name": ["2-Pyridone", "2(1H)-Pyridinone", "2(1H)-Pyridone", "2-Pyridol", "2-Pyridone", "\u03b1-Pyridone", "2-Oxopyridine", "2-Hydroxypyridine", "2-Pyridinol", "2-Pyridinone", "1,2-Dihydro-2-oxopyridine", "1H-2-Pyridone", "\u03b1-Hydroxypyridine", "1H-Pyridin-2-one", "NSC 172522", "Pyridin-2-one", "1,2-Dihydropyridin-2-one"], "SMILES": "O=C1C=CC=CN1", "physical_data": {"Molecular Weight": "95.10", "Molecular Formula": "C5H5NO", "Boiling Point": "280 \u00b0C", "Melting Point": "107.8 \u00b0C"}}