{"cas_no": "142-19-8", "cn_name": "\u5e9a\u9178\u70ef\u4e19\u916f", "en_name": ["Allyl heptanoate", "Heptanoic acid, 2-propen-1-yl ester", "Heptanoic acid, allyl ester", "Heptanoic acid, 2-propenyl ester", "Allyl enanthate", "Allyl heptanoate", "Allyl heptoate", "Allyl heptylate", "2-Propenyl heptanoate", "NSC 20969"], "SMILES": "C(C(OCC=C)=O)CCCCC", "physical_data": {"Molecular Weight": "170.25", "Molecular Formula": "C10H18O2", "Boiling Point": "209-210 \u00b0C @ Press: 760 Torr"}}