{"cas_no": "142-88-1", "cn_name": "\u5df1\u4e8c\u9178\u54cc\u55ea", "en_name": ["Piperazine adipate", "Hexanedioic acid, compd. with piperazine (1:1)", "Adipic acid, compd. with piperazine (1:1)", "Piperazine, adipate (1:1)", "Piperazine, hexanedioate (1:1)", "Adiprazine", "Arduvermin", "Dietelmin", "Entacyl", "Helmirazin", "Oxurasin", "Oxyzin", "Piperascat", "Piperaskat", "Piperazine adipate", "Vermicompren", "Piperazine adipinate", "Nometan", "Vermilass", "Oxypaat", "Pipadox", "Adiprazina", "Piperazinium adipate", "NSC 74383"], "SMILES": "C1CNCCN1.C(CCC(O)=O)CC(O)=O", "physical_data": {"Molecular Weight": "", "Molecular Formula": "C6H10O4.C4H10N2", "Melting Point": "256-257 \u00b0C"}}