{"cas_no": "142-04-1", "cn_name": "\u76d0\u9178\u82ef\u80fa", "en_name": ["Benzenamine hydrochloride (1:1)", "Benzenamine, hydrochloride (1:1)", "Aniline, hydrochloride", "Benzenamine, hydrochloride", "Benzenamine hydrochloride (1:1)", "C.I. 76001", "Phenylamine hydrochloride", "Phenylammonium chloride", "Anilinium chloride", "Aniline hydrochloride", "Benzenamine hydrochloride"], "SMILES": "NC1=CC=CC=C1.Cl", "physical_data": {"Molecular Weight": "", "Molecular Formula": "C6H7N.ClH", "Boiling Point": "245 \u00b0C", "Melting Point": "196 \u00b0C", "Density": "1.22 g/cm\u00b3"}}