{"cas_no": "14206-69-0", "cn_name": "3-\u6c28\u57fa-5-\u7f9f\u57fa\u82ef\u7532\u9178\u76d0\u9178\u76d0", "en_name": ["Benzoic acid, 3-amino-5-hydroxy-, hydrochloride (1:1)", "Benzoic acid, 3-amino-5-hydroxy-, hydrochloride (1:1)", "Benzoic acid, 3-amino-5-hydroxy-, hydrochloride", "3-Amino-5-hydroxybenzoic acid hydrochloride"], "SMILES": "C(O)(=O)C1=CC(N)=CC(O)=C1.Cl", "physical_data": {"Molecular Weight": "", "Molecular Formula": "C7H7NO3.ClH", "Melting Point": "269-272 \u00b0C (decomp)"}}