{"cas_no": "14205-39-1", "cn_name": "3-\u6c28\u57fa\u5df4\u8c46\u9178\u7532\u916f", "en_name": ["Methyl 3-amino-2-butenoate", "2-Butenoic acid, 3-amino-, methyl ester", "Crotonic acid, 3-amino-, methyl ester", "Methyl 3-amino-2-butenoate", "Methyl \u03b2-aminocrotonate", "Methyl 3-aminocrotonate", "3-Aminocrotonic acid methyl ester", "\u03b2-Aminocrotonic acid methyl ester", "Methyl 3-aminocrotonoate", "Methyl 3-amino-2-butenenoate", "3-Aminobut-2-enoic acid methyl ester"], "SMILES": "C(C=C(C)N)(OC)=O", "physical_data": {"Molecular Weight": "115.13", "Molecular Formula": "C5H9NO2", "Boiling Point": "115 \u00b0C @ Press: 0.45 Torr", "Melting Point": "89-90 \u00b0C"}}