{"cas_no": "1420-04-8", "cn_name": "\u6c2f\u785d\u67f3\u80fa\u4e59\u9187\u80fa\u76d0", "en_name": ["Niclosamide ethanolamine salt", "Benzamide, 5-chloro-N-(2-chloro-4-nitrophenyl)-2-hydroxy-, compd. with 2-aminoethanol (1:1)", "Salicylanilide, 2\u2032,5-dichloro-4\u2032-nitro-, compd. with 2-aminoethanol (1:1)", "Ethanol, 2-amino-, compd. with 2\u2032,5-dichloro-4\u2032-nitrosalicylanilide (1:1)", "Ethanol, 2-amino-, compd. with 5-chloro-N-(2-chloro-4-nitrophenyl)-2-hydroxybenzamide (1:1)", "Bayer 73", "M 73", "SR 73", "Bayluscide", "2\u2032,5-Dichloro-4\u2032-nitrosalicylanilide, 2-aminoethanol salt", "BAY 73", "HL 2448", "Niclosamide ethanolamine salt", "BAY 6076", "Bayer 6076", "Phenasal ethanolamine salt", "Mollutox", "Clonitralide", "Baylucit", "Uccmaluscide", "Clonitrilide", "Niclosamide-olamine", "Clonitralid"], "SMILES": "C(NC1=C(Cl)C=C(N(=O)=O)C=C1)(=O)C2=C(O)C=CC(Cl)=C2.C(CO)N", "physical_data": {"Molecular Weight": "", "Molecular Formula": "C13H8Cl2N2O4.C2H7NO", "Melting Point": "216 \u00b0C"}}