{"cas_no": "14205-65-3", "cn_name": "8-\u7f9f\u57fa[1,3]\u4e8c\u6c27\u4ee3LO[4,5-G]\u55b9\u5549-7-\u7fa7\u9178\u4e59\u916f", "en_name": ["Ethyl 8-hydroxy-1,3-dioxolo[4,5-g]quinoline-7-carboxylate", "1,3-Dioxolo[4,5-g]quinoline-7-carboxylic acid, 8-hydroxy-, ethyl ester", "Ethyl 8-hydroxy-1,3-dioxolo[4,5-g]quinoline-7-carboxylate", "3-(Ethoxycarbonyl)-4-hydroxy-6,7-(methylenedioxy)quinoline", "4-Hydroxy-6,7-methylenedioxy-3-quinolinecarboxylic acid ethyl ester"], "SMILES": "OC1=C2C(C=C3C(=C2)OCO3)=NC=C1C(OCC)=O", "physical_data": {"Molecular Weight": "261.23", "Molecular Formula": "C13H11NO5", "Melting Point": "276-281 \u00b0C"}}