{"cas_no": "1420-06-0", "cn_name": "N-\u4e09\u82ef\u7532\u57fa\u5417\u5549", "en_name": ["Trifenmorph", "Morpholine, 4-(triphenylmethyl)-", "Morpholine, 4-trityl-", "4-(Triphenylmethyl)morpholine", "N-Tritylmorpholine", "Shell WL 8008", "WL 8008", "Frescon", "Trifenmorph", "Triphenmorphe"], "SMILES": "C(C1=CC=CC=C1)(C2=CC=CC=C2)(C3=CC=CC=C3)N4CCOCC4", "physical_data": {"Molecular Weight": "329.43", "Molecular Formula": "C23H23NO", "Melting Point": "174-176 \u00b0C"}}