{"cas_no": "1420-07-1", "cn_name": "\u82b8\u9999\u9178\u4e8c\u58ec\u916f", "en_name": ["Dinoterb", "Phenol, 2-(1,1-dimethylethyl)-4,6-dinitro-", "Phenol, 2-tert-butyl-4,6-dinitro-", "2-(1,1-Dimethylethyl)-4,6-dinitrophenol", "2-tert-Butyl-4,6-dinitrophenol", "Dinoterb", "Dinoterbe", "Stirpan Forte", "2,4-Dinitro-6-tert-butylphenol", "Veraline Creme", "DNTBP", "4,6-Dinitro-2-tert-butylphenol", "Herbogil", "NSC 166496"], "SMILES": "C(C)(C)(C)C1=C(O)C(N(=O)=O)=CC(N(=O)=O)=C1", "physical_data": {"Molecular Weight": "240.21", "Molecular Formula": "C10H12N2O5", "Melting Point": "125.5-126.5 \u00b0C"}}