{"cas_no": "1420-40-2", "cn_name": "\u516d\u7532\u7678\u4e8c\u80fa", "en_name": ["1,10-Decanediaminium, N1,N1,N1,N10,N10,N10-hexamethyl-, iodide (1:2)", "1,10-Decanediaminium, N1,N1,N1,N10,N10,N10-hexamethyl-, iodide (1:2)", "Ammonium, decamethylenebis[trimethyl-, diiodide", "1,10-Decanediaminium, N,N,N,N\u2032,N\u2032,N\u2032-hexamethyl-, diiodide", "Ammonium, decamethylenebis[trimethyl- iodide]", "Decamethylenebis(trimethylammonium) iodide", "Decamethonium iodide", "Eulissin A", "Procuran", "Eulixine", "Decamethionium iodide", "Decamethonium diiodide", "Decamethylenebis(trimethylammonium) diiodide", "N1,N1,N1,N10,N10,N10-Hexamethyldecane-1,10 diaminium iodide"], "SMILES": "C([N+](C)(C)C)CCCCCCCCC[N+](C)(C)C.[I-]", "physical_data": {"Molecular Weight": "", "Molecular Formula": "C16H38N2.2I", "Melting Point": "231 \u00b0C"}}