{"cas_no": "14205-46-0", "cn_name": "3-\u6c28\u57fa\u5df4\u8c46\u9178\u5f02\u4e19\u916f", "en_name": ["2-Butenoic acid, 3-amino-, 1-methylethyl ester", "2-Butenoic acid, 3-amino-, 1-methylethyl ester", "Crotonic acid, 3-amino-, isopropyl ester", "Isopropyl \u03b2-aminocrotonate", "Isopropyl 3-aminocrotonate", "1-Methylethyl 3-amino-2-butenoate", "1-Methylethyl 3-aminocrotonate", "Isopropyl 3-amino-2-butenoate", "3-Aminocrotonic acid isopropyl ester"], "SMILES": "C(C(OC(C)C)=O)=C(C)N", "physical_data": {"Molecular Weight": "143.18", "Molecular Formula": "C7H13NO2", "Boiling Point": "80 \u00b0C @ Press: 1 Torr"}}