{"cas_no": "1420-55-9", "cn_name": "\u4e59\u5def\u5339\u62c9\u55ea", "en_name": ["Thiethylperazine", "10H-Phenothiazine, 2-(ethylthio)-10-[3-(4-methyl-1-piperazinyl)propyl]-", "Phenothiazine, 2-(ethylthio)-10-[3-(4-methyl-1-piperazinyl)propyl]-", "2-(Ethylthio)-10-[3-(4-methyl-1-piperazinyl)propyl]-10H-phenothiazine", "2-(Ethylthio)-10-[3-(4-methyl-1-piperazinyl)propyl]phenothiazine", "Ethylthioperazine", "Thiethylperazine", "TEP", "TEP (thiethylperazine)"], "SMILES": "C(CCN1CCN(C)CC1)N2C=3C(SC=4C2=CC=CC4)=CC=C(SCC)C3", "physical_data": {"Molecular Weight": "399.62", "Molecular Formula": "C22H29N3S2", "Boiling Point": "227 \u00b0C @ Press: 0.01 Torr", "Melting Point": "62-64 \u00b0C"}}