{"cas_no": "14208-10-7", "cn_name": "DPX\u5305\u57cb\u5242", "en_name": ["p-Xylene bis(pyridinium bromide)", "Pyridinium, 1,1\u2032-[1,4-phenylenebis(methylene)]bis-, dibromide", "Pyridinium, 1,1\u2032-(p-phenylenedimethylene)di-, dibromide", "1,1\u2032-(p-Phenylenedimethylene)bis[pyridinium bromide]", "DPX", "p-Xylene bis(pyridinium bromide)"], "SMILES": "C(C1=CC=C(C[N+]=2C=CC=CC2)C=C1)[N+]=3C=CC=CC3.[Br-]", "physical_data": {"Molecular Weight": "", "Molecular Formula": "C18H18N2.2Br", "Melting Point": "296-297 \u00b0C"}}