{"cas_no": "14216-03-6", "cn_name": "\u5e38\u6625\u85e4\u82f7 C", "en_name": ["Hederacoside C", "Olean-12-en-28-oic acid, 3-[[2-O-(6-deoxy-\u03b1-L-mannopyranosyl)-\u03b1-L-arabinopyranosyl]oxy]-23-hydroxy-, O-6-deoxy-\u03b1-L-mannopyranosyl-(1\u21924)-O-\u03b2-D-glucopyranosyl-(1\u21926)-\u03b2-D-glucopyranosyl ester, (3\u03b2,4\u03b1)-", "Glucopyranose, O-6-deoxy-\u03b1-L-mannopyranosyl-(1\u21924)-O-\u03b2-D-glucopyranosyl-(1\u21926)-, 1-ester with 3\u03b2-[[2-O-(6-deoxy-\u03b1-L-mannopyranosyl)-\u03b1-L-arabinopyranosyl]oxy]-23-hydroxyolean-12-en-28-oic acid, \u03b2-D-", "Akebia saponin PK", "Kizuta saponin K12", "Hederacoside C", "Kalopanaxsaponin B", "Pulsatilla saponin F", "Saponin K12", "Hederoside H1", "Koronaroside B", "Tauroside St-H2", "Akeboside Sth", "Glycoside L-H2", "Tauroside H2", "Saponin PK", "Pericarsaponin Pk", "Hederasaponin C", "Hederagenin 3-O-\u03b1-L-rhamnopyranosyl(1\u21922)-\u03b1-L-arabinopyranosyl-28-O-\u03b1-L-rhamnopyranosyl(1\u21924)-\u03b2-D-glucopyranosyl(1\u21926)-\u03b2-D-glucopyranoside", "23-Hydroxy-3\u03b2-[(O-\u03b1-L-rhamnopyranosyl-(1\u21922)-\u03b1-L-arabinopyranosyl)oxy]olean-12-en-28-oic acid O-\u03b1-L-rhamnopyranosyl-(1\u21924)-O-\u03b2-D-glucopyranosyl-(1\u21926)-\u03b2-D-glucopyranosyl ester", "3-O-\u03b1-L-Rhamnopyranosyl-(1\u21922)-\u03b1-L-arabinopyranosylhederagenin 28-O-\u03b1-L-rhamnopyranosyl-(1\u21924)-\u03b2-D-glucopyranosyl-(1\u21926)-\u03b2-D-glucopyranoside", "Pulchinenoside B5", "Clematangoside A"], "SMILES": "C(OC1OC(COC2OC(CO)C(OC3C(O)C(O)C(O)C(C)O3)C(O)C2O)C(O)C(O)C1O)(=O)C45C(C=6C(C)(CC4)C7(C)C(CC6)C8(C)C(CC7)C(CO)(C)C(OC9C(OC%10C(O)C(O)C(O)C(C)O%10)C(O)C(O)CO9)CC8)CC(C)(C)CC5", "physical_data": {"Molecular Weight": "1221.38", "Molecular Formula": "C59H96O26", "Melting Point": "225-228 \u00b0C"}}