{"cas_no": "14210-25-4", "cn_name": "5-\u6c2f-1-\u82ef\u57fa-1H-\u56db\u5511", "en_name": ["5-Chloro-1-phenyl-1H-tetrazole", "1H-Tetrazole, 5-chloro-1-phenyl-", "5-Chloro-1-phenyl-1H-tetrazole", "5-Chloro-1-phenyltetrazole", "1-Phenyl-5-chlorotetrazole", "N-Phenyl-5-chlorotetrazole"], "SMILES": "ClC=1N(N=NN1)C2=CC=CC=C2", "physical_data": {"Molecular Weight": "180.59", "Molecular Formula": "C7H5ClN4", "Melting Point": "122-124 \u00b0C"}}