{"cas_no": "14216-22-9", "cn_name": "\u8461\u4e59\u80fa", "en_name": ["N-Ethylglucamine", "D-Glucitol, 1-deoxy-1-(ethylamino)-", "Glucitol, 1-deoxy-1-(ethylamino)-, D-", "Glucitol, 1-deoxy-1-(ethylamino)-", "Sorbitol, 1-deoxy-1-ethylamino-", "1-Deoxy-1-(ethylamino)-D-glucitol", "N-Ethylglucamine", "D-(-)-N-Ethylglucamine", "Eglumine", "N-Ethyl-D-glucamine"], "SMILES": "C(C(C(CO)O)O)(C(CNCC)O)O", "physical_data": {"Molecular Weight": "209.24", "Molecular Formula": "C8H19NO5", "Melting Point": "137 \u00b0C"}}