{"cas_no": "1421-65-4", "cn_name": "\u76d0\u9178\u5de6\u65cb\u591a\u5df4\u7532\u916f", "en_name": ["L-Dopa methyl ester hydrochloride", "L-Tyrosine, 3-hydroxy-, methyl ester, hydrochloride (1:1)", "Alanine, 3-(3,4-dihydroxyphenyl)-, methyl ester, hydrochloride, L-", "L-Tyrosine, 3-hydroxy-, methyl ester, hydrochloride", "Alanine, 3-(3,4-dihydroxyphenyl)-, methyl ester, hydrochloride", "3,4-Dihydroxyphenyl-L-alanine methyl ester hydrochloride", "Methyl L-3-(3,4-dihydroxyphenyl)alaninate hydrochloride", "L-Dopa methyl ester hydrochloride", "Levodopa methyl ester hydrochloride", "ST 41769", "L-DOPA Me ester hydrochloride", "(S)-Dopa methyl ester hydrochloride", "3-Hydroxy-L-tyrosine methyl ester hydrochloride", "(S)-Methyl 2-amino-3-(3,4-dihydroxyphenyl)propanoate hydrochloride"], "SMILES": "C(C(C(OC)=O)N)C1=CC(O)=C(O)C=C1.Cl", "physical_data": {"Molecular Weight": "", "Molecular Formula": "C10H13NO4.ClH", "Melting Point": "170-171 \u00b0C"}}