{"cas_no": "1421373-66-1", "cn_name": "AZD9291(\u7532\u78fa\u9178\u76d0)", "en_name": ["2-Propenamide, N-[2-[[2-(dimethylamino)ethyl]methylamino]-4-methoxy-5-[[4-(1-methyl-1H-indol-3-yl)-2-pyrimidinyl]amino]phenyl]-, methanesulfonate (1:1)", "2-Propenamide, N-[2-[[2-(dimethylamino)ethyl]methylamino]-4-methoxy-5-[[4-(1-methyl-1H-indol-3-yl)-2-pyrimidinyl]amino]phenyl]-, methanesulfonate (1:1)", "Osimertinib mesylate", "AZD 9291 mesylate"], "SMILES": "S(C)(=O)(=O)O.CN1C=C(C=2C1=CC=CC2)C3=NC(NC4=C(OC)C=C(N(CCN(C)C)C)C(NC(C=C)=O)=C4)=NC=C3", "physical_data": {"Molecular Weight": "", "Molecular Formula": "C28H33N7O2.CH4O3S", "Melting Point": "246-259 \u00b0C"}}