{"cas_no": "1421-89-2", "cn_name": "2-\u4e8c\u7532\u6c28\u57fa\u4e59\u57fa\u4e59\u9178\u916f", "en_name": ["Dimethylaminoethyl acetate", "Acetic acid, 2-(dimethylamino)ethyl ester", "Ethanol, 2-(dimethylamino)-, acetate", "2-(Dimethylamino)ethyl acetate", "Dimethylaminoethanol acetate", "Dimethylaminoethyl acetate", "2-Dimethylaminoethanol acetate", "2-(N,N-Dimethylamino)-1-acetyloxyethane", "2-(N,N-Dimethylamino)ethyl acetate", "NSC 7511", "N,N-Dimethylaminoethyl acetate"], "SMILES": "C(CN(C)C)OC(C)=O", "physical_data": {"Molecular Weight": "131.17", "Molecular Formula": "C6H13NO2", "Boiling Point": "86-88 \u00b0C @ Press: 10 Torr", "Melting Point": "129-130 \u00b0C", "Density": "0.932 g/cm\u00b3 @ Temp: 25 \u00b0C"}}