{"cas_no": "1421-63-2", "cn_name": "2',4',5'-\u4e09\u7f9f\u57fa\u82ef\u4e01\u916e", "en_name": ["2\u2032,4\u2032,5\u2032-Trihydroxybutyrophenone", "1-Butanone, 1-(2,4,5-trihydroxyphenyl)-", "Butyrophenone, 2\u2032,4\u2032,5\u2032-trihydroxy-", "1-(2,4,5-Trihydroxyphenyl)-1-butanone", "THBP", "2\u2032,4\u2032,5\u2032-Trihydroxybutyrophenone", "2,4,5-Trihydroxybutyrophenone", "Trihydroxybutyrophenone", "NSC 73478"], "SMILES": "C(CCC)(=O)C1=C(O)C=C(O)C(O)=C1", "physical_data": {"Molecular Weight": "196.20", "Molecular Formula": "C10H12O4", "Melting Point": "149-153 \u00b0C"}}