{"cas_no": "1421-49-4", "cn_name": "3,5-\u4e8c\u53d4\u4e01\u57fa-4-\u7f9f\u57fa\u82ef\u7532\u9178", "en_name": ["3,5-Di-tert-butyl-4-hydroxybenzoic acid", "Benzoic acid, 3,5-bis(1,1-dimethylethyl)-4-hydroxy-", "Benzoic acid, 3,5-di-tert-butyl-4-hydroxy-", "3,5-Bis(1,1-dimethylethyl)-4-hydroxybenzoic acid", "3,5-Di-tert-butyl-4-hydroxybenzoic acid", "2,6-Di-tert-butyl-4-carboxyphenol", "F 2 (antioxidant)", "F 2", "4-Hydroxy-3,5-di-tert-butylbenzoic acid", "4-Carboxy-2,6-di-tert-butylphenol", "3,5-Ditert-butyl-4-hydroxybenzoic acid", "3,5-tert-Butyl-4-hydroxybenzoic acid", "UV 612"], "SMILES": "C(C)(C)(C)C1=C(O)C(C(C)(C)C)=CC(C(O)=O)=C1", "physical_data": {"Molecular Weight": "250.33", "Molecular Formula": "C15H22O3", "Melting Point": "218-219 \u00b0C"}}