{"cas_no": "14215-86-2", "cn_name": "\u7350\u7259\u83dc\u82f7", "en_name": ["(-)-Sweroside", "1H,3H-Pyrano[3,4-c]pyran-1-one, 5-ethenyl-6-(\u03b2-D-glucopyranosyloxy)-4,4a,5,6-tetrahydro-, (4aS,5R,6S)-", "Sweroside", "1H,3H-Pyrano[3,4-c]pyran-1-one, 5-ethenyl-6-(\u03b2-D-glucopyranosyloxy)-4,4a,5,6-tetrahydro-, [4aS-(4a\u03b1,5\u03b2,6\u03b1)]-", "(4aS,5R,6S)-5-Ethenyl-6-(\u03b2-D-glucopyranosyloxy)-4,4a,5,6-tetrahydro-1H,3H-pyrano[3,4-c]pyran-1-one", "(-)-Sweroside"], "SMILES": "C(=C)C1C2C(=COC1OC3OC(CO)C(O)C(O)C3O)C(=O)OCC2", "physical_data": {"Molecular Weight": "358.34", "Molecular Formula": "C16H22O9", "Melting Point": "98-100 \u00b0C"}}