{"cas_no": "1421-69-8", "cn_name": "Z-GLY-LEU-OH", "en_name": ["N-[(Phenylmethoxy)carbonyl]glycyl-L-leucine", "L-Leucine, N-[(phenylmethoxy)carbonyl]glycyl-", "Leucine, N-(N-carboxyglycyl)-, N-benzyl ester, L-", "L-Leucine, N-[N-[(phenylmethoxy)carbonyl]glycyl]-", "Leucine, N-(N-carboxyglycyl)-, N-benzyl ester", "N-[(Phenylmethoxy)carbonyl]glycyl-L-leucine", "N-Carbobenzoxyglycyl-L-leucine", "N-(Benzyloxycarbonyl)glycyl-L-leucine", "N-(Benzyloxycarbonyl)glycylleucine", "NSC 89638"], "SMILES": "C(OC(NCC(NC(CC(C)C)C(O)=O)=O)=O)C1=CC=CC=C1", "physical_data": {"Molecular Weight": "", "Molecular Formula": "C16H22N2O5", "Melting Point": "99-100 \u00b0C"}}