{"cas_no": "14227-95-3", "cn_name": "1-(\u6c30\u57fa\u4e59\u9170\u57fa)\u5421\u54af\u70f7", "en_name": ["\u03b2-Oxo-1-pyrrolidinepropanenitrile", "1-Pyrrolidinepropanenitrile, \u03b2-oxo-", "Pyrrolidine, 1-(cyanoacetyl)-", "\u03b2-Oxo-1-pyrrolidinepropanenitrile", "Cyanoacetic acid pyrrolidide", "1-(2-Cyanoacetyl)pyrrolidine", "1-(Cyanoacetyl)pyrrolidine", "NSC 102766", "3-Oxo-3-(1-pyrrolidinyl)propanenitrile", "3-Oxo-3-tetrahydro-1H-pyrrol-1-ylpropanenitrile"], "SMILES": "C(CC#N)(=O)N1CCCC1", "physical_data": {"Molecular Weight": "138.17", "Molecular Formula": "C7H10N2O", "Melting Point": "74-75 \u00b0C"}}