{"cas_no": "142273-20-9", "cn_name": "\u514b\u83b1\u62c9\u5c3c", "en_name": ["Kenpaullone", "Indolo[3,2-d][1]benzazepin-6(5H)-one, 9-bromo-7,12-dihydro-", "9-Bromo-7,12-dihydroindolo[3,2-d][1]benzazepin-6(5H)-one", "NSC 664704", "Kenpaullone", "9-Bromopaullone"], "SMILES": "O=C1CC2=C(C=3C(N1)=CC=CC3)NC=4C2=CC(Br)=CC4", "physical_data": {"Molecular Weight": "327.18", "Molecular Formula": "C16H11BrN2O", "Melting Point": "&gt;330 \u00b0C"}}