{"cas_no": "14221-02-4", "cn_name": "\u56db(\u4e09\u82ef\u57fa\u81a6)\u94c2", "en_name": ["Tetrakis(triphenylphosphine)platinum", "Platinum, tetrakis(triphenylphosphine)-, (T-4)-", "Platinum, tetrakis(triphenylphosphine)-", "(T-4)-Tetrakis(triphenylphosphine)platinum", "Tetrakis(triphenylphosphine)platinum"], "SMILES": "[Pt]([P](C1=CC=CC=C1)(C2=CC=CC=C2)C3=CC=CC=C3)([P](C4=CC=CC=C4)(C5=CC=CC=C5)C6=CC=CC=C6)([P](C7=CC=CC=C7)(C8=CC=CC=C8)C9=CC=CC=C9)[P](C%10=CC=CC=C%10)(C%11=CC=CC=C%11)C%12=CC=CC=C%12", "physical_data": {"Molecular Weight": "", "Molecular Formula": "C72H60P4Pt", "Melting Point": "122 \u00b0C"}}