{"cas_no": "1422-53-3", "cn_name": "2-\u6eb4-4-\u6c1f\u7532\u82ef", "en_name": ["2-Bromo-4-fluorotoluene", "Benzene, 2-bromo-4-fluoro-1-methyl-", "Toluene, 2-bromo-4-fluoro-", "2-Bromo-4-fluoro-1-methylbenzene", "4-Fluoro-2-bromotoluene", "2-Bromo-4-fluorotoluene", "1-Bromo-2-methyl-5-fluorobenzene", "1-Bromo-3-fluoro-6-methylbenzene"], "SMILES": "BrC1=C(C)C=CC(F)=C1", "physical_data": {"Molecular Weight": "189.02", "Molecular Formula": "C7H6BrF", "Boiling Point": "170-172 \u00b0C"}}