{"cas_no": "142217-69-4", "cn_name": "\u6069\u66ff\u5361\u97e6", "en_name": ["Entecavir", "6H-Purin-6-one, 2-amino-1,9-dihydro-9-[(1S,3R,4S)-4-hydroxy-3-(hydroxymethyl)-2-methylenecyclopentyl]-", "6H-Purin-6-one, 2-amino-1,9-dihydro-9-[4-hydroxy-3-(hydroxymethyl)-2-methylenecyclopentyl]-, [1S-(1\u03b1,3\u03b1,4\u03b2)]-", "2-Amino-1,9-dihydro-9-[(1S,3R,4S)-4-hydroxy-3-(hydroxymethyl)-2-methylenecyclopentyl]-6H-purin-6-one", "BMS 200475", "Entecavir", "SQ 34676", "Baraclude", "ETV", "31: PN: WO2016077321 SEQID: 31 claimed sequence"], "SMILES": "C=C1C(N2C3=C(N=C2)C(=O)N=C(N)N3)CC(O)C1CO", "physical_data": {"Molecular Weight": "277.28", "Molecular Formula": "C12H15N5O3", "Melting Point": "246-248 \u00b0C"}}