{"cas_no": "14220-64-5", "cn_name": "\u4e8c(\u6c30\u57fa\u82ef)\u4e8c\u6c2f\u5316\u94af", "en_name": ["Bis(benzonitrile)dichloropalladium", "Palladium, bis(benzonitrile)dichloro-", "Palladium, dichlorobis(benzonitrile)-", "Benzonitrile, palladium complex", "Bis(benzonitrile)dichloropalladium", "Dichlorobis(benzonitrile)palladium(II)", "Bis(benzonitrile)palladium dichloride", "Dichlorobis(benzonitrile)palladium", "Bis(benzonitrile)dichloropalladium(II)", "Dibenzonitrilepalladium dichloride", "Dichlorobis(phenyl cyanide)palladium", "Bis(benzonitrile)palladium(II) chloride", "Bis(benzonitrile)palladium(2+) chloride", "Palladium dichloride bis(benzonitrile)", "NSC 169967", "Palladium chloride bisbenzonitrile complex", "Bis(phenylnitrile)dichloropalladium"], "SMILES": "C(#[N][Pd+2]([N]#CC1=CC=CC=C1)([Cl-])[Cl-])C2=CC=CC=C2", "physical_data": {"Molecular Weight": "", "Molecular Formula": "C14H10Cl2N2Pd", "Melting Point": "129-130 \u00b0C"}}