{"cas_no": "14228-73-0", "cn_name": "1,4-\u53cc[(\u7f29\u6c34\u7518\u6cb9\u6c27)\u7532\u57fa]\u73af\u5df1\u70f7", "en_name": ["1,4-Cyclohexanedimethanol diglycidyl ether", "Oxirane, 2,2\u2032-[1,4-cyclohexanediylbis(methyleneoxymethylene)]bis-", "Cyclohexane, 1,4-bis[(2,3-epoxypropoxy)methyl]-", "2,2\u2032-[1,4-Cyclohexanediylbis(methyleneoxymethylene)]bis[oxirane]", "1,4-Bis[(2,3-epoxypropoxy)methyl]cyclohexane", "1,4-Bis(glycidoxymethyl)cyclohexane", "1,4-Bis[(glycidyloxy)methyl]cyclohexane", "1,4-Cyclohexanedimethanol diglycidyl ether", "1,4-Bis(hydroxymethyl)cyclohexane diglycidyl ether"], "SMILES": "C(OCC1CO1)C2CCC(COCC3CO3)CC2", "physical_data": {"Molecular Weight": "256.34", "Molecular Formula": "C14H24O4", "Boiling Point": "135 \u00b0C @ Press: 0.12 Torr"}}