{"cas_no": "1422-54-4", "cn_name": "2-\u6eb4-6-\u6c1f\u7532\u82ef", "en_name": ["1-Bromo-3-fluoro-2-methylbenzene", "Benzene, 1-bromo-3-fluoro-2-methyl-", "Toluene, 2-bromo-6-fluoro-", "1-Bromo-3-fluoro-2-methylbenzene", "2-Bromo-6-fluorotoluene"], "SMILES": "CC1=C(Br)C=CC=C1F", "physical_data": {"Molecular Weight": "189.02", "Molecular Formula": "C7H6BrF", "Boiling Point": "177-180 \u00b0C"}}