{"cas_no": "14227-17-9", "cn_name": "2,4,6-\u4e09\u7532\u6c27\u57fa\u82ef\u80fa", "en_name": ["2,4,6-Trimethoxyaniline", "Benzenamine, 2,4,6-trimethoxy-", "Aniline, 2,4,6-trimethoxy-", "2,4,6-Trimethoxybenzenamine", "2,4,6-Trimethoxyaniline", "2,4,6-Tris(methyloxy)aniline", "2,4,6-Trimethoxyphenylamine"], "SMILES": "O(C)C1=C(N)C(OC)=CC(OC)=C1", "physical_data": {"Molecular Weight": "183.20", "Molecular Formula": "C9H13NO3", "Boiling Point": "125-127 \u00b0C @ Press: 0.8 Torr", "Melting Point": "29-31 \u00b0C"}}