{"cas_no": "14222-60-7", "cn_name": "\u4e19\u786b\u5f02\u70df\u80fa", "en_name": ["Prothionamide", "4-Pyridinecarbothioamide, 2-propyl-", "Isonicotinamide, 2-propylthio-", "2-Propyl-4-pyridinecarbothioamide", "2-Propylthioisonicotinamide", "Prothionamide", "Trevintix", "Ektebin", "Protionamid", "2-Propylisonicotinylthioamide", "9778 R. P.", "Tebeform", "1321TH", "Tuberex", "Protion", "Protionamide", "Protionizina", "TH 1321", "RP 9778", "2-Propylpyridine-4-thiocarboxamide", "Peteha", "Tuberamin", "2-Propylpyridine-4-carboimidothioic acid"], "SMILES": "C(CC)C1=CC(C(N)=S)=CC=N1", "physical_data": {"Molecular Weight": "180.27", "Molecular Formula": "C9H12N2S", "Melting Point": "136.7 \u00b0C"}}