{"cas_no": "14235-81-5", "cn_name": "4-\u4e59\u7094\u57fa\u82ef\u80fa", "en_name": ["4-Ethynylaniline", "Benzenamine, 4-ethynyl-", "Aniline, p-ethynyl-", "4-Ethynylbenzenamine", "p-Aminophenylacetylene", "p-Ethynylaniline", "4-Ethynylaniline", "4-Aminophenylacetylene", "4-Amino-1-ethynylbenzene", "P-APAC", "(4-Ethynylphenyl)amine", "1-Amino-4-ethynylbenzene", "4-Aminophenylethyne"], "SMILES": "C(#C)C1=CC=C(N)C=C1", "physical_data": {"Molecular Weight": "117.15", "Molecular Formula": "C8H7N", "Boiling Point": "99-101 \u00b0C @ Press: 13 Torr", "Melting Point": "88-90 \u00b0C"}}