{"cas_no": "14234-82-3", "cn_name": "\u9a6c\u6765\u9178\u4e8c\u5f02\u4e01\u916f", "en_name": ["Diisobutyl maleate", "2-Butenedioic acid (2Z)-, 1,4-bis(2-methylpropyl) ester", "Maleic acid, diisobutyl ester", "2-Butenedioic acid (Z)-, bis(2-methylpropyl) ester", "2-Butenedioic acid (2Z)-, bis(2-methylpropyl) ester", "Diisobutyl maleate"], "SMILES": "C(C=CC(OCC(C)C)=O)(OCC(C)C)=O", "physical_data": {"Molecular Weight": "228.28", "Molecular Formula": "C12H20O4", "Boiling Point": "100 \u00b0C @ Press: 0.8 Torr"}}