{"cas_no": "1423-27-4", "cn_name": "2-(\u4e09\u6c1f\u7532\u57fa)\u82ef\u787c\u9178", "en_name": ["2-Trifluoromethylphenylboronic acid", "Boronic acid, B-[2-(trifluoromethyl)phenyl]-", "o-Tolueneboronic acid, \u03b1,\u03b1,\u03b1-trifluoro-", "Boronic acid, [2-(trifluoromethyl)phenyl]-", "B-[2-(Trifluoromethyl)phenyl]boronic acid", "2-Trifluoromethylbenzeneboronic acid", "2-Trifluoromethylphenylboronic acid"], "SMILES": "C(F)(F)(F)C1=C(B(O)O)C=CC=C1", "physical_data": {"Molecular Weight": "189.93", "Molecular Formula": "C7H6BF3O2", "Melting Point": "106-107 \u00b0C"}}