{"cas_no": "1423-60-5", "cn_name": "3-\u7094\u57fa-2-\u4e01\u916e", "en_name": ["3-Butyn-2-one", "3-Butyn-2-one", "Methyl ethynyl ketone", "Ethynyl methyl ketone", "Acetylacetylene", "1-Butyn-3-one", "Acetylethyne"], "SMILES": "C(C#C)(C)=O", "physical_data": {"Molecular Weight": "68.07", "Molecular Formula": "C4H4O", "Boiling Point": "84 \u00b0C", "Density": "0.8796 g/cm\u00b3 @ Temp: 20 \u00b0C"}}