{"cas_no": "14239-68-0", "cn_name": "\u4e8c\u4e59\u57fa\u4e8c\u786b\u4ee3\u6c28\u57fa\u7532\u9178\u9549", "en_name": ["Cadmium diethyldithiocarbamate", "Cadmium, bis(N,N-diethylcarbamodithioato-\u03baS,\u03baS\u2032)-, (T-4)-", "Cadmium, bis(diethyldithiocarbamato)-", "Cadmium, bis(diethylcarbamodithioato-S,S\u2032)-, (T-4)-", "Cadmium, bis(diethylcarbamodithioato-\u03baS,\u03baS\u2032)-, (T-4)-", "(T-4)-Bis(N,N-diethylcarbamodithioato-\u03baS,\u03baS\u2032)cadmium", "Bis(diethyldithiocarbamato)cadmium", "Cadmium diethyldithiocarbamate", "Cadmium di(diethyldithiocarbamate)", "Cadmium bis(N,N-diethyldithiocarbamate)", "Cadmate", "Cadmium bis(diethyldithiocarbamate)", "Cd diethyldithiocarbamate", "NSC 154470", "Accelerator CED", "CED", "Cadmium(II)-bisdithiocarbamate"], "SMILES": "N(CC)(CC)C=1[S-][Cd+2]2([S-]C(N(CC)CC)=[S]2)[S]1", "physical_data": {"Molecular Weight": "", "Molecular Formula": "C10H20CdN2S4", "Melting Point": "68-76 \u00b0C", "Density": "1.39 g/cm\u00b3"}}