{"cas_no": "14233-37-5", "cn_name": "\u6eb6\u5242\u84dd 36", "en_name": ["1,4-Bis[(1-methylethyl)amino]-9,10-anthracenedione", "9,10-Anthracenedione, 1,4-bis[(1-methylethyl)amino]-", "Anthraquinone, 1,4-bis(isopropylamino)-", "1,4-Bis[(1-methylethyl)amino]-9,10-anthracenedione", "1,4-Bis(isopropylamino)anthraquinone", "Brilliant Oil Blue BGS", "Duranol Blue PP", "Waxoline Blue AP", "C.I. Solvent Blue 36", "Oil Blue A", "C.I. Disperse Blue 134", "Solvent Blue 36", "Waxoline Blue AP-FW", "Disperse Blue 134", "Sumiplast Blue OA", "C.I. 61551", "Sublaprint Blue 70038", "Blue AP-FW", "1,4-Bis(N-isopropylamino)anthraquinone", "NSC 58039", "Orient Oil Blue 630", "Oil Blue 630", "Oplas Blue 630", "Morplas Blue 1003", "Unisol blue", "1,4-Bis(propan-2-ylamino)anthracene-9,10-dione", "Unisol Blue AS"], "SMILES": "N(C(C)C)C1=C2C(=C(NC(C)C)C=C1)C(=O)C=3C(C2=O)=CC=CC3", "physical_data": {"Molecular Weight": "322.40", "Molecular Formula": "C20H22N2O2", "Melting Point": "176-178 \u00b0C", "Density": "1.165 g/cm\u00b3"}}