{"cas_no": "142326-59-8", "cn_name": "7-\u6c2f-4-\u7f9f\u57fa-3-(3-\u82ef\u6c27\u57fa)\u82ef\u57fa-2(1H)-\u55b9\u5549", "en_name": ["7-Chloro-4-hydroxy-3-(3-phenoxyphenyl)-2(1H)-quinolinone", "2(1H)-Quinolinone, 7-chloro-4-hydroxy-3-(3-phenoxyphenyl)-", "7-Chloro-4-hydroxy-3-(3-phenoxyphenyl)-2(1H)-quinolinone", "L 701324"], "SMILES": "OC1=C(C2=CC(OC3=CC=CC=C3)=CC=C2)C(=O)NC=4C1=CC=C(Cl)C4", "physical_data": {"Molecular Weight": "363.79", "Molecular Formula": "C21H14ClNO3", "Melting Point": "308 \u00b0C"}}