{"cas_no": "1424-66-4", "cn_name": "2-\u6c2f-4-(\u4e8c\u7532\u57fa\u6c28\u57fa)\u82ef\u7532\u919b", "en_name": ["2-Chloro-4-(dimethylamino)benzaldehyde", "Benzaldehyde, 2-chloro-4-(dimethylamino)-", "2-Chloro-4-(dimethylamino)benzaldehyde", "o-Chloro-p-dimethylaminobenzaldehyde", "4-(Dimethylamino)-2-chlorobenzaldehyde", "NSC 93918", "2-Chloro-4-[N,N-bis(methyl)amino]benzaldehyde"], "SMILES": "N(C)(C)C1=CC(Cl)=C(C=O)C=C1", "physical_data": {"Molecular Weight": "183.63", "Molecular Formula": "C9H10ClNO", "Melting Point": "75-80 \u00b0C"}}