{"cas_no": "1424-00-6", "cn_name": "\u7532\u6c22\u777e\u916e", "en_name": ["1\u03b1-Methyl-5\u03b1-androstan-17\u03b2-ol-3-one", "Androstan-3-one, 17-hydroxy-1-methyl-, (1\u03b1,5\u03b1,17\u03b2)-", "5\u03b1-Androstan-3-one, 17\u03b2-hydroxy-1\u03b1-methyl-", "(1\u03b1,5\u03b1,17\u03b2)-17-Hydroxy-1-methylandrostan-3-one", "SH 723", "17\u03b2-Hydroxy-1\u03b1-methyl-5\u03b1-androstan-3-one", "Mesterolone", "1\u03b1-Methyl-5\u03b1-androstan-17\u03b2-ol-3-one", "1\u03b1-Methyl-17\u03b2-hydroxy-5\u03b1-androstan-3-one", "Proviron", "1\u03b1-Methyl-5\u03b1-dihydrotestosterone", "Androviron", "Mestoranum", "Mesteranum", "Testiwop", "Provirone 25", "NSC 75054", "MEST"], "SMILES": "CC12C3C(C4C(C)(CC3)C(O)CC4)CCC1CC(=O)CC2C", "physical_data": {"Molecular Weight": "304.47", "Molecular Formula": "C20H32O2", "Melting Point": "204 \u00b0C", "Density": "1.156 g/cm\u00b3"}}