{"cas_no": "14243-64-2", "cn_name": "\u4e09\u82ef\u57fa\u81a6\u6c2f\u91d1", "en_name": ["Chloro(triphenylphosphine)gold", "Gold, chloro(triphenylphosphine)-", "Chloro(triphenylphosphine)gold", "Triphenylphosphine gold chloride complex ((C6H5)3P.AuCl)", "(Triphenylphosphine)gold chloride", "Triphenylphosphineaurous chloride", "(Triphenylphosphine)gold(1+) monochloride", "SKF 40738", "(Triphenylphosphine)gold monochloride", "Chloro(triphenylphosphine)gold(I)", "(Triphenylphosphine)gold(I) chloride", "Triphenylphosphinechlorogold", "NSC 306388", "AuPPh3Cl", "PPh3AuCl", "AuCl(PPh3)"], "SMILES": "[P]([Au+][Cl-])(C1=CC=CC=C1)(C2=CC=CC=C2)C3=CC=CC=C3", "physical_data": {"Molecular Weight": "", "Molecular Formula": "C18H15AuClP", "Melting Point": "236-240 \u00b0C"}}