{"cas_no": "142459-58-3", "cn_name": "\u6c1f\u567b\u8349\u80fa", "en_name": ["Flufenacet", "Acetamide, N-(4-fluorophenyl)-N-(1-methylethyl)-2-[[5-(trifluoromethyl)-1,3,4-thiadiazol-2-yl]oxy]-", "N-(4-Fluorophenyl)-N-(1-methylethyl)-2-[[5-(trifluoromethyl)-1,3,4-thiadiazol-2-yl]oxy]acetamide", "FOE 5043", "Thiafluamide", "BAY-FOE 5043", "Flufenacet", "Fluthiamid", "Fluthiamide", "Define DF", "Cadou 500SC"], "SMILES": "N(C(COC=1SC(C(F)(F)F)=NN1)=O)(C(C)C)C2=CC=C(F)C=C2", "physical_data": {"Molecular Weight": "363.33", "Molecular Formula": "C14H13F4N3O2S", "Melting Point": "75-77 \u00b0C", "Density": "1.312 g/cm\u00b3"}}