{"cas_no": "14246-53-8", "cn_name": "\u8f9b\u9170\u7518\u6c28\u9178", "en_name": ["Capryloylglycine", "Glycine, N-(1-oxooctyl)-", "Glycine, N-octanoyl-", "N-(1-Oxooctyl)glycine", "N-Octanoyl-glycine", "Capryloylglycine", "Lipacide C 8G", "Octanoylglycine", "2-Octanamidoacetic acid"], "SMILES": "C(NCC(O)=O)(CCCCCCC)=O", "physical_data": {"Molecular Weight": "201.26", "Molecular Formula": "C10H19NO3", "Melting Point": "102-103 \u00b0C"}}