{"cas_no": "1424-22-2", "cn_name": "1-\u4e59\u9178\u73af\u5df1\u70ef\u916f", "en_name": ["1-Cyclohexen-1-ol, 1-acetate", "1-Cyclohexen-1-ol, 1-acetate", "1-Cyclohexen-1-ol, acetate", "1-Cyclohexenyl acetate", "Cyclohexen-1-ol acetate", "1-Acetoxycyclohexene", "1-Acetoxy-1-cyclohexene", "1-Cyclohexen-1-yl acetate", "1-(Acetyloxy)-1-cyclohexene", "NSC 18899", "Acetic acid 1-cyclohexenyl ester"], "SMILES": "O(C(C)=O)C=1CCCCC1", "physical_data": {"Molecular Weight": "140.18", "Molecular Formula": "C8H12O2", "Boiling Point": "180-181 \u00b0C", "Density": "1.01103 g/cm\u00b3 @ Temp: 20 \u00b0C"}}