{"cas_no": "14248-66-9", "cn_name": "3,5-\u4e8c\u7532\u57fa-4-\u785d\u57fa\u5421\u5576 1-\u6c27\u5316\u7269", "en_name": ["Pyridine, 3,5-dimethyl-4-nitro-, 1-oxide", "Pyridine, 3,5-dimethyl-4-nitro-, 1-oxide", "3,5-Lutidine, 4-nitro-, 1-oxide", "3,5-Dimethyl-4-nitropyridine 1-oxide", "3,5-Dimethyl-4-nitropyridine N-oxide", "4-Nitro-3,5-dimethylpyridine 1-oxide", "NSC 63056", "3,5-Dimethyl-4-nitro-1-oxidopyridin-1-ium"], "SMILES": "N(=O)(=O)C=1C(C)=CN(=O)=CC1C", "physical_data": {"Molecular Weight": "168.15", "Molecular Formula": "C7H8N2O3", "Melting Point": "174-175 \u00b0C"}}