{"cas_no": "14251-72-0", "cn_name": "\u4e01\u57fa\u4e09\u7532\u57fa\u6c2f\u5316\u94f5", "en_name": ["Butyltrimethylammonium chloride", "1-Butanaminium, N,N,N-trimethyl-, chloride (1:1)", "Ammonium, butyltrimethyl-, chloride", "1-Butanaminium, N,N,N-trimethyl-, chloride", "Butyltrimethylammonium chloride", "N-Butyl-N,N,N-trimethylammonium chloride", "Trimethylbutylammonium chloride"], "SMILES": "C([N+](C)(C)C)CCC.[Cl-]", "physical_data": {"Molecular Weight": "", "Molecular Formula": "C7H18N.Cl", "Melting Point": "223.7-224.0 \u00b0C"}}