{"cas_no": "14259-46-2", "cn_name": "\u82b8\u9999\u67da\u76ae\u82f7", "en_name": ["Narirutin", "4H-1-Benzopyran-4-one, 7-[[6-O-(6-deoxy-\u03b1-L-mannopyranosyl)-\u03b2-D-glucopyranosyl]oxy]-2,3-dihydro-5-hydroxy-2-(4-hydroxyphenyl)-, (2S)-", "Narirutin", "4H-1-Benzopyran-4-one, 7-[[6-O-(6-deoxy-\u03b1-L-mannopyranosyl)-\u03b2-D-glucopyranosyl]oxy]-2,3-dihydro-5-hydroxy-2-(4-hydroxyphenyl)-, (S)-", "Flavanone, 4\u2032,5,7-trihydroxy-, 7\u03b2-rutinoside", "(2S)-7-[[6-O-(6-Deoxy-\u03b1-L-mannopyranosyl)-\u03b2-D-glucopyranosyl]oxy]-2,3-dihydro-5-hydroxy-2-(4-hydroxyphenyl)-4H-1-benzopyran-4-one", "Naringenin 7-rutinoside", "Isonaringenin", "Isonaringin", "Naringenin 7\u03b2-rutinoside", "(2S)-Narirutin", "Naringenin 7-O-rutinoside"], "SMILES": "O=C1C=2C(OC(C1)C3=CC=C(O)C=C3)=CC(OC4OC(COC5C(O)C(O)C(O)C(C)O5)C(O)C(O)C4O)=CC2O", "physical_data": {"Molecular Weight": "580.53", "Molecular Formula": "C27H32O14", "Melting Point": "180 \u00b0C"}}