{"cas_no": "14255-88-0", "cn_name": "\u6297\u87a8\u5511", "en_name": ["Fenazaflor", "1H-Benzimidazole-1-carboxylic acid, 5,6-dichloro-2-(trifluoromethyl)-, phenyl ester", "1-Benzimidazolecarboxylic acid, 5,6-dichloro-2-(trifluoromethyl)-, phenyl ester", "NC 5016", "5,6-Dichloro-1-phenoxycarbonyl-2-trifluoromethylbenzimidazole", "Fenazaflor", "Lovozal", "Phenyl 5,6-dichloro-2-trifluoromethyl-1-benzimidazolecarboxylate", "Fenoflurazole"], "SMILES": "C(OC1=CC=CC=C1)(=O)N2C=3C(N=C2C(F)(F)F)=CC(Cl)=C(Cl)C3", "physical_data": {"Molecular Weight": "375.13", "Molecular Formula": "C15H7Cl2F3N2O2", "Melting Point": "103 \u00b0C"}}