{"cas_no": "14259-45-1", "cn_name": "\u8f66\u53f6\u8349\u82f7", "en_name": ["Asperuloside", "1H-2,6-Dioxacyclopent[cd]inden-1-one, 4-[(acetyloxy)methyl]-5-(\u03b2-D-glucopyranosyloxy)-2a,4a,5,7b-tetrahydro-, (2aS,4aS,5S,7bS)-", "Asperuloside", "1H-2,6-Dioxacyclopent[cd]inden-1-one, 4-[(acetyloxy)methyl]-5-(\u03b2-D-glucopyranosyloxy)-2a,4a,5,7b-tetrahydro-, [2aS-(2a\u03b1,4a\u03b1,5\u03b1,7b\u03b1)]-", "Cyclopenta[c]pyran-4-carboxylic acid, 1\u03b1-(\u03b2-D-glucosyloxy)-1,4a\u03b1,5,7a\u03b1-tetrahydro-5\u03b2-hydroxy-7-(hydroxymethyl)-, \u03b3-lactone, 7-acetate", "(2aS,4aS,5S,7bS)-4-[(Acetyloxy)methyl]-5-(\u03b2-D-glucopyranosyloxy)-2a,4a,5,7b-tetrahydro-1H-2,6-dioxacyclopent[cd]inden-1-one"], "SMILES": "O(C1C2C3C(C=C2COC(C)=O)OC(=O)C3=CO1)C4OC(CO)C(O)C(O)C4O", "physical_data": {"Molecular Weight": "414.36", "Molecular Formula": "C18H22O11", "Melting Point": "131.5 \u00b0C"}}