{"cas_no": "14252-80-3", "cn_name": "\u76d0\u9178\u5e03\u6bd4\u5361\u56e0", "en_name": ["Bupivacaine hydrochloride", "2-Piperidinecarboxamide, 1-butyl-N-(2,6-dimethylphenyl)-, hydrochloride (1:1)", "2\u2032,6\u2032-Pipecoloxylidide, 1-butyl-, monohydrochloride", "2-Piperidinecarboxamide, 1-butyl-N-(2,6-dimethylphenyl)-, monohydrochloride", "2\u2032,6\u2032-Pipecoloxylidide, 1-butyl-, hydrochloride", "Bupivacaine hydrochloride", "LAC 43", "Marcaine hydrochloride", "(\u00b1)-Bupivacaine hydrochloride", "Marcaina", "AH 2250", "Sensorcaine", "Bicain", "NovaBupi", "Bupivisone Plus"], "SMILES": "C(NC1=C(C)C=CC=C1C)(=O)C2N(CCCC)CCCC2.Cl", "physical_data": {"Molecular Weight": "", "Molecular Formula": "C18H28N2O.ClH", "Melting Point": "255-256 \u00b0C"}}