{"cas_no": "14259-47-3", "cn_name": "\u9999\u98ce\u8349\u7519", "en_name": ["Didymin", "4H-1-Benzopyran-4-one, 7-[[6-O-(6-deoxy-\u03b1-L-mannopyranosyl)-\u03b2-D-glucopyranosyl]oxy]-2,3-dihydro-5-hydroxy-2-(4-methoxyphenyl)-, (2S)-", "Didymin", "4H-1-Benzopyran-4-one, 7-[[6-O-(6-deoxy-\u03b1-L-mannopyranosyl)-\u03b2-D-glucopyranosyl]oxy]-2,3-dihydro-5-hydroxy-2-(4-methoxyphenyl)-, (S)-", "Flavanone, 5,7-dihydroxy-4\u2032-methoxy-, 7\u03b2-rutinoside", "(2S)-7-[[6-O-(6-Deoxy-\u03b1-L-mannopyranosyl)-\u03b2-D-glucopyranosyl]oxy]-2,3-dihydro-5-hydroxy-2-(4-methoxyphenyl)-4H-1-benzopyran-4-one", "Didymine", "Isosakuranetin 7-rutinoside", "Neoponcirin", "4\u2032-Methoxy-5,7-dihydroxyflavanone 7-O-rutinoside", "Isosakuranetin 7-O-rutinoside", "Citrifoliol-7-O-rutinoside"], "SMILES": "O=C1C=2C(OC(C1)C3=CC=C(OC)C=C3)=CC(OC4OC(COC5C(O)C(O)C(O)C(C)O5)C(O)C(O)C4O)=CC2O", "physical_data": {"Molecular Weight": "594.56", "Molecular Formula": "C28H34O14", "Melting Point": "210-212 \u00b0C"}}