{"cas_no": "14255-87-9", "cn_name": "\u5e15\u82ef\u54aa\u5511", "en_name": ["Parbendazole", "Carbamic acid, N-(6-butyl-1H-benzimidazol-2-yl)-, methyl ester", "2-Benzimidazolecarbamic acid, 5-butyl-, methyl ester", "Carbamic acid, (5-butyl-1H-benzimidazol-2-yl)-, methyl ester", "Methyl 5(6)-butyl-2-benzimidazolecarbamate", "Parbendazole", "5-Butyl-2-(carbomethoxyamino)benzimidazole", "SKF 29044", "Methyl 5-butylbenzimidazole-2-carbamate", "Helmatac", "Methyl (5-butyl-1H-benzimidazol-2-yl)carbamate", "Helatac", "PBZ (fungicide)", "PBZ"], "SMILES": "N(C(OC)=O)C=1NC=2C(N1)=CC(CCCC)=CC2", "physical_data": {"Molecular Weight": "247.29", "Molecular Formula": "C13H17N3O2", "Melting Point": "226 \u00b0C (decomp)"}}