{"cas_no": "1425-10-1", "cn_name": "\u918b\u9178\u8bfa\u9f99", "en_name": ["Nandrolone acetate", "Estr-4-en-3-one, 17-(acetyloxy)-, (17\u03b2)-", "Estr-4-en-3-one, 17\u03b2-hydroxy-, acetate", "(17\u03b2)-17-(Acetyloxy)estr-4-en-3-one", "19-Nortestosterone acetate", "3-Oxo-4-estren-17\u03b2-yl acetate", "19-Nortestosterone 17-acetate", "Nandrolone acetate", "17\u03b2-Acetoxy-19-norandrost-4-en-3-one", "17\u03b2-Acetoxyestr-4-en-3-one", "NSC 73213"], "SMILES": "CC12C(C3C(CC1)C4C(CC3)=CC(=O)CC4)CCC2OC(C)=O", "physical_data": {"Molecular Weight": "316.43", "Molecular Formula": "C20H28O3", "Melting Point": "91-93 \u00b0C"}}