{"cas_no": "14250-96-5", "cn_name": "2-\u7532\u57fa-2-\u620a\u70ef\u919b", "en_name": ["(E)-2-Methyl-2-pentenal", "2-Pentenal, 2-methyl-, (2E)-", "2-Pentenal, 2-methyl-, (E)-", "(2E)-2-Methyl-2-pentenal", "(E)-2-Methyl-2-penten-1-al", "(E)-2-Methyl-2-pentenal", "trans-2-Methylpent-2-enal", "(E)-2-Methylpentenal", "(2E)-2-Methylpent-2-enal"], "SMILES": "C(=CCC)(C=O)C", "physical_data": {"Molecular Weight": "98.14", "Molecular Formula": "C6H10O", "Boiling Point": "59-61 \u00b0C @ Press: 40 Torr"}}