{"cas_no": "14267-17-5", "cn_name": "\u4e8c\u4e59\u57fa\u4e8c\u786b\u4ee3\u6c28\u57fa\u7532\u9178\u954d", "en_name": ["Bis(diethyldithiocarbamato)nickel", "Nickel, bis(N,N-diethylcarbamodithioato-\u03baS,\u03baS\u2032)-, (SP-4-1)-", "Nickel, bis(diethyldithiocarbamato)-", "Nickel, bis(diethylcarbamodithioato-S,S\u2032)-, (SP-4-1)-", "Carbamic acid, diethyldithio-, Ni deriv.", "Nickel, bis(diethylcarbamodithioato-\u03baS,\u03baS\u2032)-, (SP-4-1)-", "(SP-4-1)-Bis(N,N-diethylcarbamodithioato-\u03baS,\u03baS\u2032)nickel", "Nickel diethyldithiocarbamate", "Bis(diethyldithiocarbamato)nickel", "Nickel diethylcarbamodithioate", "Nickel bis(N,N-diethyldithiocarbamate)", "Nickel(II)bis(diethyldithiocarbamate)", "Nickel bis(diethyldithiocarbamate)", "Bis(diethyldithiocarbamato)nickel(II)", "Bis(N,N-diethyldithiocarbamato)nickel", "Nocrac NEC", "Robac Ni PD"], "SMILES": "N(CC)(CC)C=1[S-][Ni+2]2([S-]C(N(CC)CC)=[S]2)[S]1", "physical_data": {"Molecular Weight": "", "Molecular Formula": "C10H20N2NiS4", "Melting Point": "259 \u00b0C"}}