{"cas_no": "14267-92-6", "cn_name": "5-\u6c2f\u620a\u7094", "en_name": ["5-Chloro-1-pentyne", "1-Pentyne, 5-chloro-", "5-Chloro-1-pentyne", "1-Chloro-4-pentyne", "4-Pentynyl chloride", "(3-Chloropropyl)acetylene"], "SMILES": "C(CCCl)C#C", "physical_data": {"Molecular Weight": "102.56", "Molecular Formula": "C5H7Cl", "Boiling Point": "88 \u00b0C @ Press: 350 Torr", "Density": "0.9695 g/cm\u00b3 @ Temp: 420 \u00b0C"}}