{"cas_no": "14268-66-7", "cn_name": "3,4-\u4e9a\u7532\u4e8c\u6c27\u57fa\u82ef\u80fa", "en_name": ["Benzodioxol-5-amine", "1,3-Benzodioxol-5-amine", "Aniline, 3,4-(methylenedioxy)-", "5-Amino-1,3-benzodioxole", "1-Amino-3,4-(methylenedioxy)benzene", "3,4-(Methylenedioxy)-1-aminobenzene", "4-Amino-1,2-(methylenedioxy)benzene", "3,4-(Methylenedioxy)aniline", "1,2-(Methylenedioxy)-4-aminobenzene", "(Benzo[1,3]dioxol-5-yl)amine", "3,4-Methylendioxyaniline", "(Benzodioxol-5-yl)amine", "1,3-Benzodioxolan-6-amine", "NSC 155176", "3,4-Methylenedioxybenzeneamine", "Benzo[d][1,3]dioxol-5-amine", "Benzodioxol-5-amine", "Benzo[d][1,3]dioxol-5-ylamine", "1,3-Dioxaindan-5-amine", "2H-1,3-Benzodioxol-5-amine", "Benzo[d][1,3]dioxolan-5-amine"], "SMILES": "NC=1C=C2C(=CC1)OCO2", "physical_data": {"Molecular Weight": "137.14", "Molecular Formula": "C7H7NO2", "Boiling Point": "97 \u00b0C @ Press: 0.2 Torr", "Melting Point": "44.5-45.5 \u00b0C"}}