{"cas_no": "14263-89-9", "cn_name": "(T-4)-\u56db\u6c2f\u950c\u9178-4-\u6c2f-2-\u785d\u57fa\u82ef\u91cd\u6c2e\u76d0", "en_name": ["Benzenediazonium, 4-chloro-2-nitro-, (T-4)-tetrachlorozincate(2-) (2:1)", "Benzenediazonium, 4-chloro-2-nitro-, (T-4)-tetrachlorozincate(2-) (2:1)", "Benzenediazonium, 4-chloro-2-nitro-, tetrachlorozincate(2-) (2:1)", "Bis(4-chloro-2-nitrobenzenediazonium) tetrachlorozincate", "Zincate(2-), tetrachloro-, (T-4)-, bis(4-chloro-2-nitrobenzenediazonium)"], "SMILES": "[Zn+2]([Cl-])([Cl-])([Cl-])[Cl-].N(=O)(=O)C1=C([N+]#N)C=CC(Cl)=C1", "physical_data": {"Molecular Weight": "", "Molecular Formula": "C6H3ClN3O2.<sup>1</sup>/2Cl4Zn", "Melting Point": "141-142 \u00b0C (decomp)"}}