{"cas_no": "14264-16-5", "cn_name": "\u53cc(\u4e09\u82ef\u57fa\u81a6)\u6c2f\u5316\u954d", "en_name": ["Bis(triphenylphosphine)nickel dichloride", "Nickel, dichlorobis(triphenylphosphine)-", "Dichlorobis(triphenylphosphine)nickel", "Bis(triphenylphosphine)dichloronickel", "Bis(triphenylphosphine)nickel dichloride", "Bis(triphenylphosphine)dichloronickel(II)", "Bis(triphenylphosphine)nickel(II) dichloride", "NSC 137147"], "SMILES": "[P]([Ni+2]([P](C1=CC=CC=C1)(C2=CC=CC=C2)C3=CC=CC=C3)([Cl-])[Cl-])(C4=CC=CC=C4)(C5=CC=CC=C5)C6=CC=CC=C6", "physical_data": {"Molecular Weight": "", "Molecular Formula": "C36H30Cl2NiP2", "Melting Point": "247-250 \u00b0C"}}