{"cas_no": "1427-07-2", "cn_name": "2-\u6c1f-4-\u785d\u57fa\u7532\u82ef", "en_name": ["2-Fluoro-1-methyl-4-nitrobenzene", "Benzene, 2-fluoro-1-methyl-4-nitro-", "Toluene, 2-fluoro-4-nitro-", "2-Fluoro-1-methyl-4-nitrobenzene", "2-Fluoro-4-nitrotoluene", "3-Fluoro-4-methylnitrobenzene", "NSC 60724", "1-Methyl-2-fluoro-4-nitrobenzene"], "SMILES": "N(=O)(=O)C1=CC(F)=C(C)C=C1", "physical_data": {"Molecular Weight": "155.13", "Molecular Formula": "C7H6FNO2", "Boiling Point": "65-68 \u00b0C @ Press: 2 Torr", "Melting Point": "34-35 \u00b0C"}}