{"cas_no": "142720-24-9", "cn_name": "N,N-\u4e8c\u5df1\u57fa-2-(4-\u6c1f\u82ef)\u5432\u54da-3-\u4e59\u9170\u80fa", "en_name": ["2-(4-Fluorophenyl)-N,N-dihexyl-1H-indole-3-acetamide", "1H-Indole-3-acetamide, 2-(4-fluorophenyl)-N,N-dihexyl-", "2-(4-Fluorophenyl)-N,N-dihexyl-1H-indole-3-acetamide", "FGIN 1-27"], "SMILES": "C(C(N(CCCCCC)CCCCCC)=O)C1=C(NC=2C1=CC=CC2)C3=CC=C(F)C=C3", "physical_data": {"Molecular Weight": "436.60", "Molecular Formula": "C28H37FN2O", "Melting Point": "96-97 \u00b0C"}}