{"cas_no": "14273-90-6", "cn_name": "6-\u6eb4\u5df1\u9178\u7532\u916f", "en_name": ["Methyl 6-bromohexanoate", "Hexanoic acid, 6-bromo-, methyl ester", "Methyl 6-bromohexanoate", "Methyl 6-bromocaproate", "6-Bromohexanoic acid methyl ester"], "SMILES": "C(CCCCCBr)(OC)=O", "physical_data": {"Molecular Weight": "209.08", "Molecular Formula": "C7H13BrO2", "Boiling Point": "100 \u00b0C @ Press: 5 Torr", "Density": "1.271 g/cm\u00b3 @ Temp: 25 \u00b0C"}}