{"cas_no": "142796-22-3", "cn_name": "\u5f02\u6c34\u98de\u84df\u5bbeB", "en_name": ["Isosilybin B", "4H-1-Benzopyran-4-one, 2-[(2S,3S)-2,3-dihydro-2-(4-hydroxy-3-methoxyphenyl)-3-(hydroxymethyl)-1,4-benzodioxin-6-yl]-2,3-dihydro-3,5,7-trihydroxy-, (2R,3R)-", "1,4-Benzodioxin, 4H-1-benzopyran-4-one deriv.", "(2R,3R)-2-[(2S,3S)-2,3-Dihydro-2-(4-hydroxy-3-methoxyphenyl)-3-(hydroxymethyl)-1,4-benzodioxin-6-yl]-2,3-dihydro-3,5,7-trihydroxy-4H-1-benzopyran-4-one", "Isosilybin B", "Silybin a2", "Isosilibinin B"], "SMILES": "C(O)C1C(OC=2C(O1)=CC(=CC2)C3OC=4C(C(=O)C3O)=C(O)C=C(O)C4)C5=CC(OC)=C(O)C=C5", "physical_data": {"Molecular Weight": "482.44", "Molecular Formula": "C25H22O10", "Melting Point": "194-196 \u00b0C"}}