{"cas_no": "14277-97-5", "cn_name": "\u8f6f\u9aa8\u85fb\u9178", "en_name": ["(-)-Domoic acid", "3-Pyrrolidineacetic acid, 2-carboxy-4-[(1Z,3E,5R)-5-carboxy-1-methyl-1,3-hexadien-1-yl]-, (2S,3S,4S)-", "3-Pyrrolidineacetic acid, 2-carboxy-4-(5-carboxy-1-methyl-1,3-hexadienyl)-, [2S-[2\u03b1,3\u03b2,4\u03b2(1Z,3E,5S*)]]-", "Domoic acid", "3-Pyrrolidineacetic acid, 2-carboxy-4-[(1Z,3E,5R)-5-carboxy-1-methyl-1,3-hexadienyl]-, (2S,3S,4S)-", "(2S,3S,4S)-2-Carboxy-4-[(1Z,3E,5R)-5-carboxy-1-methyl-1,3-hexadien-1-yl]-3-pyrrolidineacetic acid", "L-Domoic acid", "(-)-Domoic acid", "NSC 288031"], "SMILES": "C(C(O)=O)C1C(C(=CC=CC(C(O)=O)C)C)CNC1C(O)=O", "physical_data": {"Molecular Weight": "311.33", "Molecular Formula": "C15H21NO6", "Melting Point": "217 \u00b0C (decomp)"}}