{"cas_no": "1428-95-1", "cn_name": "\u963f\u7c73\u6d1b\u5229", "en_name": ["Hexamethylene amiloride", "2-Pyrazinecarboxamide, 3-amino-N-(aminoiminomethyl)-6-chloro-5-(hexahydro-1H-azepin-1-yl)-", "Pyrazinecarboxamide, N-amidino-3-amino-6-chloro-5-(hexahydro-1H-azepin-1-yl)-", "Pyrazinecarboxamide, 3-amino-N-(aminoiminomethyl)-6-chloro-5-(hexahydro-1H-azepin-1-yl)-", "3-Amino-N-(aminoiminomethyl)-6-chloro-5-(hexahydro-1H-azepin-1-yl)-2-pyrazinecarboxamide", "5-(N,N-Hexamethylene)amiloride", "Hexamethylene amiloride", "5-(N,N-Hexamethylene)amiloride", "5-Hexamethylene amiloride", "N-Hexamethylene Amiloride"], "SMILES": "ClC=1C(=NC(N)=C(C(NC(=N)N)=O)N1)N2CCCCCC2", "physical_data": {"Molecular Weight": "311.77", "Molecular Formula": "C12H18ClN7O", "Melting Point": "224-225 \u00b0C"}}