{"cas_no": "142810-19-3", "cn_name": "FMOC-VAL-GLY-OH", "en_name": ["N-[(9H-Fluoren-9-ylmethoxy)carbonyl]-L-valylglycine", "Glycine, N-[(9H-fluoren-9-ylmethoxy)carbonyl]-L-valyl-", "Glycine, N-[N-[(9H-fluoren-9-ylmethoxy)carbonyl]-L-valyl]-", "N-[(9H-Fluoren-9-ylmethoxy)carbonyl]-L-valylglycine", "(S)-2-(2-((((9H-Fluoren-9-yl)methoxy)carbonyl)amino)-3-methylbutanamido)acetic acid", "2-[(2S)-2-([[(9H-Fluoren-9-yl)methoxy]carbonyl]amino)-3-methylbutanamido]acetic acid"], "SMILES": "C(OC(NC(C(NCC(O)=O)=O)C(C)C)=O)C1C=2C(C=3C1=CC=CC3)=CC=CC2", "physical_data": {"Molecular Weight": "396.44", "Molecular Formula": "C22H24N2O5", "Melting Point": "173-175 \u00b0C"}}