{"cas_no": "14284-93-6", "cn_name": "\u4e09(\u4e59\u9170\u4e19\u916e\u9178)\u948c(III)", "en_name": ["Tris(acetylacetonato)ruthenium", "Ruthenium, tris(2,4-pentanedionato-\u03baO2,\u03baO4)-, (OC-6-11)-", "Ruthenium, tris(2,4-pentanedionato)-", "Ruthenium, tris(2,4-pentanedionato-O,O\u2032)-, (OC-6-11)-", "Ruthenium, tris(2,4-pentanedionato-\u03baO,\u03baO\u2032)-, (OC-6-11)-", "(OC-6-11)-Tris(2,4-pentanedionato-\u03baO2,\u03baO4)ruthenium", "Tris(acetylacetonato)ruthenium", "Ruthenium acetylacetonate", "Tris(2,4-pentanedionato)ruthenium", "Tris(acetylacetonate)ruthenium", "Ruthenium tris(acetylacetonate)", "Tris(acetoacetonato)ruthenium(III)", "NSC 139624", "Ru(acac)3", "Ruthenium(III)-2,4-pentanedionate"], "SMILES": "CC1=O[Ru+3]23(O=C(C)[CH-]C(C)=O2)(O=C(C)[CH-]C(C)=O3)O=C(C)[CH-]1", "physical_data": {"Molecular Weight": "", "Molecular Formula": "C15H21O6Ru", "Melting Point": "135-145 \u00b0C"}}