{"cas_no": "14281-83-5", "cn_name": "\u7518\u6c28\u9178\u950c", "en_name": ["Zinc glycinate", "Zinc, bis(glycinato-\u03baN,\u03baO)-, (T-4)-", "Zinc, bis(glycinato)-", "Zinc, bis(glycinato-N,O)-, (T-4)-", "Glycine, zinc complex", "Bis(glycinato)zinc", "Glycine zinc salt", "Zinc Chelazome", "Zinc(II) glycinate", "Zinc bisglycinate", "Zinc glycinate"], "SMILES": "O=C1[O-][Zn+2]2([O-]C(=O)C[NH2]2)[NH2]C1", "physical_data": {"Molecular Weight": "", "Molecular Formula": "C4H8N2O4Zn", "Melting Point": "&gt;300 \u00b0C (decomp)"}}