{"cas_no": "14283-07-9", "cn_name": "\u56db\u6c1f\u787c\u9178\u9502", "en_name": ["Lithium tetrafluoroborate", "Borate(1-), tetrafluoro-, lithium (1:1)", "Borate(1-), tetrafluoro-, lithium", "Lithium tetrafluoroborate", "Lithium fluoborate", "Lithium fluoroborate", "Lithium tetrafluoroborate(1-)", "Lithium tetrafluoroborate (LiBF4)", "Lithium fluoroborate (LiBF4)", "Lithium boridefluoride (LiBF4)"], "SMILES": "[B+3]([F-])([F-])([F-])[F-].[Li+]", "physical_data": {"Molecular Weight": "", "Molecular Formula": "BF4.Li", "Melting Point": "117 \u00b0C"}}