{"cas_no": "14287-61-7", "cn_name": "\u7532\u57fa\u7570\u4e19\u57fa\u4e59\u9178", "en_name": ["2,3-Dimethylbutanoic acid", "Butanoic acid, 2,3-dimethyl-", "Butyric acid, 2,3-dimethyl-", "Butyric acid, \u03b1,\u03b2-dimethyl-", "2,3-Dimethylbutanoic acid", "2,3-Dimethylbutyric acid", "(\u00b1)-2,3-Dimethylbutyric acid", "(\u00b1)-2,3-Dimethylbutanoic acid", "2,3,3-Trimethylpropionic acid"], "SMILES": "C(C(C)C)(C(O)=O)C", "physical_data": {"Molecular Weight": "116.16", "Molecular Formula": "C6H12O2", "Boiling Point": "191.7 \u00b0C", "Melting Point": "-1.5 \u00b0C", "Density": "0.9275 g/cm\u00b3 @ Temp: 20 \u00b0C"}}