{"cas_no": "14282-76-9", "cn_name": "2-\u6eb4-3-\u7532\u57fa\u567b\u5429", "en_name": ["2-Bromo-3-methylthiophene", "Thiophene, 2-bromo-3-methyl-", "2-Bromo-3-methylthiophene", "5-Bromo-4-methylthiophene"], "SMILES": "CC1=C(Br)SC=C1", "physical_data": {"Molecular Weight": "177.06", "Molecular Formula": "C5H5BrS", "Boiling Point": "176 \u00b0C", "Melting Point": "&lt;25 \u00b0C", "Density": "1.571 g/cm\u00b3 @ Temp: 20 \u00b0C"}}