{"cas_no": "1428-33-7", "cn_name": "\u70ef\u4e19\u57fa-1,1,2,2-\u56db\u6c1f\u4e59\u57fa\u919a", "en_name": ["3-(1,1,2,2-Tetrafluoroethoxy)-1-propene", "1-Propene, 3-(1,1,2,2-tetrafluoroethoxy)-", "Ether, allyl 1,1,2,2-tetrafluoroethyl", "3-(1,1,2,2-Tetrafluoroethoxy)-1-propene", "Allyl 1,1,2,2-tetrafluoroethyl ether", "1,1,2,2-Tetrafluoroethyl allyl ether"], "SMILES": "C(C(F)F)(OCC=C)(F)F", "physical_data": {"Molecular Weight": "158.09", "Molecular Formula": "C5H6F4O", "Boiling Point": "74 \u00b0C @ Press: 739 Torr", "Density": "1.2043 g/cm\u00b3 @ Temp: 20 \u00b0C"}}