{"cas_no": "14284-92-5", "cn_name": "\u4e09\u4e59\u9170\u4e19\u916e\u94d1(III)", "en_name": ["Rhodium acetylacetonate", "Rhodium, tris(2,4-pentanedionato-\u03baO2,\u03baO4)-, (OC-6-11)-", "Rhodium, tris(2,4-pentanedionato)-", "Rhodium, tris(2,4-pentanedionato-O,O\u2032)-, (OC-6-11)-", "Rhodium, tris(2,4-pentanedionato-\u03baO,\u03baO\u2032)-, (OC-6-11)-", "(OC-6-11)-Tris(2,4-pentanedionato-\u03baO2,\u03baO4)rhodium", "Rhodium tris(acetylacetonate)", "Tris(acetylacetonato)rhodium", "Tris(2,4-pentanedionato)rhodium(III)", "Rhodium acetylacetonate", "Tris(2,4-pentanedionato)rhodium", "Rhodium(III) acetylacetonate"], "SMILES": "CC1=O[Rh+3]23(O=C(C)[CH-]C(C)=O2)(O=C(C)[CH-]C(C)=O3)O=C(C)[CH-]1", "physical_data": {"Molecular Weight": "", "Molecular Formula": "C15H21O6Rh", "Melting Point": "267 \u00b0C"}}