{"cas_no": "142874-81-5", "cn_name": "2,2,4,6,7-\u4e94\u7532\u57fa\u82ef\u5e76\u544b\u5583", "en_name": ["2,3-Dihydro-2,2,4,6,7-pentamethylbenzofuran", "Benzofuran, 2,3-dihydro-2,2,4,6,7-pentamethyl-", "2,3-Dihydro-2,2,4,6,7-pentamethylbenzofuran"], "SMILES": "CC1=C2C(OC(C)(C)C2)=C(C)C(C)=C1", "physical_data": {"Molecular Weight": "190.28", "Molecular Formula": "C13H18O", "Melting Point": "44-46 \u00b0C"}}