{"cas_no": "14280-53-6", "cn_name": "\u6eb4\u5316\u94df", "en_name": ["Indium bromide (InBr)", "Indium bromide (InBr)", "Indium monobromide", "Indium(1+) bromide", "Indium(I) bromide"], "SMILES": "Br[In]", "physical_data": {"Molecular Weight": "", "Molecular Formula": "BrIn", "Melting Point": "290 \u00b0C"}}