{"cas_no": "1428-67-7", "cn_name": "2,3-\u53cc(4-\u7f9f\u82ef\u57fa)\u4e19\u8148", "en_name": ["2,3-Bis(4-hydroxyphenyl)propionitrile", "Benzenepropanenitrile, 4-hydroxy-\u03b1-(4-hydroxyphenyl)-", "Propionitrile, 2,3-bis(p-hydroxyphenyl)-", "4-Hydroxy-\u03b1-(4-hydroxyphenyl)benzenepropanenitrile", "DPN", "2,3-Bis(p-hydroxyphenyl)propionitrile", "2,3-Bis(4-hydroxyphenyl)propionitrile", "2,3-Bis(4-hydroxyphenyl)propanenitrile"], "SMILES": "C(CC1=CC=C(O)C=C1)(C#N)C2=CC=C(O)C=C2", "physical_data": {"Molecular Weight": "239.27", "Molecular Formula": "C15H13NO2", "Melting Point": "197.5-199.5 \u00b0C"}}