{"cas_no": "14284-89-0", "cn_name": "\u4e59\u9170\u4e19\u916e\u9530", "en_name": ["Tris(acetylacetonato)manganese", "Manganese, tris(2,4-pentanedionato-\u03baO2,\u03baO4)-, (OC-6-11)-", "Manganese, tris(2,4-pentanedionato)-", "Manganese, tris(2,4-pentanedionato-O,O\u2032)-, (OC-6-11)-", "Manganese, tris(2,4-pentanedionato-\u03baO,\u03baO\u2032)-, (OC-6-11)-", "(OC-6-11)-Tris(2,4-pentanedionato-\u03baO2,\u03baO4)manganese", "Manganic acetylacetonate", "Manganese(III) acetylacetonate", "Manganese acetylacetonate", "Tris(acetylacetonato)manganese", "Manganese tris(acetylacetonate)", "Tris(2,4-pentanedionato)manganese", "Manganese(3+) acetylacetonate", "Tris(acetylacetonate) manganese", "MOK 1", "Tris(acetylacetone)manganese", "NSC 82319", "Acetope Mn(III)", "Octope Mn (III)"], "SMILES": "CC1=O[Mn+3]23(O=C(C)[CH-]C(C)=O2)(O=C(C)[CH-]C(C)=O3)O=C(C)[CH-]1", "physical_data": {"Molecular Weight": "", "Molecular Formula": "C15H21MnO6", "Melting Point": "155 \u00b0C (decomp)"}}