{"cas_no": "1429-50-1", "cn_name": "\u4e59\u4e8c\u80fa\u56db\u4e9a\u7532\u57fa\u81a6\u9178", "en_name": ["Ethylenediaminetetra(methylenephosphonic acid)", "Phosphonic acid, P,P\u2032,P\u2032\u2032,P\u2032\u2032\u2032-[1,2-ethanediylbis[nitrilobis(methylene)]]tetrakis-", "Phosphonic acid, [ethylenebis(nitrilodimethylene)]tetra-", "Phosphonic acid, [1,2-ethanediylbis[nitrilobis(methylene)]]tetrakis-", "P,P\u2032,P\u2032\u2032,P\u2032\u2032\u2032-[1,2-Ethanediylbis[nitrilobis(methylene)]]tetrakis[phosphonic acid]", "Ethylenediaminetetra(methylenephosphonic acid)", "Ethylenediaminetetrakis(methylphosphonic acid)", "Ethylenediaminotetra(methylenephosphonic acid)", "[Ethylenebis(nitrilodimethylene)]tetraphosphonic acid", "Ethylenediaminetetrakis(methylenephosphonic acid)", "Ethylenediamine-N,N,N\u2032,N\u2032-tetra(methylphosphonic acid)", "Ethylenedi(nitrilodimethylene)tetraphosphonic acid", "Dequest 2041", "N,N,N\u2032,N\u2032-Tetrakis(phosphonomethyl)ethylenediamine", "Dequest 2040", "Editempa", "EDTF", "EDPA", "EDTPA", "Wayplex 45K", "EDTMP", "Ethylenediamine-N,N,N\u2032,N\u2032-tetrakis(methylenephosphonic acid)", "EDPA (chelating agent)", "Cublen 3115", "EDTPH", "EDTMPA", "Ethylenediaminetetramethylenephosphonate", "Briquest 422-25S", "PH 540", "Chelest PH 540", "Chelating agent 540", "Cublen E 950", "EDTMPS", "([[2-(Bis-phosphonomethyl-amino)-ethyl]-phosphonomethyl-amino]-methyl)-phosphonic acid", "[2-[Bis(phosphonomethyl)amino]ethyl-(phosphonomethyl)amino]methylphosphonic acid"], "SMILES": "C(N(CP(=O)(O)O)CCN(CP(=O)(O)O)CP(=O)(O)O)P(=O)(O)O", "physical_data": {"Molecular Weight": "436.12", "Molecular Formula": "C6H20N2O12P4", "Melting Point": "247 \u00b0C"}}