{"cas_no": "142946-80-3", "cn_name": "5,5'-\u4e8c(\u4e09\u6c1f\u7532\u57fa)-2,2'-\u8054\u5421\u5576", "en_name": ["5,5\u2032-Bis(trifluoromethyl)-2,2\u2032-bipyridine", "2,2\u2032-Bipyridine, 5,5\u2032-bis(trifluoromethyl)-", "5,5\u2032-Bis(trifluoromethyl)-2,2\u2032-bipyridine", "5,5\u2032-Di(trifluoromethyl)-2,2\u2032-bypyridine"], "SMILES": "C(F)(F)(F)C1=CC=C(N=C1)C2=CC=C(C(F)(F)F)C=N2", "physical_data": {"Molecular Weight": "292.18", "Molecular Formula": "C12H6F6N2", "Melting Point": "128-130 \u00b0C"}}