{"cas_no": "14290-86-9", "cn_name": "\u6c1f\u8089\u6842\u9178", "en_name": ["trans-4-Fluorocinnamic acid", "2-Propenoic acid, 3-(4-fluorophenyl)-, (2E)-", "Cinnamic acid, p-fluoro-, (E)-", "2-Propenoic acid, 3-(4-fluorophenyl)-, (E)-", "(2E)-3-(4-Fluorophenyl)-2-propenoic acid", "(E)-4-Fluorocinnamic acid", "(E)-3-(4-Fluorophenyl)-2-propenoic acid", "trans-4-Fluorocinnamic acid", "(2E)-3-(4-Fluorophenyl)prop-2-enoic acid", "trans-3-(4-Fluorophenyl)-2-propenoic acid", "4-Fluoro-trans-cinnamic acid", "(E)-p-Fluorocinnamic acid", "(E)-3-(4-Fluorophenyl)acrylic acid", "(E)-3-(4-Fluorophenyl)acrylic acid"], "SMILES": "C(=CC(O)=O)C1=CC=C(F)C=C1", "physical_data": {"Molecular Weight": "166.15", "Molecular Formula": "C9H7FO2", "Melting Point": "202 \u00b0C"}}