{"cas_no": "14294-10-1", "cn_name": "4-\u5417\u5549\u786b\u4ee3\u7532\u9170\u80fa", "en_name": ["4-Morpholinecarbothioamide", "4-Morpholinecarbothioamide", "4-Morpholinecarboxamide, thio-", "N-Morpholinothioamide", "4-Morpholinethiocarboxamide", "Morpholine-N-carbothioamide", "4-Thiocarbamoylmorpholine", "4-(Aminothiocarbonyl)morpholine", "Morpholinothiourea", "NSC 191802", "Morpholine-4-carbothioic acid amide"], "SMILES": "C(N)(=S)N1CCOCC1", "physical_data": {"Molecular Weight": "146.21", "Molecular Formula": "C5H10N2OS", "Melting Point": "111.5-112.5 \u00b0C"}}