{"cas_no": "14293-44-8", "cn_name": "\u5e0c\u4f2f\u80fa", "en_name": ["Xipamide", "Benzamide, 5-(aminosulfonyl)-4-chloro-N-(2,6-dimethylphenyl)-2-hydroxy-", "2\u2032,6\u2032-Salicyloxylidide, 4-chloro-5-sulfamoyl-", "5-(Aminosulfonyl)-4-chloro-N-(2,6-dimethylphenyl)-2-hydroxybenzamide", "Xipamide", "Aquaphor (diuretic)", "BE 1293", "Aquaphor", "BEI 1293", "Diurex", "Diurex (Lacer)", "MJF 10938", "Lumitens", "Diurexan", "Chronexan"], "SMILES": "C(NC1=C(C)C=CC=C1C)(=O)C2=CC(S(N)(=O)=O)=C(Cl)C=C2O", "physical_data": {"Molecular Weight": "354.81", "Molecular Formula": "C15H15ClN2O4S", "Melting Point": "256 \u00b0C"}}