{"cas_no": "14292-27-4", "cn_name": "3-\u7f9f\u57fa\u8f9b\u9178", "en_name": ["3-Hydroxyoctanoic acid", "Octanoic acid, 3-hydroxy-", "Caprylic acid, \u03b2-hydroxy-", "3-Hydroxyoctanoic acid", "\u03b2-Hydroxyoctanoic acid", "3-Hydroxycaprylic acid", "(\u00b1)-3-Hydroxyoctanoic acid", "\u03b2-Hydroxycaprylic acid"], "SMILES": "C(C(CC(O)=O)O)CCCC", "physical_data": {"Molecular Weight": "160.21", "Molecular Formula": "C8H16O3", "Melting Point": "38-38.5 \u00b0C"}}