{"cas_no": "1429-59-0", "cn_name": "1,2-DISTEAROYL-SN-GLYCEROL", "en_name": ["1,1\u2032-[(1R)-1-(Hydroxymethyl)-1,2-ethanediyl] dioctadecanoate", "Octadecanoic acid, 1,1\u2032-[(1R)-1-(hydroxymethyl)-1,2-ethanediyl] ester", "Stearin, 1,2-di-, D-", "Octadecanoic acid, 1-(hydroxymethyl)-1,2-ethanediyl ester, (R)-", "Octadecanoic acid, (1R)-1-(hydroxymethyl)-1,2-ethanediyl ester", "1,1\u2032-[(1R)-1-(Hydroxymethyl)-1,2-ethanediyl] dioctadecanoate", "(R)-1,2-Distearin", "2,3-Distearoyl-sn-glycerol", "sn-2,3-Distearoylglycerol"], "SMILES": "C(OC(CCCCCCCCCCCCCCCCC)=O)(COC(CCCCCCCCCCCCCCCCC)=O)CO", "physical_data": {"Molecular Weight": "625.02", "Molecular Formula": "C39H76O5", "Melting Point": "76-77 \u00b0C"}}