{"cas_no": "143-62-4", "cn_name": "\u6bdb\u5730\u9ec4\u6bd2\u82f7\u914d\u57fa", "en_name": ["Digitoxigenin", "Card-20(22)-enolide, 3,14-dihydroxy-, (3\u03b2,5\u03b2)-", "5\u03b2-Card-20(22)-enolide, 3\u03b2,14-dihydroxy-", "(3\u03b2,5\u03b2)-3,14-Dihydroxycard-20(22)-enolide", "Digitoxigenin", "\u039420:22-3,14,21-Trihydroxynorcholenic acid lactone", "(+)-Digitoxigenin", "NSC 407806", "Cerberigenin", "MeSH ID: D004073"], "SMILES": "OC12C3C(C4(C)C(CC3)CC(O)CC4)CCC1(C)C(CC2)C=5COC(=O)C5", "physical_data": {"Molecular Weight": "374.51", "Molecular Formula": "C23H34O4", "Melting Point": "253 \u00b0C"}}