{"cas_no": "143-74-8", "cn_name": "\u915a\u7ea2", "en_name": ["Phenol red", "Phenol, 4,4\u2032-(1,1-dioxido-3H-2,1-benzoxathiol-3-ylidene)bis-", "Phenol, 4,4\u2032-(3H-2,1-benzoxathiol-3-ylidene)di-, S,S-dioxide", "Phenol, 4,4\u2032-(3H-2,1-benzoxathiol-3-ylidene)bis-, S,S-dioxide", "3H-2,1-Benzoxathiole, phenol deriv.", "4,4\u2032-(1,1-Dioxido-3H-2,1-benzoxathiol-3-ylidene)bis[phenol]", "3,3-Bis(p-hydroxyphenyl)-2,1-3H-benzoxathiole 1,1-dioxide", "\u03b1-Hydroxy-\u03b1,\u03b1-bis(p-hydroxyphenyl)-o-toluenesulfonic acid \u03b3-sultone", "Phenol red", "Phenolsulfonephthalein", "Phenolsulfonphthalein", "Sulfonphthal", "Phenolsulphonphthalein", "3H-2,1-Benzoxathiole, 3,3-bis(4-hydroxyphenyl)-, 1,1-dioxide", "Fenolipuna", "PSP (indicator)", "Sulphental", "Sulphonthal", "PSP", "TF-R 2", "NSC 10459"], "SMILES": "O=S1(=O)OC(C=2C1=CC=CC2)(C3=CC=C(O)C=C3)C4=CC=C(O)C=C4", "physical_data": {"Molecular Weight": "354.38", "Molecular Formula": "C19H14O5S", "Melting Point": "&gt;300 \u00b0C"}}