{"cas_no": "143-16-8", "cn_name": "\u4e8c\u6b63\u5df1\u80fa", "en_name": ["Dihexylamine", "1-Hexanamine, N-hexyl-", "Dihexylamine", "N-Hexyl-1-hexanamine", "Di-n-hexylamine", "N,N-Dihexylamine", "N-Hexylhexanamine", "Bis(1-hexyl)amine", "NSC 7498", "1-Hexanamine, N-hexyl-, ion(1-)"], "SMILES": "N(CCCCCC)CCCCCC", "physical_data": {"Molecular Weight": "185.35", "Molecular Formula": "C12H27N", "Boiling Point": "236 \u00b0C", "Melting Point": "-13.1 \u00b0C", "Density": "0.7880 g/cm\u00b3 @ Temp: 20 \u00b0C"}}