{"cas_no": "143-23-7", "cn_name": "\u53cc\u516d\u7532\u57fa\u4e09\u80fa", "en_name": ["Bis(hexamethylene)triamine", "1,6-Hexanediamine, N1-(6-aminohexyl)-", "Dihexylamine, 6,6\u2032-diamino-", "1,6-Hexanediamine, N-(6-aminohexyl)-", "N1-(6-Aminohexyl)-1,6-hexanediamine", "Bis(hexamethylene)triamine", "Dihexylenetriamine", "Bis(6-aminohexyl)amine", "1,13-Diamino-7-azatridecane", "7-Aza-1,13-tridecanediamine", "Bis(6-aminohexamethyl)amine", "NSC 92231", "N-(6-Aminohexyl)-1,6-hexanediamine", "BHMT-HP", "Dytek BHMT-HP", "Bis(aminohexyl)amine", "Dihexyltriamine", "Dytek BHMT", "BHMT"], "SMILES": "N(CCCCCCN)CCCCCCN", "physical_data": {"Molecular Weight": "215.38", "Molecular Formula": "C12H29N3", "Boiling Point": "220 \u00b0C", "Melting Point": "33 \u00b0C"}}