{"cas_no": "143-13-5", "cn_name": "\u4e59\u9178\u6b63\u58ec\u916f", "en_name": ["Nonyl acetate", "Acetic acid, nonyl ester", "Nonyl alcohol, acetate", "Acetic acid n-nonyl ester", "Nonanol acetate", "n-Nonanyl acetate", "Nonyl acetate", "n-Nonyl acetate", "n-Nonyl ethanoate", "Pelargonyl acetate", "1-Nonyl acetate", "1-Acetoxynonane", "NSC 82356"], "SMILES": "C(CCCCCC)CCOC(C)=O", "physical_data": {"Molecular Weight": "186.29", "Molecular Formula": "C11H22O2", "Boiling Point": "210 \u00b0C", "Melting Point": "-26 \u00b0C", "Density": "0.868 g/cm\u00b3 @ Temp: 20 \u00b0C"}}