{"cas_no": "143-28-2", "cn_name": "\u6cb9\u9187", "en_name": ["Oleyl alcohol", "9-Octadecen-1-ol, (9Z)-", "9-Octadecen-1-ol, (Z)-", "(9Z)-9-Octadecen-1-ol", "Atalco O", "Cachalot O 1", "Crodacol O", "Dermaffine", "Loxanol M", "Loxanol 95", "Ocenol", "cis-9-Octadecen-1-ol", "Oleol", "Oleyl alcohol", "Satol", "Sipol O", "cis-9-Octadecenyl alcohol", "Adol 85", "Oleic alcohol", "Siponol OC", "Oleo alcohol", "Octadeca-9-cis-en-1-ol", "HD-Ocenol 90/95", "Adol 320", "HD-Ocenol K", "cis-\u03949-Octadecenol", "Unjecol 90N", "Unjecol 90NR", "9-cis-Octadecenol", "(Z)-9-Octadecen-1-ol", "Adol 85NF", "(Z)-9-Octadecenol", "Adol 80", "HD-Eutanol", "Witcohol 85NF", "Novol", "Unjecol 70N", "Adol 330", "HD-Ocenol 92/96", "Ocenol 90/95", "Unjecol 90BHR", "Witcohol 90NF", "Vegecol 90B", "Rikacol 90BHR", "Unjecol 90", "Jarcol 95BJ", "Jeecol O", "Novol J", "NJCOL 90", "Rikacol 90B", "(9Z)-Octadec-9-en-1-ol", "90VR", "HD Eutanol V-PH", "Kollicream OA", "Unjecol 50A", "Jarcol 85BJ", "UJ 9N", "HD-Ocenol 90/95V", "Agnique FOH 90C", "cis-1-Hydroxy-9-octadecene", "Novol LQ-(JP)", "Novol NF", "Rofanol 90/95V", "Oleyl Alcohol VP", "Kalcohl 90BHR", "Rikacol 60B", "Rikacol 75BJ", "Rikacol 110BJ", "Oleyl 900", "Jarcol 95CG"], "SMILES": "C(=CCCCCCCCC)CCCCCCCCO", "physical_data": {"Molecular Weight": "268.48", "Molecular Formula": "C18H36O", "Boiling Point": "333 \u00b0C", "Melting Point": "13-19 \u00b0C", "Density": "0.8489 g/cm\u00b3 @ Temp: 20 \u00b0C"}}