{"cas_no": "143-33-9", "cn_name": "\u6c30\u5316\u94a0", "en_name": ["Sodium cyanide", "Sodium cyanide (Na(CN))", "Sodium cyanide", "Cymag", "Natrium cyanide", "Cyanasalt H", "Cyanasalt S", "NSC 77379", "Hydrocyanic acid, sodium salt (1:1)", "MeSH ID: D012966"], "SMILES": "C(#N)[Na]", "physical_data": {"Molecular Weight": "", "Molecular Formula": "CNNa", "Boiling Point": "1496 \u00b0C", "Melting Point": "563 \u00b0C", "Density": "1.595 g/cm\u00b3 @ Temp: 20 \u00b0C"}}