{"cas_no": "143-07-7", "cn_name": "\u6708\u6842\u9178", "en_name": ["Lauric acid", "Dodecanoic acid", "Lauric acid", "Laurostearic acid", "1-Undecanecarboxylic acid", "ABL (dodecanoic acid)", "Aliphat No. 4", "Univol U 314", "Dodecylic acid", "Vulvic acid", "Neo-Fat 12-43", "n-Dodecanoic acid", "Neo-Fat 12", "Lunac L 70", "Emery 651", "Prifac 2920", "Nissan NAA 122", "Lunac L 98", "Hystrene 9512", "NAA 312", "Kortacid 1299", "Philacid 1200", "Edenor C 1298-100", "NSC 5026", "NAA 122", "Prifac 2922", "Edenor C 12", "Prifrac 2920", "ContraZeck", "1-Dodecanoic acid", "Imex C 1299", "Palmac 98-12", "Edenor 12/98-100", "Palmera B 1231", "Edenor C 12-98-100", "Lasacid FC 12", "Laurates", "Dodecanoates", "Palmae 99-12", "D 97385", "Edenor C12-99", "Coconut Hard 34", "Coconut Hard 42", "Radiacid 0624", "NS 6", "FA12:0", "Pofac 1299", "Palmera A 9912", "LA 1299", "SY-LA 0002", "MeSH ID: D007848"], "SMILES": "C(CCCCCCCC)CCC(O)=O", "physical_data": {"Molecular Weight": "200.32", "Molecular Formula": "C12H24O2", "Boiling Point": "298.9 \u00b0C", "Melting Point": "44.2 \u00b0C", "Density": "0.883 g/cm\u00b3 @ Temp: 20 \u00b0C"}}