{"cas_no": "143-08-8", "cn_name": "1-\u58ec\u9187", "en_name": ["1-Nonanol", "1-Nonanol", "Nonyl alcohol", "n-Nonyl alcohol", "Octyl carbinol", "Pelargonic alcohol", "n-Nonan-1-ol", "1-Hydroxynonane", "Nonanol", "NSC 5521", "Linevol 9", "Nonan-1-ol"], "SMILES": "C(CCCCO)CCCC", "physical_data": {"Molecular Weight": "144.25", "Molecular Formula": "C9H20O", "Boiling Point": "213.37 \u00b0C", "Melting Point": "-5 \u00b0C", "Density": "0.8279 g/cm\u00b3 @ Temp: 20 \u00b0C"}}