{"cas_no": "143-19-1", "cn_name": "\u6cb9\u9178\u94a0", "en_name": ["Sodium oleate", "9-Octadecenoic acid (9Z)-, sodium salt (1:1)", "Oleic acid, sodium salt", "9-Octadecenoic acid (Z)-, sodium salt", "9-Octadecenoic acid (9Z)-, sodium salt", "Eunatrol", "Olate Flakes", "Sodium oleate", "Pionin D 951P", "NPS Red Oil Soap", "Nonsoul ON 1", "Lunac SO 90L", "Nonsoul ON-A", "Pionin A 5", "Edenor OL 72MY, sodium salt", "Ligaphob NT 90", "DX-F 200", "PX-N 98"], "SMILES": "C(CC=CCCCCCCCC)CCCCCC(O)=O.[Na]", "physical_data": {"Molecular Weight": "", "Molecular Formula": "C18H34O2.Na", "Melting Point": "232-235 \u00b0C"}}