{"cas_no": "143-10-2", "cn_name": "1-\u7678\u786b\u9187", "en_name": ["1-Decanethiol", "1-Decanethiol", "Decanethiol", "Decyl mercaptan", "1-Mercaptodecane", "1-Decylthiol", "n-Decanethiol", "NSC 850", "n-Decylthiol", "n-Decyl mercaptan"], "SMILES": "C(CCCCC)CCCCS", "physical_data": {"Molecular Weight": "174.35", "Molecular Formula": "C10H22S", "Boiling Point": "241 \u00b0C", "Melting Point": "-26 \u00b0C", "Density": "0.84 g/cm\u00b3"}}