{"cas_no": "143-22-6", "cn_name": "\u4e09\u4e59\u4e8c\u9187\u5355\u4e01\u919a", "en_name": ["Triethylene glycol monobutyl ether", "Ethanol, 2-[2-(2-butoxyethoxy)ethoxy]-", "2-[2-(2-Butoxyethoxy)ethoxy]ethanol", "Butoxytriethylene glycol", "Butoxytriglycol", "Dowanol TBAT", "Triethylene glycol monobutyl ether", "Triglycol monobutyl ether", "3,6,9-Trioxatridecan-1-ol", "Butyltriglycol", "TEGBE", "C4E3", "BTG", "NSC 164915", "Butysenol 30", "Koremul BE 3", "Triethylene glycol mono-n-butyl ether", "BDGE 30", "2-[2-(2-Butoxyethoxy)ethoxy]ethan-1-ol", "Butycenol 30"], "SMILES": "C(OCCOCCO)COCCCC", "physical_data": {"Molecular Weight": "206.28", "Molecular Formula": "C10H22O4", "Boiling Point": "278 \u00b0C @ Press: 760 Torr", "Melting Point": "-35 \u00b0C", "Density": "0.9890 g/cm\u00b3 @ Temp: 20 \u00b0C"}}