{"cas_no": "143-06-6", "cn_name": "(6-\u6c28\u57fa\u5df1\u57fa)\u6c28\u57fa\u7532\u9178", "en_name": ["Hexamethylenediamine carbamate", "Carbamic acid, N-(6-aminohexyl)-", "Carbamic acid, (6-aminohexyl)-", "N-(6-Aminohexyl)carbamic acid", "Diak 1", "(6-Aminohexyl)carbamic acid", "Hexamethylenediamine carbamate", "Cheminox AC 6", "Rhenogran HMDC 70/AEMD", "Rhenogran HMDC 70", "Cheminox AC 6-66", "HMDC 1", "Cheminox AC 6C", "Cheminox AC 6F", "Vulcofac HMDAC", "Sanfel 6MC"], "SMILES": "C(CCCCN)CNC(=O)O", "physical_data": {"Molecular Weight": "160.21", "Molecular Formula": "C7H16N2O2", "Melting Point": "150 \u00b0C"}}