{"cas_no": "143-66-8", "cn_name": "\u56db\u82ef\u787c\u94a0", "en_name": ["Sodium tetraphenylborate", "Borate(1-), tetraphenyl-, sodium (1:1)", "Borate(1-), tetraphenyl-, sodium", "Sodium tetraphenylborate", "Sodium tetraphenylboron", "Kalignost", "Sodium tetraphenylborate(1-)", "Tetraphenyl boron sodium salt", "Sodium tetraphenylboride", "Tetraphenyl sodium borate", "Sodium tetraphenylboride(1-)", "Kalibor", "Sodium tetraphenylborate (NaPh4B)", "Kariporu K", "Sodium tetrakis(phenyl) borate", "HOK-Boron Na"], "SMILES": "[B+3]([C-]=1C=CC=CC1)([C-]=2C=CC=CC2)([C-]=3C=CC=CC3)[C-]=4C=CC=CC4.[Na+]", "physical_data": {"Molecular Weight": "", "Molecular Formula": "C24H20B.Na", "Melting Point": "175 \u00b0C"}}