{"cas_no": "143-50-0", "cn_name": "\u5f00\u84ec", "en_name": ["Chlordecone", "1,3,4-Metheno-2H-cyclobuta[cd]pentalen-2-one, 1,1a,3,3a,4,5,5,5a,5b,6-decachlorooctahydro-", "1,3,4-Metheno-2H-cyclobuta[cd]pentalen-2-one, decachlorooctahydro-", "1,1a,3,3a,4,5,5,5a,5b,6-Decachlorooctahydro-1,3,4-metheno-2H-cyclobuta[cd]pentalen-2-one", "GC 1189", "Chlordecone", "Compound 1189", "Decachlorooctahydro-1,3,4-metheno-2H-cyclobuta[cd]pentalen-2-one", "Decachloropentacyclo[5.2.1.02,6.03,9.05,8]decan-4-one", "Kepone", "Decachloroketone", "ENT-16391", "Clordecone", "NSC 124074", "NSC 56532"], "SMILES": "ClC12C3(Cl)C4(Cl)C(Cl)(Cl)C1(Cl)C5(Cl)C2(Cl)C(=O)C3(Cl)C45Cl", "physical_data": {"Molecular Weight": "490.64", "Molecular Formula": "C10Cl10O", "Melting Point": "350 \u00b0C (decomp)", "Density": "1.59-1.63 g/cm\u00b3 @ Temp: 25 \u00b0C"}}