{"cas_no": "143-24-8", "cn_name": "\u56db\u4e59\u4e8c\u9187\u4e8c\u7532\u919a", "en_name": ["Tetraglyme", "2,5,8,11,14-Pentaoxapentadecane", "Ansul Ether 181AT", "Bis[2-(2-methoxyethoxy)ethyl] ether", "Dimethoxytetraethylene glycol", "Dimethoxytetraglycol", "Ether, bis[2-(2-methoxyethoxy)ethyl]", "Tetraglyme", "Glyme 5", "Tetraethylene glycol dimethyl ether", "E 181 (ether)", "E 181", "Nissan Uniox MM 200", "Methyltetraglyme", "NSC 65624", "Hisolve MTEM", "TEGDME", "tetraethylene glycol di-Me ether", "1-Methoxy-2-[2-[2-(2-methoxyethoxy)ethoxy]ethoxy]ethane", "Hisorb MTEM"], "SMILES": "O(CCOCCOC)CCOCCOC", "physical_data": {"Molecular Weight": "222.28", "Molecular Formula": "C10H22O5", "Boiling Point": "275.3 \u00b0C"}}