{"cas_no": "143-67-9", "cn_name": "\u786b\u9178\u957f\u6625\u78b1", "en_name": ["Vinblastine sulfate", "Vincaleukoblastine, sulfate (1:1) (salt)", "2H-3,7-Methanoazacycloundecino[5,4-b]indole, vincaleukoblastine deriv.", "1H-Indolizino[8,1-cd]carbazole, vincaleukoblastine deriv.", "29060LE", "NSC 49842", "Velban", "Velbe", "Vinblastine sulfate", "Vincaleucoblastine sulfate", "Vincaleukoblastine sulfate", "Exal", "VLB monosulfate", "Velsar", "Alkaban-AQ"], "SMILES": "C(C)C12C3C4(C(C(C(OC)=O)(O)C1OC(C)=O)N(C)C=5C4=CC(=C(OC)C5)C6(C(OC)=O)C7=C(C=8C(N7)=CC=CC8)CCN9CC(C6)CC(CC)(O)C9)CCN3CC=C2.S(=O)(=O)(O)O", "physical_data": {"Molecular Weight": "", "Molecular Formula": "C46H58N4O9.H2O4S", "Melting Point": "284-285 \u00b0C"}}