{"cas_no": "143-27-1", "cn_name": "\u5341\u516d\u80fa", "en_name": ["Hexadecylamine", "1-Hexadecanamine", "Hexadecylamine", "Alamine 6", "Cetylamine", "n-Hexadecylamine", "Palmitylamine", "Armeen 16D", "n-Cetylamine", "Palmitamine", "1-Hexadecylamine", "1-Aminohexadecane", "Monohexadecylamine", "Alamine 6D", "Nissan Amine PB", "HDA", "Amine PB", "1-Hexadecanylamine", "NSC 8489", "OM 16C"], "SMILES": "C(CCCCCCCC)CCCCCCCN", "physical_data": {"Molecular Weight": "241.46", "Molecular Formula": "C16H35N", "Boiling Point": "322.5 \u00b0C", "Melting Point": "46.8 \u00b0C"}}