{"cas_no": "143-15-7", "cn_name": "\u6eb4\u4ee3\u5341\u4e8c\u70f7", "en_name": ["1-Bromododecane", "Dodecane, 1-bromo-", "1-Bromododecane", "Dodecyl bromide", "Lauryl bromide", "n-Dodecyl bromide", "1-Dodecyl bromide", "n-Lauryl bromide", "NSC 6786", "12-Bromododecane"], "SMILES": "C(CCCCCBr)CCCCCC", "physical_data": {"Molecular Weight": "249.23", "Molecular Formula": "C12H25Br", "Boiling Point": "276 \u00b0C", "Melting Point": "-9.5 \u00b0C", "Density": "1.039 g/cm\u00b3 @ Temp: 20 \u00b0C"}}