{"cas_no": "14309-92-3", "cn_name": "4-\u82c4\u6c28\u57fa\u785d\u57fa\u82ef", "en_name": ["N-(4-Nitrophenyl)benzenemethanamine", "Benzenemethanamine, N-(4-nitrophenyl)-", "Benzylamine, N-(p-nitrophenyl)-", "N-(4-Nitrophenyl)benzenemethanamine", "N-Benzyl-4-nitroaniline", "N-Benzyl-p-nitroaniline", "p-Nitro-N-benzylaniline", "Benzyl(4-nitrophenyl)amine", "N-Benzyl-4-nitrobenzenamine", "4-Benzylaminonitrobenzene"], "SMILES": "N(CC1=CC=CC=C1)C2=CC=C(N(=O)=O)C=C2", "physical_data": {"Molecular Weight": "228.25", "Molecular Formula": "C13H12N2O2", "Melting Point": "147 \u00b0C"}}