{"cas_no": "14300-33-5", "cn_name": "\u4e8c\u73af\u4e19\u57fa\u7532\u9187", "en_name": ["Dicyclopropylmethanol", "Cyclopropanemethanol, \u03b1-cyclopropyl-", "Methanol, dicyclopropyl-", "\u03b1-Cyclopropylcyclopropanemethanol", "Dicyclopropylmethanol", "Dicyclopropyl carbinol", "Dicyclopropylmethyl alcohol", "Dicyclopropylmethan-1-ol"], "SMILES": "C(O)(C1CC1)C2CC2", "physical_data": {"Molecular Weight": "112.17", "Molecular Formula": "C7H12O", "Boiling Point": "48 \u00b0C @ Press: 3 Torr"}}