{"cas_no": "14309-57-0", "cn_name": "3-\u58ec\u70ef-2-\u916e", "en_name": ["3-Nonen-2-one", "3-Nonen-2-one"], "SMILES": "C(CCCCC)=CC(C)=O", "physical_data": {"Molecular Weight": "140.22", "Molecular Formula": "C9H16O", "Boiling Point": "72 \u00b0C @ Press: 6 Torr", "Density": "0.8478 g/cm\u00b3 @ Temp: 20 \u00b0C"}}