{"cas_no": "14307-35-8", "cn_name": "\u94ec\u9178\u9502", "en_name": ["Lithium chromate", "Chromic acid (H2CrO4), lithium salt (1:2)", "Chromic acid (H2CrO4), dilithium salt", "Lithium chromate(VI)", "Lithium chromate", "Chromium lithium oxide (CrLi2O4)", "Dilithium chromate (Li2CrO4)", "Lithium chromate (Li2CrO4)", "Lithium chromium oxide (Li2CrO4)"], "SMILES": "[Cr](O)(O)(=O)=O.[Li]", "physical_data": {"Molecular Weight": "", "Molecular Formula": "CrH2O4.2Li", "Melting Point": "75 \u00b0C (decomp)", "Density": "2.15 g/cm\u00b3"}}