{"cas_no": "1430219-76-3", "cn_name": "3-\u6c27\u6742\u73af\u4e01\u70f7\u4e09\u6c1f\u787c\u9178\u94be", "en_name": ["Borate(1-), trifluoro-3-oxetanyl-, potassium (1:1), (T-4)-", "Borate(1-), trifluoro-3-oxetanyl-, potassium (1:1), (T-4)-", "Trifluoro(oxetan-3-yl)-\u03bb4-borane potassium"], "SMILES": "[B+3]([F-])([F-])([F-])[CH-]1COC1.[K+]", "physical_data": {"Molecular Weight": "", "Molecular Formula": "C3H5BF3O.K", "Melting Point": "211-213 \u00b0C"}}