{"cas_no": "14309-25-2", "cn_name": "\u53e0\u6c2e\u5316\u4e09\u82ef\u57fa\u7532\u70f7", "en_name": ["1,1\u2032,1\u2032\u2032-(Azidomethylidyne)tris[benzene]", "Benzene, 1,1\u2032,1\u2032\u2032-(azidomethylidyne)tris-", "Methane, azidotriphenyl-", "1,1\u2032,1\u2032\u2032-(Azidomethylidyne)tris[benzene]", "Triphenylmethyl azide", "Trityl azide", "NSC 206136", "NSC 87890", "[Azido(diphenyl)methyl]benzene", "(Azidomethanetriyl)tribenzene"], "SMILES": "C(N=[N+]=[N-])(C1=CC=CC=C1)(C2=CC=CC=C2)C3=CC=CC=C3", "physical_data": {"Molecular Weight": "", "Molecular Formula": "C19H15N3", "Boiling Point": "90-100 \u00b0C @ Press: 3 Torr", "Melting Point": "64 \u00b0C"}}