{"cas_no": "14305-08-9", "cn_name": "4,5-\u4e8c\u6eb4-2-\u82ef\u57fa-2,3-\u4e8c\u6c22\u54d2\u55ea-3-\u916e", "en_name": ["4,5-Dibromo-2-phenyl-3(2H)-pyridazinone", "3(2H)-Pyridazinone, 4,5-dibromo-2-phenyl-", "4,5-Dibromo-2-phenyl-3(2H)-pyridazinone", "2-Phenyl-4,5-dibromo-3(2H)-pyridazinone"], "SMILES": "O=C1N(N=CC(Br)=C1Br)C2=CC=CC=C2", "physical_data": {"Molecular Weight": "329.98", "Molecular Formula": "C10H6Br2N2O", "Melting Point": "142-143 \u00b0C"}}