{"cas_no": "143062-84-4", "cn_name": "(1R,2S)-2-\u6c1f\u73af\u4e19\u80fa\u5bf9\u7532\u82ef\u78fa\u9178\u76d0", "en_name": ["Cyclopropanamine, 2-fluoro-, (1R,2S)-, 4-methylbenzenesulfonate (1:1)", "Cyclopropanamine, 2-fluoro-, (1R,2S)-, 4-methylbenzenesulfonate (1:1)", "Cyclopropanamine, 2-fluoro-, (1R,2S)-, 4-methylbenzenesulfonate", "(1R,2S)-2-Fluorocyclopropylamine p-toluenesulfonate", "(1R,2S)-2-Fluorocyclopropylamine tosylate", "(1R,2S)-2-Fluorocyclopropanamine 4-methylbenzenesulfonate", "((1R,2S)-2-Fluorocyclopropyl)amine 4-methylbenzenesulfonate"], "SMILES": "S(=O)(=O)(O)C1=CC=C(C)C=C1.FC1C(N)C1", "physical_data": {"Molecular Weight": "", "Molecular Formula": "C7H8O3S.C3H6FN", "Melting Point": "169-170 \u00b0C"}}