{"cas_no": "14316-14-4", "cn_name": "N-(2-\u7f9f\u4e59\u57fa)\u5bf9\u7532\u82ef\u78fa\u9170\u80fa", "en_name": ["N-(2-Hydroxyethyl)-4-methylbenzenesulfonamide", "Benzenesulfonamide, N-(2-hydroxyethyl)-4-methyl-", "p-Toluenesulfonamide, N-(2-hydroxyethyl)-", "N-(2-Hydroxyethyl)-4-methylbenzenesulfonamide", "N-Tosylethanolamine", "2-(Tosylamino)ethanol", "N-(2-Hydroxyethyl)-p-toluenesulfonamide", "N-(4-Methylphenylsulfonyl)ethanolamine"], "SMILES": "S(NCCO)(=O)(=O)C1=CC=C(C)C=C1", "physical_data": {"Molecular Weight": "215.27", "Molecular Formula": "C9H13NO3S", "Boiling Point": "200-210 \u00b0C @ Press: 0.06 Torr", "Melting Point": "56 \u00b0C", "Density": "1.2566 g/cm\u00b3"}}