{"cas_no": "14318-66-2", "cn_name": "3-\u7532\u6c27\u57fa-N-\u7532\u57fa\u82ef\u80fa", "en_name": ["3-Methoxy-N-methylbenzenamine", "Benzenamine, 3-methoxy-N-methyl-", "m-Anisidine, N-methyl-", "3-Methoxy-N-methylbenzenamine", "m-Methoxy-N-methylaniline", "N-Methyl-3-methoxyaniline", "m-N-Methylanisidine", "N-Methyl-m-anisidine", "3-Methoxy-N-methylaniline"], "SMILES": "N(C)C1=CC(OC)=CC=C1", "physical_data": {"Molecular Weight": "137.18", "Molecular Formula": "C8H11NO", "Boiling Point": "138-140 \u00b0C @ Press: 15 Torr"}}