{"cas_no": "14315-97-0", "cn_name": "1,1,3-\u4e09\u7532\u6c27\u57fa\u4e19\u70f7", "en_name": ["1,1,3-Trimethoxypropane", "Propane, 1,1,3-trimethoxy-", "Propionaldehyde, 3-methoxy-, dimethyl acetal", "1,1,3-Trimethoxypropane", "3-Methoxypropionaldehyde dimethyl acetal", "NSC 280806"], "SMILES": "C(CCOC)(OC)OC", "physical_data": {"Molecular Weight": "134.17", "Molecular Formula": "C6H14O3", "Boiling Point": "148 \u00b0C", "Density": "0.941 g/cm\u00b3 @ Temp: 20 \u00b0C"}}