{"cas_no": "14316-06-4", "cn_name": "D-\u4e19\u6c28\u9178\u7532\u916f\u76d0\u9178\u76d0", "en_name": ["D-Alanine, methyl ester, hydrochloride", "D-Alanine, methyl ester, hydrochloride (1:1)", "Alanine, methyl ester, hydrochloride, D-", "D-Alanine, methyl ester, hydrochloride", "Methyl D-alaninate hydrochloride", "(R)-2-Aminopropionic acid methyl ester hydrochloride", "(R)-Alanine methyl ester hydrochloride", "NSC 523192", "(R)-1-(Methoxycarbonyl)ethylamine hydrochloride", "Methyl (R)-2-aminopropanoate hydrochloride", "(R)-Methyl 2-aminopropanoate hydrochloride"], "SMILES": "C(C(C)N)(OC)=O.Cl", "physical_data": {"Molecular Weight": "", "Molecular Formula": "C4H9NO2.ClH", "Melting Point": "95-97 \u00b0C"}}