{"cas_no": "14316-61-1", "cn_name": "\u82ef\u6c27\u57fa\u4e59\u9178\u9150", "en_name": ["Acetic acid, 2-phenoxy-, 1,1\u2032-anhydride", "Acetic acid, 2-phenoxy-, 1,1\u2032-anhydride", "Acetic acid, phenoxy-, anhydride", "Phenoxyacetic anhydride", "NSC 259934", "(2-Phenoxyacetyl) 2-phenoxyacetate", "2-Phenoxyaceticanhydride"], "SMILES": "O(CC(OC(COC1=CC=CC=C1)=O)=O)C2=CC=CC=C2", "physical_data": {"Molecular Weight": "286.28", "Molecular Formula": "C16H14O5", "Melting Point": "67-68 \u00b0C"}}