{"cas_no": "14319-13-2", "cn_name": "(2,2,6,6-\u56db\u7532\u57fa-3,5-\u5e9a\u4e8c\u916e\u9178)\u9502", "en_name": ["(OC-6-11)-Tris(2,2,6,6-tetramethyl-3,5-heptanedionato-\u03baO3,\u03baO5)lanthanum", "Lanthanum, tris(2,2,6,6-tetramethyl-3,5-heptanedionato-\u03baO3,\u03baO5)-, (OC-6-11)-", "Lanthanum, tris(2,2,6,6-tetramethyl-3,5-heptanedionato)-", "Lanthanum, tris(2,2,6,6-tetramethyl-3,5-heptanedionato-O,O\u2032)-, (OC-6-11)-", "3,5-Heptanedione, 2,2,6,6-tetramethyl-, lanthanum complex", "(OC-6-11)-Tris(2,2,6,6-tetramethyl-3,5-heptanedionato-\u03baO3,\u03baO5)lanthanum", "Tris(dipivaloylmethanato)lanthanum", "Tris(2,2,6,6-tetramethyl-3,5-heptanedionato)lanthanum", "Tris(tetramethylheptanedionato)lanthanum", "Lanthanum tris(dipivaloylmethanate)", "NSC 174900", "Lanthanum tris(2,2,6,6-tetramethylheptane-3,5-dionate)"], "SMILES": "C(C)(C)(C)C1=O[La+3]23(O=C(C(C)(C)C)[CH-]C(C(C)(C)C)=O2)(O=C(C(C)(C)C)[CH-]C(C(C)(C)C)=O3)O=C(C(C)(C)C)[CH-]1", "physical_data": {"Molecular Weight": "", "Molecular Formula": "C33H57LaO6", "Melting Point": "184 \u00b0C (sublm) @ Press: 0.8 Torr"}}