{"cas_no": "1431-39-6", "cn_name": "\u4e39\u9170\u80fa", "en_name": ["Dansylamide", "1-Naphthalenesulfonamide, 5-(dimethylamino)-", "5-(Dimethylamino)-1-naphthalenesulfonamide", "Dansylamide", "1-(Dimethylamino)-5-naphthalenesulfonamide"], "SMILES": "S(N)(=O)(=O)C=1C2=C(C(N(C)C)=CC=C2)C=CC1", "physical_data": {"Molecular Weight": "250.32", "Molecular Formula": "C12H14N2O2S", "Melting Point": "218-221 \u00b0C"}}