{"cas_no": "1431-37-4", "cn_name": "\u4e19\u4e8c\u9178\u4e8c\u5df1\u916f", "en_name": ["Dihexyl malonate", "Propanedioic acid, 1,3-dihexyl ester", "Malonic acid, dihexyl ester", "Propanedioic acid, dihexyl ester", "Dihexyl malonate", "Di-n-hexyl malonate", "Dihexyl propanedioate"], "SMILES": "C(CC(OCCCCCC)=O)(OCCCCCC)=O", "physical_data": {"Molecular Weight": "272.38", "Molecular Formula": "C15H28O4", "Boiling Point": "143-145 \u00b0C @ Press: 6 Torr", "Density": "0.9211 g/cm\u00b3 @ Temp: 20 \u00b0C"}}