{"cas_no": "14316-16-6", "cn_name": "N-(2-\u6c28\u57fa\u4e59\u57fa)-4-\u7532\u57fa\u82ef\u78fa\u9170\u80fa", "en_name": ["N-(2-Aminoethyl)-4-methylbenzenesulfonamide", "Benzenesulfonamide, N-(2-aminoethyl)-4-methyl-", "p-Toluenesulfonamide, N-(2-aminoethyl)-", "N-(2-Aminoethyl)-4-methylbenzenesulfonamide", "N-Tosylethylenediamine", "N-(2-Aminoethyl)-4-toluenesulfonamide", "NSC 177937", "N-(4-Toluenesulfonyl)ethylene-1,2-diamine", "2-[[(4-Methylphenyl)sulfonyl]amino]ethylamine", "N-p-Tolylsulfonylethylenediamine", "N-(2-Aminoethyl)-p-toluenesulfonamide"], "SMILES": "S(NCCN)(=O)(=O)C1=CC=C(C)C=C1", "physical_data": {"Molecular Weight": "214.28", "Molecular Formula": "C9H14N2O2S", "Melting Point": "123-124 \u00b0C"}}