{"cas_no": "14315-14-1", "cn_name": "5-\u7532\u57fa\u82ef\u5e76\u567b\u5429", "en_name": ["5-Methylbenzo[b]thiophene", "Benzo[b]thiophene, 5-methyl-", "5-Methylbenzo[b]thiophene", "5-Methylbenzothiophene", "5-Methyl-1-benzothiophene"], "SMILES": "CC=1C=C2C(=CC1)SC=C2", "physical_data": {"Molecular Weight": "148.22", "Molecular Formula": "C9H8S", "Boiling Point": "105-110 \u00b0C @ Press: 3 Torr", "Melting Point": "20.5 \u00b0C"}}