{"cas_no": "14315-16-3", "cn_name": "3-\u6c28\u57fa\u82ef\u7532\u9170\u82ef\u80fa", "en_name": ["3-Amino-N-phenylbenzamide", "Benzamide, 3-amino-N-phenyl-", "Benzanilide, 3-amino-", "3-Amino-N-phenylbenzamide", "m-Aminobenzanilide", "3-Aminobenzanilide", "3-Aminobenzoic acid anilide"], "SMILES": "C(NC1=CC=CC=C1)(=O)C2=CC(N)=CC=C2", "physical_data": {"Molecular Weight": "212.25", "Molecular Formula": "C13H12N2O", "Melting Point": "123-124 \u00b0C"}}