{"cas_no": "14320-38-8", "cn_name": "3-\u73af\u620a\u70ef-1-\u9187", "en_name": ["3-Cyclopenten-1-ol", "3-Cyclopenten-1-ol", "1-Cyclopenten-4-ol", "4-Cyclopentenol", "Cyclopent-3-enyl alcohol", "4-Hydroxycyclopentene", "NSC 134283"], "SMILES": "OC1CC=CC1", "physical_data": {"Molecular Weight": "84.12", "Molecular Formula": "C5H8O", "Boiling Point": "67-68 \u00b0C @ Press: 36 Torr"}}