{"cas_no": "14320-37-7", "cn_name": "3-\u73af\u620a\u70ef-1-\u916e", "en_name": ["3-Cyclopenten-1-one", "3-Cyclopenten-1-one", "3-Cyclopentenone", "\u03943-Cyclopentenone", "1-Cyclopenten-4-one"], "SMILES": "O=C1CC=CC1", "physical_data": {"Molecular Weight": "82.10", "Molecular Formula": "C5H6O", "Boiling Point": "133-135 \u00b0C", "Melting Point": "65.3-65.6 \u00b0C", "Density": "0.9821 g/cm\u00b3 @ Temp: 20 \u00b0C"}}