{"cas_no": "14328-51-9", "cn_name": "L-\u73af\u5df1\u57fa\u7518\u6c28\u9178", "en_name": ["(\u03b1S)-\u03b1-Aminocyclohexaneacetic acid", "Cyclohexaneacetic acid, \u03b1-amino-, (\u03b1S)-", "Cyclohexaneacetic acid, \u03b1-amino-, L-", "Cyclohexaneacetic acid, \u03b1-amino-, (S)-", "(\u03b1S)-\u03b1-Aminocyclohexaneacetic acid", "L-\u03b1-Cyclohexylglycine", "(S)-2-Amino-2-cyclohexylacetic acid", "(2S)-2-Amino-2-cyclohexylethanoic acid", "L-Cyclohexylglycine", "(2S)-2-Amino-2-cyclohexylacetic acid"], "SMILES": "C(C(O)=O)(N)C1CCCCC1", "physical_data": {"Molecular Weight": "157.21", "Molecular Formula": "C8H15NO2", "Melting Point": "255 \u00b0C (decomp)"}}