{"cas_no": "14328-62-2", "cn_name": "L-\u73af\u620a\u57fa\u7518\u6c28\u9178\u7532\u916f\u76d0\u9178\u76d0", "en_name": ["Cyclopentaneacetic acid, \u03b1-amino-, methyl ester, hydrochloride (1:1), (\u03b1S)-", "Cyclopentaneacetic acid, \u03b1-amino-, methyl ester, hydrochloride (1:1), (\u03b1S)-", "Cyclopentaneacetic acid, \u03b1-amino-, methyl ester, hydrochloride, L-", "Cyclopentaneacetic acid, \u03b1-amino-, methyl ester, hydrochloride, (\u03b1S)-", "(S)-Methyl 2-amino-2-cyclopentylacetate hydrochloride"], "SMILES": "C(C(OC)=O)(N)C1CCCC1.Cl", "physical_data": {"Molecular Weight": "", "Molecular Formula": "C8H15NO2.ClH", "Melting Point": "177-179 \u00b0C"}}