{"cas_no": "14325-24-7", "cn_name": "\u915e\u6c30\u9530", "en_name": ["Manganese phthalocyanine", "Manganese, [29H,31H-phthalocyaninato(2-)-\u03baN29,\u03baN30,\u03baN31,\u03baN32]-, (SP-4-1)-", "Manganese, [phthalocyaninato(2-)]-", "Manganese, [29H,31H-phthalocyaninato(2-)-N29,N30,N31,N32]-, (SP-4-1)-", "29H,31H-Phthalocyanine, manganese complex", "(SP-4-1)-[29H,31H-Phthalocyaninato(2-)-\u03baN29,\u03baN30,\u03baN31,\u03baN32]manganese", "Manganese phthalocyanine", "Manganese(II) phthalocyanine", "[Phthalocyaninato(2-)]manganese", "(Phthalocyaninato)manganese", "KJB 006"], "SMILES": "[Mn+2]123[N-]4C=5C=6C(C4=NC7=[N]1C(=NC=8[N-]2C(=C9C8C=CC=C9)N=C%10[N]3=C(N5)C=%11C%10=CC=CC%11)C=%12C7=CC=CC%12)=CC=CC6", "physical_data": {"Molecular Weight": "", "Molecular Formula": "C32H16MnN8", "Melting Point": "&gt;300 \u00b0C"}}