{"cas_no": "14324-55-1", "cn_name": "\u4e8c\u4e59\u57fa\u4e8c\u786b\u4ee3\u6c28\u57fa\u7532\u9178\u950c", "en_name": ["Zinc diethyldithiocarbamate", "Zinc, bis(N,N-diethylcarbamodithioato-\u03baS,\u03baS\u2032)-, (T-4)-", "Zinc, bis(diethyldithiocarbamato)-", "Zinc, bis(diethylcarbamodithioato-S,S\u2032)-, (T-4)-", "Zinc, bis(diethylcarbamodithioato-\u03baS,\u03baS\u2032)-, (T-4)-", "(T-4)-Bis(N,N-diethylcarbamodithioato-\u03baS,\u03baS\u2032)zinc", "Zinc diethyldithiocarbamate", "Bis(diethyldithiocarbamato)zinc", "Zinc bis(diethyldithiocarbamate)", "Vulkacit ZDK", "Zinc diethylcarbamodithioate", "Diethyldithiocarbamic acid zinc salt", "Ethazate", "Ethyl Ziram", "Vulcacure ZE", "Ethylzimate", "Carbamodithioic acid, diethyl-, zinc salt", "Hermat ZDK", "Vulkacit LDA", "Zinc bis(N,N-diethyldithiocarbamate)", "Zinc N,N-diethyldithiocarbamate", "Nocceler EZ", "Soxinol EZ", "EZ (carbamate)", "EZ", "Bis(diethyldithiocarbamato)zinc(II)", "Bis(N,N-diethyldithiocarbamato)zinc", "NSC 177699", "Sanceler EZ", "Vulkazit LDA", "Perkacit ZDEC-PDR", "Karbamat ETS", "Accelerator ZDC", "ZDC", "Accel EZ", "ZDEC", "Mercure ZDC", "Accelerator EZ", "Rhenogran ZDEC 80", "Accelerator ZDA", "Bostex 561"], "SMILES": "N(CC)(CC)C=1[S-][Zn+2]2([S-]C(N(CC)CC)=[S]2)[S]1", "physical_data": {"Molecular Weight": "", "Molecular Formula": "C10H20N2S4Zn", "Melting Point": "172-176 \u00b0C", "Density": "1.47 g/cm\u00b3 @ Temp: 20 \u00b0C"}}