{"cas_no": "14321-27-8", "cn_name": "N-\u4e59\u57fa\u82c4\u80fa", "en_name": ["Ethylbenzylamine", "Benzenemethanamine, N-ethyl-", "Benzylamine, N-ethyl-", "N-Ethylbenzenemethanamine", "N-Benzylethylamine", "N-Ethylbenzylamine", "N-Benzyl-N-ethylamine", "Ethylbenzylamine", "N-(Phenylmethyl)ethylamine", "Ethyl(phenylmethyl)amine", "N-Ethyl-N-benzylamine", "N-Benzylethanamine"], "SMILES": "C(NCC)C1=CC=CC=C1", "physical_data": {"Molecular Weight": "135.21", "Molecular Formula": "C9H13N", "Boiling Point": "194 \u00b0C", "Melting Point": "81.5 \u00b0C"}}