{"cas_no": "14323-06-9", "cn_name": "\u4e09(2,2'-\u8054\u5421\u5576)\u4e8c\u6c2f\u5316\u948c", "en_name": ["Tris(2,2\u2032-bipyridyl)ruthenium(II) chloride", "Ruthenium(2+), tris(2,2\u2032-bipyridine-\u03baN1,\u03baN1\u2032)-, chloride (1:2), (OC-6-11)-", "Ruthenium(2+), tris(2,2\u2032-bipyridine)-, dichloride", "Ruthenium(2+), tris(2,2\u2032-bipyridine-N,N\u2032)-, dichloride, (OC-6-11)-", "Tris(2,2\u2032-bipyridine)ruthenium dichloride", "Ruthenium(2+), tris(2,2\u2032-bipyridine-\u03baN1,\u03baN1\u2032)-, dichloride, (OC-6-11)-", "Tris(2,2\u2032-bipyridine)ruthenium(II) dichloride", "Tris(2,2\u2032-bipyridine)ruthenium(2+) dichloride", "Tris(bipyridine)ruthenium(2+) dichloride", "Tris(2,2\u2032-bipyridine)ruthenium(II) chloride", "Tris(2,2\u2032-bipyridine)dichlororuthenium", "Ruthenium tris(2,2\u2032-bipyridine) dichloride", "Tris(bipyridine)ruthenium dichloride", "Tris(2,2\u2032-bipyridyl)Ru(II) dichloride", "Ruthenium(2+), tris(2,2\u2032-bipyridyl)-, dichloride", "Tris(2,2\u2032-bipyridyl)ruthenium dichloride", "Tris(2,2\u2032-bipyridyl)ruthenium(II) chloride", "Ruthenium tris(2,2\u2032-bipyridyl) dichloride", "Dichlorotris(2,2\u2032-bipyridyl)ruthenium(II)", "NSC 71326", "Tris(2,2\u2032-bipyridyl)ruthenium(2+) dichloride", "Tris(bipyridine)ruthenium(II) chloride"], "SMILES": "[Ru+2]123([N]=4C(C=5[N]1=CC=CC5)=CC=CC4)([N]=6C(C=7[N]2=CC=CC7)=CC=CC6)[N]=8C(C=9[N]3=CC=CC9)=CC=CC8.[Cl-]", "physical_data": {"Molecular Weight": "", "Molecular Formula": "C30H24N6Ru.2Cl", "Melting Point": "&gt;300 \u00b0C"}}