{"cas_no": "14328-64-4", "cn_name": "D-\u73af\u5df1\u57fa\u7518\u6c28\u9178\u7532\u916f\u76d0\u9178\u76d0", "en_name": ["Cyclohexaneacetic acid, \u03b1-amino-, methyl ester, hydrochloride (1:1), (\u03b1R)-", "Cyclohexaneacetic acid, \u03b1-amino-, methyl ester, hydrochloride (1:1), (\u03b1R)-", "Cyclohexaneacetic acid, \u03b1-amino-, methyl ester, hydrochloride, D-", "Cyclohexaneacetic acid, \u03b1-amino-, methyl ester, hydrochloride, (R)-", "Cyclohexaneacetic acid, \u03b1-amino-, methyl ester, hydrochloride, (\u03b1R)-", "Methyl (2R)-2-amino-2-cyclohexylethanoate hydrochloride", "(R)-(Amino)(cyclohexyl)ethanoic acid methyl ester hydrochloride", "(R)-Methyl 2-amino-2-cyclohexylacetate hydrochloride"], "SMILES": "C(C(OC)=O)(N)C1CCCCC1.Cl", "physical_data": {"Molecular Weight": "", "Molecular Formula": "C9H17NO2.ClH", "Melting Point": "190-191 \u00b0C"}}