{"cas_no": "14324-82-4", "cn_name": "\u4e09\u6c1f\u4e59\u9170\u4e19\u916e\u5316\u94dc", "en_name": ["Bis(trifluoroacetylacetonato)copper", "Copper, bis(1,1,1-trifluoro-2,4-pentanedionato-\u03baO2,\u03baO4)-", "Copper, bis(1,1,1-trifluoro-2,4-pentanedionato)-", "Copper, bis(1,1,1-trifluoro-2,4-pentanedionato-O,O\u2032)-", "2,4-Pentanedione, 1,1,1-trifluoro-, Cu deriv.", "Copper, bis(1,1,1-trifluoro-2,4-pentanedionato-\u03baO,\u03baO\u2032)-", "2,4-Pentanedione, 1,1,1-trifluoro-, copper complex", "Bis(1,1,1-trifluoro-2,4-pentanedionato-\u03baO2,\u03baO4)copper", "Copper 1,1,1-trifluoroacetylacetonate", "Cupric 1,1,1-trifluoroacetylacetonate", "Copper bis(trifluoroacetylacetonate)", "Copper bis(1,1,1-trifluoro-2,4-pentanedionate)", "Bis(trifluoroacetylacetonato)copper", "Bis(acetyltrifluoroacetonato)copper", "Bis(1,1,1-trifluoroacetylacetonato)copper", "Bis(trifluoroacetylacetonato)copper(II)", "Bis(1,1,1-trifluoro-2,4-pentanedionato)copper", "NSC 49748"], "SMILES": "C(F)(F)(F)C1=O[Cu+2]2(O=C(C(F)(F)F)[CH-]C(C)=O2)O=C(C)[CH-]1", "physical_data": {"Molecular Weight": "", "Molecular Formula": "C10H8CuF6O4", "Melting Point": "191 \u00b0C", "Density": "0.721 g/cm\u00b3"}}