{"cas_no": "143314-16-3", "cn_name": "1-\u4e59\u57fa-3-\u7532\u57fa\u54aa\u5511\u56db\u6c1f\u787c\u9178\u76d0", "en_name": ["1-Ethyl-3-methylimidazolium tetrafluoroborate", "1H-Imidazolium, 3-ethyl-1-methyl-, tetrafluoroborate(1-) (1:1)", "1-Ethyl-3-methylimidazolium tetrafluoroborate", "1-Ethyl-3-methyl-1H-imidazolium tetrafluoroborate(1-)", "3-Ethyl-1-methylimidazolium tetrafluoroborate", "N-Methyl-N\u2032-ethylimidazolium tetrafluoroborate", "1-Ethyl-3-methyl-1H-imidazolium tetrafluoroborate", "Ethylmethylimidazolium tetrafluoroborate", "1-Ethyl-3-methylimidazolium tetrafluoroborate(1-)", "1-Methyl-3-ethylimidazolium tetrafluoroborate", "SA 3", "1-Ethyl-3-methylimidazolium tetrafluroborate"], "SMILES": "[B+3]([F-])([F-])([F-])[F-].C(C)[N+]1=CN(C)C=C1", "physical_data": {"Molecular Weight": "", "Molecular Formula": "C6H11N2.BF4", "Melting Point": "13 \u00b0C", "Density": "1.28 g/cm\u00b3 @ Temp: Room temp"}}