{"cas_no": "143314-17-4", "cn_name": "1-\u4e59\u57fa-3-\u7532\u57fa\u54aa\u5511\u918b\u9178\u76d0", "en_name": ["1-Ethyl-3-methylimidazolium acetate", "1H-Imidazolium, 3-ethyl-1-methyl-, acetate (1:1)", "1H-Imidazolium, 1-ethyl-3-methyl-, acetate", "1-Ethyl-3-methylimidazolium acetate", "3-Ethyl-1-methylimidazolium acetate", "LM 1132", "1-Methyl-3-ethylimidazolium acetate", "Basionics BC 01", "1-Ethyl-3-methylimidazolium ethanoate", "A 04875"], "SMILES": "C(C)([O-])=O.C(C)[N+]1=CN(C)C=C1", "physical_data": {"Molecular Weight": "", "Molecular Formula": "C6H11N2.C2H3O2", "Melting Point": "&lt;-20 \u00b0C", "Density": "1.059 g/cm\u00b3 @ Temp: 100.00 \u00b0C"}}