{"cas_no": "14337-53-2", "cn_name": "2-(5-\u6eb4-2-\u5421\u5576\u5076\u6c2e)-5-\u4e8c\u4e59\u6c28\u57fa\u915a", "en_name": ["5-Br-PADAP", "Phenol, 2-[2-(5-bromo-2-pyridinyl)diazenyl]-5-(diethylamino)-", "Phenol, 2-[(5-bromo-2-pyridyl)azo]-5-(diethylamino)-", "Phenol, 2-[(5-bromo-2-pyridinyl)azo]-5-(diethylamino)-", "2-[2-(5-Bromo-2-pyridinyl)diazenyl]-5-(diethylamino)phenol", "2-(5-Bromo-2-pyridylazo)-5-(diethylamino)phenol", "5-Br-PADAP", "2-(5-Bromo-2-pyridinylazo)-5-(diethylamino)phenol", "2-(5\u2032-Bromo-2\u2032-pyridylazo)-5-(diethylamino)phenol", "5-Bromo-PADAP", "5-Bromo-DEPAP", "2-(5-Bromo-2-pyridylazo)-5-diethylaminephenol", "NSC 367081", "5-Br-DEPAP", "2-((5-Bromopyridin-2-yl)diazenyl)-5-(diethylamino)phenol"], "SMILES": "N(CC)(CC)C1=CC(O)=C(N=NC2=CC=C(Br)C=N2)C=C1", "physical_data": {"Molecular Weight": "349.23", "Molecular Formula": "C15H17BrN4O", "Melting Point": "157-158 \u00b0C"}}