{"cas_no": "14338-32-0", "cn_name": "2-\u6c2f-1-\u7532\u57fa\u5421\u5576\u7898\u5316\u7269", "en_name": ["2-Chloro-1-methylpyridinium iodide", "Pyridinium, 2-chloro-1-methyl-, iodide (1:1)", "Pyridinium, 2-chloro-1-methyl-, iodide", "2-Chloro-N-methylpyridinium iodide", "2-Chloropyridine methiodide", "2-Chloro-1-methylpyridinium iodide", "2-Chloropyridinium iodomethylate", "1-Methyl-2-chloropyridinium iodide", "N-Methyl-2-chloropyridinium iodide", "Mukaiyama's reagent", "Mukaiyama reagent", "2-Chloro-1-methylpyridin-1-ium iodide"], "SMILES": "ClC=1[N+](C)=CC=CC1.[I-]", "physical_data": {"Molecular Weight": "", "Molecular Formula": "C6H7ClN.I", "Melting Point": "200 \u00b0C (decomp)"}}