{"cas_no": "143360-01-4", "cn_name": "N-(4-BROMO-2-METHOXY-PHENYL)-ACETAMIDE", "en_name": ["N-(4-Bromo-2-methoxyphenyl)acetamide", "Acetamide, N-(4-bromo-2-methoxyphenyl)-", "N-(4-Bromo-2-methoxyphenyl)acetamide", "2-Acetamido-5-bromoanisole"], "SMILES": "N(C(C)=O)C1=C(OC)C=C(Br)C=C1", "physical_data": {"Molecular Weight": "244.09", "Molecular Formula": "C9H10BrNO2", "Melting Point": "159-160 \u00b0C"}}