{"cas_no": "14338-82-0", "cn_name": "2,2\u2019-(\u4e9a\u7532\u57fa\u53cc(\u786b\u4ee3)\u4e8c\u4e59\u9178\u4e8c\u4e01\u916f", "en_name": ["1,1\u2032-Dibutyl 2,2\u2032-[methylenebis(thio)]bis[acetate]", "Acetic acid, 2,2\u2032-[methylenebis(thio)]bis-, 1,1\u2032-dibutyl ester", "Acetic acid, (methylenedithio)di-, dibutyl ester", "Acetic acid, 2,2\u2032-[methylenebis(thio)]bis-, dibutyl ester", "1,1\u2032-Dibutyl 2,2\u2032-[methylenebis(thio)]bis[acetate]", "Methylenebis(butyl mercaptoacetate)", "Dibutyl methylenebisthioglycolate", "Plastikator 88", "Methylenebis(thioglycolic acid butyl ester)", "Vulkanol 88", "Methylenebis(butyl thioglycolate)", "Methylenebis[thioglycolic acid] dibutyl ester", "Struktol KW 600", "KW 600", "Evabochem 994"], "SMILES": "C(C(OCCCC)=O)SCSCC(OCCCC)=O", "physical_data": {"Molecular Weight": "308.46", "Molecular Formula": "C13H24O4S2", "Boiling Point": "176-178 \u00b0C @ Press: 1.0 Torr"}}