{"cas_no": "143382-03-0", "cn_name": "5-\u7532\u6c27\u57fa\u7532\u57fa-2,3-\u5421\u5576\u4e8c\u7fa7\u9178", "en_name": ["5-(Methoxymethyl)-2,3-pyridinedicarboxylic acid", "2,3-Pyridinedicarboxylic acid, 5-(methoxymethyl)-", "5-(Methoxymethyl)-2,3-pyridinedicarboxylic acid"], "SMILES": "C(O)(=O)C1=C(C(O)=O)N=CC(COC)=C1", "physical_data": {"Molecular Weight": "211.17", "Molecular Formula": "C9H9NO5", "Melting Point": "161-162 \u00b0C"}}