{"cas_no": "14335-33-2", "cn_name": "\u78f7\u9178-d3", "en_name": ["Phosphoric acid-d3", "Phosphoric acid-d3", "Deuterium phosphate (D3PO4)", "Phosphoric acid (D3PO4)"], "SMILES": "P(=O)(O[2H])(O)O", "physical_data": {"Molecular Weight": "", "Molecular Formula": "D3O4P", "Melting Point": "46.0 \u00b0C", "Density": "1.9119 g/cm\u00b3 @ Temp: 22 \u00b0C"}}