{"cas_no": "14338-36-4", "cn_name": "3-\u6c28\u57fa\u82ef\u4e59\u9178", "en_name": ["(3-Aminophenyl)acetic acid", "Benzeneacetic acid, 3-amino-", "Acetic acid, (m-aminophenyl)-", "3-Aminobenzeneacetic acid", "(3-Aminophenyl)acetic acid", "(m-Aminophenyl)acetic acid", "2-(3-Aminophenyl)acetic acid"], "SMILES": "C(C(O)=O)C1=CC(N)=CC=C1", "physical_data": {"Molecular Weight": "151.16", "Molecular Formula": "C8H9NO2", "Melting Point": "151 \u00b0C"}}