{"cas_no": "14337-43-0", "cn_name": "\u6c2f\u4ee3\u809f\u57fa\u4e59\u9178\u4e59\u916f", "en_name": ["Ethyl 2-chloro-2-(hydroxyimino)acetate", "Acetic acid, 2-chloro-2-(hydroxyimino)-, ethyl ester", "Glyoxylic acid, chloro-, ethyl ester, 2-oxime", "Acetic acid, chloro(hydroxyimino)-, ethyl ester", "Glyoxylic acid, chloro-, ethyl ester, oxime", "Ethyl 2-chloro-2-(hydroxyimino)acetate", "(Carbethoxy)chloroformaldoxime", "(Ethoxycarbonyl)hydroxamic acid chloride", "Ethyl (chloroximino)glyoxylate", "Ethyl chloroglyoxylate 2-oxime", "(Ethoxycarbonyl)formohydroxamoyl chloride", "Ethyl chloro(hydroxyimino)acetate", "Ethyl chloro(oximido)acetate", "Ethyl chloro(oximino)acetate", "Ethyl chloroximidoacetate", "2-Chloro-2-(hydroxyimino)acetic acid ethyl ester", "Ethyl 2-chloro-2-hydroxyiminoacetate", "(Chloro)(hydroxyimino)acetic acid ethyl ester", "Ethyl chloro(hydroxyimino)ethanoate", "Ethyl oximinochloroacetate"], "SMILES": "C(C(=NO)Cl)(OCC)=O", "physical_data": {"Molecular Weight": "151.55", "Molecular Formula": "C4H6ClNO3", "Melting Point": "75-76 \u00b0C"}}