{"cas_no": "143390-89-0", "cn_name": "\u919a\u83cc\u916f", "en_name": ["Kresoxim-methyl", "Benzeneacetic acid, \u03b1-(methoxyimino)-2-[(2-methylphenoxy)methyl]-, methyl ester, (\u03b1E)-", "Benzeneacetic acid, \u03b1-(methoxyimino)-2-[(2-methylphenoxy)methyl]-, methyl ester, (E)-", "BAS 490F", "BAS 490-02F", "Kresoxim-methyl", "Candit", "Strob 1", "Discus", "Discus (fungicide)", "Stroby", "Cygnus", "Stroby WG", "RIL-FA 200", "Ergon", "Ergon (fungicide)", "Stroby DF", "Kresoxim-Me", "Sovran", "Cygnus 50 WG", "Methyl (E)-methoxyimino[\u03b1-(o-tolyloxy)-o-tolyl]acetate"], "SMILES": "C(C(OC)=O)(=NOC)C1=C(COC2=C(C)C=CC=C2)C=CC=C1", "physical_data": {"Molecular Weight": "313.35", "Molecular Formula": "C18H19NO4", "Melting Point": "97.2-101.7 \u00b0C", "Density": "125.8 g/cm\u00b3"}}