{"cas_no": "14347-78-5", "cn_name": "(R)-(-)-\u7518\u6cb9\u9187\u7f29\u4e19\u916e", "en_name": ["(R)-Solketal", "1,3-Dioxolane-4-methanol, 2,2-dimethyl-, (4R)-", "1,3-Dioxolane-4-methanol, 2,2-dimethyl-, (R)-", "1,3-Dioxolane-4-methanol, 2,2-dimethyl-, D-", "(4R)-2,2-Dimethyl-1,3-dioxolane-4-methanol", "D-2,2-Dimethyl-1,3-dioxolane-4-methanol", "(2R)-Glycerol 1,2-acetonide", "2,3-O-Isopropylidene-sn-glycerol", "(R)-Glycerol acetonide", "2,3-Isopropylidene-sn-glycerol", "(R)-2,2-Dimethyl-1,3-dioxolane-4-methanol", "(-)-Solketal", "2,3-Isopropylidene-L-glycerol", "(R)-1,2-Isopropylideneglycerol", "(R)-2,3-Isopropylideneglycerol", "(-)-\u03b1,\u03b2-Isopropylideneglycerol", "(R)-Solketal", "(R)-2,3-O-Isopropylideneglycerol", "(R)-(-)-2,2-Dimethyl-1,3-dioxolane-4-methanol", "(R)-(-)-(2,2-Dimethyl-1,3-dioxolan-4-yl)methanol", "((4R)-2,2-Dimethyl-1,3-dioxolan-4-yl)methanol", "((4R)-2,2-Dimethyl-1,3-dioxolan-4-yl)methanol", "2,2-Dimethyl-(4R)-1,3-dioxolane-4-methanol", "(-)-2,2-Dimethyl-1,3-dioxolane-4-methanol", "(R)-2,2-Dimethyl-1,3-dioxolan-4-methanol", "(R)-(-)-2,2-Dimethyl-1,3-dioxolan-4-methanol", "(R)-(2,2-Dimethyl[1,3]dioxolan-4-yl)methanol", "((R)-2,2-Dimethyl-[1,3]dioxolan-4-yl)methanol", "(R)-Isopropylideneglycerol", "(R)-(-)-2,2-Dimethyl-1,3-dioxolane-4-methanol", "1,3-Dioxolane-4-methanol 2,2-dimethyl-, (4R)-", "(R)-1,2-O-Isopropylideneglycerol"], "SMILES": "C(O)C1OC(C)(C)OC1", "physical_data": {"Molecular Weight": "132.16", "Molecular Formula": "C6H12O3", "Boiling Point": "80.5-80.8 \u00b0C @ Press: 11 Torr"}}