{"cas_no": "143487-47-2", "cn_name": "\u73af\u620a\u70f7\u4e09\u7532\u6c27\u57fa\u7845\u70f7", "en_name": ["Cyclopentyltrimethoxysilane", "Cyclopentane, (trimethoxysilyl)-", "Silane, cyclopentyltrimethoxy-", "(Trimethoxysilyl)cyclopentane", "Cyclopentyltrimethoxysilane"], "SMILES": "[Si](OC)(OC)(OC)C1CCCC1", "physical_data": {"Molecular Weight": "190.31", "Molecular Formula": "C8H18O3Si", "Boiling Point": "75 \u00b0C @ Press: 10 Torr", "Density": "0.990 g/cm\u00b3 @ Temp: 25 \u00b0C"}}