{"cas_no": "14347-05-8", "cn_name": "4-\u82c4\u6c27\u57fa-3-\u785d\u57fa\u82ef\u4e59\u916e", "en_name": ["1-[3-Nitro-4-(phenylmethoxy)phenyl]ethanone", "Ethanone, 1-[3-nitro-4-(phenylmethoxy)phenyl]-", "Acetophenone, 4\u2032-(benzyloxy)-3\u2032-nitro-", "1-[3-Nitro-4-(phenylmethoxy)phenyl]ethanone", "4\u2032-Benzyloxy-3\u2032-nitroacetophenone", "1-(4-Benzyloxy-3-nitrophenyl)ethanone", "1-Acetyl-4-benzyloxy-3-nitrobenzene", "1-[4-(Benzyloxy)-3-nitrophenyl]ethan-1-one"], "SMILES": "O(CC1=CC=CC=C1)C2=C(N(=O)=O)C=C(C(C)=O)C=C2", "physical_data": {"Molecular Weight": "271.27", "Molecular Formula": "C15H13NO4", "Melting Point": "134-136 \u00b0C"}}