{"cas_no": "14346-25-9", "cn_name": "1,2,3,5-\u56db\u6c22-8-\u786b\u6742-5,7-\u4e8c\u6c2e-\u73af\u620a\u57fa[A]\u831a-4-\u916e", "en_name": ["1,5,6,7-Tetrahydro-4H-cyclopenta[4,5]thieno[2,3-d]pyrimidin-4-one", "4H-Cyclopenta[4,5]thieno[2,3-d]pyrimidin-4-one, 1,5,6,7-tetrahydro-", "5H-Cyclopenta[4,5]thieno[2,3-d]pyrimidin-4-ol, 6,7-dihydro-", "1,5,6,7-Tetrahydro-4H-cyclopenta[4,5]thieno[2,3-d]pyrimidin-4-one", "ICX 56290675", "NSC 612490", "2,3-Dihydro-1H-8-thia-5,7-diaza-cyclopenta[a]inden-4-ol", "3,5,6,7-Tetrahydro-4H-cyclopenta[4,5]thieno[2,3-d]pyrimidin-4-one"], "SMILES": "O=C1C=2C3=C(SC2NC=N1)CCC3", "physical_data": {"Molecular Weight": "192.24", "Molecular Formula": "C9H8N2OS", "Melting Point": "235 \u00b0C"}}