{"cas_no": "14345-97-2", "cn_name": "2-\u6c2f-3-\u7532\u57fa\u567b\u5429", "en_name": ["2-Chloro-3-methylthiophene", "Thiophene, 2-chloro-3-methyl-", "2-Chloro-3-methylthiophene"], "SMILES": "CC1=C(Cl)SC=C1", "physical_data": {"Molecular Weight": "132.61", "Molecular Formula": "C5H5ClS", "Boiling Point": "53-54 \u00b0C @ Press: 15 Torr"}}