{"cas_no": "14348-41-5", "cn_name": "3-\u6eb4-4-\u7f9f\u57fa\u82ef\u7532\u9178", "en_name": ["3-Bromo-4-hydroxybenzoic acid", "Benzoic acid, 3-bromo-4-hydroxy-", "3-Bromo-4-hydroxybenzoic acid", "m-Bromo-p-hydroxybenzoic acid"], "SMILES": "C(O)(=O)C1=CC(Br)=C(O)C=C1", "physical_data": {"Molecular Weight": "217.02", "Molecular Formula": "C7H5BrO3", "Melting Point": "177 \u00b0C"}}