{"cas_no": "14346-19-1", "cn_name": "3-\u6c28\u57fa-5-\u785d\u57fa\u82ef\u5e76\u5f02\u567b\u5511", "en_name": ["3-Amino-5-nitro-2,1-benzisothiazole", "2,1-Benzisothiazol-3-amine, 5-nitro-", "2,1-Benzisothiazole, 3-amino-5-nitro-", "5-Nitro-2,1-benzisothiazol-3-amine", "3-Amino-5-nitro-2,1-benzisothiazole", "3-Amino-5-nitrobenz[c]isothiazole", "3-Amino-5-nitro-2,1-benzoisothiazole"], "SMILES": "NC1=C2C(C=CC(N(=O)=O)=C2)=NS1", "physical_data": {"Molecular Weight": "195.20", "Molecular Formula": "C7H5N3O2S", "Melting Point": "&gt;300 \u00b0C"}}