{"cas_no": "14344-46-8", "cn_name": "3-\u5def\u57fa-2-(\u7532\u57fa\u6c28\u57fa)\u4e19\u9178\u76d0\u9178\u76d0", "en_name": ["L-Cysteine, N-methyl-, hydrochloride (1:1)", "L-Cysteine, N-methyl-, hydrochloride (1:1)", "Cysteine, N-methyl-, hydrochloride, L-", "L-Cysteine, N-methyl-, hydrochloride", "L-N-Methylcysteine hydrochloride"], "SMILES": "C(C(O)=O)(CS)NC.Cl", "physical_data": {"Molecular Weight": "", "Molecular Formula": "C4H9NO2S.ClH", "Melting Point": "128-130 \u00b0C"}}