{"cas_no": "14348-75-5", "cn_name": "2,7-\u4e8c\u6eb4-9-\u82b4\u916e", "en_name": ["2,7-Dibromo-9-fluorenone", "9H-Fluoren-9-one, 2,7-dibromo-", "Fluoren-9-one, 2,7-dibromo-", "2,7-Dibromo-9H-fluoren-9-one", "2,7-Dibromofluorenone", "2,7-Dibromo-9-fluorenone", "NSC 90687"], "SMILES": "O=C1C=2C(C=3C1=CC(Br)=CC3)=CC=C(Br)C2", "physical_data": {"Molecular Weight": "337.99", "Molecular Formula": "C13H6Br2O", "Melting Point": "210 \u00b0C"}}