{"cas_no": "143468-96-6", "cn_name": "(2-\u567b\u5429\u57fa\u7532\u57fa)\u4e19\u4e8c\u9178\u5355\u4e59\u916f", "en_name": ["1-Ethyl 2-(2-thienylmethyl)propanedioate", "Propanedioic acid, 2-(2-thienylmethyl)-, 1-ethyl ester", "Propanedioic acid, (2-thienylmethyl)-, monoethyl ester", "1-Ethyl 2-(2-thienylmethyl)propanedioate", "(2-Thienylmethyl)propanedioic acid monoethyl ester", "Ethyl 2-carboxy-3-(2-thienyl)propionate", "2-(Ethoxycarbonyl)-3-(thien-2-yl)propanoic acid", "2-Carbethoxy-3-(2-thienyl)propanoic acid"], "SMILES": "C(C(C(OCC)=O)C(O)=O)C1=CC=CS1", "physical_data": {"Molecular Weight": "228.26", "Molecular Formula": "C10H12O4S", "Boiling Point": "170 \u00b0C @ Press: 12.2 Torr", "Density": "1.141 g/cm\u00b3 @ Temp: 20 \u00b0C"}}