{"cas_no": "1435-50-3", "cn_name": "2-\u6eb4-1,4-\u4e8c\u6c2f\u82ef", "en_name": ["2-Bromo-1,4-dichlorobenzene", "Benzene, 2-bromo-1,4-dichloro-", "2-Bromo-1,4-dichlorobenzene", "1-Bromo-2,5-dichlorobenzene", "2,5-Dichlorobromobenzene"], "SMILES": "BrC1=C(Cl)C=CC(Cl)=C1", "physical_data": {"Molecular Weight": "225.90", "Molecular Formula": "C6H3BrCl2", "Boiling Point": "226 \u00b0C", "Melting Point": "35 \u00b0C"}}