{"cas_no": "1435-60-5", "cn_name": "4-(4-\u785d\u57fa\u82ef\u57fa\u5076\u6c2e)\u915a", "en_name": ["4-Hydroxy-4\u2032-nitroazobenzene", "Phenol, 4-[2-(4-nitrophenyl)diazenyl]-", "Phenol, p-[(p-nitrophenyl)azo]-", "Phenol, 4-[(4-nitrophenyl)azo]-", "4-[2-(4-Nitrophenyl)diazenyl]phenol", "p-Nitrophenylazophenol", "4-Nitro-4\u2032-hydroxyazobenzene", "4-(p-Nitrophenylazo)phenol", "4-Hydroxy-4\u2032-nitroazobenzene", "4-[(4-Nitrophenyl)azo]phenol", "p-Hydroxy-p\u2032-nitroazobenzene", "4\u2032-Nitro-4-hydroxyazobenzene", "4-(4\u2032-Nitrophenylazo)phenol", "NSC 45166"], "SMILES": "N(=NC1=CC=C(O)C=C1)C2=CC=C(N(=O)=O)C=C2", "physical_data": {"Molecular Weight": "243.22", "Molecular Formula": "C12H9N3O3", "Melting Point": "216 \u00b0C"}}