{"cas_no": "1435-51-4", "cn_name": "1,3-\u4e8c\u6eb4-5-\u6c1f\u82ef", "en_name": ["1,3-Dibromo-5-fluorobenzene", "Benzene, 1,3-dibromo-5-fluoro-", "1,3-Dibromo-5-fluorobenzene", "3,5-Dibromofluorobenzene", "3,5-Dibromo-1-fluorobenzene", "1-Fluoro-3,5-dibromobenzene"], "SMILES": "BrC1=CC(Br)=CC(F)=C1", "physical_data": {"Molecular Weight": "253.89", "Molecular Formula": "C6H3Br2F", "Boiling Point": "204-206 \u00b0C"}}