{"cas_no": "1435-54-7", "cn_name": "1,3-\u4e8c\u6eb4-2-\u6c1f\u82ef", "en_name": ["1,3-Dibromo-2-fluorobenzene", "Benzene, 1,3-dibromo-2-fluoro-", "1,3-Dibromo-2-fluorobenzene"], "SMILES": "FC1=C(Br)C=CC=C1Br", "physical_data": {"Molecular Weight": "253.89", "Molecular Formula": "C6H3Br2F", "Melting Point": "53 \u00b0C"}}