{"cas_no": "1435-48-9", "cn_name": "2,4-\u4e8c\u6c2f\u6c1f\u82ef", "en_name": ["2,4-Dichlorofluorobenzene", "Benzene, 2,4-dichloro-1-fluoro-", "2,4-Dichloro-1-fluorobenzene", "2,4-Dichlorofluorobenzene", "1-Fluoro-2,4-dichlorobenzene", "1,3-Dichloro-4-fluorobenzene", "2,6-Dichloro-3-fluorophenyl", "1,3-Bischloro-4-fluorobenzene", "2,4-Dichloro-1-fluorbenzene"], "SMILES": "ClC1=C(F)C=CC(Cl)=C1", "physical_data": {"Molecular Weight": "164.99", "Molecular Formula": "C6H3Cl2F", "Boiling Point": "172-174 \u00b0C", "Melting Point": "-13.8--13.2 \u00b0C", "Density": "1.4092 g/cm\u00b3 @ Temp: 20 \u00b0C"}}