{"cas_no": "14351-66-7", "cn_name": "\u677e\u9999\u9178\u94a0", "en_name": ["Sodium abietate", "1-Phenanthrenecarboxylic acid, 1,2,3,4,4a,4b,5,6,10,10a-decahydro-1,4a-dimethyl-7-(1-methylethyl)-, sodium salt (1:1), (1R,4aR,4bR,10aR)-", "Podocarpa-7,13-dien-15-oic acid, 13-isopropyl-, sodium salt", "1-Phenanthrenecarboxylic acid, 1,2,3,4,4a,4b,5,6,10,10a-decahydro-1,4a-dimethyl-7-(1-methylethyl)-, sodium salt, [1R-(1\u03b1,4a\u03b2,4b\u03b1,10a\u03b1)]-", "1-Phenanthrenecarboxylic acid, 1,2,3,4,4a,4b,5,6,10,10a-decahydro-1,4a-dimethyl-7-(1-methylethyl)-, sodium salt, (1R,4aR,4bR,10aR)-", "Sodium abietate", "Abietic acid sodium salt"], "SMILES": "CC12C(C(C(O)=O)(C)CCC1)CC=C3C2CCC(C(C)C)=C3.[Na]", "physical_data": {"Molecular Weight": "", "Molecular Formula": "C20H30O2.Na", "Melting Point": "300 \u00b0C (decomp)"}}