{"cas_no": "1435-53-6", "cn_name": "2,4-\u4e8c\u6eb4-1-\u6c1f\u82ef", "en_name": ["2,4-Dibromo-1-fluorobenzene", "Benzene, 2,4-dibromo-1-fluoro-", "2,4-Dibromo-1-fluorobenzene", "2,4-Dibromofluorobenzene", "1,3-Dibromo-4-fluorobenzene", "1-Fluoro-2,4-dibromobenzene", "NSC 88308"], "SMILES": "BrC1=C(F)C=CC(Br)=C1", "physical_data": {"Molecular Weight": "253.89", "Molecular Formula": "C6H3Br2F", "Boiling Point": "103-105 \u00b0C @ Press: 32 Torr", "Melting Point": "69 \u00b0C"}}