{"cas_no": "1435-46-7", "cn_name": "3,5-\u4e8c\u6c2f\u6c1f\u82ef", "en_name": ["1,3-Dichloro-5-fluorobenzene", "Benzene, 1,3-dichloro-5-fluoro-", "1,3-Dichloro-5-fluorobenzene", "3,5-Dichlorofluorobenzene", "3,5-Dichloro-1-fluorobenzene", "1-Fluoro-3,5-dichlorobenzene"], "SMILES": "ClC1=CC(Cl)=CC(F)=C1", "physical_data": {"Molecular Weight": "164.99", "Molecular Formula": "C6H3Cl2F", "Boiling Point": "160 \u00b0C"}}