{"cas_no": "1435-55-8", "cn_name": "\u6c22\u5316\u594e\u5c3c\u5b9a", "en_name": ["Hydroquinidine", "Cinchonan-9-ol, 10,11-dihydro-6\u2032-methoxy-, (9S)-", "Hydroquinidine", "(9S)-10,11-Dihydro-6\u2032-methoxycinchonan-9-ol", "Dihydroquinidine", "Hydroconquinine", "10,11-Dihydroquinidine", "(+)-Hydroquinidine"], "SMILES": "C(O)(C=1C2=C(C=CC(OC)=C2)N=CC1)C3N4CC(CC)C(C3)CC4", "physical_data": {"Molecular Weight": "326.43", "Molecular Formula": "C20H26N2O2", "Melting Point": "168.5 \u00b0C"}}