{"cas_no": "1435-44-5", "cn_name": "2,4-\u4e8c\u6c1f\u6c2f\u82ef", "en_name": ["1-Chloro-2,4-difluorobenzene", "Benzene, 1-chloro-2,4-difluoro-", "1-Chloro-2,4-difluorobenzene", "2,4-Difluorochlorobenzene", "NSC 10254", "2,4-Difluorophenyl chloride", "2,4-Difluoro-1-chlorobenzene"], "SMILES": "FC1=C(Cl)C=CC(F)=C1", "physical_data": {"Molecular Weight": "148.54", "Molecular Formula": "C6H3ClF2", "Melting Point": "127 \u00b0C", "Density": "1.353 g/cm\u00b3 @ Temp: 20 \u00b0C"}}