{"cas_no": "14357-78-9", "cn_name": "\u5229\u5df4\u97e6\u6797\u6742\u8d28\u6807\u51c6\u54c1", "en_name": ["Diprenorphine", "6,14-Ethenomorphinan-7-methanol, 17-(cyclopropylmethyl)-4,5-epoxy-18,19-dihydro-3-hydroxy-6-methoxy-\u03b1,\u03b1-dimethyl-, (5\u03b1,7\u03b1)-", "6,14-endo-Ethanotetrahydrooripavine, 21-cyclopropyl-7\u03b1-(1-hydroxy-1-methylethyl)-", "(5\u03b1,7\u03b1)-17-(Cyclopropylmethyl)-4,5-epoxy-18,19-dihydro-3-hydroxy-6-methoxy-\u03b1,\u03b1-dimethyl-6,14-ethenomorphinan-7-methanol", "Diprenorphine", "1-N-Cyclopropylmethyl-6,7,8,14-tetrahydro-6,14-endoethano-7-(2\u2032-hydroxy-2\u2032-propyl)nororipavine", "RX 5050M", "N-(Cyclopropylmethyl)-19-methylnororvinol", "M 5050", "M 5050 Injection"], "SMILES": "O(C)C12C3C45C(C(N(CC6CC6)CC4)CC7=C5C(O3)=C(O)C=C7)(CC1C(C)(C)O)CC2", "physical_data": {"Molecular Weight": "425.56", "Molecular Formula": "C26H35NO4", "Melting Point": "185 \u00b0C"}}