{"cas_no": "14352-61-5", "cn_name": "\u4e59\u9178\u7532\u916f\u73af\u5df1\u916f", "en_name": ["Cyclohexaneacetic acid, methyl ester", "Cyclohexaneacetic acid, methyl ester", "Methyl cyclohexaneacetate", "NSC 68511", "Cyclohexylacetic acid methyl ester"], "SMILES": "C(C(OC)=O)C1CCCCC1", "physical_data": {"Molecular Weight": "156.22", "Molecular Formula": "C9H16O2", "Boiling Point": "85-87 \u00b0C @ Press: 25 Torr"}}