{"cas_no": "14351-29-2", "cn_name": "\u8fbe\u739b\u70ef\u4e8c\u9187 II", "en_name": ["Dammarenediol", "Dammar-24-ene-3,20-diol, (3\u03b2)-", "Dammar-24-ene-3\u03b2,20-diol, (20S)-", "Dammarenediol II", "(3\u03b2)-Dammar-24-ene-3,20-diol", "20S-Dammarenediol", "Dammarenediol", "20S-Dammarenediol II", "(20S)-Dammar-24-ene-3\u03b2,20-diol", "(+)-Dammarenediol II"], "SMILES": "CC12C(C3(C)C(CC1)C(C)(C)C(O)CC3)CCC4C2(C)CCC4C(CCC=C(C)C)(C)O", "physical_data": {"Molecular Weight": "444.73", "Molecular Formula": "C30H52O2", "Melting Point": "130-133 \u00b0C"}}