{"cas_no": "14359-97-8", "cn_name": "1-\u80bc\u57fa-3-\u7532\u786b\u57fa-2-\u4e19\u9187", "en_name": ["1-Hydrazinyl-3-(methylthio)-2-propanol", "2-Propanol, 1-hydrazinyl-3-(methylthio)-", "2-Propanol, 1-hydrazino-3-(methylthio)-", "1-Hydrazinyl-3-(methylthio)-2-propanol", "[2-Hydroxy-3-(methylsulfanyl)propyl]hydrazine", "1-Hydrazino-3-(methylthio)propan-2-ol"], "SMILES": "C(CNN)(CSC)O", "physical_data": {"Molecular Weight": "136.22", "Molecular Formula": "C4H12N2OS", "Boiling Point": "128-130 \u00b0C @ Press: 1 Torr"}}