{"cas_no": "1435-49-0", "cn_name": "1,2-\u4e8c\u6c2f-4-\u6c1f\u82ef", "en_name": ["1,2-Dichloro-4-fluorobenzene", "Benzene, 1,2-dichloro-4-fluoro-", "1,2-Dichloro-4-fluorobenzene", "3,4-Dichlorofluorobenzene", "3,4-Dichloro-1-fluorobenzene", "1-Fluoro-3,4-dichlorobenzene", "NSC 82300"], "SMILES": "ClC1=C(Cl)C=CC(F)=C1", "physical_data": {"Molecular Weight": "164.99", "Molecular Formula": "C6H3Cl2F", "Boiling Point": "171 \u00b0C"}}