{"cas_no": "1436-59-5", "cn_name": "\u987a\u5f0f-1,2-\u73af\u5df1\u4e8c\u80fa", "en_name": ["cis-1,2-Cyclohexanediamine", "1,2-Cyclohexanediamine, (1R,2S)-rel-", "1,2-Cyclohexanediamine, cis-", "rel-(1R,2S)-1,2-Cyclohexanediamine", "cis-1,2-Diaminocyclohexane", "meso-1,2-Cyclohexanediamine", "cis-1,2-Cyclohexanediamine", "(R)(S)-1,2-Diaminocyclohexane", "meso-1,2-Diaminocyclohexane", "(\u00b1)-cis-Cyclohexane-1,2-diamine", "cis-(1S,2R)-1,2-Diaminocyclohexane", "(1R,2S)-1,2-Diaminocyclohexane", "(1R*,2S*)-Cyclohexane-1,2-diamine"], "SMILES": "NC1C(N)CCCC1", "physical_data": {"Molecular Weight": "114.19", "Molecular Formula": "C6H14N2", "Boiling Point": "92-93 \u00b0C @ Press: 18 Torr"}}