{"cas_no": "1436-43-7", "cn_name": "2-\u6c30\u57fa\u55b9\u5549", "en_name": ["2-Quinolinecarbonitrile", "2-Quinolinecarbonitrile", "Quinaldonitrile", "2-Cyanoquinoline", "Quinoline-2-nitrile"], "SMILES": "C(#N)C1=NC2=C(C=C1)C=CC=C2", "physical_data": {"Molecular Weight": "154.17", "Molecular Formula": "C10H6N2", "Boiling Point": "160 \u00b0C", "Melting Point": "95 \u00b0C"}}