{"cas_no": "14367-47-6", "cn_name": "\u9152\u7f8e\u8d1d\u7ef4\u6797", "en_name": ["4-[Ethyl[2-(4-methoxyphenyl)-1-methylethyl]amino]-1-butanol", "1-Butanol, 4-[ethyl[2-(4-methoxyphenyl)-1-methylethyl]amino]-", "1-Butanol, 4-[ethyl(p-methoxy-\u03b1-methylphenethyl)amino]-", "4-[Ethyl[2-(4-methoxyphenyl)-1-methylethyl]amino]-1-butanol", "4-[N-Ethyl-N-[1-(4-methoxyphenyl)propan-2-yl]amino]butan-1-ol"], "SMILES": "C(C(N(CCCCO)CC)C)C1=CC=C(OC)C=C1", "physical_data": {"Molecular Weight": "265.39", "Molecular Formula": "C16H27NO2", "Boiling Point": "160-170 \u00b0C @ Press: 0.2 Torr"}}