{"cas_no": "1436-34-6", "cn_name": "\u4e01\u57fa\u73af\u6c27\u4e59\u70f7", "en_name": ["2-Butyloxirane", "Oxirane, 2-butyl-", "Hexane, 1,2-epoxy-", "Oxirane, butyl-", "2-Butyloxirane", "1,2-Hexene oxide", "1,2-Epoxyhexane", "1-Hexene epoxide", "1-Hexene oxide", "Butyloxirane", "(\u00b1)-1,2-Epoxyhexane", "(\u00b1)-Butyloxirane", "NSC 24268"], "SMILES": "C(CCC)C1CO1", "physical_data": {"Molecular Weight": "100.16", "Molecular Formula": "C6H12O", "Boiling Point": "109-110 \u00b0C", "Melting Point": "93-95 \u00b0C", "Density": "0.8456 g/cm\u00b3 @ Temp: 19.5 \u00b0C"}}