{"cas_no": "14360-50-0", "cn_name": "\u6b63\u620a\u57fa2-\u544b\u5583\u916e", "en_name": ["2-Hexanoylfuran", "1-Hexanone, 1-(2-furanyl)-", "1-Hexanone, 1-(2-furyl)-", "1-(2-Furanyl)-1-hexanone", "2-Furyl pentyl ketone", "2-Hexanoylfuran", "NSC 27361", "2-Furyl n-pentyl ketone", "2-Caproylfuran", "Pentyl 2-furyl ketone", "1-(2-Furyl)hexan-1-one"], "SMILES": "C(CCCCC)(=O)C1=CC=CO1", "physical_data": {"Molecular Weight": "166.22", "Molecular Formula": "C10H14O2", "Boiling Point": "116-119 \u00b0C @ Press: 16 Torr", "Density": "0.9954 g/cm\u00b3 @ Temp: 25 \u00b0C"}}