{"cas_no": "14371-82-5", "cn_name": "2-\u785d\u57fa-4-\u4e09\u6c1f\u7532\u57fa\u82ef\u786b\u915a", "en_name": ["2-Nitro-4-(trifluoromethyl)benzenethiol", "Benzenethiol, 2-nitro-4-(trifluoromethyl)-", "p-Toluenethiol, \u03b1,\u03b1,\u03b1-trifluoro-2-nitro-", "2-Nitro-4-(trifluoromethyl)benzenethiol", "2-Nitro-4-trifluoromethylthiophenol", "2-Nitro-4-(trifluoromethyl)benzene-1-thiol"], "SMILES": "N(=O)(=O)C1=CC(C(F)(F)F)=CC=C1S", "physical_data": {"Molecular Weight": "223.17", "Molecular Formula": "C7H4F3NO2S", "Boiling Point": "105 \u00b0C @ Press: 1 Torr", "Melting Point": "35-36 \u00b0C"}}