{"cas_no": "14370-74-2", "cn_name": "3-\u7f9f\u57fa\u5432\u54da-2-\u7532\u9178\u4e59\u916f", "en_name": ["Ethyl 3-hydroxy-1H-indole-2-carboxylate", "1H-Indole-2-carboxylic acid, 3-hydroxy-, ethyl ester", "Indole-2-carboxylic acid, 3-hydroxy-, ethyl ester", "Indoxylic acid, ethyl ester", "Ethyl 3-hydroxy-1H-indole-2-carboxylate", "3-Hydroxy-1H-indole-2-carboxylic acid ethyl ester"], "SMILES": "OC=1C=2C(NC1C(OCC)=O)=CC=CC2", "physical_data": {"Molecular Weight": "205.21", "Molecular Formula": "C11H11NO3", "Melting Point": "116 \u00b0C"}}