{"cas_no": "14376-79-5", "cn_name": "3,3,5,5-\u56db\u7532\u57fa\u73af\u5df1\u916e", "en_name": ["3,3,5,5-Tetramethylcyclohexanone", "Cyclohexanone, 3,3,5,5-tetramethyl-", "3,3,5,5-Tetramethylcyclohexanone", "NSC 91511", "3,3,5,5-Tetramethylcyclohexan-1-one"], "SMILES": "CC1(C)CC(C)(C)CC(=O)C1", "physical_data": {"Molecular Weight": "154.25", "Molecular Formula": "C10H18O", "Boiling Point": "196-197 \u00b0C @ Press: 760 Torr", "Density": "0.8914 g/cm\u00b3 @ Temp: 20 \u00b0C"}}