{"cas_no": "14374-45-9", "cn_name": "1-\u82ef\u57fa-1-\u5e9a\u7094", "en_name": ["1-Heptyn-1-ylbenzene", "Benzene, 1-heptyn-1-yl-", "1-Heptyne, 1-phenyl-", "Benzene, 1-heptynyl-", "1-Heptyn-1-ylbenzene", "1-Phenylheptyne", "1-Phenyl-1-heptyne", "1-Heptynylbenzene", "1-(Hept-1-ynyl)benzene"], "SMILES": "C(#CCCCCC)C1=CC=CC=C1", "physical_data": {"Molecular Weight": "172.27", "Molecular Formula": "C13H16", "Boiling Point": "138 \u00b0C @ Press: 13 Torr", "Density": "0.9 g/cm\u00b3 @ Temp: 19 \u00b0C"}}