{"cas_no": "14371-10-9", "cn_name": "\u53cd\u5f0f\u8089\u6842\u919b", "en_name": ["trans-Cinnamaldehyde", "2-Propenal, 3-phenyl-, (2E)-", "Cinnamaldehyde, (E)-", "2-Propenal, 3-phenyl-, (E)-", "(2E)-3-Phenyl-2-propenal", "trans-Cinnamaldehyde", "(E)-Cinnamaldehyde", "trans-Cinnamic aldehyde", "trans-3-Phenyl-2-propenal", "trans-Cinnamylaldehyde", "(E)-3-Phenylprop-2-enal", "(E)-3-Phenylpropenal", "E-Cinnamyl aldehyde", "trans-3-Phenylpropenal", "trans-Benzenepropenal", "(E)-3-Phenylacrolein", "(E)-3-Phenylprop-2-enone", "(E)-3-Phenylprop-2-en-1-al", "(E)-3-Phenylpropenal"], "SMILES": "C(=CC=O)C1=CC=CC=C1", "physical_data": {"Molecular Weight": "132.16", "Molecular Formula": "C9H8O", "Boiling Point": "120-121 \u00b0C @ Press: 12 Torr", "Melting Point": "-7.5 \u00b0C", "Density": "1.0436 g/cm\u00b3 @ Temp: 20 \u00b0C"}}