{"cas_no": "1437-15-6", "cn_name": "1,2-\u53cc\u5421\u5576\u57fa\u4e59\u70ef", "en_name": ["2,2\u2032-(1,2-Ethenediyl)bis[pyridine]", "Pyridine, 2,2\u2032-(1,2-ethenediyl)bis-", "Pyridine, 2,2\u2032-vinylenedi-", "2,2\u2032-(1,2-Ethenediyl)bis[pyridine]", "1,2-Bis(2-pyridyl)ethylene", "1,2-Bis(2-pyridyl)ethene", "1,2-Di-2-pyridylethene", "NSC 9489"], "SMILES": "C(=CC1=CC=CC=N1)C2=CC=CC=N2", "physical_data": {"Molecular Weight": "182.22", "Molecular Formula": "C12H10N2", "Boiling Point": "150-160 \u00b0C", "Melting Point": "118-119 \u00b0C"}}