{"cas_no": "14377-68-5", "cn_name": "1-\u82ef\u57fa\u73af\u4e01\u70f7\u7532\u8148", "en_name": ["1-Phenylcyclobutanecarbonitrile", "Cyclobutanecarbonitrile, 1-phenyl-", "1-Phenylcyclobutanecarbonitrile", "1-Phenyl-1-cyclobutanecarbonitrile", "NSC 125697"], "SMILES": "C(#N)C1(CCC1)C2=CC=CC=C2", "physical_data": {"Molecular Weight": "157.21", "Molecular Formula": "C11H11N", "Boiling Point": "107 \u00b0C @ Press: 8 Torr"}}