{"cas_no": "1438-79-5", "cn_name": "\u4e59\u70ef\u57fa\u4e94\u7532\u57fa\u4e8c\u7845\u6c27\u70f7", "en_name": ["Vinylpentamethyldisiloxane", "Disiloxane, 1-ethenyl-1,1,3,3,3-pentamethyl-", "Disiloxane, pentamethylvinyl-", "Disiloxane, ethenylpentamethyl-", "1-Ethenyl-1,1,3,3,3-pentamethyldisiloxane", "Pentamethylvinyldisiloxane", "1,1,1,3,3-Pentamethyl-3-vinyldisiloxane", "Dimethyl(trimethylsilyloxy)vinylsilane", "Vinylpentamethyldisiloxane", "1,1,3,3,3-Pentamethyl-1-vinyldisiloxane", "SIV 9090", "Dimethyl(trimethylsiloxy)(vinyl)silane", "Pentamethyl-1-vinyldisiloxane", "1-Vinyl-1,1,3,3,3-pentamethyldisiloxane"], "SMILES": "O([Si](C=C)(C)C)[Si](C)(C)C", "physical_data": {"Molecular Weight": "174.39", "Molecular Formula": "C7H18OSi2", "Boiling Point": "120 \u00b0C", "Density": "0.787 g/cm\u00b3"}}