{"cas_no": "143878-29-9", "cn_name": "4-\u4e59\u9170\u80fa\u6c28\u57fa-5-\u6c2f-7-\u82ef\u5e76\u544b\u5583\u7532\u9178\u7532\u916f", "en_name": ["7-Benzofurancarboxylic acid, 4-(acetylamino)-5-chloro-2,3-dihydro-, methyl ester", "7-Benzofurancarboxylic acid, 4-(acetylamino)-5-chloro-2,3-dihydro-, methyl ester", "Methyl 4-(acetylamino)-5-chloro-2,3-dihydrobenzofuran-7-carboxylate"], "SMILES": "N(C(C)=O)C1=C2C(=C(C(OC)=O)C=C1Cl)OCC2", "physical_data": {"Molecular Weight": "269.68", "Molecular Formula": "C12H12ClNO4", "Melting Point": "245-247 \u00b0C"}}