{"cas_no": "1438-30-8", "cn_name": "\u7eba\u9524\u83cc\u7d20", "en_name": ["Netropsin", "1H-Pyrrole-2-carboxamide, 4-[[2-[(aminoiminomethyl)amino]acetyl]amino]-N-[5-[[(3-amino-3-iminopropyl)amino]carbonyl]-1-methyl-1H-pyrrol-3-yl]-1-methyl-", "N,4\u2032-Bi[pyrrole-2-carboxamide], N\u2032-(2-amidinoethyl)-4-(2-guanidinoacetamido)-1,1\u2032-dimethyl-", "1H-Pyrrole-2-carboxamide, 4-[[[(aminoiminomethyl)amino]acetyl]amino]-N-[5-[[(3-amino-3-iminopropyl)amino]carbonyl]-1-methyl-1H-pyrrol-3-yl]-1-methyl-", "Congocidine", "4-[[2-[(Aminoiminomethyl)amino]acetyl]amino]-N-[5-[[(3-amino-3-iminopropyl)amino]carbonyl]-1-methyl-1H-pyrrol-3-yl]-1-methyl-1H-pyrrole-2-carboxamide", "IA 887", "Congocidin", "Sinanomycin", "T 1384", "Netropsin", "NSC 3067", "NCI 3067", "MeSH ID: D009429"], "SMILES": "C(NC=1C=C(C(NCCC(=N)N)=O)N(C)C1)(=O)C2=CC(NC(CNC(=N)N)=O)=CN2C", "physical_data": {"Molecular Weight": "430.46", "Molecular Formula": "C18H26N10O3", "Melting Point": "171-173 \u00b0C"}}