{"cas_no": "1438-82-0", "cn_name": "\u4e94\u7532\u57fa\u4e8c\u7845\u6c27\u70f7", "en_name": ["Pentamethyldisiloxane", "Disiloxane, 1,1,1,3,3-pentamethyl-", "Disiloxane, pentamethyl-", "1,1,1,3,3-Pentamethyldisiloxane", "Pentamethyldisiloxane", "Trimethylsiloxydimethylsilane", "1,1,3,3,3-Pentamethyldisiloxane", "Dimethyl(trimethylsilyloxy)silane", "Dimethyl(trimethylsiloxy)silane", "[(Dimethylsilyl)oxy]trimethylsilane"], "SMILES": "O([Si](C)(C)C)[SiH](C)C", "physical_data": {"Molecular Weight": "148.35", "Molecular Formula": "C5H16OSi2", "Boiling Point": "86-87 \u00b0C", "Density": "0.758 g/cm\u00b3"}}