{"cas_no": "1438-91-1", "cn_name": "\u7ce0\u57fa\u7532\u57fa\u786b\u919a", "en_name": ["2-[(Methylthio)methyl]furan", "Furan, 2-[(methylthio)methyl]-", "2-[(Methylthio)methyl]furan", "Methyl furfuryl sulfide", "2-(Methylthiomethyl)furan", "2-Furfuryl methyl sulfide", "2-(Methylsulfanylmethyl)furan", "2-[(Methylsulfanyl)methyl]furan"], "SMILES": "C(SC)C1=CC=CO1", "physical_data": {"Molecular Weight": "128.19", "Molecular Formula": "C6H8OS", "Boiling Point": "62-63 \u00b0C @ Press: 28 Torr"}}