{"cas_no": "14383-51-8", "cn_name": "\u53bb\u7532\u6258\u54c1\u9187\u76d0\u9178\u76d0", "en_name": ["Nortropine hydrochloride", "8-Azabicyclo[3.2.1]octan-3-ol, hydrochloride (1:1), (3-endo)-", "1\u03b1H,5\u03b1H-Nortropan-3\u03b1-ol, hydrochloride", "8-Azabicyclo[3.2.1]octan-3-ol, hydrochloride, endo-", "8-Azabicyclo[3.2.1]octan-3-ol, hydrochloride, (3-endo)-", "Nortropine hydrochloride"], "SMILES": "OC1CC2NC(CC2)C1.Cl", "physical_data": {"Molecular Weight": "", "Molecular Formula": "C7H13NO.ClH", "Melting Point": "281-285 \u00b0C (decomp)"}}