{"cas_no": "14389-86-7", "cn_name": "2-\u82c4\u6c27\u57fa\u82ef\u7532\u9178", "en_name": ["2-(Benzyloxy)benzoic acid", "Benzoic acid, 2-(phenylmethoxy)-", "Benzoic acid, o-(benzyloxy)-", "2-(Phenylmethoxy)benzoic acid", "Salicylic acid benzyl ether", "2-(Benzyloxy)benzoic acid", "o-(Benzyloxy)benzoic acid", "O-Benzylsalicylic acid", "2-[(Phenylmethyl)oxy]benzoic acid"], "SMILES": "O(CC1=CC=CC=C1)C2=C(C(O)=O)C=CC=C2", "physical_data": {"Molecular Weight": "228.24", "Molecular Formula": "C14H12O3", "Melting Point": "77 \u00b0C"}}