{"cas_no": "1438-16-0", "cn_name": "N-\u6c28\u57fa\u7ed5\u4e39\u5b81", "en_name": ["3-Aminorhodanine", "4-Thiazolidinone, 3-amino-2-thioxo-", "Rhodanine, 3-amino-", "3-Amino-2-thioxo-4-thiazolidinone", "3-Aminorhodanine", "N-Aminorhodanine", "3-Amino-2-thioxo-1,3-thiazolidin-4-one", "NSC 23272", "3-Amino-2-sulfanylidene-1,3-thiazolidin-4-one"], "SMILES": "NN1C(=O)CSC1=S", "physical_data": {"Molecular Weight": "148.21", "Molecular Formula": "C3H4N2OS2", "Melting Point": "92 \u00b0C"}}