{"cas_no": "14381-42-1", "cn_name": "2,3-\u4e8c\u6c22-1H-\u831a-1-\u7fa7\u9178", "en_name": ["2,3-Dihydro-1H-indene-1-carboxylic acid", "1H-Indene-1-carboxylic acid, 2,3-dihydro-", "1-Indancarboxylic acid", "2,3-Dihydro-1H-indene-1-carboxylic acid", "Indane-1-carboxylic acid", "NSC 55335", "Indanyl-1-carboxylic acid"], "SMILES": "C(O)(=O)C1C=2C(CC1)=CC=CC2", "physical_data": {"Molecular Weight": "162.19", "Molecular Formula": "C10H10O2", "Melting Point": "59-60 \u00b0C"}}