{"cas_no": "1438-94-4", "cn_name": "1-(2-\u544b\u5583\u57fa\u7532\u57fa)-1H-\u5421\u54af", "en_name": ["1-Furfurylpyrrole", "1H-Pyrrole, 1-(2-furanylmethyl)-", "Pyrrole, 1-furfuryl-", "1-(2-Furanylmethyl)-1H-pyrrole", "1-Furfurylpyrrole", "N-(2-Furfuryl)pyrrole", "N-Furfurylpyrrole", "1-(2-Furylmethyl)pyrrole", "N-(2-Furylmethyl)-1H-Pyrrole", "1-(Furan-2-ylmethyl)pyrrole"], "SMILES": "C(C1=CC=CO1)N2C=CC=C2", "physical_data": {"Molecular Weight": "147.17", "Molecular Formula": "C9H9NO", "Boiling Point": "76-78 \u00b0C"}}