{"cas_no": "1439-07-2", "cn_name": "\u53cd=\u6c27\u5316\u5421\u70ef", "en_name": ["trans-Stilbene oxide", "Oxirane, 2,3-diphenyl-, (2R,3R)-rel-", "Bibenzyl, \u03b1,\u03b1\u2032-epoxy-, trans-", "Oxirane, 2,3-diphenyl-, trans-", "rel-(2R,3R)-2,3-Diphenyloxirane", "trans-Stilbene oxide", "trans-Stilbene epoxide", "trans-2,3-Diphenyloxirane", "trans-Diphenyl-1,2-epoxyethane", "(E)-Stilbene oxide", "trans-\u03b1,\u03b1\u2032-Epoxybibenzyl", "trans-1,2-Diphenylethylene oxide", "(\u00b1)-trans-Stilbene oxide", "trans-(\u00b1)-2,3-Diphenyloxirane", "(\u00b1)-trans-2,3-Diphenyloxirane", "NSC 100317", "NSC 40295", "(2R,3R)-rel-2,3-Diphenyloxirane", "(E)-Stilbene epoxide"], "SMILES": "C1(C(O1)C2=CC=CC=C2)C3=CC=CC=C3", "physical_data": {"Molecular Weight": "196.24", "Molecular Formula": "C14H12O", "Boiling Point": "118-120 \u00b0C @ Press: 0.5 Torr", "Melting Point": "69-70 \u00b0C"}}