{"cas_no": "14399-37-2", "cn_name": "2-\u6c28\u57fa-3,6-\u4e8c\u6c2f\u5421\u55ea", "en_name": ["3,6-Dichloro-2-pyrazinamine", "2-Pyrazinamine, 3,6-dichloro-", "Pyrazine, 3-amino-2,5-dichloro-", "Pyrazinamine, 3,6-dichloro-", "3,6-Dichloro-2-pyrazinamine", "2-Amino-3,6-dichloropyrazine"], "SMILES": "NC=1C(Cl)=NC=C(Cl)N1", "physical_data": {"Molecular Weight": "163.99", "Molecular Formula": "C4H3Cl2N3", "Melting Point": "140-141 \u00b0C"}}