{"cas_no": "14394-60-6", "cn_name": "2-\u6c2f-4-\u6c28\u57fa-6-\u7532\u57fa\u5627\u5576", "en_name": ["2-Chloro-6-methyl-4-pyrimidinamine", "4-Pyrimidinamine, 2-chloro-6-methyl-", "Pyrimidine, 4-amino-2-chloro-6-methyl-", "2-Chloro-6-methyl-4-pyrimidinamine", "2-Chloro-4-amino-6-methylpyrimidine", "4-Amino-2-chloro-6-methylpyrimidine", "NSC 222758", "2-Chloro-6-methylpyrimidin-4-ylamine", "2-Chloro-6-methylpyrimidin-4-amine"], "SMILES": "CC=1C=C(N)N=C(Cl)N1", "physical_data": {"Molecular Weight": "143.57", "Molecular Formula": "C5H6ClN3", "Melting Point": "215 \u00b0C"}}