{"cas_no": "14396-90-8", "cn_name": "N-(3-\u4e01\u7094)\u90bb\u82ef\u4e8c\u7532\u9170\u4e9a\u80fa", "en_name": ["N-(3-Butynyl)phthalimide", "1H-Isoindole-1,3(2H)-dione, 2-(3-butyn-1-yl)-", "Phthalimide, N-3-butynyl-", "1H-Isoindole-1,3(2H)-dione, 2-(3-butynyl)-", "2-(3-Butyn-1-yl)-1H-isoindole-1,3(2H)-dione", "N-(3-Butynyl)phthalimide", "2-But-3-ynyl-isoindole-1,3-dione", "2-(3-Butynyl)isoindoline-1,3-dione", "2-(But-3-ynyl)isoindoline-1,3-dione", "N-(3-Butyn-1-yl)phthalimide", "2-(But-3-yn-1-yl)-2,3-dihydro-1H-isoindole-1,3-dione"], "SMILES": "O=C1C=2C(C(=O)N1CCC#C)=CC=CC2", "physical_data": {"Molecular Weight": "199.21", "Molecular Formula": "C12H9NO2", "Melting Point": "133-134 \u00b0C"}}