{"cas_no": "1439-36-7", "cn_name": "1-\u4e09\u82ef\u57fa\u81a6-2-\u4e19\u916e", "en_name": ["1-(Triphenylphosphoranylidene)-2-propanone", "2-Propanone, 1-(triphenylphosphoranylidene)-", "2-Propanone, (triphenylphosphoranylidene)-", "1-(Triphenylphosphoranylidene)-2-propanone", "(Acetonylidene)triphenylphosphorane", "(Acetylmethylene)triphenylphosphorane", "Triphenyl(acetylmethylene)phosphorane", "(Triphenylphosphoranylidene)acetone", "(2-Oxopropylidene)triphenylphosphorane", "(Triphenylphosphoranylidene)-2-propanone", "1-(Triphenylphosphoranylidene)acetone", "1-(Triphenylphosphorylidene)-2-propanone", "Methyl (triphenylphosphoranylidene)methyl ketone", "NSC 407394", "3-(Triphenylphosphoranylidene)-2-propanone", "1-(Triphenylphosphanylidene)propan-2-one", "1-(Triphenyl-\u03bb5-phosphanylidene)propan-2-one"], "SMILES": "P(=CC(C)=O)(C1=CC=CC=C1)(C2=CC=CC=C2)C3=CC=CC=C3", "physical_data": {"Molecular Weight": "318.35", "Molecular Formula": "C21H19OP", "Melting Point": "200-202 \u00b0C"}}