{"cas_no": "1439-10-7", "cn_name": "4-\u6c28\u57fa-5-\u6eb4\u5627\u5576", "en_name": ["4-Amino-5-bromopyrimidine", "4-Pyrimidinamine, 5-bromo-", "Pyrimidine, 4-amino-5-bromo-", "5-Bromo-4-pyrimidinamine", "4-Amino-5-bromopyrimidine", "5-Bromopyrimidin-4-amine"], "SMILES": "BrC=1C(N)=NC=NC1", "physical_data": {"Molecular Weight": "174.00", "Molecular Formula": "C4H4BrN3", "Melting Point": "208-210 \u00b0C"}}