{"cas_no": "14392-72-4", "cn_name": "4'-\u7f9f\u57fa\u82ef\u5e9a\u916e", "en_name": ["1-(4-Hydroxyphenyl)-1-heptanone", "1-Heptanone, 1-(4-hydroxyphenyl)-", "Heptanophenone, 4\u2032-hydroxy-", "1-(4-Hydroxyphenyl)-1-heptanone", "p-Hydroxyheptanophenone", "4\u2032-Hydroxyheptanophenone"], "SMILES": "C(CCCCCC)(=O)C1=CC=C(O)C=C1", "physical_data": {"Molecular Weight": "206.28", "Molecular Formula": "C13H18O2", "Boiling Point": "220 \u00b0C @ Press: 15 Torr", "Melting Point": "93-94 \u00b0C"}}