{"cas_no": "144-62-7", "cn_name": "\u8349\u9178", "en_name": ["Oxalic acid", "Ethanedioic acid", "Oxalic acid", "Aktisal", "Aquisal", "NSC 132055", "NSC 151956", "NSC 62774", "NSC 76990", "Ultraplast Activate S 52", "DeerClean", "MeSH ID: D019815"], "SMILES": "C(C(O)=O)(O)=O", "physical_data": {"Molecular Weight": "90.03", "Molecular Formula": "C2H2O4", "Boiling Point": "200 \u00b0C @ Press: 0.1 Torr", "Melting Point": "189.5 \u00b0C (decomp)", "Density": "1.9 g/cm\u00b3"}}