{"cas_no": "144-49-0", "cn_name": "\u6c1f\u4e59\u9178", "en_name": ["Fluoroacetic acid", "Acetic acid, 2-fluoro-", "Acetic acid, fluoro-", "2-Fluoroacetic acid", "Cymonic acid", "Fluoroacetic acid", "Fluoroethanoic acid", "Gifblaar poison", "HFA", "Monofluoroacetic acid", "\u03b1-Fluoroacetic acid", "MeSH ID: D005463"], "SMILES": "C(CF)(O)=O", "physical_data": {"Molecular Weight": "78.04", "Molecular Formula": "C2H3FO2", "Boiling Point": "165 \u00b0C @ Press: 760 Torr", "Melting Point": "35.2 \u00b0C", "Density": "1.3693 g/cm\u00b3 @ Temp: 36 \u00b0C"}}