{"cas_no": "144-90-1", "cn_name": "3-\u6c28\u57fa\u5f02\u4e01\u9178", "en_name": ["\u03b2-Aminoisobutyric acid", "Propanoic acid, 3-amino-2-methyl-", "3-Amino-2-methylpropanoic acid", "\u03b2-Aminoisobutyric acid", "\u03b1-Methyl-\u03b2-alanine", "2-Methyl-3-aminopropionic acid", "3-Aminoisobutyric acid", "2-Methyl-\u03b2-alanine", "3-Amino-2-methylpropionic acid", "DL-2-Methyl-\u03b2-alanine", "(\u00b1)-3-Amino-2-methylpropanoic acid", "(\u00b1)-\u03b2-Aminoisobutyric acid", "(\u00b1)-3-Aminoisobutyric acid", "DL-\u03b2-Aminoisobutyric acid", "DL-3-Amino-2-methylpropionic acid", "DL-3-amino-2-methylpropanoic acid", "DL-3-Aminoisobutyric acid", "(\u00b1)-3-Amino-2-methylpropionic acid"], "SMILES": "C(C(O)=O)(CN)C", "physical_data": {"Molecular Weight": "103.12", "Molecular Formula": "C4H9NO2", "Melting Point": "181-182 \u00b0C"}}