{"cas_no": "144-21-8", "cn_name": "\u7532\u57fa\u80c2\u9178\u4e8c\u94a0", "en_name": ["Disodium methylarsonate", "Arsonic acid, methyl-, disodium salt", "Methanearsonic acid, disodium salt", "DMA 100", "Arrhenal", "Arsinyl", "Arsynal", "Cacodyl New", "Ansar 184", "Cralo-E-rad", "Disodium methanearsonate", "Disodium methylarsonate", "Disomear", "DMA", "DSMA", "Methar", "Somar", "Sodar", "Stenosine", "Tonarsin", "Diarsen", "Tonarsan", "Metharsan", "Metharsinat", "Neo-Asycodile", "Ansar 8100", "Disodium methylarsenate(2-)", "Arifen", "Arsenil", "Methylarsonic acid disodium salt"], "SMILES": "[As](C)(=O)(O)O.[Na]", "physical_data": {"Molecular Weight": "", "Molecular Formula": "CH5AsO3.2Na", "Melting Point": "&gt;355 \u00b0C", "Density": "1.04 g/cm\u00b3"}}