{"cas_no": "144-39-8", "cn_name": "3,7-\u4e8c\u7532\u57fa-1,6-\u8f9b\u4e8c\u70ef-3-\u9187\u4e19\u9178\u916f", "en_name": ["Linalyl propionate", "1,6-Octadien-3-ol, 3,7-dimethyl-, 3-propanoate", "1,6-Octadien-3-ol, 3,7-dimethyl-, propionate", "1,6-Octadien-3-ol, 3,7-dimethyl-, propanoate", "Propionic acid, linalyl ester", "Linalyl propionate", "Linalool propionate", "Linalyl propanoate", "NSC 46139", "(\u00b1)-Linalyl propionate", "3,7-Dimethylocta-1,6-dien-3-yl propanoate"], "SMILES": "C(OC(CC)=O)(CCC=C(C)C)(C=C)C", "physical_data": {"Molecular Weight": "210.31", "Molecular Formula": "C13H22O2", "Boiling Point": "52-54 \u00b0C @ Press: 0.1 Torr"}}