{"cas_no": "144-48-9", "cn_name": "2-\u7898\u4e59\u9170\u80fa", "en_name": ["Iodoacetamide", "Acetamide, 2-iodo-", "Acetamide, iodo-", "2-Iodoacetamide", "\u03b1-Iodoacetamide", "Iodoacetamide", "Monoiodoacetamide", "Surauto", "NSC 9581", "Deltop", "MeSH ID: D007460"], "SMILES": "C(CI)(N)=O", "physical_data": {"Molecular Weight": "184.96", "Molecular Formula": "C2H4INO", "Melting Point": "94.5 \u00b0C"}}