{"cas_no": "144-98-9", "cn_name": "DL-\u522b\u82cf\u6c28\u9178", "en_name": ["Allothreonine", "Allothreonine", "Allothreonine, DL-", "DL-allo-Threonine", "DL-Allothreonine", "Threonine, allo-", "Butanoic acid, 2-amino-3-allo-hydroxy-", "allo-Threonine", "NSC 41828"], "SMILES": "C(C(C)O)(C(O)=O)N", "physical_data": {"Molecular Weight": "119.12", "Molecular Formula": "C4H9NO3", "Melting Point": "245-248 \u00b0C"}}