{"cas_no": "144-83-2", "cn_name": "\u78fa\u80fa\u5421\u5576", "en_name": ["Sulfapyridine", "Benzenesulfonamide, 4-amino-N-2-pyridinyl-", "Sulfanilamide, N1-2-pyridyl-", "Sulfanilamide, N1-2(1H)-pyridylidene-", "Sulfanilamide, N4-2-pyridyl-", "4-Amino-N-2-pyridinylbenzenesulfonamide", "M and B 693", "Adiplon", "Coccoclase", "Dagenan", "Eubasin", "Eubasinum", "Haptocil", "Piridazol", "Plurazol", "N1-2-Pyridylsulfanilamide", "Relbapiridina", "Ronin", "Septipulmon", "Streptosilpyridine", "2-Sulfanilamidopyridine", "Sulfapyridine", "Sulfidine", "Thioseptal", "Trianon", "2-Sulfapyridine", "A-499", "Sulfidin", "Pyriamid", "Pyridazol", "Sulphapyridine", "4-[(2-Pyridylamino)sulfonyl]aniline", "Pirodazole", "NSC 41791", "NSC 4753", "N-(2-Pyridyl)-4-aminobenzenesulfonamide", "MeSH ID: D013427"], "SMILES": "S(NC1=CC=CC=N1)(=O)(=O)C2=CC=C(N)C=C2", "physical_data": {"Molecular Weight": "249.29", "Molecular Formula": "C11H11N3O2S", "Melting Point": "192 \u00b0C"}}