{"cas_no": "144-24-1", "cn_name": "DL-ALFA-\u7532\u57fa\u4eae\u6c28\u9178", "en_name": ["\u03b1-Methyl-DL-leucine", "Leucine, 2-methyl-", "Leucine, 2-methyl-, DL-", "DL-Leucine, 2-methyl-", "2-Methylleucine", "(\u00b1)-2,4-Dimethylnorvaline", "2-Methyl-DL-leucine", "\u03b1-Methyl-DL-leucine", "DL-2-Methylleucine", "Norvaline, 2,4-dimethyl-", "\u03b1-Methylleucine", "2-Amino-2,4-dimethylvaleric acid", "NSC 16592", "2-Amino-2,4-dimethyl-pentanoic acid", "2-Amino-2,4-dimethylpentanoic acid"], "SMILES": "C(CC(C)C)(C(O)=O)(C)N", "physical_data": {"Molecular Weight": "145.20", "Molecular Formula": "C7H15NO2", "Melting Point": "&gt;203 \u00b0C (sublm)"}}