{"cas_no": "144-29-6", "cn_name": "\u54cc\u55ea\u67e0\u6aac\u9178\u76d0\u6c34\u5408\u7269", "en_name": ["Piperazine citrate", "Piperazine, 2-hydroxy-1,2,3-propanetricarboxylate (3:2)", "Piperazine, citrate (3:2)", "Piperazine citrate", "Antepar", "Anthecole", "Antoban", "Arpezine", "Ascarex Syrup", "Exelmin", "Helmezine", "Multifuge Citrate", "Oxucide", "Parazine", "Pin-Tega", "Piperazine Citrate Telra", "Pipizan", "Pipizan Citrate Syrup", "Rhomex", "Ta-Verm", "Vermago", "Piperasol", "Tripiperazine dicitrate", "Multifuge", "Nemadital", "Pinozan", "Exopin", "Bryrel", "Tasnon", "Vermizine (elixir)", "Coliurinal", "Pipizan citrate", "Worm Away", "Patazine", "Citraazine"], "SMILES": "C(CC(O)=O)(CC(O)=O)(C(O)=O)O.C1CNCCN1", "physical_data": {"Molecular Weight": "", "Molecular Formula": "C6H8O7.<sup>3</sup>/2C4H10N2", "Melting Point": "182-187 \u00b0C (decomp)"}}