{"cas_no": "144-79-6", "cn_name": "\u7532\u57fa\u4e8c\u82ef\u57fa\u6c2f\u7845\u70f7", "en_name": ["Chloro(methyl)diphenylsilane", "Benzene, 1,1\u2032-(chloromethylsilylene)bis-", "Silane, chloromethyldiphenyl-", "1,1\u2032-(Chloromethylsilylene)bis[benzene]", "Diphenyl(methyl)chlorosilane", "Methyldiphenylchlorosilane", "Chloro(methyl)diphenylsilane", "Methyldiphenylsilyl chloride", "Chlorodiphenylmethylsilane", "TSL 8066", "Diphenyl(methyl)silyl chloride", "NSC 93961"], "SMILES": "[Si](C)(Cl)(C1=CC=CC=C1)C2=CC=CC=C2", "physical_data": {"Molecular Weight": "232.78", "Molecular Formula": "C13H13ClSi", "Boiling Point": "295 \u00b0C", "Melting Point": "-22 \u00b0C", "Density": "1.128 g/cm\u00b3"}}