{"cas_no": "144-19-4", "cn_name": "2,2,4-\u4e09\u7532\u57fa-1,3-\u620a\u4e8c\u9187", "en_name": ["2,2,4-Trimethyl-1,3-pentanediol", "1,3-Pentanediol, 2,2,4-trimethyl-", "2,2,4-Trimethyl-1,3-pentanediol", "TMPD (alcohol)", "NSC 6368", "Nexcoat 795", "2,2,4-Trimethylpentan-1,3-diol"], "SMILES": "C(C(C(C)C)O)(CO)(C)C", "physical_data": {"Molecular Weight": "146.23", "Molecular Formula": "C8H18O2", "Boiling Point": "234 \u00b0C @ Press: 737 Torr", "Melting Point": "51-52 \u00b0C", "Density": "0.937 g/cm\u00b3 @ Temp: 15 \u00b0C"}}