{"cas_no": "144-80-9", "cn_name": "\u78fa\u80fa\u918b\u9170", "en_name": ["Sulfacetamide", "Acetamide, N-[(4-aminophenyl)sulfonyl]-", "Acetamide, N-sulfanilyl-", "N-[(4-Aminophenyl)sulfonyl]acetamide", "Acetocid", "Albamine", "Albucid", "p-Aminobenzenesulfonacetamide", "Steramide", "Sulamyd", "Sulfacet", "Sulfacetamide", "Sulfacyl", "N-Sulfanilylacetamide", "Urosulfon", "Alesten", "Formosulfacetamide", "Region", "Sulfacetimide", "N-(4-Aminobenzenesulfonyl)acetamide", "A 500", "N1-Acetylsulfanilamide", "Sulphacetamide", "Acetosulfamine", "N\u2032-Acetylsulfanilamide", "N-Acetylsulfanilamide", "Acetosulfamin", "Sulphasil", "N-(p-Aminophenylsulfonyl)acetamide", "4-(Acetylaminosulfonyl)aniline", "Ocusol", "NSC 63871", "MeSH ID: D013409"], "SMILES": "S(NC(C)=O)(=O)(=O)C1=CC=C(N)C=C1", "physical_data": {"Molecular Weight": "214.24", "Molecular Formula": "C8H10N2O3S", "Melting Point": "183 \u00b0C", "Density": "1.416 g/cm\u00b3"}}