{"cas_no": "144-68-3", "cn_name": "\u7389\u7c73\u9ec4\u8d28", "en_name": ["Zeaxanthin", "\u03b2,\u03b2-Carotene-3,3\u2032-diol, (3R,3\u2032R)-", "\u03b2-Carotene-3,3\u2032-diol, (3R,3\u2032R)-all-trans-", "Zeaxanthin", "(3R,3\u2032R)-\u03b2,\u03b2-Carotene-3,3\u2032-diol", "Zeaxanthin, all-trans-", "Xanthophyll 3", "Anchovyxanthin", "Zeaxanthol", "Anchovyxanthin, all-trans-", "all-trans-Anchovyxanthin", "all-trans-Zeaxanthin", "(3R,3\u2032R)-Zeaxanthin", "ZeaGold", "E 161H", "Optisharp", "all-trans-3R,3\u2032R-Zeaxanthin", "Luteinofta", "all-E-Zeaxanthin", "(3R,3\u2032R)-Dihydroxy-\u03b2-carotene", "(3R,3\u2032R)-Dihydroxy-\u03b2-carotene"], "SMILES": "C(=CC(=CC=CC(=CC=CC=C(C=CC=C(C=CC=1C(C)(C)CC(O)CC1C)C)C)C)C)C=2C(C)(C)CC(O)CC2C", "physical_data": {"Molecular Weight": "568.87", "Molecular Formula": "C40H56O2", "Melting Point": "215.5 \u00b0C"}}