{"cas_no": "144-67-2", "cn_name": "\u9178\u6d46\u679c\u7ea2\u7d20", "en_name": ["Zeaxanthin dipalmitate", "\u03b2,\u03b2-Carotene-3,3\u2032-diol, 3,3\u2032-dihexadecanoate, (3R,3\u2032R)-", "\u03b2-Carotene-3,3\u2032-diol, dipalmitate, all-trans-", "\u03b2,\u03b2-Carotene-3,3\u2032-diol, dihexadecanoate, (3R,3\u2032R)-", "Zeaxanthin dipalmitate", "Physalien", "Physalien, all-trans-", "Physaliene", "all-trans-Physalien", "(3R,3\u2032R)-\u03b2-Carotene-3,3\u2032-diyl dipalmitate", "(all-E)-Zeaxanthin dipalmitate"], "SMILES": "C(=CC(=CC=CC(=CC=CC=C(C=CC=C(C=CC=1C(C)(C)CC(OC(CCCCCCCCCCCCCCC)=O)CC1C)C)C)C)C)C=2C(C)(C)CC(OC(CCCCCCCCCCCCCCC)=O)CC2C", "physical_data": {"Molecular Weight": "1045.69", "Molecular Formula": "C72H116O4", "Melting Point": "99 \u00b0C"}}