{"cas_no": "144-82-1", "cn_name": "\u78fa\u80fa\u7532\u567b\u4e8c\u5511", "en_name": ["Sulfamethizole", "Benzenesulfonamide, 4-amino-N-(5-methyl-1,3,4-thiadiazol-2-yl)-", "Sulfanilamide, N1-(5-methyl-1,3,4-thiadiazol-2-yl)-", "4-Amino-N-(5-methyl-1,3,4-thiadiazol-2-yl)benzenesulfonamide", "Ayerlucil", "Lucosil", "5-Methyl-2-sulfanilamido-1,3,4-thiadiazole", "N1-(5-Methyl-1,3,4-thiadiazol-2-yl)sulfanilamide", "Microsul", "Rufol", "Sulfamethizol", "Sulfamethizole", "Sulfamethylthiadiazole", "2-Sulfanilamido-5-methyl-1,3,4-thiadiazole", "Sulfstat", "Sulfurine", "Tetracid", "Thidicur", "Thiosulfil", "Ultrasul", "Urodiaton", "Urolucosil", "Urocydal", "Sulphamethizole", "Sulfamethiazole", "2-Methyl-5-sulfanilamido-1,3,4-thiadiazole", "Urosulfin", "VK 53", "Renasul", "Sulfapyelon", "Methazol", "Famet", "Salimol", "Thiosulfil Forte", "N-(5-Methyl-1,3,4-thiadiazol-2-yl)-4-aminobenzenesulfonamide", "MeSH ID: D013419"], "SMILES": "S(NC=1SC(C)=NN1)(=O)(=O)C2=CC=C(N)C=C2", "physical_data": {"Molecular Weight": "270.33", "Molecular Formula": "C9H10N4O2S2", "Melting Point": "208 \u00b0C"}}