{"cas_no": "144-11-6", "cn_name": "\u82ef\u6d77\u7d22", "en_name": ["(\u00b1)-Trihexyphenidyl", "1-Piperidinepropanol, \u03b1-cyclohexyl-\u03b1-phenyl-", "\u03b1-Cyclohexyl-\u03b1-phenyl-1-piperidinepropanol", "Benzhexol", "Trihexyphenidyl", "(\u00b1)-Trihexyphenidyl", "(\u00b1)-Benzhexol", "(\u00b1)-Triphenidyl", "NSC 12268", "1-Cyclohexyl-1-phenyl-3-piperidin-1-ylpropan-1-ol", "1-Cyclohexyl-1-phenyl-3-(piperidin-1-yl)propan-1-ol", "MeSH ID: D014282"], "SMILES": "C(CCN1CCCCC1)(O)(C2CCCCC2)C3=CC=CC=C3", "physical_data": {"Molecular Weight": "301.47", "Molecular Formula": "C20H31NO", "Melting Point": "114.3-115.0 \u00b0C"}}