{"cas_no": "14405-03-9", "cn_name": "2-\u6c2f\u4e59\u9170\u6c28\u57fa-2',5-\u4e8c\u6c2f\u4e8c\u82ef\u7532\u916e", "en_name": ["2-Chloro-N-[4-chloro-2-(2-chlorobenzoyl)phenyl]acetamide", "Acetamide, 2-chloro-N-[4-chloro-2-(2-chlorobenzoyl)phenyl]-", "Acetanilide, 2,4\u2032-dichloro-2\u2032-(o-chlorobenzoyl)-", "2-Chloro-N-[4-chloro-2-(2-chlorobenzoyl)phenyl]acetamide", "Ro 97-1274"], "SMILES": "C(=O)(C1=C(NC(CCl)=O)C=CC(Cl)=C1)C2=C(Cl)C=CC=C2", "physical_data": {"Molecular Weight": "342.60", "Molecular Formula": "C15H10Cl3NO2", "Melting Point": "157-159 \u00b0C"}}