{"cas_no": "144072-30-0", "cn_name": "4-\u7532\u9170\u57fa\u82ef\u57fa\u6c28\u57fa\u7532\u9178\u53d4\u4e01\u916f", "en_name": ["1,1-Dimethylethyl N-(4-formylphenyl)carbamate", "Carbamic acid, N-(4-formylphenyl)-, 1,1-dimethylethyl ester", "Carbamic acid, (4-formylphenyl)-, 1,1-dimethylethyl ester", "1,1-Dimethylethyl N-(4-formylphenyl)carbamate", "(4-Formylphenyl)carbamic acid tert-butyl ester", "tert-Butyl 4-formylphenylcarbamate", "N-Boc-p-aminobenzaldehyde", "4-(tert-Butoxycarbonylamino)benzaldehyde", "tert-Butyl N-(4-formylphenyl)carbamate"], "SMILES": "N(C(OC(C)(C)C)=O)C1=CC=C(C=O)C=C1", "physical_data": {"Molecular Weight": "221.25", "Molecular Formula": "C12H15NO3", "Melting Point": "130-132 \u00b0C"}}