{"cas_no": "14405-45-9", "cn_name": "2,4-\u620a\u4e8c\u9178\u94df", "en_name": ["Indium acetylacetonate", "Indium, tris(2,4-pentanedionato-\u03baO2,\u03baO4)-, (OC-6-11)-", "Indium, tris(2,4-pentanedionato)-", "Indium, tris(2,4-pentanedionato-O,O\u2032)-, (OC-6-11)-", "Indium, tris(2,4-pentanedionato-\u03baO,\u03baO\u2032)-, (OC-6-11)-", "(OC-6-11)-Tris(2,4-pentanedionato-\u03baO2,\u03baO4)indium", "Indium acetylacetonate", "Tris(2,4-pentanedionato)indium", "Indium tris(acetylacetonate)", "Tris(acetylacetonato)indium", "Nacem Indium", "NSC 166829", "Indium(III) acetylacetonate"], "SMILES": "CC1=O[In+3]23(O=C(C)[CH-]C(C)=O2)(O=C(C)[CH-]C(C)=O3)O=C(C)[CH-]1", "physical_data": {"Molecular Weight": "", "Molecular Formula": "C15H21InO6", "Boiling Point": "260-280 \u00b0C", "Melting Point": "186 \u00b0C", "Density": "1.410 g/cm\u00b3"}}