{"cas_no": "1440-60-4", "cn_name": "2-\u6c2f-1-\u54cc\u5576-1-\u57fa\u4e59\u916e", "en_name": ["2-Chloro-1-(1-piperidinyl)ethanone", "Ethanone, 2-chloro-1-(1-piperidinyl)-", "Piperidine, 1-(chloroacetyl)-", "2-Chloro-1-(1-piperidinyl)ethanone", "1-(Chloroacetyl)piperidine", "\u03b1-Chloroacetopiperidide", "N-(Chloroacetyl)piperidine", "Chloroacetic acid piperidine amide", "NSC 8198", "1-(2-Chloroacetyl)piperidine", "2-Chloro-1-(piperidin-1-yl)ethanone", "2-Chloro-1-(piperidin-1-yl)ethan-1-one", "2-Chloro-1-(piperidinyl)ethanone"], "SMILES": "C(CCl)(=O)N1CCCCC1", "physical_data": {"Molecular Weight": "161.63", "Molecular Formula": "C7H12ClNO", "Boiling Point": "143.5-145.5 \u00b0C @ Press: 12.5 Torr", "Melting Point": "213-215 \u00b0C", "Density": "1.1703 g/cm\u00b3 @ Temp: 20 \u00b0C"}}