{"cas_no": "14400-67-0", "cn_name": "2,5-\u4e8c\u7532\u57fa-3(2H)-\u544b\u5583\u916e", "en_name": ["2,5-Dimethyl-3(2H)furanone", "3(2H)-Furanone, 2,5-dimethyl-", "2,5-Dimethyl-3(2H)-furanone", "2,5-Dimethyl-2H-furan-3-one", "2,3-Dihydro-2,5-dimethyl-3-furanone", "2,5-Dimethyl-2,3-dihydrofuran-3-one", "2,5-Dimethyl-3(2H)furanone", "2,5-Dimethylfuran-3-one"], "SMILES": "O=C1C(C)OC(C)=C1", "physical_data": {"Molecular Weight": "112.13", "Molecular Formula": "C6H8O2", "Boiling Point": "70-72 \u00b0C @ Press: 13 Torr"}}