{"cas_no": "144026-79-9", "cn_name": "\u4e09\u6c1f\u7532\u70f7\u78fa\u9178\u94aa", "en_name": ["Scandium triflate", "Methanesulfonic acid, 1,1,1-trifluoro-, scandium(3+) salt (3:1)", "Methanesulfonic acid, trifluoro-, scandium(3+) salt", "Scandium(III) trifluoromethanesulfonate", "Scandium triflate", "Scandium tris(trifluoromethanesulfonate)", "Scandium trifluoromethanesulfonate", "Scandium(3+) triflate", "Trifluoromethanesulfonic acid scandium(3+) salt", "Scandium(III) triflate", "Scandium triflate Sc(OTf)3", "Sc(otf)3"], "SMILES": "C(S(=O)(=O)O)(F)(F)F.[Sc]", "physical_data": {"Molecular Weight": "", "Molecular Formula": "CHF3O3S.<sup>1</sup>/3Sc", "Melting Point": "9 \u00b0C"}}