{"cas_no": "1440-61-5", "cn_name": "2-\u6c2f-1-\u5417\u7433\u4e59-1-\u916e", "en_name": ["4-(Chloroacetyl)morpholine", "Ethanone, 2-chloro-1-(4-morpholinyl)-", "Morpholine, 4-(chloroacetyl)-", "2-Chloro-1-(4-morpholinyl)ethanone", "N-(Chloroacetyl)morpholine", "4-(Chloroacetyl)morpholine", "Chloroacetic acid morpholide", "4-Morpholinylcarbonylmethyl chloride", "4-(2-Chloroacetyl)morpholine", "2-Morpholino-2-oxoethyl chloride", "2-Chloro-1-morpholino-1-ethanone", "Chloroacetic acid morpholine amide", "2-Chloro-1-(morpholin-4-yl)ethanone", "NSC 54542", "2-Chloro-1-morpholinoethanone", "2-Chloro-1-(morpholin-4-yl)ethan-1-one"], "SMILES": "C(CCl)(=O)N1CCOCC1", "physical_data": {"Molecular Weight": "163.60", "Molecular Formula": "C6H10ClNO2", "Boiling Point": "152-160 \u00b0C @ Press: 6 Torr", "Density": "1.2782 g/cm\u00b3 @ Temp: 20 \u00b0C"}}