{"cas_no": "1440-00-2", "cn_name": "2,6-(2,4-\u4e8c\u7f9f\u57fa\u82ef\u57fa)-4-(4-\u7532\u6c27\u57fa\u82ef\u57fa)- [1,3,5 ]\u4e09\u55ea", "en_name": ["4,4\u2032-[6-(4-Methoxyphenyl)-1,3,5-triazine-2,4-diyl]bis[1,3-benzenediol]", "1,3-Benzenediol, 4,4\u2032-[6-(4-methoxyphenyl)-1,3,5-triazine-2,4-diyl]bis-", "Resorcinol, 4,4\u2032-[6-(p-methoxyphenyl)-s-triazine-2,4-diyl]di-", "4,4\u2032-[6-(4-Methoxyphenyl)-1,3,5-triazine-2,4-diyl]bis[1,3-benzenediol]", "2,4-Bis(2,4-dihydroxyphenyl)-6-(4-methoxyphenyl)-1,3,5-triazine"], "SMILES": "OC1=C(C=2N=C(N=C(N2)C3=CC=C(OC)C=C3)C4=C(O)C=C(O)C=C4)C=CC(O)=C1", "physical_data": {"Molecular Weight": "403.39", "Molecular Formula": "C22H17N3O5", "Melting Point": "&gt;360 \u00b0C"}}