{"cas_no": "14401-75-3", "cn_name": "3',5'-\u4e8c\u785d\u57fa\u82ef\u4e59\u916e", "en_name": ["1-(3,5-Dinitrophenyl)ethanone", "Ethanone, 1-(3,5-dinitrophenyl)-", "Acetophenone, 3\u2032,5\u2032-dinitro-", "1-(3,5-Dinitrophenyl)ethanone", "3,5-Dinitroacetophenone", "3\u2032,5\u2032-Dinitroacetophenone", "NSC 87635"], "SMILES": "C(C)(=O)C1=CC(N(=O)=O)=CC(N(=O)=O)=C1", "physical_data": {"Molecular Weight": "210.14", "Molecular Formula": "C8H6N2O5", "Melting Point": "74-76 \u00b0C"}}