{"cas_no": "14401-10-6", "cn_name": "N\u0395-(2,4-\u4e8c\u785d\u57fa\u82ef\u57fa)-L-\u8d56\u6c28\u9178\u76d0\u9178\u76d0", "en_name": ["L-Lysine, N6-(2,4-dinitrophenyl)-, hydrochloride (1:1)", "L-Lysine, N6-(2,4-dinitrophenyl)-, hydrochloride (1:1)", "Lysine, N6-(2,4-dinitrophenyl)-, monohydrochloride, L-", "L-Lysine, N6-(2,4-dinitrophenyl)-, monohydrochloride", "N6-(2,4-Dinitrophenyl)-L-lysine hydrochloride", "NSC 83262"], "SMILES": "N(CCCCC(C(O)=O)N)C1=C(N(=O)=O)C=C(N(=O)=O)C=C1.Cl", "physical_data": {"Molecular Weight": "", "Molecular Formula": "C12H16N4O6.ClH", "Melting Point": "103-105 \u00b0C"}}