{"cas_no": "14401-73-1", "cn_name": "3,5-\u4e8c\u6eb4\u82ef\u4e59\u916e", "en_name": ["1-(3,5-Dibromophenyl)ethanone", "Ethanone, 1-(3,5-dibromophenyl)-", "Acetophenone, 3\u2032,5\u2032-dibromo-", "1-(3,5-Dibromophenyl)ethanone", "3,5-Dibromoacetophenone", "3\u2032,5\u2032-Dibromoacetophenone"], "SMILES": "C(C)(=O)C1=CC(Br)=CC(Br)=C1", "physical_data": {"Molecular Weight": "277.94", "Molecular Formula": "C8H6Br2O", "Boiling Point": "160-164 \u00b0C @ Press: 1-2 Torr", "Melting Point": "66 \u00b0C"}}