{"cas_no": "144034-80-0", "cn_name": "\u5229\u624e\u66f2\u5766", "en_name": ["Rizatriptan", "1H-Indole-3-ethanamine, N,N-dimethyl-5-(1H-1,2,4-triazol-1-ylmethyl)-", "N,N-Dimethyl-5-(1H-1,2,4-triazol-1-ylmethyl)-1H-indole-3-ethanamine", "MK 462 free base", "Rizatriptan", "Risatriptan", "N,N-Dimethyl-2-[5-(1H-1,2,4-triazol-1-ylmethyl)-1H-indol-3-yl]ethylamine", "3-[2-(Dimethylamino)ethyl]-5-(1H-1,2,4-triazol-1-ylmethyl)indole", "2-(5-((1H-1,2,4-Triazol-1-yl)methyl)-1H-indol-3-yl)-N,N-dimethylethanamine"], "SMILES": "C(CN(C)C)C=1C=2C(NC1)=CC=C(CN3C=NC=N3)C2", "physical_data": {"Molecular Weight": "269.34", "Molecular Formula": "C15H19N5", "Melting Point": "122-124 \u00b0C"}}