{"cas_no": "14401-51-5", "cn_name": "4-\u6c2f\u82ef\u7532\u8112\u76d0\u9178\u76d0", "en_name": ["Benzenecarboximidamide, 4-chloro-, hydrochloride (1:1)", "Benzenecarboximidamide, 4-chloro-, hydrochloride (1:1)", "Benzamidine, p-chloro-, monohydrochloride", "Benzenecarboximidamide, 4-chloro-, monohydrochloride", "Benzamidine, p-chloro-, hydrochloride", "4-Chlorobenzamidine hydrochloride", "p-Chlorobenzamidine hydrochloride", "4-Chlorophenylamidine hydrochloride", "4-Chlorobenzenecarboximidamide monohydrochloride", "4-Chlorobenzenecarboximidamide hydrochloride"], "SMILES": "C(=N)(N)C1=CC=C(Cl)C=C1.Cl", "physical_data": {"Molecular Weight": "", "Molecular Formula": "C7H7ClN2.ClH", "Melting Point": "241-242 \u00b0C"}}