{"cas_no": "144171-61-9", "cn_name": "\u831a\u866b\u5a01", "en_name": ["(\u00b1)-Indoxacarb", "Indeno[1,2-e][1,3,4]oxadiazine-4a(3H)-carboxylic acid, 7-chloro-2,5-dihydro-2-[[(methoxycarbonyl)[4-(trifluoromethoxy)phenyl]amino]carbonyl]-, methyl ester", "DPX-MP 062", "DPX-JW 062", "Tornado 10FL", "Tornado", "(\u00b1)-Indoxacarb"], "SMILES": "C(OC)(=O)C12C(C=3C(C1)=CC(Cl)=CC3)=NN(C(N(C(OC)=O)C4=CC=C(OC(F)(F)F)C=C4)=O)CO2", "physical_data": {"Molecular Weight": "527.83", "Molecular Formula": "C22H17ClF3N3O7", "Melting Point": "140.5 \u00b0C"}}