{"cas_no": "144120-54-7", "cn_name": "N-\u82b4\u7532\u6c27\u7fb0\u57fa-L-\u8c37\u6c28\u9178 1-\u70ef\u4e19\u57fa\u916f", "en_name": ["1-(2-Propen-1-yl) hydrogen N-[(9H-fluoren-9-ylmethoxy)carbonyl]-L-glutamate", "L-Glutamic acid, N-[(9H-fluoren-9-ylmethoxy)carbonyl]-, 1-(2-propen-1-yl) ester", "L-Glutamic acid, N-[(9H-fluoren-9-ylmethoxy)carbonyl]-, 1-(2-propenyl) ester", "1-(2-Propen-1-yl) hydrogen N-[(9H-fluoren-9-ylmethoxy)carbonyl]-L-glutamate", "(4S)-4-(9H-Fluoren-9-ylmethoxycarbonylamino)-5-oxo-5-prop-2-enoxypentanoic acid"], "SMILES": "C(OC(NC(C(OCC=C)=O)CCC(O)=O)=O)C1C=2C(C=3C1=CC=CC3)=CC=CC2", "physical_data": {"Molecular Weight": "409.43", "Molecular Formula": "C23H23NO6", "Melting Point": "118-119 \u00b0C"}}