{"cas_no": "144172-24-7", "cn_name": "5-\u6c2f-2-\u7532\u6c27\u7fb0\u57fa-2-\u7f9f\u57fa-1-\u831a\u916e", "en_name": ["1H-Indene-2-carboxylic acid, 5-chloro-2,3-dihydro-2-hydroxy-1-oxo-, methyl ester", "1H-Indene-2-carboxylic acid, 5-chloro-2,3-dihydro-2-hydroxy-1-oxo-, methyl ester", "Methyl 5-chloro-2,3-dihydro-2-hydroxy-1-oxo-1H-indene-2-carboxylate", "5-Chloro-1,3-dihydro-2-hydroxy-1-oxo-2H-indene-2-carboxylic acid methyl ester"], "SMILES": "C(OC)(=O)C1(O)C(=O)C=2C(C1)=CC(Cl)=CC2", "physical_data": {"Molecular Weight": "240.64", "Molecular Formula": "C11H9ClO4", "Melting Point": "132-133 \u00b0C"}}