{"cas_no": "14419-11-5", "cn_name": "\u5965\u785d\u5511\u5f02\u6784\u4f53", "en_name": ["1-(3-Chloro-2-hydroxypropyl)-2-methyl-4-nitroimidazole", "1H-Imidazole-1-ethanol, \u03b1-(chloromethyl)-2-methyl-4-nitro-", "Imidazole-1-ethanol, \u03b1-(chloromethyl)-2-methyl-4-nitro-", "\u03b1-(Chloromethyl)-2-methyl-4-nitro-1H-imidazole-1-ethanol", "1-(3-Chloro-2-hydroxypropyl)-2-methyl-4-nitroimidazole", "1-Chloro-3-(2-methyl-4-nitroimidazol-1-yl)propan-2-ol"], "SMILES": "C(C(CCl)O)N1C(C)=NC(N(=O)=O)=C1", "physical_data": {"Molecular Weight": "219.63", "Molecular Formula": "C7H10ClN3O3", "Melting Point": "151-153 \u00b0C"}}