{"cas_no": "14426-21-2", "cn_name": "\u4e8c\u4e59\u9187\u80fa\u76d0\u9178\u76d0", "en_name": ["Diethanolamine hydrochloride", "Ethanol, 2,2\u2032-iminobis-, hydrochloride (1:1)", "Ethanol, 2,2\u2032-iminodi-, hydrochloride", "Ethanol, 2,2\u2032-iminobis-, hydrochloride", "Diethanolamine hydrochloride", "Diethanolamine hydrochloric acid salt", "Diethanolammonium chloride", "Di(\u03b2-hydroxyethyl)amine hydrochloride"], "SMILES": "N(CCO)CCO.Cl", "physical_data": {"Molecular Weight": "", "Molecular Formula": "C4H11NO2.ClH", "Melting Point": "-26 \u00b0C", "Density": "1.24 g/cm\u00b3"}}