{"cas_no": "14425-64-0", "cn_name": "4-(2-\u6eb4\u4e59\u57fa)\u82ef\u7532\u919a", "en_name": ["1-(2-Bromoethyl)-4-methoxybenzene", "Benzene, 1-(2-bromoethyl)-4-methoxy-", "Anisole, p-(2-bromoethyl)-", "1-(2-Bromoethyl)-4-methoxybenzene", "p-Methoxyphenethyl bromide", "4-Methoxyphenethyl bromide", "p-(2-Bromoethyl)anisole", "p-Methoxyphenylethyl bromide", "1-Bromo-2-(4-methoxyphenyl)ethane", "2-(4-Methoxyphenyl)ethyl bromide", "NSC 211474"], "SMILES": "C(CBr)C1=CC=C(OC)C=C1", "physical_data": {"Molecular Weight": "215.09", "Molecular Formula": "C9H11BrO", "Boiling Point": "130-131 \u00b0C @ Press: 11 Torr", "Melting Point": "160-200 \u00b0C", "Density": "1.3872 g/cm\u00b3 @ Temp: 27 \u00b0C"}}