{"cas_no": "14426-20-1", "cn_name": "N,N-\u4e8c\u4e59\u57fa\u4e59\u9187\u80fa\u76d0\u9178\u76d0", "en_name": ["Ethanol, 2-(diethylamino)-, hydrochloride (1:1)", "Ethanol, 2-(diethylamino)-, hydrochloride (1:1)", "Ethanol, 2-(diethylamino)-, hydrochloride", "2-(Diethylamino)ethanol hydrochloride", "Dehydasal", "Perdilaton", "(Diethylamino)ethanol hydrochloride"], "SMILES": "N(CCO)(CC)CC.Cl", "physical_data": {"Molecular Weight": "", "Molecular Formula": "C6H15NO.ClH", "Melting Point": "135-136 \u00b0C"}}