{"cas_no": "14439-71-5", "cn_name": "N-(2-\u82ef\u7532\u9170\u82ef\u57fa)-2-\u6eb4\u4e59\u9170\u80fa", "en_name": ["N-(2-Benzoylphenyl)-2-bromoacetamide", "Acetamide, N-(2-benzoylphenyl)-2-bromo-", "Acetanilide, 2\u2032-benzoyl-2-bromo-", "N-(2-Benzoylphenyl)-2-bromoacetamide"], "SMILES": "C(=O)(C1=C(NC(CBr)=O)C=CC=C1)C2=CC=CC=C2", "physical_data": {"Molecular Weight": "318.17", "Molecular Formula": "C15H12BrNO2", "Melting Point": "94-95 \u00b0C"}}