{"cas_no": "14436-32-9", "cn_name": "9-\u7678\u70ef\u9178", "en_name": ["9-Decenoic acid", "9-Decenoic acid", "Caproleic acid"], "SMILES": "C(CCCCC=C)CCC(O)=O", "physical_data": {"Molecular Weight": "170.25", "Molecular Formula": "C10H18O2", "Boiling Point": "142 \u00b0C @ Press: 4 Torr", "Melting Point": "&lt;0 \u00b0C"}}