{"cas_no": "1443-80-7", "cn_name": "\u5bf9\u6c30\u57fa\u82ef\u4e59\u916e", "en_name": ["4-Acetylbenzonitrile", "Benzonitrile, 4-acetyl-", "Benzonitrile, p-acetyl-", "4-Acetylbenzonitrile", "p-Cyanoacetophenone", "4-Cyanoacetophenone", "4\u2032-Cyanoacetophenone", "4-Cyanophenyl methyl ketone", "p-Acetylbenzonitrile", "Methyl p-cyanophenyl ketone", "p-Cyanophenyl methyl ketone", "1-(4-Cyanophenyl)ethanone", "1-Acetyl-4-benzonitrile", "Methyl 4-cyanophenyl ketone"], "SMILES": "C(C)(=O)C1=CC=C(C#N)C=C1", "physical_data": {"Molecular Weight": "145.16", "Molecular Formula": "C9H7NO", "Boiling Point": "117 \u00b0C @ Press: 4 Torr", "Melting Point": "57-58 \u00b0C"}}