{"cas_no": "14432-16-7", "cn_name": "2-\u6c2f-4-\u785d\u57fa\u5421\u5576 N-\u6c27\u5316\u7269", "en_name": ["2-Chloro-4-nitropyridine N-oxide", "Pyridine, 2-chloro-4-nitro-, 1-oxide", "2-Chloro-4-nitropyridine N-oxide", "NSC 527701", "2-Chloro-4-nitropyridine 1-oxide", "2-Chloro-4-nitropyridin-1-ium-1-olate", "2-Chloro-4-nitro-1-oxidopyridin-1-ium"], "SMILES": "N(=O)(=O)C=1C=C(Cl)N(=O)=CC1", "physical_data": {"Molecular Weight": "174.54", "Molecular Formula": "C5H3ClN2O3", "Melting Point": "140-143 \u00b0C"}}