{"cas_no": "14434-47-0", "cn_name": "\u4e09(2,2,6,6-\u56db\u7532\u57fa-3,5-\u5e9a\u4e8c\u916e)(\u2162)", "en_name": ["(OC-6-11)-Tris(2,2,6,6-tetramethyl-3,5-heptanedionato-\u03baO3,\u03baO5)chromium", "Chromium, tris(2,2,6,6-tetramethyl-3,5-heptanedionato-\u03baO3,\u03baO5)-, (OC-6-11)-", "Chromium, tris(2,2,6,6-tetramethyl-3,5-heptanedionato-O,O\u2032)-, (OC-6-11)-", "Chromium, tris(2,2,6,6-tetramethyl-3,5-heptanedionato)-", "Chromium, tris(2,2,6,6-tetramethyl-3,5-heptanedionato-\u03baO,\u03baO\u2032)-, (OC-6-11)-", "3,5-Heptanedione, 2,2,6,6-tetramethyl-, chromium complex", "(OC-6-11)-Tris(2,2,6,6-tetramethyl-3,5-heptanedionato-\u03baO3,\u03baO5)chromium", "Tris(dipivaloylmethanato)chromium", "Tris(2,2,6,6-tetramethyl-3,5-heptanedionato)chromium", "Chromium(III) 2,2,6,6-tetramethyl-3,5-heptanedionate", "Chromium tris(2,2,6,6-tetramethyl-3,5-heptanedionate)", "Chromium tris(dipivaloylmethanate)", "Chromium tris(2,2,6,6-tetramethyl-3,5-heptadionate)"], "SMILES": "C(C)(C)(C)C1=O[Cr+3]23(O=C(C(C)(C)C)[CH-]C(C(C)(C)C)=O2)(O=C(C(C)(C)C)[CH-]C(C(C)(C)C)=O3)O=C(C(C)(C)C)[CH-]1", "physical_data": {"Molecular Weight": "", "Molecular Formula": "C33H57CrO6", "Melting Point": "127 \u00b0C (sublm) @ Press: 0.8 Torr"}}