{"cas_no": "14435-88-2", "cn_name": "2,6-\u53cc(\u5bf9-\u7532\u57fa\u82ef)\u5421\u5576", "en_name": ["2,6-Bis(4-methylphenyl)pyridine", "Pyridine, 2,6-bis(4-methylphenyl)-", "Pyridine, 2,6-di-p-tolyl-", "2,6-Bis(4-methylphenyl)pyridine", "2,6-Di(4\u2032-methylphenyl)pyridine", "2,6-Di-(4-methylphenyl)pyridine"], "SMILES": "CC1=CC=C(C=2N=C(C=CC2)C3=CC=C(C)C=C3)C=C1", "physical_data": {"Molecular Weight": "259.35", "Molecular Formula": "C19H17N", "Melting Point": "163-166 \u00b0C"}}