{"cas_no": "1443-76-1", "cn_name": "3,5-\u4e8c\u7532\u6c27\u57fa-4-\u7f9f\u57fa\u82ef\u9170\u80bc", "en_name": ["4-Hydroxy-3,5-dimethoxybenzoic acid hydrazide", "Benzoic acid, 4-hydroxy-3,5-dimethoxy-, hydrazide", "4-Hydroxy-3,5-dimethoxybenzoic acid hydrazide", "3,5-Dimethoxy-4-hydroxybenzoic acid hydrazide", "NSC 77902"], "SMILES": "C(NN)(=O)C1=CC(OC)=C(O)C(OC)=C1", "physical_data": {"Molecular Weight": "212.20", "Molecular Formula": "C9H12N2O4", "Melting Point": "210-215 \u00b0C"}}