{"cas_no": "14433-76-2", "cn_name": "N,N-\u4e8c\u7532\u57fa\u7678\u9170\u80fa", "en_name": ["N,N-Dimethyldecanamide", "Decanamide, N,N-dimethyl-", "N,N-Dimethyldecanamide", "N,N-Dimethylcapramide", "NSC 131411", "Spectrasolv DMDA", "Hallcomid M 10", "Agnique AMD 10", "Agnique KE 3308", "Armid DM 10", "S 42710"], "SMILES": "C(C(N(C)C)=O)CCCCCCCC", "physical_data": {"Molecular Weight": "199.33", "Molecular Formula": "C12H25NO", "Boiling Point": "123 \u00b0C @ Press: 25 Torr"}}