{"cas_no": "14437-03-7", "cn_name": "\u7532\u57fa\u5bf9\u7532\u6c28\u57fa\u7532\u9178\u7532\u916f", "en_name": ["Methyl N-[(4-methylphenyl)sulfonyl]carbamate", "Carbamic acid, N-[(4-methylphenyl)sulfonyl]-, methyl ester", "Carbamic acid, (p-tolylsulfonyl)-, methyl ester", "Carbamic acid, [(4-methylphenyl)sulfonyl]-, methyl ester", "Methyl N-[(4-methylphenyl)sulfonyl]carbamate", "Methyl N-(p-tosyl)carbamate", "Methyl N-(p-toluenesulfonyl)carbamate", "Methyl N-tosylcarbamate", "Methyl tosylcarbamate"], "SMILES": "S(NC(OC)=O)(=O)(=O)C1=CC=C(C)C=C1", "physical_data": {"Molecular Weight": "229.25", "Molecular Formula": "C9H11NO4S", "Melting Point": "115 \u00b0C"}}