{"cas_no": "14430-23-0", "cn_name": "5,6-\u4e8c\u7532\u6c27\u57fa\u5432\u54da", "en_name": ["5,6-Dimethoxyindole", "1H-Indole, 5,6-dimethoxy-", "Indole, 5,6-dimethoxy-", "5,6-Dimethoxy-1H-indole", "5,6-Dimethoxyindole", "5,6-Methoxyindole"], "SMILES": "O(C)C=1C=C2C(=CC1OC)NC=C2", "physical_data": {"Molecular Weight": "177.20", "Molecular Formula": "C10H11NO2", "Melting Point": "149-152 \u00b0C"}}