{"cas_no": "14432-12-3", "cn_name": "2-\u6c2f-4-\u6c28\u57fa\u5421\u5576", "en_name": ["4-Amino-2-chloropyridine", "4-Pyridinamine, 2-chloro-", "Pyridine, 4-amino-2-chloro-", "2-Chloro-4-pyridinamine", "4-Amino-2-chloropyridine", "2-Chloro-4-aminopyridine", "(2-Chloropyridin-4-yl)amine", "2-Chloropyridin-4-amine"], "SMILES": "NC=1C=C(Cl)N=CC1", "physical_data": {"Molecular Weight": "128.56", "Molecular Formula": "C5H5ClN2", "Melting Point": "91-91.5 \u00b0C"}}