{"cas_no": "14447-15-5", "cn_name": "\u6c30\u4e59\u9178\u6b63\u4e19\u916f", "en_name": ["Propyl cyanoacetate", "Acetic acid, 2-cyano-, propyl ester", "Acetic acid, cyano-, propyl ester", "Propyl cyanoacetate", "n-Propyl cyanoacetate", "Cyanoacetic acid propyl ester", "Propyl 2-cyanoacetate"], "SMILES": "C(OCCC)(CC#N)=O", "physical_data": {"Molecular Weight": "127.14", "Molecular Formula": "C6H9NO2", "Boiling Point": "216-216.5 \u00b0C @ Press: 754 Torr", "Density": "1.0249 g/cm\u00b3 @ Temp: 20 \u00b0C"}}