{"cas_no": "144490-03-9", "cn_name": "\u56db\u4e59\u9170\u6838\u7cd6", "en_name": ["\u03b2-L-Ribofuranose, 1,2,3,5-tetraacetate", "\u03b2-L-Ribofuranose, 1,2,3,5-tetraacetate", "\u03b2-L-Ribofuranose, tetraacetate", "1,2,3,5-Tetra-O-acetyl--L-ribofuranose"], "SMILES": "O(C(C)=O)C1C(OC(C)=O)C(OC(C)=O)OC1COC(C)=O", "physical_data": {"Molecular Weight": "318.28", "Molecular Formula": "C13H18O9", "Melting Point": "57-59 \u00b0C"}}