{"cas_no": "1444-65-1", "cn_name": "2-\u82ef\u57fa\u73af\u5df2\u916e", "en_name": ["2-Phenylcyclohexanone", "Cyclohexanone, 2-phenyl-", "2-Phenylcyclohexanone", "\u03b1-Phenylcyclohexanone", "2-Phenyl-1-cyclohexanone", "(\u00b1)-2-Phenylcyclohexanone", "NSC 22252"], "SMILES": "O=C1C(C2=CC=CC=C2)CCCC1", "physical_data": {"Molecular Weight": "174.24", "Molecular Formula": "C12H14O", "Boiling Point": "155-160 \u00b0C", "Melting Point": "63 \u00b0C"}}