{"cas_no": "14444-77-0", "cn_name": "\u4e8c\u4e59\u57fa\u82ef\u57fa\u7532\u70f7", "en_name": ["(Diethoxymethoxy)benzene", "Benzene, (diethoxymethoxy)-", "Orthoformic acid, diethyl phenyl ester", "(Diethoxymethoxy)benzene", "Diethoxyphenoxymethane", "Diethyl phenyl orthoformate", "Phenyl diethylorthoformate"], "SMILES": "C(OC1=CC=CC=C1)(OCC)OCC", "physical_data": {"Molecular Weight": "196.24", "Molecular Formula": "C11H16O3", "Boiling Point": "109-110 \u00b0C @ Press: 10 Torr", "Density": "1.0275 g/cm\u00b3 @ Temp: 20 \u00b0C"}}