{"cas_no": "14446-67-4", "cn_name": "1-\u70ef\u4e19\u57fa\u54cc\u5576", "en_name": ["1-(2-Propen-1-yl)piperidine", "Piperidine, 1-(2-propen-1-yl)-", "Piperidine, 1-allyl-", "Piperidine, 1-(2-propenyl)-", "1-(2-Propen-1-yl)piperidine", "N-Allylpiperidine", "1-Allylpiperidine", "1-(2-Propenyl)piperidine"], "SMILES": "C(C=C)N1CCCCC1", "physical_data": {"Molecular Weight": "125.21", "Molecular Formula": "C8H15N", "Boiling Point": "152 \u00b0C", "Melting Point": "51-52 \u00b0C"}}