{"cas_no": "1444-94-6", "cn_name": "\u516d\u6c22\u90bb\u82ef\u4e8c\u7532\u9170\u4e9a\u80fa", "en_name": ["Hexahydro-1H-isoindole-1,3(2H)-dione", "1H-Isoindole-1,3(2H)-dione, hexahydro-", "1,2-Cyclohexanedicarboximide", "Hexahydro-1H-isoindole-1,3(2H)-dione", "Hexahydrophthalimide", "NSC 18823"], "SMILES": "O=C1C2C(C(=O)N1)CCCC2", "physical_data": {"Molecular Weight": "153.18", "Molecular Formula": "C8H11NO2", "Boiling Point": "105 \u00b0C @ Press: 0.15 Torr", "Melting Point": "100 \u00b0C"}}