{"cas_no": "14447-18-8", "cn_name": "\u82c4\u57fa\u6c30\u57fa\u4e59\u9178\u916f", "en_name": ["Phenylmethyl 2-cyanoacetate", "Acetic acid, 2-cyano-, phenylmethyl ester", "Acetic acid, cyano-, benzyl ester", "Acetic acid, cyano-, phenylmethyl ester", "Phenylmethyl 2-cyanoacetate", "Benzyl cyanoacetate", "Cyanoacetic acid phenylmethyl ester", "Cyanoacetic acid benzyl ester"], "SMILES": "C(OC(CC#N)=O)C1=CC=CC=C1", "physical_data": {"Molecular Weight": "175.18", "Molecular Formula": "C10H9NO2", "Boiling Point": "134-136 \u00b0C @ Press: 0.5 Torr", "Melting Point": "61-62 \u00b0C"}}