{"cas_no": "1444-05-9", "cn_name": "\u53cc\u6c30\u4e59\u57fa\u4e19\u4e8c\u9178\u4e8c\u4e59\u916f", "en_name": ["Propanedioic acid, 2,2-bis(2-cyanoethyl)-, 1,3-diethyl ester", "Propanedioic acid, 2,2-bis(2-cyanoethyl)-, 1,3-diethyl ester", "Malonic acid, bis(2-cyanoethyl)-, diethyl ester", "Propanedioic acid, bis(2-cyanoethyl)-, diethyl ester", "Diethyl bis(2-cyanoethyl)malonate", "NSC 3669", "Diethyl 2,2-bis(2-cyanoethyl)malonate", "2,2-Bis-(2-cyano-ethyl)-malonic acid diethyl ester", "1,3-Diethyl 2,2-bis(2-cyanoethyl)propanedioate"], "SMILES": "C(C(OCC)=O)(C(OCC)=O)(CCC#N)CCC#N", "physical_data": {"Molecular Weight": "266.29", "Molecular Formula": "C13H18N2O4", "Boiling Point": "210-212 \u00b0C @ Press: 5 Torr", "Melting Point": "62 \u00b0C"}}