{"cas_no": "144494-65-5", "cn_name": "\u66ff\u7f57\u975e\u73ed", "en_name": ["Tirofiban", "L-Tyrosine, N-(butylsulfonyl)-O-[4-(4-piperidinyl)butyl]-", "N-(Butylsulfonyl)-O-[4-(4-piperidinyl)butyl]-L-tyrosine", "Tirofiban", "Aggrestat"], "SMILES": "C(C(NS(CCCC)(=O)=O)C(O)=O)C1=CC=C(OCCCCC2CCNCC2)C=C1", "physical_data": {"Molecular Weight": "440.60", "Molecular Formula": "C22H36N2O5S", "Melting Point": "223-225 \u00b0C"}}