{"cas_no": "14452-30-3", "cn_name": "3-\u7898\u82ef\u4e59\u916e", "en_name": ["3-Iodoacetophenone", "Ethanone, 1-(3-iodophenyl)-", "Acetophenone, 3\u2032-iodo-", "1-(3-Iodophenyl)ethanone", "m-Iodoacetophenone", "3-Iodoacetophenone", "3\u2032-Iodoacetophenone", "3-Acetyl-1-iodobenzene", "1-(3-Iodophenyl)ethan-1-one"], "SMILES": "C(C)(=O)C1=CC(I)=CC=C1", "physical_data": {"Molecular Weight": "246.05", "Molecular Formula": "C8H7IO", "Boiling Point": "117 \u00b0C @ Press: 4 Torr"}}