{"cas_no": "1445-08-5", "cn_name": "2-\u7532\u57fa-1H-\u560c\u5464-6-\u80fa", "en_name": ["2-Methyladenine", "9H-Purin-6-amine, 2-methyl-", "Adenine, 2-methyl-", "1H-Purin-6-amine, 2-methyl-", "2-Methyl-9H-purin-6-amine", "2-Methyladenine", "2-Methyl-6-aminopurine", "SQ 23354", "NSC 26364", "2-Methyl-7H-purin-6-amine"], "SMILES": "NC1=C2C(=NC(C)=N1)N=CN2", "physical_data": {"Molecular Weight": "149.15", "Molecular Formula": "C6H7N5", "Melting Point": "&gt;300 \u00b0C"}}