{"cas_no": "1445-39-2", "cn_name": "2-\u6c28\u57fa-5-\u7898\u5627\u5576", "en_name": ["5-Iodo-2-pyrimidinamine", "2-Pyrimidinamine, 5-iodo-", "Pyrimidine, 2-amino-5-iodo-", "5-Iodo-2-pyrimidinamine", "2-Amino-5-iodopyrimidine", "NSC 48224", "5-Iodopyrimidin-2-ylamine"], "SMILES": "IC=1C=NC(N)=NC1", "physical_data": {"Molecular Weight": "221.00", "Molecular Formula": "C4H4IN3", "Melting Point": "224-226 \u00b0C"}}