{"cas_no": "1445-54-1", "cn_name": "3-\u6c2f-4-\u54d2\u55ea\u7532\u9178\u4e59\u916f", "en_name": ["Ethyl 3-chloro-4-pyridazinecarboxylate", "4-Pyridazinecarboxylic acid, 3-chloro-, ethyl ester", "Ethyl 3-chloro-4-pyridazinecarboxylate", "3-Chloropyridazine-4-carboxylic acid ethyl ester"], "SMILES": "C(OCC)(=O)C1=C(Cl)N=NC=C1", "physical_data": {"Molecular Weight": "186.60", "Molecular Formula": "C7H7ClN2O2", "Melting Point": "49 \u00b0C"}}