{"cas_no": "1445-19-8", "cn_name": "8-\u82ef\u80fa\u57fa-1-\u8418\u78fa\u9178\u94a0", "en_name": ["1-Naphthalenesulfonic acid, 8-(phenylamino)-, sodium salt (1:1)", "1-Naphthalenesulfonic acid, 8-(phenylamino)-, sodium salt (1:1)", "1-Naphthalenesulfonic acid, 8-anilino-, monosodium salt", "1-Naphthalenesulfonic acid, 8-(phenylamino)-, monosodium salt", "1-Naphthalenesulfonic acid, 8-anilino-, sodium salt", "Sodium 8-anilino-1-naphthalenesulfonate", "Sodium 1-anilino-8-naphthalenesulfonate"], "SMILES": "S(=O)(=O)(O)C=1C=2C(NC3=CC=CC=C3)=CC=CC2C=CC1.[Na]", "physical_data": {"Molecular Weight": "", "Molecular Formula": "C16H13NO3S.Na", "Melting Point": "&gt;300 \u00b0C"}}