{"cas_no": "14451-99-1", "cn_name": "\u4e9a\u786b\u9178\u6c22\u4e8c\u7532\u57fa\u5627\u5576\u7532\u8418\u918c,\u7ef4\u751f\u7d20K3-MPB", "en_name": ["2-Naphthalenesulfonic acid, 1,2,3,4-tetrahydro-2-methyl-1,4-dioxo-, compd. with 4,6-dimethyl-2(1H)-pyrimidinone (1:1)", "2-Naphthalenesulfonic acid, 1,2,3,4-tetrahydro-2-methyl-1,4-dioxo-, compd. with 4,6-dimethyl-2(1H)-pyrimidinone (1:1)", "2-Naphthalenesulfonic acid, 1,2,3,4-tetrahydro-2-methyl-1,4-dioxo-, compd. with 4,6-dimethyl-2-pyrimidinol (1:1)", "2-Pyrimidinol, 4,6-dimethyl-, mono(1,2,3,4-tetrahydro-2-methyl-1,4-dioxo-2-naphthalenesulfonate) (salt)", "2(1H)-Pyrimidinone, 4,6-dimethyl-, mono(1,2,3,4-tetrahydro-2-methyl-1,4-dioxo-2-naphthalenesulfonate)", "Menadione dimethylpyrimidinol bisulfite", "MPB"], "SMILES": "CC1=CC(C)=NC(=O)N1.O=C1C=2C(C(=O)CC1(S(=O)(=O)O)C)=CC=CC2", "physical_data": {"Molecular Weight": "", "Molecular Formula": "C11H10O5S.C6H8N2O", "Melting Point": "215-217 \u00b0C"}}