{"cas_no": "1445-55-2", "cn_name": "3-\u7f9f\u57fa-4-\u54d2\u55ea\u7532\u9178\u4e59\u916f", "en_name": ["Ethyl 2,3-dihydro-3-oxo-4-pyridazinecarboxylate", "4-Pyridazinecarboxylic acid, 2,3-dihydro-3-oxo-, ethyl ester", "Ethyl 2,3-dihydro-3-oxo-4-pyridazinecarboxylate", "3-Oxo-2,3-dihydropyridazine-4-carboxylic acid ethyl ester"], "SMILES": "C(OCC)(=O)C=1C(=O)NN=CC1", "physical_data": {"Molecular Weight": "168.15", "Molecular Formula": "C7H8N2O3", "Boiling Point": "186 \u00b0C @ Press: 1.5 Torr", "Melting Point": "199-200 \u00b0C"}}