{"cas_no": "1445-38-1", "cn_name": "\u82ef\u80fa\u57fa\u78f7\u9178\u4e8c\u4e59\u916f", "en_name": ["Phosphoramidic acid, N-phenyl-, diethyl ester", "Phosphoramidic acid, N-phenyl-, diethyl ester", "Phosphoramidic acid, phenyl-, diethyl ester", "Diethyl phosphoranilidate", "Diethyl N-phenylphosphoramidate", "NSC 16105", "Diethyl phenylphosphoramidate"], "SMILES": "P(NC1=CC=CC=C1)(OCC)(OCC)=O", "physical_data": {"Molecular Weight": "229.21", "Molecular Formula": "C10H16NO3P", "Boiling Point": "65-66 \u00b0C @ Press: 2.5 Torr", "Melting Point": "96.5 \u00b0C"}}