{"cas_no": "144598-75-4", "cn_name": "\u5e15\u6f58\u7acb\u916e", "en_name": ["Paliperidone", "4H-Pyrido[1,2-a]pyrimidin-4-one, 3-[2-[4-(6-fluoro-1,2-benzisoxazol-3-yl)-1-piperidinyl]ethyl]-6,7,8,9-tetrahydro-9-hydroxy-2-methyl-", "1,2-Benzisoxazole, 4H-pyrido[1,2-a]pyrimidin-4-one deriv.", "3-[2-[4-(6-Fluoro-1,2-benzisoxazol-3-yl)-1-piperidinyl]ethyl]-6,7,8,9-tetrahydro-9-hydroxy-2-methyl-4H-pyrido[1,2-a]pyrimidin-4-one", "R 76477", "9-Hydroxyrisperidone", "Paliperidone", "RO 76477", "Invega", "Invega Trinza"], "SMILES": "FC=1C=C2C(C(=NO2)C3CCN(CCC=4C(=O)N5C(=NC4C)C(O)CCC5)CC3)=CC1", "physical_data": {"Molecular Weight": "426.48", "Molecular Formula": "C23H27FN4O3", "Melting Point": "162.2-162.4 \u00b0C"}}