{"cas_no": "14459-29-1", "cn_name": "\u8840\u535f\u5549", "en_name": ["Hematoporphyrin", "21H,23H-Porphine-2,18-dipropanoic acid, 7,12-bis(1-hydroxyethyl)-3,8,13,17-tetramethyl-", "2,18-Porphinedipropionic acid, 7,12-bis(1-hydroxyethyl)-3,8,13,17-tetramethyl-", "Hematoporphyrin IX", "7,12-Bis(1-hydroxyethyl)-3,8,13,17-tetramethyl-21H,23H-porphine-2,18-dipropanoic acid", "Hematoporphyrin", "HP", "Photodyn", "1,3,5,8-Tetramethyl-2,4-bis(\u03b1-hydroxyethyl)porphine-6,7-dipropionic acid", "7,12-Bis(1-hydroxyethyl)-3,8,13,17-tetramethyl-2,18-porphinedipropionic acid", "NSC 59265", "NSC 267084", "HpIX"], "SMILES": "C(CC(O)=O)C1=C2C=C3C(CCC(O)=O)=C(C)C(=N3)C=C4NC(=CC5=NC(=CC(N2)=C1C)C(C(C)O)=C5C)C(C(C)O)=C4C", "physical_data": {"Molecular Weight": "598.69", "Molecular Formula": "C34H38N4O6", "Melting Point": "172.5 \u00b0C"}}