{"cas_no": "1445-07-4", "cn_name": "\u5047\u5c3f\u82f7", "en_name": ["Pseudouridine", "2,4(1H,3H)-Pyrimidinedione, 5-\u03b2-D-ribofuranosyl-", "Uracil, 5-\u03b2-D-ribofuranosyl-", "5-\u03b2-D-Ribofuranosyl-2,4(1H,3H)-pyrimidinedione", "Pseudouridine C", "5-Ribosyluracil", "\u03b2-Pseudouridine", "Pseudouridine", "\u03b2-D-Pseudouridine", "\u03c8-Uridine", "5-(\u03b2-D-Ribofuranosyl)uracil", "NSC 162405", "1: PN: WO2017201317 SEQID: 1 claimed DNA", "MeSH ID: D011560"], "SMILES": "OC1C(OC(CO)C1O)C=2C(=O)NC(=O)NC2", "physical_data": {"Molecular Weight": "244.20", "Molecular Formula": "C9H12N2O6", "Melting Point": "222 \u00b0C"}}