{"cas_no": "14451-86-6", "cn_name": "2-\u4e01\u57fa-2-\u91d1\u521a\u70f7\u9187", "en_name": ["2-Butyltricyclo[3.3.1.13,7]decan-2-ol", "Tricyclo[3.3.1.13,7]decan-2-ol, 2-butyl-", "2-Adamantanol, 2-butyl-", "2-Butyltricyclo[3.3.1.13,7]decan-2-ol", "2-Butyl-2-adamantanol"], "SMILES": "C(CCC)C1(O)C2CC3CC1CC(C2)C3", "physical_data": {"Molecular Weight": "208.34", "Molecular Formula": "C14H24O", "Melting Point": "70-76 \u00b0C"}}