{"cas_no": "1445-45-0", "cn_name": "\u539f\u4e59\u9178\u4e09\u7532\u916f", "en_name": ["Trimethyl orthoacetate", "Ethane, 1,1,1-trimethoxy-", "Orthoacetic acid, trimethyl ester", "1,1,1-Trimethoxyethane", "Trimethyl orthoacetate", "Methyl orthoacetate"], "SMILES": "C(OC)(OC)(OC)C", "physical_data": {"Molecular Weight": "120.15", "Molecular Formula": "C5H12O3", "Boiling Point": "108 \u00b0C"}}