{"cas_no": "1445-56-3", "cn_name": "4-\u6c30\u57fa-3-\u6c2f\u54d2\u55ea", "en_name": ["3-Chloropyridazine-4-carbonitrile", "4-Pyridazinecarbonitrile, 3-chloro-", "3-Chloro-4-pyridazinecarbonitrile", "4-Cyano-3-chloropyridazine", "3-Chloropyridazine-4-carbonitrile"], "SMILES": "C(#N)C1=C(Cl)N=NC=C1", "physical_data": {"Molecular Weight": "139.54", "Molecular Formula": "C5H2ClN3", "Boiling Point": "90 \u00b0C @ Press: 0.15 Torr", "Melting Point": "41-42 \u00b0C"}}