{"cas_no": "1445-79-0", "cn_name": "\u4e09\u7532\u57fa\u9553", "en_name": ["Trimethylgallium", "Gallium, trimethyl-", "Trimethylgallium", "Trimethylgallane", "Trimethyl gallium ((CH3)3Ga)", "Trimethyl gallium"], "SMILES": "[Ga](C)(C)C", "physical_data": {"Molecular Weight": "", "Molecular Formula": "C3H9Ga", "Boiling Point": "55.7 \u00b0C @ Press: 762 Torr", "Melting Point": "-19 \u00b0C", "Density": "1.151 g/cm\u00b3 @ Temp: 15 \u00b0C"}}