{"cas_no": "1445-91-6", "cn_name": "S-(-)-\u82ef\u4e59\u9187", "en_name": ["(S)-1-Phenylethanol", "Benzenemethanol, \u03b1-methyl-, (\u03b1S)-", "Benzyl alcohol, \u03b1-methyl-, (S)-(-)-", "Benzenemethanol, \u03b1-methyl-, (S)-", "Benzyl alcohol, \u03b1-methyl-, l-", "\u03b1-methyl-Benzyl alcohol, \u03b1-methyl-, (-)-", "(\u03b1S)-\u03b1-Methylbenzenemethanol", "(S)-(-)-Methylphenylcarbinol", "(S)-(-)-\u03b1-Methylbenzyl alcohol", "(S)-(-)-1-Phenylethanol", "(S)-\u03b1-Methylbenzyl alcohol", "S-(-)-1-Phenyl-1-ethanol", "(S)-(-)-\u03b1-Phenylethanol", "(S)-1-Phenylethanol", "(-)-1-Phenylethanol", "(-)-\u03b1-Phenylethanol", "(S)-1-Phenyl-1-ethanol", "l-1-Phenylethanol", "L-(-)-\u03b1-Phenylethanol", "(-)-\u03b1-Methylbenzyl alcohol", "(S)-sec-Phenethyl alcohol", "l-\u03b1-Phenethyl alcohol", "(S)-1-Phenylethyl alcohol", "(S)-(-)-1-Phenylethyl alcohol", "(S)-\u03b1-Methylbenzenemethanol", "(S)-\u03b1-Phenethyl alcohol", "(S)-\u03b1-Phenylethanol", "(-)-1-Phenyl-1-ethanol", "(S)-(-)-\u03b1-Phenethyl alcohol", "(S)-Phenylmethylcarbinol", "(-)-sec-Phenethyl alcohol", "(S)-\u03b1-Hydroxyethylbenzene", "(-)-1-Phenylethyl alcohol", "(-)-\u03b1-Phenethyl alcohol", "(S)-(-)-sec-Phenethyl alcohol", "(S)-1-Phenethyl alcohol", "(S)-Phenylethanol", "(1S)-1-Phenylethanol", "(-)-(S)-1-Phenylethanol", "(S)-(-)-Phenylethanol", "(1S)-1-Phenylethan-1-ol"], "SMILES": "C(C)(O)C1=CC=CC=C1", "physical_data": {"Molecular Weight": "122.16", "Molecular Formula": "C8H10O", "Boiling Point": "93 \u00b0C @ Press: 14 Torr"}}