{"cas_no": "1445-75-6", "cn_name": "\u7532\u57fa\u78f7\u9178\u4e8c\u5f02\u4e19\u916f", "en_name": ["Diisopropyl methylphosphonate", "Phosphonic acid, P-methyl-, bis(1-methylethyl) ester", "Phosphonic acid, methyl-, diisopropyl ester", "Phosphonic acid, methyl-, bis(1-methylethyl) ester", "Diisopropyl methylphosphonate", "DIMP", "Diisopropyl methanephosphonate", "DIMP (phosphonate)", "O,O-Diisopropyl methylphosphonate", "2-[Methyl(propan-2-yloxy)phosphoryl]oxypropane", "2-[Isopropoxy(methyl)phosphoryl]oxypropane"], "SMILES": "O(P(OC(C)C)(C)=O)C(C)C", "physical_data": {"Molecular Weight": "180.18", "Molecular Formula": "C7H17O3P", "Boiling Point": "121.05 \u00b0C @ Press: 10 Torr", "Melting Point": "&lt;25 \u00b0C", "Density": "0.976 g/cm\u00b3"}}