{"cas_no": "1445-73-4", "cn_name": "N-\u7532\u57fa-4-\u54cc\u5576\u916e", "en_name": ["1-Methyl-4-piperidone", "4-Piperidinone, 1-methyl-", "4-Piperidone, 1-methyl-", "1-Methyl-4-piperidinone", "1-Methyl-4-piperidone", "N-Methyl-4-piperidone", "N-Methyl-4-piperidinone", "1-Methyl-4-oxopiperidine", "NSC 66491", "4-Oxo-1-methylpiperidine"], "SMILES": "O=C1CCN(C)CC1", "physical_data": {"Molecular Weight": "113.16", "Molecular Formula": "C6H11NO", "Boiling Point": "43.5-44.1 \u00b0C @ Press: 6 Torr", "Melting Point": "192-193 \u00b0C"}}