{"cas_no": "14456-48-5", "cn_name": "\u6eb4\u5316\u955d(III)", "en_name": ["Dysprosium bromide (DyBr3)", "Dysprosium bromide (DyBr3)", "Dysprosium tribromide", "Dysprosium bromide"], "SMILES": "[Dy](Br)(Br)Br", "physical_data": {"Molecular Weight": "", "Molecular Formula": "Br3Dy", "Melting Point": "881 \u00b0C"}}