{"cas_no": "1445-69-8", "cn_name": "\u90bb\u82ef\u4e8c\u7532\u9170\u80bc", "en_name": ["2,3-Dihydro-1,4-phthalazinedione", "1,4-Phthalazinedione, 2,3-dihydro-", "2,3-Dihydro-1,4-phthalazinedione", "Phthalhydrazide", "Phthalocyclohydrazide", "Hydrazine, 1,2-(1,2-phenylenedicarbonyl)-", "Phthalic acid cyclic hydrazide", "N,N\u2032-Phthaloylhydrazine", "4-Hydroxyphthalazin-1(2H)-one", "1,4-Phthalazinediol", "1,2-Benzenedicarboxylic acid, cyclic hydrazide", "1,4-Dihydroxyphthalazine", "NSC 201511", "NSC 651", "Phthalazine-1,4(2H,3H)-dione", "1,2,3,4-Tetrahydrophthalazine-1,4-dione"], "SMILES": "O=C1C=2C(C(=O)NN1)=CC=CC2", "physical_data": {"Molecular Weight": "162.15", "Molecular Formula": "C8H6N2O2", "Melting Point": "&gt;300 \u00b0C"}}