{"cas_no": "14452-34-7", "cn_name": "2,4-\u4e8c\u7532\u57fa-6-\u785d\u57fa\u82ef\u915a", "en_name": ["2,4-Dimethyl-6-nitrophenol", "Phenol, 2,4-dimethyl-6-nitro-", "2,4-Xylenol, 6-nitro-", "2,4-Dimethyl-6-nitrophenol", "2-Nitro-4,6-dimethylphenol", "4,6-Dimethyl-2-nitrophenol"], "SMILES": "N(=O)(=O)C1=C(O)C(C)=CC(C)=C1", "physical_data": {"Molecular Weight": "167.16", "Molecular Formula": "C8H9NO3", "Melting Point": "72 \u00b0C"}}