{"cas_no": "144689-63-4", "cn_name": "\u5965\u7f8e\u6c99\u5766\u916f", "en_name": ["Olmesartan medoxomil", "1H-Imidazole-5-carboxylic acid, 4-(1-hydroxy-1-methylethyl)-2-propyl-1-[[2\u2032-(2H-tetrazol-5-yl)[1,1\u2032-biphenyl]-4-yl]methyl]-, (5-methyl-2-oxo-1,3-dioxol-4-yl)methyl ester", "1H-Imidazole-5-carboxylic acid, 4-(1-hydroxy-1-methylethyl)-2-propyl-1-[[2\u2032-(1H-tetrazol-5-yl)[1,1\u2032-biphenyl]-4-yl]methyl]-, (5-methyl-2-oxo-1,3-dioxol-4-yl)methyl ester", "1,3-Dioxole, 1H-imidazole-5-carboxylic acid deriv.", "CS 866", "Olmesartan medoxomil", "Benicar", "Olmetec", "Olsertain", "Angiosartan", "(5-Methyl-2-oxo-2H-1,3-dioxol-4-yl)methyl 4-(2-hydroxypropan-2-yl)-2-propyl-1-([4-[2-(1H-1,2,3,4-tetrazol-5-yl)phenyl]phenyl]methyl)-1H-imidazole-5-carboxylate", "(5-Methyl-2-oxo-1,3-dioxol-4-yl)methyl 4-(1-hydroxy-1-methylethyl)-2-propyl-1-[[2\u2032-(2H-tetrazol-5-yl)[1,1\u2032-biphenyl]-4-yl]methyl]-1H-imidazole-5-carboxylate"], "SMILES": "C(N1C(C(OCC2=C(C)OC(=O)O2)=O)=C(C(C)(C)O)N=C1CCC)C3=CC=C(C=C3)C4=C(C=CC=C4)C=5NN=NN5", "physical_data": {"Molecular Weight": "558.59", "Molecular Formula": "C29H30N6O6", "Melting Point": "180-182 \u00b0C"}}