{"cas_no": "14465-68-0", "cn_name": "\u4e09\u4e9a\u9ebb\u7cbe", "en_name": ["Trilinolenin", "9,12,15-Octadecatrienoic acid, 1,1\u2032,1\u2032\u2032-(1,2,3-propanetriyl) ester, (9Z,9\u2032Z,9\u2032\u2032Z,12Z,12\u2032Z,12\u2032\u2032Z,15Z,15\u2032Z,15\u2032\u2032Z)-", "Linolenin, tri-", "9,12,15-Octadecatrienoic acid, 1,2,3-propanetriyl ester, (all-Z)-", "9,12,15-Octadecatrienoic acid, 1,2,3-propanetriyl ester, (9Z,9\u2032Z,9\u2032\u2032Z,12Z,12\u2032Z,12\u2032\u2032Z,15Z,15\u2032Z,15\u2032\u2032Z)-", "Trilinolenin", "Glycerol trilinolenate", "Trilinolenic glyceride", "Glyceryl trilinolenate", "Trilinolenoylglycerol", "Tri-\u03b1-linolenin", "Triglyceride LnLnLn", "Linolenic acid triglyceride", "C54:9"], "SMILES": "C(OC(CCCCCCCC=CCC=CCC=CCC)=O)(COC(CCCCCCCC=CCC=CCC=CCC)=O)COC(CCCCCCCC=CCC=CCC=CCC)=O", "physical_data": {"Molecular Weight": "873.34", "Molecular Formula": "C57H92O6", "Melting Point": "-23-24 \u00b0C", "Density": "0.9591 g/cm\u00b3 @ Temp: 20 \u00b0C"}}