{"cas_no": "144690-92-6", "cn_name": "\u4e09\u82ef\u7532\u57fa\u5965\u7f8e\u6c99\u5766\u916f", "en_name": ["Tritylolmesartan medoxomil", "1H-Imidazole-5-carboxylic acid, 4-(1-hydroxy-1-methylethyl)-2-propyl-1-[[2\u2032-[1-(triphenylmethyl)-1H-tetrazol-5-yl][1,1\u2032-biphenyl]-4-yl]methyl]-, (5-methyl-2-oxo-1,3-dioxol-4-yl)methyl ester", "1,3-Dioxole, 1H-imidazole-5-carboxylic acid deriv.", "Tritylolmesartan medoxomil"], "SMILES": "C(N1C(=NN=N1)C2=C(C=CC=C2)C3=CC=C(CN4C(C(OCC5=C(C)OC(=O)O5)=O)=C(C(C)(C)O)N=C4CCC)C=C3)(C6=CC=CC=C6)(C7=CC=CC=C7)C8=CC=CC=C8", "physical_data": {"Molecular Weight": "800.90", "Molecular Formula": "C48H44N6O6", "Melting Point": "103-104 \u00b0C"}}