{"cas_no": "144689-93-0", "cn_name": "4-(1-\u7f9f\u57fa-1-\u7532\u57fa\u4e59\u57fa)-2-\u4e19\u57fa-1H-\u54aa\u5511-5-\u7fa7\u9178\u4e59\u916f", "en_name": ["Ethyl 4-(1-hydroxy-1-methylethyl)-2-propyl-1H-imidazole-5-carboxylate", "1H-Imidazole-5-carboxylic acid, 4-(1-hydroxy-1-methylethyl)-2-propyl-, ethyl ester", "1H-Imidazole-4-carboxylic acid, 5-(1-hydroxy-1-methylethyl)-2-propyl-, ethyl ester", "Ethyl 4-(1-hydroxy-1-methylethyl)-2-propyl-1H-imidazole-5-carboxylate", "2-Propyl-5-(1-hydroxy-1-methylethyl)-3H-imidazole-4-carboxylic acid ethyl ester", "Ethyl 4-(1-hydroxy-1-methylethyl)-2-propylimidazole-5-carboxylate", "4-(1-Hydroxy-1-methylethyl)-2-propylimidazole-5-carboxylic acid ethyl ester", "Ethyl 4-(2-hydroxypropan-2-yl)-2-propyl-1H-imidazole-5-carboxylate"], "SMILES": "C(OCC)(=O)C1=C(C(C)(C)O)N=C(CCC)N1", "physical_data": {"Molecular Weight": "240.30", "Molecular Formula": "C12H20N2O3", "Melting Point": "100-102 \u00b0C"}}