{"cas_no": "144689-94-1", "cn_name": "2-\u4e19\u57fa-4,5-\u54aa\u5511\u4e8c\u7fa7\u9178\u4e8c\u4e59\u916f", "en_name": ["1H-Imidazole-4,5-dicarboxylic acid, 2-propyl-, 4,5-diethyl ester", "1H-Imidazole-4,5-dicarboxylic acid, 2-propyl-, 4,5-diethyl ester", "1H-Imidazole-4,5-dicarboxylic acid, 2-propyl-, diethyl ester", "Diethyl 2-propylimidazole-4,5-dicarboxylate", "Diethyl 2-propyl-1H-imidazole-4,5-dicarboxylate"], "SMILES": "C(OCC)(=O)C1=C(C(OCC)=O)N=C(CCC)N1", "physical_data": {"Molecular Weight": "254.28", "Molecular Formula": "C12H18N2O4", "Melting Point": "83-85 \u00b0C"}}