{"cas_no": "144651-06-9", "cn_name": "\u73af\u6c27\u5627\u78fa\u9686", "en_name": ["Benzoic acid, 2-[[[[(4,6-dimethyl-2-pyrimidinyl)amino]carbonyl]amino]sulfonyl]-, 3-oxetanyl ester", "Benzoic acid, 2-[[[[(4,6-dimethyl-2-pyrimidinyl)amino]carbonyl]amino]sulfonyl]-, 3-oxetanyl ester", "CGA 277476", "EP-A 0496701", "Oxasulfuron", "Expert"], "SMILES": "C(OC1COC1)(=O)C2=C(S(NC(NC=3N=C(C)C=C(C)N3)=O)(=O)=O)C=CC=C2", "physical_data": {"Molecular Weight": "406.41", "Molecular Formula": "C17H18N4O6S", "Melting Point": "158 \u00b0C (decomp)"}}