{"cas_no": "14464-32-5", "cn_name": "N-\u7f9f\u57fa\u7425\u73c0\u9170\u4e9a\u80fa\u786c\u916f\u9178\u916f", "en_name": ["Stearic acid N-hydroxysuccinimide ester", "Octadecanoic acid, 2,5-dioxo-1-pyrrolidinyl ester", "Succinimide, N-(stearoyloxy)-", "2,5-Pyrrolidinedione, 1-[(1-oxooctadecyl)oxy]-", "N-(Stearoyloxy)succinimide", "Stearic acid N-hydroxysuccinimide ester", "Stearic acid hydroxysuccinimide ester", "Octadecanoic acid N-hydroxysuccinimide ester", "Succinimidyl octadecanoate", "Stearoyl N-hydroxysuccinimide ester", "Octadecanoic acid succinimidyl ester", "2,5-Dioxopyrrolidin-1-yl stearate"], "SMILES": "O(C(CCCCCCCCCCCCCCCCC)=O)N1C(=O)CCC1=O", "physical_data": {"Molecular Weight": "381.55", "Molecular Formula": "C22H39NO4", "Melting Point": "93 \u00b0C"}}