{"cas_no": "1446-61-3", "cn_name": "\u8131\u6c22\u677e\u9999\u80fa", "en_name": ["Dehydroabietylamine", "1-Phenanthrenemethanamine, 1,2,3,4,4a,9,10,10a-octahydro-1,4a-dimethyl-7-(1-methylethyl)-, (1R,4aS,10aR)-", "Podocarpa-8,11,13-trien-15-amine, 13-isopropyl-", "1-Phenanthrenemethanamine, 1,2,3,4,4a,9,10,10a-octahydro-1,4a-dimethyl-7-(1-methylethyl)-, [1R-(1\u03b1,4a\u03b2,10a\u03b1)]-", "Abietylamine, dehydro-", "(1R,4aS,10aR)-1,2,3,4,4a,9,10,10a-Octahydro-1,4a-dimethyl-7-(1-methylethyl)-1-phenanthrenemethanamine", "Dehydroabietylamine", "NSC 2955", "(+)-Dehydroabiethylamine", "Leelamine", "Dehydroabietic amine"], "SMILES": "CC12C=3C(CCC1C(CN)(C)CCC2)=CC(C(C)C)=CC3", "physical_data": {"Molecular Weight": "285.47", "Molecular Formula": "C20H31N", "Boiling Point": "~250 \u00b0C (approx) @ Press: 12 Torr", "Melting Point": "44.50 \u00b0C", "Density": "1.5460 g/cm\u00b3 @ Temp: 20 \u00b0C"}}