{"cas_no": "14464-46-1", "cn_name": "\u65b9\u77f3\u82f1", "en_name": ["Cristobalite", "Cristobalite (SiO2)", "Cristobalite", "Crystobalite", "\u03b1-Cristobalite", "Crystoballite", "Cristoballite", "\u03b1-Crystobalite", "W 006", "Metacristobalite", "43-63C", "Crysvarl", "WGL 300", "Sibelco B 0012", "Sibelite M 6000", "Sibelite M 4000", "Sibelite M 3000", "SF 4000", "Silbond 006MST", "Belcron B 6000", "Silbond 3000MST", "Sihelco B 2500", "XPF 6", "M 72", "Sicron SF 4000", "Sibelite M 0010", "Sibelite M 0072", "Silbond 4000AST", "BF 07", "BF 115", "Sibelite M 8000", "Sibelite M 06", "Sibelite M 72"], "SMILES": "[Si](=O)=O", "physical_data": {"Molecular Weight": "60.08", "Molecular Formula": "O2Si", "Boiling Point": "2230 \u00b0C", "Melting Point": "1713 \u00b0C", "Density": "2.3 g/cm\u00b3"}}