{"cas_no": "14464-29-0", "cn_name": "\u4e59\u9178-N-\u7425\u73c0\u9170\u4e9a\u80fa\u916f", "en_name": ["Acetic acid N-hydroxysuccinimide ester", "2,5-Pyrrolidinedione, 1-(acetyloxy)-", "Succinimide, N-acetoxy-", "1-(Acetyloxy)-2,5-pyrrolidinedione", "N-Acetoxysuccinimide", "N-Hydroxysuccinimide acetate", "O-Acetyl-N,N-succinyl hydroxylamine", "Acetic acid N-hydroxysuccinimide ester", "N-Hydroxysuccinimidyl acetate", "Ac-OSu", "(2,5-Dioxopyrrolidin-1-yl) acetate"], "SMILES": "O(C(C)=O)N1C(=O)CCC1=O", "physical_data": {"Molecular Weight": "157.12", "Molecular Formula": "C6H7NO4", "Melting Point": "131-132 \u00b0C"}}