{"cas_no": "14468-90-7", "cn_name": "1-\u4e09\u7532\u57fa\u7845\u57fa\u5421\u54af\u916e", "en_name": ["1-(Trimethylsilyl)-2-pyrrolidinone", "2-Pyrrolidinone, 1-(trimethylsilyl)-", "1-(Trimethylsilyl)-2-pyrrolidinone", "N-(Trimethylsilyl)pyrrolidinone", "N-(Trimethylsilyl)-2-pyrrolidinone", "N-(Trimethylsilyl)-2-pyrrolidone", "N-Trimethylsilylpyrrolidone", "1-(Trimethylsilyl)-2-pyrrolidone", "N-(trimethylsilyl)-2-pyrrolidone", "1-(Trimethylsilanyl)pyrrolidin-2-one"], "SMILES": "[Si](C)(C)(C)N1C(=O)CCC1", "physical_data": {"Molecular Weight": "157.29", "Molecular Formula": "C7H15NOSi", "Boiling Point": "77-81 \u00b0C @ Press: 6 Torr", "Melting Point": "70 \u00b0C"}}