{"cas_no": "144690-33-5", "cn_name": "4-(1-\u7f9f\u57fa-1-\u7532\u57fa\u4e59\u57fa)-2-\u4e19\u57fa-1-[4-[2-(\u4e09\u82ef\u7532\u57fa\u56db\u6c2e\u5511-5-\u57fa)\u82ef\u57fa]\u82ef\u57fa]\u7532\u57fa\u54aa\u5511-5-\u7fa7\u9178\u4e59\u916f", "en_name": ["Ethyl 4-(1-hydroxy-1-methylethyl)-2-propyl-1-[[2\u2032-[1-(triphenylmethyl)-1H-tetrazol-5-yl][1,1\u2032-biphenyl]-4-yl]methyl]-1H-imidazole-5-carboxylate", "1H-Imidazole-5-carboxylic acid, 4-(1-hydroxy-1-methylethyl)-2-propyl-1-[[2\u2032-[1-(triphenylmethyl)-1H-tetrazol-5-yl][1,1\u2032-biphenyl]-4-yl]methyl]-, ethyl ester", "Ethyl 4-(1-hydroxy-1-methylethyl)-2-propyl-1-[[2\u2032-[1-(triphenylmethyl)-1H-tetrazol-5-yl][1,1\u2032-biphenyl]-4-yl]methyl]-1H-imidazole-5-carboxylate", "Tritylolmesartan ethyl ester", "Ethyl 4-(1-hydroxy-1-methylethyl)-2-propyl-1-[4-[2-(trityltetrazol-5-yl)phenyl]phenyl]methylimidazole-5-carboxylate"], "SMILES": "C(N1C(=NN=N1)C2=C(C=CC=C2)C3=CC=C(CN4C(C(OCC)=O)=C(C(C)(C)O)N=C4CCC)C=C3)(C5=CC=CC=C5)(C6=CC=CC=C6)C7=CC=CC=C7", "physical_data": {"Molecular Weight": "716.87", "Molecular Formula": "C45H44N6O3", "Melting Point": "161 \u00b0C"}}