{"cas_no": "14464-31-4", "cn_name": "\u68d5\u6988\u9178N-\u7f9f\u57fa\u7425\u73c0\u9170\u4e9a\u80fa\u916f", "en_name": ["Palmitic acid N-hydroxysuccinimide", "Hexadecanoic acid, 2,5-dioxo-1-pyrrolidinyl ester", "Succinimide, N-(palmitoyloxy)-", "2,5-Pyrrolidinedione, 1-[(1-oxohexadecyl)oxy]-", "Palmitic acid N-hydroxysuccinimide ester", "N-Hydroxysuccinimide palmitate", "N-(Palmitoyloxy)succinimide", "Palmitic acid succinimide ester", "Hexadecanoic acid N-hydroxysuccinimide ester", "Succinimidyl hexadecanoate", "Palmitic acid N-hydroxysuccinimidyl ester", "Palmitic acid N-hydroxysuccinimide", "Palmitic acid NHS ester", "Palmitic acid succinimidyl ester", "2,5-Dioxopyrrolidin-1-yl palmitate"], "SMILES": "O(C(CCCCCCCCCCCCCCC)=O)N1C(=O)CCC1=O", "physical_data": {"Molecular Weight": "353.50", "Molecular Formula": "C20H35NO4", "Melting Point": "91 \u00b0C"}}