{"cas_no": "14470-28-1", "cn_name": "4-\u7532\u6c27\u57fa\u4e09\u82ef\u57fa\u6c2f\u7532\u70f7", "en_name": ["4-Methoxytrityl chloride", "Benzene, 1-(chlorodiphenylmethyl)-4-methoxy-", "Anisole, p-(chlorodiphenylmethyl)-", "1-(Chlorodiphenylmethyl)-4-methoxybenzene", "(p-Anisyl)diphenylmethyl chloride", "Mono-p-methoxytrityl chloride", "4-Methoxytriphenylmethyl chloride", "4-Monomethoxytrityl chloride", "p-(Chlorodiphenylmethyl)anisole", "p-Methoxytrityl chloride", "4-Methoxytrityl chloride", "4-Anisyl(chloro)diphenylmethane", "p-Anisylchlorodiphenylmethane", "NSC 54121", "MMTCl", "[(Chloro)(4-methoxyphenyl)methylene]dibenzene"], "SMILES": "C(Cl)(C1=CC=C(OC)C=C1)(C2=CC=CC=C2)C3=CC=CC=C3", "physical_data": {"Molecular Weight": "308.80", "Molecular Formula": "C20H17ClO", "Melting Point": "120-121 \u00b0C"}}