{"cas_no": "144702-27-2", "cn_name": "\u66ff\u7c73\u6c99\u5766\u6742\u8d28G", "en_name": ["4\u2032-[(1,4\u2032-Dimethyl-2\u2032-propyl[2,6\u2032-bi-1H-benzimidazol]-1\u2032-yl)methyl][1,1\u2032-biphenyl]-2-carbonitrile", "[1,1\u2032-Biphenyl]-2-carbonitrile, 4\u2032-[(1,4\u2032-dimethyl-2\u2032-propyl[2,6\u2032-bi-1H-benzimidazol]-1\u2032-yl)methyl]-", "4\u2032-[(1,4\u2032-Dimethyl-2\u2032-propyl[2,6\u2032-bi-1H-benzimidazol]-1\u2032-yl)methyl][1,1\u2032-biphenyl]-2-carbonitrile", "2-[4-[[4-Methyl-6-(1-methylbenzimidazol-2-yl)-2-propylbenzimidazol-1-yl]methyl]phenyl]benzonitrile"], "SMILES": "C(N1C=2C(N=C1CCC)=C(C)C=C(C2)C=3N(C)C=4C(N3)=CC=CC4)C5=CC=C(C=C5)C6=C(C#N)C=CC=C6", "physical_data": {"Molecular Weight": "495.62", "Molecular Formula": "C33H29N5", "Melting Point": "181.2-182.1 \u00b0C"}}