{"cas_no": "1447-14-9", "cn_name": "2,2-\u4e8c\u6c2f-1-\u7532\u57fa\u73af\u4e19\u70f7\u7fa7\u9178", "en_name": ["2,2-Dichloro-1-methylcyclopropanecarboxylic acid", "Cyclopropanecarboxylic acid, 2,2-dichloro-1-methyl-", "2,2-Dichloro-1-methylcyclopropanecarboxylic acid", "2,2-Dichloro-1-methylcyclopropane-1-carboxylic acid"], "SMILES": "C(O)(=O)C1(C)C(Cl)(Cl)C1", "physical_data": {"Molecular Weight": "169.01", "Molecular Formula": "C5H6Cl2O2", "Boiling Point": "85 \u00b0C @ Press: 8 Torr", "Melting Point": "60-61 \u00b0C"}}