{"cas_no": "1447-88-7", "cn_name": "\u9ad8\u8f66\u524d\u7d20", "en_name": ["Hispidulin", "4H-1-Benzopyran-4-one, 5,7-dihydroxy-2-(4-hydroxyphenyl)-6-methoxy-", "Flavone, 4\u2032,5,7-trihydroxy-6-methoxy-", "5,7-Dihydroxy-2-(4-hydroxyphenyl)-6-methoxy-4H-1-benzopyran-4-one", "Dinatin", "Hispidulin", "4\u2032,5,7-Trihydroxy-6-methoxyflavone", "5,7,4\u2032-Trihydroxy-6-methoxyflavone", "6-Methoxyapigenin", "Salvitin", "6-Methoxy-5,7,4\u2032-trihydroxyflavone", "Scutellarein 6-methyl ether", "Hispedulin", "NSC 122415", "6-Methylscutellarein", "Hispiludin", "6-O-Methylscutellarein"], "SMILES": "OC1=C2C(OC(=CC2=O)C3=CC=C(O)C=C3)=CC(O)=C1OC", "physical_data": {"Molecular Weight": "300.26", "Molecular Formula": "C16H12O6", "Melting Point": "291-292 \u00b0C"}}