{"cas_no": "14476-37-0", "cn_name": "4-\u5341\u4e00\u70f7\u916e", "en_name": ["4-Undecanone", "4-Undecanone", "Heptyl propyl ketone", "NSC 158509"], "SMILES": "C(CCCCCCC)(CCC)=O", "physical_data": {"Molecular Weight": "170.29", "Molecular Formula": "C11H22O", "Boiling Point": "106-107 \u00b0C @ Press: 12 Torr", "Melting Point": "4.5 \u00b0C", "Density": "0.8274 g/cm\u00b3 @ Temp: 25 \u00b0C"}}