{"cas_no": "14473-90-6", "cn_name": "3-\u6c2f\u8089\u6842\u9178", "en_name": ["(2E)-3-(3-Chlorophenyl)-2-propenoic acid", "2-Propenoic acid, 3-(3-chlorophenyl)-, (2E)-", "Cinnamic acid, m-chloro-, (E)-", "2-Propenoic acid, 3-(3-chlorophenyl)-, (E)-", "(2E)-3-(3-Chlorophenyl)-2-propenoic acid", "trans-m-Chlorocinnamic acid", "trans-3-Chlorocinnamic acid", "(E)-3-Chlorocinnamic acid", "(E)-3-(3-Chlorophenyl)acrylic acid", "trans-3-(3-Chlorophenyl)acrylic acid", "trans-3-(3-Chlorophenyl)-2-propenoic acid", "3-Chloro-trans-cinnamic acid", "(E)-3-Chlorocinnamic acid", "(E)-3-(3-Chlorophenyl)acrylic acid"], "SMILES": "C(=CC(O)=O)C1=CC(Cl)=CC=C1", "physical_data": {"Molecular Weight": "182.60", "Molecular Formula": "C9H7ClO2", "Melting Point": "163 \u00b0C"}}