{"cas_no": "14473-91-7", "cn_name": "3-\u6eb4\u8089\u6842\u9178", "en_name": ["(2E)-3-(3-Bromophenyl)-2-propenoic acid", "2-Propenoic acid, 3-(3-bromophenyl)-, (2E)-", "Cinnamic acid, m-bromo-, (E)-", "2-Propenoic acid, 3-(3-bromophenyl)-, (E)-", "(2E)-3-(3-Bromophenyl)-2-propenoic acid", "trans-m-Bromocinnamic acid", "BW-A 800U", "(E)-3-Bromocinnamic acid", "trans-3-(3-Bromophenyl)-2-propenoic acid", "trans-3-(3-Bromophenyl)acrylic acid", "(E)-m-Bromocinnamic acid", "(E)-3-(3-Bromophenyl)acrylic acid", "3-Bromo-trans-cinnamic acid", "trans-3-Bromocinnamic acid"], "SMILES": "C(=CC(O)=O)C1=CC(Br)=CC=C1", "physical_data": {"Molecular Weight": "227.05", "Molecular Formula": "C9H7BrO2", "Melting Point": "174 \u00b0C"}}