{"cas_no": "14472-14-1", "cn_name": "4-\u6eb4-3-\u7532\u57fa\u82ef\u915a", "en_name": ["4-Bromo-3-methylphenol", "Phenol, 4-bromo-3-methyl-", "m-Cresol, 4-bromo-", "4-Bromo-3-methylphenol", "4-Bromo-m-cresol", "p-Bromo-m-xylenol", "2-Bromo-5-hydroxytoluene", "3-Methyl-4-bromophenol"], "SMILES": "CC1=C(Br)C=CC(O)=C1", "physical_data": {"Molecular Weight": "187.03", "Molecular Formula": "C7H7BrO", "Boiling Point": "123-142 \u00b0C @ Press: 20 Torr", "Melting Point": "63.5 \u00b0C"}}