{"cas_no": "144701-48-4", "cn_name": "\u66ff\u7c73\u6c99\u5766", "en_name": ["Telmisartan", "[1,1\u2032-Biphenyl]-2-carboxylic acid, 4\u2032-[(1,4\u2032-dimethyl-2\u2032-propyl[2,6\u2032-bi-1H-benzimidazol]-1\u2032-yl)methyl]-", "4\u2032-[(1,4\u2032-Dimethyl-2\u2032-propyl[2,6\u2032-bi-1H-benzimidazol]-1\u2032-yl)methyl][1,1\u2032-biphenyl]-2-carboxylic acid", "BIBR 277", "Telmisartan", "4\u2032-[[4-Methyl-6-(1-methyl-2-benzimidazolyl)-2-propyl-1-benzimidazolyl]methyl]-2-biphenylcarboxylic acid", "BIBR 277SE", "Micardis", "Pritor", "Telday", "Kinzalmono", "Telsar", "Telsite", "Telmisartar", "2-[4-[[4-Methyl-6-(1-methylbenzimidazol-2-yl)-2-propylbenzimidazol-1-yl]methyl]phenyl]benzoic acid", "2-(4-[[4-Methyl-6-(1-methyl-1H-1,3-benzodiazol-2-yl)-2-propyl-1H-1,3-benzodiazol-1-yl]methyl]phenyl)benzoic acid", "Tolura", "Semintra"], "SMILES": "C(N1C=2C(N=C1CCC)=C(C)C=C(C2)C=3N(C)C=4C(N3)=CC=CC4)C5=CC=C(C=C5)C6=C(C(O)=O)C=CC=C6", "physical_data": {"Molecular Weight": "514.62", "Molecular Formula": "C33H30N4O2", "Melting Point": "260-262 \u00b0C"}}