{"cas_no": "144896-51-5", "cn_name": "4-\u82c4\u6c27-3,5-\u4e8c\u7532\u57fa\u82ef\u7532\u919b", "en_name": ["3,5-Dimethyl-4-(phenylmethoxy)benzaldehyde", "Benzaldehyde, 3,5-dimethyl-4-(phenylmethoxy)-", "3,5-Dimethyl-4-(phenylmethoxy)benzaldehyde", "4-Benzyloxy-3,5-dimethylbenzaldehyde", "3,5-Dimethyl-4-benzyloxybenzaldehyde"], "SMILES": "O(CC1=CC=CC=C1)C2=C(C)C=C(C=O)C=C2C", "physical_data": {"Molecular Weight": "240.30", "Molecular Formula": "C16H16O2", "Melting Point": "103-104 \u00b0C"}}