{"cas_no": "14484-47-0", "cn_name": "\u5730\u592b\u53ef\u7279", "en_name": ["Deflazacort", "5\u2032H-Pregna-1,4-dieno[17,16-d]oxazole-3,20-dione, 21-(acetyloxy)-11-hydroxy-2\u2032-methyl-, (11\u03b2,16\u03b2)-", "5\u2032\u03b2H-Pregna-1,4-dieno[17,16-d]oxazole-3,20-dione, 11\u03b2,21-dihydroxy-2\u2032-methyl-, 21-acetate", "2H-Naphth[2\u2032,1\u2032:4,5]indeno[1,2-d]oxazole, 5\u2032H-pregna-1,4-dieno[17,16-d]oxazole-3,20-dione deriv.", "(11\u03b2,16\u03b2)-21-(Acetyloxy)-11-hydroxy-2\u2032-methyl-5\u2032H-pregna-1,4-dieno[17,16-d]oxazole-3,20-dione", "Deflazacort", "Dezacort", "Flantadin", "Azacort", "DL 458IT", "L 5458", "Lantadin", "MDL 458", "Deflan", "Dezacor", "Calcort", "Oxazacort", "Azacortinol", "Emflaza"], "SMILES": "C(COC(C)=O)(=O)C12C3(C)C(CC1OC(C)=N2)C4C(C(O)C3)C5(C)C(CC4)=CC(=O)C=C5", "physical_data": {"Molecular Weight": "441.52", "Molecular Formula": "C25H31NO6", "Melting Point": "256 \u00b0C"}}