{"cas_no": "14486-05-6", "cn_name": "H-ALA-MET-OH", "en_name": ["L-Alanyl-L-methionine", "L-Methionine, L-alanyl-", "Methionine, N-L-alanyl-, L-", "L-Methionine, N-L-alanyl-", "L-Alanyl-L-methionine", "Alanylmethionine", "Ala-Met", "35: PN: WO2005081628 SEQID: 1035 claimed protein", "46: PN: EP2161028 PAGE: 10 claimed protein", "171: PN: WO2012174480 SEQID: 180 unclaimed protein", "170: PN: WO2012174478 SEQID: 180 unclaimed protein", "79: PN: WO2014170713 SEQID: 185 claimed protein", "4: PN: WO2019107057 SEQID: 4 claimed protein", "4: PN: JP2019099488 SEQID: 4 claimed protein"], "SMILES": "C(NC(C(C)N)=O)(CCSC)C(O)=O", "physical_data": {"Molecular Weight": "220.29", "Molecular Formula": "C8H16N2O3S", "Melting Point": "82-88 \u00b0C"}}