{"cas_no": "1448-98-2", "cn_name": "\u6c30\u4e59\u9170\u8132", "en_name": ["N-(Aminocarbonyl)-2-cyanoacetamide", "Acetamide, N-(aminocarbonyl)-2-cyano-", "Urea, (cyanoacetyl)-", "N-(Aminocarbonyl)-2-cyanoacetamide", "(Cyanoacetyl)urea", "(2-Cyanoethanoyl)urea", "NSC 6287", "N-Carbamoyl-2-cyanoacetamide", "(2-Cyanoacetyl)urea"], "SMILES": "N(C(CC#N)=O)C(N)=O", "physical_data": {"Molecular Weight": "127.10", "Molecular Formula": "C4H5N3O2", "Melting Point": "161 \u00b0C"}}