{"cas_no": "1448-36-8", "cn_name": "\u80c6\u9178\u7532\u916f", "en_name": ["Methyl cholate", "Cholan-24-oic acid, 3,7,12-trihydroxy-, methyl ester, (3\u03b1,5\u03b2,7\u03b1,12\u03b1)-", "Cholic acid, methyl ester", "Methyl cholate", "Methyl 3\u03b1,7\u03b1,12\u03b1-trihydroxy-5\u03b2-cholanoate", "Methyl 3\u03b1,7\u03b1,12\u03b1-trihydroxy-5\u03b2-cholan-24-oate", "NSC 126794", "Methyl 3\u03b1,7\u03b1,12\u03b1-trihydroxy-5\u03b2-cholan-24-ate"], "SMILES": "OC1C2C3C(C)(C(C(CCC(OC)=O)C)CC3)C(O)CC2C4(C)C(C1)CC(O)CC4", "physical_data": {"Molecular Weight": "422.60", "Molecular Formula": "C25H42O5", "Melting Point": "155 \u00b0C"}}