{"cas_no": "14486-03-4", "cn_name": "L-\u7532\u786b\u6c28\u9170\u7518\u6c28\u9178", "en_name": ["L-Methionylglycine", "Glycine, L-methionyl-", "Glycine, N-L-methionyl-", "L-Methionylglycine", "NSC 88865", "317: PN: WO2008077945 SEQID: 323 claimed protein", "205: PN: WO2008142164 SEQID: 206 claimed protein", "38: PN: US20100104568 SEQID: 206 claimed protein", "218: PN: WO2010066835 SEQID: 262 unclaimed sequence", "61: PN: WO2010070145 SEQID: 219 unclaimed sequence", "34: PN: FR2949473 SEQID: 18 unclaimed protein", "21: PN: WO2011023914 SEQID: 18 unclaimed protein", "5: PN: WO2017095140 PAGE: 4 claimed sequence", "16: PN: WO2018144831 SEQID: 16 claimed protein", "5: PN: CN110031621 SEQID: 5 claimed sequence", "11: PN: WO2020046069 SEQID: 12 claimed protein", "2-[[(2S)-2-Amino-4-methylsulfanylbutanoyl]amino]acetic acid", "2-[(2S)-2-Amino-4-(methylsulfanyl)butanamido]acetic acid", "5: PN: WO2022093718 PAGE: 104 claimed sequence", "67: PN: WO2022171113 SEQID: 77 claimed protein"], "SMILES": "C(C(CCSC)N)(NCC(O)=O)=O", "physical_data": {"Molecular Weight": "206.26", "Molecular Formula": "C7H14N2O3S", "Melting Point": "182-183 \u00b0C"}}