{"cas_no": "14487-45-7", "cn_name": "DL-\u8c37\u6c28\u9178-5-\u7532\u916f", "en_name": ["5-Methyl hydrogen glutamate", "Glutamic acid, 5-methyl ester", "Glutamic acid, 5-methyl ester, DL-", "DL-Glutamic acid, 5-methyl ester", "5-Methyl hydrogen glutamate", "2-Amino-5-methoxy-5-oxopentanoic acid", "2-Amino-pentanedioic acid 5-methyl ester"], "SMILES": "C(CC(OC)=O)C(C(O)=O)N", "physical_data": {"Molecular Weight": "161.16", "Molecular Formula": "C6H11NO4", "Melting Point": "183 \u00b0C (decomp)"}}