{"cas_no": "14484-64-1", "cn_name": "\u798f\u7f8e\u94c1", "en_name": ["Ferbam", "Iron, tris(N,N-dimethylcarbamodithioato-\u03baS,\u03baS\u2032)-, (OC-6-11)-", "Iron, tris(dimethyldithiocarbamato)-", "Iron, tris(dimethylcarbamodithioato-S,S\u2032)-, (OC-6-11)-", "Iron, tris(dimethylcarbamodithioato-\u03baS,\u03baS\u2032)-, (OC-6-11)-", "Carbamodithioic acid, dimethyl-, iron complex", "(OC-6-11)-Tris(N,N-dimethylcarbamodithioato-\u03baS,\u03baS\u2032)iron", "Bercema Fertam 50", "Fermate", "Ferric dimethyldithiocarbamate", "Fuklasin Ultra", "Ferberk", "Ferradow", "Iron dimethyldithiocarbamate", "Karbam Black", "Stauffer ferbam", "Ferbam", "Hexaferb", "Ferbam 50", "Aafertis", "Tris(dimethyldithiocarbamato)iron", "Tris(N,N-dimethyldithiocarbamato)iron(III)", "Dimethyldithiocarbamic acid iron(3+) salt", "Fuklazin", "Liromate", "Tris(N,N-dimethyldithiocarbamato)iron", "Ferric N,N-dimethyldithiocarbamate", "Trimanzone", "Iron tris(dimethyldithiocarbamate)", "Nocceler TTFE", "Sanceler TT-FE"], "SMILES": "N(C)(C)C=1[S-][Fe+3]23([S-]C(N(C)C)=[S]2)([S-]C(N(C)C)=[S]3)[S]1", "physical_data": {"Molecular Weight": "", "Molecular Formula": "C9H18FeN3S6", "Melting Point": "&gt;180 \u00b0C (decomp)"}}