{"cas_no": "14484-69-6", "cn_name": "\u56db\u6c1f\u94dd\u9178\u94be", "en_name": ["Potassium aluminum fluoride", "Aluminate(1-), tetrafluoro-, potassium (1:1), (T-4)-", "Aluminate(1-), tetrafluoro-, potassium", "Aluminate(1-), tetrafluoro-, potassium, (T-4)-", "Potassium tetrafluoroaluminate", "Potassium tetrafluoroaluminate(1-)", "Potassium tetrafluoroaluminate (KAlF4)", "Aluminum potassium fluoride (AlKF4)", "Potassium aluminum fluoride", "Potassium aluminum fluoride (KAlF4)", "FL 20", "FL 20 (flux)", "Kalfren PAF"], "SMILES": "[Al+3]([F-])([F-])([F-])[F-].[K+]", "physical_data": {"Molecular Weight": "", "Molecular Formula": "AlF4.K", "Melting Point": "546 \u00b0C"}}