{"cas_no": "14489-75-9", "cn_name": "N-\u7532\u57fa-1-\u8418\u7532\u6c28", "en_name": ["N-Methyl-1-naphthalenemethanamine", "1-Naphthalenemethanamine, N-methyl-", "1-Naphthalenemethylamine, N-methyl-", "N-Methyl-1-naphthalenemethanamine", "N-Methyl-1-naphthylmethylamine", "N-Methyl-1-naphthalenemethylamine", "1-Methylaminomethylnaphthalene", "NSC 129392", "Methyl(naphthalen-1-ylmethyl)amine", "[(Naphthalen-1-yl)methyl]methylamine", "N-Methyl-N-[(1-naphthyl)methyl]amine", "N-(Naphthalen-1-yl-methyl)-N-methylamine", "N-Methyl-N-[(naphthalen-1-yl)methyl]amine", "Methyl(1-naphthylmethyl)amine", "N-(1-Naphthylmethyl)methylamine", "N-Methyl-N-naphthylmethylamine"], "SMILES": "C(NC)C=1C2=C(C=CC1)C=CC=C2", "physical_data": {"Molecular Weight": "171.24", "Molecular Formula": "C12H13N", "Boiling Point": "115-120 \u00b0C @ Press: 1 Torr", "Melting Point": "189.5-190 \u00b0C"}}