{"cas_no": "1448-87-9", "cn_name": "2-\u6c2f\u55b9\u5594\u5549", "en_name": ["2-Chloroquinoxaline", "Quinoxaline, 2-chloro-", "2-Chloroquinoxaline", "NSC 43553"], "SMILES": "ClC1=NC2=C(N=C1)C=CC=C2", "physical_data": {"Molecular Weight": "164.59", "Molecular Formula": "C8H5ClN2", "Boiling Point": "80 \u00b0C @ Press: 0.5 Torr", "Melting Point": "46-47 \u00b0C"}}