{"cas_no": "1449-55-4", "cn_name": "\u56db\u73af\u5df1\u57fa\u9521", "en_name": ["Tetracyclohexylstannane", "Stannane, tetracyclohexyl-", "Tin, tetracyclohexyl-", "Tetracyclohexylstannane", "Tetracyclohexyltin", "Tetrakis(cyclohexyl)tin"], "SMILES": "[Sn](C1CCCCC1)(C2CCCCC2)(C3CCCCC3)C4CCCCC4", "physical_data": {"Molecular Weight": "451.32", "Molecular Formula": "C24H44Sn", "Melting Point": "250-254 \u00b0C"}}