{"cas_no": "144981-86-2", "cn_name": "9,9-\u4e8c\u7532\u57fa-2,7-\u4e8c\u7898\u82b4", "en_name": ["2,7-Diiodo-9,9-dimethyl-9H-fluorene", "9H-Fluorene, 2,7-diiodo-9,9-dimethyl-", "2,7-Diiodo-9,9-dimethyl-9H-fluorene", "2,7-Diiodo-9,9-dimethylfluorene", "9,9-Dimethyl-2,7-diiodofluorene", "9,9-Dimethyl-9H-2,7-diiodofluorene"], "SMILES": "CC1(C)C=2C(C=3C1=CC(I)=CC3)=CC=C(I)C2", "physical_data": {"Molecular Weight": "446.06", "Molecular Formula": "C15H12I2", "Melting Point": "195 \u00b0C"}}