{"cas_no": "1449-46-3", "cn_name": "\u4e09\u82ef\u57fa\u82c4\u57fa\u6eb4\u5316\u81a6", "en_name": ["Phosphonium, triphenyl(phenylmethyl)-, bromide (1:1)", "Phosphonium, triphenyl(phenylmethyl)-, bromide (1:1)", "Phosphonium, benzyltriphenyl-, bromide", "Phosphonium, triphenyl(phenylmethyl)-, bromide", "Benzyltriphenylphosphonium bromide", "Triphenylbenzylphosphonium bromide", "(Phenylmethyl)triphenylphosphonium bromide", "U-CAT SA 5003", "Triphenyl(phenylmethyl)phosphonium bromide", "NSC 54813", "Bromo(benzyl)triphenylphosphorane", "PX 2H", "B 2025"], "SMILES": "[P+](CC1=CC=CC=C1)(C2=CC=CC=C2)(C3=CC=CC=C3)C4=CC=CC=C4.[Br-]", "physical_data": {"Molecular Weight": "", "Molecular Formula": "C25H22P.Br", "Melting Point": "288 \u00b0C"}}