{"cas_no": "1449-05-4", "cn_name": "18\u03b1-\u7518\u8349\u6b21\u9178", "en_name": ["18\u03b1-Glycyrrhetinic acid", "Olean-12-en-29-oic acid, 3-hydroxy-11-oxo-, (3\u03b2,18\u03b1,20\u03b2)-", "18\u03b1-Olean-12-en-30-oic acid, 3\u03b2-hydroxy-11-oxo-", "(3\u03b2,18\u03b1,20\u03b2)-3-Hydroxy-11-oxoolean-12-en-29-oic acid", "18\u03b1-Glycyrrhetic acid", "18\u03b1-Glycyrrhetinic acid", "18-Isoglycyrrhetinic acid", "\u03b2-Glycyrrhetinic acid", "STX 353", "NSC 35350"], "SMILES": "CC12C(C3(C)C(CC1)C(C)(C)C(O)CC3)C(=O)C=C4C2(C)CCC5(C)C4CC(C(O)=O)(C)CC5", "physical_data": {"Molecular Weight": "470.68", "Molecular Formula": "C30H46O4", "Melting Point": "296 \u00b0C"}}