{"cas_no": "1449-09-8", "cn_name": "24-\u4e9a\u7532\u57fa\u73af\u963f\u5c6f\u9187", "en_name": ["24-Methylenecycloartanol", "9,19-Cyclolanostan-3-ol, 24-methylene-, (3\u03b2)-", "9,19-Cyclo-9\u03b2-lanostan-3\u03b2-ol, 24-methylene-", "Cycloartanol, 24-methylene-", "1H,19H-Cyclopropa[9,10]cyclopenta[a]phenanthrene, 9,19-cyclolanostan-3-ol deriv.", "(3\u03b2)-24-Methylene-9,19-cyclolanostan-3-ol", "24-Methylene-9,19-cyclolanostan-3\u03b2-ol", "9,19-Cyclo-24-methylenelanostan-3\u03b2-ol", "24-Methylenecycloartanol", "24-Methylenecycloartan-3\u03b2-ol", "24(28)-Methylenecycloartanol", "3\u03b2-Hydroxy-24-methylenecycloartane", "24-Methylencycloartan-3\u03b2-ol", "24-Methylidenecycloartanol"], "SMILES": "CC12C3C4(C5(C4)C(C(C)(C)C(O)CC5)CC3)CCC1(C)C(C(CCC(C(C)C)=C)C)CC2", "physical_data": {"Molecular Weight": "440.74", "Molecular Formula": "C31H52O", "Melting Point": "121-122 \u00b0C"}}