{"cas_no": "14491-66-8", "cn_name": "\u7678\u4e8c\u9178\u4e8c\u6b63\u8f9b\u916f", "en_name": ["Dioctyl succinate", "Butanedioic acid, 1,4-dioctyl ester", "Succinic acid, dioctyl ester", "Butanedioic acid, dioctyl ester", "Dioctyl succinate"], "SMILES": "C(CCC(OCCCCCCCC)=O)(OCCCCCCCC)=O", "physical_data": {"Molecular Weight": "342.51", "Molecular Formula": "C20H38O4", "Boiling Point": "210 \u00b0C @ Press: 0.11 Torr"}}