{"cas_no": "14495-51-3", "cn_name": "2-\u6eb4-5-\u6c2f\u7532\u82ef", "en_name": ["1-Bromo-4-chloro-2-methylbenzene", "Benzene, 1-bromo-4-chloro-2-methyl-", "Toluene, 2-bromo-5-chloro-", "1-Bromo-4-chloro-2-methylbenzene", "2-Bromo-5-chlorotoluene", "1-Bromo-2-methyl-4-chlorobenzene"], "SMILES": "CC1=C(Br)C=CC(Cl)=C1", "physical_data": {"Molecular Weight": "205.48", "Molecular Formula": "C7H6BrCl", "Boiling Point": "120-125 \u00b0C @ Press: 15 Torr"}}