{"cas_no": "144927-57-1", "cn_name": "4-\u6c2f-7H-\u5421\u54af\u5e76[2,3-D]\u5627\u5576-5-\u7532\u9178\u4e59\u916f", "en_name": ["7H-Pyrrolo[2,3-d]pyrimidine-5-carboxylic acid, 4-chloro-, ethyl ester", "7H-Pyrrolo[2,3-d]pyrimidine-5-carboxylic acid, 4-chloro-, ethyl ester", "1H-Pyrrolo[2,3-d]pyrimidine-5-carboxylic acid, 4-chloro-, ethyl ester", "Ethyl 4-chloro-7H-pyrrolo[2,3-d]pyrimidine-5-carboxylate"], "SMILES": "C(OCC)(=O)C=1C=2C(NC1)=NC=NC2Cl", "physical_data": {"Molecular Weight": "225.63", "Molecular Formula": "C9H8ClN3O2", "Melting Point": "140-141 \u00b0C"}}