{"cas_no": "144978-12-1", "cn_name": "BOC-L-\u7126\u8c37\u6c28\u9178\u4e59\u916f", "en_name": ["1-(1,1-Dimethylethyl) 2-ethyl (2S)-5-oxo-1,2-pyrrolidinedicarboxylate", "1,2-Pyrrolidinedicarboxylic acid, 5-oxo-, 1-(1,1-dimethylethyl) 2-ethyl ester, (2S)-", "1,2-Pyrrolidinedicarboxylic acid, 5-oxo-, 1-(1,1-dimethylethyl) 2-ethyl ester, (S)-", "1-(1,1-Dimethylethyl) 2-ethyl (2S)-5-oxo-1,2-pyrrolidinedicarboxylate", "Ethyl N-tert-butoxycarbonylpyroglutamate", "N-tert-Butoxycarbonylpyroglutamic acid ethyl ester", "1-Butoxycarbonyl-L-pyroglutamic acid ethyl ester", "Ethyl (S)-1-(tert-butoxycarbonyl)-5-oxopyrrolidine-2-carboxylate", "1-tert-Butyl 2-ethyl (S)-5-oxopyrrolidine-1,2-dicarboxylate", "1,2-Pyrrolidinedicarboxylic acid 5-oxo-, 1-(1,1-dimethylethyl) 2-ethyl ester (2S)-", "(S)-1-tert-Butyl 2-ethyl 5-oxopyrrolidine-1,2-dicarboxylate"], "SMILES": "C(OCC)(=O)C1N(C(OC(C)(C)C)=O)C(=O)CC1", "physical_data": {"Molecular Weight": "257.28", "Molecular Formula": "C12H19NO5", "Melting Point": "53-54 \u00b0C"}}