{"cas_no": "14490-05-2", "cn_name": "7-\u7532\u57fa\u8272\u80fa", "en_name": ["7-Methyltryptamine", "1H-Indole-3-ethanamine, 7-methyl-", "Indole, 3-(2-aminoethyl)-7-methyl-", "7-Methyl-1H-indole-3-ethanamine", "7-Methyltryptamine", "NSC 91540", "7-Methyl-3-indoleethanamine", "2-(7-Methyl-1H-indol-3-yl)ethanamine", "2-(7-Methyl-1H-indol-3-yl)ethan-1-amine"], "SMILES": "C(CN)C=1C=2C(=C(C)C=CC2)NC1", "physical_data": {"Molecular Weight": "174.24", "Molecular Formula": "C11H14N2", "Boiling Point": "150-220 \u00b0C @ Press: 0.03 Torr", "Melting Point": "123-130 \u00b0C"}}