{"cas_no": "145-13-1", "cn_name": "\u5b55\u70ef\u9187\u916e", "en_name": ["Pregnenolone", "Pregn-5-en-20-one, 3-hydroxy-, (3\u03b2)-", "Pregn-5-en-20-one, 3\u03b2-hydroxy-", "(3\u03b2)-3-Hydroxypregn-5-en-20-one", "Arthenolone", "Enelone", "3\u03b2-Hydroxy-\u03945-pregnen-20-one", "17\u03b2-[1-Ketoethyl]-\u03945-androsten-3\u03b2-ol", "Natolone", "\u03945-Pregnene-3\u03b2-ol-20-one", "\u03945-Pregnen-3\u03b2-ol-20-one", "Pregn-5-en-3\u03b2-ol-20-one", "Prenolon", "Skinostelon", "Pregnenolone (progesterone precursor)", "3\u03b2-Hydroxypregn-5-en-20-one", "\u03945-Pregnenolone", "Bina-Skin", "Pregnetan", "Pregneton", "Pregnolon", "Regnosone", "Pregn-5-ene-3\u03b2-ol-20-one", "3\u03b2-Hydroxy-5-pregnene-20-one", "Pregnenolone", "5-Pregnenolone", "NSC 1616", "NSC 18158", "Pregnelon", "3\u03b2-Hydroxy-5-en-20-one", "PGL", "MeSH ID: D011284"], "SMILES": "CC12C3C(C4C(C)(CC3)C(C(C)=O)CC4)CC=C1CC(O)CC2", "physical_data": {"Molecular Weight": "316.48", "Molecular Formula": "C21H32O2", "Melting Point": "192 \u00b0C"}}