{"cas_no": "145-15-3", "cn_name": "\u9ec4\u4f53\u916eEP\u6742\u8d28C", "en_name": ["20\u03b2-Hydroxyprogesterone", "Pregn-4-en-3-one, 20-hydroxy-, (20R)-", "Pregn-4-en-3-one, 20\u03b2-hydroxy-", "(20R)-20-Hydroxypregn-4-en-3-one", "20\u03b2-Dihydroprogesterone", "20\u03b2-Hydroxy-\u03944-pregnen-3-one", "\u03944-Pregnene-20\u03b2-ol-3-one", "Pregn-4-en-20\u03b2-ol-3-one", "20\u03b2-Progerol", "20\u03b2-Hydroxypregn-4-en-3-one", "20\u03b2-Hydroxyprogesterone", "4-Pregnene-20\u03b2-ol-3-one", "Progesterol-20\u03b2", "\u03944-Pregnen-20\u03b2-ol-3-one", "Pregn-4-ene-20\u03b2-hydroxy-3-one"], "SMILES": "CC12C3C(C4C(C)(CC3)C(C(C)O)CC4)CCC1=CC(=O)CC2", "physical_data": {"Molecular Weight": "316.48", "Molecular Formula": "C21H32O2", "Melting Point": "158-160 \u00b0C"}}