{"cas_no": "145-73-3", "cn_name": "\u8349\u591a\u7d22", "en_name": ["Endothall", "7-Oxabicyclo[2.2.1]heptane-2,3-dicarboxylic acid", "1,2-Cyclohexanedicarboxylic acid, 3,6-endo-epoxy-", "3,6-Endooxyphthalic acid, hexahydro-", "Endothal", "Endothall", "1,2-Benzenedicarboxylic acid, hexahydro-3,6-endo-oxy-", "Hydout", "Herbon pennout", "Aquothol", "Hydrothol", "Aquathol", "NSC 112771", "Endothallic acid", "Endothalic acid"], "SMILES": "C(O)(=O)C1C(C(O)=O)C2OC1CC2", "physical_data": {"Molecular Weight": "186.16", "Molecular Formula": "C8H10O5", "Melting Point": "144 \u00b0C", "Density": "1.431 g/cm\u00b3"}}