{"cas_no": "145-12-0", "cn_name": "\u7f9f\u7532\u777e\u916e", "en_name": ["Oxymesterone", "Androst-4-en-3-one, 4,17-dihydroxy-17-methyl-, (17\u03b2)-", "Androst-4-en-3-one, 4,17\u03b2-dihydroxy-17-methyl-", "(17\u03b2)-4,17-Dihydroxy-17-methylandrost-4-en-3-one", "Aranabol", "4,17\u03b2-Dihydroxy-17-methylandrost-4-en-3-one", "4,17\u03b2-Dihydroxy-17\u03b1-methylandrost-4-en-3-one", "4-Hydroxy-17-methyltestosterone", "4-Hydroxy-17\u03b1-methyltestosterone", "Oranabol", "Oxymesterone", "Anamidol", "Oxymestrone", "Theranabol", "NSC 45048"], "SMILES": "CC12C3C(C4C(C)(CC3)C(C)(O)CC4)CCC1=C(O)C(=O)CC2", "physical_data": {"Molecular Weight": "318.45", "Molecular Formula": "C20H30O3", "Melting Point": "170 \u00b0C"}}