{"cas_no": "145-41-5", "cn_name": "\u53bb\u6c22\u80c6\u9178\u94a0", "en_name": ["Sodium dehydrocholate", "Cholan-24-oic acid, 3,7,12-trioxo-, sodium salt, (5\u03b2)-", "5\u03b2-Cholan-24-oic acid, 3,7,12-trioxo-, sodium salt", "Dehydrocholic acid sodium salt", "Biliton", "Carachol", "Decholin sodium", "Decholin sodium salt", "Dehydrocholate sodium", "Dilabil sodium", "Dycholium", "Sodium dehydrocholate", "Sodium 3,7,12-triketocholanate", "Sodium 3,7,12-trioxo-5\u03b2-cholanate", "Suprachol", "Biliron"], "SMILES": "O=C1C2C3C(C)(C(C(CCC(O)=O)C)CC3)C(=O)CC2C4(C)C(C1)CC(=O)CC4.[Na]", "physical_data": {"Molecular Weight": "", "Molecular Formula": "C24H34O5.Na", "Melting Point": "237.5-238.5 \u00b0C"}}