{"cas_no": "145-94-8", "cn_name": "\u6c2f\u831a\u915a", "en_name": ["7-Chloro-2,3-dihydro-1H-inden-4-ol", "1H-Inden-4-ol, 7-chloro-2,3-dihydro-", "4-Indanol, 7-chloro-", "7-Chloro-2,3-dihydro-1H-inden-4-ol", "7-Chloro-4-indanol", "Clorindanol", "Lanesta", "Chlorindanol", "NSC 158565"], "SMILES": "ClC1=C2C(=C(O)C=C1)CCC2", "physical_data": {"Molecular Weight": "168.62", "Molecular Formula": "C9H9ClO", "Melting Point": "91-93 \u00b0C"}}