{"cas_no": "145-42-6", "cn_name": "\u725b\u78fa\u80c6\u9178\u94a0", "en_name": ["Sodium taurocholate", "Ethanesulfonic acid, 2-[[(3\u03b1,5\u03b2,7\u03b1,12\u03b1)-3,7,12-trihydroxy-24-oxocholan-24-yl]amino]-, sodium salt (1:1)", "Taurine, N-choloyl-, monosodium salt", "Ethanesulfonic acid, 2-[[(3\u03b1,5\u03b2,7\u03b1,12\u03b1)-3,7,12-trihydroxy-24-oxocholan-24-yl]amino]-, monosodium salt", "Taurocholic acid monosodium salt", "Sodium taurocholate", "Taurocholic acid sodium salt", "Taurocholate sodium", "Monosodium taurocholate"], "SMILES": "OC1C2C3C(C)(C(C(CCC(NCCS(=O)(=O)O)=O)C)CC3)C(O)CC2C4(C)C(C1)CC(O)CC4.[Na]", "physical_data": {"Molecular Weight": "", "Molecular Formula": "C26H45NO7S.Na", "Melting Point": "225-235 \u00b0C", "Density": "1.177 g/cm\u00b3 @ Temp: 22.5 \u00b0C"}}