{"cas_no": "145-14-2", "cn_name": "20\u0391-\u7f9f\u57fa\u9ec4\u4f53\u916e", "en_name": ["20\u03b1-Dihydroprogesterone", "Pregn-4-en-3-one, 20-hydroxy-, (20S)-", "Pregn-4-en-3-one, 20\u03b1-hydroxy-", "(20S)-20-Hydroxypregn-4-en-3-one", "20\u03b1-Dihydroprogesterone", "20\u03b1-Hydroxydihydroprogesterone", "20\u03b1-Hydroxy-\u03944-pregnen-3-one", "20\u03b1-Hydroxy-4-pregnen-3-one", "20\u03b1-Hydroxyprogesterone", "Pregn-4-ene-20\u03b1-ol-3-one", "\u03944-Pregnene-20\u03b1-ol-3-one", "Pregn-4-en-20\u03b1-ol-3-one", "20\u03b1-Progerol", "20\u03b1-Hydroxypregn-4-en-3-one", "20-Hydroxypregn-4-en-3-one", "Progesterol-20\u03b1", "4-Pregnen-3-one-20\u03b1-ol", "20(S)-Hydroxyprogesterone", "\u03944-Pregnen-20\u03b1-ol-3-one", "NSC 68630", "20\u03b1-Hydroxy-pregn-4-ene-3-one"], "SMILES": "CC12C3C(C4C(C)(CC3)C(C(C)O)CC4)CCC1=CC(=O)CC2", "physical_data": {"Molecular Weight": "316.48", "Molecular Formula": "C21H32O2", "Melting Point": "171-172 \u00b0C", "Density": "1.13 g/cm\u00b3"}}