{"cas_no": "1450-14-2", "cn_name": "\u516d\u7532\u57fa\u4e8c\u7845\u70f7", "en_name": ["Hexamethyldisilane", "Disilane, 1,1,1,2,2,2-hexamethyl-", "Disilane, hexamethyl-", "1,1,1,2,2,2-Hexamethyldisilane", "Hexamethyldisilane", "Permethyldisilane", "NSC 294211"], "SMILES": "[Si]([Si](C)(C)C)(C)(C)C", "physical_data": {"Molecular Weight": "146.38", "Molecular Formula": "C6H18Si2", "Boiling Point": "113.5 \u00b0C", "Melting Point": "13.5 \u00b0C", "Density": "0.729 g/cm\u00b3"}}