{"cas_no": "14508-49-7", "cn_name": "2-\u6c2f\u5421\u55ea", "en_name": ["Chloropyrazine", "Pyrazine, 2-chloro-", "Pyrazine, chloro-", "2-Chloropyrazine", "Chloropyrazine", "Pyrazin-2-yl chloride"], "SMILES": "ClC=1C=NC=CN1", "physical_data": {"Molecular Weight": "114.53", "Molecular Formula": "C4H3ClN2", "Boiling Point": "153.5 \u00b0C", "Melting Point": "99-100 \u00b0C", "Density": "1.28 g/cm\u00b3"}}