{"cas_no": "1450-74-4", "cn_name": "5'-\u6c2f-2'-\u7f9f\u57fa\u82ef\u4e59\u916e", "en_name": ["5\u2032-Chloro-2\u2032-hydroxyacetophenone", "Ethanone, 1-(5-chloro-2-hydroxyphenyl)-", "Acetophenone, 5\u2032-chloro-2\u2032-hydroxy-", "1-(5-Chloro-2-hydroxyphenyl)ethanone", "5\u2032-Chloro-2\u2032-hydroxyacetophenone", "2-Acetyl-4-chlorophenol", "2\u2032-Hydroxy-5\u2032-chloroacetophenone", "NSC 46622", "3-Chloro-6-hydroxyacetophenone", "1-(5-Chloro-2-hydroxyphenyl)ethan-1-one"], "SMILES": "C(C)(=O)C1=C(O)C=CC(Cl)=C1", "physical_data": {"Molecular Weight": "170.59", "Molecular Formula": "C8H7ClO2", "Boiling Point": "126-128 \u00b0C @ Press: 28 Torr", "Melting Point": "54 \u00b0C"}}