{"cas_no": "1450-63-1", "cn_name": "1,1,4,4-\u7532\u82ef\u57fa-1,3-\u4e01\u4e8c\u70ef", "en_name": ["1,1\u2032,1\u2032\u2032,1\u2032\u2032\u2032-(1,3-Butadiene-1,4-diylidene)tetrakis[benzene]", "Benzene, 1,1\u2032,1\u2032\u2032,1\u2032\u2032\u2032-(1,3-butadiene-1,4-diylidene)tetrakis-", "1,3-Butadiene, 1,1,4,4-tetraphenyl-", "1,1\u2032,1\u2032\u2032,1\u2032\u2032\u2032-(1,3-Butadiene-1,4-diylidene)tetrakis[benzene]", "1,1,4,4-Tetraphenylbutadiene", "1,1,4,4-Tetraphenyl-1,3-butadiene", "Tetraphenylbutadiene", "TPB (dopant)", "TPB", "NSC 12572", "1,1\u2032,4,4\u2032-Tetraphenyl-1,3-butadiene", "1,1\u2032,1\u2032\u2032,1\u2032\u2032\u2032-Buta-1,3-diene-1,1,4,4-tetrayltetrabenzene"], "SMILES": "C(=CC=C(C1=CC=CC=C1)C2=CC=CC=C2)(C3=CC=CC=C3)C4=CC=CC=C4", "physical_data": {"Molecular Weight": "358.47", "Molecular Formula": "C28H22", "Melting Point": "200 \u00b0C"}}