{"cas_no": "145040-37-5", "cn_name": "\u574e\u5730\u6c99\u5766\u916f", "en_name": ["Candesartan cilexetil", "1H-Benzimidazole-7-carboxylic acid, 2-ethoxy-1-[[2\u2032-(2H-tetrazol-5-yl)[1,1\u2032-biphenyl]-4-yl]methyl]-, 1-[[(cyclohexyloxy)carbonyl]oxy]ethyl ester", "1H-Benzimidazole-7-carboxylic acid, 2-ethoxy-1-[[2\u2032-(1H-tetrazol-5-yl)[1,1\u2032-biphenyl]-4-yl]methyl]-, 1-[[(cyclohexyloxy)carbonyl]oxy]ethyl ester, (\u00b1)-", "1H-Benzimidazole-7-carboxylic acid, 2-ethoxy-1-[[2\u2032-(1H-tetrazol-5-yl)[1,1\u2032-biphenyl]-4-yl]methyl]-, 1-[[(cyclohexyloxy)carbonyl]oxy]ethyl ester", "TCV 116", "(\u00b1)-1-Hydroxyethyl 2-ethoxy-1-[p-(o-1H-tetrazol-5-ylphenyl)l]-7-benzimidazolecarboxylate, cyclohexyl carbonate (ester)", "Candesartan cilexetil", "Atacand", "TCY 116", "Blopress", "2-Ethoxy-1-[(2\u2032-(1H-tetrazol-5-yl)-1,1\u2032-biphenyl-4-yl)methyl]-7-benzimidazolecarboxylic acid 1-(cyclohexyloxycarbonyloxy)ethyl ester", "1-[[(Cyclohexyloxy)carbonyl]oxy]ethyl 2-ethoxy-1-[[2\u2032-(1H-tetrazol-5-yl)biphenyl-4-yl]methyl]benzimidazole-7-carboxylate", "1-Cyclohexyloxycarbonyloxyethyl 2-ethoxy-3-[[4-[2-(2H-tetrazol-5-yl)phenyl]phenyl]methyl]benzimidazole-4-carboxylate", "1-[[(Cyclohexyloxy)carbonyl]oxy]ethyl 2-ethoxy-1-([4-[2-(1H-1,2,3,4-tetrazol-5-yl)phenyl]phenyl]methyl)-1H-1,3-benzodiazole-7-carboxylate"], "SMILES": "C(N1C=2C(N=C1OCC)=CC=CC2C(OC(OC(OC3CCCCC3)=O)C)=O)C4=CC=C(C=C4)C5=C(C=CC=C5)C=6NN=NN6", "physical_data": {"Molecular Weight": "610.66", "Molecular Formula": "C33H34N6O6", "Melting Point": "163 \u00b0C (decomp)"}}