{"cas_no": "1450-72-2", "cn_name": "2-\u7f9f\u57fa-5-\u7532\u57fa\u82ef\u4e59\u916e", "en_name": ["2\u2032-Hydroxy-5\u2032-methylacetophenone", "Ethanone, 1-(2-hydroxy-5-methylphenyl)-", "Acetophenone, 2\u2032-hydroxy-5\u2032-methyl-", "1-(2-Hydroxy-5-methylphenyl)ethanone", "2\u2032-Hydroxy-5\u2032-methylacetophenone", "2-Acetyl-4-methylphenol", "o-Acetyl-p-cresol", "5\u2032-Methyl-2\u2032-hydroxyacetophenone", "NSC 26458", "NSC 63363", "1-(2-Hydroxy-5-methylphenyl)ethan-1-one"], "SMILES": "C(C)(=O)C1=C(O)C=CC(C)=C1", "physical_data": {"Molecular Weight": "150.17", "Molecular Formula": "C9H10O2", "Boiling Point": "210 \u00b0C", "Melting Point": "50 \u00b0C"}}