{"cas_no": "1450-94-8", "cn_name": "1-\u7532\u57fa-1H-\u54aa\u5511-2-\u80fa\u76d0\u9178\u76d0", "en_name": ["1H-Imidazol-2-amine, 1-methyl-, hydrochloride (1:1)", "1H-Imidazol-2-amine, 1-methyl-, hydrochloride (1:1)", "Imidazole, 2-amino-1-methyl-, monohydrochloride", "1H-Imidazol-2-amine, 1-methyl-, monohydrochloride", "1-Methyl-1H-imidazol-2-amine monohydrochloride", "1-Methyl-1H-imidazol-2-amine hydrochloride"], "SMILES": "NC=1N(C)C=CN1.Cl", "physical_data": {"Molecular Weight": "", "Molecular Formula": "C4H7N3.ClH", "Melting Point": "84.5 \u00b0C"}}