{"cas_no": "1450-76-6", "cn_name": "2-\u7f9f\u57fa-5-\u785d\u57fa\u82ef\u4e59\u916e", "en_name": ["1-(2-Hydroxy-5-nitrophenyl)ethanone", "Ethanone, 1-(2-hydroxy-5-nitrophenyl)-", "Acetophenone, 2\u2032-hydroxy-5\u2032-nitro-", "1-(2-Hydroxy-5-nitrophenyl)ethanone", "2\u2032-Hydroxy-5\u2032-nitroacetophenone", "5\u2032-Nitro-2\u2032-hydroxyacetophenone", "2-Acetyl-4-nitrophenol", "NSC 64461", "1-(2-Hydroxy-5-nitrophenyl)ethan-1-one"], "SMILES": "C(C)(=O)C1=CC(N(=O)=O)=CC=C1O", "physical_data": {"Molecular Weight": "181.15", "Molecular Formula": "C8H7NO4", "Melting Point": "99.5 \u00b0C"}}