{"cas_no": "1450-29-9", "cn_name": "\u4e8c\u4e59\u70ef\u57fa\u56db\u7532\u57fa\u4e8c\u7845\u70f7", "en_name": ["1,2-Diethenyl-1,1,2,2-tetramethyldisilane", "Disilane, 1,2-diethenyl-1,1,2,2-tetramethyl-", "Disilane, 1,1,2,2-tetramethyl-1,2-divinyl-", "1,2-Diethenyl-1,1,2,2-tetramethyldisilane", "1,1,2,2-Tetramethyl-1,2-divinyldisilane", "Tetramethyl-1,2-divinyldisilane", "1,2-Divinyltetramethyldisilane", "1,2-Divinyl-1,1,2,2-tetramethyldisilane"], "SMILES": "[Si]([Si](C=C)(C)C)(C=C)(C)C", "physical_data": {"Molecular Weight": "170.40", "Molecular Formula": "C8H18Si2", "Boiling Point": "55 \u00b0C @ Press: 21 Torr", "Density": "0.780 g/cm\u00b3"}}