{"cas_no": "1450-75-5", "cn_name": "2-\u7f9f\u57fa-5-\u6eb4\u82ef\u4e59\u916e", "en_name": ["5\u2032-Bromo-2\u2032-hydroxyacetophenone", "Ethanone, 1-(5-bromo-2-hydroxyphenyl)-", "Acetophenone, 5\u2032-bromo-2\u2032-hydroxy-", "1-(5-Bromo-2-hydroxyphenyl)ethanone", "5\u2032-Bromo-2\u2032-hydroxyacetophenone", "5-Bromo-2-hydroxyacetophenone", "5\u2032-Bromo-o-hydroxyacetophenone", "2-Acetyl-4-bromophenol", "2\u2032-Hydroxy-5\u2032-bromoacetophenone", "3-Bromo-6-hydroxyphenyl methyl ketone", "NSC 46621", "1-(5-Bromo-2-hydroxyphenyl)ethan-1-one"], "SMILES": "C(C)(=O)C1=C(O)C=CC(Br)=C1", "physical_data": {"Molecular Weight": "215.04", "Molecular Formula": "C8H7BrO2", "Boiling Point": "135-143 \u00b0C @ Press: 16 Torr", "Melting Point": "56 \u00b0C"}}