{"cas_no": "1450-85-7", "cn_name": "2-\u5def\u57fa\u54cc\u5576", "en_name": ["2-Mercaptopyrimidine", "2(1H)-Pyrimidinethione", "2-Pyrimidinethiol", "2-Mercaptopyrimidine", "2-Thiopyrimidine", "2-Pyrimidinethione", "1H-Pyrimidine-2-thione", "2-Sulfanylpyrimidine", "NSC 193522", "NSC 321197", "NSC 321198", "NSC 48073", "1,2-Dihydropyrimidine-2-thione"], "SMILES": "S=C1NC=CC=N1", "physical_data": {"Molecular Weight": "112.15", "Molecular Formula": "C4H4N2S", "Melting Point": "230 \u00b0C (decomp)"}}