{"cas_no": "1450-23-3", "cn_name": "\u516d\u82ef\u57fa\u4e8c\u7845\u70f7", "en_name": ["1,1,1,2,2,2-Hexaphenyldisilane", "Disilane, 1,1,1,2,2,2-hexaphenyl-", "Disilane, hexaphenyl-", "1,1,1,2,2,2-Hexaphenyldisilane", "Hexaphenyldisilane", "NSC 215174", "NSC 43100"], "SMILES": "[Si]([Si](C1=CC=CC=C1)(C2=CC=CC=C2)C3=CC=CC=C3)(C4=CC=CC=C4)(C5=CC=CC=C5)C6=CC=CC=C6", "physical_data": {"Molecular Weight": "518.79", "Molecular Formula": "C36H30Si2", "Melting Point": "360-362 \u00b0C"}}