{"cas_no": "1450-93-7", "cn_name": "2-\u6c28\u57fa\u54aa\u5511\u786b\u9178\u76d0", "en_name": ["1H-Imidazol-2-amine, sulfate (2:1)", "1H-Imidazol-2-amine, sulfate (2:1)", "Imidazole, 2-amino-, sulfate (2:1)", "2-Aminoimidazolium sulfate", "2-Aminoimidazole hemisulfate", "2-Aminoimidazole sulfate (2:1)", "1H-Imidazol-2-amine hemisulfate"], "SMILES": "S(=O)(=O)(O)O.NC=1NC=CN1", "physical_data": {"Molecular Weight": "", "Molecular Formula": "C3H5N3.<sup>1</sup>/2H2O4S", "Melting Point": "275-278 \u00b0C"}}