{"cas_no": "145022-44-2", "cn_name": "1-\u4e59\u57fa-3-\u7532\u57fa\u54aa\u5511\u4e09\u6c1f\u7532\u78fa\u9178\u76d0", "en_name": ["1-Ethyl-3-methylimidazolium trifluoromethanesulfonate", "1H-Imidazolium, 3-ethyl-1-methyl-, 1,1,1-trifluoromethanesulfonate (1:1)", "1H-Imidazolium, 1-ethyl-3-methyl-, salt with trifluoromethanesulfonic acid (1:1)", "1-Ethyl-3-methylimidazolium triflate", "1-Ethyl-3-methylimidazolium trifluoromethanesulfonate", "1-Ethyl-3-methylimidazolium trifluoromethylsulfonate(1-)", "3-Ethyl-1-methylimidazolium triflate", "1-Ethyl-3-methyl-1H-imidazolium trifluoromethanesulfonate", "1-Methyl-3-ethylimidazolium trifluoromethylsulfonate", "1-Methyl-3-ethylimidazolium trifluoromethanesulfonate", "1-Ethyl-3-methylimidazolium trifluoromethylsulfonate", "1-Ethyl-3-methylimidazolium triflouromethansulfonate", "1-Ethyl-3-methylimidazolium trifluoromethanesulfonate(1-)", "1-Ethyl-3-methylimidazolinium triflate", "1-Ethyl-3-methylimidazolium trifluoromethanesufonate"], "SMILES": "C(S(=O)(=O)[O-])(F)(F)F.C(C)[N+]1=CN(C)C=C1", "physical_data": {"Molecular Weight": "", "Molecular Formula": "C6H11N2.CF3O3S", "Boiling Point": "388.9 \u00b0C", "Melting Point": "-10 \u00b0C", "Density": "1.3572 g/cm\u00b3"}}