{"cas_no": "145038-53-5", "cn_name": "Fmoc-L-\u5929\u51ac\u6c28\u9178 4-\u7532\u916f", "en_name": ["4-Methyl hydrogen N-[(9H-fluoren-9-ylmethoxy)carbonyl]-L-aspartate", "L-Aspartic acid, N-[(9H-fluoren-9-ylmethoxy)carbonyl]-, 4-methyl ester", "4-Methyl hydrogen N-[(9H-fluoren-9-ylmethoxy)carbonyl]-L-aspartate", "N-9-Fluorenylmethoxycarbonylaspartic acid \u03b2-methyl ester", "(S)-2-((((9H-Fluoren-9-yl)methoxy)carbonyl)amino]-4-methoxy-4-oxobutanoic acid", "(2S)-2-([[(9H-Fluoren-9-yl)methoxy]carbonyl]amino)-4-methoxy-4-oxobutanoic acid", "(2S)-2-[[(9H-Fluoren-9-ylmethoxy)carbonyl]amino]-4-methoxy-4-oxobutanoic acid"], "SMILES": "C(OC(NC(CC(OC)=O)C(O)=O)=O)C1C=2C(C=3C1=CC=CC3)=CC=CC2", "physical_data": {"Molecular Weight": "369.37", "Molecular Formula": "C20H19NO6", "Melting Point": "122-125 \u00b0C"}}