{"cas_no": "14509-66-1", "cn_name": "7,8-DIHYDROIMIDAZO[1,5-F]PYRIMIDIN-5(6H)-ONE", "en_name": ["7,8-Dihydroimidazo[1,5-c]pyrimidin-5(6H)-one", "Imidazo[1,5-c]pyrimidin-5(6H)-one, 7,8-dihydro-", "7,8-Dihydroimidazo[1,5-c]pyrimidin-5(6H)-one", "5,6,7,8-Tetrahydro-5-oxoimidazo[1,5-c]pyrimidine", "5,6,7,8-Tetrahydroimidazo[1,5-c]pyrimidin-5-one", "7,8-Dihydroimidazo-[1,5-c]-pyrimidin-5(6H)-one", "7,8-Dihydro-6H-imidazo[5,1-f]pyrimidin-5-one"], "SMILES": "O=C1N2C(CCN1)=CN=C2", "physical_data": {"Molecular Weight": "137.14", "Molecular Formula": "C6H7N3O", "Melting Point": "218-219 \u00b0C"}}