{"cas_no": "145100-51-2", "cn_name": "2-[N,\u6b63\u53cc(\u4e09\u6c1f\u7532\u70f7\u70f7\u78fa\u9170)\u6c28\u57fa]-5-\u6c2f\u5421\u5576", "en_name": ["N-(5-Chloro-2-pyridyl)triflimide", "Methanesulfonamide, N-(5-chloro-2-pyridinyl)-1,1,1-trifluoro-N-[(trifluoromethyl)sulfonyl]-", "N-(5-Chloro-2-pyridinyl)-1,1,1-trifluoro-N-[(trifluoromethyl)sulfonyl]methanesulfonamide", "2-[N,N-Bis(trifluoromethylsulfonyl)amino]-5-chloropyridine", "N-(5-Chloro-2-pyridyl)triflimide", "Comins' reagent", "NSC 683533", "N-(5-Chloropyridin-2-yl)-1,1,1-trifluoro-N-[(trifluoromethyl)sulfonyl]methanesulfonamide", "N,N-Bis(trifluoromethylsulfonyl)-5-chloro-2-pyridinamine", "N,N-Bis(trifluoromethylsulfonyl)-5-chloro-2-pyridylamine", "N-(5-Chloro-2-pyridyl)-N-(trifluoromethanesulfonyl)trifluoromethanesulfonamide", "2-[N,N-Bis(trifluoromethanesulfonyl)amino]-5-chloropyridine", "1-[N,N-Bis(trifluoromethylsulfonyl)amino]-5-chloropyridine", "2-[N,N-Bis(Trifluoromethylsulphonyl)amino]-5-chloropyridine"], "SMILES": "N(S(C(F)(F)F)(=O)=O)(S(C(F)(F)F)(=O)=O)C1=CC=C(Cl)C=N1", "physical_data": {"Molecular Weight": "392.68", "Molecular Formula": "C7H3ClF6N2O4S2", "Melting Point": "46-48 \u00b0C"}}