{"cas_no": "1451-83-8", "cn_name": "2-bromo-3-methylpropiophenone", "en_name": ["2-Bromo-1-(3-methylphenyl)-1-propanone", "1-Propanone, 2-bromo-1-(3-methylphenyl)-", "Propiophenone, 2-bromo-3\u2032-methyl-", "2-Bromo-1-(3-methylphenyl)-1-propanone", "2-Bromo-1-(3-methylphenyl)propan-1-one", "2-Bromo-3\u2032-methylpropiophenone", "2-Bromo-1-(m-tolyl)propan-1-one"], "SMILES": "C(C(Br)C)(=O)C1=CC(C)=CC=C1", "physical_data": {"Molecular Weight": "227.10", "Molecular Formula": "C10H11BrO", "Boiling Point": "134-135 \u00b0C @ Press: 8 Torr"}}