{"cas_no": "145127-38-4", "cn_name": "(3-\u5417\u5549\u82ef\u57fa)\u7532\u9187", "en_name": ["3-(4-Morpholinyl)benzenemethanol", "Benzenemethanol, 3-(4-morpholinyl)-", "3-(4-Morpholinyl)benzenemethanol", "[3-(Morpholin-4-yl)phenyl]methanol", "(3-Morpholinophenyl)methanol", "3-Morpholinobenzenemethanol"], "SMILES": "C(O)C=1C=C(C=CC1)N2CCOCC2", "physical_data": {"Molecular Weight": "193.24", "Molecular Formula": "C11H15NO2", "Melting Point": "52-53 \u00b0C"}}