{"cas_no": "14513-34-9", "cn_name": "3-\u7532\u57fa\u4e19\u70ef\u9170\u6c27\u57fa\u4e19\u57fa\u7532\u57fa\u4e8c\u7532\u6c27\u57fa\u7845\u70f7", "en_name": ["3-Methacryloxypropylmethyldimethoxysilane", "2-Propenoic acid, 2-methyl-, 3-(dimethoxymethylsilyl)propyl ester", "Methacrylic acid, 3-(dimethoxymethylsilyl)propyl ester", "1-Propanol, 3-(dimethoxymethylsilyl)-, methacrylate", "(\u03b3-Methacryloxypropyl)dimethoxymethylsilane", "KBM 502", "(\u03b3-Methacryloyloxypropyl)methyldimethoxysilane", "3-(Dimethoxymethylsilyl)propyl methacrylate", "(3-Methacryloyloxypropyl)dimethoxymethylsilane", "(\u03b3-Methacryloxypropyl)methyldimethoxysilane", "(3-Methacryloxypropyl)dimethoxymethylsilane", "[\u03b3-(Methacryloyloxy)propyl]dimethoxymethylsilane", "SS 1550", "AY 43-060", "\u03b3-(Dimethoxymethylsilyl)propyl methacrylate", "3-Methacryloxypropylmethyldimethoxysilane", "(Methacryloxypropyl)methyldimethoxysilane", "Y 9910", "LS 3375", "Z 6033", "Dimethoxy[3-(methacryloyloxy)propyl]methylsilane", "(3-Methacryloyloxypropyl)methyldimethoxysilane", "KH 571", "Methacryloxypropyldimethoxymethylsilane", "ZH 571", "DB 571", "Dimethoxymethylsilylpropyl methacrylate", "Dowsil Z 6033"], "SMILES": "[Si](CCCOC(C(C)=C)=O)(OC)(OC)C", "physical_data": {"Molecular Weight": "232.35", "Molecular Formula": "C10H20O4Si", "Boiling Point": "65 \u00b0C @ Press: 0.35 Torr", "Density": "1 g/cm\u00b3"}}