{"cas_no": "14517-44-3", "cn_name": "H-MET-GLU-OH", "en_name": ["Methionylglutamic acid", "L-Glutamic acid, L-methionyl-", "Glutamic acid, N-L-methionyl-, L-", "L-Glutamic acid, N-L-methionyl-", "Glutamic acid, N-L-methionyl-", "L-Methionyl-L-glutamic acid", "Methionylglutamic acid", "4: PN: KR20160137004 SEQID: 4 claimed sequence", "8: PN: CN113637688 SEQID: 8 claimed protein"], "SMILES": "C(NC(C(CCSC)N)=O)(CCC(O)=O)C(O)=O", "physical_data": {"Molecular Weight": "278.33", "Molecular Formula": "C10H18N2O5S", "Melting Point": "205-206 \u00b0C"}}