{"cas_no": "14523-22-9", "cn_name": "\u56db\u7fb0\u57fa\u4e8c\u6c2f\u5316\u4e8c\u94d1", "en_name": ["Rhodium, tetracarbonyldi-\u03bc-chlorodi-", "Rhodium, tetracarbonyldi-\u03bc-chlorodi-", "Bis(dicarbonylrhodium chloride)", "Rhodium dicarbonyl chloride dimer", "Tetracarbonyldi-\u03bc-chlorodirhodium", "Tetracarbonyl-\u03bc,\u03bc\u2032-dichlorodirhodium", "Tetracarbonyldichlorodirhodium", "Chlorodicarbonylrhodium dimer", "Rhodium carbonyl chloride dimer", "Dicarbonylchlororhodium dimer", "Dichlorodirhodiumtetracarbonyl", "\u03bc-Dichlorotetracarbonyldirhodium", "Di-\u03bc-Chlorotetracarbonyldirhodium(I)", "Tetracarbonyl-\u03bc,\u03bc\u2032-dichlorodirhodium(I)", "Bis(dicarbonylchlororhodium)", "Dirhodium tetracarbonyl dichloride", "Bis(chlororhodiumdicarbonyl)", "Tetracarbonylbis(\u03bc-chloro)dirhodium", "Chlororhodium dicarbonyl dimer", "Dicarbonylrhodium chloride dimer", "Rhodium carbonyl chloride (Rh2(CO)4Cl2)", "Dichlorotetracarbonyldirhodium", "Bis(dicarbonyl(\u03bc-chloro)rhodium)", "NSC 120116", "Bis(\u03bc-chloro)bis(dicarbonylrhodium)"], "SMILES": "C(#O)[Rh+]1(C#O)[Cl-][Rh+](C#O)(C#O)[Cl-]1", "physical_data": {"Molecular Weight": "", "Molecular Formula": "C4Cl2O4Rh2", "Melting Point": "123 \u00b0C"}}