{"cas_no": "14527-41-4", "cn_name": "\u567b\u5511-5-\u7532\u9178", "en_name": ["5-Thiazolecarboxylic acid", "5-Thiazolecarboxylic acid", "RU 22154", "1,3-Thiazole-5-carboxylic acid", "5-Thiazolecarboxylic acid, hydrate (1:1)"], "SMILES": "C(O)(=O)C1=CN=CS1", "physical_data": {"Molecular Weight": "129.14", "Molecular Formula": "C4H3NO2S", "Boiling Point": "107-108 \u00b0C @ Press: 10 Torr", "Melting Point": "196-197 \u00b0C"}}