{"cas_no": "1452-77-3", "cn_name": "2-\u5421\u5576\u7532\u9170\u80fa", "en_name": ["2-Pyridinecarboxamide", "2-Pyridinecarboxamide", "Picolinamide", "\u03b1-Picolinic acid amide", "\u03b1-Pyridinecarboxamide", "Picolinoylamide", "2-Carbamoylpyridine", "Picolinic acid amide", "\u03b1-(Aminocarbonyl)pyridine", "\u03b1-Picolinamide", "NSC 524473", "Pyridine-2-carboxamide"], "SMILES": "C(N)(=O)C1=CC=CC=N1", "physical_data": {"Molecular Weight": "122.12", "Molecular Formula": "C6H6N2O", "Boiling Point": "143 \u00b0C", "Melting Point": "110 \u00b0C (decomp)"}}