{"cas_no": "14529-54-5", "cn_name": "3,5-\u4e8c\u6eb4-1-\u7532\u57fa\u5421\u5576-2(1H)-\u916e", "en_name": ["3,5-Dibromo-1-methylpyridin-2(1H)-one", "2(1H)-Pyridinone, 3,5-dibromo-1-methyl-", "2(1H)-Pyridone, 3,5-dibromo-1-methyl-", "3,5-Dibromo-1-methyl-2(1H)-pyridinone", "3,5-Dibromo-1-methyl-2(1H)-pyridone", "1-Methyl-3,5-dibromo-2-pyridone", "3,5-Dibromo-1-methyl-1H-pyridin-2-one", "3,5-Dibromo-1-methylpyridin-2(1H)-one", "3,5-Dibromo-1-methylpyridin-2-one", "3,5-Dibromo-1-methyl-1,2-dihydropyridin-2-one"], "SMILES": "O=C1C(Br)=CC(Br)=CN1C", "physical_data": {"Molecular Weight": "266.92", "Molecular Formula": "C6H5Br2NO", "Melting Point": "182 \u00b0C"}}