{"cas_no": "1452-15-9", "cn_name": "4-\u6c30\u57fa\u567b\u5511", "en_name": ["4-Thiazolecarbonitrile", "4-Thiazolecarbonitrile", "4-Cyanothiazole", "1,3-Thiazole-4-carbonitrile"], "SMILES": "C(#N)C1=CSC=N1", "physical_data": {"Molecular Weight": "110.14", "Molecular Formula": "C4H2N2S", "Boiling Point": "100-120 \u00b0C @ Press: 20 Torr", "Melting Point": "60-61 \u00b0C"}}