{"cas_no": "14529-53-4", "cn_name": "2-\u4e59\u6c27\u57fa\u5421\u5576", "en_name": ["2-Ethoxypyridine", "Pyridine, 2-ethoxy-", "2-Ethoxypyridine"], "SMILES": "O(CC)C1=CC=CC=N1", "physical_data": {"Molecular Weight": "123.15", "Molecular Formula": "C7H9NO", "Boiling Point": "75-90 \u00b0C @ Press: 15 Torr", "Melting Point": "122 \u00b0C"}}