{"cas_no": "1453-58-3", "cn_name": "3-\u7532\u57fa\u5421\u5511", "en_name": ["3-Methylpyrazole", "1H-Pyrazole, 3-methyl-", "Pyrazole, 3-methyl-", "Pyrazole, 3(or 5)-methyl-", "3-Methyl-1H-pyrazole", "3-Methylpyrazole", "5-Methylpyrazole"], "SMILES": "CC=1C=CNN1", "physical_data": {"Molecular Weight": "82.10", "Molecular Formula": "C4H6N2", "Boiling Point": "204 \u00b0C", "Melting Point": "36.5 \u00b0C", "Density": "1.0206 g/cm\u00b3 @ Temp: 14 \u00b0C"}}