{"cas_no": "1453-93-6", "cn_name": "\u539f\u4eba\u53c2\u4e09\u9187", "en_name": ["Protopanaxatriol", "Dammar-24-ene-3,6,12,20-tetrol, (3\u03b2,6\u03b1,12\u03b2,20R)-", "Dammar-24-ene-3\u03b2,6\u03b1,12\u03b2,20-tetrol, (20R)-", "(3\u03b2,6\u03b1,12\u03b2,20R)-Dammar-24-ene-3,6,12,20-tetrol", "Protopanaxatriol", "20(R)-Protopanaxatriol", "20(R)-APPT"], "SMILES": "CC12C3(C)C(C(C(CCC=C(C)C)(C)O)CC3)C(O)CC1C4(C)C(C(O)C2)C(C)(C)C(O)CC4", "physical_data": {"Molecular Weight": "476.73", "Molecular Formula": "C30H52O4", "Melting Point": "261-263 \u00b0C"}}