{"cas_no": "14538-51-3", "cn_name": "2,3-\u53cc(\u7f9f\u57fa\u6c28\u57fa)-2,3-\u4e8c\u7532\u57fa\u4e01\u70f7\u786b\u9178\u76d0", "en_name": ["2,3-Butanediamine, N2,N3-dihydroxy-2,3-dimethyl-, sulfate (1:1)", "2,3-Butanediamine, N2,N3-dihydroxy-2,3-dimethyl-, sulfate (1:1)", "2,3-Butanediamine, N,N\u2032-dihydroxy-2,3-dimethyl-, sulfate (1:1) (salt)", "Hydroxylamine, N,N\u2032-(tetramethylethylene)bis-, 1sulfate (1:1) (salt)", "2,3-Bis(hydroxylamino)-2,3-dimethylbutane sulfuric acid salt", "2,3-Bis(hydroxyamino)-2,3-dimethylbutane sulfate", "2,3-Dimethyl-2,3-bis(hydroxylammonium)butane sulfate", "2,3-Bis(hydroxylamino)-2,3-dimethylbutane monosulfate", "2,3-Bis(hydroxylammonium)-2,3-dimethylbutane sulfate", "N,N\u2032-Dihydroxy-2,3-diamino-2,3-dimethylbutane sulfate", "2,3-Bis(hydroxylamino)-2,3-dimethylbutane sulfate", "N,N\u2032-Dihydroxy-2,3-dimethylbutane-2,3-diamine monosulfate"], "SMILES": "S(=O)(=O)(O)O.C(C(NO)(C)C)(NO)(C)C", "physical_data": {"Molecular Weight": "", "Molecular Formula": "C6H16N2O2.H2O4S", "Melting Point": "172-174 \u00b0C"}}