{"cas_no": "1453-82-3", "cn_name": "4-\u5421\u5576\u7532\u9170\u80fa", "en_name": ["Isonicotinamide", "4-Pyridinecarboxamide", "Isonicotinamide", "Isonicotinic acid amide", "\u03b3-Pyridinecarboxamide", "4-Carbamoylpyridine", "4-(Aminocarbonyl)pyridine", "Isoniacinamide", "4-Amidopyridine", "NSC 82353", "Pyridine-4-carbamide", "4-Pyridinecarboxylic acid amide"], "SMILES": "C(N)(=O)C=1C=CN=CC1", "physical_data": {"Molecular Weight": "122.12", "Molecular Formula": "C6H6N2O", "Melting Point": "155-157 \u00b0C"}}