{"cas_no": "14531-55-6", "cn_name": "3,5-\u4e8c\u7532\u57fa-4-\u785d\u57fa\u5421\u5511", "en_name": ["3,5-Dimethyl-4-nitropyrazole", "1H-Pyrazole, 3,5-dimethyl-4-nitro-", "Pyrazole, 3,5-dimethyl-4-nitro-", "3,5-Dimethyl-4-nitro-1H-pyrazole", "4-Nitro-3,5-dimethylpyrazole", "3,5-Dimethyl-4-nitropyrazole"], "SMILES": "N(=O)(=O)C=1C(C)=NNC1C", "physical_data": {"Molecular Weight": "141.13", "Molecular Formula": "C5H7N3O2", "Melting Point": "123-124 \u00b0C"}}