{"cas_no": "1453-97-0", "cn_name": "5-\u82c4\u6c27\u57fa\u82a6\u7af9\u78b1", "en_name": ["N,N-Dimethyl-5-(phenylmethoxy)-1H-indole-3-methanamine", "1H-Indole-3-methanamine, N,N-dimethyl-5-(phenylmethoxy)-", "Indole, 5-(benzyloxy)-3-[(dimethylamino)methyl]-", "N,N-Dimethyl-5-(phenylmethoxy)-1H-indole-3-methanamine", "5-Benzyloxygramine", "NSC 17819", "5-Benzyloxy-3-(dimethylaminomethyl)indole", "1-(5-(Benzyloxy)-1H-indol-3-yl)-N,N-dimethylmethanamine", "PSX 01"], "SMILES": "C(N(C)C)C=1C=2C(NC1)=CC=C(OCC3=CC=CC=C3)C2", "physical_data": {"Molecular Weight": "280.36", "Molecular Formula": "C18H20N2O", "Melting Point": "138 \u00b0C"}}