{"cas_no": "14532-24-2", "cn_name": "2-\u5df1\u57fa\u78fa\u9170\u6c2f", "en_name": ["1-Hexanesulfonyl chloride", "1-Hexanesulfonyl chloride", "Hexylsulfonyl chloride", "Hexanesulfonyl chloride", "n-Hexylsulfonyl chloride"], "SMILES": "C(CS(Cl)(=O)=O)CCCC", "physical_data": {"Molecular Weight": "184.68", "Molecular Formula": "C6H13ClO2S", "Boiling Point": "92-93 \u00b0C @ Press: 4-5 Torr", "Melting Point": "-9 \u00b0C", "Density": "1.1283 g/cm\u00b3 @ Temp: 20 \u00b0C"}}