{"cas_no": "14531-52-3", "cn_name": "\u4e8c\u6c22\u8d64\u677e\u7d20", "en_name": ["Dihydropinosylvin", "1,3-Benzenediol, 5-(2-phenylethyl)-", "Resorcinol, 5-phenethyl-", "5-(2-Phenylethyl)-1,3-benzenediol", "Dihydropinosylvin", "5-Phenethylresorcinol"], "SMILES": "C(CC1=CC=CC=C1)C2=CC(O)=CC(O)=C2", "physical_data": {"Molecular Weight": "214.26", "Molecular Formula": "C14H14O2", "Boiling Point": "167-169 \u00b0C @ Press: 1 Torr"}}