{"cas_no": "14542-16-6", "cn_name": "4-\u7532\u57fa\u567b\u5511-2-\u7fa7\u9178", "en_name": ["4-Methyl-2-thiazolecarboxylic acid", "2-Thiazolecarboxylic acid, 4-methyl-", "4-Methyl-2-thiazolecarboxylic acid", "4-Methylthiazole-2-carboxylic acid", "4-Methyl-1,3-thiazole-2-carboxylic acid"], "SMILES": "C(O)(=O)C1=NC(C)=CS1", "physical_data": {"Molecular Weight": "143.16", "Molecular Formula": "C5H5NO2S", "Boiling Point": "122 \u00b0C @ Press: 5 Torr", "Melting Point": "99 \u00b0C"}}