{"cas_no": "1454-80-4", "cn_name": "2,2\u02ca-\u4e8c\u6c28\u57fa\u8054\u82ef", "en_name": ["2,2\u2032-Diaminobiphenyl", "[1,1\u2032-Biphenyl]-2,2\u2032-diamine", "2,2\u2032-Biphenyldiamine", "o,o\u2032-Diaminobiphenyl", "2,2\u2032-Diaminobiphenyl", "2,2\u2032-Diaminodiphenyl", "o-Benzidine", "2,2\u2032-Diamino-1,1\u2032-biphenyl", "NSC 99367", "o-Dianiline", "2-(2-Aminophenyl)aniline"], "SMILES": "NC1=C(C=CC=C1)C2=C(N)C=CC=C2", "physical_data": {"Molecular Weight": "184.24", "Molecular Formula": "C12H12N2", "Boiling Point": "162 \u00b0C", "Melting Point": "81 \u00b0C"}}