{"cas_no": "1454-53-1", "cn_name": "1-\u82c4\u57fa-3-\u4e59\u6c27\u7fb0\u57fa-4-\u54cc\u5576\u916e\u76d0\u9178\u76d0", "en_name": ["3-Piperidinecarboxylic acid, 4-oxo-1-(phenylmethyl)-, ethyl ester, hydrochloride (1:1)", "3-Piperidinecarboxylic acid, 4-oxo-1-(phenylmethyl)-, ethyl ester, hydrochloride (1:1)", "Nipecotic acid, 1-benzyl-4-oxo-, ethyl ester, hydrochloride", "3-Piperidinecarboxylic acid, 4-oxo-1-(phenylmethyl)-, ethyl ester, hydrochloride", "1-Benzyl-3-(ethoxycarbonyl)-4-piperidone hydrochloride", "N-Benzyl-3-carbethoxy-4-piperidone hydrochloride", "Ethyl 1-benzyl-4-oxopiperidine-3-carboxylate hydrochloride", "NSC 15156", "1-Benzyl-4-oxopiperidine-3-carboxylic acid ethyl ester hydrochloride", "1-Benzyl-3-carbethoxy-4-piperidone hydrochloride"], "SMILES": "C(N1CC(C(OCC)=O)C(=O)CC1)C2=CC=CC=C2.Cl", "physical_data": {"Molecular Weight": "", "Molecular Formula": "C15H19NO3.ClH", "Melting Point": "175 \u00b0C (decomp)"}}