{"cas_no": "145414-76-2", "cn_name": "\u4e8c\u7f9f\u57fa\u9999\u67e0\u6aac\u7d20", "en_name": ["6\u2032,7\u2032-Dihydroxybergamottin", "7H-Furo[3,2-g][1]benzopyran-7-one, 4-[[(2E)-6,7-dihydroxy-3,7-dimethyl-2-octen-1-yl]oxy]-", "7H-Furo[3,2-g][1]benzopyran-7-one, 4-[(6,7-dihydroxy-3,7-dimethyl-2-octenyl)oxy]-, (E)-", "7H-Furo[3,2-g][1]benzopyran-7-one, 4-[[(2E)-6,7-dihydroxy-3,7-dimethyl-2-octenyl]oxy]-", "4-[[(2E)-6,7-Dihydroxy-3,7-dimethyl-2-octen-1-yl]oxy]-7H-furo[3,2-g][1]benzopyran-7-one", "6\u2032,7\u2032-Dihydroxybergamottin", "Dihydroxybergamottin", "6,7-Dihydroxybergagamottin"], "SMILES": "O(CC=C(CCC(C(C)(C)O)O)C)C=1C2=C(C=C3C1C=CO3)OC(=O)C=C2", "physical_data": {"Molecular Weight": "372.41", "Molecular Formula": "C21H24O6", "Melting Point": "112-113 \u00b0C"}}