{"cas_no": "14548-46-0", "cn_name": "4-\u82ef\u7532\u9170\u5421\u5576", "en_name": ["4-Benzoylpyridine", "Methanone, phenyl-4-pyridinyl-", "Ketone, phenyl 4-pyridyl", "Phenyl-4-pyridinylmethanone", "4-Pyridyl phenyl ketone", "4-Benzoylpyridine", "Ba 33215", "Phenyl 4-pyridyl ketone", "\u03b3-Benzoylpyridine", "Phenyl(4-pyridinyl)methanone", "NSC 9488"], "SMILES": "C(=O)(C1=CC=CC=C1)C=2C=CN=CC2", "physical_data": {"Molecular Weight": "183.21", "Molecular Formula": "C12H9NO", "Boiling Point": "315 \u00b0C", "Melting Point": "72 \u00b0C"}}