{"cas_no": "14543-45-4", "cn_name": "4-\u6c28\u57fa-3-\u5def\u57fa\u82ef\u7532 \u9178", "en_name": ["4-Amino-3-mercaptobenzoic acid", "Benzoic acid, 4-amino-3-mercapto-", "4-Amino-3-mercaptobenzoic acid", "3-Mercapto-4-aminobenzoic acid"], "SMILES": "C(O)(=O)C1=CC(S)=C(N)C=C1", "physical_data": {"Molecular Weight": "169.20", "Molecular Formula": "C7H7NO2S", "Melting Point": "290 \u00b0C (decomp)"}}