{"cas_no": "14548-48-2", "cn_name": "4-(4-\u6c2f\u82c4\u6c27\u57fa)\u5421\u5576", "en_name": ["4-(4-Chlorobenzoyl)pyridine", "Methanone, (4-chlorophenyl)-4-pyridinyl-", "Ketone, p-chlorophenyl 4-pyridyl", "(4-Chlorophenyl)-4-pyridinylmethanone", "4-(p-Chlorobenzoyl)pyridine", "4-(4-Chlorobenzoyl)pyridine", "4-Chlorophenyl 4-pyridyl ketone", "NSC 76045"], "SMILES": "C(=O)(C1=CC=C(Cl)C=C1)C=2C=CN=CC2", "physical_data": {"Molecular Weight": "217.65", "Molecular Formula": "C12H8ClNO", "Melting Point": "108-109 \u00b0C"}}