{"cas_no": "145438-94-4", "cn_name": "(2S,3AR,7AS)-1H-\u516b\u6c22\u5432\u54da-2-\u7fa7\u9178", "en_name": ["(2S,3aR,7aS)-Octahydro-1H-indole-2-carboxylic acid", "1H-Indole-2-carboxylic acid, octahydro-, (2S,3aR,7aS)-", "1H-Indole-2-carboxylic acid, octahydro-, [2S-(2\u03b1,3a\u03b1,7a\u03b2)]-", "(2S,3aR,7aS)-Octahydro-1H-indole-2-carboxylic acid", "(2S,3AR,7aS)-octahydroindole-2-carboxylic acid"], "SMILES": "C(O)(=O)C1CC2C(N1)CCCC2", "physical_data": {"Molecular Weight": "169.22", "Molecular Formula": "C9H15NO2", "Melting Point": "211-212 \u00b0C"}}