{"cas_no": "1454-85-9", "cn_name": "1-\u5341\u4e03\u70f7\u9187", "en_name": ["1-Heptadecanol", "1-Heptadecanol", "Heptadecyl alcohol", "n-Heptadecanol", "n-Heptadecyl alcohol", "NSC 3921", "Margaric alcohol"], "SMILES": "C(CCCCCCCCO)CCCCCCCC", "physical_data": {"Molecular Weight": "256.47", "Molecular Formula": "C17H36O", "Boiling Point": "333 \u00b0C", "Melting Point": "53.8 \u00b0C"}}