{"cas_no": "1454-84-8", "cn_name": "\u5341\u4e5d\u70f7\u9187", "en_name": ["1-Nonadecanol", "1-Nonadecanol", "n-1-Nonadecanol", "n-Nonadecanol", "Nonadecyl alcohol"], "SMILES": "C(CCCCCCCCCO)CCCCCCCCC", "physical_data": {"Molecular Weight": "284.52", "Molecular Formula": "C19H40O", "Boiling Point": "204-217 \u00b0C @ Press: 3 Torr", "Melting Point": "63.3 \u00b0C"}}