{"cas_no": "145400-02-8", "cn_name": "1,4,7-EUDESMANETRIOL", "en_name": ["(1R,4S,4aR,6S,8aR)-Decahydro-4,8a-dimethyl-6-(1-methylethyl)-1,4,6-naphthalenetriol", "1,4,6-Naphthalenetriol, decahydro-4,8a-dimethyl-6-(1-methylethyl)-, (1R,4S,4aR,6S,8aR)-", "1,4,6-Naphthalenetriol, decahydro-4,8a-dimethyl-6-(1-methylethyl)-, [1R-(1\u03b1,4\u03b1,4a\u03b2,6\u03b2,8a\u03b1)]-", "(1R,4S,4aR,6S,8aR)-Decahydro-4,8a-dimethyl-6-(1-methylethyl)-1,4,6-naphthalenetriol", "Eudesmane-1\u03b2,4\u03b2,7\u03b1-triol", "1\u03b2,4\u03b2,7\u03b1-Trihydroxyeudesmane", "1\u03b2,4\u03b2,7\u03b1-Trihydroxyeudmane"], "SMILES": "CC12C(C(C)(O)CCC1O)CC(C(C)C)(O)CC2", "physical_data": {"Molecular Weight": "256.38", "Molecular Formula": "C15H28O3", "Melting Point": "138-141 \u00b0C"}}