{"cas_no": "145525-41-3", "cn_name": "\u7c73\u683c\u5217\u5948", "en_name": ["Mitiglinide calcium", "2H-Isoindole-2-butanoic acid, octahydro-\u03b3-oxo-\u03b1-(phenylmethyl)-, calcium salt (2:1), (\u03b1S,3aR,7aS)-", "2H-Isoindole-2-butanoic acid, octahydro-\u03b3-oxo-\u03b1-(phenylmethyl)-, calcium salt, [2(S)-cis]-", "2H-Isoindole-2-butanoic acid, octahydro-\u03b3-oxo-\u03b1-(phenylmethyl)-, calcium salt, (\u03b1S,3aR,7aS)-", "KAD 1229", "S 21403", "(S)-2-Benzyl-4-oxo-4-(cis-perhydroisoindol-2-yl)butyric acid calcium salt", "Glufast", "Mitiglinide calcium"], "SMILES": "C(CC(CC1=CC=CC=C1)C(O)=O)(=O)N2CC3C(C2)CCCC3.[Ca]", "physical_data": {"Molecular Weight": "", "Molecular Formula": "C19H25NO3.<sup>1</sup>/2Ca", "Melting Point": "175-183 \u00b0C"}}