{"cas_no": "14556-98-0", "cn_name": "4-\u6c2f\u6c34\u6768\u9178-5-\u78fa\u9170\u80fa", "en_name": ["5-(Aminosulfonyl)-4-chloro-2-hydroxybenzoic acid", "Benzoic acid, 5-(aminosulfonyl)-4-chloro-2-hydroxy-", "Salicylic acid, 4-chloro-5-sulfamoyl-", "5-(Aminosulfonyl)-4-chloro-2-hydroxybenzoic acid", "BE 1070"], "SMILES": "S(N)(=O)(=O)C1=CC(C(O)=O)=C(O)C=C1Cl", "physical_data": {"Molecular Weight": "251.64", "Molecular Formula": "C7H6ClNO5S", "Melting Point": "258-260 \u00b0C"}}