{"cas_no": "1455-18-1", "cn_name": "3-\u7532\u57fa\u82ef\u567b\u5429", "en_name": ["3-Methylbenzothiophene", "Benzo[b]thiophene, 3-methyl-", "3-Methylbenzo[b]thiophene", "3-Methylbenzothiophene", "3-Methylthianaphthene", "3-Methyl-1-thiaindene", "NSC 267241", "3-Methyl-1-benzothiophene"], "SMILES": "CC=1C=2C(=CC=CC2)SC1", "physical_data": {"Molecular Weight": "148.22", "Molecular Formula": "C9H8S", "Boiling Point": "108-109 \u00b0C @ Press: 12 Torr", "Melting Point": "-39.66 \u00b0C", "Density": "1.1190 g/cm\u00b3 @ Temp: 20 \u00b0C"}}