{"cas_no": "1455-20-5", "cn_name": "2-\u6b63\u4e01\u57fa\u567b\u5429", "en_name": ["2-Butylthiophene", "Thiophene, 2-butyl-", "2-Butylthiophene", "2-n-Butylthiophene"], "SMILES": "C(CCC)C1=CC=CS1", "physical_data": {"Molecular Weight": "140.25", "Molecular Formula": "C8H12S", "Boiling Point": "181.5 \u00b0C", "Density": "0.9554 g/cm\u00b3 @ Temp: 20 \u00b0C"}}