{"cas_no": "1455-42-1", "cn_name": "3,9-\u4e8c(1,1-\u4e8c\u7532\u57fa-2-\u7f9f\u57fa\u4e59\u57fa)-2,4,8,10-\u56db\u6c27\u6742\u87ba[5.5]\u5341\u4e00\u70f7", "en_name": ["\u03b23,\u03b23,\u03b29,\u03b29-Tetramethyl-2,4,8,10-tetraoxaspiro[5.5]undecane-3,9-diethanol", "2,4,8,10-Tetraoxaspiro[5.5]undecane-3,9-diethanol, \u03b23,\u03b23,\u03b29,\u03b29-tetramethyl-", "2,4,8,10-Tetraoxaspiro[5.5]undecane-3,9-diethanol, \u03b2,\u03b2,\u03b2\u2032,\u03b2\u2032-tetramethyl-", "\u03b23,\u03b23,\u03b29,\u03b29-Tetramethyl-2,4,8,10-tetraoxaspiro[5.5]undecane-3,9-diethanol", "3,9-Bis(1,1-dimethyl-2-hydroxyethyl)-2,4,8,10-tetraoxaspiro[5.5]undecane", "Spiroglycol", "3,9-Bis(2-hydroxy-1,1-dimethylethyl)-2,4,8,10-tetraoxaspiro(5.5)undecane", "\u03b2,\u03b2,\u03b2\u2032\u03b2\u2032-Tetramethyl-3,9-(2,4,8,10-tetraoxaspiro[5.5]undecane)diethanol", "2,2\u2032-(2,4,8,10-Tetraoxaspiro[5.5]undecane-3,9-diyl)bis(2-methylpropan-1-ol)", "2-[3-(1-Hydroxy-2-methylpropan-2-yl)-2,4,8,10-tetraoxaspiro[5.5]undecan-9-yl]-2-methylpropan-1-ol", "B 1158"], "SMILES": "C(CO)(C)(C)C1OCC2(COC(C(CO)(C)C)OC2)CO1", "physical_data": {"Molecular Weight": "304.38", "Molecular Formula": "C15H28O6", "Melting Point": "185-194 \u00b0C"}}