{"cas_no": "1455-21-6", "cn_name": "1-\u58ec\u786b\u9187", "en_name": ["1-Nonanethiol", "1-Nonanethiol", "Nonyl mercaptan", "n-Nonyl mercaptan", "Nonylthiol", "n-Nonanethiol", "n-Nonylthiol", "Nonanethiol", "1-Mercaptononane", "NSC 5563"], "SMILES": "C(CCCCS)CCCC", "physical_data": {"Molecular Weight": "160.32", "Molecular Formula": "C9H20S", "Boiling Point": "220 \u00b0C", "Melting Point": "-20.1 \u00b0C", "Density": "0.8386 g/cm\u00b3 @ Temp: 20 \u00b0C"}}