{"cas_no": "1455-13-6", "cn_name": "\u6c18\u4ee3\u7532\u9187", "en_name": ["Methanol-d", "Methanol-d", "Methyl alcohol-d", "Methanol (CH3OD)", "Methanol-O-d", "Methanol-hydroxy-d", "O-Deuteromethanol", "Methyl deuteroxide", "Methanol-d"], "SMILES": "CO[2H]", "physical_data": {"Molecular Weight": "", "Molecular Formula": "CH3DO", "Boiling Point": "64-65 \u00b0C @ Press: 740 Torr"}}