{"cas_no": "1456-22-0", "cn_name": "3-\u82ef\u57fa-5-\u7f9f\u57fa-1,2,4-\u5641\u4e8c\u5511", "en_name": ["5-Hydroxy-3-phenyl-1,2,4-oxadiazole", "1,2,4-Oxadiazol-5(2H)-one, 3-phenyl-", "\u03942-1,2,4-Oxadiazolin-5-one, 3-phenyl-", "1,2,4-Oxdiazol-5-ol, 3-phenyl-", "3-Phenyl-1,2,4-oxadiazol-5(2H)-one", "5-Hydroxy-3-phenyl-1,2,4-oxadiazole", "3-Phenyl-2H-1,2,4-oxadiazol-5-one", "3-Phenyl-5-hydroxy-1,2,4-oxadiazole", "3-Phenyl-4,5-dihydro-1,2,4-oxadiazol-5-one", "3-Phenyl-1,2,4-oxadiazol-5-ol", "3-(Phenyl)-1,2,4-oxadiazole-5-ol"], "SMILES": "O=C1NC(=NO1)C2=CC=CC=C2", "physical_data": {"Molecular Weight": "162.15", "Molecular Formula": "C8H6N2O2", "Melting Point": "198 \u00b0C"}}