{"cas_no": "14562-04-0", "cn_name": "\u6c30\u7532\u57fa\u5bf9\u7532\u57fa\u82ef\u78fa\u9178\u916f", "en_name": ["2-[[(4-Methylphenyl)sulfonyl]oxy]acetonitrile", "Acetonitrile, 2-[[(4-methylphenyl)sulfonyl]oxy]-", "Glycolonitrile, p-toluenesulfonate (ester)", "Acetonitrile, [[(4-methylphenyl)sulfonyl]oxy]-", "Glycolonitrile, p-toluenesulfonate", "2-[[(4-Methylphenyl)sulfonyl]oxy]acetonitrile", "Cyanomethyl p-tosylate", "Cyanomethyl toluenesulfonate", "Cyanomethyl p-toluenesulfonate", "Cyanomethyl tosylate", "Cyanomethyl 4-methylbenzenesulfonate", "Toluene-4-sulfonic acid cyanomethyl ester", "2-[(4-Methylbenzenesulfonyl)oxy]acetonitrile"], "SMILES": "S(OCC#N)(=O)(=O)C1=CC=C(C)C=C1", "physical_data": {"Molecular Weight": "211.24", "Molecular Formula": "C9H9NO3S", "Melting Point": "47 \u00b0C"}}