{"cas_no": "1457-85-8", "cn_name": "\u8349\u9170\u82ef\u80fa\u4e59\u916f", "en_name": ["Ethyl oxanilate", "Acetic acid, 2-oxo-2-(phenylamino)-, ethyl ester", "Oxanilic acid, ethyl ester", "Acetic acid, oxo(phenylamino)-, ethyl ester", "Ethoxydicarbonylaminobenzene", "Ethyl N-phenyloxalamate", "N-Phenylethoxalamide", "Ethyl N-phenyloxamate", "Ethyl oxanilate", "Ethyl phenyloxamate", "NSC 5606", "N-Phenyloxamic acid ethyl ester", "Ethyl 2-(anilino)-2-oxoacetate", "N-Phenyloxalamic acid ethyl ester"], "SMILES": "N(C(C(OCC)=O)=O)C1=CC=CC=C1", "physical_data": {"Molecular Weight": "193.20", "Molecular Formula": "C10H11NO3", "Boiling Point": "280 \u00b0C", "Melting Point": "65.5 \u00b0C"}}