{"cas_no": "14575-84-9", "cn_name": "\u53f3\u65cb-3-\u6eb4\u6a1f\u8111-8-\u78fa\u9178\u94f5\u76d0", "en_name": ["Bicyclo[2.2.1]heptane-7-methanesulfonic acid, 2-bromo-4,7-dimethyl-3-oxo-, ammonium salt (1:1), (1S,2S,4R,7R)-", "Bicyclo[2.2.1]heptane-7-methanesulfonic acid, 2-bromo-4,7-dimethyl-3-oxo-, ammonium salt (1:1), (1S,2S,4R,7R)-", "8-Bornanesulfonic acid, 3-bromo-2-oxo-, ammonium salt, (+)-", "Bicyclo[2.2.1]heptane-7-methanesulfonic acid, 3-bromo-1,7-dimethyl-2-oxo-, ammonium salt, [1R-(endo,anti)]-", "Bicyclo[2.2.1]heptane-7-methanesulfonic acid, 3-bromo-1,7-dimethyl-2-oxo-, ammonium salt, (1R,3S,4S,7R)-", "Ammonium d-\u03b1-bromocamphor-\u03c0-sulfonate", "Ammonium (+)-\u03b1-bromocamphor-\u03c0-sulfonate", "Ammonium [(1R)-(endo,anti)]-3-bromo-1,7-dimethyl-2-oxobicyclo[2.2.1]heptane-7-methanesulfonate", "Ammonium (1R)-(+)-3-bromocamphor-8-sulfonate", "(1R)-(+)-3-Bromocamphor-8-sulfonic acid ammonium salt"], "SMILES": "C(S(=O)(=O)O)C1(C)C2(C)C(=O)C(Br)C1CC2.N", "physical_data": {"Molecular Weight": "", "Molecular Formula": "C10H15BrO4S.H3N", "Melting Point": "268-270 \u00b0C (decomp)"}}