{"cas_no": "1457-46-1", "cn_name": "3-\u82ef\u57fa-2-\u786b\u916e-1,3-\u567b\u5511\u5549-4-\u916e", "en_name": ["3-Phenylrhodanine", "4-Thiazolidinone, 3-phenyl-2-thioxo-", "Rhodanine, 3-phenyl-", "3-Phenyl-2-thioxo-4-thiazolidinone", "3-Phenyl-4-thiazolidinone-2-thione", "N-Phenylrhodanine", "3-Phenylrhodanine", "3-Phenyl-2-thioxo-4-Thiazolidinone", "NSC 17528", "3-Phenyl-2-thioxo-1,3-thiazolidin-4-one", "N-Phenyl-2-thioxothiazolidin-4-one", "3-Phenyl-2-sulfanylidene-1,3-thiazolidin-4-one"], "SMILES": "O=C1N(C(=S)SC1)C2=CC=CC=C2", "physical_data": {"Molecular Weight": "209.29", "Molecular Formula": "C9H7NOS2", "Melting Point": "192-193 \u00b0C"}}