{"cas_no": "14579-03-4", "cn_name": "3-\u6c2f\u73af\u620a\u57fa\u7845\u70f7", "en_name": ["Cyclopentyltrichlorosilane", "Cyclopentane, (trichlorosilyl)-", "Silane, trichlorocyclopentyl-", "(Trichlorosilyl)cyclopentane", "Cyclopentyltrichlorosilane"], "SMILES": "[Si](Cl)(Cl)(Cl)C1CCCC1", "physical_data": {"Molecular Weight": "203.57", "Molecular Formula": "C5H9Cl3Si", "Boiling Point": "178-179 \u00b0C", "Density": "1.225 g/cm\u00b3"}}