{"cas_no": "14572-89-5", "cn_name": "\u5bf9\u6c28\u57fa\u82ef\u57fa\u4e59\u9187", "en_name": ["4-Amino-\u03b1-methylbenzenemethanol", "Benzenemethanol, 4-amino-\u03b1-methyl-", "Benzyl alcohol, p-amino-\u03b1-methyl-", "4-Amino-\u03b1-methylbenzenemethanol", "4-Amino-\u03b1-methylbenzyl alcohol", "1-(4-Aminophenyl)ethanol", "1-(p-Aminophenyl)ethanol", "[4-(1-Hydroxyethyl)phenyl]amine", "4-(1-Hydroxyethyl)aniline", "(RS)-1-(4-Aminophenyl)ethanol", "p-Amino-\u03b1-methylbenzyl alcohol", "1-(4-Aminophenyl)ethan-1-ol"], "SMILES": "C(C)(O)C1=CC=C(N)C=C1", "physical_data": {"Molecular Weight": "137.18", "Molecular Formula": "C8H11NO", "Melting Point": "60-61 \u00b0C"}}