{"cas_no": "1457-47-2", "cn_name": "3-\u4e19\u70ef\u57fa\u6d1b\u4e39\u5b81", "en_name": ["3-Allylrhodanine", "4-Thiazolidinone, 3-(2-propen-1-yl)-2-thioxo-", "Rhodanine, 3-allyl-", "4-Thiazolidinone, 3-(2-propenyl)-2-thioxo-", "3-(2-Propen-1-yl)-2-thioxo-4-thiazolidinone", "3-Allyl-4-oxo-2-thioxothiazolidine", "3-Allylrhodanine", "N-Allylrhodanine", "NSC 43395", "3-Allyl-2-thioxothiazolidin-4-one", "3-Prop-2-enyl-2-sulfanylidene-1,3-thiazolidin-4-one"], "SMILES": "C(C=C)N1C(=O)CSC1=S", "physical_data": {"Molecular Weight": "173.26", "Molecular Formula": "C6H7NOS2", "Boiling Point": "121 \u00b0C @ Press: 0.5 mmHg", "Melting Point": "46-48 \u00b0C"}}