{"cas_no": "14579-91-0", "cn_name": "\u4e8c(\u6c2f\u7532\u57fa)\u56db\u7532\u57fa\u4e8c\u7845\u6c2e\u70f7", "en_name": ["1-(Chloromethyl)-N-[(chloromethyl)dimethylsilyl]-1,1-dimethylsilanamine", "Silanamine, 1-(chloromethyl)-N-[(chloromethyl)dimethylsilyl]-1,1-dimethyl-", "Disilazane, 1,3-bis(chloromethyl)-1,1,3,3-tetramethyl-", "1-(Chloromethyl)-N-[(chloromethyl)dimethylsilyl]-1,1-dimethylsilanamine", "1,3-Bis(chloromethyl)-1,1,3,3-tetramethyldisilazane", "1,3-Bis(chloromethyl)tetramethyldisilazane", "Bis((chloromethyl)dimethylsilyl)amine", "NSC 142541"], "SMILES": "N([Si](CCl)(C)C)[Si](CCl)(C)C", "physical_data": {"Molecular Weight": "230.28", "Molecular Formula": "C6H17Cl2NSi2", "Boiling Point": "103-105 \u00b0C"}}