{"cas_no": "1458-01-1", "cn_name": "3,5-\u4e8c\u6c28\u57fa-6-\u6c2f\u5421\u55ea-2-\u7fa7\u9178\u7532\u916f", "en_name": ["Methyl 3,5-diamino-6-chloropyrazine-2-carboxylate", "2-Pyrazinecarboxylic acid, 3,5-diamino-6-chloro-, methyl ester", "Pyrazinecarboxylic acid, 3,5-diamino-6-chloro-, methyl ester", "Methyl 3,5-diamino-6-chloropyrazinecarboxylate", "3,5-Diamino-6-chloropyrazine-2-carboxylic acid methyl ester", "Methyl 3,5-diamino-6-chloropyrazine-2-carboxylate"], "SMILES": "C(OC)(=O)C=1C(N)=NC(N)=C(Cl)N1", "physical_data": {"Molecular Weight": "202.60", "Molecular Formula": "C6H7ClN4O2", "Melting Point": "210-212 \u00b0C"}}