{"cas_no": "1458-18-0", "cn_name": "3-\u6c28\u57fa-5,6-\u4e8c\u6c2f-2-\u5421\u55ea\u7fa7\u9178\u7532\u8102", "en_name": ["2-Pyrazinecarboxylic acid, 3-amino-5,6-dichloro-, methyl ester", "2-Pyrazinecarboxylic acid, 3-amino-5,6-dichloro-, methyl ester", "Pyrazinecarboxylic acid, 3-amino-5,6-dichloro-, methyl ester", "Methyl 3-amino-5,6-dichloropyrazine-2-carboxylate", "3-Amino-5,6-dichloropyrazine-2-carboxylic acid methyl ester"], "SMILES": "C(OC)(=O)C=1C(N)=NC(Cl)=C(Cl)N1", "physical_data": {"Molecular Weight": "222.03", "Molecular Formula": "C6H5Cl2N3O2", "Melting Point": "233-234 \u00b0C"}}