{"cas_no": "145821-59-6", "cn_name": "\u76d0\u9178\u567b\u52a0\u5bbe", "en_name": ["Tiagabine hydrochloride", "3-Piperidinecarboxylic acid, 1-[4,4-bis(3-methyl-2-thienyl)-3-buten-1-yl]-, hydrochloride (1:1), (3R)-", "3-Piperidinecarboxylic acid, 1-[4,4-bis(3-methyl-2-thienyl)-3-butenyl]-, hydrochloride, (R)-", "3-Piperidinecarboxylic acid, 1-[4,4-bis(3-methyl-2-thienyl)-3-butenyl]-, hydrochloride, (3R)-", "Tiagabine hydrochloride", "Abbott 70569.1", "Abbott 70569 hydrochloride", "ABT 569", "NO 05-0328", "NNC 05-0328", "Tiabex", "Gabitril", "(3R)-1-[4,4-Bis(3-methylthien-2-yl)-3-butenyl]piperidine-3-carboxylic acid hydrochloride", "(3R)-1-[4,4-Bis(3-methylthiophen-2-yl)but-3-en-1-yl]piperidine-3-carboxylic acid hydrochloride"], "SMILES": "C(=CCCN1CC(C(O)=O)CCC1)(C2=C(C)C=CS2)C3=C(C)C=CS3.Cl", "physical_data": {"Molecular Weight": "", "Molecular Formula": "C20H25NO2S2.ClH", "Melting Point": "192 \u00b0C (decomp)"}}