{"cas_no": "1458-98-6", "cn_name": "3-\u6eb4-2-\u7532\u57fa\u4e19\u70ef", "en_name": ["Methallyl bromide", "1-Propene, 3-bromo-2-methyl-", "Propene, 3-bromo-2-methyl-", "Methallyl bromide", "2-Methylallyl bromide", "\u03b2-Methylallyl bromide", "Methylallyl bromide", "3-Bromo-2-methylpropene", "2-(Bromomethyl)propene", "3-Bromo-2-methyl-1-propene", "2-Methyl-2-propenyl bromide", "1-Bromo-2-methyl-2-propene", "2-Methyl-3-bromo-1-propene", "\u03b2-Methallyl bromide", "3-Bromo-2-methyl-1-propylene", "NSC 617310", "2-Methyl-3-bromopropene", "3-Bromoisobutylene"], "SMILES": "C(CBr)(C)=C", "physical_data": {"Molecular Weight": "135.00", "Molecular Formula": "C4H7Br", "Boiling Point": "94.2-95.2 \u00b0C @ Press: 774 Torr", "Density": "1.31335 g/cm\u00b3 @ Temp: 20 \u00b0C"}}