{"cas_no": "1459-09-2", "cn_name": "\u5341\u516d\u70f7\u57fa\u82ef", "en_name": ["Hexadecylbenzene", "Benzene, hexadecyl-", "Hexadecane, 1-phenyl-", "Hexadecylbenzene", "Hexadecane, 1(or 16)-phenyl-", "n-Hexadecylbenzene", "1-Phenylhexadecane", "Hexadecylbenzol"], "SMILES": "C(CCCCCCCCCCCCCCC)C1=CC=CC=C1", "physical_data": {"Molecular Weight": "302.54", "Molecular Formula": "C22H38", "Boiling Point": "385 \u00b0C", "Melting Point": "27 \u00b0C", "Density": "0.8558 g/cm\u00b3 @ Temp: 20 \u00b0C"}}