{"cas_no": "1459-00-3", "cn_name": "\u03b2-\u6eb4\u4ee3\u5f02\u4e19\u57fa\u82ef", "en_name": ["1-Bromo-2-phenylpropane", "Benzene, (2-bromo-1-methylethyl)-", "Cumene, \u03b2-bromo-", "(2-Bromo-1-methylethyl)benzene", "1-Bromo-2-phenylpropane", "2-Phenylpropyl bromide", "\u03b2-Bromoisopropylbenzene", "2-Methyl-2-phenylethyl bromide", "NSC 43688", "(1-Bromopropan-2-yl)benzene", "1-Bromopropan-2-ylbenzene"], "SMILES": "C(CBr)(C)C1=CC=CC=C1", "physical_data": {"Molecular Weight": "199.09", "Molecular Formula": "C9H11Br", "Boiling Point": "188.5 \u00b0C", "Melting Point": "-59.3 \u00b0C", "Density": "1.373 g/cm\u00b3 @ Temp: 14 \u00b0C"}}