{"cas_no": "1459-10-5", "cn_name": "\u5341\u56db\u70f7\u57fa\u82ef", "en_name": ["Tetradecylbenzene", "Benzene, tetradecyl-", "Tetradecane, 1-phenyl-", "Tetradecylbenzene", "1-Phenyltetradecane", "1-Phenyl-n-tetradecane", "Tetradecylbenzol", "n-Tetradecylbenzene"], "SMILES": "C(CCCCCCCCCCCCC)C1=CC=CC=C1", "physical_data": {"Molecular Weight": "274.48", "Molecular Formula": "C20H34", "Boiling Point": "359 \u00b0C", "Melting Point": "16.15 \u00b0C", "Density": "0.8549 g/cm\u00b3 @ Temp: 20 \u00b0C"}}