{"cas_no": "14592-56-4", "cn_name": "\u53cc(\u4e59\u8148)\u6c2f\u5316\u94af(II)", "en_name": ["Palladium, bis(acetonitrile)dichloro-", "Palladium, bis(acetonitrile)dichloro-", "Palladium, dichlorobis(acetonitrile)-", "Bis(acetonitrile)palladium dichloride", "Bis(acetonitrile)dichloropalladium", "bis(Acetonitrile)dichloropalladium", "Bis(acetonitrile)dichloropalladium(II)", "Dichlorobis(acetonitrile)palladium", "Dichlorobis(acetonitrile)palladium(II)", "Bis(acetonitrile)palladium(II) dichloride", "Palladium dichloride bis(acetonitrile)", "Diacetonitriledichloropalladium", "Bis-acetonitrile palladium chloride", "PdCl2(CH3CN)2", "PdCl2(MeCN)2"], "SMILES": "[Pd+2]([N]#CC)([N]#CC)([Cl-])[Cl-]", "physical_data": {"Molecular Weight": "", "Molecular Formula": "C4H6Cl2N2Pd", "Melting Point": "&gt;200 \u00b0C (decomp)"}}