{"cas_no": "14599-48-5", "cn_name": "(3BETA)-9,19-\u73af\u7f8a\u6bdb\u753e-23-\u70ef-3,25-\u4e8c\u9187", "en_name": ["Cycloart-23-ene-3\u03b2,25-diol", "9,19-Cyclolanost-23-ene-3,25-diol, (3\u03b2)-", "9,19-Cyclo-9\u03b2-lanost-23-ene-3\u03b2,25-diol", "(3\u03b2)-9,19-Cyclolanost-23-ene-3,25-diol", "Cycloart-23-ene-3\u03b2,25-diol", "23-Dehydro-3\u03b2,25-dihydroxycycloartane", "9,19-Cyclolanost-23-ene-3\u03b2,25-diol", "NSC 695835"], "SMILES": "CC12C3C4(C5(C4)C(C(C)(C)C(O)CC5)CC3)CCC1(C)C(C(CC=CC(C)(C)O)C)CC2", "physical_data": {"Molecular Weight": "442.72", "Molecular Formula": "C30H50O2", "Melting Point": "20-24 \u00b0C"}}