{"cas_no": "1459-93-4", "cn_name": "\u95f4\u82ef\u4e8c\u7532\u9178\u4e8c\u7532\u916f", "en_name": ["Dimethyl isophthalate", "1,3-Benzenedicarboxylic acid, 1,3-dimethyl ester", "Isophthalic acid, dimethyl ester", "1,3-Benzenedicarboxylic acid, dimethyl ester", "Dimethyl m-phthalate", "Dimethyl isophthalate", "Dimethyl 1,3-benzenedicarboxylate", "Methyl isophthalate", "Methyl 3-carbomethoxybenzoate", "Morflex 1129", "NSC 15313", "1,3-Di(methoxycarbonyl)benzene", "DMIP", "Dimethy isophthalate", "1,3-Dimethyl benzene-1,3-dicarboxylate"], "SMILES": "C(OC)(=O)C1=CC(C(OC)=O)=CC=C1", "physical_data": {"Molecular Weight": "194.18", "Molecular Formula": "C10H10O4", "Boiling Point": "282 \u00b0C", "Melting Point": "67.5 \u00b0C", "Density": "1.194 g/cm\u00b3 @ Temp: 20 \u00b0C"}}