{"cas_no": "14593-43-2", "cn_name": "\u70ef\u4e19\u57fa\u82c4\u57fa\u919a", "en_name": ["Allyl benzyl ether", "Benzene, [(2-propen-1-yloxy)methyl]-", "Ether, allyl benzyl", "Benzene, [(2-propenyloxy)methyl]-", "[(2-Propen-1-yloxy)methyl]benzene", "Allyl benzyl ether", "Benzyl allyl ether", "3-(Benzyloxy)-1-propene", "3-(Benzyloxy)propene", "((Allyloxy)methyl)benzene", "[[(2-Propenyl)oxy]methyl]benzene"], "SMILES": "C(OCC=C)C1=CC=CC=C1", "physical_data": {"Molecular Weight": "148.20", "Molecular Formula": "C10H12O", "Boiling Point": "204-205 \u00b0C", "Density": "0.9548 g/cm\u00b3 @ Temp: 25 \u00b0C"}}