{"cas_no": "1459754-32-5", "cn_name": "4-(5-\u7898-2-\u6c2f\u82c4\u57fa)\u82ef\u915a", "en_name": ["4-[(2-Chloro-5-iodophenyl)methyl]phenol", "Phenol, 4-[(2-chloro-5-iodophenyl)methyl]-", "4-[(2-Chloro-5-iodophenyl)methyl]phenol", "4-(2-Chloro-5-iodobenzyl)phenol"], "SMILES": "C(C1=C(Cl)C=CC(I)=C1)C2=CC=C(O)C=C2", "physical_data": {"Molecular Weight": "344.58", "Molecular Formula": "C13H10ClIO", "Melting Point": "101-102 \u00b0C"}}