{"cas_no": "14593-04-5", "cn_name": "3-\u6c28\u57fa-3-\u82ef\u57fa-1-\u4e19\u9187", "en_name": ["\u03b3-Aminobenzenepropanol", "Benzenepropanol, \u03b3-amino-", "1-Propanol, 3-amino-3-phenyl-", "\u03b3-Aminobenzenepropanol", "3-Amino-3-phenyl-1-propanol", "3-Amino-3-phenylpropanol", "3-Hydroxy-1-phenylpropylamine"], "SMILES": "C(CCO)(N)C1=CC=CC=C1", "physical_data": {"Molecular Weight": "151.21", "Molecular Formula": "C9H13NO", "Boiling Point": "117-118 \u00b0C @ Press: 0.5 Torr", "Melting Point": "74.5-75 \u00b0C"}}