{"cas_no": "1459-95-6", "cn_name": "1,3-\u91d1\u521a\u70f7\u4e8c\u7fa7\u9178\u4e8c\u7532\u916f", "en_name": ["Dimethyl 1,3-adamantanedicarboxylate", "Tricyclo[3.3.1.13,7]decane-1,3-dicarboxylic acid, 1,3-dimethyl ester", "1,3-Adamantanedicarboxylic acid, dimethyl ester", "Tricyclo[3.3.1.13,7]decane-1,3-dicarboxylic acid, dimethyl ester", "Dimethyl 1,3-adamantanedicarboxylate", "NSC 632548"], "SMILES": "C(OC)(=O)C12CC3(C(OC)=O)CC(C1)CC(C2)C3", "physical_data": {"Molecular Weight": "252.31", "Molecular Formula": "C14H20O4", "Melting Point": "61-62 \u00b0C"}}