{"cas_no": "145915-58-8", "cn_name": "CGP 52411", "en_name": ["4,5-Dianilinophthalimide", "1H-Isoindole-1,3(2H)-dione, 5,6-bis(phenylamino)-", "5,6-Bis(phenylamino)-1H-isoindole-1,3(2H)-dione", "4,5-Dianilinophthalimide", "CGP 52411", "DAPH"], "SMILES": "O=C1C=2C(=CC(NC3=CC=CC=C3)=C(NC4=CC=CC=C4)C2)C(=O)N1", "physical_data": {"Molecular Weight": "329.35", "Molecular Formula": "C20H15N3O2", "Melting Point": "199-201.5 \u00b0C"}}