{"cas_no": "146-22-5", "cn_name": "\u785d\u897f\u6cee", "en_name": ["Nitrazepam", "2H-1,4-Benzodiazepin-2-one, 1,3-dihydro-7-nitro-5-phenyl-", "1,3-Dihydro-7-nitro-5-phenyl-2H-1,4-benzodiazepin-2-one", "LA 1", "Ro 4-5360", "Ro 5-3059", "Mogadon", "Mogadone", "Nitrazepam", "7-Nitro-5-phenyl-2,3-dihydro-1H-1,4-benzodiazepin-2-one", "Benzalin", "Eunoctin", "1,3-Dihydro-7-nitro-5-phenyl-2H-1,4-benzodiazepine-2-one", "7-Nitro-5-phenyl-1,3-dihydro-2H-1,4-benzodiazepin-2-one", "2,3-Dihydro-7-nitro-5-phenyl-1H-1,4-benzodiazepin-2-one", "Mogadan", "Epibenzalin", "Epinelbon", "Hipnax", "Hipsal", "Sonebon", "Neozepam", "Radedorm", "Somitran", "Paxisyn", "Pelson", "Sonnolin", "Calsmin", "Megadon", "Nelbon", "Nitrenpax", "Relact", "Nitravet", "Dormicum", "Dormin 5", "N-Desmethylnimetazepam", "Dormicum (anticonvulsant)", "Remnos", "Nitrados", "Ipersed", "Insomin", "Somnased", "Eatan", "Surem", "NSC 58775", "Noctesed", "Somnibel", "Somnite", "Neuchlonic", "Unisomnia", "Imeson", "Xiaoxipan", "Nitrosun", "Nipam", "7-Nitro-5-phenyl-1H-1,4-benzodiazepin-2(3H)-one", "MeSH ID: D009567"], "SMILES": "N(=O)(=O)C=1C=C2C(=NCC(=O)NC2=CC1)C3=CC=CC=C3", "physical_data": {"Molecular Weight": "281.27", "Molecular Formula": "C15H11N3O3", "Melting Point": "225 \u00b0C"}}