{"cas_no": "146-56-5", "cn_name": "\u76d0\u9178\u6c1f\u594b\u4e43\u9759", "en_name": ["Fluphenazine hydrochloride", "1-Piperazineethanol, 4-[3-[2-(trifluoromethyl)-10H-phenothiazin-10-yl]propyl]-, hydrochloride (1:2)", "1-Piperazineethanol, 4-[3-[2-(trifluoromethyl)phenothiazin-10-yl]propyl]-, dihydrochloride", "1-Piperazineethanol, 4-[3-[2-(trifluoromethyl)-10H-phenothiazin-10-yl]propyl]-, dihydrochloride", "Anatensol", "Fluphenazine dihydrochloride", "Fluphenazine hydrochloride", "10-[3-[4-(2-Hydroxyethyl)piperazinyl]propyl]-2-trifluoromethylphenothiazine dihydrochloride", "1-(2-Hydroxyethyl)-4-[3-(2-trifluoromethyl-10-phenothiazinylpropyl]piperazine dihydrochloride", "Moditen", "Permitil", "Permitil hydrochloride", "Prolixin", "Squibb 4918", "4-[3-[2-(Trifluoromethyl)phenothiazin-10-yl]propyl]-1-piperazineethanol dihydrochloride", "Liogen", "Lyorodin", "Fluorophenazine dihydrochloride", "Tensofin", "OMCA", "Flufenazin", "Fluphenazine chloride", "Trancin", "Mirenil", "Siqualone", "Dapotum", "Valamina", "Lyogen", "Fludecan", "Prolinate", "2-(4-(3-(2-(Trifluoromethyl)-10H-phenothiazin-10-yl)propyl)piperazin-1-yl)ethanol dihydrochloride"], "SMILES": "C(CCN1CCN(CCO)CC1)N2C=3C(SC=4C2=CC=CC4)=CC=C(C(F)(F)F)C3.Cl", "physical_data": {"Molecular Weight": "", "Molecular Formula": "C22H26F3N3OS.2ClH", "Melting Point": "235-237 \u00b0C"}}