{"cas_no": "146-17-8", "cn_name": "2,6-\u84bd\u4e8c\u915a", "en_name": ["Flavin mononucleotide", "Riboflavin 5\u2032-(dihydrogen phosphate)", "Riboflavine 5-phosphate", "Benzo[g]pteridine, riboflavin 5\u2032-(dihydrogen phosphate) deriv.", "Flavin mononucleotide", "FMN", "Riboflavine monophosphate", "Riboflavine 5\u2032-phosphate", "Riboflavin phosphate", "Riboflavine dihydrogen phosphate", "Riboflavine phosphate", "Riboflavine 5\u2032-monophosphate", "Vitamin B2 phosphate", "Riboflavin 5\u2032-monophosphate", "Riboflavin mononucleotide", "Flavine mononucleotide", "Riboflavin 5\u2032-phosphate", "Flanin", "Flavol", "Bisulase", "Alloxazine mononucleotide", "Riboflavin monophosphate", "E 101a", "E 101"], "SMILES": "C(C(C(C(COP(=O)(O)O)O)O)O)N1C=2C(N=C3C1=NC(=O)NC3=O)=CC(C)=C(C)C2", "physical_data": {"Molecular Weight": "456.34", "Molecular Formula": "C17H21N4O9P", "Melting Point": "195 \u00b0C"}}