{"cas_no": "146-48-5", "cn_name": "\u80b2\u4ea8\u5bbe", "en_name": ["Yohimbine", "Yohimban-16-carboxylic acid, 17-hydroxy-, methyl ester, (16\u03b1,17\u03b1)-", "Yohimban-16\u03b1-carboxylic acid, 17\u03b1-hydroxy-, methyl ester", "Yohimbol-16\u03b1-carboxylic acid, methyl ester", "Benz[g]indolo[2,3-a]quinolizine, yohimban-16-carboxylic acid deriv.", "Aphrodine", "Aphrosol", "Corynine", "Quebrachine", "Yohimbic acid methyl ester", "Yohimbine", "Quebrachin", "Yohimbin", "(+)-Yohimbine", "trans-Quinolizidine yohimbine", "MeSH ID: D015016"], "SMILES": "C(OC)(=O)C1C2CC3C4=C(C=5C(N4)=CC=CC5)CCN3CC2CCC1O", "physical_data": {"Molecular Weight": "354.44", "Molecular Formula": "C21H26N2O3", "Melting Point": "241 \u00b0C"}}