{"cas_no": "146-80-5", "cn_name": "\u9ec4\u560c\u5464\u6838\u82f7", "en_name": ["Xanthosine", "Xanthosine", "9-\u03b2-D-Ribofuranosylxanthine", "\u03b2-D-Ribofuranoside, xanthine-9", "1H-Purine-2,6-dione, 3,9-dihydro-9-\u03b2-D-ribofuranosyl-", "3,9-Dihydro-9-\u03b2-D-ribofuranosyl-1H-purine-2,6-dione", "NSC 18930", "2,3-Dihydro-2-oxoinosine", "Inosine, 2,3-dihydro-2-oxo-"], "SMILES": "O=C1C2=C(N(C=N2)C3OC(CO)C(O)C3O)NC(=O)N1", "physical_data": {"Molecular Weight": "284.23", "Molecular Formula": "C10H12N4O6", "Melting Point": "144-147 \u00b0C"}}