{"cas_no": "146-77-0", "cn_name": "2-\u6c2f\u817a\u560c\u5464\u6838\u82f7", "en_name": ["2-Chloroadenosine", "Adenosine, 2-chloro-", "2-Chloroadenosine", "2-Chloro-D-adenosine", "Antibiotic AT 265B", "NSC 36896", "CADO", "MeSH ID: D015762"], "SMILES": "NC1=C2C(N(C=N2)C3OC(CO)C(O)C3O)=NC(Cl)=N1", "physical_data": {"Molecular Weight": "301.69", "Molecular Formula": "C10H12ClN5O4", "Melting Point": "135 \u00b0C"}}