{"cas_no": "146-68-9", "cn_name": "\u7898\u785d\u57fa\u6c2f\u5316\u56db\u6c2e\u5511\u84dd", "en_name": ["Iodonitrotetrazolium violet", "2H-Tetrazolium, 2-(4-iodophenyl)-3-(4-nitrophenyl)-5-phenyl-, chloride (1:1)", "[2-(p-Iodophenyl)-3-(p-nitrophenyl)-5-phenyl-2H-tetrazolium chloride]", "2H-Tetrazolium, 2-(p-iodophenyl)-3-(p-nitrophenyl)-5-phenyl-, chloride", "2H-Tetrazolium, 2-(4-iodophenyl)-3-(4-nitrophenyl)-5-phenyl-, chloride", "INT", "2-(p-Iodophenyl)-3-(p-nitrophenyl)-5-phenyltetrazolium chloride", "2-(4-Iodophenyl)-3-(4-nitrophenyl)-5-phenyltetrazolium chloride", "Iodonitro tetrazolium", "Iodonitrotetrazolium violet", "3-(p-Nitrophenyl)-2-(p-iodophenyl)-5-phenyltetrazolium chloride", "Iodonitrotetrazolium purple", "p-Iodonitrotetrazolium violet", "2-(4-Iodophenyl)-3-(4-nitrophenyl)-5-phenyl-2H-tetrazolium chloride", "NSC 27620"], "SMILES": "N(=O)(=O)C1=CC=C([N+]=2N(N=C(N2)C3=CC=CC=C3)C4=CC=C(I)C=C4)C=C1.[Cl-]", "physical_data": {"Molecular Weight": "", "Molecular Formula": "C19H13IN5O2.Cl", "Melting Point": "229 \u00b0C"}}