{"cas_no": "146-78-1", "cn_name": "2-\u6c1f\u817a\u7519", "en_name": ["2-Fluoroadenosine", "Adenosine, 2-fluoro-", "2-Fluoroadenosine", "2-Fluoro-9-\u03b2-D-ribofuranosyladenine", "NSC 30605"], "SMILES": "NC1=C2C(N(C=N2)C3OC(CO)C(O)C3O)=NC(F)=N1", "physical_data": {"Molecular Weight": "285.23", "Molecular Formula": "C10H12FN5O4", "Melting Point": "200 \u00b0C (decomp)"}}