{"cas_no": "1460-02-2", "cn_name": "1,3,5-\u4e09\u53d4\u4e01\u57fa\u82ef", "en_name": ["1,3,5-Tri-tert-butylbenzene", "Benzene, 1,3,5-tris(1,1-dimethylethyl)-", "Benzene, 1,3,5-tri-tert-butyl-", "1,3,5-Tris(1,1-dimethylethyl)benzene", "1,3,5-Tri-tert-butylbenzene", "1,3,5-Tri-t-butylbenzene", "1,3,5-Tris(tert-butyl)benzene", "1,3,5-Tritert-butylbenzene"], "SMILES": "C(C)(C)(C)C1=CC(C(C)(C)C)=CC(C(C)(C)C)=C1", "physical_data": {"Molecular Weight": "246.43", "Molecular Formula": "C18H30", "Boiling Point": "115-130 \u00b0C @ Press: 10 Torr", "Melting Point": "73 \u00b0C"}}