{"cas_no": "1460-34-0", "cn_name": "3-\u7532\u57fa-2-\u6c27\u57fa\u620a\u9178", "en_name": ["(\u00b1)-3-Methyl-2-oxovaleric acid", "Pentanoic acid, 3-methyl-2-oxo-", "Valeric acid, 3-methyl-2-oxo-", "3-Methyl-2-oxopentanoic acid", "\u03b1-Oxo-\u03b2-methylvaleric acid", "\u03b1-Oxo-\u03b2-methyl-n-valeric acid", "\u03b1-Keto-\u03b2-methylvaleric acid", "\u03b1-keto-\u03b2-Methylvaleric acid", "2-Oxoisoleucine", "2-Oxo-3-methylvaleric acid", "\u03b1-keto-\u03b2-Methyl-n-valeric acid", "3-Methyl-2-oxovaleric acid", "2-Oxo-3-methyl-n-valeric acid", "DL-3-Ethyl-3-methylpyruvic acid", "dl-3-Methyl-2-oxovaleric acid", "DL-3-Methyl-2-oxopentanoic acid", "DL-3-Methyl-2-oxopentanoate", "2-Oxo-3-methylpentanoic acid", "3-Methyl-2-ketovaleric acid", "(\u00b1)-3-Methyl-2-oxovaleric acid", "2-Oxo-3(RS)-methylvaleric acid"], "SMILES": "C(C(CC)C)(C(O)=O)=O", "physical_data": {"Molecular Weight": "130.14", "Molecular Formula": "C6H10O3", "Boiling Point": "78-80 \u00b0C @ Press: 12 Torr", "Melting Point": "30 \u00b0C"}}