{"cas_no": "1460-16-8", "cn_name": "\u73af\u5e9a\u7532\u9178", "en_name": ["Cycloheptanecarboxylic acid", "Cycloheptanecarboxylic acid", "Cycloheptylcarboxylic acid", "NSC 18964", "Cycloheptanoic acid"], "SMILES": "C(O)(=O)C1CCCCCC1", "physical_data": {"Molecular Weight": "142.20", "Molecular Formula": "C8H14O2", "Boiling Point": "259 \u00b0C", "Melting Point": "97.5-98.0 \u00b0C", "Density": "1.0423 g/cm\u00b3 @ Temp: 20 \u00b0C"}}