{"cas_no": "1460-18-0", "cn_name": "\u5341\u4e94\u78b3\u4e8c\u5143\u9178", "en_name": ["Pentadecanedioic acid", "Pentadecanedioic acid", "1,13-Tridecanedicarboxylic acid", "1,15-Pentadecanedioic acid", "1,13-Tridecamethylenedicarboxylic acid", "\u03c9-Carboxymyristic acid"], "SMILES": "C(CC(O)=O)CCCCCCCCCCCC(O)=O", "physical_data": {"Molecular Weight": "272.38", "Molecular Formula": "C15H28O4", "Melting Point": "114.6 \u00b0C"}}