{"cas_no": "1460-57-7", "cn_name": "1,2-\u73af\u5df1\u4e8c\u9187\uff0c\u987a\u53cd\u6df7\u5408\u7269", "en_name": ["trans-1,2-Cyclohexanediol", "1,2-Cyclohexanediol, (1R,2R)-rel-", "1,2-Cyclohexanediol, trans-", "rel-(1R,2R)-1,2-Cyclohexanediol", "trans-1,2-Cyclohexanediol", "trans-1,2-Dihydroxycyclohexane", "1,2-trans-Cyclohexanediol", "1,2-trans-Dihydroxycyclohexane", "trans-2-Hydroxycyclohexanol", "(\u00b1)-trans-1,2-Cyclohexanediol", "NSC 150568", "NSC 34836"], "SMILES": "OC1C(O)CCCC1", "physical_data": {"Molecular Weight": "116.16", "Molecular Formula": "C6H12O2", "Boiling Point": "117 \u00b0C", "Melting Point": "101-104 \u00b0C"}}