{"cas_no": "14618-59-8", "cn_name": "\u53d4-\u4e01\u57fa P-\u82ef\u7532\u57fa\u6c28\u57fa\u7532\u9178\u916f", "en_name": ["Carbamic acid, N-(4-methylphenyl)-, 1,1-dimethylethyl ester", "Carbamic acid, N-(4-methylphenyl)-, 1,1-dimethylethyl ester", "Carbanilic acid, p-methyl-, tert-butyl ester", "Carbamic acid, (4-methylphenyl)-, 1,1-dimethylethyl ester", "tert-Butyl p-tolylcarbamate", "tert-Butyl p-methylphenylcarbamate", "N-(tert-Butoxycarbonyl)-4-methylaniline", "tert-Butyl N-(4-methylphenyl)carbamate", "1,1-Dimethylethyl N-(4-methylphenyl)carbamate", "(4-Methylphenyl)carbamic acid tert-butyl ester", "N-(4-Methylphenyl)carbamic acid tert-butyl ester"], "SMILES": "N(C(OC(C)(C)C)=O)C1=CC=C(C)C=C1", "physical_data": {"Molecular Weight": "207.27", "Molecular Formula": "C12H17NO2", "Melting Point": "92-92.8 \u00b0C"}}