{"cas_no": "14617-85-7", "cn_name": "4-\u785d\u57fa\u82ef\u8089\u8c46\u853b\u9178\u916f", "en_name": ["p-Nitrophenyl myristate", "Tetradecanoic acid, 4-nitrophenyl ester", "Myristic acid, p-nitrophenyl ester", "p-Nitrophenyl myristate", "p-Nitrophenyl tetradecanoate", "4-Nitrophenyl tetradecanoate", "4-Nitrophenyl myristate", "NSC 122044"], "SMILES": "O(C(CCCCCCCCCCCCC)=O)C1=CC=C(N(=O)=O)C=C1", "physical_data": {"Molecular Weight": "349.46", "Molecular Formula": "C20H31NO4", "Melting Point": "55 \u00b0C"}}