{"cas_no": "14617-86-8", "cn_name": "\u786c\u8102\u9178\u5bf9\u785d\u57fa\u82ef\u916f", "en_name": ["p-Nitrophenyl stearate", "Octadecanoic acid, 4-nitrophenyl ester", "Stearic acid, p-nitrophenyl ester", "p-Nitrophenyl stearate", "p-Nitrophenyl octadecanoate", "4-Nitrophenyl stearate", "(4-Nitrophenyl) octadecanoate"], "SMILES": "O(C(CCCCCCCCCCCCCCCCC)=O)C1=CC=C(N(=O)=O)C=C1", "physical_data": {"Molecular Weight": "405.57", "Molecular Formula": "C24H39NO4", "Melting Point": "64-65 \u00b0C"}}