{"cas_no": "14610-37-8", "cn_name": "N-\u7532\u57fa-\u53d4\u4e01\u57fa\u80fa", "en_name": ["N,2-Dimethyl-2-propanamine", "2-Propanamine, N,2-dimethyl-", "Ethylamine, N,1,1-trimethyl-", "N,2-Dimethyl-2-propanamine", "N-Methyl-tert-butylamine", "tert-Butylmethylamine", "Methyl-tert-butylamine", "N-tert-Butylmethylamine", "N,1,1-Trimethylethylamine", "N-tert-Butyl-N-methylamine", "NSC 225080", "N-Methyl-N-tert-butylamine", "N-Methyl-2-(methyl)propan-2-amine"], "SMILES": "C(NC)(C)(C)C", "physical_data": {"Molecular Weight": "87.16", "Molecular Formula": "C5H13N", "Boiling Point": "58-60 \u00b0C", "Density": "0.727 g/cm\u00b3 @ Temp: 25 \u00b0C"}}