{"cas_no": "1461-22-9", "cn_name": "\u4e09\u4e01\u57fa\u6c2f\u5316\u9521", "en_name": ["Tributyltin chloride", "Stannane, tributylchloro-", "Tributyltin chloride", "Tributylchlorostannane", "Chlorotri-n-butyltin", "Chlorotributylstannane", "Tributylchlorotin", "Tri-n-butylchlorotin", "Tributylstannyl chloride", "Monochlorotributyltin", "WR 3396", "Chlorotributyltin", "Tri-n-butylchlorostannane", "Chlorotri-n-butylstannane", "Tri-n-butylstannyl chloride", "NSC 22323"], "SMILES": "[Sn](CCCC)(CCCC)(CCCC)Cl", "physical_data": {"Molecular Weight": "325.51", "Molecular Formula": "C12H27ClSn", "Boiling Point": "171-173 \u00b0C @ Press: 25 Torr", "Melting Point": "-19 \u00b0C", "Density": "1.20 g/cm\u00b3 @ Temp: 20 \u00b0C"}}