{"cas_no": "14615-72-6", "cn_name": "3,5-\u4e8c\u82c4\u6c27\u57fa\u82ef\u7532\u919b", "en_name": ["3,5-Dibenzyloxybenzaldehyde", "Benzaldehyde, 3,5-bis(phenylmethoxy)-", "Benzaldehyde, 3,5-bis(benzyloxy)-", "3,5-Bis(phenylmethoxy)benzaldehyde", "3,5-Dibenzyloxybenzaldehyde", "3,5-Bis(benzyloxy)benzaldehyde"], "SMILES": "O(CC1=CC=CC=C1)C2=CC(OCC3=CC=CC=C3)=CC(C=O)=C2", "physical_data": {"Molecular Weight": "318.37", "Molecular Formula": "C21H18O3", "Melting Point": "80-80.5 \u00b0C"}}