{"cas_no": "1461-97-8", "cn_name": "1,2-\u73af\u620a\u70f7\u4e8c\u7532\u9178", "en_name": ["trans-1,2-Cyclopentanedicarboxylic acid", "1,2-Cyclopentanedicarboxylic acid, (1R,2R)-rel-", "1,2-Cyclopentanedicarboxylic acid, trans-", "rel-(1R,2R)-1,2-Cyclopentanedicarboxylic acid", "trans-1,2-Cyclopentanedicarboxylic acid", "trans-1,2-Cyclopentanedioic acid"], "SMILES": "C(O)(=O)C1C(C(O)=O)CCC1", "physical_data": {"Molecular Weight": "158.15", "Molecular Formula": "C7H10O4", "Boiling Point": "46-49 \u00b0C @ Press: 110 Torr", "Melting Point": "160-161 \u00b0C"}}