{"cas_no": "1461-25-2", "cn_name": "\u56db\u4e01\u57fa\u9521", "en_name": ["Tetrabutyltin", "Stannane, tetrabutyl-", "Tetrabutylstannane", "Tetra-n-butyltin", "Tetrabutyltin", "Tetra-n-butylstannane", "Tetrabutyltin(IV)", "NSC 22330", "NSC 28131", "NSC 65524"], "SMILES": "[Sn](CCCC)(CCCC)(CCCC)CCCC", "physical_data": {"Molecular Weight": "347.17", "Molecular Formula": "C16H36Sn", "Boiling Point": "145 \u00b0C @ Press: 10 Torr", "Melting Point": "-97 \u00b0C", "Density": "1.054 g/cm\u00b3 @ Temp: 20 \u00b0C"}}