{"cas_no": "14611-51-9", "cn_name": "\u53f8\u6765\u5409\u5170 \u76d0\u9178\u76d0", "en_name": ["Selegiline", "Benzeneethanamine, N,\u03b1-dimethyl-N-2-propyn-1-yl-, (\u03b1R)-", "Phenethylamine, N,\u03b1-dimethyl-N-2-propynyl-, L-(-)-", "Benzeneethanamine, N,\u03b1-dimethyl-N-2-propynyl-, (R)-", "Benzeneethanamine, N,\u03b1-dimethyl-N-2-propynyl-, (\u03b1R)-", "(\u03b1R)-N,\u03b1-Dimethyl-N-2-propyn-1-ylbenzeneethanamine", "(-)-Deprenyl", "(-)-Deprenil", "Selegiline", "(R)-(-)-Deprenyl", "l-Deprenyl", "(-)-Selegiline", "Anipryl", "Selgene", "(R)-Selegiline", "Zelapar", "Emsam TTS", "Selegina", "Emsam", "(R)-Deprenyl", "MeSH ID: D012642"], "SMILES": "C(C(N(CC#C)C)C)C1=CC=CC=C1", "physical_data": {"Molecular Weight": "187.28", "Molecular Formula": "C13H17N", "Boiling Point": "92-93 \u00b0C @ Press: 0.8 Torr", "Melting Point": "137.5-139 \u00b0C"}}