{"cas_no": "146100-02-9", "cn_name": "\u7070\u6be1\u6bdb\u5fcd\u51ac\u6b21\u7682\u82f7\u4e59", "en_name": ["Macranthoside B", "Olean-12-en-28-oic acid, 3-[(O-\u03b2-D-glucopyranosyl-(1\u21924)-O-\u03b2-D-glucopyranosyl-(1\u21923)-O-6-deoxy-\u03b1-L-mannopyranosyl-(1\u21922)-\u03b1-L-arabinopyranosyl)oxy]-23-hydroxy-, (3\u03b2,4\u03b1)-", "(3\u03b2,4\u03b1)-3-[(O-\u03b2-D-Glucopyranosyl-(1\u21924)-O-\u03b2-D-glucopyranosyl-(1\u21923)-O-6-deoxy-\u03b1-L-mannopyranosyl-(1\u21922)-\u03b1-L-arabinopyranosyl)oxy]-23-hydroxyolean-12-en-28-oic acid", "Macranthoside B", "Hederagenin 3-O-\u03b2-D-glucopyranosyl-(1\u21924)-\u03b2-D-glucopyranosyl-(1\u21923)-\u03b1-L-rhamnopyranosyl-(1\u21922)-\u03b1-L-arabinopyranoside"], "SMILES": "CC12C(C3C(C(O)=O)(CC1)CCC(C)(C)C3)=CCC4C2(C)CCC5C4(C)CCC(OC6C(OC7C(O)C(OC8OC(CO)C(OC9OC(CO)C(O)C(O)C9O)C(O)C8O)C(O)C(C)O7)C(O)C(O)CO6)C5(CO)C", "physical_data": {"Molecular Weight": "1075.24", "Molecular Formula": "C53H86O22", "Melting Point": "260-262 \u00b0C"}}