{"cas_no": "14611-52-0", "cn_name": "\u76d0\u9178\u53f8\u6765\u5409\u5170", "en_name": ["Selegiline hydrochloride", "Benzeneethanamine, N,\u03b1-dimethyl-N-2-propyn-1-yl-, hydrochloride (1:1), (\u03b1R)-", "Benzeneethanamine, N,\u03b1-dimethyl-N-2-propynyl-, hydrochloride, (R)-", "Benzeneethanamine, N,\u03b1-dimethyl-N-2-propynyl-, hydrochloride, (\u03b1R)-", "(-)-Deprenil hydrochloride", "l-Deprenyl hydrochloride", "(-)-Deprenyl hydrochloride", "Eldepryl", "Selegiline hydrochloride", "Movergan", "Eldeprine", "Jumex", "Plurimen", "FP Tablet 2.5", "R-Selegiline hydrochloride", "Tonus", "(R)-(-)-Deprenyl hydrochloride", "(R)-N-Methyl-N-(1-phenylpropan-2-yl)prop-2-yn-1-amine hydrochloride"], "SMILES": "C(C(N(CC#C)C)C)C1=CC=CC=C1.Cl", "physical_data": {"Molecular Weight": "", "Molecular Formula": "C13H17N.ClH", "Melting Point": "141-142 \u00b0C"}}