{"cas_no": "14618-78-1", "cn_name": "4,4-\u4e8c\u7532\u6c27\u57fa\u4e01\u8148", "en_name": ["4,4-Dimethoxybutanenitrile", "Butanenitrile, 4,4-dimethoxy-", "Succinaldehydonitrile, dimethyl acetal", "Butyronitrile, 4,4-dimethoxy-", "4,4-Dimethoxybutanenitrile", "4,4-Dimethoxybutyronitrile", "3-Cyanopropionaldehyde dimethyl acetal", "\u03b2-Cyanopropionaldehyde dimethylacetal", "3-Cyanopropanal dimethyl acetal", "1,1-Dimethoxy-3-cyanopropane"], "SMILES": "C(CCC#N)(OC)OC", "physical_data": {"Molecular Weight": "129.16", "Molecular Formula": "C6H11NO2", "Boiling Point": "93 \u00b0C @ Press: 17 Torr", "Density": "0.992 g/cm\u00b3 @ Temp: 23 \u00b0C"}}