{"cas_no": "14611-34-8", "cn_name": "N\u03b1N\u03b4N\u03c9-TRI-CBZ-L-\u7cbe\u6c28\u9178", "en_name": ["12-(Phenylmethyl) (10S)-10-carboxy-5-imino-3-oxo-1-phenyl-6-[(phenylmethoxy)carbonyl]-2-oxa-4,6,11-triazadodecan-12-oate", "2-Oxa-4,6,11-triazadodecan-12-oic acid, 10-carboxy-5-imino-3-oxo-1-phenyl-6-[(phenylmethoxy)carbonyl]-, 12-(phenylmethyl) ester, (10S)-", "Ornithine, N2,N5-dicarboxy-N5-(carboxyamidino)-, N2,N5,N5-tribenzyl ester, L-", "2-Oxa-4,6,11-triazadodecan-12-oic acid, 10-carboxy-5-imino-3-oxo-1-phenyl-6-[(phenylmethoxy)carbonyl]-, 12-(phenylmethyl) ester, (S)-", "Arginine, tricarboxy-, N2,N5,N5-tribenzyl ester, L-", "12-(Phenylmethyl) (10S)-10-carboxy-5-imino-3-oxo-1-phenyl-6-[(phenylmethoxy)carbonyl]-2-oxa-4,6,11-triazadodecan-12-oate", "Tris(benzyloxycarbonyl)arginine", "L-Ornithine, N5-[imino[[(phenylmethoxy)carbonyl]amino]methyl]-N2,N5-bis[(phenylmethoxy)carbonyl]-", "NSC 120011", "(2S)-2-(Phenylmethoxycarbonylamino)-5-[phenylmethoxycarbonyl-(N\u2032-phenylmethoxycarbonylcarbamimidoyl)amino]pentanoic acid"], "SMILES": "N(C(OCC1=CC=CC=C1)=O)(CCCC(NC(OCC2=CC=CC=C2)=O)C(O)=O)C(NC(OCC3=CC=CC=C3)=O)=N", "physical_data": {"Molecular Weight": "576.60", "Molecular Formula": "C30H32N4O8", "Melting Point": "139 \u00b0C"}}