{"cas_no": "14618-80-5", "cn_name": "(R)-\u82c4\u6c27\u7532\u57fa\u73af\u6c27\u4e59\u70f7", "en_name": ["Benzyl (-)-glycidyl ether", "Oxirane, 2-[(phenylmethoxy)methyl]-, (2R)-", "Propane, 1-(benzyloxy)-2,3-epoxy-, (R)-", "Oxirane, [(phenylmethoxy)methyl]-, (R)-", "Oxirane, [(phenylmethoxy)methyl]-, (2R)-", "(2R)-2-[(Phenylmethoxy)methyl]oxirane", "(R)-O-Benzylglycidol", "(-)-2-(Benzyloxymethyl)oxirane", "(R)-Glycidol benzyl ether", "(R)-Benzylglycidol", "(-)-(R)-1,2-Epoxy-3-(benzyloxy)propane", "(R)-Glycidyl benzyl ether", "(R)-(-)-Glycidyl benzyl ether", "Benzyl (R)-(-)-glycidyl ether", "Benzyl (-)-glycidyl ether", "(R)-(-)-Benzylglycidol", "(R)-2-(Benzyloxymethyl)oxirane", "(-)-Glycidyl benzyl ether", "(R)-Benzyl glycidyl ether", "Benzyl (R)-glycidyl ether", "(R)-1-Benzyloxy-2,3-epoxypropane", "(R)-Benzyloxymethyloxirane", "(2R)-2-[(Benzyloxy)methyl]oxirane", "Benzyl (R)-2-epoxypropyl ether", "(R)-Benzyloxymethyloxirane", "(R)-(-)-Benzyl glycidyl ether", "(2R)-2-(Phenylmethoxymethyl)oxirane"], "SMILES": "C(OCC1=CC=CC=C1)C2CO2", "physical_data": {"Molecular Weight": "164.20", "Molecular Formula": "C10H12O2", "Boiling Point": "120-130 \u00b0C @ Press: 0.6 Torr"}}