{"cas_no": "1461-23-0", "cn_name": "\u4e09\u6b63\u4e01\u57fa\u6eb4\u5316\u9521", "en_name": ["Bromotributylstannane", "Stannane, bromotributyl-", "Tributyltin bromide", "Tin, bromotributyl-", "Bromotributylstannane", "Bromotributyltin", "Tributylstannyl bromide", "Tributylbromostannane", "NSC 202816", "Tri-n-butyltin bromide"], "SMILES": "[Sn](CCCC)(CCCC)(CCCC)Br", "physical_data": {"Molecular Weight": "369.96", "Molecular Formula": "C12H27BrSn", "Boiling Point": "163 \u00b0C", "Melting Point": "120 \u00b0C", "Density": "1.3365 g/cm\u00b3 @ Temp: 20 \u00b0C"}}