{"cas_no": "146256-98-6", "cn_name": "N-BOC-4-\u6c27\u4ee3-3-\u5421\u54af\u70f7\u7532\u9178\u4e59\u916f", "en_name": ["1-(1,1-Dimethylethyl) 3-ethyl 4-oxo-1,3-pyrrolidinedicarboxylate", "1,3-Pyrrolidinedicarboxylic acid, 4-oxo-, 1-(1,1-dimethylethyl) 3-ethyl ester", "1-(1,1-Dimethylethyl) 3-ethyl 4-oxo-1,3-pyrrolidinedicarboxylate", "1-tert-Butyl 3-ethyl 4-oxopyrrolidine-1,3-dicarboxylate"], "SMILES": "C(OCC)(=O)C1CN(C(OC(C)(C)C)=O)CC1=O", "physical_data": {"Molecular Weight": "257.28", "Molecular Formula": "C12H19NO5", "Melting Point": "54 \u00b0C"}}