{"cas_no": "1462-03-9", "cn_name": "1-\u7532\u57fa\u73af\u620a\u9187", "en_name": ["1-Methylcyclopentanol", "Cyclopentanol, 1-methyl-", "1-Methylcyclopentanol", "1-Methyl-1-cyclopentanol", "1-Hydroxy-1-methylcyclopentane", "NSC 23230", "1-Methylcyclopentan-1-ol", "1-Methyl-1-hydroxycyclopentane", "1-Methylcyclopentyl alcohol"], "SMILES": "CC1(O)CCCC1", "physical_data": {"Molecular Weight": "100.16", "Molecular Formula": "C6H12O", "Boiling Point": "136 \u00b0C", "Melting Point": "36 \u00b0C", "Density": "0.9238 g/cm\u00b3 @ Temp: 16 \u00b0C"}}