{"cas_no": "1462-86-8", "cn_name": "3-\u6c28\u57fa\u5421\u5576-2-\u7fa7\u9178", "en_name": ["3-Aminopicolinic acid", "2-Pyridinecarboxylic acid, 3-amino-", "Picolinic acid, 3-amino-", "3-Amino-2-pyridinecarboxylic acid", "3-Aminopicolinic acid", "3-Amino-2-carboxypyridine", "3-Amino-2-picolinic acid"], "SMILES": "C(O)(=O)C1=C(N)C=CC=N1", "physical_data": {"Molecular Weight": "138.12", "Molecular Formula": "C6H6N2O2", "Melting Point": "210 \u00b0C"}}