{"cas_no": "14622-13-0", "cn_name": "\u6708\u6842\u9178\u9502", "en_name": ["Dodecanoic acid, lithium salt (1:1)", "Dodecanoic acid, lithium salt (1:1)", "Lauric acid, lithium salt", "Dodecanoic acid, lithium salt", "Lithium laurate", "Lithium dodecanoate", "LS 3"], "SMILES": "C(CCCCCCCC)CCC(O)=O.[Li]", "physical_data": {"Molecular Weight": "", "Molecular Formula": "C12H24O2.Li", "Melting Point": "226-227 \u00b0C"}}