{"cas_no": "1462-84-6", "cn_name": "2,3,6-\u4e09\u7532\u57fa\u5421\u5576", "en_name": ["2,3,6-Trimethylpyridine", "Pyridine, 2,3,6-trimethyl-", "2,3,6-Trimethylpyridine", "2,3,6-Collidine", "NSC 76593"], "SMILES": "CC1=C(C)C=CC(C)=N1", "physical_data": {"Molecular Weight": "121.18", "Molecular Formula": "C8H11N", "Boiling Point": "171.6 \u00b0C", "Melting Point": "143-144 \u00b0C", "Density": "0.9220 g/cm\u00b3 @ Temp: 25 \u00b0C"}}