{"cas_no": "1462-12-0", "cn_name": "\u4e9a\u4e59\u57fa\u4e19\u4e8c\u9178\u4e8c\u4e59\u916f", "en_name": ["1,3-Diethyl 2-ethylidenepropanedioate", "Propanedioic acid, 2-ethylidene-, 1,3-diethyl ester", "Malonic acid, ethylidene-, diethyl ester", "Propanedioic acid, ethylidene-, diethyl ester", "1,3-Diethyl 2-ethylidenepropanedioate", "Ethylidenemalonic acid diethyl ester", "Diethyl ethylidene malonate", "Ethyl 2-ethoxycarbonyl-2-butenoate", "Ethylidenepropanedioic acid diethyl ester", "NSC 1084", "Diethyl 2-ethylidenemalonate", "2-Ethylidenemalonic acid diethyl ester"], "SMILES": "C(C(OCC)=O)(C(OCC)=O)=CC", "physical_data": {"Molecular Weight": "186.21", "Molecular Formula": "C9H14O4", "Boiling Point": "116-118 \u00b0C @ Press: 20 Torr", "Density": "1.0425 g/cm\u00b3 @ Temp: 20 \u00b0C"}}