{"cas_no": "14631-46-0", "cn_name": "5,6,7,8-\u56db\u6c22-8-\u7f9f\u57fa\u55b9\u5549", "en_name": ["8-Hydroxy-5,6,7,8-tetrahydroquinoline", "8-Quinolinol, 5,6,7,8-tetrahydro-", "5,6,7,8-Tetrahydro-8-quinolinol", "8-Hydroxy-5,6,7,8-tetrahydroquinoline"], "SMILES": "OC1C=2C(CCC1)=CC=CN2", "physical_data": {"Molecular Weight": "149.19", "Molecular Formula": "C9H11NO", "Boiling Point": "88-96 \u00b0C @ Press: 2 Torr", "Melting Point": "64-65 \u00b0C"}}