{"cas_no": "146374-27-8", "cn_name": "\u53d4\u4e01\u57fa\u4e9a\u78fa\u9170\u80fa", "en_name": ["2-Methyl-2-propanesulfinamide", "2-Propanesulfinamide, 2-methyl-", "2-Methyl-2-propanesulfinamide", "tert-Butylsulfinamide", "1,1-Dimethylethylsulfinamide", "(\u00b1)-tert-Butylsulfinamide", "2-Methylpropan-2-sulfinamide", "tert-Butanesulfinamide"], "SMILES": "C(S(N)=O)(C)(C)C", "physical_data": {"Molecular Weight": "121.20", "Molecular Formula": "C4H11NOS", "Melting Point": "98-100 \u00b0C"}}