{"cas_no": "1463-17-8", "cn_name": "2,8-\u4e8c\u7532\u57fa\u55b9\u5549", "en_name": ["2,8-Dimethylquinoline", "Quinoline, 2,8-dimethyl-", "2,8-Dimethylquinoline", "o-Toluquinaldine", "8-Methylquinaldine", "NSC 62133"], "SMILES": "CC=1C2=C(C=CC(C)=N2)C=CC1", "physical_data": {"Molecular Weight": "157.21", "Molecular Formula": "C11H11N", "Boiling Point": "255.3 \u00b0C", "Melting Point": "27 \u00b0C", "Density": "1.036 g/cm\u00b3 @ Temp: 20 \u00b0C"}}