{"cas_no": "1463-10-1", "cn_name": "5-\u7532\u57fa\u5c3f\u7519", "en_name": ["5-Methyluridine", "Uridine, 5-methyl-", "5-Methyluridine", "Ribothymidine", "Thymine riboside", "2,4(1H,3H)-Pyrimidinedione, 5-methyl-1-\u03b2-D-ribofuranosyl-", "\u03b2-D-Ribofuranoside, thymine-1", "1-\u03b2-D-Ribofuranosylthymine", "1-[3,4-Dihydroxy-5-(hydroxymethyl)oxolan-2-yl]-5-methyl-1,3-dihydropyrimidine-2,4-dione", "1-[3,4-Dihydroxy-5-(hydroxymethyl)tetrahydro-2-furanyl]-5-methyl-2,4(1H,3H)-pyrimidinedione", "1-[3,4-Dihydroxy-5-(hydroxymethyl)oxolan-2-yl]-5-methylpyrimidine-2,4-dione"], "SMILES": "OC1C(OC(CO)C1O)N2C(=O)NC(=O)C(C)=C2", "physical_data": {"Molecular Weight": "258.23", "Molecular Formula": "C10H14N2O6", "Melting Point": "183-185 \u00b0C"}}