{"cas_no": "14630-42-3", "cn_name": "1-\u4e09\u7532\u57fa\u7532\u7845\u70f7\u57fa-3,3-\u4e8c\u7532\u57fa-1-\u4e01\u7094", "en_name": ["(3,3-Dimethyl-1-butyn-1-yl)trimethylsilane", "Silane, (3,3-dimethyl-1-butyn-1-yl)trimethyl-", "Silane, (3,3-dimethyl-1-butynyl)trimethyl-", "(3,3-Dimethyl-1-butyn-1-yl)trimethylsilane", "tert-Butyl(trimethylsilyl)acetylene", "1-(Trimethylsilyl)-3,3-dimethyl-1-butyne", "3,3-Dimethyl-1-(trimethylsilyl)-1-butyne", "(3,3-Dimethyl-1-butynyl)trimethylsilane", "1-(tert-Butyl)-2-(trimethylsilyl)acetylene"], "SMILES": "C(#C[Si](C)(C)C)C(C)(C)C", "physical_data": {"Molecular Weight": "154.32", "Molecular Formula": "C9H18Si", "Boiling Point": "80-81 \u00b0C @ Press: 150 Torr"}}