{"cas_no": "14631-08-4", "cn_name": "2-\u6c2f-4,5-\u4e8c\u6c28\u57fa\u5627\u5576", "en_name": ["2-Chloro-4,5-pyrimidinediamine", "4,5-Pyrimidinediamine, 2-chloro-", "Pyrimidine, 4,5-diamino-2-chloro-", "2-Chloro-4,5-pyrimidinediamine", "2-Chloro-4,5-diaminopyrimidine", "4,5-Diamino-2-chloropyrimidine", "NSC 45754", "2-Chloropyrimidine-4,5-diamine"], "SMILES": "NC=1C(N)=CN=C(Cl)N1", "physical_data": {"Molecular Weight": "144.56", "Molecular Formula": "C4H5ClN4", "Melting Point": "220 \u00b0C (decomp)"}}