{"cas_no": "14634-93-6", "cn_name": "\u4e59\u57fa\u82ef\u57fa\u4e8c\u786b\u4ee3\u6c28\u57fa\u7532\u9178\u950c", "en_name": ["(T-4)-Bis(N-ethyl-N-phenylcarbamodithioato-\u03baS,\u03baS\u2032)zinc", "Zinc, bis(N-ethyl-N-phenylcarbamodithioato-\u03baS,\u03baS\u2032)-, (T-4)-", "Zinc, bis(N-ethyldithiocarbanilato)-", "Zinc, bis(ethylphenylcarbamodithioato-S,S\u2032)-, (T-4)-", "Zinc, bis(ethylphenylcarbamodithioato-\u03baS,\u03baS\u2032)-, (T-4)-", "Carbamodithioic acid, ethylphenyl-, zinc complex", "(T-4)-Bis(N-ethyl-N-phenylcarbamodithioato-\u03baS,\u03baS\u2032)zinc", "Zinc ethylphenyldithiocarbamate", "Carbamodithioic acid, ethylphenyl-, zinc salt", "Zinc N-ethyl-N-phenyldithiocarbamate", "Zinc bis(N-ethyl-N-phenyldithiocarbamate)", "Accelerator EFK", "Hermat FEDK", "Vulkacit P extra N", "Nocceler PX", "Vulkacit II extra N", "Zinc phenylethyldithiocarbamate", "Sanceler PX", "Accelerator PX"], "SMILES": "N(CC)(C=1[S-][Zn+2]2([S-]C(N(CC)C3=CC=CC=C3)=[S]2)[S]1)C4=CC=CC=C4", "physical_data": {"Molecular Weight": "", "Molecular Formula": "C18H20N2S4Zn", "Melting Point": "205 \u00b0C"}}