{"cas_no": "146362-70-1", "cn_name": "2-[[[1-(7-\u6c2f-4-\u55b9\u5549\u57fa)-5-(2,6-\u4e8c\u7532\u6c27\u57fa\u82ef\u57fa)-1H-\u5421\u5511-3-\u57fa]\u7fb0\u57fa]\u6c28\u57fa]-\u91d1\u521a\u70f7-2-\u7fa7\u9178", "en_name": ["Meclinertant", "Tricyclo[3.3.1.13,7]decane-2-carboxylic acid, 2-[[[1-(7-chloro-4-quinolinyl)-5-(2,6-dimethoxyphenyl)-1H-pyrazol-3-yl]carbonyl]amino]-", "2-[[[1-(7-Chloro-4-quinolinyl)-5-(2,6-dimethoxyphenyl)-1H-pyrazol-3-yl]carbonyl]amino]tricyclo[3.3.1.13,7]decane-2-carboxylic acid", "SR 48692", "Meclinertant"], "SMILES": "N(C(=O)C1=NN(C(=C1)C2=C(OC)C=CC=C2OC)C=3C4=C(N=CC3)C=C(Cl)C=C4)C5(C(O)=O)C6CC7CC5CC(C6)C7", "physical_data": {"Molecular Weight": "587.07", "Molecular Formula": "C32H31ClN4O5", "Melting Point": "219-222 \u00b0C"}}