{"cas_no": "14631-48-2", "cn_name": "5,6,7,8-\u56db\u6c22-1-\u55b9\u5549", "en_name": ["5,6,7,8-Tetrahydroquinoline N-oxide", "Quinoline, 5,6,7,8-tetrahydro-, 1-oxide", "5,6,7,8-Tetrahydroquinoline N-oxide", "1-Oxido-5,6,7,8-tetrahydroquinolin-1-ium"], "SMILES": "O=N1=C2C(=CC=C1)CCCC2", "physical_data": {"Molecular Weight": "149.19", "Molecular Formula": "C9H11NO", "Boiling Point": "151-153 \u00b0C @ Press: 3 Torr", "Melting Point": "69 \u00b0C"}}