{"cas_no": "14630-40-1", "cn_name": "\u4e8c(\u4e09\u7532\u57fa\u7532\u7845\u70f7\u57fa)\u4e59\u7094", "en_name": ["1,1\u2032-(1,2-Ethynediyl)bis[1,1,1-trimethylsilane]", "Silane, 1,1\u2032-(1,2-ethynediyl)bis[1,1,1-trimethyl-", "2,5-Disilahex-3-yne, 2,2,5,5-tetramethyl-", "Silane, 1,2-ethynediylbis[trimethyl-", "1,1\u2032-(1,2-Ethynediyl)bis[1,1,1-trimethylsilane]", "Bis(trimethylsilyl)acetylene", "1,2-Bis(trimethylsilyl)acetylene", "Bis(trimethylsilyl)ethyne", "1,2-Bis(trimethylsilyl)ethyne", "1,2-Bis(trimethylsilanyl)ethyne", "Ethyne-1,2-diylbis(trimethylsilane)", "Trimethyl(2-trimethylsilylethynyl)silane"], "SMILES": "C(#C[Si](C)(C)C)[Si](C)(C)C", "physical_data": {"Molecular Weight": "170.40", "Molecular Formula": "C8H18Si2", "Boiling Point": "134 \u00b0C", "Melting Point": "26 \u00b0C", "Density": "0.770 g/cm\u00b3"}}