{"cas_no": "1464-42-2", "cn_name": "DL-\u7852\u4ee3\u86cb\u6c28\u9178", "en_name": ["Selenomethionine", "Butanoic acid, 2-amino-4-(methylseleno)-", "Butyric acid, 2-amino-4-(methylselenyl)-", "2-Amino-4-(methylseleno)butanoic acid", "2-Amino-4-(methylselenyl)butyric acid", "Selenomethionine", "Selenium methionine", "2-Amino-4-(methylseleno)butyric acid", "DL-Selenomethionine", "dl-Selenomethionine", "Seleno-DL-methionine", "(\u00b1)-Selenomethionine", "2-Azaniumyl-4-methylselanylbutanoate"], "SMILES": "C(C(O)=O)(CC[Se]C)N", "physical_data": {"Molecular Weight": "196.11", "Molecular Formula": "C5H11NO2Se", "Melting Point": "265 \u00b0C (decomp)"}}