{"cas_no": "146426-40-6", "cn_name": "2-(2-\u6c2f\u82ef\u57fa)-5,7-\u4e8c\u7f9f\u57fa-8-[(3S,4R)-3-\u7f9f\u57fa-1-\u7532\u57fa-4-\u54cc\u5576\u57fa]\u82ef\u5e76\u5421\u5583-4-\u916e", "en_name": ["Alvocidib", "4H-1-Benzopyran-4-one, 2-(2-chlorophenyl)-5,7-dihydroxy-8-[(3S,4R)-3-hydroxy-1-methyl-4-piperidinyl]-", "4H-1-Benzopyran-4-one, 2-(2-chlorophenyl)-5,7-dihydroxy-8-(3-hydroxy-1-methyl-4-piperidinyl)-, cis-(-)-", "2-(2-Chlorophenyl)-5,7-dihydroxy-8-[(3S,4R)-3-hydroxy-1-methyl-4-piperidinyl]-4H-1-benzopyran-4-one", "L 86-8275", "Flavopiridol", "HMR 1275", "Alvocidib", "(-)-2-(2-Chlorophenyl)-5,7-dihydroxy-8-[(3S,4R)-3-hydroxy-1-methylpiperidin-4-yl]-4H-1-benzopyran-4-one", "HL 275", "L 868275", "DSP 2033"], "SMILES": "OC=1C(=C2C(C(=O)C=C(O2)C3=C(Cl)C=CC=C3)=C(O)C1)C4C(O)CN(C)CC4", "physical_data": {"Molecular Weight": "401.84", "Molecular Formula": "C21H20ClNO5", "Melting Point": "52.5 \u00b0C"}}