{"cas_no": "1464-33-1", "cn_name": "5-\u7f9f\u57fa-4-\u7532\u6c27\u7532\u57fa-6-\u7532\u57fa-3-\u5421\u5576\u7532\u9187", "en_name": ["4\u2032-O-Methylpyridoxine", "3-Pyridinemethanol, 5-hydroxy-4-(methoxymethyl)-6-methyl-", "5-Hydroxy-4-(methoxymethyl)-6-methyl-3-pyridinemethanol", "4-Methoxypyridoxine", "\u03b14-O-Methylpyridoxol", "5-Hydroxy-3-(hydroxymethyl)-4-(methoxymethyl)-6-methylpyridine", "4\u2032-Methoxypyridoxine", "Ginkgotoxin", "4\u2032-O-Methylpyridoxine"], "SMILES": "C(OC)C=1C(CO)=CN=C(C)C1O", "physical_data": {"Molecular Weight": "183.20", "Molecular Formula": "C9H13NO3", "Melting Point": "205-207 \u00b0C"}}