{"cas_no": "14643-87-9", "cn_name": "\u4e19\u70ef\u9178\u950c", "en_name": ["Zinc acrylate", "2-Propenoic acid, zinc salt (2:1)", "Acrylic acid, zinc salt", "Zinc acrylate", "2-Propenoic acid, zinc salt", "Zinc diacrylate", "Zinc(II) acrylate", "Actor ZA", "Saret 633", "RR-ZDA", "SR 111", "SR 705", "SR 633", "Blemmer S 122", "SR 633 (acrylate)", "Sartomer 633", "ZNDA 90S", "SR 526", "SR 706", "PC 300", "SR 9016", "P-Cure 300", "Sanceler SR", "85S", "ZN-DA 85S", "Sartomer SR 705", "ZDA-GR 75", "K-Cure 339", "WN 86", "Dymalink 526", "Dymalink 9200", "Dymalink D 705", "ZN-DA", "Dymalink 633", "ZA 30", "ZN-DA 90S", "ZN-DA 90SN", "ZDA 90", "ZDAA", "ZN-DA 100", "ZDA 100"], "SMILES": "C(C=C)(O)=O.[Zn]", "physical_data": {"Molecular Weight": "", "Molecular Formula": "C3H4O2.<sup>1</sup>/2Zn", "Melting Point": "&gt;250 \u00b0C", "Density": "1.600 g/cm\u00b3"}}