{"cas_no": "14644-61-2", "cn_name": "\u786b\u9178\u9506", "en_name": ["Zirconium sulfate", "Sulfuric acid, zirconium(4+) salt (2:1)", "Zirconium sulfate (Zr(SO4)2)", "Zirconium sulfate", "Zirconium disulfate", "Zirconium orthosulfate", "Zirconium sulfate (1:2)", "Blancorol ZB 33", "Tanfix SZS", "Norsyn GSZ", "ZB 33N"], "SMILES": "S(=O)(=O)(O)O.[Zr]", "physical_data": {"Molecular Weight": "", "Molecular Formula": "H2O4S.<sup>1</sup>/2Zr", "Melting Point": "410 \u00b0C (decomp)", "Density": "3.22 g/cm\u00b3 @ Temp: 16 \u00b0C"}}