{"cas_no": "1464-44-4", "cn_name": "\u82ef\u57fa-BETA-\u8461\u8404\u7cd6\u5421\u5583\u7cd6\u82f7", "en_name": ["Phenyl \u03b2-D-glucopyranoside", "\u03b2-D-Glucopyranoside, phenyl", "Glucopyranoside, phenyl, \u03b2-D-", "Phenyl \u03b2-D-glucopyranoside", "Phenyl \u03b2-D-glucoside"], "SMILES": "O(C1C(O)C(O)C(O)C(CO)O1)C2=CC=CC=C2", "physical_data": {"Molecular Weight": "256.25", "Molecular Formula": "C12H16O6", "Melting Point": "176-178 \u00b0C"}}