{"cas_no": "146478-72-0", "cn_name": "FR901464", "en_name": ["(2Z,4S)-4-(Acetyloxy)-N-[(2R,3R,5S,6S)-6-[(2E,4E)-5-[(3R,4R,5R,7S)-4,7-dihydroxy-7-methyl-1,6-dioxaspiro[2.5]oct-5-yl]-3-methyl-2,4-pentadien-1-yl]tetrahydro-2,5-dimethyl-2H-pyran-3-yl]-2-pentenamide", "2-Pentenamide, 4-(acetyloxy)-N-[(2R,3R,5S,6S)-6-[(2E,4E)-5-[(3R,4R,5R,7S)-4,7-dihydroxy-7-methyl-1,6-dioxaspiro[2.5]oct-5-yl]-3-methyl-2,4-pentadien-1-yl]tetrahydro-2,5-dimethyl-2H-pyran-3-yl]-, (2Z,4S)-", "2-Pentenamide, 4-(acetyloxy)-N-[6-[5-(4,7-dihydroxy-7-methyl-1,6-dioxaspiro[2.5]oct-5-yl)-3-methyl-2,4-pentadienyl]tetrahydro-2,5-dimethyl-2H-pyran-3-yl]-, [3R-[3R*,4R*,5R*[1[2R*,3R*(2Z,4S*),5S*,6S*],2E,4E],7S*]]-", "2-Pentenamide, 4-(acetyloxy)-N-[(2R,3R,5S,6S)-6-[(2E,4E)-5-[(3R,4R,5R,7S)-4,7-dihydroxy-7-methyl-1,6-dioxaspiro[2.5]oct-5-yl]-3-methyl-2,4-pentadienyl]tetrahydro-2,5-dimethyl-2H-pyran-3-yl]-, (2Z,4S)-", "(2Z,4S)-4-(Acetyloxy)-N-[(2R,3R,5S,6S)-6-[(2E,4E)-5-[(3R,4R,5R,7S)-4,7-dihydroxy-7-methyl-1,6-dioxaspiro[2.5]oct-5-yl]-3-methyl-2,4-pentadien-1-yl]tetrahydro-2,5-dimethyl-2H-pyran-3-yl]-2-pentenamide", "WB 2663B", "FR 901464"], "SMILES": "OC1C2(CO2)CC(C)(O)OC1C=CC(=CCC3C(C)CC(NC(C=CC(OC(C)=O)C)=O)C(C)O3)C", "physical_data": {"Molecular Weight": "507.62", "Molecular Formula": "C27H41NO8", "Melting Point": "65-70 \u00b0C"}}