{"cas_no": "14641-93-1", "cn_name": "D-\u4e73\u7cd6\u5355\u6c34\u5408\u7269", "en_name": ["\u03b1-D-Lactose", "\u03b1-D-Glucopyranose, 4-O-\u03b2-D-galactopyranosyl-", "Lactose, \u03b1-", "4-O-\u03b2-D-Galactopyranosyl-\u03b1-D-glucopyranose", "\u03b1-Lactose", "\u03b1-D-Lactose"], "SMILES": "O(C1C(CO)OC(O)C(O)C1O)C2OC(CO)C(O)C(O)C2O", "physical_data": {"Molecular Weight": "342.30", "Molecular Formula": "C12H22O11", "Melting Point": "238 \u00b0C"}}