{"cas_no": "14647-23-5", "cn_name": "1,2-\u53cc(\u4e8c\u82ef\u57fa\u81a6)\u4e59\u70f7\u6c2f\u5316\u954d", "en_name": ["(Bis(diphenylphosphino)ethane)dichloronickel", "Nickel, dichloro[1,2-ethanediylbis[diphenylphosphine-\u03baP]]-, (SP-4-2)-", "Nickel, dichloro[ethylenebis[diphenylphosphine]]-, cis-", "Nickel, dichloro[1,2-ethanediylbis[diphenylphosphine]-P,P\u2032]-, (SP-4-2)-", "Nickel, dichloro[ethylenebis[diphenylphosphine]]-", "Phosphine, 1,2-ethanediylbis[diphenyl-, nickel complex", "Dichloro[ethylenebis[diphenylphosphine]]nickel", "Dichloro[1,2-ethanediylbis[diphenylphosphine]-P,P\u2032]nickel", "Dichloro[1,2-bis(diphenylphosphino)ethane]nickel(II)", "1,2-Bis(diphenylphosphino)ethanenickel dichloride", "[1,2-Bis(diphenylphosphino)ethane]dichloronickel", "Dichloro[1,2-ethanediylbis[diphenylphosphine]]nickel", "Dichloro[1,2-bis(diphenylphosphino)ethane]nickel", "Dichlorobis[(diphenylphosphino)ethane]nickel(II)", "(Bis(diphenylphosphino)ethane)dichloronickel", "[1,2-Bis(diphenylphosphino)ethane]nickel(II) chloride", "cis-(1,2-Bis(diphenylphosphino)ethane)dichloronickel", "Nickel 1,2-Bis(diphenylphosphino)ethane dichloride", "1,2-Ethylenebis(diphenylphosphine)nickel dichloride"], "SMILES": "[Cl-][Ni+2]1([Cl-])[P](CC[P]1(C2=CC=CC=C2)C3=CC=CC=C3)(C4=CC=CC=C4)C5=CC=CC=C5", "physical_data": {"Molecular Weight": "", "Molecular Formula": "C26H24Cl2NiP2", "Melting Point": "274 \u00b0C (decomp)"}}