{"cas_no": "1464-53-5", "cn_name": "\u53cc\u73af\u6c27\u5316\u4e01\u4e8c\u70ef", "en_name": ["Diepoxybutane", "2,2\u2032-Bioxirane", "Butane, 1,2:3,4-diepoxy-", "1,1\u2032-Bi[ethylene oxide]", "Butadiene diepoxide", "Butadiene dioxide", "1,2:3,4-Diepoxybutane", "Bioxirane", "Diepoxybutane", "Dioxybutadiene", "Butane diepoxide", "1,3-Butadiene diepoxide", "DEB", "NSC 629", "1,3-Diepoxybutane", "2-(Oxiran-2-yl)oxirane"], "SMILES": "C1(CO1)C2CO2", "physical_data": {"Molecular Weight": "86.09", "Molecular Formula": "C4H6O2", "Boiling Point": "138 \u00b0C", "Melting Point": "-19 \u00b0C", "Density": "0.962 g/cm\u00b3"}}