{"cas_no": "1465-76-5", "cn_name": "1-\u53d4\u4e01\u57fa\u54cc\u5576-4-\u916e", "en_name": ["1-tert-Butyl-4-piperidinone", "4-Piperidinone, 1-(1,1-dimethylethyl)-", "4-Piperidone, 1-tert-butyl-", "1-(1,1-Dimethylethyl)-4-piperidinone", "1-tert-Butyl-4-piperidinone", "N-tert-Butyl-4-piperidone", "1-tert-Butyl-4-piperidone", "1-tert-Butyl-4-oxopiperidine", "1-Tert-butylpiperidin-4-one", "1-tert-Butylpiperidin-4-one"], "SMILES": "C(C)(C)(C)N1CCC(=O)CC1", "physical_data": {"Molecular Weight": "155.24", "Molecular Formula": "C9H17NO", "Boiling Point": "82-84 \u00b0C @ Press: 7 Torr", "Melting Point": "92-94 \u00b0C (sublm) @ Press: 10 Torr"}}