{"cas_no": "14659-58-6", "cn_name": "2-\u6eb4-5-\u6c1f-1,3-\u4e8c\u7532\u82ef", "en_name": ["2-Bromo-5-fluoro-1,3-dimethylbenzene", "Benzene, 2-bromo-5-fluoro-1,3-dimethyl-", "m-Xylene, 2-bromo-5-fluoro-", "2-Bromo-5-fluoro-1,3-dimethylbenzene", "4-Fluoro-2,6-dimethylbromobenzene", "4-Bromo-1-fluoro-3,5-dimethylbenzene"], "SMILES": "BrC1=C(C)C=C(F)C=C1C", "physical_data": {"Molecular Weight": "203.05", "Molecular Formula": "C8H8BrF", "Boiling Point": "45-47 \u00b0C @ Press: 5 Torr"}}