{"cas_no": "14657-64-8", "cn_name": "3-\u7f9f\u57fa\u82ef\u57fa\u78f7\u9170\u4e19\u9178", "en_name": ["2-Carboxyethyl(phenyl)phosphinic acid", "Propanoic acid, 3-(hydroxyphenylphosphinyl)-", "Propionic acid, 3-(hydroxyphenylphosphinyl)-", "3-(Hydroxyphenylphosphinyl)propanoic acid", "2-Carboxyethyl(phenyl)phosphinic acid", "3-(Phenylphosphinyl)propionic acid", "3-(Hydroxyphenylphosphinyl)propionic acid", "H 205 (flame retardant)", "H 205", "Hiretar 205", "2-Carboxylethyl(phenyl)phosphinic acid", "Phosgard PF 100", "PZ 1201", "IDB 3HPP"], "SMILES": "P(CCC(O)=O)(=O)(O)C1=CC=CC=C1", "physical_data": {"Molecular Weight": "214.15", "Molecular Formula": "C9H11O4P", "Melting Point": "156-157 \u00b0C"}}