{"cas_no": "1465-25-4", "cn_name": "\u76d0\u9178\u8418\u4e59\u4e8c\u80fa", "en_name": ["N-1-Naphthylethylenediamine dihydrochloride", "1,2-Ethanediamine, N1-1-naphthalenyl-, hydrochloride (1:2)", "1,2-Ethanediamine, N-1-naphthalenyl-, dihydrochloride", "Ethylenediamine, N-1-naphthyl-, dihydrochloride", "N-1-Naphthylethylenediamine dihydrochloride", "Bratton-Marshall reagent", "Reagents, Bratton-Marshall", "N-(1-Naphthyl)ethylendiamine dihydrochloride", "NEDA", "NEDA (amine)", "N-Naphthylethylenediamine dihydrochloride"], "SMILES": "N(CCN)C=1C2=C(C=CC1)C=CC=C2.Cl", "physical_data": {"Molecular Weight": "", "Molecular Formula": "C12H14N2.2ClH", "Melting Point": "188-190 \u00b0C"}}