{"cas_no": "1466-67-7", "cn_name": "\u4e8c\u82c4\u57fa\u8132", "en_name": ["N,N\u2032-Dibenzylurea", "Urea, N,N\u2032-bis(phenylmethyl)-", "Urea, 1,3-dibenzyl-", "N,N\u2032-Bis(phenylmethyl)urea", "sym-Dibenzylurea", "N,N\u2032-Dibenzylurea", "1,3-Dibenzylurea", "NSC 408007"], "SMILES": "C(NC(NCC1=CC=CC=C1)=O)C2=CC=CC=C2", "physical_data": {"Molecular Weight": "240.30", "Molecular Formula": "C15H16N2O", "Melting Point": "167 \u00b0C"}}