{"cas_no": "1466-82-6", "cn_name": "\u4e59\u9170\u6c34\u6768\u9178\u9150", "en_name": ["Acetylsalicylic anhydride", "Benzoic acid, 2-(acetyloxy)-, 1,1\u2032-anhydride", "Salicylic anhydride, diacetate", "Salicylic acid acetate, anhydride", "Benzoic acid, 2-(acetyloxy)-, anhydride", "Acetylsalicylic anhydride", "Aspirin anhydride", "Acetylsalicylic acid anhydride", "Contraflu", "Pircan", "Vigal", "2-Acetoxybenzoic anhydride", "NSC 63848", "NSC 80056", "2-(Acetyloxy)benzoyl 2-(acetyloxy)benzoate"], "SMILES": "O(C(C)=O)C1=C(C(OC(=O)C2=C(OC(C)=O)C=CC=C2)=O)C=CC=C1", "physical_data": {"Molecular Weight": "342.30", "Molecular Formula": "C18H14O7", "Melting Point": "85 \u00b0C"}}