{"cas_no": "1466-48-4", "cn_name": "\u56db(2-\u6c30\u4e59\u57fa)\u785d\u57fa\u7532\u70f7", "en_name": ["Tris(2-cyanoethyl)nitromethane", "Heptanedinitrile, 4-(2-cyanoethyl)-4-nitro-", "4-(2-Cyanoethyl)-4-nitroheptanedinitrile", "Tris(2-cyanoethyl)nitromethane", "NSC 680512", "4-(2-Cyanoethyl)-4-nitro-1,7-heptanedinitrile"], "SMILES": "C(CCC#N)(CCC#N)(CCC#N)N(=O)=O", "physical_data": {"Molecular Weight": "220.23", "Molecular Formula": "C10H12N4O2", "Melting Point": "114 \u00b0C"}}