{"cas_no": "14660-52-7", "cn_name": "5-\u6eb4\u620a\u9178\u4e59\u916f", "en_name": ["Ethyl 5-bromovalerate", "Pentanoic acid, 5-bromo-, ethyl ester", "Valeric acid, 5-bromo-, ethyl ester", "Ethyl 5-bromovalerate", "Ethyl 5-bromopentanoate", "Ethyl \u03b4-bromovalerate", "5-Bromovaleric acid ethyl ester", "5-Bromopentanoate ethyl ester", "NSC 310169", "5-Bromopentanoic acid ethyl ester"], "SMILES": "C(C(OCC)=O)CCCBr", "physical_data": {"Molecular Weight": "209.08", "Molecular Formula": "C7H13BrO2", "Boiling Point": "102-103 \u00b0C @ Press: 12 Torr", "Density": "1.2967 g/cm\u00b3 @ Temp: 20 \u00b0C"}}