{"cas_no": "1466-76-8", "cn_name": "2,6-\u4e8c\u7532\u6c27\u57fa\u82ef\u7532\u9178", "en_name": ["2,6-Dimethoxybenzoic acid", "Benzoic acid, 2,6-dimethoxy-", "2,6-Dimethoxybenzoic acid", "NSC 28591"], "SMILES": "C(O)(=O)C1=C(OC)C=CC=C1OC", "physical_data": {"Molecular Weight": "182.17", "Molecular Formula": "C9H10O4", "Melting Point": "186 \u00b0C (decomp)"}}