{"cas_no": "14667-55-1", "cn_name": "2,3,5-\u4e09\u7532\u57fa\u5421\u55ea", "en_name": ["Trimethylpyrazine", "Pyrazine, 2,3,5-trimethyl-", "Pyrazine, trimethyl-", "2,3,5-Trimethylpyrazine", "Trimethylpyrazine", "2,3,6-Trimethylpyrazine"], "SMILES": "CC=1C(C)=NC=C(C)N1", "physical_data": {"Molecular Weight": "122.17", "Molecular Formula": "C7H10N2", "Boiling Point": "171.5 \u00b0C", "Melting Point": "156 \u00b0C"}}