{"cas_no": "1466-88-2", "cn_name": "\u90bb\u785d\u57fa\u8089\u6842\u919b", "en_name": ["2-Nitrocinnamaldehyde", "2-Propenal, 3-(2-nitrophenyl)-", "Cinnamaldehyde, o-nitro-", "3-(2-Nitrophenyl)-2-propenal", "o-Nitrocinnamaldehyde", "2-Nitrocinnamaldehyde", "NSC 28458", "2-Nitrocinnamic aldehyde", "3-(2-Nitrophenyl)propenal"], "SMILES": "C(=CC=O)C1=C(N(=O)=O)C=CC=C1", "physical_data": {"Molecular Weight": "177.16", "Molecular Formula": "C9H7NO3", "Melting Point": "127 \u00b0C"}}