{"cas_no": "14678-05-8", "cn_name": "\u5f02\u6076\u5511-5-\u80fa", "en_name": ["5-Isoxazolamine", "5-Isoxazolamine", "Isoxazole, 5-amino-", "5-Aminoisoxazole", "5-Amino-1,2-oxazole", "1,2-Oxazol-5-amine"], "SMILES": "NC1=CC=NO1", "physical_data": {"Molecular Weight": "84.08", "Molecular Formula": "C3H4N2O", "Melting Point": "75-77 \u00b0C"}}