{"cas_no": "14678-02-5", "cn_name": "3-\u7532\u57fa\u5f02\u6076\u5511-5-\u80fa", "en_name": ["5-Amino-3-methylisoxazole", "5-Isoxazolamine, 3-methyl-", "Isoxazole, 5-amino-3-methyl-", "3-Methyl-5-isoxazolamine", "3-Methyl-5-aminoisoxazole", "5-Amino-3-methylisoxazole", "5-Amino-3-methyl-1,2-oxazole", "3-Methyl-5-isoxazolylamine", "NSC 93421", "3-Methyl-1,2-oxazol-5-ylamine", "3-Methyl-1,2-oxazol-5-amine"], "SMILES": "CC=1C=C(N)ON1", "physical_data": {"Molecular Weight": "98.10", "Molecular Formula": "C4H6N2O", "Melting Point": "84-85 \u00b0C"}}