{"cas_no": "1467-79-4", "cn_name": "\u4e8c\u7532\u57fa\u6c22\u80fa", "en_name": ["Dimethylcyanamide", "Cyanamide, N,N-dimethyl-", "Cyanamide, dimethyl-", "N,N-Dimethylcyanamide", "Dimethylcyanamide", "N-Cyano-N-methylmethanamine", "Cyanodimethylamine", "Dimethylaminocarbonitrile", "N-Cyanodimethylamine", "NSC 7765", "N,N-Dimethylcyanoamine"], "SMILES": "N(C#N)(C)C", "physical_data": {"Molecular Weight": "70.09", "Molecular Formula": "C3H6N2", "Boiling Point": "163.5 \u00b0C @ Press: 760 Torr", "Melting Point": "-41.0 \u00b0C", "Density": "0.876 g/cm\u00b3"}}