{"cas_no": "1467-16-9", "cn_name": "\u54aa\u5511\u76d0\u9178\u76d0", "en_name": ["Imidazolium chloride", "1H-Imidazole, hydrochloride (1:1)", "Imidazole, monohydrochloride", "1H-Imidazole, monohydrochloride", "Imidazole hydrochloride", "Imidazolium chloride"], "SMILES": "C1=CN=CN1.Cl", "physical_data": {"Molecular Weight": "", "Molecular Formula": "C3H4N2.ClH", "Melting Point": "160-163 \u00b0C"}}