{"cas_no": "14678-95-6", "cn_name": "5-\u6c28\u57fa-1-(4-\u7532\u6c27\u57fa\u82ef\u57fa)-1H-\u5421\u5511-4-\u7fa7\u9178", "en_name": ["5-Amino-1-(4-methoxyphenyl)-1H-pyrazole-4-carboxylic acid", "1H-Pyrazole-4-carboxylic acid, 5-amino-1-(4-methoxyphenyl)-", "Pyrazole-4-carboxylic acid, 5-amino-1-(p-methoxyphenyl)-", "5-Amino-1-(4-methoxyphenyl)-1H-pyrazole-4-carboxylic acid"], "SMILES": "NC=1N(N=CC1C(O)=O)C2=CC=C(OC)C=C2", "physical_data": {"Molecular Weight": "233.22", "Molecular Formula": "C11H11N3O3", "Melting Point": "160 \u00b0C"}}