{"cas_no": "1467-05-6", "cn_name": "4-\u4e59\u57fa\u82c4\u6c2f", "en_name": ["4-Ethylbenzyl chloride", "Benzene, 1-(chloromethyl)-4-ethyl-", "Toluene, \u03b1-chloro-p-ethyl-", "1-(Chloromethyl)-4-ethylbenzene", "p-Chloromethylethylbenzene", "p-Ethylbenzyl chloride", "4-Ethylbenzyl chloride", "\u03b1-Chloro-p-ethyltoluene", "1-Chloromethyl-4-ethylbenzene", "4-(Chloromethyl)-1-ethylbenzene"], "SMILES": "C(C)C1=CC=C(CCl)C=C1", "physical_data": {"Molecular Weight": "154.64", "Molecular Formula": "C9H11Cl", "Boiling Point": "92-93 \u00b0C"}}