{"cas_no": "1467-40-9", "cn_name": "1,3-\u4e8c\u82ef\u7532\u9170\u4e19\u916e", "en_name": ["1,5-Diphenyl-1,3,5-pentanetrione", "1,3,5-Pentanetrione, 1,5-diphenyl-", "1,5-Diphenyl-1,3,5-pentanetrione", "2-Propanone, 1,3-dibenzoyl-", "1,3-Dibenzoylacetone", "NSC 154656", "NSC 631644"], "SMILES": "C(CC(CC(=O)C1=CC=CC=C1)=O)(=O)C2=CC=CC=C2", "physical_data": {"Molecular Weight": "266.29", "Molecular Formula": "C17H14O3", "Melting Point": "98 \u00b0C"}}