{"cas_no": "1467-70-5", "cn_name": "A-\u6c27-2-\u544b\u5583\u4e59\u9178", "en_name": ["\u03b1-Oxo-2-furanacetic acid", "2-Furanacetic acid, \u03b1-oxo-", "2-Furanglyoxylic acid", "\u03b1-Oxo-2-furanacetic acid", "2-Furylglyoxylic acid", "Furoylformic acid", "2-Oxo-2-(2-furanyl)acetic acid", "2-(2-Furyl)-2-oxoacetic acid", "NSC 59069", "2-Furanyl(oxo)acetic acid", "2-(Furan-2-yl)-2-oxoacetic acid"], "SMILES": "C(C(O)=O)(=O)C1=CC=CO1", "physical_data": {"Molecular Weight": "140.09", "Molecular Formula": "C6H4O4", "Melting Point": "94-95 \u00b0C"}}