{"cas_no": "14676-01-8", "cn_name": "3-(Boc-\u6c28\u57fa)-3-\u82ef\u57fa\u4e19\u9178", "en_name": ["\u03b2-[[(1,1-Dimethylethoxy)carbonyl]amino]benzenepropanoic acid", "Benzenepropanoic acid, \u03b2-[[(1,1-dimethylethoxy)carbonyl]amino]-", "Hydrocinnamic acid, \u03b2-(carboxyamino)-, N-tert-butyl ester", "\u03b2-[[(1,1-Dimethylethoxy)carbonyl]amino]benzenepropanoic acid", "3-[N-(tert-Butoxycarbonyl)amino]-3-phenylpropionic acid", "3-Phenyl-3-[N-(tert-butoxycarbonyl)amino]propionic acid", "3-[(tert-Butoxycarbonyl)amino]-3-phenylpropionic acid", "3-[[[(1,1-Dimethylethyl)oxy]carbonyl]amino]-3-phenylpropanoic acid", "Boc-DL-\u03b2-phenylalanine", "\u03b2-[[(1,1-Dimethylethoxyl)carbonyl]amino]benzenepropanoic acid", "3-((tert-Butoxycarbonyl)amino)-3-phenylpropanoicacid", "3-[[(tert-Butoxy)carbonyl]amino]-3-phenylpropanoic acid"], "SMILES": "C(NC(OC(C)(C)C)=O)(CC(O)=O)C1=CC=CC=C1", "physical_data": {"Molecular Weight": "265.30", "Molecular Formula": "C14H19NO4", "Melting Point": "143-145 \u00b0C"}}