{"cas_no": "1468-95-7", "cn_name": "9-\u84bd\u9187", "en_name": ["9-Anthracenemethanol", "9-Anthracenemethanol", "9-Anthrylcarbinol", "9-Methylolanthracene", "9-(Hydroxymethyl)anthracene", "Anthracene-9-carbinol", "9-Anthrylmethanol", "9-Anthracenylmethanol", "NSC 241166", "9-Anthracenylmethyl alcohol"], "SMILES": "C(O)C=1C2=C(C=C3C1C=CC=C3)C=CC=C2", "physical_data": {"Molecular Weight": "208.26", "Molecular Formula": "C15H12O", "Melting Point": "158 \u00b0C"}}