{"cas_no": "14686-89-6", "cn_name": "\u4e8c\u4e19\u916e-D-\u8461\u8404\u7cd6", "en_name": ["1,2:5,6-Bis-O-(1-methylethylidene)-\u03b1-D-gulofuranose", "\u03b1-D-Gulofuranose, 1,2:5,6-bis-O-(1-methylethylidene)-", "Gulofuranose, 1,2:5,6-di-O-isopropylidene-, \u03b1-D-", "Furo[2,3-d]-1,3-dioxole, \u03b1-D-gulofuranose deriv.", "1,2:5,6-Bis-O-(1-methylethylidene)-\u03b1-D-gulofuranose", "1,2:5,6-Di-O-isopropylidene-\u03b1-D-gulofuranose"], "SMILES": "OC1C2C(OC1C3COC(C)(C)O3)OC(C)(C)O2", "physical_data": {"Molecular Weight": "260.28", "Molecular Formula": "C12H20O6", "Melting Point": "105-106 \u00b0C"}}