{"cas_no": "1468-28-6", "cn_name": "4-\u82ef\u7532\u9170\u5417\u5549", "en_name": ["N-Benzoylmorpholine", "Methanone, 4-morpholinylphenyl-", "Morpholine, 4-benzoyl-", "4-Morpholinylphenylmethanone", "Benzoic acid, morpholide", "N-Benzoylmorpholine", "4-Benzoylmorpholine", "Benzomorpholide", "Benzoic morpholide", "NSC 3129", "Morpholino(phenyl)methanone"], "SMILES": "C(=O)(C1=CC=CC=C1)N2CCOCC2", "physical_data": {"Molecular Weight": "191.23", "Molecular Formula": "C11H13NO2", "Melting Point": "73.5-74.0 \u00b0C"}}