{"cas_no": "1468-39-9", "cn_name": "\u5f02\u620a\u9178\u9150", "en_name": ["Isovaleric anhydride", "Butanoic acid, 3-methyl-, 1,1\u2032-anhydride", "Isovaleric anhydride", "Butanoic acid, 3-methyl-, anhydride", "Isovaleric acid anhydride", "Isovaleryl anhydride", "3-Methylbutanoic anhydride", "Isopentanoic anhydride", "3-Methylbutyric anhydride", "3-Methylbutanoyl 3-methylbutanoate"], "SMILES": "C(OC(CC(C)C)=O)(CC(C)C)=O", "physical_data": {"Molecular Weight": "186.25", "Molecular Formula": "C10H18O3", "Boiling Point": "215 \u00b0C"}}