{"cas_no": "1468-26-4", "cn_name": "8-\u6c2e\u6742\u9ec4\u560c\u5464", "en_name": ["3H-1,2,3-Triazolo[4,5-d]pyrimidine-5,7(4H,6H)-dione", "3H-1,2,3-Triazolo[4,5-d]pyrimidine-5,7(4H,6H)-dione", "1H-v-Triazolo[4,5-d]pyrimidine-5,7(4H,6H)-dione", "1H-1,2,3-Triazolo[4,5-d]pyrimidine-5,7(4H,6H)-dione", "v-Triazolo[4,5-d]pyrimidine-5,7(4H,6H)-dione", "8-Azaxanthine", "v-Triazolo[4,5-d]pyrimidine-5,7-diol", "Xanthazol", "[1,2,3]Triazolo[4,5-d]pyrimidine-5,7-diol", "NSC 756", "1H,4H,5H,6H,7H-[1,2,3]Triazolo[4,5-d]pyrimidine-5,7-dione", "1H-[1,2,3]Triazolo[4,5-d]pyrimidine-5,7-diol"], "SMILES": "O=C1C2=C(NC(=O)N1)N=NN2", "physical_data": {"Molecular Weight": "153.10", "Molecular Formula": "C4H3N5O2", "Melting Point": "&gt;270 \u00b0C (decomp)"}}