{"cas_no": "14686-13-6", "cn_name": "\u53cd-2-\u5e9a\u70ef", "en_name": ["trans-2-Heptene", "2-Heptene, (2E)-", "2-Heptene, (E)-", "(2E)-2-Heptene", "trans-2-Heptene", "(E)-2-Heptene", "NSC 74131"], "SMILES": "C(CCC)C=CC", "physical_data": {"Molecular Weight": "98.19", "Molecular Formula": "C7H14", "Boiling Point": "98 \u00b0C", "Melting Point": "-109.5 \u00b0C"}}