{"cas_no": "1468-83-3", "cn_name": "3-\u4e59\u9170\u57fa\u567b\u5429", "en_name": ["3-Acetylthiophene", "Ethanone, 1-(3-thienyl)-", "Ketone, methyl 3-thienyl", "1-(3-Thienyl)ethanone", "3-Acetylthiophene", "Methyl 3-thienyl ketone", "1-(3-Thienyl)-1-ethanone", "1-Thiophen-3-ylethanone", "3-Thienyl methyl ketone", "1-(Thiophen-3-yl)ethan-1-one"], "SMILES": "C(C)(=O)C=1C=CSC1", "physical_data": {"Molecular Weight": "126.18", "Molecular Formula": "C6H6OS", "Boiling Point": "210 \u00b0C", "Melting Point": "60 \u00b0C", "Density": "1.362 g/cm\u00b3 @ Temp: 25.00 \u00b0C"}}