{"cas_no": "14686-14-7", "cn_name": "\u53cd-3-\u5e9a\u70ef", "en_name": ["trans-3-Heptene", "3-Heptene, (3E)-", "3-Heptene, (E)-", "(3E)-3-Heptene", "trans-3-Heptene", "(E)-3-Heptene", "NSC 74133"], "SMILES": "C(CCC)=CCC", "physical_data": {"Molecular Weight": "98.19", "Molecular Formula": "C7H14", "Boiling Point": "95.7 \u00b0C", "Melting Point": "-136.6 \u00b0C"}}