{"cas_no": "14698-29-4", "cn_name": "\u6076\u55b9\u9178", "en_name": ["Oxolinic acid", "1,3-Dioxolo[4,5-g]quinoline-7-carboxylic acid, 5-ethyl-5,8-dihydro-8-oxo-", "5-Ethyl-5,8-dihydro-8-oxo-1,3-dioxolo[4,5-g]quinoline-7-carboxylic acid", "W 4565", "1-Ethyl-1,4-dihydro-6,7-methylenedioxy-4-oxo-3-quinolinecarboxylic acid", "Oxolinic acid", "1-Ethyl-6,7-methylenedioxy-4-quinolone-3-carboxylic acid", "Prodoxal", "Ultibid", "Gramurin", "Dioxacin", "Starner", "Starner 20WP", "Inoxyl", "Uroxin", "Utibid", "Uroxol", "NSC 110364", "Pietil", "Uro-Alvar", "Emyrenil", "Urotrate", "Uritrate", "Prodoxol", "Nidantin", "Urinox", "Ossian", "Oxoboi", "S 0208", "MeSH ID: D010093"], "SMILES": "C(C)N1C2=C(C=C3C(=C2)OCO3)C(=O)C(C(O)=O)=C1", "physical_data": {"Molecular Weight": "261.23", "Molecular Formula": "C13H11NO5", "Melting Point": "314-316 \u00b0C"}}