{"cas_no": "1469-73-4", "cn_name": "4-\u7532\u57fa\u4e9a\u786b\u9178\u4e59\u70ef\u916f", "en_name": ["Propylene sulfite", "1,3,2-Dioxathiolane, 4-methyl-, 2-oxide", "1,2-Propanediol, cyclic sulfite", "Propylene sulfite", "1,2-Propylene glycol sulfite", "NSC 44145", "NSC 525703", "4-Methyl-2-oxo-1,3,2-dioxathiolane", "4-Methyl-[1,3,2]dioxathiolane 2-oxide"], "SMILES": "CC1OS(=O)OC1", "physical_data": {"Molecular Weight": "122.14", "Molecular Formula": "C3H6O3S", "Boiling Point": "92 \u00b0C @ Press: 40 Torr", "Density": "1.147 g/cm\u00b3 @ Temp: 25 \u00b0C"}}