{"cas_no": "146939-27-7", "cn_name": "\u9f50\u62c9\u897f\u916e", "en_name": ["Ziprasidone", "2H-Indol-2-one, 5-[2-[4-(1,2-benzisothiazol-3-yl)-1-piperazinyl]ethyl]-6-chloro-1,3-dihydro-", "5-[2-[4-(1,2-Benzisothiazol-3-yl)-1-piperazinyl]ethyl]-6-chloro-1,3-dihydro-2H-indol-2-one", "5-[2-[4-(1,2-Benzisothiazol-3-yl)-1-piperazinyl]ethyl]-6-chloro-2-indolinone", "Ziprasidone", "CP 88059", "Geodon", "5-[2-[4-(Benzo[d]isothiazol-3-yl)piperazin-1-yl]ethyl]-6-chloro-1,3-dihydroindol-2-one", "Zeldox"], "SMILES": "C(CC=1C=C2C(=CC1Cl)NC(=O)C2)N3CCN(C=4C=5C(SN4)=CC=CC5)CC3", "physical_data": {"Molecular Weight": "412.94", "Molecular Formula": "C21H21ClN4OS", "Melting Point": "304 \u00b0C"}}