{"cas_no": "14691-89-5", "cn_name": "4-\u4e59\u9170\u6c28-2,2,6,6-\u56db\u7532\u57fa\u54cc\u5576-1-\u6c27", "en_name": ["4-Acetamido-TEMPO", "1-Piperidinyloxy, 4-(acetylamino)-2,2,6,6-tetramethyl-", "Piperidinooxy, 4-acetamido-2,2,6,6-tetramethyl-", "4-(Acetylamino)-2,2,6,6-tetramethyl-1-piperidinyloxy", "4-Acetamido-2,2,6,6-tetramethylpiperidinooxy", "2,2,6,6-Tetramethyl-4-acetamidopiperidin-1-oxyl", "4-Acetamido-2,2,6,6-tetramethyl-1-piperidinyloxy", "2,2,6,6-Tetramethyl-4-acetylaminopiperidin-1-oxyl", "4-(Acetylamino)-2,2,6,6-tetramethylpiperidin-1-yloxyl", "4-Acetamido-2,2,6,6-tetramethylpiperidin-1-oxyl", "4-Acetylamino-2,2,6,6-tetramethylpiperidine N-oxyl", "Tempace", "4-Acetamido-2,2,6,6-tetramethylpiperidine-1-oxyl", "4-Acetamido-TEMPO", "4-Acetamino-2,2,6,6-tetramethylpiperidine-1-oxyl", "4-Acetamide-2,2,6,6-tetramethyl-1-piperidin-yloxy", "4-Acetoamido-2,2,6,6,-tetramethylpiperidine 1-oxyl", "4-(Acetylamino)-2,2,6,6-tetramethylpiperidin-1-oxyl", "1-Oxyl-2,2,6,6-tetramethyl-4-acetamidopiperidine", "N-(1-Oxyl-2,2,6,6-tetramethylpiperidin-4-yl)acetamide", "4-Acetamino-2,2,6,6-tetramethylpiperidinyloxy", "4-Acetamino-2,2,6,6-tetramethylpiperidine-N-oxyl", "4-Acetylamino-TEMPO", "4-Acetamido-1-oxyl-2,2,6,6-tetramethylpiperidine", "4-Acetamido-2,2,6,6-tetramethylpiperidin-1-oxy", "4-N-Acetylamino-TEMPO", "2,2,6,6-Tetramethyl-4-acetamidopiperidine-1-oxyl", "4-Acetoamino(2,2,6,6-tetramethylpiperidin-1-yl)oxyl", "Acetamido-TEMPO", "Acetamide-TEMPO", "ACT", "4-Acetamido-4,4,5,5-tetramethylpiperidin-1-oxyl"], "SMILES": "N(C(C)=O)C1CC(C)(C)N([O])C(C)(C)C1", "physical_data": {"Molecular Weight": "", "Molecular Formula": "C11H21N2O2", "Melting Point": "144-146 \u00b0C"}}