{"cas_no": "14691-88-4", "cn_name": "4-\u80fa-2,2,6,6-\u56db\u7532\u57fa\u4e8c\u82ef\u54cc\u916f", "en_name": ["4-Amino-2,2,6,6-tetramethylpiperidine-1-oxyl", "1-Piperidinyloxy, 4-amino-2,2,6,6-tetramethyl-", "Piperidinooxy, 4-amino-2,2,6,6-tetramethyl-", "4-Amino-2,2,6,6-tetramethyl-1-piperidinyloxy", "2,2,6,6-Tetramethyl-4-aminopiperidine-1-oxyl", "4-Amino-2,2,6,6-tetramethyl-1-piperidinyloxyl", "4-Amino-2,2,6,6-tetramethylpiperidinooxyl", "4-Amino-2,2,6,6-tetramethylpiperidine-1-oxy", "4-Amino-2,2,6,6-tetramethylpiperidino-1-oxyl", "2,2,6,6-Tetramethyl-1-oxy-4-aminopiperidine", "4-Amino-2,2,6,6-tetramethylpiperidin-1-oxyl", "2,2,6,6-Tetramethyl-4-aminopiperidine N-oxide", "4-Amino-2,2,6,6-tetramethylpiperidinyl-N-oxy", "4-Amino-2,2,6,6-tetramethylpiperidino-1-oxy", "Tempamine", "4-Amino-2,2,6,6-tetramethylpiperidine-1-oxyl", "Tempo-amine", "4-Amino-2,2,6,6-tetramethylpiperidinyloxy", "4-Amino-1-oxyl-2,2,6,6-tetramethylpiperidine", "(2,2,6,6-Tetramethyl-1-oxy-4-piperidinyl)amine", "6-Tempamine", "4-Aminotempo", "2,2,6,6-Tetramethyl-4-amino-1-piperidinyloxy", "4-Amino-2,2,6,6-tetramethylpiperidine-N-oxyl", "4-Amino-2,2,6,6-tetramethylpiperidine N-oxide", "4-Amino-2,2,6,6-tetramethylpiperidine-1-nitroxide", "TAMINE", "4-Amino-2,2,6,6-tetramethylpiperidin-N-oxyl", "4-NH2-TEMPO", "ST 7820"], "SMILES": "[O]N1C(C)(C)CC(N)CC1(C)C", "physical_data": {"Molecular Weight": "", "Molecular Formula": "C9H19N2O", "Boiling Point": "84-86 \u00b0C", "Melting Point": "35-36 \u00b0C"}}