{"cas_no": "14697-46-2", "cn_name": "1,2,5-\u620a\u4e09\u9187", "en_name": ["(\u00b1)-1,2,5-Pentanetriol", "1,2,5-Pentanetriol", "1,4,5-Pentanetriol", "(\u00b1)-1,2,5-Pentanetriol", "dl-1,2,5-Pentanetriol", "NSC 44963", "Pentan-1,2,5-triol", "1,2,5-Trihydroxy pentane"], "SMILES": "C(CCCO)(CO)O", "physical_data": {"Molecular Weight": "120.15", "Molecular Formula": "C5H12O3", "Boiling Point": "190-191 \u00b0C", "Density": "1.136 g/cm\u00b3 @ Temp: 20 \u00b0C"}}