{"cas_no": "14690-00-7", "cn_name": "2-\u82c4\u6c27\u57fa-1,3-\u4e19\u4e8c\u9187", "en_name": ["2-(Phenylmethoxy)-1,3-propanediol", "1,3-Propanediol, 2-(phenylmethoxy)-", "1,3-Propanediol, 2-(benzyloxy)-", "2-(Phenylmethoxy)-1,3-propanediol", "2-O-Benzylglycerol", "2-(Benzyloxy)-1,3-propanediol"], "SMILES": "C(OC(CO)CO)C1=CC=CC=C1", "physical_data": {"Molecular Weight": "182.22", "Molecular Formula": "C10H14O3", "Boiling Point": "185-187 \u00b0C @ Press: 10.0 Torr", "Melting Point": "38.5-40.0 \u00b0C"}}