{"cas_no": "1469-48-3", "cn_name": "\u56db\u6c22\u5429\u80fa", "en_name": ["cis-1,2,3,6-Tetrahydrophthalimide", "1H-Isoindole-1,3(2H)-dione, 3a,4,7,7a-tetrahydro-, (3aR,7aS)-rel-", "4-Cyclohexene-1,2-dicarboximide, cis-", "1H-Isoindole-1,3(2H)-dione, 3a,4,7,7a-tetrahydro-, cis-", "rel-(3aR,7aS)-3a,4,7,7a-Tetrahydro-1H-isoindole-1,3(2H)-dione", "cis-4-Cyclohexene-1,2-dicarboximide", "cis-\u03944-Tetrahydrophthalimide", "cis-Tetrahydrophthalimide", "NSC 41605", "cis-1,2,3,6-Tetrahydrophthalimide"], "SMILES": "O=C1C2C(C(=O)N1)CC=CC2", "physical_data": {"Molecular Weight": "151.16", "Molecular Formula": "C8H9NO2", "Boiling Point": "142-146 \u00b0C @ Press: 2 Torr", "Melting Point": "136.5-137.3 \u00b0C"}}