{"cas_no": "14694-95-2", "cn_name": "\u4e09\u82ef\u57fa\u81a6\u6c2f\u5316\u94d1", "en_name": ["(SP-4-2)-Chlorotris(triphenylphosphine)rhodium", "Rhodium, chlorotris(triphenylphosphine)-, (SP-4-2)-", "Rhodium, chlorotris(triphenylphosphine)-", "(SP-4-2)-Chlorotris(triphenylphosphine)rhodium", "Tris(triphenylphosphine)chlororhodium", "Chlorotris(triphenylphosphine)rhodium", "Chlorotris(triphenylphosphine)rhodium(I)", "Tris(triphenylphosphine)chlororhodium(I)", "Tris(triphenylphosphine)rhodium(I) chloride", "Tris(triphenylphosphine)rhodium monochloride", "Rhodium tris(triphenylphosphine) chloride", "Wilkinson's catalyst", "Tris(triphenylphosphine)rhodium chloride", "Wilkinson's complex", "NSC 124140"], "SMILES": "[Rh+]([P](C1=CC=CC=C1)(C2=CC=CC=C2)C3=CC=CC=C3)([P](C4=CC=CC=C4)(C5=CC=CC=C5)C6=CC=CC=C6)([P](C7=CC=CC=C7)(C8=CC=CC=C8)C9=CC=CC=C9)[Cl-]", "physical_data": {"Molecular Weight": "", "Molecular Formula": "C54H45ClP3Rh", "Melting Point": "223 \u00b0C", "Density": "1.363 g/cm\u00b3"}}