{"cas_no": "1469-94-9", "cn_name": "\u82ef\u7532\u9170(2-\u7f9f\u57fa\u82ef\u9170)\u7532\u70f7", "en_name": ["1-(2-Hydroxyphenyl)-3-phenyl-1,3-propanedione", "1,3-Propanedione, 1-(2-hydroxyphenyl)-3-phenyl-", "1,3-Propanedione, 1-(o-hydroxyphenyl)-3-phenyl-", "1-(2-Hydroxyphenyl)-3-phenyl-1,3-propanedione", "2-o-Hydroxybenzoylacetophenone", "2\u2032-Hydroxydibenzoylmethane", "\u03b1-Benzoyl-2-hydroxyacetophenone", "NSC 31881", "NSC 631975", "1-(2\u2032-Hydroxyphenyl)-3-phenylpropane-1,3-dione"], "SMILES": "C(CC(=O)C1=CC=CC=C1)(=O)C2=C(O)C=CC=C2", "physical_data": {"Molecular Weight": "240.25", "Molecular Formula": "C15H12O3", "Melting Point": "118-120 \u00b0C"}}