{"cas_no": "147-20-6", "cn_name": "\u53cc\u82ef\u62c9\u6797", "en_name": ["Diphenylpyraline", "Piperidine, 4-(diphenylmethoxy)-1-methyl-", "4-(Diphenylmethoxy)-1-methylpiperidine", "AN 1041", "4-(Benzhydryloxy)-1-methylpiperidine", "Diphenylpyraline", "Diphenylpyrilene", "1-Methyl-4-piperidyl benzhydryl ether", "N-Methyl-4-(benzhydryloxy)piperidine", "Hystryl", "Lyssipoll", "Mepiben", "Neargal", "P 253", "Diphenpyraline"], "SMILES": "C(OC1CCN(C)CC1)(C2=CC=CC=C2)C3=CC=CC=C3", "physical_data": {"Molecular Weight": "281.39", "Molecular Formula": "C19H23NO", "Boiling Point": "158-160 \u00b0C @ Press: 2 Torr", "Melting Point": "203-205 \u00b0C"}}