{"cas_no": "147-47-7", "cn_name": "2,2,4-\u4e09\u7532\u57fa-1,2-\u4e8c\u6c22\u55b9\u5549", "en_name": ["2,2,4-Trimethyl-1,2-dihydroquinoline", "Quinoline, 1,2-dihydro-2,2,4-trimethyl-", "1,2-Dihydro-2,2,4-trimethylquinoline", "2,2,4-Trimethyl-1,2-dihydroquinoline", "Acetone anil (quinoline derivative)", "Acetone anil", "2,2,4-Trimethyl-1,2-dihydroquinone", "Polnox R", "Good-rite 3140", "Hydroquin", "NSC 4175", "1,2-Dihydro-2,2,4-trimethylquinolene", "Antioxidant FR-SB", "Antioxidant DQ", "2,2,4-Trimethyl-1H-quinoline", "ASM-TMQ", "Pilnox TMQ", "Mernox TQ"], "SMILES": "CC=1C=2C(NC(C)(C)C1)=CC=CC2", "physical_data": {"Molecular Weight": "173.25", "Molecular Formula": "C12H15N", "Boiling Point": "260 \u00b0C", "Melting Point": "120 \u00b0C", "Density": "1.08 g/cm\u00b3 @ Temp: 25 \u00b0C"}}