{"cas_no": "147-24-0", "cn_name": "\u76d0\u9178\u82ef\u6d77\u62c9\u660e", "en_name": ["Diphenhydramine hydrochloride", "Ethanamine, 2-(diphenylmethoxy)-N,N-dimethyl-, hydrochloride (1:1)", "Ethylamine, 2-(diphenylmethoxy)-N,N-dimethyl-, hydrochloride", "Ethanamine, 2-(diphenylmethoxy)-N,N-dimethyl-, hydrochloride", "Bena", "Benadryl", "Benzhydramine hydrochloride", "2-(Benzhydryloxy)-N,N-dimethylethylamine hydrochloride", "\u03b2-Dimethylaminoethyl benzhydryl ether hydrochloride", "Diphenhydramine hydrochloride", "2-Diphenylmethoxy-N,N-dimethylethylamine hydrochloride", "Difenhydramine hydrochloride", "Denydryl", "Dimedrol", "Dimedrol hydrochloride", "Allergan", "Allergival", "Benadril hydrochloride", "Restamin", "Vena", "Resmin", "Benzhydrol \u03b2-dimethylaminoethyl ether hydrochloride", "Halbmond", "Benocten", "Sekundal D", "Allergina", "Noctomin", "Bagodryl", "Bena-Fedrin", "Amidryl", "Alledryl", "Fenylhist", "Bax", "Dibondrin", "S 8", "Wehydryl", "Benylin", "Syntedril", "Sedopretten", "Diphantine", "Benodine", "Histacyl", "Benzantin", "Asdrin", "Benison", "Theraflu", "Dimedrolum", "Psilo-Balsam", "[2-(Diphenylmethoxy)ethyl]dimethylamine hydrochloride"], "SMILES": "C(OCCN(C)C)(C1=CC=CC=C1)C2=CC=CC=C2.Cl", "physical_data": {"Molecular Weight": "", "Molecular Formula": "C17H21NO.ClH", "Boiling Point": "163-167 \u00b0C @ Press: 3 Torr", "Melting Point": "166-170 \u00b0C"}}