{"cas_no": "147-58-0", "cn_name": "2-\u7898\u9a6c\u5c3f\u9178", "en_name": ["N-(2-Iodobenzoyl)glycine", "Glycine, N-(2-iodobenzoyl)-", "Hippuric acid, o-iodo-", "N-(2-Iodobenzoyl)glycine", "o-Iodohippuric acid", "N-(o-Iodobenzoyl)glycine", "2-Iodohippuric acid", "2-[(2-Iodobenzoyl)amino]acetic acid", "2-(2-Iodobenzamido)acetic acid", "2-[(2-Iodophenyl)formamido]acetic acid"], "SMILES": "C(NCC(O)=O)(=O)C1=C(I)C=CC=C1", "physical_data": {"Molecular Weight": "305.07", "Molecular Formula": "C9H8INO3", "Melting Point": "170 \u00b0C"}}