{"cas_no": "147-61-5", "cn_name": "5-(\u7f9f\u7532\u57fa)-6-\u7532\u57fa- 2,4(1H,3H)-\u4e8c\u916e", "en_name": ["5-(Hydroxymethyl)-6-methyl-2,4(1H,3H)-pyrimidinedione", "2,4(1H,3H)-Pyrimidinedione, 5-(hydroxymethyl)-6-methyl-", "Uracil, 5-(hydroxymethyl)-6-methyl-", "5-(Hydroxymethyl)-6-methyl-2,4(1H,3H)-pyrimidinedione", "5-Hydroxymethyl-6-methyluracil", "Pentoxyl", "4-Methyl-5-hydroxymethyluracil", "5-Hydroxymethyl-4-methyluracil", "Pentoxil", "NSC 13202", "NSC 667247", "MeSH ID: D010432"], "SMILES": "C(O)C1=C(C)NC(=O)NC1=O", "physical_data": {"Molecular Weight": "156.14", "Molecular Formula": "C6H8N2O3", "Melting Point": "314-315 \u00b0C"}}