{"cas_no": "147-85-3", "cn_name": "L-\u812f\u6c28\u9178", "en_name": ["L-Proline", "L-Proline", "Proline, L-", "Proline", "L-(-)-Proline", "2-Pyrrolidinecarboxylic acid, (S)-", "(S)-(-)-Proline", "2-Pyrrolidinecarboxylic acid", "(-)-Proline", "(S)-Proline", "(S)-2-Pyrrolidinecarboxylic acid", "(-)-2-Pyrrolidinecarboxylic acid", "L-Pyrrolidine-2-carboxylic acid", "L-\u03b1-Pyrrolidinecarboxylic acid", "Carboxypyrrolidine", "NSC 46703", "(S)-2-Carboxypyrrolidine", "(2S)-Pyrrolidine-2-carboxylic acid", "21: PN: WO2021055880 SEQID: 22 claimed protein", "125: PN: WO2022170619 SEQID: 478 claimed protein", "129: PN: WO2022171192 SEQID: 478 claimed protein", "MeSH ID: D011392"], "SMILES": "C(O)(=O)C1CCCN1", "physical_data": {"Molecular Weight": "115.13", "Molecular Formula": "C5H9NO2", "Melting Point": "220-222 \u00b0C (decomp)", "Density": "1.4063 g/cm\u00b3 @ Temp: 45.00 \u00b0C"}}