{"cas_no": "147-94-4", "cn_name": "\u963f\u7cd6\u80de\u82f7", "en_name": ["Cytarabine", "2(1H)-Pyrimidinone, 4-amino-1-\u03b2-D-arabinofuranosyl-", "Cytosine, 1-\u03b2-D-arabinofuranosyl-", "4-Amino-1-\u03b2-D-arabinofuranosyl-2(1H)-pyrimidinone", "4-Amino-1-arabinofuranosyl-2-oxo-1,2-dihydropyrimidine", "1-(Arabinofuranosyl)cytosine", "Cytarabine", "Aracytidine", "ara-Cytosine", "1-\u03b2-D-Arabinosylcytosine", "1-\u03b2-Arabinofuranosylcytosine", "(Arabinofuranosyl)cytosine", "Cytosine \u03b2-D-arabinofuranoside", "Cytosar", "Cytarabinoside", "U 19920", "Ara-C", "NSC 63878", "Ac 1075", "U 19920A", "Cytarabin", "Spongocytidine", "Alexan", "Cyclocide", "Cytosine-1-\u03b2-arabinofuranoside", "Cytosine-1-\u03b2-D-arabinofuranoside", "1-(\u03b2-D-Arabinofuranosyl)cytosine", "Cytosine \u03b2-D-arabinoside", "Aracytin", "Cytosine arabinoside", "Arafcyt", "Arabinocytosine", "Arabinoside C", "Citozar", "Udicil", "DepoCyte", "Aracytine", "Iretin", "NSC 287459", "Cytosar U", "CHX 3311", "Arabitin", "Erpalfa", "Tarabine PFS", "Ara-cell", "Cylocide", "DepoCyt", "Cylocide N", "4-Amino-1-[(2R,3S,4S,5R)-3,4-dihydroxy-5-(hydroxymethyl)oxolan-2-yl]pyrimidin-2-one", "MK 8242", "SCH 900242", "MeSH ID: D003561"], "SMILES": "OC1C(OC(CO)C1O)N2C(=O)N=C(N)C=C2", "physical_data": {"Molecular Weight": "243.22", "Molecular Formula": "C9H13N3O5", "Melting Point": "212-213 \u00b0C"}}