{"cas_no": "147-71-7", "cn_name": "D-\u9152\u77f3\u9178", "en_name": ["D-Tartaric acid", "Butanedioic acid, 2,3-dihydroxy-, (2S,3S)-", "Tartaric acid, D-(-)-", "Butanedioic acid, 2,3-dihydroxy-, [S-(R*,R*)]-", "(2S,3S)-2,3-Dihydroxybutanedioic acid", "(-)-Tartaric acid", "D-(-)-Tartaric acid", "(S,S)-Tartaric acid", "(2S,3S)-(-)-Tartaric acid", "l-Tartaric acid", "(S,S)-(-)-Tartaric acid", "(2S,3S)-Tartaric acid", "D-Tartaric acid", "levo-Tartaric acid", "(2S,3S)-2,3-Dihydroxysuccinic acid", "(2S,3S)-Tartaric acid"], "SMILES": "C(C(C(O)=O)O)(C(O)=O)O", "physical_data": {"Molecular Weight": "150.09", "Molecular Formula": "C4H6O6", "Melting Point": "172.5 \u00b0C"}}