{"cas_no": "147-82-0", "cn_name": "2,4,6-\u4e09\u6eb4\u82ef\u80fa", "en_name": ["2,4,6-Tribromoaniline", "Benzenamine, 2,4,6-tribromo-", "Aniline, 2,4,6-tribromo-", "2,4,6-Tribromobenzenamine", "2,4,6-Tribromoaniline", "sym-Tribromoaniline", "NSC 2216", "2,4,6-Tribromo-phenylamine"], "SMILES": "NC1=C(Br)C=C(Br)C=C1Br", "physical_data": {"Molecular Weight": "329.81", "Molecular Formula": "C6H4Br3N", "Boiling Point": "300 \u00b0C", "Melting Point": "120-122 \u00b0C", "Density": "2.35 g/cm\u00b3"}}