{"cas_no": "147-93-3", "cn_name": "\u786b\u4ee3\u6c34\u6768\u9178", "en_name": ["2-Mercaptobenzoic acid", "Benzoic acid, 2-mercapto-", "Benzoic acid, o-mercapto-", "2-Mercaptobenzoic acid", "o-Mercaptobenzoic acid", "Salicylic acid, 2-thio-", "o-Sulfhydrylbenzoic acid", "o-Thiosalicylic acid", "2-Carboxythiophenol", "Thiosalicylic acid", "o-Carboxythiophenol", "Thiophenol-2-carboxylic acid", "2-Thiosalicylic acid", "2-Sulfanylbenzoic acid", "NSC 2184", "NSC 660640", "2-Carboxybenzenethiol"], "SMILES": "C(O)(=O)C1=C(S)C=CC=C1", "physical_data": {"Molecular Weight": "154.19", "Molecular Formula": "C7H6O2S", "Melting Point": "168-169 \u00b0C"}}