{"cas_no": "1470-99-1", "cn_name": "\u987a\u5f0f\u5168\u6c22\u5f02\u5432\u54da", "en_name": ["rel-(3aR,7aS)-Octahydro-1H-isoindole", "1H-Isoindole, octahydro-, (3aR,7aS)-rel-", "Isoindoline, hexahydro-, cis-", "1H-Isoindole, octahydro-, cis-", "rel-(3aR,7aS)-Octahydro-1H-isoindole", "cis-Octahydroisoindole", "cis-Hexahydroisoindoline", "cis-Octahydro-2H-isoindole", "cis-Octahydro-1H-isoindole"], "SMILES": "C12C(CNC1)CCCC2", "physical_data": {"Molecular Weight": "125.21", "Molecular Formula": "C8H15N", "Boiling Point": "96 \u00b0C @ Press: 30 Torr"}}