{"cas_no": "1470-94-6", "cn_name": "5-\u831a\u9187", "en_name": ["5-Indanol", "1H-Inden-5-ol, 2,3-dihydro-", "5-Indanol", "2,3-Dihydro-1H-inden-5-ol", "5-Hydroxyhydrindene", "5-Hydroxyindan", "5-Hydroxyindane", "NSC 9775", "Indan-6-ol", "2,3-Dihydroinden-5-ol"], "SMILES": "OC=1C=C2C(=CC1)CCC2", "physical_data": {"Molecular Weight": "134.18", "Molecular Formula": "C9H10O", "Boiling Point": "253 \u00b0C", "Melting Point": "58 \u00b0C", "Density": "1.0062 g/cm\u00b3 @ Temp: 20.3 \u00b0C"}}