{"cas_no": "147027-10-9", "cn_name": "5-(4-\u6c28\u57fa-2-\u6c27\u4ee3-2H-\u5627\u5576-1-\u57fa)-[1,3]1,3-\u6c27\u786b\u6742\u73af\u620a-2-\u7532\u9178\u5b5f\u916f", "en_name": ["(1R,2S,5R)-5-Methyl-2-(1-methylethyl)cyclohexyl (2R,5S)-5-(4-amino-2-oxo-1(2H)-pyrimidinyl)-1,3-oxathiolane-2-carboxylate", "1,3-Oxathiolane-2-carboxylic acid, 5-(4-amino-2-oxo-1(2H)-pyrimidinyl)-, (1R,2S,5R)-5-methyl-2-(1-methylethyl)cyclohexyl ester, (2R,5S)-", "1,3-Oxathiolane-2-carboxylic acid, 5-(4-amino-2-oxo-1(2H)-pyrimidinyl)-, 5-methyl-2-(1-methylethyl)cyclohexyl ester, [1R-[1\u03b1(2R*,5S*),2\u03b2,5\u03b1]]-", "(1R,2S,5R)-5-Methyl-2-(1-methylethyl)cyclohexyl (2R,5S)-5-(4-amino-2-oxo-1(2H)-pyrimidinyl)-1,3-oxathiolane-2-carboxylate", "(2R,5S)-5-(4-Amino-2-oxo-1,2-dihydro-1-pyrimidinyl)-1,3-oxathiolane-2-carboxylic acid (1R,2S,5R)-2-isopropyl-5-methylcyclohexyl ester"], "SMILES": "O=C1N(C=CC(N)=N1)C2OC(C(OC3C(C(C)C)CCC(C)C3)=O)SC2", "physical_data": {"Molecular Weight": "381.49", "Molecular Formula": "C18H27N3O4S", "Melting Point": "203-206 \u00b0C"}}