{"cas_no": "147098-20-2", "cn_name": "\u745e\u8212\u4f10\u4ed6\u6c40\u9499", "en_name": ["Rosuvastatin calcium", "6-Heptenoic acid, 7-[4-(4-fluorophenyl)-6-(1-methylethyl)-2-[methyl(methylsulfonyl)amino]-5-pyrimidinyl]-3,5-dihydroxy-, calcium salt (2:1), (3R,5S,6E)-", "6-Heptenoic acid, 7-[4-(4-fluorophenyl)-6-(1-methylethyl)-2-[methyl(methylsulfonyl)amino]-5-pyrimidinyl]-3,5-dihydroxy-, calcium salt (2:1), [S-[R*,S*-(E)]]-", "Rosuvastatin calcium", "S 4522", "ZD 4522, calcium salt", "Rosuvastatin hemicalcium", "Crestor", "Rosuvastatin calcium salt", "Fortius", "Rostar", "Rozavel", "Crestomed", "Suvikan", "Razel-F 10", "AZD 4522 calcium", "AZD4522 calcium", "AZD-4522 calcium"], "SMILES": "C(=CC(CC(CC(O)=O)O)O)C=1C(=NC(N(S(C)(=O)=O)C)=NC1C(C)C)C2=CC=C(F)C=C2.[Ca]", "physical_data": {"Molecular Weight": "", "Molecular Formula": "C22H28FN3O6S.<sup>1</sup>/2Ca", "Melting Point": "140-144 \u00b0C"}}