{"cas_no": "147081-49-0", "cn_name": "(R)-1-Boc-3-\u6c28\u57fa\u5421\u54af\u70f7", "en_name": ["(R)-tert-Butyl 3-aminopyrrolidine-1-carboxylate", "1-Pyrrolidinecarboxylic acid, 3-amino-, 1,1-dimethylethyl ester, (3R)-", "1-Pyrrolidinecarboxylic acid, 3-amino-, 1,1-dimethylethyl ester, (R)-", "(R)-3-Amino-1-tert-butoxycarbonylpyrrolidine", "(R)-N-Boc-3-aminopyrrolidine", "tert-Butyl (3R)-3-aminopyrrolidine-1-carboxylate", "1-N-Boc-3-(R)-aminopyrrolidine", "(R)-3-Aminopyrrolidine-1-carboxylic acid tert-butyl ester", "(R)-3-Amino-N-(tert-butoxycarbonyl)pyrrolidine", "1,1-dimethylethyl (3R)-3-aminopyrrolidine-1-carboxylate", "tert-butyl (3R)-3-aminopyrrolidine-1-carboxylate", "(R)-3-Amino-1-(tert-butoxycarbonyl)pyrrolidine", "1,1-Dimethylethyl (3R)-3-amino-1-pyrrolidinecarboxylate", "N-Boc-(3R)-aminopyrrolidine", "(R)-3-Aminopyrrolidine-1-carboxylic acid tert-butyl ester", "(R)-tert-Butyl 3-aminopyrrolidine-1-carboxylate", "(R)-1-Boc-3-aminopyrrolidine", "(R)-N-tert-Butoxycarbonyl-3-aminopyrrolidine", "(3R)-3-Aminopyrrolidine-1-carboxylic acid tert-butyl ester", "(R)-1-(tert-Butoxycarbonyl)-3-aminopyrrolidine", "3-Aminopyrrolidine-1-carboxylic acid (R)-tert-butyl ester", "(R)-(+)-N-Boc-3-aminopyrrolidine", "(R)-3-Aminopyrrolidine-1-carboxylic acid tert-butyl ester", "tert-Butyl (R)-3-aminopyrrolidine-1-carboxylate", "tert-Butyl (R)-3-amino-1-pyrrolidinecarboxylate", "(R)-tert-Butyl 3-aminopyrrolidine-1-carboxylate", "(R)-(+)-3-Amino-1-(tert-butoxycarbonyl)pyrrolidine", "(+)-3-Aminopyrrolidine-1-carboxylic acid (R)-tert-butyl ester", "tert-Butyl (3R)-3-aminopyrrolidine-1-carboxylate", "(R)-(+)-1-Boc-3-aminopyrrolidine", "(3R)-(+)-1-(tert-Butoxycarbonyl)-3-aminopyrrolidine", "1-Boc-(R)-3-aminopyrrolidine", "(R)-3-Amino-1-Boc-pyrrolidine", "(R)-1-Boc-3-aminopyrrolidine"], "SMILES": "C(OC(C)(C)C)(=O)N1CCC(N)C1", "physical_data": {"Molecular Weight": "186.25", "Molecular Formula": "C9H18N2O2", "Melting Point": "58.0-59.8 \u00b0C"}}