{"cas_no": "1470-79-7", "cn_name": "2,4,4'-\u4e09\u7f9f\u57fa\u4e8c\u82ef\u7532\u916e", "en_name": ["2,4,4\u2032-Trihydroxybenzophenone", "Methanone, (2,4-dihydroxyphenyl)(4-hydroxyphenyl)-", "Benzophenone, 2,4,4\u2032-trihydroxy-", "(2,4-Dihydroxyphenyl)(4-hydroxyphenyl)methanone", "2,4-Dihydroxyphenyl p-hydroxybenzyl ketone", "2,4,4\u2032-Trihydroxybenzophenone", "NSC 76052"], "SMILES": "C(=O)(C1=C(O)C=C(O)C=C1)C2=CC=C(O)C=C2", "physical_data": {"Molecular Weight": "230.22", "Molecular Formula": "C13H10O4", "Melting Point": "203.4-204.0 \u00b0C"}}