{"cas_no": "1470-61-7", "cn_name": "\u4e8c\u4e59\u57fa\u4e8c\u786b\u4ee3\u6c28\u57fa\u7532\u9178\u94f6", "en_name": ["Silver diethyldithiocarbamate", "Silver, (diethylcarbamodithioato-\u03baS,\u03baS\u2032)-", "Silver, (diethyldithiocarbamato)-", "Silver, (diethylcarbamodithioato-S,S\u2032)-", "(Diethylcarbamodithioato-\u03baS,\u03baS\u2032)silver", "Silver diethyldithiocarbamate", "Silver(1+) diethyldithiocarbamate", "(Diethyldithiocarbamate)silver", "(Diethyldithiocarbamato)silver", "Carbamodithioic acid, diethyl-, silver(1+) salt", "NSC 378347", "Carbamodithioic acid, N,N-diethyl-, silver(1+) salt (1:1)"], "SMILES": "N(CC)(CC)C=1[S-][Ag+][S]1", "physical_data": {"Molecular Weight": "", "Molecular Formula": "C5H10AgNS2", "Melting Point": "172-175 \u00b0C"}}