{"cas_no": "1470-57-1", "cn_name": "2-\u7f9f\u57fa-5-\u7532\u57fa\u82ef\u7532\u916e", "en_name": ["2-Hydroxy-5-methylbenzophenone", "Methanone, (2-hydroxy-5-methylphenyl)phenyl-", "Benzophenone, 2-hydroxy-5-methyl-", "(2-Hydroxy-5-methylphenyl)phenylmethanone", "2-Hydroxy-5-methylbenzophenone", "5-Methyl-2-hydroxybenzophenone", "2-Benzoyl-4-methylphenol", "NSC 296"], "SMILES": "C(=O)(C1=C(O)C=CC(C)=C1)C2=CC=CC=C2", "physical_data": {"Molecular Weight": "212.24", "Molecular Formula": "C14H12O2", "Melting Point": "84 \u00b0C"}}