{"cas_no": "147081-85-4", "cn_name": "4-\u54aa\u5511\u54cc\u5576", "en_name": ["4-(1H-Imidazol-1-yl)piperidine", "Piperidine, 4-(1H-imidazol-1-yl)-", "4-(1H-Imidazol-1-yl)piperidine", "4-(Imidazol-1-yl)piperidine"], "SMILES": "N1(C=CN=C1)C2CCNCC2", "physical_data": {"Molecular Weight": "151.21", "Molecular Formula": "C8H13N3", "Melting Point": "153-154 \u00b0C"}}