{"cas_no": "147118-37-4", "cn_name": "4-(4-\u6c1f\u82ef\u57fa)-6-\u5f02\u4e19\u57fa-2-[(N-\u7532\u57fa-N-\u7532\u78fa\u9170)\u6c28\u57fa]\u5627\u5576-5-\u7532\u919b", "en_name": ["N-[4-(4-Fluorophenyl)-5-formyl-6-(1-methylethyl)-2-pyrimidinyl]-N-methylmethanesulfonamide", "Methanesulfonamide, N-[4-(4-fluorophenyl)-5-formyl-6-(1-methylethyl)-2-pyrimidinyl]-N-methyl-", "N-[4-(4-Fluorophenyl)-5-formyl-6-(1-methylethyl)-2-pyrimidinyl]-N-methylmethanesulfonamide", "4-(4-Fluorophenyl)-6-isopropyl-2-(N-methyl-N-methylsulfonylamino)-5-pyrimidinecarboxaldehyde", "N-[4-(4-Fluorophenyl)-5-formyl-6-isopropylpyrimidin-2-yl]-N-methylmethanesulfonamide", "4-(4-Fluorophenyl)-5-formyl-6-isopropyl-2-[methyl(methylsulfonyl)amino]pyrimidine"], "SMILES": "C(=O)C=1C(=NC(N(S(C)(=O)=O)C)=NC1C(C)C)C2=CC=C(F)C=C2", "physical_data": {"Molecular Weight": "351.40", "Molecular Formula": "C16H18FN3O3S", "Melting Point": "147-148 \u00b0C"}}