{"cas_no": "1471-17-6", "cn_name": "\u5b63\u620a\u56db\u9187\u4e09\u70ef\u4e19\u57fa\u919a", "en_name": ["Pentaerythritol triallyl ether", "1-Propanol, 3-(2-propen-1-yloxy)-2,2-bis[(2-propen-1-yloxy)methyl]-", "1-Propanol, 3-(allyloxy)-2,2-bis[(allyloxy)methyl]-", "1-Propanol, 3-(2-propenyloxy)-2,2-bis[(2-propenyloxy)methyl]-", "3-(2-Propen-1-yloxy)-2,2-bis[(2-propen-1-yloxy)methyl]-1-propanol", "Pentaerythritol triallyl ether", "3-(Allyloxy)-2,2-bis[(allyloxy)methyl]-1-propanol", "Triallyl pentaerythritol", "Neoallyl P 30", "Neoallyl P 30M", "P 30", "PETE", "P 30M", "Triallyl pentaerythritol ether", "3-Prop-2-enoxy-2,2-bis(prop-2-enoxymethyl)propan-1-ol"], "SMILES": "C(COCC=C)(COCC=C)(COCC=C)CO", "physical_data": {"Molecular Weight": "256.34", "Molecular Formula": "C14H24O4", "Boiling Point": "152-152.50 \u00b0C @ Press: 9.5-10 Torr", "Density": "1.261 g/cm\u00b3 @ Temp: 22 \u00b0C"}}