{"cas_no": "147128-77-6", "cn_name": "\u591a\u4f50\u80fa-2-4", "en_name": ["4H-Thieno[2,3-b]thiopyran-4-ol, 5,6-dihydro-6-methyl-, 7,7-dioxide, (4R,6S)-", "4H-Thieno[2,3-b]thiopyran-4-ol, 5,6-dihydro-6-methyl-, 7,7-dioxide, (4R,6S)-", "4H-Thieno[2,3-b]thiopyran-4-ol, 5,6-dihydro-6-methyl-, 7,7-dioxide, (4R-cis)-", "(4R,6S)-5,6-Dihydro-4-hydroxy-6-methylthieno[2,3-b]thiopyran-7,7-dioxide"], "SMILES": "O=S1(=O)C2=C(C(O)CC1C)C=CS2", "physical_data": {"Molecular Weight": "218.29", "Molecular Formula": "C8H10O3S2", "Melting Point": "154-155 \u00b0C"}}