{"cas_no": "14716-89-3", "cn_name": "(\u4e09\u7532\u57fa\u5f02\u6076\u5511- 5 -\u57fa)\u7532\u9187", "en_name": ["(3-Methylisoxazol-5-yl)methanol", "5-Isoxazolemethanol, 3-methyl-", "3-Methyl-5-isoxazolemethanol", "5-(Hydroxymethyl)-3-methylisoxazole", "3-Methyl-5-(hydroxymethyl)isoxazole", "(3-Methylisoxazol-5-yl)methanol", "(3-Methyl-1,2-oxazol-5-yl)methanol"], "SMILES": "C(O)C1=CC(C)=NO1", "physical_data": {"Molecular Weight": "113.11", "Molecular Formula": "C5H7NO2", "Boiling Point": "78-80 \u00b0C @ Press: 0.75 Torr", "Melting Point": "130 \u00b0C"}}