{"cas_no": "147150-35-4", "cn_name": "\u6c2f\u916f\u78fa\u8349\u80fa", "en_name": ["Cloransulam-methyl", "Benzoic acid, 3-chloro-2-[[(5-ethoxy-7-fluoro[1,2,4]triazolo[1,5-c]pyrimidin-2-yl)sulfonyl]amino]-, methyl ester", "[1,2,4]Triazolo[1,5-c]pyrimidine, benzoic acid deriv.", "Cloransulam-methyl", "DE 565", "Cloransulam methyl ester", "FirstRate", "Chloransulam-methyl"], "SMILES": "O(CC)C=1N2C(=NC(S(NC3=C(C(OC)=O)C=CC=C3Cl)(=O)=O)=N2)C=C(F)N1", "physical_data": {"Molecular Weight": "429.81", "Molecular Formula": "C15H13ClFN5O5S", "Melting Point": "216-218 \u00b0C", "Density": "1.538 g/cm\u00b3 @ Temp: 20 \u00b0C"}}