{"cas_no": "14712-23-3", "cn_name": "1-[N-(2-\u7f9f\u4e59\u57fa)-4'-\u54cc\u5576\u57fa]-3-(4'-\u54cc\u5576\u57fa)\u4e19\u70f7", "en_name": ["4-[3-(4-Piperidinyl)propyl]-1-piperidineethanol", "1-Piperidineethanol, 4-[3-(4-piperidinyl)propyl]-", "1-Piperidineethanol, 4-[3-(4-piperidyl)propyl]-", "4-[3-(4-Piperidinyl)propyl]-1-piperidineethanol", "1-(N-2-Hydroxyethyl-4-piperidyl)-3-(4-piperidyl)propane", "1-[N-(\u03b2-Hydroxyethyl)-4-piperidyl]-3-(4-piperidyl)propane", "4-[3-(4-Piperidyl)propyl]-N-piperidinoethanol", "2-[4-[3-(Piperidin-4-yl)propyl]piperidin-1-yl]ethanol", "NSC 99744"], "SMILES": "C(CCC1CCNCC1)C2CCN(CCO)CC2", "physical_data": {"Molecular Weight": "254.41", "Molecular Formula": "C15H30N2O", "Boiling Point": "250 \u00b0C @ Press: 15 Torr", "Melting Point": "72 \u00b0C"}}