{"cas_no": "1471-94-9", "cn_name": "N,N,N',N'-\u56db\u4e59\u9170\u57fa\u4e59\u4e8c\u80fa", "en_name": ["N,N\u2032-1,2-Ethanediylbis[3-oxobutanamide]", "Butanamide, N,N\u2032-1,2-ethanediylbis[3-oxo-", "Acetoacetamide, N,N\u2032-ethylenebis-", "N,N\u2032-1,2-Ethanediylbis[3-oxobutanamide]", "Ethylenediamine-N,N\u2032-bis(acetoacetamide)", "Diacetoacetylethylenediamine", "N,N\u2032-Bis(acetoacetyl)ethylenediamine", "Ethylenediaminebisacetoacetamide", "NSC 71996", "3-Oxo-N-[2-(3-oxobutanamido)ethyl]butanamide", "3-Oxo-N-[2-(3-oxobutanoylamino)ethyl]butanamide"], "SMILES": "C(C(NCCNC(CC(C)=O)=O)=O)C(C)=O", "physical_data": {"Molecular Weight": "228.24", "Molecular Formula": "C10H16N2O4", "Melting Point": "169-170 \u00b0C"}}