{"cas_no": "147149-76-6", "cn_name": "\u8bfa\u62c9\u66f2\u7279", "en_name": ["Nolatrexed", "4(1H)-Quinazolinone, 2-amino-6-methyl-5-(4-pyridinylthio)-", "2-Amino-6-methyl-5-(4-pyridinylthio)-4(1H)-quinazolinone", "Nolatrexed", "2-Amino-6-methyl-5-(pyridin-4-ylsulfanyl)-3H-quinazolin-4-one", "2-Amino-6-methyl-5-pyridin-4-ylsulfanyl-1H-quinazolin-4-one"], "SMILES": "S(C1=C2C(=CC=C1C)NC(N)=NC2=O)C=3C=CN=CC3", "physical_data": {"Molecular Weight": "284.34", "Molecular Formula": "C14H12N4OS", "Melting Point": "300-301 \u00b0C"}}