{"cas_no": "1471-03-0", "cn_name": "\u70ef\u4e19\u57fa\u6b63\u4e19\u916f", "en_name": ["3-Propoxy-1-propene", "1-Propene, 3-propoxy-", "Ether, allyl propyl", "3-Propoxy-1-propene", "Allyl propyl ether", "Propyl allyl ether", "NSC 158160", "Allyl n-propyl ether", "1-Prop-2-enoxypropane", "3-Propoxy-1-propen"], "SMILES": "O(CCC)CC=C", "physical_data": {"Molecular Weight": "100.16", "Molecular Formula": "C6H12O", "Boiling Point": "91 \u00b0C", "Density": "0.7670 g/cm\u00b3 @ Temp: 20 \u00b0C"}}