{"cas_no": "14721-66-5", "cn_name": "\u690d\u70f7\u9178", "en_name": ["Phytanic acid", "Hexadecanoic acid, 3,7,11,15-tetramethyl-", "Phytanic acid", "3,7,11,15-Tetramethylhexadecanoic acid", "Phytanoic acid", "NSC 108698"], "SMILES": "C(C(CCCC(CCCC(C)C)C)C)CCC(CC(O)=O)C", "physical_data": {"Molecular Weight": "312.53", "Molecular Formula": "C20H40O2", "Boiling Point": "221 \u00b0C @ Press: 7.5 Torr", "Melting Point": "&lt;-10 \u00b0C", "Density": "0.8761 g/cm\u00b3 @ Temp: 20 \u00b0C"}}