{"cas_no": "1472-87-3", "cn_name": "\u5341\u4e09\u78b3\u4e8c\u9178\u4e8c\u7532\u916f", "en_name": ["Dimethyl brassylate", "Tridecanedioic acid, 1,13-dimethyl ester", "Tridecanedioic acid, dimethyl ester", "Dimethyl brassylate", "Dimethyl tridecanedioate", "1,11-Undecanedicarboxylic acid dimethyl ester", "Dimethyl tridecane-1,13-dioate", "Dimethyl 1,11-undecanedicarboxylate", "DMB"], "SMILES": "C(CCCCCCCCCCCC(OC)=O)(OC)=O", "physical_data": {"Molecular Weight": "272.38", "Molecular Formula": "C15H28O4", "Boiling Point": "331.9 \u00b0C", "Melting Point": "36 \u00b0C"}}