{"cas_no": "1472-93-1", "cn_name": "\u5341\u516b\u70f7\u4e8c\u9178\u4e8c\u7532\u916f", "en_name": ["Dimethyl octadecanedioate", "Octadecanedioic acid, 1,18-dimethyl ester", "Octadecanedioic acid, dimethyl ester", "Dimethyl octadecanedioate", "Dimethyl 1,18-octadecanedioate"], "SMILES": "C(CCCCCCCCCCCCCCCCC(OC)=O)(OC)=O", "physical_data": {"Molecular Weight": "342.51", "Molecular Formula": "C20H38O4", "Boiling Point": "170 \u00b0C @ Press: 0.1 Torr", "Melting Point": "59.5-60.5 \u00b0C"}}