{"cas_no": "147208-69-3", "cn_name": "(R)-2-\u5421\u54af\u70f7\u787c\u9178\u848e\u70f7\u4e8c\u9187\u916f\u76d0\u9178\u76d0", "en_name": ["Pyrrolidine, 2-[(3aS,4S,6S,7aR)-hexahydro-3a,5,5-trimethyl-4,6-methano-1,3,2-benzodioxaborol-2-yl]-, hydrochloride (1:1), (2R)-", "Pyrrolidine, 2-[(3aS,4S,6S,7aR)-hexahydro-3a,5,5-trimethyl-4,6-methano-1,3,2-benzodioxaborol-2-yl]-, hydrochloride (1:1), (2R)-", "Pyrrolidine, 2-(hexahydro-3a,5,5-trimethyl-4,6-methano-1,3,2-benzodioxaborol-2-yl)-, hydrochloride, [3aS-[2(S*),3a\u03b1,4\u03b2,6\u03b2,7a\u03b1]]-", "Pyrrolidine, 2-[(3aS,4S,6S,7aR)-hexahydro-3a,5,5-trimethyl-4,6-methano-1,3,2-benzodioxaborol-2-yl]-, hydrochloride, (2R)-", "4,6-Methano-1,3,2-benzodioxaborole, pyrrolidine deriv."], "SMILES": "CC12C3C(C)(C)C(C3)CC1OB(O2)C4CCCN4.Cl", "physical_data": {"Molecular Weight": "", "Molecular Formula": "C14H24BNO2.ClH", "Melting Point": "143-147 \u00b0C"}}