{"cas_no": "14733-77-8", "cn_name": "5-\u6c28\u57fa-2(3H)-\u6076\u5511\u916e", "en_name": ["5-Amino-2-benzoxazolone", "2(3H)-Benzoxazolone, 5-amino-", "2-Benzoxazolinone, 5-amino-", "5-Amino-2(3H)-benzoxazolone", "5-Aminobenzoxazolone", "5-Amino-2-benzoxazolone", "5-Aminobenzoxazolin-2-one", "NSC 24965", "5-Aminobenzo[d]oxazol-2(3H)-one", "5-Amino-2-oxo-2,3-dihydro-1H-benzoxazole"], "SMILES": "O=C1OC=2C(N1)=CC(N)=CC2", "physical_data": {"Molecular Weight": "150.13", "Molecular Formula": "C7H6N2O2", "Melting Point": "206-208 \u00b0C"}}