{"cas_no": "14737-89-4", "cn_name": "3,4-\u4e8c\u7532\u6c27\u57fa\u8089\u9178\u9178", "en_name": ["trans-3,4-Dimethoxycinnamic acid", "2-Propenoic acid, 3-(3,4-dimethoxyphenyl)-, (2E)-", "Cinnamic acid, 3,4-dimethoxy-, (E)-", "2-Propenoic acid, 3-(3,4-dimethoxyphenyl)-, (E)-", "(2E)-3-(3,4-Dimethoxyphenyl)-2-propenoic acid", "3,4-Dimethoxy-trans-cinnamic acid", "(E)-3,4-Dimethoxycinnamic acid", "trans-3,4-Dimethoxycinnamic acid", "(2E)-(3,4-Dimethoxyphenyl)-2-propenoic acid", "trans-3-(3,4-Dimethoxyphenyl)-2-propenoic acid", "trans-3,4-Di-O-methylcaffeic acid", "(E)-3-(3,4-Dimethoxyphenyl)acrylic acid", "(E)-3-(3,4-Dimethoxyphenyl)-2-propenoic acid"], "SMILES": "O(C)C1=C(OC)C=CC(C=CC(O)=O)=C1", "physical_data": {"Molecular Weight": "208.21", "Molecular Formula": "C11H12O4", "Melting Point": "179.4-181.1 \u00b0C"}}