{"cas_no": "14736-31-3", "cn_name": "4-\u6c27\u4ee3-4H-1-\u82ef\u5e76\u5421\u5583-2-\u7532\u9178\u4e59\u916f", "en_name": ["Ethyl 4-oxo-4H-1-benzopyran-2-carboxylate", "4H-1-Benzopyran-2-carboxylic acid, 4-oxo-, ethyl ester", "Ethyl 4-oxo-4H-1-benzopyran-2-carboxylate", "Ethyl chromone-2-carboxylate", "2-(Ethoxycarbonyl)chromone", "2-Ethoxycarbonyl-4-oxo-4H-1-benzopyran"], "SMILES": "O=C1C=2C(OC(C(OCC)=O)=C1)=CC=CC2", "physical_data": {"Molecular Weight": "218.21", "Molecular Formula": "C12H10O4", "Melting Point": "71-72 \u00b0C"}}