{"cas_no": "14737-80-5", "cn_name": "N-\u7532\u57fa-3,4,5,6-\u56db\u6c2f\u90bb\u82ef\u4e8c\u7532\u9170\u4e9a\u80fa", "en_name": ["4,5,6,7-Tetrachloro-2-methyl-1H-isoindole-1,3(2H)-dione", "1H-Isoindole-1,3(2H)-dione, 4,5,6,7-tetrachloro-2-methyl-", "Phthalimide, 3,4,5,6-tetrachloro-N-methyl-", "4,5,6,7-Tetrachloro-2-methyl-1H-isoindole-1,3(2H)-dione", "Tetrachloro-N-methylphthalimide", "N-Methyltetrachlorophthalimide", "N-Methyl-3,4,5,6-tetrachlorophthalimide", "3,4,5,6-Tetrachloro-N-methylphthalimide", "NSC 45112"], "SMILES": "O=C1C=2C(C(=O)N1C)=C(Cl)C(Cl)=C(Cl)C2Cl", "physical_data": {"Molecular Weight": "298.94", "Molecular Formula": "C9H3Cl4NO2", "Melting Point": "210-212 \u00b0C"}}