{"cas_no": "14736-50-6", "cn_name": "2-(2-\u7532\u6c27\u57fa-2-\u6c27\u4ee3\u4e59\u57fa)\u82ef\u7532\u9178", "en_name": ["1-Methyl 2-carboxybenzeneacetate", "Benzeneacetic acid, 2-carboxy-, 1-methyl ester", "o-Toluic acid, \u03b1-carboxy-, \u03b1-methyl ester", "Benzeneacetic acid, 2-carboxy-, \u03b1-methyl ester", "1-Methyl 2-carboxybenzeneacetate", "2-(Methoxycarbonylmethyl)benzoic acid", "Methyl o-carboxyphenylacetate", "2-(2-Methoxy-2-oxoethyl)benzoic acid", "Methyl (2-carboxyphenyl)acetate"], "SMILES": "C(O)(=O)C1=C(CC(OC)=O)C=CC=C1", "physical_data": {"Molecular Weight": "194.18", "Molecular Formula": "C10H10O4", "Melting Point": "98-100 \u00b0C"}}