{"cas_no": "14737-91-8", "cn_name": "\u987a-2-\u7532\u6c27\u57fa\u8089\u6842\u9178", "en_name": ["cis-2-Methoxycinnamic acid", "2-Propenoic acid, 3-(2-methoxyphenyl)-, (2Z)-", "Cinnamic acid, o-methoxy-, (Z)-", "2-Propenoic acid, 3-(2-methoxyphenyl)-, (Z)-", "Cinnamic acid, o-methoxy-, cis-", "(2Z)-3-(2-Methoxyphenyl)-2-propenoic acid", "cis-2-Methoxycinnamic acid", "(Z)-3-(2-Methoxyphenyl)-2-propenoic acid"], "SMILES": "C(=CC(O)=O)C1=C(OC)C=CC=C1", "physical_data": {"Molecular Weight": "178.18", "Molecular Formula": "C10H10O3", "Melting Point": "94-96 \u00b0C"}}