{"cas_no": "14733-73-4", "cn_name": "5-\u6eb4-2-\u82ef\u5e76\u6076\u5511\u916e", "en_name": ["5-Bromo-2-benzoxazolinone", "2(3H)-Benzoxazolone, 5-bromo-", "2-Benzoxazolinone, 5-bromo-", "2-Benzoxazolol, 5-bromo-", "5-Bromo-2(3H)-benzoxazolone", "5-Bromo-2-benzoxazolone", "5-Bromo-2-benzoxazolinone", "5-Bromo-3H-benzoxazol-2-one", "5-Bromobenzo[d]oxazol-2(3H)-one"], "SMILES": "O=C1OC=2C(N1)=CC(Br)=CC2", "physical_data": {"Molecular Weight": "214.02", "Molecular Formula": "C7H4BrNO2", "Melting Point": "214-216 \u00b0C"}}