{"cas_no": "1474-78-8", "cn_name": "\u7532\u81a6\u9178\u4e09\u4e59\u916f", "en_name": ["Phosphinecarboxylic acid, 1,1-diethoxy-, ethyl ester, 1-oxide", "Phosphinecarboxylic acid, 1,1-diethoxy-, ethyl ester, 1-oxide", "Formic acid, phosphono-, triethyl ester", "Phosphinecarboxylic acid, diethoxy-, ethyl ester, oxide", "Diethyl (ethoxycarbonyl)phosphonate", "Diethyl carbethoxyphosphonate", "Triethyl carboxyphosphonate", "Ethyl diethylphosphonoformate", "Triethyl phosphonoformate", "NSC 108684"], "SMILES": "P(C(OCC)=O)(OCC)(OCC)=O", "physical_data": {"Molecular Weight": "210.16", "Molecular Formula": "C7H15O5P", "Boiling Point": "122.5-123.0 \u00b0C @ Press: 8 Torr", "Density": "1.0450 g/cm\u00b3 @ Temp: 20 \u00b0C"}}