{"cas_no": "147403-65-4", "cn_name": "1-[(2'-(\u7f9f\u57fa\u8112\u57fa)[1,1-\u8054\u82ef\u57fa]-4-\u57fa)\u7532\u57fa]-2-\u4e59\u6c27\u57fa-1H-\u82ef\u5e76\u54aa\u5511-7-\u7532\u9178\u7532\u916f", "en_name": ["Methyl 2-ethoxy-1-[[2\u2032-(hydroxyamidino)biphenyl-4-yl]methyl]-1H-benzimidazole-7-carboxylate", "1H-Benzimidazole-7-carboxylic acid, 2-ethoxy-1-[[2\u2032-[(hydroxyamino)iminomethyl][1,1\u2032-biphenyl]-4-yl]methyl]-, methyl ester", "Methyl 2-ethoxy-1-[[2\u2032-(hydroxyamidino)biphenyl-4-yl]methyl]-1H-benzimidazole-7-carboxylate", "2-Ethoxy-1-[[2\u2032-((hydroxyamino)(imino)methyl)biphenyl-4-yl]methyl]-1H-benzimidazole-7-carboxylic acid methyl ester"], "SMILES": "C(N1C=2C(N=C1OCC)=CC=CC2C(OC)=O)C3=CC=C(C=C3)C4=C(C(NO)=N)C=CC=C4", "physical_data": {"Molecular Weight": "444.48", "Molecular Formula": "C25H24N4O4", "Melting Point": "207-209 \u00b0C"}}