{"cas_no": "147403-52-9", "cn_name": "1-[(2'-[(\u4e59\u6c27\u7fb0\u57fa)\u6c27\u57fa]\u8112\u57fa)[1,1-\u8054\u82ef\u57fa]-4-\u57fa)\u7532\u57fa]-2-\u4e59\u6c27\u57fa-1H-\u82ef\u5e76\u54aa\u5511-7-\u7532\u9178\u7532\u916f", "en_name": ["Methyl 2-ethoxy-1-[[2\u2032-(5-oxo-4,5-dihydro-1,2,4-oxadiazol-3-yl)biphenyl-4-yl]methyl]-1H-benzimidazole-7-carboxylate", "1H-Benzimidazole-7-carboxylic acid, 1-[[2\u2032-(2,5-dihydro-5-oxo-1,2,4-oxadiazol-3-yl)[1,1\u2032-biphenyl]-4-yl]methyl]-2-ethoxy-, methyl ester", "Methyl 2-ethoxy-1-[[2\u2032-(5-oxo-4,5-dihydro-1,2,4-oxadiazol-3-yl)biphenyl-4-yl]methyl]-1H-benzimidazole-7-carboxylate", "Methyl 2-ethoxy-1-[[2\u2032-(2,5-dihydro-5-oxo-1,2,4-oxadiazol-3-yl)biphenyl-4-yl]methyl]benzimidazole-7-carboxylate"], "SMILES": "C(N1C=2C(N=C1OCC)=CC=CC2C(OC)=O)C3=CC=C(C=C3)C4=C(C=CC=C4)C5=NOC(=O)N5", "physical_data": {"Molecular Weight": "470.48", "Molecular Formula": "C26H22N4O5", "Melting Point": "192-196 \u00b0C"}}