{"cas_no": "147444-03-9", "cn_name": "\u5576\u5357\u5e73 A", "en_name": ["Pyripyropene A", "2H,11H-Naphtho[2,1-b]pyrano[3,4-e]pyran-11-one, 3,6-bis(acetyloxy)-4-[(acetyloxy)methyl]-1,3,4,4a,5,6,6a,12,12a,12b-decahydro-12-hydroxy-4,6a,12b-trimethyl-9-(3-pyridinyl)-, (3S,4R,4aR,6S,6aS,12R,12aS,12bS)-", "2H,11H-Naphtho[2,1-b]pyrano[3,4-e]pyran-11-one, 3,6-bis(acetyloxy)-4-[(acetyloxy)methyl]-1,3,4,4a,5,6,6a,12,12a,12b-decahydro-12-hydroxy-4,6a,12b-trimethyl-9-(3-pyridinyl)-, [3S-(3\u03b1,4\u03b2,4a\u03b2,6\u03b1,6a\u03b1,12\u03b1,12a\u03b2,12b\u03b1)]-", "(3S,4R,4aR,6S,6aS,12R,12aS,12bS)-3,6-Bis(acetyloxy)-4-[(acetyloxy)methyl]-1,3,4,4a,5,6,6a,12,12a,12b-decahydro-12-hydroxy-4,6a,12b-trimethyl-9-(3-pyridinyl)-2H,11H-naphtho[2,1-b]pyrano[3,4-e]pyran-11-one", "FO 1289A", "Pyripyropene A", "(+)-Pyripyropene A"], "SMILES": "CC12C3C(C)(C(OC(C)=O)CC1C(COC(C)=O)(C)C(OC(C)=O)CC2)OC4=C(C3O)C(=O)OC(=C4)C=5C=CC=NC5", "physical_data": {"Molecular Weight": "583.63", "Molecular Formula": "C31H37NO10", "Melting Point": "152-153 \u00b0C"}}