{"cas_no": "14756-78-6", "cn_name": "1,5-\u8418\u5576-3-\u9187", "en_name": ["1,5-Naphthyridin-3-ol", "1,5-Naphthyridin-3-ol", "3-Hydroxy-1,5-naphthyridine"], "SMILES": "OC1=CC2=C(N=C1)C=CC=N2", "physical_data": {"Molecular Weight": "146.15", "Molecular Formula": "C8H6N2O", "Melting Point": "280-282 \u00b0C"}}