{"cas_no": "1475-13-4", "cn_name": "2,4-\u4e8c\u6c2f-\u03b1-\u7532\u57fa\u82ef\u7532\u9187", "en_name": ["2,4-Dichloro-\u03b1-methylbenzenemethanol", "Benzenemethanol, 2,4-dichloro-\u03b1-methyl-", "Benzyl alcohol, 2,4-dichloro-\u03b1-methyl-", "2,4-Dichloro-\u03b1-methylbenzenemethanol", "1-(2,4-Dichlorophenyl)ethanol", "2,4-Dichloro-\u03b1-methylbenzyl alcohol", "1-(2\u2032,4\u2032-Dichlorophenyl)ethanol", "1-(2,4-Dichlorophenyl)ethyl alcohol", "(\u00b1)-1-(2,4-Dichlorophenyl)ethanol", "1-(2,4-Dichlorophenyl)ethan-1-ol"], "SMILES": "C(C)(O)C1=C(Cl)C=C(Cl)C=C1", "physical_data": {"Molecular Weight": "191.05", "Molecular Formula": "C8H8Cl2O", "Boiling Point": "154-155 \u00b0C @ Press: 22 Torr"}}