{"cas_no": "14755-02-3", "cn_name": "3-\u7f9f\u57fa\u8089\u6842\u9178", "en_name": ["trans-3-Hydroxycinnamic acid", "2-Propenoic acid, 3-(3-hydroxyphenyl)-, (2E)-", "Cinnamic acid, m-hydroxy-, (E)-", "2-Propenoic acid, 3-(3-hydroxyphenyl)-, (E)-", "(2E)-3-(3-Hydroxyphenyl)-2-propenoic acid", "trans-3-Hydroxycinnamic acid", "trans-m-Coumaric acid", "trans-m-Hydroxycinnamic acid", "(E)-3-Hydroxycinnamic acid", "(E)-3-(3-Hydroxyphenyl)acrylic acid", "trans-3-(m-Hydroxyphenyl)-2-propenoic acid", "Rans-3-hydroxycinnamic acid", "(E)-m-Coumaric acid"], "SMILES": "C(=CC(O)=O)C1=CC(O)=CC=C1", "physical_data": {"Molecular Weight": "164.16", "Molecular Formula": "C9H8O3", "Melting Point": "198 \u00b0C"}}