{"cas_no": "147536-97-8", "cn_name": "\u6ce2\u751f\u5766", "en_name": ["Bosentan", "Benzenesulfonamide, 4-(1,1-dimethylethyl)-N-[6-(2-hydroxyethoxy)-5-(2-methoxyphenoxy)[2,2\u2032-bipyrimidin]-4-yl]-", "4-(1,1-Dimethylethyl)-N-[6-(2-hydroxyethoxy)-5-(2-methoxyphenoxy)[2,2\u2032-bipyrimidin]-4-yl]benzenesulfonamide", "Bosentan", "p-tert-Butyl-N-[6-(2-hydroxyethoxy)-5-(o-methoxyphenoxy)-2-(2-pyrimidinyl)-4-pyrimidinyl]benzenesulfonamide", "Ro 47-0203", "Ro 47-0203/039", "Tracleer", "Actelion", "ACT 434964"], "SMILES": "O(C=1C(NS(=O)(=O)C2=CC=C(C(C)(C)C)C=C2)=NC(=NC1OCCO)C=3N=CC=CN3)C4=C(OC)C=CC=C4", "physical_data": {"Molecular Weight": "551.61", "Molecular Formula": "C27H29N5O6S", "Melting Point": "114-116 \u00b0C"}}