{"cas_no": "14756-77-5", "cn_name": "1,5-\u8418\u5576-3-\u80fa", "en_name": ["1,5-Naphthyridin-3-amine", "1,5-Naphthyridin-3-amine", "1,5-Naphthyridine, 3-amino-", "3-Amino-1,5-naphthyridine", "[1,5]Naphthyridin-3-ylamine"], "SMILES": "NC1=CC2=C(N=C1)C=CC=N2", "physical_data": {"Molecular Weight": "145.16", "Molecular Formula": "C8H7N3", "Melting Point": "144-145 \u00b0C"}}