{"cas_no": "14752-66-0", "cn_name": "\u5bf9\u6c2f\u82ef\u4e9a\u78fa\u9178\u94a0", "en_name": ["Benzenesulfinic acid, 4-chloro-, sodium salt (1:1)", "Benzenesulfinic acid, 4-chloro-, sodium salt (1:1)", "Benzenesulfinic acid, p-chloro-, sodium salt", "Benzenesulfinic acid, 4-chloro-, sodium salt", "Sodium p-chlorobenzenesulfinate", "Sodium 4-chlorobenzenesulfinate", "Sodium 4-chlorophenylsulfinate", "Sodium p-chlorophenylsulfinate", "4-Chlorobenzenesulfinic acid sodium salt", "NSC 67146", "Sodium 4-Chlorobenzenesulfinic acid"], "SMILES": "S(=O)(O)C1=CC=C(Cl)C=C1.[Na]", "physical_data": {"Molecular Weight": "", "Molecular Formula": "C6H5ClO2S.Na", "Melting Point": "&gt;300 \u00b0C"}}