{"cas_no": "1475-11-2", "cn_name": "1-(3,4-\u4e8c\u6c2f\u915a)\u4e59\u9187", "en_name": ["3,4-Dichloro-\u03b1-methylbenzenemethanol", "Benzenemethanol, 3,4-dichloro-\u03b1-methyl-", "Benzyl alcohol, 3,4-dichloro-\u03b1-methyl-", "3,4-Dichloro-\u03b1-methylbenzenemethanol", "3,4-Dichloro-\u03b1-methylbenzyl alcohol", "1-(3,4-Dichlorophenyl)ethanol", "NSC 55517", "1-(3,4-Dichlorophenyl)ethan-1-ol"], "SMILES": "C(C)(O)C1=CC(Cl)=C(Cl)C=C1", "physical_data": {"Molecular Weight": "191.05", "Molecular Formula": "C8H8Cl2O", "Boiling Point": "127-128 \u00b0C @ Press: 2 Torr", "Density": "1.318 g/cm\u00b3 @ Temp: 20 \u00b0C"}}