{"cas_no": "1475-12-3", "cn_name": "1-(2,5-\u4e8c\u6c2f\u82ef\u57fa)\u4e59\u9187", "en_name": ["2,5-Dichloro-\u03b1-methylbenzenemethanol", "Benzenemethanol, 2,5-dichloro-\u03b1-methyl-", "Benzyl alcohol, 2,5-dichloro-\u03b1-methyl-", "2,5-Dichloro-\u03b1-methylbenzenemethanol", "2,5-Dichloro-\u03b1-methylbenzyl alcohol", "NSC 157362", "1-(2,5-Dichlorophenyl)ethanol"], "SMILES": "C(C)(O)C1=C(Cl)C=CC(Cl)=C1", "physical_data": {"Molecular Weight": "191.05", "Molecular Formula": "C8H8Cl2O", "Boiling Point": "71 \u00b0C @ Press: 2.5 Torr", "Melting Point": "60-62 \u00b0C", "Density": "1.217 g/cm\u00b3 @ Temp: 25 \u00b0C"}}