{"cas_no": "14752-75-1", "cn_name": "\u5341\u4e03\u70f7\u57fa\u82ef", "en_name": ["Heptadecylbenzene", "Benzene, heptadecyl-", "Heptadecane, 1-phenyl-", "Heptadecylbenzene", "Heptadecylbenzol", "n-Heptadecylbenzene", "1-Phenylheptadecane"], "SMILES": "C(CCCCCCCCCCCCCCCC)C1=CC=CC=C1", "physical_data": {"Molecular Weight": "316.56", "Molecular Formula": "C23H40", "Boiling Point": "397 \u00b0C", "Melting Point": "32 \u00b0C"}}