{"cas_no": "1476-11-5", "cn_name": "\u987a\u5f0f-1,4-\u4e8c\u6c2f-2-\u4e01\u70ef", "en_name": ["cis-1,4-Dichloro-2-butene", "2-Butene, 1,4-dichloro-, (2Z)-", "2-Butene, 1,4-dichloro-, (Z)-", "(2Z)-1,4-Dichloro-2-butene", "cis-1,4-Dichloro-2-butene", "1,4-Dichloro-cis-2-butene", "(Z)-1,4-Dichloro-2-butene", "cis-1,2-Bis(chloromethyl)ethene", "(Z)-1,4-Dichlorobutene", "(2Z)-1,4-Dichlorobut-2-ene"], "SMILES": "C(=CCCl)CCl", "physical_data": {"Molecular Weight": "125.00", "Molecular Formula": "C4H6Cl2", "Boiling Point": "152.5 \u00b0C", "Melting Point": "-48 \u00b0C", "Density": "1.188 g/cm\u00b3 @ Temp: 25 \u00b0C"}}