{"cas_no": "1476-98-8", "cn_name": "\u6c22\u9cb2\u76d0\u9178\u76d0", "en_name": ["Hydroquinidine hydrochloride", "Cinchonan-9-ol, 10,11-dihydro-6\u2032-methoxy-, hydrochloride (1:1), (9S)-", "Hydroquinidine, monohydrochloride", "Cinchonan-9-ol, 10,11-dihydro-6\u2032-methoxy-, monohydrochloride, (9S)-", "DHQ hydrochloride", "Hydroquinidine hydrochloride", "Dihydroquinidine hydrochloride", "10,11-Dihydroquinidine monohydrochloride", "Serecor"], "SMILES": "C(O)(C=1C2=C(C=CC(OC)=C2)N=CC1)C3N4CC(CC)C(C3)CC4.Cl", "physical_data": {"Molecular Weight": "", "Molecular Formula": "C20H26N2O2.ClH", "Melting Point": "273-274 \u00b0C"}}