{"cas_no": "14763-60-1", "cn_name": "4-\u7532\u57fa\u78fa\u9170\u82ef\u915a", "en_name": ["4-(Methylsulfonyl)phenol", "Phenol, 4-(methylsulfonyl)-", "Phenol, p-(methylsulfonyl)-", "4-(Methylsulfonyl)phenol", "4-Hydroxyphenyl methyl sulfone", "p-(Methylsulfonyl)phenol", "p-Hydroxyphenyl methyl sulfone", "4-(Methanesulfonyl)phenol", "p-(Methanesulfonyl)phenol"], "SMILES": "S(C)(=O)(=O)C1=CC=C(O)C=C1", "physical_data": {"Molecular Weight": "172.20", "Molecular Formula": "C7H8O3S", "Melting Point": "93-94 \u00b0C"}}