{"cas_no": "1476-52-4", "cn_name": "\u7f9f\u57fa\u6c2f\u55b9EP\u6742\u8d28D-d5\u4e8c\u76d0\u9178", "en_name": ["(\u00b1)-Desethylchloroquine", "1,4-Pentanediamine, N4-(7-chloro-4-quinolinyl)-N1-ethyl-", "Quinoline, 7-chloro-4-[[4-(ethylamino)-1-methylbutyl]amino]-", "N4-(7-Chloro-4-quinolinyl)-N1-ethyl-1,4-pentanediamine", "Chloroquine, deethyl-", "Deethylchloroquine", "N-Deethylchloroquine", "4-[[1-Methyl-4-((ethylamino)butyl]amino)]-7-chloroquinoline", "Desethylchloroquine", "WR 29623", "Monodesethylchloroquine", "7-Chloro-4-(4-N-ethylamino-1-methylbutylamino)quinoline", "Monodeethylchloroquine", "(\u00b1)-Desethylchloroquine", "NSC 13254", "1,4-Pentanediamine N4-(7-chloro-4-quinolinyl)-N1-ethyl-"], "SMILES": "N(C(CCCNCC)C)C=1C2=C(N=CC1)C=C(Cl)C=C2", "physical_data": {"Molecular Weight": "291.82", "Molecular Formula": "C16H22ClN3", "Boiling Point": "173-175 \u00b0C @ Press: 0.05 Torr", "Melting Point": "100-102 \u00b0C"}}