{"cas_no": "147636-36-0", "cn_name": "1-[(4-\u7532\u82ef\u57fa)\u78fa\u9170\u57fa]-4-\u54cc\u5576\u7532\u9178", "en_name": ["1-[(4-Methylphenyl)sulfonyl]-4-piperidinecarboxylic acid", "4-Piperidinecarboxylic acid, 1-[(4-methylphenyl)sulfonyl]-", "1-[(4-Methylphenyl)sulfonyl]-4-piperidinecarboxylic acid", "1-Tosylpiperidine-4-carboxylic acid", "1-(4-Methylbenzenesulfonyl)piperidine-4-carboxylic acid"], "SMILES": "S(=O)(=O)(N1CCC(C(O)=O)CC1)C2=CC=C(C)C=C2", "physical_data": {"Molecular Weight": "283.34", "Molecular Formula": "C13H17NO4S", "Melting Point": "169-171 \u00b0C (decomp)"}}