{"cas_no": "14769-73-4", "cn_name": "\u5de6\u65cb\u54aa\u5511", "en_name": ["Levamisole", "Imidazo[2,1-b]thiazole, 2,3,5,6-tetrahydro-6-phenyl-, (6S)-", "Imidazo[2,1-b]thiazole, 2,3,5,6-tetrahydro-6-phenyl-, (S)-", "(6S)-2,3,5,6-Tetrahydro-6-phenylimidazo[2,1-b]thiazole", "(-)-Tetramisole", "Levamisole", "l-2,3,5,6-Tetrahydro-6-phenylimidazo[2,1-b]thiazole", "Levomysol", "(-)-2,3,5,6-Tetrahydro-6-phenylimidazo[2.1-b]thiazole", "Ketrax", "Levamisol", "l-Tetramisole", "L-Tetramisole", "Vermisol 150", "Lepuron", "(S)-(-)-Levamisole", "Wormicid", "Totalon", "Levovermax", "Levipor", "Anthelsol", "Levomol", "5: PN: WO2015086738 SEQID: 8 claimed sequence", "Nilverm LV", "(S)-6-Phenyl-2,3,5,6-tetrahydroimidazo[2,1-b]thiazole", "(6S)-6-Phenyl-2,3,5,6-tetrahydroimidazo[2,1-b][1,3]thiazole", "(6S)-6-Phenyl-2H,3H,5H,6H-imidazo[2,1-b][1,3]thiazole", "(-)-Levamisole", "Trapsol", "MeSH ID: D007978"], "SMILES": "C1(CN2C(=N1)SCC2)C3=CC=CC=C3", "physical_data": {"Molecular Weight": "204.29", "Molecular Formula": "C11H12N2S", "Melting Point": "60-61.5 \u00b0C"}}