{"cas_no": "14765-30-1", "cn_name": "2-(1-\u7532\u57fa\u4e19\u57fa)\u73af\u5df1\u916e", "en_name": ["2-sec-Butylcyclohexanone", "Cyclohexanone, 2-(1-methylpropyl)-", "Cyclohexanone, 2-sec-butyl-", "2-(1-Methylpropyl)cyclohexanone", "2-sec-Butylcyclohexanone", "NSC 21146", "Freskomenthe", "Frescomenthe", "2-(sec-Butyl)cyclohexan-1-one", "2-Butan-2-ylcyclohexan-1-one", "2-(Butan-2-yl)cyclohexan-1-one"], "SMILES": "C(CC)(C)C1C(=O)CCCC1", "physical_data": {"Molecular Weight": "154.25", "Molecular Formula": "C10H18O", "Boiling Point": "76-78 \u00b0C @ Press: 8 Torr", "Density": "0.9152 g/cm\u00b3 @ Temp: 20 \u00b0C"}}