{"cas_no": "1476-23-9", "cn_name": "3-\u5f02\u6c30\u9178\u4e19\u70ef", "en_name": ["Allyl isocyanate", "1-Propene, 3-isocyanato-", "Isocyanic acid, allyl ester", "3-Isocyanato-1-propene", "Propene, 3-isocyanato-", "Allyl isocyanate", "2-Propenyl isocyanate", "NSC 96964"], "SMILES": "C(N=C=O)C=C", "physical_data": {"Molecular Weight": "83.09", "Molecular Formula": "C4H5NO", "Boiling Point": "87-89 \u00b0C"}}