{"cas_no": "1476-39-7", "cn_name": "1,5-\u620a\u4e8c\u80fa\u76d0\u9178\u76d0", "en_name": ["1,5-Diaminopentane dihydrochloride", "1,5-Pentanediamine, hydrochloride (1:2)", "1,5-Pentanediamine, dihydrochloride", "Cadaverine dihydrochloride", "Pentamethylenediamine dihydrochloride", "1,5-Diaminopentane dihydrochloride", "1,5-Pentanediammonium dichloride", "Cadaverine hydrochloride", "Cadaverinium dichloride", "Cadeverine dihydrochloride"], "SMILES": "C(CCN)CCN.Cl", "physical_data": {"Molecular Weight": "", "Molecular Formula": "C5H14N2.2ClH", "Melting Point": "255 \u00b0C"}}