{"cas_no": "14773-42-3", "cn_name": "3,4-\u4e8c\u7532\u6c27\u57fa\u82ef\u4e19\u80fa", "en_name": ["3,4-Dimethoxybenzenepropanamine", "Benzenepropanamine, 3,4-dimethoxy-", "Propylamine, 3-(3,4-dimethoxyphenyl)-", "3,4-Dimethoxybenzenepropanamine", "3-(3,4-Dimethoxyphenyl)propylamine", "3,4-Dimethoxyphenylpropylamine", "3-(3,4-Dimethoxyphenyl)propan-1-amine"], "SMILES": "O(C)C1=C(OC)C=CC(CCCN)=C1", "physical_data": {"Molecular Weight": "195.26", "Molecular Formula": "C11H17NO2", "Boiling Point": "125-130 \u00b0C @ Press: 1.5 Torr"}}