{"cas_no": "147770-06-7", "cn_name": "(S)-\u745e\u683c\u5217\u5948\u4e59\u57fa\u916f", "en_name": ["Ethyl 2-ethoxy-4-[2-[[(1S)-3-methyl-1-[2-(1-piperidinyl)phenyl]butyl]amino]-2-oxoethyl]benzoate", "Benzoic acid, 2-ethoxy-4-[2-[[(1S)-3-methyl-1-[2-(1-piperidinyl)phenyl]butyl]amino]-2-oxoethyl]-, ethyl ester", "Benzoic acid, 2-ethoxy-4-[2-[[3-methyl-1-[2-(1-piperidinyl)phenyl]butyl]amino]-2-oxoethyl]-, ethyl ester, (S)-", "Ethyl 2-ethoxy-4-[2-[[(1S)-3-methyl-1-[2-(1-piperidinyl)phenyl]butyl]amino]-2-oxoethyl]benzoate", "(S)-Ethyl 2-ethoxy-4-[[[N-[1-(2-piperidinophenyl)-3-methyl-1-butyl]amino]carbonyl]methyl]benzoate", "(S)-2-Ethoxy-4-[[[N-[1-(2-piperidinophenyl)-3-methylbutyl]amino]carbonyl]methyl]benzoic acid ethyl ester", "(S)-Ethyl 2-ethoxy-4-(2-((3-methyl-1-(2-(piperidin-1-yl)phenyl)butyl)amino)-2-oxoethyl)benzoate"], "SMILES": "C(NC(CC1=CC(OCC)=C(C(OCC)=O)C=C1)=O)(CC(C)C)C2=C(C=CC=C2)N3CCCCC3", "physical_data": {"Molecular Weight": "480.64", "Molecular Formula": "C29H40N2O4", "Melting Point": "122-124 \u00b0C"}}