{"cas_no": "1477-57-2", "cn_name": "N,N'-\u516b\u4e9a\u7532\u57fa\u53cc\u4e8c\u6c2f\u4e59\u9170\u80fa", "en_name": ["N,N\u2032-1,8-Octanediylbis[2,2-dichloroacetamide]", "Acetamide, N,N\u2032-1,8-octanediylbis[2,2-dichloro-", "Acetamide, N,N\u2032-octamethylenebis[2,2-dichloro-", "N,N\u2032-1,8-Octanediylbis[2,2-dichloroacetamide]", "Win 18446", "N,N\u2032-Bis(dichloroacetyl)-1,8-octamethylenediamine", "Win 18441", "N,N\u2032-Octamethylenebis(2,2-dichloroacetamide)", "N,N\u2032-Bis(dichloroacetyl)-1,8-diaminooctane", "Fertilysin", "Bis-Diamine", "Fertilysine", "NSC 59354", "2,2-Dichloro-N-[8-[(2,2-dichloroacetyl)amino]octyl]acetamide"], "SMILES": "N(C(C(Cl)Cl)=O)CCCCCCCCNC(C(Cl)Cl)=O", "physical_data": {"Molecular Weight": "366.11", "Molecular Formula": "C12H20Cl4N2O2", "Melting Point": "122.4-123.6 \u00b0C"}}