{"cas_no": "1477-24-3", "cn_name": "5-(4-\u5421\u5576\u57fa)-1H-1,2,4-\u4e09\u5511-3-\u786b\u9187", "en_name": ["5-(Pyridin-4-yl)-4H-[1,2,4]triazole-3-thiol", "3H-1,2,4-Triazole-3-thione, 1,2-dihydro-5-(4-pyridinyl)-", "\u03942-1,2,4-Triazoline-5-thione, 3-(4-pyridyl)-", "s-Triazole-3-thiol, 5-(4-pyridyl)-", "1,2-Dihydro-5-(4-pyridinyl)-3H-1,2,4-triazole-3-thione", "5-(4-Pyridyl)-1H-1,2,4-triazole-3-thiol", "NSC 151062", "5-(Pyridin-4-yl)-4H-[1,2,4]triazole-3-thiol", "3-Mercapto-5-(4-pyridyl)-1,2,4-triazole", "3-(Pyridin-4-yl)-1H-1,2,4-triazole-5(4H)-thione", "5-(4-Pyridinyl)-1H-1,2,4-triazole-3-thiol"], "SMILES": "S=C1NC(=NN1)C=2C=CN=CC2", "physical_data": {"Molecular Weight": "178.21", "Molecular Formula": "C7H6N4S", "Melting Point": "321-322 \u00b0C (decomp)"}}