{"cas_no": "14777-27-6", "cn_name": "\u7532\u57fa\u4e59\u9170\u4e9a\u80fa\u916f\u76d0\u9178\u76d0", "en_name": ["Ethanimidic acid, methyl ester, hydrochloride (1:1)", "Ethanimidic acid, methyl ester, hydrochloride (1:1)", "Acetimidic acid, methyl ester, hydrochloride", "Ethanimidic acid, methyl ester, hydrochloride", "Methyl acetimidate hydrochloride"], "SMILES": "C(OC)(C)=N.Cl", "physical_data": {"Molecular Weight": "", "Molecular Formula": "C3H7NO.ClH", "Melting Point": "95-95.5 \u00b0C"}}