{"cas_no": "1477-68-5", "cn_name": "2-\u7532\u6c27\u57fa-4-(2-\u6c28\u57fa\u4e59\u57fa)\u82ef\u915a", "en_name": ["3-O-Methyldopamine hydrochloride", "Phenol, 4-(2-aminoethyl)-2-methoxy-, hydrochloride (1:1)", "Phenol, 4-(2-aminoethyl)-2-methoxy-, hydrochloride", "Guaiacol, 4-(2-aminoethyl)-, hydrochloride", "2-Methoxytyramine hydrochloride", "4-Hydroxy-3-methoxyphenethylamine hydrochloride", "3-O-Methyldopamine hydrochloride", "3-Methoxy-4-hydroxyphenethylamine hydrochloride", "4-Hydroxy-3-methoxy-\u03b2-phenethylamine hydrochloride", "4-(2-Aminoethyl)-2-methoxyphenol hydrochloride", "2-(4-Hydroxy-3-methoxyphenyl)-ethylamine hydrochloride"], "SMILES": "O(C)C1=CC(CCN)=CC=C1O.Cl", "physical_data": {"Molecular Weight": "", "Molecular Formula": "C9H13NO2.ClH", "Melting Point": "213-214 \u00b0C"}}