{"cas_no": "1477-42-5", "cn_name": "2-\u6c28\u57fa-4-\u7532\u57fa\u82ef\u5e76\u567b\u5511", "en_name": ["2-Amino-4-methylbenzothiazole", "2-Benzothiazolamine, 4-methyl-", "Benzothiazole, 2-amino-4-methyl-", "Benzothiazole, 1-amino-3-methyl-", "4-Methyl-2-benzothiazolamine", "2-Amino-4-methylbenzothiazole", "4-Methyl-2-aminobenzothiazole", "4-Methylbenzothiazol-2-ylamine", "NSC 28732", "4-Methyl-1,3-benzothiazol-2-amine", "4-Methylbenzo[d]thiazol-2-amine", "2-Amino-4-methylbenzo[d]thiazole"], "SMILES": "CC1=C2C(SC(N)=N2)=CC=C1", "physical_data": {"Molecular Weight": "164.23", "Molecular Formula": "C8H8N2S", "Melting Point": "138 \u00b0C"}}