{"cas_no": "1477-19-6", "cn_name": "\u82ef\u624e\u9686", "en_name": ["Benzarone", "Methanone, (2-ethyl-3-benzofuranyl)(4-hydroxyphenyl)-", "Ketone, 2-ethyl-3-benzofuranyl p-hydroxyphenyl", "(2-Ethyl-3-benzofuranyl)(4-hydroxyphenyl)methanone", "Benzarone", "2-Ethyl-3-benzofuranyl p-hydroxyphenyl ketone", "2-Ethyl-3-(p-hydroxybenzoyl)benzofuran", "2-Ethyl-3-(4-hydroxybenzoyl)benzofuran", "2-Ethyl-4\u2032-hydroxy-3-benzoylbenzofuran", "Fragivix", "L 2197", "Fragivil", "Benzaron", "Fagivil", "L 2179-Labaz", "NSC 82134", "(2-Ethylbenzofuran-3-yl)(4-hydroxyphenyl)methanone", "(2-Ethyl-1-benzofuran-3-yl)-(4-hydroxyphenyl)methanone"], "SMILES": "C(=O)(C=1C=2C(OC1CC)=CC=CC2)C3=CC=C(O)C=C3", "physical_data": {"Molecular Weight": "266.29", "Molecular Formula": "C17H14O3", "Melting Point": "124.3 \u00b0C"}}