{"cas_no": "1477-49-2", "cn_name": "3-\u5432\u54da\u4e59\u919b\u9178", "en_name": ["Indole-3-glyoxylic acid", "1H-Indole-3-acetic acid, \u03b1-oxo-", "Indole-3-glyoxylic acid", "\u03b1-Oxo-1H-indole-3-acetic acid", "3-Indolylglyoxylic acid", "\u03b2-Indolylglyoxylic acid", "Indole-3-glyoxalic acid", "NSC 71954", "1H-Indol-3-yl-2-oxoacetic acid", "2-(1H-Indol-3-yl)-2-oxoacetic acid", "1H-Indol-3-yl(oxo)acetic acid"], "SMILES": "C(C(O)=O)(=O)C=1C=2C(NC1)=CC=CC2", "physical_data": {"Molecular Weight": "189.17", "Molecular Formula": "C10H7NO3", "Melting Point": "210 \u00b0C (decomp)"}}