{"cas_no": "14779-17-0", "cn_name": "2-\u6c28\u57fa-5-\u7532\u57fa\u82ef\u5e76\u567b\u5511", "en_name": ["5-Methyl-2-benzothiazolamine", "2-Benzothiazolamine, 5-methyl-", "Benzothiazole, 2-amino-5-methyl-", "5-Methyl-2-benzothiazolamine", "5-Methyl-2-aminobenzothiazole", "2-Amino-5-methylbenzothiazole", "5-Methyl-2-Benzothiazolylamine", "NSC 44453", "NSC 45346", "5-Methyl-1,3-benzothiazol-2-amine"], "SMILES": "NC=1SC=2C(N1)=CC(C)=CC2", "physical_data": {"Molecular Weight": "164.23", "Molecular Formula": "C8H8N2S", "Melting Point": "182-184 \u00b0C"}}