{"cas_no": "1477-55-0", "cn_name": "1,3-\u82ef\u4e8c\u7532\u80fa", "en_name": ["m-Xylylenediamine", "1,3-Benzenedimethanamine", "m-Xylene-\u03b1,\u03b1\u2032-diamine", "1,3-Xylylenediamine", "\u03b1,\u03b1\u2032-m-Xylenediamine", "m-(\u03b1,\u03b1\u2032-Diamino)xylene", "1,3-Bis(aminomethyl)benzene", "\u03b1,\u03b1\u2032-Diamino-m-xylene", "3-(Aminomethyl)benzylamine", "1,3-Benzenebis(methylamine)", "MXDA", "Euredur 22", "Epilink MX", "m-Xylylenediamine", "NSC 61568", "Shoamine X", "Benzene-1,3-diyldimethanamine", "m-Xylylene-\u03b1,\u03b1\u2032-diamine", "Aramine 31-487", "m-Xylene diamine", "Aradur 22", "1,3-Phenylenedimethanamine", "[3-(Aminomethyl)phenyl]methanamine", "ST 12"], "SMILES": "C(N)C1=CC(CN)=CC=C1", "physical_data": {"Molecular Weight": "136.19", "Molecular Formula": "C8H12N2", "Boiling Point": "247 \u00b0C", "Melting Point": "14.1 \u00b0C", "Density": "1.05 g/cm\u00b3"}}