{"cas_no": "1477-50-5", "cn_name": "2-\u5432\u54da\u7532\u9178", "en_name": ["Indole-2-carboxylic acid", "1H-Indole-2-carboxylic acid", "Indole-2-carboxylic acid", "2-Carboxyindole", "NSC 16598", "2-Indolylformic acid"], "SMILES": "C(O)(=O)C1=CC=2C(N1)=CC=CC2", "physical_data": {"Molecular Weight": "161.16", "Molecular Formula": "C9H7NO2", "Melting Point": "205-208 \u00b0C"}}