{"cas_no": "14774-36-8", "cn_name": "(\u56db\u6c22\u5421\u5583-3-\u57fa)\u7532\u9187", "en_name": ["Tetrahydro-2H-pyran-3-methanol", "2H-Pyran-3-methanol, tetrahydro-", "Pyran-3-methanol, tetrahydro-", "Tetrahydro-2H-pyran-3-methanol", "3-(Hydroxymethyl)tetrahydropyran", "(Tetrahydropyran-3-yl)methanol", "5-(Hydroxymethyl)tetrahydropyran", "(Tetrahydro-2H-pyran-3-yl)methanol", "Oxan-3-ylmethanol"], "SMILES": "C(O)C1CCCOC1", "physical_data": {"Molecular Weight": "116.16", "Molecular Formula": "C6H12O2", "Boiling Point": "68-69 \u00b0C @ Press: 2 Torr", "Density": "1.040 g/cm\u00b3 @ Temp: 20 \u00b0C"}}