{"cas_no": "14774-37-9", "cn_name": "(\u56db\u6c22-2H-\u5421\u5583-4-\u57fa)\u7532\u9187", "en_name": ["(Tetrahydro-2H-pyran-4-yl)methanol", "2H-Pyran-4-methanol, tetrahydro-", "Tetrahydro-2H-pyran-4-methanol", "4-(Hydroxymethyl)tetrahydro-2H-pyran", "4-(Hydroxymethyl)tetrahydropyran", "(Tetrahydropyran-4-yl)methanol", "(Tetrahydro-2H-pyran-4-yl)methanol", "Tetrahydropyran-4-methanol", "Oxan-4-ylmethanol"], "SMILES": "C(O)C1CCOCC1", "physical_data": {"Molecular Weight": "116.16", "Molecular Formula": "C6H12O2", "Boiling Point": "210-214 \u00b0C"}}