{"cas_no": "14781-45-4", "cn_name": "\u53cc(\u516d\u6c1f\u4e59\u9170\u4e19\u916e)\u5408\u94dc(II)", "en_name": ["(SP-4-1)-Bis(1,1,1,5,5,5-hexafluoro-2,4-pentanedionato-\u03baO2,\u03baO4)copper", "Copper, bis(1,1,1,5,5,5-hexafluoro-2,4-pentanedionato-\u03baO2,\u03baO4)-, (SP-4-1)-", "Copper, bis(1,1,1,5,5,5-hexafluoro-2,4-pentanedionato)-", "Copper, bis(1,1,1,5,5,5-hexafluoro-2,4-pentanedionato-O,O\u2032)-, (SP-4-1)-", "2,4-Pentanedione, 1,1,1,5,5,5-hexafluoro-, copper deriv.", "Copper, bis(1,1,1,5,5,5-hexafluoro-2,4-pentanedionato-\u03baO,\u03baO\u2032)-, (SP-4-1)-", "(SP-4-1)-Bis(1,1,1,5,5,5-hexafluoro-2,4-pentanedionato-\u03baO2,\u03baO4)copper", "Bis(hexafluoroacetylacetonato)copper(II)", "Copper(II) hexafluoroacetylacetonate", "Bis(hexafluoroacetylacetonato)copper", "Bis(1,1,1,5,5,5-hexafluoro-2,4-pentanedionato)copper (II)", "Bis(hexafluoroacetoacetonato)copper(II)", "Bis(hexafluroroacetylacetonato)copper", "Bis(1,1,1,5,5,5-hexafluoroacetylacetonato)copper(II)", "Copper(II) bis(hexafluoroacetylacetonate)", "Bis(hexafluoroacetylacetonate)copper(II)"], "SMILES": "C(F)(F)(F)C1=O[Cu+2]2(O=C(C(F)(F)F)[CH-]C(C(F)(F)F)=O2)O=C(C(F)(F)F)[CH-]1", "physical_data": {"Molecular Weight": "", "Molecular Formula": "C10H2CuF12O4", "Melting Point": "95-98 \u00b0C", "Density": "0.593 g/cm\u00b3"}}