{"cas_no": "147852-84-4", "cn_name": "\u8f9b\u9170\u57fa -L-\u9ad8\u4e1d\u6c28\u9178\u5185\u916f", "en_name": ["N-Octanoyl-L-homoserine lactone", "Octanamide, N-[(3S)-tetrahydro-2-oxo-3-furanyl]-", "Octanamide, N-(tetrahydro-2-oxo-3-furanyl)-, (S)-", "N-[(3S)-Tetrahydro-2-oxo-3-furanyl]octanamide", "N-Octanoyl-L-homoserine lactone", "(S)-N-(2-Oxotetrahydrofuran-3-yl)octanamide", "N-[(3S)-Tetrahydro-2-oxo-3-furanyl]octanamide"], "SMILES": "N(C(CCCCCCC)=O)C1C(=O)OCC1", "physical_data": {"Molecular Weight": "227.30", "Molecular Formula": "C12H21NO3", "Melting Point": "134-135 \u00b0C"}}