{"cas_no": "14783-09-6", "cn_name": "\u4e8c\u6c2f(1,10-\u83f2\u54af\u5549)\u94dc(II)", "en_name": ["(T-4)-Dichloro(1,10-phenanthroline-\u03baN1,\u03baN10)copper", "Copper, dichloro(1,10-phenanthroline-\u03baN1,\u03baN10)-, (T-4)-", "Copper, dichloro(1,10-phenanthroline)-", "Copper, dichloro(1,10-phenanthroline-N1,N10)-, (T-4)-", "(T-4)-Dichloro(1,10-phenanthroline-\u03baN1,\u03baN10)copper", "Dichloro(1,10-phenanthroline)copper"], "SMILES": "[Cl-][Cu+2]1([Cl-])[N]=2C3=C4[N]1=CC=CC4=CC=C3C=CC2", "physical_data": {"Molecular Weight": "", "Molecular Formula": "C12H8Cl2CuN2", "Melting Point": "295 \u00b0C"}}