{"cas_no": "1478-61-1", "cn_name": "\u516d\u6c1f\u53cc\u915a A", "en_name": ["Bisphenol AF", "Phenol, 4,4\u2032-[2,2,2-trifluoro-1-(trifluoromethyl)ethylidene]bis-", "Phenol, 4,4\u2032-[trifluoro-1-(trifluoromethyl)ethylidene]di-", "Phenol, 4,4\u2032-[2,2,2-trifluoro-1-(trifluoromethyl)ethylidene]di-", "4,4\u2032-[2,2,2-Trifluoro-1-(trifluoromethyl)ethylidene]bis[phenol]", "2,2-Bis(4-hydroxyphenyl)perfluoropropane", "Bisphenol AF", "Biphenol AF", "Hexafluoroisopropylidenebis(4-hydroxybenzene)", "4,4\u2032-(Hexafluoroisopropylidene)diphenol", "2,2-Bis(4-hydroxyphenyl)hexafluoropropane", "Hexafluorodiphenylolpropane", "1,1,1,3,3,3-Hexafluoro-2,2-bis(4-hydroxyphenyl)propane", "2,2-Bis(4-hydroxyphenyl)-1,1,1,3,3,3-hexafluoropropane", "BIS-AF", "Curative 30", "2,2-Bis(p-hydroxyphenyl)hexafluoropropane", "Hexafluorobisphenol A", "NSC 152522", "2,2-Bis(4\u2032-hydroxyphenyl)hexafluoropropane", "Bisphenol AE", "Cheminox BAF", "GP 21", "2,2-(4-Hydroxyphenyl)hexafluoropropane", "4,4\u2032-(Hexafluoroisopropylidene)bisphenol", "BIS-AF(H)", "AF 50", "4,4\u2032-[2,2,2-Trifluoro-1-(trifluoromethyl)ethylidene]diphenol", "Dynamar RC 5105", "4,4\u2032-(1,1,1,3,3,3-hexafluoropropane-2,2-diyl)di(phenol)"], "SMILES": "C(C(F)(F)F)(C(F)(F)F)(C1=CC=C(O)C=C1)C2=CC=C(O)C=C2", "physical_data": {"Molecular Weight": "336.23", "Molecular Formula": "C15H10F6O2", "Melting Point": "160-162 \u00b0C"}}