{"cas_no": "14794-31-1", "cn_name": "\u4e01\u4e8c\u9178\u5355\u4e59\u916f\u9170\u6c2f", "en_name": ["Ethyl succinyl chloride", "Butanoic acid, 4-chloro-4-oxo-, ethyl ester", "Propionic acid, 3-(chloroformyl)-, ethyl ester", "\u03b2-Carbethoxypropionyl chloride", "Ethyl succinoyl chloride", "Ethyl succinyl chloride", "Ethyl 3-(chloroformyl)propionate", "\u03b2-Ethoxycarbonylpropionyl chloride", "3-Carbethoxypropionyl chloride", "Ethyl 3-(chlorocarbonyl)propanoate", "3-(Ethoxycarbonyl)propanoyl chloride", "Ethyl 4-chloro-4-oxobutanoate", "Succinic acid ethyl ester chloride", "3-(Ethoxycarbonyl)propionyl chloride", "Monoethyl succinoyl chloride", "Ethyl succinoyl monochloride", "Ethyl 4-chloro-4-oxobutyrate", "4-Ethoxy-4-oxobutanoic acid chloride", "3-Chlorocarbonylpropionic acid ethyl ester", "Ethyl 3-chlorocarbonylpropionate", "Succinic acid monoethyl chloride", "4-Chloro-4-oxobutanoic acid ethyl ester", "Succinic acid chloride monoethyl ester"], "SMILES": "C(CCC(Cl)=O)(OCC)=O", "physical_data": {"Molecular Weight": "164.59", "Molecular Formula": "C6H9ClO3", "Boiling Point": "94-95 \u00b0C @ Press: 14 Torr"}}