{"cas_no": "14799-82-7", "cn_name": "(\u73af\u4e19\u57fa\u7532\u57fa)\u4e09\u82ef\u57fa\u6eb4\u5316\u81a6", "en_name": ["Phosphonium, (cyclopropylmethyl)triphenyl-, bromide (1:1)", "Phosphonium, (cyclopropylmethyl)triphenyl-, bromide (1:1)", "Phosphonium, (cyclopropylmethyl)triphenyl-, bromide", "(Cyclopropylmethyl)triphenylphosphonium bromide"], "SMILES": "[P+](CC1CC1)(C2=CC=CC=C2)(C3=CC=CC=C3)C4=CC=CC=C4.[Br-]", "physical_data": {"Molecular Weight": "", "Molecular Formula": "C22H22P.Br", "Melting Point": "175-177 \u00b0C"}}