{"cas_no": "14799-94-1", "cn_name": "\u5df1\u57fa\u7532\u57fa\u4e8c\u6c2f\u7845\u70f7", "en_name": ["Dichlorohexylmethylsilane", "Silane, dichlorohexylmethyl-", "Dichlorohexylmethylsilane", "Hexylmethyldichlorosilane", "2,2-Dichloro-2-silaoctane", "n-Hexyldichloromethylsilane"], "SMILES": "C(C[Si](C)(Cl)Cl)CCCC", "physical_data": {"Molecular Weight": "199.19", "Molecular Formula": "C7H16Cl2Si", "Boiling Point": "204-206 \u00b0C", "Density": "0.993 g/cm\u00b3"}}