{"cas_no": "14799-93-0", "cn_name": "\u4e8c\u6c2f\u7532\u57fa\u8f9b\u57fa\u7532\u7845\u70f7", "en_name": ["Dichloromethyloctylsilane", "Silane, dichloromethyloctyl-", "Dichloromethyloctylsilane", "(Dichloromethylsilyl)octane", "Methyl(octyl)dichlorosilane", "SIO 6712"], "SMILES": "C(CCCCCCC)[Si](C)(Cl)Cl", "physical_data": {"Molecular Weight": "227.25", "Molecular Formula": "C9H20Cl2Si", "Boiling Point": "100-116 \u00b0C @ Press: 20 Torr", "Density": "0.984 g/cm\u00b3 @ Temp: 20 \u00b0C"}}