{"cas_no": "1479-58-9", "cn_name": "2-\u6c28\u57fa-5-\u6eb4-2'-\u6c1f\u4e8c\u82ef\u7532\u916e", "en_name": ["(2-Amino-5-bromophenyl)(2-fluorophenyl)methanone", "Methanone, (2-amino-5-bromophenyl)(2-fluorophenyl)-", "Benzophenone, 2-amino-5-bromo-2\u2032-fluoro-", "(2-Amino-5-bromophenyl)(2-fluorophenyl)methanone", "2-Amino-5-bromo-2\u2032-fluorobenzophenone", "2-Amino-2\u2032-fluoro-5-bromobenzophenone"], "SMILES": "C(=O)(C1=C(N)C=CC(Br)=C1)C2=C(F)C=CC=C2", "physical_data": {"Molecular Weight": "294.12", "Molecular Formula": "C13H9BrFNO", "Melting Point": "101-102 \u00b0C"}}