{"cas_no": "148-87-8", "cn_name": "N-\u4e59\u57fa-N-\u6c30\u4e59\u57fa\u82ef\u80fa", "en_name": ["3-(Ethylphenylamino)propanenitrile", "Propanenitrile, 3-(ethylphenylamino)-", "Propionitrile, 3-(N-ethylanilino)-", "3-(Ethylphenylamino)propanenitrile", "3-(N-Ethylanilino)propionitrile", "N-Ethyl-N-(\u03b2-cyanoethyl)aniline", "N-\u03b2-Cyanoethyl-N-ethylaniline", "N-Ethyl-N-(2-cyanoethyl)aniline", "N-\u03b2-Cyanoethyl-N-ethylaminobenzene", "N-(2-Cyanoethyl)-N-ethylaniline", "3-(Ethylphenylamino)propionitrile", "NSC 81243", "3-[Ethyl(phenyl)amino]propanenitrile"], "SMILES": "N(CCC#N)(CC)C1=CC=CC=C1", "physical_data": {"Molecular Weight": "174.24", "Molecular Formula": "C11H14N2", "Boiling Point": "175-177 \u00b0C @ Press: 17 Torr", "Density": "1.0260 g/cm\u00b3 @ Temp: 20 \u00b0C"}}