{"cas_no": "148-79-8", "cn_name": "\u567b\u83cc\u7075", "en_name": ["Thiabendazole", "1H-Benzimidazole, 2-(4-thiazolyl)-", "Benzimidazole, 2-(4-thiazolyl)-", "2-(4-Thiazolyl)-1H-benzimidazole", "MK 360", "Mintezol", "Thiabendazole", "Thiabenzole", "2-(4-Thiazolyl)benzimidazole", "TBZ 60W", "Mertect 160", "Mertect", "TBZ", "Thiabendazol", "Tecto", "Thibenzol", "2-(4\u2032-Thiazolyl)benzimidazole", "Equizole", "Tecto 60", "Mintesol", "Thibenzole", "Thibenzole 200", "Tiabendazol", "Tiabendazole", "Minzolum", "Triasox", "Omnizole", "Tiabenda", "Metasol TK 100", "Tebuzate", "TBZ 6", "Tecto 40F", "Tecto 10P", "Tibimix 20", "Thibendole", "Thiabendole", "Sistesan", "Sanaizol 100", "MSD 18", "Chemviron TK 100", "Tecto B", "5-(4-Thiazolyl)benzimidazole", "G 491", "Storite", "Ormogal", "Cropasal", "Mertect 340F", "Tectab", "Tecta", "Pitrizet", "Mertect LSP", "Hokkustar HP", "Hokustar HP", "Syntol M 100", "Drawipas", "TBZ (fungicide)", "2-(4\u2032-Thiazoyl)benzimidazole", "2-(4-Thiazolyl)-1H-benzoimidazole", "Amolden HS", "2-(4-Triazolyl)benzimidazole", "Bovizole", "Lombristop", "Polival", "Top Form Wormer", "Thiaben", "Eprofil", "Nemapan", "Sanaizol TBZ-FL 25", "NSC 525040", "NSC 90507", "Marukacide M 101", "2-(1,3-Thiazol-4-yl)-1H-benzimidazole", "Metasol TK 25AD", "TK 25AD", "Irgaguard F 3000", "Metasol TK 25", "4-(1H-Benzimidazol-2-yl)thiazole", "Metasol TK 50AD", "2-(4-Thiazoyl)benzimidazole", "Biogard TBH", "2-(1,3-Thiazol-4-yl)benzimidazole", "2-(1,3-Thiazol-4-yl)-1H-1,3-benzodiazole", "Neo-Sintol AF 75", "MeSH ID: D013827"], "SMILES": "C=1(NC=2C(N1)=CC=CC2)C3=CSC=N3", "physical_data": {"Molecular Weight": "201.25", "Molecular Formula": "C10H7N3S", "Melting Point": "304-305 \u00b0C"}}