{"cas_no": "148-18-5", "cn_name": "\u4e8c\u4e59\u57fa\u4e8c\u786b\u4ee3\u6c28\u57fa\u7532\u9178\u94a0", "en_name": ["Sodium diethyldithiocarbamate", "Carbamodithioic acid, N,N-diethyl-, sodium salt (1:1)", "Carbamic acid, diethyldithio-, sodium salt", "Carbamodithioic acid, diethyl-, sodium salt", "Sodium DEDT", "Sodium N,N-diethyldithiocarbamate", "Sodium diethyldithiocarbamate", "DEDC", "Dithiocarb", "Diethyldithiocarbamic acid sodium salt", "N,N-Diethyldithiocarbamic acid, sodium salt", "Sodium diethylaminocarbodithioate", "Thiocarb", "Cupral", "Imuthiol", "Soxinol ESL", "Kupral", "Ditiocarb sodium", "Sodium diethylaminocarbodithiolate", "Na-DDTC", "Nocceler SDC", "DDTC", "DDC", "DeDTC", "DTC", "Dithiocarb sodium", "SDDTC", "Aquamet E", "Diethyl dithiocarbamate sodium salt"], "SMILES": "N(C(=S)S)(CC)CC.[Na]", "physical_data": {"Molecular Weight": "", "Molecular Formula": "C5H11NS2.Na", "Melting Point": "94-96 \u00b0C", "Density": "1.1 g/cm\u00b3 @ Temp: 20 \u00b0C"}}