{"cas_no": "148-86-7", "cn_name": "4-\u4e59\u9170\u6c27\u57fa\u8054\u82ef", "en_name": ["[1,1\u2032-Biphenyl]-4-ol, 4-acetate", "[1,1\u2032-Biphenyl]-4-ol, 4-acetate", "4-Biphenylol, acetate", "[1,1\u2032-Biphenyl]-4-ol, acetate", "Phenol, p-phenyl-, acetate", "p-Phenylphenyl acetate", "4-Acetoxybiphenyl", "4-Biphenylyl acetate", "p-Biphenol acetate", "[1,1\u2032-Biphenyl]-4-yl acetate", "p-Phenylphenol acetate", "NSC 404087", "4-Acetoxy-1,1\u2032-biphenyl", "(4-Phenylphenyl) acetate"], "SMILES": "O(C(C)=O)C1=CC=C(C=C1)C2=CC=CC=C2", "physical_data": {"Molecular Weight": "212.24", "Molecular Formula": "C14H12O2", "Melting Point": "89 \u00b0C"}}