{"cas_no": "148-01-6", "cn_name": "\u4e8c\u785d\u6258\u80fa", "en_name": ["Dinitolmide", "Benzamide, 2-methyl-3,5-dinitro-", "o-Toluamide, 3,5-dinitro-", "2-Methyl-3,5-dinitrobenzamide", "3,5-Dinitro-o-toluamide", "Zoalene", "Coccidine A", "Zoamix", "Coccidot", "Dinitolmide", "3,5-Dinitro-2-methylbenzamide", "Salcostat", "Coccidin", "Dinitrotoluamide", "MeSH ID: D004135"], "SMILES": "C(N)(=O)C1=C(C)C(N(=O)=O)=CC(N(=O)=O)=C1", "physical_data": {"Molecular Weight": "225.16", "Molecular Formula": "C8H7N3O5", "Melting Point": "181 \u00b0C"}}