{"cas_no": "148-24-3", "cn_name": "8-\u7f9f\u57fa\u55b9\u5549", "en_name": ["8-Hydroxyquinoline", "8-Quinolinol", "8-OQ", "8-Hydroxyquinoline", "Oxin", "Oxine", "Oxychinolin", "8-Oxyquinoline", "Tumex", "8-Quinol", "Oxyquinoline", "Phenopyridine", "Quinophenol", "8-Hydroxychinolin", "1-Azanaphthalene-8-ol", "Fennosan H 30", "Albisal", "Oxoquinoline", "NSC 2039", "NSC 285166", "NSC 402623", "NSC 48037", "NSC 54230", "NSC 615011", "NSC 82404", "NSC 82405", "NSC 82409", "NSC 82410", "NSC 82412", "AQ+"], "SMILES": "OC=1C2=C(C=CC1)C=CC=N2", "physical_data": {"Molecular Weight": "145.16", "Molecular Formula": "C9H7NO", "Boiling Point": "~267 \u00b0C (approx)", "Melting Point": "73-75 \u00b0C", "Density": "1.034 g/cm\u00b3 @ Temp: 20 \u00b0C"}}