{"cas_no": "148-53-8", "cn_name": "\u90bb\u9999\u8349\u919b", "en_name": ["o-Vanillin", "Benzaldehyde, 2-hydroxy-3-methoxy-", "m-Anisaldehyde, 2-hydroxy-", "o-Vanillin", "2-Hydroxy-3-methoxybenzaldehyde", "6-Formylguaiacol", "3-Methoxy-2-hydroxybenzaldehyde", "3-Methoxysalicylaldehyde", "6-Formyl-2-methoxyphenol", "2-Hydroxy-m-anisaldehyde", "NC 005", "2-Vanillin", "NSC 2150", "2-Hydroxyl-3-methoxybenzaldehyde", "o-Vaniline"], "SMILES": "C(=O)C1=C(O)C(OC)=CC=C1", "physical_data": {"Molecular Weight": "152.15", "Molecular Formula": "C8H8O3", "Boiling Point": "265.5 \u00b0C", "Melting Point": "44.5 \u00b0C", "Density": "1.2065 g/cm\u00b3 @ Temp: 50.6 \u00b0C"}}