{"cas_no": "148-51-6", "cn_name": "4-\u8131\u6c27\u5421\u54c6\u9187\u76d0\u9178\u76d0", "en_name": ["3-Pyridinemethanol, 5-hydroxy-4,6-dimethyl-, hydrochloride (1:1)", "3-Pyridinemethanol, 5-hydroxy-4,6-dimethyl-, hydrochloride (1:1)", "3-Pyridinemethanol, 5-hydroxy-4,6-dimethyl-, hydrochloride", "4-Deoxypyridoxine hydrochloride", "4-Desoxyadermin hydrochloride", "2,4-Dimethyl-3-hydroxy-5-hydroxymethylpyridine hydrochloride", "5-Hydroxy-4,6-dimethyl-3-pyridinemethanol hydrochloride", "3-Hydroxy-5-hydroxymethyl-2,4-dimethylpyridine hydrochloride", "4-Deoxypyridoxol hydrochloride", "4-Desoxypyridoxine hydrochloride", "5-Hydroxymethyl-2,4-dimethylpyridin-3-ol hydrochloride"], "SMILES": "C(O)C=1C(C)=C(O)C(C)=NC1.Cl", "physical_data": {"Molecular Weight": "", "Molecular Formula": "C8H11NO2.ClH", "Melting Point": "254 \u00b0C"}}