{"cas_no": "148-03-8", "cn_name": "\u03b2-\u751f\u80b2\u915a", "en_name": ["\u03b2-Tocopherol", "2H-1-Benzopyran-6-ol, 3,4-dihydro-2,5,8-trimethyl-2-[(4R,8R)-4,8,12-trimethyltridecyl]-, (2R)-rel-", "6-Chromanol, 2,5,8-trimethyl-2-(4,8,12-trimethyltridecyl)-", "2H-1-Benzopyran-6-ol, 3,4-dihydro-2,5,8-trimethyl-2-(4,8,12-trimethyltridecyl)-, [2R*(4R*,8R*)]-", "rel-(2R)-3,4-Dihydro-2,5,8-trimethyl-2-[(4R,8R)-4,8,12-trimethyltridecyl]-2H-1-benzopyran-6-ol", "Cumotocopherol", "5,8-Dimethyltocol", "Neotocopherol", "\u03b2-Tocopherol", "2,5,8-Trimethyl-2-(4,8,12-trimethyltridecyl)-6-chromanol", "p-Xylotocopherol", "dl-\u03b2-Tocopherol", "DL-\u03b2-Tocopherol"], "SMILES": "CC1=C2C(CCC(CCCC(CCCC(CCCC(C)C)C)C)(C)O2)=C(C)C(O)=C1", "physical_data": {"Molecular Weight": "416.68", "Molecular Formula": "C28H48O2", "Boiling Point": "205 \u00b0C", "Melting Point": "&lt;25 \u00b0C"}}