{"cas_no": "148-72-1", "cn_name": "\u785d\u9178\u6bdb\u679c\u82b8\u9999\u78b1", "en_name": ["Pilocarpine nitrate", "2(3H)-Furanone, 3-ethyldihydro-4-[(1-methyl-1H-imidazol-5-yl)methyl]-, (3S,4R)-, nitrate (1:1)", "Pilocarpine, mononitrate", "2(3H)-Furanone, 3-ethyldihydro-4-[(1-methyl-1H-imidazol-5-yl)methyl]-, (3S-cis)-, mononitrate", "2(3H)-Furanone, 3-ethyldihydro-4-[(1-methyl-1H-imidazol-5-yl)methyl]-, (3S,4R)-, mononitrate", "Pilocarpine nitrate", "Pilocarpine subnitrate", "Pilagan", "(+)-Pilocarpine nitrate"], "SMILES": "C(C1C(CC)C(=O)OC1)C=2N(C)C=NC2.N(=O)(=O)O", "physical_data": {"Molecular Weight": "", "Molecular Formula": "C11H16N2O2.HNO3", "Melting Point": "178 \u00b0C"}}