{"cas_no": "148-82-3", "cn_name": "\u7f8e\u6cd5\u4ed1", "en_name": ["Melphalan", "L-Phenylalanine, 4-[bis(2-chloroethyl)amino]-", "Alanine, 3-[p-[bis(2-chloroethyl)amino]phenyl]-, L-", "4-[Bis(2-chloroethyl)amino]-L-phenylalanine", "CB 3025", "NSC 8806", "Alkeran", "Melphalan", "L-Sarcolysin", "L-Sarkolysin", "L-Sarcolysine", "L-Phenylalanine mustard", "Phenylalanine mustard", "3025CB", "L-PAM", "Levofalan", "Levofolan", "Levopholan", "Alanine nitrogen mustard", "Melfalan", "Sarcoclorin", "L-Phenylalanine mustard hydrochloride", "NSC 241286", "67: PN: WO2010011890 PAGE: 37 claimed protein", "MeSH ID: D008558"], "SMILES": "N(CCCl)(CCCl)C1=CC=C(CC(C(O)=O)N)C=C1", "physical_data": {"Molecular Weight": "305.20", "Molecular Formula": "C13H18Cl2N2O2", "Melting Point": "182-183 \u00b0C (decomp)"}}