{"cas_no": "1480-96-2", "cn_name": "2-\u7532\u6c27\u57fa-5-\u6c1f\u5c3f\u5627\u5576", "en_name": ["5-Fluoro-2-methoxy-4(3H)-pyrimidinone", "4(3H)-Pyrimidinone, 5-fluoro-2-methoxy-", "4(1H)-Pyrimidinone, 5-fluoro-2-methoxy-", "5-Fluoro-2-methoxy-4(3H)-pyrimidinone", "NSC 527067", "5-Fluoro-4-hydroxy-2-methoxypyrimidine", "2-Methoxy-4-hydroxy-5-fluoropyrimidine"], "SMILES": "O(C)C=1NC(=O)C(F)=CN1", "physical_data": {"Molecular Weight": "144.10", "Molecular Formula": "C5H5FN2O2", "Melting Point": "206-207 \u00b0C"}}