{"cas_no": "1480-19-9", "cn_name": "\u6c1f\u963f\u5c3c\u916e", "en_name": ["Fluanisone", "1-Butanone, 1-(4-fluorophenyl)-4-[4-(2-methoxyphenyl)-1-piperazinyl]-", "Butyrophenone, 4\u2032-fluoro-4-[4-(o-methoxyphenyl)-1-piperazinyl]-", "1-(4-Fluorophenyl)-4-[4-(2-methoxyphenyl)-1-piperazinyl]-1-butanone", "R 2028", "R 2167", "Fluanisone", "4\u2032-Fluoro-4-[4-(o-methoxyphenyl)-1-piperazinyl]butyrophenone", "Haloanisone", "4-[4-(o-Methoxyphenyl)-1-piperazinyl]-p-fluorobutyrophenone", "Sedalande", "Fluanison", "p-Fluoro-\u03b3-[4-(o-methoxyphenyl)-1-piperazinyl]butyrophenone", "\u03b3-(4-o-Methoxyphenylpiperazino)-4-fluorobutyrophenone", "Anti-Pica", "Haloanison", "2028 MD", "MD 2028", "NSC 170977"], "SMILES": "O(C)C1=C(C=CC=C1)N2CCN(CCCC(=O)C3=CC=C(F)C=C3)CC2", "physical_data": {"Molecular Weight": "356.43", "Molecular Formula": "C21H25FN2O2", "Melting Point": "68 \u00b0C"}}