{"cas_no": "14804-31-0", "cn_name": "2-\u7532\u57fa-4-\u6eb4\u82ef\u7532\u919a", "en_name": ["4-Bromo-2-methylanisole", "Benzene, 4-bromo-1-methoxy-2-methyl-", "Anisole, 4-bromo-2-methyl-", "4-Bromo-1-methoxy-2-methylbenzene", "2-Methoxy-5-bromotoluene", "5-Bromo-2-methoxytoluene", "4-Bromo-2-methylanisole", "1-Bromo-4-methoxy-3-methylbenzene", "1-Methoxy-2-methyl-4-bromobenzene", "1-Bromo-3-methyl-4-methoxybenzene"], "SMILES": "O(C)C1=C(C)C=C(Br)C=C1", "physical_data": {"Molecular Weight": "201.06", "Molecular Formula": "C8H9BrO", "Boiling Point": "126-128 \u00b0C @ Press: 10 Torr", "Melting Point": "67.5-68.5 \u00b0C"}}