{"cas_no": "14806-50-9", "cn_name": "\u7898\u5316-3,3\u02ca-\u4e8c\u4e59\u57fa\u6c27\u6742\u4e8c\u7fb0\u82b1\u9752", "en_name": ["3,3\u2032-Diethyloxadicarbocyanine iodide", "Benzoxazolium, 3-ethyl-2-[5-(3-ethyl-2(3H)-benzoxazolylidene)-1,3-pentadien-1-yl]-, iodide (1:1)", "Benzoxazolium, 3-ethyl-2-[5-(3-ethyl-2-benzoxazolinylidene)-1,3-pentadienyl]-, iodide", "Benzoxazolium, 3-ethyl-2-[5-(3-ethyl-2(3H)-benzoxazolylidene)-1,3-pentadienyl]-, iodide", "3-Ethyl-2-[5-(3-ethyl-2-benzoxazolinylidene)-1,3-pentadienyl]benzoxazolium iodide", "DODCI", "Eastman 11219", "3,3\u2032-Diethyloxadicarbocyanine iodide", "3,3\u2032-Diethyl-2,2\u2032-oxadicarbocyanine iodide", "NK 1533"], "SMILES": "C(C)N1C=2C(OC1=CC=CC=CC3=[N+](CC)C=4C(O3)=CC=CC4)=CC=CC2.[I-]", "physical_data": {"Molecular Weight": "", "Molecular Formula": "C23H23N2O2.I", "Melting Point": "232 \u00b0C (decomp)"}}