{"cas_no": "1480-91-7", "cn_name": "4-PYRIMIDINOL, 5-FLUORO-2-METHYL- (7CI,8CI)", "en_name": ["5-Fluoro-2-methyl-4(3H)-pyrimidinone", "4(3H)-Pyrimidinone, 5-fluoro-2-methyl-", "4-Pyrimidinol, 5-fluoro-2-methyl-", "4(1H)-Pyrimidinone, 5-fluoro-2-methyl-", "5-Fluoro-2-methyl-4(3H)-pyrimidinone", "5-Fluoro-2-methylpyrimidin-4(3H)-one"], "SMILES": "O=C1C(F)=CN=C(C)N1", "physical_data": {"Molecular Weight": "128.10", "Molecular Formula": "C5H5FN2O", "Melting Point": "215-217 \u00b0C"}}