{"cas_no": "14807-75-1", "cn_name": "\u4e8c\u786b\u5316\u7532\u8112\u4e8c\u76d0\u9178\u76d0", "en_name": ["Thioperoxydicarbonimidic diamide ([(H2N)C(NH)]2S2), hydrochloride (1:2)", "Thioperoxydicarbonimidic diamide ([(H2N)C(NH)]2S2), hydrochloride (1:2)", "Formamidine, 1,1\u2032-dithiodi-, dihydrochloride", "Thioperoxydicarbonimidic diamide ([(H2N)C(NH)]2S2), dihydrochloride", "1,1\u2032-Dithiodiformamidine hydrochloride", "Formamidine disulfide dihydrochloride", "Dithioformamidine dihydrochloride", "Diformamidine disulfide dihydrochloride", "\u03b1,\u03b1\u2032-Dithiobisformamidinium dichloride", "C,C\u2032-Dithiodiformamidinium dichloride", "Dithiobis[diaminomethylcarbonium chloride]"], "SMILES": "S(SC(=N)N)C(=N)N.Cl", "physical_data": {"Molecular Weight": "", "Molecular Formula": "C2H6N4S2.2ClH", "Melting Point": "173-174 \u00b0C (decomp)"}}