{"cas_no": "14804-39-8", "cn_name": "2,6-\u4e8c\u7532\u57fa-4-\u785d\u57fa\u82ef\u7532\u919a", "en_name": ["2-Methoxy-1,3-dimethyl-5-nitrobenzene", "Benzene, 2-methoxy-1,3-dimethyl-5-nitro-", "Anisole, 2,6-dimethyl-4-nitro-", "2-Methoxy-1,3-dimethyl-5-nitrobenzene", "4-Methoxy-3,5-dimethylnitrobenzene", "3,5-Dimethyl-4-methoxynitrobenzene", "2,6-Dimethyl-4-nitroanisole"], "SMILES": "O(C)C1=C(C)C=C(N(=O)=O)C=C1C", "physical_data": {"Molecular Weight": "181.19", "Molecular Formula": "C9H11NO3", "Melting Point": "92 \u00b0C"}}