{"cas_no": "14808-60-7", "cn_name": "\u4e8c\u6c27\u5316\u7845", "en_name": ["Quartz (SiO2)", "Quartz (SiO2)", "Quartz", "Marshalite", "Rock crystal", "Siderite (SiO2)", "Sikron H 600", "Plastorit", "DQ 12", "\u03b1-Quartz", "TGL 16319", "Sikron H 200", "Tiger-eye", "Aventurine (quartz)", "Aventurine", "Crystalite AA", "SF 35", "Crystalite A 1", "Crystalite VX-S 2", "Crystalite A 2", "Crystalite C", "Crystalite CRS", "CRS 1101-17", "Crystalite 5K", "Sikron F 100", "Crystalite SS", "Sikron H 500", "W 12", "HHH", "Sifraco C 600", "Sikron F 600", "Sikron 3000", "Inducarb 0.5-1", "Millisil W 6", "Sikron SF 300", "Millisil W 6EST", "Crystalite VX-X", "Silbond FW 600EST", "Silbond VP 810-10/1EST", "LAD", "M 10", "Sikron SF 6000", "Sifraco C 10", "Crystalite VX-S", "M 4", "M 4 (quartz)", "Millisil W 12", "Silcron F 600", "LAD (mineral)", "Sircon 200", "1FX", "E 600", "E 600 (quartz)", "SP 3 (quartz)", "SP 3", "CMC 12S", "Mikrosil SP 3", "Mikrosil SP 10", "Mikrosil LM 300", "Silverbond 325", "Iota 6", "Sikron SF 600", "LM 300", "EQ 906", "Sibelco M 10", "Silverbond 200", "IOTA 4", "KP 3", "KP 3 (quartz)", "Sikron 500", "Sikron 600", "Sikron SF 800", "Millisil W 3", "Crystalite 5X", "Crystalite VX-SR", "Sikron SF 500", "VX-S 2", "Millisil W 4", "Silbond W 12MST", "SF 800", "Sikron B 600", "Q 800", "Silverbond 702", "Glassfine CUS 10", "TTM 100", "Microdorsilite", "Microdorsilite 405", "Microdorsillite", "Alsigran Micro 5", "NIM-PH 3000", "FT 403", "Ekosil-melur 3", "Dorsilit 10000Mipur", "Sikron M 500", "Sikron M 600", "AFS 100", "Dorsimix 100", "Crystalite VX 52", "Silicic SAB 500", "Millisil W 10", "QT 1250", "DPA", "Crystalite CMC 12S", "SQCBC 02-3", "EAZ 10", "KMP-A", "Sikron M 300", "Millisil W 5", "Dorsilit 2500", "Silverbond 20", "Sibelco 903", "Sibelco 915", "Sibelco 925", "TL 1250", "SJR 20", "Hi-Silica", "CC 8810", "Weichen A 3", "A 3", "Sikron E 600", "W 12MST", "Sibelco 708", "Sikron B 300", "HG 001", "Min-u-sil 5M", "HG 001 (mineral)", "Silverbond S 4", "Silver BM 500", "Siliver Bond 904", "Silverbond 615", "DRG 2500", "JY 10-200", "MeSH ID: D011791"], "SMILES": "[Si](=O)=O", "physical_data": {"Molecular Weight": "60.08", "Molecular Formula": "O2Si", "Boiling Point": "2230 \u00b0C", "Melting Point": "1610 \u00b0C", "Density": "2.6 g/cm\u00b3"}}