{"cas_no": "14814-09-6", "cn_name": "3-\u5def\u4e19\u57fa\u4e09\u4e59\u6c27\u57fa\u7845\u70f7", "en_name": ["(3-Mercaptopropyl)triethoxysilane", "1-Propanethiol, 3-(triethoxysilyl)-", "3-(Triethoxysilyl)-1-propanethiol", "(\u03b3-Mercaptopropyl)triethoxysilane", "3-(Triethoxysilyl)propyl mercaptan", "(3-Mercaptopropyl)triethoxysilane", "Triethoxy(3-mercaptopropyl)silane", "Dynasylan 3201", "Silquest A 1891", "A 1891", "VP-Si 263", "HD 113", "KH 580", "Si 263", "DB 580", "MPTES", "(3-Thiopropyl)triethoxysilane", "LMD 81", "JH-S 1891", "Z 6910", "M 1505", "SiSiB PC 2310", "CG-S 323"], "SMILES": "[Si](CCCS)(OCC)(OCC)OCC", "physical_data": {"Molecular Weight": "238.42", "Molecular Formula": "C9H22O3SSi", "Boiling Point": "210 \u00b0C", "Density": "0.932 g/cm\u00b3"}}