{"cas_no": "14815-87-3", "cn_name": "4-\u4e09\u6c2f\u7532\u57fa\u82ef\u7532\u9178\u7532\u916f", "en_name": ["Benzoic acid, 4-(trichloromethyl)-, methyl ester", "Benzoic acid, 4-(trichloromethyl)-, methyl ester", "p-Toluic acid, \u03b1,\u03b1,\u03b1-trichloro-, methyl ester", "4-(Trichloromethyl)benzoic acid methyl ester", "Methyl p-(trichloromethyl)benzoate", "p-(Methoxycarbonyl)benzotrichloride", "Methyl 4-trichloromethylbenzoate"], "SMILES": "C(Cl)(Cl)(Cl)C1=CC=C(C(OC)=O)C=C1", "physical_data": {"Molecular Weight": "253.51", "Molecular Formula": "C9H7Cl3O2", "Melting Point": "49.5 \u00b0C"}}