{"cas_no": "1481-41-0", "cn_name": "\u6c2f\u4e8c\u7532\u57fa-3,3,3-\u6c1f\u4e19\u57fa\u7845\u70f7", "en_name": ["3,3,3-Trifluoropropyldimethylchlorosilane", "Silane, chlorodimethyl(3,3,3-trifluoropropyl)-", "Chlorodimethyl(3,3,3-trifluoropropyl)silane", "3,3,3-Trifluoropropyldimethylchlorosilane", "(3,3,3-Trifluoropropyl)dimethylsilyl chloride"], "SMILES": "C(C[Si](C)(C)Cl)C(F)(F)F", "physical_data": {"Molecular Weight": "190.67", "Molecular Formula": "C5H10ClF3Si", "Boiling Point": "118 \u00b0C", "Density": "1.113 g/cm\u00b3"}}