{"cas_no": "14816-18-3", "cn_name": "\u8f9b\u786b\u78f7", "en_name": ["Phoxim", "Phosphorothioic acid, O-[(cyanophenylmethylene)azanyl] O,O-diethyl ester", "Glyoxylonitrile, phenyl-, oxime O,O-diethyl phosphorothioate", "3,5-Dioxa-6-aza-4-phosphaoct-6-ene-8-nitrile, 4-ethoxy-7-phenyl-, 4-sulfide", "Phosphorothioic acid, O,O-diethyl ester, O-[(\u03b1-cyanobenzylidene)amino] deriv.", "BAY 77488", "Bayer 77488", "Phenylglyoxylonitrile oxime O,O-diethyl phosphorothioate", "B 77488", "Phoxim", "Baythion", "Benzoyl cyanide O-(diethoxyphosphinothioyl)oxime", "Valexon", "Volaton", "BAY 5621", "Bayer 5621", "O,O-Diethyl O-(\u03b1-cyanobenzylideneamino) phosphorothioate", "Folaton", "Volaton bjdse 20", "Tomiguard PE 50", "Basileum SI", "Basileum SI 84EC", "Xylasan VL", "Basileum SI 84", "Sebacil", "Toyothion", "Jiubaojing"], "SMILES": "P(ON=C(C#N)C1=CC=CC=C1)(OCC)(OCC)=S", "physical_data": {"Molecular Weight": "298.30", "Molecular Formula": "C12H15N2O3PS", "Boiling Point": "102 \u00b0C", "Melting Point": "6.1 \u00b0C", "Density": "1.76 g/cm\u00b3 @ Temp: 20 \u00b0C"}}