{"cas_no": "1481-27-2", "cn_name": "4-\u6c1f-2-\u7f9f\u57fa\u82ef\u4e59\u916e", "en_name": ["1-(4-Fluoro-2-hydroxyphenyl)ethanone", "Ethanone, 1-(4-fluoro-2-hydroxyphenyl)-", "Acetophenone, 4\u2032-fluoro-2\u2032-hydroxy-", "1-(4-Fluoro-2-hydroxyphenyl)ethanone", "2-Hydroxy-4-fluoroacetophenone", "4\u2032-Fluoro-2\u2032-hydroxyacetophenone", "4-Fluoro-2-hydroxyacetophenone", "1-(2-Hydroxy-4-fluorophenyl)ethanone", "2-Acetyl-5-fluorophenol", "2\u2032-Hydroxy-4\u2032-fluorophenyl methyl ketone", "1-(4-Fluoro-2-hydroxyphenyl)ethan-1-one"], "SMILES": "C(C)(=O)C1=C(O)C=C(F)C=C1", "physical_data": {"Molecular Weight": "154.14", "Molecular Formula": "C8H7FO2", "Melting Point": "24 \u00b0C"}}