{"cas_no": "1481-93-2", "cn_name": "4-\u4e8c\u4e59\u9170\u9187", "en_name": ["4-Chromanol", "2H-1-Benzopyran-4-ol, 3,4-dihydro-", "4-Chromanol", "3,4-Dihydro-2H-1-benzopyran-4-ol", "4-Hydroxychroman", "4-Hydroxy-3,4-dihydro-2H-1-benzopyran", "3,4-dihydro-2H-1-benzopyran-4-ol", "3,4-Dihydro-2H-chromen-4-ol"], "SMILES": "OC1C=2C(OCC1)=CC=CC2", "physical_data": {"Molecular Weight": "150.17", "Molecular Formula": "C9H10O2", "Melting Point": "41-42 \u00b0C"}}