{"cas_no": "1481-68-1", "cn_name": "1-\u6c2f-2,4-\u4e8c\u6c1f-5-\u785d\u57fa\u82ef", "en_name": ["1-Chloro-2,4-difluoro-5-nitrobenzene", "Benzene, 1-chloro-2,4-difluoro-5-nitro-", "1-Chloro-2,4-difluoro-5-nitrobenzene", "5-Chloro-2,4-difluoronitrobenzene", "2,4-Difluoro-5-chloronitrobenzene"], "SMILES": "N(=O)(=O)C1=C(F)C=C(F)C(Cl)=C1", "physical_data": {"Molecular Weight": "193.54", "Molecular Formula": "C6H2ClF2NO2", "Boiling Point": "105 \u00b0C @ Press: 15 Torr"}}