{"cas_no": "14811-73-5", "cn_name": "9-\u7532\u9170\u57fa\u58ec\u9178\u7532\u916f", "en_name": ["Methyl 10-oxodecanoate", "Decanoic acid, 10-oxo-, methyl ester", "Sebacaldehydic acid, methyl ester", "Pelargonic acid, \u03b8-formyl-, methyl ester", "Methyl 10-oxodecanoate", "Methyl 9-formylnonanoate", "10-Methoxy-10-oxodecanal"], "SMILES": "C(CCC(OC)=O)CCCCCC=O", "physical_data": {"Molecular Weight": "200.27", "Molecular Formula": "C11H20O3", "Boiling Point": "107 \u00b0C @ Press: 0.3 Torr", "Density": "0.979 g/cm\u00b3 @ Temp: 20 \u00b0C"}}