{"cas_no": "14813-85-5", "cn_name": "1-\u82ef\u57fa-1H-\u82ef\u5e76[D]\u54aa\u5511-2(3H)-\u916e", "en_name": ["1,3-Dihydro-1-phenyl-2H-benzimidazol-2-one", "2H-Benzimidazol-2-one, 1,3-dihydro-1-phenyl-", "2-Benzimidazolinone, 1-phenyl-", "2-Benzimidazolol, 1-phenyl-", "1,3-Dihydro-1-phenyl-2H-benzimidazol-2-one", "1-Phenyl-2(3H)-benzimidazolone", "1-Phenyl-2-benzimidazolinone", "1-Phenyl-1,3-dihydro-2H-benzimidazol-2-one", "1-Phenyl-1H-benzo[d]imidazol-2(3H)-one", "1-Phenyl-1,3-dihydro-benzoimidazol-2-one", "1-Phenyl-2,3-dihydro-1H-1,3-benzodiazol-2-one", "1-Phenyl-1H-benzimidazol-2(3H)-one", "3-Phenyl-1H-benzimidazol-2-one"], "SMILES": "O=C1N(C=2C(N1)=CC=CC2)C3=CC=CC=C3", "physical_data": {"Molecular Weight": "210.23", "Molecular Formula": "C13H10N2O", "Melting Point": "201-202 \u00b0C"}}