{"cas_no": "14813-01-5", "cn_name": "1-\u82c4\u57fa-3-\u54cc\u5576\u9187", "en_name": ["1-Benzyl-3-hydroxypiperidine", "3-Piperidinol, 1-(phenylmethyl)-", "3-Piperidinol, 1-benzyl-", "1-(Phenylmethyl)-3-piperidinol", "1-Benzyl-3-piperidinol", "3-Hydroxy-N-benzylpiperidine", "1-Benzyl-3-hydroxypiperidine", "NSC 111182", "N-Benzyl-3-piperidinol", "N-Benzyl-3-hydroxypiperidine"], "SMILES": "C(N1CC(O)CCC1)C2=CC=CC=C2", "physical_data": {"Molecular Weight": "191.27", "Molecular Formula": "C12H17NO", "Boiling Point": "103-104 \u00b0C @ Press: 0.1 Torr"}}