{"cas_no": "1482-98-0", "cn_name": "L-2 4-DIAMINOBUTYRIC ACID MONOHYDRO-CHLO", "en_name": ["Butanoic acid, 2,4-diamino-, hydrochloride (1:1), (2S)-", "Butanoic acid, 2,4-diamino-, hydrochloride (1:1), (2S)-", "Butyric acid, 2,4-diamino-, monohydrochloride, L-", "Butanoic acid, 2,4-diamino-, monohydrochloride, (S)-", "L-\u03b1,\u03b3-Diaminobutyric acid monohydrochloride", "(S)-2,4-Diaminobutanoic acid monohydrochloride", "(S)-(+)-2,4-Diaminobutyric acid hydrochloride"], "SMILES": "C(CCN)(C(O)=O)N.Cl", "physical_data": {"Molecular Weight": "", "Molecular Formula": "C4H10N2O2.ClH", "Melting Point": "228-230 \u00b0C"}}