{"cas_no": "1482-62-8", "cn_name": "1-(4-\u6c2f\u82ef\u57fa)-3-\u6c30\u57fa\u80cd", "en_name": ["N-(4-Chlorophenyl)-N\u2032-cyanoguanidine", "Guanidine, N-(4-chlorophenyl)-N\u2032-cyano-", "Guanidine, 1-(p-chlorophenyl)-3-cyano-", "N-(4-Chlorophenyl)-N\u2032-cyanoguanidine", "N-(p-Chlorophenyl)dicyandiamide", "p-Chlorophenyldicyandiamide", "p-Chlorophenylcyanoguanidine", "N1-(4-Chlorophenyl)-N3-cyanoguanidine", "1-Cyano-3-(4-chlorophenyl)guanidine", "NSC 74463", "1-(p-Chlorophenyl)-3-cyanoguanidine", "2-(4-Chlorophenyl)-1-cyanoguanidine"], "SMILES": "N(C(NC#N)=N)C1=CC=C(Cl)C=C1", "physical_data": {"Molecular Weight": "194.62", "Molecular Formula": "C8H7ClN4", "Melting Point": "202-204 \u00b0C"}}