{"cas_no": "1483-55-2", "cn_name": "2-\u6eb4-5-\u4e09\u6c1f\u7532\u57fa\u82ef\u8148", "en_name": ["2-Bromo-5-(trifluoromethyl)benzonitrile", "Benzonitrile, 2-bromo-5-(trifluoromethyl)-", "m-Tolunitrile, 6-bromo-\u03b1,\u03b1,\u03b1-trifluoro-", "2-Bromo-5-(trifluoromethyl)benzonitrile", "2-Cyano-4-trifluoromethylbromobenzene"], "SMILES": "C(F)(F)(F)C1=CC(C#N)=C(Br)C=C1", "physical_data": {"Molecular Weight": "250.02", "Molecular Formula": "C8H3BrF3N", "Boiling Point": "107-115 \u00b0C @ Press: 10 Torr", "Melting Point": "50.1 \u00b0C"}}