{"cas_no": "1483-67-6", "cn_name": "2-\u5e9a\u7094\u9178", "en_name": ["2-Heptynoic acid", "2-Heptynoic acid"], "SMILES": "C(#CC(O)=O)CCCC", "physical_data": {"Molecular Weight": "126.15", "Molecular Formula": "C7H10O2", "Boiling Point": "105-106 \u00b0C @ Press: 2.5 Torr", "Melting Point": "64 \u00b0C", "Density": "0.976 g/cm\u00b3 @ Temp: 21 \u00b0C"}}