{"cas_no": "1483-54-1", "cn_name": "2-\u6c28\u57fa-4-\u4e09\u6c1f\u7532\u57fa\u82ef\u8148", "en_name": ["2-Amino-4-(trifluoromethyl)benzonitrile", "Benzonitrile, 2-amino-4-(trifluoromethyl)-", "p-Tolunitrile, 2-amino-\u03b1,\u03b1,\u03b1-trifluoro-", "2-Amino-4-(trifluoromethyl)benzonitrile", "2-Cyano-5-trifluoromethylaniline", "4-(Trifluoromethyl)anthranilonitrile"], "SMILES": "C(F)(F)(F)C1=CC(N)=C(C#N)C=C1", "physical_data": {"Molecular Weight": "186.13", "Molecular Formula": "C8H5F3N2", "Boiling Point": "122-127 \u00b0C @ Press: 7 Torr", "Melting Point": "86-89 \u00b0C"}}