{"cas_no": "1483-07-4", "cn_name": "L-\u8132\u57fa\u4e19\u6c28\u9178", "en_name": ["Albizziin", "L-Alanine, 3-[(aminocarbonyl)amino]-", "Propionic acid, 2-amino-3-ureido-", "Albizziine", "Albizzine", "3-[(Aminocarbonyl)amino]-L-alanine", "L-Albizziine", "Albizzin", "L-2-Amino-3-ureidopropionic acid", "Albizziin", "L-Albizziin", "L-\u03b2-Ureidoalanine", "NSC 132089", "(2S)-2-Azaniumyl-3-(carbamoylamino)propanoate"], "SMILES": "C(CNC(N)=O)(C(O)=O)N", "physical_data": {"Molecular Weight": "147.13", "Molecular Formula": "C4H9N3O3", "Melting Point": "214-215 \u00b0C"}}