{"cas_no": "1483-73-4", "cn_name": "\u4e8c\u82ef\u57fa\u6eb4\u5316\u7898", "en_name": ["Iodonium, diphenyl-, bromide (1:1)", "Iodonium, diphenyl-, bromide (1:1)", "Iodonium, diphenyl-, bromide", "Diphenyliodonium bromide", "NSC 8980", "bromo(diphenyl)-\u03bb 3-iodane"], "SMILES": "[I+](C1=CC=CC=C1)C2=CC=CC=C2.[Br-]", "physical_data": {"Molecular Weight": "", "Molecular Formula": "C12H10I.Br", "Melting Point": "208 \u00b0C (decomp)"}}