{"cas_no": "1483-74-5", "cn_name": "1,1,4,4-\u56db\u82ef\u57fa-2-\u4e01\u7094-1,4-\u4e8c\u9187", "en_name": ["1,1,4,4-Tetraphenyl-2-butyne-1,4-diol", "2-Butyne-1,4-diol, 1,1,4,4-tetraphenyl-", "2-Butyne-1,4-diol, tetraphenyl-", "1,1,4,4-Tetraphenyl-2-butyne-1,4-diol", "\u03b1,\u03b1\u2032-Ethynylenebis[benzhydrol]", "1,1,4,4-Tetraphenyl-1,4-dihydroxy-2-butyne", "NSC 666680", "1,1,4,4-Tetraphenylbut-2-yne-1,4-diol", "1,1,4,4-Tetraphenyl-2-butyn-1,4-diol"], "SMILES": "C(C#CC(O)(C1=CC=CC=C1)C2=CC=CC=C2)(O)(C3=CC=CC=C3)C4=CC=CC=C4", "physical_data": {"Molecular Weight": "390.47", "Molecular Formula": "C28H22O2", "Melting Point": "192 \u00b0C"}}