{"cas_no": "1483-72-3", "cn_name": "\u4e8c\u82ef\u57fa\u7898\u9170\u6c2f", "en_name": ["Diphenyliodonium chloride", "Iodonium, diphenyl-, chloride (1:1)", "Iodonium, diphenyl-, chloride", "Diphenyliodonium chloride", "Chlorodiphenyliodonium", "NSC 134275", "Diphenyliodinium chloride", "DPI"], "SMILES": "[I+](C1=CC=CC=C1)C2=CC=CC=C2.[Cl-]", "physical_data": {"Molecular Weight": "", "Molecular Formula": "C12H10I.Cl", "Melting Point": "228-229 \u00b0C"}}