{"cas_no": "1483-56-3", "cn_name": "2-\u6eb4-5-\u4e09\u6c1f\u7532\u57fa\u82ef\u7532\u9178", "en_name": ["2-Bromo-5-(trifluoromethyl)benzoic acid", "Benzoic acid, 2-bromo-5-(trifluoromethyl)-", "m-Toluic acid, 6-bromo-\u03b1,\u03b1,\u03b1-trifluoro-", "2-Bromo-5-(trifluoromethyl)benzoic acid"], "SMILES": "C(O)(=O)C1=CC(C(F)(F)F)=CC=C1Br", "physical_data": {"Molecular Weight": "269.02", "Molecular Formula": "C8H4BrF3O2", "Melting Point": "116-117 \u00b0C"}}