{"cas_no": "148461-16-9", "cn_name": "(S)-4-\u53d4\u4e01\u57fa-2-[2-(\u4e8c\u82ef\u57fa\u81a6\u57fa)\u82ef\u57fa]-2-\u5641\u5511\u5549", "en_name": ["(S)-t-BuPHOX", "Oxazole, 4-(1,1-dimethylethyl)-2-[2-(diphenylphosphino)phenyl]-4,5-dihydro-, (4S)-", "Oxazole, 4-(1,1-dimethylethyl)-2-[2-(diphenylphosphino)phenyl]-4,5-dihydro-, (S)-", "(4S)-4-(1,1-Dimethylethyl)-2-[2-(diphenylphosphino)phenyl]-4,5-dihydrooxazole", "(S)-4-tert-Butyl-2-[2-(diphenylphosphino)phenyl]-2-oxazoline", "(4S)-4-(1,1-dimethylethyl)-2-[2-(diphenylphosphino)phenyl]-4,5-dihydrooxazole", "(S)-t-BuPHOX", "(4S)-tert-Butyl-2-[2-(diphenylphosphino)phenyl]-4,5-dihydrooxazole", "[2-[(4S)-4-tert-Butyl-4,5-dihydro-1,3-oxazol-2-yl]phenyl]-diphenylphosphane"], "SMILES": "P(C1=C(C=CC=C1)C2=NC(C(C)(C)C)CO2)(C3=CC=CC=C3)C4=CC=CC=C4", "physical_data": {"Molecular Weight": "387.45", "Molecular Formula": "C25H26NOP", "Melting Point": "113-114 \u00b0C"}}