{"cas_no": "1484-84-0", "cn_name": "2-\u54cc\u5576\u4e59\u9187", "en_name": ["2-Piperidineethanol", "2-Piperidineethanol", "2-(2-Hydroxyethyl)piperidine", "2-(2-Piperidinyl)ethanol", "(\u00b1)-2-Piperidineethanol", "NSC 9261", "2-Piperidine-2-yl-ethanol", "2-(Piperidin-2-yl)ethan-1-ol", "2-(2-Piperidyl)ethan-1-ol"], "SMILES": "C(CO)C1CCCCN1", "physical_data": {"Molecular Weight": "129.20", "Molecular Formula": "C7H15NO", "Boiling Point": "202 \u00b0C", "Melting Point": "69 \u00b0C", "Density": "1.0106 g/cm\u00b3 @ Temp: 25 \u00b0C"}}