{"cas_no": "1484-26-0", "cn_name": "3-\u82c4\u6c27\u57fa\u82ef\u80fa", "en_name": ["3-(Benzyloxy)aniline", "Benzenamine, 3-(phenylmethoxy)-", "Aniline, m-(benzyloxy)-", "3-(Phenylmethoxy)benzenamine", "3-(Benzyloxy)aniline", "m-(Benzyloxy)aniline", "3-Aminophenyl benzyl ether", "m-Aminophenyl benzyl ether", "3-(Phenylmethoxy)aniline", "3-(Benzyloxy)phenylamine", "3-(Benzyloxy)benzenamine"], "SMILES": "O(CC1=CC=CC=C1)C2=CC(N)=CC=C2", "physical_data": {"Molecular Weight": "199.25", "Molecular Formula": "C13H13NO", "Boiling Point": "170 \u00b0C @ Press: 3 Torr", "Melting Point": "61-62.5 \u00b0C"}}