{"cas_no": "1484-12-4", "cn_name": "N-\u7532\u57fa\u5494\u5511", "en_name": ["N-Methylcarbazole", "9H-Carbazole, 9-methyl-", "Carbazole, 9-methyl-", "9-Methyl-9H-carbazole", "N-Methylcarbazole", "9-Methylcarbazole", "NSC 121195", "N-Methyl-9H-carbazole"], "SMILES": "CN1C=2C(C=3C1=CC=CC3)=CC=CC2", "physical_data": {"Molecular Weight": "181.23", "Molecular Formula": "C13H11N", "Boiling Point": "196-198 \u00b0C", "Melting Point": "89.34 \u00b0C"}}