{"cas_no": "14847-51-9", "cn_name": "2-\u6eb4-5-\u7532\u57fa\u82ef\u915a", "en_name": ["2-Bromo-5-methylphenol", "Phenol, 2-bromo-5-methyl-", "m-Cresol, 6-bromo-", "2-Bromo-5-methylphenol", "6-Bromo-m-cresol", "6-Bromo-3-methylphenol", "NSC 21719"], "SMILES": "OC1=C(Br)C=CC(C)=C1", "physical_data": {"Molecular Weight": "187.03", "Molecular Formula": "C7H7BrO", "Boiling Point": "206-208 \u00b0C @ Press: 731 Torr", "Melting Point": "62 \u00b0C"}}