{"cas_no": "1484-14-6", "cn_name": "9-\u5494\u5511\u4e59\u9187", "en_name": ["Carbazole-9-ethanol", "9H-Carbazole-9-ethanol", "Carbazole-9-ethanol", "N-(2-Hydroxyethyl)carbazole", "N-(Hydroxyethyl)carbazole", "N-(\u03b2-Hydroxyethyl)carbazole", "9-(2-Hydroxyethyl)carbazole", "2-(9-Carbazolyl)ethanol", "2-(N-Carbazolyl)ethanol", "NSC 21081", "9-(2-Hydroxyethyl)-9H-carbazole", "2-(9H-Carbazol-9-yl)ethanol", "2-(9H-Carbazol-9-yl)ethan-1-ol"], "SMILES": "C(CO)N1C=2C(C=3C1=CC=CC3)=CC=CC2", "physical_data": {"Molecular Weight": "211.26", "Molecular Formula": "C14H13NO", "Boiling Point": "220 \u00b0C @ Press: 5 Torr", "Melting Point": "79.5-80.5 \u00b0C"}}