{"cas_no": "1484-13-5", "cn_name": "N-\u4e59\u70ef\u57fa\u5494\u5511", "en_name": ["N-Vinylcarbazole", "9H-Carbazole, 9-ethenyl-", "Carbazole, 9-vinyl-", "9-Ethenyl-9H-carbazole", "N-Vinylcarbazole", "9-Vinylcarbazole", "N-Ethenylcarbazole", "9-Vinyl-9H-carbazole", "NSC 406868", "P 0656", "V 0021", "HRM-C 01"], "SMILES": "C(=C)N1C=2C(C=3C1=CC=CC3)=CC=CC2", "physical_data": {"Molecular Weight": "193.24", "Molecular Formula": "C14H11N", "Boiling Point": "170-180 \u00b0C @ Press: 15 Torr", "Melting Point": "66 \u00b0C"}}