{"cas_no": "1484-09-9", "cn_name": "9-\u5f02\u4e19\u57fa\u5494\u5511", "en_name": ["N-Isopropylcarbazole", "9H-Carbazole, 9-(1-methylethyl)-", "Carbazole, 9-isopropyl-", "9-(1-Methylethyl)-9H-carbazole", "N-Isopropylcarbazole", "9-Isopropylcarbazole", "9-Isopropyl-9H-carbazole"], "SMILES": "C(C)(C)N1C=2C(C=3C1=CC=CC3)=CC=CC2", "physical_data": {"Molecular Weight": "209.29", "Molecular Formula": "C15H15N", "Boiling Point": "165-167 \u00b0C @ Press: 3-5 Torr", "Melting Point": "121.5-122.5 \u00b0C"}}