{"cas_no": "1484-50-0", "cn_name": "2-\u6eb4-2-\u82ef\u57fa\u4e59\u9170\u82ef", "en_name": ["2-Bromo-1,2-diphenylethanone", "Ethanone, 2-bromo-1,2-diphenyl-", "Acetophenone, 2-bromo-2-phenyl-", "2-Bromo-1,2-diphenylethanone", "2-Bromo-2-phenylacetophenone", "Desyl bromide", "\u03b1-Bromodeoxybenzoin", "\u03b1-Bromobenzyl phenyl ketone", "\u03b1-Bromo-\u03b1-phenylacetophenone", "\u03b1-Phenylphenacyl bromide", "1-Bromo-1,2-diphenyl-2-ethanone", "2-Bromo-1,2-diphenylethan-1-one"], "SMILES": "C(C(=O)C1=CC=CC=C1)(Br)C2=CC=CC=C2", "physical_data": {"Molecular Weight": "275.14", "Molecular Formula": "C14H11BrO", "Melting Point": "63 \u00b0C"}}