{"cas_no": "1484-85-1", "cn_name": "3,4-\u4e9a\u7532\u4e8c\u6c27\u82ef\u4e59\u80fa", "en_name": ["1,3-Benzodioxole-5-ethanamine", "1,3-Benzodioxole-5-ethanamine", "Phenethylamine, 3,4-(methylenedioxy)-", "Homopiperonylamine", "3,4-(Methylenedioxy)phenethylamine", "3,4-(Methylenedioxy)-\u03b2-phenethylamine", "2-(3,4-Methylenedioxyphenyl)ethylamine", "3,4-(Methylenedioxy)phenylethylamine", "[2-(Benzodioxol-5-yl)ethyl]amine", "2-Benzo[1,3]dioxol-5-yl-ethylamine", "2-Benzo[1,3]dioxol-5-ylethanamine", "5-(2-Aminoethyl)benzodioxole", "2-(Benzo[d][1,3]dioxol-5-yl)ethanamine", "5-(2-Aminoethyl)-1,3-benzodioxole", "2-(2H-1,3-Benzodioxol-5-yl)ethan-1-amine", "2-(1,3-Dioxaindan-5-yl)ethan-1-amine"], "SMILES": "C(CN)C=1C=C2C(=CC1)OCO2", "physical_data": {"Molecular Weight": "165.19", "Molecular Formula": "C9H11NO2", "Boiling Point": "166 \u00b0C @ Press: 20 Torr", "Melting Point": "114 \u00b0C"}}