{"cas_no": "1484-80-6", "cn_name": "2-\u4e59\u57fa\u54cc\u5576", "en_name": ["2-Ethylpiperidine", "Piperidine, 2-ethyl-", "2-Ethylpiperidine", "\u03b1-Ethylpiperidine", "NSC 211477"], "SMILES": "C(C)C1CCCCN1", "physical_data": {"Molecular Weight": "113.20", "Molecular Formula": "C7H15N", "Boiling Point": "129-131 \u00b0C"}}