{"cas_no": "1485-92-3", "cn_name": "\u87ba[1,3,3-\u4e09\u7532\u57fa\u5432\u54da-\u82ef\u5e76\u4e8c\u6c22\u5421\u5583]", "en_name": ["1,3,3-Trimethylindolinobenzospiropyran", "Spiro[2H-1-benzopyran-2,2\u2032-[2H]indole], 1\u2032,3\u2032-dihydro-1\u2032,3\u2032,3\u2032-trimethyl-", "Spiro[2H-1-benzopyran-2,2\u2032-indoline], 1\u2032,3\u2032,3\u2032-trimethyl-", "1\u2032,3\u2032-Dihydro-1\u2032,3\u2032,3\u2032-trimethylspiro[2H-1-benzopyran-2,2\u2032-[2H]indole]", "1,3,3-Trimethylbenzoindolinopyranospiran", "1,3,3-Trimethylindolinobenzospiropyran", "1\u2032,3\u2032,3\u2032-Trimethylspiro[2H-1-benzopyran-2,2\u2032-indoline]", "1,3,3-Trimethylindolinobenzopyrylspiran", "NSC 206174", "1\u2032,3\u2032,3\u2032-Trimethyl-1\u2032,3\u2032-dihydrospiro[chromene-2,2\u2032-indole]", "1\u2032,3\u2032,3\u2032-Trimethylspiro[chromene-2,2\u2032-indole]"], "SMILES": "CC1(C)C2(N(C)C=3C1=CC=CC3)OC=4C(C=C2)=CC=CC4", "physical_data": {"Molecular Weight": "277.36", "Molecular Formula": "C19H19NO", "Melting Point": "92 \u00b0C"}}