{"cas_no": "1485-70-7", "cn_name": "n-\u82c4\u57fa\u82ef\u7532\u9170\u80fa", "en_name": ["N-Benzylbenzamide", "Benzamide, N-(phenylmethyl)-", "Benzamide, N-benzyl-", "N-(Phenylmethyl)benzamide", "N-Benzylbenzamide", "N-Benzoylbenzylamine", "Benzoic acid benzylamide", "NSC 31622"], "SMILES": "C(NCC1=CC=CC=C1)(=O)C2=CC=CC=C2", "physical_data": {"Molecular Weight": "211.26", "Molecular Formula": "C14H13NO", "Boiling Point": "104-106 \u00b0C", "Melting Point": "105 \u00b0C"}}