{"cas_no": "148553-50-8", "cn_name": "\u666e\u745e\u5df4\u6797", "en_name": ["Pregabalin", "Hexanoic acid, 3-(aminomethyl)-5-methyl-, (3S)-", "Hexanoic acid, 3-(aminomethyl)-5-methyl-, (S)-", "(3S)-3-(Aminomethyl)-5-methylhexanoic acid", "PD 144723", "CI 1008", "Pregabalin", "Lyrica", "(S)-Pregabalin", "(S)-(+)-3-(Aminomethyl)-5-methylhexanoic acid", "(2S)-3-(Aminomethyl)-5-methylhexanoic acid", "Gabanext 75", "Pregalin 75", "Neugaba 75", "Maxgalin 75", "Mahagaba-75", "(S)-3-(Aminomethyl)-5-methylhexanoic acid"], "SMILES": "C(CC(C)C)(CC(O)=O)CN", "physical_data": {"Molecular Weight": "159.23", "Molecular Formula": "C8H17NO2", "Melting Point": "195 \u00b0C (decomp)"}}