{"cas_no": "14857-34-2", "cn_name": "\u4e8c\u7532\u57fa\u4e59\u6c27\u57fa\u7845\u70f7", "en_name": ["Ethoxydimethylsilane", "Silane, ethoxydimethyl-", "Ethoxydimethylsilane", "Dimethylethoxysilane", "SIV 9072.0", "Dimethylmonoethoxysilane", "LS 490"], "SMILES": "O([SiH](C)C)CC", "physical_data": {"Molecular Weight": "104.22", "Molecular Formula": "C4H12OSi", "Boiling Point": "54-55 \u00b0C", "Density": "0.757 g/cm\u00b3"}}