{"cas_no": "14850-23-8", "cn_name": "\u53cd-4-\u8f9b\u70ef", "en_name": ["trans-4-Octene", "4-Octene, (4E)-", "4-Octene, (E)-", "4-Octene, trans-", "(4E)-4-Octene", "trans-4-Octene", "trans-n-4-Octene", "(E)-4-Octene", "\u03b4-trans-Octene", "trans-1,2-Dipropylethylene", "(E)-4-Octene", "trans-1,2-Dipropylethene", "NSC 73940"], "SMILES": "C(=CCCC)CCC", "physical_data": {"Molecular Weight": "112.21", "Molecular Formula": "C8H16", "Boiling Point": "122.3 \u00b0C", "Melting Point": "-93.8 \u00b0C", "Density": "0.7165 g/cm\u00b3 @ Temp: 20 \u00b0C"}}