{"cas_no": "14852-31-4", "cn_name": "2-\u5341\u516d\u9187", "en_name": ["2-Hexadecanol", "2-Hexadecanol", "(\u00b1)-2-Hexadecanol", "NSC 87605"], "SMILES": "C(CCCCCCCC)CCCCCC(C)O", "physical_data": {"Molecular Weight": "242.44", "Molecular Formula": "C16H34O", "Boiling Point": "314 \u00b0C", "Melting Point": "44 \u00b0C"}}