{"cas_no": "1485-07-0", "cn_name": "2-\u8418\u4e59\u9187", "en_name": ["2-Naphthaleneethanol", "2-Naphthaleneethanol", "2-(2-Naphthyl)ethanol", "2-\u03b2-Naphthylethanol", "2-(2-Hydroxyethyl)naphthalene", "2-(2-Naphthyl)ethyl alcohol", "2-Naphthalen-2-ylethanol", "NSC 21040", "2-Naphthyl ethanol", "2-(Naphthalen-2-yl)ethan-1-ol"], "SMILES": "C(CO)C1=CC2=C(C=C1)C=CC=C2", "physical_data": {"Molecular Weight": "172.22", "Molecular Formula": "C12H12O", "Melting Point": "67 \u00b0C"}}