{"cas_no": "14850-22-7", "cn_name": "\u987a-3-\u8f9b\u70ef", "en_name": ["(3Z)-3-Octene", "3-Octene, (3Z)-", "3-Octene, (Z)-", "3-Octene, cis-", "(3Z)-3-Octene", "cis-3-Octene", "(Z)-3-Octene", "\u03b3-cis-Octene"], "SMILES": "C(C=CCC)CCC", "physical_data": {"Molecular Weight": "112.21", "Molecular Formula": "C8H16", "Boiling Point": "122.9 \u00b0C", "Melting Point": "-126 \u00b0C", "Density": "0.71470 g/cm\u00b3 @ Temp: 25 \u00b0C"}}