{"cas_no": "1485-00-3", "cn_name": "3,4-\u4e9a\u7532\u4e8c\u6c27-beta-\u785d\u57fa\u82ef\u4e59\u70ef", "en_name": ["5-(2-Nitroethenyl)-1,3-benzodioxole", "1,3-Benzodioxole, 5-(2-nitroethenyl)-", "Styrene, 3,4-(methylenedioxy)-\u03b2-nitro-", "5-(2-Nitroethenyl)-1,3-benzodioxole", "1-(2-Nitrovinyl)-3,4-methylenedioxybenzene", "3,4-Methylenedioxy-1-(2-nitrovinyl)benzene", "5-(2-Nitrovinyl)-1,3-benzodioxole", "3,4-(Methylenedioxy)-\u03b2-nitrostyrene", "5-(2-Nitrovinyl)benzodioxole", "NSC 10120", "NSC 105303", "NSC 170724", "MNS", "Syk inhibitor III"], "SMILES": "C(=CN(=O)=O)C=1C=C2C(=CC1)OCO2", "physical_data": {"Molecular Weight": "193.16", "Molecular Formula": "C9H7NO4", "Melting Point": "162.0-163 \u00b0C"}}