{"cas_no": "14866-33-2", "cn_name": "\u56db\u6b63\u8f9b\u57fa\u6eb4\u5316\u94f5", "en_name": ["Tetraoctylammonium bromide", "1-Octanaminium, N,N,N-trioctyl-, bromide (1:1)", "Ammonium, tetraoctyl-, bromide", "1-Octanaminium, N,N,N-trioctyl-, bromide", "Tetraoctylammonium bromide", "Tetra(n-octyl)ammonium bromide", "TOAB"], "SMILES": "[N+](CCCCCCCC)(CCCCCCCC)(CCCCCCCC)CCCCCCCC.[Br-]", "physical_data": {"Molecular Weight": "", "Molecular Formula": "C32H68N.Br", "Melting Point": "98 \u00b0C"}}