{"cas_no": "14866-43-4", "cn_name": "\u5341\u516d\u70f7\u57fa\u4e09\u82ef\u57fa\u6eb4\u5316\u81a6", "en_name": ["Phosphonium, hexadecyltriphenyl-, bromide (1:1)", "Phosphonium, hexadecyltriphenyl-, bromide (1:1)", "Phosphonium, hexadecyltriphenyl-, bromide", "Hexadecyltriphenylphosphonium bromide", "Cetyltriphenylphosphonium bromide"], "SMILES": "[P+](CCCCCCCCCCCCCCCC)(C1=CC=CC=C1)(C2=CC=CC=C2)C3=CC=CC=C3.[Br-]", "physical_data": {"Molecular Weight": "", "Molecular Formula": "C34H48P.Br", "Melting Point": "101 \u00b0C"}}