{"cas_no": "14861-06-4", "cn_name": "\u5df4\u8c46\u9178\u4e59\u70ef\u916f", "en_name": ["Vinyl crotonate", "2-Butenoic acid, ethenyl ester", "Crotonic acid, vinyl ester", "Vinyl 2-butenoate", "Vinyl crotonate", "NSC 5215"], "SMILES": "C(C=CC)(OC=C)=O", "physical_data": {"Molecular Weight": "112.13", "Molecular Formula": "C6H8O2", "Boiling Point": "47 \u00b0C @ Press: 28 Torr", "Density": "0.8358 g/cm\u00b3 @ Temp: 20 \u00b0C"}}