{"cas_no": "1486-51-7", "cn_name": "4-\u82ef\u7532\u6c27\u57fa\u82ef\u7532\u9178", "en_name": ["4-(Benzyloxy)benzoic acid", "Benzoic acid, 4-(phenylmethoxy)-", "Benzoic acid, p-(benzyloxy)-", "4-(Phenylmethoxy)benzoic acid", "p-(Benzyloxy)benzoic acid", "BRL 14280", "4-(Benzyloxy)benzoic acid", "NSC 16633"], "SMILES": "O(CC1=CC=CC=C1)C2=CC=C(C(O)=O)C=C2", "physical_data": {"Molecular Weight": "228.24", "Molecular Formula": "C14H12O3", "Melting Point": "187 \u00b0C"}}