{"cas_no": "14861-17-7", "cn_name": "4-(2,4-\u4e8c\u6c2f\u82ef\u6c27\u57fa)\u82ef\u80fa", "en_name": ["4-(2,4-Dichlorophenoxy)aniline", "Benzenamine, 4-(2,4-dichlorophenoxy)-", "Aniline, p-(2,4-dichlorophenoxy)-", "4-(2,4-Dichlorophenoxy)benzenamine", "2,4-Dichloro-4\u2032-aminodiphenyl ether", "4-(2,4-Dichlorophenoxy)aniline", "2,4-Dichlorophenyl p-aminophenyl ether", "2,4-Dichloro-1-(4-aminophenoxy)benzene", "4-Amino-2\u2032,4\u2032-dichlorodiphenyl ether", "4-(2\u2032,4\u2032-Dichlorophenoxy)aniline"], "SMILES": "O(C1=C(Cl)C=C(Cl)C=C1)C2=CC=C(N)C=C2", "physical_data": {"Molecular Weight": "254.11", "Molecular Formula": "C12H9Cl2NO", "Melting Point": "184-185 \u00b0C"}}