{"cas_no": "1486-70-0", "cn_name": "3-\u90bb\u7532\u57fa\u69f2\u76ae\u7d20", "en_name": ["3-O-Methylquercetin", "4H-1-Benzopyran-4-one, 2-(3,4-dihydroxyphenyl)-5,7-dihydroxy-3-methoxy-", "Flavone, 3\u2032,4\u2032,5,7-tetrahydroxy-3-methoxy-", "2-(3,4-Dihydroxyphenyl)-5,7-dihydroxy-3-methoxy-4H-1-benzopyran-4-one", "3-Methylquercetin", "3\u2032,4\u2032,5,7-Tetrahydroxy-3-methoxyflavone", "3-O-Methylquercetin", "Quercetin 3-methyl ether", "3-Methylquercetol", "Quercetin-3-O-methyl ether", "Quercetin 3-monomethyl ether", "5,7,3\u2032,4\u2032-Tetrahydroxy-3-methoxyflavone", "NSC 154016", "3-Methoxy-3\u2032,4\u2032,5,7-tetrahydroxyflavone", "3-Methoxy-5,7,3\u2032,4\u2032-tetrahydroxyflavone", "3-Methoxyluteolin", "2-(3,4-Dihydroxyphenyl)-5,7-dihydroxy-3-methoxychromen-4-one", "2-(3,4-Dihydroxyphenyl)-5,7-dihydroxy-3-methoxy-4H-chromen-4-one"], "SMILES": "O(C)C1=C(OC=2C(C1=O)=C(O)C=C(O)C2)C3=CC(O)=C(O)C=C3", "physical_data": {"Molecular Weight": "316.26", "Molecular Formula": "C16H12O7", "Melting Point": "275 \u00b0C"}}