{"cas_no": "14869-41-1", "cn_name": "2-(2-\u6c2f\u4e59\u6c27\u57fa)\u4e59\u9178", "en_name": ["2-(2-Chloroethoxy)acetic acid", "Acetic acid, 2-(2-chloroethoxy)-", "Acetic acid, (2-chloroethoxy)-", "2-(2-Chloroethoxy)acetic acid", "1-Chloro-2-(carboxymethoxy)ethane", "2-Chloroethoxyacetic acid", "5-Chloro-3-oxapentanoic acid"], "SMILES": "C(OCCCl)C(O)=O", "physical_data": {"Molecular Weight": "138.55", "Molecular Formula": "C4H7ClO3", "Boiling Point": "130 \u00b0C @ Press: 3.5 Torr", "Melting Point": "32.5-33.0 \u00b0C", "Density": "1.3296 g/cm\u00b3 @ Temp: 20 \u00b0C"}}