{"cas_no": "1486-28-8", "cn_name": "\u4e8c\u82ef\u57fa\u7532\u6c27\u57fa\u81a6", "en_name": ["Methyldiphenylphosphine", "Phosphine, methyldiphenyl-", "Methyldiphenylphosphine", "Diphenylmethylphosphine", "Diphenylphosphinomethane", "NSC 158476"], "SMILES": "P(C)(C1=CC=CC=C1)C2=CC=CC=C2", "physical_data": {"Molecular Weight": "200.22", "Molecular Formula": "C13H13P", "Boiling Point": "284 \u00b0C @ Press: 760 Torr", "Melting Point": "117-118 \u00b0C", "Density": "1.0779 g/cm\u00b3 @ Temp: 20 \u00b0C"}}