{"cas_no": "14861-16-6", "cn_name": "\u82ef\u57fa\u4e59\u57fa BETA-D-\u5421\u5583\u534a\u4e73\u7cd6\u82f7", "en_name": ["2-Phenylethyl \u03b2-D-galactopyranoside", "\u03b2-D-Galactopyranoside, 2-phenylethyl", "Galactopyranoside, phenethyl, \u03b2-D-", "2-Phenylethyl \u03b2-D-galactopyranoside", "Phenethyl \u03b2-D-galactopyranoside", "Phenethyl \u03b2-D-galactoside", "2-Phenylethyl \u03b2-D-galactoside"], "SMILES": "O(CCC1=CC=CC=C1)C2OC(CO)C(O)C(O)C2O", "physical_data": {"Molecular Weight": "284.30", "Molecular Formula": "C14H20O6", "Melting Point": "97-98 \u00b0C"}}