{"cas_no": "14868-03-2", "cn_name": "\u53cc\u915aC", "en_name": ["1,1-Dichloro-2,2-bis(4-hydroxyphenyl)ethylene", "Phenol, 4,4\u2032-(2,2-dichloroethenylidene)bis-", "Phenol, 4,4\u2032-(dichlorovinylidene)di-", "Phenol, 4,4\u2032-(dichloroethenylidene)bis-", "4,4\u2032-(2,2-Dichloroethenylidene)bis[phenol]", "1,1-Bis(4-hydroxyphenyl)-2,2-dichloroethylene", "1,1-Dichloro-2,2-bis(p-hydroxyphenyl)ethylene", "1,1-Bis(p-hydroxyphenyl)-2,2-dichloroethylene", "1,1-Dichloro-2,2-bis(4-hydroxyphenyl)ethylene", "4,4\u2032-(Dichlorovinylidene)diphenol", "1,1-Dichloro-2,2-bis(4-hydroxyphenyl)ethene", "2,2-Dichloro-1,1-bis(4-hydroxyphenyl)ethylene", "Bisphenol C 2", "2,2-Bis(4-hydroxyphenyl)-1,1-dichloroethylene", "Bis(4-hydroxyphenyl)dichloroethylene", "2,2-Bis(4-hydroxyphenyl)-1,1-dichloroethene", "Bis(4-hydroxyphenyl)-2,2-dichloroethylene"], "SMILES": "C(=C(Cl)Cl)(C1=CC=C(O)C=C1)C2=CC=C(O)C=C2", "physical_data": {"Molecular Weight": "281.13", "Molecular Formula": "C14H10Cl2O2", "Melting Point": "210 \u00b0C"}}