{"cas_no": "1487-49-6", "cn_name": "3-\u7f9f\u57fa\u4e01\u9178\u7532\u916f", "en_name": ["Methyl 3-hydroxybutyrate", "Butanoic acid, 3-hydroxy-, methyl ester", "Butyric acid, 3-hydroxy-, methyl ester", "3-Hydroxybutyric acid methyl ester", "Methyl \u03b2-hydroxybutyrate", "Methyl 3-hydroxybutyrate", "Methyl 3-hydroxybutanoate", "Methyl (RS)-3-hydroxybutyrate", "(\u00b1)-Methyl 3-hydroxybutanoate"], "SMILES": "C(CC(C)O)(OC)=O", "physical_data": {"Molecular Weight": "118.13", "Molecular Formula": "C5H10O3", "Boiling Point": "76-77 \u00b0C @ Press: 20 Torr", "Melting Point": "173-177 \u00b0C"}}