{"cas_no": "1487-15-6", "cn_name": "4,5-\u4e8c\u6c22-2-\u7532\u57fa\u544b\u5583", "en_name": ["2,3-Dihydro-5-methylfuran", "Furan, 2,3-dihydro-5-methyl-", "2,3-Dihydro-5-methylfuran", "2-Methyl-4,5-dihydrofuran", "4,5-Dihydro-2-methylfuran", "5-Methyl-2,3-dihydrofuran", "4,5-Dihydrosylvan"], "SMILES": "CC1=CCCO1", "physical_data": {"Molecular Weight": "84.12", "Molecular Formula": "C5H8O", "Boiling Point": "81-82 \u00b0C", "Density": "0.907 g/cm\u00b3 @ Temp: 18.5 \u00b0C"}}