{"cas_no": "1488-42-2", "cn_name": "\u6c34\u5408\u4e8c\u82ef\u57fa\u7898\u9178", "en_name": ["Iodonium, (2-carboxyphenyl)phenyl-, inner salt", "Iodonium, (2-carboxyphenyl)phenyl-, inner salt", "Iodonium, (o-carboxyphenyl)phenyl-, hydroxide, inner salt", "Iodonium, (2-carboxyphenyl)phenyl-, hydroxide, inner salt", "(o-Carboxyphenyl)phenyliodonium hydroxide, inner salt", "Diphenyliodonium-2-carboxylate", "NSC 86229", "2-(Phenyliodonio)benzoate", "2-(Phenyliodoniumyl)benzoate", "2-Phenyliodoniobenzoate"], "SMILES": "[I+](C1=C(C([O-])=O)C=CC=C1)C2=CC=CC=C2", "physical_data": {"Molecular Weight": "", "Molecular Formula": "C13H9IO2", "Melting Point": "229-230 \u00b0C"}}