{"cas_no": "14883-87-5", "cn_name": "DL-3,4-\u4e8c\u7f9f\u57fa\u674f\u4ec1\u9178", "en_name": ["(\u00b1)-3,4-Dihydroxymandelic acid", "Benzeneacetic acid, \u03b1,3,4-trihydroxy-", "Mandelic acid, 3,4-dihydroxy-", "\u03b1,3,4-Trihydroxybenzeneacetic acid", "3,4-Dihydroxymandelic acid", "(3,4-Dihydroxyphenyl)glycolic acid", "3\u2032,4\u2032-Dihydroxymandelic acid", "DOMA", "2-(3,4-Dihydroxyphenyl)-2-hydroxyacetic acid", "\u03b1-Hydroxy-3,4-dihydroxyphenylacetic acid", "dl-3,4-Dihydroxymandelic acid", "3,4-Dihydroxy-DL-mandelic acid", "(\u00b1)-3,4-Dihydroxymandelic acid", "DL-3,4-Dihydroxymandelic acid", "DL-3,4-Dihydroxymadelic acid", "3,4-Dihydroxy-dl-mandelic acid", "D,L-3,4-Dihydroxymandelic acid", "2-(3\u2032,4\u2032-Dihydroxyphenyl)-2-hydroxyethanoic acid"], "SMILES": "C(C(O)=O)(O)C1=CC(O)=C(O)C=C1", "physical_data": {"Molecular Weight": "184.15", "Molecular Formula": "C8H8O5", "Melting Point": "137 \u00b0C (decomp)"}}