{"cas_no": "14885-29-1", "cn_name": "\u5f02\u4e19\u785d\u5511", "en_name": ["Ipronidazole", "1H-Imidazole, 1-methyl-2-(1-methylethyl)-5-nitro-", "Imidazole, 2-isopropyl-1-methyl-5-nitro-", "1-Methyl-2-(1-methylethyl)-5-nitro-1H-imidazole", "Ipronidazole", "1-Methyl-2-isopropyl-5-nitroimidazole", "Ipropran", "2-Isopropyl-1-methyl-5-nitroimidazole", "Ro 07-1554", "NSC 109212", "1-Methyl-5-nitro-2-propan-2-ylimidazole", "1-Methyl-5-nitro-2-(propan-2-yl)-1H-imidazole"], "SMILES": "C(C)(C)C=1N(C)C(N(=O)=O)=CN1", "physical_data": {"Molecular Weight": "169.18", "Molecular Formula": "C7H11N3O2", "Melting Point": "60 \u00b0C"}}