{"cas_no": "1489-69-6", "cn_name": "\u73af\u4e19\u7532\u919b", "en_name": ["Cyclopropanecarboxaldehyde", "Cyclopropanecarboxaldehyde", "Formylcyclopropane", "Cyclopropylcarboxaldehyde", "1-(Formyl)cyclopropane", "2-Cyclopropanecarboxaldehyde", "Cyclopropanecarbaldehyde"], "SMILES": "C(=O)C1CC1", "physical_data": {"Molecular Weight": "70.09", "Molecular Formula": "C4H6O", "Boiling Point": "98-101 \u00b0C"}}