{"cas_no": "148901-68-2", "cn_name": "(E)-3-[2-\u73af\u4e19\u57fa-4-(4-\u6c1f\u82ef\u57fa)-3-\u55b9\u5549-2-\u4e19\u70ef\u919b", "en_name": ["(2E)-3-[2-Cyclopropyl-4-(4-fluorophenyl)-3-quinolinyl]-2-propenal", "2-Propenal, 3-[2-cyclopropyl-4-(4-fluorophenyl)-3-quinolinyl]-, (2E)-", "2-Propenal, 3-[2-cyclopropyl-4-(4-fluorophenyl)-3-quinolinyl]-, (E)-", "(2E)-3-[2-Cyclopropyl-4-(4-fluorophenyl)-3-quinolinyl]-2-propenal", "(E)-3-[2-Cyclopropyl-4-(4-fluorophenyl)quinolin-3-yl]prop-2-en-1-al", "(2E)-3-[2-cyclopropyl-4-(4-fluorophenyl)-3-quinolinyl]-2-propenal"], "SMILES": "C(=CC=O)C1=C(C2=C(N=C1C3CC3)C=CC=C2)C4=CC=C(F)C=C4", "physical_data": {"Molecular Weight": "317.36", "Molecular Formula": "C21H16FNO", "Melting Point": "136-142 \u00b0C"}}