{"cas_no": "14892-14-9", "cn_name": "2,3,4,5,6-\u4e94\u6c1f\u82ef\u6c27\u57fa\u4e59\u9178", "en_name": ["2-(2,3,4,5,6-Pentafluorophenoxy)acetic acid", "Acetic acid, 2-(2,3,4,5,6-pentafluorophenoxy)-", "Acetic acid, (pentafluorophenoxy)-", "2-(2,3,4,5,6-Pentafluorophenoxy)acetic acid", "(Pentafluorophenoxy)acetic acid", "NSC 97010", "2,3,4,5,6-Pentafluorophenoxyacetic acid"], "SMILES": "O(CC(O)=O)C1=C(F)C(F)=C(F)C(F)=C1F", "physical_data": {"Molecular Weight": "242.10", "Molecular Formula": "C8H3F5O3", "Melting Point": "109 \u00b0C"}}