{"cas_no": "14899-36-6", "cn_name": "\u5730\u585e\u7c73\u677e\u68d5\u6988\u9178\u916f", "en_name": ["Dexamethasone palmitate", "Pregna-1,4-diene-3,20-dione, 9-fluoro-11,17-dihydroxy-16-methyl-21-[(1-oxohexadecyl)oxy]-, (11\u03b2,16\u03b1)-", "Pregna-1,4-diene-3,20-dione, 9-fluoro-11\u03b2,17,21-trihydroxy-16\u03b1-methyl-, 21-palmitate", "Palmitic acid, 21-ester with 9-fluoro-11\u03b2,17,21-trihydroxy-16\u03b1-methylpregna-1,4-diene-3,20-dione", "(11\u03b2,16\u03b1)-9-Fluoro-11,17-dihydroxy-16-methyl-21-[(1-oxohexadecyl)oxy]pregna-1,4-diene-3,20-dione", "Dexamethasone 21-palmitate", "Dexamethasone palmitate", "Limethason", "Lipotalon", "Limethasone"], "SMILES": "CC12C(C3C(F)(C4(C)C(CC3)=CC(=O)C=C4)C(O)C1)CC(C)C2(C(COC(CCCCCCCCCCCCCCC)=O)=O)O", "physical_data": {"Molecular Weight": "630.87", "Molecular Formula": "C38H59FO6", "Melting Point": "60-65 \u00b0C"}}