{"cas_no": "14898-79-4", "cn_name": "(R)-(-)-2-\u4e01\u9187", "en_name": ["(-)-2-Butanol", "2-Butanol, (2R)-", "sec-Butyl alcohol, (R)-(-)-", "2-Butanol, (R)-", "(-)-2-Butanol", "(R)-(-)-2-Butanol", "(R)-2-Butanol", "D-2-Butanol", "(2R)-2-Butanol", "(R)-(-)-sec-Butanol", "(2R)-Butan-2-ol", "(R)-sec-Butanol", "R-(-)-Butan-2-ol"], "SMILES": "C(CC)(C)O", "physical_data": {"Molecular Weight": "74.12", "Molecular Formula": "C4H10O", "Boiling Point": "99-99.5 \u00b0C", "Density": "1.3954 g/cm\u00b3 @ Temp: 22 \u00b0C"}}