{"cas_no": "14897-78-0", "cn_name": "3,5\u4e8c\u7532\u6c27\u57fa-4-\u7f9f\u57fa\u82ef\u4e19\u9178", "en_name": ["4-Hydroxy-3,5-dimethoxybenzenepropanoic acid", "Benzenepropanoic acid, 4-hydroxy-3,5-dimethoxy-", "Hydrocinnamic acid, 4-hydroxy-3,5-dimethoxy-", "4-Hydroxy-3,5-dimethoxybenzenepropanoic acid", "Dihydrosinapic acid", "3-(4-Hydroxy-3,5-dimethoxyphenyl)propionic acid", "4-Hydroxy-3,5-dimethoxyhydrocinnamic acid", "3-(4-Hydroxy-3,5-dimethoxyphenyl)propanoic acid"], "SMILES": "O(C)C1=C(O)C(OC)=CC(CCC(O)=O)=C1", "physical_data": {"Molecular Weight": "226.23", "Molecular Formula": "C11H14O5", "Melting Point": "102-103 \u00b0C"}}