{"cas_no": "149-30-4", "cn_name": "2-\u5def\u57fa\u82ef\u5e76\u567b\u5511", "en_name": ["2-Mercaptobenzothiazole", "2(3H)-Benzothiazolethione", "2-Benzothiazolethiol", "2-Benzothiazolinethione", "Captax", "MBT", "2-Mercaptobenzothiazole", "2-Mercaptobenzthiazole", "Mertax", "Nuodeb 84", "Rotax", "Royal MBT", "Thiotax", "Mercaptobenzothiazole", "Pneumax MBT", "Mercaptobenzthiazole", "Soxinol M", "Vulkacit Mercapto", "Ekagom G", "Vulkacit M", "Kaptax", "Dermacid", "Accelerator M", "Kaptaks", "2-MBT", "Mebetizole", "Mebithizol", "Vulkacit Mercapto/C", "Accel M", "2-Benzothiazolyl mercaptan", "Nocceler M", "MBT (vulcanization accelerator)", "Aero Promoter 412", "Sanceler M", "Vulkacit Mercapto/MG", "2,3-Dihydrobenzothiazole-2-thione", "Mebetizol", "Wobezit M", "Nonflex NB", "Benz-1,3-thiazolidine-2-thione", "1,3-Benzothiazole-2-thione", "Vulkafil ZN 94TT01", "2-Sulfanylbenzothiazole", "Nocceler M-P", "Perkacit MBT", "1,3-Benzothiazole-2-thiol", "NSC 2041", "Vulkacit Mercapto MG/C", "Aero 407", "Sanceler M-G", "Benzothiazolethiol", "Benzo[d]thiazole-2-thiol", "2-Mercapto-1H-benzothiazole", "Oricel M", "RU 3", "Captax MBT", "DT 402", "OCID", "M 2", "M 2 (rust inhibitor)", "accelerator MBT", "NB", "Rubator MBT", "MBT-2", "Accelerant M", "Rhenogran MBT 80", "MBT 80", "2,3-Dihydro-1,3-benzothiazole-2-thione", "2-Mercaptobenzo[d]thiazole", "Rhenogran MBT", "Rhenocure Mercapto C"], "SMILES": "S=C1NC=2C(S1)=CC=CC2", "physical_data": {"Molecular Weight": "167.25", "Molecular Formula": "C7H5NS2", "Melting Point": "180.2-181.7 \u00b0C", "Density": "1.42 g/cm\u00b3"}}