{"cas_no": "149-91-7", "cn_name": "\u6ca1\u98df\u5b50\u9178", "en_name": ["Gallic acid", "Benzoic acid, 3,4,5-trihydroxy-", "Gallic acid", "3,4,5-Trihydroxybenzoic acid", "NSC 20103", "NSC 674319", "3,4,5-Hydroxybenzoic acid", "A 1925-04", "MeSH ID: D005707"], "SMILES": "C(O)(=O)C1=CC(O)=C(O)C(O)=C1", "physical_data": {"Molecular Weight": "170.12", "Molecular Formula": "C7H6O5", "Melting Point": "210 \u00b0C", "Density": "169 g/cm\u00b3 @ Temp: 20 \u00b0C"}}