{"cas_no": "149-74-6", "cn_name": "\u7532\u57fa\u82ef\u57fa\u4e8c\u6c2f\u7845\u70f7", "en_name": ["Dichloromethylphenylsilane", "Benzene, (dichloromethylsilyl)-", "Silane, dichloromethylphenyl-", "(Dichloromethylsilyl)benzene", "Dichloromethylphenylsilane", "Phenylmethyldichlorosilane", "Methylphenyldichlorosilane", "Phenyldichloro(methyl)silane", "Dichlorophenylmethylsilane", "LS 1490", "TSL 8067", "NSC 96621"], "SMILES": "[Si](C)(Cl)(Cl)C1=CC=CC=C1", "physical_data": {"Molecular Weight": "191.13", "Molecular Formula": "C7H8Cl2Si", "Boiling Point": "206.5 \u00b0C", "Melting Point": "-53 \u00b0C", "Density": "1.1866 g/cm\u00b3 @ Temp: 20 \u00b0C"}}