{"cas_no": "149-87-1", "cn_name": "DL-\u7126\u8c37\u6c28\u9178", "en_name": ["DL-Pyrrolidonecarboxylic acid", "Proline, 5-oxo-", "Proline, 5-oxo-, DL-", "DL-Proline, 5-oxo-", "5-Oxoproline", "DL-Pyrrolidonecarboxylic acid", "DL-Pyroglutamate", "5-Oxo-DL-proline", "(\u00b1)-Pyroglutamic acid", "DL-Pyroglutamic acid", "DL-2-Pyrrolidinone-5-carboxylic acid", "DL-2-Pyrrolidone-5-carboxylic acid", "(\u00b1)-2-Pyrrolidone-5-carboxylic acid", "5-Oxopyrrolidine-2-carboxylic acid", "NSC 40887"], "SMILES": "C(O)(=O)C1NC(=O)CC1", "physical_data": {"Molecular Weight": "129.11", "Molecular Formula": "C5H7NO3", "Melting Point": "181-183 \u00b0C"}}