{"cas_no": "149-32-6", "cn_name": "\u8d64\u85d3\u7cd6\u9187", "en_name": ["Erythritol", "1,2,3,4-Butanetetrol, (2R,3S)-rel-", "Erythritol", "1,2,3,4-Butanetetrol, (R*,S*)-", "rel-(2R,3S)-1,2,3,4-Butanetetrol", "Erythrol", "Phycitol", "Mesoerythritol", "meso-Erythritol", "Erythrit", "NIK 242", "C*Eridex", "NSC 8099", "C* Eridex 16954", "Erythritol 100M", "F 8015", "Lakanto-S", "Cargill Zerose 16957", "Zerose 01657", "Zerose", "(2R,3S)-Butane-1,2,3,4-tetraol", "Eridex F 16960", "Zerose Tm 16957", "Zerose 16952", "Erythritol T", "Erythritol 50M", "(2R,3S)-rel-Butane-1,2,3,4-tetraol", "Lakanto Sweet Powder", "(2R,3S)-1,2,3,4-Butanetetrol", "MeSH ID: D004896"], "SMILES": "C(C(CO)O)(CO)O", "physical_data": {"Molecular Weight": "122.12", "Molecular Formula": "C4H10O4", "Boiling Point": "330.5 \u00b0C", "Melting Point": "121.5 \u00b0C", "Density": "1.44 g/cm\u00b3"}}