{"cas_no": "149-16-6", "cn_name": "\u4e8c\u4e01\u6c28\u5361\u56e0", "en_name": ["Butacaine", "1-Propanol, 3-(dibutylamino)-, 1-(4-aminobenzoate)", "Butacaine", "1-Propanol, 3-(dibutylamino)-, p-aminobenzoate (ester)", "1-Propanol, 3-(dibutylamino)-, 4-aminobenzoate (ester)", "1-Propanol, 3-(dibutylamino)-, p-aminobenzoate", "3-(p-Aminobenzoxy)-1-di-n-butylaminopropane", "Butyn", "3-(Dibutylamino)-1-propanol p-aminobenzoate", "3-Dibutylaminopropyl p-aminobenzoate", "Butelline"], "SMILES": "C(OCCCN(CCCC)CCCC)(=O)C1=CC=C(N)C=C1", "physical_data": {"Molecular Weight": "306.44", "Molecular Formula": "C18H30N2O2", "Boiling Point": "180 \u00b0C", "Melting Point": "&lt;25 \u00b0C"}}