{"cas_no": "149-57-5", "cn_name": "\u5f02\u8f9b\u9178", "en_name": ["2-Ethylhexanoic acid", "Hexanoic acid, 2-ethyl-", "Caproic acid, \u03b1-ethyl-", "2-Ethylhexanoic acid", "Butylethylacetic acid", "\u03b1-Ethylcaproic acid", "2-Ethylhexoic acid", "3-Heptanecarboxylic acid", "2-Ethylcaproic acid", "Ethylhexanoic acid", "\u03b1-Ethylhexanoic acid", "2-Butylbutanoic acid", "2-Ethyl-1-hexanoic acid", "(\u00b1)-2-Ethylhexanoic acid", "NSC 8881", "Octylic acid"], "SMILES": "C(CCCC)(C(O)=O)CC", "physical_data": {"Molecular Weight": "144.21", "Molecular Formula": "C8H16O2", "Boiling Point": "228 \u00b0C", "Melting Point": "-59 \u00b0C", "Density": "0.9031 g/cm\u00b3 @ Temp: 25 \u00b0C"}}