{"cas_no": "149-64-4", "cn_name": "\u4e01\u6eb4\u4e1c\u83a8\u83ea\u78b1", "en_name": ["Buscopan", "3-Oxa-9-azoniatricyclo[3.3.1.02,4]nonane, 9-butyl-7-[(2S)-3-hydroxy-1-oxo-2-phenylpropoxy]-9-methyl-, bromide (1:1), (1\u03b1,2\u03b2,4\u03b2,5\u03b1,7\u03b2)-", "1\u03b1H,5\u03b1H-Tropanium, 8-butyl-6\u03b2,7\u03b2-epoxy-3\u03b1-hydroxy-, bromide, (-)-tropate", "3-Oxa-9-azoniatricyclo[3.3.1.02,4]nonane, 9-butyl-7-(3-hydroxy-1-oxo-2-phenylpropoxy)-9-methyl-, bromide, [7(S)-(1\u03b1,2\u03b2,4\u03b2,5\u03b1,7\u03b2)]-", "N-Butylscopolammonium bromide", "3-Oxa-9-azoniatricyclo[3.3.1.02,4]nonane, 9-butyl-7-[(2S)-3-hydroxy-1-oxo-2-phenylpropoxy]-9-methyl-, bromide, (1\u03b1,2\u03b2,4\u03b2,5\u03b1,7\u03b2)-", "Tropic acid, (-)-, ester with 8-butyl-6\u03b2,7\u03b2-epoxy-3\u03b1-hydroxy-1\u03b1H,5\u03b1H-tropanium bromide", "Buscapine", "Buscopan", "N-Butylhyoscine bromide", "Scobutyl", "Scopolamine butyl bromide", "Buscolysine", "Joscine", "N-Butylhyoscinium bromide", "Butylscopolamine bromide", "Hyoscine butyl bromide", "N-Butylscopolamine bromide", "Scobutil", "Butylscopolammonium bromide", "Buscolysin", "Scopolamine butobromide", "Hyoscine butobromide", "N-Butylscopolaminium bromide", "Scopolamine-N-butyl bromide", "Scopolamine bromobutylate", "Amisepan", "Buscol", "Buscolamin", "Butylmin", "Donopon", "Monospan", "Scobro", "Scobron", "Sparicon", "Sporamin", "Stibron", "Tirantil", "Scopolan", "(-)-Scopolamine butylbromide", "Sporamin (pharmaceutical)", "MeSH ID: D002086"], "SMILES": "C(CCC)[N+]1(C)C2C3C(O3)C1CC(OC(C(CO)C4=CC=CC=C4)=O)C2.[Br-]", "physical_data": {"Molecular Weight": "", "Molecular Formula": "C21H30NO4.Br", "Melting Point": "143 \u00b0C"}}