{"cas_no": "149-29-1", "cn_name": "\u53eb\u68d2\u66f2\u9709\u7d20", "en_name": ["Patulin", "4H-Furo[3,2-c]pyran-2(6H)-one, 4-hydroxy-", "Patulin", "4-Hydroxy-4H-furo[3,2-c]pyran-2(6H)-one", "Clairformin", "Clavacin", "Clavatin", "Claviformin", "Expansin", "Expansine", "Mycoin", "Penicidin", "Acetic acid, (2,4-dihydroxy-2H-pyran-3(6H)-ylidene)-, 3,4-lactone", "Mycoin C", "Patuline", "Mycoin C3", "Terinin", "DL-Patulin", "NSC 32951", "NSC 8120", "Expansin (antibiotic)", "Leucopin", "Gigantin", "MeSH ID: D010365"], "SMILES": "OC1C=2C(OC(=O)C2)=CCO1", "physical_data": {"Molecular Weight": "154.12", "Molecular Formula": "C7H6O4", "Melting Point": "111.0 \u00b0C"}}