{"cas_no": "149-15-5", "cn_name": "\u786b\u9178\u4e01\u4e19\u5361\u56e0", "en_name": ["1-Propanol, 3-(dibutylamino)-, 1-(4-aminobenzoate), sulfate (2:1)", "1-Propanol, 3-(dibutylamino)-, 1-(4-aminobenzoate), sulfate (2:1)", "1-Propanol, 3-(dibutylamino)-, 4-aminobenzoate (ester), sulfate (2:1) (salt)", "Butacaine sulfate", "1-Propanol, 3-(dibutylamino)-, p-aminobenzoate (ester), sulfate (2:1)", "3-(p-Aminobenzoxy)-1-di-n-butylaminopropane sulfate", "Butyn Sulfate", "Dibutylaminopropyl p-aminobenzoate sulfate", "3\u2032-Dibutylaminopropyl 4-aminobenzoate sulfate", "Butacaine hemisulfate"], "SMILES": "C(OCCCN(CCCC)CCCC)(=O)C1=CC=C(N)C=C1.S(=O)(=O)(O)O", "physical_data": {"Molecular Weight": "", "Molecular Formula": "C18H30N2O2.<sup>1</sup>/2H2O4S", "Melting Point": "138.5-139.5 \u00b0C"}}