{"cas_no": "149-44-0", "cn_name": "\u6b21\u786b\u9178\u6c22\u94a0\u7532\u919b", "en_name": ["Rongalite", "Methanesulfinic acid, 1-hydroxy-, sodium salt (1:1)", "Sodium formaldehydesulfoxylate", "Methanesulfinic acid, hydroxy-, monosodium salt", "Formaldehyde sodium sulfoxylate", "Formopan", "Hydrolit", "Hydroxymethanesulfinic acid sodium salt", "Rongalit", "Rongalit C", "Rongalite", "Rongalite C", "Sodium hydroxymethanesulfinate", "Sodium sulfoxylate formaldehyde", "Sodium (hydroxymethyl)sulfinate", "Formaldehydesulfoxylic acid sodium salt", "Sodium methanalsulfoxylate", "Aldanil", "Formapon", "Leptacid", "C.I. Reducing Agent 2", "Redol C", "Rodite", "Leptacit", "Bleachit D", "Superlite C", "NSC 4847", "NSC 78331", "Cosmolit", "Formaldehyde-sodium hydrogen sulfite", "Langqielie C", "Bruggolite E 01", "Bruggolit E 01", "Bruggolite SFS", "Bruggolite C", "Rongolite C", "ST", "ST (Rongalite)", "SFS"], "SMILES": "S(CO)(=O)O.[Na]", "physical_data": {"Molecular Weight": "", "Molecular Formula": "CH4O3S.Na", "Melting Point": "63-64 \u00b0C"}}