{"cas_no": "149-73-5", "cn_name": "\u539f\u7532\u9178\u4e09\u7532\u916f", "en_name": ["Trimethyl orthoformate", "Methane, trimethoxy-", "Orthoformic acid, trimethyl ester", "Trimethoxymethane", "Methyl orthoformate", "Trimethyl orthoformate", "Orthoformic acid methyl ester", "Methoxymethylal", "NSC 147479", "Perma-Flo OF", "OFM", "TMOF"], "SMILES": "C(OC)(OC)OC", "physical_data": {"Molecular Weight": "106.12", "Molecular Formula": "C4H10O3", "Boiling Point": "100.6 \u00b0C @ Press: 760 Torr", "Melting Point": "15 \u00b0C", "Density": "0.9676 g/cm\u00b3 @ Temp: 20 \u00b0C"}}