{"cas_no": "149-11-1", "cn_name": "\u5f02\u8f9b\u9178\u94dc", "en_name": ["Copper(II) 2-ethylhexanoate", "Hexanoic acid, 2-ethyl-, copper(2+) salt (2:1)", "Hexanoic acid, 2-ethyl-, copper(2+) salt", "Hexanoic acid, 2-ethyl-, copper salt (2:1)", "Cupric bis(2-ethylhexanoate)", "2-Ethylhexanoic acid copper(2+) salt", "Copper bis(2-ethylhexanoate)", "Copper di(2-ethylhexanoate)", "Copper(2+) 2-ethylhexanoate", "Copper(II) 2-ethylhexanoate", "NSC 4139"], "SMILES": "C(CCCC)(C(O)=O)CC.[Cu]", "physical_data": {"Molecular Weight": "", "Molecular Formula": "C8H16O2.<sup>1</sup>/2Cu", "Melting Point": "252 \u00b0C (decomp)"}}