{"cas_no": "14901-07-6", "cn_name": "beta-\u7d2b\u7f57\u5170\u916e", "en_name": ["4-(2,6,6-Trimethyl-1-cyclohexen-1-yl)-3-buten-2-one", "3-Buten-2-one, 4-(2,6,6-trimethyl-1-cyclohexen-1-yl)-", "4-(2,6,6-Trimethyl-1-cyclohexen-1-yl)-3-buten-2-one", "4-(2,6,6-Trimethyl-1-cyclohexenyl)-3-buten-2-one", "NSC 402758", "NSC 46137"], "SMILES": "C(=CC(C)=O)C=1C(C)(C)CCCC1C", "physical_data": {"Molecular Weight": "192.30", "Molecular Formula": "C13H20O", "Boiling Point": "127 \u00b0C", "Melting Point": "&lt;25 \u00b0C"}}