{"cas_no": "149082-03-1", "cn_name": "3,5-\u4e8c\u7532\u57fa-4-\u785d\u57fa\u5421\u5576-2-\u7532\u9187", "en_name": ["3,5-Dimethyl-4-nitro-2-pyridinemethanol", "2-Pyridinemethanol, 3,5-dimethyl-4-nitro-", "3,5-Dimethyl-4-nitro-2-pyridinemethanol", "2-(Hydroxymethyl)-3,5-dimethyl-4-nitropyridine", "3,5-Dimethyl-4-nitropyridine-2-methanol", "4-Nitro-3,5-dimethyl-2-(hydroxymethyl)pyridine", "(3,5-Dimethyl-4-nitropyridin-2-yl)methanol", "3,5-Dimethyl-2-hydroxymethyl-4-nitropyridine"], "SMILES": "N(=O)(=O)C=1C(C)=C(CO)N=CC1C", "physical_data": {"Molecular Weight": "182.18", "Molecular Formula": "C8H10N2O3", "Melting Point": "65.2-66 \u00b0C"}}