{"cas_no": "1490-25-1", "cn_name": "\u4e01\u4e8c\u9178\u5355\u7532\u916f\u9170\u6c2f", "en_name": ["Methyl succinyl chloride", "Butanoic acid, 4-chloro-4-oxo-, methyl ester", "Propionic acid, 3-(chloroformyl)-, methyl ester", "Carbomethoxypropionyl chloride", "Monomethyl succinyl chloride", "\u03b2-Carbomethoxypropionyl chloride", "3-Carbomethoxypropanoyl chloride", "3-(Carbomethoxy)propionyl chloride", "Methyl succinyl chloride", "\u03b2-(Methoxycarbonyl)propionyl chloride", "Methyl succinate chloride", "Methyl 3-(chlorocarbonyl)propionate", "Methyl succinate monochloride", "Methyl 4-chloro-4-oxobutanoate", "4-Chloro-4-oxobutanoic acid methyl ester", "3-(Methoxycarbonyl)propionyl chloride", "Methyl succinoyl chloride", "Methyl 3-(chloroformyl)propionate", "3-(Methoxycarbonyl)propanoyl chloride", "Methyl 3-(chlorocarbonyl)propanoate", "NSC 10757", "4-Methoxy-4-oxobutanoic acid chloride", "Methyl 4-chloro-4-oxobutyrate", "3-Chlorocarbonylpropionic acid methyl ester", "Succinic acid monomethyl chloride", "4-Methoxy-4-oxobutanoyl chloride", "4-Chloro-4-oxobutyric acid methyl ester"], "SMILES": "C(CCC(Cl)=O)(OC)=O", "physical_data": {"Molecular Weight": "150.56", "Molecular Formula": "C5H7ClO3", "Boiling Point": "93 \u00b0C @ Press: 18 Torr"}}