{"cas_no": "14906-64-0", "cn_name": "\u70df\u80bc\u6c27\u5316\u7269", "en_name": ["3-Pyridinecarbonitrile, 1-oxide", "3-Pyridinecarbonitrile, 1-oxide", "Nicotinonitrile, 1-oxide", "3-Cyanopyridine 1-oxide", "3-Cyanopyridine N-oxide", "Nicotinonitrile N-oxide", "NSC 170850", "1-Oxidopyridin-1-ium-3-carbonitrile", "3-Cyanopyridin-1-ium-1-olate"], "SMILES": "C(#N)C1=CN(=O)=CC=C1", "physical_data": {"Molecular Weight": "120.11", "Molecular Formula": "C6H4N2O", "Melting Point": "175-176 \u00b0C"}}