{"cas_no": "14901-16-7", "cn_name": "\u82ef\u57fa-3-(2-\u567b\u5511\u57fa)-2-\u786b\u8132", "en_name": ["1-Phenyl-3-(2-thiazolyl)-2-thiourea", "Thiourea, N-phenyl-N\u2032-2-thiazolyl-", "Urea, 1-phenyl-3-(2-thiazolyl)-2-thio-", "N-Phenyl-N\u2032-2-thiazolylthiourea", "1-Phenyl-3-(2-thiazolyl)thiourea", "U 14624", "1-Phenyl-3-(2-thiazolyl)-2-thiourea", "NSC 139257"], "SMILES": "N(C(NC1=NC=CS1)=S)C2=CC=CC=C2", "physical_data": {"Molecular Weight": "235.33", "Molecular Formula": "C10H9N3S2", "Melting Point": "129 \u00b0C"}}