{"cas_no": "14906-59-3", "cn_name": "4-\u6c30\u57fa\u5421\u5576 N-\u6c27\u5316\u7269", "en_name": ["4-Pyridinecarbonitrile, 1-oxide", "4-Pyridinecarbonitrile, 1-oxide", "Isonicotinonitrile, 1-oxide", "4-Cyanopyridine N-oxide", "4-Cyanopyridine 1-oxide", "4-Cyanopyridine oxide", "NSC 132883", "1-Oxopyridine-4-carbonitrile", "1-Oxidopyridin-1-ium-4-carbonitrile"], "SMILES": "C(#N)C=1C=CN(=O)=CC1", "physical_data": {"Molecular Weight": "120.11", "Molecular Formula": "C6H4N2O", "Melting Point": "223-225 \u00b0C"}}