{"cas_no": "1490-04-6", "cn_name": "\u8584\u8377\u8111", "en_name": ["Menthol", "Cyclohexanol, 5-methyl-2-(1-methylethyl)-", "Menthol", "5-Methyl-2-(1-methylethyl)cyclohexanol", "p-Menthan-3-ol", "2-Isopropyl-5-methylcyclohexanol", "3-Hydroxy-p-menthane", "1-Methyl-4-isopropyl-3-cyclohexanol", "Menthyl alcohol", "2-Isopropyl-5-methylcyclohexan-1-ol", "5-Methyl-2-isopropylcyclohexanol", "2-(2-Propyl)-5-methyl-1-cyclohexanol", "MeSH ID: D008610"], "SMILES": "C(C)(C)C1C(O)CC(C)CC1", "physical_data": {"Molecular Weight": "156.27", "Molecular Formula": "C10H20O", "Boiling Point": "87 \u00b0C @ Press: 8 Torr", "Melting Point": "33.5 \u00b0C", "Density": "0.9084 g/cm\u00b3 @ Temp: 20 \u00b0C"}}