{"cas_no": "14917-55-6", "cn_name": "\u7532\u57fa-\u0391-D-\u5421\u5583\u9f20\u674e\u7cd6\u82f7", "en_name": ["Methyl \u03b1-L-rhamnopyranoside", "\u03b1-L-Mannopyranoside, methyl 6-deoxy-", "Mannopyranoside, methyl 6-deoxy-, \u03b1-L-", "Rhamnopyranoside, methyl, \u03b1-L-", "Methyl 6-deoxy-\u03b1-L-mannopyranoside", "Methyl \u03b1-L-rhamnopyranoside", "Methyl \u03b1-L-rhamnoside", "Methyl rhamnoside", "NSC 287051"], "SMILES": "O(C)C1C(O)C(O)C(O)C(C)O1", "physical_data": {"Molecular Weight": "178.18", "Molecular Formula": "C7H14O5", "Melting Point": "108-109 \u00b0C"}}