{"cas_no": "14919-77-8", "cn_name": "\u76d0\u9178\u82c4\u4e1d\u80bc", "en_name": ["Benserazide hydrochloride", "Serine, 2-[(2,3,4-trihydroxyphenyl)methyl]hydrazide, hydrochloride (1:1)", "Serine, 2-(2,3,4-trihydroxybenzyl)hydrazide, monohydrochloride", "DL-Serine, 2-[(2,3,4-trihydroxyphenyl)methyl]hydrazide, monohydrochloride", "Serine, 2-[(2,3,4-trihydroxyphenyl)methyl]hydrazide, monohydrochloride", "N-(DL-Seryl)-N\u2032-(2,3,4-trihydroxybenzyl)hydrazine hydrochloride", "N\u2032-(DL-Seryl)-N\u2032\u2032-(2,3,4-trihydroxybenzyl)hydrazine hydrochloride", "Benserazide hydrochloride", "DL-Serine N2-(2,3,4-trihydroxybenzyl)hydrazide hydrochloride", "Ro 4-4602", "Ro 4-4602/001"], "SMILES": "C(NNC(C(CO)N)=O)C1=C(O)C(O)=C(O)C=C1.Cl", "physical_data": {"Molecular Weight": "", "Molecular Formula": "C10H15N3O5.ClH", "Melting Point": "146-148 \u00b0C"}}