{"cas_no": "14916-79-1", "cn_name": "3-\u5e9a\u7094-1-\u9187", "en_name": ["3-Heptyn-1-ol", "3-Heptyn-1-ol", "1-Hydroxy-3-heptyne"], "SMILES": "C(#CCCO)CCC", "physical_data": {"Molecular Weight": "112.17", "Molecular Formula": "C7H12O", "Boiling Point": "79-80 \u00b0C @ Press: 18 Torr", "Density": "0.8976 g/cm\u00b3 @ Temp: 20 \u00b0C"}}