{"cas_no": "149104-90-5", "cn_name": "4-\u4e59\u9170\u57fa\u82ef\u787c\u9178", "en_name": ["4-Acetylphenylboronic acid", "Boronic acid, B-(4-acetylphenyl)-", "Boronic acid, (4-acetylphenyl)-", "B-(4-Acetylphenyl)boronic acid", "4-Acetylphenylboronic acid", "4-Acetylbenzeneboronic acid", "p-Acetylphenylboronic acid"], "SMILES": "B(O)(O)C1=CC=C(C(C)=O)C=C1", "physical_data": {"Molecular Weight": "163.97", "Molecular Formula": "C8H9BO3", "Melting Point": "231-233 \u00b0C"}}