{"cas_no": "14916-65-5", "cn_name": "5-\u6c28\u57fa-2-\u785d\u57fa\u5421\u5576", "en_name": ["6-Nitro-3-pyridinamine", "3-Pyridinamine, 6-nitro-", "Pyridine, 5-amino-2-nitro-", "6-Nitro-3-pyridinamine", "5-Amino-2-nitropyridine", "2-Nitro-5-aminopyridine", "6-Nitropyridin-3-amine"], "SMILES": "N(=O)(=O)C1=CC=C(N)C=N1", "physical_data": {"Molecular Weight": "139.11", "Molecular Formula": "C5H5N3O2", "Melting Point": "234-235 \u00b0C (decomp)"}}