{"cas_no": "1491-59-4", "cn_name": "\u7f9f\u7532\u5511\u5549", "en_name": ["Oxymetazoline", "Phenol, 3-[(4,5-dihydro-1H-imidazol-2-yl)methyl]-6-(1,1-dimethylethyl)-2,4-dimethyl-", "Phenol, 6-tert-butyl-3-(2-imidazolin-2-ylmethyl)-2,4-dimethyl-", "3-[(4,5-Dihydro-1H-imidazol-2-yl)methyl]-6-(1,1-dimethylethyl)-2,4-dimethylphenol", "6-tert-Butyl-3-(2-imidazolin-2-ylmethyl)-2,4-dimethylphenol", "Oxymethazoline", "Oxymetazoline", "Oxylazine", "2-(4-tert-Butyl-2,6-dimethyl-3-hydroxybenzyl)-2-imidazoline", "Navisin", "Hazol", "Sinerol", "Nezeril", "Rhinolitan", "Rhinofrenol", "Navasin", "MeSH ID: D010109"], "SMILES": "C(C1=C(C)C(O)=C(C(C)(C)C)C=C1C)C=2NCCN2", "physical_data": {"Molecular Weight": "260.37", "Molecular Formula": "C16H24N2O", "Melting Point": "181-183 \u00b0C"}}