{"cas_no": "1491-41-4", "cn_name": "\u8418\u80bd\u78f7", "en_name": ["Naftalofos", "Phosphoric acid, 1,3-dioxo-1H-benz[de]isoquinolin-2(3H)-yl diethyl ester", "Naphthalimide, N-hydroxy-, diethyl phosphate", "1H-Benz[de]isoquinoline-1,3(2H)-dione, 2-[(diethoxyphosphinyl)oxy]-", "S 940", "ENT 25567", "O,O-Diethyl N-hydroxynaphthalimide phosphate", "N-Hydroxynaphthalimide diethyl phosphate", "Naftalofos", "Naphthalophos", "Rametin", "BAY 9002", "Maretin", "Bayer 9002", "1,3-Dioxo-1H-benzo[de]isoquinolin-2(3H)-yl diethyl phosphate"], "SMILES": "O=C1C=2C=3C(C(=O)N1OP(OCC)(OCC)=O)=CC=CC3C=CC2", "physical_data": {"Molecular Weight": "349.28", "Molecular Formula": "C16H16NO6P", "Melting Point": "177 \u00b0C"}}