{"cas_no": "14918-80-0", "cn_name": "3-\u7532\u9170\u57fa\u4e01-2-\u70ef\u57fa\u4e59\u9178\u916f", "en_name": ["4-(Acetyloxy)-2-methyl-2-butenal", "2-Butenal, 4-(acetyloxy)-2-methyl-", "Crotonaldehyde, 4-hydroxy-2-methyl-, acetate", "4-(Acetyloxy)-2-methyl-2-butenal", "1-Acetoxy-3-methyl-2-buten-4-al", "3-Formylcrotyl acetate", "4-Acetoxy-2-formyl-2-butene", "4-Acetoxy-2-methylcrotonaldehyde", "4-Acetoxy-2-methyl-2-butenal", "3-Methyl-4-oxo-2-butenyl acetate", "3-Formylbut-2-enyl acetate", "4-Acetoxy-2-methyl-2-butene-1-al"], "SMILES": "C(=CCOC(C)=O)(C=O)C", "physical_data": {"Molecular Weight": "142.15", "Molecular Formula": "C7H10O3", "Boiling Point": "95-97 \u00b0C @ Press: 15 Torr", "Melting Point": "50-55 \u00b0C"}}