{"cas_no": "14918-21-9", "cn_name": "\u5df2\u7094\u8148", "en_name": ["5-Hexynenitrile", "5-Hexynenitrile", "5-Hexynonitrile", "5-Cyano-1-pentyne", "5-Hexyne-1-nitrile", "3-Cyanopropylacetylene"], "SMILES": "C(CC#C)CC#N", "physical_data": {"Molecular Weight": "93.13", "Molecular Formula": "C6H7N", "Boiling Point": "115-117 \u00b0C @ Press: 112 Torr", "Density": "0.8916 g/cm\u00b3 @ Temp: 20 \u00b0C"}}