{"cas_no": "14919-01-8", "cn_name": "\u53cd-2-\u8f9b\u70ef", "en_name": ["trans-3-Octene", "3-Octene, (3E)-", "3-Octene, (E)-", "(3E)-3-Octene", "trans-3-Octene", "(E)-3-Octene", "\u03b3-trans-Octene", "NSC 95418"], "SMILES": "C(C=CCC)CCC", "physical_data": {"Molecular Weight": "112.21", "Molecular Formula": "C8H16", "Boiling Point": "123.3 \u00b0C", "Melting Point": "-110 \u00b0C", "Density": "0.71210 g/cm\u00b3 @ Temp: 25 \u00b0C"}}