{"cas_no": "14916-80-4", "cn_name": "3-\u8f9b\u7094-1-\u9187", "en_name": ["3-Octyn-1-ol", "3-Octyn-1-ol", "NSC 67251"], "SMILES": "C(CCCC)#CCCO", "physical_data": {"Molecular Weight": "126.20", "Molecular Formula": "C8H14O", "Boiling Point": "97 \u00b0C", "Density": "0.8765 g/cm\u00b3 @ Temp: 20 \u00b0C"}}