{"cas_no": "14914-99-9", "cn_name": "\u80c6\u56fa\u9187\u6c22\u5316\u8089\u6842\u9178\u76d0", "en_name": ["Cholesteryl dihydrocinnamate", "Cholest-5-en-3-ol (3\u03b2)-, 3-benzenepropanoate", "Cholesterol, hydrocinnamate", "Cholest-5-en-3-ol (3\u03b2)-, benzenepropanoate", "Hydrocinnamic acid, cholesteryl ester", "Cholesteryl hydrocinnamate", "Cholesteryl 3-phenylpropionate", "Cholesteryl dihydrocinnamate"], "SMILES": "CC12C3C(C4C(C)(CC3)C(C(CCCC(C)C)C)CC4)CC=C1CC(OC(CCC5=CC=CC=C5)=O)CC2", "physical_data": {"Molecular Weight": "518.81", "Molecular Formula": "C36H54O2", "Melting Point": "99-100 \u00b0C"}}