{"cas_no": "14925-39-4", "cn_name": "2-\u6eb4\u4e19\u70ef\u919b", "en_name": ["2-Propenal, 2-bromo-", "2-Propenal, 2-bromo-", "Acrolein, 2-bromo-", "\u03b1-Bromoacrolein", "2-Bromopropenal", "2-Bromoacrolein", "2-Bromoacrylaldehyde", "2-Bromoprop-2-enal"], "SMILES": "C(C=O)(Br)=C", "physical_data": {"Molecular Weight": "134.96", "Molecular Formula": "C3H3BrO", "Boiling Point": "58 \u00b0C @ Press: 21 Torr"}}