{"cas_no": "14924-53-9", "cn_name": "\u73af\u4e01\u70f7\u7532\u9178\u4e59\u916f", "en_name": ["Ethyl cyclobutanecarboxylate", "Cyclobutanecarboxylic acid, ethyl ester", "Ethyl cyclobutanecarboxylate", "NSC 125691"], "SMILES": "C(OCC)(=O)C1CCC1", "physical_data": {"Molecular Weight": "128.17", "Molecular Formula": "C7H12O2", "Boiling Point": "159 \u00b0C", "Density": "0.9549 g/cm\u00b3 @ Temp: 20 \u00b0C"}}