{"cas_no": "14923-84-3", "cn_name": "1\uff0c6-\u4e8c\u6c28\u57fa\u8298", "en_name": ["1,6-Diaminopyrene", "1,6-Pyrenediamine", "1,6-Diaminopyrene"], "SMILES": "NC1=C2C3=C4C(C(N)=CC=C4C=C2)=CC=C3C=C1", "physical_data": {"Molecular Weight": "232.28", "Molecular Formula": "C16H12N2", "Melting Point": "232-233 \u00b0C"}}