{"cas_no": "1492-30-4", "cn_name": "\u68d5\u6988\u9178\u5bf9\u785d\u57fa\u82ef\u916f", "en_name": ["p-Nitrophenyl palmitate", "Hexadecanoic acid, 4-nitrophenyl ester", "Palmitic acid, p-nitrophenyl ester", "p-Nitrophenyl palmitate", "4-Nitrophenyl palmitate", "p-Nitrophenyl hexadecanoate", "4-Nitrophenyl hexadecanoate"], "SMILES": "O(C(CCCCCCCCCCCCCCC)=O)C1=CC=C(N(=O)=O)C=C1", "physical_data": {"Molecular Weight": "377.52", "Molecular Formula": "C22H35NO4", "Melting Point": "62-64 \u00b0C"}}