{"cas_no": "1492-24-6", "cn_name": "L-2-\u6c28\u57fa\u4e01\u9178", "en_name": ["(+)-\u03b1-Aminobutyric acid", "Butanoic acid, 2-amino-, (2S)-", "Butyric acid, 2-amino-, L-", "Butanoic acid, 2-amino-, (S)-", "(2S)-2-Aminobutanoic acid", "L-\u03b1-Amino-n-butyric acid", "L-\u03b1-Aminobutyric acid", "L-Butyrine", "L-2-Aminobutyric acid", "(S)-2-Aminobutyric acid", "(S)-(+)-\u03b1-Aminobutyric acid", "S-Butyrine", "L-2-Amino-n-butyric acid", "L-2-Aminobutanoic acid", "(S)-2-Aminobutanoic acid", "L-Ethylglycine", "2-Aminobutyric acid", "(+)-2-Aminobutyric acid", "(+)-\u03b1-Aminobutyric acid", "NSC 97060", "(+)-2-Aminobutanoic acid", "L-Homoalanine", "Aminobutyric acid, 2-"], "SMILES": "C(C(O)=O)(CC)N", "physical_data": {"Molecular Weight": "103.12", "Molecular Formula": "C4H9NO2", "Melting Point": "270-280 \u00b0C"}}