{"cas_no": "14923-17-2", "cn_name": "\u786b\u9178\u9b41\u86e4\u7d20", "en_name": ["Guanidine, N,N\u2032\u2032\u2032-1,4-butanediylbis-, sulfate (1:1)", "Guanidine, N,N\u2032\u2032\u2032-1,4-butanediylbis-, sulfate (1:1)", "Guanidine, 1,1\u2032-tetramethylenedi-, sulfate (1:1)", "1,4-Diguanidinobutane sulfate", "Arcaine sulfate", "1-(4-Guanidinobutyl)guanidine sulfate"], "SMILES": "C(NC(=N)N)CCCNC(=N)N.S(=O)(=O)(O)O", "physical_data": {"Molecular Weight": "", "Molecular Formula": "C6H16N6.H2O4S", "Melting Point": "244-246 \u00b0C"}}