{"cas_no": "14938-35-3", "cn_name": "4-\u620a\u57fa\u82ef\u915a", "en_name": ["4-Pentylphenol", "Phenol, 4-pentyl-", "Phenol, p-pentyl-", "4-Pentylphenol", "Amyl p-hydroxybenzene", "p-Amylphenol", "p-Pentylphenol", "4-Amylphenol", "4-n-Pentylphenol", "p-Hydroxy-n-pentylbenzene", "4-n-Amylphenol"], "SMILES": "C(CCCC)C1=CC=C(O)C=C1", "physical_data": {"Molecular Weight": "164.24", "Molecular Formula": "C11H16O", "Boiling Point": "250.5 \u00b0C", "Melting Point": "23 \u00b0C"}}