{"cas_no": "14933-08-5", "cn_name": "3-(N,N-\u4e8c\u7532\u57fa\u5341\u4e8c\u70f7\u57fa\u94f5)\u4e19\u70f7\u78fa\u9178\u76d0", "en_name": ["N-Dodecyl-N,N-dimethyl-3-ammonio-1-propanesulfonate", "1-Dodecanaminium, N,N-dimethyl-N-(3-sulfopropyl)-, inner salt", "Ammonium, dodecyldimethyl(3-sulfopropyl)-, hydroxide, inner salt", "1-Dodecanaminium, N,N-dimethyl-N-(3-sulfopropyl)-, hydroxide, inner salt", "3-(N,N-Dimethyl-N-dodecylammonio)propane-1-sulfonate", "3-(Dimethyldodecylammonio)propane-1-sulfonate", "Zwittergent 3-12", "N-Dodecylsulfobetaine", "ZWIG 12", "ZWT 12", "3-(N-Dodecyl-N,N-dimethylammonium)propane-1-sulfonic acid inner salt", "Zwittergent TM 3-12", "Zwittergent TM 12", "SB 3-12", "SB12", "Ralufon DL", "SB12 (quaternary compound)", "3-(N-Dodecyl-N,N-dimethylammonio)-1-propanesulfonate", "Sulfobetaine 12", "Hartomer HB 5175", "NDA", "Dodecyldimethyl(3-sulfopropyl)ammonium hydroxide inner salt", "3-(Dodecyldimethylammonio)-1-propanesulfonate", "\u03b1-(Dodecyldimethylammonio)-\u03c9-propanesulfonate", "Sulfobetain 12", "Dodecyldimethyl(3-sulfopropyl)ammonium hydroxide", "N-Dodecyl-N,N-dimethylammonio-3-propanesulfonate", "N-Dodecyl-N,N-dimethyl-3-ammonio-1-propanesulfonate", "DDAPS", "Dodecyldimethyl(3-sulfopropyl)ammonium inner salt", "Sulfobetaine 3-10", "3-(Dodecyldimethylammonio)propanesulfonate", "Laurylpropylsulfobetaine", "N-Dodecyl-N,N-dimethyl-3-ammonio-1-propanesulphonate", "ZW 3-12", "DPS", "3-(N,N-Dimethyl-N-laurylamino)propanesulfonic acid inner salt", "3-(N-Lauryl-N,N-dimethylamino)propanesulfonate inner salt", "Anzergent 3-12", "N-Dodecyl-N,N-dimethyl-3-ammonium-1-propanesulfonate", "3-(Dodecyldimethylammonio)propanesulfonate inner salt", "3-(N,N-Dimethyl-1-dodecylammonium)propanesulfonate", "SB 12", "SB 12 (onium compound)", "DSB", "C 12APS", "C12APS", "Dodecyldimethylammonium propanesulfonate", "Sulfobetaine 3-12"], "SMILES": "C([N+](CCCCCCCCCCCC)(C)C)CCS(=O)(=O)[O-]", "physical_data": {"Molecular Weight": "", "Molecular Formula": "C17H37NO3S", "Melting Point": "300-302 \u00b0C (decomp)"}}