{"cas_no": "1493-27-2", "cn_name": "1-\u6c1f-2-\u785d\u57fa\u82ef", "en_name": ["1-Fluoro-2-nitrobenzene", "Benzene, 1-fluoro-2-nitro-", "1-Fluoro-2-nitrobenzene", "o-Nitrofluorobenzene", "o-Fluoronitrobenzene", "2-Fluoronitrobenzene", "2-Nitrofluorobenzene", "2-Fluoro-1-nitrobenzene", "2-Nitro-1-fluorobenzene", "NSC 51869", "4-Fluoro-3-nitrobenzene", "3-Fluoro-2-nitrobenzene"], "SMILES": "N(=O)(=O)C1=C(F)C=CC=C1", "physical_data": {"Molecular Weight": "141.10", "Molecular Formula": "C6H4FNO2", "Boiling Point": "86-87 \u00b0C @ Press: 11 Torr", "Melting Point": "-6 \u00b0C", "Density": "1.3291 g/cm\u00b3 @ Temp: 25.00 \u00b0C"}}