{"cas_no": "14930-96-2", "cn_name": "\u7ec6\u80de\u677e\u5f1b\u7d20 B", "en_name": ["Cytochalasin B", "2H-Oxacyclotetradecino[2,3-d]isoindole-2,18(5H)-dione, 6,7,8,9,10,12a,13,14,15,15a,16,17-dodecahydro-5,13-dihydroxy-9,15-dimethyl-14-methylene-16-(phenylmethyl)-, (3E,5R,9R,11E,12aS,13S,15S,15aS,16S,18aS)-", "2H-Oxacyclotetradecino[2,3-d]isoindole-2,18(5H)-dione, 16-benzyl-6,7,8,9,10,12a,13,14,15,15a,16,17-dodecahydro-5,13-dihydroxy-9,15-dimethyl-14-methylene-, (E,E)-(5R,9R,12aS,13S,15S,15aS,16S,18aS)-", "24-Oxa[14]cytochalasa-6(12),13,21-triene-1,23-dione, 7,20-dihydroxy-16-methyl-10-phenyl-, (7S,13E,16R,20R,21E)-", "(3E,5R,9R,11E,12aS,13S,15S,15aS,16S,18aS)-6,7,8,9,10,12a,13,14,15,15a,16,17-Dodecahydro-5,13-dihydroxy-9,15-dimethyl-14-methylene-16-(phenylmethyl)-2H-oxacyclotetradecino[2,3-d]isoindole-2,18(5H)-dione", "Cytochalasin B", "Phomin", "2H-Oxacyclotetradecino[2,3-d]isoindole-2,18(5H)-dione, 6,7,8,9,10,12a,13,14,15,15a,16,17-dodecahydro-5,13-dihydroxy-9,15-dimethyl-14-methylene-16-(phenylmethyl)-, [5R-(3E,5R*,9R*,11E,12aS*,13S*,15S*,15aS*,16S*,18aS*)]-", "NSC 107658", "MeSH ID: D003571"], "SMILES": "O=C1C23C(C(CC4=CC=CC=C4)N1)C(C)C(=C)C(O)C2C=CCC(C)CCCC(O)C=CC(=O)O3", "physical_data": {"Molecular Weight": "479.61", "Molecular Formula": "C29H37NO5", "Melting Point": "218-221 \u00b0C"}}