{"cas_no": "1493-13-6", "cn_name": "\u4e09\u6c1f\u7532\u78fa\u9178", "en_name": ["Trifluoromethanesulfonic acid", "Methanesulfonic acid, 1,1,1-trifluoro-", "Methanesulfonic acid, trifluoro-", "1,1,1-Trifluoromethanesulfonic acid", "Perfluoromethanesulfonic acid", "Triflic acid", "Trifluoromethanesulfonic acid", "Trifluoromethylsulfonic acid", "Fluorad FC 24", "1,1,1-Trifluoro-1-methanesulfonic acid"], "SMILES": "C(S(=O)(=O)O)(F)(F)F", "physical_data": {"Molecular Weight": "150.08", "Molecular Formula": "CHF3O3S", "Boiling Point": "166 \u00b0C", "Melting Point": "&lt;25 \u00b0C", "Density": "1.69 g/cm\u00b3"}}