{"cas_no": "14933-78-9", "cn_name": "4-\u785d\u57fa\u5421\u5576-2-\u7532\u9178 1-\u6c27\u5316\u7269", "en_name": ["4-Nitropicolinic acid N-oxide", "2-Pyridinecarboxylic acid, 4-nitro-, 1-oxide", "Picolinic acid, 4-nitro-, 1-oxide", "4-Nitro-2-pyridinecarboxylic acid 1-oxide", "2-Carboxy-4-nitropyridine N-oxide", "4-Nitropicolinic acid N-oxide", "NSC 63059", "2-Carboxy-4-nitropyridin-1-ium-1-olate", "2-Carboxy-4-nitropyridine-1-oxide"], "SMILES": "C(O)(=O)C1=CC(N(=O)=O)=CC=N1=O", "physical_data": {"Molecular Weight": "184.11", "Molecular Formula": "C6H4N2O5", "Melting Point": "148 \u00b0C"}}