{"cas_no": "14936-66-4", "cn_name": "\u4e59\u91782-\u58ec\u916f", "en_name": ["2-Nonyl acetate", "2-Nonanol, 2-acetate", "2-Nonanol, acetate", "2-Nonyl acetate", "(\u00b1)-2-Nonanol acetate", "(\u00b1)-2-Nonyl acetate", "2-Nonanyl acetate"], "SMILES": "C(C(OC(C)=O)C)CCCCCC", "physical_data": {"Molecular Weight": "186.29", "Molecular Formula": "C11H22O2", "Boiling Point": "116 \u00b0C @ Press: 35 Torr"}}