{"cas_no": "14937-32-7", "cn_name": "1,2,3,4,6-O-\u4e94\u6ca1\u98df\u5b50\u9170\u8461\u8404\u7cd6", "en_name": ["Penta-O-galloyl-\u03b2-D-glucose", "\u03b2-D-Glucopyranose, 1,2,3,4,6-pentakis(3,4,5-trihydroxybenzoate)", "Glucopyranose, pentagallate, \u03b2-D-", "\u03b2-D-Glucopyranose, pentakis(3,4,5-trihydroxybenzoate)", "Gallic acid, pentaester with \u03b2-D-glucopyranose", "1,2,3,4,6-Pentagalloyl-\u03b2-D-glucose", "Penta-O-galloyl-\u03b2-D-glucopyranose", "Penta-O-galloyl-\u03b2-D-glucose", "\u03b2-1,2,3,4,6-Pentagalloylglucose", "1,2,3,4,6-Pentagalloyl-\u03b2-D-glucopyranose", "1,2,3,4,6-Penta-O-galloyl-\u03b2-D-glucopyranose", "1,2,3,4,6-Pentagalloyl-\u03b2-D-glucopyranoside", "Pentagalloyl-D-glucose", "Penta-O-galloylglucose", "Gallotannin 15", "1,2,3,4,6-Penta-O-galloyl-\u03b2-glucopyranose", "1,2,3,4,6-Penta-O-galloyl-\u03b2-D-glucose", "1,2,3,4,6-Penta-O-galloylglucose", "1,2,3,4,6-Penta-O-galloyl-\u03b2-D-glucopyranoside", "1,2,3,4,6-Penta-O-galloyl-\u03b2-D-glucoside", "G 7548", "DB 03208"], "SMILES": "O(C(=O)C1=CC(O)=C(O)C(O)=C1)C2C(OC(=O)C3=CC(O)=C(O)C(O)=C3)C(OC(=O)C4=CC(O)=C(O)C(O)=C4)OC(COC(=O)C5=CC(O)=C(O)C(O)=C5)C2OC(=O)C6=CC(O)=C(O)C(O)=C6", "physical_data": {"Molecular Weight": "940.68", "Molecular Formula": "C41H32O26", "Melting Point": "143 \u00b0C"}}