{"cas_no": "14948-96-0", "cn_name": "4-\u785d\u57fa\u82ef\u57fa-N-\u4e59\u9170-beta-D-\u534a\u4e73\u80fa", "en_name": ["p-Nitrophenyl-N-acetyl-\u03b2-D-galactosaminide", "\u03b2-D-Galactopyranoside, 4-nitrophenyl 2-(acetylamino)-2-deoxy-", "Galactopyranoside, p-nitrophenyl 2-acetamido-2-deoxy-, \u03b2-D-", "Galactopyranoside, p-nitrophenyl 2-acetamido-2-deoxy-", "4-Nitrophenyl 2-(acetylamino)-2-deoxy-\u03b2-D-galactopyranoside", "p-Nitrophenyl-N-acetyl-\u03b2-D-galactosaminide", "p-Nitrophenyl-\u03b2-N-acetylgalactosaminide", "p-Nitrophenyl-\u03b2-N-acetyl-D-galactoseaminide", "p-Nitrophenyl 2-acetamido-2-deoxy-\u03b2-D-galactopyranoside", "p-Nitrophenyl \u03b2-N-acetyl-D-galactosaminide", "p-Nitrophenyl \u03b2-D-N-acetylgalactosaminide"], "SMILES": "O(C1C(NC(C)=O)C(O)C(O)C(CO)O1)C2=CC=C(N(=O)=O)C=C2", "physical_data": {"Molecular Weight": "342.30", "Molecular Formula": "C14H18N2O8", "Melting Point": "197 \u00b0C"}}