{"cas_no": "149437-76-3", "cn_name": "4-(4-\u6c1f\u82ef\u7532\u9170\u57fa)\u4e01\u9178", "en_name": ["4-Fluoro-\u03b4-oxobenzenepentanoic acid", "Benzenepentanoic acid, 4-fluoro-\u03b4-oxo-", "4-Fluoro-\u03b4-oxobenzenepentanoic acid", "5-(4-Fluorophenyl)-5-oxopentanoic acid", "4-(4-Fluorobenzoyl)butyric acid", "4-(4-Fluorobenzoyl)butanoic acid"], "SMILES": "C(CCCC(O)=O)(=O)C1=CC=C(F)C=C1", "physical_data": {"Molecular Weight": "210.20", "Molecular Formula": "C11H11FO3", "Melting Point": "140-143 \u00b0C"}}