{"cas_no": "149409-57-4", "cn_name": "N,N-\u4e8c\u4e59\u57fa-2-(4-\u7532\u6c27\u57fa-3-\u82ef\u4e59\u57fa\u6c27\u57fa\u82ef\u57fa)\u4e59\u80fa\u76d0\u9178\u76d0", "en_name": ["4-Methoxy-3-(2-phenylethoxy)-N,N-dipropylbenzeneethanamine hydrochloride (1:1)", "Benzeneethanamine, 4-methoxy-3-(2-phenylethoxy)-N,N-dipropyl-, hydrochloride (1:1)", "Benzeneethanamine, 4-methoxy-3-(2-phenylethoxy)-N,N-dipropyl-, hydrochloride", "4-Methoxy-3-(2-phenylethoxy)-N,N-dipropylbenzeneethanamine hydrochloride (1:1)", "NE 100"], "SMILES": "O(CCC1=CC=CC=C1)C2=C(OC)C=CC(CCN(CCC)CCC)=C2.Cl", "physical_data": {"Molecular Weight": "", "Molecular Formula": "C23H33NO2.ClH", "Melting Point": "99-100 \u00b0C"}}