{"cas_no": "149402-51-7", "cn_name": "\u5149\u514b\u6d1b", "en_name": ["Photochlor", "3-Phorbinepropanoic acid, 14-ethyl-9-[1-(hexyloxy)ethyl]-4,8,13,18-tetramethyl-20-oxo-, (3S,4S)-", "(3S,4S)-14-Ethyl-9-[1-(hexyloxy)ethyl]-4,8,13,18-tetramethyl-20-oxo-3-phorbinepropanoic acid", "3-Devinyl-3-(1\u2032-hexyloxy)ethylpyropheophorbide A", "HPPH", "3-[1\u2032-(Hexyloxy)ethyl]-3-devinylpyropheophorbide a", "2-[1\u2032-(Hexyloxy)ethyl]-2-devinylpyropheophorbide a", "Photochlor", "2-(1-Hexyloxyethyl)-2-devinylpyropheophorbide a"], "SMILES": "C(CC(O)=O)C1C2=C3C4=C(C(=O)C3)C(C)=C(N4)C=C5C(CC)=C(C)C(=N5)C=C6NC(=CC(=N2)C1C)C(C)=C6C(OCCCCCC)C", "physical_data": {"Molecular Weight": "636.82", "Molecular Formula": "C39H48N4O4", "Melting Point": "165-167 \u00b0C"}}