{"cas_no": "14941-08-3", "cn_name": "\u67b8\u6a58\u7519", "en_name": ["Poncirin", "4H-1-Benzopyran-4-one, 7-[[2-O-(6-deoxy-\u03b1-L-mannopyranosyl)-\u03b2-D-glucopyranosyl]oxy]-2,3-dihydro-5-hydroxy-2-(4-methoxyphenyl)-, (2S)-", "Poncirin", "4H-1-Benzopyran-4-one, 7-[[2-O-(6-deoxy-\u03b1-L-mannopyranosyl)-\u03b2-D-glucopyranosyl]oxy]-2,3-dihydro-5-hydroxy-2-(4-methoxyphenyl)-, (S)-", "Neohesperidoside, isosakuranetin-7", "(2S)-7-[[2-O-(6-Deoxy-\u03b1-L-mannopyranosyl)-\u03b2-D-glucopyranosyl]oxy]-2,3-dihydro-5-hydroxy-2-(4-methoxyphenyl)-4H-1-benzopyran-4-one", "Isosakuranetin 7-neohesperidoside", "5,7-Dihydroxy-4\u2032-methoxyflavanone, 7-(2-O-\u03b1-L-rhamnopyranosyl-\u03b2-D-glucopyranoside)", "5,7-Dihydroxy-4\u2032-methoxyflavanone 7-neohesperidoside", "Isosakuranetin 7-O-\u03b2-neohesperidoside", "Isosakuranetin-7-O-\u03b2-D-neohesperidoside", "4\u2032-O-Methylnaringin", "Poncerin", "Citrifoliol-7-O-neohesperidoside"], "SMILES": "O=C1C=2C(OC(C1)C3=CC=C(OC)C=C3)=CC(OC4C(OC5C(O)C(O)C(O)C(C)O5)C(O)C(O)C(CO)O4)=CC2O", "physical_data": {"Molecular Weight": "594.56", "Molecular Formula": "C28H34O14", "Melting Point": "210-211 \u00b0C"}}