{"cas_no": "14959-32-1", "cn_name": "3-\u6c2f-6-\u7532\u57fa\u6c28\u57fa\u54d2\u55ea", "en_name": ["6-Chloro-N-methyl-3-pyridazinamine", "3-Pyridazinamine, 6-chloro-N-methyl-", "Pyridazine, 3-chloro-6-(methylamino)-", "6-Chloro-N-methyl-3-pyridazinamine", "3-Chloro-6-(methylamino)pyridazine"], "SMILES": "N(C)C1=CC=C(Cl)N=N1", "physical_data": {"Molecular Weight": "143.57", "Molecular Formula": "C5H6ClN3", "Melting Point": "198-199 \u00b0C"}}