{"cas_no": "149597-92-2", "cn_name": "L-3,3-\u4e8c\u82ef\u57fa\u4e19\u6c28\u9178", "en_name": ["\u03b2-Phenyl-L-phenylalanine", "L-Phenylalanine, \u03b2-phenyl-", "\u03b2-Phenyl-L-phenylalanine", "L-3,3-Diphenylalanine", "L-Diphenylalanine", "(2S)-2-Azaniumyl-3,3-diphenylpropanoate", "(S)-2-Amino-3,3-diphenylpropanoic acid"], "SMILES": "C(C(C(O)=O)N)(C1=CC=CC=C1)C2=CC=CC=C2", "physical_data": {"Molecular Weight": "241.29", "Molecular Formula": "C15H15NO2", "Melting Point": "234-240 \u00b0C"}}