{"cas_no": "14959-86-5", "cn_name": "(Z)-7-\u5341\u4e8c\u78b3\u70ef-1-\u9187\u4e59\u9178\u916f", "en_name": ["(Z)-7-Dodecenyl acetate", "7-Dodecen-1-ol, acetate, (7Z)-", "7-Dodecen-1-ol, acetate, (Z)-", "cis-7-Dodecenyl acetate", "cis-7-Dodecen-1-ol acetate", "cis-7-Dodecen-1-yl acetate", "Looplure", "(Z)-7-Dodecen-1-ol acetate", "cis-1-Acetoxy-7-dodecene", "(Z)-7-Dodecenyl acetate", "(Z)-7-Dodecen-1-yl acetate", "(Z)-1-Acetoxy-7-dodecene", "MK 26", "Z7-Dodecenyl acetate"], "SMILES": "C(CCC=CCCCC)CCCOC(C)=O", "physical_data": {"Molecular Weight": "226.35", "Molecular Formula": "C14H26O2", "Boiling Point": "98-100 \u00b0C"}}