{"cas_no": "14957-38-1", "cn_name": "\u9a6c\u5c14\u654f", "en_name": ["(+)-Marmin", "2H-1-Benzopyran-2-one, 7-[[(2E,6R)-6,7-dihydroxy-3,7-dimethyl-2-octen-1-yl]oxy]-", "Coumarin, 7-[(6,7-dihydroxy-3,7-dimethyl-2-octenyl)oxy]-", "2H-1-Benzopyran-2-one, 7-[(6,7-dihydroxy-3,7-dimethyl-2-octenyl)oxy]-, [R-(E)]-", "Marmin", "2H-1-Benzopyran-2-one, 7-[[(2E,6R)-6,7-dihydroxy-3,7-dimethyl-2-octenyl]oxy]-", "7-[[(2E,6R)-6,7-Dihydroxy-3,7-dimethyl-2-octen-1-yl]oxy]-2H-1-benzopyran-2-one", "(+)-Marmin"], "SMILES": "O(CC=C(CCC(C(C)(C)O)O)C)C=1C=C2C(=CC1)C=CC(=O)O2", "physical_data": {"Molecular Weight": "332.39", "Molecular Formula": "C19H24O5", "Melting Point": "123-124 \u00b0C"}}