{"cas_no": "149647-78-9", "cn_name": "\u4f0f\u7acb\u8bfa\u4ed6", "en_name": ["Vorinostat", "Octanediamide, N1-hydroxy-N8-phenyl-", "Octanediamide, N-hydroxy-N\u2032-phenyl-", "N1-Hydroxy-N8-phenyloctanediamide", "SAHA", "Suberoylanilide hydroxamic acid", "Vorinostat", "Zolinza", "N-Hydroxy-N\u2032-phenyloctanediamide", "Suberoyl anilide bishydroxamide", "WT 171"], "SMILES": "N(C(CCCCCCC(NO)=O)=O)C1=CC=CC=C1", "physical_data": {"Molecular Weight": "264.32", "Molecular Formula": "C14H20N2O3", "Melting Point": "159-160.5 \u00b0C"}}