{"cas_no": "14964-98-8", "cn_name": "1-(6-\u7f9f\u57fa-2,4-\u4e8c\u7532\u6c27\u57fa-3-\u7532\u57fa\u82ef\u57fa)\u4e59\u916e", "en_name": ["Bancroftinone", "Ethanone, 1-(6-hydroxy-2,4-dimethoxy-3-methylphenyl)-", "Acetophenone, 6\u2032-hydroxy-2\u2032,4\u2032-dimethoxy-3\u2032-methyl-", "1-(6-Hydroxy-2,4-dimethoxy-3-methylphenyl)ethanone", "6\u2032-Hydroxy-2\u2032,4\u2032-dimethoxy-3\u2032-methylacetophenone", "Bancroftinone", "5-Methylxanthoxylin", "1-(6-Hydroxy-2,4-dimethoxy-3-methylphenyl)ethan-1-one", "2\u2032,4\u2032-Dimethoxy-6\u2032-hydroxy-3\u2032-methylacetophenone"], "SMILES": "O(C)C1=C(C(C)=O)C(O)=CC(OC)=C1C", "physical_data": {"Molecular Weight": "210.23", "Molecular Formula": "C11H14O4", "Boiling Point": "110-112 \u00b0C @ Press: 0.2 Torr", "Melting Point": "35-36 \u00b0C"}}