{"cas_no": "14965-49-2", "cn_name": "\u7532\u57fa\u7898\u5316\u80fa", "en_name": ["Methanamine, hydriodide", "Methanamine, hydriodide", "Methylamine, hydriodide", "Methylammonium iodide", "Methylamine hydroiodide"], "SMILES": "CN.I", "physical_data": {"Molecular Weight": "", "Molecular Formula": "CH5N.HI", "Melting Point": "263-265 \u00b0C"}}