{"cas_no": "14970-87-7", "cn_name": "2,2\u2019-(1,2-\u4e59\u4e8c\u57fa\u53cc\u6c27\u4ee3)\u53cc\u4e59\u786b\u9187", "en_name": ["2,2\u2032-(Ethylenedioxy)diethanethiol", "Ethanethiol, 2,2\u2032-[1,2-ethanediylbis(oxy)]bis-", "Ethanethiol, 2,2\u2032-(ethylenedioxy)di-", "2,2\u2032-[1,2-Ethanediylbis(oxy)]bis[ethanethiol]", "1,2-Bis(2-mercaptoethoxy)ethane", "Triethylene glycol dimercaptan", "2,2\u2032-(Ethylenedioxy)diethanethiol", "1,2-Bis(2\u2032-mercaptoethoxy)ethane", "3,6-Dioxaoctane-1,8-dithiol", "Triethylene glycol dithiol", "1,8-Dimercapto-3,6-dioxaoctane", "DMDO", "Ethylene glycol di-2-mercaptoethyl ether", "NSC 94782", "3,6-Dioxa-1,8-dithiooctane", "3,6-Dioxy-1,8-Octanedithiol", "Ethylene glycol bis(2-mercaptoethyl) ether", "2-[2-(2-Sulfanylethoxy)ethoxy]ethanethiol", "3,6-Dioxa-1,8-octandithiol", "2,2-(Ethylenedioxy)diethanethiol", "MR 93"], "SMILES": "C(COCCS)OCCS", "physical_data": {"Molecular Weight": "182.30", "Molecular Formula": "C6H14O2S2", "Boiling Point": "125-131 \u00b0C @ Press: 5 Torr", "Density": "1.5030 g/cm\u00b3 @ Temp: 20 \u00b0C"}}