{"cas_no": "14979-39-6", "cn_name": "4-\u7532\u57fa-3-\u5e9a\u9187", "en_name": ["4-Methyl-3-heptanol", "3-Heptanol, 4-methyl-", "4-Methyl-3-heptanol", "NSC 93808"], "SMILES": "C(C(CC)O)(CCC)C", "physical_data": {"Molecular Weight": "130.23", "Molecular Formula": "C8H18O", "Boiling Point": "170 \u00b0C", "Melting Point": "-123 \u00b0C", "Density": "0.8268 g/cm\u00b3 @ Temp: 25 \u00b0C"}}