{"cas_no": "14977-61-8", "cn_name": "\u94ec\u9170\u6c2f", "en_name": ["(T-4)-Dichlorodioxochromium", "Chromium, dichlorodioxo-, (T-4)-", "Chromium, dichlorodioxo-", "Chromyl chloride", "(T-4)-Dichlorodioxochromium", "Chromium oxychloride (CrO2Cl2)", "Chromium chloride oxide (CrO2Cl2)", "Chromyl chloride (CrO2Cl2)", "Dichlorodioxochromium", "Chromium dioxide dichloride", "Chromium oxide chloride (CrO2Cl2)", "Chromium dichloride dioxide", "Chromium chloride oxide (CrCl2O2)", "Chromium oxychloride (CrCl2O2)", "Chromyl dichloride", "Chromyl chloride (CrCl2O2)", "Chromium(VI) dioxychloride"], "SMILES": "[Cr](Cl)(Cl)(=O)=O", "physical_data": {"Molecular Weight": "", "Molecular Formula": "Cl2CrO2", "Boiling Point": "117 \u00b0C", "Melting Point": "-96.5 \u00b0C", "Density": "1.91 g/cm\u00b3 @ Temp: 25 \u00b0C"}}