{"cas_no": "1497-17-2", "cn_name": "2-\u7532\u57fa-2-\u82ef\u57fa\u7425\u73c0\u9170\u4e9a\u80fa", "en_name": ["(\u00b1)-\u03b1-Methyl-\u03b1-phenylsuccinimide", "2,5-Pyrrolidinedione, 3-methyl-3-phenyl-", "Succinimide, 2-methyl-2-phenyl-", "3-Methyl-3-phenyl-2,5-pyrrolidinedione", "2-Methyl-2-phenylsuccinimide", "\u03b1-Methyl-\u03b1-phenylsuccinimide", "3-Methyl-3-phenylsuccinimide", "N-Demethylmethsuximide", "N-Desmethylmethsuximide", "Normesuximide", "(\u00b1)-\u03b1-Methyl-\u03b1-phenylsuccinimide", "N-Normethsuximide", "3-Methyl-3-phenylpyrrolidine-2,5-dione"], "SMILES": "CC1(CC(=O)NC1=O)C2=CC=CC=C2", "physical_data": {"Molecular Weight": "189.21", "Molecular Formula": "C11H11NO2", "Melting Point": "63-65 \u00b0C"}}