{"cas_no": "14976-57-9", "cn_name": "\u5bcc\u9a6c\u9178\u6c2f\u9a6c\u65af\u6c40", "en_name": ["Clemastine fumarate", "Pyrrolidine, 2-[2-[(1R)-1-(4-chlorophenyl)-1-phenylethoxy]ethyl]-1-methyl-, (2R)-, (2E)-2-butenedioate (1:1)", "Pyrrolidine, 2-[2-[(p-chloro-\u03b1-methyl-\u03b1-phenylbenzyl)oxy]ethyl]-1-methyl-, (+)-, fumarate (1:1)", "Pyrrolidine, 2-[2-[1-(4-chlorophenyl)-1-phenylethoxy]ethyl]-1-methyl-, [R-(R*,R*)]-, (E)-2-butenedioate (1:1)", "HS 592", "Tavegil", "(+)-2-[2-[(p-Chloro-\u03b1-methyl-\u03b1-phenylbenzyl)oxy]ethyl]-1-methylpyrrolidine fumarate", "Clemastine fumarate", "Clemastine hydrogen fumarate", "Tavegyl", "Agasten", "Tavist", "Meclastine fumarate", "Mecloprodine", "Telgin G", "Lacretin", "Kinotomin", "Marsthine", "Masletine", "Inbestan", "Lecasol", "Maikohis", "Piloral", "Alphamin", "Fuluminol", "Mallermin F", "Trabest", "Xolamin", "Anhistan", "Aloginan", "Reconin", "Bravegyl", "Telgin"], "SMILES": "C(=CC(O)=O)C(O)=O.C(OCCC1N(C)CCC1)(C)(C2=CC=C(Cl)C=C2)C3=CC=CC=C3", "physical_data": {"Molecular Weight": "", "Molecular Formula": "C21H26ClNO.C4H4O4", "Boiling Point": "154 \u00b0C @ Press: 0.02 Torr", "Melting Point": "177-178 \u00b0C"}}