{"cas_no": "1497-49-0", "cn_name": "\u620a\u4e8c\u70ef\u919b\u7f29\u4e8c\u82ef\u80fa\u76d0\u9178\u76d0", "en_name": ["Benzenamine, N-[5-(phenylamino)-2,4-pentadien-1-ylidene]-, hydrochloride (1:1)", "Benzenamine, N-[5-(phenylamino)-2,4-pentadien-1-ylidene]-, hydrochloride (1:1)", "Aniline, N,N\u2032-1,3-pentadien-1-yl-5-ylidenedi-, monohydrochloride", "Benzenamine, N-[5-(phenylamino)-2,4-pentadienylidene]-, monohydrochloride", "Aniline, N,N\u2032-1,3-pentadien-1-yl-5-ylidenedi-, hydrochloride", "Pentadienedianiline hydrochloride", "Glutaconaldehyde dianilide hydrochloride", "Glutaconaldehyde dianil chloride", "Glutaconic aldehyde dianil hydrochloride", "1-Phenylamino-5-phenylimino-1,3-pentadiene hydrochloride", "Glutacondianil hydrochloride", "Glutaconaldehydedianyl hydrochloride", "Glutaconic dialdehyde dianil hydrochloride", "Glutaconaldehyde dianil hydrochloride", "Glutaconaldehyde dianil hydrochloric acid salt"], "SMILES": "N(C=CC=CC=NC1=CC=CC=C1)C2=CC=CC=C2.Cl", "physical_data": {"Molecular Weight": "", "Molecular Formula": "C17H16N2.ClH", "Melting Point": "145-146 \u00b0C"}}