{"cas_no": "149806-06-4", "cn_name": "2-\u6eb4-5-\u919b\u57fa\u5421\u5576", "en_name": ["6-Bromo-3-pyridinecarboxaldehyde", "3-Pyridinecarboxaldehyde, 6-bromo-", "6-Bromo-3-pyridinecarboxaldehyde", "2-Bromo-5-pyridinecarboxaldehyde", "6-Bromonicotinaldehyde", "2-Bromo-5-formylpyridine", "3-Formyl-6-bromopyridine", "6-Bromopyridine-3-carbaldehyde", "2-Bromopyridine-5-carbaldehyde"], "SMILES": "C(=O)C=1C=CC(Br)=NC1", "physical_data": {"Molecular Weight": "186.01", "Molecular Formula": "C6H4BrNO", "Melting Point": "100.7-102.2 \u00b0C"}}