{"cas_no": "1498-88-0", "cn_name": "\u87ba[1,3,3-\u4e09\u7532\u57fa\u5432\u54da-(6'-\u785d\u57fa\u82ef\u5e76\u4e8c\u6c22\u5421\u5583)]", "en_name": ["1\u2032,3\u2032-Dihydro-1\u2032,3\u2032,3\u2032-trimethyl-6-nitrospiro[2H-1-benzopyran-2,2\u2032-[2H]indole]", "Spiro[2H-1-benzopyran-2,2\u2032-[2H]indole], 1\u2032,3\u2032-dihydro-1\u2032,3\u2032,3\u2032-trimethyl-6-nitro-", "Spiro[2H-1-benzopyran-2,2\u2032-indoline], 1\u2032,3\u2032,3\u2032-trimethyl-6-nitro-", "1\u2032,3\u2032-Dihydro-1\u2032,3\u2032,3\u2032-trimethyl-6-nitrospiro[2H-1-benzopyran-2,2\u2032-[2H]indole]", "1\u2032,3\u2032,3\u2032-Trimethyl-6-nitrospiro[2H-1-benzopyran-2,2\u2032-indoline]", "1,1,3-Trimethyl-6\u2032-nitrospiro[indoline-2,2\u2032-benzopyran]", "1,3,3-Trimethyl-2-(6-nitrospirobenzopyran-2-yl)indoline", "1,3,3-Trimethyl-6\u2032-nitrospiro[indoline-2,2\u2032-benzopyran]", "6\u2032-Nitro-1,3,3-trimethylspiro[indoline-2,2\u2032-2\u2032H-chromene]", "1,3,3-Trimethyl-6-nitrospiro(2H-1-benzopyran-2,2\u2032-indoline)", "1,3,3-Trimethyl-6\u2032-nitrospiro[indoline-2,2\u2032(2\u2032H)-chromene]", "1,3,3-Trimethyl-6-nitroindoline-2-spiro-2,2-benzopyran", "6\u2032-Nitro-1,3,3-trimethylspiro[2\u2032H-1\u2032-benzopyran-2\u2032,2-indoline]", "1,3,3-Trimethyl-6\u2032-nitrospiro(indolino-2,2\u2032-benzopyran)", "1,3,3-Trimethyl-2-indolino-2\u2032-spiro-6\u2032-nitrobenzo[b]pyran", "1,3,3-Trimethyl-6\u2032-nitrospiro[indole-2,2\u2032-benzopyran]", "1,3,3-Trimethyl-6\u2032-nitroindoline-2-spiro-2\u2032-benzopyran", "6-Nitro-1\u2032,3\u2032,3\u2032-trimethylspiro[2H-benzopyran-2,2\u2032-indoline]", "SP 1 (dye)", "SP 1", "1,3,3-Trimethylindolino-6\u2032-nitrospirobenzopyran", "6-Nitro-1\u2032,3\u2032,3\u2032-trimethylspiro[2H-1-benzopyran-2,2\u2032-indoline]", "6-Nitro-1\u2032,3\u2032,3\u2032-trimethylspiro[1H-1-benzopyran-2,2\u2032-indoline]", "2H-Spiro[6]nitrochromene-2,2\u2032-[1,3,3]trimethylindoline", "NSC 206176", "1\u2032,3\u2032,3\u2032-Trimethyl-6-nitrospiro[1(2H)-benzopyran-2,2\u2032-indoline]", "1,3,3-Trimethylindolino-6\u2032-nitrobenzopyrylospiran", "1,3,3-Trimethyindolino-6\u2032-nitrobenzopyry lospiran", "T 0366", "1,3,3-Trimethyl-6\u2032-nitro-indolinospirobenzopyran", "1\u2032,3\u2032,3\u2032-Trimethyl-6-nitro-1\u2032,3\u2032-dihydrospiro[chromene-2,2\u2032-indole]", "1\u2032,3\u2032,3\u2032-Trimethyl-6-nitrospiro[chromene-2,2\u2032-indole]", "1\u2032,3\u2032,3\u2032-Trimethyl-6-nitrospiro[chromene-2,2\u2032-indoline]"], "SMILES": "CC1(C)C2(N(C)C=3C1=CC=CC3)OC=4C(C=C2)=CC(N(=O)=O)=CC4", "physical_data": {"Molecular Weight": "322.36", "Molecular Formula": "C19H18N2O3", "Melting Point": "179-180 \u00b0C"}}