{"cas_no": "149845-06-7", "cn_name": "\u6c99\u594e\u62c9\u97e6", "en_name": ["Saquinavir mesylate", "Butanediamide, N1-[(1S,2R)-3-[(3S,4aS,8aS)-3-[[(1,1-dimethylethyl)amino]carbonyl]octahydro-2(1H)-isoquinolinyl]-2-hydroxy-1-(phenylmethyl)propyl]-2-[(2-quinolinylcarbonyl)amino]-, (2S)-, methanesulfonate (1:1)", "Butanediamide, N1-[3-[3-[[(1,1-dimethylethyl)amino]carbonyl]octahydro-2(1H)-isoquinolinyl]-2-hydroxy-1-(phenylmethyl)propyl]-2-[(2-quinolinylcarbonyl)amino]-, [3S-[2[1R*(R*),2S*],3\u03b1,4a\u03b2,8a\u03b2]]-, monomethanesulfonate (salt)", "Butanediamide, N1-[(1S,2R)-3-[(3S,4aS,8aS)-3-[[(1,1-dimethylethyl)amino]carbonyl]octahydro-2(1H)-isoquinolinyl]-2-hydroxy-1-(phenylmethyl)propyl]-2-[(2-quinolinylcarbonyl)amino]-, (2S)-, monomethanesulfonate (salt)", "Ro 31-8959/003", "Saquinavir mesylate", "Invirase"], "SMILES": "S(C)(=O)(=O)O.C(C(C(CC1=CC=CC=C1)NC(C(NC(=O)C2=NC3=C(C=C2)C=CC=C3)CC(N)=O)=O)O)N4C(C(NC(C)(C)C)=O)CC5C(C4)CCCC5", "physical_data": {"Molecular Weight": "", "Molecular Formula": "C38H50N6O5.CH4O3S", "Melting Point": "241 \u00b0C (decomp)"}}