{"cas_no": "149877-41-8", "cn_name": "\u8054\u82ef\u80bc\u916f", "en_name": ["Bifenazate", "Hydrazinecarboxylic acid, 2-(4-methoxy[1,1\u2032-biphenyl]-3-yl)-, 1-methylethyl ester", "1-Methylethyl 2-(4-methoxy[1,1\u2032-biphenyl]-3-yl)-hydrazinecarboxylate", "Isopropyl 3-(4-methoxy-3-biphenylyl)carbazate", "D 2341", "Bifenazate", "Floramite", "Acramite", "Lianbenjingzhi"], "SMILES": "N(NC(OC(C)C)=O)C=1C=C(C=CC1OC)C2=CC=CC=C2", "physical_data": {"Molecular Weight": "300.35", "Molecular Formula": "C17H20N2O3", "Melting Point": "120-124 \u00b0C", "Density": "1.31 g/cm\u00b3 @ Temp: 25 \u00b0C"}}