{"cas_no": "1498-96-0", "cn_name": "4-\u4e01\u6c27\u57fa\u82ef\u7532\u9178", "en_name": ["4-Butoxybenzoic acid", "Benzoic acid, 4-butoxy-", "Benzoic acid, p-butoxy-", "4-Butoxybenzoic acid", "p-Butoxybenzoic acid", "p-(Butyloxy)benzoic acid", "p-(n-Butyloxy)benzoic acid", "p-(n-Butoxy)benzoic acid", "4-(Butyloxy)benzoic acid", "4-(n-Butoxy)benzoic acid", "NSC 60247"], "SMILES": "O(CCCC)C1=CC=C(C(O)=O)C=C1", "physical_data": {"Molecular Weight": "194.23", "Molecular Formula": "C11H14O3", "Melting Point": "147-150 \u00b0C"}}