{"cas_no": "1498-51-7", "cn_name": "\u4e8c\u6c2f\u78f7\u9178\u4e59\u916f", "en_name": ["Ethyl phosphorodichloridate", "Phosphorodichloridic acid, ethyl ester", "Ethyl phosphorodichloridate", "Ethyl chlorophosphate, (EtO)Cl2PO", "Ethylphosphoric acid dichloride", "Dichloroethoxyphosphine oxide", "Ethyl dichlorophosphinate", "Ethyl dichlorophosphate", "Ethyl phosphoryl dichloride", "Ethoxyphosphoryl dichloride", "NSC 87531", "1-Dichlorophosphoryloxyethane"], "SMILES": "O(P(Cl)(Cl)=O)CC", "physical_data": {"Molecular Weight": "162.94", "Molecular Formula": "C2H5Cl2O2P", "Boiling Point": "96-104 \u00b0C @ Press: 0.2-0.8 Torr", "Melting Point": "-42.5 \u00b0C", "Density": "1.35 g/cm\u00b3 @ Temp: 19 \u00b0C"}}