{"cas_no": "1498-42-6", "cn_name": "\u4e59\u57fa\u4e8c\u6c2f\u78f7\u9178\u916f", "en_name": ["Phosphorodichloridous acid, ethyl ester", "Phosphorodichloridous acid, ethyl ester", "Ethyl phosphorodichloridite", "Dichloroethoxyphosphine", "Ethyl dichlorophosphinite", "Ethyl dichlorophosphite", "Dichloroethylphosphite", "Ethoxyphosphonous dichloride", "Ethoxyphosphorus dichloride"], "SMILES": "O(P(Cl)Cl)CC", "physical_data": {"Molecular Weight": "146.94", "Molecular Formula": "C2H5Cl2OP", "Boiling Point": "117-118 \u00b0C", "Density": "1.3300 g/cm\u00b3 @ Temp: 20 \u00b0C"}}