{"cas_no": "14984-21-5", "cn_name": "4,4'-\u4e8c\u82ef\u6c27\u57fa\u4e8c\u82ef\u7532\u916e", "en_name": ["4,4\u2032-Diphenoxybenzophenone", "Methanone, bis(4-phenoxyphenyl)-", "Benzophenone, 4,4\u2032-diphenoxy-", "Bis(4-phenoxyphenyl)methanone", "4,4\u2032-Diphenoxybenzophenone", "DPB"], "SMILES": "C(=O)(C1=CC=C(OC2=CC=CC=C2)C=C1)C3=CC=C(OC4=CC=CC=C4)C=C3", "physical_data": {"Molecular Weight": "366.41", "Molecular Formula": "C25H18O3", "Melting Point": "147 \u00b0C"}}