{"cas_no": "14986-21-1", "cn_name": "\u516d\u6c2f\u4e8c\u7845\u6c27\u70f7", "en_name": ["Hexachlorodisiloxane", "Disiloxane, 1,1,1,3,3,3-hexachloro-", "Disiloxane, hexachloro-", "1,1,1,3,3,3-Hexachlorodisiloxane", "Hexachlorodisiloxane", "Silicon chloride oxide (Si2OCl6)", "Silicon oxychloride (Si2OCl6)", "Trichloro(trichlorosiloxo)silane", "Bis(trichlorosilyl) oxide", "Bis(trichlorosilyl) ether", "Perchlorodisiloxane"], "SMILES": "O([Si](Cl)(Cl)Cl)[Si](Cl)(Cl)Cl", "physical_data": {"Molecular Weight": "284.89", "Molecular Formula": "Cl6OSi2", "Boiling Point": "137 \u00b0C", "Melting Point": "-33 \u00b0C", "Density": "1.575 g/cm\u00b3"}}