{"cas_no": "14984-76-0", "cn_name": "\u53cc\u6c1f\u78fa\u9170\u4e9a\u80fa\u94be\u76d0", "en_name": ["Imidodisulfuryl fluoride, potassium salt (1:1)", "Imidodisulfuryl fluoride, potassium salt (1:1)", "Imidodisulfuryl fluoride, potassium salt", "Potassium, [bis(fluorosulfonyl)amino]-", "Potassium bis(fluorosulfonyl)amide", "F 2 (antistatic agent)", "F 2", "Potassium bis(fluorosulfonyl)imide", "Potassium bis(fluorosulfonyl)imidate", "K-FSI"], "SMILES": "N(S(F)(=O)=O)S(F)(=O)=O.[K]", "physical_data": {"Molecular Weight": "", "Molecular Formula": "F2HNO4S2.K", "Melting Point": "96 \u00b0C"}}