{"cas_no": "14984-68-0", "cn_name": "\u76d0\u9178\u6c2f\u54cc\u65af\u4e01", "en_name": ["Cloperastine hydrochloride", "Piperidine, 1-[2-[(4-chlorophenyl)phenylmethoxy]ethyl]-, hydrochloride (1:1)", "Piperidine, 1-[2-[(p-chloro-\u03b1-phenylbenzyl)oxy]ethyl]-, hydrochloride", "Piperidine, 1-[2-[(4-chlorophenyl)phenylmethoxy]ethyl]-, hydrochloride", "p-Chlorobenzhydryl 2-(1-piperidyl)ethyl ether hydrochloride", "HT 11", "Hustazol", "Cloperastine hydrochloride", "Seki", "Nitossil", "Novotusil"], "SMILES": "C(OCCN1CCCCC1)(C2=CC=C(Cl)C=C2)C3=CC=CC=C3.Cl", "physical_data": {"Molecular Weight": "", "Molecular Formula": "C20H24ClNO.ClH", "Melting Point": "147.9 \u00b0C"}}