{"cas_no": "1499-17-8", "cn_name": "\u6c2f\u78f7\u9178-1,2-\u4e9a\u82ef\u57fa\u4e8c\u916f", "en_name": ["1,3,2-Benzodioxaphosphole, 2-chloro-, 2-oxide", "1,3,2-Benzodioxaphosphole, 2-chloro-, 2-oxide", "Phosphorochloridic acid, cyclic o-phenylene ester", "o-Phenylene phosphorochloridate", "Pyrocatechol, cyclic phosphorochloridate", "1,2-Phenylene phosphorochloridate ((C6H4O2)ClPO)", "Catechol cyclophosphorochloridate", "O,O-(o-Phenylene) chlorophosphate", "2-Chloro-1,3-dioxa-2-phosphaindan 2-oxide", "o-Phenylene chlorophosphate", "1,2-Phenylene phosphorochloridate", "2-Chloro-2-oxobenzo-1,3,2-dioxaphosphole", "2-Chloro-1,3,2-benzodioxaphosphole 2-oxide", "2-Chloro-2H-1,3,2\u03bb5-benzodioxaphosphol-2-one", "2-Chlorobenzo[d][1,3,2]dioxaphosphole 2-oxide"], "SMILES": "ClP1(=O)OC=2C(O1)=CC=CC2", "physical_data": {"Molecular Weight": "190.52", "Molecular Formula": "C6H4ClO3P", "Boiling Point": "73-75 \u00b0C @ Press: 0.02 Torr", "Melting Point": "58-59 \u00b0C"}}