{"cas_no": "1499-55-4", "cn_name": "L-\u8c37\u6c28\u9178-5-\u7532\u916f", "en_name": ["5-Methyl hydrogen L-glutamate", "L-Glutamic acid, 5-methyl ester", "Glutamic acid, 5-methyl ester, L-", "5-Methyl hydrogen L-glutamate", "L-Glutamic acid \u03b3-methyl ester", "\u03b3-Methyl L-glutamate", "5-Methyl L-glutamate", "Glutamic acid 5-methyl ester", "\u03b3-Methyl (S)-glutamate", "4(S)-Carboxy-4-aminobutanoic acid methyl ester", "\u03b3-Methyl L-glutamate", "NSC 12959", "(S)-2-Aminopentanedioic acid 5-methyl ester", "(S)-Glutamic acid 5-methyl ester", "(2S)-2-Amino-5-methoxy-5-oxo-pentanoic acid"], "SMILES": "C(CC(OC)=O)C(C(O)=O)N", "physical_data": {"Molecular Weight": "161.16", "Molecular Formula": "C6H11NO4", "Melting Point": "172.6-173.6 \u00b0C"}}