{"cas_no": "1499-21-4", "cn_name": "\u4e8c\u82ef\u57fa\u6b21\u81a6\u9170\u6c2f", "en_name": ["Diphenylphosphinic chloride", "Phosphinic chloride, P,P-diphenyl-", "Phosphinic chloride, diphenyl-", "P,P-Diphenylphosphinic chloride", "Diphenylphosphinic chloride", "Diphenylphosphinyl chloride", "Chlorodiphenylphosphine oxide", "Diphenylchlorophosphine oxide", "Diphenylphosphinic acid chloride", "Diphenylphosphorus oxychloride", "Diphenylphosphinoyl chloride", "NSC 175848", "Diphenylphosphonic chloride", "[Chloro(phenyl)phosphoryl]benzene"], "SMILES": "P(Cl)(=O)(C1=CC=CC=C1)C2=CC=CC=C2", "physical_data": {"Molecular Weight": "236.63", "Molecular Formula": "C12H10ClOP", "Boiling Point": "222 \u00b0C @ Press: 15 Torr", "Melting Point": "187 \u00b0C"}}