{"cas_no": "1499-10-1", "cn_name": "9,10-\u4e8c\u8054\u82ef\u84bd", "en_name": ["9,10-Diphenylanthracene", "Anthracene, 9,10-diphenyl-", "9,10-Diphenylanthracene", "DPA", "NSC 24861", "Cyalume Blue"], "SMILES": "C=1(C2=C(C(=C3C1C=CC=C3)C4=CC=CC=C4)C=CC=C2)C5=CC=CC=C5", "physical_data": {"Molecular Weight": "330.42", "Molecular Formula": "C26H18", "Melting Point": "246 \u00b0C"}}