{"cas_no": "14997-58-1", "cn_name": "N-Cbz-L-\u7ec4\u6c28\u9178", "en_name": ["N-[(Phenylmethoxy)carbonyl]-L-histidine", "L-Histidine, N-[(phenylmethoxy)carbonyl]-", "Histidine, N-carboxy-, N-benzyl ester, L-", "N-[(Phenylmethoxy)carbonyl]-L-histidine", "N-(Benzyloxycarbonyl)-L-histidine", "N-Carbobenzoxy-L-histidine", "N\u03b1-(Benzyloxycarbonyl)histidine", "N-Carbobenzoxyhistidine", "(Benzyloxycarbonyl)histidine", "N\u03b1-(Benzyloxycarbonyl)-L-histidine", "N-(Benzyloxycarbonyl)-S-histidine", "N-\u03b1-Carbobenzyloxy-L-histidine", "(2S)-2-[[(Benzyloxy)carbonyl]amino]-3-(1H-imidazol-4-yl)propanoic acid"], "SMILES": "C(CC1=CN=CN1)(NC(OCC2=CC=CC=C2)=O)C(O)=O", "physical_data": {"Molecular Weight": "289.29", "Molecular Formula": "C14H15N3O4", "Melting Point": "209 \u00b0C"}}