{"cas_no": "150-68-5", "cn_name": "\u706d\u8349\u9686", "en_name": ["3-(4-Chlorophenyl)-1,1-dimethylurea", "Urea, N\u2032-(4-chlorophenyl)-N,N-dimethyl-", "Urea, 3-(p-chlorophenyl)-1,1-dimethyl-", "N\u2032-(4-Chlorophenyl)-N,N-dimethylurea", "N-(p-Chlorophenyl)-N\u2032,N\u2032-dimethylurea", "1-(p-Chlorophenyl)-3,3-dimethylurea", "3-(p-Chlorophenyl)-1,1-dimethylurea", "3-(4-Chlorophenyl)-1,1-dimethylurea", "CMU", "1,1-Dimethyl-3-(p-chlorophenyl)urea", "Karmex Monuron Herbicide", "Karmex W. monuron herbicide", "Monuron", "Telvar", "Telvar Monuron Weedkiller", "Telvar W. monuron weedkiller", "N,N-Dimethyl-N\u2032-(4-chlorophenyl)urea", "N-(4-Chlorophenyl)-N\u2032,N\u2032-dimethylurea", "1-(4-Chlorophenyl)-3,3-dimethylurea", "1,1-Dimethyl-3-(4-chlorophenyl)urea", "NSC 8949", "N\u2032-p-Chlorophenyl-N,N-dimethylurea", "Chlorfenidim"], "SMILES": "N(C(N(C)C)=O)C1=CC=C(Cl)C=C1", "physical_data": {"Molecular Weight": "198.65", "Molecular Formula": "C9H11ClN2O", "Melting Point": "170.5-171.5 \u00b0C", "Density": "1.27 g/cm\u00b3 @ Temp: 20 \u00b0C"}}