{"cas_no": "150-38-9", "cn_name": "N,N\u2019-1,2-\u4e59\u70f7\u57fa\u53cc[N-(\u7fa7\u7532\u57fa)-\u7518\u6c28\u9178]\u4e09\u94a0\u76d0", "en_name": ["Trisodium EDTA", "Glycine, N,N\u2032-1,2-ethanediylbis[N-(carboxymethyl)-, sodium salt (1:3)", "Acetic acid, (ethylenedinitrilo)tetra-, trisodium salt", "Glycine, N,N\u2032-1,2-ethanediylbis[N-(carboxymethyl)-, trisodium salt", "EDTA trisodium salt", "Perma Kleer 50, trisodium salt", "Sequestrene trisodium", "Sequestrene trisodium salt", "Trilon AO", "Trisodium edetate", "Trisodium hydrogen ethylenediaminetetraacetate", "Trisodium hydrogen (ethylenedinitrilo)tetraacetate", "Trisodium versenate", "Versene 9", "Ethylenediaminetetraacetic acid trisodium salt", "Nevanaid-B powder", "Trisodium ethylenediaminetetraacetate", "Sequestrene Na3", "Edetate trisodium", "Trisodium EDTA", "Clewat 300A", "Trisodium ETDA", "Chelest C", "Limclair", "Sequestrene NA 3T", "EDTA-3Na", "Chelest 2CS", "Chelate C", "Zonon T", "Chelest 2C-SD", "Clewat 3Na", "EDTA trisodium"], "SMILES": "N(CCN(CC(O)=O)CC(O)=O)(CC(O)=O)CC(O)=O.[Na]", "physical_data": {"Molecular Weight": "", "Molecular Formula": "C10H16N2O8.3Na", "Melting Point": "&gt;300 \u00b0C"}}