{"cas_no": "150-39-0", "cn_name": "N-\u7f9f\u4e59\u57fa\u4e59\u4e8c\u80fa\u4e09\u4e59\u9178", "en_name": ["HEDTA", "Glycine, N-[2-[bis(carboxymethyl)amino]ethyl]-N-(2-hydroxyethyl)-", "Glycine, N-(carboxymethyl)-N\u2032-(2-hydroxyethyl)-N,N\u2032-ethylenedi-", "N-[2-[Bis(carboxymethyl)amino]ethyl]-N-(2-hydroxyethyl)glycine", "Chel DM Acid", "HEDTA", "HEEDTA", "N-(2-Hydroxyethyl)ethylenediaminetriacetic acid", "N\u2032-(2-Hydroxyethyl)ethylenediamine-N,N,N\u2032-triacetic acid", "(Hydroxyethyl)ethylenediaminetriacetic acid", "Hydroxyethylethylenediaminotriacetic acid", "N-(Hydroxyethyl)ethylenediaminetriacetic acid", "N-(Hydroxyethyl)ethylenediamine-N,N\u2032,N\u2032-triacetic acid", "N-(2-Hydroxyethyl)ethylenediamine-N,N\u2032,N\u2032-triacetic acid", "(2-Hydroxyethyl)ethylenediaminetriacetic acid", "Oxyethylethylenediaminetriacetic acid", "Detarol", "Hamp-OL", "Dissolvine H", "NSC 7341", "Chelest HA", "2-[2-[Bis(carboxymethyl)amino]ethyl-(2-hydroxyethyl)amino]acetic acid"], "SMILES": "N(CCN(CC(O)=O)CCO)(CC(O)=O)CC(O)=O", "physical_data": {"Molecular Weight": "278.26", "Molecular Formula": "C10H18N2O7", "Melting Point": "159 \u00b0C"}}