{"cas_no": "150-30-1", "cn_name": "DL-\u82ef\u4e19\u6c28\u9178", "en_name": ["DL-Phenylalanine", "Phenylalanine", "Alanine, phenyl-, DL-", "Alanine, \u03b2-phenyl-", "DL-\u03b2-Phenyl-\u03b1-alanine", "DL-Phenylalanine", "DL-\u03b1-Amino-\u03b2-phenylpropionic acid", "(\u00b1)-Phenylalanine", "DL-3-Phenylalanine", "(\u00b1)-\u03b2-Phenyl-\u03b1-alanine", "DL-2-Amino-3-phenylpropionic acid", "(\u00b1)-3-Phenyl-2-aminopropanoic acid", "2-Amino-3-phenylpropanoic acid", "NSC 9959", "DLPA", "DL-2-Amino-3-phenylpropanoic acid", "DL-Phenylalanine", "DL-3-Phenylalanine", "DL-2-Amino-3-phenylpropionic acid", "DL-2-Amino-3-phenylpropanoic acid", "DL-beta-Phenyl-alpha-alanine", "DL-Phenylalanine", "2-Azaniumyl-3-phenylpropanoate"], "SMILES": "C(C(C(O)=O)N)C1=CC=CC=C1", "physical_data": {"Molecular Weight": "165.19", "Molecular Formula": "C9H11NO2", "Melting Point": "186 \u00b0C (decomp)"}}