{"cas_no": "150-86-7", "cn_name": "\u690d\u7269\u9187", "en_name": ["Phytol", "2-Hexadecen-1-ol, 3,7,11,15-tetramethyl-, (2E,7R,11R)-", "Phytol", "2-Hexadecen-1-ol, 3,7,11,15-tetramethyl-, [R-[R*,R*-(E)]]-", "(2E,7R,11R)-3,7,11,15-Tetramethyl-2-hexadecen-1-ol", "3,7,11,15-Tetramethylhexadec-2-en-1-ol", "trans-Phytol", "(E)-Phytol", "(7R,11R,2E)-Phytol", "(E,R,R)-Phytol", "(7R,11R,E)-3,7,11,15-Tetramethylhexadec-2-en-1-ol", "MeSH ID: D010836"], "SMILES": "C(CCCC(CCCC(C)C)C)(CCCC(=CCO)C)C", "physical_data": {"Molecular Weight": "296.53", "Molecular Formula": "C20H40O", "Boiling Point": "203.5 \u00b0C", "Melting Point": "&lt;25 \u00b0C", "Density": "0.864 g/cm\u00b3 @ Temp: 0 \u00b0C"}}