{"cas_no": "150-75-4", "cn_name": "\u5bf9\u7532\u6c28\u57fa\u915a", "en_name": ["N-Methyl-p-aminophenol", "Phenol, 4-(methylamino)-", "Phenol, p-(methylamino)-", "4-(Methylamino)phenol", "p-(Methylamino)phenol", "N-Methyl-p-aminophenol", "N-Methyl-4-aminophenol", "p-Hydroxy-N-methylaniline", "N-Methyl-p-hydroxyaniline", "N-Methyl-4-hydroxyaniline", "4-Hydroxy-N-methylaniline", "NSC 7311"], "SMILES": "N(C)C1=CC=C(O)C=C1", "physical_data": {"Molecular Weight": "123.15", "Molecular Formula": "C7H9NO", "Melting Point": "87 \u00b0C"}}