{"cas_no": "150-60-7", "cn_name": "\u4e8c\u82c4\u57fa\u4e8c\u786b", "en_name": ["Dibenzyl disulfide", "Disulfide, bis(phenylmethyl)", "Benzyl disulfide", "Bis(phenylmethyl) disulfide", "Benzyl bisulfide", "\u03b1-(Benzyldithio)toluene", "Dibenzyl disulfide", "Di(phenylmethyl)disulfide", "1,4-Diphenyl-2,3-dithiabutane", "BDS", "Dibenzyl disulphide", "Dailube S 700", "S 700", "NSC 677465", "NSC 6841", "T 322", "1,2-Dibenzyldisulfane", "(Benzyldisulfanyl)methylbenzene"], "SMILES": "C(SSCC1=CC=CC=C1)C2=CC=CC=C2", "physical_data": {"Molecular Weight": "246.39", "Molecular Formula": "C14H14S2", "Boiling Point": "142-148 \u00b0C @ Press: 0.05-0.1 Torr", "Melting Point": "71.5 \u00b0C", "Density": "1.085 g/cm\u00b3 @ Temp: 100.2 \u00b0C"}}