{"cas_no": "150-84-5", "cn_name": "\u4e59\u9178\u9999\u8305\u916f", "en_name": ["Citronellyl acetate", "6-Octen-1-ol, 3,7-dimethyl-, 1-acetate", "Citronellol acetate", "6-Octen-1-ol, 3,7-dimethyl-, acetate", "Citronellyl acetate", "1-Acetoxy-3,7-dimethyloct-6-ene", "\u03b2-Citronellyl acetate", "8-Acetoxy-2,6-dimethyl-2-octene", "dl-Citronellol acetate", "(\u00b1)-Citronellyl acetate", "NSC 4893", "3,7-Dimethyl-6-octen-1-yl acetate", "\u03b2-Citronellol acetate", "Cephrol acetate", "O-Acetyl-\u03b2-citronellol", "3,7-Dimethyloct-6-enyl acetate"], "SMILES": "C(CCC=C(C)C)(CCOC(C)=O)C", "physical_data": {"Molecular Weight": "198.30", "Molecular Formula": "C12H22O2", "Boiling Point": "241 \u00b0C @ Press: 783 Torr", "Density": "0.8518 g/cm\u00b3 @ Temp: 20 \u00b0C"}}