{"cas_no": "150-13-0", "cn_name": "\u5bf9\u6c28\u57fa\u82ef\u7532\u9178", "en_name": ["4-Aminobenzoic acid", "Benzoic acid, 4-amino-", "Benzoic acid, p-amino-", "4-Aminobenzoic acid", "Amben", "p-Aminobenzoic acid", "Anticanitic vitamin", "Chromotrichia factor", "Anti-Chromotrichia factor", "PABA", "Paraminol", "Trichochromogenic factor", "Vitamin BX", "Vitamin H'", "p-Carboxyaniline", "Paranate", "p-Carboxyphenylamine", "4-Carboxyaniline", "PAB", "Hachemina", "Pabacyd", "Pabafilm", "Pabamine", "Romavit", "Aniline-4-carboxylic acid", "Sunbrella", "Antichromotrichia factor", "Anticantic vitamin", "Bacterial vitamin H1", "NSC 7627", "4-Carboxyphenylamine", "Actipol", "4-Aminobenzenecarboxylic acid", "p-Aminobenzenecarboxylic acid", "para-Aminobenzoates", "MeSH ID: D062366", "MeSH ID: D010129"], "SMILES": "C(O)(=O)C1=CC=C(N)C=C1", "physical_data": {"Molecular Weight": "137.14", "Molecular Formula": "C7H7NO2", "Boiling Point": "200 \u00b0C @ Press: 10 Torr", "Melting Point": "188.5 \u00b0C"}}