{"cas_no": "150-05-0", "cn_name": "D-\u80be\u4e0a\u817a\u7d20", "en_name": ["(+)-Epinephrine", "1,2-Benzenediol, 4-[(1S)-1-hydroxy-2-(methylamino)ethyl]-", "Benzyl alcohol, 3,4-dihydroxy-\u03b1-[(methylamino)methyl]-, (+)-", "1,2-Benzenediol, 4-[1-hydroxy-2-(methylamino)ethyl]-, (S)-", "4-[(1S)-1-Hydroxy-2-(methylamino)ethyl]-1,2-benzenediol", "d-Adrenaline", "(+)-Adrenaline", "(+)-1-(3,4-Dihydroxyphenyl)-2-methylaminoethanol", "(+)-Epinephrine", "(S)-Epinephrine", "D-Adrenaline", "D-Epinephrine", "(S)-Adrenaline", "d-Epinephrine", "(+)-(S)-Epinephrine", "D(+)-Adrenaline", "(S)-4-[1-Hydroxy-2-(methylamino)ethyl]pyrocatechol"], "SMILES": "C(CNC)(O)C1=CC(O)=C(O)C=C1", "physical_data": {"Molecular Weight": "183.20", "Molecular Formula": "C9H13NO3", "Melting Point": "213-215 \u00b0C (decomp)"}}