{"cas_no": "150-77-6", "cn_name": "N,N,N\u2019,N\u2019-\u56db\u4e59\u57fa\u4e59\u4e8c\u80fa", "en_name": ["N,N,N\u2032,N\u2032-Tetraethylethylenediamine", "1,2-Ethanediamine, N1,N1,N2,N2-tetraethyl-", "Ethylenediamine, N,N,N\u2032,N\u2032-tetraethyl-", "1,2-Ethanediamine, N,N,N\u2032,N\u2032-tetraethyl-", "N1,N1,N2,N2-Tetraethyl-1,2-ethanediamine", "N,N,N\u2032,N\u2032-Tetraethylethylenediamine", "N,N,N\u2032,N\u2032-Tetraethylethane-1,2-diamine", "1,2-Bis(diethylamino)ethane", "TEEDA", "[2-(Diethylamino)ethyl]diethylamine"], "SMILES": "N(CCN(CC)CC)(CC)CC", "physical_data": {"Molecular Weight": "172.31", "Molecular Formula": "C10H24N2", "Boiling Point": "192 \u00b0C", "Melting Point": "192 \u00b0C"}}