{"cas_no": "150-69-6", "cn_name": "(4-\u4e59\u6c27\u57fa\u82ef\u57fa)\u8132", "en_name": ["(4-Ethoxyphenyl)urea", "Urea, N-(4-ethoxyphenyl)-", "Urea, (p-ethoxyphenyl)-", "Urea, (4-ethoxyphenyl)-", "N-(4-Ethoxyphenyl)urea", "(p-Ethoxyphenyl)urea", "p-Phenetolcarbamide", "p-Phenetylurea", "Sucrol", "Valzin", "(4-Ethoxyphenyl)urea", "Dulcine", "Phenetolcarbamide", "1-(4-Ethoxyphenyl)urea", "4-Ureidophenetole", "Dulcin", "Dulcin (sweetener)", "NSC 1839"], "SMILES": "N(C(N)=O)C1=CC=C(OCC)C=C1", "physical_data": {"Molecular Weight": "180.20", "Molecular Formula": "C9H12N2O2", "Melting Point": "173.5 \u00b0C"}}