{"cas_no": "150-50-5", "cn_name": "\u8131\u53f6\u4e9a\u78f7", "en_name": ["Merphos", "Phosphorotrithious acid, tributyl ester", "Butyl phosphorotrithioite", "Folex", "Merphos", "Tributyl phosphorotrithioite", "Butyl phosphorotrithioite ((BuS)3P)", "Tributyl trithiophosphite", "Tris(butylthio)phosphine", "NSC 27720"], "SMILES": "P(SCCCC)(SCCCC)SCCCC", "physical_data": {"Molecular Weight": "298.51", "Molecular Formula": "C12H27PS3", "Boiling Point": "115-134 \u00b0C @ Press: 0.08 Torr", "Melting Point": "100 \u00b0C", "Density": "0.99-1.01 g/cm\u00b3 @ Temp: 20 \u00b0C"}}