{"cas_no": "150-19-6", "cn_name": "3-\u7532\u6c27\u57fa\u82ef\u915a", "en_name": ["3-Methoxyphenol", "Phenol, 3-methoxy-", "Phenol, m-methoxy-", "3-Methoxyphenol", "m-Methoxyphenol", "Resorcinol methyl ether", "Resorcinol monomethyl ether", "3-Hydroxyanisole", "1-Hydroxy-3-methoxybenzene", "m-Hydroxyanisole", "m-Guaiacol", "m-Hydroxyanisole", "m-Hydroxyanisol", "NSC 21735"], "SMILES": "O(C)C1=CC(O)=CC=C1", "physical_data": {"Molecular Weight": "124.14", "Molecular Formula": "C7H8O2", "Boiling Point": "244 \u00b0C", "Melting Point": "&lt;-17 \u00b0C", "Density": "1.052 g/cm\u00b3 @ Temp: 13 \u00b0C"}}