{"cas_no": "150-78-7", "cn_name": "\u5bf9\u82ef\u4e8c\u7532\u919a", "en_name": ["1,4-Dimethoxybenzene", "Benzene, 1,4-dimethoxy-", "Benzene, p-dimethoxy-", "1,4-Dimethoxybenzene", "p-Dimethoxybenzene", "DMB", "Hydroquinone dimethyl ether", "Quinol dimethyl ether", "p-Methoxyanisole", "4-Methoxyanisole", "Methyl p-methoxyphenyl ether", "1,4-Dimethoxybenzol", "p-Hydroquinone dimethyl ether", "Methyl 4-methoxyphenyl ether", "NSC 7483"], "SMILES": "O(C)C1=CC=C(OC)C=C1", "physical_data": {"Molecular Weight": "138.16", "Molecular Formula": "C8H10O2", "Boiling Point": "212.6 \u00b0C", "Melting Point": "58-60 \u00b0C", "Density": "1.0526 g/cm\u00b3 @ Temp: 55 \u00b0C"}}