{"cas_no": "150-59-4", "cn_name": "\u963f\u5c14\u7ef4\u6797", "en_name": ["Alverine", "Benzenepropanamine, N-ethyl-N-(3-phenylpropyl)-", "Dipropylamine, N-ethyl-3,3\u2032-diphenyl-", "N-Ethyl-N-(3-phenylpropyl)benzenepropanamine", "Alverine", "Bis(\u03b3-phenylpropyl)ethylamine", "Dipropylin", "Dipropyline", "Phenopropamine", "Profenil", "Sestron", "Sestron base", "Phenpropamine"], "SMILES": "C(CCN(CCCC1=CC=CC=C1)CC)C2=CC=CC=C2", "physical_data": {"Molecular Weight": "281.44", "Molecular Formula": "C20H27N", "Boiling Point": "165-168 \u00b0C @ Press: 0.3 Torr", "Melting Point": "&lt;25 \u00b0C"}}