{"cas_no": "150-96-9", "cn_name": "3-\u7f9f\u57fa-3-\u7532\u57fa\u620a\u9178", "en_name": ["3-Hydroxy-3-methylpentanoic acid", "Pentanoic acid, 3-hydroxy-3-methyl-", "Valeric acid, 3-hydroxy-3-methyl-", "3-Hydroxy-3-methylpentanoic acid", "\u03b2-Hydroxy-\u03b2-methylvaleric acid", "Deoxymevalonic acid", "DL-3-Hydroxy-3-methylpentanoic acid"], "SMILES": "C(C(CC)(C)O)C(O)=O", "physical_data": {"Molecular Weight": "132.16", "Molecular Formula": "C6H12O3", "Boiling Point": "138-139 \u00b0C @ Press: 18 Torr"}}