{"cas_no": "150-25-4", "cn_name": "N,N-\u4e8c\u7f9f\u4e59\u57fa\u7518\u6c28\u9178", "en_name": ["Bicine", "Glycine, N,N-bis(2-hydroxyethyl)-", "N,N-Bis(2-hydroxyethyl)glycine", "DHEG", "Diethanol glycine", "Diethylolglycine", "N,N-Di(2-hydroxyethyl)glycine", "Fe-3-Specific", "Bicine", "Dihydroxyethylglycine", "N,N-Bis(\u03b2-hydroxyethyl)glycine", "N,N-Dihydroxyethylglycine", "N,N-Bis(hydroxyethyl)glycine", "Bis(2-Hydroxyethyl)glycine", "N,N-Bis(2-hydroxyethyl)aminoacetic acid", "(Bis(2-hydroxyethyl)amino)acetic acid", "NSC 7342", "NSC 7512", "Chelest GA", "Bicin", "2-[Bis(2-hydroxyethyl)azaniumyl]acetate", "2-[Bis(2-hydroxyethyl)amino]acetic acid"], "SMILES": "N(CC(O)=O)(CCO)CCO", "physical_data": {"Molecular Weight": "163.17", "Molecular Formula": "C6H13NO4", "Melting Point": "194 \u00b0C (decomp)"}}