{"cas_no": "150-46-9", "cn_name": "\u787c\u9178\u4e09\u4e59\u916f", "en_name": ["Triethyl borate", "Boric acid (H3BO3), triethyl ester", "Ethyl borate ((EtO)3B)", "Triethyl borate", "Boron ethoxide", "Triethoxyborane", "Triethoxyboron", "Boron triethoxide", "Boron ethoxide (B(OEt)3)", "NSC 2055", "B 0520"], "SMILES": "B(OCC)(OCC)OCC", "physical_data": {"Molecular Weight": "145.99", "Molecular Formula": "C6H15BO3", "Boiling Point": "120 \u00b0C", "Melting Point": "-84.8 \u00b0C", "Density": "0.858 g/cm\u00b3"}}