{"cas_no": "150-61-8", "cn_name": "1,4-\u4e8c\u53e0\u6c2e\u53cc\u73af[2.2.2]\u8f9b\u70f7", "en_name": ["N,N\u2032-Diphenylethylenediamine", "1,2-Ethanediamine, N1,N2-diphenyl-", "Ethylenediamine, N,N\u2032-diphenyl-", "1,2-Ethanediamine, N,N\u2032-diphenyl-", "N1,N2-Diphenyl-1,2-ethanediamine", "1,2-Dianilinoethane", "N,N\u2032-Diphenyl-\u03b1,\u03c9-diaminoethane", "N,N\u2032-Diphenylethylenediamine", "NODX", "N,N\u2032-Diphenyl-1,2-ethylenediamine", "sym-Diphenylethylenediamine", "Benzenamine, N,N\u2032-1,2-ethanediylbis-", "N,N\u2032-Ethylenedianiline", "Stabilite", "N,N\u2032-Diphenyl-1,2-ethanediamine", "Stabilite (antioxidant)", "1,2-Bis(phenylamino)ethane", "N,N\u2032-Diphenyl-1,2-diaminoethane", "NSC 8719", "N1,N2-Diphenylethane-1,2-diamine", "1,2-Ethanediamine N1,N2-diphenyl-"], "SMILES": "N(CCNC1=CC=CC=C1)C2=CC=CC=C2", "physical_data": {"Molecular Weight": "212.29", "Molecular Formula": "C14H16N2", "Boiling Point": "178-182 \u00b0C @ Press: 2 Torr", "Melting Point": "74 \u00b0C"}}