{"cas_no": "150-76-5", "cn_name": "\u5bf9\u7f9f\u57fa\u82ef\u7532\u919a", "en_name": ["4-Methoxyphenol", "Phenol, 4-methoxy-", "Phenol, p-methoxy-", "4-Methoxyphenol", "Hydroquinone monomethyl ether", "Mequinol", "p-Methoxyphenol", "4-Hydroxyanisole", "p-Hydroxyanisole", "1-Hydroxy-4-methoxybenzene", "HQMME", "Hydroquinone methyl ether", "Leucobasal", "Leucodine B", "Mechinolum", "Novo-Dermoquinona", "p-Guaiacol", "PMF (antioxidant)", "p-Hydroxymethoxybenzene", "MEHQ", "p-Hydroxyanisol", "BMS 181158", "MQ-F", "NSC 4960", "4-MP", "p-Hydroxyphenyl methyl ether", "Hydroxyquinone methyl ether", "4-Hydroxyphenyl methyl ether", "MQ", "Methoquinone", "HQ-MME", "POEA 15", "MO 123"], "SMILES": "O(C)C1=CC=C(O)C=C1", "physical_data": {"Molecular Weight": "124.14", "Molecular Formula": "C7H8O2", "Boiling Point": "243 \u00b0C @ Press: 760 Torr", "Melting Point": "57 \u00b0C", "Density": "1.55 g/cm\u00b3 @ Temp: 20 \u00b0C"}}