{"cas_no": "1500-85-2", "cn_name": "4-\u6c28\u57fa-7H-\u5421\u54af[2,3-d]\u5627\u5576", "en_name": ["7-Deazaadenine", "7H-Pyrrolo[2,3-d]pyrimidin-4-amine", "7H-Pyrrolo[2,3-d]pyrimidine, 4-amino-", "1H-Pyrrolo[2,3-d]pyrimidin-4-amine", "1H-Pyrrolo[2,3-d]pyrimidine, 4-amino-", "7-Deazaadenine", "4-Aminopyrrolo[2,3-d]pyrimidine"], "SMILES": "NC1=C2C(=NC=N1)NC=C2", "physical_data": {"Molecular Weight": "134.14", "Molecular Formula": "C6H6N4", "Melting Point": "254-255 \u00b0C"}}