{"cas_no": "1501-05-9", "cn_name": "4-\u82ef\u7532\u9170\u57fa\u4e01\u9178", "en_name": ["\u03b4-Oxobenzenepentanoic acid", "Benzenepentanoic acid, \u03b4-oxo-", "Butyric acid, 4-benzoyl-", "\u03b4-Oxobenzenepentanoic acid", "4-Benzoylbutyric acid", "\u03b3-Benzoylbutyric acid", "5-Oxo-5-phenylpentanoic acid", "5-Phenyl-5-oxopentanoic acid", "5-Oxo-5-phenylvaleric acid", "4-Benzoylbutanoic acid", "5-Phenyl-5-oxovaleric acid", "NSC 10139"], "SMILES": "C(CCCC(O)=O)(=O)C1=CC=CC=C1", "physical_data": {"Molecular Weight": "192.21", "Molecular Formula": "C11H12O3", "Melting Point": "126.5-128 \u00b0C"}}