{"cas_no": "1501-82-2", "cn_name": "\u73af\u5341\u4e8c\u70ef", "en_name": ["Cyclododecene", "Cyclododecene", "1-Cyclododecene"], "SMILES": "C1CCCCCC=CCCCC1", "physical_data": {"Molecular Weight": "166.30", "Molecular Formula": "C12H22", "Boiling Point": "99 \u00b0C @ Press: 5 Torr", "Melting Point": "99-99.5 \u00b0C", "Density": "0.8776 g/cm\u00b3 @ Temp: 20 \u00b0C"}}