{"cas_no": "15016-43-0", "cn_name": "3-\u4e59\u70ef\u57fa\u82ef\u787c\u9178", "en_name": ["(3-Vinylphenyl)boronic acid", "Boronic acid, B-(3-ethenylphenyl)-", "Benzeneboronic acid, m-vinyl-", "Boronic acid, (3-ethenylphenyl)-", "B-(3-Ethenylphenyl)boronic acid", "(3-Vinylphenyl)boronic acid", "3-Ethenylphenylboronic acid"], "SMILES": "B(O)(O)C1=CC(C=C)=CC=C1", "physical_data": {"Molecular Weight": "147.97", "Molecular Formula": "C8H9BO2", "Melting Point": "145-160 \u00b0C"}}