{"cas_no": "15016-42-9", "cn_name": "2-\u4e59\u70ef\u82ef\u787c\u9178", "en_name": ["B-(2-Ethenylphenyl)boronic acid", "Boronic acid, B-(2-ethenylphenyl)-", "Benzeneboronic acid, o-vinyl-", "Boronic acid, (2-ethenylphenyl)-", "B-(2-Ethenylphenyl)boronic acid", "(2-Vinylphenyl)boronic acid", "2-Vinylbenzeneboronic acid", "Styrene-2-boronic acid"], "SMILES": "C(=C)C1=C(B(O)O)C=CC=C1", "physical_data": {"Molecular Weight": "147.97", "Molecular Formula": "C8H9BO2", "Melting Point": "108-109 \u00b0C"}}