{"cas_no": "1501-26-4", "cn_name": "4-\u6c2f\u7532\u9170\u57fa\u4e01\u9178\u7532\u916f", "en_name": ["Methyl 4-(chloroformyl)butyrate", "Pentanoic acid, 5-chloro-5-oxo-, methyl ester", "Butyric acid, 4-(chloroformyl)-, methyl ester", "Methyl glutaryl chloride", "\u03b3-(Carbomethoxy)butyryl chloride", "Methyl 4-(chloroformyl)butyrate", "4-(Methoxycarbonyl)butyryl chloride", "Glutaryl chloride methyl ester", "4-(Carbomethoxy)butyryl chloride", "Methyl 4-(chloroformyl)butanoate", "4-(Carbomethoxy)butanoyl chloride", "Methyl 5-chloro-5-oxopentanoate", "Methyl glutaroyl chloride", "Monomethyl glutaryl chloride", "Glutaric acid monomethyl ester chloride", "5-Chloro-5-oxopentanoic acid methyl ester", "Methyl 5-chloro-5-oxovalerate", "NSC 93892", "4-(Chlorocarbonyl)butanoic acid methyl ester", "4-Chlorocarbonylbutyric acid methyl ester", "Methyl 4-(chlorocarbonyl)butanoate", "4-(Chloroformyl)butyric acid methyl ester", "5-Methoxy-5-oxopentanoyl chloride"], "SMILES": "C(CCCC(Cl)=O)(OC)=O", "physical_data": {"Molecular Weight": "164.59", "Molecular Formula": "C6H9ClO3", "Boiling Point": "110 \u00b0C @ Press: 30 Torr"}}