{"cas_no": "1501-27-5", "cn_name": "\u620a\u4e8c\u9178\u5355\u7532\u916f", "en_name": ["Monomethyl glutarate", "Pentanedioic acid, 1-methyl ester", "Glutaric acid, monomethyl ester", "Pentanedioic acid, monomethyl ester", "Glutaric acid, methyl ester", "Monomethyl glutarate", "Methyl glutarate", "Methyl hydrogen glutarate", "Glutaric acid methyl half ester", "4-(Methoxycarbonyl)butyric acid", "4-Methoxycarbonylbutanoic acid", "4-Carboxybutanoic acid methyl ester", "NSC 93807", "5-Methoxy-5-oxopentanoic acid", "Monomethyl pentanedioate", "1,5-Pentanedioic acid monomethyl ester"], "SMILES": "C(CCCC(O)=O)(OC)=O", "physical_data": {"Molecular Weight": "146.14", "Molecular Formula": "C6H10O4", "Boiling Point": "150-151 \u00b0C @ Press: 10 Torr", "Density": "1.164 g/cm\u00b3 @ Temp: 13 \u00b0C"}}