{"cas_no": "1501-84-4", "cn_name": "\u76d0\u9178\u91d1\u521a\u4e59\u80fa", "en_name": ["Rimantadine hydrochloride", "Tricyclo[3.3.1.13,7]decane-1-methanamine, \u03b1-methyl-, hydrochloride (1:1)", "1-Adamantanemethylamine, \u03b1-methyl-, hydrochloride", "Tricyclo[3.3.1.13,7]decane-1-methanamine, \u03b1-methyl-, hydrochloride", "EXP 126", "\u03b1-Methyl-1-adamantanemethylamine hydrochloride", "Rimantadine hydrochloride", "1-(1-Aminoethyl)adamantane hydrochloride", "Remantadine", "Meradan", "Meradane", "JP 61", "Remantadin", "Flumadine", "Roflual", "NSC 206764", "1-(1-Adamantyl)ethylamine hydrochloride", "1-(Adamantan-1-yl)ethan-1-amine hydrochloride"], "SMILES": "C(C)(N)C12CC3CC(C1)CC(C2)C3.Cl", "physical_data": {"Molecular Weight": "", "Molecular Formula": "C12H21N.ClH", "Melting Point": "373-375 \u00b0C"}}