{"cas_no": "15014-25-2", "cn_name": "\u4e8c\u82c4\u57fa\u9a6c\u6765\u9178\u916f", "en_name": ["Dibenzyl malonate", "Propanedioic acid, 1,3-bis(phenylmethyl) ester", "Malonic acid, dibenzyl ester", "Propanedioic acid, bis(phenylmethyl) ester", "Dibenzyl malonate", "NSC 101027", "1,3-Dibenzyl propanedioate"], "SMILES": "C(OC(CC(OCC1=CC=CC=C1)=O)=O)C2=CC=CC=C2", "physical_data": {"Molecular Weight": "284.31", "Molecular Formula": "C17H16O4", "Boiling Point": "234-235 \u00b0C"}}