{"cas_no": "15018-56-1", "cn_name": "5-\u6eb4-6-\u7532\u57fa\u5c3f\u5627\u5576", "en_name": ["5-Bromo-6-methyl-2,4(1H,3H)-pyrimidinedione", "2,4(1H,3H)-Pyrimidinedione, 5-bromo-6-methyl-", "Uracil, 5-bromo-6-methyl-", "5-Bromo-6-methyl-2,4(1H,3H)-pyrimidinedione", "5-Bromo-6-methyluracil", "NSC 53064"], "SMILES": "BrC1=C(C)NC(=O)NC1=O", "physical_data": {"Molecular Weight": "205.01", "Molecular Formula": "C5H5BrN2O2", "Melting Point": "247 \u00b0C (decomp)"}}