{"cas_no": "1501-06-0", "cn_name": "\u4e59\u9170\u620a\u4e8c\u9178\u4e8c\u4e59\u916f", "en_name": ["Pentanedioic acid, 2-acetyl-, 1,5-diethyl ester", "Pentanedioic acid, 2-acetyl-, 1,5-diethyl ester", "Glutaric acid, 2-acetyl-, diethyl ester", "Pentanedioic acid, 2-acetyl-, diethyl ester", "Diethyl \u03b1-acetylglutarate", "Diethyl 2-acetylglutarate", "NSC 42535", "Diethyl 2-acetylpentanedioate", "1,5-Diethyl 2-acetylpentanedioate", "2-Acetyl-pentanedioic acid diethyl ester"], "SMILES": "C(CCC(OCC)=O)(C(OCC)=O)C(C)=O", "physical_data": {"Molecular Weight": "230.26", "Molecular Formula": "C11H18O5", "Boiling Point": "140-142 \u00b0C @ Press: 7 Torr", "Density": "1.0695 g/cm\u00b3 @ Temp: 19 \u00b0C"}}