{"cas_no": "15018-66-3", "cn_name": "\u55b9\u5549-4-\u80fa", "en_name": ["4-Quinazolinamine", "4-Quinazolinamine", "Quinazoline, 4-amino-", "4-Aminoquinazoline", "4-Quinazolineamine", "Quinazolin-4-ylamine", "NSC 288012"], "SMILES": "NC=1C2=C(N=CN1)C=CC=C2", "physical_data": {"Molecular Weight": "145.16", "Molecular Formula": "C8H7N3", "Melting Point": "272 \u00b0C"}}