{"cas_no": "1502-22-3", "cn_name": "2-(1-\u73af\u5df1\u70ef\u57fa)\u73af\u5df1\u916e", "en_name": ["Cyclohexenylcyclohexanone", "Cyclohexanone, 2-(1-cyclohexen-1-yl)-", "2-(1-Cyclohexen-1-yl)cyclohexanone", "2-(Cyclohex-1-enyl)cyclohexanone", "CHCH", "1-(2-Oxocyclohexyl)cyclohexene", "NSC 518776", "Cyclohexenylcyclohexanone", "2-(Cyclohex-1-en-1-yl)cyclohexan-1-one"], "SMILES": "O=C1C(C=2CCCCC2)CCCC1", "physical_data": {"Molecular Weight": "178.27", "Molecular Formula": "C12H18O", "Boiling Point": "265 \u00b0C", "Melting Point": "-78 \u00b0C", "Density": "1.015 g/cm\u00b3 @ Temp: 19 \u00b0C"}}