{"cas_no": "15029-36-4", "cn_name": "2-\u6c30\u57fa-N-\u4e59\u57fa\u4e59\u9170\u80fa", "en_name": ["2-Cyano-N-ethylacetamide", "Acetamide, 2-cyano-N-ethyl-", "2-Cyano-N-ethylacetamide", "N-Ethylcyanoacetamide", "Cyanoacetic acid ethylamide", "NSC 112760", "N-Ethyl-2-cyanoacetamide"], "SMILES": "C(CC#N)(NCC)=O", "physical_data": {"Molecular Weight": "112.13", "Molecular Formula": "C5H8N2O", "Melting Point": "74 \u00b0C"}}