{"cas_no": "1502-03-0", "cn_name": "\u73af\u5341\u4e8c\u80fa", "en_name": ["Cyclododecanamine", "Cyclododecanamine", "Cyclododecylamine", "NSC 524958"], "SMILES": "NC1CCCCCCCCCCC1", "physical_data": {"Molecular Weight": "183.33", "Molecular Formula": "C12H25N", "Boiling Point": "125-140 \u00b0C", "Melting Point": "28 \u00b0C"}}