{"cas_no": "15029-30-8", "cn_name": "1-\u6c30\u57fa\u4e59\u9170\u54cc\u5576", "en_name": ["\u03b2-Oxo-1-piperidinepropanenitrile", "1-Piperidinepropanenitrile, \u03b2-oxo-", "Piperidine, 1-(cyanoacetyl)-", "1-Piperidinepropionitrile, \u03b2-oxo-", "\u03b2-Oxo-1-piperidinepropanenitrile", "Cyanoacetopiperidide", "1-(Cyanoacetyl)piperidine", "Piperidinocarbonylacetonitrile", "Cyanoacetic acid piperidide", "NSC 102772", "3-Oxo-3-(piperidin-1-yl)propanenitrile", "3-Oxo-3-piperidin-1-yl-propionitrile"], "SMILES": "C(CC#N)(=O)N1CCCCC1", "physical_data": {"Molecular Weight": "152.19", "Molecular Formula": "C8H12N2O", "Melting Point": "88-89 \u00b0C"}}