{"cas_no": "1502-06-3", "cn_name": "\u73af\u7678\u916e", "en_name": ["Cyclodecanone", "Cyclodecanone", "NSC 90293"], "SMILES": "O=C1CCCCCCCCC1", "physical_data": {"Molecular Weight": "154.25", "Molecular Formula": "C10H18O", "Boiling Point": "100-102 \u00b0C @ Press: 12 Torr", "Melting Point": "28 \u00b0C"}}