{"cas_no": "15028-41-8", "cn_name": "\u0391-\u6c28\u57fa\u5f02\u4e01 \u9178 \u7532\u57fa \u916f \u76d0\u9178\u76d0", "en_name": ["\u03b1-Aminoisobutyric acid methyl ester hydrochloride", "Alanine, 2-methyl-, methyl ester, hydrochloride (1:1)", "Alanine, 2-methyl-, methyl ester, hydrochloride", "Methyl \u03b1-aminoisobutyrate hydrochloride", "2-Methylalanine methyl ester hydrochloride", "Methyl 2-aminoisobutyrate hydrochloride", "2,2-Dimethylglycine methyl ester hydrochloride", "\u03b1-Aminoisobutyric acid methyl ester hydrochloride", "Methyl 2-amino-2-methylpropanoate hydrochloride", "2-Aminoisobutyric acid methyl ester hydrochloride", "2-Amino-2-methylpropionic acid methyl ester hydrochloride", "2-Aminoisobutanoic acid methyl ester hydrochloride", "Methyl 2-aminoisobutanoate hydrochloride", "2-Amino-2-methylpropanoic acid methyl ester hydrochloride", "Methyl 2-amino-2-methylpropanoate hydrochloride salt", "Propionic acid, 2-hydrazino-2-methyl-, methyl ester, monohydrochloride", "Propanoic acid, 2-hydrazinyl-2-methyl-, methyl ester, hydrochloride (1:1)"], "SMILES": "C(C(C)(C)N)(OC)=O.Cl", "physical_data": {"Molecular Weight": "", "Molecular Formula": "C5H11NO2.ClH", "Melting Point": "183-184 \u00b0C"}}