{"cas_no": "15029-32-0", "cn_name": "N-\u6c30\u4e59\u9170\u57fa\u5417\u5561\u5549", "en_name": ["4-(Cyanoacetyl)morpholine", "4-Morpholinepropanenitrile, \u03b2-oxo-", "Morpholine, 4-(cyanoacetyl)-", "4-Morpholinepropionitrile, \u03b2-oxo-", "\u03b2-Oxo-4-morpholinepropanenitrile", "4-(Cyanoacetyl)morpholine", "N-(Cyanoacetyl)morpholine", "(Morpholinocarbonyl)acetonitrile", "Cyanoacetic acid morpholide", "NSC 22791", "3-(4-Morpholinyl)-3-oxopropanenitrile", "(Morpholin-4-ylcarbonyl)acetonitrile", "3-Morpholin-4-yl-3-oxopropionitrile", "3-Morpholino-3-oxopropanenitrile", "2-Isocyano-1-morpholinoethan-1-one"], "SMILES": "C(CC#N)(=O)N1CCOCC1", "physical_data": {"Molecular Weight": "154.17", "Molecular Formula": "C7H10N2O2", "Melting Point": "87 \u00b0C"}}