{"cas_no": "15022-08-9", "cn_name": "\u78b3\u9178\u4e8c\u7a00\u4e19\u916f", "en_name": ["Allyl carbonate", "Carbonic acid, di-2-propen-1-yl ester", "Carbonic acid, di-2-propenyl ester", "Carbonic acid, diallyl ester", "Diallyl carbonate", "Allyl carbonate", "NSC 19177"], "SMILES": "C(OCC=C)(OCC=C)=O", "physical_data": {"Molecular Weight": "142.15", "Molecular Formula": "C7H10O3", "Boiling Point": "142 \u00b0C", "Melting Point": "&lt;25 \u00b0C"}}