{"cas_no": "1502-24-5", "cn_name": "2,3-\u4e8c\u7532\u57fa\u73af\u5df1\u9187", "en_name": ["2,3-Dimethylcyclohexanol", "Cyclohexanol, 2,3-dimethyl-", "2,3-Dimethylcyclohexanol", "2,3-Dimethylcyclohexan-1-ol"], "SMILES": "CC1C(C)CCCC1O", "physical_data": {"Molecular Weight": "128.21", "Molecular Formula": "C8H16O", "Boiling Point": "77-79 \u00b0C @ Press: 12 Torr"}}