{"cas_no": "150281-47-3", "cn_name": "4-\u5421\u54af\u70f7-3-\u57fa\u5421\u5576", "en_name": ["4-(3-Pyrrolidinyl)pyridine", "Pyridine, 4-(3-pyrrolidinyl)-", "4-(3-Pyrrolidinyl)pyridine", "3-(4-Pyridyl)pyrrolidine", "4-(Pyrrolidin-3-yl)pyridine", "3-(Pyridin-4-yl)pyrrolidine"], "SMILES": "C1(CCNC1)C=2C=CN=CC2", "physical_data": {"Molecular Weight": "148.21", "Molecular Formula": "C9H12N2", "Boiling Point": "112 \u00b0C @ Press: 2 Torr"}}