{"cas_no": "150321-92-9", "cn_name": "7-\u7532\u6c27\u57fa\u9999\u8c46\u7d20-3-\u7fa7\u9178\u7425\u73c0\u9170\u4e9a\u80fa\u916f", "en_name": ["2,5-Dioxo-1-pyrrolidinyl 7-methoxy-2-oxo-2H-1-benzopyran-3-carboxylate", "2H-1-Benzopyran-3-carboxylic acid, 7-methoxy-2-oxo-, 2,5-dioxo-1-pyrrolidinyl ester", "2,5-Pyrrolidinedione, 1-[[(7-methoxy-2-oxo-2H-1-benzopyran-3-yl)carbonyl]oxy]-", "2,5-Dioxo-1-pyrrolidinyl 7-methoxy-2-oxo-2H-1-benzopyran-3-carboxylate", "Succinimidyl 7-methoxy-2H-chromene-3-carboxylate", "7-Methoxycoumarin-3-carboxylic acid succinimidyl ester", "(2,5-Dioxopyrrolidin-1-yl) 7-methoxy-2-oxochromene-3-carboxylate", "2,5-Dioxopyrrolidin-1-yl 7-methoxy-2-oxo-2H-chromene-3-carboxylate"], "SMILES": "C(ON1C(=O)CCC1=O)(=O)C2=CC=3C(OC2=O)=CC(OC)=CC3", "physical_data": {"Molecular Weight": "317.25", "Molecular Formula": "C15H11NO7", "Melting Point": "182-184 \u00b0C"}}