{"cas_no": "150399-23-8", "cn_name": "\u57f9\u7f8e\u66f2\u585e\u4e8c\u94a0", "en_name": ["L-Glutamic acid, N-[4-[2-(2-amino-4,7-dihydro-4-oxo-3H-pyrrolo[2,3-d]pyrimidin-5-yl)ethyl]benzoyl]-, sodium salt (1:2)", "L-Glutamic acid, N-[4-[2-(2-amino-4,7-dihydro-4-oxo-3H-pyrrolo[2,3-d]pyrimidin-5-yl)ethyl]benzoyl]-, sodium salt (1:2)", "L-Glutamic acid, N-[4-[2-(2-amino-4,7-dihydro-4-oxo-1H-pyrrolo[2,3-d]pyrimidin-5-yl)ethyl]benzoyl]-, disodium salt", "1H-Pyrrolo[2,3-d]pyrimidine, L-glutamic acid deriv.", "Tifolar", "Pemetrexed disodium", "Rolazar", "LY 231514", "Alimta", "LY 231514 disodium", "Pemetrexed sodium"], "SMILES": "C(CC1=CC=C(C(NC(CCC(O)=O)C(O)=O)=O)C=C1)C=2C3=C(NC2)NC(N)=NC3=O.[Na]", "physical_data": {"Molecular Weight": "", "Molecular Formula": "C20H21N5O6.2Na", "Melting Point": "&gt;260 \u00b0C"}}