{"cas_no": "150374-95-1", "cn_name": "N-[2-[[[4-(2,2-\u4e8c\u7532\u57fa-1-\u6c27\u4ee3\u4e19\u6c27\u57fa)\u82ef\u57fa]\u78fa\u9170]\u6c28\u57fa]\u82ef\u7532\u9170]-(S)-\u7518\u6c28\u9178\u5355\u94a0\u76d0", "en_name": ["Propanoic acid, 2,2-dimethyl-, 4-[[[2-[[(carboxymethyl)amino]carbonyl]phenyl]amino]sulfonyl]phenyl ester, sodium salt (1:1)", "Propanoic acid, 2,2-dimethyl-, 4-[[[2-[[(carboxymethyl)amino]carbonyl]phenyl]amino]sulfonyl]phenyl ester, sodium salt (1:1)", "Glycine, N-[2-[[[4-(2,2-dimethyl-1-oxopropoxy)phenyl]sulfonyl]amino]benzoyl]-, monosodium salt", "ONO 5046-Na", "Sivelestat sodium", "Sodium sivelestat"], "SMILES": "C(NCC(O)=O)(=O)C1=C(NS(=O)(=O)C2=CC=C(OC(C(C)(C)C)=O)C=C2)C=CC=C1.[Na]", "physical_data": {"Molecular Weight": "", "Molecular Formula": "C20H22N2O7S.Na", "Melting Point": "104-108 \u00b0C"}}