{"cas_no": "15031-78-4", "cn_name": "2-(4-\u5421\u5576\u57fa)-2-\u4e19\u9187", "en_name": ["\u03b1,\u03b1-Dimethyl-4-pyridinemethanol", "4-Pyridinemethanol, \u03b1,\u03b1-dimethyl-", "\u03b1,\u03b1-Dimethyl-4-pyridinemethanol", "4-Pyridyldimethylcarbinol", "Dimethyl-4-pyridylcarbinol", "2-(4-Pyridyl)-2-propanol", "2-Pyridin-4-ylpropan-2-ol", "2-(Pyridin-4-yl)propan-2-ol"], "SMILES": "C(C)(C)(O)C=1C=CN=CC1", "physical_data": {"Molecular Weight": "137.18", "Molecular Formula": "C8H11NO", "Boiling Point": "136 \u00b0C @ Press: 25 Torr", "Melting Point": "136 \u00b0C"}}