{"cas_no": "1503-49-7", "cn_name": "4-\u6c30\u57fa\u82ef\u7532\u916e", "en_name": ["4-Cyanobenzophenone", "Benzonitrile, 4-benzoyl-", "Benzonitrile, p-benzoyl-", "4-Benzoylbenzonitrile", "p-Cyanobenzophenone", "4-Cyanobenzophenone", "p-Benzoylbenzonitrile", "p-Cyanophenyl phenyl ketone", "(4-Cyanophenyl)phenylmethanone", "4-Cyanophenyl phenyl ketone"], "SMILES": "C(=O)(C1=CC=C(C#N)C=C1)C2=CC=CC=C2", "physical_data": {"Molecular Weight": "207.23", "Molecular Formula": "C14H9NO", "Melting Point": "107-108 \u00b0C"}}