{"cas_no": "1504-55-8", "cn_name": "2-\u7532\u57fa-3-\u82ef\u57fa-2-\u4e19\u70ef-1-\u9187", "en_name": ["2-Methyl-3-phenyl-2-propen-1-ol", "2-Propen-1-ol, 2-methyl-3-phenyl-", "2-Methyl-3-phenyl-2-propen-1-ol", "\u03b1-Methylcinnamyl alcohol", "2-Methyl-3-phenyl-2-propenol"], "SMILES": "C(=C(CO)C)C1=CC=CC=C1", "physical_data": {"Molecular Weight": "148.20", "Molecular Formula": "C10H12O", "Boiling Point": "85-88 \u00b0C", "Melting Point": "24-25 \u00b0C"}}