{"cas_no": "15045-43-9", "cn_name": "2,2,5,5-\u56db\u7532\u57fa\u56db\u6c22\u544b\u5583", "en_name": ["2,2,5,5-Tetramethyltetrahydrofuran", "Furan, tetrahydro-2,2,5,5-tetramethyl-", "Tetrahydro-2,2,5,5-tetramethylfuran", "2,2,5,5-Tetramethyltetrahydrofuran", "2,2,5,5-Tetramethyloxolane"], "SMILES": "CC1(C)OC(C)(C)CC1", "physical_data": {"Molecular Weight": "128.21", "Molecular Formula": "C8H16O", "Boiling Point": "112 \u00b0C", "Density": "0.8013 g/cm\u00b3 @ Temp: 420 \u00b0C"}}