{"cas_no": "1504-74-1", "cn_name": "2'-\u7532\u6c27\u57fa\u8089\u6842\u919b", "en_name": ["2-Methoxycinnamaldehyde", "2-Propenal, 3-(2-methoxyphenyl)-", "Cinnamaldehyde, o-methoxy-", "3-(2-Methoxyphenyl)-2-propenal", "o-Methoxycinnamaldehyde", "2-Methoxycinnamaldehyde", "o-Methoxycinnamic aldehyde", "NSC 114599", "3-(2-Methoxyphenyl)propenal", "3-(2-Methoxyphenyl)acrylaldehyde"], "SMILES": "C(=CC=O)C1=C(OC)C=CC=C1", "physical_data": {"Molecular Weight": "162.19", "Molecular Formula": "C10H10O2", "Boiling Point": "165-167 \u00b0C @ Press: 13 Torr", "Melting Point": "44-45 \u00b0C"}}