{"cas_no": "1504-06-9", "cn_name": "3-\u7532\u57fa\u7f9f\u57fa\u5432\u54da", "en_name": ["3-Methyloxindole", "2H-Indol-2-one, 1,3-dihydro-3-methyl-", "2-Indolinone, 3-methyl-", "Oxindole, 3-methyl-", "1,3-Dihydro-3-methyl-2H-indol-2-one", "3-Methyloxindole", "3-Methyl-2-oxindole", "3-Methyl-2-indolinone", "3-Methyl-2,3-dihydro-1H-indol-2-one", "3-Methyl-1,3-dihydroindol-2-one"], "SMILES": "CC1C=2C(NC1=O)=CC=CC2", "physical_data": {"Molecular Weight": "147.17", "Molecular Formula": "C9H9NO", "Melting Point": "123-124 \u00b0C"}}