{"cas_no": "1504-72-9", "cn_name": "3-\u82ef\u57fa-2-\u4e01\u70ef\u9178\u4e59\u916f", "en_name": ["Ethyl (2E)-3-phenyl-2-butenoate", "2-Butenoic acid, 3-phenyl-, ethyl ester, (2E)-", "Cinnamic acid, \u03b2-methyl-, ethyl ester, (E)-", "2-Butenoic acid, 3-phenyl-, ethyl ester, (E)-", "Ethyl (2E)-3-phenyl-2-butenoate", "Ethyl trans-\u03b2-methylcinnamate", "Ethyl (E)-3-phenyl-2-butenoate", "Ethyl trans-3-phenylcrotonate", "trans-Ethyl 3-phenylbut-2-enoate", "Ethyl trans-3-phenyl-2-butenoate", "Ethyl trans-3-methyl-3-phenyl-2-propenoate", "(E)-Ethyl \u03b2-methylcinnamate"], "SMILES": "C(=CC(OCC)=O)(C)C1=CC=CC=C1", "physical_data": {"Molecular Weight": "190.24", "Molecular Formula": "C12H14O2", "Boiling Point": "116-119 \u00b0C @ Press: 4 Torr", "Melting Point": "82-84 \u00b0C"}}