{"cas_no": "1504-58-1", "cn_name": "3-\u82ef\u57fa-2-\u4e19\u7094-1-\u9187", "en_name": ["3-Phenyl-2-propyn-1-ol", "2-Propyn-1-ol, 3-phenyl-", "2-Propin-1-ol, 3-phenyl-", "3-Phenyl-2-propyn-1-ol", "3-Phenyl-2-propynol", "3-Phenylpropargyl alcohol", "3-Phenyl-2-propynyl alcohol", "Phenylpropargyl alcohol", "(Hydroxymethyl)phenylacetylene", "1-Hydroxy-3-phenyl-2-propyne", "1-Phenyl-3-hydroxyprop-1-yne", "3-Phenyl-2-propyne-1-ol", "(3-Hydroxy-1-propyn-1-yl)benzene"], "SMILES": "C(#CCO)C1=CC=CC=C1", "physical_data": {"Molecular Weight": "132.16", "Molecular Formula": "C9H8O", "Boiling Point": "137-138 \u00b0C", "Melting Point": "119-122 \u00b0C", "Density": "1.07 g/cm\u00b3 @ Temp: 18 \u00b0C"}}