{"cas_no": "1504-63-8", "cn_name": "4-\u785d\u57fa\u82ef\u4e19\u70ef\u9187", "en_name": ["3-(4-Nitrophenyl)-2-propen-1-ol", "2-Propen-1-ol, 3-(4-nitrophenyl)-", "2-Propen-1-ol, 3-(p-nitrophenyl)-", "3-(4-Nitrophenyl)-2-propen-1-ol", "4-Nitrocinnamyl alcohol", "3-(4-Nitrophenyl)-2-propenol", "p-Nitrocinnamyl alcohol", "3-(4-Nitrophenyl)prop-2-en-1-ol", "1-Hydroxy-3-(4-nitrophenyl)-2-propene"], "SMILES": "N(=O)(=O)C1=CC=C(C=CCO)C=C1", "physical_data": {"Molecular Weight": "179.17", "Molecular Formula": "C9H9NO3", "Melting Point": "127.5-128 \u00b0C"}}