{"cas_no": "1505-62-0", "cn_name": "5-\u7532\u57fa-1-\u82ef\u5e76\u567b\u5429-2-\u7fa7\u9178", "en_name": ["5-Methylbenzo[b]thiophene-2-carboxylic acid", "Benzo[b]thiophene-2-carboxylic acid, 5-methyl-", "5-Methylbenzo[b]thiophene-2-carboxylic acid", "5-Methyl-2-benzothiophenecarboxylic acid", "2-Carboxy-5-methylbenzo[b]thiophene"], "SMILES": "C(O)(=O)C=1SC=2C(C1)=CC(C)=CC2", "physical_data": {"Molecular Weight": "192.23", "Molecular Formula": "C10H8O2S", "Melting Point": "218.0-219.5 \u00b0C"}}