{"cas_no": "1505-52-8", "cn_name": "3-\u7532\u57fa\u82ef\u5e76[B]\u567b\u5429-2-\u4e59\u9178", "en_name": ["3-Methylbenzo[b]thiophene-2-acetic acid", "Benzo[b]thiophene-2-acetic acid, 3-methyl-", "3-Methylbenzo[b]thiophene-2-acetic acid", "2-(3-Methylbenzo[b]thiophen-2-yl)acetic acid", "2-(3-Methyl-1-benzothiophen-2-yl)acetic acid"], "SMILES": "CC=1C=2C(SC1CC(O)=O)=CC=CC2", "physical_data": {"Molecular Weight": "206.26", "Molecular Formula": "C11H10O2S", "Melting Point": "150.4-152 \u00b0C"}}