{"cas_no": "15050-04-1", "cn_name": "6-\u7532\u6c27\u57fa-2-\u5432\u54da\u7fa7\u9178\u4e59\u916f", "en_name": ["1H-Indole-2-carboxylic acid, 6-methoxy-, ethyl ester", "1H-Indole-2-carboxylic acid, 6-methoxy-, ethyl ester", "Indole-2-carboxylic acid, 6-methoxy-, ethyl ester", "Ethyl 6-methoxy-2-indolecarboxylate", "6-Methoxy-1H-indole-2-carboxylic acid ethyl ester", "6-Methoxyindole-2-carboxylic acid ethyl ester", "Ethyl 6-methoxy-1H-indole-2-carboxylate"], "SMILES": "C(OCC)(=O)C=1NC=2C(C1)=CC=C(OC)C2", "physical_data": {"Molecular Weight": "219.24", "Molecular Formula": "C12H13NO3", "Melting Point": "135-136 \u00b0C"}}