{"cas_no": "15058-19-2", "cn_name": "4,5-\u4e8c\u6c22-2-\u7532\u57fa-4-\u567b\u5511\u7fa7\u9178\u94a0\u76d0", "en_name": ["4-Thiazolecarboxylic acid, 4,5-dihydro-2-methyl-, sodium salt (1:1)", "4-Thiazolecarboxylic acid, 4,5-dihydro-2-methyl-, sodium salt (1:1)", "2-Thiazoline-4-carboxylic acid, 2-methyl-, sodium salt", "4-Thiazolecarboxylic acid, 4,5-dihydro-2-methyl-, sodium salt"], "SMILES": "C(O)(=O)C1N=C(C)SC1.[Na]", "physical_data": {"Molecular Weight": "", "Molecular Formula": "C5H7NO2S.Na", "Melting Point": "214-216 \u00b0C (decomp)"}}