{"cas_no": "1505-50-6", "cn_name": "3-(4-\u7532\u82ef)\u4e19\u9178", "en_name": ["3-(4-Methylphenyl)propionic acid", "Benzenepropanoic acid, 4-methyl-", "Hydrocinnamic acid, p-methyl-", "4-Methylbenzenepropanoic acid", "4-Methyl-\u03b2-phenylpropionic acid", "p-Methylhydrocinnamic acid", "3-(4-Methylphenyl)propanoic acid", "3-p-Tolylpropionic acid", "3-(4-Methylphenyl)propionic acid", "4-Methylbenzenepropionic acid", "NSC 512", "3-p-Tolylpropanoic acid"], "SMILES": "C(CC(O)=O)C1=CC=C(C)C=C1", "physical_data": {"Molecular Weight": "164.20", "Molecular Formula": "C10H12O2", "Melting Point": "117-118 \u00b0C"}}