{"cas_no": "150691-04-6", "cn_name": "2-(\u53d4\u4e01\u57fa\u6c28\u57fa)\u78fa\u9170\u57fa\u82ef\u787c\u9178", "en_name": ["2-tert-Butylaminosulfonylphenylboronic acid", "Boronic acid, B-[2-[[(1,1-dimethylethyl)amino]sulfonyl]phenyl]-", "Boronic acid, [2-[[(1,1-dimethylethyl)amino]sulfonyl]phenyl]-", "B-[2-[[(1,1-Dimethylethyl)amino]sulfonyl]phenyl]boronic acid", "2-(N-tert-Butylsulfamoyl)phenylboronic acid", "2-tert-Butylaminosulfonylphenylboronic acid", "2-[(t-Butylamino)sulfonyl]phenylboronic acid", "2-(tert-Butylaminosulfonyl)benzeneboronic acid", "2-N-tert-Butylaminosulfonylphenylboronic acid", "2-(tert-Butylsulfamoyl)phenylboronic acid", "2-tert-Butylaminobenzenesulfonyl chloride", "2-(tert-Butylsulfamoyl)benzeneboronic acid"], "SMILES": "S(NC(C)(C)C)(=O)(=O)C1=C(B(O)O)C=CC=C1", "physical_data": {"Molecular Weight": "257.11", "Molecular Formula": "C10H16BNO4S", "Melting Point": "118-119 \u00b0C"}}