{"cas_no": "150683-30-0", "cn_name": "\u6258\u4f10\u666e\u5766", "en_name": ["Tolvaptan", "Benzamide, N-[4-[(7-chloro-2,3,4,5-tetrahydro-5-hydroxy-1H-1-benzazepin-1-yl)carbonyl]-3-methylphenyl]-2-methyl-", "1H-1-Benzazepine, benzamide deriv.", "N-[4-[(7-Chloro-2,3,4,5-tetrahydro-5-hydroxy-1H-1-benzazepin-1-yl)carbonyl]-3-methylphenyl]-2-methylbenzamide", "OPC 41061", "Tolvaptan", "Samsca", "1-[4-(2-Methylbenzoylamino)-2-methylbenzoyl]-7-chloro-1,2,3,4-tetrahydrobenzo[b]azepin-5-ol", "Jynarque", "Jinarc"], "SMILES": "C(=O)(N1C=2C(=CC(Cl)=CC2)C(O)CCC1)C3=C(C)C=C(NC(=O)C4=C(C)C=CC=C4)C=C3", "physical_data": {"Molecular Weight": "448.94", "Molecular Formula": "C26H25ClN2O3", "Melting Point": "220-221 \u00b0C"}}