{"cas_no": "1506-55-4", "cn_name": "4-\u6c27\u4ee3-1,7-\u5e9a\u4e8c\u9178\u5355\u4e59\u916f", "en_name": ["1-Ethyl 4-oxoheptanedioate", "Heptanedioic acid, 4-oxo-, 1-ethyl ester", "Heptanedioic acid, 4-oxo-, monoethyl ester", "Heptanedioic acid, 4-oxo-, ethyl ester", "1-Ethyl 4-oxoheptanedioate", "4-Oxoheptanedioic acid monoethyl ester", "Monoethyl 4-oxoheptanedioate", "Ethyl hydrogen 4-oxoheptanedioate", "7-Ethoxy-4,7-dioxoheptanoic acid"], "SMILES": "C(CCC(OCC)=O)(CCC(O)=O)=O", "physical_data": {"Molecular Weight": "202.20", "Molecular Formula": "C9H14O5", "Boiling Point": "198-200 \u00b0C @ Press: 25 Torr", "Melting Point": "71-72 \u00b0C"}}