{"cas_no": "1506-53-2", "cn_name": "N-\u5341\u4e8c\u70f7\u57fa\u4e19\u70ef\u9170\u80fa", "en_name": ["N-Dodecyl-2-propenamide", "2-Propenamide, N-dodecyl-", "Acrylamide, N-dodecyl-", "N-Dodecyl-2-propenamide", "N-Dodecylacrylamide", "N-Laurylacrylamide", "N-(n-Dodecyl)acrylamide", "Lauryl acrylamide"], "SMILES": "C(CNC(C=C)=O)CCCCCCCCCC", "physical_data": {"Molecular Weight": "239.40", "Molecular Formula": "C15H29NO", "Boiling Point": "150-155 \u00b0C @ Press: 1 Torr", "Melting Point": "55.5 \u00b0C"}}