{"cas_no": "150728-13-5", "cn_name": "4,6-\u4e8c\u6c2f-5-(2-\u7532\u6c27\u57fa\u82ef\u6c27\u57fa)-2,2'-\u4e8c\u5627\u5576", "en_name": ["4,6-Dichloro-5-(2-methoxyphenoxy)-2,2\u2032-bipyrimidine", "2,2\u2032-Bipyrimidine, 4,6-dichloro-5-(2-methoxyphenoxy)-", "4,6-Dichloro-5-(2-methoxyphenoxy)-2,2\u2032-bipyrimidine", "4,6-Dichloro-5-(o-methoxyphenoxy)-2-(2-pyrimidinyl)pyrimidine", "4,6-Dichloro-5-(2-methoxyphenoxy)-2,2\u2032-dipyrimidine"], "SMILES": "O(C=1C(Cl)=NC(=NC1Cl)C=2N=CC=CN2)C3=C(OC)C=CC=C3", "physical_data": {"Molecular Weight": "349.17", "Molecular Formula": "C15H10Cl2N4O2", "Melting Point": "80-81 \u00b0C"}}