{"cas_no": "15075-50-0", "cn_name": "\u4e8c\u7518\u9187\u5355\u70ef\u4e19\u57fa\u919a", "en_name": ["Diethylene glycol monoallyl ether", "Ethanol, 2-[2-(2-propen-1-yloxy)ethoxy]-", "Ethanol, 2-[2-(allyloxy)ethoxy]-", "Ethanol, 2-[2-(2-propenyloxy)ethoxy]-", "2-[2-(2-Propen-1-yloxy)ethoxy]ethanol", "Diethylene glycol monoallyl ether", "2-[2-(Allyloxy)ethoxy]ethanol", "9-Hydroxy-4,7-dioxa-1-nonene", "NSC 83148", "Allyl carbitol", "Allyloxy(diethylene oxide)"], "SMILES": "C(COCCO)OCC=C", "physical_data": {"Molecular Weight": "146.18", "Molecular Formula": "C7H14O3", "Boiling Point": "98-101 \u00b0C @ Press: 2 Torr", "Density": "1.012 g/cm\u00b3 @ Temp: 20 \u00b0C"}}