{"cas_no": "150728-12-4", "cn_name": "5-(2-\u7532\u6c27\u57fa\u82ef\u6c27\u57fa)-[2,2'-\u4e8c\u5627\u5576]-4,6(1H,5H)-\u4e8c\u916e", "en_name": ["5-(2-Methoxyphenoxy)[2,2\u2032-bipyrimidine]-4,6(1H,5H)-dione", "[2,2\u2032-Bipyrimidine]-4,6(1H,5H)-dione, 5-(2-methoxyphenoxy)-", "[2,2\u2032-Bipyrimidine]-4,6(1H,5H)-dione, 5-(2-methoxyphenoxy)-, (\u00b1)-", "5-(2-Methoxyphenoxy)[2,2\u2032-bipyrimidine]-4,6(1H,5H)-dione", "5-(2-Methoxyphenoxy)-2,2\u2032-bipyrimidine-4,6-(1H,5H)-dione"], "SMILES": "O(C1C(=O)NC(=NC1=O)C=2N=CC=CN2)C3=C(OC)C=CC=C3", "physical_data": {"Molecular Weight": "312.28", "Molecular Formula": "C15H12N4O4", "Melting Point": "262-264 \u00b0C"}}