{"cas_no": "15074-54-1", "cn_name": "2-\u6c2f\u82ef\u57fa\u4e8c\u6c2f\u81a6", "en_name": ["Phosphorodichloridic acid, 2-chlorophenyl ester", "Phosphorodichloridic acid, 2-chlorophenyl ester", "Phosphorodichloridic acid, o-chlorophenyl ester", "Phenol, o-chloro-, phosphorodichloridate", "o-Chlorophenyl dichlorophosphate", "o-Chlorophenyl phosphorodichloridate", "2-Chlorophenyl phosphorodichloridate", "2-Chlorophenyl dichlorophosphate", "2-Chlorophenyl phosphodichloridate", "2-Chlorophenyl dichlorophosphinate", "(2-Chlorophenoxy)phosphonoyl dichloride", "1-Chloro-2-dichlorophosphoryloxybenzene"], "SMILES": "O(P(Cl)(Cl)=O)C1=C(Cl)C=CC=C1", "physical_data": {"Molecular Weight": "245.43", "Molecular Formula": "C6H4Cl3O2P", "Boiling Point": "85 \u00b0C @ Press: 0.6 Torr"}}