{"cas_no": "150726-89-9", "cn_name": "2-(2-\u7532\u6c27\u57fa\u82ef\u6c27\u57fa)\u4e19\u4e8c\u9178\u4e8c\u7532\u916f", "en_name": ["Propanedioic acid, 2-(2-methoxyphenoxy)-, 1,3-dimethyl ester", "Propanedioic acid, 2-(2-methoxyphenoxy)-, 1,3-dimethyl ester", "Propanedioic acid, (2-methoxyphenoxy)-, dimethyl ester", "Dimethyl 2-(2-methoxyphenoxy)malonate", "Dimethyl 2-methoxyphenoxymalonate", "Dimethyl (o-methoxyphenoxy)malonate", "1,3-Dimethyl 2-(2-methoxyphenoxy)propanedioate"], "SMILES": "O(C(C(OC)=O)C(OC)=O)C1=C(OC)C=CC=C1", "physical_data": {"Molecular Weight": "254.24", "Molecular Formula": "C12H14O6", "Boiling Point": "131 \u00b0C", "Melting Point": "38-40 \u00b0C"}}