{"cas_no": "15087-24-8", "cn_name": "3-\u4e9a\u82c4\u57fa\u6a1f\u8111", "en_name": ["Benzylidenecamphor", "Bicyclo[2.2.1]heptan-2-one, 1,7,7-trimethyl-3-(phenylmethylene)-", "2-Bornanone, 3-benzylidene-", "1,7,7-Trimethyl-3-(phenylmethylene)bicyclo[2.2.1]heptan-2-one", "Benzylidenecamphor", "3-Benzylidenecamphor", "Ultracyd", "Ultren BK", "Eusolex 6900", "3-Benzylidenebornan-2-one", "Unisol S 22", "2-Benzylidene-4,7,7-trimethylbicyclo[2.2.1]heptan-3-one"], "SMILES": "CC12C(C)(C)C(C(=CC3=CC=CC=C3)C1=O)CC2", "physical_data": {"Molecular Weight": "240.34", "Molecular Formula": "C17H20O", "Boiling Point": "310 \u00b0C", "Melting Point": "97 \u00b0C"}}