{"cas_no": "1508-76-5", "cn_name": "\u4e19\u73af\u5b9a\u76d0\u9178\u76d0", "en_name": ["Procyclidine hydrochloride", "1-Pyrrolidinepropanol, \u03b1-cyclohexyl-\u03b1-phenyl-, hydrochloride (1:1)", "1-Pyrrolidinepropanol, \u03b1-cyclohexyl-\u03b1-phenyl-, hydrochloride", "1-Cyclohexyl-1-phenyl-3-pyrrolidino-1-propanol hydrochloride", "Kemadrin hydrochloride", "Tricyclamol hydrochloride", "Procyclidine hydrochloride", "Kemadrin", "(\u00b1)-Procyclidine hydrochloride", "Osnervan", "Arpicolin", "1-Cyclohexyl-1-phenyl-3-(pyrrolidin-1-yl)propan-1-ol hydrochloride"], "SMILES": "C(CCN1CCCC1)(O)(C2CCCCC2)C3=CC=CC=C3.Cl", "physical_data": {"Molecular Weight": "", "Molecular Formula": "C19H29NO.ClH", "Melting Point": "159-164 \u00b0C"}}