{"cas_no": "1508-65-2", "cn_name": "\u76d0\u9178\u5965\u6614\u5e03\u5b81", "en_name": ["Oxybutynin hydrochloride", "Benzeneacetic acid, \u03b1-cyclohexyl-\u03b1-hydroxy-, 4-(diethylamino)-2-butyn-1-yl ester, hydrochloride (1:1)", "Cyclohexaneglycolic acid, \u03b1-phenyl-, 4-(diethylamino)-2-butynyl ester, hydrochloride", "Benzeneacetic acid, \u03b1-cyclohexyl-\u03b1-hydroxy-, 4-(diethylamino)-2-butynyl ester, hydrochloride", "2-Butyn-1-ol, 4-(diethylamino)-, \u03b1-phenylcyclohexaneglycolate (ester), hydrochloride", "MJ 4309-1", "4-(Diethylamino)-2-butynyl \u03b1-phenylcyclohexaneglycolate hydrochloride", "Oxybutynin hydrochloride", "Oxybutynin chloride", "MJ 50-58", "Tropax", "Cystrin", "Dridase", "Pollakisu", "Gelnique", "Neoxy Tape"], "SMILES": "C(C(OCC#CCN(CC)CC)=O)(O)(C1CCCCC1)C2=CC=CC=C2.Cl", "physical_data": {"Molecular Weight": "", "Molecular Formula": "C22H31NO3.ClH", "Melting Point": "129.5 \u00b0C"}}