{"cas_no": "15085-71-9", "cn_name": "MICROMELIN", "en_name": ["Micromelin", "3,6-Dioxabicyclo[3.1.0]hexan-2-one, 4-(7-methoxy-2-oxo-2H-1-benzopyran-6-yl)-1-methyl-, (1R,4R,5R)-rel-", "Coumarin, 7-methoxy-6-(5-methyl-4-oxo-3,6-dioxabicyclo[3.1.0]hex-2-yl)-", "3,6-Dioxabicyclo[3.1.0]hexan-2-one, 4-(7-methoxy-2-oxo-2H-1-benzopyran-6-yl)-1-methyl-, (1\u03b1,4\u03b1,5\u03b1)-", "rel-(1R,4R,5R)-4-(7-Methoxy-2-oxo-2H-1-benzopyran-6-yl)-1-methyl-3,6-dioxabicyclo[3.1.0]hexan-2-one", "Micromelin", "Micromelumin", "NSC 281267", "NSC 77149"], "SMILES": "CC12C(C(OC1=O)C3=C(OC)C=C4C(=C3)C=CC(=O)O4)O2", "physical_data": {"Molecular Weight": "288.25", "Molecular Formula": "C15H12O6", "Melting Point": "218-219 \u00b0C"}}