{"cas_no": "1508-75-4", "cn_name": "\u6258\u5421\u5361\u80fa", "en_name": ["Tropicamide", "Benzeneacetamide, N-ethyl-\u03b1-(hydroxymethyl)-N-(4-pyridinylmethyl)-", "Hydracrylamide, N-ethyl-2-phenyl-N-(4-pyridylmethyl)-", "N-Ethyl-\u03b1-(hydroxymethyl)-N-(4-pyridinylmethyl)benzeneacetamide", "N-Ethyl-2-phenyl-N-(4-pyridylmethyl)hydracrylamide", "N-Ethyl-N-(\u03b3-picolyl)tropamide", "Tropic acid-N-ethyl-N-(\u03b3-picolyl)amide", "Bistropamide", "Mydriacyl", "Tropicamide", "Epitromina", "Mydriat", "Mydrin", "Mydrum", "Ro 1-7683", "Visumidriatic", "(\u00b1)-Tropicamide", "Mydrapid", "Mydriaticum", "Mydrin M", "Mydrin P", "Minims", "Mydril", "Mydramide", "MeSH ID: D014331"], "SMILES": "C(C(N(CC=1C=CN=CC1)CC)=O)(CO)C2=CC=CC=C2", "physical_data": {"Molecular Weight": "284.35", "Molecular Formula": "C17H20N2O2", "Melting Point": "96.5 \u00b0C"}}