{"cas_no": "15091-30-2", "cn_name": "3,4-\u4e8c\u6eb4\u4ee3\u73af\u4e01\u781c", "en_name": ["Thiophene, 3,4-dibromotetrahydro-, 1,1-dioxide", "Thiophene, 3,4-dibromotetrahydro-, 1,1-dioxide", "3,4-Dibromosulfolane", "3,4-Dibromotetrahydrothiophene 1,1-dioxide", "3,4-Dibromotetrahydrothiophene dioxide", "NSC 39636", "NSC 75382", "3,4-Dibromo-1\u03bb6-thiolane-1,1-dione", "3,4-Dibromothiolane 1,1-dioxide"], "SMILES": "O=S1(=O)CC(Br)C(Br)C1", "physical_data": {"Molecular Weight": "277.96", "Molecular Formula": "C4H6Br2O2S", "Melting Point": "139-141 \u00b0C"}}