{"cas_no": "15096-52-3", "cn_name": "\u51b0\u6676\u77f3", "en_name": ["Cryolite", "Cryolite (Na3(AlF6))", "Cryolite", "Kryocide", "Kryolith", "Kriolit", "Cryolite (AlNa3F6)", "Cryocide", "RTN-C", "Prokil Cryolite 96"], "SMILES": "[Al+3]([F-])([F-])([F-])([F-])([F-])[F-].[Na+]", "physical_data": {"Molecular Weight": "", "Molecular Formula": "AlF6.3Na", "Melting Point": "960-1027 \u00b0C", "Density": "2.95 g/cm\u00b3"}}