{"cas_no": "15091-98-2", "cn_name": "\u516d\u6c34\u5408\u4e09\u78f7\u9178\u4e94\u94a0", "en_name": ["Sodium tripolyphosphate hexahydrate", "Triphosphoric acid, sodium salt, hydrate (1:5:6)", "Triphosphoric acid, pentasodium salt, hexahydrate", "Pentasodium tripolyphosphate hexahydrate", "Sodium triphosphate hexahydrate", "Sodium tripolyphosphate hexahydrate", "Sodium tripolyphosphate (Na5P3O10) hexahydrate", "Pentasodium triphosphate hexahydrate", "Sodium triphosphate (Na5P3O10) hexahydrate", "Sodium triphosphate hexahydrate (Na5P3O10.6H2O)", "Sodium phosphate (Na5P3O10) hexahydrate"], "SMILES": "O(P(OP(=O)(O)O)(=O)O)P(=O)(O)O.[Na].O", "physical_data": {"Molecular Weight": "", "Molecular Formula": "H5O10P3.6H2O.5Na", "Boiling Point": "&lt;65 \u00b0C"}}