{"cas_no": "1509-92-8", "cn_name": "N-\u4e59\u9170-D-\u86cb\u6c28\u9178", "en_name": ["N-Acetyl-D-methionine", "D-Methionine, N-acetyl-", "Methionine, N-acetyl-, D-", "N-Acetyl-D-methionine"], "SMILES": "C(NC(C)=O)(C(O)=O)CCSC", "physical_data": {"Molecular Weight": "191.25", "Molecular Formula": "C7H13NO3S", "Melting Point": "103-105 \u00b0C"}}