{"cas_no": "150915-40-5", "cn_name": "\u76d0\u9178\u66ff\u7f57\u975e\u73ed", "en_name": ["Tirofiban hydrochloride monohydrate", "L-Tyrosine, N-(butylsulfonyl)-O-[4-(4-piperidinyl)butyl]-, hydrochloride, hydrate (1:1:1)", "L-Tyrosine, N-(butylsulfonyl)-O-[4-(4-piperidinyl)butyl]-, monohydrochloride, monohydrate", "Tirofiban hydrochloride monohydrate"], "SMILES": "C(C(NS(CCCC)(=O)=O)C(O)=O)C1=CC=C(OCCCCC2CCNCC2)C=C1.Cl.O", "physical_data": {"Molecular Weight": "", "Molecular Formula": "C22H36N2O5S.ClH.H2O", "Melting Point": "131-132 \u00b0C"}}