{"cas_no": "1509-34-8", "cn_name": "L-\u522b\u5f02\u4eae\u6c28\u9178", "en_name": ["L-Alloisoleucine", "L-Alloisoleucine", "Alloisoleucine, L-", "Alloisoleucine", "L-allo-Isoleucine", "Pentanoic acid, 2-amino-3-methyl-, [S-(R*,S*)]-", "(3R)-LS-Isoleucine", "L-Norvaline, 3-methyl-, threo-", "L-Isoleucine, allo-", "L-Isoleucine, threo-", "Allo-L-Isoleucine", "L(+)-Alloisoleucine", "[S-(R*,S*)]-2-Amino-3-methylpentanoic acid", "allo-Isoleucine", "NSC 206282", "(2S,3R)-2-Amino-3-methylpentanoic acid"], "SMILES": "C(C(CC)C)(C(O)=O)N", "physical_data": {"Molecular Weight": "131.17", "Molecular Formula": "C6H13NO2", "Melting Point": "278 \u00b0C (decomp)"}}