{"cas_no": "1509-35-9", "cn_name": "D-\u522b\u5f02\u4eae\u6c28\u9178", "en_name": ["D-Alloisoleucine", "D-Alloisoleucine", "Alloisoleucine, D-", "threo-D-Isoleucine", "D-(-)-Alloisoleucine", "D-allo-Isoleucine", "(2R,3S)-3-Methyl-2-aminopentanoic acid", "(2R,3S)-2-Amino-3-methylpentanoic acid", "(2R,3S)-2-Amino-3-methylpentanoic acid"], "SMILES": "C(C(CC)C)(C(O)=O)N", "physical_data": {"Molecular Weight": "131.17", "Molecular Formula": "C6H13NO2", "Melting Point": "280 \u00b0C"}}