{"cas_no": "15097-49-1", "cn_name": "1-\u4e09\u7532\u7845\u57fa\u5421\u54af\u70f7", "en_name": ["1-(Trimethylsilyl)pyrrolidine", "Pyrrolidine, 1-(trimethylsilyl)-", "1-(Trimethylsilyl)pyrrolidine", "N-Trimethylsilylpyrrolidine", "Pyrrolidinotrimethylsilane", "Trimethyl(1-pyrrolidino)silane", "NSC 251739"], "SMILES": "[Si](C)(C)(C)N1CCCC1", "physical_data": {"Molecular Weight": "143.30", "Molecular Formula": "C7H17NSi", "Boiling Point": "51 \u00b0C @ Press: 32 Torr"}}