{"cas_no": "15099-85-1", "cn_name": "DL-\u03b2-\u9ad8\u82ef\u4e19\u6c28\u9178", "en_name": ["\u03b2-Aminobenzenebutanoic acid", "Benzenebutanoic acid, \u03b2-amino-", "\u03b2-Aminobenzenebutanoic acid", "3-Benzyl-\u03b2-alanine", "NSC 127002", "NSC 127018", "3-Amino-4-phenylbutanoic acid"], "SMILES": "C(C(CC(O)=O)N)C1=CC=CC=C1", "physical_data": {"Molecular Weight": "179.22", "Molecular Formula": "C10H13NO2", "Melting Point": "226 \u00b0C"}}