{"cas_no": "151-13-3", "cn_name": "[R-(Z)]-12-\u7f9f\u57fa-9-\u5341\u516b\u70ef\u9178\u4e01\u916f", "en_name": ["Butyl ricinoleate", "9-Octadecenoic acid, 12-hydroxy-, butyl ester, (9Z,12R)-", "Ricinoleic acid, butyl ester", "9-Octadecenoic acid, 12-hydroxy-, butyl ester, [R-(Z)]-", "n-Butyl ricinoleate", "Butyl ricinoleate", "Flexricin P 3", "Butyl ricinolate"], "SMILES": "C(C(CCCCCC)O)C=CCCCCCCCC(OCCCC)=O", "physical_data": {"Molecular Weight": "354.57", "Molecular Formula": "C22H42O3", "Boiling Point": "151-153 \u00b0C"}}