{"cas_no": "151-50-8", "cn_name": "\u6c30\u5316\u94be", "en_name": ["Potassium cyanide", "Potassium cyanide (K(CN))", "Potassium cyanide", "Feratox", "Hydrocyanic acid, potassium salt (1:1)", "MeSH ID: D011190"], "SMILES": "C([K])#N", "physical_data": {"Molecular Weight": "", "Molecular Formula": "CKN", "Boiling Point": "1625 \u00b0C", "Melting Point": "634 \u00b0C", "Density": "1.55 g/cm\u00b3 @ Temp: 20 \u00b0C"}}