{"cas_no": "151-67-7", "cn_name": "\u6c1f\u70f7", "en_name": ["(\u00b1)-Halothane", "Ethane, 2-bromo-2-chloro-1,1,1-trifluoro-", "2-Bromo-2-chloro-1,1,1-trifluoroethane", "Fluothane", "Halothane", "Halsan", "1,1,1-Trifluoro-2-bromo-2-chloroethane", "1,1,1-Trifluoro-2-chloro-2-bromoethane", "2,2,2-Trifluoro-1-chloro-1-bromoethane", "1-Bromo-1-chloro-2,2,2-trifluoroethane", "Narcotane", "Narkotan", "Fluktan", "Narcotan", "Anestan", "Halan", "Freon 123B1", "2-Chloro-2-bromo-1,1,1-trifluoroethane", "Ftorotan", "R 123B1", "(\u00b1)-Halothane", "Alotano", "Rhodialothan", "NSC 143490", "Halothane-Vet", "1-Chloro-1-bromo-2,2,2-trifluoroethane", "MeSH ID: D006221"], "SMILES": "C(C(Br)Cl)(F)(F)F", "physical_data": {"Molecular Weight": "197.38", "Molecular Formula": "C2HBrClF3", "Boiling Point": "50.2 \u00b0C", "Melting Point": "-118 \u00b0C", "Density": "1.871 g/cm\u00b3 @ Temp: 20 \u00b0C"}}