{"cas_no": "151-19-9", "cn_name": "3,6-di\u97cathyl-3-octanol", "en_name": ["3,6-Dimethyl-3-octanol", "3-Octanol, 3,6-dimethyl-", "3,6-Dimethyl-3-octanol", "AR 1", "Aprol 100", "NSC 5613"], "SMILES": "C(CC(CC)C)C(CC)(C)O", "physical_data": {"Molecular Weight": "158.28", "Molecular Formula": "C10H22O", "Boiling Point": "202.2 \u00b0C", "Melting Point": "-67.5 \u00b0C"}}