{"cas_no": "151-83-7", "cn_name": "\u7f8e\u7d22\u6bd4\u59a5", "en_name": ["2,4,6(1H,3H,5H)-Pyrimidinetrione, 1-methyl-5-(1-methyl-2-pentynyl)-5-(2-propenyl)-", "2,4,6(1H,3H,5H)-Pyrimidinetrione, 1-methyl-5-(1-methyl-2-pentyn-1-yl)-5-(2-propen-1-yl)-", "Barbituric acid, 5-allyl-1-methyl-5-(1-methyl-2-pentynyl)-", "2,4,6(1H,3H,5H)-Pyrimidinetrione, 1-methyl-5-(1-methyl-2-pentynyl)-5-(2-propenyl)-", "1-Methyl-5-(1-methyl-2-pentyn-1-yl)-5-(2-propen-1-yl)-2,4,6(1H,3H,5H)-pyrimidinetrione", "5-Allyl-5-(3-hexyn-2-yl)-1-methylbarbituric acid", "Compound 22451", "Compound 25398", "Methodrexitone", "Methohexital", "Methohexitone", "Brietal", "Brevital", "Enallynymall", "MeSH ID: D008723"], "SMILES": "C(C#CCC)(C)C1(CC=C)C(=O)N(C)C(=O)NC1=O", "physical_data": {"Molecular Weight": "262.30", "Molecular Formula": "C14H18N2O3", "Melting Point": "96 \u00b0C"}}