{"cas_no": "151-38-2", "cn_name": "\u918b\u9178\u7532\u6c27\u57fa\u4e59\u57fa\u6c5e", "en_name": ["(Acetato-\u03baO)(2-methoxyethyl)mercury", "Mercury, (acetato-\u03baO)(2-methoxyethyl)-", "Mercury, (acetato)(2-methoxyethyl)-", "Mercury, (acetato-O)(2-methoxyethyl)-", "Mercury, acetoxy(2-methoxyethyl)-", "Mercury, 2-methoxyethyl-, acetate", "(Acetato-\u03baO)(2-methoxyethyl)mercury", "Acetato(2-methoxyethyl)mercury", "Landisan", "MeEHg", "Mema", "Radosan", "Mercuran", "(2-Methoxyethyl)mercury acetate", "Ba 2743", "Merkuran", "(Acetato-O)(2-methoxyethyl)mercury", "Mema RM", "Panogen (new)", "Panogen", "Panogen-Metox", "NSC 202875"], "SMILES": "[Hg](OC(C)=O)CCOC", "physical_data": {"Molecular Weight": "", "Molecular Formula": "C5H10HgO3", "Melting Point": "40-42 \u00b0C"}}