{"cas_no": "151-56-4", "cn_name": "\u6c2e\u4e19\u5576", "en_name": ["Aziridine", "Aziridine", "Ethylenimine", "Azacyclopropane", "Dimethylenimine", "EI", "Ethyleneimine", "Aziran", "Fast MEG", "Q 043 (amine)", "Soluol XC 100", "Q 043", "Binary Ethyleneimine", "E 100", "CS 100 (crosslinking agent)", "CS 100", "SC 100", "HS 100", "Hongsui HS 100", "MX 100", "CF 100", "RX 90"], "SMILES": "C1CN1", "physical_data": {"Molecular Weight": "43.07", "Molecular Formula": "C2H5N", "Boiling Point": "56-57 \u00b0C @ Press: 760 Torr", "Melting Point": "-74 \u00b0C", "Density": "0.8321 g/cm\u00b3 @ Temp: 24 \u00b0C"}}