{"cas_no": "151-18-8", "cn_name": "3-\u6c28\u57fa\u4e19\u8148", "en_name": ["3-Aminopropionitrile", "Propanenitrile, 3-amino-", "Propionitrile, 3-amino-", "Propionitrile, \u03b2-amino-", "3-Aminopropanenitrile", "\u03b2-Alaninenitrile", "\u03b2-Aminopropionitrile", "3-Aminopropionitrile", "BAPN", "\u03b2-Cyanoethylamine", "2-Cyanoethylamine", "Aminopropionitrile", "1-Cyano-2-aminoethane", "NSC 40641", "N-(2-Cyanoethyl)amine", "MeSH ID: D000629"], "SMILES": "C(CN)C#N", "physical_data": {"Molecular Weight": "70.09", "Molecular Formula": "C3H6N2", "Boiling Point": "185 \u00b0C @ Press: 760 Torr", "Melting Point": "&lt;25 \u00b0C", "Density": "0.9584 g/cm\u00b3 @ Temp: 20 \u00b0C"}}