{"cas_no": "151-05-3", "cn_name": "\u4e59\u9178\u4e8c\u7532\u57fa\u82c4\u57fa\u539f\u916f", "en_name": ["Dimethylbenzylcarbinyl acetate", "Benzeneethanol, \u03b1,\u03b1-dimethyl-, 1-acetate", "Phenethyl alcohol, \u03b1,\u03b1-dimethyl-, acetate", "Benzeneethanol, \u03b1,\u03b1-dimethyl-, acetate", "Benzyldimethylcarbinyl acetate", "Dimethylbenzylcarbinyl acetate", "\u03b1,\u03b1-Dimethylphenethyl acetate", "DMBCA", "Dimethylbenzylcarbinol acetate", "Benzyldimethylcarbinol acetate", "1,1-Dimethyl-2-phenylethyl acetate", "2-Methyl-1-phenylpropan-2-yl acetate", "NSC 46123", "2-Methyl-1-phenyl-2-propyl acetate", "Dimethylbenzylcarbonyl acetate", "Acetic acid 1,1-Dimethyl-2-phenylethyl ester"], "SMILES": "C(C(OC(C)=O)(C)C)C1=CC=CC=C1", "physical_data": {"Molecular Weight": "192.25", "Molecular Formula": "C12H16O2", "Boiling Point": "101-105 \u00b0C @ Press: 10 Torr"}}