{"cas_no": "151-63-3", "cn_name": "\u6c28\u57fa\u4e59\u8148\u786b\u9178\u6c22\u76d0", "en_name": ["Acetonitrile, 2-amino-, sulfate (1:1)", "Acetonitrile, 2-amino-, sulfate (1:1)", "Acetonitrile, amino-, sulfate (1:1)", "Aminoacetonitrile bisulfate", "Aminoacetonitrile hydrogen sulfate", "Aminoacetonitrile hydrosulfate", "NSC 128389", "Glycinonitrile sulfate", "2-Aminoacetonitrile sulfate"], "SMILES": "C(C#N)N.S(=O)(=O)(O)O", "physical_data": {"Molecular Weight": "", "Molecular Formula": "C2H4N2.H2O4S", "Melting Point": "101 \u00b0C"}}