{"cas_no": "151-10-0", "cn_name": "\u95f4\u82ef\u4e8c\u7532\u919a", "en_name": ["1,3-Dimethoxybenzene", "Benzene, 1,3-dimethoxy-", "Benzene, m-dimethoxy-", "1,3-Dimethoxybenzene", "m-Dimethoxybenzene", "Resorcinol dimethyl ether", "3-Methoxyanisole", "m-Methoxyanisole", "NSC 8699", "3-Methoxyphenyl methyl ether", "2,4-Dimethoxybenzene"], "SMILES": "O(C)C1=CC(OC)=CC=C1", "physical_data": {"Molecular Weight": "138.16", "Molecular Formula": "C8H10O2", "Boiling Point": "217.5 \u00b0C", "Melting Point": "-52 \u00b0C", "Density": "0.965 g/cm\u00b3 @ Temp: 13 \u00b0C"}}