{"cas_no": "15104-61-7", "cn_name": "1,1,2,3,3-\u4e94\u6c2f\u4e19\u70f7", "en_name": ["1,1,2,3,3-Pentachloropropane", "Propane, 1,1,2,3,3-pentachloro-", "1,1,2,3,3-Pentachloropropane"], "SMILES": "C(C(Cl)Cl)(C(Cl)Cl)Cl", "physical_data": {"Molecular Weight": "216.32", "Molecular Formula": "C3H3Cl5", "Boiling Point": "199 \u00b0C", "Melting Point": "-10 \u00b0C"}}