{"cas_no": "15100-75-1", "cn_name": "L-\u82ef\u4e19\u6c28\u9178\u53d4\u4e01\u916f\u76d0\u9178\u76d0", "en_name": ["L-Phenylalanine, 1,1-dimethylethyl ester, hydrochloride (1:1)", "L-Phenylalanine, 1,1-dimethylethyl ester, hydrochloride (1:1)", "Alanine, phenyl-, tert-butyl ester, hydrochloride, L-", "L-Phenylalanine, 1,1-dimethylethyl ester, hydrochloride", "(S)-Phenylalanine tert-butyl ester hydrochloride", "Phenylalanine tert-butyl ester hydrochloride", "tert-Butyl L-phenylalaninate hydrochloride", "L-Phenylalanine tert-butyl ester hydrochloride", "NSC 96688", "tert-Butyl (S)-2-amino-3-phenylpropanoate hydrochloride", "tert-Butyl phenylalaninate hydrochloride"], "SMILES": "C(C(C(OC(C)(C)C)=O)N)C1=CC=CC=C1.Cl", "physical_data": {"Molecular Weight": "", "Molecular Formula": "C13H19NO2.ClH", "Melting Point": "208-211 \u00b0C"}}