{"cas_no": "1510-21-0", "cn_name": "\u80c6\u56fa\u9187\u7425\u73c0\u9178\u5355\u916f", "en_name": ["Cholesteryl hemisuccinate", "Cholest-5-en-3-ol (3\u03b2)-, 3-(hydrogen butanedioate)", "Cholesterol, hydrogen succinate", "Cholest-5-en-3-ol (3\u03b2)-, hydrogen butanedioate", "Cholesteryl hemisuccinate", "Cholesteryl hydrogen succinate", "Cholesterol hemisuccinate", "3-[(Cholest-5-en-3\u03b2-yl)oxycarbonyl]propionic acid", "Cholesteryl monosuccinate", "3-(3-Cholesteryloxycarbonyl)propionic acid", "Mono(cholesteryl) succinate", "Succinic acid monocholesteryl ester", "3-Cholesteryloxycarbonylpropanoic acid", "Cholesterol monosuccinate", "Succinate cholesterol monoester", "CHEMS"], "SMILES": "CC12C3C(C4C(C)(CC3)C(C(CCCC(C)C)C)CC4)CC=C1CC(OC(CCC(O)=O)=O)CC2", "physical_data": {"Molecular Weight": "486.73", "Molecular Formula": "C31H50O4", "Melting Point": "175-175.5 \u00b0C"}}