{"cas_no": "151096-09-2", "cn_name": "\u83ab\u897f\u6c99\u661f", "en_name": ["Moxifloxacin", "3-Quinolinecarboxylic acid, 1-cyclopropyl-6-fluoro-1,4-dihydro-8-methoxy-7-[(4aS,7aS)-octahydro-6H-pyrrolo[3,4-b]pyridin-6-yl]-4-oxo-", "3-Quinolinecarboxylic acid, 1-cyclopropyl-6-fluoro-1,4-dihydro-8-methoxy-7-(octahydro-6H-pyrrolo[3,4-b]pyridin-6-yl)-4-oxo-, (4aS-cis)-", "6H-Pyrrolo[3,4-b]pyridine, 3-quinolinecarboxylic acid deriv.", "1-Cyclopropyl-6-fluoro-1,4-dihydro-8-methoxy-7-[(4aS,7aS)-octahydro-6H-pyrrolo[3,4-b]pyridin-6-yl]-4-oxo-3-quinolinecarboxylic acid", "Moxifloxacin", "Vigamox", "Izilox", "Moxifloxacine", "Avolex", "Moxeza", "Rapiflox", "Moxicip", "Oxaquin", "Fotiflox", "Xefecta", "Moxifo"], "SMILES": "O(C)C1=C2N(C=C(C(O)=O)C(=O)C2=CC(F)=C1N3CC4C(C3)NCCC4)C5CC5", "physical_data": {"Molecular Weight": "401.43", "Molecular Formula": "C21H24FN3O4", "Melting Point": "240 \u00b0C"}}