{"cas_no": "15102-42-8", "cn_name": "2,3-\u4e8c\u6eb4\u4e19\u9170\u80fa", "en_name": ["2,3-Dibromopropionamide", "Propanamide, 2,3-dibromo-", "Propionamide, 2,3-dibromo-", "2,3-Dibromopropanamide", "2,3-Dibromopropionamide", "NSC 144295"], "SMILES": "C(C(N)=O)(CBr)Br", "physical_data": {"Molecular Weight": "230.89", "Molecular Formula": "C3H5Br2NO", "Melting Point": "132-133 \u00b0C"}}