{"cas_no": "15119-34-3", "cn_name": "\u9999\u8c46\u7d20-3\u8148", "en_name": ["3-Cyanocoumarin", "2H-1-Benzopyran-3-carbonitrile, 2-oxo-", "Coumarin, 3-cyano-", "2-Oxo-2H-1-benzopyran-3-carbonitrile", "3-Cyanocoumarin", "2-Oxochromene-3-carbonitrile", "2-Oxo-2H-chromene-3-carbonitrile"], "SMILES": "C(#N)C1=CC=2C(OC1=O)=CC=CC2", "physical_data": {"Molecular Weight": "171.15", "Molecular Formula": "C10H5NO2", "Melting Point": "185-186 \u00b0C"}}