{"cas_no": "15111-56-5", "cn_name": "3-\u73af\u5df1\u70ef-1-\u7fa7\u9178\u4e59\u916f", "en_name": ["Ethyl 3-cyclohexene-1-carboxylate", "3-Cyclohexene-1-carboxylic acid, ethyl ester", "Ethyl \u03943-cyclohexenecarboxylate", "Ethyl 3-cyclohexene-1-carboxylate", "Ethyl cyclohex-3-enecarboxylate"], "SMILES": "C(OCC)(=O)C1CCC=CC1", "physical_data": {"Molecular Weight": "154.21", "Molecular Formula": "C9H14O2", "Boiling Point": "194.5 \u00b0C"}}