{"cas_no": "1511-16-6", "cn_name": "\u6c1f\u54cc\u5576\u9187\u76d0\u9178\u76d0", "en_name": ["1-Butanone, 4-[4-(4-chlorophenyl)-4-hydroxy-1-piperidinyl]-1-(4-fluorophenyl)-, hydrochloride (1:1)", "1-Butanone, 4-[4-(4-chlorophenyl)-4-hydroxy-1-piperidinyl]-1-(4-fluorophenyl)-, hydrochloride (1:1)", "Butyrophenone, 4-[4-(p-chlorophenyl)-4-hydroxypiperidino]-4\u2032-fluoro-, hydrochloride", "1-Butanone, 4-[4-(4-chlorophenyl)-4-hydroxy-1-piperidinyl]-1-(4-fluorophenyl)-, hydrochloride", "Haloperidol chlorohydrate", "Haloperidol hydrochloride", "Haloperidol chloride"], "SMILES": "OC1(C2=CC=C(Cl)C=C2)CCN(CCCC(=O)C3=CC=C(F)C=C3)CC1.Cl", "physical_data": {"Molecular Weight": "", "Molecular Formula": "C21H23ClFNO2.ClH", "Melting Point": "226-227.5 \u00b0C"}}