{"cas_no": "151157-49-2", "cn_name": "1-(4-\u6eb4\u82ef\u57fa)\u73af\u4e01\u70f7\u7fa7\u9178", "en_name": ["1-(4-Bromophenyl)cyclobutanecarboxylic acid", "Cyclobutanecarboxylic acid, 1-(4-bromophenyl)-", "1-(4-Bromophenyl)cyclobutanecarboxylic acid", "1-(4-Bromophenyl)cyclobutane-1-carboxylic acid"], "SMILES": "C(O)(=O)C1(CCC1)C2=CC=C(Br)C=C2", "physical_data": {"Molecular Weight": "255.11", "Molecular Formula": "C11H11BrO2", "Melting Point": "113.6-114.6 \u00b0C"}}