{"cas_no": "15115-59-0", "cn_name": "4-\u6c2f-1-\u831a\u6ee1\u916e", "en_name": ["4-Chloroindan-1-one", "1H-Inden-1-one, 4-chloro-2,3-dihydro-", "1-Indanone, 4-chloro-", "4-Chloro-2,3-dihydro-1H-inden-1-one", "4-Chloroindan-1-one", "4-Chloroindanone"], "SMILES": "ClC1=C2C(C(=O)CC2)=CC=C1", "physical_data": {"Molecular Weight": "166.60", "Molecular Formula": "C9H7ClO", "Melting Point": "89-90 \u00b0C"}}