{"cas_no": "15115-60-3", "cn_name": "4-\u6eb4-1-\u831a\u916e", "en_name": ["4-Bromo-1-indanone", "1H-Inden-1-one, 4-bromo-2,3-dihydro-", "1-Indanone, 4-bromo-", "4-Bromo-2,3-dihydro-1H-inden-1-one", "4-Bromo-1-indanone", "NSC 162080"], "SMILES": "BrC1=C2C(C(=O)CC2)=CC=C1", "physical_data": {"Molecular Weight": "211.06", "Molecular Formula": "C9H7BrO", "Melting Point": "94-95 \u00b0C"}}