{"cas_no": "15112-89-7", "cn_name": "\u4e09(\u4e8c\u7532\u80fa\u57fa)\u7845\u70f7", "en_name": ["N,N,N\u2032,N\u2032,N\u2032\u2032,N\u2032\u2032-Hexamethylsilanetriamine", "Silanetriamine, N,N,N\u2032,N\u2032,N\u2032\u2032,N\u2032\u2032-hexamethyl-", "N,N,N\u2032,N\u2032,N\u2032\u2032,N\u2032\u2032-Hexamethylsilanetriamine", "Tris(dimethylamino)silane", "LS 1460", "Tri(dimethylamino)silane", "[Bis(dimethylamino)silyl]dimethylamine"], "SMILES": "[SiH](N(C)C)(N(C)C)N(C)C", "physical_data": {"Molecular Weight": "161.32", "Molecular Formula": "C6H19N3Si", "Boiling Point": "145-148 \u00b0C", "Melting Point": "&lt;-90 \u00b0C", "Density": "0.838 g/cm\u00b3"}}