{"cas_no": "15129-36-9", "cn_name": "N-(6-\u6c28\u57fa\u5df1\u57fa)\u6c28\u57fa\u7532\u57fa\u4e09\u4e59\u6c27\u57fa\u7845\u70f7", "en_name": ["N1-[(Triethoxysilyl)methyl]-1,6-hexanediamine", "1,6-Hexanediamine, N1-[(triethoxysilyl)methyl]-", "1,6-Hexanediamine, N-[(triethoxysilyl)methyl]-", "N1-[(Triethoxysilyl)methyl]-1,6-hexanediamine", "N-(6-Aminohexyl)aminomethyltriethoxysilane", "N-[(Triethoxysilyl)methyl]-1,6-hexanediamine", "AGM 3", "SiA 0592.6", "AHAMTES", "[(6-Aminohexyl)amino]methyltriethoxysilane", "S 25035"], "SMILES": "[Si](CNCCCCCCN)(OCC)(OCC)OCC", "physical_data": {"Molecular Weight": "292.49", "Molecular Formula": "C13H32N2O3Si", "Boiling Point": "160 \u00b0C @ Press: 0.1 Torr", "Density": "0.928 g/cm\u00b3 @ Temp: 25 \u00b0C"}}