{"cas_no": "15128-52-6", "cn_name": "1,2,3,9-\u56db\u6c22-4H-2-\u5494\u5511-4-\u916e", "en_name": ["1,2,3,9-Tetrahydro-4H-carbazol-4-one", "4H-Carbazol-4-one, 1,2,3,9-tetrahydro-", "Carbazol-4(1H)-one, 2,3-dihydro-", "1,2,3,9-Tetrahydro-4H-carbazol-4-one", "2,3-Dihydrocarbazol-4(1H)-one", "4-Oxo-1,2,3,4-tetrahydrocarbazole", "1,2,3,4-Tetrahydro-4-oxocarbazole", "1,2,3,4-Tetrahydrocarbazol-4-one", "1,2-Dihydro-4(3H)-carbazolone", "1,2,3,9-Tetrahydro-carbazole-4-one", "1,2,3,9-Tetrahydro-carbazol-4-one", "2,3,4,9-Tetrahydro-1H-carbazol-4-one"], "SMILES": "O=C1C=2C=3C(NC2CCC1)=CC=CC3", "physical_data": {"Molecular Weight": "185.22", "Molecular Formula": "C12H11NO", "Melting Point": "223 \u00b0C"}}