{"cas_no": "151257-01-1", "cn_name": "2-\u4e01\u57fa-1,3-\u4e8c\u6c2e\u6742\u87ba\u73af[4,4]\u58ec-1-\u70ef-4-\u916e\u76d0\u9178\u76d0", "en_name": ["1,3-Diazaspiro[4.4]non-1-en-4-one, 2-butyl-, hydrochloride (1:1)", "1,3-Diazaspiro[4.4]non-1-en-4-one, 2-butyl-, hydrochloride (1:1)", "1,3-Diazaspiro[4.4]non-1-en-4-one, 2-butyl-, monohydrochloride", "2-Butyl-1,3-diazaspiro[4.4]non-1-en-4-one hydrochloride"], "SMILES": "O=C1C2(NC(CCCC)=N1)CCCC2.Cl", "physical_data": {"Molecular Weight": "", "Molecular Formula": "C11H18N2O.ClH", "Melting Point": "68 \u00b0C"}}