{"cas_no": "15128-82-2", "cn_name": "3-\u7f9f\u57fa-2-\u785d\u57fa\u5421\u5576", "en_name": ["3-Hydroxy-2-nitropyridine", "3-Pyridinol, 2-nitro-", "2-Nitro-3-pyridinol", "3-Hydroxy-2-nitropyridine", "2-Nitro-3-hydroxypyridine", "NSC 97501"], "SMILES": "N(=O)(=O)C1=C(O)C=CC=N1", "physical_data": {"Molecular Weight": "140.10", "Molecular Formula": "C5H4N2O3", "Melting Point": "66-68 \u00b0C"}}