{"cas_no": "15121-89-8", "cn_name": "\u53cd-3-\u82ef\u7532\u9170\u4e19\u70ef\u9178\u4e59\u916f", "en_name": ["Ethyl (2E)-4-oxo-4-phenyl-2-butenoate", "2-Butenoic acid, 4-oxo-4-phenyl-, ethyl ester, (2E)-", "Acrylic acid, 3-benzoyl-, ethyl ester, (E)-", "2-Butenoic acid, 4-oxo-4-phenyl-, ethyl ester, (E)-", "Ethyl (2E)-4-oxo-4-phenyl-2-butenoate", "Ethyl \u03b2-benzoylacrylate", "Ethyl trans-\u03b2-benzoylacrylate", "Ethyl trans-benzoylacrylate", "(2E)-4-Oxo-4-phenyl-2-butenoic acid ethyl ester", "(E)-Ethyl 4-oxo-4-phenyl-2-butenoate", "Ethyl trans-3-benzoylacrylate", "(2E)-4-Oxo-4-phenyl-2-butenoic acid ethyl ester", "Ethyl (E)-4-oxo-4-phenylbut-2-enoate"], "SMILES": "C(C=CC(OCC)=O)(=O)C1=CC=CC=C1", "physical_data": {"Molecular Weight": "204.22", "Molecular Formula": "C12H12O3", "Boiling Point": "131-132 \u00b0C @ Press: 1.5 Torr", "Density": "1.1080 g/cm\u00b3 @ Temp: 25 \u00b0C"}}