{"cas_no": "1512-30-7", "cn_name": "\u4e8c\u6c1f\u7532\u78fa\u9170\u6c2f", "en_name": ["1,1-Difluoromethanesulfonyl chloride", "Methanesulfonyl chloride, 1,1-difluoro-", "Methanesulfonyl chloride, difluoro-", "1,1-Difluoromethanesulfonyl chloride", "Difluoromethanesulfonyl chloride"], "SMILES": "S(C(F)F)(Cl)(=O)=O", "physical_data": {"Molecular Weight": "150.53", "Molecular Formula": "CHClF2O2S", "Boiling Point": "95-99 \u00b0C"}}