{"cas_no": "15128-90-2", "cn_name": "3-\u7f9f\u57fa-6-\u7532\u57fa-2-\u785d\u57fa\u5421\u5576", "en_name": ["3-Hydroxy-6-methyl-2-nitropyridine", "3-Pyridinol, 6-methyl-2-nitro-", "6-Methyl-2-nitro-3-pyridinol", "3-Hydroxy-6-methyl-2-nitropyridine", "NSC 102501"], "SMILES": "N(=O)(=O)C1=C(O)C=CC(C)=N1", "physical_data": {"Molecular Weight": "154.12", "Molecular Formula": "C6H6N2O3", "Melting Point": "105-106 \u00b0C"}}