{"cas_no": "15121-84-3", "cn_name": "2-(2-\u785d\u57fa\u82ef\u57fa)\u4e59\u9187", "en_name": ["2-Nitrobenzeneethanol", "Benzeneethanol, 2-nitro-", "Phenethyl alcohol, o-nitro-", "2-Nitrobenzeneethanol", "2-(o-Nitrophenyl)ethanol", "o-Nitrophenethyl alcohol", "2-(o-Nitrophenyl)ethyl alcohol", "2-Nitrophenethyl alcohol", "2-(2-Nitrophenyl)ethanol", "2-(2-Hydroxyethyl)nitrobenzene", "1-(2-Hydroxyethyl)-2-nitrobenzene", "2-(2-Nitrophenyl)ethan-1-ol"], "SMILES": "N(=O)(=O)C1=C(CCO)C=CC=C1", "physical_data": {"Molecular Weight": "167.16", "Molecular Formula": "C8H9NO3", "Boiling Point": "267 \u00b0C", "Melting Point": "2 \u00b0C", "Density": "1.253 g/cm\u00b3 @ Temp: 22 \u00b0C"}}