{"cas_no": "15121-94-5", "cn_name": "\u6a31\u8349\u7d20", "en_name": ["Primin", "2,5-Cyclohexadiene-1,4-dione, 2-methoxy-6-pentyl-", "p-Benzoquinone, 2-methoxy-6-pentyl-", "2-Methoxy-6-pentyl-2,5-cyclohexadiene-1,4-dione", "Primin", "2-Methoxy-6-pentyl-1,4-benzoquinone"], "SMILES": "C(CCCC)C=1C(=O)C(OC)=CC(=O)C1", "physical_data": {"Molecular Weight": "208.25", "Molecular Formula": "C12H16O3", "Boiling Point": "163 \u00b0C @ Press: 3 Torr", "Melting Point": "63 \u00b0C"}}