{"cas_no": "151319-34-5", "cn_name": "\u624e\u6765\u666e\u9686", "en_name": ["Zaleplon", "Acetamide, N-[3-(3-cyanopyrazolo[1,5-a]pyrimidin-7-yl)phenyl]-N-ethyl-", "Pyrazolo[1,5-a]pyrimidine, acetamide deriv.", "N-[3-(3-Cyanopyrazolo[1,5-a]pyrimidin-7-yl)phenyl]-N-ethylacetamide", "CL 284846", "Zaleplon", "LJC 10846", "L 846", "Sonata", "Siesta", "Zerene"], "SMILES": "C(#N)C1=C2N(C(=CC=N2)C3=CC(N(C(C)=O)CC)=CC=C3)N=C1", "physical_data": {"Molecular Weight": "305.33", "Molecular Formula": "C17H15N5O", "Melting Point": "184-186 \u00b0C"}}