{"cas_no": "1513-65-1", "cn_name": "2,6-\u4e8c\u6c1f\u5421\u5576", "en_name": ["2,6-Difluoropyridine", "Pyridine, 2,6-difluoro-", "2,6-Difluoropyridine", "NSC 331814"], "SMILES": "FC=1N=C(F)C=CC1", "physical_data": {"Molecular Weight": "115.08", "Molecular Formula": "C5H3F2N", "Boiling Point": "125 \u00b0C"}}