{"cas_no": "1513-66-2", "cn_name": "2,3-\u4e8c\u6c1f\u5421\u5576", "en_name": ["2,3-Difluoropyridine", "Pyridine, 2,3-difluoro-", "2,3-Difluoropyridine"], "SMILES": "FC1=C(F)N=CC=C1", "physical_data": {"Molecular Weight": "115.08", "Molecular Formula": "C5H3F2N", "Boiling Point": "118 \u00b0C"}}