{"cas_no": "15130-85-5", "cn_name": "\u725b\u819d\u753e\u916e", "en_name": ["Inokosterone", "Cholest-7-en-6-one, 2,3,14,20,22,26-hexahydroxy-, (2\u03b2,3\u03b2,5\u03b2,22R)-", "5\u03b2-Cholest-7-en-6-one, 2\u03b2,3\u03b2,14,20,22,26-hexahydroxy-, (22R,25RS)-", "(2\u03b2,3\u03b2,5\u03b2,22R)-2,3,14,20,22,26-Hexahydroxycholest-7-en-6-one", "Inokosterone", "NSC 342715", "Inocosterone"], "SMILES": "OC12C=3C(C4(C)C(C(=O)C3)CC(O)C(O)C4)CCC1(C)C(C(C(CCC(CO)C)O)(C)O)CC2", "physical_data": {"Molecular Weight": "480.63", "Molecular Formula": "C27H44O7", "Melting Point": "255 \u00b0C (decomp)"}}