{"cas_no": "15149-10-7", "cn_name": "2-(4-\u7532\u57fa\u82ef\u6c27\u57fa)\u4e59\u9187", "en_name": ["2-(4-Methylphenoxy)ethanol", "Ethanol, 2-(4-methylphenoxy)-", "Ethanol, 2-(p-tolyloxy)-", "2-(4-Methylphenoxy)ethanol", "2-(p-Tolyloxy)ethanol", "\u03b2-Hydroxyethyl p-methylphenyl ether", "Ethylene glycol mono-p-tolyl ether", "\u03b2-(p-Cresyloxy)ethanol", "Ethylene glycol mono-p-cresol ether", "1-(2-Hydroxyethoxy)-4-methylbenzene", "p-(2-Hydroxyethoxy)toluene", "\u03b2-(p-Tolyloxy)ethanol", "Ethylene glycol mono(4-methylphenyl) ether", "NSC 68802", "2-(p-Tolyloxy)ethan-1-ol", "2-(4-Methylphenoxy)ethan-1-ol"], "SMILES": "O(CCO)C1=CC=C(C)C=C1", "physical_data": {"Molecular Weight": "152.19", "Molecular Formula": "C9H12O2", "Boiling Point": "142 \u00b0C @ Press: 22 Torr", "Melting Point": "44-45 \u00b0C"}}