{"cas_no": "1514-90-5", "cn_name": "\u5168\u6c1f\u5f02\u620a\u57fa\u7898", "en_name": ["1,1,1,2,3,3,4,4-Octafluoro-4-iodo-2-(trifluoromethyl)butane", "Butane, 1,1,1,2,3,3,4,4-octafluoro-4-iodo-2-(trifluoromethyl)-", "Butane, octafluoro-1-iodo-3-(trifluoromethyl)-", "1,1,1,2,3,3,4,4-Octafluoro-4-iodo-2-(trifluoromethyl)butane", "1,1,2,2,3,4,4,4-Octafluoro-3-(trifluoromethyl)butyl iodide", "1-Iodoperfluoro(3-methylbutane)"], "SMILES": "C(C(C(F)(F)I)(F)F)(C(F)(F)F)(C(F)(F)F)F", "physical_data": {"Molecular Weight": "395.94", "Molecular Formula": "C5F11I", "Boiling Point": "94 \u00b0C @ Press: 760 Torr"}}