{"cas_no": "15140-27-9", "cn_name": "\u73af\u5df1\u7532\u9178\u96cc\u4e8c\u9187", "en_name": ["Estra-1,3,5(10)-triene-3,17-diol (17\u03b2)-, 17-cyclohexanecarboxylate", "Estra-1,3,5(10)-triene-3,17-diol (17\u03b2)-, 17-cyclohexanecarboxylate", "Estradiol, 17-cyclohexanecarboxylate", "Cyclohexanecarboxylic acid, 17-ester with estradiol"], "SMILES": "CC12C(C3C(C=4C(CC3)=CC(O)=CC4)CC1)CCC2OC(=O)C5CCCCC5", "physical_data": {"Molecular Weight": "382.54", "Molecular Formula": "C25H34O3", "Melting Point": "154-155 \u00b0C"}}