{"cas_no": "1514-87-0", "cn_name": "2-\u6c2f-2,2-\u4e8c\u6c1f\u4e59\u9178\u7532\u916f", "en_name": ["Methyl 2-chloro-2,2-difluoroacetate", "Acetic acid, 2-chloro-2,2-difluoro-, methyl ester", "Acetic acid, chlorodifluoro-, methyl ester", "Methyl 2-chloro-2,2-difluoroacetate", "Methyl chlorodifluoroacetate", "Chlorodifluoroacetic acid methyl ester"], "SMILES": "C(C(Cl)(F)F)(OC)=O", "physical_data": {"Molecular Weight": "144.50", "Molecular Formula": "C3H3ClF2O2", "Boiling Point": "79-81 \u00b0C", "Density": "1.3701 g/cm\u00b3 @ Temp: 18 \u00b0C"}}