{"cas_no": "1514-82-5", "cn_name": "2-\u6eb4-3,3,3-\u4e09\u6c1f\u4e19\u70ef", "en_name": ["2-Bromo-3,3,3-trifluoro-1-propene", "1-Propene, 2-bromo-3,3,3-trifluoro-", "Propene, 2-bromo-3,3,3-trifluoro-", "2-Bromo-3,3,3-trifluoro-1-propene", "2-Bromo-3,3,3-trifluoropropene", "3,3,3-Trifluoro-2-bromopropene", "NSC 117350", "Halon 1323", "R 1233XfB", "R 1233xfB"], "SMILES": "C(C(Br)=C)(F)(F)F", "physical_data": {"Molecular Weight": "174.95", "Molecular Formula": "C3H2BrF3", "Boiling Point": "33.0-33.5 \u00b0C"}}