{"cas_no": "15145-69-4", "cn_name": "3-\u6c2f\u82c4\u53c9\u4e8c\u6c2f", "en_name": ["1-Chloro-3-(dichloromethyl)benzene", "Benzene, 1-chloro-3-(dichloromethyl)-", "Toluene, m,\u03b1,\u03b1-trichloro-", "1-Chloro-3-(dichloromethyl)benzene", "3-Chlorobenzylidene chloride", "m-Chlorobenzal chloride", "3-Chlorobenzal chloride", "m,\u03b1,\u03b1-Trichlorotoluene", "1-(Dichloromethyl)-3-chlorobenzene"], "SMILES": "C(Cl)(Cl)C1=CC(Cl)=CC=C1", "physical_data": {"Molecular Weight": "195.47", "Molecular Formula": "C7H5Cl3", "Boiling Point": "66 \u00b0C @ Press: 0.2 Torr"}}