{"cas_no": "151513-70-1", "cn_name": "\u4e8c\u4e59\u9170\u57fa\u5927\u82b1\u65cb\u8986\u82b1\u5185", "en_name": ["1,6-O,O-Diacetylbritannilactone", "2(3H)-Benzofuranone, 4-(acetyloxy)-5-[(1S)-4-(acetyloxy)-1-methylbutyl]-3a,4,7,7a-tetrahydro-6-methyl-3-methylene-, (3aR,4S,7aR)-", "(3aR,4S,7aR)-4-(Acetyloxy)-5-[(1S)-4-(acetyloxy)-1-methylbutyl]-3a,4,7,7a-tetrahydro-6-methyl-3-methylene-2(3H)-benzofuranone", "Di-O-acetylbritannilactone", "Britannilactone diacetate", "1,6-O,O-Diacetylbritannilactone"], "SMILES": "O(C(C)=O)C1C2C(CC(C)=C1C(CCCOC(C)=O)C)OC(=O)C2=C", "physical_data": {"Molecular Weight": "350.41", "Molecular Formula": "C19H26O6", "Melting Point": "83-84 \u00b0C"}}