{"cas_no": "1515-72-6", "cn_name": "N-\u6b63\u4e01\u57fa\u90bb\u82ef\u4e8c\u7532\u9170\u4e9a\u80fa", "en_name": ["N-Butylphthalimide", "1H-Isoindole-1,3(2H)-dione, 2-butyl-", "Phthalimide, N-butyl-", "2-Butyl-1H-isoindole-1,3(2H)-dione", "N-Butylphthalimide", "N-Butylphthalimide", "N-n-Butylphthalimide", "NSC 3559", "Levegal EAP 4", "2-Butylisoindole-1,3-dione", "2-Butyl-2,3-dihydro-1H-isoindole-1,3-dione", "2-Butyl-isoindole-1,3-dione", "2-Butylisoindoline-1,3-dione"], "SMILES": "O=C1C=2C(C(=O)N1CCCC)=CC=CC2", "physical_data": {"Molecular Weight": "203.24", "Molecular Formula": "C12H13NO2", "Boiling Point": "311.8 \u00b0C", "Melting Point": "34 \u00b0C"}}