{"cas_no": "1515-95-3", "cn_name": "4-\u4e59\u57fa\u82ef\u7532\u919a", "en_name": ["1-Ethyl-4-methoxybenzene", "Benzene, 1-ethyl-4-methoxy-", "Anisole, p-ethyl-", "1-Ethyl-4-methoxybenzene", "p-Ethylanisole", "4-Ethylanisole", "4-Methoxyethylbenzene", "p-Ethylmethoxybenzene", "Methyl p-ethylphenyl ether", "p-Methoxyethylbenzene", "1-Methoxy-4-ethylbenzene", "4-Ethylmethoxybenzene", "NSC 5294", "4-Ethyl-1-methoxybenzene", "4-Methoxy-1-ethylbenzene", "4-Methoxyphenylethane"], "SMILES": "C(C)C1=CC=C(OC)C=C1", "physical_data": {"Molecular Weight": "136.19", "Molecular Formula": "C9H12O", "Boiling Point": "198 \u00b0C"}}