{"cas_no": "1515-14-6", "cn_name": "1,1,1,3,3,3-\u516d\u6c1f-2-\u7532\u57fa-2-\u4e19\u9187", "en_name": ["1,1,1,3,3,3-Hexafluoro-2-methyl-2-propanol", "2-Propanol, 1,1,1,3,3,3-hexafluoro-2-methyl-", "1,1,1,3,3,3-Hexafluoro-2-methyl-2-propanol", "2-Methylhexafluoro-2-propanol", "Hexafluoro-tert-butanol", "1,1-Bis(trifluoromethyl)ethanol", "1,1,1,3,3,3-Hexafluoro-2-hydroxy-2-methylpropane", "Hexafluoro-tert-butyl alcohol", "1,1,1-Trifluoro-2-trifluoromethyl-2-propanol"], "SMILES": "C(C(F)(F)F)(C(F)(F)F)(C)O", "physical_data": {"Molecular Weight": "182.06", "Molecular Formula": "C4H4F6O", "Boiling Point": "60.5-61.5 \u00b0C", "Density": "1.4840 g/cm\u00b3 @ Temp: 20 \u00b0C"}}