{"cas_no": "1515-89-5", "cn_name": "1-BROMO-3-(METHOXYMETHYL)BENZENE", "en_name": ["3-Bromobenzyl methyl ether", "Benzene, 1-bromo-3-(methoxymethyl)-", "Ether, m-bromobenzyl methyl", "1-Bromo-3-(methoxymethyl)benzene", "1-Bromo-3-methoxymethylbenzene", "3-Bromobenzyl methyl ether"], "SMILES": "C(OC)C1=CC(Br)=CC=C1", "physical_data": {"Molecular Weight": "201.06", "Molecular Formula": "C8H9BrO", "Boiling Point": "117-118 \u00b0C @ Press: 21 Torr"}}