{"cas_no": "1515-81-7", "cn_name": "(4-\u7532\u6c27\u57fa\u82c4\u57fa)\u7532\u919a", "en_name": ["1-Methoxy-4-(methoxymethyl)benzene", "Benzene, 1-methoxy-4-(methoxymethyl)-", "Toluene, p,\u03b1-dimethoxy-", "1-Methoxy-4-(methoxymethyl)benzene", "p-Methoxybenzyl methyl ether", "p-Methoxymethylanisole", "4-Methoxymethylanisole", "4-Methoxybenzyl methyl ether", "p-Methoxybenzylalcohol methyl ether", "NSC 37490"], "SMILES": "C(OC)C1=CC=C(OC)C=C1", "physical_data": {"Molecular Weight": "152.19", "Molecular Formula": "C9H12O2", "Boiling Point": "107-108 \u00b0C", "Melting Point": "203-204 \u00b0C", "Density": "1.026 g/cm\u00b3 @ Temp: 20 \u00b0C"}}