{"cas_no": "15159-40-7", "cn_name": "4-\u5417\u5549\u78b3\u9170\u6c2f", "en_name": ["4-Morpholinecarbonyl chloride", "4-Morpholinecarbonyl chloride", "Morpholinocarbonyl chloride", "Morpholine, 4-(chlorocarbonyl)-", "N-Chlorocarbonylmorpholine", "4-(Chloroformyl)morpholine", "4-Morpholinocarbonyl chloride", "4-(Chlorocarbonyl)morpholine", "NSC 50226", "4-Morpholinecarboxylic acid chloride", "N-Morpholinecarbonyl chloride", "4-Morpholinylcarbonyl chloride", "Morpholine-4-carbonyl chloride"], "SMILES": "C(Cl)(=O)N1CCOCC1", "physical_data": {"Molecular Weight": "149.58", "Molecular Formula": "C5H8ClNO2", "Boiling Point": "102 \u00b0C @ Press: 8 Torr", "Density": "1.2816 g/cm\u00b3 @ Temp: 20 \u00b0C"}}