{"cas_no": "1515-80-6", "cn_name": "\u5c71\u68a8\u9178\u7532\u916f", "en_name": ["Methyl 2,4-hexadienoate", "2,4-Hexadienoic acid, methyl ester", "Methyl 2,4-hexadienoate", "NSC 33701"], "SMILES": "C(C=CC=CC)(OC)=O", "physical_data": {"Molecular Weight": "126.15", "Molecular Formula": "C7H10O2", "Boiling Point": "180 \u00b0C", "Melting Point": "15 \u00b0C", "Density": "0.9612 g/cm\u00b3 @ Temp: 20 \u00b0C"}}