{"cas_no": "1515-75-9", "cn_name": "1.3-\u4e01\u4e8c\u70ef\u9178\u7532\u916f", "en_name": ["2,4-Pentadienoic acid, methyl ester", "2,4-Pentadienoic acid, methyl ester", "Methyl \u03b2-vinylacrylate", "Methyl 2,4-pentadienoate", "1-(Methoxycarbonyl)-1,3-butadiene", "Methyl 3-vinylacrylate", "1,3-Butadiene-1-carboxylic acid methyl ester"], "SMILES": "C(C=CC=C)(OC)=O", "physical_data": {"Molecular Weight": "112.13", "Molecular Formula": "C6H8O2", "Boiling Point": "50-52 \u00b0C @ Press: 20 Torr", "Density": "0.9710 g/cm\u00b3 @ Temp: 20 \u00b0C"}}