{"cas_no": "15151-57-2", "cn_name": "2,4-\u4e8c\u7f9f\u57fa-3-\u785d\u57fa\u55b9\u5549", "en_name": ["4-Hydroxy-3-nitro-2(1H)-quinolinone", "2(1H)-Quinolinone, 4-hydroxy-3-nitro-", "2,4-Quinolinediol, 3-nitro-", "4-Hydroxy-3-nitro-2(1H)-quinolinone", "3-Nitro-2,4-quinolinediol", "2,4-Dihydroxy-3-nitroquinoline"], "SMILES": "OC=1C=2C(NC(=O)C1N(=O)=O)=CC=CC2", "physical_data": {"Molecular Weight": "206.15", "Molecular Formula": "C9H6N2O4", "Melting Point": "225 \u00b0C (decomp)"}}