{"cas_no": "1515-76-0", "cn_name": "1-\u4e59\u9170\u6c27\u57fa-1,3-\u4e01\u4e8c\u70ef", "en_name": ["1,3-Butadien-1-ol, 1-acetate", "1,3-Butadien-1-ol, 1-acetate", "1,3-Butadien-1-ol, acetate", "1-Acetoxy-1,3-butadiene", "1-Acetoxybutadiene", "1,3-Butadienyl acetate", "Butadienyl acetate"], "SMILES": "O(C=CC=C)C(C)=O", "physical_data": {"Molecular Weight": "112.13", "Molecular Formula": "C6H8O2", "Boiling Point": "52-54 \u00b0C @ Press: 40 Torr", "Density": "0.9643 g/cm\u00b3 @ Temp: 20 \u00b0C"}}