{"cas_no": "1516-17-2", "cn_name": "\u53cd,\u53cd-2,4-\u5df1\u4e8c\u70ef\u919b\u918b\u9178\u916f", "en_name": ["2,4-Hexadien-1-ol, 1-acetate", "2,4-Hexadien-1-ol, 1-acetate", "2,4-Hexadien-1-ol, acetate", "2,4-Hexadienyl acetate", "1-Acetoxy-2,4-hexadiene", "2,4-Hexadien-1-yl acetate"], "SMILES": "C(C=CC=CC)OC(C)=O", "physical_data": {"Molecular Weight": "140.18", "Molecular Formula": "C8H12O2", "Boiling Point": "94-95 \u00b0C @ Press: 31 Torr", "Density": "0.9106 g/cm\u00b3 @ Temp: 20 \u00b0C"}}