{"cas_no": "1516-27-4", "cn_name": "\u70ef\u4e19\u57fa\u4e09\u7532\u57fa\u6c2f\u5316\u94f5", "en_name": ["2-Propen-1-aminium, N,N,N-trimethyl-, chloride (1:1)", "2-Propen-1-aminium, N,N,N-trimethyl-, chloride (1:1)", "Ammonium, allyltrimethyl-, chloride", "2-Propen-1-aminium, N,N,N-trimethyl-, chloride", "Allyltrimethylammonium chloride", "Trimethylallylammonium chloride"], "SMILES": "C([N+](C)(C)C)C=C.[Cl-]", "physical_data": {"Molecular Weight": "", "Molecular Formula": "C6H14N.Cl", "Melting Point": "185-186 \u00b0C"}}