{"cas_no": "15165-67-0", "cn_name": "(R)-2-(2,4-\u4e8c\u6c2f\u82ef\u6c27\u57fa)\u4e19\u9178", "en_name": ["(+)-Dichlorprop", "Propanoic acid, 2-(2,4-dichlorophenoxy)-, (2R)-", "Propionic acid, 2-(2,4-dichlorophenoxy)-, (+)-", "Propanoic acid, 2-(2,4-dichlorophenoxy)-, (R)-", "(2R)-2-(2,4-Dichlorophenoxy)propanoic acid", "(+)-2,4-DP", "(+)-2-(2,4-Dichlorophenoxy)propanoic acid", "(R)-(+)-2-(2,4-Dichlorophenoxy)propionic acid", "Dichlorprop-P", "(R)-2-(2,4-Dichlorophenoxy)propionic acid", "(+)-Dichlorprop", "(R)-Dichlorprop", "(+)-2-(2,4-Dichlorophenoxy)propionic acid", "R-(+)-Dichlorprop", "(R)-Dichloroprop", "(R)-2-(2,4-Dichlorophenoxy)propanoic acid", "(R)-2-(2,4-Dichlorophenoxy)propanoic acid", "2,4-DP-P"], "SMILES": "O(C(C(O)=O)C)C1=C(Cl)C=C(Cl)C=C1", "physical_data": {"Molecular Weight": "235.06", "Molecular Formula": "C9H8Cl2O3", "Melting Point": "122-123 \u00b0C"}}