{"cas_no": "1516-08-1", "cn_name": "\u6c18\u4ee3\u4e59\u9187", "en_name": ["Ethanol-d6", "Ethanol-d6", "Ethyl-d5 alcohol-d", "Deuterioethanol-d6", "Hexadeuterioethanol", "Perdeuterioethanol", "Deuteroethanol-d6", "Perdeuteroethanol", "Hexadeuteroethanol", "1,1,2,2,2-Pentadeuteroethanol-d", "[2H6]Ethanol"], "SMILES": "C(C)(O)([2H])[2H]", "physical_data": {"Molecular Weight": "", "Molecular Formula": "C2D6O", "Boiling Point": "78.0-78.5 \u00b0C"}}