{"cas_no": "1516-32-1", "cn_name": "\u6b63\u4e01\u57fa\u786b\u8132", "en_name": ["N-Butylthiourea", "Thiourea, N-butyl-", "Urea, 1-butyl-2-thio-", "Thiourea, butyl-", "N-Butylthiourea", "Butylthiourea", "1-Butyl-2-thiourea", "1-Butylthiourea", "NSC 202953"], "SMILES": "N(CCCC)C(N)=S", "physical_data": {"Molecular Weight": "132.23", "Molecular Formula": "C5H12N2S", "Melting Point": "79 \u00b0C"}}