{"cas_no": "1516-80-9", "cn_name": "\u4e59\u6c27\u57fa\u4e09\u82ef\u57fa\u7845\u70f7", "en_name": ["1,1\u2032,1\u2032\u2032-(Ethoxysilylidyne)tris[benzene]", "Benzene, 1,1\u2032,1\u2032\u2032-(ethoxysilylidyne)tris-", "Silane, ethoxytriphenyl-", "1,1\u2032,1\u2032\u2032-(Ethoxysilylidyne)tris[benzene]", "Triphenylethoxysilane", "Ethoxytriphenylsilane", "Ethyl triphenylsilyl ether", "Triphenylsiliconethoxide", "NSC 93020", "LS 6690"], "SMILES": "[Si](OCC)(C1=CC=CC=C1)(C2=CC=CC=C2)C3=CC=CC=C3", "physical_data": {"Molecular Weight": "304.46", "Molecular Formula": "C20H20OSi", "Boiling Point": "344 \u00b0C", "Melting Point": "65 \u00b0C"}}