{"cas_no": "1516-37-6", "cn_name": "2-\u7532\u6c27\u57fa\u82ef\u57fa\u786b\u8132", "en_name": ["(2-Methoxyphenyl)thiourea", "Thiourea, N-(2-methoxyphenyl)-", "Urea, 1-(o-methoxyphenyl)-2-thio-", "Thiourea, (2-methoxyphenyl)-", "N-(2-Methoxyphenyl)thiourea", "(o-Methoxyphenyl)thiourea", "N-(o-Methoxyphenyl)thiourea", "1-(o-Methoxyphenyl)-2-thiourea", "1-(o-Methoxyphenyl)thiourea", "(2-Methoxyphenyl)thiourea", "1-(2-Methoxyphenyl)thiourea", "2-Thioureidoanisole", "NSC 523842", "1-(2-Methoxyphenyl)-2-thiourea"], "SMILES": "N(C(N)=S)C1=C(OC)C=CC=C1", "physical_data": {"Molecular Weight": "182.24", "Molecular Formula": "C8H10N2OS", "Melting Point": "156 \u00b0C"}}