{"cas_no": "1516-96-7", "cn_name": "4-\u6eb4-2,6-\u4e8c\u53d4\u4e01\u57fa\u82ef\u7532\u919a", "en_name": ["5-Bromo-1,3-bis(1,1-dimethylethyl)-2-methoxybenzene", "Benzene, 5-bromo-1,3-bis(1,1-dimethylethyl)-2-methoxy-", "Anisole, 4-bromo-2,6-di-tert-butyl-", "5-Bromo-1,3-bis(1,1-dimethylethyl)-2-methoxybenzene", "4-Bromo-2,6-di-tert-butylanisole", "1-Bromo-4-methoxy-3,5-di-tert-butylbenzene", "3,5-Di-tert-butyl-4-methoxybromobenzene", "5-Bromo-1,3-di(tert-butyl)-2-methoxybenzene", "1-Bromo-3,5-di-tert-butyl-4-methoxybenzene", "4-Methoxy-3,5-di(tert-butyl)bromobenzene", "5-Bromo-2-methoxy-1,3-di-tert-butylbenzene"], "SMILES": "O(C)C1=C(C(C)(C)C)C=C(Br)C=C1C(C)(C)C", "physical_data": {"Molecular Weight": "299.25", "Molecular Formula": "C15H23BrO", "Melting Point": "49-50 \u00b0C"}}