{"cas_no": "151613-25-1", "cn_name": "\u4e8c\u7532\u6c28\u57fa\u4e8c\u5f02\u4e19\u57fa\u8f9b\u57fa\u7845\u70f7", "en_name": ["N,N-Dimethyl-1,1-bis(1-methylethyl)-1-octylsilanamine", "Silanamine, N,N-dimethyl-1,1-bis(1-methylethyl)-1-octyl-", "N,N-Dimethyl-1,1-bis(1-methylethyl)-1-octylsilanamine", "1,1-Diisopropyl-N,N-dimethyl-1-octylsilanamine"], "SMILES": "[Si](CCCCCCCC)(C(C)C)(C(C)C)N(C)C", "physical_data": {"Molecular Weight": "271.56", "Molecular Formula": "C16H37NSi", "Boiling Point": "105 \u00b0C @ Press: 0.7 Torr", "Density": "0.833 g/cm\u00b3"}}