{"cas_no": "15170-57-7", "cn_name": "\u4e8c(\u4e59\u9170\u4e19\u916e)\u94c2(II)", "en_name": ["Platinum acetylacetonate", "Platinum, bis(2,4-pentanedionato-\u03baO2,\u03baO4)-, (SP-4-1)-", "Platinum, bis(2,4-pentanedionato)-", "Platinum, bis(2,4-pentanedionato-O,O\u2032)-, (SP-4-1)-", "Platinum, bis(2,4-pentanedionato-\u03baO,\u03baO\u2032)-, (SP-4-1)-", "(SP-4-1)-Bis(2,4-pentanedionato-\u03baO2,\u03baO4)platinum", "Platinum acetylacetonate", "Platinum bis(acetylacetonate)", "Bis(acetylacetonato)platinum", "Bis(2,4-pentanedionato)platinum", "Platinum(2+) acetylacetonate", "Platinum(II) acetylacetonate", "Bis(acetylacetonato)platinum(II)", "Pt(acac)2", "Pt 70"], "SMILES": "CC1=O[Pt+2]2(O=C(C)[CH-]C(C)=O2)O=C(C)[CH-]1", "physical_data": {"Molecular Weight": "", "Molecular Formula": "C10H14O4Pt", "Melting Point": "239.4 \u00b0C (decomp)"}}