{"cas_no": "1517-63-1", "cn_name": "4-\u7532\u57fa\u4e8c\u82ef\u7532\u9187", "en_name": ["4-Methylbenzhydrol", "Benzenemethanol, 4-methyl-\u03b1-phenyl-", "Benzhydrol, 4-methyl-", "4-Methyl-\u03b1-phenylbenzenemethanol", "4-Methylbenzhydrol", "p-Methylbenzhydrol", "Phenyl-p-tolylmethanol", "\u03b1-(4-Methylphenyl)benzenemethanol", "\u03b1-(4-Methylphenyl)phenylmethanol", "4-Methylphenyl(phenyl)methanol", "Phenyl(4-tolyl)methanol", "NSC 5324", "1-(4-Methylphenyl)-1-phenylmethanol"], "SMILES": "C(O)(C1=CC=C(C)C=C1)C2=CC=CC=C2", "physical_data": {"Molecular Weight": "198.26", "Molecular Formula": "C14H14O", "Melting Point": "50-54 \u00b0C"}}