{"cas_no": "15177-67-0", "cn_name": "\u53cd\u5f0f-1,4-\u73af\u5df1\u70f7\u4e8c\u7532\u9178\u5355\u7532\u916f", "en_name": ["trans-4-(Methoxycarbonyl)cyclohexanecarboxylic acid", "1,4-Cyclohexanedicarboxylic acid, 1-methyl ester, trans-", "1,4-Cyclohexanedicarboxylic acid, monomethyl ester, trans-", "Monomethyl trans-1,4-cyclohexanedicarboxylate", "trans-1,4-Cyclohexanedicarboxylic acid monomethyl ester", "1,4-trans-Cyclohexanedicarboxylic acid monomethyl ester", "Monomethyl trans-cyclohexane-1,4-dicarboxylate", "trans-4-Carbomethoxycyclohexane-1-carboxylic acid", "trans-4-(Methoxycarbonyl)cyclohexanecarboxylic acid", "trans-4-(Methoxycarbonyl)cyclohexane-1-carboxylic acid"], "SMILES": "C(OC)(=O)C1CCC(C(O)=O)CC1", "physical_data": {"Molecular Weight": "186.21", "Molecular Formula": "C9H14O4", "Melting Point": "67.5-68.5 \u00b0C"}}