{"cas_no": "1517-69-7", "cn_name": "(R)-(+)-1-\u82ef\u57fa\u4e59\u9187", "en_name": ["(+)-1-Phenylethanol", "Benzenemethanol, \u03b1-methyl-, (\u03b1R)-", "Benzyl alcohol, \u03b1-methyl-, (R)-(+)-", "Benzenemethanol, \u03b1-methyl-, (R)-", "(\u03b1R)-\u03b1-Methylbenzenemethanol", "D-(+)-Methylphenylcarbinol", "(+)-\u03b1-Methylbenzyl alcohol", "(+)-1-Phenylethanol", "(R)-\u03b1-Methylbenzyl alcohol", "(R)-(+)-\u03b1-Hydroxyethylbenzene", "(+)-\u03b1-Phenylethanol", "d-1-Phenylethanol", "(R)-(+)-\u03b1-Phenylethanol", "D-(+)-\u03b1-Phenylethanol", "(R)-(+)-\u03b1-Methylbenzyl alcohol", "d-\u03b1-Phenethyl alcohol", "(R)-\u03b1-Phenylethanol", "R(+)-Phenylethanol", "(R)-(+)-\u03b1-Methylbenzenemethanol", "(R)-1-Phenylethyl alcohol", "(R)-(+)-\u03b1-Phenethyl alcohol", "(R)-Phenylmethylcarbinol", "(R)-1-Phenylethanol", "(+)-sec-Phenethyl alcohol", "(R)-sec-Phenethyl alcohol", "(R)-\u03b1-Hydroxyethylbenzene", "(+)-1-Phenylethyl alcohol", "(R)-\u03b1-Phenethyl alcohol", "(+)-\u03b1-Phenethyl alcohol", "(R)-\u03b1-Methylbenzenemethanol", "R-\u03b1-Methylbenzyl alcohol", "(R)-(+)-sec-Phenethyl alcohol", "(R)-sec-Phenylethyl alcohol", "(R)-Phenylethanol", "(R)-(+)-1-Phenylethanol", "(1R)-1-Phenylethanol", "(R)-(+)-Phenylethanol", "(R)-(+)-1-Phenylethanol", "(1R)-1-Phenylethanol", "(R)-Phenylethanol", "(R)-1-Phenylethan-1-ol", "(1R)-1-Phenylethan-1-ol"], "SMILES": "C(C)(O)C1=CC=CC=C1", "physical_data": {"Molecular Weight": "122.16", "Molecular Formula": "C8H10O", "Boiling Point": "98 \u00b0C", "Melting Point": "9-11 \u00b0C"}}