{"cas_no": "15174-47-7", "cn_name": "\u53cd\u5f0f-ALPHA-\u7532\u57fa\u8089\u6842\u919b", "en_name": ["\u03b1-Methyl-trans-cinnamaldehyde", "2-Propenal, 2-methyl-3-phenyl-, (2E)-", "Cinnamaldehyde, \u03b1-methyl-, (E)-", "2-Propenal, 2-methyl-3-phenyl-, (E)-", "(2E)-2-Methyl-3-phenyl-2-propenal", "(E)-\u03b1-Methylcinnamaldehyde", "(E)-2-Methyl-3-phenylpropenal", "(E)-2-Methyl-3-phenyl-2-propenal", "trans-\u03b1-Methylcinnamaldehyde", "(E)-2-Methyl-3-phenylacrolein", "trans-2-Methyl-3-phenyl-2-propenal", "\u03b1-Methyl-trans-cinnamaldeyhde", "\u03b1-Methyl-trans-cinnamaldehyde", "trans-2-Methyl-3-phenylacrolein", "(E)-2-Methyl-3-phenylacrylaldehyde", "\u03b1-Methyl-(E)-cinnamaldehyde", "(E)-2-Methyl-3-phenylacrylaldehyde"], "SMILES": "C(=C(C=O)C)C1=CC=CC=C1", "physical_data": {"Molecular Weight": "146.19", "Molecular Formula": "C10H10O", "Boiling Point": "130 \u00b0C @ Press: 5 Torr", "Density": "1.042 g/cm\u00b3 @ Temp: 20 \u00b0C"}}