{"cas_no": "15176-29-1", "cn_name": "\u4e59\u53bb\u6c27\u5c3f\u5576", "en_name": ["Edoxudine", "Uridine, 2\u2032-deoxy-5-ethyl-", "2\u2032-Deoxy-5-ethyluridine", "5-Ethyl-2\u2032-deoxyuridine", "5-Ethyldeoxyuridine", "\u03b2-5-Ethyldeoxyuridine", "\u03b2-5-Ethyl-2\u2032-deoxyuridine", "EDU", "Epoxudine", "Edoxudine", "5-Ethyl-1-(2\u2032-deoxy-\u03b2-D-ribofuranosyl)uracil", "Aedurid", "ORF 15817", "EUDR", "RWJ 15817"], "SMILES": "O=C1N(C2OC(CO)C(O)C2)C=C(CC)C(=O)N1", "physical_data": {"Molecular Weight": "256.26", "Molecular Formula": "C11H16N2O5", "Melting Point": "152.5 \u00b0C"}}