{"cas_no": "1517-68-6", "cn_name": "(S)-1-\u82ef\u57fa-2-\u4e19\u9187", "en_name": ["(S)-1-Phenyl-2-propanol", "Benzeneethanol, \u03b1-methyl-, (\u03b1S)-", "Phenethyl alcohol, \u03b1-methyl-, (S)-(+)-", "Benzeneethanol, \u03b1-methyl-, (S)-", "(\u03b1S)-\u03b1-Methylbenzeneethanol", "(S)-(+)-Benzylmethylcarbinol", "(+)-(S)-1-Phenyl-2-propanol", "(S)-(+)-1-Phenyl-2-propanol", "(S)-1-Phenyl-2-propanol", "(+)-1-Phenyl-2-propanol", "(+)-\u03b1-Methylbenzeneethanol", "(+)-\u03b1-Methylphenethyl alcohol", "(S)-3-Phenyl-2-propanol", "(S)-1-Phenylpropan-2-ol", "(2S)-1-Phenylpropan-2-ol"], "SMILES": "C(C(C)O)C1=CC=CC=C1", "physical_data": {"Molecular Weight": "136.19", "Molecular Formula": "C9H12O", "Boiling Point": "170 \u00b0C @ Press: 15 Torr"}}