{"cas_no": "1517-72-2", "cn_name": "1-(1-\u8418)\u4e59\u9187", "en_name": ["1-(1-Naphthyl)ethanol", "1-Naphthalenemethanol, \u03b1-methyl-", "\u03b1-Methyl-1-naphthalenemethanol", "1-(1-Naphthyl)ethanol", "1-(\u03b1-Naphthyl)ethanol", "1-(1-Hydroxyethyl)naphthalene", "1-Naphthyl methyl carbinol", "\u03b1-Methylnaphthalenemethanol", "(\u00b1)-1-(\u03b1-Naphthyl)ethanol", "(\u00b1)-1-(1-Naphthyl)ethanol", "(RS)-1-(\u03b1-Naphthyl)ethanol", "(\u00b1)-1-(1-Naphthalene)ethanol", "1-(Naphthalen-1-yl)ethanol", "(\u00b1)-\u03b1-Methyl-1-naphthalenemethanol", "NSC 70018", "1-(Naphthalen-1-yl)ethan-1-ol"], "SMILES": "C(C)(O)C=1C2=C(C=CC1)C=CC=C2", "physical_data": {"Molecular Weight": "172.22", "Molecular Formula": "C12H12O", "Boiling Point": "170-175 \u00b0C @ Press: 35-40 Torr", "Melting Point": "64 \u00b0C"}}