{"cas_no": "15183-37-6", "cn_name": "\u96cc\u56db\u9187", "en_name": ["Estetrol", "Estra-1,3,5(10)-triene-3,15,16,17-tetrol, (15\u03b1,16\u03b1,17\u03b2)-", "Estra-1,3,5(10)-triene-3,15\u03b1,16\u03b1,17\u03b2-tetrol", "(15\u03b1,16\u03b1,17\u03b2)-Estra-1,3,5(10)-triene-3,15,16,17-tetrol", "15\u03b1-Hydroxyestriol", "Estetrol", "3,15\u03b1,16\u03b1,17\u03b2-Tetrahydroxyestra-1,3,5(10)-triene", "Estra-1,3,5(10)-trien-3,15\u03b1,16\u03b1,17\u03b2-tetraol", "ENB 39R14VF"], "SMILES": "CC12C(C3C(C=4C(CC3)=CC(O)=CC4)CC1)C(O)C(O)C2O", "physical_data": {"Molecular Weight": "304.38", "Molecular Formula": "C18H24O4", "Melting Point": "243.7 \u00b0C"}}