{"cas_no": "1518-75-8", "cn_name": "3-\u4e19\u57fa\u567b\u5429", "en_name": ["3-Propylthiophene", "Thiophene, 3-propyl-", "3-Propylthiophene"], "SMILES": "C(CC)C=1C=CSC1", "physical_data": {"Molecular Weight": "126.22", "Molecular Formula": "C7H10S", "Boiling Point": "160-162 \u00b0C", "Melting Point": "-88.13 \u00b0C", "Density": "0.9733 g/cm\u00b3 @ Temp: 20 \u00b0C"}}