{"cas_no": "15180-47-9", "cn_name": "\u4e8c\u4e59\u80fa\u57fa\u7532\u57fa\u4e09\u4e59\u6c27\u57fa\u7845\u70f7", "en_name": ["N-Ethyl-N-[(triethoxysilyl)methyl]ethanamine", "Ethanamine, N-ethyl-N-[(triethoxysilyl)methyl]-", "Diethylamine, N-[(triethoxysilyl)methyl]-", "N-Ethyl-N-[(triethoxysilyl)methyl]ethanamine", "ADE 3", "(Diethylamino)methyltriethoxysilane", "ND 22", "(N,N-Diethylaminomethyl)triethoxysilane", "KH-ND 22"], "SMILES": "[Si](CN(CC)CC)(OCC)(OCC)OCC", "physical_data": {"Molecular Weight": "249.42", "Molecular Formula": "C11H27NO3Si", "Boiling Point": "74-76 \u00b0C @ Press: 3 Torr", "Density": "0.9336 g/cm\u00b3 @ Temp: 25 \u00b0C"}}