{"cas_no": "1518-16-7", "cn_name": "7,7,8,8-\u56db\u6c30\u57fa\u5bf9\u82ef\u4e8c\u918c\u4e8c\u7532\u70f7", "en_name": ["Tetracyanoquinodimethane", "Propanedinitrile, 2,2\u2032-(2,5-cyclohexadiene-1,4-diylidene)bis-", "2,5-Cyclohexadiene-\u03941,\u03b1:4,\u03b1\u2032-dimalononitrile", "2,2\u2032-(2,5-Cyclohexadiene-1,4-diylidene)bis[propanedinitrile]", "(2,5-Cyclohexadiene-1,4-diylidene)dimalononitrile", "Quinodimethane, tetracyano-", "TCNQ", "7,7,8,8-Tetracyanoquinodimethane", "Tetracyano-p-quinodimethane", "7,7\u2032,8,8\u2032-Tetracyanoquinodimethane", "7,7,8,8-Tetracyano-p-quinodimethane", "7,7,8,8-Tetracyano-1,4-quinodimethan", "NSC 105237", "1,4-Bis(dicyanomethylene)cyclohexadiene", "Tetracyanoquinodimethane", "2,2\u2032-(Cyclohexa-2,5-diene-1,4-diylidene)dimalononitrile", "2-[4-(Dicyanomethylidene)cyclohexa-2,5-dien-1-ylidene]propanedinitrile"], "SMILES": "C(C#N)(C#N)=C1C=CC(=C(C#N)C#N)C=C1", "physical_data": {"Molecular Weight": "204.19", "Molecular Formula": "C12H4N4", "Melting Point": "293.5-296.0 \u00b0C", "Density": "1.34 g/cm\u00b3"}}