{"cas_no": "1518-84-9", "cn_name": "2-\u73af\u620a\u57fa\u82ef\u915a", "en_name": ["2-Cyclopentylphenol", "Phenol, 2-cyclopentyl-", "Phenol, o-cyclopentyl-", "2-Cyclopentylphenol", "o-Cyclopentylphenol", "NSC 407789"], "SMILES": "OC1=C(C2CCCC2)C=CC=C1", "physical_data": {"Molecular Weight": "162.23", "Molecular Formula": "C11H14O", "Boiling Point": "149 \u00b0C", "Melting Point": "34.5 \u00b0C"}}