{"cas_no": "1518-72-5", "cn_name": "\u4e8c\u5f02\u4e01\u57fa\u4e8c\u786b(\u8bd5\u5242)", "en_name": ["Bis(2-methylpropyl) disulfide", "Disulfide, bis(2-methylpropyl)", "Isobutyl disulfide", "Bis(2-methylpropyl) disulfide", "Diisobutyl disulfide", "2,7-Dimethyl-4,5-dithiaoctane", "Di(2-methylpropyl) disulfide", "2-Methyl-1-[(2-methylpropyl)disulfanyl]propane", "2-Methyl-1-(2-methylpropyldisulfanyl)propane"], "SMILES": "S(SCC(C)C)CC(C)C", "physical_data": {"Molecular Weight": "178.36", "Molecular Formula": "C8H18S2", "Boiling Point": "215 \u00b0C @ Press: 767 Torr", "Density": "0.9090 g/cm\u00b3 @ Temp: 20 \u00b0C"}}