{"cas_no": "15181-11-0", "cn_name": "3,5-\u4e8c\u53d4\u4e01\u57fa\u7532\u82ef", "en_name": ["3,5-Di-tert-butyltoluene", "Benzene, 1,3-bis(1,1-dimethylethyl)-5-methyl-", "Toluene, 3,5-di-tert-butyl-", "1,3-Bis(1,1-dimethylethyl)-5-methylbenzene", "3,5-Di-tert-butyltoluene", "1-Methyl-3,5-di-tert-butylbenzene", "1,3-Di-tert-butyl-5-methylbenzene", "3,5-Bis(tert-butyl)toluene", "1,3-Ditert-butyl-5-methylbenzene"], "SMILES": "C(C)(C)(C)C1=CC(C(C)(C)C)=CC(C)=C1", "physical_data": {"Molecular Weight": "204.35", "Molecular Formula": "C15H24", "Boiling Point": "234-237 \u00b0C", "Melting Point": "31-31.9 \u00b0C"}}