{"cas_no": "15182-92-0", "cn_name": "4-[2-(\u4e8c\u7532\u80fa\u57fa)\u4e59\u6c27\u57fa]\u82ef\u7532\u919b", "en_name": ["4-[2-(Dimethylamino)ethoxy]benzaldehyde", "Benzaldehyde, 4-[2-(dimethylamino)ethoxy]-", "Benzaldehyde, p-[2-(dimethylamino)ethoxy]-", "4-[2-(Dimethylamino)ethoxy]benzaldehyde"], "SMILES": "O(CCN(C)C)C1=CC=C(C=O)C=C1", "physical_data": {"Molecular Weight": "193.24", "Molecular Formula": "C11H15NO2", "Boiling Point": "145 \u00b0C @ Press: 2.2 Torr"}}