{"cas_no": "1518-58-7", "cn_name": "\u4e8c\u4e59\u57fa\u4e8c\u786b\u4ee3\u6c28\u57fa\u7532\u9178\u4e8c\u4e59\u94f5\u76d0", "en_name": ["Diethylammonium diethyldithiocarbamate", "Carbamodithioic acid, N,N-diethyl-, compd. with N-ethylethanamine (1:1)", "Carbamic acid, diethyldithio-, compd. with diethylamine (1:1)", "Carbamodithioic acid, diethyl-, compd. with N-ethylethanamine (1:1)", "Carbamic acid, diethyldithio-, compd. with Et2NH", "Diethylamine, diethyldithiocarbamate", "Ethanamine, N-ethyl-, diethylcarbamodithioate", "Diethylammonium N,N-diethyldithiocarbamate", "Diethylammonium diethyldithiocarbamate", "Contramine", "N,N-Diethyldithiocarbamic acid diethylamine salt", "NSC 6248", "Diethyldithiocarbamic acid diethylammonium salt"], "SMILES": "N(CC)CC.N(C(=S)S)(CC)CC", "physical_data": {"Molecular Weight": "", "Molecular Formula": "C5H11NS2.C4H11N", "Boiling Point": "125 \u00b0C", "Melting Point": "81 \u00b0C"}}