{"cas_no": "15190-10-0", "cn_name": "\u0391-(4-\u5417\u5549)\u82ef\u4e59\u8148", "en_name": ["\u03b1-Phenyl-4-morpholineacetonitrile", "4-Morpholineacetonitrile, \u03b1-phenyl-", "\u03b1-Phenyl-4-morpholineacetonitrile", "2-Phenyl-2-morpholinoacetonitrile", "NSC 75643", "Morpholinophenylacetonitrile", "\u03b1-Phenylmorpholineacetonitrile", "\u03b1-Morpholinobenzeneacetonitrile", "2-Morpholino-2-phenylacetonitrile", "2-(Morpholin-4-yl)-2-phenylacetonitrile", "2-Morpholin-4-yl-2-phenylacetonitrile"], "SMILES": "C(C#N)(C1=CC=CC=C1)N2CCOCC2", "physical_data": {"Molecular Weight": "202.25", "Molecular Formula": "C12H14N2O", "Melting Point": "67-68 \u00b0C"}}