{"cas_no": "1519-46-6", "cn_name": "\u90bb\u4e9a\u4e8c\u7532\u82ef\u57fa\u8054(\u6eb4\u5316\u4e09\u82ef\u57fa\u81a6)", "en_name": ["Phosphonium, 1,1\u2032-[1,2-phenylenebis(methylene)]bis[1,1,1-triphenyl-, bromide (1:2)", "Phosphonium, 1,1\u2032-[1,2-phenylenebis(methylene)]bis[1,1,1-triphenyl-, bromide (1:2)", "Phosphonium, [1,2-phenylenebis(methylene)]bis[triphenyl-, dibromide", "(o-Phenylenedimethylene)bis[triphenylphosphonium bromide]", "1,2-Bis(triphenylphosphoniomethyl)benzene dibromide", "o-Xylylenebis(triphenylphosphonium bromide)", "NSC 665614", "NSC 78589", "(1,2-Phenylenebis(methylene))bis(triphenylphosphonium) dibromide"], "SMILES": "[P+](CC1=C(C[P+](C2=CC=CC=C2)(C3=CC=CC=C3)C4=CC=CC=C4)C=CC=C1)(C5=CC=CC=C5)(C6=CC=CC=C6)C7=CC=CC=C7.[Br-]", "physical_data": {"Molecular Weight": "", "Molecular Formula": "C44H38P2.2Br", "Melting Point": "314.5-315.7 \u00b0C (decomp)"}}