{"cas_no": "15191-21-6", "cn_name": "N-\u7532\u9170\u57fa-L-\u7ec4\u6c28\u9178", "en_name": ["N-Formyl-L-histidine", "L-Histidine, N-formyl-", "Histidine, N-formyl-, L-", "N-Formyl-L-histidine", "Formyl-L-histidine", "NSC 334340", "(2S)-2-Formamido-3-(1H-imidazol-5-yl)propanoic acid", "(2S)-3-(1H-Imidazol-4-yl)-2-formamidopropanoic acid"], "SMILES": "C(CC1=CN=CN1)(C(O)=O)NC=O", "physical_data": {"Molecular Weight": "183.16", "Molecular Formula": "C7H9N3O3", "Melting Point": "203 \u00b0C (decomp)"}}