{"cas_no": "1519-47-7", "cn_name": "\u5bf9\u4e9a\u4e8c\u7532\u82ef\u53cc(\u6c2f\u5316\u4e09\u82ef\u57fa\u81a6)", "en_name": ["1,4-Xylylenebis(triphenylphosphonium chloride)", "Phosphonium, 1,1\u2032-[1,4-phenylenebis(methylene)]bis[1,1,1-triphenyl-, chloride (1:2)", "Phosphonium, (p-phenylenedimethylene)bis[triphenyl-, dichloride", "Phosphonium, [1,4-phenylenebis(methylene)]bis[triphenyl-, dichloride", "(p-Phenylenedimethylene)bis[triphenylphosphonium chloride]", "p-Xylylene bis(triphenylphosphonium chloride)", "p-Xylylenebis(triphenylphosphonium) dichloride", "1,4-Bis(triphenylphosphonium)-p-xylene dichloride", "1,4-Xylylenebis(triphenylphosphonium chloride)", "NSC 64113", "(1,4-Phenylenebis(methylene))bis(triphenylphosphonium) chloride"], "SMILES": "[P+](CC1=CC=C(C[P+](C2=CC=CC=C2)(C3=CC=CC=C3)C4=CC=CC=C4)C=C1)(C5=CC=CC=C5)(C6=CC=CC=C6)C7=CC=CC=C7.[Cl-]", "physical_data": {"Molecular Weight": "", "Molecular Formula": "C44H38P2.2Cl", "Melting Point": "&gt;400 \u00b0C"}}