{"cas_no": "1519-70-6", "cn_name": "1,4-\u4e9a\u82ef\u57fa\u4e8c(\u786b\u8132)", "en_name": ["N,N\u2032\u2032-1,4-Phenylenebis[thiourea]", "Thiourea, N,N\u2032\u2032-1,4-phenylenebis-", "Urea, 1,1\u2032-p-phenylenebis[2-thio-", "N,N\u2032\u2032-1,4-Phenylenebis[thiourea]", "1,4-Phenylenebis(thiourea)", "(4-Thioureido-phenyl)-thiourea", "[4-(Carbamothioylamino)phenyl]thiourea"], "SMILES": "N(C(N)=S)C1=CC=C(NC(N)=S)C=C1", "physical_data": {"Molecular Weight": "226.32", "Molecular Formula": "C8H10N4S2", "Melting Point": "234-236 \u00b0C"}}