{"cas_no": "1519-36-4", "cn_name": "1,4-\u4e8c\u7532\u57fa\u84bd\u918c", "en_name": ["1,4-Dimethyl-9,10-anthracenedione", "9,10-Anthracenedione, 1,4-dimethyl-", "Anthraquinone, 1,4-dimethyl-", "1,4-Dimethyl-9,10-anthracenedione", "1,4-Dimethylanthraquinone", "1,4-Dimethyl-9,10-anthraquinone"], "SMILES": "O=C1C=2C(C(=O)C=3C1=CC=CC3)=C(C)C=CC2C", "physical_data": {"Molecular Weight": "236.27", "Molecular Formula": "C16H12O2", "Melting Point": "140.5 \u00b0C"}}