{"cas_no": "15199-41-4", "cn_name": "1,2-\u73af\u5341\u4e8c\u70f7\u4e8c\u9187(\u987a\u53cd\u5f02\u6784\u4f53\u6df7\u5408\u7269)", "en_name": ["1,2-Cyclododecanediol", "1,2-Cyclododecanediol"], "SMILES": "OC1C(O)CCCCCCCCCC1", "physical_data": {"Molecular Weight": "200.32", "Molecular Formula": "C12H24O2", "Melting Point": "161.5-162.5 \u00b0C"}}