{"cas_no": "1519-45-5", "cn_name": "\u4e9a\u4e59\u57fa\u4e8c(\u6eb4\u5316\u4e09\u82ef\u57fa\u81a6)", "en_name": ["Phosphonium, 1,1\u2032-(1,2-ethanediyl)bis[1,1,1-triphenyl-, bromide (1:2)", "Phosphonium, 1,1\u2032-(1,2-ethanediyl)bis[1,1,1-triphenyl-, bromide (1:2)", "Phosphonium, ethylenebis[triphenyl-, dibromide", "Phosphonium, 1,2-ethanediylbis[triphenyl-, dibromide", "Ethylenebis[triphenylphosphonium bromide]", "Dimethylenebistriphenylphosphonium bromide", "1,2-Ethanediylbis(triphenylphosphonium) dibromide", "NSC 64111"], "SMILES": "[P+](CC[P+](C1=CC=CC=C1)(C2=CC=CC=C2)C3=CC=CC=C3)(C4=CC=CC=C4)(C5=CC=CC=C5)C6=CC=CC=C6.[Br-]", "physical_data": {"Molecular Weight": "", "Molecular Formula": "C38H34P2.2Br", "Melting Point": "308-315 \u00b0C"}}