{"cas_no": "15199-43-6", "cn_name": "\u6c18\u4ee3\u786b\u9178\u4e8c\u7532\u916f", "en_name": ["Methan-d3-ol, 1,1\u2032-sulfate", "Methan-d3-ol, 1,1\u2032-sulfate", "Sulfuric acid, di(methyl-d3) ester", "Methan-d3-ol, sulfate (2:1)", "(Methyl sulfate)-d6", "Dimethyl-d6 sulfate", "Bis(trideuteriomethyl) sulfate"], "SMILES": "S(OC([2H])([2H])[2H])(OC)(=O)=O", "physical_data": {"Molecular Weight": "", "Molecular Formula": "C2D6O4S", "Boiling Point": "69-71 \u00b0C @ Press: 11 Torr"}}