{"cas_no": "1519-39-7", "cn_name": "(R)-(+)-\u7532\u57fa\u5bf9\u7532\u82ef\u781c", "en_name": ["(+)-Methyl p-tolyl sulfoxide", "Benzene, 1-methyl-4-[(R)-methylsulfinyl]-", "Sulfoxide, methyl p-tolyl, (R)-(+)-", "Benzene, 1-methyl-4-(methylsulfinyl)-, (R)-", "1-Methyl-4-[(R)-methylsulfinyl]benzene", "(+)-(R)-Methyl p-tolyl sulfoxide", "(R)-(+)-Methyl p-tolyl sulfoxide", "(R)-Methyl p-tolyl sulfoxide", "(+)-Methyl p-tolyl sulfoxide", "(R)-p-Tolyl methyl sulfoxide", "(+)-(R)-Methyl 4-tolyl sulfoxide", "(R)-Methyl 4-tolyl sulfoxide", "(R)-Methyl p-methylphenyl sulfoxide", "(R)-(+)-Methyl 4-methylphenyl sulfoxide", "(R)-(+)-Methyl 4-tolyl sulfoxide", "(R)-1-Methyl-4-methylsulfinylbenzene", "(R)-(+)-Methyl p-tolylsulfoxide", "(R)-Methyl p-tolyl sulfone", "Methyl p-tolyl (R)-sulfone", "(R)-4-Methylphenyl methyl sulfoxide", "1-Methyl-4-[(R)-methylsulfinyl]benzene"], "SMILES": "S(C)(=O)C1=CC=C(C)C=C1", "physical_data": {"Molecular Weight": "154.23", "Molecular Formula": "C8H10OS", "Melting Point": "75-76 \u00b0C"}}