{"cas_no": "152-58-9", "cn_name": "\u8131\u6c27\u53ef\u7684\u677e", "en_name": ["11-Deoxycortisol", "Pregn-4-ene-3,20-dione, 17,21-dihydroxy-", "Compound S", "17,21-Dihydroxypregn-4-ene-3,20-dione", "Cortexolone", "Cortisol, 11-deoxy-", "Cortodoxone", "11-Deoxycortisol", "11-Deoxyhydrocortisone", "11-Desoxyhydrocortisone", "17\u03b1,21-Dihydroxypregn-4-ene-3,20-dione", "17\u03b1-Hydroxycortexone", "17-Hydroxy-11-deoxycorticosterone", "\u03944-Pregnene-17\u03b1,21-diol-3,20-dione", "4-Pregnene-17\u03b1,21-diol-3,20-dione", "Reichstein S", "Reichstein's compound S", "Reichstein's substance S", "Substance S", "17,21-Dihydroxyprogesterone", "11-Deoxy-17-hydroxycorticosterone", "11-Desoxycortisol", "17\u03b1,21-Dihydroxyprogesterone", "17,21-Dihydroxypregn-4-en-3,20-dione", "4-Pregnen-17\u03b1,21-diol-3,20-dione", "SKF 3050", "11-Deoxycortisone", "11-Desoxy-17\u03b1-hydroxycorticosterone", "11-Deoxy-17-hydrocorticosterone", "Cortifen", "17\u03b1,21-Dihydroxy-4-pregnen-3,20-dione", "NSC 18317", "Reichstein substance S", "4-Pregnene-11\u03b2,17,21-triol-3,20-dione"], "SMILES": "CC12C(C3C(C4(C)C(CC3)=CC(=O)CC4)CC1)CCC2(C(CO)=O)O", "physical_data": {"Molecular Weight": "346.46", "Molecular Formula": "C21H30O4", "Melting Point": "215 \u00b0C"}}