{"cas_no": "152-62-5", "cn_name": "\u5730\u5c48\u5b55\u916e", "en_name": ["Dydrogesterone", "Pregna-4,6-diene-3,20-dione, (9\u03b2,10\u03b1)-", "9\u03b2,10\u03b1-Pregna-4,6-diene-3,20-dione", "(9\u03b2,10\u03b1)-Pregna-4,6-diene-3,20-dione", "6-Dehydro-9\u03b2,10\u03b1-progesterone", "6\u03b1-Dehydro-retro-\u03944-pregnene-3,20-dione", "6-Dehydroretroprogesterone", "Diphaston", "Dydrogesterone", "Hydrogesterone", "Retro-6-dehydroprogesterone", "Retroprogesterone, 6-dehydro-", "Terolut", "Isopregnenone", "\u03946-Retroprogesterone", "Duphaston", "Gestatron", "Prodel", "Retrone", "Dufaston", "Duvaron", "Gynorest", "NSC 92336", "MeSH ID: D004394"], "SMILES": "CC12C3C(C4C(C)(CC3)C(C(C)=O)CC4)C=CC1=CC(=O)CC2", "physical_data": {"Molecular Weight": "312.45", "Molecular Formula": "C21H28O2", "Melting Point": "169-170 \u00b0C"}}