{"cas_no": "152-16-9", "cn_name": "\u516b\u7532\u78f7", "en_name": ["Octamethyl", "Diphosphoramide, N,N,N\u2032,N\u2032,N\u2032\u2032,N\u2032\u2032,N\u2032\u2032\u2032,N\u2032\u2032\u2032-octamethyl-", "Pyrophosphoramide, octamethyl-", "Diphosphoramide, octamethyl-", "N,N,N\u2032,N\u2032,N\u2032\u2032,N\u2032\u2032,N\u2032\u2032\u2032,N\u2032\u2032\u2032-Octamethyldiphosphoramide", "Bis(dimethylamino)phosphonous anhydride", "Octamethylpyrophosphoramide", "Pestox 3", "Schradan", "Sytam", "Tetrakisdimethylaminophosphonous anhydride", "Pestox III", "Pestox", "OMPA", "Octamethyl", "Octamethylpyrophosphoric acid tetramide", "Octamethylpyrophosphoric acid amide", "NSC 8929"], "SMILES": "P(OP(N(C)C)(N(C)C)=O)(N(C)C)(N(C)C)=O", "physical_data": {"Molecular Weight": "286.25", "Molecular Formula": "C8H24N4O3P2", "Boiling Point": "120-125 \u00b0C @ Press: 0.5 Torr", "Melting Point": "17 \u00b0C", "Density": "1.1343 g/cm\u00b3 @ Temp: 25 \u00b0C"}}