{"cas_no": "152-93-2", "cn_name": "\u8695\u8c46\u5627\u5576\u8461\u7cd6\u7519", "en_name": ["Vicine", "4(1H)-Pyrimidinone, 2,6-diamino-5-(\u03b2-D-glucopyranosyloxy)-", "Vicine", "2,6-Diamino-5-(\u03b2-D-glucopyranosyloxy)-4(1H)-pyrimidinone", "Divicine \u03b2-D-glucopyranoside", "Vicioside", "NSC 95092"], "SMILES": "O(C1=C(N)NC(N)=NC1=O)C2OC(CO)C(O)C(O)C2O", "physical_data": {"Molecular Weight": "304.26", "Molecular Formula": "C10H16N4O7", "Melting Point": "240.5 \u00b0C (decomp)"}}