{"cas_no": "152-20-5", "cn_name": "O,O,S-\u4e09\u7532\u57fa\u786b\u4ee3\u78f7\u9178\u916f", "en_name": ["O,O,S-Trimethyl phosphorothioate", "Phosphorothioic acid, O,O,S-trimethyl ester", "HC 7901", "Methyl phosphorothioate ((MeO)2(MeS)PO)", "O,O-Dimethyl S-methyl phosphorothioate", "O,O-Dimethyl S-methyl thiophosphate", "O,O,S-Trimethyl phosphorothioate", "O,O,S-Trimethyl thiophosphate", "O,O,S-Trimethyl phosphorothiolate"], "SMILES": "P(OC)(OC)(SC)=O", "physical_data": {"Molecular Weight": "156.14", "Molecular Formula": "C3H9O3PS", "Boiling Point": "103 \u00b0C @ Press: 12 Torr", "Density": "1.2434 g/cm\u00b3 @ Temp: 23 \u00b0C"}}