{"cas_no": "152-47-6", "cn_name": "\u78fa\u80fa\u6797", "en_name": ["Sulfalene", "Benzenesulfonamide, 4-amino-N-(3-methoxy-2-pyrazinyl)-", "Sulfanilamide, N1-(3-methoxypyrazinyl)-", "Benzenesulfonamide, 4-amino-N-(3-methoxypyrazinyl)-", "4-Amino-N-(3-methoxy-2-pyrazinyl)benzenesulfonamide", "F.I. 5978", "AS 18908", "Kelfizin", "Kelfizina", "3-Methoxypyrazine sulfanilamide", "N1-(3-Methoxy-2-pyrazinyl)sulfanilamide", "3-Methoxy-2-sulfapyrazine", "SMP2", "Sulfalene", "Sulfamethopyrazine", "Sulfamethoxypyrazine", "Sulfametopyrazine", "2-Sulfanilamido-3-methoxypyrazine", "Sulfapyrazinemethoxine", "Sulfapyrazinemethoxyne", "Polycidal", "3-Methoxy-2-sulfanilamidopyrazine", "Sulfapyrazinemethoxyine", "2-Methoxy-3-sulfanilamidopyrazine", "Kelfizine W", "Longum", "Farmitalia 204/122", "Policydal", "Dalysep", "NSC 110433", "Vetkelfizina", "MeSH ID: D013415"], "SMILES": "S(NC=1C(OC)=NC=CN1)(=O)(=O)C2=CC=C(N)C=C2", "physical_data": {"Molecular Weight": "280.30", "Molecular Formula": "C11H12N4O3S", "Melting Point": "176 \u00b0C"}}