{"cas_no": "152-95-4", "cn_name": "\u69d0\u89d2\u82f7", "en_name": ["Sophoricoside", "4H-1-Benzopyran-4-one, 3-[4-(\u03b2-D-glucopyranosyloxy)phenyl]-5,7-dihydroxy-", "Sophoricoside", "3-[4-(\u03b2-D-Glucopyranosyloxy)phenyl]-5,7-dihydroxy-4H-1-benzopyran-4-one", "5\u2032,7\u2032-Dihydroxy-4\u2032-glucosyloxyisoflavone", "Genistein, 4\u2032-\u03b2-D-glucopyranoside", "4\u2032,5,7-Trihydroxyisoflavone 4\u2032-\u03b2-D-glucopyranoside", "Genistein 4\u2032-O-glucoside"], "SMILES": "O=C1C=2C(OC=C1C3=CC=C(OC4OC(CO)C(O)C(O)C4O)C=C3)=CC(O)=CC2O", "physical_data": {"Molecular Weight": "432.38", "Molecular Formula": "C21H20O10", "Melting Point": "295-297 \u00b0C"}}