{"cas_no": "152-43-2", "cn_name": "\u7094\u96cc\u9187\u73af\u620a\u919a", "en_name": ["Quinestrol", "19-Norpregna-1,3,5(10)-trien-20-yn-17-ol, 3-(cyclopentyloxy)-, (17\u03b1)-", "19-Nor-17\u03b1-pregna-1,3,5(10)-trien-20-yn-17-ol, 3-(cyclopentyloxy)-", "(17\u03b1)-3-(Cyclopentyloxy)-19-norpregna-1,3,5(10)-trien-20-yn-17-ol", "W 3566", "3-Cyclopentyloxy-17\u03b1-ethynylestra-1,3,5(10)-trien-17\u03b2-ol", "3-(Cyclopentyloxy)-19-nor-17\u03b1-pregna-1,3,5(10)-trien-20-yn-17-ol", "EECPE", "Quinestrol", "17-Ethynylestradiol cyclopentyl ether", "3-Cyclopentyloxy-17\u03b1-ethynyl-1,3,5(10)-estratrien-17-ol", "17\u03b1-Ethynylestradiol 3-cyclopentyl ether", "Ethynylestradiol-3-cyclopentyl ether", "Eston", "Estrovis", "Estrovister", "Plestrovis", "Qui-Lea", "Estrovis 4000", "MeSH ID: D011800"], "SMILES": "CC12C(C3C(CC1)C=4C(CC3)=CC(OC5CCCC5)=CC4)CCC2(C#C)O", "physical_data": {"Molecular Weight": "364.52", "Molecular Formula": "C25H32O2", "Melting Point": "107.5 \u00b0C"}}