{"cas_no": "152-72-7", "cn_name": "\u65b0\u6297\u51dd", "en_name": ["(\u00b1)-Acenocoumarol", "2H-1-Benzopyran-2-one, 4-hydroxy-3-[1-(4-nitrophenyl)-3-oxobutyl]-", "Acenocoumarol", "Coumarin, 3-(\u03b1-acetonyl-p-nitrobenzyl)-4-hydroxy-", "4-Hydroxy-3-[1-(4-nitrophenyl)-3-oxobutyl]-2H-1-benzopyran-2-one", "G 23,350", "Acenocoumarin", "3-(\u03b1-Acetonyl-p-nitrobenzyl)-4-hydroxycoumarin", "3-(\u03b1-Acetonyl-4-nitrobenzyl)-4-hydroxycoumarin", "3-(Alpha-acetonyl-4-nitrobenzyl)-4-hydroxycoumarin", "Nicoumalone", "3-[\u03b1-(p-Nitrophenol)-\u03b2-acetylethyl]-4-hydroxycoumarin", "3-(\u03b1-p-Nitrophenyl-\u03b2-acetylethyl)-4-hydroxycoumarin", "Sincoumar", "Sinthrom", "Sintrom", "Syncoumar", "Syncumar", "Syntrom", "Nitrowarfarin", "3-[\u03b1-(4\u2032-Nitrophenyl)-\u03b2-acetylethyl]-4-hydroxycoumarin", "3-[2-Acetyl-1-(p-nitrophenyl)ethyl]-4-hydroxycoumarin", "4-Hydroxy-2-oxo-3-[3-oxo-1-(4-nitrophenyl)butyl]-2H-chromene", "Sinkumar", "Ascumar", "G 23350", "Zotil", "Sinthrome", "Sintroma", "Trombostop", "(\u00b1)-Acenocoumarin", "(\u00b1)-Acenocoumarol", "(\u00b1)-p-Nitrowarfarin", "(\u00b1)-Nicoumalone", "DL-3-(\u03b1-Acetonyl-4-nitrobenzyl)-4-hydroxycoumarin", "Sintrom Mitis", "Minisintrom", "Acitrom", "Acenokumarol", "Acebron", "Neo-Sintrom", "MeSH ID: D000074"], "SMILES": "C(CC(C)=O)(C1=C(O)C=2C(OC1=O)=CC=CC2)C3=CC=C(N(=O)=O)C=C3", "physical_data": {"Molecular Weight": "353.33", "Molecular Formula": "C19H15NO6", "Melting Point": "196-199 \u00b0C"}}