{"cas_no": "152-18-1", "cn_name": "O,O,O-\u4e09\u7532\u57fa\u5def\u57fa\u78f7\u9178\u916f", "en_name": ["O,O,O-Trimethyl phosphorothioate", "Phosphorothioic acid, O,O,O-trimethyl ester", "SD 4741", "7900-HC", "HC 7900", "O,O,O-Trimethyl phosphorothioate", "O,O,O-Trimethyl thiophosphate", "Methyl phosphorothioate ((MeO)3PS)", "Trimethoxyphosphine sulfide", "Trimethyl thionophosphate", "O,O,O-Trimethyl phosphorothionate"], "SMILES": "P(OC)(OC)(OC)=S", "physical_data": {"Molecular Weight": "156.14", "Molecular Formula": "C3H9O3PS", "Boiling Point": "82 \u00b0C @ Press: 20 Torr", "Melting Point": "&gt;116 \u00b0C (decomp)", "Density": "1.2192 g/cm\u00b3 @ Temp: 0 \u00b0C"}}