{"cas_no": "152-97-6", "cn_name": "\u6c1f\u53ef\u9f99", "en_name": ["Flucortolone", "Pregna-1,4-diene-3,20-dione, 6-fluoro-11,21-dihydroxy-16-methyl-, (6\u03b1,11\u03b2,16\u03b1)-", "Pregna-1,4-diene-3,20-dione, 6\u03b1-fluoro-11\u03b2,21-dihydroxy-16\u03b1-methyl-", "(6\u03b1,11\u03b2,16\u03b1)-6-Fluoro-11,21-dihydroxy-16-methylpregna-1,4-diene-3,20-dione", "SH 742", "Flucortolone", "Fluocortolon", "Fluocortolone", "6\u03b1-Fluoro-11\u03b2,21-dihydroxy-16\u03b1-methylpregna-1,4-diene-3,20-dione", "6\u03b1-Fluoro-16\u03b1-methyl-\u03941-corticosterone", "6\u03b1-Fluoro-16\u03b1-methyl-\u03941,4-pregnadiene-11\u03b2,21-diol-3,20-dione", "6\u03b1-Fluoro-16\u03b1-methyl-1,4-pregnadiene-11\u03b2,21-diol-3,20-dione", "16\u03b1-Methyl-6\u03b1-fluoro-\u03941,4-pregnadien-11\u03b2,21-diol-3,20-dione", "Ultralan oral", "MeSH ID: D005448"], "SMILES": "CC12C(C3C(C4(C)C(C(F)C3)=CC(=O)C=C4)C(O)C1)CC(C)C2C(CO)=O", "physical_data": {"Molecular Weight": "376.46", "Molecular Formula": "C22H29FO4", "Melting Point": "188 \u00b0C"}}