{"cas_no": "152-53-4", "cn_name": "1-(4-\u6c2f\u4ee3\u82ef) - 6,6-\u4e8c\u7532\u57fa-1,3,5-\u4e09\u6c2e-2,4\u4e8c\u80fa\u76d0\u9178\u76d0", "en_name": ["Chlorcycloguanil", "1,3,5-Triazine-2,4-diamine, 1-(4-chlorophenyl)-1,6-dihydro-6,6-dimethyl-, hydrochloride (1:1)", "s-Triazine, 4,6-diamino-1-(p-chlorophenyl)-1,2-dihydro-2,2-dimethyl-, monohydrochloride", "1,3,5-Triazine-2,4-diamine, 1-(4-chlorophenyl)-1,6-dihydro-6,6-dimethyl-, monohydrochloride", "s-Triazine, 4,6-diamino-1-(p-chlorophenyl)-1,2-dihydro-2,2-dimethyl-, hydrochloride", "NSC 3074", "Cycloguanil hydrochloride", "Chloroguanide triazine hydrochloride", "Chlorcycloguanil", "BN 2410", "1-(4-Chlorophenyl)-1,6-dihydro-6,6-dimethyl-1,3,5-triazine-2,4-diamine monohydrochloride", "1-(4-Chlorophenyl)-6,6-dimethyl-1,6-dihydro-1,3,5-triazine-2,4-diamine hydrochloride"], "SMILES": "CC1(C)N(C(N)=NC(N)=N1)C2=CC=C(Cl)C=C2.Cl", "physical_data": {"Molecular Weight": "", "Molecular Formula": "C11H14ClN5.ClH", "Melting Point": "204-205 \u00b0C"}}