{"cas_no": "152044-54-7", "cn_name": "\u57c3\u535a\u9709\u7d20B", "en_name": ["Epothilone B", "4,17-Dioxabicyclo[14.1.0]heptadecane-5,9-dione, 7,11-dihydroxy-8,8,10,12,16-pentamethyl-3-[(1E)-1-methyl-2-(2-methyl-4-thiazolyl)ethenyl]-, (1S,3S,7S,10R,11S,12S,16R)-", "4,17-Dioxabicyclo[14.1.0]heptadecane-5,9-dione, 7,11-dihydroxy-8,8,10,12,16-pentamethyl-3-[1-methyl-2-(2-methyl-4-thiazolyl)ethenyl]-, [1S-[1R*,3R*(E),7R*,10S*,11R*,12R*,16S*]]-", "(1S,3S,7S,10R,11S,12S,16R)-7,11-Dihydroxy-8,8,10,12,16-pentamethyl-3-[(1E)-1-methyl-2-(2-methyl-4-thiazolyl)ethenyl]-4,17-dioxabicyclo[14.1.0]heptadecane-5,9-dione", "Epothilone B", "(-)-Epothilone B", "EPO 906", "Patupilone", "EPO 906A", "Epo B", "(1S,3S,7S,10R,11S,12S,16R)-7,11-Dihydroxy-8,8,10,12,16-pentamethyl-3-[(E)-1-(2-methylthiazol-4-yl)prop-1-en-2-yl]-4,17-dioxabicyclo[14.1.0]heptadecane-5,9-dione"], "SMILES": "CC12C(O1)CC(C(=CC=3N=C(C)SC3)C)OC(=O)CC(O)C(C)(C)C(=O)C(C)C(O)C(C)CCC2", "physical_data": {"Molecular Weight": "507.68", "Molecular Formula": "C27H41NO6S", "Melting Point": "117-118 \u00b0C"}}