{"cas_no": "1520-21-4", "cn_name": "4-\u4e59\u70ef\u82ef\u80fa", "en_name": ["4-Aminostyrene", "Benzenamine, 4-ethenyl-", "Aniline, p-vinyl-", "4-Ethenylbenzenamine", "p-Vinylaniline", "4-Aminostyrene", "4-Vinylaniline", "p-Aminostyrene", "p-Ethenylaniline", "4-Vinylphenylamine", "4-Vinylbenzenamine", "1-Amino-4-vinylbenzene", "4-Ethenylaniline"], "SMILES": "C(=C)C1=CC=C(N)C=C1", "physical_data": {"Molecular Weight": "119.16", "Molecular Formula": "C8H9N", "Boiling Point": "98-100 \u00b0C @ Press: 4 Torr", "Melting Point": "23.5 \u00b0C", "Density": "1.012 g/cm\u00b3 @ Temp: 21 \u00b0C"}}