{"cas_no": "1520-27-0", "cn_name": "1-(\u5bf9\u7f9f\u57fa\u82ef\u57fa)-2-\u786b\u8132", "en_name": ["N-(4-Hydroxyphenyl)thiourea", "Thiourea, N-(4-hydroxyphenyl)-", "Urea, 1-(p-hydroxyphenyl)-2-thio-", "Thiourea, (4-hydroxyphenyl)-", "N-(4-Hydroxyphenyl)thiourea", "p-Hydroxyphenylthiourea", "4-Hydroxyphenylthiourea", "4-Thioureidophenol", "NSC 43638", "1-(4-Hydroxyphenyl)thiourea", "1-(4-Hydroxyphenyl)-2-thiourea"], "SMILES": "N(C(N)=S)C1=CC=C(O)C=C1", "physical_data": {"Molecular Weight": "168.22", "Molecular Formula": "C7H8N2OS", "Melting Point": "214 \u00b0C"}}