{"cas_no": "15205-57-9", "cn_name": "\u4e9a\u78f7\u9178\u4e09\u82c4\u916f", "en_name": ["Tris(phenylmethyl) phosphite", "Phosphorous acid, tris(phenylmethyl) ester", "Phosphorous acid, tribenzyl ester", "Tris(phenylmethyl) phosphite", "Tribenzyl phosphite"], "SMILES": "P(OCC1=CC=CC=C1)(OCC2=CC=CC=C2)OCC3=CC=CC=C3", "physical_data": {"Molecular Weight": "352.36", "Molecular Formula": "C21H21O3P", "Boiling Point": "180-195 \u00b0C @ Press: 0.05 Torr", "Melting Point": "52 \u00b0C"}}