{"cas_no": "15206-55-0", "cn_name": "\u82ef\u7532\u9170\u7532\u9178\u7532\u916f", "en_name": ["Methyl phenylglyoxylate", "Benzeneacetic acid, \u03b1-oxo-, methyl ester", "Glyoxylic acid, phenyl-, methyl ester", "Phenylglyoxylic acid methyl ester", "Methyl benzoylformate", "Methyl oxophenylacetate", "Methyl phenylglyoxylate", "Methyl phenylglyoxalate", "Methyl phenyloxoacetate", "Vicure 55", "Methyl \u03b1-oxobenzeneacetate", "\u03b1-Oxobenzeneacetic acid methyl ester", "Methyl 2-oxo-2-phenylacetate", "NSC 171206", "NSC 409881", "Darocur MBF", "Methyl phenyl-\u03b1-oxoacetate", "Benzoylformic acid methyl ester", "Darocur MB", "2-Oxo-2-phenylacetic acid methyl ester", "Methyl 2-phenyl-2-oxoacetate", "Speedcure MBF", "Genocure MBF", "Methoxycarbonyl phenyl ketone", "MBF", "Irgacure MBF", "JRCure 1055", "IHT-PI MBF", "Doublecure 200", "PI 55", "MBF 1055", "SB-PI 716", "Photoinitiator MBF", "Gencure MBF", "Omnirad MBF", "Micure MBF", "Chemcure 55"], "SMILES": "C(C(OC)=O)(=O)C1=CC=CC=C1", "physical_data": {"Molecular Weight": "164.16", "Molecular Formula": "C9H8O3", "Boiling Point": "254.6-255.6 \u00b0C @ Press: 756 Torr"}}