{"cas_no": "1520-70-3", "cn_name": "\u4e59\u57fa\u78fa\u9170\u80fa", "en_name": ["Ethanesulfonamide", "Ethanesulfonamide", "NSC 87899"], "SMILES": "S(CC)(N)(=O)=O", "physical_data": {"Molecular Weight": "109.15", "Molecular Formula": "C2H7NO2S", "Melting Point": "58.8 \u00b0C"}}