{"cas_no": "15205-66-0", "cn_name": "2-\u7f9f\u4e59\u57fa\u7532\u781c", "en_name": ["2-(Methylsulfonyl)ethanol", "Ethanol, 2-(methylsulfonyl)-", "2-(Methylsulfonyl)ethanol", "2-(Methylsulfonyl)ethyl alcohol", "2-Hydroxyethyl methyl sulfone", "2-(Methanesulfonyl)ethanol", "2-Methanesulfonylethan-1-ol"], "SMILES": "C(S(C)(=O)=O)CO", "physical_data": {"Molecular Weight": "124.16", "Molecular Formula": "C3H8O3S", "Boiling Point": "145 \u00b0C", "Melting Point": "26-28 \u00b0C"}}