{"cas_no": "152044-53-6", "cn_name": "\u57c3\u535a\u9709\u7d20 A", "en_name": ["Epothilone A", "4,17-Dioxabicyclo[14.1.0]heptadecane-5,9-dione, 7,11-dihydroxy-8,8,10,12-tetramethyl-3-[(1E)-1-methyl-2-(2-methyl-4-thiazolyl)ethenyl]-, (1S,3S,7S,10R,11S,12S,16R)-", "4,17-Dioxabicyclo[14.1.0]heptadecane-5,9-dione, 7,11-dihydroxy-8,8,10,12-tetramethyl-3-[1-methyl-2-(2-methyl-4-thiazolyl)ethenyl]-, [1R*,3R*(E),7R*,10S*,11R*,12R*,16S*]-", "(1S,3S,7S,10R,11S,12S,16R)-7,11-Dihydroxy-8,8,10,12-tetramethyl-3-[(1E)-1-methyl-2-(2-methyl-4-thiazolyl)ethenyl]-4,17-dioxabicyclo[14.1.0]heptadecane-5,9-dione", "Epothilone A", "(-)-Epothilone A", "Epo A"], "SMILES": "C(=CC=1N=C(C)SC1)(C)C2CC3C(O3)CCCC(C)C(O)C(C)C(=O)C(C)(C)C(O)CC(=O)O2", "physical_data": {"Molecular Weight": "493.66", "Molecular Formula": "C26H39NO6S", "Melting Point": "95 \u00b0C"}}