{"cas_no": "1520-31-6", "cn_name": "\u4e8c\u7532\u57fa\u4e9a\u78fa\u9170\u4e9a\u80fa", "en_name": ["Sulfoximine, S,S-dimethyl-", "Sulfoximine, S,S-dimethyl-", "S,S-Dimethylsulfoximide", "S,S-Dimethylsulfoximine", "Dimethyl sulfoximide", "Dimethylsulfoximine", "Iminodimethylsulfanone", "(Dimethylsulfinylidene)amine", "(Methylsulfonimidoyl)methane"], "SMILES": "S(C)(C)(=N)=O", "physical_data": {"Molecular Weight": "93.15", "Molecular Formula": "C2H7NOS", "Melting Point": "56 \u00b0C"}}