{"cas_no": "15217-53-5", "cn_name": "1-\u4e59\u57fa-5-\u5def\u57fa-1,2,3,4-\u56db\u6c2e\u5511", "en_name": ["1-Ethyl-1,2-dihydro-5H-tetrazole-5-thione", "5H-Tetrazole-5-thione, 1-ethyl-1,2-dihydro-", "1H-Tetrazole-5-thiol, 1-ethyl-", "2-Tetrazoline-5-thione, 1-ethyl-", "1-Ethyl-1,2-dihydro-5H-tetrazole-5-thione", "1-Ethyl-5-mercapto-1,2,3,4-tetrazole", "1-Ethyl-2-tetrazoline-5-thione", "1-Ethyl-1H-tetrazole-5-thiol", "1-Ethyl-5-tetrazolethiol", "1-Ethyl-5-mercaptotetrazole", "1-Ethyltetrazole-5-thione", "1-Ethyl-1H-1,2,3,4-tetrazole-5-thiol"], "SMILES": "C(C)N1C(=S)NN=N1", "physical_data": {"Molecular Weight": "130.17", "Molecular Formula": "C3H6N4S", "Boiling Point": "109 \u00b0C @ Press: 1 Torr"}}