{"cas_no": "1521-41-1", "cn_name": "3,4-\u4e8c\u7532\u6c27\u57fa\u82ef\u7532\u9170\u80fa", "en_name": ["3,4-Dimethoxybenzamide", "Benzamide, 3,4-dimethoxy-", "Veratrimidic acid", "Veratramide", "3,4-Dimethoxybenzamide", "SR 4191", "NSC 370837"], "SMILES": "O(C)C1=C(OC)C=CC(C(N)=O)=C1", "physical_data": {"Molecular Weight": "181.19", "Molecular Formula": "C9H11NO3", "Melting Point": "93-94 \u00b0C"}}