{"cas_no": "1521-39-7", "cn_name": "2,3-\u4e8c\u7532\u6c27\u57fa\u82c4\u80fa", "en_name": ["2,3-Dimethoxybenzamide", "Benzamide, 2,3-dimethoxy-", "o-Veratramide", "2,3-Dimethoxybenzamide", "NSC 2353", "NSC 40843"], "SMILES": "O(C)C1=C(C(N)=O)C=CC=C1OC", "physical_data": {"Molecular Weight": "181.19", "Molecular Formula": "C9H11NO3", "Melting Point": "236-237 \u00b0C"}}