{"cas_no": "1521-38-6", "cn_name": "2,3-\u4e8c\u7532\u6c27\u57fa\u82ef\u7532\u9178", "en_name": ["2,3-Dimethoxybenzoic acid", "Benzoic acid, 2,3-dimethoxy-", "o-Veratric acid", "2,3-Dimethoxybenzoic acid", "NSC 406133"], "SMILES": "O(C)C1=C(C(O)=O)C=CC=C1OC", "physical_data": {"Molecular Weight": "182.17", "Molecular Formula": "C9H10O4", "Melting Point": "122-124 \u00b0C", "Density": "1.29 g/cm\u00b3"}}