{"cas_no": "15214-89-8", "cn_name": "2-\u4e19\u70ef\u9170\u80fa\u57fa-2-\u7532\u57fa\u4e19\u78fa\u9178", "en_name": ["2-Acrylamido-2-methylpropanesulfonic acid", "1-Propanesulfonic acid, 2-methyl-2-[(1-oxo-2-propen-1-yl)amino]-", "1-Propanesulfonic acid, 2-acrylamido-2-methyl-", "1-Propanesulfonic acid, 2-methyl-2-[(1-oxo-2-propenyl)amino]-", "2-Methyl-2-[(1-oxo-2-propen-1-yl)amino]-1-propanesulfonic acid", "2-Acrylamido-2-methylpropanesulfonic acid", "2-Acrylamido-2,2-dimethylethanesulfonic acid", "AMPS", "Lubrizol AMPS", "2-Acrylamido-2-methylpropylsulfonic acid", "AMPS (sulfonic acid)", "2-Acrylamido-2-methyl-1-propanesulfonic acid", "Lubrizol 2404", "TBAS-Q", "2-Methyl-2-[(1-oxo-2-propenyl)amino]-1-propanesulfonic acid", "Acrylamide tert-butylsulfonic acid", "ATBS", "tert-Butylacrylamidosulfonic acid", "Lubrizol 2402", "2-Acryloylamido-2-methylpropanesulfonic acid", "CG 810S-P", "2-Acryloylamino-2-methyl-1-propanesulfonic acid", "N-Acryloyl-2,2-dimethyltaurine", "(1,1-Dimethyl-2-sulfoethyl)acrylamide", "2-Acrylamido-2-methy-1-propanesulfonic acid", "2-Methyl-2-(prop-2-enamido)propane-1-sulfonic acid", "2-Methyl-2-(prop-2-enoylamino)propane-1-sulfonic acid"], "SMILES": "C(C(NC(C=C)=O)(C)C)S(=O)(=O)O", "physical_data": {"Molecular Weight": "207.25", "Molecular Formula": "C7H13NO4S", "Melting Point": "184-186 \u00b0C"}}