{"cas_no": "15219-34-8", "cn_name": "\u8349\u9170\u6eb4", "en_name": ["Ethanedioyl dibromide", "Ethanedioyl dibromide", "Oxalyl bromide", "Ethanedioyl bromide", "Oxalyl dibromide", "NSC 96957"], "SMILES": "C(C(Br)=O)(Br)=O", "physical_data": {"Molecular Weight": "215.83", "Molecular Formula": "C2Br2O2", "Boiling Point": "103-105 \u00b0C", "Melting Point": "-19.5 \u00b0C"}}