{"cas_no": "1522-46-9", "cn_name": "2-\u5f02\u4e19\u57fa\u4e59\u9170\u4e59\u9178\u4e59\u916f", "en_name": ["Butanoic acid, 2-acetyl-3-methyl-, ethyl ester", "Butanoic acid, 2-acetyl-3-methyl-, ethyl ester", "Acetoacetic acid, 2-isopropyl-, ethyl ester", "Isovaleric acid, \u03b1-acetyl-, Et ester", "Ethyl \u03b1-isopropylacetoacetate", "Ethyl 2-isopropylacetoacetate", "Ethyl 2-acetyl-3-methylbutanoate", "NSC 18754", "NSC 25315", "NSC 54978", "2-Isopropyl-3-oxobutanoic acid ethyl ester", "2-Acetyl-3-methylbutyric acid ethyl ester", "2-Isopropyl-3-oxo-butyric acid ethyl ester"], "SMILES": "C(C(OCC)=O)(C(C)C)C(C)=O", "physical_data": {"Molecular Weight": "172.22", "Molecular Formula": "C9H16O3", "Boiling Point": "201 \u00b0C"}}