{"cas_no": "1522-41-4", "cn_name": "2-\u6c1f\u4e59\u9170\u4e59\u9178\u4e59\u916f", "en_name": ["Butanoic acid, 2-fluoro-3-oxo-, ethyl ester", "Butanoic acid, 2-fluoro-3-oxo-, ethyl ester", "Acetoacetic acid, 2-fluoro-, ethyl ester", "Acetoacetic acid, fluoro-, ethyl ester", "Ethyl 2-fluoro-3-oxobutanoate", "Ethyl 2-fluoro-3-oxobutyrate", "Ethyl 2-fluoroacetoacetate", "NSC 24563", "2-Fluoro-3-oxobutanoic acid ethyl ester"], "SMILES": "C(C(OCC)=O)(C(C)=O)F", "physical_data": {"Molecular Weight": "148.13", "Molecular Formula": "C6H9FO3", "Boiling Point": "102 \u00b0C @ Press: 53 Torr"}}