{"cas_no": "15227-42-6", "cn_name": "\u987a-\u4e8c\u6c2f\u4e8c(\u5421\u5576)\u94c2(II)", "en_name": ["cis-Dichlorobis(pyridine)platinum", "Platinum, dichlorobis(pyridine)-, (SP-4-2)-", "Platinum, dichlorobis(pyridine)-, cis-", "(SP-4-2)-Dichlorobis(pyridine)platinum", "cis-Dichloro(dipyridine)platinum(II)", "cis-Dichlorobis(pyridine)platinum", "cis-Dichlorobis(pyridine)platinum(II)", "cis-Dichlorodipyridineplatinum", "NSC 129540"], "SMILES": "[Pt+2]([Cl-])([Cl-])([N]=1C=CC=CC1)[N]=2C=CC=CC2", "physical_data": {"Molecular Weight": "", "Molecular Formula": "C10H10Cl2N2Pt", "Melting Point": "227-229 \u00b0C"}}