{"cas_no": "1522-22-1", "cn_name": "\u516d\u6c1f\u4e59\u9170\u4e19\u916e", "en_name": ["Hexafluoroacetylacetone", "2,4-Pentanedione, 1,1,1,5,5,5-hexafluoro-", "1,1,1,5,5,5-Hexafluoro-2,4-pentanedione", "Hexafluoroacetylacetone", "1,1,1,5,5,5-Hexafluoroacetylacetone", "1,3-Bis(trifluoromethyl)propane-1,3-dione", "Hexafluoro-2,4-pentanedione", "1,1,1,5,5,5-Hexafluoro-2,4-pentandione", "1,1,1,5,5,5-Hexafluoropenta-2,4-dione", "Hexafluoroacetylacetonate"], "SMILES": "C(C(C(F)(F)F)=O)C(C(F)(F)F)=O", "physical_data": {"Molecular Weight": "208.06", "Molecular Formula": "C5H2F6O2", "Boiling Point": "70 \u00b0C"}}