{"cas_no": "1522-13-0", "cn_name": "1,1,3-\u4e09\u82ef\u57fa-2-\u4e19\u7094\u9187", "en_name": ["\u03b1-Phenyl-\u03b1-(2-phenylethynyl)benzenemethanol", "Benzenemethanol, \u03b1-phenyl-\u03b1-(2-phenylethynyl)-", "2-Propyn-1-ol, 1,1,3-triphenyl-", "Benzenemethanol, \u03b1-phenyl-\u03b1-(phenylethynyl)-", "\u03b1-Phenyl-\u03b1-(2-phenylethynyl)benzenemethanol", "1,1,3-Triphenylpropargyl alcohol", "1,1,3-Triphenyl-2-propyn-1-ol", "1,1,3-Triphenylpropyn-1-ol", "Diphenyl(phenylethynyl)methanol", "NSC 52241", "1,1,3-Triphenyl-2-propyne-1-ol"], "SMILES": "C(C#CC1=CC=CC=C1)(O)(C2=CC=CC=C2)C3=CC=CC=C3", "physical_data": {"Molecular Weight": "284.35", "Molecular Formula": "C21H16O", "Melting Point": "82 \u00b0C"}}