{"cas_no": "1522-92-5", "cn_name": "\u4e09\u6eb4\u65b0\u620a\u9187", "en_name": ["Pentaerythritol tribromide", "1-Propanol, 3-bromo-2,2-bis(bromomethyl)-", "3-Bromo-2,2-bis(bromomethyl)-1-propanol", "Pentaerythritol tribromide", "2,2,2-Tris(bromomethyl)ethanol", "Tribromoneopentyl alcohol", "2,2-Bis(bromomethyl)-3-bromo-1-propanol", "3-Bromo-2,2-bis(bromomethyl)propanol", "Pentaerythritol tribromohydrin", "3-Bromo-2,2-bis(bromomethyl)propyl alcohol", "FR 1360", "FR 513", "NSC 20521", "Tribromoneopentanol", "1,3-Propanediol, 2,2-dimethyl-, tribromo deriv."], "SMILES": "C(CBr)(CBr)(CBr)CO", "physical_data": {"Molecular Weight": "324.84", "Molecular Formula": "C5H9Br3O", "Boiling Point": "131 \u00b0C @ Press: 2.5 Torr", "Melting Point": "90-95 \u00b0C"}}