{"cas_no": "1522-34-5", "cn_name": "2-\u5f02\u4e01\u57fa\u4e59\u9170\u4e59\u9178\u4e59\u916f", "en_name": ["Pentanoic acid, 2-acetyl-4-methyl-, ethyl ester", "Pentanoic acid, 2-acetyl-4-methyl-, ethyl ester", "Valeric acid, 2-acetyl-4-methyl-, ethyl ester", "Ethyl 2-acetyl-4-methylvalerate", "Ethyl 2-isobutylacetoacetate", "Ethyl 2-isobutylacetylacetate", "Ethyl 2-acetyl-4-methylpentanoate", "2-Acetyl-4-methylpentanoic acid ethyl ester"], "SMILES": "C(C(OCC)=O)(CC(C)C)C(C)=O", "physical_data": {"Molecular Weight": "186.25", "Molecular Formula": "C10H18O3", "Boiling Point": "104-107 \u00b0C @ Press: 15 Torr"}}