{"cas_no": "1522-88-9", "cn_name": "1,3-\u4e8c\u7898-2,2-\u53cc(\u7898\u7532\u57fa)\u4e19\u70f7", "en_name": ["1,3-Diiodo-2,2-bis(iodomethyl)propane", "Propane, 1,3-diiodo-2,2-bis(iodomethyl)-", "1,3-Diiodo-2,2-bis(iodomethyl)propane", "Pentaerythritol tetraiodide", "Pentaerythrityl iodide", "Tetraiodoneopentane", "NSC 65441"], "SMILES": "C(CI)(CI)(CI)CI", "physical_data": {"Molecular Weight": "575.73", "Molecular Formula": "C5H8I4", "Melting Point": "233 \u00b0C"}}