{"cas_no": "1523-11-1", "cn_name": "\u4e59\u9178-2-\u8418\u916f", "en_name": ["2-Naphthyl acetate", "2-Naphthalenol, 2-acetate", "2-Naphthol, acetate", "2-Naphthalenol, acetate", "\u03b2-Naphthyl acetate", "2-Naphthyl acetate", "\u03b2-Naphthol acetate", "2-Acetoxynaphthalene", "O-Acetyl-\u03b2-naphthol", "\u03b2-Acetoxynaphthalene", "Acetic acid 2-naphthyl ester", "NSC 37069", "2-Naphthalenyl acetate"], "SMILES": "O(C(C)=O)C1=CC2=C(C=C1)C=CC=C2", "physical_data": {"Molecular Weight": "186.21", "Molecular Formula": "C12H10O2", "Melting Point": "69 \u00b0C"}}