{"cas_no": "15232-76-5", "cn_name": "3-\u8f9b\u7094", "en_name": ["3-Octyne", "3-Octyne", "1-Ethyl-2-butylacetylene", "Ethylbutyl acetylene", "Butylethylacetylene"], "SMILES": "C(C#CCC)CCC", "physical_data": {"Molecular Weight": "110.20", "Molecular Formula": "C8H14", "Boiling Point": "133.1 \u00b0C", "Melting Point": "-103.9 \u00b0C", "Density": "0.7529 g/cm\u00b3 @ Temp: 20 \u00b0C"}}