{"cas_no": "15231-91-1", "cn_name": "6-\u6eb4-2-\u8418\u915a", "en_name": ["6-Bromo-2-naphthalenol", "2-Naphthalenol, 6-bromo-", "2-Naphthol, 6-bromo-", "6-Bromo-2-naphthalenol", "6-Bromo-\u03b2-naphthol", "6-Bromo-2-naphthol", "2-Bromo-6-hydroxynaphthalene", "6-Bromo-2-hydroxynaphthalene", "2-Hydroxy-6-bromonaphthalene", "6-Hydroxy-2-bromonaphthalene", "2-Bromo-6-naphthol", "6-Bromo-2-naphthalinol", "NSC 17563"], "SMILES": "BrC1=CC2=C(C=C(O)C=C2)C=C1", "physical_data": {"Molecular Weight": "223.07", "Molecular Formula": "C10H7BrO", "Melting Point": "127-128 \u00b0C"}}