{"cas_no": "15231-78-4", "cn_name": "2,2-\u4e8c\u7532\u57fa-5-\u82ef\u57fa-1,3-\u4e8c\u6c27\u6742\u73af\u4e59\u70f7-4,6-\u4e8c\u916e", "en_name": ["2,2-Dimethyl-5-phenyl-1,3-dioxane-4,6-dione", "1,3-Dioxane-4,6-dione, 2,2-dimethyl-5-phenyl-", "Malonic acid, phenyl-, cyclic isopropylidene ester", "Malonic acid, phenyl-, monoisopropylidene cyclic ester", "2,2-Dimethyl-5-phenyl-1,3-dioxane-4,6-dione", "5-Phenyl Meldrum's Acid"], "SMILES": "O=C1C(C(=O)OC(C)(C)O1)C2=CC=CC=C2", "physical_data": {"Molecular Weight": "220.22", "Molecular Formula": "C12H12O4", "Melting Point": "135.7-137.1 \u00b0C"}}