{"cas_no": "15238-00-3", "cn_name": "\u7898\u5316\u94b4", "en_name": ["Cobalt iodide (CoI2)", "Cobalt iodide (CoI2)", "Cobalt diiodide", "Cobaltous iodide", "Cobalt(II) iodide", "Cobalt iodide"], "SMILES": "[Co](I)I", "physical_data": {"Molecular Weight": "", "Molecular Formula": "CoI2", "Melting Point": "495 \u00b0C"}}