{"cas_no": "15233-65-5", "cn_name": "2,6-\u4e8c\u7532\u6c27\u57fa\u5bf9\u82ef\u4e8c\u915a", "en_name": ["2,6-Dimethoxyhydroquinone", "1,4-Benzenediol, 2,6-dimethoxy-", "Hydroquinone, 2,6-dimethoxy-", "2,6-Dimethoxy-1,4-benzenediol", "2,6-Dimethoxyhydroquinone", "2,6-Dimethoxyquinol", "3,5-Dimethoxyhydroquinone", "2,6-Dimethoxy-1,4-dihydroxybenzene", "2,6-Dimethoxy-4-hydroxyphenol", "NSC 49356", "1,4-Dihydroxy-2,6-dimethoxybenzene"], "SMILES": "O(C)C1=C(O)C(OC)=CC(O)=C1", "physical_data": {"Molecular Weight": "170.16", "Molecular Formula": "C8H10O4", "Melting Point": "162 \u00b0C"}}