{"cas_no": "15248-39-2", "cn_name": "6,7-\u4e8c\u7532\u6c27\u57fa\u5f02\u55b9\u5549", "en_name": ["6,7-Dimethoxyisoquinoline", "Isoquinoline, 6,7-dimethoxy-", "6,7-Dimethoxyisoquinoline", "Backebergine"], "SMILES": "O(C)C1=CC2=C(C=C1OC)C=NC=C2", "physical_data": {"Molecular Weight": "189.21", "Molecular Formula": "C11H11NO2", "Boiling Point": "152-158 \u00b0C @ Press: 0.8-0.9 Torr", "Melting Point": "89-91 \u00b0C"}}