{"cas_no": "1524-88-5", "cn_name": "\u6c1f\u6c22\u7f29\u677e", "en_name": ["Flurandrenolide", "Pregn-4-ene-3,20-dione, 6-fluoro-11,21-dihydroxy-16,17-[(1-methylethylidene)bis(oxy)]-, (6\u03b1,11\u03b2,16\u03b1)-", "Pregn-4-ene-3,20-dione, 6\u03b1-fluoro-11\u03b2,16\u03b1,17,21-tetrahydroxy-, cyclic 16,17-acetal with acetone", "2H-Naphth[2\u2032,1\u2032:4,5]indeno[1,2-d][1,3]dioxole, pregn-4-ene-3,20-dione deriv.", "(6\u03b1,11\u03b2,16\u03b1)-6-Fluoro-11,21-dihydroxy-16,17-[(1-methylethylidene)bis(oxy)]pregn-4-ene-3,20-dione", "33379", "Cordran", "Drenison", "6\u03b1-Fluoro-16\u03b1-hydroxyhydrocortisone 16,17-acetonide", "Flurandrenolone", "Flurandrenolone acetonide", "Fludroxycortide", "Flurandrenolide", "Fluorandrenolone", "Fluoroandrenolone acetonide", "Fluorandrenolone acetonide", "Haelan", "6\u03b1-Fluoro-11\u03b2,21-dihydroxy-16\u03b1,17\u03b1-(isopropylidenedioxy)pregn-4-ene-3,20-dione", "Alondra F", "Drocort", "Haldrone F", "L 33379", "Sermaka", "Fluadrenolone", "Fludroxicortide", "Fluandrenolone"], "SMILES": "C(CO)(=O)C12C3(C)C(CC1OC(C)(C)O2)C4C(C(O)C3)C5(C)C(C(F)C4)=CC(=O)CC5", "physical_data": {"Molecular Weight": "436.51", "Molecular Formula": "C24H33FO6", "Melting Point": "247-255 \u00b0C"}}