{"cas_no": "1524-86-3", "cn_name": "\u6c22\u5316\u66f2\u5b89\u5948\u5fb7", "en_name": ["(11\u03b2,16\u03b1)-9-Fluoro-11,21-dihydroxy-16,17-[(1-methylethylidene)bis(oxy)]pregn-4-ene-3,20-dione", "Pregn-4-ene-3,20-dione, 9-fluoro-11,21-dihydroxy-16,17-[(1-methylethylidene)bis(oxy)]-, (11\u03b2,16\u03b1)-", "Pregn-4-ene-3,20-dione, 9-fluoro-11\u03b2,16\u03b1,17,21-tetrahydroxy-, cyclic 16,17-acetal with acetone", "Corticosterone, 9-fluoro-16\u03b1,17-dihydroxy-, cyclic 16,17-acetal with Me2CO", "2H-Naphth[2\u2032,1\u2032:4,5]indeno[1,2-d][1,3]dioxole, pregn-4-ene-3,20-dione deriv.", "(11\u03b2,16\u03b1)-9-Fluoro-11,21-dihydroxy-16,17-[(1-methylethylidene)bis(oxy)]pregn-4-ene-3,20-dione", "11\u03b2,16\u03b1,17\u03b1,21-Tetrahydroxy-9\u03b1-fluoropregn-4-ene-3,20-dione 16,17-acetonide", "NSC 21915"], "SMILES": "C(CO)(=O)C12C3(C)C(CC1OC(C)(C)O2)C4C(F)(C(O)C3)C5(C)C(CC4)=CC(=O)CC5", "physical_data": {"Molecular Weight": "436.51", "Molecular Formula": "C24H33FO6", "Melting Point": "262 \u00b0C (decomp)"}}