{"cas_no": "152460-09-8", "cn_name": "N-(2-\u7532\u57fa-5-\u785d\u57fa\u82ef\u57fa)-4-(3-\u5421\u5576\u57fa)-2-\u5627\u5576\u80fa", "en_name": ["N-(2-Methyl-5-nitrophenyl)-4-(3-pyridinyl)-2-pyrimidinamine", "2-Pyrimidinamine, N-(2-methyl-5-nitrophenyl)-4-(3-pyridinyl)-", "N-(2-Methyl-5-nitrophenyl)-4-(3-pyridinyl)-2-pyrimidinamine", "N-(2-Methyl-5-nitrophenyl)-4-(3-pyridyl)-2-pyrimidineamine", "(2-Methyl-5-nitrophenyl)[4-(pyridin-3-yl)pyrimidin-2-yl]amine", "N-(2-Methyl-5-nitrophenyl)-4-(pyridin-3-yl)pyrimidin-2-amine", "2-methyl-5-nitro-N-[4-(pyridin-3-yl)pyrimidin-2-yl]benzenamine", "N-(5-Nitro-2-methylphenyl)-N-[4-(3-pyridyl)pyrimidin-2-yl]amine", "N-(5-Nitro-2-methylphenyl)[4-(3-pyridyl)-2-pyrimidinyl]amine"], "SMILES": "N(C=1N=C(C=CN1)C=2C=CC=NC2)C3=CC(N(=O)=O)=CC=C3C", "physical_data": {"Molecular Weight": "307.31", "Molecular Formula": "C16H13N5O2", "Melting Point": "194-195 \u00b0C"}}