{"cas_no": "152402-98-7", "cn_name": "2-[[(3-\u7532\u57fa-4-\u785d\u57fa-2-\u5421\u5576\u57fa)\u7532\u57fa]\u5def\u57fa]\u82ef\u5e76\u54aa\u5511", "en_name": ["2-[[(3-Methyl-4-nitro-2-pyridinyl)methyl]thio]-1H-benzimidazole", "1H-Benzimidazole, 2-[[(3-methyl-4-nitro-2-pyridinyl)methyl]thio]-", "2-[[(3-Methyl-4-nitro-2-pyridinyl)methyl]thio]-1H-benzimidazole", "2-[(3-Methyl-4-nitro-2-pyridinyl)methylthio]-1H-benzimidazole", "2-[[(3-Methyl-4-nitro-2-pyridyl)methyl]thio]-1H-benzimidazole", "2-[[[3-Methyl-4-nitro-2-pyridyl]methyl]thio]benzimidazole"], "SMILES": "S(CC1=C(C)C(N(=O)=O)=CC=N1)C=2NC=3C(N2)=CC=CC3", "physical_data": {"Molecular Weight": "300.34", "Molecular Formula": "C14H12N4O2S", "Melting Point": "88-93 \u00b0C"}}