{"cas_no": "152459-95-5", "cn_name": "\u4f0a\u9a6c\u66ff\u5c3c", "en_name": ["Imatinib", "Benzamide, 4-[(4-methyl-1-piperazinyl)methyl]-N-[4-methyl-3-[[4-(3-pyridinyl)-2-pyrimidinyl]amino]phenyl]-", "4-[(4-Methyl-1-piperazinyl)methyl]-N-[4-methyl-3-[[4-(3-pyridinyl)-2-pyrimidinyl]amino]phenyl]benzamide", "CGP 57148", "Imatinib", "4-(4-Methylpiperazin-1-ylmethyl)-N-[4-methyl-3-[[4-(pyridin-3-yl)pyrimidin-2-yl]amino]phenyl]benzamide", "Genfatinib", "N-(4-Methyl-3-((4-(pyridin-3-yl)pyrimidin-2-yl)amino)phenyl)-4-((4-methylpiperazin-1-yl)methyl)benzamide"], "SMILES": "N(C=1N=C(C=CN1)C=2C=CC=NC2)C3=CC(NC(=O)C4=CC=C(CN5CCN(C)CC5)C=C4)=CC=C3C", "physical_data": {"Molecular Weight": "493.60", "Molecular Formula": "C29H31N7O", "Melting Point": "208-209 \u00b0C"}}