{"cas_no": "152460-10-1", "cn_name": "N-(5-\u6c28\u57fa-2-\u7532\u57fa\u82ef\u57fa)-4-(3-\u5421\u5576\u57fa)-2-\u6c28\u57fa\u5627\u5576", "en_name": ["6-Methyl-N-[4-(pyridin-3-yl)pyrimidin-2-yl]benzene-1,3-diamine", "1,3-Benzenediamine, 4-methyl-N3-[4-(3-pyridinyl)-2-pyrimidinyl]-", "4-Methyl-N3-[4-(3-pyridinyl)-2-pyrimidinyl]-1,3-benzenediamine", "N-(5-Amino-2-methylphenyl)-4-(3-pyridyl)-2-pyrimidineamine", "4-Methyl-3-[4-(3-pyridyl)pyrimidin-2-ylamino]aniline", "4-Methyl-N\u2032-[4-(pyridin-3-yl)pyrimidin-2-yl]benzene-1,3-diamine", "N-(5-Amino-2-methylphenyl)-4-(pyridin-3-yl)pyrimidin-2-ylamine", "6-Methyl-N-[4-(pyridin-3-yl)pyrimidin-2-yl]benzene-1,3-diamine", "N-(5-Amino-2-methylphenyl)-6-(pyridin-3-yl)-2-pyrimidinamine", "4-Methyl-N3-[4-(pyridin-3-yl)pyrimidin-2-yl]-1,3-benzenediamine", "N-(5-Amino-2-methylphenyl)-N-[4-(3-pyridyl)pyrimidin-2-yl]amine", "N-(5-Amino-2-methylphenyl)[4-(3-pyridyl)-2-pyrimidinyl]amine", "N-(5-Amino-2-methylphenyl)-4-(3-pyridyl)pyrimidin-2-amine", "4-Methyl-3-[4-(3-pyridinyl)pyrimidin-2-ylamino]aniline", "N-(2-Methyl-5-aminophenyl)-4-(pyridin-3-yl)pyrimidin-2-amine", "1,3-Benzenediamine 4-methyl-N3-[4-(3-pyridinyl)-2-pyrimidinyl]-", "4-Methyl-N3-[4-(3-pyridinyl)-2-pyrimidin-yl]-1,3-benzenediamine"], "SMILES": "N(C=1N=C(C=CN1)C=2C=CC=NC2)C3=C(C)C=CC(N)=C3", "physical_data": {"Molecular Weight": "277.32", "Molecular Formula": "C16H15N5", "Melting Point": "137-139 \u00b0C"}}