{"cas_no": "152460-08-7", "cn_name": "(2-\u7532\u57fa-5-\u785d\u57fa\u82ef\u57fa)\u80cd\u785d\u9178\u76d0", "en_name": ["(2-Methyl-5-nitrophenyl)guanidine nitrate", "Guanidine, N-(2-methyl-5-nitrophenyl)-, nitrate (1:1)", "Guanidine, (2-methyl-5-nitrophenyl)-, mononitrate", "(2-Methyl-5-nitrophenyl)guanidine nitrate", "N-(2-Methyl-5-nitrophenyl)guanidine nitrate", "1-(2-Methyl-5-nitrophenyl)guanidine nitrate"], "SMILES": "N(=O)(=O)O.N(C(=N)N)C1=CC(N(=O)=O)=CC=C1C", "physical_data": {"Molecular Weight": "", "Molecular Formula": "C8H10N4O2.HNO3", "Melting Point": "218-219 \u00b0C"}}