{"cas_no": "15258-73-8", "cn_name": "2,6-\u4e8c\u6c2f\u82c4\u9187", "en_name": ["2,6-Dichlorobenzyl alcohol", "Benzenemethanol, 2,6-dichloro-", "Benzyl alcohol, 2,6-dichloro-", "2,6-Dichlorobenzenemethanol", "2,6-Dichlorobenzyl alcohol", "(2,6-Dichlorophenyl)methanol", "NSC 215733"], "SMILES": "C(O)C1=C(Cl)C=CC=C1Cl", "physical_data": {"Molecular Weight": "177.03", "Molecular Formula": "C7H6Cl2O", "Melting Point": "98 \u00b0C"}}