{"cas_no": "15250-41-6", "cn_name": "(S)-(+)-1,2-\u4e19\u4e8c\u80fa-N,N,N',N'-\u56db\u4e59\u9178", "en_name": ["N,N\u2032-[(1S)-1-Methyl-1,2-ethanediyl]bis[N-(carboxymethyl)glycine]", "Glycine, N,N\u2032-[(1S)-1-methyl-1,2-ethanediyl]bis[N-(carboxymethyl)-", "Acetic acid, (propylenedinitrilo)tetra-, (+)-", "Glycine, N,N\u2032-(1-methyl-1,2-ethanediyl)bis[N-(carboxymethyl)-, (S)-", "N,N\u2032-[(1S)-1-Methyl-1,2-ethanediyl]bis[N-(carboxymethyl)glycine]", "(+)-1,2-Diaminopropanetetraacetic acid", "d-1,2-Diaminopropanetetraacetic acid", "(S)-PDTA"], "SMILES": "N(C(CN(CC(O)=O)CC(O)=O)C)(CC(O)=O)CC(O)=O", "physical_data": {"Molecular Weight": "306.27", "Molecular Formula": "C11H18N2O8", "Melting Point": "199-201 \u00b0C"}}