{"cas_no": "15267-95-5", "cn_name": "\u6c2f\u7532\u57fa\u4e09\u4e59\u6c27\u57fa\u7845\u70f7", "en_name": ["(Chloromethyl)triethoxysilane", "Silane, (chloromethyl)triethoxy-", "(Chloromethyl)triethoxysilane", "Triethoxy(chloromethyl)silane", "(Triethoxysilyl)methyl chloride", "ND 41", "Chemos 5612", "SIC 2298.4", "NQ 5151"], "SMILES": "[Si](OCC)(OCC)(OCC)CCl", "physical_data": {"Molecular Weight": "212.75", "Molecular Formula": "C7H17ClO3Si", "Boiling Point": "90-91 \u00b0C @ Press: 25 Torr", "Density": "1.048 g/cm\u00b3"}}