{"cas_no": "152684-26-9", "cn_name": "5-\u6eb4-3-\u7532\u6c27\u57fa-2-\u785d\u57fa\u5421\u5576", "en_name": ["5-Bromo-3-methoxy-2-nitropyridine", "Pyridine, 5-bromo-3-methoxy-2-nitro-", "5-Bromo-3-methoxy-2-nitropyridine", "3-Bromo-5-methoxy-6-nitropyridine"], "SMILES": "O(C)C1=C(N(=O)=O)N=CC(Br)=C1", "physical_data": {"Molecular Weight": "233.02", "Molecular Formula": "C6H5BrN2O3", "Melting Point": "111.5-112.0 \u00b0C"}}