{"cas_no": "1526-17-6", "cn_name": "2-\u6c1f-6-\u785d\u57fa\u82ef\u915a", "en_name": ["2-Fluoro-6-nitrophenol", "Phenol, 2-fluoro-6-nitro-", "2-Fluoro-6-nitrophenol", "NSC 10282", "6-Fluoro-2-nitrophenol"], "SMILES": "N(=O)(=O)C1=C(O)C(F)=CC=C1", "physical_data": {"Molecular Weight": "157.10", "Molecular Formula": "C6H4FNO3", "Melting Point": "87 \u00b0C"}}