{"cas_no": "15263-20-4", "cn_name": "\u78b3\u9178\u53d4\u4e01\u57fa\u90bb\u82ef\u4e8c\u7532\u9170\u4e9a\u80fa\u57fa\u916f", "en_name": ["1,3-Dihydro-1,3-dioxo-2H-isoindol-2-yl 1,1-dimethylethyl carbonate", "Carbonic acid, 1,3-dihydro-1,3-dioxo-2H-isoindol-2-yl 1,1-dimethylethyl ester", "Phthalimide, N-(carboxyoxy)-, tert-butyl ester", "1H-Isoindole-1,3(2H)-dione, 2-[[(1,1-dimethylethoxy)carbonyl]oxy]-", "Carbonic acid, mono-tert-butyl ester, O-phthalimido deriv.", "1,3-Dihydro-1,3-dioxo-2H-isoindol-2-yl 1,1-dimethylethyl carbonate", "N-(tert-Butoxycarbonyloxy)-phthalimide"], "SMILES": "O=C1C=2C(C(=O)N1OC(OC(C)(C)C)=O)=CC=CC2", "physical_data": {"Molecular Weight": "263.25", "Molecular Formula": "C13H13NO5", "Melting Point": "118 \u00b0C (decomp)"}}