{"cas_no": "152658-17-8", "cn_name": "\u76d0\u9178\u7eb3\u544b\u62c9\u5561", "en_name": ["2-Propenamide, N-[(5\u03b1,6\u03b2)-17-(cyclopropylmethyl)-4,5-epoxy-3,14-dihydroxymorphinan-6-yl]-3-(3-furanyl)-N-methyl-, hydrochloride (1:1), (2E)-", "2-Propenamide, N-[(5\u03b1,6\u03b2)-17-(cyclopropylmethyl)-4,5-epoxy-3,14-dihydroxymorphinan-6-yl]-3-(3-furanyl)-N-methyl-, hydrochloride (1:1), (2E)-", "2-Propenamide, N-[(5\u03b1,6\u03b2)-17-(cyclopropylmethyl)-4,5-epoxy-3,14-dihydroxymorphinan-6-yl]-3-(3-furanyl)-N-methyl-, monohydrochloride, (E)-", "2-Propenamide, N-[(5\u03b1,6\u03b2)-17-(cyclopropylmethyl)-4,5-epoxy-3,14-dihydroxymorphinan-6-yl]-3-(3-furanyl)-N-methyl-, monohydrochloride, (2E)-", "TRK 820", "(-)-17-(Cyclopropylmethyl)-3,14\u03b2-dihydroxy-4,5\u03b1-epoxy-6\u03b2-[N-methyl-trans-3-(3-furyl)acrylamido]morphinan hydrochloride", "Nalfurafine hydrochloride", "Remitch", "17-Cyclopropylmethyl-3,14\u03b2-dihydroxy-4,5\u03b1-epoxy-6\u03b2-[N-methyl-trans-3-(3-furyl)acrylamido]morphinan hydrochloride"], "SMILES": "OC12C34C=5C(OC3C(N(C(C=CC=6C=COC6)=O)C)CC1)=C(O)C=CC5CC2N(CC7CC7)CC4.Cl", "physical_data": {"Molecular Weight": "", "Molecular Formula": "C28H32N2O5.ClH", "Melting Point": "207-217 \u00b0C"}}