{"cas_no": "152628-03-0", "cn_name": "2-\u6b63\u4e19\u57fa-4-\u7532\u57fa-6-\u7fa7\u57fa\u82ef\u5e76\u54aa\u5511", "en_name": ["7-Methyl-2-propyl-1H-benzimidazole-5-carboxylic acid", "1H-Benzimidazole-5-carboxylic acid, 7-methyl-2-propyl-", "7-Methyl-2-propyl-1H-benzimidazole-5-carboxylic acid", "4-Methyl-2-propyl-6-benzimidazolecarboxylic acid", "2-Propyl-4-methylbenzimidazol-6-carboxylic acid", "4-Methyl-2-propyl-1H-benzimidazole-6-carboxylic acid", "7-Methyl-2-propyl-3H-benzimidazole-5-carboxylic acid"], "SMILES": "CC1=C2C(NC(CCC)=N2)=CC(C(O)=O)=C1", "physical_data": {"Molecular Weight": "218.25", "Molecular Formula": "C12H14N2O2", "Melting Point": "295-297 \u00b0C"}}