{"cas_no": "152628-02-9", "cn_name": "2-\u6b63\u4e19\u57fa-4-\u7532\u57fa-6-(1'-\u7532\u57fa\u82ef\u5e76\u54aa\u5511-2-\u57fa)\u82ef\u5e76\u54aa\u5511", "en_name": ["2-Propyl-4-methyl-6-(1-methylbenzimidazol-2-yl)benzimidazole", "2,5\u2032-Bi-1H-benzimidazole, 1,7\u2032-dimethyl-2\u2032-propyl-", "1,7\u2032-Dimethyl-2\u2032-propyl-2,5\u2032-bi-1H-benzimidazole", "2-Propyl-4-methyl-6-(1-methylbenzimidazol-2-yl)benzimidazole", "4-Methyl-6-(1-methylbenzimidazol-2-yl)-2-propylbenzimidazole", "1,7\u2032-Dimethyl-2\u2032-propyl-2,5\u2032-bibenzimidazole", "2-Propyl-4-methyl-6-(1-methylbenzimidazole-2-yl)benzimidazole", "1,7\u2032-Dimethyl-2\u2032-propyl-1H,1\u2032H-2,5\u2032-bibenzo[d]imidazole", "2-n-Propyl-4-methyl-6-(1\u2032-methylbenzimidazole-2-yl)benzimidazole"], "SMILES": "CN1C(=NC=2C1=CC=CC2)C=3C=C4C(=C(C)C3)N=C(CCC)N4", "physical_data": {"Molecular Weight": "304.39", "Molecular Formula": "C19H20N4", "Melting Point": "130-135 \u00b0C"}}