{"cas_no": "15266-38-3", "cn_name": "\u5434\u8331\u8438\u5361\u54c1\u78b1", "en_name": ["Evocarpine", "4(1H)-Quinolinone, 1-methyl-2-(8Z)-8-tridecen-1-yl-", "4(1H)-Quinolone, 1-methyl-2-(8-tridecenyl)-", "4(1H)-Quinolinone, 1-methyl-2-(8-tridecenyl)-, (Z)-", "4(1H)-Quinolinone, 1-methyl-2-(8Z)-8-tridecenyl-", "1-Methyl-2-(8Z)-8-tridecen-1-yl-4(1H)-quinolinone", "Evocarpine", "Euocarpine"], "SMILES": "CN1C=2C(C(=O)C=C1CCCCCCCC=CCCCC)=CC=CC2", "physical_data": {"Molecular Weight": "339.51", "Molecular Formula": "C23H33NO", "Melting Point": "34-38 \u00b0C"}}