{"cas_no": "15268-07-2", "cn_name": "3,3'-\u6c27\u8054\u4e8c\u82ef\u80fa", "en_name": ["3,3\u2032-Diaminodiphenyl ether", "Benzenamine, 3,3\u2032-oxybis-", "Aniline, 3,3\u2032-oxydi-", "3,3\u2032-Oxybis[benzenamine]", "3,3\u2032-Oxydianiline", "Bis(3-Aminophenyl) ether", "3-(3-Aminophenoxy)aniline", "3,3\u2032-Diaminodiphenyl ether", "3,3\u2032-Oxydiphenylamine", "3-(3-Aminophenoxy)benzenamine"], "SMILES": "O(C1=CC(N)=CC=C1)C2=CC(N)=CC=C2", "physical_data": {"Molecular Weight": "200.24", "Molecular Formula": "C12H12N2O", "Boiling Point": "190-191 \u00b0C @ Press: 14 Torr", "Melting Point": "37 \u00b0C"}}