{"cas_no": "15263-53-3", "cn_name": "\u6740\u879f\u4e39", "en_name": ["Cartap", "Carbamothioic acid, SC,SC\u2032-[2-(dimethylamino)-1,3-propanediyl] ester", "Carbamic acid, thio-, S,S\u2032-[2-(dimethylamino)trimethylene] ester", "Carbamothioic acid, S,S\u2032-[2-(dimethylamino)-1,3-propanediyl] ester", "1,3-Propanedithiol, 2-(dimethylamino)-, dicarbamate (ester)", "Cartap", "1,3-Bis(carbamoylthio)-2-(dimethylamino)propane", "Sanvex", "Thiobel", "Cartrap"], "SMILES": "C(CSC(N)=O)(CSC(N)=O)N(C)C", "physical_data": {"Molecular Weight": "237.34", "Molecular Formula": "C7H15N3O2S2", "Melting Point": "131 \u00b0C (decomp)"}}