{"cas_no": "15266-35-0", "cn_name": "\u4e8c\u6c22\u5434\u8331\u8438\u5361\u54c1\u78b1", "en_name": ["Dihydroevocarpine", "4(1H)-Quinolinone, 1-methyl-2-tridecyl-", "4(1H)-Quinolone, 1-methyl-2-tridecyl-", "1-Methyl-2-tridecyl-4(1H)-quinolinone", "Dihydroevocarpine", "1-Methyl-2-tridecyl-4(1H)-quinolone", "1-Methyl-2-tridecylquinolin-4-one"], "SMILES": "CN1C=2C(C(=O)C=C1CCCCCCCCCCCCC)=CC=CC2", "physical_data": {"Molecular Weight": "341.53", "Molecular Formula": "C23H35NO", "Melting Point": "57 \u00b0C"}}