{"cas_no": "15262-86-9", "cn_name": "\u5f02\u5df1\u9178\u777e\u916e", "en_name": ["Testosterone isocaproate", "Androst-4-en-3-one, 17-[(4-methyl-1-oxopentyl)oxy]-, (17\u03b2)-", "Testosterone, 4-methylvalerate", "Valeric acid, 4-methyl-, ester with testosterone", "(17\u03b2)-17-[(4-Methyl-1-oxopentyl)oxy]androst-4-en-3-one", "Testosterone isocaproate", "Testosterone 4-methylpentanoate", "3-Oxoandrost-4-en-17\u03b2-yl isocaproate", "Testosterone 17-isocaproate", "NSC 26641", "4-Androstene-17\u03b2-ol-3-one isocaproate"], "SMILES": "CC12C3C(C4C(C)(CC3)C(OC(CCC(C)C)=O)CC4)CCC1=CC(=O)CC2", "physical_data": {"Molecular Weight": "386.57", "Molecular Formula": "C25H38O3", "Melting Point": "79-80 \u00b0C"}}