{"cas_no": "1527-89-5", "cn_name": "3-\u7532\u6c27\u57fa\u82ef\u8148", "en_name": ["3-Methoxybenzonitrile", "Benzonitrile, 3-methoxy-", "m-Anisonitrile", "3-Methoxybenzonitrile", "m-Methoxybenzonitrile", "m-Cyanoanisole", "3-Cyanoanisole", "NSC 225049"], "SMILES": "C(#N)C1=CC(OC)=CC=C1", "physical_data": {"Molecular Weight": "133.15", "Molecular Formula": "C8H7NO", "Boiling Point": "164-165 \u00b0C @ Press: 20 Torr"}}