{"cas_no": "1527-17-9", "cn_name": "2-[2-(\u82ef\u786b\u57fa)\u82ef\u57fa]\u4e59\u9178", "en_name": ["2-(Phenylthio)benzeneacetic acid", "Benzeneacetic acid, 2-(phenylthio)-", "Acetic acid, [o-(phenylthio)phenyl]-", "2-(Phenylthio)benzeneacetic acid", "2-(Phenylthio)phenylacetic acid", "2-(2-(Phenylthio)phenyl)acetic acid", "BTB 15078"], "SMILES": "S(C1=C(CC(O)=O)C=CC=C1)C2=CC=CC=C2", "physical_data": {"Molecular Weight": "244.31", "Molecular Formula": "C14H12O2S", "Boiling Point": "205 \u00b0C @ Press: 1.2 Torr", "Melting Point": "123 \u00b0C"}}