{"cas_no": "1527-12-4", "cn_name": "2-(\u82ef\u786b\u57fa)\u82ef\u7532\u9178", "en_name": ["2-(Phenylthio)benzoic acid", "Benzoic acid, 2-(phenylthio)-", "Benzoic acid, o-(phenylthio)-", "2-(Phenylthio)benzoic acid", "2-Carboxydiphenyl sulfide", "NSC 40917", "EN 300-91827", "2-Phenylsulfanylbenzoic acid"], "SMILES": "S(C1=C(C(O)=O)C=CC=C1)C2=CC=CC=C2", "physical_data": {"Molecular Weight": "230.28", "Molecular Formula": "C13H10O2S", "Melting Point": "167 \u00b0C"}}