{"cas_no": "1528-74-1", "cn_name": "4,4-\u4e8c\u785d\u57fa\u8054\u82ef", "en_name": ["4,4\u2032-Dinitro-1,1\u2032-biphenyl", "1,1\u2032-Biphenyl, 4,4\u2032-dinitro-", "Biphenyl, 4,4\u2032-dinitro-", "4,4\u2032-Dinitro-1,1\u2032-biphenyl", "4,4\u2032-Dinitrobiphenyl", "4,4\u2032-Dinitrodiphenyl", "NSC 8738", "1-Nitro-4-(4-nitrophenyl)benzene"], "SMILES": "N(=O)(=O)C1=CC=C(C=C1)C2=CC=C(N(=O)=O)C=C2", "physical_data": {"Molecular Weight": "244.20", "Molecular Formula": "C12H8N2O4", "Melting Point": "240-243 \u00b0C"}}