{"cas_no": "1528-30-9", "cn_name": "\u4e9a\u7532\u57fa\u73af\u620a\u70f7", "en_name": ["Methylenecyclopentane", "Cyclopentane, methylene-", "Methylenecyclopentane", "Methylidenecyclopentane"], "SMILES": "C=C1CCCC1", "physical_data": {"Molecular Weight": "82.14", "Molecular Formula": "C6H10", "Boiling Point": "75.5 \u00b0C", "Density": "0.7806 g/cm\u00b3 @ Temp: 420 \u00b0C"}}