{"cas_no": "1529-68-6", "cn_name": "1,2,3,4-\u56db\u6eb4\u4e01\u70f7", "en_name": ["1,2,3,4-Tetrabromobutane", "Butane, 1,2,3,4-tetrabromo-", "1,2,3,4-Tetrabromobutane", "Tetrabromobutane", "Fire Guard 5000", "NSC 505"], "SMILES": "C(C(CBr)Br)(CBr)Br", "physical_data": {"Molecular Weight": "373.71", "Molecular Formula": "C4H6Br4", "Boiling Point": "118-123 \u00b0C @ Press: 10 Torr", "Melting Point": "118 \u00b0C"}}