{"cas_no": "1529-48-2", "cn_name": "\u4e8c\u6c2f\u4e8c\u7532\u57fa\u9517", "en_name": ["Germane, dichlorodimethyl-", "Germane, dichlorodimethyl-", "Dimethylgermanium dichloride", "Dimethyldichlorogermane", "Dichlorodimethylgermane", "Dimethylgermanedichloride", "Dimethylgermyl dichloride"], "SMILES": "[Ge](C)(C)(Cl)Cl", "physical_data": {"Molecular Weight": "173.62", "Molecular Formula": "C2H6Cl2Ge", "Boiling Point": "124 \u00b0C", "Melting Point": "-22 \u00b0C", "Density": "1.493 g/cm\u00b3"}}