{"cas_no": "1529-41-5", "cn_name": "\u95f4\u6c2f\u6c30\u82c4", "en_name": ["3-Chlorobenzeneacetonitrile", "Benzeneacetonitrile, 3-chloro-", "Acetonitrile, (m-chlorophenyl)-", "3-Chlorobenzeneacetonitrile", "m-Chlorobenzyl cyanide", "3-Chlorophenylacetonitrile", "3-Chlorobenzyl cyanide", "m-Chlorophenylacetonitrile", "m-Chlorobenzyl nitrile", "2-(3-Chlorophenyl)acetonitrile", "1-Chloro-3-(cyanomethyl)benzene"], "SMILES": "C(C#N)C1=CC(Cl)=CC=C1", "physical_data": {"Molecular Weight": "151.59", "Molecular Formula": "C8H6ClN", "Boiling Point": "261 \u00b0C", "Melting Point": "11.5 \u00b0C"}}