{"cas_no": "1529-17-5", "cn_name": "\u4e09\u7532\u57fa\u82ef\u6c27\u57fa\u7845", "en_name": ["Trimethylphenoxysilane", "Benzene, [(trimethylsilyl)oxy]-", "Silane, trimethylphenoxy-", "[(Trimethylsilyl)oxy]benzene", "Trimethylphenoxysilane", "O-(Trimethylsilyl)phenol", "Phenoxytrimethylsilane", "(Trimethylsiloxy)benzene", "Trimethylsilyl phenyl ether", "Phenyl trimethylsilyl ether", "Phenol trimethylsilyl ether", "Trimethylsilicon phenoxide", "Dow Corning TMSP", "TMSP"], "SMILES": "O([Si](C)(C)C)C1=CC=CC=C1", "physical_data": {"Molecular Weight": "166.29", "Molecular Formula": "C9H14OSi", "Boiling Point": "119 \u00b0C", "Melting Point": "-55 \u00b0C", "Density": "0.920 g/cm\u00b3"}}