{"cas_no": "1529-47-1", "cn_name": "\u4e09\u7532\u57fa\u6c2f\u5316\u9517", "en_name": ["Germane, chlorotrimethyl-", "Germane, chlorotrimethyl-", "Trimethylgermanium chloride", "Trimethylchlorogermane", "Chlorotrimethylgermane", "Trimethylgermyl chloride", "Trimethylgermanyl chloride", "Chlorotrimethylgermanium", "Trimethylchlorogermanium"], "SMILES": "[Ge](C)(C)(C)Cl", "physical_data": {"Molecular Weight": "153.20", "Molecular Formula": "C3H9ClGe", "Boiling Point": "102 \u00b0C", "Melting Point": "-14 \u00b0C", "Density": "1.249 g/cm\u00b3"}}