{"cas_no": "1529-65-3", "cn_name": "1,3,5-\u4e09\u4e59\u70ef\u57fa-1,1,3,5,5-\u4e94\u7532\u57fa\u4e09\u7845\u6c27\u70f7", "en_name": ["1,3,5-Triethenyl-1,1,3,5,5-pentamethyltrisiloxane", "Trisiloxane, 1,3,5-triethenyl-1,1,3,5,5-pentamethyl-", "Trisiloxane, 1,1,3,5,5-pentamethyl-1,3,5-trivinyl-", "1,3,5-Triethenyl-1,1,3,5,5-pentamethyltrisiloxane", "1,1,3,5,5-Pentamethyl-1,3,5-trivinyltrisiloxane", "1,3,5-Trivinylpentamethyltrisiloxane", "1,3,5-Trivinyl-1,1,3,5,5-pentamethyltrisiloxane"], "SMILES": "[Si](O[Si](C=C)(C)C)(O[Si](C=C)(C)C)(C=C)C", "physical_data": {"Molecular Weight": "272.56", "Molecular Formula": "C11H24O2Si3", "Boiling Point": "198-200 \u00b0C"}}