{"cas_no": "15295-77-9", "cn_name": "L-\u9ad8\u4e1d\u6c28\u9178\u5185\u916f\u6c22\u6eb4\u9178\u76d0", "en_name": ["2(3H)-Furanone, 3-aminodihydro-, hydrobromide (1:1), (3S)-", "2(3H)-Furanone, 3-aminodihydro-, hydrobromide (1:1), (3S)-", "2(3H)-Furanone, 3-aminodihydro-, hydrobromide, L-", "2(3H)-Furanone, 3-aminodihydro-, hydrobromide, (S)-", "2(3H)-Furanone, 3-aminodihydro-, hydrobromide, (3S)-", "L-Homoserine lactone hydrobromide", "(S)-2-Amino-4-butyrolactone hydrobromide", "(S)-(-)-\u03b1-Aminobutyrolactone hydrobromide", "(S)-3-Aminodihydrofuran-2(3H)-one hydrobromide", "(S)-(-)-\u03b1-Amino-\u03b3-butyrolactone hydrobromide"], "SMILES": "NC1C(=O)OCC1.Br", "physical_data": {"Molecular Weight": "", "Molecular Formula": "C4H7NO2.BrH", "Melting Point": "139-141 \u00b0C"}}