{"cas_no": "15299-99-7", "cn_name": "\u654c\u8349\u80fa", "en_name": ["Napropamide", "Propanamide, N,N-diethyl-2-(1-naphthalenyloxy)-", "Propionamide, N,N-diethyl-2-(1-naphthyloxy)-", "N,N-Diethyl-2-(1-naphthalenyloxy)propanamide", "R 7465", "2-(\u03b1-Naphthoxy)-N,N-diethylpropionamide", "Napropamide", "Devrinol", "Napropamid", "N,N-Diethyl-2-(1-naphthalenyloxy)propionamide", "Racemic devrinol", "(\u00b1)-Devrinol", "N,N-Diethyl-2-(1-naphthyloxy)propanamide", "N,N-Diethyl-2-(1-naphthoxy)propionamide"], "SMILES": "O(C(C(N(CC)CC)=O)C)C=1C2=C(C=CC1)C=CC=C2", "physical_data": {"Molecular Weight": "271.35", "Molecular Formula": "C17H21NO2", "Melting Point": "75 \u00b0C"}}