{"cas_no": "153-18-4", "cn_name": "\u82a6\u4e01", "en_name": ["Rutin", "4H-1-Benzopyran-4-one, 3-[[6-O-(6-deoxy-\u03b1-L-mannopyranosyl)-\u03b2-D-glucopyranosyl]oxy]-2-(3,4-dihydroxyphenyl)-5,7-dihydroxy-", "Rutin", "Ilixanthin", "Flavone, 3,3\u2032,4\u2032,5,5\u2032,7-hexahydroxy-, (6-O-\u03b1-L-rhamnosyl-\u03b2-D-glucoside)", "3-[[6-O-(6-Deoxy-\u03b1-L-mannopyranosyl)-\u03b2-D-glucopyranosyl]oxy]-2-(3,4-dihydroxyphenyl)-5,7-dihydroxy-4H-1-benzopyran-4-one", "C.I. 75730", "Birutan", "Eldrin", "Globulariacitrin", "Melin", "Myrticalorin", "Myrticolorin", "Myticolorin", "Osyritin", "Osyritrin", "Oxyritin", "3,3\u2032,4\u2032,5,7-Pentahydroxyflavone 3-rutinoside", "Phytomelin", "Quercetin 3-rutinoside", "Rutabion", "Rutinic acid", "Rutoside", "Sophorin", "Tanrutin", "Violaquercitrin", "3-Rutinosylquercetin", "Quercetin 3-\u03b2-rutinoside", "Quercetin 3-O-\u03b2-D-rutinoside", "Globularicitrin", "Paliuroside", "Rutosid", "Quercetin 3-O-rutinoside", "5,7,3\u2032,4\u2032-Tetrahydroxyflavonol-3-O-rutinoside", "3,3\u2032,4\u2032,5,7-Pentahydroxyflavone 3-O-rutinoside", "Quercetin 3-O-\u03b2-rutinoside", "Quercetin 3-rhamnoglucoside", "Violaquercetrin", "Ilixathin", "NSC 9220", "Quercetin 3-O-\u03b1-L-rhamnopyranosyl-(1\u21926)-\u03b2-D-glucopyranoside", "Rutozid", "3-O-Rutinosylquercetin", "Novarrutina", "Quercetin 3-O-\u03b1-rhamnopyranosyl(1\u21926)-\u03b2-glucopyranoside", "Yunxianggan", "Quercetin 3-O-\u03b1-rhamnopyranosyl(1\u2032\u2032\u21926\u2032)-\u03b2-D-glucopyranoside", "Rutine", "Quercetin 3-O-\u03b2-D-(6\u2032\u2032-O-\u03b1-L-rhamnopyranosyl)glucopyranoside", "Quercetin 3-O-\u03b1-L-rhamnopyranosyl-\u03b2-D-glucopyranoside", "Quercetin rutinoside", "Quercetin 3-O-\u03b1-rhamnopyranosyl-(1\u2032\u2032\u2032\u21926\u2032\u2032)-\u03b2-glucopyranoside", "Quercetin 6-O-\u03b1-L-rhamnosyl-\u03b2-D-glucoside", "Quercetin 3-(6-O-\u03b1-L-rhamnopyranosyl-\u03b2-D-glucopyranoside)", "TCI-R 0035", "TCM 5280805", "MeSH ID: D012431"], "SMILES": "O(C1=C(OC=2C(C1=O)=C(O)C=C(O)C2)C3=CC(O)=C(O)C=C3)C4OC(COC5C(O)C(O)C(O)C(C)O5)C(O)C(O)C4O", "physical_data": {"Molecular Weight": "610.52", "Molecular Formula": "C27H30O16", "Melting Point": "125 \u00b0C"}}