{"cas_no": "153-00-4", "cn_name": "\u7f8e\u66ff\u8bfa\u9f99", "en_name": ["Methenolone", "Androst-1-en-3-one, 17-hydroxy-1-methyl-, (5\u03b1,17\u03b2)-", "5\u03b1-Androst-1-en-3-one, 17\u03b2-hydroxy-1-methyl-", "(5\u03b1,17\u03b2)-17-Hydroxy-1-methylandrost-1-en-3-one", "Metenolone", "17\u03b2-Hydroxy-1-methyl-5\u03b1-androst-1-en-3-one", "Methenolon", "Methenolone", "1-Methyl-\u03941-androsten-17\u03b2-ol-3-one", "1-Methyl-5\u03b1-androst-1-en-17\u03b2-ol-3-one", "MeSH ID: D008710"], "SMILES": "CC12C3C(C4C(C)(CC3)C(O)CC4)CCC1CC(=O)C=C2C", "physical_data": {"Molecular Weight": "302.45", "Molecular Formula": "C20H30O2", "Melting Point": "149.5-152 \u00b0C"}}