{"cas_no": "153-97-9", "cn_name": "7-\u6c2f\u8272\u6c28\u9178", "en_name": ["7-Chlorotryptophan", "Tryptophan, 7-chloro-", "Tryptophan, 7-chloro-, DL-", "DL-Tryptophan, 7-chloro-", "7-Chlorotryptophan", "7-Chloro-DL-tryptophan", "2-Amino-3-(7-chloro-1H-indol-3-yl)propanoic acid"], "SMILES": "C(C(C(O)=O)N)C=1C=2C(NC1)=C(Cl)C=CC2", "physical_data": {"Molecular Weight": "238.67", "Molecular Formula": "C11H11ClN2O2", "Melting Point": "236-239 \u00b0C"}}