{"cas_no": "153-94-6", "cn_name": "D-\u8272\u6c28\u9178", "en_name": ["D-Tryptophan", "D-Tryptophan", "Tryptophan, D-", "D-Tryptophane", "(+)-Tryptophan", "(R)-Tryptophan", "(R)-\u03b1-Aminoindole-3-propanoic acid", "(R)-\u03b1-Amino-3-indolepropionic acid", "NSC 97942", "(2R)-2-Amino-3-(1H-indol-3-yl)propanoic acid", "(2R)-2-Azaniumyl-3-(1H-indol-3-yl)propanoate"], "SMILES": "C(C(C(O)=O)N)C=1C=2C(NC1)=CC=CC2", "physical_data": {"Molecular Weight": "204.23", "Molecular Formula": "C11H12N2O2", "Melting Point": "274 \u00b0C", "Density": "1.35 g/cm\u00b3"}}