{"cas_no": "153-78-6", "cn_name": "2-\u6c28\u57fa\u82b4", "en_name": ["2-Aminofluorene", "9H-Fluoren-2-amine", "Fluoren-2-amine", "2-Aminofluorene", "2-Fluorenylamine", "N-2-Fluorenylamine", "NSC 12274", "NSC 26328", "2-Amino-9H-fluorene"], "SMILES": "NC=1C=C2C(C=3C(C2)=CC=CC3)=CC1", "physical_data": {"Molecular Weight": "181.23", "Molecular Formula": "C13H11N", "Melting Point": "131-132 \u00b0C"}}