{"cas_no": "153-61-7", "cn_name": "\u5934\u5b62\u567b\u5429\u9178", "en_name": ["Cephalothin", "5-Thia-1-azabicyclo[4.2.0]oct-2-ene-2-carboxylic acid, 3-[(acetyloxy)methyl]-8-oxo-7-[[2-(2-thienyl)acetyl]amino]-, (6R,7R)-", "5-Thia-1-azabicyclo[4.2.0]oct-2-ene-2-carboxylic acid, 3-(hydroxymethyl)-8-oxo-7-[2-(2-thienyl)acetamido]-, acetate (ester)", "5-Thia-1-azabicyclo[4.2.0]oct-2-ene-2-carboxylic acid, 3-[(acetyloxy)methyl]-8-oxo-7-[(2-thienylacetyl)amino]-, (6R-trans)-", "5-Thia-1-azabicyclo[4.2.0]oct-2-ene-2-carboxylic acid, 3-[(acetyloxy)methyl]-8-oxo-7-[(2-thienylacetyl)amino]-, (6R,7R)-", "(6R,7R)-3-[(Acetyloxy)methyl]-8-oxo-7-[[2-(2-thienyl)acetyl]amino]-5-thia-1-azabicyclo[4.2.0]oct-2-ene-2-carboxylic acid", "3-(Acetoxymethyl)-8-oxo-7-[2-(2-thienyl)acetamido]-5-thia-1-azabicyclo[4.2.0]oct-2-ene-2-carboxylic acid", "Cefalotin", "Cephalothin", "CT", "7-(Thiophene-2-acetamido)cephalosporin", "Cephalotin", "3-Acetoxymethyl-7-(2-thienylacetamido)-3-cephem-4-carboxylic acid", "7-(2-Thienylacetamido)cephalosporanic acid", "7-[2-(2-Thienyl)acetylamido]cephalosporanic acid", "MeSH ID: D002512"], "SMILES": "C(O)(=O)C=1N2C(C(NC(CC3=CC=CS3)=O)C2=O)SCC1COC(C)=O", "physical_data": {"Molecular Weight": "396.44", "Molecular Formula": "C16H16N2O6S2", "Melting Point": "160-160.5 \u00b0C"}}