{"cas_no": "153-98-0", "cn_name": "5-\u7f9f\u57fa\u8272\u80fa\u76d0\u9178\u76d0", "en_name": ["Serotonin hydrochloride", "1H-Indol-5-ol, 3-(2-aminoethyl)-, hydrochloride (1:1)", "Indol-5-ol, 3-(2-aminoethyl)-, monohydrochloride", "1H-Indol-5-ol, 3-(2-aminoethyl)-, monohydrochloride", "Hippophaine hydrochloride", "Serotonin hydrochloride", "5-Hydroxytryptamine hydrochloride", "5-HT\u2022HCl"], "SMILES": "C(CN)C=1C=2C(NC1)=CC=C(O)C2.Cl", "physical_data": {"Molecular Weight": "", "Molecular Formula": "C10H12N2O.ClH", "Melting Point": "167-168 \u00b0C"}}