{"cas_no": "1530-34-3", "cn_name": "(3,3-\u4e8c\u7532\u57fa\u70ef\u4e19\u57fa)\u4e09\u82ef\u57fa\u6eb4\u5316\u81a6", "en_name": ["Phosphonium, (3-methyl-2-buten-1-yl)triphenyl-, bromide (1:1)", "Phosphonium, (3-methyl-2-buten-1-yl)triphenyl-, bromide (1:1)", "Phosphonium, (3-methyl-2-butenyl)triphenyl-, bromide", "(3-Methylbut-2-enyl)triphenylphosphonium bromide", "(3,3-Dimethylallyl)triphenylphosphonium bromide", "NSC 219242", "Triphenylprenylphosphonium bromide"], "SMILES": "[P+](CC=C(C)C)(C1=CC=CC=C1)(C2=CC=CC=C2)C3=CC=CC=C3.[Br-]", "physical_data": {"Molecular Weight": "", "Molecular Formula": "C23H24P.Br", "Melting Point": "242 \u00b0C"}}