{"cas_no": "15307-78-5", "cn_name": "\u53cc\u6c2f\u915a\u7532\u916f", "en_name": ["Diclofenac methyl ester", "Benzeneacetic acid, 2-[(2,6-dichlorophenyl)amino]-, methyl ester", "Acetic acid, [o-(2,6-dichloroanilino)phenyl]-, methyl ester", "[o-(2,6-Dichloroanilino)phenyl]acetic acid methyl ester", "Methyl 2-(2,6-dichloroanilino)phenylacetate", "Diclofenac methyl ester", "2-[2-(2,6-Dichloroanilino)phenyl]acetate"], "SMILES": "N(C1=C(CC(OC)=O)C=CC=C1)C2=C(Cl)C=CC=C2Cl", "physical_data": {"Molecular Weight": "310.18", "Molecular Formula": "C15H13Cl2NO2", "Melting Point": "101-102 \u00b0C"}}