{"cas_no": "15307-86-5", "cn_name": "\u53cc\u6c2f\u82ac\u9178", "en_name": ["Diclofenac", "Benzeneacetic acid, 2-[(2,6-dichlorophenyl)amino]-", "Acetic acid, [o-(2,6-dichloroanilino)phenyl]-", "2-[(2,6-Dichlorophenyl)amino]benzeneacetic acid", "N-(2,6-Dichlorophenyl)-o-aminophenylacetic acid", "[o-(2,6-Dichloroanilino)phenyl]acetic acid", "2-(2,6-Dichloroanilino)phenylacetic acid", "Diclofenac acid", "Dichlofenac", "Diclofenac", "2-(2,6-Dichlorophenylamino)phenylacetic acid", "Pennsaid", "Dicloreuma", "Transfenac", "Diclomelan", "Diclofenamic acid", "Diclac", "Voltaflan", "2-[2-(2,6-Dichlorophenylamino)phenyl]acetic acid", "Ortofen", "DCF 100C", "Dicloftil", "Voltaren Dolo", "Flector EP Tissugel", "Flector", "Zorvolex", "Vetagesic", "Zolterol", "2-[2-(2,6-Dichloroanilino)phenyl]acetic acid", "MeSH ID: D004008"], "SMILES": "N(C1=C(CC(O)=O)C=CC=C1)C2=C(Cl)C=CC=C2Cl", "physical_data": {"Molecular Weight": "296.15", "Molecular Formula": "C14H11Cl2NO2", "Melting Point": "156-158 \u00b0C"}}