{"cas_no": "1530-45-6", "cn_name": "\u4e59\u6c27\u7532\u9170\u57fa\u7532\u57fa\u4e09\u82ef\u57fa\u6eb4\u5316\u81a6", "en_name": ["Phosphonium, (2-ethoxy-2-oxoethyl)triphenyl-, bromide (1:1)", "Phosphonium, (2-ethoxy-2-oxoethyl)triphenyl-, bromide (1:1)", "Phosphonium, (carboxymethyl)triphenyl-, bromide, ethyl ester", "Phosphonium, (2-ethoxy-2-oxoethyl)triphenyl-, bromide", "(Carboxymethyl)triphenylphosphonium bromide ethyl ester", "(Carbethoxymethyl)triphenylphosphonium bromide", "Ethoxycarbonylmethyltriphenylphosphonium bromide", "Carboethoxymethyltriphenylphosphonium bromide", "(2-Ethoxy-2-oxoethyl)(triphenyl)phosphonium bromide", "NSC 60450"], "SMILES": "[P+](CC(OCC)=O)(C1=CC=CC=C1)(C2=CC=CC=C2)C3=CC=CC=C3.[Br-]", "physical_data": {"Molecular Weight": "", "Molecular Formula": "C22H22O2P.Br", "Melting Point": "157 \u00b0C"}}