{"cas_no": "15307-77-4", "cn_name": "5-METHOXY-2-[(3,5-DIMETHYL-2-PYRIDINYL)-METHYLSULFINYL]-BENZIMIDAZOLE", "en_name": ["Diclofenac ethyl ester", "Benzeneacetic acid, 2-[(2,6-dichlorophenyl)amino]-, ethyl ester", "Acetic acid, [o-(2,6-dichloroanilino)phenyl]-, ethyl ester", "Ethyl 2-(2,6-dichloroanilino)phenylacetate", "Diclofenac ethyl ester"], "SMILES": "N(C1=C(CC(OCC)=O)C=CC=C1)C2=C(Cl)C=CC=C2Cl", "physical_data": {"Molecular Weight": "324.20", "Molecular Formula": "C16H15Cl2NO2", "Melting Point": "122-124 \u00b0C"}}