{"cas_no": "1530-88-7", "cn_name": "1-\u6c30\u57fa\u5421\u54af\u70f7", "en_name": ["1-Pyrrolidinecarbonitrile", "1-Pyrrolidinecarbonitrile", "Tetramethylenecyanamide", "1-Cyanopyrrolidine", "N-Cyanopyrrolidine", "Pyrrolidinocarbonitrile", "1-Pyrrolidinylcyanamide", "NSC 44225", "1-Pyrrolidinecyanamide"], "SMILES": "C(#N)N1CCCC1", "physical_data": {"Molecular Weight": "96.13", "Molecular Formula": "C5H8N2", "Boiling Point": "107-110 \u00b0C @ Press: 17 Torr"}}