{"cas_no": "15301-69-6", "cn_name": "\u9ec4\u916e\u54cc\u916f", "en_name": ["Flavoxate", "4H-1-Benzopyran-8-carboxylic acid, 3-methyl-4-oxo-2-phenyl-, 2-(1-piperidinyl)ethyl ester", "4H-1-Benzopyran-8-carboxylic acid, 3-methyl-4-oxo-2-phenyl-, 2-piperidinoethyl ester", "Flavoxate", "Piperidinoethyl 3-methyl-2-phenyl-4-oxo-4H-1-benzopyran-8-carboxylate", "\u03b2-Piperidinoethyl-3-methylflavone-8-carboxylate", "2-Piperidinoethyl 3-methylflavone-8-carboxylate"], "SMILES": "C(OCCN1CCCCC1)(=O)C2=C3C(C(=O)C(C)=C(O3)C4=CC=CC=C4)=CC=C2", "physical_data": {"Molecular Weight": "391.46", "Molecular Formula": "C24H25NO4", "Melting Point": "87-88 \u00b0C"}}