{"cas_no": "1530-36-5", "cn_name": "(2-\u7532\u57fa\u82c4\u57fa)\u4e09\u82ef\u57fa\u6eb4\u5316\u81a6", "en_name": ["Phosphonium, [(2-methylphenyl)methyl]triphenyl-, bromide (1:1)", "Phosphonium, [(2-methylphenyl)methyl]triphenyl-, bromide (1:1)", "Phosphonium, (o-methylbenzyl)triphenyl-, bromide", "Phosphonium, [(2-methylphenyl)methyl]triphenyl-, bromide", "(o-Methylbenzyl)triphenylphosphonium bromide", "[(2-Methylphenyl)methyl]triphenylphosphonium bromide", "NSC 77140", "(2-Methylbenzyl)triphenylphosphonium bromide"], "SMILES": "[P+](CC1=C(C)C=CC=C1)(C2=CC=CC=C2)(C3=CC=CC=C3)C4=CC=CC=C4.[Br-]", "physical_data": {"Molecular Weight": "", "Molecular Formula": "C26H24P.Br", "Melting Point": "253-255 \u00b0C"}}