{"cas_no": "1530-89-8", "cn_name": "4-\u5417\u7433\u7532\u8148", "en_name": ["4-Morpholinecarbonitrile", "4-Morpholinecarbonitrile", "4-Cyanomorpholine", "N-Morpholinonitrile", "N-Cyanomorpholine", "Morpholinocarbonitrile", "Morpholinocyanamide", "NSC 44243", "Morpholine-4-nitrile"], "SMILES": "C(#N)N1CCOCC1", "physical_data": {"Molecular Weight": "112.13", "Molecular Formula": "C5H8N2O", "Boiling Point": "117-119 \u00b0C @ Press: 15 Torr"}}