{"cas_no": "15307-79-6", "cn_name": "\u53cc\u6c2f\u82ac\u9178\u94a0", "en_name": ["Diclofenac sodium", "Benzeneacetic acid, 2-[(2,6-dichlorophenyl)amino]-, sodium salt (1:1)", "Acetic acid, [o-(2,6-dichloroanilino)phenyl]-, monosodium salt", "Benzeneacetic acid, 2-[(2,6-dichlorophenyl)amino]-, monosodium salt", "N-(2,6-Dichlorophenyl)-o-aminophenylacetic acid sodium salt", "GP 45840", "[o-(2,6-Dichloroanilino)phenyl]acetic acid sodium salt", "Diclofenac sodium", "Voltaren", "Diclophenac sodium", "Sodium [o-(2,6-dichloroanilino)phenyl]acetate", "Sodium diclofenac", "Voltarol", "Diclofenac sodium salt", "Feloran", "Orthofen", "2-(2,6-Dichloroanilino)phenylacetic acid sodium salt", "Orthophen", "Hyanalgese D", "Inflaban", "Naclof", "Diklovit", "SR 318B", "Diclofen SR 100", "Sorelmon", "Voltaren Ophtha CD", "Voltaren Ophtha", "Voveran", "Voldal", "Rhumalgan", "Kriplex", "Effekton", "Duravolten", "Dicloreum", "Evofenac", "Diclo-Puren", "Valetan", "Neriodin", "Dichronic", "Novapirina", "Dolobasan", "Primofenac", "Diclord", "Diclo-Phlogont", "Delphimix", "Assaren", "Prophenatin", "Diclobenin", "Xenid", "Allvoran", "Benfofen", "Tsudohmin", "Profenac", "Fortfen", "Diclofenac-Na Emulgel", "Diclofenacsodium Emulgel", "Dyclo", "Diclokalium", "Diclorep", "Diclodyn", "Diacron", "Dyloject", "Diclobene", "Naclofen", "Dicloberl Retard", "Dicloberl", "Dicloran CP", "Diclofenac retard", "Declophen", "Naclofen Duo", "diclotard", "Refen retard", "Refen", "Diclon", "Dicloflex", "Panamor", "Modifenac", "Abitren", "Olfen", "Dedolor", "Deflamat", "Dicloran Plus", "Dolaut", "Dikloron", "Saffrac", "Daispas", "Bolabomin", "Voltral", "Diclogesic", "2-[2-[(2,6-Dichlorophenyl)amino]phenyl]acetic acid sodium salt", "Neurodiclovit", "Neurofenac", "Phlogin", "Diclomol", "Dynapar", "Voveran Plus", "Difene"], "SMILES": "N(C1=C(CC(O)=O)C=CC=C1)C2=C(Cl)C=CC=C2Cl.[Na]", "physical_data": {"Molecular Weight": "", "Molecular Formula": "C14H11Cl2NO2.Na", "Melting Point": "283-285 \u00b0C", "Density": "0.563 g/cm\u00b3"}}