{"cas_no": "1530-04-7", "cn_name": "1,1-\u8054\u82ef\u57fa\u5df1\u70f7", "en_name": ["1,1\u2032-Hexylidenebis[benzene]", "Benzene, 1,1\u2032-hexylidenebis-", "Hexane, 1,1-diphenyl-", "1,1\u2032-Hexylidenebis[benzene]", "1,1-Diphenylhexane", "1-Phenylhexylbenzene"], "SMILES": "C(CCCCC)(C1=CC=CC=C1)C2=CC=CC=C2", "physical_data": {"Molecular Weight": "238.37", "Molecular Formula": "C18H22", "Boiling Point": "321.03 \u00b0C @ Press: 760 Torr", "Melting Point": "-11.76 \u00b0C", "Density": "0.95639 g/cm\u00b3 @ Temp: 20 \u00b0C"}}