{"cas_no": "1530-03-6", "cn_name": "1,1-\u4e8c\u82ef\u57fa\u4e19\u70f7", "en_name": ["1,1-Diphenylpropane", "Benzene, 1,1\u2032-propylidenebis-", "Propane, 1,1-diphenyl-", "1,1\u2032-Propylidenebis[benzene]", "1,1-Diphenylpropane", "Propan-1,1-diyldibenzene"], "SMILES": "C(CC)(C1=CC=CC=C1)C2=CC=CC=C2", "physical_data": {"Molecular Weight": "196.29", "Molecular Formula": "C15H16", "Boiling Point": "281.6 \u00b0C", "Melting Point": "13.3 \u00b0C", "Density": "0.9881 g/cm\u00b3 @ Temp: 24 \u00b0C"}}