{"cas_no": "1530-87-6", "cn_name": "1-\u6c30\u57fa\u54cc\u5576", "en_name": ["1-Piperidinecarbonitrile", "1-Piperidinecarbonitrile", "Pentamethylenecyanamide", "N-Cyanopiperidine", "1-Cyanopiperidine", "N-Piperidinecarbonitrile", "1-Piperidinocarbonitrile", "NSC 26965"], "SMILES": "C(#N)N1CCCCC1", "physical_data": {"Molecular Weight": "110.16", "Molecular Formula": "C6H10N2", "Boiling Point": "105 \u00b0C @ Press: 10 Torr"}}