{"cas_no": "15308-01-7", "cn_name": "2,2',6'-\u4e09\u6c2f-N-\u82ef\u57fa\u4e59\u9170\u82ef\u80fa", "en_name": ["2-Chloro-N-(2,6-dichlorophenyl)-N-phenylacetamide", "Acetamide, 2-chloro-N-(2,6-dichlorophenyl)-N-phenyl-", "Acetanilide, 2,2\u2032,6\u2032-trichloro-N-phenyl-", "2-Chloro-N-(2,6-dichlorophenyl)-N-phenylacetamide", "N-(Chloroacetyl)-2,6-dichlorodiphenylamine", "2,2\u2032,6\u2032-Trichloro-N-phenylacetanilide"], "SMILES": "N(C(CCl)=O)(C1=C(Cl)C=CC=C1Cl)C2=CC=CC=C2", "physical_data": {"Molecular Weight": "314.59", "Molecular Formula": "C14H10Cl3NO", "Melting Point": "143-144 \u00b0C"}}