{"cas_no": "15307-93-4", "cn_name": "2,6-\u4e8c\u6c2f-N-\u82ef\u57fa\u82ef\u80fa", "en_name": ["2,6-Dichloro-N-phenylbenzenamine", "Benzenamine, 2,6-dichloro-N-phenyl-", "Diphenylamine, 2,6-dichloro-", "2,6-Dichloro-N-phenylbenzenamine", "2,6-Dichlorodiphenylamine", "N-(2,6-Dichlorophenyl)aniline", "N-Phenyl-2,6-dichloroaniline", "N-(2,6-Dichlorophenyl)-N-phenylamine", "Decarboxymethyl diclofenac", "2,6-Dichloro-N-phenylaniline"], "SMILES": "N(C1=C(Cl)C=CC=C1Cl)C2=CC=CC=C2", "physical_data": {"Molecular Weight": "238.11", "Molecular Formula": "C12H9Cl2N", "Boiling Point": "115 \u00b0C @ Press: 0.01 Torr", "Melting Point": "48-50 \u00b0C"}}