{"cas_no": "1530-37-6", "cn_name": "4-\u7532\u57fa\u82ef\u4e09\u82ef\u57fa\u6c2f\u5316\u78f7", "en_name": ["Phosphonium, [(4-methylphenyl)methyl]triphenyl-, chloride (1:1)", "Phosphonium, [(4-methylphenyl)methyl]triphenyl-, chloride (1:1)", "Phosphonium, (p-methylbenzyl)triphenyl-, chloride", "Phosphonium, [(4-methylphenyl)methyl]triphenyl-, chloride", "(p-Methylbenzyl)triphenylphosphonium chloride", "4-Methylbenzyltriphenylphosphonium chloride"], "SMILES": "[P+](CC1=CC=C(C)C=C1)(C2=CC=CC=C2)(C3=CC=CC=C3)C4=CC=CC=C4.[Cl-]", "physical_data": {"Molecular Weight": "", "Molecular Formula": "C26H24P.Cl", "Melting Point": "240-241 \u00b0C"}}