{"cas_no": "1530-39-8", "cn_name": "4-\u6c2f\u82c4\u57fa\u4e09\u82ef\u57fa\u6c2f\u5316\u78f7\u84ca\u76d0", "en_name": ["Phosphonium, [(4-chlorophenyl)methyl]triphenyl-, chloride (1:1)", "Phosphonium, [(4-chlorophenyl)methyl]triphenyl-, chloride (1:1)", "Phosphonium, (p-chlorobenzyl)triphenyl-, chloride", "Phosphonium, [(4-chlorophenyl)methyl]triphenyl-, chloride", "(p-Chlorobenzyl)triphenylphosphonium chloride", "(4-Chlorobenzyl)triphenylphosphonium chloride"], "SMILES": "[P+](CC1=CC=C(Cl)C=C1)(C2=CC=CC=C2)(C3=CC=CC=C3)C4=CC=CC=C4.[Cl-]", "physical_data": {"Molecular Weight": "", "Molecular Formula": "C25H21ClP.Cl", "Melting Point": "279-281 \u00b0C"}}