{"cas_no": "15307-81-0", "cn_name": "\u53cc\u6c2f\u82ac\u9178\u94be", "en_name": ["Diclofenac potassium", "Benzeneacetic acid, 2-[(2,6-dichlorophenyl)amino]-, potassium salt (1:1)", "Acetic acid, [o-(2,6-dichloroanilino)phenyl]-, monopotassium salt", "Benzeneacetic acid, 2-[(2,6-dichlorophenyl)amino]-, monopotassium salt", "Potassium diclofenac", "Diclofenac potassium", "CGP 45840B", "Cataflam", "ProSorb", "K-fenak", "Caflam", "Zipsor", "Cambia", "K-Fenak"], "SMILES": "N(C1=C(CC(O)=O)C=CC=C1)C2=C(Cl)C=CC=C2Cl.[K]", "physical_data": {"Molecular Weight": "", "Molecular Formula": "C14H11Cl2NO2.K", "Melting Point": "300-330 \u00b0C"}}