{"cas_no": "15301-40-3", "cn_name": "8-\u4e59\u6c27\u57fa\u55b9\u5549-5-\u78fa\u9178", "en_name": ["Actinoquinol", "5-Quinolinesulfonic acid, 8-ethoxy-", "8-Ethoxy-5-quinolinesulfonic acid", "Actinoquinol", "NSC 165584"], "SMILES": "O(CC)C=1C2=C(C(S(=O)(=O)O)=CC1)C=CC=N2", "physical_data": {"Molecular Weight": "253.27", "Molecular Formula": "C11H11NO4S", "Melting Point": "286 \u00b0C (decomp)"}}