{"cas_no": "1530-32-1", "cn_name": "\u4e59\u57fa\u4e09\u82ef\u57fa\u6eb4\u5316\u81a6", "en_name": ["Ethyltriphenylphosphonium bromide", "Phosphonium, ethyltriphenyl-, bromide (1:1)", "Phosphonium, ethyltriphenyl-, bromide", "Ethyltriphenylphosphonium bromide", "Triphenylethylphosphonium bromide", "TEP", "TEP (onium compound)", "SA 242"], "SMILES": "[P+](CC)(C1=CC=CC=C1)(C2=CC=CC=C2)C3=CC=CC=C3.[Br-]", "physical_data": {"Molecular Weight": "", "Molecular Formula": "C20H20P.Br", "Melting Point": "198-201 \u00b0C"}}