{"cas_no": "1531-77-7", "cn_name": "6,11-\u4e8c\u6c22\u4e8c\u82ef\u5e76[b,e]\u786b\u6742\u5353-11-\u916e", "en_name": ["Dibenzo[b,e]thiepin-11(6H)-one", "Dibenzo[b,e]thiepin-11(6H)-one", "Homothioxanthone", "6,11-Dihydro-11-oxodibenzo[b,e]thiepin", "6,11-Dihydrodibenzo[b,e]thiepin-11-one", "6,11-Dihydrodibenz[b,e]thiepin-11-one"], "SMILES": "O=C1C=2C(CSC=3C1=CC=CC3)=CC=CC2", "physical_data": {"Molecular Weight": "226.29", "Molecular Formula": "C14H10OS", "Boiling Point": "162-165 \u00b0C @ Press: 0.1 Torr", "Melting Point": "80-87 \u00b0C"}}