{"cas_no": "15318-45-3", "cn_name": "\u7532\u781c\u9709\u7d20", "en_name": ["Thiamphenicol", "Acetamide, 2,2-dichloro-N-[(1R,2R)-2-hydroxy-1-(hydroxymethyl)-2-[4-(methylsulfonyl)phenyl]ethyl]-", "Acetamide, 2,2-dichloro-N-[\u03b2-hydroxy-\u03b1-(hydroxymethyl)-p-(methylsulfonyl)phenethyl]-, D-threo-(+)-", "Acetamide, 2,2-dichloro-N-[2-hydroxy-1-(hydroxymethyl)-2-[4-(methylsulfonyl)phenyl]ethyl]-, [R-(R*,R*)]-", "2,2-Dichloro-N-[(1R,2R)-2-hydroxy-1-(hydroxymethyl)-2-[4-(methylsulfonyl)phenyl]ethyl]acetamide", "(Methylsulfonyl)chloramphenicol", "8065CB", "Win 5063-2", "Dextrosulphenidol", "D-d-threo-2-Dichloroacetamido-1-(4-methylsulfonylphenyl)-1,3-propanediol", "Thiamphenicol", "D-Thiocymetin", "D-Thiophenicol", "Thiocymetin", "Thiophenicol", "D-threo-(1R,2R)-1-(p-Methylsulfonylphenyl)-2-dichloroacetamido-1,3-propanediol", "(+)-Thiamphenicol", "NSC 522822", "Tirsan", "(2\u2032R,3\u2032R)-Thiamphenicol", "MeSH ID: D013839"], "SMILES": "C(C(NC(C(Cl)Cl)=O)CO)(O)C1=CC=C(S(C)(=O)=O)C=C1", "physical_data": {"Molecular Weight": "356.22", "Molecular Formula": "C12H15Cl2NO5S", "Melting Point": "165.3 \u00b0C", "Density": "1.55 g/cm\u00b3"}}