{"cas_no": "15310-01-7", "cn_name": "\u9ea6\u9508\u7075", "en_name": ["Benodanil", "Benzamide, 2-iodo-N-phenyl-", "Benzanilide, 2-iodo-", "2-Iodo-N-phenylbenzamide", "o-Iodobenzanilide", "2-Iodobenzanilide", "BAS 3170F", "Benodanil", "BAS 31702F", "Calirus", "BASF 31709F", "BAS 3170", "BAS 3172F", "BAS 31709", "BAS 31708F", "2-Iodobenzoic acid anilide", "BAS 31700F", "Benefit", "NSC 100499", "Benodanyl"], "SMILES": "C(NC1=CC=CC=C1)(=O)C2=C(I)C=CC=C2", "physical_data": {"Molecular Weight": "323.13", "Molecular Formula": "C13H10INO", "Melting Point": "137 \u00b0C"}}