{"cas_no": "1531-78-8", "cn_name": "2-\u6c2f\u7532\u57fa\u82ef\u7532\u9178\u4e59\u916f", "en_name": ["Benzoic acid, 2-(chloromethyl)-, ethyl ester", "Benzoic acid, 2-(chloromethyl)-, ethyl ester", "o-Toluic acid, \u03b1-chloro-, ethyl ester", "Ethyl 2-chloromethylbenzoate", "Ethyl o-chloromethylbenzoate", "2-Chloromethyl-benzoic acid ethyl ester"], "SMILES": "C(OCC)(=O)C1=C(CCl)C=CC=C1", "physical_data": {"Molecular Weight": "198.65", "Molecular Formula": "C10H11ClO2", "Boiling Point": "140 \u00b0C @ Press: 14 Torr"}}