{"cas_no": "15317-58-5", "cn_name": "\u5432\u54da-3-\u7532\u9170\u80bc", "en_name": ["1H-Indole-3-carboxylic acid hydrazide", "1H-Indole-3-carboxylic acid, hydrazide", "Indole-3-carboxylic acid, hydrazide", "1H-Indole-3-carboxylic acid hydrazide", "Indolyl-3-carbonyl hydrazide"], "SMILES": "C(NN)(=O)C=1C=2C(NC1)=CC=CC2", "physical_data": {"Molecular Weight": "175.19", "Molecular Formula": "C9H9N3O", "Melting Point": "224-226 \u00b0C (decomp)"}}