{"cas_no": "153197-14-9", "cn_name": "\u6076\u55ea\u8349\u916e", "en_name": ["Oxaziclomefone", "4H-1,3-Oxazin-4-one, 3-[1-(3,5-dichlorophenyl)-1-methylethyl]-2,3-dihydro-6-methyl-5-phenyl-", "3-[1-(3,5-Dichlorophenyl)-1-methylethyl]-2,3-dihydro-6-methyl-5-phenyl-4H-1,3-oxazin-4-one", "MY 100", "Oxaziclomefone", "MY 100 (pesticide)", "MGY 100", "Homerun", "Pat-Ful", "Pat-Ful Ace", "Tredy", "Samurai", "Fullhouse", "Sat-Ful", "Tredy Plus"], "SMILES": "O=C1C(=C(C)OCN1C(C)(C)C2=CC(Cl)=CC(Cl)=C2)C3=CC=CC=C3", "physical_data": {"Molecular Weight": "376.28", "Molecular Formula": "C20H19Cl2NO2", "Melting Point": "150 \u00b0C"}}