{"cas_no": "1531-18-6", "cn_name": "4-\u6c30\u57fa-2-\u4e59\u57fa\u5421\u5576", "en_name": ["2-Ethyl-4-pyridinecarbonitrile", "4-Pyridinecarbonitrile, 2-ethyl-", "Isonicotinonitrile, 2-ethyl-", "2-Ethyl-4-pyridinecarbonitrile", "4-Cyano-2-ethylpyridine", "2-Ethylisonicotinonitrile", "2-Ethyl-4-cyanopyridine"], "SMILES": "C(#N)C=1C=C(CC)N=CC1", "physical_data": {"Molecular Weight": "132.16", "Molecular Formula": "C8H8N2", "Boiling Point": "106-110 \u00b0C @ Press: 29 Torr"}}