{"cas_no": "15311-09-8", "cn_name": "2,5-\u53cc(4-\u5421\u5576)-1,3,4-\u567b\u4e8c\u5511", "en_name": ["4,4\u2032-(1,3,4-Thiadiazole-2,5-diyl)bis[pyridine]", "Pyridine, 4,4\u2032-(1,3,4-thiadiazole-2,5-diyl)bis-", "Pyridine, 4,4\u2032-(1,3,4-thiadiazole-2,5-diyl)di-", "1,3,4-Thiadiazole, 2,5-di-4-pyridyl-", "4,4\u2032-(1,3,4-Thiadiazole-2,5-diyl)bis[pyridine]", "NSC 34795", "2,5-Bis(4-pyridyl)-1,3,4-thiadiazole", "2,5-Di(4-pyridyl)-1,3,4-thiadiazole", "4-(5-(Pyridin-4-yl)-1,3,4-thiadiazol-2-yl)pyridine", "2,5-Di(pyridin-4-yl)-1,3,4-thiadiazole"], "SMILES": "C=1(SC(=NN1)C=2C=CN=CC2)C=3C=CN=CC3", "physical_data": {"Molecular Weight": "240.28", "Molecular Formula": "C12H8N4S", "Melting Point": "242 \u00b0C"}}