{"cas_no": "1532-84-9", "cn_name": "1-\u6c28\u57fa\u5f02\u55b9\u5549", "en_name": ["1-Isoquinolinamine", "1-Isoquinolinamine", "Isoquinoline, 1-amino-", "1-Aminoisoquinoline", "Isoquinolin-1-ylamine"], "SMILES": "NC=1C2=C(C=CN1)C=CC=C2", "physical_data": {"Molecular Weight": "144.17", "Molecular Formula": "C9H8N2", "Melting Point": "122-124 \u00b0C"}}