{"cas_no": "1532-97-4", "cn_name": "4-\u6eb4\u5f02\u55b9\u5549", "en_name": ["4-Bromoisoquinoline", "Isoquinoline, 4-bromo-", "4-Bromoisoquinoline", "NSC 56333", "4-Isoquinolinyl bromide"], "SMILES": "BrC=1C2=C(C=NC1)C=CC=C2", "physical_data": {"Molecular Weight": "208.05", "Molecular Formula": "C9H6BrN", "Boiling Point": "282.5 \u00b0C", "Melting Point": "41.5 \u00b0C"}}