{"cas_no": "153233-91-1", "cn_name": "\u4e59\u87a8\u5511", "en_name": ["Etoxazole", "Oxazole, 2-(2,6-difluorophenyl)-4-[4-(1,1-dimethylethyl)-2-ethoxyphenyl]-4,5-dihydro-", "2-(2,6-Difluorophenyl)-4-[4-(1,1-dimethylethyl)-2-ethoxyphenyl]-4,5-dihydrooxazole", "YI 5301", "Etoxazole", "Baroque", "TetraSan", "Borneo", "Zeal", "Yimanzuo"], "SMILES": "O(CC)C1=C(C2N=C(OC2)C3=C(F)C=CC=C3F)C=CC(C(C)(C)C)=C1", "physical_data": {"Molecular Weight": "359.41", "Molecular Formula": "C21H23F2NO2", "Melting Point": "101.5 \u00b0C"}}