{"cas_no": "15329-69-8", "cn_name": "N-\u82ef\u57fa\u9a6c\u6765\u9178", "en_name": ["(2Z)-4-Oxo-4-[(phenylmethyl)amino]-2-butenoic acid", "2-Butenoic acid, 4-oxo-4-[(phenylmethyl)amino]-, (2Z)-", "Maleamic acid, N-benzyl-", "2-Butenoic acid, 4-oxo-4-[(phenylmethyl)amino]-, (Z)-", "(2Z)-4-Oxo-4-[(phenylmethyl)amino]-2-butenoic acid", "N-Benzylmaleamic acid"], "SMILES": "C(NC(C=CC(O)=O)=O)C1=CC=CC=C1", "physical_data": {"Molecular Weight": "205.21", "Molecular Formula": "C11H11NO3", "Melting Point": "138 \u00b0C"}}