{"cas_no": "153254-09-2", "cn_name": "2,4-\u53cc\u4e09\u6c1f\u7532\u57fa\u82ef\u787c\u9178", "en_name": ["2,4-Bis(trifluoromethyl)phenylboronic acid", "Boronic acid, B-[2,4-bis(trifluoromethyl)phenyl]-", "Boronic acid, [2,4-bis(trifluoromethyl)phenyl]-", "B-[2,4-Bis(trifluoromethyl)phenyl]boronic acid", "2,4-Bis(trifluoromethyl)phenylboronic acid", "2,4-Bis(trifluoromethyl)benzeneboronic acid", "2,4-Di(trifluoromethyl)benzeneboronic acid", "[2\u2032,4\u2032-Bis(trifluoromethyl)phenyl]boronic acid", "(2,4-Ditrifluoromethylphenyl)boronic acid"], "SMILES": "C(F)(F)(F)C1=C(B(O)O)C=CC(C(F)(F)F)=C1", "physical_data": {"Molecular Weight": "257.93", "Molecular Formula": "C8H5BF6O2", "Melting Point": "109-110 \u00b0C"}}