{"cas_no": "1532-72-5", "cn_name": "\u5f02\u55b9\u5549-N-\u6c27\u5316\u7269", "en_name": ["Isoquinoline N-oxide", "Isoquinoline, 2-oxide", "Isoquinoline N-oxide", "Isoquinoline oxide", "NSC 153684", "2-Oxidoisoquinolin-2-ium"], "SMILES": "O=N1=CC2=C(C=C1)C=CC=C2", "physical_data": {"Molecular Weight": "145.16", "Molecular Formula": "C9H7NO", "Boiling Point": "179 \u00b0C @ Press: 3 Torr", "Melting Point": "103-105 \u00b0C"}}