{"cas_no": "15323-35-0", "cn_name": "5-\u4e59\u9170\u57fa-1,1,2,3,3,6-\u516d\u7532\u57fa-1,2-\u4e8c\u6c22\u5316\u831a", "en_name": ["Phantolide", "Ethanone, 1-(2,3-dihydro-1,1,2,3,3,6-hexamethyl-1H-inden-5-yl)-", "Ketone, 1,1,2,3,3,6-hexamethyl-5-indanyl methyl", "1-(2,3-Dihydro-1,1,2,3,3,6-hexamethyl-1H-inden-5-yl)ethanone", "6-Acetyl-1,1,2,3,3,5-hexamethylindan", "Phantolide", "Phantolid", "Musk phantolid", "6-Acetyl-1,1,2,3,3,5-hexamethylindane", "AHDI", "AHMI", "NSC 16827", "1-(1,1,2,3,3,6-Hexamethyl-2,3-dihydro-1H-inden-5-yl)ethan-1-one", "1-(1,1,2,3,3,6-Hexamethyl-2H-inden-5-yl)ethanone", "1-(1,1,2,3,3,6-Hexamethyl-2,3-dihydro-1H-inden-5-yl)ethanone"], "SMILES": "CC1(C)C=2C(C(C)(C)C1C)=CC(C)=C(C(C)=O)C2", "physical_data": {"Molecular Weight": "244.37", "Molecular Formula": "C17H24O", "Boiling Point": "336.6 \u00b0C", "Melting Point": "61.5 \u00b0C"}}