{"cas_no": "153259-65-5", "cn_name": "\u897f\u6d1b\u53f8\u7279", "en_name": ["Cilomilast", "Cyclohexanecarboxylic acid, 4-cyano-4-[3-(cyclopentyloxy)-4-methoxyphenyl]-, cis-", "cis-4-Cyano-4-[3-(cyclopentyloxy)-4-methoxyphenyl]cyclohexanecarboxylic acid", "cis-4-[3-(Cyclopentyloxy)-4-methoxyphenyl]-4-cyanocyclohexane-1-carboxylic acid", "SB 207499", "Ariflo", "Cilomilast"], "SMILES": "C(#N)C1(CCC(C(O)=O)CC1)C2=CC(OC3CCCC3)=C(OC)C=C2", "physical_data": {"Molecular Weight": "343.42", "Molecular Formula": "C20H25NO4", "Melting Point": "157 \u00b0C"}}