{"cas_no": "1533-45-5", "cn_name": "\u8367\u5149\u589e\u767d\u5242 OB-1", "en_name": ["4,4\u2032-Bis(2-benzoxazolyl)stilbene", "Benzoxazole, 2,2\u2032-(1,2-ethenediyldi-4,1-phenylene)bis-", "Benzoxazole, 2,2\u2032-(vinylenedi-p-phenylene)bis-", "2,2\u2032-(1,2-Ethenediyldi-4,1-phenylene)bis[benzoxazole]", "p,p\u2032-Bis(2-benzoxazolyl)stilbene", "2,2\u2032-(Vinylenedi-p-phenylene)bisbenzoxazole", "4,4\u2032-Di(benzoxazol-2-yl)stilbene", "4,4\u2032-Bis(2-benzoxazolyl)stilbene", "Optical Brightener 1", "C.I. 40674", "Fluorescent Brightener 393", "C.I. Fluorescent Brightener 393", "Eastobrite OB 1", "OB 1", "Uvitex OB 1", "Uvitex OB-ONE", "Eastobrite OB 3", "TM", "TM (UV stabilizer)", "Benetex OB 1", "2,2\u2032-(1,2-Ethenediyl)bis(4,1-phenylene)bisbenzoxazole", "Fluorescent brightener OB 1", "1,2-Bis(4-(benzo[d]oxazol-2-yl)phenyl)ethene", "2-[4-[2-[4-(1,3-Benzoxazol-2-yl)phenyl]ethenyl]phenyl]-1,3-benzoxazole", "Benetex OB 1HP", "Rylux OB 1"], "SMILES": "C(=CC1=CC=C(C=C1)C2=NC=3C(O2)=CC=CC3)C4=CC=C(C5=NC=6C(O5)=CC=CC6)C=C4", "physical_data": {"Molecular Weight": "414.45", "Molecular Formula": "C28H18N2O2", "Melting Point": "365-368 \u00b0C"}}