{"cas_no": "15336-98-8", "cn_name": "\u5df1\u4e8c\u70ef\u4e8c\u4e01\u57fa\u9521", "en_name": ["Dibutyldi-2-propen-1-ylstannane", "Stannane, dibutyldi-2-propen-1-yl-", "Stannane, dibutyldi-2-propenyl-", "Tin, diallyldibutyl-", "Dibutyldi-2-propen-1-ylstannane", "Diallyldibutylstannane", "Diallyldibutyltin", "NSC 203241"], "SMILES": "[Sn](CCCC)(CCCC)(CC=C)CC=C", "physical_data": {"Molecular Weight": "315.08", "Molecular Formula": "C14H28Sn", "Boiling Point": "93 \u00b0C @ Press: 0.1 Torr", "Density": "1.0999 g/cm\u00b3 @ Temp: 25 \u00b0C"}}