{"cas_no": "15332-99-7", "cn_name": "\u4e59\u70ef\u4e09[(1-\u7532\u57fa\u4e59\u70ef\u57fa)\u6c27]\u7845\u70f7", "en_name": ["Vinyltriisopropenoxysilane", "Silane, ethenyltris[(1-methylethenyl)oxy]-", "Silane, tris(isopropenyloxy)vinyl-", "Ethenyltris[(1-methylethenyl)oxy]silane", "Tris(isopropenyloxy)vinylsilane", "Vinyltris(isopropenyloxy)silane", "Tri(isopropenoxy)vinylsilane", "Vinyltriisopropenoxysilane", "Vinyltris(isopropenoxy)silane", "Vinyltriisopropenyloxysilane", "SIV 9209.0", "LS 3975"], "SMILES": "[Si](OC(C)=C)(OC(C)=C)(OC(C)=C)C=C", "physical_data": {"Molecular Weight": "226.34", "Molecular Formula": "C11H18O3Si", "Boiling Point": "73-75 \u00b0C @ Press: 12 Torr", "Density": "0.926 g/cm\u00b3"}}