{"cas_no": "1534-27-6", "cn_name": "3-\u5341\u4e8c\u916e", "en_name": ["3-Dodecanone", "3-Dodecanone", "Ethyl nonyl ketone", "NSC 158522"], "SMILES": "C(CCCCCCCC)C(CC)=O", "physical_data": {"Molecular Weight": "184.32", "Molecular Formula": "C12H24O", "Boiling Point": "129-130 \u00b0C @ Press: 18 Torr", "Melting Point": "18-19 \u00b0C"}}