{"cas_no": "153433-26-2", "cn_name": "2-\u6c2f-1,3-\u4e8c\u7532\u57fa\u54aa\u5511\u56db\u6c1f\u787c\u9178\u76d0", "en_name": ["1H-Imidazolium, 2-chloro-4,5-dihydro-1,3-dimethyl-, tetrafluoroborate(1-) (1:1)", "1H-Imidazolium, 2-chloro-4,5-dihydro-1,3-dimethyl-, tetrafluoroborate(1-) (1:1)", "1H-Imidazolium, 2-chloro-4,5-dihydro-1,3-dimethyl-, tetrafluoroborate(1-)", "2-Chloro-1,3-dimethylimidazolidium tetrafluoroborate", "2-Chloro-1,3-dimethyl-4,5-dihydroimidazolium tetrafluoroborate", "2-Chloro-1,3-dimethylimidazolidinium tetrafluoroborate"], "SMILES": "[B+3]([F-])([F-])([F-])[F-].ClC1=[N+](C)CCN1C", "physical_data": {"Molecular Weight": "", "Molecular Formula": "C5H10ClN2.BF4", "Melting Point": "140-150 \u00b0C"}}