{"cas_no": "15345-89-8", "cn_name": "\u53bb\u7532\u6c27\u57fa\u9189\u6912\u7d20", "en_name": ["Desmethoxyyangonin", "2H-Pyran-2-one, 4-methoxy-6-[(1E)-2-phenylethenyl]-", "2H-Pyran-2-one, 4-methoxy-6-styryl-, (E)-", "2H-Pyran-2-one, 4-methoxy-6-(2-phenylethenyl)-, (E)-", "Yangonin, demethoxy-", "4-Methoxy-6-[(1E)-2-phenylethenyl]-2H-pyran-2-one", "trans-5,6-Dehydrokawain", "5,6-Dehydrokawain", "Demethoxyyangonin", "5,6-Dehydrokavain", "Desmethoxyyangonin", "NSC 112161", "NSC 68686", "5,6-Dihydrokawain"], "SMILES": "C(=CC1=CC=CC=C1)C2=CC(OC)=CC(=O)O2", "physical_data": {"Molecular Weight": "228.24", "Molecular Formula": "C14H12O3", "Melting Point": "133-134 \u00b0C"}}