{"cas_no": "1534-08-3", "cn_name": "\u786b\u4ee3\u4e59\u9178\u7532\u916f", "en_name": ["S-Methyl thioacetate", "Ethanethioic acid, S-methyl ester", "Acetic acid, thio-, S-methyl ester", "S-Methyl thioacetate", "Methanethiol acetate", "S-Methyl ethanethioate", "S-Methylthioacetic acid", "1-(Methylsulfanyl)ethan-1-one"], "SMILES": "C(SC)(C)=O", "physical_data": {"Molecular Weight": "90.14", "Molecular Formula": "C3H6OS", "Boiling Point": "98 \u00b0C @ Press: 760 Torr", "Density": "1.0170 g/cm\u00b3 @ Temp: 25 \u00b0C"}}