{"cas_no": "153436-54-5", "cn_name": "4-[(3-\u6eb4\u82ef\u57fa)\u6c28\u57fa]-6,7-\u4e8c\u7532\u6c27\u57fa\u55b9\u5549", "en_name": ["4-(3-Bromophenylamino)-6,7-dimethoxyquinazoline", "4-Quinazolinamine, N-(3-bromophenyl)-6,7-dimethoxy-", "N-(3-Bromophenyl)-6,7-dimethoxy-4-quinazolinamine", "PD 153035", "4-(3-Bromophenylamino)-6,7-dimethoxyquinazoline", "WHI-P 79", "AG 1517", "SU 5271", "4-(3-Bromophenylamino)-6,7-bis(methoxy)quinazoline", "NSC 669364", "(3-Bromophenyl)(6,7-dimethoxyquinazolin-4-yl)amine", "GI 230329A", "AG1571", "AG 1571"], "SMILES": "N(C=1C2=C(C=C(OC)C(OC)=C2)N=CN1)C3=CC(Br)=CC=C3", "physical_data": {"Molecular Weight": "360.21", "Molecular Formula": "C16H14BrN3O2", "Melting Point": "189-190 \u00b0C"}}