{"cas_no": "15341-08-9", "cn_name": "6-\u785d\u57fa-3,4-\u4e9a\u7532\u57fa\u4e8c\u6c27\u82c4\u4e59\u9187", "en_name": ["6-Nitro-1,3-benzodioxole-5-methanol", "1,3-Benzodioxole-5-methanol, 6-nitro-", "Piperonyl alcohol, 6-nitro-", "6-Nitro-1,3-benzodioxole-5-methanol", "4,5-Methylenedioxy-2-nitrobenzyl alcohol", "6-Nitropiperonyl alcohol", "(6-Nitro-2H-1,3-benzodioxol-5-yl)methanol", "3,4-Methylenedioxy-6-nitrobenzyl alcohol"], "SMILES": "C(O)C=1C=C2C(=CC1N(=O)=O)OCO2", "physical_data": {"Molecular Weight": "197.14", "Molecular Formula": "C8H7NO5", "Melting Point": "122-123 \u00b0C"}}