{"cas_no": "15358-48-2", "cn_name": "13-\u7f9f\u57fa\u7fbd\u6247\u8c46\u9e7c", "en_name": ["Hydroxylupanine", "7,14-Methano-2H,11H-dipyrido[1,2-a:1\u2032,2\u2032-e][1,5]diazocin-11-one, dodecahydro-2-hydroxy-, (2S,7S,7aR,14S,14aS)-", "Lupanine, 13\u03b1-hydroxy-", "Lupanine, 13-hydroxy-", "Lupanine, hydroxy-", "7,14-Methano-2H,11H-dipyrido[1,2-a:1\u2032,2\u2032-e][1,5]diazocin-11-one, dodecahydro-2-hydroxy-, [2S-(2\u03b1,7\u03b2,7a\u03b2,14\u03b2,14a\u03b1)]-", "(2S,7S,7aR,14S,14aS)-Dodecahydro-2-hydroxy-7,14-methano-2H,11H-dipyrido[1,2-a:1\u2032,2\u2032-e][1,5]diazocin-11-one", "7,14-Methano-4H,6H-dipyrido[1,2-a:1\u2032,2\u2032-e][1,5]diazocin-4-one, dodecahydro-9-hydroxy-, [7S-(7\u03b1,7a\u03b2,9\u03b2,14\u03b1,14a\u03b1)]-", "Hydroxylupanine", "13-Hydroxylupanine", "13\u03b1-Hydroxylupanine", "Oxylupanine", "13-Hydroxylupanin", "(+)-13-Hydroxylupanine", "Hydroxylupanin", "(+)-13\u03b1-Hydroxylupanine", "NSC 70827", "13\u03b1-Hydroxy-2-oxosparteine"], "SMILES": "OC1CC2C3CC(CN2CC1)C4N(C3)C(=O)CCC4", "physical_data": {"Molecular Weight": "264.36", "Molecular Formula": "C15H24N2O2", "Boiling Point": "180-195 \u00b0C @ Press: 0.3 Torr", "Melting Point": "173-174 \u00b0C"}}