{"cas_no": "1535-73-5", "cn_name": "3-\u4e09\u6c1f\u7532\u6c27\u57fa\u82ef\u80fa", "en_name": ["3-(Trifluoromethoxy)aniline", "Benzenamine, 3-(trifluoromethoxy)-", "m-Anisidine, \u03b1,\u03b1,\u03b1-trifluoro-", "3-(Trifluoromethoxy)benzenamine", "m-(Trifluoromethoxy)aniline", "3-(Trifluoromethoxy)aniline", "(3-(Trifluoromethoxy)phenyl)amine", "3-[(Trifluoromethyl)oxy]aniline", "1-Trifluoromethoxy-3-aminobenzene"], "SMILES": "O(C(F)(F)F)C1=CC(N)=CC=C1", "physical_data": {"Molecular Weight": "177.12", "Molecular Formula": "C7H6F3NO", "Boiling Point": "72-73 \u00b0C @ Press: 8 Torr", "Density": "1.3254 g/cm\u00b3 @ Temp: 20 \u00b0C"}}