{"cas_no": "1535-75-7", "cn_name": "\u90bb\u6c28\u57fa\u4e09\u6c1f\u7532\u6c27\u57fa\u82ef", "en_name": ["2-Trifluoromethoxyaniline", "Benzenamine, 2-(trifluoromethoxy)-", "o-Anisidine, \u03b1,\u03b1,\u03b1-trifluoro-", "2-(Trifluoromethoxy)benzenamine", "o-(Trifluoromethoxy)aniline", "2-Trifluoromethoxyaniline", "2-Trifluoromethoxyphenylamine", "o-(Trifluoromethoxy)phenylamine", "2-(Trifluoromethyloxy)aniline"], "SMILES": "O(C(F)(F)F)C1=C(N)C=CC=C1", "physical_data": {"Molecular Weight": "177.12", "Molecular Formula": "C7H6F3NO", "Boiling Point": "56 \u00b0C @ Press: 11 Torr"}}