{"cas_no": "153559-49-0", "cn_name": "\u84d3\u8428\u7f57\u4e01", "en_name": ["Bexarotene", "Benzoic acid, 4-[1-(5,6,7,8-tetrahydro-3,5,5,8,8-pentamethyl-2-naphthalenyl)ethenyl]-", "4-[1-(5,6,7,8-Tetrahydro-3,5,5,8,8-pentamethyl-2-naphthalenyl)ethenyl]benzoic acid", "LGD 1069", "LG 1069", "LG 100069", "Bexarotene", "Targrexin", "Targretyn", "RO 26-4455", "LG 69", "Targretin", "LG 69 (retinoid)", "Targret", "SR 11247"], "SMILES": "CC1(C)C=2C(C(C)(C)CC1)=CC(C)=C(C(=C)C3=CC=C(C(O)=O)C=C3)C2", "physical_data": {"Molecular Weight": "348.48", "Molecular Formula": "C24H28O2", "Melting Point": "224-226 \u00b0C"}}