{"cas_no": "1535-67-7", "cn_name": "\u4e8c\u6c1f\u7532\u57fa\u82ef\u786b\u919a", "en_name": ["[(Difluoromethyl)thio]benzene", "Benzene, [(difluoromethyl)thio]-", "Sulfide, difluoromethyl phenyl", "[(Difluoromethyl)thio]benzene", "Difluoromethyl phenyl sulfide", "(Difluoromethylthio)benzene", "Phenyl difluoromethyl sulfide", "Difluoro(phenylsulfanyl)methane", "[(Difluoromethyl)sulfanyl]benzene", "(Difluoromethyl)(phenyl)sulfane"], "SMILES": "S(C(F)F)C1=CC=CC=C1", "physical_data": {"Molecular Weight": "160.18", "Molecular Formula": "C7H6F2S", "Boiling Point": "62-63 \u00b0C @ Press: 7 Torr"}}