{"cas_no": "15356-70-4", "cn_name": "DL-\u8584\u8377\u9187", "en_name": ["(\u00b1)-Menthol", "Cyclohexanol, 5-methyl-2-(1-methylethyl)-, (1R,2S,5R)-rel-", "Menthol, cis-1,3,trans-1,4-", "Cyclohexanol, 5-methyl-2-(1-methylethyl)-, (1\u03b1,2\u03b2,5\u03b1)-", "Menthol, dl-", "rel-(1R,2S,5R)-5-Methyl-2-(1-methylethyl)cyclohexanol", "Hexahydrothymol", "Menthacamphor", "Menthomenthol", "Peppermint camphor", "Menthol", "Racemic menthol", "dl-Menthol", "(\u00b1)-Menthol", "Racementhol", "rac-Menthol", "(1R,2S,5R)-rel-5-Methyl-2-(1-methylethyl)cyclohexanol", "Fisherman's Friend Lozenges", "Therapeutic Mineral Ice", "NSC 2603", "Thymomenthol", "DL-Menthol", "Meggezone", "MENTHOL JP COS SP", "FT 11"], "SMILES": "C(C)(C)C1C(O)CC(C)CC1", "physical_data": {"Molecular Weight": "156.27", "Molecular Formula": "C10H20O", "Boiling Point": "212 \u00b0C", "Melting Point": "41-43 \u00b0C", "Density": "0.890 g/cm\u00b3"}}