{"cas_no": "153559-76-3", "cn_name": "6-[1-(5,6,7,8-\u56db\u6c22-3,5,5,8,8-\u4e94\u7532\u57fa-2-\u8418\u57fa)\u73af\u4e19\u57fa]-3-\u5421\u5576\u7fa7\u9178", "en_name": ["6-[1-(5,6,7,8-Tetrahydro-3,5,5,8,8-pentamethyl-2-naphthalenyl)cyclopropyl]-3-pyridinecarboxylic acid", "3-Pyridinecarboxylic acid, 6-[1-(5,6,7,8-tetrahydro-3,5,5,8,8-pentamethyl-2-naphthalenyl)cyclopropyl]-", "6-[1-(5,6,7,8-Tetrahydro-3,5,5,8,8-pentamethyl-2-naphthalenyl)cyclopropyl]-3-pyridinecarboxylic acid", "LG 100268", "CD 3127", "LGD 100268", "LG 268", "LGD 1268", "ALRT 268", "AGN 192620"], "SMILES": "CC1=C(C2(CC2)C3=CC=C(C(O)=O)C=N3)C=C4C(=C1)C(C)(C)CCC4(C)C", "physical_data": {"Molecular Weight": "363.49", "Molecular Formula": "C24H29NO2", "Melting Point": "273-274 \u00b0C"}}