{"cas_no": "153559-45-6", "cn_name": "4-[(5,6,7,8-\u56db\u6c22-3,5,5,8,8-\u4e94\u7532\u57fa-2-\u8418\u57fa)\u7fb0\u57fa]\u82ef\u7532\u9178\u7532\u916f", "en_name": ["Methyl 4-[(5,6,7,8-tetrahydro-3,5,5,8,8-pentamethyl-2-naphthalenyl)carbonyl]benzoate", "Benzoic acid, 4-[(5,6,7,8-tetrahydro-3,5,5,8,8-pentamethyl-2-naphthalenyl)carbonyl]-, methyl ester", "Methyl 4-[(5,6,7,8-tetrahydro-3,5,5,8,8-pentamethyl-2-naphthalenyl)carbonyl]benzoate", "Methyl 4-[(5,6,7,8-tetrahydro-3,5,5,8,8-pentamethyl-2-naphthyl)carbonyl]benzoate"], "SMILES": "CC1(C)C=2C(=CC(C)=C(C(=O)C3=CC=C(C(OC)=O)C=C3)C2)C(C)(C)CC1", "physical_data": {"Molecular Weight": "364.48", "Molecular Formula": "C24H28O3", "Melting Point": "143-144 \u00b0C"}}