{"cas_no": "15356-60-2", "cn_name": "D-\u8584\u8377\u9187", "en_name": ["(+)-Menthol", "Cyclohexanol, 5-methyl-2-(1-methylethyl)-, (1S,2R,5S)-", "Cyclohexanol, 5-methyl-2-(1-methylethyl)-, [1S-(1\u03b1,2\u03b2,5\u03b1)]-", "Menthol, (1S,3S,4R)-(+)-", "(1S,2R,5S)-5-Methyl-2-(1-methylethyl)cyclohexanol", "(+)-Menthol", "d-Menthol", "(1S,2R,5S)-Menthol", "(1S,2R,5S)-(+)-Menthol", "D-Menthol", "(1S,2R,5S)-2-Isopropyl-5-methylcyclohexanol", "D-Menthol"], "SMILES": "C(C)(C)C1C(O)CC(C)CC1", "physical_data": {"Molecular Weight": "156.27", "Molecular Formula": "C10H20O", "Melting Point": "42-44 \u00b0C"}}