{"cas_no": "15351-13-0", "cn_name": "\u70df\u544b\u7cd6\u916f", "en_name": ["Nicofuranose", "\u03b2-D-Fructofuranose, 1,3,4,6-tetra-3-pyridinecarboxylate", "Fructofuranose, 1,3,4,6-tetranicotinate, \u03b2-D-", "Nicofuranose", "Bradilan", "1,3,4,6-Tetranicotinoylfructofuranose", "Buclidan", "Cardilan", "ES 304", "Vasperdil", "Cardilan (ester)", "L-Nicofuranosum"], "SMILES": "O(C(=O)C=1C=CC=NC1)C2C(OC(=O)C=3C=CC=NC3)C(COC(=O)C=4C=CC=NC4)OC2(COC(=O)C=5C=CC=NC5)O", "physical_data": {"Molecular Weight": "600.53", "Molecular Formula": "C30H24N4O10", "Melting Point": "141 \u00b0C"}}