{"cas_no": "15356-74-8", "cn_name": "\u4e8c\u6c22\u7315\u7334\u6843\u5185\u916f", "en_name": ["5,6,7,7a-Tetrahydro-4,4,7a-trimethyl-2(4H)-benzofuranone", "2(4H)-Benzofuranone, 5,6,7,7a-tetrahydro-4,4,7a-trimethyl-", "5,6,7,7a-Tetrahydro-4,4,7a-trimethyl-2(4H)-benzofuranone", "2-Hydroxy-2,6,6-trimethylcyclohexylidene-1-acetic acid lactone", "(2,6,6-Trimethyl-2-hydroxycyclohexylidene)acetic acid lactone", "2,4,5,6,7,7a-Hexahydro-4,4,7a-trimethylbenzofuran-2-one", "4,5,7,7a-Tetrahydro-4,4,7a-trimethyl-2(6H)-benzofuranone", "9-Oxa-1,5,5-trimethylbicyclo[4.3.0]non-6-en-8-one", "Dihydroactinolide", "(\u00b1)-Dihydroactinidiolide", "Dihydroactindiolide", "5,8,7,7-Tetrahydro-4,4,7a-trimethyl-\u03b1-benzofuranone", "5,6,7,7\u03b1-Tetrahydro-4,4,7\u03b1-trimethyl-2(4H)-benzofuranone"], "SMILES": "CC12C(=CC(=O)O1)C(C)(C)CCC2", "physical_data": {"Molecular Weight": "180.24", "Molecular Formula": "C11H16O2", "Boiling Point": "63 \u00b0C @ Press: 0.01 Torr", "Melting Point": "40-41 \u00b0C"}}