{"cas_no": "153556-42-4", "cn_name": "4-\u6eb4-3-\u6c1f\u82ef\u7532\u9178", "en_name": ["4-Bromo-3-fluorobenzoic acid", "Benzoic acid, 4-bromo-3-fluoro-", "4-Bromo-3-fluorobenzoic acid", "3-Fluoro-4-bromobenzoic acid"], "SMILES": "C(O)(=O)C1=CC(F)=C(Br)C=C1", "physical_data": {"Molecular Weight": "219.01", "Molecular Formula": "C7H4BrFO2", "Melting Point": "190-192 \u00b0C"}}