{"cas_no": "1536-23-8", "cn_name": "2,3,4,5,6-\u4e94\u6c1f\u82ef\u7532\u916e", "en_name": ["2,3,4,5,6-Pentafluorobenzophenone", "Methanone, (2,3,4,5,6-pentafluorophenyl)phenyl-", "Benzophenone, 2,3,4,5,6-pentafluoro-", "Methanone, (pentafluorophenyl)phenyl-", "(2,3,4,5,6-Pentafluorophenyl)phenylmethanone", "2,3,4,5,6-Pentafluorobenzophenone", "Benzoylpentafluorobenzene", "(Perfluorophenyl)(phenyl)methanone", "(Pentafluorophenyl)(phenyl)methanone"], "SMILES": "C(=O)(C1=C(F)C(F)=C(F)C(F)=C1F)C2=CC=CC=C2", "physical_data": {"Molecular Weight": "272.17", "Molecular Formula": "C13H5F5O", "Boiling Point": "93 \u00b0C", "Melting Point": "37 \u00b0C"}}