{"cas_no": "15364-56-4", "cn_name": "(\u4e8c\u7532\u80fa\u57fa)\u4e19\u916e", "en_name": ["(Dimethylamino)acetone", "2-Propanone, 1-(dimethylamino)-", "2-Propanone, (dimethylamino)-", "1-(Dimethylamino)-2-propanone", "N,N-Dimethylaminoacetone", "(Dimethylamino)acetone", "1-Dimethylaminoacetone", "Acetonyldimethylamine", "\u03b1-(N,N-Dimethylamino)propanone", "Diethylaminomethyl methyl ketone", "NSC 96617", "N,N-Dimethylamino-2-propanone"], "SMILES": "C(C(C)=O)N(C)C", "physical_data": {"Molecular Weight": "101.15", "Molecular Formula": "C5H11NO", "Boiling Point": "35-36 \u00b0C @ Press: 25 Torr", "Density": "0.8688 g/cm\u00b3 @ Temp: 20 \u00b0C"}}