{"cas_no": "15362-40-0", "cn_name": "1-(2,6-\u4e8c\u6c2f\u82ef\u57fa)-1,3-\u4e8c\u6c22-2H-\u5432\u54da-2-\u916e", "en_name": ["1-(2,6-Dichlorophenyl)indolin-2-one", "2H-Indol-2-one, 1-(2,6-dichlorophenyl)-1,3-dihydro-", "2-Indolinone, 1-(2,6-dichlorophenyl)-", "1-(2,6-Dichlorophenyl)-1,3-dihydro-2H-indol-2-one", "1-(2,6-Dichlorophenyl)-2-indolinone", "1-(2,6-Dichlorophenyl)oxindole", "N-(2,6-Dichlorophenyl)-2-indolinone", "NSC 621845", "1-[2,6-Dichlorophenyl]-1,3-dihydroindol-2-one", "1-(2,6-Dichlorophenyl)indolin-2-one", "Diclofenac-lactam"], "SMILES": "O=C1N(C=2C(C1)=CC=CC2)C3=C(Cl)C=CC=C3Cl", "physical_data": {"Molecular Weight": "278.13", "Molecular Formula": "C14H9Cl2NO", "Melting Point": "128 \u00b0C"}}