{"cas_no": "15371-06-9", "cn_name": "3-\u4e59\u9170\u6c28\u57fa\u90bb\u82ef\u4e8c\u7532\u9178", "en_name": ["3-(Acetylamino)-1,2-benzenedicarboxylic acid", "1,2-Benzenedicarboxylic acid, 3-(acetylamino)-", "Phthalic acid, 3-acetamido-", "3-(Acetylamino)-1,2-benzenedicarboxylic acid", "3-Acetamidobenzene-1,2-dicarboxylic acid", "3-Acetamidophthalic acid", "3-Acetylamino-phthalic acid"], "SMILES": "C(O)(=O)C1=C(C(O)=O)C=CC=C1NC(C)=O", "physical_data": {"Molecular Weight": "223.18", "Molecular Formula": "C10H9NO5", "Melting Point": "260 \u00b0C"}}