{"cas_no": "153733-75-6", "cn_name": "2-\u7532\u57fa-7-\u82ef\u57fa\u831a", "en_name": ["2-Methyl-7-phenylindene", "1H-Indene, 2-methyl-7-phenyl-", "2-Methyl-7-phenyl-1H-indene", "2-Methyl-7-phenylindene"], "SMILES": "CC=1CC2=C(C=CC=C2C1)C3=CC=CC=C3", "physical_data": {"Molecular Weight": "206.28", "Molecular Formula": "C16H14", "Boiling Point": "138-140 \u00b0C @ Press: 1 mmHg"}}