{"cas_no": "153719-23-4", "cn_name": "\u567b\u866b\u55ea", "en_name": ["Thiamethoxam", "4H-1,3,5-Oxadiazin-4-imine, 3-[(2-chloro-5-thiazolyl)methyl]tetrahydro-5-methyl-N-nitro-", "3-[(2-Chloro-5-thiazolyl)methyl]tetrahydro-5-methyl-N-nitro-4H-1,3,5-oxadiazin-4-imine", "CGA 293343", "Thiamethoxam", "Cruiser", "Adage 5FS", "Adage", "Actara", "Actara 25WG", "Actara 2GR", "Diacloden", "Centric", "Platinum (insecticide)", "Flagship", "Meridian", "Cruiser A 9765", "A 9765N", "A 97565N", "WS 70", "FS 350", "FS 600", "WS 70 (insecticide)", "FS 600 (insecticide)", "Cruiser 350FS", "Cruiser 5FS", "Xamox", "Platinum 240SC", "Optigard", "Cruiser 600FS", "Actara 500WG", "Pelexam", "Cruiser 60 FS", "3-[(2-Chloro-5-thiazolyl)methyl]-5-methyl-4-nitroiminotetrahydro-1,3,5-oxadiazine", "Tricon"], "SMILES": "C(N1C(=NN(=O)=O)N(C)COC1)C=2SC(Cl)=NC2", "physical_data": {"Molecular Weight": "291.71", "Molecular Formula": "C8H10ClN5O3S", "Melting Point": "140-142 \u00b0C"}}