{"cas_no": "153723-40-1", "cn_name": "3-\u6c30\u57fa\u4e19\u57fa\u7532\u57fa\u4e8c\u7532\u6c27\u57fa\u7845\u70f7", "en_name": ["4-(Dimethoxymethylsilyl)butanenitrile", "Butanenitrile, 4-(dimethoxymethylsilyl)-", "4-(Dimethoxymethylsilyl)butanenitrile", "(3-Cyanopropyl)(methyl)dimethoxysilane"], "SMILES": "[Si](CCCC#N)(OC)(OC)C", "physical_data": {"Molecular Weight": "173.29", "Molecular Formula": "C7H15NO2Si", "Boiling Point": "82-83 \u00b0C @ Press: 3 Torr", "Density": "0.997 g/cm\u00b3"}}