{"cas_no": "153719-38-1", "cn_name": "3-\u7532\u57fa-4-\u785d\u57fa\u4e9a\u80fa\u56db\u6c22-1,3,5-\u6076\u4e8c\u55ea", "en_name": ["3,6-Dihydro-3-methyl-N-nitro-2H-1,3,5-oxadiazin-4-amine", "2H-1,3,5-Oxadiazin-4-amine, 3,6-dihydro-3-methyl-N-nitro-", "3,6-Dihydro-3-methyl-N-nitro-2H-1,3,5-oxadiazin-4-amine", "3-Methyl-4-nitroimino-tetrahydro-1,3,5-oxadiazine", "3-Methyl-N-nitro-3,6-dihydro-2H-1,3,5-oxadiazin-4-amine"], "SMILES": "N(N(=O)=O)C=1N(C)COCN1", "physical_data": {"Molecular Weight": "160.13", "Molecular Formula": "C4H8N4O3", "Melting Point": "141-143 \u00b0C"}}