{"cas_no": "15385-57-6", "cn_name": "\u7898\u5316\u6c5e", "en_name": ["Mercury iodide (Hg2I2)", "Mercury iodide (Hg2I2)", "Mercurous iodide", "Yellow mercury iodide", "Mercury protoiodide", "Dimercury diiodide"], "SMILES": "[Hg]([Hg]I)I", "physical_data": {"Molecular Weight": "", "Molecular Formula": "Hg2I2", "Melting Point": "290 \u00b0C", "Density": "7.70 g/cm\u00b3"}}