{"cas_no": "153813-70-8", "cn_name": "3-\u785d\u57fa-4-\u5421\u5576\u919b", "en_name": ["3-Nitro-4-pyridinecarboxaldehyde", "4-Pyridinecarboxaldehyde, 3-nitro-", "3-Nitro-4-pyridinecarboxaldehyde", "3-Nitroisonicotinaldehyde", "3-Nitropyridine-4-carbaldehyde"], "SMILES": "C(=O)C=1C(N(=O)=O)=CN=CC1", "physical_data": {"Molecular Weight": "152.11", "Molecular Formula": "C6H4N2O3", "Melting Point": "53-54 \u00b0C"}}