{"cas_no": "15384-37-9", "cn_name": "D-\u6728\u7cd6-1,4-\u5185\u916f", "en_name": ["D-Xylono-1,4-lactone", "D-Xylonic acid, \u03b3-lactone", "Xylonic acid, \u03b3-lactone, D-", "D-Xylono-1,4-lactone", "D-Xylono-\u03b3-lactone"], "SMILES": "C(O)C1C(O)C(O)C(=O)O1", "physical_data": {"Molecular Weight": "148.11", "Molecular Formula": "C5H8O5", "Melting Point": "97 \u00b0C"}}