{"cas_no": "1538-09-6", "cn_name": "\u82c4\u661f\u9752\u9709\u7d20 G", "en_name": ["Benzathine penicillin", "4-Thia-1-azabicyclo[3.2.0]heptane-2-carboxylic acid, 3,3-dimethyl-7-oxo-6-[(2-phenylacetyl)amino]- (2S,5R,6R)-, compd. with N1,N2-bis(phenylmethyl)-1,2-ethanediamine (2:1)", "4-Thia-1-azabicyclo[3.2.0]heptane-2-carboxylic acid, 3,3-dimethyl-7-oxo-6-(2-phenylacetamido)-, compd. with N,N\u2032-dibenzylethylenediamine (2:1)", "4-Thia-1-azabicyclo[3.2.0]heptane-2-carboxylic acid, 3,3-dimethyl-7-oxo-6-[(phenylacetyl)amino]- [2S-(2\u03b1,5\u03b1,6\u03b2)]-, compd. with N,N\u2032-bis(phenylmethyl)-1,2-ethanediamine (2:1)", "Penicillin G, N,N\u2032-dibenzylethylenediamine salt", "4-Thia-1-azabicyclo[3.2.0]heptane-2-carboxylic acid, 3,3-dimethyl-7-oxo-6-[(phenylacetyl)amino]- (2S,5R,6R)-, compd. with N,N\u2032-bis(phenylmethyl)-1,2-ethanediamine (2:1)", "Ethylenediamine, N,N\u2032-dibenzyl-, bis[3,3-dimethyl-7-oxo-6-(2-phenylacetamido)-4-thia-1-azabicyclo[3.2.0]heptane-2-carboxylate]", "1,2-Ethanediamine, N,N\u2032-bis(phenylmethyl)-, bis[[2S-(2\u03b1,5\u03b1,6\u03b2)]-3,3-dimethyl-7-oxo-6-[(phenylacetyl)amino]-4-thia-1-azabicyclo[3.2.0]heptane-2-carboxylate]", "1,2-Ethanediamine, N,N\u2032-bis(phenylmethyl)-, bis[(2S,5R,6R)-3,3-dimethyl-7-oxo-6-[(phenylacetyl)amino]-4-thia-1-azabicyclo[3.2.0]heptane-2-carboxylate]", "Benzathine benzylpenicillin", "Benzathine penicillin G", "Benzethacil", "Benzylpenicillin dibenzylethylenediamine salt", "Bicillin", "Cepacilina", "Cillenta", "Debecillin", "Debecylina", "Diamine penicillin", "Dibencil", "Dibencillin", "N,N\u2032-Dibenzylethylenediamine bis[benzyl penicillin]", "N,N\u2032-Dibenzylethylenediamine salt of benzylpenicillin", "Duropenin", "Ethylenediamine, N,N\u2032-dibenzyl-, compd. with penicillin G (1:2)", "Extenicilline", "Longacilina", "Longicil", "Neolin", "Penadur", "Pendepon", "Pen-Di-Ben", "Penditan", "Penduran", "Penicillin G, compd. with N,N\u2032-dibenzylethylenediamine (2:1)", "Penidural", "Penidure", "Permapen", "Tardocillin", "Benzacillin", "Moldamin", "Dibenzylethylenediamine dipenicillin G", "Beacillin", "Megacillin suspension", "Lentopenil", "Vicin", "Extencilline", "Benzathine penicillin", "Bica-penicillin", "Benzylpenicillin benzathine", "Benzapen", "Bicillin I", "Bicillin 1", "Strepdipen-Suspension", "Benzylpenicillin N,N\u2032-dibenzylethylenediamine salt", "Bicillin L-A", "Benepen", "Penicom 12", "Bicillin G"], "SMILES": "C(O)(=O)C1N2C(C(NC(CC3=CC=CC=C3)=O)C2=O)SC1(C)C.C(NCCNCC1=CC=CC=C1)C2=CC=CC=C2", "physical_data": {"Molecular Weight": "", "Molecular Formula": "C16H20N2.2C16H18N2O4S", "Melting Point": "123-124 \u00b0C"}}