{"cas_no": "153851-71-9", "cn_name": "\u6bd4\u963f\u57f9\u5357\u4fa7\u94fe", "en_name": ["5H-Pyrazolo[1,2-a][1,2,4]triazol-4-ium, 6,7-dihydro-6-mercapto-, chloride (1:1)", "5H-Pyrazolo[1,2-a][1,2,4]triazol-4-ium, 6,7-dihydro-6-mercapto-, chloride (1:1)", "5H-Pyrazolo[1,2-a][1,2,4]triazol-4-ium, 6,7-dihydro-6-mercapto-, chloride"], "SMILES": "SC1CN2[N+](C1)=CN=C2.[Cl-]", "physical_data": {"Molecular Weight": "", "Molecular Formula": "C5H8N3S.Cl", "Melting Point": "127-128 \u00b0C (decomp)"}}