{"cas_no": "1538-62-1", "cn_name": "\u4e09\u82ef\u57fa\u4e8c\u918b\u9178\u9511", "en_name": ["Bis(acetato-\u03baO)triphenylantimony", "Antimony, bis(acetato-\u03baO)triphenyl-", "Antimony, bis(acetato)triphenyl-", "Antimony, bis(acetato-O)triphenyl-", "Antimony, diacetoxytriphenyl-", "Stibine, triphenyl-, diacetate", "Bis(acetato-\u03baO)triphenylantimony", "Bis(acetato)triphenylantimony", "Triphenylantimony diacetate", "Diacetoxytriphenylstiborane", "NSC 179784"], "SMILES": "[Sb](OC(C)=O)(OC(C)=O)(C1=CC=CC=C1)(C2=CC=CC=C2)C3=CC=CC=C3", "physical_data": {"Molecular Weight": "", "Molecular Formula": "C22H21O4Sb", "Melting Point": "214-215 \u00b0C"}}