{"cas_no": "1538-75-6", "cn_name": "\u7279\u620a\u9178\u9150", "en_name": ["Pivalic anhydride", "Propanoic acid, 2,2-dimethyl-, 1,1\u2032-anhydride", "Pivalic anhydride", "Propanoic acid, 2,2-dimethyl-, anhydride", "Trimethylacetic acid anhydride", "2,2-Dimethylpropanoic anhydride", "Trimethylacetic anhydride", "Pivalic acid anhydride", "Pivaloyl anhydride", "2,2-Dimethylpropionic anhydride", "2,2-Dimethylpropanoic acid anhydride", "Neopentanoic anhydride", "2,2,2-Trimethylacetic anhydride", "2,2-Dimethylpropanoyl anhydride", "2,2-Dimethylpropanoyl 2,2-dimethylpropanoate", "HPBIO-SJ 12960"], "SMILES": "O(C(C(C)(C)C)=O)C(C(C)(C)C)=O", "physical_data": {"Molecular Weight": "186.25", "Molecular Formula": "C10H18O3", "Boiling Point": "193 \u00b0C"}}