{"cas_no": "153815-60-2", "cn_name": "FMOC-L-TRYPTOPHANOL", "en_name": ["9H-Fluoren-9-ylmethyl N-[(1S)-2-hydroxy-1-(1H-indol-3-ylmethyl)ethyl]carbamate", "Carbamic acid, N-[(1S)-2-hydroxy-1-(1H-indol-3-ylmethyl)ethyl]-, 9H-fluoren-9-ylmethyl ester", "Carbamic acid, [2-hydroxy-1-(1H-indol-3-ylmethyl)ethyl]-, 9H-fluoren-9-ylmethyl ester, (S)-", "Carbamic acid, [(1S)-2-hydroxy-1-(1H-indol-3-ylmethyl)ethyl]-, 9H-fluoren-9-ylmethyl ester", "9H-Fluoren-9-ylmethyl N-[(1S)-2-hydroxy-1-(1H-indol-3-ylmethyl)ethyl]carbamate"], "SMILES": "C(OC(NC(CC=1C=2C(NC1)=CC=CC2)CO)=O)C3C=4C(C=5C3=CC=CC5)=CC=CC4", "physical_data": {"Molecular Weight": "412.48", "Molecular Formula": "C26H24N2O3", "Melting Point": "86-90 \u00b0C"}}