{"cas_no": "153813-69-5", "cn_name": "4-\u919b\u57fa-3-\u785d\u57fa\u82ef\u7532\u9178\u7532\u916f", "en_name": ["Benzoic acid, 4-formyl-3-nitro-, methyl ester", "Benzoic acid, 4-formyl-3-nitro-, methyl ester", "Methyl 4-formyl-3-nitrobenzoate", "4-Formyl-3-nitrobenzoic acid methyl ester", "4-Methoxycarbonyl-2-nitrobenzaldehyde"], "SMILES": "N(=O)(=O)C1=C(C=O)C=CC(C(OC)=O)=C1", "physical_data": {"Molecular Weight": "209.16", "Molecular Formula": "C9H7NO5", "Melting Point": "54-55 \u00b0C"}}