{"cas_no": "153977-22-1", "cn_name": "\u53cd\u5f0f-2-\u6c2f-3-[4-(4-\u6c2f\u82ef\u57fa)\u73af\u5df1\u57fa]-1,4-\u8418\u4e8c\u916e", "en_name": ["2-Chloro-3-[trans-4-(4-chlorophenyl)cyclohexyl]-1,4-naphthalenedione", "1,4-Naphthalenedione, 2-chloro-3-[trans-4-(4-chlorophenyl)cyclohexyl]-", "1,4-Naphthalenedione, 2-chloro-3-[4-(4-chlorophenyl)cyclohexyl]-, trans-", "2-Chloro-3-[trans-4-(4-chlorophenyl)cyclohexyl]-1,4-naphthalenedione"], "SMILES": "O=C1C(=C(Cl)C(=O)C=2C1=CC=CC2)C3CCC(CC3)C4=CC=C(Cl)C=C4", "physical_data": {"Molecular Weight": "385.28", "Molecular Formula": "C22H18Cl2O2", "Melting Point": "185-187 \u00b0C"}}