{"cas_no": "15396-00-6", "cn_name": "3-\u5f02\u6c30\u9178\u916f\u57fa\u4e19\u57fa\u4e09\u7532\u6c27\u57fa\u7845\u70f7", "en_name": ["(3-Isocyanatopropyl)trimethoxysilane", "Silane, (3-isocyanatopropyl)trimethoxy-", "Isocyanic acid, 3-(trimethoxysilyl)propyl ester", "(3-Isocyanatopropyl)trimethoxysilane", "3-(Trimethoxysilyl)propyl isocyanate", "(\u03b3-Isocyanatopropyl)trimethoxysilane", "KBK 9007", "Silquest Y 5187", "Y 5187", "1-Isocyanato-3-trimethoxysilylpropane", "Silquest A-Link 35", "3-Isocyanopropyltrimethoxysilane", "Geniosil GF 40", "A-Link 35", "\u03b3-Isocyanopropyltrimethoxysilane", "SII 6456.0", "Unisilan 18", "Trimethoxy(3-isocyanatopropyl)silane", "GF 40", "KH 901", "Vestanat EP-IPMS", "3-Isocyanate propyltrimethoxysilane", "3-Isocyantopropyltrimethoxysilane", "KBE 900", "KBM 9007A", "KBM 9007N", "Isocyanopropyl trimethoxy silane", "SCA-Y 25M", "IC 301", "T 03", "Silong 9907M", "Sanfu SI 335", "SI 335", "A11262"], "SMILES": "[Si](CCCN=C=O)(OC)(OC)OC", "physical_data": {"Molecular Weight": "205.28", "Molecular Formula": "C7H15NO4Si", "Boiling Point": "95-98 \u00b0C @ Press: 10 Torr", "Density": "1.073 g/cm\u00b3"}}