{"cas_no": "1539-04-4", "cn_name": "\u8054\u82ef\u5bf9\u4e8c\u82ef\u9178\u76d0", "en_name": ["1,4-Diphenyl 1,4-benzenedicarboxylate", "1,4-Benzenedicarboxylic acid, 1,4-diphenyl ester", "Terephthalic acid, diphenyl ester", "1,4-Benzenedicarboxylic acid, diphenyl ester", "1,4-Diphenyl 1,4-benzenedicarboxylate", "Diphenyl terephthalate", "Diphenyl 1,4-benzenedicarboxylate", "NSC 402474"], "SMILES": "C(OC1=CC=CC=C1)(=O)C2=CC=C(C(OC3=CC=CC=C3)=O)C=C2", "physical_data": {"Molecular Weight": "318.32", "Molecular Formula": "C20H14O4", "Melting Point": "199-200 \u00b0C"}}