{"cas_no": "15397-15-6", "cn_name": "1,2,3,5-\u56db\u82ef\u7532\u9170\u6c27\u57fa-2-C-\u7532\u57fa-beta-D-\u544b\u5583\u6838\u7cd6", "en_name": ["\u03b2-D-Ribofuranose, 2-C-methyl-, 1,2,3,5-tetrabenzoate", "\u03b2-D-Ribofuranose, 2-C-methyl-, 1,2,3,5-tetrabenzoate", "Ribofuranose, 2-C-methyl-, tetrabenzoate, \u03b2-D-", "\u03b2-D-Ribofuranose, 2-C-methyl-, tetrabenzoate", "1,2,3,5-Tetra-O-benzoyl-2-C-methyl-\u03b2-D-ribofuranose"], "SMILES": "O(C(=O)C1=CC=CC=C1)C2C(OC(=O)C3=CC=CC=C3)(C)C(OC(=O)C4=CC=CC=C4)OC2COC(=O)C5=CC=CC=C5", "physical_data": {"Molecular Weight": "580.58", "Molecular Formula": "C34H28O9", "Melting Point": "155-156 \u00b0C"}}