{"cas_no": "1539-42-0", "cn_name": "\u4e8c\u7532\u57fa\u5421\u5576\u80fa", "en_name": ["Bis(2-pyridylmethyl)amine", "2-Pyridinemethanamine, N-(2-pyridinylmethyl)-", "Pyridine, 2,2\u2032-(iminodimethylene)di-", "N-(2-Pyridinylmethyl)-2-pyridinemethanamine", "Bis(2-pyridylmethyl)amine", "2,2\u2032-Dipicolylamine", "Bis(2-picolyl)amine", "Di-2-picolylamine", "N,N-Bis(2-pyridylmethyl)amine", "Di(2-pyridylmethyl)amine", "Bis(2-pyridinylmethyl)amine", "N,N-Di-2-picolylamine", "N,N\u2032-Bis(2-pyridylmethyl)amine", "NSC 176070", "N,N-Bis(pyridin-2-ylmethyl)amine", "2,2\u2032-Bis(pyridylmethyl)amine", "Dipicolylamine", "1-Pyridin-2-yl-N-(pyridin-2-ylmethyl)methanamine", "N,N-Bis(pyridylmethyl)amine"], "SMILES": "C(NCC1=CC=CC=N1)C2=CC=CC=N2", "physical_data": {"Molecular Weight": "199.25", "Molecular Formula": "C12H13N3", "Boiling Point": "150-152 \u00b0C @ Press: 0.27 Torr"}}