{"cas_no": "1539-06-6", "cn_name": "4-\u4e59\u9170\u80fa\u57fa-3-\u785d\u57fa\u82ef\u7532\u9178", "en_name": ["4-(Acetylamino)-3-nitrobenzoic acid", "Benzoic acid, 4-(acetylamino)-3-nitro-", "Benzoic acid, 4-acetamido-3-nitro-", "4-(Acetylamino)-3-nitrobenzoic acid", "4-Acetamido-3-nitrobenzoic acid", "NSC 190738", "3-Nitro-4-acetamidobenzoic acid"], "SMILES": "N(=O)(=O)C1=C(NC(C)=O)C=CC(C(O)=O)=C1", "physical_data": {"Molecular Weight": "224.17", "Molecular Formula": "C9H8N2O5", "Melting Point": "219 \u00b0C"}}