{"cas_no": "154-58-5", "cn_name": "1,5-\u9150-D-\u5c71\u68a8\u7cd6\u9187", "en_name": ["1,5-Anhydroglucitol", "D-Glucitol, 1,5-anhydro-", "Glucitol, 1,5-anhydro-, D-", "Polygalitol", "D-Glucose, 1-deoxy-", "1,5-Anhydro-D-glucitol", "Aceritol", "1,5-Anhydroglucitol", "1-Deoxy-D-glucopyranose", "1,5-Anhydrosorbitol", "1-Deoxy-D-glucose", "1,5-Sorbitan", "1,5-Anhydro-D-sorbitol"], "SMILES": "C(O)C1C(O)C(O)C(O)CO1", "physical_data": {"Molecular Weight": "164.16", "Molecular Formula": "C6H12O5", "Melting Point": "142-143 \u00b0C"}}