{"cas_no": "154-68-7", "cn_name": "\u5b89\u5b83\u5511\u5549\u78f7\u9178\u916f", "en_name": ["Antazoline phosphate", "1H-Imidazole-2-methanamine, 4,5-dihydro-N-phenyl-N-(phenylmethyl)-, phosphate (1:1)", "2-Imidazoline, 2-[(N-benzylanilino)methyl]-, phosphate (1:1)", "Antazoline phosphate", "Antistine phosphate", "2-[(N-Benzylanilino)methyl]-2-imidazoline dihydrogen phosphate"], "SMILES": "N(CC1=CC=CC=C1)(CC=2NCCN2)C3=CC=CC=C3.P(=O)(O)(O)O", "physical_data": {"Molecular Weight": "", "Molecular Formula": "C17H19N3.H3O4P", "Melting Point": "194-198 \u00b0C"}}