{"cas_no": "154-42-7", "cn_name": "6-\u786b\u9e1f\u560c\u5464", "en_name": ["Thioguanine", "6H-Purine-6-thione, 2-amino-1,9-dihydro-", "6H-Purine-6-thione, 2-amino-1,7-dihydro-", "Purine-6(1H)-thione, 2-amino-", "Purine-6(1H)-thione, 2,3-dihydro-2-imino-", "Purine-6-thiol, 2-amino-", "2-Amino-1,9-dihydro-6H-purine-6-thione", "NSC 752", "Tabloid", "6-Thioguanine", "Guanine, thio-", "Thioguanine", "2-Amino-6-mercaptopurine", "6-Mercaptoguanine", "2-Aminopurine-6-thiol", "Tioguanin", "6-TG", "Tioguanine", "2-Amino-9H-purine-6(1H)-thione", "NSC 76504", "Lanvis", "2-Amino-9H-purine-6-thiol", "Thioguanine Tabloid", "2-Amino-3,7-dihydropurine-6-thione", "2-Amino-1H-purine-6(7H)-thione", "2-Amino-1,9-dihydro-purine-6-thione", "2-Amino-7H-purine-6-thiol", "MeSH ID: D013866"], "SMILES": "S=C1C2=C(NC(N)=N1)N=CN2", "physical_data": {"Molecular Weight": "167.19", "Molecular Formula": "C5H5N5S", "Melting Point": "&gt;360 \u00b0C"}}