{"cas_no": "154-23-4", "cn_name": "(+)-\u513f\u8336\u7d20", "en_name": ["Catechin", "2H-1-Benzopyran-3,5,7-triol, 2-(3,4-dihydroxyphenyl)-3,4-dihydro-, (2R,3S)-", "Catechol", "2H-1-Benzopyran-3,5,7-triol, 2-(3,4-dihydroxyphenyl)-3,4-dihydro-, (2R-trans)-", "(2R,3S)-2-(3,4-Dihydroxyphenyl)-3,4-dihydro-2H-1-benzopyran-3,5,7-triol", "d-Catechin", "(+)-Catechol", "(+)-Catechin", "(+)-(2R:3S)-5,7,3\u2032,4\u2032-Tetrahydroxyflavan-3-ol", "Catechin", "Catechinic acid", "Catechuic acid", "Catechol (flavan)", "D-Catechol", "D-(+)-Catechin", "Catechin (flavan)", "trans-(+)-3,3\u2032,4\u2032,5,7-Flavanpentol", "(+)-3\u2032,4\u2032,5,7-Tetrahydroxy-2,3-trans-flavan-3-ol", "3-Cyanidanol, (+)-", "Catergen", "(+)-Cyanidan-3-ol", "(+)-Cyanidanol-3", "Cianidanol", "Cyanidanol", "D-Catechin", "(+)-Cianidanol", "(+)-Cyanidanol", "Biocatechin", "Sunkatol No. 1", "(2R,3S)-(+)-Catechin", "Dexcyanidanol", "Cyanidol", "NSC 2819", "Teafuran 30A", "Teafuran 30E", "HB-MC-TS 35", "P 70A", "(+)-(2R,3S)-2-(3,4-Dihydroxyphenyl)-3,4-dihydro-1(2H)-benzopyran-3,5,7-triol", "Sunphenon 90", "PP-S4-1", "MeSH ID: D002392"], "SMILES": "OC1C(OC=2C(C1)=C(O)C=C(O)C2)C3=CC(O)=C(O)C=C3", "physical_data": {"Molecular Weight": "290.27", "Molecular Formula": "C15H14O6", "Boiling Point": "629.2 \u00b0C", "Melting Point": "175-177 \u00b0C"}}