{"cas_no": "154-93-8", "cn_name": "\u5361\u83ab\u53f8\u6c40", "en_name": ["Carmustine", "Urea, N,N\u2032-bis(2-chloroethyl)-N-nitroso-", "Urea, 1,3-bis(2-chloroethyl)-1-nitroso-", "N,N\u2032-Bis(2-chloroethyl)-N-nitrosourea", "BCNU", "1,3-Bis(2-chlorethyl)-1-nitrosourea", "Carmustine", "1,3-Bis(\u03b2-chloroethyl)-1-nitrosourea", "NSC 409962", "Carmustin", "1,3-Bis(2-chloroethyl)-1-nitrosourea", "BiCNU", "Gliadel", "Becenun", "SK 27702", "SRI 1720", "Nitrumon", "FDA 0345", "Carmubris", "DTI 015", "Gliadel Wafer", "1,3-Bis(2-chloroethyl)nitrosourea", "Becenum"], "SMILES": "N(C(NCCCl)=O)(CCCl)N=O", "physical_data": {"Molecular Weight": "214.05", "Molecular Formula": "C5H9Cl2N3O2", "Melting Point": "31 \u00b0C"}}