{"cas_no": "154-86-9", "cn_name": "DL-\u53bb\u6c27\u80be\u4e0a\u817a\u7d20\u76d0\u9178\u76d0", "en_name": ["Benzenemethanol, 3-hydroxy-\u03b1-[(methylamino)methyl]-, hydrochloride (1:1)", "Benzenemethanol, 3-hydroxy-\u03b1-[(methylamino)methyl]-, hydrochloride (1:1)", "Benzyl alcohol, m-hydroxy-\u03b1-[(methylamino)methyl]-, hydrochloride, (\u00b1)-", "Benzenemethanol, 3-hydroxy-\u03b1-[(methylamino)methyl]-, hydrochloride, (\u00b1)-", "Benzenemethanol, 3-hydroxy-\u03b1-[(methylamino)methyl]-, hydrochloride", "DL-Phenylephrine hydrochloride", "(\u00b1)-Phenylephrine hydrochloride", "1-(3-Hydroxyphenyl)-2-methylaminoethanol hydrochloride", "NSC 14029", "RS-phenylephrine hydrochloride"], "SMILES": "C(CNC)(O)C1=CC(O)=CC=C1.Cl", "physical_data": {"Molecular Weight": "", "Molecular Formula": "C9H13NO2.ClH", "Melting Point": "140-145 \u00b0C (decomp)"}}