{"cas_no": "154-87-0", "cn_name": "\u7126\u78f7\u9178\u786b\u80fa\u7d20", "en_name": ["Thiamine pyrophosphate", "Thiazolium, 3-[(4-amino-2-methyl-5-pyrimidinyl)methyl]-4-methyl-5-(4,6,6-trihydroxy-4,6-dioxido-3,5-dioxa-4,6-diphosphahex-1-yl)-, chloride (1:1)", "Thiamine, trihydrogen pyrophosphate (ester)", "Thiazolium, 3-[(4-amino-2-methyl-5-pyrimidinyl)methyl]-4-methyl-5-(4,6,6-trihydroxy-3,5-dioxa-4,6-diphosphahex-1-yl)-, chloride, P,P\u2032-dioxide", "Thiazolium, 3-[(4-amino-2-methyl-5-pyrimidinyl)methyl]-4-methyl-5-(4,6,6-trihydroxy-4,6-dioxido-3,5-dioxa-4,6-diphosphahex-1-yl)-, chloride", "Berolase", "Biosyth", "Bioxilasi", "Bivitasi", "Cocarbina", "Cocarboxylase", "TDP", "Thiamine diphosphate", "Thiamine diphosphate ester chloride", "Thiamine diphosphoric acid ester chloride", "Thiamine pyrophosphate", "Thiamine pyrophosphate chloride", "Thiamine pyrophosphoric acid ester chloride", "Thiamine pyrophosphoric ester", "Diphosphothiamine", "Thiamine pyrophosphate hydrochloride", "Thiamine-PP", "Pyruvodehydrase", "Farmaneurina", "B-Neurox", "Cocarboxil", "Co-B1", "Pyrolase", "Coenbione", "Thiamin pyrophosphate", "Diphosphothiamin", "TDP (thiamin ester)", "Metabolase", "Nutrase", "Coxylase", "TPP", "TPP (coenzyme)", "Vitamin B1 pyrophosphate chloride"], "SMILES": "C([N+]=1C(C)=C(CCOP(OP(=O)(O)O)(=O)O)SC1)C=2C(N)=NC(C)=NC2.[Cl-]", "physical_data": {"Molecular Weight": "", "Molecular Formula": "C12H19N4O7P2S.Cl", "Melting Point": "238-240 \u00b0C (decomp)"}}