{"cas_no": "154-06-3", "cn_name": "5-\u7532\u57fa-L-\u8272\u6c28\u9178", "en_name": ["L-5-Methyltryptophan", "L-Tryptophan, 5-methyl-", "Tryptophan, 5-methyl-, L-", "5-Methyl-L-tryptophan", "5-Methyltryptophan", "L-5-Methyltryptophan", "(2S)-2-Amino-3-(5-methyl-1H-indol-3-yl)propanoic acid"], "SMILES": "C(C(C(O)=O)N)C=1C=2C(NC1)=CC=C(C)C2", "physical_data": {"Molecular Weight": "218.25", "Molecular Formula": "C12H14N2O2", "Melting Point": "272-273 \u00b0C (decomp)"}}