{"cas_no": "154-41-6", "cn_name": "\u76d0\u9178\u82ef\u4e19\u9187\u80fa", "en_name": ["Phenylpropanolamine hydrochloride", "Benzenemethanol, \u03b1-[(1R)-1-aminoethyl]-, hydrochloride (1:1), (\u03b1S)-rel-", "Norephedrine, hydrochloride, (\u00b1)-", "Benzenemethanol, \u03b1-(1-aminoethyl)-, hydrochloride, (R*,S*)-(\u00b1)-", "Benzenemethanol, \u03b1-[(1R)-1-aminoethyl]-, hydrochloride, (\u03b1S)-rel-", "(\u00b1)-2-Amino-1-phenyl-1-propanol hydrochloride", "dl-Norephedrine hydrochloride", "(\u00b1)-Phenylpropanolamine hydrochloride", "(\u00b1)-Norephedrine hydrochloride", "(\u00b1)-Norephedrine chloride", "Phenylpropanolamine hydrochloride", "dl-Phenylpropanolamine hydrochloride", "Propadrine hydrochloride", "IP 58064", "Benzenemethanol, \u03b1-(1-aminoethyl)-, hydrochloride, (R*,S*)-", "Norephedrine hydrochloride", "Thinz-Span", "Acutrim", "Permathene 16", "Dexatrim", "erythro-Norephedrine hydrochloride", "Kontexin", "Obestat", "Mydriatin", "Monydrin", "NSC 23798", "Guaifen", "Flurest"], "SMILES": "C(C(C)N)(O)C1=CC=CC=C1.Cl", "physical_data": {"Molecular Weight": "", "Molecular Formula": "C9H13NO.ClH", "Melting Point": "194 \u00b0C", "Density": "1.25 g/cm\u00b3"}}