{"cas_no": "154-02-9", "cn_name": "5-\u7f9f\u57fa\u82ef\u915a", "en_name": ["5-Hydroxytryptophol", "1H-Indole-3-ethanol, 5-hydroxy-", "Indole-3-ethanol, 5-hydroxy-", "Tryptophol, 5-hydroxy-", "5-Hydroxy-1H-indole-3-ethanol", "5-Hydroxytryptophol", "5-Hydroxy-3-(2-hydroxyethyl)indole", "NSC 84416", "3-(2-Hydroxyethyl)-1H-indol-5-ol", "5-Hydroxyindole-3-(2-hydroxy)ethyl"], "SMILES": "C(CO)C=1C=2C(NC1)=CC=C(O)C2", "physical_data": {"Molecular Weight": "177.20", "Molecular Formula": "C10H11NO2", "Melting Point": "111-113 \u00b0C"}}