{"cas_no": "154-08-5", "cn_name": "5-\u6c1f-DL-\u8272\u6c28\u9178", "en_name": ["5-Fluoro-DL-tryptophan", "Tryptophan, 5-fluoro-", "Tryptophan, 5-fluoro-, DL-", "DL-Tryptophan, 5-fluoro-", "5-Fluorotryptophan", "5-Fluoro-DL-tryptophan", "DL-5-Fluorotryptophan", "NSC 9363", "2-Amino-3-(5-fluoro-1H-indol-3-yl)propanoic acid"], "SMILES": "C(C(C(O)=O)N)C=1C=2C(NC1)=CC=C(F)C2", "physical_data": {"Molecular Weight": "222.22", "Molecular Formula": "C11H11FN2O2", "Melting Point": "264-265 \u00b0C (decomp)"}}