{"cas_no": "154-69-8", "cn_name": "\u76d0\u9178\u66f2\u5421\u90a3\u654f", "en_name": ["Tripelennamine hydrochloride", "1,2-Ethanediamine, N1,N1-dimethyl-N2-(phenylmethyl)-N2-2-pyridinyl-, hydrochloride (1:1)", "Pyridine, 2-[benzyl[2-(dimethylamino)ethyl]amino]-, monohydrochloride", "1,2-Ethanediamine, N,N-dimethyl-N\u2032-(phenylmethyl)-N\u2032-2-pyridinyl-, monohydrochloride", "2-[Benzyl[2-(dimethylamino)ethyl]amino]pyridine hydrochloride", "N-Benzyl-N\u2032,N\u2032-dimethyl-N-2-pyridylethylenediamine hydrochloride", "N,N-Dimethyl-N\u2032-(2-pyridyl)-N\u2032-benzylethylenediamine hydrochloride", "Pyribenzamine monohydrochloride", "Pyrinamine", "Stanzamine", "Piristin", "Tripelennamine monohydrochloride", "Dehistin monohydrochloride", "Pyribenzamine hydrochloride", "Tripelennamine hydrochloride", "Dehistin", "NIH 10186", "ReCovr", "Vetobenzamina", "Vetibenzamine", "PBZ", "Azaron"], "SMILES": "N(CC1=CC=CC=C1)(CCN(C)C)C2=CC=CC=N2.Cl", "physical_data": {"Molecular Weight": "", "Molecular Formula": "C16H21N3.ClH", "Melting Point": "192-193 \u00b0C", "Density": "1.20 g/cm\u00b3"}}