{"cas_no": "154-17-6", "cn_name": "2-\u8131\u6c27-D-\u8461\u8404\u7cd6", "en_name": ["2-Deoxyglucose", "D-arabino-Hexose, 2-deoxy-", "2-Deoxy-D-arabino-hexose", "D-Glucose, 2-deoxy-", "2-Deoxyglucose", "Ba 2758", "2-Deoxy-D-glucose", "2-Desoxy-D-glucose", "2-Deoxy-D-mannose", "NSC 15193", "2 DG"], "SMILES": "C(C(CC=O)O)(C(CO)O)O", "physical_data": {"Molecular Weight": "164.16", "Molecular Formula": "C6H12O5", "Melting Point": "146.5 \u00b0C"}}