{"cas_no": "15404-76-9", "cn_name": "\u4e8c\u7532\u57fa\u5012\u637b\u5b50\u7d20", "en_name": ["Fuscaxanthone C", "9H-Xanthen-9-one, 1-hydroxy-3,6,7-trimethoxy-2,8-bis(3-methyl-2-buten-1-yl)-", "Xanthen-9-one, 1-hydroxy-3,6,7-trimethoxy-2,8-bis(3-methyl-2-butenyl)-", "Mangostin, dimethyl-", "9H-Xanthen-9-one, 1-hydroxy-3,6,7-trimethoxy-2,8-bis(3-methyl-2-butenyl)-", "1-Hydroxy-3,6,7-trimethoxy-2,8-bis(3-methyl-2-buten-1-yl)-9H-xanthen-9-one", "Fuscaxanthone C", "NSC 27594", "1-Hydroxy-3,6,7-trimethoxy-2,8-bis(3-methylbut-2-enyl)xanthen-9-one"], "SMILES": "C(C=C(C)C)C1=C2C(OC=3C(C2=O)=C(O)C(CC=C(C)C)=C(OC)C3)=CC(OC)=C1OC", "physical_data": {"Molecular Weight": "438.51", "Molecular Formula": "C26H30O6", "Melting Point": "119-122 \u00b0C"}}