{"cas_no": "15401-69-1", "cn_name": "\u5c0f\u6a97\u7ea2\u78b1", "en_name": ["Benzo[g]-1,3-benzodioxolo[5,6-a]quinolizinium, 5,6-dihydro-9-hydroxy-10-methoxy-, chloride (1:1)", "Benzo[g]-1,3-benzodioxolo[5,6-a]quinolizinium, 5,6-dihydro-9-hydroxy-10-methoxy-, chloride (1:1)", "Berbinium, 7,8,13,13a-tetradehydro-9-hydroxy-10-methoxy-2,3-(methylenedioxy)-, chloride", "Benzo[g]-1,3-benzodioxolo[5,6-a]quinolizinium, 5,6-dihydro-9-hydroxy-10-methoxy-, chloride", "Berberrubine chloride", "9-Berberoline chloride", "9-Demethoxy-9-hydroxyberberinium chloride", "Beroline chloride"], "SMILES": "OC1=C2C=[N+]3C(C=4C(=CC5=C(C4)OCO5)CC3)=CC2=CC=C1OC.[Cl-]", "physical_data": {"Molecular Weight": "", "Molecular Formula": "C19H16NO4.Cl", "Melting Point": "245 \u00b0C (decomp)"}}