{"cas_no": "15409-60-6", "cn_name": "2-(N,N-\u4e8c\u7532\u57fa\u6c28\u57fa\u7532\u57fa)\u73af\u5df1\u916e", "en_name": ["2-[(Dimethylamino)methyl]cyclohexanone", "Cyclohexanone, 2-[(dimethylamino)methyl]-", "2-[(Dimethylamino)methyl]cyclohexanone", "2-(N,N-Dimethylaminomethyl)cyclohexanone", "NSC 222825", "2-[(Dimethylamino)methyl]cyclohexan-1-one"], "SMILES": "C(N(C)C)C1C(=O)CCCC1", "physical_data": {"Molecular Weight": "155.24", "Molecular Formula": "C9H17NO", "Boiling Point": "100 \u00b0C @ Press: 13 Torr", "Melting Point": "148-150 \u00b0C", "Density": "0.9504 g/cm\u00b3 @ Temp: 20 \u00b0C"}}