{"cas_no": "1540-29-0", "cn_name": "2-\u6b63\u4e01\u57fa\u4e59\u9170\u4e59\u9178\u4e59\u916f", "en_name": ["Hexanoic acid, 2-acetyl-, ethyl ester", "Hexanoic acid, 2-acetyl-, ethyl ester", "Caproic acid, \u03b1-acetyl-, ethyl ester", "Ethyl 2-acetylhexanoate", "Ethyl \u03b1-butylacetoacetate", "3-Carbethoxy-2-heptanone", "Ethyl 2-butylacetylacetate", "Ethyl 2-butyl-3-oxobutanoate", "Ethyl 2-butylacetoacetate", "2-Acetylhexanoic acid ethyl ester", "NSC 11771", "NSC 25322", "NSC 404202"], "SMILES": "C(C(OCC)=O)(CCCC)C(C)=O", "physical_data": {"Molecular Weight": "186.25", "Molecular Formula": "C10H18O3", "Boiling Point": "221.5 \u00b0C", "Density": "0.9539 g/cm\u00b3 @ Temp: 16.5 \u00b0C"}}