{"cas_no": "15401-60-2", "cn_name": "IPECOSIDE", "en_name": ["Methyl (2S,3R,4S)-4-[[(1R)-2-acetyl-1,2,3,4-tetrahydro-6,7-dihydroxy-1-isoquinolinyl]methyl]-3-ethenyl-2-(\u03b2-D-glucopyranosyloxy)-3,4-dihydro-2H-pyran-5-carboxylate", "2H-Pyran-5-carboxylic acid, 4-[[(1R)-2-acetyl-1,2,3,4-tetrahydro-6,7-dihydroxy-1-isoquinolinyl]methyl]-3-ethenyl-2-(\u03b2-D-glucopyranosyloxy)-3,4-dihydro-, methyl ester, (2S,3R,4S)-", "Ipecoside", "2H-Pyran-5-carboxylic acid, 4-[(2-acetyl-1,2,3,4-tetrahydro-6,7-dihydroxy-1-isoquinolinyl)methyl]-3-ethenyl-2-(\u03b2-D-glucopyranosyloxy)-3,4-dihydro-, methyl ester, [2S-[2\u03b1,3\u03b2,4\u03b2(S*)]]-", "Methyl (2S,3R,4S)-4-[[(1R)-2-acetyl-1,2,3,4-tetrahydro-6,7-dihydroxy-1-isoquinolinyl]methyl]-3-ethenyl-2-(\u03b2-D-glucopyranosyloxy)-3,4-dihydro-2H-pyran-5-carboxylate", "NSC 603972"], "SMILES": "C(C1C=2C(CCN1C(C)=O)=CC(O)=C(O)C2)C3C(C=C)C(OC4OC(CO)C(O)C(O)C4O)OC=C3C(OC)=O", "physical_data": {"Molecular Weight": "565.57", "Molecular Formula": "C27H35NO12", "Melting Point": "~175 \u00b0C (approx)"}}