{"cas_no": "15402-84-3", "cn_name": "1-(2-\u7532\u6c27\u82ef\u57fa)-2-\u4e19\u80fa", "en_name": ["2-Methoxyamphetamine", "Benzeneethanamine, 2-methoxy-\u03b1-methyl-", "Phenethylamine, o-methoxy-\u03b1-methyl-", "2-Methoxy-\u03b1-methylbenzeneethanamine", "o-Methoxy(phenylisopropyl)amine", "2-Methoxyamphetamine", "o-Methoxyamphetamine", "2-Methoxy(phenylisopropyl)amine", "o-Methoxy-\u03b1-methylphenethylamine", "N-Demethylmethoxyphenamine", "1-(2-Methoxyphenyl)-2-aminopropane", "N-Desmethylmethoxyphenamine"], "SMILES": "C(C(C)N)C1=C(OC)C=CC=C1", "physical_data": {"Molecular Weight": "165.23", "Molecular Formula": "C10H15NO", "Boiling Point": "117 \u00b0C @ Press: 14 Torr"}}