{"cas_no": "15403-56-2", "cn_name": "\u6eb6\u5242\u84dd102", "en_name": ["1-(Methylamino)-4-[(1-methylethyl)amino]-9,10-anthracenedione", "9,10-Anthracenedione, 1-(methylamino)-4-[(1-methylethyl)amino]-", "Anthraquinone, 1-(isopropylamino)-4-(methylamino)-", "1-(Methylamino)-4-[(1-methylethyl)amino]-9,10-anthracenedione", "C.I. Solvent Blue 102", "Solvent Blue 102"], "SMILES": "N(C(C)C)C1=C2C(C(=O)C=3C(C2=O)=CC=CC3)=C(NC)C=C1", "physical_data": {"Molecular Weight": "294.35", "Molecular Formula": "C18H18N2O2", "Melting Point": "216-217 \u00b0C"}}