{"cas_no": "15400-54-1", "cn_name": "\u4e59\u916f2,4-\u4e8c\u6c28\u57fa-\u5627\u5576-5-\u7532\u9178", "en_name": ["Ethyl 2,4-diamino-5-pyrimidinecarboxylate", "5-Pyrimidinecarboxylic acid, 2,4-diamino-, ethyl ester", "5-Pyrimidinecarboxylic acid, 2-amino-3,4-dihydro-4-imino-, ethyl ester", "Ethyl 2,4-diamino-5-pyrimidinecarboxylate", "NSC 9314", "2,4-Diamino-pyrimidine-5-carboxylic acid ethyl ester"], "SMILES": "C(OCC)(=O)C=1C(N)=NC(N)=NC1", "physical_data": {"Molecular Weight": "182.18", "Molecular Formula": "C7H10N4O2", "Melting Point": "204-205 \u00b0C"}}