{"cas_no": "15400-53-0", "cn_name": "2-\u6c28\u57fa-5-\u4e59\u6c27\u7fb0\u57fa-4-\u7f9f\u57fa\u5627\u5576", "en_name": ["Ethyl 2-amino-1,4-dihydro-4-oxo-5-pyrimidinecarboxylate", "5-Pyrimidinecarboxylic acid, 2-amino-1,4-dihydro-4-oxo-, ethyl ester", "5-Pyrimidinecarboxylic acid, 2-amino-4-hydroxy-, ethyl ester", "Ethyl 2-amino-1,4-dihydro-4-oxo-5-pyrimidinecarboxylate", "2-Amino-4-hydroxy-5-pyrimidine carbonic acid ethyl ester", "2-Amino-4-hydroxypyrimidine-5-carboxylic acid ethyl ester", "Ethyl 2-amino-6-oxo-1,6-dihydropyrimidine-5-carboxylate"], "SMILES": "C(OCC)(=O)C=1C(=O)NC(N)=NC1", "physical_data": {"Molecular Weight": "183.16", "Molecular Formula": "C7H9N3O3", "Melting Point": "285 \u00b0C"}}