{"cas_no": "1540-36-9", "cn_name": "3-\u6b63-\u4e01\u57fa-2,4-\u620a\u70f7\u4e8c\u916e", "en_name": ["3-Butyl-2,4-pentanedione", "2,4-Pentanedione, 3-butyl-", "3-Butyl-2,4-pentanedione", "3-Butylacetylacetone", "3-Acetyl-2-heptanone", "NSC 2249", "3-n-Butyl-2,4-pentanedione", "3-Butylpentan-2,4-dione", "3-(1-Butyl)-pentane-2,4-dione"], "SMILES": "C(CCCC)(C(C)=O)C(C)=O", "physical_data": {"Molecular Weight": "156.22", "Molecular Formula": "C9H16O2", "Boiling Point": "210-212 \u00b0C @ Press: 750 Torr", "Melting Point": "42.5-43.5 \u00b0C"}}