{"cas_no": "1540-34-7", "cn_name": "3-\u4e59\u57fa-2,4-\u620a\u4e8c\u916e", "en_name": ["3-Ethyl-2,4-pentanedione", "2,4-Pentanedione, 3-ethyl-", "3-Ethyl-2,4-pentanedione", "3-Ethylacetylacetone", "3-Acetyl-2-pentanone", "\u03b3-Ethylacetylacetone", "NSC 73741"], "SMILES": "C(C(C)=O)(C(C)=O)CC", "physical_data": {"Molecular Weight": "128.17", "Molecular Formula": "C7H12O2", "Boiling Point": "178.5 \u00b0C", "Melting Point": "132-133 \u00b0C", "Density": "0.953 g/cm\u00b3 @ Temp: 20 \u00b0C"}}