{"cas_no": "1541-67-9", "cn_name": "N-\u5341\u4e8c\u70f7\u57fa\u4e59\u9187\u80fa", "en_name": ["Lauryldiethanolamine", "Ethanol, 2,2\u2032-(dodecylimino)bis-", "Ethanol, 2,2\u2032-(dodecylimino)di-", "2,2\u2032-(Dodecylimino)bis[ethanol]", "N,N-Bis(2-hydroxyethyl)laurylamine", "Dodecylbis(hydroxyethyl)amine", "N-Dodecyldiethanolamine", "Lauryldiethanolamine", "Bis(hydroxyethyl)dodecylamine", "N,N-Bis(hydroxyethyl)laurylamine", "Dodecyldiethanolamine", "2,2\u2032-(Dodecylimino)diethanol", "Bis(\u03b2-hydroxyethyl)laurylamine", "2,2\u2032-(Laurylimino)diethanol", "N,N-Bis(2-hydroxyethyl)dodecylamine", "Dodecylbis(2-hydroxyethyl)amine", "Bis(2-hydroxyethyl)dodecylamine", "N-Lauryldiethanolamine", "N,N-Bis(2-hydroxyethyl)lauramine", "Bis(2-hydroxyethyl)laurylamine", "N,N-Bis(hydroxyethyl)dodecanamine", "N,N-Di(hydroxyethyl)laurylamine", "NSC 525737", "Elest EA", "TB 128K", "Fentacare 1202", "N-Lauryl-N,N-diethanolamine", "Dodecyldiethoxylamine", "N,N-Dihydroxyethyl-1-Dodecanamine", "2,2\u2032-(Dodecylazanediyl)diethanol", "2-[Dodecyl(2-hydroxyethyl)amino]ethan-1-ol", "2-[Dodecyl(2-hydroxyethyl)amino]ethanol"], "SMILES": "N(CCCCCCCCCCCC)(CCO)CCO", "physical_data": {"Molecular Weight": "273.45", "Molecular Formula": "C16H35NO2", "Boiling Point": "190-200 \u00b0C @ Press: 3 Torr", "Melting Point": "18.7-20.9 \u00b0C", "Density": "0.9221 g/cm\u00b3 @ Temp: 25 \u00b0C"}}