{"cas_no": "154229-19-3", "cn_name": "\u963f\u6bd4\u7279\u9f99", "en_name": ["Abiraterone", "Androsta-5,16-dien-3-ol, 17-(3-pyridinyl)-, (3\u03b2)-", "(3\u03b2)-17-(3-Pyridinyl)androsta-5,16-dien-3-ol", "CB 7598", "Abiraterone", "17-(3-Pyridinyl)-androsta-5,16-dien-3\u03b2-ol"], "SMILES": "CC12C(C3C(C4(C)C(=CC3)CC(O)CC4)CC1)CC=C2C=5C=CC=NC5", "physical_data": {"Molecular Weight": "349.51", "Molecular Formula": "C24H31NO", "Melting Point": "227-228 \u00b0C"}}