{"cas_no": "154229-18-2", "cn_name": "\u4e59\u9178\u963f\u6bd4\u7279\u9f99\u916f", "en_name": ["Abiraterone acetate", "Androsta-5,16-dien-3-ol, 17-(3-pyridinyl)-, acetate (ester), (3\u03b2)-", "CB 7630", "Abiraterone acetate", "Zytiga", "(3\u03b2)-17-(3-Pyridinyl)androsta-5,16-dien-3-yl acetate", "(3S,8R,9S,10R,13S,14S)-10,13-Dimethyl-17(pyridin-3-yl)-2,3,4,7,8,9,10,11,12,13,14,15-dodecahydro-1H-cyclopenta[a]phenanthren-3-yl acetate"], "SMILES": "CC12C(C3C(CC1)C4(C)C(=CC3)CC(OC(C)=O)CC4)CC=C2C=5C=CC=NC5", "physical_data": {"Molecular Weight": "391.55", "Molecular Formula": "C26H33NO2", "Melting Point": "144-145 \u00b0C"}}