{"cas_no": "154229-21-7", "cn_name": "\u963f\u6bd4\u7279\u9f99\u4ee3\u8c22\u7269", "en_name": ["17-(3-Pyridinyl)androsta-4,16-dien-3-one", "Androsta-4,16-dien-3-one, 17-(3-pyridinyl)-", "17-(3-Pyridinyl)androsta-4,16-dien-3-one", "CB 7627", "\u03944-Abiraterone"], "SMILES": "CC12C(C3C(C4(C)C(CC3)=CC(=O)CC4)CC1)CC=C2C=5C=CC=NC5", "physical_data": {"Molecular Weight": "347.49", "Molecular Formula": "C24H29NO", "Melting Point": "145-147 \u00b0C"}}