{"cas_no": "15421-84-8", "cn_name": "\u4e50\u53ef\u5b89", "en_name": ["Trapidil", "[1,2,4]Triazolo[1,5-a]pyrimidin-7-amine, N,N-diethyl-5-methyl-", "s-Triazolo[1,5-a]pyrimidine, 7-(diethylamino)-5-methyl-", "N,N-Diethyl-5-methyl[1,2,4]triazolo[1,5-a]pyrimidin-7-amine", "5-Methyl-7-(diethylamino)-s-triazolo[1,5-a]pyrimidine", "5-Methyl-7-(diethylamino)-1,2,4-triazolo[1,5-a]pyrimidine", "Rocornal", "Trapymin", "Trapymine", "4-(Diethylamino)-6-methyl-1,3,3a,7-tetraazaindene", "Trapidil", "Avantrin", "AR 12008", "MeSH ID: D014192"], "SMILES": "N(CC)(CC)C=1N2C(N=C(C)C1)=NC=N2", "physical_data": {"Molecular Weight": "205.26", "Molecular Formula": "C10H15N5", "Melting Point": "100 \u00b0C"}}