{"cas_no": "15430-52-1", "cn_name": "\u4e19\u7094\u80fa\u76d0\u9178\u76d0", "en_name": ["2-Propyn-1-amine, hydrochloride", "2-Propyn-1-amine, hydrochloride", "2-Propynylamine, hydrochloride", "Propargylamine hydrochloride", "Propargylammonium chloride", "Propynylammonium chloride"], "SMILES": "C(CN)#C.Cl", "physical_data": {"Molecular Weight": "", "Molecular Formula": "C3H5N.ClH", "Melting Point": "178-179 \u00b0C"}}