{"cas_no": "15438-71-8", "cn_name": "1-(\u7f9f\u7532\u57fa)\u5421\u54af\u70f7-2-\u916e", "en_name": ["N-(Hydroxymethyl)-2-pyrrolidone", "2-Pyrrolidinone, 1-(hydroxymethyl)-", "1-(Hydroxymethyl)-2-pyrrolidinone", "N-Methylolpyrrolidone", "N-Methylol-2-pyrrolidinone", "N-Methylolpyrrolidinone", "N-Methylol-2-pyrrolidone", "N-(Hydroxymethyl)-2-pyrrolidinone", "1-Hydroxymethyl-2-pyrrolidinone", "1-(Hydroxymethyl)-2-pyrrolidone", "N-(Hydroxymethyl)-2-pyrrolidone", "NSC 84227", "N-Hydroxymethylpyrrolidone"], "SMILES": "C(O)N1C(=O)CCC1", "physical_data": {"Molecular Weight": "115.13", "Molecular Formula": "C5H9NO2", "Boiling Point": "185-188 \u00b0C @ Press: 4 Torr", "Melting Point": "77-79.5 \u00b0C"}}