{"cas_no": "154350-29-5", "cn_name": "\u73af\u4e19\u78fa\u9170\u80fa", "en_name": ["Cyclopropanesulfonamide", "Cyclopropanesulfonamide", "Cyclopropanesulfonic acid amide"], "SMILES": "S(N)(=O)(=O)C1CC1", "physical_data": {"Molecular Weight": "121.16", "Molecular Formula": "C3H7NO2S", "Melting Point": "106-107 \u00b0C"}}