{"cas_no": "154361-50-9", "cn_name": "\u5361\u57f9\u4ed6\u6ee8", "en_name": ["Capecitabine", "Cytidine, 5\u2032-deoxy-5-fluoro-N-[(pentyloxy)carbonyl]-", "Carbamic acid, [1-(5-deoxy-\u03b2-D-ribofuranosyl)-5-fluoro-1,2-dihydro-2-oxo-4-pyrimidinyl]-, pentyl ester", "5\u2032-Deoxy-5-fluoro-N-[(pentyloxy)carbonyl]cytidine", "Ro 09-1978/000", "Capecitabine", "Ro 09-1978", "5\u2032-Deoxy-5-fluoro-N4-(pentyloxycarbonyl)cytidine", "Xeloda", "Capecitibine", "Capecytabine", "Capiibine", "Captabin", "N4-Pentyloxycarbonyl-5\u2032-deoxy-5-fluorocytidine", "Capacetrine", "Ecansya", "Capecitabine Medac", "Capecitabine Accord", "Capecitabine Teva", "Capecitabine SUN", "Xeltabin"], "SMILES": "OC1C(OC(C)C1O)N2C(=O)N=C(NC(OCCCCC)=O)C(F)=C2", "physical_data": {"Molecular Weight": "359.35", "Molecular Formula": "C15H22FN3O6", "Melting Point": "88-89 \u00b0C"}}