{"cas_no": "15438-70-7", "cn_name": "N,N'-\u4e8c(2-\u7f9f\u57fa\u4e59\u57fa)-\u8132", "en_name": ["N,N\u2032-Bis(2-hydroxyethyl)urea", "Urea, N,N\u2032-bis(2-hydroxyethyl)-", "Urea, 1,3-bis(2-hydroxyethyl)-", "N,N\u2032-Bis(2-hydroxyethyl)urea", "1,3-Di(\u03b2-hydroxyethyl)urea", "1,3-Bis(2-hydroxyethyl)urea", "Diethanolurea", "Diethylolurea", "NSC 75436", "N,N\u2032-Di(2-hydroxyethyl)urea"], "SMILES": "C(NCCO)(NCCO)=O", "physical_data": {"Molecular Weight": "148.16", "Molecular Formula": "C5H12N2O3", "Melting Point": "83 \u00b0C"}}