{"cas_no": "15433-79-1", "cn_name": "5-[(\u4e8c\u7532\u57fa\u6c28\u57fa)\u7532\u57fa]-2-\u544b\u5583\u7532\u9187", "en_name": ["5-(Dimethylaminomethyl)furfuryl alcohol", "2-Furanmethanol, 5-[(dimethylamino)methyl]-", "Furfuryl alcohol, 5-[(dimethylamino)methyl]-", "5-[(Dimethylamino)methyl]-2-furanmethanol", "5-(Hydroxymethyl)-2-furfuryldimethylamine", "5-(Dimethylaminomethyl)furfuryl alcohol", "5-(Dimethylaminomethyl)-2-furanylmethanol", "2-(Dimethylaminomethyl)-5-(hydroxymethyl)furan", "5-(Dimethylaminomethyl)-2-(hydroxymethyl)furan"], "SMILES": "C(N(C)C)C=1OC(CO)=CC1", "physical_data": {"Molecular Weight": "155.19", "Molecular Formula": "C8H13NO2", "Boiling Point": "110-111 \u00b0C @ Press: 3 Torr", "Density": "1.07 g/cm\u00b3 @ Temp: 25 \u00b0C"}}