{"cas_no": "15440-98-9", "cn_name": "\u5bf9\u5df1\u6c27\u57fa\u785d\u57fa\u82ef", "en_name": ["1-(Hexyloxy)-4-nitrobenzene", "Benzene, 1-(hexyloxy)-4-nitro-", "Ether, hexyl p-nitrophenyl", "1-(Hexyloxy)-4-nitrobenzene", "4-Hexyloxynitrobenzene", "p-Nitrophenyl hexyl ether", "Hexyl p-nitrophenyl ether", "4-Hexyloxy-1-nitrobenzene", "1-Hexyloxy-4-nitrobenzene"], "SMILES": "O(CCCCCC)C1=CC=C(N(=O)=O)C=C1", "physical_data": {"Molecular Weight": "223.27", "Molecular Formula": "C12H17NO3", "Boiling Point": "170-174 \u00b0C @ Press: 5 Torr"}}