{"cas_no": "154447-36-6", "cn_name": "LY294002/PI3K\u6291\u5236\u5242", "en_name": ["2-(4-Morpholinyl)-8-phenyl-4H-1-benzopyran-4-one", "4H-1-Benzopyran-4-one, 2-(4-morpholinyl)-8-phenyl-", "2-(4-Morpholinyl)-8-phenyl-4H-1-benzopyran-4-one", "LY 294002", "8-Phenyl-2-(morpholin-4-yl)-chromen-4-one", "NSC 697286", "SF 1101", "2-Morpholin-4-yl-8-phenylchromen-4-one", "2-Morpholino-8-phenyl-4H-chromen-4-one", "LY2094002"], "SMILES": "O=C1C=2C(=C(C=CC2)C3=CC=CC=C3)OC(=C1)N4CCOCC4", "physical_data": {"Molecular Weight": "307.34", "Molecular Formula": "C19H17NO3", "Melting Point": "184 \u00b0C"}}