{"cas_no": "1544-86-1", "cn_name": "4-(\u4e8c\u6c1f\u7532\u6c27\u57fa)\u785d\u57fa\u82ef", "en_name": ["1-(Difluoromethoxy)-4-nitrobenzene", "Benzene, 1-(difluoromethoxy)-4-nitro-", "Anisole, \u03b1,\u03b1-difluoro-p-nitro-", "1-(Difluoromethoxy)-4-nitrobenzene", "\u03b1,\u03b1-Difluoro-p-nitroanisole", "p-Nitrophenyl difluoromethyl ether", "Difluoromethyl 4-nitrophenyl ether", "1-Difluoromethoxy-4-nitrobenzene", "4-(Difluoromethoxy)nitrobenzene", "2-Difluoromethoxy-5-nitrobenzene"], "SMILES": "O(C(F)F)C1=CC=C(N(=O)=O)C=C1", "physical_data": {"Molecular Weight": "189.12", "Molecular Formula": "C7H5F2NO3", "Melting Point": "30-31 \u00b0C"}}