{"cas_no": "154461-65-1", "cn_name": "\u82a5\u5b50\u919b\u8461\u8404\u7cd6\u82f7", "en_name": ["(2E)-3-[4-(\u03b2-D-Glucopyranosyloxy)-3,5-dimethoxyphenyl]-2-propenal", "2-Propenal, 3-[4-(\u03b2-D-glucopyranosyloxy)-3,5-dimethoxyphenyl]-, (2E)-", "2-Propenal, 3-[4-(\u03b2-D-glucopyranosyloxy)-3,5-dimethoxyphenyl]-, (E)-", "(2E)-3-[4-(\u03b2-D-Glucopyranosyloxy)-3,5-dimethoxyphenyl]-2-propenal"], "SMILES": "O(C1=C(OC)C=C(C=CC=O)C=C1OC)C2OC(CO)C(O)C(O)C2O", "physical_data": {"Molecular Weight": "370.35", "Molecular Formula": "C17H22O9", "Melting Point": "221-223 \u00b0C"}}