{"cas_no": "154447-35-5", "cn_name": "2-(4-\u5417\u5549\u57fa)-4H-\u8418\u5e76[1,2-B]\u5421\u5583-4-\u916e", "en_name": ["2-(4-Morpholinyl)-4H-naphtho[1,2-b]pyran-4-one", "4H-Naphtho[1,2-b]pyran-4-one, 2-(4-morpholinyl)-", "2-(4-Morpholinyl)-4H-naphtho[1,2-b]pyran-4-one", "LY 293646", "NU 7026", "2-Morpholin-4-ylbenzo[h]chromen-4-one"], "SMILES": "O=C1C=2C(=C3C(=CC2)C=CC=C3)OC(=C1)N4CCOCC4", "physical_data": {"Molecular Weight": "281.31", "Molecular Formula": "C17H15NO3", "Melting Point": "267-269 \u00b0C"}}