{"cas_no": "15441-07-3", "cn_name": "3-(\u6c2f\u78fa\u9170\u57fa)\u4e19\u9178\u7532\u916f", "en_name": ["Propanoic acid, 3-(chlorosulfonyl)-, methyl ester", "Propanoic acid, 3-(chlorosulfonyl)-, methyl ester", "Propionic acid, 3-(chlorosulfonyl)-, methyl ester", "2-Methoxycarbonylethanesulfonyl chloride", "Methyl 3-chlorosulfonylpropionate", "Methyl 3-chlorosulfonylpropanoate", "3-Chlorosulfonylpropionic acid methyl ester", "3-Methoxy-3-oxopropanesulfonyl chloride"], "SMILES": "C(C(OC)=O)CS(Cl)(=O)=O", "physical_data": {"Molecular Weight": "186.61", "Molecular Formula": "C4H7ClO4S", "Boiling Point": "110-113 \u00b0C @ Press: 4 Torr"}}