{"cas_no": "1544-68-9", "cn_name": "4-\u6c1f\u82ef\u57fa\u5f02\u786b\u6c30\u9178\u916f", "en_name": ["4-Fluorophenyl isothiocyanate", "Benzene, 1-fluoro-4-isothiocyanato-", "Isothiocyanic acid, p-fluorophenyl ester", "1-Fluoro-4-isothiocyanatobenzene", "p-Fluorophenyl isothiocyanate", "4-Fluorophenyl isothiocyanate", "NSC 78433", "1-Isothiocyanato-4-fluorobenzene", "Benzenamine, 4-fluoro-, sulfide"], "SMILES": "N(=C=S)C1=CC=C(F)C=C1", "physical_data": {"Molecular Weight": "153.18", "Molecular Formula": "C7H4FNS", "Boiling Point": "222-226 \u00b0C @ Press: 740 Torr", "Melting Point": "23.5-25.5 \u00b0C"}}