{"cas_no": "15448-77-8", "cn_name": "4-(\u7532\u6c27\u57fa\u7fb0\u57fa)\u53cc\u73af[2.2.1]\u5e9a\u70f7-1-\u7532\u9178", "en_name": ["1-Methyl bicyclo[2.2.1]heptane-1,4-dicarboxylate", "Bicyclo[2.2.1]heptane-1,4-dicarboxylic acid, 1-methyl ester", "1,4-Norbornanedicarboxylic acid, monomethyl ester", "Bicyclo[2.2.1]heptane-1,4-dicarboxylic acid, monomethyl ester", "1-Methyl bicyclo[2.2.1]heptane-1,4-dicarboxylate", "4-(Methoxycarbonyl)bicyclo[2.2.1]heptane-1-carboxylic acid"], "SMILES": "C(OC)(=O)C12CC(C(O)=O)(CC1)CC2", "physical_data": {"Molecular Weight": "198.22", "Molecular Formula": "C10H14O4", "Melting Point": "105-107 \u00b0C"}}