{"cas_no": "15448-47-2", "cn_name": "(R)-\u73af\u6c27\u4e19\u70f7", "en_name": ["(+)-Propylene oxide", "Oxirane, 2-methyl-, (2R)-", "Propylene oxide, (R)-(+)-", "Oxirane, methyl-, (R)-", "Oxirane, methyl-, (2R)-", "(2R)-2-Methyloxirane", "(+)-Propylene oxide", "d-Propylene oxide", "(R)-Propylene oxide", "(R)-(+)-Methyloxirane", "(+)-Methyloxirane", "(R)-Methyloxirane", "(R)-1,2-Epoxypropane", "(R)-(+)-1,2-Epoxypropane", "(+)-(R)-Propylene oxide", "(R)-(+)-Propylene oxide", "(R)-Propenoxide", "(R)-2-Methyloxirane", "(2R)-Methyloxirane", "(R)-(+)-1,2-Epoxypropane", "(R)-1,2-Epoxypropane", "(2R)-2-Methyloxirane"], "SMILES": "CC1CO1", "physical_data": {"Molecular Weight": "58.08", "Molecular Formula": "C3H6O", "Boiling Point": "35 \u00b0C", "Density": "1.171 g/cm\u00b3 @ Temp: 20 \u00b0C"}}