{"cas_no": "1544-46-3", "cn_name": "\u6c1f\u4e59\u919b", "en_name": ["Acetaldehyde, fluoro-", "Acetaldehyde, fluoro-", "Fluoroacetaldehyde", "2-Fluoroethanal", "Fluoroethanal", "\u03b1-Fluoroacetaldehyde", "2-Fluoroacetaldehyde"], "SMILES": "C(C=O)F", "physical_data": {"Molecular Weight": "62.04", "Molecular Formula": "C2H3FO", "Boiling Point": "19-23 \u00b0C", "Density": "1.2410 g/cm\u00b3 @ Temp: 20 \u00b0C"}}