{"cas_no": "15441-06-2", "cn_name": "3,3'-\u4e8c\u786b\u4ee3\u4e8c\u4e19\u9178\u4e8c\u7532\u916f", "en_name": ["Dimethyl 3,3\u2032-dithiobis[propanoate]", "Propanoic acid, 3,3\u2032-dithiobis-, dimethyl ester", "Propionic acid, 3,3\u2032-dithiodi-, dimethyl ester", "Dimethyl 3,3\u2032-dithiobis[propanoate]", "Dimethyl 3,3\u2032-dithiodipropionate", "Bis(methoxycarbonylethyl) disulfide", "3,3\u2032-Dithiodipropionic acid dimethyl ester", "NSC 638709", "Bis[2-(methoxycarbonyl)ethyl] disulfide"], "SMILES": "C(CCSSCCC(OC)=O)(OC)=O", "physical_data": {"Molecular Weight": "238.32", "Molecular Formula": "C8H14O4S2", "Boiling Point": "134 \u00b0C @ Press: 6.5 Torr", "Density": "1.1825 g/cm\u00b3 @ Temp: 20 \u00b0C"}}