{"cas_no": "15448-99-4", "cn_name": "N-\u7532\u57fa\u7cd6\u7cbe", "en_name": ["N-Methylsaccharin", "1,2-Benzisothiazol-3(2H)-one, 2-methyl-, 1,1-dioxide", "1,2-Benzisothiazolin-3-one, 2-methyl-, 1,1-dioxide", "N-Methylsaccharin", "2-Methyl-1,2-benzisothiazolin-3-one 1,1-dioxide", "N-Methylbenzoic sulfimide", "NSC 39120", "2-Methyl-1,2-benzisothiazol-3-one 1,1-dioxide", "2-Methylbenzo[d]isothiazol-3(2H)-one 1,1-dioxide", "2-Methyl-1,1-dioxo-1,2-dihydro-1\u03bb*6*-benzo[d]isothiazol-3-one", "2-Methylbenzo[d]isothiazol-3(2H)-one1,1-dioxide", "2-Methyl-1,1-dioxo-1,2-benzothiazol-3-one", "2-Methyl-2,3-dihydro-1\u03bb6,2-benzothiazole-1,1,3-trione"], "SMILES": "O=C1C=2C(S(=O)(=O)N1C)=CC=CC2", "physical_data": {"Molecular Weight": "197.21", "Molecular Formula": "C8H7NO3S", "Melting Point": "130 \u00b0C"}}