{"cas_no": "154593-58-5", "cn_name": "L-3-(2-(5-\u6eb4\u567b\u5429))\u4e19\u6c28\u9178", "en_name": ["(\u03b1S)-\u03b1-Amino-5-bromo-2-thiophenepropanoic acid", "2-Thiophenepropanoic acid, \u03b1-amino-5-bromo-, (\u03b1S)-", "2-Thiophenepropanoic acid, \u03b1-amino-5-bromo-, (S)-", "(\u03b1S)-\u03b1-Amino-5-bromo-2-thiophenepropanoic acid", "(2S)-2-Amino-3-(5-bromothiophen-2-yl)propionic acid", "(2S)-Amino-3-(5-bromothiophen-2-yl)propionic acid", "(2S)-2-Amino-3-(5-bromo-2-thienyl)propanoic acid", "(2S)-2-Amino-3-(5-bromothiophen-2-yl)propanoic acid", "(S)-2-Amino-3-(5-bromothiophen-2-yl)propanoicacid"], "SMILES": "C(C(C(O)=O)N)C1=CC=C(Br)S1", "physical_data": {"Molecular Weight": "250.11", "Molecular Formula": "C7H8BrNO2S", "Melting Point": "262 \u00b0C"}}