{"cas_no": "15454-54-3", "cn_name": "\u4e00\u6c345-\u6c28\u57fa-1H-\u56db\u6c2e\u5511", "en_name": ["2H-Tetrazol-5-amine, hydrate (1:1)", "2H-Tetrazol-5-amine, hydrate (1:1)", "1H-Tetrazole, 5-amino-, monohydrate", "1H-Tetrazol-5-amine, monohydrate", "5-Aminotetrazole monohydrate", "1H-1,2,3,4-Tetrazol-5-amine hydrate"], "SMILES": "NC=1NN=NN1.O", "physical_data": {"Molecular Weight": "", "Molecular Formula": "CH3N5.H2O", "Melting Point": "203-204 \u00b0C"}}