{"cas_no": "154598-53-5", "cn_name": "1-(2-\u6c28\u57fa-5-\u6c2f\u82ef\u57fa)-2,2,2-\u4e09\u6c1f\u4e59\u916e", "en_name": ["1-(2-Amino-5-chlorophenyl)-2,2,2-trifluoroethanone", "Ethanone, 1-(2-amino-5-chlorophenyl)-2,2,2-trifluoro-", "1-(2-Amino-5-chlorophenyl)-2,2,2-trifluoroethanone", "4-Chloro-2-(trifluoroacetyl)aniline", "2-Amino-5-chlorophenyl trifluoromethyl ketone", "2-Trifluoroacetyl-4-chloroaniline", "1-(2-Amino-5-chlorophenyl)-2,2,2-trifluoroethan-1-one"], "SMILES": "C(C(F)(F)F)(=O)C1=C(N)C=CC(Cl)=C1", "physical_data": {"Molecular Weight": "223.58", "Molecular Formula": "C8H5ClF3NO", "Melting Point": "90-91 \u00b0C"}}