{"cas_no": "15457-05-3", "cn_name": "\u4e09\u6c1f\u785d\u8349\u919a", "en_name": ["Fluorodifen", "Benzene, 2-nitro-1-(4-nitrophenoxy)-4-(trifluoromethyl)-", "Ether, p-nitrophenyl \u03b1,\u03b1,\u03b1-trifluoro-2-nitro-p-tolyl", "2-Nitro-1-(4-nitrophenoxy)-4-(trifluoromethyl)benzene", "C 6989", "Preforan", "p-Nitrophenyl \u03b1,\u03b1,\u03b1-trifluoro-o-nitro-p-tolyl ether", "4-Nitrophenyl 4-(trifluoromethyl)-2-nitrophenyl ether", "Fluorodifen", "p-Nitrophenyl \u03b1,\u03b1,\u03b1-trifluoro-2-nitro-p-tolyl ether", "2,4\u2032-Dinitro-4-(trifluoromethyl) diphenyl ether", "p-Nitrophenyl 2-nitro-4-(trifluoromethyl)phenyl ether", "3-Nitro-4-(p-nitrophenoxy)-\u03b1,\u03b1,\u03b1-trifluorotoluene", "Fluorodiphen", "4\u2032-Trifluoromethyl-2\u2032,4-dinitrodiphenyl ether", "NSC 58415"], "SMILES": "O(C1=C(N(=O)=O)C=C(C(F)(F)F)C=C1)C2=CC=C(N(=O)=O)C=C2", "physical_data": {"Molecular Weight": "328.20", "Molecular Formula": "C13H7F3N2O5", "Melting Point": "94 \u00b0C"}}