{"cas_no": "154598-52-4", "cn_name": "\u4f9d\u6cd5\u97e6\u4ed1", "en_name": ["Efavirenz", "2H-3,1-Benzoxazin-2-one, 6-chloro-4-(2-cyclopropylethynyl)-1,4-dihydro-4-(trifluoromethyl)-, (4S)-", "2H-3,1-Benzoxazin-2-one, 6-chloro-4-(cyclopropylethynyl)-1,4-dihydro-4-(trifluoromethyl)-, (S)-", "2H-3,1-Benzoxazin-2-one, 6-chloro-4-(cyclopropylethynyl)-1,4-dihydro-4-(trifluoromethyl)-, (4S)-", "(4S)-6-Chloro-4-(2-cyclopropylethynyl)-1,4-dihydro-4-(trifluoromethyl)-2H-3,1-benzoxazin-2-one", "L 743726", "DMP 266", "Efavirenz", "Sustiva", "Stocrin", "(-)-Efavirenz", "EFV", "(S)-6-Chloro-4-(2-cyclopropylethynyl)-1,4-dihydro-4-(trifluoromethyl)-2H-3,1-benzoxazin-2-one", "(S)-4-(2-Cyclopropylethynyl)-6-chloro-4-(trifluoromethyl)-1,4-dihydro-2H-3,1-benzoxazin-2-one", "(S)-4-(Cyclopropylethynyl)-6-chloro-4-(trifluoromethyl)-1,4-dihydro-2H-3,1-benzoxazin-2-one", "(S)-Efavirenz", "(4S)-6-Chloro-4-(2-cyclopropylethynyl)-4-(trifluoromethyl)-1H-3,1-benzoxazin-2-one"], "SMILES": "C(#CC1CC1)C2(C(F)(F)F)C=3C(NC(=O)O2)=CC=C(Cl)C3", "physical_data": {"Molecular Weight": "315.67", "Molecular Formula": "C14H9ClF3NO2", "Melting Point": "139-141 \u00b0C"}}