{"cas_no": "15459-50-4", "cn_name": "4-\u6c2f-2,6-\u4e8c\u7898\u82ef\u915a", "en_name": ["4-Chloro-2,6-diiodophenol", "Phenol, 4-chloro-2,6-diiodo-", "4-Chloro-2,6-diiodophenol"], "SMILES": "OC1=C(I)C=C(Cl)C=C1I", "physical_data": {"Molecular Weight": "380.35", "Molecular Formula": "C6H3ClI2O", "Melting Point": "107-108 \u00b0C"}}