{"cas_no": "15450-76-7", "cn_name": "2,8-\u55b9\u5549\u4e8c\u9187", "en_name": ["8-Hydroxy-1H-quinolin-2-one", "2(1H)-Quinolinone, 8-hydroxy-", "Carbostyril, 8-hydroxy-", "2,8-Quinolinediol", "8-Hydroxy-2(1H)-quinolinone", "8-Hydroxycarbostyril", "2,8-Dihydroxyquinoline", "8-Hydroxy-2-oxo-1,2-dihydroquinoline", "NSC 108383", "8-Hydroxy-1H-quinolin-2-one", "8-Hydroxyquinolin-2-one", "2,8-Dihydroxylquinoline"], "SMILES": "OC1=C2C(C=CC(=O)N2)=CC=C1", "physical_data": {"Molecular Weight": "161.16", "Molecular Formula": "C9H7NO2", "Melting Point": "287-288 \u00b0C"}}