{"cas_no": "15450-05-2", "cn_name": "2-\u4e19\u57fa\u54aa\u5511\u5549", "en_name": ["4,5-Dihydro-2-propyl-1H-imidazole", "1H-Imidazole, 4,5-dihydro-2-propyl-", "2-Imidazoline, 2-propyl-", "4,5-Dihydro-2-propyl-1H-imidazole", "2-Propyl-2-imidazoline", "2-Propyl-1-imidazoline"], "SMILES": "C(CC)C=1NCCN1", "physical_data": {"Molecular Weight": "112.17", "Molecular Formula": "C6H12N2", "Boiling Point": "135-140 \u00b0C @ Press: 25 Torr", "Melting Point": "35.3 \u00b0C"}}