{"cas_no": "15462-91-6", "cn_name": "\u6258\u975e\u7d22\u6cee\u4e2d\u95f4\u4f53", "en_name": ["3-[2-(3,4-Dimethoxybenzoyl)-4,5-dimethoxyphenyl]-2-pentanone", "2-Pentanone, 3-[2-(3,4-dimethoxybenzoyl)-4,5-dimethoxyphenyl]-", "Benzophenone, 2-(1-ethylacetonyl)-3\u2032,4,4\u2032,5-tetramethoxy-", "3-[2-(3,4-Dimethoxybenzoyl)-4,5-dimethoxyphenyl]-2-pentanone", "3-[2-(3,4-Dimethoxybenzoyl)-4,5-dimethoxyphenyl]pentan-2-one", "3-[2-[(3,4-Dimethoxyphenyl)carbonyl]-4,5-dimethoxyphenyl]pentan-2-one"], "SMILES": "C(=O)(C1=C(C(C(C)=O)CC)C=C(OC)C(OC)=C1)C2=CC(OC)=C(OC)C=C2", "physical_data": {"Molecular Weight": "386.44", "Molecular Formula": "C22H26O6", "Melting Point": "156-157 \u00b0C"}}