{"cas_no": "15469-77-9", "cn_name": "3-\u7678\u70ef\u9178", "en_name": ["3-Decenoic acid", "3-Decenoic acid"], "SMILES": "C(CCCCCC)=CCC(O)=O", "physical_data": {"Molecular Weight": "170.25", "Molecular Formula": "C10H18O2", "Boiling Point": "157-158 \u00b0C @ Press: 17 Torr", "Melting Point": "18 \u00b0C", "Density": "0.914 g/cm\u00b3 @ Temp: 18 \u00b0C"}}