{"cas_no": "15467-25-1", "cn_name": "2-\u7532\u6c27\u57fa-1-\u4e01\u9187", "en_name": ["2-Methoxy-1-butanol", "1-Butanol, 2-methoxy-", "2-Methoxy-1-butanol", "2-Methoxy-1-hydroxybutane"], "SMILES": "C(CC)(CO)OC", "physical_data": {"Molecular Weight": "104.15", "Molecular Formula": "C5H12O2", "Boiling Point": "145-148 \u00b0C", "Melting Point": "73 \u00b0C"}}