{"cas_no": "1546-79-8", "cn_name": "1-(\u4e09\u6c1f\u4e59\u9170)\u54aa\u5511", "en_name": ["1-(Trifluoroacetyl)imidazole", "Ethanone, 2,2,2-trifluoro-1-(1H-imidazol-1-yl)-", "Imidazole, 1-(trifluoroacetyl)-", "1H-Imidazole, 1-(trifluoroacetyl)-", "2,2,2-Trifluoro-1-(1H-imidazol-1-yl)ethanone", "N-(Trifluoroacetyl)imidazole", "1-(Trifluoroacetyl)imidazole", "NSC 151965", "1-Trifluoroacetylimidazolium", "2,2,2-Trifluoro-1-imidazol-1-ylethanone", "2,2,2-Trifluoro-1-(1H-imidazol-1-yl)ethan-1-one"], "SMILES": "C(C(F)(F)F)(=O)N1C=CN=C1", "physical_data": {"Molecular Weight": "164.09", "Molecular Formula": "C5H3F3N2O", "Boiling Point": "137-138 \u00b0C"}}