{"cas_no": "1546-95-8", "cn_name": "7H-\u5341\u4e8c\u6c1f\u5e9a\u9178", "en_name": ["2,2,3,3,4,4,5,5,6,6,7,7-Dodecafluoroheptanoic acid", "Heptanoic acid, 2,2,3,3,4,4,5,5,6,6,7,7-dodecafluoro-", "2,2,3,3,4,4,5,5,6,6,7,7-Dodecafluoroheptanoic acid", "\u03c9-Monohydroperfluoroheptanoic acid", "7H-Dodecafluoroheptanoic acid", "\u03c9-Hydroperfluoroenanthic acid", "\u03c9-Hydroperfluoroheptanoic acid", "7H-Perfluoroheptanoic acid", "Dodecafluroheptylic acid"], "SMILES": "C(C(C(C(F)F)(F)F)(F)F)(C(C(C(O)=O)(F)F)(F)F)(F)F", "physical_data": {"Molecular Weight": "346.07", "Molecular Formula": "C7H2F12O2", "Boiling Point": "192 \u00b0C"}}