{"cas_no": "15474-63-2", "cn_name": "\u65e0\u6c34\u7898\u5316\u955d(III)", "en_name": ["Dysprosium iodide (DyI3)", "Dysprosium iodide (DyI3)", "Dysprosium triiodide", "Dysprosium iodide"], "SMILES": "[Dy](I)(I)I", "physical_data": {"Molecular Weight": "", "Molecular Formula": "DyI3", "Melting Point": "955 \u00b0C"}}