{"cas_no": "1547-36-0", "cn_name": "4,4,4-\u4e09\u6c1f-3-\u7f9f\u57fa-3-(\u4e09\u6c1f\u7532\u57fa)\u4e01\u9178", "en_name": ["4,4,4-Trifluoro-3-hydroxy-3-(trifluoromethyl)butanoic acid", "Butanoic acid, 4,4,4-trifluoro-3-hydroxy-3-(trifluoromethyl)-", "Butyric acid, 4,4,4-trifluoro-3-hydroxy-3-(trifluoromethyl)-", "4,4,4-Trifluoro-3-hydroxy-3-(trifluoromethyl)butanoic acid", "4,4,4-Trifluoro-3-hydroxy-3-(trifluoromethyl)butyric acid", "3-Hydroxy-4,4,4-trifluoro-3-(trifluoromethyl)butanoic acid"], "SMILES": "C(CC(O)=O)(C(F)(F)F)(C(F)(F)F)O", "physical_data": {"Molecular Weight": "226.07", "Molecular Formula": "C5H4F6O3", "Melting Point": "89-89.5 \u00b0C"}}