{"cas_no": "15471-17-7", "cn_name": "\u4e19\u70f7\u78fa\u9178\u5421\u5576\u76d0", "en_name": ["3-(1-Pyridinio)-1-propanesulfonate", "Pyridinium, 1-(3-sulfopropyl)-, inner salt", "Pyridinium, 1-(3-sulfopropyl)-, hydroxide, inner salt", "1-(3-Sulfopropyl)pyridinium hydroxide, inner salt", "N-Propylpyridinesulfonic acid betaine", "1-Pyridiniumpropane-3-sulfonate", "1-(3-Sulfopropyl)pyridinium betaine", "NDSB 201", "PPS", "3-(1-Pyridinio)-1-propanesulfonate", "3-Pyridin-1-ium-1-ylpropane-1-sulfonate", "3-(1-Pyridino)-1-propane sulfonate"], "SMILES": "C(CCS(=O)(=O)[O-])[N+]=1C=CC=CC1", "physical_data": {"Molecular Weight": "", "Molecular Formula": "C8H11NO3S", "Melting Point": "272-274 \u00b0C"}}