{"cas_no": "15474-96-1", "cn_name": "\u6c2f\u4e59\u9170\u57fa\u7518\u6c28\u9170\u7518\u6c28\u9178", "en_name": ["N-(2-Chloroacetyl)glycylglycine", "Glycine, N-(2-chloroacetyl)glycyl-", "Glycine, N-[N-(chloroacetyl)glycyl]-", "Glycine, N-(chloroacetyl)glycyl-", "N-(2-Chloroacetyl)glycylglycine", "N-Chloroacetyl diglycine", "Chloroacetylglycylglycine", "N-Chloroacetyl glycylglycine", "Chloroacetyldiglycine", "NSC 89653", "2-[[2-[(2-Chloroacetyl)amino]acetyl]amino]acetic acid", "2-[2-(2-Chloroacetamido)acetamido]acetic acid"], "SMILES": "C(CNC(CCl)=O)(NCC(O)=O)=O", "physical_data": {"Molecular Weight": "208.60", "Molecular Formula": "C6H9ClN2O4", "Melting Point": "175-176 \u00b0C", "Density": "1.564 g/cm\u00b3"}}