{"cas_no": "15486-19-8", "cn_name": "\u53cd\u5f0f-4-\u4e59\u9170\u6c27\u57fa\u8089\u6842\u9178", "en_name": ["3-[4-(Acetyloxy)phenyl]-2-propenoic acid", "2-Propenoic acid, 3-[4-(acetyloxy)phenyl]-", "Cinnamic acid, p-hydroxy-, acetate", "3-[4-(Acetyloxy)phenyl]-2-propenoic acid", "p-Acetoxycinnamic acid", "4-Acetoxycinnamic acid", "3-(4-Acetoxyphenyl)-2-propenoic acid", "NSC 40967", "3-(4-Acetoxyphenyl)acrylic acid", "4-Acetyloxycinnamic acid"], "SMILES": "O(C(C)=O)C1=CC=C(C=CC(O)=O)C=C1", "physical_data": {"Molecular Weight": "206.19", "Molecular Formula": "C11H10O4", "Melting Point": "205.5-206 \u00b0C"}}