{"cas_no": "15480-00-9", "cn_name": "2-(2-\u6c2f\u82ef\u6c27)\u4e59\u9187", "en_name": ["2-(2-Chlorophenoxy)ethanol", "Ethanol, 2-(2-chlorophenoxy)-", "Ethanol, 2-(o-chlorophenoxy)-", "2-(2-Chlorophenoxy)ethanol", "2-(o-Chlorophenoxy)ethanol", "2-Chlorophenoxyethanol", "\u03b2-(o-Chlorophenoxy)ethanol", "2-(2-Chlorophenoxy)ethan-1-ol"], "SMILES": "O(CCO)C1=C(Cl)C=CC=C1", "physical_data": {"Molecular Weight": "172.61", "Molecular Formula": "C8H9ClO2", "Boiling Point": "159-161 \u00b0C @ Press: 22 Torr", "Melting Point": "107-108 \u00b0C"}}