{"cas_no": "15486-96-1", "cn_name": "3-\u6eb4\u4e19\u9170\u6c2f", "en_name": ["3-Bromopropanoyl chloride", "Propanoyl chloride, 3-bromo-", "Propionyl chloride, 3-bromo-", "3-Bromopropanoyl chloride", "3-Bromopropionyl chloride", "\u03b2-Bromopropionyl chloride", "\u03b2-Bromopropanoyl chloride", "\u03c9-Bromopropanoyl chloride", "3-Bromopropanoic acid chloride"], "SMILES": "C(C(Cl)=O)CBr", "physical_data": {"Molecular Weight": "171.42", "Molecular Formula": "C3H4BrClO", "Boiling Point": "115-117 \u00b0C @ Press: 30 Torr"}}