{"cas_no": "15486-33-6", "cn_name": "3,5-DIHYDROXY-4',7-DIMETHOXYFLAVONE", "en_name": ["Kaempferol-7,4\u2032-dimethyl ether", "4H-1-Benzopyran-4-one, 3,5-dihydroxy-7-methoxy-2-(4-methoxyphenyl)-", "Flavone, 3,5-dihydroxy-4\u2032,7-dimethoxy-", "3,5-Dihydroxy-7-methoxy-2-(4-methoxyphenyl)-4H-1-benzopyran-4-one", "3,5-Dihydroxy-7,4\u2032-dimethoxyflavone", "3,5-Dihydroxy-4\u2032,7-dimethoxyflavone", "4\u2032,7-Dimethylkaempferol", "Kaempferol 4\u2032,7-dimethyl ether", "Kaempferol-7,4\u2032-dimethyl ether", "7,4\u2032-Di-O-methylkaempferol", "7,4\u2032-Dimethoxykaempferol", "7,4\u2032-Dimethylkaempferol", "4\u2032,7-Dimethoxykaempferol", "3,5-Dihydroxy-7-methoxy-2-(4-methoxyphenyl)-4H-chromen-4-one", "3,5-Dihydroxy-7-methoxy-2-(4-methoxyphenyl)chromen-4-one"], "SMILES": "O=C1C=2C(OC(=C1O)C3=CC=C(OC)C=C3)=CC(OC)=CC2O", "physical_data": {"Molecular Weight": "314.29", "Molecular Formula": "C17H14O6", "Melting Point": "180-182 \u00b0C"}}