{"cas_no": "15486-34-7", "cn_name": "\u83b0\u975e\u9187-3,7,4'-\u4e09\u7532\u919a", "en_name": ["5-Hydroxy-3,7,4\u2032-trimethoxyflavone", "4H-1-Benzopyran-4-one, 5-hydroxy-3,7-dimethoxy-2-(4-methoxyphenyl)-", "Flavone, 5-hydroxy-3,4\u2032,7-trimethoxy-", "5-Hydroxy-3,7-dimethoxy-2-(4-methoxyphenyl)-4H-1-benzopyran-4-one", "Kaempferol 3,4\u2032,7-trimethyl ether", "3,4\u2032,7-Tri-O-methylkaempferol", "5-Hydroxy-3,4\u2032,7-trimethoxyflavone", "5-Hydroxy-3,7,4\u2032-trimethoxyflavone", "3,4\u2032,7-Trimethylkaempferol", "3,7,4\u2032-Tri-O-methylkaempferol", "Kaempferol 3,7,4\u2032-trimethyl ether", "3,7,4\u2032-Trimethylkaempferol", "NSC 675951", "5-Hydroxy-3,7-dimethoxy-2-(4-methoxyphenyl)-4H-chromen-4-one"], "SMILES": "O(C)C1=C(OC=2C(C1=O)=C(O)C=C(OC)C2)C3=CC=C(OC)C=C3", "physical_data": {"Molecular Weight": "328.32", "Molecular Formula": "C18H16O6", "Melting Point": "145-146 \u00b0C"}}