{"cas_no": "15484-80-7", "cn_name": "4-\u53d4\u4e01\u57fa\u82ef\u7532\u9178\u4e59\u70ef\u916f", "en_name": ["Ethenyl 4-(1,1-dimethylethyl)benzoate", "Benzoic acid, 4-(1,1-dimethylethyl)-, ethenyl ester", "Benzoic acid, p-tert-butyl-, vinyl ester", "Ethenyl 4-(1,1-dimethylethyl)benzoate", "Vinyl 4-(1,1-dimethylethyl)benzoate", "Vinyl p-tert-butylbenzoate", "Vinyl 4-tert-butylbenzoate"], "SMILES": "C(OC=C)(=O)C1=CC=C(C(C)(C)C)C=C1", "physical_data": {"Molecular Weight": "204.26", "Molecular Formula": "C13H16O2", "Boiling Point": "100-105 \u00b0C @ Press: 0.5 Torr", "Density": "1.0029 g/cm\u00b3 @ Temp: 20 \u00b0C"}}