{"cas_no": "15484-46-5", "cn_name": "2-(\u7f9f\u7532\u57fa)\u4e19\u70ef\u9178\u7532\u916f", "en_name": ["Methyl 2-(hydroxymethyl)-2-propenoate", "2-Propenoic acid, 2-(hydroxymethyl)-, methyl ester", "Acrylic acid, 2-(hydroxymethyl)-, methyl ester", "Hydracrylic acid, 2-methylene-, methyl ester", "Methyl 2-(hydroxymethyl)-2-propenoate", "Methyl 2-(hydroxymethyl)acrylate", "Methyl \u03b1-(hydroxymethyl)acrylate", "Methyl 2-hydroxymethyl-2-propenoate", "Methyl 2-hydroxymethacrylate", "\u03b1-(Hydroxymethyl)acrylic acid methyl ester"], "SMILES": "C(C(OC)=O)(CO)=C", "physical_data": {"Molecular Weight": "116.12", "Molecular Formula": "C5H8O3", "Boiling Point": "63-65 \u00b0C @ Press: 2.3 Torr"}}