{"cas_no": "154801-30-6", "cn_name": "2-(2'-HYDROXYTETRACOSANOYLAMINO)-OCTADECANE-1,3,4-TRIOL", "en_name": ["(2S,3S,4R)-2-[(2\u2032R)-2\u2032-hydroxytetracosanoylamino]-1,3,4-octadecanetriol", "Tetracosanamide, N-[(1S,2S,3R)-2,3-dihydroxy-1-(hydroxymethyl)heptadecyl]-2-hydroxy-, (2R)-", "Tetracosanamide, N-[2,3-dihydroxy-1-(hydroxymethyl)heptadecyl]-2-hydroxy-, [1S-[1R*(S*),2R*,3S*]]-", "(2R)-N-[(1S,2S,3R)-2,3-Dihydroxy-1-(hydroxymethyl)heptadecyl]-2-hydroxytetracosanamide", "(2S,3S,4R)-2-[(2\u2032R)-2\u2032-hydroxytetracosanoylamino]-1,3,4-octadecanetriol", "(2S,3S,4R,2\u2032R)-2-(2\u2032-Hydroxytetracosanoylamino)-octadecane-1,3,4-triol", "Elasticamide", "t18:0-24:0h"], "SMILES": "C(NC(C(CCCCCCCCCCCCCCCCCCCCCC)O)=O)(C(C(CCCCCCCCCCCCCC)O)O)CO", "physical_data": {"Molecular Weight": "684.13", "Molecular Formula": "C42H85NO5", "Melting Point": "140-142 \u00b0C"}}