{"cas_no": "1548-13-6", "cn_name": "4-\u4e09\u6c1f\u7532\u57fa\u82ef\u5f02\u6c30\u9178", "en_name": ["4-(Trifluoromethyl)phenyl isocyanate", "Benzene, 1-isocyanato-4-(trifluoromethyl)-", "Isocyanic acid, \u03b1,\u03b1,\u03b1-trifluoro-p-tolyl ester", "1-Isocyanato-4-(trifluoromethyl)benzene", "p-Trifluoromethylphenyl isocyanate", "4-(Trifluoromethyl)phenyl isocyanate", "\u03b1,\u03b1,\u03b1-Trifluoro-p-tolyl isocyanate", "Trifluoro-p-tolyl isocyanate", "p-Trifluorophenyl isocyanate"], "SMILES": "C(F)(F)(F)C1=CC=C(N=C=O)C=C1", "physical_data": {"Molecular Weight": "187.12", "Molecular Formula": "C8H4F3NO", "Boiling Point": "58-59 \u00b0C @ Press: 10 Torr", "Density": "1.3363 g/cm\u00b3 @ Temp: 20 \u00b0C"}}