{"cas_no": "1548-74-9", "cn_name": "4-\u6c28\u57fa-2,3,5,6-\u56db\u6c1f\u82ef\u7532\u9170\u80fa", "en_name": ["4-Amino-2,3,5,6-tetrafluorobenzamide", "Benzamide, 4-amino-2,3,5,6-tetrafluoro-", "4-Amino-2,3,5,6-tetrafluorobenzamide", "NSC 97005"], "SMILES": "C(N)(=O)C1=C(F)C(F)=C(N)C(F)=C1F", "physical_data": {"Molecular Weight": "208.11", "Molecular Formula": "C7H4F4N2O", "Melting Point": "171-171.5 \u00b0C"}}