{"cas_no": "15481-39-7", "cn_name": "\u6eb4-1,4-\u4e8c\u6c27\u516d\u73af\u590d\u5408\u7269", "en_name": ["1,4-Dioxane, compd. with bromine (1:1)", "1,4-Dioxane, compd. with bromine (1:1)", "p-Dioxane, compd. with bromine (1:1)", "p-Dioxane, dibromide", "Bromine, compd. with p-dioxane (1:1)", "Bromine, compd. with 1,4-dioxane (1:1)", "Dioxane bromonium bromide", "Dioxane dibromide", "Bromine-dioxane complex (1:1)", "Bromine-dioxane (1:1)", "NSC 80646"], "SMILES": "C1COCCO1.BrBr", "physical_data": {"Molecular Weight": "", "Molecular Formula": "C4H8O2.Br2", "Melting Point": "60-61 \u00b0C"}}