{"cas_no": "1548-84-1", "cn_name": "\u82ef\u7532\u9178\u4e94\u6c1f\u82ef\u916f", "en_name": ["Phenol, 2,3,4,5,6-pentafluoro-, 1-benzoate", "Phenol, 2,3,4,5,6-pentafluoro-, 1-benzoate", "Phenol, pentafluoro-, benzoate", "Pentafluorophenyl benzoate"], "SMILES": "O(C(=O)C1=CC=CC=C1)C2=C(F)C(F)=C(F)C(F)=C2F", "physical_data": {"Molecular Weight": "288.17", "Molecular Formula": "C13H5F5O2", "Melting Point": "76.5-78.2 \u00b0C"}}