{"cas_no": "15492-52-1", "cn_name": "\u4e09(2,2,6,6-\u56db\u7532\u57fa-3,5-\u5e9a\u4e8c\u916e\u9178)\u9571", "en_name": ["(OC-6-11)-Tris(2,2,6,6-tetramethyl-3,5-heptanedionato-\u03baO3,\u03baO5)ytterbium", "Ytterbium, tris(2,2,6,6-tetramethyl-3,5-heptanedionato-\u03baO3,\u03baO5)-, (OC-6-11)-", "Ytterbium, tris(2,2,6,6-tetramethyl-3,5-heptanedionato)-", "Ytterbium, tris(2,2,6,6-tetramethyl-3,5-heptanedionato-O,O\u2032)-, (OC-6-11)-", "Ytterbium, tris(2,2,6,6-tetramethyl-3,5-heptanedionato-\u03baO,\u03baO\u2032)-, (OC-6-11)-", "3,5-Heptanedione, 2,2,6,6-tetramethyl-, ytterbium complex", "(OC-6-11)-Tris(2,2,6,6-tetramethyl-3,5-heptanedionato-\u03baO3,\u03baO5)ytterbium", "Tris(dipivaloylmethanato)ytterbium", "Tris(2,2,6,6-tetramethyl-3,5-heptanedionato)ytterbium(III)", "Tris(dipivaloylmethanato)ytterbium(III)", "Tris(2,2,6,6-tetramethyl-3,5-heptanedionato)ytterbium", "NSC 177672"], "SMILES": "C(C)(C)(C)C1=O[Yb+3]23(O=C(C(C)(C)C)[CH-]C(C(C)(C)C)=O2)(O=C(C(C)(C)C)[CH-]C(C(C)(C)C)=O3)O=C(C(C)(C)C)[CH-]1", "physical_data": {"Molecular Weight": "", "Molecular Formula": "C33H57O6Yb", "Melting Point": "163 \u00b0C"}}