{"cas_no": "15492-51-0", "cn_name": "\u4e09(2,2,6,6-\u56db\u7532\u57fa-3,5-\u5e9a\u4e8c\u916e\u9178)\u94fd", "en_name": ["(OC-6-11)-Tris(2,2,6,6-tetramethyl-3,5-heptanedionato-\u03baO3,\u03baO5)terbium", "Terbium, tris(2,2,6,6-tetramethyl-3,5-heptanedionato-\u03baO3,\u03baO5)-, (OC-6-11)-", "Terbium, tris(2,2,6,6-tetramethyl-3,5-heptanedionato)-", "Terbium, tris(2,2,6,6-tetramethyl-3,5-heptanedionato-O,O\u2032)-, (OC-6-11)-", "Terbium, tris(2,2,6,6-tetramethyl-3,5-heptanedionato-\u03baO,\u03baO\u2032)-, (OC-6-11)-", "3,5-Heptanedione, 2,2,6,6-tetramethyl-, terbium complex", "(OC-6-11)-Tris(2,2,6,6-tetramethyl-3,5-heptanedionato-\u03baO3,\u03baO5)terbium", "Tris(dipivaloylmethanato)terbium", "Tris(2,2,6,6-tetramethyl-3,5-heptanedionato)terbium", "Terbium, tris(2,2,6,6-tetramethylhepta-3,5-dionato)-", "Terbium tris(tetramethylheptanedionate)", "NSC 174886"], "SMILES": "C(C)(C)(C)C1=O[Tb+3]23(O=C(C(C)(C)C)[CH-]C(C(C)(C)C)=O2)(O=C(C(C)(C)C)[CH-]C(C(C)(C)C)=O3)O=C(C(C)(C)C)[CH-]1", "physical_data": {"Molecular Weight": "", "Molecular Formula": "C33H57O6Tb", "Melting Point": "180 \u00b0C"}}