{"cas_no": "154970-45-3", "cn_name": "5-\u964d\u51b0\u7247\u70ef-2-\u7fa7\u9178\u53d4\u4e01\u916f", "en_name": ["1,1-Dimethylethyl bicyclo[2.2.1]hept-5-ene-2-carboxylate", "Bicyclo[2.2.1]hept-5-ene-2-carboxylic acid, 1,1-dimethylethyl ester", "1,1-Dimethylethyl bicyclo[2.2.1]hept-5-ene-2-carboxylate", "5-tert-Butoxycarbonylbicyclo[2.2.1]hept-2-ene", "tert-Butyl 5-norbornene-2-carboxylate", "Bicyclo[2,2,1 ]hept-5-ene-2-tert-butylcarboxylate", "Norbornene carboxylic acid tert-butyl ester", "tert-Butyl 2-norbornene-5-carboxylate"], "SMILES": "C(OC(C)(C)C)(=O)C1C2CC(C1)C=C2", "physical_data": {"Molecular Weight": "194.27", "Molecular Formula": "C12H18O2", "Boiling Point": "44-46 \u00b0C @ Press: 0.4-0.5 Torr"}}