{"cas_no": "154934-99-3", "cn_name": "2-\u6c2f-4-(\u4e09\u6c1f\u7532\u57fa)\u5421\u5576-5-\u7fb0\u9170\u6c2f", "en_name": ["2-Chloro-4-(trifluoromethyl)-5-pyrimidinecarbonyl chloride", "5-Pyrimidinecarbonyl chloride, 2-chloro-4-(trifluoromethyl)-", "2-Chloro-4-(trifluoromethyl)-5-pyrimidinecarbonyl chloride", "2-Chloro-4-trifluoromethyl-5-pyrimidinecarboxylic acid chloride", "2-Chloro-4-trifluoromethylpyrimidine-5-carboxylic acid", "2-Chloro-4-trifluoromethylpyrimidine-5-carbonyl chloride"], "SMILES": "C(F)(F)(F)C=1C(C(Cl)=O)=CN=C(Cl)N1", "physical_data": {"Molecular Weight": "244.99", "Molecular Formula": "C6HCl2F3N2O", "Melting Point": "158 \u00b0C"}}