{"cas_no": "154992-24-2", "cn_name": "RU-58841", "en_name": ["4-[3-(4-Hydroxybutyl)-4,4-dimethyl-2,5-dioxo-1-imidazolidinyl]-2-(trifluoromethyl)benzonitrile", "Benzonitrile, 4-[3-(4-hydroxybutyl)-4,4-dimethyl-2,5-dioxo-1-imidazolidinyl]-2-(trifluoromethyl)-", "4-[3-(4-Hydroxybutyl)-4,4-dimethyl-2,5-dioxo-1-imidazolidinyl]-2-(trifluoromethyl)benzonitrile", "RU 58841", "4-(4,4-Dimethyl-2,5-dioxo-3-(4-hydroxybutyl)1-imidazolidinyl)-2-(trifluoromethyl)benzonitrile", "4-[3-(4-Hydroxybutyl)-4,4-dimethyl-2,5-dioxo-1-imidazolidinyl]-2-trifluoromethylbenzonitrile"], "SMILES": "O=C1N(C(=O)C(C)(C)N1CCCCO)C2=CC(C(F)(F)F)=C(C#N)C=C2", "physical_data": {"Molecular Weight": "369.34", "Molecular Formula": "C17H18F3N3O3", "Melting Point": "71-72 \u00b0C"}}