{"cas_no": "155-58-8", "cn_name": "\u52d2\u80d6\u505c", "en_name": ["Rhaponticin", "\u03b2-D-Glucopyranoside, 3-hydroxy-5-[(1E)-2-(3-hydroxy-4-methoxyphenyl)ethenyl]phenyl", "Rhapontin", "\u03b2-D-Glucopyranoside, 3-hydroxy-5-[2-(3-hydroxy-4-methoxyphenyl)ethenyl]phenyl, (E)-", "3-Hydroxy-5-[(1E)-2-(3-hydroxy-4-methoxyphenyl)ethenyl]phenyl \u03b2-D-glucopyranoside", "Ponticin", "Rhaponticin", "3,3\u2032,5-Trihydroxy-4\u2032-methoxystilbene 3-\u03b2-D-glucopyranoside", "4\u2032-Methoxy-3,3\u2032,5-stilbenetriol 3-\u03b2-D-glucopyranoside", "NSC 43321", "Rhaponticoside", "Rhapontinum", "trans-Rhapontin"], "SMILES": "O(C1OC(CO)C(O)C(O)C1O)C2=CC(C=CC3=CC(O)=C(OC)C=C3)=CC(O)=C2", "physical_data": {"Molecular Weight": "420.41", "Molecular Formula": "C21H24O9", "Melting Point": "230 \u00b0C"}}