{"cas_no": "155-90-8", "cn_name": "2-\u6c28\u57fa-4-\u7532\u6c27\u57fa\u5627\u5576", "en_name": ["4-Methoxy-2-pyrimidinamine", "2-Pyrimidinamine, 4-methoxy-", "Pyrimidine, 2-amino-4-methoxy-", "4-Methoxy-2-pyrimidinamine", "2-Amino-4-methoxypyrimidine", "4-Methoxy-2-aminopyrimidine", "NSC 25503", "(4-Methoxypyrimidin-2-yl)amine"], "SMILES": "O(C)C1=NC(N)=NC=C1", "physical_data": {"Molecular Weight": "125.13", "Molecular Formula": "C5H7N3O", "Melting Point": "119-120 \u00b0C"}}