{"cas_no": "155-91-9", "cn_name": "\u78fa\u80fa\u95f4\u4e8c\u7532\u6c27\u5627\u5576", "en_name": ["Sulfadimethoxypyrimidine", "Benzenesulfonamide, 4-amino-N-(4,6-dimethoxy-2-pyrimidinyl)-", "Sulfanilamide, N1-(4,6-dimethoxy-2-pyrimidinyl)-", "Sulfanilamide, N1-(4,6-dimethoxy-2-pyrimidyl)-", "4-Amino-N-(4,6-dimethoxy-2-pyrimidinyl)benzenesulfonamide", "ICI 3435", "Sulfamoprine", "Sulfadimethoxypyrimidine", "NSC 8560"], "SMILES": "N(S(=O)(=O)C1=CC=C(N)C=C1)C=2N=C(OC)C=C(OC)N2", "physical_data": {"Molecular Weight": "310.33", "Molecular Formula": "C12H14N4O4S", "Melting Point": "171.5 \u00b0C"}}