{"cas_no": "155-10-2", "cn_name": "4-\u6c28\u57fa-2-\u6c2f-5-\u6c1f\u5627\u5576", "en_name": ["2-Chloro-5-fluoro-4-pyrimidinamine", "4-Pyrimidinamine, 2-chloro-5-fluoro-", "Pyrimidine, 4-amino-2-chloro-5-fluoro-", "2-Chloro-5-fluoro-4-pyrimidinamine", "4-Amino-2-chloro-5-fluoropyrimidine", "2-Chloro-5-fluoropyrimidin-4-ylamine", "NSC 78716", "2-Chloro-5-fluoropyrimidin-4-amine", "2-Chloro-5-fluoro-4-aminopyrimidine"], "SMILES": "NC=1C(F)=CN=C(Cl)N1", "physical_data": {"Molecular Weight": "147.54", "Molecular Formula": "C4H3ClFN3", "Melting Point": "191-193 \u00b0C"}}