{"cas_no": "155-09-9", "cn_name": "\u53cd-2-\u82ef\u57fa\u73af\u4e19\u80fa", "en_name": ["Tranylcypromine", "Cyclopropanamine, 2-phenyl-, (1R,2S)-rel-", "Cyclopropylamine, 2-phenyl-, trans-(\u00b1)-", "Cyclopropanamine, 2-phenyl-, trans-(\u00b1)-", "rel-(1R,2S)-2-Phenylcyclopropanamine", "dl-Tranylcypromine", "Tranylcypromine", "Transamine", "SKF 385", "trans-dl-2-Phenylcyclopropylamine", "(\u00b1)-Tranylcypromine", "trans-(\u00b1)-2-Phenylcyclopropylamine", "(RS)-Tranylcypromine", "trans-2-Phenylcyclopropylamine", "trans-Phenylcyclopropylamine", "trans-2-Phenylcyclopropanamine", "trans-2-Phenyl-1-cyclopropylamine", "trans-1-Amino-2-phenylcyclopropane", "(RS)-trans-2-Phenylcyclopropylamine", "trans-SKF 385", "NSC 80664", "(1R,2S)-rel-2-Phenylcyclopropanamine", "(\u00b1)-trans-2-Phenylcyclopropylamine", "trans-2-Phenylcyclopropan-1-amine", "MeSH ID: D014191"], "SMILES": "NC1C(C1)C2=CC=CC=C2", "physical_data": {"Molecular Weight": "133.19", "Molecular Formula": "C9H11N", "Boiling Point": "79-80 \u00b0C @ Press: 1.5-1.6 Torr", "Melting Point": "28 \u00b0C"}}