{"cas_no": "155-04-4", "cn_name": "2-\u5def\u57fa\u82ef\u5e76\u567b\u5511\u950c\u76d0", "en_name": ["Zinc 2-mercaptobenzothiazole", "2(3H)-Benzothiazolethione, zinc salt (2:1)", "2(3H)-Benzothiazolethione, zinc salt", "Benzothiazole, 2-mercapto-, zinc salt", "2-Mercaptobenzothiazole zinc salt", "OXAF", "Pennac ZT", "Tisperse MB 58", "Zenite", "Zenite Special", "Zetax", "Zinc mercaptobenzothiazolate", "Zinc 2-mercaptobenzothiazole", "Zinc mercaptobenzothiazole", "ZMBT", "Zinc benzothiazolylmercaptide", "Zinc 2-benzothiazolethiolate", "Mercaptobenzothiazole zinc salt", "Bis(2-benzothiazolylthio)zinc", "Zinc benzothiazol-2-ylthiolate", "Zinc mercaptobenzothiazole salt", "Zinc bis(mercaptobenzothiazole)", "Bis(mercaptobenzothiazolato)zinc", "Zinc bis(2-mercaptobenzothiazole)", "Zinc benzothiazolethiolate", "2-Benzothiazolethiol zinc salt", "Hermat Zn-MBT", "Vulkacit ZM", "Bis(benzothiazole-2-thiolato)zinc", "Soxinol MZ", "Nocceler MZ", "Sanceler MZ", "Perkacit ZMBT", "MZ", "Accelerator MZ", "Curekind ZMBT 15", "Zinc 2(3H)-benzothiazolethione"], "SMILES": "S=C1NC=2C(S1)=CC=CC2.[Zn]", "physical_data": {"Molecular Weight": "", "Molecular Formula": "C7H5NS2.<sup>1</sup>/2Zn", "Melting Point": "330 \u00b0C", "Density": "1.7 g/cm\u00b3 @ Temp: 25 \u00b0C"}}