{"cas_no": "155-41-9", "cn_name": "\u7532\u6eb4\u4e1c\u83a8\u83ea\u78b1", "en_name": ["(-)-Scopolamine methobromide", "3-Oxa-9-azoniatricyclo[3.3.1.02,4]nonane, 7-[(2S)-3-hydroxy-1-oxo-2-phenylpropoxy]-9,9-dimethyl-, bromide (1:1), (1\u03b1,2\u03b2,4\u03b2,5\u03b1,7\u03b2)-", "1\u03b1H,5\u03b1H-Tropanium, 6\u03b2,7\u03b2-epoxy-3\u03b1-hydroxy-8-methyl-, bromide, (-)-tropate", "3-Oxa-9-azoniatricyclo[3.3.1.02,4]nonane, 7-(3-hydroxy-1-oxo-2-phenylpropoxy)-9,9-dimethyl-, bromide, [7(S)-(1\u03b1,2\u03b2,4\u03b2,5\u03b1,7\u03b2)]-", "N-Methylscopolammonium bromide", "3-Oxa-9-azoniatricyclo[3.3.1.02,4]nonane, 7-[(2S)-3-hydroxy-1-oxo-2-phenylpropoxy]-9,9-dimethyl-, bromide, (1\u03b1,2\u03b2,4\u03b2,5\u03b1,7\u03b2)-", "Tropic acid, (-), ester with 6\u03b2,7\u03b2-epoxy-3\u03b1-hydroxy-8-methyl-1\u03b1H,5\u03b1H-tropanium bromide", "3-Oxa-9-azatricyclo[3.3.1.02,4]nonane, 3-oxa-9-azoniatricyclo[3.3.1.02,4]nonane deriv.", "Ampyrox", "Blocan", "Diopal", "Epoxymethamine bromide", "Epoxytropine tropate methylbromide", "Holopon", "Lescopine bromide", "Mescopil", "Methscopolamine bromide", "Methscopolamin bromide", "Methylscopolamine bromide", "Nutrop", "Paraspan", "Proscomide", "Scopolamine methyl bromide", "Hyoscine methyl bromide", "Neo-Avagal", "Pamine bromide", "Restropin", "Pamine", "(-)-Scopolamine methyl bromide", "Scopolamine methobromide", "U 5036", "Hyoscine methobromide", "N-Methylscopolamine bromide", "(-)-Scopolamine methobromide", "NSC 120606", "NSC 61809", "N-Methylscopolaminium bromide"], "SMILES": "C[N+]1(C)C2C3C(O3)C1CC(OC(C(CO)C4=CC=CC=C4)=O)C2.[Br-]", "physical_data": {"Molecular Weight": "", "Molecular Formula": "C18H24NO4.Br", "Melting Point": "214-217 \u00b0C (decomp)"}}