{"cas_no": "155-84-0", "cn_name": "N-\u0391-\u4e59\u9170-L-\u7cbe\u6c28\u9178", "en_name": ["N-Acetyl-L-arginine", "L-Arginine, N2-acetyl-", "Arginine, N2-acetyl-, L-", "N2-Acetyl-L-arginine", "\u03b1-N-Acetyl-L-arginine", "N\u03b1-Acetylarginine", "N\u03b1-Acetyl-L-arginine", "N-Acetyl-L-arginine", "(2S)-2-Acetamido-5-(diaminomethylideneamino)pentanoic acid"], "SMILES": "C(CCCNC(=N)N)(NC(C)=O)C(O)=O", "physical_data": {"Molecular Weight": "216.24", "Molecular Formula": "C8H16N4O3", "Melting Point": "215 \u00b0C"}}