{"cas_no": "155-30-6", "cn_name": "\u7532\u57fa-1-\u786b\u4ee3-\u0392-D-\u534a\u4e73\u7cd6\u82f7", "en_name": ["Methyl 1-thio-\u03b2-D-galactopyranoside", "\u03b2-D-Galactopyranoside, methyl 1-thio-", "Galactopyranoside, methyl 1-thio-, \u03b2-D-", "Methyl 1-thio-\u03b2-D-galactopyranoside", "TMG", "Thiomethyl \u03b2-D-galactopyranoside", "Methyl \u03b2-thiogalactoside", "Methyl \u03b2-D-thiogalactopyranoside", "Methyl 1-thio-\u03b2-D-galactoside"], "SMILES": "C(O)C1OC(SC)C(O)C(O)C1O", "physical_data": {"Molecular Weight": "210.25", "Molecular Formula": "C7H14O5S", "Melting Point": "174-175 \u00b0C"}}