{"cas_no": "15507-52-5", "cn_name": "\u80c6\u56fa\u9187\u7532\u57fa\u78b3\u9178\u916f", "en_name": ["Cholesteryl methyl carbonate", "Cholest-5-en-3-ol (3\u03b2)-, 3-(methyl carbonate)", "Cholesterol, methyl carbonate", "Cholest-5-en-3-ol (3\u03b2)-, methyl carbonate", "Carbonic acid, cholesteryl methyl ester", "Cholesteryl methyl carbonate", "NSC 93985", "Cholest-5-en-3\u03b2-ol methyl carbonate", "5-Cholesten-3\u03b2-ol methyl carbonate"], "SMILES": "CC12C3C(C4C(C)(CC3)C(C(CCCC(C)C)C)CC4)CC=C1CC(OC(OC)=O)CC2", "physical_data": {"Molecular Weight": "444.69", "Molecular Formula": "C29H48O3", "Melting Point": "115 \u00b0C"}}