{"cas_no": "15500-60-4", "cn_name": "N,N-\u53cc(\u4e09\u7532\u57fa\u7845\u57fa)\u7532\u9170\u80fa", "en_name": ["N,N-Bis(trimethylsilyl)formamide", "Formamide, N,N-bis(trimethylsilyl)-", "N,N-Bis(trimethylsilyl)formamide", "Bis(trimethylsilyl)formamide"], "SMILES": "N([Si](C)(C)C)([Si](C)(C)C)C=O", "physical_data": {"Molecular Weight": "189.40", "Molecular Formula": "C7H19NOSi2", "Boiling Point": "71-73 \u00b0C"}}