{"cas_no": "1550-50-1", "cn_name": "N,N-\u4e8c\u7532\u57fa\u56db\u6c1f\u4e59\u80fa", "en_name": ["1,1,2,2-Tetrafluoro-N,N-dimethylethanamine", "Ethanamine, 1,1,2,2-tetrafluoro-N,N-dimethyl-", "Ethylamine, 1,1,2,2-tetrafluoro-N,N-dimethyl-", "1,1,2,2-Tetrafluoro-N,N-dimethylethanamine", "N-(1,1,2,2-Tetrafluoroethyl)dimethylamine", "N,N-Dimethyl-1,1,2,2-tetrafluoroethanamine", "1,1,2,2-Tetrafluoro-N,N-dimethylethan-1-amine", "1,1,2,2-Tetrafluoro-N,N-dimethylethylamine"], "SMILES": "C(C(F)F)(N(C)C)(F)F", "physical_data": {"Molecular Weight": "145.10", "Molecular Formula": "C4H7F4N", "Boiling Point": "32 \u00b0C @ Press: 127 Torr"}}