{"cas_no": "15501-33-4", "cn_name": "\u65b0\u620a\u57fa\u7898", "en_name": ["1-Iodo-2,2-dimethylpropane", "Propane, 1-iodo-2,2-dimethyl-", "1-Iodo-2,2-dimethylpropane", "Neopentyl iodide", "2,2-Dimethylpropyl iodide", "2,2-Dimethyl-1-iodopropane", "NSC 617421"], "SMILES": "C(CI)(C)(C)C", "physical_data": {"Molecular Weight": "198.05", "Molecular Formula": "C5H11I", "Boiling Point": "58-59 \u00b0C @ Press: 50 Torr", "Density": "1.4887 g/cm\u00b3 @ Temp: 25 \u00b0C"}}