{"cas_no": "15500-66-0", "cn_name": "\u6cee\u5e93\u6eb4\u94f5", "en_name": ["Pancuronium bromide", "Piperidinium, 1,1\u2032-[(2\u03b2,3\u03b1,5\u03b1,16\u03b2,17\u03b2)-3,17-bis(acetyloxy)androstane-2,16-diyl]bis[1-methyl-, dibromide", "Piperidinium, 1,1\u2032-(3\u03b1,17\u03b2-dihydroxy-5\u03b1-androstan-2\u03b2,16\u03b2-ylene)bis[1-methyl-, dibromide, diacetate", "5\u03b1-Androstane-3\u03b1,17\u03b2-diol, 2\u03b2,16\u03b2-bis(1-methylpiperidinio)-, dibromide, diacetate", "Androstane, piperidinium deriv.", "NA 97", "2\u03b2,16\u03b2-Dipiperidino-5\u03b1-androstane-3\u03b1,17\u03b2-diol diacetate dimethobromide", "Pancuronium bromide", "Pancuronium dibromide", "1,1\u2032-(3\u03b1,17\u03b2-Dihydroxy-5\u03b1-androstan-2\u03b2,16\u03b2-ylene)bis[1-methylpiperidinium] dibromide diacetate", "Pavulon", "Pancuronium", "Mioblock", "Org-NE 35", "Org NA 97", "NSC 293162", "Bromurex"], "SMILES": "CC12C(C3C(C4(C)C(CC3)CC(OC(C)=O)C(C4)[N+]5(C)CCCCC5)CC1)CC(C2OC(C)=O)[N+]6(C)CCCCC6.[Br-]", "physical_data": {"Molecular Weight": "", "Molecular Formula": "C35H60N2O4.2Br", "Melting Point": "215 \u00b0C"}}