{"cas_no": "1550-35-2", "cn_name": "2,4-\u4e8c\u6c1f\u82ef\u7532\u919b", "en_name": ["2,4-Difluorobenzaldehyde", "Benzaldehyde, 2,4-difluoro-", "2,4-Difluorobenzaldehyde", "4-Fluoro-2-fluorobenzaldehyde", "4,6-Difluorobenzaldehyde"], "SMILES": "C(=O)C1=C(F)C=C(F)C=C1", "physical_data": {"Molecular Weight": "142.10", "Molecular Formula": "C7H4F2O", "Boiling Point": "62-63 \u00b0C", "Melting Point": "65-66 \u00b0C"}}