{"cas_no": "15503-87-4", "cn_name": "\u5149\u843c\u91ce\u767e\u5408\u78b1(\u6807\u51c6\u54c1)", "en_name": ["Usaramine", "[1,6]Dioxacyclododecino[2,3,4-gh]pyrrolizine-2,7-dione, 3-ethylidene-3,4,5,6,9,11,13,14,14a,14b-decahydro-6-hydroxy-6-(hydroxymethyl)-5-methyl-, (3E,5R,6S,14aR,14bR)-", "Usaramine", "Senecionan-11,16-dione, 12,18-dihydroxy-, (15E)-", "Mucronatine", "(3E,5R,6S,14aR,14bR)-3-Ethylidene-3,4,5,6,9,11,13,14,14a,14b-decahydro-6-hydroxy-6-(hydroxymethyl)-5-methyl[1,6]dioxacyclododecino[2,3,4-gh]pyrrolizine-2,7-dione", "trans-Retrorsine", "(15E)-Retrorsine", "Usaramin", "(+)-Usaramine"], "SMILES": "O=C1OC2C3C(COC(=O)C(CO)(O)C(C)CC1=CC)=CCN3CC2", "physical_data": {"Molecular Weight": "351.39", "Molecular Formula": "C18H25NO6", "Melting Point": "178-180 \u00b0C"}}