{"cas_no": "15513-52-7", "cn_name": "2,6-\u4e8c\u7532\u57fa-3-\u785d\u57fa\u5421\u5576", "en_name": ["2,6-Dimethyl-3-nitropyridine", "Pyridine, 2,6-dimethyl-3-nitro-", "2,6-Lutidine, 3-nitro-", "2,6-Dimethyl-3-nitropyridine", "3-Nitro-2,6-dimethylpyridine", "3-Nitro-2,6-lutidine", "NSC 88939"], "SMILES": "N(=O)(=O)C1=C(C)N=C(C)C=C1", "physical_data": {"Molecular Weight": "152.15", "Molecular Formula": "C7H8N2O2", "Boiling Point": "220-230 \u00b0C", "Melting Point": "37 \u00b0C"}}