{"cas_no": "1551-44-6", "cn_name": "\u4e01\u9178\u73af\u5df1\u916f", "en_name": ["Cyclohexyl butyrate", "Butanoic acid, cyclohexyl ester", "Butyric acid, cyclohexyl ester", "Cyclohexyl butyrate", "Cyclohexyl butanoate", "Cyclohexyl n-butyrate", "NSC 53950"], "SMILES": "O(C(CCC)=O)C1CCCCC1", "physical_data": {"Molecular Weight": "170.25", "Molecular Formula": "C10H18O2", "Boiling Point": "213 \u00b0C", "Density": "0.9395 g/cm\u00b3 @ Temp: 15 \u00b0C"}}