{"cas_no": "15510-55-1", "cn_name": "\u5341\u4e8c\u70f7\u57fa\u4e09\u82ef\u57fa\u6eb4\u5316\u81a6", "en_name": ["Dodecyltriphenylphosphonium bromide", "Phosphonium, dodecyltriphenyl-, bromide (1:1)", "Phosphonium, dodecyltriphenyl-, bromide", "Dodecyltriphenylphosphonium bromide", "Myxal S", "D 305", "Mycal", "1-(Triphenylphosphonium)dodecyl bromide", "Triphenyldodecyl phosphonium bromide"], "SMILES": "[P+](CCCCCCCCCCCC)(C1=CC=CC=C1)(C2=CC=CC=C2)C3=CC=CC=C3.[Br-]", "physical_data": {"Molecular Weight": "", "Molecular Formula": "C30H40P.Br", "Melting Point": "93.0-93.5 \u00b0C"}}