{"cas_no": "155184-81-9", "cn_name": "2-\u6c28\u57fa-4-\u6c2f-5-\u7532\u57fa\u82ef\u7532\u9178", "en_name": ["2-Amino-4-chloro-5-methylbenzoic acid", "Benzoic acid, 2-amino-4-chloro-5-methyl-", "2-Amino-4-chloro-5-methylbenzoic acid", "4-Chloro-5-methylanthranilic acid"], "SMILES": "C(O)(=O)C1=C(N)C=C(Cl)C(C)=C1", "physical_data": {"Molecular Weight": "185.61", "Molecular Formula": "C8H8ClNO2", "Melting Point": "212-215 \u00b0C"}}