{"cas_no": "1551-27-5", "cn_name": "2-\u4e19\u57fa\u567b\u5429", "en_name": ["2-Propylthiophene", "Thiophene, 2-propyl-", "2-Propylthiophene", "2-n-Propylthiophene", "NSC 82326"], "SMILES": "C(CC)C1=CC=CS1", "physical_data": {"Molecular Weight": "126.22", "Molecular Formula": "C7H10S", "Boiling Point": "158 \u00b0C", "Density": "0.9683 g/cm\u00b3 @ Temp: 20 \u00b0C"}}