{"cas_no": "1551-21-9", "cn_name": "\u7532\u57fa\u5f02\u4e19\u57fa\u786b\u919a", "en_name": ["Isopropyl methyl sulfide", "Propane, 2-(methylthio)-", "Sulfide, isopropyl methyl", "3-Methyl-2-thiabutane", "Methyl isopropyl sulfide", "Isopropyl methyl sulfide", "2-(Methylthio)propane", "2-(Methylsulfanyl)propane", "2-Methylsulfanylpropane", "Isopropyl(methyl)sulfane"], "SMILES": "C(SC)(C)C", "physical_data": {"Molecular Weight": "90.19", "Molecular Formula": "C4H10S", "Boiling Point": "84.8 \u00b0C", "Melting Point": "-101.5 \u00b0C"}}