{"cas_no": "1552-94-9", "cn_name": "5-\u82ef\u57fa\u620a\u70f7-2,4-\u53cc\u9178", "en_name": ["5-Phenyl-2,4-pentadienoic acid", "2,4-Pentadienoic acid, 5-phenyl-", "5-Phenyl-2,4-pentadienoic acid", "Cinnamalacetic acid", "\u03b2-Styrylacrylic acid", "Cinnamylideneacetic acid", "NSC 109408", "NSC 1778", "NSC 63972", "BL 1255", "1-Carboxy-4-phenyl-1,3-butadiene", "1-Carobxy-4-phenyl-1,3-butadiene"], "SMILES": "C(=CC=CC(O)=O)C1=CC=CC=C1", "physical_data": {"Molecular Weight": "174.20", "Molecular Formula": "C11H10O2", "Melting Point": "165 \u00b0C"}}