{"cas_no": "155206-00-1", "cn_name": "\u6bd4\u9a6c\u524d\u5217\u7d20", "en_name": ["Bimatoprost", "5-Heptenamide, 7-[(1R,2R,3R,5S)-3,5-dihydroxy-2-[(1E,3S)-3-hydroxy-5-phenyl-1-penten-1-yl]cyclopentyl]-N-ethyl-, (5Z)-", "5-Heptenamide, 7-[3,5-dihydroxy-2-(3-hydroxy-5-phenyl-1-pentenyl)cyclopentyl]-N-ethyl-, [1R-[1\u03b1(Z),2\u03b2(1E,3S*),3\u03b1,5\u03b1]]-", "5-Heptenamide, 7-[(1R,2R,3R,5S)-3,5-dihydroxy-2-[(1E,3S)-3-hydroxy-5-phenyl-1-pentenyl]cyclopentyl]-N-ethyl-, (5Z)-", "(5Z)-7-[(1R,2R,3R,5S)-3,5-Dihydroxy-2-[(1E,3S)-3-hydroxy-5-phenyl-1-penten-1-yl]cyclopentyl]-N-ethyl-5-heptenamide", "Bimatoprost", "AGN 192024", "Lumigan", "Prostamide", "Latisse", "17-Phenyltrinor-PGF2\u03b1 ethylamide"], "SMILES": "C(=CC(CCC1=CC=CC=C1)O)C2C(CC=CCCCC(NCC)=O)C(O)CC2O", "physical_data": {"Molecular Weight": "415.57", "Molecular Formula": "C25H37NO4", "Melting Point": "67-68 \u00b0C"}}