{"cas_no": "1552-42-7", "cn_name": "\u7ed3\u6676\u7d2b\u5185\u916f", "en_name": ["Crystal Violet lactone", "1(3H)-Isobenzofuranone, 6-(dimethylamino)-3,3-bis[4-(dimethylamino)phenyl]-", "Phthalide, 6-(dimethylamino)-3,3-bis[p-(dimethylamino)phenyl]-", "6-(Dimethylamino)-3,3-bis[4-(dimethylamino)phenyl]-1(3H)-isobenzofuranone", "Crystal Violet lactone", "3,3-Bis[p-(dimethylamino)phenyl]-6-(dimethylamino)phthalide", "3,3-Bis[4-(dimethylamino)phenyl]-6-(dimethylamino)phthalide", "3,3-Bis[4-(dimethylamino)phenyl]-6-(dimethylamino)-1,3-dihydroisobenzofuran-1-one", "Copikem I", "Pergascript Blue I 2R", "CVL", "Color Former CVL", "NSC 32991", "NSC 3562", "Copikem 1 Blue", "6-Dimethylamino-3,3-bis(4-dimethylaminophenyl)-3H-isobenzofuran-1-one", "CVL-K", "Chameleon Blue 3", "LCV-L"], "SMILES": "O=C1OC(C=2C1=CC(N(C)C)=CC2)(C3=CC=C(N(C)C)C=C3)C4=CC=C(N(C)C)C=C4", "physical_data": {"Molecular Weight": "415.53", "Molecular Formula": "C26H29N3O2", "Melting Point": "176-179 \u00b0C"}}