{"cas_no": "15520-05-5", "cn_name": "2,2'-(\u8f9b\u57fa\u4e9a\u6c28\u57fa)\u53cc\u4e59\u9187", "en_name": ["2,2\u2032-(Octylimino)bis[ethanol]", "Ethanol, 2,2\u2032-(octylimino)bis-", "Ethanol, 2,2\u2032-(octylimino)di-", "2,2\u2032-(Octylimino)bis[ethanol]", "Diethanoloctylamine", "2,2\u2032-(Octylimino)diethanol", "Octyldiethanolamine", "Bis(2-hydroxyethyl)octylamine", "N,N-Bis(2-hydroxyethyl)octylamine", "Hetoxamine OT 2", "N-Octyldiethanolamine", "Fomaito 2E8", "2,2\u2032-(Octylazanediyl)diethanol", "2-[(2-Hydroxyethyl)(octyl)amino]ethan-1-ol"], "SMILES": "N(CCCCCCCC)(CCO)CCO", "physical_data": {"Molecular Weight": "217.35", "Molecular Formula": "C12H27NO2", "Boiling Point": "170-180 \u00b0C @ Press: 4 Torr"}}