{"cas_no": "155270-99-8", "cn_name": "\u4f0a\u66f2\u8336\u78b1", "en_name": ["Istradefylline", "1H-Purine-2,6-dione, 8-[(1E)-2-(3,4-dimethoxyphenyl)ethenyl]-1,3-diethyl-3,7-dihydro-7-methyl-", "1H-Purine-2,6-dione, 8-[2-(3,4-dimethoxyphenyl)ethenyl]-1,3-diethyl-3,7-dihydro-7-methyl-, (E)-", "8-[(1E)-2-(3,4-Dimethoxyphenyl)ethenyl]-1,3-diethyl-3,7-dihydro-7-methyl-1H-purine-2,6-dione", "KW 6002", "Istradefylline", "Nourianz", "Nouriast"], "SMILES": "CN1C2=C(N(CC)C(=O)N(CC)C2=O)N=C1C=CC3=CC(OC)=C(OC)C=C3", "physical_data": {"Molecular Weight": "384.43", "Molecular Formula": "C20H24N4O4", "Melting Point": "191 \u00b0C"}}