{"cas_no": "15529-90-5", "cn_name": "\u6c2f(\u4e09\u4e59\u57fa\u81a6)\u91d1(I)", "en_name": ["Chloro(triethylphosphine)gold", "Gold, chloro(triethylphosphine)-", "Chloro(triethylphosphine)gold", "SKF 36914", "Triethylphosphine-gold chloride complex", "(Triethylphosphine)gold chloride", "Triethylphosphineaurous chloride", "Triethylphosphine gold(I) chloride", "NSC 313981"], "SMILES": "[P]([Au+][Cl-])(CC)(CC)CC", "physical_data": {"Molecular Weight": "", "Molecular Formula": "C6H15AuClP", "Melting Point": "85-87 \u00b0C"}}