{"cas_no": "15521-65-0", "cn_name": "\u4e8c\u7532\u6c28\u57fa\u4e8c\u786b\u4ee3\u7532\u9178\u954d", "en_name": ["Nickel dimethyldithiocarbamate", "Nickel, bis(N,N-dimethylcarbamodithioato-\u03baS,\u03baS\u2032)-, (SP-4-1)-", "Nickel, bis(dimethyldithiocarbamato)-", "Nickel, bis(dimethylcarbamodithioato-S,S\u2032)-, (SP-4-1)-", "Nickel, bis(dimethylcarbamodithioato-\u03baS,\u03baS\u2032)-, (SP-4-1)-", "Carbamodithioic acid, dimethyl-, nickel complex", "(SP-4-1)-Bis(N,N-dimethylcarbamodithioato-\u03baS,\u03baS\u2032)nickel", "Nickel dimethyldithiocarbamate", "Bis(dimethyldithiocarbamato)nickel", "Methyl Niclate", "Sankel", "Robac Ni D.D.", "Nickel bis(dimethyldithiocarbamate)", "Nocrac NMC", "Dimethyldithiocarbamatonickel", "Sandite TT-NI", "NDMC"], "SMILES": "N(C)(C)C=1[S-][Ni+2]2([S-]C(N(C)C)=[S]2)[S]1", "physical_data": {"Molecular Weight": "", "Molecular Formula": "C6H12N2NiS4", "Melting Point": "&gt;290 \u00b0C", "Density": "1.77 g/cm\u00b3"}}