{"cas_no": "1552-41-6", "cn_name": "(4-\u6c30\u57fa\u82c4\u57fa)\u4e9a\u78f7\u9178\u4e8c\u4e59\u916f", "en_name": ["Diethyl P-[(4-cyanophenyl)methyl]phosphonate", "Phosphonic acid, P-[(4-cyanophenyl)methyl]-, diethyl ester", "Phosphonic acid, (p-cyanobenzyl)-, diethyl ester", "Phosphonic acid, [(4-cyanophenyl)methyl]-, diethyl ester", "Diethyl P-[(4-cyanophenyl)methyl]phosphonate", "Diethyl (p-cyanobenzyl)phosphonate", "NSC 48805", "4-(Diethoxyphosphorylmethyl)benzonitrile", "Diethyl [(4-cyanophenyl)methyl]phosphonate", "(4-Cyanobenzyl)phosphonic acid diethyl ester", "Diethyl 4-cyanobenzylphosphonate"], "SMILES": "C(P(OCC)(OCC)=O)C1=CC=C(C#N)C=C1", "physical_data": {"Molecular Weight": "253.23", "Molecular Formula": "C12H16NO3P", "Boiling Point": "146-150 \u00b0C @ Press: 0.03 Torr", "Melting Point": "31 \u00b0C"}}