{"cas_no": "15520-10-2", "cn_name": "1,5-\u4e8c\u6c28\u57fa-2-\u7532\u57fa\u620a\u70f7", "en_name": ["2-Methyl-1,5-pentanediamine", "1,5-Pentanediamine, 2-methyl-", "2-Methyl-1,5-pentanediamine", "2-Methylpentamethylenediamine", "2-Methyl-1,5-diaminopentane", "Dytek A", "2-Methyl-1,5-pentamethylenediamine", "1,5-Diamino-2-methylpentane", "2-Methylpentanediamine"], "SMILES": "C(CCCN)(CN)C", "physical_data": {"Molecular Weight": "116.20", "Molecular Formula": "C6H16N2", "Boiling Point": "78 \u00b0C @ Press: 11 Torr"}}