{"cas_no": "1552-92-7", "cn_name": "\u73af\u5df1\u70f7\u4e9a\u57fa\u4e59\u9178\u4e59\u916f", "en_name": ["Acetic acid, 2-cyclohexylidene-, ethyl ester", "Acetic acid, 2-cyclohexylidene-, ethyl ester", "\u03941,\u03b1-Cyclohexaneacetic acid, ethyl ester", "Acetic acid, cyclohexylidene-, ethyl ester", "Ethyl cyclohexylideneacetate", "Cyclohexylideneacetic acid ethyl ester", "NSC 18981", "Ethyl 2-cyclohexylideneacetate"], "SMILES": "C(C(OCC)=O)=C1CCCCC1", "physical_data": {"Molecular Weight": "168.23", "Molecular Formula": "C10H16O2", "Boiling Point": "104.0-105.5 \u00b0C @ Press: 15 Torr"}}