{"cas_no": "1552-96-1", "cn_name": "4-\u4e8c\u7532\u57fa\u6c28\u57fa\u8089\u6842\u9178", "en_name": ["4-(Dimethylamino)cinnamic acid", "2-Propenoic acid, 3-[4-(dimethylamino)phenyl]-", "Cinnamic acid, p-(dimethylamino)-", "3-[4-(Dimethylamino)phenyl]-2-propenoic acid", "p-(Dimethylamino)cinnamic acid", "4-(Dimethylamino)cinnamic acid", "NSC 13673", "NSC 638140", "3-(4-Dimethylaminophenyl)acrylic acid"], "SMILES": "N(C)(C)C1=CC=C(C=CC(O)=O)C=C1", "physical_data": {"Molecular Weight": "191.23", "Molecular Formula": "C11H13NO2", "Melting Point": "216 \u00b0C"}}