{"cas_no": "155306-71-1", "cn_name": "\u9999\u8c46\u7d20 545T", "en_name": ["C 545T", "1H,5H,11H-[1]Benzopyrano[6,7,8-ij]quinolizin-11-one, 10-(2-benzothiazolyl)-2,3,6,7-tetrahydro-1,1,7,7-tetramethyl-", "10-(2-Benzothiazolyl)-2,3,6,7-tetrahydro-1,1,7,7-tetramethyl-1H,5H,11H-[1]benzopyrano[6,7,8-ij]quinolizin-11-one", "10-(2-Benzothiazolyl)-1,1,7,7-tetramethyl-2,3,6,7-tetrahydro-1H,5H,11H-[1]benzopyrano[6,7,8-ij]quinolizin-11-one", "NKX 1595", "Coumarin 545T", "C 545T", "10-(2-Benzothiazolyl)-2,3,6,7-tetrahydro-1,1,7,7-tetramethyl-1H,5H,11H-[1]benzopyrano[6,7,8-ij]quinolizin-11-on"], "SMILES": "CC1(C)C=2C3=C(C=C4C2OC(=O)C(=C4)C5=NC=6C(S5)=CC=CC6)C(C)(C)CCN3CC1", "physical_data": {"Molecular Weight": "430.56", "Molecular Formula": "C26H26N2O2S", "Melting Point": "234 \u00b0C"}}