{"cas_no": "1553-60-2", "cn_name": "\u5f02\u4e01\u82ac\u9178", "en_name": ["Ibufenac", "Benzeneacetic acid, 4-(2-methylpropyl)-", "Acetic acid, (p-isobutylphenyl)-", "4-(2-Methylpropyl)benzeneacetic acid", "Ibufenac", "(p-Isobutylphenyl)acetic acid", "4-Isobutylphenylacetic acid", "Dytransin", "Ibunac", "Isodilan", "Medirex", "4-Isobutoxyphenylacetic acid", "RD 11654", "NSC 99976", "4-(2-Methylpropyl)phenylacetic acid", "2-(4-Isobutylphenyl)acetic acid", "2-[4-(2-Methylpropyl)phenyl]acetic acid"], "SMILES": "C(C(C)C)C1=CC=C(CC(O)=O)C=C1", "physical_data": {"Molecular Weight": "192.25", "Molecular Formula": "C12H16O2", "Melting Point": "85-87 \u00b0C"}}