{"cas_no": "15538-93-9", "cn_name": "3-(\u4e03\u6c1f\u5f02\u4e19\u6c27\u57fa)\u4e19\u57fa\u4e09\u6c2f\u7845\u70f7", "en_name": ["Trichloro[3-[1,2,2,2-tetrafluoro-1-(trifluoromethyl)ethoxy]propyl]silane", "Silane, trichloro[3-[1,2,2,2-tetrafluoro-1-(trifluoromethyl)ethoxy]propyl]-", "Silane, trichloro[3-[tetrafluoro-1-(trifluoromethyl)ethoxy]propyl]-", "Trichloro[3-[1,2,2,2-tetrafluoro-1-(trifluoromethyl)ethoxy]propyl]silane", "3-(Heptafluoroisopropoxy)propyltrichlorosilane", "Trichloro[3-(heptafluoroisopropoxy)propyl]silane", "NSC 139839"], "SMILES": "C(C(F)(F)F)(C(F)(F)F)(OCCC[Si](Cl)(Cl)Cl)F", "physical_data": {"Molecular Weight": "361.54", "Molecular Formula": "C6H6Cl3F7OSi", "Boiling Point": "85-87 \u00b0C @ Press: 35 Torr", "Density": "1.497 g/cm\u00b3"}}