{"cas_no": "1553-56-6", "cn_name": "-\u80c6\u70f7\u9178", "en_name": ["Dehydrolithocholic acid", "Cholan-24-oic acid, 3-oxo-, (5\u03b2)-", "5\u03b2-Cholan-24-oic acid, 3-oxo-", "5\u03b2-Cholanic acid, 3-oxo-", "(5\u03b2)-3-Oxocholan-24-oic acid", "Dehydrolithocholic acid", "Lithocholic acid, dehydro-", "3-Oxo-5\u03b2-cholanoic acid", "3-Oxo-5\u03b2-cholan-24-oic acid", "3-keto-5\u03b2-Cholanic acid", "3-Ketolithocholic acid", "3-Oxocholanic acid", "3-Oxo-5\u03b2-cholanic acid", "3-Oxolithocholic acid", "5\u03b2-Cholanic acid-3-one", "3-keto-5\u03b2-Cholan-24-oic acid"], "SMILES": "CC12C(C3C(C4(C)C(CC3)CC(=O)CC4)CC1)CCC2C(CCC(O)=O)C", "physical_data": {"Molecular Weight": "374.56", "Molecular Formula": "C24H38O3", "Melting Point": "140-141 \u00b0C"}}