{"cas_no": "15537-71-0", "cn_name": "N-\u4e59\u9170-D-\u9752\u9709\u80fa", "en_name": ["N-Acetylpenicillamine", "D-Valine, N-acetyl-3-mercapto-", "Valine, N-acetyl-3-mercapto-, D-", "N-Acetyl-3-mercapto-D-valine", "N-Acetyl-D-penicillamine", "N-Acetylpenicillamine", "N-Acetyl-3-mercaptovaline", "(S)-2-Acetamido-3-mercapto-3-methylbutanoic acid", "(2S)-2-Acetamido-3-methyl-3-sulfanylbutanoic acid"], "SMILES": "C(NC(C)=O)(C(C)(C)S)C(O)=O", "physical_data": {"Molecular Weight": "191.25", "Molecular Formula": "C7H13NO3S", "Melting Point": "183 \u00b0C"}}