{"cas_no": "15537-72-1", "cn_name": "\u76d0\u9178\u4e8c\u7532\u53cc\u80cd", "en_name": ["Metformin hydrochloride", "Imidodicarbonimidic diamide, N,N-dimethyl-, hydrochloride (1:1)", "Biguanide, 1,1-dimethyl-, monohydrochloride", "Imidodicarbonimidic diamide, N,N-dimethyl-, monohydrochloride", "Biguanide, 1,1-dimethyl-, hydrochloride", "Metformin hydrochloride", "N,N-Dimethylbiguanide hydrochloride", "1,1-Dimethylbiguanide hydrochloride", "Meguan", "N1,N1-Dimethylbiguanide hydrochloride", "Diabefagos", "Glucophage", "Glyformin", "LA 6023", "Dabex", "Denkaform", "Dextin", "Diabetmin", "Diabex", "Apophage", "Benofomin", "Diformin Retard", "Dimefor", "Fornidd", "Geamet", "Glucaminol", "Glucofago", "Glucomet", "Glucomine", "Glucoform", "Glucomin", "Gluconil", "Glucophage 850", "Glucophage Forte", "Glucophage-Mite", "Glucophage Retard", "Gludepatic", "Glufor", "Gluformin", "Glumeformin", "Glumin", "Glupermin", "Glyciphage", "Glycon", "Metforal", "Metomin", "Miformin", "Orabet", "Siamformet", "Walaphage", "Diaformin", "Diformin", "Glyceriphage", "Diabetosan", "Dialon", "Glucophage XR", "N,N-Dimethylbiguanidinium chloride", "Apo-Metformin", "Brot", "Glumetza", "Glifage", "Glucophage SR", "Melbin", "N,N-Dimethylbiguanidine monohydrochloride", "Glucoformin", "Riomet", "Glumin XR", "Metgluco", "Neodipa", "Diabetmim", "FORTAMET", "Obimat-SR", "Nelbis"], "SMILES": "C(NC(=N)N)(N(C)C)=N.Cl", "physical_data": {"Molecular Weight": "", "Molecular Formula": "C4H11N5.ClH", "Melting Point": "232 \u00b0C"}}