{"cas_no": "15548-60-4", "cn_name": "5-\u6eb4-4-\u6c2f-3-\u5432\u54da\u57fa-beta-D-\u5421\u5583\u8461\u7cd6\u82f7", "en_name": ["5-Bromo-4-chloro-3-indolyl \u03b2-D-glucopyranoside", "\u03b2-D-Glucopyranoside, 5-bromo-4-chloro-1H-indol-3-yl", "Indole, 5-bromo-4-chloro-3-(\u03b2-D-glucopyranosyloxy)-", "5-Bromo-4-chloro-1H-indol-3-yl \u03b2-D-glucopyranoside", "4-Chloro-5-bromo-3-indolyl-\u03b2-D-glucoside", "5-Bromo-4-chloro-3-indolyl \u03b2-D-glucoside", "5-Bromo-4-chloro-3-indolyl \u03b2-D-glucopyranoside", "X-Glucoside"], "SMILES": "O(C=1C=2C(NC1)=CC=C(Br)C2Cl)C3OC(CO)C(O)C(O)C3O", "physical_data": {"Molecular Weight": "408.63", "Molecular Formula": "C14H15BrClNO6", "Melting Point": "235-237 \u00b0C (decomp)"}}