{"cas_no": "15546-75-5", "cn_name": "5,10-\u4e8c\u6c22-5,10-\u4e8c\u7532\u57fa\u5429\u55ea", "en_name": ["5,10-Dihydro-5,10-dimethylphenazine", "Phenazine, 5,10-dihydro-5,10-dimethyl-", "5,10-Dihydro-5,10-dimethylphenazine", "5,10-Dimethyl-5,10-dihydrophenazine", "N,N\u2032-Dimethylphenazine", "DMPhen", "NSC 149969"], "SMILES": "CN1C=2C(N(C)C=3C1=CC=CC3)=CC=CC2", "physical_data": {"Molecular Weight": "210.27", "Molecular Formula": "C14H14N2", "Melting Point": "152-153 \u00b0C"}}