{"cas_no": "15545-48-9", "cn_name": "\u7eff\u9ea6\u9686", "en_name": ["Chlortoluron", "Urea, N\u2032-(3-chloro-4-methylphenyl)-N,N-dimethyl-", "Urea, 3-(3-chloro-p-tolyl)-1,1-dimethyl-", "N\u2032-(3-Chloro-4-methylphenyl)-N,N-dimethylurea", "Chlorotoluron", "Chlortoluron", "1-(3-Chloro-4-methylphenyl)-3,3-dimethylurea", "N-(3-Chloro-4-methylphenyl)-N\u2032,N\u2032-dimethylurea", "Dicuran", "1-(3-Chloro-4-methyl)-3,3-dimethylurea", "3-(3-Chloro-p-tolyl)-1,1-dimethylurea", "N,N-Dimethyl-N\u2032-(3-chloro-4-methylphenyl)urea", "CGA 15646", "Syncuran 80DP", "Syncuran", "N-(3-Chloro-4-tolyl)-N\u2032,N\u2032-dimethylurea", "Lentipur Forte", "Tolurex", "Dicuran 500FL", "C 2242", "1,1-Dimethyl-3-(3-chloro-4-methylphenyl)urea", "Lentipur Flo", "Lentipur", "Lentipur 500SC", "Tolurgan", "Klortosan", "3-(3-Chloro-4-methylphenyl)-1,1-dimethylurea", "Shvat SC"], "SMILES": "N(C(N(C)C)=O)C1=CC(Cl)=C(C)C=C1", "physical_data": {"Molecular Weight": "212.68", "Molecular Formula": "C10H13ClN2O", "Melting Point": "147-148 \u00b0C"}}