{"cas_no": "15548-61-5", "cn_name": "6-\u6eb4-2-\u8418\u57fa-\u0392-D-\u5421\u5583\u8461\u7cd6\u82f7", "en_name": ["6-Bromo-2-naphthalenyl \u03b2-D-glucopyranoside", "\u03b2-D-Glucopyranoside, 6-bromo-2-naphthalenyl", "Glucopyranoside, 6-bromo-2-naphthyl, \u03b2-D-", "6-Bromo-2-naphthalenyl \u03b2-D-glucopyranoside", "6-Bromo-2-naphthyl \u03b2-D-glucopyranoside", "6-Bromo-2-naphthyl-\u03b2-D-glucoside"], "SMILES": "O(C1=CC2=C(C=C1)C=C(Br)C=C2)C3OC(CO)C(O)C(O)C3O", "physical_data": {"Molecular Weight": "385.21", "Molecular Formula": "C16H17BrO6", "Melting Point": "206-207 \u00b0C"}}