{"cas_no": "15547-89-4", "cn_name": "2-(3-\u7532\u6c27\u57fa\u82ef\u57fa)\u73af\u5df1\u916e", "en_name": ["2-(3-Methoxyphenyl)cyclohexanone", "Cyclohexanone, 2-(3-methoxyphenyl)-", "Cyclohexanone, 2-(m-methoxyphenyl)-", "2-(3-Methoxyphenyl)cyclohexanone", "2-m-Methoxyphenylcyclohexanone", "2-(3-Methoxyphenyl)cyclohexan-1-one", "2-(3-Methoxy-phenyl)-cyclohexanon"], "SMILES": "O=C1C(C2=CC(OC)=CC=C2)CCCC1", "physical_data": {"Molecular Weight": "204.26", "Molecular Formula": "C13H16O2", "Boiling Point": "150-158 \u00b0C @ Press: 0.2 Torr"}}