{"cas_no": "15546-42-6", "cn_name": "\u56db\u4e9a\u7532\u57fa\u53cc(\u4e09\u82ef\u57fa\u6eb4\u5316\u78f7", "en_name": ["Phosphonium, 1,1\u2032-(1,4-butanediyl)bis[1,1,1-triphenyl-, bromide (1:2)", "Phosphonium, 1,1\u2032-(1,4-butanediyl)bis[1,1,1-triphenyl-, bromide (1:2)", "Phosphonium, tetramethylenebis[triphenyl-, dibromide", "Phosphonium, 1,4-butanediylbis[triphenyl-, dibromide", "Tetramethylenebis[triphenylphosphonium] dibromide", "Tetramethylenebis[triphenylphosphonium bromide]", "1,4-Butanediylbis(triphenylphosphonium) dibromide", "Butane-1,4-bis(triphenylphosphonium) dibromide"], "SMILES": "[P+](CCCC[P+](C1=CC=CC=C1)(C2=CC=CC=C2)C3=CC=CC=C3)(C4=CC=CC=C4)(C5=CC=CC=C5)C6=CC=CC=C6.[Br-]", "physical_data": {"Molecular Weight": "", "Molecular Formula": "C40H38P2.2Br", "Melting Point": "293 \u00b0C"}}