{"cas_no": "15546-43-7", "cn_name": "N,N,N',N'-\u56db\u82ef\u57fa\u8054\u82ef\u80fa", "en_name": ["N,N,N\u2032,N\u2032-Tetraphenylbenzidine", "[1,1\u2032-Biphenyl]-4,4\u2032-diamine, N4,N4,N4\u2032,N4\u2032-tetraphenyl-", "Benzidine, N,N,N\u2032,N\u2032-tetraphenyl-", "[1,1\u2032-Biphenyl]-4,4\u2032-diamine, N,N,N\u2032,N\u2032-tetraphenyl-", "N,N,N\u2032,N\u2032-Tetraphenylbenzidine", "N,N,N\u2032,N\u2032-Tetraphenyl-[1,1\u2032-biphenyl]-4,4\u2032-diamine", "N,N,N\u2032,N\u2032-Tetraphenylbiphenyl-4,4\u2032-diamine"], "SMILES": "N(C1=CC=C(C=C1)C2=CC=C(N(C3=CC=CC=C3)C4=CC=CC=C4)C=C2)(C5=CC=CC=C5)C6=CC=CC=C6", "physical_data": {"Molecular Weight": "488.62", "Molecular Formula": "C36H28N2", "Melting Point": "227 \u00b0C"}}