{"cas_no": "155405-80-4", "cn_name": "4-[2-(2-\u6c28\u57fa-4,7-\u4e8c\u6c22-4-\u6c27-1H-\u5421\u54af[2,3-d]\u5627\u5576-5-\u57fa)\u4e59\u57fa]\u82ef\u7532\u9178\u7532\u916f", "en_name": ["Methyl 4-[2-(2-amino-4,7-dihydro-4-oxo-3H-pyrrolo[2,3-d]pyrimidin-5-yl)ethyl]benzoate", "Benzoic acid, 4-[2-(2-amino-4,7-dihydro-4-oxo-3H-pyrrolo[2,3-d]pyrimidin-5-yl)ethyl]-, methyl ester", "Benzoic acid, 4-[2-(2-amino-4,7-dihydro-4-oxo-1H-pyrrolo[2,3-d]pyrimidin-5-yl)ethyl]-, methyl ester", "1H-Pyrrolo[2,3-d]pyrimidine, benzoic acid deriv.", "Methyl 4-[2-(2-amino-4,7-dihydro-4-oxo-3H-pyrrolo[2,3-d]pyrimidin-5-yl)ethyl]benzoate"], "SMILES": "C(CC1=CC=C(C(OC)=O)C=C1)C=2C3=C(NC2)NC(N)=NC3=O", "physical_data": {"Molecular Weight": "312.32", "Molecular Formula": "C16H16N4O3", "Melting Point": "&gt;220 \u00b0C"}}