{"cas_no": "1555-66-4", "cn_name": "N,N-\u4e8c\u6c30\u4e59\u57fa\u82ef\u80fa", "en_name": ["3,3\u2032-(Phenylimino)bis[propanenitrile]", "Propanenitrile, 3,3\u2032-(phenylimino)bis-", "Propionitrile, 3,3\u2032-(phenylimino)di-", "3,3\u2032-(Phenylimino)bis[propanenitrile]", "N,N-Bis(2-cyanoethyl)aniline", "N,N-Bis(cyanoethyl)aniline", "N,N-Bis(\u03b2-cyanoethyl)aniline", "Bis(2-cyanoethyl)phenylamine", "NSC 108353", "3,3\u2032-(Phenylimino)dipropionitrile", "3-[(2-Cyanoethyl)(phenyl)amino]propanenitrile", "3,3\u2032-(Phenylazanediyl)dipropanenitrile"], "SMILES": "N(CCC#N)(CCC#N)C1=CC=CC=C1", "physical_data": {"Molecular Weight": "199.25", "Molecular Formula": "C12H13N3", "Boiling Point": "165-167 \u00b0C @ Press: 6 Torr", "Melting Point": "80-82 \u00b0C", "Density": "0.9214 g/cm\u00b3 @ Temp: 20 \u00b0C"}}