{"cas_no": "15554-47-9", "cn_name": "\u4e59\u9170\u4e19\u916e\u9487", "en_name": ["(OC-6-11)-Tris(2,4-pentanedionato-\u03baO2,\u03baO4)yttrium", "Yttrium, tris(2,4-pentanedionato-\u03baO2,\u03baO4)-, (OC-6-11)-", "Yttrium, tris(2,4-pentanedionato)-", "Yttrium, tris(2,4-pentanedionato-O,O\u2032)-, (OC-6-11)-", "Yttrium, tris(2,4-pentanedionato-\u03baO,\u03baO\u2032)-, (OC-6-11)-", "(OC-6-11)-Tris(2,4-pentanedionato-\u03baO2,\u03baO4)yttrium", "Acetylacetone yttrium", "Yttrium acetylacetonate", "Yttrium(III) acetylacetonate", "Tris(acetylacetonato)yttrium", "Tris(acetylacetonato)yttrium(III)", "Yttrium tris(acetylacetonate)", "NSC 139626", "Tris(2,4-pentanedionato)yttrium", "Yttrium 2,4-pentane dionate"], "SMILES": "CC1=O[Y+3]23(O=C(C)[CH-]C(C)=O2)(O=C(C)[CH-]C(C)=O3)O=C(C)[CH-]1", "physical_data": {"Molecular Weight": "", "Molecular Formula": "C15H21O6Y", "Melting Point": "131 \u00b0C"}}