{"cas_no": "1555-94-8", "cn_name": "8-\u4e59\u6c27\u57fa\u55b9\u5549", "en_name": ["8-Ethoxyquinoline", "Quinoline, 8-ethoxy-", "8-Ethoxyquinoline", "NSC 646914"], "SMILES": "O(CC)C=1C2=C(C=CC1)C=CC=N2", "physical_data": {"Molecular Weight": "173.21", "Molecular Formula": "C11H11NO", "Boiling Point": "220 \u00b0C", "Melting Point": "285 \u00b0C"}}