{"cas_no": "1556-09-8", "cn_name": "\u6eb4\u4ee3\u73af\u8f9b\u70f7", "en_name": ["Bromocyclooctane", "Cyclooctane, bromo-", "Bromocyclooctane", "Cyclooctyl bromide", "NSC 226433"], "SMILES": "BrC1CCCCCCC1", "physical_data": {"Molecular Weight": "191.11", "Molecular Formula": "C8H15Br", "Boiling Point": "97 \u00b0C @ Press: 15 Torr", "Density": "1.282 g/cm\u00b3 @ Temp: 20 \u00b0C"}}