{"cas_no": "1556-18-9", "cn_name": "\u7898\u4ee3\u73af\u620a\u70f7", "en_name": ["Iodocyclopentane", "Cyclopentane, iodo-", "Iodocyclopentane", "Cyclopentyl iodide", "1-Iodocyclopentane", "NSC 6071", "Cyclopentane iodide"], "SMILES": "IC1CCCC1", "physical_data": {"Molecular Weight": "196.03", "Molecular Formula": "C5H9I", "Boiling Point": "166.5 \u00b0C", "Density": "1.1754 g/cm\u00b3 @ Temp: 0 \u00b0C"}}