{"cas_no": "15574-49-9", "cn_name": "\u7f8e\u5361\u6bd4\u916f", "en_name": ["Mecarbinate", "1H-Indole-3-carboxylic acid, 5-hydroxy-1,2-dimethyl-, ethyl ester", "Indole-3-carboxylic acid, 5-hydroxy-1,2-dimethyl-, ethyl ester", "Ethyl 5-hydroxy-1,2-dimethylindole-3-carboxylate", "Mecarbinate", "Dimecarbine", "1,2-Dimethyl-3-carbethoxy-5-hydroxyindole", "Ba 2676", "Dimecarbin", "3-(Ethoxycarbonyl)-5-hydroxy-1,2-dimethylindole", "Ethyl 5-hydroxy-1,2-dimethyl-1H-indole-3-carboxylate", "Dimekarbin", "1,2-Dimethyl-3-carbethoxy-5-oxyindole"], "SMILES": "C(OCC)(=O)C=1C=2C(N(C)C1C)=CC=C(O)C2", "physical_data": {"Molecular Weight": "233.26", "Molecular Formula": "C13H15NO3", "Melting Point": "207-208 \u00b0C"}}