{"cas_no": "15572-30-2", "cn_name": "6-\u6eb4-2-\u8418\u57fa-\u0392-D-\u5421\u5583\u534a\u4e73\u7cd6\u82f7", "en_name": ["6-Bromo-2-naphthalenyl \u03b2-D-galactopyranoside", "\u03b2-D-Galactopyranoside, 6-bromo-2-naphthalenyl", "Galactopyranoside, 6-bromo-2-naphthyl, \u03b2-D-", "6-Bromo-2-naphthalenyl \u03b2-D-galactopyranoside", "6-Bromo-2-naphthyl-\u03b2-D-galactoside"], "SMILES": "O(C1=CC2=C(C=C1)C=C(Br)C=C2)C3OC(CO)C(O)C(O)C3O", "physical_data": {"Molecular Weight": "385.21", "Molecular Formula": "C16H17BrO6", "Melting Point": "205 \u00b0C"}}