{"cas_no": "15572-79-9", "cn_name": "L-\u4e73\u7cd6", "en_name": ["L-Galactose", "L-Galactose", "Galactose, L-"], "SMILES": "C(C(C(C=O)O)O)(C(CO)O)O", "physical_data": {"Molecular Weight": "180.16", "Molecular Formula": "C6H12O6", "Melting Point": "160-162 \u00b0C"}}