{"cas_no": "15579-15-4", "cn_name": "1H-\u5432\u5511-5-\u9187", "en_name": ["1H-Indazol-5-ol", "1H-Indazol-5-ol", "5-Indazolol", "5-Hydroxyindazole", "5-Hydroxy-1H-indazole", "NSC 520104"], "SMILES": "OC=1C=C2C(=CC1)NN=C2", "physical_data": {"Molecular Weight": "134.14", "Molecular Formula": "C7H6N2O", "Melting Point": "184 \u00b0C"}}