{"cas_no": "15573-38-3", "cn_name": "\u6c18\u4ee33-\u6c28\u57fa-5-\u5417\u5549-4-\u7532\u57fa-\u6076\u5511-2-\u5549\u916e", "en_name": ["Tris(trimethylsilyl)phosphine", "Phosphine, tris(trimethylsilyl)-", "Tris(trimethylsilyl)phosphine", "Tris(trimethylsilyl)phosphane", "NSC 117328", "Tri(trimethylsilyl)phosphine"], "SMILES": "P([Si](C)(C)C)([Si](C)(C)C)[Si](C)(C)C", "physical_data": {"Molecular Weight": "250.54", "Molecular Formula": "C9H27PSi3", "Boiling Point": "102-105 \u00b0C @ Press: 16 Torr", "Density": "0.72 g/cm\u00b3"}}