{"cas_no": "15570-12-4", "cn_name": "3-\u7532\u6c27\u57fa\u82ef\u786b\u915a", "en_name": ["3-Methoxybenzenethiol", "Benzenethiol, 3-methoxy-", "Benzenethiol, m-methoxy-", "3-Methoxybenzenethiol", "m-Methoxythiophenol", "3-Methoxythiophenol", "m-Methoxybenzenethiol", "(m-Methoxyphenyl)thiol", "3-Mercaptoanisole", "3-Methyloxybenzenethiol", "3-Methoxybenzene-1-thiol"], "SMILES": "O(C)C1=CC(S)=CC=C1", "physical_data": {"Molecular Weight": "140.20", "Molecular Formula": "C7H8OS", "Boiling Point": "224.5 \u00b0C", "Melting Point": "264.4-268.3 \u00b0C (decomp)"}}