{"cas_no": "15572-56-2", "cn_name": "\u5f02\u4e19\u57fa\u6c28\u76d0\u9178\u76d0", "en_name": ["2-Propanamine, hydrochloride (1:1)", "2-Propanamine, hydrochloride (1:1)", "Isopropylamine, hydrochloride", "2-Propanamine, hydrochloride", "Monoisopropylammonium chloride", "Isopropylammonium chloride", "iso-Propylamine hydrochloride"], "SMILES": "C(C)(C)N.Cl", "physical_data": {"Molecular Weight": "", "Molecular Formula": "C3H9N.ClH", "Melting Point": "139-140 \u00b0C"}}