{"cas_no": "15570-45-3", "cn_name": "1,2,3,4-\u56db\u82ef\u57fa-1,3-\u73af\u620a\u4e8c\u70ef", "en_name": ["1,1\u2032,1\u2032\u2032,1\u2032\u2032\u2032-(1,3-Cyclopentadiene-1,2,3,4-tetrayl)tetrakis[benzene]", "Benzene, 1,1\u2032,1\u2032\u2032,1\u2032\u2032\u2032-(1,3-cyclopentadiene-1,2,3,4-tetrayl)tetrakis-", "1,3-Cyclopentadiene, 1,2,3,4-tetraphenyl-", "Cyclopentadiene, 1,2,3,4-tetraphenyl-", "1,1\u2032,1\u2032\u2032,1\u2032\u2032\u2032-(1,3-Cyclopentadiene-1,2,3,4-tetrayl)tetrakis[benzene]", "1,2,3,4-Tetraphenyl-1,3-cyclopentadiene", "1,2,3,4-Tetraphenylcyclopentadiene", "TPCP", "NSC 72113", "(2,3,4-Triphenylcyclopenta-1,3-dien-1-yl)benzene"], "SMILES": "C=1(C(=C(CC1C2=CC=CC=C2)C3=CC=CC=C3)C4=CC=CC=C4)C5=CC=CC=C5", "physical_data": {"Molecular Weight": "370.48", "Molecular Formula": "C29H22", "Melting Point": "180 \u00b0C"}}