{"cas_no": "15578-26-4", "cn_name": "\u7126\u78f7\u9178\u4e9a\u9521", "en_name": ["Stannous pyrophosphate", "Diphosphoric acid, tin(2+) salt (1:2)", "Pyrophosphoric acid, tin(2+) salt (1:2)", "Tin pyrophosphate (Sn2P2O7)", "Stannous pyrophosphate", "Tin(2+) pyrophosphate", "Tin(II) pyrophosphate", "Tin phosphate (Sn2(P2O7))"], "SMILES": "O(P(=O)(O)O)P(=O)(O)O.[Sn]", "physical_data": {"Molecular Weight": "", "Molecular Formula": "H4O7P2.2Sn", "Melting Point": "&gt;400 \u00b0C (decomp)", "Density": "4.01 g/cm\u00b3"}}