{"cas_no": "15574-96-6", "cn_name": "\u82ef\u567b\u5576", "en_name": ["Pizotifen", "Piperidine, 4-(9,10-dihydro-4H-benzo[4,5]cyclohepta[1,2-b]thien-4-ylidene)-1-methyl-", "4H-Benzo[4,5]cyclohepta[1,2-b]thiophene, piperidine deriv.", "4-(9,10-Dihydro-4H-benzo[4,5]cyclohepta[1,2-b]thien-4-ylidene)-1-methylpiperidine", "BC 105", "Pizotyline", "4-(1-Methyl-4-piperidylidene)-9,10-dihydro-4H-benzo[4,5]cyclohepta[1,2-b]thiophene", "Pizotifen", "Litec", "Sandomigran", "Polomigran"], "SMILES": "CN1CCC(=C2C3=C(CCC=4C2=CC=CC4)SC=C3)CC1", "physical_data": {"Molecular Weight": "295.44", "Molecular Formula": "C19H21NS", "Melting Point": "164 \u00b0C"}}