{"cas_no": "15580-20-8", "cn_name": "1-\u73af\u5df1\u57fa-3-(2-N-\u5417\u5549\u57fa\u4e59\u57fa)\u78b3\u4e8c\u4e9a\u80fa", "en_name": ["1-Cyclohexyl-3-(2-morpholinoethyl)carbodiimide", "4-Morpholineethanamine, N-(cyclohexylcarbonimidoyl)-", "Carbodiimide, cyclohexyl(2-morpholinoethyl)-", "N-(Cyclohexylcarbonimidoyl)-4-morpholineethanamine", "1-Cyclohexyl-3-[2-(4-morpholinyl)ethyl]carbodiimide", "1-Cyclohexyl-3-(2-morpholinoethyl)carbodiimide", "N-Cyclohexyl-N\u2032-\u03b2-morpholinoethylcarbodiimide", "CMCD", "N-Cyclohexyl-N\u2032-(2-morpholinoethyl)carbodiimide", "NSC 163986"], "SMILES": "N(=C=NCCN1CCOCC1)C2CCCCC2", "physical_data": {"Molecular Weight": "237.34", "Molecular Formula": "C13H23N3O", "Boiling Point": "145 \u00b0C @ Press: 0.2 Torr"}}