{"cas_no": "1558-25-4", "cn_name": "(\u6c2f\u7532\u57fa)\u4e09\u6c2f\u7845\u70f7", "en_name": ["Trichloro(chloromethyl)silane", "Silane, trichloro(chloromethyl)-", "Trichloro(chloromethyl)silane", "(Chloromethyl)trichlorosilane", "NSC 139830", "LS 30"], "SMILES": "[Si](CCl)(Cl)(Cl)Cl", "physical_data": {"Molecular Weight": "183.92", "Molecular Formula": "CH2Cl4Si", "Boiling Point": "118 \u00b0C", "Density": "1.465 g/cm\u00b3"}}