{"cas_no": "1558-17-4", "cn_name": "4,6-\u4e8c\u7532\u57fa\u5627\u5576", "en_name": ["4,6-Dimethylpyrimidine", "Pyrimidine, 4,6-dimethyl-", "4,6-Dimethylpyrimidine", "NSC 60686"], "SMILES": "CC=1C=C(C)N=CN1", "physical_data": {"Molecular Weight": "108.14", "Molecular Formula": "C6H8N2", "Boiling Point": "159 \u00b0C", "Melting Point": "25 \u00b0C"}}