{"cas_no": "1558-31-2", "cn_name": "(\u4e8c\u6c2f\u7532\u57fa)\u7532\u57fa\u4e8c\u6c2f\u7845\u70f7", "en_name": ["Dichloro(dichloromethyl)methylsilane", "Silane, dichloro(dichloromethyl)methyl-", "Dichloro(dichloromethyl)methylsilane", "(Dichloromethyl)methyldichlorosilane"], "SMILES": "[Si](C(Cl)Cl)(C)(Cl)Cl", "physical_data": {"Molecular Weight": "197.95", "Molecular Formula": "C2H4Cl4Si", "Boiling Point": "149 \u00b0C", "Melting Point": "-43 \u00b0C", "Density": "1.411 g/cm\u00b3"}}