{"cas_no": "1558-33-4", "cn_name": "(\u6c2f\u7532\u57fa)\u7532\u57fa\u4e8c\u6c2f\u7845\u70f7", "en_name": ["Dichloro(chloromethyl)methylsilane", "Silane, dichloro(chloromethyl)methyl-", "Dichloro(chloromethyl)methylsilane", "Methyl(chloromethyl)dichlorosilane", "(Chloromethyl)dichloromethylsilane", "(Chloromethyl)methyldichlorosilane", "Methyldichloro(chloromethyl)silane", "LS 110"], "SMILES": "[Si](CCl)(C)(Cl)Cl", "physical_data": {"Molecular Weight": "163.51", "Molecular Formula": "C2H5Cl3Si", "Boiling Point": "121.5 \u00b0C", "Melting Point": "120.5-121.5 \u00b0C", "Density": "1.285 g/cm\u00b3"}}