{"cas_no": "1558-24-3", "cn_name": "\u4e8c\u6c2f\u7532\u57fa\u4e09\u6c2f\u7845\u70f7", "en_name": ["Trichloro(dichloromethyl)silane", "Silane, trichloro(dichloromethyl)-", "Trichloro(dichloromethyl)silane", "(Dichloromethyl)trichlorosilane", "NSC 139833"], "SMILES": "[Si](C(Cl)Cl)(Cl)(Cl)Cl", "physical_data": {"Molecular Weight": "218.37", "Molecular Formula": "CHCl5Si", "Boiling Point": "145 \u00b0C", "Density": "1.5518 g/cm\u00b3 @ Temp: 20 \u00b0C"}}