{"cas_no": "155836-48-9", "cn_name": "N-Boc-beta-phenyl-D-phenylalaninol", "en_name": ["1,1-Dimethylethyl N-[(1R)-1-(hydroxymethyl)-2,2-diphenylethyl]carbamate", "Carbamic acid, N-[(1R)-1-(hydroxymethyl)-2,2-diphenylethyl]-, 1,1-dimethylethyl ester", "Carbamic acid, [1-(hydroxymethyl)-2,2-diphenylethyl]-, 1,1-dimethylethyl ester, (R)-", "1,1-Dimethylethyl N-[(1R)-1-(hydroxymethyl)-2,2-diphenylethyl]carbamate", "(R)-N-(tert-Butoxycarbonyl)-\u03b2-phenyl-phenylalaninol"], "SMILES": "C(C(NC(OC(C)(C)C)=O)CO)(C1=CC=CC=C1)C2=CC=CC=C2", "physical_data": {"Molecular Weight": "327.42", "Molecular Formula": "C20H25NO3", "Melting Point": "108-111 \u00b0C"}}