{"cas_no": "15580-66-2", "cn_name": "4-\u6c28\u57fa-1-\u7532\u57fa-4-\u54cc\u5576\u7fa7\u9178", "en_name": ["4-Amino-1-methyl-4-piperidinecarboxylic acid", "4-Piperidinecarboxylic acid, 4-amino-1-methyl-", "Isonipecotic acid, 4-amino-1-methyl-", "4-Amino-1-methyl-4-piperidinecarboxylic acid", "4-Amino-1-methylpiperidine-4-carboxylic acid", "NSC 117761"], "SMILES": "C(O)(=O)C1(N)CCN(C)CC1", "physical_data": {"Molecular Weight": "158.20", "Molecular Formula": "C7H14N2O2", "Melting Point": "286 \u00b0C (decomp)"}}