{"cas_no": "1559-02-0", "cn_name": "1,1-\u73af\u4e19\u57fa\u4e8c\u7fa7\u9178\u4e8c\u4e59\u916f", "en_name": ["Diethyl 1,1-cyclopropanedicarboxylate", "1,1-Cyclopropanedicarboxylic acid, 1,1-diethyl ester", "1,1-Cyclopropanedicarboxylic acid, diethyl ester", "Diethyl 1,1-cyclopropanedicarboxylate", "1,1-Dicarbethoxycyclopropane", "1,1-Bis(ethoxycarbonyl)cyclopropane", "NSC 21376", "1,1-Diethyl cyclopropane-1,1-dicarboxylate"], "SMILES": "C(OCC)(=O)C1(C(OCC)=O)CC1", "physical_data": {"Molecular Weight": "186.21", "Molecular Formula": "C9H14O4", "Boiling Point": "216 \u00b0C"}}