{"cas_no": "1559-87-1", "cn_name": "1,3-\u4e8c\u6eb4\u56db\u6c1f\u82ef", "en_name": ["1,3-Dibromo-2,4,5,6-tetrafluorobenzene", "Benzene, 1,3-dibromo-2,4,5,6-tetrafluoro-", "Benzene, 1,3-dibromotetrafluoro-", "1,3-Dibromo-2,4,5,6-tetrafluorobenzene", "1,3-Dibromotetrafluorobenzene", "m-Dibromoperfluorobenzene", "m-Dibromotetrafluorobenzene", "NSC 96999"], "SMILES": "BrC1=C(F)C(Br)=C(F)C(F)=C1F", "physical_data": {"Molecular Weight": "307.87", "Molecular Formula": "C6Br2F4", "Boiling Point": "86-88 \u00b0C @ Press: 18 Torr", "Melting Point": "5-7 \u00b0C"}}