{"cas_no": "1559-35-9", "cn_name": "2-[(2-\u4e59\u5df1\u57fa)\u6c27]-\u4e59\u9187", "en_name": ["Ethylene glycol mono-2-ethylhexyl ether", "Ethanol, 2-[(2-ethylhexyl)oxy]-", "2-[(2-Ethylhexyl)oxy]ethanol", "2-(2-Ethylhexyloxy)ethanol", "Ethylene glycol mono-2-ethylhexyl ether", "EHG", "Ethylene glycol-2-ethylhexyl ether", "2-(2-Ethylhexoxy)ethanol", "2-[(2-Ethylhexyl)oxy]ethan-1-ol"], "SMILES": "C(COCCO)(CCCC)CC", "physical_data": {"Molecular Weight": "174.28", "Molecular Formula": "C10H22O2", "Boiling Point": "229 \u00b0C"}}