{"cas_no": "1559-88-2", "cn_name": "1-\u6eb4-2,3,5,6-\u56db\u6c1f\u82ef", "en_name": ["3-Bromo-1,2,4,5-tetrafluorobenzene", "Benzene, 3-bromo-1,2,4,5-tetrafluoro-", "3-Bromo-1,2,4,5-tetrafluorobenzene", "2,3,5,6-Tetrafluorobromobenzene", "1-Bromo-2,3,5,6-tetrafluorobenzene", "1,2,4,5-Tetrafluoro-3-bromobenzene"], "SMILES": "FC1=C(Br)C(F)=C(F)C=C1F", "physical_data": {"Molecular Weight": "228.97", "Molecular Formula": "C6HBrF4", "Boiling Point": "145-147 \u00b0C"}}