{"cas_no": "1559-34-8", "cn_name": "\u56db\u4e59\u4e8c\u9187\u5355\u4e01\u919a", "en_name": ["Tetraethylene glycol monobutyl ether", "3,6,9,12-Tetraoxahexadecan-1-ol", "Ethanol, 2-[2-[2-(2-butoxyethoxy)ethoxy]ethoxy]-", "Tetraethylene glycol monobutyl ether", "Tetraethylene glycol butyl ether", "Tetraoxyethylene monobutyl ether", "2-(2-(2-(2-Butoxyethoxy)ethoxy)ethoxy)ethanol", "Butysenol 40", "Butycenol 40"], "SMILES": "C(COCCOCCO)OCCOCCCC", "physical_data": {"Molecular Weight": "250.33", "Molecular Formula": "C12H26O5", "Boiling Point": "189-194 \u00b0C @ Press: 0.17 Torr", "Density": "1.0104 g/cm\u00b3 @ Temp: 20 \u00b0C"}}