{"cas_no": "1559-36-0", "cn_name": "\u4e8c\u4e59\u4e8c\u9187-2-\u4e59\u57fa\u5df2\u57fa\u919a", "en_name": ["Diethylene glycol mono(2-ethylhexyl) ether", "Ethanol, 2-[2-[(2-ethylhexyl)oxy]ethoxy]-", "2-[2-[(2-Ethylhexyl)oxy]ethoxy]ethanol", "Diethylene glycol mono(2-ethylhexyl) ether", "2-Ethylhexyloxy-2-ethoxyethyl alcohol", "Kyowanol OX 20", "OX 20", "Ethal EH 2", "EHDG", "2-[2-(2-Ethylhexyloxy)ethoxy]ethanol", "Newcol 1002", "Diethylene glycol 2-ethylhexyl ether", "Diethyleneglycol ethylhexyl ether", "2-[2-(2-Ethylhexoxy)ethoxy]ethanol"], "SMILES": "C(COCCOCCO)(CCCC)CC", "physical_data": {"Molecular Weight": "218.33", "Molecular Formula": "C12H26O3", "Boiling Point": "272 \u00b0C"}}