{"cas_no": "156-54-7", "cn_name": "\u4e01\u9178\u94a0", "en_name": ["Sodium butyrate", "Butanoic acid, sodium salt (1:1)", "Butyric acid, sodium salt", "Butanoic acid, sodium salt", "Sodium butyrate", "Sodium butanoate", "Butyrate sodium", "Sodium n-butyrate", "Sodium propanecarboxylate", "Gustor XXI B 70", "Adimix"], "SMILES": "C(C(O)=O)CC.[Na]", "physical_data": {"Molecular Weight": "", "Molecular Formula": "C4H8O2.Na", "Melting Point": "251 \u00b0C"}}