{"cas_no": "156-83-2", "cn_name": "2,4-\u4e8c\u6c28\u57fa-6-\u6c2f\u5627\u5576", "en_name": ["2,4-Diamino-6-chloropyrimidine", "2,4-Pyrimidinediamine, 6-chloro-", "Pyrimidine, 2,4-diamino-6-chloro-", "6-Chloro-2,4-pyrimidinediamine", "2,4-Diamino-6-chloropyrimidine", "2,6-Diamino-4-chloropyrimidine", "4-Chloro-2,6-diaminopyrimidine", "6-Chloro-2,4-diaminopyrimidine", "NSC 8818", "6-Chloropyrimidine-2,4-diamine"], "SMILES": "ClC=1C=C(N)N=C(N)N1", "physical_data": {"Molecular Weight": "144.56", "Molecular Formula": "C4H5ClN4", "Melting Point": "200-201 \u00b0C"}}