{"cas_no": "156-51-4", "cn_name": "\u82ef\u80bc,\u786b\u9178\u76d0", "en_name": ["Phenelzine sulfate", "Hydrazine, (2-phenylethyl)-, sulfate (1:1)", "Hydrazine, phenethyl-, sulfate (1:1)", "(\u03b2-Phenylethyl)hydrazine sulfate", "Nardelzine", "Nardil", "Phenalzine dihydrogen sulfate", "Phenelzine sulfate", "(2-Phenylethyl)hydrazine dihydrogen sulfate", "(\u03b2-Phenylethyl)hydrazine dihydrogen sulfate", "Phenelzine dihydrogen sulfate", "Phenelzine hydrogen sulfate", "Phenethylhydrazine sulfate", "Phenelzine bisulfate", "Estinerval", "Fenelzin", "Kalgan", "Mao-rem", "2-Phenethylhydrazine sulfate", "Phenelzine acid sulfate", "Stinerval", "W 1544A", "NSC 170957"], "SMILES": "C(CNN)C1=CC=CC=C1.S(=O)(=O)(O)O", "physical_data": {"Molecular Weight": "", "Molecular Formula": "C8H12N2.H2O4S", "Melting Point": "166.5-167.5 \u00b0C"}}