{"cas_no": "156-60-5", "cn_name": "\u53cd-1,2-\u4e8c\u6c2f\u4e59\u70ef", "en_name": ["trans-1,2-Dichloroethylene", "Ethene, 1,2-dichloro-, (1E)-", "Ethylene, 1,2-dichloro-, (E)-", "Ethene, 1,2-dichloro-, (E)-", "Ethylene, 1,2-dichloro-, trans-", "(1E)-1,2-Dichloroethene", "trans-1,2-Dichloroethylene", "trans-1,2-Dichloroethene", "(E)-1,2-Dichloroethylene", "1,2-trans-Dichloroethene", "(E)-1,2-Dichloroethene", "1,2-trans-Dichloroethylene", "HCC 1130t", "R 1130t", "NSC 60512", "R 1130(E)", "HCO 1130(E)"], "SMILES": "C(=CCl)Cl", "physical_data": {"Molecular Weight": "96.94", "Molecular Formula": "C2H2Cl2", "Boiling Point": "48.7 \u00b0C @ Press: 760 Torr", "Melting Point": "-49.8 \u00b0C", "Density": "1.2565 g/cm\u00b3 @ Temp: 20 \u00b0C"}}