{"cas_no": "156-28-5", "cn_name": "2-\u82ef\u4e59\u80fa\u76d0\u9178\u76d0", "en_name": ["2-Phenylethylamine hydrochloride", "Benzeneethanamine, hydrochloride (1:1)", "Phenethylamine, hydrochloride", "Benzeneethanamine, hydrochloride", "\u03b2-Phenethylamine hydrochloride", "\u03b2-Phenylethylamine hydrochloride", "2-Phenylethylamine hydrochloride", "Phenethylammonium chloride", "2-Phenethylamine hydrochloride", "2-Phenethylammonium chloride", "2-Phenylethylammonium chloride", "2-Phenylethan-1-amine hydrochloride", "Phenethylamine chloride", "Phenylethylammonium chloride"], "SMILES": "C(CN)C1=CC=CC=C1.Cl", "physical_data": {"Molecular Weight": "", "Molecular Formula": "C8H11N.ClH", "Melting Point": "223-224 \u00b0C"}}