{"cas_no": "156-39-8", "cn_name": "4-\u7f9f\u82ef\u57fa\u4e19\u916e\u9178", "en_name": ["4-Hydroxyphenylpyruvic acid", "Benzenepropanoic acid, 4-hydroxy-\u03b1-oxo-", "Pyruvic acid, (p-hydroxyphenyl)-", "4-Hydroxy-\u03b1-oxobenzenepropanoic acid", "4-Hydroxyphenylpyruvic acid", "(p-Hydroxyphenyl)pyruvic acid", "3-(p-Hydroxyphenyl)-2-oxopropionic acid", "Testacid", "3-(p-Hydroxyphenyl)pyruvic acid", "HPPA", "3-(4-Hydroxyphenyl)pyruvic acid", "3-(4-Hydroxyphenyl)-2-oxopropionic acid", "NSC 100738", "NSC 666757", "3-(4-Hydroxyphenyl)-2-oxopropanoic acid"], "SMILES": "C(C(C(O)=O)=O)C1=CC=C(O)C=C1", "physical_data": {"Molecular Weight": "180.16", "Molecular Formula": "C9H8O4", "Boiling Point": "123 \u00b0C @ Press: 0.03 Torr", "Melting Point": "218 \u00b0C"}}