{"cas_no": "156-81-0", "cn_name": "2,4-\u4e8c\u6c28\u57fa\u5627\u5576", "en_name": ["2,4-Diaminopyrimidine", "2,4-Pyrimidinediamine", "Pyrimidine, 2,4-diamino-", "2,4-Diaminopyrimidine", "NSC 30856"], "SMILES": "NC1=NC(N)=NC=C1", "physical_data": {"Molecular Weight": "110.12", "Molecular Formula": "C4H6N4", "Melting Point": "149-150 \u00b0C"}}