{"cas_no": "156-62-7", "cn_name": "\u6c30\u6c28\u5316\u9499", "en_name": ["Calcium cyanamide", "Cyanamide, calcium salt (1:1)", "Calcium cyanamide", "Calcium carbimide", "Cyanamid", "Lime nitrogen", "Nitrogen lime", "Nitrolim", "Nitrolime", "CCC", "Alzodef", "Cy-L 500", "Calcium cyanamide (CaCN2)", "Perlka", "Cyanoiminocalcium"], "SMILES": "C(N)#N.[Ca]", "physical_data": {"Molecular Weight": "", "Molecular Formula": "CH2N2.Ca", "Melting Point": "1340 \u00b0C", "Density": "2.29 g/cm\u00b3 @ Temp: 20 \u00b0C"}}