{"cas_no": "156-06-9", "cn_name": "\u82ef\u4e19\u916e\u9178", "en_name": ["Phenylpyruvic acid", "Benzenepropanoic acid, \u03b1-oxo-", "Pyruvic acid, phenyl-", "\u03b1-Oxobenzenepropanoic acid", "Phenylpyruvic acid", "3-Phenylpyruvic acid", "\u03b2-Phenylpyruvic acid", "2-Oxo-3-phenylpropanoic acid", "3-Phenyl-2-oxopropanoic acid", "Phenylpyroracemic acid", "2-Oxo-3-phenylpropionic acid"], "SMILES": "C(C(C(O)=O)=O)C1=CC=CC=C1", "physical_data": {"Molecular Weight": "164.16", "Molecular Formula": "C9H8O3", "Melting Point": "157 \u00b0C"}}