{"cas_no": "156-10-5", "cn_name": "4-\u4e9a\u785d\u57fa\u4e8c\u82ef\u57fa\u80fa", "en_name": ["4-Nitrosodiphenylamine", "Benzenamine, 4-nitroso-N-phenyl-", "Diphenylamine, 4-nitroso-", "4-Nitroso-N-phenylbenzenamine", "p-Nitrosodiphenylamine", "p-Nitroso-N-phenylaniline", "4-Nitrosodiphenylamine", "N-Phenyl-p-nitrosoaniline", "4-Nitroso-N-phenylaniline", "p-Phenylaminonitrosobenzene", "N-Phenyl-4-nitrosoaniline", "NSC 5041", "(4-Nitroso-phenyl)-phenyl-amine"], "SMILES": "N(C1=CC=C(N=O)C=C1)C2=CC=CC=C2", "physical_data": {"Molecular Weight": "198.22", "Molecular Formula": "C12H10N2O", "Boiling Point": "292 \u00b0C", "Melting Point": "144-145 \u00b0C"}}