{"cas_no": "156-87-6", "cn_name": "3-\u6c28\u57fa-1-\u4e19\u9187", "en_name": ["3-Amino-1-propanol", "1-Propanol, 3-amino-", "3-Amino-1-propanol", "\u03b2-Alaninol", "3-Aminopropanol", "3-Hydroxypropylamine", "Propanolamine", "3-Aminopropyl alcohol", "\u03b3-Aminopropanol", "1-Amino-3-propanol", "3-Propanolamine", "1-Amino-3-hydroxypropane", "3-Hydroxy-1-propylamine", "\u03b3-Hydroxy-1-propylamine", "1,3-Propanolamine", "3-Hydroxy-1-aminopropane", "NSC 7766", "N-(3-Hydroxypropyl)amine", "3-Hydroxypropan-1-amine", "3-Aminopropan-1-ol"], "SMILES": "C(CN)CO", "physical_data": {"Molecular Weight": "75.11", "Molecular Formula": "C3H9NO", "Boiling Point": "187-188 \u00b0C @ Press: 756 Torr", "Melting Point": "12.4 \u00b0C", "Density": "0.9824 g/cm\u00b3 @ Temp: 26 \u00b0C"}}