{"cas_no": "156-86-5", "cn_name": "\u9ad8\u7cbe\u6c28\u9178", "en_name": ["L-Homoarginine", "L-Lysine, N6-(aminoiminomethyl)-", "Lysine, N6-amidino-, L-", "Lysine, N6-amidino-", "N6-(Aminoiminomethyl)-L-lysine", "Homoarginine", "L-Homoarginine", "Homo-L-arginine", "NSC 27429", "NSC 88868"], "SMILES": "C(C(C(O)=O)N)CCCNC(=N)N", "physical_data": {"Molecular Weight": "188.23", "Molecular Formula": "C7H16N4O2", "Melting Point": "207-209 \u00b0C"}}