{"cas_no": "156-41-2", "cn_name": "4-\u6c2f\u82ef\u4e59\u80fa", "en_name": ["2-(4-Chlorophenyl)ethylamine", "Benzeneethanamine, 4-chloro-", "Phenethylamine, p-chloro-", "4-Chlorobenzeneethanamine", "p-Chloro-\u03b2-phenylethylamine", "4-Chloro-\u03b2-phenylethylamine", "p-Chlorophenethylamine", "2-(p-Chlorophenyl)ethylamine", "4-Chlorophenethylamine", "4-Chloro-\u03b2-phenethylamine", "[(4-Chlorophenyl)ethyl]amine", "1-Amino-2-(p-chlorophenyl)ethane", "2-(p-Chlorophenyl)-1-ethylamine", "p-Chlorophenylethylamine", "2-(4-Chlorophenyl)ethylamine", "2-(4-Chlorophenyl)ethanamine", "2-(4-Chlorophenyl)ethan-1-amine"], "SMILES": "C(CN)C1=CC=C(Cl)C=C1", "physical_data": {"Molecular Weight": "155.62", "Molecular Formula": "C8H10ClN", "Boiling Point": "129-135 \u00b0C @ Press: 24 Torr"}}