{"cas_no": "156-43-4", "cn_name": "\u5bf9\u4e59\u6c27\u57fa\u82ef\u80fa", "en_name": ["4-Ethoxyaniline", "Benzenamine, 4-ethoxy-", "p-Phenetidine", "4-Ethoxybenzenamine", "4-Aminophenetole", "p-Ethoxyaniline", "p-Aminophenetole", "p-Phenetidin", "4-Ethoxyaniline", "4-Phenetidine", "4-Ethoxyphenylamine", "NSC 3116", "p-Ethoxyphenylamine", "1-Amino-4-ethoxybenzene"], "SMILES": "O(CC)C1=CC=C(N)C=C1", "physical_data": {"Molecular Weight": "137.18", "Molecular Formula": "C8H11NO", "Boiling Point": "254 \u00b0C", "Melting Point": "2.4 \u00b0C", "Density": "1.0652 g/cm\u00b3 @ Temp: 15.9 \u00b0C"}}