{"cas_no": "156-59-2", "cn_name": "\u987a-1,2-\u4e8c\u6c2f\u4e59\u70ef", "en_name": ["cis-1,2-Dichloroethene", "Ethene, 1,2-dichloro-, (1Z)-", "Ethylene, 1,2-dichloro-, (Z)-", "Ethene, 1,2-dichloro-, (Z)-", "(1Z)-1,2-Dichloroethene", "cis-1,2-Dichloroethylene", "(Z)-1,2-Dichloroethylene", "1,2-cis-Dichloroethylene", "cis-Dichloroethylene", "cis-1,2-Dichlorethylene", "1,2-cis-Dichloroethene", "HCC 1130c", "(Z)-1,2-Dichloroethene", "R 1130c", "cis-1,2-Dichloroethene", "cis-Dichloroethene", "HCO 1130(Z)"], "SMILES": "C(=CCl)Cl", "physical_data": {"Molecular Weight": "96.94", "Molecular Formula": "C2H2Cl2", "Boiling Point": "60.1 \u00b0C @ Press: 760 Torr", "Melting Point": "-80 \u00b0C", "Density": "1.2837 g/cm\u00b3 @ Temp: 20 \u00b0C"}}