{"cas_no": "156-38-7", "cn_name": "\u5bf9\u7f9f\u57fa\u82ef\u4e59\u9178", "en_name": ["Hydroxyphenylacetic acid", "Benzeneacetic acid, 4-hydroxy-", "Acetic acid, (p-hydroxyphenyl)-", "4-Hydroxybenzeneacetic acid", "(4-Hydroxyphenyl)acetic acid", "Hydroxyphenylacetic acid", "4-(Carboxymethyl)phenol", "(p-Hydroxyphenyl)acetic acid", "NSC 25066", "NSC 27460", "2-[4-(Hydroxy)phenyl]acetic acid", "p-Hydroxybenzeneacetic acid", "2-(4\u2032-Hydroxyphenyl)acetic acid", "4\u2032-Hydroxyphenylacetic acid"], "SMILES": "C(C(O)=O)C1=CC=C(O)C=C1", "physical_data": {"Molecular Weight": "152.15", "Molecular Formula": "C8H8O3", "Boiling Point": "120-130 \u00b0C @ Press: 0.01 Torr", "Melting Point": "152 \u00b0C"}}