{"cas_no": "156-57-0", "cn_name": "\u534a\u80f1\u80fa\u76d0\u9178\u76d0", "en_name": ["Cysteamine hydrochloride", "Ethanethiol, 2-amino-, hydrochloride (1:1)", "Ethanethiol, 2-amino-, hydrochloride", "Cysteamine hydrochloride", "2-Mercaptoethylamine hydrochloride", "2-Aminoethanethiol hydrochloride", "2-Mercaptoethylammonium chloride", "Merkamin hydrochloride", "Mercamine hydrochloride", "Cysteaminium chloride", "Cysteinamine hydrochloride", "Cysteamine chlorohydrate", "1-Amino-2-mercaptoethane hydrochloride", "\u03b2-Mercaptoethylamine hydrochloride", "2-Thioethylamine hydrochloride", "CI 9148", "2-Mercaptoethanamine hydrochloride", "2-Aminoethanthiol hydrochloride", "CT 2000", "Lynovex", "2-Mercaptoethanaminium chloride", "2-Aminoethane-1-thiol hydrochloride", "Cystadrops", "CA 75A"], "SMILES": "C(CS)N.Cl", "physical_data": {"Molecular Weight": "", "Molecular Formula": "C2H7NS.ClH", "Melting Point": "70.2-70.7 \u00b0C"}}