{"cas_no": "1560-28-7", "cn_name": "\u4e94\u7532\u57fa\u4e00\u6c2f\u4e8c\u7845\u70f7", "en_name": ["1-Chloro-1,1,2,2,2-pentamethyldisilane", "Disilane, 1-chloro-1,1,2,2,2-pentamethyl-", "Disilane, chloropentamethyl-", "1-Chloro-1,1,2,2,2-pentamethyldisilane", "Chloropentamethyldisilane", "Pentamethylchlorodisilane", "Chlorodimethyl(trimethylsilyl)silane", "Monochloropentamethyl disilane"], "SMILES": "[Si]([Si](C)(C)Cl)(C)(C)C", "physical_data": {"Molecular Weight": "166.80", "Molecular Formula": "C5H15ClSi2", "Boiling Point": "134-135 \u00b0C", "Density": "0.868 g/cm\u00b3"}}