{"cas_no": "15600-01-8", "cn_name": "\u516d\u6c2f\u4e19\u70f7", "en_name": ["1,1,2,2,3,3-Hexachloropropane", "Propane, 1,1,2,2,3,3-hexachloro-", "1,1,2,2,3,3-Hexachloropropane"], "SMILES": "C(C(Cl)Cl)(C(Cl)Cl)(Cl)Cl", "physical_data": {"Molecular Weight": "250.77", "Molecular Formula": "C3H2Cl6", "Boiling Point": "218.5 \u00b0C", "Density": "1.7137 g/cm\u00b3 @ Temp: 34 \u00b0C"}}