{"cas_no": "156001-51-3", "cn_name": "5-\u6eb4-2-\u7532\u57fa\u82ef\u8148", "en_name": ["5-Bromo-2-methylbenzonitrile", "Benzonitrile, 5-bromo-2-methyl-", "5-Bromo-2-methylbenzonitrile", "3-Bromo-6-methylbenzonitrile"], "SMILES": "C(#N)C1=C(C)C=CC(Br)=C1", "physical_data": {"Molecular Weight": "196.04", "Molecular Formula": "C8H6BrN", "Melting Point": "50 \u00b0C"}}