{"cas_no": "1560-54-9", "cn_name": "\u70ef\u4e19\u57fa\u4e09\u82ef\u57fa\u6eb4\u5316\u81a6", "en_name": ["Phosphonium, triphenyl-2-propen-1-yl-, bromide (1:1)", "Phosphonium, triphenyl-2-propen-1-yl-, bromide (1:1)", "Phosphonium, allyltriphenyl-, bromide", "Phosphonium, triphenyl-2-propenyl-, bromide", "Allyltriphenylphosphonium bromide", "Triphenylallylphosphonium bromide", "2-Propenyltriphenylphosphonium bromide", "Triphenyl(2-propenyl)phosphonium bromide", "NSC 110609", "NSC 59815", "A 1007", "Hishicolin PX 4B"], "SMILES": "[P+](CC=C)(C1=CC=CC=C1)(C2=CC=CC=C2)C3=CC=CC=C3.[Br-]", "physical_data": {"Molecular Weight": "", "Molecular Formula": "C21H20P.Br", "Melting Point": "209 \u00b0C"}}