{"cas_no": "1560-11-8", "cn_name": "1-\u73af\u620a\u70ef\u7fa7\u9178", "en_name": ["1-Cyclopentene-1-carboxylic acid", "1-Cyclopentene-1-carboxylic acid", "Isoaleprolic acid", "1-Cyclopentenecarboxylic acid", "1-Cyclopentenylcarboxylic acid", "NSC 44968"], "SMILES": "C(O)(=O)C=1CCCC1", "physical_data": {"Molecular Weight": "112.13", "Molecular Formula": "C6H8O2", "Boiling Point": "210-215 \u00b0C @ Press: 15 Torr", "Melting Point": "119 \u00b0C"}}