{"cas_no": "1561-86-0", "cn_name": "2-\u6c2f\u73af\u5df1\u9187", "en_name": ["2-Chlorocyclohexanol", "Cyclohexanol, 2-chloro-", "2-Chlorocyclohexanol", "Cyclohexene chlorohydrin", "2-Chloro-1-cyclohexanol", "1-Chloro-2-cyclohexanol"], "SMILES": "ClC1C(O)CCCC1", "physical_data": {"Molecular Weight": "134.60", "Molecular Formula": "C6H11ClO", "Boiling Point": "92 \u00b0C @ Press: 10 Torr", "Melting Point": "29 \u00b0C", "Density": "1.142 g/cm\u00b3 @ Temp: 25 \u00b0C"}}