{"cas_no": "1561-11-1", "cn_name": "4-\u7532\u57fa\u4e59\u9178", "en_name": ["(\u00b1)-4-Methylhexanoic acid", "Hexanoic acid, 4-methyl-", "Caproic acid, \u03b3-methyl-", "4-Methylhexanoic acid", "4-Methylcaproic acid", "4-Ethylpentanoic acid", "(\u00b1)-4-Methylhexanoic acid", "NSC 249817"], "SMILES": "C(CCC(O)=O)(CC)C", "physical_data": {"Molecular Weight": "130.18", "Molecular Formula": "C7H14O2", "Boiling Point": "211-213 \u00b0C", "Density": "0.9228 g/cm\u00b3 @ Temp: 20 \u00b0C"}}