{"cas_no": "156223-05-1", "cn_name": "(3E)-3-[(2,4-\u4e8c\u7532\u6c27\u57fa\u82ef\u57fa)\u4e9a\u7532\u57fa]-3,4,5,6-\u56db\u6c22-2,3'-\u8054\u5421\u5576\u4e8c\u76d0\u9178\u76d0", "en_name": ["DMXB-A", "2,3\u2032-Bipyridine, 3-[(2,4-dimethoxyphenyl)methylene]-3,4,5,6-tetrahydro-, hydrochloride (1:2), (3E)-", "2,3\u2032-Bipyridine, 3-[(2,4-dimethoxyphenyl)methylene]-3,4,5,6-tetrahydro-, dihydrochloride, (E)-", "2,3\u2032-Bipyridine, 3-[(2,4-dimethoxyphenyl)methylene]-3,4,5,6-tetrahydro-, dihydrochloride, (3E)-", "GTS 21", "DMXB-A", "DMBX-anabaseine", "3-2,4-Dimethoxybenzylidene anabaseine"], "SMILES": "C(=C1C(=NCCC1)C=2C=CC=NC2)C3=C(OC)C=C(OC)C=C3.Cl", "physical_data": {"Molecular Weight": "", "Molecular Formula": "C19H20N2O2.2ClH", "Melting Point": "216-217 \u00b0C (decomp)"}}