{"cas_no": "1562-93-2", "cn_name": "\u5076\u6c2e\u82ef- 4 -\u82ef\u7532\u9178", "en_name": ["4-(2-Phenyldiazenyl)benzoic acid", "Benzoic acid, 4-(2-phenyldiazenyl)-", "Benzoic acid, p-(phenylazo)-", "Benzoic acid, 4-(phenylazo)-", "4-(2-Phenyldiazenyl)benzoic acid", "Azobenzene-4-carboxylic acid", "Azoic acid", "4-Carboxyazobenzene", "p-Phenylazobenzoic acid", "4-(Phenylazo)benzoic acid", "NSC 2522"], "SMILES": "N(=NC1=CC=CC=C1)C2=CC=C(C(O)=O)C=C2", "physical_data": {"Molecular Weight": "226.23", "Molecular Formula": "C13H10N2O2", "Melting Point": "248.5-249.5 \u00b0C"}}