{"cas_no": "1562-95-4", "cn_name": "\u4e8c(2-\u5421\u5576)\u916e\u809f", "en_name": ["Di-2-pyridinylmethanone oxime", "Methanone, di-2-pyridinyl-, oxime", "2-Pyridyl ketone, oxime", "Di-2-pyridinylmethanone oxime", "2,2\u2032-Dipyridyl ketoxime", "Di-2-pyridyl ketone oxime", "2,2\u2032-Dipyridylketone oxime", "Bis(2-pyridyl)ketone oxime", "Di-2-pyridyl ketonoxime", "NSC 155179", "Di(pyridin-2-yl)methanone oxime"], "SMILES": "C(=NO)(C1=CC=CC=N1)C2=CC=CC=N2", "physical_data": {"Molecular Weight": "199.21", "Molecular Formula": "C11H9N3O", "Melting Point": "104-106 \u00b0C"}}