{"cas_no": "1562-94-3", "cn_name": "4,4'-\u5076\u6c2e\u4e8c\u82ef\u7532\u919a", "en_name": ["Diazene, 1,2-bis(4-methoxyphenyl)-, 1-oxide", "Diazene, 1,2-bis(4-methoxyphenyl)-, 1-oxide", "Azoxybenzene, 4,4\u2032-dimethoxy-", "Diazene, bis(4-methoxyphenyl)-, 1-oxide", "Anisole, 4,4\u2032-azoxydi-", "p-Azoxyanisole", "4,4\u2032-Azoxyanisole", "4,4\u2032-Azoxydianisole", "p,p\u2032-Azoxyanisole", "p-Azoxydianisole", "p,p\u2032-Azoxydianisole", "4,4\u2032-Dimethoxyazoxybenzene", "p,p\u2032-Dimethoxyazoxybenzene", "NSC 7959", "Bis(4-methoxyphenyl)diazene oxide"], "SMILES": "N(=NC1=CC=C(OC)C=C1)(=O)C2=CC=C(OC)C=C2", "physical_data": {"Molecular Weight": "258.27", "Molecular Formula": "C14H14N2O3", "Melting Point": "118-136 \u00b0C"}}