{"cas_no": "1562-00-1", "cn_name": "\u7f9f\u4e59\u57fa\u78fa\u9178\u94a0", "en_name": ["Sodium isethionate", "Ethanesulfonic acid, 2-hydroxy-, sodium salt (1:1)", "Ethanesulfonic acid, 2-hydroxy-, monosodium salt", "Isethionic acid sodium salt", "Ethanesulfonic acid, 2-hydroxy-, sodium salt", "Sodium isethionate", "Sodium 2-hydroxyethanesulfonate", "Sodium 2-hydroxyethylsulfonate", "Sodium \u03b2-hydroxyethanesulfonate", "2-Hydroxyethanesulfonic acid sodium salt", "Sodium hydroxyethylsulfonate", "Sodium 2-hydroxy-1-ethanesulfonate", "Sodium 1-hydroxy-2-ethanesulfonate", "Adeka Tec HES", "Sodium hydroxyethanesulfonate", "Hostapon SI", "Isethionic acid sodium", "MW 148"], "SMILES": "C(S(=O)(=O)O)CO.[Na]", "physical_data": {"Molecular Weight": "", "Molecular Formula": "C2H6O4S.Na", "Melting Point": "192-194 \u00b0C"}}