{"cas_no": "15629-92-2", "cn_name": "1,3-\u53cc(\u4e8c\u82ef\u57fa\u81a6\u4e19\u70f7)\u4e8c\u6c2f\u5316\u954d", "en_name": ["Dichloro[1,1\u2032-(1,3-propanediyl)bis[1,1-diphenylphosphine-\u03baP]]nickel", "Nickel, dichloro[1,1\u2032-(1,3-propanediyl)bis[1,1-diphenylphosphine-\u03baP]]-", "Nickel, dichloro[trimethylenebis[diphenylphosphine]]-", "Nickel, dichloro[1,3-propanediylbis[diphenylphosphine]-P,P\u2032]-", "Nickel, dichloro[1,3-propanediylbis[diphenylphosphine-\u03baP]]-", "Phosphine, 1,3-propanediylbis[diphenyl-, nickel complex", "Dichloro[1,1\u2032-(1,3-propanediyl)bis[1,1-diphenylphosphine-\u03baP]]nickel", "Bis[1,3-bis(diphenylphosphino)propane]dichloronickel", "1,3-Bis(diphenylphosphino)propanenickel dichloride", "[1,3-Bis(diphenylphosphino)propane]nickel(II) chloride", "(1,3-Bis(diphenylphosphino)propane)dichloronickel", "[Bis(diphenylphosphino)propane]nickel dichloride", "Dichloro[1,3-bis(diphenylphosphino)propane]nickel", "Nickel 1,3-bis(diphenylphosphino)propane dichloride", "1,3-Bis(diphenylphosphino)propane nickel chloride", "1,3-Bis(diphenylphosphino)nickel dichloride"], "SMILES": "[Cl-][Ni+2]1([Cl-])[P](CCC[P]1(C2=CC=CC=C2)C3=CC=CC=C3)(C4=CC=CC=C4)C5=CC=CC=C5", "physical_data": {"Molecular Weight": "", "Molecular Formula": "C27H26Cl2NiP2", "Melting Point": "210-220 \u00b0C"}}