{"cas_no": "15625-56-6", "cn_name": "\u56db\u7532\u57fa\u4e09\u6eb4\u5316\u94f5", "en_name": ["Methanaminium, N,N,N-trimethyl-, (tribromide) (1:1)", "Methanaminium, N,N,N-trimethyl-, (tribromide) (1:1)", "Ammonium, tetramethyl-, (tribromide)", "Methanaminium, N,N,N-trimethyl-, (tribromide)", "Tetramethylammonium tribromide", "Bromide (Br31-), tetramethylammonium", "Bromide (Br31-), N,N,N-trimethylmethanaminium"], "SMILES": "[N+](C)(C)(C)C.[Br-](Br)Br", "physical_data": {"Molecular Weight": "", "Molecular Formula": "C4H12N.Br3", "Melting Point": "117 \u00b0C"}}