{"cas_no": "15639-50-6", "cn_name": "\u6c99\u82ac\u6208", "en_name": ["Safingol", "1,3-Octadecanediol, 2-amino-, (2S,3S)-", "1,3-Octadecanediol, 2-amino-, L-threo-", "1,3-Octadecanediol, 2-amino-, [S-(R*,R*)]-", "(2S,3S)-2-Amino-1,3-octadecanediol", "L-threo-2-Amino-1,3-octadecanediol", "L-(-)-threo-Sphinganine", "Safingol", "SPC 100270", "(-)-threo-Dihydrosphingosine", "L-Threo-Dihydrosphingosine", "L-threo-Safingol"], "SMILES": "C(CCCCCCCCCCCCCC)C(C(CO)N)O", "physical_data": {"Molecular Weight": "301.51", "Molecular Formula": "C18H39NO2", "Melting Point": "126-128 \u00b0C"}}