{"cas_no": "1563-38-8", "cn_name": "\u544b\u5583\u915a", "en_name": ["Carbofuran phenol", "7-Benzofuranol, 2,3-dihydro-2,2-dimethyl-", "2,3-Dihydro-2,2-dimethyl-7-benzofuranol", "2,3-Dihydro-2,2-dimethyl-7-hydroxybenzofuran", "NIA 10272", "2,3-Dihydro-7-hydroxy-2,2-dimethyl benzofuran", "Carbofuran phenol", "2,2-Dimethyl-2,3-dihydro-7-benzofuranol", "2,2-Dimethyl-7-hydroxy-2,3-dihydrobenzofuran", "7-Hydroxy-2,2-dimethyl-2,3-dihydrobenzofuran", "Carbofuran 7-phenol", "2,2-Dimethyl-2,3-dihydro-1-benzofuran-7-ol", "7-Hydroxy-2,2-dimethyl-2,3-dihydrobenzo[b]furan", "2,2-Dimethyl-2,3-dihydrobenzo[b]furan-7-ol", "2,2-Dimethyl-3H-1-benzofuran-7-ol"], "SMILES": "OC1=C2C(CC(C)(C)O2)=CC=C1", "physical_data": {"Molecular Weight": "164.20", "Molecular Formula": "C10H12O2", "Boiling Point": "120.5 \u00b0C"}}