{"cas_no": "1563-90-2", "cn_name": "N,N-\u4e8c\u4e01\u57fa\u4e59\u9170\u80fa", "en_name": ["N,N-Dibutylacetamide", "Acetamide, N,N-dibutyl-", "N,N-Dibutylacetamide", "N,N-Di-n-butylacetamide", "N-Acetyldibutylamine", "NSC 54116", "NSC 90"], "SMILES": "N(CCCC)(CCCC)C(C)=O", "physical_data": {"Molecular Weight": "171.28", "Molecular Formula": "C10H21NO", "Boiling Point": "116-120 \u00b0C @ Press: 11 Torr", "Melting Point": "241-244 \u00b0C", "Density": "0.8765 g/cm\u00b3 @ Temp: 20 \u00b0C"}}