{"cas_no": "1563-56-0", "cn_name": "2-(2-\u6c28\u57fa-5-\u6eb4-\u82ef\u7532\u9170\u57fa)\u5421\u5576", "en_name": ["2-(2-Amino-5-bromobenzoyl)pyridine", "Methanone, (2-amino-5-bromophenyl)-2-pyridinyl-", "Ketone, 2-amino-5-bromophenyl 2-pyridyl", "(2-Amino-5-bromophenyl)-2-pyridinylmethanone", "2-(2-Amino-5-bromobenzoyl)pyridine", "2-Amino-5-bromophenyl 2-pyridyl ketone", "2-(5-Bromo-2-aminobenzoyl)pyridine", "2-Amino-5-bromophenyl-2-pyridylmethanone"], "SMILES": "C(=O)(C1=C(N)C=CC(Br)=C1)C2=CC=CC=N2", "physical_data": {"Molecular Weight": "277.12", "Molecular Formula": "C12H9BrN2O", "Melting Point": "96-99 \u00b0C"}}