{"cas_no": "1563-66-2", "cn_name": "\u544b\u5583\u4e39", "en_name": ["Carbofuran", "7-Benzofuranol, 2,3-dihydro-2,2-dimethyl-, 7-(N-methylcarbamate)", "Carbamic acid, methyl-, 2,3-dihydro-2,2-dimethyl-7-benzofuranyl ester", "7-Benzofuranol, 2,3-dihydro-2,2-dimethyl-, methylcarbamate", "NIA 10242", "2,3-Dihydro-2,2-dimethyl-7-benzofuranyl methylcarbamate", "Furadan", "Niagara 10242", "Carbofuran", "2,3-Dihydro-2,2-dimethyl-7-benzofuranyl N-methylcarbamate", "BAY 70143", "OMS 864", "2,2-Dimethyl-2,3-dihydro-7-benzofuranyl N-methylcarbamate", "Curaterr", "2,2-Dimethyl-7-coumaranyl N-methylcarbamate", "Furadan 3G", "Chinufur", "Furadan 75WP", "Furadan 4F", "Furadan SP 50", "Yaltox", "Diafuran", "Diafuran 5G", "Curaterr 5", "Terafuran", "Sunfuran", "Adifur", "NSC 167822", "Furadan 350S", "Furadan F", "Furadan G", "Brifer", "2,3-Dihydro-2,2-dimethyl-7-benzofuranol methylcarbamate", "Furadan 350SC", "2,2-Dimethyl-2,3-dihydro-1-benzofuran-7-yl methylcarbamate", "396carbofuran", "MeSH ID: D002235"], "SMILES": "O(C(NC)=O)C1=C2C(CC(C)(C)O2)=CC=C1", "physical_data": {"Molecular Weight": "221.25", "Molecular Formula": "C12H15NO3", "Melting Point": "151 \u00b0C", "Density": "1.180 g/cm\u00b3 @ Temp: 20 \u00b0C"}}