{"cas_no": "15644-86-7", "cn_name": "6-\u6c2f-4-\u7f9f\u57fa-2-\u7532\u57fa\u55b9\u5549", "en_name": ["6-Chloro-2-methyl-4-quinolinol", "4-Quinolinol, 6-chloro-2-methyl-", "6-Chloro-2-methyl-4-quinolinol", "6-Chloro-4-hydroxy-2-methylquinoline"], "SMILES": "OC=1C2=C(N=C(C)C1)C=CC(Cl)=C2", "physical_data": {"Molecular Weight": "193.63", "Molecular Formula": "C10H8ClNO", "Melting Point": "320-322 \u00b0C"}}