{"cas_no": "15646-46-5", "cn_name": "4-\u4e59\u6c27\u57fa\u4e9a\u7532\u57fa-2-\u82ef\u57fa\u6076\u5511\u5549-5-\u916e", "en_name": ["Oxazolone", "5(4H)-Oxazolone, 4-(ethoxymethylene)-2-phenyl-", "2-Oxazolin-5-one, 4-(ethoxymethylene)-2-phenyl-", "4-(Ethoxymethylene)-2-phenyl-5(4H)-oxazolone", "2-Phenyl-1-4-heteromethylene-5-oxazolone", "Oxazolone", "2-Phenyl-4-ethoxymethylene-5-oxazolone", "2-Phenyl-4-(ethoxymethylene)oxazolone", "Oxazolone (sensitizing agent)", "2-Phenyl-4-(ethoxymethylene)-2-oxazolinone", "4-Ethoxymethylene-2-phenyl oxazolone", "4-Ethoxymethylene-2-phenyl-5-oxazolone", "Oxazolone (allergen)", "4-Ethoxymethylene-2-phenyl-2-oxazolin-5-one"], "SMILES": "C(OCC)=C1N=C(OC1=O)C2=CC=CC=C2", "physical_data": {"Molecular Weight": "217.22", "Molecular Formula": "C12H11NO3", "Melting Point": "94-96 \u00b0C"}}