{"cas_no": "15641-58-4", "cn_name": "\u7532\u6c30\u83ca\u9178", "en_name": ["2,2,3,3-Tetramethylcyclopropanecarboxylic acid", "Cyclopropanecarboxylic acid, 2,2,3,3-tetramethyl-", "2,2,3,3-Tetramethylcyclopropanecarboxylic acid", "2,2,3,3-Tetramethylcyclopropane-1-carboxylic acid", "2,2,3,3-Tetramethylcyclopropylcarboxylic acid"], "SMILES": "C(O)(=O)C1C(C)(C)C1(C)C", "physical_data": {"Molecular Weight": "142.20", "Molecular Formula": "C8H14O2", "Melting Point": "121 \u00b0C"}}