{"cas_no": "1564-64-3", "cn_name": "9-\u6eb4\u84bd", "en_name": ["9-Bromoanthracene", "Anthracene, 9-bromo-", "9-Bromoanthracene", "9-Anthracyl bromide", "NSC 803", "9-Anthracenyl bromide", "10-Bromoanthracene"], "SMILES": "BrC=1C2=C(C=C3C1C=CC=C3)C=CC=C2", "physical_data": {"Molecular Weight": "257.13", "Molecular Formula": "C14H9Br", "Boiling Point": "212-215 \u00b0C @ Press: 4 Torr", "Melting Point": "99-101 \u00b0C"}}