{"cas_no": "15644-89-0", "cn_name": "4-\u7f9f\u57fa-8-\u7532\u6c27\u57fa-2-\u7532\u57fa\u55b9\u5549", "en_name": ["8-Methoxy-2-methyl-4-quinolinol", "4-Quinolinol, 8-methoxy-2-methyl-", "8-Methoxy-2-methyl-4-quinolinol", "NSC 208722"], "SMILES": "O(C)C=1C2=C(C(O)=CC(C)=N2)C=CC1", "physical_data": {"Molecular Weight": "189.21", "Molecular Formula": "C11H11NO2", "Melting Point": "222 \u00b0C"}}