{"cas_no": "15648-86-9", "cn_name": "\u6768\u6885\u7d20-3-O-\u534a\u4e73\u7cd6\u82f7", "en_name": ["Myricetin 3-O-galactoside", "4H-1-Benzopyran-4-one, 3-(\u03b2-D-galactopyranosyloxy)-5,7-dihydroxy-2-(3,4,5-trihydroxyphenyl)-", "Flavone, 3,3\u2032,4\u2032,5,5\u2032,7-hexahydroxy-, 3-\u03b2-D-galactopyranoside", "Galactopyranoside, 5,7-dihydroxy-4-oxo-2-(3,4,5-trihydroxyphenyl)-4H-1-benzopyran-3-yl, \u03b2-D-", "3-(\u03b2-D-Galactopyranosyloxy)-5,7-dihydroxy-2-(3,4,5-trihydroxyphenyl)-4H-1-benzopyran-4-one", "Myricetin 3-\u03b2-D-galactoside", "Myricetin 3-galactoside", "Myricetin 3-O-\u03b2-D-galactoside", "Myricetin 3-O-\u03b2-D-galactopyranoside", "Myricetin 3-O-galactoside", "3,3\u2032,4\u2032,5,5\u2032,7-Hexahydroxyflavone 3-\u03b2-D-galactopyranoside", "Myricetin 3-O-\u03b2-galactopyranoside", "Myricetin 3-O-galactopyranoside", "Gmelinoside I", "Gmelinoside I (Limonium gmelinii)"], "SMILES": "O(C1=C(OC=2C(C1=O)=C(O)C=C(O)C2)C3=CC(O)=C(O)C(O)=C3)C4OC(CO)C(O)C(O)C4O", "physical_data": {"Molecular Weight": "480.38", "Molecular Formula": "C21H20O13", "Melting Point": "196-198 \u00b0C"}}