{"cas_no": "156463-85-3", "cn_name": "4-\u6c28\u57fa-1,2,5-\u5641\u4e8c\u5511-3-\u7532\u8148", "en_name": ["3-Amino-4-cyanofurazan", "1,2,5-Oxadiazole-3-carbonitrile, 4-amino-", "4-Amino-1,2,5-oxadiazole-3-carbonitrile", "3-Amino-1,2,5-oxadiazole-4-carbonitrile", "3-Amino-4-cyano-1,2,5-oxadiazole", "3-Amino-4-cyanofurazan", "4-Aminofurazan-3-carbonitrile"], "SMILES": "C(#N)C=1C(N)=NON1", "physical_data": {"Molecular Weight": "110.07", "Molecular Formula": "C3H2N4O", "Melting Point": "85-87 \u00b0C"}}