{"cas_no": "15644-90-3", "cn_name": "4-\u7f9f\u57fa-6-\u7532\u6c27\u57fa-2-\u7532\u57fa\u55b9\u5549", "en_name": ["6-Methoxy-2-methyl-4-quinolinol", "4-Quinolinol, 6-methoxy-2-methyl-", "6-Methoxy-2-methyl-4-quinolinol", "2-Methyl-6-methoxyquinolin-4-ol", "4-Hydroxy-6-methoxyquinaldine", "NSC 246072", "4-Hydroxy-6-methoxy-2-methylquinoline"], "SMILES": "OC=1C2=C(N=C(C)C1)C=CC(OC)=C2", "physical_data": {"Molecular Weight": "189.21", "Molecular Formula": "C11H11NO2", "Melting Point": "317-318 \u00b0C (decomp)"}}