{"cas_no": "1565-80-6", "cn_name": "S-(-)-2-\u7532\u57fa-1-\u4e01\u9187", "en_name": ["(S)-2-Methyl-1-butanol", "1-Butanol, 2-methyl-, (2S)-", "1-Butanol, 2-methyl-, (S)-", "1-Butanol, 2-methyl-, l-", "1-Butanol, 2-methyl-, (S)-(-)-", "(2S)-2-Methyl-1-butanol", "(S)-(-)-2-Methyl-1-butanol", "(S)-2-Methyl-1-butanol", "(-)-2-Methyl-1-butanol", "(-)-(S)-2-Methyl-1-butanol", "D-(-)-2-Methyl-1-butanol", "(S)-(-)-2-Methylbutanol", "(2S)-2-Methylbutan-1-ol", "(-)-2-Methylbutanol", "(2S)-2-Methyl-1-butanol"], "SMILES": "C(CC)(CO)C", "physical_data": {"Molecular Weight": "88.15", "Molecular Formula": "C5H12O", "Boiling Point": "103-104 \u00b0C @ Press: 21 Torr", "Melting Point": "130 \u00b0C", "Density": "0.8279 g/cm\u00b3 @ Temp: 30 \u00b0C"}}