{"cas_no": "1565-17-9", "cn_name": "4-\u4e59\u9170\u57fa\u82ef\u78fa\u9170\u80fa", "en_name": ["4-Acetylbenzenesulfonamide", "Benzenesulfonamide, 4-acetyl-", "Benzenesulfonamide, p-acetyl-", "4-Acetylbenzenesulfonamide", "p-Acetobenzenesulfonamide", "p-Acetylbenzenesulfonamide", "4-(Aminosulfonyl)acetophenone"], "SMILES": "S(N)(=O)(=O)C1=CC=C(C(C)=O)C=C1", "physical_data": {"Molecular Weight": "199.23", "Molecular Formula": "C8H9NO3S", "Melting Point": "178-179 \u00b0C"}}