{"cas_no": "15658-60-3", "cn_name": "2,6-\u5421\u5576\u4e8c\u7fa7\u9178\u4e8c\u4e59\u916f", "en_name": ["Diethyl 2,6-pyridinedicarboxylate", "2,6-Pyridinedicarboxylic acid, 2,6-diethyl ester", "2,6-Pyridinedicarboxylic acid, diethyl ester", "Diethyl 2,6-pyridinedicarboxylate", "Diethyl dipicolinate", "Dipicolinic acid diethyl ester", "2,6-Bis(ethoxycarbonyl)pyridine", "NSC 78907", "2,6-Dicarbethoxypyridine", "2,6-Diethyl pyridine-2,6-dicarboxylate"], "SMILES": "C(OCC)(=O)C=1N=C(C(OCC)=O)C=CC1", "physical_data": {"Molecular Weight": "223.23", "Molecular Formula": "C11H13NO4", "Boiling Point": "143-145 \u00b0C @ Press: 1 Torr", "Melting Point": "28 \u00b0C"}}