{"cas_no": "1565-81-7", "cn_name": "3-\u6b63\u7678\u9187", "en_name": ["3-Decanol", "3-Decanol", "1-Ethyl-1-octanol", "3-Hydroxydecane", "dl-Decan-3-ol", "(\u00b1)-3-Decanol"], "SMILES": "C(CC(CC)O)CCCCC", "physical_data": {"Molecular Weight": "158.28", "Molecular Formula": "C10H22O", "Boiling Point": "213 \u00b0C"}}