{"cas_no": "1565-74-8", "cn_name": "R-(+)-1-\u82ef\u57fa-1-\u4e19\u9187", "en_name": ["(+)-1-Phenyl-1-propanol", "Benzenemethanol, \u03b1-ethyl-, (\u03b1R)-", "Benzyl alcohol, \u03b1-ethyl-, (+)-", "Benzenemethanol, \u03b1-ethyl-, (R)-", "(\u03b1R)-\u03b1-Ethylbenzenemethanol", "(+)-1-Phenylpropyl alcohol", "(R)-(+)-\u03b1-Hydroxypropylbenzene", "(R)-(+)-1-Phenyl-1-propanol", "(R)-(+)-\u03b1-Ethylbenzenemethanol", "(+)-1-Phenyl-1-propanol", "(+)-\u03b1-Ethylbenzyl alcohol", "(R)-Phenylethylcarbinol", "(R)-\u03b1-Ethylbenzyl alcohol", "(R)-1-Phenyl-1-propanol", "(R)-\u03b1-Hydroxypropylbenzene", "(R)-1-Phenylpropanol", "(+)-\u03b1-Phenylpropanol", "(+)-1-Phenylpropanol", "(R)-\u03b1-Ethylbenzenemethanol", "(+)-(\u03b1R)-\u03b1-Ethylbenzenemethanol", "(R)-(+)-1-Phenyl-1-propanol", "(1R)-1-Phenylpropan-1-ol"], "SMILES": "C(CC)(O)C1=CC=CC=C1", "physical_data": {"Molecular Weight": "136.19", "Molecular Formula": "C9H12O", "Boiling Point": "104 \u00b0C @ Press: 15 Torr", "Melting Point": "91.4-92 \u00b0C"}}