{"cas_no": "15667-63-7", "cn_name": "1-\u6c30\u57fa-2-\u4e19\u70ef\u57fa\u4e59\u9178\u916f", "en_name": ["Acrolein cyanohydrin acetate", "3-Butenenitrile, 2-(acetyloxy)-", "3-Butenenitrile, 2-hydroxy-, acetate (ester)", "3-Butenenitrile, 2-hydroxy-, acetate", "2-(Acetyloxy)-3-butenenitrile", "Acrolein cyanohydrin acetate", "1-Cyano-2-propenyl acetate", "NSC 46585", "1-Cyano-2-propen-1-yl acetate", "1-Cyanoallyl acetate", "2-Acetoxy-3-butenenitrile"], "SMILES": "C(OC(C)=O)(C=C)C#N", "physical_data": {"Molecular Weight": "125.13", "Molecular Formula": "C6H7NO2", "Boiling Point": "63-65 \u00b0C @ Press: 10 Torr"}}