{"cas_no": "15663-27-1", "cn_name": "\u987a\u94c2", "en_name": ["Cisplatin", "Platinum, diamminedichloro-, (SP-4-2)-", "Platinum, diamminedichloro-, cis-", "(SP-4-2)-Diamminedichloroplatinum", "cis-Diamminedichloroplatinum", "cis-Dichlorodiamineplatinum(II)", "cis-Platinum(II) diaminodichloride", "cis-Platinum(II) diamminedichloride", "cis-Dichlorodiammineplatinum", "cis-Platinous diaminodichloride", "cis-Platinum diaminodichloride", "cis-Platinumdiammine dichloride", "cis-Platinumdiamine dichloride", "cis-Diaminodichloroplatinum(II)", "NSC 119875", "Cisplatin", "cis-Platinum II", "Platinol", "Neoplatin", "cis-Platine", "Biocisplatinum", "cis-DDP", "cis-Diamminedichloroplatinum(II)", "Platidiam", "cis-Platinum", "Cisplatinum", "CPDD", "cis-Platin", "cis-Dichlorodiammineplatinum(II)", "TR 170", "CDDP", "DDP", "CPPD", "cis-Diaminedichloroplatinum(II)", "Cisplatyl", "Briplatin", "DDP (antitumor agent)", "Abiplatin", "SPI 077", "CACP", "Lederplatin", "Platosin", "Platamine", "Platiblastin", "Platistin", "Platinoxan", "CPDC", "Cismaplat", "Citoplatino", "Rand", "Platinex", "Platinol AQ", "SPI 077 (complex)", "SPI 077B103", "Cisplatino", "Lipoplatin", "Randa", "Fauldiscipla", "IA-call", "CP Ethypharm", "LiPlaCis", "Cisplatine Mylan", "Kemoplat", "Citoplax", "Maruko", "cis-Diaminedichloridoplatinum(II)", "MeSH ID: D002945"], "SMILES": "[Pt+2]([Cl-])([Cl-])([NH3])[NH3]", "physical_data": {"Molecular Weight": "", "Molecular Formula": "Cl2H6N2Pt", "Melting Point": "270 \u00b0C (decomp)", "Density": "4 x 10<sup>-6</sup> g/cm\u00b3"}}