{"cas_no": "15664-29-6", "cn_name": "\u8131\u9541\u53f6\u7eff\u9178\u76d0 A", "en_name": ["Pheophorbide a", "3-Phorbinepropanoic acid, 9-ethenyl-14-ethyl-21-(methoxycarbonyl)-4,8,13,18-tetramethyl-20-oxo-, (3S,4S,21R)-", "Pheophorbide a", "3-Phorbinepropionic acid, 21-carboxy-14-ethyl-4,8,13,18-tetramethyl-20-oxo-9-vinyl-, 21-methyl ester", "3-Phorbinepropanoic acid, 9-ethenyl-14-ethyl-21-(methoxycarbonyl)-4,8,13,18-tetramethyl-20-oxo-, [3S-(3\u03b1,4\u03b2,21\u03b2)]-", "(3S,4S,21R)-9-Ethenyl-14-ethyl-21-(methoxycarbonyl)-4,8,13,18-tetramethyl-20-oxo-3-phorbinepropanoic acid", "Pheophorbide a5", "2-Deacetyl-2-vinylbacteriopheophorbide", "Phaeophorbide a"], "SMILES": "C(OC)(=O)C1C=2C3=C(C1=O)C(C)=C(N3)C=C4C(CC)=C(C)C(=N4)C=C5NC(=CC6=NC2C(CCC(O)=O)C6C)C(C)=C5C=C", "physical_data": {"Molecular Weight": "592.68", "Molecular Formula": "C35H36N4O5", "Melting Point": "191-195 \u00b0C"}}