{"cas_no": "1566-42-3", "cn_name": "4-\u7532\u6c27\u57fa\u82ef\u8132", "en_name": ["N-(4-Methoxyphenyl)urea", "Urea, N-(4-methoxyphenyl)-", "Urea, (p-methoxyphenyl)-", "Urea, (4-methoxyphenyl)-", "N-(4-Methoxyphenyl)urea", "(4-Methoxyphenyl)urea", "(p-Methoxyphenyl)urea", "4-Ureidoanisole", "NSC 12973", "1-(4-Methoxyphenyl)urea"], "SMILES": "N(C(N)=O)C1=CC=C(OC)C=C1", "physical_data": {"Molecular Weight": "166.18", "Molecular Formula": "C8H10N2O2", "Melting Point": "168 \u00b0C"}}