{"cas_no": "15662-33-6", "cn_name": "\u5229\u963f\u8bfa\u5b9a", "en_name": ["Ryanodine", "1H-Pyrrole-2-carboxylic acid, (3S,4R,4aR,6S,6aS,7S,8R,8aS,8bR,9S,9aS)-dodecahydro-4,6,7,8a,8b,9a-hexahydroxy-3,6a,9-trimethyl-7-(1-methylethyl)-6,9-methanobenzo[1,2]pentaleno[1,6-bc]furan-8-yl ester", "Ryanodine", "Ryanodol, 3-(1H-pyrrole-2-carboxylate)", "Ryanex", "Ryania", "Ryanicide", "Ryanodin", "(+)-Ryanodine", "Ryania (pesticide)", "1H-Pyrrole-2-carboxylic acid, dodecahydro-4,6,7,8a,8b,9a-hexahydroxy-3,6a,9-trimethyl-7-(1-methylethyl)-6,9-methanobenzo[1,2]pentaleno[1,6-bc]furan-8-yl ester, [3S-(3\u03b1,4\u03b2,4aS*,6\u03b1,6a\u03b1,7\u03b1,8\u03b2,8a\u03b1,8b\u03b2,9\u03b2,9a\u03b1)]-", "MeSH ID: D012433"], "SMILES": "OC12C34C(O)(C5(C)C1(O)C(OC(=O)C6=CC=CN6)C(C(C)C)(O)C2(C)C(O)(O3)C5)CCC(C)C4O", "physical_data": {"Molecular Weight": "493.55", "Molecular Formula": "C25H35NO9", "Melting Point": "219-220 \u00b0C"}}