{"cas_no": "1567-89-1", "cn_name": "\u4e19\u916e2,4-\u4e8c\u785d\u57fa\u82ef\u8159", "en_name": ["2-Propanone, 2-(2,4-dinitrophenyl)hydrazone", "2-Propanone, 2-(2,4-dinitrophenyl)hydrazone", "Acetone, (2,4-dinitrophenyl)hydrazone", "2-Propanone, (2,4-dinitrophenyl)hydrazone", "NSC 131450", "NSC 6120", "1-(2,4-Dinitrophenyl)-2-(propan-2-ylidene)hydrazine", "2,4-Dinitro-N-(propan-2-ylideneamino)aniline"], "SMILES": "N(=O)(=O)C1=C(NN=C(C)C)C=CC(N(=O)=O)=C1", "physical_data": {"Molecular Weight": "238.20", "Molecular Formula": "C9H10N4O4", "Melting Point": "126-127 \u00b0C"}}