{"cas_no": "15674-67-6", "cn_name": "3-(\u4e8c\u4e59\u6c28\u57fa)\u4e19\u9178\u76d0\u9178\u76d0", "en_name": ["\u03b2-Alanine, N,N-diethyl-, hydrochloride (1:1)", "\u03b2-Alanine, N,N-diethyl-, hydrochloride (1:1)", "\u03b2-Alanine, N,N-diethyl-, hydrochloride", "3-(Diethylamino)propionic acid hydrochloride", "3-(Diethylamino)propanoic acid hydrochloride", "N,N-Diethyl-\u03b2-alanine hydrochloride", "3-(N,N-Diethylamino)propionic acid hydrochloride"], "SMILES": "N(CCC(O)=O)(CC)CC.Cl", "physical_data": {"Molecular Weight": "", "Molecular Formula": "C7H15NO2.ClH", "Melting Point": "137-139 \u00b0C"}}