{"cas_no": "15673-00-4", "cn_name": "3,3-\u4e8c\u7532\u57fa\u4e01\u80fa", "en_name": ["3,3-Dimethylbutylamine", "1-Butanamine, 3,3-dimethyl-", "Butylamine, 3,3-dimethyl-", "3,3-Dimethyl-1-butanamine", "3,3-Dimethylbutylamine", "1-Amino-3,3-dimethylbutane", "3,3-Dimethylbutanamine"], "SMILES": "C(C(C)(C)C)CN", "physical_data": {"Molecular Weight": "101.19", "Molecular Formula": "C6H15N", "Boiling Point": "112.8-112.9 \u00b0C @ Press: 745 Torr", "Density": "0.759 g/cm\u00b3 @ Temp: 20 \u00b0C"}}