{"cas_no": "156727-74-1", "cn_name": "(+)-4-[(\u0391R)-\u0391-((2S,5R)-4-\u70ef\u4e19\u57fa-2,5-\u4e8c\u7532\u57fa-1-\u54cc\u55ea\u57fa)-3-\u7532\u6c27\u57fa\u82c4\u57fa]-N,N-\u4e8c\u4e59\u57fa\u82ef\u9170\u80fa", "en_name": ["SNC 80", "Benzamide, 4-[(R)-[(2S,5R)-2,5-dimethyl-4-(2-propen-1-yl)-1-piperazinyl](3-methoxyphenyl)methyl]-N,N-diethyl-", "Benzamide, 4-[[2,5-dimethyl-4-(2-propenyl)-1-piperazinyl](3-methoxyphenyl)methyl]-N,N-diethyl-, [2S-[1(S*),2\u03b1,5\u03b2]]-", "Benzamide, 4-[(R)-[(2S,5R)-2,5-dimethyl-4-(2-propenyl)-1-piperazinyl](3-methoxyphenyl)methyl]-N,N-diethyl-", "4-[(R)-[(2S,5R)-2,5-Dimethyl-4-(2-propen-1-yl)-1-piperazinyl](3-methoxyphenyl)methyl]-N,N-diethylbenzamide", "SNC 80", "NIH 10815"], "SMILES": "C(N1C(C)CN(CC=C)C(C)C1)(C2=CC(OC)=CC=C2)C3=CC=C(C(N(CC)CC)=O)C=C3", "physical_data": {"Molecular Weight": "449.63", "Molecular Formula": "C28H39N3O2", "Melting Point": "122.7-123.1 \u00b0C"}}