{"cas_no": "15679-03-5", "cn_name": "6-\u6c2f\u83f2\u5576", "en_name": ["6-Chlorophenanthridine", "Phenanthridine, 6-chloro-", "6-Chlorophenanthridine", "NSC 111845", "NSC 134379"], "SMILES": "ClC1=C2C(=C3C(=N1)C=CC=C3)C=CC=C2", "physical_data": {"Molecular Weight": "213.66", "Molecular Formula": "C13H8ClN", "Melting Point": "117-118 \u00b0C"}}