{"cas_no": "15679-12-6", "cn_name": "2-\u4e59\u57fa-4-\u7532\u57fa\u567b\u5511", "en_name": ["2-Ethyl-4-methylthiazole", "Thiazole, 2-ethyl-4-methyl-", "2-Ethyl-4-methylthiazole", "2-Ethyl-4-methyl-1,3-thiazole"], "SMILES": "C(C)C1=NC(C)=CS1", "physical_data": {"Molecular Weight": "127.21", "Molecular Formula": "C6H9NS", "Boiling Point": "162 \u00b0C"}}