{"cas_no": "156761-88-5", "cn_name": "4-\u6eb4-2-\u4e59\u57fa\u5421\u5576", "en_name": ["4-Bromo-2-ethylpyridine", "Pyridine, 4-bromo-2-ethyl-", "4-Bromo-2-ethylpyridine"], "SMILES": "C(C)C1=CC(Br)=CC=N1", "physical_data": {"Molecular Weight": "186.05", "Molecular Formula": "C7H8BrN", "Boiling Point": "97-98 \u00b0C @ Press: 30 Torr"}}