{"cas_no": "15679-09-1", "cn_name": "2-\u4e59\u57fa\u567b\u5511", "en_name": ["2-Ethylthiazole", "Thiazole, 2-ethyl-", "2-Ethylthiazole", "2-Ethyl-1,3-thiazole"], "SMILES": "C(C)C1=NC=CS1", "physical_data": {"Molecular Weight": "113.18", "Molecular Formula": "C5H7NS", "Boiling Point": "73-76 \u00b0C @ Press: 70 Torr"}}