{"cas_no": "1567-75-5", "cn_name": "1-\u7532\u57fa\u73af\u4e19\u57fa\u7532\u57fa\u916e", "en_name": ["1-(1-Methylcyclopropyl)ethanone", "Ethanone, 1-(1-methylcyclopropyl)-", "Ketone, methyl 1-methylcyclopropyl", "1-(1-Methylcyclopropyl)ethanone", "Methyl 1-methylcyclopropyl ketone", "1-Acetyl-1-methylcyclopropane", "1-Methylcyclopropyl methyl ketone", "NSC 97001", "1-(1-Methylcyclopropyl)ethan-1-one"], "SMILES": "C(C)(=O)C1(C)CC1", "physical_data": {"Molecular Weight": "98.14", "Molecular Formula": "C6H10O", "Boiling Point": "126 \u00b0C"}}