{"cas_no": "15676-16-1", "cn_name": "\u8212\u5fc5\u5229", "en_name": ["(\u00b1)-Sulpiride", "Benzamide, 5-(aminosulfonyl)-N-[(1-ethyl-2-pyrrolidinyl)methyl]-2-methoxy-", "o-Anisamide, N-[(1-ethyl-2-pyrrolidinyl)methyl]-5-sulfamoyl-", "5-(Aminosulfonyl)-N-[(1-ethyl-2-pyrrolidinyl)methyl]-2-methoxybenzamide", "N-[(1-Ethyl-2-pyrrolidinyl)methyl]-2-methoxy-5-sulfamoylbenzamide", "Sulpiride", "N-[(1-Ethyl-2-pyrrolidinyl)methyl]-5-sulfamoyl-o-anisamide", "N-(1-Ethyl-2-pyrrolidinylmethyl)-2-methoxy-5-sulfamidobenzamide", "Dogmatil", "Sulpirid", "Aiglonyl", "Dogmatyl", "Eglonyl", "RD 1403", "Sulpyrid", "Abilit", "Dobren", "(\u00b1)-Sulpiride", "dl-Sulpiride", "DL-Sulpiride", "Coolspan", "Omperan", "Meresa", "Guastil", "Pyrikappl", "Misulvan", "Dolmatil", "Synedil", "Miradol", "Sursumid", "Trilan", "Sernevin", "Splotin", "Sulpitil", "Neogama", "Mirbanil", "N-(1-Ethylpyrrolidin-2-ylmethyl)-2-methoxy-5-sulfamoylbenzamide", "Dogmil", "MeSH ID: D013469"], "SMILES": "C(NCC1N(CC)CCC1)(=O)C2=C(OC)C=CC(S(N)(=O)=O)=C2", "physical_data": {"Molecular Weight": "341.43", "Molecular Formula": "C15H23N3O4S", "Melting Point": "178 \u00b0C (decomp)", "Density": "1.34 g/cm\u00b3"}}