{"cas_no": "1568-83-8", "cn_name": "\u53cc\u915aA\u4e8c\u7532\u919a", "en_name": ["1,1\u2032-(1-Methylethylidene)bis[4-methoxybenzene]", "Benzene, 1,1\u2032-(1-methylethylidene)bis[4-methoxy-", "Propane, 2,2-bis(p-methoxyphenyl)-", "1,1\u2032-(1-Methylethylidene)bis[4-methoxybenzene]", "Bisphenol A dimethyl ether", "2,2-Bis(4-methoxyphenyl)propane", "1,1\u2032-propane-2,2-diylbis(4-methoxybenzene)", "1-Methoxy-4-[2-(4-methoxyphenyl)propan-2-yl]benzene"], "SMILES": "C(C)(C)(C1=CC=C(OC)C=C1)C2=CC=C(OC)C=C2", "physical_data": {"Molecular Weight": "256.34", "Molecular Formula": "C17H20O2", "Boiling Point": "183 \u00b0C @ Press: 3 Torr", "Melting Point": "51-52 \u00b0C"}}