{"cas_no": "15686-71-2", "cn_name": "\u5934\u5b62\u6c28\u82c4", "en_name": ["Cephalexin", "5-Thia-1-azabicyclo[4.2.0]oct-2-ene-2-carboxylic acid, 7-[[(2R)-2-amino-2-phenylacetyl]amino]-3-methyl-8-oxo-, (6R,7R)-", "5-Thia-1-azabicyclo[4.2.0]oct-2-ene-2-carboxylic acid, 7-(2-amino-2-phenylacetamido)-3-methyl-8-oxo-, D-", "5-Thia-1-azabicyclo[4.2.0]oct-2-ene-2-carboxylic acid, 7-[(aminophenylacetyl)amino]-3-methyl-8-oxo-, [6R-[6\u03b1,7\u03b2(R*)]]-", "5-Thia-1-azabicyclo[4.2.0]oct-2-ene-2-carboxylic acid, 7-[[(2R)-aminophenylacetyl]amino]-3-methyl-8-oxo-, (6R,7R)-", "(6R,7R)-7-[[(2R)-2-Amino-2-phenylacetyl]amino]-3-methyl-8-oxo-5-thia-1-azabicyclo[4.2.0]oct-2-ene-2-carboxylic acid", "Cephalexin", "7-(\u03b1-Amino-D-phenylacetamido)-3-deacetoxycephalosporanic acid", "7-[D-(-)-\u03b1-Aminophenylacetamido]-3-methyl-3-cephem-4-carboxylic acid", "Ceporexine", "Cefalexin", "Keflex", "Keforal", "Lilly 66873", "Larixin", "S 6437", "Oroxin", "Ceporexin", "Oracef", "Ceforal", "Palitrex", "L-Keflex", "Syncl", "Cephacillin", "Cephamasten", "Lafarine", "D-Cephalexin", "Cepexin", "Cephalexine", "Ceporex", "Cefaleksin", "Tepaxin", "Kefloridina", "Sialexin", "Novolexin", "Medoxine", "Kekrinal", "Ibilex", "Nufex", "Ceporex Forte", "Oriphex", "Alsporin", "Mamlexin", "Cophalexin", "Sporidex", "Inphalex", "Ibrexin", "Cefadina", "Servispor", "Kefalospes", "Uphalexin", "Cefadal", "Kefalex", "Kidolex", "Madlexin", "Sinthecillin", "Celexin", "Cefadin", "Kefexin", "Voxxim", "Lopilexin", "Syncle", "Check", "Winlex", "Pyassan", "Neokef", "Lonflex", "Cephaxin", "Erocetin", "Sanaxin", "Cefalin", "Sporicef", "Keflet", "Mamalexin", "Cefablan", "Ospexin", "Carnosporin", "Felexin", "Sepexin", "Septilisin", "Rofex", "Tokiolexin", "Durantel DS", "Cephin", "Durantel", "Ed A-Ceph", "Biocef", "Cefovit", "Naxifelar", "Cefaseptin", "Fexin", "Cepastar", "Alcephin", "Cepol", "Synecl", "Kefaxin", "Lenocef", "Cefadyl", "Pectril", "Cerexin", "Iwalexin", "Llonexina", "Cefadros", "Cex", "Cefaloto", "Farexin", "Xahl", "Derantel", "Sencephalin", "Oracocin", "Rinesal", "Mecilex", "Ohlexin", "Fergon 500", "Taicelexin", "Lexibiotico", "Cefanex", "Sintolexyn", "Efalexin", "Garasin", "Phexin", "Larixin (antibiotic)", "Vetolexin", "Lixen-IU", "MeSH ID: D002506"], "SMILES": "O=C1N2C(C1NC(C(N)C3=CC=CC=C3)=O)SCC(C)=C2C(O)=O", "physical_data": {"Molecular Weight": "347.39", "Molecular Formula": "C16H17N3O4S", "Melting Point": "160-168 \u00b0C (decomp)"}}