{"cas_no": "156897-06-2", "cn_name": "\u5229\u514b\u98de\u9f99", "en_name": ["Licofelone", "1H-Pyrrolizine-5-acetic acid, 6-(4-chlorophenyl)-2,3-dihydro-2,2-dimethyl-7-phenyl-", "6-(4-Chlorophenyl)-2,3-dihydro-2,2-dimethyl-7-phenyl-1H-pyrrolizine-5-acetic acid", "ML 3000", "Licofelone", "[2,2-Dimethyl-6-(4-chlorophenyl)-7-phenyl-2,3-dihydro-1H-pyrrolizin-5-yl]acetic acid"], "SMILES": "C(C(O)=O)C1=C(C(=C2N1CC(C)(C)C2)C3=CC=CC=C3)C4=CC=C(Cl)C=C4", "physical_data": {"Molecular Weight": "379.88", "Molecular Formula": "C23H22ClNO2", "Melting Point": "156-157 \u00b0C"}}