{"cas_no": "1568-80-5", "cn_name": "3,3,3',3'-\u56db\u7532\u57fa-1,1'-\u87baBI(\u831a\u6ee1)-6,6'-\u4e8c\u9187", "en_name": ["2,2\u2032,3,3\u2032-Tetrahydro-3,3,3\u2032,3\u2032-tetramethyl-1,1\u2032-spirobi[1H-indene]-6,6\u2032-diol", "1,1\u2032-Spirobi[1H-indene]-6,6\u2032-diol, 2,2\u2032,3,3\u2032-tetrahydro-3,3,3\u2032,3\u2032-tetramethyl-", "1,1\u2032-Spirobi[indan]-6,6\u2032-diol, 3,3,3\u2032,3\u2032-tetramethyl-", "2,2\u2032,3,3\u2032-Tetrahydro-3,3,3\u2032,3\u2032-tetramethyl-1,1\u2032-spirobi[1H-indene]-6,6\u2032-diol", "3,3,3\u2032,3\u2032-Tetramethyl-1,1\u2032-spirobi[indane]-6,6\u2032-diol", "6,6\u2032-Dihydroxy-3,3,3\u2032,3\u2032-tetramethyl-1,1\u2032-spirobiindane", "SI (diol)", "SI", "3,3,3\u2032,3\u2032-Tetramethyl-1,1\u2032-spiroindane-6,6\u2032-diol", "3,3,3\u2032,3\u2032-Tetramethyl-2,2\u2032,3,3\u2032-tetrahydro-1,1\u2032-spirobi[indene]-6,6\u2032-diol", "3,3,3\u2032,3\u2032-Tetramethyl-1,1\u2032-spirobiindan-6,6\u2032-diol", "3,3,3\u2032,3\u2032-Tetramethyl-1,1\u2032-spirobisindane-6,6\u2032-diol", "3,3,3\u2032,3\u2032-Tetramethyl-1,1\u2032-spirobisindan-6,6\u2032-diol", "3,3\u2032-Spiro-bis(1,1-dimethyl-2,3-dihydro-1H-inden-5-ol)"], "SMILES": "CC1(C)CC2(C=3C(C(C)(C)C2)=CC=C(O)C3)C=4C1=CC=C(O)C4", "physical_data": {"Molecular Weight": "308.41", "Molecular Formula": "C21H24O2", "Melting Point": "213-214 \u00b0C"}}