{"cas_no": "15686-83-6", "cn_name": "\u567b\u5627\u5576", "en_name": ["Pyrantel", "Pyrimidine, 1,4,5,6-tetrahydro-1-methyl-2-[(1E)-2-(2-thienyl)ethenyl]-", "Pyrimidine, 1,4,5,6-tetrahydro-1-methyl-2-[2-(2-thienyl)vinyl]-, (E)-", "Pyrimidine, 1,4,5,6-tetrahydro-1-methyl-2-[2-(2-thienyl)ethenyl]-, (E)-", "1,4,5,6-Tetrahydro-1-methyl-2-[(1E)-2-(2-thienyl)ethenyl]pyrimidine", "Pyrantel", "1,4,5,6-Tetrahydro-1-methyl-2-[trans-2-(2-thienyl)vinyl]pyrimidine", "Pyrequan", "Ascarel"], "SMILES": "C(=CC1=CC=CS1)C=2N(C)CCCN2", "physical_data": {"Molecular Weight": "206.31", "Molecular Formula": "C11H14N2S", "Melting Point": "178-179 \u00b0C"}}