{"cas_no": "15686-51-8", "cn_name": "\u5bcc\u9a6c\u9178\u6c2f\u9a6c\u65af\u6c40", "en_name": ["Clemastine", "Pyrrolidine, 2-[2-[(1R)-1-(4-chlorophenyl)-1-phenylethoxy]ethyl]-1-methyl-, (2R)-", "Pyrrolidine, 2-[2-[(p-chloro-\u03b1-methyl-\u03b1-phenylbenzyl)oxy]ethyl]-1-methyl-, (+)-", "Pyrrolidine, 2-[2-[1-(4-chlorophenyl)-1-phenylethoxy]ethyl]-1-methyl-, [R-(R*,R*)]-", "(2R)-2-[2-[(1R)-1-(4-Chlorophenyl)-1-phenylethoxy]ethyl]-1-methylpyrrolidine", "Clemastine", "Meclastine", "(+)-Clemastine", "MeSH ID: D002974"], "SMILES": "C(OCCC1N(C)CCC1)(C)(C2=CC=C(Cl)C=C2)C3=CC=CC=C3", "physical_data": {"Molecular Weight": "343.89", "Molecular Formula": "C21H26ClNO", "Boiling Point": "154 \u00b0C @ Press: 0.02 Torr"}}