{"cas_no": "1569-60-4", "cn_name": "6-\u7532\u57fa-5-\u5e9a\u70ef-2-\u9187", "en_name": ["6-Methyl-5-hepten-2-ol", "5-Hepten-2-ol, 6-methyl-", "6-Methyl-5-hepten-2-ol", "6-Hydroxy-2-methyl-2-heptene", "2-Methyl-2-hepten-6-ol", "Sulcatol", "(\u00b1)-Sulcatol", "(\u00b1)-6-Methyl-5-hepten-2-ol", "NSC 66273"], "SMILES": "C(C=C(C)C)CC(C)O", "physical_data": {"Molecular Weight": "128.21", "Molecular Formula": "C8H16O", "Boiling Point": "175 \u00b0C", "Density": "0.855 g/cm\u00b3 @ Temp: 14 \u00b0C"}}