{"cas_no": "1569-69-3", "cn_name": "\u73af\u5df1\u786b\u9187", "en_name": ["Cyclohexanethiol", "Cyclohexanethiol", "Cyclohexyl mercaptan", "Cyclohexylthiol", "Mercaptocyclohexane", "NSC 59723"], "SMILES": "SC1CCCCC1", "physical_data": {"Molecular Weight": "116.22", "Molecular Formula": "C6H12S", "Boiling Point": "158.9 \u00b0C @ Press: 760 Torr", "Melting Point": "-118 \u00b0C", "Density": "0.9782 g/cm\u00b3 @ Temp: 20 \u00b0C"}}