{"cas_no": "15690-57-0", "cn_name": "\u6069\u6c2f\u7c73\u82ac", "en_name": ["Enclomiphene", "Ethanamine, 2-[4-[(1E)-2-chloro-1,2-diphenylethenyl]phenoxy]-N,N-diethyl-", "Triethylamine, 2-[p-(2-chloro-1,2-diphenylvinyl)phenoxy]-, (E)-", "Ethanamine, 2-[4-(2-chloro-1,2-diphenylethenyl)phenoxy]-N,N-diethyl-, (E)-", "2-[4-[(1E)-2-Chloro-1,2-diphenylethenyl]phenoxy]-N,N-diethylethanamine", "2-[p-(2-Chloro-trans-1,2-diphenylvinyl)phenoxy]triethylamine", "Enclomiphene", "ICI 46476", "trans-Clomifene", "trans-Clomiphene", "(E)-Clomiphene", "Enclomifene", "Androxal"], "SMILES": "C(=C(Cl)C1=CC=CC=C1)(C2=CC=C(OCCN(CC)CC)C=C2)C3=CC=CC=C3", "physical_data": {"Molecular Weight": "405.96", "Molecular Formula": "C26H28ClNO", "Melting Point": "73-75 \u00b0C"}}