{"cas_no": "1569-50-2", "cn_name": "3-\u620a\u70ef-2-\u9187", "en_name": ["(\u00b1)-3-Penten-2-ol", "3-Penten-2-ol", "\u03b1,\u03b3-Dimethylallyl alcohol", "Methyl propenyl carbinol", "4-Hydroxy-2-pentene", "2-Hydroxy-3-pentene", "(\u00b1)-2-Penten-4-ol", "(\u00b1)-3-Penten-2-ol", "2-Penten-4-ol"], "SMILES": "C(C(C)O)=CC", "physical_data": {"Molecular Weight": "86.13", "Molecular Formula": "C5H10O", "Boiling Point": "122 \u00b0C", "Density": "0.8382 g/cm\u00b3 @ Temp: 17.95 \u00b0C"}}