{"cas_no": "1569-17-1", "cn_name": "4-\u7532\u57fa-1,8-\u8418\u5576", "en_name": ["4-Methyl-1,8-naphthyridine", "1,8-Naphthyridine, 4-methyl-", "4-Methyl-1,8-naphthyridine"], "SMILES": "CC=1C2=C(N=CC1)N=CC=C2", "physical_data": {"Molecular Weight": "144.17", "Molecular Formula": "C9H8N2", "Boiling Point": "147-148 \u00b0C @ Press: 0.05 Torr"}}