{"cas_no": "15690-25-2", "cn_name": "3-\uff082-\u567b\u55ef\u57fa\uff09\u4e19\u70ef\u9178", "en_name": ["(2E)-3-(2-Thienyl)-2-propenoic acid", "2-Propenoic acid, 3-(2-thienyl)-, (2E)-", "2-Thiopheneacrylic acid, (E)-", "2-Propenoic acid, 3-(2-thienyl)-, (E)-", "(2E)-3-(2-Thienyl)-2-propenoic acid", "(E)-3-(2-Thienyl)acrylic acid", "(E)-3-(Thiophen-2-yl)acrylic acid", "trans-3-Thiopheneacrylic acid", "(E)-3-(Thiophen-2-yl)-2-propenoic acid", "(2E)-3-(2-Thiophenyl)-2-propenoic acid", "trans-3-(2-Thienyl)acrylic acid", "trans-3-(2-Thienyl)-2-propenoic acid", "(E)-3-(Thien-2-yl)acrylic acid"], "SMILES": "C(=CC(O)=O)C1=CC=CS1", "physical_data": {"Molecular Weight": "154.19", "Molecular Formula": "C7H6O2S", "Melting Point": "146-148 \u00b0C"}}