{"cas_no": "1569-01-3", "cn_name": "1-\u4e19\u6c27\u57fa-2-\u4e19\u9187", "en_name": ["1-Propoxy-2-propanol", "2-Propanol, 1-propoxy-", "1-Propoxy-2-propanol", "1,2-Propylene glycol 1-propyl ether", "Arcosolv PNP", "Propasol solvent P", "1-(1-Propyloxy)propan-2-ol"], "SMILES": "C(OCCC)C(C)O", "physical_data": {"Molecular Weight": "118.17", "Molecular Formula": "C6H14O2", "Boiling Point": "148-149 \u00b0C @ Press: 730 Torr", "Melting Point": "-80 \u00b0C", "Density": "0.8886 g/cm\u00b3 @ Temp: 20 \u00b0C"}}