{"cas_no": "1569-02-4", "cn_name": "\u4e19\u4e8c\u9187\u4e59\u919a", "en_name": ["1-Ethoxy-2-propanol", "2-Propanol, 1-ethoxy-", "1-Ethoxy-2-propanol", "NSC 2404", "Ethyl Proxitol"], "SMILES": "C(C(C)O)OCC", "physical_data": {"Molecular Weight": "104.15", "Molecular Formula": "C5H12O2", "Boiling Point": "131 \u00b0C", "Density": "0.9028 g/cm\u00b3 @ Temp: 20 \u00b0C"}}