{"cas_no": "157-03-9", "cn_name": "6-\u91cd\u6c2e-5-\u6c27\u4ee3-L-\u6b63\u4eae\u6c28\u9178", "en_name": ["6-Diazo-5-oxo-L-norleucine", "L-Norleucine, 6-diazo-5-oxo-", "Norleucine, 6-diazo-5-oxo-, L-", "6-Diazo-5-oxo-L-norleucine", "DON", "NSC 7365", "DON (pharmaceutical)", "L-DON", "L-6-Diazo-5-oxonorleucine", "(2S)-2-Amino-6-diazo-5-oxohexanoic acid"], "SMILES": "C(CC(C(O)=O)N)C(C=[N+]=[N-])=O", "physical_data": {"Molecular Weight": "", "Molecular Formula": "C6H9N3O3", "Melting Point": "145-155 \u00b0C (decomp)"}}