{"cas_no": "157-06-2", "cn_name": "D-\u7cbe\u6c28\u9178", "en_name": ["D-Arginine", "D-Arginine", "Arginine, D-", "(R)-Arginine", "(2R)-2-Amino-5-(diaminomethylideneamino)pentanoic acid", "(R)-2-Amino-5-guanidinopentanoic acid", "(2R)-2-Amino-5-carbamimidamidopentanoic acid", "(2R)-2-Amino-5-[(diaminomethylidene)amino]pentanoic acid"], "SMILES": "C(CCNC(=N)N)C(C(O)=O)N", "physical_data": {"Molecular Weight": "174.20", "Molecular Formula": "C6H14N4O2", "Melting Point": "238 \u00b0C"}}