{"cas_no": "15706-73-7", "cn_name": "\u4e01\u91782-\u7532\u57fa\u4e01\u916f", "en_name": ["(\u00b1)-Butyl 2-methylbutanoate", "Butanoic acid, 2-methyl-, butyl ester", "Butyric acid, 2-methyl-, butyl ester", "Butyl 2-methylbutanoate", "Butyl 2-methylbutyrate", "n-Butyl 2-methylbutyrate", "(\u00b1)-Butyl 2-methylbutanoate"], "SMILES": "C(OCCCC)(C(CC)C)=O", "physical_data": {"Molecular Weight": "158.24", "Molecular Formula": "C9H18O2", "Boiling Point": "179 \u00b0C"}}