{"cas_no": "15707-23-0", "cn_name": "2-\u4e59\u57fa-3-\u7532\u57fa\u5421\u55ea", "en_name": ["2-Ethyl-3-methylpyrazine", "Pyrazine, 2-ethyl-3-methyl-", "2-Ethyl-3-methylpyrazine", "2-Methyl-3-ethylpyrazine", "3-Methyl-2-ethylpyrazine", "3-Ethyl-2-methylpyrazine", "2-Ethyl-3-methyl-1,4-pyrazine"], "SMILES": "C(C)C=1C(C)=NC=CN1", "physical_data": {"Molecular Weight": "122.17", "Molecular Formula": "C7H10N2", "Boiling Point": "57 \u00b0C"}}