{"cas_no": "15706-89-5", "cn_name": "H-ARG-GLU-OH", "en_name": ["L-Arginyl-L-glutamic acid", "L-Glutamic acid, L-arginyl-", "L-Glutamic acid, N-L-arginyl-", "Glutamic acid, N-arginyl-", "L-Arginyl-L-glutamic acid", "NSC 186916", "1738: PN: WO2007124090 PAGE: 84 claimed protein", "410: PN: EP2071334 SEQID: 441 claimed protein", "410: PN: WO2009077864 SEQID: 441 claimed protein", "7: PN: WO2011146121 PAGE: 113 claimed sequence", "23: PN: WO2021055880 SEQID: 24 claimed protein", "51: PN: WO2021211467 SEQID: 204 claimed sequence"], "SMILES": "C(NC(C(CCCNC(=N)N)N)=O)(CCC(O)=O)C(O)=O", "physical_data": {"Molecular Weight": "303.31", "Molecular Formula": "C11H21N5O5", "Melting Point": "193-194.5 \u00b0C (decomp)"}}