{"cas_no": "15707-24-1", "cn_name": "2,3-\u4e8c\u4e59\u57fa\u5421\u55ea", "en_name": ["2,3-Diethylpyrazine", "Pyrazine, 2,3-diethyl-", "2,3-Diethylpyrazine"], "SMILES": "C(C)C=1C(CC)=NC=CN1", "physical_data": {"Molecular Weight": "136.19", "Molecular Formula": "C8H12N2", "Boiling Point": "181 \u00b0C"}}