{"cas_no": "1570-45-2", "cn_name": "\u5f02\u70df\u9178\u4e59\u916f", "en_name": ["Ethyl isonicotinate", "4-Pyridinecarboxylic acid, ethyl ester", "Isonicotinic acid, ethyl ester", "Ethyl isonicotinate", "4-Carbethoxypyridine", "Ethyl 4-pyridinecarboxylate", "4-Carboethoxypyridine", "\u03b3-Pyridinecarboxylic acid ethyl ester", "4-Ethoxycarbonylpyridine", "NSC 6854"], "SMILES": "C(OCC)(=O)C=1C=CN=CC1", "physical_data": {"Molecular Weight": "151.16", "Molecular Formula": "C8H9NO2", "Boiling Point": "219.5 \u00b0C", "Melting Point": "23 \u00b0C", "Density": "1.5009 g/cm\u00b3 @ Temp: 20 \u00b0C"}}