{"cas_no": "1570-64-5", "cn_name": "4-\u6c2f-2-\u7532\u57fa\u82ef\u915a", "en_name": ["4-Chloro-2-methylphenol", "Phenol, 4-chloro-2-methyl-", "o-Cresol, 4-chloro-", "4-Chloro-2-methylphenol", "4-Chloro-o-cresol", "p-Chloro-o-cresol", "4-Chloro-2-cresol", "5-Chloro-2-hydroxytoluene", "PCOC", "NSC 2851", "4-Chlorocresol"], "SMILES": "CC1=C(O)C=CC(Cl)=C1", "physical_data": {"Molecular Weight": "142.58", "Molecular Formula": "C7H7ClO", "Boiling Point": "223 \u00b0C", "Melting Point": "51 \u00b0C", "Density": "1.2 g/cm\u00b3"}}