{"cas_no": "1570-65-6", "cn_name": "4,6-\u4e8c\u6c2f\u7532\u915a", "en_name": ["2,4-Dichloro-6-methylphenol", "Phenol, 2,4-dichloro-6-methyl-", "o-Cresol, 4,6-dichloro-", "2,4-Dichloro-6-methylphenol", "4,6-Dichloro-2-methylphenol", "4,6-Dichloro-o-cresol", "2-Methyl-4,6-dichlorophenol", "NSC 21469"], "SMILES": "OC1=C(C)C=C(Cl)C=C1Cl", "physical_data": {"Molecular Weight": "177.03", "Molecular Formula": "C7H6Cl2O", "Boiling Point": "131 \u00b0C @ Press: 28 Torr", "Melting Point": "53-54 \u00b0C"}}