{"cas_no": "1570-95-2", "cn_name": "2-\u82ef\u57fa-1,3-\u4e19\u4e8c\u9187", "en_name": ["2-Phenyl-1,3-propanediol", "1,3-Propanediol, 2-phenyl-", "2-Phenyl-1,3-propanediol", "NSC 78023", "1,3-Hydroxy-2-phenylpropane", "2-Phenyl-1,3-propandiol"], "SMILES": "C(CO)(CO)C1=CC=CC=C1", "physical_data": {"Molecular Weight": "152.19", "Molecular Formula": "C9H12O2", "Boiling Point": "176 \u00b0C @ Press: 13 Torr", "Melting Point": "51.5-52.0 \u00b0C", "Density": "1.1161 g/cm\u00b3 @ Temp: 19 \u00b0C"}}