{"cas_no": "1570-48-5", "cn_name": "3-\u4e19\u9170\u57fa\u5421\u5576", "en_name": ["3-Propionylpyridine", "1-Propanone, 1-(3-pyridinyl)-", "1-Propanone, 1-(3-pyridyl)-", "1-(3-Pyridinyl)-1-propanone", "3-Propionylpyridine", "3-Pyridyl ethyl ketone", "Ethyl 3-pyridyl ketone", "1-(3-Pyridyl)-1-propanone", "1-Pyridin-3-ylpropan-1-one"], "SMILES": "C(CC)(=O)C=1C=CC=NC1", "physical_data": {"Molecular Weight": "135.16", "Molecular Formula": "C8H9NO", "Boiling Point": "109-112 \u00b0C @ Press: 10 Torr", "Melting Point": "174 \u00b0C"}}