{"cas_no": "157197-54-1", "cn_name": "1,3-\u4e8c(\u53d4\u4e01\u57fa\u54aa\u5511)\u6c2f", "en_name": ["1H-Imidazolium, 1,3-bis(1,1-dimethylethyl)-, chloride (1:1)", "1H-Imidazolium, 1,3-bis(1,1-dimethylethyl)-, chloride (1:1)", "1H-Imidazolium, 1,3-bis(1,1-dimethylethyl)-, chloride", "1,3-Di-tert-butyl-1H-imidazolium chloride", "1,3-Di-tert-butylimidazolium chloride", "1,3-Di-tert-butyl-1,3-dihydro-2H-imidazol-2-ylidene monohydrochloride", "1,3-Di-tert-butyl-1H-imidazol-3-ium chloride"], "SMILES": "C(C)(C)(C)[N+]1=CN(C(C)(C)C)C=C1.[Cl-]", "physical_data": {"Molecular Weight": "", "Molecular Formula": "C11H21N2.Cl", "Melting Point": "202-203 \u00b0C"}}