{"cas_no": "1571-30-8", "cn_name": "8-\u7f9f\u57fa\u55b9\u5549-2-\u7fa7\u9178", "en_name": ["8-Hydroxyquinoline-2-carboxylic acid", "2-Quinolinecarboxylic acid, 8-hydroxy-", "Quinaldic acid, 8-hydroxy-", "8-Hydroxy-2-quinolinecarboxylic acid", "8-Hydroxyquinaldic acid", "8-Hydroxyquinoline-2-carboxylic acid", "2-Carboxy-8-hydroxyquinoline", "8-Hydroxyquinaldinic acid"], "SMILES": "OC=1C2=C(C=CC(C(O)=O)=N2)C=CC1", "physical_data": {"Molecular Weight": "189.17", "Molecular Formula": "C10H7NO3", "Melting Point": "190-200 \u00b0C"}}