{"cas_no": "1571-33-1", "cn_name": "\u82ef\u81a6\u9178", "en_name": ["Phenylphosphonic acid", "Phosphonic acid, P-phenyl-", "Phosphonic acid, phenyl-", "P-Phenylphosphonic acid", "Benzenephosphonic acid", "Phenylphosphonic acid", "Dihydrogen phenylphosphonate", "NSC 145", "PPA", "Phenyl-1-phosphonic acid"], "SMILES": "P(=O)(O)(O)C1=CC=CC=C1", "physical_data": {"Molecular Weight": "158.09", "Molecular Formula": "C6H7O3P", "Melting Point": "163-166 \u00b0C"}}