{"cas_no": "1571-86-4", "cn_name": "1,4-\u4e8c-N-\u4e01\u57fa\u82ef", "en_name": ["1,4-Dibutylbenzene", "Benzene, 1,4-dibutyl-", "Benzene, p-dibutyl-", "1,4-Dibutylbenzene", "p-Dibutylbenzene", "1,4-Di-n-butylbenzene"], "SMILES": "C(CCC)C1=CC=C(CCCC)C=C1", "physical_data": {"Molecular Weight": "190.32", "Molecular Formula": "C14H22", "Boiling Point": "224-225.5 \u00b0C @ Press: 769 Torr", "Melting Point": "-30 \u00b0C", "Density": "0.8584 g/cm\u00b3 @ Temp: 20 \u00b0C"}}