{"cas_no": "157115-85-0", "cn_name": "N-(1-(\u82ef\u57fa\u4e59\u9170\u57fa)-L-\u812f\u6c28\u9170)\u7518\u6c28\u9178\u4e59\u916f", "en_name": ["1-(2-Phenylacetyl)-L-prolylglycine ethy ester", "Glycine, 1-(2-phenylacetyl)-L-prolyl-, ethyl ester", "Glycine, N-[1-(phenylacetyl)-L-prolyl]-, ethyl ester", "Glycine, 1-(phenylacetyl)-L-prolyl-, ethyl ester", "1-(2-Phenylacetyl)-L-prolylglycine ethy ester", "GVS 111", "Noopept", "SGS 111", "Omberacetam", "(S)-Ethyl 2-(1-(2-phenylacetyl)pyrrolidine-2-carboxamido)acetate"], "SMILES": "C(CC1=CC=CC=C1)(=O)N2C(C(NCC(OCC)=O)=O)CCC2", "physical_data": {"Molecular Weight": "318.37", "Molecular Formula": "C17H22N2O4", "Melting Point": "96-97 \u00b0C"}}