{"cas_no": "15715-41-0", "cn_name": "\u7532\u57fa\u4e8c\u4e59\u6c27\u57fa\u81a6", "en_name": ["Diethyl methylphosphonite", "Phosphonous acid, P-methyl-, diethyl ester", "Phosphonous acid, methyl-, diethyl ester", "Diethyl methylphosphonite", "Diethoxymethylphosphine", "Diethyl methanephosphonite", "O,O-Diethyl methylphosphonite", "Methyldiethoxyphosphine", "Diethoxy(methyl)phosphane"], "SMILES": "P(OCC)(OCC)C", "physical_data": {"Molecular Weight": "136.13", "Molecular Formula": "C5H13O2P", "Boiling Point": "47 \u00b0C @ Press: 50 Torr", "Density": "0.905 g/cm\u00b3 @ Temp: 20 \u00b0C"}}