{"cas_no": "1571-72-8", "cn_name": "3-\u6c28\u57fa-4-\u7f9f\u57fa\u82ef\u7532\u9178", "en_name": ["3-Amino-4-hydroxybenzoic acid", "Benzoic acid, 3-amino-4-hydroxy-", "3-Amino-4-hydroxybenzoic acid", "4-Hydroxy-3-aminobenzoic acid", "NSC 700601", "3-Amino-4-hydroxylbenzoic acid"], "SMILES": "C(O)(=O)C1=CC(N)=C(O)C=C1", "physical_data": {"Molecular Weight": "153.14", "Molecular Formula": "C7H7NO3", "Melting Point": "205 \u00b0C"}}