{"cas_no": "1571-13-7", "cn_name": "4,5,6,7-\u56db\u6c2f\u90bb\u82ef\u4e8c\u7532\u9170\u4e9a\u80fa", "en_name": ["Tetrachlorophthalimide", "1H-Isoindole-1,3(2H)-dione, 4,5,6,7-tetrachloro-", "Phthalimide, 3,4,5,6-tetrachloro-", "4,5,6,7-Tetrachloro-1H-isoindole-1,3(2H)-dione", "Tetrachlorophthalimide", "3,4,5,6-Tetrachlorophthalimide", "NSC 72066", "4,5,6,7-Tetrachloroisoindole-1,3-dione", "4,5,6,7-Tetrachloroisoindoline-1,3-dione"], "SMILES": "ClC1=C2C(=C(Cl)C(Cl)=C1Cl)C(=O)NC2=O", "physical_data": {"Molecular Weight": "284.91", "Molecular Formula": "C8HCl4NO2", "Melting Point": "341-343 \u00b0C"}}