{"cas_no": "1571-75-1", "cn_name": "\u53cc\u915aAP", "en_name": ["1,1-Bis(4-hydroxyphenyl)-1-phenylethane", "Phenol, 4,4\u2032-(1-phenylethylidene)bis-", "Phenol, 4,4\u2032-(\u03b1-methylbenzylidene)di-", "4,4\u2032-(1-Phenylethylidene)bis[phenol]", "1,1-Bis(4-hydroxyphenyl)-1-phenylethane", "4,4\u2032-(\u03b1-Methylbenzylidene)diphenol", "Bis(4-hydroxyphenyl)methylphenylmethane", "Bisphenol ACP", "4,4\u2032-(1-Phenylethylidene)diphenol", "Bisphenol AP", "Bisp-Ap", "NK-AP", "\u03b1,\u03b1-Bis(4-hydroxyphenyl)ethylbenzene", "1-Phenyl-1,1-bis(4-hydroxyphenyl)ethane", "4,4\u2032-(\u03b1-Methylbenzylidene)bisphenol"], "SMILES": "C(C)(C1=CC=C(O)C=C1)(C2=CC=C(O)C=C2)C3=CC=CC=C3", "physical_data": {"Molecular Weight": "290.36", "Molecular Formula": "C20H18O2", "Melting Point": "175 \u00b0C"}}