{"cas_no": "1571-08-0", "cn_name": "\u5bf9\u7532\u9170\u57fa\u82ef\u7532\u9178\u7532\u916f", "en_name": ["Methyl 4-formylbenzoate", "Benzoic acid, 4-formyl-, methyl ester", "Terephthalaldehydic acid, methyl ester", "Methyl p-formylbenzoate", "p-Formylbenzoic acid methyl ester", "Methyl 4-formylbenzoate", "4-(Methoxycarbonyl)benzaldehyde", "4-Carbomethoxybenzaldehyde", "Methyl benzaldehyde-4-carboxylate", "4-Carboxybenzaldehyde methyl ester", "p-Carbomethoxybenzaldehyde", "p-(Methoxycarbonyl)benzaldehyde", "Methyl terephthalaldehydate", "4-Formylbenzoic acid methyl ester", "Para(methoxycarbonyl)benzaldehyde", "4-Formylbenzoic methyl ester", "NSC 28459"], "SMILES": "C(OC)(=O)C1=CC=C(C=O)C=C1", "physical_data": {"Molecular Weight": "164.16", "Molecular Formula": "C9H8O3", "Boiling Point": "135 \u00b0C @ Press: 12 Torr", "Melting Point": "62-63 \u00b0C"}}