{"cas_no": "15722-48-2", "cn_name": "\u5965\u6c99\u62c9\u55ea", "en_name": ["Olsalazine", "Benzoic acid, 3,3\u2032-(1,2-diazenediyl)bis[6-hydroxy-", "C.I. Mordant Yellow 5", "Benzoic acid, 3,3\u2032-azobis[6-hydroxy-", "Salicylic acid, 5,5\u2032-azodi-", "3,3\u2032-(1,2-Diazenediyl)bis[6-hydroxybenzoic acid]", "3,3\u2032-Dicarboxy-4,4\u2032-dihydroxyazobenzene", "3,3\u2032-Azobis(6-hydroxybenzoic acid)", "5,5\u2032-Azobis(salicylic acid)", "Azodisal", "Olsalazine", "5,5\u2032-Azodisalicylic acid"], "SMILES": "N(=NC1=CC(C(O)=O)=C(O)C=C1)C2=CC(C(O)=O)=C(O)C=C2", "physical_data": {"Molecular Weight": "302.24", "Molecular Formula": "C14H10N2O6", "Melting Point": "&gt;300 \u00b0C"}}