{"cas_no": "15721-02-5", "cn_name": "2,2',5,5'-\u56db\u6c2f\u4e8c\u82ef\u80fa", "en_name": ["2,2\u2032,5,5\u2032-Tetrachlorobenzidine", "[1,1\u2032-Biphenyl]-4,4\u2032-diamine, 2,2\u2032,5,5\u2032-tetrachloro-", "Benzidine, 2,2\u2032,5,5\u2032-tetrachloro-", "2,2\u2032,5,5\u2032-Tetrachloro[1,1\u2032-biphenyl]-4,4\u2032-diamine", "2,2\u2032,5,5\u2032-Tetrachlorobenzidine", "3,3\u2032,6,6\u2032-Tetrachlorobenzidine", "4,4\u2032-Diamino-2,2\u2032,5,5\u2032-tetrachlorobiphenyl", "Tetradine", "2,2\u2032,5,5\u2032-Tetrachlorobiphenyl-4,4\u2032-diamine"], "SMILES": "ClC1=C(C=C(Cl)C(N)=C1)C2=C(Cl)C=C(N)C(Cl)=C2", "physical_data": {"Molecular Weight": "322.02", "Molecular Formula": "C12H8Cl4N2", "Melting Point": "135 \u00b0C"}}