{"cas_no": "1572-97-0", "cn_name": "(S)-(-)-\u5bf9\u7532\u6c27\u57fa\u82ef\u4e59\u9187", "en_name": ["(S)-1-(4-Methoxyphenyl)ethanol", "Benzenemethanol, 4-methoxy-\u03b1-methyl-, (\u03b1S)-", "Benzenemethanol, 4-methoxy-\u03b1-methyl-, (S)-", "(\u03b1S)-4-Methoxy-\u03b1-methylbenzenemethanol", "(S)-1-(4-Methoxyphenyl)ethanol", "(S)-1-(p-Methoxyphenyl)ethanol", "(S)-4-Methoxy-\u03b1-methylbenzyl alcohol", "(S)-(-)-1-(p-Methoxyphenyl)ethanol", "(-)-1-(p-Methoxyphenyl)ethanol", "(1S)-1-(4-Methoxyphenyl)ethanol", "(S)-1-(4-Methoxyphenyl)-1-ethanol", "(-)-1-(4-Methoxyphenyl)ethanol", "(1S)-1-(4-Methoxyphenyl)ethan-1-ol", "(1S)-1-(4-Methoxyphenyl)ethanol"], "SMILES": "C(C)(O)C1=CC=C(OC)C=C1", "physical_data": {"Molecular Weight": "152.19", "Molecular Formula": "C9H12O2", "Boiling Point": "94-95 \u00b0C @ Press: 0.8 mbar"}}