{"cas_no": "157212-55-0", "cn_name": "\u6ce2\u751f\u5766(\u6c34\u5408\u7269)", "en_name": ["Bosentan monohydrate", "Benzenesulfonamide, 4-(1,1-dimethylethyl)-N-[6-(2-hydroxyethoxy)-5-(2-methoxyphenoxy)[2,2\u2032-bipyrimidin]-4-yl]-, hydrate (1:1)", "Benzenesulfonamide, 4-(1,1-dimethylethyl)-N-[6-(2-hydroxyethoxy)-5-(2-methoxyphenoxy)[2,2\u2032-bipyrimidin]-4-yl]-, monohydrate", "Bosentan hydrate", "Bosentan monohydrate", "Stayveer"], "SMILES": "O(C=1C(NS(=O)(=O)C2=CC=C(C(C)(C)C)C=C2)=NC(=NC1OCCO)C=3N=CC=CN3)C4=C(OC)C=CC=C4.O", "physical_data": {"Molecular Weight": "", "Molecular Formula": "C27H29N5O6S.H2O", "Melting Point": "114-118 \u00b0C"}}