{"cas_no": "15721-05-8", "cn_name": "\u4e03\u7532\u57fa\u73af\u56db\u7845\u6c27\u70f7", "en_name": ["2,2,4,4,6,6,8-Heptamethylcyclotetrasiloxane", "Cyclotetrasiloxane, 2,2,4,4,6,6,8-heptamethyl-", "Cyclotetrasiloxane, heptamethyl-", "2,2,4,4,6,6,8-Heptamethylcyclotetrasiloxane", "Heptamethylcyclotetrasiloxane", "1,3,3,5,5,7,7-Heptamethylcyclotetrasiloxane", "2,2,4,4,6,6,8-Heptamethyl-1,3,5,7,2,4,6,8-tetraoxatetrasilocane"], "SMILES": "C[Si]1(C)O[Si](C)(C)O[SiH](C)O[Si](C)(C)O1", "physical_data": {"Molecular Weight": "282.59", "Molecular Formula": "C7H22O4Si4", "Boiling Point": "84.5 \u00b0C @ Press: 50 Torr", "Melting Point": "-27 \u00b0C", "Density": "1.3965 g/cm\u00b3 @ Temp: 20 \u00b0C"}}