{"cas_no": "1572-98-1", "cn_name": "2-\u6c30\u57fa-2-\u7532\u57fa\u4e19\u9178 \u4e59\u57fa \u916f", "en_name": ["Propanoic acid, 2-cyano-2-methyl-, ethyl ester", "Propanoic acid, 2-cyano-2-methyl-, ethyl ester", "Propionic acid, 2-cyano-2-methyl-, ethyl ester", "Ethyl 2-cyano-2-methylpropionate", "2-Cyano-2-(ethoxycarbonyl)propane", "Ethyl 2-cyano-2-methylpropanoate", "Ethyl 2-cyanoisobutyrate", "2,2-Dimethyl-2-cyanoacetic acid ethyl ester", "NSC 402029", "Cyanodimethylacetic acid ethyl ester", "Ethyl 2-cyano-2,2-dimethylacetate", "2-Cyano-2-methylpropionic acid ethyl ester"], "SMILES": "C(C(OCC)=O)(C#N)(C)C", "physical_data": {"Molecular Weight": "141.17", "Molecular Formula": "C7H11NO2", "Boiling Point": "185 \u00b0C", "Density": "0.971 g/cm\u00b3 @ Temp: 26 \u00b0C"}}