{"cas_no": "1572-52-7", "cn_name": "2-\u4e9a\u7532\u57fa\u620a\u4e8c\u8148", "en_name": ["2-Methyleneglutaronitrile", "Pentanedinitrile, 2-methylene-", "Glutaronitrile, 2-methylene-", "2-Methylenepentanedinitrile", "\u03b1-Methyleneglutaronitrile", "2,4-Dicyano-1-butene", "2-Methyleneglutaronitrile", "\u03b1-Methyleneglutarodinitrile", "2-Methyleneglutarodinitrile", "\u03b1-Cyanoethylacrylonitrile", "2-Methylidenepentanedinitrile"], "SMILES": "C(CCC#N)(C#N)=C", "physical_data": {"Molecular Weight": "106.13", "Molecular Formula": "C6H6N2", "Boiling Point": "75-78 \u00b0C @ Press: 0.15 Torr", "Density": "0.9756 g/cm\u00b3 @ Temp: 25 \u00b0C"}}