{"cas_no": "1572-10-7", "cn_name": "3-\u6c28\u57fa-5-\u82ef\u57fa\u5421\u5511", "en_name": ["3-Amino-5-phenylpyrazole", "1H-Pyrazol-3-amine, 5-phenyl-", "Pyrazole, 3-amino-5-phenyl-", "Pyrazole, 3(or 5)-amino-5(or 3)-phenyl-", "5-Phenyl-1H-pyrazol-3-amine", "3-Amino-5-phenylpyrazole", "3-Phenyl-5-aminopyrazole", "5-Amino-3-phenylpyrazole", "5-Phenyl-3-aminopyrazole", "3-Phenyl-5-pyrazolamine", "5-Phenyl-3-pyrazolamine", "3-Amino-5-phenyl-1H-pyrazole", "5-Phenyl-1-pyrazol-3-amine", "5-Phenyl-1H-pyrazol-3-ylamine", "3-Amino-5-phenyl-2H-pyrazole", "3-Phenyl-1H-pyrazol-5-amine", "5-Amino-3-phenyl-1H-pyrazole", "5-Phenylpyrazol-3-ylamine"], "SMILES": "NC=1C=C(NN1)C2=CC=CC=C2", "physical_data": {"Molecular Weight": "159.19", "Molecular Formula": "C9H9N3", "Melting Point": "126-127 \u00b0C"}}