{"cas_no": "15727-65-8", "cn_name": "1-\u4e59\u7094\u8418", "en_name": ["1-Ethynylnaphthalene", "Naphthalene, 1-ethynyl-", "1-Ethynylnaphthalene", "\u03b1-Naphthylacetylene", "\u03b1-Ethynylnaphthalene", "1-Naphthylacetylene", "1-Naphthylethyne"], "SMILES": "C(#C)C=1C2=C(C=CC1)C=CC=C2", "physical_data": {"Molecular Weight": "152.19", "Molecular Formula": "C12H8", "Boiling Point": "92 \u00b0C @ Press: 4 Torr", "Melting Point": "1-2 \u00b0C", "Density": "1.0513 g/cm\u00b3 @ Temp: 20 \u00b0C"}}