{"cas_no": "1572-99-2", "cn_name": "2-\u6c30\u57fa\u4e19\u9178\u4e59\u916f", "en_name": ["Ethyl 2-cyanopropanoate", "Propanoic acid, 2-cyano-, ethyl ester", "Propionic acid, 2-cyano-, ethyl ester", "Ethyl 2-cyanopropanoate", "Ethyl 2-cyanopropionate", "Ethyl \u03b1-cyanopropionate", "2-Cyanopropanoic acid ethyl ester", "NSC 68508", "2-Cyanopropionic acid ethyl ester"], "SMILES": "C(C(C#N)C)(OCC)=O", "physical_data": {"Molecular Weight": "127.14", "Molecular Formula": "C6H9NO2", "Boiling Point": "89-90 \u00b0C @ Press: 20 Torr", "Density": "0.998 g/cm\u00b3 @ Temp: 22 \u00b0C"}}