{"cas_no": "15723-90-7", "cn_name": "4-\u785d\u57fa\u82c4\u772f\u76d0\u9178\u76d0", "en_name": ["Benzenecarboximidamide, 4-nitro-, hydrochloride (1:1)", "Benzenecarboximidamide, 4-nitro-, hydrochloride (1:1)", "Benzamidine, p-nitro-, monohydrochloride", "Benzenecarboximidamide, 4-nitro-, monohydrochloride", "Benzamidine, p-nitro-, hydrochloride", "4-Nitrobenzamidine hydrochloride", "p-Nitrobenzamidine monohydrochloride", "p-Nitrobenzamidine hydrochloride", "4-Nitrophenylamidine hydrochloride", "4-Nitrobenzimidamide hydrochloride"], "SMILES": "C(=N)(N)C1=CC=C(N(=O)=O)C=C1.Cl", "physical_data": {"Molecular Weight": "", "Molecular Formula": "C7H7N3O2.ClH", "Melting Point": "290.6-293.6 \u00b0C (decomp)"}}