{"cas_no": "15726-15-5", "cn_name": "3-\u7532\u57fa-4-\u5e9a\u916e", "en_name": ["3-Methyl-4-heptanone", "4-Heptanone, 3-methyl-", "3-Methyl-4-heptanone", "sec-Butyl propyl ketone"], "SMILES": "C(C(CC)C)(CCC)=O", "physical_data": {"Molecular Weight": "128.21", "Molecular Formula": "C8H16O", "Boiling Point": "154 \u00b0C", "Density": "0.817 g/cm\u00b3 @ Temp: 20 \u00b0C"}}