{"cas_no": "1572-84-5", "cn_name": "2-\u4e01\u70ef-1,4-\u4e8c\u9187\u53cc\u4e01\u9178\u916f", "en_name": ["1,1\u2032-(2-Butene-1,4-diyl) dibutanoate", "Butanoic acid, 1,1\u2032-(2-butene-1,4-diyl) ester", "Butanoic acid, 2-butene-1,4-diyl ester", "Butyric acid, 2-butenylene ester", "1,1\u2032-(2-Butene-1,4-diyl) dibutanoate", "2-Butene-1,4-diol dibutyrate"], "SMILES": "C(OCC=CCOC(CCC)=O)(CCC)=O", "physical_data": {"Molecular Weight": "228.28", "Molecular Formula": "C12H20O4", "Boiling Point": "158-159 \u00b0C @ Press: 22 Torr"}}