{"cas_no": "15733-87-6", "cn_name": "2-\u6eb4\u55b9\u5549-4-\u7fa7\u9178", "en_name": ["2-Bromo-4-quinolinecarboxylic acid", "4-Quinolinecarboxylic acid, 2-bromo-", "Cinchoninic acid, 2-bromo-", "2-Bromo-4-quinolinecarboxylic acid"], "SMILES": "C(O)(=O)C=1C2=C(N=C(Br)C1)C=CC=C2", "physical_data": {"Molecular Weight": "252.06", "Molecular Formula": "C10H6BrNO2", "Melting Point": "175-176 \u00b0C"}}