{"cas_no": "15733-89-8", "cn_name": "2-\u7f9f\u57fa\u55b9\u5549-4-\u7fa7\u9178", "en_name": ["2-Hydroxycinchoninic acid", "4-Quinolinecarboxylic acid, 1,2-dihydro-2-oxo-", "Cinchoninic acid, 2-hydroxy-", "1,2-Dihydro-2-oxo-4-quinolinecarboxylic acid", "2-Hydroxy-4-quinolinecarboxylic acid", "2-Hydroxycinchoninic acid", "4-Carboxycarbostyril", "NSC 3564", "2-Hydroxyquinoline-4-carboxylic acid", "2-Oxo-1,2-dihydroquinoline-4-carboxylic acid", "2-Hydroxy-4-carboxyquinoline", "2-Oxo-1H-quinoline-4-carboxylic acid"], "SMILES": "C(O)(=O)C=1C=2C(NC(=O)C1)=CC=CC2", "physical_data": {"Molecular Weight": "189.17", "Molecular Formula": "C10H7NO3", "Melting Point": "343 \u00b0C"}}