{"cas_no": "15733-83-2", "cn_name": "4-\u7532\u6c27\u57fa-2-\u7fa7\u9178\u55b9\u5549", "en_name": ["4-Methoxy-2-quinolinecarboxylic acid", "2-Quinolinecarboxylic acid, 4-methoxy-", "Quinaldic acid, 4-methoxy-", "4-Methoxy-2-quinolinecarboxylic acid", "2-Carboxy-4-methoxyquinoline"], "SMILES": "O(C)C=1C2=C(N=C(C(O)=O)C1)C=CC=C2", "physical_data": {"Molecular Weight": "203.19", "Molecular Formula": "C11H9NO3", "Melting Point": "196-197 \u00b0C"}}