{"cas_no": "1573-92-8", "cn_name": "9-\u82b4\u916e-1-\u7fa7\u9178", "en_name": ["9-Fluorenone-1-carboxylic acid", "9H-Fluorene-1-carboxylic acid, 9-oxo-", "Fluorene-1-carboxylic acid, 9-oxo-", "9-Oxo-9H-fluorene-1-carboxylic acid", "9-Fluorenone-1-carboxylic acid", "Fluorenone-1-carboxylic acid", "1-Carboxyfluorenone", "9-Oxofluorene-1-carboxylic acid", "9-keto-Fluorene-1-carboxylic acid", "NSC 24049", "1-Carboxy-9-fluorenone"], "SMILES": "O=C1C=2C(C=3C1=CC=CC3)=CC=CC2C(O)=O", "physical_data": {"Molecular Weight": "224.21", "Molecular Formula": "C14H8O3", "Melting Point": "192-193 \u00b0C"}}