{"cas_no": "1573-17-7", "cn_name": "1,4-\u4e8c\u4e59\u9170\u6c27\u57fa-2-\u4e01\u7094", "en_name": ["2-Butyne-1,4-diol, 1,4-diacetate", "2-Butyne-1,4-diol, 1,4-diacetate", "2-Butyne-1,4-diol, diacetate", "1,4-Diacetoxy-2-butyne", "NSC 76565", "2-Butyne-1,4-diyl diacetate", "2-Butyn-1,4-diol diacetate"], "SMILES": "C(OC(C)=O)C#CCOC(C)=O", "physical_data": {"Molecular Weight": "170.16", "Molecular Formula": "C8H10O4", "Boiling Point": "135 \u00b0C @ Press: 17 Torr", "Melting Point": "29.5-30 \u00b0C", "Density": "1.1223 g/cm\u00b3 @ Temp: 25 \u00b0C"}}