{"cas_no": "1574-41-0", "cn_name": "\u987a\u620a\u95f4\u4e8c\u70ef", "en_name": ["cis-1,3-Pentadiene", "1,3-Pentadiene, (3Z)-", "1,3-Pentadiene, (Z)-", "1,3-Pentadiene, cis-", "(3Z)-1,3-Pentadiene", "cis-1,3-Pentadiene", "cis-Piperylene", "cis-1-Methylbutadiene", "(Z)-1,3-Pentadiene", "cis-1-Methyl-1,3-butadiene", "(Z)-Piperylene"], "SMILES": "C(C=C)=CC", "physical_data": {"Molecular Weight": "68.12", "Molecular Formula": "C5H8", "Boiling Point": "44.1 \u00b0C", "Melting Point": "-140.8 \u00b0C", "Density": "0.6916 g/cm\u00b3 @ Temp: 20 \u00b0C"}}