{"cas_no": "1575-96-8", "cn_name": "2-\u7532\u57fa-1-\u8418\u7532\u9178", "en_name": ["2-Methyl-1-naphthalenecarboxylic acid", "1-Naphthalenecarboxylic acid, 2-methyl-", "1-Naphthoic acid, 2-methyl-", "2-Methyl-1-naphthalenecarboxylic acid", "2-Methyl-1-naphthoic acid", "2-Methyl-\u03b1-naphthoic acid", "2-Methylnaphthalene-1-carboxylic acid"], "SMILES": "C(O)(=O)C=1C2=C(C=CC1C)C=CC=C2", "physical_data": {"Molecular Weight": "186.21", "Molecular Formula": "C12H10O2", "Melting Point": "126-127 \u00b0C"}}