{"cas_no": "1575-72-0", "cn_name": "2-\u4e19\u57fa-4-\u4e94\u70ef\u9178", "en_name": ["(\u00b1)-2-n-Propyl-4-pentenoic acid", "4-Pentenoic acid, 2-propyl-", "2-Propyl-4-pentenoic acid", "Pentanoic acid, 2-(2-propenyl)-", "2-n-Propyl-4-pentenoic acid", "2-Allylpentanoic acid", "(\u00b1)-2-n-Propyl-4-pentenoic acid"], "SMILES": "C(CCC)(CC=C)C(O)=O", "physical_data": {"Molecular Weight": "142.20", "Molecular Formula": "C8H14O2", "Boiling Point": "95-100 \u00b0C @ Press: 5 Torr"}}