{"cas_no": "1575-37-7", "cn_name": "4-\u6eb4\u90bb\u82ef\u4e8c\u80fa", "en_name": ["4-Bromo-1,2-benzenediamine", "1,2-Benzenediamine, 4-bromo-", "o-Phenylenediamine, 4-bromo-", "4-Bromo-1,2-benzenediamine", "3,4-Diaminobromobenzene", "4-Bromo-1,2-phenylenediamine", "p-Bromo-o-phenylenediamine", "4-Bromo-o-phenylenediamine", "4-Bromo-1,2-diaminobenzene", "5-Bromo-o-phenylenediamine", "4-Bromo-1,3-phenylenediamine", "1,2-Diamino-4-bromobenzene", "NSC 285110", "2-Amino-4-bromoaniline", "4-Bromophenyldiamine"], "SMILES": "NC1=C(N)C=CC(Br)=C1", "physical_data": {"Molecular Weight": "187.04", "Molecular Formula": "C6H7BrN2", "Melting Point": "61-62 \u00b0C"}}