{"cas_no": "1575-61-7", "cn_name": "5-\u6c2f\u4ee3\u620a\u9170\u6c2f", "en_name": ["5-Chlorovaleryl chloride", "Pentanoyl chloride, 5-chloro-", "Valeryl chloride, 5-chloro-", "5-Chloropentanoyl chloride", "5-Chlorovaleryl chloride", "5-Chlorovaleroyl chloride", "NSC 84182", "5-Chlorovaleric acid chloride"], "SMILES": "C(CCCCl)C(Cl)=O", "physical_data": {"Molecular Weight": "155.02", "Molecular Formula": "C5H8Cl2O", "Boiling Point": "56-58 \u00b0C @ Press: 2.5 Torr"}}