{"cas_no": "15753-50-1", "cn_name": "\u987a-1,2-\u73af\u5df1\u57fa\u4e8c\u7532\u9187", "en_name": ["cis-1,2-Cyclohexanedimethanol", "1,2-Cyclohexanedimethanol, (1R,2S)-rel-", "1,2-Cyclohexanedimethanol, cis-", "rel-(1R,2S)-1,2-Cyclohexanedimethanol", "cis-1,2-Cyclohexanedimethanol", "cis-1,2-Bis(hydroxymethyl)cyclohexane", "1,2-cis-Cyclohexanedimethanol", "(1R,2S)-rel-1,2-Cyclohexanedimethanol", "cis-[2-(Hydroxymethyl)cyclohexane]methanol", "(cis-2-Hydroxymethylcyclohexyl)methanol"], "SMILES": "C(O)C1C(CO)CCCC1", "physical_data": {"Molecular Weight": "144.21", "Molecular Formula": "C8H16O2", "Boiling Point": "134-136 \u00b0C @ Press: 3 Torr", "Melting Point": "42-43 \u00b0C"}}