{"cas_no": "1575-74-2", "cn_name": "2-\u7532\u57fa-4-\u620a\u9178", "en_name": ["2-Methyl-4-pentenoic acid", "4-Pentenoic acid, 2-methyl-", "2-Methyl-4-pentenoic acid", "(\u00b1)-2-Methyl-4-pentenoic acid", "\u03b1-Methyl-4-pentenoic acid"], "SMILES": "C(CC=C)(C(O)=O)C", "physical_data": {"Molecular Weight": "114.14", "Molecular Formula": "C6H10O2", "Boiling Point": "188-189 \u00b0C @ Press: 683 Torr", "Density": "0.956 g/cm\u00b3 @ Temp: 16 \u00b0C"}}