{"cas_no": "1576-37-0", "cn_name": "N-\u82c4\u57fa-\u5bf9\u7532\u82ef\u78fa\u9178\u80fa", "en_name": ["N-Benzyl-p-toluenesulfonamide", "Benzenesulfonamide, 4-methyl-N-(phenylmethyl)-", "p-Toluenesulfonamide, N-benzyl-", "4-Methyl-N-(phenylmethyl)benzenesulfonamide", "N-Benzyl-p-toluenesulfonamide", "N-Tosylbenzylamine", "N-Benzyl-p-tosylamide", "N-Benzyl-4-methylbenzenesulfonamide", "NSC 37123", "Benzyl(4-toluenesulfonyl)amine", "Phenyl-N-tosylmethanamine"], "SMILES": "S(NCC1=CC=CC=C1)(=O)(=O)C2=CC=C(C)C=C2", "physical_data": {"Molecular Weight": "261.34", "Molecular Formula": "C14H15NO2S", "Melting Point": "113 \u00b0C"}}