{"cas_no": "15760-36-8", "cn_name": "3-\u4e9a\u7532\u57fa\u73af\u4e01\u70f7\u7fa7\u9178", "en_name": ["3-Methylenecyclobutanecarboxylic acid", "Cyclobutanecarboxylic acid, 3-methylene-", "3-Methylenecyclobutanecarboxylic acid", "3-Methylenecyclobutylcarboxylic acid", "3-Methylidenecyclobutanecarboxylic acid", "3-(Methylene)cyclobutane-1-carboxylic acid", "3-Methylidenecyclobutane-1-carboxylic acid", "Acetic acid, 2-(3-methylenecyclobutylidene)-"], "SMILES": "C(O)(=O)C1CC(=C)C1", "physical_data": {"Molecular Weight": "112.13", "Molecular Formula": "C6H8O2", "Boiling Point": "102.5-103 \u00b0C @ Press: 11 Torr"}}