{"cas_no": "15761-38-3", "cn_name": "N-\u53d4\u4e01\u6c27\u7fb0\u57fa-L-\u4e19\u6c28\u9178", "en_name": ["Boc-L-alanine", "L-Alanine, N-[(1,1-dimethylethoxy)carbonyl]-", "Alanine, N-carboxy-, N-tert-butyl ester, L-", "N-[(1,1-Dimethylethoxy)carbonyl]-L-alanine", "N-(tert-Butyloxycarbonyl)-L-alanine", "(tert-Butoxycarbonyl)alanine", "N-(tert-Butoxycarbonyl)alanine", "tert-Butoxycarbonyl-L-alanine", "(tert-Butyloxycarbonyl)-L-alanine", "N-(tert-Butoxycarbonyl)-(S)-alanine", "N-tert-Butyloxycarbonylalanine", "(S)-2-(N-tert-Butoxycarbonyl)aminopropionic acid", "N-tert-BOC-(S)-alanine", "N-(tert-Butoxycarbonyl)-L-alanine", "N-t-BOC-L-alanine", "N-BOC-L-alanine", "(2S)-2-[(tert-Butoxycarbonyl)amino]propanoic acid", "(S)-2-[(tert-Butoxycarbonyl)amino]propionic acid", "(S)-2-[(tert-butoxycarbonyl)amino]propionic acid", "N-Boc-alanine", "(S)-2-[(tert-Butoxycarbonyl)amino]propanoic acid", "(2S)-2-tert-Butoxycarbonylaminopropanoic acid", "Boc-L-alanine", "(2S)-2-[(2-Methylpropan-2-yl)oxycarbonylamino]propanoic acid"], "SMILES": "N(C(OC(C)(C)C)=O)C(C(O)=O)C", "physical_data": {"Molecular Weight": "189.21", "Molecular Formula": "C8H15NO4", "Melting Point": "82-83 \u00b0C"}}