{"cas_no": "15764-16-6", "cn_name": "2,4-\u4e8c\u7532\u57fa\u82ef\u7532\u919b", "en_name": ["2,4-Dimethylbenzaldehyde", "Benzaldehyde, 2,4-dimethyl-", "2,4-Dimethylbenzaldehyde", "2,4-Dimethylbenzenecarboxaldehyde", "2,4-Methylbenzenecarboxaldehyde"], "SMILES": "C(=O)C1=C(C)C=C(C)C=C1", "physical_data": {"Molecular Weight": "134.18", "Molecular Formula": "C9H10O", "Boiling Point": "114 \u00b0C @ Press: 20 Torr", "Density": "0.9328 g/cm\u00b3 @ Temp: 20 \u00b0C"}}