{"cas_no": "157652-32-9", "cn_name": "2,4-\u4e8c\u6c2f-3-\u7532\u57fa\u82ef\u4e59\u916e", "en_name": ["1-(2,4-Dichloro-3-methylphenyl)ethanone", "Ethanone, 1-(2,4-dichloro-3-methylphenyl)-", "1-(2,4-Dichloro-3-methylphenyl)ethanone", "2,4-Dichloro-3-methylacetophenone", "1-(2,4-Dichloro-3-methylphenyl)ethan-1-one"], "SMILES": "C(C)(=O)C1=C(Cl)C(C)=C(Cl)C=C1", "physical_data": {"Molecular Weight": "203.07", "Molecular Formula": "C9H8Cl2O", "Boiling Point": "147-148 \u00b0C @ Press: 10 Torr", "Melting Point": "38 \u00b0C"}}