{"cas_no": "1576-87-0", "cn_name": "\u53cd\u5f0f-2-\u620a\u70ef\u919b", "en_name": ["(E)-2-Pentenal", "2-Pentenal, (2E)-", "2-Pentenal, (E)-", "(2E)-2-Pentenal", "trans-2-Pentenal", "(E)-2-Pentenal", "2-trans-Pentenal"], "SMILES": "C(=CC=O)CC", "physical_data": {"Molecular Weight": "84.12", "Molecular Formula": "C5H8O", "Boiling Point": "80-81 \u00b0C @ Press: 160 Torr", "Melting Point": "140-141 \u00b0C"}}