{"cas_no": "1576-43-8", "cn_name": "4-\u7f9f\u57fa\u82ef\u78fa\u9170\u80fa", "en_name": ["4-Hydroxybenzenesulfonamide", "Benzenesulfonamide, 4-hydroxy-", "Benzenesulfonamide, p-hydroxy-", "1-Phenol-4-sulfonamide", "4-Hydroxybenzenesulfonamide", "p-Hydroxybenzenesulfonamide", "4-Sulfamoylphenol", "p-Phenolsulfonamide", "NSC 20848", "4-Hydroxybenzene-1-sulfonamide"], "SMILES": "S(N)(=O)(=O)C1=CC=C(O)C=C1", "physical_data": {"Molecular Weight": "173.19", "Molecular Formula": "C6H7NO3S", "Melting Point": "178 \u00b0C"}}