{"cas_no": "15767-75-6", "cn_name": "DL-\u8c37\u6c28\u9178\u76d0\u9178\u76d0", "en_name": ["Glutamic acid, hydrochloride (1:1)", "Glutamic acid, hydrochloride (1:1)", "Glutamic acid, hydrochloride, DL-", "DL-Glutamic acid, hydrochloride", "Glutamic acid, hydrochloride", "2-Aminopentanedioic acid hydrochloride"], "SMILES": "C(CCC(O)=O)(C(O)=O)N.Cl", "physical_data": {"Molecular Weight": "", "Molecular Formula": "C5H9NO4.ClH", "Melting Point": "172 \u00b0C (decomp)"}}