{"cas_no": "1576-84-7", "cn_name": "\u4e59\u9178 -3-\u4e01\u70ef\u916f", "en_name": ["3-Buten-1-ol, 1-acetate", "3-Buten-1-ol, 1-acetate", "3-Buten-1-ol, acetate", "3-Butenyl acetate", "2-Vinylethyl acetate", "4-Acetoxy-1-butene", "1-Acetoxy-3-butene", "NSC 157648"], "SMILES": "O(CCC=C)C(C)=O", "physical_data": {"Molecular Weight": "114.14", "Molecular Formula": "C6H10O2", "Boiling Point": "125 \u00b0C", "Density": "0.918 g/cm\u00b3 @ Temp: 15 \u00b0C"}}