{"cas_no": "15761-39-4", "cn_name": "BOC-L-\u812f\u6c28\u9178", "en_name": ["BOC-L-Proline", "1,2-Pyrrolidinedicarboxylic acid, 1-(1,1-dimethylethyl) ester, (2S)-", "1,2-Pyrrolidinedicarboxylic acid, 1-tert-butyl ester, L-", "1,2-Pyrrolidinedicarboxylic acid, 1-(1,1-dimethylethyl) ester, (S)-", "1-tert-Butyloxycarbonyl-L-proline", "1-tert-Butoxycarbonyl-L-proline", "N-(tert-Butyloxycarbonyl)-L-proline", "N-(tert-Butoxycarbonyl)-L-proline", "BOC-L-Proline", "N-(t-Butoxycarbonyl)proline", "N-(tert-Butoxycarbonyl)-(S)-proline", "N-[(1,1-Dimethylethoxy)carbonyl]-(S)-proline", "N-Boc-(S)-proline", "(S)-N-tert-Butoxycarbonylproline", "1-(tert-Butoxycarbonyl)-(S)-proline", "N-(tert-Butoxycarbonyl)proline", "(2S)-1-tert-Butoxycarbonylpyrrolidine-2-carboxylic acid", "(S)-Pyrrolidine-1,2-dicarboxylic acid 1-tert-butyl ester", "NSC 164660", "(S)-1-(tert-Butoxycarbonyl)-2-pyrrolidinecarboxylic acid", "N-Boc-L-proline", "(2S)-1,2-Pyrrolidinedicarboxylic acid 1-(1,1-dimethylethyl) ester", "(2S)-1-Boc-pyrrolidine-2-carboxylic acid", "1-tert-Butyl (S)-pyrrolidine-1,2-dicarboxylate", "L-N-Boc-proline", "(S)-1-Boc-\u03b2-proline", "1-(tert-Butoxycarbonyl)-(2S)-pyrrolidine-2-carboxylic acid", "trans-N-(tert-Butoxycarbonyl)-4-hydroxy-L-proline", "Boc-L-Pro", "Boc-L-Pro-OH", "(2S)-1-[(2-Methylpropan-2-yl)oxycarbonyl]pyrrolidine-2-carboxylic acid", "(2S)-1-tert-Butoxycarbonylpyrrolidine-2-carboxylic acid"], "SMILES": "C(OC(C)(C)C)(=O)N1C(C(O)=O)CCC1", "physical_data": {"Molecular Weight": "215.25", "Molecular Formula": "C10H17NO4", "Melting Point": "135-136 \u00b0C"}}