{"cas_no": "1576-67-6", "cn_name": "3,6-\u4e8c\u7532\u57fa\u83f2", "en_name": ["3,6-Dimethylphenanthrene", "Phenanthrene, 3,6-dimethyl-", "3,6-Dimethylphenanthrene", "NSC 60070"], "SMILES": "CC1=CC2=C3C(=CC=C2C=C1)C=CC(C)=C3", "physical_data": {"Molecular Weight": "206.28", "Molecular Formula": "C16H14", "Melting Point": "144-146 \u00b0C"}}