{"cas_no": "1576-35-8", "cn_name": "\u5bf9\u7532\u82ef\u78fa\u9170\u80bc", "en_name": ["Tosylhydrazine", "Benzenesulfonic acid, 4-methyl-, hydrazide", "p-Toluenesulfonic acid, hydrazide", "p-Toluenesulfonhydrazide", "Toluene-4-sulfonyl hydrazide", "4-Toluenesulfonic acid hydrazide", "Tosylhydrazine", "(p-Tolylsulfonyl)hydrazine", "p-Toluenesulfonic hydrazide", "p-Toluenesulfonylhydrazine", "p-Tolylsulfonyl hydrazide", "p-Tosylhydrazine", "(4-Tolylsulfonyl)hydrazide", "p-Methylbenzenesulfonic acid hydrazide", "Tosylhydrazide", "Celogen TSH", "4-Methylbenzenesulfonic acid hydrazide", "p-Methylbenzenesulfonylhydrazine", "p-Methylphenylsulfonylhydrazine", "4-Methylbenzenesulfonyl hydrazide", "p-Tosyl hydrazide", "p-Toluenesulfonyl hydrazide", "Unifor H", "4-Toluenesulfonohydrazine", "Cellmic H", "p-Toluenesulfonohydrazide", "(4-Methylphenylsulfonyl)hydrazine", "Genitron PTS", "Unifor NH 500", "Cellmic AH", "4-Methylphenylsulfonyl hydrazide", "Porofor TSH 75", "NSC 18715", "4-Methylbenzenesulfonohydrazide", "Toluene-4-sulfonohydrazide", "Porofor TSH", "N-Tosylhydrazine", "TSH", "4-Methylbenzene-1-sulfonohydrazide", "4-Methylbenzenesulfonhydrazide"], "SMILES": "S(NN)(=O)(=O)C1=CC=C(C)C=C1", "physical_data": {"Molecular Weight": "186.23", "Molecular Formula": "C7H10N2O2S", "Melting Point": "112 \u00b0C"}}