{"cas_no": "1576-95-0", "cn_name": "\u987a-2-\u620a\u70ef\u9187", "en_name": ["cis-2-Penten-1-ol", "2-Penten-1-ol, (2Z)-", "2-Penten-1-ol, (Z)-", "(2Z)-2-Penten-1-ol", "cis-2-Penten-1-ol", "cis-2-Pentenol", "(Z)-2-Penten-1-ol", "Nor leaf alcohol", "(2Z)-Pent-2-en-1-ol"], "SMILES": "C(=CCO)CC", "physical_data": {"Molecular Weight": "86.13", "Molecular Formula": "C5H10O", "Boiling Point": "138 \u00b0C", "Density": "0.8529 g/cm\u00b3 @ Temp: 20 \u00b0C"}}