{"cas_no": "15760-35-7", "cn_name": "3-\u4e9a\u7532\u57fa\u73af\u4e01\u57fa\u7532\u8148", "en_name": ["3-Methylenecyclobutanecarbonitrile", "Cyclobutanecarbonitrile, 3-methylene-", "3-Methylenecyclobutanecarbonitrile", "3-Methylene-1-cyanocyclobutane", "3-Methylenecyanocyclobutane", "3-Methylenecyclobutane-1-carbonitrile", "3-Methylidenecyclobutane-1-carbonitrile", "3-Methylidenecyclobutanecarbonitrile"], "SMILES": "C(#N)C1CC(=C)C1", "physical_data": {"Molecular Weight": "93.13", "Molecular Formula": "C6H7N", "Boiling Point": "64-65 \u00b0C @ Press: 21 Torr"}}