{"cas_no": "1576-85-8", "cn_name": "4-\u620a\u70ef-1-\u4e59\u9178\u916f", "en_name": ["4-Penten-1-yl acetate", "4-Penten-1-ol, 1-acetate", "4-Penten-1-ol, acetate", "4-Pentenyl acetate", "1-Acetoxy-4-pentene", "5-Acetoxy-1-pentene", "4-Penten-1-yl acetate", "NSC 102504", "Acetic acid 4-pentenyl ester"], "SMILES": "C(OC(C)=O)CCC=C", "physical_data": {"Molecular Weight": "128.17", "Molecular Formula": "C7H12O2", "Boiling Point": "149-150 \u00b0C", "Density": "0.896 g/cm\u00b3 @ Temp: 24 \u00b0C"}}