{"cas_no": "1577-18-0", "cn_name": "\u53cd\u5f0f-3-\u5df1\u70ef\u9178", "en_name": ["trans-3-Hexenoic acid", "3-Hexenoic acid, (3E)-", "3-Hexenoic acid, (E)-", "(3E)-3-Hexenoic acid", "trans-3-Hexenoic acid", "(E)-3-Hexenoic acid", "3(E)-Hexenoic acid", "(3E)-Hex-3-enoic acid", "(E)-Hex-3-enoic acid"], "SMILES": "C(C=CCC)C(O)=O", "physical_data": {"Molecular Weight": "114.14", "Molecular Formula": "C6H10O2", "Boiling Point": "106.5-108 \u00b0C @ Press: 13 Torr", "Melting Point": "12 \u00b0C"}}