{"cas_no": "15770-21-5", "cn_name": "\u4e8c(1-\u7532\u57fa\u5421\u54af-2-\u57fa)\u7532\u57fa\u916e", "en_name": ["Di-1H-pyrrol-2-ylmethanone", "Methanone, di-1H-pyrrol-2-yl-", "Pyrrol-2-yl ketone", "Di-1H-pyrrol-2-ylmethanone", "Dipyrrol-2-yl ketone", "NSC 81355", "2-Pyrrolidene ketone", "2-(1H-Pyrrole-2-carbonyl)-1H-pyrrole"], "SMILES": "C(=O)(C1=CC=CN1)C2=CC=CN2", "physical_data": {"Molecular Weight": "160.17", "Molecular Formula": "C9H8N2O", "Melting Point": "160-161 \u00b0C"}}