{"cas_no": "15777-70-5", "cn_name": "4-\u7f9f\u57fa-3-\u7532\u57fa \u82ef\u8148", "en_name": ["4-Hydroxy-3-methylbenzonitrile", "Benzonitrile, 4-hydroxy-3-methyl-", "4,3-Cresotonitrile", "4-Hydroxy-3-methylbenzonitrile", "2-Methyl-4-cyanophenol", "3-Methyl-4-hydroxybenzonitrile"], "SMILES": "C(#N)C1=CC(C)=C(O)C=C1", "physical_data": {"Molecular Weight": "133.15", "Molecular Formula": "C8H7NO", "Boiling Point": "180-182 \u00b0C @ Press: 12 Torr", "Melting Point": "93-95 \u00b0C"}}