{"cas_no": "15785-54-3", "cn_name": "5-\u785d\u57fa\u9999\u8349\u9178", "en_name": ["4-Hydroxy-3-methoxy-5-nitrobenzoic acid", "Benzoic acid, 4-hydroxy-3-methoxy-5-nitro-", "Vanillic acid, 5-nitro-", "4-Hydroxy-3-methoxy-5-nitrobenzoic acid", "5-Nitrovanillic acid", "3-Nitro-4-hydroxy-5-methoxybenzoic acid"], "SMILES": "N(=O)(=O)C1=C(O)C(OC)=CC(C(O)=O)=C1", "physical_data": {"Molecular Weight": "213.14", "Molecular Formula": "C8H7NO6", "Melting Point": "216 \u00b0C"}}