{"cas_no": "15780-02-6", "cn_name": "\u56db\u4e19\u57fa\u9ad8\u6c2f\u9178\u94f5", "en_name": ["Tetrapropylammonium perchlorate", "1-Propanaminium, N,N,N-tripropyl-, perchlorate (1:1)", "Ammonium, tetrapropyl-, perchlorate", "1-Propanaminium, N,N,N-tripropyl-, perchlorate", "Tetrapropylammonium perchlorate"], "SMILES": "[N+](CCC)(CCC)(CCC)CCC.Cl(=O)(=O)(=O)[O-]", "physical_data": {"Molecular Weight": "", "Molecular Formula": "C12H28N.ClO4", "Melting Point": "237-239 \u00b0C"}}