{"cas_no": "1578-63-8", "cn_name": "\u0391-\u6c1f\u82ef\u57fa\u4e59\u9178", "en_name": ["\u03b1-Fluorobenzeneacetic acid", "Benzeneacetic acid, \u03b1-fluoro-", "Acetic acid, fluorophenyl-", "\u03b1-Fluorobenzeneacetic acid", "\u03b1-Fluorophenylacetic acid", "2-Fluoro-2-phenylacetic acid", "(\u00b1)-2-Fluoro-2-phenylacetic acid", "(\u00b1)-\u03b1-Fluorophenylacetic acid"], "SMILES": "C(C(O)=O)(F)C1=CC=CC=C1", "physical_data": {"Molecular Weight": "154.14", "Molecular Formula": "C8H7FO2", "Melting Point": "83-85 \u00b0C"}}