{"cas_no": "157810-81-6", "cn_name": "\u786b\u9178\u831a\u5730\u90a3\u97e6", "en_name": ["Indinavir sulfate", "D-erythro-Pentonamide, 2,3,5-trideoxy-N-[(1S,2R)-2,3-dihydro-2-hydroxy-1H-inden-1-yl]-5-[(2S)-2-[[(1,1-dimethylethyl)amino]carbonyl]-4-(3-pyridinylmethyl)-1-piperazinyl]-2-(phenylmethyl)-, sulfate (1:1)", "D-erythro-Pentonamide, 2,3,5-trideoxy-N-(2,3-dihydro-2-hydroxy-1H-inden-1-yl)-5-[2-[[(1,1-dimethylethyl)amino]carbonyl]-4-(3-pyridinylmethyl)-1-piperazinyl]-2-(phenylmethyl)-, [1(1S,2R),5(S)]-, sulfate (1:1) (salt)", "D-erythro-Pentonamide, 2,3,5-trideoxy-N-[(1S,2R)-2,3-dihydro-2-hydroxy-1H-inden-1-yl]-5-[(2S)-2-[[(1,1-dimethylethyl)amino]carbonyl]-4-(3-pyridinylmethyl)-1-piperazinyl]-2-(phenylmethyl)-, sulfate (1:1) (salt)", "L 735524", "Indinavir sulfate", "MK 639", "Crixivan"], "SMILES": "S(=O)(=O)(O)O.N(C(C(CC1=CC=CC=C1)CC(CN2C(C(NC(C)(C)C)=O)CN(CC=3C=CC=NC3)CC2)O)=O)C4C=5C(CC4O)=CC=CC5", "physical_data": {"Molecular Weight": "", "Molecular Formula": "C36H47N5O4.H2O4S", "Melting Point": "150-153 \u00b0C (decomp)"}}