{"cas_no": "157859-20-6", "cn_name": "\u4e19\u70ef\u9170\u6c27\u57fa\u4e09\u5f02\u4e19\u57fa\u7845\u70f7", "en_name": ["Tris(1-methylethyl)silyl 2-propenoate", "2-Propenoic acid, tris(1-methylethyl)silyl ester", "Tris(1-methylethyl)silyl 2-propenoate", "Tri(isopropyl)silyl acrylate"], "SMILES": "[Si](OC(C=C)=O)(C(C)C)(C(C)C)C(C)C", "physical_data": {"Molecular Weight": "228.40", "Molecular Formula": "C12H24O2Si", "Boiling Point": "87 \u00b0C @ Press: 6.0 mmHg"}}