{"cas_no": "15788-16-6", "cn_name": "1H-\u82ef\u5e76\u54aa\u5511-5-\u7fa7\u9178", "en_name": ["1H-Benzimidazole-5-carboxylic acid", "1H-Benzimidazole-6-carboxylic acid", "5-Benzimidazolecarboxylic acid", "1H-Benzimidazole-5-carboxylic acid", "5-Carboxybenzimidazole", "3H-Benzimidazole-5-carboxylic acid", "Benzimidazole-6-carboxylic acid", "3H-Benzo[d]imidazole-5-carboxylic acid", "1H-7-Benzo[d]imidazole-6-carboxylic acid", "1H-1,3-Benzodiazole-5-carboxylic acid", "1H-1,3-Benzodiazole-6-carboxylic acid"], "SMILES": "C(O)(=O)C=1C=C2C(=CC1)N=CN2", "physical_data": {"Molecular Weight": "162.15", "Molecular Formula": "C8H6N2O2", "Melting Point": "325 \u00b0C (decomp)"}}