{"cas_no": "1579-78-8", "cn_name": "3-(4-\u6c1f\u82ef\u6c27\u57fa)\u4e19\u9178", "en_name": ["3-(4-Fluorophenoxy)propanoic acid", "Propanoic acid, 3-(4-fluorophenoxy)-", "Propionic acid, 3-(p-fluorophenoxy)-", "3-(4-Fluorophenoxy)propanoic acid", "3-(p-Fluorophenoxy)propionic acid", "3-(4-Fluorophenoxy)propionic acid"], "SMILES": "O(CCC(O)=O)C1=CC=C(F)C=C1", "physical_data": {"Molecular Weight": "184.16", "Molecular Formula": "C9H9FO3", "Boiling Point": "170-175 \u00b0C @ Press: 55-60 Torr", "Melting Point": "86 \u00b0C"}}