{"cas_no": "1579-89-1", "cn_name": "5-\u4e59\u9170\u6c28\u57fa-2-\u6c28\u57fa\u4e09\u6c1f\u7532\u82ef", "en_name": ["N-[4-Amino-3-(trifluoromethyl)phenyl]acetamide", "Acetamide, N-[4-amino-3-(trifluoromethyl)phenyl]-", "m-Acetotoluidide, 4\u2032-amino-\u03b1,\u03b1,\u03b1-trifluoro-", "N-[4-Amino-3-(trifluoromethyl)phenyl]acetamide", "\u03b1,\u03b1,\u03b1-Trifluoro-4\u2032-amino-m-acetotoluidide", "2-Amino-5-acetamidobenzotrifluoride"], "SMILES": "C(F)(F)(F)C1=CC(NC(C)=O)=CC=C1N", "physical_data": {"Molecular Weight": "218.18", "Molecular Formula": "C9H9F3N2O", "Melting Point": "118-119 \u00b0C"}}