{"cas_no": "15793-77-8", "cn_name": "2-\u80bc\u55b9\u5549", "en_name": ["2-Hydrazinoquinoline", "Quinoline, 2-hydrazinyl-", "Quinoline, 2-hydrazino-", "2(1H)-Quinolinone, hydrazone", "2-Hydrazinylquinoline", "2-Hydrazinoquinoline", "2-Quinolylhydrazine", "\u03b1-Quinolylhydrazine", "(2-Quinolinyl)hydrazine", "NSC 525792"], "SMILES": "N(N)=C1NC=2C(C=C1)=CC=CC2", "physical_data": {"Molecular Weight": "159.19", "Molecular Formula": "C9H9N3", "Melting Point": "~142 \u00b0C (approx)"}}