{"cas_no": "1579-40-4", "cn_name": "\u5bf9\u4e8c\u7532\u82ef\u57fa\u919a", "en_name": ["1,1\u2032-Oxybis[4-methylbenzene]", "Benzene, 1,1\u2032-oxybis[4-methyl-", "p-Tolyl ether", "1,1\u2032-Oxybis[4-methylbenzene]", "4,4\u2032-Dimethyldiphenyl ether", "Di-p-Tolyl ether", "Bis(4-methylphenyl) ether", "p-(p-Tolyloxy)toluene", "1-Methyl-4-(4-methylphenoxy)benzene"], "SMILES": "O(C1=CC=C(C)C=C1)C2=CC=C(C)C=C2", "physical_data": {"Molecular Weight": "198.26", "Molecular Formula": "C14H14O", "Boiling Point": "285 \u00b0C", "Melting Point": "51 \u00b0C"}}