{"cas_no": "15809-19-5", "cn_name": "\u7c73\u62c9\u7c73\u65af\u505c", "en_name": ["Myramistin", "Benzenemethanaminium, N,N-dimethyl-N-[3-[(1-oxotetradecyl)amino]propyl]-, chloride (1:1)", "Ammonium, benzyldimethyl(3-myristamidopropyl)-, chloride", "Benzenemethanaminium, N,N-dimethyl-N-[3-[(1-oxotetradecyl)amino]propyl]-, chloride", "Benzyldimethyl(3-tetradecamidopropyl)ammonium chloride", "DT 2", "DT 2 (surfactant)", "Myramistin", "Benzyldimethyl[3-(myristoylamino)propyl]ammonium chloride"], "SMILES": "C([N+](CCCNC(CCCCCCCCCCCCC)=O)(C)C)C1=CC=CC=C1.[Cl-]", "physical_data": {"Molecular Weight": "", "Molecular Formula": "C26H47N2O.Cl", "Melting Point": "54 \u00b0C"}}