{"cas_no": "158021-47-7", "cn_name": "(2S,3S,4R)-1-O-(A-D-\u5421\u5583\u534a\u4e73\u7cd6\u57fa)-2-(N-\u4e8c\u5341\u516d\u70f7\u9178\u9170\u80fa)-1,3,4-\u5341\u516b\u70f7\u4e09\u9187", "en_name": ["N-[(1S,2S,3R)-1-[(\u03b1-D-Galactopyranosyloxy)methyl]-2,3-dihydroxyheptadecyl]hexacosanamide", "Hexacosanamide, N-[(1S,2S,3R)-1-[(\u03b1-D-galactopyranosyloxy)methyl]-2,3-dihydroxyheptadecyl]-", "Hexacosanamide, N-[1-[(\u03b1-D-galactopyranosyloxy)methyl]-2,3-dihydroxyheptadecyl]-, [1S-(1R*,2R*,3S*)]-", "N-[(1S,2S,3R)-1-[(\u03b1-D-Galactopyranosyloxy)methyl]-2,3-dihydroxyheptadecyl]hexacosanamide", "KRN 7000"], "SMILES": "O(CC(C(C(CCCCCCCCCCCCCC)O)O)NC(CCCCCCCCCCCCCCCCCCCCCCCCC)=O)C1OC(CO)C(O)C(O)C1O", "physical_data": {"Molecular Weight": "858.32", "Molecular Formula": "C50H99NO9", "Melting Point": "190 \u00b0C"}}