{"cas_no": "15803-02-8", "cn_name": "1-\u7532\u57fa-4-\u6eb4\u5421\u5511", "en_name": ["4-Bromo-1-methyl-1H-pyrazole", "1H-Pyrazole, 4-bromo-1-methyl-", "Pyrazole, 4-bromo-1-methyl-", "4-Bromo-1-methyl-1H-pyrazole", "4-Bromo-1-methylpyrazole", "1-Methyl-4-bromopyrazole"], "SMILES": "BrC1=CN(C)N=C1", "physical_data": {"Molecular Weight": "161.00", "Molecular Formula": "C4H5BrN2", "Boiling Point": "76-78 \u00b0C @ Press: 18 Torr"}}