{"cas_no": "15802-80-9", "cn_name": "3-\u53d4\u4e01\u57fa\u5421\u5511", "en_name": ["3-(1,1-Dimethylethyl)-1H-pyrazole", "1H-Pyrazole, 3-(1,1-dimethylethyl)-", "Pyrazole, 3-tert-butyl-", "3-(1,1-Dimethylethyl)-1H-pyrazole", "3-tert-Butylpyrazole", "3-tert-Butyl-1H-pyrazole"], "SMILES": "C(C)(C)(C)C=1C=CNN1", "physical_data": {"Molecular Weight": "124.18", "Molecular Formula": "C7H12N2", "Boiling Point": "127 \u00b0C @ Press: 0.15 Torr", "Melting Point": "53-54 \u00b0C"}}