{"cas_no": "15805-10-4", "cn_name": "5,5'-methylenebis(1H-benzotriazole)", "en_name": ["6,6\u2032-Methylenebis[1H-benzotriazole]", "1H-Benzotriazole, 6,6\u2032-methylenebis-", "1H-Benzotriazole, 5,5\u2032-methylenebis-", "6,6\u2032-Methylenebis[1H-benzotriazole]", "5,5\u2032-Methylenebis(benzotriazole)"], "SMILES": "C(C=1C=C2C(=CC1)NN=N2)C=3C=C4C(=CC3)N=NN4", "physical_data": {"Molecular Weight": "250.26", "Molecular Formula": "C13H10N6", "Melting Point": "238-240 \u00b0C"}}