{"cas_no": "1581-13-1", "cn_name": "2-\u6c28\u57fa-2'-\u6c1f\u82ef\u7532\u916e", "en_name": ["2-Amino-2\u2032-fluorobenzophenone", "Methanone, (2-aminophenyl)(2-fluorophenyl)-", "Benzophenone, 2-amino-2\u2032-fluoro-", "(2-Aminophenyl)(2-fluorophenyl)methanone", "2-Amino-2\u2032-fluorobenzophenone", "2-(2-Fluorobenzoyl)aniline"], "SMILES": "C(=O)(C1=C(F)C=CC=C1)C2=C(N)C=CC=C2", "physical_data": {"Molecular Weight": "215.22", "Molecular Formula": "C13H10FNO", "Melting Point": "126-128 \u00b0C"}}