{"cas_no": "15811-32-2", "cn_name": "2-\u6c1f-2',3',5'-\u4e09\u6c27\u4e59\u9170\u57fa\u817a\u82f7", "en_name": ["Adenosine, 2-fluoro-, 2\u2032,3\u2032,5\u2032-triacetate", "Adenosine, 2-fluoro-, 2\u2032,3\u2032,5\u2032-triacetate", "NSC 108853", "2\u2032,3\u2032,5\u2032-Tri-O-acetyl-2-fluoroadenosine"], "SMILES": "O(C(C)=O)C1C(OC(COC(C)=O)C1OC(C)=O)N2C=3C(N=C2)=C(N)N=C(F)N3", "physical_data": {"Molecular Weight": "411.34", "Molecular Formula": "C16H18FN5O7", "Melting Point": "210-212 \u00b0C"}}