{"cas_no": "15813-09-9", "cn_name": "4,5-\u4e8c\u7898-1H-\u54aa\u5511", "en_name": ["4,5-Diiodo-1H-imidazole", "1H-Imidazole, 4,5-diiodo-", "Imidazole, 4,5-diiodo-", "4,5-Diiodo-1H-imidazole", "4,5-Diiodoimidazole"], "SMILES": "IC1=C(I)N=CN1", "physical_data": {"Molecular Weight": "319.87", "Molecular Formula": "C3H2I2N2", "Melting Point": "182 \u00b0C"}}