{"cas_no": "15829-53-5", "cn_name": "\u6c27\u5316\u4e9a\u6c5e", "en_name": ["Mercury oxide (Hg2O)", "Mercury oxide (Hg2O)", "Mercurous oxide", "Mercury oxide black", "Mercurous oxide (Hg2O)"], "SMILES": "O([Hg])[Hg]", "physical_data": {"Molecular Weight": "", "Molecular Formula": "Hg2O", "Melting Point": "100 \u00b0C (decomp)", "Density": "9.8 g/cm\u00b3"}}