{"cas_no": "158237-07-1", "cn_name": "\u56db\u5511\u9170\u8349\u80fa", "en_name": ["Fentrazamide", "1H-Tetrazole-1-carboxamide, 4-(2-chlorophenyl)-N-cyclohexyl-N-ethyl-4,5-dihydro-5-oxo-", "4-(2-Chlorophenyl)-N-cyclohexyl-N-ethyl-4,5-dihydro-5-oxo-1H-tetrazole-1-carboxamide", "1-(2-Chlorophenyl)-4-(N-cyclohexyl-N-ethylcarbamoyl)-5(4H)-tetrazolinone", "NBA 061", "Fentrazamide", "BAY-YRC 2388", "NB 061", "YRC 2388", "Jumbo", "Innova", "Bai Tian Jing", "Jumbo (herbicide)"], "SMILES": "O=C1N(N=NN1C(N(CC)C2CCCCC2)=O)C3=C(Cl)C=CC=C3", "physical_data": {"Molecular Weight": "349.82", "Molecular Formula": "C16H20ClN5O2", "Melting Point": "79 \u00b0C"}}