{"cas_no": "15827-56-2", "cn_name": "\u987a\u5f0f-1,4-\u73af\u5df1\u4e8c\u80fa", "en_name": ["cis-1,4-Diaminocyclohexane", "1,4-Cyclohexanediamine, cis-", "cis-1,4-Cyclohexanediamine", "cis-1,4-Diaminocyclohexane"], "SMILES": "NC1CCC(N)CC1", "physical_data": {"Molecular Weight": "114.19", "Molecular Formula": "C6H14N2", "Boiling Point": "84-88 \u00b0C @ Press: 10-12 Torr"}}