{"cas_no": "1582-09-8", "cn_name": "\u6c1f\u4e50\u7075", "en_name": ["Trifluralin", "Benzenamine, 2,6-dinitro-N,N-dipropyl-4-(trifluoromethyl)-", "p-Toluidine, \u03b1,\u03b1,\u03b1-trifluoro-2,6-dinitro-N,N-dipropyl-", "2,6-Dinitro-N,N-dipropyl-4-(trifluoromethyl)benzenamine", "L 36352", "Lilly 36,352", "2,6-Dinitro-N,N-di-n-propyl-\u03b1,\u03b1,\u03b1-trifluoro-p-toluidine", "4-(Di-n-propylamino)-3,5-dinitro-1-(trifluoromethyl)benzene", "N,N-Di-n-propyl-2,6-dinitro-4-trifluoromethylaniline", "N,N-Dipropyl-4-trifluoromethyl-2,6-dinitroaniline", "Treflan", "\u03b1,\u03b1,\u03b1-Trifluoro-2,6-dinitro-N,N-di-n-propyl-p-toluidine", "\u03b1,\u03b1,\u03b1-Trifluoro-2,6-dinitro-N,N-dipropyl-p-toluidine", "Trifluralin", "Trifluraline", "2,6-Dinitro-4-(trifluoromethyl)-N,N-dipropylaniline", "4-(Trifluoromethyl)-2,6-dinitro-N,N-dipropylaniline", "2,6-Dinitro-N,N-dipropyl-4-(trifluoromethyl)aniline", "Agriflan 24", "Olitref", "Nitran", "Elancolan", "Trikepin", "Agriflan", "Trefanocide", "Trifloran", "N,N-Dipropyl-2,6-dinitro-4-(trifluoromethyl)aniline", "Synfloran", "Nitran K", "Tristar", "Super-Treflan", "Biobarrier", "Triflurom", "Triflurotox", "Brassix", "Treflan 4E", "Trifsan", "Premerlin", "Zeltoxone", "Tefralin", "Trilan", "Trilan (fungicide)", "Bayonet", "Trilin", "Triflurex", "(2,6-Dinitro-4-trifluoromethyl-phenyl)-dipropyl-amine", "MeSH ID: D014274"], "SMILES": "N(CCC)(CCC)C1=C(N(=O)=O)C=C(C(F)(F)F)C=C1N(=O)=O", "physical_data": {"Molecular Weight": "335.28", "Molecular Formula": "C13H16F3N3O4", "Boiling Point": "139-140 \u00b0C @ Press: 4.2 Torr", "Melting Point": "46-47 \u00b0C", "Density": "1.36 g/cm\u00b3 @ Temp: 22 \u00b0C"}}