{"cas_no": "1583-67-1", "cn_name": "3-\u6c1f\u90bb\u82ef\u4e8c\u7532\u9178", "en_name": ["3-Fluorophthalic acid", "1,2-Benzenedicarboxylic acid, 3-fluoro-", "Phthalic acid, 3-fluoro-", "3-Fluoro-1,2-benzenedicarboxylic acid", "3-Fluorophthalic acid", "NSC 402999"], "SMILES": "C(O)(=O)C1=C(C(O)=O)C=CC=C1F", "physical_data": {"Molecular Weight": "184.12", "Molecular Formula": "C8H5FO4", "Melting Point": "167-168 \u00b0C"}}