{"cas_no": "1583-58-0", "cn_name": "2,4-\u4e8c\u6c1f\u82ef\u7532\u9178", "en_name": ["2,4-Difluorobenzoic acid", "Benzoic acid, 2,4-difluoro-", "2,4-Difluorobenzoic acid", "NSC 10312"], "SMILES": "C(O)(=O)C1=C(F)C=C(F)C=C1", "physical_data": {"Molecular Weight": "158.10", "Molecular Formula": "C7H4F2O2", "Melting Point": "189 \u00b0C"}}