{"cas_no": "1583-59-1", "cn_name": "2,2-\u4e8c\u6c1f-1,3-\u82ef\u5e76\u4e8c\u6076\u8302", "en_name": ["2,2-Difluoro-1,3-benzodioxole", "1,3-Benzodioxole, 2,2-difluoro-", "Benzene, 1,2-[(difluoromethylene)dioxy]-", "2,2-Difluoro-1,3-benzodioxole", "2,2-Difluorobenzodioxole", "2,2-Difluorobenzo[d][1,3]dioxole"], "SMILES": "FC1(F)OC=2C(O1)=CC=CC2", "physical_data": {"Molecular Weight": "158.10", "Molecular Formula": "C7H4F2O2", "Boiling Point": "129-130 \u00b0C", "Density": "1.3079 g/cm\u00b3 @ Temp: 20 \u00b0C"}}