{"cas_no": "1583-83-1", "cn_name": "4-(\u4e8c\u6c1f\u7532\u6c27\u57fa)\u7532\u82ef", "en_name": ["1-(Difluoromethoxy)-4-methylbenzene", "Benzene, 1-(difluoromethoxy)-4-methyl-", "Anisole, \u03b1,\u03b1-difluoro-p-methyl-", "1-(Difluoromethoxy)-4-methylbenzene", "Difluoromethyl 4-methylphenyl ether"], "SMILES": "O(C(F)F)C1=CC=C(C)C=C1", "physical_data": {"Molecular Weight": "158.15", "Molecular Formula": "C8H8F2O", "Boiling Point": "165-167 \u00b0C", "Melting Point": "165-167 \u00b0C", "Density": "1.133 g/cm\u00b3 @ Temp: 20 \u00b0C"}}