{"cas_no": "1583-88-6", "cn_name": "4-\u6c1f\u82ef\u4e59\u80fa", "en_name": ["4-Fluorophenethylamine", "Benzeneethanamine, 4-fluoro-", "Phenethylamine, p-fluoro-", "4-Fluorobenzeneethanamine", "2-(p-Fluorophenyl)ethylamine", "4-Fluorophenethylamine", "p-Fluorophenethylamine", "2-(4-Fluorophenyl)ethylamine", "(p-Fluorophenyl)ethylamine", "2-(4-Fluorophenyl)ethanamine", "4-(2-Aminoethyl)fluorobenzene", "2-(4-Fluorophenyl)ethan-1-amine", "N-(4-Fluorophenethyl)amine"], "SMILES": "C(CN)C1=CC=C(F)C=C1", "physical_data": {"Molecular Weight": "139.17", "Molecular Formula": "C8H10FN", "Boiling Point": "99-100 \u00b0C @ Press: 24 Torr", "Density": "1.069 g/cm\u00b3 @ Temp: 20 \u00b0C"}}