{"cas_no": "15848-22-3", "cn_name": "5-\u6eb4\u4ee3\u620a\u57fa\u4e59\u9178\u916f", "en_name": ["5-Bromopentyl acetate", "1-Pentanol, 5-bromo-, 1-acetate", "1-Pentanol, 5-bromo-, acetate", "5-Bromopentyl acetate", "5-Bromo-1-acetoxypentane", "1-Acetoxy-5-bromopentane", "5-Bromo-1-pentanol acetate"], "SMILES": "C(CCCCBr)OC(C)=O", "physical_data": {"Molecular Weight": "209.08", "Molecular Formula": "C7H13BrO2", "Boiling Point": "109-110 \u00b0C @ Press: 15 Torr", "Density": "1.3186 g/cm\u00b3 @ Temp: 20 \u00b0C"}}