{"cas_no": "1584-03-8", "cn_name": "\u5168\u6c1f-2-\u7532\u57fa-2-\u620a\u70ef", "en_name": ["Perfluoro(2-methyl-2-pentene)", "2-Pentene, 1,1,1,3,4,4,5,5,5-nonafluoro-2-(trifluoromethyl)-", "2-Pentene, nonafluoro-2-(trifluoromethyl)-", "1,1,1,3,4,4,5,5,5-Nonafluoro-2-(trifluoromethyl)-2-pentene", "Perfluoro(2-methyl-2-pentene)", "2-(Trifluoromethyl)perfluoro-2-pentene", "2-(Trifluoromethyl)nonafluoro-2-pentene", "Perfluoro(1-ethyl-2-methyl-1-propene)", "Hexafluoropropene dimer"], "SMILES": "C(=C(C(C(F)(F)F)(F)F)F)(C(F)(F)F)C(F)(F)F", "physical_data": {"Molecular Weight": "300.05", "Molecular Formula": "C6F12", "Boiling Point": "50.5 \u00b0C", "Melting Point": "48-50 \u00b0C"}}