{"cas_no": "15840-96-7", "cn_name": "\u73af\u5df1\u7532\u9178\u73af\u5df1\u916f", "en_name": ["Cyclohexanecarboxylic acid, cyclohexyl ester", "Cyclohexanecarboxylic acid, cyclohexyl ester", "Cyclohexyl cyclohexanoate", "Cyclohexyl cyclohexanecarboxylate", "NSC 406680"], "SMILES": "C(OC1CCCCC1)(=O)C2CCCCC2", "physical_data": {"Molecular Weight": "210.31", "Molecular Formula": "C13H22O2", "Melting Point": "171-172 \u00b0C"}}