{"cas_no": "15854-73-6", "cn_name": "4-\u7532\u6c27\u57fa-3-\u785d\u57fa\u8054\u82ef", "en_name": ["4-Methoxy-3-nitro-1,1\u2032-biphenyl", "1,1\u2032-Biphenyl, 4-methoxy-3-nitro-", "Anisole, 2-nitro-4-phenyl-", "4-Methoxy-3-nitro-1,1\u2032-biphenyl", "3-Nitro-4-methoxybiphenyl", "1-Methoxy-2-nitro-4-phenylbenzene"], "SMILES": "N(=O)(=O)C=1C=C(C=CC1OC)C2=CC=CC=C2", "physical_data": {"Molecular Weight": "229.23", "Molecular Formula": "C13H11NO3", "Melting Point": "72 \u00b0C"}}