{"cas_no": "1585-07-5", "cn_name": "\u5bf9\u6eb4\u4e59\u57fa\u82ef", "en_name": ["1-Bromo-4-ethylbenzene", "Benzene, 1-bromo-4-ethyl-", "1-Bromo-4-ethylbenzene", "p-Bromoethylbenzene", "4-Ethylbromobenzene", "p-Ethylbromobenzene", "4-Ethyl-1-bromobenzene", "4-Ethylphenyl bromide", "4-Bromoethylbenzene", "p-Ethylphenyl bromide", "NSC 60144", "1-Ethyl-4-bromobenzene"], "SMILES": "C(C)C1=CC=C(Br)C=C1", "physical_data": {"Molecular Weight": "185.06", "Molecular Formula": "C8H9Br", "Boiling Point": "204 \u00b0C", "Melting Point": "-43.5 \u00b0C", "Density": "1.3478 g/cm\u00b3 @ Temp: 20 \u00b0C"}}