{"cas_no": "1585-40-6", "cn_name": "\u82ef\u4e94\u7532\u9178", "en_name": ["Benzenepentacarboxylic acid", "1,2,3,4,5-Benzenepentacarboxylic acid", "Benzenepentacarboxylic acid", "Pentacarboxybenzene", "NSC 12096"], "SMILES": "C(O)(=O)C1=C(C(O)=O)C(C(O)=O)=CC(C(O)=O)=C1C(O)=O", "physical_data": {"Molecular Weight": "298.16", "Molecular Formula": "C11H6O10", "Melting Point": "222-227 \u00b0C (decomp)"}}