{"cas_no": "15852-73-0", "cn_name": "3-\u6eb4\u82ef\u7532\u9187", "en_name": ["3-Bromobenzenemethanol", "Benzenemethanol, 3-bromo-", "Benzyl alcohol, m-bromo-", "3-Bromobenzenemethanol", "3-Bromobenzyl alcohol", "m-Bromobenzyl alcohol", "3-Bromophenylmethanol"], "SMILES": "C(O)C1=CC(Br)=CC=C1", "physical_data": {"Molecular Weight": "187.03", "Molecular Formula": "C7H7BrO", "Boiling Point": "255-257 \u00b0C @ Press: 738 Torr", "Melting Point": "163 \u00b0C"}}