{"cas_no": "1585-06-4", "cn_name": "4-\u4e59\u57fa\u82ef\u4e59\u919a", "en_name": ["4-Ethoxyethylbenzene", "Benzene, 1-ethoxy-4-ethyl-", "Phenetole, p-ethyl-", "1-Ethoxy-4-ethylbenzene", "p-Ethoxyethylbenzene", "4-Ethoxyethylbenzene"], "SMILES": "O(CC)C1=CC=C(CC)C=C1", "physical_data": {"Molecular Weight": "150.22", "Molecular Formula": "C10H14O", "Boiling Point": "210 \u00b0C"}}