{"cas_no": "1585-68-8", "cn_name": "\u6893\u5185\u916f\u916e", "en_name": ["Catalpalactone", "1(3H)-Isobenzofuranone, 3-(5,6-dihydro-6,6-dimethyl-2-oxo-2H-pyran-3-yl)-", "Phthalide, 3-(5,6-dihydro-6,6-dimethyl-2-oxo-2H-pyran-3-yl)-", "1-Phthalanacetic acid, \u03b1-(3-hydroxy-3-methylbutylidene)-3-oxo-, \u03b4-lactone", "3-(5,6-Dihydro-6,6-dimethyl-2-oxo-2H-pyran-3-yl)-1(3H)-isobenzofuranone", "Catalpalactone", "(\u00b1)-Catalpalactone"], "SMILES": "O=C1C(C2C=3C(C(=O)O2)=CC=CC3)=CCC(C)(C)O1", "physical_data": {"Molecular Weight": "258.27", "Molecular Formula": "C15H14O4", "Melting Point": "110-111 \u00b0C"}}