{"cas_no": "1585-16-6", "cn_name": "2,4,6-\u4e09\u7532\u57fa\u6c2f\u82c4", "en_name": ["2,4,6-Trimethylbenzyl chloride", "Benzene, 2-(chloromethyl)-1,3,5-trimethyl-", "2-(Chloromethyl)-1,3,5-trimethylbenzene", "1-Chloromethyl-2,4,6-trimethylbenzene", "2,4,6-Trimethylbenzyl chloride", "\u03b12-Chloroisodurene", "(Chloromethyl)mesitylene", "Mesitylmethyl chloride", "o,o,p-Trimethylbenzyl chloride", "\u03b1-Chloroisodurene", "NSC 405484", "1,3,5-Trimethyl-2-(chloromethyl)benzene", "2-Chloromethyl-1,3,5-trimethylbenzene"], "SMILES": "C(Cl)C1=C(C)C=C(C)C=C1C", "physical_data": {"Molecular Weight": "168.66", "Molecular Formula": "C10H13Cl", "Boiling Point": "119 \u00b0C @ Press: 15 Torr", "Melting Point": "37 \u00b0C"}}