{"cas_no": "15862-19-8", "cn_name": "5-\u6eb4-2,2'-\u8054\u5421\u5576", "en_name": ["5-Bromo-2,2\u2032-bipyridine", "2,2\u2032-Bipyridine, 5-bromo-", "5-Bromo-2,2\u2032-bipyridine", "2-(2-Pyridyl)-5-bromopyridine", "5-Bromo-2,2\u2032-bipyridyl"], "SMILES": "BrC1=CC=C(N=C1)C2=CC=CC=N2", "physical_data": {"Molecular Weight": "235.08", "Molecular Formula": "C10H7BrN2", "Melting Point": "73 \u00b0C"}}