{"cas_no": "15861-36-6", "cn_name": "6-\u6c30\u57fa\u5432\u54da", "en_name": ["1H-Indole-6-carbonitrile", "1H-Indole-6-carbonitrile", "Indole-6-carbonitrile", "6-Cyanoindole", "6-Cyano-1H-indole"], "SMILES": "C(#N)C=1C=C2C(=CC1)C=CN2", "physical_data": {"Molecular Weight": "142.16", "Molecular Formula": "C9H6N2", "Melting Point": "129-130 \u00b0C"}}