{"cas_no": "1586-92-1", "cn_name": "\u4e8c\u4e59\u6c27\u57fa\u4e59\u57fa\u94dd", "en_name": ["Diethylaluminum ethoxide", "Aluminum, ethoxydiethyl-", "Ethoxydiethylaluminum", "Diethylaluminum ethoxide", "Diethylaluminum monoethoxide", "Diethylethoxyaluminum", "Diethylaluminium ethoxide", "(Ethanolato)diethylaluminum", "Dealox"], "SMILES": "[Al](OCC)(CC)CC", "physical_data": {"Molecular Weight": "", "Molecular Formula": "C6H15AlO", "Boiling Point": "108.5 \u00b0C", "Melting Point": "-50 \u00b0C"}}