{"cas_no": "15864-32-1", "cn_name": "2-\u6c28\u57fa-6-\u6eb4\u82ef\u5e76\u567b\u5511", "en_name": ["2-Amino-6-bromobenzothiazole", "2-Benzothiazolamine, 6-bromo-", "Benzothiazole, 2-amino-6-bromo-", "Benzothiazole, 1-amino-5-bromo-", "6-Bromo-2-benzothiazolamine", "2-Amino-6-bromobenzothiazole", "6-Bromo-2-aminobenzothiazole", "NSC 270077", "(6-Bromobenzothiazol-2-yl)amine", "6-Bromobenzo[d]thiazol-2-amine"], "SMILES": "NC1=NC=2C(S1)=CC(Br)=CC2", "physical_data": {"Molecular Weight": "229.10", "Molecular Formula": "C7H5BrN2S", "Melting Point": "210-212 \u00b0C"}}