{"cas_no": "15862-38-1", "cn_name": "3-\u6eb4-2-\u80bc\u57fa-5-\u785d\u57fa\u7812\u5576", "en_name": ["Pyridine, 3-bromo-2-hydrazinyl-5-nitro-", "Pyridine, 3-bromo-2-hydrazinyl-5-nitro-", "Pyridine, 3-bromo-2-hydrazino-5-nitro-", "(3-Bromo-5-nitropyridin-2-yl)hydrazine", "3-Bromo-2-hydrazinyl-5-nitropyridine", "3-Bromo-2-hydrazino-5-nitropyridine"], "SMILES": "N(=O)(=O)C=1C=C(Br)C(=NN)NC1", "physical_data": {"Molecular Weight": "233.02", "Molecular Formula": "C5H5BrN4O2", "Melting Point": "170 \u00b0C"}}