{"cas_no": "15862-37-0", "cn_name": "2,5-\u4e8c\u6eb4-3-\u785d\u57fa\u5421\u5576", "en_name": ["2,5-Dibromo-3-nitropyridine", "Pyridine, 2,5-dibromo-3-nitro-", "2,5-Dibromo-3-nitropyridine", "NSC 170627"], "SMILES": "N(=O)(=O)C1=C(Br)N=CC(Br)=C1", "physical_data": {"Molecular Weight": "281.89", "Molecular Formula": "C5H2Br2N2O2", "Melting Point": "97-98 \u00b0C"}}