{"cas_no": "1586-00-1", "cn_name": "2-\u82c4\u57fa\u82ef\u7532\u9187", "en_name": ["2-(Phenylmethyl)benzenemethanol", "Benzenemethanol, 2-(phenylmethyl)-", "Benzyl alcohol, o-benzyl-", "2-(Phenylmethyl)benzenemethanol", "o-Hydroxymethyldiphenylmethane", "2-Benzylbenzyl alcohol", "NSC 405651", "(2-Benzylphenyl)methanol"], "SMILES": "C(C1=C(CO)C=CC=C1)C2=CC=CC=C2", "physical_data": {"Molecular Weight": "198.26", "Molecular Formula": "C14H14O", "Boiling Point": "197-199 \u00b0C @ Press: 19 Torr", "Melting Point": "40-41 \u00b0C"}}