{"cas_no": "15862-30-3", "cn_name": "3-\u6eb4-5-\u785d\u57fa\u5421\u5576", "en_name": ["3-Bromo-5-nitropyridine", "Pyridine, 3-bromo-5-nitro-", "3-Bromo-5-nitropyridine"], "SMILES": "N(=O)(=O)C=1C=C(Br)C=NC1", "physical_data": {"Molecular Weight": "202.99", "Molecular Formula": "C5H3BrN2O2", "Melting Point": "167.5-168 \u00b0C"}}