{"cas_no": "15862-33-6", "cn_name": "3-\u6eb4-5-\u785d\u57fa-2-\u7f9f\u57fa\u5421\u5576", "en_name": ["3-Bromo-5-nitro-2(1H)-pyridinone", "2(1H)-Pyridinone, 3-bromo-5-nitro-", "2-Pyridinol, 3-bromo-5-nitro-", "2(1H)-Pyridone, 3-bromo-5-nitro-", "3-Bromo-5-nitro-2(1H)-pyridinone", "3-Bromo-2-hydroxy-5-nitropyridine", "3-Bromo-5-nitropyridin-2-ol", "3-Bromo-5-nitro-1H-pyridin-2-one"], "SMILES": "N(=O)(=O)C=1C=C(Br)C(=O)NC1", "physical_data": {"Molecular Weight": "218.99", "Molecular Formula": "C5H3BrN2O3", "Melting Point": "221-223 \u00b0C"}}