{"cas_no": "1586-73-8", "cn_name": "\u4e09(\u4e09\u7532\u57fa\u7845)\u80fa", "en_name": ["1,1,1-Trimethyl-N,N-bis(trimethylsilyl)silanamine", "Silanamine, 1,1,1-trimethyl-N,N-bis(trimethylsilyl)-", "Disilazane, 1,1,1,3,3,3-hexamethyl-2-(trimethylsilyl)-", "1,1,1-Trimethyl-N,N-bis(trimethylsilyl)silanamine", "Tris(trimethylsilyl)amine", "NSC 252162", "Nonamethyltrisilazane", "[[Bis(trimethylsilyl)amino]-dimethylsilyl]methane"], "SMILES": "N([Si](C)(C)C)([Si](C)(C)C)[Si](C)(C)C", "physical_data": {"Molecular Weight": "233.57", "Molecular Formula": "C9H27NSi3", "Boiling Point": "76 \u00b0C @ Press: 12 Torr", "Melting Point": "70-71 \u00b0C", "Density": "0.8436 g/cm\u00b3 @ Temp: 20 \u00b0C"}}