{"cas_no": "15869-93-9", "cn_name": "3,5-\u4e8c\u7532\u57fa\u8f9b\u70f7", "en_name": ["3,5-Dimethyloctane", "Octane, 3,5-dimethyl-", "3,5-Dimethyloctane"], "SMILES": "C(C(CCC)C)C(CC)C", "physical_data": {"Molecular Weight": "142.28", "Molecular Formula": "C10H22", "Boiling Point": "159.4 \u00b0C", "Density": "0.7151 g/cm\u00b3 @ Temp: 20 \u00b0C"}}