{"cas_no": "15869-85-9", "cn_name": "5-\u7532\u57fa\u58ec\u70f7", "en_name": ["5-Methylnonane", "Nonane, 5-methyl-", "5-Methylnonane"], "SMILES": "C(CCCC)(CCCC)C", "physical_data": {"Molecular Weight": "142.28", "Molecular Formula": "C10H22", "Boiling Point": "165.1 \u00b0C", "Melting Point": "-87.7 \u00b0C", "Density": "0.738 g/cm\u00b3"}}