{"cas_no": "15862-34-7", "cn_name": "5-\u6eb4-2-\u7f9f\u57fa-3-\u785d\u57fa\u5421\u5576", "en_name": ["5-Bromo-3-nitro-2(1H)-pyridinone", "2(1H)-Pyridinone, 5-bromo-3-nitro-", "2-Pyridinol, 5-bromo-3-nitro-", "5-Bromo-3-nitro-2(1H)-pyridinone", "2-Hydroxy-3-nitro-5-bromopyridine", "5-Bromo-2-hydroxy-3-nitropyridine", "NSC 170563", "5-Bromo-3-nitro-2-hydroxypyridine", "5-Bromo-3-nitropyridin-2-ol", "5-Bromo-3-nitropyridin-2(1H)-one", "5-Bromo-3-nitropyridin-2-one"], "SMILES": "N(=O)(=O)C=1C(=O)NC=C(Br)C1", "physical_data": {"Molecular Weight": "218.99", "Molecular Formula": "C5H3BrN2O3", "Melting Point": "237-238 \u00b0C"}}