{"cas_no": "15862-36-9", "cn_name": "2,3-\u4e8c\u6eb4-5-\u785d\u57fa\u5421\u5576", "en_name": ["2,3-Dibromo-5-nitropyridine", "Pyridine, 2,3-dibromo-5-nitro-", "2,3-Dibromo-5-nitropyridine"], "SMILES": "N(=O)(=O)C=1C=C(Br)C(Br)=NC1", "physical_data": {"Molecular Weight": "281.89", "Molecular Formula": "C5H2Br2N2O2", "Melting Point": "78 \u00b0C"}}