{"cas_no": "15861-24-2", "cn_name": "5-\u6c30\u57fa\u5432\u54da", "en_name": ["Indole-5-carbonitrile", "1H-Indole-5-carbonitrile", "Indole-5-carbonitrile", "5-Cyanoindole", "5-Cyano-1H-indole"], "SMILES": "C(#N)C=1C=C2C(=CC1)NC=C2", "physical_data": {"Molecular Weight": "142.16", "Molecular Formula": "C9H6N2", "Melting Point": "106-108 \u00b0C"}}