{"cas_no": "15862-31-4", "cn_name": "2-\u6c28\u57fa-3-\u6eb4-5-\u785d\u57fa\u5421\u5576", "en_name": ["3-Bromo-5-nitro-2-pyridinamine", "2-Pyridinamine, 3-bromo-5-nitro-", "Pyridine, 2-amino-3-bromo-5-nitro-", "3-Bromo-5-nitro-2-pyridinamine", "2-Amino-3-bromo-5-nitropyridine", "3-Bromo-5-nitropyridin-2-amine", "3-Bromo-5-nitro-pyridin-2-ylamine"], "SMILES": "N(=O)(=O)C=1C=C(Br)C(N)=NC1", "physical_data": {"Molecular Weight": "218.01", "Molecular Formula": "C5H4BrN3O2", "Melting Point": "215 \u00b0C (decomp)"}}