{"cas_no": "1587-20-8", "cn_name": "\u67e0\u6aac\u9178\u4e09\u7532\u916f", "en_name": ["Trimethyl citrate", "1,2,3-Propanetricarboxylic acid, 2-hydroxy-, 1,2,3-trimethyl ester", "Citric acid, trimethyl ester", "1,2,3-Propanetricarboxylic acid, 2-hydroxy-, trimethyl ester", "Trimethyl citrate", "NSC 75824", "3-Hydroxy-3-methoxycarbonylpentanedioic acid dimethyl ester", "1,2,3-Trimethyl 2-hydroxypropane-1,2,3-tricarboxylate"], "SMILES": "C(CC(OC)=O)(CC(OC)=O)(C(OC)=O)O", "physical_data": {"Molecular Weight": "234.20", "Molecular Formula": "C9H14O7", "Boiling Point": "285 \u00b0C", "Melting Point": "79.3 \u00b0C"}}