{"cas_no": "15873-51-5", "cn_name": "4-\u785d\u57fa\u82ef\u80fa\u76d0\u9178\u76d0", "en_name": ["4-Nitroaniline hydrochloride", "Benzenamine, 4-nitro-, hydrochloride (1:1)", "Aniline, p-nitro-, monohydrochloride", "Benzenamine, 4-nitro-, monohydrochloride", "p-Nitroanilinium chloride", "p-Nitroaniline hydrochloride", "p-Nitroaniline monohydrochloride", "p-Nitroaniline hydrochloride", "4-Nitroaniline hydrochloride", "4-Nitrobenzenamine hydrochloride", "p-Nitrobenzylammonium chloride"], "SMILES": "N(=O)(=O)C1=CC=C(N)C=C1.Cl", "physical_data": {"Molecular Weight": "", "Molecular Formula": "C6H6N2O2.ClH", "Melting Point": "145-146 \u00b0C"}}