{"cas_no": "15872-44-3", "cn_name": "4-\u5341\u4e00\u6c27\u57fa\u82ef\u7532\u9178", "en_name": ["4-(Undecyloxy)benzoic acid", "Benzoic acid, 4-(undecyloxy)-", "Benzoic acid, p-(undecyloxy)-", "4-(Undecyloxy)benzoic acid", "p-n-Undecyloxybenzoic acid"], "SMILES": "O(CCCCCCCCCCC)C1=CC=C(C(O)=O)C=C1", "physical_data": {"Molecular Weight": "292.41", "Molecular Formula": "C18H28O3", "Melting Point": "121 \u00b0C (polymorph)"}}