{"cas_no": "15872-41-0", "cn_name": "4-\u6b63\u620a\u6c27\u57fa\u82ef\u7532\u9178", "en_name": ["4-(Pentyloxy)benzoic acid", "Benzoic acid, 4-(pentyloxy)-", "Benzoic acid, p-(pentyloxy)-", "Benzoic acid, p-amoxy-", "4-(Pentyloxy)benzoic acid", "p-Pentoxybenzoic acid", "p-n-Pentyloxybenzoic acid", "p-(Pentyloxy)benzoic acid", "p-Amyloxybenzoic acid", "p-(n-Pentoxy)benzoic acid", "4-Pentoxybenzoic acid", "NSC 71397"], "SMILES": "C(O)(=O)C1=CC=C(OCCCCC)C=C1", "physical_data": {"Molecular Weight": "208.25", "Molecular Formula": "C12H16O3", "Melting Point": "148 \u00b0C"}}