{"cas_no": "15872-43-2", "cn_name": "4-\u58ec\u6c27\u57fa\u82ef\u7532\u9178", "en_name": ["4-(Nonyloxy)benzoic acid", "Benzoic acid, 4-(nonyloxy)-", "Benzoic acid, p-(nonyloxy)-", "4-(Nonyloxy)benzoic acid", "p-(Nonyloxy)benzoic acid", "p,n-Nonyloxybenzoic acid", "4-Nonyloxybenzoic acid", "p-(n-Nonoxy)benzoic acid", "4-n-Nonyloxybenzoic acid"], "SMILES": "O(CCCCCCCCC)C1=CC=C(C(O)=O)C=C1", "physical_data": {"Molecular Weight": "264.36", "Molecular Formula": "C16H24O3", "Melting Point": "118 \u00b0C (polymorph)"}}