{"cas_no": "15870-10-7", "cn_name": "2-\u7532\u57fa-1-\u5e9a\u70ef", "en_name": ["2-Methyl-1-heptene", "1-Heptene, 2-methyl-", "2-Methyl-1-heptene", "NSC 73949"], "SMILES": "C(CCCC)C(C)=C", "physical_data": {"Molecular Weight": "112.21", "Molecular Formula": "C8H16", "Boiling Point": "119.3 \u00b0C", "Melting Point": "-90 \u00b0C", "Density": "0.72025 g/cm\u00b3 @ Temp: 20 \u00b0C"}}