{"cas_no": "15879-93-3", "cn_name": "alpha-\u6c2f\u919b\u7cd6", "en_name": ["Chloralose", "\u03b1-D-Glucofuranose, 1,2-O-[(1R)-2,2,2-trichloroethylidene]-", "Chloralose, \u03b1-", "\u03b1-D-Glucofuranose, 1,2-O-(2,2,2-trichloroethylidene)-, (R)-", "Chloralose", "Furo[2,3-d]-1,3-dioxole, \u03b1-D-glucofuranose deriv.", "1,2-O-[(1R)-2,2,2-Trichloroethylidene]-\u03b1-D-glucofuranose", "Anhydroglucochloral", "\u03b1-Chloralose", "Somio", "AGC", "\u03b1-Monotrichloroethylidene-D-glucose", "Aphosal", "Chloralosane", "Dulcidor", "Glucochloral", "Kalmettumsomniferum", "Murex (carbohydrate)", "\u03b1-D-Chloralose", "Alfa 4", "Alpha 4", "Murex", "Glucochloralose", "Alphakil", "Dorcalm", "AGC (carbohydrate)", "\u03b1-Glucochloralose"], "SMILES": "OC1C2C(OC1C(CO)O)OC(C(Cl)(Cl)Cl)O2", "physical_data": {"Molecular Weight": "309.53", "Molecular Formula": "C8H11Cl3O6", "Melting Point": "182-184 \u00b0C"}}