{"cas_no": "15875-13-5", "cn_name": "1,3,5-\u4e09(\u4e8c\u7532\u57fa\u80fa\u4e19\u57fa)-1,3,5-\u516d\u6c22\u5316\u4e09\u55ea", "en_name": ["Desmorapid", "1,3,5-Triazine-1,3,5(2H,4H,6H)-tripropanamine, N1,N1,N3,N3,N5,N5-hexamethyl-", "s-Triazine, 1,3,5-tris[3-(dimethylamino)propyl]hexahydro-", "1,3,5-Triazine-1,3,5(2H,4H,6H)-tripropanamine, N,N,N\u2032,N\u2032,N\u2032\u2032,N\u2032\u2032-hexamethyl-", "N1,N1,N3,N3,N5,N5-Hexamethyl-1,3,5-triazine-1,3,5(2H,4H,6H)-tripropanamine", "N,N\u2032,N\u2032\u2032-Tris(dimethylaminopropyl)-sym-hexahydrotriazine", "1,3,5-Tris(N,N-dimethyl-3-aminopropyl)-s-hexahydrotriazine", "N,N\u2032,N\u2032\u2032-Tris(dimethylaminopropyl)-s-hexahydrotriazine", "1,3,5-Tris[3-(dimethylamino)propyl]-s-hexahydrotriazine", "Polycat 41", "1,3,5-Tris[3-(dimethylamino)propyl]hexahydro-1,3,5-triazine", "Desmorapid", "Tris(dimethylaminopropyl)-s-hexahydrotriazine", "N,N\u2032,N\u2032\u2032-Tris(3-dimethylaminopropyl)hexahydro-s-triazine", "R 141", "Polycat P 41", "Kaolizer 14", "Toyocat TRC", "Niax C 41", "Minico R 141", "1,3,5-Tri(3-dimethylaminopropyl)hexahydro-1,3,5-triazine", "NSC 28833", "Lupragen N 600", "N 600", "2,4,6-Tris[(3-dimethylamino)propyl]hexahydrotriazine", "Jeffcat TR 90", "TR 90", "Niax Catalyst C 41", "PC 41", "PC CAT NP 40", "Tris(3-dimethylaminopropyl)hexahydro-s-triazine", "Tegoamin 41", "N,N,N\u2032,N\u2032,N\u2032\u2032,N\u2032\u2032-Hexamethyl-1,3,5-triazine-1,3,5(2H,4H,6H)-tripropanamine", "Lupragen 600"], "SMILES": "C(CCN(C)C)N1CN(CCCN(C)C)CN(CCCN(C)C)C1", "physical_data": {"Molecular Weight": "342.57", "Molecular Formula": "C18H42N6", "Boiling Point": "135-140 \u00b0C @ Press: 0.01 Torr", "Melting Point": "268-271 \u00b0C"}}