{"cas_no": "15878-00-9", "cn_name": "4-\u6c2f\u5421\u5511", "en_name": ["4-Chloropyrazole", "1H-Pyrazole, 4-chloro-", "Pyrazole, 4-chloro-", "4-Chloro-1H-pyrazole", "4-Chloropyrazole"], "SMILES": "ClC=1C=NNC1", "physical_data": {"Molecular Weight": "102.52", "Molecular Formula": "C3H3ClN2", "Melting Point": "71-73 \u00b0C"}}