{"cas_no": "15872-42-1", "cn_name": "4-\u6b63\u5e9a\u6c27\u57fa\u82ef\u7532\u9178", "en_name": ["4-(Heptyloxy)benzoic acid", "Benzoic acid, 4-(heptyloxy)-", "Benzoic acid, p-(heptyloxy)-", "4-(Heptyloxy)benzoic acid", "p-(Heptyloxy)benzoic acid", "p-Heptoxybenzoic acid", "4-n-Heptyloxybenzoic acid", "p-(n-Heptyloxy)benzoic acid", "p-(n-Heptoxy)benzoic acid", "NSC 73158"], "SMILES": "O(CCCCCCC)C1=CC=C(C(O)=O)C=C1", "physical_data": {"Molecular Weight": "236.31", "Molecular Formula": "C14H20O3", "Melting Point": "92-95 \u00b0C"}}