{"cas_no": "158876-82-5", "cn_name": "\u5bcc\u9a6c\u9178\u5362\u5e15\u4ed6\u5b9a", "en_name": ["Rupatadine", "5H-Benzo[5,6]cyclohepta[1,2-b]pyridine, 8-chloro-6,11-dihydro-11-[1-[(5-methyl-3-pyridinyl)methyl]-4-piperidinylidene]-", "8-Chloro-6,11-dihydro-11-[1-[(5-methyl-3-pyridinyl)methyl]-4-piperidinylidene]-5H-benzo[5,6]cyclohepta[1,2-b]pyridine", "Rupatadine", "Rupafin", "Rinialer", "Rupax", "Alergoliber", "Pafinur"], "SMILES": "ClC=1C=C2C(C(C=3C(CC2)=CC=CN3)=C4CCN(CC=5C=C(C)C=NC5)CC4)=CC1", "physical_data": {"Molecular Weight": "415.96", "Molecular Formula": "C26H26ClN3", "Melting Point": "136-137 \u00b0C"}}