{"cas_no": "1588-83-6", "cn_name": "4-\u6c28\u57fa-3-\u785d\u57fa\u82ef\u7532\u9178", "en_name": ["4-Amino-3-nitrobenzoic acid", "Benzoic acid, 4-amino-3-nitro-", "4-Amino-3-nitrobenzoic acid", "3-Nitro-4-aminobenzoic acid", "4-Carboxy-2-nitroaniline", "NSC 20673"], "SMILES": "N(=O)(=O)C1=CC(C(O)=O)=CC=C1N", "physical_data": {"Molecular Weight": "182.13", "Molecular Formula": "C7H6N2O4", "Melting Point": "284 \u00b0C"}}