{"cas_no": "1588-89-2", "cn_name": "2,3-\u8054\u82ef\u57fa\u54cc\u55ea", "en_name": ["2,3-Diphenylpyrazine", "Pyrazine, 2,3-diphenyl-", "2,3-Diphenylpyrazine", "NSC 54144"], "SMILES": "C=1(C(=NC=CN1)C2=CC=CC=C2)C3=CC=CC=C3", "physical_data": {"Molecular Weight": "232.28", "Molecular Formula": "C16H12N2", "Melting Point": "120 \u00b0C"}}