{"cas_no": "15883-20-2", "cn_name": "N-(2',6'-\u4e8c\u7532\u82ef\u57fa)-2-\u54cc\u5576\u7532\u9170\u80fa", "en_name": ["2\u2032,6\u2032-Pipecoloxylidide", "2-Piperidinecarboxamide, N-(2,6-dimethylphenyl)-", "2\u2032,6\u2032-Pipecoloxylidide", "N-(2,6-Dimethylphenyl)-2-piperidinecarboxamide", "2\u2032,6\u2032-Pipecolylxylidine", "Desbutylbupivacaine", "Debutylbupivacaine", "N-Desbutylbupivacaine"], "SMILES": "N(C(=O)C1CCCCN1)C2=C(C)C=CC=C2C", "physical_data": {"Molecular Weight": "232.32", "Molecular Formula": "C14H20N2O", "Melting Point": "121 \u00b0C"}}