{"cas_no": "1589-60-2", "cn_name": "1-\u82ef\u57fa-1-\u73af\u5df1\u9187", "en_name": ["1-Phenylcyclohexanol", "Cyclohexanol, 1-phenyl-", "1-Phenylcyclohexanol", "1-Phenylcyclohexan-1-ol", "NSC 21999"], "SMILES": "OC1(CCCCC1)C2=CC=CC=C2", "physical_data": {"Molecular Weight": "176.25", "Molecular Formula": "C12H16O", "Boiling Point": "151 \u00b0C @ Press: 20 Torr", "Melting Point": "63.5 \u00b0C"}}