{"cas_no": "158966-92-8", "cn_name": "\u5b5f\u9c81\u53f8\u7279", "en_name": ["Montelukast", "Cyclopropaneacetic acid, 1-[[[(1R)-1-[3-[(1E)-2-(7-chloro-2-quinolinyl)ethenyl]phenyl]-3-[2-(1-hydroxy-1-methylethyl)phenyl]propyl]thio]methyl]-", "Cyclopropaneacetic acid, 1-[[[1-[3-[2-(7-chloro-2-quinolinyl)ethenyl]phenyl]-3-[2-(1-hydroxy-1-methylethyl)phenyl]propyl]thio]methyl]-, [R-(E)]-", "1-[[[(1R)-1-[3-[(1E)-2-(7-Chloro-2-quinolinyl)ethenyl]phenyl]-3-[2-(1-hydroxy-1-methylethyl)phenyl]propyl]thio]methyl]cyclopropaneacetic acid", "Montelukast", "2-[1-[[[(1R)-1-[3-[(1E)-2-(7-Chloro-2-quinolinyl)ethenyl]phenyl]-3-[2-(1-hydroxy-1-methylethyl)phenyl]propyl]thio]methyl]cyclopropyl]acetic acid", "1-[[[(R)-1-[3-[(E)-2-(7-Chloro-2-quinolinyl)ethenyl]phenyl]-3-[2-(1-hydroxy-1-methylethyl)phenyl]propyl]thio]methyl]cyclopropaneacetic acid", "[1-[[[(1R)-1-[3-[(E)-2-(7-Chloroquinolin-2-yl)vinyl]phenyl]-3-[2-(1-hydroxy-1-methylethyl)phenyl]propyl]sulfanyl]methyl]cyclopropyl]acetic acid", "(R,E)-1-[[[1-[3-[2-(7-Chloro-2-quinolinyl)ethenyl]phenyl]-3-[2-(1-hydroxy-1-methylethyl)phenyl]propyl]thio]methyl]cyclopropaneacetic acid", "Velukast"], "SMILES": "C(SC(CCC1=C(C(C)(C)O)C=CC=C1)C2=CC(C=CC3=NC4=C(C=C3)C=CC(Cl)=C4)=CC=C2)C5(CC(O)=O)CC5", "physical_data": {"Molecular Weight": "586.18", "Molecular Formula": "C35H36ClNO3S", "Melting Point": "145-148 \u00b0C"}}