{"cas_no": "1589-47-5", "cn_name": "(2S)-2-\u7532\u6c27\u57fa-1-\u4e19\u9187", "en_name": ["2-Methoxy-1-propanol", "1-Propanol, 2-methoxy-", "2-Methoxy-1-propanol", "2-Methoxypropanol", "2-Methoxy-1-hydroxypropane"], "SMILES": "C(CO)(OC)C", "physical_data": {"Molecular Weight": "90.12", "Molecular Formula": "C4H10O2", "Boiling Point": "130 \u00b0C", "Density": "0.938 g/cm\u00b3 @ Temp: 20 \u00b0C"}}