{"cas_no": "1589-49-7", "cn_name": "3-\u7532\u6c27\u57fa-1-\u4e19\u9187", "en_name": ["3-Methoxy-1-propanol", "1-Propanol, 3-methoxy-", "3-Methoxy-1-propanol", "\u03b2-Propylene glycol monomethyl ether", "Trimethylene glycol monomethyl ether", "3-Methoxypropanol", "3-(Methyloxy)propan-1-ol", "1-Methoxy-3-hydroxypropane"], "SMILES": "C(COC)CO", "physical_data": {"Molecular Weight": "90.12", "Molecular Formula": "C4H10O2", "Boiling Point": "66 \u00b0C", "Density": "0.9455 g/cm\u00b3 @ Temp: 20 \u00b0C"}}