{"cas_no": "15891-50-6", "cn_name": "N-\u4e59\u9170-L-\u6b63\u7f2c\u6c28\u9178", "en_name": ["N-Acetyl-L-norvaline", "L-Norvaline, N-acetyl-", "Norvaline, N-acetyl-, L-", "N-Acetyl-L-norvaline", "Acetyl-L-norvaline", "(S)-2-Acetamidopentanoic acid", "(2S)-2-Acetamidopentanoic acid"], "SMILES": "C(NC(C)=O)(CCC)C(O)=O", "physical_data": {"Molecular Weight": "159.18", "Molecular Formula": "C7H13NO3", "Melting Point": "116-117 \u00b0C"}}