{"cas_no": "1589-62-4", "cn_name": "\u73af\u5df1\u916e-DNPH", "en_name": ["Cyclohexanone 2-(2,4-dinitrophenyl)hydrazone", "Cyclohexanone, 2-(2,4-dinitrophenyl)hydrazone", "Cyclohexanone, (2,4-dinitrophenyl)hydrazone", "Cyclohexanone 2-(2,4-dinitrophenyl)hydrazone", "NSC 6125", "1-Cyclohexylidene-2-(2,4-dinitrophenyl)hydrazine"], "SMILES": "N(N=C1CCCCC1)C2=C(N(=O)=O)C=C(N(=O)=O)C=C2", "physical_data": {"Molecular Weight": "278.26", "Molecular Formula": "C12H14N4O4", "Melting Point": "156.5-157 \u00b0C"}}