{"cas_no": "15892-23-6", "cn_name": "\u4ef2\u4e01\u9187", "en_name": ["(\u00b1)-2-Butanol", "2-Butanol", "sec-Butyl alcohol", "CCS 301", "sec-Butanol", "Ethylmethyl carbinol", "2-Hydroxybutane", "Methylethylcarbinol", "3-Butanol", "1-Methyl-1-propanol", "1-Methylpropyl alcohol", "s-Butanol", "s-Butyl alcohol", "dl-sec-Butanol", "dl-Methylethylcarbinol", "DL-Butan-2-ol", "(\u00b1)-2-Butanol", "Racemic-2-butanol", "NSC 25499"], "SMILES": "C(CC)(C)O", "physical_data": {"Molecular Weight": "74.12", "Molecular Formula": "C4H10O", "Boiling Point": "99.5 \u00b0C", "Melting Point": "-114 \u00b0C", "Density": "0.8063 g/cm\u00b3 @ Temp: 20 \u00b0C"}}