{"cas_no": "15894-70-9", "cn_name": "1,6-\u53cc\u6c30\u57fa\u80cd\u57fa\u5df1\u70f7", "en_name": ["1,6-Bis(cyanoguanidino)hexane", "Guanidine, N,N\u2032\u2032\u2032-1,6-hexanediylbis[N\u2032-cyano-", "Guanidine, 1,1\u2032-hexamethylenebis[3-cyano-", "N,N\u2032\u2032\u2032-1,6-Hexanediylbis[N\u2032-cyanoguanidine]", "1,6-Bis(N3-cyano-N1-guanidino)hexane", "Hexamethylenebis(dicyanodiamide)", "1,6-Bis(cyanoguanidino)hexane", "1,6-Di(cyanoguanidino)hexane", "N,N\u2032-Bis(cyanoguanidine)-1,6-hexanediamine", "2-[6-[[Amino-(cyanoamino)methylidene]amino]hexyl]-1-cyanoguanidine"], "SMILES": "N(CCCCCCNC(NC#N)=N)C(NC#N)=N", "physical_data": {"Molecular Weight": "250.30", "Molecular Formula": "C10H18N8", "Melting Point": "202-203 \u00b0C"}}