{"cas_no": "15893-52-4", "cn_name": "\u4e01\u5e03", "en_name": ["2,4-Dihydroxy-7-methoxy-1,4-benzoxazin-3-one", "2H-1,4-Benzoxazin-3(4H)-one, 2,4-dihydroxy-7-methoxy-", "2,4-Dihydroxy-7-methoxy-2H-1,4-benzoxazin-3(4H)-one", "2,4-Dihydroxy-7-methoxy-1,4-(2H)-benzoxazin-3-one", "2,4-Dihydroxy-7-methoxy-1,4-benzoxazin-3-one", "2,4-Dihydroxy-3-keto-7-methoxy-1,4-benzoxazine", "2,4-Dihydroxy-7-methoxy-4H-1,4-benzoxazin-3(2H)-one", "2,3-Dihydro-2,4-dihydroxy-7-methoxy-4H-1,4-benzoxazin-3-one", "2,4-Dihydroxy-7-methoxy-1,4-benzoxazine-3-one", "DIMBOA", "2,4-Dihydroxy-7-methoxy-2H-1,4-benzoxazin-3-one", "(\u00b1)-DIMBOA", "(\u00b1)-2,4-Dihydroxy-7-methoxy-2H-1,4-benzoxazin-3(4H)-one", "2,4-Dihydroxy-7-methoxy-3,4-dihydro-2H-1,4-benzoxazin-3-one"], "SMILES": "ON1C=2C(=CC(OC)=CC2)OC(O)C1=O", "physical_data": {"Molecular Weight": "211.17", "Molecular Formula": "C9H9NO5", "Melting Point": "150-155 \u00b0C"}}