{"cas_no": "15901-42-5", "cn_name": "3,3,5-\u4e09\u7532\u57fa\u73af\u5df1\u80fa", "en_name": ["3,3,5-Trimethylcyclohexanamine", "Cyclohexanamine, 3,3,5-trimethyl-", "Cyclohexylamine, 3,3,5-trimethyl-", "3,3,5-Trimethylcyclohexanamine", "3,3,5-Trimethylcyclohexylamine", "3,5,5-Trimethylcyclohexylamine", "3,3,5-Trimethylcyclohexan-1-amine"], "SMILES": "CC1(C)CC(C)CC(N)C1", "physical_data": {"Molecular Weight": "141.25", "Molecular Formula": "C9H19N", "Boiling Point": "179.6 \u00b0C", "Density": "0.8442 g/cm\u00b3 @ Temp: 20 \u00b0C"}}