{"cas_no": "1590-08-5", "cn_name": "2-\u7532\u57fa-3,4-\u4e8c\u6c22-2H-1-\u8418\u916e", "en_name": ["2-Methyl-1-tetralone", "1(2H)-Naphthalenone, 3,4-dihydro-2-methyl-", "3,4-Dihydro-2-methyl-1(2H)-naphthalenone", "2-Methyl-1-tetralone", "1-Oxo-2-methyl-1,2,3,4-tetrahydronaphthalene", "2-Methyl-\u03b1-tetralone", "2-Methyl-3,4-dihydro-2H-naphthalen-1-one", "2-Methyl-1,2,3,4-tetrahydronaphthalen-1-one", "2-Methyl-3,4-dihydronaphthalen-1(2H)-one"], "SMILES": "O=C1C=2C(CCC1C)=CC=CC2", "physical_data": {"Molecular Weight": "160.21", "Molecular Formula": "C11H12O", "Boiling Point": "135-137 \u00b0C @ Press: 16 Torr", "Melting Point": "15 \u00b0C"}}