{"cas_no": "1590-87-0", "cn_name": "\u4e59\u7845\u70f7", "en_name": ["Disilane", "Disilane", "Disilicane", "Disilicoethane", "Disilicon hexahydride", "Silicoethane", "Disilane (Si2H6)", "Silicon hydride (Si2H6)"], "SMILES": "[SiH3][SiH3]", "physical_data": {"Molecular Weight": "62.22", "Molecular Formula": "H6Si2", "Boiling Point": "-14.5 \u00b0C", "Melting Point": "-132 \u00b0C", "Density": "0.686 g/cm\u00b3 @ Temp: -25 \u00b0C"}}