{"cas_no": "15905-32-5", "cn_name": "\u56db\u7898\u8367\u5149\u7d20", "en_name": ["2\u2032,4\u2032,5\u2032,7\u2032-Tetraiodofluorescein", "Spiro[isobenzofuran-1(3H),9\u2032-[9H]xanthen]-3-one, 3\u2032,6\u2032-dihydroxy-2\u2032,4\u2032,5\u2032,7\u2032-tetraiodo-", "Fluorescein, 2\u2032,4\u2032,5\u2032,7\u2032-tetraiodo-", "3\u2032,6\u2032-Dihydroxy-2\u2032,4\u2032,5\u2032,7\u2032-tetraiodospiro[isobenzofuran-1(3H),9\u2032-[9H]xanthen]-3-one", "2\u2032,4\u2032,5\u2032,7\u2032-Tetraiodofluorescein", "Iodeosin", "Tetraiodofluorescein", "Erythrosine acid", "Solvent Red 140", "C.I. Solvent Red 140", "C.I. 45430:2", "NSC 328781", "Erythrosine J", "Erythrosin J", "3\u2032,6\u2032-Dihydroxy-2\u2032,4\u2032,5\u2032,7\u2032-tetraiodospiro[2-benzofuran-3,9\u2032-xanthene]-1-one"], "SMILES": "O=C1OC2(C=3C(OC=4C2=CC(I)=C(O)C4I)=C(I)C(O)=C(I)C3)C=5C1=CC=CC5", "physical_data": {"Molecular Weight": "835.89", "Molecular Formula": "C20H8I4O5", "Melting Point": "290-292 \u00b0C"}}