{"cas_no": "15901-40-3", "cn_name": "\u7532\u57fa\u4e09(\u73af\u5df1\u6c28\u57fa)\u7845\u70f7", "en_name": ["N,N\u2032,N\u2032\u2032-Tricyclohexyl-1-methylsilanetriamine", "Silanetriamine, N,N\u2032,N\u2032\u2032-tricyclohexyl-1-methyl-", "N,N\u2032,N\u2032\u2032-Tricyclohexyl-1-methylsilanetriamine", "Methyltris(cyclohexylamino)silane", "Tris(cyclohexylamino)methylsilane"], "SMILES": "[Si](NC1CCCCC1)(NC2CCCCC2)(NC3CCCCC3)C", "physical_data": {"Molecular Weight": "337.62", "Molecular Formula": "C19H39N3Si", "Boiling Point": "169 \u00b0C @ Press: 3 Torr", "Density": "0.960 g/cm\u00b3"}}