{"cas_no": "15903-94-3", "cn_name": "6-\u82c4\u6c27\u57fa\u5432\u54da", "en_name": ["6-(Phenylmethoxy)-1H-indole", "1H-Indole, 6-(phenylmethoxy)-", "Indole, 6-(benzyloxy)-", "6-(Phenylmethoxy)-1H-indole", "6-(Benzyloxy)indole", "6-(Benzyloxy)-1H-indole", "NSC 92538"], "SMILES": "O(CC1=CC=CC=C1)C=2C=C3C(=CC2)C=CN3", "physical_data": {"Molecular Weight": "223.27", "Molecular Formula": "C15H13NO", "Melting Point": "111-112 \u00b0C"}}