{"cas_no": "1591-31-7", "cn_name": "4-\u7898\u8054\u82ef", "en_name": ["4-Iodobiphenyl", "1,1\u2032-Biphenyl, 4-iodo-", "Biphenyl, 4-iodo-", "4-Iodo-1,1\u2032-biphenyl", "p-Phenyliodobenzene", "4-Iodobiphenyl", "p-Iodobiphenyl", "4-Biphenyl iodide", "4-Iododiphenyl", "p-(Iodophenyl)benzene", "4-Phenyliodobenzene", "NSC 3791", "4-Phenyl-1-iodobenzene", "1-Iodo-4-phenylbenzene"], "SMILES": "IC1=CC=C(C=C1)C2=CC=CC=C2", "physical_data": {"Molecular Weight": "280.10", "Molecular Formula": "C12H9I", "Boiling Point": "320 \u00b0C", "Melting Point": "113.5 \u00b0C"}}