{"cas_no": "1591-99-7", "cn_name": "\u5f02\u6c30\u9178235-\u4e8c\u7532\u57fa\u82ef\u916f", "en_name": ["2,3-Dimethylphenyl isocyanate", "Benzene, 1-isocyanato-2,3-dimethyl-", "Isocyanic acid, 2,3-xylyl ester", "1-Isocyanato-2,3-dimethylbenzene", "2,3-Dimethylphenyl isocyanate"], "SMILES": "N(=C=O)C1=C(C)C(C)=CC=C1", "physical_data": {"Molecular Weight": "147.17", "Molecular Formula": "C9H9NO", "Boiling Point": "88-90 \u00b0C @ Press: 9.5 Torr"}}