{"cas_no": "1591-98-6", "cn_name": "4-\u6eb4-2-\u7532\u57fa\u5f02\u6c30\u9178\u82ef\u916f", "en_name": ["4-Bromo-2-methylphenyl isocyanate", "Benzene, 4-bromo-1-isocyanato-2-methyl-", "Isocyanic acid, 4-bromo-o-tolyl ester", "4-Bromo-1-isocyanato-2-methylbenzene", "4-Bromo-2-methylphenyl isocyanate"], "SMILES": "N(=C=O)C1=C(C)C=C(Br)C=C1", "physical_data": {"Molecular Weight": "212.04", "Molecular Formula": "C8H6BrNO", "Boiling Point": "78 \u00b0C @ Press: 1 Torr"}}