{"cas_no": "1591-95-3", "cn_name": "\u4e94\u6c1f\u82ef\u57fa\u5f02\u6c30\u9178\u916f", "en_name": ["Pentafluorophenyl isocyanate", "Benzene, 1,2,3,4,5-pentafluoro-6-isocyanato-", "Isocyanic acid, pentafluorophenyl ester", "Benzene, pentafluoroisocyanato-", "1,2,3,4,5-Pentafluoro-6-isocyanatobenzene", "Perfluorophenyl isocyanate", "Pentafluorophenyl isocyanate", "Pentafluoroisocyanatobenzene", "2,3,4,5,6-PentafluoroPhenyl isocyanate"], "SMILES": "N(=C=O)C1=C(F)C(F)=C(F)C(F)=C1F", "physical_data": {"Molecular Weight": "209.07", "Molecular Formula": "C7F5NO", "Boiling Point": "58-59 \u00b0C @ Press: 25 Torr"}}