{"cas_no": "1591-30-6", "cn_name": "4,4'-\u8054\u82ef\u7532\u8148", "en_name": ["[1,1\u2032-Biphenyl]-4,4\u2032-dicarbonitrile", "[1,1\u2032-Biphenyl]-4,4\u2032-dicarbonitrile", "4,4\u2032-Biphenyldicarbonitrile", "4,4\u2032-Dicyanobiphenyl", "4,4\u2032-Dicyanodiphenyl", "NSC 87879", "4,4\u2032-Dicyano-1,1\u2032-biphenyl"], "SMILES": "C(#N)C1=CC=C(C=C1)C2=CC=C(C#N)C=C2", "physical_data": {"Molecular Weight": "204.23", "Molecular Formula": "C14H8N2", "Melting Point": "232-234 \u00b0C"}}