{"cas_no": "1592-12-7", "cn_name": "4-\u4e59\u70ef\u82c4\u57fa\u4e59\u9178\u916f", "en_name": ["Benzenemethanol, 4-ethenyl-, 1-acetate", "Benzenemethanol, 4-ethenyl-, 1-acetate", "Benzyl alcohol, p-vinyl-, acetate", "Benzenemethanol, 4-ethenyl-, acetate", "p-Vinylbenzyl acetate", "p-(Acetoxymethyl)styrene", "4-(Acetoxymethyl)styrene", "4-Vinylbenzyl acetate", "(4-Ethenylphenyl)methyl acetate"], "SMILES": "C(OC(C)=O)C1=CC=C(C=C)C=C1", "physical_data": {"Molecular Weight": "176.21", "Molecular Formula": "C11H12O2", "Boiling Point": "136-139 \u00b0C @ Press: 15 Torr", "Density": "1.051 g/cm\u00b3 @ Temp: 25 \u00b0C"}}