{"cas_no": "1592-70-7", "cn_name": "4-\u4e59\u70ef\u57fa\u6c2f\u82c4", "en_name": ["Isokaempferide", "4H-1-Benzopyran-4-one, 5,7-dihydroxy-2-(4-hydroxyphenyl)-3-methoxy-", "Flavone, 4\u2032,5,7-trihydroxy-3-methoxy-", "5,7-Dihydroxy-2-(4-hydroxyphenyl)-3-methoxy-4H-1-benzopyran-4-one", "3-Methylkaempferol", "Isokaempferide", "3-O-Methylkaempferol", "Kaempferol 3-methyl ether", "Apigenin 3-O-methyl ether", "Kaempferol 3-monomethyl ether", "5,7,4\u2032-Trihydroxy-3-methoxyflavone", "Kaempferol 3-O-methyl ether", "3-O-Methylgalangine"], "SMILES": "O=C1C=2C(OC(=C1OC)C3=CC=C(O)C=C3)=CC(O)=CC2O", "physical_data": {"Molecular Weight": "300.26", "Molecular Formula": "C16H12O6", "Melting Point": "270-272 \u00b0C"}}