{"cas_no": "1592-23-0", "cn_name": "\u786c\u8102\u9178\u9499", "en_name": ["Calcium stearate", "Octadecanoic acid, calcium salt (2:1)", "Stearic acid, calcium salt", "Octadecanoic acid, calcium salt", "Calcium stearate", "Calstar", "Flexichem CS", "Synpro stearate", "Calcium distearate", "Aquacal", "Nopcote C 104", "Witco G 339S", "G 339S", "Flexichem", "Stavinor 30", "Ceasit I", "PBK", "Daiwax C", "SC 100 (stabilizer)", "SC 100", "Calcium bis(stearate)", "Selosol 644-50B", "RSN 248D", "S-C 1800", "Calcium octadecanoate", "LB Coat LB 131(50)", "Calcium Stearate S", "Darapel", "15F (stabilizer)", "Petrac CP 11LS", "15F", "BD 853", "Adekafin Efukodesupa C", "Radiastar 1060", "Calsan 50", "SC 100C", "Stavinor Cecavon CA", "GF 200", "SN 230", "Lubrical 48", "Salinon SRC", "Dry-Block II", "Nopcote C 104-50", "SCZ 100", "SC-P", "Calcium Stearate G", "DEF 960", "L 155", "Flowco 53", "Ferro", "SC-P (stabilizer)", "Hydense 5862", "Synpro 114-40", "Calcium Stearate GF 200", "Baerlocher 5862", "Stavinor Ca-PSE", "Synpro CaSt 15", "Nissan Calcium Stearate S", "SC 1000 (stearate)", "SC 1000", "Dymsol CSD", "Nopcote C 104HS", "Afco-Disper C", "Calcium Stearate CP", "Calcium Stearate CP-S", "CS 1 (soap)", "Mortarplus", "C 104HS", "CS 1", "L 155 (stearate)", "Calcium Stearate U", "Dry Block", "MCA 2", "Calcium Stearate GP", "Nissan Electol MC 2", "MC 2", "Sunkote 455", "Sunkote 452", "Calsan 55", "Ceasit AV 40", "Ceasit PC", "S 1244", "Nopcote 140", "SAK-CS-PPT 1", "RSN 11", "Casite POE-C", "AFCO-Chem CS", "NF-SC", "SC-PG", "Ca-St", "SA 1840", "ES-A", "CP-S", "Sunkote 459", "Aulabrite CA 65", "Eka LG-RG 50/2TC", "1097AH", "Nopco 1097AH", "SN-Cote 243", "Olinor 2587", "Parteck LUB-CST", "Listab Ca", "BS 3818", "Ceasit AV", "Liga CPR 2V", "Calcium Stearate FI", "Ligastar CA 800", "EC 102", "HCS", "SAK-CS-G", "Ceasit SW", "Ceasit AV/T", "DEF 963TF", "SAK-CS-P", "Akstab CA 3", "Ombrelub 533", "SC 110", "C 50", "Coad 10C", "CS 2", "Songstab SC 110", "Nopco C 104", "COAD 10", "Ceasit AV/PA", "Xianbang C 405", "C 405", "HB 02", "Synpro CaSt 500B", "CPR 5", "Loxanol MI-S 233", "S 0236", "AR 42", "Nissan Elector MC-2", "DEF 960-2", "SC-PF", "Devoflo 40CM-X", "Synpro CW 1250", "Sunkote 452BF", "Synpro Calcium Stearate 15F", "SunKote 452BF", "SC 130", "Coad 10LD", "G 120", "G 120 (stearate)", "CV 500", "Synpro 15F", "C 60", "C 60 (stearate)", "Aulabrite CA 60", "DH 101", "Ceasit FI", "LD 10", "Ligastar 860", "LD 10 (stearate)", "C 0051510331", "AR 2", "AR 2 (stearate)", "Liga 800", "SXCFD", "SX 25 (stearate)", "SX 25", "NJ 026B", "CD 211", "Ligastar CA 350", "CSP 501", "BaeroLub S-VSA 200", "CV 502", "Songstab SC 130", "Ligastar CA 600G", "Aksab CA 35", "Songstab Ca-St", "KP 720B4", "C 805417", "Ligastar 600", "SAK-CS-POF", "SAK-CS"], "SMILES": "C(CCCCCCCCCCC)CCCCCC(O)=O.[Ca]", "physical_data": {"Molecular Weight": "", "Molecular Formula": "C18H36O2.<sup>1</sup>/2Ca", "Melting Point": "179 \u00b0C", "Density": "1.12 g/cm\u00b3"}}