{"cas_no": "15926-18-8", "cn_name": "\u5f02\u4e01\u9170\u57fa\u7518\u6c28\u9178", "en_name": ["Isobutyrylglycine", "Glycine, N-(2-methyl-1-oxopropyl)-", "Glycine, N-isobutyryl-", "N-(2-Methyl-1-oxopropyl)glycine", "Isobutyrylglycine", "N-Isobutyrylglycine", "2-(Isobutyramido)acetic acid", "(Isobutyrylamino)acetic acid", "2-(2-Methylpropanoylamino)acetic acid", "2-(Isobutyrylamino)acetic acid", "2-(2-Methylpropanamido)acetic acid"], "SMILES": "C(NCC(O)=O)(C(C)C)=O", "physical_data": {"Molecular Weight": "145.16", "Molecular Formula": "C6H11NO3", "Melting Point": "103-104 \u00b0C"}}