{"cas_no": "1592-31-0", "cn_name": "1,4-\u4e8c(\u4e8c\u6eb4\u7532\u57fa)\u82ef", "en_name": ["1,4-Bis(dibromomethyl)benzene", "Benzene, 1,4-bis(dibromomethyl)-", "p-Xylene, \u03b1,\u03b1,\u03b1\u2032,\u03b1\u2032-tetrabromo-", "1,4-Bis(dibromomethyl)benzene", "\u03c9,\u03c9,\u03c9\u2032,\u03c9\u2032-Tetrabromo-p-xylene", "\u03b1,\u03b1,\u03b1\u2032,\u03b1\u2032-Tetrabromo-p-xylene", "NSC 30633", "1,4-Di(dibromomethyl)benzene"], "SMILES": "C(Br)(Br)C1=CC=C(C(Br)Br)C=C1", "physical_data": {"Molecular Weight": "421.75", "Molecular Formula": "C8H6Br4", "Melting Point": "169 \u00b0C"}}