{"cas_no": "1592-20-7", "cn_name": "4-\u6c2f\u7532\u57fa\u82ef\u4e59\u70ef", "en_name": ["4-Vinylbenzyl chloride", "Benzene, 1-(chloromethyl)-4-ethenyl-", "Styrene, p-(chloromethyl)-", "1-(Chloromethyl)-4-ethenylbenzene", "p-Vinylbenzyl chloride", "p-(Chloromethyl)styrene", "4-Vinylbenzyl chloride", "4-(Chloromethyl)styrene", "CMS 14", "1-(Chloromethyl)-4-vinylbenzene", "Ethanol, 2-[[(4-ethenylphenyl)methyl]amino]-, compd. with ethenylbenzene (1:1)"], "SMILES": "C(=C)C1=CC=C(CCl)C=C1", "physical_data": {"Molecular Weight": "152.62", "Molecular Formula": "C9H9Cl", "Boiling Point": "77.5-79 \u00b0C @ Press: 2 Torr"}}