{"cas_no": "159275-17-9", "cn_name": "4-(\u6eb4\u7532\u57fa)\u54cc\u5576\u7532\u9178\u82c4\u916f", "en_name": ["1-Piperidinecarboxylic acid, 4-(bromomethyl)-, phenylmethyl ester", "1-Piperidinecarboxylic acid, 4-(bromomethyl)-, phenylmethyl ester", "N-Benzyloxycarbonyl-4-bromomethylpiperidine", "4-Bromomethylpiperidine-1-carboxylic acid benzyl ester", "1-Benzyloxycarbonyl-4-bromomethylpiperidine", "Benzyl 4-(bromomethyl)piperidine-1-carboxylate", "Phenylmethyl 4-(bromomethyl)-1-piperidinecarboxylate"], "SMILES": "C(OCC1=CC=CC=C1)(=O)N2CCC(CBr)CC2", "physical_data": {"Molecular Weight": "312.20", "Molecular Formula": "C14H18BrNO2", "Melting Point": "64 \u00b0C"}}