{"cas_no": "1592-38-7", "cn_name": "2-\u8418\u7532\u9187", "en_name": ["2-Naphthalenemethanol", "2-Naphthalenemethanol", "2-Naphthylmethanol", "\u03b2-Naphthylcarbinol", "2-(Hydroxymethyl)naphthalene", "2-Naphthylcarbinol", "2-Naphthylmethyl alcohol", "Naphthalen-2-ylmethanol", "\u03b2-(Hydroxymethyl)naphthalene", "NSC 408615", "2-Naphthylmethan-1-ol"], "SMILES": "C(O)C1=CC2=C(C=C1)C=CC=C2", "physical_data": {"Molecular Weight": "158.20", "Molecular Formula": "C11H10O", "Boiling Point": "178 \u00b0C", "Melting Point": "81.3 \u00b0C"}}