{"cas_no": "15936-81-9", "cn_name": "5-\u6eb4-7-\u7532\u57fa-1H\u5432\u54da", "en_name": ["5-Bromo-7-methyl-1H-indole", "1H-Indole, 5-bromo-7-methyl-", "Indole, 5-bromo-7-methyl-", "5-Bromo-7-methyl-1H-indole", "5-Bromo-7-methylindole"], "SMILES": "CC1=C2C(=CC(Br)=C1)C=CN2", "physical_data": {"Molecular Weight": "210.07", "Molecular Formula": "C9H8BrN", "Boiling Point": "165 \u00b0C @ Press: 0.1 Torr"}}