{"cas_no": "15937-07-2", "cn_name": "5,6-\u4e8c\u7532\u6c27\u57fa\u5432\u54da\u5549", "en_name": ["2,3-Dihydro-5,6-dimethoxy-1H-indole", "1H-Indole, 2,3-dihydro-5,6-dimethoxy-", "Indoline, 5,6-dimethoxy-", "2,3-Dihydro-5,6-dimethoxy-1H-indole", "5,6-Dimethoxyindoline"], "SMILES": "O(C)C=1C=C2C(=CC1OC)NCC2", "physical_data": {"Molecular Weight": "179.22", "Molecular Formula": "C10H13NO2", "Melting Point": "105 \u00b0C"}}