{"cas_no": "15933-07-0", "cn_name": "2-\u4e01\u916e\u9178\u4e59\u916f", "en_name": ["Ethyl 2-oxobutanoate", "Butanoic acid, 2-oxo-, ethyl ester", "Butyric acid, 2-oxo-, ethyl ester", "Ethyl 2-oxobutyrate", "Ethyl \u03b1-oxobutyrate", "Ethyl \u03b1-ketobutyrate", "Ethyl 3-methylpyruvate", "Ethyl 2-ketobutyrate", "Ethyl \u03b1-oxobutanoate", "Ethyl 2-oxobutanoate", "2-Oxobutanoic acid ethyl ester", "2-Oxobutyric acid ethyl ester"], "SMILES": "C(C(CC)=O)(OCC)=O", "physical_data": {"Molecular Weight": "130.14", "Molecular Formula": "C6H10O3", "Boiling Point": "140-145 \u00b0C @ Press: 0.4 Torr", "Density": "1.020 g/cm\u00b3 @ Temp: 20 \u00b0C"}}