{"cas_no": "15930-53-7", "cn_name": "6-\u6eb4-3,4-\u4e9a\u7532\u57fa\u4e8c\u6c27\u82ef\u7532\u919b", "en_name": ["6-Bromo-1,3-benzodioxole-5-carboxaldehyde", "1,3-Benzodioxole-5-carboxaldehyde, 6-bromo-", "Piperonal, 6-bromo-", "6-Bromo-1,3-benzodioxole-5-carboxaldehyde", "2-Bromo-4,5-(methylenedioxy)benzaldehyde", "6-Bromopiperonal", "6-Bromo-3,4-(methylenedioxy)benzaldehyde", "NSC 15639", "6-Bromobenzodioxole-5-carboxaldehyde", "6-Bromo-1,3-benzodioxol-5-carboxaldehyde", "6-Bromobenzo[d][1,3]dioxole-5-carboxaldehyde", "6-Bromo-3,4-methylenedioxybenzenecarboxaldehyde"], "SMILES": "C(=O)C=1C=C2C(=CC1Br)OCO2", "physical_data": {"Molecular Weight": "229.03", "Molecular Formula": "C8H5BrO3", "Melting Point": "129 \u00b0C"}}