{"cas_no": "15933-59-2", "cn_name": "\u56db\u7532\u57fa\u4e8c\u7845\u6c2e\u70f7", "en_name": ["Tetramethyldisilazane", "Silanamine, N-(dimethylsilyl)-1,1-dimethyl-", "Disilazane, 1,1,3,3-tetramethyl-", "N-(Dimethylsilyl)-1,1-dimethylsilanamine", "Tetramethyldisilazane", "1,1,3,3-Tetramethyldisilazane", "Bis(dimethylsilyl)amine", "1,3-Dihydrido-1,1,3,3-tetramethyldisilazane", "TMDS", "NSC 139849", "LS 7050", "[(Dimethylsilylamino)-methylsilyl]methane"], "SMILES": "N([SiH](C)C)[SiH](C)C", "physical_data": {"Molecular Weight": "133.34", "Molecular Formula": "C4H15NSi2", "Boiling Point": "99-100 \u00b0C", "Density": "0.766 g/cm\u00b3"}}