{"cas_no": "1593-77-7", "cn_name": "\u5417\u83cc\u7075,\u5341\u4e8c\u73af\u5417\u5549", "en_name": ["Dodemorph", "Morpholine, 4-cyclododecyl-2,6-dimethyl-", "Cyclododecane, morpholine deriv.", "4-Cyclododecyl-2,6-dimethylmorpholine", "Dodemorph", "Meltatox", "Doazine"], "SMILES": "CC1CN(CC(C)O1)C2CCCCCCCCCCC2", "physical_data": {"Molecular Weight": "281.48", "Molecular Formula": "C18H35NO", "Boiling Point": "190 \u00b0C", "Melting Point": "71 \u00b0C"}}