{"cas_no": "15945-07-0", "cn_name": "2,4,5-\u4e09\u6c2f\u82ef\u78fa\u9170\u6c2f", "en_name": ["2,4,5-Trichlorobenzenesulfonyl chloride", "Benzenesulfonyl chloride, 2,4,5-trichloro-", "2,4,5-Trichlorobenzenesulfonyl chloride", "2,4,5-Trichlorophenylsulfonyl chloride", "NSC 26958", "2,4,5-Trichlorobenzene-1-sulfonyl chloride"], "SMILES": "S(Cl)(=O)(=O)C1=C(Cl)C=C(Cl)C(Cl)=C1", "physical_data": {"Molecular Weight": "279.96", "Molecular Formula": "C6H2Cl4O2S", "Boiling Point": "138 \u00b0C @ Press: 0.5 Torr", "Melting Point": "65-67 \u00b0C"}}