{"cas_no": "1594-57-6", "cn_name": "4-\u5421\u5576\u57fa\u5055\u80fa\u809f", "en_name": ["N-Hydroxyisonicotinamidine", "4-Pyridinecarboximidamide, N-hydroxy-", "Isonicotinamidoxime", "N-Hydroxy-4-pyridinecarboximidamide", "Pyridine-4-amidoxime", "4-Pyridinecarboxamide oxime", "4-Pyridinecarboxamidoxime", "N-Hydroxyisonicotinamidine", "NSC 43969", "Isonicotinamide oxime", "N\u2032-Hydroxypyridine-4-carboximidamide", "N\u2032-Hydroxyisonicotinimidamide"], "SMILES": "C(NO)(=N)C=1C=CN=CC1", "physical_data": {"Molecular Weight": "137.14", "Molecular Formula": "C6H7N3O", "Melting Point": "178-179 \u00b0C"}}