{"cas_no": "15948-19-3", "cn_name": "1,3-\u4e8c\u4e59\u70ef\u57fa-1,3-\u4e8c\u7532\u57fa-1,3-\u4e8c\u6c2f\u4e8c\u7845\u6c27\u70f7", "en_name": ["1,3-Dichloro-1,3-diethenyl-1,3-dimethyldisiloxane", "Disiloxane, 1,3-dichloro-1,3-diethenyl-1,3-dimethyl-", "Disiloxane, 1,3-dichloro-1,3-dimethyl-1,3-divinyl-", "1,3-Dichloro-1,3-diethenyl-1,3-dimethyldisiloxane", "1,3-Dichloro-1,3-dimethyl-1,3-divinyldisiloxane", "1,3-Divinyl-1,3-dimethyl-1,3-dichlorodisiloxane"], "SMILES": "O([Si](C=C)(C)Cl)[Si](C=C)(C)Cl", "physical_data": {"Molecular Weight": "227.24", "Molecular Formula": "C6H12Cl2OSi2", "Boiling Point": "67 \u00b0C @ Press: 16 Torr", "Density": "0.8517 g/cm\u00b3 @ Temp: 20 \u00b0C"}}