{"cas_no": "1594-56-5", "cn_name": "\u4e8c\u785d\u6563", "en_name": ["2,4-Dinitrophenyl thiocyanate", "Thiocyanic acid, 2,4-dinitrophenyl ester", "Benzene, 2,4-dinitro-1-thiocyanato-", "2317W", "2,4-Dinitrophenyl thiocyanate", "2,4-Dinitro-1-thiocyanobenzene", "DNRB", "Nirit", "Rodatox 60", "Grzybol", "2,4-Dinitrothiocyanatobenzene", "Nirit Supra", "RDNB", "Rhodandinitrobenzol", "NBT (pesticide)", "NBT", "DNTB", "NSC 540", "[(2,4-Dinitrophenyl)sulfanyl]formonitrile"], "SMILES": "N(=O)(=O)C1=C(SC#N)C=CC(N(=O)=O)=C1", "physical_data": {"Molecular Weight": "225.18", "Molecular Formula": "C7H3N3O4S", "Melting Point": "138-139 \u00b0C"}}