{"cas_no": "15950-66-0", "cn_name": "2,3,4-\u4e09\u6c2f\u82ef\u915a", "en_name": ["2,3,4-Trichlorophenol", "Phenol, 2,3,4-trichloro-", "2,3,4-Trichlorophenol"], "SMILES": "ClC1=C(Cl)C(O)=CC=C1Cl", "physical_data": {"Molecular Weight": "197.45", "Molecular Formula": "C6H3Cl3O", "Melting Point": "83.5 \u00b0C"}}