{"cas_no": "15962-46-6", "cn_name": "N-\u4e59\u9170-DL-\u82ef\u57fa\u7518\u6c28\u9178", "en_name": ["N-Acetyl-DL-phenylglycine", "Benzeneacetic acid, \u03b1-(acetylamino)-", "Glycine, N-acetyl-2-phenyl-, DL-", "\u03b1-(Acetylamino)benzeneacetic acid", "N-Acetyl-DL-phenylglycine", "N-Acetyl-DL-2-phenylglycine", "N-Acetyl-(RS)-2-phenylglycine", "DL-N-Acetyl-2-phenylglycine", "N-Acetylphenylglycine", "N-Acetyl-2-phenylglycine", "N-Acetyl-\u03b1-phenylglycine", "2-Acetamido-2-phenylacetic acid"], "SMILES": "C(NC(C)=O)(C(O)=O)C1=CC=CC=C1", "physical_data": {"Molecular Weight": "193.20", "Molecular Formula": "C10H11NO3", "Melting Point": "190 \u00b0C"}}