{"cas_no": "15968-05-5", "cn_name": "2,2',6,6'-\u56db\u6c2f\u8054\u82ef", "en_name": ["2,2\u2032,6,6\u2032-Tetrachlorobiphenyl", "1,1\u2032-Biphenyl, 2,2\u2032,6,6\u2032-tetrachloro-", "Biphenyl, 2,2\u2032,6,6\u2032-tetrachloro-", "2,2\u2032,6,6\u2032-Tetrachloro-1,1\u2032-biphenyl", "2,2\u2032,6,6\u2032-Tetrachlorobiphenyl", "2,6,2\u2032,6\u2032-Tetrachlorobiphenyl", "PCB 54"], "SMILES": "ClC1=C(C(Cl)=CC=C1)C2=C(Cl)C=CC=C2Cl", "physical_data": {"Molecular Weight": "291.99", "Molecular Formula": "C12H6Cl4", "Melting Point": "198 \u00b0C"}}