{"cas_no": "1596-64-1", "cn_name": "L-\u7ec4\u6c28\u9187\u4e8c\u76d0\u9178\u76d0", "en_name": ["L-Histidinol dihydrochloride", "1H-Imidazole-5-propanol, \u03b2-amino-, hydrochloride (1:2), (\u03b2S)-", "Imidazole-4-propanol, \u03b2-amino-, dihydrochloride, L-", "1H-Imidazole-4-propanol, \u03b2-amino-, dihydrochloride, (S)-", "1H-Imidazole-4-propanol, \u03b2-amino-, dihydrochloride, (\u03b2S)-", "L-Histidinol dihydrochloride", "L-(-)-Histidinoldihydrochloride", "(S)-Histidinol dihydrochloride", "(S)-2-Amino-3-(1H-imidazol-4-yl)propan-1-ol dihydrochloride", "(2S)-2-Amino-3-(1H-imidazol-4-yl)propan-1-ol dihydrochloride"], "SMILES": "C(C(CO)N)C1=CN=CN1.Cl", "physical_data": {"Molecular Weight": "", "Molecular Formula": "C6H11N3O.2ClH", "Melting Point": "193-195 \u00b0C"}}