{"cas_no": "15964-79-1", "cn_name": "3,4-\u4e8c\u7532\u6c27\u57fa\u82ef\u4e59\u9178\u7532\u916f", "en_name": ["Methyl 2-(3,4-dimethoxyphenyl)acetate", "Benzeneacetic acid, 3,4-dimethoxy-, methyl ester", "Acetic acid, (3,4-dimethoxyphenyl)-, methyl ester", "Methyl (3,4-dimethoxyphenyl)acetate", "Methyl 2-(3,4-dimethoxyphenyl)acetate", "Methyl homoveratrate", "Homoveratric acid methyl ester", "3,4-Dimethoxyphenylacetic acid methyl ester", "2-(3,4-Dimethoxyphenyl)ethanoic acid methyl ester"], "SMILES": "O(C)C1=C(OC)C=C(CC(OC)=O)C=C1", "physical_data": {"Molecular Weight": "210.23", "Molecular Formula": "C11H14O4", "Boiling Point": "175 \u00b0C @ Press: 15 Torr"}}