{"cas_no": "15969-09-2", "cn_name": "2,4-\u4e8c\u6eb4-6-\u785d\u57fa\u82ef\u915a", "en_name": ["2,4-Dibromo-6-nitrophenol", "Phenol, 2,4-dibromo-6-nitro-", "2,4-Dibromo-6-nitrophenol", "2-Nitro-4,6-dibromophenol", "4,6-Dibromo-2-nitrophenol", "NSC 523891"], "SMILES": "N(=O)(=O)C1=C(O)C(Br)=CC(Br)=C1", "physical_data": {"Molecular Weight": "296.90", "Molecular Formula": "C6H3Br2NO3", "Melting Point": "117 \u00b0C"}}