{"cas_no": "1596-67-4", "cn_name": "L-\u7532\u72b6\u817a\u6c28\u9178", "en_name": ["L-Thyronine", "L-Tyrosine, O-(4-hydroxyphenyl)-", "Thyronine, L-", "O-(4-Hydroxyphenyl)-L-tyrosine", "L-Thyronine", "Thyronine", "Desiodothyroxine", "\u03b2-(p-Hydroxyphenoxy)phenylalanine", "O-(4-Hydroxyphenyl)tyrosine"], "SMILES": "O(C1=CC=C(CC(C(O)=O)N)C=C1)C2=CC=C(O)C=C2", "physical_data": {"Molecular Weight": "273.28", "Molecular Formula": "C15H15NO4", "Melting Point": "255 \u00b0C (decomp)"}}