{"cas_no": "15965-31-8", "cn_name": "4-\u6c2f\u54aa\u5511", "en_name": ["5-Chloro-1H-imidazole", "1H-Imidazole, 5-chloro-", "Imidazole, 4-chloro-", "1H-Imidazole, 4-chloro-", "5-Chloro-1H-imidazole", "5-Chloroimidazole", "4-Chloroimidazole", "NSC 222413", "4-Chloro-1H-imidazole"], "SMILES": "ClC1=CN=CN1", "physical_data": {"Molecular Weight": "102.52", "Molecular Formula": "C3H3ClN2", "Melting Point": "120-121 \u00b0C"}}