{"cas_no": "1596-84-5", "cn_name": "\u4e01\u9170\u80bc", "en_name": ["Daminozide", "Butanedioic acid, 1-(2,2-dimethylhydrazide)", "Succinic acid, mono(2,2-dimethylhydrazide)", "Butanedioic acid, mono(2,2-dimethylhydrazide)", "B 995", "N-(Dimethylamino)succinamic acid", "DMASA", "Alar", "B-Nine", "Succinic acid 2,2-dimethylhydrazide", "Aminozide", "Alar 85", "SADH", "Kylar", "Aminozid", "Daminozide", "Succinic acid N,N-dimethylhydrazide", "Succinic N\u2032,N\u2032-dimethylhydrazide", "Dimas", "DYaK", "DIMG", "Dazide", "Bijiu"], "SMILES": "C(CCC(O)=O)(NN(C)C)=O", "physical_data": {"Molecular Weight": "160.17", "Molecular Formula": "C6H12N2O3", "Melting Point": "154-155 \u00b0C"}}