{"cas_no": "15971-29-6", "cn_name": "4-\u7532\u6c27\u57fa-1-\u8418\u7532\u919b", "en_name": ["4-Methoxy-1-naphthaldehyde", "1-Naphthalenecarboxaldehyde, 4-methoxy-", "1-Naphthaldehyde, 4-methoxy-", "4-Methoxy-1-naphthalenecarboxaldehyde", "4-Methoxy-1-naphthaldehyde", "4-Methoxy-1-naphthylaldehyde", "NSC 97025", "4-Formyl-1-methoxynaphthalene", "1-(4-Methoxy)naphthaldehyde", "4-Methoxynaphthalene-1-carbaldehyde"], "SMILES": "C(=O)C=1C2=C(C(OC)=CC1)C=CC=C2", "physical_data": {"Molecular Weight": "186.21", "Molecular Formula": "C12H10O2", "Boiling Point": "200-202 \u00b0C @ Press: 10 Torr", "Melting Point": "34.8 \u00b0C"}}