{"cas_no": "15972-60-8", "cn_name": "\u7532\u8349\u80fa", "en_name": ["Alachlor", "Acetamide, 2-chloro-N-(2,6-diethylphenyl)-N-(methoxymethyl)-", "Acetanilide, 2-chloro-2\u2032,6\u2032-diethyl-N-(methoxymethyl)-", "2-Chloro-N-(2,6-diethylphenyl)-N-(methoxymethyl)acetamide", "CP 50144", "Lasso", "2-Chloro-2\u2032,6\u2032-diethyl-N-methoxymethylacetanilide", "2\u2032,6\u2032-Diethyl-N-(methoxymethyl)-2-chloroacetanilide", "Alachlor", "Metachlor", "Methachlor", "Lasagrin", "Nitala", "Alapaz", "Satochlor", "Lazo", "Perfect", "Micro-Tech", "Alanex", "Perfect (herbicide)", "Lasso Microtech", "Intrro"], "SMILES": "N(C(CCl)=O)(COC)C1=C(CC)C=CC=C1CC", "physical_data": {"Molecular Weight": "269.77", "Molecular Formula": "C14H20ClNO2", "Boiling Point": "100 \u00b0C", "Melting Point": "40-41 \u00b0C", "Density": "1.133 g/cm\u00b3 @ Temp: 25 \u00b0C"}}