{"cas_no": "1597-82-6", "cn_name": "\u5e15\u62c9\u7c73\u677e\u4e59\u9178\u916f", "en_name": ["Paramethasone acetate", "Pregna-1,4-diene-3,20-dione, 21-(acetyloxy)-6-fluoro-11,17-dihydroxy-16-methyl-, (6\u03b1,11\u03b2,16\u03b1)-", "Pregna-1,4-diene-3,20-dione, 6\u03b1-fluoro-11\u03b2,17,21-trihydroxy-16\u03b1-methyl-, 21-acetate", "(6\u03b1,11\u03b2,16\u03b1)-21-(Acetyloxy)-6-fluoro-11,17-dihydroxy-16-methylpregna-1,4-diene-3,20-dione", "6\u03b1-Fluoro-16\u03b1-methylprednisolone 21-acetate", "6\u03b1-Fluoro-11\u03b2,17,21-trihydroxy-16\u03b1-methylpregna-1,4-diene-3,20-dione 21-acetate", "Haldrone", "16\u03b1-Methyl-6\u03b1-fluoroprednisolone 21-acetate", "Monocortin", "Paramethasone 21-acetate", "Paramethasone acetate", "21-Acetyl-6\u03b1-fluoro-16\u03b1-methylprednisolone", "21-Acetoxy-6\u03b1-fluoro-11\u03b2,17-dihydroxy-16\u03b1-methylpregna-1,4-diene-3,20-dione", "Alondra", "Cortidene", "Stemex", "Dilar", "Dillar", "Flumethone", "Haldrate", "Syntecort", "Paramezone", "Metilar"], "SMILES": "CC12C(C3C(C(O)C1)C4(C)C(C(F)C3)=CC(=O)C=C4)CC(C)C2(C(COC(C)=O)=O)O", "physical_data": {"Molecular Weight": "434.50", "Molecular Formula": "C24H31FO6", "Melting Point": "228-241 \u00b0C (decomp)"}}