{"cas_no": "1597-78-0", "cn_name": "\u5730\u585e\u7c73\u677e\u916e\u6742\u8d28G", "en_name": ["21-Acetoxy-9-fluoro-11\u03b2-hydroxy-16\u03b1-methylpregna-1,4-diene-3,20-dione", "Pregna-1,4-diene-3,20-dione, 21-(acetyloxy)-9-fluoro-11-hydroxy-16-methyl-, (11\u03b2,16\u03b1)-", "Pregna-1,4-diene-3,20-dione, 9-fluoro-11\u03b2,21-dihydroxy-16\u03b1-methyl-, 21-acetate", "Pregna-1,4-diene-3,20-dione, 9\u03b1-fluoro-11\u03b2,21-dihydroxy-16\u03b1-methyl-, 21-acetate", "(11\u03b2,16\u03b1)-21-(Acetyloxy)-9-fluoro-11-hydroxy-16-methylpregna-1,4-diene-3,20-dione", "9\u03b1-Fluoro-16\u03b1-methylpregna-1,4-diene-11\u03b2,21-diol-3,20-dione-21-acetate", "21-Acetoxy-9-fluoro-11\u03b2-hydroxy-16\u03b1-methylpregna-1,4-diene-3,20-dione"], "SMILES": "FC12C(C3C(C)(CC1O)C(C(COC(C)=O)=O)C(C)C3)CCC=4C2(C)C=CC(=O)C4", "physical_data": {"Molecular Weight": "418.50", "Molecular Formula": "C24H31FO5", "Melting Point": "254 \u00b0C"}}