{"cas_no": "15981-91-6", "cn_name": "2-\u6c28\u57fa-5-\u7532\u57fa-4-\u5627\u5576\u9187", "en_name": ["2-Amino-5-methyl-4(3H)-pyrimidinone", "4(3H)-Pyrimidinone, 2-amino-5-methyl-", "4(1H)-Pyrimidinone, 2-amino-5-methyl-", "2-Amino-5-methyl-4(3H)-pyrimidinone", "5-Methylisocytosine", "2-amino-5-methyl-4(1H)-pyrimidinone", "NSC 60208", "2-Amino-5-methylpyrimidin-4-ol", "2-Amino-5-methylpyrimidin-4-one", "2-Amino-5-methyl-3,4-dihydropyrimidin-4-one", "2-Amino-5-methyl-1H-pyrimidin-6-one"], "SMILES": "O=C1C(C)=CN=C(N)N1", "physical_data": {"Molecular Weight": "125.13", "Molecular Formula": "C5H7N3O", "Melting Point": "277-279 \u00b0C"}}