{"cas_no": "15987-00-5", "cn_name": "2-\u4e01\u57fa-3-\u7532\u57fa\u5421\u55ea", "en_name": ["2-Butyl-3-methylpyrazine", "Pyrazine, 2-butyl-3-methyl-", "2-Butyl-3-methylpyrazine", "2-Methyl-3-butylpyrazine"], "SMILES": "C(CCC)C=1C(C)=NC=CN1", "physical_data": {"Molecular Weight": "150.22", "Molecular Formula": "C9H14N2", "Boiling Point": "97-99 \u00b0C @ Press: 18 Torr"}}