{"cas_no": "15988-11-1", "cn_name": "4-\u82ef\u57fa\u8132\u5511", "en_name": ["4-Phenyl-1,2,4-triazolidine-3,5-dione", "1,2,4-Triazolidine-3,5-dione, 4-phenyl-", "Bicarbamimide, N-phenyl-", "4-Phenyl-1,2,4-triazolidine-3,5-dione", "4-Phenylurazole", "NSC 93432"], "SMILES": "O=C1N(C(=O)NN1)C2=CC=CC=C2", "physical_data": {"Molecular Weight": "177.16", "Molecular Formula": "C8H7N3O2", "Melting Point": "202-203 \u00b0C"}}