{"cas_no": "15980-15-1", "cn_name": "1,4-\u567b\u6076\u70f7", "en_name": ["1,4-Oxathiane", "1,4-Oxathiane", "1,4-Oxathiin, 2,3,5,6-tetrahydro-", "1,4-Thioxane", "p-Thioxane", "1-Oxa-4-thiacyclohexane", "1-Thia-4-oxacyclohexane", "NSC 49179"], "SMILES": "C1CSCCO1", "physical_data": {"Molecular Weight": "104.17", "Molecular Formula": "C4H8OS", "Boiling Point": "147 \u00b0C", "Melting Point": "30 \u00b0C", "Density": "1.11775 g/cm\u00b3 @ Temp: 20 \u00b0C"}}