{"cas_no": "15986-80-8", "cn_name": "2-\u7532\u57fa-3-\u4e19\u57fa\u5421\u55ea", "en_name": ["2-Methyl-3-propylpyrazine", "Pyrazine, 2-methyl-3-propyl-", "2-Methyl-3-propylpyrazine", "3-Propyl-2-methylpyrazine", "2-Propyl-3-methylpyrazine"], "SMILES": "C(CC)C=1C(C)=NC=CN1", "physical_data": {"Molecular Weight": "136.19", "Molecular Formula": "C8H12N2", "Boiling Point": "189 \u00b0C"}}