{"cas_no": "1599-67-3", "cn_name": "1-\u4e8c\u5341\u4e8c\u70ef", "en_name": ["1-Docosene", "1-Docosene", "NSC 78486"], "SMILES": "C(CCCCCCCCCC=C)CCCCCCCCCC", "physical_data": {"Molecular Weight": "308.58", "Molecular Formula": "C22H44", "Boiling Point": "367 \u00b0C", "Melting Point": "38 \u00b0C"}}