{"cas_no": "159922-68-6", "cn_name": "4-\u7532\u6c27\u82ef\u57fa-2,6-\u4e8c-O-\u82c4\u57fa-3,4-O-\u5f02\u4e9a\u4e19\u57fa-\u0392-D-\u5421\u5583\u534a\u4e73\u7cd6\u82f7", "en_name": ["4-Methoxyphenyl 3,4-O-(1-methylethylidene)-2,6-bis-O-(phenylmethyl)-\u03b2-D-galactopyranoside", "\u03b2-D-Galactopyranoside, 4-methoxyphenyl 3,4-O-(1-methylethylidene)-2,6-bis-O-(phenylmethyl)-", "4-Methoxyphenyl 3,4-O-(1-methylethylidene)-2,6-bis-O-(phenylmethyl)-\u03b2-D-galactopyranoside"], "SMILES": "O(CC1=CC=CC=C1)C2C3C(C(COCC4=CC=CC=C4)OC2OC5=CC=C(OC)C=C5)OC(C)(C)O3", "physical_data": {"Molecular Weight": "506.59", "Molecular Formula": "C30H34O7", "Melting Point": "104-106 \u00b0C"}}