{"cas_no": "159991-23-8", "cn_name": "(R)-3-(BOC-\u6c28\u57fa)\u4e01\u9178", "en_name": ["(3R)-3-[[(1,1-Dimethylethoxy)carbonyl]amino]butanoic acid", "Butanoic acid, 3-[[(1,1-dimethylethoxy)carbonyl]amino]-, (3R)-", "Butanoic acid, 3-[[(1,1-dimethylethoxy)carbonyl]amino]-, (R)-", "(3R)-3-[[(1,1-Dimethylethoxy)carbonyl]amino]butanoic acid", "(R)-3-[[(1,1-Dimethylethoxy)carbonyl]amino]butanoic acid", "(R)-3-(tert-Butoxycarbonylamino)butanoic acid", "(3R)-3-[(tert-Butoxycarbonyl)amino]butanoic acid", "(R)-3-tert-Butoxycarbonylamino-butyric acid", "(R)-3-(tert-Butoxycarbonylamino)butanoic acid", "N-Boc-(R)-3-aminobutanoic acid", "(3R)-3-[(2-Methylpropan-2-yl)oxycarbonylamino]butanoic acid"], "SMILES": "C(NC(CC(O)=O)C)(OC(C)(C)C)=O", "physical_data": {"Molecular Weight": "203.24", "Molecular Formula": "C9H17NO4", "Melting Point": "104-107 \u00b0C"}}