{"cas_no": "1599-47-9", "cn_name": "\u5df1\u919b\u800c\u7532\u57fa\u4e59\u7f29\u919b", "en_name": ["1,1-Dimethoxyhexane", "Hexane, 1,1-dimethoxy-", "Hexanal, dimethyl acetal", "1,1-Dimethoxyhexane", "Caproaldehyde dimethyl acetal"], "SMILES": "C(CCCCC)(OC)OC", "physical_data": {"Molecular Weight": "146.23", "Molecular Formula": "C8H18O2", "Boiling Point": "158 \u00b0C", "Density": "0.846 g/cm\u00b3 @ Temp: 21 \u00b0C"}}