{"cas_no": "159989-64-7", "cn_name": "\u7532\u78fa\u9178\u8418\u975e\u90a3\u97e6", "en_name": ["Nelfinavir", "3-Isoquinolinecarboxamide, N-(1,1-dimethylethyl)decahydro-2-[(2R,3R)-2-hydroxy-3-[(3-hydroxy-2-methylbenzoyl)amino]-4-(phenylthio)butyl]-, (3S,4aS,8aS)-", "3-Isoquinolinecarboxamide, N-(1,1-dimethylethyl)decahydro-2-[2-hydroxy-3-[(3-hydroxy-2-methylbenzoyl)amino]-4-(phenylthio)butyl]-, [3S-[2(2S*,3S*),3\u03b1,4a\u03b2,8a\u03b2]]-", "(3S,4aS,8aS)-N-(1,1-Dimethylethyl)decahydro-2-[(2R,3R)-2-hydroxy-3-[(3-hydroxy-2-methylbenzoyl)amino]-4-(phenylthio)butyl]-3-isoquinolinecarboxamide", "Nelfinavir", "AG 1341", "MeSH ID: D019888"], "SMILES": "C(NC(C)(C)C)(=O)C1N(CC(C(NC(=O)C2=C(C)C(O)=CC=C2)CSC3=CC=CC=C3)O)CC4C(C1)CCCC4", "physical_data": {"Molecular Weight": "567.78", "Molecular Formula": "C32H45N3O4S", "Melting Point": "185-186 \u00b0C"}}