{"cas_no": "16002-29-2", "cn_name": "\u786b\u4ee3\u4e8c\u4e59\u9178\u4e8c\u7532\u916f", "en_name": ["1,1\u2032-Dimethyl 2,2\u2032-thiobis[acetate]", "Acetic acid, 2,2\u2032-thiobis-, 1,1\u2032-dimethyl ester", "Acetic acid, thiodi-, dimethyl ester", "Acetic acid, 2,2\u2032-thiobis-, dimethyl ester", "1,1\u2032-Dimethyl 2,2\u2032-thiobis[acetate]", "Dimethyl thiodiacetate", "Dimethyl thiodiglycolate"], "SMILES": "C(SCC(OC)=O)C(OC)=O", "physical_data": {"Molecular Weight": "178.21", "Molecular Formula": "C6H10O4S", "Boiling Point": "130 \u00b0C @ Press: 15 Torr"}}