{"cas_no": "1600-27-7", "cn_name": "\u4e59\u9178\u6c5e", "en_name": ["Mercuric acetate", "Acetic acid, mercury(2+) salt (2:1)", "Acetic acid, mercury(2+) salt", "Acetic acid, mercuridi-", "Mercuric acetate", "Mercury acetate", "Mercury acetate (Hg(O2C2H3)2)", "Mercury(2+) acetate", "Mercury diacetate", "Mercury(II) acetate", "Mercuric diacetate", "Diacetoxymercury", "Bis(acetyloxy)mercury", "Mercuric(II) acetate", "Mercury(II) diacetate"], "SMILES": "C(C)(O)=O.[Hg]", "physical_data": {"Molecular Weight": "", "Molecular Formula": "C2H4O2.<sup>1</sup>/2Hg", "Melting Point": "179 \u00b0C (decomp)", "Density": "3.28 g/cm\u00b3"}}