{"cas_no": "16004-77-6", "cn_name": "1,3,5,7-\u56db\u6c28\u57fa\u91d1\u521a\u70f7", "en_name": ["Tricyclo[3.3.1.13,7]decane-1,3,5,7-tetramine", "Tricyclo[3.3.1.13,7]decane-1,3,5,7-tetramine", "1,3,5,7-Adamantanetetramine", "1,3,5,7-Tetraaminoadamantane"], "SMILES": "NC12CC3(N)CC(N)(C1)CC(N)(C2)C3", "physical_data": {"Molecular Weight": "196.29", "Molecular Formula": "C10H20N4", "Melting Point": "193-195 \u00b0C"}}