{"cas_no": "160003-66-7", "cn_name": "3-\u785d\u57fa-4-\u7898\u82ef\u7532\u9170\u80fa", "en_name": ["Iniparib", "Benzamide, 4-iodo-3-nitro-", "4-Iodo-3-nitrobenzamide", "Iniparib", "BSI 201", "SML 0623", "SAR240550"], "SMILES": "N(=O)(=O)C1=CC(C(N)=O)=CC=C1I", "physical_data": {"Molecular Weight": "292.03", "Molecular Formula": "C7H5IN2O3", "Melting Point": "155-156 \u00b0C"}}