{"cas_no": "16004-15-2", "cn_name": "4-\u7898\u82c4\u57fa\u6eb4", "en_name": ["4-Iodobenzyl bromide", "Benzene, 1-(bromomethyl)-4-iodo-", "Toluene, \u03b1-bromo-p-iodo-", "1-(Bromomethyl)-4-iodobenzene", "p-Iodobenzyl bromide", "4-Iodobenzyl bromide", "\u03b1-Bromo-p-iodotoluene"], "SMILES": "C(Br)C1=CC=C(I)C=C1", "physical_data": {"Molecular Weight": "296.93", "Molecular Formula": "C7H6BrI", "Boiling Point": "200-205 \u00b0C @ Press: 4 Torr", "Melting Point": "77-78.5 \u00b0C"}}