{"cas_no": "160096-59-3", "cn_name": "DIMETHOXYCURCUMIN", "en_name": ["Dimethoxycurcumin", "1,6-Heptadiene-3,5-dione, 1,7-bis(3,4-dimethoxyphenyl)-, (1E,6E)-", "1,6-Heptadiene-3,5-dione, 1,7-bis(3,4-dimethoxyphenyl)-, (E,E)-", "(1E,6E)-1,7-Bis(3,4-dimethoxyphenyl)-1,6-heptadiene-3,5-dione", "CHC 004", "Dimethoxycurcumin", "Di-O-methylcurcumin", "ASCJ 9"], "SMILES": "O(C)C1=C(OC)C=CC(C=CC(CC(C=CC2=CC(OC)=C(OC)C=C2)=O)=O)=C1", "physical_data": {"Molecular Weight": "396.43", "Molecular Formula": "C23H24O6", "Melting Point": "130-131 \u00b0C"}}