{"cas_no": "1600-44-8", "cn_name": "\u56db\u7532\u57fa\u4e9a\u781c", "en_name": ["Tetramethylene sulfoxide", "Thiophene, tetrahydro-, 1-oxide", "Tetrahydrothiophene 1-oxide", "Tetramethylene sulfoxide", "Thiophane oxide", "Tetrahydrothiophene oxide", "Thiophane monoxide", "Thiophane 1-oxide", "Tetrahydrothiophene sulfoxide", "Tetrahydrothiophene S-oxide", "Thiolane 1-oxide", "Thiolane sulfoxide", "NSC 65433", "TMSO", "1-Oxo-tetrahydrothiophene", "Tetrahydrothiophene-1-monoxide", "1\u03bb4-Thiolan-1-one", "tetrahydrothiophene 1-oxide"], "SMILES": "O=S1CCCC1", "physical_data": {"Molecular Weight": "104.17", "Molecular Formula": "C4H8OS", "Boiling Point": "105-107 \u00b0C @ Press: 12 Torr"}}