{"cas_no": "16019-33-3", "cn_name": "4,6-\u4e8c\u6c2f\u5627\u5576-5-\u4e59\u919b", "en_name": ["(4,6-Dichloropyrimidin-5-yl)acetaldehyde", "5-Pyrimidineacetaldehyde, 4,6-dichloro-", "4,6-Dichloro-5-pyrimidineacetaldehyde", "2-(4,6-Dichloro-5-pyrimidinyl)acetaldehyde", "(4,6-Dichloropyrimidin-5-yl)acetaldehyde"], "SMILES": "C(C=O)C=1C(Cl)=NC=NC1Cl", "physical_data": {"Molecular Weight": "191.01", "Molecular Formula": "C6H4Cl2N2O", "Melting Point": "89-91 \u00b0C"}}