{"cas_no": "16012-70-7", "cn_name": "Z-ALA-ALA-OH", "en_name": ["N-[(Phenylmethoxy)carbonyl]-L-alanyl-L-alanine", "L-Alanine, N-[(phenylmethoxy)carbonyl]-L-alanyl-", "Alanine, N-(N-carboxy-L-alanyl)-, N-benzyl ester, L-", "L-Alanine, N-[N-[(phenylmethoxy)carbonyl]-L-alanyl]-", "Alanine, N-(N-carboxyalanyl)-, N-benzyl ester", "N-[(Phenylmethoxy)carbonyl]-L-alanyl-L-alanine", "N-(Benzyloxycarbonyl)-L-alanyl-L-alanine", "Benzyloxycarbonyl-L-alanyl-L-alanine", "N-(Benzyloxycarbonyl)alanylalanine"], "SMILES": "C(OC(NC(C(NC(C(O)=O)C)=O)C)=O)C1=CC=CC=C1", "physical_data": {"Molecular Weight": "294.30", "Molecular Formula": "C14H18N2O5", "Melting Point": "136-140 \u00b0C"}}