{"cas_no": "16011-97-5", "cn_name": "N,N-\u4e8c\u7532\u57fa1,4-\u4e01\u70f7\u4e8c\u80fa", "en_name": ["N1,N4-Dimethyl-1,4-butanediamine", "1,4-Butanediamine, N1,N4-dimethyl-", "1,4-Butanediamine, N,N\u2032-dimethyl-", "N1,N4-Dimethyl-1,4-butanediamine", "N,N\u2032-Dimethyl-1,4-butanediamine", "N,N\u2032-Dimethyltetramethylenediamine", "N,N\u2032-Dimethylputrescine", "1,4-Bis(methylamino)butane", "N,N\u2032-Dimethylbutanediamine", "N,N\u2032-Dimethyl-1,4-diaminobutane", "1,4-Butanediamine N1,N4-dimethyl-"], "SMILES": "C(CCNC)CNC", "physical_data": {"Molecular Weight": "116.20", "Molecular Formula": "C6H16N2", "Boiling Point": "168 \u00b0C"}}