{"cas_no": "1601-98-5", "cn_name": "4,4-\u4e8c\u6eb4\u5076\u6c2e\u82ef", "en_name": ["4,4\u2032-Dibromoazobenzene", "Diazene, 1,2-bis(4-bromophenyl)-", "Azobenzene, 4,4\u2032-dibromo-", "Diazene, bis(4-bromophenyl)-", "1,2-Bis(4-bromophenyl)diazene", "4,4\u2032-Dibromoazobenzene", "NSC 86486"], "SMILES": "N(=NC1=CC=C(Br)C=C1)C2=CC=C(Br)C=C2", "physical_data": {"Molecular Weight": "340.01", "Molecular Formula": "C12H8Br2N2", "Melting Point": "204 \u00b0C"}}