{"cas_no": "1601-18-9", "cn_name": "1-(4-\u6c2f\u82ef\u7532\u9170\u57fa)-5-\u7532\u6c27\u57fa-2-\u7532\u57fa-1H-\u5432\u54da-3-\u4e59\u9178\u7532\u916f", "en_name": ["Methyl 1-(4-chlorobenzoyl)-5-methoxy-2-methyl-1H-indole-3-acetate", "1H-Indole-3-acetic acid, 1-(4-chlorobenzoyl)-5-methoxy-2-methyl-, methyl ester", "Indole-3-acetic acid, 1-(p-chlorobenzoyl)-5-methoxy-2-methyl-, methyl ester", "Methyl 1-(4-chlorobenzoyl)-5-methoxy-2-methyl-1H-indole-3-acetate", "Methyl N-(p-chlorobenzoyl)-2-methyl-5-methoxy-3-indolylacetate", "Methyl 1-(4-chlorobenzoyl)-5-methoxy-2-methylindole-3-acetate", "Indomethacin methyl ester", "L 588983", "Methyl 2-(1-(4-Chlorobenzoyl)-5-methoxy-2-methyl-1H-indol-3-yl)acetate", "Indometacin methylester"], "SMILES": "C(=O)(N1C=2C(C(CC(OC)=O)=C1C)=CC(OC)=CC2)C3=CC=C(Cl)C=C3", "physical_data": {"Molecular Weight": "371.81", "Molecular Formula": "C20H18ClNO4", "Melting Point": "99-100 \u00b0C"}}