{"cas_no": "16013-85-7", "cn_name": "2,6-\u4e8c\u6c2f-3-\u785d\u57fa\u5421\u5576", "en_name": ["2,6-Dichloro-3-nitropyridine", "Pyridine, 2,6-dichloro-3-nitro-", "2,6-Dichloro-3-nitropyridine"], "SMILES": "N(=O)(=O)C1=C(Cl)N=C(Cl)C=C1", "physical_data": {"Molecular Weight": "192.99", "Molecular Formula": "C5H2Cl2N2O2", "Melting Point": "53-55 \u00b0C"}}