{"cas_no": "16024-82-1", "cn_name": "2-\u5f02\u786b\u6c30\u57fa\u82ef\u7532\u9178\u7532\u916f", "en_name": ["Benzoic acid, 2-isothiocyanato-, methyl ester", "Benzoic acid, 2-isothiocyanato-, methyl ester", "Benzoic acid, o-isothiocyanato-, methyl ester", "Methyl 2-isothiocyanatobenzoate", "2-(Methoxycarbonyl)phenyl isothiocyanate", "2-Isothiocyanato-benzoic acid methyl ester"], "SMILES": "N(=C=S)C1=C(C(OC)=O)C=CC=C1", "physical_data": {"Molecular Weight": "193.22", "Molecular Formula": "C9H7NO2S", "Boiling Point": "100-102 \u00b0C @ Press: 0.35 Torr"}}