{"cas_no": "160232-08-6", "cn_name": "(1S,2R-(1-\u82c4\u57fa-2-\u7f9f\u57fa-3-(\u5f02\u4e01\u80fa)\u4e19\u57fa)\u6c28\u57fa\u7532\u9178\u53d4\u4e01\u916f", "en_name": ["1,1-Dimethylethyl N-[(1S,2R)-2-hydroxy-3-[(2-methylpropyl)amino]-1-(phenylmethyl)propyl]carbamate", "Carbamic acid, N-[(1S,2R)-2-hydroxy-3-[(2-methylpropyl)amino]-1-(phenylmethyl)propyl]-, 1,1-dimethylethyl ester", "Carbamic acid, [2-hydroxy-3-[(2-methylpropyl)amino]-1-(phenylmethyl)propyl]-, 1,1-dimethylethyl ester, [R-(R*,S*)]-", "Carbamic acid, [(1S,2R)-2-hydroxy-3-[(2-methylpropyl)amino]-1-(phenylmethyl)propyl]-, 1,1-dimethylethyl ester", "1,1-Dimethylethyl N-[(1S,2R)-2-hydroxy-3-[(2-methylpropyl)amino]-1-(phenylmethyl)propyl]carbamate", "tert-Butyl [(1S,2R)-1-benzyl-2-hydroxy-3-(isobutylamino)propyl]carbamate", "tert-Butyl [(2S,3R)-3-hydroxy-4-(isobutylamino)-1-phenylbutan-2-yl]carbamate"], "SMILES": "C(CC1=CC=CC=C1)(NC(OC(C)(C)C)=O)C(CNCC(C)C)O", "physical_data": {"Molecular Weight": "336.47", "Molecular Formula": "C19H32N2O3", "Melting Point": "145 \u00b0C"}}