{"cas_no": "16024-58-1", "cn_name": "2-(2-(2-\u7532\u6c27\u57fa\u4e59\u6c27\u57fa)\u4e59\u6c27\u57fa)\u4e59\u9178", "en_name": ["[2-(2-Methoxyethoxy)ethoxy]acetic acid", "Acetic acid, 2-[2-(2-methoxyethoxy)ethoxy]-", "Acetic acid, [2-(2-methoxyethoxy)ethoxy]-", "2-[2-(2-Methoxyethoxy)ethoxy]acetic acid", "3,6,9-Trioxadecanoic acid", "[2-(2-Methoxyethoxy)ethoxy]acetic acid", "8-Methoxy-3,6-dioxaoctanoic acid"], "SMILES": "C(COCCOC)OCC(O)=O", "physical_data": {"Molecular Weight": "178.18", "Molecular Formula": "C7H14O5", "Boiling Point": "155-156 \u00b0C @ Press: 4 Torr", "Density": "1.1492 g/cm\u00b3 @ Temp: 20 \u00b0C"}}