{"cas_no": "16029-98-4", "cn_name": "\u7898\u4ee3\u4e09\u7532\u7845\u70f7", "en_name": ["Trimethylsilyl iodide", "Silane, iodotrimethyl-", "Iodotrimethylsilane", "Trimethylsilyl iodide", "Trimethyliodosilane", "Trimethylsilicon iodide", "TMSI"], "SMILES": "[Si](C)(C)(C)I", "physical_data": {"Molecular Weight": "200.09", "Molecular Formula": "C3H9ISi", "Boiling Point": "106-107 \u00b0C", "Density": "1.470 g/cm\u00b3"}}