{"cas_no": "16024-56-9", "cn_name": "2-(2-\u7532\u6c27\u57fa\u4e59\u6c27\u57fa)\u4e59\u9178", "en_name": ["(2-Methoxyethoxy)acetic acid", "Acetic acid, 2-(2-methoxyethoxy)-", "Acetic acid, (2-methoxyethoxy)-", "2-(2-Methoxyethoxy)acetic acid", "(2-Methoxyethoxy)acetic acid", "3,6-Dioxaheptanoic acid", "NSC 127858"], "SMILES": "O(CC(O)=O)CCOC", "physical_data": {"Molecular Weight": "134.13", "Molecular Formula": "C5H10O4", "Boiling Point": "121-122 \u00b0C @ Press: 4 Torr", "Density": "1.1634 g/cm\u00b3 @ Temp: 20 \u00b0C"}}