{"cas_no": "1603-79-8", "cn_name": "\u82ef\u7532\u9170\u7532\u9178\u4e59\u916f", "en_name": ["Ethyl benzoylformate", "Benzeneacetic acid, \u03b1-oxo-, ethyl ester", "Glyoxylic acid, phenyl-, ethyl ester", "Ethyl phenylglyoxylate", "Ethyl benzoylformate", "Ethyl oxophenylacetate", "Ethyl 2-oxo-2-phenylacetate", "Ethyl \u03b1-oxobenzeneacetate", "Phenylglyoxylic acid ethyl ester", "\u03b1-Oxobenzeneacetic acid ethyl ester", "NSC 6766", "2-Oxo-2-phenylacetic acid ethyl ester", "Ethyl 2-phenyl-2-oxoacetate", "2-Phenyl-2-oxoacetic acid ethyl ester"], "SMILES": "C(C(OCC)=O)(=O)C1=CC=CC=C1", "physical_data": {"Molecular Weight": "178.18", "Molecular Formula": "C10H10O3", "Boiling Point": "256.5 \u00b0C", "Melting Point": "158 \u00b0C", "Density": "1.1255 g/cm\u00b3 @ Temp: 13.35 \u00b0C"}}