{"cas_no": "1603-91-4", "cn_name": "2-\u6c28\u57fa-4-\u7532\u57fa\u567b\u5511", "en_name": ["2-Amino-4-methylthiazole", "2-Thiazolamine, 4-methyl-", "Thiazole, 2-amino-4-methyl-", "4-Methyl-2-thiazolamine", "2-Amino-4-methylthiazole", "Normotiroide", "4-Methyl-2-aminothiazole", "4-Methyl-2-thiazolylamine", "4-Methyl-1,3-thiazol-2-amine", "Nomortiroide", "NSC 40462", "Aminomethiazole bitartrate", "2-Amino-4-methyl-1,3-thiazole"], "SMILES": "CC=1N=C(N)SC1", "physical_data": {"Molecular Weight": "114.17", "Molecular Formula": "C4H6N2S", "Boiling Point": "124-126 \u00b0C @ Press: 20 Torr", "Melting Point": "45.5 \u00b0C"}}