{"cas_no": "16034-49-4", "cn_name": "(3,5-\u4e8c\u7532\u57fa\u5421\u5511-1-\u57fa)\u4e59\u9178", "en_name": ["3,5-Dimethyl-1H-pyrazole-1-acetic acid", "1H-Pyrazole-1-acetic acid, 3,5-dimethyl-", "Pyrazole-1-acetic acid, 3,5-dimethyl-", "3,5-Dimethyl-1H-pyrazole-1-acetic acid", "3,5-Dimethyl-1-pyrazolylacetic acid", "(3,5-Dimethyl-1H-pyrazol-1-yl)acetic acid", "2-(3,5-Dimethylpyrazol-1-yl)acetic acid", "2-(3,5-Dimethyl-1H-pyrazol-1-yl)acetic acid"], "SMILES": "C(C(O)=O)N1N=C(C)C=C1C", "physical_data": {"Molecular Weight": "154.17", "Molecular Formula": "C7H10N2O2", "Boiling Point": "120-127 \u00b0C @ Press: 14 Torr", "Melting Point": "182 \u00b0C"}}