{"cas_no": "1603-40-3", "cn_name": "2-\u6c28\u57fa-3-\u7532\u57fa\u5421\u5576", "en_name": ["2-Amino-3-methylpyridine", "2-Pyridinamine, 3-methyl-", "3-Picoline, 2-amino-", "3-Methyl-2-pyridinamine", "2-Amino-3-picoline", "2-Amino-3-methylpyridine", "2-Amino-\u03b2-picoline", "3-Methyl-2-aminopyridine", "3-Methylpyridin-2-ylamine", "NSC 176169", "NSC 450", "3-Methylpyridin-2-amine"], "SMILES": "CC1=C(N)N=CC=C1", "physical_data": {"Molecular Weight": "108.14", "Molecular Formula": "C6H8N2", "Boiling Point": "222 \u00b0C", "Melting Point": "33.5 \u00b0C"}}