{"cas_no": "1603-41-4", "cn_name": "2-\u6c28\u57fa-5-\u7532\u57fa\u5421\u5576", "en_name": ["2-Amino-5-methylpyridine", "2-Pyridinamine, 5-methyl-", "3-Picoline, 6-amino-", "5-Methyl-2-pyridinamine", "2-Amino-5-methylpyridine", "5-Methyl-2-pyridylamine", "5-Methyl-2-aminopyridine", "2-Amino-5-picoline", "(5-Methylpyridin-2-yl)amine", "NSC 1489", "NSC 96444", "6-Amino-3-picoline"], "SMILES": "CC=1C=CC(N)=NC1", "physical_data": {"Molecular Weight": "108.14", "Molecular Formula": "C6H8N2", "Boiling Point": "227 \u00b0C", "Melting Point": "76.5 \u00b0C"}}