{"cas_no": "1603-47-0", "cn_name": "8-HYDROXYBERGAPTEN", "en_name": ["8-Hydroxybergapten", "7H-Furo[3,2-g][1]benzopyran-7-one, 9-hydroxy-4-methoxy-", "5-Benzofuranacrylic acid, 6,7-dihydroxy-4-methoxy-, \u03b4-lactone", "9-Hydroxy-4-methoxy-7H-furo[3,2-g][1]benzopyran-7-one", "8-Hydroxybergapten", "9-Hydroxy-4-methoxypsoralen", "5-Methoxy-8-hydroxypsoralen", "8-Hydroxy-5-methoxypsoralen"], "SMILES": "O(C)C=1C2=C(C(O)=C3C1C=CO3)OC(=O)C=C2", "physical_data": {"Molecular Weight": "232.19", "Molecular Formula": "C12H8O5", "Melting Point": "221.5-222 \u00b0C"}}