{"cas_no": "160377-57-1", "cn_name": "3-(3-\u6eb4\u82ef\u57fa)-5-\u7532\u57fa-1,2,4-\u6076\u4e8c\u5511", "en_name": ["3-(3-Bromophenyl)-5-methyl-1,2,4-oxadiazole", "1,2,4-Oxadiazole, 3-(3-bromophenyl)-5-methyl-", "3-(3-Bromophenyl)-5-methyl-1,2,4-oxadiazole"], "SMILES": "BrC=1C=C(C=CC1)C2=NOC(C)=N2", "physical_data": {"Molecular Weight": "239.07", "Molecular Formula": "C9H7BrN2O", "Melting Point": "58-61 \u00b0C"}}