{"cas_no": "1604-11-1", "cn_name": "\u7532\u57fa\u4e01\u4e8c\u9178\u4e8c\u7532\u916f", "en_name": ["Dimethyl methylsuccinate", "Butanedioic acid, 2-methyl-, 1,4-dimethyl ester", "Succinic acid, methyl-, dimethyl ester", "Butanedioic acid, methyl-, dimethyl ester", "Pyrotartaric acid, dimethyl ester", "Dimethyl methylsuccinate", "Methylsuccinic acid dimethyl ester", "Dimethyl 2-methylsuccinate", "Dimethyl \u03b1-methylsuccinate", "(\u00b1)-Dimethyl methylsuccinate", "Dimethyl (\u00b1)-2-methylsuccinate", "(Methyl)butanedioic acid dimethyl ester", "Dimethyl 2-methylbutane-1,4-dioate", "Dimethyl 2-methylbutanedioate"], "SMILES": "C(CC(OC)=O)(C(OC)=O)C", "physical_data": {"Molecular Weight": "160.17", "Molecular Formula": "C7H12O4", "Boiling Point": "196 \u00b0C"}}