{"cas_no": "16045-78-6", "cn_name": "1,3-\u4e8c\u7532\u57fa-1,1,3,3-\u56db\u4e59\u70ef\u4e8c\u7845\u6c27\u70f7", "en_name": ["1,1,3,3-Tetraethenyl-1,3-dimethyldisiloxane", "Disiloxane, 1,1,3,3-tetraethenyl-1,3-dimethyl-", "Disiloxane, 1,3-dimethyl-1,1,3,3-tetravinyl-", "1,1,3,3-Tetraethenyl-1,3-dimethyldisiloxane", "1,3-Dimethyl-1,1,3,3-tetravinyldisiloxane", "[Bis(ethenyl)-methylsilyl]oxy-bis(ethenyl)-methylsilane", "1,1,3,3-Tetravinyldimethyldisiloxane"], "SMILES": "O([Si](C=C)(C=C)C)[Si](C=C)(C=C)C", "physical_data": {"Molecular Weight": "210.42", "Molecular Formula": "C10H18OSi2", "Boiling Point": "65-68 \u00b0C @ Press: 15 Torr", "Density": "0.852 g/cm\u00b3"}}