{"cas_no": "16042-25-4", "cn_name": "\u54aa\u5511-2-\u7532\u9178", "en_name": ["1H-Imidazole-2-carboxylic acid", "1H-Imidazole-2-carboxylic acid", "Imidazole-2-carboxylic acid", "2-Imidazocarboxylic acid"], "SMILES": "C(O)(=O)C=1NC=CN1", "physical_data": {"Molecular Weight": "112.09", "Molecular Formula": "C4H4N2O2", "Melting Point": "163-164 \u00b0C (decomp)"}}