{"cas_no": "1604-28-0", "cn_name": "6-\u7532\u57fa-3,5-\u5e9a\u4e8c\u70ef-2-\u916e", "en_name": ["6-Methylhepta-3,5-dien-2-one", "3,5-Heptadien-2-one, 6-methyl-", "6-Methyl-3,5-heptadien-2-one", "6-Methylhepta-3,5-dien-2-one", "2-Methyl-2,4-heptadien-6-one", "6-Methylhepta-3,5-diene-2-one"], "SMILES": "C(C=C(C)C)=CC(C)=O", "physical_data": {"Molecular Weight": "124.18", "Molecular Formula": "C8H12O", "Boiling Point": "83-83.5 \u00b0C @ Press: 9 Torr", "Density": "0.897 g/cm\u00b3 @ Temp: 19 \u00b0C"}}