{"cas_no": "1605-53-4", "cn_name": "\u4e8c\u4e59\u57fa\u82ef\u81a6", "en_name": ["Diethylphenylphosphine", "Phosphine, diethylphenyl-", "Diethylphenylphosphine", "Phenyldiethylphosphine", "NSC 158475"], "SMILES": "P(CC)(CC)C1=CC=CC=C1", "physical_data": {"Molecular Weight": "166.20", "Molecular Formula": "C10H15P", "Boiling Point": "100-121 \u00b0C @ Press: 10 Torr", "Melting Point": "45 \u00b0C", "Density": "0.9445 g/cm\u00b3 @ Temp: 20 \u00b0C"}}