{"cas_no": "16051-77-7", "cn_name": "5-\u5355\u785d\u9178\u5f02\u5c71\u68a8\u916f", "en_name": ["Isosorbide mononitrate", "D-Glucitol, 1,4:3,6-dianhydro-, 5-nitrate", "Glucitol, 1,4:3,6-dianhydro-, 5-nitrate, D-", "Furo[3,2-b]furan, D-glucitol deriv.", "Isosorbide 5-mononitrate", "1,4:3,6-Dianhydro-D-glucitol 5-nitrate", "Isosorbide 5-nitrate", "Isosorbide mononitrate", "IS 5MN", "AHR 4698", "BM 22-145", "Monizid", "Imdur", "Multitab", "Ismo", "Monoket", "Monolong", "Mono-Mack", "Imodur", "Monoket OD", "Mononit Retard 50", "Mononit 40", "Ismox", "Monolong 60", "Medocor", "Nitramin", "Corangin SR", "Conpin", "Monotrate", "Ismo 20", "Isomonat", "Monopront", "Monicor", "Corangin", "Isomonit", "Mono-Sanorania", "Elantan", "Imdur 60", "Ismexin", "ISMN", "Isopen 20", "Monodur Durules", "Monocord 20", "Imdur Durules", "Isomon", "Mononit 20", "Imtrate", "Mono Corax", "Monoket Retard", "Mono Corax Retard", "Monosorbitrate", "Monit 20", "Pentacard", "Elantan Long", "Pentacard 20", "Monis", "Iturol", "Conpin Retardkaps", "Vasotrate", "Monovas", "Monoclair", "Mononit", "Duride", "Monocord 40", "Monolong 40", "Monosordil", "Elan", "Monocord 50SR", "Elantan Retard", "Dilavenil", "Mono-Cedocard", "Monosorb", "Momo Mack", "Olicard", "Monit", "Geomatrix", "Ormox", "Monizol"], "SMILES": "O(N(=O)=O)C1C2C(C(O)CO2)OC1", "physical_data": {"Molecular Weight": "191.14", "Molecular Formula": "C6H9NO6", "Melting Point": "88-91 \u00b0C"}}