{"cas_no": "16052-42-9", "cn_name": "\u6c2f\u4ee3\u8584\u8377\u8111", "en_name": ["(-)-Menthyl chloride", "Cyclohexane, 2-chloro-4-methyl-1-(1-methylethyl)-, (1S,2R,4R)-", "p-Menthane, 3-chloro-, (1R,3R,4S)-(-)-", "Cyclohexane, 2-chloro-4-methyl-1-(1-methylethyl)-, [1S-(1\u03b1,2\u03b2,4\u03b2)]-", "(1S,2R,4R)-2-Chloro-4-methyl-1-(1-methylethyl)cyclohexane", "Menthyl chloride", "l-Menthyl chloride", "(-)-Menthyl chloride", "(1R,2S,5R)-Menthyl chloride", "NSC 55430"], "SMILES": "C(C)(C)C1C(Cl)CC(C)CC1", "physical_data": {"Molecular Weight": "174.71", "Molecular Formula": "C10H19Cl", "Boiling Point": "101.0-101.5 \u00b0C @ Press: 21 Torr", "Melting Point": "-20.1-16.5 \u00b0C", "Density": "0.936 g/cm\u00b3 @ Temp: 420 \u00b0C"}}