{"cas_no": "16056-11-4", "cn_name": "\u82ef\u57fa\u4e09\u7532\u57fa\u6eb4\u5316\u94f5", "en_name": ["Phenyltrimethylammonium bromide", "Benzenaminium, N,N,N-trimethyl-, bromide (1:1)", "Ammonium, trimethylphenyl-, bromide", "Benzenaminium, N,N,N-trimethyl-, bromide", "Trimethylphenylammonium bromide", "Phenyltrimethylammonium bromide", "N,N,N-Trimethylanilinium bromide"], "SMILES": "[N+](C)(C)(C)C1=CC=CC=C1.[Br-]", "physical_data": {"Molecular Weight": "", "Molecular Formula": "C9H14N.Br", "Melting Point": "214 \u00b0C"}}