{"cas_no": "1605-18-1", "cn_name": "1,4-\u4e8c\u5f02\u4e19\u70ef\u57fa\u82ef", "en_name": ["1,4-Diisopropenylbenzene", "Benzene, 1,4-bis(1-methylethenyl)-", "Benzene, p-diisopropenyl-", "1,4-Bis(1-methylethenyl)benzene", "p-Diisopropenylbenzene", "1,4-Bis(1-methylvinyl)benzene", "1,4-Diisopropenylbenzene", "NSC 84197", "1,4-Di(prop-1-en-2-yl)benzene", "1,4-Bis(prop-1-en-2-yl)benzene"], "SMILES": "C(C)(=C)C1=CC=C(C(C)=C)C=C1", "physical_data": {"Molecular Weight": "158.24", "Molecular Formula": "C12H14", "Boiling Point": "46-48 \u00b0C @ Press: 0.07 Torr", "Melting Point": "63.6-64 \u00b0C"}}