{"cas_no": "1605-65-8", "cn_name": "\u53cc(\u4e8c\u7532\u80fa\u57fa)\u6c2f\u9178\u78f7", "en_name": ["N,N,N\u2032,N\u2032-Tetramethylphosphorodiamidic chloride", "Phosphorodiamidic chloride, N,N,N\u2032,N\u2032-tetramethyl-", "Phosphorodiamidic chloride, tetramethyl-", "N,N,N\u2032,N\u2032-Tetramethylphosphorodiamidic chloride", "Bis(N,N-dimethylamino)phosphinic chloride", "Tetramethylphosphorodiamidic chloride", "Bis(dimethylamino)phosphoryl chloride", "Bis(dimethylamino)chlorophosphine oxide", "Tetramethylphosphorodiamidoyl chloride", "Tetramethyldiamidophosphoryl chloride", "Bis(dimethylamino)phosphinic chloride", "Tetramethylphosphorochloridic diamide", "Chlorobis(dimethylamino)phosphine oxide", "Bis(dimethylamino)phosphinyl chloride", "N,N,N\u2032,N\u2032-Tetramethyldiamidophosphorochloridate", "NSC 30697"], "SMILES": "P(N(C)C)(N(C)C)(Cl)=O", "physical_data": {"Molecular Weight": "170.58", "Molecular Formula": "C4H12ClN2OP", "Boiling Point": "102 \u00b0C @ Press: 6 Torr"}}