{"cas_no": "1606-85-5", "cn_name": "\u4e01\u7094\u4e8c\u9187\u4e59\u6c27\u57fa\u5316\u7269", "en_name": ["1,4-Bis(2-hydroxyethoxy)-2-butyne", "Ethanol, 2,2\u2032-[2-butyne-1,4-diylbis(oxy)]bis-", "Ethanol, 2,2\u2032-(2-butynylenedioxy)di-", "2,2\u2032-[2-Butyne-1,4-diylbis(oxy)]bis[ethanol]", "1,4-Bis(\u03b2-hydroxyethoxy)-2-butyne", "1,4-Di(\u03b2-hydroxyethoxy)-2-butyne", "2,2\u2032-(2-Butyne-1,4-diyldioxy)diethanol", "2-Butyne-1,4-diol, bis(\u03b2-hydroxyethyl) ether", "1,4-Bis(2-hydroxyethoxy)-2-butyne", "NSC 73709", "Ferasine", "2-Butyne-1,4-diol bis(2-hydroxyethyl ether)", "Butoxyne 497", "2-[4-(2-Hydroxyethoxy)but-2-ynoxy]ethanol"], "SMILES": "C(#CCOCCO)COCCO", "physical_data": {"Molecular Weight": "174.19", "Molecular Formula": "C8H14O4", "Boiling Point": "71-72 \u00b0C @ Press: 1 Torr", "Density": "1.1415 g/cm\u00b3 @ Temp: 20 \u00b0C"}}