{"cas_no": "1606-01-5", "cn_name": "2-\u4e8c\u4e59\u6c28\u57fa\u4e59\u9178\u76d0\u9178\u76d0", "en_name": ["N,N-Diethylglycine", "Glycine, N,N-diethyl-", "N,N-Diethylglycine", "(Diethylamino)acetic acid", "N,N-Diethylaminoacetic acid", "2-(Diethylamino)acetic acid"], "SMILES": "N(CC(O)=O)(CC)CC", "physical_data": {"Molecular Weight": "131.17", "Molecular Formula": "C6H13NO2", "Boiling Point": "142-145 \u00b0C @ Press: 20 Torr", "Melting Point": "126-130 \u00b0C"}}