{"cas_no": "1606-96-8", "cn_name": "\u4e09\u5f02\u4e01\u57fa\u78f7\u9178", "en_name": ["Tris(2-methylpropyl) phosphite", "Phosphorous acid, tris(2-methylpropyl) ester", "Phosphorous acid, triisobutyl ester", "Isobutyl phosphite ((C4H9O)3P)", "Tris(2-methylpropyl) phosphite", "Triisobutyl phosphite"], "SMILES": "P(OCC(C)C)(OCC(C)C)OCC(C)C", "physical_data": {"Molecular Weight": "250.31", "Molecular Formula": "C12H27O3P", "Boiling Point": "110 \u00b0C @ Press: 10 Torr", "Density": "0.906 g/cm\u00b3 @ Temp: 20 \u00b0C"}}