{"cas_no": "16069-36-6", "cn_name": "\u4e8c\u73af\u5df1\u70f7\u5e76-18-\u51a0\u919a-6", "en_name": ["Dicyclohexano-18-crown-6", "Dibenzo[b,k][1,4,7,10,13,16]hexaoxacyclooctadecin, eicosahydro-", "Eicosahydrodibenzo[b,k][1,4,7,10,13,16]hexaoxacyclooctadecin", "Dicyclohexyl-18-crown-6", "Perhydrodibenzo-18-crown-6", "DCH18C6", "2,5,8,15,18,21-Hexaoxatricyclo[20.4.0.09,14]hexacosane", "2,3,11,12-Dicyclohexano-1,4,7-10,13,16-hexaoxacyclooctadecane", "DCH-18-crown-6", "Dicyclohexano-18-crown-6", "cis-Dicyclohexano-18-crown-6", "NSC 252171", "SuperLig 332", "Dicyclohexano-18-crown-6-ether"], "SMILES": "C12C(CCCC1)OCCOCCOC3C(OCCOCCO2)CCCC3", "physical_data": {"Molecular Weight": "372.50", "Molecular Formula": "C20H36O6", "Boiling Point": "342 \u00b0C @ Press: 755 Torr", "Melting Point": "68.5-95 \u00b0C"}}