{"cas_no": "16064-24-7", "cn_name": "7-\u7532\u6c27\u57fa-4(1H)-\u55b9\u5511\u5549\u916e", "en_name": ["7-Methoxy-4(3H)-quinazolinone", "4(3H)-Quinazolinone, 7-methoxy-", "4(1H)-Quinazolinone, 7-methoxy-", "7-Methoxy-4(3H)-quinazolinone"], "SMILES": "O=C1C=2C(=CC(OC)=CC2)NC=N1", "physical_data": {"Molecular Weight": "176.17", "Molecular Formula": "C9H8N2O2", "Melting Point": "257-258 \u00b0C"}}