{"cas_no": "16064-08-7", "cn_name": "6-\u7898\u55b9\u5511\u5549-4-\u916e", "en_name": ["6-Iodo-4(3H)-quinazolinone", "4(3H)-Quinazolinone, 6-iodo-", "4(1H)-Quinazolinone, 6-iodo-", "4-Quinazolinol, 6-iodo-", "6-Iodo-4(3H)-quinazolinone", "6-Iodo-4-quinazolone", "6-Iodo-3,4-dihydroquinazolin-4-one", "6-Iodo-3H-quinazolin-4-one", "6-Iodoquinazolin-4-ol", "6-Iodoquinazolin-4-one", "6-Iodo-1H-quinazolin-4-one"], "SMILES": "O=C1C=2C(=CC=C(I)C2)NC=N1", "physical_data": {"Molecular Weight": "272.04", "Molecular Formula": "C8H5IN2O", "Melting Point": "270-272 \u00b0C"}}