{"cas_no": "16068-37-4", "cn_name": "1,2-\u4e8c(\u4e09\u4e59\u6c27\u57fa\u7845\u57fa)\u4e59\u70f7", "en_name": ["Bis(triethoxysilyl)ethane", "3,8-Dioxa-4,7-disiladecane, 4,4,7,7-tetraethoxy-", "4,4,7,7-Tetraethoxy-3,8-dioxa-4,7-disiladecane", "[(Triethoxysilyl)ethyl]triethoxysilane", "Bis(triethoxysilyl)ethane", "1,2-Bis(triethoxysilyl)ethane", "Ethylenebis(triethoxysilane)", "Silquest Y 9805", "1,2-Bis(3-ethoxysilyl)ethane", "KBE 3026", "SIB 1817.0", "KBM 6026", "1,1,1,4,4,4-Hexaethoxy-1,4-disilabutane", "LMD 26E", "1,2-Di(triethoxysilyl)ethane", "Vernetzer ET 13", "SIB 1817", "Dynasylan BTSE", "BTESE", "1,2-Di(triethoxylsilyl)ethane", "1,2-(Triethoxysilyl)ethane", "1,2-Bis(3-(triethoxy)silylpropyl)ethane"], "SMILES": "[Si](CC[Si](OCC)(OCC)OCC)(OCC)(OCC)OCC", "physical_data": {"Molecular Weight": "354.59", "Molecular Formula": "C14H34O6Si2", "Boiling Point": "96 \u00b0C @ Press: 0.3 Torr", "Density": "0.957 g/cm\u00b3"}}