{"cas_no": "16066-09-4", "cn_name": "1,1,1,3,5,7,7,7-\u516b\u7532\u57fa\u56db\u7845\u6c27\u70f7", "en_name": ["1,1,1,3,5,7,7,7-Octamethyltetrasiloxane", "Tetrasiloxane, 1,1,1,3,5,7,7,7-octamethyl-", "1,1,1,3,5,7,7,7-Octamethyltetrasiloxane", "H Oil", "LS 8630", "1,3-Bis(trimethylsiloxy)-1,3-dimethyldisiloxane", "SIB 1838.0"], "SMILES": "O([Si](C)(C)C)[SiH](O[SiH](O[Si](C)(C)C)C)C", "physical_data": {"Molecular Weight": "282.63", "Molecular Formula": "C8H26O3Si4", "Boiling Point": "170 \u00b0C", "Density": "0.858 g/cm\u00b3"}}