{"cas_no": "16064-10-1", "cn_name": "6-\u7f9f\u57fa-4-\u55b9\u5511\u916e", "en_name": ["6-Hydroxy-4(3H)-quinazolinone", "4(3H)-Quinazolinone, 6-hydroxy-", "4(1H)-Quinazolinone, 6-hydroxy-", "6-Hydroxy-4(3H)-quinazolinone", "6-Hydroxy-4-quinazolinone", "6-Hydroxy-3H-quinazolin-4-one", "4,6-Dihydroxyquinazoline", "6-Hydroxy-3,4-dihydroquinazolin-4-one", "Quinazoline-4,6-diol", "6-Hydroxyquinazolin-4(3H)-one"], "SMILES": "O=C1C=2C(=CC=C(O)C2)NC=N1", "physical_data": {"Molecular Weight": "162.15", "Molecular Formula": "C8H6N2O2", "Melting Point": "&gt;300 \u00b0C"}}