{"cas_no": "16064-14-5", "cn_name": "4-\u7f9f\u57fa-6-\u6c2f\u55b9\u5511\u5549", "en_name": ["6-Chloro-4(3H)-quinazolinone", "4(3H)-Quinazolinone, 6-chloro-", "4-Quinazolinol, 6-chloro-", "4(1H)-Quinazolinone, 6-chloro-", "6-Chloro-4(3H)-quinazolinone", "6-Chloro-4-quinazolone", "6-Chloro-4-quinazolinone", "6-Chloro-4-quinazolinol", "NSC 52062", "6-Chloro-3,4-dihydroquinazolin-4-one"], "SMILES": "O=C1C=2C(=CC=C(Cl)C2)NC=N1", "physical_data": {"Molecular Weight": "180.59", "Molecular Formula": "C8H5ClN2O", "Melting Point": "263-265 \u00b0C"}}