{"cas_no": "16063-70-0", "cn_name": "2,3,5-\u4e09\u6c2f\u5421\u5576", "en_name": ["2,3,5-Trichloropyridine", "Pyridine, 2,3,5-trichloro-", "2,3,5-Trichloropyridine"], "SMILES": "ClC1=C(Cl)N=CC(Cl)=C1", "physical_data": {"Molecular Weight": "182.44", "Molecular Formula": "C5H2Cl3N", "Boiling Point": "219 \u00b0C", "Melting Point": "48-50 \u00b0C"}}