{"cas_no": "1606-67-3", "cn_name": "1-\u6c28\u57fa\u8298", "en_name": ["1-Aminopyrene", "1-Pyrenamine", "3-Aminopyrene", "1-Aminopyrene", "\u03b1-Aminopyrene", "NSC 11436", "1-Aminopyren"], "SMILES": "NC1=C2C3=C4C(C=C2)=CC=CC4=CC=C3C=C1", "physical_data": {"Molecular Weight": "217.27", "Molecular Formula": "C16H11N", "Melting Point": "115-117 \u00b0C"}}