{"cas_no": "16063-69-7", "cn_name": "2,4,6-\u4e09\u6c2f\u5421\u5576", "en_name": ["2,4,6-Trichloropyridine", "Pyridine, 2,4,6-trichloro-", "2,4,6-Trichloropyridine"], "SMILES": "ClC=1C=C(Cl)N=C(Cl)C1", "physical_data": {"Molecular Weight": "182.44", "Molecular Formula": "C5H2Cl3N", "Boiling Point": "217.5-218.5 \u00b0C @ Press: 760 Torr", "Melting Point": "33 \u00b0C"}}