{"cas_no": "160706-62-7", "cn_name": "(R)-\u54cc\u5576-1,3-\u4e8c\u7fa7\u9178 1-\u82c4\u916f", "en_name": ["1-(Phenylmethyl) (3R)-1,3-piperidinedicarboxylate", "1,3-Piperidinedicarboxylic acid, 1-(phenylmethyl) ester, (3R)-", "1,3-Piperidinedicarboxylic acid, 1-(phenylmethyl) ester, (R)-", "1-(Phenylmethyl) (3R)-1,3-piperidinedicarboxylate", "3(R)-N-(Carbobenzyloxy)-3-carboxypiperidine", "(R)-1-Benzyloxycarbonylnipecotic acid", "(R)-Piperidine-1,3-dicarboxylic acid 1-benzyl ester", "(R)-1-(Benzyloxycarbonyl)piperidine-3-carboxylic acid", "(R)-1-((Benzyloxy)carbonyl)piperidine-3-carboxylic acid", "(3R)-1-[(Benzyloxy)carbonyl]piperidine-3-carboxylic acid", "(3R)-1-Phenylmethoxycarbonylpiperidine-3-carboxylic acid", "(R)-1-((Benzyloxy)carbonyl)piperidine-3-carboxylicacid"], "SMILES": "C(OCC1=CC=CC=C1)(=O)N2CC(C(O)=O)CCC2", "physical_data": {"Molecular Weight": "263.29", "Molecular Formula": "C14H17NO4", "Melting Point": "97 \u00b0C"}}