{"cas_no": "16078-34-5", "cn_name": "1-(2,3-\u4e8c\u6c22-1H-\u5432\u54da-5-\u57fa)-\u4e59\u916e", "en_name": ["1-(2,3-Dihydro-1H-indol-5-yl)ethanone", "Ethanone, 1-(2,3-dihydro-1H-indol-5-yl)-", "Ketone, 5-indolinyl methyl", "1-(2,3-Dihydro-1H-indol-5-yl)ethanone", "5-Acetylindoline", "5-Acetyl-2,3-dihydroindole", "NSC 75568", "1-(Indolin-5-yl)ethanone", "1-(2,3-Dihydro-1H-indol-5-yl)ethan-1-one"], "SMILES": "C(C)(=O)C=1C=C2C(=CC1)NCC2", "physical_data": {"Molecular Weight": "161.20", "Molecular Formula": "C10H11NO", "Melting Point": "70.5-71 \u00b0C"}}