{"cas_no": "160738-57-8", "cn_name": "\u76d0\u9178\u52a0\u66ff\u6c99\u661f", "en_name": ["Gatifloxacin", "3-Quinolinecarboxylic acid, 1-cyclopropyl-6-fluoro-1,4-dihydro-8-methoxy-7-(3-methyl-1-piperazinyl)-4-oxo-", "1-Cyclopropyl-6-fluoro-1,4-dihydro-8-methoxy-7-(3-methyl-1-piperazinyl)-4-oxo-3-quinolinecarboxylic acid", "AM 1155", "PD 135432", "(\u00b1)-1-Cyclopropyl-6-fluoro-1,4-dihydro-8-methoxy-7-(3-methyl-1-piperazinyl)-4-oxo-3-quinolinecarboxylic acid", "BMS 206584-01", "Gatifloxacin", "1-Cyclopropyl-6-fluoro-8-methoxy-1,4-dihydro-7-(3-methylpiperazin-1-yl)-4-oxoquinoline-3-carboxylic acid", "Tequin", "Gatiflo", "Zymar", "Tymer", "Gatiquin", "Gaity", "Gatilox", "Gatispan", "G-Cebran", "Gatifloxin", "1-Cyclopropyl-6-fluoro-8-methoxy-7-(3-methylpiperazin-4-ium-1-yl)-4-oxoquinoline-3-carboxylate", "1-Cyclopropyl-6-fluoro-8-methoxy-7-(3-methyl-piperazin-1-yl)-4-oxo-1,4-dihydro-quinoline-3-carboxylic acid", "Zymaxid"], "SMILES": "O(C)C1=C2N(C=C(C(O)=O)C(=O)C2=CC(F)=C1N3CC(C)NCC3)C4CC4", "physical_data": {"Molecular Weight": "375.39", "Molecular Formula": "C19H22FN3O4", "Melting Point": "167-168 \u00b0C"}}