{"cas_no": "16078-71-0", "cn_name": "5-\u6c28\u57fa-4-\u4e59\u6c27\u7fb0\u57fa-1-\u82ef\u57fa\u5421\u5511", "en_name": ["1H-Pyrazole-4-carboxylic acid, 5-amino-1-phenyl-, ethyl ester", "1H-Pyrazole-4-carboxylic acid, 5-amino-1-phenyl-, ethyl ester", "Pyrazole-4-carboxylic acid, 5-amino-1-phenyl-, ethyl ester", "Ethyl 5-amino-1-phenyl-4-pyrazolecarboxylate", "5-Amino-4-ethoxycarbonyl-1-phenylpyrazole", "Ethyl 5-amino-1-phenyl-1H-pyrazole-4-carboxylate", "NSC 221275", "NSC 75788", "5-Amino-1-phenyl-1H-pyrazole-4-carboxylic acid ethyl ester"], "SMILES": "NC=1N(N=CC1C(OCC)=O)C2=CC=CC=C2", "physical_data": {"Molecular Weight": "231.25", "Molecular Formula": "C12H13N3O2", "Melting Point": "103-105 \u00b0C"}}