{"cas_no": "1607-57-4", "cn_name": "\u4e09\u82ef\u6eb4\u4e59\u70ef", "en_name": ["1-Bromo-1,2,2-triphenylethene", "Benzene, 1,1\u2032,1\u2032\u2032-(1-bromo-1-ethenyl-2-ylidene)tris-", "Ethylene, bromotriphenyl-", "1,1\u2032,1\u2032\u2032-(1-Bromo-1-ethenyl-2-ylidene)tris[benzene]", "Triphenylethylene bromide", "Eitriphin", "1,2,2-Triphenylvinyl bromide", "Bromotriphenylethylene", "Bromotriphenylethene", "Triphenylvinyl bromide", "2-Bromo-1,1,2-triphenylethene", "Triphenylethenyl bromide", "NSC 38797", "1-Bromotriphenylethylene", "1-Bromo-1,2,2-triphenylethene", "1-Bromo-1,2,2-triphenylethylene", "Triphenylbromoethene", "2-Bromo-1,1,2-triphenylethylene", "1,1\u2032,1\u2032\u2032-(2-Bromoethene-1,1,2-triyl)tribenzene", "(1-Bromo-2,2-diphenylethenyl)benzene"], "SMILES": "C(=C(Br)C1=CC=CC=C1)(C2=CC=CC=C2)C3=CC=CC=C3", "physical_data": {"Molecular Weight": "335.24", "Molecular Formula": "C20H15Br", "Melting Point": "115 \u00b0C"}}