{"cas_no": "16078-30-1", "cn_name": "N-\u5df2\u9170\u57fa\u5432\u54da\u5549", "en_name": ["1-Acetylindoline", "Ethanone, 1-(2,3-dihydro-1H-indol-1-yl)-", "Indoline, 1-acetyl-", "1H-Indole, 1-acetyl-2,3-dihydro-", "1-(2,3-Dihydro-1H-indol-1-yl)ethanone", "1-Acetylindoline", "N-Acetylindoline", "1-Acetyl-2,3-dihydro-1H-indole", "1-(2,3-Dihydroindol-1-yl)ethanone", "1-(Indolin-1-yl)ethanone", "1-(Indolin-1-yl)ethan-1-one", "1-(2,3-Dihydro-1H-indol-1-yl)ethan-1-one"], "SMILES": "C(C)(=O)N1C=2C(CC1)=CC=CC2", "physical_data": {"Molecular Weight": "161.20", "Molecular Formula": "C10H11NO", "Boiling Point": "125-130 \u00b0C @ Press: 1 Torr", "Melting Point": "102-103 \u00b0C"}}