{"cas_no": "16082-27-2", "cn_name": "7-\u6c2f-5-\u7532\u57fa\u5421\u5511\u5e76[1,5-A]\u5627\u5576", "en_name": ["7-Chloro-5-methylpyrazolo[1,5-a]pyrimidine", "Pyrazolo[1,5-a]pyrimidine, 7-chloro-5-methyl-", "7-Chloro-5-methylpyrazolo[1,5-a]pyrimidine"], "SMILES": "ClC=1N2C(N=C(C)C1)=CC=N2", "physical_data": {"Molecular Weight": "167.60", "Molecular Formula": "C7H6ClN3", "Melting Point": "36 \u00b0C"}}