{"cas_no": "16081-45-1", "cn_name": "5-\u6c28\u57fa-1,4-\u82ef\u5e76\u4e8c\u6076\u70f7", "en_name": ["2,3-Dihydro-1,4-benzodioxin-5-amine", "1,4-Benzodioxin-5-amine, 2,3-dihydro-", "1,4-Benzodioxan-5-amine", "2,3-Dihydro-1,4-benzodioxin-5-amine", "5-Amino-1,4-benzodioxan", "5-Amino-1,4-benzodioxane", "2,3-Ethylenedioxyaniline", "5-Amino-2,3-dihydro-1,4-benzodioxin", "(2,3-Dihydrobenzo-1,4-dioxin-5-yl)amine", "2,3-Dihydrobenzo[b]-1,4-dioxin-5-amine"], "SMILES": "NC1=C2C(=CC=C1)OCCO2", "physical_data": {"Molecular Weight": "151.16", "Molecular Formula": "C8H9NO2", "Boiling Point": "205-207 \u00b0C @ Press: 7 Torr"}}