{"cas_no": "16088-19-0", "cn_name": "N,N-\u4e8c\u7532\u57fa\u6c28\u57fa\u7532\u9178-3-(\u4e8c\u7532\u57fa\u6c28\u57fa)\u82ef\u916f", "en_name": ["3-(Dimethylamino)phenyl N,N-dimethylcarbamate", "Carbamic acid, N,N-dimethyl-, 3-(dimethylamino)phenyl ester", "Carbamic acid, dimethyl-, m-(dimethylamino)phenyl ester", "Carbamic acid, dimethyl-, 3-(dimethylamino)phenyl ester", "3-(Dimethylamino)phenyl N,N-dimethylcarbamate", "3-(Dimethylamino)phenyl dimethylcarbamate", "Norneostigmine"], "SMILES": "O(C(N(C)C)=O)C1=CC(N(C)C)=CC=C1", "physical_data": {"Molecular Weight": "208.26", "Molecular Formula": "C11H16N2O2", "Boiling Point": "195 \u00b0C @ Press: 20 Torr"}}