{"cas_no": "16088-07-6", "cn_name": "DL-2-\u6c28\u57fa-3-\u82ef\u57fa-1-\u4e19\u9187", "en_name": ["Phenylalaninol", "Benzenepropanol, \u03b2-amino-", "1-Propanol, 2-amino-3-phenyl-", "\u03b2-Aminobenzenepropanol", "3-Phenyl-2-aminopropanol", "2-Amino-3-phenyl-1-propanol", "2-Amino-1-hydroxy-3-phenylpropane", "Phenylalaninol", "(\u00b1)-Phenylalaninol", "(\u00b1)-2-Amino-3-phenylpropanol", "(\u00b1)-2-Amino-3-phenyl-1-propanol", "(RS)-2-Amino-3-phenylpropanol", "DL-Phenylalaninol", "(RS)-2-Amino-3-phenyl-1-propanol", "NSC 20899", "2-Amino-3-phenylpropan-1-ol", "2-Amino-3-phenylpropanol", "2-Amino-3-phenyl-1-propanediol"], "SMILES": "C(C(CO)N)C1=CC=CC=C1", "physical_data": {"Molecular Weight": "151.21", "Molecular Formula": "C9H13NO", "Boiling Point": "150-160 \u00b0C", "Melting Point": "128 \u00b0C"}}