{"cas_no": "160848-22-6", "cn_name": "\u78b360\u884d\u751f\u7269", "en_name": ["Phenyl-C61-butyric acid methyl ester", "3\u2032H-Cyclopropa[1,9][5,6]fullerene-C60-Ih-3\u2032-butanoic acid, 3\u2032-phenyl-, methyl ester", "1-[3-(Methoxycarbonyl)propyl]-1-phenyl-(6,6)C61", "[6,6]PCBM", "PCBM", "[6,6]-Phenyl-C61-butyric acid methyl ester", "Nanom Spectra E 100", "[60]PCBM", "Methyl [6,6]-phenyl-C61-butyrate", "E 100 (fullerene)", "E 100", "Nanom Spectra 100H", "PC60BM", "Nanom Spectra E 100H", "E 100H", "Phenyl-C61-butyric acid methyl ester", "[6,6\u2032]-Phenyl-C61-butyric acid methyl ester", "ADS 61BFA", "Fullerene ([6,6]-phenyl C71-butyric acid methyl ester", "Nanom Spectra E 102", "C 60PCBM"], "SMILES": "C(CCC(OC)=O)C1(C23C14C=5C=6C=7C2=C8C9=C3C=%10C=%11C4=C%12C5C%13=C%14C6C=%15C7C%16=C8C=%17C%18=C9C=%19C%10C=%20C%11C=%21C%12=C%22C%13=C%23C%14=C%24C%15C%25=C%16C%17C=%26C%27=C%18C%19C=%28C%20C=%29C%21C%22=C%30C%23=C%31C%24=C%25C%26C%32=C%27C%28C%29C%30=C%31%32)C%33=CC=CC=C%33", "physical_data": {"Molecular Weight": "910.88", "Molecular Formula": "C72H14O2", "Melting Point": "292 \u00b0C", "Density": "1.5 g/cm\u00b3"}}