{"cas_no": "16086-14-9", "cn_name": "\u4e8c\u6c2f\u4e59\u919b\u6c34\u5408\u7269", "en_name": ["2,2-Dichloro-1,1-ethanediol", "1,1-Ethanediol, 2,2-dichloro-", "Acetaldehyde, dichloro-, hydrate", "2,2-Dichloro-1,1-ethanediol", "Dichloroacetaldehyde hydrate"], "SMILES": "C(C(O)O)(Cl)Cl", "physical_data": {"Molecular Weight": "130.96", "Molecular Formula": "C2H4Cl2O2", "Boiling Point": "118 \u00b0C @ Press: 25 Torr"}}