{"cas_no": "1608-26-0", "cn_name": "\u4e09(\u4e8c\u7532\u80fa\u57fa)\u81a6", "en_name": ["Tris(dimethylamino)phosphine", "Phosphorous triamide, N,N,N\u2032,N\u2032,N\u2032\u2032,N\u2032\u2032-hexamethyl-", "Phosphorous triamide, hexamethyl-", "N,N,N\u2032,N\u2032,N\u2032\u2032,N\u2032\u2032-Hexamethylphosphorous triamide", "Hexametapil", "Hexamethylphosphorous triamide", "Tris(dimethylamino)phosphine", "Hexamethyltriamidophosphite", "Hexamethyltriaminophosphine", "HMPT", "Trisdimethylaminophosphorus", "NSC 102707"], "SMILES": "P(N(C)C)(N(C)C)N(C)C", "physical_data": {"Molecular Weight": "163.20", "Molecular Formula": "C6H18N3P", "Boiling Point": "49 \u00b0C @ Press: 11 Torr", "Density": "0.8964 g/cm\u00b3 @ Temp: 20 \u00b0C"}}