{"cas_no": "160885-98-3", "cn_name": "FMOC-\u7f2c\u6c28\u9187", "en_name": ["9H-Fluoren-9-ylmethyl N-[(1S)-1-(hydroxymethyl)-2-methylpropyl]carbamate", "Carbamic acid, N-[(1S)-1-(hydroxymethyl)-2-methylpropyl]-, 9H-fluoren-9-ylmethyl ester", "Carbamic acid, [1-(hydroxymethyl)-2-methylpropyl]-, 9H-fluoren-9-ylmethyl ester, (S)-", "Carbamic acid, [(1S)-1-(hydroxymethyl)-2-methylpropyl]-, 9H-fluoren-9-ylmethyl ester", "9H-Fluoren-9-ylmethyl N-[(1S)-1-(hydroxymethyl)-2-methylpropyl]carbamate"], "SMILES": "C(OC(NC(C(C)C)CO)=O)C1C=2C(C=3C1=CC=CC3)=CC=CC2", "physical_data": {"Molecular Weight": "325.40", "Molecular Formula": "C20H23NO3", "Melting Point": "107-108 \u00b0C"}}