{"cas_no": "16088-62-3", "cn_name": "S-\u73af\u6c27\u4e19\u70f7", "en_name": ["(2S)-2-Methyloxirane", "Oxirane, 2-methyl-, (2S)-", "Oxirane, methyl-, (S)-", "Propylene oxide, (S)-(-)-", "Oxirane, methyl-, (2S)-", "(2S)-2-Methyloxirane", "(-)-Propylene oxide", "l-Propylene oxide", "(S)-Propylene oxide", "(S)-2-Methyloxirane", "(S)-(-)-Propylene oxide", "(-)-Methyloxirane", "(S)-(-)-Methyloxirane", "(S)-Methyloxirane", "S-(-)-1,2-Epoxypropane", "(S)-Propene oxide", "(S)-(-)-Propene oxide", "(2S)-Methyloxirane", "(S)-1,2-Epoxypropane", "(2S)-2-Methyloxirane"], "SMILES": "CC1CO1", "physical_data": {"Molecular Weight": "58.08", "Molecular Formula": "C3H6O", "Boiling Point": "37 \u00b0C"}}