{"cas_no": "16090-02-1", "cn_name": "\u8367\u5149\u589e\u767d\u5242 71", "en_name": ["C.I. Fluorescent Brightener 260", "Benzenesulfonic acid, 2,2\u2032-(1,2-ethenediyl)bis[5-[[4-(4-morpholinyl)-6-(phenylamino)-1,3,5-triazin-2-yl]amino]-, sodium salt (1:2)", "2,2\u2032-Stilbenedisulfonic acid, 4,4\u2032-bis[(4-anilino-6-morpholino-s-triazin-2-yl)amino]-, disodium salt", "Benzenesulfonic acid, 2,2\u2032-(1,2-ethenediyl)bis[5-[[4-(4-morpholinyl)-6-(phenylamino)-1,3,5-triazin-2-yl]amino]-, disodium salt", "Disodium 4,4\u2032-bis(4-anilino-6-morpholino-s-triazin-2-ylamino)stilbene-2,2\u2032-disulfonate", "Sodium 4,4\u2032-bis(2-anilino-4-morpholino-6-amino-1,3,5-triazinyl)stilbene-2,2\u2032-disulfonate", "Disodium 4,4\u2032-bis(2-anilino-4-morpholino-1,3,5-triazin-6-ylamino)-2,2\u2032-stilbenedisulfonate", "Disodium 4,4\u2032-bis[(2-anilino-4-morpholino-s-triazin-6-yl)amino]-2,2\u2032-stilbenedisulfonate", "Disodium 4,4\u2032-bis(4-anilino-2-morpholino-s-triazin-6-ylamino)stilbene-2,2\u2032-disulfonate", "4,4\u2032-Bis[4\u2032\u2032-anilino-6\u2032\u2032-morpholinotriazinyl-2\u2032\u2032-amino]stilbene-2,2\u2032-disulfonic acid disodium salt", "4,4\u2032-Bis(2-morpholino-4-anilino-s-triazinyl-6-amino)stilbene-2,2\u2032-disulfonic acidisulfonic acid d disodium salt", "Disodium 4,4\u2032-bis(2-morpholino-4-phenylamino-s-triazin-6-ylamino)stilbine-2,2\u2032-disulfonate", "Tinopal AMS", "Blankophor MBBH", "C.I. Fluorescent Brightener 260", "Tinopal EMS", "Blankophor BBH", "Mikephor TB", "MBBH 766", "Tinopal DMS-X", "C.I. Fluorescent Brightener 71", "Calcofluor White RC", "Leukopur PAM", "Stralex MD", "Belotex KD", "Hiltamine Arctic White DML", "Phorwite MBBH 766", "C.I. Fluorescent Brightener 244", "Heliofor 3BC", "C.I. Fluorescent Brightener 250", "Heliofor BDC", "Rylux D", "C.I. 40625", "Fluorescent Brightener 71", "Whitex SA", "Kayaphor MAS", "Whitex SA extra conc.(H)", "Blancophor BBH", "Optiblanc 2MG", "DAS 1", "Blankophor DML", "Belofor KD 2", "Tinopal DMS", "Photine CBUS 560B", "Photine CBUS", "Brightener BR 15", "DAS 1 (brightener)", "Tinopal AMS-GX", "4,4\u2032-Bis[(6-anilino-4-morpholino-1,3,5-triazin-2-yl)amino]-2,2\u2032-disulfostilbene disodium salt", "Disodium 4,4\u2032-bis[(4-anilino-6-morpholino-1,3,5-triazin-2-yl)amino]stilbene-2,2\u2032-disulfonate", "FB 71", "Tinopal DMA-X", "4,4\u2032-Bis[(4-anilino-6-morpholino-1,3,5-triazin-2-yl)amino]stilbene-2,2\u2032-disulfonic acid disodium salt", "Fluorescent Brightener 260", "Fluorescent Brightener CXT", "CXT", "Optiblanc 2M/G-LT", "DMS", "DMA-X", "2M/G-LT", "Brightener 33", "Tinopal DMA", "Photine CBUS-B 560", "D-MS", "Disodium anilinomorpholinotriazinyl-aminostilbenesulfonate", "CBUS 450"], "SMILES": "N(C1=NC(=NC(NC2=CC=CC=C2)=N1)N3CCOCC3)C4=CC(S(=O)(=O)O)=C(C=CC5=C(S(=O)(=O)O)C=C(NC=6N=C(N=C(NC7=CC=CC=C7)N6)N8CCOCC8)C=C5)C=C4.[Na]", "physical_data": {"Molecular Weight": "", "Molecular Formula": "C40H40N12O8S2.2Na", "Melting Point": "&gt;270 \u00b0C"}}