{"cas_no": "1609-86-5", "cn_name": "\u53d4\u4e01\u57fa\u5f02\u6c30\u9178\u916f", "en_name": ["tert-Butyl isocyanate", "Propane, 2-isocyanato-2-methyl-", "Isocyanic acid, tert-butyl ester", "2-Isocyanato-2-methylpropane", "tert-Butyl isocyanate", "1,1-Dimethylethyl isocyanate", "t-Butylisocyanate"], "SMILES": "N(C(C)(C)C)=C=O", "physical_data": {"Molecular Weight": "99.13", "Molecular Formula": "C5H9NO", "Boiling Point": "85 \u00b0C"}}