{"cas_no": "16091-26-2", "cn_name": "N-(3-\u6c28\u57fa\u82ef\u57fa)\u82ef\u7532\u9170\u80fa", "en_name": ["N-(3-Aminophenyl)benzamide", "Benzamide, N-(3-aminophenyl)-", "Benzanilide, 3\u2032-amino-", "N-(3-Aminophenyl)benzamide", "3-Benzamidoaniline", "3\u2032-Aminobenzanilide", "m-(Benzoylamino)aniline", "N-Benzoyl-m-phenylenediamine", "3-(Benzoylamino)aniline"], "SMILES": "C(NC1=CC(N)=CC=C1)(=O)C2=CC=CC=C2", "physical_data": {"Molecular Weight": "212.25", "Molecular Formula": "C13H12N2O", "Melting Point": "123 \u00b0C"}}