{"cas_no": "1609-06-9", "cn_name": "1-\u6c30\u57fa-3,3-\u4e8c\u7532\u57fa\u80cd", "en_name": ["N\u2032-Cyano-N,N-dimethylguanidine", "Guanidine, N\u2032-cyano-N,N-dimethyl-", "Guanidine, 3-cyano-1,1-dimethyl-", "N\u2032-Cyano-N,N-dimethylguanidine", "1-Cyano-3,3-dimethylguanidine", "1,1-Dimethyl-3-cyanoguanidine", "3-Cyano-1,1-dimethylguanidine", "NSC 643479"], "SMILES": "C(NC#N)(N(C)C)=N", "physical_data": {"Molecular Weight": "112.13", "Molecular Formula": "C4H8N4", "Melting Point": "176-177 \u00b0C"}}