{"cas_no": "16091-18-2", "cn_name": "\u9a6c\u6765\u9178\u916f\u8f9b\u57fa\u9521", "en_name": ["Dioctyltin maleate", "1,3,2-Dioxastannepin-4,7-dione, 2,2-dioctyl-", "Dioctyltin maleate", "2,2-Dioctyl-1,3,2-dioxastannepin-4,7-dione", "Di-n-octyltin maleate", "Thermolite 813", "Estabex U 18", "Dioctylstannylene maleate", "Mellite 825", "LIV 1176", "Stann OMF", "TVS 8105", "Stann OM", "TN 801", "ADK Stab OT 9", "ONR 79F", "OM 3", "NSC 65515", "S-Cat 46A", "LT 195", "Di-n-ocytyltin maleate", "Scat 47", "ZT 8288"], "SMILES": "C(CCCCCCC)[Sn]1(CCCCCCCC)OC(=O)C=CC(=O)O1", "physical_data": {"Molecular Weight": "459.21", "Molecular Formula": "C20H36O4Sn", "Melting Point": "97 \u00b0C"}}