{"cas_no": "1609-47-8", "cn_name": "\u7126\u78b3\u9178\u4e8c\u4e59\u916f", "en_name": ["Diethyl dicarbonate", "Dicarbonic acid, 1,3-diethyl ester", "Formic acid, oxydi-, diethyl ester", "Dicarbonic acid, diethyl ester", "Pyrocarbonic acid diethyl ester", "Baycovin", "DEPC", "Diethyl dicarbonate", "Diethyl oxydiformate", "Diethyl pyrocarbonate", "Piref", "DEPA", "Dekapex", "Ue 5908"], "SMILES": "C(OC(OCC)=O)(OCC)=O", "physical_data": {"Molecular Weight": "162.14", "Molecular Formula": "C6H10O5", "Boiling Point": "93.5 \u00b0C", "Melting Point": "&lt;25 \u00b0C", "Density": "1.1300 g/cm\u00b3 @ Temp: 20 \u00b0C"}}