{"cas_no": "1609-93-4", "cn_name": "cis-3-\u6c2f\u4e19\u70ef\u9178", "en_name": ["(2Z)-3-Chloro-2-propenoic acid", "2-Propenoic acid, 3-chloro-, (2Z)-", "Acrylic acid, 3-chloro-, (Z)-", "2-Propenoic acid, 3-chloro-, (Z)-", "Acrylic acid, 3-chloro-, cis-", "(2Z)-3-Chloro-2-propenoic acid", "cis-3-Chloroacrylic acid", "cis-\u03b2-Chloroacrylic acid", "(Z)-\u03b2-Chloroacrylic acid", "(Z)-3-Chloroacrylic acid", "(Z)-3-Chloroacrylic acid", "(Z)-3-Chloro-2-propenoic acid"], "SMILES": "C(C(O)=O)=CCl", "physical_data": {"Molecular Weight": "106.51", "Molecular Formula": "C3H3ClO2", "Melting Point": "63-64 \u00b0C"}}