{"cas_no": "160982-11-6", "cn_name": "3-(\u6eb4\u4e59\u9170\u57fa)-5-\u6c2f-2-\u567b\u5429\u78fa\u9170\u80fa", "en_name": ["3-(2-Bromoacetyl)-5-chloro-2-thiophenesulfonamide", "2-Thiophenesulfonamide, 3-(2-bromoacetyl)-5-chloro-", "2-Thiophenesulfonamide, 3-(bromoacetyl)-5-chloro-", "3-(2-Bromoacetyl)-5-chloro-2-thiophenesulfonamide", "3-(Bromoacetyl)-5-chloro-2-thiophenesulfonamide"], "SMILES": "S(N)(=O)(=O)C1=C(C(CBr)=O)C=C(Cl)S1", "physical_data": {"Molecular Weight": "318.60", "Molecular Formula": "C6H5BrClNO3S2", "Melting Point": "144 \u00b0C"}}