{"cas_no": "1609-66-1", "cn_name": "N-\u82ef\u57fa-N-(4-\u54cc\u5576)\u4e19\u80fa \u6df7\u5408\u76d0\u9178", "en_name": ["4-(N-Propionylaniline)piperidine", "Propanamide, N-phenyl-N-4-piperidinyl-", "Propionanilide, N-4-piperidyl-", "N-Phenyl-N-4-piperidinylpropanamide", "4-(N-Propionanilido)piperidine", "4-(N-Propionylaniline)piperidine", "Norfentanyl", "N-Phenyl-N-4-piperidinylpropionamide", "NSC 89293", "N-Piperidin-4-yl-N-phenylpropionamide", "N-[Piperidin-4-yl]-N-phenylpropionamide"], "SMILES": "N(C(CC)=O)(C1=CC=CC=C1)C2CCNCC2", "physical_data": {"Molecular Weight": "232.32", "Molecular Formula": "C14H20N2O", "Melting Point": "83-85 \u00b0C"}}