{"cas_no": "16096-32-5", "cn_name": "4-\u7532\u57fa\u5432\u54da", "en_name": ["4-Methylindole", "1H-Indole, 4-methyl-", "Indole, 4-methyl-", "4-Methyl-1H-indole", "4-Methylindole"], "SMILES": "CC1=C2C(=CC=C1)NC=C2", "physical_data": {"Molecular Weight": "131.17", "Molecular Formula": "C9H9N", "Boiling Point": "267 \u00b0C", "Melting Point": "5 \u00b0C", "Density": "1.062 g/cm\u00b3 @ Temp: 20 \u00b0C"}}