{"cas_no": "16096-31-4", "cn_name": "1,6-\u5df1\u4e8c\u9187\u4e8c\u7f29\u6c34\u7518\u6cb9\u919a", "en_name": ["1,6-Hexanediol diglycidyl ether", "Oxirane, 2,2\u2032-[1,6-hexanediylbis(oxymethylene)]bis-", "Hexane, 1,6-bis(2,3-epoxypropoxy)-", "2,2\u2032-[1,6-Hexanediylbis(oxymethylene)]bis[oxirane]", "1,6-Hexamethylenediol diglycidyl ether", "1,6-Hexanediol diglycidyl ether", "Hexanediol diglycidyl ether", "Hexamethylene glycol diglycidyl ether", "Hexamethylene diglycidyl ether", "1,6-Bis(glycidyloxy)hexane", "1,6-Hexanediol bisglycidyl ether", "1,6-Bis(2,3-epoxypropoxy)hexane", "1,6-Hexandiol-diglycidyl ether", "1,6-Bis(oxiran-2-ylmethoxy)hexane", "Epoxy 205"], "SMILES": "C(OCCCCCCOCC1CO1)C2CO2", "physical_data": {"Molecular Weight": "230.30", "Molecular Formula": "C12H22O4", "Boiling Point": "132 \u00b0C @ Press: 0.2 Torr"}}