{"cas_no": "16094-31-8", "cn_name": "2-\u7f9f\u57fa-5-\u53d4\u4e01\u57fa\u82ef\u7532\u9178", "en_name": ["5-(1,1-Dimethylethyl)-2-hydroxybenzoic acid", "Benzoic acid, 5-(1,1-dimethylethyl)-2-hydroxy-", "Salicylic acid, 5-tert-butyl-", "5-(1,1-Dimethylethyl)-2-hydroxybenzoic acid", "5-tert-Butylsalicylic acid", "5-tert-Butyl-2-hydroxybenzoic acid", "2-Hydroxy-5-tert-butylbenzoic acid", "5-(1,1-Dimethylethyl)salicylic acid", "NSC 53153", "NSC 94402"], "SMILES": "C(O)(=O)C1=CC(C(C)(C)C)=CC=C1O", "physical_data": {"Molecular Weight": "194.23", "Molecular Formula": "C11H14O3", "Melting Point": "151 \u00b0C"}}