{"cas_no": "160970-54-7", "cn_name": "\u897f\u6d1b\u591a\u8f9b", "en_name": ["Silodosin", "1H-Indole-7-carboxamide, 2,3-dihydro-1-(3-hydroxypropyl)-5-[(2R)-2-[[2-[2-(2,2,2-trifluoroethoxy)phenoxy]ethyl]amino]propyl]-", "1H-Indole-7-carboxamide, 2,3-dihydro-1-(3-hydroxypropyl)-5-[2-[[2-[2-(2,2,2-trifluoroethoxy)phenoxy]ethyl]amino]propyl]-, (R)-", "2,3-Dihydro-1-(3-hydroxypropyl)-5-[(2R)-2-[[2-[2-(2,2,2-trifluoroethoxy)phenoxy]ethyl]amino]propyl]-1H-indole-7-carboxamide", "KMD 3213", "Silodosin", "(R)-1-(3-Hydroxypropyl)-5-[2-[[2-[2-(2,2,2-trifluoroethoxy)phenoxy]ethyl]amino]propyl]indoline-7-carboxamide", "KAD 3213", "Urief", "Rapaflo", "Rapallo", "(R)-1-(3-Hydroxypropyl)-5-[2-[[2-[2-(2,2,2-trifluoroethoxy)phenoxy]ethy l]amino]propyl]indoline-7-carboxamide", "1-(3-Hydroxypropyl)-5-[(2R)-2-[2-[2-(2,2,2-trifluoroethoxy)phenoxy]ethylamino]propyl]-2,3-dihydroindole-7-carboxamide", "Urorec", "Silodyx"], "SMILES": "C(CCO)N1C=2C(=CC(CC(NCCOC3=C(OCC(F)(F)F)C=CC=C3)C)=CC2C(N)=O)CC1", "physical_data": {"Molecular Weight": "495.53", "Molecular Formula": "C25H32F3N3O4", "Melting Point": "100-101 \u00b0C"}}