{"cas_no": "1610-18-0", "cn_name": "\u6251\u706d\u901a", "en_name": ["Prometon", "1,3,5-Triazine-2,4-diamine, 6-methoxy-N2,N4-bis(1-methylethyl)-", "s-Triazine, 2,4-bis(isopropylamino)-6-methoxy-", "1,3,5-Triazine-2,4-diamine, 6-methoxy-N,N\u2032-bis(1-methylethyl)-", "6-Methoxy-N2,N4-bis(1-methylethyl)-1,3,5-triazine-2,4-diamine", "G 31435", "2,4-Bis(isopropylamino)-6-methoxy-s-triazine", "4,6-Bis(isopropylamino)-2-methoxy-s-triazine", "Gesafram", "2-Methoxy-4,6-bis(isopropylamino)-s-triazine", "2-Methoxy-4,6-bis(isopropylamino)-1,3,5-triazine", "Methoxypropazine", "Prometon", "Prometone", "Pramitol 5P", "Pramitol", "NSC 163048", "2,4-Bis(isopropylamino)-6-methoxy-1,3,5-triazine"], "SMILES": "N(C(C)C)C=1N=C(NC(C)C)N=C(OC)N1", "physical_data": {"Molecular Weight": "225.29", "Molecular Formula": "C10H19N5O", "Melting Point": "91-92 \u00b0C"}}