{"cas_no": "16104-28-2", "cn_name": "1,3,5,7-\u56db\u7f9f\u57fa\u91d1\u521a\u70f7", "en_name": ["1,3,5,7-Tetrahydroxyadamantane", "Tricyclo[3.3.1.13,7]decane-1,3,5,7-tetrol", "1,3,5,7-Adamantanetetrol", "1,3,5,7-Tetrahydroxyadamantane", "1,3,5,7-Adamantanetetraol"], "SMILES": "OC12CC3(O)CC(O)(C1)CC(O)(C2)C3", "physical_data": {"Molecular Weight": "200.23", "Molecular Formula": "C10H16O4", "Melting Point": "316-317 \u00b0C"}}