{"cas_no": "16105-77-4", "cn_name": "\u82ac\u6c2f\u62c9\u660e", "en_name": ["Fenfluramine hydrochloride", "Benzeneethanamine, N-ethyl-\u03b1-methyl-3-(trifluoromethyl)-, hydrochloride (1:1)", "Phenethylamine, N-ethyl-\u03b1-methyl-m-(trifluoromethyl)-, hydrochloride", "Benzeneethanamine, N-ethyl-\u03b1-methyl-3-(trifluoromethyl)-, hydrochloride", "HHR-965", "N-Ethyl-\u03b1-methyl-m-(trifluoromethyl)phenethylamine hydrochloride", "Fenfluramine hydrochloride", "Ponderal", "Ponderax", "Ponderex", "1-(m-Trifluoromethylphenyl)-2-(ethylamino)propane hydrochloride", "Ganal", "Pondimin", "(\u00b1)-Fenfluramine chloride", "(\u00b1)-Fenfluramine hydrochloride", "dl-Fenfluramine hydrochloride", "Racemic fenfluramine hydrochloride", "Pondmin", "S 768", "ZX 008", "Fintepla"], "SMILES": "C(C(NCC)C)C1=CC(C(F)(F)F)=CC=C1.Cl", "physical_data": {"Molecular Weight": "", "Molecular Formula": "C12H16F3N.ClH", "Boiling Point": "108-112 \u00b0C @ Press: 12 Torr", "Melting Point": "160-161 \u00b0C"}}