{"cas_no": "161050-58-4", "cn_name": "\u7532\u6c27\u866b\u9170\u80bc", "en_name": ["Methoxyfenozide", "Benzoic acid, 3-methoxy-2-methyl-, 2-(3,5-dimethylbenzoyl)-2-(1,1-dimethylethyl)hydrazide", "RH 2485", "RH 112485", "Intrepid", "Methoxyfenozide", "3,5-Dimethylbenzoic acid N-tert-butyl-N-(3-methoxy-2-methylbenzoyl)hydrazide", "Runner", "Intrepid (pesticide)", "Methoxyphenozide", "RG 102398", "Prodigy 240SC"], "SMILES": "C(N(NC(=O)C1=C(C)C(OC)=CC=C1)C(C)(C)C)(=O)C2=CC(C)=CC(C)=C2", "physical_data": {"Molecular Weight": "368.47", "Molecular Formula": "C22H28N2O3", "Melting Point": "204.5 \u00b0C"}}