{"cas_no": "1610-39-5", "cn_name": "\u5341\u4e8c\u6c22\u82ef\u5e76\u83f2", "en_name": ["Dodecahydrotriphenylene", "Triphenylene, 1,2,3,4,5,6,7,8,9,10,11,12-dodecahydro-", "1,2,3,4,5,6,7,8,9,10,11,12-Dodecahydrotriphenylene", "Tritetralin", "Dodecahydrotriphenylene", "NSC 26930"], "SMILES": "C=12C3=C(C4=C(C1CCCC2)CCCC4)CCCC3", "physical_data": {"Molecular Weight": "240.38", "Molecular Formula": "C18H24", "Boiling Point": "180-210 \u00b0C @ Press: 1.5 Torr", "Melting Point": "232-233 \u00b0C"}}