{"cas_no": "1611-92-3", "cn_name": "3,5-\u4e8c\u6eb4\u7532\u82ef", "en_name": ["3,5-Dibromotoluene", "Benzene, 1,3-dibromo-5-methyl-", "Toluene, 3,5-dibromo-", "1,3-Dibromo-5-methylbenzene", "3,5-Dibromotoluene", "NSC 87347", "5-Methyl-1,3-dibromobenzene"], "SMILES": "BrC1=CC(Br)=CC(C)=C1", "physical_data": {"Molecular Weight": "249.93", "Molecular Formula": "C7H6Br2", "Boiling Point": "98-100 \u00b0C @ Press: 8 Torr", "Melting Point": "201-202 \u00b0C"}}