{"cas_no": "16118-49-3", "cn_name": "\u5361\u8349\u80fa", "en_name": ["Carbetamide", "Propanamide, N-ethyl-2-[[(phenylamino)carbonyl]oxy]-, (2R)-", "Lactamide, N-ethyl-, carbanilate (ester), D-", "Propanamide, N-ethyl-2-[[(phenylamino)carbonyl]oxy]-, (R)-", "(2R)-N-Ethyl-2-[[(phenylamino)carbonyl]oxy]propanamide", "Carbetamide", "RP 11561", "11561RP", "Carbethamide", "Carbetamex", "Legurame PM"], "SMILES": "N(C(OC(C(NCC)=O)C)=O)C1=CC=CC=C1", "physical_data": {"Molecular Weight": "236.27", "Molecular Formula": "C12H16N2O3", "Melting Point": "119 \u00b0C"}}