{"cas_no": "16118-36-8", "cn_name": "DL-\u86cb\u6c28\u9178\u7532\u916f\u76d0\u9178\u76d0", "en_name": ["Methionine, methyl ester, hydrochloride (1:1)", "Methionine, methyl ester, hydrochloride (1:1)", "Methionine, methyl ester, hydrochloride, DL-", "DL-Methionine, methyl ester, hydrochloride", "Methionine, methyl ester, hydrochloride", "2-Amino-4-methylsulfanyl-butyric acid methyl ester", "hydrochloride"], "SMILES": "C(C(OC)=O)(CCSC)N.Cl", "physical_data": {"Molecular Weight": "", "Molecular Formula": "C6H13NO2S.ClH", "Melting Point": "109-111 \u00b0C"}}