{"cas_no": "1611-56-9", "cn_name": "11-\u6eb4-1-\u5341\u4e00\u9187", "en_name": ["11-Bromo-1-undecanol", "1-Undecanol, 11-bromo-", "11-Bromo-1-undecanol", "11-Bromoundecanyl alcohol", "11-Bromoundecan-1-ol", "11-Bromo-1-hydroxyundecane", "1-Bromo-11-hydroxyundecane", "\u03c9-Bromoundecyl alcohol", "1-Bromo-11-undecanol", "NSC 4029", "11-Bromoundecanol"], "SMILES": "C(CCCCCBr)CCCCCO", "physical_data": {"Molecular Weight": "251.20", "Molecular Formula": "C11H23BrO", "Boiling Point": "134-136 \u00b0C @ Press: 0.3 Torr", "Melting Point": "44-46 \u00b0C"}}