{"cas_no": "16110-98-8", "cn_name": "\u82ef\u57fa\u9a6c\u6765\u9178", "en_name": ["(2Z)-2-Phenyl-2-butenedioic acid", "2-Butenedioic acid, 2-phenyl-, (2Z)-", "Maleic acid, phenyl-", "2-Butenedioic acid, 2-phenyl-, (Z)-", "(2Z)-2-Phenyl-2-butenedioic acid", "Phenylmaleic acid", "2-Phenylmaleic acid"], "SMILES": "C(=CC(O)=O)(C(O)=O)C1=CC=CC=C1", "physical_data": {"Molecular Weight": "192.17", "Molecular Formula": "C10H8O4", "Melting Point": "186.5-188 \u00b0C"}}