{"cas_no": "1611-83-2", "cn_name": "N-\u82ef\u57fa\u7532\u57fa\u4e19\u70ef\u9170\u80fa", "en_name": ["N-Phenylmethacrylamide", "2-Propenamide, 2-methyl-N-phenyl-", "Methacrylanilide", "2-Methyl-N-phenyl-2-propenamide", "2-Methylacrylanilide", "N-Phenylmethacrylamide", "\u03b1-Methylacrylanilide", "NSC 32640", "2-Methyl-N-phenylacrylamide"], "SMILES": "N(C(C(C)=C)=O)C1=CC=CC=C1", "physical_data": {"Molecular Weight": "161.20", "Molecular Formula": "C10H11NO", "Melting Point": "84-85 \u00b0C"}}