{"cas_no": "1611-03-6", "cn_name": "3,5-\u4e8c-\u53d4-\u4e01\u57fa-4-\u7f9f\u57fa\u82ef\u4e59\u9178", "en_name": ["3,5-Bis(1,1-dimethylethyl)-4-hydroxybenzeneacetic acid", "Benzeneacetic acid, 3,5-bis(1,1-dimethylethyl)-4-hydroxy-", "Acetic acid, (3,5-di-tert-butyl-4-hydroxyphenyl)-", "3,5-Bis(1,1-dimethylethyl)-4-hydroxybenzeneacetic acid", "3,5-Di-tert-butyl-4-hydroxyphenylacetic acid", "2,6-Di-tert-butyl-4-(carboxymethyl)phenol", "(4-Hydroxy-3,5-di-tert-butylphenyl)acetic acid", "2-(3,5-Di-tert-butyl-4-hydroxyphenyl)acetic acid", "2-[3,5-Di(tert-butyl)-4-hydroxyphenyl]acetic acid"], "SMILES": "C(C)(C)(C)C1=C(O)C(C(C)(C)C)=CC(CC(O)=O)=C1", "physical_data": {"Molecular Weight": "264.36", "Molecular Formula": "C16H24O3", "Melting Point": "158-159 \u00b0C"}}