{"cas_no": "16110-09-1", "cn_name": "2,5-\u4e8c\u6c2f\u5421\u5576", "en_name": ["2,5-Dichloropyridine", "Pyridine, 2,5-dichloro-", "2,5-Dichloropyridine", "NSC 528661", "5-Chloro-2-chloropyridine"], "SMILES": "ClC=1C=CC(Cl)=NC1", "physical_data": {"Molecular Weight": "147.99", "Molecular Formula": "C5H3Cl2N", "Melting Point": "59-62 \u00b0C"}}