{"cas_no": "161172-51-6", "cn_name": "Etalocib", "en_name": ["2-[2-Propyl-3-[3-[2-ethyl-4-(4-fluorophenyl)-5-hydroxyphenoxy]propoxy]phenoxy]benzoic acid", "Benzoic acid, 2-[3-[3-[(5-ethyl-4\u2032-fluoro-2-hydroxy[1,1\u2032-biphenyl]-4-yl)oxy]propoxy]-2-propylphenoxy]-", "2-[3-[3-[(5-Ethyl-4\u2032-fluoro-2-hydroxy[1,1\u2032-biphenyl]-4-yl)oxy]propoxy]-2-propylphenoxy]benzoic acid", "LY 293111", "VML 295", "2-[2-Propyl-3-[3-[2-ethyl-4-(4-fluorophenyl)-5-hydroxyphenoxy]propoxy]phenoxy]benzoic acid", "Etalocib"], "SMILES": "O(C1=C(CCC)C(OCCCOC2=C(CC)C=C(C(O)=C2)C3=CC=C(F)C=C3)=CC=C1)C4=C(C(O)=O)C=CC=C4", "physical_data": {"Molecular Weight": "544.61", "Molecular Formula": "C33H33FO6", "Melting Point": "68-70 \u00b0C"}}