{"cas_no": "16110-51-3", "cn_name": "\u8272\u7518\u9178", "en_name": ["Cromolyn", "4H-1-Benzopyran-2-carboxylic acid, 5,5\u2032-[(2-hydroxy-1,3-propanediyl)bis(oxy)]bis[4-oxo-", "4H-1-Benzopyran-2-carboxylic acid, 5,5\u2032-[(2-hydroxytrimethylene)dioxy]bis[4-oxo-", "5,5\u2032-[(2-Hydroxy-1,3-propanediyl)bis(oxy)]bis[4-oxo-4H-1-benzopyran-2-carboxylic acid]", "Cromoglicic acid", "5,5\u2032-(2-Hydroxytrimethylenedioxy)bis[4-oxo-4H-1-benzopyran-2-carboxylic acid]", "Cromoglycic acid", "Cromolyn", "5,5\u2032-(2-Hydroxy-1,3-propanediyldioxy)bis(4-oxo-4H-1-benzopyran-2-carboxylic acid)", "5,5\u2032-(2-Hydroxytrimethylenedioxy)bis(4-oxochromene-2-carboxylic acid)", "1,3-Bis(2-carboxychromon-5-yloxy)-2-hydroxypropane", "1,3-Di(2-carboxy-4-oxochromen-5-yloxy)propan-2-ol", "1,3-Bis(2-carboxychromon-5-yloxy)propan-2-ol", "Duracroman", "1,3-Bis(2-carboxychromone-7-yloxy)-2-hydroxypropane", "TS 277"], "SMILES": "O(CC(COC1=C2C(OC(C(O)=O)=CC2=O)=CC=C1)O)C3=C4C(OC(C(O)=O)=CC4=O)=CC=C3", "physical_data": {"Molecular Weight": "468.37", "Molecular Formula": "C23H16O11", "Melting Point": "241-242 \u00b0C (decomp)"}}