{"cas_no": "1612-76-6", "cn_name": "5-\u82ef\u57fa-2-\u6c28\u57fa-1,3,4-\u5641\u4e8c\u5511", "en_name": ["2-Amino-5-phenyl-1,3,4-oxadiazole", "1,3,4-Oxadiazol-2-amine, 5-phenyl-", "1,3,4-Oxadiazole, 2-amino-5-phenyl-", "5-Phenyl-1,3,4-oxadiazol-2-amine", "2-Amino-5-phenyl-1,3,4-oxadiazole", "5-Phenyl-1,3,4-oxadiazol-2-ylamine", "NSC 116132"], "SMILES": "NC=1OC(=NN1)C2=CC=CC=C2", "physical_data": {"Molecular Weight": "161.16", "Molecular Formula": "C8H7N3O", "Melting Point": "242 \u00b0C"}}