{"cas_no": "161265-03-8", "cn_name": "4,5-\u53cc\u4e8c\u82ef\u57fa\u81a6-9,9-\u4e8c\u7532\u57fa\u6c27\u6742\u84bd", "en_name": ["1,1\u2032-(9,9-Dimethyl-9H-xanthene-4,5-diyl)bis[1,1-diphenylphosphine]", "Phosphine, 1,1\u2032-(9,9-dimethyl-9H-xanthene-4,5-diyl)bis[1,1-diphenyl-", "Phosphine, (9,9-dimethyl-9H-xanthene-4,5-diyl)bis[diphenyl-", "1,1\u2032-(9,9-Dimethyl-9H-xanthene-4,5-diyl)bis[1,1-diphenylphosphine]", "Xantphos", "(9,9-Dimethyl-9H-xanthene-4,5-diyl)bis[diphenylphosphine]", "4,5-Bis(diphenylphosphino)-9,9-dimethylxanthene", "9,9-Dimethyl-4,5-bis(diphenylphosphino)xanthene", "4,5-Bis(diphenylphosphino)-9,9-dimethyl-9H-xanthene", "9,9-Dimethyl-4,5-bis(diphenylphosphino)-9H-xanthene", "(9,9-dimethyl-9H-xanthene-4,5-diyl)bis(diphenylphosphane)", "(5-Diphenylphosphanyl-9,9-dimethylxanthen-4-yl)-diphenylphosphane", "(9,9-Dimethyl-9H-xanthene-4,5-diyl)bis(diphenylphosphine)"], "SMILES": "P(C1=C2C(C(C)(C)C=3C(O2)=C(P(C4=CC=CC=C4)C5=CC=CC=C5)C=CC3)=CC=C1)(C6=CC=CC=C6)C7=CC=CC=C7", "physical_data": {"Molecular Weight": "578.62", "Molecular Formula": "C39H32OP2", "Melting Point": "229-230 \u00b0C"}}