{"cas_no": "16128-68-0", "cn_name": "1,2-\u4e01\u4e8c\u786b\u9187", "en_name": ["1,2-Butanedithiol", "1,2-Butanedithiol", "1,2-Dithiolbutane", "1,2-Dimercaptobutane", "1-Ethyl-1,2-ethanedithiol"], "SMILES": "C(CC)(CS)S", "physical_data": {"Molecular Weight": "122.25", "Molecular Formula": "C4H10S2", "Boiling Point": "49 \u00b0C @ Press: 5 Torr", "Density": "1.039 g/cm\u00b3 @ Temp: 20 \u00b0C"}}