{"cas_no": "1613-37-2", "cn_name": "\u55b9\u5549-N-\u6c27\u5316\u7269", "en_name": ["Quinoline N-oxide", "Quinoline, 1-oxide", "Quinoline N-oxide", "Quinoline oxide", "1-Oxidoquinolin-1-ium"], "SMILES": "O=N=1C2=C(C=CC1)C=CC=C2", "physical_data": {"Molecular Weight": "145.16", "Molecular Formula": "C9H7NO", "Boiling Point": "155-160 \u00b0C @ Press: 3 Torr", "Melting Point": "50-52 \u00b0C"}}