{"cas_no": "16133-49-6", "cn_name": "5-\u7532\u6c27\u57fa-2-\u785d\u57fa\u82ef\u80fa", "en_name": ["5-Methoxy-2-nitrobenzenamine", "Benzenamine, 5-methoxy-2-nitro-", "m-Anisidine, 6-nitro-", "5-Methoxy-2-nitrobenzenamine", "5-Methoxy-2-nitroaniline", "2-Nitro-5-methoxyaniline", "(5-Methoxy-2-nitrophenyl)amine", "3-Methoxy-6-nitroaniline"], "SMILES": "N(=O)(=O)C1=C(N)C=C(OC)C=C1", "physical_data": {"Molecular Weight": "168.15", "Molecular Formula": "C7H8N2O3", "Melting Point": "131 \u00b0C"}}