{"cas_no": "16136-58-6", "cn_name": "1-\u7532\u57fa\u5432\u54da-2-\u7532\u9178", "en_name": ["1-Methyl-1H-indole-2-carboxylic acid", "1H-Indole-2-carboxylic acid, 1-methyl-", "Indole-2-carboxylic acid, 1-methyl-", "1-Methyl-1H-indole-2-carboxylic acid", "1-Methylindole-2-carboxylic acid", "N-Methyl-2-indolecarboxylic acid", "NSC 68357"], "SMILES": "CN1C=2C(C=C1C(O)=O)=CC=CC2", "physical_data": {"Molecular Weight": "175.18", "Molecular Formula": "C10H9NO2", "Melting Point": "214 \u00b0C"}}