{"cas_no": "1613-66-7", "cn_name": "\u4e8c\u82ef\u57fa\u4e8c\u6c2f\u5316\u9517", "en_name": ["Dichlorodiphenylgermane", "Germane, dichlorodiphenyl-", "Dichlorodiphenylgermane", "Diphenylgermanium dichloride", "Diphenyldichlorogermane", "Diphenyldichlorogermanium", "Dichlorodiphenylgermanium", "NSC 166301"], "SMILES": "[Ge](Cl)(Cl)(C1=CC=CC=C1)C2=CC=CC=C2", "physical_data": {"Molecular Weight": "297.75", "Molecular Formula": "C12H10Cl2Ge", "Boiling Point": "223 \u00b0C @ Press: 12 Torr", "Melting Point": "9 \u00b0C", "Density": "1.41 g/cm\u00b3 @ Temp: 25 \u00b0C"}}