{"cas_no": "16139-18-7", "cn_name": "\u6c28\u57fa\u80cd\u76d0\u9178\u76d0", "en_name": ["Aminoguanidine hydrochloride", "Hydrazinecarboximidamide, hydrochloride (1:?)", "Guanidine, amino-, hydrochloride", "Hydrazinecarboximidamide, hydrochloride", "Aminoguanidine hydrochloride", "Amidinohydrazine hydrochloride", "1-Aminoguanidine hydrochloride"], "SMILES": "C(NN)(=N)N.Cl", "physical_data": {"Molecular Weight": "", "Molecular Formula": "CH6N4.xClH", "Melting Point": "160-162 \u00b0C (decomp)"}}