{"cas_no": "1613-51-0", "cn_name": "\u786b\u5316\u73af\u620a\u70f7", "en_name": ["Tetrahydrothiopyran", "2H-Thiopyran, tetrahydro-", "Thiopyran, tetrahydro-", "Thiapyran, tetrahydro-", "Tetrahydro-2H-thiopyran", "Pentamethylene sulfide", "Penthiophane", "Tetrahydrothiopyran", "Thiacyclohexane", "Thiane", "Tetrahydrothiapyran", "NSC 9459"], "SMILES": "C1CCSCC1", "physical_data": {"Molecular Weight": "102.20", "Molecular Formula": "C5H10S", "Boiling Point": "141.8 \u00b0C", "Melting Point": "19 \u00b0C", "Density": "0.9943 g/cm\u00b3 @ Temp: 18 \u00b0C"}}