{"cas_no": "1613-86-1", "cn_name": "4-\u785d\u57fa\u82c4\u80fa\u809f", "en_name": ["4-Nitrobenzamidoxime", "Benzenecarboximidamide, N-hydroxy-4-nitro-", "Benzamidoxime, p-nitro-", "N-Hydroxy-4-nitrobenzenecarboximidamide", "Benzamide, p-nitro-, oxime", "p-Nitrobenzamidoxime", "p-Nitrobenzamide oxime", "4-Nitrobenzamidoxime", "N-Hydroxy-4-nitrobenzamidine", "N\u2032-Hydroxy-4-nitrobenzene-1-carboximidamide", "4-Nitrobenzamide oxime"], "SMILES": "C(NO)(=N)C1=CC=C(N(=O)=O)C=C1", "physical_data": {"Molecular Weight": "181.15", "Molecular Formula": "C7H7N3O3", "Melting Point": "180 \u00b0C"}}