{"cas_no": "16136-85-9", "cn_name": "1-\u6c2f\u4e19\u70ef(\u987a\u53cd\u6df7\u5408\u7269)", "en_name": ["1-Propene, 1-chloro-, (1E)-", "1-Propene, 1-chloro-, (1E)-", "Propene, 1-chloro-, (E)-", "1-Propene, 1-chloro-, (E)-", "Propene, 1-chloro-, trans-", "trans-1-Chloropropene", "trans-1-Chloro-1-propene", "(E)-1-Chloro-1-propene", "trans-1-Propenyl chloride", "(E)-1-Chloropropene", "(E)-1-Chloro-1-propene"], "SMILES": "C(=CCl)C", "physical_data": {"Molecular Weight": "76.52", "Molecular Formula": "C3H5Cl", "Boiling Point": "37.4 \u00b0C", "Melting Point": "-99 \u00b0C"}}