{"cas_no": "16144-91-5", "cn_name": "3',6'-\u4e8c\u7f9f\u57fa\u82ef\u5e76\u964d\u51b0\u7247\u70ef", "en_name": ["1,2,3,4-Tetrahydro-1,4-methanonaphthalene-5,8-diol", "1,4-Methanonaphthalene-5,8-diol, 1,2,3,4-tetrahydro-", "1,2,3,4-Tetrahydro-1,4-methanonaphthalene-5,8-diol", "3,6-Dihydroxybenzonorbornane", "5,8-Dihydroxy-1,2,3,4-tetrahydro-1,4-methanonaphthalene", "5,8-Methano-5,6,7,8-tetrahydro-1,4-dihydroxynaphthalene", "5,8-Dihydroxy-1,4-methano-1,2,3,4-tetrahydronaphthalene"], "SMILES": "OC1=C2C(C3CC2CC3)=C(O)C=C1", "physical_data": {"Molecular Weight": "176.21", "Molecular Formula": "C11H12O2", "Melting Point": "176-177 \u00b0C"}}