{"cas_no": "16142-27-1", "cn_name": "5-\u6c28\u57fa-3-(4-\u5417\u5549\u57fa)-1,2,3-\u6076\u4e8c\u5511\u76d0\u9178\u76d0", "en_name": ["3-Morpholinosydnonimine hydrochloride", "1,2,3-Oxadiazolium, 5-amino-3-(4-morpholinyl)-, chloride (1:1)", "Sydnone imine, 3-morpholino-, monohydrochloride", "Sydnone imine, 3-(4-morpholinyl)-, monohydrochloride", "1,2,3-Oxadiazolium, 5-amino-3-(4-morpholinyl)-, chloride", "3-Morpholinosydnonimine hydrochloride", "3-Morpholinosydnone imine monohydrochloride", "Linsidomine chlorhydrate", "Linsidomine hydrochloride", "5-Amino-3-(4-morpholinyl)-1,2,3-oxadiazolium chloride"], "SMILES": "NC1=C[N+](=NO1)N2CCOCC2.[Cl-]", "physical_data": {"Molecular Weight": "", "Molecular Formula": "C6H11N4O2.Cl", "Melting Point": "171-173 \u00b0C (decomp)"}}