{"cas_no": "1614-12-6", "cn_name": "1-\u6c28\u57fa\u82ef\u5e76\u4e09\u5511", "en_name": ["1-Aminobenzotriazole", "1H-Benzotriazol-1-amine", "1H-Benzotriazole, 1-amino-", "1-Aminobenzotriazole", "1-Benzotriazolylamine", "NSC 114498", "NSC 656987", "3-Aminobenzotriazole", "1-Amino-1,2,3-benzotriazole", "1H-Benzo[d][1,2,3]triazol-1-amine", "1H-1,2,3-Benzotriazol-1-amine"], "SMILES": "NN1C=2C(=CC=CC2)N=N1", "physical_data": {"Molecular Weight": "134.14", "Molecular Formula": "C6H6N4", "Melting Point": "84 \u00b0C"}}