{"cas_no": "1614-82-0", "cn_name": "2,7-\u4e8c\u7532\u6c27\u57fa-1,4,5,8-\u56db\u6c22\u8418", "en_name": ["1,4,5,8-Tetrahydro-2,7-dimethoxynaphthalene", "Naphthalene, 1,4,5,8-tetrahydro-2,7-dimethoxy-", "1,4,5,8-Tetrahydro-2,7-dimethoxynaphthalene", "2,7-Dimethoxy-1,4,5,8-tetrahydronaphthalene"], "SMILES": "O(C)C=1CC2=C(CC=C(OC)C2)CC1", "physical_data": {"Molecular Weight": "192.25", "Molecular Formula": "C12H16O2", "Melting Point": "67-68 \u00b0C"}}