{"cas_no": "16156-59-5", "cn_name": "\u7532\u78fa\u9178\u82ef\u916f", "en_name": ["Phenyl methanesulfonate", "Methanesulfonic acid, phenyl ester", "Phenyl methanesulfonate", "Phenyl mesylate", "NSC 243664", "Phenoxy methyl sulfone"], "SMILES": "O(S(C)(=O)=O)C1=CC=CC=C1", "physical_data": {"Molecular Weight": "172.20", "Molecular Formula": "C7H8O3S", "Melting Point": "61.5 \u00b0C"}}