{"cas_no": "1615-02-7", "cn_name": "\u5bf9\u6c2f\u8089\u6842\u9178", "en_name": ["4-Chlorocinnamic acid", "2-Propenoic acid, 3-(4-chlorophenyl)-", "Cinnamic acid, p-chloro-", "3-(4-Chlorophenyl)-2-propenoic acid", "p-Chlorocinnamic acid", "4-Chlorocinnamic acid", "3-(p-Chlorophenyl)acrylic acid", "3-(4-Chlorophenyl)propenoic acid", "3-(4-Chlorophenyl)acrylic acid", "NSC 1509", "NSC 2756"], "SMILES": "C(=CC(O)=O)C1=CC=C(Cl)C=C1", "physical_data": {"Molecular Weight": "182.60", "Molecular Formula": "C9H7ClO2", "Melting Point": "248 \u00b0C"}}