{"cas_no": "16156-54-0", "cn_name": "\u7532\u78fa\u9178\u4ef2\u4e01\u916f", "en_name": ["1-Methylpropyl methanesulfonate", "Methanesulfonic acid, 1-methylpropyl ester", "Methanesulfonic acid, sec-butyl ester", "1-Methylpropyl methanesulfonate", "sec-Butyl methanesulfonate", "sec-Butyl mesylate", "2-Butyl methanesulfonate", "2-Butyl mesylate"], "SMILES": "O(S(C)(=O)=O)C(CC)C", "physical_data": {"Molecular Weight": "152.21", "Molecular Formula": "C5H12O3S", "Boiling Point": "61.4-61.5 \u00b0C @ Press: 0.5 Torr", "Density": "1.1053 g/cm\u00b3 @ Temp: 25 \u00b0C"}}