{"cas_no": "1615-14-1", "cn_name": "1-(2-\u7f9f\u4e59\u57fa)\u54aa\u5511", "en_name": ["Imidazole-1-ethanol", "1H-Imidazole-1-ethanol", "Imidazole-1-ethanol", "1-(\u03b2-Hydroxyethyl)imidazole", "1-(2-Hydroxyethyl)imidazole", "2-(1\u2032-Imidazolyl)ethanol", "2-(Imidazol-1-yl)ethanol", "N-(2-Hydroxyethyl)imidazole", "N-(2-Hydroxyethyl)-1H-imidazole", "1-(2\u2032-Hydroxyethyl)imidazole", "2-(1H-Imidazol-1-yl)ethanol", "1-(2-Hydroxyethyl)-1H-imidazole", "2-(1H-Imidazol-1-yl)ethan-1-ol"], "SMILES": "C(CO)N1C=CN=C1", "physical_data": {"Molecular Weight": "112.13", "Molecular Formula": "C5H8N2O", "Boiling Point": "202-206 \u00b0C @ Press: 20 Torr", "Melting Point": "39 \u00b0C"}}