{"cas_no": "16156-53-9", "cn_name": "\u7532\u78fa\u9178\u5f02\u4e01\u916f", "en_name": ["Methanesulfonic acid, 2-methylpropyl ester", "Methanesulfonic acid, 2-methylpropyl ester", "Methanesulfonic acid, isobutyl ester", "Isobutyl methanesulfonate", "2-Methylpropyl methanesulfonate", "2-Methyl-1-propyl methanesulfonate"], "SMILES": "O(S(C)(=O)=O)CC(C)C", "physical_data": {"Molecular Weight": "152.21", "Molecular Formula": "C5H12O3S", "Boiling Point": "99-101 \u00b0C @ Press: 11.6 Torr"}}