{"cas_no": "1615-15-2", "cn_name": "1-(\u03b2-\u7f9f\u4e59\u57fa)-2-\u7532\u57fa\u54aa\u5511", "en_name": ["2-Methyl-1H-imidazole-1-ethanol", "1H-Imidazole-1-ethanol, 2-methyl-", "Imidazole-1-ethanol, 2-methyl-", "2-Methyl-1H-imidazole-1-ethanol", "1-(\u03b2-Hydroxyethyl)-2-methylimidazole", "1-(2-Hydroxyethyl)-2-methylimidazole", "1-(2\u2032-Hydroxyethyl)-2-methylimidazole", "2-(2-Methyl-1H-imidazol-1-yl)ethanol", "2-Methyl-1-(2-hydroxyethyl)imidazole", "2-(2-Methyl-1H-imidazol-1-yl)ethan-1-ol", "2-(2-Methylimidazol-1-yl)ethanol"], "SMILES": "C(CO)N1C(C)=NC=C1", "physical_data": {"Molecular Weight": "126.16", "Molecular Formula": "C6H10N2O", "Boiling Point": "130-133 \u00b0C @ Press: 0.15-0.25 Torr", "Melting Point": "63-65 \u00b0C"}}