{"cas_no": "16154-72-6", "cn_name": "1-(4-\u6c28\u57fa-2-\u6c2f\u82ef\u57fa)-4-\u7532\u57fa\u54cc\u55ea", "en_name": ["3-Chloro-4-(4-methyl-1-piperazinyl)benzenamine", "Benzenamine, 3-chloro-4-(4-methyl-1-piperazinyl)-", "Piperazine, 1-(4-amino-2-chlorophenyl)-4-methyl-", "3-Chloro-4-(4-methyl-1-piperazinyl)benzenamine", "3-Chloro-4-(4-methyl-1-piperazinyl)aniline", "[3-Chloro-4-(4-methylpiperazin-1-yl)phenyl]amine", "1-(4-Amino-2-chlorophenyl)-4-methylpiperazine"], "SMILES": "ClC1=C(N2CCN(C)CC2)C=CC(N)=C1", "physical_data": {"Molecular Weight": "225.72", "Molecular Formula": "C11H16ClN3", "Melting Point": "141 \u00b0C"}}