{"cas_no": "161513-47-9", "cn_name": "(S)-(\u73af\u6c27\u4e59\u70f7\u7532\u57fa)\u6c28\u57fa\u7532\u9178\u53d4\u4e01\u916f", "en_name": ["1,1-Dimethylethyl N-[(2S)-2-oxiranylmethyl]carbamate", "Carbamic acid, N-[(2S)-2-oxiranylmethyl]-, 1,1-dimethylethyl ester", "Carbamic acid, (oxiranylmethyl)-, 1,1-dimethylethyl ester, (S)-", "Carbamic acid, [(2S)-oxiranylmethyl]-, 1,1-dimethylethyl ester", "1,1-Dimethylethyl N-[(2S)-2-oxiranylmethyl]carbamate", "tert-Butyl (2S)-oxiranylmethylcarbamate", "((2S)-Oxiranylmethyl)carbamic acid 1,1-dimethylethyl Ester", "(S)-N-((Oxiran-2-yl)methyl)carbamate tert-butyl ester", "(S)-tert-Butyl (oxiran-2-ylmethyl)carbamate"], "SMILES": "C(NC(OC(C)(C)C)=O)C1CO1", "physical_data": {"Molecular Weight": "173.21", "Molecular Formula": "C8H15NO3", "Melting Point": "45-49 \u00b0C"}}