{"cas_no": "1615-94-7", "cn_name": "SIMIARENOL", "en_name": ["Simiarenol", "A\u2032-Neo-25,26,28-trinorgammacer-5-en-3-ol, 9,13,17-trimethyl-, (3\u03b2,8\u03b2,9\u03b1,10\u03b1,13\u03b2,14\u03b1,17\u03b1,18\u03b2)-", "Simiarenol", "D:B-Friedo-B\u2032:A\u2032-neogammacer-5-en-3\u03b2-ol", "D:B-Friedo-B\u2032:A\u2032-neogammacer-5-en-3-ol, (3\u03b2)-", "(3\u03b2,8\u03b2,9\u03b1,10\u03b1,13\u03b2,14\u03b1,17\u03b1,18\u03b2)-9,13,17-Trimethyl-A\u2032-neo-25,26,28-trinorgammacer-5-en-3-ol", "E:B-Friedohop-5-en-3\u03b2-ol", "\u03b2-Simiarenol", "Simiaren-3\u03b2-ol", "Adian-5-en-3\u03b2-ol"], "SMILES": "CC12C3C(C)(C4C(=CC3)C(C)(C)C(O)CC4)CCC1(C)C5C(C)(CC2)C(C(C)C)CC5", "physical_data": {"Molecular Weight": "426.72", "Molecular Formula": "C30H50O", "Melting Point": "209-210 \u00b0C"}}