{"cas_no": "16150-45-1", "cn_name": "\u8272\u7518\u9178\u4e8c\u4e59\u916f", "en_name": ["2,2\u2032-Diethyl 5,5\u2032-[(2-hydroxy-1,3-propanediyl)bis(oxy)]bis[4-oxo-4H-1-benzopyran-2-carboxylate]", "4H-1-Benzopyran-2-carboxylic acid, 5,5\u2032-[(2-hydroxy-1,3-propanediyl)bis(oxy)]bis[4-oxo-, 2,2\u2032-diethyl ester", "4H-1-Benzopyran-2-carboxylic acid, 5,5\u2032-[(2-hydroxytrimethylene)dioxy]bis[4-oxo-, diethyl ester", "4H-1-Benzopyran-2-carboxylic acid, 5,5\u2032-[(2-hydroxy-1,3-propanediyl)bis(oxy)]bis[4-oxo-, diethyl ester", "2,2\u2032-Diethyl 5,5\u2032-[(2-hydroxy-1,3-propanediyl)bis(oxy)]bis[4-oxo-4H-1-benzopyran-2-carboxylate]", "Cromoglycic acid diethyl ester", "Diethyl cromoglycate", "Cromophene"], "SMILES": "O(CC(COC1=C2C(OC(C(OCC)=O)=CC2=O)=CC=C1)O)C3=C4C(OC(C(OCC)=O)=CC4=O)=CC=C3", "physical_data": {"Molecular Weight": "524.47", "Molecular Formula": "C27H24O11", "Melting Point": "180-182 \u00b0C"}}