{"cas_no": "161599-46-8", "cn_name": "2',3'-\u4e8c-O-\u4e59\u9170\u57fa-5'-\u8131\u6c27-5-\u6c1f-D-\u80de\u5576", "en_name": ["Cytidine, 5\u2032-deoxy-5-fluoro-, 2\u2032,3\u2032-diacetate", "Cytidine, 5\u2032-deoxy-5-fluoro-, 2\u2032,3\u2032-diacetate", "5\u2032-Deoxy-2\u2032,3\u2032-di-O-acetyl-5-fluorocytidine", "2\u2032,3\u2032-Di-O-acetyl-5\u2032-deoxy-5-fluorocytidine", "2\u2032,3\u2032-Di-O-acetyl-5\u2032-deoxy-5-fluorocytidine"], "SMILES": "O(C(C)=O)C1C(OC(C)C1OC(C)=O)N2C(=O)N=C(N)C(F)=C2", "physical_data": {"Molecular Weight": "329.28", "Molecular Formula": "C13H16FN3O6", "Melting Point": "81-83 \u00b0C"}}