{"cas_no": "16150-44-0", "cn_name": "1,3-\u53cc(2-\u4e59\u9170\u57fa-3-\u7f9f\u57fa\u82ef\u6c27\u57fa)-2-\u4e19\u9187", "en_name": ["1,3-Bis(2-acetyl-3-hydroxyphenoxy)-2-propanol", "Ethanone, 1,1\u2032-[(2-hydroxy-1,3-propanediyl)bis[oxy(6-hydroxy-2,1-phenylene)]]bis-", "Acetophenone, 2\u2032,2\u2032\u2032\u2032-[(2-hydroxytrimethylene)dioxy]bis[6\u2032-hydroxy-", "1,1\u2032-[(2-Hydroxy-1,3-propanediyl)bis[oxy(6-hydroxy-2,1-phenylene)]]bis[ethanone]", "1,3-Bis(2-acetyl-3-hydroxyphenoxy)-2-hydroxypropane", "1,3-Bis(2-acetyl-3-hydroxyphenoxy)-2-propanol", "1-[2-[3-(2-Acetyl-3-hydroxyphenoxy)-2-hydroxypropoxy]-6-hydroxyphenyl]ethanone"], "SMILES": "C(C)(=O)C1=C(OCC(COC2=C(C(C)=O)C(O)=CC=C2)O)C=CC=C1O", "physical_data": {"Molecular Weight": "360.36", "Molecular Formula": "C19H20O7", "Melting Point": "168 \u00b0C"}}