{"cas_no": "16154-62-4", "cn_name": "1-(2-\u6c2f-4-\u785d\u57fa\u82ef\u57fa)-4-\u7532\u57fa\u54cc\u55ea", "en_name": ["1-(2-Chloro-4-nitrophenyl)-4-methylpiperazine", "Piperazine, 1-(2-chloro-4-nitrophenyl)-4-methyl-", "1-(2-Chloro-4-nitrophenyl)-4-methylpiperazine"], "SMILES": "ClC1=C(C=CC(N(=O)=O)=C1)N2CCN(C)CC2", "physical_data": {"Molecular Weight": "255.70", "Molecular Formula": "C11H14ClN3O2", "Melting Point": "106 \u00b0C"}}