{"cas_no": "1615-80-1", "cn_name": "N\uff0cN-\u4e8c\u4e59\u80bc", "en_name": ["1,2-Diethylhydrazine", "Hydrazine, 1,2-diethyl-", "1,2-Diethylhydrazine", "N,N\u2032-Diethylhydrazine"], "SMILES": "N(NCC)CC", "physical_data": {"Molecular Weight": "88.15", "Molecular Formula": "C4H12N2", "Boiling Point": "85.5 \u00b0C", "Density": "0.797 g/cm\u00b3 @ Temp: 26 \u00b0C"}}