{"cas_no": "1616-93-9", "cn_name": "\u0392-\u9999\u6811\u8102\u9187\u4e59\u9178\u916f", "en_name": ["\u03b2-Amyrin acetate", "Olean-12-en-3-ol, 3-acetate, (3\u03b2)-", "Olean-12-en-3\u03b2-ol, acetate", "Olean-12-en-3-ol, acetate, (3\u03b2)-", "\u03b2-Amyrin acetate", "O-Acetyl-\u03b2-amyrin", "3-O-Acetyl-\u03b2-amyrin", "3\u03b2-Acetoxyolean-12-ene", "\u03b2-Amyrin 3-acetate", "NSC 403166", "Olean-12-en-3-yl acetate"], "SMILES": "CC12C(C3(C)C(CC1)C(C)(C)C(OC(C)=O)CC3)CC=C4C2(C)CCC5(C)C4CC(C)(C)CC5", "physical_data": {"Molecular Weight": "468.75", "Molecular Formula": "C32H52O2", "Melting Point": "240-241 \u00b0C"}}