{"cas_no": "161796-78-7", "cn_name": "\u57c3\u7d22\u7f8e\u62c9\u5511\u94a0", "en_name": ["Esomeprazole sodium", "1H-Benzimidazole, 6-methoxy-2-[(S)-[(4-methoxy-3,5-dimethyl-2-pyridinyl)methyl]sulfinyl]-, sodium salt (1:1)", "1H-Benzimidazole, 5-methoxy-2-[[(4-methoxy-3,5-dimethyl-2-pyridinyl)methyl]sulfinyl]-, sodium salt, (S)-", "1H-Benzimidazole, 5-methoxy-2-[(S)-[(4-methoxy-3,5-dimethyl-2-pyridinyl)methyl]sulfinyl]-, sodium salt", "Esomeprazole sodium", "H 199/18 sodium", "S-Omeprazole sodium", "(S)-Omeprazole sodium", "Esomeprazole sodium salt", "(S)-5-Methoxy-2-[[(4-methoxy-3,5-dimethyl-2-pyridinyl)methyl]sulfinyl]-1H-benzimidazole sodium salt"], "SMILES": "S(CC1=C(C)C(OC)=C(C)C=N1)(=O)C=2NC=3C(N2)=CC=C(OC)C3.[Na]", "physical_data": {"Molecular Weight": "", "Molecular Formula": "C17H19N3O3S.Na", "Melting Point": "~156 \u00b0C (approx)"}}