{"cas_no": "161715-24-8", "cn_name": "\u6cf0\u6bd4\u57f9\u5357\u916f", "en_name": ["Tebipenem pivoxil", "1-Azabicyclo[3.2.0]hept-2-ene-2-carboxylic acid, 3-[[1-(4,5-dihydro-2-thiazolyl)-3-azetidinyl]thio]-6-[(1R)-1-hydroxyethyl]-4-methyl-7-oxo-, (2,2-dimethyl-1-oxopropoxy)methyl ester, (4R,5S,6S)-", "1-Azabicyclo[3.2.0]hept-2-ene-2-carboxylic acid, 3-[[1-(4,5-dihydro-2-thiazolyl)-3-azetidinyl]thio]-6-(1-hydroxyethyl)-4-methyl-7-oxo-, (2,2-dimethyl-1-oxopropoxy)methyl ester, [4R-[4\u03b1,5\u03b2,6\u03b2(R*)]]-", "Tebipenem pivoxil", "L 084", "Orapenem", "SPR 994"], "SMILES": "C(OCOC(C(C)(C)C)=O)(=O)C=1N2C(C(C(C)O)C2=O)C(C)C1SC3CN(C3)C4=NCCS4", "physical_data": {"Molecular Weight": "497.63", "Molecular Formula": "C22H31N3O6S2", "Melting Point": "140-142 \u00b0C"}}