{"cas_no": "161798-01-2", "cn_name": "2-(3-\u919b\u57fa-4-\u7f9f\u57fa\u82ef\u57fa)-4-\u7532\u57fa\u567b\u5511-5-\u7fa7\u9178\u4e59\u916f", "en_name": ["5-Thiazolecarboxylic acid, 2-(3-formyl-4-hydroxyphenyl)-4-methyl-, ethyl ester", "5-Thiazolecarboxylic acid, 2-(3-formyl-4-hydroxyphenyl)-4-methyl-, ethyl ester", "Ethyl 2-(3-formyl-4-hydroxyphenyl)-4-methylthiazole-5-carboxylate"], "SMILES": "C(OCC)(=O)C=1SC(=NC1C)C2=CC(C=O)=C(O)C=C2", "physical_data": {"Molecular Weight": "291.32", "Molecular Formula": "C14H13NO4S", "Melting Point": "96-100 \u00b0C"}}