{"cas_no": "161797-99-5", "cn_name": "2-(4-\u7f9f\u57fa\u82ef\u57fa)-4-\u7532\u57fa\u567b\u5511-5-\u7fa7\u9178\u4e59\u916f", "en_name": ["Ethyl 2-(4-hydroxyphenyl)-4-methyl-5-thiazolecarboxylate", "5-Thiazolecarboxylic acid, 2-(4-hydroxyphenyl)-4-methyl-, ethyl ester", "Ethyl 2-(4-hydroxyphenyl)-4-methyl-5-thiazolecarboxylate", "Ethyl 2-(4-hydroxyphenyl)-4-methyl-1,3-thiazole-5-carboxylate", "2-(4-Hydroxyphenyl)-4-methylthiazole-5-carboxylic acid ethyl ester"], "SMILES": "C(OCC)(=O)C=1SC(=NC1C)C2=CC=C(O)C=C2", "physical_data": {"Molecular Weight": "263.31", "Molecular Formula": "C13H13NO3S", "Melting Point": "180 \u00b0C"}}