{"cas_no": "1617-70-5", "cn_name": "\u7fbd\u6247\u70ef\u916e", "en_name": ["Lupenone", "Lup-20(29)-en-3-one", "Lupenone", "Lup-20(30)-en-3-one", "9H-Cyclopenta[a]chrysene, lup-20(29)-en-3-one deriv.", "NSC 281807", "Lupine ketene"], "SMILES": "CC12C(C3C(C)(CC1)CCC3C(C)=C)CCC4C2(C)CCC5C4(C)CCC(=O)C5(C)C", "physical_data": {"Molecular Weight": "424.70", "Molecular Formula": "C30H48O", "Melting Point": "170 \u00b0C", "Density": "1.115 g/cm\u00b3 @ Temp: 18 \u00b0C"}}