{"cas_no": "1617-32-9", "cn_name": "3-\u620a\u70ef\u9178", "en_name": ["(3E)-3-Pentenoic acid", "3-Pentenoic acid, (3E)-", "3-Pentenoic acid, (E)-", "3-Pentenoic acid, trans-", "(3E)-3-Pentenoic acid", "trans-3-Pentenoic acid", "(E)-3-Pentenoic acid", "(3E)-Pent-3-enoic acid"], "SMILES": "C(C(O)=O)C=CC", "physical_data": {"Molecular Weight": "100.12", "Molecular Formula": "C5H8O2", "Boiling Point": "50-53 \u00b0C @ Press: 1.0-1.5 Torr"}}