{"cas_no": "1617-90-9", "cn_name": "\u957f\u6625\u80fa", "en_name": ["Vincamine", "Eburnamenine-14-carboxylic acid, 14,15-dihydro-14-hydroxy-, methyl ester, (3\u03b1,14\u03b2,16\u03b1)-", "Vincamine", "Minorine", "1H-Indolo[3,2,1-de]pyrido[3,2,1-ij][1,5]naphthyridine, eburnamenine-14-carboxylic acid deriv.", "Devincan", "(+)-Vincamine", "Devinkan", "Vincamin", "Minorin", "Pervincamine", "Vincafor", "(+)-cis-Vincamine", "Methyl vincaminate", "cis-Vincamine", "Vincapan", "Vraap", "Arteriovinca", "Vincagil", "Tripervan", "Ocu-vinc", "Vincalen", "Novicet", "Vincadar", "Vincafolina", "NSC 91998", "Sostenil", "Perval", "Vinvasaunier", "Equipur", "Angiopac", "Vincapront", "Vincamidol", "Vincafarm", "Oxygeron", "Vincimax", "Vinodrel Retard", "Pervone", "Oxybral", "MeSH ID: D014749"], "SMILES": "C(OC)(=O)C1(O)N2C=3C4C(CC)(C1)CCCN4CCC3C=5C2=CC=CC5", "physical_data": {"Molecular Weight": "354.44", "Molecular Formula": "C21H26N2O3", "Melting Point": "232-233 \u00b0C"}}