{"cas_no": "1617-17-0", "cn_name": "2-\u6c2f\u4e19\u8148", "en_name": ["Propanenitrile, 2-chloro-", "Propanenitrile, 2-chloro-", "Propionitrile, 2-chloro-", "2-Chloropropionitrile", "\u03b1-Chloropropionitrile", "2-Chloropropanenitrile", "(\u00b1)-2-Chloropropionitrile"], "SMILES": "C(C#N)(C)Cl", "physical_data": {"Molecular Weight": "89.52", "Molecular Formula": "C3H4ClN", "Boiling Point": "121 \u00b0C", "Melting Point": "54-55 \u00b0C"}}