{"cas_no": "1617-53-4", "cn_name": "\u7a57\u82b1\u6749\u53cc\u9ec4\u916e", "en_name": ["Amentoflavone", "4H-1-Benzopyran-4-one, 8-[5-(5,7-dihydroxy-4-oxo-4H-1-benzopyran-2-yl)-2-hydroxyphenyl]-5,7-dihydroxy-2-(4-hydroxyphenyl)-", "3\u2032\u2032\u2032,8-Biflavone, 4\u2032,4\u2032\u2032\u2032,5,5\u2032\u2032,7,7\u2032\u2032-hexahydroxy-", "Ginkgetin, didemethyl-", "8-[5-(5,7-Dihydroxy-4-oxo-4H-1-benzopyran-2-yl)-2-hydroxyphenyl]-5,7-dihydroxy-2-(4-hydroxyphenyl)-4H-1-benzopyran-4-one", "Amentoflavone", "Tridemethylsciadopitysin", "I3\u2032,II8-Biapigenin", "Amenthoflavone", "NSC 295677"], "SMILES": "OC=1C(=C2C(C(=O)C=C(O2)C3=CC=C(O)C=C3)=C(O)C1)C4=CC(=CC=C4O)C=5OC=6C(C(=O)C5)=C(O)C=C(O)C6", "physical_data": {"Molecular Weight": "538.46", "Molecular Formula": "C30H18O10", "Melting Point": "245-250 \u00b0C (decomp)"}}