{"cas_no": "1617-68-1", "cn_name": "\u4e59\u9178\u7fbd\u6247\u9187\u916f", "en_name": ["Lupeol acetate", "Lup-20(29)-en-3-ol, acetate, (3\u03b2)-", "Lup-20(29)-en-3\u03b2-ol, acetate", "Lup-20(30)-en-3\u03b2-ol, acetate", "1H-Cyclopenta[a]chrysene, lup-20(29)-en-3-ol deriv.", "Lupenyl acetate", "Lupeyl acetate", "Lupeol acetate", "3-O-Acetyllupeol", "Clerodol acetate", "Lupeol 3-acetate", "Lup-20(29)-en-3\u03b2-yl acetate", "3-Acetyllupeol", "NSC 281806", "Acetyllupeol", "3\u03b2-OAc-20(29)-lupene"], "SMILES": "CC12C(C3C(C)(CC1)CCC3C(C)=C)CCC4C2(C)CCC5C4(C)CCC(OC(C)=O)C5(C)C", "physical_data": {"Molecular Weight": "468.75", "Molecular Formula": "C32H52O2", "Melting Point": "212-213 \u00b0C"}}