{"cas_no": "1617-49-8", "cn_name": "2,3,8-TRI-O-METHYLELLAGIC ACID", "en_name": ["3,3\u2032,4-Tri-O-methylellagic acid", "[1]Benzopyrano[5,4,3-cde][1]benzopyran-5,10-dione, 2-hydroxy-3,7,8-trimethoxy-", "Diphenic acid, 4,6,6\u2032-trihydroxy-4\u2032,5,5\u2032-trimethoxy-, di-\u03b4-lactone", "2-Hydroxy-3,7,8-trimethoxy[1]benzopyrano[5,4,3-cde][1]benzopyran-5,10-dione", "3,3\u2032,4-Tri-O-methylellagic acid", "3,4,3\u2032-Tri-O-methylellagic acid", "Ellagic acid 3,3\u2032,4-trimethyl ether", "NSC 333299", "3,3\u2032,4\u2032-Trimethoxyellagic acid"], "SMILES": "O(C)C=1C2=C3C4=C(C(OC)=C(O)C=C4C(=O)O2)OC(=O)C3=CC1OC", "physical_data": {"Molecular Weight": "344.27", "Molecular Formula": "C17H12O8", "Melting Point": "289-291 \u00b0C"}}