{"cas_no": "161796-77-6", "cn_name": "5-\u7532\u6c27\u57fa-2-[(4-\u7532\u6c27\u57fa-3,5-\u4e8c\u7532\u57fa-2-\u5421\u5576\u57fa)-\u7532\u57fa]-3H-\u82ef\u5e76\u54aa\u5511\u94a0\u76d0", "en_name": ["1H-Benzimidazole, 6-methoxy-2-[(R)-[(4-methoxy-3,5-dimethyl-2-pyridinyl)methyl]sulfinyl]-, sodium salt (1:1)", "1H-Benzimidazole, 6-methoxy-2-[(R)-[(4-methoxy-3,5-dimethyl-2-pyridinyl)methyl]sulfinyl]-, sodium salt (1:1)", "1H-Benzimidazole, 5-methoxy-2-[[(4-methoxy-3,5-dimethyl-2-pyridinyl)methyl]sulfinyl]-, sodium salt, (R)-", "1H-Benzimidazole, 5-methoxy-2-[(R)-[(4-methoxy-3,5-dimethyl-2-pyridinyl)methyl]sulfinyl]-, sodium salt", "(R)-Omeprazole sodium"], "SMILES": "S(CC1=C(C)C(OC)=C(C)C=N1)(=O)C=2NC=3C(N2)=CC=C(OC)C3.[Na]", "physical_data": {"Molecular Weight": "", "Molecular Formula": "C17H19N3O3S.Na", "Melting Point": "~160 \u00b0C (approx)"}}