{"cas_no": "1617-18-1", "cn_name": "3-\u4e01\u70ef\u9178\u4e59\u916f", "en_name": ["Ethyl vinylacetate", "3-Butenoic acid, ethyl ester", "Ethyl 3-butenoate", "Ethyl vinylacetate", "NSC 44507", "Vinylacetic acid ethyl ester"], "SMILES": "C(CC=C)(OCC)=O", "physical_data": {"Molecular Weight": "114.14", "Molecular Formula": "C6H10O2", "Boiling Point": "119 \u00b0C", "Density": "0.91224 g/cm\u00b3 @ Temp: 20 \u00b0C"}}