{"cas_no": "16184-89-7", "cn_name": "4'-\u6eb4-2,2,2-\u4e09\u6c1f\u82ef\u4e59\u916e", "en_name": ["4\u2032-Bromo-2,2,2-trifluoroacetophenone", "Ethanone, 1-(4-bromophenyl)-2,2,2-trifluoro-", "Acetophenone, 4\u2032-bromo-2,2,2-trifluoro-", "1-(4-Bromophenyl)-2,2,2-trifluoroethanone", "4\u2032-Bromo-2,2,2-trifluoroacetophenone", "p-Bromo-\u03b1,\u03b1,\u03b1-trifluoroacetophenone", "4\u2032-Bromo-\u03b1,\u03b1,\u03b1-trifluoroacetophenone", "4-Bromo-\u03b1,\u03b1,\u03b1-trifluoroacetophenone", "4-Bromotrifluoroacetone", "4-Bromophenyl trifluoromethyl ketone", "2,2,2-Trifluoro-1-(4-bromophenyl)ethanone", "1-(4-Bromophenyl)-2,2,2-trifluoroethan-1-one", "p-Bromophenyl trifluoromethyl ketone", "p-Bromotrifluoroacetophenone"], "SMILES": "C(C(F)(F)F)(=O)C1=CC=C(Br)C=C1", "physical_data": {"Molecular Weight": "253.02", "Molecular Formula": "C8H4BrF3O", "Boiling Point": "72 \u00b0C @ Press: 6 Torr", "Melting Point": "29-29.5 \u00b0C"}}