{"cas_no": "16188-57-1", "cn_name": "2-\u7898-4-\u7532\u57fa\u82ef\u915a", "en_name": ["2-Iodo-4-methylphenol", "Phenol, 2-iodo-4-methyl-", "p-Cresol, 2-iodo-", "2-Iodo-4-methylphenol"], "SMILES": "IC1=C(O)C=CC(C)=C1", "physical_data": {"Molecular Weight": "234.03", "Molecular Formula": "C7H7IO", "Boiling Point": "96-98 \u00b0C @ Press: 3 Torr", "Melting Point": "35 \u00b0C", "Density": "1.684 g/cm\u00b3 @ Temp: 25 \u00b0C"}}