{"cas_no": "16182-15-3", "cn_name": "2,4,6-\u4e09\u7532\u57fa\u82ef\u78fa\u9170\u80bc", "en_name": ["Benzenesulfonic acid, 2,4,6-trimethyl-, hydrazide", "Benzenesulfonic acid, 2,4,6-trimethyl-, hydrazide", "2-Mesitylenesulfonic acid, hydrazide", "Mesitylenesulfonyl hydrazide", "(2,4,6-Trimethylbenzenesulfonyl)hydrazine", "2,4,6-Trimethylbenzenesulfonic acid hydrazide", "Mesitylenesulfonic hydrazide", "(Mesitylsulfonyl)hydrazine", "N-(2,4,6-Trimethylphenylsulfonyl)hydrazine", "NSC 158041", "2,4,6-Trimethylbenzenesulfonohydrazide", "2,4,6-Trimethylbenzene-1-sulfonohydrazide", "2-Mesitylenesulfonohydrazide", "2,4,6-Trimethylbenzenesulfonyl hydrazide", "2,4,6-Trimethylbenzensulfonohydrazide", "2-Mesitylenesulfonyl hydrazide"], "SMILES": "S(NN)(=O)(=O)C1=C(C)C=C(C)C=C1C", "physical_data": {"Molecular Weight": "214.28", "Molecular Formula": "C9H14N2O2S", "Melting Point": "130 \u00b0C"}}