{"cas_no": "1618-26-4", "cn_name": "\u4e8c\u7532\u786b\u57fa\u7532\u70f7", "en_name": ["2,4-Dithiapentane", "Methane, bis(methylthio)-", "Bis(methylthio)methane", "Formaldehyde dimethyl mercaptal", "Thioformaldehyde dimethyl acetal", "2,4-Dithiapentane", "Bis[methylmercapto]methane", "Methylenebis[methyl sulfide]", "Formaldehyde dimethyl dithioacetal", "NSC 96010"], "SMILES": "C(SC)SC", "physical_data": {"Molecular Weight": "108.23", "Molecular Formula": "C3H8S2", "Boiling Point": "148 \u00b0C", "Melting Point": "148 \u00b0C", "Density": "1.0594 g/cm\u00b3 @ Temp: 20 \u00b0C"}}