{"cas_no": "16188-55-9", "cn_name": "4-\u7532\u786b\u57fa\u82ef\u4e59\u9178", "en_name": ["4-(Methylthio)benzeneacetic acid", "Benzeneacetic acid, 4-(methylthio)-", "Acetic acid, [p-(methylthio)phenyl]-", "4-(Methylthio)benzeneacetic acid", "4-(Methylthio)phenylacetic acid", "[p-(Methylthio)phenyl]acetic acid", "2-[4-(Methylthio)phenyl]acetic acid", "(4-Methylsulfanylphenyl)acetic acid", "2-(4-Methylsulfanylphenyl)acetic acid", "2-[4-(Methylsulfanyl)phenyl]acetic acid"], "SMILES": "C(C(O)=O)C1=CC=C(SC)C=C1", "physical_data": {"Molecular Weight": "182.24", "Molecular Formula": "C9H10O2S", "Melting Point": "92-94 \u00b0C"}}