{"cas_no": "16182-04-0", "cn_name": "\u5f02\u786b\u6c30\u9170\u7532\u9178\u4e59\u916f", "en_name": ["Ethoxycarbonyl isothiocyanate", "Carbon(isothiocyanatidic) acid, ethyl ester", "Carbonic acid, monoanhydride with isothiocyanic acid, ethyl ester", "Carbonic acid, ethyl ester, anhydride with isothiocyanic acid", "Ethyl isothiocyanatoformate", "Carbethoxyisothiocyanate", "Ethoxycarbonyl isothiocyanate", "Carbonic acid ethyl ester isothiocyanate", "Ethoxycarbonyl mustard oil", "NSC 158480", "Ethyl isothiocyanatocarbonate", "Ethyl carbonisothiocyanatidate", "O-Ethyl carbonisothiocyanatidate"], "SMILES": "C(N=C=S)(OCC)=O", "physical_data": {"Molecular Weight": "131.15", "Molecular Formula": "C4H5NO2S", "Boiling Point": "56 \u00b0C @ Press: 18 Torr"}}