{"cas_no": "1619-58-5", "cn_name": "2-\u6c30\u57fa\u4e01\u9178\u4e59\u916f", "en_name": ["Butanoic acid, 2-cyano-, ethyl ester", "Butanoic acid, 2-cyano-, ethyl ester", "Butyric acid, 2-cyano-, ethyl ester", "Butyric acid, \u03b1-cyano-, Et ester", "Ethyl 2-cyanobutyrate", "Ethyl \u03b1-cyanobutyrate", "Ethyl 2-cyanobutanoate", "NSC 1101"], "SMILES": "C(C(OCC)=O)(CC)C#N", "physical_data": {"Molecular Weight": "141.17", "Molecular Formula": "C7H11NO2", "Boiling Point": "95.5 \u00b0C @ Press: 13.5 Torr", "Density": "0.9836 g/cm\u00b3 @ Temp: 25 \u00b0C"}}