{"cas_no": "16191-84-7", "cn_name": "2-\u6c2f\u4e59\u57fa-4-\u6c2f\u82ef\u781c", "en_name": ["1-Chloro-4-[(2-chloroethyl)sulfonyl]benzene", "Benzene, 1-chloro-4-[(2-chloroethyl)sulfonyl]-", "Sulfone, 2-chloroethyl p-chlorophenyl", "1-Chloro-4-[(2-chloroethyl)sulfonyl]benzene", "p-Chlorophenyl \u03b2-chloroethyl sulfone", "2-Chloroethyl 4-chlorophenyl sulfone", "NSC 196185", "2-Chloro-1-[(4-chlorophenyl)sulfonyl]ethane"], "SMILES": "S(CCCl)(=O)(=O)C1=CC=C(Cl)C=C1", "physical_data": {"Molecular Weight": "239.12", "Molecular Formula": "C8H8Cl2O2S", "Melting Point": "98-99 \u00b0C"}}