{"cas_no": "161949-50-4", "cn_name": "2-\u6c2f-5-\u7898\u82ef\u7532\u919a", "en_name": ["1-Chloro-4-iodo-2-methoxybenzene", "Benzene, 1-chloro-4-iodo-2-methoxy-", "1-Chloro-4-iodo-2-methoxybenzene", "2-Chloro-5-iodoanisole", "2-Chloro-5-iodo-1-methoxybenzene"], "SMILES": "O(C)C1=C(Cl)C=CC(I)=C1", "physical_data": {"Molecular Weight": "268.48", "Molecular Formula": "C7H6ClIO", "Melting Point": "39-40 \u00b0C"}}