{"cas_no": "1619-57-4", "cn_name": "2,2-\u4e8c\u4e59\u57fa\u4e59\u9170\u4e59\u9178\u4e59\u916f", "en_name": ["Ethyl 2,2-diethyl-3-oxobutanoate", "Butanoic acid, 2,2-diethyl-3-oxo-, ethyl ester", "Acetoacetic acid, 2,2-diethyl-, ethyl ester", "Ethyl 2,2-diethyl-3-oxobutanoate", "Ethyl \u03b1,\u03b1-diethylacetoacetate", "2,2-Diethyl ethylacetoacetate"], "SMILES": "C(C(OCC)=O)(C(C)=O)(CC)CC", "physical_data": {"Molecular Weight": "186.25", "Molecular Formula": "C10H18O3", "Boiling Point": "216 \u00b0C", "Density": "0.9707 g/cm\u00b3 @ Temp: 17.200009765625 \u00b0C"}}