{"cas_no": "1619-16-5", "cn_name": "\u7f9f\u57fa\u7f2c\u8349\u9178", "en_name": ["Hydroxyvalerenic acid", "2-Propenoic acid, 3-[(1R,4S,7R,7aR)-2,4,5,6,7,7a-hexahydro-1-hydroxy-3,7-dimethyl-1H-inden-4-yl]-2-methyl-, (2E)-", "Indene-4-acrylic acid, 2,4,5,6,7,7a-hexahydro-1-hydroxy-\u03b1,3,7-trimethyl-", "2-Propenoic acid, 3-(2,4,5,6,7,7a-hexahydro-1-hydroxy-3,7-dimethyl-1H-inden-4-yl)-2-methyl-, [1R-[1\u03b1,4\u03b1(E),7\u03b2,7a\u03b1]]-", "Valerenolic acid", "(2E)-3-[(1R,4S,7R,7aR)-2,4,5,6,7,7a-Hexahydro-1-hydroxy-3,7-dimethyl-1H-inden-4-yl]-2-methyl-2-propenoic acid", "Hydroxyvalerenic acid"], "SMILES": "C(=C(C(O)=O)C)C1C=2C(C(O)CC2C)C(C)CC1", "physical_data": {"Molecular Weight": "250.33", "Molecular Formula": "C15H22O3", "Melting Point": "171-173 \u00b0C"}}