{"cas_no": "1619-34-7", "cn_name": "\u594e\u5b81\u73af-3-\u9187", "en_name": ["(\u00b1)-3-Quinuclidinol", "1-Azabicyclo[2.2.2]octan-3-ol", "3-Quinuclidinol", "(\u00b1)-1-Azabicyclo[2.2.2]octan-3-ol", "3-Hydroxyquinuclidine", "(\u00b1)-3-Quinuclidinol", "dl-3-Quinuclidinol", "NSC 93905", "1-Azabicyclo[2.2.2]oct-3-yl alcohol", "3-Hydroxy-1-azabicyclo[2.2.2]octane", "(RS)-3-Quinuclidinol", "4-Azabicyclo[2.2.2]octan-2-ol"], "SMILES": "OC1C2CCN(C1)CC2", "physical_data": {"Molecular Weight": "127.18", "Molecular Formula": "C7H13NO", "Melting Point": "221 \u00b0C"}}