{"cas_no": "1619-62-1", "cn_name": "\u4e8c\u7532\u57fa\u4e19\u4e8c\u9178\u4e8c\u4e59\u916f", "en_name": ["Propanedioic acid, 2,2-dimethyl-, 1,3-diethyl ester", "Propanedioic acid, 2,2-dimethyl-, 1,3-diethyl ester", "Malonic acid, dimethyl-, diethyl ester", "Propanedioic acid, dimethyl-, diethyl ester", "Diethyl dimethylmalonate", "2,2-Bis(ethoxycarbonyl)propane", "Dimethylmalonic acid diethyl ester", "Diethyl 2,2-dimethylmalonate", "Dimethylpropanedioic acid diethyl ester", "NSC 28462", "2,2-Dimethylmalonic acid diethyl ester", "1,3-Diethyl 2,2-dimethylpropanedioate"], "SMILES": "C(C(OCC)=O)(C(OCC)=O)(C)C", "physical_data": {"Molecular Weight": "188.22", "Molecular Formula": "C9H16O4", "Boiling Point": "197 \u00b0C", "Melting Point": "-30.4 \u00b0C", "Density": "0.9964 g/cm\u00b3 @ Temp: 20 \u00b0C"}}