{"cas_no": "16205-46-2", "cn_name": "\u5421\u5511\u5e76[1,5-a]\u5421\u5576-3-\u7fa7\u9178", "en_name": ["Pyrazolo[1,5-a]pyridine-3-carboxylic acid", "Pyrazolo[1,5-a]pyridine-3-carboxylic acid"], "SMILES": "C(O)(=O)C1=C2N(N=C1)C=CC=C2", "physical_data": {"Molecular Weight": "162.15", "Molecular Formula": "C8H6N2O2", "Melting Point": "217-219 \u00b0C"}}