{"cas_no": "16208-51-8", "cn_name": "\u5730\u7f8e\u53f8\u94a0", "en_name": ["Disodium 2,2\u2032-dithiobis(ethanesulfonate)", "Ethanesulfonic acid, 2,2\u2032-dithiobis-, sodium salt (1:2)", "Ethanesulfonic acid, 2,2\u2032-dithiodi-, disodium salt", "Ethanesulfonic acid, 2,2\u2032-dithiobis-, disodium salt", "2,2\u2032-Dithiodi-1-ethanesulfonic acid disodium salt", "Disodium 2,2\u2032-dithiodiethanesulfonate", "Dimesna", "Disodium 2,2\u2032-dithiobis(ethanesulfonate)", "Bis(2-sulfoethyl)disulfide disodium salt", "BNP 7787", "NSC 716976", "Tavocept"], "SMILES": "C(S(=O)(=O)O)CSSCCS(=O)(=O)O.[Na]", "physical_data": {"Molecular Weight": "", "Molecular Formula": "C4H10O6S4.2Na", "Melting Point": "273 \u00b0C (decomp)"}}