{"cas_no": "1620-98-0", "cn_name": "3,5-\u4e8c\u53d4\u4e01\u57fa-4-\u7f9f\u57fa\u82ef\u7532\u919b", "en_name": ["3,5-Di-tert-butyl-4-hydroxybenzaldehyde", "Benzaldehyde, 3,5-bis(1,1-dimethylethyl)-4-hydroxy-", "Benzaldehyde, 3,5-di-tert-butyl-4-hydroxy-", "3,5-Bis(1,1-dimethylethyl)-4-hydroxybenzaldehyde", "3,5-Di-tert-butyl-4-hydroxybenzaldehyde", "2,6-Di-tert-Butyl-4-formylphenol", "4-Hydroxy-3,5-di-tert-butylbenzaldehyde", "4-Formyl-2,6-di-tert-butylphenol", "NSC 14450", "3,5-Ditert-butyl-4-hydroxybenzaldehyde"], "SMILES": "C(C)(C)(C)C1=C(O)C(C(C)(C)C)=CC(C=O)=C1", "physical_data": {"Molecular Weight": "234.33", "Molecular Formula": "C15H22O2", "Melting Point": "189 \u00b0C"}}