{"cas_no": "16200-53-6", "cn_name": "3-\u7532\u57fa\u78b3\u9178\u80fa", "en_name": ["Hexahydro-2,5-methanopentalene-3a(1H)-carboxylic acid", "2,5-Methanopentalene-3a(1H)-carboxylic acid, hexahydro-", "Hexahydro-2,5-methanopentalene-3a(1H)-carboxylic acid", "3-Noradamantanecarboxylic acid", "Tricyclo[3.3.1.03,7]nonane-3-carboxylic acid"], "SMILES": "C(O)(=O)C12C3CC(C1)CC(C2)C3", "physical_data": {"Molecular Weight": "166.22", "Molecular Formula": "C10H14O2", "Melting Point": "103-105 \u00b0C"}}