{"cas_no": "1620-30-0", "cn_name": "\u4e8c\u82ef\u57fa(4-\u5421\u5576\u57fa)\u7532\u9187", "en_name": ["\u03b1,\u03b1-Diphenyl-4-pyridinemethanol", "4-Pyridinemethanol, \u03b1,\u03b1-diphenyl-", "\u03b1,\u03b1-Diphenyl-4-pyridinemethanol", "Diphenyl-4-pyridylmethanol", "4-Pyridyldiphenylcarbinol", "\u03b1-(4-Pyridyl)benzhydrol", "NSC 241092", "NSC 525212", "\u03b1-Pyridylbenzhydrol"], "SMILES": "C(O)(C1=CC=CC=C1)(C2=CC=CC=C2)C=3C=CN=CC3", "physical_data": {"Molecular Weight": "261.32", "Molecular Formula": "C18H15NO", "Melting Point": "238-238.5 \u00b0C"}}