{"cas_no": "1620-75-3", "cn_name": "6-\u7532\u57fa-2-\u5421\u5576\u8148", "en_name": ["6-Methyl-2-pyridinecarbonitrile", "2-Pyridinecarbonitrile, 6-methyl-", "Picolinonitrile, 6-methyl-", "6-Methyl-2-pyridinecarbonitrile", "2-Cyano-6-methylpyridine", "6-Methyl-2-cyanopyridine", "2-Methyl-6-cyanopyridine", "6-Methylpicolinonitrile", "6-Cyano-2-methylpyridine", "NSC 26022"], "SMILES": "C(#N)C=1N=C(C)C=CC1", "physical_data": {"Molecular Weight": "118.14", "Molecular Formula": "C7H6N2", "Melting Point": "72-74 \u00b0C"}}