{"cas_no": "1620-53-7", "cn_name": "1-\u82ef\u57fa-2-\u5421\u5576-2-\u57fa\u4e59\u916e", "en_name": ["1-Phenyl-2-(2-pyridinyl)ethanone", "Ethanone, 1-phenyl-2-(2-pyridinyl)-", "Acetophenone, 2-(2-pyridyl)-", "1-Phenyl-2-(2-pyridinyl)ethanone", "2-(Benzoylmethyl)pyridine", "\u03b1-Pyridylacetophenone", "Phenyl 2-pyridylmethyl ketone", "2-Phenacylpyridine", "Phenyl 2-picolyl ketone", "1-Phenyl-2-(2-pyridyl)ethanone", "2-(2-Oxo-2-phenylethyl)pyridine", "NSC 145890", "1-Phenyl-2-(pyridin-2-yl)ethan-1-one"], "SMILES": "C(CC1=CC=CC=N1)(=O)C2=CC=CC=C2", "physical_data": {"Molecular Weight": "197.23", "Molecular Formula": "C13H11NO", "Boiling Point": "140-150 \u00b0C @ Press: 0.2 Torr", "Melting Point": "59 \u00b0C"}}