{"cas_no": "1620-72-0", "cn_name": "2-\u7532\u57fa-6-(\u4e09\u6c1f\u7532\u57fa)\u5421\u5576", "en_name": ["2-Methyl-6-(trifluoromethyl)pyridine", "Pyridine, 2-methyl-6-(trifluoromethyl)-", "2-Methyl-6-(trifluoromethyl)pyridine", "2-Methyl-6-trifluoromethylpyridine", "2-Trifluoromethyl-6-methylpyridine"], "SMILES": "C(F)(F)(F)C=1N=C(C)C=CC1", "physical_data": {"Molecular Weight": "161.12", "Molecular Formula": "C7H6F3N", "Boiling Point": "153 \u00b0C", "Melting Point": "12.5 \u00b0C"}}