{"cas_no": "1620-14-0", "cn_name": "\u4e8c\u4e59\u80fa\u57fa\u4e19\u916e", "en_name": ["1-(Diethylamino)-2-propanone", "2-Propanone, 1-(diethylamino)-", "2-Propanone, (diethylamino)-", "1-(Diethylamino)-2-propanone", "(Diethylamino)acetone", "NSC 61985", "1-(N,N-Diethylamino)-propan-2-one"], "SMILES": "N(CC(C)=O)(CC)CC", "physical_data": {"Molecular Weight": "129.20", "Molecular Formula": "C7H15NO", "Boiling Point": "69.6 \u00b0C", "Density": "0.8620 g/cm\u00b3"}}