{"cas_no": "16208-21-2", "cn_name": "2-NAPHTHYLGLYOXAL HYDRATE", "en_name": ["2,2-Dihydroxy-1-(2-naphthalenyl)ethanone", "Ethanone, 2,2-dihydroxy-1-(2-naphthalenyl)-", "2\u2032-Acetonaphthone, 2,2-dihydroxy-", "2,2-Dihydroxy-1-(2-naphthalenyl)ethanone", "2,2-Dihydroxy-2\u2032-acetonaphthone", "2,2-Dihydroxy-1-(naphthalen-2-yl)ethanone", "2-Naphthylglyoxal hydrate"], "SMILES": "C(C(O)O)(=O)C1=CC2=C(C=C1)C=CC=C2", "physical_data": {"Molecular Weight": "202.21", "Molecular Formula": "C12H10O3", "Melting Point": "84-86 \u00b0C"}}