{"cas_no": "1620-68-4", "cn_name": "\u53cc\uff082-\u7f9f\u57fa-5-\u4e94\u7532\u57fa\uff09-4-\u7532\u57fa\u915a", "en_name": ["2,6-Bis[(2-hydroxy-5-methylphenyl)methyl]-4-methylphenol", "Phenol, 2,6-bis[(2-hydroxy-5-methylphenyl)methyl]-4-methyl-", "Mesitol, \u03b12,\u03b16-bis(6-hydroxy-m-tolyl)-", "2,6-Bis[(2-hydroxy-5-methylphenyl)methyl]-4-methylphenol", "2-[Di(2-hydroxy-5-methyl-m-phenylenemethylene)]-p-cresol", "\u03b12,\u03b16-Bis(6-hydroxy-m-tolyl)mesitol", "2,6-Bis(2-hydroxy-5-methylbenzyl)-4-methylphenol", "Antioxidant 80", "NSC 634601"], "SMILES": "C(C1=C(O)C(CC2=C(O)C=CC(C)=C2)=CC(C)=C1)C3=C(O)C=CC(C)=C3", "physical_data": {"Molecular Weight": "348.43", "Molecular Formula": "C23H24O3", "Melting Point": "215 \u00b0C"}}