{"cas_no": "1620-76-4", "cn_name": "2-\u6c30\u57fa-4-\u7532\u57fa\u5421\u5576", "en_name": ["4-Methyl-2-pyridinecarbonitrile", "2-Pyridinecarbonitrile, 4-methyl-", "Picolinonitrile, 4-methyl-", "4-Methyl-2-pyridinecarbonitrile", "2-Cyano-4-methylpyridine", "4-Methyl-2-cyanopyridine"], "SMILES": "C(#N)C1=CC(C)=CC=N1", "physical_data": {"Molecular Weight": "118.14", "Molecular Formula": "C7H6N2", "Boiling Point": "88.5 \u00b0C @ Press: 2 Torr", "Melting Point": "48-77 \u00b0C"}}