{"cas_no": "1620-77-5", "cn_name": "2-\u6c30\u57fa-5-\u7532\u57fa\u5421\u5576", "en_name": ["5-Methyl-2-pyridinecarbonitrile", "2-Pyridinecarbonitrile, 5-methyl-", "Picolinonitrile, 5-methyl-", "5-Methyl-2-pyridinecarbonitrile", "2-Cyano-5-methylpyridine", "5-Methyl-2-cyanopyridine", "5-Methylpicolinonitrile"], "SMILES": "C(#N)C1=CC=C(C)C=N1", "physical_data": {"Molecular Weight": "118.14", "Molecular Formula": "C7H6N2", "Boiling Point": "135-138 \u00b0C @ Press: 28 Torr", "Melting Point": "72-74 \u00b0C"}}