{"cas_no": "16212-05-8", "cn_name": "\u70ef\u4e19\u57fa\u82ef\u781c", "en_name": ["(2-Propen-1-ylsulfonyl)benzene", "Benzene, (2-propen-1-ylsulfonyl)-", "Sulfone, allyl phenyl", "Benzene, (2-propenylsulfonyl)-", "(2-Propen-1-ylsulfonyl)benzene", "Phenyl allyl sulfone", "Allyl phenyl sulfone", "(2-Propenylsulfonyl)benzene", "NSC 221230", "Phenyl 2-propenyl sulfone", "(Allylsulfonyl)benzene", "(Prop-2-ene-1-sulfonyl)benzene"], "SMILES": "S(CC=C)(=O)(=O)C1=CC=CC=C1", "physical_data": {"Molecular Weight": "182.24", "Molecular Formula": "C9H10O2S", "Boiling Point": "110-113 \u00b0C @ Press: 0.5 Torr", "Density": "1.1844 g/cm\u00b3 @ Temp: 25 \u00b0C"}}