{"cas_no": "1621-56-3", "cn_name": "7-\u7532\u6c27\u57fa\u5f02\u9ec4\u916e", "en_name": ["7-Methoxyisoflavone", "4H-1-Benzopyran-4-one, 7-methoxy-3-phenyl-", "Isoflavone, 7-methoxy-", "7-Methoxy-3-phenyl-4H-1-benzopyran-4-one", "7-Methoxyisoflavone", "7-Methoxy-3-phenyl-4H-chromen-4-one"], "SMILES": "O=C1C=2C(=CC(OC)=CC2)OC=C1C3=CC=CC=C3", "physical_data": {"Molecular Weight": "252.26", "Molecular Formula": "C16H12O3", "Melting Point": "155 \u00b0C"}}