{"cas_no": "16219-75-3", "cn_name": "\u4e59\u53c9\u964d\u51b0\u751f\u70ef", "en_name": ["Ethylidenenorbornene", "Bicyclo[2.2.1]hept-2-ene, 5-ethylidene-", "2-Norbornene, 5-ethylidene-", "5-Ethylidenebicyclo[2.2.1]hept-2-ene", "Ethylidenenorbornene", "5-Ethylidenenorbornene", "Ethylidene-2-norbornene", "2-Ethylidene-5-norbornene", "2-Ethylidenebicyclo[2.2.1]hept-5-ene", "5-Ethylidene-2-norbornene"], "SMILES": "C(C)=C1C2CC(C1)C=C2", "physical_data": {"Molecular Weight": "120.19", "Molecular Formula": "C9H12", "Boiling Point": "67 \u00b0C @ Press: 50 Torr", "Melting Point": "-80 \u00b0C", "Density": "0.8958 g/cm\u00b3 @ Temp: 20 \u00b0C"}}