{"cas_no": "16213-85-7", "cn_name": "2,5-\u4e8c\u7532\u57fa\u82ef\u4e59\u8148", "en_name": ["2,5-Dimethylbenzeneacetonitrile", "Benzeneacetonitrile, 2,5-dimethyl-", "Acetonitrile, (2,5-xylyl)-", "2,5-Dimethylbenzeneacetonitrile", "2,5-Dimethylphenylacetonitrile", "2,5-Dimethylbenzyl cyanide", "NSC 85352", "2-(2,5-Dimethylphenyl)acetonitrile"], "SMILES": "C(C#N)C1=C(C)C=CC(C)=C1", "physical_data": {"Molecular Weight": "145.20", "Molecular Formula": "C10H11N", "Boiling Point": "88-90 \u00b0C @ Press: 1.7 Torr"}}