{"cas_no": "1622-32-8", "cn_name": "2-\u6c2f\u4e59\u70f7\u78fa\u9170\u6c2f", "en_name": ["2-Chloroethanesulfonyl chloride", "Ethanesulfonyl chloride, 2-chloro-", "2-Chloroethanesulfonyl chloride", "2-Chloroethylsulfonyl chloride", "2-Chloroethanesulfonic acid chloride", "\u03b2-Chloroethanesulfonyl chloride", "2-Chloro-1-ethanesulfonyl chloride", "Chloroethanesulfonyl chloride"], "SMILES": "C(S(Cl)(=O)=O)CCl", "physical_data": {"Molecular Weight": "163.02", "Molecular Formula": "C2H4Cl2O2S", "Boiling Point": "3-200 \u00b0C", "Melting Point": "3 \u00b0C", "Density": "1.555 g/cm\u00b3 @ Temp: 20 \u00b0C"}}