{"cas_no": "162204-20-8", "cn_name": "5'-\u8131\u6c27-5-\u6c1f-N-[(\u620a\u6c27\u57fa)\u7fb0\u57fa]\u80de\u82f7 2',3'-\u4e8c\u4e59\u9178\u916f", "en_name": ["Cytidine, 5\u2032-deoxy-5-fluoro-N-[(pentyloxy)carbonyl]-, 2\u2032,3\u2032-diacetate", "Cytidine, 5\u2032-deoxy-5-fluoro-N-[(pentyloxy)carbonyl]-, 2\u2032,3\u2032-diacetate", "Carbamic acid, [1-(2,3-di-O-acetyl-5-deoxy-\u03b2-D-ribofuranosyl)-5-fluoro-1,2-dihydro-2-oxo-4-pyrimidinyl]-, pentyl ester", "2\u2032,3\u2032-Di-O-acetyl-5\u2032-deoxy-5-fluoro-N4-(pentyloxycarbonyl)cytidine"], "SMILES": "O(C(C)=O)C1C(OC(C)C1OC(C)=O)N2C(=O)N=C(NC(OCCCCC)=O)C(F)=C2", "physical_data": {"Molecular Weight": "443.42", "Molecular Formula": "C19H26FN3O8", "Melting Point": "50-51 \u00b0C"}}