{"cas_no": "1622-55-5", "cn_name": "9, 10-\u4e8c\u6c22-4H-\u82ef\u5e76[4, 5]\u73af\u5e9a\u4e09\u70ef[1, 2-B]\u567b\u5429-4-\u916e", "en_name": ["9,10-Dihydro-4H-benzo[4,5]cyclohepta[1,2-b]thiophen-4-one", "4H-Benzo[4,5]cyclohepta[1,2-b]thiophen-4-one, 9,10-dihydro-", "9,10-Dihydro-4H-benzo[4,5]cyclohepta[1,2-b]thiophen-4-one"], "SMILES": "O=C1C2=C(CCC=3C1=CC=CC3)SC=C2", "physical_data": {"Molecular Weight": "214.28", "Molecular Formula": "C13H10OS", "Boiling Point": "125-140 \u00b0C @ Press: 0.05 Torr"}}