{"cas_no": "1622-57-7", "cn_name": "2-\u6c28-1-\u7532\u57fa\u82ef\u54aa\u5511", "en_name": ["1-Methyl-1H-benzimidazol-2-amine", "1H-Benzimidazol-2-amine, 1-methyl-", "Benzimidazole, 2-amino-1-methyl-", "1-Methyl-1H-benzimidazol-2-amine", "2-Amino-1-methylbenzimidazole", "1-Methyl-2-aminobenzimidazole", "2-Amino-1-methyl-1H-benzimidazole", "1-Methyl-1H-benzo[d]imidazol-2-amine", "1-Methylbenzimidazol-2-amine", "1-Methyl-1H-benz[d]-imidazol-2-amine", "1-Methyl-1H-1,3-benzodiazol-2-amine", "1-Methyl-1H-benzoimidazol-2-ylamine"], "SMILES": "CN1C=2C(N=C1N)=CC=CC2", "physical_data": {"Molecular Weight": "147.18", "Molecular Formula": "C8H9N3", "Melting Point": "201-202 \u00b0C"}}