{"cas_no": "1622-79-3", "cn_name": "1-[3-(\u5bf9\u6c1f\u82ef\u7532\u9170\u57fa)\u4e19\u57fa]-4-\u7532\u57fa\u54cc\u55ea\u6c2f\u5316\u7269", "en_name": ["Melperone hydrochloride", "1-Butanone, 1-(4-fluorophenyl)-4-(4-methyl-1-piperidinyl)-, hydrochloride (1:1)", "Butyrophenone, 4\u2032-fluoro-4-(4-methylpiperidino)-, hydrochloride", "1-Butanone, 1-(4-fluorophenyl)-4-(4-methyl-1-piperidinyl)-, hydrochloride", "FG 5111", "Methylperone hydrochloride", "Eunerpan", "Methylperone chloride", "Melperone hydrochloride", "Melpax", "1-(4-Fluorophenyl)-4-(4-methylpiperidin-1-yl)butan-1-one hydrochloride"], "SMILES": "C(CCCN1CCC(C)CC1)(=O)C2=CC=C(F)C=C2.Cl", "physical_data": {"Molecular Weight": "", "Molecular Formula": "C16H22FNO.ClH", "Melting Point": "209-211 \u00b0C"}}