{"cas_no": "16227-12-6", "cn_name": "1-\u82ef\u57fa-1,3,4-\u4e09\u5511", "en_name": ["4-Phenyl-4H-1,2,4-triazole", "4H-1,2,4-Triazole, 4-phenyl-", "4-Phenyl-4H-1,2,4-triazole", "4-Phenyl-1,2,4-triazole", "1-Phenyl-1,3,4-triazole"], "SMILES": "N1(C=NN=C1)C2=CC=CC=C2", "physical_data": {"Molecular Weight": "145.16", "Molecular Formula": "C8H7N3", "Melting Point": "122 \u00b0C"}}