{"cas_no": "16225-26-6", "cn_name": "3,5-\u4e8c\u53d4\u4e01\u57fa\u82ef\u7532\u9178", "en_name": ["3,5-Bis(1,1-dimethylethyl)benzoic acid", "Benzoic acid, 3,5-bis(1,1-dimethylethyl)-", "Benzoic acid, 3,5-di-tert-butyl-", "3,5-Bis(1,1-dimethylethyl)benzoic acid", "3,5-Di-tert-butylbenzoic acid", "3,5-Ditert-butylbenzoic acid"], "SMILES": "C(C)(C)(C)C1=CC(C(C)(C)C)=CC(C(O)=O)=C1", "physical_data": {"Molecular Weight": "234.33", "Molecular Formula": "C15H22O2", "Melting Point": "172.6-173.0 \u00b0C"}}