{"cas_no": "1622-61-3", "cn_name": "\u6c2f\u5b89\u5b9a", "en_name": ["Clonazepam", "2H-1,4-Benzodiazepin-2-one, 5-(2-chlorophenyl)-1,3-dihydro-7-nitro-", "2H-1,4-Benzodiazepin-2-one, 5-(o-chlorophenyl)-1,3-dihydro-7-nitro-", "5-(2-Chlorophenyl)-1,3-dihydro-7-nitro-2H-1,4-benzodiazepin-2-one", "Clonazepam", "Ro 5-4023", "5-(o-Chlorophenyl)-1,3-dihydro-7-nitro-2H-1,4-benzodiazepin-2-one", "1,3-Dihydro-7-nitro-5-(o-chlorophenyl)-2H-1,4-benzodiazepin-2-one", "7-Nitro-5-(2-chlorophenyl)-3H-1,4-benzodiazepin-2(1H)-one", "Rivotril", "5-(6-Chlorophenyl)-1,3-dihydro-7-nitro-2H-1,4-benzodiazepin-2-one", "Clonopin", "Antilepsin", "Antelepsin", "Klonopin", "Landsen", "Kenoket", "Clonex", "Paxam", "Iktorivil", "Lonazep", "NSC 179913", "Apetryl", "5-(2-Chlorophenyl)-7-nitro-2,3-dihydro-1,4-benzodiazepin-2-one", "5-(2-Chlorophenyl)-7-nitro-1H-1,4-benzodiazepin-2(3H)-one", "MeSH ID: D002998"], "SMILES": "N(=O)(=O)C=1C=C2C(=NCC(=O)NC2=CC1)C3=C(Cl)C=CC=C3", "physical_data": {"Molecular Weight": "315.71", "Molecular Formula": "C15H10ClN3O3", "Melting Point": "236.5-238.5 \u00b0C"}}