{"cas_no": "162356-90-3", "cn_name": "N-\u53d4\u4e01\u6c27\u7fb0\u57fa-2-\u6eb4\u82c4\u80fa", "en_name": ["1,1-Dimethylethyl N-[(2-bromophenyl)methyl]carbamate", "Carbamic acid, N-[(2-bromophenyl)methyl]-, 1,1-dimethylethyl ester", "Carbamic acid, [(2-bromophenyl)methyl]-, 1,1-dimethylethyl ester", "1,1-Dimethylethyl N-[(2-bromophenyl)methyl]carbamate", "N-(tert-Butoxycarbonyl)-2-bromobenzylamine", "tert-Butyl N-(2-bromobenzyl)carbamate", "tert-Butyl (2-bromobenzyl)carbamate", "1-(tert-Butoxycarbonylaminomethyl)-2-bromobenzene", "2-(tert-Butoxycarbonylaminomethyl)bromobenzene"], "SMILES": "C(NC(OC(C)(C)C)=O)C1=C(Br)C=CC=C1", "physical_data": {"Molecular Weight": "286.16", "Molecular Formula": "C12H16BrNO2", "Melting Point": "51-53 \u00b0C"}}