{"cas_no": "162358-08-9", "cn_name": "\u4e8c\u4e59\u57fa2-\u4e59\u9170\u80fa\u57fa-2-(4-\u8f9b\u57fa\u82ef\u4e59\u57fa)\u4e19\u4e8c\u9178\u916f", "en_name": ["1,3-Diethyl 2-(acetylamino)-2-[2-(4-octylphenyl)ethyl]propanedioate", "Propanedioic acid, 2-(acetylamino)-2-[2-(4-octylphenyl)ethyl]-, 1,3-diethyl ester", "Propanedioic acid, (acetylamino)[2-(4-octylphenyl)ethyl]-, diethyl ester", "1,3-Diethyl 2-(acetylamino)-2-[2-(4-octylphenyl)ethyl]propanedioate", "(Acetylamino)[2-(4-octylphenyl)ethyl]propanedioic acid diethyl ester", "Diethyl 2-(acetamido)-2-(2-(4-octylphenyl)ethyl)propanedioate", "2-Acetylamino-2-(2-(4-octylphenyl)ethyl)propanedioic acid diethyl ester", "Diethyl 2-[2-(4-n-octylphenyl)ethyl]-2-acetamidomalonate"], "SMILES": "C(CCC1=CC=C(CCCCCCCC)C=C1)(C(OCC)=O)(C(OCC)=O)NC(C)=O", "physical_data": {"Molecular Weight": "433.58", "Molecular Formula": "C25H39NO5", "Melting Point": "51-53 \u00b0C"}}