{"cas_no": "16230-35-6", "cn_name": "\u53cc(N-\u7532\u57fa\u82ef\u7532\u9170\u80fa)\u4e59\u6c27\u57fa\u7532\u57fa\u7845\u70f7", "en_name": ["N,N\u2032-(Ethoxymethylsilylene)bis[N-methylbenzamide]", "Benzamide, N,N\u2032-(ethoxymethylsilylene)bis[N-methyl-", "N,N\u2032-(Ethoxymethylsilylene)bis[N-methylbenzamide]", "Bis(N-methylbenzamido)methylethoxysilane", "Bis(N-methylbenzamido)ethoxymethylsilane"], "SMILES": "[Si](N(C(=O)C1=CC=CC=C1)C)(N(C(=O)C2=CC=CC=C2)C)(OCC)C", "physical_data": {"Molecular Weight": "356.49", "Molecular Formula": "C19H24N2O3Si", "Boiling Point": "210 \u00b0C @ Press: 1 Torr", "Melting Point": "-13 \u00b0C", "Density": "1.130 g/cm\u00b3"}}