{"cas_no": "1623-88-7", "cn_name": "5-\u6c2f\u7532\u57fa\u544b\u5583-2-\u7532\u919b", "en_name": ["5-(Chloromethyl)-2-furancarboxaldehyde", "2-Furancarboxaldehyde, 5-(chloromethyl)-", "2-Furaldehyde, 5-(chloromethyl)-", "5-(Chloromethyl)-2-furancarboxaldehyde", "5-(Chloromethyl)furfural", "5-(Chloromethyl)furfuraldehyde", "5-(Chloromethyl)-2-furfural", "5-(Chloromethyl)-2-furaldehyde", "5-Chloromethylfuran-2-carbaldehyde", "2-Formyl-5-chloromethylfuran"], "SMILES": "C(Cl)C=1OC(C=O)=CC1", "physical_data": {"Molecular Weight": "144.56", "Molecular Formula": "C6H5ClO2", "Boiling Point": "137-138 \u00b0C @ Press: 5 Torr", "Melting Point": "37 \u00b0C"}}