{"cas_no": "1623-08-1", "cn_name": "\u78f7\u9178\u4e8c\u82c4\u916f", "en_name": ["Dibenzyl phosphate", "Phosphoric acid, bis(phenylmethyl) ester", "Phosphoric acid, dibenzyl ester", "Benzyl phosphate, OP(OCH2Ph)2OH", "Dibenzylphosphoric acid", "Dibenzyl phosphate", "Dibenzyl hydrogen phosphate"], "SMILES": "C(OP(OCC1=CC=CC=C1)(=O)O)C2=CC=CC=C2", "physical_data": {"Molecular Weight": "278.24", "Molecular Formula": "C14H15O4P", "Melting Point": "79 \u00b0C"}}