{"cas_no": "162359-56-0", "cn_name": "\u76d0\u9178\u82ac\u6208\u83ab\u5fb7", "en_name": ["Fingolimod hydrochloride", "1,3-Propanediol, 2-amino-2-[2-(4-octylphenyl)ethyl]-, hydrochloride (1:1)", "1,3-Propanediol, 2-amino-2-[2-(4-octylphenyl)ethyl]-, hydrochloride", "FTY 720", "Fingolimod hydrochloride", "2-Amino-2-[2-(4-octylphenyl)ethyl]propane-1,3-diol hydrochloride", "Gilenya", "Imusera", "2-Amino-[2-(4-octylphenyl)ethyl]-1,3-propanediol hydrochloride"], "SMILES": "C(CC(CO)(CO)N)C1=CC=C(CCCCCCCC)C=C1.Cl", "physical_data": {"Molecular Weight": "", "Molecular Formula": "C19H33NO2.ClH", "Melting Point": "107-108 \u00b0C"}}