{"cas_no": "16239-18-2", "cn_name": "1,6-\u4e8c\u6eb4-2-\u8418\u915a", "en_name": ["1,6-Dibromo-2-naphthalenol", "2-Naphthalenol, 1,6-dibromo-", "2-Naphthol, 1,6-dibromo-", "1,6-Dibromo-2-naphthalenol", "1,6-Dibromo-\u03b2-naphthol", "1,6-Dibromo-2-naphthol", "1,6-Dibromo-2-hydroxynaphthalene", "2-Hydroxy-1,6-dibromonaphthalene", "NSC 9870"], "SMILES": "BrC=1C2=C(C=C(Br)C=C2)C=CC1O", "physical_data": {"Molecular Weight": "301.96", "Molecular Formula": "C10H6Br2O", "Melting Point": "106 \u00b0C"}}