{"cas_no": "1623-19-4", "cn_name": "GAMMA-\u4e19\u4f4d\u5341\u4e8c\u5185\u916f", "en_name": ["Triallyl phosphate", "Phosphoric acid, tri-2-propen-1-yl ester", "Phosphoric acid, triallyl ester", "Phosphoric acid, tri-2-propenyl ester", "Triallyl phosphate", "Triallyl orthophosphate", "NSC 30703", "Trially phosphate"], "SMILES": "P(OCC=C)(OCC=C)(OCC=C)=O", "physical_data": {"Molecular Weight": "218.19", "Molecular Formula": "C9H15O4P", "Boiling Point": "80 \u00b0C @ Press: 0.5 Torr", "Density": "1.064 g/cm\u00b3 @ Temp: 25 \u00b0C"}}