{"cas_no": "162358-09-0", "cn_name": "2-\u4e59\u9170\u80fa\u57fa-2-(4-\u8f9b\u57fa\u82ef\u4e59\u57fa)\u4e19\u70f7-1,3-\u4e8c\u57fa\u4e8c\u4e59\u9178\u916f", "en_name": ["N-[1,1-Bis[(acetyloxy)methyl]-3-(4-octylphenyl)propyl]acetamide", "Acetamide, N-[1,1-bis[(acetyloxy)methyl]-3-(4-octylphenyl)propyl]-", "N-[1,1-Bis[(acetyloxy)methyl]-3-(4-octylphenyl)propyl]acetamide", "Acetic acid 2-acetoxymethyl-2-acetylamino-4-(4-octylphenyl)butyl ester", "2-Acetamido-2-acetoxymethyl-4-(4-octylphenyl)butyl acetate", "2-Acetamido-2-(4-octylphenethyl)-propane-1,3-diyl diacetate"], "SMILES": "C(CCC1=CC=C(CCCCCCCC)C=C1)(COC(C)=O)(COC(C)=O)NC(C)=O", "physical_data": {"Molecular Weight": "433.58", "Molecular Formula": "C25H39NO5", "Melting Point": "110-112 \u00b0C"}}