{"cas_no": "1623-95-6", "cn_name": "4-\u82ef\u6c27\u57fa\u82ef\u7532\u9170\u6c2f", "en_name": ["4-Phenoxybenzoyl chloride", "Benzoyl chloride, 4-phenoxy-", "Benzoyl chloride, p-phenoxy-", "4-Phenoxybenzoyl chloride", "p-Phenoxybenzoyl chloride"], "SMILES": "O(C1=CC=C(C(Cl)=O)C=C1)C2=CC=CC=C2", "physical_data": {"Molecular Weight": "232.66", "Molecular Formula": "C13H9ClO2", "Boiling Point": "183-185 \u00b0C @ Press: 22 Torr"}}