{"cas_no": "1623-93-4", "cn_name": "\u5bf9\u8054\u82ef\u78fa\u9170\u6c2f", "en_name": ["[1,1\u2032-Biphenyl]-4-sulfonyl chloride", "[1,1\u2032-Biphenyl]-4-sulfonyl chloride", "4-Biphenylsulfonyl chloride", "4-(Chlorosulfonyl)biphenyl", "p-Phenylbenzenesulfonyl chloride", "(4-Biphenylyl)sulfonyl chloride", "4-Phenylbenzenesulfonic acid chloride", "4-Phenylbenzenesulfonyl chloride", "p-Biphenylsulfonyl chloride", "([1,1\u2032-Biphenyl]-4-yl)sulfonyl chloride"], "SMILES": "S(Cl)(=O)(=O)C1=CC=C(C=C1)C2=CC=CC=C2", "physical_data": {"Molecular Weight": "252.72", "Molecular Formula": "C12H9ClO2S", "Melting Point": "114-115 \u00b0C"}}