{"cas_no": "162359-55-9", "cn_name": "2-\u6c28\u57fa-2-[2-(4-\u8f9b\u57fa\u82ef\u57fa)\u4e59\u57fa]-1,3-\u4e19\u4e8c\u9187", "en_name": ["Fingolimod", "1,3-Propanediol, 2-amino-2-[2-(4-octylphenyl)ethyl]-", "2-Amino-2-[2-(4-octylphenyl)ethyl]-1,3-propanediol", "Fingolimod", "2-Amino-2-[2-(4-octylphenyl)ethyl]-1,3-propandiol", "2-Amino-2-[2-(4-octylphenyl)ethyl]propane-1,3-diol"], "SMILES": "C(CC(CO)(CO)N)C1=CC=C(CCCCCCCC)C=C1", "physical_data": {"Molecular Weight": "307.47", "Molecular Formula": "C19H33NO2", "Melting Point": "121-124 \u00b0C"}}