{"cas_no": "1623-05-8", "cn_name": "\u5168\u6c1f\u6b63\u4e19\u57fa\u4e59\u70ef\u57fa\u919a", "en_name": ["1,1,1,2,2,3,3-Heptafluoro-3-[(1,2,2-trifluoroethenyl)oxy]propane", "Propane, 1,1,1,2,2,3,3-heptafluoro-3-[(1,2,2-trifluoroethenyl)oxy]-", "Ether, heptafluoropropyl trifluorovinyl", "Propane, 1,1,1,2,2,3,3-heptafluoro-3-[(trifluoroethenyl)oxy]-", "1,1,1,2,2,3,3-Heptafluoro-3-[(1,2,2-trifluoroethenyl)oxy]propane", "Perfluoropropyl perfluorovinyl ether", "Perfluoro(propyl vinyl ether)", "Heptafluoropropyl trifluorovinyl ether", "1,1,2,4,4,5,5,6,6,6-Decafluoro-3-oxahex-1-ene", "Perfluoropropoxyethene", "Perfluoropropyl trifluorovinyl ether", "1,1,1,2,2,3,3-Heptafluoro-3-((1,2,2-trifluorovinyl)oxy)propane", "Cheminox FPVE", "PPVE", "Perfluorovinyl perfluoropropyl ether", "1,1,1,2,2,3,3-Heptafluoro-3-(trifluorovinyloxy)propane", "1,1,1,2,2,3,3-Heptafluoro-3-[(trifluoroethenyl)oxy]propane", "Perfluoroethenyl perfluoropropyl ether", "SF 000360"], "SMILES": "C(C(OC(=C(F)F)F)(F)F)(C(F)(F)F)(F)F", "physical_data": {"Molecular Weight": "266.04", "Molecular Formula": "C5F10O", "Boiling Point": "35-36 \u00b0C"}}