{"cas_no": "162401-32-3", "cn_name": "\u7f57\u6c1f\u53f8\u7279", "en_name": ["Roflumilast", "Benzamide, 3-(cyclopropylmethoxy)-N-(3,5-dichloro-4-pyridinyl)-4-(difluoromethoxy)-", "3-(Cyclopropylmethoxy)-N-(3,5-dichloro-4-pyridinyl)-4-(difluoromethoxy)benzamide", "Roflumilast", "BYK 20869", "BY 217", "B 9302-107", "Daxas", "Daliresp", "ARQ 151", "Libertek"], "SMILES": "O(CC1CC1)C2=C(OC(F)F)C=CC(C(NC=3C(Cl)=CN=CC3Cl)=O)=C2", "physical_data": {"Molecular Weight": "403.21", "Molecular Formula": "C17H14Cl2F2N2O3", "Melting Point": "157-157.5 \u00b0C"}}