{"cas_no": "162401-62-9", "cn_name": "3-(\u73af\u4e19\u7532\u6c27\u57fa)-4-(\u4e8c\u6c1f\u7532\u6c27\u57fa)\u82ef\u7532\u9178", "en_name": ["3-Cyclopropylmethoxy-4-difluoromethoxybenzoic acid", "Benzoic acid, 3-(cyclopropylmethoxy)-4-(difluoromethoxy)-", "3-(Cyclopropylmethoxy)-4-(difluoromethoxy)benzoic acid", "3-Cyclopropylmethoxy-4-difluoromethoxybenzoic acid"], "SMILES": "O(CC1CC1)C2=C(OC(F)F)C=CC(C(O)=O)=C2", "physical_data": {"Molecular Weight": "258.22", "Molecular Formula": "C12H12F2O4", "Melting Point": "119-119.5 \u00b0C"}}