{"cas_no": "16245-79-7", "cn_name": "4-\u8f9b\u57fa\u82ef\u80fa", "en_name": ["4-Octylbenzenamine", "Benzenamine, 4-octyl-", "Aniline, p-octyl-", "4-Octylbenzenamine", "p-n-Octylaniline", "p-Octylaniline", "4-n-Octylaniline", "4-Octylaniline", "4-Octylphenylamine"], "SMILES": "C(CCCCCCC)C1=CC=C(N)C=C1", "physical_data": {"Molecular Weight": "205.34", "Molecular Formula": "C14H23N", "Boiling Point": "310 \u00b0C", "Melting Point": "20 \u00b0C"}}