{"cas_no": "1624-02-8", "cn_name": "\u94ec\u9178\u53cc(\u4e09\u82ef\u57fa\u7532\u7845\u70f7\u57fa)\u916f", "en_name": ["Chromic acid (H2CrO4), bis(triphenylsilyl) ester", "Chromic acid (H2CrO4), bis(triphenylsilyl) ester", "Silanol, triphenyl-, diester with chromic acid (H2CrO4)", "Silanol, triphenyl-, chromate(VI)", "Bis(triphenylsilyl) chromate"], "SMILES": "[Si](O[Cr](O[Si](C1=CC=CC=C1)(C2=CC=CC=C2)C3=CC=CC=C3)(=O)=O)(C4=CC=CC=C4)(C5=CC=CC=C5)C6=CC=CC=C6", "physical_data": {"Molecular Weight": "", "Molecular Formula": "C36H30CrO4Si2", "Melting Point": "155-156 \u00b0C"}}