{"cas_no": "1624-01-7", "cn_name": "\u56db(\u4e8c\u7532\u57fa\u6c28\u57fa)\u7845\u70f7", "en_name": ["Tetrakis(dimethylamino)silane", "Silanetetramine, N,N,N\u2032,N\u2032,N\u2032\u2032,N\u2032\u2032,N\u2032\u2032\u2032,N\u2032\u2032\u2032-octamethyl-", "Silanetetramine, octamethyl-", "N,N,N\u2032,N\u2032,N\u2032\u2032,N\u2032\u2032,N\u2032\u2032\u2032,N\u2032\u2032\u2032-Octamethylsilanetetramine", "Octamethylsilanetetramine", "Tetrakis(dimethylamino)silane", "Tetrakis(dimethylamido)silicon", "NSC 130238", "Tetra(dimethylamino)silane", "Tetrakis(dimethylamino)silicon"], "SMILES": "[Si](N(C)C)(N(C)C)(N(C)C)N(C)C", "physical_data": {"Molecular Weight": "204.39", "Molecular Formula": "C8H24N4Si", "Boiling Point": "74-75 \u00b0C @ Press: 19 Torr", "Melting Point": "16 \u00b0C", "Density": "0.885 g/cm\u00b3"}}