{"cas_no": "1624-62-0", "cn_name": "3-\u7532\u6c27\u57fa\u96cc\u916e", "en_name": ["(+)-Estrone 3-methyl ether", "Estra-1,3,5(10)-trien-17-one, 3-methoxy-", "3-Methoxyestra-1,3,5(10)-trien-17-one", "Estrone 3-methyl ether", "Estrone methyl ether", "3-Methoxyestra-1,3,5-trien-17-one", "3-Methoxyoestra-1,3,5(10)-trien-17-one", "Oestrone methyl ether", "3-Methoxyestrone", "3-O-Methylestrone", "Estrone O-methyl ether", "(+)-Estrone 3-methyl ether", "3-Methoxyestra-1,3,5(10)triene-17-one", "NSC 88911", "(+)-Estrone methyl ether", "Mestrone", "(8R,9S,13S,14S)-3-Methoxy-13-methyl-6,7,8,9,11,12,13,14,15,16-decahydro-17H-cyclopenta[a]phenanthren-17-one"], "SMILES": "CC12C(C3C(C=4C(CC3)=CC(OC)=CC4)CC1)CCC2=O", "physical_data": {"Molecular Weight": "284.39", "Molecular Formula": "C19H24O2", "Melting Point": "164-165 \u00b0C"}}