{"cas_no": "162537-11-3", "cn_name": "N-\u7532\u6c27\u7fb0\u57fa-L-\u53d4\u4eae\u6c28\u9178", "en_name": ["N-(Methoxycarbonyl)-3-methyl-L-valine", "L-Valine, N-(methoxycarbonyl)-3-methyl-", "N-(Methoxycarbonyl)-3-methyl-L-valine", "N-(Methoxycarbonyl)-L-tert-leucine", "(S)-2-(Methoxycarbonylamino)-3,3-dimethylbutanoic acid", "(2S)-2-[(Methoxycarbonyl)amino]-3,3-dimethylbutanoic acid"], "SMILES": "C(NC(OC)=O)(C(C)(C)C)C(O)=O", "physical_data": {"Molecular Weight": "189.21", "Molecular Formula": "C8H15NO4", "Melting Point": "108-109 \u00b0C"}}