{"cas_no": "1625-91-8", "cn_name": "4,4'-\u4e8c\u53d4\u4e01\u57fa\u82ef\u5e76", "en_name": ["4,4\u2032-Bis(1,1-dimethylethyl)-1,1\u2032-biphenyl", "1,1\u2032-Biphenyl, 4,4\u2032-bis(1,1-dimethylethyl)-", "Biphenyl, 4,4\u2032-di-tert-butyl-", "4,4\u2032-Bis(1,1-dimethylethyl)-1,1\u2032-biphenyl", "p,p\u2032-Di-tert-butylbiphenyl", "4,4\u2032-Di-tert-butylbiphenyl", "DBB", "4,4\u2032-Di-tert-butyl-1,1\u2032-biphenyl", "1-tert-Butyl-4-(4-tert-butylphenyl)benzene"], "SMILES": "C(C)(C)(C)C1=CC=C(C=C1)C2=CC=C(C(C)(C)C)C=C2", "physical_data": {"Molecular Weight": "266.42", "Molecular Formula": "C20H26", "Boiling Point": "326 \u00b0C", "Melting Point": "122 \u00b0C", "Density": "0.9502 g/cm\u00b3 @ Temp: 20 \u00b0C"}}