{"cas_no": "162536-40-5", "cn_name": "(2R,3S)-3-(\u53d4\u4e01\u6c27\u7fb0\u57fa\u6c28\u57fa)-1-\u6c2f-2-\u7f9f\u57fa-4-\u82ef\u57fa\u4e01\u70f7", "en_name": ["1,1-Dimethylethyl N-[(1S,2R)-3-chloro-2-hydroxy-1-(phenylmethyl)propyl]carbamate", "Carbamic acid, N-[(1S,2R)-3-chloro-2-hydroxy-1-(phenylmethyl)propyl]-, 1,1-dimethylethyl ester", "Carbamic acid, [3-chloro-2-hydroxy-1-(phenylmethyl)propyl]-, 1,1-dimethylethyl ester, [R-(R*,S*)]-", "Carbamic acid, [(1S,2R)-3-chloro-2-hydroxy-1-(phenylmethyl)propyl]-, 1,1-dimethylethyl ester", "1,1-Dimethylethyl N-[(1S,2R)-3-chloro-2-hydroxy-1-(phenylmethyl)propyl]carbamate", "(2R,3S)-3-(tert-Butoxycarbonylamino)-1-chloro-2-hydroxy-4-phenylbutane", "(2R,3S)-N-tert-Butoxycarbonyl-3-amino-1-chloro-2-hydroxy-4-phenylbutane", "(2R,3S)-1-Chloro-3-tert-butoxycarbonylamino-4-phenyl-2-butanol"], "SMILES": "C(CC1=CC=CC=C1)(NC(OC(C)(C)C)=O)C(CCl)O", "physical_data": {"Molecular Weight": "299.79", "Molecular Formula": "C15H22ClNO3", "Melting Point": "83-84 \u00b0C"}}