{"cas_no": "16255-48-4", "cn_name": "\u6c2f\u9709\u7d20\u786c\u8102\u9178\u916f", "en_name": ["(2R,3R)-2-[(2,2-Dichloroacetyl)amino]-3-hydroxy-3-(4-nitrophenyl)propyl octadecanoate", "Octadecanoic acid, (2R,3R)-2-[(2,2-dichloroacetyl)amino]-3-hydroxy-3-(4-nitrophenyl)propyl ester", "Stearic acid, \u03b1-ester with D-threo-(-)-2,2-dichloro-N-[\u03b2-hydroxy-\u03b1-(hydroxymethyl)-p-nitrophenethyl]acetamide", "Octadecanoic acid, 2-[(dichloroacetyl)amino]-3-hydroxy-3-(4-nitrophenyl)propyl ester, [R-(R*,R*)]-", "Stearic acid, \u03b1-ester with 2,2-dichloro-N-[\u03b2-hydroxy-\u03b1-(hydroxymethyl)-p-nitrophenethyl]acetamide", "Octadecanoic acid, (2R,3R)-2-[(dichloroacetyl)amino]-3-hydroxy-3-(4-nitrophenyl)propyl ester", "Acetamide, 2,2-dichloro-N-[\u03b2-hydroxy-\u03b1-(hydroxymethyl)-p-nitrophenethyl]-, \u03b1-stearate, D-threo-(-)-", "(2R,3R)-2-[(2,2-Dichloroacetyl)amino]-3-hydroxy-3-(4-nitrophenyl)propyl octadecanoate", "Chloramphenicol stearate", "Stearic acid, ester with chloramphenicol", "Chloramphenicol stearic acid ester", "Eusynthomycin", "Madomicetina", "Levomycetin stearate"], "SMILES": "C(C(COC(CCCCCCCCCCCCCCCCC)=O)NC(C(Cl)Cl)=O)(O)C1=CC=C(N(=O)=O)C=C1", "physical_data": {"Molecular Weight": "589.59", "Molecular Formula": "C29H46Cl2N2O6", "Melting Point": "97-98 \u00b0C"}}