{"cas_no": "1625-39-4", "cn_name": "\u7532\u57fa\u6cfc\u5c3c\u677e\u6742\u8d28", "en_name": ["6\u03b1-Methylhydrocortisone", "Pregn-4-ene-3,20-dione, 11,17,21-trihydroxy-6-methyl-, (6\u03b1,11\u03b2)-", "Pregn-4-ene-3,20-dione, 11\u03b2,17,21-trihydroxy-6\u03b1-methyl-", "Corticosterone, 17-hydroxy-6\u03b1-methyl-", "(6\u03b1,11\u03b2)-11,17,21-Trihydroxy-6-methylpregn-4-ene-3,20-dione", "U 7240", "6\u03b1-Methylcortisol", "6\u03b1-Methylhydrocortisone", "6\u03b1-Methyl-11\u03b2,17\u03b1,21-trihydroxy-4-pregnene-3,20-dione", "NSC 19618", "Premedrol"], "SMILES": "CC12C(C3C(C4(C)C(C(C)C3)=CC(=O)CC4)C(O)C1)CCC2(C(CO)=O)O", "physical_data": {"Molecular Weight": "376.49", "Molecular Formula": "C22H32O5", "Melting Point": "203-208 \u00b0C"}}