{"cas_no": "16251-77-7", "cn_name": "\u03b2-\u7532\u57fa\u82ef\u4e19\u919b", "en_name": ["3-Phenylbutanal", "Benzenepropanal, \u03b2-methyl-", "Hydrocinnamaldehyde, \u03b2-methyl-", "\u03b2-Methylbenzenepropanal", "3-Phenylbutanal", "3-Phenylbutyraldehyde", "(RS)-3-Phenylbutanal", "(\u00b1)-3-Phenylbutyraldehyde", "Trifernal", "3-Methyl-3-phenylpropionaldehyde", "3-Phenylbutylaldehyde", "3-Phenyl-1-butanal"], "SMILES": "C(CC=O)(C)C1=CC=CC=C1", "physical_data": {"Molecular Weight": "148.20", "Molecular Formula": "C10H12O", "Boiling Point": "110 \u00b0C @ Press: 9 Torr", "Density": "1.059 g/cm\u00b3 @ Temp: 20 \u00b0C"}}