{"cas_no": "162607-26-3", "cn_name": "3-\u6eb4\u567b\u5429-2-\u787c\u9178", "en_name": ["B-(3-Bromo-2-thienyl)boronic acid", "Boronic acid, B-(3-bromo-2-thienyl)-", "Boronic acid, (3-bromo-2-thienyl)-", "B-(3-Bromo-2-thienyl)boronic acid", "(3-Bromo-2-thiophenyl)boronic acid", "(3-Bromothiophen-2-yl)boronic acid", "3-Bromothiophene-2-boronic acid"], "SMILES": "B(O)(O)C1=C(Br)C=CS1", "physical_data": {"Molecular Weight": "206.85", "Molecular Formula": "C4H4BBrO2S", "Melting Point": "201-203 \u00b0C"}}