{"cas_no": "162607-23-0", "cn_name": "2,5-\u4e8c\u7532\u57fa\u567b\u5429-3-\u787c\u9178", "en_name": ["B-(2,5-Dimethyl-3-thienyl)boronic acid", "Boronic acid, B-(2,5-dimethyl-3-thienyl)-", "Boronic acid, (2,5-dimethyl-3-thienyl)-", "B-(2,5-Dimethyl-3-thienyl)boronic acid", "2,5-Dimethyl-3-thienylboronic acid", "2,5-Dimethylthien-3-ylboronic acid", "(2,5-Dimethylthiophen-3-yl)boronic acid", "2,5-Dimethylthiophene-3-boronic acid"], "SMILES": "B(O)(O)C=1C=C(C)SC1C", "physical_data": {"Molecular Weight": "156.01", "Molecular Formula": "C6H9BO2S", "Melting Point": "180-183 \u00b0C"}}