{"cas_no": "162648-54-6", "cn_name": "1-(FMOC-\u6c28\u57fa)\u73af\u5df1\u7fa7\u9178", "en_name": ["1-[(Fmoc)amino]cyclohexanecarboxylic acid", "Cyclohexanecarboxylic acid, 1-[[(9H-fluoren-9-ylmethoxy)carbonyl]amino]-", "1-[[(9H-Fluoren-9-ylmethoxy)carbonyl]amino]cyclohexanecarboxylic acid", "1-[(Fmoc)amino]cyclohexanecarboxylic acid", "1-([[(9H-Fluoren-9-yl)methoxy]carbonyl]amino)cyclohexane-1-carboxylic acid", "1-[[(9H-Fluoren-9-ylmethoxy)carbonyl]amino]cyclohexane-1-carboxylic acid", "Fmoc-cLeu-OH"], "SMILES": "C(OC(NC1(C(O)=O)CCCCC1)=O)C2C=3C(C=4C2=CC=CC4)=CC=CC3", "physical_data": {"Molecular Weight": "365.42", "Molecular Formula": "C22H23NO4", "Melting Point": "171-172 \u00b0C"}}