{"cas_no": "1626-24-0", "cn_name": "\u4e09\u82ef\u57fa\u6c2f\u5316\u9517", "en_name": ["Chlorotriphenylgermane", "Germane, chlorotriphenyl-", "Triphenylgermanium chloride", "Chlorotriphenylgermane", "Triphenylgermyl chloride", "Triphenylchlorogermane", "NSC 166299"], "SMILES": "[Ge](Cl)(C1=CC=CC=C1)(C2=CC=CC=C2)C3=CC=CC=C3", "physical_data": {"Molecular Weight": "339.40", "Molecular Formula": "C18H15ClGe", "Boiling Point": "285 \u00b0C @ Press: 12 Torr", "Melting Point": "117 \u00b0C", "Density": "1.166 g/cm\u00b3 @ Temp: 20 \u00b0C"}}