{"cas_no": "16260-48-3", "cn_name": "3,7-\u4e8c\u786b\u6742-1,9-\u58ec\u4e8c\u9187", "en_name": ["1,3-Bis(2-hydroxyethylthio)propane", "Ethanol, 2,2\u2032-[1,3-propanediylbis(thio)]bis-", "Ethanol, 2,2\u2032-(trimethylenedithio)di-", "2,2\u2032-[1,3-Propanediylbis(thio)]bis[ethanol]", "3,7-Dithianonane-1,9-diol", "NSC 650634", "1,3-Bis(2-hydroxyethylthio)propane", "1,3-Bis(2-hydroxyethylsulfanyl)propane", "2,2\u2032-(Propane-1,3-diylbis(sulfanediyl))diethanol", "2-[3-(2-Hydroxyethylsulfanyl)propylsulfanyl]ethanol"], "SMILES": "C(CSCCO)CSCCO", "physical_data": {"Molecular Weight": "196.33", "Molecular Formula": "C7H16O2S2", "Boiling Point": "167 \u00b0C @ Press: 1.5 Torr"}}