{"cas_no": "16264-05-4", "cn_name": "1,4-\u53cc(4-\u785d\u57fa\u82ef\u57fa)\u54cc\u55ea", "en_name": ["1,4-Bis(4-nitrophenyl)piperazine", "Piperazine, 1,4-bis(4-nitrophenyl)-", "Piperazine, 1,4-bis(p-nitrophenyl)-", "1,4-Bis(4-nitrophenyl)piperazine", "1,4-Bis(p-nitrophenyl)piperazine"], "SMILES": "N(=O)(=O)C1=CC=C(N2CCN(CC2)C3=CC=C(N(=O)=O)C=C3)C=C1", "physical_data": {"Molecular Weight": "328.32", "Molecular Formula": "C16H16N4O4", "Melting Point": "258.5-259 \u00b0C"}}