{"cas_no": "16265-04-6", "cn_name": "2-\u6c2f\u54aa\u5511", "en_name": ["2-Chloro-1H-imidazole", "1H-Imidazole, 2-chloro-", "Imidazole, 2-chloro-", "2-Chloro-1H-imidazole", "2-Chloroimidazole"], "SMILES": "ClC=1NC=CN1", "physical_data": {"Molecular Weight": "102.52", "Molecular Formula": "C3H3ClN2", "Melting Point": "162-163 \u00b0C"}}