{"cas_no": "162758-35-2", "cn_name": "1-(2,4-\u4e8c\u6c2f\u82ef\u57fa)-5-\u5bf9\u6c2f\u82ef\u57fa-4-\u7532\u57fa-\u5421\u5511-3-\u7532\u9178", "en_name": ["5-(4-Chlorophenyl)-1-(2,4-dichlorophenyl)-4-methyl-1H-pyrazole-3-carboxylic acid", "1H-Pyrazole-3-carboxylic acid, 5-(4-chlorophenyl)-1-(2,4-dichlorophenyl)-4-methyl-", "5-(4-Chlorophenyl)-1-(2,4-dichlorophenyl)-4-methyl-1H-pyrazole-3-carboxylic acid", "1-(2,4-Dichlorophenyl)-5-(4-chlorophenyl)-4-methyl-1H-pyrazole-3-carboxylic acid", "5-(4-Chlorophenyl)-1-(2,4-dichlorophenyl)-4-methylpyrazole-3-carboxylic acid"], "SMILES": "CC1=C(N(N=C1C(O)=O)C2=C(Cl)C=C(Cl)C=C2)C3=CC=C(Cl)C=C3", "physical_data": {"Molecular Weight": "381.64", "Molecular Formula": "C17H11Cl3N2O2", "Melting Point": "202-203 \u00b0C"}}