{"cas_no": "16273-37-3", "cn_name": "\u95f4\u6c2f\u6241\u6843\u9178", "en_name": ["3-Chloromandelic acid", "Benzeneacetic acid, 3-chloro-\u03b1-hydroxy-", "Mandelic acid, m-chloro-", "3-Chloro-\u03b1-hydroxybenzeneacetic acid", "3-Chloromandelic acid", "m-Chloromandelic acid", "(\u00b1)-m-Chloromandelic acid", "NSC 126599", "2-(3-Chlorophenyl)-2-(hydroxy)acetic acid", "(3-Chlorophenyl)hydroxyacetic acid", "3-Chlorophenyl-2-hydroxyacetic acid"], "SMILES": "C(C(O)=O)(O)C1=CC(Cl)=CC=C1", "physical_data": {"Molecular Weight": "186.59", "Molecular Formula": "C8H7ClO3", "Melting Point": "115-115.5 \u00b0C"}}