{"cas_no": "16271-33-3", "cn_name": "2,4-\u4e8c\u6c2f\u82ef\u78fa\u9170\u6c2f", "en_name": ["2,4-Dichlorobenzenesulfonyl chloride", "Benzenesulfonyl chloride, 2,4-dichloro-", "2,4-Dichlorobenzenesulfonyl chloride", "2,4-Dichlorophenylsulfonyl chloride", "2,4-Dichlorobenzene-1-sulfonyl chloride"], "SMILES": "S(Cl)(=O)(=O)C1=C(Cl)C=C(Cl)C=C1", "physical_data": {"Molecular Weight": "245.51", "Molecular Formula": "C6H3Cl3O2S", "Melting Point": "56 \u00b0C"}}