{"cas_no": "1628-89-3", "cn_name": "2-\u7532\u6c27\u57fa\u5421\u5576", "en_name": ["2-Methoxypyridine", "Pyridine, 2-methoxy-", "2-Methoxypyridine"], "SMILES": "O(C)C1=CC=CC=N1", "physical_data": {"Molecular Weight": "109.13", "Molecular Formula": "C6H7NO", "Boiling Point": "142 \u00b0C", "Density": "1.041 g/cm\u00b3 @ Temp: 25 \u00b0C"}}