{"cas_no": "1628-11-1", "cn_name": "\u7532\u57fa-3-\u6c2f\u5f02\u4e01\u57fa\u4e8c\u6c2f\u7845\u70f7", "en_name": ["Dichloro(3-chloro-2-methylpropyl)methylsilane", "Silane, dichloro(3-chloro-2-methylpropyl)methyl-", "Dichloro(3-chloro-2-methylpropyl)methylsilane", "(3-Chloro-2-methylpropyl)methyldichlorosilane"], "SMILES": "C([Si](C)(Cl)Cl)C(CCl)C", "physical_data": {"Molecular Weight": "205.59", "Molecular Formula": "C5H11Cl3Si", "Boiling Point": "196 \u00b0C", "Density": "1.1703 g/cm\u00b3"}}