{"cas_no": "16284-60-9", "cn_name": "N-\u5f02\u620a\u9170\u6c28\u57fa\u4e59\u9178", "en_name": ["Isovalerylglycine", "Glycine, N-(3-methyl-1-oxobutyl)-", "Glycine, N-isovaleryl-", "N-(3-Methyl-1-oxobutyl)glycine", "N-Isovalerylglycine", "Isovalerylglycine", "N-Isovaleroylglycine", "2-(3-Methylbutanamido)acetic acid", "2-(3-Methylbutanoylamino)acetic acid"], "SMILES": "C(NCC(O)=O)(CC(C)C)=O", "physical_data": {"Molecular Weight": "159.18", "Molecular Formula": "C7H13NO3", "Melting Point": "87-90 \u00b0C"}}