{"cas_no": "1628-29-1", "cn_name": "1-(10H-\u5429\u567b\u55ea-10-\u57fa)\u4e59\u916e", "en_name": ["1-(10H-Phenothiazin-10-yl)ethanone", "Ethanone, 1-(10H-phenothiazin-10-yl)-", "Phenothiazine, 10-acetyl-", "10H-Phenothiazine, 10-acetyl-", "1-(10H-Phenothiazin-10-yl)ethanone", "10-Acetylphenothiazine", "NSC 14724", "10-Acetyl-10H-phenothiazine", "1-(10H-Phenothiazin-10-yl)ethan-1-one", "1-Phenothiazin-10-ylethanone", "J 3-55"], "SMILES": "C(C)(=O)N1C=2C(SC=3C1=CC=CC3)=CC=CC2", "physical_data": {"Molecular Weight": "241.31", "Molecular Formula": "C14H11NOS", "Melting Point": "198 \u00b0C"}}