{"cas_no": "1629-58-9", "cn_name": "1-\u620a\u70ef-3-\u916e", "en_name": ["1-Penten-3-one", "1-Penten-3-one", "Ethyl vinyl ketone", "Vinyl ethyl ketone", "4-Penten-3-one", "NSC 81211"], "SMILES": "C(CC)(C=C)=O", "physical_data": {"Molecular Weight": "84.12", "Molecular Formula": "C5H8O", "Boiling Point": "103 \u00b0C", "Melting Point": "59-61 \u00b0C", "Density": "0.9425 g/cm\u00b3 @ Temp: 0 \u00b0C"}}