{"cas_no": "16290-07-6", "cn_name": "\u5c71\u5948\u915a-7-O-\u0392-D-\u8461\u8404\u7cd6\u82f7", "en_name": ["Kaempferol 7-O-glucoside", "4H-1-Benzopyran-4-one, 7-(\u03b2-D-glucopyranosyloxy)-3,5-dihydroxy-2-(4-hydroxyphenyl)-", "Populnin", "7-(\u03b2-D-Glucopyranosyloxy)-3,5-dihydroxy-2-(4-hydroxyphenyl)-4H-1-benzopyran-4-one", "Kaempferol 7-glucoside", "Glucosyl-7-kaempferol", "Kaempferol 7-monoglucoside", "Kaempferol 7-\u03b2-D-glucopyranoside", "Kaempferol 7-\u03b2-glucopyranoside", "Kaempferol 7-O-\u03b2-D-glucoside", "Kaempferol 7-O-glucoside", "Kaempferol 7-O-\u03b2-D-glucopyranoside", "Kaempferol 7-O-\u03b2-glucopyranoside", "7-(\u03b2-Glucopyranosyloxy)kaempferol"], "SMILES": "O=C1C=2C(OC(=C1O)C3=CC=C(O)C=C3)=CC(OC4OC(CO)C(O)C(O)C4O)=CC2O", "physical_data": {"Molecular Weight": "448.38", "Molecular Formula": "C21H20O11", "Melting Point": "228-230 \u00b0C (decomp)"}}