{"cas_no": "16292-95-8", "cn_name": "3-\u7532\u6c27\u57fa-4-\u785d\u57fa\u82ef\u915a", "en_name": ["3-Methoxy-4-nitrophenol", "Phenol, 3-methoxy-4-nitro-", "3-Methoxy-4-nitrophenol"], "SMILES": "O(C)C1=C(N(=O)=O)C=CC(O)=C1", "physical_data": {"Molecular Weight": "169.13", "Molecular Formula": "C7H7NO4", "Melting Point": "144 \u00b0C"}}