{"cas_no": "16298-03-6", "cn_name": "3-\u6c28\u57fa\u5421\u55ea-2-\u7fa7\u9178\u7532\u916f", "en_name": ["2-Pyrazinecarboxylic acid, 3-amino-, methyl ester", "2-Pyrazinecarboxylic acid, 3-amino-, methyl ester", "Pyrazinecarboxylic acid, 3-amino-, methyl ester", "Pyrazinoic acid, 3-amino-, methyl ester", "2-Amino-3-(methoxycarbonyl)pyrazine", "Methyl 3-aminopyrazinecarboxylate", "Methyl 3-aminopyrazine-2-carboxylate", "3-Aminopyrazine-2-carboxylic acid methyl ester", "Methyl 2-aminopyrazine-3-carboxylate", "NSC 123649"], "SMILES": "C(OC)(=O)C=1C(N)=NC=CN1", "physical_data": {"Molecular Weight": "153.14", "Molecular Formula": "C6H7N3O2", "Melting Point": "172 \u00b0C"}}