{"cas_no": "1629-60-3", "cn_name": "1-\u5df1\u916e", "en_name": ["1-Hexen-3-one", "1-Hexen-3-one", "Vinyl propyl ketone", "Propyl vinyl ketone"], "SMILES": "C(CCC)(C=C)=O", "physical_data": {"Molecular Weight": "98.14", "Molecular Formula": "C6H10O", "Boiling Point": "24 \u00b0C @ Press: 10 Torr", "Density": "0.8518 g/cm\u00b3 @ Temp: 15 \u00b0C"}}