{"cas_no": "1629229-37-3", "cn_name": "\u975e\u5511\u5948\u5766", "en_name": ["[(8R)-5,6-Dihydro-8-methyl-3-(3-methyl-1,2,4-thiadiazol-5-yl)-1,2,4-triazolo[4,3-a]pyrazin-7(8H)-yl](4-fluorophenyl)methanone", "Methanone, [(8R)-5,6-dihydro-8-methyl-3-(3-methyl-1,2,4-thiadiazol-5-yl)-1,2,4-triazolo[4,3-a]pyrazin-7(8H)-yl](4-fluorophenyl)-", "[(8R)-5,6-Dihydro-8-methyl-3-(3-methyl-1,2,4-thiadiazol-5-yl)-1,2,4-triazolo[4,3-a]pyrazin-7(8H)-yl](4-fluorophenyl)methanone", "Fezolinetant", "(4-Fluorophenyl)[(8R)-8-methyl-3-(3-methyl-1,2,4-thiadiazol-5-yl)-5,6-dihydro-[1,2,4]triazolo[4,3-a]pyrazin-7(8H)-yl]methanone", "ESN 364", "ESN-364", "AS 3472693-00", "A 2693"], "SMILES": "CC1C=2N(C(=NN2)C=3SN=C(C)N3)CCN1C(=O)C4=CC=C(F)C=C4", "physical_data": {"Molecular Weight": "358.39", "Molecular Formula": "C16H15FN6OS", "Melting Point": "166.8-168.6 \u00b0C"}}