{"cas_no": "16292-88-9", "cn_name": "3-\u7532\u6c27\u57fa-4-\u785d\u57fa\u82ef\u80fa", "en_name": ["3-Methoxy-4-nitroaniline", "Benzenamine, 3-methoxy-4-nitro-", "m-Anisidine, 4-nitro-", "3-Methoxy-4-nitrobenzenamine", "3-Methoxy-4-nitroaniline"], "SMILES": "O(C)C1=C(N(=O)=O)C=CC(N)=C1", "physical_data": {"Molecular Weight": "168.15", "Molecular Formula": "C7H8N2O3", "Melting Point": "158-160 \u00b0C"}}