{"cas_no": "1630-79-1", "cn_name": "\u56db\u6b21\u7532\u6c28\u57fa\u4e59\u787c\u70f7", "en_name": ["1,1,2,2-Diborane(4)tetramine, N1,N1,N1\u2032,N1\u2032,N2,N2,N2\u2032,N2\u2032-octamethyl-", "1,1,2,2-Diborane(4)tetramine, N1,N1,N1\u2032,N1\u2032,N2,N2,N2\u2032,N2\u2032-octamethyl-", "Diborane(4), tetrakis(dimethylamino)-", "Diborane(4)tetramine, octamethyl-", "Tetrakis(dimethylamino)diborane(4)", "1,1,2,2-Tetrakis(dimethylamino)diborane(4)", "Tetrakis(dimethylamino)diborane", "Tetrakis(dimethylamino)diboron", "NSC 220326", "NSC 665722"], "SMILES": "B(B(N(C)C)N(C)C)(N(C)C)N(C)C", "physical_data": {"Molecular Weight": "197.93", "Molecular Formula": "C8H24B2N4", "Boiling Point": "56-57 \u00b0C @ Press: 2 Torr"}}