{"cas_no": "16305-75-2", "cn_name": "L-\u4e19\u6c28\u9170-L-\u8272\u6c28\u9178", "en_name": ["L-Alanyl-L-tryptophan", "L-Tryptophan, L-alanyl-", "Tryptophan, N-L-alanyl-, L-", "L-Tryptophan, N-L-alanyl-", "Tryptophan, N-alanyl-", "L-Alanyl-L-tryptophan", "Alanyltryptophan", "NSC 97948", "178: PN: EP2161028 PAGE: 10 claimed protein", "7: PN: JP2010248096 PAGE: 2 claimed protein", "196: PN: WO2011146121 PAGE: 117 claimed sequence", "15: PN: WO2012076822 PAGE: 51 claimed sequence", "4: PN: JP2014003971 PAGE: 22 claimed sequence", "1: PN: WO2014020129 PAGE: 145 claimed sequence", "21: PN: JP2014079213 TABLE: 2 claimed sequence", "54: PN: WO2020097235 SEQID: 283 claimed protein"], "SMILES": "C(C(NC(C(C)N)=O)C(O)=O)C=1C=2C(NC1)=CC=CC2", "physical_data": {"Molecular Weight": "275.30", "Molecular Formula": "C14H17N3O3", "Melting Point": "260 \u00b0C"}}