{"cas_no": "16308-92-2", "cn_name": "2,4-\u4e8c\u7532\u57fa\u82c4\u9187", "en_name": ["2,4-Dimethylbenzyl alcohol", "Benzenemethanol, 2,4-dimethyl-", "Benzyl alcohol, 2,4-dimethyl-", "2,4-Dimethylbenzenemethanol", "2,4-Dimethylbenzyl alcohol", "(2,4-Dimethylphenyl)methanol"], "SMILES": "C(O)C1=C(C)C=C(C)C=C1", "physical_data": {"Molecular Weight": "136.19", "Molecular Formula": "C9H12O", "Boiling Point": "232 \u00b0C", "Melting Point": "22 \u00b0C"}}