{"cas_no": "163061-74-3", "cn_name": "(1S,2S)-(+)-TRANS-1-AMINO-2-INDANOL", "en_name": ["(1S,2S)-1-Amino-2-indanol", "1H-Inden-2-ol, 1-amino-2,3-dihydro-, (1S,2S)-", "1H-Inden-2-ol, 1-amino-2,3-dihydro-, (1S-trans)-", "(1S,2S)-1-Amino-2,3-dihydro-1H-inden-2-ol", "(1S,2S)-1-Amino-2-indanol", "trans-(1S,2S)-1-Amino-2-indanol", "(S,S)-1-Amino-2-hydroxyindane", "(1S,2S)-(+)-1-Amino-2-indanol", "(+)-trans-1-Amino-2-indanol", "(1S,2S)-1-Amino-2,3-dihydro-1-inden-2-ol"], "SMILES": "NC1C=2C(CC1O)=CC=CC2", "physical_data": {"Molecular Weight": "149.19", "Molecular Formula": "C9H11NO", "Melting Point": "144-145 \u00b0C"}}