{"cas_no": "1631-28-3", "cn_name": "1-(4-\u7532\u57fa\u82ef\u57fa)-1H-\u5421\u54af-2,5-\u4e8c\u916e", "en_name": ["N-(4-Methylphenyl)maleimide", "1H-Pyrrole-2,5-dione, 1-(4-methylphenyl)-", "Maleimide, N-p-tolyl-", "1-(4-Methylphenyl)-1H-pyrrole-2,5-dione", "N-p-Tolylmaleimide", "p-Tolylmaleimide", "N-(4-Methylphenyl)maleimide", "N-(p-Methylphenyl)maleimide", "N-4-Tolylmaleimide", "IT 510", "NSC 13691", "1-p-Tolyl-pyrrole-2,5-dione", "1-(4-Methylphenyl)-2,5-dihydro-1H-pyrrole-2,5-dione"], "SMILES": "O=C1N(C(=O)C=C1)C2=CC=C(C)C=C2", "physical_data": {"Molecular Weight": "187.19", "Molecular Formula": "C11H9NO2", "Melting Point": "149-150 \u00b0C"}}