{"cas_no": "1631-84-1", "cn_name": "\u82ef\u57fa\u4e8c\u6c2f\u7845\u70f7", "en_name": ["(Dichlorosilyl)benzene", "Benzene, (dichlorosilyl)-", "Silane, dichlorophenyl-", "(Dichlorosilyl)benzene", "Dichlorophenylsilane", "Phenyldichlorosilane", "NSC 139846"], "SMILES": "[SiH](Cl)(Cl)C1=CC=CC=C1", "physical_data": {"Molecular Weight": "177.10", "Molecular Formula": "C6H6Cl2Si", "Boiling Point": "181 \u00b0C", "Density": "1.211 g/cm\u00b3"}}