{"cas_no": "1631-82-9", "cn_name": "\u7532\u57fa\u6c2f", "en_name": ["(Chloromethylsilyl)benzene", "Benzene, (chloromethylsilyl)-", "Silane, chloromethylphenyl-", "(Chloromethylsilyl)benzene", "Methylphenylchlorosilane", "Chloromethylphenylsilane", "Phenylmethylchlorosilane", "Chloro(phenyl)methylsilane", "Methylphenylsilyl chloride"], "SMILES": "[SiH](C)(Cl)C1=CC=CC=C1", "physical_data": {"Molecular Weight": "156.68", "Molecular Formula": "C7H9ClSi", "Boiling Point": "176-177 \u00b0C", "Density": "1.054 g/cm\u00b3"}}