{"cas_no": "163119-30-0", "cn_name": "\u5170\u7d22\u62c9\u5511\u786b\u919a-N-\u6c27\u5316\u7269", "en_name": ["2-[[[3-Methyl-1-oxido-4-(2,2,2-trifluoroethoxy)-2-pyridinyl]methyl]thio]-1H-benzimidazole", "1H-Benzimidazole, 2-[[[3-methyl-1-oxido-4-(2,2,2-trifluoroethoxy)-2-pyridinyl]methyl]thio]-", "1H-Benzimidazole, 2-[[[3-methyl-4-(2,2,2-trifluoroethoxy)-2-pyridinyl]methyl]thio]-, N-oxide", "2-[[[3-Methyl-1-oxido-4-(2,2,2-trifluoroethoxy)-2-pyridinyl]methyl]thio]-1H-benzimidazole", "2-[[[4-(2,2,2-Trifluoroethoxy)-3-methyl-1-oxopyridin-2-yl]methyl]sulfanyl]-1H-benzimidazole", "2-[[3-Methyl-1-oxido-4-(2,2,2-trifluoroethoxy)pyridin-1-ium-2-yl]methylsulfanyl]-1H-benzimidazole"], "SMILES": "S(CC1=C(C)C(OCC(F)(F)F)=CC=N1=O)C=2NC=3C(N2)=CC=CC3", "physical_data": {"Molecular Weight": "369.36", "Molecular Formula": "C16H14F3N3O2S", "Melting Point": "225-226 \u00b0C"}}