{"cas_no": "16311-69-6", "cn_name": "3,4-\u4e8c\u7532\u57fa-5-(2-\u7f9f\u4e59\u57fa)\u7898\u4ee3\u567b\u5511", "en_name": ["3,4-Dimethyl-5-(2-hydroxyethyl)thiazolium iodide", "Thiazolium, 5-(2-hydroxyethyl)-3,4-dimethyl-, iodide (1:1)", "Thiazolium, 5-(2-hydroxyethyl)-3,4-dimethyl-, iodide", "5-(2-Hydroxyethyl)-3,4-dimethylthiazolium iodide", "3,4-Dimethyl-5-(2-hydroxyethyl)thiazolium iodide", "3,4-Dimethyl-5-(\u03b2-hydroxyethyl)thiazolium iodide", "N,4-Dimethyl-5-(2-hydroxyethyl)thiazolium iodide"], "SMILES": "C(CO)C1=C(C)[N+](C)=CS1.[I-]", "physical_data": {"Molecular Weight": "", "Molecular Formula": "C7H12NOS.I", "Melting Point": "82-84 \u00b0C"}}