{"cas_no": "1631-25-0", "cn_name": "N-\u73af\u5df1\u57fa\u9a6c\u6765\u9170\u4e9a\u80fa", "en_name": ["N-Cyclohexylmaleimide", "1H-Pyrrole-2,5-dione, 1-cyclohexyl-", "Maleimide, N-cyclohexyl-", "1-Cyclohexyl-1H-pyrrole-2,5-dione", "N-Cyclohexylmaleimide", "Imilex C", "NSC 524431", "CHMI-FS", "Cyclohexyl maleimide", "1-Cyclohexylpyrrole-2,5-dione", "1-Cyclohexyl-2,5-dihydro-1H-pyrrole-2,5-dione", "N-Cyclohexyl maleic imide"], "SMILES": "O=C1N(C(=O)C=C1)C2CCCCC2", "physical_data": {"Molecular Weight": "179.22", "Molecular Formula": "C10H13NO2", "Boiling Point": "132 \u00b0C @ Press: 17 Torr", "Melting Point": "83-85 \u00b0C"}}