{"cas_no": "1631-83-0", "cn_name": "\u6c2f\u5316\u4e8c\u82ef\u57fa\u7845\u70f7", "en_name": ["Chlorodiphenylsilane", "Benzene, 1,1\u2032-(chlorosilylene)bis-", "Silane, chlorodiphenyl-", "1,1\u2032-(Chlorosilylene)bis[benzene]", "Chlorodiphenylsilane", "Diphenylchlorosilane", "Diphenylsilyl chloride"], "SMILES": "[SiH](Cl)(C1=CC=CC=C1)C2=CC=CC=C2", "physical_data": {"Molecular Weight": "218.75", "Molecular Formula": "C12H11ClSi", "Boiling Point": "143 \u00b0C @ Press: 10 Torr", "Density": "1.118 g/cm\u00b3"}}