{"cas_no": "1631-26-1", "cn_name": "N-\u82c4\u57fa\u9a6c\u6765\u9170\u4e9a\u80fa", "en_name": ["Benzylmaleimide", "1H-Pyrrole-2,5-dione, 1-(phenylmethyl)-", "Maleimide, N-benzyl-", "1-(Phenylmethyl)-1H-pyrrole-2,5-dione", "N-Benzylmaleimide", "1-Benzyl-1H-pyrrole-2,5-dione", "1-Benzyl-2,5-pyrroledione", "NSC 12802", "Benzylmaleimide", "1-Benzyl-pyrrole-2,5-dione", "N-Benzylpyrrole-2,5-dione", "1-Benzyl-2,5-dihydro-1H-pyrrole-2,5-dione"], "SMILES": "C(N1C(=O)C=CC1=O)C2=CC=CC=C2", "physical_data": {"Molecular Weight": "187.19", "Molecular Formula": "C11H9NO2", "Boiling Point": "177 \u00b0C @ Press: 20 Torr", "Melting Point": "68-69 \u00b0C"}}