{"cas_no": "1631-70-5", "cn_name": "\u82c4\u57fa\u4e8c\u7532\u57fa\u7845\u70f7", "en_name": ["Benzyldimethylsilane", "Benzene, [(dimethylsilyl)methyl]-", "Silane, benzyldimethyl-", "Silane, dimethyl(phenylmethyl)-", "[(Dimethylsilyl)methyl]benzene", "Benzyldimethylsilane", "Benzyldimethylhydrosilane", "NSC 155373", "Dimethylbenzylsilane"], "SMILES": "C([SiH](C)C)C1=CC=CC=C1", "physical_data": {"Molecular Weight": "150.29", "Molecular Formula": "C9H14Si", "Boiling Point": "70 \u00b0C @ Press: 15 Torr", "Density": "0.949 g/cm\u00b3"}}