{"cas_no": "163119-16-2", "cn_name": "2,6-\u4e8c\u53d4\u4e01\u57fa-4-\u7532\u57fa\u73af\u5df1\u9187", "en_name": ["2,6-Bis(1,1-dimethylethyl)-4-methylcyclohexanol", "Cyclohexanol, 2,6-bis(1,1-dimethylethyl)-4-methyl-", "2,6-Bis(1,1-dimethylethyl)-4-methylcyclohexanol", "2,6-Di-tert-butyl-4-methylcyclohexanol", "2,6-Di-tert-butyl-4-methylcyclohexan-1-ol", "2,6-Ditert-butyl-4-methylcyclohexan-1-ol", "2,6-Bis-tert-butyl-4-methylcyclohexanol"], "SMILES": "C(C)(C)(C)C1C(O)C(C(C)(C)C)CC(C)C1", "physical_data": {"Molecular Weight": "226.40", "Molecular Formula": "C15H30O", "Boiling Point": "135-140 \u00b0C @ Press: 14 Torr"}}