{"cas_no": "1632-68-4", "cn_name": "\u964d\u51b0\u7247", "en_name": ["Norborneol", "Bicyclo[2.2.1]heptan-2-ol", "2-Norbornanol", "Norborneol", "Norbornyl alcohol", "2-Norborneol", "NSC 22454"], "SMILES": "OC1C2CC(C1)CC2", "physical_data": {"Molecular Weight": "112.17", "Molecular Formula": "C7H12O", "Boiling Point": "176-177 \u00b0C @ Press: 760 Torr", "Melting Point": "123-124 \u00b0C"}}