{"cas_no": "163229-48-9", "cn_name": "5-\u5f02\u6c30\u57fa-4-\u7532\u57fa-\u82ef\u57fa-1,3-\u567b\u5511", "en_name": ["1-(1,1-Dimethylethyl) 2-methyl 1H-indole-1,2-dicarboxylate", "1H-Indole-1,2-dicarboxylic acid, 1-(1,1-dimethylethyl) 2-methyl ester", "1-(1,1-Dimethylethyl) 2-methyl 1H-indole-1,2-dicarboxylate", "1-(tert-Butyl) 2-methyl 1H-indole-1,2-dicarboxylate", "Methyl N-Boc-indole-2-carboxylate"], "SMILES": "C(OC(C)(C)C)(=O)N1C=2C(C=C1C(OC)=O)=CC=CC2", "physical_data": {"Molecular Weight": "275.30", "Molecular Formula": "C15H17NO4", "Melting Point": "65.0-65.5 \u00b0C"}}