{"cas_no": "16320-04-0", "cn_name": "\u5b55\u4e09\u70ef\u916e", "en_name": ["Gestrinone", "18,19-Dinorpregna-4,9,11-trien-20-yn-3-one, 13-ethyl-17-hydroxy-, (17\u03b1)-", "18,19-Dinor-17\u03b1-pregna-4,9,11-trien-20-yn-3-one, 13-ethyl-17-hydroxy-", "(17\u03b1)-13-Ethyl-17-hydroxy-18,19-dinorpregna-4,9,11-trien-20-yn-3-one", "R 2323", "13-Ethyl-17\u03b1-ethynyl-17\u03b2-hydroxygona-4,9,11-trien-3-one", "Gestrinone", "RU 2323", "Dimetrose", "A 46745", "Tridomose", "Nemestran", "Dimetriose"], "SMILES": "C(C)C12C(C3C(C=C1)=C4C(CC3)=CC(=O)CC4)CCC2(C#C)O", "physical_data": {"Molecular Weight": "308.41", "Molecular Formula": "C21H24O2", "Melting Point": "154 \u00b0C"}}