{"cas_no": "1632-73-1", "cn_name": "\u8451\u9187", "en_name": ["Fenchol", "Bicyclo[2.2.1]heptan-2-ol, 1,3,3-trimethyl-", "2-Norbornanol, 1,3,3-trimethyl-", "1,3,3-Trimethylbicyclo[2.2.1]heptan-2-ol", "2-Fenchanol", "Fenchol", "Fenchyl alcohol", "1,3,3-Trimethyl-2-norbornanol", "2,2,4-Trimethylbicyclo[2.2.1]heptan-3-ol"], "SMILES": "CC12C(O)C(C)(C)C(C1)CC2", "physical_data": {"Molecular Weight": "154.25", "Molecular Formula": "C10H18O", "Boiling Point": "202-203 \u00b0C", "Melting Point": "45 \u00b0C"}}