{"cas_no": "1632-16-2", "cn_name": "2-\u4e59\u57fa-1-\u5df1\u70ef", "en_name": ["2-Ethyl-1-hexene", "Heptane, 3-methylene-", "1-Hexene, 2-ethyl-", "3-Methyleneheptane", "2-Ethyl-1-hexene", "2-Ethylhexene", "NSC 19874", "3-Methylideneheptane"], "SMILES": "C(CCCC)(CC)=C", "physical_data": {"Molecular Weight": "112.21", "Molecular Formula": "C8H16", "Boiling Point": "120 \u00b0C", "Density": "0.7267 g/cm\u00b3 @ Temp: 20 \u00b0C"}}