{"cas_no": "1632-83-3", "cn_name": "N-\u7532\u57fa\u82ef\u5e76\u54aa\u5511", "en_name": ["1-Methylbenzimidazole", "1H-Benzimidazole, 1-methyl-", "Benzimidazole, 1-methyl-", "1-Methyl-1H-benzimidazole", "1-Methylbenzimidazole", "3-Methylbenzimidazole", "N-Methylbenzimidazole", "NSC 42115", "1-Methyl-1H-benzo[d]imidazole"], "SMILES": "CN1C=2C(=CC=CC2)N=C1", "physical_data": {"Molecular Weight": "132.16", "Molecular Formula": "C8H8N2", "Boiling Point": "286 \u00b0C @ Press: 746 Torr", "Melting Point": "66 \u00b0C"}}