{"cas_no": "1632-89-9", "cn_name": "\u6c18\u4ee3\u4e59\u919b", "en_name": ["Acetaldehyde-1,2,2,2-d4", "Acetaldehyde-1,2,2,2-d4", "Acetaldehyde-d4", "Tetradeuteroacetaldehyde", "Perdeuterioacetaldehyde", "Ethanal-d4", "Perdeuteroacetaldehyde", "1,2,2,2-Tetradeuterioethanone"], "SMILES": "C(C)(=O)[2H]", "physical_data": {"Molecular Weight": "", "Molecular Formula": "C2D4O", "Boiling Point": "20.5 \u00b0C @ Press: 756 Torr", "Melting Point": "-121.7 \u00b0C", "Density": "0.883 g/cm\u00b3 @ Temp: 0 \u00b0C"}}