{"cas_no": "163222-33-1", "cn_name": "\u4f9d\u6cfd\u66ff\u7c73\u8d1d", "en_name": ["Ezetimibe", "2-Azetidinone, 1-(4-fluorophenyl)-3-[(3S)-3-(4-fluorophenyl)-3-hydroxypropyl]-4-(4-hydroxyphenyl)-, (3R,4S)-", "2-Azetidinone, 1-(4-fluorophenyl)-3-[3-(4-fluorophenyl)-3-hydroxypropyl]-4-(4-hydroxyphenyl)-, [3R-[3\u03b1(S*),4\u03b2]]-", "(3R,4S)-1-(4-Fluorophenyl)-3-[(3S)-3-(4-fluorophenyl)-3-hydroxypropyl]-4-(4-hydroxyphenyl)-2-azetidinone", "Sch 58235", "Ezetimibe", "(-)-Sch 58235", "Zetia", "Ezetrol", "Ezta", "Ezedoc", "1-(4-Fluorophenyl)-3(R)-[3-(4-fluorophenyl)-3(S)-hydroxypropyl]-4(S)-(4-hydroxyphenyl)azetidin-2-one", "Ezentia"], "SMILES": "C(CC(O)C1=CC=C(F)C=C1)C2C(N(C2=O)C3=CC=C(F)C=C3)C4=CC=C(O)C=C4", "physical_data": {"Molecular Weight": "409.43", "Molecular Formula": "C24H21F2NO3", "Melting Point": "164-166 \u00b0C"}}