{"cas_no": "16325-63-6", "cn_name": "\u4e09\u7532\u57fa\u620a\u9187", "en_name": ["2,4,4-Trimethyl-1-pentanol", "1-Pentanol, 2,4,4-trimethyl-", "2,4,4-Trimethyl-1-pentanol", "NSC 24283"], "SMILES": "C(C(C)(C)C)C(CO)C", "physical_data": {"Molecular Weight": "130.23", "Molecular Formula": "C8H18O", "Boiling Point": "78-80 \u00b0C @ Press: 22 Torr"}}