{"cas_no": "1632-84-4", "cn_name": "\u5f02\u6c30\u9178- 4(\u7532\u786b\u57fa)\u82ef\u916f", "en_name": ["4-(Methylthio)phenyl isocyanate", "Benzene, 1-isocyanato-4-(methylthio)-", "Isocyanic acid, p-(methylthio)phenyl ester", "Sulfide, p-isocyanatophenyl methyl", "1-Isocyanato-4-(methylthio)benzene", "4-(Methylthio)phenyl isocyanate", "p-(Methylthio)phenyl isocyanate", "(4-Methylsulfanylphenyl)isocyanate", "1-Isocyanato-4-methylsulfanylbenzene"], "SMILES": "N(=C=O)C1=CC=C(SC)C=C1", "physical_data": {"Molecular Weight": "165.21", "Molecular Formula": "C8H7NOS", "Boiling Point": "117-118 \u00b0C @ Press: 8 Torr"}}