{"cas_no": "1632-76-4", "cn_name": "3-\u7532\u57fa\u54d2\u55ea", "en_name": ["3-Methylpyridazine", "Pyridazine, 3-methyl-", "3-Methylpyridazine", "3-Methyl-1,2-diazine", "NSC 96966"], "SMILES": "CC1=CC=CN=N1", "physical_data": {"Molecular Weight": "94.11", "Molecular Formula": "C5H6N2", "Boiling Point": "214 \u00b0C", "Melting Point": "184 \u00b0C"}}