{"cas_no": "16323-43-6", "cn_name": "4-\u4e19\u7a00\u9178\u8089\u6842\u9178", "en_name": ["p-Phenylenediacrylic acid", "2-Propenoic acid, 3,3\u2032-(1,4-phenylene)bis-", "p-Benzenediacrylic acid", "3,3\u2032-(1,4-Phenylene)bis[2-propenoic acid]", "p-Phenylenediacrylic acid", "p-Phenylenebis[acrylic acid]", "1,4-Phenylenediacrylic acid", "NSC 133919", "1,4-Benzenediacrylic acid"], "SMILES": "C(=CC(O)=O)C1=CC=C(C=CC(O)=O)C=C1", "physical_data": {"Molecular Weight": "218.21", "Molecular Formula": "C12H10O4", "Melting Point": "&gt;360 \u00b0C (decomp)"}}