{"cas_no": "16331-45-6", "cn_name": "\u5bf9\u4e59\u57fa\u82ef\u7532\u9170\u6c2f", "en_name": ["4-Ethylbenzoyl chloride", "Benzoyl chloride, 4-ethyl-", "Benzoyl chloride, p-ethyl-", "4-Ethylbenzoyl chloride", "p-Ethylbenzoyl chloride"], "SMILES": "C(Cl)(=O)C1=CC=C(CC)C=C1", "physical_data": {"Molecular Weight": "168.62", "Molecular Formula": "C9H9ClO", "Boiling Point": "118-119 \u00b0C @ Press: 13 Torr"}}