{"cas_no": "16339-07-4", "cn_name": "1-\u7532\u57fa-4-\u4e9a\u785d\u57fa\u54cc\u55ea", "en_name": ["1-Methyl-4-nitrosopiperazine", "Piperazine, 1-methyl-4-nitroso-", "1-Methyl-4-nitrosopiperazine", "1-Nitroso-4-methylpiperazine", "N-Nitroso-N\u2032-methylpiperazine", "NSC 523886"], "SMILES": "N(=O)N1CCN(C)CC1", "physical_data": {"Molecular Weight": "129.16", "Molecular Formula": "C5H11N3O", "Boiling Point": "118-120 \u00b0C @ Press: 25 Torr"}}