{"cas_no": "16331-46-7", "cn_name": "4-\u4e59\u6c27\u57fa\u82ef\u7532\u9170\u6c2f", "en_name": ["4-Ethoxybenzoyl chloride", "Benzoyl chloride, 4-ethoxy-", "Benzoyl chloride, p-ethoxy-", "4-Ethoxybenzoyl chloride", "m-Ethoxybenzoyl chloride", "p-Ethoxybenzoyl chloride", "4-Ethoxybenzoic acid chloride"], "SMILES": "C(Cl)(=O)C1=CC=C(OCC)C=C1", "physical_data": {"Molecular Weight": "184.62", "Molecular Formula": "C9H9ClO2", "Boiling Point": "130-139 \u00b0C @ Press: 16 Torr"}}