{"cas_no": "1633-22-3", "cn_name": "\u4e8c\u805a\u5bf9\u4e8c\u7532\u82ef", "en_name": ["[2.2]Paracyclophane", "Tricyclo[8.2.2.24,7]hexadeca-4,6,10,12,13,15-hexaene", "Di-p-xylylene", "[2.2]Paracyclophane", "Di-1,4-xylylene", "[2.2]-p-Cyclophane", "Cyclobis(benzene-1,4-dimethylene)", "[2.2](1,4)Cyclophane", "1,4-Carbophane", "NSC 91575", "Parylene dimer"], "SMILES": "C1=2CCC=3C=CC(=CC3)CCC(C=C1)=CC2", "physical_data": {"Molecular Weight": "208.30", "Molecular Formula": "C16H16", "Melting Point": "285 \u00b0C"}}