{"cas_no": "1633-82-5", "cn_name": "3-\u6c2f\u4e19\u70f7\u78fa\u9170\u6c2f", "en_name": ["3-Chloropropanesulfonyl chloride", "1-Propanesulfonyl chloride, 3-chloro-", "3-Chloro-1-propanesulfonyl chloride", "\u03b3-Chloropropanesulfonyl chloride", "3-Chloropropanesulfonyl chloride", "3-Chloropropylsulfonyl chloride", "1-Chloro-3-propanesulfonyl chloride", "3-Chloropropansulfonyl chloride", "NSC 93777", "3-Chloropropane-1-sulfonyl chloride", "3-Chloro-n-propanesulfonyl chloride"], "SMILES": "C(S(Cl)(=O)=O)CCCl", "physical_data": {"Molecular Weight": "177.05", "Molecular Formula": "C3H6Cl2O2S", "Boiling Point": "82-85 \u00b0C @ Press: 1 Torr"}}