{"cas_no": "1633-83-6", "cn_name": "1,4-\u4e01\u78fa\u9178\u5185\u916f", "en_name": ["Butane sultone", "1,2-Oxathiane, 2,2-dioxide", "1-Butanesulfonic acid, 4-hydroxy-, \u03b4-sultone", "\u03b4-Valerosultone", "1,4-Butane sultone", "Butane sultone", "\u03b4-Butane sultone", "NSC 71999", "1,4-Butyl sultone", "1,4-Butylene sulfone", "1,2\u03bb6-Oxathiane-2,2-dione"], "SMILES": "O=S1(=O)CCCCO1", "physical_data": {"Molecular Weight": "136.17", "Molecular Formula": "C4H8O3S", "Boiling Point": "152-153 \u00b0C @ Press: 16 Torr", "Melting Point": "14.5 \u00b0C", "Density": "1.336 g/cm\u00b3 @ Temp: 18 \u00b0C"}}