{"cas_no": "16339-18-7", "cn_name": "2,2'-(\u4e9a\u785d\u57fa\u6c28\u57fa)\u53cc[\u4e59\u8148", "en_name": ["2,2\u2032-(Nitrosoimino)bis[acetonitrile]", "Acetonitrile, 2,2\u2032-(nitrosoimino)bis-", "Acetonitrile, nitrosiminodi-", "2,2\u2032-(Nitrosoimino)bis[acetonitrile]", "N-Nitrosodi(cyanomethyl)amine", "2-[(Cyanomethyl)(nitroso)amino]acetonitrile"], "SMILES": "N(CC#N)(CC#N)N=O", "physical_data": {"Molecular Weight": "124.10", "Molecular Formula": "C4H4N4O", "Boiling Point": "157 \u00b0C @ Press: 3 Torr", "Melting Point": "38-38.5 \u00b0C"}}