{"cas_no": "1633-14-3", "cn_name": "\u4e8c\u6eb4\u82ef\u918c", "en_name": ["2,5-Dibromo-1,4-benzoquinone", "2,5-Cyclohexadiene-1,4-dione, 2,5-dibromo-", "p-Benzoquinone, 2,5-dibromo-", "Quinone, 2,5-dibromo-", "2,5-Dibromo-2,5-cyclohexadiene-1,4-dione", "2,5-Dibromo-1,4-benzoquinone", "2,5-Dibromo-p-benzoquinone", "2,5-Dibromoquinone", "2,5-Dibromobenzoquinone"], "SMILES": "BrC=1C(=O)C=C(Br)C(=O)C1", "physical_data": {"Molecular Weight": "265.89", "Molecular Formula": "C6H2Br2O2", "Melting Point": "188-189 \u00b0C"}}