{"cas_no": "1633-84-7", "cn_name": "4-\u6c2f-1-\u4e01\u57fa\u78fa\u9170\u6c2f", "en_name": ["4-Chloro-1-butanesulfonyl chloride", "1-Butanesulfonyl chloride, 4-chloro-", "4-Chloro-1-butanesulfonyl chloride", "4-Chlorobutanesulfonyl chloride", "1-Chloro-4-butanesulfonyl chloride"], "SMILES": "C(S(Cl)(=O)=O)CCCCl", "physical_data": {"Molecular Weight": "191.08", "Molecular Formula": "C4H8Cl2O2S", "Boiling Point": "123 \u00b0C @ Press: 12 Torr"}}