{"cas_no": "1633-78-9", "cn_name": "6-\u5def\u57fa\u5df1-1-\u9187", "en_name": ["6-Mercapto-1-hexanol", "1-Hexanol, 6-mercapto-", "6-Mercapto-1-hexanol", "6-Hydroxy-1-hexanethiol", "6-Mercaptohexanol", "Mercaptohexanol", "1-Mercapto-6-hexanol", "6-Hydroxyhexyl mercaptan"], "SMILES": "C(CCCS)CCO", "physical_data": {"Molecular Weight": "134.24", "Molecular Formula": "C6H14OS", "Boiling Point": "118-119 \u00b0C @ Press: 15 Torr"}}