{"cas_no": "1633-44-9", "cn_name": "\u5421\u5576-3,4-\u4e8c\u8148", "en_name": ["3,4-Pyridinedicarbonitrile", "3,4-Pyridinedicarbonitrile", "Cinchomerononitrile", "3,4-Dicyanopyridine"], "SMILES": "C(#N)C=1C(C#N)=CN=CC1", "physical_data": {"Molecular Weight": "129.12", "Molecular Formula": "C7H3N3", "Melting Point": "79-81 \u00b0C"}}