{"cas_no": "1633-05-2", "cn_name": "\u78b3\u9178\u9536", "en_name": ["Strontium carbonate", "Carbonic acid, strontium salt (1:1)", "Strontium carbonate", "C.I. 77837", "Strontium carbonate (SrCO3)", "Strontium monocarbonate", "C.I. Pigment White 34", "Pigment White 34", "Strontium(2+) carbonate", "Strontium(II) carbonate", "SW-K", "SW-K 20", "K 60 (carbonate)", "SW-P", "K 60", "SW-P-N", "Powder N"], "SMILES": "C(=O)(O)O.[Sr]", "physical_data": {"Molecular Weight": "", "Molecular Formula": "CH2O3.Sr", "Melting Point": "1494 \u00b0C", "Density": "3.5 g/cm\u00b3"}}