{"cas_no": "16343-08-1", "cn_name": "\u6b63\u5df1\u57fa\u787c\u9178", "en_name": ["B-Hexylboronic acid", "Boronic acid, B-hexyl-", "1-Hexaneboronic acid", "Boronic acid, hexyl-", "B-Hexylboronic acid", "Hexylboronic acid", "NSC 518338"], "SMILES": "C(CB(O)O)CCCC", "physical_data": {"Molecular Weight": "129.99", "Molecular Formula": "C6H15BO2", "Melting Point": "88-90 \u00b0C"}}