{"cas_no": "1634-04-4", "cn_name": "\u7532\u57fa\u53d4\u4e01\u57fa\u919a", "en_name": ["tert-Butyl methyl ether", "Propane, 2-methoxy-2-methyl-", "Ether, tert-butyl methyl", "2-Methoxy-2-methylpropane", "Methyl tert-butyl ether", "2-Methyl-2-methoxypropane", "tert-Butyl methyl ether", "Methyl 1,1-dimethylethyl ether", "tert-Butoxymethane", "MTBE", "1,1-Dimethylethyl methyl ether", "t-Butyl methyl ether", "Methyl tertiary butyl ether", "Driveron"], "SMILES": "C(OC)(C)(C)C", "physical_data": {"Molecular Weight": "88.15", "Molecular Formula": "C5H12O", "Boiling Point": "55.2 \u00b0C", "Melting Point": "-108.6 \u00b0C", "Density": "0.7405 g/cm\u00b3 @ Temp: 20 \u00b0C"}}