{"cas_no": "1634-78-2", "cn_name": "\u9a6c\u62c9\u6c27\u78f7", "en_name": ["Malaoxon", "Butanedioic acid, 2-[(dimethoxyphosphinyl)thio]-, 1,4-diethyl ester", "Succinic acid, mercapto-, diethyl ester, S-ester with O,O-dimethyl phosphorothioate", "Butanedioic acid, [(dimethoxyphosphinyl)thio]-, diethyl ester", "Succinic acid, mercapto-, diethyl ester, dimethyl phosphate", "Phosphorothioic acid, O,O-dimethyl ester, S-ester with diethyl mercaptosuccinate", "Diethyl mercaptosuccinate S-ester with O,O-dimethyl phosphorothioate", "Liromat", "Malaoxon", "Malathion-O-analog", "O,O-Dimethyl S-1,2-bis(ethoxycarbonyl)ethyl phosphorothioate", "Malaoxone", "Oxycarbophos", "Diethyl [(dimethoxyphosphino)thio]butanedioate", "Malathion oxon", "Maloxon", "DL-Malaoxon", "Malaoxan"], "SMILES": "C(SP(OC)(OC)=O)(CC(OCC)=O)C(OCC)=O", "physical_data": {"Molecular Weight": "314.29", "Molecular Formula": "C10H19O7PS", "Boiling Point": "114 \u00b0C", "Melting Point": "&lt;20 \u00b0C"}}