{"cas_no": "1634-02-2", "cn_name": "\u4e8c(\u786b\u4ee3\u8fc7\u6c27\u57fa\u4e8c\u7532\u9170)\u56db\u4e01\u4e8c\u80fa", "en_name": ["Tetrabutylthiuram disulfide", "Thioperoxydicarbonic diamide ([(H2N)C(S)]2S2), N,N,N\u2032,N\u2032-tetrabutyl-", "Disulfide, bis(dibutylthiocarbamoyl)", "Thioperoxydicarbonic diamide ([(H2N)C(S)]2S2), tetrabutyl-", "Tetrabutylthiuram disulfide", "Methanethioamide, 1,1\u2032-dithiobis[N,N-dibutyl-", "Bis(dibutylthiocarbamoyl) disulfide", "N,N,N\u2032,N\u2032-Tetrabutylthiuram disulfide", "Nocceler TBT", "Butyl Tuads", "Robac TBUT", "Nocceler TBT-N", "NSC 677476", "E-BT 55", "TBTD", "Accel TBT-P", "Tetra-n-butylthiuram disulfide", "Sanceler TBT", "Zinc ionophore I", "TBTD 70", "TBT-P", "Nocceler TBT-P"], "SMILES": "N(C(SSC(N(CCCC)CCCC)=S)=S)(CCCC)CCCC", "physical_data": {"Molecular Weight": "408.75", "Molecular Formula": "C18H36N2S4", "Melting Point": "95 \u00b0C"}}