{"cas_no": "1634-82-8", "cn_name": "2-(4-\u7f9f\u57fa\u82ef\u5511\uff09\u82ef\u7532\u9178", "en_name": ["2-(4\u2032-Hydroxyphenylazo)benzoic acid", "Benzoic acid, 2-[2-(4-hydroxyphenyl)diazenyl]-", "Benzoic acid, o-[(p-hydroxyphenyl)azo]-", "Benzoic acid, 2-[(4-hydroxyphenyl)azo]-", "2-[2-(4-Hydroxyphenyl)diazenyl]benzoic acid", "2-(4\u2032-Hydroxyphenylazo)benzoic acid", "o-(p-Hydroxyphenylazo)benzoic acid", "2-[(4-Hydroxyphenyl)azo]benzoic acid", "2-(4-Hydroxybenzeneazo)benzoic acid", "HABA", "HABA (dye)", "4\u2032-Hydroxyazobenzene-2-carboxylic acid", "2-(4\u2032-Hydroxybenzeneazo)benzoic acid", "4-(2\u2032-Carboxyphenylazo)phenol", "NSC 77376", "4-Hydroxyazobenzene-2\u2032-carboxylic acid"], "SMILES": "N(=NC1=CC=C(O)C=C1)C2=C(C(O)=O)C=CC=C2", "physical_data": {"Molecular Weight": "242.23", "Molecular Formula": "C13H10N2O3", "Melting Point": "206-207 \u00b0C"}}