{"cas_no": "1635-31-0", "cn_name": "3-\u6c28\u57fa\u9999\u8c46\u7d20", "en_name": ["3-Aminocoumarin", "2H-1-Benzopyran-2-one, 3-amino-", "Coumarin, 3-amino-", "3-Amino-2H-1-benzopyran-2-one", "3-Aminocoumarin", "3-Amino-2H-chromen-2-one", "3-Amino-chromen-2-one", "3-Aminochromen-2-one"], "SMILES": "NC1=CC=2C(OC1=O)=CC=CC2", "physical_data": {"Molecular Weight": "161.16", "Molecular Formula": "C9H7NO2", "Melting Point": "130 \u00b0C"}}