{"cas_no": "163521-12-8", "cn_name": "\u7ef4\u62c9\u4f50\u916e", "en_name": ["Vilazodone", "2-Benzofurancarboxamide, 5-[4-[4-(5-cyano-1H-indol-3-yl)butyl]-1-piperazinyl]-", "5-[4-[4-(5-Cyano-1H-indol-3-yl)butyl]-1-piperazinyl]-2-benzofurancarboxamide", "Vilazodone", "EMD 515259", "1-[4-(5-Cyanoindol-3-yl)butyl]-4-(2-carbamoylbenzofuran-5-yl)piperazine"], "SMILES": "C(CCCN1CCN(CC1)C=2C=C3C(=CC2)OC(C(N)=O)=C3)C=4C=5C(NC4)=CC=C(C#N)C5", "physical_data": {"Molecular Weight": "441.52", "Molecular Formula": "C26H27N5O2", "Melting Point": "277-279 \u00b0C"}}