{"cas_no": "163596-75-6", "cn_name": "4-\u6eb4-3-\u785d\u57fa\u82ef\u7532\u919b", "en_name": ["4-Bromo-3-nitrobenzaldehyde", "Benzaldehyde, 4-bromo-3-nitro-", "4-Bromo-3-nitrobenzaldehyde", "4-Bromo-5-nitrobenzaldehyde"], "SMILES": "N(=O)(=O)C1=CC(C=O)=CC=C1Br", "physical_data": {"Molecular Weight": "230.02", "Molecular Formula": "C7H4BrNO3", "Melting Point": "106 \u00b0C"}}