{"cas_no": "16357-59-8", "cn_name": "2-\u4e59\u6c27\u57fa-1-\u4e59\u6c27\u78b3\u9170\u57fa-1,2-\u4e8c\u6c22\u55b9\u5549", "en_name": ["2-Ethoxy-1-(ethoxycarbonyl)-1,2-dihydroquinoline", "1(2H)-Quinolinecarboxylic acid, 2-ethoxy-, ethyl ester", "N-(Ethoxycarbonyl)-2-ethoxy-1,2-dihydroquinoline", "EEDQ", "1-(Ethoxycarbonyl)-2-ethoxy-1,2-dihydroquinoline", "2-Ethoxy-N-(ethoxycarbonyl)-1,2-dihydroquinoline", "2-Ethoxy-1-(ethoxycarbonyl)-1,2-dihydroquinoline", "N-Carbethoxy-2-ethoxy-1,2-dihydroquinoline", "2-Ethoxy-1(2H)-quinolinecarboxylic acid ethyl ester", "Ethyl 2-ethoxy-1(2H)-quinolinecarboxylate", "NSC 147831"], "SMILES": "C(OCC)(=O)N1C=2C(C=CC1OCC)=CC=CC2", "physical_data": {"Molecular Weight": "247.29", "Molecular Formula": "C14H17NO3", "Boiling Point": "125-128 \u00b0C @ Press: 0.1 Torr", "Melting Point": "56.5 \u00b0C"}}