{"cas_no": "163520-33-0", "cn_name": "\u53cc\u82ef\u6076\u5511\u9178", "en_name": ["3-Isoxazolecarboxylic acid, 4,5-dihydro-5,5-diphenyl-, ethyl ester", "3-Isoxazolecarboxylic acid, 4,5-dihydro-5,5-diphenyl-, ethyl ester", "Isoxadifen-ethyl", "HOE 122006", "AE-F 122006", "Isoxadifen ethyl ester"], "SMILES": "C(OCC)(=O)C=1CC(ON1)(C2=CC=CC=C2)C3=CC=CC=C3", "physical_data": {"Molecular Weight": "295.33", "Molecular Formula": "C18H17NO3", "Melting Point": "87-88 \u00b0C"}}