{"cas_no": "16355-92-3", "cn_name": "1,10-\u4e8c\u7898\u7678\u70f7", "en_name": ["1,10-Diiododecane", "Decane, 1,10-diiodo-", "1,10-Diiododecane", "Decamethylene diiodide"], "SMILES": "C(CCCCCI)CCCCI", "physical_data": {"Molecular Weight": "394.07", "Molecular Formula": "C10H20I2", "Boiling Point": "187-190 \u00b0C @ Press: 10 Torr", "Melting Point": "28-30 \u00b0C"}}