{"cas_no": "16357-69-0", "cn_name": "4-\u6c28\u57fa\u5627\u5576-5-\u7532\u8148", "en_name": ["4-Amino-5-cyanopyrimidine", "5-Pyrimidinecarbonitrile, 4-amino-", "4-Amino-5-pyrimidinecarbonitrile", "4-Amino-5-cyanopyrimidine"], "SMILES": "C(#N)C=1C(N)=NC=NC1", "physical_data": {"Molecular Weight": "120.11", "Molecular Formula": "C5H4N4", "Melting Point": "250 \u00b0C"}}