{"cas_no": "163521-08-2", "cn_name": "\u76d0\u9178\u7ef4\u62c9\u5511\u916e", "en_name": ["2-Benzofurancarboxamide, 5-[4-[4-(5-cyano-1H-indol-3-yl)butyl]-1-piperazinyl]-, hydrochloride (1:1)", "2-Benzofurancarboxamide, 5-[4-[4-(5-cyano-1H-indol-3-yl)butyl]-1-piperazinyl]-, hydrochloride (1:1)", "2-Benzofurancarboxamide, 5-[4-[4-(5-cyano-1H-indol-3-yl)butyl]-1-piperazinyl]-, monohydrochloride", "Vilazodone hydrochloride", "SB 659746A", "EMD 68843", "Viibryd"], "SMILES": "C(CCCN1CCN(CC1)C=2C=C3C(=CC2)OC(C(N)=O)=C3)C=4C=5C(NC4)=CC=C(C#N)C5.Cl", "physical_data": {"Molecular Weight": "", "Molecular Formula": "C26H27N5O2.ClH", "Melting Point": "277-279 \u00b0C"}}