{"cas_no": "16354-58-8", "cn_name": "N-\u4e59\u91af\u7d72\u80fa\u9178", "en_name": ["Acetylserine", "L-Serine, N-acetyl-", "Serine, N-acetyl-, L-", "N-Acetyl-L-serine", "Acetylserine", "N-Acetylserine", "(S)-2-Acetamido-3-hydroxypropanoic acid", "(2S)-2-Acetamido-3-hydroxypropanoic acid"], "SMILES": "C(NC(C)=O)(C(O)=O)CO", "physical_data": {"Molecular Weight": "147.13", "Molecular Formula": "C5H9NO4", "Melting Point": "207.6 \u00b0C"}}