{"cas_no": "1635-61-6", "cn_name": "2-\u785d\u57fa-5-\u6c2f\u82ef\u80fa", "en_name": ["5-Chloro-2-nitroaniline", "Benzenamine, 5-chloro-2-nitro-", "Aniline, 5-chloro-2-nitro-", "5-Chloro-2-nitrobenzenamine", "5-Chloro-2-nitroaniline", "3-Chloro-6-nitroaniline", "2-Amino-4-chloro-1-nitrobenzene", "2-Nitro-5-chloroaniline", "2-Amino-4-chloronitrobenzene", "3-Amino-4-nitrochlorobenzene", "5-Chloro-2-nitrophenylamine", "NSC 400866", "1-Nitro-2-amino-4-chlorobenzene", "5-Chlor-2-nitroanilin"], "SMILES": "N(=O)(=O)C1=C(N)C=C(Cl)C=C1", "physical_data": {"Molecular Weight": "172.57", "Molecular Formula": "C6H5ClN2O2", "Melting Point": "127.8 \u00b0C"}}