{"cas_no": "1635-84-3", "cn_name": "4,6-\u4e8c\u7532\u57fa-2-\u785d\u57fa\u82ef\u80fa", "en_name": ["2,4-Dimethyl-6-nitroaniline", "Benzenamine, 2,4-dimethyl-6-nitro-", "2,4-Xylidine, 6-nitro-", "2,4-Dimethyl-6-nitrobenzenamine", "2-Nitro-4,6-dimethylaniline", "4,6-Dimethyl-2-nitroaniline", "4-Amino-5-nitro-m-xylene", "2,4-Dimethyl-6-nitroaniline", "6-Nitro-2,4-xylidine", "NSC 9816", "2,4-Dimethyl-6-nitro-phenylamine"], "SMILES": "N(=O)(=O)C1=C(N)C(C)=CC(C)=C1", "physical_data": {"Molecular Weight": "166.18", "Molecular Formula": "C8H10N2O2", "Melting Point": "68 \u00b0C"}}