{"cas_no": "16365-27-8", "cn_name": "2-(4-\u785d\u57fa\u82ef\u6c27\u57fa)\u4e59\u9187", "en_name": ["2-(4-Nitrophenoxy)ethanol", "Ethanol, 2-(4-nitrophenoxy)-", "Ethanol, 2-(p-nitrophenoxy)-", "2-(4-Nitrophenoxy)ethanol", "\u03b2-Hydroxyethyl p-nitrophenyl ether", "2-(p-Nitrophenoxy)ethanol", "4-Nitro-(2-hydroxyethoxy)benzene", "NSC 30512", "NSC 47172", "2-((4-Nitrophenyl)oxy)ethanol", "2-(4-Nitrophenoxy)ethan-1-ol"], "SMILES": "N(=O)(=O)C1=CC=C(OCCO)C=C1", "physical_data": {"Molecular Weight": "183.16", "Molecular Formula": "C8H9NO4", "Boiling Point": "182-183 \u00b0C @ Press: 1 Torr", "Melting Point": "89-92 \u00b0C"}}