{"cas_no": "16369-05-4", "cn_name": "DL-2-AMINO-3-METHYL-1-BUTANOL", "en_name": ["(\u00b1)-Valinol", "1-Butanol, 2-amino-3-methyl-", "1-Butanol, 2-amino-3-methyl-, DL-", "1-Butanol, 2-amino-3-methyl-, (\u00b1)-", "2-Amino-3-methyl-1-butanol", "(\u00b1)-Valinol", "dl-Valinol", "DL-Valinol", "Valinol", "3-Methyl-2-aminobutanol", "[1-(Hydroxymethyl)-2-methylpropyl]amine", "rac-Valinol", "(\u00b1)-2-Amino-3-methyl-1-butanol", "2-Amino-3-methylbutanol", "N-(1-Hydroxy-3-methylbutan-2-yl)amine"], "SMILES": "C(C(C)C)(CO)N", "physical_data": {"Molecular Weight": "103.16", "Molecular Formula": "C5H13NO", "Boiling Point": "181-186 \u00b0C @ Press: 720 Torr", "Melting Point": "31-32 \u00b0C"}}