{"cas_no": "16369-21-4", "cn_name": "2-(\u4e19\u6c28\u57fa)\u4e59\u9187", "en_name": ["N-Propylethanolamine", "Ethanol, 2-(propylamino)-", "2-(Propylamino)ethanol", "Mono-n-propylaminoethanol", "2-Propylaminoethanol", "N-Propylethanolamine", "(2-Hydroxyethyl)propylamine", "Propyl(2-hydroxyethyl)amine", "N-Propyl-2-hydroxy-1-ethylamine", "N-Propyl-2-hydroxyethylamine", "2-(Propylamino)ethan-1-ol"], "SMILES": "N(CCC)CCO", "physical_data": {"Molecular Weight": "103.16", "Molecular Formula": "C5H13NO", "Boiling Point": "183 \u00b0C", "Density": "0.9005 g/cm\u00b3"}}