{"cas_no": "163680-77-1", "cn_name": "\u7532\u78fa\u9178\u5e15\u73e0\u6c99\u661f", "en_name": ["7H-Pyrido[1,2,3-de]-1,4-benzoxazine-6-carboxylic acid, 10-(1-aminocyclopropyl)-9-fluoro-2,3-dihydro-3-methyl-7-oxo-, (3S)-, methanesulfonate (1:1)", "7H-Pyrido[1,2,3-de]-1,4-benzoxazine-6-carboxylic acid, 10-(1-aminocyclopropyl)-9-fluoro-2,3-dihydro-3-methyl-7-oxo-, (3S)-, methanesulfonate (1:1)", "7H-Pyrido[1,2,3-de]-1,4-benzoxazine-6-carboxylic acid, 10-(1-aminocyclopropyl)-9-fluoro-2,3-dihydro-3-methyl-7-oxo-, (S)-, monomethanesulfonate", "7H-Pyrido[1,2,3-de]-1,4-benzoxazine-6-carboxylic acid, 10-(1-aminocyclopropyl)-9-fluoro-2,3-dihydro-3-methyl-7-oxo-, (3S)-, monomethanesulfonate", "T 3762", "Pazufloxacin mesilate", "Pazufloxacin methanesulfonate", "Pasil", "Pazucross", "Pazufloxacin mesylate"], "SMILES": "S(C)(=O)(=O)O.O=C1C=2C3=C(C(=C(F)C2)C4(N)CC4)OCC(C)N3C=C1C(O)=O", "physical_data": {"Molecular Weight": "", "Molecular Formula": "C16H15FN2O4.CH4O3S", "Melting Point": "258-259 \u00b0C (decomp)"}}