{"cas_no": "1636-27-7", "cn_name": "\u4e8c\u4e19\u57fa\u4e19\u4e8c\u9178", "en_name": ["Dipropylmalonic acid", "Propanedioic acid, 2,2-dipropyl-", "Malonic acid, dipropyl-", "Propanedioic acid, dipropyl-", "2,2-Dipropylpropanedioic acid", "4,4-Heptanedicarboxylic acid", "Dipropylmalonic acid", "NSC 62680", "2,2\u2032-Dipropylmalonic acid", "2,2-Di-n-propylmalonic acid", "2,2-Dipropylmalonic acid"], "SMILES": "C(CCC)(CCC)(C(O)=O)C(O)=O", "physical_data": {"Molecular Weight": "188.22", "Molecular Formula": "C9H16O4", "Melting Point": "159 \u00b0C"}}