{"cas_no": "1637-39-4", "cn_name": "\u53cd\u7389\u7c73\u86cb\u767d", "en_name": ["Zeatin", "2-Buten-1-ol, 2-methyl-4-(9H-purin-6-ylamino)-, (2E)-", "Zeatin", "2-Buten-1-ol, 2-methyl-4-(purin-6-ylamino)-, (E)-", "2-Buten-1-ol, 2-methyl-4-(1H-purin-6-ylamino)-, (E)-", "2-Buten-1-ol, 2-methyl-4-(1H-purin-6-ylamino)-, (2E)-", "(2E)-2-Methyl-4-(9H-purin-6-ylamino)-2-buten-1-ol", "trans-Zeatin", "Zeatine", "N6-(4-Hydroxy-3-methyl-trans-2-butenyl)adenine", "trans-6-(4-Hydroxy-3-methylbut-2-enyl)amino purine", "6-(4-Hydroxy-3-methyl-trans-2-butenylamino)purine", "(E)-Zeatin", "ZT", "ZTA", "MB 907", "MeSH ID: D015026"], "SMILES": "N(CC=C(CO)C)C1=C2C(N=CN2)=NC=N1", "physical_data": {"Molecular Weight": "219.24", "Molecular Formula": "C10H13N5O", "Melting Point": "207.5 \u00b0C"}}