{"cas_no": "16372-96-6", "cn_name": "3,5-\u4e8c\u6eb4\u8054\u82ef", "en_name": ["3,5-Dibromobiphenyl", "1,1\u2032-Biphenyl, 3,5-dibromo-", "Biphenyl, 3,5-dibromo-", "3,5-Dibromo-1,1\u2032-biphenyl", "3,5-Dibromobiphenyl", "PBB 14"], "SMILES": "BrC=1C=C(C=C(Br)C1)C2=CC=CC=C2", "physical_data": {"Molecular Weight": "312.00", "Molecular Formula": "C12H8Br2", "Boiling Point": "208 \u00b0C @ Press: 15 Torr", "Melting Point": "15 \u00b0C", "Density": "1.7197 g/cm\u00b3 @ Temp: 25 \u00b0C"}}