{"cas_no": "163733-96-8", "cn_name": "3,4,5-\u4e09\u6c1f\u82ef\u80fa", "en_name": ["3,4,5-Trifluorobenzenamine", "Benzenamine, 3,4,5-trifluoro-", "3,4,5-Trifluorobenzenamine", "3,4,5-Trifluoroaniline", "3,4,5-Trifluorophenylamine"], "SMILES": "FC1=C(F)C=C(N)C=C1F", "physical_data": {"Molecular Weight": "147.10", "Molecular Formula": "C6H4F3N", "Melting Point": "62.40 \u00b0C"}}