{"cas_no": "1637-71-4", "cn_name": "S-\u78fa\u57fa-L-\u534a\u80f1\u6c28\u9178", "en_name": ["L-Cysteinesulfonic acid", "L-Cysteine, S-sulfo-", "Cysteine, hydrogen sulfate (ester), L-", "L-Cysteine, hydrogen sulfate (ester)", "S-Sulfo-L-cysteine", "S-Cysteinesulfonic acid", "Alaninethiosulfuric acid", "L-Cysteinesulfonic acid", "L-Cysteine-S-sulfonate", "L-Cysteine S-sulfate", "(2R)-2-Amino-3-(sulfosulfanyl)propanoic acid"], "SMILES": "C(C(C(O)=O)N)SS(=O)(=O)O", "physical_data": {"Molecular Weight": "201.22", "Molecular Formula": "C3H7NO5S2", "Melting Point": "170-171 \u00b0C"}}