{"cas_no": "163702-05-4", "cn_name": "\u4e59\u57fa\u4e5d\u6c1f\u4e01\u57fa\u919a", "en_name": ["Ethyl perfluorobutyl ether", "Butane, 1-ethoxy-1,1,2,2,3,3,4,4,4-nonafluoro-", "1-Ethoxy-1,1,2,2,3,3,4,4,4-nonafluorobutane", "HFE 7200", "Ethyl perfluorobutyl ether", "Ethyl nonafluorobutyl ether", "HFE 569mccc", "Nonafluorobutyl ethyl ether", "CF 76", "Cosmetic Fluid CF 76", "1-Ethoxynonafluorobutane", "(Perfluorobutoxy)ethane", "HFE 569sf2"], "SMILES": "C(C(C(F)(F)F)(F)F)(C(OCC)(F)F)(F)F", "physical_data": {"Molecular Weight": "264.09", "Molecular Formula": "C6H5F9O", "Boiling Point": "76 \u00b0C", "Density": "1.43 g/cm\u00b3 @ Temp: 25 \u00b0C"}}