{"cas_no": "163702-07-6", "cn_name": "\u7532\u57fa\u4e5d\u6c1f\u4e01\u919a", "en_name": ["Methyl nonafluorobutyl ether", "Butane, 1,1,1,2,2,3,3,4,4-nonafluoro-4-methoxy-", "1,1,1,2,2,3,3,4,4-Nonafluoro-4-methoxybutane", "Perfluorobutyl methyl ether", "1-Methoxynonafluorobutane", "HFC 7100", "Methyl nonafluorobutyl ether", "Methyl perfluorobutyl ether", "HFE 449", "Nonafluorobutyl methyl ether", "CF 61", "Cosmetic Fluid CF 61", "Methoxyperfluorobutane", "(Perfluorobutoxy)methane", "Methyl 1,1,2,2,3,3,4,4,4-nonafluorobutyl ether", "HFE 449mccc", "GransilSiW 7100", "1-Methoxy-1,1,2,2,3,3,4,4,4-nonafluorobutane"], "SMILES": "C(C(C(F)(F)F)(F)F)(C(OC)(F)F)(F)F", "physical_data": {"Molecular Weight": "250.06", "Molecular Formula": "C5H3F9O", "Boiling Point": "64.5 \u00b0C", "Density": "1.50 g/cm\u00b3"}}