{"cas_no": "163794-91-0", "cn_name": "3-\u6c30\u4e19\u57fa\u4e8c\u5f02\u4e19\u57fa\u4e8c\u7532\u57fa\u6c28\u57fa\u7845\u70f7", "en_name": ["4-[(Dimethylamino)bis(1-methylethyl)silyl]butanenitrile", "Butanenitrile, 4-[(dimethylamino)bis(1-methylethyl)silyl]-", "4-[(Dimethylamino)bis(1-methylethyl)silyl]butanenitrile"], "SMILES": "[Si](CCCC#N)(C(C)C)(C(C)C)N(C)C", "physical_data": {"Molecular Weight": "226.43", "Molecular Formula": "C12H26N2Si", "Boiling Point": "96-98 \u00b0C @ Press: 0.2 Torr", "Density": "0.890 g/cm\u00b3"}}