{"cas_no": "1637-75-8", "cn_name": "3-\u7f9f\u57fa\u9a6c\u5c3f\u9178", "en_name": ["3-Hydroxyhippuric acid", "Glycine, N-(3-hydroxybenzoyl)-", "Hippuric acid, m-hydroxy-", "N-(3-Hydroxybenzoyl)glycine", "m-Hydroxyhippuric acid", "3-Hydroxyhippuric acid", "3-Hydroxybenzoylglycine", "N-m-Hydroxylbenzoylglycine", "(3-Hydroxybenzoylamino)acetic acid", "(3-Hydroxybenzamido)acetic acid", "2-[(3-Hydroxyphenyl)formamido]acetic acid"], "SMILES": "C(NCC(O)=O)(=O)C1=CC(O)=CC=C1", "physical_data": {"Molecular Weight": "195.17", "Molecular Formula": "C9H9NO4", "Melting Point": "185 \u00b0C"}}