{"cas_no": "1638-26-2", "cn_name": "1,1-\u4e8c\u7532\u57fa\u73af\u620a\u70f7", "en_name": ["1,1-Dimethylcyclopentane", "Cyclopentane, 1,1-dimethyl-", "1,1-Dimethylcyclopentane", "gem-Dimethylcyclopentane", "NSC 74145", "1,1-Dimethylcycopentane"], "SMILES": "CC1(C)CCCC1", "physical_data": {"Molecular Weight": "98.19", "Molecular Formula": "C7H14", "Boiling Point": "87.5 \u00b0C", "Melting Point": "-69.8 \u00b0C", "Density": "0.7590 g/cm\u00b3 @ Temp: 15 \u00b0C"}}