{"cas_no": "1638-41-1", "cn_name": "2,2'-\u78fa\u9170\u57fa\u53cc(3,4,6-\u4e09\u6c2f\u82ef\u915a)", "en_name": ["3,4,6-Trichloro-2-[(2,3,5-trichloro-6-hydroxyphenyl)sulfonyl]phenol", "Phenol, 3,4,6-trichloro-2-[(2,3,5-trichloro-6-hydroxyphenyl)sulfonyl]-", "Phenol, 2,2\u2032-sulfonylbis[3,4,6-trichloro-", "3,4,6-Trichloro-2-[(2,3,5-trichloro-6-hydroxyphenyl)sulfonyl]phenol", "2,2\u2032-Dihydroxy-3,3\u2032,5,5\u2032,6,6\u2032-hexachlorodiphenyl sulfone"], "SMILES": "S(=O)(=O)(C1=C(Cl)C(Cl)=CC(Cl)=C1O)C2=C(Cl)C(Cl)=CC(Cl)=C2O", "physical_data": {"Molecular Weight": "456.94", "Molecular Formula": "C12H4Cl6O4S", "Melting Point": "244-245 \u00b0C"}}