{"cas_no": "1638-86-4", "cn_name": "\u82ef\u57fa\u81a6\u9178\u4e8c\u4e59\u916f", "en_name": ["Diethyl phenylphosphonite", "Phosphonous acid, P-phenyl-, diethyl ester", "Phosphonous acid, phenyl-, diethyl ester", "Diethyl phenylphosphonite", "Diethoxyphenylphosphine", "Diethyl benzenephosphonite"], "SMILES": "P(OCC)(OCC)C1=CC=CC=C1", "physical_data": {"Molecular Weight": "198.20", "Molecular Formula": "C10H15O2P", "Boiling Point": "110-111 \u00b0C @ Press: 10-13 Torr", "Density": "1.0405 g/cm\u00b3 @ Temp: 00 \u00b0C"}}