{"cas_no": "1638-22-8", "cn_name": "4-\u4e01\u57fa\u82ef\u915a", "en_name": ["4-Butylphenol", "Phenol, 4-butyl-", "Phenol, p-butyl-", "4-Butylphenol", "p-Butylphenol", "p-Hydroxybutylbenzene", "1-(p-Hydroxyphenyl)butane", "4-n-Butylphenol", "p-n-Butylphenol", "p-Hydroxy-n-butylbenzene", "NSC 407848"], "SMILES": "C(CCC)C1=CC=C(O)C=C1", "physical_data": {"Molecular Weight": "150.22", "Molecular Formula": "C10H14O", "Boiling Point": "248 \u00b0C", "Melting Point": "22 \u00b0C", "Density": "0.978 g/cm\u00b3 @ Temp: 20 \u00b0C"}}