{"cas_no": "16386-93-9", "cn_name": "2,2-\u4e8c\u7532\u57fa-4-\u620a\u70ef\u9178", "en_name": ["2,2-Dimethyl-4-pentenoic acid", "4-Pentenoic acid, 2,2-dimethyl-", "2,2-Dimethyl-4-pentenoic acid", "2,2-Dimethylpent-4-enoic acid"], "SMILES": "C(CC=C)(C(O)=O)(C)C", "physical_data": {"Molecular Weight": "128.17", "Molecular Formula": "C7H12O2", "Boiling Point": "103-105 \u00b0C @ Press: 10 Torr"}}