{"cas_no": "16382-18-6", "cn_name": "5,6-\u4e8c\u7532\u6c27\u57fa\u5432\u54da-2-\u7532\u9178\u4e59\u916f", "en_name": ["Ethyl 5,6-dimethoxy-1H-indole-2-carboxylate", "1H-Indole-2-carboxylic acid, 5,6-dimethoxy-, ethyl ester", "Indole-2-carboxylic acid, 5,6-dimethoxy-, ethyl ester", "Ethyl 5,6-dimethoxy-1H-indole-2-carboxylate", "Ethyl 5,6-dimethoxy-2-indolecarboxylate", "5,6-Dimethoxy-1H-indole-2-carboxylic acid ethyl ester"], "SMILES": "C(OCC)(=O)C1=CC=2C(N1)=CC(OC)=C(OC)C2", "physical_data": {"Molecular Weight": "249.26", "Molecular Formula": "C13H15NO4", "Melting Point": "172 \u00b0C"}}