{"cas_no": "1638-63-7", "cn_name": "\u4e59\u9170\u6241\u6843\u9170\u6c2f", "en_name": ["O-Acetylmandeloyl chloride", "Benzeneacetyl chloride, \u03b1-(acetyloxy)-", "Mandeloyl chloride, acetate", "\u03b1-(Acetyloxy)benzeneacetyl chloride", "Acetoxyphenylacetyl chloride", "O-Acetylmandeloyl chloride", "2-Acetoxy-2-phenylacetyl chloride", "O-Acetylmandelyl chloride", "\u03b1-Acetoxyphenylacetyl chloride", "O-Acetylmandelic acid chloride", "DL-O-Acetylmandeloyl chloride", "NSC 28337", "2-Chloro-2-oxo-1-phenylethyl acetate"], "SMILES": "C(OC(C)=O)(C(Cl)=O)C1=CC=CC=C1", "physical_data": {"Molecular Weight": "212.63", "Molecular Formula": "C10H9ClO3", "Boiling Point": "134-136 \u00b0C @ Press: 15 Torr", "Melting Point": "36 \u00b0C"}}