{"cas_no": "1639-09-4", "cn_name": "1-\u5e9a\u786b\u9187", "en_name": ["1-Heptanethiol", "1-Heptanethiol", "Heptyl mercaptan", "n-Heptyl mercaptan", "Heptylthiol", "1-Mercaptoheptane", "n-Heptanethiol", "n-Heptylthiol", "1-Heptylthiol", "NSC 71119"], "SMILES": "C(CCCS)CCC", "physical_data": {"Molecular Weight": "132.27", "Molecular Formula": "C7H16S", "Boiling Point": "177 \u00b0C", "Melting Point": "-43 \u00b0C", "Density": "0.8399 g/cm\u00b3 @ Temp: 25 \u00b0C"}}