{"cas_no": "1639-60-7", "cn_name": "\u76d0\u9178\u53f3\u4e19\u6c27\u82ac", "en_name": ["Dextropropoxyphene hydrochloride", "Benzeneethanol, \u03b1-[(1R)-2-(dimethylamino)-1-methylethyl]-\u03b1-phenyl-, 1-propanoate, hydrochloride (1:1), (\u03b1S)-", "2-Butanol, 4-(dimethylamino)-3-methyl-1,2-diphenyl-, propionate (ester), hydrochloride, (2S,3R)-(+)-", "Benzeneethanol, \u03b1-[2-(dimethylamino)-1-methylethyl]-\u03b1-phenyl-, propanoate (ester), hydrochloride, [S-(R*,S*)]-", "Benzeneethanol, \u03b1-[(1R)-2-(dimethylamino)-1-methylethyl]-\u03b1-phenyl-, propanoate (ester), hydrochloride, (\u03b1S)-", "2-Butanol, 4-(dimethylamino)-3-methyl-1,2-diphenyl-, propinate (ester), hydrochloride (+)-", "Darvon hydrochloride", "Dextropropoxyphene hydrochloride", "d-4-Dimethylamino-3-methyl-1,2-diphenyl-2-butanol propionate hydrochloride", "Propoxyphene hydrochloride", "\u03b1-(+)-Propoxyphene hydrochloride", "d-Propoxyphene hydrochloride", "Darvon", "\u03b1-d-Propoxyphene hydrochloride", "(+)-Propoxyphene hydrochloride", "d-Propoxyphene monohydrochloride", "\u03b1-Propoxyphene hydrochloride", "Propoxyphen hydrochloride", "Doloxen", "Erantin", "Doloxene", "Algaphan", "Propoxychel", "SK 65", "Harmar", "Femadol", "Antalvic", "Deprancol", "Dolene", "Dolocap", "Develin", "Proxagesic", "Dextropropoxiphene Chloride"], "SMILES": "C(CC1=CC=CC=C1)(C(CN(C)C)C)(OC(CC)=O)C2=CC=CC=C2.Cl", "physical_data": {"Molecular Weight": "", "Molecular Formula": "C22H29NO2.ClH", "Melting Point": "163-165 \u00b0C"}}