{"cas_no": "1639-31-2", "cn_name": "3,4,5-\u4e09\u7532\u57fa\u82ef\u80fa", "en_name": ["3,4,5-Trimethylbenzenamine", "Benzenamine, 3,4,5-trimethyl-", "Aniline, 3,4,5-trimethyl-", "3,4,5-Trimethylbenzenamine", "3,4,5-Trimethylaniline", "NSC 403297", "3,4,5-Trimethylbenzeneamine"], "SMILES": "CC1=C(C)C=C(N)C=C1C", "physical_data": {"Molecular Weight": "135.21", "Molecular Formula": "C9H13N", "Boiling Point": "133-135 \u00b0C @ Press: 16 Torr", "Melting Point": "76-77 \u00b0C"}}