{"cas_no": "16401-99-3", "cn_name": "\u5432\u54da\u7f8e\u8f9bEP\u6742\u8d28I", "en_name": ["Ethyl 1-(4-chlorobenzoyl)-5-methoxy-2-methyl-1H-indole-3-acetate", "1H-Indole-3-acetic acid, 1-(4-chlorobenzoyl)-5-methoxy-2-methyl-, ethyl ester", "Indole-3-acetic acid, 1-(p-chlorobenzoyl)-5-methoxy-2-methyl-, ethyl ester", "Ethyl 1-(4-chlorobenzoyl)-5-methoxy-2-methyl-1H-indole-3-acetate", "Ethyl 1-(p-chlorobenzoyl)-2-methyl-5-methoxy-3-indolylacetate", "Ethyl 1-(4-chlorobenzoyl)-5-methoxy-2-methylindole-3-acetate", "Indomethacin ethyl ester", "Ethyl 2-(1-(4-chlorobenzoyl)-5-methoxy-2-methyl-1H-indol-3-yl)acetate"], "SMILES": "C(=O)(N1C=2C(C(CC(OCC)=O)=C1C)=CC(OC)=CC2)C3=CC=C(Cl)C=C3", "physical_data": {"Molecular Weight": "385.84", "Molecular Formula": "C21H20ClNO4", "Melting Point": "95-96 \u00b0C"}}