{"cas_no": "16405-99-5", "cn_name": "4-(BROMOMETHYL)-2,1,3-BENZOTHIADIAZOLE", "en_name": ["4-(Bromomethyl)-2,1,3-benzothiadiazole", "2,1,3-Benzothiadiazole, 4-(bromomethyl)-", "4-(Bromomethyl)-2,1,3-benzothiadiazole", "4-Bromomethylbenzo[1,2,5]thiadiazole"], "SMILES": "C(Br)C=1C=2C(=NSN2)C=CC1", "physical_data": {"Molecular Weight": "229.10", "Molecular Formula": "C7H5BrN2S", "Melting Point": "90.5-91.5 \u00b0C"}}