{"cas_no": "1640-89-7", "cn_name": "\u4e59\u57fa\u73af\u620a\u70f7", "en_name": ["Ethylcyclopentane", "Cyclopentane, ethyl-", "Ethylcyclopentane", "NSC 74149"], "SMILES": "C(C)C1CCCC1", "physical_data": {"Molecular Weight": "98.19", "Molecular Formula": "C7H14", "Boiling Point": "103.5 \u00b0C", "Melting Point": "-138.4 \u00b0C", "Density": "0.7610 g/cm\u00b3 @ Temp: 20 \u00b0C"}}