{"cas_no": "16400-51-4", "cn_name": "3,3'-\u4e8c\u6eb4\u8054\u82ef", "en_name": ["3,3\u2032-Dibromobiphenyl", "1,1\u2032-Biphenyl, 3,3\u2032-dibromo-", "Biphenyl, 3,3\u2032-dibromo-", "3,3\u2032-Dibromo-1,1\u2032-biphenyl", "3,3\u2032-Dibromobiphenyl", "m,m\u2032-Dibromobiphenyl", "3,3\u2032-Dibromodiphenyl", "PBB 11", "1-Bromo-3-(3-bromophenyl)benzene"], "SMILES": "BrC=1C=C(C=CC1)C2=CC(Br)=CC=C2", "physical_data": {"Molecular Weight": "312.00", "Molecular Formula": "C12H8Br2", "Melting Point": "171 \u00b0C"}}