{"cas_no": "16400-32-1", "cn_name": "1-\u6eb4-2-\u620a\u7094", "en_name": ["1-Bromo-2-pentyne", "2-Pentyne, 1-bromo-", "1-Bromo-2-pentyne", "2-Pentynyl bromide", "2-Pentyn-1-yl bromide"], "SMILES": "C(#CCC)CBr", "physical_data": {"Molecular Weight": "147.01", "Molecular Formula": "C5H7Br", "Boiling Point": "93-94 \u00b0C @ Press: 113 Torr", "Density": "1.3931 g/cm\u00b3 @ Temp: 20 \u00b0C"}}