{"cas_no": "16400-13-8", "cn_name": "4-\u7f9f\u57fa-7\u7532\u57fa\u831a", "en_name": ["2,3-Dihydro-7-methyl-1H-inden-4-ol", "1H-Inden-4-ol, 2,3-dihydro-7-methyl-", "4-Indanol, 7-methyl-", "2,3-Dihydro-7-methyl-1H-inden-4-ol", "7-Methyl-4-indanol", "4-Hydroxy-7-methylindan"], "SMILES": "CC1=C2C(=C(O)C=C1)CCC2", "physical_data": {"Molecular Weight": "148.20", "Molecular Formula": "C10H12O", "Melting Point": "85.5-87.0 \u00b0C"}}