{"cas_no": "16409-43-1", "cn_name": "\u73ab\u7470\u919a", "en_name": ["Rose oxide", "2H-Pyran, tetrahydro-4-methyl-2-(2-methyl-1-propen-1-yl)-", "2H-Pyran, tetrahydro-4-methyl-2-(2-methylpropenyl)-", "2H-Pyran, tetrahydro-4-methyl-2-(2-methyl-1-propenyl)-", "Pyran, tetrahydro-4-methyl-2-(2-methylpropenyl)-", "Tetrahydro-4-methyl-2-(2-methyl-1-propen-1-yl)-2H-pyran", "Rose oxide", "Rosoxide", "Rosenoxide", "Rose oxide L", "4-Methyl-2-(2-methyl-1-propenyl)tetrahydro-2H-pyran", "Tetrahydro-4-methyl-2-(2-methyl-1-propenyl)-2H-pyran", "Tetrahydro-4-methyl-2-(2-methylpropenyl)-2H-pyran", "Rose ether", "4-Methyl-2-(2-methylprop-1-en-1-yl)tetrahydro-2H-pyran", "Rose Oxide 90", "Tetrahydro-4-methyl-2-(2-methyl-1-propenyl)-2H pyran"], "SMILES": "C(=C(C)C)C1CC(C)CCO1", "physical_data": {"Molecular Weight": "154.25", "Molecular Formula": "C10H18O", "Boiling Point": "58 \u00b0C @ Press: 12 Torr", "Density": "0.8753 g/cm\u00b3 @ Temp: 20 \u00b0C"}}