{"cas_no": "16409-44-2", "cn_name": "\u4e59\u9178\u9999\u53f6\u916f", "en_name": ["2,6-Octadien-1-ol, 3,7-dimethyl-, acetate", "2,6-Octadien-1-ol, 3,7-dimethyl-, 1-acetate", "2,6-Octadien-1-ol, 3,7-dimethyl-, acetate", "3,7-Dimethyl-2,6-octadienyl acetate", "2,6-Dimethyl-2,6-octadien-8-yl acetate", "3,7-Dimethyl-2,6-octadien-1-yl acetate"], "SMILES": "C(CCC=C(C)C)(=CCOC(C)=O)C", "physical_data": {"Molecular Weight": "196.29", "Molecular Formula": "C12H20O2", "Boiling Point": "240 \u00b0C", "Melting Point": "&lt;25 \u00b0C"}}