{"cas_no": "16409-46-4", "cn_name": "\u5f02\u620a\u9178 L-\u8584\u8377\u916f", "en_name": ["Menthyl isovalerate", "Butanoic acid, 3-methyl-, 5-methyl-2-(1-methylethyl)cyclohexyl ester", "Menthol, isovalerate", "Isovaleric acid, p-menth-3-yl ester", "Menthyl isovalerate"], "SMILES": "C(C)(C)C1C(OC(CC(C)C)=O)CC(C)CC1", "physical_data": {"Molecular Weight": "240.38", "Molecular Formula": "C15H28O2", "Boiling Point": "129 \u00b0C @ Press: 9 Torr"}}