{"cas_no": "1640-39-7", "cn_name": "2,3,3-\u4e09\u7532\u57fa-3H-\u5432\u54da", "en_name": ["2,3,3-Trimethylindolenine", "3H-Indole, 2,3,3-trimethyl-", "2,3,3-Trimethyl-3H-indole", "2,3,3-Trimethylindolenine", "2,3,3-Trimethylindole", "NSC 65633", "2,3,3-Trimethyl-3H-indolenine"], "SMILES": "CC1(C)C=2C(N=C1C)=CC=CC2", "physical_data": {"Molecular Weight": "159.23", "Molecular Formula": "C11H13N", "Boiling Point": "115 \u00b0C @ Press: 12 Torr", "Melting Point": "156 \u00b0C"}}