{"cas_no": "16409-45-3", "cn_name": "[1R-(1\u03b1,2\u03b2,5\u03b1)]-\u4e59\u9178-5-\u7532\u57fa-2-(1-\u7532\u57fa\u4e59\u57fa)\u73af\u5df1\u916f", "en_name": ["Menthyl acetate", "Cyclohexanol, 5-methyl-2-(1-methylethyl)-, 1-acetate", "Menthol, acetate", "Cyclohexanol, 5-methyl-2-(1-methylethyl)-, acetate", "Menthyl acetate", "Acetic acid 5-methyl-2-(1-methylethyl)cyclohexyl ester", "2-Isopropyl-5-methylcyclohexyl acetate"], "SMILES": "C(C)(C)C1C(OC(C)=O)CC(C)CC1", "physical_data": {"Molecular Weight": "198.30", "Molecular Formula": "C12H22O2", "Boiling Point": "227 \u00b0C", "Melting Point": "&lt;25 \u00b0C"}}