{"cas_no": "16409-34-0", "cn_name": "\u8131\u6c27\u7518\u80c6\u9178\u94a0", "en_name": ["Sodium glycodeoxycholate", "Glycine, N-[(3\u03b1,5\u03b2,12\u03b1)-3,12-dihydroxy-24-oxocholan-24-yl]-, sodium salt (1:1)", "Glycine, N-(3\u03b1,12\u03b1-dihydroxy-5\u03b2-cholan-24-oyl)-, monosodium salt", "Glycodeoxycholic acid, sodium salt", "Glycine, N-[(3\u03b1,5\u03b2,12\u03b1)-3,12-dihydroxy-24-oxocholan-24-yl]-, monosodium salt", "Cholane, glycine deriv.", "Sodium glycodeoxycholate", "Sodium glycyldeoxycholate", "Sodium deoxyglycolate"], "SMILES": "CC12C(C3C(C4(C)C(CC3)CC(O)CC4)CC1O)CCC2C(CCC(NCC(O)=O)=O)C.[Na]", "physical_data": {"Molecular Weight": "", "Molecular Formula": "C26H43NO5.Na", "Melting Point": "245-250 \u00b0C"}}