{"cas_no": "16419-60-6", "cn_name": "2-\u7532\u57fa\u82ef\u787c\u9178", "en_name": ["2-Methylphenylboronic acid", "Boronic acid, B-(2-methylphenyl)-", "o-Tolueneboronic acid", "Boronic acid, (2-methylphenyl)-", "B-(2-Methylphenyl)boronic acid", "o-Tolylboronic acid", "o-Methylphenylboronic acid", "2-Methyl-1-phenylboronic acid", "2-Methylphenylboronic acid", "2-Tolueneboronic acid", "o-Boronotoluene", "(2-Tolyl)boronic acid", "2-Methylbenzeneboronic acid"], "SMILES": "B(O)(O)C1=C(C)C=CC=C1", "physical_data": {"Molecular Weight": "135.96", "Molecular Formula": "C7H9BO2", "Melting Point": "166.5 \u00b0C"}}