{"cas_no": "1641-41-4", "cn_name": "1641-41-4", "en_name": ["4-Indanol", "1H-Inden-4-ol, 2,3-dihydro-", "4-Indanol", "2,3-Dihydro-1H-inden-4-ol", "4-Hydroxyhydrindene", "4-Hydroxyindan", "NSC 64460"], "SMILES": "OC1=C2C(=CC=C1)CCC2", "physical_data": {"Molecular Weight": "134.18", "Molecular Formula": "C9H10O", "Boiling Point": "245 \u00b0C", "Melting Point": "47-51 \u00b0C"}}