{"cas_no": "16415-13-7", "cn_name": "\u5341\u516d\u70f7\u57fa\u4e09\u4e59\u6c27\u57fa\u7845\u70f7", "en_name": ["Hexadecyltriethoxysilane", "Silane, triethoxyhexadecyl-", "Triethoxyhexadecylsilane", "Hexadecyltriethoxysilane", "Cetyltriethoxysilane", "Triethoxy-n-hexadecylsilane", "VP-Si 216", "n-Hexadecyltriethoxysilane"], "SMILES": "[Si](CCCCCCCCCCCCCCCC)(OCC)(OCC)OCC", "physical_data": {"Molecular Weight": "388.70", "Molecular Formula": "C22H48O3Si", "Boiling Point": "160-161 \u00b0C @ Press: 1 Torr", "Melting Point": "-9 \u00b0C", "Density": "0.888 g/cm\u00b3"}}