{"cas_no": "16415-12-6", "cn_name": "\u5341\u516d\u70f7\u57fa\u4e09\u7532\u6c27\u57fa\u7845\u70f7", "en_name": ["Hexadecyltrimethoxysilane", "Silane, hexadecyltrimethoxy-", "Hexadecyltrimethoxysilane", "AY 43-216MC", "n-Hexadecyltrimethoxysilane", "Dynasylan 9116", "Silane 116", "Si 116", "VP-Si 116", "Trimethoxyhexadecylsilane", "Cetyltrimethoxysilane", "Silane 25013VP", "Cetyltrimethylsilane", "QX 1613", "KH 310", "CG 1613", "H 1376", "SIH 5925.0", "Kh 1631", "CG 1631", "SCA-K 16M", "CG-N 1613", "Dynasilan 9116"], "SMILES": "[Si](CCCCCCCCCCCCCCCC)(OC)(OC)OC", "physical_data": {"Molecular Weight": "346.62", "Molecular Formula": "C19H42O3Si", "Boiling Point": "155 \u00b0C @ Press: 0.2 Torr", "Melting Point": "-1 \u00b0C", "Density": "0.890 g/cm\u00b3"}}