{"cas_no": "16411-33-9", "cn_name": "\u4e09\u4e01\u6c28\u57fa\u7532\u57fa\u7845\u70f7", "en_name": ["N,N\u2032,N\u2032\u2032-Tributyl-1-methylsilanetriamine", "Silanetriamine, N,N\u2032,N\u2032\u2032-tributyl-1-methyl-", "N,N\u2032,N\u2032\u2032-Tributyl-1-methylsilanetriamine", "Methyltris(butylamino)silane", "Tris(butylamino)methylsilane"], "SMILES": "[Si](NCCCC)(NCCCC)(NCCCC)C", "physical_data": {"Molecular Weight": "259.51", "Molecular Formula": "C13H33N3Si", "Boiling Point": "98-100 \u00b0C @ Press: 3 Torr", "Density": "0.8586 g/cm\u00b3 @ Temp: 20 \u00b0C"}}