{"cas_no": "1641-74-3", "cn_name": "\u67b8\u6a7c\u9178\u70df\u80fa\u4e59\u916f", "en_name": ["3-Pyridinecarboxylic acid, 2-(diethylamino)ethyl ester, 2-hydroxy-1,2,3-propanetricarboxylate (1:1)", "3-Pyridinecarboxylic acid, 2-(diethylamino)ethyl ester, 2-hydroxy-1,2,3-propanetricarboxylate (1:1)", "Nicotinic acid, 2-(diethylamino)ethyl ester, citrate (1:1)", "53-11 C", "2-Diethylaminoethyl nicotinate citrate", "Euclidan", "3-Diethylaminoethoxycarbonylpyridine citrate", "Provasan", "Nicametate dihydrogen citrate", "Eucast", "Soclidan", "Nicametate citrate", "Nutrin", "NSC 169477", "2-(Diethylamino)ethyl nicotinate 2-hydroxypropane-1,2,3-tricarboxylate"], "SMILES": "C(CC(O)=O)(CC(O)=O)(C(O)=O)O.C(OCCN(CC)CC)(=O)C=1C=CC=NC1", "physical_data": {"Molecular Weight": "", "Molecular Formula": "C12H18N2O2.C6H8O7", "Melting Point": "123 \u00b0C"}}