{"cas_no": "16414-34-9", "cn_name": "6-\u6eb4-2_3-\u4e8c\u7f9f\u57fa\u82ef\u7532\u919b", "en_name": ["5-Bromo-3,4-dihydroxybenzaldehyde", "Benzaldehyde, 3-bromo-4,5-dihydroxy-", "Protocatechualdehyde, 5-bromo-", "3-Bromo-4,5-dihydroxybenzaldehyde", "5-Bromoprotocatechualdehyde", "Bromoprotocatechualdehyde", "5-Bromo-3,4-dihydroxybenzaldehyde", "3,4-Dihydroxy-5-bromobenzaldehyde", "NSC 139675"], "SMILES": "C(=O)C1=CC(Br)=C(O)C(O)=C1", "physical_data": {"Molecular Weight": "217.02", "Molecular Formula": "C7H5BrO3", "Melting Point": "230 \u00b0C"}}