{"cas_no": "1641-40-3", "cn_name": "a-\u4e19\u70ef\u9178\u6c2f\u7532\u916f", "en_name": ["2-Chloro-1,3,2-benzodioxaphosphole", "1,3,2-Benzodioxaphosphole, 2-chloro-", "Phosphorochloridous acid, cyclic o-phenylene ester", "o-Phenylene phosphorochloridite", "Pyrocatechol, cyclic phosphorochloridite", "2-Chloro-1,3,2-benzodioxaphosphole", "o-Phenylene phosphorochloridite ((C6H4O2)ClP)", "1,2-Phenylene phosphorochloridite ((C6H4O2)ClP)", "Cyclic o-phenylene phosphorochloridite", "o-Phenylene chlorophosphite", "Pyrocatechol phosphoryl chloride", "2-Chloro-1,3,2-benzodioxaphospholane", "Chloro(1,2-phenylenedioxy)phosphine", "Phosphorochloridous acid orthophenylene ester", "2-Chloro-4,5-benzo-1,3,2-dioxaphospholane", "1,2-Phenylene phosphorochloridite", "2-Chloro-2H-1,3,2-benzodioxaphosphole"], "SMILES": "ClP1OC=2C(O1)=CC=CC2", "physical_data": {"Molecular Weight": "174.52", "Molecular Formula": "C6H4ClO2P", "Boiling Point": "80 \u00b0C @ Press: 10 Torr", "Melting Point": "30 \u00b0C"}}