{"cas_no": "1641-17-4", "cn_name": "\u7f8e\u514b\u897f\u916e", "en_name": ["2-Hydroxy-4-methoxy-4\u2032-methylbenzophenone", "Methanone, (2-hydroxy-4-methoxyphenyl)(4-methylphenyl)-", "Benzophenone, 2-hydroxy-4-methoxy-4\u2032-methyl-", "(2-Hydroxy-4-methoxyphenyl)(4-methylphenyl)methanone", "2-Hydroxy-4-methoxy-4\u2032-methylbenzophenone", "Mexenone", "Benzophenone 10", "Mexenon", "Uvistat 2211", "Uvistat", "(2-Hydroxy-4-methoxyphenyl)(p-tolyl)methanone"], "SMILES": "C(=O)(C1=C(O)C=C(OC)C=C1)C2=CC=C(C)C=C2", "physical_data": {"Molecular Weight": "242.27", "Molecular Formula": "C15H14O3", "Melting Point": "95 \u00b0C"}}