{"cas_no": "1641-09-4", "cn_name": "3-\u6c30\u57fa\u567b\u5429", "en_name": ["3-Thiophenecarbonitrile", "3-Thiophenecarbonitrile", "3-Cyanothiophene", "Thiophene-3-nitrile", "Thiopheno-3-carbonitrile"], "SMILES": "C(#N)C=1C=CSC1", "physical_data": {"Molecular Weight": "109.15", "Molecular Formula": "C5H3NS", "Boiling Point": "100-102 \u00b0C @ Press: 30 Torr"}}