{"cas_no": "16423-19-1", "cn_name": "\u571f\u5473\u7d20", "en_name": ["rel-(4R,4aR,8aS)-Octahydro-4,8a-dimethyl-4a(2H)-naphthalenol", "4a(2H)-Naphthalenol, octahydro-4,8a-dimethyl-, (4R,4aR,8aS)-rel-", "4a\u03b1(2H)-Naphthol, octahydro-4\u03b1,8a\u03b2-dimethyl-, (\u00b1)-", "4a(2H)-Naphthalenol, octahydro-4,8a-dimethyl-, (4\u03b1,4a\u03b1,8a\u03b2)-(\u00b1)-", "4a(2H)-Naphthalenol, octahydro-4,8a-dimethyl-, (4\u03b1,4a\u03b1,8a\u03b2)-", "rel-(4R,4aR,8aS)-Octahydro-4,8a-dimethyl-4a(2H)-naphthalenol", "DL-Geosmin", "(\u00b1)-Geosmin", "dl-Geosmin"], "SMILES": "OC12C(C)(CCCC1)CCCC2C", "physical_data": {"Molecular Weight": "182.30", "Molecular Formula": "C12H22O", "Boiling Point": "110-112 \u00b0C @ Press: 8 Torr"}}