{"cas_no": "1642-54-2", "cn_name": "\u67b8\u6a7c\u9178\u4e59\u80fa\u55ea", "en_name": ["Diethylcarbamazine citrate", "1-Piperazinecarboxamide, N,N-diethyl-4-methyl-, 2-hydroxy-1,2,3-propanetricarboxylate (1:1)", "1-Piperazinecarboxamide, N,N-diethyl-4-methyl-, citrate (1:1)", "Caricide", "Caritrol", "Dicarocide", "Diethylcarbamazine Acid Citrate", "Diethylcarbamazine citrate", "1-Diethylcarbamoyl-4-methylpiperazine dihydrogen citrate", "N,N-Diethyl-4-methyl-1-piperazinecarboxamide dihydrogen citrate", "Ethodryl citrate", "Franocide", "Franozan", "Ditrazine", "Hetrazan", "Ditrazin citrate", "Filazine", "1-Methyl-4-diethylcarbamoylpiperazine citrate", "Loxuran", "Dirocide", "Banocide", "Ethylaminoazine citrate", "Longicid", "Dec", "Filaribits", "NSC 80513"], "SMILES": "C(CC(O)=O)(CC(O)=O)(C(O)=O)O.C(N(CC)CC)(=O)N1CCN(C)CC1", "physical_data": {"Molecular Weight": "", "Molecular Formula": "C10H21N3O.C6H8O7", "Melting Point": "141-143 \u00b0C"}}