{"cas_no": "16427-44-4", "cn_name": "\u7532\u78fa\u91782-\u7532\u6c27\u57fa\u4e59\u916f", "en_name": ["Ethanol, 2-methoxy-, 1-methanesulfonate", "Ethanol, 2-methoxy-, 1-methanesulfonate", "Ethanol, 2-methoxy-, methanesulfonate", "Methanesulfonic acid, 2-methoxyethyl ester", "\u03b2-Methoxyethyl methanesulfonate", "2-Methoxyethyl methanesulfonate", "2-Methoxyethyl mesylate", "Ethylene glycol monomethyl ether methanesulfonate", "Ethylene glycol methanesulfonate methyl ether"], "SMILES": "O(S(C)(=O)=O)CCOC", "physical_data": {"Molecular Weight": "154.18", "Molecular Formula": "C4H10O4S", "Boiling Point": "80 \u00b0C @ Press: 0.4 Torr"}}