{"cas_no": "164298-27-5", "cn_name": "DFIH2-\u6c1f-1,3-\u4e8c\u7532\u57fa\u6c2f\u5316\u54aa\u5511\u7fc1\u516d\u6c1f\u78f7\u9178\u916f", "en_name": ["1H-Imidazolium, 2-fluoro-4,5-dihydro-1,3-dimethyl-, hexafluorophosphate(1-) (1:1)", "1H-Imidazolium, 2-fluoro-4,5-dihydro-1,3-dimethyl-, hexafluorophosphate(1-) (1:1)", "1H-Imidazolium, 2-fluoro-4,5-dihydro-1,3-dimethyl-, hexafluorophosphate(1-)", "1,3-Dimethyl-2-fluoroimidazolium hexafluorophosphate", "DFIH", "2-Fluoro-1,3-dimethylimidazolidinium hexafluorophosphate"], "SMILES": "[P+5]([F-])([F-])([F-])([F-])([F-])[F-].FC1=[N+](C)CCN1C", "physical_data": {"Molecular Weight": "", "Molecular Formula": "C5H10FN2.F6P", "Melting Point": "168 \u00b0C"}}