{"cas_no": "1642-81-5", "cn_name": "\u5bf9\u6c2f\u7532\u57fa\u82ef\u7532\u9178", "en_name": ["4-(Chloromethyl)benzoic acid", "Benzoic acid, 4-(chloromethyl)-", "p-Toluic acid, \u03b1-chloro-", "4-(Chloromethyl)benzoic acid", "p-(Chloromethyl)benzoic acid", "\u03b1-Chloro-p-toluic acid", "NSC 123935", "4-(Chloromethyl)benzenecarboxylic acid"], "SMILES": "C(O)(=O)C1=CC=C(CCl)C=C1", "physical_data": {"Molecular Weight": "170.59", "Molecular Formula": "C8H7ClO2", "Boiling Point": "201-203 \u00b0C", "Melting Point": "196 \u00b0C"}}