{"cas_no": "16429-21-3", "cn_name": "delta-\u4e19\u4f4d\u5341\u4e8c\u5185\u916f", "en_name": ["\u03b5-Dodecalactone", "2-Oxepanone, 7-hexyl-", "Dodecanoic acid, 6-hydroxy-, \u03b5-lactone", "7-Hexyl-2-oxepanone", "\u03b5-Hydroxydodecanoic acid lactone", "\u03b5-Dodecalactone", "\u03b5-Hexyl-\u03b5-caprolactone", "6-Dodecanolide"], "SMILES": "C(CCCCC)C1OC(=O)CCCC1", "physical_data": {"Molecular Weight": "198.30", "Molecular Formula": "C12H22O2", "Boiling Point": "130 \u00b0C @ Press: 1.6 Torr"}}