{"cas_no": "164298-23-1", "cn_name": "\u56db\u7532\u57fa\u6c1f\u4ee3\u8132\u516d\u6c1f\u78f7\u9178\u916f", "en_name": ["Methanaminium, N-[(dimethylamino)fluoromethylene]-N-methyl-, hexafluorophosphate(1-) (1:1)", "Methanaminium, N-[(dimethylamino)fluoromethylene]-N-methyl-, hexafluorophosphate(1-) (1:1)", "Methanaminium, N-[(dimethylamino)fluoromethylene]-N-methyl-, hexafluorophosphate(1-)", "Tetramethylfluoroformamidinium hexafluorophosphate", "TFFH", "Fluoro-N,N,N\u2032,N\u2032-tetramethylformamidinium hexafluorophosphate", "[(Dimethylamino)(fluoro)methylidene]dimethylazanium", "hexafluoro-\u03bb5-phosphanuide", "Nitrogen(2+), [(fluoroamino)carbonyl]tetramethyl-, hexafluorophosphate(1-) (1:2)"], "SMILES": "[P+5]([F-])([F-])([F-])([F-])([F-])[F-].C(N(C)C)(=[N+](C)C)F", "physical_data": {"Molecular Weight": "", "Molecular Formula": "C5H12FN2.F6P", "Melting Point": "110 \u00b0C"}}