{"cas_no": "16420-13-6", "cn_name": "\u4e8c\u7532\u6c28\u57fa\u786b\u4ee3\u7532\u9170\u6c2f", "en_name": ["Dimethylthiocarbamoyl chloride", "Carbamothioic chloride, N,N-dimethyl-", "Carbamoyl chloride, dimethylthio-", "Carbamothioic chloride, dimethyl-", "Carbamyl chloride, dimethylthio-", "N,N-Dimethylcarbamothioic chloride", "Dimethylthiocarbamoyl chloride", "N,N-Dimethylthiocarbamoyl chloride", "N,N-Dimethylthiocarbamyl chloride", "Dimethylcarbamothioyl chloride", "1-Chloro-N,N-dimethylthioformamide", "N,N-Dimethylthiocarbamic acid chloride", "N,N\u2032-Dimethylchlorothioformamide", "N,N-Dimethylchlorothiocarbamate", "Dimethylcarbamothioic chloride", "N,N-Dimethylcarbamothioyl chloride", "(Chloromethanethioyl)dimethylamine"], "SMILES": "C(N(C)C)(Cl)=S", "physical_data": {"Molecular Weight": "123.60", "Molecular Formula": "C3H6ClNS", "Boiling Point": "102 \u00b0C @ Press: 12 Torr", "Melting Point": "42.5 \u00b0C"}}