{"cas_no": "16433-96-8", "cn_name": "1-\u4e59\u7094\u57fa-2-\u785d\u57fa\u82ef", "en_name": ["1-Ethynyl-2-nitrobenzene", "Benzene, 1-ethynyl-2-nitro-", "1-Ethynyl-2-nitrobenzene", "(o-Nitrophenyl)acetylene", "(2-Nitrophenyl)acetylene", "(2-Nitrophenyl)ethyne", "2-Ethynyl-1-nitrobenzene"], "SMILES": "C(#C)C1=C(N(=O)=O)C=CC=C1", "physical_data": {"Molecular Weight": "147.13", "Molecular Formula": "C8H5NO2", "Melting Point": "79.5-81 \u00b0C"}}