{"cas_no": "1643-15-8", "cn_name": "(3-\u7532\u57fa\u82ef\u6c27\u57fa)\u4e59\u9178", "en_name": ["2-(3-Methylphenoxy)acetic acid", "Acetic acid, 2-(3-methylphenoxy)-", "Acetic acid, (m-tolyloxy)-", "Acetic acid, (3-methylphenoxy)-", "2-(3-Methylphenoxy)acetic acid", "m-Methylphenoxyacetic acid", "(3-Methylphenoxy)acetic acid", "(m-Tolyloxy)acetic acid", "NSC 35913", "2-m-Tolyloxyacetic acid"], "SMILES": "O(CC(O)=O)C1=CC(C)=CC=C1", "physical_data": {"Molecular Weight": "166.17", "Molecular Formula": "C9H10O3", "Melting Point": "102 \u00b0C"}}