{"cas_no": "1643-20-5", "cn_name": "\u6708\u6842\u57fa\u4e8c\u7532\u57fa\u6c27\u5316\u80fa", "en_name": ["Dodecyldimethylamine oxide", "1-Dodecanamine, N,N-dimethyl-, N-oxide", "Dodecylamine, N,N-dimethyl-, N-oxide", "Ammonyx AO", "Ammonyx LO", "DDNO", "Dodecyldimethylamine oxide", "n-Dodecyldimethylamine oxide", "N,N-Dimethyldodecylamine oxide", "Dimethyldodecylamine oxide", "N,N-Dimethyl-n-dodecylamine oxide", "Dimethyllaurylamine oxide", "Lauryldimethylamine N-oxide", "Aromox DMCD", "Dimethylaurylamine oxide", "N-Lauryldimethylamine N-oxide", "Lauramine oxide", "Conco XAL", "Empigen OB", "N-Lauryl-N,N-dimethylamine oxide", "N,N-Dimethyl-1-dodecanamine oxide", "Nissan Unisafe A-LM", "Unisafe A-LM", "Ninox L", "Lauryldimethylamine oxide", "Atlas CD 413", "N-Dodecyl-N,N-dimethylamine oxide", "Cyclomox L", "Ammonyx DMCD 40", "Amphitol 20N", "Emcol L", "Emal 20N", "Rhodamox LO", "Laurylamine oxide", "Rhodamox L", "Schercamox DML", "Rewominox L 408", "Emcol LO", "Oxidet DM 20", "Aromox DM 12D-W", "Admox 12", "Tomah AO 728", "LDAO", "Incromine oxide L", "Ammonyx C10 Amine Oxide", "Oxamin LO", "Ninox DMCD 40", "Aromox DM 12W", "101CG", "Aromox DM 12D", "Softamine L", "Aromox DM 12DW(C)", "N,N-Dimethyl-1-dodecanamine N-oxide", "Dimethyldodecylamine N-oxide", "Genaminox LA", "DDAO", "Barlox 12i", "Ammonyx LO-E", "AX 22", "AX", "AX (amine oxide)", "AX-S", "MON 59121", "AX-SS", "OB 2", "OB 2 (surfactant)", "Genaminox K 12", "C 12AX", "Amogen AOL", "TAO 14", "Unisafe A-LMR", "n-Dodecyl-N,N-dimethylamine-N-oxide", "Macat AO 12", "Vicamox 401", "N,N-Dimethyldodecylamine N-oxide", "Mackamine LO", "Wondamine OX 300", "CFS 560", "Aromox DMA 2DW", "N,N-Dimethyl-N-dodecylamine N-oxide", "Wondamin OX 300", "ColaLux Lo", "Lauryldimethylammonium oxide", "Mackamine CO-SP", "AX-CS", "Cadenax DM 12DW", "Cadenac DM 12D-W", "Unisorb A-LM", "Cadenax DM 12DW-S", "Cadenax DM 12DW(S)", "OA 12", "Cadenax DM 12DW(C)", "AX agent", "Dodecyldimethylamine-N-oxide", "Amiphitol 20N", "Dehyton PL", "Cadenax DM 12DN", "Tainolin LO"], "SMILES": "C(CCCCCCCCC)CCN(C)(C)=O", "physical_data": {"Molecular Weight": "229.40", "Molecular Formula": "C14H31NO", "Melting Point": "132-133 \u00b0C"}}