{"cas_no": "164391-52-0", "cn_name": "\u6297\u6c27\u5242136", "en_name": ["5,7-Di-tert-butyl-3-(3,4-dimethylphenyl)-3H-benzofuran-2-one", "2(3H)-Benzofuranone, 5,7-bis(1,1-dimethylethyl)-3-(3,4-dimethylphenyl)-", "5,7-Bis(1,1-dimethylethyl)-3-(3,4-dimethylphenyl)-2(3H)-benzofuranone", "5,7-Di-tert-butyl-3-(3,4-dimethylphenyl)-2(3H)-benzofuranone", "5,7-Di-tert-butyl-3-(3,4-dimethylphenyl)-3H-benzofuran-2-one", "3-(3,4-Dimethylphenyl)-5,7-di-tert-butyl-3H-benzofuran-2-one", "Chinox AO 136"], "SMILES": "O=C1C(C=2C(=C(C(C)(C)C)C=C(C(C)(C)C)C2)O1)C3=CC(C)=C(C)C=C3", "physical_data": {"Molecular Weight": "350.49", "Molecular Formula": "C24H30O2", "Melting Point": "134-140 \u00b0C"}}