{"cas_no": "16436-00-3", "cn_name": "\u4e59\u9170\u4e59\u9178\u6b63\u8f9b\u916f", "en_name": ["Octyl acetoacetate", "Butanoic acid, 3-oxo-, octyl ester", "Acetoacetic acid, octyl ester", "Octyl alcohol, acetoacetate", "Octyl acetoacetate", "1-Octyl acetoacetate", "n-Octyl acetoacetate", "n-Octyl acetylacetate", "Octyl 3-oxobutanoate", "1-Octyl 3-oxobutanoate"], "SMILES": "C(OCCCCCCCC)(CC(C)=O)=O", "physical_data": {"Molecular Weight": "214.30", "Molecular Formula": "C12H22O3", "Boiling Point": "140-141 \u00b0C @ Press: 16 Torr"}}