{"cas_no": "1643-30-7", "cn_name": "3-(4-\u6eb4\u82ef\u57fa)\u4e19\u9178", "en_name": ["3-(4-Bromophenyl)propionic acid", "Benzenepropanoic acid, 4-bromo-", "Hydrocinnamic acid, p-bromo-", "4-Bromobenzenepropanoic acid", "3-(4-Bromophenyl)propionic acid", "4-Bromohydrocinnamic acid", "3-(4-Bromophenyl)propanoic acid", "4-Bromobenzenepropionic acid"], "SMILES": "C(CC(O)=O)C1=CC=C(Br)C=C1", "physical_data": {"Molecular Weight": "229.07", "Molecular Formula": "C9H9BrO2", "Melting Point": "135 \u00b0C"}}