{"cas_no": "1643-19-2", "cn_name": "\u56db\u4e01\u57fa\u6eb4\u5316\u94f5", "en_name": ["Tetrabutylammonium bromide", "1-Butanaminium, N,N,N-tributyl-, bromide (1:1)", "Ammonium, tetrabutyl-, bromide", "Tetrabutylammonium bromide", "1-Butanaminium, N,N,N-tributyl-, bromide", "Tetra-n-butylammonium bromide", "AP 6G", "TBAB", "Aliquat 100", "Actiron 43-65", "Mastermix MB 4988", "TBAB 50A", "TBABr", "28296F", "28296B"], "SMILES": "[N+](CCCC)(CCCC)(CCCC)CCCC.[Br-]", "physical_data": {"Molecular Weight": "", "Molecular Formula": "C16H36N.Br", "Melting Point": "117-118 \u00b0C"}}