{"cas_no": "1644-11-7", "cn_name": "2-\u5168\u6c1f\u4e19\u6c27\u57fa\u5168\u6c1f\u4e19\u57fa\u4e09\u6c1f\u4e59\u70ef\u57fa\u919a", "en_name": ["1-[1-[Difluoro[(1,2,2-trifluoroethenyl)oxy]methyl]-1,2,2,2-tetrafluoroethoxy]-1,1,2,2,3,3,3-heptafluoropropane", "Propane, 1-[1-[difluoro[(1,2,2-trifluoroethenyl)oxy]methyl]-1,2,2,2-tetrafluoroethoxy]-1,1,2,2,3,3,3-heptafluoro-", "Propane, 1-[1-[difluoro[(trifluoroethenyl)oxy]methyl]-1,2,2,2-tetrafluoroethoxy]-1,1,2,2,3,3,3-heptafluoro-", "Propane, 1,1,1,2,3,3-hexafluoro-2-(heptafluoropropoxy)-3-[(trifluorovinyl)oxy]-", "1-[1-[Difluoro[(1,2,2-trifluoroethenyl)oxy]methyl]-1,2,2,2-tetrafluoroethoxy]-1,1,2,2,3,3,3-heptafluoropropane", "1,1,2,4,4,5,7,7,8,8,9,9,9-Tridecafluoro-3,6-dioxa-5-trifluoromethyl-non-1-ene", "1,1,1,2,2,3,3-Heptafluoro-3-[1,1,1,2,3,3-hexafluoro-3-(1,2,2-trifluorovinyloxy)propan-2-yloxy]propane", "Perfluoro(2-propoxypropyl vinyl ether)", "Perfluoro[2-(propoxy)propyl] perfluorovinyl ether", "Perfluoro-5-methyl-3,6-dioxanon-1-ene", "1,1,1,2,3,3-Hexafluoro-2-(1,1,2,2,3,3,3-heptafluoropropoxy)-3-(1,2,2-trifluoroethenoxy)propane", "P 1226", "2-(Perfluoropropoxy)perfluoropropyl trifluorovinyl ether"], "SMILES": "C(OC(C(C(F)(F)F)(F)F)(F)F)(C(OC(=C(F)F)F)(F)F)(C(F)(F)F)F", "physical_data": {"Molecular Weight": "432.06", "Molecular Formula": "C8F16O2", "Boiling Point": "103 \u00b0C"}}