{"cas_no": "1645-83-6", "cn_name": "1,3,3,3-\u56db\u6c1f-1-\u4e19\u70ef", "en_name": ["1,3,3,3-Tetrafluoropropene", "1-Propene, 1,3,3,3-tetrafluoro-", "Propene, 1,3,3,3-tetrafluoro-", "1,3,3,3-Tetrafluoro-1-propene", "1,3,3,3-Tetrafluoropropylene", "1,3,3,3-Tetrafluoropropene", "1,1,1,3-Tetrafluoro-2-propene", "HFO 1234ze", "HFC 1234ze", "R 1234ze"], "SMILES": "C(C(F)(F)F)=CF", "physical_data": {"Molecular Weight": "114.04", "Molecular Formula": "C3H2F4", "Boiling Point": "-16 \u00b0C"}}