{"cas_no": "16452-01-0", "cn_name": "3-\u7532\u6c27\u57fa-4-\u7532\u57fa\u82ef\u80fa", "en_name": ["3-Methoxy-4-methylaniline", "Benzenamine, 3-methoxy-4-methyl-", "m-Anisidine, 4-methyl-", "3-Methoxy-4-methylbenzenamine", "4-Amino-2-methoxytoluene", "2-Methoxy-4-aminotoluene", "3-Methoxy-4-methylaniline", "3-Methoxy-p-toluidine", "4-Methyl-3-methoxyaniline", "(3-Methoxy-4-methylphenyl)amine", "5-Amino-2-methylanisole", "3-Methoxy-4-toluidine"], "SMILES": "O(C)C1=C(C)C=CC(N)=C1", "physical_data": {"Molecular Weight": "137.18", "Molecular Formula": "C8H11NO", "Boiling Point": "251 \u00b0C", "Melting Point": "56.5 \u00b0C"}}