{"cas_no": "1646-26-0", "cn_name": "2-\u4e59\u9170\u57fa\u82ef\u5e76\u544b\u5583", "en_name": ["2-Acetylbenzofuran", "Ethanone, 1-(2-benzofuranyl)-", "Ketone, 2-benzofuranyl methyl", "1-(2-Benzofuranyl)ethanone", "2-Acetylbenzofuran", "2-Acetylcoumarone", "Benzo[b]furan-2-yl methyl ketone", "2-Benzofuranyl methyl ketone", "1-(2-Benzofuryl)-1-ethanone", "2-Benzofuryl methyl ketone", "2-Acetylbenzo[b]furan", "NSC 23974", "NSC 28904", "1-(Benzofuran-2-yl)ethan-1-one", "1-(1-Benzofuran-2-yl)ethanone"], "SMILES": "C(C)(=O)C1=CC=2C(O1)=CC=CC2", "physical_data": {"Molecular Weight": "160.17", "Molecular Formula": "C10H8O2", "Boiling Point": "118-119 \u00b0C @ Press: 5 Torr", "Melting Point": "76 \u00b0C"}}