{"cas_no": "16466-97-0", "cn_name": "1-\u4e19\u7094\u6eb4\u5316\u9541", "en_name": ["Magnesium, bromo-1-propynyl-", "Magnesium, bromo-1-propynyl-", "1-Propynylmagnesium bromide", "Bromo-1-propynylmagnesium", "1-Propyn-1-ylmagnesium bromide", "Bromo(prop-1-yn-1-yl)magnesium"], "SMILES": "C(#CC)[Mg]Br", "physical_data": {"Molecular Weight": "", "Molecular Formula": "C3H3BrMg", "Melting Point": "53.5 \u00b0C"}}