{"cas_no": "16466-61-8", "cn_name": "\u53e0\u6c2e\u4e8c\u7fa7\u9178\u4e8c\u53d4\u4e01\u916f", "en_name": ["1,2-Bis(1,1-dimethylethyl) 1,2-hydrazinedicarboxylate", "1,2-Hydrazinedicarboxylic acid, 1,2-bis(1,1-dimethylethyl) ester", "Bicarbamic acid, di-tert-butyl ester", "1,2-Hydrazinedicarboxylic acid, bis(1,1-dimethylethyl) ester", "1,2-Bis(1,1-dimethylethyl) 1,2-hydrazinedicarboxylate", "Di-tert-butyl bicarbamate", "Di-tert-butyl hydrazodicarboxylate", "Di-tert-butyl 1,2-hydrazodicarboxylate", "DBADH2", "N,N\u2032-Di-Boc-hydrazine", "N,N\u2032-Bis(tert-butoxycarbonyl)hydrazine", "Di-tert-butyl carbazate", "1,2-Bis(tert-butoxycarbonyl)hydrazine", "Hydrazine-1,2-dicarboxylic acid di(tert-butyl) ester", "Di-tert-butyl hydrazodiformate"], "SMILES": "O(C(C)(C)C)C(NNC(OC(C)(C)C)=O)=O", "physical_data": {"Molecular Weight": "232.28", "Molecular Formula": "C10H20N2O4", "Melting Point": "120-122 \u00b0C"}}