{"cas_no": "1646-75-9", "cn_name": "2-\u7532\u57fa-2-(\u7532\u786b\u57fa)\u4e19\u919b\u809f", "en_name": ["Propanal, 2-methyl-2-(methylthio)-, oxime", "Propanal, 2-methyl-2-(methylthio)-, oxime", "Propionaldehyde, 2-methyl-2-(methylthio)-, oxime", "2-Methyl-2-(methylthio)propionaldoxime", "Aldicarb oxime", "Temik oxime", "2-(Methylthio)-2-methylpropionaldehyde oxime", "2-Methyl-2-(methylthio)propionaldehyde oxime", "2-Methyl-2-(methylthio)propanal oxime", "2-Methyl-2-methylsulfanyl-propionaldehyde oxime"], "SMILES": "C(C=NO)(SC)(C)C", "physical_data": {"Molecular Weight": "133.21", "Molecular Formula": "C5H11NOS", "Boiling Point": "78-81 \u00b0C @ Press: 5 Torr"}}