{"cas_no": "1646-87-3", "cn_name": "\u6d95\u706d\u5a01\u4e9a\u781c", "en_name": ["Aldicarb sulfoxide", "Propanal, 2-methyl-2-(methylsulfinyl)-, O-[(methylamino)carbonyl]oxime", "Propionaldehyde, 2-methyl-2-(methylsulfinyl)-, O-(methylcarbamoyl)oxime", "2-Methyl-2-(methylsulfinyl)propionaldehyde O-(methylcarbamoyl)oxime", "Temik sulfoxide", "Aldicarb sulfoxide"], "SMILES": "N(=CC(S(C)=O)(C)C)OC(NC)=O", "physical_data": {"Molecular Weight": "206.26", "Molecular Formula": "C7H14N2O3S", "Melting Point": "108-110 \u00b0C"}}