{"cas_no": "164656-23-9", "cn_name": "\u5ea6\u4ed6\u96c4\u80fa", "en_name": ["Dutasteride", "1H-Indeno[5,4-f]quinoline-7-carboxamide, N-[2,5-bis(trifluoromethyl)phenyl]-2,4a,4b,5,6,6a,7,8,9,9a,9b,10,11,11a-tetradecahydro-4a,6a-dimethyl-2-oxo-, (4aR,4bS,6aS,7S,9aS,9bS,11aR)-", "4-Azaandrost-1-ene-17-carboxamide, N-[2,5-bis(trifluoromethyl)phenyl]-3-oxo-, (5\u03b1,17\u03b2)-", "(4aR,4bS,6aS,7S,9aS,9bS,11aR)-N-[2,5-Bis(trifluoromethyl)phenyl]-2,4a,4b,5,6,6a,7,8,9,9a,9b,10,11,11a-tetradecahydro-4a,6a-dimethyl-2-oxo-1H-indeno[5,4-f]quinoline-7-carboxamide", "GG 745", "Dutasteride", "GI 198745", "Avodart", "Veltride", "Avolve", "(5\u03b1,17\u03b2)-N-[(2,5-Bis(trifluoromethyl)phenyl]-3-oxo-4-aza-5-androst-1-ene-17-carboxamide"], "SMILES": "CC12C(C3C(C4(C)C(CC3)NC(=O)C=C4)CC1)CCC2C(NC5=C(C(F)(F)F)C=CC(C(F)(F)F)=C5)=O", "physical_data": {"Molecular Weight": "528.53", "Molecular Formula": "C27H30F6N2O2", "Melting Point": "254-258 \u00b0C"}}