{"cas_no": "16462-27-4", "cn_name": "2,4-\u4e8c\u6c28\u57fa\u5627\u5576-5-\u8148", "en_name": ["2,4-Diaminopyrimidine-5-carbonitrile", "5-Pyrimidinecarbonitrile, 2,4-diamino-", "2,4-Diamino-5-pyrimidinecarbonitrile", "2,4-Diamino-5-cyanopyrimidine", "NSC 135235", "2,4-Diaminopyrimidine-5-carbonitrile"], "SMILES": "C(#N)C=1C(N)=NC(N)=NC1", "physical_data": {"Molecular Weight": "135.13", "Molecular Formula": "C5H5N5", "Melting Point": "318 \u00b0C (decomp)"}}