{"cas_no": "1646-53-3", "cn_name": "1-\u6eb4-2\uff0c3\uff0c5\uff0c6-\u56db\u7532\u57fa\u82ef", "en_name": ["3-Bromo-1,2,4,5-tetramethylbenzene", "Benzene, 3-bromo-1,2,4,5-tetramethyl-", "Durene, bromo-", "3-Bromo-1,2,4,5-tetramethylbenzene", "Bromodurene", "3-Bromodurene", "1-Bromo-2,3,5,6-tetramethylbenzene", "2,3,5,6-Tetramethylbromobenzene", "Duryl bromide", "NSC 87881"], "SMILES": "CC1=C(Br)C(C)=C(C)C=C1C", "physical_data": {"Molecular Weight": "213.11", "Molecular Formula": "C10H13Br", "Boiling Point": "111-113 \u00b0C @ Press: 6 Torr", "Melting Point": "60-61 \u00b0C"}}