{"cas_no": "1646-54-4", "cn_name": "3,6-\u4e8c\u6eb4\u56db\u7532\u82ef", "en_name": ["1,4-Dibromo-2,3,5,6-tetramethylbenzene", "Benzene, 1,4-dibromo-2,3,5,6-tetramethyl-", "1,4-Dibromo-2,3,5,6-tetramethylbenzene", "1,4-Dibromotetramethylbenzene", "Dibromodurene", "3,6-Dibromodurene", "3,6-Dibromo-1,2,4,5-tetramethylbenzene", "NSC 87886"], "SMILES": "BrC1=C(C)C(C)=C(Br)C(C)=C1C", "physical_data": {"Molecular Weight": "292.01", "Molecular Formula": "C10H12Br2", "Melting Point": "199-200 \u00b0C"}}