{"cas_no": "16463-74-4", "cn_name": "\u6c22\u5316\u53ef\u677eEP\u6742\u8d28J", "en_name": ["Hydrocortisone 17-acetate", "Pregn-4-ene-3,20-dione, 17-(acetyloxy)-11,21-dihydroxy-, (11\u03b2)-", "Cortisol, 17-acetate", "(11\u03b2)-17-(Acetyloxy)-11,21-dihydroxypregn-4-ene-3,20-dione", "Hydrocortisone 17-acetate"], "SMILES": "C(CO)(=O)C1(OC(C)=O)C2(C)C(CC1)C3C(C(O)C2)C4(C)C(CC3)=CC(=O)CC4", "physical_data": {"Molecular Weight": "404.50", "Molecular Formula": "C23H32O6", "Melting Point": "234-237 \u00b0C"}}