{"cas_no": "1646-88-4", "cn_name": "\u5f97\u706d\u514b,\u4e01\u919b\u809f\u5a01", "en_name": ["Aldicarb sulfone", "Propanal, 2-methyl-2-(methylsulfonyl)-, O-[(methylamino)carbonyl]oxime", "Propionaldehyde, 2-methyl-2-(methylsulfonyl)-, O-(methylcarbamoyl)oxime", "Carbamic acid, methyl-, O-[[2-methyl-2-(methylsulfonyl)propylidene]amino] deriv.", "2-Methyl-2-(methylsulfonyl)propionaldehyde O-(methylcarbamoyl)oxime", "Temik sulfone", "Aldicarb sulfone", "UC 21865", "Aldoxycarb", "Sulfocarb", "Standak", "UCES", "Yangdimiewei", "(2-Methanesulfonyl-2-methylpropylidene)amino N-methylcarbamate", "2-Methyl-2-(methylsulfonyl)propanal O-(methylcarbamoyl)oxime"], "SMILES": "C(C=NOC(NC)=O)(S(C)(=O)=O)(C)C", "physical_data": {"Molecular Weight": "222.26", "Molecular Formula": "C7H14N2O4S", "Melting Point": "140-142 \u00b0C"}}