{"cas_no": "1647-16-1", "cn_name": "1,9-\u7678\u4e8c\u70ef", "en_name": ["1,9-Decadiene", "1,9-Decadiene", "\u03b1,\u03c9-Decadiene", "NSC 102789", "Deca-1,9-diene"], "SMILES": "C(CCCC=C)CCC=C", "physical_data": {"Molecular Weight": "138.25", "Molecular Formula": "C10H18", "Boiling Point": "167 \u00b0C", "Density": "0.7484 g/cm\u00b3 @ Temp: 25 \u00b0C"}}