{"cas_no": "1647-26-3", "cn_name": "2-\u73af\u5df1\u57fa\u6eb4\u4e59\u70f7", "en_name": ["2-Cyclohexylethyl bromide", "Cyclohexane, (2-bromoethyl)-", "(2-Bromoethyl)cyclohexane", "2-Cyclohexylethyl bromide", "1-Bromo-2-cyclohexylethane", "NSC 46808", "NSC 6078", "[2-[Cyclohexyl]ethyl]bromide"], "SMILES": "C(CBr)C1CCCCC1", "physical_data": {"Molecular Weight": "191.11", "Molecular Formula": "C8H15Br", "Boiling Point": "212 \u00b0C", "Melting Point": "-57 \u00b0C"}}