{"cas_no": "16475-90-4", "cn_name": "5-\u4e59\u9170\u6c34\u6768\u9178\u7532\u916f", "en_name": ["Benzoic acid, 5-acetyl-2-hydroxy-, methyl ester", "Benzoic acid, 5-acetyl-2-hydroxy-, methyl ester", "Salicylic acid, 5-acetyl-, methyl ester", "Methyl 5-acetylsalicylate", "Methyl 3-acetyl-6-hydroxybenzoate", "Methyl 5-acetyl-2-hydroxybenzoate", "5-Acetyl-2-hydroxybenzoic acid methyl ester", "Methyl 2-hydroxy-5-acetylbenzoate", "NSC 67867", "5-Acetylsalicylic acid methyl ester"], "SMILES": "C(OC)(=O)C1=CC(C(C)=O)=CC=C1O", "physical_data": {"Molecular Weight": "194.18", "Molecular Formula": "C10H10O4", "Melting Point": "55 \u00b0C"}}