{"cas_no": "164726-80-1", "cn_name": "4-[(4-\u6c2f\u82ef\u57fa)\u82ef\u7532\u57fa]-1-\u54cc\u5576\u4e59\u9187\u4e8c\u76d0\u9178\u76d0", "en_name": ["1-Piperazineethanol, 4-[(4-chlorophenyl)phenylmethyl]-, hydrochloride (1:2)", "1-Piperazineethanol, 4-[(4-chlorophenyl)phenylmethyl]-, hydrochloride (1:2)", "1-Piperazineethanol, 4-[(4-chlorophenyl)phenylmethyl]-, dihydrochloride"], "SMILES": "C(N1CCN(CCO)CC1)(C2=CC=C(Cl)C=C2)C3=CC=CC=C3.Cl", "physical_data": {"Molecular Weight": "", "Molecular Formula": "C19H23ClN2O.2ClH", "Melting Point": "190-194 \u00b0C"}}