{"cas_no": "16484-77-8", "cn_name": "\u9ad82-\u7532-4-\u6c2f\u4e19\u9178", "en_name": ["(+)-Mecoprop", "Propanoic acid, 2-(4-chloro-2-methylphenoxy)-, (2R)-", "Propionic acid, 2-[(4-chloro-o-tolyl)oxy]-, (+)-", "Propanoic acid, 2-(4-chloro-2-methylphenoxy)-, (R)-", "(2R)-2-(4-Chloro-2-methylphenoxy)propanoic acid", "(+)-2-(4-Chloro-2-methylphenoxy)propionic acid", "(+)-2-(4-Chloro-o-tolyloxy)propionic acid", "(+)-MCPP", "Mecoprop-P", "(+)-2-(4-Chloro-2-methylphenoxy)propanoic acid", "Duplosan", "(R)-(+)-Mecoprop", "(+)-Mecoprop", "(R)-Mecoprop", "(R)-2-(4-Chloro-2-methylphenoxy)propionate", "(R)-2-(4-Chloro-o-tolyloxy)propionic acid", "Ipponjime Ekizai", "(+)-(R)-2-(4-Chloro-2-methylphenoxy)propionic acid", "(2R)-2-(4-Chloro-2-methylphenoxy)propanoic acid", "CMPP-P", "MCPP-P", "Mechlorprop-P", "RP 591066"], "SMILES": "O(C(C(O)=O)C)C1=C(C)C=C(Cl)C=C1", "physical_data": {"Molecular Weight": "214.65", "Molecular Formula": "C10H11ClO3", "Melting Point": "95 \u00b0C"}}