{"cas_no": "1648-99-3", "cn_name": "2,2,2-\u4e09\u6c1f\u4e59\u57fa\u78fa\u9170\u6c2f", "en_name": ["2,2,2-Trifluoroethanesulfonyl chloride", "Ethanesulfonyl chloride, 2,2,2-trifluoro-", "2,2,2-Trifluoroethanesulfonyl chloride", "Tresyl chloride", "2,2,2-Trifluoroethylsulfonyl chloride", "2,2,2-Trifluoroethane-1-sulfonyl chloride", "2,2,2-Trifluoroethan-1-sulfonyl chloride"], "SMILES": "C(C(F)(F)F)S(Cl)(=O)=O", "physical_data": {"Molecular Weight": "182.55", "Molecular Formula": "C2H2ClF3O2S", "Boiling Point": "65 \u00b0C @ Press: 45 Torr"}}