{"cas_no": "16481-54-2", "cn_name": "\u9b3c\u81fc\u6bd2\u7d20-4-O-\u8461\u8404\u7cd6\u82f7", "en_name": ["Podophyllotoxin glucoside", "Furo[3\u2032,4\u2032:6,7]naphtho[2,3-d]-1,3-dioxol-6(5aH)-one, 9-(\u03b2-D-glucopyranosyloxy)-5,8,8a,9-tetrahydro-5-(3,4,5-trimethoxyphenyl)-, (5R,5aR,8aR,9R)-", "Podophyllotoxin, \u03b2-D-glucopyranoside", "Furo[3\u2032,4\u2032:6,7]naphtho[2,3-d]-1,3-dioxol-6(5aH)-one, 9-(\u03b2-D-glucopyranosyloxy)-5,8,8a,9-tetrahydro-5-(3,4,5-trimethoxyphenyl)-, [5R-(5\u03b1,5a\u03b2,8a\u03b1,9\u03b1)]-", "Podophyllotoxin glucoside", "(5R,5aR,8aR,9R)-9-(\u03b2-D-Glucopyranosyloxy)-5,8,8a,9-tetrahydro-5-(3,4,5-trimethoxyphenyl)furo[3\u2032,4\u2032:6,7]naphtho[2,3-d]-1,3-dioxol-6(5aH)-one", "Podophyllotoxin \u03b2-D-glucoside", "Podophyllotoxin 3-\u03b2-D-glucopyranoside", "Podophyllotoxin 4-O-glucoside", "NSC 163024", "Podophyllotoxin-4-O-\u03b2-D-glucopyranoside", "Podophyllotoxin 1-O-\u03b2-D-glycoside", "Podophyllotoxin 7\u2032-O-\u03b2-D-glucopyranoside"], "SMILES": "O=C1C2C(C=3C(C(OC4OC(CO)C(O)C(O)C4O)C2CO1)=CC5=C(C3)OCO5)C6=CC(OC)=C(OC)C(OC)=C6", "physical_data": {"Molecular Weight": "576.55", "Molecular Formula": "C28H32O13", "Melting Point": "149-152 \u00b0C"}}