{"cas_no": "16484-86-9", "cn_name": "\u4e59\u4e8c\u9187\u4e8c\u4e59\u919a", "en_name": ["1,2-Diethoxyethene", "Ethene, 1,2-diethoxy-", "Ethylene, 1,2-diethoxy-", "1,2-Diethoxyethene", "1,2-Diethoxyethylene"], "SMILES": "C(=COCC)OCC", "physical_data": {"Molecular Weight": "116.16", "Molecular Formula": "C6H12O2", "Boiling Point": "133-134 \u00b0C @ Press: 737 Torr", "Density": "0.8838 g/cm\u00b3 @ Temp: 25 \u00b0C"}}