{"cas_no": "16485-10-2", "cn_name": "DL-\u6cdb\u9187", "en_name": ["DL-Panthenol", "Butanamide, 2,4-dihydroxy-N-(3-hydroxypropyl)-3,3-dimethyl-", "Butyramide, 2,4-dihydroxy-N-(3-hydroxypropyl)-3,3-dimethyl-, (\u00b1)-", "Butanamide, 2,4-dihydroxy-N-(3-hydroxypropyl)-3,3-dimethyl-, (\u00b1)-", "Butyramide, \u03b1,\u03b3-dihydroxy-N-(3-hydroxypropyl)-\u03b2,\u03b2-dimethyl-", "2,4-Dihydroxy-N-(3-hydroxypropyl)-3,3-dimethylbutanamide", "(\u00b1)-2,4-Dihydroxy-N-(3-hydroxypropyl)-3,3-dimethylbutyramide", "DL-Pantothenol", "DL-Panthenol", "2,4-Dihydroxy-N-(3-hydroxypropyl)-3,3-dimethylbutyramide", "DL-Pantothenyl alcohol", "Ritapan DL"], "SMILES": "C(C(NCCCO)=O)(C(CO)(C)C)O", "physical_data": {"Molecular Weight": "205.25", "Molecular Formula": "C9H19NO4", "Boiling Point": "118-120 \u00b0C @ Press: 0.02 Torr", "Melting Point": "60-61 \u00b0C"}}