{"cas_no": "16491-54-6", "cn_name": "1-\u8f9b\u70ef-3-\u4e01\u9178\u916f", "en_name": ["1-Octen-3-yl butyrate", "Butanoic acid, 1-ethenylhexyl ester", "Butyric acid, 1-pentylallyl ester", "1-Octen-3-ol, butyrate", "1-Pentylallyl butyrate", "1-Octen-3-yl butyrate"], "SMILES": "C(OC(CCC)=O)(CCCCC)C=C", "physical_data": {"Molecular Weight": "198.30", "Molecular Formula": "C12H22O2", "Boiling Point": "111 \u00b0C @ Press: 20 Torr"}}