{"cas_no": "16498-20-7", "cn_name": "6-\u785d\u57fa-1,4-\u82ef\u5e76\u4e8c\u6c27\u6742\u73af", "en_name": ["2,3-Dihydro-6-nitro-1,4-benzodioxin", "1,4-Benzodioxin, 2,3-dihydro-6-nitro-", "1,4-Benzodioxan, 6-nitro-", "2,3-Dihydro-6-nitro-1,4-benzodioxin", "6-Nitro-1,4-benzodioxan"], "SMILES": "N(=O)(=O)C=1C=C2C(=CC1)OCCO2", "physical_data": {"Molecular Weight": "181.15", "Molecular Formula": "C8H7NO4", "Melting Point": "121-122 \u00b0C"}}