{"cas_no": "16495-13-9", "cn_name": "(S)-\u82c4\u6c27\u7532\u57fa\u73af\u6c27\u4e59\u70f7", "en_name": ["(+)-Benzyl glycidyl ether", "Oxirane, 2-[(phenylmethoxy)methyl]-, (2S)-", "Propane, 1-(benzyloxy)-2,3-epoxy-, (S)-", "Oxirane, [(phenylmethoxy)methyl]-, (S)-", "Oxirane, [(phenylmethoxy)methyl]-, (2S)-", "(2S)-2-[(Phenylmethoxy)methyl]oxirane", "(+)-Benzyl glycidyl ether", "(+)-2-(Benzyloxymethyl)oxirane", "(S)-O-Benzylglycidol", "(S)-(Benzyloxymethyl)oxirane", "(S)-Benzylglycidol", "Benzyl (S)-glycidyl ether", "(S)-Glycidyl benzyl ether", "(S)-2-(Benzyloxymethyl)oxirane", "(2S)-2-[(Benzyloxy)methyl]oxirane", "(+)-Glycidyl benzyl ether", "(S)-(+)-Benzyl glycidyl ether", "(2S)-2-[(Benzyloxy)methyl]oxirane", "(2S)-2-(Phenylmethoxymethyl)oxirane"], "SMILES": "C(OCC1=CC=CC=C1)C2CO2", "physical_data": {"Molecular Weight": "164.20", "Molecular Formula": "C10H12O2", "Boiling Point": "120 \u00b0C @ Press: 0.2 Torr"}}