{"cas_no": "16491-36-4", "cn_name": "\u987a-3-\u5df1\u70ef\u57fa\u4e01\u916f", "en_name": ["cis-3-Hexenyl butanoate", "Butanoic acid, (3Z)-3-hexen-1-yl ester", "Butyric acid, 3-hexenyl ester, (Z)-", "Butanoic acid, 3-hexenyl ester, (Z)-", "Butanoic acid, (3Z)-3-hexenyl ester", "cis-3-Hexenyl butyrate", "cis-3-Hexenyl butanoate", "cis-Hex-3-en-1-yl butyrate", "(Z)-3-Hexen-1-yl butyrate", "(Z)-3-Hexenyl butanoate", "(Z)-3-Hexenyl butyrate", "(Z)-3-Hexen-1-ol butanoate", "(3Z)-Hexenyl butyrate", "(3Z)-Hexenyl butanoate", "Pipol Butyrate"], "SMILES": "C(OCCC=CCC)(CCC)=O", "physical_data": {"Molecular Weight": "170.25", "Molecular Formula": "C10H18O2", "Boiling Point": "96 \u00b0C @ Press: 20 Torr"}}