{"cas_no": "164931-83-3", "cn_name": "(1R,2R)-(-)-[1,2-\u73af\u5df1\u4e8c\u6c28-N,N'-\u53cc(3,5-\u4e8c\u53d4\u4e01\u57fa\u6c34\u6768\u57fa)]\u6c2f\u5316\u94ec", "en_name": ["(-)-Chloro[[2,2\u2032-[(1R,2R)-1,2-cyclohexanediylbis[(nitrilo-\u03baN)methylidyne]]bis[4,6-bis(1,1-dimethylethyl)phenolato-\u03baO]](2-)]chromium", "Chromium, chloro[[2,2\u2032-[(1R,2R)-1,2-cyclohexanediylbis[(nitrilo-\u03baN)methylidyne]]bis[4,6-bis(1,1-dimethylethyl)phenolato-\u03baO]](2-)]-, (SP-5-13)-", "Chromium, chloro[[2,2\u2032-[1,2-cyclohexanediylbis(nitrilomethylidyne)]bis[4,6-bis(1,1-dimethylethyl)phenolato]](2-)-N,N\u2032,O,O\u2032]-, [SP-5-13-(1R-trans)]-", "(SP-5-13)-Chloro[[2,2\u2032-[(1R,2R)-1,2-cyclohexanediylbis[(nitrilo-\u03baN)methylidyne]]bis[4,6-bis(1,1-dimethylethyl)phenolato-\u03baO]](2-)]chromium", "(-)-Chloro[[2,2\u2032-[(1R,2R)-1,2-cyclohexanediylbis[(nitrilo-\u03baN)methylidyne]]bis[4,6-bis(1,1-dimethylethyl)phenolato-\u03baO]](2-)]chromium", "[(R,R)-N,N\u2032-Bis(3,5-di-tert-butylsalicylidene)-1,2-cyclohexanediamine]chromium(III) chloride"], "SMILES": "[Cl-][Cr+3]123[N]([C@]4([C@]([N]1=CC=5C([O-]2)=C(C(C)(C)C)C=C(C(C)(C)C)C5)(CCCC4)[H])[H])=CC=6C([O-]3)=C(C(C)(C)C)C=C(C(C)(C)C)C6", "physical_data": {"Molecular Weight": "", "Molecular Formula": "C36H52ClCrN2O2", "Melting Point": "&gt;222 \u00b0C (decomp)"}}