{"cas_no": "16498-81-0", "cn_name": "2-\u7532\u6c27\u57fa\u70df\u9178", "en_name": ["2-Methoxynicotinic acid", "3-Pyridinecarboxylic acid, 2-methoxy-", "Nicotinic acid, 2-methoxy-", "2-Methoxy-3-pyridinecarboxylic acid", "2-Methoxynicotinic acid"], "SMILES": "O(C)C1=C(C(O)=O)C=CC=N1", "physical_data": {"Molecular Weight": "153.14", "Molecular Formula": "C7H7NO3", "Melting Point": "144-146 \u00b0C"}}