{"cas_no": "16497-41-9", "cn_name": "\u90bb\u82ef\u4e8c\u7532\u9170\u4e8c\u82ef\u80fa", "en_name": ["N1,N2-Diphenyl-1,2-benzenedicarboxamide", "1,2-Benzenedicarboxamide, N1,N2-diphenyl-", "Phthalanilide", "1,2-Benzenedicarboxamide, N,N\u2032-diphenyl-", "N1,N2-Diphenyl-1,2-benzenedicarboxamide", "N,N\u2032-Diphenylphthalamide", "1,2-Benzenedicarboxamide N1,N2-diphenyl-"], "SMILES": "C(NC1=CC=CC=C1)(=O)C2=C(C(NC3=CC=CC=C3)=O)C=CC=C2", "physical_data": {"Molecular Weight": "316.35", "Molecular Formula": "C20H16N2O2", "Melting Point": "253-255 \u00b0C"}}