{"cas_no": "1649-08-7", "cn_name": "\u4e8c\u6c2f\u4e8c\u6c1f\u4e59\u70f7", "en_name": ["1,2-Dichloro-1,1-difluoroethane", "Ethane, 1,2-dichloro-1,1-difluoro-", "1,2-Dichloro-1,1-difluoroethane", "1,1-Difluoro-1,2-dichloroethane", "1,2-Dichloro-2,2-difluoroethane", "Fron 132b", "R 132b", "HCFC 132b", "FC 132b", "CFC 132b", "F 132b"], "SMILES": "C(CCl)(Cl)(F)F", "physical_data": {"Molecular Weight": "134.94", "Molecular Formula": "C2H2Cl2F2", "Boiling Point": "46.8 \u00b0C @ Press: 760 Torr", "Melting Point": "-101.2 \u00b0C", "Density": "1.4163 g/cm\u00b3 @ Temp: 20 \u00b0C"}}