{"cas_no": "1649-18-9", "cn_name": "\u963f\u624e\u54cc\u9686", "en_name": ["Azaperone", "1-Butanone, 1-(4-fluorophenyl)-4-[4-(2-pyridinyl)-1-piperazinyl]-", "Butyrophenone, 4\u2032-fluoro-4-[4-(2-pyridyl)-1-piperazinyl]-", "1-(4-Fluorophenyl)-4-[4-(2-pyridinyl)-1-piperazinyl]-1-butanone", "4\u2032-Fluoro-4-[4-(2-pyridyl)-1-piperazinyl]butyrophenone", "Azaperone", "Fluoperidol", "Stresnil", "R-1929", "Suicalm", "NSC 170976"], "SMILES": "C(CCC(=O)C1=CC=C(F)C=C1)N2CCN(CC2)C3=CC=CC=N3", "physical_data": {"Molecular Weight": "327.40", "Molecular Formula": "C19H22FN3O", "Melting Point": "73-75 \u00b0C"}}