{"cas_no": "16499-57-3", "cn_name": "7-\u6c1f-4-\u55b9\u5511\u5549\u916e", "en_name": ["7-Fluoroquinazolin-4(3H)-one", "4(3H)-Quinazolinone, 7-fluoro-", "4(1H)-Quinazolinone, 7-fluoro-", "7-Fluoro-4(3H)-quinazolinone", "7-Fluoro-3,4-dihydroquinazolin-4-one", "7-Fluoro-3H-quinazolin-4-one", "7-Fluoroquinazolin-4(3H)-one", "7-Fluoroquinazolin-4-ol"], "SMILES": "O=C1C=2C(=CC(F)=CC2)NC=N1", "physical_data": {"Molecular Weight": "164.14", "Molecular Formula": "C8H5FN2O", "Melting Point": "221 \u00b0C"}}