{"cas_no": "16499-88-0", "cn_name": "3-\u4e01\u6c27\u57fa\u4e19\u80fa", "en_name": ["3-Butoxy-1-propanamine", "1-Propanamine, 3-butoxy-", "Propylamine, 3-butoxy-", "3-Butoxy-1-propanamine", "3-(n-Butoxy)propylamine", "3-Butoxypropylamine", "\u03b3-Butoxypropylamine", "3-Butyloxy-1-propylamine", "3-Butoxypropanamine", "3-Aminopropyl butyl ether", "3-(Butyloxy)propylamine"], "SMILES": "O(CCCC)CCCN", "physical_data": {"Molecular Weight": "131.22", "Molecular Formula": "C7H17NO", "Boiling Point": "80-84 \u00b0C @ Press: 30 Torr", "Density": "0.8514 g/cm\u00b3 @ Temp: 20 \u00b0C"}}