{"cas_no": "16493-80-4", "cn_name": "4-\u4e59\u57fa\u8f9b\u9178", "en_name": ["4-Ethyloctanoic acid", "Octanoic acid, 4-ethyl-", "4-Ethyloctanoic acid"], "SMILES": "C(CCC(O)=O)(CCCC)CC", "physical_data": {"Molecular Weight": "172.26", "Molecular Formula": "C10H20O2", "Boiling Point": "142-143 \u00b0C @ Press: 10 Torr"}}