{"cas_no": "16502-01-5", "cn_name": "1,2,3,4-\u56db\u6c22-9H-\u5421\u5576[3,4-B]\u5e76\u5432\u54da", "en_name": ["Tetrahydro-\u03b2-carboline", "1H-Pyrido[3,4-b]indole, 2,3,4,9-tetrahydro-", "2,3,4,9-Tetrahydro-1H-pyrido[3,4-b]indole", "1,2,3,4-Tetrahydro-\u03b2-carboline", "Norharman, 1,2,3,4-tetrahydro-", "Tryptoline", "Noreleagnine", "Tetrahydronorharman", "Tetrahydro-\u03b2-carboline", "THBC", "1,2,3,4-Tetrahydro-9H-pyrido[3,4-b]indole", "2,3,4,9-Tetrahydro-1H-\u03b2-carboline", "2,3,4,9-Tetrahydro-1H-pyrido[4,3-b]indole", "1H,2H,3H,4H,9H-Pyrido[3,4-b]indole"], "SMILES": "C1=2C3=C(NC1=CC=CC2)CNCC3", "physical_data": {"Molecular Weight": "172.23", "Molecular Formula": "C11H12N2", "Melting Point": "204-205 \u00b0C"}}