{"cas_no": "16504-57-7", "cn_name": "D-BETA-\u9ad8\u4e1d\u6c28\u9178", "en_name": ["(3S)-3-Amino-4-hydroxybutanoic acid", "Butanoic acid, 3-amino-4-hydroxy-, (3S)-", "Butyric acid, 3-amino-4-hydroxy-, (-)-", "Butanoic acid, 3-amino-4-hydroxy-, (S)-", "(3S)-3-Amino-4-hydroxybutanoic acid", "(-)-4-Hydroxy-3-aminobutyric acid", "(S)-3-Amino-4-hydroxybutanoic acid"], "SMILES": "C(CC(O)=O)(CO)N", "physical_data": {"Molecular Weight": "119.12", "Molecular Formula": "C4H9NO3", "Melting Point": "223-225 \u00b0C"}}