{"cas_no": "16518-62-0", "cn_name": "3-\u6eb4-N,N-\u4e8c\u7532\u57fa\u82ef\u80fa", "en_name": ["3-Bromo-N,N-dimethylaniline", "Benzenamine, 3-bromo-N,N-dimethyl-", "Aniline, m-bromo-N,N-dimethyl-", "3-Bromo-N,N-dimethylbenzenamine", "N,N-Dimethyl-3-bromoaniline", "3-Bromo-N,N-dimethylaniline", "m-Bromo-N,N-dimethylaniline", "(3-Bromophenyl)dimethylamine", "N-(3-Bromophenyl)dimethylamine", "3-(N,N-Dimethylamino)-1-bromobenzene", "1-Bromo-3-dimethylaminobenzene"], "SMILES": "N(C)(C)C1=CC(Br)=CC=C1", "physical_data": {"Molecular Weight": "200.08", "Molecular Formula": "C8H10BrN", "Boiling Point": "100-104 \u00b0C @ Press: 2 Torr", "Melting Point": "11 \u00b0C"}}