{"cas_no": "16523-54-9", "cn_name": "\u4e8c\u73af\u5df1\u57fa\u6c2f\u5316\u81a6", "en_name": ["Chlorodicyclohexylphosphine", "Phosphinous chloride, P,P-dicyclohexyl-", "Phosphinous chloride, dicyclohexyl-", "P,P-Dicyclohexylphosphinous chloride", "Chlorodicyclohexylphosphine", "Dicyclohexylchlorophosphine", "Dicyclohexylphosphinous chloride", "Dicyclohexylphosphorus chloride", "Dicyclohexylphosphine chloride"], "SMILES": "P(Cl)(C1CCCCC1)C2CCCCC2", "physical_data": {"Molecular Weight": "232.73", "Molecular Formula": "C12H22ClP", "Boiling Point": "182-183 \u00b0C @ Press: 23 Torr", "Melting Point": "126-128 \u00b0C", "Density": "1.0923 g/cm\u00b3 @ Temp: 20 \u00b0C"}}