{"cas_no": "165252-70-0", "cn_name": "\u544b\u866b\u80fa", "en_name": ["Dinotefuran", "Guanidine, N\u2032\u2032-methyl-N-nitro-N\u2032-[(tetrahydro-3-furanyl)methyl]-", "Guanidine, N-methyl-N\u2032-nitro-N\u2032\u2032-[(tetrahydro-3-furanyl)methyl]-", "N\u2032\u2032-Methyl-N-nitro-N\u2032-[(tetrahydro-3-furanyl)methyl]guanidine", "MTI 446", "Dinotefuran", "Starkle", "Safari", "Safari (insecticide)", "Venom (insecticide)", "Mikeblock", "Tenchu", "Zylam", "Alpine WSG", "Nidinotefuran", "Safari 20SG", "Arubarin", "1-Methyl-2-nitro-3-((tetrahydrofuran-3-yl)methyl)guanidine"], "SMILES": "C(N=C(NN(=O)=O)NC)C1CCOC1", "physical_data": {"Molecular Weight": "202.21", "Molecular Formula": "C7H14N4O3", "Melting Point": "94.5-101.5 \u00b0C"}}