{"cas_no": "16523-31-2", "cn_name": "4,6-\u4e8c\u6c28\u57fa\u95f4\u82ef\u4e8c\u915a\u4e8c\u76d0\u9178\u76d0", "en_name": ["1,3-Benzenediol, 4,6-diamino-, hydrochloride (1:2)", "1,3-Benzenediol, 4,6-diamino-, hydrochloride (1:2)", "Resorcinol, 4,6-diamino-, dihydrochloride", "1,3-Benzenediol, 4,6-diamino-, dihydrochloride", "4,6-Diaminoresorcinol dihydrochloride", "4,6-Diamino-1,3-benzenediol dihydrochloride", "4,6-Diaminoresorcin dihydrochloride", "1,3-Diamino-4,6-dihydroxybenzene dihydrochloride", "6-Dihydroxy-m-phenylenediamine dihydrochloride", "4,6-Diamino-1,3-dihydroxybenzene dihydrochloride"], "SMILES": "NC1=C(O)C=C(O)C(N)=C1.Cl", "physical_data": {"Molecular Weight": "", "Molecular Formula": "C6H8N2O2.2ClH", "Melting Point": "&gt;260 \u00b0C"}}