{"cas_no": "16529-56-9", "cn_name": "2-\u7532\u57fa-3-\u4e01\u70ef\u8148", "en_name": ["2-Methyl-3-butenenitrile", "3-Butenenitrile, 2-methyl-", "2-Methyl-3-butenenitrile", "2-Methyl-3-butenonitrile", "3-Cyanobut-1-ene"], "SMILES": "C(C=C)(C#N)C", "physical_data": {"Molecular Weight": "81.12", "Molecular Formula": "C5H7N", "Boiling Point": "126 \u00b0C", "Density": "0.8131 g/cm\u00b3 @ Temp: 20 \u00b0C"}}