{"cas_no": "16523-89-0", "cn_name": "\u4e09\u70ef\u4e19\u81a6", "en_name": ["Triallyl phosphine", "Phosphine, tri-2-propen-1-yl-", "Phosphine, triallyl-", "Phosphine, tri-2-propenyl-", "Tri-2-propen-1-ylphosphine", "Triallyl phosphine"], "SMILES": "P(CC=C)(CC=C)CC=C", "physical_data": {"Molecular Weight": "154.19", "Molecular Formula": "C9H15P", "Boiling Point": "69 \u00b0C @ Press: 13 Torr", "Density": "0.997 g/cm\u00b3 @ Temp: 25 \u00b0C"}}