{"cas_no": "1653-64-1", "cn_name": "\u80e1\u6912\u4e59\u80fa", "en_name": ["1,3-Benzodioxole-5-ethanamine, hydrochloride (1:1)", "1,3-Benzodioxole-5-ethanamine, hydrochloride (1:1)", "Phenethylamine, 3,4-(methylenedioxy)-, hydrochloride", "1,3-Benzodioxole-5-ethanamine, hydrochloride", "3,4-Methylenedioxy-\u03b2-phenylethylamine hydrochloride", "2-(3,4-Methylenedioxyphenyl)ethylamine hydrochloride", "3,4-Methylenedioxyphenethylamine hydrochloride", "3,4-(Methylenedioxy)phenylethylamine hydrochloride", "2-(3,4-Methylenedioxyphenyl)ethylamine chlorohydrate", "[2-(Benzodioxol-5-yl)ethyl]amine hydrochloride"], "SMILES": "C(CN)C=1C=C2C(=CC1)OCO2.Cl", "physical_data": {"Molecular Weight": "", "Molecular Formula": "C9H11NO2.ClH", "Melting Point": "208-209 \u00b0C"}}