{"cas_no": "16532-79-9", "cn_name": "\u5bf9\u6eb4\u82ef\u4e59\u8148", "en_name": ["(4-Bromophenyl)acetonitrile", "Benzeneacetonitrile, 4-bromo-", "Acetonitrile, (p-bromophenyl)-", "4-Bromobenzeneacetonitrile", "(p-Bromophenyl)acetonitrile", "4-Bromobenzyl cyanide", "2-(4-Bromophenyl)acetonitrile", "(4-Bromophenyl)acetonitrile", "p-Bromobenzyl cyanide", "4-(Cyanomethyl)bromobenzene", "1-Bromo-4-cyanomethylbenzene", "NSC 84174", "4-Bromobenzyl nitrile", "4-(Cyanomethyl)-1-bromobenzene"], "SMILES": "C(C#N)C1=CC=C(Br)C=C1", "physical_data": {"Molecular Weight": "196.04", "Molecular Formula": "C8H6BrN", "Boiling Point": "142 \u00b0C @ Press: 5 Torr", "Melting Point": "50 \u00b0C"}}