{"cas_no": "1653-30-1", "cn_name": "2-\u5341\u4e00\u9187", "en_name": ["(\u00b1)-2-Undecanol", "2-Undecanol", "2-Hendecanol", "Methyl nonyl carbinol", "sec-Undecyl alcohol", "2-Hydroxyundecane", "\u03b1-Methyldecanol", "(\u00b1)-2-Undecanol", "sec-Undecanol"], "SMILES": "C(CCCCCC)CCC(C)O", "physical_data": {"Molecular Weight": "172.31", "Molecular Formula": "C11H24O", "Boiling Point": "228-233 \u00b0C", "Melting Point": "48 \u00b0C", "Density": "0.827 g/cm\u00b3 @ Temp: 23 \u00b0C"}}