{"cas_no": "16533-71-4", "cn_name": "3,5-\u4e8c\u785d\u57fa-4-\u7532\u57fa\u82ef\u7532\u9178", "en_name": ["4-Methyl-3,5-dinitrobenzoic acid", "Benzoic acid, 4-methyl-3,5-dinitro-", "p-Toluic acid, 3,5-dinitro-", "4-Methyl-3,5-dinitrobenzoic acid", "3,5-Dinitro-p-toluic acid", "3,5-Dinitro-4-toluic acid", "NSC 5589", "3,5-Dinitro-4-methylbenzoic acid"], "SMILES": "N(=O)(=O)C1=C(C)C(N(=O)=O)=CC(C(O)=O)=C1", "physical_data": {"Molecular Weight": "226.14", "Molecular Formula": "C8H6N2O6", "Melting Point": "154-155 \u00b0C"}}