{"cas_no": "16536-30-4", "cn_name": "\u53cc(2,4-\u4e8c\u785d\u57fa\u82ef\u57fa)\u8349\u9178\u916f[\u7528\u4e8e\u4ee5\u9ad8\u6548\u6db2\u76f8\u8272\u8c31\u6cd5\u548c\u6d41\u52a8\u6ce8\u5c04\u5206\u6790\u6cd5\u8367\u5149\u6027\u5316\u5408\u7269\u6d4b\u5b9a\u7684\u5316\u5b66\u53d1\u5149\u8bd5\u5242]", "en_name": ["Bis(2,4-dinitrophenyl) oxalate", "Ethanedioic acid, 1,2-bis(2,4-dinitrophenyl) ester", "Oxalic acid, bis(2,4-dinitrophenyl) ester", "Ethanedioic acid, bis(2,4-dinitrophenyl) ester", "Phenol, 2,4-dinitro-, oxalate (2:1) (ester)", "Bis(2,4-dinitrophenyl) oxalate"], "SMILES": "N(=O)(=O)C1=C(OC(C(OC2=C(N(=O)=O)C=C(N(=O)=O)C=C2)=O)=O)C=CC(N(=O)=O)=C1", "physical_data": {"Molecular Weight": "422.22", "Molecular Formula": "C14H6N4O12", "Melting Point": "189-192 \u00b0C"}}