{"cas_no": "1653-31-2", "cn_name": "2-\u5341\u4e09\u9187", "en_name": ["2-Tridecanol", "2-Tridecanol", "2-Hydroxytridecane", "1-Methyldodecanol", "1-Methyl-1-dodecanol", "NSC 9499", "1-Methyldodecyl alcohol"], "SMILES": "C(CCCCCCCC)CCC(C)O", "physical_data": {"Molecular Weight": "200.36", "Molecular Formula": "C13H28O", "Boiling Point": "148-150 \u00b0C @ Press: 10 Torr", "Melting Point": "23 \u00b0C"}}