{"cas_no": "16534-24-0", "cn_name": "N-\u8089\u6842\u9170\u7518\u6c28\u9178", "en_name": ["Cinnamoylglycine", "Glycine, N-(1-oxo-3-phenyl-2-propen-1-yl)-", "Glycine, N-(1-oxo-3-phenyl-2-propenyl)-", "Glycine, N-cinnamoyl-", "N-(1-Oxo-3-phenyl-2-propen-1-yl)glycine", "Cinnamoylglycine", "N-Cinnamoylglycine", "N-Cinnamylglycine", "2-(3-Phenylacrylamido)acetic acid", "2-(3-Phenylprop-2-enamido)acetic acid"], "SMILES": "C(=CC(NCC(O)=O)=O)C1=CC=CC=C1", "physical_data": {"Molecular Weight": "205.21", "Molecular Formula": "C11H11NO3", "Melting Point": "197 \u00b0C"}}