{"cas_no": "165393-06-6", "cn_name": "UROLITHIN C", "en_name": ["Urolithin C", "6H-Dibenzo[b,d]pyran-6-one, 3,8,9-trihydroxy-", "3,8,9-Trihydroxy-6H-dibenzo[b,d]pyran-6-one", "Urolithin C", "3,8,9-Trihydroxy-6H-benzo[c]chromen-6-one", "3,8,9-Trihydroxyurolithin", "3,8,9-Trihydroxybenzo[c]chromen-6-one"], "SMILES": "O=C1C=2C(C=3C(O1)=CC(O)=CC3)=CC(O)=C(O)C2", "physical_data": {"Molecular Weight": "244.20", "Molecular Formula": "C13H8O5", "Melting Point": "&gt;333 \u00b0C"}}