{"cas_no": "1653-16-3", "cn_name": "2-\u4e59\u57fa\u7898\u5df1\u70f7", "en_name": ["3-(Iodomethyl)heptane", "Heptane, 3-(iodomethyl)-", "3-(Iodomethyl)heptane", "2-Ethylhexyl iodide"], "SMILES": "C(CCCC)(CC)CI", "physical_data": {"Molecular Weight": "240.12", "Molecular Formula": "C8H17I", "Boiling Point": "89-90 \u00b0C @ Press: 11 Torr", "Density": "1.3398 g/cm\u00b3 @ Temp: 25 \u00b0C"}}