{"cas_no": "16533-72-5", "cn_name": "\u73af\u6c27\u7425\u73c0\u9178", "en_name": ["cis-Epoxysuccinate", "2,3-Oxiranedicarboxylic acid, (2R,3S)-rel-", "Succinic acid, epoxy-, cis-", "2,3-Oxiranedicarboxylic acid, cis-", "rel-(2R,3S)-2,3-Oxiranedicarboxylic acid", "cis-Epoxysuccinic acid", "1-Oxacyclopropane-cis-2,3-dicarboxylic acid", "cis-2,3-Oxiranedicarboxylic acid", "cis-2,3-Epoxysuccinic acid", "cis-Epoxysuccinate", "Epoxymaleic acid"], "SMILES": "C(O)(=O)C1C(C(O)=O)O1", "physical_data": {"Molecular Weight": "132.07", "Molecular Formula": "C4H4O5", "Melting Point": "149 \u00b0C"}}