{"cas_no": "16532-02-8", "cn_name": "\u6eb4\u4e59\u57fa\u4e8c\u7532\u57fa\u6c2f\u7845\u70f7", "en_name": ["(Bromomethyl)chlorodimethylsilane", "Silane, (bromomethyl)chlorodimethyl-", "(Bromomethyl)chlorodimethylsilane", "(Bromomethyl)dimethylchlorosilane", "(Bromomethyl)dimethylsilyl chloride"], "SMILES": "[Si](CBr)(C)(C)Cl", "physical_data": {"Molecular Weight": "187.54", "Molecular Formula": "C3H8BrClSi", "Boiling Point": "131 \u00b0C", "Density": "1.375 g/cm\u00b3"}}