{"cas_no": "16534-12-6", "cn_name": "4-\u6eb4-3,5-\u4e8c\u7f9f\u57fa\u82ef\u7532\u9178", "en_name": ["4-Bromo-3,5-dihydroxybenzoic acid", "Benzoic acid, 4-bromo-3,5-dihydroxy-", "\u03b1-Resorcylic acid, 4-bromo-", "4-Bromo-3,5-dihydroxybenzoic acid", "4-Bromo-3,5-resorcylic acid", "NSC 151972"], "SMILES": "C(O)(=O)C1=CC(O)=C(Br)C(O)=C1", "physical_data": {"Molecular Weight": "233.02", "Molecular Formula": "C7H5BrO4", "Melting Point": "245-250 \u00b0C"}}