{"cas_no": "16545-68-9", "cn_name": "\u73af\u4e19\u9187", "en_name": ["Cyclopropanol", "Cyclopropanol", "Cyclopropyl alcohol", "Hydroxycyclopropane"], "SMILES": "OC1CC1", "physical_data": {"Molecular Weight": "58.08", "Molecular Formula": "C3H6O", "Boiling Point": "100-103 \u00b0C", "Density": "9.9110 g/cm\u00b3 @ Temp: 20 \u00b0C"}}