{"cas_no": "16543-55-8", "cn_name": "N-\u4e9a\u785d\u57fa\u964d\u70df\u78b1(NNN)", "en_name": ["N-Nitrosonornicotine", "Pyridine, 3-[(2S)-1-nitroso-2-pyrrolidinyl]-", "Nicotine, 1\u2032-demethyl-1\u2032-nitroso-", "Pyridine, 3-(1-nitroso-2-pyrrolidinyl)-, (S)-", "Nornicotine, N-nitroso-", "3-[(2S)-1-Nitroso-2-pyrrolidinyl]pyridine", "N\u2032-Nitrosonornicotine", "N-Nitrosonornicotine", "Nitrosonornicotine", "1\u2032-Nitrosonornicotine", "anti-N\u2032-Nitrosonornicotine", "syn-N\u2032-Nitrosonornicotine", "NNN", "(S)-N\u2032-Nitrosonornicotine", "3-[(2S)-1-Nitrosopyrrolidin-2-yl]pyridine"], "SMILES": "N(=O)N1C(CCC1)C=2C=CC=NC2", "physical_data": {"Molecular Weight": "177.20", "Molecular Formula": "C9H11N3O", "Boiling Point": "154 \u00b0C @ Press: 0.2 Torr", "Melting Point": "47 \u00b0C"}}