{"cas_no": "16544-67-5", "cn_name": "6-(\u4e09\u6c1f\u7532\u57fa)-4(3H)-\u55b9\u5511\u5549\u916e", "en_name": ["6-(Trifluoromethyl)-4(3H)-quinazolinone", "4(3H)-Quinazolinone, 6-(trifluoromethyl)-", "4(1H)-Quinazolinone, 6-(trifluoromethyl)-", "6-(Trifluoromethyl)-4(3H)-quinazolinone", "6-(Trifluoromethyl)quinazolin-4-ol"], "SMILES": "O=C1C=2C(=CC=C(C(F)(F)F)C2)NC=N1", "physical_data": {"Molecular Weight": "214.14", "Molecular Formula": "C9H5F3N2O", "Melting Point": "209-211 \u00b0C"}}