{"cas_no": "16545-54-3", "cn_name": "3,3\u2019-\u786b\u4ee3\u53cc\u4e19\u9178\u4e8c(\u5341\u56db\u70f7\u9187)\u916f", "en_name": ["Dimyristyl thiodipropionate", "Propanoic acid, 3,3\u2032-thiobis-, 1,1\u2032-ditetradecyl ester", "Propionic acid, 3,3\u2032-thiodi-, ditetradecyl ester", "Propanoic acid, 3,3\u2032-thiobis-, ditetradecyl ester", "Advastab PS 801", "Myristyl thiodipropionate", "Dimyristyl 3,3\u2032-thiodipropionate", "Advastab 801", "Dimyristyl thiodipropionate", "Advastab 810", "AO 4", "DMTP", "TPM", "Sumilizer TPM", "Seenox DM", "Ditetradecylthiodipropionate", "Chimox 14", "Cyanox MTDP", "Yoshinox DMTP", "Tetradecyl 3,3\u2032-thiodipropionate", "DMTP Yoshitomi", "Antioxidant TPM", "DMTDP", "Antioxidant DM"], "SMILES": "C(CCSCCC(OCCCCCCCCCCCCCC)=O)(OCCCCCCCCCCCCCC)=O", "physical_data": {"Molecular Weight": "570.95", "Molecular Formula": "C34H66O4S", "Melting Point": "48-50 \u00b0C"}}