{"cas_no": "1654-86-0", "cn_name": "\u6b63\u7678\u9178\u6b63\u7678\u916f", "en_name": ["Decyl decanoate", "Decanoic acid, decyl ester", "Decyl caprate", "1-Decyl decanoate", "Decyl decanoate", "Capryl caprate"], "SMILES": "C(OCCCCCCCCCC)(CCCCCCCCC)=O", "physical_data": {"Molecular Weight": "312.53", "Molecular Formula": "C20H40O2", "Boiling Point": "219.0-219.4 \u00b0C @ Press: 15 Torr", "Melting Point": "9.7 \u00b0C", "Density": "0.8586 g/cm\u00b3 @ Temp: 20 \u00b0C"}}