{"cas_no": "16554-45-3", "cn_name": "2-\u6c28\u57fa -3-\u785d\u57fa\u82ef\u7532\u919a", "en_name": ["2-Methoxy-6-nitrobenzenamine", "Benzenamine, 2-methoxy-6-nitro-", "o-Anisidine, 6-nitro-", "2-Methoxy-6-nitrobenzenamine", "2-Amino-3-nitroanisole", "2-Methoxy-6-nitroaniline", "6-Nitro-o-anisidine", "2-Amino-3-methoxynitrobenzene", "6-Methoxy-2-nitroaniline", "(2-Methoxy-6-nitrophenyl)amine", "2-Amino-3-nitro-1-methoxybenzene"], "SMILES": "N(=O)(=O)C1=C(N)C(OC)=CC=C1", "physical_data": {"Molecular Weight": "168.15", "Molecular Formula": "C7H8N2O3", "Melting Point": "67 \u00b0C"}}