{"cas_no": "1655-07-8", "cn_name": "2-\u73af\u5df1\u916e\u7532\u9178\u4e59\u916f", "en_name": ["Ethyl 2-oxocyclohexanecarboxylate", "Cyclohexanecarboxylic acid, 2-oxo-, ethyl ester", "2-Carbethoxycyclohexanone", "2-(Ethoxycarbonyl)cyclohexanone", "Ethyl cyclohexanone-2-carboxylate", "Ethyl 2-oxocyclohexanecarboxylate", "2-Oxocyclohexanecarboxylic acid ethyl ester", "Ethyl 2-oxo-1-cyclohexanecarboxylate", "Ethyl 1-oxo-2-cyclohexanecarboxylate", "2-Carboethoxycyclohexanone", "Ethyl 2-cyclohexanone-1-carboxylate", "NSC 18744", "Ethyl 2-oxocyclohexan-1-carboxylate"], "SMILES": "C(OCC)(=O)C1C(=O)CCCC1", "physical_data": {"Molecular Weight": "170.21", "Molecular Formula": "C9H14O3", "Boiling Point": "106-107 \u00b0C", "Melting Point": "101 \u00b0C", "Density": "1.0740 g/cm\u00b3 @ Temp: 17.5 \u00b0C"}}