{"cas_no": "165534-43-0", "cn_name": "3-(\u4e8c\u4e59\u6c27\u57fa\u90bb\u9170\u6c27\u57fa)-1,2,3-\u82ef\u5e76\u4e09\u55ea-4-\u916e", "en_name": ["Diethyl 4-oxo-1,2,3-benzotriazin-3-yl phosphate", "Phosphoric acid, diethyl 4-oxo-1,2,3-benzotriazin-3-yl ester", "1,2,3-Benzotriazin-4(3H)-one, 3-[(diethoxyphosphinyl)oxy]-", "Diethyl 4-oxo-1,2,3-benzotriazin-3-yl phosphate", "DEPBT", "3-(Diethoxyphosphoryloxy)-1,2,3-benzotriazin-4(3H)-one", "3-[(Diethoxyphosphinyl)oxy]-1,2,3-benzotriazin-4(3H)-one"], "SMILES": "O=C1C=2C(N=NN1OP(OCC)(OCC)=O)=CC=CC2", "physical_data": {"Molecular Weight": "299.22", "Molecular Formula": "C11H14N3O5P", "Melting Point": "72-74 \u00b0C"}}