{"cas_no": "1655-54-5", "cn_name": "N-2,4-\u4e8c\u785d\u57fa\u82ef-L-\u82ef\u4e19\u6c28\u9178", "en_name": ["N-(2,4-Dinitrophenyl)-L-phenylalanine", "L-Phenylalanine, N-(2,4-dinitrophenyl)-", "Alanine, N-(2,4-dinitrophenyl)-3-phenyl-, L-", "N-(2,4-Dinitrophenyl)-L-phenylalanine", "N-2,4-DNP-L-phenylalanine", "DNP-L-phenylalanine", "NSC 526956", "NSC 78496"], "SMILES": "N(C(CC1=CC=CC=C1)C(O)=O)C2=C(N(=O)=O)C=C(N(=O)=O)C=C2", "physical_data": {"Molecular Weight": "331.28", "Molecular Formula": "C15H13N3O6", "Melting Point": "186 \u00b0C"}}