{"cas_no": "1655-64-7", "cn_name": "N-2,4-\u4e8c\u785d\u57fa\u82ef-L-\u4e1d\u6c28\u9178", "en_name": ["N-(2,4-Dinitrophenyl)-L-serine", "L-Serine, N-(2,4-dinitrophenyl)-", "Serine, N-(2,4-dinitrophenyl)-, L-", "N-(2,4-Dinitrophenyl)-L-serine", "2,4-Dinitrophenyl-L-serine", "(2,4-Dinitrophenyl)serine", "N-(2,4-Dinitrophenyl)serine", "N-2,4-DNP-L-serine", "DNP-L-serine", "L-DNP-Serine", "NSC 89606", "(2S)-2-[(2,4-Dinitrophenyl)amino]-3-hydroxypropanoic acid"], "SMILES": "N(C(C(O)=O)CO)C1=C(N(=O)=O)C=C(N(=O)=O)C=C1", "physical_data": {"Molecular Weight": "271.18", "Molecular Formula": "C9H9N3O7", "Melting Point": "196-197 \u00b0C"}}