{"cas_no": "1655-52-3", "cn_name": "\u4e8c\u785d\u57fa\u82ef\u4e19\u6c28\u9178", "en_name": ["2,4-Dinitrophenyl-L-alanine", "L-Alanine, N-(2,4-dinitrophenyl)-", "Alanine, N-(2,4-dinitrophenyl)-, L-", "N-(2,4-Dinitrophenyl)-L-alanine", "2,4-Dinitrophenyl-L-alanine", "1-N-2,4-Dinitrophenyl-L-alanine", "DNP-L-alanine", "NSC 89605", "(S)-2-((2,4-Dinitrophenyl)amino)propanoic acid"], "SMILES": "N(=O)(=O)C1=C(NC(C(O)=O)C)C=CC(N(=O)=O)=C1", "physical_data": {"Molecular Weight": "255.18", "Molecular Formula": "C9H9N3O6", "Melting Point": "175-178 \u00b0C (decomp)"}}