{"cas_no": "1655-49-8", "cn_name": "N\u0391,N\u0395-\u53cc(2,4-\u4e8c\u785d\u57fa\u82ef\u57fa)-L-\u8d56\u6c28\u9178", "en_name": ["N2,N6-Bis(2,4-dinitrophenyl)-L-lysine", "L-Lysine, N2,N6-bis(2,4-dinitrophenyl)-", "Lysine, N2,N6-bis(2,4-dinitrophenyl)-, L-", "N2,N6-Bis(2,4-dinitrophenyl)-L-lysine", "Di-2,4-dinitrophenyl-L-lysine", "\u03b1,\u03b5-Bis(2,4-dinitrophenyl)lysine", "N,N\u2032-(2,4-Dinitrophenyl)-L-lysine", "Bis-2,4-dinitrophenyllysine", "NSC 89640", "ZINC 89469886"], "SMILES": "N(C(CCCCNC1=C(N(=O)=O)C=C(N(=O)=O)C=C1)C(O)=O)C2=C(N(=O)=O)C=C(N(=O)=O)C=C2", "physical_data": {"Molecular Weight": "478.37", "Molecular Formula": "C18H18N6O10", "Melting Point": "174 \u00b0C (decomp)"}}