{"cas_no": "16555-77-4", "cn_name": "\u0391-\u7f9f\u57fa\u9a6c\u5c3f\u9178", "en_name": ["2-Hydroxyhippuric acid", "Acetic acid, 2-(benzoylamino)-2-hydroxy-", "Hippuric acid, \u03b1-hydroxy-", "Acetic acid, (benzoylamino)hydroxy-", "2-(Benzoylamino)-2-hydroxyacetic acid", "Benzamidohydroxyacetic acid", "\u03b1-Hydroxyhippuric acid", "2-Hydroxyhippuric acid", "2-Benzamido-2-hydroxyaceticacid", "2-Hydroxy-2-(phenylformamido)acetic acid", "2-Benzamido-2-hydroxyacetic acid"], "SMILES": "C(NC(C(O)=O)O)(=O)C1=CC=CC=C1", "physical_data": {"Molecular Weight": "195.17", "Molecular Formula": "C9H9NO4", "Melting Point": "208-213 \u00b0C"}}