{"cas_no": "1655-57-8", "cn_name": "N-2,4-\u4e8c\u785d\u57fa\u82ef-L-\u4eae\u6c28\u9178", "en_name": ["N-(2,4-Dinitrophenyl)-L-leucine", "L-Leucine, N-(2,4-dinitrophenyl)-", "Leucine, N-(2,4-dinitrophenyl)-, L-", "N-(2,4-Dinitrophenyl)-L-leucine", "(2,4-Dinitrophenyl)-L-leucine", "N-2,4-DNP-L-leucine", "DNP-L-leucine", "L-DNP-Leucine", "NSC 89626", "(2S)-2-[(2,4-Dinitrophenyl)amino]-4-methylpentanoic acid"], "SMILES": "N(C(CC(C)C)C(O)=O)C1=C(N(=O)=O)C=C(N(=O)=O)C=C1", "physical_data": {"Molecular Weight": "297.26", "Molecular Formula": "C12H15N3O6", "Melting Point": "101 \u00b0C"}}