{"cas_no": "1656-63-9", "cn_name": "\u4e09\u786b\u4ee3\u4e9a\u78f7\u9178\u4e09(\u5341\u4e8c\u70f7\u57fa)\u8102", "en_name": ["Trilauryl trithiophosphite", "Phosphorotrithious acid, tridodecyl ester", "Dodecyl phosphorotrithioite", "1-Dodecanethiol, phosphorotrithioate (3:1)", "Trilauryl trithiophosphite", "Tridodecyl trithiophosphite", "Trisdodecyl trithiophosphite", "Tris(dodecylthio) phosphite", "JPS 312", "NSC 44604", "JP 312", "Antioxidant TLTTP"], "SMILES": "P(SCCCCCCCCCCCC)(SCCCCCCCCCCCC)SCCCCCCCCCCCC", "physical_data": {"Molecular Weight": "635.15", "Molecular Formula": "C36H75PS3", "Melting Point": "29.5-30 \u00b0C", "Density": "0.92 g/cm\u00b3 @ Temp: 20 \u00b0C"}}