{"cas_no": "16564-43-5", "cn_name": "\u7518\u6c28\u9e45\u8131\u6c27\u80c6\u9178\u94a0", "en_name": ["Sodium glycochenodeoxycholate", "Glycine, N-[(3\u03b1,5\u03b2,7\u03b1)-3,7-dihydroxy-24-oxocholan-24-yl]-, sodium salt (1:1)", "Glycine, N-(3\u03b1,7\u03b1-dihydroxy-5\u03b2-cholan-24-oyl)-, monosodium salt", "Glycine, N-[(3\u03b1,5\u03b2,7\u03b1)-3,7-dihydroxy-24-oxocholan-24-yl]-, monosodium salt", "Glycochenodeoxycholic acid sodium salt", "Sodium glycochenodeoxycholate", "Sodium glycochenodesoxycholate", "Sodium chenodeoxycholylglycine", "NSC 681056", "DSHS 00533", "Sodium glycylchenodeoxycholate"], "SMILES": "CC12C(C3C(C4(C)C(CC3O)CC(O)CC4)CC1)CCC2C(CCC(NCC(O)=O)=O)C.[Na]", "physical_data": {"Molecular Weight": "", "Molecular Formula": "C26H43NO5.Na", "Melting Point": "160-170 \u00b0C"}}