{"cas_no": "16567-13-8", "cn_name": "6-\u6eb4-8-\u6c2f\u55b9\u5549", "en_name": ["6-Bromo-8-chloroquinoline", "Quinoline, 6-bromo-8-chloro-", "6-Bromo-8-chloroquinoline"], "SMILES": "ClC=1C2=C(C=C(Br)C1)C=CC=N2", "physical_data": {"Molecular Weight": "242.50", "Molecular Formula": "C9H5BrClN", "Melting Point": "119.5-120 \u00b0C"}}