{"cas_no": "16562-13-3", "cn_name": "\u5de6\u65cb\u5343\u91d1\u85e4\u5576\u78b1", "en_name": ["Stepholidine", "6H-Dibenzo[a,g]quinolizine-2,10-diol, 5,8,13,13a-tetrahydro-3,9-dimethoxy-, (13aS)-", "13a\u03b1-Berbine-2,10-diol, 3,9-dimethoxy-", "6H-Dibenzo[a,g]quinolizine-2,10-diol, 5,8,13,13a-tetrahydro-3,9-dimethoxy-, (S)-", "(13aS)-5,8,13,13a-Tetrahydro-3,9-dimethoxy-6H-dibenzo[a,g]quinolizine-2,10-diol", "Stepholidine", "(-)-Stepholidine", "l-Stepholidine", "Stopholidine", "(13AS)-3,9-dimethoxy-6,8,13,13a-tetrahydro-5H-isoquinolino[2,1-b]isoquinoline-2,10-diol"], "SMILES": "OC=1C=C2C3N(CC=4C(C3)=CC=C(O)C4OC)CCC2=CC1OC", "physical_data": {"Molecular Weight": "327.37", "Molecular Formula": "C19H21NO4", "Melting Point": "161-162 \u00b0C"}}