{"cas_no": "1656-48-0", "cn_name": "2-\u6c30\u57fa\u4e59\u919a", "en_name": ["Bis(2-cyanoethyl) ether", "Propanenitrile, 3,3\u2032-oxybis-", "Propionitrile, 3,3\u2032-oxydi-", "3,3\u2032-Oxybis[propanenitrile]", "\u03b2,\u03b2\u2032-Dicyanodiethyl ether", "\u03b2,\u03b2\u2032-Oxydipropionitrile", "3,3\u2032-Oxydipropionitrile", "Bis(2-cyanoethyl) ether", "\u03b2,\u03b2\u2032-Bis(cyanoethyl) ether", "Bis(\u03b2-cyanoethyl) ether", "Bis(propionitrile) ether", "3,3\u2032-Oxybispropionitrile", "2,2\u2032-Dicyanodiethyl ether", "NSC 7769", "2-Cyanoethyl ether"], "SMILES": "O(CCC#N)CCC#N", "physical_data": {"Molecular Weight": "124.14", "Molecular Formula": "C6H8N2O", "Boiling Point": "161-162 \u00b0C @ Press: 5 Torr", "Melting Point": "50 \u00b0C", "Density": "1.0482 g/cm\u00b3 @ Temp: 25 \u00b0C"}}