{"cas_no": "165668-41-7", "cn_name": "N-(3-\u6c2f-1H-\u5432\u54da-7-\u57fa)-1,4-\u82ef\u4e8c\u78fa\u9170\u80fa", "en_name": ["Indisulam", "1,4-Benzenedisulfonamide, N1-(3-chloro-1H-indol-7-yl)-", "1,4-Benzenedisulfonamide, N-(3-chloro-1H-indol-7-yl)-", "N1-(3-Chloro-1H-indol-7-yl)-1,4-benzenedisulfonamide", "E 7070", "Indisulam"], "SMILES": "N(S(=O)(=O)C1=CC=C(S(N)(=O)=O)C=C1)C2=C3C(C(Cl)=CN3)=CC=C2", "physical_data": {"Molecular Weight": "385.85", "Molecular Formula": "C14H12ClN3O4S2", "Melting Point": "242-243 \u00b0C (decomp)"}}