{"cas_no": "1656-44-6", "cn_name": "2,4-\u4e8c\u785d\u57fa\u82ef\u78fa\u9170\u6c2f", "en_name": ["2,4-Dinitrobenzenesulfonyl chloride", "Benzenesulfonyl chloride, 2,4-dinitro-", "2,4-Dinitrobenzenesulfonyl chloride", "2,4-Dinitrophenylsulfonyl chloride", "2,4-Dinitrobenzene-1-sulfonyl chloride"], "SMILES": "N(=O)(=O)C1=C(S(Cl)(=O)=O)C=CC(N(=O)=O)=C1", "physical_data": {"Molecular Weight": "266.62", "Molecular Formula": "C6H3ClN2O6S", "Boiling Point": "60-80 \u00b0C", "Melting Point": "101-102 \u00b0C"}}