{"cas_no": "1656-94-6", "cn_name": "3,3'-\u4e8c\u7532\u57fa\u5421\u5576\u80fa", "en_name": ["N-(3-Pyridinylmethyl)-3-pyridinemethanamine", "3-Pyridinemethanamine, N-(3-pyridinylmethyl)-", "Pyridine, 3,3\u2032-(iminodimethylene)di-", "N-(3-Pyridinylmethyl)-3-pyridinemethanamine", "Bis[(3-pyridyl)methyl]amine", "3,3\u2032-(Iminodimethylene)dipyridine", "NSC 86140", "1-Pyridin-3-yl-N-(pyridin-3-ylmethyl)methanamine", "Lylamine"], "SMILES": "C(NCC=1C=CC=NC1)C=2C=CC=NC2", "physical_data": {"Molecular Weight": "199.25", "Molecular Formula": "C12H13N3", "Boiling Point": "168 \u00b0C @ Press: 0.55 Torr"}}