{"cas_no": "165670-57-5", "cn_name": "2-(1-\u7532\u57fa-1-\u82ef\u4e59\u57fa)-5-\u82ef\u57fa-2H-\u56db\u6c2e\u5511", "en_name": ["2-(1-Methyl-1-phenylethyl)-5-phenyl-2H-tetrazole", "2H-Tetrazole, 2-(1-methyl-1-phenylethyl)-5-phenyl-", "2-(1-Methyl-1-phenylethyl)-5-phenyl-2H-tetrazole", "2-Cumyl-5-phenyltetrazole"], "SMILES": "C(C)(C)(N1N=C(N=N1)C2=CC=CC=C2)C3=CC=CC=C3", "physical_data": {"Molecular Weight": "264.33", "Molecular Formula": "C16H16N4", "Melting Point": "51 \u00b0C"}}