{"cas_no": "16566-20-4", "cn_name": "5-\u6c28\u57fa\u55b9\u5594\u5549", "en_name": ["5-Quinoxalinamine", "5-Quinoxalinamine", "Quinoxaline, 5-amino-", "5-Aminoquinoxaline", "5-Quinoxalinylamine"], "SMILES": "NC=1C2=C(C=CC1)N=CC=N2", "physical_data": {"Molecular Weight": "145.16", "Molecular Formula": "C8H7N3", "Melting Point": "92 \u00b0C"}}