{"cas_no": "16567-18-3", "cn_name": "8-\u6eb4\u55b9\u5549", "en_name": ["8-Bromoquinoline", "Quinoline, 8-bromo-", "8-Bromoquinoline"], "SMILES": "BrC=1C2=C(C=CC1)C=CC=N2", "physical_data": {"Molecular Weight": "208.05", "Molecular Formula": "C9H6BrN", "Boiling Point": "302 \u00b0C", "Melting Point": "80 \u00b0C"}}