{"cas_no": "165682-93-9", "cn_name": "O4I2", "en_name": ["Ethyl 2-[(4-chlorophenyl)amino]-4-thiazolecarboxylate", "4-Thiazolecarboxylic acid, 2-[(4-chlorophenyl)amino]-, ethyl ester", "Ethyl 2-[(4-chlorophenyl)amino]-4-thiazolecarboxylate"], "SMILES": "N(C1=NC(C(OCC)=O)=CS1)C2=CC=C(Cl)C=C2", "physical_data": {"Molecular Weight": "282.75", "Molecular Formula": "C12H11ClN2O2S", "Melting Point": "172-174 \u00b0C"}}