{"cas_no": "16577-52-9", "cn_name": "\u8f9b\u9178\u9502", "en_name": ["Lithium octanoate", "Octanoic acid, lithium salt (1:1)", "Octanoic acid, lithium salt", "Caprylic acid, lithium salt", "Lithium octanoate", "Lithium caprylate", "Lithium octaoate", "Lithium octoate", "Liocat 15"], "SMILES": "C(CCCCC)CC(O)=O.[Li]", "physical_data": {"Molecular Weight": "", "Molecular Formula": "C8H16O2.Li", "Melting Point": "250-260 \u00b0C"}}