{"cas_no": "16582-60-8", "cn_name": "2-\u6c28\u57fa-4,6-\u4e8c\u6eb4\u82ef\u5e76\u567b\u5511", "en_name": ["4,6-Dibromo-2-benzothiazolamine", "2-Benzothiazolamine, 4,6-dibromo-", "Benzothiazole, 2-amino-4,6-dibromo-", "4,6-Dibromo-2-benzothiazolamine", "2-Amino-4,6-dibromobenzothiazole"], "SMILES": "BrC1=C2C(SC(N)=N2)=CC(Br)=C1", "physical_data": {"Molecular Weight": "307.99", "Molecular Formula": "C7H4Br2N2S", "Melting Point": "264 \u00b0C"}}