{"cas_no": "16588-02-6", "cn_name": "2-\u6c2f-5-\u785d\u57fa\u82ef\u7532\u8148", "en_name": ["2-Chloro-5-nitrobenzonitrile", "Benzonitrile, 2-chloro-5-nitro-", "2-Chloro-5-nitrobenzonitrile", "6-Chloro-3-nitrobenzonitrile", "2-Chloro-5-nitrobenzenenitrile", "1-Chloro-2-cyano-4-nitrobenzene", "NSC 28973"], "SMILES": "C(#N)C1=CC(N(=O)=O)=CC=C1Cl", "physical_data": {"Molecular Weight": "182.56", "Molecular Formula": "C7H3ClN2O2", "Melting Point": "108-109 \u00b0C"}}