{"cas_no": "16589-24-5", "cn_name": "\u9152\u77f3\u9178\u8f9b\u5f17\u6797", "en_name": ["Synephrine tartrate", "Benzenemethanol, 4-hydroxy-\u03b1-[(methylamino)methyl]-, (2R,3R)-2,3-dihydroxybutanedioate (2:1)", "Benzyl alcohol, p-hydroxy-\u03b1-[(methylamino)methyl]-, tartrate (2:1) (salt)", "Benzenemethanol, 4-hydroxy-\u03b1-[(methylamino)methyl]-, [R-(R*,R*)]-2,3-dihydroxybutanedioate (2:1) (salt)", "Benzenemethanol, 4-hydroxy-\u03b1-[(methylamino)methyl]-, (2R,3R)-2,3-dihydroxybutanedioate (2:1) (salt)", "Oxedrine tartrate", "Sympathomim", "Synephrine tartrate", "Corvasymton", "(\u00b1)-Synephrine tartrate", "dl-Synephrine", "(\u00b1)-Oxedrine tartrate", "DL-p-Synephrine", "Simpadren"], "SMILES": "C(C(C(O)=O)O)(C(O)=O)O.C(CNC)(O)C1=CC=C(O)C=C1", "physical_data": {"Molecular Weight": "", "Molecular Formula": "C9H13NO2.<sup>1</sup>/2C4H6O6", "Melting Point": "188-190 \u00b0C (decomp)"}}