{"cas_no": "16588-24-2", "cn_name": "5-\u6eb4-2-\u6c2f\u785d\u57fa\u82ef", "en_name": ["4-Bromo-1-chloro-2-nitrobenzene", "Benzene, 4-bromo-1-chloro-2-nitro-", "4-Bromo-1-chloro-2-nitrobenzene", "1-Bromo-4-chloro-3-nitrobenzene", "1-Chloro-4-bromo-2-nitrobenzene", "4-Chloro-3-nitrobromobenzene", "3-Bromo-6-chloronitrobenzene", "5-Bromo-2-chloronitrobenzene", "2-Chloro-5-bromonitrobenzene"], "SMILES": "N(=O)(=O)C1=C(Cl)C=CC(Br)=C1", "physical_data": {"Molecular Weight": "236.45", "Molecular Formula": "C6H3BrClNO2", "Melting Point": "70.8 \u00b0C", "Density": "2.035 g/cm\u00b3 @ Temp: 16 \u00b0C"}}