{"cas_no": "16588-75-3", "cn_name": "2-\u7532\u6c27\u57fa-5-(\u4e09\u6c1f\u7532\u57fa)\u82ef\u57fa\u5f02\u6c30\u9178\u916f", "en_name": ["Benzene, 2-isocyanato-1-methoxy-4-(trifluoromethyl)-", "Benzene, 2-isocyanato-1-methoxy-4-(trifluoromethyl)-", "Isocyanic acid, \u03b1,\u03b1,\u03b1-trifluoro-6-methoxy-m-tolyl ester", "2-Methoxy-5-(trifluoromethyl)phenyl isocyanate", "2-Isocyanato-1-methoxy-4-trifluoromethylbenzene"], "SMILES": "N(=C=O)C1=C(OC)C=CC(C(F)(F)F)=C1", "physical_data": {"Molecular Weight": "217.14", "Molecular Formula": "C9H6F3NO2", "Boiling Point": "100-103 \u00b0C @ Press: 10 Torr"}}