{"cas_no": "16583-08-7", "cn_name": "2,3,4,5-\u56db\u6c1f\u82ef\u7532\u9178", "en_name": ["2,3,4,5-Tetrafluoro-6-nitrobenzoic acid", "Benzoic acid, 2,3,4,5-tetrafluoro-6-nitro-", "2,3,4,5-Tetrafluoro-6-nitrobenzoic acid", "2-Nitro-3,4,5,6-tetrafluorobenzoic acid"], "SMILES": "C(O)(=O)C1=C(N(=O)=O)C(F)=C(F)C(F)=C1F", "physical_data": {"Molecular Weight": "239.08", "Molecular Formula": "C7HF4NO4", "Melting Point": "135-136 \u00b0C"}}