{"cas_no": "16588-06-0", "cn_name": "4-\u6c2f-3-\u785d\u57fa\u82ef\u7532\u9170\u80fa", "en_name": ["4-Chloro-3-nitrobenzamide", "Benzamide, 4-chloro-3-nitro-", "4-Chloro-3-nitrobenzamide", "3-Nitro-4-chlorobenzamide", "NSC 127825"], "SMILES": "N(=O)(=O)C1=CC(C(N)=O)=CC=C1Cl", "physical_data": {"Molecular Weight": "200.58", "Molecular Formula": "C7H5ClN2O3", "Melting Point": "156 \u00b0C"}}