{"cas_no": "1658-08-8", "cn_name": "1,2,3,4,5,6,7,8-\u516b\u6c22\u5416\u5576", "en_name": ["1,2,3,4,5,6,7,8-Octahydroacridine", "Acridine, 1,2,3,4,5,6,7,8-octahydro-", "1,2,3,4,5,6,7,8-Octahydroacridine", "Octahydroacridine"], "SMILES": "C=12C(=NC3=C(C1)CCCC3)CCCC2", "physical_data": {"Molecular Weight": "187.28", "Molecular Formula": "C13H17N", "Boiling Point": "191-192 \u00b0C @ Press: 22 Torr", "Melting Point": "69 \u00b0C"}}