{"cas_no": "165800-04-4", "cn_name": "N-[[(5S)-3-[3-\u6c1f-4-[4-(2-\u7f9f\u57fa\u4e59\u9170\u57fa)-1-\u54cc\u55ea\u57fa]\u82ef\u57fa]-2-\u6c27\u4ee3-5-\u5641\u5511\u70f7\u57fa]\u7532\u57fa]-\u4e59\u9170\u80fa", "en_name": ["Eperezolid", "Acetamide, N-[[(5S)-3-[3-fluoro-4-[4-(2-hydroxyacetyl)-1-piperazinyl]phenyl]-2-oxo-5-oxazolidinyl]methyl]-", "Acetamide, N-[[3-[3-fluoro-4-[4-(hydroxyacetyl)-1-piperazinyl]phenyl]-2-oxo-5-oxazolidinyl]methyl]-, (S)-", "Acetamide, N-[[(5S)-3-[3-fluoro-4-[4-(hydroxyacetyl)-1-piperazinyl]phenyl]-2-oxo-5-oxazolidinyl]methyl]-", "N-[[(5S)-3-[3-Fluoro-4-[4-(2-hydroxyacetyl)-1-piperazinyl]phenyl]-2-oxo-5-oxazolidinyl]methyl]acetamide", "U 100592", "Eperezolid", "PNU 100592"], "SMILES": "O=C1N(C2=CC(F)=C(C=C2)N3CCN(C(CO)=O)CC3)CC(CNC(C)=O)O1", "physical_data": {"Molecular Weight": "394.40", "Molecular Formula": "C18H23FN4O5", "Melting Point": "174-176 \u00b0C"}}