{"cas_no": "165800-03-3", "cn_name": "\u5229\u5948\u5511\u80fa", "en_name": ["Linezolid", "Acetamide, N-[[(5S)-3-[3-fluoro-4-(4-morpholinyl)phenyl]-2-oxo-5-oxazolidinyl]methyl]-", "Acetamide, N-[[3-[3-fluoro-4-(4-morpholinyl)phenyl]-2-oxo-5-oxazolidinyl]methyl]-, (S)-", "N-[[(5S)-3-[3-Fluoro-4-(4-morpholinyl)phenyl]-2-oxo-5-oxazolidinyl]methyl]acetamide", "U 100766", "Linezolid", "PNU 100766", "Zyvox", "Zyvoxid", "N-[[(5S)-3-[3-Fluoro-4-(4-morpholinyl)phenyl]-2-oxo-5-oxazolidinyl]methyl]acetamide", "Linox", "Linospan", "(S)-Linezolid", "Lizolid", "Lizoforce", "Averozolid", "Zyrox"], "SMILES": "O=C1N(CC(CNC(C)=O)O1)C2=CC(F)=C(C=C2)N3CCOCC3", "physical_data": {"Molecular Weight": "337.35", "Molecular Formula": "C16H20FN3O4", "Melting Point": "181.5-182.5 \u00b0C"}}