{"cas_no": "16588-26-4", "cn_name": "3-\u6eb4-4-\u6c2f\u785d\u57fa\u82ef", "en_name": ["2-Bromo-1-chloro-4-nitrobenzene", "Benzene, 2-bromo-1-chloro-4-nitro-", "2-Bromo-1-chloro-4-nitrobenzene", "3-Bromo-4-chloro-1-nitrobenzene", "1-Chloro-2-bromo-4-nitrobenzene", "3-Bromo-4-chloronitrobenzene", "2-Bromo-4-nitrochlorobenzene", "1-Bromo-2-chloro-5-nitrobenzene"], "SMILES": "N(=O)(=O)C1=CC(Br)=C(Cl)C=C1", "physical_data": {"Molecular Weight": "236.45", "Molecular Formula": "C6H3BrClNO2", "Boiling Point": "100 \u00b0C @ Press: 0.1 Torr", "Melting Point": "61 \u00b0C"}}