{"cas_no": "16588-16-2", "cn_name": "4-\u6c2f-3-\u785d\u57fa\u82ef\u7532\u9178\u4e59\u916f", "en_name": ["Benzoic acid, 4-chloro-3-nitro-, ethyl ester", "Benzoic acid, 4-chloro-3-nitro-, ethyl ester", "Ethyl 4-chloro-3-nitrobenzoate", "4-Chloro-3-nitrobenzoic acid ethyl ester"], "SMILES": "N(=O)(=O)C1=CC(C(OCC)=O)=CC=C1Cl", "physical_data": {"Molecular Weight": "229.62", "Molecular Formula": "C9H8ClNO4", "Melting Point": "60-61 \u00b0C"}}