{"cas_no": "16582-59-5", "cn_name": "2-\u6c28\u57fa-4,6-\u4e8c\u6c2f\u82ef\u5e76\u567b\u5511", "en_name": ["4,6-Dichloro-2-benzothiazolamine", "2-Benzothiazolamine, 4,6-dichloro-", "Benzothiazole, 2-amino-4,6-dichloro-", "4,6-Dichloro-2-benzothiazolamine", "2-Amino-4,6-dichlorobenzothiazole", "4,6-Dichloro-1,3-benzothiazol-2-ylamine", "NSC 14671"], "SMILES": "ClC1=C2C(SC(N)=N2)=CC(Cl)=C1", "physical_data": {"Molecular Weight": "219.09", "Molecular Formula": "C7H4Cl2N2S", "Melting Point": "253-255 \u00b0C"}}