{"cas_no": "16587-71-6", "cn_name": "4-(1,1-\u4e8c\u7532\u57fa\u4e19\u57fa)\u73af\u5df1\u916e", "en_name": ["4-tert-Amylcyclohexanone", "Cyclohexanone, 4-(1,1-dimethylpropyl)-", "Cyclohexanone, 4-tert-pentyl-", "4-(1,1-Dimethylpropyl)cyclohexanone", "4-tert-Amylcyclohexanone", "4-tert-Pentylcyclohexanone", "Orivone", "NSC 21167", "4-(tert-Pentyl)cyclohexan-1-one"], "SMILES": "C(CC)(C)(C)C1CCC(=O)CC1", "physical_data": {"Molecular Weight": "168.28", "Molecular Formula": "C11H20O", "Boiling Point": "110-113 \u00b0C @ Press: 12 Torr", "Melting Point": "96 \u00b0C", "Density": "0.9245 g/cm\u00b3 @ Temp: 20 \u00b0C"}}