{"cas_no": "16588-34-4", "cn_name": "4-\u6c2f-3-\u785d\u57fa\u82ef\u7532\u919b", "en_name": ["4-Chloro-3-nitrobenzaldehyde", "Benzaldehyde, 4-chloro-3-nitro-", "4-Chloro-3-nitrobenzaldehyde", "3-Nitro-4-chlorobenzaldehyde", "2-Chloro-5-formylnitrobenzene", "NSC 68097"], "SMILES": "N(=O)(=O)C1=CC(C=O)=CC=C1Cl", "physical_data": {"Molecular Weight": "185.56", "Molecular Formula": "C7H4ClNO3", "Melting Point": "65 \u00b0C"}}