{"cas_no": "1658-42-0", "cn_name": "2-\u5421\u5576\u4e59\u9178\u7532\u916f", "en_name": ["2-Pyridineacetic acid, methyl ester", "2-Pyridineacetic acid, methyl ester", "Methyl 2-pyridineacetate", "Methyl 2-(2-pyridyl)acetate", "Methyl 2-pyridylacetate", "Methyl 2-pyridinylacetate", "NSC 72093", "2-[(Methoxycarbonyl)methyl]pyridine", "2-Pyridylacetic acid methyl ester", "Pyridin-2-ylacetic acid methyl ester", "Methyl 2-(pyridin-2-yl)acetate"], "SMILES": "C(C(OC)=O)C1=CC=CC=N1", "physical_data": {"Molecular Weight": "151.16", "Molecular Formula": "C8H9NO2", "Boiling Point": "120 \u00b0C @ Press: 10 Torr"}}