{"cas_no": "16588-74-2", "cn_name": "3,5-\u53cc(\u4e09\u6c1f\u7532\u57fa)\u82ef\u57fa\u5f02\u6c30\u9178\u916f", "en_name": ["3,5-Bis(trifluoromethyl)phenyl isocyanate", "Benzene, 1-isocyanato-3,5-bis(trifluoromethyl)-", "Isocyanic acid, \u03b1,\u03b1,\u03b1,\u03b1\u2032,\u03b1\u2032,\u03b1\u2032-hexafluoro-3,5-xylyl ester", "1-Isocyanato-3,5-bis(trifluoromethyl)benzene", "3,5-Bis(trifluoromethyl)phenyl isocyanate", "3,5-Di(trifluoromethyl)phenyl isocyanate"], "SMILES": "C(F)(F)(F)C1=CC(C(F)(F)F)=CC(N=C=O)=C1", "physical_data": {"Molecular Weight": "255.12", "Molecular Formula": "C9H3F6NO", "Boiling Point": "63 \u00b0C @ Press: 14 Torr"}}