{"cas_no": "16597-50-5", "cn_name": "Cbz-L-\u82cf\u6c28\u9178\u82c4\u916f", "en_name": ["N-[(Phenylmethoxy)carbonyl]-L-threonine phenylmethyl ester", "L-Threonine, N-[(phenylmethoxy)carbonyl]-, phenylmethyl ester", "Threonine, N-carboxy-, dibenzyl ester, L-", "Threonine, N-carboxy-, dibenzyl ester", "N-[(Phenylmethoxy)carbonyl]-L-threonine phenylmethyl ester", "N-(Benzyloxycarbonyl)threonine benzyl ester", "N-(Benzyloxycarbonyl)-L-threonine benzyl ester", "(2S,3R)-2-[(Benzyloxycarbonyl)amino]-3-hydroxybutanoic acid benzyl ester"], "SMILES": "C(C(OCC1=CC=CC=C1)=O)(NC(OCC2=CC=CC=C2)=O)C(C)O", "physical_data": {"Molecular Weight": "343.37", "Molecular Formula": "C19H21NO5", "Melting Point": "63-64 \u00b0C"}}