{"cas_no": "16595-80-5", "cn_name": "\u76d0\u9178\u5de6\u65cb\u54aa\u5511", "en_name": ["Levamisole hydrochloride", "Imidazo[2,1-b]thiazole, 2,3,5,6-tetrahydro-6-phenyl-, hydrochloride (1:1), (6S)-", "Imidazo[2,1-b]thiazole, 2,3,5,6-tetrahydro-6-phenyl-, monohydrochloride, (S)-", "Imidazo[2,1-b]thiazole, 2,3,5,6-tetrahydro-6-phenyl-, monohydrochloride, (-)-", "Imidazo[2,1-b]thiazole, 2,3,5,6-tetrahydro-6-phenyl-, monohydrochloride, (6S)-", "l-Tetramisole hydrochloride", "Decaris", "Levamisole hydrochloride", "Tramisol", "Tramisole", "Levomysol hydrochloride", "Ripercol L", "Citarin L", "KW 2LE-T", "(-)-Levamisole hydrochloride", "L-Narpenol", "Dekaris", "Nilverm forte", "Meglum", "Solaskil", "Ergamisole", "Levadin", "R 12654", "Levasole", "Spartakon L", "Levacide", "Nemicide", "Ascaridil", "Ergamisol", "NSC 177023", "Century-Ace", "(-)-Tetramisole hydrochloride", "Niratil", "(7S)-7-Phenyl-4-thia-1,6-diazabicyclo[3.3.0]oct-5-ene hydrochloride", "(6S)-6-Phenyl-2H,3H,5H,6H-imidazo[2,1-b][1,3]thiazole hydrochloride"], "SMILES": "C1(CN2C(=N1)SCC2)C3=CC=CC=C3.Cl", "physical_data": {"Molecular Weight": "", "Molecular Formula": "C11H12N2S.ClH", "Melting Point": "227-229 \u00b0C"}}