{"cas_no": "16590-41-3", "cn_name": "\u7eb3\u66f2\u916e", "en_name": ["Naltrexone", "Morphinan-6-one, 17-(cyclopropylmethyl)-4,5-epoxy-3,14-dihydroxy-, (5\u03b1)-", "Morphinan-6-one, 17-(cyclopropylmethyl)-4,5\u03b1-epoxy-3,14-dihydroxy-", "(5\u03b1)-17-(Cyclopropylmethyl)-4,5-epoxy-3,14-dihydroxymorphinan-6-one", "1-N-Cyclopropylmethyl-7,8-dihydro-14-hydroxynormorphinone", "N-Cyclopropylmethylnoroxymorphone", "Naltrexone", "EN 1639", "Depotrex", "Nemexin", "UM 792", "Naltrel", "Trexonil", "Vivitrex", "Vivitrol", "(-)-Naltrexone", "MeSH ID: D009271"], "SMILES": "OC12C34C=5C(OC3C(=O)CC1)=C(O)C=CC5CC2N(CC6CC6)CC4", "physical_data": {"Molecular Weight": "341.40", "Molecular Formula": "C20H23NO4", "Melting Point": "168-170 \u00b0C"}}