{"cas_no": "16596-41-1", "cn_name": "\u70f7\u57fa\u80bc", "en_name": ["1-Aminopyrrolidine", "1-Pyrrolidinamine", "Pyrrolidine, 1-amino-", "N-Aminopyrrolidine", "1-Aminopyrrolidine", "Pyrrolidylamine", "NSC 80647", "Pyrrolidin-1-ylamine"], "SMILES": "NN1CCCC1", "physical_data": {"Molecular Weight": "86.14", "Molecular Formula": "C4H10N2", "Boiling Point": "53 \u00b0C @ Press: 40 Torr"}}