{"cas_no": "1660-95-3", "cn_name": "\u4e9a\u7532\u57fa\u4e8c\u78f7\u9178\u56db\u5f02\u4e19\u916f", "en_name": ["Tetraisopropyl methylenediphosphonate", "Phosphonic acid, P,P\u2032-methylenebis-, P,P,P\u2032,P\u2032-tetrakis(1-methylethyl) ester", "Phosphonic acid, methylenedi-, tetraisopropyl ester", "Phosphonic acid, methylenebis-, tetrakis(1-methylethyl) ester", "Methylenediphosphonic acid tetraisopropyl ester", "Tetraisopropyl methylenediphosphonate", "Tetraisopropyl methylenebisphosphonate", "NSC 226577", "[(Diisopropoxyphosphinyl)methyl]diisopropoxyphosphine oxide", "Tetrakis(O-isopropyl) methylenediphosphonate", "2-[Di(propan-2-yloxy)phosphorylmethyl-propan-2-yloxyphosphoryl]oxypropane"], "SMILES": "P(CP(OC(C)C)(OC(C)C)=O)(OC(C)C)(OC(C)C)=O", "physical_data": {"Molecular Weight": "344.32", "Molecular Formula": "C13H30O6P2", "Boiling Point": "87-90 \u00b0C @ Press: 3 x 10<sup>-3</sup> Torr", "Density": "1.0531 g/cm\u00b3 @ Temp: 25 \u00b0C"}}