{"cas_no": "16606-61-4", "cn_name": "2,4-\u4e8c\u6c2f\u95f4\u82ef\u4e8c\u915a", "en_name": ["2,4-Dichlororesorcinol", "1,3-Benzenediol, 2,4-dichloro-", "Resorcinol, 2,4-dichloro-", "Resorcinol, 2,6-dichloro-", "2,4-Dichloro-1,3-benzenediol", "2,4-Dichlororesorcinol"], "SMILES": "ClC1=C(O)C(Cl)=CC=C1O", "physical_data": {"Molecular Weight": "179.00", "Molecular Formula": "C6H4Cl2O2", "Melting Point": "84.5 \u00b0C"}}