{"cas_no": "1660-94-2", "cn_name": "\u56db\u4e59\u57fa\u4e9a\u7532\u57fa\u4e8c\u78f7\u9178\u8102", "en_name": ["Tetraethyl methylenediphosphonate", "Phosphonic acid, P,P\u2032-methylenebis-, P,P,P\u2032,P\u2032-tetraethyl ester", "Phosphonic acid, methylenedi-, tetraethyl ester", "Phosphonic acid, methylenebis-, tetraethyl ester", "Methylenebis(diethoxyphosphine oxide)", "Tetraethyl methylenediphosphonate", "Methylenediphosphonic acid tetraethyl ester", "Bis(diethylphosphono)methane", "Tetraethyl methylenebisphosphonate", "Methanediphosphonic acid tetraethyl ester", "Methylenebis(diethyl phosphonate)", "Methylenebis(phosphonic acid) tetraethyl ester", "Tetraethyl methylidenebisphosphonate", "NSC 133889", "1-[Diethoxyphosphorylmethyl(ethoxy)phosphoryl]oxyethane"], "SMILES": "C(P(OCC)(OCC)=O)P(OCC)(OCC)=O", "physical_data": {"Molecular Weight": "288.21", "Molecular Formula": "C9H22O6P2", "Boiling Point": "143 \u00b0C @ Press: 1.5 Torr", "Density": "1.167 g/cm\u00b3 @ Temp: 20 \u00b0C"}}