{"cas_no": "1660-04-4", "cn_name": "1-\u91d1\u521a\u70f7\u7532\u916e", "en_name": ["1-Acetyladamantane", "Ethanone, 1-tricyclo[3.3.1.13,7]dec-1-yl-", "Ketone, 1-adamantyl methyl", "1-Tricyclo[3.3.1.13,7]dec-1-ylethanone", "1-Adamantyl methyl ketone", "Methyl 1-adamantyl ketone", "1-Acetyladamantane", "Adamantyl methyl ketone", "1-(1-Adamantyl)ethanone", "Methyl adamantyl ketone", "1-(Adamantan-1-yl)ethanone", "1-(Adamantan-1-yl)ethan-1-one", "1-(1-Adamantyl)ethan-1-one"], "SMILES": "C(C)(=O)C12CC3CC(C1)CC(C2)C3", "physical_data": {"Molecular Weight": "178.27", "Molecular Formula": "C12H18O", "Melting Point": "54 \u00b0C"}}