{"cas_no": "16606-02-3", "cn_name": "2,4',5-\u4e09\u6c2f\u8054\u82ef\u919a", "en_name": ["PCB 31", "1,1\u2032-Biphenyl, 2,4\u2032,5-trichloro-", "Biphenyl, 2,4\u2032,5-trichloro-", "2,4\u2032,5-Trichloro-1,1\u2032-biphenyl", "2,4\u2032,5-Trichlorobiphenyl", "4,2\u2032,5\u2032-Trichlorobiphenyl", "Delor 103", "PCB 31"], "SMILES": "ClC1=C(C=C(Cl)C=C1)C2=CC=C(Cl)C=C2", "physical_data": {"Molecular Weight": "257.54", "Molecular Formula": "C12H7Cl3", "Melting Point": "67 \u00b0C"}}