{"cas_no": "16600-92-3", "cn_name": "2-\u785d\u57fa\u95f4\u82ef\u4e09\u915a", "en_name": ["Nitrophloroglucinol", "1,3,5-Benzenetriol, 2-nitro-", "Phloroglucinol, nitro-", "2-Nitro-1,3,5-benzenetriol", "Nitrophloroglucinol", "1,3,5-Trihydroxy-2-nitrobenzene", "1-Nitro-2,4,6-trihydroxybenzene", "2-Nitrophloroglucinol"], "SMILES": "N(=O)(=O)C1=C(O)C=C(O)C=C1O", "physical_data": {"Molecular Weight": "171.11", "Molecular Formula": "C6H5NO5", "Melting Point": "191-192 \u00b0C"}}