{"cas_no": "1660-93-1", "cn_name": "3,4,7,8-\u56db\u7532\u57fa-1,10-\u83f2\u7f57\u5549", "en_name": ["3,4,7,8-Tetramethyl-1,10-phenanthroline", "1,10-Phenanthroline, 3,4,7,8-tetramethyl-", "3,4,7,8-Tetramethyl-1,10-phenanthroline", "3,4,7,8-Tetramethyl-o-phenanthroline", "3,4,7,8-Tetramethylphenanthroline", "3,4,7,8-Tetramethyl-1,10-diazaphenanthrene", "TMPhen", "Phenanthrene, 1,2,5,6-tetramethyl-"], "SMILES": "CC=1C=2C(=C3C(C(C)=C(C)C=N3)=CC2)N=CC1C", "physical_data": {"Molecular Weight": "236.31", "Molecular Formula": "C16H16N2", "Melting Point": "278.5 \u00b0C"}}