{"cas_no": "16611-84-0", "cn_name": "\u6f06\u6811\u9178", "en_name": ["6-Pentadecylsalicylic acid", "Benzoic acid, 2-hydroxy-6-pentadecyl-", "Salicylic acid, 6-pentadecyl-", "2-Hydroxy-6-pentadecylbenzoic acid", "1-Hydroxy-2-carboxy-3-pentadecylbenzene", "(15:0)-Anacardic acid", "6-Pentadecylsalicylic acid", "Cyclogallipharic acid", "Hydroginkgolic acid", "22:0-Anacardic acid", "NSC 229596", "NSC 333857", "NSC 623096", "6-Pentadecyl-2-hydroxybenzoic acid", "Hydrogenated anacardic acid", "Ginkgolic acid C15:0"], "SMILES": "C(O)(=O)C1=C(CCCCCCCCCCCCCCC)C=CC=C1O", "physical_data": {"Molecular Weight": "348.52", "Molecular Formula": "C22H36O3", "Melting Point": "89 \u00b0C"}}