{"cas_no": "166196-11-8", "cn_name": "1-[(2,6-\u4e8c\u6c1f\u82ef\u57fa)\u7532\u57fa]-1H-1,2,3-\u4e09\u5511-4-\u7fa7\u9178", "en_name": ["1-[(2,6-Difluorophenyl)methyl]-1H-1,2,3-triazole-4-carboxylic acid", "1H-1,2,3-Triazole-4-carboxylic acid, 1-[(2,6-difluorophenyl)methyl]-", "1-[(2,6-Difluorophenyl)methyl]-1H-1,2,3-triazole-4-carboxylic acid", "CGP 47292", "1-(2,6-Difluorobenzyl)-1H-1,2,3-triazole-4-carboxylic acid"], "SMILES": "C(N1C=C(C(O)=O)N=N1)C2=C(F)C=CC=C2F", "physical_data": {"Molecular Weight": "239.18", "Molecular Formula": "C10H7F2N3O2", "Melting Point": "200-203 \u00b0C"}}