{"cas_no": "16617-46-2", "cn_name": "3-\u6c28\u57fa-4-\u6c30\u57fa\u5421\u5511", "en_name": ["3-Amino-4-cyanopyrazole", "1H-Pyrazole-4-carbonitrile, 3-amino-", "Pyrazole-4-carbonitrile, 3-amino-", "Pyrazole-4-carbonitrile, 3(or 5)-amino-", "3-Amino-1H-pyrazole-4-carbonitrile", "3-Amino-4-cyanopyrazole", "5-Amino-4-cyanopyrazole", "3-Amino-4-pyrazolecarbonitrile", "5-Amino-4-pyrazolecarbonitrile", "3-Aminopyrazol-4-carbonitrile", "NSC 44932", "(4-Cyano-1H-pyrazol-3-yl)amine", "3-Amino-4-cyano-1H-pyrazole", "5-Amino-1H-pyrazole-4-carbonitrile", "5-Amino-4-cyano-1H-pyrazole", "4-Cyano-3-aminopyrazole"], "SMILES": "C(#N)C=1C(N)=NNC1", "physical_data": {"Molecular Weight": "108.10", "Molecular Formula": "C4H4N4", "Melting Point": "174-175 \u00b0C"}}