{"cas_no": "16611-67-9", "cn_name": "2,5-\u4e8c\u6c2f\u4e8c\u82ef\u7532\u916e", "en_name": ["2,5-Dichlorobenzophenone", "Methanone, (2,5-dichlorophenyl)phenyl-", "Benzophenone, 2,5-dichloro-", "(2,5-Dichlorophenyl)phenylmethanone", "2,5-Dichlorobenzophenone", "Benzoyl-2,5-dichlorobenzene"], "SMILES": "C(=O)(C1=C(Cl)C=CC(Cl)=C1)C2=CC=CC=C2", "physical_data": {"Molecular Weight": "251.11", "Molecular Formula": "C13H8Cl2O", "Boiling Point": "240-260 \u00b0C", "Melting Point": "88 \u00b0C"}}