{"cas_no": "16618-72-7", "cn_name": "3-\u82ef\u57fa-1-\u831a\u916e", "en_name": ["(\u00b1)-3-Phenyl-1-indanone", "1H-Inden-1-one, 2,3-dihydro-3-phenyl-", "1-Indanone, 3-phenyl-", "2,3-Dihydro-3-phenyl-1H-inden-1-one", "3-Phenylindan-1-one", "3-Phenylindanone", "NSC 82364", "(\u00b1)-3-Phenyl-1-indanone", "3-Phenyl-2,3-dihydroinden-1-one", "3-Phenyl-2,3-dihydro-1H-inden-1-one"], "SMILES": "O=C1CC(C=2C1=CC=CC2)C3=CC=CC=C3", "physical_data": {"Molecular Weight": "208.26", "Molecular Formula": "C15H12O", "Boiling Point": "180 \u00b0C @ Press: 2 Torr", "Melting Point": "77-78 \u00b0C"}}