{"cas_no": "16618-67-0", "cn_name": "3-\u6eb4-5-\u785d\u57fa\u82ef\u7532\u919a", "en_name": ["1-Bromo-3-methoxy-5-nitrobenzene", "Benzene, 1-bromo-3-methoxy-5-nitro-", "Anisole, 3-bromo-5-nitro-", "1-Bromo-3-methoxy-5-nitrobenzene", "3-Bromo-5-nitroanisole", "3-Methoxy-5-nitrophenyl bromide", "3-Bromo-5-methoxynitrobenzene"], "SMILES": "N(=O)(=O)C1=CC(OC)=CC(Br)=C1", "physical_data": {"Molecular Weight": "232.03", "Molecular Formula": "C7H6BrNO3", "Melting Point": "188 \u00b0C"}}