{"cas_no": "166170-15-6", "cn_name": "1-\u53d4\u4e01\u6c27\u7fb0\u57fa-(R)-2-\u7532\u57fa\u5421\u54af\u70f7-2-\u7fa7\u9178", "en_name": ["(R)-Boc-2-methylproline", "1,2-Pyrrolidinedicarboxylic acid, 2-methyl-, 1-(1,1-dimethylethyl) ester, (2R)-", "1,2-Pyrrolidinedicarboxylic acid, 2-methyl-, 1-(1,1-dimethylethyl) ester, (R)-", "(R)-Boc-2-methylproline", "(R)-1-(tert-Butoxycarbonyl)-2-methylpyrrolidine-2-carboxylic acid", "(R)-N-Boc-2-MethyL proline", "(2R)-1-[(tert-Butoxy)carbonyl]-2-methylpyrrolidine-2-carboxylic acid"], "SMILES": "C(OC(C)(C)C)(=O)N1C(C(O)=O)(C)CCC1", "physical_data": {"Molecular Weight": "229.27", "Molecular Formula": "C11H19NO4", "Melting Point": "127-129 \u00b0C"}}