{"cas_no": "16624-64-9", "cn_name": "Z-L-\u8272\u6c28\u9178 4-\u785d\u57fa\u82ef\u916f", "en_name": ["N-[(Phenylmethoxy)carbonyl]-L-tryptophan 4-nitrophenyl ester", "L-Tryptophan, N-[(phenylmethoxy)carbonyl]-, 4-nitrophenyl ester", "Tryptophan, N-carboxy-, N-benzyl p-nitrophenyl ester, L-", "N-[(Phenylmethoxy)carbonyl]-L-tryptophan 4-nitrophenyl ester", "4-Nitrophenyl N-(benzyloxycarbonyl)-L-tryptophanate", "N-(Benzyloxycarbonyl)-L-tryptophan p-nitrophenyl ester", "N-\u03b1-Carbobenzoxy-L-tryptophan p-nitrophenyl ester", "(4-Nitrophenyl) (2S)-3-(1H-indol-3-yl)-2-(phenylmethoxycarbonylamino)propanoate"], "SMILES": "C(C(C(OC1=CC=C(N(=O)=O)C=C1)=O)NC(OCC2=CC=CC=C2)=O)C=3C=4C(NC3)=CC=CC4", "physical_data": {"Molecular Weight": "459.45", "Molecular Formula": "C25H21N3O6", "Melting Point": "105 \u00b0C"}}