{"cas_no": "1662-06-2", "cn_name": "4-\u5b55\u70f7-17\u0391,20\u0392-\u4e8c\u9187-3-\u916e", "en_name": ["17\u03b1,20\u03b2-Dihydroxy-4-pregnen-3-one", "Pregn-4-en-3-one, 17,20-dihydroxy-, (20R)-", "Pregn-4-en-3-one, 17,20\u03b2-dihydroxy-", "(20R)-17,20-Dihydroxypregn-4-en-3-one", "17\u03b1,20\u03b2-Dihydroxy-4-pregnen-3-one", "17\u03b1-Hydroxy-20\u03b2-dihydroprogesterone", "17\u03b1,20\u03b2-Dihydroxyprogesterone", "17,20\u03b2-Dihydroxypregn-4-en-3-one", "17,20\u03b2-Dihydroxyprogesterone", "Maturation-inducing hormone", "17,20\u03b2-DHP", "MIH"], "SMILES": "CC12C(C3C(C4(C)C(CC3)=CC(=O)CC4)CC1)CCC2(C(C)O)O", "physical_data": {"Molecular Weight": "332.48", "Molecular Formula": "C21H32O3", "Melting Point": "204-205.5 \u00b0C"}}