{"cas_no": "1662-01-7", "cn_name": "4,7-\u4e8c\u82ef\u57fa-1,10-\u83f2\u7f57\u5549", "en_name": ["4,7-Diphenyl-1,10-phenanthroline", "1,10-Phenanthroline, 4,7-diphenyl-", "4,7-Diphenyl-1,10-phenanthroline", "Bathophenanthroline", "4,7-Diphenyl-1,10-diazaphenanthrene", "1,10-Bathophenanthroline", "4,7-Diphenyl-o-phenanthroline", "NSC 637659", "BPhen", "DPA", "4\u2032,7-Diphenyl-1,10-phenanthroline", "1,10-Phenanthroline, 3,6-diphenyl-"], "SMILES": "C12=C3C(C(=CC=N3)C4=CC=CC=C4)=CC=C1C(=CC=N2)C5=CC=CC=C5", "physical_data": {"Molecular Weight": "332.40", "Molecular Formula": "C24H16N2", "Melting Point": "215-216 \u00b0C"}}