{"cas_no": "16629-19-9", "cn_name": "2-\u567b\u5429\u78fa\u9170\u6c2f", "en_name": ["2-Thiophenesulfonyl chloride", "2-Thiophenesulfonyl chloride", "2-Thienylsulfonyl chloride", "2-(Chlorosulfonyl)thiophene"], "SMILES": "S(Cl)(=O)(=O)C1=CC=CS1", "physical_data": {"Molecular Weight": "182.65", "Molecular Formula": "C4H3ClO2S2", "Boiling Point": "123-125 \u00b0C", "Melting Point": "28 \u00b0C"}}