{"cas_no": "16620-52-3", "cn_name": "5-\u7532\u6c27\u57fa\u82a6\u7af9\u78b1", "en_name": ["5-Methoxy-N,N-dimethyl-1H-indole-3-methanamine", "1H-Indole-3-methanamine, 5-methoxy-N,N-dimethyl-", "Indole, 3-[(dimethylamino)methyl]-5-methoxy-", "5-Methoxy-N,N-dimethyl-1H-indole-3-methanamine", "5-Methoxygramine", "NSC 88885", "3-Dimethylaminomethyl-5-methoxyindole", "5-Methoxy-3-(dimethylaminomethyl)indole", "[(5-Methoxy-1H-indol-3-yl)methyl]dimethylamine", "1-(5-Methoxy-1H-indol-3-yl)-N,N-dimethylmethanamine"], "SMILES": "C(N(C)C)C=1C=2C(NC1)=CC=C(OC)C2", "physical_data": {"Molecular Weight": "204.27", "Molecular Formula": "C12H16N2O", "Melting Point": "127.5-128.0 \u00b0C"}}