{"cas_no": "1663-61-2", "cn_name": "\u539f\u82ef\u7532\u9178\u4e09\u4e59\u916f", "en_name": ["Triethyl orthobenzoate", "Benzene, (triethoxymethyl)-", "Orthobenzoic acid, triethyl ester", "(Triethoxymethyl)benzene", "Triethyl orthobenzoate", "Ethyl orthobenzoate", "Triethoxyphenylmethane"], "SMILES": "C(OCC)(OCC)(OCC)C1=CC=CC=C1", "physical_data": {"Molecular Weight": "224.30", "Molecular Formula": "C13H20O3", "Boiling Point": "240 \u00b0C", "Density": "1.0325 g/cm\u00b3 @ Temp: 25 \u00b0C"}}