{"cas_no": "1663-45-2", "cn_name": "1,2-\u53cc(\u4e8c\u82ef\u57fa\u81a6)\u4e59\u70f7", "en_name": ["1,2-Bis(diphenylphosphino)ethane", "Phosphine, 1,1\u2032-(1,2-ethanediyl)bis[1,1-diphenyl-", "Phosphine, ethylenebis[diphenyl-", "Phosphine, 1,2-ethanediylbis[diphenyl-", "1,1\u2032-(1,2-Ethanediyl)bis[1,1-diphenylphosphine]", "1,2-Bis(diphenylphosphino)ethane", "Ethylenebis(diphenylphosphine)", "P,P\u2032-Ethylenebis(diphenylphosphine)", "Bis(diphenylphosphino)ethane", "Diphos", "1,2-Ethanediylbis(diphenylphosphine)", "Ethanediylbis(diphenylphosphine)", "DPPE", "1,2-Ethylenebis(diphenylphosphine)", "DPPE (ligand)", "NSC 76285", "DPE", "1,2-Bis(diphenylphosphanyl)ethane", "[2-(Diphenylphosphanyl)ethyl]diphenylphosphane", "B 1137", "2-Diphenylphosphanylethyl(diphenyl)phosphane"], "SMILES": "P(CCP(C1=CC=CC=C1)C2=CC=CC=C2)(C3=CC=CC=C3)C4=CC=CC=C4", "physical_data": {"Molecular Weight": "398.42", "Molecular Formula": "C26H24P2", "Melting Point": "142-143 \u00b0C"}}