{"cas_no": "16635-95-3", "cn_name": "1,2-\u4e8c\u82ef\u57fa\u4e59\u4e8c\u80fa", "en_name": ["rel-(1R,2R)-1,2-Diphenyl-1,2-ethanediamine", "1,2-Ethanediamine, 1,2-diphenyl-, (1R,2R)-rel-", "Ethylenediamine, 1,2-diphenyl-, (\u00b1)-", "1,2-Ethanediamine, 1,2-diphenyl-, (R*,R*)-(\u00b1)-", "rel-(1R,2R)-1,2-Diphenyl-1,2-ethanediamine", "(R*,R*)-(\u00b1)-1,2-Diphenylethylenediamine", "dl-Stilbenediamine", "(\u00b1)-Stilbenediamine", "(\u00b1)-1,2-Diphenyl-1,2-ethanediamine", "NSC 167211", "DL-1,2-Diphenyl-1,2-ethanediamine", "rac-1,2-Diphenylethylenediamine", "rac-1,2-Diphenylethane-1,2-diamine"], "SMILES": "C(C(N)C1=CC=CC=C1)(N)C2=CC=CC=C2", "physical_data": {"Molecular Weight": "212.29", "Molecular Formula": "C14H16N2", "Melting Point": "91-93 \u00b0C"}}