{"cas_no": "16630-55-0", "cn_name": "3-\u7532\u786b\u57fa\u4e19\u9187\u4e59\u9178\u916f", "en_name": ["3-(Methylthio)propyl acetate", "1-Propanol, 3-(methylthio)-, 1-acetate", "1-Propanol, 3-(methylthio)-, acetate", "3-(Methylthio)propyl acetate", "Acetic acid 3-(methylthio)propyl ester", "3-Acetoxypropyl methyl sulfide", "Methionyl acetate"], "SMILES": "C(OC(C)=O)CCSC", "physical_data": {"Molecular Weight": "148.22", "Molecular Formula": "C6H12O2S", "Boiling Point": "96 \u00b0C @ Press: 14 Torr", "Density": "1.041 g/cm\u00b3 @ Temp: 20 \u00b0C"}}