{"cas_no": "16630-52-7", "cn_name": "3-\u7532\u786b\u57fa\u4e01\u919b", "en_name": ["3-(Methylthio)butanal", "Butanal, 3-(methylthio)-", "Butyraldehyde, 3-(methylthio)-", "3-(Methylthio)butanal", "\u03b2-(Methylthio)butyraldehyde", "3-(Methylthio)butyraldehyde", "3-Methylsulfanylbutyraldehyde", "3-Methylsulfanylbutanal"], "SMILES": "C(CC=O)(SC)C", "physical_data": {"Molecular Weight": "118.20", "Molecular Formula": "C5H10OS", "Boiling Point": "40 \u00b0C @ Press: 2.5 Torr", "Density": "0.997 g/cm\u00b3 @ Temp: 20 \u00b0C"}}