{"cas_no": "1663-39-4", "cn_name": "\u4e19\u70ef\u9178\u53d4\u4e01\u916f", "en_name": ["tert-Butyl acrylate", "2-Propenoic acid, 1,1-dimethylethyl ester", "Acrylic acid, tert-butyl ester", "tert-Butyl 2-propenoate", "2-Propenoic acid tert-butyl ester", "tert-Butyl propenoate", "1,1-Dimethylethyl 2-propenoate", "tert-Butyl acrylate", "NSC 20950", "t-Butyl acrylate", "Light Acrylate TB", "Light Acrylate TBA"], "SMILES": "O(C(C)(C)C)C(C=C)=O", "physical_data": {"Molecular Weight": "128.17", "Molecular Formula": "C7H12O2", "Boiling Point": "120 \u00b0C", "Density": "0.879 g/cm\u00b3 @ Temp: 25 \u00b0C"}}