{"cas_no": "16634-90-5", "cn_name": "5-\u6c2f-3-\u785d\u57fa\u6c34\u6768\u919b", "en_name": ["5-Chloro-2-hydroxy-3-nitrobenzaldehyde", "Benzaldehyde, 5-chloro-2-hydroxy-3-nitro-", "Salicylaldehyde, 5-chloro-3-nitro-", "5-Chloro-2-hydroxy-3-nitrobenzaldehyde", "5-Chloro-3-nitrosalicylaldehyde", "3-Nitro-5-chlorosalicylaldehyde"], "SMILES": "N(=O)(=O)C1=C(O)C(C=O)=CC(Cl)=C1", "physical_data": {"Molecular Weight": "201.56", "Molecular Formula": "C7H4ClNO4", "Melting Point": "108-109 \u00b0C"}}