{"cas_no": "166330-10-5", "cn_name": "\u53cc(2-\u4e8c\u82ef\u57fa\u78f7\u82ef\u57fa)\u919a", "en_name": ["Bis[2-(diphenylphosphino)phenyl] ether", "Phosphine, 1,1\u2032-[(oxydi-2,1-phenylene)]bis[1,1-diphenyl-", "Phosphine, (oxydi-2,1-phenylene)bis[diphenyl-", "1,1\u2032-[(Oxydi-2,1-phenylene)]bis[1,1-diphenylphosphine]", "DPE-phos", "(Oxydi-2,1-phenylene)bis[diphenylphosphine]", "Bis[2-(diphenylphosphino)phenyl] ether", "1,1\u2032-Oxybis[2,1-phenylenebis(diphenylphosphine)]", "Bis[2-(diphenylphosphanyl)phenyl] ether", "2,2\u2032-Bis(diphenylphosphino)diphenyl ether", "Bis[2-(diphenylphosphine)phenyl] ether", "[2-[2-(Diphenylphosphanyl)phenoxy]phenyl]diphenylphosphane", "[2-(2-Diphenylphosphanylphenoxy)phenyl]-diphenylphosphane"], "SMILES": "P(C1=C(OC2=C(P(C3=CC=CC=C3)C4=CC=CC=C4)C=CC=C2)C=CC=C1)(C5=CC=CC=C5)C6=CC=CC=C6", "physical_data": {"Molecular Weight": "538.55", "Molecular Formula": "C36H28OP2", "Melting Point": "175 \u00b0C"}}