{"cas_no": "16632-21-6", "cn_name": "2,4-\u4e8c\u7f9f\u57fa-6-\u7532\u57fa-5-\u785d\u57fa\u5627\u5576", "en_name": ["6-Methyl-5-nitro-2,4(1H,3H)-pyrimidinedione", "2,4(1H,3H)-Pyrimidinedione, 6-methyl-5-nitro-", "Uracil, 6-methyl-5-nitro-", "6-Methyl-5-nitro-2,4(1H,3H)-pyrimidinedione", "5-Nitro-6-methyluracil", "6-Methyl-5-nitrouracil", "2,4-Dihydroxy-6-methyl-5-nitropyrimidine", "NSC 40201", "2,4-Dihydroxy-5-nitro-6-methylpyrimidine"], "SMILES": "N(=O)(=O)C1=C(C)NC(=O)NC1=O", "physical_data": {"Molecular Weight": "171.11", "Molecular Formula": "C5H5N3O4", "Melting Point": "290 \u00b0C (decomp)"}}