{"cas_no": "1663-35-0", "cn_name": "\u4e59\u4e8c\u9187\u7532\u57fa\u4e59\u70ef\u57fa\u919a", "en_name": ["(2-Methoxyethoxy)ethene", "Ethene, (2-methoxyethoxy)-", "Ethane, 1-methoxy-2-(vinyloxy)-", "(2-Methoxyethoxy)ethene", "Vinyl 2-methoxyethyl ether", "2-Methoxyethyl ethenyl ether", "1-Methoxy-2-(vinyloxy)ethane", "2-Methoxyethyl vinyl ether", "NSC 2143", "1-Ethenoxy-2-methoxyethane", "1-(Ethenyloxy)-2-methoxyethane"], "SMILES": "C(COC)OC=C", "physical_data": {"Molecular Weight": "102.13", "Molecular Formula": "C5H10O2", "Boiling Point": "108.8 \u00b0C @ Press: 760 Torr", "Melting Point": "-83 \u00b0C", "Density": "0.897 g/cm\u00b3 @ Temp: 20 \u00b0C"}}