{"cas_no": "16634-82-5", "cn_name": "2-\u6c2f-N-(4-\u7532\u57fa\u82ef\u57fa)\u4e59\u9170\u80fa", "en_name": ["2-Chloro-N-(4-methylphenyl)acetamide", "Acetamide, 2-chloro-N-(4-methylphenyl)-", "p-Acetotoluidide, 2-chloro-", "2-Chloro-N-(4-methylphenyl)acetamide", "2-Chloro-4\u2032-methylacetanilide", "N-(Chloroacetyl)-p-toluidine", "2-Chloroaceto-p-toluidide", "4\u2032-Methyl-\u03b1-chloroacetanilide", "2-Chloro-N-p-tolylacetamide", "p-Methylchloroacetanilide", "2-Chloro-4\u2032-acetotoluidide", "N-(4-Methylphenyl)chloroacetamide", "N-Chloroacetyl-4-methylaniline", "NSC 8372", "\u03b1-Chloro-p-methylacetanilide", "2-Chloro-N-(methylphenyl)acetamide", "4\u2032-Methyl-2-chloroacetanilide", "N-(4-Methylphenyl)-2-chloroacetamide"], "SMILES": "N(C(CCl)=O)C1=CC=C(C)C=C1", "physical_data": {"Molecular Weight": "183.63", "Molecular Formula": "C9H10ClNO", "Melting Point": "83 \u00b0C"}}