{"cas_no": "1663-67-8", "cn_name": "\u4e19\u4e8c\u9170\u6c2f", "en_name": ["Malonyl chloride", "Propanedioyl dichloride", "Malonyl chloride", "Malonoyl chloride", "Malonoyl dichloride", "Malonyl dichloride", "Malonic acid dichloride", "Malonic acid chloride", "NSC 66410", "1,3-Dichloro-1,3-propanedione"], "SMILES": "C(C(Cl)=O)C(Cl)=O", "physical_data": {"Molecular Weight": "140.95", "Molecular Formula": "C3H2Cl2O2", "Boiling Point": "58-60 \u00b0C @ Press: 28 Torr"}}