{"cas_no": "16631-25-7", "cn_name": "2-\u6eb4\u4ee3\u5341\u56db\u9178\u7532\u916f", "en_name": ["Tetradecanoic acid, 2-bromo-, methyl ester", "Tetradecanoic acid, 2-bromo-, methyl ester", "Methyl 2-bromotetradecanoate", "Methyl 2-bromo-1-tetradecanoate"], "SMILES": "C(CC(C(OC)=O)Br)CCCCCCCCCC", "physical_data": {"Molecular Weight": "321.29", "Molecular Formula": "C15H29BrO2", "Boiling Point": "149 \u00b0C @ Press: 0.9998 Torr", "Density": "1.108 g/cm\u00b3 @ Temp: 20 \u00b0C"}}