{"cas_no": "16630-66-3", "cn_name": "\u7532\u57fa\u786b\u4ee3\u4e59\u9178\u7532\u916f", "en_name": ["Methyl (methylthio)acetate", "Acetic acid, 2-(methylthio)-, methyl ester", "Acetic acid, (methylthio)-, methyl ester", "Methyl (methylthio)acetate", "Methyl 2-(methylthio)acetate", "(Methylthio)acetic acid methyl ester", "Methylsulfanylacetic acid methyl ester", "Methyl methylsulfanylacetate", "Methylmercaptoacetic acid methyl ester"], "SMILES": "C(CSC)(OC)=O", "physical_data": {"Molecular Weight": "120.17", "Molecular Formula": "C4H8O2S", "Boiling Point": "53-55 \u00b0C @ Press: 11 Torr"}}