{"cas_no": "1664-54-6", "cn_name": "3-\u6c28\u57fa\u82ef\u4e19\u9178", "en_name": ["3-(3-Aminophenyl)propionic acid", "Benzenepropanoic acid, 3-amino-", "Hydrocinnamic acid, m-amino-", "3-Aminobenzenepropanoic acid", "3-Aminohydrocinnamic acid", "3-(3-Aminophenyl)propionic acid", "\u03b2-(3-Aminophenyl)propionic acid", "3-(2-Carboxyethyl)aniline"], "SMILES": "C(CC(O)=O)C1=CC(N)=CC=C1", "physical_data": {"Molecular Weight": "165.19", "Molecular Formula": "C9H11NO2", "Melting Point": "83 \u00b0C"}}