{"cas_no": "166410-05-5", "cn_name": "N-BOC-4-\u6c27\u4ee3-L-\u812f\u6c28\u9178\u53d4\u4e01\u916f", "en_name": ["1,2-Bis(1,1-dimethylethyl) (2S)-4-oxo-1,2-pyrrolidinedicarboxylate", "1,2-Pyrrolidinedicarboxylic acid, 4-oxo-, 1,2-bis(1,1-dimethylethyl) ester, (2S)-", "1,2-Pyrrolidinedicarboxylic acid, 4-oxo-, bis(1,1-dimethylethyl) ester, (S)-", "1,2-Pyrrolidinedicarboxylic acid, 4-oxo-, bis(1,1-dimethylethyl) ester, (2S)-", "1,2-Bis(1,1-dimethylethyl) (2S)-4-oxo-1,2-pyrrolidinedicarboxylate", "(2S)-4-Oxopyrrolidine-1,2-dicarboxylic acid di(tert-butyl) ester"], "SMILES": "C(OC(C)(C)C)(=O)C1N(C(OC(C)(C)C)=O)CC(=O)C1", "physical_data": {"Molecular Weight": "285.34", "Molecular Formula": "C14H23NO5", "Melting Point": "66-67 \u00b0C"}}