{"cas_no": "16646-42-7", "cn_name": "1-\u7532\u57fa-3-\u73af\u5df1\u70ef\u7fa7\u9178", "en_name": ["1-Methyl-3-cyclohexene-1-carboxylic acid", "3-Cyclohexene-1-carboxylic acid, 1-methyl-", "1-Methyl-3-cyclohexene-1-carboxylic acid", "1-Methyl-3-cyclohexenecarboxylic acid"], "SMILES": "C(O)(=O)C1(C)CCC=CC1", "physical_data": {"Molecular Weight": "140.18", "Molecular Formula": "C8H12O2", "Boiling Point": "75-77 \u00b0C @ Press: 18 Torr", "Melting Point": "78-79 \u00b0C", "Density": "0.9945 g/cm\u00b3 @ Temp: 20 \u00b0C"}}