{"cas_no": "1664-40-0", "cn_name": "N-\u82ef\u57fa\u4e59\u4e8c\u80fa", "en_name": ["N-Phenylethylenediamine", "1,2-Ethanediamine, N1-phenyl-", "Ethylenediamine, N-phenyl-", "1,2-Ethanediamine, N-phenyl-", "N1-Phenyl-1,2-ethanediamine", "Benzenamine, N-(2-aminoethyl)-", "N-Phenylethylenediamine", "N-Phenyl-1,2-ethanediamine", "2-(Phenylamino)ethylamine", "N-Phenyl-1,2-ethylenediamine", "N-(2-Aminoethyl)-N-phenylamine", "NSC 84247", "(2-Anilinoethyl)amine", "N-Phenyl-1,2-diaminoethane", "N1-Phenylethane-1,2-diamine"], "SMILES": "N(CCN)C1=CC=CC=C1", "physical_data": {"Molecular Weight": "136.19", "Molecular Formula": "C8H12N2", "Boiling Point": "134-137 \u00b0C @ Press: 10 Torr", "Melting Point": "183-186 \u00b0C"}}