{"cas_no": "16649-49-3", "cn_name": "\u6c18\u4ee3\u4e59\u9178\u9150", "en_name": ["Acetic-2,2,2-d3 acid, 1,1\u2032-anhydride", "Acetic-2,2,2-d3 acid, 1,1\u2032-anhydride", "(Acetic anhydride)-d6", "Acetic-d3 acid, anhydride", "Hexadeuterioacetic anhydride", "Perdeuterioacetic anhydride", "d6-Acetic anhydride", "Acetic anhydride-d6"], "SMILES": "O(C(C([2H])([2H])[2H])=O)C(C)=O", "physical_data": {"Molecular Weight": "", "Molecular Formula": "C4D6O3", "Boiling Point": "138-140 \u00b0C @ Press: 760 Torr"}}