{"cas_no": "16642-94-7", "cn_name": "4-CYANOCINNAMIC ACID", "en_name": ["(2E)-3-(4-Cyanophenyl)-2-propenoic acid", "2-Propenoic acid, 3-(4-cyanophenyl)-, (2E)-", "Cinnamic acid, p-cyano-, (E)-", "2-Propenoic acid, 3-(4-cyanophenyl)-, (E)-", "(2E)-3-(4-Cyanophenyl)-2-propenoic acid", "(E)-4-Cyanocinnamic acid", "trans-3-(4-Cyanophenyl)-2-propenoic acid", "(E)-3-(4-Cyanophenyl)-2-propenoic acid", "trans-4-Cyanocinnamic acid", "(E)-3-(4-Cyanophenyl)acrylic acid", "(2E)-3-(4-Cyanophenyl)prop-2-enoic acid"], "SMILES": "C(=CC(O)=O)C1=CC=C(C#N)C=C1", "physical_data": {"Molecular Weight": "173.17", "Molecular Formula": "C10H7NO2", "Melting Point": "245.0-249.0 \u00b0C"}}