{"cas_no": "16640-68-9", "cn_name": "(\u4e09\u82ef\u57fa\u81a6)\u4e59\u8148", "en_name": ["2-(Triphenylphosphoranylidene)acetonitrile", "Acetonitrile, 2-(triphenylphosphoranylidene)-", "Acetonitrile, (triphenylphosphoranylidene)-", "2-(Triphenylphosphoranylidene)acetonitrile", "(Cyanomethylene)triphenylphosphorane", "Triphenylcyanomethylenephosphorane", "Cyanomethyltriphenylphosphonium ylide", "(Cyanomethylene)triphenylphosphine", "Triphenylphosphoranylidenacetonitrile", "(Cyano)(triphenylphosphoranylidene)methane", "(Triphenylphosphoranylidene)acetonitrile", "NSC 135204", "(Cyanomethylidene)triphenylphosphorane", "2-(Triphenyl-\u03bb5-phosphanylidene)acetonitrile"], "SMILES": "P(=CC#N)(C1=CC=CC=C1)(C2=CC=CC=C2)C3=CC=CC=C3", "physical_data": {"Molecular Weight": "301.32", "Molecular Formula": "C20H16NP", "Melting Point": "192 \u00b0C"}}