{"cas_no": "16642-92-5", "cn_name": "4-\u4e09\u6c1f\u7532\u57fa\u8089\u6842\u9178", "en_name": ["(2E)-3-[4-(Trifluoromethyl)phenyl]-2-propenoic acid", "2-Propenoic acid, 3-[4-(trifluoromethyl)phenyl]-, (2E)-", "Cinnamic acid, p-(trifluoromethyl)-, (E)-", "2-Propenoic acid, 3-[4-(trifluoromethyl)phenyl]-, (E)-", "(2E)-3-[4-(Trifluoromethyl)phenyl]-2-propenoic acid", "4-Trifluoromethyl-trans-cinnamic acid", "trans-4-Trifluoromethylcinnamic acid", "(E)-4-Trifluoromethylcinnamic acid", "(E)-3-(4-(Trifluoromethyl)phenyl)acrylic acid", "trans-3-(4-Trifluoromethylphenyl)acrylic acid", "(E)-p-(Trifluoromethyl)cinnamic acid", "(E)-3-(4-Trifluoromethylphenyl)-2-propenoic acid", "(E)-3-(4-Trifluoromethylphenyl)acrylic acid", "(E)-4-(Trifluoromethyl)cinnamic acid", "(E)-3-(4-(Trifluoromethyl)phenyl)-2-propenoic acid"], "SMILES": "C(F)(F)(F)C1=CC=C(C=CC(O)=O)C=C1", "physical_data": {"Molecular Weight": "216.16", "Molecular Formula": "C10H7F3O2", "Melting Point": "202.0-205.0 \u00b0C"}}