{"cas_no": "16642-79-8", "cn_name": "3-(4-\u785d\u57fa\u82ef\u57fa)\u4e19\u9178", "en_name": ["3-(4-Nitrophenyl)propionic acid", "Benzenepropanoic acid, 4-nitro-", "Hydrocinnamic acid, p-nitro-", "4-Nitrobenzenepropanoic acid", "4-Nitrohydrocinnamic acid", "p-Nitrohydrocinnamic acid", "\u03b2-(4-Nitrophenyl)propionic acid", "3-(p-Nitrophenyl)propionic acid", "3-(4-Nitrophenyl)propanoic acid", "3-(4-Nitrophenyl)propionic acid", "NSC 99345", "3-(p-Nitrophenyl)propionoic acid"], "SMILES": "N(=O)(=O)C1=CC=C(CCC(O)=O)C=C1", "physical_data": {"Molecular Weight": "195.17", "Molecular Formula": "C9H9NO4", "Melting Point": "163-164 \u00b0C"}}