{"cas_no": "16644-30-7", "cn_name": "3-\u6c2f\u7532\u57fa-5-\u785d\u57fa\u6c34\u6768\u919b", "en_name": ["3-(Chloromethyl)-2-hydroxy-5-nitrobenzaldehyde", "Benzaldehyde, 3-(chloromethyl)-2-hydroxy-5-nitro-", "2,3-Cresotaldehyde, \u03b1-chloro-5-nitro-", "3-(Chloromethyl)-2-hydroxy-5-nitrobenzaldehyde", "3-Chloromethyl-5-nitrosalicylaldehyde", "NSC 221280", "2-Hydroxy-3-(chloromethyl)-5-nitrobenzaldehyde"], "SMILES": "C(Cl)C1=C(O)C(C=O)=CC(N(=O)=O)=C1", "physical_data": {"Molecular Weight": "215.59", "Molecular Formula": "C8H6ClNO4", "Melting Point": "90.5-91.5 \u00b0C"}}