{"cas_no": "1665-00-5", "cn_name": "\u4e8c\u6c2f\u7532\u70f7-D2", "en_name": ["Dichloromethane-d2", "Methane-d2, dichloro-", "Dichloromethane-d2", "Dideuteriodichloromethane", "Dichlorodideuteriomethane", "Methylene-d2 chloride", "Methylene-d2 dichloride", "Dideuterodichloromethane", "Dideuteriomethylene chloride", "Methylene chloride-d2", "Dichlorodideuteromethane", "d2-Methylene chloride"], "SMILES": "C(Cl)(Cl)([2H])[2H]", "physical_data": {"Molecular Weight": "", "Molecular Formula": "CCl2D2", "Boiling Point": "82 \u00b0C"}}