{"cas_no": "16657-10-6", "cn_name": "4-\u6eb4-2,3-\u4e8c\u6c22-1H-\u831a-1-\u9187", "en_name": ["4-Bromoindan-1-ol", "1H-Inden-1-ol, 4-bromo-2,3-dihydro-", "1-Indanol, 4-bromo-", "4-Bromo-2,3-dihydro-1H-inden-1-ol", "4-Bromoindan-1-ol"], "SMILES": "BrC1=C2C(C(O)CC2)=CC=C1", "physical_data": {"Molecular Weight": "213.07", "Molecular Formula": "C9H9BrO", "Melting Point": "72 \u00b0C"}}