{"cas_no": "16652-71-4", "cn_name": "L-\u812f\u6c28\u9178\u82c4\u916f\u76d0\u9178\u76d0", "en_name": ["L-Proline, phenylmethyl ester, hydrochloride (1:1)", "L-Proline, phenylmethyl ester, hydrochloride (1:1)", "Proline, benzyl ester, hydrochloride, L-", "L-Proline, phenylmethyl ester, hydrochloride", "Benzyl L-prolinate hydrochloride", "Benzyl (-)-L-prolinate hydrochloride", "L-Proline benzyl ester hydrochloride", "L-Proline benzyl ester monohydrochloride", "(S)-Proline benzyl ester hydrochloride", "Proline phenylmethyl ester hydrochloride", "Benzyl prolinate hydrochloride", "NSC 197199", "NSC 71043", "(S)-Pyrrolidine-2-carboxylic acid benzyl ester hydrochloride", "(S)-Benzyl pyrrolidine-2-carboxylate hydrochloride"], "SMILES": "C(OCC1=CC=CC=C1)(=O)C2CCCN2.Cl", "physical_data": {"Molecular Weight": "", "Molecular Formula": "C12H15NO2.ClH", "Melting Point": "143-144 \u00b0C"}}