{"cas_no": "16652-76-9", "cn_name": "L-\u7f2c\u6c28\u9178\u82c4\u916f\u5bf9\u7532\u82ef\u78fa\u9178\u76d0", "en_name": ["L-Valine, phenylmethyl ester, 4-methylbenzenesulfonate (1:1)", "L-Valine, phenylmethyl ester, 4-methylbenzenesulfonate (1:1)", "Valine, benzyl ester, p-toluenesulfonate, L-", "L-Valine, phenylmethyl ester, 4-methylbenzenesulfonate", "Valine, benzyl ester, p-toluenesulfonate", "L-Valine benzyl ester toluenesulfonate", "L-Valine benzyl ester p-toluenesulfonate", "Valine benzyl ester tosylate", "L-Valine benzyl ester tosylate", "Valine benzyl ester 4-toluenesulfonate", "Benzyl L-valinate p-toluenesulfonate", "L-Valine benzyl ester p-toluenesulfonate salt", "Benzyl L-valinate tosylate", "Benzyl L-valinate p-toluenesulfonic acid salt"], "SMILES": "S(=O)(=O)(O)C1=CC=C(C)C=C1.C(OC(C(C(C)C)N)=O)C1=CC=CC=C1", "physical_data": {"Molecular Weight": "", "Molecular Formula": "C12H17NO2.C7H8O3S", "Melting Point": "158-160 \u00b0C"}}