{"cas_no": "16652-75-8", "cn_name": "L-\u5f02\u4eae\u6c28\u9178\u82c4\u916f\u5bf9\u7532\u82ef\u78fa\u9178\u76d0", "en_name": ["L-Isoleucine, phenylmethyl ester, 4-methylbenzenesulfonate (1:1)", "L-Isoleucine, phenylmethyl ester, 4-methylbenzenesulfonate (1:1)", "Isoleucine, benzyl ester, p-toluenesulfonate, L-", "L-Isoleucine, phenylmethyl ester, 4-methylbenzenesulfonate", "L-Isoleucine benzyl ester p-toluenesulfonate", "Isoleucine benzyl ester tosylate", "L-Isoleucine benzyl ester tosylate", "Isoleucine benzyl ester p-toluenesulfonate", "Benzyl L-isoleucinate tosylate", "Benzyl L-isoleucinate p-toluenesulfonate"], "SMILES": "S(=O)(=O)(O)C1=CC=C(C)C=C1.C(OC(C(C(CC)C)N)=O)C1=CC=CC=C1", "physical_data": {"Molecular Weight": "", "Molecular Formula": "C13H19NO2.C7H8O3S", "Melting Point": "153-155 \u00b0C"}}