{"cas_no": "1665-48-1", "cn_name": "\u7f8e\u4ed6\u6c99\u916e", "en_name": ["Metaxalone", "2-Oxazolidinone, 5-[(3,5-dimethylphenoxy)methyl]-", "2-Oxazolidinone, 5-[(3,5-xylyloxy)methyl]-", "5-[(3,5-Dimethylphenoxy)methyl]-2-oxazolidinone", "AHR 438", "Metaxalone", "Metazalone", "Metazolone", "Skelaxin", "5-[(3,5-Xylyloxy)methyl]-2-oxazolidinone", "Zorane", "Metaxalon", "NSC 170959", "Flexura", "Rac-5-[(3,5-dimethylphenoxy)methyl]-1,3-oxazolidin-2-one"], "SMILES": "C(OC1=CC(C)=CC(C)=C1)C2OC(=O)NC2", "physical_data": {"Molecular Weight": "221.25", "Molecular Formula": "C12H15NO3", "Melting Point": "121.5-123 \u00b0C"}}