{"cas_no": "16652-64-5", "cn_name": "O-\u82c4\u57fa-L-\u916a\u6c28\u9178", "en_name": ["O-Benzyl-L-tyrosine", "L-Tyrosine, O-(phenylmethyl)-", "Alanine, 3-[p-(benzyloxy)phenyl]-, L-", "O-(Phenylmethyl)-L-tyrosine", "O-Benzyltyrosine", "O-Benzyl-L-tyrosine", "Tyrosine benzyl ether", "NSC 163630", "(S)-2-Amino-3-[4-(benzyloxy)phenyl]propanoic acid", "(2S)-2-Amino-3-[4-(benzyloxy)phenyl]propanoic acid", "(2S)-2-Amino-3-(4-phenylmethoxyphenyl)propanoic acid"], "SMILES": "O(CC1=CC=CC=C1)C2=CC=C(CC(C(O)=O)N)C=C2", "physical_data": {"Molecular Weight": "271.31", "Molecular Formula": "C16H17NO3", "Melting Point": "223 \u00b0C"}}