{"cas_no": "16669-59-3", "cn_name": "N-\uff08N-\u4e01\u6c27\u57fa\u7532\u57fa\uff09\u4e19\u70ef\u9170\u80fa", "en_name": ["N-[(2-Methylpropoxy)methyl]-2-propenamide", "2-Propenamide, N-[(2-methylpropoxy)methyl]-", "Acrylamide, N-(isobutoxymethyl)-", "N-[(2-Methylpropoxy)methyl]-2-propenamide", "N-(Isobutoxymethyl)acrylamide", "Synocure 3165", "Cylink IBMA", "Wasmer IBM", "Isobutoxymethylacrylamide"], "SMILES": "N(COCC(C)C)C(C=C)=O", "physical_data": {"Molecular Weight": "157.21", "Molecular Formula": "C8H15NO2", "Boiling Point": "99-100 \u00b0C @ Press: 0.03 Torr", "Density": "0.9654 g/cm\u00b3 @ Temp: 25 \u00b0C"}}