{"cas_no": "16662-46-7", "cn_name": "METHOXYVERAPAMIL HYDROCHLORIDE", "en_name": ["Gallopamil hydrochloride", "Benzeneacetonitrile, \u03b1-[3-[[2-(3,4-dimethoxyphenyl)ethyl]methylamino]propyl]-3,4,5-trimethoxy-\u03b1-(1-methylethyl)-, hydrochloride (1:1)", "Valeronitrile, 5-[(3,4-dimethoxyphenethyl)methylamino]-2-isopropyl-2-(3,4,5-trimethoxyphenyl)-, monohydrochloride", "Benzeneacetonitrile, \u03b1-[3-[[2-(3,4-dimethoxyphenyl)ethyl]methylamino]propyl]-3,4,5-trimethoxy-\u03b1-(1-methylethyl)-, monohydrochloride", "D 600 Hydrochloride", "Gallopamil hydrochloride", "Algocor", "Procorum", "NSC 274966"], "SMILES": "C(CCCN(CCC1=CC(OC)=C(OC)C=C1)C)(C(C)C)(C#N)C2=CC(OC)=C(OC)C(OC)=C2.Cl", "physical_data": {"Molecular Weight": "", "Molecular Formula": "C28H40N2O5.ClH", "Melting Point": "145-148 \u00b0C"}}