{"cas_no": "1666-13-3", "cn_name": "\u4e8c\u82ef\u57fa\u4e8c\u7852\u919a", "en_name": ["Diphenyl diselenide", "Diselenide, diphenyl", "Phenyl diselenide", "Diphenyl diselenide", "NSC 49763", "(Phenyldiselanyl)benzene", "1,2-Diphenyldiselane"], "SMILES": "[Se]([Se]C1=CC=CC=C1)C2=CC=CC=C2", "physical_data": {"Molecular Weight": "312.13", "Molecular Formula": "C12H10Se2", "Boiling Point": "160 \u00b0C @ Press: 0.1 Torr", "Melting Point": "63.5 \u00b0C"}}