{"cas_no": "16672-87-0", "cn_name": "\u4e59\u70ef\u5229", "en_name": ["Ethephon", "Phosphonic acid, P-(2-chloroethyl)-", "Phosphonic acid, (2-chloroethyl)-", "P-(2-Chloroethyl)phosphonic acid", "CEP", "2-Chloroethanephosphonic acid", "Ethrel", "Ethephon", "(2-Chloroethyl)phosphonic acid", "Chloroethylphosphonic acid", "Ethel", "CEPA", "Camposan", "G 996 (pesticide)", "Ethefon", "Kamposan", "Amchem 68-250", "Chlorethephon", "Flordimex", "Roll-Fruct", "Florel", "Cepha 10LS", "Etheverse", "2-CEPA", "Tomathrel", "2-KhEFK", "Cerone", "PRM 12", "Flordimex T", "Camposan M", "G 996", "\u03b2-Chloroethylphosphonic acid", "Fruitel", "Flordimex TM", "KhEFK", "CEPA (pesticide)", "Dextrel M", "Direphon", "Boll'd", "Exin", "Prep", "Prep (growth regulator)", "Arvest", "Romtrel", "Mature-Aide", "MFX 0307", "Super Boll", "MFX 0543", "Hevetex", "Proxy", "Ethrel 10", "PRM 12RP", "Ethrel 48 SL", "Ethrel 48SL", "MATURE-AIDE", "Ethereal"], "SMILES": "C(P(=O)(O)O)CCl", "physical_data": {"Molecular Weight": "144.49", "Molecular Formula": "C2H6ClO3P", "Melting Point": "74-75 \u00b0C", "Density": "1.58 g/cm\u00b3"}}