{"cas_no": "16670-48-7", "cn_name": "\u82ef\u78fa\u91782-\u6c2f\u4e59\u916f", "en_name": ["2-Chloroethyl benzenesulfonate", "Ethanol, 2-chloro-, 1-benzenesulfonate", "Ethanol, 2-chloro-, benzenesulfonate", "2-Chloroethanol benzenesulfonate", "\u03b2-Chloroethyl benzenesulfonate", "2-Chloroethyl benzenesulfonate", "2-(Benzene-sulphonyloxy)ethyl chloride"], "SMILES": "S(OCCCl)(=O)(=O)C1=CC=CC=C1", "physical_data": {"Molecular Weight": "220.67", "Molecular Formula": "C8H9ClO3S", "Boiling Point": "184 \u00b0C @ Press: 9 Torr", "Density": "1.353 g/cm\u00b3 @ Temp: 15 \u00b0C"}}