{"cas_no": "16673-34-0", "cn_name": "4-[2-(5-\u6c2f-2-\u7532\u6c27\u57fa\u82ef\u7532\u9170\u6c28\u57fa)\u4e59\u57fa]\u82ef\u78fa\u9170\u80fa", "en_name": ["N-[2-[4-(Aminosulfonyl)phenyl]ethyl]-5-chloro-2-methoxybenzamide", "Benzamide, N-[2-[4-(aminosulfonyl)phenyl]ethyl]-5-chloro-2-methoxy-", "o-Anisamide, 5-chloro-N-(p-sulfamoylphenethyl)-", "N-[2-[4-(Aminosulfonyl)phenyl]ethyl]-5-chloro-2-methoxybenzamide", "4-[2-(5-Chloro-2-methoxybenzamido)ethyl]phenylsulfonamide", "4-[2-(2-Methoxy-5-chlorobenzene-1-carboxamido)ethyl]benzenesulfonamide", "5-Chloro-2-methoxy-N-(4-sulfamoylphenethyl)benzamide", "JC 121"], "SMILES": "C(NCCC1=CC=C(S(N)(=O)=O)C=C1)(=O)C2=C(OC)C=CC(Cl)=C2", "physical_data": {"Molecular Weight": "368.84", "Molecular Formula": "C16H17ClN2O4S", "Melting Point": "213-215 \u00b0C"}}