{"cas_no": "16676-96-3", "cn_name": "\u4e59\u9178(Z)-5-\u5341\u4e8c\u70ef\u9187\u916f", "en_name": ["(Z)-5-Dodecenyl acetate", "5-Dodecen-1-ol, 1-acetate, (5Z)-", "5-Dodecen-1-ol, acetate, (Z)-", "5-Dodecen-1-ol, acetate, (5Z)-", "cis-5-Dodecenyl acetate", "cis-5-Dodecen-1-yl acetate", "(Z)-5-Dodecen-1-ol acetate", "cis-5-Dodecen-1-ol acetate", "5(Z)-Dodecenyl acetate", "(Z)-5-Dodecenyl acetate"], "SMILES": "C(C=CCCCCCC)CCCOC(C)=O", "physical_data": {"Molecular Weight": "226.35", "Molecular Formula": "C14H26O2", "Boiling Point": "90-91 \u00b0C @ Press: 0.02 Torr"}}