{"cas_no": "1667-10-3", "cn_name": "\u8054\u82ef\u4e8c\u6c2f\u82c4", "en_name": ["4,4\u2032-Bis(chloromethyl)biphenyl", "1,1\u2032-Biphenyl, 4,4\u2032-bis(chloromethyl)-", "p,p\u2032-Bitolyl, \u03b1,\u03b1\u2032-dichloro-", "4,4\u2032-Bis(chloromethyl)-1,1\u2032-biphenyl", "4,4\u2032-Bis(chloromethyl)biphenyl", "4,4\u2032-Bis(chloromethyl)diphenyl", "p,p\u2032-Bis(chloromethyl)biphenyl", "NSC 74077", "4,4\u2032-Dichloromethyldiphenyl", "1-(Chloromethyl)-4-[4-(chloromethyl)phenyl]benzene"], "SMILES": "C(Cl)C1=CC=C(C=C1)C2=CC=C(CCl)C=C2", "physical_data": {"Molecular Weight": "251.15", "Molecular Formula": "C14H12Cl2", "Boiling Point": "235 \u00b0C", "Melting Point": "136 \u00b0C"}}