{"cas_no": "1667-11-4", "cn_name": "4-\u6c2f\u7532\u57fa\u8054\u82ef", "en_name": ["4-Phenylbenzyl chloride", "1,1\u2032-Biphenyl, 4-(chloromethyl)-", "Biphenyl, 4-(chloromethyl)-", "4-(Chloromethyl)-1,1\u2032-biphenyl", "p-Phenylbenzyl chloride", "4-Phenylbenzyl chloride", "4CMB", "4-(Chloromethyl)biphenyl", "1-(Chloromethyl)-4-phenylbenzene", "NSC 16277", "(1,1\u2032-Biphenyl-4-yl)methyl chloride"], "SMILES": "C(Cl)C1=CC=C(C=C1)C2=CC=CC=C2", "physical_data": {"Molecular Weight": "202.68", "Molecular Formula": "C13H11Cl", "Boiling Point": "130 \u00b0C @ Press: 0.3 Torr", "Melting Point": "68 \u00b0C"}}