{"cas_no": "1667-01-2", "cn_name": "\u4e09\u7532\u57fa\u4e59\u9170\u82ef\u4e19\u916e", "en_name": ["2\u2032,4\u2032,6\u2032-Trimethylacetophenone", "Ethanone, 1-(2,4,6-trimethylphenyl)-", "Acetophenone, 2\u2032,4\u2032,6\u2032-trimethyl-", "Acetophenone, 2,4,6-trimethyl-", "1-(2,4,6-Trimethylphenyl)ethanone", "Acetomesitylene", "2\u2032,4\u2032,6\u2032-Trimethylacetophenone", "Mesityl methyl ketone", "Methyl 2,4,6-trimethylphenyl ketone", "Acetylmesitylene", "Methyl mesityl ketone", "1-Acetyl-2,4,6-trimethylbenzene", "1-(2,4,6-Trimethylphenyl)-1-ethanone", "NSC 65636", "1-Mesitylethanone", "1-Mesitylethan-1-one", "2-Acetylmesitylene"], "SMILES": "C(C)(=O)C1=C(C)C=C(C)C=C1C", "physical_data": {"Molecular Weight": "162.23", "Molecular Formula": "C11H14O", "Boiling Point": "241 \u00b0C", "Density": "0.9754 g/cm\u00b3 @ Temp: 20 \u00b0C"}}