{"cas_no": "1668-86-6", "cn_name": "(+/-)-\u90a3\u7ef4\u5b9a", "en_name": ["rel-(4aR,8aR)-4a,5,9,10,11,12-Hexahydro-3-methoxy-11-methyl-6H-benzofuro[3a,3,2-ef][2]benzazepin-6-one", "6H-Benzofuro[3a,3,2-ef][2]benzazepin-6-one, 4a,5,9,10,11,12-hexahydro-3-methoxy-11-methyl-, (4aR,8aR)-rel-", "Narwedine, (\u00b1)-", "Galanthamine, 3-deoxy-3-oxo-, (\u00b1)-", "rel-(4aR,8aR)-4a,5,9,10,11,12-Hexahydro-3-methoxy-11-methyl-6H-benzofuro[3a,3,2-ef][2]benzazepin-6-one", "dl-Narwedine", "(\u00b1)-Narwedine"], "SMILES": "O(C)C1=C2C=3C4(C(O2)CC(=O)C=C4)CCN(C)CC3C=C1", "physical_data": {"Molecular Weight": "285.34", "Molecular Formula": "C17H19NO3", "Melting Point": "198-199 \u00b0C"}}