{"cas_no": "16687-61-9", "cn_name": "5-(4-\u6c2f\u82ef\u57fa)-1H-\u56db\u5511", "en_name": ["5-(4-Chlorophenyl)-2H-tetrazole", "2H-Tetrazole, 5-(4-chlorophenyl)-", "1H-Tetrazole, 5-(p-chlorophenyl)-", "1H-Tetrazole, 5-(4-chlorophenyl)-", "Tetrazole, 5-(p-chlorophenyl)-", "5-(4-Chlorophenyl)-2H-tetrazole", "5-(p-Chlorophenyl)-1H-tetrazole", "5-(4-Chlorophenyl)tetrazole", "5-(p-Chlorophenyl)tetrazole", "5-(4-chlorophenyl)-1H-tetrazole", "NSC 86301", "5-(4\u2032-Chlorophenyl)tetrazole", "5-(4\u2032-Chlorophenyl)-1H-tetrazole"], "SMILES": "ClC1=CC=C(C=C1)C=2NN=NN2", "physical_data": {"Molecular Weight": "180.59", "Molecular Formula": "C7H5ClN4", "Melting Point": "258 \u00b0C"}}