{"cas_no": "16681-67-7", "cn_name": "4-\u6eb4-2-\u7532\u57fa-2H-1,2,3-\u4e09\u5511", "en_name": ["4-Bromo-2-methyl-2H-1,2,3-triazole", "2H-1,2,3-Triazole, 4-bromo-2-methyl-", "4-Bromo-2-methyl-2H-1,2,3-triazole"], "SMILES": "BrC1=NN(C)N=C1", "physical_data": {"Molecular Weight": "161.99", "Molecular Formula": "C3H4BrN3", "Boiling Point": "161-162 \u00b0C", "Melting Point": "22 \u00b0C"}}