{"cas_no": "16681-59-7", "cn_name": "2-\u6eb4-1-\u7532\u57fa-1H-\u54aa\u5511", "en_name": ["2-Bromo-1-methyl-1H-imidazole", "1H-Imidazole, 2-bromo-1-methyl-", "Imidazole, 2-bromo-1-methyl-", "2-Bromo-1-methyl-1H-imidazole", "2-Bromo-1-methylimidazole", "2-Bromo-N-methylimidazole"], "SMILES": "BrC=1N(C)C=CN1", "physical_data": {"Molecular Weight": "161.00", "Molecular Formula": "C4H5BrN2", "Boiling Point": "115 \u00b0C @ Press: 20 Torr"}}