{"cas_no": "1668-54-8", "cn_name": "2-\u6c28\u57fa-4-\u7532\u57fa-6-\u7532\u6c27\u57fa-1,3,5-\u4e09\u55ea", "en_name": ["2-Amino-4-methoxy-6-methyl-1,3,5-triazine", "1,3,5-Triazin-2-amine, 4-methoxy-6-methyl-", "s-Triazine, 2-amino-4-methoxy-6-methyl-", "4-Methoxy-6-methyl-1,3,5-triazin-2-amine", "2-Methyl-4-amino-6-methoxy-s-triazine", "CV 399", "2-Amino-4-methoxy-6-methyl-1,3,5-triazine", "2-Methoxy-4-methyl-6-amino-1,3,5-triazine", "A 4098", "2-Amino-4-methyl-6-methoxy-s-triazine", "2-Amino-4-methoxy-6-methyl-s-triazine", "2-Amino-4-methyl-6-methoxy-1,3,5-triazine", "IN-A 4098"], "SMILES": "O(C)C=1N=C(C)N=C(N)N1", "physical_data": {"Molecular Weight": "140.14", "Molecular Formula": "C5H8N4O", "Melting Point": "256-257 \u00b0C"}}