{"cas_no": "16681-69-9", "cn_name": "1-\u7532\u57fa-1H-1H-1,2,3-\u4e09\u6c2e\u5511-4-\u7532\u919b", "en_name": ["1-Methyl-1H-1,2,3-triazole-4-carboxaldehyde", "1H-1,2,3-Triazole-4-carboxaldehyde, 1-methyl-", "1-Methyl-1H-1,2,3-triazole-4-carboxaldehyde", "1-Methyl-1,2,3-triazole-4-carboxaldehyde", "1-Methyl-1H-1,2,3-triazole-4-carbaldehyde"], "SMILES": "C(=O)C1=CN(C)N=N1", "physical_data": {"Molecular Weight": "111.10", "Molecular Formula": "C4H5N3O", "Melting Point": "113-113.5 \u00b0C"}}