{"cas_no": "16681-68-8", "cn_name": "1H-1,2,3-\u567b\u5511-5-\u7532\u919b", "en_name": ["1H-1,2,3-Triazole-5-carboxaldehyde", "1H-1,2,3-Triazole-5-carboxaldehyde", "v-Triazole-4-carboxaldehyde", "1H-1,2,3-Triazole-4-carboxaldehyde", "NSC 20115", "1H-1,2,3-Triazole-5-carbaldehyde", "1H-[1,2,3]Triazole-4-carbaldehyde", "1H-1,2,3-Triazole-4-carbaldehyde", "2H-Triazole-4-carbaldehyde"], "SMILES": "C(=O)C1=CN=NN1", "physical_data": {"Molecular Weight": "97.08", "Molecular Formula": "C3H3N3O", "Melting Point": "141-142 \u00b0C"}}