{"cas_no": "1668-19-5", "cn_name": "\u591a\u8651\u5e73", "en_name": ["Doxepin", "1-Propanamine, 3-dibenz[b,e]oxepin-11(6H)-ylidene-N,N-dimethyl-", "Dibenz[b,e]oxepin-\u039411(6H),\u03b3-propylamine, N,N-dimethyl-", "Dibenz[b,e]oxepin, 1-propanamine deriv.", "3-Dibenz[b,e]oxepin-11(6H)-ylidene-N,N-dimethyl-1-propanamine", "N,N-Dimethyldibenz[b,e]oxepin-\u039411(6H),\u03b3-propylamine", "Doxepin", "Doxepine", "11-[3-(Dimethylamino)propylidene]-6H-dibenz[b,e]oxepin", "NSC 108160", "MeSH ID: D004316"], "SMILES": "C(CCN(C)C)=C1C=2C(COC=3C1=CC=CC3)=CC=CC2", "physical_data": {"Molecular Weight": "279.38", "Molecular Formula": "C19H21NO", "Boiling Point": "154-157 \u00b0C @ Press: 0.03 Torr", "Melting Point": "&lt;25 \u00b0C"}}