{"cas_no": "16689-35-3", "cn_name": "1-BOC-2-\u5f02\u4e19\u57fa\u80bc", "en_name": ["1,1-Dimethylethyl 2-(1-methylethyl)hydrazinecarboxylate", "Hydrazinecarboxylic acid, 2-(1-methylethyl)-, 1,1-dimethylethyl ester", "Carbazic acid, 3-isopropyl-, tert-butyl ester", "1,1-Dimethylethyl 2-(1-methylethyl)hydrazinecarboxylate", "tert-Butyl 2-isopropylhydrazinecarboxylate", "2-Isopropylhydrazinecarboxylic acid tert-butyl ester", "1-Boc-2-isopropylhydrazine", "tert-Butyl 3-(isopropyl)carbazate", "tert-Butyl 2-isopropylhydrazin-1-ylformate"], "SMILES": "O(C(NNC(C)C)=O)C(C)(C)C", "physical_data": {"Molecular Weight": "174.24", "Molecular Formula": "C8H18N2O2", "Melting Point": "47-51 \u00b0C"}}