{"cas_no": "16681-70-2", "cn_name": "1,2,3-\u4e09\u6c2e\u5511-4-\u7fa7\u9178", "en_name": ["1H-1,2,3-Triazole-5-carboxylic acid", "1H-1,2,3-Triazole-5-carboxylic acid", "v-Triazole-4-carboxylic acid", "1H-1,2,3-Triazole-4-carboxylic acid", "4-Carboxy-1,2,3-triazole", "1,2,3-Triazole-4-carboxylic acid", "NSC 77700", "3H-1,2,3-Triazole-4-carboxylic acid", "1,2,3-Triazole-5-carboxylic acid", "2H-Triazole-4-carboxylic acid"], "SMILES": "C(O)(=O)C1=CN=NN1", "physical_data": {"Molecular Weight": "113.07", "Molecular Formula": "C3H3N3O2", "Melting Point": "213 \u00b0C"}}