{"cas_no": "1668-13-9", "cn_name": "ALA-PNA", "en_name": ["Alanine p-nitroanilide", "Propanamide, 2-amino-N-(4-nitrophenyl)-, (2S)-", "Propionanilide, 2-amino-4\u2032-nitro-, L-", "Propanamide, 2-amino-N-(4-nitrophenyl)-, (S)-", "(2S)-2-Amino-N-(4-nitrophenyl)propanamide", "L-Alanine p-nitroanilide", "L-Alanyl p-nitroanilide", "L-Alanine 4-nitroanilide", "Alanine p-nitroanilide", "N-\u03b1-L-Alanine p-nitroanilide", "2-Amino-4\u2032-nitro-L-propionanilide", "(2S)-2-Amino-N-(4-nitrophenyl)propanamide"], "SMILES": "N(C(C(C)N)=O)C1=CC=C(N(=O)=O)C=C1", "physical_data": {"Molecular Weight": "209.20", "Molecular Formula": "C9H11N3O3", "Melting Point": "95 \u00b0C"}}