{"cas_no": "1668-10-6", "cn_name": "\u7518\u6c28\u9170\u80fa\u76d0\u9178\u76d0", "en_name": ["Glycinamide hydrochloride", "Acetamide, 2-amino-, hydrochloride (1:1)", "Glycinamide, monohydrochloride", "Acetamide, 2-amino-, monohydrochloride", "Glycinamide hydrochloride", "Glycine amide hydrochloride", "2-Aminoacetamide hydrochloride", "Aminoacetamide hydrochloride", "Glycinamine hydrochloride"], "SMILES": "C(CN)(N)=O.Cl", "physical_data": {"Molecular Weight": "", "Molecular Formula": "C2H6N2O.ClH", "Melting Point": "203-204 \u00b0C (decomp)"}}