{"cas_no": "1668-53-7", "cn_name": "4-[4,6-\u4e8c(2,4-\u4e8c\u7532\u82ef\u57fa)-1,3,5-\u4e09\u55ea-2-\u57fa]-1,3-\u82ef\u4e8c\u9187", "en_name": ["2-(2,4-Dihydroxyphenyl)-4,6-bis(2,4-dimethylphenyl)-1,3,5-triazine", "1,3-Benzenediol, 4-[4,6-bis(2,4-dimethylphenyl)-1,3,5-triazin-2-yl]-", "Resorcinol, 4-(4,6-di-2,4-xylyl-s-triazin-2-yl)-", "4-[4,6-Bis(2,4-dimethylphenyl)-1,3,5-triazin-2-yl]-1,3-benzenediol", "2-(2,4-Dihydroxyphenyl)-4,6-bis(2,4-dimethylphenyl)-1,3,5-triazine", "2-(2,4-Dihydroxyphenyl)-4,6-bis-(2,4-dimethylphenyl)-s-triazine", "2-(2,4-Dihydroxyphenyl)-4,6-(2,4-dimethylphenyl)-1,3,5-triazine", "2,6-Bis(2,4-dimethylphenyl)-4-(2,4-dihydroxyphenyl)-s-triazine", "2-[4,6-Bis(2,4-dimethylphenyl)-1,3,5-triazin-2-yl]-5-hydroxyphenol", "2,4-Di(2,4-dimethylphenyl)-6-(2,4-dihydroxyphenyl)-triazine"], "SMILES": "CC1=C(C=2N=C(N=C(N2)C3=C(O)C=C(O)C=C3)C4=C(C)C=C(C)C=C4)C=CC(C)=C1", "physical_data": {"Molecular Weight": "397.47", "Molecular Formula": "C25H23N3O2", "Melting Point": "197.5-198.5 \u00b0C"}}