{"cas_no": "1668-85-5", "cn_name": "\u8868\u96ea\u82b1\u83b2\u80fa\u78b1", "en_name": ["(-)-Epigalanthamine", "6H-Benzofuro[3a,3,2-ef][2]benzazepin-6-ol, 4a,5,9,10,11,12-hexahydro-3-methoxy-11-methyl-, (4aS,6S,8aS)-", "2-Epigalanthamine", "Epigalanthamine", "Galanthamine, (3\u03b1)-", "(4aS,6S,8aS)-4a,5,9,10,11,12-Hexahydro-3-methoxy-11-methyl-6H-benzofuro[3a,3,2-ef][2]benzazepin-6-ol", "6H-Benzofuro[3a,3,2-ef][2]benzazepin-6-ol, 4a,5,9,10,11,12-hexahydro-3-methoxy-11-methyl-, [4aS-(4a\u03b1,6\u03b1,8aR*)]-", "3-Epigalanthamine", "(-)-Epigalanthamine", "SPH 1068", "2-epi-Galanthamine", "Epigalantamine"], "SMILES": "O(C)C1=C2C=3C4(C(O2)CC(O)C=C4)CCN(C)CC3C=C1", "physical_data": {"Molecular Weight": "287.35", "Molecular Formula": "C17H21NO3", "Melting Point": "188-190 \u00b0C"}}