{"cas_no": "1668-08-2", "cn_name": "\u534a\u4e73\u7cd6\u9178\u5167\u916f", "en_name": ["L-Galactono-1,4-lactone", "L-Galactonic acid, \u03b3-lactone", "Galactonic acid, \u03b3-lactone, L-", "L-Galactono-1,4-lactone", "L-Galactono-\u03b3-lactone", "NSC 25282"], "SMILES": "C(CO)(O)C1C(O)C(O)C(=O)O1", "physical_data": {"Molecular Weight": "178.14", "Molecular Formula": "C6H10O6", "Melting Point": "134 \u00b0C"}}