{"cas_no": "16695-22-0", "cn_name": "N,N-\u53cc[2-(\u5bf9\u7532\u82ef\u78fa\u9170\u6c27\u57fa)\u4e59\u57fa]-\u5bf9\u7532\u82ef\u78fa\u9170\u80fa", "en_name": ["4-Methyl-N,N-bis[2-[[(4-methylphenyl)sulfonyl]oxy]ethyl]benzenesulfonamide", "Benzenesulfonamide, 4-methyl-N,N-bis[2-[[(4-methylphenyl)sulfonyl]oxy]ethyl]-", "p-Toluenesulfonamide, N,N-bis(2-hydroxyethyl)-, di-p-toluenesulfonate (ester)", "p-Toluenesulfonamide, N,N-bis(2-hydroxyethyl)-, di-p-toluenesulfonate", "4-Methyl-N,N-bis[2-[[(4-methylphenyl)sulfonyl]oxy]ethyl]benzenesulfonamide", "2,2\u2032-(p-Tolylsulfonylimino)diethanol di-p-toluenesulfonate", "2,2\u2032-(Tosylimino)bisethyl ditosylate", "Diethanolamine tritosylate", "N,O,O\u2032-Tris(p-tolylsulfonyl)diethanolamine", "Tritosyldiethanolamine", "N,O,O\u2032-Tris(p-toluenesulfonyl)diethanolamine", "NSC 106624", "1,5-(Tosyloxy)-3-tosyl-3-azapentane", "N,O,O-Tri-(toluene-p-sulfonate)-diethanolamine", "N,O,O-Tri(toluene-4-sulfonyl)diethanolamine", "2-[(4-Methylphenyl)sulfonyl-[2-(4-methylphenyl)sulfonyloxyethyl]amino]ethyl 4-methylbenzenesulfonate"], "SMILES": "S(N(CCOS(=O)(=O)C1=CC=C(C)C=C1)CCOS(=O)(=O)C2=CC=C(C)C=C2)(=O)(=O)C3=CC=C(C)C=C3", "physical_data": {"Molecular Weight": "567.69", "Molecular Formula": "C25H29NO8S3", "Melting Point": "98 \u00b0C"}}