{"cas_no": "16694-17-0", "cn_name": "4-\u6eb4\u567b\u5429-3-\u7fa7\u9178", "en_name": ["4-Bromo-3-thiophenecarboxylic acid", "3-Thiophenecarboxylic acid, 4-bromo-", "4-Bromo-3-thiophenecarboxylic acid", "3-Bromo-4-thiophenecarboxylic acid"], "SMILES": "C(O)(=O)C=1C(Br)=CSC1", "physical_data": {"Molecular Weight": "207.05", "Molecular Formula": "C5H3BrO2S", "Melting Point": "150-152 \u00b0C"}}