{"cas_no": "16691-43-3", "cn_name": "3-\u6c28\u57fa-5-\u5def\u57fa-1,2,4-\u4e09\u6c2e\u5511", "en_name": ["3-Amino-5-mercapto-1,2,4-triazole", "3H-1,2,4-Triazole-3-thione, 5-amino-1,2-dihydro-", "s-Triazole-3-thiol, 5-amino-", "1,2,4-Triazolidine-3-thione, 5-imino-", "5-Amino-1,2-dihydro-3H-1,2,4-triazole-3-thione", "3-Amino-5-mercapto-1,2,4-triazole", "Iminothiourazole", "4H-3-Amino-5-mercapto-1,2,4-triazole", "ENT 61388", "3-Imino-5-thiourazole", "3-Amino-5-mercapto-s-triazole", "5-Amino-3-mercapto-1,2,4-triazole", "3-Thio-5-amino-1,2,4-triazole", "2-Amino-5-mercapto-1,3,4-triazole", "3-Amino-1H-1,2,4-triazole-5-thiol", "3-Mercapto-5-amino-1,2,4-triazole", "NSC 145149", "NSC 34807", "5-Amino-4H-1,2,4-triazole-3-thiol", "5-Amino-1H-[1,2,4]triazole-3-thiol", "5-Mercapto-3-amino-1,2,4-Triazole", "5-Mercapto-1,2,4-triazol-3-amine", "p-AMTa", "ASTA-P", "3-Amino-1,2,4-triazole-5-thiol", "5-Amino-2,4-dihydro-3H-1,2,4-triazole-3-thione"], "SMILES": "NC=1NC(=S)NN1", "physical_data": {"Molecular Weight": "116.14", "Molecular Formula": "C2H4N4S", "Melting Point": "303 \u00b0C"}}