{"cas_no": "1669-44-9", "cn_name": "3-\u8f9b\u70ef-2-\u916e", "en_name": ["3-Octen-2-one", "3-Octen-2-one", "1-Hexenyl methyl ketone"], "SMILES": "C(=CC(C)=O)CCCC", "physical_data": {"Molecular Weight": "126.20", "Molecular Formula": "C8H14O", "Boiling Point": "69-70 \u00b0C @ Press: 11 Torr"}}