{"cas_no": "16694-18-1", "cn_name": "4-\u6eb4\u567b\u5429-2-\u7532\u9178", "en_name": ["4-Bromo-2-thiophenecarboxylic acid", "2-Thiophenecarboxylic acid, 4-bromo-", "4-Bromo-2-thiophenecarboxylic acid"], "SMILES": "C(O)(=O)C1=CC(Br)=CS1", "physical_data": {"Molecular Weight": "207.05", "Molecular Formula": "C5H3BrO2S", "Melting Point": "113-114 \u00b0C"}}