{"cas_no": "16696-65-4", "cn_name": "1,11-\u4e8c\u6eb4\u5341\u4e00\u70f7", "en_name": ["1,11-Dibromoundecane", "Undecane, 1,11-dibromo-", "1,11-Dibromoundecane"], "SMILES": "C(CCCCCBr)CCCCCBr", "physical_data": {"Molecular Weight": "314.10", "Molecular Formula": "C11H22Br2", "Boiling Point": "170-175 \u00b0C @ Press: 15 Torr", "Melting Point": "166 \u00b0C"}}