{"cas_no": "16695-54-8", "cn_name": "N-\u4e59\u9170\u4e19\u916e\u5417\u5549", "en_name": ["Acetoacetylmorpholine", "1,3-Butanedione, 1-(4-morpholinyl)-", "Morpholine, 4-acetoacetyl-", "Morpholine, 4-(1,3-dioxobutyl)-", "1-(4-Morpholinyl)-1,3-butanedione", "N-Acetoacetylmorpholine", "Acetoacetmorpholide", "Acetoacetylmorpholine", "Acetoacetic acid morpholide", "NSC 621758", "NSC 67250", "1-(4-Morpholinyl)butane-1,3-dione", "1-Morpholinobutane-1,3-dione"], "SMILES": "C(CC(C)=O)(=O)N1CCOCC1", "physical_data": {"Molecular Weight": "171.19", "Molecular Formula": "C8H13NO3", "Boiling Point": "155 \u00b0C @ Press: 7 Torr", "Melting Point": "74 \u00b0C"}}