{"cas_no": "1670-82-2", "cn_name": "6-\u5432\u54da\u7532\u9178", "en_name": ["1H-Indole-6-carboxylic acid", "1H-Indole-6-carboxylic acid", "Indole-6-carboxylic acid", "6-Carboxyindole", "6-Carboxy-1H-indole"], "SMILES": "C(O)(=O)C=1C=C2C(=CC1)C=CN2", "physical_data": {"Molecular Weight": "161.16", "Molecular Formula": "C9H7NO2", "Melting Point": "243-244 \u00b0C"}}