{"cas_no": "1670-14-0", "cn_name": "\u82c4\u8112\u76d0\u9178\u76d0", "en_name": ["Benzamidine, hydrochloride", "Benzenecarboximidamide, hydrochloride (1:1)", "Benzamidine, monohydrochloride", "Benzenecarboximidamide, monohydrochloride", "Benzamidine, hydrochloride", "Benzamidinium chloride", "Amidinobenzene hydrochloride", "Benzimidamide hydrochloride", "Benzamidine hydrochloride"], "SMILES": "C(=N)(N)C1=CC=CC=C1.Cl", "physical_data": {"Molecular Weight": "", "Molecular Formula": "C7H8N2.ClH", "Melting Point": "86-88 \u00b0C"}}