{"cas_no": "1670-47-9", "cn_name": "1,1-\u4e8c\u4e59\u6c27\u57fa\u73af\u5df1\u70f7", "en_name": ["1,1-Diethoxycyclohexane", "Cyclohexane, 1,1-diethoxy-", "Cyclohexanone, diethyl acetal", "1,1-Diethoxycyclohexane", "Cyclohexanone diethyl ketal"], "SMILES": "O(CC)C1(OCC)CCCCC1", "physical_data": {"Molecular Weight": "172.26", "Molecular Formula": "C10H20O2", "Boiling Point": "75-76 \u00b0C @ Press: 13 Torr", "Density": "0.916 g/cm\u00b3 @ Temp: 20 \u00b0C"}}