{"cas_no": "16709-86-7", "cn_name": "\u6c2f\u7532\u57fa\u4e59\u57fa\u4e8c\u7532\u57fa\u7845\u70f7", "en_name": ["(Chloromethyl)ethenyldimethylsilane", "Silane, (chloromethyl)ethenyldimethyl-", "Silane, (chloromethyl)dimethylvinyl-", "(Chloromethyl)ethenyldimethylsilane", "(Chloromethyl)dimethylvinylsilane", "Vinyl(chloromethyl)dimethylsilane", "Dimethylvinylsilylmethyl chloride", "(Chloromethyl)(vinyl)dimethylsilane"], "SMILES": "[Si](C=C)(CCl)(C)C", "physical_data": {"Molecular Weight": "134.68", "Molecular Formula": "C5H11ClSi", "Boiling Point": "121-122 \u00b0C", "Density": "0.893 g/cm\u00b3"}}