{"cas_no": "1670-81-1", "cn_name": "\u5432\u54da-5-\u7fa7\u9178", "en_name": ["1H-Indole-5-carboxylic acid", "1H-Indole-5-carboxylic acid", "Indole-5-carboxylic acid", "5-Carboxyindole", "1H-Indole-5-carboxylic acid"], "SMILES": "C(O)(=O)C=1C=C2C(=CC1)NC=C2", "physical_data": {"Molecular Weight": "161.16", "Molecular Formula": "C9H7NO2", "Melting Point": "208-209 \u00b0C"}}