{"cas_no": "1670-46-8", "cn_name": "2-\u4e59\u9170\u57fa\u73af\u620a\u916e", "en_name": ["2-Acetylcyclopentanone", "Cyclopentanone, 2-acetyl-", "2-Acetylcyclopentanone", "\u03b1-Acetylcyclopentanone", "2-Acetyl-1-cyclopentanone", "NSC 141181"], "SMILES": "C(C)(=O)C1C(=O)CCC1", "physical_data": {"Molecular Weight": "126.15", "Molecular Formula": "C7H10O2", "Boiling Point": "75 \u00b0C @ Press: 8 Torr", "Melting Point": "60-70 \u00b0C"}}