{"cas_no": "1670-87-7", "cn_name": "1H-\u5432\u54da-5-\u7532\u9170\u80fa", "en_name": ["Indole-5-carboxamide", "1H-Indole-5-carboxamide", "Indole-5-carboxamide", "5-(Aminocarbonyl)-1H-indole", "5-Carbamoylindole", "SD 169"], "SMILES": "C(N)(=O)C=1C=C2C(=CC1)NC=C2", "physical_data": {"Molecular Weight": "160.17", "Molecular Formula": "C9H8N2O", "Melting Point": "165.5-167.0 \u00b0C"}}