{"cas_no": "1670-83-3", "cn_name": "7-\u5432\u54da\u7532\u9178", "en_name": ["1H-Indole-7-carboxylic acid", "1H-Indole-7-carboxylic acid", "Indole-7-carboxylic acid", "7-Carboxyindole"], "SMILES": "C(O)(=O)C1=C2C(C=CN2)=CC=C1", "physical_data": {"Molecular Weight": "161.16", "Molecular Formula": "C9H7NO2", "Melting Point": "206-212 \u00b0C"}}