{"cas_no": "1670-84-4", "cn_name": "1H-\u5432\u54da-2-\u7fa7\u9170\u80fa", "en_name": ["1H-Indole-2-carboxamide", "1H-Indole-2-carboxamide", "Indole-2-carboxamide", "2-Carbamoylindole"], "SMILES": "C(N)(=O)C1=CC=2C(N1)=CC=CC2", "physical_data": {"Molecular Weight": "160.17", "Molecular Formula": "C9H8N2O", "Melting Point": "234.5-235.5 \u00b0C"}}