{"cas_no": "16713-66-9", "cn_name": "1,1-\u73af\u620a\u70f7\u4e8c\u4e59\u9178", "en_name": ["1,1-Cyclopentanediacetic acid", "1,1-Cyclopentanediacetic acid", "3,3\u2032-Tetramethylene glutaric acid", "Tetramethyleneglutaric acid", "AY 20037", "NSC 39838", "1,1-Bis(carboxymethyl)cyclopentane", "2-[1-(Carboxymethyl)cyclopentyl]acetic acid", "2,2\u2032-(Cyclopentane-1,1-diyl)diacetic acid"], "SMILES": "C(C(O)=O)C1(CC(O)=O)CCCC1", "physical_data": {"Molecular Weight": "186.21", "Molecular Formula": "C9H14O4", "Melting Point": "176-177 \u00b0C"}}