{"cas_no": "1671-87-0", "cn_name": "3,6-\u4e8c-2-\u5421\u5576\u57fa-1,2,4,5-\u56db\u55ea", "en_name": ["3,6-Bis(2-pyridyl)-1,2,4,5-tetrazine", "1,2,4,5-Tetrazine, 3,6-di-2-pyridinyl-", "s-Tetrazine, 3,6-di-2-pyridyl-", "s-Tetrazine, di-2-pyridyl-", "3,6-Di-2-pyridinyl-1,2,4,5-tetrazine", "3,6-Di-2-pyridyl-s-tetrazine", "3,6-Di-2-pyridyl-1,2,4,5-tetrazine", "3,6-Bis(2-pyridyl)-1,2,4,5-tetrazine", "3,6-Bis(2-pyridyl)-s-tetrazine", "3,6-Bis(2-pyridinyl)-1,2,4,5-tetrazine", "Bptz", "NSC 238155", "3,6-(2-Pyridinyl)-1,2,4,5-tetrazine", "3,6-Bi-2-pyridyl-1,2,4,5-tetrazine", "3,6-Bis(2-pyridyl)tetrazine"], "SMILES": "C=1(N=NC(=NN1)C2=CC=CC=N2)C3=CC=CC=N3", "physical_data": {"Molecular Weight": "236.23", "Molecular Formula": "C12H8N6", "Melting Point": "222 \u00b0C"}}