{"cas_no": "1671-18-7", "cn_name": "2-\u6c2f-4-(\u7532\u78fa\u9170\u57fa)\u7532\u82ef", "en_name": ["2-Chloro-1-methyl-4-(methylsulfonyl)benzene", "Benzene, 2-chloro-1-methyl-4-(methylsulfonyl)-", "Sulfone, 3-chloro-p-tolyl methyl", "2-Chloro-1-methyl-4-(methylsulfonyl)benzene", "3-Chloro-4-methylphenyl methyl sulfone", "2-Chloro-4-(methylsulfonyl)toluene", "3-Chloro-4-methyl(methylsulfonyl)benzene", "2-Chloro-4-methanesulfonyl-1-methylbenzene"], "SMILES": "S(C)(=O)(=O)C1=CC(Cl)=C(C)C=C1", "physical_data": {"Molecular Weight": "204.67", "Molecular Formula": "C8H9ClO2S", "Melting Point": "95-96 \u00b0C"}}