{"cas_no": "16712-64-4", "cn_name": "2-\u7f9f\u57fa-6-\u8418\u7532\u9178", "en_name": ["6-Hydroxy-2-naphthoic acid", "2-Naphthalenecarboxylic acid, 6-hydroxy-", "2-Naphthoic acid, 6-hydroxy-", "6-Hydroxy-2-naphthalenecarboxylic acid", "6-Hydroxy-2-naphthoic acid", "2-Hydroxynaphthalene-6-carboxylic acid", "2-Hydroxy-6-naphthoic acid", "6-Hydroxy-\u03b2-naphthoic acid", "6-Carboxy-2-naphthol", "6-Hydroxynaphthylene-2-carboxylic acid", "NSC 148862", "NSC 689433"], "SMILES": "C(O)(=O)C1=CC2=C(C=C(O)C=C2)C=C1", "physical_data": {"Molecular Weight": "188.18", "Molecular Formula": "C11H8O3", "Melting Point": "243-244 \u00b0C"}}