{"cas_no": "16714-68-4", "cn_name": "\u4e94\u6c2f\u4e19\u70f7", "en_name": ["1,1,2,2,3-Pentachloropropane", "Propane, 1,1,2,2,3-pentachloro-", "1,1,2,2,3-Pentachloropropane", "HCC 240aa"], "SMILES": "C(C(Cl)Cl)(CCl)(Cl)Cl", "physical_data": {"Molecular Weight": "216.32", "Molecular Formula": "C3H3Cl5", "Boiling Point": "191.0-191.5 \u00b0C @ Press: 755 Torr", "Density": "1.6326 g/cm\u00b3 @ Temp: 25 \u00b0C"}}