{"cas_no": "1671-77-8", "cn_name": "4-\u7532\u57fa\u82ef\u620a\u916e", "en_name": ["1-(4-Methylphenyl)-1-pentanone", "1-Pentanone, 1-(4-methylphenyl)-", "Valerophenone, 4\u2032-methyl-", "1-(4-Methylphenyl)-1-pentanone", "p-Methylvalerophenone", "4\u2032-Methylvalerophenone", "NSC 115636"], "SMILES": "C(CCCC)(=O)C1=CC=C(C)C=C1", "physical_data": {"Molecular Weight": "176.25", "Molecular Formula": "C12H16O", "Boiling Point": "261 \u00b0C", "Melting Point": "17 \u00b0C"}}