{"cas_no": "16718-12-0", "cn_name": "2-\u786b\u82ef\u57fa\u567b\u5429", "en_name": ["2-(Phenylthio)thiophene", "Thiophene, 2-(phenylthio)-", "2-(Phenylthio)thiophene", "2-Phenylthiothiophene", "Phenyl 2-thienyl sulfide", "2-(Phenylsulfanyl)thiophene", "2-Phenylsulfanylthiophene"], "SMILES": "S(C1=CC=CC=C1)C2=CC=CS2", "physical_data": {"Molecular Weight": "192.30", "Molecular Formula": "C10H8S2", "Boiling Point": "155-157 \u00b0C @ Press: 15 Torr", "Density": "1.2100 g/cm\u00b3 @ Temp: 20 \u00b0C"}}