{"cas_no": "1671-49-4", "cn_name": "2-\u785d\u57fa-4-\u7532\u781c\u57fa\u7532\u82ef", "en_name": ["1-Methyl-4-(methylsulfonyl)-2-nitrobenzene", "Benzene, 1-methyl-4-(methylsulfonyl)-2-nitro-", "Sulfone, methyl 3-nitro-p-tolyl", "1-Methyl-4-(methylsulfonyl)-2-nitrobenzene", "4-Methylsulfonyl-2-nitrotoluene", "1-Methyl-4-methylsulfonyl-2-nitrobenzene", "4-Methylsulfonyl-1-methyl-2-nitrobenzene", "2-Nitro-4-methylsulfonyltoluene", "2-Nitro-4-methanesulfone toluene", "2-Nitro-4-methylsulfone toluene"], "SMILES": "N(=O)(=O)C1=CC(S(C)(=O)=O)=CC=C1C", "physical_data": {"Molecular Weight": "215.23", "Molecular Formula": "C8H9NO4S", "Melting Point": "118-121 \u00b0C"}}