{"cas_no": "16715-79-0", "cn_name": "2',4'-\u4e8c\u7532\u6c27\u57fa\u4e59\u9170\u4e59\u9170\u82ef\u80fa", "en_name": ["N-(2,4-Dimethoxyphenyl)-3-oxobutanamide", "Butanamide, N-(2,4-dimethoxyphenyl)-3-oxo-", "Acetoacetanilide, 2\u2032,4\u2032-dimethoxy-", "N-(2,4-Dimethoxyphenyl)-3-oxobutanamide", "2\u2032,4\u2032-Dimethoxyacetoacetanilide", "NSC 50633"], "SMILES": "N(C(CC(C)=O)=O)C1=C(OC)C=C(OC)C=C1", "physical_data": {"Molecular Weight": "237.25", "Molecular Formula": "C12H15NO4", "Melting Point": "92-94 \u00b0C"}}