{"cas_no": "1671-82-5", "cn_name": "1 -\u7532\u57fa- 2 -\u785d\u57fa-1H -\u54aa\u5511", "en_name": ["1-Methyl-2-nitroimidazole", "1H-Imidazole, 1-methyl-2-nitro-", "Imidazole, 1-methyl-2-nitro-", "1-Methyl-2-nitro-1H-imidazole", "1-Methyl-2-nitroimidazole", "KA 111", "SR 2519", "2-Nitro-1-methylimidazole", "NSC 307223"], "SMILES": "N(=O)(=O)C=1N(C)C=CN1", "physical_data": {"Molecular Weight": "127.10", "Molecular Formula": "C4H5N3O2", "Melting Point": "100-102 \u00b0C"}}