{"cas_no": "1671-75-6", "cn_name": "\u82ef\u5e9a\u916e", "en_name": ["Heptanophenone", "1-Heptanone, 1-phenyl-", "Heptanophenone", "1-Phenyl-1-heptanone", "Enanthophenone", "Hexyl phenyl ketone", "1-Phenylheptanone", "n-Hexyl phenyl ketone", "1-Oxo-1-phenylheptane", "Phenyl hexanyl ketone"], "SMILES": "C(CCCCCC)(=O)C1=CC=CC=C1", "physical_data": {"Molecular Weight": "190.28", "Molecular Formula": "C13H18O", "Boiling Point": "283.3 \u00b0C", "Melting Point": "16.4 \u00b0C", "Density": "0.9792 g/cm\u00b3 @ Temp: 0 \u00b0C"}}