{"cas_no": "1671-76-7", "cn_name": "4-\u7532\u6c27\u57fa\u82ef\u620a\u916e", "en_name": ["Butyl 4-methoxyphenyl ketone", "1-Pentanone, 1-(4-methoxyphenyl)-", "Valerophenone, 4\u2032-methoxy-", "1-(4-Methoxyphenyl)-1-pentanone", "p-Methoxyvalerophenone", "4\u2032-Methoxyvalerophenone", "Butyl p-methoxyphenyl ketone", "Butyl 4-methoxyphenyl ketone", "NSC 406939", "4-Methoxyvalerophenone"], "SMILES": "C(CCCC)(=O)C1=CC=C(OC)C=C1", "physical_data": {"Molecular Weight": "192.25", "Molecular Formula": "C12H16O2", "Boiling Point": "300 \u00b0C @ Press: 739 Torr", "Melting Point": "22-23.5 \u00b0C"}}