{"cas_no": "16728-01-1", "cn_name": "1-(4-\u7532\u6c27\u57fa\uff09-1-\u73af\u4e19\u70f7\u7fa7\u9178", "en_name": ["1-(4-Methoxyphenyl)cyclopropanecarboxylic acid", "Cyclopropanecarboxylic acid, 1-(4-methoxyphenyl)-", "Cyclopropanecarboxylic acid, 1-(p-methoxyphenyl)-", "1-(4-Methoxyphenyl)cyclopropanecarboxylic acid", "1-(4-Methoxyphenyl)-1-cyclopropanecarboxylic acid", "NSC 158249"], "SMILES": "C(O)(=O)C1(CC1)C2=CC=C(OC)C=C2", "physical_data": {"Molecular Weight": "192.21", "Molecular Formula": "C11H12O3", "Melting Point": "122-123 \u00b0C"}}