{"cas_no": "1672-48-6", "cn_name": "4-\u6c28\u57fa-6-\u7f9f\u57fa-2-\u5def\u57fa-5-\u4e9a\u785d\u57fa\u5627\u5576", "en_name": ["6-Amino-5-nitroso-2-thiouracil", "4(1H)-Pyrimidinone, 6-amino-2,3-dihydro-5-nitroso-2-thioxo-", "Uracil, 6-amino-5-nitroso-2-thio-", "6-Amino-2,3-dihydro-5-nitroso-2-thioxo-4(1H)-pyrimidinone", "4-Amino-6-hydroxy-2-mercapto-5-nitrosopyrimidine", "6-Amino-5-nitroso-2-thiouracil", "NSC 229540"], "SMILES": "N(=O)C1=C(N)NC(=S)NC1=O", "physical_data": {"Molecular Weight": "172.17", "Molecular Formula": "C4H4N4O2S", "Melting Point": "&gt;240 \u00b0C"}}