{"cas_no": "16726-41-3", "cn_name": "\u5f02\u4e19\u57fa\u80bc\u76d0\u9178\u76d0", "en_name": ["Hydrazine, (1-methylethyl)-, hydrochloride (1:1)", "Hydrazine, (1-methylethyl)-, hydrochloride (1:1)", "Hydrazine, isopropyl-, monohydrochloride", "Hydrazine, (1-methylethyl)-, monohydrochloride", "Hydrazine, isopropyl-, hydrochloride", "Isopropylhydrazine hydrochloride", "Propan-2-ylhydrazine hydrochloride", "N-Isopropylhydrazine hydrochloride"], "SMILES": "C(NN)(C)C.Cl", "physical_data": {"Molecular Weight": "", "Molecular Formula": "C3H10N2.ClH", "Melting Point": "114 \u00b0C"}}