{"cas_no": "1672-46-4", "cn_name": "\u5730\u8c37\u65b0\u914d\u57fa", "en_name": ["Digoxigenin", "Card-20(22)-enolide, 3,12,14-trihydroxy-, (3\u03b2,5\u03b2,12\u03b2)-", "Digoxigenin", "5\u03b2-Card-20(22)-enolide, 3\u03b2,12\u03b2,14-trihydroxy-", "(3\u03b2,5\u03b2,12\u03b2)-3,12,14-Trihydroxycard-20(22)-enolide", "Lanadigenin", "\u039420:22-3\u03b2,12\u03b2,14,21-Tetrahydroxynorcholenic acid lactone", "3\u03b2,12\u03b2,14-Trihydroxycard-20(22)-enolide", "12\u03b2-Hydroxydigitoxigenin", "3\u03b2-Digoxigenin", "94: PN: WO2015152703 SEQID: 101 claimed sequence", "MeSH ID: D004076"], "SMILES": "OC12C(C)(C(CC1)C=3COC(=O)C3)C(O)CC4C2CCC5C4(C)CCC(O)C5", "physical_data": {"Molecular Weight": "390.51", "Molecular Formula": "C23H34O5", "Melting Point": "222 \u00b0C"}}