{"cas_no": "16728-59-9", "cn_name": "3-N-\u4e19\u6c27\u57fa\u4e19\u80fa", "en_name": ["3-Propoxy-1-propanamine", "1-Propanamine, 3-propoxy-", "Propylamine, 3-propoxy-", "3-Propoxy-1-propanamine", "3-Propoxypropylamine", "1-Amino-3-propoxypropane", "3-(Propyloxy)propylamine"], "SMILES": "C(OCCC)CCN", "physical_data": {"Molecular Weight": "117.19", "Molecular Formula": "C6H15NO", "Boiling Point": "84-89 \u00b0C @ Press: 80 Torr"}}