{"cas_no": "16725-53-4", "cn_name": "\u987a-9-\u5341\u56db\u78b3\u70ef-1-\u9187\u4e59\u9178\u916f", "en_name": ["(Z)-9-Tetradecenyl acetate", "9-Tetradecen-1-ol, 1-acetate, (9Z)-", "9-Tetradecen-1-ol, acetate, (Z)-", "9-Tetradecen-1-ol, acetate, (9Z)-", "cis-9-Tetradecen-1-yl acetate", "cis-9-Tetradecenyl acetate", "Prodenialure A", "cis-9-Tetradecen-1-ol acetate", "cis-9-Tetradecenol acetate", "(Z)-9-Tetradecen-1-ol acetate", "(Z)-9-Tetradecenyl acetate", "1-Acetoxy-(Z)-9-tetradecene", "(Z)-1-Acetoxy-9-tetradecene", "Z9-Tetradecenyl acetate"], "SMILES": "C(CCCCC=CCCCC)CCCOC(C)=O", "physical_data": {"Molecular Weight": "254.41", "Molecular Formula": "C16H30O2", "Boiling Point": "101 \u00b0C @ Press: 0.01 Torr"}}