{"cas_no": "1672-58-8", "cn_name": "4-\u7532\u9170\u6c28\u57fa\u5b89\u66ff\u6bd4\u6797", "en_name": ["4-(Formylamino)antipyrine", "Formamide, N-(2,3-dihydro-1,5-dimethyl-3-oxo-2-phenyl-1H-pyrazol-4-yl)-", "Formamide, N-antipyrinyl-", "N-(2,3-Dihydro-1,5-dimethyl-3-oxo-2-phenyl-1H-pyrazol-4-yl)formamide", "4-Formamidoantipyrine", "N-Antipyrinylformamide", "4-(Formylamino)antipyrine", "NSC 60565"], "SMILES": "O=C1N(N(C)C(C)=C1NC=O)C2=CC=CC=C2", "physical_data": {"Molecular Weight": "231.25", "Molecular Formula": "C12H13N3O2", "Melting Point": "188-190 \u00b0C"}}