{"cas_no": "16728-64-6", "cn_name": "3-\u82ef\u7532\u6c27\u4e19\u57fa1-\u80fa", "en_name": ["3-(Benzyloxy)propylamine", "1-Propanamine, 3-(phenylmethoxy)-", "Propylamine, 3-(benzyloxy)-", "3-(Phenylmethoxy)-1-propanamine", "3-(Benzyloxy)propylamine", "3-Aminopropyl benzyl ether", "3-(Benzyloxy)propan-1-amine"], "SMILES": "C(OCCCN)C1=CC=CC=C1", "physical_data": {"Molecular Weight": "165.23", "Molecular Formula": "C10H15NO", "Boiling Point": "103 \u00b0C @ Press: 2 Torr"}}