{"cas_no": "1672-88-4", "cn_name": "\u544b\u5583\u70ef\u5576", "en_name": ["Furagin", "2,4-Imidazolidinedione, 1-[[3-(5-nitro-2-furanyl)-2-propen-1-ylidene]amino]-", "Hydantoin, 1-[[3-(5-nitro-2-furyl)allylidene]amino]-", "2,4-Imidazolidinedione, 1-[[3-(5-nitro-2-furanyl)-2-propenylidene]amino]-", "1-[[3-(5-Nitro-2-furanyl)-2-propen-1-ylidene]amino]-2,4-imidazolidinedione", "Furagin", "NF 416", "N-[\u03b2-(5-Nitro-2-furyl)allylidene]-1-aminohydantoin", "1-[3-(5-Nitro-2-furyl)allylideneamino]hydantoin", "Furazidine", "Furazidin", "1-[3-(5-Nitro-2-furyl)allylidenamino]hydantoin", "F 35", "Akritoin", "Furamags"], "SMILES": "N(=CC=CC=1OC(N(=O)=O)=CC1)N2CC(=O)NC2=O", "physical_data": {"Molecular Weight": "264.19", "Molecular Formula": "C10H8N4O5", "Melting Point": "263 \u00b0C (decomp)"}}