{"cas_no": "16721-80-5", "cn_name": "\u786b\u6c22\u5316\u94a0", "en_name": ["Sodium hydrosulfide", "Sodium sulfide (Na(SH))", "Sodium sulfide (Na(HS))", "Sodium bisulfide", "Sodium hydrosulfide", "Sodium hydrogen sulfide", "Sodium mercaptide", "Sodium hydrosulfide (Na(HS))", "Sodium sulfhydrate", "Sodium mercaptan", "Hydrogen sodium sulfide", "Sodium hydrogen sulfide (NaHS)", "Hydrogen sodium sulfide (HNaS)", "NSC 158264", "Sodium sulfide"], "SMILES": "[Na]S", "physical_data": {"Molecular Weight": "", "Molecular Formula": "HNaS", "Melting Point": "350 \u00b0C", "Density": "1.79 g/cm\u00b3"}}