{"cas_no": "16732-65-3", "cn_name": "6-\u6eb4\u5432\u54da-2-\u7fa7\u9178", "en_name": ["6-Bromo-1H-indole-2-carboxylic acid", "1H-Indole-2-carboxylic acid, 6-bromo-", "Indole-2-carboxylic acid, 6-bromo-", "6-Bromo-1H-indole-2-carboxylic acid", "6-Bromoindol-2-carboxylic acid", "6-Bromoindole-2-carboxylic acid"], "SMILES": "C(O)(=O)C1=CC=2C(N1)=CC(Br)=CC2", "physical_data": {"Molecular Weight": "240.05", "Molecular Formula": "C9H6BrNO2", "Melting Point": "220-224 \u00b0C"}}