{"cas_no": "16738-20-8", "cn_name": "2,4-\u4e8c\u7532\u57fa\u82ef\u57fa\u786b\u8132", "en_name": ["N-(2,4-Dimethylphenyl)thiourea", "Thiourea, N-(2,4-dimethylphenyl)-", "Urea, 2-thio-1-(2,4-xylyl)-", "Thiourea, (2,4-dimethylphenyl)-", "N-(2,4-Dimethylphenyl)thiourea", "2,4-Dimethylphenylthiourea", "2,4-Xylylthiourea", "1-(2,4-Dimethylphenyl)thiourea", "1-(2,4-Dimethylphenyl)-2-thiourea"], "SMILES": "N(C(N)=S)C1=C(C)C=C(C)C=C1", "physical_data": {"Molecular Weight": "180.27", "Molecular Formula": "C9H12N2S", "Melting Point": "182 \u00b0C"}}