{"cas_no": "16732-66-4", "cn_name": "\u90bb\u6c1f\u82ef\u80bc", "en_name": ["(2-Bromophenyl)hydrazine", "Hydrazine, (2-bromophenyl)-", "Hydrazine, (o-bromophenyl)-", "(2-Bromophenyl)hydrazine", "(o-Bromophenyl)hydrazine", "NSC 157601"], "SMILES": "N(N)C1=C(Br)C=CC=C1", "physical_data": {"Molecular Weight": "187.04", "Molecular Formula": "C6H7BrN2", "Melting Point": "46-48 \u00b0C"}}