{"cas_no": "16731-68-3", "cn_name": "2-\u5341\u4e00\u70f7\u57fa\u54aa\u5511", "en_name": ["2-Undecylimidazole", "1H-Imidazole, 2-undecyl-", "Imidazole, 2-undecyl-", "2-Undecyl-1H-imidazole", "2-Undecylimidazole", "Curezol C11Z", "C 11Z", "Thiolite T 869", "T 869", "Curezol C11Z-PW"], "SMILES": "C(CCCCCCCCCC)C=1NC=CN1", "physical_data": {"Molecular Weight": "222.37", "Molecular Formula": "C14H26N2", "Melting Point": "73-74 \u00b0C"}}