{"cas_no": "16738-19-5", "cn_name": "(2,5-DIMETHYL-PHENYL)-THIOUREA", "en_name": ["N-(2,5-Dimethylphenyl)thiourea", "Thiourea, N-(2,5-dimethylphenyl)-", "Urea, 2-thio-1-(2,5-xylyl)-", "Thiourea, (2,5-dimethylphenyl)-", "N-(2,5-Dimethylphenyl)thiourea", "1-(2,5-Dimethylphenyl)thiourea", "(2,5-Dimethylphenyl)thiourea"], "SMILES": "N(C(N)=S)C1=C(C)C=CC(C)=C1", "physical_data": {"Molecular Weight": "180.27", "Molecular Formula": "C9H12N2S", "Melting Point": "135 \u00b0C"}}