{"cas_no": "16732-75-5", "cn_name": "6-\u6c2f\u5432\u54da-2-\u7fa7\u9178", "en_name": ["6-Chloro-1H-indole-2-carboxylic acid", "1H-Indole-2-carboxylic acid, 6-chloro-", "Indole-2-carboxylic acid, 6-chloro-", "6-Chloro-1H-indole-2-carboxylic acid", "6-Chloroindole-2-carboxylic acid", "2-Carboxy-6-chloroindole"], "SMILES": "C(O)(=O)C1=CC=2C(N1)=CC(Cl)=CC2", "physical_data": {"Molecular Weight": "195.60", "Molecular Formula": "C9H6ClNO2", "Melting Point": "248-249 \u00b0C"}}