{"cas_no": "1673-47-8", "cn_name": "3-\u6c2f\u82ef\u57fa-1-\u78b3\u9170\u80bc", "en_name": ["3-Chlorobenzohydrazide", "Benzoic acid, 3-chloro-, hydrazide", "Benzoic acid, m-chloro-, hydrazide", "m-Chlorobenzoic acid hydrazide", "3-Chlorobenzhydrazide", "(m-Chlorobenzoyl)hydrazine", "3-Chlorobenzoyl hydrazide", "(3-Chlorobenzoyl)hydrazine", "m-Chlorobenzoic hydrazide", "3-Chlorobenzoic acid hydrazide", "3-Chlorobenzohydrazide", "3-Chlorobenzenecarboxylic acid hydrazide", "m-Chlorobenzoyl hydrazide", "3-Chlorobenzoic hydrazide", "3-Chlorobenzohydroazide", "3-Chlorobenzene-1-carbohydrazide"], "SMILES": "C(NN)(=O)C1=CC(Cl)=CC=C1", "physical_data": {"Molecular Weight": "170.60", "Molecular Formula": "C7H7ClN2O", "Melting Point": "155-156 \u00b0C"}}