{"cas_no": "167484-18-6", "cn_name": "\u87ba[\u5432\u54da\u5549-3,4'-\u54cc\u5576]-1'-\u7fa7\u9178\u82c4\u916f", "en_name": ["Phenylmethyl 1,2-dihydrospiro[3H-indole-3,4\u2032-piperidine]-1\u2032-carboxylate", "Spiro[3H-indole-3,4\u2032-piperidine]-1\u2032-carboxylic acid, 1,2-dihydro-, phenylmethyl ester", "Phenylmethyl 1,2-dihydrospiro[3H-indole-3,4\u2032-piperidine]-1\u2032-carboxylate", "1\u2032-(Benzyloxycarbonyl)spiro(indoline-3,4\u2032-piperidine)", "1,2-Dihydrospiro[3H-indole-3,4\u2032-piperidine]-1\u2032-carboxylic acid phenylmethyl ester", "Benzyl spiro[indoline-3,4\u2032-piperidine]-1\u2032-carboxylate", "Benzyl 1,2-dihydrospiro[indole-3,4\u2032-piperidine]-1\u2032-carboxylate"], "SMILES": "C(OCC1=CC=CC=C1)(=O)N2CCC3(C=4C(NC3)=CC=CC4)CC2", "physical_data": {"Molecular Weight": "322.40", "Molecular Formula": "C20H22N2O2", "Melting Point": "115-117 \u00b0C"}}