{"cas_no": "1674-33-5", "cn_name": "1,3-DICHLORO-2,2-DIMETHYLPROPANE", "en_name": ["1,2-Dichloropentane", "Pentane, 1,2-dichloro-", "1,2-Dichloropentane", "1,2-Dichloro-n-pentane"], "SMILES": "C(CCC)(CCl)Cl", "physical_data": {"Molecular Weight": "141.04", "Molecular Formula": "C5H10Cl2", "Boiling Point": "148.3 \u00b0C", "Density": "1.0767 g/cm\u00b3 @ Temp: 25 \u00b0C"}}