{"cas_no": "1674-38-0", "cn_name": "\u54af\u82ef\u916e", "en_name": ["Dodecanophenone", "1-Dodecanone, 1-phenyl-", "Laurophenone", "1-Phenyl-1-dodecanone", "Phenyl undecyl ketone", "Dodecanophenone", "Phenyl n-undecyl ketone", "Undecyl phenyl ketone", "n-Undecyl phenyl ketone", "NSC 4903"], "SMILES": "C(CCCCCCCCCCC)(=O)C1=CC=CC=C1", "physical_data": {"Molecular Weight": "260.41", "Molecular Formula": "C18H28O", "Boiling Point": "174 \u00b0C", "Melting Point": "47 \u00b0C"}}