{"cas_no": "1674-37-9", "cn_name": "\u8f9b\u57fa\u9170\u82ef", "en_name": ["Octanophenone", "1-Octanone, 1-phenyl-", "Octanophenone", "1-Phenyl-1-octanone", "Caprylophenone", "Heptyl phenyl ketone", "Phenyl n-heptyl ketone", "n-Heptyl phenyl ketone", "Phenyl heptyl ketone", "NSC 22009", "Octanoylbenzene"], "SMILES": "C(CCCCCCC)(=O)C1=CC=CC=C1", "physical_data": {"Molecular Weight": "204.31", "Molecular Formula": "C14H20O", "Boiling Point": "285 \u00b0C", "Melting Point": "22.8 \u00b0C", "Density": "0.94376 g/cm\u00b3 @ Temp: 30 \u00b0C"}}