{"cas_no": "16740-73-1", "cn_name": "5-Bromo-2-methoxyacetophenone", "en_name": ["1-(5-Bromo-2-methoxyphenyl)ethanone", "Ethanone, 1-(5-bromo-2-methoxyphenyl)-", "Acetophenone, 5\u2032-bromo-2\u2032-methoxy-", "1-(5-Bromo-2-methoxyphenyl)ethanone", "5\u2032-Bromo-2\u2032-methoxyacetophenone", "1-(3-Bromo-6-methoxyphenyl)ethanone", "1-(5-Bromo-2-methoxyphenyl)ethan-1-one"], "SMILES": "C(C)(=O)C1=C(OC)C=CC(Br)=C1", "physical_data": {"Molecular Weight": "229.07", "Molecular Formula": "C9H9BrO2", "Boiling Point": "165 \u00b0C", "Melting Point": "39 \u00b0C"}}