{"cas_no": "16741-80-3", "cn_name": "S-\u82c4\u57fa-L-\u534a\u80f1\u6c28\u9178\u7532\u916f\u76d0\u9178\u76d0", "en_name": ["S-Benzyl-L-cysteine methyl ester hydrochloride", "L-Cysteine, S-(phenylmethyl)-, methyl ester, hydrochloride (1:1)", "Alanine, 3-(benzylthio)-, methyl ester, hydrochloride, L-", "L-Cysteine, S-(phenylmethyl)-, methyl ester, hydrochloride", "S-Benzylcysteine hydrochloride methyl ester", "S-Benzyl-L-cysteine methyl ester hydrochloride", "Methyl 3-benzyl-L-cysteinate hydrochloride", "L-Cysteine benzyl thioether methyl ester hydrochloride", "NSC 161612", "L-S-Benzylcysteine methyl ester hydrochloride"], "SMILES": "C(SCC(C(OC)=O)N)C1=CC=CC=C1.Cl", "physical_data": {"Molecular Weight": "", "Molecular Formula": "C11H15NO2S.ClH", "Melting Point": "160-162 \u00b0C"}}