{"cas_no": "16747-26-5", "cn_name": "\u5f02\u58ec\u70f7", "en_name": ["2,2,4-Trimethylhexane", "Hexane, 2,2,4-trimethyl-", "2,2,4-Trimethylhexane", "(\u00b1)-2,2,4-Trimethylhexane"], "SMILES": "C(C(C)(C)C)C(CC)C", "physical_data": {"Molecular Weight": "128.26", "Molecular Formula": "C9H20", "Boiling Point": "126.5 \u00b0C", "Melting Point": "-120 \u00b0C", "Density": "0.711 g/cm\u00b3 @ Temp: 4 \u00b0C"}}