{"cas_no": "16744-81-3", "cn_name": "4-\u7532\u6c27\u57fa\u5421\u5576-2-\u919b", "en_name": ["4-Methoxy-2-pyridinecarboxaldehyde", "2-Pyridinecarboxaldehyde, 4-methoxy-", "Picolinaldehyde, 4-methoxy-", "4-Methoxy-2-pyridinecarboxaldehyde", "4-Methoxypyridine-2-aldehyde", "4-Methoxy-2-formylpyridine", "4-Methoxypicolinaldehyde"], "SMILES": "O(C)C=1C=C(C=O)N=CC1", "physical_data": {"Molecular Weight": "137.14", "Molecular Formula": "C7H7NO2", "Boiling Point": "125-130 \u00b0C @ Press: 25 Torr", "Melting Point": "28-30 \u00b0C"}}