{"cas_no": "16744-98-2", "cn_name": "2-\u6c1f\u82ef\u57fa\u5f02\u6c30\u9178\u916f", "en_name": ["2-Fluorophenyl isocyanate", "Benzene, 1-fluoro-2-isocyanato-", "Isocyanic acid, o-fluorophenyl ester", "1-Fluoro-2-isocyanatobenzene", "o-Fluorophenyl isocyanate", "2-Fluorophenyl isocyanate", "2-Fluoroisocyanatobenzene", "2-Fluoro-1-isocyanatobenzene", "1-Isocyanato-2-fluorobenzene"], "SMILES": "N(=C=O)C1=C(F)C=CC=C1", "physical_data": {"Molecular Weight": "137.11", "Molecular Formula": "C7H4FNO", "Boiling Point": "65 \u00b0C @ Press: 18 Torr", "Melting Point": "112-113 \u00b0C"}}