{"cas_no": "16758-34-2", "cn_name": "\u82ef\u57fa-1-\u786b\u9187-\u0392-D-\u534a\u4e73\u7cd6\u82f7", "en_name": ["Phenyl 1-thio-\u03b2-D-galactopyranoside", "\u03b2-D-Galactopyranoside, phenyl 1-thio-", "Galactopyranoside, phenyl 1-thio-, \u03b2-D-", "Phenyl 1-thio-\u03b2-D-galactopyranoside", "Phenyl 1-thio-\u03b2-D-galactoside", "Phenylthio \u03b2-D-galactopyranoside"], "SMILES": "S(C1C(O)C(O)C(O)C(CO)O1)C2=CC=CC=C2", "physical_data": {"Molecular Weight": "272.32", "Molecular Formula": "C12H16O5S", "Melting Point": "97-101 \u00b0C"}}