{"cas_no": "1675-54-3", "cn_name": "2,2-\u53cc-(4-\u7518\u80fa\u6c27\u82ef)\u4e19\u70f7", "en_name": ["Bisphenol A diglycidyl ether", "Oxirane, 2,2\u2032-[(1-methylethylidene)bis(4,1-phenyleneoxymethylene)]bis-", "Propane, 2,2-bis[p-(2,3-epoxypropoxy)phenyl]-", "2,2\u2032-[(1-Methylethylidene)bis(4,1-phenyleneoxymethylene)]bis[oxirane]", "2,2-Bis[4-(2,3-epoxypropyloxy)phenyl]propane", "2,2-Bis(p-glycidyloxyphenyl)propane", "Bis(4-hydroxyphenyl)dimethylmethane diglycidyl ether", "2,2-Bis(p-hydroxyphenyl)propane diglycidyl ether", "2,2-Bis(4-hydroxyphenyl)propane diglycidyl ether", "Diglycidyl bisphenol A ether", "4,4\u2032-Isopropylidenediphenol diglycidyl ether", "Dian diglycidyl ether", "Diomethane diglycidyl ether", "4,4\u2032-Bis(2,3-epoxypropoxy)diphenyldimethylmethane", "Diglycidylbisphenol A", "2,2-Bis[p-(2,3-epoxypropoxy)phenyl]propane", "Bisphenol A diglycidyl ether", "2,2-Bis[4-(2,3-epoxypropoxy)phenyl]propane", "2,2-Bis(4-glycidyloxyphenyl)propane", "Diglycidyl diphenylolpropane ether", "4,4\u2032-Isopropylidenebis[1-(2,3-epoxypropoxy)benzene]", "2,2-Bis(4\u2032-glycidyloxyphenyl)propane", "2,2-Bis(4\u2032-glycidoxyphenyl)propane", "Bisphenol A bisglycidyl ether", "2,2-Di(4-glycidyloxyphenyl)propane", "DGEBA", "BADGE", "NSC 5022", "Bisphenol A bisoxiranyl ether", "2,2-Bis(4-glycidoxyphenyl)propane", "Badge (crosslinking agent)", "2,2-Bis[4-(glycidyloxy)pheny]propane", "2-[[4-[2-[4-(Oxiran-2-ylmethoxy)phenyl]propan-2-yl]phenoxy]methyl]oxirane", "4,4\u2032-Isopropylidenediphenol oxirane", "Bisphenol A diglycidyl epoxy ether", "E 3000A", "EP 6002"], "SMILES": "C(C)(C)(C1=CC=C(OCC2CO2)C=C1)C3=CC=C(OCC4CO4)C=C3", "physical_data": {"Molecular Weight": "340.41", "Molecular Formula": "C21H24O4", "Boiling Point": "210-230 \u00b0C @ Press: 0.05 Torr", "Melting Point": "8-12 \u00b0C", "Density": "1.17 g/cm\u00b3"}}