{"cas_no": "1675-66-7", "cn_name": "\u963f\u5730\u7c73\u5c48", "en_name": ["Adelmidrol", "Nonanediamide, N1,N9-bis(2-hydroxyethyl)-", "Nonanediamide, N,N\u2032-bis(2-hydroxyethyl)-", "N1,N9-Bis(2-hydroxyethyl)nonanediamide", "Adelmidrol", "N,N\u2032-Bis(2-hydroxyethyl)nonanediamide", "NSC 27132", "N,N\u2032-Bis(2-hydroxyethyl)nonandiamide"], "SMILES": "C(C(NCCO)=O)CCCCCCC(NCCO)=O", "physical_data": {"Molecular Weight": "274.36", "Molecular Formula": "C13H26N2O4", "Melting Point": "132-134 \u00b0C"}}