{"cas_no": "1675-46-3", "cn_name": "10-(3-\u6c2f\u4e19\u57fa)-2-(\u4e09\u6c1f\u7532\u57fa)-10H-\u5429\u567b\u55ea", "en_name": ["10-(3-Chloropropyl)-2-(trifluoromethyl)-10H-phenothiazine", "10H-Phenothiazine, 10-(3-chloropropyl)-2-(trifluoromethyl)-", "Phenothiazine, 10-(3-chloropropyl)-2-(trifluoromethyl)-", "10-(3-Chloropropyl)-2-(trifluoromethyl)-10H-phenothiazine", "2-Trifluoromethyl-10-(3-chloropropyl)phenothiazine", "10-(3-Chloropropyl)-2-trifluoromethylphenothiazine", "\u03b3-(2-Trifluoromethyl-10-phenothiazinyl)propyl chloride", "NSC 217918"], "SMILES": "C(CCCl)N1C=2C(SC=3C1=CC=CC3)=CC=C(C(F)(F)F)C2", "physical_data": {"Molecular Weight": "343.79", "Molecular Formula": "C16H13ClF3NS", "Boiling Point": "170-172 \u00b0C @ Press: 0.4 Torr", "Melting Point": "72 \u00b0C"}}