{"cas_no": "16753-62-1", "cn_name": "\u7532\u57fa\u4e59\u70ef\u57fa\u4e8c\u7532\u6c27\u57fa\u7845\u70f7", "en_name": ["Vinylmethyldimethoxysilane", "Silane, ethenyldimethoxymethyl-", "Silane, dimethoxymethylvinyl-", "Ethenyldimethoxymethylsilane", "Vinylmethyldimethoxysilane", "Methyldimethoxyvinylsilane", "Dimethoxymethylvinylsilane", "Methylvinyldimethoxysilane", "Geniosil XL 12", "Silquest A 2171", "A 2171", "D 3386", "LMD 23", "Vinyldimethoxymethylsilane", "DB 174", "DB 174 (coupling agent)", "SCA-V 71T", "KH 1710", "Z 2349", "Dowsil Z 2349"], "SMILES": "[Si](C=C)(OC)(OC)C", "physical_data": {"Molecular Weight": "132.23", "Molecular Formula": "C5H12O2Si", "Boiling Point": "103 \u00b0C", "Density": "0.889 g/cm\u00b3"}}