{"cas_no": "16750-67-7", "cn_name": "4-\u6c28\u57fa-2-\u6eb4\u82ef\u915a", "en_name": ["4-Amino-2-bromophenol", "Phenol, 4-amino-2-bromo-", "4-Amino-2-bromophenol", "2-Bromo-4-aminophenol"], "SMILES": "BrC1=C(O)C=CC(N)=C1", "physical_data": {"Molecular Weight": "188.02", "Molecular Formula": "C6H6BrNO", "Melting Point": "165 \u00b0C"}}