{"cas_no": "1675-02-1", "cn_name": "\u7ea2\u9709\u7d20C", "en_name": ["Erythromycin C", "Erythromycin, 3\u2032\u2032-O-demethyl-", "Erythromycin C", "Oxacyclotetradecane, erythromycin deriv.", "3\u2032\u2032-O-Demethylerythromycin"], "SMILES": "O(C1C(C)C(OC2CC(C)(O)C(O)C(C)O2)C(C)C(=O)OC(CC)C(C)(O)C(O)C(C)C(=O)C(C)CC1(C)O)C3C(O)C(N(C)C)CC(C)O3", "physical_data": {"Molecular Weight": "719.90", "Molecular Formula": "C36H65NO13", "Melting Point": "121-125 \u00b0C"}}