{"cas_no": "16751-59-0", "cn_name": "4-\u6c28\u57fa\u5e9a\u70f7", "en_name": ["4-Heptanamine", "4-Heptanamine", "Butylamine, 1-propyl-", "1-Propylbutylamine", "4-Heptylamine", "4-Aminoheptane", "1-Propylbutanamine", "(Heptan-4-yl)amine"], "SMILES": "C(CCC)(CCC)N", "physical_data": {"Molecular Weight": "115.22", "Molecular Formula": "C7H17N", "Boiling Point": "139.5 \u00b0C", "Density": "0.771 g/cm\u00b3 @ Temp: 13 \u00b0C"}}