{"cas_no": "16752-77-5", "cn_name": "\u706d\u591a\u5a01", "en_name": ["Methomyl", "Ethanimidothioic acid, N-[[(methylamino)carbonyl]oxy]-, methyl ester", "IN 1179", "Du Pont Insecticide 1179", "Lannate", "Methyl N-[(methylcarbamoyl)oxy]thioacetimidate", "S-Methyl N-[(methylcarbamoyl)oxy]thioacetimidate", "Methyl O-(methylcarbamyl)thiolacetohydroxamate", "Methomyl", "Du Pont 1179", "Methyl O-(methylcarbamoyl)thiolacetohydroxamate", "SD 14999", "WL 18236", "Mesomile", "Nudrin", "Methomyl SP", "Lannate 90SP", "Lannate L", "Lan Bait", "Mie Duo Wei", "Dunet", "Metomil", "Lannate D", "Nudrin D", "Lannate 25", "Nudrin 225", "Lannate 20", "Metomur", "Lannate 20L", "Lannate LV", "MeSH ID: D008724"], "SMILES": "C(=NOC(NC)=O)(SC)C", "physical_data": {"Molecular Weight": "162.21", "Molecular Formula": "C5H10N2O2S", "Melting Point": "78-79 \u00b0C", "Density": "1.3 g/cm\u00b3"}}