{"cas_no": "1675-69-0", "cn_name": "\u58ec\u4e8c\u8148", "en_name": ["Nonanedinitrile", "Nonanedinitrile", "Azelanitrile", "1,7-Dicyanoheptane", "NSC 18521"], "SMILES": "C(CCCC#N)CCCC#N", "physical_data": {"Molecular Weight": "150.22", "Molecular Formula": "C9H14N2", "Boiling Point": "183 \u00b0C @ Press: 11 Torr", "Melting Point": "-22.01 \u00b0C", "Density": "0.929 g/cm\u00b3 @ Temp: 19 \u00b0C"}}