{"cas_no": "1676-81-9", "cn_name": "N-\u82c4\u6c27\u7fb0\u9170\u57fa-L-\u4e1d\u6c28\u9178\u7532\u916f", "en_name": ["N-[(Phenylmethoxy)carbonyl]-L-serine methyl ester", "L-Serine, N-[(phenylmethoxy)carbonyl]-, methyl ester", "Serine, N-carboxy-, N-benzyl methyl ester, L-", "Serine, N-carboxy-, N-benzyl methyl ester", "N-[(Phenylmethoxy)carbonyl]-L-serine methyl ester", "(Benzyloxycarbonyl)-L-serine methyl ester", "N-Carbobenzoxy-L-serine methyl ester", "N-(Benzyloxycarbonyl)serine methyl ester", "N-(Benzyloxycarbonyl)-L-serine methyl ester", "Methyl N-(benzyloxycarbonyl)-L-serinate", "Methyl (S)-2-((benzyloxycarbonyl)amino)-3-hydroxypropanoate", "Methyl (2S)-2-[(benzyloxycarbonyl)amino]-3-hydroxypropanoate", "(2S)-2-[(Benzyloxycarbonyl)amino]-3-hydroxypropionic acid methyl ester", "(2S)-2-[(Benzyloxycarbonyl)amino]-3-hydroxypropionic acid methyl ester", "N-Cbz-L-serine methyl ester"], "SMILES": "C(OC(NC(C(OC)=O)CO)=O)C1=CC=CC=C1", "physical_data": {"Molecular Weight": "253.25", "Molecular Formula": "C12H15NO5", "Melting Point": "85-87 \u00b0C"}}