{"cas_no": "1676-75-1", "cn_name": "N-\u82c4\u6c27\u7fb0\u57fa-O-\u53d4\u4e01\u57fa-L-\u4e1d\u6c28\u9178", "en_name": ["O-(1,1-Dimethylethyl)-N-[(phenylmethoxy)carbonyl]-L-serine", "L-Serine, O-(1,1-dimethylethyl)-N-[(phenylmethoxy)carbonyl]-", "Alanine, 3-tert-butoxy-N-carboxy-, N-benzyl ester, L-", "Alanine, 3-tert-butoxy-N-carboxy-, N-benzyl ester", "O-(1,1-Dimethylethyl)-N-[(phenylmethoxy)carbonyl]-L-serine", "N-Carbobenzoxy-O-tert-butyl-L-serine", "N-Benzyloxycarbonyl-O-tert-butyl-L-serine", "N-Benzyloxycarbonyl-O-tert-butylserine", "(2S)-2-{[(Benzyloxy)carbonyl]amino}-3-tert-butoxypropanoic acid", "(S)-2-[(Benzyloxycarbonyl)amino]-3-tert-butoxypropionic acid", "(2S)-3-[(2-Methylpropan-2-yl)oxy]-2-(phenylmethoxycarbonylamino)propanoic acid"], "SMILES": "C(OC(NC(COC(C)(C)C)C(O)=O)=O)C1=CC=CC=C1", "physical_data": {"Molecular Weight": "295.33", "Molecular Formula": "C15H21NO5", "Melting Point": "83.5-85.0 \u00b0C"}}