{"cas_no": "1676-73-9", "cn_name": "L-\u8c37\u6c28\u9178-5-\u82c4\u916f", "en_name": ["\u03b3-Benzyl L-glutamate", "L-Glutamic acid, 5-(phenylmethyl) ester", "Glutamic acid, 5-benzyl ester, L-", "\u03b3-Benzyl L-glutamate", "L-Glutamic acid 5-benzyl ester", "\u03b3-Benzylglutamic acid", "5-Benzyl L-glutamate", "L-Glutamate-\u03b3-benzyl ester", "Glutamic acid \u03b3-benzyl ester", "L-Glutamic acid \u03b3-benzyl ester", "Benzyl glutamate", "\u03b3-Benzyl glutamate", "Glutamic acid, 5-benzyl ester", "H-Glu(OBzl)-OH", "NSC 9969", "(2S)-2-Amino-5-(benzyloxy)-5-oxopentanoic acid", "(S)-2-Amino-5-(benzyloxy)-5-oxopentanoic acid", "(2S)-2-Azaniumyl-5-oxo-5-phenylmethoxypentanoate"], "SMILES": "C(OC(CCC(C(O)=O)N)=O)C1=CC=CC=C1", "physical_data": {"Molecular Weight": "237.25", "Molecular Formula": "C12H15NO4", "Melting Point": "169-170 \u00b0C"}}