{"cas_no": "1676-63-7", "cn_name": "4-\u4e59\u6c27\u57fa\u82ef\u4e59\u916e", "en_name": ["1-(4-Ethoxyphenyl)ethanone", "Ethanone, 1-(4-ethoxyphenyl)-", "Acetophenone, 4\u2032-ethoxy-", "1-(4-Ethoxyphenyl)ethanone", "p-Ethoxyacetophenone", "4\u2032-Ethoxyacetophenone", "NSC 403850", "NSC 406258", "40959-1A", "1-(4-Ethoxyphenyl)ethan-1-one"], "SMILES": "C(C)(=O)C1=CC=C(OCC)C=C1", "physical_data": {"Molecular Weight": "164.20", "Molecular Formula": "C10H12O2", "Boiling Point": "145.4-145.8 \u00b0C @ Press: 13 Torr", "Melting Point": "37-38 \u00b0C"}}