{"cas_no": "16766-90-8", "cn_name": "\u95f4\u4e09\u6c1f\u7532\u57fa\u4e09\u6c2f\u7532\u82ef", "en_name": ["1-(Trichloromethyl)-3-(trifluoromethyl)benzene", "Benzene, 1-(trichloromethyl)-3-(trifluoromethyl)-", "m-Xylene, \u03b1,\u03b1,\u03b1-trichloro-\u03b1\u2032,\u03b1\u2032,\u03b1\u2032-trifluoro-", "1-(Trichloromethyl)-3-(trifluoromethyl)benzene", "m-(Trifluoromethyl)benzotrichloride", "3-(Trifluoromethyl)benzotrichloride"], "SMILES": "C(Cl)(Cl)(Cl)C1=CC(C(F)(F)F)=CC=C1", "physical_data": {"Molecular Weight": "263.47", "Molecular Formula": "C8H4Cl3F3", "Boiling Point": "77-78 \u00b0C @ Press: 9 Torr"}}