{"cas_no": "16773-52-7", "cn_name": "1-(2,3-\u73af\u6c27\u57fa\u4e19\u57fa)-2-\u7532\u57fa-5-\u785d\u57fa\u54aa\u5511", "en_name": ["1-(2,3-Epoxypropyl)-2-methyl-5-nitroimidazole", "1H-Imidazole, 2-methyl-5-nitro-1-(2-oxiranylmethyl)-", "Imidazole, 1-(2,3-epoxypropyl)-2-methyl-5-nitro-", "1H-Imidazole, 2-methyl-5-nitro-1-(oxiranylmethyl)-", "2-Methyl-5-nitro-1-(2-oxiranylmethyl)-1H-imidazole", "1-(2,3-Epoxypropyl)-2-methyl-5-nitroimidazole"], "SMILES": "C(N1C(N(=O)=O)=CN=C1C)C2CO2", "physical_data": {"Molecular Weight": "183.16", "Molecular Formula": "C7H9N3O3", "Melting Point": "110-111 \u00b0C"}}