{"cas_no": "1677-27-6", "cn_name": "3H-1,2-\u82ef\u5e76\u4e8c\u78fa\u915a-3-\u916e", "en_name": ["1,2-Benzodithiol-3-one", "3H-1,2-Benzodithiol-3-one", "1,2-Benzodisulfol-3-one", "Benzodithiolone", "2-Dithiobenzoyl", "1,2-Benzodithiol-3-one", "NSC 158037"], "SMILES": "O=C1C=2C(=CC=CC2)SS1", "physical_data": {"Molecular Weight": "168.24", "Molecular Formula": "C7H4OS2", "Melting Point": "77 \u00b0C"}}