{"cas_no": "1677-48-1", "cn_name": "5,6-\u4e8c\u6c2f-1H-\u5432\u54da-2,3-\u4e8c\u916e", "en_name": ["5,6-Dichloroisatin", "1H-Indole-2,3-dione, 5,6-dichloro-", "Indole-2,3-dione, 5,6-dichloro-", "5,6-Dichloro-1H-indole-2,3-dione", "5,6-Dichloroisatin"], "SMILES": "O=C1C=2C(NC1=O)=CC(Cl)=C(Cl)C2", "physical_data": {"Molecular Weight": "216.02", "Molecular Formula": "C8H3Cl2NO2", "Melting Point": "273-275 \u00b0C"}}