{"cas_no": "1677-44-7", "cn_name": "6-\u7532\u57fa-2,4-\u4e8c\u7f9f\u57fa\u55b9\u5549", "en_name": ["4-Hydroxy-6-methyl-2-quinolone", "2(1H)-Quinolinone, 4-hydroxy-6-methyl-", "Carbostyril, 4-hydroxy-6-methyl-", "4-Hydroxy-6-methyl-2(1H)-quinolinone", "4-Hydroxy-6-methylcarbostyril", "6-Methyl-2,4-dihydroxyquinoline", "6-Methyl-2,4-quinolinediol", "2,4-Dihydroxy-6-methylquinoline", "4-Hydroxy-6-methyl-2-quinolone", "4-Hydroxy-6-methylquinolin-2(1H)-one"], "SMILES": "OC=1C=2C(NC(=O)C1)=CC=C(C)C2", "physical_data": {"Molecular Weight": "175.18", "Molecular Formula": "C10H9NO2", "Melting Point": "342 \u00b0C"}}