{"cas_no": "1677-46-9", "cn_name": "4-\u7f9f\u57fa-N-\u7532\u57fa-2-\u55b9\u5549", "en_name": ["4-Hydroxy-1-methyl-2(1H)-quinolinone", "2(1H)-Quinolinone, 4-hydroxy-1-methyl-", "Carbostyril, 4-hydroxy-1-methyl-", "4-Hydroxy-1-methyl-2(1H)-quinolinone", "4-Hydroxy-N-methylcarbostyril", "4-Hydroxy-1-methyl-2-quinolone", "1-Methyl-2-oxo-1,2-dihydro-4-hydroxyquinoline", "4-Hydroxy-N-methyl-2-quinolone", "4-Hydroxy-1-methyl-2(1H)-quinolone", "4-Hydroxy-1-methylcarbostyril", "1-Methyl-4-hydroxy-2(1H)-quinolinone", "N-Methyl-4-hydroxyquinol-2-one", "1-Methyl-4-hydroxycarbostyril", "1-Methyl-4-hydroxy-2-quinolone", "4-Hydroxy-1-methyl-2-quinolinone", "4-Hydroxy-N-methyl-2-quinolinone", "4-Hydroxy-1-methylquinolin-2(1H)-one", "NSC 39973", "4-Hydroxy-1-methylquinoline-2(1H)-one", "4-Hydroxy-N-methyl-2-quinolone", "1-Methyl-4-hydroxyquinolin-2-one"], "SMILES": "CN1C=2C(C(O)=CC1=O)=CC=CC2", "physical_data": {"Molecular Weight": "175.18", "Molecular Formula": "C10H9NO2", "Melting Point": "255-258 \u00b0C"}}