{"cas_no": "167760-75-0", "cn_name": "4-\u6c28\u57fa3-\u4e09\u6c1f\u7532\u57fa\u82ef\u7532\u9178\u7532\u916f", "en_name": ["Benzoic acid, 4-amino-3-(trifluoromethyl)-, methyl ester", "Benzoic acid, 4-amino-3-(trifluoromethyl)-, methyl ester", "Methyl 3-(trifluoromethyl)-4-aminobenzoate", "4-Amino-3-trifluoromethylbenzoic acid methyl ester", "Methyl 4-amino-3-trifluoromethylbenzoate"], "SMILES": "C(F)(F)(F)C1=CC(C(OC)=O)=CC=C1N", "physical_data": {"Molecular Weight": "219.16", "Molecular Formula": "C9H8F3NO2", "Melting Point": "112-114 \u00b0C"}}