{"cas_no": "1677-80-1", "cn_name": "3,4-\u4e8c\u6c2f\u54d2\u55ea", "en_name": ["3,4-Dichloropyridazine", "Pyridazine, 3,4-dichloro-", "3,4-Dichloropyridazine", "NSC 73470"], "SMILES": "ClC1=C(Cl)N=NC=C1", "physical_data": {"Molecular Weight": "148.98", "Molecular Formula": "C4H2Cl2N2", "Boiling Point": "125 \u00b0C @ Press: 3-4 Torr"}}