{"cas_no": "16773-51-6", "cn_name": "\u5965\u785d\u5511\u6742\u8d285", "en_name": ["2-Methyl-4-nitro-1-(2-oxiranylmethyl)-1H-imidazole", "1H-Imidazole, 2-methyl-4-nitro-1-(2-oxiranylmethyl)-", "Imidazole, 1-(2,3-epoxypropyl)-2-methyl-4-nitro-", "1H-Imidazole, 2-methyl-4-nitro-1-(oxiranylmethyl)-", "2-Methyl-4-nitro-1-(2-oxiranylmethyl)-1H-imidazole", "NSC 330804", "1-(2,3-Epoxypropyl)-2-methyl-4-nitroimidazole", "2-Methyl-4-nitro-1-(oxiran-2-ylmethyl)imidazole"], "SMILES": "C(N1C=C(N(=O)=O)N=C1C)C2CO2", "physical_data": {"Molecular Weight": "183.16", "Molecular Formula": "C7H9N3O3", "Melting Point": "89-91 \u00b0C"}}