{"cas_no": "16773-42-5", "cn_name": "\u5965\u785d\u5511", "en_name": ["Ornidazole", "1H-Imidazole-1-ethanol, \u03b1-(chloromethyl)-2-methyl-5-nitro-", "Imidazole-1-ethanol, \u03b1-(chloromethyl)-2-methyl-5-nitro-", "\u03b1-(Chloromethyl)-2-methyl-5-nitro-1H-imidazole-1-ethanol", "\u03b1-(Chloromethyl)-2-methyl-5-nitro-1-imidazoleethanol", "Ro 7-0207", "1-(3-Chloro-2-hydroxypropyl)-2-methyl-5-nitroimidazole", "Ornidazole", "Tiberal", "(\u00b1)-Tiberal", "Ornidal", "Madelen", "NSC 95075", "(\u00b1)-Ornidazole", "Ornisid", "Ornidone", "Ornitop", "Giro", "Ornilox", "Dazolic", "1-Chloro-3-(2-methyl-5-nitro-imidazol-1-yl)-propan-2-ol", "1-Chloro-3-(2-methyl-5-nitro-1H-imidazol-1-yl)propan-2-ol", "1-Chloro-3-(2-methyl-5-nitroimidazol-1-yl)propan-2-ol", "MeSH ID: D009950"], "SMILES": "C(C(CCl)O)N1C(N(=O)=O)=CN=C1C", "physical_data": {"Molecular Weight": "219.63", "Molecular Formula": "C7H10ClN3O3", "Melting Point": "77-78 \u00b0C", "Density": "1.497 g/cm\u00b3"}}