{"cas_no": "1678-43-9", "cn_name": "2-\u82ef\u57fa-2-\u5bf9\u7532\u82ef\u78fa\u9170\u6c27\u57fa\u82ef\u4e59\u916e", "en_name": ["Benzoin tosylate", "Ethanone, 2-[[(4-methylphenyl)sulfonyl]oxy]-1,2-diphenyl-", "Benzoin, p-toluenesulfonate", "2-[[(4-Methylphenyl)sulfonyl]oxy]-1,2-diphenylethanone", "Desyl tosylate", "CG 21-746", "\u03b1-Tosyloxydeoxybenzoin", "Benzoin tosylate", "Benzoin 4-toluenesulfonate", "2-Oxo-1,2-diphenylethyl 4-methylbenzenesulfonate"], "SMILES": "C(C(=O)C1=CC=CC=C1)(OS(=O)(=O)C2=CC=C(C)C=C2)C3=CC=CC=C3", "physical_data": {"Molecular Weight": "366.43", "Molecular Formula": "C21H18O4S", "Melting Point": "105.5-106 \u00b0C"}}