{"cas_no": "1678-92-8", "cn_name": "\u6b63\u4e19\u57fa\u73af\u5df1\u70f7", "en_name": ["Propylcyclohexane", "Cyclohexane, propyl-", "Propylcyclohexane", "n-Propylcyclohexane", "NSC 44885", "Prop-3-yl-cyclohexane"], "SMILES": "C(CC)C1CCCCC1", "physical_data": {"Molecular Weight": "126.24", "Molecular Formula": "C9H18", "Boiling Point": "156.7 \u00b0C", "Melting Point": "-94.9 \u00b0C", "Density": "0.7898 g/cm\u00b3 @ Temp: 20 \u00b0C"}}