{"cas_no": "1678-53-1", "cn_name": "3-\u7532\u57fa-4-\u785d\u57fa\u5421\u5576", "en_name": ["3-Methyl-4-nitropyridine", "Pyridine, 3-methyl-4-nitro-", "3-Picoline, 4-nitro-", "3-Methyl-4-nitropyridine"], "SMILES": "N(=O)(=O)C=1C(C)=CN=CC1", "physical_data": {"Molecular Weight": "138.12", "Molecular Formula": "C6H6N2O2", "Boiling Point": "57-59 \u00b0C @ Press: 0.4 Torr", "Melting Point": "28-29 \u00b0C"}}