{"cas_no": "1678-98-4", "cn_name": "\u5f02\u4e01\u57fa\u73af\u5df1\u70f7", "en_name": ["Isobutylcyclohexane", "Cyclohexane, (2-methylpropyl)-", "Cyclohexane, isobutyl-", "(2-Methylpropyl)cyclohexane", "Isobutylcyclohexane", "NSC 74187"], "SMILES": "C(C(C)C)C1CCCCC1", "physical_data": {"Molecular Weight": "140.27", "Molecular Formula": "C10H20", "Boiling Point": "171.3 \u00b0C", "Melting Point": "-95 \u00b0C", "Density": "0.7950 g/cm\u00b3 @ Temp: 20 \u00b0C"}}