{"cas_no": "1678-91-7", "cn_name": "\u4e59\u57fa\u73af\u5df1\u70f7", "en_name": ["Ethylcyclohexane", "Cyclohexane, ethyl-", "Ethylcyclohexane", "NSC 8880", "Swaclean ECH", "Cyclohexylethane"], "SMILES": "C(C)C1CCCCC1", "physical_data": {"Molecular Weight": "112.21", "Molecular Formula": "C8H16", "Boiling Point": "131.9 \u00b0C", "Melting Point": "-111.3 \u00b0C", "Density": "0.7840 g/cm\u00b3 @ Temp: 20 \u00b0C"}}