{"cas_no": "16788-57-1", "cn_name": "\u78f7\u9178\u6c22\u4e8c\u94be,\u4e09\u6c34\u5408\u7269", "en_name": ["Dipotassium hydrogen phosphate trihydrate", "Phosphoric acid, dipotassium salt, trihydrate", "Dipotassium hydrogen phosphate (K2HPO4) trihydrate", "Dipotassium monophosphate trihydrate", "Dipotassium hydrogen phosphate trihydrate"], "SMILES": "P(=O)(O)(O)O.[K].O", "physical_data": {"Molecular Weight": "", "Molecular Formula": "H3O4P.3H2O.2K", "Melting Point": "53 \u00b0C"}}