{"cas_no": "1678-25-7", "cn_name": "N-\u82ef\u57fa\u82ef\u78fa\u9170\u80fa", "en_name": ["N-Phenylbenzenesulfonamide", "Benzenesulfonamide, N-phenyl-", "Benzenesulfonanilide", "N-Phenylbenzenesulfonamide", "N-Benzenesulfonylaniline", "NSC 30178", "NSC 48357"], "SMILES": "N(S(=O)(=O)C1=CC=CC=C1)C2=CC=CC=C2", "physical_data": {"Molecular Weight": "233.29", "Molecular Formula": "C12H11NO2S", "Melting Point": "110 \u00b0C"}}