{"cas_no": "1678-93-9", "cn_name": "\u4e01\u57fa\u73af\u5df1\u70f7", "en_name": ["Butylcyclohexane", "Cyclohexane, butyl-", "Butylcyclohexane", "Butane, 1-cyclohexyl-", "n-Butylcyclohexane", "NSC 8469"], "SMILES": "C(CCC)C1CCCCC1", "physical_data": {"Molecular Weight": "140.27", "Molecular Formula": "C10H20", "Boiling Point": "180.9 \u00b0C", "Melting Point": "-74.7 \u00b0C", "Density": "0.8178 g/cm\u00b3 @ Temp: 20 \u00b0C"}}