{"cas_no": "1678-97-3", "cn_name": "1,2,3-\u4e09\u7532\u57fa\u73af\u5df1\u70f7", "en_name": ["1,2,3-Trimethylcyclohexane", "Cyclohexane, 1,2,3-trimethyl-", "1,2,3-Trimethylcyclohexane"], "SMILES": "CC1C(C)CCCC1C", "physical_data": {"Molecular Weight": "126.24", "Molecular Formula": "C9H18", "Boiling Point": "142 \u00b0C"}}