{"cas_no": "16799-05-6", "cn_name": "1-(2-\u6eb4\u4e59\u57fa)-3-\u6c2f\u82ef", "en_name": ["1-(2-Bromoethyl)-3-chlorobenzene", "Benzene, 1-(2-bromoethyl)-3-chloro-", "1-(2-Bromoethyl)-3-chlorobenzene", "2-(3-Chlorophenyl)-1-bromoethane", "3-Chlorophenethyl bromide", "2-(3-Chlorophenyl)ethyl bromide"], "SMILES": "C(CBr)C1=CC(Cl)=CC=C1", "physical_data": {"Molecular Weight": "219.51", "Molecular Formula": "C8H8BrCl", "Boiling Point": "85 \u00b0C @ Press: 0.1 Torr"}}