{"cas_no": "1679-07-8", "cn_name": "\u73af\u620a\u786b\u9187", "en_name": ["Cyclopentanethiol", "Cyclopentanethiol", "Cyclopentyl mercaptan", "Mercaptocyclopentane", "Cyclopentylthiol"], "SMILES": "SC1CCCC1", "physical_data": {"Molecular Weight": "102.20", "Molecular Formula": "C5H10S", "Boiling Point": "132.1 \u00b0C", "Density": "0.9485 g/cm\u00b3 @ Temp: 420 \u00b0C"}}