{"cas_no": "1679-64-7", "cn_name": "\u5bf9\u82ef\u4e8c\u7532\u9178\u5355\u7532\u916f", "en_name": ["Monomethyl terephthalate", "1,4-Benzenedicarboxylic acid, 1-methyl ester", "1,4-Benzenedicarboxylic acid, monomethyl ester", "Terephthalic acid, monomethyl ester", "Hydrogen methyl terephthalate", "Methyl hydrogen terephthalate", "Monomethyl terephthalate", "4-(Methoxycarbonyl)benzoic acid", "4-(Carbomethoxy)benzoic acid", "p-Carbomethoxybenzoic acid", "p-(Methoxycarbonyl)benzoic acid", "Methyl p-carboxybenzoate", "Methyl p-phthalate", "Methyl 4-carboxybenzoate", "NSC 210838", "4-[(Methyloxy)carbonyl]benzoic acid"], "SMILES": "C(OC)(=O)C1=CC=C(C(O)=O)C=C1", "physical_data": {"Molecular Weight": "180.16", "Molecular Formula": "C9H8O4", "Melting Point": "239 \u00b0C"}}