{"cas_no": "1679-51-2", "cn_name": "3-\u73af\u5df1\u70ef-1-\u7532\u9187", "en_name": ["3-Cyclohexene-1-methanol", "3-Cyclohexene-1-methanol", "3-Cyclohexene-1-carbinol", "4-(Hydroxymethyl)-1-cyclohexene", "1-(Hydroxymethyl)-3-cyclohexene", "Cyclohex-3-en-1-ylmethanol", "1,2,3,6-Tetrahydrobenzyl alcohol", "1,2,5,6-Tetrahydrobenzyl alcohol", "Cyclohexen-4-ylmethanol", "(Cyclohex-1-en-4-yl)methanol", "NSC 158554", "3,4-Cyclohexenylmethanol", "Cyclohex-1-ene-4-methanol", "(Cyclohex-3-enyl)methanol", "THBA"], "SMILES": "C(O)C1CCC=CC1", "physical_data": {"Molecular Weight": "112.17", "Molecular Formula": "C7H12O", "Boiling Point": "82 \u00b0C @ Press: 12 Torr"}}