{"cas_no": "1679-18-1", "cn_name": "4-\u6c2f\u82ef\u787c\u9178", "en_name": ["(4-Chlorophenyl)boronic acid", "Boronic acid, B-(4-chlorophenyl)-", "Benzeneboronic acid, p-chloro-", "Boronic acid, (4-chlorophenyl)-", "B-(4-Chlorophenyl)boronic acid", "(p-Chlorophenyl)boronic acid", "p-Chlorobenzeneboronic acid", "4-Chlorobenzeneboronic acid", "(4-Chlorophenyl)boronic acid", "NSC 25408", "4-Chlorophenylboronic acid"], "SMILES": "B(O)(O)C1=CC=C(Cl)C=C1", "physical_data": {"Molecular Weight": "156.37", "Molecular Formula": "C6H6BClO2", "Melting Point": "260 \u00b0C"}}