{"cas_no": "1679-53-4", "cn_name": "10-\u7f9f\u57fa\u7678\u9178", "en_name": ["10-Hydroxydecanoic acid", "Decanoic acid, 10-hydroxy-", "10-Hydroxydecanoic acid", "NSC 15139"], "SMILES": "C(CCCCCO)CCCC(O)=O", "physical_data": {"Molecular Weight": "188.26", "Molecular Formula": "C10H20O3", "Melting Point": "75.5-76.5 \u00b0C"}}