{"cas_no": "167933-07-5", "cn_name": "\u6c1f\u7acb\u73ed\u4e1d\u6c28", "en_name": ["Flibanserin", "2H-Benzimidazol-2-one, 1,3-dihydro-1-[2-[4-[3-(trifluoromethyl)phenyl]-1-piperazinyl]ethyl]-", "1,3-Dihydro-1-[2-[4-[3-(trifluoromethyl)phenyl]-1-piperazinyl]ethyl]-2H-benzimidazol-2-one", "BIMT 17", "Flibanserin", "BIMT 17BS", "Addyi", "1-(2-[4-[3-(Trifluoromethyl)phenyl]piperazin-1-yl]ethyl)-1,3-dihydro-2H-benzimidazol-2-one"], "SMILES": "C(CN1CCN(CC1)C2=CC(C(F)(F)F)=CC=C2)N3C=4C(NC3=O)=CC=CC4", "physical_data": {"Molecular Weight": "390.40", "Molecular Formula": "C20H21F3N4O", "Melting Point": "150-152 \u00b0C"}}