{"cas_no": "1679-47-6", "cn_name": "\u03b1-\u7532\u57fa-\u03b3-\u4e01\u5185\u916f", "en_name": ["\u03b1-Methyl-\u03b3-butyrolactone", "2(3H)-Furanone, dihydro-3-methyl-", "Butyric acid, 4-hydroxy-2-methyl-, \u03b3-lactone", "Butyric acid, \u03b3-hydroxy-\u03b1-methyl-, \u03b3-lactone", "Dihydro-3-methyl-2(3H)-furanone", "\u03b1-Methyl-\u03b3-butyrolactone", "2-Methylbutanolide", "2-Methyl-\u03b3-butyrolactone", "2-Methyl-4-butanolide", "4-Hydroxy-2-methylbutyric acid lactone", "\u03b1-Methylbutyrolactone", "4-Hydroxy-2-methylbutanoic acid lactone", "2-Methylbutyrolactone", "3-Methyltetrahydrofuran-2-one", "3-Methyl-2-oxooxolane", "(\u00b1)-2-Methylbutyrolactone", "(\u00b1)-\u03b1-Methyl-\u03b3-butyrolactone", "(\u00b1)-Dihydro-3-methyl-2(3H)-furanone", "NSC 102837", "3-Methyldihydrofuran-2(3H)-one", "3-Methyldihydrofuran-2-one", "3-Methyloxolan-2-one"], "SMILES": "CC1C(=O)OCC1", "physical_data": {"Molecular Weight": "100.12", "Molecular Formula": "C5H8O2", "Boiling Point": "200-201 \u00b0C @ Press: 745 Torr", "Density": "1.047 g/cm\u00b3 @ Temp: 26 \u00b0C"}}