{"cas_no": "1679-09-0", "cn_name": "2-\u7532\u57fa-2-\u4e01\u786b\u9187", "en_name": ["2-Methyl-2-butanethiol", "2-Butanethiol, 2-methyl-", "2-Methyl-2-butanethiol", "tert-Amyl mercaptan", "tert-Pentyl mercaptan", "tert-Amylthiol", "1,1-Dimethyl-1-propanethiol", "2-Ethyl-2-propanethiol", "NSC 229571", "NSC 60251"], "SMILES": "C(CC)(C)(C)S", "physical_data": {"Molecular Weight": "104.21", "Molecular Formula": "C5H12S", "Boiling Point": "99.1 \u00b0C", "Density": "0.82588 g/cm\u00b3 @ Temp: 20 \u00b0C"}}