{"cas_no": "168050-39-3", "cn_name": "4-N-CBZ-\u6c28\u57fa\u7532\u57fa\u82ef\u80fa", "en_name": ["Phenylmethyl N-[(4-aminophenyl)methyl]carbamate", "Carbamic acid, N-[(4-aminophenyl)methyl]-, phenylmethyl ester", "Carbamic acid, [(4-aminophenyl)methyl]-, phenylmethyl ester", "Phenylmethyl N-[(4-aminophenyl)methyl]carbamate", "(4-Aminobenzyl)carbamic acid benzyl ester", "Benzyl N-[(4-aminobenzyl)carbamate"], "SMILES": "C(NC(OCC1=CC=CC=C1)=O)C2=CC=C(N)C=C2", "physical_data": {"Molecular Weight": "256.30", "Molecular Formula": "C15H16N2O2", "Melting Point": "173 \u00b0C"}}