{"cas_no": "168088-61-7", "cn_name": "\u5627\u5576\u809f\u8349\u919a", "en_name": ["Pyribenzoxim", "Methanone, diphenyl-, O-[2,6-bis[(4,6-dimethoxy-2-pyrimidinyl)oxy]benzoyl]oxime", "LGC 40863", "Pyanchor", "Pyribenzoxim", "Kiljabi gold"], "SMILES": "C(ON=C(C1=CC=CC=C1)C2=CC=CC=C2)(=O)C3=C(OC=4N=C(OC)C=C(OC)N4)C=CC=C3OC=5N=C(OC)C=C(OC)N5", "physical_data": {"Molecular Weight": "609.59", "Molecular Formula": "C32H27N5O8", "Melting Point": "129 \u00b0C"}}