{"cas_no": "1680-36-0", "cn_name": "\u58ec\u9178\u9150", "en_name": ["Nonanoic acid, 1,1\u2032-anhydride", "Nonanoic acid, 1,1\u2032-anhydride", "Nonanoic anhydride", "Nonanoic acid, anhydride", "Pelargonic anhydride"], "SMILES": "C(OC(CCCCCCCC)=O)(CCCCCCCC)=O", "physical_data": {"Molecular Weight": "298.46", "Molecular Formula": "C18H34O3", "Boiling Point": "90-94 \u00b0C", "Melting Point": "14.8 \u00b0C"}}