{"cas_no": "16807-13-9", "cn_name": "3-\u7898-9H-\u5494\u5511", "en_name": ["3-Iodocarbazole", "9H-Carbazole, 3-iodo-", "Carbazole, 3-iodo-", "3-Iodo-9H-carbazole", "3-Iodocarbazole"], "SMILES": "IC=1C=C2C=3C(NC2=CC1)=CC=CC3", "physical_data": {"Molecular Weight": "293.10", "Molecular Formula": "C12H8IN", "Melting Point": "192-194 \u00b0C"}}