{"cas_no": "168080-49-7", "cn_name": "2-\u6c2f-4-[(5-\u6c1f-2-\u7532\u57fa\u82ef\u7532\u9170)\u6c28\u57fa]\u82ef\u7532\u9178", "en_name": ["2-Chloro-4-[(5-fluoro-2-methylbenzoyl)amino]benzoic acid", "Benzoic acid, 2-chloro-4-[(5-fluoro-2-methylbenzoyl)amino]-", "2-Chloro-4-[(5-fluoro-2-methylbenzoyl)amino]benzoic acid", "2-Chloro-4-(5-fluoro-2-methylbenzamido)benzoic acid", "2-Chloro-4-(5-fluoro-2-methylbenzamido)benzoicacid"], "SMILES": "N(C(=O)C1=C(C)C=CC(F)=C1)C2=CC(Cl)=C(C(O)=O)C=C2", "physical_data": {"Molecular Weight": "307.70", "Molecular Formula": "C15H11ClFNO3", "Melting Point": "247-249 \u00b0C"}}