{"cas_no": "16807-60-6", "cn_name": "3-\u7532\u6c27\u57fa-2-\u73af\u5df1\u70ef-1-\u916e", "en_name": ["3-Methoxy-2-cyclohexen-1-one", "2-Cyclohexen-1-one, 3-methoxy-", "3-Methoxy-2-cyclohexen-1-one", "3-Methoxy-2-cyclohexenone"], "SMILES": "O(C)C1=CC(=O)CCC1", "physical_data": {"Molecular Weight": "126.15", "Molecular Formula": "C7H10O2", "Boiling Point": "79 \u00b0C @ Press: 3 Torr", "Melting Point": "30-31 \u00b0C"}}