{"cas_no": "1680-21-3", "cn_name": "\u4e09\u4e59\u4e8c\u9187\u4e8c\u4e19\u70ef\u9178\u916f", "en_name": ["Light Acrylate 3EG-A", "2-Propenoic acid, 1,1\u2032-[1,2-ethanediylbis(oxy-2,1-ethanediyl)] ester", "Acrylic acid, diester with triethylene glycol", "2-Propenoic acid, 1,2-ethanediylbis(oxy-2,1-ethanediyl) ester", "Triethylene glycol, diacrylate", "SR 272", "Light Acrylate 3EG-A", "Kayarad PEG 100DA", "Aronix MT 2506", "3EG-A", "M 232", "Genomer 1225", "Miramer M 232", "2-[2-(2-Prop-2-enoyloxyethoxy)ethoxy]ethyl prop-2-enoate"], "SMILES": "C(OCCOCCOCCOC(C=C)=O)(C=C)=O", "physical_data": {"Molecular Weight": "258.27", "Molecular Formula": "C12H18O6", "Boiling Point": "350 \u00b0C"}}