{"cas_no": "16803-97-7", "cn_name": "4,4'-\u4e8c\u6c28\u57fa\u82ef\u78fa\u9170\u82ef\u80fa", "en_name": ["4,4\u2032-Diaminobenzenesulfonanilide", "Benzenesulfonamide, 4-amino-N-(4-aminophenyl)-", "Sulfanilanilide, 4\u2032-amino-", "4-Amino-N-(4-aminophenyl)benzenesulfonamide", "p-Aminobenzenesulfanilamide", "4,4\u2032-Diaminodiphenyl sulfonamide", "4,4\u2032-Diaminobenzenesulfonanilide", "N1-p-Aminophenylsulfanilamide", "N-(4-Aminophenyl)-4-aminobenzenesulfonamide", "4,4\u2032-Diaminosulfanilide", "DASA"], "SMILES": "S(NC1=CC=C(N)C=C1)(=O)(=O)C2=CC=C(N)C=C2", "physical_data": {"Molecular Weight": "263.32", "Molecular Formula": "C12H13N3O2S", "Melting Point": "138 \u00b0C"}}