{"cas_no": "1680-31-5", "cn_name": "\u78b3\u9178\u4e8c\u8f9b\u916f", "en_name": ["Dicaprylyl carbonate", "Carbonic acid, dioctyl ester", "Dioctyl carbonate", "Cetiol CC", "Dicaprylyl carbonate", "Cetiol DD"], "SMILES": "O(C(OCCCCCCCC)=O)CCCCCCCC", "physical_data": {"Molecular Weight": "286.45", "Molecular Formula": "C17H34O3", "Boiling Point": "117-119 \u00b0C @ Press: 0.7-1 Torr", "Melting Point": "-18 \u00b0C", "Density": "0.895 g/cm\u00b3 @ Temp: 22 \u00b0C"}}