{"cas_no": "1681-17-0", "cn_name": "3-\u4e59\u9170\u57fa-3-\u7532\u57fa\u620a\u70f7\u4e8c\u8148", "en_name": ["4-Acetyl-4-methylheptanedinitrile", "Heptanedinitrile, 4-acetyl-4-methyl-", "4-Acetyl-4-methylheptanedinitrile", "2,2-Bis(\u03b2-cyanoethyl)-3-butanone", "4-Acetyl-4-methylpimelonitrile", "NSC 2767", "NSC 404930"], "SMILES": "C(CCC#N)(CCC#N)(C(C)=O)C", "physical_data": {"Molecular Weight": "178.23", "Molecular Formula": "C10H14N2O", "Boiling Point": "200-203 \u00b0C @ Press: 1.5 Torr", "Melting Point": "67 \u00b0C"}}