{"cas_no": "16817-43-9", "cn_name": "5-\u6eb4-2-\u6c2f\u82ef\u7532\u919a", "en_name": ["5-Bromo-2-chloroanisole", "Benzene, 4-bromo-1-chloro-2-methoxy-", "Anisole, 5-bromo-2-chloro-", "4-Bromo-1-chloro-2-methoxybenzene", "2-Chloro-5-bromoanisole", "5-Bromo-2-chloroanisole", "4-Chloro-3-methoxybromobenzene", "5-Bromo-2-chloro-1-methoxybenzene", "3-Bromo-6-chloroanisole", "1-Bromo-4-chloro-3-methoxybenzene"], "SMILES": "O(C)C1=C(Cl)C=CC(Br)=C1", "physical_data": {"Molecular Weight": "221.48", "Molecular Formula": "C7H6BrClO", "Boiling Point": "114 \u00b0C @ Press: 9 Torr", "Melting Point": "27-28 \u00b0C"}}