{"cas_no": "1681-37-4", "cn_name": "4-\u6c28\u57fa-3-\u785d\u57fa\u5421\u5576", "en_name": ["4-Amino-3-nitropyridine", "4-Pyridinamine, 3-nitro-", "Pyridine, 4-amino-3-nitro-", "3-Nitro-4-pyridinamine", "4-Amino-3-nitropyridine", "3-Nitro-4-aminopyridine"], "SMILES": "N(=O)(=O)C=1C(N)=CC=NC1", "physical_data": {"Molecular Weight": "139.11", "Molecular Formula": "C5H5N3O2", "Melting Point": "203 \u00b0C"}}