{"cas_no": "168297-85-6", "cn_name": "(S)-(-)-4-\u82c4\u57fa-5,5-\u4e8c\u7532\u57fa-2-\u6076\u5511\u70f7\u916e", "en_name": ["(S)-4-Benzyl-5,5-dimethyloxazolidin-2-one", "2-Oxazolidinone, 5,5-dimethyl-4-(phenylmethyl)-, (4S)-", "2-Oxazolidinone, 5,5-dimethyl-4-(phenylmethyl)-, (S)-", "(4S)-5,5-Dimethyl-4-(phenylmethyl)-2-oxazolidinone", "(S)-4-Benzyl-5,5-dimethyloxazolidin-2-one", "(S)-(-)-4-Benzyl-5,5-dimethyl-2-oxazolidinone", "4S-Benzyl-5,5-dimethyloxazolidin-2-one", "(4S)-4-Benzyl-5,5-dimethyloxazolidin-2-one", "(4S)-4-Benzyl-5,5-dimethyloxazolidin-2-one", "(4S)-4-Benzyl-5,5-dimethyl-1,3-oxazolidin-2-one"], "SMILES": "C(C1C(C)(C)OC(=O)N1)C2=CC=CC=C2", "physical_data": {"Molecular Weight": "205.25", "Molecular Formula": "C12H15NO2", "Melting Point": "66-67 \u00b0C"}}