{"cas_no": "168293-15-0", "cn_name": "3-\u8868\u53bb\u6c22\u832f\u82d3\u9178", "en_name": ["3-Epidehydropachymic acid", "Lanosta-7,9(11)-dien-21-oic acid, 3-(acetyloxy)-16-hydroxy-24-methylene-, (3\u03b1,16\u03b1)-", "(3\u03b1,16\u03b1)-3-(Acetyloxy)-16-hydroxy-24-methylenelanosta-7,9(11)-dien-21-oic acid", "3-Epidehydropachymic acid", "3-epi-Dehydropachymic acid"], "SMILES": "CC12C(C)(C(C(CCC(C(C)C)=C)C(O)=O)C(O)C1)CC=C3C2=CCC4C3(C)CCC(OC(C)=O)C4(C)C", "physical_data": {"Molecular Weight": "526.75", "Molecular Formula": "C33H50O5", "Melting Point": "276-278 \u00b0C"}}