{"cas_no": "168293-10-5", "cn_name": "C-\u85dc\u82a6\u9170\u4e59\u4e8c\u9187", "en_name": ["C-Veratroylglycol", "1-Propanone, 2,3-dihydroxy-1-(4-hydroxy-3-methoxyphenyl)-", "2,3-Dihydroxy-1-(4-hydroxy-3-methoxyphenyl)-1-propanone", "C-Veratroylglycol", "2,3-Dihydroxy-1-(4-hydroxy-3-methoxyphenyl)propan-1-one"], "SMILES": "C(C(CO)O)(=O)C1=CC(OC)=C(O)C=C1", "physical_data": {"Molecular Weight": "212.20", "Molecular Formula": "C10H12O5", "Melting Point": "54 \u00b0C"}}