{"cas_no": "16829-91-7", "cn_name": "\u56db\u6b63\u8f9b\u57fa\u7898\u5316\u94f5", "en_name": ["1-Octanaminium, N,N,N-trioctyl-, iodide (1:1)", "1-Octanaminium, N,N,N-trioctyl-, iodide (1:1)", "Ammonium, tetraoctyl-, iodide", "Tetraoctylammonium iodide", "1-Octanaminium, N,N,N-trioctyl-, iodide", "Tetra-n-octylammonium iodide"], "SMILES": "[N+](CCCCCCCC)(CCCCCCCC)(CCCCCCCC)CCCCCCCC.[I-]", "physical_data": {"Molecular Weight": "", "Molecular Formula": "C32H68N.I", "Melting Point": "121-122 \u00b0C"}}