{"cas_no": "168273-06-1", "cn_name": "\u5229\u83ab\u90a3\u73ed", "en_name": ["Rimonabant", "1H-Pyrazole-3-carboxamide, 5-(4-chlorophenyl)-1-(2,4-dichlorophenyl)-4-methyl-N-1-piperidinyl-", "5-(4-Chlorophenyl)-1-(2,4-dichlorophenyl)-4-methyl-N-1-piperidinyl-1H-pyrazole-3-carboxamide", "SR 141716", "Rimonabant", "Acomplia", "A 281", "N-Piperidino-5-(4-chlorophenyl)-1-(2,4-dichlorophenyl)-4-methylpyrazole-3-carboxamide", "1-(2,4-Dichlorophenyl)-5-(4-chlorophenyl)-4-methyl-N-(piperidin-1-yl)-1H-pyrazole-3-carboxamide", "5-(4-Chlorophenyl)-1-(2,4-dichlorophenyl)-4-methyl-1H-pyrazole-3-carboxylic acid N-(piperidin-1-yl)amide", "5-(4-Chlorophenyl)-1-(2,4-dichlorophenyl)-4-methyl-N-(piperidin-1-yl)-1H-pyrazole-3-carboxamide", "SR 141617", "Zimulti", "ENP 9"], "SMILES": "CC1=C(N(N=C1C(NN2CCCCC2)=O)C3=C(Cl)C=C(Cl)C=C3)C4=CC=C(Cl)C=C4", "physical_data": {"Molecular Weight": "463.79", "Molecular Formula": "C22H21Cl3N4O", "Melting Point": "154.7 \u00b0C"}}