{"cas_no": "16839-98-8", "cn_name": "\u53bb\u7532\u963f\u6258\u54c1", "en_name": ["Noratropine", "Benzeneacetic acid, \u03b1-(hydroxymethyl)-, (3-endo)-8-azabicyclo[3.2.1]oct-3-yl ester", "1\u03b1H,5\u03b1H-Nortropan-3\u03b1-ol, (\u00b1)-tropate (ester)", "Benzeneacetic acid, \u03b1-(hydroxymethyl)-, 8-azabicyclo[3.2.1]oct-3-yl ester, endo-(\u00b1)-", "Noratropine", "Benzeneacetic acid, \u03b1-(hydroxymethyl)-, 8-azabicyclo[3.2.1]oct-3-yl ester, endo-", "N-Demethylatropine"], "SMILES": "O(C(C(CO)C1=CC=CC=C1)=O)C2CC3NC(C2)CC3", "physical_data": {"Molecular Weight": "275.34", "Molecular Formula": "C16H21NO3", "Melting Point": "113-114 \u00b0C"}}