{"cas_no": "16837-52-8", "cn_name": "\u6c27\u5316\u82e6\u53c2\u78b1", "en_name": ["Oxymatrine", "1H,5H,10H-Dipyrido[2,1-f:3\u2032,2\u2032,1\u2032-ij][1,6]naphthyridin-10-one, dodecahydro-, 4-oxide, (4R,7aS,13aR,13bR,13cS)-", "Matridin-15-one, 1-oxide, (1\u03b2)-", "Matrine, 1-oxide", "Matrine, N-oxide", "Oxymatrine", "Matrine N1-oxide", "Matrine 1\u03b2-oxide", "(+)-Matrine N-oxide", "(+)-Oxymatrine", "1H,5H,10H-Dipyrido[2,1-f:3\u2032,2\u2032,1\u2032-ij][1,6]naphthyridin-10-one, dodecahydro-, 4-oxide, [4R-(4\u03b1,7a\u03b2,13a\u03b1,13b\u03b2,13c\u03b2)]-", "Ammothamnine"], "SMILES": "O=N12C3C(C4N(CC3CCC1)C(=O)CCC4)CCC2", "physical_data": {"Molecular Weight": "264.36", "Molecular Formula": "C15H24N2O2", "Melting Point": "199-201 \u00b0C"}}