{"cas_no": "16834-13-2", "cn_name": "\u95f4-\u56db(4-\u5421\u5576\u57fa)\u535f\u5429", "en_name": ["Tetra(4-pyridyl)porphyrin", "21H,23H-Porphine, 5,10,15,20-tetra-4-pyridinyl-", "Porphine, 5,10,15,20-tetra-4-pyridyl-", "Porphine, \u03b1,\u03b2,\u03b3,\u03b4-tetra-4-pyridyl-", "5,10,15,20-Tetra-4-pyridinyl-21H,23H-porphine", "\u03b1,\u03b2,\u03b3,\u03b4-Tetra-4-pyridylporphine", "Tetrakis(4-pyridyl)porphine", "5,10,15,20-Tetra(4-pyridyl)porphine", "Tetrakis(4-pyridyl)porphyrin", "Tetra(4-pyridyl)porphyrin", "meso-Tetra(4-pyridyl)porphyrin", "5,10,15,20-Tetra(4-pyridyl)porphyrin", "Mesotetra(4-pyridyl)porphyrin", "meso-Tetrakis(4-pyridyl)porphine", "5,10,15,20-Tetrakis(4-pyridyl)-21H,23H-porphine", "meso-Tetrakis(4-pyridyl)porphyrin", "5,10,15,20-Tetrakis(4\u2032-N-pyridyl)porphyrin", "5,10,15,20-Tetra(4-pyridyl)-21H,23H-porphine", "meso-Tetra(4-pyridyl)porphine", "5,10,15,20-Tetrakis(4-pyridyl)porphyrin", "5,10,15,20-Tetrakis(4-pyridinyl)-21H,23H-porphine", "Tetra(4-pyridyl)porphine", "\u03b1,\u03b2,\u03b3,\u03b4-Tetrakis(4-pyridyl)porphine", "5,10,15,20-Tetrakis(4-pyridyl)-21H,23H-porphyrin", "meso-Tetrakis(pyridin-4-yl)porphine", "5,10,15,20-Tetra(4-pyridyl)-21H,23H-porphyrin"], "SMILES": "C=1(C=2NC(=CC2)C(=C3N=C(C=C3)C(=C4NC(=C(C5=NC1C=C5)C=6C=CN=CC6)C=C4)C=7C=CN=CC7)C=8C=CN=CC8)C=9C=CN=CC9", "physical_data": {"Molecular Weight": "618.69", "Molecular Formula": "C40H26N8", "Melting Point": "&gt;300 \u00b0C"}}