{"cas_no": "16830-15-2", "cn_name": "\u79ef\u96ea\u8349\u82f7", "en_name": ["Asiaticoside", "Urs-12-en-28-oic acid, 2,3,23-trihydroxy-, O-6-deoxy-\u03b1-L-mannopyranosyl-(1\u21924)-O-\u03b2-D-glucopyranosyl-(1\u21926)-\u03b2-D-glucopyranosyl ester, (2\u03b1,3\u03b2,4\u03b1)-", "Madecassol", "Asiaticoside", "Ba 2742", "Asiaticosid", "Centelase dermatologico", "NSC 166062", "NSC 36002", "HerbEx Centella Extract"], "SMILES": "C(OC1OC(COC2OC(CO)C(OC3C(O)C(O)C(O)C(C)O3)C(O)C2O)C(O)C(O)C1O)(=O)C45C(C=6C(C)(CC4)C7(C)C(CC6)C8(C)C(CC7)C(CO)(C)C(O)C(O)C8)C(C)C(C)CC5", "physical_data": {"Molecular Weight": "959.12", "Molecular Formula": "C48H78O19", "Melting Point": "230-233 \u00b0C"}}