{"cas_no": "16837-38-0", "cn_name": "3-\u5421\u5576\u7532\u9178\u9150", "en_name": ["Nicotinic anhydride", "3-Pyridinecarboxylic acid, 1,1\u2032-anhydride", "Nicotinic anhydride", "3-Pyridinecarboxylic acid, anhydride", "Nicotinic acid anhydride", "Nicotinoyl anhydride", "NSC 72756", "Pyridine-3-carboxylic anhydride"], "SMILES": "C(OC(=O)C=1C=CC=NC1)(=O)C=2C=CC=NC2", "physical_data": {"Molecular Weight": "228.20", "Molecular Formula": "C12H8N2O3", "Melting Point": "122-124 \u00b0C"}}