{"cas_no": "16839-13-7", "cn_name": "(4-\u6eb4\u82ef\u57fa)\u81a6\u9178", "en_name": ["P-(4-Bromophenyl)phosphonic acid", "Phosphonic acid, P-(4-bromophenyl)-", "Phosphonic acid, (p-bromophenyl)-", "Phosphonic acid, (4-bromophenyl)-", "P-(4-Bromophenyl)phosphonic acid", "p-Bromobenzenephosphonic acid", "NSC 13558", "4-Bromophenylphosphonic acid"], "SMILES": "P(=O)(O)(O)C1=CC=C(Br)C=C1", "physical_data": {"Molecular Weight": "236.99", "Molecular Formula": "C6H6BrO3P", "Melting Point": "200-202 \u00b0C"}}