{"cas_no": "16839-97-7", "cn_name": "2-\u7532\u6c27\u57fa\u567b\u5429", "en_name": ["2-Methoxythiophene", "Thiophene, 2-methoxy-", "2-Methoxythiophene"], "SMILES": "O(C)C1=CC=CS1", "physical_data": {"Molecular Weight": "114.17", "Molecular Formula": "C5H6OS", "Boiling Point": "74-75 \u00b0C @ Press: 50 Torr", "Density": "1.120 g/cm\u00b3 @ Temp: 25 \u00b0C"}}