{"cas_no": "16836-95-6", "cn_name": "\u5bf9\u7532\u82ef\u78fa\u9178\u94f6", "en_name": ["Silver tosylate", "Benzenesulfonic acid, 4-methyl-, silver(1+) salt (1:1)", "p-Toluenesulfonic acid, silver(1+) salt", "Benzenesulfonic acid, 4-methyl-, silver(1+) salt", "Silver tosylate", "Silver p-toluenesulfonate", "Silver p-tosylate", "Silver p-methylbenzenesulfonate", "Silver 4-methylbenzenesulfonate", "Silver(1+) p-toluenesulfonate", "Silver(1+) 4-toluenesulfonate", "Silver p-tolylsulfonate", "Silver(I) tosylate", "Silver(1+) 4-methylbenzenesulfonate", "Silver(I) p-toluenesulfonate"], "SMILES": "S(=O)(=O)(O)C1=CC=C(C)C=C1.[Ag]", "physical_data": {"Molecular Weight": "", "Molecular Formula": "C7H8O3S.Ag", "Melting Point": "250 \u00b0C"}}