{"cas_no": "1683-49-4", "cn_name": "4-\u00f33(\u4e09\u6c1f\u7532\u57fa)\u82ef\u57fa-4-\u54cc\u5576\u9187\u76d0\u9178\u76d0", "en_name": ["4-Piperidinol, 4-[3-(trifluoromethyl)phenyl]-, hydrochloride (1:1)", "4-Piperidinol, 4-[3-(trifluoromethyl)phenyl]-, hydrochloride (1:1)", "4-Piperidinol, 4-(\u03b1,\u03b1,\u03b1-trifluoro-m-tolyl)-, hydrochloride", "4-Piperidinol, 4-[3-(trifluoromethyl)phenyl]-, hydrochloride", "4-(3-Trifluoromethylphenyl)-4-piperidinol hydrochloride"], "SMILES": "OC1(CCNCC1)C2=CC(C(F)(F)F)=CC=C2.Cl", "physical_data": {"Molecular Weight": "", "Molecular Formula": "C12H14F3NO.ClH", "Melting Point": "168.5-169.5 \u00b0C"}}