{"cas_no": "1683-86-9", "cn_name": "2-\u6c28\u57fa-5-\u6c1f-1H-\u5421\u5576-4-\u916e", "en_name": ["2-Amino-5-fluoro-4(3H)-pyrimidinone", "4(3H)-Pyrimidinone, 2-amino-5-fluoro-", "4-Pyrimidinol, 2-amino-5-fluoro-", "4(1H)-Pyrimidinone, 2-amino-5-fluoro-", "2-Amino-5-fluoro-4(3H)-pyrimidinone", "5-Fluoroisocytosine", "2-Amino-5-fluoro-3,4-dihydropyrimidin-4-one", "2-Amino-5-fluoro-1H-pyrimidin-6-one", "2-Amino-5-fluoropyrimidin-4-ol", "2-Amino-5-fluoro-1,4-dihydropyrimidin-4-one"], "SMILES": "O=C1C(F)=CN=C(N)N1", "physical_data": {"Molecular Weight": "129.09", "Molecular Formula": "C4H4FN3O", "Melting Point": "271-274 \u00b0C"}}