{"cas_no": "16832-24-9", "cn_name": "1-\u82c4\u57fa-L-\u7ec4\u6c28\u9178", "en_name": ["1-(Phenylmethyl)-L-histidine", "L-Histidine, 1-(phenylmethyl)-", "Histidine, 1-benzyl-, L-", "Histidine, 1-benzyl-", "Imidazole-4-alanine, 1-benzyl-", "1-(Phenylmethyl)-L-histidine", "1-Benzyl-L-histidine", "3-Benzyl-L-histidine", "1-Benzylhistidine", "NSC 231954", "(S)-2-Amino-3-(1-benzyl-1H-imidazol-4-yl)propanoicacid", "(S)-2-Amino-3-(1-benzyl-1H-imidazol-4-yl)propanoic acid"], "SMILES": "C(N1C=C(CC(C(O)=O)N)N=C1)C2=CC=CC=C2", "physical_data": {"Molecular Weight": "245.28", "Molecular Formula": "C13H15N3O2", "Melting Point": "240 \u00b0C"}}