{"cas_no": "1684-40-8", "cn_name": "\u56db\u6c22\u6c28\u57fa\u5416\u5576", "en_name": ["Tacrine hydrochloride", "9-Acridinamine, 1,2,3,4-tetrahydro-, hydrochloride (1:1)", "Acridine, 9-amino-1,2,3,4-tetrahydro-, monohydrochloride", "9-Acridinamine, 1,2,3,4-tetrahydro-, monohydrochloride", "Acridine, 9-amino-1,2,3,4-tetrahydro-, hydrochloride", "Hydroaminacrine", "Tacrin hydrochloride", "Romotal", "Tenakrin", "THA", "Tacrine hydrochloride", "1,2,3,4-Tetrahydro-9-aminoacridine hydrochloride", "CI 970", "Cognex", "9-Amino-1,2,3,4-Tetrahydroacridine hydrochloride", "5,6,7,8-Tetrahydroacridin-9-amine hydrochloride"], "SMILES": "NC1=C2C(=NC=3C1=CC=CC3)CCCC2.Cl", "physical_data": {"Molecular Weight": "", "Molecular Formula": "C13H14N2.ClH", "Melting Point": "283-284 \u00b0C"}}