{"cas_no": "16849-88-0", "cn_name": "\u4e8c\u7532\u80fa\u4e9a\u7532\u57fa\u4e19\u4e8c\u8148", "en_name": ["[(Dimethylamino)methylene]propanedinitrile", "Propanedinitrile, 2-[(dimethylamino)methylene]-", "Malononitrile, [(dimethylamino)methylene]-", "Propanedinitrile, [(dimethylamino)methylene]-", "2-[(Dimethylamino)methylene]propanedinitrile", "[(Dimethylamino)methylene]malononitrile", "[(Dimethylamino)methylene]propanedinitrile", "NSC 168421", "2-[(Dimethylamino)methylidene]propanedinitrile", "2-(Dimethylaminomethylidene)propanedinitrile"], "SMILES": "C(=CN(C)C)(C#N)C#N", "physical_data": {"Molecular Weight": "121.14", "Molecular Formula": "C6H7N3", "Boiling Point": "155-160 \u00b0C @ Press: 0.3 Torr", "Melting Point": "82-83 \u00b0C"}}