{"cas_no": "1684-14-6", "cn_name": "2,3-\u4e8c\u82ef\u57fa\u55b9\u5594\u5549", "en_name": ["2,3-Diphenylquinoxaline", "Quinoxaline, 2,3-diphenyl-", "2,3-Diphenylquinoxaline", "2,3-Diphenyl-1,4-quinoxaline", "NSC 15232"], "SMILES": "C=1(C(=NC2=C(N1)C=CC=C2)C3=CC=CC=C3)C4=CC=CC=C4", "physical_data": {"Molecular Weight": "282.34", "Molecular Formula": "C20H14N2", "Melting Point": "124 \u00b0C"}}