{"cas_no": "16844-71-6", "cn_name": "\u8868\u6728\u6813\u9187", "en_name": ["Epifriedelanol", "24,25,26-Trinoroleanan-3-ol, 5,9,13-trimethyl-, (3\u03b2,4\u03b2,5\u03b2,8\u03b1,9\u03b2,10\u03b1,13\u03b1,14\u03b2)-", "D:A-Friedooleanan-3\u03b2-ol", "D:A-Friedooleanan-3-ol, (3\u03b2)-", "(3\u03b2,4\u03b2,5\u03b2,8\u03b1,9\u03b2,10\u03b1,13\u03b1,14\u03b2)-5,9,13-Trimethyl-24,25,26-trinoroleanan-3-ol", "Epifriedelanol", "Epifriedelinol", "Friedelan-3\u03b2-ol", "Friedelin-3\u03b2-ol", "\u03b2-Friedelinol", "epi-Friedelanol", "Longan triterpane A", "3\u03b2-Hydroxyfriedelane", "3-Epifriedelinol", "3-epi-Friedanol"], "SMILES": "CC12C(C)(C3C(C)(CC1)CCC(C)(C)C3)CCC4(C)C2CCC5(C)C4CCC(O)C5C", "physical_data": {"Molecular Weight": "428.73", "Molecular Formula": "C30H52O", "Melting Point": "279-283 \u00b0C"}}