{"cas_no": "16846-10-9", "cn_name": "2,6-\u4e8c\u7f9f\u57fa-4-\u7532\u57fa\u82ef\u7532\u9178\u7532\u916f", "en_name": ["Methyl 2,6-dihydroxy-4-methylbenzoate", "Benzoic acid, 2,6-dihydroxy-4-methyl-, methyl ester", "\u03b3-Resorcylic acid, 4-methyl-, methyl ester", "Methyl \u03b3-orsellinate", "Methyl 2,6-dihydroxy-4-methylbenzoate", "Methyl p-orsellinate", "p-Orsellinic acid methyl ester", "Methyl 2,6-dihydroxy-p-toluate", "Methyl 4-methyl-2,6-dihydroxybenzoate", "NSC 37990"], "SMILES": "C(OC)(=O)C1=C(O)C=C(C)C=C1O", "physical_data": {"Molecular Weight": "182.17", "Molecular Formula": "C9H10O4", "Melting Point": "98 \u00b0C"}}