{"cas_no": "16846-24-5", "cn_name": "\u4ea4\u6c99\u9709\u7d20", "en_name": ["Josamycin", "Leucomycin V, 3-acetate 4B-(3-methylbutanoate)", "Leucomycin A3", "Oxacyclohexadecane, leucomycin V deriv.", "Antibiotic YL 704A3", "Turimycin A5", "Kitasamycin A3", "Josamycin", "Wilprafen", "Josacine", "Vilprafen", "Jomybel", "Iosalide", "EN 141", "Josamina", "MeSH ID: D015570"], "SMILES": "O(C1C(OC)C(OC(C)=O)CC(=O)OC(C)CC=CC=CC(O)C(C)CC1CC=O)C2C(O)C(N(C)C)C(OC3CC(C)(O)C(OC(CC(C)C)=O)C(C)O3)C(C)O2", "physical_data": {"Molecular Weight": "827.99", "Molecular Formula": "C42H69NO15", "Melting Point": "131.5 \u00b0C"}}