{"cas_no": "16853-85-3", "cn_name": "\u6c22\u5316\u94dd\u9502", "en_name": ["Lithium aluminum hydride", "Aluminate(1-), tetrahydro-, lithium (1:1), (T-4)-", "Aluminate(1-), tetrahydro-, lithium, (T-4)-", "Aluminate(1-), tetrahydro-, lithium", "Aluminum lithium hydride (LiAlH4)", "Lithium aluminum hydride (LiAlH4)", "Lithium aluminum hydride", "Lithium tetrahydroaluminate", "Lithium tetrahydroaluminate(1-)", "Lithium aluminum tetrahydride", "Lithium tetrahydroaluminate (AlLiH4)", "Lithium tetrahydridoaluminate", "Aluminum lithium tetrahydride", "Lithium alanate", "LAH"], "SMILES": "[Al+3]([H-])([H-])([H-])[H-].[Li+]", "physical_data": {"Molecular Weight": "", "Molecular Formula": "AlH4.Li", "Boiling Point": "89-90 \u00b0C @ Press: 2 Torr", "Melting Point": "165-175 \u00b0C", "Density": "0.92 g/cm\u00b3"}}