{"cas_no": "168560-79-0", "cn_name": "AIDA", "en_name": ["1-Aminoindan-1,5-dicarboxylic acid", "1H-Indene-1,5-dicarboxylic acid, 1-amino-2,3-dihydro-", "1-Amino-2,3-dihydro-1H-indene-1,5-dicarboxylic acid", "1-Aminoindan-1,5-dicarboxylic acid", "UPF 523", "AIDA"], "SMILES": "C(O)(=O)C1(N)C=2C(=CC(C(O)=O)=CC2)CC1", "physical_data": {"Molecular Weight": "221.21", "Molecular Formula": "C11H11NO4", "Melting Point": "&gt;300 \u00b0C"}}