{"cas_no": "168555-66-6", "cn_name": "\u5eb7\u666e\u745e\u6c40\u78f7\u9178\u4e8c\u94a0", "en_name": ["Fosbretabulin disodium", "Phenol, 2-methoxy-5-[(1Z)-2-(3,4,5-trimethoxyphenyl)ethenyl]-, 1-(dihydrogen phosphate), sodium salt (1:2)", "Phenol, 2-methoxy-5-[2-(3,4,5-trimethoxyphenyl)ethenyl]-, dihydrogen phosphate, disodium salt, (Z)-", "Phenol, 2-methoxy-5-[(1Z)-2-(3,4,5-trimethoxyphenyl)ethenyl]-, dihydrogen phosphate, disodium salt", "Combretastatin A4 disodium phosphate", "Fosbretabulin disodium", "Fosbretabulin disodium salt", "CA 4DP", "CA 4P", "SML1131"], "SMILES": "O(P(=O)(O)O)C1=C(OC)C=CC(C=CC2=CC(OC)=C(OC)C(OC)=C2)=C1.[Na]", "physical_data": {"Molecular Weight": "", "Molecular Formula": "C18H21O8P.2Na", "Melting Point": "238-242 \u00b0C (decomp)"}}