{"cas_no": "16858-01-8", "cn_name": "\u4e09(2-\u5421\u5576\u57fa\u7532\u57fa)\u80fa", "en_name": ["Tris(2-pyridylmethyl)amine", "2-Pyridinemethanamine, N,N-bis(2-pyridinylmethyl)-", "Pyridine, 2,2\u2032,2\u2032\u2032-[nitrilotris(methylene)]tri-", "N,N-Bis(2-pyridinylmethyl)-2-pyridinemethanamine", "Tris(2-pyridylmethyl)amine", "Tris(2-pyridinylmethyl)amine", "NSC 663674", "(Tris(pyridin-2-ylmethyl)amine)", "1-(Pyridin-2-yl)-N,N-bis(pyridin-2-ylmethyl)methanamine", "1-Pyridin-2-yl-N,N-bis(pyridin-2-ylmethyl)methanamine"], "SMILES": "N(CC1=CC=CC=N1)(CC2=CC=CC=N2)CC3=CC=CC=N3", "physical_data": {"Molecular Weight": "290.36", "Molecular Formula": "C18H18N4", "Melting Point": "73.9 \u00b0C"}}