{"cas_no": "16851-72-2", "cn_name": "N-(\u5bf9\u7532\u82ef\u78fa\u9170)-3-\u5421\u54af\u5549", "en_name": ["N-Tosyl-2,5-dihydropyrrole", "1H-Pyrrole, 2,5-dihydro-1-[(4-methylphenyl)sulfonyl]-", "3-Pyrroline, 1-(p-tolylsulfonyl)-", "2,5-Dihydro-1-[(4-methylphenyl)sulfonyl]-1H-pyrrole", "N-Tosyl-2,5-dihydropyrrole", "1-(p-Toluenesulfonyl)-2,5-dihydropyrrole", "2,5-Dihydro-1-(4-methylphenylsulfonyl)-1H-pyrrole", "2,5-Dihydro-N-(4-methylphenylsulfonyl)-1H-pyrrole", "N-p-Toluenesulfonyl-3-pyrroline", "N-Tosyl-3-pyrroline", "N-Tosylpyrroline", "1-(Toluene-4-sulfonyl)-2,5-dihydro-1H-pyrrole", "1-[(4-Methylphenyl)sulfonyl]-2,5-dihydro-1H-pyrrole", "1-Tosyl-2,5-dihydropyrrole", "2,5-Dihydro-1-tosyl-1H-pyrrole", "1-(p-Toluenesulfonyl)-2,5-dihydropyrole", "1-(4-Methylphenylsulfonyl)-2,5-dihydropyrrole", "1-Tosyl-2,5-dihydro-1H-pyrrole", "2,5-Dihydro-1-tosylpyrrole", "1-Tosyl-3-pyrroline", "1-(4-Methylbenzenesulfonyl)-2,5-dihydro-1H-pyrrole"], "SMILES": "S(=O)(=O)(C1=CC=C(C)C=C1)N2CC=CC2", "physical_data": {"Molecular Weight": "223.29", "Molecular Formula": "C11H13NO2S", "Melting Point": "129.5-130.5 \u00b0C"}}