{"cas_no": "16851-84-6", "cn_name": "1-(4-\u6eb4\u82ef\u57fa\u78fa\u9170)-1H-\u5421\u54af", "en_name": ["1-[(4-Bromophenyl)sulfonyl]-1H-pyrrole", "1H-Pyrrole, 1-[(4-bromophenyl)sulfonyl]-", "Pyrrole, 1-[(p-bromophenyl)sulfonyl]-", "1-[(4-Bromophenyl)sulfonyl]-1H-pyrrole", "1-(4-Bromophenylsulfonyl)-1H-pyrrole", "1-(4-Bromophenyl)sulfonylpyrrole", "1-(4-Bromobenzenesulfonyl)-1H-pyrrole"], "SMILES": "S(=O)(=O)(C1=CC=C(Br)C=C1)N2C=CC=C2", "physical_data": {"Molecular Weight": "286.14", "Molecular Formula": "C10H8BrNO2S", "Melting Point": "131-132 \u00b0C"}}