{"cas_no": "16856-13-6", "cn_name": "L-\u5929\u51ac\u6c28\u9178-beta-\u7532\u916f\u76d0\u9178\u76d0", "en_name": ["L-Aspartic acid, 4-methyl ester, hydrochloride (1:1)", "L-Aspartic acid, 4-methyl ester, hydrochloride (1:1)", "L-Aspartic acid, 4-methyl ester, hydrochloride", "Aspartic acid, 4-methyl ester, hydrochloride, L-", "L-Aspartic acid \u03b2-methyl ester hydrochloride", "\u03b2-Methyl L-aspartate hydrochloride", "(S)-2-Amino-4-methoxy-4-oxobutanoic acid hydrochloride"], "SMILES": "C(C(C(O)=O)N)C(OC)=O.Cl", "physical_data": {"Molecular Weight": "", "Molecular Formula": "C5H9NO4.ClH", "Melting Point": "190 \u00b0C"}}