{"cas_no": "16858-02-9", "cn_name": "N,N,N',N'-\u56db(2-\u5421\u5576\u7532\u57fa)\u4e59\u4e8c\u80fa", "en_name": ["N,N,N\u2032,N\u2032-Tetrakis(2-pyridylmethyl)ethylenediamine", "1,2-Ethanediamine, N,N,N\u2032,N\u2032-tetrakis(2-pyridinylmethyl)-", "Pyridine, 2,2\u2032,2\u2032\u2032,2\u2032\u2032\u2032-[ethylenebis(nitrilodimethylene)]tetra-", "N,N,N\u2032,N\u2032-Tetrakis(2-pyridinylmethyl)-1,2-ethanediamine", "N,N,N\u2032,N\u2032-Tetrakis(2-pyridylmethyl)-1,2-ethanediamine", "TPEN", "N,N,N\u2032,N\u2032-Tetrakis(2-pyridylmethyl)ethylenediamine", "N,N,N\u2032,N\u2032-Tetrakis(pyridin-2-yl-methyl)ethylenediamine", "TPEDA", "N,N,N\u2032,N\u2032-Tetra[(2-pyridyl)methyl] ethylenediamine"], "SMILES": "N(CC1=CC=CC=N1)(CC2=CC=CC=N2)CCN(CC3=CC=CC=N3)CC4=CC=CC=N4", "physical_data": {"Molecular Weight": "424.54", "Molecular Formula": "C26H28N6", "Melting Point": "110.50-111.00 \u00b0C"}}