{"cas_no": "16851-82-4", "cn_name": "1-(\u82ef\u57fa\u78fa\u9170\u57fa)\u5421\u54af", "en_name": ["1-(Phenylsulfonyl)-1H-pyrrole", "1H-Pyrrole, 1-(phenylsulfonyl)-", "Pyrrole, 1-(phenylsulfonyl)-", "1-(Phenylsulfonyl)-1H-pyrrole", "N-Phenylsulfonylpyrrole", "N-(Benzenesulfonyl)pyrrole", "1-(Phenylsulfonyl)pyrrole", "1-(Benzenesulfonyl)-1H-pyrrole", "NSC 102019"], "SMILES": "S(=O)(=O)(N1C=CC=C1)C2=CC=CC=C2", "physical_data": {"Molecular Weight": "207.25", "Molecular Formula": "C10H9NO2S", "Melting Point": "88-89 \u00b0C"}}