{"cas_no": "16867-03-1", "cn_name": "2-\u6c28\u57fa-3-\u7f9f\u57fa\u5421\u5576", "en_name": ["2-Amino-3-hydroxypyridine", "3-Pyridinol, 2-amino-", "2-Amino-3-pyridinol", "2-Amino-3-hydroxypyridine", "3-Hydroxy-2-pyridinamine", "3-Hydroxy-2-aminopyridine", "NSC 136806", "3-Hydroxypyridine-2-amine"], "SMILES": "OC1=C(N)N=CC=C1", "physical_data": {"Molecular Weight": "110.11", "Molecular Formula": "C5H6N2O", "Melting Point": "167-170 \u00b0C"}}