{"cas_no": "168619-25-8", "cn_name": "3'-\u6c28\u57fa-[1,1'-\u8054\u82ef]-3-\u7fa7\u9178\u7532\u916f", "en_name": ["[1,1\u2032-Biphenyl]-3-carboxylic acid, 3\u2032-amino-, methyl ester", "[1,1\u2032-Biphenyl]-3-carboxylic acid, 3\u2032-amino-, methyl ester", "3\u2032-Amino-[1,1\u2032-biphenyl]-3-carboxylic acid methyl ester", "Methyl 3\u2032-amino-1,1\u2032-biphenyl-3-carboxylate", "Methyl 3\u2032-aminobiphenyl-3-carboxylate", "3\u2032-Aminobiphenyl-3-carboxylic acid methyl ester"], "SMILES": "C(OC)(=O)C=1C=C(C=CC1)C2=CC(N)=CC=C2", "physical_data": {"Molecular Weight": "227.26", "Molecular Formula": "C14H13NO2", "Melting Point": "84.9-85.1 \u00b0C"}}