{"cas_no": "16865-11-5", "cn_name": "2,5,6-\u4e09\u6c2f\u82ef\u5e76\u54aa\u5511", "en_name": ["2,5,6-Trichloro-1H-benzimidazole", "1H-Benzimidazole, 2,5,6-trichloro-", "Benzimidazole, 2,5,6-trichloro-", "2,5,6-Trichloro-1H-benzimidazole", "2,5,6-Trichlorobenzimidazole", "NSC 143683", "2,5,6-Trichloro-1H-1,3-benzodiazole", "2,5,6-Trichloro-1H-benzo[d]imidazole"], "SMILES": "ClC=1C=C2C(=CC1Cl)N=C(Cl)N2", "physical_data": {"Molecular Weight": "221.47", "Molecular Formula": "C7H3Cl3N2", "Melting Point": "218.1-219.9 \u00b0C"}}