{"cas_no": "168618-47-1", "cn_name": "2-\u7532\u6c27\u57fa\u4e8c\u82ef-3-\u7fa7\u9178", "en_name": ["2\u2032-Methoxy[1,1\u2032-biphenyl]-3-carboxylic acid", "[1,1\u2032-Biphenyl]-3-carboxylic acid, 2\u2032-methoxy-", "2\u2032-Methoxy[1,1\u2032-biphenyl]-3-carboxylic acid", "2\u2032-Methoxy-biphenyl-3-carboxylic acid"], "SMILES": "O(C)C1=C(C2=CC(C(O)=O)=CC=C2)C=CC=C1", "physical_data": {"Molecular Weight": "228.24", "Molecular Formula": "C14H12O3", "Melting Point": "178-180 \u00b0C"}}