{"cas_no": "1686-14-2", "cn_name": "\u0391-\u73af\u6c27\u848e\u70f7", "en_name": ["\u03b1-Pinene oxide", "3-Oxatricyclo[4.1.1.02,4]octane, 2,7,7-trimethyl-", "Pinane, 2,3-epoxy-", "2,7,7-Trimethyl-3-oxatricyclo[4.1.1.02,4]octane", "\u03b1-Pinene epoxide", "\u03b1-Pinene oxide", "2,3-Epoxypinane", "\u03b1-Pinene 2,3-oxide", "NSC 12148", "NSC 407160", "NSC 5609", "PNO"], "SMILES": "CC12C3C(C)(C)C(C3)CC1O2", "physical_data": {"Molecular Weight": "152.23", "Molecular Formula": "C10H16O", "Boiling Point": "102.5 \u00b0C", "Density": "0.9812 g/cm\u00b3 @ Temp: 0 \u00b0C"}}