{"cas_no": "16867-04-2", "cn_name": "2,3-\u4e8c\u7f9f\u57fa\u5421\u5576", "en_name": ["2,3-Dihydroxypyridine", "2(1H)-Pyridinone, 3-hydroxy-", "2,3-Pyridinediol", "2(1H)-Pyridone, 3-hydroxy-", "3-Hydroxy-2(1H)-pyridinone", "2,3-Dihydroxypyridine", "3-Hydroxy-2-pyridone", "3-Hydroxy-1H-pyridin-2-one", "3-Hydroxy-2-pyridinone", "NSC 49272", "3-Hydroxy-1,2-dihydropyridin-2-one", "3,2-HOPO"], "SMILES": "OC=1C(=O)NC=CC1", "physical_data": {"Molecular Weight": "111.10", "Molecular Formula": "C5H5NO2", "Melting Point": "248 \u00b0C"}}