{"cas_no": "168626-94-6", "cn_name": "\u76d0\u9178\u8003\u5c3c\u4f10\u5766", "en_name": ["Conivaptan hydrochloride", "[1,1\u2032-Biphenyl]-2-carboxamide, N-[4-[(4,5-dihydro-2-methylimidazo[4,5-d][1]benzazepin-6(1H)-yl)carbonyl]phenyl]-, hydrochloride (1:1)", "[1,1\u2032-Biphenyl]-2-carboxamide, N-[4-[(4,5-dihydro-2-methylimidazo[4,5-d][1]benzazepin-6(1H)-yl)carbonyl]phenyl]-, monohydrochloride", "YM 087", "Conivaptan hydrochloride", "Vaprisol", "conivaptan monohydrochloride"], "SMILES": "C(=O)(N1C=2C(C3=C(CC1)N=C(C)N3)=CC=CC2)C4=CC=C(NC(=O)C5=C(C=CC=C5)C6=CC=CC=C6)C=C4.Cl", "physical_data": {"Molecular Weight": "", "Molecular Formula": "C32H26N4O2.ClH", "Melting Point": "&gt;250 \u00b0C"}}