{"cas_no": "1686-23-3", "cn_name": "\u4e09\u4e19\u9187\u6c27\u5316\u9492(V)", "en_name": ["(T-4)-Oxotripropoxyvanadium", "Vanadium, oxotripropoxy-, (T-4)-", "Vanadic acid (H3VO4), tripropyl ester", "Propyl vanadate(V)", "(T-4)-Oxotripropoxyvanadium", "Tripropoxyvanadyl", "Tripropoxyoxovanadium", "Tripropyl vanadate", "Vanadium tripropoxide oxide", "Oxotripropoxyvanadium", "Vanadyl oxytripropoxide", "Vanadyl tripropoxide", "Propyl orthovanadate", "Vanadium(V) oxytripropoxide", "Vanadium oxytripropoxide", "Vanadyltris(propoxide)", "Vanadium(V) oxide tripropoxide"], "SMILES": "[V](OCCC)(OCCC)(OCCC)=O", "physical_data": {"Molecular Weight": "", "Molecular Formula": "C9H21O4V", "Boiling Point": "143 \u00b0C @ Press: 24 Torr", "Density": "1.088 g/cm\u00b3 @ Temp: 15 \u00b0C"}}