{"cas_no": "168646-54-6", "cn_name": "5,6-\u4e8c\u6c28\u57fa-1,10-\u90bb\u83f2\u7f57\u5549", "en_name": ["5,6-Diamino-1,10-phenanthroline", "1,10-Phenanthroline-5,6-diamine", "5,6-Diamino-1,10-phenanthroline"], "SMILES": "NC1=C2C(=C3C(=C1N)C=CC=N3)N=CC=C2", "physical_data": {"Molecular Weight": "210.23", "Molecular Formula": "C12H10N4", "Melting Point": "155-156 \u00b0C"}}