{"cas_no": "1686-22-2", "cn_name": "\u6c27\u5316\u4e09\u4e59\u6c27\u57fa\u9492", "en_name": ["(T-4)-Triethoxyoxovanadium", "Vanadium, triethoxyoxo-, (T-4)-", "Vanadic acid (H3VO4), triethyl ester", "Ethyl vanadate(V) ((EtO)3VO)", "(T-4)-Triethoxyoxovanadium", "Triethyl vanadate", "Triethoxyvanadyl", "Vanadium oxytriethoxide", "Oxotriethoxyvanadium", "Vanadyl triethoxide", "Triethoxyoxovanadium", "Triethyl orthovanadate", "Tri(ethoxy)vanadium oxide", "Triethyl vanadate (VO(OEt)3)", "Tris(ethoxy)oxovanadium", "Oxovanadium triethoxide", "Ethyl orthovanadate", "Tris(ethanolato)(oxo)vanadium", "V 02", "Vanadium(V) oxide triethoxide"], "SMILES": "[V](OCC)(OCC)(OCC)=O", "physical_data": {"Molecular Weight": "", "Molecular Formula": "C6H15O4V", "Boiling Point": "108 \u00b0C @ Press: 26 Torr", "Density": "1.167 g/cm\u00b3 @ Temp: 15 \u00b0C"}}