{"cas_no": "168619-04-3", "cn_name": "3-\u6c1f\u4e8c\u82ef-3-\u7fa7\u9178", "en_name": ["3\u2032-Fluoro[1,1\u2032-biphenyl]-3-carboxylic acid", "[1,1\u2032-Biphenyl]-3-carboxylic acid, 3\u2032-fluoro-", "3\u2032-Fluoro[1,1\u2032-biphenyl]-3-carboxylic acid", "3-(3-Fluorophenyl)benzoic acid", "3\u2032-Fluorobiphenyl-3-carboxylic acid"], "SMILES": "C(O)(=O)C=1C=C(C=CC1)C2=CC(F)=CC=C2", "physical_data": {"Molecular Weight": "216.21", "Molecular Formula": "C13H9FO2", "Melting Point": "239-241 \u00b0C"}}