{"cas_no": "16874-81-0", "cn_name": "H-HIS-PHE-OH", "en_name": ["Histidylphenylalanine", "L-Phenylalanine, L-histidyl-", "Alanine, N-L-histidyl-3-phenyl-, L-", "L-Phenylalanine, N-L-histidyl-", "Alanine, N-L-histidyl-3-phenyl-", "Alanine, N-histidyl-3-phenyl-", "L-Histidyl-L-phenylalanine", "Histidylphenylalanine", "36: PN: WO2009143133 PAGE: 62 claimed protein", "182: PN: EP2161028 PAGE: 10 claimed protein", "81: PN: WO2020097235 SEQID: 311 claimed protein"], "SMILES": "C(C(NC(C(CC1=CN=CN1)N)=O)C(O)=O)C2=CC=CC=C2", "physical_data": {"Molecular Weight": "302.33", "Molecular Formula": "C15H18N4O3", "Melting Point": "255-258 \u00b0C (decomp)"}}