{"cas_no": "1687-64-5", "cn_name": "2-\u4e59\u57fa-6-\u7532\u57fa\u82ef\u915a", "en_name": ["2-Ethyl-6-methylphenol", "Phenol, 2-ethyl-6-methyl-", "o-Cresol, 6-ethyl-", "2-Ethyl-6-methylphenol", "6-Ethyl-o-cresol", "2-Methyl-6-ethylphenol", "6-Methyl-2-ethylphenol"], "SMILES": "C(C)C1=C(O)C(C)=CC=C1", "physical_data": {"Molecular Weight": "136.19", "Molecular Formula": "C9H12O", "Boiling Point": "91-92 \u00b0C @ Press: 12 Torr", "Melting Point": "140-141 \u00b0C"}}