{"cas_no": "16870-43-2", "cn_name": "L-\u916a\u6c28\u9178\u76d0\u9178\u76d0", "en_name": ["L-Tyrosine, hydrochloride (1:1)", "L-Tyrosine, hydrochloride (1:1)", "Tyrosine, hydrochloride, L-", "L-Tyrosine, hydrochloride", "Tyrosine hydrochloride", "Tyrosine hydrogen chloride", "(S)-2-Amino-3-(4-hydroxyphenyl)propanoic acid hydrochloride"], "SMILES": "C(C(C(O)=O)N)C1=CC=C(O)C=C1.Cl", "physical_data": {"Molecular Weight": "", "Molecular Formula": "C9H11NO3.ClH", "Melting Point": "249 \u00b0C (decomp)"}}