{"cas_no": "16874-12-7", "cn_name": "L-\u916a\u6c28\u9178\u53d4\u4e01\u916f", "en_name": ["L-Tyrosine 1,1-dimethylethyl ester", "L-Tyrosine, 1,1-dimethylethyl ester", "Tyrosine, tert-butyl ester, L-", "Tyrosine, tert-butyl ester", "L-Tyrosine 1,1-dimethylethyl ester", "tert-Butyl L-tyrosinate", "L-Tyrosine tert-butyl ester", "(S)-2-Amino-3-(4-hydroxyphenyl)propionic acid tert-butyl ester", "tert-Butyl (S)-2-amino-3-(4-hydroxyphenyl)propanoate"], "SMILES": "C(C(C(OC(C)(C)C)=O)N)C1=CC=C(O)C=C1", "physical_data": {"Molecular Weight": "237.29", "Molecular Formula": "C13H19NO3", "Melting Point": "143-145 \u00b0C"}}