{"cas_no": "16870-28-3", "cn_name": "2-\u7f9f\u57fa-4-\u7898\u82ef\u7532\u9178", "en_name": ["2-Hydroxy-4-iodobenzoic acid", "Benzoic acid, 2-hydroxy-4-iodo-", "Salicylic acid, 4-iodo-", "2-Hydroxy-4-iodobenzoic acid", "4-Iodosalicylic acid", "2-Hydroxy-4-iodobenzenecarboxylic acid", "NSC 109096"], "SMILES": "C(O)(=O)C1=C(O)C=C(I)C=C1", "physical_data": {"Molecular Weight": "264.02", "Molecular Formula": "C7H5IO3", "Melting Point": "230 \u00b0C"}}