{"cas_no": "1687-53-2", "cn_name": "2-\u7532\u6c27\u57fa-5-\u6c28\u57fa\u82ef\u915a", "en_name": ["5-Amino-2-methoxyphenol", "Phenol, 5-amino-2-methoxy-", "Guaiacol, 5-amino-", "5-Amino-2-methoxyphenol", "5-Aminoguaiacol", "3-Hydroxy-4-methoxyaniline", "2-Methoxy-5-aminophenol", "3-Amino-6-methoxyphenol", "(3-Hydroxy-4-methoxyphenyl)amine", "5-Amino-2-(methyloxy)phenol"], "SMILES": "O(C)C1=C(O)C=C(N)C=C1", "physical_data": {"Molecular Weight": "139.15", "Molecular Formula": "C7H9NO2", "Melting Point": "125-127 \u00b0C"}}