{"cas_no": "16879-02-0", "cn_name": "6-\u6c2f\u5421\u5576-2-\u9187", "en_name": ["6-Chloro-2(1H)-pyridinone", "2(1H)-Pyridinone, 6-chloro-", "2(1H)-Pyridone, 6-chloro-", "6-Chloro-2(1H)-pyridinone", "2-Chloro-6-hydroxypyridine", "6-Chloro-2-pyridone", "6-Chloro-2-pyridinol", "6-Chloro-2-hydroxypyridine", "6-Chloro-2(1H)-pyridone", "2-Hydroxy-6-chloropyridine", "2-Chloro-6-pyridinol", "6-Chloro-2-pyridinone", "NSC 148331", "6-Chloro-1,2-dihydropyridin-2-one", "6-Chloro-1H-pyridin-2-one"], "SMILES": "ClC=1NC(=O)C=CC1", "physical_data": {"Molecular Weight": "129.54", "Molecular Formula": "C5H4ClNO", "Melting Point": "128.5-129 \u00b0C"}}