{"cas_no": "16874-34-3", "cn_name": "2-\u56db\u6c22\u7ce0\u9178\u4e59\u916f", "en_name": ["2-Furancarboxylic acid, tetrahydro-, ethyl ester", "2-Furancarboxylic acid, tetrahydro-, ethyl ester", "2-Furoic acid, tetrahydro-, ethyl ester", "Ethyl tetrahydrofuroate", "Ethyl 2-tetrahydrofuroate", "Ethyl tetrahydro-2-furancarboxylate", "Tetrahydro-2-furoic acid ethyl ester"], "SMILES": "C(OCC)(=O)C1CCCO1", "physical_data": {"Molecular Weight": "144.17", "Molecular Formula": "C7H12O3", "Boiling Point": "80 \u00b0C @ Press: 11 Torr", "Density": "1.069 g/cm\u00b3 @ Temp: 10 \u00b0C"}}