{"cas_no": "16874-75-2", "cn_name": "H-HIS-ALA-OH", "en_name": ["Histidylalanine", "L-Alanine, L-histidyl-", "Alanine, N-L-histidyl-, L-", "L-Alanine, N-L-histidyl-", "Alanine, N-L-histidyl-", "Alanine, N-histidyl-", "L-Histidyl-L-alanine", "Histidylalanine", "NSC 522632", "180: PN: EP2161028 PAGE: 10 claimed protein", "22: PN: WO2011146121 PAGE: 114 claimed protein", "29: PN: WO2014018423 PAGE: 215 claimed protein", "10: PN: EP2878667 TABLE: 5 claimed protein", "29: PN: WO2021026336 PAGE: 101 claimed sequence", "42: PN: WO2021211467 SEQID: 195 claimed sequence", "802: PN: WO2022215055 SEQID: 802 claimed protein"], "SMILES": "C(C(C(NC(C(O)=O)C)=O)N)C1=CN=CN1", "physical_data": {"Molecular Weight": "226.23", "Molecular Formula": "C9H14N4O3", "Melting Point": "198-200 \u00b0C (decomp)"}}