{"cas_no": "1687-29-2", "cn_name": "1,2-\u73af\u5df1\u57fa\u4e8c\u7532\u9178\u4e8c\u7532\u916f", "en_name": ["rel-1,2-Dimethyl (1S,2R)-1,2-cyclohexanedicarboxylate", "1,2-Cyclohexanedicarboxylic acid, 1,2-dimethyl ester, (1S,2R)-rel-", "1,2-Cyclohexanedicarboxylic acid, dimethyl ester, cis-", "1,2-Cyclohexanedicarboxylic acid, dimethyl ester, (1R,2S)-rel-", "rel-1,2-Dimethyl (1S,2R)-1,2-cyclohexanedicarboxylate", "Dimethyl cis-1,2-cyclohexanedicarboxylate", "NSC 144650", "cis-1,2-Cyclohexanedicarboxylic acid dimethyl ester", "Dimethyl cis-cyclohexane-1,2-dicarboxylate"], "SMILES": "C(OC)(=O)C1C(C(OC)=O)CCCC1", "physical_data": {"Molecular Weight": "200.23", "Molecular Formula": "C10H16O4", "Boiling Point": "110-111 \u00b0C @ Press: 5 Torr"}}