{"cas_no": "16874-33-2", "cn_name": "2-\u56db\u6c22\u544b\u5583\u7532\u9178", "en_name": ["(\u00b1)-Tetrahydro-2-furoic acid", "2-Furancarboxylic acid, tetrahydro-", "2-Furoic acid, tetrahydro-", "Tetrahydro-2-furancarboxylic acid", "Tetrahydro-2-furoic acid", "(\u00b1)-Tetrahydro-2-furoic acid", "(R,S)-Tetrahydrofuran-2-carboxylic acid", "NSC 521564", "(\u00b1)-Tetrahydrofuran-2-carboxylic acid", "1,2,3,4-Tetrahydrofuran-2-carboxylic acid", "Tetrahydrofuran-2-carboxylic acid"], "SMILES": "C(O)(=O)C1CCCO1", "physical_data": {"Molecular Weight": "116.12", "Molecular Formula": "C5H8O3", "Boiling Point": "128-129 \u00b0C @ Press: 13 Torr", "Melting Point": "21 \u00b0C", "Density": "1.218 g/cm\u00b3 @ Temp: 16 \u00b0C"}}