{"cas_no": "1687-30-5", "cn_name": "\u53cd-1,2-\u73af\u5df1\u70f7\u4e8c\u7532\u9178", "en_name": ["1,2-Cyclohexanedicarboxylic acid", "1,2-Cyclohexanedicarboxylic acid", "Hexahydrophthalic acid", "1,2-Benzenedicarboxylic acid, hexahydro-", "NSC 239117"], "SMILES": "C(O)(=O)C1C(C(O)=O)CCCC1", "physical_data": {"Molecular Weight": "172.18", "Molecular Formula": "C8H12O4", "Melting Point": "219-220 \u00b0C"}}