{"cas_no": "168828-84-0", "cn_name": "(R)-5-(\u53e0\u6c2e\u7532\u57fa)-3-[3-\u6c1f-4-(4-\u5417\u5549\u57fa)\u82ef\u57fa]-2-\u5511\u70f7\u916e", "en_name": ["(5R)-5-(Azidomethyl)-3-[3-fluoro-4-(4-morpholinyl)phenyl]-2-oxazolidinone", "2-Oxazolidinone, 5-(azidomethyl)-3-[3-fluoro-4-(4-morpholinyl)phenyl]-, (5R)-", "2-Oxazolidinone, 5-(azidomethyl)-3-[3-fluoro-4-(4-morpholinyl)phenyl]-, (R)-", "(5R)-5-(Azidomethyl)-3-[3-fluoro-4-(4-morpholinyl)phenyl]-2-oxazolidinone", "(R)-5-Azidomethyl-3-[3-fluoro-4-(morpholin-4-yl)phenyl]oxazolidin-2-one", "(R)-[N-[3-Fluoro-4-(morpholin-4-yl)phenyl]-2-oxo-5-oxazolidinyl]methyl azide", "(R)-[3-(3-Fluoro-4-morpholin-4-ylphenyl)-2-oxo-5-oxazolidinyl]methyl azide", "(5R)-5-(Azidomethyl)-3-(3-fluoro-4-morpholin-4-ylphenyl)-1,3-oxazolidin-2-one"], "SMILES": "O=C1N(CC(CN=[N+]=[N-])O1)C2=CC(F)=C(C=C2)N3CCOCC3", "physical_data": {"Molecular Weight": "", "Molecular Formula": "C14H16FN5O3", "Melting Point": "102.5-103.5 \u00b0C"}}