{"cas_no": "16883-16-2", "cn_name": "5-\u7532\u57fa-3-\u82ef\u57fa-4-\u5f02\u5511\u7532\u9170\u6c2f", "en_name": ["5-Methyl-3-phenylisoxazole-4-carbonyl chloride", "4-Isoxazolecarbonyl chloride, 5-methyl-3-phenyl-", "5-Methyl-3-phenyl-4-isoxazolecarbonyl chloride", "5-Methyl-3-phenyl-4-isoxazolylcarbonyl chloride", "5-Methyl-3-phenylisoxazole-4-carbonyl chloride", "3-Phenyl-5-methyl-4-isoxazolecarbonyl chloride", "3-Phenyl-5-methylisoxazol-4-carboxyl chloride"], "SMILES": "C(Cl)(=O)C=1C(=NOC1C)C2=CC=CC=C2", "physical_data": {"Molecular Weight": "221.64", "Molecular Formula": "C11H8ClNO2", "Boiling Point": "115-117 \u00b0C @ Press: 3 Torr"}}