{"cas_no": "168828-81-7", "cn_name": "(3-\u6c1f-4-\u5417\u5549-4-\u57fa\u82ef\u57fa)\u6c28\u57fa\u7532\u9178\u82c4\u916f", "en_name": ["[3-Fluoro-4-(4-morpholinyl)phenyl]carbamic acid phenylmethyl ester", "Carbamic acid, N-[3-fluoro-4-(4-morpholinyl)phenyl]-, phenylmethyl ester", "Carbamic acid, [3-fluoro-4-(4-morpholinyl)phenyl]-, phenylmethyl ester", "N-Benzyloxycarbonyl-3-fluoro-4-morpholinoaniline", "[3-Fluoro-4-(4-morpholinyl)phenyl]carbamic acid phenylmethyl ester", "Benzyl 3-fluoro-4-(4-morpholinyl)phenylcarbamate", "N-(Benzyloxycarbonyl)-3-fluoro-4-(4-morpholinyl)aniline", "(3-Fluoro-4-morpholin-4-ylphenyl)carbamic acid benzyl ester"], "SMILES": "FC1=C(C=CC(NC(OCC2=CC=CC=C2)=O)=C1)N3CCOCC3", "physical_data": {"Molecular Weight": "330.35", "Molecular Formula": "C18H19FN2O3", "Melting Point": "122.5-123.7 \u00b0C"}}