{"cas_no": "16887-00-6", "cn_name": "\u6c2f\u79bb\u5b50\u6eb6\u6db2", "en_name": ["Chloride", "Chloride", "Chlorine, ion (Cl1-)", "Perchloride", "Chloride ion", "Hydrochloric acid, ion(1-)", "Chlorine ion(1-)", "Chloride anion", "Chlorine(1-)", "Chlorine ion", "Chloride ion (1-)", "Chloride(1-)", "Chloride (Cl-)", "Cl"], "SMILES": "[Cl-]", "physical_data": {"Molecular Weight": "", "Molecular Formula": "Cl", "Melting Point": "247-248 \u00b0C (decomp)"}}