{"cas_no": "1688-71-7", "cn_name": "4'-\u6c28\u57fa\u4e01\u9170\u82ef", "en_name": ["1-(4-Aminophenyl)-1-butanone", "1-Butanone, 1-(4-aminophenyl)-", "Butyrophenone, 4\u2032-amino-", "1-(4-Aminophenyl)-1-butanone", "p-Aminobutyrophenone", "4\u2032-Aminobutyrophenone", "1-(4-Aminophenyl)butan-1-one", "4-Aminophenylbutanone"], "SMILES": "C(CCC)(=O)C1=CC=C(N)C=C1", "physical_data": {"Molecular Weight": "163.22", "Molecular Formula": "C10H13NO", "Melting Point": "84 \u00b0C"}}