{"cas_no": "16881-39-3", "cn_name": "N-CBZ-L-\u812f\u6c28\u9178", "en_name": ["2-(1,1-Dimethylethyl) 1-(phenylmethyl) (2S)-1,2-pyrrolidinedicarboxylate", "1,2-Pyrrolidinedicarboxylic acid, 2-(1,1-dimethylethyl) 1-(phenylmethyl) ester, (2S)-", "1,2-Pyrrolidinedicarboxylic acid, 1-benzyl tert-butyl ester, L-", "1,2-Pyrrolidinedicarboxylic acid, 2-(1,1-dimethylethyl) 1-(phenylmethyl) ester, (S)-", "2-(1,1-Dimethylethyl) 1-(phenylmethyl) (2S)-1,2-pyrrolidinedicarboxylate", "(Benzyloxycarbonyl)-L-proline tert-butyl ester", "Carbobenzoxy-L-proline tert-butyl ester", "N-Benzyloxycarbonyl-L-proline tert-butyl ester", "Cbz-Pro-OBu-t", "1-O-Benzyl 2-O-tert-butyl (2S)-pyrrolidine-1,2-dicarboxylate"], "SMILES": "C(OC(C)(C)C)(=O)C1N(C(OCC2=CC=CC=C2)=O)CCC1", "physical_data": {"Molecular Weight": "305.37", "Molecular Formula": "C17H23NO4", "Melting Point": "44-45 \u00b0C"}}