{"cas_no": "168828-90-8", "cn_name": "(S)-5-(\u6c28\u57fa\u7532\u57fa)-3-(3-\u6c1f-4-\u5417\u5549\u57fa\u82ef\u57fa)-2-\u5511\u70f7\u916e", "en_name": ["(5S)-5-(Aminomethyl)-3-[3-fluoro-4-(4-morpholinyl)phenyl]-2-oxazolidinone", "2-Oxazolidinone, 5-(aminomethyl)-3-[3-fluoro-4-(4-morpholinyl)phenyl]-, (5S)-", "2-Oxazolidinone, 5-(aminomethyl)-3-[3-fluoro-4-(4-morpholinyl)phenyl]-, (S)-", "(5S)-5-(Aminomethyl)-3-[3-fluoro-4-(4-morpholinyl)phenyl]-2-oxazolidinone", "PNU 105868", "(5S)-5-(Aminomethyl)-3-(3-fluoro-4-morpholinophenyl)-1,3-oxazolidin-2-one", "(S)-N-[[3-[3-Fluoro-4-(4-morpholinyl)phenyl]-2-oxo-5-oxazolidinyl]methyl]amine", "(S)-5-Aminomethyl-3-(3-fluoro-4-morpholinophenyl)-1,3-oxazolidin-2-one", "(-)-(S)-5-(Aminomethyl)-3-(3-fluoro-4-morpholinophenyl)oxazolidin-2-one", "(S)-5-Aminomethyl-3-[3-fluoro-4-(morpholin-4-yl)phenyl]oxazolidin-2-one", "(5S)-5-(Aminomethyl)-3-[3-fluoro-4-(morpholin-4-yl)phenyl]-1,3-oxazolidin-2-one", "(5S)-5-(Aminomethyl)-3-[3-fluoro-4-(morpholin-4-yl)phenyl]-1,3-oxazolidin-2-one", "(5S)-5-(Aminomethyl)-3-(3-fluoro-4-morpholinophenyl)-1,3-oxazolidin-2-one", "(S)-5-(Aminomethyl)-3-(3-fluoro-4-morpholinophenyl)oxazolidin-2-one"], "SMILES": "O=C1N(CC(CN)O1)C2=CC(F)=C(C=C2)N3CCOCC3", "physical_data": {"Molecular Weight": "295.31", "Molecular Formula": "C14H18FN3O3", "Melting Point": "95-97.7 \u00b0C"}}