{"cas_no": "16889-14-8", "cn_name": "N-[2-(\u4e8c\u4e59\u57fa\u6c28\u57fa)\u4e59\u57fa]\u5341\u516b\u9170\u80fa", "en_name": ["Amidoamine S", "Octadecanamide, N-[2-(diethylamino)ethyl]-", "N-[2-(Diethylamino)ethyl]octadecanamide", "N-[2-(Diethylamino)ethyl]stearamide", "Sapamine COB-ST", "Lexamine 22", "Stearamidoethyl diethylamine", "Chemical Base 6532", "Diethylaminoethyl stearamide", "Stearic acid diethylaminoethylamide", "Amidoamine S", "NSC 126195", "Stearic acid 2-(N,N-diethylamino)ethylamide", "Nikkol Amidoamine S", "Catinal AEAS", "Nikkol Amidoamine SV", "Catinal AEAK", "Ayacol Amineamide 50E"], "SMILES": "C(N(CC)CC)CNC(CCCCCCCCCCCCCCCCC)=O", "physical_data": {"Molecular Weight": "382.67", "Molecular Formula": "C24H50N2O", "Melting Point": "61-62 \u00b0C"}}