{"cas_no": "16883-69-5", "cn_name": "N-\u82ef\u7532\u9170\u7532\u57fa\u6eb4\u5421\u5576", "en_name": ["Phenacylpyridinium bromide", "Pyridinium, 1-(2-oxo-2-phenylethyl)-, bromide (1:1)", "Pyridinium, 1-phenacyl-, bromide", "Pyridinium, 1-(2-oxo-2-phenylethyl)-, bromide", "1-Phenacylpyridinium bromide", "Phenacylpyridinium bromide", "N-Phenacylpyridinium bromide", "N-(2-Phenyl-2-oxoethyl)pyridinium bromide", "1-(2-Oxo-2-phenylethyl)pyridinium bromide", "N-(Benzoylmethyl)pyridinium bromide", "N-(2-Oxo-2-phenylethyl)pyridinium bromide", "1-(2-Oxo-2-phenylethyl)pyridin-1-ium bromide"], "SMILES": "C(C[N+]=1C=CC=CC1)(=O)C2=CC=CC=C2.[Br-]", "physical_data": {"Molecular Weight": "", "Molecular Formula": "C13H12NO.Br", "Melting Point": "199-200 \u00b0C (decomp)"}}