{"cas_no": "16889-10-4", "cn_name": "\u5206\u6563\u7ea2 73", "en_name": ["2-[2-[4-[(2-Cyanoethyl)ethylamino]phenyl]diazenyl]-5-nitrobenzonitrile", "Benzonitrile, 2-[2-[4-[(2-cyanoethyl)ethylamino]phenyl]diazenyl]-5-nitro-", "Benzonitrile, 2-[[p-[(2-cyanoethyl)ethylamino]phenyl]azo]-5-nitro-", "Benzonitrile, 2-[[4-[(2-cyanoethyl)ethylamino]phenyl]azo]-5-nitro-", "2-[2-[4-[(2-Cyanoethyl)ethylamino]phenyl]diazenyl]-5-nitrobenzonitrile", "2-Cyano-4-nitro-4\u2032-(ethyl-2-cyanoethylamino)azobenzene", "Celliton Red GFL", "C.I. Disperse Red 73", "Palanil Rubine FL", "Foron Rubine SE-GFL", "Artisil Rubine GFL", "Disperse Red 73", "Tersetile Rubine RL", "Ostacet Rubine SE-LB", "Fantagen Rubine RL", "Dianix Rubine FG-SE", "Sumikaron Rubine SE-GL", "Kayalon Polyester Rubine GL-SE", "Synten Rubine P-GL", "Disperse Rubine GFL", "Miketon Polyester Rubine GL", "Kayalon Polyester Rubine GL-SE 200", "Disperse Red SE-GFL", "Disperse Red SE 4RB", "Cbene Rubine GFL", "Disperse Ruby Red GFL", "Disperse Rubine SE-GFL", "Rubine GFL", "Samaron Red HBL 150", "Samaron Red HBL", "Foron Rubine RD-GFL", "Disperse Scarlet SE-GFL", "Disperse Rubine SE-GFL 200", "Rubine SE/GFL"], "SMILES": "N(=NC1=CC=C(N(CCC#N)CC)C=C1)C2=C(C#N)C=C(N(=O)=O)C=C2", "physical_data": {"Molecular Weight": "348.36", "Molecular Formula": "C18H16N6O2", "Melting Point": "149-150 \u00b0C"}}