{"cas_no": "16881-33-7", "cn_name": "CBZ-L-\u916a\u6c28\u9178\u53d4\u4e01\u916f", "en_name": ["N-[(Phenylmethoxy)carbonyl]-L-tyrosine 1,1-dimethylethyl ester", "L-Tyrosine, N-[(phenylmethoxy)carbonyl]-, 1,1-dimethylethyl ester", "Tyrosine, N-carboxy-, N-benzyl tert-butyl ester, L-", "N-[(Phenylmethoxy)carbonyl]-L-tyrosine 1,1-dimethylethyl ester", "N-(Benzyloxycarbonyl)-L-tyrosine tert-butyl ester", "N-(Benzyloxycarbonyl)tyrosine tert-butyl ester", "(S)-tert-Butyl 2-(((benzyloxy)carbonyl)amino)-3-(4-hydroxyphenyl)propanoate", "tert-Butyl (S)-2-[[(benzyloxy)carbonyl]amino]-3-(4-hydroxyphenyl)propanoate"], "SMILES": "C(CC1=CC=C(O)C=C1)(NC(OCC2=CC=CC=C2)=O)C(OC(C)(C)C)=O", "physical_data": {"Molecular Weight": "371.43", "Molecular Formula": "C21H25NO5", "Melting Point": "86-88 \u00b0C"}}