{"cas_no": "16881-77-9", "cn_name": "\u7532\u57fa\u4e8c\u7532\u6c27\u57fa\u7845\u70f7", "en_name": ["Methyldimethoxysilane", "Silane, dimethoxymethyl-", "Dimethoxymethylsilane", "Methyldimethoxysilane", "Dimethoxymethylhydrosilane", "KBM 12", "Dow Corning Z 6701", "Z 6701", "TEL 8117"], "SMILES": "[SiH](OC)(OC)C", "physical_data": {"Molecular Weight": "106.20", "Molecular Formula": "C3H10O2Si", "Boiling Point": "61 \u00b0C", "Melting Point": "-136 \u00b0C", "Density": "0.861 g/cm\u00b3"}}