{"cas_no": "1689-83-4", "cn_name": "\u7898\u82ef\u8148", "en_name": ["Ioxynil", "Benzonitrile, 4-hydroxy-3,5-diiodo-", "4-Hydroxy-3,5-diiodobenzonitrile", "3,5-Diiodo-4-hydroxybenzonitrile", "Ioxynil", "Actril", "Certrol", "4-Cyano-2,6-diiodophenol", "CA 69-15", "Joxynil", "Trevespan", "2,6-Diiodo-4-cyanophenol", "Bentrol", "Cipotril", "Exp 30004A", "Ioksynil", "MB 8873", "Toxynil"], "SMILES": "C(#N)C1=CC(I)=C(O)C(I)=C1", "physical_data": {"Molecular Weight": "370.91", "Molecular Formula": "C7H3I2NO", "Melting Point": "212-213 \u00b0C"}}