{"cas_no": "1689-99-2", "cn_name": "\u8f9b\u9170\u6eb4\u82ef\u8148", "en_name": ["Bromoxynil octanoate", "Octanoic acid, 2,6-dibromo-4-cyanophenyl ester", "Octanoic acid, ester with 3,5-dibromo-4-hydroxybenzonitrile", "Bromoxynil octanoate", "Bromoxynil n-octanoyl ester", "3,5-Dibromo-4-n-octanoyloxybenzonitrile", "Bromoxynil octanoic acid ester", "4-Cyano-2,6-dibromophenyl octanoate", "3,5-Dibromo-4-octanoyloxybenzonitrile", "NPH 1320", "2,6-Dibromo-4-cyanophenyl octanoate", "3,5-Dibromo-4-hydroxybenzonitrile octanoate ester", "Brominal W", "Buctril", "Certrol B", "Bromotril", "Buctril 33.4EC"], "SMILES": "O(C(CCCCCCC)=O)C1=C(Br)C=C(C#N)C=C1Br", "physical_data": {"Molecular Weight": "403.11", "Molecular Formula": "C15H17Br2NO2", "Melting Point": "45.5 \u00b0C"}}