{"cas_no": "16899-81-3", "cn_name": "3',4'-\u4e8c\u7f9f\u57fa-ALPHA-(\u5f02\u4e19\u57fa\u6c28\u57fa)\u82ef\u4e59\u916e\u76d0\u9178\u76d0", "en_name": ["Ethanone, 1-(3,4-dihydroxyphenyl)-2-[(1-methylethyl)amino]-, hydrochloride (1:1)", "Ethanone, 1-(3,4-dihydroxyphenyl)-2-[(1-methylethyl)amino]-, hydrochloride (1:1)", "Acetophenone, 3\u2032,4\u2032-dihydroxy-2-(isopropylamino)-, hydrochloride", "Ethanone, 1-(3,4-dihydroxyphenyl)-2-[(1-methylethyl)amino]-, hydrochloride", "U 12844A", "3,4-Dihydroxy-\u03b1-(isopropylamino)acetophenone hydrochloride", "3\u2032,4\u2032-Dihydroxy-\u03b1-(isopropylamino)acetophenone hydrochloride"], "SMILES": "C(CNC(C)C)(=O)C1=CC(O)=C(O)C=C1.Cl", "physical_data": {"Molecular Weight": "", "Molecular Formula": "C11H15NO3.ClH", "Melting Point": "239-242 \u00b0C (decomp)"}}