{"cas_no": "1689-82-3", "cn_name": "4-N-\u82ef\u57fa\u82ef\u9170\u80fa", "en_name": ["4-Hydroxyazobenzene", "Phenol, 4-(2-phenyldiazenyl)-", "C.I. Solvent Yellow 7", "Phenol, 4-(phenylazo)-", "Phenol, p-phenylazo-", "4-(2-Phenyldiazenyl)phenol", "C.I. 11800", "Brasilazina Oil Yellow O", "p-Hydroxyazobenzene", "4-Hydroxyazobenzene", "Pirocard Green 491", "4-(Phenylazo)phenol", "p-(Phenylazo)phenol", "Solvent Yellow 7", "NSC 3177", "4-(Phenyldiazenyl)phenol", "p-Phenylazophenol"], "SMILES": "N(=NC1=CC=CC=C1)C2=CC=C(O)C=C2", "physical_data": {"Molecular Weight": "198.22", "Molecular Formula": "C12H10N2O", "Boiling Point": "225 \u00b0C", "Melting Point": "155-157 \u00b0C"}}