{"cas_no": "1689-89-0", "cn_name": "\u785d\u7898\u915a\u8148", "en_name": ["Nitroxynil", "Benzonitrile, 4-hydroxy-3-iodo-5-nitro-", "4-Hydroxy-3-iodo-5-nitrobenzonitrile", "M and B 10755", "Nitroxynil", "Nitroxinil", "2-Iodo-4-cyano-6-nitrophenol", "4-Cyano-2-iodo-6-nitrophenol", "3-Iodo-5-nitro-4-hydroxybenzonitrile", "3-Nitro-5-iodo-4-hydroxybenzonitrile", "3-Nitro-4-hydroxy-5-iodobenzonitrile"], "SMILES": "N(=O)(=O)C1=C(O)C(I)=CC(C#N)=C1", "physical_data": {"Molecular Weight": "290.01", "Molecular Formula": "C7H3IN2O3", "Melting Point": "137.5 \u00b0C"}}