{"cas_no": "1689-64-1", "cn_name": "9-\u82b4\u9187", "en_name": ["Fluoren-9-ol", "9H-Fluoren-9-ol", "Fluoren-9-ol", "9-Hydroxyfluorene", "9-Hydroxy-9H-fluorene", "9-Fluorenyl alcohol", "NSC 5320"], "SMILES": "OC1C=2C(C=3C1=CC=CC3)=CC=CC2", "physical_data": {"Molecular Weight": "182.22", "Molecular Formula": "C13H10O", "Melting Point": "153.5 \u00b0C"}}