{"cas_no": "16898-52-5", "cn_name": "1,3-\u4e8c(4-\u54cc\u5576\u57fa)\u4e19\u70f7", "en_name": ["4,4\u2032-Trimethylenedipiperidine", "Piperidine, 4,4\u2032-(1,3-propanediyl)bis-", "Piperidine, 4,4\u2032-trimethylenedi-", "4,4\u2032-(1,3-Propanediyl)bis[piperidine]", "DI-PIP", "1,3-Bis(4-piperidyl)propane", "4,4\u2032-Trimethylenedipiperidine", "4,4\u2032-(1,3-Propanediyl)bispiperidine", "1,3-Di-4-piperidylpropane", "4,4\u2032-Trimethylenepiperidine", "NSC 96364", "1,3-Bis(4-piperidinyl)propane"], "SMILES": "C(CCC1CCNCC1)C2CCNCC2", "physical_data": {"Molecular Weight": "210.36", "Molecular Formula": "C13H26N2", "Boiling Point": "329 \u00b0C", "Melting Point": "67.1 \u00b0C"}}