{"cas_no": "1689-84-5", "cn_name": "\u6eb4\u82ef\u8148", "en_name": ["Bromoxynil", "Benzonitrile, 3,5-dibromo-4-hydroxy-", "3,5-Dibromo-4-hydroxybenzonitrile", "Bromoxynil", "Broxynil", "4-Hydroxy-3,5-dibromobenzonitrile", "Brominal", "2,6-Dibromo-4-cyanophenol", "Labuctril", "4-Cyano-2,6-dibromophenol", "Labuctril 25", "Pardner", "Brominil", "Toplan", "ME 4 Brominal", "S 2132", "Sabre", "1-Cyano-3,5-dibromo-4-hydroxybenzene", "Emblem"], "SMILES": "C(#N)C1=CC(Br)=C(O)C(Br)=C1", "physical_data": {"Molecular Weight": "276.91", "Molecular Formula": "C7H3Br2NO", "Melting Point": "194-195 \u00b0C"}}