{"cas_no": "16909-11-8", "cn_name": "3,5-\u4e8c\u7532\u6c27\u57fa\u8089\u6842\u9178", "en_name": ["3-(3,5-Dimethoxyphenyl)-2-propenoic acid", "2-Propenoic acid, 3-(3,5-dimethoxyphenyl)-", "Cinnamic acid, 3,5-dimethoxy-", "3-(3,5-Dimethoxyphenyl)-2-propenoic acid", "3,5-Dimethoxycinnamic acid", "3-(3,5-Dimethoxyphenyl)acrylic acid"], "SMILES": "C(=CC(O)=O)C1=CC(OC)=CC(OC)=C1", "physical_data": {"Molecular Weight": "208.21", "Molecular Formula": "C11H12O4", "Melting Point": "174 \u00b0C"}}