{"cas_no": "169051-76-7", "cn_name": "1,2-\u4e8c\u7532\u57fa-3-\u4e19\u57fa\u54aa\u5511\u53cc(\u4e09\u6c1f\u7532\u57fa\u78fa\u9170)\u4e9a\u80fa", "en_name": ["1,2-Dimethyl-3-propylimidazolium bis(trifluoromethylsulfonyl)imide", "1H-Imidazolium, 1,2-dimethyl-3-propyl-, salt with 1,1,1-trifluoro-N-[(trifluoromethyl)sulfonyl]methanesulfonamide (1:1)", "Methanesulfonamide, 1,1,1-trifluoro-N-[(trifluoromethyl)sulfonyl]-, ion(1-), 1,2-dimethyl-3-propyl-1H-imidazolium", "1,2-Dimethyl-3-propylimidazolium bis(trifluoromethylsulfonyl)imide", "1,2-Dimethyl-3-propylimidazolium-bis(trifluoromethanesulfonyl)imide", "1,2-Dimethyl-3-propylimidazolium bis[(trifluoromethyl)sulfonyl]amide"], "SMILES": "S([N-]S(C(F)(F)F)(=O)=O)(C(F)(F)F)(=O)=O.C(CC)[N+]1=C(C)N(C)C=C1", "physical_data": {"Molecular Weight": "", "Molecular Formula": "C8H15N2.C2F6NO4S2", "Melting Point": "11.29 \u00b0C", "Density": "1.4542 g/cm\u00b3 @ Temp: 30.9-31.3 \u00b0C"}}