{"cas_no": "16903-35-8", "cn_name": "\u56db\u6c2f\u91d1\u9178", "en_name": ["Chloroauric acid", "Aurate(1-), tetrachloro-, hydrogen (1:1), (SP-4-1)-", "Aurate(1-), tetrachloro-, hydrogen", "Aurate(1-), tetrachloro-, hydrogen, (SP-4-1)-", "Chloroauric(III) acid", "Chloroauric acid", "Chloroauric acid (HAuCl4)", "Hydrogen tetrachloroaurate (III)", "Hydrogen tetrachloroaurate", "Auric acid (HAuCl4)", "Gold trichloride hydrochloride", "Gold chloride (AuCl3), hydrochloride", "Tetrachloroauric acid", "Chlorauric acid", "Brown gold chloride", "Chlorooauric acid (HAuCl4)", "Tetrachloroauric acid (HAuCl4)", "Hydrogen tetrachloroaurate(1-)", "Gold hydrogen chloride (AuHCl4)", "Gold tetrachloride (HAuCl4)", "G 4022", "Tetrachloroauric(III) acid"], "SMILES": "[Au+3]([Cl-])([Cl-])([Cl-])[Cl-].[H+]", "physical_data": {"Molecular Weight": "", "Molecular Formula": "AuCl4.H", "Boiling Point": "100 \u00b0C"}}