{"cas_no": "1690-72-8", "cn_name": "1-\u7532\u57fa-3-\u54cc\u5576\u7532\u9178\u7532\u916f", "en_name": ["1-Methylnipecotinic acid methyl ester", "3-Piperidinecarboxylic acid, 1-methyl-, methyl ester", "Nipecotic acid, 1-methyl-, methyl ester", "Dihydroarecaidine, methyl ester", "Dihydroarecoline", "1-Methylnipecotinic acid methyl ester", "Methyl N-methylnipecotate", "Methyl 1-methylpiperidine-3-carboxylate"], "SMILES": "C(OC)(=O)C1CN(C)CCC1", "physical_data": {"Molecular Weight": "157.21", "Molecular Formula": "C8H15NO2", "Boiling Point": "93-94 \u00b0C @ Press: 16 Torr"}}