{"cas_no": "1690-75-1", "cn_name": "1-\u7532\u57fa-4-\u54cc\u5576\u7532\u9178\u7532\u916f", "en_name": ["4-Piperidinecarboxylic acid, 1-methyl-, methyl ester", "4-Piperidinecarboxylic acid, 1-methyl-, methyl ester", "Isonipecotic acid, 1-methyl-, methyl ester", "Methyl N-methylisonipecotinate", "Methyl 1-methylpiperidine-4-carboxylate"], "SMILES": "C(OC)(=O)C1CCN(C)CC1", "physical_data": {"Molecular Weight": "157.21", "Molecular Formula": "C8H15NO2", "Boiling Point": "78-80 \u00b0C @ Press: 8 Torr"}}