{"cas_no": "16909-09-4", "cn_name": "\u53cd-2,4-\u4e8c\u7532\u6c27\u57fa\u8089\u6842\u9178", "en_name": ["(2E)-3-(2,4-Dimethoxyphenyl)-2-propenoic acid", "2-Propenoic acid, 3-(2,4-dimethoxyphenyl)-, (2E)-", "Cinnamic acid, 2,4-dimethoxy-, (E)-", "2-Propenoic acid, 3-(2,4-dimethoxyphenyl)-, (E)-", "(2E)-3-(2,4-Dimethoxyphenyl)-2-propenoic acid", "2,4-Dimethoxycinnamic acid, (E)-", "(E)-2,4-Dimethoxycinnamic acid", "trans-2,4-Dimethoxycinnamic acid", "(E)-3-(2,4-Dimethoxyphenyl)-2-propenoic acid"], "SMILES": "C(=CC(O)=O)C1=C(OC)C=C(OC)C=C1", "physical_data": {"Molecular Weight": "208.21", "Molecular Formula": "C11H12O4", "Melting Point": "138 \u00b0C"}}