{"cas_no": "16903-61-0", "cn_name": "\u53cc(\u4e09\u82ef\u57fa\u81a6)\u787c\u6c22\u5316\u4e9a\u94dc", "en_name": ["(T-4)-[Tetrahydroborato(1-)-\u03baH,\u03baH\u2032]bis(triphenylphosphine)copper", "Copper, [tetrahydroborato(1-)-\u03baH,\u03baH\u2032]bis(triphenylphosphine)-, (T-4)-", "Copper, [tetrahydroborato(1-)]bis(triphenylphosphine)-", "Copper, [tetrahydroborato(1-)-H,H\u2032]bis(triphenylphosphine)-, (T-4)-", "Copper, (tetrahydroborato)bis(triphenylphosphine)-", "(T-4)-[Tetrahydroborato(1-)-\u03baH,\u03baH\u2032]bis(triphenylphosphine)copper", "[Tetrahydroborato(1-)]bis(triphenylphosphine)copper", "(Tetrahydroborato)bis(triphenylphosphine)copper", "Tetrahydroboratobis(triphenylphosphine)copper(I)", "Bis(triphenylphosphine)cuprous borohydride", "Bis(triphenylphosphine)copper(I) borohydride"], "SMILES": "[P]([Cu+]1([P](C2=CC=CC=C2)(C3=CC=CC=C3)C4=CC=CC=C4)[H-][B+3]([H-])([H-])[H-]1)(C5=CC=CC=C5)(C6=CC=CC=C6)C7=CC=CC=C7", "physical_data": {"Molecular Weight": "", "Molecular Formula": "C36H34BCuP2", "Melting Point": "177 \u00b0C"}}