{"cas_no": "16919-27-0", "cn_name": "\u6c1f\u949b\u9178\u94be", "en_name": ["Potassium titanium fluoride (K2TiF6)", "Titanate(2-), hexafluoro-, potassium (1:2), (OC-6-11)-", "Titanate(2-), hexafluoro-, dipotassium", "Titanate(2-), hexafluoro-, dipotassium, (OC-6-11)-", "Dipotassium hexafluorotitanate", "Potassium titanium fluoride (K2TiF6)", "Dipotassium hexafluorotitanate(2-)", "Dipotassium monotitanium hexafluoride", "Potassium hexafluorotitanate (K2TiF6)", "Dipotassium titanium hexafluoride", "Potassium fluorotitanate(K2TiF6)", "NSC 187663", "NSC 43605"], "SMILES": "[Ti+4]([F-])([F-])([F-])([F-])([F-])[F-].[K+]", "physical_data": {"Molecular Weight": "", "Molecular Formula": "F6Ti.2K", "Melting Point": "899 \u00b0C"}}