{"cas_no": "16915-70-1", "cn_name": "\u5c3c\u544b\u7d22\u5c14", "en_name": ["Nifursol", "Benzoic acid, 2-hydroxy-3,5-dinitro-, 2-[(5-nitro-2-furanyl)methylene]hydrazide", "Salicylic acid, 3,5-dinitro-, (5-nitrofurfurylidene)hydrazide", "Benzoic acid, 2-hydroxy-3,5-dinitro-, [(5-nitro-2-furanyl)methylene]hydrazide", "3,5-Dinitrosalicylic acid (5-nitrofurfurylidene)hydrazide", "Nifursol", "Histomon", "Salfuride", "Sulfuride", "2-Hydroxy-3,5-dinitro-N\u2032-((5-nitrofuran-2-yl)methylene)benzohydrazide", "BT06G06"], "SMILES": "C(NN=CC=1OC(N(=O)=O)=CC1)(=O)C2=C(O)C(N(=O)=O)=CC(N(=O)=O)=C2", "physical_data": {"Molecular Weight": "365.21", "Molecular Formula": "C12H7N5O9", "Melting Point": "227-229 \u00b0C"}}