{"cas_no": "169126-64-1", "cn_name": "3,5,5,8,8-\u4e94\u7532\u57fa-5,6,7,8-\u56db\u6c22\u8418-2-\u787c\u9178", "en_name": ["(1,1,4,4,7-Pentamethyltetralin-6-yl)boronic acid", "Boronic acid, B-(5,6,7,8-tetrahydro-3,5,5,8,8-pentamethyl-2-naphthalenyl)-", "Boronic acid, (5,6,7,8-tetrahydro-3,5,5,8,8-pentamethyl-2-naphthalenyl)-", "B-(5,6,7,8-Tetrahydro-3,5,5,8,8-pentamethyl-2-naphthalenyl)boronic acid", "(3,5,5,8,8-Pentamethyl-5,6,7,8-tetrahydronaphthalen-2-yl)boronic acid", "(1,1,4,4,7-Pentamethyltetralin-6-yl)boronic acid"], "SMILES": "CC1(C)C=2C(C(C)(C)CC1)=CC(C)=C(B(O)O)C2", "physical_data": {"Molecular Weight": "246.15", "Molecular Formula": "C15H23BO2", "Melting Point": "220-225 \u00b0C"}}