{"cas_no": "1691-99-2", "cn_name": "N-\u4e59\u57fa\u5168\u6c1f\u8f9b\u57fa\u78fa\u9170\u80fa\u4e59\u9187", "en_name": ["N-Ethylperfluorooctanesulfonamidoethanol", "1-Octanesulfonamide, N-ethyl-1,1,2,2,3,3,4,4,5,5,6,6,7,7,8,8,8-heptadecafluoro-N-(2-hydroxyethyl)-", "N-Ethyl-1,1,2,2,3,3,4,4,5,5,6,6,7,7,8,8,8-heptadecafluoro-N-(2-hydroxyethyl)-1-octanesulfonamide", "N-Ethylperfluorooctanesulfonamidoethyl alcohol", "N-Ethyl-N-(2-hydroxyethyl)perfluorooctanesulfonamide", "N-Ethylperfluorooctanesulfonamidoethanol", "AI 3-29782", "FC 10", "Fluorad FC 10", "2-[N-Ethyl-N-(perfluorooctylsulfonyl)amino]ethanol", "2-Perfluorooctylsulfonyl-N-ethylaminoethyl alcohol", "LE 011", "N-Ethylheptadecafluorooctanesulfonamidoethanol", "N-EtFOSE", "2-(N-Ethylperfluoro-1-octanesulfonamido)ethanol"], "SMILES": "C(C(C(C(S(N(CCO)CC)(=O)=O)(F)F)(F)F)(F)F)(C(C(C(C(F)(F)F)(F)F)(F)F)(F)F)(F)F", "physical_data": {"Molecular Weight": "571.25", "Molecular Formula": "C12H10F17NO3S", "Boiling Point": "130-135 \u00b0C @ Press: 0.07 Torr", "Melting Point": "67-74 \u00b0C"}}