{"cas_no": "16919-58-7", "cn_name": "\u6c2f\u94c2\u9178\u94f5", "en_name": ["Ammonium hexachloroplatinate", "Platinate(2-), hexachloro-, ammonium (1:2), (OC-6-11)-", "Platinate(2-), hexachloro-, diammonium, (OC-6-11)-", "Platinate(2-), hexachloro-, diammonium", "Ammonium hexachloroplatinate(IV)", "Ammonium chloroplatinate(IV)", "Diammonium hexachloroplatinate(2-)", "Diammonium platinum hexachloride", "Diammonium hexachloroplatinate", "Ammonium hexachloroplatinate", "Ammonium chloroplatinate ((NH4)2PtCl6)", "NSC 119874", "NSC 240453"], "SMILES": "[Pt+4]([Cl-])([Cl-])([Cl-])([Cl-])([Cl-])[Cl-].[NH4+]", "physical_data": {"Molecular Weight": "", "Molecular Formula": "Cl6Pt.2H4N", "Melting Point": "380 \u00b0C (decomp)", "Density": "3.06 g/cm\u00b3"}}