{"cas_no": "16929-60-5", "cn_name": "1,3-\u4e8c(\u90bb\u7532\u6c27\u57fa\u82ef\u6c27\u57fa)-2-\u4e19\u9187", "en_name": ["1,3-Bis(2-methoxyphenoxy)-2-propanol", "2-Propanol, 1,3-bis(2-methoxyphenoxy)-", "2-Propanol, 1,3-bis(o-methoxyphenoxy)-", "1,3-Bis(2-methoxyphenoxy)-2-propanol", "NSC 142122"], "SMILES": "O(CC(COC1=C(OC)C=CC=C1)O)C2=C(OC)C=CC=C2", "physical_data": {"Molecular Weight": "304.34", "Molecular Formula": "C17H20O5", "Boiling Point": "165-225 \u00b0C @ Press: 9 Torr", "Melting Point": "73-74.2 \u00b0C"}}