{"cas_no": "1692-25-7", "cn_name": "\u5421\u5576-3-\u787c\u9178", "en_name": ["Pyridin-3-ylboronic acid", "Boronic acid, B-3-pyridinyl-", "3-Pyridineboronic acid", "Boronic acid, 3-pyridinyl-", "B-3-Pyridinylboronic acid", "3-Pyridylboronic acid", "(3-Pyridinyl)boronic acid", "Dihydroxy(3-pyridyl)borane", "Pyridin-3-ylboronic acid"], "SMILES": "B(O)(O)C=1C=CC=NC1", "physical_data": {"Molecular Weight": "122.92", "Molecular Formula": "C5H6BNO2", "Melting Point": "&gt;310 \u00b0C"}}