{"cas_no": "16924-03-1", "cn_name": "\u4e03\u6c1f\u94cc(V)\u9178\u94be", "en_name": ["Niobate(2-), heptafluoro-, potassium (1:2)", "Niobate(2-), heptafluoro-, potassium (1:2)", "Niobate(2-), heptafluoro-, dipotassium", "Potassium heptafluoroniobate(V)", "Potassium fluoniobate(V) (K2NbF7)", "Dipotassium heptafluoroniobate(2-)", "Niobium potassium fluoride (NbK2F7)", "Dipotassium heptafluoroniobate", "Potassium niobium fluoride(k2nbf7)", "NSC 154397"], "SMILES": "[Nb+5]([F-])([F-])([F-])([F-])([F-])([F-])[F-].[K+]", "physical_data": {"Molecular Weight": "", "Molecular Formula": "F7Nb.2K", "Melting Point": "735 \u00b0C"}}