{"cas_no": "16924-00-8", "cn_name": "\u6c1f\u94bd\u9178\u94be", "en_name": ["Potassium heptafluorotantalate", "Tantalate(2-), heptafluoro-, potassium (1:2)", "Tantalate(2-), heptafluoro-, dipotassium", "Potassium heptafluorotantalate(V)", "Potassium fluotantalate(V) (K2TaF7)", "Potassium fluorotantalate (K2TaF7)", "Potassium tantalum fluoride (K2TaF7)", "Potassium fluorotantalate", "Potassium heptafluorotantalate", "Dipotassium heptafluorotantalate", "NSC 154396", "Potassium sodium tantalum fluoride (KNaTaF7)"], "SMILES": "[Ta+5]([F-])([F-])([F-])([F-])([F-])([F-])[F-].[K+]", "physical_data": {"Molecular Weight": "", "Molecular Formula": "F7Ta.2K", "Melting Point": "775 \u00b0C", "Density": "5.24 g/cm\u00b3"}}