{"cas_no": "1693-86-3", "cn_name": "3-\u5df1\u57fa\u567b\u5429", "en_name": ["3-Hexylthiophene", "Thiophene, 3-hexyl-", "3-Hexylthiophene"], "SMILES": "C(CCCCC)C=1C=CSC1", "physical_data": {"Molecular Weight": "168.30", "Molecular Formula": "C10H16S", "Boiling Point": "229.64 \u00b0C @ Press: 760 Torr", "Melting Point": "-55.54 \u00b0C", "Density": "0.93728 g/cm\u00b3 @ Temp: 20 \u00b0C"}}