{"cas_no": "1693-28-3", "cn_name": "2-\u4e09\u6c1f\u7532\u57fa\u567b\u5428\u916e", "en_name": ["2-(Trifluoromethyl)-9H-thioxanthen-9-one", "9H-Thioxanthen-9-one, 2-(trifluoromethyl)-", "Thioxanthen-9-one, 2-(trifluoromethyl)-", "2-(Trifluoromethyl)-9H-thioxanthen-9-one", "2-Trifluoromethylthioxanthone", "2-(Trifluoromethyl)thioxanthen-9-one", "2-Trifluoromethyl-9-thioxanthone"], "SMILES": "O=C1C=2C(SC=3C1=CC=CC3)=CC=C(C(F)(F)F)C2", "physical_data": {"Molecular Weight": "280.27", "Molecular Formula": "C14H7F3OS", "Melting Point": "147-148 \u00b0C"}}