{"cas_no": "1693-37-4", "cn_name": "\u5bf9\u4e19\u80fa\u915a", "en_name": ["N-(4-Hydroxyphenyl)propanamide", "Propanamide, N-(4-hydroxyphenyl)-", "Propionanilide, 4\u2032-hydroxy-", "N-(4-Hydroxyphenyl)propanamide", "4\u2032-Hydroxypropionanilid", "Parapropamol", "Parapropanol", "p-Propionamidophenol", "N-(p-Hydroxyphenyl)propionamide", "4\u2032-Hydroxypropionanilide", "4-Propionamidophenol", "p-Hydroxypropionanilide", "Solvodol", "4-(Propionylamino)phenol", "N-(4-Hydroxyphenyl)propionamide"], "SMILES": "N(C(CC)=O)C1=CC=C(O)C=C1", "physical_data": {"Molecular Weight": "165.19", "Molecular Formula": "C9H11NO2", "Melting Point": "173 \u00b0C"}}