{"cas_no": "1693-71-6", "cn_name": "\u787c\u9178\u4e09\u70ef\u4e19\u916f", "en_name": ["Boric acid (H3BO3) tri-2-propen-1-yl ester", "Boric acid (H3BO3), tri-2-propen-1-yl ester", "Boric acid (H3BO3), triallyl ester", "Boric acid (H3BO3), tri-2-propenyl ester", "Allyl borate", "Boric acid (H3BO3) tri-2-propen-1-yl ester", "Allyl borate ((C3H5O)3B)", "Triallyl borate", "Triallyloxyborane", "Tris(allyloxy)borane", "NSC 65653", "Trisallyl borate"], "SMILES": "B(OCC=C)(OCC=C)OCC=C", "physical_data": {"Molecular Weight": "182.02", "Molecular Formula": "C9H15BO3", "Boiling Point": "72 \u00b0C @ Press: 12 Torr", "Density": "0.919 g/cm\u00b3"}}