{"cas_no": "1693-74-9", "cn_name": "\u6c18\u4ee3\u56db\u6c22\u544b\u5583", "en_name": ["THF-d8", "Furan-2,3,4,5-d4, tetrahydro-d4-", "Furan-d4, tetrahydro-d4-", "Tetrahydro-d4furan-2,3,4,5-d4", "Tetrahydrofuran-d8", "THF-d8", "Perdeuterotetrahydrofuran", "d8-THF", "2,2,3,3,4,4,5,5-Octadeuteriooxolane"], "SMILES": "C1(CCOC1)([2H])[2H]", "physical_data": {"Molecular Weight": "", "Molecular Formula": "C4D8O", "Boiling Point": "65.4 \u00b0C", "Melting Point": "-105.6 \u00b0C"}}