{"cas_no": "16935-34-5", "cn_name": "5-\u5f02\u4e19\u57fa\u6d77\u56e0", "en_name": ["5-Isopropylhydantoin", "2,4-Imidazolidinedione, 5-(1-methylethyl)-", "Hydantoin, 5-isopropyl-", "5-(1-Methylethyl)-2,4-imidazolidinedione", "5-Isopropylhydantoin", "(\u00b1)-5-Isopropylhydantoin", "DL-5-Isopropylhydantoin", "NSC 163352", "NSC 55329"], "SMILES": "C(C)(C)C1NC(=O)NC1=O", "physical_data": {"Molecular Weight": "142.16", "Molecular Formula": "C6H10N2O2", "Melting Point": "144-145 \u00b0C"}}