{"cas_no": "16932-49-3", "cn_name": "2,6-\u4e8c\u7532\u6c27\u57fa\u82ef\u7532\u8148", "en_name": ["2,6-Dimethoxybenzonitrile", "Benzonitrile, 2,6-dimethoxy-", "2,6-Dimethoxybenzonitrile", "2-Cyano-3-methoxyanisole", "NSC 27017"], "SMILES": "C(#N)C1=C(OC)C=CC=C1OC", "physical_data": {"Molecular Weight": "163.17", "Molecular Formula": "C9H9NO2", "Boiling Point": "310 \u00b0C", "Melting Point": "119 \u00b0C"}}