{"cas_no": "16939-73-4", "cn_name": "\u53cd-\u4e59\u9178-2-\u5e9a\u70ef\u916f", "en_name": ["(E)-2-Heptenyl acetate", "2-Hepten-1-ol, 1-acetate, (2E)-", "2-Hepten-1-ol, acetate, (E)-", "2-Hepten-1-ol, acetate, (2E)-", "trans-2-Heptenyl acetate", "(E)-2-Heptenyl acetate"], "SMILES": "C(=CCCCC)COC(C)=O", "physical_data": {"Molecular Weight": "156.22", "Molecular Formula": "C9H16O2", "Boiling Point": "86.5 \u00b0C @ Press: 15 Torr"}}