{"cas_no": "16930-95-3", "cn_name": "2-\u5e9a\u7094\u9178\u4e59\u916f", "en_name": ["Ethyl 2-heptynoate", "2-Heptynoic acid, ethyl ester", "Ethyl 2-heptynoate", "ENT 33391", "NSC 190963"], "SMILES": "C(C#CCCCC)(OCC)=O", "physical_data": {"Molecular Weight": "154.21", "Molecular Formula": "C9H14O2", "Boiling Point": "193 \u00b0C @ Press: 760 Torr"}}