{"cas_no": "16932-45-9", "cn_name": "1-\u6eb4-2,6-\u4e8c\u7532\u6c27\u57fa\u82ef", "en_name": ["2-Bromo-1,3-dimethoxybenzene", "Benzene, 2-bromo-1,3-dimethoxy-", "2-Bromo-1,3-dimethoxybenzene", "1-Bromo-2,6-dimethoxybenzene", "2,6-Dimethoxybromobenzene", "2-Bromo-3-methoxyanisole", "1,3-Dimethoxy-2-bromobenzene", "2,6-Dimethoxy-1-bromobenzene"], "SMILES": "O(C)C1=C(Br)C(OC)=CC=C1", "physical_data": {"Molecular Weight": "217.06", "Molecular Formula": "C8H9BrO2", "Boiling Point": "273 \u00b0C @ Press: 760 Torr", "Melting Point": "94-95 \u00b0C"}}