{"cas_no": "169447-70-5", "cn_name": "(S)-1-N-Boc-2-\u7532\u57fa\u54cc\u55ea", "en_name": ["1,1-Dimethylethyl (2S)-2-methyl-1-piperazinecarboxylate", "1-Piperazinecarboxylic acid, 2-methyl-, 1,1-dimethylethyl ester, (2S)-", "1-Piperazinecarboxylic acid, 2-methyl-, 1,1-dimethylethyl ester, (S)-", "1,1-Dimethylethyl (2S)-2-methyl-1-piperazinecarboxylate", "(2S)-2-Methyl-1-piperazinecarboxylic acid 1,1-dimethylethyl ester", "(S)-1-Boc-2-methylpiperazine", "tert-Butyl (2S)-2-methylpiperazine-1-carboxylate", "2-Methylpiperazine-1-carboxylic acid (S)-tert-butyl ester", "(S)-2-Methylpiperazine-1-carboxylic acid tert-butyl ester", "tert-Butyl (S)-2-methylpiperazine-1-carboxylate", "(S)-tert-Butyl 2-methylpiperazine-1-carboxylate", "(S)-1-N-tert-Butoxycarbonyl-2-methylpiperazine", "tert-Butyl (2S)-2-methylpiperazine-1-carboxylate", "(S)-4-N-tert-Butoxycarbonyl-2-methylpiperazine", "tert-Butyl (2S)-2-methylpiperazin-1-ylformate"], "SMILES": "C(OC(C)(C)C)(=O)N1C(C)CNCC1", "physical_data": {"Molecular Weight": "200.28", "Molecular Formula": "C10H20N2O2", "Melting Point": "34-36 \u00b0C"}}