{"cas_no": "1694-29-7", "cn_name": "3-\u6c2f-2\uff0c4-\u620a\u4e8c\u916e", "en_name": ["3-Chloro-2,4-pentanedione", "2,4-Pentanedione, 3-chloro-", "3-Chloro-2,4-pentanedione", "3-Chloroacetylacetone", "1-Acetyl-1-chloroacetone", "3-Chloro-2,4-dioxopentane", "\u03b1-Chloroacetylacetone", "3-Chloro-2,4-pentadione", "3-Chloropentan-2,4-dione"], "SMILES": "C(C(C)=O)(C(C)=O)Cl", "physical_data": {"Molecular Weight": "134.56", "Molecular Formula": "C5H7ClO2", "Boiling Point": "152 \u00b0C @ Press: 708 Torr", "Melting Point": "41-44.5 \u00b0C"}}