{"cas_no": "1694-06-0", "cn_name": "\u5bf9\u7532\u82ef\u78fa\u9170\u8132", "en_name": ["Tosylurea", "Benzenesulfonamide, N-(aminocarbonyl)-4-methyl-", "Urea, (p-tolylsulfonyl)-", "N-(Aminocarbonyl)-4-methylbenzenesulfonamide", "N-(p-Tolylsulfonyl)urea", "Tosylurea", "(p-Toluenesulfonyl)urea", "(p-Tolylsulfonyl)urea", "H 16650", "N-(p-Toluenesulfonyl)urea", "(4-Methylphenyl)sulfonylurea", "(4-Methylbenzenesulfonyl)urea"], "SMILES": "S(NC(N)=O)(=O)(=O)C1=CC=C(C)C=C1", "physical_data": {"Molecular Weight": "214.24", "Molecular Formula": "C8H10N2O3S", "Melting Point": "192 \u00b0C"}}