{"cas_no": "16947-63-0", "cn_name": "2-6-\u4e8c\u7532\u57fa-4-\u785d\u57fa\u82ef\u80fa", "en_name": ["2,6-Dimethyl-4-nitrobenzenamine", "Benzenamine, 2,6-dimethyl-4-nitro-", "2,6-Xylidine, 4-nitro-", "2,6-Dimethyl-4-nitrobenzenamine", "2,6-Dimethyl-4-nitroaniline", "4-Nitro-2,6-xylidine", "NSC 101580", "2,6-Dimethyl-4-nitrophenylamine"], "SMILES": "N(=O)(=O)C1=CC(C)=C(N)C(C)=C1", "physical_data": {"Molecular Weight": "166.18", "Molecular Formula": "C8H10N2O2", "Melting Point": "165 \u00b0C"}}