{"cas_no": "1694-92-4", "cn_name": "\u90bb\u785d\u57fa\u82ef\u78fa\u9170\u6c2f", "en_name": ["2-Nitrobenzenesulfonyl chloride", "Benzenesulfonyl chloride, 2-nitro-", "Benzenesulfonyl chloride, o-nitro-", "2-Nitrobenzenesulfonyl chloride", "o-Nitrobenzenesulfonyl chloride", "o-Nitrophenylsulfonyl chloride", "2-Nitrophenylsulfonyl chloride", "NSC 12991", "2-Nitrobenzene-1-sulfonyl chloride", "o-Nosyl chloride", "2-Nitro-phenyl-sulphonyl chloride", "1-(Chlorosulfonyl)-2-nitrobenzene", "2-Nitrobenzenesulphonyl chloride"], "SMILES": "S(Cl)(=O)(=O)C1=C(N(=O)=O)C=CC=C1", "physical_data": {"Molecular Weight": "221.62", "Molecular Formula": "C6H4ClNO4S", "Melting Point": "67 \u00b0C"}}