{"cas_no": "1694-31-1", "cn_name": "\u4e59\u9170\u4e59\u9178\u53d4\u4e01\u916f", "en_name": ["tert-Butyl acetoacetate", "Butanoic acid, 3-oxo-, 1,1-dimethylethyl ester", "Acetoacetic acid, tert-butyl ester", "tert-Butyl acetoacetate", "tert-Butyl 3-oxobutyrate", "1,1-Dimethylethyl acetoacetate", "tert-Butyl 3-oxobutanoate", "tert-Butyl acetylacetonate", "3-Oxobutanoic acid 1,1-dimethylethyl ester", "NSC 42869", "3-Oxobutyric acid tert-butyl ester", "tert-Butyl acetylacetate", "Lonza TBAA"], "SMILES": "O(C(C)(C)C)C(CC(C)=O)=O", "physical_data": {"Molecular Weight": "158.20", "Molecular Formula": "C8H14O3", "Boiling Point": "71.5 \u00b0C @ Press: 11 Torr", "Melting Point": "212-213 \u00b0C", "Density": "0.9698 g/cm\u00b3 @ Temp: 25 \u00b0C"}}