{"cas_no": "16940-66-2", "cn_name": "\u787c\u6c22\u5316\u94a0", "en_name": ["Sodium borohydride", "Borate(1-), tetrahydro-, sodium (1:1)", "Borate(1-), tetrahydro-, sodium", "Sodium borohydride", "Sodium tetrahydroborate(1-)", "Sodium borohydride (Na(BH4))", "Sodium tetrahydroborate", "Borol", "Sodium hydroborate", "Sodium borohydrate", "Hidkitex DF", "Sodium tetrahydridoborate", "VenMet", "Colorstrip 2000", "Hydrifin", "Venpure SF", "Boron sodium hydride (BNaH4)", "Borino"], "SMILES": "[B+3]([H-])([H-])([H-])[H-].[Na+]", "physical_data": {"Molecular Weight": "", "Molecular Formula": "BH4.Na", "Boiling Point": "89-90 \u00b0C @ Press: 3.5 Torr", "Melting Point": "&gt;400 \u00b0C", "Density": "1.074 g/cm\u00b3"}}