{"cas_no": "16949-15-8", "cn_name": "\u787c\u6c22\u5316\u9502", "en_name": ["Lithium borohydride", "Borate(1-), tetrahydro-, lithium (1:1)", "Borate(1-), tetrahydro-, lithium", "Lithium boron hydride", "Lithium borohydride (LiBH4)", "Lithium hydroborate (LiBH4)", "Lithium borohydride", "Lithium tetrahydroborate", "Lithium tetrahydroborate(1-)", "Lithium tetrahydroborate (LiBH4)"], "SMILES": "[B+3]([H-])([H-])([H-])[H-].[Li+]", "physical_data": {"Molecular Weight": "", "Molecular Formula": "BH4.Li", "Melting Point": "278-279 \u00b0C", "Density": "0.66 g/cm\u00b3"}}