{"cas_no": "16940-81-1", "cn_name": "\u516d\u6c1f\u78f7\u9178", "en_name": ["Hexafluorophosphoric acid", "Phosphate(1-), hexafluoro-, hydrogen (1:1)", "Hexafluorophosphoric acid", "Hydrogen hexafluorophosphate", "Phosphate(1-), hexafluoro-, hydrogen", "Hydrogen hexafluorophosphate(1-)", "Hydrogen hexafluorophosphate (HPF6)"], "SMILES": "[P+5]([F-])([F-])([F-])([F-])([F-])[F-].[H+]", "physical_data": {"Molecular Weight": "", "Molecular Formula": "F6P.H", "Melting Point": "128-130 \u00b0C (decomp)"}}