{"cas_no": "16941-12-1", "cn_name": "\u6c2f\u94c2\u9178", "en_name": ["Chloroplatinic acid", "Platinate(2-), hexachloro-, hydrogen (1:2), (OC-6-11)-", "Platinate(2-), hexachloro-, dihydrogen, (OC-6-11)-", "Platinate(2-), hexachloro-, dihydrogen", "Chloroplatinic(IV) acid", "Chloroplatinic acid", "Chloroplatinic(IV) acid (H2PtCl6)", "Hydrogen hexachloroplatinate(IV)", "Hexachloroplatinic acid", "Dihydrogen hexachloroplatinate", "Dihydrogen hexachloroplatinate(2-)", "Platinum chloride (H2PtCl6)", "Hexachloroplatinic(IV) acid", "Platinic chloride", "Hexachloroplatinic acid (H2PtCl6)", "Speier's catalyst", "Hydrogen platinum chloride (H2PtCl6)", "Platinic acid (H2PtCl6)", "Hydrogen chloroplatinate (H2PtCl6)", "Hydrogen hexachloroplatinate", "PL 50T", "CAT-PL 50T", "Hydrogen hexachlorideplatinate (H2PtCl6)", "D 165", "CSAT-F 50030"], "SMILES": "[Pt+4]([Cl-])([Cl-])([Cl-])([Cl-])([Cl-])[Cl-].[H+]", "physical_data": {"Molecular Weight": "", "Molecular Formula": "Cl6Pt.2H", "Melting Point": "207 \u00b0C (decomp)"}}