{"cas_no": "16947-80-1", "cn_name": "BOC-CYS(ME)-OH", "en_name": ["N-[(1,1-Dimethylethoxy)carbonyl]-S-methyl-L-cysteine", "L-Cysteine, N-[(1,1-dimethylethoxy)carbonyl]-S-methyl-", "Alanine, N-carboxy-3-(methylthio)-, N-tert-butyl ester, L-", "N-[(1,1-Dimethylethoxy)carbonyl]-S-methyl-L-cysteine", "N-tert-Butoxycarbonyl-S-methyl-L-cysteine", "N-Boc-S-methylcysteine", "Boc-L-Cys(Me)-OH", "(2R)-2-[(2-Methylpropan-2-yl)oxycarbonylamino]-3-methylsulfanylpropanoic acid"], "SMILES": "C(NC(OC(C)(C)C)=O)(CSC)C(O)=O", "physical_data": {"Molecular Weight": "235.30", "Molecular Formula": "C9H17NO4S", "Melting Point": "71-73 \u00b0C"}}