{"cas_no": "16957-70-3", "cn_name": "\u53cd\u5f0f-2-\u7532\u57fa-2-\u620a\u70ef\u9178", "en_name": ["(E)-2-Methyl-2-pentenoic acid", "2-Pentenoic acid, 2-methyl-, (2E)-", "2-Pentenoic acid, 2-methyl-, (E)-", "(2E)-2-Methyl-2-pentenoic acid", "trans-2-Methyl-2-pentenoic acid", "(E)-2-Methyl-2-pentenoyl chloride", "(E)-2-Methyl-2-pentenoic acid", "(2E)-2-Methylpent-2-enoic acid"], "SMILES": "C(=CCC)(C(O)=O)C", "physical_data": {"Molecular Weight": "114.14", "Molecular Formula": "C6H10O2", "Boiling Point": "214 \u00b0C", "Melting Point": "24.4 \u00b0C"}}