{"cas_no": "16952-66-2", "cn_name": "4-\u6c28\u57fa\u70df\u9178\u4e59\u916f", "en_name": ["3-Pyridinecarboxylic acid, 4-amino-, ethyl ester", "3-Pyridinecarboxylic acid, 4-amino-, ethyl ester", "Nicotinic acid, 4-amino-, ethyl ester", "4-Amino-3-ethoxycarbonylpyridine", "Ethyl 4-aminonicotinate", "Ethyl 4-amino-3-pyridinecarboxylate"], "SMILES": "C(OCC)(=O)C=1C(N)=CC=NC1", "physical_data": {"Molecular Weight": "166.18", "Molecular Formula": "C8H10N2O2", "Melting Point": "109-111 \u00b0C"}}