{"cas_no": "16954-69-1", "cn_name": "2-\u7532\u6c28\u57fa\u82ef\u5e76\u567b\u5511", "en_name": ["N-Methyl-2-benzothiazolamine", "2-Benzothiazolamine, N-methyl-", "Benzothiazole, 2-(methylamino)-", "N-Methyl-2-benzothiazolamine", "2-(Methylamino)benzothiazole", "2-(N-Methylamino)benzothiazole", "N-(2-Benzothiazolyl)methylamine", "Benzothiazol-2-ylmethylamine"], "SMILES": "N(C)C1=NC=2C(S1)=CC=CC2", "physical_data": {"Molecular Weight": "164.23", "Molecular Formula": "C8H8N2S", "Melting Point": "138 \u00b0C"}}