{"cas_no": "169590-42-5", "cn_name": "\u585e\u6765\u6614\u5e03", "en_name": ["Celecoxib", "Benzenesulfonamide, 4-[5-(4-methylphenyl)-3-(trifluoromethyl)-1H-pyrazol-1-yl]-", "4-[5-(4-Methylphenyl)-3-(trifluoromethyl)-1H-pyrazol-1-yl]benzenesulfonamide", "Celecoxib", "SC 58635", "YM 177", "Celebrex", "Celocoxib", "Celebra", "Celecox", "Xilebao", "Medicoxib", "Eurocox", "Onsenal", "4-[5-(p-Tolyl)-3-(trifluoromethyl)-1H-pyrazol-1-yl]benzenesulfonamide"], "SMILES": "C(F)(F)(F)C1=NN(C(=C1)C2=CC=C(C)C=C2)C3=CC=C(S(N)(=O)=O)C=C3", "physical_data": {"Molecular Weight": "381.37", "Molecular Formula": "C17H14F3N3O2S", "Melting Point": "157-159 \u00b0C"}}