{"cas_no": "1695-77-8", "cn_name": "\u5927\u89c2\u9709\u7d20", "en_name": ["Spectinomycin", "4H-Pyrano[2,3-b][1,4]benzodioxin-4-one, decahydro-4a,7,9-trihydroxy-2-methyl-6,8-bis(methylamino)-, (2R,4aR,5aR,6S,7S,8R,9S,9aR,10aS)-", "4H-Pyrano[2,3-b][1,4]benzodioxin-4-one, decahydro-4a,7,9-trihydroxy-2-methyl-6,8-bis(methylamino)-", "4H-Pyrano[2,3-b][1,4]benzodioxin-4-one, decahydro-4a,7,9-trihydroxy-2-methyl-6,8-bis(methylamino)-, [2R-(2\u03b1,4a\u03b2,5a\u03b2,6\u03b2,7\u03b2,8\u03b2,9\u03b1,9a\u03b1,10a\u03b2)]-", "(2R,4aR,5aR,6S,7S,8R,9S,9aR,10aS)-Decahydro-4a,7,9-trihydroxy-2-methyl-6,8-bis(methylamino)-4H-pyrano[2,3-b][1,4]benzodioxin-4-one", "Actinospectacin", "Trobicin", "Spectinomycin", "Espectinomicina", "M 141", "U 18409E", "Spectam", "Togamycin", "Antibiotic 2233wp", "Spectacin", "MeSH ID: D000198"], "SMILES": "N(C)C1C2C(OC3C(O)(O2)C(=O)CC(C)O3)C(O)C(NC)C1O", "physical_data": {"Molecular Weight": "332.35", "Molecular Formula": "C14H24N2O7", "Melting Point": "185 \u00b0C (decomp)"}}