{"cas_no": "16954-74-8", "cn_name": "2-(\u4e8c\u6c30\u57fa\u4e9a\u7532\u57fa)\u831a-1,3-\u4e8c\u916e", "en_name": ["2-(Dicyanomethylene)-1,3-indandione", "Propanedinitrile, 2-(1,3-dihydro-1,3-dioxo-2H-inden-2-ylidene)-", "\u03942,\u03b1-Indanmalononitrile, 1,3-dioxo-", "Propanedinitrile, (1,3-dihydro-1,3-dioxo-2H-inden-2-ylidene)-", "2-(1,3-Dihydro-1,3-dioxo-2H-inden-2-ylidene)propanedinitrile", "2-(Dicyanomethylene)-1,3-indandione", "(1,3-Dioxoindan-2-ylidene)propanedinitrile", "2-(1,3-Dioxo-1H-inden-2(3H)-ylidene)malononitrile", "2-(1,3-Dioxo-indan-2-ylidene)-malononitrile", "2-(1,3-Dioxoinden-2-ylidene)propanedinitrile", "2-(1,3-Dioxo-2,3-dihydro-1H-inden-2-ylidene)propanedinitrile"], "SMILES": "C(C#N)(C#N)=C1C(=O)C=2C(C1=O)=CC=CC2", "physical_data": {"Molecular Weight": "208.17", "Molecular Formula": "C12H4N2O2", "Melting Point": "281 \u00b0C"}}