{"cas_no": "1696-17-9", "cn_name": "N,N-\u4e8c\u4e59\u57fa\u82ef\u7532\u9170\u80fa", "en_name": ["N,N-Diethylbenzamide", "Benzamide, N,N-diethyl-", "N,N-Diethylbenzamide", "Benzoic acid diethylamide", "R 2", "Benzoyldiethylamine", "R 2 (insect repellent)", "Benzoic acid N,N-diethylamide", "Rebemid", "Rebemide", "NSC 16060"], "SMILES": "C(N(CC)CC)(=O)C1=CC=CC=C1", "physical_data": {"Molecular Weight": "177.24", "Molecular Formula": "C11H15NO", "Boiling Point": "130-132 \u00b0C @ Press: 9 Torr", "Melting Point": "127-128 \u00b0C", "Density": "1.010 g/cm\u00b3 @ Temp: 20 \u00b0C"}}