{"cas_no": "1696-20-4", "cn_name": "4-\u4e59\u9170\u57fa\u5417\u5549", "en_name": ["N-Acetylmorpholine", "Ethanone, 1-(4-morpholinyl)-", "Morpholine, 4-acetyl-", "1-(4-Morpholinyl)ethanone", "N-Acetylmorpholine", "4-Acetylmorpholine", "Acetomorpholide", "NSC 2764", "1-(Morpholin-4-yl)ethanone", "1-Morpholinoethanone", "1-Morpholinoethan-1-one", "1-(Morpholin-4-yl)ethan-1-one"], "SMILES": "C(C)(=O)N1CCOCC1", "physical_data": {"Molecular Weight": "129.16", "Molecular Formula": "C6H11NO2", "Boiling Point": "89 \u00b0C @ Press: 1 Torr", "Melting Point": "14.5 \u00b0C", "Density": "1.1162 g/cm\u00b3 @ Temp: 20 \u00b0C"}}