{"cas_no": "16966-07-7", "cn_name": "N-\u82c4\u6c27\u7fb0\u57fa-O-\u53d4\u4e01\u57fa-L-\u82cf\u6c28\u9178\u4e8c\u73af\u5df1\u80fa\u76d0", "en_name": ["L-Threonine, O-(1,1-dimethylethyl)-N-[(phenylmethoxy)carbonyl]-, compd. with N-cyclohexylcyclohexanamine (1:1)", "L-Threonine, O-(1,1-dimethylethyl)-N-[(phenylmethoxy)carbonyl]-, compd. with N-cyclohexylcyclohexanamine (1:1)", "Butyric acid, 3-tert-butoxy-2-(carboxyamino)-, 2-benzyl ester, compd. with dicyclohexylamine (1:1), L-", "Butyric acid, 3-tert-butoxy-2-(carboxyamino)-, N-benzyl ester, compd, with dicyclohexylamine (1:1)"], "SMILES": "N(C1CCCCC1)C2CCCCC2.C(NC(OCC1=CC=CC=C1)=O)(C(OC(C)(C)C)C)C(O)=O", "physical_data": {"Molecular Weight": "", "Molecular Formula": "C16H23NO5.C12H23N", "Melting Point": "133-134 \u00b0C"}}