{"cas_no": "16962-47-3", "cn_name": "\u516d\u6c1f\u9517\u9178\u94f5", "en_name": ["Germanate(2-), hexafluoro-, ammonium (1:2)", "Germanate(2-), hexafluoro-, ammonium (1:2)", "Germanate(2-), hexafluoro-, diammonium", "Ammonium hexafluorogermanate(IV)", "Ammonium fluogermanate(IV)", "Diammonium hexafluorogermanate", "Diammonium hexafluorogermanate(2-)", "Diammonium germanium hexafluoride ((NH4)2GeF6)"], "SMILES": "[Ge+4]([F-])([F-])([F-])([F-])([F-])[F-].[NH4+]", "physical_data": {"Molecular Weight": "", "Molecular Formula": "F6Ge.2H4N", "Boiling Point": "380 \u00b0C", "Density": "2.56 g/cm\u00b3"}}