{"cas_no": "16962-07-5", "cn_name": "\u787c\u6c22\u5316\u94dd", "en_name": ["Borate(1-), tetrahydro-, aluminum (3:1)", "Borate(1-), tetrahydro-, aluminum (3:1)", "Borate(1-), tetrahydro-, aluminum", "Aluminum borohydride", "Aluminum tetrahydroborate", "Aluminum hydroborate (Al[BH4]3)"], "SMILES": "[B+3]([H-])([H-])([H-])[H-].[Al+3]", "physical_data": {"Molecular Weight": "", "Molecular Formula": "Al.3BH4", "Boiling Point": "44.5 \u00b0C", "Melting Point": "64.5 \u00b0C"}}