{"cas_no": "16968-19-7", "cn_name": "2,2'-\u4e8c\u785d\u57fa\u8054\u82c4", "en_name": ["2,2\u2032-Dinitrodibenzyl", "Benzene, 1,1\u2032-(1,2-ethanediyl)bis[2-nitro-", "Bibenzyl, 2,2\u2032-dinitro-", "1,1\u2032-(1,2-Ethanediyl)bis[2-nitrobenzene]", "1,2-Bis(o-nitrophenyl)ethane", "o,o\u2032-Dinitrodibenzyl", "2,2\u2032-Dinitrodibenzyl", "2,2\u2032-Dinitrobibenzyl", "1,2-Di(o-nitrophenyl)ethane", "Bis(o-nitrobenzyl)", "NSC 85868", "1-Nitro-2-[2-(2-nitrophenyl)ethyl]benzene", "1,2-Bis(2-nitrophenyl)ethane"], "SMILES": "C(CC1=C(N(=O)=O)C=CC=C1)C2=C(N(=O)=O)C=CC=C2", "physical_data": {"Molecular Weight": "272.26", "Molecular Formula": "C14H12N2O4", "Melting Point": "120-121 \u00b0C"}}