{"cas_no": "16960-49-9", "cn_name": "(4'-\u4e19\u9170\u57fa)\u4e59\u9170\u82ef\u80fa", "en_name": ["4\u2032-Acetamidopropiophenone", "Acetamide, N-[4-(1-oxopropyl)phenyl]-", "Acetanilide, 4\u2032-propionyl-", "N-[4-(1-Oxopropyl)phenyl]acetamide", "(4\u2032-Propionyl)acetanilide", "p-Acetamidopropiophenone", "4\u2032-Acetamidopropiophenone", "NSC 169084"], "SMILES": "N(C(C)=O)C1=CC=C(C(CC)=O)C=C1", "physical_data": {"Molecular Weight": "191.23", "Molecular Formula": "C11H13NO2", "Melting Point": "172-173 \u00b0C"}}