{"cas_no": "16961-83-4", "cn_name": "\u6c1f\u7845\u9178", "en_name": ["Fluorosilicic acid", "Silicate(2-), hexafluoro-, hydrogen (1:2)", "Silicate(2-), hexafluoro-, dihydrogen", "Fluosilicic acid", "Dihydrogen hexafluorosilicate", "Hexafluorosilicic acid", "Hydrofluorosilicic acid", "Fluorosilicic acid", "Fluorosilicic acid (H2SiF6)", "Silicon hexafluoride dihydride", "Dihydrogen hexafluorosilicate(2-)", "Hydrogen hexafluorosilicate (H2SiF6)", "NSC 16894", "Hydrosilicofluoric acid", "Dihydrogen(2+) hexafluorosilicate(4-)"], "SMILES": "[Si+4]([F-])([F-])([F-])([F-])([F-])[F-].[H+]", "physical_data": {"Molecular Weight": "", "Molecular Formula": "F6Si.2H", "Boiling Point": "~120 \u00b0C (approx)"}}