{"cas_no": "169674-02-6", "cn_name": "4-\u6c2f-5-\u6c1f\u5432\u54da", "en_name": ["4-Chloro-5-fluoro-1H-indole", "1H-Indole, 4-chloro-5-fluoro-", "4-Chloro-5-fluoro-1H-indole", "4-Chloro-5-fluoroindole"], "SMILES": "ClC1=C2C(=CC=C1F)NC=C2", "physical_data": {"Molecular Weight": "169.58", "Molecular Formula": "C8H5ClFN", "Melting Point": "21-22 \u00b0C"}}