{"cas_no": "169789-37-1", "cn_name": "5-METHOXY-1H-INDAZOLE-3-CARBALDEHYDE", "en_name": ["5-Methoxy-1H-indazole-3-carboxaldehyde", "1H-Indazole-3-carboxaldehyde, 5-methoxy-", "5-Methoxy-1H-indazole-3-carboxaldehyde"], "SMILES": "C(=O)C=1C=2C(NN1)=CC=C(OC)C2", "physical_data": {"Molecular Weight": "176.17", "Molecular Formula": "C9H8N2O2", "Melting Point": "214-216 \u00b0C"}}