{"cas_no": "16974-11-1", "cn_name": "(9Z)-9-\u5341\u4e8c\u78b3\u70ef-1-\u9187\u4e59\u9178\u916f", "en_name": ["(Z)-9-Dodecenyl acetate", "9-Dodecen-1-ol, 1-acetate, (9Z)-", "9-Dodecen-1-ol, acetate, (Z)-", "9-Dodecen-1-ol, acetate, (9Z)-", "cis-9-Dodecenyl acetate", "cis-9-Dodecen-1-yl acetate", "Grapemone", "(Z)-9-Dodecen-1-ol acetate", "(Z)-1-Acetoxy-9-dodecene", "cis-9-Dodecen-1-ol acetate", "(Z)-9-Dodecen-1-yl acetate", "(Z)-9-Dodecenyl acetate", "(9Z)-Dodec-9-en-1-ol acetate", "Eupoewit", "(Z)-Dodec-9-en-1-yl acetate", "(Z)-9-Dodecenyl acetate"], "SMILES": "C(CCCCC=CCC)CCCOC(C)=O", "physical_data": {"Molecular Weight": "226.35", "Molecular Formula": "C14H26O2", "Boiling Point": "101-102 \u00b0C @ Press: 0.01 Torr"}}