{"cas_no": "16971-33-8", "cn_name": "\u4e09(\u4e09\u82ef\u57fa\u81a6)\u7fb0\u57fa\u6c22\u6c2f\u5316\u948c(II)", "en_name": ["Carbonylchlorohydrotris(triphenylphosphine)ruthenium", "Ruthenium, carbonylchlorohydrotris(triphenylphosphine)-", "Carbonylchlorohydrotris(triphenylphosphine)ruthenium", "Carbonylchlorohydridotris(triphenylphosphine)ruthenium(II)", "Chlorohydridocarbonyltris(triphenylphosphine) ruthenium"], "SMILES": "[Ru+2]([P](C1=CC=CC=C1)(C2=CC=CC=C2)C3=CC=CC=C3)([P](C4=CC=CC=C4)(C5=CC=CC=C5)C6=CC=CC=C6)([P](C7=CC=CC=C7)(C8=CC=CC=C8)C9=CC=CC=C9)(C#O)([Cl-])[H-]", "physical_data": {"Molecular Weight": "", "Molecular Formula": "C55H46ClOP3Ru", "Melting Point": "142 \u00b0C"}}