{"cas_no": "1698-54-0", "cn_name": "6-\u7f9f\u57fa-2-\u82ef\u57fa-3-\u54d2\u916e", "en_name": ["6-Hydroxy-2-phenyl-3(2H)-pyridazinone", "3,6-Pyridazinedione, 1,2-dihydro-1-phenyl-", "1,2-Dihydro-1-phenyl-3,6-pyridazinedione", "6-Hydroxy-2-phenyl-3(2H)-pyridazinone", "Phenyl maleic hydrazide", "Maleic acid phenylhydrazide", "2-Phenyl-6-hydroxy-3(2H)-pyridazinone", "NSC 163341", "NSC 17181", "1-Phenyl-1,2-dihydropyridazine-3,6-dione", "2-Phenyl-1H-pyridazine-3,6-dione", "2-Phenyl-3-oxo-6-hydroxy-2H-pyridazine"], "SMILES": "O=C1N(NC(=O)C=C1)C2=CC=CC=C2", "physical_data": {"Molecular Weight": "188.18", "Molecular Formula": "C10H8N2O2", "Melting Point": "272-274 \u00b0C"}}