{"cas_no": "16986-24-6", "cn_name": "\u95f4\u78b3\u787c\u70f7", "en_name": ["Neocarborane", "1,7-Dicarbadodecaborane(12)", "m-Barene", "Neocarborane", "m-Dicarbadodecaborane(12)", "Neobarene", "m-Carborane", "m-Decaborocarborane", "m-Carborane(12)", "1,7-Dicarba-closo-dodecaborane", "1,7-Dicarbadodecaborane", "1,7-Dicarba-closo-dodecaborane(12)"], "SMILES": "[BH]1234[BH]567[BH]189[BH]2%10%11[BH]3%12%13[BH]45%14[BH]6%15%16[BH]78%17[CH]%109%18[BH]%12%11%19[CH]%13%14%15[BH]%16%17%19%18", "physical_data": {"Molecular Weight": "", "Molecular Formula": "C2H12B10", "Melting Point": "263.5-265 \u00b0C"}}