{"cas_no": "16982-21-1", "cn_name": "\u786b\u4ee3\u8349\u6c28\u9178\u4e59\u916f", "en_name": ["Ethyl thiooxamate", "Acetic acid, 2-amino-2-thioxo-, ethyl ester", "Oxamic acid, 2-thio-, ethyl ester", "Acetic acid, aminothioxo-, ethyl ester", "Ethyl thiooxamidate", "Ethyl 2-thiooxamate", "Ethyl amino(thiocarbonyl)carboxylate", "Ethyl thiooxamate", "Ethyl 2-amino-2-thioxoacetate", "Ethyl aminothioxoacetate", "NSC 174676", "Ethyl thioxamate", "Ethyl thiocarbamoylformate", "Thiooxamic acid ethyl ester", "2-Thiooxamic acid ethyl ester", "(Amino)(thioxo)acetic acid ethyl ester", "2-Amino-2-thioxoacetic acid ethyl ester", "Ethyl 2-amino-thioxoacetate", "Propanethioamide, 3-bromo-2-oxo-"], "SMILES": "C(OCC)(C(N)=S)=O", "physical_data": {"Molecular Weight": "133.17", "Molecular Formula": "C4H7NO2S", "Melting Point": "58-60 \u00b0C"}}