{"cas_no": "1698-53-9", "cn_name": "1-\u82ef\u57fa-4\uff0c5-\u4e8c\u6c2f-6-\u54d2\u916e", "en_name": ["4,5-Dichloro-2-phenyl-3(2H)-pyridazinone", "3(2H)-Pyridazinone, 4,5-dichloro-2-phenyl-", "4,5-Dichloro-2-phenyl-3(2H)-pyridazinone", "1-Phenyl-4,5-dichloro-6-pyridazinone", "1-Phenyl-4,5-dichloro-6-pyridazone", "4,5-Dichloro-1-phenyl-6-pyridazone", "4,5-Dichloro-1-phenylpyridazin-6(1H)-one", "2-Phenyl-4,5-dichloro-3-pyridazinone", "4,5-Dichloro-2-phenylpyridazin-3-one", "4,5-Dichloro-1-phenylpyridazin-6-one", "2-Phenyl-4,5-dichloro-3(2H)-pyridazinone", "NSC 224369", "NSC 642642"], "SMILES": "O=C1N(N=CC(Cl)=C1Cl)C2=CC=CC=C2", "physical_data": {"Molecular Weight": "241.07", "Molecular Formula": "C10H6Cl2N2O", "Melting Point": "164 \u00b0C"}}