{"cas_no": "16984-48-8", "cn_name": "\u6c1f\u6a19\u6e96\u6db2", "en_name": ["Fluoride", "Fluoride", "Fluorine, ion", "Perfluoride", "Fluoride ion", "Hydrofluoric acid, ion(1-)", "Fluorine ion(1-)", "Fluoride(1-)", "Fluoride ion (F-)", "Fluorine ion(F1-)", "Fluoride ion(1-)"], "SMILES": "[F-]", "physical_data": {"Molecular Weight": "", "Molecular Formula": "F", "Melting Point": "103-104 \u00b0C"}}