{"cas_no": "1698-60-8", "cn_name": "\u81a6\u57fa\u805a\u7fa7\u9178", "en_name": ["Chloridazon", "3(2H)-Pyridazinone, 5-amino-4-chloro-2-phenyl-", "5-Amino-4-chloro-2-phenyl-3(2H)-pyridazinone", "HS 119-1", "5-Amino-4-chloro-2,3-dihydro-3-oxo-2-phenylpyridazine", "PCA", "Phenazon", "1-Phenyl-4-amino-5-chloropyridazin-6-one", "1-Phenyl-4-amino-5-chloro-6-pyridazone", "1-Phenyl-4-amino-5-chloropyridazone-6", "1-Phenyl-4-amino-5-chlorpyridaz-6-one", "Pyramine", "Pyrazon", "Phenazone", "Phenazone (herbicide)", "Pyramin", "Pyramin (herbicide)", "4-Amino-5-chloro-1-phenylpyridazone", "5-Amino-4-chloro-2-phenyl-3(2H)-pyridazone", "1-Phenyl-4-amino-5-chloro-6(1H)-pyridazinone", "4-Amino-5-chloro-1-phenyl-6-pyridazone", "5-Amino-4-chloro-2-phenyl-3-pyridazinone", "4-Amino-5-chloro-1-phenyl-6-pyridazinone", "5-Amino-4-chloro-2-phenyl-2H-pyridazin-3-one", "BAS 11916H", "PAC", "Chloridazon", "PAC (pesticide)", "Chloridazone", "Burex", "BAS 13033", "PCA (pesticide)", "Suzon", "Pyramin FL", "Phenosane", "Betoxon", "Pyramin turbo"], "SMILES": "O=C1N(N=CC(N)=C1Cl)C2=CC=CC=C2", "physical_data": {"Molecular Weight": "221.64", "Molecular Formula": "C10H8ClN3O", "Melting Point": "206 \u00b0C", "Density": "1.54 g/cm\u00b3 @ Temp: 20 \u00b0C"}}