{"cas_no": "1699-56-5", "cn_name": "3,4-(\u4e8c\u82c4\u6c27\u57fa)\u82ef\u4e59\u80fa\u76d0\u9178\u76d0", "en_name": ["Benzeneethanamine, 3,4-bis(phenylmethoxy)-, hydrochloride (1:1)", "Benzeneethanamine, 3,4-bis(phenylmethoxy)-, hydrochloride (1:1)", "Benzeneethanamine, 3,4-bis(phenylmethoxy)-, hydrochloride", "Phenethylamine, 3,4-bis(benzyloxy)-, hydrochloride", "O,O\u2032-Dibenzyldopamine hydrochloride", "Dibenzyldopamine hydrochloride", "2-(3,4-Dibenzyloxy)phenethylamine hydrochloride", "3,4-Dibenzyloxyphenethylamine hydrochloride", "2-[3,4-Bis(benzyloxy)phenyl]ethylamine hydrochloride"], "SMILES": "O(CC1=CC=CC=C1)C2=C(OCC3=CC=CC=C3)C=CC(CCN)=C2.Cl", "physical_data": {"Molecular Weight": "", "Molecular Formula": "C22H23NO2.ClH", "Melting Point": "133 \u00b0C"}}