{"cas_no": "16995-35-0", "cn_name": "\u56db\u6c2f\u4e19\u916e", "en_name": ["1,1,1,3-Tetrachloroacetone", "2-Propanone, 1,1,1,3-tetrachloro-", "1,1,1,3-Tetrachloro-2-propanone", "1,1,1,3-Tetrachloroacetone"], "SMILES": "C(C(Cl)(Cl)Cl)(CCl)=O", "physical_data": {"Molecular Weight": "195.86", "Molecular Formula": "C3H2Cl4O", "Boiling Point": "183 \u00b0C", "Melting Point": "65 \u00b0C"}}