{"cas_no": "1699-03-2", "cn_name": "2-\u82ef\u57fa\u5def\u7532\u57fa\u82ef\u7532\u9178", "en_name": ["2-[(Phenylthio)methyl]benzoic acid", "Benzoic acid, 2-[(phenylthio)methyl]-", "o-Toluic acid, \u03b1-(phenylthio)-", "2-[(Phenylthio)methyl]benzoic acid", "2-(Phenylthiomethyl)benzoic acid", "\u03b1-(Phenylthio)-o-toluic acid", "2-[(Phenylsulfanyl)methyl]benzoic acid"], "SMILES": "C(SC1=CC=CC=C1)C2=C(C(O)=O)C=CC=C2", "physical_data": {"Molecular Weight": "244.31", "Molecular Formula": "C14H12O2S", "Melting Point": "111-113 \u00b0C"}}