{"cas_no": "1699-51-0", "cn_name": "\u52b3\u4e39\u7d20(\u534a\u65e5\u82b1\u7d20)", "en_name": ["(\u00b1)-Laudanosine", "Isoquinoline, 1-[(3,4-dimethoxyphenyl)methyl]-1,2,3,4-tetrahydro-6,7-dimethoxy-2-methyl-", "Isoquinoline, 1,2,3,4-tetrahydro-6,7-dimethoxy-2-methyl-1-veratryl-, (\u00b1)-", "Isoquinoline, 1-[(3,4-dimethoxyphenyl)methyl]-1,2,3,4-tetrahydro-6,7-dimethoxy-2-methyl-, (\u00b1)-", "1-[(3,4-Dimethoxyphenyl)methyl]-1,2,3,4-tetrahydro-6,7-dimethoxy-2-methylisoquinoline", "(\u00b1)-Laudanosine", "DL-Laudanosine", "N-Methyltetrahydropapaverine", "1,2,3,4-Tetrahydro-6,7-dimethoxy-2-methyl-1-veratrylisoquinoline", "Veraisoquin", "NSC 331268", "NSC 94267", "1-[(3,4-Dimethoxyphenyl)methyl]-6,7-dimethoxy-2-methyl-3,4-dihydro-1H-isoquinoline"], "SMILES": "C(C1C=2C(=CC(OC)=C(OC)C2)CCN1C)C3=CC(OC)=C(OC)C=C3", "physical_data": {"Molecular Weight": "357.44", "Molecular Formula": "C21H27NO4", "Melting Point": "114 \u00b0C"}}