{"cas_no": "169939-94-0", "cn_name": "\u9c81\u4f2f\u65af\u5854", "en_name": ["Ruboxistaurin", "9H,18H-5,21:12,17-Dimethenodibenzo[e,k]pyrrolo[3,4-h][1,4,13]oxadiazacyclohexadecine-18,20(19H)-dione, 9-[(dimethylamino)methyl]-6,7,10,11-tetrahydro-, (9S)-", "9H,18H-5,21:12,17-Dimethenodibenzo[e,k]pyrrolo[3,4-h][1,4,13]oxadiazacyclohexadecine-18,20(19H)-dione, 9-[(dimethylamino)methyl]-6,7,10,11-tetrahydro-, (S)-", "(9S)-9-[(Dimethylamino)methyl]-6,7,10,11-tetrahydro-9H,18H-5,21:12,17-dimethenodibenzo[e,k]pyrrolo[3,4-h][1,4,13]oxadiazacyclohexadecine-18,20(19H)-dione", "LY 333531", "Ruboxistaurin"], "SMILES": "O=C1C2=C(C=3C=4C(N(C3)CCOC(CN(C)C)CCN5C=C2C=6C5=CC=CC6)=CC=CC4)C(=O)N1", "physical_data": {"Molecular Weight": "468.55", "Molecular Formula": "C28H28N4O3", "Melting Point": "235-239 \u00b0C"}}