{"cas_no": "1700-31-8", "cn_name": "3-\u82c4\u6c27\u57fa\u6eb4\u82c4", "en_name": ["3-Benzyloxybenzyl bromide", "Benzene, 1-(bromomethyl)-3-(phenylmethoxy)-", "Ether, benzyl \u03b1-bromo-m-tolyl", "1-(Bromomethyl)-3-(phenylmethoxy)benzene", "3-Benzyloxybenzyl bromide", "1-Benzyloxy-3-bromomethylbenzene"], "SMILES": "O(CC1=CC=CC=C1)C2=CC(CBr)=CC=C2", "physical_data": {"Molecular Weight": "277.16", "Molecular Formula": "C14H13BrO", "Boiling Point": "40-60 \u00b0C", "Melting Point": "54-55 \u00b0C"}}