{"cas_no": "1700-37-4", "cn_name": "3-\u82c4\u6c27\u57fa\u82ef\u7532\u919b", "en_name": ["3-Benzyloxybenzaldehyde", "Benzaldehyde, 3-(phenylmethoxy)-", "Benzaldehyde, m-(benzyloxy)-", "3-(Phenylmethoxy)benzaldehyde", "m-Benzyloxybenzaldehyde", "3-Benzyloxybenzaldehyde", "NSC 17152"], "SMILES": "O(CC1=CC=CC=C1)C2=CC(C=O)=CC=C2", "physical_data": {"Molecular Weight": "212.24", "Molecular Formula": "C14H12O2", "Boiling Point": "215-218 \u00b0C", "Melting Point": "54 \u00b0C"}}