{"cas_no": "1700-30-7", "cn_name": "3-\u82ef\u7532\u6c27\u57fa\u82ef\u7532\u9187", "en_name": ["3-(Phenylmethoxy)benzenemethanol", "Benzenemethanol, 3-(phenylmethoxy)-", "Benzyl alcohol, m-(benzyloxy)-", "3-(Phenylmethoxy)benzenemethanol", "3-(Benzyloxy)benzyl alcohol", "3-Benzyloxybenzylic alcohol", "(3-Benzyloxyphenyl)methanol", "(3-Phenylmethoxyphenyl)methanol"], "SMILES": "O(CC1=CC=CC=C1)C2=CC(CO)=CC=C2", "physical_data": {"Molecular Weight": "214.26", "Molecular Formula": "C14H14O2", "Melting Point": "49 \u00b0C"}}