{"cas_no": "1700-02-3", "cn_name": "2,4-\u4e8c\u6c2f-6-\u82ef\u57fa-1,3,5-\u4e09\u55ea", "en_name": ["2,4-Dichloro-6-phenyl-1,3,5-triazine", "1,3,5-Triazine, 2,4-dichloro-6-phenyl-", "s-Triazine, 2,4-dichloro-6-phenyl-", "2,4-Dichloro-6-phenyl-1,3,5-triazine", "2,4-Dichloro-6-phenyl-1,3,5-s-triazine", "2-Phenyl-4,6-dichlorotriazine", "2,4-Dichloro-6-phenyl-s-triazine", "6-Phenyl-2,4-dichloro-s-triazine", "NSC 51871", "4,6-Dichloro-2-phenyltriazine", "6-Phenyl-2,4-dichloro-1,3,5-triazine", "2-Phenyl-4,6-dichloro-1,3,5-triazine"], "SMILES": "ClC1=NC(=NC(Cl)=N1)C2=CC=CC=C2", "physical_data": {"Molecular Weight": "226.06", "Molecular Formula": "C9H5Cl2N3", "Boiling Point": "136 \u00b0C @ Press: 1 Torr", "Melting Point": "119-200 \u00b0C"}}