{"cas_no": "17008-65-0", "cn_name": "\u4f2a\u5f02\u6c99\u87fe\u6bd2\u7cbe", "en_name": ["Bufarenogin", "Bufa-20,22-dienolide, 3,12,14-trihydroxy-11-oxo-, (3\u03b2,5\u03b2,12\u03b2)-", "5\u03b2-Bufa-20,22-dienolide, 3\u03b2,12\u03b2,14-trihydroxy-11-oxo-", "Bufarenogin", "Bufarenogen", "(3\u03b2,5\u03b2,12\u03b2)-3,12,14-Trihydroxy-11-oxobufa-20,22-dienolide"], "SMILES": "CC12C(O)(C3C(C(=O)C1O)C4(C)C(CC3)CC(O)CC4)CCC2C=5C=CC(=O)OC5", "physical_data": {"Molecular Weight": "416.51", "Molecular Formula": "C24H32O6", "Melting Point": "230-233 \u00b0C"}}