{"cas_no": "1701-19-5", "cn_name": "4-\u7f9f\u57fa-8-\u7532\u57fa-2-(\u4e09\u6c1f\u7532\u57fa)\u55b9\u5549", "en_name": ["8-Methyl-2-(trifluoromethyl)-4-quinolinol", "4-Quinolinol, 8-methyl-2-(trifluoromethyl)-", "8-Methyl-2-(trifluoromethyl)-4-quinolinol"], "SMILES": "CC=1C2=C(C(O)=CC(C(F)(F)F)=N2)C=CC1", "physical_data": {"Molecular Weight": "227.18", "Molecular Formula": "C11H8F3NO", "Melting Point": "130-132 \u00b0C"}}