{"cas_no": "1701-69-5", "cn_name": "4-\u4e19\u9170\u57fa\u5421\u5576", "en_name": ["4-Propionylpyridine", "1-Propanone, 1-(4-pyridinyl)-", "1-Propanone, 1-(4-pyridyl)-", "1-(4-Pyridinyl)-1-propanone", "4-Propionylpyridine", "4-Pyridyl ethyl ketone", "Ethyl 4-pyridyl ketone", "1-(4-Pyridyl)-1-propanone", "NSC 31619", "1-(Pyridin-4-yl)propan-1-one"], "SMILES": "C(CC)(=O)C=1C=CN=CC1", "physical_data": {"Molecular Weight": "135.16", "Molecular Formula": "C8H9NO", "Boiling Point": "104-106 \u00b0C @ Press: 10 Torr"}}