{"cas_no": "1701-20-8", "cn_name": "4-\u7f9f\u57fa-6-\u7532\u57fa-2-(\u4e09\u6c1f\u7532\u57fa)\u55b9\u5549", "en_name": ["6-Methyl-2-(trifluoromethyl)-4-quinolinol", "4-Quinolinol, 6-methyl-2-(trifluoromethyl)-", "6-Methyl-2-(trifluoromethyl)-4-quinolinol"], "SMILES": "OC=1C2=C(N=C(C(F)(F)F)C1)C=CC(C)=C2", "physical_data": {"Molecular Weight": "227.18", "Molecular Formula": "C11H8F3NO", "Melting Point": "251-252 \u00b0C"}}