{"cas_no": "17019-92-0", "cn_name": "11-\u916e\u57fa-BETA-\u4e73\u9999\u9178", "en_name": ["11-Keto-\u03b2-boswellic acid", "Urs-12-en-23-oic acid, 3-hydroxy-11-oxo-, (3\u03b1,4\u03b2)-", "Urs-12-en-24-oic acid, 3\u03b1-hydroxy-11-oxo-", "(3\u03b1,4\u03b2)-3-Hydroxy-11-oxours-12-en-23-oic acid", "11-Oxo-\u03b2-boswellic acid", "11-Keto-\u03b2-boswellic acid", "11-keto-\u03b2-Boswellic", "KBA (keto boswellic acid)", "11-keto-\u03b2-Boswellic acid"], "SMILES": "CC12C(C3(C)C(CC1)C(C(O)=O)(C)C(O)CC3)C(=O)C=C4C2(C)CCC5(C)C4C(C)C(C)CC5", "physical_data": {"Molecular Weight": "470.68", "Molecular Formula": "C30H46O4", "Melting Point": "194-195 \u00b0C (decomp)"}}