{"cas_no": "1701-93-5", "cn_name": "\u786b\u6c30\u9178\u94f6", "en_name": ["Silver thiocyanate", "Thiocyanic acid, silver(1+) salt (1:1)", "Thiocyanic acid, silver(1+) salt", "Silver thiocyanate", "Silver thiocyanate (AgCNS)", "Silver isothiocyanate", "Silver(1+) thiocyanate", "Silver(I) thiocyanate"], "SMILES": "C(#N)S.[Ag]", "physical_data": {"Molecular Weight": "", "Molecular Formula": "CHNS.Ag", "Melting Point": "63-64 \u00b0C"}}