{"cas_no": "17018-07-4", "cn_name": "\u4e19\u4e09\u9187-\u0391,\u0391'-\u4e8c\u70ef\u4e19\u57fa\u919a", "en_name": ["1,3-Bis(2-propen-1-yloxy)-2-propanol", "2-Propanol, 1,3-bis(2-propen-1-yloxy)-", "2-Propanol, 1,3-bis(allyloxy)-", "2-Propanol, 1,3-bis(2-propenyloxy)-", "1,3-Bis(2-propen-1-yloxy)-2-propanol", "Glycerol 1,3-diallyl diether", "4,8-Dioxa-6-hydroxy-1,10-undecadiene", "1,3-Bis(allyloxy)-2-propanol", "Glycerol 1,3-diallyl ether", "1,3-Diallyloxy-2-propanol", "Glyceryl 1,3-diallyl ether", "1,3-Di-O-allylglycerin", "1,3-Bis(prop-2-enoxy)propan-2-ol", "D 2146", "Glycerol \u03b1,\u03b1\u2032-diallyl ether"], "SMILES": "C(C(COCC=C)O)OCC=C", "physical_data": {"Molecular Weight": "172.22", "Molecular Formula": "C9H16O3", "Boiling Point": "68-69 \u00b0C @ Press: 0.9-1.0 Torr", "Density": "0.991 g/cm\u00b3 @ Temp: 20 \u00b0C"}}