{"cas_no": "1701-26-4", "cn_name": "4-\u6c2f-6-\u7532\u57fa-2-(\u4e09\u6c1f\u7532\u57fa)\u55b9\u5549", "en_name": ["4-Chloro-6-methyl-2-(trifluoromethyl)quinoline", "Quinoline, 4-chloro-6-methyl-2-(trifluoromethyl)-", "4-Chloro-6-methyl-2-(trifluoromethyl)quinoline", "NSC 128775"], "SMILES": "ClC=1C2=C(N=C(C(F)(F)F)C1)C=CC(C)=C2", "physical_data": {"Molecular Weight": "245.63", "Molecular Formula": "C11H7ClF3N", "Melting Point": "66-68 \u00b0C"}}