{"cas_no": "1702-17-6", "cn_name": "\u4e8c\u6c2f\u5421\u5576\u9178", "en_name": ["Clopyralid", "2-Pyridinecarboxylic acid, 3,6-dichloro-", "Picolinic acid, 3,6-dichloro-", "3,6-Dichloro-2-pyridinecarboxylic acid", "3,6-Dichloropicolinic acid", "Dowco 290", "Matrigon", "Lontrel", "3,6-Dichloro-2-picolinic acid", "XRM 3972", "Lontrel 3", "Clopyralid", "IWD 3523", "Lontrel 300", "Versatill", "Stinger", "Cirtoxin", "Lontrel L", "Lontrel 100", "Transline", "Dichloro pyridine acid", "Diclopyr", "Faworyt", "Faworyt 300SL", "Lornet"], "SMILES": "C(O)(=O)C1=C(Cl)C=CC(Cl)=N1", "physical_data": {"Molecular Weight": "192.00", "Molecular Formula": "C6H3Cl2NO2", "Melting Point": "151-152 \u00b0C"}}