{"cas_no": "17025-47-7", "cn_name": "\u4e09\u6eb4\u7532\u57fa\u82ef\u781c", "en_name": ["Tribromomethyl phenyl sulfone", "Benzene, [(tribromomethyl)sulfonyl]-", "Sulfone, phenyl tribromomethyl", "[(Tribromomethyl)sulfonyl]benzene", "Tribromomethyl phenyl sulfone", "Phenyl tribromomethyl sulfone", "\u03b1,\u03b1,\u03b1-Tribromomethyl phenyl sulfone", "BMPS", "BMPS (sulfone)", "TPS"], "SMILES": "S(C(Br)(Br)Br)(=O)(=O)C1=CC=CC=C1", "physical_data": {"Molecular Weight": "392.89", "Molecular Formula": "C7H5Br3O2S", "Melting Point": "147 \u00b0C"}}