{"cas_no": "1702-42-7", "cn_name": "\u4e09\u4e01\u57fa\u7532\u57fa\u7898\u5316\u81a6", "en_name": ["Tributylmethylphosphonium iodide", "Phosphonium, tributylmethyl-, iodide (1:1)", "Phosphonium, tributylmethyl-, iodide", "Tributylmethylphosphonium iodide", "Methyltributylphosphonium iodide", "NSC 41941", "Hishicolin PX 4MI", "Methyltri-n-butylphosphonium iodide"], "SMILES": "[P+](CCCC)(CCCC)(CCCC)C.[I-]", "physical_data": {"Molecular Weight": "", "Molecular Formula": "C13H30P.I", "Melting Point": "133.5 \u00b0C"}}