{"cas_no": "17026-42-5", "cn_name": "D-(+)-\u4e8c\u82ef\u7532\u9170\u9152\u77f3\u9178(\u65e0\u6c34\u7269)", "en_name": ["(+)-Dibenzoyltartaric acid", "Butanedioic acid, 2,3-bis(benzoyloxy)-, (2S,3S)-", "Tartaric acid, dibenzoate, (+)-", "Butanedioic acid, 2,3-bis(benzoyloxy)-, [S-(R*,R*)]-", "(2S,3S)-2,3-Bis(benzoyloxy)butanedioic acid", "(+)-O,O-Dibenzoyltartaric acid", "(2S,3S)-(+)-Dibenzoyltartaric acid", "O,O\u2032-Dibenzoyl-(-)-tartaric acid", "(+)-Dibenzoyltartaric acid", "Dibenzoyl-(-)-tartaric acid", "D-(+)-Dibenzoyltartaric acid", "Dibenzoyl-D-tartaric acid", "D-Dibenzoyltartaric acid", "(+)-2,3-Dibenzoyl-D-tartaric acid", "(+)-D-Dibenzoyltartaric acid", "(S,S)-O,O\u2032-Dibenzoyltartaric acid", "(+)-Dibenzoyl-D-tartaric acid", "(2S,3S)-(+)-Di-O-benzoyltartaric acid", "NSC 97424", "(+)-Di-O-benzoyl-D-tartaric acid", "O,O\u2032-Dibenzoyl-D-tartaric acid", "2,3-Dibenzoyl-D-tartaric acid", "(2S,3S)-2,3-Bis(benzoyloxy)succinic acid", "(-)-O,O\u2032-Dibenzoyl-(2S,3S)-tartaric acid", "D-(+)-Di-O,O-benzoyltartaric acid", "O,O\u2032-Dibenzoyl-(2S,3S)-tartaric acid", "(+)-(2S,3S)-Dibenzoyltartaric acid", "(+)-O,O\u2032-Dibenzoyl-D-tartaric acid", "O-Dibenzoyl-D-tartaric acid"], "SMILES": "C(C(OC(=O)C1=CC=CC=C1)C(O)=O)(OC(=O)C2=CC=CC=C2)C(O)=O", "physical_data": {"Molecular Weight": "358.30", "Molecular Formula": "C18H14O8", "Melting Point": "170 \u00b0C (decomp)"}}