{"cas_no": "170230-88-3", "cn_name": "5-\u7fa7\u9178-2-\u7532\u57fa\u82ef\u787c\u9178", "en_name": ["3-Borono-4-methylbenzoic acid", "Benzoic acid, 3-borono-4-methyl-", "3-Borono-4-methylbenzoic acid"], "SMILES": "B(O)(O)C1=CC(C(O)=O)=CC=C1C", "physical_data": {"Molecular Weight": "179.97", "Molecular Formula": "C8H9BO4", "Melting Point": "157-167 \u00b0C"}}