{"cas_no": "17020-04-1", "cn_name": "BAUERENOL ACETATE", "en_name": ["Bauerenyl acetate", "26-Norurs-7-en-3-ol, 13-methyl-, 3-acetate, (3\u03b2,13\u03b1,14\u03b2)-", "D:C-Friedours-7-en-3\u03b2-ol, acetate", "Bauerenol acetate", "D:C-Friedours-7-en-3-ol, acetate, (3\u03b2)-", "26-Norurs-7-en-3-ol, 13-methyl-, acetate, (3\u03b2,13\u03b1,14\u03b2)-", "Bauerenyl acetate", "Ilexol, acetate"], "SMILES": "CC12C(C)(C3C(C)(CC1)CCC(C)C3C)CCC4C2=CCC5C4(C)CCC(OC(C)=O)C5(C)C", "physical_data": {"Molecular Weight": "468.75", "Molecular Formula": "C32H52O2", "Melting Point": "282-283 \u00b0C"}}