{"cas_no": "17027-51-9", "cn_name": "2-(4-\u8054\u82ef)\u4e59\u80fa", "en_name": ["[1,1\u2032-Biphenyl]-4-ethanamine", "[1,1\u2032-Biphenyl]-4-ethanamine", "4-Biphenylethylamine", "4-(2-Aminoethyl)biphenyl", "4-Phenylphenethylamine", "2-(Biphenyl-4-yl)ethylamine", "2-(Biphenyl-4-yl)ethanamine", "2-([1,1\u2032-Biphenyl]-4-yl)ethanamine", "2-(4-Biphenyl)ethylamine", "2-(4-Phenylphenyl)ethan-1-amine", "2-(4-Phenylphenyl)ethanamine", "2-(4-Phenylphenyl)ethylamine"], "SMILES": "C(CN)C1=CC=C(C=C1)C2=CC=CC=C2", "physical_data": {"Molecular Weight": "197.28", "Molecular Formula": "C14H15N", "Boiling Point": "160-161 \u00b0C @ Press: 4 Torr", "Melting Point": "&gt;300 \u00b0C"}}