{"cas_no": "170355-38-1", "cn_name": "5-\u6eb4-3-\u567b\u5429\u7fa7\u9178\u4e59\u916f", "en_name": ["3-Thiophenecarboxylic acid, 5-bromo-, ethyl ester", "3-Thiophenecarboxylic acid, 5-bromo-, ethyl ester", "Ethyl 2-bromo-4-thiophenecarboxylate", "Ethyl 5-bromothiophene-3-carboxylate", "5-Bromothiophene-3-carboxylic acid ethyl ester"], "SMILES": "C(OCC)(=O)C1=CSC(Br)=C1", "physical_data": {"Molecular Weight": "235.10", "Molecular Formula": "C7H7BrO2S", "Boiling Point": "65-66 \u00b0C"}}