{"cas_no": "1703-61-3", "cn_name": "4-\u73af\u620a\u916e-1,2-\u4e8c\u7532\u9178", "en_name": ["4-Oxo-1,2-cyclopentanedicarboxylic acid", "1,2-Cyclopentanedicarboxylic acid, 4-oxo-", "4-Oxo-1,2-cyclopentanedicarboxylic acid", "Cyclopentanone-3,4-dicarboxylic acid"], "SMILES": "C(O)(=O)C1C(C(O)=O)CC(=O)C1", "physical_data": {"Molecular Weight": "172.14", "Molecular Formula": "C7H8O5", "Melting Point": "189 \u00b0C"}}