{"cas_no": "170364-57-5", "cn_name": "\u6069\u624e\u59a5\u6797", "en_name": ["Enzastaurin", "1H-Pyrrole-2,5-dione, 3-(1-methyl-1H-indol-3-yl)-4-[1-[1-(2-pyridinylmethyl)-4-piperidinyl]-1H-indol-3-yl]-", "3-(1-Methyl-1H-indol-3-yl)-4-[1-[1-(2-pyridinylmethyl)-4-piperidinyl]-1H-indol-3-yl]-1H-pyrrole-2,5-dione", "Enzastaurin", "3-(1-Methyl-1H-indol-3-yl)-4-[1-[1-[(pyridin-2-yl)methyl]piperidin-4-yl]-1H-indol-3-yl]pyrrole-2,5-dione", "3-(1-Methylindol-3-yl)-4-[1-[1-(pyridin-2-ylmethyl)piperidin-4-yl]indol-3-yl]pyrrole-2,5-dione", "DB 102"], "SMILES": "O=C1C(C=2C=3C(N(C2)C4CCN(CC5=CC=CC=N5)CC4)=CC=CC3)=C(C(=O)N1)C=6C=7C(N(C)C6)=CC=CC7", "physical_data": {"Molecular Weight": "515.60", "Molecular Formula": "C32H29N5O2", "Melting Point": "154-156 \u00b0C"}}