{"cas_no": "1703-58-8", "cn_name": "\u4e01\u70f7\u56db\u7fa7\u9178", "en_name": ["1,2,3,4-Butanetetracarboxylic acid", "1,2,3,4-Butanetetracarboxylic acid", "Butanetetracarboxylic acid", "1,2,3,4-Tetracarboxybutane", "TCB", "BTCA", "Rikacid BTW", "NSC 21371", "3,4-Dicarboxyhexanedioic acid", "Crosslink RB 120"], "SMILES": "C(C(CC(O)=O)C(O)=O)(CC(O)=O)C(O)=O", "physical_data": {"Molecular Weight": "234.16", "Molecular Formula": "C8H10O8", "Melting Point": "232 \u00b0C"}}