{"cas_no": "1704-62-7", "cn_name": "2-[2-(\u4e8c\u7532\u57fa\u6c28\u57fa)\u4e59\u6c27\u57fa]\u4e59\u9187", "en_name": ["2-[2-(Dimethylamino)ethoxy]ethanol", "Ethanol, 2-[2-(dimethylamino)ethoxy]-", "2-[2-(Dimethylamino)ethoxy]ethanol", "N,N-Dimethyldiglycolamine", "(N,N-Dimethylaminoethoxy)ethanol", "2-(2-N,N-Dimethylaminoethoxy)ethanol", "Texacat ZR 70", "5-(Dimethylamino)-3-oxapentan-1-ol", "PC CAT NP 70", "Kaolizer 26", "PC CAT NP 170", "Jeffcat ZR 70", "ZR 70", "NSC 3146", "N,N-Dimethyl[2-(2-hydroxyethoxy)ethyl]amine", "Lupragen N 107", "Toyocat RX 3", "2-(N,N-Dimethylaminoethoxy)ethanol", "Tegoamin DMEE", "DMAE-EO", "Niax DMEE", "N,N-Dimethyl-2-(2-aminoethoxy)ethanol", "Polycat 37", "2-[2-(Dimethylamino)ethoxy]ethan-1-ol", "PC 37"], "SMILES": "C(CN(C)C)OCCO", "physical_data": {"Molecular Weight": "133.19", "Molecular Formula": "C6H15NO2", "Boiling Point": "89-90 \u00b0C @ Press: 12 Torr"}}