{"cas_no": "17043-05-9", "cn_name": "\u6eb4\u4ee3\u82ef\u57fa\u4e09\u7532\u6c27\u7845\u70f7", "en_name": ["1-Bromo-4-(trimethoxysilyl)benzene", "Benzene, 1-bromo-4-(trimethoxysilyl)-", "Silane, (p-bromophenyl)trimethoxy-", "Silane, (4-bromophenyl)trimethoxy-", "1-Bromo-4-(trimethoxysilyl)benzene", "1-Bromo-4-trimethoxysilylbenzene", "4-Bromo-1-(trimethoxysilyl)benzene", "(4-Bromophenyl)trimethoxysilane"], "SMILES": "[Si](OC)(OC)(OC)C1=CC=C(Br)C=C1", "physical_data": {"Molecular Weight": "277.19", "Molecular Formula": "C9H13BrO3Si", "Boiling Point": "84 \u00b0C @ Press: 0.9 Torr"}}