{"cas_no": "17044-70-1", "cn_name": "3,5-\u4e8c\u6c2f-4-\u7f9f\u57fa\u82ef\u4e59\u916e", "en_name": ["4-Acetyl-2,6-dichlorophenol", "Ethanone, 1-(3,5-dichloro-4-hydroxyphenyl)-", "Acetophenone, 3\u2032,5\u2032-dichloro-4\u2032-hydroxy-", "1-(3,5-Dichloro-4-hydroxyphenyl)ethanone", "3\u2032,5\u2032-Dichloro-4\u2032-hydroxyacetophenone", "4-Acetyl-2,6-dichlorophenol", "1-(3,5-Dichloro-4-hydroxyphenyl)ethan-1-one"], "SMILES": "C(C)(=O)C1=CC(Cl)=C(O)C(Cl)=C1", "physical_data": {"Molecular Weight": "205.04", "Molecular Formula": "C8H6Cl2O2", "Melting Point": "164-165.5 \u00b0C"}}