{"cas_no": "170449-18-0", "cn_name": "N-(3-\u6c2f\u82ef\u57fa)-6,7-\u4e8c\u7532\u6c27\u57fa-4-\u55b9\u5511\u5549\u80fa\u76d0\u9178\u76d0", "en_name": ["6,7-Dimethoxy-4-[N-(3-chlorophenyl)amino]quinazoline hydrochloride", "4-Quinazolinamine, N-(3-chlorophenyl)-6,7-dimethoxy-, hydrochloride (1:1)", "4-Quinazolinamine, N-(3-chlorophenyl)-6,7-dimethoxy-, monohydrochloride", "6,7-Dimethoxy-4-[N-(3-chlorophenyl)amino]quinazoline hydrochloride"], "SMILES": "N(C=1C2=C(C=C(OC)C(OC)=C2)N=CN1)C3=CC(Cl)=CC=C3.Cl", "physical_data": {"Molecular Weight": "", "Molecular Formula": "C16H14ClN3O2.ClH", "Melting Point": "230-235 \u00b0C"}}