{"cas_no": "17042-40-9", "cn_name": "4-\u7532\u6c27\u82ef\u57fa-2,3,4,6-\u56db-O-\u4e59\u9170\u57fa-\u0391-D-\u5421\u5583\u7518\u9732\u7cd6\u82f7", "en_name": ["\u03b1-D-Mannopyranoside, 4-methoxyphenyl, 2,3,4,6-tetraacetate", "\u03b1-D-Mannopyranoside, 4-methoxyphenyl, 2,3,4,6-tetraacetate", "Mannopyranoside, p-methoxyphenyl, tetraacetate, \u03b1-D-", "\u03b1-D-Mannopyranoside, 4-methoxyphenyl, tetraacetate"], "SMILES": "O(C(C)=O)C1C(OC(C)=O)C(OC2=CC=C(OC)C=C2)OC(COC(C)=O)C1OC(C)=O", "physical_data": {"Molecular Weight": "454.42", "Molecular Formula": "C21H26O11", "Melting Point": "101-103 \u00b0C"}}