{"cas_no": "17057-91-9", "cn_name": "2,4,5-\u4e09\u7532\u57fa\u8418", "en_name": ["1,3,8-Trimethylnaphthalene", "Naphthalene, 1,3,8-trimethyl-", "1,3,8-Trimethylnaphthalene", "2,4,5-Trimethylnaphthalene"], "SMILES": "CC=1C2=C(C=C(C)C1)C=CC=C2C", "physical_data": {"Molecular Weight": "170.25", "Molecular Formula": "C13H14", "Boiling Point": "140-144 \u00b0C @ Press: 18 Torr", "Melting Point": "48 \u00b0C"}}