{"cas_no": "17057-07-7", "cn_name": "m-N-\u9a6c\u6765\u9170\u4e9a\u6c28\u57fa\u82ef\u7532\u9178", "en_name": ["3-(2,5-Dihydro-2,5-dioxo-1H-pyrrol-1-yl)benzoic acid", "Benzoic acid, 3-(2,5-dihydro-2,5-dioxo-1H-pyrrol-1-yl)-", "Benzoic acid, m-maleimido-", "3-(2,5-Dihydro-2,5-dioxo-1H-pyrrol-1-yl)benzoic acid", "3-Maleimidobenzoic acid", "m-Maleimidobenzoic acid", "(3-Carboxyphenyl)maleimide", "N-(3-Carboxyphenyl)maleimide", "NSC 201626"], "SMILES": "O=C1N(C(=O)C=C1)C2=CC(C(O)=O)=CC=C2", "physical_data": {"Molecular Weight": "217.18", "Molecular Formula": "C11H7NO4", "Melting Point": "228-229 \u00b0C"}}