{"cas_no": "1705-85-7", "cn_name": "6-\u7532\u57fa\u5c48", "en_name": ["6-Methylchrysene", "Chrysene, 6-methyl-", "6-Methylchrysene"], "SMILES": "CC1=CC2=C(C=3C1=CC=CC3)C=CC=4C2=CC=CC4", "physical_data": {"Molecular Weight": "242.31", "Molecular Formula": "C19H14", "Melting Point": "161-161.4 \u00b0C"}}