{"cas_no": "17057-04-4", "cn_name": "4-\u9a6c\u6765\u9170\u4e9a\u80fa\u57fa\u82ef\u7532\u9178", "en_name": ["N-(4-Carboxyphenyl)maleimide", "Benzoic acid, 4-(2,5-dihydro-2,5-dioxo-1H-pyrrol-1-yl)-", "Benzoic acid, p-maleimido-", "4-(2,5-Dihydro-2,5-dioxo-1H-pyrrol-1-yl)benzoic acid", "4-Maleimidobenzoic acid", "N-(4-Carboxyphenyl)maleimide", "p-Maleimidobenzoic acid", "p-(N-Maleimido)benzoic acid", "N-(p-Carboxyphenyl)maleimide", "NSC 14889", "NSC 521355", "p-Carboxyphenylmaleimide", "4-(2,5-Dioxo-2,5-dihydropyrrol-1-yl)benzoic acid"], "SMILES": "O=C1N(C2=CC=C(C(O)=O)C=C2)C(=O)C=C1", "physical_data": {"Molecular Weight": "217.18", "Molecular Formula": "C11H7NO4", "Melting Point": "225-228 \u00b0C"}}