{"cas_no": "1706-11-2", "cn_name": "2,5-\u4e8c\u7532\u57fa\u82ef\u7532\u919a", "en_name": ["2-Methoxy-1,4-dimethylbenzene", "Benzene, 2-methoxy-1,4-dimethyl-", "Anisole, 2,5-dimethyl-", "2-Methoxy-1,4-dimethylbenzene", "2,5-Dimethylanisole", "2-Methoxy-p-xylene", "2,5-Dimethylphenol methyl ether", "3,6-Dimethylanisole", "Methoxy-p-xylene"], "SMILES": "O(C)C1=C(C)C=CC(C)=C1", "physical_data": {"Molecular Weight": "136.19", "Molecular Formula": "C9H12O", "Boiling Point": "194 \u00b0C", "Melting Point": "90-92 \u00b0C"}}