{"cas_no": "17061-62-0", "cn_name": "\u53cc-(4-\u7532\u6c27\u57fa\u82c4\u57fa)-\u80fa", "en_name": ["Bis(4-methoxybenzyl)amine", "Benzenemethanamine, 4-methoxy-N-[(4-methoxyphenyl)methyl]-", "Dibenzylamine, 4,4\u2032-dimethoxy-", "4-Methoxy-N-[(4-methoxyphenyl)methyl]benzenemethanamine", "Bis(4-methoxybenzyl)amine", "N,N-Bis(4-methoxybenzyl)amine", "N-(4-Methoxybenzyl)-1-(4-methoxyphenyl)methanamine", "1-(4-Methoxyphenyl)-N-[(4-methoxyphenyl)methyl]methanamine", "Bis(p-methoxybenzyl)amine"], "SMILES": "C(NCC1=CC=C(OC)C=C1)C2=CC=C(OC)C=C2", "physical_data": {"Molecular Weight": "257.33", "Molecular Formula": "C16H19NO2", "Boiling Point": "225-230 \u00b0C @ Press: 10 Torr", "Melting Point": "35-37 \u00b0C"}}