{"cas_no": "170632-47-0", "cn_name": "\u5229\u975e\u897f\u5471", "en_name": ["Lificiguat", "2-Furanmethanol, 5-[1-(phenylmethyl)-1H-indazol-3-yl]-", "5-[1-(Phenylmethyl)-1H-indazol-3-yl]-2-furanmethanol", "YC 1", "YC 1 (pharmaceutical)", "1-Benzyl-3-(5-hydroxymethylfur-2-yl)indazole", "Lificiguat", "1-Benzyl-3-(5-hydroxymethyl-furan-2-yl)indazole", "[5-(1-Benzyl-1H-indazol-3-yl)-furan-2-yl]-methanol", "[5-(1-Benzylindazol-3-yl)furan-2-yl]methanol"], "SMILES": "C(N1N=C(C=2C1=CC=CC2)C=3OC(CO)=CC3)C4=CC=CC=C4", "physical_data": {"Molecular Weight": "304.34", "Molecular Formula": "C19H16N2O2", "Melting Point": "110-112 \u00b0C"}}