{"cas_no": "1706-12-3", "cn_name": "4-\u7532\u57fa \u4e8c\u82ef\u57fa \u919a", "en_name": ["1-Methyl-4-phenoxybenzene", "Benzene, 1-methyl-4-phenoxy-", "Ether, phenyl p-tolyl", "1-Methyl-4-phenoxybenzene", "p-Cresol phenyl ether", "Phenyl p-tolyl ether", "p-Phenoxytoluene", "4-Methyldiphenyl ether", "p-Methylphenyl phenyl ether", "p-Tolyl phenyl ether", "4-Methylphenyl phenyl ether", "4-Phenoxytoluene", "NSC 83594"], "SMILES": "O(C1=CC=C(C)C=C1)C2=CC=CC=C2", "physical_data": {"Molecular Weight": "184.23", "Molecular Formula": "C13H12O", "Boiling Point": "277-278 \u00b0C @ Press: 145.5 Torr", "Melting Point": "104 \u00b0C"}}