{"cas_no": "1707-75-1", "cn_name": "1,1-\u4e8c\u82ef\u57fa-2-\u82e6\u5473\u9170\u80bc", "en_name": ["1,1-Diphenyl-2-picrylhydrazine", "Hydrazine, 1,1-diphenyl-2-(2,4,6-trinitrophenyl)-", "Hydrazine, 1,1-diphenyl-2-picryl-", "1,1-Diphenyl-2-(2,4,6-trinitrophenyl)hydrazine", "Diphenylpicrylhydrazine", "1,1-Diphenyl-2-picrylhydrazine", "\u03b1,\u03b1-Diphenyl-\u03b2-picrylhydrazine", "2,2-Diphenyl-1-picrylhydrazine", "2,2-Diphenyl-1-(2,4,6-trinitrophenyl)hydrazine", "NSC 12563"], "SMILES": "N(N(C1=CC=CC=C1)C2=CC=CC=C2)C3=C(N(=O)=O)C=C(N(=O)=O)C=C3N(=O)=O", "physical_data": {"Molecular Weight": "395.33", "Molecular Formula": "C18H13N5O6", "Melting Point": "172-173 \u00b0C (decomp)"}}