{"cas_no": "1707-95-5", "cn_name": "\u53cc\u831a\u4e8c\u916e", "en_name": ["Bindone", "1H-Indene-1,3(2H)-dione, 2-(2,3-dihydro-3-oxo-1H-inden-1-ylidene)-", "Bindone", "[\u03941,2\u2032-Biindan]-1\u2032,3,3\u2032-trione", "2-(2,3-Dihydro-3-oxo-1H-inden-1-ylidene)-1H-indene-1,3(2H)-dione", "Anhydrobis(indandione)", "Bindon", "NSC 26216", "[1,2\u2032-Biindenylidene]-1\u2032,3,3\u2032(2H)-trione", "2-(3-Oxoinden-1-ylidene)indene-1,3-dione"], "SMILES": "O=C1C(=C2C=3C(C(=O)C2)=CC=CC3)C(=O)C=4C1=CC=CC4", "physical_data": {"Molecular Weight": "274.27", "Molecular Formula": "C18H10O3", "Melting Point": "208-211 \u00b0C (decomp)"}}