{"cas_no": "170729-80-3", "cn_name": "\u963f\u745e\u5421\u5766", "en_name": ["Aprepitant", "3H-1,2,4-Triazol-3-one, 5-[[(2R,3S)-2-[(1R)-1-[3,5-bis(trifluoromethyl)phenyl]ethoxy]-3-(4-fluorophenyl)-4-morpholinyl]methyl]-1,2-dihydro-", "3H-1,2,4-Triazol-3-one, 5-[[2-[1-[3,5-bis(trifluoromethyl)phenyl]ethoxy]-3-(4-fluorophenyl)-4-morpholinyl]methyl]-1,2-dihydro-, [2R-[2\u03b1(R*),3\u03b1]]-", "5-[[(2R,3S)-2-[(1R)-1-[3,5-Bis(trifluoromethyl)phenyl]ethoxy]-3-(4-fluorophenyl)-4-morpholinyl]methyl]-1,2-dihydro-3H-1,2,4-triazol-3-one", "L 754030", "MK 869", "Aprepitant", "MK 0869", "Emend", "ONO 7436", "Cinvanti"], "SMILES": "C(N1C(C(OC(C)C2=CC(C(F)(F)F)=CC(C(F)(F)F)=C2)OCC1)C3=CC=C(F)C=C3)C4=NNC(=O)N4", "physical_data": {"Molecular Weight": "534.43", "Molecular Formula": "C23H21F7N4O3", "Melting Point": "255 \u00b0C"}}