{"cas_no": "17070-70-1", "cn_name": "3-\u5f02\u6c30\u9178\u57fa\u4e19\u57fa\u4e8c\u7532\u57fa\u6c2f\u7845\u70f7", "en_name": ["Chloro(3-isocyanatopropyl)dimethylsilane", "Silane, chloro(3-isocyanatopropyl)dimethyl-", "Isocyanic acid, 3-(chlorodimethylsilyl)propyl ester", "Chloro(3-isocyanatopropyl)dimethylsilane", "3-(Dimethylchlorosilyl)propyl isocyanate", "(3-Isocyanatopropyl)dimethylchlorosilane"], "SMILES": "C(C[Si](C)(C)Cl)CN=C=O", "physical_data": {"Molecular Weight": "177.70", "Molecular Formula": "C6H12ClNOSi", "Boiling Point": "62-66 \u00b0C @ Press: 0.6 Torr", "Density": "1.0444 g/cm\u00b3 @ Temp: 20 \u00b0C"}}