{"cas_no": "17075-03-5", "cn_name": "4-\u6c28\u57fa\u8298", "en_name": ["4-Pyrenamine", "4-Pyrenamine", "4-Aminopyrene"], "SMILES": "NC=1C=2C3=C4C(C1)=CC=CC4=CC=C3C=CC2", "physical_data": {"Molecular Weight": "217.27", "Molecular Formula": "C16H11N", "Melting Point": "207 \u00b0C"}}