{"cas_no": "1707-03-5", "cn_name": "\u4e8c\u82ef\u57fa\u78f7\u9178", "en_name": ["Diphenylphosphinic acid", "Phosphinic acid, P,P-diphenyl-", "Phosphinic acid, diphenyl-", "P,P-Diphenylphosphinic acid", "Diphenylphosphinic acid", "Hydroxydiphenylphosphine oxide", "NSC 13583"], "SMILES": "P(=O)(O)(C1=CC=CC=C1)C2=CC=CC=C2", "physical_data": {"Molecular Weight": "218.19", "Molecular Formula": "C12H11O2P", "Boiling Point": "194 \u00b0C", "Melting Point": "195-196 \u00b0C"}}