{"cas_no": "170737-46-9", "cn_name": "6 -\u6eb4\u4ee3-2-\u8418\u7532\u919b", "en_name": ["6-Bromo-2-naphthalenecarboxaldehyde", "2-Naphthalenecarboxaldehyde, 6-bromo-", "6-Bromo-2-naphthalenecarboxaldehyde", "6-Bromo-2-naphthaldehyde", "2-Bromo-6-naphthaldehyde", "2-Formyl-6-bromonaphthalene"], "SMILES": "C(=O)C1=CC2=C(C=C(Br)C=C2)C=C1", "physical_data": {"Molecular Weight": "235.08", "Molecular Formula": "C11H7BrO", "Melting Point": "116-118 \u00b0C"}}