{"cas_no": "1707-77-3", "cn_name": "\u53cc\u4e19\u916e-D-\u7518\u9732\u7cd6\u9187", "en_name": ["1,2:5,6-Di-O-isopropylidene-D-mannitol", "D-Mannitol, 1,2:5,6-bis-O-(1-methylethylidene)-", "Mannitol, 1,2:5,6-di-O-isopropylidene-, D-", "1,2:5,6-Bis-O-(1-methylethylidene)-D-mannitol", "1,2:5,6-Di-O-isopropylidene-D-mannitol", "D-(+)-1,2:5,6-Di-O-isopropylidenemannitol", "Diisopropylidene mannitol", "Mannitol diacetonide", "D-Mannitol 1,2:5,6-bis-acetonide", "1,2:5,6-Diisopropylidene-D-mannitol", "NSC 47987", "NSC 67545", "NSC 89874"], "SMILES": "C(C(O)C1OC(C)(C)OC1)(O)C2OC(C)(C)OC2", "physical_data": {"Molecular Weight": "262.30", "Molecular Formula": "C12H22O6", "Melting Point": "122 \u00b0C"}}