{"cas_no": "1707-67-1", "cn_name": "2-(2-\u6c2f\u82ef\u57fa)-4,5-\u4e8c\u82ef\u57fa\u54aa\u5511", "en_name": ["2-(o-Chlorophenyl)-4,5-diphenylimidazole", "1H-Imidazole, 2-(2-chlorophenyl)-4,5-diphenyl-", "Imidazole, 2-(o-chlorophenyl)-4,5-diphenyl-", "2-(2-Chlorophenyl)-4,5-diphenyl-1H-imidazole", "2-(2-Chlorophenyl)-4,5-diphenylimidazole", "2-(o-Chlorophenyl)-4,5-diphenylimidazole"], "SMILES": "ClC1=C(C=2NC(=C(N2)C3=CC=CC=C3)C4=CC=CC=C4)C=CC=C1", "physical_data": {"Molecular Weight": "330.81", "Molecular Formula": "C21H15ClN2", "Melting Point": "188 \u00b0C"}}