{"cas_no": "1708-40-3", "cn_name": "2-\u82ef\u57fa-1,3-\u4e8c\u6c27\u516d\u73af-5-\u9187", "en_name": ["2-Phenyl-1,3-dioxan-5-ol", "1,3-Dioxan-5-ol, 2-phenyl-", "m-Dioxan-5-ol, 2-phenyl-", "2-Phenyl-1,3-dioxan-5-ol", "Benzaldehyde cyclic 2-hydroxytrimethylene acetal", "1,3-O-Benzylideneglycerol", "1,3-Benzylideneglycerol", "5-Hydroxy-2-phenyl-1,3-dioxane", "NSC 97343", "2-Phenyl-1,3-dioxinan-5-ol"], "SMILES": "OC1COC(OC1)C2=CC=CC=C2", "physical_data": {"Molecular Weight": "180.20", "Molecular Formula": "C10H12O3", "Boiling Point": "165-170 \u00b0C @ Press: 10 Torr", "Melting Point": "83.5 \u00b0C"}}