{"cas_no": "1708-81-2", "cn_name": "\u987a-3-\u5e9a\u70ef-1-\u9187", "en_name": ["cis-3-Hepten-1-ol", "3-Hepten-1-ol, (3Z)-", "3-Hepten-1-ol, (Z)-", "(3Z)-3-Hepten-1-ol", "cis-3-Hepten-1-ol", "(Z)-3-Hepten-1-ol", "(Z)-3-Hepten-1-ol", "(Z)-3-Heptenol", "(3Z)-Hepten-1-ol"], "SMILES": "C(=CCCO)CCC", "physical_data": {"Molecular Weight": "114.19", "Molecular Formula": "C7H14O", "Boiling Point": "169-170 \u00b0C @ Press: 760 Torr"}}