{"cas_no": "1708-29-8", "cn_name": "2,5-\u4e8c\u6c22\u544b\u5583", "en_name": ["2,5-Dihydrofuran", "Furan, 2,5-dihydro-", "2,5-Dihydrofuran", "NSC 60532"], "SMILES": "C1=CCOC1", "physical_data": {"Molecular Weight": "70.09", "Molecular Formula": "C4H6O", "Boiling Point": "66.5 \u00b0C", "Density": "0.9265 g/cm\u00b3 @ Temp: 20 \u00b0C"}}