{"cas_no": "17082-47-2", "cn_name": "\u56db\uff08\u4e09\u7532\u57fa\u7845\u6c27\u57fa\uff09\u7845\u70f7", "en_name": ["Tetrakis(dimethylsiloxy)silane", "Trisiloxane, 3,3-bis[(dimethylsilyl)oxy]-1,1,5,5-tetramethyl-", "Trisiloxane, 3,3-bis(dimethylsiloxy)-1,1,5,5-tetramethyl-", "3,3-Bis[(dimethylsilyl)oxy]-1,1,5,5-tetramethyltrisiloxane", "Tetrakis(dimethylsiloxy)silane", "3,3-Bis(dimethylsiloxy)-1,1,5,5-tetramethyltrisiloxane", "Tetrakis(dimethylsilyl)orthosilicate", "Tetrakis(dimethylsilyloxy)silane", "T 1915", "TSL 8248", "SIT 7278.0", "3,3-Bis(dimethylsilyloxy)-1,1,5,5-tetramethyltrisiloxane", "SIT 7278"], "SMILES": "[Si](O[SiH](C)C)(O[SiH](C)C)(O[SiH](C)C)O[SiH](C)C", "physical_data": {"Molecular Weight": "328.73", "Molecular Formula": "C8H28O4Si5", "Boiling Point": "188-190 \u00b0C", "Density": "0.886 g/cm\u00b3"}}