{"cas_no": "1708-39-0", "cn_name": "\u82ef\u7532\u919b\u7518\u6cb9\u7f29\u919b", "en_name": ["2-Phenyl-1,3-dioxolane-4-methanol", "1,3-Dioxolane-4-methanol, 2-phenyl-", "2-Phenyl-1,3-dioxolane-4-methanol", "1,2-Benzylideneglycerol", "4-(Hydroxymethyl)-2-phenyldioxolane", "Benzylideneglycerol", "NSC 78968", "4-Hydroxymethyl-2-phenyl-1,3-dioxolane", "4-Methylol-2-phenyl-1,3-dioxolane", "(2-Phenyl-1,3-dioxolan-4-yl)methanol"], "SMILES": "C(O)C1OC(OC1)C2=CC=CC=C2", "physical_data": {"Molecular Weight": "180.20", "Molecular Formula": "C10H12O3", "Boiling Point": "145-152 \u00b0C @ Press: 3 Torr", "Melting Point": "84 \u00b0C", "Density": "1.190 g/cm\u00b3 @ Temp: 25 \u00b0C"}}