{"cas_no": "17088-28-7", "cn_name": "1,4-\u82ef\u4e8c\u4e19\u70ef\u9178\u4e8c\u4e59\u916f", "en_name": ["1,1\u2032-Diethyl 3,3\u2032-(1,4-phenylene)bis[2-propenoate]", "2-Propenoic acid, 3,3\u2032-(1,4-phenylene)bis-, 1,1\u2032-diethyl ester", "p-Benzenediacrylic acid, diethyl ester", "2-Propenoic acid, 3,3\u2032-(1,4-phenylene)bis-, diethyl ester", "1,1\u2032-Diethyl 3,3\u2032-(1,4-phenylene)bis[2-propenoate]", "Diethyl p-phenylenediacrylate", "1,4-Bis(2-ethoxycarbonylethenyl)benzene", "p-Bis(ethoxycarbonylvinyl)benzene", "p-Phenylenediacrylic acid diethyl ester", "Diethyl 3,3\u2032-(1,4-phenylene)diacrylate", "1,4-Phenylenediacrylic acid diethyl ester"], "SMILES": "C(=CC(OCC)=O)C1=CC=C(C=CC(OCC)=O)C=C1", "physical_data": {"Molecular Weight": "274.31", "Molecular Formula": "C16H18O4", "Melting Point": "93-94 \u00b0C"}}