{"cas_no": "1708-82-3", "cn_name": "\u987a\u4e59\u9178-3-\u5df1\u70ef\u916f", "en_name": ["3-Hexenyl acetate", "3-Hexen-1-ol, 1-acetate", "3-Hexen-1-ol, acetate", "3-Hexen-1-yl acetate", "3-Hexenyl acetate", "1-Acetoxy-3-hexene", "3-Hexenyl ethanoate"], "SMILES": "C(CC=CCC)OC(C)=O", "physical_data": {"Molecular Weight": "142.20", "Molecular Formula": "C8H14O2", "Boiling Point": "61 \u00b0C @ Press: 12 Torr", "Density": "0.9077 g/cm\u00b3 @ Temp: 11 \u00b0C"}}