{"cas_no": "17082-46-1", "cn_name": "\u7532\u57fa\u4e09(\u4e8c\u7532\u57fa\u7845\u6c27\u70f7\u57fa)\u7845\u70f7", "en_name": ["Methyltris(dimethylsiloxy)silane", "Trisiloxane, 3-[(dimethylsilyl)oxy]-1,1,3,5,5-pentamethyl-", "Trisiloxane, 3-(dimethylsiloxy)-1,1,3,5,5-pentamethyl-", "3-[(Dimethylsilyl)oxy]-1,1,3,5,5-pentamethyltrisiloxane", "Methyltris(dimethylsiloxy)silane", "Methyl tris(dimethylhydrosiloxy)silane", "TSL 8242", "M 9195", "Tris(dimethylhydrogensiloxy)methylsilane"], "SMILES": "[Si](O[SiH](C)C)(O[SiH](C)C)(O[SiH](C)C)C", "physical_data": {"Molecular Weight": "268.61", "Molecular Formula": "C7H24O3Si4", "Boiling Point": "164 \u00b0C", "Melting Point": "-155 \u00b0C", "Density": "0.8613 g/cm\u00b3 @ Temp: 20 \u00b0C"}}