{"cas_no": "17082-70-1", "cn_name": "4-[2-(\u4e09\u6c2f\u7845\u57fa)\u4e59\u57fa]\u5627\u5576", "en_name": ["4-[2-(Trichlorosilyl)ethyl]pyridine", "Pyridine, 4-[2-(trichlorosilyl)ethyl]-", "4-[2-(Trichlorosilyl)ethyl]pyridine", "2-(4-Pyridyl)-1-(trichlorosilyl)ethane"], "SMILES": "C(C[Si](Cl)(Cl)Cl)C=1C=CN=CC1", "physical_data": {"Molecular Weight": "240.59", "Molecular Formula": "C7H8Cl3NSi", "Boiling Point": "78-80 \u00b0C @ Press: 0.1 Torr", "Melting Point": "210 \u00b0C", "Density": "0.930 g/cm\u00b3"}}