{"cas_no": "17086-76-9", "cn_name": "\u676f\u82cb\u753e\u916e", "en_name": ["Cyasterone", "Stigmast-7-en-26-oic acid, 2,3,14,20,22,28-hexahydroxy-6-oxo-, \u03b3-lactone, (2\u03b2,3\u03b2,5\u03b2,22R,24S,25S,28R)-", "5\u03b2-Stigmast-7-en-26-oic acid, 2\u03b2,3\u03b2,14,20,22,28-hexahydroxy-6-oxo-, \u03b3-lactone, (22R,24S,25S,28R)-", "Cyasterone", "Cyasteron"], "SMILES": "OC12C=3C(C4(C)C(C(=O)C3)CC(O)C(O)C4)CCC1(C)C(C(C(CC5C(C)C(=O)OC5C)O)(C)O)CC2", "physical_data": {"Molecular Weight": "520.65", "Molecular Formula": "C29H44O8", "Melting Point": "164-166 \u00b0C"}}