{"cas_no": "17082-69-8", "cn_name": "2-[2-(\u4e09\u6c2f\u7845\u57fa)\u4e59\u57fa]\u5627\u5576", "en_name": ["2-[2-(Trichlorosilyl)ethyl]pyridine", "Pyridine, 2-[2-(trichlorosilyl)ethyl]-", "2-[2-(Trichlorosilyl)ethyl]pyridine", "(\u03b2-Trichlorosilyl-2-ethyl)pyridine", "Trichloro(2-(2-pyridinyl)ethyl)silane", "NSC 252167"], "SMILES": "C(C[Si](Cl)(Cl)Cl)C1=CC=CC=N1", "physical_data": {"Molecular Weight": "240.59", "Molecular Formula": "C7H8Cl3NSi", "Boiling Point": "280 \u00b0C", "Melting Point": "207 \u00b0C"}}