{"cas_no": "170850-75-6", "cn_name": "(2S,4R)-\u53cc-\u53d4\u4e01\u57fa4-\u7f9f\u57fa\u5421\u54af\u70f7-1,2-\u4e8c\u7532\u9178\u916f", "en_name": ["1,2-Bis(1,1-dimethylethyl) (2S,4R)-4-hydroxy-1,2-pyrrolidinedicarboxylate", "1,2-Pyrrolidinedicarboxylic acid, 4-hydroxy-, 1,2-bis(1,1-dimethylethyl) ester, (2S,4R)-", "1,2-Pyrrolidinedicarboxylic acid, 4-hydroxy-, bis(1,1-dimethylethyl) ester, (2S-trans)-", "1,2-Pyrrolidinedicarboxylic acid, 4-hydroxy-, bis(1,1-dimethylethyl) ester, (2S,4R)-", "1,2-Bis(1,1-dimethylethyl) (2S,4R)-4-hydroxy-1,2-pyrrolidinedicarboxylate", "N-tert-Butoxycarbonyl-L-hydroxyproline tert-butyl ester", "(2S,4R)-4-Hydroxypyrrolidine-1,2-dicarboxylic acid di-tert-butyl ester", "tert-Butyl (2S,4R)-N-Boc-trans-4-hydroxyprolinate"], "SMILES": "C(OC(C)(C)C)(=O)C1N(C(OC(C)(C)C)=O)CC(O)C1", "physical_data": {"Molecular Weight": "287.35", "Molecular Formula": "C14H25NO5", "Melting Point": "62-64 \u00b0C"}}