{"cas_no": "1708-41-4", "cn_name": "2-(1,3-\u4e8c\u6c27\u6742\u620a\u73af-2-\u57fa)\u544b\u5583", "en_name": ["2-Furyl-1,3-dioxolane", "1,3-Dioxolane, 2-(2-furanyl)-", "1,3-Dioxolane, 2-(2-furyl)-", "2-(2-Furanyl)-1,3-dioxolane", "2-Furaldehyde cyclic ethylene acetal", "Furfural ethylene acetal", "2-(\u03b1-Furyl)-1,3-dioxolane", "2-Furyl-1,3-dioxolane", "2-(2-Furyl)-1,3-dioxolane", "Furolan", "NSC 97506", "2-(1,3-Dioxolan-2-yl)furan", "Furalane", "Rarechem AL BP 0007"], "SMILES": "C1(=CC=CO1)C2OCCO2", "physical_data": {"Molecular Weight": "140.14", "Molecular Formula": "C7H8O3", "Boiling Point": "92-105 \u00b0C", "Melting Point": "-41 \u00b0C", "Density": "1.1677 g/cm\u00b3 @ Temp: 20 \u00b0C"}}