{"cas_no": "17082-09-6", "cn_name": "3-\u82ef\u57fa-2-\u4e19\u70ef\u9170\u6c2f", "en_name": ["trans-Cinnamoyl chloride", "2-Propenoyl chloride, 3-phenyl-, (2E)-", "Cinnamoyl chloride, (E)-", "2-Propenoyl chloride, 3-phenyl-, (E)-", "(2E)-3-Phenyl-2-propenoyl chloride", "trans-Cinnamoyl chloride", "(E)-Cinnamoyl chloride", "(E)-3-Phenyl-2-propenoyl chloride", "trans-Cinnamic acid chloride", "(2E)-3-Phenylprop-2-enoyl chloride", "trans-3-Phenyl-2-propenoyl chloride"], "SMILES": "C(=CC(Cl)=O)C1=CC=CC=C1", "physical_data": {"Molecular Weight": "166.60", "Molecular Formula": "C9H7ClO", "Boiling Point": "131 \u00b0C @ Press: 12 Torr", "Melting Point": "38 \u00b0C"}}