{"cas_no": "1709-70-2", "cn_name": "\u6297\u6c27\u5242 330", "en_name": ["1,3,5-Trimethyl-2,4,6-tris(3,5-di-tert-butyl-4-hydroxybenzyl)benzene", "Phenol, 4,4\u2032,4\u2032\u2032-[(2,4,6-trimethyl-1,3,5-benzenetriyl)tris(methylene)]tris[2,6-bis(1,1-dimethylethyl)-", "p-Cresol, \u03b1,\u03b1\u2032,\u03b1\u2032\u2032-(2,4,6-trimethyl-s-phenenyl)tris[2,6-di-tert-butyl-", "p-Cresol, \u03b1,\u03b1\u2032,\u03b1\u2032\u2032-(trimethyl-s-phenenyl)tris[2,6-di-tert-butyl-", "4,4\u2032,4\u2032\u2032-[(2,4,6-Trimethyl-1,3,5-benzenetriyl)tris(methylene)]tris[2,6-bis(1,1-dimethylethyl)phenol", "Ionox 330", "1,3,5-Trimethyl-2,4,6-tris(3,5-di-tert-butyl-4-hydroxybenzyl)benzene", "2,4,6-Tris(3\u2032,5\u2032-di-tert-butyl-4\u2032-hydroxybenzyl)mesitylene", "2,4,6-Tris(4-hydroxy-3,5-di-tert-butylbenzyl)mesitylene", "AO 40", "2,4,6-Tris(4-hydroxy-3,5-di-tert-butylbenzyl)-1,3,5-trimethylbenzene", "2,4,6-Tris(3,5-di-tert-butyl-4-hydroxybenzyl)mesitylene", "Ethyl Antioxidant 330", "1,3,5-Trimethyl-2,4,6-tris(4-hydroxy-3,5-di-tert-butylbenzyl)benzene", "Ethyl 330", "Irganox 330", "1,3,5-Trimethyl-2,4,6-tris(3,5-di-tert-butyl-4-hydroxytolyl)benzene", "2,4,6-Bis(4-hydroxy-3,5-di-tert-butylbenzyl)mesitylene", "1,3,5-Tris(3,5-di-tert-butyl-4-hydroxybenzyl)-2,4,6-trimethylbenzene", "1,3,5-Tris(3,5-di-tert-butyl-4-hydroxyphenylmethyl)-2,4,6-trimethylbenzene", "1,3,5-Dimethyl-2,4,6-tris(3,5-tert-butyl-4-hydroxybenzyl)benzene", "Antioxidant 330", "Agidol 40", "Antioxidant 40", "1,3,5-Trimethyl-2,4,6-tris(3\u2032,5\u2032-di-tert-butyl-4\u2032-hydroxybenzyl)benzene", "Ethanox 330", "Irganox 1330", "Mark AO 330", "Seenox 326M", "ADK Stab AO 330", "Alvinox 100", "Good-rite 1330", "Yoshinox 1330", "Anox 330", "NSC 85846", "AO 330", "1,3,5-Trismethyl-2,4,6-tris(3,5-tert-butyl-4-hydroxybenzyl)benzene", "IR 1330", "ADK Stab A 330", "Ethanox 300", "Anox 330TDS", "1,3,5-Trimethyl-2,4,6-tri(3,5-di-tert-butyl-4-hydroxybenzyl)benzene", "3,3\u2032,3\u2032\u2032,5,5\u2032,5\u2032\u2032-Hexa-tert-butyl-\u03b1,\u03b1\u2032,\u03b1\u2032\u2032-(mesitylene-2,4,6-triyl)tri-p-cresol", "Antioxidant 1330", "Irg 1330", "KY 1330", "1,3,5-Trimethyl-2,4,6-tris(3,5-di-t-butyl-4-hydroxybenzyl)benzene", "Rianox 330", "AO 1330", "AO 13", "Songnox 1330", "Chinox 1330", "AT 330", "DTXSID6027428"], "SMILES": "C(C1=C(C)C(CC2=CC(C(C)(C)C)=C(O)C(C(C)(C)C)=C2)=C(C)C(CC3=CC(C(C)(C)C)=C(O)C(C(C)(C)C)=C3)=C1C)C4=CC(C(C)(C)C)=C(O)C(C(C)(C)C)=C4", "physical_data": {"Molecular Weight": "775.20", "Molecular Formula": "C54H78O3", "Melting Point": "244 \u00b0C"}}