{"cas_no": "1709-71-3", "cn_name": "2-\u4e19\u70ef\u9178-2-\u7f9f\u57fa-1,3-\u4e19\u4e8c\u916f", "en_name": ["3-Acryloyloxy-2-hydroxypropyl methacrylate", "2-Propenoic acid, 2-methyl-, 2-hydroxy-3-[(1-oxo-2-propen-1-yl)oxy]propyl ester", "2-Propenoic acid, 2-methyl-, 2-hydroxy-3-[(1-oxo-2-propenyl)oxy]propyl ester", "Methacrylic acid, 2,3-dihydroxypropyl ester, 3-acrylate", "2-Hydroxy-3-methacryloyloxypropyl acrylate", "G 201P", "2-Hydroxy-3-acryloyloxy-1-methacryloyloxypropane", "NK Ester 701A", "2-Hydroxy-1-acryloxy-3-methacryloxypropane", "3-Acryloyloxy-2-hydroxypropyl methacrylate", "2-Hydroxy-3-acryloyloxypropyl methacrylate", "AHPMA", "1-Methacryloyloxy-3-acryloyloxy-2-propanol", "Acrylic acid-glycidyl methacrylate 1:1 adduct", "1-(Acryloyloxy)-2-hydroxy-3-(methacryloyloxy)propane", "Blemmer GAM", "3-(Acryloxy)-2-hydroxypropyl methacrylate", "Light Ester G 201P", "3-Acryloyloxy glycerol monomethacrylate", "701A", "2-Hydroxy-1-acryloyloxy-3-methacryloyloxypropane", "1-Acryloyloxy-3-(methacryloyloxy)-2-propanol"], "SMILES": "C(C(COC(C=C)=O)O)OC(C(C)=C)=O", "physical_data": {"Molecular Weight": "214.22", "Molecular Formula": "C10H14O5", "Boiling Point": "130-155 \u00b0C @ Press: 0.18-0.5 Torr"}}