{"cas_no": "1709-44-0", "cn_name": "\u95f4\u6c28\u57fa\u82ef\u7532\u919b,\u805a\u5408\u7269", "en_name": ["3-Aminobenzaldehyde", "Benzaldehyde, 3-amino-", "Benzaldehyde, m-amino-", "3-Aminobenzaldehyde", "m-Aminobenzaldehyde", "3-Formylaniline", "NSC 36957"], "SMILES": "C(=O)C1=CC(N)=CC=C1", "physical_data": {"Molecular Weight": "121.14", "Molecular Formula": "C7H7NO", "Melting Point": "28-30 \u00b0C"}}