{"cas_no": "1709-39-3", "cn_name": "4-\u6c28\u57fa-N,N-\u4e8c\u4e59\u57fa\u82ef\u78fa\u9170\u80fa", "en_name": ["4-Amino-N,N-diethylbenzenesulfonamide", "Benzenesulfonamide, 4-amino-N,N-diethyl-", "Sulfanilamide, N1,N1-diethyl-", "4-Amino-N,N-diethylbenzenesulfonamide", "N,N-Diethyl-4-aminobenzenesulfonamide", "N1,N1-Diethylsulfanilamide", "NSC 15769"], "SMILES": "S(N(CC)CC)(=O)(=O)C1=CC=C(N)C=C1", "physical_data": {"Molecular Weight": "228.31", "Molecular Formula": "C10H16N2O2S", "Melting Point": "105-106 \u00b0C"}}