{"cas_no": "17096-15-0", "cn_name": "1,1'-\u786b\u8054\u4e8c(2-\u8418\u915a)", "en_name": ["1,1\u2032-Thiobis(2-naphthol)", "2-Naphthalenol, 1,1\u2032-thiobis-", "2-Naphthol, 1,1\u2032-thiodi-", "1,1\u2032-Thiobis[2-naphthalenol]", "1,1\u2032-Thiobis(\u03b2-naphthol)", "1,1\u2032-Thiobis(2-naphthol)", "1,1\u2032-Thiodi-\u03b2-naphthol", "Bis(2-hydroxy-1-naphthyl) sulfide", "NSC 11877", "Thiobis(2,2\u2032-naphthol)", "1,1\u2032-Thiobis(naphthalen-2-ol)"], "SMILES": "S(C=1C2=C(C=CC1O)C=CC=C2)C=3C4=C(C=CC3O)C=CC=C4", "physical_data": {"Molecular Weight": "318.39", "Molecular Formula": "C20H14O2S", "Melting Point": "212 \u00b0C"}}