{"cas_no": "17090-79-8", "cn_name": "\u83ab\u80fd\u83cc\u7d20", "en_name": ["Monensin", "Monensin", "1,6-Dioxaspiro[4.5]decane-7-butyric acid, 2-[5-ethyltetrahydro-5-[tetrahydro-3-methyl-5-[tetrahydro-6-hydroxy-6-(hydroxymethyl)-3,5-dimethyl-2H-pyran-2-yl]-2-furyl]-2-furyl]-9-hydroxy-\u03b2-methoxy-\u03b1,\u03b3,2,8-tetramethyl-", "1,6-Dioxaspiro[4.5]decane, monensin deriv.", "Monensic acid", "Monensin A", "Elancoban", "Monelan", "Stereoisomer of 2-[2-ethyloctahydro-3\u2032-methyl-5\u2032-[tetrahydro-6-hydroxy-6-(hydroxymethyl)-3,5-dimethyl-2H-pyran-2-yl][2,2\u2032-bifuran]-5-yl]-9-hydroxy-\u03b2-methoxy-\u03b1,\u03b3,2,8-tetramethyl-1,6-dioxaspiro[4.5]decane-7-butanoic acid", "A 3823A", "Rumensin CRC", "Rumensin 90", "MeSH ID: D008985"], "SMILES": "CC1(OC2(OC(C(C(C(C(O)=O)C)OC)C)C(C)C(O)C2)CC1)C3OC(CC)(CC3)C4OC(CC4C)C5OC(CO)(O)C(C)CC5C", "physical_data": {"Molecular Weight": "670.87", "Molecular Formula": "C36H62O11", "Melting Point": "103-105 \u00b0C"}}