{"cas_no": "17095-20-4", "cn_name": "(4-\u6eb4\u82c4\u57fa)\u4e09\u7532\u57fa\u7845\u70f7", "en_name": ["1-Bromo-4-[(trimethylsilyl)methyl]benzene", "Benzene, 1-bromo-4-[(trimethylsilyl)methyl]-", "Silane, (p-bromobenzyl)trimethyl-", "Silane, [(4-bromophenyl)methyl]trimethyl-", "1-Bromo-4-[(trimethylsilyl)methyl]benzene", "4-Bromobenzyltrimethylsilane", "(p-Bromobenzyl)trimethylsilane", "(4-Bromophenyl)methyl-trimethylsilane", "[(4-Bromophenyl)methyl]trimethylsilane"], "SMILES": "C([Si](C)(C)C)C1=CC=C(Br)C=C1", "physical_data": {"Molecular Weight": "243.22", "Molecular Formula": "C10H15BrSi", "Boiling Point": "96 \u00b0C @ Press: 5 Torr", "Density": "1.1891 g/cm\u00b3 @ Temp: 20 \u00b0C"}}