{"cas_no": "17094-34-7", "cn_name": "\u7279\u620a\u9170\u57fa\u4e59\u9178\u4e59\u916f", "en_name": ["Ethyl pivaloylacetate", "Pentanoic acid, 4,4-dimethyl-3-oxo-, ethyl ester", "Valeric acid, 4,4-dimethyl-3-oxo-, ethyl ester", "Ethyl 4,4-dimethyl-3-oxopentanoate", "Ethyl pivaloylacetate", "Ethyl (2,2-dimethylpropionyl)acetate", "Ethyl 3-oxo-4,4-dimethylpentanoate", "Ethyl 4,4-dimethyl-3-oxovalerate", "4,4-Dimethyl-3-oxopentanoic acid ethyl ester", "4,4-Dimethyl-3-oxovaleric acid ethyl ester", "Ethyl pivaloylacetoacetate"], "SMILES": "C(C(C(C)(C)C)=O)C(OCC)=O", "physical_data": {"Molecular Weight": "172.22", "Molecular Formula": "C9H16O3", "Boiling Point": "83 \u00b0C @ Press: 15 Torr"}}