{"cas_no": "17096-07-0", "cn_name": "\u7532\u57fa\u4e19\u70ef\u9170\u6c27\u4e19\u57fa\u4e09(\u4e09\u7532\u57fa\u7845\u6c27\u70f7\u57fa)\u7845\u70f7", "en_name": ["Tris(trimethylsiloxy)silylpropyl methacrylate", "2-Propenoic acid, 2-methyl-, 3-[3,3,3-trimethyl-1,1-bis[(trimethylsilyl)oxy]-1-disiloxanyl]propyl ester", "Methacrylic acid, 3-[3,3,3-trimethyl-1,1-bis(trimethylsiloxy)disiloxanyl]propyl ester", "2-Propenoic acid, 2-methyl-, 3-[3,3,3-trimethyl-1,1-bis[(trimethylsilyl)oxy]disiloxanyl]propyl ester", "Tris(trimethylsiloxy)[3-(methacryloyloxy)propyl]silane", "X 22-5002", "TRIS", "X 22-2404", "3-[3,3,3-Trimethyl-1,1-bis(trimethylsiloxy)disiloxanyl]propyl methacrylate", "3-[Tris(trimethylsilyloxy)silyl]propyl 2-methyl-2-propenoate", "(3-Methacryloyloxypropyl)tris(trimethylsiloxy)silane", "KF 2801", "Tris(trimethylsiloxy)-3-methacryloxypropylsilane", "(Methacryloyloxypropyl)tris(trimethylsiloxy)silane", "3-[Tris(trimethylsilyloxy)silyl]propyl methacrylate", "3-[Tris(trimethylsiloxy)silyl]propyl methacrylate", "SK 5001", "SIM 6487.6", "Silaplane TM 0701", "Silaplane TM 0701T", "Methacryloxypropyltris(trimethylsiloxy)silane", "S 503TS", "3-(Methacryloyloxy)propyltris(trimethylsilyloxy)silane", "Silaplane 0701T", "Tris(trimethylsiloxy)silylpropyl methacrylate", "TM 0701T", "\u03b3-Methacryloxypropyltris(trimethylsilyloxy)silane", "3-(1,1,1,5,5,5-Hexamethyl-3-((trimethylsilyl)oxy)trisiloxan-3-yl)propyl methacrylate", "Silaplane FM 0701T", "KH 573"], "SMILES": "[Si](CCCOC(C(C)=C)=O)(O[Si](C)(C)C)(O[Si](C)(C)C)O[Si](C)(C)C", "physical_data": {"Molecular Weight": "422.81", "Molecular Formula": "C16H38O5Si4", "Boiling Point": "139 \u00b0C @ Press: 1 Torr", "Density": "0.930 g/cm\u00b3"}}