{"cas_no": "17092-92-1", "cn_name": "\u4e8c\u6c22\u7315\u7334\u6843\u5185\u916f", "en_name": ["(-)-Dihydroactinidiolide", "2(4H)-Benzofuranone, 5,6,7,7a-tetrahydro-4,4,7a-trimethyl-, (7aR)-", "2(4H)-Benzofuranone, 5,6,7,7a-tetrahydro-4,4,7a-trimethyl-", "2(4H)-Benzofuranone, 5,6,7,7a-tetrahydro-4,4,7a-trimethyl-, (R)-", "(7aR)-5,6,7,7a-Tetrahydro-4,4,7a-trimethyl-2(4H)-benzofuranone", "Actinidiolide, dihydro-", "Dihydroactinidiolide", "(-)-Dihydroactinidiolide", "(R)-Dihydroactinidiolide", "NSC 357087", "(7AR)-4,4,7a-trimethyl-2,4,5,6,7,7a-hexahydro-1-benzofuran-2-one", "(R)-5,6,7,7a-Tetrahydro-4,4,7a-trimethyl-2(4H)-benzofuranone"], "SMILES": "CC12C(=CC(=O)O1)C(C)(C)CCC2", "physical_data": {"Molecular Weight": "180.24", "Molecular Formula": "C11H16O2", "Melting Point": "40-41 \u00b0C"}}