{"cas_no": "1709-59-7", "cn_name": "4-\u6c28\u57fa-N,N-\u4e8c\u7532\u57fa\u82ef\u78fa\u9170\u80fa", "en_name": ["4-Amino-N,N-dimethylbenzenesulfonamide", "Benzenesulfonamide, 4-amino-N,N-dimethyl-", "Sulfanilamide, N1,N1-dimethyl-", "4-Amino-N,N-dimethylbenzenesulfonamide", "p-Amino-N,N-dimethylbenzenesulfonamide", "N1,N1-Dimethylsulfanilamide", "p-(Dimethylsulfamoyl)aniline", "N,N-Dimethylsulfanilamide", "4-(Dimethylaminosulfonyl)aniline", "4-(N,N-Dimethylsulfamoyl)aniline", "[(4-Aminophenyl)sulfonyl]dimethylamine", "NSC 110777", "N,N-Dimethyl-4-aminobenzenesulfonamide", "4-Amino-N,N-dimethylbenzene-1-sulfonamide"], "SMILES": "S(N(C)C)(=O)(=O)C1=CC=C(N)C=C1", "physical_data": {"Molecular Weight": "200.26", "Molecular Formula": "C8H12N2O2S", "Melting Point": "168 \u00b0C"}}