{"cas_no": "1709-52-0", "cn_name": "4-\u6c28\u57fa-N-\u7532\u57fa\u82ef\u78fa\u9170\u80fa", "en_name": ["4-Amino-N-methylbenzenesulfonamide", "Benzenesulfonamide, 4-amino-N-methyl-", "Sulfanilamide, N1-methyl-", "4-Amino-N-methylbenzenesulfonamide", "N1-Methylsulfanilamide", "N-Methyl-p-aminobenzenesulfonamide", "N-Methyl-4-aminobenzenesulfonamide", "4-(Methylaminosulfonyl)aniline", "NSC 137232", "4-(N-Methylaminosulfonyl)aniline", "p-Amino-N-methylbenzenesulfonamide", "4-(Methylsulfamoyl)aniline"], "SMILES": "S(NC)(=O)(=O)C1=CC=C(N)C=C1", "physical_data": {"Molecular Weight": "186.23", "Molecular Formula": "C7H10N2O2S", "Melting Point": "111 \u00b0C"}}