{"cas_no": "1709-53-1", "cn_name": "4-\u6c28\u57fa-N-\u4e59\u57fa\u82ef\u78fa\u9170\u80fa", "en_name": ["4-Amino-N-ethylbenzenesulfonamide", "Benzenesulfonamide, 4-amino-N-ethyl-", "Sulfanilamide, N1-ethyl-", "4-Amino-N-ethylbenzenesulfonamide", "N1-Ethylsulfanilamide"], "SMILES": "S(NCC)(=O)(=O)C1=CC=C(N)C=C1", "physical_data": {"Molecular Weight": "200.26", "Molecular Formula": "C8H12N2O2S", "Melting Point": "106 \u00b0C"}}