{"cas_no": "17106-13-7", "cn_name": "2,4-\u4e8c\u7532\u57fa\u5421\u54af-3-\u7532\u9178", "en_name": ["2,4-Dimethyl-1H-pyrrole-3-carboxylic acid", "1H-Pyrrole-3-carboxylic acid, 2,4-dimethyl-", "Pyrrole-3-carboxylic acid, 2,4-dimethyl-", "2,4-Dimethyl-1H-pyrrole-3-carboxylic acid"], "SMILES": "C(O)(=O)C=1C(C)=CNC1C", "physical_data": {"Molecular Weight": "139.15", "Molecular Formula": "C7H9NO2", "Melting Point": "75-76 \u00b0C"}}