{"cas_no": "171058-21-2", "cn_name": "1-\u5341\u56db\u70f7-3-\u7532\u57fa\u6c2f\u5316\u54aa\u5511\u7fc1", "en_name": ["1-Tetradecyl-3-methylimidazolium chloride", "1H-Imidazolium, 1-methyl-3-tetradecyl-, chloride (1:1)", "1H-Imidazolium, 1-methyl-3-tetradecyl-, chloride", "1-Tetradecyl-3-methylimidazolium chloride", "1-Methyl-3-tetradecylimidazolium chloride"], "SMILES": "C(CCCCCCCCCCCCC)[N+]=1C=CN(C)C1.[Cl-]", "physical_data": {"Molecular Weight": "", "Molecular Formula": "C18H35N2.Cl", "Melting Point": "51-52 \u00b0C"}}