{"cas_no": "171096-33-6", "cn_name": "4,6-\u4e8c\u6c2f\u5627\u5576-5-\u4e59\u9178\u7532\u916f", "en_name": ["Methyl 4,6-dichloro-5-pyrimidineacetate", "5-Pyrimidineacetic acid, 4,6-dichloro-, methyl ester", "Methyl 4,6-dichloro-5-pyrimidineacetate", "Methyl 2-(4,6-Dichloropyrimidin-5-yl)acetate"], "SMILES": "C(C(OC)=O)C=1C(Cl)=NC=NC1Cl", "physical_data": {"Molecular Weight": "221.04", "Molecular Formula": "C7H6Cl2N2O2", "Melting Point": "65-67 \u00b0C"}}