{"cas_no": "17100-65-1", "cn_name": "2-\u6eb4-4-\u7532\u6c27\u57fa\u82ef\u7532\u9178\u7532\u916f", "en_name": ["Methyl 2-bromo-4-methoxybenzoate", "Benzoic acid, 2-bromo-4-methoxy-, methyl ester", "p-Anisic acid, 2-bromo-, methyl ester", "Methyl 2-bromo-4-methoxybenzoate", "2-Bromo-4-methoxybenzoic acid methyl ester"], "SMILES": "C(OC)(=O)C1=C(Br)C=C(OC)C=C1", "physical_data": {"Molecular Weight": "245.07", "Molecular Formula": "C9H9BrO3", "Melting Point": "29 \u00b0C"}}