{"cas_no": "1710-98-1", "cn_name": "\u5bf9\u53d4\u4e01\u57fa\u82ef\u7532\u9170\u6c2f", "en_name": ["4-tert-Butylbenzoyl chloride", "Benzoyl chloride, 4-(1,1-dimethylethyl)-", "Benzoyl chloride, p-tert-butyl-", "4-(1,1-Dimethylethyl)benzoyl chloride", "p-tert-Butylbenzoyl chloride", "4-tert-Butylbenzoyl chloride", "4-tert-Butylbenzoic acid chloride"], "SMILES": "C(C)(C)(C)C1=CC=C(C(Cl)=O)C=C1", "physical_data": {"Molecular Weight": "196.67", "Molecular Formula": "C11H13ClO", "Boiling Point": "107-109 \u00b0C @ Press: 4 Torr", "Melting Point": "177.5-179 \u00b0C"}}