{"cas_no": "171058-18-7", "cn_name": "\u7678\u57fa\u7532\u57fa\u6c2f\u5316\u54aa\u5511", "en_name": ["1-Decyl-3-methylimidazolium chloride", "1H-Imidazolium, 3-decyl-1-methyl-, chloride (1:1)", "1H-Imidazolium, 1-decyl-3-methyl-, chloride", "1-Decyl-3-methylimidazolium chloride"], "SMILES": "C(CCCCCCCCC)[N+]=1C=CN(C)C1.[Cl-]", "physical_data": {"Molecular Weight": "", "Molecular Formula": "C14H27N2.Cl", "Melting Point": "38.02 \u00b0C"}}