{"cas_no": "17102-64-6", "cn_name": "\u53cd\u5f0f-2,4-\u5df1\u4e8c\u70ef-1-\u9187", "en_name": ["(2E,4E)-2,4-Hexadien-1-ol", "2,4-Hexadien-1-ol, (2E,4E)-", "2,4-Hexadien-1-ol, (E,E)-", "(2E,4E)-2,4-Hexadien-1-ol", "trans-2,4-Hexadienol", "trans,trans-2,4-Hexadien-1-ol", "Sorbic alcohol", "Sorbinic alcohol", "Sorbyl alcohol", "Sorbinol", "(E,E)-2,4-Hexadien-1-ol", "(2E,4E)-Hexa-2,4-dien-1-ol"], "SMILES": "C(C=CC)=CCO", "physical_data": {"Molecular Weight": "98.14", "Molecular Formula": "C6H10O", "Boiling Point": "76-77 \u00b0C @ Press: 12 Torr", "Melting Point": "30.5 \u00b0C", "Density": "0.884 g/cm\u00b3 @ Temp: 18 \u00b0C"}}