{"cas_no": "17109-49-8", "cn_name": "\u514b\u761f\u6563", "en_name": ["Edifenphos", "Phosphorodithioic acid, O-ethyl S,S-diphenyl ester", "Hinosan", "EDDP", "O-Ethyl S,S-diphenyl phosphorodithioate", "S,S-Diphenyl O-ethyl phosphorodithioate", "Ethyl S,S-diphenyl phosphorodithioate", "Bayer 78418", "O-Ethyl S,S-diphenyl dithiophosphate", "Edifenphos", "Ediphenphos", "BAY 78418", "Edifenphpos", "EDDP (pesticide)"], "SMILES": "P(SC1=CC=CC=C1)(SC2=CC=CC=C2)(OCC)=O", "physical_data": {"Molecular Weight": "310.37", "Molecular Formula": "C14H15O2PS2", "Boiling Point": "154 \u00b0C @ Press: 8 x 10<sup>-3</sup> Torr", "Melting Point": "-25 \u00b0C", "Density": "1.251 g/cm\u00b3 @ Temp: 20 \u00b0C"}}