{"cas_no": "171049-41-5", "cn_name": "\u53d4-\u4e01\u57fa-7-\u6c28\u57fa-3,4-\u4e8c\u6c22\u5f02\u55b9\u5549-2(1H)-\u7532\u9178", "en_name": ["tert-Butyl 7-amino-3,4-dihydroisoquinoline-2(1H)-carboxylate", "2(1H)-Isoquinolinecarboxylic acid, 7-amino-3,4-dihydro-, 1,1-dimethylethyl ester", "7-Amino-2-(tert-butoxycarbonyl)-1,2,3,4-tetrahydroisoquinoline", "7-Amino-2-Boc-1,2,3,4-tetrahydroisoquinoline", "7-Amino-3,4-dihydro-1H-isoquinoline-2-carboxylic acid tert-butyl ester", "tert-Butyl 7-amino-3,4-dihydroisoquinoline-2(1H)-carboxylate", "7-Amino-2-(tert-butyloxycarbonyl)-1,2,3,4-tetrahydroisoquinoline"], "SMILES": "C(OC(C)(C)C)(=O)N1CC=2C(CC1)=CC=C(N)C2", "physical_data": {"Molecular Weight": "248.32", "Molecular Formula": "C14H20N2O2", "Melting Point": "59-61 \u00b0C"}}