{"cas_no": "1711-06-4", "cn_name": "\u95f4\u7532\u57fa\u82ef\u7532\u9170\u6c2f", "en_name": ["3-Methylbenzoyl chloride", "Benzoyl chloride, 3-methyl-", "m-Toluoyl chloride", "3-Methylbenzoyl chloride", "m-Methylbenzoyl chloride", "m-Toluyl chloride", "Toluoyl chloride", "3-Toluoyl chloride", "m-Toluoyl chloride", "NSC 97207", "m-Toluenecarbonyl chloride", "m-Toluic acid chloride"], "SMILES": "C(Cl)(=O)C1=CC(C)=CC=C1", "physical_data": {"Molecular Weight": "154.59", "Molecular Formula": "C8H7ClO", "Boiling Point": "219.5 \u00b0C", "Melting Point": "-23 \u00b0C", "Density": "1.172 g/cm\u00b3 @ Temp: 20 \u00b0C"}}