{"cas_no": "1711-05-3", "cn_name": "\u95f4\u7532\u6c27\u57fa\u82ef\u7532\u9170\u6c2f", "en_name": ["3-Methoxybenzoyl chloride", "Benzoyl chloride, 3-methoxy-", "m-Anisoyl chloride", "3-Methoxybenzoyl chloride", "m-Methoxybenzoyl chloride", "3-Methoxybenzoic acid chloride", "3-Anisoyl chloride", "m-Anisoyl chloride"], "SMILES": "C(Cl)(=O)C1=CC(OC)=CC=C1", "physical_data": {"Molecular Weight": "170.59", "Molecular Formula": "C8H7ClO2", "Boiling Point": "118-120 \u00b0C @ Press: 11 Torr", "Melting Point": "101-104 \u00b0C"}}