{"cas_no": "1711-10-0", "cn_name": "3-\u7898\u82ef\u7532\u9170\u6c2f", "en_name": ["3-Iodobenzoyl chloride", "Benzoyl chloride, 3-iodo-", "Benzoyl chloride, m-iodo-", "3-Iodobenzoyl chloride", "m-Iodobenzoyl chloride", "NSC 93251"], "SMILES": "C(Cl)(=O)C1=CC(I)=CC=C1", "physical_data": {"Molecular Weight": "266.46", "Molecular Formula": "C7H4ClIO", "Boiling Point": "159-160 \u00b0C @ Press: 23 Torr"}}