{"cas_no": "17110-51-9", "cn_name": "\u80c6\u56fa\u9187\u6cb9\u9187\u78b3\u9178\u916f", "en_name": ["Cholesteryl oleyl carbonate", "Cholest-5-en-3-ol (3\u03b2)-, 3-[(9Z)-9-octadecen-1-yl carbonate]", "Cholesterol, 9-octadecenyl carbonate, (Z)-", "Cholest-5-en-3-ol (3\u03b2)-, 9-octadecenyl carbonate, (Z)-", "Cholest-5-en-3-ol (3\u03b2)-, (9Z)-9-octadecenyl carbonate", "9-Octadecen-1-ol, cholesteryl carbonate, (Z)-", "Carbonic acid, cholesteryl 9-octadecenyl ester, (Z)-", "Carbonic acid, cholesteryl oleyl ester", "Oleyl cholesteryl carbonate", "Cholesteryl oleyl carbonate", "Cholesterol oleyl carbonate", "Kh 16"], "SMILES": "CC12C3C(C4C(C)(CC3)C(C(CCCC(C)C)C)CC4)CC=C1CC(OC(OCCCCCCCCC=CCCCCCCCC)=O)CC2", "physical_data": {"Molecular Weight": "681.13", "Molecular Formula": "C46H80O3", "Melting Point": "20 \u00b0C"}}