{"cas_no": "1711-07-5", "cn_name": "\u95f4\u6c1f\u82ef\u7532\u9170\u6c2f", "en_name": ["3-Fluorobenzoyl chloride", "Benzoyl chloride, 3-fluoro-", "Benzoyl chloride, m-fluoro-", "Benzoyl chloride, m-fluoro-", "3-Fluorobenzoyl chloride", "m-Fluorobenzoic acid chloride", "m-Fluorobenzoyl chloride", "NSC 88315", "3-Fluorobenzenecarbonyl chloride"], "SMILES": "C(Cl)(=O)C1=CC(F)=CC=C1", "physical_data": {"Molecular Weight": "158.56", "Molecular Formula": "C7H4ClFO", "Boiling Point": "189 \u00b0C", "Melting Point": "-30 \u00b0C"}}