{"cas_no": "1711-02-0", "cn_name": "4-\u7898\u82ef\u7532\u9170\u6c2f", "en_name": ["4-Iodobenzoyl chloride", "Benzoyl chloride, 4-iodo-", "Benzoyl chloride, p-iodo-", "4-Iodobenzoyl chloride", "p-Iodobenzoyl chloride", "4-Iodobenzenecarbonyl chloride", "4-Iodobenzoic acid chloride", "NSC 97335"], "SMILES": "C(Cl)(=O)C1=CC=C(I)C=C1", "physical_data": {"Molecular Weight": "266.46", "Molecular Formula": "C7H4ClIO", "Boiling Point": "155-157 \u00b0C @ Press: 26 Torr", "Melting Point": "63-65 \u00b0C"}}