{"cas_no": "17119-15-2", "cn_name": "3-\u7f9f\u57fa\u6241\u6843\u9178", "en_name": ["3-Hydroxymandelic acid", "Benzeneacetic acid, \u03b1,3-dihydroxy-", "Mandelic acid, m-hydroxy-", "\u03b1,3-Dihydroxybenzeneacetic acid", "m-Hydroxymandelic acid", "3-Hydroxymandelic acid", "DL-3-Hydroxymandelic acid", "(\u00b1)-m-Hydroxymandelic acid", "2-Hydroxy-2-(3-hydroxyphenyl)acetic acid"], "SMILES": "C(C(O)=O)(O)C1=CC(O)=CC=C1", "physical_data": {"Molecular Weight": "168.15", "Molecular Formula": "C8H8O4", "Melting Point": "131-132 \u00b0C"}}