{"cas_no": "17119-74-3", "cn_name": "2-(\u7532\u786b\u57fa)-4-\u6c2f-5-\u6eb4-6-\u7532\u57fa\u5627\u5576", "en_name": ["5-Bromo-4-chloro-6-methyl-2-(methylthio)pyrimidine", "Pyrimidine, 5-bromo-4-chloro-6-methyl-2-(methylthio)-", "5-Bromo-4-chloro-6-methyl-2-(methylthio)pyrimidine", "NSC 97847"], "SMILES": "S(C)C=1N=C(C)C(Br)=C(Cl)N1", "physical_data": {"Molecular Weight": "253.55", "Molecular Formula": "C6H6BrClN2S", "Melting Point": "72-73 \u00b0C"}}