{"cas_no": "1711-09-7", "cn_name": "3-\u6eb4\u82ef\u7532\u9170\u6c2f", "en_name": ["3-Bromobenzoyl chloride", "Benzoyl chloride, 3-bromo-", "Benzoyl chloride, m-bromo-", "3-Bromobenzoyl chloride", "m-Bromobenzoyl chloride", "NSC 100315"], "SMILES": "C(Cl)(=O)C1=CC(Br)=CC=C1", "physical_data": {"Molecular Weight": "219.46", "Molecular Formula": "C7H4BrClO", "Boiling Point": "84.5-86.5 \u00b0C @ Press: 3 Torr", "Melting Point": "139.5-141.3 \u00b0C"}}