{"cas_no": "1712-64-7", "cn_name": "\u785d\u9178\u5f02\u4e19\u916f", "en_name": ["Isopropyl nitrate", "Nitric acid, 1-methylethyl ester", "Isopropyl nitrate", "Nitric acid, isopropyl ester", "2-Propyl nitrate", "NSC 88934", "Propan-2-yl nitrate"], "SMILES": "O(C(C)C)N(=O)=O", "physical_data": {"Molecular Weight": "105.09", "Molecular Formula": "C3H7NO3", "Boiling Point": "100 \u00b0C", "Melting Point": "&lt;0 \u00b0C"}}