{"cas_no": "1712-70-5", "cn_name": "\u5bf9\u6c2f\u7532\u57fa\u82ef\u4e59\u70ef", "en_name": ["1-Chloro-4-(1-methylethenyl)benzene", "Benzene, 1-chloro-4-(1-methylethenyl)-", "Styrene, p-chloro-\u03b1-methyl-", "1-Chloro-4-(1-methylethenyl)benzene", "p-Chloro-\u03b1-methylstyrene", "4-Chloro-\u03b1-methylstyrene", "2-(p-Chlorophenyl)propene", "2-(4-Chlorophenyl)propene", "1-Chloro-4-isopropenylbenzene", "p-Chloroisopropenylbenzene", "\u03b1-Methyl-p-chlorostyrene", "2-(4-Chlorophenyl)-1-propene", "\u03b1-Methyl-4-chlorostyrene", "4-Isopropenylphenyl chloride", "1-Chloro-4-(prop-1-en-2-yl)benzene", "4-Isopropenyl-1-chlorobenzene"], "SMILES": "C(C)(=C)C1=CC=C(Cl)C=C1", "physical_data": {"Molecular Weight": "152.62", "Molecular Formula": "C9H9Cl", "Boiling Point": "89 \u00b0C", "Density": "1.0750 g/cm\u00b3 @ Temp: 20 \u00b0C"}}