{"cas_no": "1712-69-2", "cn_name": "1-\u5f02\u4e19\u70ef\u57fa-4-\u7532\u6c27\u57fa\u82ef", "en_name": ["1-Methoxy-4-(1-methylethenyl)benzene", "Benzene, 1-methoxy-4-(1-methylethenyl)-", "Anisole, p-isopropenyl-", "1-Methoxy-4-(1-methylethenyl)benzene", "Pseudoestragole", "ps-Estragole", "2-(p-Methoxyphenyl)propene", "2-(p-Methoxyphenyl)propylene", "p-Methoxy-\u03b1-methylstyrene", "4-Methoxy-\u03b1-methylstyrene", "p-Isopropenylanisole", "\u03b1-Methyl-p-methoxystyrene", "4-Isopropenylphenyl methyl ether", "p-Isopropenylphenyl methyl ether", "2-(p-Anisyl)propene", "\u03c8-Estragole", "2-(4-Methoxyphenyl)propene", "NSC 89344", "4-Isopropenyl-1-methoxybenzene", "4-(1-Propen-2-yl)anisole", "1-Methoxy-4-(prop-1-en-2-yl)benzene", "4-Isopropenylanisole", "1-Isopropenyl-4-methoxybenzene"], "SMILES": "C(C)(=C)C1=CC=C(OC)C=C1", "physical_data": {"Molecular Weight": "148.20", "Molecular Formula": "C10H12O", "Boiling Point": "120 \u00b0C @ Press: 12 Torr", "Melting Point": "32 \u00b0C"}}