{"cas_no": "171228-49-2", "cn_name": "\u6cca\u6c99\u5eb7\u5511", "en_name": ["Posaconazole", "D-threo-Pentitol, 2,5-anhydro-1,3,4-trideoxy-2-C-(2,4-difluorophenyl)-4-[[4-[4-[4-[1-[(1S,2S)-1-ethyl-2-hydroxypropyl]-1,5-dihydro-5-oxo-4H-1,2,4-triazol-4-yl]phenyl]-1-piperazinyl]phenoxy]methyl]-1-(1H-1,2,4-triazol-1-yl)-", "3H-1,2,4-Triazol-3-one, 4-[4-[4-[4-[[5-(2,4-difluorophenyl)tetrahydro-5-(1H-1,2,4-triazol-1-ylmethyl)-3-furanyl]methoxy]phenyl]-1-piperazinyl]phenyl]-2-(1-ethyl-2-hydroxypropyl)-2,4-dihydro-, [3R-[3\u03b1(1S*,2S*),5\u03b1]]-", "2,5-Anhydro-1,3,4-trideoxy-2-C-(2,4-difluorophenyl)-4-[[4-[4-[4-[1-[(1S,2S)-1-ethyl-2-hydroxypropyl]-1,5-dihydro-5-oxo-4H-1,2,4-triazol-4-yl]phenyl]-1-piperazinyl]phenoxy]methyl]-1-(1H-1,2,4-triazol-1-yl)-D-threo-pentitol", "Sch 56592", "Posaconazole", "Noxafil", "Posaconazole SP"], "SMILES": "C(C1(CC(COC2=CC=C(C=C2)N3CCN(CC3)C4=CC=C(C=C4)N5C(=O)N(C(C(C)O)CC)N=C5)CO1)C6=C(F)C=C(F)C=C6)N7C=NC=N7", "physical_data": {"Molecular Weight": "700.78", "Molecular Formula": "C37H42F2N8O4", "Melting Point": "164-165 \u00b0C"}}