{"cas_no": "17138-28-2", "cn_name": "\u5bf9\u7f9f\u57fa\u82ef\u4e59\u9178\u4e59\u916f", "en_name": ["Ethyl 4-hydroxyphenylacetate", "Benzeneacetic acid, 4-hydroxy-, ethyl ester", "Acetic acid, (p-hydroxyphenyl)-, ethyl ester", "Ethyl 4-hydroxyphenylacetate", "Ethyl (p-hydroxyphenyl)acetate", "Ethyl 2-(4-hydroxyphenyl)acetate", "(4-Hydroxyphenyl)acetic acid ethyl ester", "Ethyl 2-(p-hydroxyphenyl)acetate", "2-(4-Hydroxyphenyl)acetic acid ethyl ester"], "SMILES": "C(C(OCC)=O)C1=CC=C(O)C=C1", "physical_data": {"Molecular Weight": "180.20", "Molecular Formula": "C10H12O3", "Boiling Point": "155-157 \u00b0C @ Press: 1.5 Torr", "Melting Point": "37 \u00b0C"}}