{"cas_no": "17136-36-6", "cn_name": "N-\u82c4\u57fa\u7518\u6c28\u9178", "en_name": ["N-(Phenylmethyl)glycine", "Glycine, N-(phenylmethyl)-", "Glycine, N-benzyl-", "N-(Phenylmethyl)glycine", "N-Benzylglycine", "(N-Benzylamino)acetic acid", "NSC 166840", "(Benzylamino)acetic acid", "2-(Benzylamino)acetic acid"], "SMILES": "C(NCC(O)=O)C1=CC=CC=C1", "physical_data": {"Molecular Weight": "165.19", "Molecular Formula": "C9H11NO2", "Melting Point": "198-200 \u00b0C"}}