{"cas_no": "171364-80-0", "cn_name": "4-\u7532\u6c27\u7532\u9170\u82ef\u787c\u9178\u9891\u54ea\u9187\u916f", "en_name": ["Methyl 4-(4,4,5,5-tetramethyl-1,3,2-dioxaborolan-2-yl)benzoate", "Benzoic acid, 4-(4,4,5,5-tetramethyl-1,3,2-dioxaborolan-2-yl)-, methyl ester", "2-(4-Carbomethoxyphenyl)-4,4,5,5-tetramethyl-1,3,2-dioxaborolane", "4-(4,4,5,5-Tetramethyl-[1,3,2]dioxaborolan-2-yl)benzoic acid methyl ester", "Methyl 4-(4,4,5,5-tetramethyl-1,3,2-dioxaborolan-2-yl)benzoate", "2-(4-Methoxycarbonylphenyl)-4,4,5,5-tetramethyl-1,3,2-dioxaborolane", "4-Methoxycarbonylphenylboronic acid pinacol ester"], "SMILES": "CC1(C)OB(OC1(C)C)C2=CC=C(C(OC)=O)C=C2", "physical_data": {"Molecular Weight": "262.11", "Molecular Formula": "C14H19BO4", "Melting Point": "79-80.5 \u00b0C"}}