{"cas_no": "171364-79-7", "cn_name": "4-\u7532\u6c27\u57fa\u82ef\u787c\u9178\u9891\u90a3\u9187\u916f", "en_name": ["2-(4-Methoxyphenyl)-4,4,5,5-tetramethyl-1,3,2-dioxaborolane", "1,3,2-Dioxaborolane, 2-(4-methoxyphenyl)-4,4,5,5-tetramethyl-", "2-(4-Methoxyphenyl)-4,4,5,5-tetramethyl-1,3,2-dioxaborolane", "p-(Pinacolboryl)anisole", "4,4,5,5-Tetramethyl-2-(4-methoxyphenyl)-1,3,2-dioxaborolane", "4-Methoxyphenylboronic acid pinacol ester", "4-(4,4,5,5-Tetramethyl-1,3,2-dioxaborolan-2-yl)anisole", "4-Methoxyphenyl(pinacolato)borane", "4-(4,4,5,5-Tetramethyl-1,3,2-dioxaborolan-2-yl)-1-methoxybenzene"], "SMILES": "CC1(C)OB(OC1(C)C)C2=CC=C(OC)C=C2", "physical_data": {"Molecular Weight": "234.10", "Molecular Formula": "C13H19BO3", "Melting Point": "26-28 \u00b0C"}}