{"cas_no": "171364-86-6", "cn_name": "\u82ef\u5e76{B}\u567b\u5429-3-\u787c\u9178\u9891\u54ea\u916f", "en_name": ["2-(Benzo[b]thiophen-3-yl)-4,4,5,5-tetramethyl-[1,3,2]dioxaborolane", "Benzo[b]thiophene, 3-(4,4,5,5-tetramethyl-1,3,2-dioxaborolan-2-yl)-", "3-(4,4,5,5-Tetramethyl-1,3,2-dioxaborolan-2-yl)benzo[b]thiophene", "2-(Benzo[b]thiophen-3-yl)-4,4,5,5-tetramethyl-[1,3,2]dioxaborolane", "4,4,5,5-Tetramethyl-2-benzo[b]thiophen-3-yl-[1,3,2]dioxaborolane", "3-(4,4,5,5-Tetramethyl-1,3,2-dioxaborolan-2-yl)benzothiophene", "2-(1-Benzothiophen-3-yl)-4,4,5,5-tetramethyl-1,3,2-dioxaborolane"], "SMILES": "CC1(C)OB(C=2C=3C(SC2)=CC=CC3)OC1(C)C", "physical_data": {"Molecular Weight": "260.16", "Molecular Formula": "C14H17BO2S", "Melting Point": "65-66 \u00b0C"}}