{"cas_no": "1713-15-1", "cn_name": "2,4-\u6ef4\u5f02\u4e01\u916f", "en_name": ["2,4-D Isobutyl ester", "Acetic acid, 2-(2,4-dichlorophenoxy)-, 2-methylpropyl ester", "Acetic acid, (2,4-dichlorophenoxy)-, isobutyl ester", "Acetic acid, (2,4-dichlorophenoxy)-, 2-methylpropyl ester", "Isobutyl 2,4-dichlorophenoxyacetate", "2,4-Dichlorophenoxyacetic acid isobutyl ester", "Isobutyl 2,4-D", "2,4-D Isobutyl ester", "NSC 409768"], "SMILES": "O(CC(OCC(C)C)=O)C1=C(Cl)C=C(Cl)C=C1", "physical_data": {"Molecular Weight": "277.14", "Molecular Formula": "C12H14Cl2O3", "Boiling Point": "133-134 \u00b0C @ Press: 1 Torr"}}