{"cas_no": "1713-85-5", "cn_name": "\u6c2f\u4e73\u9178", "en_name": ["Chlorolactic acid", "Propanoic acid, 3-chloro-2-hydroxy-", "Lactic acid, 3-chloro-", "3-Chloro-2-hydroxypropanoic acid", "\u03b2-Chlorolactic acid", "3-Chloro-2-hydroxypropionic acid", "3-Chlorolactic acid", "2-Hydroxy-3-chloropropionic acid", "Chlorolactic acid", "Propionic acid, 3-chloro-2-hydroxy-", "DL-\u03b2-Chlorolactic acid", "DL-3-Chlorolactic acid", "(\u00b1)-3-Chloro-2-hydroxypropanoic acid", "(\u00b1)-3-Chlorolactic acid", "Beta-chlorolactic acid"], "SMILES": "C(C(O)=O)(CCl)O", "physical_data": {"Molecular Weight": "124.52", "Molecular Formula": "C3H5ClO3", "Melting Point": "77 \u00b0C"}}