{"cas_no": "171364-82-2", "cn_name": "4-(4,4,5,5-\u56db\u7532\u57fa-1,3,2-\u4e8c\u6076\u787c)\u82ef\u7532\u8148", "en_name": ["4-(4,4,5,5-Tetramethyl-1,3,2-dioxaborolan-2-yl)benzonitrile", "Benzonitrile, 4-(4,4,5,5-tetramethyl-1,3,2-dioxaborolan-2-yl)-", "4-(4,4,5,5-Tetramethyl-1,3,2-dioxaborolan-2-yl)benzonitrile", "2-(4-Cyanophenyl)-4,4,5,5-tetramethyl-1,3,2-dioxaborolane", "4,4,5,5-Tetramethyl-2-(4-cyanophenyl)-1,3,2-dioxaborolane", "4-(Cyanophenyl)boronic acid pinacol ester", "1,1,2,2-Tetramethyldimethylene (4-cyanophenyl)boronate"], "SMILES": "CC1(C)OB(OC1(C)C)C2=CC=C(C#N)C=C2", "physical_data": {"Molecular Weight": "229.08", "Molecular Formula": "C13H16BNO2", "Melting Point": "94-95 \u00b0C"}}