{"cas_no": "17135-78-3", "cn_name": "2-\u6c2f\u84bd", "en_name": ["2-Chloroanthracene", "Anthracene, 2-chloro-", "2-Chloroanthracene", "NSC 408454", "2-Chloroanthrancene"], "SMILES": "ClC1=CC2=C(C=C3C(=C2)C=CC=C3)C=C1", "physical_data": {"Molecular Weight": "212.67", "Molecular Formula": "C14H9Cl", "Melting Point": "217-218 \u00b0C"}}