{"cas_no": "17146-08-6", "cn_name": "1\uff0c1\uff0c3\uff0c5\uff0c5-\u4e94\u82ef\u57fa-1\uff0c3\uff0c5-\u4e09\u7532\u57fa\u7845\u6c27\u70f7", "en_name": ["[2-(Chlorodimethylsilyl)ethyl]benzene", "Benzene, [2-(chlorodimethylsilyl)ethyl]-", "Silane, chlorodimethylphenethyl-", "Silane, chlorodimethyl(2-phenylethyl)-", "[2-(Chlorodimethylsilyl)ethyl]benzene", "Chlorodimethylphenethylsilane", "2-Phenylethylchlorodimethylsilane", "Phenethyldimethylsilyl chloride"], "SMILES": "C(C[Si](C)(C)Cl)C1=CC=CC=C1", "physical_data": {"Molecular Weight": "198.76", "Molecular Formula": "C10H15ClSi", "Boiling Point": "56 \u00b0C @ Press: 0.2 Torr", "Density": "0.999 g/cm\u00b3"}}