{"cas_no": "17146-09-7", "cn_name": "3-\u82ef\u4e19\u57fa\u4e8c\u7532\u57fa\u6c2f\u7845\u70f7", "en_name": ["(3-Phenylpropyl)dimethylchlorosilane", "Benzene, [3-(chlorodimethylsilyl)propyl]-", "Silane, chlorodimethyl(3-phenylpropyl)-", "[3-(Chlorodimethylsilyl)propyl]benzene", "3-(Phenylpropyl)chlorodimethylsilane", "(3-Phenylpropyl)dimethylchlorosilane"], "SMILES": "C(CC[Si](C)(C)Cl)C1=CC=CC=C1", "physical_data": {"Molecular Weight": "212.79", "Molecular Formula": "C11H17ClSi", "Boiling Point": "75 \u00b0C @ Press: 0.5 Torr", "Density": "0.963 g/cm\u00b3"}}