{"cas_no": "171408-76-7", "cn_name": "2-\u6eb4-9,9'-\u87ba\u4e8c\u82b4", "en_name": ["2-Bromo-9,9\u2032-spirobi[9H-fluorene]", "9,9\u2032-Spirobi[9H-fluorene], 2-bromo-", "2-Bromo-9,9\u2032-spirobi[9H-fluorene]", "2-Bromo-9-spirobifluorene", "2-Bromospirobifluorene", "2-Bromo-9,9\u2032-spirobi[fluorene]", "2-Bromospiro[fluorene-9,9\u2032-fluorene]", "2-Bromo-9,9\u2032-spirobi(9H-fluorene)"], "SMILES": "BrC=1C=C2C3(C=4C(C2=CC1)=CC=CC4)C=5C(C=6C3=CC=CC6)=CC=CC5", "physical_data": {"Molecular Weight": "395.29", "Molecular Formula": "C25H15Br", "Melting Point": "181-183 \u00b0C"}}