{"cas_no": "17141-63-8", "cn_name": "\u516d\u6c34\u785d\u9178\u9530", "en_name": ["Manganese dinitrate hexahydrate", "Nitric acid, manganese(2+) salt, hexahydrate", "Manganese dinitrate hexahydrate", "Manganese nitrate (Mn(NO3)2) hexahydrate", "Manganese(II) nitrate hexahydrate", "Manganous nitrate hexahydrate"], "SMILES": "N(=O)(=O)O.[Mn].O", "physical_data": {"Molecular Weight": "", "Molecular Formula": "H2O.<sup>1</sup>/3HNO3.<sup>1</sup>/6Mn", "Melting Point": "26 \u00b0C"}}