{"cas_no": "17159-80-7", "cn_name": "4-\u7f9f\u57fa\u73af\u5df1\u70f7\u7532\u9178\u4e59\u916f", "en_name": ["Ethyl 4-hydroxycyclohexanecarboxylate", "Cyclohexanecarboxylic acid, 4-hydroxy-, ethyl ester", "Ethyl 4-hydroxycyclohexanecarboxylate", "4-Hydroxycyclohexanecarboxylic acid ethyl ester", "Ethyl 4-hydroxycyclohexylcarboxylate", "4-Hydroxycyclohexane-1-carboxylic acid ethyl ester", "Ethyl 4-hydroxycyclohexane-1-carboxylate"], "SMILES": "C(OCC)(=O)C1CCC(O)CC1", "physical_data": {"Molecular Weight": "172.22", "Molecular Formula": "C9H16O3", "Boiling Point": "136 \u00b0C @ Press: 8 Torr", "Density": "1.0667 g/cm\u00b3 @ Temp: 20 \u00b0C"}}