{"cas_no": "17156-65-9", "cn_name": "\u4e59\u7094\u57fa\u4e8c\u82ef\u57fa\u7532\u57fa\u7845\u70f7", "en_name": ["1,1\u2032-(Ethynylmethylsilylene)bis[benzene]", "Benzene, 1,1\u2032-(ethynylmethylsilylene)bis-", "Silane, ethynylmethyldiphenyl-", "1,1\u2032-(Ethynylmethylsilylene)bis[benzene]", "Methyldiphenylsilylacetylene", "Ethynyl(methyl)diphenylsilane"], "SMILES": "[Si](C#C)(C)(C1=CC=CC=C1)C2=CC=CC=C2", "physical_data": {"Molecular Weight": "222.36", "Molecular Formula": "C15H14Si", "Boiling Point": "86 \u00b0C @ Press: 0.5 Torr", "Density": "1.01 g/cm\u00b3"}}