{"cas_no": "17159-79-4", "cn_name": "\u5bf9\u73af\u5df1\u916e\u7532\u9178\u4e59\u916f", "en_name": ["Ethyl 4-oxocyclohexanecarboxylate", "Cyclohexanecarboxylic acid, 4-oxo-, ethyl ester", "4-Ethoxycarbonylcyclohexanone", "Ethyl cyclohexanone 4-carboxylate", "4-Carboethoxycyclohexanone", "Ethyl 4-oxocyclohexanecarboxylate", "4-(Ethoxycarbonyl)-1-cyclohexanone", "4-Oxocyclohexane-1-carboxylic acid ethyl ester", "NSC 250674", "4-Oxocyclohexanecarboxylic acid ethyl ester", "4-Cyclohexanonecarboxylic acid ethyl ester", "Ethyl 4-ketocyclohexylcarboxylate", "Ethyl 4-oxocyclohexane-1-carboxylate", "Ethyl 4-oxocyclohexan-1-carboxylate"], "SMILES": "C(OCC)(=O)C1CCC(=O)CC1", "physical_data": {"Molecular Weight": "170.21", "Molecular Formula": "C9H14O3", "Boiling Point": "150 \u00b0C @ Press: 20 Torr", "Melting Point": "221-226 \u00b0C"}}