{"cas_no": "17153-21-8", "cn_name": "3-\u7532\u57fa-5-\u82ef\u57fa-4-\u5f02\u6076\u5511\u7532\u9178", "en_name": ["3-Methyl-5-phenylisoxazole-4-carboxylic acid", "4-Isoxazolecarboxylic acid, 3-methyl-5-phenyl-", "3-Methyl-5-phenyl-4-isoxazolecarboxylic acid", "3-Methyl-5-phenylisoxazole-4-carboxylic acid", "3-Methyl-5-phenyl-1,2-oxazole-4-carboxylic acid"], "SMILES": "C(O)(=O)C1=C(ON=C1C)C2=CC=CC=C2", "physical_data": {"Molecular Weight": "203.19", "Molecular Formula": "C11H9NO3", "Melting Point": "49-50 \u00b0C"}}