{"cas_no": "171596-43-3", "cn_name": "\u4ed6\u8fbe\u62c9\u975e\u76f8\u5173\u6742\u8d286", "en_name": ["Methyl (1S,3S)-1-(1,3-benzodioxol-5-yl)-2,3,4,9-tetrahydro-1H-pyrido[3,4-b]indole-3-carboxylate", "1H-Pyrido[3,4-b]indole-3-carboxylic acid, 1-(1,3-benzodioxol-5-yl)-2,3,4,9-tetrahydro-, methyl ester, (1S,3S)-", "1H-Pyrido[3,4-b]indole-3-carboxylic acid, 1-(1,3-benzodioxol-5-yl)-2,3,4,9-tetrahydro-, methyl ester, (1S-cis)-", "Methyl (1S,3S)-1-(1,3-benzodioxol-5-yl)-2,3,4,9-tetrahydro-1H-pyrido[3,4-b]indole-3-carboxylate", "(1S,3S)-Methyl 1-(benzo[d][1,3]dioxol-5-yl)-2,3,4,9-tetrahydro-1H-pyrido[3,4-b]indole-3-carboxylate"], "SMILES": "C(OC)(=O)C1CC2=C(C(N1)C=3C=C4C(=CC3)OCO4)NC=5C2=CC=CC5", "physical_data": {"Molecular Weight": "350.37", "Molecular Formula": "C20H18N2O4", "Melting Point": "187-189 \u00b0C"}}