{"cas_no": "171596-29-5", "cn_name": "\u897f\u529b\u58eb", "en_name": ["Tadalafil", "Pyrazino[1\u2032,2\u2032:1,6]pyrido[3,4-b]indole-1,4-dione, 6-(1,3-benzodioxol-5-yl)-2,3,6,7,12,12a-hexahydro-2-methyl-, (6R,12aR)-", "Pyrazino[1\u2032,2\u2032:1,6]pyrido[3,4-b]indole-1,4-dione, 6-(1,3-benzodioxol-5-yl)-2,3,6,7,12,12a-hexahydro-2-methyl-, (6R-trans)-", "(6R,12aR)-6-(1,3-Benzodioxol-5-yl)-2,3,6,7,12,12a-hexahydro-2-methylpyrazino[1\u2032,2\u2032:1,6]pyrido[3,4-b]indole-1,4-dione", "Cialis", "ICOS 351", "IC 351", "GF 196960", "Tadalafil", "(6R,12aR)-2,3,6,7,12,12a-hexahydro-2-methyl-6-(3,4-methylenedioxyphenyl)pyrazino[1\u2032,2\u2032:1,6]pyrido[3,4-b]indole-1,4-dione", "UK 336017", "Tildenafil", "Adcirca", "Tardenafil", "Zydalis", "Tadfil", "Tadora", "Lifta", "Pentadafil", "Talmanco", "Tadalafil Lilly"], "SMILES": "O=C1N2C(C3=C(C=4C(N3)=CC=CC4)CC2C(=O)N(C)C1)C=5C=C6C(=CC5)OCO6", "physical_data": {"Molecular Weight": "389.40", "Molecular Formula": "C22H19N3O4", "Melting Point": "301-303 \u00b0C"}}