{"cas_no": "171596-41-1", "cn_name": "\u4ed6\u8fbe\u90a3\u975e\u4e2d\u95f4\u4f53", "en_name": ["Methyl (1R,3R)-1-(1,3-benzodioxol-5-yl)-2,3,4,9-tetrahydro-1H-pyrido[3,4-b]indole-3-carboxylate", "1H-Pyrido[3,4-b]indole-3-carboxylic acid, 1-(1,3-benzodioxol-5-yl)-2,3,4,9-tetrahydro-, methyl ester, (1R,3R)-", "1H-Pyrido[3,4-b]indole-3-carboxylic acid, 1-(1,3-benzodioxol-5-yl)-2,3,4,9-tetrahydro-, methyl ester, (1R-cis)-", "Methyl (1R,3R)-1-(1,3-benzodioxol-5-yl)-2,3,4,9-tetrahydro-1H-pyrido[3,4-b]indole-3-carboxylate", "Methyl (1R,3R)-1-(1,3-benzodioxol-5-yl)-2,3,4,9-tetrahydro-1H-pyrido[3,4-b]indole-3-carboxylate"], "SMILES": "C(OC)(=O)C1CC2=C(C(N1)C=3C=C4C(=CC3)OCO4)NC=5C2=CC=CC5", "physical_data": {"Molecular Weight": "350.37", "Molecular Formula": "C20H18N2O4", "Melting Point": "154-155 \u00b0C"}}