{"cas_no": "1716-42-3", "cn_name": "1-(3-\u6c2f\u4e19\u6c27\u57fa)-4-\u6c1f\u82ef", "en_name": ["1-(3-Chloropropoxy)-4-fluorobenzene", "Benzene, 1-(3-chloropropoxy)-4-fluoro-", "Ether, 3-chloropropyl p-fluorophenyl", "1-(3-Chloropropoxy)-4-fluorobenzene", "1-Chloro-3-(p-fluorophenoxy)propane", "1-Chloro-3-(4-fluorophenoxy)propane", "3-(p-Fluorophenoxy)propyl chloride", "3-Chloropropyl 4-fluorophenyl ether", "4-(3-Chloropropoxy)-1-fluorobenzene", "3-(4-Fluorophenoxy)propyl chloride"], "SMILES": "O(CCCCl)C1=CC=C(F)C=C1", "physical_data": {"Molecular Weight": "188.63", "Molecular Formula": "C9H10ClFO", "Boiling Point": "130-133 \u00b0C @ Press: 15 Torr", "Density": "1.2519 g/cm\u00b3 @ Temp: 20 \u00b0C"}}