{"cas_no": "1716-07-0", "cn_name": "1,3-\u4e8c(\u5341\u516b\u70f7-9-\u70ef\u9178)-2-\u5341\u516d\u70f7\u9178\u4e19\u4e09\u9187\u916f", "en_name": ["Triglyceride OPO", "9-Octadecenoic acid (9Z)-, 1,1\u2032-[2-[(1-oxohexadecyl)oxy]-1,3-propanediyl] ester", "Olein, 2-palmito-1,3-di-", "9-Octadecenoic acid (Z)-, 2-[(1-oxohexadecyl)oxy]-1,3-propanediyl ester", "9-Octadecenoic acid (9Z)-, 2-[(1-oxohexadecyl)oxy]-1,3-propanediyl ester", "Palmitin, 1,3-dioleo-2-", "Glyceryl 2-palmitate-1,3-dioleate", "1,3-Dioleoyl-2-palmitoylglycerol", "1-Oleo-2-palmito-3-olein", "2-Palmito-1,3-diolein", "2-Palmityl-1,3-diolein", "Glyceryl 1,3-dioleate 2-palmitate", "Triglyceride OPO,sn", "1,3-Di-(9Z-octadecenoyl)-2-hexadecanoyl-sn-glycerol", "Triglyceride OPO", "Glycerol dioleate monopalmitate", "1,3-Dioleyl-2-palmitoylglycerol"], "SMILES": "C(COC(CCCCCCCC=CCCCCCCCC)=O)(COC(CCCCCCCC=CCCCCCCCC)=O)OC(CCCCCCCCCCCCCCC)=O", "physical_data": {"Molecular Weight": "859.39", "Molecular Formula": "C55H102O6", "Melting Point": "19 \u00b0C", "Density": "0.9046 g/cm\u00b3 @ Temp: 20 \u00b0C"}}