{"cas_no": "171611-11-3", "cn_name": "\u53cc\u6c1f\u78fa\u9170\u4e9a\u80fa\u9502\u76d0", "en_name": ["Lithium bis(fluorosulfonyl)imide", "Imidodisulfuryl fluoride, lithium salt (1:1)", "Imidodisulfuryl fluoride, lithium salt", "Lithium bis(fluorosulfonyl)imide", "LiFSI", "Ionel LF 101", "Li(FSO2)2N", "Lithium bis(fluorosulfonyl)amide", "Lithium fluorosulfite nitride (Li(SO2F)2N)"], "SMILES": "N(S(F)(=O)=O)S(F)(=O)=O.[Li]", "physical_data": {"Molecular Weight": "", "Molecular Formula": "F2HNO4S2.Li", "Melting Point": "124-128 \u00b0C"}}