{"cas_no": "17178-10-8", "cn_name": "\u5bf9\u7532\u82ef\u78fa\u91782-\u7532\u6c27\u57fa\u4e59\u916f", "en_name": ["2-Methoxyethyl p-toluenesulfonate", "Ethanol, 2-methoxy-, 1-(4-methylbenzenesulfonate)", "Ethanol, 2-methoxy-, p-toluenesulfonate", "Ethanol, 2-methoxy-, 4-methylbenzenesulfonate", "p-Toluenesulfonic acid \u03b2-methoxyethyl ester", "2-Methoxyethyl p-toluenesulfonate", "\u03b2-Methoxyethyl p-toluenesulfonate", "2-Methoxyethyl tosylate", "2-Methoxyethanol tosylate", "3-Oxabutyl tosylate", "p-Toluenesulfonic acid 2-methoxyethyl ester", "2-Methoxyethyl toluenesulfonate", "Ethylene glycol methyl ether tosylate", "2-Methoxyethyl p-tolylsulfonyloxy ester", "2-Methoxyethyl 4-methylbenzenesulfonate", "4-Toluenesulfonic acid 2-methoxyethyl ester"], "SMILES": "S(OCCOC)(=O)(=O)C1=CC=C(C)C=C1", "physical_data": {"Molecular Weight": "230.28", "Molecular Formula": "C10H14O4S", "Boiling Point": "110-117 \u00b0C @ Press: 0.075 Torr"}}