{"cas_no": "1717-50-6", "cn_name": "\u56db\u6c1f-1,3-\u4e8c\u786b\u4e94\u6c2e\u6742\u73af", "en_name": ["2,2,4,4-Tetrafluoro-1,3-dithietane", "1,3-Dithietane, 2,2,4,4-tetrafluoro-", "1,3-Dithietane, tetrafluoro-", "2,2,4,4-Tetrafluoro-1,3-dithietane", "Tetrafluoro-1,3-dithietane", "NSC 339329"], "SMILES": "FC1(F)SC(F)(F)S1", "physical_data": {"Molecular Weight": "164.15", "Molecular Formula": "C2F4S2", "Boiling Point": "47-48 \u00b0C", "Melting Point": "-6 \u00b0C", "Density": "1.6036 g/cm\u00b3 @ Temp: 20 \u00b0C"}}