{"cas_no": "17178-11-9", "cn_name": "2-ETHOXYETHYL P-TOLUENESULFONATE", "en_name": ["Ethanol, 2-ethoxy-, 1-(4-methylbenzenesulfonate)", "Ethanol, 2-ethoxy-, 1-(4-methylbenzenesulfonate)", "Ethanol, 2-ethoxy-, p-toluenesulfonate", "Ethanol, 2-ethoxy-, 4-methylbenzenesulfonate", "p-Toluenesulfonic acid \u03b2-ethoxyethyl ester", "Ethoxyethyl p-toluenesulfonate", "2-Ethoxyethyl p-toluenesulfonate", "2-Ethoxyethyl 4-toluenesulfonate", "2-Ethoxyethyl tosylate", "\u03b2-Ethoxyethyl p-toluenesulfonate", "Toluene-4-sulfonic acid 2-ethoxyethyl ester", "2-Ethoxyethyl 4-methylbenzenesulfonate"], "SMILES": "S(OCCOCC)(=O)(=O)C1=CC=C(C)C=C1", "physical_data": {"Molecular Weight": "244.31", "Molecular Formula": "C11H16O4S", "Boiling Point": "107 \u00b0C @ Press: 0.075 Torr"}}