{"cas_no": "1717-00-6", "cn_name": "1-\u6c1f-1,1-\u4e8c\u6c2f\u4e59\u70f7", "en_name": ["1,1-Dichloro-1-fluoroethane", "Ethane, 1,1-dichloro-1-fluoro-", "1,1-Dichloro-1-fluoroethane", "1-Fluoro-1,1-dichloroethane", "Refrigerant 141b", "R 141b", "HCFC 141b", "Dichlorofluoroethane", "CFC 141b", "Isotron 141b", "HFA 141b", "Fron 141b", "Solkane 141b", "F 141b", "Daiflon 141b", "CG 141b", "Forane 141b", "Genetron 141b", "Forane DGX", "Genesolv 2000", "Asahiklin AK 141b", "Khladon 141b", "RC 14", "141B", "HFC 141b"], "SMILES": "C(C)(Cl)(Cl)F", "physical_data": {"Molecular Weight": "116.95", "Molecular Formula": "C2H3Cl2F", "Boiling Point": "32 \u00b0C", "Melting Point": "-103.5 \u00b0C", "Density": "1.250 g/cm\u00b3 @ Temp: 10 \u00b0C"}}