{"cas_no": "17176-77-1", "cn_name": "\u4e9a\u78f7\u9178\u4e8c\u82c4\u916f", "en_name": ["Dibenzyl phosphite", "Phosphonic acid, bis(phenylmethyl) ester", "Phosphonic acid, dibenzyl ester", "Benzyl phosphonate ((C7H7O)2HPO)", "Dibenzyl hydrogen phosphite", "Dibenzyl phosphite", "Dibenzyl phosphonate"], "SMILES": "C(OP(OCC1=CC=CC=C1)=O)C2=CC=CC=C2", "physical_data": {"Molecular Weight": "262.24", "Molecular Formula": "C14H15O3P", "Boiling Point": "162 \u00b0C", "Melting Point": "-5 \u00b0C"}}