{"cas_no": "17174-98-0", "cn_name": "2-\u6c30\u57fa\u82ef\u7532\u9170\u80fa", "en_name": ["2-Cyanobenzamide", "Benzamide, 2-cyano-", "Benzamide, o-cyano-", "2-Cyanobenzamide", "o-Cyanobenzamide", "NSC 28289"], "SMILES": "C(#N)C1=C(C(N)=O)C=CC=C1", "physical_data": {"Molecular Weight": "146.15", "Molecular Formula": "C8H6N2O", "Melting Point": "143-145 \u00b0C"}}