{"cas_no": "1718-52-1", "cn_name": "\u6c18\u4ee3\u8298", "en_name": ["Pyrene-d10", "Pyrene-1,2,3,4,5,6,7,8,9,10-d10", "Pyrene-d10", "[2H10]Pyrene", "Perdeuteriopyrene", "[10-2H]Pyrene"], "SMILES": "C12=C3C4=CC=C1C=CC=C2C(=CC3=CC=C4)[2H]", "physical_data": {"Molecular Weight": "", "Molecular Formula": "C16D10", "Melting Point": "148-149 \u00b0C"}}