{"cas_no": "1718-39-4", "cn_name": "4-\u786b\u8132\u57fa-\u82ef\u78fa\u9170\u80fa", "en_name": ["4-[(Aminothioxomethyl)amino]benzenesulfonamide", "Benzenesulfonamide, 4-[(aminothioxomethyl)amino]-", "Urea, 1-(p-sulfamoylphenyl)-2-thio-", "4-[(Aminothioxomethyl)amino]benzenesulfonamide", "(p-Sulfamoylphenyl)thiourea", "(4-Sulfamoylphenyl)thiourea", "N-(4-Sulfonamidophenyl)thiourea"], "SMILES": "S(N)(=O)(=O)C1=CC=C(NC(N)=S)C=C1", "physical_data": {"Molecular Weight": "231.30", "Molecular Formula": "C7H9N3O2S2", "Melting Point": "209 \u00b0C"}}