{"cas_no": "17184-21-3", "cn_name": "\u8473\u5ca9\u4ed9\u7682\u82f7 A", "en_name": ["Cauloside A", "Olean-12-en-28-oic acid, 3-(\u03b1-L-arabinopyranosyloxy)-23-hydroxy-, (3\u03b2,4\u03b1)-", "Leontoside A", "(3\u03b2,4\u03b1)-3-(\u03b1-L-Arabinopyranosyloxy)-23-hydroxyolean-12-en-28-oic acid", "Scabioside A (Patrinia)", "\u03b22-Fatsin", "Cauloside A", "3-O-[\u03b1-L-Arabinopyranosyl]hederagenin", "Prosapogenin CP1", "Hederagenin 3-O-\u03b1-L-arabinopyranoside", "Fatsiaside B1", "Kizuta saponin K3", "Polypetaloside B", "Nepalin 1", "Tauroside B", "Hederoside A3", "Saponin K3", "Akeboside Stb", "\u03b4-Hederin", "Glycoside L-B2", "Scabioside A", "Akebia saponin PA", "3\u03b2-(\u03b1-L-Arabinopyranosyloxy)-23-hydroxyolean-12-en-28-oic acid", "Koelreuteria saponin A"], "SMILES": "CC12C(C3(C)C(CC1)C(CO)(C)C(OC4C(O)C(O)C(O)CO4)CC3)CC=C5C2(C)CCC6(C(O)=O)C5CC(C)(C)CC6", "physical_data": {"Molecular Weight": "604.81", "Molecular Formula": "C35H56O8", "Melting Point": "276-278 \u00b0C"}}