{"cas_no": "17180-94-8", "cn_name": "5-\u6c2f\u5627\u5576", "en_name": ["5-Chloropyrimidine", "Pyrimidine, 5-chloro-", "5-Chloropyrimidine"], "SMILES": "ClC=1C=NC=NC1", "physical_data": {"Molecular Weight": "114.53", "Molecular Formula": "C4H3ClN2", "Melting Point": "36.5 \u00b0C"}}