{"cas_no": "17180-93-7", "cn_name": "4-\u6c2f\u5627\u5576", "en_name": ["4-Chloropyrimidine", "Pyrimidine, 4-chloro-", "4-Chloropyrimidine"], "SMILES": "ClC=1C=CN=CN1", "physical_data": {"Molecular Weight": "114.53", "Molecular Formula": "C4H3ClN2", "Melting Point": "160-170 \u00b0C (decomp)"}}