{"cas_no": "1719-76-2", "cn_name": "1-\u5f02\u4e19\u57fa-2-\u786b\u8132", "en_name": ["N-(1-Methylethyl)thiourea", "Thiourea, N-(1-methylethyl)-", "Urea, 1-isopropyl-2-thio-", "Thiourea, (1-methylethyl)-", "N-(1-Methylethyl)thiourea", "Isopropylthiourea", "N-Isopropylthiourea", "1-Isopropylthiourea", "1-Iso-Propyl-2-thiourea", "(Propan-2-yl)thiourea"], "SMILES": "N(C(C)C)C(N)=S", "physical_data": {"Molecular Weight": "118.20", "Molecular Formula": "C4H10N2S", "Melting Point": "169-170 \u00b0C"}}