{"cas_no": "17194-00-2", "cn_name": "\u6c22\u6c27\u5316\u94a1", "en_name": ["Barium hydroxide", "Barium hydroxide (Ba(OH)2)", "Barium hydroxide", "Caustic baryta", "Barium dihydroxide"], "SMILES": "[Ba](O)O", "physical_data": {"Molecular Weight": "", "Molecular Formula": "BaH2O2", "Melting Point": "408 \u00b0C", "Density": "1.025 g/cm\u00b3"}}