{"cas_no": "17196-12-2", "cn_name": "7-\u8f9b\u57fa\u4e8c\u7532\u57fa\u6c2f\u7845\u70f7", "en_name": ["Chlorodimethyl-7-octen-1-ylsilane", "Silane, chlorodimethyl-7-octen-1-yl-", "Silane, chlorodimethyl-7-octenyl-", "Chlorodimethyl-7-octen-1-ylsilane", "7-Octenyldimethylchlorosilane", "Chlorodimethyl-7-octenylsilane", "Chlorodimethyl(7-octen-1-yl)silane", "Dimethyl(oct-7-en-1-yl)(chloro)silane"], "SMILES": "C(CCCCCC=C)[Si](C)(C)Cl", "physical_data": {"Molecular Weight": "204.81", "Molecular Formula": "C10H21ClSi", "Boiling Point": "98 \u00b0C @ Press: 11 Torr", "Density": "0.800 g/cm\u00b3"}}