{"cas_no": "1719-88-6", "cn_name": "3,4,5-\u4e09\u7532\u6c27\u57fa\u82ef\u7532\u9178\u9150", "en_name": ["Benzoic acid, 3,4,5-trimethoxy-, 1,1\u2032-anhydride", "Benzoic acid, 3,4,5-trimethoxy-, 1,1\u2032-anhydride", "Benzoic acid, 3,4,5-trimethoxy-, anhydride", "3,4,5-Trimethoxybenzoic anhydride", "NSC 40557", "(3,4,5-Trimethoxybenzoyl) 3,4,5-trimethoxybenzoate"], "SMILES": "C(OC(=O)C1=CC(OC)=C(OC)C(OC)=C1)(=O)C2=CC(OC)=C(OC)C(OC)=C2", "physical_data": {"Molecular Weight": "406.38", "Molecular Formula": "C20H22O9", "Melting Point": "156 \u00b0C"}}