{"cas_no": "17191-44-5", "cn_name": "N-\u82c4\u6c27\u7fb0\u57fa-1-\u6c28\u57fa-1-\u73af\u620a\u70f7\u7532\u9178", "en_name": ["1-[[(Phenylmethoxy)carbonyl]amino]cyclopentanecarboxylic acid", "Cyclopentanecarboxylic acid, 1-[[(phenylmethoxy)carbonyl]amino]-", "Cyclopentanecarbamic acid, 1-carboxy-, N-benzyl ester", "Cyclopentanecarbamic acid, 1-carboxy-, benzyl ester", "1-[[(Phenylmethoxy)carbonyl]amino]cyclopentanecarboxylic acid", "Carbobenzoxy-1-aminocyclopentane-1-carboxylic acid", "N-Benzyloxycarbonylcycloleucine", "1-[[(Benzyloxy)carbonyl]amino]cyclopentanecarboxylic acid", "1-(Phenylmethoxycarbonylamino)cyclopentane-1-carboxylic acid", "1-[[(Benzyloxy)carbonyl]amino]cyclopentane-1-carboxylic acid"], "SMILES": "N(C(OCC1=CC=CC=C1)=O)C2(C(O)=O)CCCC2", "physical_data": {"Molecular Weight": "263.29", "Molecular Formula": "C14H17NO4", "Melting Point": "95-98 \u00b0C"}}