{"cas_no": "17193-28-1", "cn_name": "\u987a\u5f0f-2-\u6c28\u57fa-1-\u73af\u620a\u7532\u9170\u80fa", "en_name": ["1-Aminocyclopentanecarboxamide", "Cyclopentanecarboxamide, 1-amino-", "1-Aminocyclopentanecarboxamide", "\u03b1-Aminocyclopentanamide", "1-Amino-1-cyclopentanecarboxamide"], "SMILES": "C(N)(=O)C1(N)CCCC1", "physical_data": {"Molecular Weight": "128.17", "Molecular Formula": "C6H12N2O", "Melting Point": "95-96 \u00b0C"}}