{"cas_no": "1719-53-5", "cn_name": "\u4e8c\u6c2f\u4e8c\u4e59\u57fa\u7845\u70f7", "en_name": ["Dichlorodiethylsilane", "Silane, dichlorodiethyl-", "Dichlorodiethylsilane", "Diethyldichlorosilane", "Diethyldichlorosilicon"], "SMILES": "[Si](CC)(CC)(Cl)Cl", "physical_data": {"Molecular Weight": "157.11", "Molecular Formula": "C4H10Cl2Si", "Boiling Point": "130 \u00b0C", "Melting Point": "-96.5 \u00b0C", "Density": "1.0504 g/cm\u00b3 @ Temp: 20 \u00b0C"}}