{"cas_no": "17199-29-0", "cn_name": "\u6241\u6843\u9178", "en_name": ["(S)-Mandelic acid", "Benzeneacetic acid, \u03b1-hydroxy-, (\u03b1S)-", "Mandelic acid, L-(+)-", "Benzeneacetic acid, \u03b1-hydroxy-, (S)-", "(\u03b1S)-\u03b1-Hydroxybenzeneacetic acid", "L-Mandelic acid", "(S)-Mandelic acid", "(+)-Mandelic acid", "(S)-(+)-Mandelic acid", "(+)-(S)-Mandelic acid", "(S)-\u03b1-Hydroxybenzeneacetic acid", "L-(+)-Mandelic acid", "(+)-\u03b1-Hydroxyphenylacetic acid", "(S)-(+)-Hydroxyphenylacetic acid", "(S)-2-Hydroxy-2-(phenyl)ethanoic acid", "(S)-2-Hydroxy-2-phenylacetic acid", "(2S)-2-Hydroxy-2-(phenyl)ethanoic acid", "(S)-\u03b1-Hydroxyphenylacetic acid", "(S)-Amygdalic acid", "(2S)-2-Hydroxy-2-phenylacetic acid"], "SMILES": "C(C(O)=O)(O)C1=CC=CC=C1", "physical_data": {"Molecular Weight": "152.15", "Molecular Formula": "C8H8O3", "Melting Point": "134 \u00b0C"}}