{"cas_no": "1719-83-1", "cn_name": "\u53cc\u73af[2.2.2]\u8f9b-7-\u70ef-2,3,5,6-\u56db\u7fa7\u9178\u4e8c\u9150", "en_name": ["3a,4,4a,7a,8,8a-Hexahydro-4,8-etheno-1H,3H-benzo[1,2-c:4,5-c\u2032]difuran-1,3,5,7-tetrone", "4,8-Etheno-1H,3H-benzo[1,2-c:4,5-c\u2032]difuran-1,3,5,7-tetrone, 3a,4,4a,7a,8,8a-hexahydro-", "Bicyclo[2.2.2]oct-7-ene-2,3,5,6-tetracarboxylic 2,3:5,6-dianhydride", "3a,4,4a,7a,8,8a-Hexahydro-4,8-etheno-1H,3H-benzo[1,2-c:4,5-c\u2032]difuran-1,3,5,7-tetrone", "Bicyclooctenetetracarboxylic dianhydride", "Bicyclo[2.2.2]oct-7-ene-2,3,5,6-tetracarboxylic dianhydride", "Bicyclo[2.2.2]oct-7-ene-2,3,5,6-tetracarboxylic anhydride", "BTA", "Bicyclo[2.2.2]octane-7-ene-2,3,5,6-tetracarboxylic dianhydride", "Bicyclo[2.2.2]oct-7-ene-2,3,5,8-tetracarboxylic dianhydride", "Bicyclic [2.2.2] oct-7-ene-2,3,5,6-tetracarboxylic dianhydride", "B 1317"], "SMILES": "O=C1C2C(C3C4C(C2C=C3)C(=O)OC4=O)C(=O)O1", "physical_data": {"Molecular Weight": "248.19", "Molecular Formula": "C12H8O6", "Melting Point": "345-346 \u00b0C (decomp)"}}