{"cas_no": "1719-57-9", "cn_name": "\u6c2f\u7532\u57fa\u4e8c\u7532\u57fa\u6c2f\u7845\u70f7", "en_name": ["Chloro(chloromethyl)dimethylsilane", "Silane, chloro(chloromethyl)dimethyl-", "Chloro(chloromethyl)dimethylsilane", "Chlorodimethyl(chloromethyl)silane", "(Chloromethyl)dimethylsilyl chloride", "Dimethylchloro(chloromethyl)silane", "(Chloromethyl)chlorodimethylsilane", "(Chloromethyl)dimethylchlorosilane", "Dimethyl(chloromethyl)chlorosilane", "LS 230", "LS 230 (silane)", "SCA-C 1CG"], "SMILES": "[Si](CCl)(C)(C)Cl", "physical_data": {"Molecular Weight": "143.09", "Molecular Formula": "C3H8Cl2Si", "Boiling Point": "115.5 \u00b0C", "Melting Point": "&lt;-75 \u00b0C", "Density": "1.086 g/cm\u00b3"}}