{"cas_no": "1719-58-0", "cn_name": "\u4e8c\u7532\u57fa\u4e59\u70ef\u57fa\u6c2f\u7845\u70f7", "en_name": ["Chloroethenyldimethylsilane", "Silane, chloroethenyldimethyl-", "Silane, chlorodimethylvinyl-", "Chloroethenyldimethylsilane", "Dimethylvinylchlorosilane", "Chlorodimethylvinylsilane", "Vinyldimethylchlorosilane", "Vinylchlorodimethylsilane", "Dimethylvinylsilyl chloride", "Dimethylchlorovinylsilane", "Vinyldimethylsilyl chloride", "OFS 1719"], "SMILES": "[Si](C=C)(C)(C)Cl", "physical_data": {"Molecular Weight": "120.65", "Molecular Formula": "C4H9ClSi", "Boiling Point": "83.5 \u00b0C", "Density": "0.884 g/cm\u00b3"}}