{"cas_no": "171919-37-2", "cn_name": "1-\u7532\u57fa-1H-\u5421\u54af\u5e76[2,3-B]\u5421\u5576-3-\u7fa7\u9178", "en_name": ["1-Methyl-1H-pyrrolo[2,3-b]pyridine-3-carboxylic acid", "1H-Pyrrolo[2,3-b]pyridine-3-carboxylic acid, 1-methyl-", "1-Methyl-1H-pyrrolo[2,3-b]pyridine-3-carboxylic acid", "1-Methylpyrrolo[2,3-b]pyridine-3-carboxylic acid"], "SMILES": "C(O)(=O)C=1C=2C(N(C)C1)=NC=CC2", "physical_data": {"Molecular Weight": "176.17", "Molecular Formula": "C9H8N2O2", "Melting Point": "253-255 \u00b0C"}}