{"cas_no": "17194-82-0", "cn_name": "4-\u7f9f\u57fa\u82ef\u4e59\u9170\u80fa", "en_name": ["(4-Hydroxyphenyl)acetamide", "Benzeneacetamide, 4-hydroxy-", "Acetamide, 2-(p-hydroxyphenyl)-", "4-Hydroxybenzeneacetamide", "(4-Hydroxyphenyl)acetamide", "2-(p-Hydroxyphenyl)acetamide", "p-(Carbamoylmethyl)phenol", "(p-Hydroxyphenyl)acetamide", "2-(4-Hydroxyphenyl)acetamide", "NSC 187193"], "SMILES": "C(C(N)=O)C1=CC=C(O)C=C1", "physical_data": {"Molecular Weight": "151.16", "Molecular Formula": "C8H9NO2", "Melting Point": "168-172 \u00b0C"}}