{"cas_no": "17200-30-5", "cn_name": "6-\u785d\u57fa-1,3-\u82ef\u5e76\u5641\u5511", "en_name": ["6-Nitrobenzoxazole", "Benzoxazole, 6-nitro-", "6-Nitrobenzoxazole", "6-Nitrobenzo[d]oxazole"], "SMILES": "N(=O)(=O)C=1C=C2C(=CC1)N=CO2", "physical_data": {"Molecular Weight": "164.12", "Molecular Formula": "C7H4N2O3", "Boiling Point": "165-168 \u00b0C @ Press: 15 Torr", "Melting Point": "152-153 \u00b0C"}}