{"cas_no": "17201-43-3", "cn_name": "\u5bf9\u6c30\u57fa\u6eb4\u5316\u82c4", "en_name": ["4-Cyanobenzyl bromide", "Benzonitrile, 4-(bromomethyl)-", "p-Tolunitrile, \u03b1-bromo-", "4-(Bromomethyl)benzonitrile", "p-Cyanobenzyl bromide", "p-(Bromomethyl)benzonitrile", "4-Cyanobenzyl bromide", "\u03b1-Bromo-p-tolunitrile", "(p-Cyanophenyl)bromomethane", "\u03b1-Bromo-p-tolylnitrile", "\u03b1-Bromo-p-toluenecarbonitrile", "(4-Cyanophenyl)methyl bromide", "NSC 95792", "1-Bromomethyl-4-cyanobenzene", "4-(1-Bromomethyl)benzonitrile"], "SMILES": "C(Br)C1=CC=C(C#N)C=C1", "physical_data": {"Molecular Weight": "196.04", "Molecular Formula": "C8H6BrN", "Boiling Point": "135-137 \u00b0C @ Press: 0.6 Torr", "Melting Point": "113-115 \u00b0C"}}