{"cas_no": "17200-29-2", "cn_name": "5-\u6c2f\u82ef\u5e76\u5511", "en_name": ["5-Chlorobenzoxazole", "Benzoxazole, 5-chloro-", "5-Chlorobenzoxazole", "NSC 24984", "5-Chlorobenzo[d]oxazole"], "SMILES": "ClC=1C=C2C(=CC1)OC=N2", "physical_data": {"Molecular Weight": "153.57", "Molecular Formula": "C7H4ClNO", "Boiling Point": "201-203 \u00b0C", "Melting Point": "40-41 \u00b0C"}}