{"cas_no": "1720-38-3", "cn_name": "1,9-\u7678\u4e8c\u7094", "en_name": ["1,9-Decadiyne", "1,9-Decadiyne"], "SMILES": "C(CCCC#C)CCC#C", "physical_data": {"Molecular Weight": "134.22", "Molecular Formula": "C10H14", "Boiling Point": "68-71 \u00b0C @ Press: 13-14 Torr", "Density": "0.8288 g/cm\u00b3 @ Temp: 24.34 \u00b0C"}}