{"cas_no": "17201-87-5", "cn_name": "3-\u6c2f\u7532\u57fa\u4e03\u7532\u57fa\u4e09\u7845\u6c27\u70f7", "en_name": ["3-(Chloromethyl)-1,1,1,3,5,5,5-heptamethyltrisiloxane", "Trisiloxane, 3-(chloromethyl)-1,1,1,3,5,5,5-heptamethyl-", "3-(Chloromethyl)-1,1,1,3,5,5,5-heptamethyltrisiloxane", "3-(Chloromethyl)-1,1,1,3,5,5-heptamethyltrisiloxane"], "SMILES": "[Si](O[Si](C)(C)C)(O[Si](C)(C)C)(CCl)C", "physical_data": {"Molecular Weight": "270.98", "Molecular Formula": "C8H23ClO2Si3", "Boiling Point": "185-186 \u00b0C", "Melting Point": "-85 \u00b0C", "Density": "0.918 g/cm\u00b3"}}