{"cas_no": "1720-32-7", "cn_name": "1,6-\u4e8c\u82ef\u57fa-1,3,5-\u5df1\u4e09\u70ef", "en_name": ["1,6-Diphenyl-1,3,5-hexatriene", "Benzene, 1,1\u2032-(1,3,5-hexatriene-1,6-diyl)bis-", "1,3,5-Hexatriene, 1,6-diphenyl-", "1,1\u2032-(1,3,5-Hexatriene-1,6-diyl)bis[benzene]", "1,6-Diphenylhexatriene", "1,6-Diphenyl-1,3,5-hexatriene", "Diphenylhexatriene", "DPH", "\u03b1,\u03c9-Diphenylhexatriene", "DPH (dye)", "NSC 90479"], "SMILES": "C(=CC=CC=CC1=CC=CC=C1)C2=CC=CC=C2", "physical_data": {"Molecular Weight": "232.32", "Molecular Formula": "C18H16", "Melting Point": "196 \u00b0C"}}