{"cas_no": "1721-69-3", "cn_name": "\u6866\u6728\u8111\u4e8c\u4e59\u9178", "en_name": ["Lup-20(29)-ene-3,28-diol, 3,28-diacetate, (3\u03b2)-", "Lup-20(29)-ene-3,28-diol, 3,28-diacetate, (3\u03b2)-", "Lup-20(29)-ene-3\u03b2,28-diol, diacetate", "Lup-20(29)-ene-3,28-diol, diacetate, (3\u03b2)-", "Lup-20(30)-ene-3\u03b2,28-diol, diacetate", "Betulin diacetate", "3,28-Di-O-acetylbetulin", "Betulin 3,28-diacetate", "(+)-Betulin diacetate", "3,28-Diacetylbetulin", "Betulinol diacetate", "NSC 38876", "3,28-Diacetoxy-betulin", "Betulinol biacetate", "(3\u03b2)-3,28-Diacetyloxylup-20(29)-ene"], "SMILES": "C(OC(C)=O)C12C(C3C(C)(CC1)C4(C)C(CC3)C5(C)C(CC4)C(C)(C)C(OC(C)=O)CC5)C(C(C)=C)CC2", "physical_data": {"Molecular Weight": "526.79", "Molecular Formula": "C34H54O4", "Melting Point": "218-218.5 \u00b0C", "Density": "0.9635 g/cm\u00b3 @ Temp: 28.5 \u00b0C"}}