{"cas_no": "17216-62-5", "cn_name": "\u4e8c\u4e59\u57fa 2-(2-\u6c30\u57fa\u4e59\u57fa)\u4e19\u4e8c\u9178", "en_name": ["Propanedioic acid, 2-(2-cyanoethyl)-, 1,3-diethyl ester", "Propanedioic acid, 2-(2-cyanoethyl)-, 1,3-diethyl ester", "Malonic acid, (2-cyanoethyl)-, diethyl ester", "Propanedioic acid, (2-cyanoethyl)-, diethyl ester", "3-Cyano-1,1-propanedicarboxylic acid diethyl ester", "Diethyl (2-cyanoethyl)malonate", "Diethyl 2-(2-cyanoethyl)propanedioate", "Diethyl 2-(2-cyanoethyl)malonate", "1,3-Diethyl 2-(2-cyanoethyl)propanedioate"], "SMILES": "C(C(OCC)=O)(C(OCC)=O)CCC#N", "physical_data": {"Molecular Weight": "213.23", "Molecular Formula": "C10H15NO4", "Boiling Point": "175-180 \u00b0C @ Press: 25 Torr", "Density": "1.0881 g/cm\u00b3 @ Temp: 20 \u00b0C"}}