{"cas_no": "17216-08-9", "cn_name": "2-\u4e59\u9170-1-\u56db\u916e", "en_name": ["2-Acetyl-1-tetralone", "1(2H)-Naphthalenone, 2-acetyl-3,4-dihydro-", "2\u2032-Acetonaphthone, 1\u2032,2\u2032,3\u2032,4\u2032-tetrahydro-1\u2032-oxo-", "2-Acetyl-3,4-dihydro-1(2H)-naphthalenone", "2-Acetyl-1-tetralone", "2-Acetyltetralone", "2-Acetyl-1,2,3,4-tetrahydronaphthalen-1-one", "2-Acetyl-3,4-dihydro-2H-naphthalen-1-one"], "SMILES": "O=C1C=2C(CCC1C(C)=O)=CC=CC2", "physical_data": {"Molecular Weight": "188.22", "Molecular Formula": "C12H12O2", "Melting Point": "56 \u00b0C"}}