{"cas_no": "17213-57-9", "cn_name": "3,5-\u4e8c\u7532\u6c27\u57fa\u82ef\u7532\u9170\u6c2f", "en_name": ["3,5-Dimethoxybenzoyl chloride", "Benzoyl chloride, 3,5-dimethoxy-", "3,5-Dimethoxybenzoyl chloride", "3,5-Dimethoxybenzoic acid chloride", "NSC 156082", "3,5-Methoxybenzoyl chloride"], "SMILES": "C(Cl)(=O)C1=CC(OC)=CC(OC)=C1", "physical_data": {"Molecular Weight": "200.62", "Molecular Formula": "C9H9ClO3", "Boiling Point": "163-165 \u00b0C @ Press: 19-20 Torr", "Melting Point": "35-38 \u00b0C"}}