{"cas_no": "17216-10-3", "cn_name": "1,3-\u4e8c(\u8418-1-\u57fa\u6c27\u57fa)\u4e19-2-\u9187", "en_name": ["1,3-Bis(1-naphthalenyloxy)-2-propanol", "2-Propanol, 1,3-bis(1-naphthalenyloxy)-", "2-Propanol, 1,3-bis(1-naphthyloxy)-", "1,3-Bis(1-naphthalenyloxy)-2-propanol", "1,3-Bis(1-naphthoxy)-2-propanol", "1,3-Bis(naphthalen-1-yloxy)propan-2-ol", "1,3-Bis(naphthalen-1-yloxy)propane-2-ol", "1,3-Dinaphthalen-1-yloxypropan-2-ol"], "SMILES": "O(CC(COC=1C2=C(C=CC1)C=CC=C2)O)C=3C4=C(C=CC3)C=CC=C4", "physical_data": {"Molecular Weight": "344.40", "Molecular Formula": "C23H20O3", "Melting Point": "77-78 \u00b0C"}}