{"cas_no": "1721-26-2", "cn_name": "2-\u7532\u57fa\u70df\u9178\u4e59\u916f", "en_name": ["Ethyl 2-methyl-3-pyridinecarboxylate", "3-Pyridinecarboxylic acid, 2-methyl-, ethyl ester", "Nicotinic acid, 2-methyl-, ethyl ester", "Ethyl 2-methyl-3-pyridinecarboxylate", "Ethyl 2-methylnicotinate", "2-Methylnicotinic acid ethyl ester", "NSC 521051", "2-Methylpyridine-3-carboxylic acid ethyl ester"], "SMILES": "C(OCC)(=O)C1=C(C)N=CC=C1", "physical_data": {"Molecular Weight": "165.19", "Molecular Formula": "C9H11NO2", "Boiling Point": "126-127 \u00b0C @ Press: 24 Torr", "Melting Point": "146-147 \u00b0C"}}