{"cas_no": "17213-58-0", "cn_name": "3,5-\u4e8c\u7532\u6c27\u57fa\u82ef\u7532\u9170\u80fa", "en_name": ["3,5-Dimethoxybenzamide", "Benzamide, 3,5-dimethoxy-", "3,5-Dimethoxybenzamide", "NSC 16615"], "SMILES": "C(N)(=O)C1=CC(OC)=CC(OC)=C1", "physical_data": {"Molecular Weight": "181.19", "Molecular Formula": "C9H11NO3", "Melting Point": "143 \u00b0C"}}