{"cas_no": "1721-93-3", "cn_name": "1-\u7532\u57fa\u5f02\u55b9\u5549", "en_name": ["1-Methylisoquinoline", "Isoquinoline, 1-methyl-", "1-Methylisoquinoline", "Isoquinaldine", "NSC 101175"], "SMILES": "CC=1C2=C(C=CN1)C=CC=C2", "physical_data": {"Molecular Weight": "143.19", "Molecular Formula": "C10H9N", "Boiling Point": "248 \u00b0C", "Melting Point": "10 \u00b0C"}}