{"cas_no": "1722-12-9", "cn_name": "2-\u6c2f\u5627\u5576", "en_name": ["2-Chloropyrimidine", "Pyrimidine, 2-chloro-", "2-Chloropyrimidine", "NSC 43544", "Pyrimidin-2-yl chloride", "2-Chloro-1,3-pyrimidine"], "SMILES": "ClC=1N=CC=CN1", "physical_data": {"Molecular Weight": "114.53", "Molecular Formula": "C4H3ClN2", "Boiling Point": "75-76 \u00b0C", "Melting Point": "66-68 \u00b0C"}}