{"cas_no": "17228-69-2", "cn_name": "2-\u6c2f-4-\u7532\u6c27\u57fa\u5421\u5576", "en_name": ["2-Chloro-4-methoxypyridine", "Pyridine, 2-chloro-4-methoxy-", "2-Chloro-4-methoxypyridine"], "SMILES": "O(C)C=1C=C(Cl)N=CC1", "physical_data": {"Molecular Weight": "143.57", "Molecular Formula": "C6H6ClNO", "Boiling Point": "229-230 \u00b0C"}}