{"cas_no": "1722-10-7", "cn_name": "6-\u7532\u6c27\u57fa-3-\u6c2f\u54d2\u55ea", "en_name": ["3-Chloro-6-methoxypyridazine", "Pyridazine, 3-chloro-6-methoxy-", "3-Chloro-6-methoxypyridazine", "NSC 522667", "NSC 69819", "3-Methoxy-6-chloropyridazine"], "SMILES": "O(C)C1=CC=C(Cl)N=N1", "physical_data": {"Molecular Weight": "144.56", "Molecular Formula": "C5H5ClN2O", "Melting Point": "84-85 \u00b0C"}}