{"cas_no": "17228-70-5", "cn_name": "3,5-\u4e8c\u6c2f-4-\u5421\u5576\u916e", "en_name": ["3,5-Dichloro-4(1H)-pyridinone", "4(1H)-Pyridinone, 3,5-dichloro-", "4(1H)-Pyridone, 3,5-dichloro-", "3,5-Dichloro-4(1H)-pyridinone", "3,5-Dichloro-4-pyridinone", "3,5-Dichloro-1H-pyridin-4-one", "3,5-Dichloro-1,4-dihydropyridin-4-one", "3,5-Dichloro-4-hydroxypyridine"], "SMILES": "O=C1C(Cl)=CNC=C1Cl", "physical_data": {"Molecular Weight": "163.99", "Molecular Formula": "C5H3Cl2NO", "Melting Point": "&gt;340 \u00b0C"}}