{"cas_no": "17228-74-9", "cn_name": "2,6-\u4e8c\u6c2f-4-\u7f9f\u57fa\u5421\u5576", "en_name": ["2,6-Dichloro-4-pyridinol", "4-Pyridinol, 2,6-dichloro-", "2,6-Dichloro-4-pyridinol", "2,6-Dichloro-4-hydroxypyridine", "2,6-Dichloro-1H-pyridin-4-one"], "SMILES": "OC=1C=C(Cl)N=C(Cl)C1", "physical_data": {"Molecular Weight": "163.99", "Molecular Formula": "C5H3Cl2NO", "Melting Point": "196 \u00b0C"}}