{"cas_no": "1722-62-9", "cn_name": "\u76d0\u9178\u7532\u54cc\u5361\u56e0", "en_name": ["Mepivacaine hydrochloride", "2-Piperidinecarboxamide, N-(2,6-dimethylphenyl)-1-methyl-, hydrochloride (1:1)", "2\u2032,6\u2032-Pipecoloxylidide, 1-methyl-, monohydrochloride", "2-Piperidinecarboxamide, N-(2,6-dimethylphenyl)-1-methyl-, monohydrochloride", "Carbocaine monohydrochloride", "Mepivacaine monohydrochloride", "Mepivacaine hydrochloride", "Carbocaine hydrochloride", "Scandonest", "(\u00b1)-Mepivacaine hydrochloride", "Scandicain", "Polocaine", "Mepident", "Meaverin", "Mepicaton", "Chlorocain", "Optocain", "Carbocaina", "Mepivastesin"], "SMILES": "N(C(=O)C1N(C)CCCC1)C2=C(C)C=CC=C2C.Cl", "physical_data": {"Molecular Weight": "", "Molecular Formula": "C15H22N2O.ClH", "Melting Point": "262-264 \u00b0C"}}