{"cas_no": "17229-14-0", "cn_name": "2-\u6c2f\u4e59\u6c27\u57fa\u4e59\u9178\u4e59\u916f", "en_name": ["Acetic acid, 2-(2-chloroethoxy)-, ethyl ester", "Acetic acid, 2-(2-chloroethoxy)-, ethyl ester", "Acetic acid, (2-chloroethoxy)-, ethyl ester", "1-Chloro-2-(ethoxycarbonylmethoxy)ethane", "Ethyl 2-chloroethoxyacetate", "(2-Chloroethoxy)acetic acid ethyl ester"], "SMILES": "C(C(OCC)=O)OCCCl", "physical_data": {"Molecular Weight": "166.60", "Molecular Formula": "C6H11ClO3", "Boiling Point": "79-81 \u00b0C @ Press: 10 Torr"}}