{"cas_no": "17228-64-7", "cn_name": "2-\u6c2f-6-\u7532\u6c27\u57fa\u5421\u5576", "en_name": ["2-Chloro-6-methoxypyridine", "Pyridine, 2-chloro-6-methoxy-", "2-Chloro-6-methoxypyridine", "6-Chloro-2-methoxypyridine", "2-Methoxy-6-chloropyridine"], "SMILES": "O(C)C=1N=C(Cl)C=CC1", "physical_data": {"Molecular Weight": "143.57", "Molecular Formula": "C6H6ClNO", "Boiling Point": "185.5 \u00b0C"}}