{"cas_no": "1722-26-5", "cn_name": "\u4e09\u4e59\u80fa-\u787c\u70f7", "en_name": ["(T-4)-(N,N-Diethylethanamine)trihydroboron", "Boron, (N,N-diethylethanamine)trihydro-, (T-4)-", "Triethylamine, compd. with borane (1:1)", "Ethanamine, N,N-diethyl-, compd. with borane (1:1)", "Borazane, N,N,N-triethyl-", "Borane, compd. with triethylamine (1:1)", "Borane, compd. with N,N-diethylethanamine (1:1)", "Ethanamine, N,N-diethyl-, boron complex", "(T-4)-(N,N-Diethylethanamine)trihydroboron", "Borane complex with triethylamine (1:1)", "Triethylamine complex with borane (1:1)", "Triethylamine-borane", "Borane adduct with triethylamine (1:1)", "Triethylamine borane (1:1)", "Borane-triethylamine", "Trihydro(triethylamine)boron", "NSC 59740", "Triethylamine compound with borane (1:1)", "(Triethylazaniumyl)boranuide"], "SMILES": "[N]([B+3]([H-])([H-])[H-])(CC)(CC)CC", "physical_data": {"Molecular Weight": "", "Molecular Formula": "C6H18BN", "Boiling Point": "100-101 \u00b0C @ Press: 12 Torr", "Melting Point": "-4 \u00b0C"}}