{"cas_no": "17231-94-6", "cn_name": "3,5-\u4e8c\u6c2f\u82ef\u786b\u915a", "en_name": ["3,5-Dichlorobenzenethiol", "Benzenethiol, 3,5-dichloro-", "3,5-Dichlorobenzenethiol", "3,5-Dichlorothiophenol", "3,5-Dichlorobenzene-1-thiol"], "SMILES": "ClC1=CC(Cl)=CC(S)=C1", "physical_data": {"Molecular Weight": "179.07", "Molecular Formula": "C6H4Cl2S", "Boiling Point": "114 \u00b0C @ Press: 8 Torr", "Melting Point": "63.5 \u00b0C"}}