{"cas_no": "17238-05-0", "cn_name": "\u4e8c\u6c227-\u7f9f\u57fa-3-(4-\u7f9f\u82ef\u57fa)-4-\u82ef\u5e76\u5421\u5583\u916e", "en_name": ["(\u00b1)-Dihydrodaidzein", "4H-1-Benzopyran-4-one, 2,3-dihydro-7-hydroxy-3-(4-hydroxyphenyl)-", "Isoflavanone, 4\u2032,7-dihydroxy-", "2,3-Dihydro-7-hydroxy-3-(4-hydroxyphenyl)-4H-1-benzopyran-4-one", "(\u00b1)-Dihydrodaidzein", "Dihydrodaidzein"], "SMILES": "O=C1C=2C(OCC1C3=CC=C(O)C=C3)=CC(O)=CC2", "physical_data": {"Molecular Weight": "256.25", "Molecular Formula": "C15H12O4", "Melting Point": "250 \u00b0C"}}