{"cas_no": "17230-88-5", "cn_name": "\u8fbe\u90a3\u5511", "en_name": ["Danazol", "Pregna-2,4-dien-20-yno[2,3-d]isoxazol-17-ol, (17\u03b1)-", "17\u03b1-Pregna-2,4-dien-20-yno[2,3-d]isoxazol-17-ol", "1H-Cyclopenta[7,8]phenanthro[3,2-d]isoxazol-1-ol, 1-ethynyl-2,3,3a,3b,4,5,10,10a,10b,11,12,12a-dodecahydro-10a,12a-dimethyl-", "1H-Cyclopenta[7,8]phenanthro[3,2-d]isoxazole, pregna-2,4-dien-20-yno[2,3-d]isoxazol-17-ol deriv.", "(17\u03b1)-Pregna-2,4-dien-20-yno[2,3-d]isoxazol-17-ol", "Danazol", "Win 17757", "Danocrine", "Danzol", "Cyclomen", "Danazolum", "17\u03b1-Pregna-2,4-dien-20-yne-[2,3-d]isoxazole-17\u03b2-ol", "Chronogyn", "Winobanin", "Ladogal", "Danovaol", "Bonzol", "Danol", "NSC 270916", "Danatrol", "Danalem", "MeSH ID: D003613"], "SMILES": "CC12C3C(C4C(C)(CC3)C(C#C)(O)CC4)CCC1=CC5=C(C2)C=NO5", "physical_data": {"Molecular Weight": "337.46", "Molecular Formula": "C22H27NO2", "Melting Point": "225.6 \u00b0C"}}