{"cas_no": "17231-95-7", "cn_name": "2,3-\u4e8c\u6c2f\u82ef\u786b\u915a", "en_name": ["2,3-Dichlorobenzenethiol", "Benzenethiol, 2,3-dichloro-", "2,3-Dichlorobenzenethiol", "2,3-Dichlorothiophenol"], "SMILES": "ClC1=C(Cl)C=CC=C1S", "physical_data": {"Molecular Weight": "179.07", "Molecular Formula": "C6H4Cl2S", "Melting Point": "46.5 \u00b0C"}}