{"cas_no": "1723-00-8", "cn_name": "D-(+)-2-\u54cc\u5576\u9178", "en_name": ["(+)-Pipecolic acid", "2-Piperidinecarboxylic acid, (2R)-", "2-Piperidinecarboxylic acid, (R)-", "Pipecolic acid, D-(+)-", "(2R)-2-Piperidinecarboxylic acid", "(R)-Pipecolic acid", "(+)-Pipecolic acid", "D-Pipecolic acid", "D-(+)-Pipecolic acid", "D-Pipecolinic acid", "D-Homoproline", "(R)-Pipecolinic acid", "(R)-2-Piperidinecarboxylic acid", "(R)-(+)-Pipecolic acid", "D-Piperidine-2-carboxylic acid", "(+)-Pipecolinic acid", "(R)-2-Carboxypiperidine", "(2R)-Piperidine-2-carboxylic acid", "(R)-(+)-2-Piperidinecarboxylic acid"], "SMILES": "C(O)(=O)C1CCCCN1", "physical_data": {"Molecular Weight": "129.16", "Molecular Formula": "C6H11NO2", "Melting Point": "266-268 \u00b0C (decomp)"}}