{"cas_no": "1724-39-6", "cn_name": "\u73af\u5341\u4e8c\u9187", "en_name": ["Cyclododecanol", "Cyclododecanol", "NSC 524960"], "SMILES": "OC1CCCCCCCCCCC1", "physical_data": {"Molecular Weight": "184.32", "Molecular Formula": "C12H24O", "Boiling Point": "128-130 \u00b0C @ Press: 20 Torr", "Melting Point": "76-79 \u00b0C"}}