{"cas_no": "1724-17-0", "cn_name": "\u9f50\u58a9\u679c\u9178\u7532\u916f", "en_name": ["Methyl oleanolate", "Olean-12-en-28-oic acid, 3-hydroxy-, methyl ester, (3\u03b2)-", "Olean-12-en-28-oic acid, 3\u03b2-hydroxy-, methyl ester", "Methyl oleanolate", "Oleanolic acid methyl ester", "Virgaureagenin B methyl ester", "Methyl 3\u03b2-hydroxyolean-12-en-28-oate", "Methyl (3\u03b2)-3-Hydroxyolean-12-en-28-oate", "Methyl oleanate"], "SMILES": "C(OC)(=O)C12C(C=3C(C)(CC1)C4(C)C(CC3)C5(C)C(CC4)C(C)(C)C(O)CC5)CC(C)(C)CC2", "physical_data": {"Molecular Weight": "470.73", "Molecular Formula": "C31H50O3", "Melting Point": "203 \u00b0C"}}