{"cas_no": "17241-59-7", "cn_name": "2-\u7f9f\u7532\u57fa\u84bd\u918c", "en_name": ["2-(Hydroxymethyl)anthraquinone", "9,10-Anthracenedione, 2-(hydroxymethyl)-", "Anthraquinone, 2-(hydroxymethyl)-", "2-(Hydroxymethyl)-9,10-anthracenedione", "2-(Hydroxymethyl)anthraquinone", "2-(Hydroxymethyl)-9,10-anthraquinone"], "SMILES": "O=C1C=2C(C(=O)C=3C1=CC=CC3)=CC=C(CO)C2", "physical_data": {"Molecular Weight": "238.24", "Molecular Formula": "C15H10O3", "Melting Point": "183 \u00b0C"}}