{"cas_no": "1724-08-9", "cn_name": "2,3-\u964d\u83b0\u70f7\u4e8c\u7fa7\u9178", "en_name": ["Bicyclo[2.2.1]heptane-2,3-dicarboxylic acid", "Bicyclo[2.2.1]heptane-2,3-dicarboxylic acid", "2,3-Norbornanedicarboxylic acid", "3,6-Endomethylenephthalic acid, hexahydro-", "1,2-Benzenedicarboxylic acid, hexahydro-3,6-endo-methylene-", "NSC 169197"], "SMILES": "C(O)(=O)C1C(C(O)=O)C2CC1CC2", "physical_data": {"Molecular Weight": "184.19", "Molecular Formula": "C9H12O4", "Melting Point": "150 \u00b0C"}}