{"cas_no": "1724-02-3", "cn_name": "\u620a\u70ef\u4e8c\u9178", "en_name": ["Glutaconic acid", "2-Pentenedioic acid", "Glutaconic acid", "Pentenedioic acid", "1,3-Propenedicarboxylic acid", "1-Propene-1,3-dicarboxylic acid"], "SMILES": "C(CC(O)=O)=CC(O)=O", "physical_data": {"Molecular Weight": "130.10", "Molecular Formula": "C5H6O4", "Melting Point": "130-134 \u00b0C"}}