{"cas_no": "17249-80-8", "cn_name": "3-\u6c2f\u567b\u5429", "en_name": ["3-Chlorothiophene", "Thiophene, 3-chloro-", "3-Chlorothiophene"], "SMILES": "ClC=1C=CSC1", "physical_data": {"Molecular Weight": "118.58", "Molecular Formula": "C4H3ClS", "Boiling Point": "136-137 \u00b0C", "Melting Point": "-62 \u00b0C"}}