{"cas_no": "17247-58-4", "cn_name": "\u6eb4\u7532\u57fa\u73af\u4e01\u70f7", "en_name": ["(Bromomethyl)cyclobutane", "Cyclobutane, (bromomethyl)-", "(Bromomethyl)cyclobutane", "Bromocyclobutylmethane", "Cyclobutylmethyl bromide", "1-(Bromomethyl)cyclobutane"], "SMILES": "C(Br)C1CCC1", "physical_data": {"Molecular Weight": "149.03", "Molecular Formula": "C5H9Br", "Boiling Point": "54-56 \u00b0C @ Press: 45 Torr"}}