{"cas_no": "17241-40-6", "cn_name": "2-\u7f9f\u57fa-3-\u7532\u57fa\u84bd\u918c", "en_name": ["2-Hydroxy-3-methylanthraquinone", "9,10-Anthracenedione, 2-hydroxy-3-methyl-", "Anthraquinone, 2-hydroxy-3-methyl-", "2-Hydroxy-3-methyl-9,10-anthracenedione", "2-Hydroxy-3-methylanthraquinone", "3-Hydroxy-2-methylanthraquinone", "2-Methyl-3-hydroxyanthraquinone"], "SMILES": "O=C1C=2C(C(=O)C=3C1=CC=CC3)=CC(O)=C(C)C2", "physical_data": {"Molecular Weight": "238.24", "Molecular Formula": "C15H10O3", "Melting Point": "299 \u00b0C"}}