{"cas_no": "172595-68-5", "cn_name": "5-\u7532\u6c27\u57fa-1H-\u5432\u54da-3-\u7532\u9178\u7532\u916f", "en_name": ["Methyl 5-methoxy-1H-indole-3-carboxylate", "1H-Indole-3-carboxylic acid, 5-methoxy-, methyl ester", "Methyl 5-methoxy-1H-indole-3-carboxylate", "5-Methoxyindole-3-carboxylic acid methyl ester"], "SMILES": "C(OC)(=O)C=1C=2C(NC1)=CC=C(OC)C2", "physical_data": {"Molecular Weight": "205.21", "Molecular Formula": "C11H11NO3", "Melting Point": "141-142 \u00b0C"}}