{"cas_no": "17253-11-1", "cn_name": "(2,3-\u4e8c\u6c22-\u82ef\u5e76[1,4]\u4e8c\u6c27-6)-\u4e59\u9178", "en_name": ["2,3-Dihydro-1,4-benzodioxin-6-acetic acid", "1,4-Benzodioxin-6-acetic acid, 2,3-dihydro-", "1,4-Benzodioxan-6-acetic acid", "2,3-Dihydro-1,4-benzodioxin-6-acetic acid", "(Benzodioxan-6-yl)acetic acid", "(2,3-Dihydrobenzo[1,4]dioxin-6-yl)acetic acid", "2-(2,3-Dihydrobenzo[b][1,4]dioxin-6-yl)acetic acid"], "SMILES": "C(C(O)=O)C=1C=C2C(=CC1)OCCO2", "physical_data": {"Molecular Weight": "194.18", "Molecular Formula": "C10H10O4", "Melting Point": "76 \u00b0C"}}