{"cas_no": "172595-67-4", "cn_name": "5-\u6c2f\u5432\u54da-3-\u7fa7\u9178\u7532\u916f", "en_name": ["1H-Indole-3-carboxylic acid, 5-chloro-, methyl ester", "1H-Indole-3-carboxylic acid, 5-chloro-, methyl ester", "5-Chloro-3-methoxycarbonyl-1H-indole", "Methyl 5-chloro-1H-indole-3-carboxylate"], "SMILES": "C(OC)(=O)C=1C=2C(NC1)=CC=C(Cl)C2", "physical_data": {"Molecular Weight": "209.63", "Molecular Formula": "C10H8ClNO2", "Melting Point": "196-198 \u00b0C"}}