{"cas_no": "172529-93-0", "cn_name": "[2-(2-\u6c28\u57fa-6-\u6c2f-9H-\u560c\u5464-9-\u57fa)\u4e59\u57fa]\u4e19\u4e8c\u9178\u4e8c\u7532\u916f", "en_name": ["1,3-Dimethyl 2-[2-(2-amino-6-chloro-9H-purin-9-yl)ethyl]propanedioate", "Propanedioic acid, 2-[2-(2-amino-6-chloro-9H-purin-9-yl)ethyl]-, 1,3-dimethyl ester", "Propanedioic acid, [2-(2-amino-6-chloro-9H-purin-9-yl)ethyl]-, dimethyl ester", "1,3-Dimethyl 2-[2-(2-amino-6-chloro-9H-purin-9-yl)ethyl]propanedioate", "Dimethyl 2-[2-(2-amino-6-chloropurin-9-yl)ethyl]malonate"], "SMILES": "C(CC(C(OC)=O)C(OC)=O)N1C=2C(N=C1)=C(Cl)N=C(N)N2", "physical_data": {"Molecular Weight": "327.72", "Molecular Formula": "C12H14ClN5O4", "Melting Point": "140.6-142.9 \u00b0C"}}