{"cas_no": "17252-51-6", "cn_name": "4,4'-(1,3-\u4e19\u4e8c\u57fa)\u53cc\u5421\u5576", "en_name": ["1,3-Bis(4\u2032-pyridyl)propane", "Pyridine, 4,4\u2032-(1,3-propanediyl)bis-", "Pyridine, 4,4\u2032-trimethylenedi-", "4,4\u2032-(1,3-Propanediyl)bis[pyridine]", "1,3-Di-4-pyridylpropane", "4,4\u2032-Trimethylenedipyridine", "4,4\u2032-Trimethylenebispyridine", "1,3-Bis(4-pyridyl)propane", "4,4\u2032-Bis(1,3-propanediyl)pyridine", "1,3-Bis(4-pyridinyl)propane", "NSC 42785", "1,3-Bis(4\u2032-pyridyl)propane", "1,3-Bi(4-pyridyl)propane", "1,3-Di(pyridin-4-yl)propane"], "SMILES": "C(CCC=1C=CN=CC1)C=2C=CN=CC2", "physical_data": {"Molecular Weight": "198.26", "Molecular Formula": "C13H14N2", "Boiling Point": "158-162 \u00b0C @ Press: 2 Torr", "Melting Point": "57-60 \u00b0C"}}