{"cas_no": "1726-23-4", "cn_name": "\u504f\u82ef\u4e09\u9178\u4e09-\u6b63\u4e01\u57fa\u916f", "en_name": ["1,2,4-Tributyl 1,2,4-benzenetricarboxylate", "1,2,4-Benzenetricarboxylic acid, 1,2,4-tributyl ester", "1,2,4-Benzenetricarboxylic acid, tributyl ester", "Trimellitic acid, tributyl ester", "1,2,4-Tributyl 1,2,4-benzenetricarboxylate", "Tri-n-butyl trimellitate", "Tributyl trimellitate", "Trimellitic acid tri-n-butyl ester", "Monocizer TBTM"], "SMILES": "C(OCCCC)(=O)C1=C(C(OCCCC)=O)C=CC(C(OCCCC)=O)=C1", "physical_data": {"Molecular Weight": "378.46", "Molecular Formula": "C21H30O6", "Boiling Point": "230-233 \u00b0C @ Press: 4 Torr"}}