{"cas_no": "17261-28-8", "cn_name": "2-\u4e8c\u82ef\u57fa\u81a6\u82ef\u7532\u9178", "en_name": ["2-(Diphenylphosphino)benzoic acid", "Benzoic acid, 2-(diphenylphosphino)-", "Benzoic acid, o-(diphenylphosphino)-", "2-(Diphenylphosphino)benzoic acid", "o-(Diphenylphosphino)benzoic acid", "(2-Carboxyphenyl)diphenylphosphine", "2-(Diphenylphosphanyl)benzoic acid"], "SMILES": "P(C1=C(C(O)=O)C=CC=C1)(C2=CC=CC=C2)C3=CC=CC=C3", "physical_data": {"Molecular Weight": "306.30", "Molecular Formula": "C19H15O2P", "Boiling Point": "159 \u00b0C", "Melting Point": "165-167 \u00b0C"}}