{"cas_no": "17266-30-7", "cn_name": "5-\u6c2f\u82ef\u5e76\u567b\u915a-3-\u4e59\u9178", "en_name": ["5-Chlorobenzo[b]thiophene-3-acetic acid", "Benzo[b]thiophene-3-acetic acid, 5-chloro-", "5-Chlorobenzo[b]thiophene-3-acetic acid", "3-(5-Chlorobenzo[b]thienyl)acetic acid", "2-(5-Chlorobenzo[b]thiophen-3-yl)acetic acid", "5-Chlorothianaphthene-3-acetic acid", "[5-Chlorobenzothiophene-3-yl]acetic acid", "(5-Chlorobenzo[b]thiophen-3-yl)acetic acid", "5-Chlorobenzo[b]thien-3-ylacetic acid", "5-Chlorobenzothien-3-ylacetic acid", "2-(5-Chloro-1-benzothiophen-3-yl)acetic acid"], "SMILES": "C(C(O)=O)C=1C=2C(SC1)=CC=C(Cl)C2", "physical_data": {"Molecular Weight": "226.68", "Molecular Formula": "C10H7ClO2S", "Melting Point": "154-156 \u00b0C"}}