{"cas_no": "17279-31-1", "cn_name": "(S)-(-)-N,N-\u4e8c\u7532\u57fa-1-\u82ef\u4e59\u80fa", "en_name": ["(\u03b1S)-N,N,\u03b1-Trimethylbenzenemethanamine", "Benzenemethanamine, N,N,\u03b1-trimethyl-, (\u03b1S)-", "Benzylamine, N,N,\u03b1-trimethyl-, (S)-(-)-", "Benzenemethanamine, N,N,\u03b1-trimethyl-, (S)-", "(\u03b1S)-N,N,\u03b1-Trimethylbenzenemethanamine", "S-(-)-N,N-Dimethyl-1-phenylethylamine", "(S)-N,N,\u03b1-Trimethylbenzenemethanamine", "(S)-N,N-Dimethyl-1-phenylethylamine", "(S)-[1-(Dimethylamino)ethyl]benzene", "Dimethyl((S)-1-phenylethyl)amine", "(1S)-N,N-Dimethyl-1-phenylethanamine", "(-)-(S)-N,N-Dimethyl-1-phenylethylamine"], "SMILES": "C(N(C)C)(C)C1=CC=CC=C1", "physical_data": {"Molecular Weight": "149.23", "Molecular Formula": "C10H15N", "Boiling Point": "62 \u00b0C @ Press: 11 Torr"}}