{"cas_no": "17277-58-6", "cn_name": "\u82ef\u57fa\u786b\u4ee3\u4e59\u9178\u7532\u916f", "en_name": ["Methyl 2-(phenylthio)acetate", "Acetic acid, 2-(phenylthio)-, methyl ester", "Acetic acid, (phenylthio)-, methyl ester", "Methyl 2-(phenylthio)acetate", "Methyl (phenylthio)acetate", "Methyl \u03b1-(phenylthio)acetate", "Methyl thiophenoxyacetate", "Methyl phenylsulfenylacetate", "NSC 620044", "(Phenylthio)acetic acid methyl ester"], "SMILES": "S(CC(OC)=O)C1=CC=CC=C1", "physical_data": {"Molecular Weight": "182.24", "Molecular Formula": "C9H10O2S", "Boiling Point": "262-263 \u00b0C @ Press: 759.4 Torr", "Density": "1.1728 g/cm\u00b3 @ Temp: 25 \u00b0C"}}