{"cas_no": "17278-28-3", "cn_name": "\u5f02\u846b\u82a6\u7d20B", "en_name": ["Isocucurbitacin B", "19-Norlanosta-5,23-diene-2,11,22-trione, 25-(acetyloxy)-3,16,20-trihydroxy-9-methyl-, (3\u03b1,9\u03b2,10\u03b1,16\u03b1,23E)-", "(3\u03b1,9\u03b2,10\u03b1,16\u03b1,23E)-25-(Acetyloxy)-3,16,20-trihydroxy-9-methyl-19-norlanosta-5,23-diene-2,11,22-trione", "Isocucurbitacin B", "NSC 106400"], "SMILES": "CC12C(C)(C(C(C(C=CC(OC(C)=O)(C)C)=O)(C)O)C(O)C1)CC(=O)C3(C)C2CC=C4C3CC(=O)C(O)C4(C)C", "physical_data": {"Molecular Weight": "558.70", "Molecular Formula": "C32H46O8", "Melting Point": "219 \u00b0C"}}