{"cas_no": "172732-68-2", "cn_name": "\u4f10\u745e\u62c9\u8fea", "en_name": ["Varespladib", "Acetic acid, 2-[[3-(2-amino-2-oxoacetyl)-2-ethyl-1-(phenylmethyl)-1H-indol-4-yl]oxy]-", "Acetic acid, [[3-(aminooxoacetyl)-2-ethyl-1-(phenylmethyl)-1H-indol-4-yl]oxy]-", "2-[[3-(2-Amino-2-oxoacetyl)-2-ethyl-1-(phenylmethyl)-1H-indol-4-yl]oxy]acetic acid", "LY 315920", "Varespladib", "[[3-(2-Amino-1,2-dioxoethyl)-2-ethyl-1-(phenylmethyl)-1H-indol-4-yl]oxy]acetic acid"], "SMILES": "C(C(N)=O)(=O)C=1C=2C(N(CC3=CC=CC=C3)C1CC)=CC=CC2OCC(O)=O", "physical_data": {"Molecular Weight": "380.39", "Molecular Formula": "C21H20N2O5", "Melting Point": "230-234 \u00b0C"}}