{"cas_no": "17278-74-9", "cn_name": "14-\u7f9f\u57fa\u8089\u8c46\u853b\u9178", "en_name": ["14-Hydroxytetradecanoic acid", "Tetradecanoic acid, 14-hydroxy-", "14-Hydroxytetradecanoic acid", "14-Hydroxymyristic acid", "\u03c9-Hydroxytetradecanoic acid", "\u03c9-Hydroxymyristic acid"], "SMILES": "C(CCCCCCCO)CCCCCC(O)=O", "physical_data": {"Molecular Weight": "244.37", "Molecular Formula": "C14H28O3", "Melting Point": "86-87 \u00b0C"}}