{"cas_no": "17289-19-9", "cn_name": "1-\u7532\u57fa-1H-\u54aa\u5511-4-\u7fa7\u9178\u7532\u916f", "en_name": ["Methyl 1-methyl-1H-imidazole-4-carboxylate", "1H-Imidazole-4-carboxylic acid, 1-methyl-, methyl ester", "Imidazole-4-carboxylic acid, 1-methyl-, methyl ester", "Methyl 1-methyl-1H-imidazole-4-carboxylate", "Methyl 1-methylimidazole-4-carboxylate", "1-Methyl-1H-imidazole-4-carboxylic acid methyl ester"], "SMILES": "C(OC)(=O)C1=CN(C)C=N1", "physical_data": {"Molecular Weight": "140.14", "Molecular Formula": "C6H8N2O2", "Melting Point": "103-104 \u00b0C"}}