{"cas_no": "17283-81-7", "cn_name": "BETA-\u4e8c\u6c22\u7d2b\u7f57\u5170\u916e", "en_name": ["Dihydro-\u03b2-ionone", "2-Butanone, 4-(2,6,6-trimethyl-1-cyclohexen-1-yl)-", "4-(2,6,6-Trimethyl-1-cyclohexen-1-yl)-2-butanone", "Dihydro-\u03b2-ionone", "\u03b2-Ionone, dihydro-", "7,8-Dihydro-\u03b2-ionone", "\u03b1,\u03b2-Dihydro-\u03b2-ionone", "\u03b2-7,8-Dihydroionone"], "SMILES": "C(CC(C)=O)C=1C(C)(C)CCCC1C", "physical_data": {"Molecular Weight": "194.31", "Molecular Formula": "C13H22O", "Boiling Point": "121-122 \u00b0C @ Press: 10 Torr", "Density": "0.9264 g/cm\u00b3 @ Temp: 20 \u00b0C"}}