{"cas_no": "17289-30-4", "cn_name": "5-\u6c2f\u7532\u57fa-1-\u7532\u57fa-1H-\u54aa\u5511\u76d0\u9178\u76d0", "en_name": ["1H-Imidazole, 4-(chloromethyl)-1-methyl-, hydrochloride (1:1)", "1H-Imidazole, 4-(chloromethyl)-1-methyl-, hydrochloride (1:1)", "Imidazole, 4-(chloromethyl)-1-methyl-, monohydrochloride", "1H-Imidazole, 4-(chloromethyl)-1-methyl-, monohydrochloride", "4-(Chloromethyl)-1-methylimidazole hydrochloride", "1-Methyl-4-chloromethylimidazole hydrochloride", "4-(Chloromethyl)-1-methyl-1H-imidazole hydrochloride"], "SMILES": "C(Cl)C1=CN(C)C=N1.Cl", "physical_data": {"Molecular Weight": "", "Molecular Formula": "C5H7ClN2.ClH", "Melting Point": "153-154 \u00b0C"}}