{"cas_no": "17282-40-5", "cn_name": "1-(2-\u4e59\u6c27\u57fa-2-\u6c27\u4e59\u57fa)\u6eb4\u5316\u5421\u5576", "en_name": ["Pyridinium, 1-(2-ethoxy-2-oxoethyl)-, bromide (1:1)", "Pyridinium, 1-(2-ethoxy-2-oxoethyl)-, bromide (1:1)", "Pyridinium, 1-(carboxymethyl)-, bromide, ethyl ester", "Pyridinium, 1-(2-ethoxy-2-oxoethyl)-, bromide", "Ethoxycarbonylmethylpyridinium bromide", "N-(Ethoxycarbonylmethyl)pyridinium bromide", "1-(Ethoxycarbonylmethyl)pyridinium bromide", "1-(2-Ethoxy-2-oxoethyl)pyridinium bromide", "N-(2-Ethoxy-2-oxoethyl)pyridinium bromide", "1-(2-Ethoxy-2-oxoethyl)pyridin-1-ium bromide"], "SMILES": "C(C(OCC)=O)[N+]=1C=CC=CC1.[Br-]", "physical_data": {"Molecular Weight": "", "Molecular Formula": "C9H12NO2.Br", "Melting Point": "112-115 \u00b0C"}}