{"cas_no": "17284-97-8", "cn_name": "3-\u6c2f-6-\u80bc\u57fa\u54d2\u55ea", "en_name": ["3-Chloro-6-hydrazinopyridazine", "Pyridazine, 3-chloro-6-hydrazinyl-", "Pyridazine, 3-chloro-6-hydrazino-", "3(2H)-Pyridazinone, 6-chloro-, hydrazone", "3-Chloro-6-hydrazinylpyridazine", "3-Hydrazino-6-chloropyridazine", "6-Chloro-3-hydrazinopyridazine", "3-Chloro-6-hydrazinopyridazine", "(3-Chloro-6-pyridazinyl)hydrazine", "(6-Chloro-3-pyridazinyl)hydrazine", "ABC 907", "NSC 367616"], "SMILES": "N(N)=C1C=CC(Cl)=NN1", "physical_data": {"Molecular Weight": "144.56", "Molecular Formula": "C4H5ClN4", "Melting Point": "135-137 \u00b0C"}}