{"cas_no": "17289-53-1", "cn_name": "\u5229\u591a\u5361\u56e0\u6742\u8d28", "en_name": ["2-(Diethylamino)-N-(2,4-dimethylphenyl)acetamide", "Acetamide, 2-(diethylamino)-N-(2,4-dimethylphenyl)-", "2\u2032,4\u2032-Acetoxylidide, 2-(diethylamino)-", "2-(Diethylamino)-N-(2,4-dimethylphenyl)acetamide"], "SMILES": "N(C(CN(CC)CC)=O)C1=C(C)C=C(C)C=C1", "physical_data": {"Molecular Weight": "234.34", "Molecular Formula": "C14H22N2O", "Boiling Point": "150 \u00b0C @ Press: 1.8 Torr", "Melting Point": "67-68 \u00b0C"}}