{"cas_no": "1728-46-7", "cn_name": "2-\u53d4-\u4e01\u57fa\u516d\u915a\u916f", "en_name": ["2-tert-Butylcyclohexanone", "Cyclohexanone, 2-(1,1-dimethylethyl)-", "Cyclohexanone, 2-tert-butyl-", "2-(1,1-Dimethylethyl)cyclohexanone", "2-tert-Butylcyclohexanone", "(\u00b1)-2-tert-Butylcyclohexanone", "o-tert-Butylcyclohexanone", "Verdone", "2-(tert-Butyl)cyclohexan-1-one", "2-tert-Butylcyclohexan-1-one"], "SMILES": "C(C)(C)(C)C1C(=O)CCCC1", "physical_data": {"Molecular Weight": "154.25", "Molecular Formula": "C10H18O", "Boiling Point": "62.5 \u00b0C @ Press: 4 Torr"}}