{"cas_no": "17282-41-6", "cn_name": "N-\u4e19\u916e\u57fa\u5421\u5576\u6eb4\u5316\u7269", "en_name": ["Pyridinium, 1-(2-oxopropyl)-, bromide (1:1)", "Pyridinium, 1-(2-oxopropyl)-, bromide (1:1)", "Pyridinium, 1-acetonyl-, bromide", "Pyridinium, 1-(2-oxopropyl)-, bromide", "Acetonylpyridinium bromide", "1-Acetonylpyridinium bromide", "N-Acetonylpyridinium bromide"], "SMILES": "C(C(C)=O)[N+]=1C=CC=CC1.[Br-]", "physical_data": {"Molecular Weight": "", "Molecular Formula": "C8H10NO.Br", "Melting Point": "201 \u00b0C (decomp)"}}