{"cas_no": "17281-59-3", "cn_name": "N-(\u6c30\u7532\u57fa)\u6c2f\u5316\u5421\u5576", "en_name": ["Pyridinium, 1-(cyanomethyl)-, chloride (1:1)", "Pyridinium, 1-(cyanomethyl)-, chloride (1:1)", "Pyridinium, 1-(cyanomethyl)-, chloride", "1-(Cyanomethyl)pyridinium chloride", "Cyanomethylpyridinium chloride", "1-(Cyanomethyl)pyridin-1-ium chloride", "N-(Cyanomethyl)pyridinium chloride"], "SMILES": "C(C#N)[N+]=1C=CC=CC1.[Cl-]", "physical_data": {"Molecular Weight": "", "Molecular Formula": "C7H7N2.Cl", "Melting Point": "178 \u00b0C"}}