{"cas_no": "17288-15-2", "cn_name": "2-\u6c28\u57fa\u5f02\u4e01\u9178\u4e59\u916f\u76d0\u9178\u76d0", "en_name": ["Alanine, 2-methyl-, ethyl ester, hydrochloride (1:1)", "Alanine, 2-methyl-, ethyl ester, hydrochloride (1:1)", "Alanine, 2-methyl-, ethyl ester, hydrochloride", "Ethyl \u03b1-aminoisobutyrate hydrochloride", "\u03b1-Methylalanine ethyl ester hydrochloride", "\u03b1-Aminoisobutyric acid ethyl ester hydrochloride", "Ethyl 2-amino-2-methylpropanoate hydrochloride", "1-Ethoxycarbonyl-1-methylethylamine hydrochloride", "1-Ethoxy-2-methyl-1-oxopropan-2-amine hydrochloride"], "SMILES": "C(C(C)(C)N)(OCC)=O.Cl", "physical_data": {"Molecular Weight": "", "Molecular Formula": "C6H13NO2.ClH", "Melting Point": "156-157 \u00b0C"}}