{"cas_no": "17290-70-9", "cn_name": "3',4' ,5,7,8-\u4e94\u7532\u6c27\u57fa\u9ec4\u916e", "en_name": ["Isosinensetin", "4H-1-Benzopyran-4-one, 2-(3,4-dimethoxyphenyl)-5,7,8-trimethoxy-", "Flavone, 3\u2032,4\u2032,5,7,8-pentamethoxy-", "2-(3,4-Dimethoxyphenyl)-5,7,8-trimethoxy-4H-1-benzopyran-4-one", "Isosinensetin", "3\u2032,4\u2032,5,7,8-Pentamethoxyflavone", "5,7,8,3\u2032,4\u2032-Pentamethoxyflavone", "6-Demethoxynobiletin", "2-(3,4-Dimethoxyphenyl)-5,7,8-trimethoxy-4H-chromen-4-one", "2-(3,4-Dimethoxyphenyl)-5,7,8-trimethoxychromen-4-one"], "SMILES": "O(C)C1=C2C(=C(OC)C(OC)=C1)OC(=CC2=O)C3=CC(OC)=C(OC)C=C3", "physical_data": {"Molecular Weight": "372.37", "Molecular Formula": "C20H20O7", "Melting Point": "198-199 \u00b0C"}}