{"cas_no": "1729-99-3", "cn_name": "8-\u6eb4-1-\u8418\u7532\u9178", "en_name": ["8-Bromo-1-naphthalenecarboxylic acid", "1-Naphthalenecarboxylic acid, 8-bromo-", "1-Naphthoic acid, 8-bromo-", "8-Bromo-1-naphthalenecarboxylic acid", "8-Bromo-1-naphthoic acid"], "SMILES": "C(O)(=O)C=1C2=C(C=CC=C2Br)C=CC1", "physical_data": {"Molecular Weight": "251.08", "Molecular Formula": "C11H7BrO2", "Melting Point": "178 \u00b0C"}}