{"cas_no": "172975-69-8", "cn_name": "3,5-\u4e8c\u7532\u57fa\u82ef\u787c\u9178", "en_name": ["(3,5-Dimethylphenyl)boronic acid", "Boronic acid, B-(3,5-dimethylphenyl)-", "Boronic acid, (3,5-dimethylphenyl)-", "B-(3,5-Dimethylphenyl)boronic acid", "(3,5-Dimethylphenyl)boronic acid", "(3,5-Dimethylphenyl)dihydroxyborane", "3,5-Dimethylbenzeneboronic acid"], "SMILES": "B(O)(O)C1=CC(C)=CC(C)=C1", "physical_data": {"Molecular Weight": "149.98", "Molecular Formula": "C8H11BO2", "Melting Point": "130-132 \u00b0C"}}