{"cas_no": "1729-67-5", "cn_name": "2,3-\u4e8c\u6eb4\u4e19\u9178\u7532\u916f", "en_name": ["Propanoic acid, 2,3-dibromo-, methyl ester", "Propanoic acid, 2,3-dibromo-, methyl ester", "Propionic acid, 2,3-dibromo-, methyl ester", "Methyl 2,3-dibromopropionate", "Methyl 2,3-dibromopropanoate", "Methyl \u03b1,\u03b2-dibromopropionate", "2,3-Dibromopropionic acid methyl ester", "(\u00b1)-2,3-Dibromopropionic acid methyl ester", "2,3-Dibromopropanoic acid methyl ester", "NSC 9372"], "SMILES": "C(C(OC)=O)(CBr)Br", "physical_data": {"Molecular Weight": "245.90", "Molecular Formula": "C4H6Br2O2", "Boiling Point": "206 \u00b0C", "Density": "1.9605 g/cm\u00b3 @ Temp: 0 \u00b0C"}}