{"cas_no": "17297-56-2", "cn_name": "\u5c71\u5948\u915a 3-O-\u6d0b\u69d0\u7cd6\u82f7", "en_name": ["Kaempferol 3-O-robinobioside", "4H-1-Benzopyran-4-one, 3-[[6-O-(6-deoxy-\u03b1-L-mannopyranosyl)-\u03b2-D-galactopyranosyl]oxy]-5,7-dihydroxy-2-(4-hydroxyphenyl)-", "Biorobin", "3-[[6-O-(6-Deoxy-\u03b1-L-mannopyranosyl)-\u03b2-D-galactopyranosyl]oxy]-5,7-dihydroxy-2-(4-hydroxyphenyl)-4H-1-benzopyran-4-one", "Kaempferol 3-\u03b2-robinobioside", "Kaempferol 3-\u03b2-robinoside", "Kaempferol 3-O-robinobioside", "Kaempferol 3-O-\u03b1-L-rhamnopyranosyl-(1\u21926)-\u03b2-D-galactopyranoside", "Kaempferol-3-O-\u03b2-D-robinobioside", "Kaempferol 3-rhamnosyl(1\u21926)galactoside", "Kaempferol 3-robinobioside", "Kaempferol 3-O-\u03b2-robinobioside", "Kaempferol 3-O-robinoside", "Kampferol-3-O-robinobioside"], "SMILES": "O(C1=C(OC=2C(C1=O)=C(O)C=C(O)C2)C3=CC=C(O)C=C3)C4OC(COC5C(O)C(O)C(O)C(C)O5)C(O)C(O)C4O", "physical_data": {"Molecular Weight": "594.52", "Molecular Formula": "C27H30O15", "Melting Point": "221-223 \u00b0C"}}