{"cas_no": "173089-82-2", "cn_name": "6-\u5f02\u55b9\u5549\u7532\u9178\u7532\u916f", "en_name": ["6-Isoquinolinecarboxylic acid, methyl ester", "6-Isoquinolinecarboxylic acid, methyl ester", "Methyl 6-isoquinolinecarboxylate"], "SMILES": "C(OC)(=O)C1=CC2=C(C=C1)C=NC=C2", "physical_data": {"Molecular Weight": "187.19", "Molecular Formula": "C11H9NO2", "Melting Point": "95 \u00b0C"}}