{"cas_no": "17302-82-8", "cn_name": "3,5-\u4e8c\u6c2f-4-\u7f9f\u57fa\u82ef\u7532\u9178\u4e59\u916f", "en_name": ["Ethyl 3,5-dichloro-4-hydroxybenzoate", "Benzoic acid, 3,5-dichloro-4-hydroxy-, ethyl ester", "Ethyl 4-hydroxy-3,5-dichlorobenzoate", "Ethyl 3,5-dichloro-4-hydroxybenzoate", "3,5-Dichloro-4-hydroxybenzoic acid ethyl ester", "NSC 74473"], "SMILES": "C(OCC)(=O)C1=CC(Cl)=C(O)C(Cl)=C1", "physical_data": {"Molecular Weight": "235.06", "Molecular Formula": "C9H8Cl2O3", "Melting Point": "111-112 \u00b0C"}}