{"cas_no": "1730-37-6", "cn_name": "1-\u7532\u57fa\u82b4", "en_name": ["1-Methylfluorene", "9H-Fluorene, 1-methyl-", "Fluorene, 1-methyl-", "1-Methyl-9H-fluorene", "1-Methylfluorene", "NSC 80183"], "SMILES": "CC1=C2C(C=3C(C2)=CC=CC3)=CC=C1", "physical_data": {"Molecular Weight": "180.25", "Molecular Formula": "C14H12", "Boiling Point": "318.1 \u00b0C", "Melting Point": "85 \u00b0C"}}