{"cas_no": "17302-46-4", "cn_name": "2-\u7f9f\u57fa-5-\u785d\u57fa\u82ef\u7532\u9178\u7532\u916f", "en_name": ["Benzoic acid, 2-hydroxy-5-nitro-, methyl ester", "Benzoic acid, 2-hydroxy-5-nitro-, methyl ester", "Salicylic acid, 5-nitro-, methyl ester", "Methyl 5-nitrosalicylate", "Methyl 2-hydroxy-5-nitrobenzoate", "Methyl 5-nitro-2-hydroxybenzoate", "2-Hydroxy-5-nitrobenzoic acid methyl ester"], "SMILES": "C(OC)(=O)C1=CC(N(=O)=O)=CC=C1O", "physical_data": {"Molecular Weight": "197.14", "Molecular Formula": "C8H7NO5", "Melting Point": "119 \u00b0C"}}