{"cas_no": "17306-46-6", "cn_name": "\u91ce\u6f06\u6811\u82f7", "en_name": ["Rhoifolin", "4H-1-Benzopyran-4-one, 7-[[2-O-(6-deoxy-\u03b1-L-mannopyranosyl)-\u03b2-D-glucopyranosyl]oxy]-5-hydroxy-2-(4-hydroxyphenyl)-", "Rhoifolin", "Neohesperidoside, apigenin-7, \u03b2-", "7-[[2-O-(6-Deoxy-\u03b1-L-mannopyranosyl)-\u03b2-D-glucopyranosyl]oxy]-5-hydroxy-2-(4-hydroxyphenyl)-4H-1-benzopyran-4-one", "Rhoifoloside", "Apigenin 7-neohesperidoside", "Apigenin 7-O-neohesperidoside", "Apigenin 7-O-\u03b2-neohesperidoside", "Apigenin 7-O-\u03b2-D-neohesperidoside", "Rhiofolin", "Rhiofolen"], "SMILES": "O=C1C=2C(OC(=C1)C3=CC=C(O)C=C3)=CC(OC4C(OC5C(O)C(O)C(O)C(C)O5)C(O)C(O)C(CO)O4)=CC2O", "physical_data": {"Molecular Weight": "578.52", "Molecular Formula": "C27H30O14", "Melting Point": "250-265 \u00b0C"}}