{"cas_no": "1730-48-9", "cn_name": "6-\u7532\u6c27\u57fa-1,2,3,4-\u56db\u6c22\u8418", "en_name": ["6-Methoxy-1,2,3,4-tetrahydronaphthalene", "Naphthalene, 1,2,3,4-tetrahydro-6-methoxy-", "1,2,3,4-Tetrahydro-6-methoxynaphthalene", "6-Methoxytetralin", "6-Methoxy-1,2,3,4-tetrahydronaphthalene", "2-Methoxy-5,6,7,8-tetrahydronaphthalene", "7-Methoxy-1,2,3,4-tetrahydronaphthalene", "NSC 28470", "3-Methoxy-5,6,7,8-tetrahydronaphthalene", "7-Methoxy-3,4-dihydro-1H-naphthalene"], "SMILES": "O(C)C=1C=C2C(=CC1)CCCC2", "physical_data": {"Molecular Weight": "162.23", "Molecular Formula": "C11H14O", "Boiling Point": "103-105 \u00b0C @ Press: 5.5 Torr", "Melting Point": "134-137 \u00b0C"}}