{"cas_no": "1730-92-3", "cn_name": "(S)-3-\u7532\u57fa\u620a\u9178", "en_name": ["(3S)-3-Methylpentanoic acid", "Pentanoic acid, 3-methyl-, (3S)-", "Valeric acid, 3-methyl-, (S)-(+)-", "Pentanoic acid, 3-methyl-, (S)-", "(3S)-3-Methylpentanoic acid", "(+)-3-Methylvaleric acid", "(S)-3-Methylpentanoic acid", "(+)-3-Methylpentanoic acid", "(S)-(+)-3-Methylvaleric acid", "(S)-3-Methylvaleric acid", "(3S)-3-Methylpentanoic acid"], "SMILES": "C(CC(O)=O)(CC)C", "physical_data": {"Molecular Weight": "116.16", "Molecular Formula": "C6H12O2", "Boiling Point": "100-103 \u00b0C @ Press: 12.5 Torr", "Density": "0.9735 g/cm\u00b3 @ Temp: 30 \u00b0C"}}