{"cas_no": "17301-94-9", "cn_name": "4-\u7532\u57fa\u58ec\u70f7", "en_name": ["(\u00b1)-4-Methylnonane", "Nonane, 4-methyl-", "4-Methylnonane", "4-n-Methylnonane", "(\u00b1)-4-Methylnonane"], "SMILES": "C(C(CCC)C)CCCC", "physical_data": {"Molecular Weight": "142.28", "Molecular Formula": "C10H22", "Boiling Point": "165.7 \u00b0C", "Melting Point": "-99 \u00b0C", "Density": "0.726 g/cm\u00b3 @ Temp: 27 \u00b0C"}}