{"cas_no": "17306-05-7", "cn_name": "\u7532\u57fa\u82ef\u57fa\u4e59\u70ef\u57fa\u6c2f\u7845\u70f7", "en_name": ["(Chloroethenylmethylsilyl)benzene", "Benzene, (chloroethenylmethylsilyl)-", "Silane, chloromethylphenylvinyl-", "Silane, chloroethenylmethylphenyl-", "(Chloroethenylmethylsilyl)benzene", "Phenyl(vinyl)methyl(chloro)silane", "Chloromethylphenylvinylsilane", "Vinylmethyl(phenyl)chlorosilane"], "SMILES": "[Si](C=C)(C)(Cl)C1=CC=CC=C1", "physical_data": {"Molecular Weight": "182.72", "Molecular Formula": "C9H11ClSi", "Boiling Point": "79-80 \u00b0C @ Press: 3-4 Torr", "Density": "1.034 g/cm\u00b3"}}