{"cas_no": "17308-02-0", "cn_name": "17-\u7f9f\u57fa\u5b55\u753e-4-\u70ef-3,20-\u4e8c\u916e-17-\u918b\u9178\u916f", "en_name": ["Pregn-4-ene-3,20-dione, 17-(acetyloxy)-, (17\u03b1)-", "Pregn-4-ene-3,20-dione, 17-(acetyloxy)-, (17\u03b1)-", "17\u03b1-Pregn-4-ene-3,20-dione, 17-hydroxy-, acetate", "17-Acetoxyisopregn-4-ene-3,20-dione"], "SMILES": "O(C(C)=O)C1(C(C)=O)C2(C)C(CC1)C3C(CC2)C4(C)C(CC3)=CC(=O)CC4", "physical_data": {"Molecular Weight": "372.50", "Molecular Formula": "C23H32O4", "Melting Point": "198 \u00b0C"}}