{"cas_no": "1730-91-2", "cn_name": "(S)-(+)-2-\u7532\u57fa\u4e01\u9178", "en_name": ["(+)-2-Methylbutanoic acid", "Butanoic acid, 2-methyl-, (2S)-", "Butyric acid, 2-methyl-, (S)-", "Butanoic acid, 2-methyl-, (S)-", "Butyric acid, 2-methyl-, l-", "(2S)-2-Methylbutanoic acid", "(+)-2-Methylbutyric acid", "S-(+)-2-Methylbutanoic acid", "(S)-2-Methylbutanoic acid", "(S)-(+)-2-Methylbutyric acid", "(+)-(S)-2-Methylbutanoic acid", "(S)-2-Methylbutyric acid", "(+)-2-Methylbutanoic acid", "(+)-\u03b1-Methylbutyric acid", "(2S)-2-Methylbutyric acid", "(2S)-2-Methylbutanoic acid"], "SMILES": "C(C(O)=O)(CC)C", "physical_data": {"Molecular Weight": "102.13", "Molecular Formula": "C5H10O2", "Boiling Point": "172-174 \u00b0C", "Density": "0.9332 g/cm\u00b3 @ Temp: 25 \u00b0C"}}