{"cas_no": "17303-67-2", "cn_name": "GONIOTHALAMIN", "en_name": ["Goniothalamin", "2H-Pyran-2-one, 5,6-dihydro-6-[(1E)-2-phenylethenyl]-, (6R)-", "2H-Pyran-2-one, 5,6-dihydro-6-(2-phenylethenyl)-, [R-(E)]-", "(6R)-5,6-Dihydro-6-[(1E)-2-phenylethenyl]-2H-pyran-2-one", "Goniothalamin", "(6R)-(+)-5,6-Dihydro-6-styryl-2-pyrone", "(+)-Goniothalamin", "(6R)-(+)-Goniothalamin", "(R)-Goniothalamin", "(R)-(+)-Goniothalamin", "(+)-(R)-Goniothalamin"], "SMILES": "C(=CC1=CC=CC=C1)C2OC(=O)C=CC2", "physical_data": {"Molecular Weight": "200.23", "Molecular Formula": "C13H12O2", "Melting Point": "79-81 \u00b0C"}}