{"cas_no": "17313-52-9", "cn_name": "\u77e2\u8f66\u83ca\u9ec4\u7d20", "en_name": ["Centaureidin", "4H-1-Benzopyran-4-one, 5,7-dihydroxy-2-(3-hydroxy-4-methoxyphenyl)-3,6-dimethoxy-", "Flavone, 3\u2032,5,7-trihydroxy-3,4\u2032,6-trimethoxy-", "Centaureidin", "5,7-Dihydroxy-2-(3-hydroxy-4-methoxyphenyl)-3,6-dimethoxy-4H-1-benzopyran-4-one", "Quercetagetin 3,4\u2032,6-trimethyl ether", "5,7,3\u2032-Trihydroxy-3,6,4\u2032-trimethoxyflavone", "NSC 106969", "Desmethoxycentaureidine"], "SMILES": "O(C)C1=C(OC=2C(C1=O)=C(O)C(OC)=C(O)C2)C3=CC(O)=C(OC)C=C3", "physical_data": {"Molecular Weight": "360.31", "Molecular Formula": "C18H16O8", "Melting Point": "203 \u00b0C"}}