{"cas_no": "17316-67-5", "cn_name": "\u5e03\u4ed6\u78f7", "en_name": ["P-[1-(Butylamino)-1-methylethyl]phosphinic acid", "Phosphinic acid, P-[1-(butylamino)-1-methylethyl]-", "Phosphinic acid, [1-(butylamino)-1-methylethyl]-", "P-[1-(Butylamino)-1-methylethyl]phosphinic acid", "1-(Butylamino)-1-methylethylphosphonous acid", "Butaphosphan", "Butafosfan", "(1-Butylamino-1-methyl-ethyl)-phosphinic acid", "[2-(Butylamino)propan-2-yl]phosphinic acid"], "SMILES": "C(NCCCC)(P(=O)O)(C)C", "physical_data": {"Molecular Weight": "179.20", "Molecular Formula": "C7H18NO2P", "Melting Point": "219 \u00b0C"}}