{"cas_no": "17311-31-8", "cn_name": "2,3-\u55b9\u5594\u5549\u4e8c\u7532\u9187 1,4-\u4e8c\u6c27\u5316\u7269", "en_name": ["2,3-Quinoxalinedimethanol, 1,4-dioxide", "2,3-Quinoxalinedimethanol, 1,4-dioxide", "2,3-Bis(hydroxymethyl)quinoxaline-1,4-di-N-oxide", "Dioxidine", "2,3-Di(hydroxymethyl)quinoxaline di-N-oxide", "2,3-Di(hydroxymethyl)quinoxaline 1,4-di-N-oxide", "Dioxydine", "Metrosept", "Mastoxidine", "Farmoxidin", "2,3-bis(hydroxymethyl)quinoxaline-1,4-diium-1,4-bis(olate)"], "SMILES": "O=N=1C2=C(N(=O)=C(CO)C1CO)C=CC=C2", "physical_data": {"Molecular Weight": "222.20", "Molecular Formula": "C10H10N2O4", "Melting Point": "170-171 \u00b0C"}}