{"cas_no": "173101-54-7", "cn_name": "\u5f02\u4e09\u5c16\u6749\u5b81\u78b1", "en_name": ["(2aR,4S,4aS,6R,9S,11S,12S,12aR,12bS)-6,12b-Bis(acetyloxy)-2a,3,4,4a,5,6,9,10,11,12,12a,12b-dodecahydro-4,11-dihydroxy-4a,8,13,13-tetramethyl-12-[[(2E)-2-methyl-1-oxo-2-buten-1-yl]oxy]-5-oxo-7,11-methano-1H-cyclodeca[3,4]benz[1,2-b]oxet-9-yl (\u03b1R,\u03b2S)-\u03b2-(benzoylamino)-\u03b1-hydroxybenzenepropanoate", "Benzenepropanoic acid, \u03b2-(benzoylamino)-\u03b1-hydroxy-, (2aR,4S,4aS,6R,9S,11S,12S,12aR,12bS)-6,12b-bis(acetyloxy)-2a,3,4,4a,5,6,9,10,11,12,12a,12b-dodecahydro-4,11-dihydroxy-4a,8,13,13-tetramethyl-12-[[(2E)-2-methyl-1-oxo-2-buten-1-yl]oxy]-5-oxo-7,11-methano-1H-cyclodeca[3,4]benz[1,2-b]oxet-9-yl ester, (\u03b1R,\u03b2S)-", "Benzenepropanoic acid, \u03b2-(benzoylamino)-\u03b1-hydroxy-, 6,12b-bis(acetyloxy)-2a,3,4,4a,5,6,9,10,11,12,12a,12b-dodecahydro-4,11-dihydroxy-4a,8,13,13-tetramethyl-12-[(2-methyl-1-oxo-2-butenyl)oxy]-5-oxo-7,11-methano-1H-cyclodeca[3,4]benz[1,2-b]oxet-9-yl ester, [2aR-[2a\u03b1,4\u03b2,4a\u03b2,6\u03b2,9\u03b1(\u03b1R*,\u03b2S*),11\u03b1,12\u03b1(E),12a\u03b1,12b\u03b1]]-", "Benzenepropanoic acid, \u03b2-(benzoylamino)-\u03b1-hydroxy-, (2aR,4S,4aS,6R,9S,11S,12S,12aR,12bS)-6,12b-bis(acetyloxy)-2a,3,4,4a,5,6,9,10,11,12,12a,12b-dodecahydro-4,11-dihydroxy-4a,8,13,13-tetramethyl-12-[[(2E)-2-methyl-1-oxo-2-butenyl]oxy]-5-oxo-7,11-methano-1H-cyclodeca[3,4]benz[1,2-b]oxet-9-yl ester, (\u03b1R,\u03b2S)-", "(2aR,4S,4aS,6R,9S,11S,12S,12aR,12bS)-6,12b-Bis(acetyloxy)-2a,3,4,4a,5,6,9,10,11,12,12a,12b-dodecahydro-4,11-dihydroxy-4a,8,13,13-tetramethyl-12-[[(2E)-2-methyl-1-oxo-2-buten-1-yl]oxy]-5-oxo-7,11-methano-1H-cyclodeca[3,4]benz[1,2-b]oxet-9-yl (\u03b1R,\u03b2S)-\u03b2-(benzoylamino)-\u03b1-hydroxybenzenepropanoate", "Isocephalomannine", "2-Debenzoyl-2-tigloylpaclitaxel"], "SMILES": "O(C(C)=O)C12C3C(OC(C(=CC)C)=O)C4(O)C(C)(C)C(C(OC(C)=O)C(=O)C3(C)C(O)CC1OC2)=C(C)C(OC(C(C(NC(=O)C5=CC=CC=C5)C6=CC=CC=C6)O)=O)C4", "physical_data": {"Molecular Weight": "831.90", "Molecular Formula": "C45H53NO14", "Melting Point": "232 \u00b0C (decomp)"}}