{"cas_no": "1731-92-6", "cn_name": "\u5341\u4e03\u70f7\u9178\u7532\u916f", "en_name": ["Methyl heptadecanoate", "Heptadecanoic acid, methyl ester", "Methyl margarate", "Methyl heptadecanoate", "Margaric acid methyl ester", "NSC 97364", "A 27667"], "SMILES": "C(CCCCCCCCCCCC)CCCC(OC)=O", "physical_data": {"Molecular Weight": "284.48", "Molecular Formula": "C18H36O2", "Boiling Point": "185 \u00b0C @ Press: 9 Torr", "Melting Point": "30 \u00b0C"}}