{"cas_no": "1731-79-9", "cn_name": "\u5341\u4e8c\u70f7\u4e8c\u9178\u4e8c\u7532\u916f", "en_name": ["1,12-Dimethyl dodecanedioate", "Dodecanedioic acid, 1,12-dimethyl ester", "Dodecanedioic acid, dimethyl ester", "1,12-Dimethyl dodecanedioate", "Dimethyl dodecanedioate", "Dimethyl 1,12-dodecanedioate", "Dimethyl 1,10-decanedicarboxylate", "1,10-Decanedicarboxylic acid dimethyl ester", "Dimethyl decamethylenedicarboxylate", "DMD 2", "NSC 118878"], "SMILES": "C(CCCCCCCCCCC(OC)=O)(OC)=O", "physical_data": {"Molecular Weight": "258.35", "Molecular Formula": "C14H26O4", "Boiling Point": "17.5-17.7 \u00b0C @ Press: 10 Torr", "Melting Point": "31.9 \u00b0C"}}