{"cas_no": "1731-86-8", "cn_name": "\u5341\u4e00\u9178\u7532\u916f", "en_name": ["Methyl undecanoate", "Undecanoic acid, methyl ester", "Methyl undecanoate", "Methyl n-undecanoate"], "SMILES": "C(CCC(OC)=O)CCCCCCC", "physical_data": {"Molecular Weight": "200.32", "Molecular Formula": "C12H24O2", "Boiling Point": "230-260 \u00b0C"}}