{"cas_no": "1731-84-6", "cn_name": "\u58ec\u9178\u7532\u916f", "en_name": ["Methyl nonanoate", "Nonanoic acid, methyl ester", "Methyl nonanoate", "Methyl nonylate", "Methyl pelargonate", "Methyl n-nonanoate", "Pelargonic acid methyl ester"], "SMILES": "C(CCC(OC)=O)CCCCC", "physical_data": {"Molecular Weight": "172.26", "Molecular Formula": "C10H20O2", "Boiling Point": "213.5 \u00b0C", "Density": "0.8655 g/cm\u00b3 @ Temp: 25 \u00b0C"}}