{"cas_no": "1731-88-0", "cn_name": "\u5341\u4e09\u9178\u7532\u916f", "en_name": ["Methyl tridecanoate", "Tridecanoic acid, methyl ester", "Methyl n-tridecanoate", "Methyl tridecanoate", "NSC 163375"], "SMILES": "C(CCC(OC)=O)CCCCCCCCC", "physical_data": {"Molecular Weight": "228.37", "Molecular Formula": "C14H28O2", "Boiling Point": "92 \u00b0C", "Melting Point": "6.5 \u00b0C"}}