{"cas_no": "1732-13-4", "cn_name": "1,2,3,6,7,8-\u516d\u6c22\u8298", "en_name": ["1,2,3,6,7,8-Hexahydropyrene", "Pyrene, 1,2,3,6,7,8-hexahydro-", "1,2,3,6,7,8-Hexahydropyrene", "NSC 60599"], "SMILES": "C12=C3C4=CC=C1CCCC2=CC=C3CCC4", "physical_data": {"Molecular Weight": "208.30", "Molecular Formula": "C16H16", "Melting Point": "133 \u00b0C"}}