{"cas_no": "1732-26-9", "cn_name": "4-\u6eb4\u8298", "en_name": ["4-Bromopyrene", "Pyrene, 4-bromo-", "4-Bromopyrene"], "SMILES": "BrC=1C=2C3=C4C(C1)=CC=CC4=CC=C3C=CC2", "physical_data": {"Molecular Weight": "281.15", "Molecular Formula": "C16H9Br", "Melting Point": "148.2-150.2 \u00b0C"}}