{"cas_no": "1732-10-1", "cn_name": "\u58ec\u4e8c\u9178\u4e8c\u7532\u916f", "en_name": ["Dimethyl azelate", "Nonanedioic acid, 1,9-dimethyl ester", "Azelaic acid, dimethyl ester", "Nonanedioic acid, dimethyl ester", "Dimethyl azelate", "Methyl azelate", "Dimethyl nonanedioate", "Dimethyl nonane-1,9-dioate", "NSC 59040"], "SMILES": "C(CCCCCCCC(OC)=O)(OC)=O", "physical_data": {"Molecular Weight": "216.27", "Molecular Formula": "C11H20O4", "Boiling Point": "175 \u00b0C @ Press: 38 Torr", "Density": "1.0069 g/cm\u00b3 @ Temp: 20 \u00b0C"}}