{"cas_no": "17320-10-4", "cn_name": "4\u0392-\u7f9f\u57fa\u80c6\u56fa\u9187", "en_name": ["4\u03b2-Hydroxycholesterol", "Cholest-5-ene-3,4-diol, (3\u03b2,4\u03b2)-", "Cholest-5-ene-3\u03b2,4\u03b2-diol", "(3\u03b2,4\u03b2)-Cholest-5-ene-3,4-diol", "3\u03b2,4\u03b2-Dihydroxycholest-5-ene", "4\u03b2-Hydroxycholesterol", "cis-\u03945-Cholestene-3,4-diol", "cis-3,4-Dihydroxy-\u03945-cholestene"], "SMILES": "CC12C3C(C4C(C)(CC3)C(C(CCCC(C)C)C)CC4)CC=C1C(O)C(O)CC2", "physical_data": {"Molecular Weight": "402.65", "Molecular Formula": "C27H46O2", "Melting Point": "175-176 \u00b0C"}}