{"cas_no": "1732-09-8", "cn_name": "\u8f9b\u4e8c\u9178\u4e8c\u7532\u916f", "en_name": ["Dimethyl suberate", "Octanedioic acid, 1,8-dimethyl ester", "Suberic acid, dimethyl ester", "Octanedioic acid, dimethyl ester", "Dimethyl octanedioate", "Dimethyl suberate", "Dimethyl 1,8-octanedioate"], "SMILES": "C(CCCCCCC(OC)=O)(OC)=O", "physical_data": {"Molecular Weight": "202.25", "Molecular Formula": "C10H18O4", "Boiling Point": "268 \u00b0C", "Melting Point": "-3.1 \u00b0C"}}