{"cas_no": "17329-31-6", "cn_name": "6-\u6c28\u57fa-3H-\u55b9\u5511\u5549-4-\u916e", "en_name": ["6-Amino-4(3H)-quinazolinone", "4(3H)-Quinazolinone, 6-amino-", "4(1H)-Quinazolinone, 6-amino-", "6-Amino-4(3H)-quinazolinone", "6-Amino-4-quinazolinone", "6-Amino-4-hydroxyquinazoline", "6-Amino-3H-quinazolin-4-one", "NSC 338202", "6-Amino-4(1H)-quinazolinone", "6-Aminoquinazolin-4-ol"], "SMILES": "O=C1C=2C(=CC=C(N)C2)NC=N1", "physical_data": {"Molecular Weight": "161.16", "Molecular Formula": "C8H7N3O", "Melting Point": "303 \u00b0C"}}