{"cas_no": "1732-08-7", "cn_name": "\u5e9a\u4e8c\u9178\u4e8c\u7532\u916f", "en_name": ["Dimethyl pimelate", "Heptanedioic acid, 1,7-dimethyl ester", "Pimelic acid, dimethyl ester", "Heptanedioic acid, dimethyl ester", "Dimethyl pimelate", "Dimethyl heptanedioate", "Dimethyl 1,7-heptanedioate", "NSC 52563"], "SMILES": "C(CCCCC(OC)=O)C(OC)=O", "physical_data": {"Molecular Weight": "188.22", "Molecular Formula": "C9H16O4", "Boiling Point": "120 \u00b0C", "Melting Point": "-21 \u00b0C"}}