{"cas_no": "17327-22-9", "cn_name": "5,6-\u4e8c\u6c22-4-\u7532\u6c27\u57fa-2H-\u5421\u5583", "en_name": ["3,6-Dihydro-4-methoxy-2H-pyran", "2H-Pyran, 3,6-dihydro-4-methoxy-", "3,6-Dihydro-4-methoxy-2H-pyran", "4-Methoxy-5,6-dihydro-2H-pyran", "5,6-Dihydro-4-methoxy-2H-pyran", "4-Methoxy-3,6-dihydro-2H-pyran"], "SMILES": "O(C)C=1CCOCC1", "physical_data": {"Molecular Weight": "114.14", "Molecular Formula": "C6H10O2", "Boiling Point": "156-157 \u00b0C"}}