{"cas_no": "1732-96-3", "cn_name": "\u4e59\u4e8c\u9187\u53cc\u504f\u82ef\u4e09\u9178\u9150", "en_name": ["Ethylene glycol bis(anhydrotrimellitate)", "5-Isobenzofurancarboxylic acid, 1,3-dihydro-1,3-dioxo-, 5,5\u2032-(1,2-ethanediyl) ester", "1,2,4-Benzenetricarboxylic acid, cyclic 1,2-anhydride, ethylene ester", "5-Isobenzofurancarboxylic acid, 1,3-dihydro-1,3-dioxo-, 1,2-ethanediyl ester", "1,2,4-Benzenetricarboxylic acid, 1,2-anhydride, ethylene ester", "Ethylene glycol, diester with 1,2,4-benzenetricarboxylic acid cyclic 1,2-anhydride", "4,4\u2032-Ethylene dimellitate dianhydride", "Ethylene glycol bis(trimellitic anhydride)", "Trimellitic anhydride-ethylene glycol ester (2:1)", "Ethylene bis(trimellitate) dianhydride", "Ethylene glycol bis(anhydrotrimellitate)", "Rikacid TMEG", "Rikacid TMEG 200", "Rikaresin TMEG", "Rikacid TMEG 500", "Rikacid TMEG 100", "TMEG 200", "TMEG 100", "Rikacid TMEG-S", "Rikacid TMEG 1000", "Rikacid TMEG 600", "TMEG", "Ethylene glycol di(trimellitic anhydride) ester", "Ethylene glycol bistrimellitate", "Ethylene glycol bis(trimellitate anhydride)", "TMEG 600"], "SMILES": "O=C1C=2C(C(=O)O1)=CC=C(C(OCCOC(=O)C=3C=C4C(=CC3)C(=O)OC4=O)=O)C2", "physical_data": {"Molecular Weight": "410.29", "Molecular Formula": "C20H10O10", "Melting Point": "134 \u00b0C"}}