{"cas_no": "17321-77-6", "cn_name": "\u76d0\u9178\u6c2f\u7c73\u5e15\u660e", "en_name": ["Clomipramine hydrochloride", "5H-Dibenz[b,f]azepine-5-propanamine, 3-chloro-10,11-dihydro-N,N-dimethyl-, hydrochloride (1:1)", "5H-Dibenz[b,f]azepine, 3-chloro-5-[3-(dimethylamino)propyl]-10,11-dihydro-, monohydrochloride", "5H-Dibenz[b,f]azepine-5-propanamine, 3-chloro-10,11-dihydro-N,N-dimethyl-, monohydrochloride", "3-Chloro-5-(3-dimethylaminopropyl)-10,11-dihydro-5H-dibenz[b,f]azepine hydrochloride", "Chlorimipramine hydrochloride", "Anafranil", "3-Chloroimipramine hydrochloride", "Anaphranil", "Chloroimipramine monohydrochloride", "Clomipramine hydrochloride", "Anatranil"], "SMILES": "C(CCN(C)C)N1C=2C(CCC=3C1=CC=CC3)=CC=C(Cl)C2.Cl", "physical_data": {"Molecular Weight": "", "Molecular Formula": "C19H23ClN2.ClH", "Melting Point": "189-190 \u00b0C"}}