{"cas_no": "17332-11-5", "cn_name": "2-\u6eb4-4-\u7532\u6c27\u57fa\u82ef\u915a", "en_name": ["2-Bromo-4-methoxyphenol", "Phenol, 2-bromo-4-methoxy-", "2-Bromo-4-methoxyphenol", "NSC 168509", "2-Bromo-4-methoxybenzenol"], "SMILES": "O(C)C1=CC(Br)=C(O)C=C1", "physical_data": {"Molecular Weight": "203.03", "Molecular Formula": "C7H7BrO2", "Boiling Point": "146 \u00b0C @ Press: 30 Torr", "Melting Point": "77-78 \u00b0C"}}