{"cas_no": "1733-12-6", "cn_name": "\u7532\u915a\u7ea2", "en_name": ["Cresol red", "Phenol, 4,4\u2032-(1,1-dioxido-3H-2,1-benzoxathiol-3-ylidene)bis[2-methyl-", "o-Cresol, 4,4\u2032-(3H-2,1-benzoxathiol-3-ylidene)di-, S,S-dioxide", "o-Cresolsulfonephthalein", "Phenol, 4,4\u2032-(3H-2,1-benzoxathiol-3-ylidene)bis[2-methyl-, S,S-dioxide", "o-Toluenesulfonic acid, \u03b1-hydroxy-\u03b1,\u03b1-bis(4-hydroxy-m-tolyl)-, \u03b3-sultone", "3H-2,1-Benzoxathiole, phenol deriv.", "4,4\u2032-(1,1-Dioxido-3H-2,1-benzoxathiol-3-ylidene)bis[2-methylphenol]", "o-Cresol Red", "o-Cresolsulfonphthalein", "Cresol red", "3\u2032,3\u2032\u2032-Dimethylphenolsulfonephthalein", "Cresolsulfophthalein", "NSC 7224", "m-Cresol red"], "SMILES": "O=S1(=O)OC(C=2C1=CC=CC2)(C3=CC(C)=C(O)C=C3)C4=CC(C)=C(O)C=C4", "physical_data": {"Molecular Weight": "382.43", "Molecular Formula": "C21H18O5S", "Melting Point": "&gt;300 \u00b0C"}}