{"cas_no": "173334-58-2", "cn_name": "\u963f\u5229\u514b\u4ed1\u534a\u5bcc\u9a6c\u9178\u76d0", "en_name": ["Aliskiren hemifumarate", "Benzeneoctanamide, \u03b4-amino-N-(3-amino-2,2-dimethyl-3-oxopropyl)-\u03b3-hydroxy-4-methoxy-3-(3-methoxypropoxy)-\u03b1,\u03b6-bis(1-methylethyl)-, (\u03b1S,\u03b3S,\u03b4S,\u03b6S)-, (2E)-2-butenedioate (2:1)", "Benzeneoctanamide, \u03b4-amino-N-(3-amino-2,2-dimethyl-3-oxopropyl)-\u03b3-hydroxy-4-methoxy-3-(3-methoxypropoxy)-\u03b1,\u03b6-bis(1-methylethyl)-, [\u03b1S-(\u03b1R*,\u03b3R*,\u03b4R*,\u03b6R*)]-, (E)-2-butenedioate (2:1) (salt)", "Benzeneoctanamide, \u03b4-amino-N-(3-amino-2,2-dimethyl-3-oxopropyl)-\u03b3-hydroxy-4-methoxy-3-(3-methoxypropoxy)-\u03b1,\u03b6-bis(1-methylethyl)-, (\u03b1S,\u03b3S,\u03b4S,\u03b6S)-, (2E)-2-butenedioate (2:1) (salt)", "Aliskiren hemifumarate", "Aliskiren fumarate"], "SMILES": "C(=CC(O)=O)C(O)=O.O(CCCOC)C1=C(OC)C=CC(CC(CC(C(CC(C(NCC(C(N)=O)(C)C)=O)C(C)C)O)N)C(C)C)=C1", "physical_data": {"Molecular Weight": "", "Molecular Formula": "C30H53N3O6.<sup>1</sup>/2C4H4O4", "Melting Point": "108-115 \u00b0C"}}