{"cas_no": "173336-76-0", "cn_name": "4-\u6eb4-1-\u7532\u6c27\u57fa-2-(3-\u7532\u6c27\u57fa\u4e19\u6c27\u57fa)\u82ef", "en_name": ["4-Bromo-1-methoxy-2-(3-methoxypropoxy)benzene", "Benzene, 4-bromo-1-methoxy-2-(3-methoxypropoxy)-", "4-Bromo-1-methoxy-2-(3-methoxypropoxy)benzene", "4-Methoxy-3-(3-methoxypropoxy)phenyl bromide", "1-Bromo-4-methoxy-3-(3-methoxypropoxy)benzene"], "SMILES": "O(CCCOC)C1=C(OC)C=CC(Br)=C1", "physical_data": {"Molecular Weight": "275.14", "Molecular Formula": "C11H15BrO3", "Melting Point": "39 \u00b0C"}}