{"cas_no": "173334-57-1", "cn_name": "\u963f\u5229\u514b\u4ed1", "en_name": ["Aliskiren", "Benzeneoctanamide, \u03b4-amino-N-(3-amino-2,2-dimethyl-3-oxopropyl)-\u03b3-hydroxy-4-methoxy-3-(3-methoxypropoxy)-\u03b1,\u03b6-bis(1-methylethyl)-, (\u03b1S,\u03b3S,\u03b4S,\u03b6S)-", "Benzeneoctanamide, \u03b4-amino-N-(3-amino-2,2-dimethyl-3-oxopropyl)-\u03b3-hydroxy-4-methoxy-3-(3-methoxypropoxy)-\u03b1,\u03b6-bis(1-methylethyl)-, [\u03b1S-(\u03b1R*,\u03b3R*,\u03b4R*,\u03b6R*)]-", "(\u03b1S,\u03b3S,\u03b4S,\u03b6S)-\u03b4-Amino-N-(3-amino-2,2-dimethyl-3-oxopropyl)-\u03b3-hydroxy-4-methoxy-3-(3-methoxypropoxy)-\u03b1,\u03b6-bis(1-methylethyl)benzeneoctanamide", "CGP 60536", "Aliskiren", "CGP60536B", "SPP 100", "Tekturna", "Rasilez", "(2S,4S,5S,7S)-N-(2-Carbamoyl-2-methylpropyl)-5-amino-4-hydroxy-2,7-diisopropyl-8-[4-methoxy-3-(3-methoxypropoxy)phenyl]octanamide", "Sprimeo", "Riprazo", "Enviage"], "SMILES": "O(CCCOC)C1=C(OC)C=CC(CC(CC(C(CC(C(NCC(C(N)=O)(C)C)=O)C(C)C)O)N)C(C)C)=C1", "physical_data": {"Molecular Weight": "551.76", "Molecular Formula": "C30H53N3O6", "Melting Point": "98-99 \u00b0C"}}