{"cas_no": "1733-57-9", "cn_name": "\u4e59\u57fa\u4e8c\u82ef\u57fa\u6c27\u5316\u81a6", "en_name": ["Ethyldiphenylphosphine oxide", "Phosphine oxide, ethyldiphenyl-", "Ethyldiphenylphosphine oxide", "Diphenyl(ethyl)phosphine oxide", "Diphenylphosphinoethane monoxide"], "SMILES": "P(CC)(=O)(C1=CC=CC=C1)C2=CC=CC=C2", "physical_data": {"Molecular Weight": "230.24", "Molecular Formula": "C14H15OP", "Boiling Point": "176-177 \u00b0C @ Press: 13 Torr", "Melting Point": "120.5-121 \u00b0C", "Density": "1.0749 g/cm\u00b3"}}