{"cas_no": "17337-13-2", "cn_name": "\u5f02\u6c30\u91782-\u8054\u82ef\u916f", "en_name": ["2-Biphenyl isocyanate", "1,1\u2032-Biphenyl, 2-isocyanato-", "Isocyanic acid, 2-biphenylyl ester", "2-Isocyanato-1,1\u2032-biphenyl", "o-Biphenylyl isocyanate", "2-Isocyanatobiphenyl", "2-Biphenylyl isocyanate", "2-Phenylphenyl isocyanate", "2-Biphenyl isocyanate", "NSC 8076", "1-Isocyanato-2-phenylbenzene"], "SMILES": "N(=C=O)C1=C(C=CC=C1)C2=CC=CC=C2", "physical_data": {"Molecular Weight": "195.22", "Molecular Formula": "C13H9NO", "Boiling Point": "100 \u00b0C @ Press: 0.5-1 Torr", "Melting Point": "56 \u00b0C"}}