{"cas_no": "1733-25-1", "cn_name": "\u60d5\u5404\u9178\u5f02\u4e19\u916f", "en_name": ["Isopropyl tiglate", "2-Butenoic acid, 2-methyl-, 1-methylethyl ester, (2E)-", "2-Butenoic acid, 2-methyl-, 1-methylethyl ester, (E)-", "Isopropyl tiglate", "Tiglic acid isopropyl ester"], "SMILES": "C(C(=CC)C)(OC(C)C)=O", "physical_data": {"Molecular Weight": "142.20", "Molecular Formula": "C8H14O2", "Boiling Point": "70-73 \u00b0C @ Press: 8 Torr"}}