{"cas_no": "173315-54-3", "cn_name": "2-\u6c2f-4-\u6c1f-3-\u7532\u57fa\u82ef\u7532\u9178", "en_name": ["2-Chloro-4-fluoro-3-methylbenzoic acid", "Benzoic acid, 2-chloro-4-fluoro-3-methyl-", "2-Chloro-4-fluoro-3-methylbenzoic acid"], "SMILES": "C(O)(=O)C1=C(Cl)C(C)=C(F)C=C1", "physical_data": {"Molecular Weight": "188.58", "Molecular Formula": "C8H6ClFO2", "Melting Point": "194-196 \u00b0C"}}