{"cas_no": "17334-09-7", "cn_name": "\u54aa\u5511-2 -\u7fa7\u9178\u7532\u916f", "en_name": ["Methyl 1H-imidazole-2-carboxylate", "1H-Imidazole-2-carboxylic acid, methyl ester", "Imidazole-2-carboxylic acid, methyl ester", "Methyl 1H-imidazole-2-carboxylate", "2-Methoxycarbonylimidazole"], "SMILES": "C(OC)(=O)C=1NC=CN1", "physical_data": {"Molecular Weight": "126.11", "Molecular Formula": "C5H6N2O2", "Melting Point": "195.5-196.0 \u00b0C"}}