{"cas_no": "17341-93-4", "cn_name": "\u6c2f\u7532\u9178-2,2,2-\u4e09\u6c2f\u4e59\u916f", "en_name": ["2,2,2-Trichloroethyl chloroformate", "Carbonochloridic acid, 2,2,2-trichloroethyl ester", "Formic acid, chloro-, 2,2,2-trichloroethyl ester", "Ethanol, 2,2,2-trichloro-, chloroformate", "2,2,2-Trichloroethyl chloroformate", "2,2,2-Trichloroethoxycarbonyl chloride", "\u03b2,\u03b2,\u03b2-Trichloroethyl chloroformate", "\u03b2,\u03b2,\u03b2-Trichloroethoxycarbonyl chloride", "(Trichloroethoxy)chloroformate", "NSC 152038", "Chloroformic acid 2,2,2-trichloroethyl ester", "Troc-Cl", "2,2,2-Trichloroethyl carbonochloridate"], "SMILES": "C(C(Cl)(Cl)Cl)OC(Cl)=O", "physical_data": {"Molecular Weight": "211.86", "Molecular Formula": "C3H2Cl4O2", "Boiling Point": "52-53 \u00b0C @ Press: 9-10 Torr"}}