{"cas_no": "1734-79-8", "cn_name": "4-\u785d\u57fa\u8089\u6842\u919b", "en_name": ["4-Nitrocinnamaldehyde", "2-Propenal, 3-(4-nitrophenyl)-", "Cinnamaldehyde, p-nitro-", "3-(4-Nitrophenyl)-2-propenal", "p-Nitrocinnamaldehyde", "4-Nitrocinnamaldehyde", "NSC 1318", "4-Nitrocinnamic aldehyde", "4-Nitrocinnamaldahyde", "3-(4-Nitrophenyl)acrolein", "3-(4-Nitrophenyl)acrylaldehyde"], "SMILES": "N(=O)(=O)C1=CC=C(C=CC=O)C=C1", "physical_data": {"Molecular Weight": "177.16", "Molecular Formula": "C9H7NO3", "Melting Point": "137-140 \u00b0C"}}