{"cas_no": "17347-61-4", "cn_name": "2,2-\u4e8c\u7532\u57fa\u7425\u73c0\u9178\u9150", "en_name": ["2,2-Dimethylsuccinic anhydride", "2,5-Furandione, dihydro-3,3-dimethyl-", "Succinic anhydride, 2,2-dimethyl-", "Succinic anhydride, \u03b1,\u03b1-dimethyl-", "Dihydro-3,3-dimethyl-2,5-furandione", "\u03b1,\u03b1-Dimethylsuccinic anhydride", "2,2-Dimethylsuccinic anhydride", "3,4-Dihydro-3,3-dimethylfuran-2,5-dione", "3,3-Dimethyl-3,4-dihydro-2,5-furandione", "3,3-Dimethyldihydrofuran-2,5-dione", "3,3-Dimethyltetrahydrofuran-2,5-dione", "3,3-Dimethyloxolane-2,5-dione"], "SMILES": "CC1(C)C(=O)OC(=O)C1", "physical_data": {"Molecular Weight": "128.13", "Molecular Formula": "C6H8O3", "Boiling Point": "102-103 \u00b0C @ Press: 15 Torr"}}