{"cas_no": "17347-32-9", "cn_name": "6-\u6eb4\u82ef\u5e76\u567b\u915a", "en_name": ["6-Bromobenzo[b]thiophene", "Benzo[b]thiophene, 6-bromo-", "6-Bromobenzo[b]thiophene", "6-Bromobenzothiophene", "6-Bromo-1-benzothiophene"], "SMILES": "BrC=1C=C2C(=CC1)C=CS2", "physical_data": {"Molecular Weight": "213.09", "Molecular Formula": "C8H5BrS", "Boiling Point": "139-140 \u00b0C @ Press: 30 Torr", "Melting Point": "56 \u00b0C"}}