{"cas_no": "17343-07-6", "cn_name": "\u7518\u6c28\u9170\u7518\u6c28\u9170-L-\u916a\u6c28\u9178", "en_name": ["Glycylglycyl-L-tyrosine", "L-Tyrosine, glycylglycyl-", "Tyrosine, N-(N-glycylglycyl)-, L-", "L-Tyrosine, N-(N-glycylglycyl)-", "Tyrosine, N-(N-glycylglycyl)-", "Glycylglycyl-L-tyrosine", "Glycylglycyltyrosine", "NSC 334194", "2: PN: WO2014062134 PAGE: 50 claimed sequence", "3: PN: WO2019011306 SEQID: 6 claimed protein", "(2S)-2-[[2-[(2-Aminoacetyl)amino]acetyl]amino]-3-(4-hydroxyphenyl)propanoic acid", "(2S)-2-[2-(2-Aminoacetamido)acetamido]-3-(4-hydroxyphenyl)propanoic acid", "47: PN: WO2022190009 SEQID: 264 claimed protein"], "SMILES": "C(C(NC(CNC(CN)=O)=O)C(O)=O)C1=CC=C(O)C=C1", "physical_data": {"Molecular Weight": "295.29", "Molecular Formula": "C13H17N3O5", "Melting Point": "218-220 \u00b0C"}}