{"cas_no": "17342-08-4", "cn_name": "L-\u7126\u8c37\u6c28\u9187", "en_name": ["(5S)-5-(Hydroxymethyl)-2-pyrrolidinone", "2-Pyrrolidinone, 5-(hydroxymethyl)-, (5S)-", "2-Pyrrolidinone, 5-(hydroxymethyl)-, (S)-", "(5S)-5-(Hydroxymethyl)-2-pyrrolidinone", "(+)-5-(Hydroxymethyl)-2-pyrrolidinone", "(S)-5-(Hydroxymethyl)-2-pyrrolidone", "(S)-Pyroglutaminol", "(S)-5-(Hydroxymethyl)-2-pyrrolidinone", "(S)-2-(Hydroxymethyl)pyrrolidin-5-one", "(S)-(+)-5-(Hydroxymethyl)-2-pyrrolidinone", "(5S)-5-(hydroxymethyl)-2-pyrrolidinone", "(2S)-2-(Hydroxymethyl)-5-oxopyrrolidine", "2-Pyrrolidinone 5-(hydroxymethyl)-, (5S)-"], "SMILES": "C(O)C1NC(=O)CC1", "physical_data": {"Molecular Weight": "115.13", "Molecular Formula": "C5H9NO2", "Boiling Point": "147-149 \u00b0C @ Press: 0.06 Torr", "Melting Point": "86-87 \u00b0C"}}