{"cas_no": "17345-77-6", "cn_name": "4-\u6eb4\u90bb\u82ef\u4e8c\u915a", "en_name": ["4-Bromocatechol", "1,2-Benzenediol, 4-bromo-", "Pyrocatechol, 4-bromo-", "4-Bromo-1,2-benzenediol", "4-Bromocatechol", "4-Bromopyrocatechol", "1-Bromo-3,4-dihydroxybenzene", "p-Bromocatechol", "4-Bromo-1,2-dihydroxybenzene", "3,4-Dihydroxybromobenzene", "5-Bromo-2-hydroxyphenol"], "SMILES": "OC1=C(O)C=CC(Br)=C1", "physical_data": {"Molecular Weight": "189.01", "Molecular Formula": "C6H5BrO2", "Melting Point": "86 \u00b0C"}}