{"cas_no": "17348-76-4", "cn_name": "2-\u7f9f\u57fa\u9ec4\u70f7\u916e", "en_name": ["2\u2032-Hydroxyflavanone", "4H-1-Benzopyran-4-one, 2,3-dihydro-2-(2-hydroxyphenyl)-", "Flavanone, 2\u2032-hydroxy-", "2,3-Dihydro-2-(2-hydroxyphenyl)-4H-1-benzopyran-4-one", "(\u00b1)-2\u2032-Hydroxyflavanone", "2\u2032-Hydroxyflavanone", "2-(2-Hydroxyphenyl)chroman-4-one", "2-(2-Hydroxyphenyl)-2,3-dihydrochromen-4-one", "2-(2-Hydroxyphenyl)-3,4-dihydro-2H-1-benzopyran-4-one"], "SMILES": "OC1=C(C2OC=3C(C(=O)C2)=CC=CC3)C=CC=C1", "physical_data": {"Molecular Weight": "240.25", "Molecular Formula": "C15H12O3", "Melting Point": "170 \u00b0C"}}