{"cas_no": "17348-59-3", "cn_name": "\u53d4\u4e01\u57fa\u5f02\u4e19\u57fa\u919a", "en_name": ["2-Methyl-2-(1-methylethoxy)propane", "Propane, 2-methyl-2-(1-methylethoxy)-", "Ether, tert-butyl isopropyl", "2-Methyl-2-(1-methylethoxy)propane", "tert-Butyl isopropyl ether", "Isopropyl tert-butyl ether", "2-Isopropoxy-2-methylpropane", "2-Methyl-2-propan-2-yloxypropane", "2-Methyl-2-(propan-2-yloxy)propane"], "SMILES": "O(C(C)(C)C)C(C)C", "physical_data": {"Molecular Weight": "116.20", "Molecular Formula": "C7H16O", "Boiling Point": "87.6 \u00b0C", "Melting Point": "-88 \u00b0C", "Density": "0.742 g/cm\u00b3 @ Temp: 20 \u00b0C"}}