{"cas_no": "17350-17-3", "cn_name": "Z-PRO-PHE-OH", "en_name": ["1-[(Phenylmethoxy)carbonyl]-L-prolyl-L-phenylalanine", "L-Phenylalanine, 1-[(phenylmethoxy)carbonyl]-L-prolyl-", "1-Pyrrolidinecarboxylic acid, 2-[(\u03b1-carboxyphenethyl)carbamoyl]-, 1-benzyl ester, stereoisomer", "L-Phenylalanine, N-[1-[(phenylmethoxy)carbonyl]-L-prolyl]-", "1-Pyrrolidinecarboxylic acid, 2-[(\u03b1-carboxyphenethyl)carbamoyl]-, 1-benzyl ester", "1-Pyrrolidinecarboxylic acid, 2-[(\u03b1-carboxyphenethyl)carbamoyl]-, benzyl ester", "1-[(Phenylmethoxy)carbonyl]-L-prolyl-L-phenylalanine", "N-(Benzyloxycarbonyl)-L-prolyl-L-phenylalanine", "N-Carbobenzoxy-L-prolyl-L-phenylalanine", "Benzyloxycarbonyl-L-prolyl-L-phenylalanine", "NSC 334179"], "SMILES": "C(NC(CC1=CC=CC=C1)C(O)=O)(=O)C2N(C(OCC3=CC=CC=C3)=O)CCC2", "physical_data": {"Molecular Weight": "396.44", "Molecular Formula": "C22H24N2O5", "Melting Point": "126-127 \u00b0C"}}