{"cas_no": "17356-19-3", "cn_name": "\u4e59\u70ef\u57fa\u73af\u620a\u9187", "en_name": ["1-Ethynylcyclopentanol", "Cyclopentanol, 1-ethynyl-", "1-Ethynylcyclopentanol", "1-Ethynyl-1-cyclopentanol", "NSC 134047"], "SMILES": "C(#C)C1(O)CCCC1", "physical_data": {"Molecular Weight": "110.15", "Molecular Formula": "C7H10O", "Boiling Point": "157.5 \u00b0C", "Melting Point": "27 \u00b0C", "Density": "0.9746 g/cm\u00b3 @ Temp: 20 \u00b0C"}}