{"cas_no": "17356-09-1", "cn_name": "1-\u7898-4-\u5f02\u4e19\u57fa\u82ef", "en_name": ["1-Iodo-4-isopropylbenzene", "Benzene, 1-iodo-4-(1-methylethyl)-", "Cumene, p-iodo-", "1-Iodo-4-(1-methylethyl)benzene", "4-Iodocumene", "1-Iodo-4-isopropylbenzene", "p-Iodocumene", "4-Isopropyliodobenzene", "4-Isopropylphenyl iodide", "4-Iodo-1-isopropylbenzene", "4-Iodoisopropylbenzene", "p-Iodoisopropylbenzene", "4-Isopropyl-1-iodobenzene", "1-Iodo-4-(propan-2-yl)benzene", "1-Iodo-4-propan-2-ylbenzene"], "SMILES": "C(C)(C)C1=CC=C(I)C=C1", "physical_data": {"Molecular Weight": "246.09", "Molecular Formula": "C9H11I", "Boiling Point": "86-92 \u00b0C @ Press: 5-6 Torr", "Density": "1.5137 g/cm\u00b3 @ Temp: 20 \u00b0C"}}