{"cas_no": "1735-88-2", "cn_name": "2-\u6c30\u57fa-4'-\u6c1f\u4e59\u9170\u82ef\u80fa", "en_name": ["2-Cyano-N-(4-fluorophenyl)acetamide", "Acetamide, 2-cyano-N-(4-fluorophenyl)-", "Acetanilide, 2-cyano-4\u2032-fluoro-", "2-Cyano-N-(4-fluorophenyl)acetamide", "N-(4-Fluorophenyl)cyanoacetamide"], "SMILES": "N(C(CC#N)=O)C1=CC=C(F)C=C1", "physical_data": {"Molecular Weight": "178.16", "Molecular Formula": "C9H7FN2O", "Melting Point": "158-160 \u00b0C"}}