{"cas_no": "173584-44-6", "cn_name": "\u6740\u866b\u5242", "en_name": ["Indoxacarb", "Indeno[1,2-e][1,3,4]oxadiazine-4a(3H)-carboxylic acid, 7-chloro-2,5-dihydro-2-[[(methoxycarbonyl)[4-(trifluoromethoxy)phenyl]amino]carbonyl]-, methyl ester, (4aS)-", "Indeno[1,2-e][1,3,4]oxadiazine-4a(3H)-carboxylic acid, 7-chloro-2,5-dihydro-2-[[(methoxycarbonyl)[4-(trifluoromethoxy)phenyl]amino]carbonyl]-, methyl ester, (S)-", "DPX-KN 128", "Indoxacarb", "Steward", "(S)-Indoxacarb", "Explicit", "Avatar", "KN 128", "Avaunt", "Indoxacarb MP", "DPX-MP 062-381", "DPX-MP 062-382", "DPX-MP 062-390", "DPX-MP 062-391", "Parkway Mole Cricket Bait", "DPX-MP 062-385", "DPX-MP 062-400", "Advion fire ant bait", "Advion", "Provaunt", "Avaunt 30WG", "Steward Gold", "Steward EC", "Activyl", "Avaunt 30WDG", "S-(+)-Indoxacarb", "Steward 30WG", "Doxem Precise"], "SMILES": "C(OC)(=O)C12C(C=3C(C1)=CC(Cl)=CC3)=NN(C(N(C(OC)=O)C4=CC=C(OC(F)(F)F)C=C4)=O)CO2", "physical_data": {"Molecular Weight": "527.83", "Molecular Formula": "C22H17ClF3N3O7", "Melting Point": "160.5-167.5 \u00b0C"}}