{"cas_no": "17350-84-4", "cn_name": "2-\u7532\u57fa-D-\u82ef\u4e19\u6c28\u9178", "en_name": ["\u03b1-Methyl-D-phenylalanine", "D-Phenylalanine, \u03b1-methyl-", "Alanine, 2-methyl-3-phenyl-, D-", "\u03b1-Methyl-D-phenylalanine", "(R)-\u03b1-Methylphenylalanine", "D-\u03b1-Methylphenylalanine", "(R)-(+)-\u03b1-Methylphenylalanine", "(R)-2-Amino-2-methyl-3-phenylpropionic acid", "(r)-2-Amino-2-methyl-3-phenylpropanoic acid", "(2R)-2-Amino-2-methyl-3-phenylpropanoic acid", "(R)-2-Amino-2-methyl-3-phenylpropanoicacid"], "SMILES": "C(C(C(O)=O)(C)N)C1=CC=CC=C1", "physical_data": {"Molecular Weight": "179.22", "Molecular Formula": "C10H13NO2", "Melting Point": "277-279 \u00b0C"}}