{"cas_no": "17355-23-6", "cn_name": "O\u3001N-\u4e8c\u4e59\u9170\u57fa-L-\u916a\u6c28\u9178", "en_name": ["N,O-Diacetyl-L-tyrosine", "L-Tyrosine, N,O-diacetyl-", "Tyrosine, N-acetyl-, acetate (ester), L-", "L-Tyrosine, N-acetyl-, acetate (ester)", "N,O-Diacetyl-L-tyrosine", "O,N-Diacetyl-L-tyrosine", "(S)-2-Acetamido-3-(4-acetoxyphenyl)propanoic acid"], "SMILES": "C(C(NC(C)=O)C(O)=O)C1=CC=C(OC(C)=O)C=C1", "physical_data": {"Molecular Weight": "265.26", "Molecular Formula": "C13H15NO5", "Melting Point": "170-172 \u00b0C"}}