{"cas_no": "17357-14-1", "cn_name": "5-\u6eb4\u4ee3-3-\u7f9f\u57fa\u5432\u54da\u4e59\u9178\u916f", "en_name": ["1H-Indol-3-ol, 5-bromo-, 3-acetate", "1H-Indol-3-ol, 5-bromo-, 3-acetate", "Indol-3-ol, 5-bromo-, acetate (ester)", "1H-Indol-3-ol, 5-bromo-, acetate (ester)", "Indol-3-ol, 5-bromo-, acetate", "Indoxyl, 5-bromo-, acetate", "5-Bromindoxyl acetate", "5-Bromoindoxyl acetate", "3-Acetoxy-5-bromoindole"], "SMILES": "O(C(C)=O)C=1C=2C(NC1)=CC=C(Br)C2", "physical_data": {"Molecular Weight": "254.08", "Molecular Formula": "C10H8BrNO2", "Melting Point": "118-119 \u00b0C"}}