{"cas_no": "17354-14-2", "cn_name": "\u6eb6\u5242\u84dd 35", "en_name": ["Solvent Blue 35", "9,10-Anthracenedione, 1,4-bis(butylamino)-", "Anthraquinone, 1,4-bis(butylamino)-", "1,4-Bis(butylamino)-9,10-anthracenedione", "1,4-Bis(butylamino)-9,10-anthraquinone", "1,4-Bis(butylamino)anthraquinone", "C.I. Solvent Blue 35", "Sudan Blue II", "C.I. 61554", "C Ext. Blue 12", "Kayaset Blue N", "Orient Oil Blue 2N", "Oil Soluble Blue 11", "Sico Fat Blue 50401N", "Sudan Blue II Base", "SOT-Blue 2", "Aizen SOT Blue 2", "Solvent Blue 35", "Sudan Blue 670", "Hytherm Blue B 200", "Oil Blue 2N", "Sumiplast Blue S", "Fat Blue B", "Oplas Blue 2N", "Sudan Blue 2", "Oplas Blue IIn", "Opurous Blue IIN", "Fat Blue B 01", "Blue 2N", "Oil Blue 5502", "Orimax Blue 2N", "Orcosolve Blue B", "KP Plast Blue BR", "Oil Blue B", "Oil Blue 35"], "SMILES": "N(CCCC)C1=C2C(=C(NCCCC)C=C1)C(=O)C=3C(C2=O)=CC=CC3", "physical_data": {"Molecular Weight": "350.45", "Molecular Formula": "C22H26N2O2", "Melting Point": "134 \u00b0C"}}