{"cas_no": "1735-17-7", "cn_name": "\u73af\u5df2\u70f7", "en_name": ["Cyclohexane-d12", "Cyclohexane-1,1,2,2,3,3,4,4,5,5,6,6-d12", "Cyclohexane-d12", "Perdeuteriocyclohexane", "Perdeuterated cyclohexane", "Cyclohexane-2H12", "d12-Cyclohexane", "Dodecadeuterocyclohexane", "1,1,2,2,3,3,4,4,5,5,6,6-Dodecadeuteriocyclohexane"], "SMILES": "C1(CCCCC1)([2H])[2H]", "physical_data": {"Molecular Weight": "", "Molecular Formula": "C6D12", "Boiling Point": "78.43 \u00b0C @ Press: 760 Torr", "Density": "0.8483 g/cm\u00b3 @ Temp: 60 \u00b0C"}}