{"cas_no": "1735-91-7", "cn_name": "2-(2-\u785d\u57fa-4-\u4e09\u6c1f\u7532\u57fa\u82ef\u57fa)\u4e59\u9178", "en_name": ["2-Nitro-4-(trifluoromethyl)benzeneacetic acid", "Benzeneacetic acid, 2-nitro-4-(trifluoromethyl)-", "Acetic acid, (\u03b1,\u03b1,\u03b1-trifluoro-2-nitro-p-tolyl)-", "2-Nitro-4-(trifluoromethyl)benzeneacetic acid", "2-Nitro-4-(trifluoromethyl)phenylacetic acid", "2-[2-Nitro-4-(trifluoromethyl)phenyl]acetic acid"], "SMILES": "C(C(O)=O)C1=C(N(=O)=O)C=C(C(F)(F)F)C=C1", "physical_data": {"Molecular Weight": "249.14", "Molecular Formula": "C9H6F3NO4", "Melting Point": "145-146.5 \u00b0C"}}