{"cas_no": "17355-10-1", "cn_name": "H-TYR-LEU-OH", "en_name": ["L-Tyrosyl-L-leucine", "L-Leucine, L-tyrosyl-", "Leucine, N-L-tyrosyl-, L-", "L-Leucine, N-L-tyrosyl-", "Leucine, N-tyrosyl-", "Leucine, N-L-tyrosyl-", "L-Tyrosyl-L-leucine", "10: PN: EP1374885 SEQID: 10 claimed protein", "52: PN: WO2005081628 SEQID: 1052 claimed protein", "27: PN: US20090239809 SEQID: 27 claimed protein", "68: PN: EP2161028 PAGE: 10 claimed protein", "64: PN: WO2020097235 SEQID: 293 claimed protein", "9: PN: WO2021191247 SEQID: 9 claimed protein", "48: PN: WO2021211467 SEQID: 201 claimed sequence"], "SMILES": "C(C(C(NC(CC(C)C)C(O)=O)=O)N)C1=CC=C(O)C=C1", "physical_data": {"Molecular Weight": "294.35", "Molecular Formula": "C15H22N2O4", "Melting Point": "280 \u00b0C (sublm)"}}