{"cas_no": "1736-60-3", "cn_name": "\u70ef\u4e19\u57fa\u4e94\u6c1f\u82ef", "en_name": ["1,2,3,4,5-Pentafluoro-6-(2-propen-1-yl)benzene", "Benzene, 1,2,3,4,5-pentafluoro-6-(2-propen-1-yl)-", "Benzene, allylpentafluoro-", "Benzene, pentafluoro-2-propenyl-", "1,2,3,4,5-Pentafluoro-6-(2-propen-1-yl)benzene", "3-(Perfluorophenyl)propene", "Allylpentafluorobenzene", "3-Pentafluorophenyl-1-propene", "3-Pentafluorophenylpropene", "NSC 88279", "1-Allyl-2,3,4,5,6-pentafluorobenzene", "1,2,3,4,5-Pentafluoro-6-prop-2-enylbenzene"], "SMILES": "C(C=C)C1=C(F)C(F)=C(F)C(F)=C1F", "physical_data": {"Molecular Weight": "208.13", "Molecular Formula": "C9H5F5", "Boiling Point": "150 \u00b0C"}}