{"cas_no": "17368-12-6", "cn_name": "2-\u6c2f-4-\u7f9f\u57fa\u5421\u5576", "en_name": ["2-Chloro-4-pyridinol", "4-Pyridinol, 2-chloro-", "2-Chloro-4-pyridinol", "2-Chloro-4-hydroxypyridine"], "SMILES": "OC=1C=C(Cl)N=CC1", "physical_data": {"Molecular Weight": "129.54", "Molecular Formula": "C5H4ClNO", "Melting Point": "180-181 \u00b0C"}}