{"cas_no": "1736-71-6", "cn_name": "2-(\u4e09\u6c1f\u7532\u57fa)\u82ef\u57fa\u786b\u8132", "en_name": ["N-[2-(Trifluoromethyl)phenyl]thiourea", "Thiourea, N-[2-(trifluoromethyl)phenyl]-", "Urea, 2-thio-1-(\u03b1,\u03b1,\u03b1-trifluoro-o-tolyl)-", "Thiourea, [2-(trifluoromethyl)phenyl]-", "N-[2-(Trifluoromethyl)phenyl]thiourea", "o-(Trifluoromethyl)phenylthiourea", "[2-(Trifluoromethyl)phenyl]thiourea", "1-[2-(Trifluoromethyl)phenyl]-2-thiourea"], "SMILES": "C(F)(F)(F)C1=C(NC(N)=S)C=CC=C1", "physical_data": {"Molecular Weight": "220.21", "Molecular Formula": "C8H7F3N2S", "Melting Point": "170 \u00b0C"}}