{"cas_no": "17362-17-3", "cn_name": "3-(4-\u7f9f\u57fa\u82ef\u57fa)\u4e19\u8148", "en_name": ["4-Hydroxybenzenepropanenitrile", "Benzenepropanenitrile, 4-hydroxy-", "Hydrocinnamonitrile, p-hydroxy-", "4-Hydroxybenzenepropanenitrile", "p-(2-Cyanoethyl)phenol", "3-(4-Hydroxyphenyl)propionitrile", "4-(2-Cyanoethyl)phenol", "4-Hydroxyhydrocinnamonitrile", "3-(p-Hydroxyphenyl)propionitrile", "\u03b2-(p-Hydroxyphenyl)propionitrile", "\u03b2-(4-Hydroxyphenyl)propionitrile", "NSC 163340", "3-(4-Hydroxyphenyl)propanenitrile"], "SMILES": "C(CC#N)C1=CC=C(O)C=C1", "physical_data": {"Molecular Weight": "147.17", "Molecular Formula": "C9H9NO", "Boiling Point": "157-163 \u00b0C @ Press: 1 Torr", "Melting Point": "58-59 \u00b0C"}}