{"cas_no": "17360-11-1", "cn_name": "3,5-\u4e8c\u785d\u57fa-L-\u916a\u6c28\u9178", "en_name": ["3,5-Dinitro-L-tyrosine", "L-Tyrosine, 3,5-dinitro-", "Tyrosine, 3,5-dinitro-, L-", "3,5-Dinitro-L-tyrosine", "NSC 80662", "(2S)-2-Azaniumyl-3-(4-hydroxy-3,5-dinitrophenyl)propanoate", "(S)-2-Amino-3-(4-hydroxy-3,5-dinitrophenyl)propanoicacid"], "SMILES": "N(=O)(=O)C1=C(O)C(N(=O)=O)=CC(CC(C(O)=O)N)=C1", "physical_data": {"Molecular Weight": "271.18", "Molecular Formula": "C9H9N3O7", "Melting Point": "230-232 \u00b0C (decomp)"}}