{"cas_no": "173676-60-3", "cn_name": "\u4f9d\u975e\u97e6\u4f26\u4e2d\u95f4\u4f53", "en_name": ["(\u03b1S)-5-Chloro-\u03b1-(2-cyclopropylethynyl)-2-[[(4-methoxyphenyl)methyl]amino]-\u03b1-(trifluoromethyl)benzenemethanol", "Benzenemethanol, 5-chloro-\u03b1-(2-cyclopropylethynyl)-2-[[(4-methoxyphenyl)methyl]amino]-\u03b1-(trifluoromethyl)-, (\u03b1S)-", "Benzenemethanol, 5-chloro-\u03b1-(cyclopropylethynyl)-2-[[(4-methoxyphenyl)methyl]amino]-\u03b1-(trifluoromethyl)-, (S)-", "Benzenemethanol, 5-chloro-\u03b1-(cyclopropylethynyl)-2-[[(4-methoxyphenyl)methyl]amino]-\u03b1-(trifluoromethyl)-, (\u03b1S)-", "(\u03b1S)-5-Chloro-\u03b1-(2-cyclopropylethynyl)-2-[[(4-methoxyphenyl)methyl]amino]-\u03b1-(trifluoromethyl)benzenemethanol", "SD 572", "(2S)-2-[5-Chloro-2-[(4-methoxyphenyl)methylamino]phenyl]-4-cyclopropyl-1,1,1-trifluorobut-3-yn-2-ol"], "SMILES": "C(C#CC1CC1)(C(F)(F)F)(O)C2=C(NCC3=CC=C(OC)C=C3)C=CC(Cl)=C2", "physical_data": {"Molecular Weight": "409.83", "Molecular Formula": "C21H19ClF3NO2", "Melting Point": "154-156 \u00b0C"}}