{"cas_no": "17361-44-3", "cn_name": "N,N-\u53cc\u5341\u56db\u70f7\u57fa\u80fa", "en_name": ["Ditetradecylamine", "1-Tetradecanamine, N-tetradecyl-", "Ditetradecylamine", "N-Tetradecyl-1-tetradecanamine", "Alamine 205", "Dimyristylamine", "N,N-Ditetradecylamine", "NSC 91530", "Di-n-tetradecylamine"], "SMILES": "N(CCCCCCCCCCCCCC)CCCCCCCCCCCCCC", "physical_data": {"Molecular Weight": "409.77", "Molecular Formula": "C28H59N", "Melting Point": "56-58 \u00b0C"}}