{"cas_no": "1736-85-2", "cn_name": "2-\u6c1f-1,3\u4e8c\u7532\u57fa-5-\u785d\u57fa\u82ef", "en_name": ["2-Fluoro-1,3-dimethyl-5-nitrobenzene", "Benzene, 2-fluoro-1,3-dimethyl-5-nitro-", "m-Xylene, 2-fluoro-5-nitro-", "2-Fluoro-1,3-dimethyl-5-nitrobenzene", "3,5-Dimethyl-4-fluoronitrobenzene", "1-Fluoro-2,6-dimethyl-4-nitrobenzene", "1,3-Dimethyl-2-fluoro-5-nitrobenzene"], "SMILES": "N(=O)(=O)C1=CC(C)=C(F)C(C)=C1", "physical_data": {"Molecular Weight": "169.15", "Molecular Formula": "C8H8FNO2", "Boiling Point": "111-112 \u00b0C @ Press: 14 Torr", "Melting Point": "42-43 \u00b0C"}}