{"cas_no": "17369-59-4", "cn_name": "3-\u4e19\u4e9a\u57fa-1-\u5f02\u82ef\u5e76\u544b\u5583\u916e", "en_name": ["Propylidenephthalide", "1(3H)-Isobenzofuranone, 3-propylidene-", "Phthalide, 3-propylidene-", "3-Propylidene-1(3H)-isobenzofuranone", "3-Propylidenephthalide", "Propylidenephthalide", "Celeriax"], "SMILES": "C(CC)=C1C=2C(C(=O)O1)=CC=CC2", "physical_data": {"Molecular Weight": "174.20", "Molecular Formula": "C11H10O2", "Boiling Point": "170 \u00b0C @ Press: 12 Torr", "Melting Point": "5 \u00b0C"}}