{"cas_no": "1736-67-0", "cn_name": "\u5bf9\u6c1f\u82ef\u4e59\u919b", "en_name": ["4-Fluorobenzeneacetaldehyde", "Benzeneacetaldehyde, 4-fluoro-", "Acetaldehyde, (p-fluorophenyl)-", "4-Fluorobenzeneacetaldehyde", "(p-Fluorophenyl)acetaldehyde", "(4-Fluorophenyl)acetaldehyde", "2-(4-Fluorophenyl)acetaldehyde", "1-(4-Fluoro phenyl)-2-ethanone"], "SMILES": "C(C=O)C1=CC=C(F)C=C1", "physical_data": {"Molecular Weight": "138.14", "Molecular Formula": "C8H7FO", "Boiling Point": "63-65 \u00b0C @ Press: 5-6 Torr"}}