{"cas_no": "1737-93-5", "cn_name": "3,5-\u4e8c\u6c2f-2,4,6-\u4e09\u6c1f\u5421\u5576", "en_name": ["3,5-Dichloro-2,4,6-trifluoropyridine", "Pyridine, 3,5-dichloro-2,4,6-trifluoro-", "3,5-Dichloro-2,4,6-trifluoropyridine", "2,4,6-Trifluoro-3,5-dichloropyridine", "3,5-Dichlorotrifluoropyridine"], "SMILES": "ClC=1C(F)=C(Cl)C(F)=NC1F", "physical_data": {"Molecular Weight": "201.96", "Molecular Formula": "C5Cl2F3N", "Boiling Point": "159-160 \u00b0C"}}