{"cas_no": "17372-87-1", "cn_name": "\u6c34\u6eb6\u4f0a\u7ea2", "en_name": ["Eosin", "Spiro[isobenzofuran-1(3H),9\u2032-[9H]xanthen]-3-one, 2\u2032,4\u2032,5\u2032,7\u2032-tetrabromo-3\u2032,6\u2032-dihydroxy-, sodium salt (1:2)", "Fluorescein, 2\u2032,4\u2032,5\u2032,7\u2032-tetrabromo-, disodium salt", "Spiro[isobenzofuran-1(3H),9\u2032-[9H]xanthen]-3-one, 2\u2032,4\u2032,5\u2032,7\u2032-tetrabromo-3\u2032,6\u2032-dihydroxy-, disodium salt", "Eosin Yellowish", "Eosin", "Eosine A", "Eosine G", "Eosine Yellowish", "Eosine YS", "11731 Red", "Bromo X 100", "Bromo 4D", "Bromo 4DC", "Bromo 4DL", "Eosin Y", "Eosine J", "Eosine w/s", "Eosine Y", "Eosine 3G", "Eosine 3Y", "Eosine K Salt Free", "Tetrabromofluorescein S", "D and C Red No. 22", "Eosine", "Eosine sodium salt", "C.I. Acid Red 87", "Tetrabromofluorescein", "11445 Red", "C.I. 45380", "Aizen Eosine GH", "Bromo B", "Bromoeosine", "Bromo FL", "Bromofluoresceic acid", "Bromofluorescein", "Bromo JPS", "Bromo TS", "Bromo XX", "Bronze Bromo", "Certiqual Eosine", "Eosine BPC", "Eosine BS", "Eosine BS-SF", "Eosine DA", "Eosine DWC 73", "Eosine Extra Conc. A. Export", "Eosine FA", "Eosine GF", "Eosine Lake Red Y", "Eosine OJ", "Eosine Salt Free", "Eosine YB", "Eosin YS", "Fenazo Eosine XG", "Hidacid Boiling Bromo", "Hidacid Bromo acid regular", "Hidacid Dibromo Fluorescein", "Hidacid Eosine Soda Salt", "Hidacid White Bromo", "Irgalite Bronze Red CL", "Phloxine Red 20-7600", "Phloxine Toner B", "Phlox Red Toner X 1354", "Pure Eosine YY", "Symuler Eosin Toner", "Tetrabromofluorescein D", "Tetrabromofluorescein soluble", "Toyo Eosine G", "1903 Yellow Pink", "Sodium eosine", "Eosine S 13", "Eosin yellow", "Sodium eosinate", "Bromo acid", "Disodium eosin", "Eosine sodium", "Eosine S", "Acid Red 87", "Eosine water-soluble", "Sodium eosin", "Eosine Extra Yellowish", "Eosine K", "Food Red 103", "Red 103", "Eosine Yellow", "Water Red 2", "Orient Water Red 2", "Japan Red 103", "Red No. 103", "Japan Red No. 103", "Morning red", "Dawn red", "Eosine GH", "Basacid Red 316", "Eosin A", "D&", "C Red No. 22", "Japan Red 230-1", "Japan Red No. 230-1", "Red No. 230-1", "Eosin OJ", "D&", "C Red 22", "Chugai Ink Red AM 5", "Daiwa Red 103WB", "Japan Red 230-2", "Neelicol Eosine", "D&", "C Red No. 22-90133", "Acid Red 87-39014", "Triacid Eosine", "Eosine AG", "ABCO Eosin", "Abbey Eosin", "Silk Discharge Orange 3R", "Eosine SSO", "Eosine Y 90133", "Simacid Eosine Y", "Aizen Eosine", "Orient Watger Red 2", "Vicoacid Eosine", "Cogilor Orange 212.10", "Eosin Y 17255", "Conacid Red ML", "Dycosweak Acid Red A", "Dinacid Eosine Red", "Red 17255", "Aizen Eosine GH 35%-L", "Shuhong", "Eosin G", "Field's stain solution B", "Field's stan B", "Field stain B", "Field stain solution B", "Bromo X-100", "Bromo Acid", "Bromo Fluorescein", "Eosine B", "Phlox Red Toner X-1354", "2,4,5,7-Tetrabromo-3,6-fluorandiol", "Eosin yellowish"], "SMILES": "O=C1OC2(C=3C(OC=4C2=CC(Br)=C(O)C4Br)=C(Br)C(O)=C(Br)C3)C=5C1=CC=CC5.[Na]", "physical_data": {"Molecular Weight": "", "Molecular Formula": "C20H8Br4O5.2Na", "Melting Point": "295.5 \u00b0C"}}