{"cas_no": "1737-26-4", "cn_name": "1-[4-(\u4e09\u6c1f\u7532\u57fa)\u82ef\u57fa]\u4e59\u9187", "en_name": ["\u03b1-Methyl-4-(trifluoromethyl)benzenemethanol", "Benzenemethanol, \u03b1-methyl-4-(trifluoromethyl)-", "Benzyl alcohol, \u03b1-methyl-p-(trifluoromethyl)-", "\u03b1-Methyl-4-(trifluoromethyl)benzenemethanol", "1-(4-Trifluoromethylphenyl)ethanol", "\u03b1-Methyl-p-(trifluoromethyl)benzyl alcohol", "1-(1-Hydroxyethyl)-4-trifluoromethylbenzene", "4-Trifluoromethyl-\u03b1-methylbenzenemethanol", "1-(p-Trifluoromethylphenyl)ethanol", "\u03b1-Methyl-4-trifluoromethylbenzenemethanol", "(\u00b1)-1-(p-Trifluoromethylphenyl)ethanol", "1-[4-(Trifluoromethyl)phenyl]ethan-1-ol"], "SMILES": "C(F)(F)(F)C1=CC=C(C(C)O)C=C1", "physical_data": {"Molecular Weight": "190.16", "Molecular Formula": "C9H9F3O", "Boiling Point": "116-118 \u00b0C @ Press: 20 Torr"}}