{"cas_no": "17376-04-4", "cn_name": "2-\u7898\u4ee3\u4e59\u57fa\u82ef", "en_name": ["Phenethyl iodide", "Benzene, (2-iodoethyl)-", "(2-Iodoethyl)benzene", "Phenethyl iodide", "\u03b2-Phenethyl iodide", "2-Phenylethyl iodide", "\u03b2-Phenylethyl iodide", "1-Iodo-2-phenylethane", "4-(2-Iodoethyl)benzene", "2-Phenyl-1-iodoethane"], "SMILES": "C(CI)C1=CC=CC=C1", "physical_data": {"Molecular Weight": "232.06", "Molecular Formula": "C8H9I", "Boiling Point": "221-222 \u00b0C", "Density": "1.632 g/cm\u00b3 @ Temp: 20 \u00b0C"}}