{"cas_no": "173841-02-6", "cn_name": "5-\u6c2f-2-\u7532\u57fa-2H-\u5421\u5497-3-\u7fa7\u9178", "en_name": ["3-Chloro-1-methyl-1H-pyrazole-5-carboxylic acid", "1H-Pyrazole-5-carboxylic acid, 3-chloro-1-methyl-", "3-Chloro-1-methyl-1H-pyrazole-5-carboxylic acid", "CMPA"], "SMILES": "C(O)(=O)C1=CC(Cl)=NN1C", "physical_data": {"Molecular Weight": "160.56", "Molecular Formula": "C5H5ClN2O2", "Melting Point": "171-174 \u00b0C"}}