{"cas_no": "1738-76-7", "cn_name": "\u7518\u6c28\u9178\u82c4\u916f\u5bf9\u7532\u82ef\u78fa\u9178\u76d0", "en_name": ["Glycine, phenylmethyl ester, 4-methylbenzenesulfonate (1:1)", "Glycine, phenylmethyl ester, 4-methylbenzenesulfonate (1:1)", "Glycine, benzyl ester, p-toluenesulfonate", "Glycine, phenylmethyl ester, 4-methylbenzenesulfonate", "Glycine benzyl ester p-tosylate", "Glycine benzyl ester tosylate", "Benzyl glycinate p-toluenesulfonate", "Benzyl glycinate p-tolylsulfonate", "Benzyl glycinate p-toluenesulfonic acid salt", "Benzyl glycinate tosylate", "Benzyl glycinate toluenesulfonate", "Glycine benzyl ester 4-toluenesulfonate", "Glycine benzyl ester 4-toluenesulfonic acid salt", "Gly-OBzl TosOH", "H-Gly-OBzl toluenesulfonate"], "SMILES": "S(=O)(=O)(O)C1=CC=C(C)C=C1.C(OC(CN)=O)C1=CC=CC=C1", "physical_data": {"Molecular Weight": "", "Molecular Formula": "C9H11NO2.C7H8O3S", "Melting Point": "132-133 \u00b0C"}}