{"cas_no": "1738-36-9", "cn_name": "\u7532\u6c27\u57fa\u4e59\u8148", "en_name": ["Methoxyacetonitrile", "Acetonitrile, 2-methoxy-", "Acetonitrile, methoxy-", "2-Methoxyacetonitrile", "Methoxyacetonitrile", "Formaldehyde cyanohydrin methyl ether", "Methoxymethyl cyanide", "Cyanomethyl methyl ether", "Methoxyethanenitrile", "NSC 26905"], "SMILES": "C(C#N)OC", "physical_data": {"Molecular Weight": "71.08", "Molecular Formula": "C3H5NO", "Boiling Point": "119 \u00b0C", "Melting Point": "97 \u00b0C", "Density": "0.9373 g/cm\u00b3 @ Temp: 28 \u00b0C"}}