{"cas_no": "1738-77-8", "cn_name": "L-\u4eae\u6c28\u9178\u82c4\u916f\u5bf9\u7532\u82ef\u78fa\u9178\u76d0", "en_name": ["L-Leucine, phenylmethyl ester, 4-methylbenzenesulfonate (1:1)", "L-Leucine, phenylmethyl ester, 4-methylbenzenesulfonate (1:1)", "Leucine, benzyl ester, p-toluenesulfonate, L-", "L-Leucine, phenylmethyl ester, 4-methylbenzenesulfonate", "Leucine, benzyl ester, p-toluenesulfonate", "L-Leucine benzyl ester p-toluenesulfonate", "L-Leucine benzyl ester tosylate", "(S)-Leucine benzyl ester tosylate", "Leucine benzyl ester 4-toluenesulfonic acid salt", "Benzyl L-leucinate p-toluenesulfonate", "Benzyl L-leucinate tosylate", "H-Leu-OBzl p-toluenesulfonate", "(S)-Benzyl 2-amino-4-methylpentanoate 4-methylbenzenesulfonate"], "SMILES": "S(=O)(=O)(O)C1=CC=C(C)C=C1.C(OC(C(CC(C)C)N)=O)C1=CC=CC=C1", "physical_data": {"Molecular Weight": "", "Molecular Formula": "C13H19NO2.C7H8O3S", "Melting Point": "158.5-160 \u00b0C"}}