{"cas_no": "1738-86-9", "cn_name": "N-\u82c4\u6c27\u7fb0\u57fa\u7518\u6c28\u9178-4-\u785d\u57fa\u82ef\u916f", "en_name": ["N-[(Phenylmethoxy)carbonyl]glycine 4-nitrophenyl ester", "Glycine, N-[(phenylmethoxy)carbonyl]-, 4-nitrophenyl ester", "Glycine, N-carboxy-, N-benzyl p-nitrophenyl ester", "N-[(Phenylmethoxy)carbonyl]glycine 4-nitrophenyl ester", "Carbobenzoxyglycine p-nitrophenyl ester", "N-Carbobenzoxyglycine p-nitrophenyl ester", "p-Nitrophenyl benzyloxycarbonylglycinate", "p-Nitrophenyl N-benzyloxycarbonylglycinate", "Benzyloxycarbonylglycine p-nitrophenyl ester", "N-(Benzyloxycarbonyl)glycine p-nitrophenyl ester", "p-Nitrophenyl N-(benzyloxycarbonyl)aminoacetate", "N-Carboxyglycine N-benzyl p-nitrophenyl ester", "N-\u03b1-Carbobenzoxyglycine p-nitrophenyl ester", "p-Nitrophenyl carbobenzoxyglycinate", "p-Nitrophenyl Z-glycinate", "p-Nitrophenyl (N-carbobenzoxy)glycinate", "N-(Benzyloxycarbonyl)glycine 4-nitrophenyl ester", "NSC 405051", "(4-Nitrophenyl) 2-(phenylmethoxycarbonylamino)acetate"], "SMILES": "O(C(CNC(OCC1=CC=CC=C1)=O)=O)C2=CC=C(N(=O)=O)C=C2", "physical_data": {"Molecular Weight": "330.29", "Molecular Formula": "C16H14N2O6", "Melting Point": "120-122 \u00b0C"}}