{"cas_no": "17380-18-6", "cn_name": "5-\u6c30\u57fa\u5432\u54da-3-\u7532\u919b", "en_name": ["3-Formyl-1H-indole-5-carbonitrile", "1H-Indole-5-carbonitrile, 3-formyl-", "Indole-5-carbonitrile, 3-formyl-", "3-Formyl-1H-indole-5-carbonitrile", "3-Formyl-5-cyano-1H-indole", "5-Cyanoindole-3-carboxaldehyde", "5-Cyano-1H-indole-3-carboxaldehyde"], "SMILES": "C(=O)C=1C=2C(NC1)=CC=C(C#N)C2", "physical_data": {"Molecular Weight": "170.17", "Molecular Formula": "C10H6N2O", "Melting Point": "256-258 \u00b0C"}}