{"cas_no": "1738-78-9", "cn_name": "L-\u82ef\u4e19\u6c28\u9178\u82c4\u916f\u5bf9\u7532\u82ef\u78fa\u9178\u76d0", "en_name": ["L-Phenylalanine, phenylmethyl ester, 4-methylbenzenesulfonate (1:1)", "L-Phenylalanine, phenylmethyl ester, 4-methylbenzenesulfonate (1:1)", "Alanine, phenyl-, benzyl ester, p-toluenesulfonate, L-", "L-Phenylalanine, phenylmethyl ester, 4-methylbenzenesulfonate", "Alanine, phenyl-, benzyl ester, p-toluenesulfonate", "L-Phenylalanine benzyl ester p-toluenesulfonate", "L-Phenylalanine benzyl ester tosylate", "Benzyl L-phenylalaninate p-toluenesulfonate", "L-Phenylalanine benzyl ester p-toluenesulfonic acid salt", "Benzyl L-phenylalaninate tosylate", "3-Phenyl-L-alanine benzyl ester 4-toluenesulphonate"], "SMILES": "S(=O)(=O)(O)C1=CC=C(C)C=C1.C(C(C(OCC1=CC=CC=C1)=O)N)C2=CC=CC=C2", "physical_data": {"Molecular Weight": "", "Molecular Formula": "C16H17NO2.C7H8O3S", "Melting Point": "170.5-171.5 \u00b0C"}}