{"cas_no": "17388-39-5", "cn_name": "\u7350\u7259\u83dc\u82e6\u7519", "en_name": ["Swertiamarin", "1H,3H-Pyrano[3,4-c]pyran-1-one, 5-ethenyl-6-(\u03b2-D-glucopyranosyloxy)-4,4a,5,6-tetrahydro-4a-hydroxy-, (4aR,5R,6S)-", "Swertiamarin", "1H,3H-Pyrano[3,4-c]pyran-1-one, 5-ethenyl-6-(\u03b2-D-glucopyranosyloxy)-4,4a,5,6-tetrahydro-4a-hydroxy-, [4aR-(4a\u03b1,5\u03b2,6\u03b1)]-", "(4aR,5R,6S)-5-Ethenyl-6-(\u03b2-D-glucopyranosyloxy)-4,4a,5,6-tetrahydro-4a-hydroxy-1H,3H-pyrano[3,4-c]pyran-1-one", "Swertiamarine", "Swertiamaroside", "Swertamarin", "Swertimarin"], "SMILES": "C(=C)C1C2(O)C(=COC1OC3OC(CO)C(O)C(O)C3O)C(=O)OCC2", "physical_data": {"Molecular Weight": "374.34", "Molecular Formula": "C16H22O10", "Melting Point": "112-114 \u00b0C"}}