{"cas_no": "1738-25-6", "cn_name": "\u4e8c\u7532\u6c28\u57fa\u4e19\u8148", "en_name": ["Dimethylaminopropionitrile", "Propanenitrile, 3-(dimethylamino)-", "Propionitrile, 3-(dimethylamino)-", "3-(Dimethylamino)propanenitrile", "\u03b2-(Dimethylamino)propionitrile", "\u03b2-N-Dimethylaminopropionitrile", "N,N-Dimethylamino-3-propionitrile", "3-(N,N-Dimethylamino)propionitrile", "Dimethylaminopropionitrile", "DMAPN", "3-(Dimethylamino)propionitrile", "N,N-Dimethyl-2-cyanoethylamine", "NSC 232", "3-Dimethylaminopropiononitrile"], "SMILES": "C(N(C)C)CC#N", "physical_data": {"Molecular Weight": "98.15", "Molecular Formula": "C5H10N2", "Boiling Point": "173 \u00b0C", "Melting Point": "-44.2 \u00b0C", "Density": "0.8705 g/cm\u00b3 @ Temp: 20 \u00b0C"}}