{"cas_no": "1739-83-9", "cn_name": "1,2,4,5-\u56db\u7532\u57fa\u68c9\u9686\u916f", "en_name": ["1,2,4,5-Tetramethyl-1H-imidazole", "1H-Imidazole, 1,2,4,5-tetramethyl-", "Imidazole, 1,2,4,5-tetramethyl-", "1,2,4,5-Tetramethyl-1H-imidazole", "1,2,4,5-Tetramethylimidazole", "Tetramethylimidazole"], "SMILES": "CC=1N(C)C(C)=NC1C", "physical_data": {"Molecular Weight": "124.18", "Molecular Formula": "C7H12N2", "Boiling Point": "125-128 \u00b0C @ Press: 29 Torr", "Melting Point": "58 \u00b0C"}}