{"cas_no": "17397-89-6", "cn_name": "\u6d45\u84dd\u83cc\u7d20", "en_name": ["(+)-Cerulenin", "2-Oxiranecarboxamide, 3-[(4E,7E)-1-oxo-4,7-nonadien-1-yl]-, (2R,3S)-", "7,10-Dodecadienamide, 2,3-epoxy-4-oxo-", "Oxiranecarboxamide, 3-(1-oxo-4,7-nonadienyl)-, [2R-[2\u03b1,3\u03b1(4E,7E)]]-", "Oxiranecarboxamide, 3-[(4E,7E)-1-oxo-4,7-nonadienyl]-, (2R,3S)-", "(2R,3S)-3-[(4E,7E)-1-Oxo-4,7-nonadien-1-yl]-2-oxiranecarboxamide", "Cerulenin", "Helicocerin", "(+)-Cerulenin"], "SMILES": "C(CCC=CCC=CC)(=O)C1C(C(N)=O)O1", "physical_data": {"Molecular Weight": "223.27", "Molecular Formula": "C12H17NO3", "Melting Point": "93.5 \u00b0C"}}