{"cas_no": "17392-68-6", "cn_name": "1-(2-\u7532\u6c27\u57fa\u82ef\u57fa)-\u5421\u54af-2,5-\u4e8c\u916e", "en_name": ["N-(2-Methoxyphenyl)maleimide", "1H-Pyrrole-2,5-dione, 1-(2-methoxyphenyl)-", "Maleimide, N-(o-methoxyphenyl)-", "1-(2-Methoxyphenyl)-1H-pyrrole-2,5-dione", "N-o-Methoxyphenylmaleimide", "N-o-Anisylmaleimide", "N-(2-Methoxyphenyl)maleimide", "NSC 144974", "1-(2-Methoxyphenyl)-2,5-dihydro-1H-pyrrole-2,5-dione", "1-(2-Methoxyphenyl)pyrrole-2,5-dione"], "SMILES": "O(C)C1=C(C=CC=C1)N2C(=O)C=CC2=O", "physical_data": {"Molecular Weight": "203.19", "Molecular Formula": "C11H9NO3", "Melting Point": "119-120 \u00b0C"}}