{"cas_no": "173903-15-6", "cn_name": "N-\u6c2f\u7532\u9170\u57fa-N-[4-(\u4e09\u6c1f\u7532\u6c27\u57fa)\u82ef\u57fa]\u6c28\u57fa\u7532\u9178\u7532\u916f", "en_name": ["Methyl N-(chlorocarbonyl)-N-[4-(trifluoromethoxy)phenyl]carbamate", "Carbamic acid, N-(chlorocarbonyl)-N-[4-(trifluoromethoxy)phenyl]-, methyl ester", "Carbamic acid, (chlorocarbonyl)[4-(trifluoromethoxy)phenyl]-, methyl ester", "Methyl N-(chlorocarbonyl)-N-[4-(trifluoromethoxy)phenyl]carbamate", "Methyl (chlorocarbonyl)-(4-(trifluoromethoxy)phenyl)carbamate"], "SMILES": "N(C(OC)=O)(C(Cl)=O)C1=CC=C(OC(F)(F)F)C=C1", "physical_data": {"Molecular Weight": "297.62", "Molecular Formula": "C10H7ClF3NO4", "Melting Point": "96-98 \u00b0C"}}