{"cas_no": "1739-84-0", "cn_name": "1,2-\u4e8c\u7532\u57fa\u54aa\u5511", "en_name": ["1,2-Dimethylimidazole", "1H-Imidazole, 1,2-dimethyl-", "Imidazole, 1,2-dimethyl-", "1,2-Dimethyl-1H-imidazole", "1,2-Dimethylimidazole", "N,2-Dimethylimidazole", "PC CAT DMI", "Toyocat DP 70", "SN 25", "SN 25 (vulcanizing agent)", "Curezol 1,2DMZ", "NSC 111174", "Toyocat DMI", "Toyocat DM 70", "1,2DMZ", "Nichigo Imidazole 1,2-DMI", "Curezol 12DMZ", "Lupragen DMI", "Dabco 2040", "Dabco 2039", "Dabco 2041", "Kaolizer 390", "Kaolizer NO 390"], "SMILES": "CC=1N(C)C=CN1", "physical_data": {"Molecular Weight": "96.13", "Molecular Formula": "C5H8N2", "Boiling Point": "206 \u00b0C", "Melting Point": "39-41 \u00b0C"}}