{"cas_no": "1740-19-8", "cn_name": "\u8131\u6c22\u677e\u9999\u9178", "en_name": ["Dehydroabietic acid", "1-Phenanthrenecarboxylic acid, 1,2,3,4,4a,9,10,10a-octahydro-1,4a-dimethyl-7-(1-methylethyl)-, (1R,4aS,10aR)-", "Abietic acid, dehydro-", "Podocarpa-8,11,13-trien-15-oic acid, 13-isopropyl-", "1-Phenanthrenecarboxylic acid, 1,2,3,4,4a,9,10,10a-octahydro-1,4a-dimethyl-7-(1-methylethyl)-, [1R-(1\u03b1,4a\u03b2,10a\u03b1)]-", "(1R,4aS,10aR)-1,2,3,4,4a,9,10,10a-Octahydro-1,4a-dimethyl-7-(1-methylethyl)-1-phenanthrenecarboxylic acid", "Dehydroabietic acid", "Abieta-8,11,13-trien-18-oic acid", "(+)-Dehydroabietic acid", "NSC 2952", "Resigral 52", "7-Callitrisic acid"], "SMILES": "CC12C(C(C(O)=O)(C)CCC1)CCC=3C2=CC=C(C(C)C)C3", "physical_data": {"Molecular Weight": "300.44", "Molecular Formula": "C20H28O2", "Melting Point": "166-167 \u00b0C"}}