{"cas_no": "17407-09-9", "cn_name": "2-(\u4e09\u7532\u57fa\u7845\u6c27\u57fa)\u4e59\u57fa\u7532\u57fa\u4e19\u70ef\u9178\u76d0", "en_name": ["2-(Trimethylsilyloxy)ethyl methacrylate", "2-Propenoic acid, 2-methyl-, 2-[(trimethylsilyl)oxy]ethyl ester", "Methacrylic acid, 2-(trimethylsiloxy)ethyl ester", "Ethanol, 2-(trimethylsiloxy)-, methacrylate", "Trimethylsiloxyethyl methacrylate", "2-(Trimethylsiloxy)ethyl methacrylate", "SIM 6481.0", "2-(Trimethylsilyloxy)ethyl methacrylate", "2-(Trimethoxysilyl)ethyl methacrylate", "2-Trimethylsilyloxyethyl 2-methylprop-2-enoate", "2-[(Trimethylsilyl)oxy]ethyl 2-methylprop-2-enoate"], "SMILES": "O(CCO[Si](C)(C)C)C(C(C)=C)=O", "physical_data": {"Molecular Weight": "202.32", "Molecular Formula": "C9H18O3Si", "Boiling Point": "65 \u00b0C @ Press: 0.9 Torr", "Melting Point": "60-62 \u00b0C", "Density": "0.928 g/cm\u00b3"}}