{"cas_no": "17408-16-1", "cn_name": "3-\u785d\u57fa\u82ef\u4e19\u916e", "en_name": ["1-(3-Nitrophenyl)-1-propanone", "1-Propanone, 1-(3-nitrophenyl)-", "Propiophenone, 3\u2032-nitro-", "1-(3-Nitrophenyl)-1-propanone", "3\u2032-Nitropropiophenone", "m-Nitropropiophenone", "NSC 142328"], "SMILES": "C(CC)(=O)C1=CC(N(=O)=O)=CC=C1", "physical_data": {"Molecular Weight": "179.17", "Molecular Formula": "C9H9NO3", "Melting Point": "100-101 \u00b0C"}}