{"cas_no": "17407-56-6", "cn_name": "(2R)-3-\u7532\u57fa-2-\u7f9f\u57fa\u4e01\u9178", "en_name": ["(-)-2-Hydroxy-3-methylbutyric acid", "Butanoic acid, 2-hydroxy-3-methyl-, (2R)-", "Butanoic acid, 2-hydroxy-3-methyl-, (R)-", "Butyric acid, 2-hydroxy-3-methyl-, D-", "(2R)-2-Hydroxy-3-methylbutanoic acid", "D-\u03b1-Hydroxyisovaleric acid", "D-2-Hydroxyisovaleric acid", "(R)-2-Hydroxyisovaleric acid", "(-)-2-Hydroxy-3-methylbutyric acid", "(-)-\u03b1-Hydroxyisovaleric acid", "(R)-2-Hydroxy-3-methylbutanoic acid", "(-)-2-Hydroxyisovaleric acid", "(R)-2-Hydroxy-3-methylbutyric acid", "(R)-(-)-2-Hydroxyisovaleric acid", "(2R)-3-Methyl-2-hydroxybutanoic acid", "(R)-2-Hydroxy-3-methylbutanoic acid", "(2R)-2-Hydroxy-3-methylbutanoic acid", "D-2-Hydroxy-3-methylbutanoic acid"], "SMILES": "C(C(C)C)(C(O)=O)O", "physical_data": {"Molecular Weight": "118.13", "Molecular Formula": "C5H10O3", "Melting Point": "68.7 \u00b0C"}}