{"cas_no": "17406-45-0", "cn_name": "\u756a\u8304\u78b1", "en_name": ["Tomatine", "\u03b2-D-Galactopyranoside, (3\u03b2,5\u03b1,22\u03b2,25S)-spirosolan-3-yl O-\u03b2-D-glucopyranosyl-(1\u21922)-O-[\u03b2-D-xylopyranosyl-(1\u21923)]-O-\u03b2-D-glucopyranosyl-(1\u21924)-", "Tomatine", "\u03b1-Tomatine", "Spiro[8H-naphth[2\u2032,1\u2032:4,5]indeno[2,1-b]furan-8,2\u2032-piperidine], \u03b2-D-galactopyranoside deriv.", "Spirosolane, \u03b2-D-galactopyranoside deriv.", "(3\u03b2,5\u03b1,22\u03b2,25S)-Spirosolan-3-yl O-\u03b2-D-glucopyranosyl-(1\u21922)-O-[\u03b2-D-xylopyranosyl-(1\u21923)]-O-\u03b2-D-glucopyranosyl-(1\u21924)-\u03b2-D-galactopyranoside", "Lycopersicin", "NSC 234440", "NSC 9223"], "SMILES": "CC12C3C(CC1C4C(CC2)C5(C)C(CC4)CC(OC6OC(CO)C(OC7C(OC8OC(CO)C(O)C(O)C8O)C(OC9C(O)C(O)C(O)CO9)C(O)C(CO)O7)C(O)C6O)CC5)OC%10(C3C)CCC(C)CN%10", "physical_data": {"Molecular Weight": "1034.19", "Molecular Formula": "C50H83NO21", "Melting Point": "263-268 \u00b0C"}}