{"cas_no": "17407-55-5", "cn_name": "(S)-(+)-2-\u7f9f\u57fa-3-\u7532\u57fa\u4e01\u9178", "en_name": ["(S)-2-Hydroxy-3-methylbutanoic acid", "Butanoic acid, 2-hydroxy-3-methyl-, (2S)-", "Butanoic acid, 2-hydroxy-3-methyl-, (S)-", "Butyric acid, 2-hydroxy-3-methyl-, (L)-", "(2S)-2-Hydroxy-3-methylbutanoic acid", "L-2-Hydroxy-3-methylbutyric acid", "L-\u03b1-Hydroxyisovaleric acid", "L-2-Hydroxyisovaleric acid", "(S)-2-Hydroxyisovaleric acid", "(S)-\u03b1-Hydroxyisovaleric acid", "(+)-2-Hydroxy-3-methylbutyric acid", "(S)-2-Hydroxy-3-methylbutanoic acid", "(+)-\u03b1-Hydroxyisovaleric acid", "(S)-2-Hydroxy-3-methylbutyric acid", "(+)-2-Hydroxyisovaleric acid", "(S)-(+)-2-Hydroxyisovaleric acid", "(S)-(+)-2-Hydroxy-3-methylbutanoic acid", "(2S)-2-Hydroxy-3-methylbutanoic acid", "(S)-(+)-2-Hydroxy-3-methylbutyric acid", "L-2-Hydroxy-3-methylbutanoic acid"], "SMILES": "C(C(C)C)(C(O)=O)O", "physical_data": {"Molecular Weight": "118.13", "Molecular Formula": "C5H10O3", "Melting Point": "71-72 \u00b0C"}}