{"cas_no": "17403-09-7", "cn_name": "3-(4'-\u54cc\u5576\u57fa)-1H-\u5432\u54da", "en_name": ["3-(4-Piperidinyl)-1H-indole", "1H-Indole, 3-(4-piperidinyl)-", "Indole, 3-(4-piperidyl)-", "3-(4-Piperidinyl)-1H-indole", "3-(4-Piperidyl)indole", "4-(1H-Indol-3-yl)piperidine", "RU 22424", "4-(3-Indolyl)piperidine", "3-(Piperidin-4-yl)indole", "3-(4-Piperidyl)-1H-indole"], "SMILES": "C=1(C=2C(NC1)=CC=CC2)C3CCNCC3", "physical_data": {"Molecular Weight": "200.28", "Molecular Formula": "C13H16N2", "Melting Point": "222-224 \u00b0C"}}