{"cas_no": "1740-57-4", "cn_name": "\u5f02\u90bb\u82ef\u4e8c\u7532\u9170\u4e9a\u80fa", "en_name": ["1,3-Benzenedicarboxamide", "1,3-Benzenedicarboxamide", "Isophthalamide", "Isophthalic acid diamide", "m-Carbamoylbenzamide", "m-Phthalamide"], "SMILES": "C(N)(=O)C1=CC(C(N)=O)=CC=C1", "physical_data": {"Molecular Weight": "164.16", "Molecular Formula": "C8H8N2O2", "Melting Point": "155 \u00b0C"}}