{"cas_no": "17419-81-7", "cn_name": "4-\u7f9f\u57fa\u73af\u5df1\u70f7\u7532\u9178", "en_name": ["4-Hydroxycyclohexanecarboxylic acid", "Cyclohexanecarboxylic acid, 4-hydroxy-", "4-Hydroxycyclohexanecarboxylic acid", "4-Hydroxycyclohexane-1-carboxylic acid", "4-Hydroxycyclohexylcarboxylic acid"], "SMILES": "C(O)(=O)C1CCC(O)CC1", "physical_data": {"Molecular Weight": "144.17", "Molecular Formula": "C7H12O3", "Melting Point": "120 \u00b0C"}}