{"cas_no": "1741-41-9", "cn_name": "\u5f02\u4e01\u919b\u4e8c\u4e59\u57fa\u4e59\u7f29\u919b", "en_name": ["1,1-Diethoxy-2-methylpropane", "Propane, 1,1-diethoxy-2-methyl-", "Isobutyraldehyde, diethyl acetal", "1,1-Diethoxy-2-methylpropane", "Isobutylaldehyde diethyl acetal", "1,1-Diethoxyisobutane"], "SMILES": "C(OCC)(OCC)C(C)C", "physical_data": {"Molecular Weight": "146.23", "Molecular Formula": "C8H18O2", "Boiling Point": "135-136 \u00b0C @ Press: 745 Torr", "Density": "0.8295 g/cm\u00b3 @ Temp: 20 \u00b0C"}}