{"cas_no": "17422-74-1", "cn_name": "\u8272\u916e-3-\u7532\u919b", "en_name": ["3-Formylchromone", "4H-1-Benzopyran-3-carboxaldehyde, 4-oxo-", "4-Oxo-4H-1-benzopyran-3-carboxaldehyde", "3-Formylchromone", "Chromone-3-aldehyde", "Chromone-3-carboxaldehyde", "4-Oxo-4H-chromene-3-carboxaldehyde", "4-Oxo-1-benzopyran-3-carboxaldehyde", "4-Oxo-4H-benzopyran-3-carboxaldehyde", "3-Formyl-4H-1-benzopyran-4-one", "Chromon-3-carboxaldehyde", "NSC 291317", "4-Oxobenzopyran-3-carboxaldehyde", "4-Oxo-4H-chromen-3-carbaldehyde"], "SMILES": "O=C1C=2C(OC=C1C=O)=CC=CC2", "physical_data": {"Molecular Weight": "174.15", "Molecular Formula": "C10H6O3", "Melting Point": "149-151 \u00b0C", "Density": "1.70 g/cm\u00b3"}}