{"cas_no": "17422-33-2", "cn_name": "6-\u6c2f\u5432\u54da", "en_name": ["6-Chloroindole", "1H-Indole, 6-chloro-", "Indole, 6-chloro-", "6-Chloro-1H-indole", "6-Chloroindole", "NSC 58083"], "SMILES": "ClC=1C=C2C(=CC1)C=CN2", "physical_data": {"Molecular Weight": "151.59", "Molecular Formula": "C8H6ClN", "Boiling Point": "110 \u00b0C @ Press: 0.2 Torr", "Melting Point": "90 \u00b0C"}}