{"cas_no": "17422-32-1", "cn_name": "5-\u6c2f\u5432\u54da", "en_name": ["5-Chloroindole", "1H-Indole, 5-chloro-", "Indole, 5-chloro-", "5-Chloro-1H-indole", "5-Chloroindole", "NSC 89562"], "SMILES": "ClC=1C=C2C(=CC1)NC=C2", "physical_data": {"Molecular Weight": "151.59", "Molecular Formula": "C8H6ClN", "Melting Point": "69-70 \u00b0C"}}