{"cas_no": "1742-95-6", "cn_name": "4-\u6c28\u57fa-1,8-\u8418\u4e8c\u80fa", "en_name": ["4-Amino-1,8-naphthalimide", "1H-Benz[de]isoquinoline-1,3(2H)-dione, 6-amino-", "Naphthalimide, 4-amino-", "6-Amino-1H-benz[de]isoquinoline-1,3(2H)-dione", "4-Amino-1,8-naphthalimide", "4-Aminonaphthalimide", "DFP 1", "D 122", "4ANI"], "SMILES": "O=C1C=2C=3C(C(=O)N1)=CC=CC3C(N)=CC2", "physical_data": {"Molecular Weight": "212.20", "Molecular Formula": "C12H8N2O2", "Melting Point": "250 \u00b0C"}}