{"cas_no": "17420-30-3", "cn_name": "2-\u6c30\u57fa-4-\u785d\u57fa\u82ef\u80fa", "en_name": ["2-Cyano-4-nitroaniline", "Benzonitrile, 2-amino-5-nitro-", "Anthranilonitrile, 5-nitro-", "2-Amino-5-nitrobenzonitrile", "2-Cyano-4-nitroaniline", "5-Nitroanthranilonitrile", "2-Cyano-5-nitroaniline", "4-Nitro-2-cyanoaniline", "o-Cyano-p-nitroaniline", "5-Nitro-2-aminobenzonitrile"], "SMILES": "C(#N)C1=CC(N(=O)=O)=CC=C1N", "physical_data": {"Molecular Weight": "163.13", "Molecular Formula": "C7H5N3O2", "Melting Point": "209 \u00b0C"}}