{"cas_no": "1742-14-9", "cn_name": "1,1-\u53cc(3,4-\u4e8c\u7532\u57fa\u82ef\u57fa)\u4e59\u70f7", "en_name": ["1,1\u2032-Ethylidenebis[3,4-dimethylbenzene]", "Benzene, 1,1\u2032-ethylidenebis[3,4-dimethyl-", "Ethane, 1,1-di-3,4-xylyl-", "1,1\u2032-Ethylidenebis[3,4-dimethylbenzene]", "1,1-Bis(3,4-dimethylphenyl)ethane", "1,1-Di-3,4-xylylethane"], "SMILES": "C(C)(C1=CC(C)=C(C)C=C1)C2=CC(C)=C(C)C=C2", "physical_data": {"Molecular Weight": "238.37", "Molecular Formula": "C18H22", "Boiling Point": "177 \u00b0C @ Press: 6 Torr", "Density": "0.9780 g/cm\u00b3 @ Temp: 20 \u00b0C"}}