{"cas_no": "1743-01-7", "cn_name": "2-\u6c28\u57fa-1,2,3,4-\u56db\u6c22\u8418\u80fa\u76d0\u9178\u76d0", "en_name": ["2-Naphthalenamine, 1,2,3,4-tetrahydro-, hydrochloride (1:1)", "2-Naphthalenamine, 1,2,3,4-tetrahydro-, hydrochloride (1:1)", "2-Naphthylamine, 1,2,3,4-tetrahydro-, hydrochloride", "2-Naphthalenamine, 1,2,3,4-tetrahydro-, hydrochloride", "1,2,3,4-Tetrahydro-2-naphthylamine hydrochloride", "(\u00b1)-2-Aminotetralin hydrochloride", "NSC 52717", "(1,2,3,4-Tetrahydronaphthalen-2-yl)amine hydrochloride"], "SMILES": "NC1CC=2C(CC1)=CC=CC2.Cl", "physical_data": {"Molecular Weight": "", "Molecular Formula": "C10H13N.ClH", "Melting Point": "241 \u00b0C"}}