{"cas_no": "1743-60-8", "cn_name": "17-\u4e59\u9178-17-BETA-\u96cc\u4e8c\u916f", "en_name": ["Estradiol, 17-acetate", "Estra-1,3,5(10)-triene-3,17-diol (17\u03b2)-, 17-acetate", "Estradiol, 17-acetate", "Estra-1,3,5(10)-triene-3,17\u03b2-diol 17-acetate", "17\u03b2-Estradiol 17-acetate", "Estradiol 17-monoacetate", "17\u03b2-Acetylestradiol", "\u03b2-Estradiol 17-acetate", "17\u03b2-Acetoxyestra-1,3,5(10)-trien-3-ol"], "SMILES": "CC12C(C3C(CC1)C=4C(CC3)=CC(O)=CC4)CCC2OC(C)=O", "physical_data": {"Molecular Weight": "314.42", "Molecular Formula": "C20H26O3", "Melting Point": "210 \u00b0C"}}