{"cas_no": "17449-76-2", "cn_name": "4-\u7f9f\u57fa\u73af\u5df1\u7532\u9178\u7532\u916f", "en_name": ["Cyclohexanecarboxylic acid, 4-hydroxy-, methyl ester", "Cyclohexanecarboxylic acid, 4-hydroxy-, methyl ester", "Methyl 4-hydroxycyclohexanecarboxylate", "4-Hydroxycyclohexanecarboxylic acid methyl ester"], "SMILES": "C(OC)(=O)C1CCC(O)CC1", "physical_data": {"Molecular Weight": "158.20", "Molecular Formula": "C8H14O3", "Boiling Point": "80-100 \u00b0C @ Press: 1 Torr"}}