{"cas_no": "1744-22-5", "cn_name": "\u5229\u9c81\u5511", "en_name": ["Riluzole", "2-Benzothiazolamine, 6-(trifluoromethoxy)-", "Benzothiazole, 2-amino-6-(trifluoromethoxy)-", "6-(Trifluoromethoxy)-2-benzothiazolamine", "2-Amino-6-(trifluoromethoxy)benzothiazole", "PK 26124", "Riluzole", "RP 54274", "6-(Trifluoromethoxy)-2-aminobenzothiazole", "Rilutek", "6-(Trifluoromethoxy)-1,3-benzothiazol-2-ylamine", "6-Trifluoromethoxybenzothiazol-2-ylamine", "6-(Trifluoromethoxy)-1,3-benzothiazol-2-amine", "6-Trifluoromethoxybenzo[d]thiazol-2-amine", "Rilutor", "BHV 0233", "BHV 0223", "Tiglutik", "MeSH ID: D019782"], "SMILES": "NC1=NC=2C(=CC(OC(F)(F)F)=CC2)S1", "physical_data": {"Molecular Weight": "234.20", "Molecular Formula": "C8H5F3N2OS", "Melting Point": "117-119 \u00b0C"}}