{"cas_no": "17440-83-4", "cn_name": "\u76d0\u9178\u963f\u7c73\u6d1b\u5229\u4e8c\u6c34\u5408\u7269", "en_name": ["2-Pyrazinecarboxamide, 3,5-diamino-N-(aminoiminomethyl)-6-chloro-, hydrochloride, hydrate (1:1:2)", "2-Pyrazinecarboxamide, 3,5-diamino-N-(aminoiminomethyl)-6-chloro-, hydrochloride, hydrate (1:1:2)", "Pyrazinecarboxamide, N-amidino-3,5-diamino-6-chloro-, monohydrochloride, dihydrate", "Pyrazinecarboxamide, 3,5-diamino-N-(aminoiminomethyl)-6-chloro-, monohydrochloride, dihydrate", "N-Amidino-3,5-diamino-6-chloropyrazinamide hydrochloride dihydrate", "3,5-Diamino-N-carbamimidoyl-6-chloropyrazine-2-carboxamide dihydrate hydrochloride"], "SMILES": "C(NC(=N)N)(=O)C=1C(N)=NC(N)=C(Cl)N1.Cl.O", "physical_data": {"Molecular Weight": "", "Molecular Formula": "C6H8ClN7O.ClH.2H2O", "Melting Point": "285-288 \u00b0C"}}