{"cas_no": "174484-41-4", "cn_name": "\u66ff\u62c9\u90a3\u97e6", "en_name": ["Tipranavir", "2-Pyridinesulfonamide, N-[3-[(1R)-1-[(6R)-5,6-dihydro-4-hydroxy-2-oxo-6-(2-phenylethyl)-6-propyl-2H-pyran-3-yl]propyl]phenyl]-5-(trifluoromethyl)-", "2-Pyridinesulfonamide, N-[3-[1-[5,6-dihydro-4-hydroxy-2-oxo-6-(2-phenylethyl)-6-propyl-2H-pyran-3-yl]propyl]phenyl]-5-(trifluoromethyl)-, [R-(R*,R*)]-", "N-[3-[(1R)-1-[(6R)-5,6-Dihydro-4-hydroxy-2-oxo-6-(2-phenylethyl)-6-propyl-2H-pyran-3-yl]propyl]phenyl]-5-(trifluoromethyl)-2-pyridinesulfonamide", "U 140690", "PNU 140690", "Tipranavir", "Aptivus", "TPV"], "SMILES": "C(CC1=CC=CC=C1)C2(CCC)CC(O)=C(C(CC)C3=CC(NS(=O)(=O)C4=CC=C(C(F)(F)F)C=N4)=CC=C3)C(=O)O2", "physical_data": {"Molecular Weight": "602.66", "Molecular Formula": "C31H33F3N2O5S", "Melting Point": "86-89 \u00b0C"}}