{"cas_no": "1745-07-9", "cn_name": "6,7-\u4e8c\u7532\u6c27\u57fa-1,2,3,4-\u56db\u6c22\u5f02\u55b9\u5549", "en_name": ["6,7-Dimethoxy-1,2,3,4-tetrahydroisoquinoline", "Isoquinoline, 1,2,3,4-tetrahydro-6,7-dimethoxy-", "1,2,3,4-Tetrahydro-6,7-dimethoxyisoquinoline", "6,7-Dimethoxy-1,2,3,4-tetrahydroisoquinoline", "Heliamine", "6,7-Dimethoxy-3,4-dihydro-1H-isoquinoline", "THQ2"], "SMILES": "O(C)C=1C=C2C(=CC1OC)CNCC2", "physical_data": {"Molecular Weight": "193.24", "Molecular Formula": "C11H15NO2", "Boiling Point": "175 \u00b0C @ Press: 10 Torr", "Melting Point": "262 \u00b0C"}}