{"cas_no": "17455-13-9", "cn_name": "18-\u51a0\u919a-6", "en_name": ["18-Crown-6", "1,4,7,10,13,16-Hexaoxacyclooctadecane", "18-Crown-6 ether", "Ethylene oxide cyclic hexamer", "18-Crown-6", "18C6", "18-Crown ether-6", "NSC 159836", "Coronand 18C6", "Crown Ether O 18", "30243D"], "SMILES": "C1COCCOCCOCCOCCOCCO1", "physical_data": {"Molecular Weight": "264.32", "Molecular Formula": "C12H24O6", "Boiling Point": "264 \u00b0C @ Press: 33 Torr", "Melting Point": "39 \u00b0C", "Density": "1.237 g/cm\u00b3"}}