{"cas_no": "17452-09-4", "cn_name": "1-\u82ef\u57fa-2,3-\u4e8c\u6c22\u54aa\u5511-2-\u786b\u916e", "en_name": ["1,3-Dihydro-1-phenyl-2H-imidazole-2-thione", "2H-Imidazole-2-thione, 1,3-dihydro-1-phenyl-", "Imidazole-2-thiol, 1-phenyl-", "4-Imidazoline-2-thione, 1-phenyl-", "1,3-Dihydro-1-phenyl-2H-imidazole-2-thione", "1-Phenyl-2-mercaptoimidazole", "2-Mercapto-1-phenylimidazole", "1-Phenyl-2,3-dihydroimidazole-2-thione", "NSC 513730", "1-Phenyl-1H-imidazole-2-thiol", "1-Phenyl-1H-imidazole-2(3H)-thione", "1-Phenyl-2,3-dihydro-1H-imidazole-2-thione", "1-Phenyl-1,3-dihydro-imidazole-2-thione", "3-Phenyl-1H-imidazole-2-thione"], "SMILES": "S=C1N(C=CN1)C2=CC=CC=C2", "physical_data": {"Molecular Weight": "176.24", "Molecular Formula": "C9H8N2S", "Melting Point": "180-181 \u00b0C"}}