{"cas_no": "1745-36-4", "cn_name": "ALPHA-\u6ce2\u83dc\u753e\u9187\u8461\u7cd6\u82f7", "en_name": ["Spinasterol 3-O-\u03b2-D-glucopyranoside", "\u03b2-D-Glucopyranoside, (3\u03b2,5\u03b1,22E)-stigmasta-7,22-dien-3-yl", "5\u03b1-Stigmasta-7,22-diene, 3\u03b2-(\u03b2-D-glucopyranosyloxy)-", "5\u03b1-Stigmasta-7,22-dien-3\u03b2-ol, D-glucoside", "(3\u03b2,5\u03b1,22E)-Stigmasta-7,22-dien-3-yl \u03b2-D-glucopyranoside", "\u03b1-Spinasterol glucoside", "\u03b1-Spinasterol \u03b2-D-glucoside", "\u03b1-Spinasteryl glucoside", "\u03b1-Spinasterol 3-glucoside", "\u03b1-Spinasteryl \u03b2-D-glucoside", "\u03b1-Spinasteryl D-glucoside", "Spinasteryl \u03b2-D-glucopyranoside", "\u03b1-Spinasterol \u03b2-D-glucopyranoside", "\u03b1-Spinasterol-3-O-\u03b2-D-glucopyranoside", "Spinasterol-3-O-\u03b2-D-glucoside", "3-O-\u03b2-D-Glucopyranosylspinasterol", "\u03b1-Spinasteryl 3-O-\u03b2-D-glucoside", "Spinasterol \u03b2-D-glucopyranoside", "Spinasterol 3-O-\u03b2-D-glucopyranoside", "3\u03b1-Spinasterol glucoside"], "SMILES": "CC12C(C=3C(C4(C)C(CC3)CC(OC5OC(CO)C(O)C(O)C5O)CC4)CC1)CCC2C(C=CC(C(C)C)CC)C", "physical_data": {"Molecular Weight": "574.83", "Molecular Formula": "C35H58O6", "Melting Point": "292 \u00b0C"}}