{"cas_no": "1745-81-9", "cn_name": "2-\u70ef\u4e19\u57fa\u915a", "en_name": ["2-Allylphenol", "Phenol, 2-(2-propen-1-yl)-", "Phenol, o-allyl-", "Phenol, 2-(2-propenyl)-", "2-(2-Propen-1-yl)phenol", "2-Allylphenol", "o-Allylphenol", "2-(2-Propenyl)phenol", "NSC 1538", "o-(2-Propenyl)phenol", "Yinguo", "6-(Prop-2-en-1-yl)phenol"], "SMILES": "C(C=C)C1=C(O)C=CC=C1", "physical_data": {"Molecular Weight": "134.18", "Molecular Formula": "C9H10O", "Boiling Point": "220 \u00b0C", "Melting Point": "-6 \u00b0C", "Density": "1.0161 g/cm\u00b3 @ Temp: 20 \u00b0C"}}