{"cas_no": "17452-27-6", "cn_name": "3-\u5421\u5576\u57fa\u5f02\u786b\u6c30\u9178\u916f", "en_name": ["3-Pyridyl isothiocyanate", "Pyridine, 3-isothiocyanato-", "Isothiocyanic acid, 3-pyridyl ester", "3-Isothiocyanatopyridine", "3-Pyridyl isothiocyanate", "Pyridin-3-yl isothiocyanate"], "SMILES": "N(=C=S)C=1C=CC=NC1", "physical_data": {"Molecular Weight": "136.17", "Molecular Formula": "C6H4N2S", "Boiling Point": "231-233 \u00b0C", "Melting Point": "106.5-108 \u00b0C"}}