{"cas_no": "174501-65-6", "cn_name": "1-\u4e01\u57fa-3-\u7532\u57fa\u54aa\u5511\u56db\u6c1f\u787c\u9178\u76d0", "en_name": ["1-Butyl-3-methylimidazolium tetrafluoroborate", "1H-Imidazolium, 3-butyl-1-methyl-, tetrafluoroborate(1-) (1:1)", "1H-Imidazolium, 1-butyl-3-methyl-, tetrafluoroborate(1-)", "1-Butyl-3-methylimidazolium tetrafluoroborate", "1-Methyl-3-butylimidazolium tetrafluoroborate", "1-Butyl-3-methyl-1H-imidazolium tetrafluoroborate", "1-n-Butyl-3-methylimidazolium tetrafluoroborate", "3-Butyl-1-methylimidazolium tetrafluoroborate", "1-Butyl-3-methyl-1H-imidazolium tetrafluoroborate(1-)", "BmimBF4", "1-Butyl-3-methylimidazolium tetrafluoroborate(1-)", "1-Butyl-1-methylimidazolium tetrafluoroborate", "Bmim tetrafluoroborate", "[1-Butyl-3-methylimidazolium]BF4", "BMIm tetrafluoroborate(1-)", "1-Methyl-3-butylimidazolium tetrafluoroborate(1-)", "Butylmethylimidazolium tetrafluoroborate", "1-Butyl-3-methyl-1H-imidazolium tetrafluoroborate(1-)", "1-Butyl-3-methyl-1H-imidazol-3-ium tetrafloroborate", "A 43205"], "SMILES": "[B+3]([F-])([F-])([F-])[F-].C(CCC)[N+]1=CN(C)C=C1", "physical_data": {"Molecular Weight": "", "Molecular Formula": "C8H15N2.BF4", "Melting Point": "-80 \u00b0C", "Density": "1.21 g/cm\u00b3 @ Temp: Room temp"}}