{"cas_no": "174501-64-5", "cn_name": "1-\u4e01\u57fa-3-\u7532\u57fa\u54aa\u5511\u516d\u6c1f\u78f7\u9178\u76d0", "en_name": ["1-Butyl-3-methylimidazolium hexafluorophosphate", "1H-Imidazolium, 3-butyl-1-methyl-, hexafluorophosphate(1-) (1:1)", "1H-Imidazolium, 1-butyl-3-methyl-, hexafluorophosphate(1-)", "1-Butyl-3-methylimidazolium hexafluorophosphate", "1-Butyl-3-methyl-1H-imidazolium hexafluorophosphate", "1-n-Butyl-3-methylimidazolium hexafluorophosphate", "3-Butyl-1-methylimidazolium hexafluorophosphate", "1-Butyl-3-methyl-1H-imidazolium hexafluorophosphate(1-)", "BmimPF6", "1-Methyl-3-butyl imidazolium hexafluorophosphate", "1-Butyl-3-methylimidazolium hexafluorophosphate(1-)", "N-Butyl-N\u2032-methylimidazolium hexafluorophosphate", "LP 104", "Bmim hexafluorophosphate", "Bmim hexafluorophosphate(1-)", "BMI-PF 6", "1-Butyl-3-methylimidazolinium hexafluorophosphate", "Butylmethylimidazolium hexafluorophosphate", "[C4Mim+][PF6-]", "3-Butyl-1-methyl-1H-imidazol-3-ium hexafluorophosphate", "A 33092"], "SMILES": "[P+5]([F-])([F-])([F-])([F-])([F-])[F-].C(CCC)[N+]1=CN(C)C=C1", "physical_data": {"Molecular Weight": "", "Molecular Formula": "C8H15N2.F6P", "Melting Point": "10.36 \u00b0C", "Density": "1.396 g/cm\u00b3"}}