{"cas_no": "174565-63-0", "cn_name": "7-\u785d\u57fa\u55b9\u5511\u5549-2,4-\u4e8c\u916e", "en_name": ["7-Nitro-2,4(1H,3H)-quinazolinedione", "2,4(1H,3H)-Quinazolinedione, 7-nitro-", "7-Nitro-2,4(1H,3H)-quinazolinedione", "7-Nitroquinazoline-2,4(1H,3H)-dione"], "SMILES": "O=C1C=2C(=CC(N(=O)=O)=CC2)NC(=O)N1", "physical_data": {"Molecular Weight": "207.14", "Molecular Formula": "C8H5N3O4", "Melting Point": "337 \u00b0C (decomp)"}}