{"cas_no": "1745-72-8", "cn_name": "\u4e8c\u4e59\u70ef\u57fa\u4e8c\u6c2f\u7845\u70f7", "en_name": ["Dichlorodiethenylsilane", "Silane, dichlorodiethenyl-", "Silane, dichlorodivinyl-", "Dichlorodiethenylsilane", "Dichlorodivinylsilane", "Divinyl dichlorosilane"], "SMILES": "[Si](C=C)(C=C)(Cl)Cl", "physical_data": {"Molecular Weight": "153.08", "Molecular Formula": "C4H6Cl2Si", "Boiling Point": "118-119 \u00b0C", "Density": "1.081 g/cm\u00b3"}}