{"cas_no": "1746-77-6", "cn_name": "\u6c28\u57fa\u7532\u9178\u5f02\u4e19\u916f", "en_name": ["Propan-2-yl carbamate", "Carbamic acid, 1-methylethyl ester", "Carbamic acid, isopropyl ester", "1-Methylethyl carbamate", "Isopropyl carbamate", "NSC 60539", "Propan-2-yl carbamate"], "SMILES": "O(C(C)C)C(N)=O", "physical_data": {"Molecular Weight": "103.12", "Molecular Formula": "C4H9NO2", "Boiling Point": "183 \u00b0C", "Melting Point": "93 \u00b0C", "Density": "0.9951 g/cm\u00b3 @ Temp: 66 \u00b0C"}}