{"cas_no": "1746-25-4", "cn_name": "2,4,5-\u4e09\u7898\u54aa\u5511", "en_name": ["2,4,5-Triiodo-1H-imidazole", "1H-Imidazole, 2,4,5-triiodo-", "Imidazole, 2,4,5-triiodo-", "2,4,5-Triiodo-1H-imidazole", "2,4,5-Triiodoimidazole", "RGW 809", "NSC 222411"], "SMILES": "IC1=C(I)N=C(I)N1", "physical_data": {"Molecular Weight": "445.77", "Molecular Formula": "C3HI3N2", "Melting Point": "191-192 \u00b0C"}}