{"cas_no": "174603-49-7", "cn_name": "4-\u6c1f-6-\u6c2f-1-\u831a\u6ee1\u916e", "en_name": ["6-Chloro-4-fluoro-2,3-dihydro-1H-inden-1-one", "1H-Inden-1-one, 6-chloro-4-fluoro-2,3-dihydro-", "6-Chloro-4-fluoro-2,3-dihydro-1H-inden-1-one", "6-Chloro-4-fluoroindan-1-one"], "SMILES": "FC1=C2C(=CC(Cl)=C1)C(=O)CC2", "physical_data": {"Molecular Weight": "184.59", "Molecular Formula": "C9H6ClFO", "Melting Point": "105-107 \u00b0C"}}