{"cas_no": "174669-74-0", "cn_name": "2-\u6c1f-3-\u7f9f\u57fa\u5421\u5576", "en_name": ["2-Fluoro-3-pyridinol", "3-Pyridinol, 2-fluoro-", "2-Fluoro-3-pyridinol", "2-Fluoro-3-hydroxypyridine"], "SMILES": "OC1=C(F)N=CC=C1", "physical_data": {"Molecular Weight": "113.09", "Molecular Formula": "C5H4FNO", "Melting Point": "125-126 \u00b0C"}}