{"cas_no": "174603-56-6", "cn_name": "4-\u6eb4-6-\u6c1f\u831a\u916e", "en_name": ["4-Bromo-6-fluoro-2,3-dihydro-1H-inden-1-one", "1H-Inden-1-one, 4-bromo-6-fluoro-2,3-dihydro-", "4-Bromo-6-fluoro-2,3-dihydro-1H-inden-1-one"], "SMILES": "BrC1=C2C(=CC(F)=C1)C(=O)CC2", "physical_data": {"Molecular Weight": "229.05", "Molecular Formula": "C9H6BrFO", "Melting Point": "129-131 \u00b0C"}}