{"cas_no": "174671-46-6", "cn_name": "\u4ed6\u4f10\u787c\u7f57", "en_name": ["Tavaborole", "2,1-Benzoxaborole, 5-fluoro-1,3-dihydro-1-hydroxy-", "5-Fluoro-1,3-dihydro-1-hydroxy-2,1-benzoxaborole", "AN 2690", "5-Fluoro-1,3-dihydro-2,1-benzoxaborol-1-ol", "Tavaborole", "AN 2729", "Kerydin"], "SMILES": "OB1C=2C(CO1)=CC(F)=CC2", "physical_data": {"Molecular Weight": "151.93", "Molecular Formula": "C7H6BFO2", "Melting Point": "118-120 \u00b0C"}}