{"cas_no": "174603-38-4", "cn_name": "3-(2-\u6c2f-4-\u6c1f\u82ef\u57fa)-\u4e19\u9178", "en_name": ["2-Chloro-4-fluorobenzenepropanoic acid", "Benzenepropanoic acid, 2-chloro-4-fluoro-", "2-Chloro-4-fluorobenzenepropanoic acid", "3-(2-Chloro-4-fluorophenyl)propanoic acid"], "SMILES": "C(CC(O)=O)C1=C(Cl)C=C(F)C=C1", "physical_data": {"Molecular Weight": "202.61", "Molecular Formula": "C9H8ClFO2", "Melting Point": "100-102 \u00b0C"}}