{"cas_no": "17460-56-9", "cn_name": "Z-D-PHE-PRO-OH", "en_name": ["N-[(Phenylmethoxy)carbonyl]-D-phenylalanyl-L-proline", "L-Proline, N-[(phenylmethoxy)carbonyl]-D-phenylalanyl-", "Proline, 1-(N-carboxy-3-phenyl-D-alanyl)-, N-benzyl ester, L-", "L-Proline, 1-[N-[(phenylmethoxy)carbonyl]-D-phenylalanyl]-", "N-[(Phenylmethoxy)carbonyl]-D-phenylalanyl-L-proline", "Cbz-D-Phe-Pro-OH"], "SMILES": "C(C(CC1=CC=CC=C1)NC(OCC2=CC=CC=C2)=O)(=O)N3C(C(O)=O)CCC3", "physical_data": {"Molecular Weight": "396.44", "Molecular Formula": "C22H24N2O5", "Melting Point": "132-133 \u00b0C"}}