{"cas_no": "17462-58-7", "cn_name": "\u4ef2\u4e01\u57fa\u6c2f\u7532\u9178\u916f", "en_name": ["1-Methylpropyl carbonochloridate", "Carbonochloridic acid, 1-methylpropyl ester", "Formic acid, chloro-, sec-butyl ester", "1-Methylpropyl carbonochloridate", "sec-Butyl chloroformate", "Chloroformic acid sec-butyl ester", "But-2-yl chloroformate"], "SMILES": "C(OC(Cl)=O)(CC)C", "physical_data": {"Molecular Weight": "136.58", "Molecular Formula": "C5H9ClO2", "Boiling Point": "126 \u00b0C"}}