{"cas_no": "1746-01-6", "cn_name": "\u786b\u4e19\u78f7", "en_name": ["2,3,7,8-Tetrachlorodibenzo-p-dioxin", "Dibenzo[b,e][1,4]dioxin, 2,3,7,8-tetrachloro-", "Dibenzo-p-dioxin, 2,3,7,8-tetrachloro-", "2,3,7,8-Tetrachlorodibenzo[b,e][1,4]dioxin", "2,3,7,8-Tetrachlorodibenzo-p-dioxin", "TCDBD", "2,3,7,8-Tetrachloro-p-dioxin", "2,3,7,8-Tetrachlorodibenzo-1,4-dioxin", "Dioxin (herbicide contaminant)", "2,3,7,8-Tetrachlorodibenzodioxin", "TCDD", "Dioxin", "2,3,7,8-TCDD", "D 48", "Tetrachlorodibenzodioxin", "Tetrachlorodibenzo-p-dioxin", "PCDD 48", "2378TCDD", "2,3,7,8-Tetrachlorodibenzo-p-dioxin"], "SMILES": "ClC=1C=C2C(OC=3C(O2)=CC(Cl)=C(Cl)C3)=CC1Cl", "physical_data": {"Molecular Weight": "321.97", "Molecular Formula": "C12H4Cl4O2", "Melting Point": "305-306 \u00b0C", "Density": "1.8 g/cm\u00b3"}}