{"cas_no": "174635-69-9", "cn_name": "3-\u7532\u57fa-2-\u82ef\u57fa-N-((1S)-1-\u82ef\u57fa\u4e19\u57fa)\u55b9\u5549-4-\u7532\u9170\u80fa", "en_name": ["3-Methyl-2-phenyl-N-((1S)-1-phenylpropyl)quinoline-4-carboxamide", "4-Quinolinecarboxamide, 3-methyl-2-phenyl-N-[(1S)-1-phenylpropyl]-", "4-Quinolinecarboxamide, 3-methyl-2-phenyl-N-(1-phenylpropyl)-, (S)-", "3-Methyl-2-phenyl-N-[(1S)-1-phenylpropyl]-4-quinolinecarboxamide", "SB 222200", "3-Methyl-2-phenyl-N-((1S)-1-phenylpropyl)quinoline-4-carboxamide", "3-Methyl-2-phenyl-N-[(1S)-1-phenylpropyl]quinoline-4-carboxamide"], "SMILES": "C(NC(CC)C1=CC=CC=C1)(=O)C=2C3=C(N=C(C2C)C4=CC=CC=C4)C=CC=C3", "physical_data": {"Molecular Weight": "380.48", "Molecular Formula": "C26H24N2O", "Melting Point": "154 \u00b0C"}}