{"cas_no": "1746-03-8", "cn_name": "\u4e59\u70ef\u57fa\u81a6\u9178", "en_name": ["Vinylphosphonic acid", "Phosphonic acid, P-ethenyl-", "Phosphonic acid, vinyl-", "Phosphonic acid, ethenyl-", "P-Ethenylphosphonic acid", "Ethenephosphonic acid", "Ethylenephosphonic acid", "Vinylphosphonic acid", "ITC 467", "PVA 90"], "SMILES": "P(C=C)(=O)(O)O", "physical_data": {"Molecular Weight": "108.03", "Molecular Formula": "C2H5O3P", "Boiling Point": "97-98 \u00b0C @ Press: 2 Torr", "Density": "1.398 g/cm\u00b3 @ Temp: 20 \u00b0C"}}