{"cas_no": "1746-23-2", "cn_name": "4-\u53d4\u4e01\u57fa\u82ef\u4e59\u70ef", "en_name": ["4-tert-Butylstyrene", "Benzene, 1-(1,1-dimethylethyl)-4-ethenyl-", "Styrene, p-tert-butyl-", "1-(1,1-Dimethylethyl)-4-ethenylbenzene", "p-tert-Butylstyrene", "4-tert-Butylstyrene", "1-tert-Butyl-4-vinylbenzene", "1-tert-Butyl-4-ethenylbenzene", "p-t-Butylstyrene", "4-t-Butylstyrene", "1-Ethenyl-4-tert-butylbenzene", "4-tert-Butyl-1-ethenylbenzene", "p-tert-Butyltyrene"], "SMILES": "C(C)(C)(C)C1=CC=C(C=C)C=C1", "physical_data": {"Molecular Weight": "160.26", "Molecular Formula": "C12H16", "Boiling Point": "99-100 \u00b0C @ Press: 14 Torr", "Density": "0.8972 g/cm\u00b3 @ Temp: 20 \u00b0C"}}