{"cas_no": "174636-32-9", "cn_name": "TALNETANT", "en_name": ["Talnetant", "4-Quinolinecarboxamide, 3-hydroxy-2-phenyl-N-[(1S)-1-phenylpropyl]-", "4-Quinolinecarboxamide, 3-hydroxy-2-phenyl-N-(1-phenylpropyl)-, (S)-", "3-Hydroxy-2-phenyl-N-[(1S)-1-phenylpropyl]-4-quinolinecarboxamide", "SB 223412", "Talnetant", "3-Hydroxy-2-phenyl-N-[(1S)-1-phenylpropyl]quinoline-4-carboxamide"], "SMILES": "C(NC(CC)C1=CC=CC=C1)(=O)C=2C3=C(N=C(C2O)C4=CC=CC=C4)C=CC=C3", "physical_data": {"Molecular Weight": "382.45", "Molecular Formula": "C25H22N2O2", "Melting Point": "125.1-126.2 \u00b0C"}}