{"cas_no": "1746-81-2", "cn_name": "\u7eff\u8c37\u9686", "en_name": ["Monolinuron", "Urea, N\u2032-(4-chlorophenyl)-N-methoxy-N-methyl-", "Urea, 3-(p-chlorophenyl)-1-methoxy-1-methyl-", "N\u2032-(4-Chlorophenyl)-N-methoxy-N-methylurea", "Aresin", "3-(4-Chlorophenyl)-1-methoxy-1-methylurea", "N-4-Chlorophenyl-N\u2032-methyl-N\u2032-methoxyurea", "Monolinuron", "Arezine", "N-(4-Chlorophenyl)-N\u2032-methoxy-N\u2032-methylurea", "N\u2032-(4-Chlorophenyl)-N-methyl-N-methoxyurea", "3-(4-Chlorophenyl)-1-methyl-1-methoxyurea", "Arezin", "Monorotox", "N-Methyl-N-methoxy-N\u2032-(4-chlorophenyl)urea", "1-Methoxy-1-methyl-3-(4-chlorophenyl)urea"], "SMILES": "N(C(N(OC)C)=O)C1=CC=C(Cl)C=C1", "physical_data": {"Molecular Weight": "214.65", "Molecular Formula": "C9H11ClN2O2", "Melting Point": "80-83 \u00b0C"}}