{"cas_no": "17464-88-9", "cn_name": "\u56db\u7532\u6c27\u7532\u57fa\u7518\u8132", "en_name": ["MX 270", "Imidazo[4,5-d]imidazole-2,5(1H,3H)-dione, tetrahydro-1,3,4,6-tetrakis(methoxymethyl)-", "Glycoluril, 1,3,4,6-tetrakis(methoxymethyl)-", "Glycoluril, tetrakis(methoxymethyl)-", "Tetrahydro-1,3,4,6-tetrakis(methoxymethyl)imidazo[4,5-d]imidazole-2,5(1H,3H)-dione", "Tetrakis(methoxymethyl)glyoxal diureine", "Tetrakis(methoxymethyl)glycoluril", "N,N\u2032,N\u2032\u2032,N\u2032\u2032\u2032-Tetrakis(methoxymethyl)glycoluril", "Cymel 1174", "Powderlink 1174", "Tetramethoxymethyl glycoluril", "1,3,4,6-Tetrakis(methoxymethyl)glycoluril", "Nikalac MX 270", "MX 270", "Nikalac N 2702", "PL 1174", "PD 1174", "PL-LI"], "SMILES": "C(OC)N1C2C(N(COC)C(=O)N2COC)N(COC)C1=O", "physical_data": {"Molecular Weight": "318.33", "Molecular Formula": "C12H22N4O6", "Melting Point": "90 \u00b0C"}}