{"cas_no": "1746-11-8", "cn_name": "2,3-\u4e8c\u6c22-2-\u7532\u57fa\u82ef\u5e76\u544b\u5583", "en_name": ["2,3-Dihydro-2-methylbenzofuran", "Benzofuran, 2,3-dihydro-2-methyl-", "2,3-Dihydro-2-methylbenzofuran", "2-Methyl-2,3-dihydrobenzofuran", "2-Methylcoumaran", "2,3-Dihydro-2-methylbenzo[b]furan", "2-Methyl-2,3-dihydro-1-benzo[b]furan", "NSC 403556", "2-Methyl-2,3-dihydrobenzo[b]furan", "2-Methyl-2,3-dihydro-1-benzofuran"], "SMILES": "CC1CC=2C(O1)=CC=CC2", "physical_data": {"Molecular Weight": "134.18", "Molecular Formula": "C9H10O", "Boiling Point": "197.5 \u00b0C", "Density": "1.038 g/cm\u00b3 @ Temp: 24 \u00b0C"}}