{"cas_no": "17465-86-0", "cn_name": "\u03b3-\u73af\u7cca\u7cbe", "en_name": ["\u03b3-Cyclodextrin", "\u03b3-Cyclodextrin", "2,4,7,9,12,14,17,19,22,24,27,29,32,34,37,39-Hexadecaoxanonacyclo[36.2.2.23,6.28,11.213,16.218,21.223,26.228,31.233,36]hexapentacontane, \u03b3-cyclodextrin deriv.", "Cyclooctaamylose", "\u03b3-Dextrin", "Stereoisomer of 5,10,15,20,25,30,35,40-octakis(hydroxymethyl)-2,4,7,9,12,14,17,19,22,24,27,29,32,34,37,39-hexadecaoxanonacyclo[36.2.2.23,6.28,11.213,16.218,21.223,26.228,31.233,36]hexapentacontane-41,42,43,44,45,46,47,48,49,50,51,52,53,54,55,56-hexadecol", "Cyclomaltooctaose", "Ringdex C", "Dexy Pearl \u03b3-100", "Celdex C 100", "Cavamax W 8", "Celdex G 100", "Cavamax 8 Food", "Cavamax W 8 Food", "Rindex C", "\u03b3-100", "Cavasol W8", "Cavasol W 6", "Dexipar \u03b3-100"], "SMILES": "C(O)C1C2C(O)C(O)C(O1)OC3C(CO)OC(C(O)C3O)OC4C(CO)OC(C(O)C4O)OC5C(CO)OC(C(O)C5O)OC6C(O)C(O)C(OC7C(O)C(O)C(OC8C(O)C(O)C(OC9C(O)C(O)C(O2)OC9CO)OC8CO)OC7CO)OC6CO", "physical_data": {"Molecular Weight": "1297.12", "Molecular Formula": "C48H80O40", "Melting Point": "260-340 \u00b0C (decomp)"}}