{"cas_no": "17467-15-1", "cn_name": "5-\u6c28\u57fa-3-\u82ef\u57fa-1,2,4-\u567b\u91cd\u6c2e", "en_name": ["3-Phenyl-1,2,4-thiadiazol-5-amine", "1,2,4-Thiadiazol-5-amine, 3-phenyl-", "1,2,4-Thiadiazole, 5-amino-3-phenyl-", "3-Phenyl-1,2,4-thiadiazol-5-amine", "5-Amino-3-phenyl-1,2,4-thiadiazole", "NSC 119930", "(3-Phenyl-[1,2,4]thiadiazol-5-yl)amine", "3-Phenyl-5-amino-1,2,4-thiadiazole"], "SMILES": "NC1=NC(=NS1)C2=CC=CC=C2", "physical_data": {"Molecular Weight": "177.23", "Molecular Formula": "C8H7N3S", "Melting Point": "155 \u00b0C"}}