{"cas_no": "1746-13-0", "cn_name": "\u4e19\u70ef\u57fa\u82ef\u57fa\u919a", "en_name": ["Allyl phenyl ether", "Benzene, (2-propen-1-yloxy)-", "Ether, allyl phenyl", "Benzene, (2-propenyloxy)-", "(2-Propen-1-yloxy)benzene", "Allyl phenyl ether", "(2-Propenyloxy)benzene", "Phenyl allyl ether", "Allyloxybenzene", "3-Phenoxypropene", "Phenyl 2-propenyl ether", "Phenylpropenyl ether", "3-Phenoxy-1-propene", "1-(2-Propenyloxy)benzene", "1-Phenoxy-2-propene", "NSC 4746"], "SMILES": "O(CC=C)C1=CC=CC=C1", "physical_data": {"Molecular Weight": "134.18", "Molecular Formula": "C9H10O", "Boiling Point": "191.7 \u00b0C", "Melting Point": "90 \u00b0C"}}