{"cas_no": "1747-60-0", "cn_name": "2-\u6c28\u57fa-6-\u7532\u6c27\u57fa\u82ef\u5e76\u567b\u5511", "en_name": ["2-Amino-6-methoxybenzothiazole", "2-Benzothiazolamine, 6-methoxy-", "Benzothiazole, 2-amino-6-methoxy-", "6-Methoxy-2-benzothiazolamine", "6-Methoxy-2-aminobenzothiazole", "2-Amino-6-methoxybenzothiazole", "6-Methoxy-1,3-benzothiazol-2-ylamine", "NSC 27516", "(6-Methoxybenzothiazol-2-yl)amine", "6-Methoxybenzo[d]thiazol-2-amine", "6-Methoxy-1,3-benzothiazol-2-amine", "6-(Methyloxy)-1,3-benzothiazol-2-amine"], "SMILES": "NC1=NC=2C(=CC(OC)=CC2)S1", "physical_data": {"Molecular Weight": "180.23", "Molecular Formula": "C8H8N2OS", "Melting Point": "158 \u00b0C"}}