{"cas_no": "174775-48-5", "cn_name": "5-\u6c28\u57fa\u82ef\u5e76\u544b\u5583\u7532\u9178\u4e59\u916f", "en_name": ["2-Benzofurancarboxylic acid, 5-amino-, ethyl ester", "2-Benzofurancarboxylic acid, 5-amino-, ethyl ester", "Ethyl 5-aminobenzofuran-2-carboxylate", "5-Aminobenzofuran-2-carboxylic acid ethyl ester", "Ethyl 5-amino-1-benzofuran-2-carboxylate"], "SMILES": "C(OCC)(=O)C1=CC=2C(O1)=CC=C(N)C2", "physical_data": {"Molecular Weight": "205.21", "Molecular Formula": "C11H11NO3", "Melting Point": "59-60 \u00b0C"}}