{"cas_no": "17477-29-1", "cn_name": "\u4e19\u57fa\u4e8c\u7532\u57fa\u6c2f\u7845\u70f7", "en_name": ["Chlorodimethylpropylsilane", "Silane, chlorodimethylpropyl-", "Chlorodimethylpropylsilane", "Propyl(dimethyl)chlorosilane", "Dimethylpropylsilyl chloride", "Dimethyl-n-propylchlorosilane"], "SMILES": "C([Si](C)(C)Cl)CC", "physical_data": {"Molecular Weight": "136.70", "Molecular Formula": "C5H13ClSi", "Boiling Point": "113-114 \u00b0C", "Density": "0.872 g/cm\u00b3"}}