{"cas_no": "17480-69-2", "cn_name": "(S)-(-)-N-\u82c4\u57fa-alpha-\u7532\u57fa\u82c4\u80fa", "en_name": ["(-)-N-Benzyl-1-phenylethylamine", "Benzenemethanamine, \u03b1-methyl-N-(phenylmethyl)-, (\u03b1S)-", "Dibenzylamine, \u03b1-methyl-, (-)-", "Benzenemethanamine, \u03b1-methyl-N-(phenylmethyl)-, (S)-", "(\u03b1S)-\u03b1-Methyl-N-(phenylmethyl)benzenemethanamine", "(-)-N-Benzyl-1-phenylethylamine", "(S)-N-Benzyl-\u03b1-phenethylamine", "(1S)-N-(1-Phenylethyl)benzylamine", "(S)-N-Benzyl-1-phenylethylamine", "(S)-N-Benzyl-\u03b1-methylbenzylamine", "(S)-(-)-N-Benzyl-\u03b1-methylbenzylamine", "(S)-Benzyl(\u03b1-methylbenzyl)amine", "(Benzyl)((S)-1-phenylethyl)amine", "(S)-N-Benzyl-N-(\u03b1-methylbenzyl)amine", "N-Benzyl-N-((\u03b1S)-\u03b1-methylbenzyl)amine", "(Benzyl)((1S)-1-phenylethyl)amine", "N-Benzyl((S)-1-phenylethyl)amine", "(S)-N-Benzyl-1-phenylethanamine", "(1S)-N-Benzyl-1-phenylethylamine", "(S)-(-)-N-Benzyl-alpha-methylbenzylamine", "(S)-N-Benzyl-1-phenylethan-1-amine", "(1S)-N-Benzyl-1-phenylethanamine", "(S)-(-)-N-Benzyl-1-phenylethylamine"], "SMILES": "C(NCC1=CC=CC=C1)(C)C2=CC=CC=C2", "physical_data": {"Molecular Weight": "211.30", "Molecular Formula": "C15H17N", "Boiling Point": "110-115 \u00b0C @ Press: 0.5 Torr"}}