{"cas_no": "174899-82-2", "cn_name": "1-\u4e59\u57fa-3-\u7532\u57fa\u54aa\u5511\u5549\u53cc(\u4e09\u6c1f\u7532\u57fa\u78fa\u9170\u57fa)\u4e9a\u80fa", "en_name": ["1-Ethyl-3-methylimidazolium bis(trifluoromethylsulfonyl)imide", "1H-Imidazolium, 3-ethyl-1-methyl-, salt with 1,1,1-trifluoro-N-[(trifluoromethyl)sulfonyl]methanesulfonamide (1:1)", "1H-Imidazolium, 1-ethyl-3-methyl-, salt with 1,1,1-trifluoro-N-[(trifluoromethyl)sulfonyl]methanesulfonamide (1:1)", "Methanesulfonamide, 1,1,1-trifluoro-N-[(trifluoromethyl)sulfonyl]-, ion(1-), 1-ethyl-3-methyl-1H-imidazolium", "1-Ethyl-3-methylimidazolium bis(trifluoromethylsulfonyl)imide", "1-Methyl-3-ethylimidazolium bis(trifluoromethylsulfonyl)imide", "1-Ethyl-3-methyl-1H-imidazolium salt with 1,1,1-trifluoro-N-[(trifluoromethyl)sulfonyl]methanesulfonamide", "1-Ethyl-3-methylimidazolium bis(triflyl)amide", "1-Ethyl-3-methylimidazolium bistriflimide", "1-Ethyl-3-methylimidazolium bis(trifluoromethanesulfonyl)imide", "1-Ethyl-3-methylimidazolium triflimide", "1-Ethyl-3-methyl-1H-imidazolium bis(trifluoromethylsulfonyl)imide", "EMI-TFSI", "Elexcel IL 210", "3-Ethyl-1-methylimidazolium bis(trifluoromethanesulfonyl)imide", "1-Ethyl-3-methyl-1H-imidazolium bis(trifluoromethanesulfonyl)imide", "1-Ethyl-3-methylimidazolium bis[(trifluoromethyl)sulfonyl]amide", "1-Ethyl-3-methyl-1-H-imidazolium bis(trifluoromethansulfonyl)imide", "1-Ethyl-3-methylimidazolium bis(trifluoromethanesulfonimide) salt", "1-Ethyl-3-methylimidazolium bis(trifluoromethanesylfonyl)imide(1-)", "1-Ethyl-3-methylimidizolium bis(trifluoromethane sulfonyl)imide", "Ethylmethylimidazolium bis(trifluoromethanesulfonyl)imide", "1-Ethyl-3-methylimidazolium bis(trifluoromethanesulfonyl)imide(1-)", "EMIm bis(trifluoromethanesulfonyl)amide", "1-Ethyl-3-methylimidazolium bis(trifluoromethanesulfonimide)", "IL 210", "1-Ethyl-3-methylimidazolium bis(trifluoromethylsulfonyl)imidate(1-)", "Basionics HP 01", "1-Ethyl-3-methylimidazolium bis(trifluoromethanesulfone)imide", "1-Ethyl-3-methylimidazolium bis(trifluoromethylsulfonyl)imide(1-)", "[C2Mim+][Tf2N-]", "[EMIM][TFSI]", "1-Ethyl-3-methylimidazolium bis(trifluorosulfonyl)imide", "1-Ethyl-3-methylimidazolinium bis(trifluoromethylsulfonyl)imide", "1-Ethyl-3-methylimidazolium bis(trifluoromethylsufonyl)imide", "A 79426", "1-Ethyl-3-methylimidazolium bis(trifluoromethylsulfonyl)amide", "EMIN 111"], "SMILES": "C(C)[N+]1=CN(C)C=C1.S([N-]S(C(F)(F)F)(=O)=O)(C(F)(F)F)(=O)=O", "physical_data": {"Molecular Weight": "", "Molecular Formula": "C6H11N2.C2F6NO4S2", "Boiling Point": "543.6 \u00b0C", "Melting Point": "-17 \u00b0C", "Density": "1.5 g/cm\u00b3"}}