{"cas_no": "17484-36-5", "cn_name": "4-\u7532\u57fa-3-\u785d\u57fa\u82ef\u7532\u919a", "en_name": ["4-Methoxy-1-methyl-2-nitrobenzene", "Benzene, 4-methoxy-1-methyl-2-nitro-", "Anisole, 4-methyl-3-nitro-", "4-Methoxy-1-methyl-2-nitrobenzene", "4-Methyl-3-nitroanisole", "4-Methoxy-2-nitrotoluene", "2-Nitro-4-methoxytoluene", "3-Nitro-4-methylanisole"], "SMILES": "N(=O)(=O)C1=CC(OC)=CC=C1C", "physical_data": {"Molecular Weight": "167.16", "Molecular Formula": "C8H9NO3", "Boiling Point": "266.5 \u00b0C", "Melting Point": "17 \u00b0C"}}