{"cas_no": "174899-83-3", "cn_name": "1-\u4e01\u57fa-3-\u7532\u57fa\u54aa\u5511\u4e8c(\u4e09\u6c1f\u7532\u57fa\u78fa\u9170)\u9170\u4e9a\u80fa", "en_name": ["1-Butyl-3-methylimidazolium bis(trifluoromethylsulfonyl)imide", "1H-Imidazolium, 3-butyl-1-methyl-, salt with 1,1,1-trifluoro-N-[(trifluoromethyl)sulfonyl]methanesulfonamide (1:1)", "1H-Imidazolium, 1-butyl-3-methyl-, salt with 1,1,1-trifluoro-N-[(trifluoromethyl)sulfonyl]methanesulfonamide (1:1)", "Methanesulfonamide, 1,1,1-trifluoro-N-[(trifluoromethyl)sulfonyl]-, ion(1-), 1-butyl-3-methyl-1H-imidazolium", "1-Butyl-3-methylimidazolium bis(trifluoromethanesulfonyl)imide", "1-Butyl-3-methylimidazolium bis(trifluoromethylsulfonyl)imide", "1-n-Butyl-3-methylimidazolium bis(trifluoromethylsulfonyl)imide", "1-Butyl-3-methylimidazolium bistriflimide", "1-Butyl-3-methyl-1H-imidazolium salt with 1,1,1-trifluoro-N-[(trifluoromethyl)sulfonyl]methanesulfonamide (1:1)", "1-Butyl-3-methyl-1H-imidazolium salt with 1,1,1-trifluoro-N-[(trifluoromethyl)sulfonyl]methanesulfonamide", "1-Butyl-3-methylimidazolium bis(triflyl)imide", "1-Butyl-3-methylimidazolium N,N-bis(trifluoromethylsulfonyl)amide", "1-Butyl-3-methylimidazolium N,N-bis(trifluoromethanesulfonyl)imide", "1-Butyl-3-methylimidazolium bis(trifluoromethanesulfonyl)imide(1-)", "1-Butyl-3-methyl-1H-imidazolium N,N-bis[(trifluoromethyl)sulfonyl]amide", "1-Butyl-3-methylimidazolium bis(trifluoromethane)sulfonimide", "1-Butyl-3-methylimidazolium bistriflamide", "3-Butyl-1-methylimidazolium bis(trifluoromethanesulfonyl)imide", "3-Butyl-1-methylimidazolium bis(trifluoromethylsulfonyl)imide", "1-Butyl-3-methylimidazolium bis[(trifluoromethyl)sulfonyl]amide", "1-Butyl-3-methylimidiazolium bis(trifluoromethanesulfonyl)imide", "1-Butyl-3-methylimidazolium bis(trifluoromethanesulfonyl)amide", "1-n-Butyl-3-methylimidazolium bis(trifluoromethanesulfonyl)imide", "1-Butyl-3-methylimidazolium triflimide", "Bmim bis(trifluoromethanesulfonyl)imide", "1-Butyl-3-methylimidazolium bis(trifluoromethanesulfonimide) salt", "1-Butyl-3-methylimidazolium bis(trifluoromethanesylfonyl)imide(1-)", "1-Methyl-3-butylimidazolium bis(trifluoromethylsulfonyl)imide", "1-Butyl-3-methyl-1H-imidazolium N,N-bis(trifluoromethanesulfonyl)imide", "BMI-TFSI", "1-Butyl-3-methylimidazolium bis((trifluoromethy)sulfonyl)imide", "1-Butyl-3-methyl-1H-imidazolium 1,1,1-trifluoro-N-[(trifluoromethyl)sulfonyl]methanesulfonamide(1-)", "1-Butyl-3-methylimidazolium bis(trifluoromethylsulfonyl)imide(1-)", "[C4Mim+][Tf2N-]", "1-Butyl-3-methylimidazolium bis(trifluoromethanesulfonyl)imidate", "1-Butyl-3-methyl-1H-imidazol-3-ium bis((trifluoromethyl)sulfonyl)amide", "BMIM-TFSI", "Butyl methyl imidazolium bis(trifluoromethyl)sulfonimide", "BMI-N 111", "1-Butyl-3-methylimidazolium bis(trifluoromethylsufonyl)imide"], "SMILES": "C(CCC)[N+]1=CN(C)C=C1.S([N-]S(C(F)(F)F)(=O)=O)(C(F)(F)F)(=O)=O", "physical_data": {"Molecular Weight": "", "Molecular Formula": "C8H15N2.C2F6NO4S2", "Melting Point": "-4.9 \u00b0C", "Density": "1.4386 g/cm\u00b3 @ Temp: 22.9-23.7 \u00b0C"}}