{"cas_no": "174899-66-2", "cn_name": "1-\u6b63\u4e01\u57fa-3-\u7532\u57fa\u54aa\u5511\u4e09\u6c1f\u7532\u70f7\u78fa\u9178\u76d0", "en_name": ["1-Butyl-3-methylimidazolium trifluoromethanesulfonate", "1H-Imidazolium, 3-butyl-1-methyl-, 1,1,1-trifluoromethanesulfonate (1:1)", "1H-Imidazolium, 1-butyl-3-methyl-, salt with trifluoromethanesulfonic acid (1:1)", "1-Butyl-3-methylimidazolium trifluoromethanesulfonate", "1-Butyl-3-methylimidazolium triflate", "1-n-Butyl-3-methylimidazolium triflate", "1-Butyl-3-methyl-1H-imidazolium salt with trifluoromethanesulfonic acid (1:1)", "1-Butyl-3-methyl-1H-imidazolium trifluoromethanesulfonate", "3-Butyl-1-methylimidazolium triflate", "Bmim triflate", "B 2337", "1-Methyl-3-butylimidazolium trifluoromethylsulfonate", "1-Methyl-3-butylimidazolium trifluoromethanesulfonate", "[MIM][OTf]", "Butylmethylimidazolium trifluoromethanesulfonate", "1-Butyl-3-methylimidazolium trifluoromethanesulfonate(1-)", "1-Butyl-3-methylimidazolium trifluoromethansulfonate", "1-Butyl-3-methylimidazolium trifluoromethanesufonate"], "SMILES": "C(S(=O)(=O)[O-])(F)(F)F.C(CCC)[N+]1=CN(C)C=C1", "physical_data": {"Molecular Weight": "", "Molecular Formula": "C8H15N2.CF3O3S", "Melting Point": "16.4 \u00b0C", "Density": "1.3013 g/cm\u00b3 @ Temp: 22.5-22.7 \u00b0C; Press: 800 Torr"}}