{"cas_no": "174886-05-6", "cn_name": "1-\u7532\u57fa-1-\u73af\u4e01\u80fa\u76d0\u9178\u76d0", "en_name": ["Cyclobutanamine, 1-methyl-, hydrochloride (1:1)", "Cyclobutanamine, 1-methyl-, hydrochloride (1:1)", "Cyclobutanamine, 1-methyl-, hydrochloride", "1-Amino-1-methylcyclobutane hydrochloride", "1-Methyl-1-cyclobutanamine hydrochloride", "1-Methylcyclobutanamine hydrochloride", "(1-Methylcyclobutyl)amine hydrochloride"], "SMILES": "CC1(N)CCC1.Cl", "physical_data": {"Molecular Weight": "", "Molecular Formula": "C5H11N.ClH", "Melting Point": "241-244 \u00b0C"}}