{"cas_no": "174913-20-3", "cn_name": "2-\u6eb4-1,3-\u4e8c\u6c2f-5-\u7532\u6c27\u57fa\u82ef", "en_name": ["2-Bromo-1,3-dichloro-5-methoxybenzene", "Benzene, 2-bromo-1,3-dichloro-5-methoxy-", "2-Bromo-1,3-dichloro-5-methoxybenzene"], "SMILES": "O(C)C1=CC(Cl)=C(Br)C(Cl)=C1", "physical_data": {"Molecular Weight": "255.92", "Molecular Formula": "C7H5BrCl2O", "Melting Point": "59-60 \u00b0C"}}