{"cas_no": "17496-08-1", "cn_name": "\u4e19\u9178\u94f5", "en_name": ["Ammonium propionate", "Propanoic acid, ammonium salt (1:1)", "Propionic acid, ammonium salt", "Propanoic acid, ammonium salt", "Ammonium propionate", "Luprosil NC"], "SMILES": "C(CC)(O)=O.N", "physical_data": {"Molecular Weight": "", "Molecular Formula": "C3H6O2.H3N", "Melting Point": "73 \u00b0C"}}