{"cas_no": "17496-14-9", "cn_name": "2-\u7532\u57fa\u831a\u6ee1-1-\u916e", "en_name": ["2-Methyl-1-indanone", "1H-Inden-1-one, 2,3-dihydro-2-methyl-", "1-Indanone, 2-methyl-", "2,3-Dihydro-2-methyl-1H-inden-1-one", "2-Methylindanone", "2-Methyl-1-indanone", "2-Methyl-2,3-dihydro-1H-inden-1-one", "NSC 67345", "(\u00b1)-2-Methyl-1-indanone", "2-Methyl-2,3-dihydro-1-indenone"], "SMILES": "O=C1C=2C(CC1C)=CC=CC2", "physical_data": {"Molecular Weight": "146.19", "Molecular Formula": "C10H10O", "Boiling Point": "119-120 \u00b0C @ Press: 16 Torr", "Melting Point": "47-47.5 \u00b0C", "Density": "1.064 g/cm\u00b3 @ Temp: 20 \u00b0C"}}