{"cas_no": "1750-42-1", "cn_name": "3-\u6c28\u57fa\u5f02\u6076\u5511", "en_name": ["3-Isoxazolamine", "3-Isoxazolamine", "Isoxazole, 3-amino-", "3-Aminoisoxazole", "3-Isoxazolylamine", "1,2-Oxazol-3-amine", "3-Amino-1,2-oxazole"], "SMILES": "NC=1C=CON1", "physical_data": {"Molecular Weight": "84.08", "Molecular Formula": "C3H4N2O", "Boiling Point": "101 \u00b0C @ Press: 10 Torr", "Melting Point": "148-150 \u00b0C"}}