{"cas_no": "1750-12-5", "cn_name": "4-\u6c28\u57fa-3-\u80bc\u57fa-5-\u5def\u57fa-1,2,4-\u4e09\u6c2e\u5511", "en_name": ["4-Amino-3-hydrazino-5-mercapto-1,2,4-triazole", "3H-1,2,4-Triazole-3-thione, 4-amino-5-hydrazinyl-2,4-dihydro-", "\u03942-1,2,4-Triazoline-5-thione, 4-amino-3-hydrazino-", "1,2,4-Triazolidin-3-one, 4-amino-5-thioxo-, hydrazone", "4H-1,2,4-Triazole-3-thiol, 4-amino-5-hydrazino-", "4-Amino-5-hydrazinyl-2,4-dihydro-3H-1,2,4-triazole-3-thione", "4-Amino-3-hydrazino-5-mercapto-1,2,4-triazole", "4-Amino-5-hydrazino-1,2,4-triazole-3-thiol", "Purpald", "AHMT", "4-Amino-3-hydrazino-5-thio-1,2,4-triazole", "4-Amino-3-hydrazino-1,2,4-triazole-5-thiol", "AHMT (hydrazone)", "NSC 12519", "NSC 49106", "NSC 682569", "4-Amino-5-hydrazino-4H-[1,2,4]triazol-3-thiol", "4-Amino-5-hydrazino-4H-1,2,4-triazole-3-thiol"], "SMILES": "N(N)=C1N(N)C(=S)NN1", "physical_data": {"Molecular Weight": "146.17", "Molecular Formula": "C2H6N6S", "Melting Point": "228 \u00b0C"}}