{"cas_no": "1750-45-4", "cn_name": "6-.\u7f9f\u57fa\u6c2f\u5511\u6c99\u5b97", "en_name": ["6-Hydroxychlorzoxazone", "2(3H)-Benzoxazolone, 5-chloro-6-hydroxy-", "2-Benzoxazolinone, 5-chloro-6-hydroxy-", "2,6-Benzoxazolediol, 5-chloro-", "5-Chloro-6-hydroxy-2(3H)-benzoxazolone", "6-Hydroxychlorzoxazone", "NSC 24955", "6-Hydroxylchlorzoxazone", "6-Hydroxychloroxazone"], "SMILES": "ClC=1C=C2C(=CC1O)OC(=O)N2", "physical_data": {"Molecular Weight": "185.56", "Molecular Formula": "C7H4ClNO3", "Melting Point": "245-247 \u00b0C"}}