{"cas_no": "17508-17-7", "cn_name": "2,4-\u4e8c\u785d\u57fa\u82ef\u57fa\u7f9f\u80fa", "en_name": ["O-(2,4-Dinitrophenyl)hydroxylamine", "Hydroxylamine, O-(2,4-dinitrophenyl)-", "O-(2,4-Dinitrophenyl)hydroxylamine", "DNPA", "2,4-Dinitrophenoxyamine", "2,4-Nitrophenoxyamine", "1-Aminooxy-2,4-dinitrobenzene", "NSC 148499"], "SMILES": "N(=O)(=O)C1=C(ON)C=CC(N(=O)=O)=C1", "physical_data": {"Molecular Weight": "199.12", "Molecular Formula": "C6H5N3O5", "Melting Point": "111 \u00b0C"}}