{"cas_no": "17518-43-3", "cn_name": "\u82ef\u7532\u9170\u7898\u5316\u80c6\u78b1", "en_name": ["Ethanaminium, 2-(benzoyloxy)-N,N,N-trimethyl-, iodide (1:1)", "Ethanaminium, 2-(benzoyloxy)-N,N,N-trimethyl-, iodide (1:1)", "Choline, iodide, benzoate", "Ethanaminium, 2-(benzoyloxy)-N,N,N-trimethyl-, iodide", "Benzoylcholine iodide", "2-(Trimethylammonio)ethyl benzoate iodide", "2-(Benzoyloxy)-N,N,N-trimethylethanaminium iodide"], "SMILES": "C(OCC[N+](C)(C)C)(=O)C1=CC=CC=C1.[I-]", "physical_data": {"Molecular Weight": "", "Molecular Formula": "C12H18NO2.I", "Melting Point": "243-244 \u00b0C (decomp)"}}