{"cas_no": "175137-09-4", "cn_name": "6-(4-\u6c2f\u82ef\u57fa)\u5627\u5576E-2,4-\u4e8c\u80fa", "en_name": ["6-(4-Chlorophenyl)-2,4-pyrimidinediamine", "2,4-Pyrimidinediamine, 6-(4-chlorophenyl)-", "Pyrimidine, 2,4-diamino-6-(p-chlorophenyl)-", "6-(4-Chlorophenyl)-2,4-pyrimidinediamine", "2,4-Diamino-6-(4-chlorophenyl)pyrimidine"], "SMILES": "NC1=CC(=NC(N)=N1)C2=CC=C(Cl)C=C2", "physical_data": {"Molecular Weight": "220.66", "Molecular Formula": "C10H9ClN4", "Melting Point": "162-163 \u00b0C"}}