{"cas_no": "175136-34-2", "cn_name": "3,4-DIHYDRO-2H-1,5-BENZODIOXEPIN-7-AMINE", "en_name": ["3,4-Dihydro-2H-1,5-benzodioxepin-7-amine", "2H-1,5-Benzodioxepin-7-amine, 3,4-dihydro-", "3,4-Dihydro-2H-1,5-benzodioxepin-7-amine", "7-Aminobenzo[b][1,4]dioxepane"], "SMILES": "NC=1C=C2C(=CC1)OCCCO2", "physical_data": {"Molecular Weight": "165.19", "Molecular Formula": "C9H11NO2", "Melting Point": "68 \u00b0C"}}