{"cas_no": "175137-13-0", "cn_name": "7-\u7532\u57fa\u567b\u5429\u5e76[3,2-D]\u5627\u5576-4(3H)-\u916e", "en_name": ["7-Methylthieno[3,2-d]pyrimidin-4(3H)-one", "Thieno[3,2-d]pyrimidin-4(3H)-one, 7-methyl-", "Thieno[3,2-d]pyrimidin-4(1H)-one, 7-methyl-", "7-Methylthieno[3,2-d]pyrimidin-4(3H)-one", "7-Methyl-3H-thieno[3,2-d]pyrimidin-4-one"], "SMILES": "O=C1C2=C(C(C)=CS2)NC=N1", "physical_data": {"Molecular Weight": "166.20", "Molecular Formula": "C7H6N2OS", "Melting Point": "244-246 \u00b0C"}}