{"cas_no": "175135-49-6", "cn_name": "N-(2-\u6eb4-4-\u4e09\u6c1f\u7532\u57fa\u82ef\u57fa)\u4e59\u9170\u80fa", "en_name": ["N-[2-Bromo-4-(trifluoromethyl)phenyl]acetamide", "Acetamide, N-[2-bromo-4-(trifluoromethyl)phenyl]-", "N-[2-Bromo-4-(trifluoromethyl)phenyl]acetamide"], "SMILES": "C(F)(F)(F)C1=CC(Br)=C(NC(C)=O)C=C1", "physical_data": {"Molecular Weight": "282.06", "Molecular Formula": "C9H7BrF3NO", "Melting Point": "146 \u00b0C"}}