{"cas_no": "17515-74-1", "cn_name": "5-\u7532\u57fa-2-(\u4e09\u6c1f\u7532\u57fa)-3-\u544b\u5583\u7532\u9178", "en_name": ["5-Methyl-2-(trifluoromethyl)-3-furancarboxylic acid", "3-Furancarboxylic acid, 5-methyl-2-(trifluoromethyl)-", "3-Furoic acid, 5-methyl-2-(trifluoromethyl)-", "5-Methyl-2-(trifluoromethyl)-3-furancarboxylic acid", "2-Methyl-5-(trifluoromethyl)-4-furancarboxylic acid", "2-Trifluoromethyl-5-methyl-3-furancarboxylic acid", "5-Methyl-2-trifluoromethylfuran-3-carboxylic acid"], "SMILES": "C(O)(=O)C1=C(C(F)(F)F)OC(C)=C1", "physical_data": {"Molecular Weight": "194.11", "Molecular Formula": "C7H5F3O3", "Melting Point": "106-108 \u00b0C"}}