{"cas_no": "175135-07-6", "cn_name": "\u82ef\u5e76\u567b\u5429-2-\u7fa7\u9178\u80bc", "en_name": ["Benzo[b]thiophene-2-carboxylic acid, hydrazide", "Benzo[b]thiophene-2-carboxylic acid, hydrazide", "Benzo[b]thiophene-2-carboxylic hydrazide", "1-Benzothiophene-2-carbohydrazide"], "SMILES": "C(NN)(=O)C1=CC=2C(S1)=CC=CC2", "physical_data": {"Molecular Weight": "192.24", "Molecular Formula": "C9H8N2OS", "Melting Point": "192-195 \u00b0C"}}