{"cas_no": "175136-93-3", "cn_name": "1-(2-\u544b\u5583\u7532\u57fa)-5-\u6c27\u5421\u54af\u70f7-3-\u7fa7\u9178", "en_name": ["1-(2-Furanylmethyl)-5-oxo-3-pyrrolidinecarboxylic acid", "3-Pyrrolidinecarboxylic acid, 1-(2-furanylmethyl)-5-oxo-", "1-(2-Furanylmethyl)-5-oxo-3-pyrrolidinecarboxylic acid", "1-(2-Furylmethyl)-5-oxopyrrolidine-3-carboxylic acid", "1-(2-Furylmethyl)-5-oxopyrrolidine-3-carboxylicacid"], "SMILES": "C(N1CC(C(O)=O)CC1=O)C2=CC=CO2", "physical_data": {"Molecular Weight": "209.20", "Molecular Formula": "C10H11NO4", "Melting Point": "155-156 \u00b0C"}}