{"cas_no": "175135-63-4", "cn_name": "3-\u6c28\u57fa-2-(2,4-\u4e8c\u6c1f\u82ef\u6c27\u57fa)\u5421\u5576", "en_name": ["2-(2,4-Difluorophenoxy)-3-pyridinamine", "3-Pyridinamine, 2-(2,4-difluorophenoxy)-", "2-(2,4-Difluorophenoxy)-3-pyridinamine", "3-Amino-2-(2,4-difluorophenoxy)pyridine", "2-(2,4-Difluorophenoxy)pyridin-3-amine"], "SMILES": "O(C1=C(F)C=C(F)C=C1)C2=C(N)C=CC=N2", "physical_data": {"Molecular Weight": "222.19", "Molecular Formula": "C11H8F2N2O", "Melting Point": "87-89 \u00b0C"}}