{"cas_no": "175136-62-6", "cn_name": "\u4e09[3\uff0c5-\u4e8c(\u4e09\u6c1f\u7532\u57fa\uff09\u82ef\u57fa]\u78f7\u5316\u6c22", "en_name": ["Tris[3,5-bis(trifluoromethyl)phenyl]phosphine", "Phosphine, tris[3,5-bis(trifluoromethyl)phenyl]-", "Tris[3,5-bis(trifluoromethyl)phenyl]phosphine"], "SMILES": "P(C1=CC(C(F)(F)F)=CC(C(F)(F)F)=C1)(C2=CC(C(F)(F)F)=CC(C(F)(F)F)=C2)C3=CC(C(F)(F)F)=CC(C(F)(F)F)=C3", "physical_data": {"Molecular Weight": "670.27", "Molecular Formula": "C24H9F18P", "Melting Point": "100 \u00b0C"}}