{"cas_no": "175135-62-3", "cn_name": "2-(2,4-\u4e8c\u6c1f\u82ef\u6c27\u57fa)-3-\u785d\u57fa\u5421\u5576", "en_name": ["2-(2,4-Difluorophenoxy)-3-nitropyridine", "Pyridine, 2-(2,4-difluorophenoxy)-3-nitro-", "2-(2,4-Difluorophenoxy)-3-nitropyridine"], "SMILES": "O(C1=C(N(=O)=O)C=CC=N1)C2=C(F)C=C(F)C=C2", "physical_data": {"Molecular Weight": "252.17", "Molecular Formula": "C11H6F2N2O3", "Melting Point": "53-54 \u00b0C"}}