{"cas_no": "175205-81-9", "cn_name": "2-\u6eb4-4-(\u4e09\u6c1f\u7532\u57fa)\u5421\u5576", "en_name": ["2-Bromo-4-(trifluoromethyl)pyridine", "Pyridine, 2-bromo-4-(trifluoromethyl)-", "2-Bromo-4-(trifluoromethyl)pyridine", "2-Bromo-4-trifluoromethylpyridine", "4-Trifluoromethyl-2-bromopyridine"], "SMILES": "C(F)(F)(F)C=1C=C(Br)N=CC1", "physical_data": {"Molecular Weight": "225.99", "Molecular Formula": "C6H3BrF3N", "Boiling Point": "161-162 \u00b0C", "Melting Point": "-21--20 \u00b0C"}}