{"cas_no": "175278-08-7", "cn_name": "2\uff0c3\uff0c4-\u4e09\u6c1f\u82ef-1-\u78fa\u9170\u6c2f", "en_name": ["2,3,4-Trifluorobenzenesulfonyl chloride", "Benzenesulfonyl chloride, 2,3,4-trifluoro-", "2,3,4-Trifluorobenzenesulfonyl chloride", "2,3,4-Trifluorobenzene-1-sulfonyl chloride"], "SMILES": "S(Cl)(=O)(=O)C1=C(F)C(F)=C(F)C=C1", "physical_data": {"Molecular Weight": "230.59", "Molecular Formula": "C6H2ClF3O2S", "Melting Point": "122-124 \u00b0C"}}