{"cas_no": "175204-88-3", "cn_name": "\u4e59\u57fa-\u4e09\u6c1f\u7532\u57fa\u82ef\u57fa1,3-\u567b\u5511-4-\u7532\u9178", "en_name": ["4-Thiazolecarboxylic acid, 2-[4-(trifluoromethyl)phenyl]-, ethyl ester", "4-Thiazolecarboxylic acid, 2-[4-(trifluoromethyl)phenyl]-, ethyl ester", "2-(4-Trifluoromethylphenyl)thiazole-4-carboxylic acid ethyl ester", "Ethyl 2-(4-trifluoromethylphenyl)thiazole-4-carboxylate"], "SMILES": "C(OCC)(=O)C=1N=C(SC1)C2=CC=C(C(F)(F)F)C=C2", "physical_data": {"Molecular Weight": "301.28", "Molecular Formula": "C13H10F3NO2S", "Melting Point": "97-99 \u00b0C"}}