{"cas_no": "175205-12-6", "cn_name": "5-(2,3-\u4e8c\u6c2f\u82ef\u57fa)-1H-\u56db\u5511", "en_name": ["5-(2,3-Dichlorophenyl)-2H-tetrazole", "2H-Tetrazole, 5-(2,3-dichlorophenyl)-", "1H-Tetrazole, 5-(2,3-dichlorophenyl)-", "5-(2,3-Dichlorophenyl)-2H-tetrazole", "5-[2,3-Dichlorophenyl]tetrazole", "5-(2,3-Dichlorophenyl)-1H-tetrazole"], "SMILES": "ClC1=C(C=CC=C1Cl)C=2NN=NN2", "physical_data": {"Molecular Weight": "215.04", "Molecular Formula": "C7H4Cl2N4", "Melting Point": "180-182 \u00b0C"}}