{"cas_no": "17524-05-9", "cn_name": "\u4e59\u9170\u4e19\u916e\u94bc", "en_name": ["Bis(acetylacetonato)dioxomolybdenum", "Molybdenum, dioxobis(2,4-pentanedionato-\u03baO2,\u03baO4)-, (OC-6-21)-", "Molybdenum, dioxobis(2,4-pentanedionato)-", "Molybdenum, dioxobis(2,4-pentanedionato-O,O\u2032)-, (OC-6-21)-", "Molybdenum, dioxobis(2,4-pentanedionato-\u03baO,\u03baO\u2032)-, (OC-6-21)-", "(OC-6-21)-Dioxobis(2,4-pentanedionato-\u03baO2,\u03baO4)molybdenum", "Bis(acetylacetonato)molybdenum dioxide", "Molybdenum dioxide bis(acetylacetonate)", "Dioxobis(2,4-pentanedionato)molybdenum", "Dioxomolybdenum(VI) acetylacetonate", "Bis(acetylacetonato)dioxomolybdenum", "Molybdenyl acetylacetonate", "Molybdenum dioxydiacetylacetonate", "Bis(acetoacetonato)dioxomolybdenum", "Dioxobis(2,4-pentanedionato-O,O\u2032)molybdenum", "Dioxobis(2,4-pentanedionato)molybdenum(VI)", "cis-Dioxobis(2,4-pentanedionato)molybdenum", "cis-Bis(acetylacetonato)dioxomolybdenum", "Dioxomolybdenum bis(acetylacetonate)", "Bis(acetylacetonate)dioxomolybdenum", "NSC 52176", "Dioxomolybdenum(VI) bis(acetylacetonate)", "Bis(acetylacetonato)dioxomolybdenum(VI)", "Bis(2,4-pentanedionato)dioxomolybdenum", "Molybdenum diacetylacetonate dioxide"], "SMILES": "O=[Mo+2]12(=O)(O=C(C)[CH-]C(C)=O1)O=C(C)[CH-]C(C)=O2", "physical_data": {"Molecular Weight": "", "Molecular Formula": "C10H14MoO6", "Melting Point": "181 \u00b0C (decomp)", "Density": "1.640 g/cm\u00b3"}}