{"cas_no": "1752-24-5", "cn_name": "4-(4-\u7f9f\u57fa\u82ef\u80fa)\u82ef\u915a", "en_name": ["4,4\u2032-Dihydroxydiphenylamine", "Phenol, 4,4\u2032-iminobis-", "Phenol, 4,4\u2032-iminodi-", "4,4\u2032-Iminobis[phenol]", "Bis(4-hydroxyphenyl)amine", "4,4\u2032-Dihydroxydiphenylamine", "4,4\u2032-Iminodiphenol", "Indophenol, reduced", "Leucoindophenol", "Bis(p-hydroxyphenyl)amine", "4,4\u2032-Iminobisphenol", "4-(4-Hydroxyanilino)phenol", "N-(4\u2032-Hydroxyphenyl)-p-aminophenol"], "SMILES": "N(C1=CC=C(O)C=C1)C2=CC=C(O)C=C2", "physical_data": {"Molecular Weight": "201.22", "Molecular Formula": "C12H11NO2", "Melting Point": "169 \u00b0C"}}