{"cas_no": "175277-76-6", "cn_name": "2,4-\u4e8c\u6c1f\u82ef\u57fa\u786b\u8132", "en_name": ["N-(2,4-Difluorophenyl)thiourea", "Thiourea, N-(2,4-difluorophenyl)-", "Thiourea, (2,4-difluorophenyl)-", "N-(2,4-Difluorophenyl)thiourea", "NSC 370368", "1-(2,4-Difluorophenyl)-2-thiourea", "(2,4-Difluorophenyl)thiourea"], "SMILES": "N(C(N)=S)C1=C(F)C=C(F)C=C1", "physical_data": {"Molecular Weight": "188.20", "Molecular Formula": "C7H6F2N2S", "Melting Point": "168-170 \u00b0C"}}