{"cas_no": "175276-94-5", "cn_name": "2-(3-\u567b\u5429\u57fa)\u4e59\u9187\u80bc", "en_name": ["3-Thiopheneacetic acid hydrazide", "3-Thiopheneacetic acid, hydrazide", "3-Thiopheneacetic acid hydrazide", "[3]Thienyl-acetic acid hydrazide", "2-Thiophen-3-ylacetohydrazide", "2-(Thiophen-3-yl)acetohydrazide"], "SMILES": "C(C(NN)=O)C=1C=CSC1", "physical_data": {"Molecular Weight": "156.21", "Molecular Formula": "C6H8N2OS", "Melting Point": "83-84 \u00b0C"}}