{"cas_no": "175203-89-1", "cn_name": "3-(2-\u567b\u5429\u57fa)-5-(\u4e09\u6c1f\u7532\u57fa)\u5f02\u5511", "en_name": ["3-(2-Thienyl)-5-(trifluoromethyl)isoxazole", "Isoxazole, 3-(2-thienyl)-5-(trifluoromethyl)-", "3-(2-Thienyl)-5-(trifluoromethyl)isoxazole", "3-Thiophen-2-yl-5-(trifluoromethyl)-1,2-oxazole"], "SMILES": "C(F)(F)(F)C1=CC(=NO1)C2=CC=CS2", "physical_data": {"Molecular Weight": "219.18", "Molecular Formula": "C8H4F3NOS", "Melting Point": "112-115 \u00b0C"}}