{"cas_no": "175203-82-4", "cn_name": "5-(\u4e09\u6c1f\u7532\u6c27\u57fa)-1H-\u5432\u54da-2-\u7fa7\u9178\u4e59\u916f", "en_name": ["Ethyl 5-(trifluoromethoxy)-1H-indole-2-carboxylate", "1H-Indole-2-carboxylic acid, 5-(trifluoromethoxy)-, ethyl ester", "Ethyl 5-(trifluoromethoxy)-1H-indole-2-carboxylate", "5-(Trifluoromethoxy)indole-2-carboxylic acid ethyl ester", "Ethyl 5-trifluoromethyloxy-1H-indole-2-carboxylate", "Ethyl 5-trifluoromethoxy-1H-indole-2-carboxylate"], "SMILES": "C(OCC)(=O)C=1NC=2C(C1)=CC(OC(F)(F)F)=CC2", "physical_data": {"Molecular Weight": "273.21", "Molecular Formula": "C12H10F3NO3", "Melting Point": "138-140 \u00b0C"}}