{"cas_no": "1752-30-3", "cn_name": "\u4e19\u916e\u7f29\u6c28\u57fa\u786b\u8132", "en_name": ["2-(1-Methylethylidene)hydrazinecarbothioamide", "Hydrazinecarbothioamide, 2-(1-methylethylidene)-", "Acetone, thiosemicarbazone", "2-(1-Methylethylidene)hydrazinecarbothioamide", "Thiosemicarbazone acetone", "Dimethyl ketone thiosemicarbazone", "NSC 711", "ATS", "ATSC", "(Propan-2-ylideneamino)thiourea", "[(Propan-2-ylidene)amino]thiourea"], "SMILES": "N(NC(N)=S)=C(C)C", "physical_data": {"Molecular Weight": "131.20", "Molecular Formula": "C4H9N3S", "Melting Point": "179 \u00b0C"}}