{"cas_no": "17526-15-7", "cn_name": "1,4,8-\u4e09\u7f9f\u57fa-6-\u7532\u57fa-3-\u7532\u6c27\u57fa-9,10-\u84bd\u918c", "en_name": ["1,4,5-Trihydroxy-2-methoxy-7-methyl-9,10-anthracenedione", "9,10-Anthracenedione, 1,4,5-trihydroxy-2-methoxy-7-methyl-", "Anthraquinone, 1,4,5-trihydroxy-2-methoxy-7-methyl-", "1,4,5-Trihydroxy-2-methoxy-7-methyl-9,10-anthracenedione", "Xanthorin", "1,4,8-Trihydroxy-6-methyl-3-methoxy-9,10-anthraquinone"], "SMILES": "O=C1C=2C(C(=O)C=3C1=C(O)C=C(C)C3)=C(O)C(OC)=CC2O", "physical_data": {"Molecular Weight": "300.26", "Molecular Formula": "C16H12O6", "Melting Point": "244-246 \u00b0C"}}