{"cas_no": "1752-96-1", "cn_name": "\u70df\u9170\u82ef\u80fa", "en_name": ["Nicotinanilide", "3-Pyridinecarboxamide, N-phenyl-", "Nicotinanilide", "N-Phenyl-3-pyridinecarboxamide", "N-Phenylnicotinamide", "3-Pyridylcarboxanilide", "3-Phenylaminocarbonylpyridine", "NSC 108206"], "SMILES": "C(NC1=CC=CC=C1)(=O)C=2C=CC=NC2", "physical_data": {"Molecular Weight": "198.22", "Molecular Formula": "C12H10N2O", "Melting Point": "124-126 \u00b0C"}}