{"cas_no": "1753-49-7", "cn_name": "5-\u6c30\u57fa-2-\u7f9f\u57fa\u5627\u5576", "en_name": ["1,2-Dihydro-2-oxo-5-pyrimidinecarbonitrile", "5-Pyrimidinecarbonitrile, 1,2-dihydro-2-oxo-", "5-Pyrimidinecarbonitrile, 2-hydroxy-", "1,2-Dihydro-2-oxo-5-pyrimidinecarbonitrile", "2-Hydroxypyrimidine-5-carbonitrile", "2-Oxo-1H-pyrimidine-5-carbonitrile", "2-Oxo-1,2-dihydropyrimidine-5-carbonitrile"], "SMILES": "C(#N)C1=CNC(=O)N=C1", "physical_data": {"Molecular Weight": "121.10", "Molecular Formula": "C5H3N3O", "Melting Point": "266-268 \u00b0C"}}