{"cas_no": "175357-18-3", "cn_name": "\u5341\u4e00\u78b3\u70ef\u9170\u57fa\u82ef\u4e19\u6c28\u9178", "en_name": ["Sepiwhite", "L-Phenylalanine, N-(1-oxo-10-undecen-1-yl)-", "L-Phenylalanine, N-(1-oxo-10-undecenyl)-", "N-(1-Oxo-10-undecen-1-yl)-L-phenylalanine", "Sepiwhite MSH", "Sepiwhite", "N-Undecenoyl-L-phenylalanine", "Undecylenoylphenylalanine", "N-Undecyl-10-enoyl-L-phenylalanine"], "SMILES": "C(C(NC(CCCCCCCCC=C)=O)C(O)=O)C1=CC=CC=C1", "physical_data": {"Molecular Weight": "331.45", "Molecular Formula": "C20H29NO3", "Melting Point": "109-112 \u00b0C"}}