{"cas_no": "1753-48-6", "cn_name": "2-\u6c28\u57fa\u5627\u5576-5-\u8148", "en_name": ["2-Amino-5-pyrimidinecarbonitrile", "5-Pyrimidinecarbonitrile, 2-amino-", "2-Amino-5-pyrimidinecarbonitrile", "5-Cyano-2-pyrimidinamine", "2-Amino-5-cyanopyrimidine"], "SMILES": "C(#N)C=1C=NC(N)=NC1", "physical_data": {"Molecular Weight": "120.11", "Molecular Formula": "C5H4N4", "Melting Point": "300-310 \u00b0C (decomp)"}}