{"cas_no": "17534-15-5", "cn_name": "1,2-\u82ef\u4e8c\u786b\u9187", "en_name": ["1,2-Benzenedithiol", "1,2-Benzenedithiol", "o-Benzenedithiol", "Dithiopyrocatechol", "o-Dimercaptobenzene", "1,2-Dimercaptobenzene", "Phenylene-1,2-dithiol", "NSC 623558"], "SMILES": "SC1=C(S)C=CC=C1", "physical_data": {"Molecular Weight": "142.24", "Molecular Formula": "C6H6S2", "Boiling Point": "238.5 \u00b0C", "Melting Point": "28.5 \u00b0C"}}