{"cas_no": "17537-64-3", "cn_name": "1,3-\u4e8c\u4e59\u9170\u57fa\u5432\u54da", "en_name": ["1,1\u2032-(1H-Indole-1,3-diyl)bis[ethanone]", "Ethanone, 1,1\u2032-(1H-indole-1,3-diyl)bis-", "Indole, 1,3-diacetyl-", "1H-Indole, 1,3-diacetyl-", "1,1\u2032-(1H-Indole-1,3-diyl)bis[ethanone]", "1,3-Diacetylindole", "NSC 24940", "NSC 47179", "1-(3-Acetyl-1H-indol-1-yl)ethan-1-one", "1-(1-Acetylindol-3-yl)ethanone", "1,3-Diacetyl-1H-indole", "1,1\u2032-(1H-Indole-1,3-diyl)diethanone"], "SMILES": "C(C)(=O)C=1C=2C(N(C(C)=O)C1)=CC=CC2", "physical_data": {"Molecular Weight": "201.22", "Molecular Formula": "C12H11NO2", "Melting Point": "149-151 \u00b0C"}}