{"cas_no": "175481-36-4", "cn_name": "\u62c9\u79d1\u9170\u80fa", "en_name": ["Lacosamide", "Propanamide, 2-(acetylamino)-3-methoxy-N-(phenylmethyl)-, (2R)-", "Propanamide, 2-(acetylamino)-3-methoxy-N-(phenylmethyl)-, (R)-", "(2R)-2-(Acetylamino)-3-methoxy-N-(phenylmethyl)propanamide", "Erlosamide", "SPM 927", "Lacosamide", "ADD 243037", "Harkoseride", "Vimpat", "(2R)-2-Acetamido-N-benzyl-3-methoxypropanamide", "(R)-2-Acetamido-N-benzyl-3-methoxypropionamide", "Lacoset 50", "Lacoset", "Lacosamide UCB"], "SMILES": "C(NC(C(NC(C)=O)COC)=O)C1=CC=CC=C1", "physical_data": {"Molecular Weight": "250.29", "Molecular Formula": "C13H18N2O3", "Melting Point": "142-143 \u00b0C"}}