{"cas_no": "1754-55-8", "cn_name": "2,4,6-\u4e09\u7532\u57fa\u82ef\u7532\u9178\u4e59\u916f", "en_name": ["Benzoic acid, 2,4,6-trimethyl-, ethyl ester", "Benzoic acid, 2,4,6-trimethyl-, ethyl ester", "Ethyl 2,4,6-trimethylbenzoate", "Ethyl mesitoate", "NSC 229348"], "SMILES": "C(OCC)(=O)C1=C(C)C=C(C)C=C1C", "physical_data": {"Molecular Weight": "192.25", "Molecular Formula": "C12H16O2", "Boiling Point": "140-150 \u00b0C @ Press: 35 Torr"}}