{"cas_no": "175481-38-6", "cn_name": "\u53bb\u7532\u62c9\u8003\u6c99\u80fa", "en_name": ["(R)-N-Benzyl-2-acetamido-3-hydroxypropionamide", "Propanamide, 2-(acetylamino)-3-hydroxy-N-(phenylmethyl)-, (2R)-", "Propanamide, 2-(acetylamino)-3-hydroxy-N-(phenylmethyl)-, (R)-", "(2R)-2-(Acetylamino)-3-hydroxy-N-(phenylmethyl)propanamide", "(R)-N-Benzyl-2-acetamido-3-hydroxypropionamide", "(2R)-N-Benzyl-2-acetamido-3-hydroxypropanamide", "(2R)-2-Acetamido-N-benzyl-3-hydroxypropanamide", "(R)-2-Acetylamino-N-benzyl-3-hydroxy-propionamide"], "SMILES": "C(NC(C(NC(C)=O)CO)=O)C1=CC=CC=C1", "physical_data": {"Molecular Weight": "236.27", "Molecular Formula": "C12H16N2O3", "Melting Point": "146-148 \u00b0C"}}