{"cas_no": "1754-49-0", "cn_name": "\u82ef\u57fa\u81a6\u9178\u4e8c\u4e59\u916f", "en_name": ["Diethyl phenylphosphonate", "Phosphonic acid, P-phenyl-, diethyl ester", "Phosphonic acid, phenyl-, diethyl ester", "Diethyl phenylphosphonate", "Diethyl benzenephosphonate", "Diethoxyphenylphosphine oxide", "NSC 5742"], "SMILES": "P(OCC)(OCC)(=O)C1=CC=CC=C1", "physical_data": {"Molecular Weight": "214.20", "Molecular Formula": "C10H15O3P", "Boiling Point": "117-118 \u00b0C @ Press: 1.5 Torr", "Density": "1.1155 g/cm\u00b3 @ Temp: 20 \u00b0C"}}