{"cas_no": "175463-32-8", "cn_name": "1-Boc-3-\u6c30\u57fa-4-\u5421\u54af\u70f7\u916e", "en_name": ["1-Pyrrolidinecarboxylic acid, 3-cyano-4-oxo-, 1,1-dimethylethyl ester", "1-Pyrrolidinecarboxylic acid, 3-cyano-4-oxo-, 1,1-dimethylethyl ester", "tert-Butyl 3-cyano-4-oxo-1-pyrrolidine carboxylate", "1-tert-Butoxycarbonyl-4-oxopyrrolidine-3-carbonitrile", "1,1-Dimethylethyl 3-cyano-4-oxo-1-pyrrolidinecarboxylate", "1-Boc-3-cyano-4-pyrrolidinone", "1-Boc-4-cyanopyrrolidin-3-one", "1-Boc-3-cyano-4-oxopyrrolidine"], "SMILES": "C(OC(C)(C)C)(=O)N1CC(C#N)C(=O)C1", "physical_data": {"Molecular Weight": "210.23", "Molecular Formula": "C10H14N2O3", "Melting Point": "160-161 \u00b0C"}}