{"cas_no": "1754-47-8", "cn_name": "\u4e8c\u8f9b\u8343\u82ef\u8343\u78f7\u9178\u916f", "en_name": ["Dioctyl phenylphosphonate", "Phosphonic acid, P-phenyl-, dioctyl ester", "Phosphonic acid, phenyl-, dioctyl ester", "Dioctyl phenylphosphonate", "Di-n-octyl phenylphosphonate", "DOPP", "NSC 3224"], "SMILES": "P(OCCCCCCCC)(OCCCCCCCC)(=O)C1=CC=CC=C1", "physical_data": {"Molecular Weight": "382.52", "Molecular Formula": "C22H39O3P", "Boiling Point": "207 \u00b0C"}}