{"cas_no": "17540-75-9", "cn_name": "6-\u6eb4\u5432\u54da-3-\u7532\u919b", "en_name": ["2,6-Di-tert-butyl-4-sec-butylphenol", "Phenol, 2,6-bis(1,1-dimethylethyl)-4-(1-methylpropyl)-", "Phenol, 4-sec-butyl-2,6-di-tert-butyl-", "2,6-Bis(1,1-dimethylethyl)-4-(1-methylpropyl)phenol", "4-sec-Butyl-2,6-di-tert-butylphenol", "Isonox 132", "Vanox 1320", "2,6-Di-tert-butyl-4-sec-butylphenol", "NSC 14460", "2,6-Bis(1,1-dimethylethyl)-4-(1-methylpropyl)-phenol"], "SMILES": "C(C)(C)(C)C1=C(O)C(C(C)(C)C)=CC(C(CC)C)=C1", "physical_data": {"Molecular Weight": "262.43", "Molecular Formula": "C18H30O", "Boiling Point": "141.0-141.5 \u00b0C @ Press: 10 Torr"}}