{"cas_no": "17557-67-4", "cn_name": "2-\u6c28\u57fa-6-\u7532\u781c\u57fa\u82ef\u5e76\u567b\u5511", "en_name": ["6-(Methylsulfonyl)-2-benzothiazolamine", "2-Benzothiazolamine, 6-(methylsulfonyl)-", "Benzothiazole, 2-amino-6-(methylsulfonyl)-", "6-(Methylsulfonyl)-2-benzothiazolamine", "2-Amino-6-(methylsulfonyl)benzothiazole", "2-Amino-6-methanesulfonylbenzothiazole", "[6-(Methanesulfonyl)benzothiazol-2-yl]amine", "SKA 16", "6-Methylsulfonylbenzothiazol-2-amine", "6-Methylsulfonyl-2-aminobenzothiazole", "6-(Methanesulfonyl)benzothiazol-2-amine"], "SMILES": "S(C)(=O)(=O)C=1C=C2C(=CC1)N=C(N)S2", "physical_data": {"Molecular Weight": "228.29", "Molecular Formula": "C8H8N2O2S2", "Melting Point": "226-228 \u00b0C"}}