{"cas_no": "1755-51-7", "cn_name": "\u4e94\u7532\u6c27\u7ea2", "en_name": ["Pentamethoxy Red", "Benzenemethanol, \u03b1-(2,4-dimethoxyphenyl)-2,4-dimethoxy-\u03b1-(2-methoxyphenyl)-", "Methanol, bis(2,4-dimethoxyphenyl)(o-methoxyphenyl)-", "\u03b1-(2,4-Dimethoxyphenyl)-2,4-dimethoxy-\u03b1-(2-methoxyphenyl)benzenemethanol", "2,2\u2032,2\u2032\u2032,4,4\u2032-Pentamethoxytriphenylcarbinol", "Pentamethoxy Red"], "SMILES": "C(O)(C1=C(OC)C=C(OC)C=C1)(C2=C(OC)C=C(OC)C=C2)C3=C(OC)C=CC=C3", "physical_data": {"Molecular Weight": "410.46", "Molecular Formula": "C24H26O6", "Melting Point": "146-147 \u00b0C"}}