{"cas_no": "175591-09-0", "cn_name": "\u76d0\u9178\u4ed6\u55b7\u4ed6\u591a", "en_name": ["Tapentadol hydrochloride", "Phenol, 3-[(1R,2R)-3-(dimethylamino)-1-ethyl-2-methylpropyl]-, hydrochloride (1:1)", "Phenol, 3-[3-(dimethylamino)-1-ethyl-2-methylpropyl]-, hydrochloride, [R-(R*,R*)]-", "Phenol, 3-[(1R,2R)-3-(dimethylamino)-1-ethyl-2-methylpropyl]-, hydrochloride", "Tapentadol hydrochloride", "Nucynta", "Tapal", "Zyntap", "Tydol", "Tapenta"], "SMILES": "C(C(CN(C)C)C)(CC)C1=CC(O)=CC=C1.Cl", "physical_data": {"Molecular Weight": "", "Molecular Formula": "C14H23NO.ClH", "Melting Point": "209-210 \u00b0C"}}