{"cas_no": "17564-64-6", "cn_name": "N-\u6c2f\u7532\u57fa\u90bb\u82ef\u4e8c\u7532\u9170\u4e9a\u80fa", "en_name": ["2-(Chloromethyl)-1H-isoindole-1,3(2H)-dione", "1H-Isoindole-1,3(2H)-dione, 2-(chloromethyl)-", "Phthalimide, N-(chloromethyl)-", "2-(Chloromethyl)-1H-isoindole-1,3(2H)-dione", "N-(Chloromethyl)phthalimide", "Chloromethylphthalimide", "NSC 29558", "Phthalimidomethyl chloride", "2-(Chloromethyl)isoindoline-1,3-dione", "2-(Chloromethyl)isoindole-1,3-dione", "2-(Chloromethyl)-2,3-dihydro-1H-isoindole-1,3-dione"], "SMILES": "O=C1C=2C(C(=O)N1CCl)=CC=CC2", "physical_data": {"Molecular Weight": "195.60", "Molecular Formula": "C9H6ClNO2", "Melting Point": "153 \u00b0C"}}