{"cas_no": "17560-51-9", "cn_name": "\u7f8e\u6258\u62c9\u5b97", "en_name": ["Metolazone", "6-Quinazolinesulfonamide, 7-chloro-1,2,3,4-tetrahydro-2-methyl-3-(2-methylphenyl)-4-oxo-", "6-Quinazolinesulfonamide, 7-chloro-1,2,3,4-tetrahydro-2-methyl-4-oxo-3-o-tolyl-", "7-Chloro-1,2,3,4-tetrahydro-2-methyl-3-(2-methylphenyl)-4-oxo-6-quinazolinesulfonamide", "2-Methyl-3-(o-tolyl)-6-sulfamyl-7-chloro-1,2,3,4-tetrahydro-4-quinazolinone", "SR 720-22", "Metolazone", "Zaroxolyn", "Normelan", "Metozalone", "Mykrox", "Diulo", "Oldren", "Xuret", "Metenix", "Metazoline", "7-Chloro-2-methyl-3-(2-methylphenyl)-4-oxo-1,2-dihydroquinazoline-6-sulfonamide", "MeSH ID: D008788"], "SMILES": "O=C1C=2C(=CC(Cl)=C(S(N)(=O)=O)C2)NC(C)N1C3=C(C)C=CC=C3", "physical_data": {"Molecular Weight": "365.83", "Molecular Formula": "C16H16ClN3O3S", "Melting Point": "253-259 \u00b0C"}}