{"cas_no": "17573-94-3", "cn_name": "4-\u4e8c\u7532\u57fa\u6c28\u57fa\u82ef\u4e59\u7094", "en_name": ["4-Ethynyl-N,N-dimethylaniline", "Benzenamine, 4-ethynyl-N,N-dimethyl-", "Aniline, p-ethynyl-N,N-dimethyl-", "4-Ethynyl-N,N-dimethylbenzenamine", "[p-(Dimethylamino)phenyl]acetylene", "p-Ethynyl-N,N-dimethylaniline", "4-(Dimethylamino)phenylethyne", "4-Dimethylaminophenylacetylene", "1-Ethynyl-4-(dimethylamino)benzene", "4-Ethynyl-N,N-dimethylaniline", "4-Ethynylphenyl-N,N-dimethylamine", "N-(4-Ethynylphenyl)-N,N-dimethylamine", "1-(Dimethylamino)-4-ethynylbenzene", "(4-Ethynylphenyl)dimethylamine", "N,N-Methyl-4-ethynylaniline", "4-Ethynyl-N,N-dimethylaminobenzene", "[4-(N,N-Dimethylamino)phenyl]acetylene", "N,N-Dimethyl-4-ethynylaniline", "p-(N,N-Dimethylamino)phenylacetylene"], "SMILES": "N(C)(C)C1=CC=C(C#C)C=C1", "physical_data": {"Molecular Weight": "145.20", "Molecular Formula": "C10H11N", "Melting Point": "52-53 \u00b0C"}}