{"cas_no": "1757-72-8", "cn_name": "1-\u7532\u57fa-2-\u82ef\u57fa\u5432\u54da-3-\u7532\u919b", "en_name": ["1-Methyl-2-phenyl-1H-indole-3-carboxaldehyde", "1H-Indole-3-carboxaldehyde, 1-methyl-2-phenyl-", "Indole-3-carboxaldehyde, 1-methyl-2-phenyl-", "1-Methyl-2-phenyl-1H-indole-3-carboxaldehyde", "1-Methyl-2-phenylindole-3-carboxaldehyde", "3-Formyl-1-methyl-2-phenylindole", "1-Methyl-2-phenyl-3-formylindole", "1-Methyl-2-phenylindole-3-carbaldehyde", "1-Methyl-2-phenyl-1H-indole-3-carbaldehyde"], "SMILES": "C(=O)C1=C(N(C)C=2C1=CC=CC2)C3=CC=CC=C3", "physical_data": {"Molecular Weight": "235.28", "Molecular Formula": "C16H13NO", "Melting Point": "128 \u00b0C"}}