{"cas_no": "17575-21-2", "cn_name": "\u6bdb\u82b1\u6d0b\u5730\u9ec4\u82f7B", "en_name": ["Lanatoside B", "Card-20(22)-enolide, 3-[(O-\u03b2-D-glucopyranosyl-(1\u21924)-O-3-O-acetyl-2,6-dideoxy-\u03b2-D-ribo-hexopyranosyl-(1\u21924)-O-2,6-dideoxy-\u03b2-D-ribo-hexopyranosyl-(1\u21924)-2,6-dideoxy-\u03b2-D-ribo-hexopyranosyl)oxy]-14,16-dihydroxy-, (3\u03b2,5\u03b2,16\u03b2)-", "Lanatoside B", "5\u03b2-Card-20(22)-enolide, 3\u03b2-[[O-[O-(O-glucosyldigitoxosyl)digitoxosyl]digitoxosyl]oxy]-14,16\u03b2-dihydroxy-, acetate", "(3\u03b2,5\u03b2,16\u03b2)-3-[(O-\u03b2-D-Glucopyranosyl-(1\u21924)-O-3-O-acetyl-2,6-dideoxy-\u03b2-D-ribo-hexopyranosyl-(1\u21924)-O-2,6-dideoxy-\u03b2-D-ribo-hexopyranosyl-(1\u21924)-2,6-dideoxy-\u03b2-D-ribo-hexopyranosyl)oxy]-14,16-dihydroxycard-20(22)-enolide", "Digilanide B", "NSC 7535"], "SMILES": "OC12C(C)(C(C(O)C1)C=3COC(=O)C3)CCC4C2CCC5C4(C)CCC(OC6CC(O)C(OC7CC(O)C(OC8CC(OC(C)=O)C(OC9OC(CO)C(O)C(O)C9O)C(C)O8)C(C)O7)C(C)O6)C5", "physical_data": {"Molecular Weight": "985.12", "Molecular Formula": "C49H76O20", "Melting Point": "241-244 \u00b0C"}}