{"cas_no": "1757-42-2", "cn_name": "DL-3-\u7532\u57fa\u73af\u620a\u916e", "en_name": ["3-Methylcyclopentanone", "Cyclopentanone, 3-methyl-", "3-Methylcyclopentanone", "3-Methyl-1-cyclopentanone", "1-Methyl-3-cyclopentanone", "(\u00b1)-3-Methylcyclopentanone", "NSC 25212"], "SMILES": "CC1CC(=O)CC1", "physical_data": {"Molecular Weight": "98.14", "Molecular Formula": "C6H10O", "Boiling Point": "143 \u00b0C", "Melting Point": "57.5-59.5 \u00b0C", "Density": "0.8593 g/cm\u00b3 @ Temp: 81.8 \u00b0C"}}