{"cas_no": "17573-92-1", "cn_name": "3-\u7532\u6c27\u57fa\u567b\u5429", "en_name": ["3-Methoxythiophene", "Thiophene, 3-methoxy-", "3-Methoxythiophene", "Methyl 3-thienyl ether", "3-Methoxythiofuran"], "SMILES": "O(C)C=1C=CSC1", "physical_data": {"Molecular Weight": "114.17", "Molecular Formula": "C5H6OS", "Boiling Point": "80-82 \u00b0C @ Press: 65 Torr", "Melting Point": "49-50 \u00b0C"}}