{"cas_no": "17576-35-1", "cn_name": "1,3,3-TRIMETHOXYPROPENE", "en_name": ["1,3,3-Trimethoxy-1-propene", "1-Propene, 1,3,3-trimethoxy-", "Acrolein, 3-methoxy-, dimethyl acetal", "Propene, 1,3,3-trimethoxy-", "1,3,3-Trimethoxy-1-propene", "1,3,3-Trimethoxypropene"], "SMILES": "C(C=COC)(OC)OC", "physical_data": {"Molecular Weight": "132.16", "Molecular Formula": "C6H12O3", "Boiling Point": "30 \u00b0C @ Press: 0.5 Torr", "Density": "0.9667 g/cm\u00b3 @ Temp: 20 \u00b0C"}}