{"cas_no": "17577-28-5", "cn_name": "(\u4e59\u6c27\u57fa\u7fb0\u57fa\u7532\u57fa)\u4e09\u82ef\u57fa\u6c2f\u5316\u81a6", "en_name": ["[(Ethoxycarbonyl)methyl]triphenylphosphonium chloride", "Phosphonium, (2-ethoxy-2-oxoethyl)triphenyl-, chloride (1:1)", "Phosphonium, (carboxymethyl)triphenyl-, chloride, ethyl ester", "Phosphonium, (2-ethoxy-2-oxoethyl)triphenyl-, chloride", "(Carboxymethyl)triphenylphosphonium chloride, ethyl ester", "[(Ethoxycarbonyl)methyl]triphenylphosphonium chloride", "Triphenylcarbethoxymethylphosphonium chloride", "(2-Ethoxy-2-oxoethyl)triphenylphosphonium chloride"], "SMILES": "[P+](CC(OCC)=O)(C1=CC=CC=C1)(C2=CC=CC=C2)C3=CC=CC=C3.[Cl-]", "physical_data": {"Molecular Weight": "", "Molecular Formula": "C22H22O2P.Cl", "Melting Point": "90 \u00b0C"}}