{"cas_no": "17579-99-6", "cn_name": "\u7532\u57fa\u4e09\u82ef\u6c27\u57fa\u7898\u78f7", "en_name": ["Phosphorus(1+), methyltriphenoxy-, iodide (1:1), (T-4)-", "Phosphorus(1+), methyltriphenoxy-, iodide (1:1), (T-4)-", "Phosphorus(1+), methyltriphenoxy-, iodide", "Phosphorus(1+), methyltriphenoxy-, iodide, (T-4)-", "Triphenylphosphine methiodide", "Methyltriphenoxyphosphonium iodide"], "SMILES": "[P+](OC1=CC=CC=C1)(OC2=CC=CC=C2)(OC3=CC=CC=C3)C.[I-]", "physical_data": {"Molecular Weight": "", "Molecular Formula": "C19H18O3P.I", "Melting Point": "130 \u00b0C"}}