{"cas_no": "1758-25-4", "cn_name": "2,5-\u4e8c\u7532\u6c27\u57fa\u82ef\u57fa\u4e59\u9178", "en_name": ["2,5-Dimethoxyphenylacetic acid", "Benzeneacetic acid, 2,5-dimethoxy-", "Acetic acid, (2,5-dimethoxyphenyl)-", "2,5-Dimethoxybenzeneacetic acid", "2,5-Dimethoxyphenylacetic acid", "NSC 74696", "2-(2,5-Dimethoxyphenyl)acetic acid"], "SMILES": "C(C(O)=O)C1=C(OC)C=CC(OC)=C1", "physical_data": {"Molecular Weight": "196.20", "Molecular Formula": "C10H12O4", "Melting Point": "125 \u00b0C"}}