{"cas_no": "1758-46-9", "cn_name": "2-\u82ef\u6c27\u57fa\u4e59\u80fa", "en_name": ["Phenoxyethylamine", "Ethanamine, 2-phenoxy-", "Ethylamine, 2-phenoxy-", "2-Phenoxyethanamine", "Phenetole, \u03b2-amino-", "2-Phenoxyethylamine", "Phenoxyethylamine", "(2-Aminoethoxy)benzene", "2-Phenoxyethan-1-amine", "2-Phenoxylethylamine"], "SMILES": "O(CCN)C1=CC=CC=C1", "physical_data": {"Molecular Weight": "137.18", "Molecular Formula": "C8H11NO", "Boiling Point": "104 \u00b0C @ Press: 12 Torr"}}