{"cas_no": "17587-29-0", "cn_name": "3-HYDROXYHEPTANOIC ACID", "en_name": ["3-Hydroxyheptanoic acid", "Heptanoic acid, 3-hydroxy-", "3-Hydroxyheptanoic acid", "\u03b2-Hydroxyheptanoic acid", "(\u00b1)-3-Hydroxyheptanoic acid"], "SMILES": "C(C(CCCC)O)C(O)=O", "physical_data": {"Molecular Weight": "146.18", "Molecular Formula": "C7H14O3", "Melting Point": "40-41 \u00b0C"}}