{"cas_no": "17585-69-2", "cn_name": "L-\u82ef\u4e19\u6c28\u9178\u76d0\u9178\u76d0", "en_name": ["L-Phenylalanine, hydrochloride (1:1)", "L-Phenylalanine, hydrochloride (1:1)", "Alanine, phenyl-, hydrochloride, L-", "L-Phenylalanine, hydrochloride", "\u03b2-Phenyl-L-alanine hydrochloride", "Phenylalanine hydrochloride", "L-Phenylalanine monohydrochloride", "(S)-2-Amino-3-phenylpropanoic acid hydrochloride"], "SMILES": "C(C(C(O)=O)N)C1=CC=CC=C1.Cl", "physical_data": {"Molecular Weight": "", "Molecular Formula": "C9H11NO2.ClH", "Melting Point": "244-245 \u00b0C", "Density": "1.268 g/cm\u00b3"}}