{"cas_no": "1758-88-9", "cn_name": "2-\u4e59\u57fa\u5bf9\u4e8c\u7532\u82ef", "en_name": ["1,4-Dimethyl-2-ethylbenzene", "Benzene, 2-ethyl-1,4-dimethyl-", "p-Xylene, 2-ethyl-", "2-Ethyl-1,4-dimethylbenzene", "1,4-Dimethyl-2-ethylbenzene", "2-Ethyl-p-xylene", "2,5-Dimethylethylbenzene", "1-Ethyl-2,5-dimethylbenzene", "NSC 74186", "1-Ethyl-3,6-dimethylbenzene"], "SMILES": "C(C)C1=C(C)C=CC(C)=C1", "physical_data": {"Molecular Weight": "134.22", "Molecular Formula": "C10H14", "Boiling Point": "186.9 \u00b0C", "Melting Point": "-53.7 \u00b0C", "Density": "0.8750 g/cm\u00b3 @ Temp: 22 \u00b0C"}}