{"cas_no": "1758-68-5", "cn_name": "1,2-\u4e8c\u6c28\u57fa\u84bd\u918c", "en_name": ["1,2-Diaminoanthraquinone", "9,10-Anthracenedione, 1,2-diamino-", "Anthraquinone, 1,2-diamino-", "1,2-Diamino-9,10-anthracenedione", "1,2-Diaminoanthraquinone", "1,2-Diamino-9,10-anthraquinone", "NSC 39934", "1,2-Diamino-9,10-dihydroanthracene-9,10-dione"], "SMILES": "O=C1C=2C(C(=O)C=3C1=CC=CC3)=CC=C(N)C2N", "physical_data": {"Molecular Weight": "238.24", "Molecular Formula": "C14H10N2O2", "Melting Point": "298 \u00b0C"}}