{"cas_no": "1758-33-4", "cn_name": "\u73af\u6c27\u4e01\u70f7", "en_name": ["cis-2,3-Epoxybutane", "Oxirane, 2,3-dimethyl-, (2R,3S)-rel-", "Butane, 2,3-epoxy-, cis-", "Oxirane, 2,3-dimethyl-, cis-", "rel-(2R,3S)-2,3-Dimethyloxirane", "cis-2,3-Dimethyloxirane", "cis-2-Butene epoxide", "cis-2-Butylene oxide", "cis-2,3-Epoxybutane", "cis-2-Butene oxide", "cis-2,3-Butylene oxide", "cis-2,3-Butene oxide"], "SMILES": "CC1C(C)O1", "physical_data": {"Molecular Weight": "72.11", "Molecular Formula": "C4H8O", "Boiling Point": "60 \u00b0C", "Melting Point": "-80 \u00b0C", "Density": "0.8010 g/cm\u00b3 @ Temp: 25 \u00b0C"}}