{"cas_no": "175865-59-5", "cn_name": "\u7f2c\u66f4\u6614\u6d1b\u97e6\u76d0\u9178\u76d0", "en_name": ["Valganciclovir hydrochloride", "L-Valine, 2-[(2-amino-1,6-dihydro-6-oxo-9H-purin-9-yl)methoxy]-3-hydroxypropyl ester, hydrochloride (1:1)", "L-Valine, 2-[(2-amino-1,6-dihydro-6-oxo-9H-purin-9-yl)methoxy]-3-hydroxypropyl ester, monohydrochloride", "RS 079070-194", "Valganciclovir hydrochloride", "Ro 107-9070/194", "Valcyte"], "SMILES": "C(OC(COC(C(C(C)C)N)=O)CO)N1C2=C(N=C1)C(=O)N=C(N)N2.Cl", "physical_data": {"Molecular Weight": "", "Molecular Formula": "C14H22N6O5.ClH", "Melting Point": "143 \u00b0C"}}