{"cas_no": "17584-12-2", "cn_name": "3-\u6c28\u57fa-5,6-\u4e8c\u7532\u57fa-\u504f\u4e09\u55ea", "en_name": ["3-Amino-5,6-dimethyl-1,2,4-triazine", "1,2,4-Triazin-3-amine, 5,6-dimethyl-", "as-Triazine, 3-amino-5,6-dimethyl-", "5,6-Dimethyl-1,2,4-triazin-3-amine", "3-Amino-5,6-dimethyl-1,2,4-triazine", "3-Amino-5,6-dimethyl-as-triazine", "NSC 55646", "NSC 9443"], "SMILES": "CC=1C(C)=NN=C(N)N1", "physical_data": {"Molecular Weight": "124.14", "Molecular Formula": "C5H8N4", "Melting Point": "210-211 \u00b0C"}}