{"cas_no": "1758-73-2", "cn_name": "\u4e8c\u6c27\u5316\u786b\u8132", "en_name": ["Thiourea dioxide", "Methanesulfinic acid, 1-amino-1-imino-", "Methanesulfinic acid, aminoimino-", "1-Amino-1-iminomethanesulfinic acid", "NSC 34540", "Formamidinesulfinic acid", "Manofast", "Aminoiminomethanesulfinic acid", "Thiourea dioxide", "Lorinol R", "Degussa F", "Tec Light", "Formamidine sulfinate", "NT-F 100", "NSC 226979", "Rucorit RGH", "Thiourea peroxide", "FAS", "Reduktana", "Polyclear", "Operegal O", "FAS (bleaching agent)", "Redulit F"], "SMILES": "C(S(=O)O)(=N)N", "physical_data": {"Molecular Weight": "108.12", "Molecular Formula": "CH4N2O2S", "Melting Point": "130 \u00b0C"}}