{"cas_no": "1758-80-1", "cn_name": "L-2,4-\u4e8c\u6c28\u57fa\u4e01\u9178\u6c22\u6eb4\u9178\u76d0", "en_name": ["L-2,4-Diaminobutyric acid", "Butanoic acid, 2,4-diamino-, (2S)-", "Butyric acid, 2,4-diamino-, L-", "Butanoic acid, 2,4-diamino-, (S)-", "(2S)-2,4-Diaminobutanoic acid", "L-\u03b1,\u03b3-Diaminobutyric acid", "L-2,4-Diaminobutanoic acid", "(S)-2,4-Diaminobutyric acid", "L-2,4-Diaminobutyric acid", "L-2,4-Diamino-n-butyric acid", "L-DABA", "(2S)-2,4-Diaminobutanoic acid"], "SMILES": "C(CCN)(C(O)=O)N", "physical_data": {"Molecular Weight": "118.13", "Molecular Formula": "C4H10N2O2", "Melting Point": "216-218 \u00b0C"}}