{"cas_no": "17587-22-3", "cn_name": "2,2-\u4e8c\u7532\u57fa-6,6,7,7,8,8,8-\u4e03\u6c1f-3,5-\u8f9b\u4e8c\u916e", "en_name": ["6,6,7,7,8,8,8-Heptafluoro-2,2-dimethyl-3,5-octanedione", "3,5-Octanedione, 6,6,7,7,8,8,8-heptafluoro-2,2-dimethyl-", "6,6,7,7,8,8,8-Heptafluoro-2,2-dimethyl-3,5-octanedione", "1,1,1,2,2,3,3-Heptafluoro-7,7-dimethyl-4,6-octanedione", "Fod", "2,2-Dimethyl-6,6,7,7,8,8,8-heptafluoro-3,5-octanedione", "(Heptafluorobutanoyl)pivaloylmethane", "2,2-Dimethyl-6,6,7,7,8,8,8-heptafluoro-3,5-heptanedione"], "SMILES": "C(C(C(F)(F)F)(F)F)(C(CC(C(C)(C)C)=O)=O)(F)F", "physical_data": {"Molecular Weight": "296.18", "Molecular Formula": "C10H11F7O2", "Boiling Point": "46-47 \u00b0C", "Melting Point": "38 \u00b0C"}}