{"cas_no": "17587-33-6", "cn_name": "\u53cd\u5f0f2,6-\u58ec\u4e8c\u919b", "en_name": ["(E,E)-2,6-Nonadienal", "2,6-Nonadienal, (2E,6E)-", "2,6-Nonadienal, (E,E)-", "2,6-Nonadienal, trans,trans-", "(2E,6E)-2,6-Nonadienal", "trans-2-trans-6-Nonadienal", "2-trans-6-trans-Nonadienal", "(E,E)-2,6-Nonadienal", "(2E,6E)-Nonadienal", "trans,trans-2,6-Nonadienal"], "SMILES": "C(CC=CC=O)C=CCC", "physical_data": {"Molecular Weight": "138.21", "Molecular Formula": "C9H14O", "Boiling Point": "88-89 \u00b0C @ Press: 10 Torr", "Density": "0.8705 g/cm\u00b3 @ Temp: 20 \u00b0C"}}