{"cas_no": "1759-28-0", "cn_name": "4-\u7532\u57fa-5-\u4e59\u70ef\u57fa\u567b\u5511", "en_name": ["4-Methyl-5-vinylthiazole", "Thiazole, 5-ethenyl-4-methyl-", "Thiazole, 4-methyl-5-vinyl-", "5-Ethenyl-4-methylthiazole", "4-Methyl-5-vinylthiazole", "5-Vinyl-4-methylthiazole", "4-Methyl-5-ethenylthiazole"], "SMILES": "C(=C)C1=C(C)N=CS1", "physical_data": {"Molecular Weight": "125.19", "Molecular Formula": "C6H7NS", "Boiling Point": "76-78 \u00b0C @ Press: 21 Torr", "Density": "1.090 g/cm\u00b3 @ Temp: 22 \u00b0C"}}