{"cas_no": "17598-82-2", "cn_name": "L-\u5854\u683c\u7cd6", "en_name": ["L-Tagatose", "L-Tagatose", "L-lyxo-2-Hexulose"], "SMILES": "C(C(C(CO)=O)O)(C(CO)O)O", "physical_data": {"Molecular Weight": "180.16", "Molecular Formula": "C6H12O6", "Melting Point": "134-135 \u00b0C"}}