{"cas_no": "1759-53-1", "cn_name": "\u73af\u4e19\u7532\u9178", "en_name": ["Cyclopropanecarboxylic acid", "Cyclopropanecarboxylic acid", "Cyclopropionic acid", "Cyclopropylcarboxylic acid", "Carboxycyclopropane", "NSC 1112"], "SMILES": "C(O)(=O)C1CC1", "physical_data": {"Molecular Weight": "86.09", "Molecular Formula": "C4H6O2", "Boiling Point": "183 \u00b0C", "Melting Point": "18.5 \u00b0C", "Density": "0.9154 g/cm\u00b3 @ Temp: 0 \u00b0C"}}