{"cas_no": "17609-80-2", "cn_name": "4-\u6c28\u57fa-3-\u6c2f\u82ef\u915a", "en_name": ["4-Amino-3-chlorophenol", "Phenol, 4-amino-3-chloro-", "4-Amino-3-chlorophenol", "1-Hydroxy-4-amino-3-chlorobenzene", "3-Chloro-4-aminophenol", "3-Chloro-p-aminophenol", "2-Chloro-4-hydroxyaniline"], "SMILES": "ClC1=C(N)C=CC(O)=C1", "physical_data": {"Molecular Weight": "143.57", "Molecular Formula": "C6H6ClNO", "Melting Point": "159.5 \u00b0C"}}