{"cas_no": "17605-67-3", "cn_name": "\u5ca9\u7682\u753e\u9187", "en_name": ["Fucosterol", "Stigmasta-5,24(28)-dien-3-ol, (3\u03b2,24E)-", "Stigmasta-5,24(28)-dien-3\u03b2-ol, (E)-", "Fucosterol", "(3\u03b2,24E)-Stigmasta-5,24(28)-dien-3-ol", "Stigmasta-5,trans-24(28)-dien-3\u03b2-ol", "trans-Stigmasta-5,24(28)-dien-3\u03b2-ol", "Fucosterin", "trans-24-Ethylidenecholesterol", "24E-Ethylidenecholest-5-en-3\u03b2-ol", "24-Ethylcholesta-5,24(28)E-dien-3\u03b2-ol", "(28E)-24-Ethylcholesta-5,24(28)-dien-3-ol", "(E)-Stigmasta-5,24-(28)-dien-3\u03b2-ol", "Native Gastro"], "SMILES": "CC12C(C3C(C4(C)C(=CC3)CC(O)CC4)CC1)CCC2C(CCC(C(C)C)=CC)C", "physical_data": {"Molecular Weight": "412.69", "Molecular Formula": "C29H48O", "Boiling Point": "220-230 \u00b0C", "Melting Point": "124 \u00b0C"}}