{"cas_no": "17609-52-8", "cn_name": "\u82c4\u6c27\u7fb0\u9170\u57fa\u82ef\u7518\u6c28\u9178", "en_name": ["Benzyloxycarbonyl-D-phenylglycine", "Benzeneacetic acid, \u03b1-[[(phenylmethoxy)carbonyl]amino]-, (\u03b1R)-", "Glycine, N-carboxy-2-phenyl-, N-benzyl ester, D-", "Benzeneacetic acid, \u03b1-[[(phenylmethoxy)carbonyl]amino]-, (R)-", "(\u03b1R)-\u03b1-[[(Phenylmethoxy)carbonyl]amino]benzeneacetic acid", "N-Carbobenzoxy-D-phenylglycine", "N-Carbobenzyloxy-D-phenylglycine", "N-(Carbobenzoxy)-(R)-phenylglycine", "N-Benzyloxycarbonyl-D-phenylglycine", "N-Benzyloxycarbonyl-D-\u03b1-phenylglycine", "Benzyloxycarbonyl-D-phenylglycine", "Cbz-D-Phg-OH", "D-Cbz phenylglycine", "(R)-2-(((Benzyloxy)carbonyl)amino)-2-phenylacetic acid", "(R)-2-(((Benzyloxy)carbonyl)amino)-2-phenylaceticacid", "(2R)-2-Phenyl-2-(phenylmethoxycarbonylamino)acetic acid", "(2R)-2-[[(Benzyloxy)carbonyl]amino]-2-phenylacetic acid"], "SMILES": "C(NC(OCC1=CC=CC=C1)=O)(C(O)=O)C2=CC=CC=C2", "physical_data": {"Molecular Weight": "285.29", "Molecular Formula": "C16H15NO4", "Melting Point": "127-128 \u00b0C"}}