{"cas_no": "17601-94-4", "cn_name": "2-\u6c30\u57fa-4-\u785d\u57fa-6-\u6eb4\u82ef\u80fa", "en_name": ["2-Amino-3-bromo-5-nitrobenzonitrile", "Benzonitrile, 2-amino-3-bromo-5-nitro-", "2-Amino-3-bromo-5-nitrobenzonitrile", "2-Bromo-6-cyano-4-nitroaniline", "2-Cyano-4-nitro-6-bromoaniline", "3-Bromo-5-nitroanthranilonitrile", "2-Bromo-4-nitro-6-cyanoaniline", "6-Bromo-2-cyano-4-nitroaniline", "2-Cyano-6-bromo-4-nitroaniline"], "SMILES": "C(#N)C1=CC(N(=O)=O)=CC(Br)=C1N", "physical_data": {"Molecular Weight": "242.03", "Molecular Formula": "C7H4BrN3O2", "Melting Point": "190-192 \u00b0C"}}