{"cas_no": "17606-31-4", "cn_name": "\u6740\u866b\u78fa", "en_name": ["Bensultap", "Benzenesulfonothioic acid, S1,S1\u2032-[2-(dimethylamino)-1,3-propanediyl] ester", "Benzenesulfonic acid, thio-, S,S\u2032-[2-(dimethylamino)trimethylene] ester", "Benzenesulfonothioic acid, S,S\u2032-[2-(dimethylamino)-1,3-propanediyl] ester", "1,3-Bis(phenylsulfonylthio)-2-(N,N-dimethylamino)propane", "TI 78", "TI 1671", "Bancol", "Ruban", "Victenon", "ZZ-Doricida", "Bensultap"], "SMILES": "S(SCC(CSS(=O)(=O)C1=CC=CC=C1)N(C)C)(=O)(=O)C2=CC=CC=C2", "physical_data": {"Molecular Weight": "431.61", "Molecular Formula": "C17H21NO4S4", "Melting Point": "83.5 \u00b0C"}}