{"cas_no": "1760-24-3", "cn_name": "N-(2-\u6c28\u4e59\u57fa)-3-\u6c28\u4e19\u57fa\u4e09\u7532\u6c27\u57fa\u7845\u70f7", "en_name": ["N-(2-Aminoethyl)-3-aminopropyltrimethoxysilane", "1,2-Ethanediamine, N1-[3-(trimethoxysilyl)propyl]-", "Ethylenediamine, N-[3-(trimethoxysilyl)propyl]-", "1,2-Ethanediamine, N-[3-(trimethoxysilyl)propyl]-", "N1-[3-(Trimethoxysilyl)propyl]-1,2-ethanediamine", "N-[3-(Trimethoxysilyl)propyl]ethylenediamine", "\u03b3-(Ethylenediamino)propyltrimethoxysilane", "Trimethoxy[3-[(2-aminoethyl)amino]propyl]silane", "[3-[(2-Aminoethyl)amino]propyl]trimethoxysilane", "Dow Corning Z 6020", "N-(Trimethoxysilylpropyl)ethylenediamine", "[\u03b3-(\u03b2-Aminoethylamino)propyl]trimethoxysilane", "A 1120", "(Trimethoxysilylpropyl)ethylenediamine", "KBM 603", "3-[N-(2-Aminoethyl)amino]propyltrimethoxysilane", "N-[3-(Trimethoxysilyl)propyl]-1,2-ethylenediamine", "SH 6020", "AP 132", "[N-(2-Aminoethyl)-\u03b3-aminopropyl]trimethoxysilane", "N-[3-(Trimethoxysilyl)propyl]-1,2-ethanediamine", "GF 91", "NUCA 1120", "\u03b3-(2-Aminoethyl)aminopropyltrimethoxysilane", "AAS-M", "N-Aminoethyl-3-aminopropyltrimethoxysilane", "Z 6020", "A 0700", "en-APTAS", "TSL 8340", "Prosil 3128", "N-(\u03b2-Aminoethyl)-\u03b3-aminopropyltrimethoxysilane", "LS 2480", "KH 792", "Silane A 1120", "SZ 6020", "Z 6026", "Hydrosil 2776", "A 1122", "Silquest A 1120", "Sila-Ace S 320", "N-(\u03b2-Aminoethyl)-3-aminopropyltrimethoxysilane", "3-(Trimethoxysilyl)propylethylenediamine", "N-(Aminoethyl)aminopropyltrimethoxysilane", "AO 700", "A 1200", "A 1200 (amine)", "N-(2-Aminoethyl)-3-aminopropyltrimethoxysilane", "S 320", "Z 6094", "K 1600", "Dynasylan DAMO-T", "6-Amino-4-azahexyltrimethoxysilane", "U 15", "U 15 (coupling agent)", "LS 3750", "G 91", "G 91 (coupling agent)", "Dynasylan DAMO", "Unisilan 15", "(2-Aminoethyl)(3-(trimethoxysilyl)propyl)amine", "SIA 0591.0", "U 15D", "SG-SI 900", "Z 6121", "JH 53", "YDH 792", "Toray Silicone SH 6020", "SI 900", "DC-Z 6020", "Geniosil GF 91", "Geniosil GF 9", "Aminoethylaminopropyltrimethoxysilane", "3-(N-Aminoethyl)aminopropyltrimethoxysilane", "N-(2-Aminoethyl)-3-(trimethoxysilyl)propylamine", "Z 6094N", "Dynasylan DAMO-P", "DAMO-P", "Silane A 0700", "(\u03b2-Aminoethyl)-\u03b3-aminopropyltrimethoxysilane", "HD 107", "Gelest SIA 0591.0", "(\u03b3-Ethylenediaminepropyl)trimethoxysilane", "HC 792", "DAMO-T", "\u03b3-Aminoethylaminopropyltrimethoxysilane", "DB 792", "N-Aminoethyl-\u03b3-aminopropyltrimethoxysilane", "Xiameter OFS 6020", "ZH 1301", "SH 6020P", "TMED", "OFS 6020", "U 156", "3-Ethylenediaminopropyltrimethoxysilane", "Silquest A 1200", "N1-[3-(Trimethoxysilanyl)propyl]ethane-1,2-diamine", "Silquest A 1122", "DAMO", "LMD 1120", "[3-(2-Aminoethylamino)propyl]trimethoxylsilane", "2-Aminoethylaminopropyltrimethoxysilane", "KH 900", "WD 51", "SCA-A 20M", "A 0774", "LT 792", "CG 792", "N-(\u03b2-Aminoethyl)-g-aminopropylmethyldimethoxysilane", "Dow Corning 6121", "SCA 603", "Xiameter OFS 6094", "KH 729", "(Ethylenediaminopropyl)trimethoxysilane", "(Ethylenediaminepropyl)trimethoxysilane", "GF 9", "LD 792", "ESL 8340", "N-(Beta-aminoethyl)-gamma-aminopropyl-trimethoxy-silane", "Dowsil Z 6094", "T 101385"], "SMILES": "[Si](CCCNCCN)(OC)(OC)OC", "physical_data": {"Molecular Weight": "222.36", "Molecular Formula": "C8H22N2O3Si", "Boiling Point": "140 \u00b0C @ Press: 15 Torr", "Density": "1.010 g/cm\u00b3 @ Temp: 25 \u00b0C"}}