{"cas_no": "17600-72-5", "cn_name": "2-\u4e59\u6c27\u57fa\u82ef\u7532\u919a", "en_name": ["1-Ethoxy-2-methoxybenzene", "Benzene, 1-ethoxy-2-methoxy-", "1-Ethoxy-2-methoxybenzene", "Ethyl o-methoxyphenyl ether"], "SMILES": "O(CC)C1=C(OC)C=CC=C1", "physical_data": {"Molecular Weight": "152.19", "Molecular Formula": "C9H12O2", "Boiling Point": "207-209 \u00b0C"}}