{"cas_no": "17609-48-2", "cn_name": "D-\u82ef\u7518\u6c28\u9178\u4e59\u916f\u76d0\u9178\u76d0", "en_name": ["Benzeneacetic acid, \u03b1-amino-, ethyl ester, hydrochloride (1:1), (\u03b1R)-", "Benzeneacetic acid, \u03b1-amino-, ethyl ester, hydrochloride (1:1), (\u03b1R)-", "Glycine, 2-phenyl-, ethyl ester, monohydrochloride, D-(-)-", "Benzeneacetic acid, \u03b1-amino-, ethyl ester, hydrochloride, (R)-", "Benzeneacetic acid, \u03b1-amino-, ethyl ester, hydrochloride, (\u03b1R)-", "Ethyl D-phenylglycinate hydrochloride", "D-(-)-\u03b1-Phenylglycine ethyl ester hydrochloride", "Ethyl D-(-)-\u03b1-phenylglycinate hydrochloride", "(R)-Phenylglycine ethyl ester hydrochloride", "D-\u03b1-Phenylglycine ethyl ester hydrochloride", "D-Phenylglycine ethyl ester hydrochloride", "(R)-(+)-Phenylglycine ethyl ester hydrochloride", "Ethyl (2R)-2-amino-2-(phenyl)acetate hydrochloride", "(R)-2-PhenyLglycine ethyl ester hydrochloride"], "SMILES": "C(C(OCC)=O)(N)C1=CC=CC=C1.Cl", "physical_data": {"Molecular Weight": "", "Molecular Formula": "C10H13NO2.ClH", "Melting Point": "189-190 \u00b0C"}}