{"cas_no": "17606-72-3", "cn_name": "\u9ea6\u82bd\u916e\u7cd6", "en_name": ["Maltulose", "D-Fructose, 4-O-\u03b1-D-glucopyranosyl-", "Fructose, 4-O-\u03b1-D-glucopyranosyl-, D-", "Maltulose", "4-O-\u03b1-D-Glucopyranosyl-D-fructose"], "SMILES": "O(C(C(C(CO)=O)O)C(CO)O)C1OC(CO)C(O)C(O)C1O", "physical_data": {"Molecular Weight": "342.30", "Molecular Formula": "C12H22O11", "Melting Point": "200-202 \u00b0C"}}