{"cas_no": "17609-47-1", "cn_name": "L-\u7f2c\u6c28\u9178\u4e59\u916f\u76d0\u9178\u76d0", "en_name": ["L-Valine, ethyl ester, hydrochloride", "L-Valine, ethyl ester, hydrochloride (1:1)", "Valine, ethyl ester, hydrochloride, L-", "L-Valine, ethyl ester, hydrochloride", "(S)-Valine ethyl ester hydrochloride", "Valine ethyl ester hydrochloride", "Ethyl L-valinate hydrochloride"], "SMILES": "C(C(OCC)=O)(C(C)C)N.Cl", "physical_data": {"Molecular Weight": "", "Molecular Formula": "C7H15NO2.ClH", "Melting Point": "102-104 \u00b0C"}}