{"cas_no": "176199-48-7", "cn_name": "(1S,2S,5R,6S)-2-\u6c28\u57fa\u4e8c\u73af[3.1.0]\u5df1\u70f7-2,6-\u4e8c\u7fa7\u9178", "en_name": ["(+)-2-Aminobicyclo[3.1.0]hexane-2,6-dicarboxylic acid", "Bicyclo[3.1.0]hexane-2,6-dicarboxylic acid, 2-amino-, (1S,2S,5R,6S)-", "Bicyclo[3.1.0]hexane-2,6-dicarboxylic acid, 2-amino-, [1S-(1\u03b1,2\u03b2,5\u03b1,6\u03b1)]-", "(1S,2S,5R,6S)-2-Aminobicyclo[3.1.0]hexane-2,6-dicarboxylic acid", "LY 354740", "Eglumegad", "Eglumetad", "(+)-2-Aminobicyclo[3.1.0]hexane-2,6-dicarboxylic acid", "(1S,2S,5R,6S)-2-Aminobicyclo[3.1.0]hexane-2,6-dicarboxylic acidLY354740", "LY354740"], "SMILES": "C(O)(=O)C1(N)C2C(C(O)=O)C2CC1", "physical_data": {"Molecular Weight": "185.18", "Molecular Formula": "C8H11NO4", "Melting Point": "270-271 \u00b0C"}}