{"cas_no": "17617-45-7", "cn_name": "\u6728\u9632\u5df1\u82e6\u6bd2\u5b81", "en_name": ["(-)-Picrotoxinin", "3,6-Methano-8H-1,5,7-trioxacyclopenta[ij]cycloprop[a]azulene-4,8(3H)-dione, hexahydro-2a-hydroxy-8b-methyl-9-(1-methylethenyl)-, (1aR,2aR,3S,6R,6aS,8aS,8bR,9R)-", "Picrotoxinin", "3,6-Methano-8H-1,5,7-trioxacyclopenta[ij]cycloprop[a]azulene-4,8(3H)-dione, hexahydro-2a-hydroxy-8b-methyl-9-(1-methylethenyl)-, [1aR-(1a\u03b1,2a\u03b2,3\u03b2,6\u03b2,6a\u03b2,8aS*,8b\u03b2,9R*)]-", "(1aR,2aR,3S,6R,6aS,8aS,8bR,9R)-Hexahydro-2a-hydroxy-8b-methyl-9-(1-methylethenyl)-3,6-methano-8H-1,5,7-trioxacyclopenta[ij]cycloprop[a]azulene-4,8(3H)-dione", "(-)-Picrotoxinin", "NSC 129537"], "SMILES": "CC12C34C(O3)CC1(O)C5C(C(C)=C)C(C2OC4=O)OC5=O", "physical_data": {"Molecular Weight": "292.28", "Molecular Formula": "C15H16O6", "Melting Point": "209.5 \u00b0C"}}