{"cas_no": "1761-56-4", "cn_name": "2-\u7f9f\u57fa\u7f29\u82ef\u80fa", "en_name": ["N-Salicylidene-o-aminophenol", "Phenol, 2-[[(2-hydroxyphenyl)imino]methyl]-", "Phenol, 2,2\u2032-(methylidynenitrilo)di-", "2-[[(2-Hydroxyphenyl)imino]methyl]phenol", "Manganon", "Salicylal-o-aminophenol", "Salicylal-2-aminophenol", "N-Salicylidene-o-aminophenol", "o-(Salicylideneamino)phenol", "2-Hydroxy-N-(2-hydroxybenzylidene)aniline", "2-(Salicylidenamino)phenol", "2-Hydroxy-N-salicylideneaniline", "o-Hydroxy-N-salicylideneaniline", "N-(2-Hydroxyphenyl)salicylaldimine", "2,2\u2032-Dihydroxybenzalaniline", "N-Salicylidene-2-hydroxyaniline", "2-Hydroxy-N-(2-hydroxyphenylmethylene)benzenamine", "o-[(o-Hydroxybenzylidene)amino]phenol", "Salicylidene-2-hydroxyaniline", "2-(2-Hydroxybenzylideneamino)phenol", "N-(o-Hydroxybenzylidene)-o-aminophenol", "2,2\u2032-Dihydroxybenzylideneaniline", "N-(2-Hydroxyphenyl)salicylidenimine", "N-(2-Hydroxyphenyl)salicylideneimine", "NSC 1555", "NSC 404030", "N-Salicylidene-2-aminophenol", "o-[(2-Hydroxybenzylidene)amino]phenol", "2-(2-Hydroxybenzylidenamino)phenol"], "SMILES": "C(=NC1=C(O)C=CC=C1)C2=C(O)C=CC=C2", "physical_data": {"Molecular Weight": "213.23", "Molecular Formula": "C13H11NO2", "Boiling Point": "188-190 \u00b0C @ Press: 1.5-2.0 Torr", "Melting Point": "185 \u00b0C"}}