{"cas_no": "17617-05-9", "cn_name": "3-\u5421\u5576\u57fa\u7532\u786b\u9187", "en_name": ["3-Pyridinemethanethiol", "3-Pyridinemethanethiol", "3-Pyridylmethyl mercaptan", "3-Pyridylmethanethiol", "3-(Mercaptomethyl)pyridine", "3-(Sulfanylmethyl)pyridine", "Pyridin-3-ylmethanethiol"], "SMILES": "C(S)C=1C=CC=NC1", "physical_data": {"Molecular Weight": "125.19", "Molecular Formula": "C6H7NS", "Boiling Point": "118-125 \u00b0C @ Press: 17-19 Torr"}}