{"cas_no": "1761-71-3", "cn_name": "4,4'-\u4e8c\u6c28\u57fa\u4e8c\u73af\u5df1\u57fa\u7532\u70f7", "en_name": ["4,4\u2032-Diaminodicyclohexylmethane", "Cyclohexanamine, 4,4\u2032-methylenebis-", "Cyclohexylamine, 4,4\u2032-methylenebis-", "Cyclohexylamine, 4,4-methylenebis-", "4,4\u2032-Methylenebis[cyclohexanamine]", "Bis(p-aminocyclohexyl)methane", "4,4\u2032-Methylenebis(cyclohexylamine)", "p,p\u2032-Diaminodicyclohexylmethane", "Bis(4-aminocyclohexyl)methane", "4,4\u2032-Methylenedicyclohexylamine", "4,4\u2032-Diaminodicyclohexylmethane", "4,4\u2032-Methylenebis(aminocyclohexane)", "Methylenebis(4-aminocyclohexane)", "HLR 4219", "HLR 4448", "PACM 20", "Di(p-aminocyclohexyl)methane", "4,4\u2032-Methylenedicyclohexanamine", "Amicure PACM", "Dicyclohexylmethane-4,4\u2032-diamine", "Wondamine HM", "PACM", "Methylenebis(4-cyclohexylamine)", "Amicure PACM 20", "S 509361", "4-(4-Aminocyclohexylmethyl)cyclohexanamine", "Dicyan", "4,4\u2032-Methylenedicyclohexyldiamine", "4-(4-Aminocyclohexylmethyl)-1-cyclohexylamine", "4,4\u2032-Diaminocyclohexylmethane", "Bis(p-aminocyclohexane)methane", "Vestamin PACM", "DDCM", "Resoltech 1084", "BACM", "4,4\u2032-(Methylene)di(cyclohexan-1-amine)", "Dicykan", "Wanamine H12MDA"], "SMILES": "C(C1CCC(N)CC1)C2CCC(N)CC2", "physical_data": {"Molecular Weight": "210.36", "Molecular Formula": "C13H26N2", "Boiling Point": "320 \u00b0C", "Melting Point": "~41 \u00b0C (approx)", "Density": "0.9608 g/cm\u00b3 @ Temp: 25 \u00b0C"}}