{"cas_no": "1761-61-1", "cn_name": "5-\u6eb4\u6c34\u6768\u919b", "en_name": ["5-Bromosalicylaldehyde", "Benzaldehyde, 5-bromo-2-hydroxy-", "Salicylaldehyde, 5-bromo-", "5-Bromo-2-hydroxybenzaldehyde", "5-Bromosalicylaldehyde", "2-Hydroxy-5-bromobenzaldehyde", "4-Bromo-2-formylphenol", "3-Bromo-6-hydroxybenzaldehyde", "NSC 7310", "NSC 9258"], "SMILES": "C(=O)C1=C(O)C=CC(Br)=C1", "physical_data": {"Molecular Weight": "201.02", "Molecular Formula": "C7H5BrO2", "Melting Point": "105 \u00b0C"}}