{"cas_no": "1761-62-2", "cn_name": "5-\u7898\u6c34\u6768\u919b", "en_name": ["5-Iodosalicylaldehyde", "Benzaldehyde, 2-hydroxy-5-iodo-", "Salicylaldehyde, 5-iodo-", "2-Hydroxy-5-iodobenzaldehyde", "5-Iodosalicylaldehyde", "5-Iodo-2-hydroxybenzaldehyde", "NSC 74697"], "SMILES": "C(=O)C1=C(O)C=CC(I)=C1", "physical_data": {"Molecular Weight": "248.02", "Molecular Formula": "C7H5IO2", "Melting Point": "83 \u00b0C"}}