{"cas_no": "17629-30-0", "cn_name": "D(+)-\u4e94\u6c34\u68c9\u5b50\u7cd6", "en_name": ["Raffinose, pentahydrate", "\u03b1-D-Glucopyranoside, \u03b2-D-fructofuranosyl O-\u03b1-D-galactopyranosyl-(1\u21926)-, hydrate (1:5)", "Raffinose, pentahydrate", "\u03b1-D-Glucopyranoside, \u03b2-D-fructofuranosyl O-\u03b1-D-galactopyranosyl-(1\u21926)-, pentahydrate", "D-Raffinose pentahydrate", "D-(+)-Raffinose pentahydrate"], "SMILES": "O(C1(CO)OC(CO)C(O)C1O)C2OC(COC3OC(CO)C(O)C(O)C3O)C(O)C(O)C2O.O", "physical_data": {"Molecular Weight": "", "Molecular Formula": "C18H32O16.5H2O", "Melting Point": "135 \u00b0C"}}