{"cas_no": "1762-46-5", "cn_name": "2,2'-\u8054\u5421\u5576-5,5\u2018-\u4e8c\u7532\u9178\u4e8c\u4e59\u916f", "en_name": ["5,5\u2032-Diethyl [2,2\u2032-bipyridine]-5,5\u2032-dicarboxylate", "[2,2\u2032-Bipyridine]-5,5\u2032-dicarboxylic acid, 5,5\u2032-diethyl ester", "6,6\u2032-Binicotinic acid, diethyl ester", "[2,2\u2032-Bipyridine]-5,5\u2032-dicarboxylic acid, diethyl ester", "5,5\u2032-Diethyl [2,2\u2032-bipyridine]-5,5\u2032-dicarboxylate", "5,5\u2032-Diethoxycarbonyl-2,2\u2032-bipyridine", "5,5\u2032-Dicarbethoxy-2,2\u2032-bipyridine", "Diethyl 2,2\u2032-bipyridyl-5,5\u2032-dicarboxylate", "Diethyl 2,2\u2032-bipyridine-5,5\u2032-dicarboxylate", "5,5\u2032-Bis(ethoxycarbonyl)-2,2\u2032-bipyridine", "5,5-Bis(carboxyethyl)-2,2\u2032-bipyridine", "[2,2\u2032]-Bipyridinyl-5,5\u2032-dicarboxylic acid diethyl ester"], "SMILES": "C(OCC)(=O)C1=CC=C(N=C1)C2=CC=C(C(OCC)=O)C=N2", "physical_data": {"Molecular Weight": "300.31", "Molecular Formula": "C16H16N2O4", "Melting Point": "145-147 \u00b0C"}}