{"cas_no": "17626-40-3", "cn_name": "3,4-\u4e8c\u6c28\u57fa\u82ef\u7532\u8148", "en_name": ["3,4-Diaminobenzonitrile", "Benzonitrile, 3,4-diamino-", "3,4-Diaminobenzonitrile", "4-Cyano-1,2-diaminobenzene", "2-Amino-4-cyanoaniline", "4-Cyano-o-phenylenediamine", "1,2-Diamino-4-cyanobenzene", "4-Cyano-1,2-benzenediamine", "4-Cyano-1,2-phenylenediamine"], "SMILES": "C(#N)C1=CC(N)=C(N)C=C1", "physical_data": {"Molecular Weight": "133.15", "Molecular Formula": "C7H7N3", "Melting Point": "147.5 \u00b0C"}}