{"cas_no": "17624-07-6", "cn_name": "6-\u5def\u57fa\u70df\u9178", "en_name": ["6-Mercaptonicotinic acid", "3-Pyridinecarboxylic acid, 1,6-dihydro-6-thioxo-", "Nicotinic acid, 6-mercapto-", "1,6-Dihydro-6-thioxo-3-pyridinecarboxylic acid", "5-Carboxy-2-thiopyridone", "6-Mercaptonicotinic acid", "5-Carboxy-2-mercaptopyridine", "6-Mercapto-3-pyridinecarboxylic acid", "2-Mercaptopyridine-5-carboxylic acid"], "SMILES": "C(O)(=O)C=1C=CC(=S)NC1", "physical_data": {"Molecular Weight": "155.17", "Molecular Formula": "C6H5NO2S", "Melting Point": "273-275 \u00b0C"}}