{"cas_no": "1762-95-4", "cn_name": "\u786b\u6c30\u9178\u94f5", "en_name": ["Ammonium thiocyanate", "Thiocyanic acid, ammonium salt (1:1)", "Thiocyanic acid, ammonium salt", "Ammonium isothiocyanate", "Ammonium sulfocyanate", "Ammonium thiocyanate", "Ammonium rhodanate", "Rhodanid", "Ammonium cyanide sulfide (NH4CNS)"], "SMILES": "C(#N)S.N", "physical_data": {"Molecular Weight": "", "Molecular Formula": "CHNS.H3N", "Melting Point": "149.6 \u00b0C", "Density": "1.3057 g/cm\u00b3"}}