{"cas_no": "17625-83-1", "cn_name": "4-\u6c28\u57fa\u82ef\u7532\u9170\u82ef\u80fa", "en_name": ["N-(4-Aminophenyl)benzamide", "Benzamide, N-(4-aminophenyl)-", "Benzanilide, 4\u2032-amino-", "N-(4-Aminophenyl)benzamide", "N-Benzoyl-1,4-diaminobenzene", "1-Amino-4-(benzoylamino)benzene", "N-Benzoyl-p-phenylenediamine", "4\u2032-Aminobenzanilide", "p-Benzamidoaniline", "N-Benzoyl-4-aminoaniline"], "SMILES": "C(NC1=CC=C(N)C=C1)(=O)C2=CC=CC=C2", "physical_data": {"Molecular Weight": "212.25", "Molecular Formula": "C13H12N2O", "Melting Point": "129 \u00b0C"}}