{"cas_no": "1762-34-1", "cn_name": "5 5'-\u4e8c\u7532\u57fa-2,2-\u8054\u5421\u5576", "en_name": ["5,5\u2032-Dimethyl-2,2\u2032-bipyridine", "2,2\u2032-Bipyridine, 5,5\u2032-dimethyl-", "6,6\u2032-Bi-3-picoline", "5,5\u2032-Dimethyl-2,2\u2032-bipyridine", "5,5\u2032-Dimethyl-2,2\u2032-dipyridyl", "5,5\u2032-Dimethyl-2,2\u2032-bipyridyl", "Abametapir", "Xeglyze", "5,5-Dimethyl-2,2-dipyridyl"], "SMILES": "CC1=CC=C(N=C1)C2=CC=C(C)C=N2", "physical_data": {"Molecular Weight": "184.24", "Molecular Formula": "C12H12N2", "Melting Point": "114.5-115.0 \u00b0C"}}