{"cas_no": "17630-76-1", "cn_name": "5-\u6c2f\u975b\u7ea2", "en_name": ["5-Chloroisatin", "1H-Indole-2,3-dione, 5-chloro-", "Indole-2,3-dione, 5-chloro-", "Isatin, 5-chloro-", "5-Chloro-1H-indole-2,3-dione", "5-Chloroisatin", "5-Chloro-2,3-indoledione", "5-Chloro-2,3-indolinedione", "NSC 135811"], "SMILES": "O=C1C=2C(NC1=O)=CC=C(Cl)C2", "physical_data": {"Molecular Weight": "181.58", "Molecular Formula": "C8H4ClNO2", "Melting Point": "246-247 \u00b0C"}}