{"cas_no": "1763-23-1", "cn_name": "\u5341\u4e03\u6c1f\u8f9b\u70f7\u78fa\u9178\u6eb6\u6db2", "en_name": ["Perfluorooctanesulfonic acid", "1-Octanesulfonic acid, 1,1,2,2,3,3,4,4,5,5,6,6,7,7,8,8,8-heptadecafluoro-", "1-Octanesulfonic acid, heptadecafluoro-", "1,1,2,2,3,3,4,4,5,5,6,6,7,7,8,8,8-Heptadecafluoro-1-octanesulfonic acid", "Perfluorooctylsulfonic acid", "Perfluorooctanesulfonic acid", "Perfluoro-n-octanesulfonic acid", "Heptadecafluoro-1-octanesulfonic acid", "1-Perfluorooctanesulfonic acid", "Eftop EF 101", "EF 101", "Heptadecafluorooctanesulfonic acid", "PFOS"], "SMILES": "C(C(C(C(C(F)(F)F)(F)F)(F)F)(F)F)(C(C(C(S(=O)(=O)O)(F)F)(F)F)(F)F)(F)F", "physical_data": {"Molecular Weight": "500.13", "Molecular Formula": "C8HF17O3S", "Boiling Point": "133 \u00b0C @ Press: 6 Torr"}}