{"cas_no": "17635-21-1", "cn_name": "2,3,6-\u4e09\u7532\u57fa\u55b9\u5594\u5549", "en_name": ["2,3,6-Trimethylquinoxaline", "Quinoxaline, 2,3,6-trimethyl-", "2,3,6-Trimethylquinoxaline", "6-Methyl-2,3-dimethylquinoxaline"], "SMILES": "CC1=NC2=C(N=C1C)C=CC(C)=C2", "physical_data": {"Molecular Weight": "172.23", "Molecular Formula": "C11H12N2", "Melting Point": "92-94 \u00b0C"}}