{"cas_no": "1763-28-6", "cn_name": "4,4,4-\u4e09\u6c1f-3-(\u4e09\u6c1f\u7532\u57fa)\u5df4\u8c46\u9178", "en_name": ["4,4,4-Trifluoro-3-(trifluoromethyl)-2-butenoic acid", "2-Butenoic acid, 4,4,4-trifluoro-3-(trifluoromethyl)-", "Crotonic acid, 4,4,4-trifluoro-3-(trifluoromethyl)-", "4,4,4-Trifluoro-3-(trifluoromethyl)-2-butenoic acid", "4,4,4-Trifluoro-3-(trifluoromethyl)crotonic acid", "4,4,4-Trifluoro-3-trifluoromethylbut-2-enoic acid", "3,3-Bis(trifluoromethyl)acrylic acid"], "SMILES": "C(=CC(O)=O)(C(F)(F)F)C(F)(F)F", "physical_data": {"Molecular Weight": "208.06", "Molecular Formula": "C5H2F6O2", "Boiling Point": "90 \u00b0C @ Press: 51 Torr"}}