{"cas_no": "17639-76-8", "cn_name": "2-\u7532\u6c27\u57fa\u4e19\u9178\u7532\u916f", "en_name": ["Methyl 2-methoxypropionate", "Propanoic acid, 2-methoxy-, methyl ester", "Propionic acid, 2-methoxy-, methyl ester", "Methyl \u03b1-methoxypropionate", "Methyl 2-methoxypropanoate", "Methyl 2-methoxypropionate", "2-Methoxypropanoic acid methyl ester"], "SMILES": "C(C(OC)=O)(OC)C", "physical_data": {"Molecular Weight": "118.13", "Molecular Formula": "C5H10O3", "Boiling Point": "129.5 \u00b0C @ Press: 732 Torr", "Density": "1.0108 g/cm\u00b3"}}