{"cas_no": "17639-64-4", "cn_name": "N-\u5bf9\u7532\u82ef\u78fa\u9170\u57fa\u5421\u54af", "en_name": ["1-Tosylpyrrole", "1H-Pyrrole, 1-[(4-methylphenyl)sulfonyl]-", "Pyrrole, 1-(p-tolylsulfonyl)-", "1-[(4-Methylphenyl)sulfonyl]-1H-pyrrole", "1-(p-Tolylsulfonyl)pyrrole", "1-(p-Tolylsulfonyl)-1H-pyrrole", "N-Tosylpyrrole", "1-Tosylpyrrole", "1-(4-Methylphenylsulfonyl)pyrrole", "1-[(4-Methylphenyl)sulfonyl]-1H-pyrrole", "1-(p-Toluenesulfonyl)-1H-pyrrole", "N-p-Toluenesulfonylpyrrole", "1-(p-Tosyl)-1H-pyrrole", "1-(4-Methylbenzenesulfonyl)-1H-pyrrole", "1-(Toluene-4-sulfonyl)-1H-pyrrole", "1-Tosyl-1H-pyrrole"], "SMILES": "S(=O)(=O)(C1=CC=C(C)C=C1)N2C=CC=C2", "physical_data": {"Molecular Weight": "221.28", "Molecular Formula": "C11H11NO2S", "Melting Point": "98-100 \u00b0C"}}