{"cas_no": "17639-93-9", "cn_name": "2-\u6c2f\u4e19\u9178\u7532\u916f", "en_name": ["Methyl 2-chloropropionate", "Propanoic acid, 2-chloro-, methyl ester", "Propionic acid, 2-chloro-, methyl ester", "Methyl \u03b1-chloropropionate", "Methyl 2-chloropropionate", "2-Chloropropionic acid methyl ester", "\u03b1-Chloropropionic acid methyl ester", "Methyl 2-chloropropanoate", "2-Chloropropanoic acid methyl ester", "Methyl \u03b1-chloropropanoate", "Methyl (\u00b1)-2-chloropropionate", "Methyl DL-\u03b1-chloropropionate", "(\u00b1)-Methyl \u03b1-chloropropionate", "(\u00b1)-2-Chloropropionic acid methyl ester", "(\u00b1)-Methyl 2-chloropropanoate", "NSC 70983"], "SMILES": "C(C(C)Cl)(OC)=O", "physical_data": {"Molecular Weight": "122.55", "Molecular Formula": "C4H7ClO2", "Boiling Point": "132.5 \u00b0C", "Density": "1.134 g/cm\u00b3 @ Temp: 20 \u00b0C"}}