{"cas_no": "17630-75-0", "cn_name": "5-\u6c2f\u6c27\u5316\u5432\u54da", "en_name": ["5-Chlorooxindole", "2H-Indol-2-one, 5-chloro-1,3-dihydro-", "2-Indolinone, 5-chloro-", "Oxindole, 5-chloro-", "5-Chloro-1,3-dihydro-2H-indol-2-one", "5-Chlorooxindole", "5-Chloro-2-oxoindoline", "5-Chloro-2-indolinone", "5-Chloro-1,3-dihydroindol-2-one"], "SMILES": "O=C1NC=2C(C1)=CC(Cl)=CC2", "physical_data": {"Molecular Weight": "167.59", "Molecular Formula": "C8H6ClNO", "Melting Point": "192-195 \u00b0C"}}