{"cas_no": "17648-03-2", "cn_name": "2,3-\u4e8c\u6c22-9,10-\u4e8c\u7f9f-1,4-\u84bd\u4e8c\u916e", "en_name": ["Leucoquinizarin", "1,4-Anthracenedione, 2,3-dihydro-9,10-dihydroxy-", "Leucoquinizarin", "2,3-Dihydro-9,10-dihydroxy-1,4-anthracenedione", "Dihydroquinizarin", "2,3-Dihydro-9,10-dihydroxyanthraquinone", "9,10-Dihydroxy-2,3-dihydroanthracene-1,4-dione"], "SMILES": "OC1=C2C(=C(O)C=3C1=CC=CC3)C(=O)CCC2=O", "physical_data": {"Molecular Weight": "242.23", "Molecular Formula": "C14H10O4", "Melting Point": "155-156 \u00b0C"}}