{"cas_no": "17640-02-7", "cn_name": "\u4e8c\u6c2f\u4e19\u9178\u7532\u916f", "en_name": ["Propanoic acid, 2,2-dichloro-, methyl ester", "Propanoic acid, 2,2-dichloro-, methyl ester", "Propionic acid, 2,2-dichloro-, methyl ester", "Methyl 2,2-dichloropropionate", "Methyl 2,2-dichloropropanoate", "2,2-Dichloropropanoic acid methyl ester", "\u03b1,\u03b1-Dichloropropionic acid methyl ester", "Methyl \u03b1,\u03b1-dichloropropionate"], "SMILES": "C(C(C)(Cl)Cl)(OC)=O", "physical_data": {"Molecular Weight": "157.00", "Molecular Formula": "C4H6Cl2O2", "Boiling Point": "39-40 \u00b0C @ Press: 15 Torr", "Density": "1.2934 g/cm\u00b3 @ Temp: 20 \u00b0C"}}