{"cas_no": "17640-15-2", "cn_name": "\u6c30\u57fa\u7532\u9178\u7532\u916f", "en_name": ["Methyl cyanoformate", "Carbonocyanidic acid, methyl ester", "Formic acid, cyano-, methyl ester", "Methyl cyanoformate", "Methyl carbonocyanidate", "Mander's reagent", "Cyanoformic acid methyl ester", "[(Cyanocarbonyl)oxy]methane", "2-Methoxy-2-oxoacetonitrile"], "SMILES": "C(C#N)(OC)=O", "physical_data": {"Molecular Weight": "85.06", "Molecular Formula": "C3H3NO2", "Boiling Point": "96-97 \u00b0C", "Density": "1.0719 g/cm\u00b3 @ Temp: 20 \u00b0C"}}