{"cas_no": "17643-36-6", "cn_name": "9-\u7678\u7094-1-\u9187", "en_name": ["9-Decyn-1-ol", "9-Decyn-1-ol", "9-Decynyl alcohol"], "SMILES": "C(CCCC#C)CCCCO", "physical_data": {"Molecular Weight": "154.25", "Molecular Formula": "C10H18O", "Boiling Point": "78-79 \u00b0C @ Press: 0.5 Torr"}}