{"cas_no": "17650-84-9", "cn_name": "\u83b0\u83f2\u9187-3-O-\u82b8\u9999\u7cd6\u82f7", "en_name": ["Kaempferol 3-O-rutinoside", "4H-1-Benzopyran-4-one, 3-[[6-O-(6-deoxy-\u03b1-L-mannopyranosyl)-\u03b2-D-glucopyranosyl]oxy]-5,7-dihydroxy-2-(4-hydroxyphenyl)-", "Nicotiflorin", "Flavone, 3,4\u2032,5,7-tetrahydroxy-, 3-rhamnoglucoside", "3-[[6-O-(6-Deoxy-\u03b1-L-mannopyranosyl)-\u03b2-D-glucopyranosyl]oxy]-5,7-dihydroxy-2-(4-hydroxyphenyl)-4H-1-benzopyran-4-one", "Kaempferol 3-rhamnoglucoside", "Nicotiflorine", "Kaempferol 3-rutinoside", "Kaempferol 3-\u03b2-rutinoside", "Kaempferol 3-O-\u03b2-rutinoside", "Nicotifloroside", "Kaempferol 3-O-rutinoside", "Kaempferol 3-O-[\u03b1-L-rhamnopyranosyl-(1\u21926)-\u03b2-D-glucopyranoside]", "Kaempferol 3-O-\u03b2-D-rutinoside", "Nicotifiorin", "Kaempferol 3-O-\u03b2-D-(6\u2032\u2032-O-\u03b1-L-rhamnopyranosyl)glucopyranoside", "Kaempferol 3-O-\u03b1-L-rhamnopyranosyl-\u03b2-D-glucopyranoside", "Kaempferol 3-O-\u03b1-rhamnopyranosyl-(1\u21926)-\u03b2-glucopyranoside", "6\u2032\u2032-O-\u03b1-L-Rhamnopyranosylastragalin", "Nicotoflorin", "Kaempferol 3-O-\u03b1-rhamnopyranosyl-(1\u2032\u2032\u2032\u21926\u2032\u2032)-\u03b2-glucopyranoside", "Kaempferol-3-O-[6-O-(\u03b1-L-rhamnopyranosyl)]-\u03b2-D-glucoside", "Aromadendrin 3-O-rutinoside"], "SMILES": "O(C1=C(OC=2C(C1=O)=C(O)C=C(O)C2)C3=CC=C(O)C=C3)C4OC(COC5C(O)C(O)C(O)C(C)O5)C(O)C(O)C4O", "physical_data": {"Molecular Weight": "594.52", "Molecular Formula": "C27H30O15", "Melting Point": "220-225 \u00b0C"}}