{"cas_no": "1765-93-1", "cn_name": "4-\u6c1f\u82ef\u787c\u9178", "en_name": ["(4-Fluorophenyl)boronic acid", "Boronic acid, B-(4-fluorophenyl)-", "Benzeneboronic acid, p-fluoro-", "Boronic acid, (4-fluorophenyl)-", "B-(4-Fluorophenyl)boronic acid", "(4-Fluorophenyl)boronic acid", "4-Fluorobenzeneboronic acid", "p-Fluorophenylboronic acid", "(p-Fluorophenyl)boric acid", "(4-Fluorophenyl)dihydroxyboron", "NSC 142683", "p-Fluorobenzylboronic acid", "(4-Fluorophenyl)dihydroxyborane"], "SMILES": "B(O)(O)C1=CC=C(F)C=C1", "physical_data": {"Molecular Weight": "139.92", "Molecular Formula": "C6H6BFO2", "Melting Point": "289-290 \u00b0C"}}