{"cas_no": "17654-68-1", "cn_name": "4-\u6c2f\u4ee3\u90bb\u82ef\u4e8c\u7532\u8148", "en_name": ["4-Chloro-1,2-benzenedicarbonitrile", "1,2-Benzenedicarbonitrile, 4-chloro-", "Phthalonitrile, 4-chloro-", "4-Chloro-1,2-benzenedicarbonitrile", "4-Chlorophthalonitrile", "4-Chlorophthalodinitrile", "4-Chloro-1,2-dicyanobenzene", "NSC 27005"], "SMILES": "C(#N)C1=C(C#N)C=C(Cl)C=C1", "physical_data": {"Molecular Weight": "162.58", "Molecular Formula": "C8H3ClN2", "Melting Point": "130-132 \u00b0C"}}