{"cas_no": "1765-26-0", "cn_name": "2,2-\u4e8c(\u4e09\u6c1f\u7532\u57fa)-1,3-\u4e8c\u5641\u620a\u73af", "en_name": ["2,2-Bis(trifluoromethyl)-1,3-dioxolane", "1,3-Dioxolane, 2,2-bis(trifluoromethyl)-", "2,2-Bis(trifluoromethyl)-1,3-dioxolane"], "SMILES": "C(F)(F)(F)C1(C(F)(F)F)OCCO1", "physical_data": {"Molecular Weight": "210.07", "Molecular Formula": "C5H4F6O2", "Boiling Point": "99-100 \u00b0C"}}