{"cas_no": "1765-42-0", "cn_name": "2-\u6c28\u57fa-3,4,5,6-\u56db\u6c1f\u82ef\u7532\u9178", "en_name": ["2-Amino-3,4,5,6-tetrafluorobenzoic acid", "Benzoic acid, 2-amino-3,4,5,6-tetrafluoro-", "Anthranilic acid, 3,4,5,6-tetrafluoro-", "2-Amino-3,4,5,6-tetrafluorobenzoic acid", "Tetrafluoroanthranilic acid"], "SMILES": "C(O)(=O)C1=C(F)C(F)=C(F)C(F)=C1N", "physical_data": {"Molecular Weight": "209.10", "Molecular Formula": "C7H3F4NO2", "Melting Point": "141-142 \u00b0C"}}