{"cas_no": "1765-40-8", "cn_name": "\u03b1-\u6eb4-2,3,4,5,6-\u4e94\u6c1f\u7532\u57fa\u82ef\u9178\u916f", "en_name": ["Pentafluorobenzyl bromide", "Benzene, 1-(bromomethyl)-2,3,4,5,6-pentafluoro-", "Toluene, \u03b1-bromo-2,3,4,5,6-pentafluoro-", "Benzene, (bromomethyl)pentafluoro-", "1-(Bromomethyl)-2,3,4,5,6-pentafluorobenzene", "\u03b1-Bromo-2,3,4,5,6-pentafluorotoluene", "Pentafluorobenzyl bromide", "(Bromomethyl)pentafluorobenzene", "(Pentafluorophenyl)methyl bromide", "2,3,4,5,6-Pentafluorobenzyl bromide", "1-(Bromomethyl)pentafluorobenzene", "2,3,4,5,6-Pentafluoro-\u03b1-bromotoluene", "NSC 96888", "\u03b1-Bromo-pentafluorotoluene", "2,3,4,5,6-Pentafluorophenylmethyl bromide"], "SMILES": "C(Br)C1=C(F)C(F)=C(F)C(F)=C1F", "physical_data": {"Molecular Weight": "260.99", "Molecular Formula": "C7H2BrF5", "Boiling Point": "174.5 \u00b0C", "Melting Point": "87-89 \u00b0C"}}