{"cas_no": "1766-76-3", "cn_name": "\u5341\u7532\u57fa\u82ef\u6c1f\u9178\u916f", "en_name": ["Bis(pentafluorophenyl)methanol", "Benzenemethanol, 2,3,4,5,6-pentafluoro-\u03b1-(2,3,4,5,6-pentafluorophenyl)-", "Benzhydrol, 2,2\u2032,3,3\u2032,4,4\u2032,5,5\u2032,6,6\u2032-decafluoro-", "Benzenemethanol, 2,3,4,5,6-pentafluoro-\u03b1-(pentafluorophenyl)-", "2,3,4,5,6-Pentafluoro-\u03b1-(2,3,4,5,6-pentafluorophenyl)benzenemethanol", "Bis(pentafluorophenyl)methanol", "NSC 97029", "Decafluorobenzhydrol"], "SMILES": "C(O)(C1=C(F)C(F)=C(F)C(F)=C1F)C2=C(F)C(F)=C(F)C(F)=C2F", "physical_data": {"Molecular Weight": "364.14", "Molecular Formula": "C13H2F10O", "Melting Point": "79-80 \u00b0C"}}