{"cas_no": "17676-24-3", "cn_name": "TRANS-HINOKIRESINOL", "en_name": ["Hinokiresinol", "Phenol, 4,4\u2032-[(1E,3S)-3-ethenyl-1-propene-1,3-diyl]bis-", "Phenol, 4,4\u2032-(3-vinylpropenylene)di-, (E)-", "Hinokiresinol", "Phenol, 4,4\u2032-(3-ethenyl-1-propene-1,3-diyl)bis-, [S-(E)]-", "4,4\u2032-[(1E,3S)-3-Ethenyl-1-propene-1,3-diyl]bis[phenol]", "\u03b1-(p-Hydroxystyryl)chavicol", "(-)-Hinokiresinol"], "SMILES": "C(C=CC1=CC=C(O)C=C1)(C=C)C2=CC=C(O)C=C2", "physical_data": {"Molecular Weight": "252.31", "Molecular Formula": "C17H16O2", "Melting Point": "69-71 \u00b0C"}}