{"cas_no": "17672-21-8", "cn_name": "4-\u6c28\u57fa-3-\u7f9f\u57fa\u82ef\u7532\u9178\u7532\u916f", "en_name": ["Benzoic acid, 2-amino-3-hydroxy-, methyl ester", "Benzoic acid, 2-amino-3-hydroxy-, methyl ester", "Anthranilic acid, 3-hydroxy-, methyl ester", "Methyl 3-hydroxyanthranilate", "Methyl 2-amino-3-hydroxybenzoate", "2-Amino-3-hydroxybenzoic acid methyl ester"], "SMILES": "C(OC)(=O)C1=C(N)C(O)=CC=C1", "physical_data": {"Molecular Weight": "167.16", "Molecular Formula": "C8H9NO3", "Melting Point": "93 \u00b0C"}}