{"cas_no": "176763-62-5", "cn_name": "(R,R)-(-)-N,N'-\u53cc(3,5-\u4e8c\u53d4\u4e01\u57fa\u4e9a\u6c34\u6768\u57fa)-1,2-\u73af\u5df1\u57fa\u4e8c\u80fa\u94b4", "en_name": ["[[2,2\u2032-[(1R,2R)-1,2-Cyclohexanediylbis[(nitrilo-\u03baN)methylidyne]]bis[4,6-bis(1,1-dimethylethyl)phenolato-\u03baO]](2-)]cobalt", "Cobalt, [[2,2\u2032-[(1R,2R)-1,2-cyclohexanediylbis[(nitrilo-\u03baN)methylidyne]]bis[4,6-bis(1,1-dimethylethyl)phenolato-\u03baO]](2-)]-, (SP-4-2)-", "Cobalt, [[2,2\u2032-[1,2-cyclohexanediylbis[(nitrilo-\u03baN)methylidyne]]bis[4,6-bis(1,1-dimethylethyl)phenolato-\u03baO]](2-)]-, [SP-4-2-(1R-trans)]-", "(SP-4-2)-[[2,2\u2032-[(1R,2R)-1,2-Cyclohexanediylbis[(nitrilo-\u03baN)methylidyne]]bis[4,6-bis(1,1-dimethylethyl)phenolato-\u03baO]](2-)]cobalt", "Cobalt, [[2,2\u2032-[1,2-cyclohexanediylbis(nitrilomethylidyne)]bis[4,6-bis(1,1-dimethylethyl)phenolato]](2-)-N,N\u2032,O,O\u2032]-, [SP-4-2-(1R-trans)]-", "(R,R)-N,N\u2032-Bis(3,5-di-tert-butylsalicylidene)-1,2-cyclohexanediaminatocobalt(II)", "N,N\u2032-Bis(3,5-di-tert-butylsalicylidene)-1,2-diaminocyclohexanecobalt(II)", "(R,R)-(-)-N,N\u2032-Bis(3,5-di-tert-butylsalicylidene)-1,2-cyclohexanediaminocobalt(II)", "[[2,2\u2032-[(1R,2R)-1,2-Cyclohexanediylbis[(nitrilo-\u03baN)methylidyne]]bis[4,6-bis(1,1-dimethylethyl)phenolato-\u03baO]](2-)]cobalt", "(R,R)-Jacobsen HKR catalyst", "(R,R)-Co(salen)"], "SMILES": "C(C)(C)(C)C1=C2[O-][Co+2]34[N](C5C([N]3=CC2=CC(C(C)(C)C)=C1)CCCC5)=CC=6C([O-]4)=C(C(C)(C)C)C=C(C(C)(C)C)C6", "physical_data": {"Molecular Weight": "", "Molecular Formula": "C36H52CoN2O2", "Melting Point": "&gt;298 \u00b0C (decomp)"}}