{"cas_no": "17673-25-5", "cn_name": "\u4f5b\u6ce2\u9187", "en_name": ["Phorbol", "5H-Cyclopropa[3,4]benz[1,2-e]azulen-5-one, 1,1a,1b,4,4a,7a,7b,8,9,9a-decahydro-4a,7b,9,9a-tetrahydroxy-3-(hydroxymethyl)-1,1,6,8-tetramethyl-, (1aR,1bS,4aR,7aS,7bS,8R,9R,9aS)-", "5H-Cyclopropa[3,4]benz[1,2-e]azulen-5-one, 1,1a\u03b1,1b\u03b2,4,4a,7a\u03b1,7b,8,9,9a-decahydro-4a\u03b2,7b\u03b1,9\u03b2,9a\u03b1-tetrahydroxy-3-(hydroxymethyl)-1,1,6,8\u03b1-tetramethyl-, (+)-", "Phorbol", "5H-Cyclopropa[3,4]benz[1,2-e]azulen-5-one, 1,1a,1b,4,4a,7a,7b,8,9,9a-decahydro-4a,7b,9,9a-tetrahydroxy-3-(hydroxymethyl)-1,1,6,8-tetramethyl-, [1aR-(1a\u03b1,1b\u03b2,4a\u03b2,7a\u03b1,7b\u03b1,8\u03b1,9\u03b2,9a\u03b1)]-", "(1aR,1bS,4aR,7aS,7bS,8R,9R,9aS)-1,1a,1b,4,4a,7a,7b,8,9,9a-Decahydro-4a,7b,9,9a-tetrahydroxy-3-(hydroxymethyl)-1,1,6,8-tetramethyl-5H-cyclopropa[3,4]benz[1,2-e]azulen-5-one", "4\u03b2-Phorbol", "NSC 154778", "(+)-Phorbol"], "SMILES": "OC12C(C3C(O)(C4C(O)(CC(CO)=C3)C(=O)C(C)=C4)C(C)C1O)C2(C)C", "physical_data": {"Molecular Weight": "364.43", "Molecular Formula": "C20H28O6", "Melting Point": "250-251 \u00b0C (decomp)"}}