{"cas_no": "17672-22-9", "cn_name": "6-\u6c28\u57fa-2-\u7532\u57fa\u82ef\u915a", "en_name": ["2-Amino-6-methylphenol", "Phenol, 2-amino-6-methyl-", "o-Cresol, 6-amino-", "2-Amino-6-methylphenol", "6-Amino-o-cresol", "6-Amino-2-methylphenol", "6-Methyl-2-aminophenol", "6-Methyl-o-aminophenol", "6-Amino-2-cresol", "2-Hydroxy-3-methylaniline"], "SMILES": "OC1=C(C)C=CC=C1N", "physical_data": {"Molecular Weight": "123.15", "Molecular Formula": "C7H9NO", "Melting Point": "89 \u00b0C"}}