{"cas_no": "17675-60-4", "cn_name": "\u78f7\u9178\u80cd\u57fa\u5c3f\u7d20", "en_name": ["Urea, N-(aminoiminomethyl)-, phosphate (1:?)", "Urea, N-(aminoiminomethyl)-, phosphate (1:?)", "Urea, amidino-, phosphate", "Urea, (aminoiminomethyl)-, phosphate", "Guanylurea phosphate", "Dicyandiamidine phosphate", "Apinon 403", "Apinon 404", "Apinon 405"], "SMILES": "N(C(=N)N)C(N)=O.P(=O)(O)(O)O", "physical_data": {"Molecular Weight": "", "Molecular Formula": "C2H6N4O.xH3O4P", "Melting Point": "185-188 \u00b0C (decomp)", "Density": "1.62 g/cm\u00b3"}}