{"cas_no": "17671-27-1", "cn_name": "\u4e8c\u5341\u4e8c\u70f7\u9178\u4e8c\u5341\u4e8c\u70f7\u57fa\u916f", "en_name": ["Behenyl behenate", "Docosanoic acid, docosyl ester", "1-Docosanol, docosanoate", "Behenyl behenate", "Rikaflow BB 62", "n-Docosyl n-docosanoate", "Exceparl BB", "Docosyl behenate", "Pelemol BB", "Nissan Unister M 2222SL", "Unister M 2222SL", "Behenic acid behenyl ester", "SP-C 44 Ester Wax", "Kester Wax 72", "WEP 3", "Nissan Electol WEP 3", "Esprix N 252", "Behenic behenate", "Electol WEP 3", "Unister RM 2222SL"], "SMILES": "O(C(CCCCCCCCCCCCCCCCCCCCC)=O)CCCCCCCCCCCCCCCCCCCCCC", "physical_data": {"Molecular Weight": "649.17", "Molecular Formula": "C44H88O2", "Melting Point": "75 \u00b0C"}}