{"cas_no": "17680-84-1", "cn_name": "\u9ad8\u8f66\u524d\u82f7", "en_name": ["Homoplantaginin", "4H-1-Benzopyran-4-one, 7-(\u03b2-D-glucopyranosyloxy)-5-hydroxy-2-(4-hydroxyphenyl)-6-methoxy-", "Homoplantaginin", "7-(\u03b2-D-Glucopyranosyloxy)-5-hydroxy-2-(4-hydroxyphenyl)-6-methoxy-4H-1-benzopyran-4-one", "Dinatin 7-\u03b2-D-glucopyranoside", "Dinatin 7-glucoside", "Hispidulin 7-glucoside", "Hispiduloside", "Hispidulin 7-O-\u03b2-glucoside", "Hispidulin 7-\u03b2-D-glucopyranoside", "Hispidulin 7-\u03b2-glucoside", "Hispidulin 7-O-glucopyranoside", "Hispidulin 7-O-glucoside", "6-Methoxyapigenin 7-O-glucoside", "Hispidulin 7-O-\u03b2-D-glucopyranoside", "6-Methoxyapigenin 7-O-\u03b2-D-glucoside"], "SMILES": "OC1=C2C(=CC(OC3OC(CO)C(O)C(O)C3O)=C1OC)OC(=CC2=O)C4=CC=C(O)C=C4", "physical_data": {"Molecular Weight": "462.40", "Molecular Formula": "C22H22O11", "Melting Point": "219-220 \u00b0C (decomp)"}}