{"cas_no": "17688-68-5", "cn_name": "4-\u82ef\u57fa\u786b\u4ee3\u5417\u5549-1,1-\u4e8c\u6c27\u5316\u7269", "en_name": ["Thiomorpholine, 4-phenyl-, 1,1-dioxide", "Thiomorpholine, 4-phenyl-, 1,1-dioxide", "N-(Phenyl)thiomorpholine 1,1-dioxide", "NSC 261427", "N-Phenylthiomorpholine S,S-dioxide"], "SMILES": "O=S1(=O)CCN(CC1)C2=CC=CC=C2", "physical_data": {"Molecular Weight": "211.28", "Molecular Formula": "C10H13NO2S", "Melting Point": "122 \u00b0C"}}