{"cas_no": "1768-64-5", "cn_name": "4-\u6c2f\u56db\u6c22-2H-\u5421\u5583", "en_name": ["4-Chlorotetrahydro-2H-pyran", "2H-Pyran, 4-chlorotetrahydro-", "Pyran, 4-chlorotetrahydro-", "4-Chlorotetrahydro-2H-pyran", "4-Chlorotetrahydropyran", "4-Chlorooxacyclohexane"], "SMILES": "ClC1CCOCC1", "physical_data": {"Molecular Weight": "120.58", "Molecular Formula": "C5H9ClO", "Boiling Point": "46 \u00b0C @ Press: 12 Torr", "Density": "1.120 g/cm\u00b3 @ Temp: 22 \u00b0C"}}