{"cas_no": "17685-52-8", "cn_name": "\u5341\u4e8c\u7fb0\u57fa\u4e09\u94c1", "en_name": ["Iron, di-\u03bc-carbonyldecacarbonyltri-, triangulo", "Iron, di-\u03bc-carbonyldecacarbonyltri-, triangulo", "Iron, di-\u03bc-carbonyldecacarbonyltri-, triangulo-", "Iron carbonyl (Fe3(CO)12)", "Di-\u03bc-carbonyldecacarbonyltriiron", "Triiron dodecacarbonyl", "Dodecacarbonyltriiron", "Dodecacarbonyltriiron(0)", "Dodecacarbonyl-triangulo-triiron", "Di-\u03bc-carbonyldecacarbonyltri-triangulo-iron"], "SMILES": "C(#O)[Fe+2]123(C#O)(C#O)[Fe+2](C#O)(C#O)(C#O)([Fe]1(C#O)(C#O)(C#O)C#O)([C-2]2=O)[C-2]3=O", "physical_data": {"Molecular Weight": "", "Molecular Formula": "C12Fe3O12", "Melting Point": "110 \u00b0C (decomp)"}}