{"cas_no": "17685-05-1", "cn_name": "\u82ef\u57fa-\u0392-D-\u8461\u7cd6\u82f7\u9178", "en_name": ["Phenol glucuronide", "\u03b2-D-Glucopyranosiduronic acid, phenyl", "Glucopyranosiduronic acid, phenyl, \u03b2-D-", "Glucopyranosiduronic acid, phenyl", "Phenyl \u03b2-D-glucopyranosiduronic acid", "Phenol \u03b2-D-glucuronide", "Phenyl glucuronide", "Phenol glucuronide", "Phenyl \u03b2-D-glucuronide", "Phenyl \u03b2-D-glucosiduronic acid"], "SMILES": "O(C1OC(C(O)=O)C(O)C(O)C1O)C2=CC=CC=C2", "physical_data": {"Molecular Weight": "270.24", "Molecular Formula": "C12H14O7", "Melting Point": "160-161 \u00b0C"}}