{"cas_no": "17682-70-1", "cn_name": "\u53cc\u4e19\u916e-L-\u5c71\u68a8\u7cd6", "en_name": ["Diacetone L-sorbose", "\u03b1-L-Sorbofuranose, 2,3:4,6-bis-O-(1-methylethylidene)-", "Sorbofuranose, 2,3:4,6-di-O-isopropylidene-, \u03b1-L-", "7H-1,3-Dioxolo[4,5]furo[3,2-d][1,3]dioxin, \u03b1-L-sorbofuranose deriv.", "2,3:4,6-Bis-O-(1-methylethylidene)-\u03b1-L-sorbofuranose", "2,3:4,6-Di-O-isopropylidene-\u03b1-L-sorbofuranose", "2,3:4,6-Di-O-isopropylidene-L-sorbose", "Diacetone sorbose", "Di-O-Isopropylidene-L-sorbose", "Sorbose diacetonide", "Diacetone L-sorbose", "NSC 23815"], "SMILES": "C(O)C12C(C3C(O1)COC(C)(C)O3)OC(C)(C)O2", "physical_data": {"Molecular Weight": "260.28", "Molecular Formula": "C12H20O6", "Boiling Point": "130-135 \u00b0C @ Press: 0.1-0.3 Torr", "Melting Point": "77-78 \u00b0C"}}