{"cas_no": "17689-77-9", "cn_name": "\u4e09\u4e59\u9170\u6c27\u57fa\u4e59\u57fa\u7845\u70f7", "en_name": ["Ethyltriacetoxysilane", "Silanetriol, 1-ethyl-, 1,1,1-triacetate", "Silanetriol, ethyl-, triacetate", "Ethyltriacetoxysilane", "Triacetoxyethylsilane", "Ethylsilanetriol triacetate", "Tris(acetyloxy)ethylsilane", "AC 3034", "E 6345", "ES 23", "Wacker Crosslinker ES 23", "[Diacetyloxy(ethyl)silyl] acetate"], "SMILES": "[Si](OC(C)=O)(OC(C)=O)(OC(C)=O)CC", "physical_data": {"Molecular Weight": "234.28", "Molecular Formula": "C8H14O6Si", "Boiling Point": "107-108 \u00b0C @ Press: 8 Torr", "Melting Point": "7-9 \u00b0C", "Density": "1.143 g/cm\u00b3"}}