{"cas_no": "1768-59-8", "cn_name": "1,4-\u4e8c\u82ef\u6c28\u57fa\u786b\u8132", "en_name": ["N,2-Diphenylhydrazinecarbothioamide", "Hydrazinecarbothioamide, N,2-diphenyl-", "Semicarbazide, 1,4-diphenyl-3-thio-", "N,2-Diphenylhydrazinecarbothioamide", "1,4-Diphenylthiosemicarbazide", "1,4-Diphenyl-3-thiosemicarbazide", "N,2-diphenylhydrazinecarbothioamide", "NSC 406528", "NSC 49341", "1-Anilino-3-phenylthiourea"], "SMILES": "N(C(NNC1=CC=CC=C1)=S)C2=CC=CC=C2", "physical_data": {"Molecular Weight": "243.33", "Molecular Formula": "C13H13N3S", "Melting Point": "176 \u00b0C"}}