{"cas_no": "17694-68-7", "cn_name": "3-(2-\u6eb4\u4e59\u9170\u57fa)\u5421\u5576\u6c22\u6eb4\u9178\u76d0", "en_name": ["Ethanone, 2-bromo-1-(3-pyridinyl)-, hydrobromide (1:1)", "Ethanone, 2-bromo-1-(3-pyridinyl)-, hydrobromide (1:1)", "Ketone, bromomethyl 3-pyridyl, hydrobromide", "Ethanone, 2-bromo-1-(3-pyridinyl)-, hydrobromide", "3-(2-Bromoacetyl)pyridine hydrobromide", "3-(Bromoacetyl)pyridine hydrobromide", "2-Bromo-1-(3-pyridinyl)-1-ethanone hydrobromide", "2-Bromo-1-pyridin-3-ylethanone hydrobromide", "2-Bromo-1-(3-pyridyl)ethanone hydrobromide"], "SMILES": "C(CBr)(=O)C=1C=CC=NC1.Br", "physical_data": {"Molecular Weight": "", "Molecular Formula": "C7H6BrNO.BrH", "Melting Point": "198 \u00b0C"}}