{"cas_no": "1769-24-0", "cn_name": "2-\u7532\u57fa-4-[3H]\u55b9\u5511\u5549\u916e", "en_name": ["2-Methyl-4(3H)-quinazolinone", "4(3H)-Quinazolinone, 2-methyl-", "4(1H)-Quinazolinone, 2-methyl-", "4-Quinazolinol, 2-methyl-", "2-Methyl-4(3H)-quinazolinone", "2-Methyl-4-quinazolone", "2-Methylquinazolone", "2-Methyl-4-quinazolinone", "2-Methyl-4(3H)-quinazolone", "2-Methyl-4-oxoquinazoline", "3H-2-Methyl-4-oxoquinazoline", "4-Hydroxy-2-methylquinazoline", "2-Methyl-4-quinazolinol", "NSC 12005", "NSC 2757", "2-Methyl-3H-quinazolin-4-one", "2-Methyl-3,4-dihydroquinazolin-4-one"], "SMILES": "O=C1C=2C(NC(C)=N1)=CC=CC2", "physical_data": {"Molecular Weight": "160.17", "Molecular Formula": "C9H8N2O", "Melting Point": "239-241 \u00b0C"}}