{"cas_no": "17695-46-4", "cn_name": "\u4e01\u9178-4-\u7532\u57fa\u4f1e\u5f62\u916e", "en_name": ["4-Methylumbelliferone butyrate", "Butanoic acid, 4-methyl-2-oxo-2H-1-benzopyran-7-yl ester", "Butyric acid, ester with 7-hydroxy-4-methylcoumarin", "Coumarin, 7-hydroxy-4-methyl-, butyrate", "Butyryl 4-methylumbelliferone", "4-Methylumbelliferone butyrate", "NSC 152103", "NSC 688808", "Butyric acid 4-methyl-2-oxo-2H-chromen-7-yl ester", "Methylumbelliferyl butyrate", "(4-Methyl-2-oxochromen-7-yl) butanoate"], "SMILES": "CC=1C=2C(=CC(OC(CCC)=O)=CC2)OC(=O)C1", "physical_data": {"Molecular Weight": "246.26", "Molecular Formula": "C14H14O4", "Melting Point": "94 \u00b0C"}}