{"cas_no": "176969-34-9", "cn_name": "3 - (\u4e8c\u6c1f\u7532\u57fa)- 1 -\u7532\u57fa- 1H-\u5421\u5511-4 - \u7fa7\u9178", "en_name": ["3-(Difluoromethyl)-1-methyl-1H-pyrazole-4-carboxylic acid", "1H-Pyrazole-4-carboxylic acid, 3-(difluoromethyl)-1-methyl-", "3-(Difluoromethyl)-1-methyl-1H-pyrazole-4-carboxylic acid", "3-Difluoromethyl-1-methyl-1H-pyrazole-4-carboxylic acid", "3-Difluoromethyl-1-methylpyrazole-4-carboxylic acid", "3-Difluoromethyl-1-methyl-1H-pyrazol-4-carboxylic acid", "1-Methyl-3-(difluoromethyl)pyrazole-4-carboxylic acid", "3-(Difluoromethyl)-1-methyl-7H-pyrazole-4-carboxylic acid", "1-Methyl-3-(difluoromethyl)-1H-pyrazole-4-carboxylic acid"], "SMILES": "C(O)(=O)C=1C(C(F)F)=NN(C)C1", "physical_data": {"Molecular Weight": "176.12", "Molecular Formula": "C6H6F2N2O2", "Melting Point": "200-201 \u00b0C"}}