{"cas_no": "17696-11-6", "cn_name": "8-\u6eb4\u8f9b\u9178", "en_name": ["8-Bromooctanoic acid", "Octanoic acid, 8-bromo-", "Caprylic acid, \u03b7-bromo-", "8-Bromooctanoic acid", "8-Bromocaprylic acid", "\u03c9-Bromooctanoic acid"], "SMILES": "C(CCCCBr)CCC(O)=O", "physical_data": {"Molecular Weight": "223.11", "Molecular Formula": "C8H15BrO2", "Boiling Point": "147-150 \u00b0C @ Press: 2 Torr", "Melting Point": "38.5 \u00b0C"}}