{"cas_no": "17692-31-8", "cn_name": "\u7f9f\u4e19\u54cc\u55ea", "en_name": ["(\u00b1)-Dropropizine", "1,2-Propanediol, 3-(4-phenyl-1-piperazinyl)-", "3-(4-Phenyl-1-piperazinyl)-1,2-propanediol", "Dropropizine", "Dopropizin", "Larylin", "Catabex", "Katril", "Ribex", "Tussilex", "U.C.B. 1967", "Ditustat", "(\u00b1)-Dropropizine"], "SMILES": "C(C(CO)O)N1CCN(CC1)C2=CC=CC=C2", "physical_data": {"Molecular Weight": "236.31", "Molecular Formula": "C13H20N2O2", "Boiling Point": "205 \u00b0C @ Press: 1 Torr", "Melting Point": "105 \u00b0C"}}