{"cas_no": "17697-12-0", "cn_name": "\u82ef\u4e9a\u7852\u9178\u9150", "en_name": ["Phenylseleninyl benzeneseleninate", "Benzeneseleninic acid, phenylseleninyl ester", "Benzeneseleninic acid, anhydride", "Benzeneseleninic anhydride", "Phenylseleninyl benzeneseleninate", "Diphenylseleninic anhydride", "Phenylseleninic anhydride"], "SMILES": "[Se](O[Se](=O)C1=CC=CC=C1)(=O)C2=CC=CC=C2", "physical_data": {"Molecular Weight": "360.13", "Molecular Formula": "C12H10O3Se2", "Melting Point": "165 \u00b0C"}}