{"cas_no": "17696-62-7", "cn_name": "4-\u7f9f\u57fa\u82ef\u7532\u9178\u82ef\u916f", "en_name": ["Phenyl 4-hydroxybenzoate", "Benzoic acid, 4-hydroxy-, phenyl ester", "Benzoic acid, p-hydroxy-, phenyl ester", "Phenyl p-hydroxybenzoate", "4-(Phenoxycarbonyl)phenol", "p-Hydroxybenzoic acid phenyl ester", "Phenyl 4-hydroxybenzoate", "4-Hydroxybenzoic acid phenyl ester"], "SMILES": "C(OC1=CC=CC=C1)(=O)C2=CC=C(O)C=C2", "physical_data": {"Molecular Weight": "214.22", "Molecular Formula": "C13H10O3", "Melting Point": "170-174 \u00b0C"}}