{"cas_no": "17692-51-2", "cn_name": "\u7532\u9ea6\u89d2\u6797", "en_name": ["Metergoline", "Carbamic acid, N-[[(8\u03b2)-1,6-dimethylergolin-8-yl]methyl]-, phenylmethyl ester", "Carbamic acid, [(1,6-dimethylergolin-8\u03b2-yl)methyl]-, benzyl ester", "Carbamic acid, [[(8\u03b2)-1,6-dimethylergolin-8-yl]methyl]-, phenylmethyl ester", "Lysergamine, N-carboxy-9,10-dihydro-1-methyl-, benzyl ester", "Indolo[4,3-fg]quinoline, carbamic acid deriv.", "Ergoline, carbamic acid deriv.", "(+)-N-Carboxy-1-methyl-9,10-dihydrolysergamide benzyl ester", "Metergoline", "8\u03b2-Carbobenzyloxyaminomethyl-1,6-dimethyl-10\u03b1-ergoline", "Methergoline", "AHR 3009", "D-8\u03b2-[(Carbobenzoxyamino)methyl]-1,6-dimethyl-10\u03b1-ergoline", "D-N-Carbobenzoxydihydro-1-methyllysergamine I", "D-8\u03b2-[(Carboxyamino)methyl]-1,6-dimethylergoline I benzyl ester", "D-N-Carboxydihydro-1-methyllysergamine I benzyl ester", "D-[(4,6,6a,7,8,9,10,10a-Octahydro-4,7-dimethyl-10a\u03b1-indolo[4,3-fg]quinolin-9\u03b2-yl)methyl]carbamic acid benzyl ester", "Liserdol", "Metergolin", "MCE", "Contralac", "FI 6337", "MeSH ID: D008711"], "SMILES": "CN1C2=C3C(C4C(CC3=C1)N(C)CC(CNC(OCC5=CC=CC=C5)=O)C4)=CC=C2", "physical_data": {"Molecular Weight": "403.52", "Molecular Formula": "C25H29N3O2", "Melting Point": "146-149 \u00b0C"}}