{"cas_no": "17695-48-6", "cn_name": "4-\u7532\u57fa\u4f1e\u5f62\u57fa\u68d5\u6988\u9178\u916f", "en_name": ["4-Methylumbelliferyl palmitate", "Hexadecanoic acid, 4-methyl-2-oxo-2H-1-benzopyran-7-yl ester", "Palmitic acid, ester with 7-hydroxy-4-methylcoumarin", "Coumarin, 7-hydroxy-4-methyl-, palmitate", "Palmitoyl 4-methylumbelliferone", "4-Methylumbelliferyl palmitate", "4-Methylumbelliferone palmitate"], "SMILES": "CC=1C=2C(=CC(OC(CCCCCCCCCCCCCCC)=O)=CC2)OC(=O)C1", "physical_data": {"Molecular Weight": "414.58", "Molecular Formula": "C26H38O4", "Melting Point": "63 \u00b0C"}}