{"cas_no": "177-11-7", "cn_name": "4-\u54cc\u5576\u916e\u7f29\u4e59\u4e8c\u9187", "en_name": ["1,4-Dioxa-8-azaspiro[4.5]decane", "1,4-Dioxa-8-azaspiro[4.5]decane", "4-Piperidinone, cyclic 1,2-ethanediyl acetal", "4-Piperidone ethylene acetal", "4,4-(Ethylenedioxy)piperidine", "4-Piperidone ethylene ketal", "Piperidin-4-one ethylene ketal", "8-Aza-1,4-dioxaspiro[4.5]decane", "4-Piperidinone ethylene acetal", "Piperidin-4-one monoethylene ketal"], "SMILES": "C12(CCNCC1)OCCO2", "physical_data": {"Molecular Weight": "143.18", "Molecular Formula": "C7H13NO2", "Boiling Point": "108-110 \u00b0C @ Press: 26 Torr"}}