{"cas_no": "177-10-6", "cn_name": "1,4-\u4e8c\u6c27\u87ba\u73af[4,5]\u7678\u70f7", "en_name": ["1,4-Dioxaspiro[4.5]decane", "1,4-Dioxaspiro[4.5]decane", "Spiro[cyclohexane-1,2\u2032-[1,3]dioxolane]", "Cyclohexanone ethylene ketal", "(Ethylenedioxy)cyclohexane", "2,2-(Pentamethylene)-1,3-dioxolane", "NSC 87562"], "SMILES": "C12(CCCCC1)OCCO2", "physical_data": {"Molecular Weight": "142.20", "Molecular Formula": "C8H14O2", "Boiling Point": "82-83 \u00b0C @ Press: 24 Torr", "Melting Point": "176-180 \u00b0C", "Density": "0.980 g/cm\u00b3 @ Temp: 30 \u00b0C"}}