{"cas_no": "17700-09-3", "cn_name": "2,3,4-\u4e09\u6c2f\u785d\u57fa\u82ef", "en_name": ["2,3,4-Trichloronitrobenzene", "Benzene, 1,2,3-trichloro-4-nitro-", "1,2,3-Trichloro-4-nitrobenzene", "2,3,4-Trichloro-1-nitrobenzene", "2,3,4-Trichloronitrobenzene", "NSC 91490"], "SMILES": "N(=O)(=O)C1=C(Cl)C(Cl)=C(Cl)C=C1", "physical_data": {"Molecular Weight": "226.44", "Molecular Formula": "C6H2Cl3NO2", "Melting Point": "55-56 \u00b0C"}}