{"cas_no": "17704-22-2", "cn_name": "\u4e94\u7532\u57fa\u4e94\u4e59\u70ef\u57fa\u73af\u4e94\u7845\u6c27\u70f7", "en_name": ["2,4,6,8,10-Pentaethenyl-2,4,6,8,10-pentamethylcyclopentasiloxane", "Cyclopentasiloxane, 2,4,6,8,10-pentaethenyl-2,4,6,8,10-pentamethyl-", "Cyclopentasiloxane, 2,4,6,8,10-pentamethyl-2,4,6,8,10-pentavinyl-", "2,4,6,8,10-Pentaethenyl-2,4,6,8,10-pentamethylcyclopentasiloxane", "1,3,5,7,9-Pentamethyl-1,3,5,7,9-pentavinylcyclopentasiloxane", "2,4,6,8,10-Pentamethyl-2,4,6,8,10-pentavinylcyclopentasiloxane", "1,3,5,7,9-Pentavinyl-1,3,5,7,9-pentamethylcyclopentasiloxane", "Pentavinylpentamethylcyclopentasiloxane"], "SMILES": "C(=C)[Si]1(C)O[Si](C=C)(C)O[Si](C=C)(C)O[Si](C=C)(C)O[Si](C=C)(C)O1", "physical_data": {"Molecular Weight": "430.82", "Molecular Formula": "C15H30O5Si5", "Boiling Point": "261-262 \u00b0C", "Melting Point": "-140 \u00b0C", "Density": "0.994 g/cm\u00b3"}}