{"cas_no": "17701-76-7", "cn_name": "\u5f02\u786b\u6c30\u9178\u53d4\u8f9b\u916f", "en_name": ["2-Isothiocyanato-2,4,4-trimethylpentane", "Pentane, 2-isothiocyanato-2,4,4-trimethyl-", "Isothiocyanic acid, 1,1,3,3-tetramethylbutyl ester", "2-Isothiocyanato-2,4,4-trimethylpentane", "2-(Isothiocyanato)-2,4,4-trimethylpentane", "NSC 65473"], "SMILES": "C(C(N=C=S)(C)C)C(C)(C)C", "physical_data": {"Molecular Weight": "171.30", "Molecular Formula": "C9H17NS", "Boiling Point": "91-97 \u00b0C @ Press: 10 Torr", "Density": "0.91 g/cm\u00b3 @ Temp: 25 \u00b0C"}}