{"cas_no": "17700-54-8", "cn_name": "2,6-\u4e8c\u6c2f\u4e59\u9170\u82ef\u80fa", "en_name": ["N-(2,6-Dichlorophenyl)acetamide", "Acetamide, N-(2,6-dichlorophenyl)-", "Acetanilide, 2\u2032,6\u2032-dichloro-", "N-(2,6-Dichlorophenyl)acetamide", "2\u2032,6\u2032-Dichloroacetanilide", "N-Acetyl-2,6-dichloroaniline", "NSC 158653"], "SMILES": "N(C(C)=O)C1=C(Cl)C=CC=C1Cl", "physical_data": {"Molecular Weight": "204.05", "Molecular Formula": "C8H7Cl2NO", "Melting Point": "169-173 \u00b0C"}}