{"cas_no": "1770-80-5", "cn_name": "\u6c2f\u83cc\u9178\u4e8c\u4e01\u916f", "en_name": ["Dibutyl chlorendate", "Bicyclo[2.2.1]hept-5-ene-2,3-dicarboxylic acid, 1,4,5,6,7,7-hexachloro-, 2,3-dibutyl ester", "5-Norbornene-2,3-dicarboxylic acid, 1,4,5,6,7,7-hexachloro-, dibutyl ester", "Bicyclo[2.2.1]hept-5-ene-2,3-dicarboxylic acid, 1,4,5,6,7,7-hexachloro-, dibutyl ester", "Chlorendic acid dibutyl ester", "Dibutyl chlorendate", "NSC 5261"], "SMILES": "ClC12C(C(OCCCC)=O)C(C(OCCCC)=O)C(Cl)(C1(Cl)Cl)C(Cl)=C2Cl", "physical_data": {"Molecular Weight": "501.06", "Molecular Formula": "C17H20Cl6O4", "Boiling Point": "218 \u00b0C @ Press: 4 Torr"}}