{"cas_no": "17702-41-9", "cn_name": "\u7678\u787c\u70f7", "en_name": ["Decaborane", "Decaborane(14)", "Decaborane (B10H14)", "Tetradecahydrodecaborane", "nido-Decaborane(14)", "Decaborane", "Boron hydride (B10H14)", "NSC 39828"], "SMILES": "[BH]1234[BH]567[BH]189[BH]2%10%11[BH]3%12%13[BH]45%14[BH]6%15([BH]78%16[BH]9%10([H]%11)[H]%16)[BH]%14%12([H]%13)[H]%15", "physical_data": {"Molecular Weight": "112.14", "Molecular Formula": "B10H14", "Boiling Point": "213 \u00b0C", "Melting Point": "99.5 \u00b0C", "Density": "0.9 g/cm\u00b3"}}