{"cas_no": "1771-18-2", "cn_name": "2-\u7532\u6c27\u57fa\u5429\u567b\u55ea", "en_name": ["2-Methoxy-10H-phenothiazine", "10H-Phenothiazine, 2-methoxy-", "Phenothiazine, 2-methoxy-", "2-Methoxy-10H-phenothiazine", "2-Methoxyphenothiazine", "NSC 72107", "MP-H"], "SMILES": "O(C)C=1C=C2C(SC=3C(N2)=CC=CC3)=CC1", "physical_data": {"Molecular Weight": "229.30", "Molecular Formula": "C13H11NOS", "Melting Point": "184.5 \u00b0C"}}