{"cas_no": "17715-70-7", "cn_name": "2,4-\u4e8c\u7532\u6c27\u57fa-1-\u6c1f\u82ef", "en_name": ["1-Fluoro-2,4-dimethoxybenzene", "Benzene, 1-fluoro-2,4-dimethoxy-", "1-Fluoro-2,4-dimethoxybenzene", "2,4-Dimethoxyfluorobenzene", "1,3-Dimethoxy-4-fluorobenzene", "4-Fluoro-1,3-dimethoxybenzene", "2,4-Dimethoxy-1-fluorobenzene"], "SMILES": "O(C)C1=CC(OC)=CC=C1F", "physical_data": {"Molecular Weight": "156.15", "Molecular Formula": "C8H9FO2", "Boiling Point": "210 \u00b0C @ Press: 760 Torr"}}