{"cas_no": "17719-89-0", "cn_name": "AP-237", "en_name": ["Bucinnazine", "1-Butanone, 1-[4-(3-phenyl-2-propen-1-yl)-1-piperazinyl]-", "Piperazine, 1-butyryl-4-cinnamyl-", "Piperazine, 1-(1-oxobutyl)-4-(3-phenyl-2-propenyl)-", "1-[4-(3-Phenyl-2-propen-1-yl)-1-piperazinyl]-1-butanone", "1-Butyryl-4-cinnamylpiperazine", "Bucinnazine", "Bucinperazine"], "SMILES": "C(C=CC1=CC=CC=C1)N2CCN(C(CCC)=O)CC2", "physical_data": {"Molecular Weight": "272.39", "Molecular Formula": "C17H24N2O", "Boiling Point": "184-185 \u00b0C @ Press: 0.19 Torr"}}