{"cas_no": "17715-00-3", "cn_name": "3-\u73af\u5df1\u57fa\u4e19\u7094", "en_name": ["2-Propyn-1-ylcyclohexane", "Cyclohexane, 2-propyn-1-yl-", "Cyclohexane, 2-propynyl-", "Propyne, 3-cyclohexyl-", "2-Propyn-1-ylcyclohexane", "3-Cyclohexyl-1-propyne", "2-Propynylcyclohexane", "Propargylcyclohexane", "3-Cyclohexylpropyne", "1-Prop-2-ynylcyclohexane"], "SMILES": "C(C#C)C1CCCCC1", "physical_data": {"Molecular Weight": "122.21", "Molecular Formula": "C9H14", "Boiling Point": "157.5 \u00b0C", "Density": "0.836 g/cm\u00b3 @ Temp: 20 \u00b0C"}}