{"cas_no": "17715-69-4", "cn_name": "2,4-\u4e8c\u7532\u6c27\u57fa\u6eb4\u82ef", "en_name": ["1-Bromo-2,4-dimethoxybenzene", "Benzene, 1-bromo-2,4-dimethoxy-", "1-Bromo-2,4-dimethoxybenzene", "4-Bromoresorcinol dimethyl ether", "2,4-Dimethoxyphenyl bromide", "4-Bromo-1,3-dimethoxybenzene", "2,4-Dimethoxybromobenzene", "1,3-Dimethoxy-4-bromobenzene", "4-Bromo-3-methoxyanisole", "2,4-Dimethoxy-1-bromobenzene"], "SMILES": "O(C)C1=CC(OC)=CC=C1Br", "physical_data": {"Molecular Weight": "217.06", "Molecular Formula": "C8H9BrO2", "Boiling Point": "158-159 \u00b0C @ Press: 30 Torr", "Melting Point": "24-26 \u00b0C"}}