{"cas_no": "177171-16-3", "cn_name": "3-(\u4e09\u7532\u57fa\u7845\u70f7)\u82ef\u787c\u9178", "en_name": ["3-(Trimethylsilyl)phenylboronic acid", "Boronic acid, B-[3-(trimethylsilyl)phenyl]-", "Boronic acid, [3-(trimethylsilyl)phenyl]-", "B-[3-(Trimethylsilyl)phenyl]boronic acid", "3-(Trimethylsilyl)phenylboronic acid", "m-(Trimethylsilyl)phenylboronic acid"], "SMILES": "[Si](C)(C)(C)C1=CC(B(O)O)=CC=C1", "physical_data": {"Molecular Weight": "194.11", "Molecular Formula": "C9H15BO2Si", "Melting Point": "138-140 \u00b0C"}}