{"cas_no": "17720-63-7", "cn_name": "N,N,O-\u4e09\u4e59\u9170\u57fa\u7f9f\u80fa", "en_name": ["N-Acetyl-N-(acetyloxy)acetamide", "Acetamide, N-acetyl-N-(acetyloxy)-", "Hydroxylamine, triacetyl-", "N-Acetyl-N-(acetyloxy)acetamide", "Triacetylhydroxylamine", "N,N,O-Triacetylhydroxylamine", "N-Acetoxydiacetamide"], "SMILES": "N(OC(C)=O)(C(C)=O)C(C)=O", "physical_data": {"Molecular Weight": "159.14", "Molecular Formula": "C6H9NO4", "Boiling Point": "109-111 \u00b0C @ Press: 14 Torr", "Density": "1.1681 g/cm\u00b3 @ Temp: 20 \u00b0C"}}