{"cas_no": "1772-25-4", "cn_name": "1,3,6-\u5df1\u70f7\u4e09\u8148", "en_name": ["1,3,6-Hexanetricarbonitrile", "1,3,6-Hexanetricarbonitrile", "1,3,6-Tricyanohexane"], "SMILES": "C(CCCC#N)(CCC#N)C#N", "physical_data": {"Molecular Weight": "161.20", "Molecular Formula": "C9H11N3", "Boiling Point": "186-200 \u00b0C @ Press: 0.2 Torr"}}