{"cas_no": "1772-03-8", "cn_name": "2-\u6c28\u57fa-2-\u8131\u6c27-D-\u534a\u4e73\u7cd6\u76d0\u9178\u76d0", "en_name": ["Galactosamine hydrochloride", "D-Galactose, 2-amino-2-deoxy-, hydrochloride (1:1)", "Galactose, 2-amino-2-deoxy-, hydrochloride, D-", "D-Galactose, 2-amino-2-deoxy-, hydrochloride", "Galactosamine hydrochloride", "D-Galactosamine hydrochloride", "2-Amino-2-deoxy-D-galactose hydrochloride", "Chondrosamine hydrochloride"], "SMILES": "C(C(C(CO)O)O)(C(C=O)N)O.Cl", "physical_data": {"Molecular Weight": "", "Molecular Formula": "C6H13NO5.ClH", "Melting Point": "179 \u00b0C"}}