{"cas_no": "17722-17-7", "cn_name": "4'-\u6c2f-2-\u73af\u4e59\u9170\u82ef\u80fa", "en_name": ["N-(4-Chlorophenyl)-2-cyanoacetamide", "Acetamide, N-(4-chlorophenyl)-2-cyano-", "Acetanilide, 4\u2032-chloro-2-cyano-", "N-(4-Chlorophenyl)-2-cyanoacetamide", "4\u2032-Chloro-2-cyanoacetanilide", "Cyanoacetic acid p-chloroanilide", "N-(4-Chlorophenyl)-\u03b1-cyanoacetamide", "p-Chlorocyanoacetanilide", "N-(4-Chlorophenyl)cyanoacetamide", "2-Cyano-N-(4-chlorophenyl)-acetamide"], "SMILES": "N(C(CC#N)=O)C1=CC=C(Cl)C=C1", "physical_data": {"Molecular Weight": "194.62", "Molecular Formula": "C9H7ClN2O", "Melting Point": "204 \u00b0C"}}