{"cas_no": "1772-43-6", "cn_name": "2,4,4-\u4e09\u7532\u57fa-2-\u6076\u5511", "en_name": ["2,4,4-Trimethyl-2-oxazoline", "Oxazole, 4,5-dihydro-2,4,4-trimethyl-", "2-Oxazoline, 2,4,4-trimethyl-", "4,5-Dihydro-2,4,4-trimethyloxazole", "2,4,4-Trimethyl-2-oxazoline", "2,4,4-Trimethyl-1,3-oxazoline", "NSC 107049", "2,4,4-Trimethyl-4,5-dihydro-1,3-oxazole", "2,4,4-Trimethyl-5H-1,3-oxazole"], "SMILES": "CC1(C)N=C(C)OC1", "physical_data": {"Molecular Weight": "113.16", "Molecular Formula": "C6H11NO", "Boiling Point": "112 \u00b0C @ Press: 760 Torr"}}