{"cas_no": "1772-01-6", "cn_name": "2-\u5421\u5576\u57fa\u5055\u80fa\u809f", "en_name": ["N-Hydroxy-2-pyridinecarboximidamide", "2-Pyridinecarboximidamide, N-hydroxy-", "Picolinamidoxime", "N-Hydroxy-2-pyridinecarboximidamide", "2-Pyridylamidoxime", "Picolinic acid amidoxime", "Pyridine-2-amidoxime", "Picolinamide oxime", "2-Pyridinecarboxamidoxime", "N\u2032-Hydroxy-2-pyridinecarboximidamide", "2-Pyridinecarboxamide oxime"], "SMILES": "C(NO)(=N)C1=CC=CC=N1", "physical_data": {"Molecular Weight": "137.14", "Molecular Formula": "C6H7N3O", "Melting Point": "115.5-116 \u00b0C"}}