{"cas_no": "17737-65-4", "cn_name": "\u6c2f\u5c3c\u8f9b", "en_name": ["Clonixin", "3-Pyridinecarboxylic acid, 2-[(3-chloro-2-methylphenyl)amino]-", "Nicotinic acid, 2-(3-chloro-o-toluidino)-", "2-[(3-Chloro-2-methylphenyl)amino]-3-pyridinecarboxylic acid", "2-(3-Chloro-2-methylanilino)nicotinic acid", "Clonixin", "Chlonixin", "2-(2-Methyl-3-chloroanilino)nicotinic acid", "2-(2\u2032-Methyl-3\u2032-chloro)-anilinonicotinic acid", "Sch 10304", "Clonixic acid", "Clonixine", "2-(3-Chloro-2-methylanilino)-3-pyridinecarboxylic acid", "CBA 93626", "NSC 335505"], "SMILES": "N(C1=C(C(O)=O)C=CC=N1)C2=C(C)C(Cl)=CC=C2", "physical_data": {"Molecular Weight": "262.69", "Molecular Formula": "C13H11ClN2O2", "Melting Point": "234 \u00b0C"}}