{"cas_no": "17746-05-3", "cn_name": "\u5341\u4e00\u70f7\u9170\u6c2f", "en_name": ["Undecanoyl chloride", "Undecanoyl chloride", "n-Undecanoyl chloride", "Undecanoic acid chloride", "NSC 83585", "Undecanoic acid, anhydride with carbonochloridic acid"], "SMILES": "C(CCCCCC)CCCC(Cl)=O", "physical_data": {"Molecular Weight": "204.74", "Molecular Formula": "C11H21ClO", "Boiling Point": "90 \u00b0C @ Press: 1.0 Torr"}}