{"cas_no": "17745-04-9", "cn_name": "\u7c73\u8bfa\u81a6\u9178\u4e2d\u95f4\u4f53", "en_name": ["Imidazo[1,2-a]pyridine-3-acetic acid", "Imidazo[1,2-a]pyridine-3-acetic acid", "2-(Imidazolo[1,2-a]pyridin-3-yl)acetic acid", "2-(Imidazo[1,2-a]pyridin-3-yl)acetic acid"], "SMILES": "C(C(O)=O)C=1N2C(=NC1)C=CC=C2", "physical_data": {"Molecular Weight": "176.17", "Molecular Formula": "C9H8N2O2", "Melting Point": "255-256 \u00b0C"}}