{"cas_no": "1774-35-2", "cn_name": "4,4'-\u4e8c\u7532\u82ef\u4e9a\u781c", "en_name": ["1,1\u2032-Sulfinylbis[4-methylbenzene]", "Benzene, 1,1\u2032-sulfinylbis[4-methyl-", "p-Tolyl sulfoxide", "1,1\u2032-Sulfinylbis[4-methylbenzene]", "4,4\u2032-Ditolyl sulfoxide", "Di-p-tolyl sulfoxide", "Bis(4-methylphenyl) sulfoxide", "4,4\u2032-Dimethyldiphenyl sulfoxide", "Di-4-tolyl sulfoxide", "Bis(p-methylphenyl) sulfoxide", "NSC 73128", "4,4\u2032-Sulfinylbis(methylbenzene)", "1-Methyl-4-(4-methylphenyl)sulfinylbenzene"], "SMILES": "S(=O)(C1=CC=C(C)C=C1)C2=CC=C(C)C=C2", "physical_data": {"Molecular Weight": "230.33", "Molecular Formula": "C14H14OS", "Melting Point": "93 \u00b0C"}}