{"cas_no": "1774-36-3", "cn_name": "4,4'-\u4e8c\u7532\u6c27\u57fa\u4e8c\u82ef\u57fa\u6c27\u5316\u786b", "en_name": ["1,1\u2032-Sulfinylbis[4-methoxybenzene]", "Benzene, 1,1\u2032-sulfinylbis[4-methoxy-", "Anisole, 4,4\u2032-sulfinyldi-", "1,1\u2032-Sulfinylbis[4-methoxybenzene]", "Bis(p-methoxyphenyl) sulfoxide", "Bis(4-methoxyphenyl) sulfoxide", "p,p\u2032-Dimethoxydiphenyl sulfoxide", "Di-p-methoxyphenyl sulfoxide", "Di-p-anisyl sulfoxide", "p-Anisyl sulfoxide", "NSC 43074", "NSC 655046", "1-Methoxy-4-(4-methoxyphenyl)sulfinylbenzene", "4,4\u2032-Sulfinyl bis(methoxybenzene)"], "SMILES": "S(=O)(C1=CC=C(OC)C=C1)C2=CC=C(OC)C=C2", "physical_data": {"Molecular Weight": "262.32", "Molecular Formula": "C14H14O3S", "Melting Point": "96 \u00b0C"}}