{"cas_no": "17742-69-7", "cn_name": "2,6-\u4e8c\u6c2f-4-\u785d\u57fa\u82ef\u7532\u919a", "en_name": ["1,3-Dichloro-2-methoxy-5-nitrobenzene", "Benzene, 1,3-dichloro-2-methoxy-5-nitro-", "Anisole, 2,6-dichloro-4-nitro-", "1,3-Dichloro-2-methoxy-5-nitrobenzene", "3,5-Dichloro-4-methoxynitrobenzene", "2,6-Dichloro-4-nitroanisole", "NSC 212118"], "SMILES": "O(C)C1=C(Cl)C=C(N(=O)=O)C=C1Cl", "physical_data": {"Molecular Weight": "222.03", "Molecular Formula": "C7H5Cl2NO3", "Melting Point": "97-98 \u00b0C"}}