{"cas_no": "17747-43-2", "cn_name": "3-\u4e59\u9170\u6c27\u57fa\u5421\u5576", "en_name": ["3-Acetoxypyridine", "3-Pyridinol, 3-acetate", "3-Pyridinol, acetate (ester)", "3-Pyridinol, acetate", "3-Acetoxypyridine", "NSC 273047", "3-Pyridyl acetate"], "SMILES": "O(C(C)=O)C=1C=CC=NC1", "physical_data": {"Molecular Weight": "137.14", "Molecular Formula": "C7H7NO2", "Boiling Point": "92 \u00b0C @ Press: 9 Torr"}}