{"cas_no": "1774-47-6", "cn_name": "\u4e09\u7532\u57fa\u7898\u5316\u4e9a\u781c", "en_name": ["Sulfoxonium, trimethyl-, iodide (1:1)", "Sulfoxonium, trimethyl-, iodide (1:1)", "Sulfoxonium, trimethyl-, iodide", "Trimethylsulfoxonium iodide", "Trimethylsulfonium iodide, oxide", "Trimethyloxosulfonium iodide", "Trimethyloxosulphonium iodide", "S,S,S-Trimethylsulfoxonium iodide", "NSC 71213", "Trimethyl(oxo)-\u03bb6-sulfanylium iodide"], "SMILES": "[S+](C)(C)(C)=O.[I-]", "physical_data": {"Molecular Weight": "", "Molecular Formula": "C3H9OS.I", "Melting Point": "200 \u00b0C"}}