{"cas_no": "17745-45-8", "cn_name": "\u6b63\u4e19\u57fa\u787c\u9178", "en_name": ["B-Propylboronic acid", "Boronic acid, B-propyl-", "1-Propaneboronic acid", "Boronic acid, propyl-", "B-Propylboronic acid", "Propylboronic acid", "Dihydroxy(propyl)boron", "Dihydroxypropylborane", "NSC 518339", "n-Propylboronic acid", "Propan-1-ylboronic acid", "1-Propylboronic acid"], "SMILES": "C(B(O)O)CC", "physical_data": {"Molecular Weight": "87.91", "Molecular Formula": "C3H9BO2", "Melting Point": "107 \u00b0C"}}