{"cas_no": "177406-68-7", "cn_name": "\u82ef\u567b\u83cc\u80fa", "en_name": ["Benthiavalicarb isopropyl", "Carbamic acid, N-[(1S)-1-[[[(1R)-1-(6-fluoro-2-benzothiazolyl)ethyl]amino]carbonyl]-2-methylpropyl]-, 1-methylethyl ester", "Carbamic acid, [1-[[[1-(6-fluoro-2-benzothiazolyl)ethyl]amino]carbonyl]-2-methylpropyl]-, 1-methylethyl ester, [S-(R*,S*)]-", "Carbamic acid, [(1S)-1-[[[(1R)-1-(6-fluoro-2-benzothiazolyl)ethyl]amino]carbonyl]-2-methylpropyl]-, 1-methylethyl ester", "1-Methylethyl [(1S)-1-[[[(1R)-1-(6-fluoro-2-benzothiazolyl)ethyl]amino]carbonyl]-2-methylpropyl]carbamate", "Benthiavalicarb isopropyl", "Bensaijunan"], "SMILES": "C(NC(C(NC(OC(C)C)=O)C(C)C)=O)(C)C=1SC=2C(N1)=CC=C(F)C2", "physical_data": {"Molecular Weight": "381.46", "Molecular Formula": "C18H24FN3O3S", "Melting Point": "152.0 \u00b0C"}}