{"cas_no": "1775-95-7", "cn_name": "2-\u6c28\u57fa-5-\u785d\u57fa\u4e8c\u82ef\u7532\u916e", "en_name": ["2-Amino-5-nitrobenzophenone", "Methanone, (2-amino-5-nitrophenyl)phenyl-", "Benzophenone, 2-amino-5-nitro-", "(2-Amino-5-nitrophenyl)phenylmethanone", "2-Amino-5-nitrobenzophenone", "5-Nitro-2-aminobenzophenone", "Ro 7-19990", "2-Benzoyl-4-nitroaniline"], "SMILES": "C(=O)(C1=CC(N(=O)=O)=CC=C1N)C2=CC=CC=C2", "physical_data": {"Molecular Weight": "242.23", "Molecular Formula": "C13H10N2O3", "Melting Point": "160.1 \u00b0C"}}