{"cas_no": "17754-90-4", "cn_name": "4-(\u4e8c\u4e59\u6c28\u57fa)\u6c34\u6768\u919b", "en_name": ["4-(Diethylamino)-2-hydroxybenzaldehyde", "Benzaldehyde, 4-(diethylamino)-2-hydroxy-", "Salicylaldehyde, 4-(diethylamino)-", "4-(Diethylamino)-2-hydroxybenzaldehyde", "4-(Diethylamino)salicylaldehyde", "p-(Diethylamino)salicylaldehyde", "4-(N,N-Diethylamino)-2-hydroxybenzaldehyde", "4-(N,N-Diethylamino)salicylic aldehyde", "4-(N,N-Diethylamino)salicylaldehyde"], "SMILES": "N(CC)(CC)C1=CC(O)=C(C=O)C=C1", "physical_data": {"Molecular Weight": "193.24", "Molecular Formula": "C11H15NO2", "Melting Point": "227-228 \u00b0C"}}