{"cas_no": "1775-97-9", "cn_name": "\u9ec4\u5361\u74e6\u80e1\u6912\u7d20 B", "en_name": ["Flavokawain B", "2-Propen-1-one, 1-(2-hydroxy-4,6-dimethoxyphenyl)-3-phenyl-, (2E)-", "Chalcone, 2\u2032-hydroxy-4\u2032,6\u2032-dimethoxy-", "2-Propen-1-one, 1-(2-hydroxy-4,6-dimethoxyphenyl)-3-phenyl-, (E)-", "(2E)-1-(2-Hydroxy-4,6-dimethoxyphenyl)-3-phenyl-2-propen-1-one", "Flavokavin B", "(E)-2\u2032-Hydroxy-4\u2032,6\u2032-dimethoxychalcone", "Flavokawain B", "Flavokavain B", "(E)-1-(2-Hydroxy-4,6-dimethoxyphenyl)-3-phenylprop-2-en-1-one", "Persicochalcone", "(E)-2\u2032-Hydroxy-4\u2032,6\u2032-dimethoxychalcone", "(E)-1-(2-Hydroxy-4,6-dimethoxyphenyl)-3-phenylprop-2-en-1-one"], "SMILES": "C(C=CC1=CC=CC=C1)(=O)C2=C(OC)C=C(OC)C=C2O", "physical_data": {"Molecular Weight": "284.31", "Molecular Formula": "C17H16O4", "Melting Point": "178-179 \u00b0C"}}