{"cas_no": "1776-30-3", "cn_name": "2',4'-\u4e8c\u7f9f\u67e5\u8033\u916e", "en_name": ["2\u2032,4\u2032-Dihydroxychalcone", "2-Propen-1-one, 1-(2,4-dihydroxyphenyl)-3-phenyl-", "Chalcone, 2\u2032,4\u2032-dihydroxy-", "1-(2,4-Dihydroxyphenyl)-3-phenyl-2-propen-1-one", "2\u2032,4\u2032-Dihydroxychalcone", "NSC 401492"], "SMILES": "C(C=CC1=CC=CC=C1)(=O)C2=C(O)C=C(O)C=C2", "physical_data": {"Molecular Weight": "240.25", "Molecular Formula": "C15H12O3", "Melting Point": "150 \u00b0C"}}