{"cas_no": "17768-41-1", "cn_name": "1-\u91d1\u521a\u70f7\u7532\u80fa", "en_name": ["Tricyclo[3.3.1.13,7]decane-1-methanamine", "Tricyclo[3.3.1.13,7]decane-1-methanamine", "1-Adamantanemethylamine", "1-(Aminomethyl)adamantane", "1-Adamantylmethylamine", "1-Adamantylmethanamine", "MRZ 2/16", "IEM 1618", "NSC 285231", "[(Adamantan-1-yl)methyl]amine", "1-(1-Adamantyl)methanamine", "Adamantylmethylamine", "(Adamantan-1-yl)methanamine", "Adamantylmethyleneamine"], "SMILES": "C(N)C12CC3CC(C1)CC(C2)C3", "physical_data": {"Molecular Weight": "165.28", "Molecular Formula": "C11H19N", "Boiling Point": "83-85 \u00b0C @ Press: 3 Torr", "Melting Point": "325 \u00b0C", "Density": "0.933 g/cm\u00b3"}}