{"cas_no": "17768-28-4", "cn_name": "1,3-\u91d1\u521a\u70f7\u4e8c\u4e59\u9178", "en_name": ["1,3-Adamantanediacetic acid", "Tricyclo[3.3.1.13,7]decane-1,3-diacetic acid", "1,3-Adamantanediacetic acid", "1,3-Bis(carboxymethyl)adamantane", "2,2\u2032-(Adamantane-1,3-diyl)diacetic acid", "2-[3-(Carboxymethyl)adamantan-1-yl]acetic acid", "2-[3-(Carboxymethyl)-1-adamantyl]acetic acid"], "SMILES": "C(C(O)=O)C12CC3(CC(O)=O)CC(C1)CC(C2)C3", "physical_data": {"Molecular Weight": "252.31", "Molecular Formula": "C14H20O4", "Melting Point": "244-244.5 \u00b0C"}}