{"cas_no": "17764-93-1", "cn_name": "2-\u7f9f\u57fa-5-\u6eb4-1-\u82ef\u57fa\u4e19\u916e", "en_name": ["1-(5-Bromo-2-hydroxyphenyl)-1-propanone", "1-Propanone, 1-(5-bromo-2-hydroxyphenyl)-", "Propiophenone, 5\u2032-bromo-2\u2032-hydroxy-", "1-(5-Bromo-2-hydroxyphenyl)-1-propanone", "5\u2032-Bromo-2\u2032-hydroxypropiophenone", "5-Bromo-2-hydroxypropiophenone", "4-Bromo-2-(propionyl)phenol", "1-(5-Bromo-2-hydroxyphenyl)propan-1-one"], "SMILES": "C(CC)(=O)C1=C(O)C=CC(Br)=C1", "physical_data": {"Molecular Weight": "229.07", "Molecular Formula": "C9H9BrO2", "Boiling Point": "143-153 \u00b0C @ Press: 14 Torr", "Melting Point": "57.3 \u00b0C"}}