{"cas_no": "1776-53-0", "cn_name": "4-\u6c28\u57fa\u73af\u5df1\u7fa7\u9178", "en_name": ["4-Aminocyclohexanecarboxylic acid", "Cyclohexanecarboxylic acid, 4-amino-", "4-Aminocyclohexanecarboxylic acid", "4-Aminocyclohexylcarboxylic acid", "4-Amino-1-cyclohexanecarboxylic acid"], "SMILES": "C(O)(=O)C1CCC(N)CC1", "physical_data": {"Molecular Weight": "143.18", "Molecular Formula": "C7H13NO2", "Melting Point": "260 \u00b0C"}}