{"cas_no": "17766-28-8", "cn_name": "1-\u73af\u5df1\u57fa\u54cc\u55ea", "en_name": ["1-Cyclohexylpiperazine", "Piperazine, 1-cyclohexyl-", "1-Cyclohexylpiperazine", "N-Cyclohexylpiperazine", "4-Cyclohexylpiperazine"], "SMILES": "C1(CCCCC1)N2CCNCC2", "physical_data": {"Molecular Weight": "168.28", "Molecular Formula": "C10H20N2", "Boiling Point": "129-131 \u00b0C @ Press: 12 Torr"}}