{"cas_no": "17760-13-3", "cn_name": "\u4e09\u6c2f\u7532\u57fa\u4e09\u6c2f\u7845\u70f7", "en_name": ["Trichloro(trichloromethyl)silane", "Silane, trichloro(trichloromethyl)-", "Trichloro(trichloromethyl)silane", "(Trichloromethyl)trichlorosilane"], "SMILES": "C([Si](Cl)(Cl)Cl)(Cl)(Cl)Cl", "physical_data": {"Molecular Weight": "252.81", "Molecular Formula": "CCl6Si", "Boiling Point": "155-156 \u00b0C", "Melting Point": "115 \u00b0C"}}