{"cas_no": "1777-82-8", "cn_name": "2,4-\u4e8c\u6c2f\u82c4\u9187", "en_name": ["2,4-Dichlorobenzyl alcohol", "Benzenemethanol, 2,4-dichloro-", "Benzyl alcohol, 2,4-dichloro-", "2,4-Dichlorobenzenemethanol", "2,4-Dichlorobenzyl alcohol", "Dybenal", "Myacide SP", "Rapidosept", "Myacide", "(2,4-Dichlorophenyl)methanol", "NSC 15635"], "SMILES": "C(O)C1=C(Cl)C=C(Cl)C=C1", "physical_data": {"Molecular Weight": "177.03", "Molecular Formula": "C7H6Cl2O", "Boiling Point": "150 \u00b0C @ Press: 25 Torr", "Melting Point": "59.5 \u00b0C"}}