{"cas_no": "17773-10-3", "cn_name": "\u7898\u5316\u80c6\u78b1", "en_name": ["Choline, iodide", "Ethanaminium, 2-hydroxy-N,N,N-trimethyl-, iodide (1:1)", "Choline, iodide", "Ethanaminium, 2-hydroxy-N,N,N-trimethyl-, iodide", "Trimethyl(2-hydroxyethyl)ammonium iodide", "Dilatol Zambon", "2-Hydroxyethyltrimethylammonium iodide"], "SMILES": "C([N+](C)(C)C)CO.[I-]", "physical_data": {"Molecular Weight": "", "Molecular Formula": "C5H14NO.I", "Melting Point": "258 \u00b0C (decomp)"}}