{"cas_no": "1778-02-5", "cn_name": "\u5b55\u70ef\u9187\u916e\u918b\u9178\u916f", "en_name": ["Pregnenolone acetate", "Pregn-5-en-20-one, 3-(acetyloxy)-, (3\u03b2)-", "Pregn-5-en-20-one, 3\u03b2-hydroxy-, acetate", "(3\u03b2)-3-(Acetyloxy)pregn-5-en-20-one", "3\u03b2-Acetoxy-\u03945-pregnen-20-one", "3\u03b2-Acetoxy-5-pregnen-20-one", "Antofin", "Artivis", "Enescorb", "Previsone", "Sharmone", "3\u03b2-Hydroxypregn-5-en-20-one acetate", "Pregnenolone acetate", "5-Pregnen-3\u03b2-ol-20-one acetate", "3-Hydroxypregn-5-en-20-one acetate", "Pregenolone acetate", "Pregnenolone-3-acetate", "NSC 64827", "5-Pregnene-3\u03b2-acetoxy-20-one", "3\u03b2-Pregn-5-enol-20-one acetate", "3-Acetoxy-5-pregnene"], "SMILES": "CC12C(C3C(CC1)C4(C)C(=CC3)CC(OC(C)=O)CC4)CCC2C(C)=O", "physical_data": {"Molecular Weight": "358.51", "Molecular Formula": "C23H34O3", "Melting Point": "148.5-149.5 \u00b0C"}}