{"cas_no": "17789-14-9", "cn_name": "2-(3-\u6eb4\u82ef\u57fa)-1,3-\u4e8c\u6c27\u70f7", "en_name": ["2-(3-Bromophenyl)-1,3-dioxolane", "1,3-Dioxolane, 2-(3-bromophenyl)-", "1,3-Dioxolane, 2-(m-bromophenyl)-", "2-(3-Bromophenyl)-1,3-dioxolane", "m-Bromobenzaldehyde ethylene acetal", "2-(3-Bromophenyl)dioxolane", "3-Bromobenzaldehyde ethylene acetal", "3-(1,3-Dioxolan-2-yl)phenyl bromide"], "SMILES": "BrC=1C=C(C=CC1)C2OCCO2", "physical_data": {"Molecular Weight": "229.07", "Molecular Formula": "C9H9BrO2", "Boiling Point": "132.5 \u00b0C", "Density": "1.5137 g/cm\u00b3 @ Temp: 20 \u00b0C"}}