{"cas_no": "1778-09-2", "cn_name": "4-\u7532\u786b\u57fa\u82ef\u4e59\u916e", "en_name": ["1-[4-(Methylthio)phenyl]ethanone", "Ethanone, 1-[4-(methylthio)phenyl]-", "Acetophenone, 4\u2032-(methylthio)-", "1-[4-(Methylthio)phenyl]ethanone", "p-(Methylmercapto)acetophenone", "4\u2032-(Methylmercapto)acetophenone", "p-(Methylthio)acetophenone", "4\u2032-(Methylthio)acetophenone", "p-Acetylphenyl methyl sulfide", "4-Acetylthioanisole", "Methyl p-acetylphenyl sulfide", "p-Acetylthioanisole", "Methyl 4-(methylthio)phenyl ketone", "4-Acetylphenyl methyl sulfide", "NSC 403927", "1-(4-Methylsulfanylphenyl)ethanone", "4-(Methylsulfenyl)acetophenone", "1-Acetyl-4-(methylthio)benzene", "1-[4-(Methylsulfanyl)phenyl]ethan-1-one", "1-(4-(Methylthio)phenyl)ethan-1-one"], "SMILES": "C(C)(=O)C1=CC=C(SC)C=C1", "physical_data": {"Molecular Weight": "166.24", "Molecular Formula": "C9H10OS", "Boiling Point": "170 \u00b0C @ Press: 10 Torr", "Melting Point": "79-80 \u00b0C"}}