{"cas_no": "177995-40-3", "cn_name": "4-\u7532\u6c27\u57fa-1,2-\u82ef\u5e76\u5f02\u6076\u5511-3-\u80fa", "en_name": ["4-Methoxy-1,2-benzisoxazol-3-amine", "1,2-Benzisoxazol-3-amine, 4-methoxy-", "4-Methoxy-1,2-benzisoxazol-3-amine", "3-Amino-4-methoxybenzo[d]isoxazole"], "SMILES": "O(C)C1=C2C(ON=C2N)=CC=C1", "physical_data": {"Molecular Weight": "164.16", "Molecular Formula": "C8H8N2O2", "Melting Point": "141-142 \u00b0C"}}