{"cas_no": "1779-48-2", "cn_name": "\u82ef\u81a6\u9178", "en_name": ["Phenylphosphinic acid", "Phosphinic acid, P-phenyl-", "Phosphinic acid, phenyl-", "P-Phenylphosphinic acid", "Benzenephosphinic acid", "Phenylphosphinic acid", "Phenylphosphonous acid", "Benzenephosphonous acid", "Hydroxyphenylphosphine oxide", "NSC 2670"], "SMILES": "P(=O)(O)C1=CC=CC=C1", "physical_data": {"Molecular Weight": "142.09", "Molecular Formula": "C6H7O2P", "Melting Point": "84 \u00b0C"}}