{"cas_no": "1779-58-4", "cn_name": "\u7532\u6c27\u7532\u9170\u57fa\u7532\u57fa\u4e09\u82ef\u57fa\u6eb4\u5316\u81a6", "en_name": ["Phosphonium, (2-methoxy-2-oxoethyl)triphenyl-, bromide (1:1)", "Phosphonium, (2-methoxy-2-oxoethyl)triphenyl-, bromide (1:1)", "Phosphonium, (carboxymethyl)triphenyl-, bromide, methyl ester", "Phosphonium, (2-methoxy-2-oxoethyl)triphenyl-, bromide", "(Carboxymethyl)triphenylphosphonium bromide, methyl ester", "[(Methoxycarbonyl)methyl]triphenylphosphonium bromide", "Carbomethoxymethyltriphenylphosphonium bromide", "(2-Methoxy-2-oxoethyl)triphenylphosphonium bromide", "NSC 136109"], "SMILES": "[P+](CC(OC)=O)(C1=CC=CC=C1)(C2=CC=CC=C2)C3=CC=CC=C3.[Br-]", "physical_data": {"Molecular Weight": "", "Molecular Formula": "C21H20O2P.Br", "Melting Point": "145-155 \u00b0C (decomp)"}}