{"cas_no": "1779-49-3", "cn_name": "\u7532\u57fa\u4e09\u82ef\u57fa\u6eb4\u5316\u81a6", "en_name": ["Methyltriphenylphosphonium bromide", "Phosphonium, methyltriphenyl-, bromide (1:1)", "Methyltriphenylphosphonium bromide", "Phosphonium, methyltriphenyl-, bromide", "Triphenylmethylphosphonium bromide", "Triphenylphosphonium methylbromide", "Triphenylphosphonium methobromide", "MTPPB", "M 0779", "Methyltriphenyliphosphonium bromide", "MePPh3Br"], "SMILES": "[P+](C)(C1=CC=CC=C1)(C2=CC=CC=C2)C3=CC=CC=C3.[Br-]", "physical_data": {"Molecular Weight": "", "Molecular Formula": "C19H18P.Br", "Melting Point": "229-232 \u00b0C"}}