{"cas_no": "1779-10-8", "cn_name": "1,6-\u4e8c\u6eb4-2-\u7f9f\u57fa\u8418-3-\u7fa7\u9178", "en_name": ["4,7-Dibromo-3-hydroxy-2-naphthalenecarboxylic acid", "2-Naphthalenecarboxylic acid, 4,7-dibromo-3-hydroxy-", "2-Naphthoic acid, 4,7-dibromo-3-hydroxy-", "4,7-Dibromo-3-hydroxy-2-naphthalenecarboxylic acid", "4,7-Dibromo-3-hydroxy-2-naphthoic acid", "NSC 50642", "NSC 8508", "1,6-Dibromo-2-hydroxynaphthalene-3-carboxylicacid"], "SMILES": "BrC=1C2=C(C=C(C(O)=O)C1O)C=C(Br)C=C2", "physical_data": {"Molecular Weight": "345.97", "Molecular Formula": "C11H6Br2O3", "Melting Point": "251 \u00b0C"}}