{"cas_no": "1779-60-8", "cn_name": "\u4e59\u9170\u4e59\u9178\u6b63\u4e19\u916f", "en_name": ["Propyl acetoacetate", "Butanoic acid, 3-oxo-, propyl ester", "Acetoacetic acid, propyl ester", "Propyl acetoacetate", "Propyl 3-oxobutanoate", "NSC 42862", "n-Propyl acetoacetate"], "SMILES": "C(C(OCCC)=O)C(C)=O", "physical_data": {"Molecular Weight": "144.17", "Molecular Formula": "C7H12O3", "Boiling Point": "78 \u00b0C @ Press: 11 Torr", "Melting Point": "158-160 \u00b0C", "Density": "0.9959 g/cm\u00b3 @ Temp: 25 \u00b0C"}}