{"cas_no": "17796-82-6", "cn_name": "N-\u73af\u5df1\u57fa\u786b\u4ee3\u90bb\u82ef\u4e8c\u7532\u9170\u4e9a\u80fa", "en_name": ["2-(Cyclohexylthio)-1H-isoindole-1,3(2H)-dione", "1H-Isoindole-1,3(2H)-dione, 2-(cyclohexylthio)-", "Phthalimide, N-(cyclohexylthio)-", "2-(Cyclohexylthio)-1H-isoindole-1,3(2H)-dione", "N-(Cyclohexylthio)phthalimide", "Santogard PVI", "N-Cyclohexylsulfenylphthalimide", "Santogard PVI-DS", "Duslin P", "Vulkalent G", "Retarder CTP", "Accitard RE", "Duslin PP", "Rhenogran CPT 80", "CTP", "CTP (chinese inhibitor)", "2-(Cyclohexylthio)isoindoline-1,3-dione", "PVI", "Anscorch CTP", "Vulkalent P", "Pilgard PVI", "CTP-PVI", "2-Cyclohexylsulfanylisoindole-1,3-dione", "2-(Cyclohexylsulfanyl)-2,3-dihydro-1H-isoindole-1,3-dione", "SF 205", "CTP 80 (rubber additive)", "CTP 80"], "SMILES": "O=C1C=2C(C(=O)N1SC3CCCCC3)=CC=CC2", "physical_data": {"Molecular Weight": "261.34", "Molecular Formula": "C14H15NO2S", "Melting Point": "93-94 \u00b0C"}}