{"cas_no": "1779-25-5", "cn_name": "\u4e8c\u5f02\u4e01\u57fa\u6c2f\u5316\u94dd", "en_name": ["Chlorobis(2-methylpropyl)aluminum", "Aluminum, chlorobis(2-methylpropyl)-", "Aluminum, chlorodiisobutyl-", "Diisobutylaluminum chloride", "Chlorobis(2-methylpropyl)aluminum", "Diisobutylaluminum monochloride", "Chlorodiisobutylaluminum", "Diisobutylchloroaluminum", "Bis(isobutyl)aluminum chloride", "Diisobutylaluminium chloride"], "SMILES": "C([Al](CC(C)C)Cl)C(C)C", "physical_data": {"Molecular Weight": "", "Molecular Formula": "C8H18AlCl", "Boiling Point": "108 \u00b0C @ Press: 0.98 Torr", "Melting Point": "-40 \u00b0C", "Density": "0.9118 g/cm\u00b3 @ Temp: 25 \u00b0C"}}