{"cas_no": "1779-54-0", "cn_name": "(\u7532\u786b\u57fa\u7532\u57fa)\u4e09\u82ef\u57fa\u6c2f\u5316\u93fb", "en_name": ["Phosphonium, [(methylthio)methyl]triphenyl-, chloride (1:1)", "Phosphonium, [(methylthio)methyl]triphenyl-, chloride (1:1)", "Phosphonium, [(methylthio)methyl]triphenyl-, chloride", "[(Methylthio)methyl]triphenylphosphonium chloride"], "SMILES": "[P+](CSC)(C1=CC=CC=C1)(C2=CC=CC=C2)C3=CC=CC=C3.[Cl-]", "physical_data": {"Molecular Weight": "", "Molecular Formula": "C20H20PS.Cl", "Melting Point": "220-222 \u00b0C"}}