{"cas_no": "1779-51-7", "cn_name": "\u4e09\u82ef\u57fa\u4e01\u57fa\u6eb4\u5316\u81a6", "en_name": ["Butyltriphenylphosphonium bromide", "Phosphonium, butyltriphenyl-, bromide (1:1)", "Phosphonium, butyltriphenyl-, bromide", "Butyltriphenylphosphonium bromide", "Triphenylbutylphosphonium bromide", "n-Butyltriphenylphosphonium bromide", "Butyl bromide triphenylphosphine salt", "NSC 59684", "BTPPBr", "Hishicolin BTPPBr", "B 0970"], "SMILES": "[P+](CCCC)(C1=CC=CC=C1)(C2=CC=CC=C2)C3=CC=CC=C3.[Br-]", "physical_data": {"Molecular Weight": "", "Molecular Formula": "C22H24P.Br", "Melting Point": "235 \u00b0C"}}