{"cas_no": "1779-81-3", "cn_name": "2-\u6c28\u57fa-2-\u567b\u5511\u5549", "en_name": ["4,5-Dihydro-2-thiazolamine", "2-Thiazolamine, 4,5-dihydro-", "2-Thiazoline, 2-amino-", "Thiazolidine, 2-imino-", "4,5-Dihydro-2-thiazolamine", "2-Thiazolidinimine", "2-Iminothiazolidine", "2-Amino-2-thiazoline", "2-Amino-\u03942-thiazoline", "2-Aminothiazoline", "2-Amino-4,5-dihydrothiazole", "2-Thiazolin-2-amine", "2-Amino-4,5-dihydro-1,3-thiazole", "Camfazolinum", "NSC 24626", "NSC 3110", "4,5-Dihydro-1,3-thiazol-2-amine", "4,5-Dihydrothiazol-2-amine", "4,5-Dihydrothiazol-2-ylamine"], "SMILES": "NC1=NCCS1", "physical_data": {"Molecular Weight": "102.16", "Molecular Formula": "C3H6N2S", "Melting Point": "85.3 \u00b0C"}}