{"cas_no": "1779-11-9", "cn_name": "3-\u7f9f\u57fa-7-\u6eb4-2-\u8418\u7532\u9178", "en_name": ["7-Bromo-3-hydroxy-2-naphthalenecarboxylic acid", "2-Naphthalenecarboxylic acid, 7-bromo-3-hydroxy-", "2-Naphthoic acid, 7-bromo-3-hydroxy-", "7-Bromo-3-hydroxy-2-naphthalenecarboxylic acid", "7-Bromo-3-hydroxy-2-naphthoic acid"], "SMILES": "C(O)(=O)C1=CC2=C(C=C1O)C=CC(Br)=C2", "physical_data": {"Molecular Weight": "267.08", "Molecular Formula": "C11H7BrO3", "Melting Point": "262 \u00b0C"}}