{"cas_no": "177931-17-8", "cn_name": "\u4e09\u767d\u8349\u916e", "en_name": ["Sauchinone", "5H-Benzo[kl]bis[1,3]dioxolo[4,5-b:4\u2032,5\u2032-g]xanthen-5-one, 5a,6,7,8,8a,14b-hexahydro-7,8-dimethyl-, (5aR,7R,8S,8aR,14aS,14bR)-", "5H-Benzo[kl]bis[1,3]dioxolo[4,5-b:4\u2032,5\u2032-g]xanthen-5-one, 5a,6,7,8,8a,14b-hexahydro-7,8-dimethyl-, (5a\u03b1,7\u03b1,8\u03b2,8a\u03b2,14aS*,14b\u03b2)-", "(5aR,7R,8S,8aR,14aS,14bR)-5a,6,7,8,8a,14b-Hexahydro-7,8-dimethyl-5H-benzo[kl]bis[1,3]dioxolo[4,5-b:4\u2032,5\u2032-g]xanthen-5-one", "Sauchinone"], "SMILES": "CC1C2C3C4(C(=CC(=O)C3CC1C)OCO4)OC=5C2=CC6=C(C5)OCO6", "physical_data": {"Molecular Weight": "356.37", "Molecular Formula": "C20H20O6", "Melting Point": "224-226 \u00b0C"}}