{"cas_no": "17791-52-5", "cn_name": "N-Boc-L-\u7ec4\u6c28\u9178", "en_name": ["(tert-Butoxycarbonyl)-L-histidine", "L-Histidine, N-[(1,1-dimethylethoxy)carbonyl]-", "Histidine, N-carboxy-, N-tert-butyl ester, L-", "Histidine, N-carboxy-, N-tert-butyl ester", "N-[(1,1-Dimethylethoxy)carbonyl]-L-histidine", "tert-Butyloxycarbonyl-L-histidine", "N-tert-Butyloxycarbonyl-L-histidine", "N\u03b1-tert-Butoxycarbonyl-L-histidine", "N-tert-Butoxycarbonyl-L-histidine", "N-(tert-Butoxycarbonyl)histidine", "(tert-Butoxycarbonyl)histidine", "N\u03b1-(tert-Butyloxycarbonyl)-L-histidine", "(tert-Butoxycarbonyl)-L-histidine", "NSC 334942", "(+)-N\u03b1-(tert-Butoxycarbonyl)-L-histidine", "(2S)-2-[[(tert-Butoxy)carbonyl]amino]-3-(1H-imidazol-4-yl)propanoic acid", "(2S)-3-(1H-Imidazol-3-ium-5-yl)-2-[(2-methylpropan-2-yl)oxycarbonylamino]propanoate"], "SMILES": "C(CC1=CN=CN1)(NC(OC(C)(C)C)=O)C(O)=O", "physical_data": {"Molecular Weight": "255.27", "Molecular Formula": "C11H17N3O4", "Melting Point": "192-196 \u00b0C"}}