{"cas_no": "177995-39-0", "cn_name": "3-\u6c28\u57fa-6-\u6eb4\u82ef\u5e76[D]\u5f02\u6076\u5511", "en_name": ["3-Amino-6-bromo-1,2-benzisoxazole", "1,2-Benzisoxazol-3-amine, 6-bromo-", "6-Bromo-1,2-benzisoxazol-3-amine", "3-Amino-6-bromo-1,2-benzisoxazole", "6-Bromobenzo[d]isoxazol-3-amine"], "SMILES": "NC=1C=2C(ON1)=CC(Br)=CC2", "physical_data": {"Molecular Weight": "213.03", "Molecular Formula": "C7H5BrN2O", "Melting Point": "128-129 \u00b0C"}}