{"cas_no": "1780-27-4", "cn_name": "4,5,6-\u4e09\u6c2f\u5627\u5576", "en_name": ["4,5,6-Trichloropyrimidine", "Pyrimidine, 4,5,6-trichloro-", "4,5,6-Trichloropyrimidine"], "SMILES": "ClC=1C(Cl)=NC=NC1Cl", "physical_data": {"Molecular Weight": "183.42", "Molecular Formula": "C4HCl3N2", "Boiling Point": "87 \u00b0C @ Press: 12 Torr", "Melting Point": "51-52 \u00b0C"}}