{"cas_no": "17805-19-5", "cn_name": "\u4e8c\u82ef\u57fa\u90bb\u78b3\u787c\u70f7", "en_name": ["Diphenyl-o-carborane", "1,2-Dicarbadodecaborane(12), 1,2-diphenyl-", "1,2-Diphenyl-1,2-dicarbadodecaborane(12)", "Diphenyl-o-carborane", "1,2-Diphenyl-o-carborane", "1,2-Diphenylbarene", "1,2-Diphenyl-1,2-dicarba-closo-dodecaborane(12)", "1,2-Diphenyl-1,2-dicarba-closo-decaborane", "1,2-Diphenyl-closo-1,2-dicarbadodecaborane(12)"], "SMILES": "C1234(C567([BH]189[BH]2%10%11[BH]3%12%13[BH]45%14[BH]6%15%16[BH]78%17[BH]9%10%18[BH]%12%11%19[BH]%14%13%15[BH]%16%17%18%19)C%20=CC=CC=C%20)C%21=CC=CC=C%21", "physical_data": {"Molecular Weight": "", "Molecular Formula": "C14H20B10", "Melting Point": "148-149 \u00b0C"}}