{"cas_no": "17804-35-2", "cn_name": "\u82ef\u83cc\u7075", "en_name": ["Benomyl", "Carbamic acid, N-[1-[(butylamino)carbonyl]-1H-benzimidazol-2-yl]-, methyl ester", "2-Benzimidazolecarbamic acid, 1-(butylcarbamoyl)-, methyl ester", "Carbamic acid, [1-[(butylamino)carbonyl]-1H-benzimidazol-2-yl]-, methyl ester", "Fungicide D-1991", "Methyl 1-(butylcarbamoyl)-2-benzimidazolecarbamate", "Methyl 1-(butylcarbamoyl)-2-benzimidazolylcarbamate", "Benomyl", "Benlate 50W", "BBC", "Benlate", "Du Pont 1991", "Benlate 50", "Fundazol", "NS 02 (fungicide)", "MBC", "Uzgen", "Tersan 1991", "BC 6597", "Fungochrom", "Agrocit", "NS 02", "Benomyl-Imex", "Fundazol 50WP", "Kribenomyl", "Benomil", "Zetamil", "NSC 263489", "Marvel", "Safomyl", "Benlate WP", "Benlate 50WP", "Benfungin", "Benfungin WP", "Minelate 50WG", "MeSH ID: D001542"], "SMILES": "C(NCCCC)(=O)N1C=2C(N=C1NC(OC)=O)=CC=CC2", "physical_data": {"Molecular Weight": "290.32", "Molecular Formula": "C14H18N4O3", "Melting Point": "140 \u00b0C (decomp)"}}