{"cas_no": "1780-19-4", "cn_name": "1,2,3,4-\u56db\u6c22-2-\u7532\u57fa\u55b9\u5549", "en_name": ["2-Methyl-1,2,3,4-tetrahydroquinoline", "Quinoline, 1,2,3,4-tetrahydro-2-methyl-", "Quinaldine, 1,2,3,4-tetrahydro-", "1,2,3,4-Tetrahydro-2-methylquinoline", "2-Methyl-1,2,3,4-tetrahydroquinoline", "1,2,3,4-Tetrahydroquinaldine", "NSC 65607"], "SMILES": "CC1NC=2C(CC1)=CC=CC2", "physical_data": {"Molecular Weight": "147.22", "Molecular Formula": "C10H13N", "Boiling Point": "125 \u00b0C @ Press: 17 Torr"}}