{"cas_no": "17804-49-8", "cn_name": "C.I.\u6d3b\u6027\u7ea22", "en_name": ["C.I. Reactive Red 2", "2,7-Naphthalenedisulfonic acid, 5-[(4,6-dichloro-1,3,5-triazin-2-yl)amino]-4-hydroxy-3-(2-phenyldiazenyl)-, sodium salt (1:2)", "2,7-Naphthalenedisulfonic acid, 5-[(4,6-dichloro-s-triazin-2-yl)amino]-4-hydroxy-3-(phenylazo)-, disodium salt", "2,7-Naphthalenedisulfonic acid, 5-[(4,6-dichloro-1,3,5-triazin-2-yl)amino]-4-hydroxy-3-(phenylazo)-, disodium salt", "5-(4,6-Dichloro-s-triazinyl-2-amino)-4-hydroxy-3-(phenylazo)-2,7-naphthalenedisulfonic acid disodium salt", "Reactive Brilliant Red 5SKh", "Brilliant Red 5SKh", "C.I. Reactive Red 2", "Mikacion Brilliant Red 5BS", "Procion Brilliant Red M 5B", "Procion Brilliant Red 5BS", "Procion Red MX 5B", "Procion Brilliant Red MX 5B", "Chemictive Brilliant Red 5B", "Ostazin Brilliant Red S 5B", "Orbaktiv Brilliant Red M 5B", "Procion Red 5CX", "Reactive Red 5SKh", "Reactive Red 2", "Ostazin Red S 5B", "Reactive Red B 5A", "Reactive Brilliant Red X 3B", "Reactive Red X 3B", "Reactive Bright Red X 3B", "Procion Red M 5B", "Reactofix Brilliant Red M 5B", "Reactive Brilliant Red (Chinese)", "Basilen Red M 5B", "Intracron Red C 5B", "Procion Red 5MX", "Brilliant Red X 3B", "Red M 5B", "Helaktyn Red F 5B", "Reactive Brilliant Red", "Reactive Red M 5B", "C.I. 18200", "Procion Brilliant Red 5B", "Reactive Brilliant Red MX 5B", "Reactofix Red M 5B", "Remazol brilliant red", "Remazol Red 5BS"], "SMILES": "N(C=1C2=C(C=C(S(=O)(=O)O)C(N=NC3=CC=CC=C3)=C2O)C=C(S(=O)(=O)O)C1)C=4N=C(Cl)N=C(Cl)N4.[Na]", "physical_data": {"Molecular Weight": "", "Molecular Formula": "C19H12Cl2N6O7S2.2Na", "Melting Point": "&gt;550 \u00b0C"}}