{"cas_no": "1780-26-3", "cn_name": "4,6-\u4e8c\u6c2f-2-\u7532\u57fa\u5627\u5576", "en_name": ["4,6-Dichloro-2-methylpyrimidine", "Pyrimidine, 4,6-dichloro-2-methyl-", "4,6-Dichloro-2-methylpyrimidine", "2-Methyl-4,6-dichloropyrimidine", "NSC 35923"], "SMILES": "ClC=1C=C(Cl)N=C(C)N1", "physical_data": {"Molecular Weight": "163.00", "Molecular Formula": "C5H4Cl2N2", "Melting Point": "162-163 \u00b0C"}}