{"cas_no": "17809-36-8", "cn_name": "2-\u6c1f-6-\u785d\u57fa\u82ef\u80fa", "en_name": ["2-Fluoro-6-nitrobenzenamine", "Benzenamine, 2-fluoro-6-nitro-", "Aniline, 2-fluoro-6-nitro-", "2-Fluoro-6-nitrobenzenamine", "2-Fluoro-6-nitroaniline", "6-Fluoro-2-nitroaniline", "2-Fluoro-6-nitro-phenylamine"], "SMILES": "N(=O)(=O)C1=C(N)C(F)=CC=C1", "physical_data": {"Molecular Weight": "156.11", "Molecular Formula": "C6H5FN2O2", "Melting Point": "130 \u00b0C"}}