{"cas_no": "1780-40-1", "cn_name": "2,4,5,6-\u56db\u6c2f\u5627\u5576", "en_name": ["2,4,5,6-Tetrachloropyrimidine", "Pyrimidine, 2,4,5,6-tetrachloro-", "Pyrimidine, tetrachloro-", "2,4,5,6-Tetrachloropyrimidine", "Tetrachloropyrimidine", "Perchloropyrimidine", "NSC 35123"], "SMILES": "ClC=1C(Cl)=NC(Cl)=NC1Cl", "physical_data": {"Molecular Weight": "217.87", "Molecular Formula": "C4Cl4N2", "Boiling Point": "108-109 \u00b0C @ Press: 11 Torr", "Melting Point": "66-68 \u00b0C"}}