{"cas_no": "17808-21-8", "cn_name": "6-\u6c2f-DL-\u8272\u6c28\u9178", "en_name": ["6-Chlorotryptophan", "Tryptophan, 6-chloro-", "Tryptophan, 6-chloro-, DL-", "DL-Tryptophan, 6-chloro-", "6-Chlorotryptophan", "DL-6-Chlorotryptophan", "DL-6-Chlorotryptophane", "6-Chloro-DL-tryptophan", "2-Amino-3-(6-chloro-1H-indol-3-yl)propanoic acid"], "SMILES": "C(C(C(O)=O)N)C=1C=2C(NC1)=CC(Cl)=CC2", "physical_data": {"Molecular Weight": "238.67", "Molecular Formula": "C11H11ClN2O2", "Melting Point": "285-286 \u00b0C (decomp)"}}