{"cas_no": "1780-42-3", "cn_name": "2,4,6-\u4e09\u6c2f-5-\u5f02\u4e19\u57fa\u5627\u5576", "en_name": ["2,4,6-Trichloro-5-(1-methylethyl)pyrimidine", "Pyrimidine, 2,4,6-trichloro-5-(1-methylethyl)-", "Pyrimidine, 2,4,6-trichloro-5-isopropyl-", "2,4,6-Trichloro-5-(1-methylethyl)pyrimidine", "5-Isopropyl-2,4,6-trichloropyrimidine", "2,4,6-Trichloro-5-isopropylpyrimidine", "2,4,6-Trichloro-5-propan-2-ylpyrimidine", "2,4,6-Trichloro-5-(propan-2-yl)pyrimidine"], "SMILES": "C(C)(C)C=1C(Cl)=NC(Cl)=NC1Cl", "physical_data": {"Molecular Weight": "225.50", "Molecular Formula": "C7H7Cl3N2", "Melting Point": "69-71 \u00b0C"}}