{"cas_no": "1780-17-2", "cn_name": "2-\u55b9\u5549\u57fa\u7532\u9187", "en_name": ["2-Quinolinemethanol", "2-Quinolinemethanol", "\u03b1-Quinaldinol", "2-(Hydroxymethyl)quinoline", "2-Quinolylmethanol", "NSC 6506", "Quinolin-2-ylmethanol"], "SMILES": "C(O)C1=NC2=C(C=C1)C=CC=C2", "physical_data": {"Molecular Weight": "159.18", "Molecular Formula": "C10H9NO", "Boiling Point": "205 \u00b0C @ Press: 15 Torr", "Melting Point": "64 \u00b0C"}}