{"cas_no": "1780-31-0", "cn_name": "2,4-\u4e8c\u6c2f-5-\u7532\u57fa\u5627\u5576", "en_name": ["2,4-Dichloro-5-methylpyrimidine", "Pyrimidine, 2,4-dichloro-5-methyl-", "2,4-Dichloro-5-methylpyrimidine", "5-Methyl-2,4-dichloropyrimidine", "NSC 37532", "2,6-Dichloro-5-methylpyrimidine"], "SMILES": "ClC=1C(C)=CN=C(Cl)N1", "physical_data": {"Molecular Weight": "163.00", "Molecular Formula": "C5H4Cl2N2", "Boiling Point": "235 \u00b0C", "Melting Point": "26 \u00b0C"}}