{"cas_no": "17812-32-7", "cn_name": "L-\u5929\u95e8\u51ac\u6c28\u9178 1-\u7532\u916f", "en_name": ["Methyl L-aspartate", "L-Aspartic acid, 1-methyl ester", "Aspartic acid, 1-methyl ester, L-", "Aspartic acid \u03b1-methyl ester", "Methyl L-aspartate"], "SMILES": "C(C(OC)=O)(CC(O)=O)N", "physical_data": {"Molecular Weight": "147.13", "Molecular Formula": "C5H9NO4", "Melting Point": "167 \u00b0C"}}