{"cas_no": "17812-07-6", "cn_name": "trans-3-\u82ef\u7532\u9170\u4e19\u70ef\u9178", "en_name": ["(2E)-4-Oxo-4-phenyl-2-butenoic acid", "2-Butenoic acid, 4-oxo-4-phenyl-, (2E)-", "Acrylic acid, 3-benzoyl-, (E)-", "2-Butenoic acid, 4-oxo-4-phenyl-, (E)-", "(2E)-4-Oxo-4-phenyl-2-butenoic acid", "trans-3-Benzoylacrylic acid", "(E)-4-Oxo-4-phenyl-2-butenoic acid", "trans-\u03b2-Benzoylacrylic acid", "4-Oxo-4-phenyl-2(E)-butenoic acid", "4-Phenyl-4-oxo-2(E)-butenoic acid", "(E)-4-Oxo-4-phenylbut-2-enoic acid"], "SMILES": "C(C=CC(O)=O)(=O)C1=CC=CC=C1", "physical_data": {"Molecular Weight": "176.17", "Molecular Formula": "C10H8O3", "Melting Point": "95-96 \u00b0C"}}