{"cas_no": "17814-85-6", "cn_name": "4-\u7fa7\u4e01\u57fa\u4e09\u82ef\u57fa\u6eb4\u5316\u81a6", "en_name": ["(4-Carboxybutyl)triphenylphosphonium bromide", "Phosphonium, (4-carboxybutyl)triphenyl-, bromide (1:1)", "Phosphonium, (4-carboxybutyl)triphenyl-, bromide", "Triphenyl(4-carboxybutyl)phosphonium bromide", "4-Carbohydroxybutyltriphenylphosphonium bromide", "5-(Triphenylphosphonio)pentanoic acid bromide", "(4-Carboxybutyl)triphenylphosphonium bromide", "(4-Carboxylbutyl)triphenylphosphonium bromide", "Carboxybutyltriphenylphosphonium bromide", "NSC 147756"], "SMILES": "[P+](CCCCC(O)=O)(C1=CC=CC=C1)(C2=CC=CC=C2)C3=CC=CC=C3.[Br-]", "physical_data": {"Molecular Weight": "", "Molecular Formula": "C23H24O2P.Br", "Melting Point": "198-204 \u00b0C"}}