{"cas_no": "17827-61-1", "cn_name": "1-\u7532\u57fa-1H -\u5421\u5511- 3 -\u7fa7\u9178\u7532\u916f", "en_name": ["1H-Pyrazole-3-carboxylic acid, 1-methyl-, methyl ester", "1H-Pyrazole-3-carboxylic acid, 1-methyl-, methyl ester", "Pyrazole-3-carboxylic acid, 1-methyl-, methyl ester", "Methyl 1-methyl-1H-pyrazole-3-carboxylate", "1-Methyl-1H-Pyrazole-3-carboxylic acid methyl ester"], "SMILES": "C(OC)(=O)C1=NN(C)C=C1", "physical_data": {"Molecular Weight": "140.14", "Molecular Formula": "C6H8N2O2", "Boiling Point": "108-110 \u00b0C @ Press: 1 Torr"}}