{"cas_no": "17824-83-8", "cn_name": "3,4,5,6-\u56db\u6c2f\u5421\u5576-2-\u7532\u8148", "en_name": ["3,4,5,6-Tetrachloro-2-pyridinecarbonitrile", "2-Pyridinecarbonitrile, 3,4,5,6-tetrachloro-", "Picolinonitrile, tetrachloro-", "3,4,5,6-Tetrachloro-2-pyridinecarbonitrile", "Tetrachloropicolinonitrile", "3,4,5,6-Tetrachloropyridine-2-carbonitrile", "Tetrachloro-2-pyridinecarbonitrile", "3,4,5,6-Tetrachloropicolinonitrile", "2-Cyano-3,4,5,6-tetrachloropyridine", "Tetrachloro-2-cyanopyridine"], "SMILES": "C(#N)C1=C(Cl)C(Cl)=C(Cl)C(Cl)=N1", "physical_data": {"Molecular Weight": "241.89", "Molecular Formula": "C6Cl4N2", "Melting Point": "148-150 \u00b0C"}}