{"cas_no": "17823-38-0", "cn_name": "4-\u6c28\u57fa-2,3,5,6-\u56db\u6c1f\u82ef\u7532\u8148", "en_name": ["4-Amino-2,3,5,6-tetrafluorobenzonitrile", "Benzonitrile, 4-amino-2,3,5,6-tetrafluoro-", "4-Amino-2,3,5,6-tetrafluorobenzonitrile", "4-Aminotetrafluorobenzonitrile", "4-Cyanotetrafluoroaniline", "2,3,5,6-Tetrafluoro-4-cyanoaniline"], "SMILES": "C(#N)C1=C(F)C(F)=C(N)C(F)=C1F", "physical_data": {"Molecular Weight": "190.10", "Molecular Formula": "C7H2F4N2", "Melting Point": "96-97 \u00b0C", "Density": "1.712 g/cm\u00b3"}}