{"cas_no": "17826-05-0", "cn_name": "5,6-\u4e8c\u6eb4\u4e8c\u6c22\u5432\u54da-2,3-\u4e8c\u916e", "en_name": ["5,6-Dibromoisatin", "1H-Indole-2,3-dione, 5,6-dibromo-", "Indole-2,3-dione, 5,6-dibromo-", "5,6-Dibromo-1H-indole-2,3-dione", "5,6-Dibromoisatin"], "SMILES": "O=C1C=2C(NC1=O)=CC(Br)=C(Br)C2", "physical_data": {"Molecular Weight": "304.92", "Molecular Formula": "C8H3Br2NO2", "Melting Point": "288-290 \u00b0C"}}