{"cas_no": "17832-28-9", "cn_name": "4-\u7f9f\u4e01\u57fa\u4e59\u70ef\u57fa\u919a", "en_name": ["4-Hydroxybutyl vinyl ether", "1-Butanol, 4-(ethenyloxy)-", "1-Butanol, 4-(vinyloxy)-", "4-(Ethenyloxy)-1-butanol", "4-Hydroxybutyl vinyl ether", "4-(Vinyloxy)-1-butanol", "1,4-Butanediol monovinyl ether", "Rapi-Cure HBVE", "Tetramethylene glycol monovinyl ether", "4-(Vinyloxy)butanol", "HBVE", "NECO 100"], "SMILES": "C(COC=C)CCO", "physical_data": {"Molecular Weight": "116.16", "Molecular Formula": "C6H12O2", "Boiling Point": "83-85 \u00b0C @ Press: 15 Torr", "Density": "0.9448 g/cm\u00b3 @ Temp: 20 \u00b0C"}}