{"cas_no": "1783-81-9", "cn_name": "3-\u6c28\u57fa\u8334\u9999\u786b\u919a", "en_name": ["3-(Methylthio)benzenamine", "Benzenamine, 3-(methylthio)-", "Aniline, m-(methylthio)-", "3-(Methylthio)benzenamine", "m-Aminophenyl methyl sulfide", "m-(Methylthio)aniline", "m-Aminothioanisole", "3-(Methylthio)aniline", "3-Methylmercaptoaniline", "3-Aminothioanisole", "NSC 66274", "3-(Methylsulfanyl)phenylamine", "3-(Methylsulfanyl)aniline", "3-Aminophenyl methyl sulfide"], "SMILES": "S(C)C1=CC(N)=CC=C1", "physical_data": {"Molecular Weight": "139.22", "Molecular Formula": "C7H9NS", "Boiling Point": "163-165 \u00b0C"}}