{"cas_no": "17833-53-3", "cn_name": "\u7532\u57fa\u5929\u51ac\u6c28\u9178", "en_name": ["N-Methylaspartic acid", "Aspartic acid, N-methyl-", "Aspartic acid, N-methyl-, DL-", "DL-Aspartic acid, N-methyl-", "N-Methylaspartic acid", "DL-N-Methylaspartic acid", "N-Methyl-DL-aspartic acid", "N-Methyl-DL-aspartate", "(RS)-N-methyL-aspartic acid", "2-(Methylamino)succinic acid", "2-(Methylamino)butanedioic acid"], "SMILES": "C(CC(O)=O)(C(O)=O)NC", "physical_data": {"Molecular Weight": "147.13", "Molecular Formula": "C5H9NO4", "Melting Point": "183-184 \u00b0C"}}