{"cas_no": "17832-16-5", "cn_name": "\u82ef\u5747\u4e09\u9178\u4e09\u70ef\u4e19\u57fa\u916f", "en_name": ["Triallyl trimesate", "1,3,5-Benzenetricarboxylic acid, 1,3,5-tri-2-propen-1-yl ester", "1,3,5-Benzenetricarboxylic acid, triallyl ester", "1,3,5-Benzenetricarboxylic acid, tri-2-propenyl ester", "Trimesic acid, triallyl ester", "Triallyl trimesate", "Triallyl 1,3,5-benzenetricarboxylate"], "SMILES": "C(OCC=C)(=O)C1=CC(C(OCC=C)=O)=CC(C(OCC=C)=O)=C1", "physical_data": {"Molecular Weight": "330.33", "Molecular Formula": "C18H18O6", "Boiling Point": "210-212 \u00b0C @ Press: 2 Torr", "Density": "1.1629 g/cm\u00b3 @ Temp: 20 \u00b0C"}}