{"cas_no": "17833-43-1", "cn_name": "7-(\u03b1-D-\u5421\u5583\u8461\u7cd6\u6c27\u57fa)-4-\u7532\u57fa-2H-1-\u82ef\u5e76\u5421\u5583-2-\u916e", "en_name": ["4-Methylumbelliferyl \u03b1-D-glucopyranoside", "2H-1-Benzopyran-2-one, 7-(\u03b1-D-glucopyranosyloxy)-4-methyl-", "Coumarin, 7-(\u03b1-D-glucopyranosyloxy)-4-methyl-", "7-(\u03b1-D-Glucopyranosyloxy)-4-methyl-2H-1-benzopyran-2-one", "4-Methylumbelliferyl \u03b1-D-glucoside", "4-Methylumbelliferyl \u03b1-D-glucopyranoside", "4-Methylumbelliferyl \u03b1-D-glucose", "4\u2032-Methylumbelliferyl \u03b1-D-glucopyranoside"], "SMILES": "CC=1C=2C(=CC(OC3OC(CO)C(O)C(O)C3O)=CC2)OC(=O)C1", "physical_data": {"Molecular Weight": "338.31", "Molecular Formula": "C16H18O8", "Melting Point": "208-211 \u00b0C"}}