{"cas_no": "17834-03-6", "cn_name": "7-\u7f9f\u57fa\u534e\u6cd5\u6797", "en_name": ["7-Hydroxywarfarin", "2H-1-Benzopyran-2-one, 4,7-dihydroxy-3-(3-oxo-1-phenylbutyl)-", "Coumarin, 3-(\u03b1-acetonylbenzyl)-4,7-dihydroxy-", "4,7-Dihydroxy-3-(3-oxo-1-phenylbutyl)-2H-1-benzopyran-2-one", "7-Hydroxywarfarin"], "SMILES": "C(CC(C)=O)(C1=C(O)C=2C(OC1=O)=CC(O)=CC2)C3=CC=CC=C3", "physical_data": {"Molecular Weight": "324.33", "Molecular Formula": "C19H16O5", "Melting Point": "203-205 \u00b0C"}}