{"cas_no": "1783-96-6", "cn_name": "D-\u5929\u95e8\u51ac\u6c28\u9178", "en_name": ["D-Aspartic acid", "D-Aspartic acid", "Aspartic acid, D-", "(-)-Aspartic acid", "D-(-)-Aspartic acid", "(R)-Aspartic acid", "NSC 97922", "(2R)-2-Aminobutanedioic acid", "(R)-2-Aminosuccinic acid"], "SMILES": "C(CC(O)=O)(C(O)=O)N", "physical_data": {"Molecular Weight": "133.10", "Molecular Formula": "C4H7NO4", "Melting Point": "251 \u00b0C"}}