{"cas_no": "17846-68-3", "cn_name": "\u4e09\u6b63\u4e01\u57fa\u53e0\u6c2e\u5316\u9521", "en_name": ["Azidotributylstannane", "Stannane, azidotributyl-", "Tin, azidotributyl-", "Azidotributylstannane", "Tributylstannyl azide", "Tributyltin azide", "Azidotributyltin", "Tri-n-butyltin azide", "Tri-n-butylstannyl azide", "NSC 179738"], "SMILES": "[Sn](CCCC)(CCCC)(CCCC)N=[N+]=[N-]", "physical_data": {"Molecular Weight": "", "Molecular Formula": "C12H27N3Sn", "Boiling Point": "118-120 \u00b0C @ Press: 0.18 Torr"}}