{"cas_no": "1784-04-9", "cn_name": "N-\u82ef\u7532\u9170\u57fa-L-\u7cbe\u6c28\u9178\u7532\u916f\u76d0\u9178\u76d0", "en_name": ["L-Arginine, N2-benzoyl-, methyl ester, hydrochloride (1:1)", "L-Arginine, N2-benzoyl-, methyl ester, hydrochloride (1:1)", "Arginine, N2-benzoyl-, methyl ester, monohydrochloride, L-", "L-Arginine, N2-benzoyl-, methyl ester, monohydrochloride"], "SMILES": "C(NC(CCCNC(=N)N)C(OC)=O)(=O)C1=CC=CC=C1.Cl", "physical_data": {"Molecular Weight": "", "Molecular Formula": "C14H20N4O3.ClH", "Melting Point": "87-89 \u00b0C"}}