{"cas_no": "17849-38-6", "cn_name": "\u90bb\u6c2f\u82c4\u9187", "en_name": ["2-Chlorobenzyl alcohol", "Benzenemethanol, 2-chloro-", "Benzyl alcohol, o-chloro-", "2-Chlorobenzenemethanol", "o-Chlorobenzyl alcohol", "2-Chlorobenzyl alcohol", "(2-Chlorophenyl)methanol", "o-Chlorobenzenemethanol"], "SMILES": "C(O)C1=C(Cl)C=CC=C1", "physical_data": {"Molecular Weight": "142.58", "Molecular Formula": "C7H7ClO", "Boiling Point": "230 \u00b0C", "Melting Point": "73 \u00b0C"}}