{"cas_no": "178488-37-4", "cn_name": "5-\u7532\u57fa\u54aa\u5511\u5e76[1,2-A]\u5421\u5576-3-\u7532\u919b", "en_name": ["5-Methylimidazo[1,2-a]pyridine-3-carboxaldehyde", "Imidazo[1,2-a]pyridine-3-carboxaldehyde, 5-methyl-", "5-Methylimidazo[1,2-a]pyridine-3-carboxaldehyde"], "SMILES": "C(=O)C=1N2C(=NC1)C=CC=C2C", "physical_data": {"Molecular Weight": "160.17", "Molecular Formula": "C9H8N2O", "Melting Point": "117-119 \u00b0C"}}