{"cas_no": "1785-95-1", "cn_name": "2-\u82ef\u7532\u9170-1,3-\u831a\u6ee1\u4e8c\u916e", "en_name": ["2-Benzoyl-1H-indene-1,3(2H)-dione", "1H-Indene-1,3(2H)-dione, 2-benzoyl-", "1,3-Indandione, 2-benzoyl-", "2-Benzoyl-1H-indene-1,3(2H)-dione", "2-Benzoyl-1,3-indandione", "2-Benzoylindandione", "NSC 14011", "NSC 631512"], "SMILES": "C(=O)(C1C(=O)C=2C(C1=O)=CC=CC2)C3=CC=CC=C3", "physical_data": {"Molecular Weight": "250.25", "Molecular Formula": "C16H10O3", "Melting Point": "108 \u00b0C"}}