{"cas_no": "17852-52-7", "cn_name": "\u5bf9\u80bc\u57fa\u82ef\u78fa\u9170\u80fa\u76d0\u9178\u76d0", "en_name": ["4-Hydrazinylbenzenesulfonamide hydrochloride", "Benzenesulfonamide, 4-hydrazinyl-, hydrochloride (1:1)", "Benzenesulfonamide, p-hydrazino-, monohydrochloride", "Benzenesulfonamide, 4-hydrazino-, monohydrochloride", "(p-Sulfamoylphenyl)hydrazine monohydrochloride", "(4-Sulfamoylphenyl)hydrazine hydrochloride", "4-Aminosulfonylphenylhydrazine monohydrochloride", "[4-(Aminosulfonyl)phenyl]hydrazine hydrochloride", "4-Hydrazinylbenzenesulfonamide hydrochloride", "4-Hydrazinobenzene-1-sulfonamide hydrochloride", "4-Hydrazinobenzenesulfonamide monohydrochloride", "p-Hydrazinobenzensulfonamide hydrochloride", "4-Hydrazinebenzenesulfonamide hydrochloride"], "SMILES": "S(N)(=O)(=O)C1=CC=C(NN)C=C1.Cl", "physical_data": {"Molecular Weight": "", "Molecular Formula": "C6H9N3O2S.ClH", "Melting Point": "204 \u00b0C (decomp)"}}