{"cas_no": "17852-28-7", "cn_name": "2-\u6c28\u57fa-5-\u7532\u57fa\u4e8c\u82ef\u7532\u916e", "en_name": ["2-Amino-5-methylbenzophenone", "Methanone, (2-amino-5-methylphenyl)phenyl-", "Benzophenone, 2-amino-5-methyl-", "(2-Amino-5-methylphenyl)phenylmethanone", "2-Amino-5-methylbenzophenone", "2-Benzoyl-4-methylaniline", "2-Amino-5-methylphenyl phenyl ketone"], "SMILES": "C(=O)(C1=C(N)C=CC(C)=C1)C2=CC=CC=C2", "physical_data": {"Molecular Weight": "211.26", "Molecular Formula": "C14H13NO", "Melting Point": "64-64.5 \u00b0C"}}