{"cas_no": "17864-93-6", "cn_name": "2-(4-\u73af\u5df1\u70ef\u57fa)\u4e59\u57fa\u7532\u57fa\u4e8c\u6c2f\u7845\u70f7", "en_name": ["4-[2-(Dichloromethylsilyl)ethyl]cyclohexene", "Cyclohexene, 4-[2-(dichloromethylsilyl)ethyl]-", "Silane, dichloro[2-(3-cyclohexen-1-yl)ethyl]methyl-", "4-[2-(Dichloromethylsilyl)ethyl]cyclohexene", "2-(3-Cyclohexenyl)ethylmethyldichlorosilane"], "SMILES": "C(C[Si](C)(Cl)Cl)C1CCC=CC1", "physical_data": {"Molecular Weight": "223.21", "Molecular Formula": "C9H16Cl2Si", "Boiling Point": "79-81 \u00b0C @ Press: 2 Torr", "Density": "1.077 g/cm\u00b3"}}