{"cas_no": "17865-32-6", "cn_name": "\u7532\u57fa\u73af\u5df1\u57fa\u4e8c\u7532\u6c27\u57fa\u7845\u70f7", "en_name": ["Cyclohexyldimethoxymethylsilane", "Cyclohexane, (dimethoxymethylsilyl)-", "Silane, cyclohexyldimethoxymethyl-", "(Dimethoxymethylsilyl)cyclohexane", "Methyl(cyclohexyl)dimethoxysilane", "Cyclohexyl(methyl)dimethoxysilane", "Cyclohexyldimethoxymethylsilane", "CHMS 112", "SZ 6187", "Z 6187", "Dimethoxycyclohexylmethylsilane", "Cyclohexyl dimethoxymethyl siloxane", "Donor C 2"], "SMILES": "[Si](OC)(OC)(C)C1CCCCC1", "physical_data": {"Molecular Weight": "188.34", "Molecular Formula": "C9H20O2Si", "Boiling Point": "196 \u00b0C", "Density": "0.947 g/cm\u00b3"}}