{"cas_no": "17865-07-5", "cn_name": "\u4e19\u57fa\u4e09\u4e59\u9170\u6c27\u57fa\u7845\u70f7", "en_name": ["Silanetriol, 1-propyl-, 1,1,1-triacetate", "Silanetriol, 1-propyl-, 1,1,1-triacetate", "Silanetriol, propyl-, triacetate", "Propyltriacetoxysilane"], "SMILES": "[Si](OC(C)=O)(OC(C)=O)(OC(C)=O)CCC", "physical_data": {"Molecular Weight": "248.31", "Molecular Formula": "C9H16O6Si", "Boiling Point": "127-131 \u00b0C @ Press: 20 Torr", "Density": "1.119 g/cm\u00b3 @ Temp: 20 \u00b0C"}}