{"cas_no": "17865-54-2", "cn_name": "\u6c30\u57fa\u5df1\u57fa\u4e09\u7532\u6c27\u57fa\u7845\u70f7", "en_name": ["Cyclohexyltrimethoxysilane", "Cyclohexane, (trimethoxysilyl)-", "Silane, cyclohexyltrimethoxy-", "(Trimethoxysilyl)cyclohexane", "Cyclohexyltrimethoxysilane", "C 2280"], "SMILES": "[Si](OC)(OC)(OC)C1CCCCC1", "physical_data": {"Molecular Weight": "204.34", "Molecular Formula": "C9H20O3Si", "Boiling Point": "207-209 \u00b0C"}}