{"cas_no": "1786-81-8", "cn_name": "\u76d0\u9178\u4e19\u80fa\u5361\u56e0", "en_name": ["Prilocaine hydrochloride", "Propanamide, N-(2-methylphenyl)-2-(propylamino)-, hydrochloride (1:1)", "o-Propionotoluidide, 2-(propylamino)-, monohydrochloride", "Propanamide, N-(2-methylphenyl)-2-(propylamino)-, monohydrochloride", "Citanest hydrochloride", "L 67 hydrochloride", "\u03b1-(Propylamino)-2-methylpropionanilide hydrochloride", "2-(Propylamino)-o-propionotoluidide hydrochloride", "Prilocaine hydrochloride", "Propitocaine hydrochloride", "Xylonest", "Prilocaine chloride", "Citanest Plain", "L 67", "2-(Propylamino)-N-(o-tolyl)propanamide hydrochloride"], "SMILES": "N(C(C(NCCC)C)=O)C1=C(C)C=CC=C1.Cl", "physical_data": {"Molecular Weight": "", "Molecular Formula": "C13H20N2O.ClH", "Melting Point": "167-168 \u00b0C"}}