{"cas_no": "17869-76-0", "cn_name": "2-\u4e09\u7532\u57fa\u7845\u6c27\u57fa-3-\u4e01\u7094", "en_name": ["Trimethyl[(1-methyl-2-propyn-1-yl)oxy]silane", "Silane, trimethyl[(1-methyl-2-propyn-1-yl)oxy]-", "Silane, trimethyl[(1-methyl-2-propynyl)oxy]-", "Trimethyl[(1-methyl-2-propyn-1-yl)oxy]silane", "3-(Trimethylsiloxy)-1-butyne", "Trimethyl(1-methyl-2-propynyloxy)silane", "3-Trimethylsilyloxy-1-butyne", "[1-(Trimethylsiloxy)ethyl]acetylene", "(But-3-yn-2-yloxy)trimethylsilane", "2-Trimethylsilyloxy-3-butyne"], "SMILES": "O([Si](C)(C)C)C(C#C)C", "physical_data": {"Molecular Weight": "142.27", "Molecular Formula": "C7H14OSi", "Boiling Point": "47.5-49 \u00b0C @ Press: 75 Torr", "Melting Point": "127-129 \u00b0C", "Density": "0.819 g/cm\u00b3"}}