{"cas_no": "17865-85-9", "cn_name": "\u516b\u7532\u57fa-POSS", "en_name": ["1,3,5,7,9,11,13,15-Octamethylpentacyclo[9.5.1.13,9.15,15.17,13]octasiloxane", "Pentacyclo[9.5.1.13,9.15,15.17,13]octasiloxane, 1,3,5,7,9,11,13,15-octamethyl-", "Pentacyclo[9.5.1.13,9.15,15.17,13]octasiloxane, octamethyl-", "Octasilsesquioxane, octamethyl-", "1,3,5,7,9,11,13,15-Octamethylpentacyclo[9.5.1.13,9.15,15.17,13]octasiloxane", "Methyl-T 8", "Octamethylpentacyclo[9.5.1.13,9.15,15.17,13]octasiloxane", "Molecular Silicas MS 0830", "MS 0830", "OctaMethyl-POSS", "Octa(methylsilsesquioxane)"], "SMILES": "C[Si]12O[Si]3(C)O[Si]4(C)O[Si](C)(O1)O[Si]5(C)O[Si](C)(O2)O[Si](C)(O3)O[Si](C)(O4)O5", "physical_data": {"Molecular Weight": "536.95", "Molecular Formula": "C8H24O12Si8", "Melting Point": "231-258 \u00b0C (sublm)"}}