{"cas_no": "178631-05-5", "cn_name": "1-\u5df1\u57fa-3-\u7532\u57fa\u54aa\u5511\u7898\u76d0", "en_name": ["1-Hexyl-3-methylimidazolium iodide", "1H-Imidazolium, 3-hexyl-1-methyl-, iodide (1:1)", "1H-Imidazolium, 1-hexyl-3-methyl-, iodide", "1-Hexyl-3-methylimidazolium iodide", "1-Methyl-3-hexylimidazolium iodide", "N-Methyl-N\u2032-hexylimidazolium iodide", "3-Hexyl-1-methylimidazolium iodide", "1-Hexyl-3-methyl-1H-imidazol-3-ium iodide"], "SMILES": "C(CCCCC)[N+]1=CN(C)C=C1.[I-]", "physical_data": {"Molecular Weight": "", "Molecular Formula": "C10H19N2.I", "Melting Point": "200 \u00b0C (decomp)", "Density": "1.49 g/cm\u00b3"}}