{"cas_no": "17869-77-1", "cn_name": "[(1,1-\u4e8c\u7532\u57fa-2-\u4e19\u7094\u57fa)\u6c27\u57fa]\u4e09\u7532\u57fa\u7845\u70f7", "en_name": ["[(1,1-Dimethyl-2-propyn-1-yl)oxy]trimethylsilane", "Silane, [(1,1-dimethyl-2-propyn-1-yl)oxy]trimethyl-", "Silane, [(1,1-dimethyl-2-propynyl)oxy]trimethyl-", "[(1,1-Dimethyl-2-propyn-1-yl)oxy]trimethylsilane", "3-Methyl-3-(trimethylsiloxy)-1-butyne", "Trimethyl(1,1-dimethyl-2-propynyloxy)silane", "(1,1-Dimethyl-2-propynyloxy)trimethylsilane", "3-Methyl-3-trimethylsilyloxy-1-butyne", "3-Methyl-1-butyn-3-yl trimethylsilyl ether", "1,1-Dimethylpropargyl trimethylsilyl ether", "Trimethyl(2-methyl-3-butyn-2-yloxy)silane", "(2-Methyl-3-butyn-2-yloxy)trimethylsilane"], "SMILES": "O(C(C#C)(C)C)[Si](C)(C)C", "physical_data": {"Molecular Weight": "156.30", "Molecular Formula": "C8H16OSi", "Boiling Point": "94-96 \u00b0C @ Press: 54 Torr", "Melting Point": "42-42.5 \u00b0C", "Density": "0.8079 g/cm\u00b3 @ Temp: 20 \u00b0C"}}