{"cas_no": "17865-11-1", "cn_name": "4-(\u4e09\u7532\u57fa\u7845\u70f7)\u82ef\u787c\u9178", "en_name": ["[4-(Trimethylsilyl)phenyl]boronic acid", "Boronic acid, B-[4-(trimethylsilyl)phenyl]-", "Benzeneboronic acid, p-(trimethylsilyl)-", "Boronic acid, [4-(trimethylsilyl)phenyl]-", "B-[4-(Trimethylsilyl)phenyl]boronic acid", "4-(Trimethylsilyl)benzeneboronic acid", "[4-(Trimethylsilyl)phenyl]boronic acid", "p-Trimethylsilylbenzeneboronic acid", "p-(Trimethylsilyl)phenylboronic acid"], "SMILES": "[Si](C)(C)(C)C1=CC=C(B(O)O)C=C1", "physical_data": {"Molecular Weight": "194.11", "Molecular Formula": "C9H15BO2Si", "Melting Point": "193-194 \u00b0C"}}