{"cas_no": "17877-23-5", "cn_name": "\u4e09\u5f02\u4e19\u57fa\u7845\u70f7\u9187", "en_name": ["1,1,1-Tris(1-methylethyl)silanol", "Silanol, 1,1,1-tris(1-methylethyl)-", "Silanol, tris(1-methylethyl)-", "1,1,1-Tris(1-methylethyl)silanol", "Triisopropylsilanol"], "SMILES": "[Si](C(C)C)(C(C)C)(C(C)C)O", "physical_data": {"Molecular Weight": "174.36", "Molecular Formula": "C9H22OSi", "Boiling Point": "196 \u00b0C @ Press: 750 Torr"}}