{"cas_no": "17874-79-2", "cn_name": "5-(\u7532\u6c27\u7fb0\u57fa)-2-\u5421\u5576\u7fa7\u9178", "en_name": ["5-Methyl 2,5-pyridinedicarboxylate", "2,5-Pyridinedicarboxylic acid, 5-methyl ester", "5-Methyl 2,5-pyridinedicarboxylate", "2-Carboxy-5-(methoxycarbonyl)pyridine", "Methyl 2-carboxypyridine-5-carboxylate", "5-Methoxycarbonylpyridine-2-carboxylic acid", "NSC 236641", "5-Carbomethoxypyridine-2-carboxylic acid", "5-(Methoxycarbonyl)picolinic acid"], "SMILES": "C(OC)(=O)C=1C=CC(C(O)=O)=NC1", "physical_data": {"Molecular Weight": "181.15", "Molecular Formula": "C8H7NO4", "Melting Point": "175.5-180 \u00b0C"}}