{"cas_no": "17878-44-3", "cn_name": "\u5bf9(\u4e09\u7532\u57fa\u7845\u6c27\u57fa)\u6eb4\u82ef", "en_name": ["1-Bromo-4-[(trimethylsilyl)oxy]benzene", "Benzene, 1-bromo-4-[(trimethylsilyl)oxy]-", "Silane, (p-bromophenoxy)trimethyl-", "Silane, (4-bromophenoxy)trimethyl-", "1-Bromo-4-[(trimethylsilyl)oxy]benzene", "(p-Bromophenoxy)trimethylsilane", "4-Trimethylsilyloxybromobenzene", "4-(Trimethylsiloxy)bromobenzene", "Trimethyl(p-bromophenoxy)silane", "4-Bromo(trimethylsiloxy)benzene", "4-Bromophenyl trimethylsilyl ether", "(4-Bromophenoxy)trimethylsilane", "NSC 96824", "1-Bromo-4-trimethylsilyloxybenzene"], "SMILES": "O([Si](C)(C)C)C1=CC=C(Br)C=C1", "physical_data": {"Molecular Weight": "245.19", "Molecular Formula": "C9H13BrOSi", "Boiling Point": "122 \u00b0C @ Press: 20 Torr", "Density": "1.2619 g/cm\u00b3 @ Temp: 20 \u00b0C"}}