{"cas_no": "17878-39-6", "cn_name": "\u7532\u57fa\u82ef\u4e59\u70ef\u7845\u70f7", "en_name": ["(Ethenylmethylsilyl)benzene", "Benzene, (ethenylmethylsilyl)-", "Silane, methylphenylvinyl-", "Silane, ethenylmethylphenyl-", "(Ethenylmethylsilyl)benzene", "Methylphenylvinylsilane", "Phenylmethylvinylsilane", "(Ethenyl)(methyl)(phenyl)silane"], "SMILES": "[SiH](C=C)(C)C1=CC=CC=C1", "physical_data": {"Molecular Weight": "148.28", "Molecular Formula": "C9H12Si", "Boiling Point": "56-57 \u00b0C @ Press: 7 Torr", "Density": "0.891 g/cm\u00b3"}}