{"cas_no": "17875-55-7", "cn_name": "1,1,5,5-\u56db\u7532\u57fa-3,3-\u4e8c\u82ef\u57fa\u4e09\u7845\u6c27\u70f7", "en_name": ["1,1,5,5-Tetramethyl-3,3-diphenyltrisiloxane", "Trisiloxane, 1,1,5,5-tetramethyl-3,3-diphenyl-", "1,1,5,5-Tetramethyl-3,3-diphenyltrisiloxane", "Bis(dimethylsiloxy)diphenylsilane", "3,3-Diphenyl-1,1,5,5-tetramethyltrisiloxane", "3,3-Diphenyltetramethyltrisiloxane", "PF 8801"], "SMILES": "[Si](O[SiH](C)C)(O[SiH](C)C)(C1=CC=CC=C1)C2=CC=CC=C2", "physical_data": {"Molecular Weight": "332.62", "Molecular Formula": "C16H24O2Si3", "Boiling Point": "137 \u00b0C @ Press: 2.8 Torr", "Density": "0.9936 g/cm\u00b3 @ Temp: 20 \u00b0C"}}