{"cas_no": "1788-10-9", "cn_name": "4-\u4e59\u9170\u57fa\u82ef\u78fa\u9170\u6c2f", "en_name": ["4-Acetylbenzenesulfonyl chloride", "Benzenesulfonyl chloride, 4-acetyl-", "Benzenesulfonyl chloride, p-acetyl-", "4-Acetylbenzenesulfonyl chloride", "4-Acetylphenylsulfonyl chloride", "p-Acetylbenzenesulfonyl chloride", "NSC 104128", "4-Acetylbenzene-1-sulfonyl chloride", "4-Acetylbenzensulfonyl chloride"], "SMILES": "S(Cl)(=O)(=O)C1=CC=C(C(C)=O)C=C1", "physical_data": {"Molecular Weight": "218.66", "Molecular Formula": "C8H7ClO3S", "Melting Point": "87-89 \u00b0C"}}