{"cas_no": "17882-06-3", "cn_name": "\u4e09\u7532\u57fa\u7845\u57fa\u82ef\u78fa\u9178\u916f", "en_name": ["Silanol, 1,1,1-trimethyl-, 1-benzenesulfonate", "Silanol, 1,1,1-trimethyl-, 1-benzenesulfonate", "Silanol, trimethyl-, benzenesulfonate", "Trimethylsilyl benzenesulfonate"], "SMILES": "S(O[Si](C)(C)C)(=O)(=O)C1=CC=CC=C1", "physical_data": {"Molecular Weight": "230.36", "Molecular Formula": "C9H14O3SSi", "Boiling Point": "154-156 \u00b0C @ Press: 12 Torr", "Density": "1.138 g/cm\u00b3"}}