{"cas_no": "17887-41-1", "cn_name": "t-\u4e01\u57fa\u82ef\u57fa\u4e8c\u6c2f\u7845\u70f7", "en_name": ["[Dichloro(1,1-dimethylethyl)silyl]benzene", "Benzene, [dichloro(1,1-dimethylethyl)silyl]-", "Silane, tert-butyldichlorophenyl-", "Silane, dichloro(1,1-dimethylethyl)phenyl-", "[Dichloro(1,1-dimethylethyl)silyl]benzene", "tert-Butyldichlorophenylsilane", "tert-Butylphenyldichlorosilane"], "SMILES": "[Si](C(C)(C)C)(Cl)(Cl)C1=CC=CC=C1", "physical_data": {"Molecular Weight": "233.21", "Molecular Formula": "C10H14Cl2Si", "Boiling Point": "126 \u00b0C @ Press: 25 Torr", "Density": "1.106 g/cm\u00b3"}}