{"cas_no": "17885-08-4", "cn_name": "DL-O-\u78f7\u9178\u4e1d\u6c28\u9178", "en_name": ["O-Phospho-DL-serine", "Serine, O-phosphono-", "Serine, dihydrogen phosphate (ester), DL-", "Serine, dihydrogen phosphate (ester)", "O-Phosphonoserine", "dl-O-Phosphoserine", "DL-O-Serine phosphate", "DL-Phosphoserine", "Energoserina", "Serophen", "DL-O-Phosphorylserine", "O-Phospho-DL-serine", "NSC 90791", "2-Amino-3-phosphonooxypropanoic acid", "2-Amino-3-(phosphonooxy)propanoic acid"], "SMILES": "C(C(C(O)=O)N)OP(=O)(O)O", "physical_data": {"Molecular Weight": "185.07", "Molecular Formula": "C3H8NO6P", "Melting Point": "166-167 \u00b0C"}}