{"cas_no": "17887-60-4", "cn_name": "\u4e8c\u7532\u82ef\u4e59\u9178\u7845", "en_name": ["Silanol, 1,1-dimethyl-1-phenyl-, 1-acetate", "Silanol, 1,1-dimethyl-1-phenyl-, 1-acetate", "Silanol, dimethylphenyl-, acetate", "Dimethylphenylacetoxysilane", "Dimethylphenylsilyl acetate", "Phenyldimethylacetoxysilane"], "SMILES": "[Si](OC(C)=O)(C)(C)C1=CC=CC=C1", "physical_data": {"Molecular Weight": "194.30", "Molecular Formula": "C10H14O2Si", "Boiling Point": "127-129 \u00b0C @ Press: 44 Torr", "Density": "1.006 g/cm\u00b3"}}