{"cas_no": "17884-88-7", "cn_name": "\u84b2\u516c\u82f1\u8d5b-14-\u70ef-3BETA,28-\u4e8c\u9187", "en_name": ["(3\u03b2,13\u03b1)-13-Methyl-27-norolean-14-ene-3,28-diol", "27-Norolean-14-ene-3,28-diol, 13-methyl-, (3\u03b2,13\u03b1)-", "D-Friedoolean-14-ene-3\u03b2,28-diol", "D-Friedoolean-14-ene-3,28-diol, (3\u03b2)-", "Myricadiol", "(3\u03b2,13\u03b1)-13-Methyl-27-norolean-14-ene-3,28-diol", "Taraxer-14-ene-3\u03b2,28-diol", "4a(2H)-Picenemethanol, 1,3,4,5,6b,7,8,8a,9,10,11,12,12a,12b,13,14,14a,14b-octadecahydro-10-hydroxy-2,2,6b,9,9,12a,14a-heptamethyl-, [4aS-(4a\u03b1,6b\u03b1,8a\u03b2,10\u03b1,12a\u03b1,12b\u03b2,14a\u03b2,14b\u03b1)]-", "4a(2H)-Picenemethanol, 1,3,4,5,6b,7,8,8a,9,10,11,12,12a,12b,13,14,14a,14b-octadecahydro-10-hydroxy-2,2,6b,9,9,12a,14a-heptamethyl-, (4aS,6bR,8aR,10S,12aR,12bR,14aS,14bS)-"], "SMILES": "CC12C(C3(C)C(CC1)C4(C)C(CC3)C(C)(C)C(O)CC4)=CCC5(CO)C2CC(C)(C)CC5", "physical_data": {"Molecular Weight": "442.72", "Molecular Formula": "C30H50O2", "Melting Point": "262-263 \u00b0C"}}