{"cas_no": "178928-70-6", "cn_name": "\u4e19\u786b\u83cc\u5511", "en_name": ["Prothioconazole", "3H-1,2,4-Triazole-3-thione, 2-[2-(1-chlorocyclopropyl)-3-(2-chlorophenyl)-2-hydroxypropyl]-1,2-dihydro-", "2-[2-(1-Chlorocyclopropyl)-3-(2-chlorophenyl)-2-hydroxypropyl]-1,2-dihydro-3H-1,2,4-triazole-3-thione", "Prothioconazole", "JAU 6476", "Proline (fungicide)", "Redigo", "Rudis", "Proline 480SC", "Joao", "Proline 275", "2-[2-(1-Chlorocyclopropyl)-3-(2-chlorophenyl)-2-hydroxypropyl]-1H-1,2,4-triazole-3-thione", "Acceleron DX 342"], "SMILES": "C(CC1=C(Cl)C=CC=C1)(CN2C(=S)NC=N2)(O)C3(Cl)CC3", "physical_data": {"Molecular Weight": "344.26", "Molecular Formula": "C14H15Cl2N3OS", "Melting Point": "139.1-144.5 \u00b0C"}}