{"cas_no": "17890-10-7", "cn_name": "\u82ef\u80fa\u7532\u57fa\u7532\u57fa\u4e8c\u7532\u6c27\u57fa\u7845\u70f7", "en_name": ["N-[(Dimethoxymethylsilyl)methyl]benzenamine", "Benzenamine, N-[(dimethoxymethylsilyl)methyl]-", "Aniline, N-[(dimethoxymethylsilyl)methyl]-", "N-[(Dimethoxymethylsilyl)methyl]benzenamine", "N-Phenylaminomethyldimethoxymethylsilane", "Geniosil XL 972", "XL 972", "(Anilinomethyl)(dimethoxy)(methyl)silane", "(N-Phenylaminomethyl)methyldimethoxysilane", "(Methyl)(phenylaminomethyl)dimethoxysilane", "\u03b1-N-Phenylaminomethyldimethoxymethylsilane", "Anilinomethylmethyldimethoxysilane"], "SMILES": "[Si](CNC1=CC=CC=C1)(OC)(OC)C", "physical_data": {"Molecular Weight": "211.33", "Molecular Formula": "C10H17NO2Si", "Boiling Point": "255 \u00b0C", "Density": "1.04 g/cm\u00b3"}}