{"cas_no": "1789-58-8", "cn_name": "\u4e59\u57fa\u4e8c\u6c2f\u7845\u70f7", "en_name": ["Dichloroethylsilane", "Silane, dichloroethyl-", "Dichloroethylsilane", "Ethyldichlorosilane", "Monoethyldichlorosilane"], "SMILES": "[SiH](CC)(Cl)Cl", "physical_data": {"Molecular Weight": "129.06", "Molecular Formula": "C2H6Cl2Si", "Boiling Point": "75.5 \u00b0C", "Melting Point": "-107 \u00b0C", "Density": "1.093 g/cm\u00b3"}}