{"cas_no": "17890-56-1", "cn_name": "1-\u82ef\u5e76\u567b\u5429-2-\u7532\u9187", "en_name": ["Benzo[b]thiophene-2-methanol", "Benzo[b]thiophene-2-methanol", "2-(Hydroxymethyl)benzo[b]thiophene", "Benzothiophene-2-methanol", "2-(Hydroxymethyl)benzothiophene", "Benzo[b]thiophen-2-ylmethanol", "1-Benzothien-2-ylmethanol", "1-(Benzo[b]thien-2-yl)methanol", "(Benzothiophen-2-yl)methanol", "Benz[b]thiophen-2-ylmethanol", "1-(Benzothiophen-2-yl)methanol"], "SMILES": "C(O)C1=CC=2C(S1)=CC=CC2", "physical_data": {"Molecular Weight": "164.22", "Molecular Formula": "C9H8OS", "Boiling Point": "108-110 \u00b0C @ Press: 4 Torr", "Melting Point": "151-153 \u00b0C"}}