{"cas_no": "17906-35-3", "cn_name": "\u4e09(\u53d4-\u4e94\u6c27\u4ee3)\u7845\u70f7\u9187", "en_name": ["Silicic acid (H4SiO4), tris(1,1-dimethylpropyl) ester", "Silicic acid (H4SiO4), tris(1,1-dimethylpropyl) ester", "tert-Pentyl alcohol, triester with silicic acid (H4SiO4)", "Tris(tert-pentyloxy)silanol", "Tris(tert-pentoxy)silanol", "Tris(2-methyl-2-butoxy)silanol"], "SMILES": "O([Si](OC(CC)(C)C)(OC(CC)(C)C)O)C(CC)(C)C", "physical_data": {"Molecular Weight": "306.51", "Molecular Formula": "C15H34O4Si", "Boiling Point": "96-99 \u00b0C @ Press: 2.5 Torr"}}