{"cas_no": "17902-23-7", "cn_name": "\u66ff\u52a0\u6c1f", "en_name": ["Tegafur", "2,4(1H,3H)-Pyrimidinedione, 5-fluoro-1-(tetrahydro-2-furanyl)-", "Uracil, 5-fluoro-1-(tetrahydro-2-furyl)-", "5-Fluoro-1-(tetrahydro-2-furanyl)-2,4(1H,3H)-pyrimidinedione", "N1-(2-Tetrahydrofuryl)-5-fluorouracil", "Fluorofur", "FT 207", "5-Fluoro-1-(tetrahydro-2-furyl)uracil", "N1-(2\u2032-Tetrahydrofuryl)-5-fluorouracil", "Futraful", "NSC 148958", "5-Fluoro-1-(2-tetrahydrofuranyl)uracil", "1-(Tetrahydro-2-furanyl)-5-fluorouracil", "Tegafur", "5-Fluoro-1-(tetrahydro-2-furanyl)-2,4-pyrimidinedione", "1-(Tetrahydro-2-furanyl)-5-fluoro-2,4-pyrimidinedione", "Fluaid", "Ftorafur", "Fluorafur", "1-(2-Tetrahydrofuryl)-5-fluorouracil", "N1-(2-Tetrahydrofuranyl)-5-fluorouracil", "5-Fluoro-1-(tetrahydro-2\u2032-furyl)uracil", "Racemic Ftorafur", "Furofutran", "Riol", "Fulaid", "Citofur", "Lamar", "Coparogin", "Fulfeel", "Neberk", "Furafluor", "Fental", "Sinoflurol", "MJF 12264", "Nitobanil", "Exonal", "Franrose", "Lifril", "Tefsiel C", "Sunfural", "TS 1", "Utefos", "MeSH ID: D005641"], "SMILES": "O=C1N(C=C(F)C(=O)N1)C2CCCO2", "physical_data": {"Molecular Weight": "200.17", "Molecular Formula": "C8H9FN2O3", "Melting Point": "171-173 \u00b0C", "Density": "1.51 g/cm\u00b3"}}