{"cas_no": "17918-14-8", "cn_name": "2,5-\u4e8c\u7532\u6c27\u57fa\u82ef\u7532\u9170\u6c2f", "en_name": ["2,5-Dimethoxybenzoyl chloride", "Benzoyl chloride, 2,5-dimethoxy-", "2,5-Dimethoxybenzoyl chloride", "2,5-Dimethoxyphenylcarbonyl chloride"], "SMILES": "C(Cl)(=O)C1=C(OC)C=CC(OC)=C1", "physical_data": {"Molecular Weight": "200.62", "Molecular Formula": "C9H9ClO3", "Boiling Point": "163-164 \u00b0C @ Press: 15 Torr", "Melting Point": "53-54 \u00b0C"}}