{"cas_no": "17916-88-0", "cn_name": "N-\u4e59\u9170-D-\u7f2c\u6c28\u9178", "en_name": ["N-Acetyl-D-valine", "D-Valine, N-acetyl-", "Valine, N-acetyl-, D-", "N-Acetyl-D-valine", "N-Acetyl-(R)-valine", "D-N-Acetylvaline", "NSC 19758", "(+)-(R)-N-Acetylvaline", "(2R)-2-Acetamido-3-methylbutanoic acid"], "SMILES": "C(NC(C)=O)(C(C)C)C(O)=O", "physical_data": {"Molecular Weight": "159.18", "Molecular Formula": "C7H13NO3", "Melting Point": "140-142 \u00b0C"}}