{"cas_no": "17912-87-7", "cn_name": "\u6768\u6885\u82f7", "en_name": ["Myricitrin", "4H-1-Benzopyran-4-one, 3-[(6-deoxy-\u03b1-L-mannopyranosyl)oxy]-5,7-dihydroxy-2-(3,4,5-trihydroxyphenyl)-", "Myricitrin", "3-[(6-Deoxy-\u03b1-L-mannopyranosyl)oxy]-5,7-dihydroxy-2-(3,4,5-trihydroxyphenyl)-4H-1-benzopyran-4-one", "Myricetin 3-rhamnoside", "Myricitroside", "Myricetin 3-O-\u03b1-L-rhamnoside", "Myricitrine", "3,3\u2032,4\u2032,5,5\u2032,7-Hexahydroxyflavone, 3-rhamnoside", "Myricetin 3-O-\u03b1-L-rhamnopyranoside", "Myricetin 3-O-rhamnoside", "Myricetin 3-O-\u03b1-rhamnopyranoside", "NSC 19803", "Myricetin-3-O-\u03b1-rhamnoside", "Myricetin 3-O-\u03b1-L-rhamnpyronoside", "Myricetin 3-O-rhamnopyranoside", "3-O-Rhamnosylmyricetin", "Myricetin-3-O-\u03b2-rhamnopyranoside"], "SMILES": "O(C1=C(OC=2C(C1=O)=C(O)C=C(O)C2)C3=CC(O)=C(O)C(O)=C3)C4C(O)C(O)C(O)C(C)O4", "physical_data": {"Molecular Weight": "464.38", "Molecular Formula": "C21H20O12", "Melting Point": "197-199 \u00b0C"}}