{"cas_no": "17913-18-7", "cn_name": "4-\u6c2f\u4e01\u57fa\u7532\u57fa\u919a", "en_name": ["1-Chloro-4-methoxybutane", "Butane, 1-chloro-4-methoxy-", "Ether, 4-chlorobutyl methyl", "1-Chloro-4-methoxybutane", "4-Chlorobutyl methyl ether", "4-Methoxy-1-chlorobutane", "\u03b4-Chlorobutyl methyl ether", "4-Methoxybutyl chloride", "Methyl 4-chlorobutyl ether", "NSC 83550"], "SMILES": "C(CCCl)COC", "physical_data": {"Molecular Weight": "122.59", "Molecular Formula": "C5H11ClO", "Boiling Point": "142.5-142.8 \u00b0C", "Density": "0.9875 g/cm\u00b3 @ Temp: 20 \u00b0C"}}