{"cas_no": "1792-17-2", "cn_name": "1,3-\u4e8c\u4e01\u57fa\u8132", "en_name": ["Dibutylurea", "Urea, N,N\u2032-dibutyl-", "Urea, 1,3-dibutyl-", "N,N\u2032-Dibutylurea", "1,3-Di-n-butylurea", "1,3-Dibutylurea", "Dibutylurea", "SRI 434-37", "N,N\u2032-Di-n-butylurea", "NSC 131939"], "SMILES": "N(C(NCCCC)=O)CCCC", "physical_data": {"Molecular Weight": "172.27", "Molecular Formula": "C9H20N2O", "Boiling Point": "115-120 \u00b0C @ Press: 5 x 10<sup>-3</sup> Torr", "Melting Point": "70.5-71.0 \u00b0C"}}