{"cas_no": "17928-28-8", "cn_name": "\u7532\u57fa\u4e09(\u4e09\u7532\u57fa\u7845\u6c27\u70f7\u57fa)\u7845\u70f7", "en_name": ["Methyltris(trimethylsiloxy)silane", "Trisiloxane, 1,1,1,3,5,5,5-heptamethyl-3-[(trimethylsilyl)oxy]-", "Trisiloxane, 1,1,1,3,5,5,5-heptamethyl-3-(trimethylsiloxy)-", "1,1,1,3,5,5,5-Heptamethyl-3-[(trimethylsilyl)oxy]trisiloxane", "Methyltris(trimethylsiloxy)silane", "1,1,1,3,5,5,5-Heptamethyl-3-(trimethylsiloxy)trisiloxane", "Tris(trimethylsiloxy)methylsilane", "TMF 1.5"], "SMILES": "O([Si](O[Si](C)(C)C)(O[Si](C)(C)C)C)[Si](C)(C)C", "physical_data": {"Molecular Weight": "310.69", "Molecular Formula": "C10H30O3Si4", "Boiling Point": "60 \u00b0C @ Press: 6 Torr", "Melting Point": "-74 \u00b0C", "Density": "0.849 g/cm\u00b3"}}