{"cas_no": "1792-81-0", "cn_name": "\u987a\u5f0f-1,2-\u73af\u5df1\u4e8c\u9187", "en_name": ["cis-1,2-Cyclohexanediol", "1,2-Cyclohexanediol, (1R,2S)-rel-", "1,2-Cyclohexanediol, cis-", "rel-(1R,2S)-1,2-Cyclohexanediol", "cis-1,2-Cyclohexanediol", "Grandidentol", "1,2-cis-Dihydroxycyclohexane", "cis-2-Hydroxycyclohexanol", "cis-1,2-Dihydroxycyclohexane", "meso-cis-1,2-Cyclohexanediol", "meso-1,2-Cyclohexanediol", "1,2-cis-Cyclohexaneanediol", "NSC 52143", "(1R,2S)-1,2-Cyclohexanediol"], "SMILES": "OC1C(O)CCCC1", "physical_data": {"Molecular Weight": "116.16", "Molecular Formula": "C6H12O2", "Boiling Point": "120 \u00b0C", "Melting Point": "100 \u00b0C"}}