{"cas_no": "17920-88-6", "cn_name": "2,2-\u4e8c(2-\u544b\u5583\u57fa)\u4e19\u70f7", "en_name": ["2,2\u2032-(1-Methylethylidene)bis[furan]", "Furan, 2,2\u2032-(1-methylethylidene)bis-", "Furan, 2,2\u2032-isopropylidenedi-", "2,2\u2032-(1-Methylethylidene)bis[furan]", "2,2-Di-2-furylpropane", "2,2-Di(2-furan)propane", "2,2-Bis(2-furyl)propane", "2-[2-(Furan-2-yl)propan-2-yl]furan"], "SMILES": "C(C)(C)(C1=CC=CO1)C2=CC=CO2", "physical_data": {"Molecular Weight": "176.21", "Molecular Formula": "C11H12O2", "Boiling Point": "85-90 \u00b0C @ Press: 13 Torr", "Melting Point": "-12 \u00b0C", "Density": "1.043 g/cm\u00b3 @ Temp: 20 \u00b0C"}}