{"cas_no": "17924-92-4", "cn_name": "\u7389\u7c73\u70ef\u916e", "en_name": ["Zearalenone", "1H-2-Benzoxacyclotetradecin-1,7(8H)-dione, 3,4,5,6,9,10-hexahydro-14,16-dihydroxy-3-methyl-, (3S,11E)-", "1H-2-Benzoxacyclotetradecin-1,7(8H)-dione, 3,4,5,6,9,10-hexahydro-14,16-dihydroxy-3-methyl-, (S)-(-)-", "Zearalenone", "1H-2-Benzoxacyclotetradecin-1,7(8H)-dione, 3,4,5,6,9,10-hexahydro-14,16-dihydroxy-3-methyl-, [S-(E)]-", "(3S,11E)-3,4,5,6,9,10-Hexahydro-14,16-dihydroxy-3-methyl-1H-2-benzoxacyclotetradecin-1,7(8H)-dione", "(-)-Zearalenone", "trans-Zearalenone", "Mycotoxin F 2", "6-(10-Hydroxy-6-oxo-trans-1-undecenyl)-\u03b2-resorcylic acid lactone", "(S)-Zearalenone", "Toxin F2", "(10S)-Zearalenone", "Zenone", "(S)-(-)-Zearalenone", "MeSH ID: D015025"], "SMILES": "OC1=C2C(=CC(O)=C1)C=CCCCC(=O)CCCC(C)OC2=O", "physical_data": {"Molecular Weight": "318.36", "Molecular Formula": "C18H22O5", "Melting Point": "164.5 \u00b0C"}}