{"cas_no": "17920-23-9", "cn_name": "\u7094\u4e19\u57fa\u4e19\u4e8c\u9178\u4e8c\u4e59\u916f", "en_name": ["Propanedioic acid, 2-(2-propyn-1-yl)-, 1,3-diethyl ester", "Propanedioic acid, 2-(2-propyn-1-yl)-, 1,3-diethyl ester", "Malonic acid, (2-propynyl)-, diethyl ester", "Propanedioic acid, 2-propynyl-, diethyl ester", "Diethyl propargylmalonate", "Diethyl 2-propargylmalonate", "Diethyl (prop-2-ynyl)malonate", "NSC 28575", "2-(Propargyl)malonic acid diethyl ester", "Diethyl prop-2-yn-1-ylmalonate", "1,3-Diethyl 2-(prop-2-yn-1-yl)propanedioate"], "SMILES": "C(C(OCC)=O)(C(OCC)=O)CC#C", "physical_data": {"Molecular Weight": "198.22", "Molecular Formula": "C10H14O4", "Boiling Point": "129 \u00b0C @ Press: 22 Torr", "Melting Point": "178 \u00b0C", "Density": "1.046 g/cm\u00b3 @ Temp: 20 \u00b0C"}}