{"cas_no": "1792-40-1", "cn_name": "2-\u7532\u57fa-5-\u785d\u57fa\u82ef\u5e76\u54aa\u5511", "en_name": ["2-Methyl-5-nitrobenzimidazole", "1H-Benzimidazole, 2-methyl-6-nitro-", "Benzimidazole, 2-methyl-5-nitro-", "1H-Benzimidazole, 2-methyl-5-nitro-", "Benzimidazole, 2-methyl-5(or 6)-nitro-", "2-Methyl-6-nitro-1H-benzimidazole", "2-Methyl-5-nitrobenzimidazole", "2-Methyl-6-nitrobenzimidazole", "5-Nitro-2-methylbenzimidazole", "NSC 38853", "2-Methyl-5-nitro-1H-benzimidazole", "2-Methyl-5-nitro-1H-benzoimidazole", "2-Methyl-5-nitro-1H-1,3-benzodiazole", "2-Methyl-6-nitro-1H-benzo[d]imidazole", "2-Methyl-5-nitro-1H-benzimidazole", "2-Methyl-6-nitro-1H-1,3-benzodiazole"], "SMILES": "N(=O)(=O)C=1C=C2C(=CC1)N=C(C)N2", "physical_data": {"Molecular Weight": "177.16", "Molecular Formula": "C8H7N3O2", "Melting Point": "223-225 \u00b0C"}}