{"cas_no": "179324-69-7", "cn_name": "\u787c\u66ff\u4f50\u7c73", "en_name": ["Bortezomib", "Boronic acid, B-[(1R)-3-methyl-1-[[(2S)-1-oxo-3-phenyl-2-[(2-pyrazinylcarbonyl)amino]propyl]amino]butyl]-", "Boronic acid, [3-methyl-1-[[1-oxo-3-phenyl-2-[(pyrazinylcarbonyl)amino]propyl]amino]butyl]-, [S-(R*,S*)]-", "Boronic acid, [(1R)-3-methyl-1-[[(2S)-1-oxo-3-phenyl-2-[(pyrazinylcarbonyl)amino]propyl]amino]butyl]-", "B-[(1R)-3-Methyl-1-[[(2S)-1-oxo-3-phenyl-2-[(2-pyrazinylcarbonyl)amino]propyl]amino]butyl]boronic acid", "PS 341", "PS 341 (pharmaceutical)", "MG 341", "LDP 341", "Bortezomib", "MLN 341", "Velcade", "NSC 681239", "DPBA", "Radiciol", "PS 314", "Brotezamide"], "SMILES": "C(CC1=CC=CC=C1)(C(NC(CC(C)C)B(O)O)=O)NC(=O)C=2C=NC=CN2", "physical_data": {"Molecular Weight": "384.24", "Molecular Formula": "C19H25BN4O4", "Melting Point": "121.2-122.7 \u00b0C"}}