{"cas_no": "17938-70-4", "cn_name": "1-\u7898-4-\u7532\u6c27\u57fa-2,3-\u4e8c\u7532\u57fa\u82ef", "en_name": ["1-Iodo-4-methoxy-2,3-dimethylbenzene", "Benzene, 1-iodo-4-methoxy-2,3-dimethyl-", "Anisole, 4-iodo-2,3-dimethyl-", "1-Iodo-4-methoxy-2,3-dimethylbenzene", "2,3-Dimethyl-4-iodoanisole", "2,3-Dimethyl-4-methoxy-1-iodobenzene"], "SMILES": "O(C)C1=C(C)C(C)=C(I)C=C1", "physical_data": {"Molecular Weight": "262.09", "Molecular Formula": "C9H11IO", "Melting Point": "39-40 \u00b0C"}}