{"cas_no": "17933-85-6", "cn_name": "\u4e8c\u82ef\u57fa\u4e59\u70ef\u57fa\u4e59\u6c27\u57fa\u7845\u70f7", "en_name": ["1,1\u2032-(Ethenylethoxysilylene)bis[benzene]", "Benzene, 1,1\u2032-(ethenylethoxysilylene)bis-", "Silane, ethenylethoxydiphenyl-", "Silane, ethoxydiphenylvinyl-", "1,1\u2032-(Ethenylethoxysilylene)bis[benzene]", "(Ethoxy)diphenylvinylsilane", "Ethenyl(ethoxy)diphenylsilane", "Vinyldiphenylethoxysilane", "Diphenylethoxyvinylsilane"], "SMILES": "[Si](OCC)(C=C)(C1=CC=CC=C1)C2=CC=CC=C2", "physical_data": {"Molecular Weight": "254.40", "Molecular Formula": "C16H18OSi", "Boiling Point": "135 \u00b0C @ Press: 13 Torr", "Density": "1.052 g/cm\u00b3"}}