{"cas_no": "17933-03-8", "cn_name": "3-\u7532\u57fa\u82ef\u787c\u9178", "en_name": ["3-Methylphenylboronic acid", "Boronic acid, B-(3-methylphenyl)-", "m-Tolueneboronic acid", "Boronic acid, (3-methylphenyl)-", "B-(3-Methylphenyl)boronic acid", "m-Tolylboronic acid", "m-Methylbenzeneboronic acid", "m-Tolyldihydroxyborane", "m-Methylphenylboronic acid", "3-Methylphenylboronic acid", "m-Boronotoluene", "3-Methylbenzeneboronic acid", "3-Tolylboronic acid"], "SMILES": "B(O)(O)C1=CC(C)=CC=C1", "physical_data": {"Molecular Weight": "135.96", "Molecular Formula": "C7H9BO2", "Melting Point": "157 \u00b0C"}}