{"cas_no": "179324-87-9", "cn_name": "(aR,3aS,4S,6S,7aR)-\u516d\u6c22-3a,8,8-\u4e09\u7532\u57fa-alpha-(2-\u7532\u57fa\u4e19\u57fa)-4,6-\u7532\u6865-1,3,2-\u82ef\u5e76\u4e8c\u6c27\u787c\u70f7-2-\u7532\u80fa 2,2,2-\u4e09\u6c1f\u4e59\u9178\u76d0", "en_name": ["4,6-Methano-1,3,2-benzodioxaborole-2-methanamine, hexahydro-3a,8,8-trimethyl-\u03b1-(2-methylpropyl)-, (\u03b1R,3aS,4S,6S,7aR)-, 2,2,2-trifluoroacetate (1:1)", "4,6-Methano-1,3,2-benzodioxaborole-2-methanamine, hexahydro-3a,8,8-trimethyl-\u03b1-(2-methylpropyl)-, (\u03b1R,3aS,4S,6S,7aR)-, 2,2,2-trifluoroacetate (1:1)", "4,6-Methano-1,3,2-benzodioxaborole-2-methanamine, hexahydro-3a,5,5-trimethyl-\u03b1-(2-methylpropyl)-, [3aS-[2(S*),3a\u03b1,4\u03b2,6\u03b2,7a\u03b1]]-, trifluoroacetate", "4,6-Methano-1,3,2-benzodioxaborole-2-methanamine, hexahydro-3a,5,5-trimethyl-\u03b1-(2-methylpropyl)-, (\u03b1R,3aS,4S,6S,7aR)-, trifluoroacetate"], "SMILES": "C(C(O)=O)(F)(F)F.CC12C3C(C)(C)C(C3)CC1OB(C(CC(C)C)N)O2", "physical_data": {"Molecular Weight": "", "Molecular Formula": "C15H28BNO2.C2HF3O2", "Melting Point": "197-198 \u00b0C"}}