{"cas_no": "17949-65-4", "cn_name": "2-\u5421\u5576\u7532\u9178\u950c", "en_name": ["Zinc picolinate", "Zinc, bis(2-pyridinecarboxylato-\u03baN1,\u03baO2)-, (T-4)-", "Zinc, bis(2-pyridinecarboxylato-N1,O2)-, (T-4)-", "Zinc, bis(picolinato)-", "Picolinic acid, zinc complex", "2-Pyridinecarboxylic acid, zinc complex", "(T-4)-Bis(2-pyridinecarboxylato-\u03baN1,\u03baO2)zinc", "Zinc picolinate", "Bis(picolinato)zinc"], "SMILES": "O=C1[O-][Zn+2]2([N]=3C(C(=O)[O-]2)=CC=CC3)[N]=4C1=CC=CC4", "physical_data": {"Molecular Weight": "", "Molecular Formula": "C12H8N2O4Zn", "Melting Point": "222-225 \u00b0C (decomp)"}}