{"cas_no": "17945-05-0", "cn_name": "[3-(\u4e09\u4e59\u6c27\u57fa\u7845\u57fa)\u4e19\u57fa]\u6c28\u57fa\u7532\u9178\u4e59\u916f", "en_name": ["Ethyl 3-(triethoxysilyl)propylcarbamate", "Carbamic acid, N-[3-(triethoxysilyl)propyl]-, ethyl ester", "Carbamic acid, [3-(triethoxysilyl)propyl]-, ethyl ester", "Ethyl 3-(triethoxysilyl)propylcarbamate", "Ethyl \u03b3-triethoxysilylpropylcarbamate", "Y 15272", "Ethanol-3-isocyanatopropyltriethoxysilane urethane adduct (1:1)", "SIT 8188.0"], "SMILES": "[Si](CCCNC(OCC)=O)(OCC)(OCC)OCC", "physical_data": {"Molecular Weight": "293.43", "Molecular Formula": "C12H27NO5Si", "Boiling Point": "124-126 \u00b0C @ Press: 0.5 Torr", "Density": "1.015 g/cm\u00b3"}}