{"cas_no": "1794-24-7", "cn_name": "\u53cc(\u4e8c\u4e59\u57fa\u80fa\u57fa)\u78f7\u9170\u6c2f", "en_name": ["N,N,N\u2032,N\u2032-Tetraethylphosphorodiamidic chloride", "Phosphorodiamidic chloride, N,N,N\u2032,N\u2032-tetraethyl-", "Phosphorodiamidic chloride, tetraethyl-", "N,N,N\u2032,N\u2032-Tetraethylphosphorodiamidic chloride", "Tetraethylphosphorodiamidoyl chloride", "Tetraethylphosphorodiamidic chloride", "Chlorobis(diethylamino)phosphine oxide"], "SMILES": "P(N(CC)CC)(N(CC)CC)(Cl)=O", "physical_data": {"Molecular Weight": "226.68", "Molecular Formula": "C8H20ClN2OP", "Boiling Point": "136 \u00b0C @ Press: 10 Torr", "Density": "1.0706 g/cm\u00b3 @ Temp: 20 \u00b0C"}}