{"cas_no": "1794-89-4", "cn_name": "9,10,12,13-\u56db\u6eb4\u5341\u516b\u9178", "en_name": ["9,10,12,13-Tetrabromooctadecanoic acid", "Octadecanoic acid, 9,10,12,13-tetrabromo-", "9,10,12,13-Tetrabromooctadecanoic acid", "9,10,12,13-Tetrabromostearic acid", "NSC 148709"], "SMILES": "C(C(C(CCCCCCCC(O)=O)Br)Br)C(C(CCCCC)Br)Br", "physical_data": {"Molecular Weight": "600.06", "Molecular Formula": "C18H32Br4O2", "Melting Point": "115 \u00b0C"}}