{"cas_no": "17948-42-4", "cn_name": "(6S,7R)-6,7-\u4e8c\u6c22-7-\u7532\u57fa-5H-\u73af\u620a\u5e76[C]\u5421\u5576-6-\u9187", "en_name": ["(6S,7R)-6,7-Dihydro-7-methyl-5H-cyclopenta[c]pyridin-6-ol", "5H-Cyclopenta[c]pyridin-6-ol, 6,7-dihydro-7-methyl-, (6S,7R)-", "Venoterpine", "5H-Cyclopenta[c]pyridin-6-ol, 6,7-dihydro-7-methyl-, (6S-cis)-", "(6S,7R)-6,7-Dihydro-7-methyl-5H-cyclopenta[c]pyridin-6-ol", "Alkaloid RW 47"], "SMILES": "CC1C=2C(CC1O)=CC=NC2", "physical_data": {"Molecular Weight": "149.19", "Molecular Formula": "C9H11NO", "Melting Point": "130-132 \u00b0C"}}