{"cas_no": "179528-45-1", "cn_name": "PD 150606", "en_name": ["(2Z)-3-(4-Iodophenyl)-2-mercapto-2-propenoic acid", "2-Propenoic acid, 3-(4-iodophenyl)-2-mercapto-, (2Z)-", "2-Propenoic acid, 3-(4-iodophenyl)-2-mercapto-, (Z)-", "(2Z)-3-(4-Iodophenyl)-2-mercapto-2-propenoic acid", "PD 150606"], "SMILES": "C(=C(C(O)=O)S)C1=CC=C(I)C=C1", "physical_data": {"Molecular Weight": "306.12", "Molecular Formula": "C9H7IO2S", "Melting Point": "160 \u00b0C"}}