{"cas_no": "1795-18-2", "cn_name": "\u6b63\u5341\u56db\u70f7\u57fa\u73af\u5df1\u70f7", "en_name": ["Tetradecylcyclohexane", "Cyclohexane, tetradecyl-", "Tetradecane, 1-cyclohexyl-", "Tetradecylcyclohexane", "n-Tetradecylcyclohexane", "1-Cyclohexyltetradecane"], "SMILES": "C(CCCCCCCCCCCCC)C1CCCCC1", "physical_data": {"Molecular Weight": "280.53", "Molecular Formula": "C20H40", "Boiling Point": "360 \u00b0C", "Melting Point": "24 \u00b0C", "Density": "0.8258 g/cm\u00b3 @ Temp: 20 \u00b0C"}}