{"cas_no": "1795-17-1", "cn_name": "\u6b63\u5341\u4e8c\u70f7\u57fa\u73af\u5df1\u70f7", "en_name": ["Dodecylcyclohexane", "Cyclohexane, dodecyl-", "Dodecane, 1-cyclohexyl-", "Dodecylcyclohexane", "n-Dodecylcyclohexane", "1-Cyclohexyldodecane"], "SMILES": "C(CCCCCCCCCCC)C1CCCCC1", "physical_data": {"Molecular Weight": "252.48", "Molecular Formula": "C18H36", "Boiling Point": "331 \u00b0C", "Melting Point": "12.5 \u00b0C", "Density": "0.8250 g/cm\u00b3 @ Temp: 20 \u00b0C"}}