{"cas_no": "1795-15-9", "cn_name": "\u6b63\u8f9b\u57fa\u73af\u5df1\u70f7", "en_name": ["Octylcyclohexane", "Cyclohexane, octyl-", "Octane, 1-cyclohexyl-", "Octylcyclohexane", "n-Octylcyclohexane", "1-Cyclohexyloctane", "NSC 174942"], "SMILES": "C(CCCCCCC)C1CCCCC1", "physical_data": {"Molecular Weight": "196.37", "Molecular Formula": "C14H28", "Boiling Point": "264 \u00b0C", "Melting Point": "-20 \u00b0C", "Density": "0.815 g/cm\u00b3 @ Temp: 20 \u00b0C"}}