{"cas_no": "1795-16-0", "cn_name": "\u6b63\u7678\u57fa\u73af\u5df1\u70f7", "en_name": ["Decylcyclohexane", "Cyclohexane, decyl-", "Decane, 1-cyclohexyl-", "Decylcyclohexane", "1-Decylcyclohexane", "n-Decylcyclohexane", "1-Cyclohexyldecane", "NSC 74192"], "SMILES": "C(CCCCCCCCC)C1CCCCC1", "physical_data": {"Molecular Weight": "224.43", "Molecular Formula": "C16H32", "Boiling Point": "299 \u00b0C", "Melting Point": "-1.7 \u00b0C", "Density": "0.8167 g/cm\u00b3 @ Temp: 20 \u00b0C"}}