{"cas_no": "1795-05-7", "cn_name": "2,3,5-\u4e09\u7532\u57fa\u567b\u5429", "en_name": ["2,3,5-Trimethylthiophene", "Thiophene, 2,3,5-trimethyl-", "2,3,5-Trimethylthiophene"], "SMILES": "CC1=C(C)SC(C)=C1", "physical_data": {"Molecular Weight": "126.22", "Molecular Formula": "C7H10S", "Boiling Point": "164.5 \u00b0C", "Density": "0.9753 g/cm\u00b3 @ Temp: 20 \u00b0C"}}