{"cas_no": "1795-09-1", "cn_name": "2-\u7532\u57fa\u56db\u6c22\u567b\u5429", "en_name": ["2-Methyltetrahydrothiophene", "Thiophene, tetrahydro-2-methyl-", "Tetrahydro-2-methylthiophene", "2-Methylthiacyclopentane", "2-Methyltetrahydrothiophene", "2-Methylthiolane", "2-Methylthiophane", "(\u00b1)-2-Methylthiolane"], "SMILES": "CC1CCCS1", "physical_data": {"Molecular Weight": "102.20", "Molecular Formula": "C5H10S", "Boiling Point": "134 \u00b0C", "Melting Point": "-100.7 \u00b0C", "Density": "0.9583 g/cm\u00b3 @ Temp: 20 \u00b0C"}}