{"cas_no": "17955-88-3", "cn_name": "1,1,1,3,5,5,5-\u5e9a\u7532\u57fa-3-\u8f9b\u57fa\u4e09\u7845\u6c27\u70f7", "en_name": ["Caprylyl methicone", "Trisiloxane, 1,1,1,3,5,5,5-heptamethyl-3-octyl-", "1,1,1,3,5,5,5-Heptamethyl-3-octyltrisiloxane", "Heptamethyloctyltrisiloxane", "Silsoft 034", "SilCare 41M15", "Caprylyl methicone", "SS 3408", "Silsoft 034 Silicone", "3-Octylheptamethyltrisiloxane", "Dow Corning FZ 3196", "FZ 3196", "Dowsil FZ 3196"], "SMILES": "[Si](O[Si](C)(C)C)(O[Si](C)(C)C)(CCCCCCCC)C", "physical_data": {"Molecular Weight": "334.72", "Molecular Formula": "C15H38O2Si3", "Boiling Point": "84-88 \u00b0C @ Press: 0.3 Torr"}}