{"cas_no": "1795-01-3", "cn_name": "3-\u4e59\u57fa\u567b\u5429", "en_name": ["3-Ethylthiophene", "Thiophene, 3-ethyl-", "3-Ethylthiophene"], "SMILES": "C(C)C=1C=CSC1", "physical_data": {"Molecular Weight": "112.19", "Molecular Formula": "C6H8S", "Boiling Point": "136 \u00b0C", "Melting Point": "-89.1 \u00b0C"}}