{"cas_no": "1795-48-8", "cn_name": "\u5f02\u6c30\u9178\u5f02\u4e19\u916f", "en_name": ["Isopropyl isocyanate", "Propane, 2-isocyanato-", "Isocyanic acid, isopropyl ester", "2-Isocyanatopropane", "Isopropyl isocyanate", "1-Methylethyl isocyanate", "n-Isopropyl isocyanate", "Propan-2-yl isocyanate", "Methyl ethyl isocyanate"], "SMILES": "N(C(C)C)=C=O", "physical_data": {"Molecular Weight": "85.10", "Molecular Formula": "C4H7NO", "Boiling Point": "74.5 \u00b0C"}}