{"cas_no": "17957-94-7", "cn_name": "(+)-\u8584\u8377\u544b\u5583", "en_name": ["(+)-Menthofuran", "Benzofuran, 4,5,6,7-tetrahydro-3,6-dimethyl-, (6R)-", "p-Mentha-3,8-diene, 3,9-epoxy-, (+)-", "Benzofuran, 4,5,6,7-tetrahydro-3,6-dimethyl-, (R)-", "(6R)-4,5,6,7-Tetrahydro-3,6-dimethylbenzofuran", "(+)-Menthofuran", "(R)-(+)-Menthofuran", "(R)-Menthofuran", "(R)-3,6-Dimethyl-4,5,6,7-tetrahydrobenzofuran", "(6R)-3,6-Dimethyl-4,5,6,7-tetrahydro-1-benzofuran"], "SMILES": "CC=1C2=C(OC1)CC(C)CC2", "physical_data": {"Molecular Weight": "150.22", "Molecular Formula": "C10H14O", "Boiling Point": "72-73 \u00b0C @ Press: 10 Torr"}}