{"cas_no": "1795-31-9", "cn_name": "\u4e09\uff08\u4e09\u7532\u4ee3\u7532\u7845\u70f7\u57fa\uff09\u4e9a\u78f7\u9178\u76d0", "en_name": ["Silanol, 1,1,1-trimethyl-, 1,1\u2032,1\u2032\u2032-phosphite", "Silanol, 1,1,1-trimethyl-, 1,1\u2032,1\u2032\u2032-phosphite", "Silanol, trimethyl-, phosphite (3:1)", "Silanol, trimethyl-, phosphite", "Trimethylsilanol phosphite", "Tris(trimethylsilyl) phosphite", "Tris(trimethylsilyloxy)phosphine"], "SMILES": "O(P(O[Si](C)(C)C)O[Si](C)(C)C)[Si](C)(C)C", "physical_data": {"Molecular Weight": "298.54", "Molecular Formula": "C9H27O3PSi3", "Boiling Point": "90-92 \u00b0C @ Press: 20 Torr", "Density": "0.893 g/cm\u00b3"}}