{"cas_no": "17952-82-8", "cn_name": "1,2,3,4-\u56db\u7f9f\u57fa\u53bb\u7532\u54c8\u5c14\u6ee1-1-\u916e", "en_name": ["2,3,4,9-Tetrahydro-1H-pyrido[3,4-b]indol-1-one", "1H-Pyrido[3,4-b]indol-1-one, 2,3,4,9-tetrahydro-", "2,3,4,9-Tetrahydro-1H-pyrido[3,4-b]indol-1-one", "1-Oxo-1,2,3,4-tetrahydro-\u03b2-carboline", "1,2,3,4-Tetrahydro-1-oxo-\u03b2-carboline", "1,2,3,4-Tetrahydronorharman-1-one", "NSC 147829", "2,3,4,9-Tetrahydro-\u03b2-carbolin-1-one", "1H,2H,3H,4H,9H-Pyrido[3,4-b]indol-1-one", "2,3,4,9-Tetrahydropyrido[3,4-b]indol-1-one"], "SMILES": "O=C1C2=C(C=3C(N2)=CC=CC3)CCN1", "physical_data": {"Molecular Weight": "186.21", "Molecular Formula": "C11H10N2O", "Melting Point": "183-185 \u00b0C"}}