{"cas_no": "17962-34-4", "cn_name": "\u4e59\u70ef\u57fa\u5c01\u7aefT\u578b\u82ef\u57fa\u805a\u7845\u6c27\u70f7", "en_name": ["1,1,3,5,5-Pentamethyl-3-phenyltrisiloxane", "Trisiloxane, 1,1,3,5,5-pentamethyl-3-phenyl-", "1,1,3,5,5-Pentamethyl-3-phenyltrisiloxane", "3-Phenyl-1,1,3,5,5-pentamethyltrisiloxane"], "SMILES": "[Si](O[SiH](C)C)(O[SiH](C)C)(C)C1=CC=CC=C1", "physical_data": {"Molecular Weight": "270.55", "Molecular Formula": "C11H22O2Si3", "Boiling Point": "88 \u00b0C @ Press: 6 Torr", "Density": "1.023 g/cm\u00b3 @ Temp: 25 \u00b0C"}}