{"cas_no": "17965-78-5", "cn_name": "3-\u6eb4-1,8-\u8418\u5576", "en_name": ["3-Bromo-1,8-naphthyridine", "1,8-Naphthyridine, 3-bromo-", "3-Bromo-1,8-naphthyridine"], "SMILES": "BrC1=CC2=C(N=C1)N=CC=C2", "physical_data": {"Molecular Weight": "209.04", "Molecular Formula": "C8H5BrN2", "Melting Point": "164-166 \u00b0C"}}