{"cas_no": "17965-82-1", "cn_name": "8-\u6c28\u57fa-1,7-\u8418\u5576", "en_name": ["1,7-Naphthyridin-8-amine", "1,7-Naphthyridin-8-amine", "1,7-Naphthyridine, 8-amino-", "8-Amino-1,7-naphthyridine"], "SMILES": "NC=1C2=C(C=CN1)C=CC=N2", "physical_data": {"Molecular Weight": "145.16", "Molecular Formula": "C8H7N3", "Melting Point": "168-169 \u00b0C"}}