{"cas_no": "179688-27-8", "cn_name": "4,5-\u4e8c(2-\u7532\u6c27\u57fa\u4e59\u6c27\u57fa)-2-\u6c28\u57fa\u82ef\u7532\u9178\u4e59\u916f", "en_name": ["Benzoic acid, 2-amino-4,5-bis(2-methoxyethoxy)-, ethyl ester", "Benzoic acid, 2-amino-4,5-bis(2-methoxyethoxy)-, ethyl ester", "Ethyl 2-amino-4,5-bis(2-methoxyethoxy)benzoate", "4,5-Bis(2-methoxyethoxy)anthranilic acid ethyl ester", "2-Amino-4,5-bis(2-methoxyethoxy)benzoic acid ethyl ester", "Ethyl 4,5-bis-(2-methoxyethoxy)-2-aminobenzoate"], "SMILES": "O(CCOC)C1=C(OCCOC)C=C(N)C(C(OCC)=O)=C1", "physical_data": {"Molecular Weight": "313.35", "Molecular Formula": "C15H23NO6", "Melting Point": "61-63 \u00b0C"}}