{"cas_no": "179687-79-7", "cn_name": "2-[(2-\u6c2f-4-\u785d\u57fa\u82ef\u6c27\u57fa)\u7532\u57fa]\u5421\u5576", "en_name": ["2-[(2-Chloro-4-nitrophenoxy)methyl]pyridine", "Pyridine, 2-[(2-chloro-4-nitrophenoxy)methyl]-", "2-[(2-Chloro-4-nitrophenoxy)methyl]pyridine", "3-Chloro-4-(2-pyridinylmethoxy)-1-nitrobenzene", "3-Chloro-4-(2-pyridylmethyloxy)nitrobenzene", "3-Chloro-4-[(2-pyridyl)methoxy]nitrobenzene"], "SMILES": "O(CC1=CC=CC=N1)C2=C(Cl)C=C(N(=O)=O)C=C2", "physical_data": {"Molecular Weight": "264.66", "Molecular Formula": "C12H9ClN2O3", "Melting Point": "149.2-149.9 \u00b0C"}}