{"cas_no": "1796-84-5", "cn_name": "4-\u4e59\u6c27\u57fa-3-\u785d\u57fa\u5421\u5576", "en_name": ["4-Ethoxy-3-nitropyridine", "Pyridine, 4-ethoxy-3-nitro-", "4-Ethoxy-3-nitropyridine", "3-Nitro-4-ethoxypyridine", "NSC 611545"], "SMILES": "N(=O)(=O)C=1C(OCC)=CC=NC1", "physical_data": {"Molecular Weight": "168.15", "Molecular Formula": "C7H8N2O3", "Melting Point": "49-50 \u00b0C"}}