{"cas_no": "17969-20-9", "cn_name": "\u6c2f\u82ef\u567b\u5511\u4e59\u9178", "en_name": ["Fenclozic acid", "4-Thiazoleacetic acid, 2-(4-chlorophenyl)-", "4-Thiazoleacetic acid, 2-(p-chlorophenyl)-", "2-(4-Chlorophenyl)-4-thiazoleacetic acid", "ICI 54450", "2-(4-Chlorophenyl)thiazol-4-ylacetic acid", "Myalex", "Fenclozic acid", "2-(p-Chlorophenyl)-4-thiazoleacetic acid", "2-(p-Chlorophenyl)thiazol-4-ylacetic acid", "Acidum fenclozicum", "Mialex", "[2-(4-Chlorophenyl)-1,3-thiazol-4-yl]acetic acid", "2-[2-(4-Chlorophenyl)-1,3-thiazol-4-yl]acetic acid", "2-(2-(4-Chlorophenyl)thiazol-4-yl)aceticacid"], "SMILES": "C(C(O)=O)C=1N=C(SC1)C2=CC=C(Cl)C=C2", "physical_data": {"Molecular Weight": "253.70", "Molecular Formula": "C11H8ClNO2S", "Melting Point": "155-156 \u00b0C"}}