{"cas_no": "179688-52-9", "cn_name": "6-\u7f9f\u57fa-7-\u7532\u6c27\u57fa-3H-\u55b9\u5511\u5549-4-\u916e", "en_name": ["6-Hydroxy-7-methoxy-4(3H)-quinazolinone", "4(3H)-Quinazolinone, 6-hydroxy-7-methoxy-", "4(1H)-Quinazolinone, 6-hydroxy-7-methoxy-", "6-Hydroxy-7-methoxy-4(3H)-quinazolinone", "6-Hydroxy-7-methoxy-3,4-dihydroquinazolin-4-one", "7-Methoxyquinazoline-4,6-diol", "6-Hydroxy-7-methoxyquinazolin-4(3H)-one"], "SMILES": "O=C1C=2C(=CC(OC)=C(O)C2)NC=N1", "physical_data": {"Molecular Weight": "192.17", "Molecular Formula": "C9H8N2O3", "Melting Point": "293 \u00b0C"}}