{"cas_no": "17963-04-1", "cn_name": "(3-\u73af\u6c27\u4e19\u6c27\u57fa\u4e19\u57fa)\u4e8c\u7532\u57fa\u4e59\u6c27\u57fa\u7845\u70f7", "en_name": ["\u03b3-Glycidyloxypropyldimethylethoxysilane", "Oxirane, 2-[[3-(ethoxydimethylsilyl)propoxy]methyl]-", "Silane, [3-(2,3-epoxypropoxy)propyl]ethoxydimethyl-", "Silane, ethoxydimethyl[3-(oxiranylmethoxy)propyl]-", "2-[[3-(Ethoxydimethylsilyl)propoxy]methyl]oxirane", "3-[(Glycidyloxy)propyl]dimethylethoxysilane", "\u03b3-Glycidyloxypropyldimethylethoxysilane", "Ethoxydimethyl[3-(oxiran-2-ylmethoxy)propyl]silane"], "SMILES": "C(OCCC[Si](OCC)(C)C)C1CO1", "physical_data": {"Molecular Weight": "218.37", "Molecular Formula": "C10H22O3Si", "Boiling Point": "100 \u00b0C @ Press: 3 Torr"}}