{"cas_no": "17965-80-9", "cn_name": "1,5-\u8418\u5576-2-\u80fa", "en_name": ["1,5-Naphthyridin-2-amine", "1,5-Naphthyridin-2-amine", "1,5-Naphthyridine, 2-amino-", "2-Amino-1,5-naphthyridine"], "SMILES": "NC1=NC2=C(C=C1)N=CC=C2", "physical_data": {"Molecular Weight": "145.16", "Molecular Formula": "C8H7N3", "Melting Point": "204-205 \u00b0C"}}