{"cas_no": "179688-29-0", "cn_name": "6,7-\u4e8c\u7532\u6c27\u4e59\u6c27\u57fa\u55b9\u5511\u5549-4-\u916e", "en_name": ["6,7-Bis(2-methoxyethoxy)quinazolin-4(3H)-one", "4(3H)-Quinazolinone, 6,7-bis(2-methoxyethoxy)-", "4(1H)-Quinazolinone, 6,7-bis(2-methoxyethoxy)-", "6,7-Bis(2-methoxyethoxy)-4(3H)-quinazolinone", "6,7-Di(2-methoxyethoxy)-3,4-dihydroquinazolin-4-one", "6,7-Bis(2-methoxyethoxy)-3,4-dihydroquinazolin-4-one", "6,7-Bis(2-methoxyethoxy)quinazolin-4(3H)-one", "6,7-Bis(2-methoxyethoxy)-quinazoline-4(3H)-one"], "SMILES": "O=C1C=2C(=CC(OCCOC)=C(OCCOC)C2)NC=N1", "physical_data": {"Molecular Weight": "294.30", "Molecular Formula": "C14H18N2O5", "Melting Point": "182 \u00b0C"}}