{"cas_no": "17966-67-5", "cn_name": "N-\u82ef\u7532\u9170\u4eae\u6c28\u9178", "en_name": ["N-Benzoyl-DL-leucine", "Leucine, N-benzoyl-", "Leucine, N-benzoyl-, DL-", "DL-Leucine, N-benzoyl-", "N-Benzoylleucine", "N-Benzoyl-DL-leucine", "Benzoyl-DL-leucine", "DL-N-Benzoylleucine", "DL-Bz-Leucine", "NSC 164029", "2-Benzamido-4-methylpentanoicacid", "2-Benzoylamino-4-methyl-pentanoic acid"], "SMILES": "C(NC(CC(C)C)C(O)=O)(=O)C1=CC=CC=C1", "physical_data": {"Molecular Weight": "235.28", "Molecular Formula": "C13H17NO3", "Melting Point": "135-137 \u00b0C"}}