{"cas_no": "1797-74-6", "cn_name": "\u82ef\u4e59\u9178-2-\u4e19\u70ef\u916f", "en_name": ["2-Propen-1-yl benzeneacetate", "Benzeneacetic acid, 2-propen-1-yl ester", "Acetic acid, phenyl-, allyl ester", "Benzeneacetic acid, 2-propenyl ester", "2-Propen-1-yl benzeneacetate", "Allyl phenylacetate", "NSC 6574", "Allyl 2-phenylethanoate"], "SMILES": "C(C(OCC=C)=O)C1=CC=CC=C1", "physical_data": {"Molecular Weight": "176.21", "Molecular Formula": "C11H12O2", "Melting Point": "93-97 \u00b0C"}}