{"cas_no": "1798-50-1", "cn_name": "\u76d0\u9178\u82ef\u54cc\u9187", "en_name": ["4-Piperidinemethanol, \u03b1,\u03b1-diphenyl-, hydrochloride (1:1)", "4-Piperidinemethanol, \u03b1,\u03b1-diphenyl-, hydrochloride (1:1)", "4-Piperidinemethanol, \u03b1,\u03b1-diphenyl-, hydrochloride", "Azacyclonol hydrochloride", "\u03b1,\u03b1-Diphenyl-4-piperidinemethanol hydrochloride", "Frenquel hydrochloride", "Frenquel", "Diphenyl(4-piperidyl)methanol hydrochloride"], "SMILES": "C(O)(C1=CC=CC=C1)(C2=CC=CC=C2)C3CCNCC3.Cl", "physical_data": {"Molecular Weight": "", "Molecular Formula": "C18H21NO.ClH", "Melting Point": "283-285 \u00b0C"}}