{"cas_no": "1798-11-4", "cn_name": "4-\u785d\u57fa\u82ef\u6c27\u4e59\u9178", "en_name": ["(4-Nitrophenoxy)acetic acid", "Acetic acid, 2-(4-nitrophenoxy)-", "Acetic acid, (p-nitrophenoxy)-", "Acetic acid, (4-nitrophenoxy)-", "2-(4-Nitrophenoxy)acetic acid", "(p-Nitrophenoxy)acetic acid", "Ba 2690", "(4-Nitrophenoxy)acetic acid", "\u03b1-(4-Nitrophenoxy)acetic acid", "NSC 166278"], "SMILES": "N(=O)(=O)C1=CC=C(OCC(O)=O)C=C1", "physical_data": {"Molecular Weight": "197.14", "Molecular Formula": "C8H7NO5", "Melting Point": "183 \u00b0C"}}