{"cas_no": "179897-89-3", "cn_name": "2-\u6c1f-5-\u6eb4\u82ef\u8148", "en_name": ["5-Bromo-2-fluorobenzonitrile", "Benzonitrile, 5-bromo-2-fluoro-", "5-Bromo-2-fluorobenzonitrile", "3-Bromo-6-fluorobenzonitrile", "3-Cyano-4-fluorobromobenzene", "2-Fluoro-5-bromobenzonitrile"], "SMILES": "C(#N)C1=C(F)C=CC(Br)=C1", "physical_data": {"Molecular Weight": "200.01", "Molecular Formula": "C7H3BrFN", "Melting Point": "75-77 \u00b0C"}}