{"cas_no": "17980-47-1", "cn_name": "\u5f02\u4e01\u57fa\u4e09\u4e59\u6c27\u57fa\u7845\u70f7", "en_name": ["Isobutyltriethoxysilane", "Silane, triethoxy(2-methylpropyl)-", "Silane, triethoxyisobutyl-", "Triethoxy(2-methylpropyl)silane", "Isobutyltriethoxysilane", "Dynasylan BSM 100N", "Dynasylan BSM 40N", "Dynasylan IBTEO", "Z 6403", "Triethoxyisobutylsilane", "Sicong SP 205", "Xiameter OFS 6403", "DB-H 358"], "SMILES": "[Si](CC(C)C)(OCC)(OCC)OCC", "physical_data": {"Molecular Weight": "220.38", "Molecular Formula": "C10H24O3Si", "Boiling Point": "190-191 \u00b0C", "Density": "0.910 g/cm\u00b3"}}