{"cas_no": "1798-83-0", "cn_name": "1-(4-\u6c2f\u82ef\u57fa)-3-\u4e8c\u7532\u80fa\u57fa-1-\u4e19\u916e\u76d0\u9178\u76d0", "en_name": ["1-Propanone, 1-(4-chlorophenyl)-3-(dimethylamino)-, hydrochloride (1:1)", "1-Propanone, 1-(4-chlorophenyl)-3-(dimethylamino)-, hydrochloride (1:1)", "Propiophenone, 4\u2032-chloro-3-(dimethylamino)-, hydrochloride", "1-Propanone, 1-(4-chlorophenyl)-3-(dimethylamino)-, hydrochloride", "4\u2032-Chloro-3-(dimethylamino)propiophenone hydrochloride", "NSC 692749", "1-(4-Chlorophenyl)-3-dimethylaminopropan-1-one hydrochloride"], "SMILES": "C(CCN(C)C)(=O)C1=CC=C(Cl)C=C1.Cl", "physical_data": {"Molecular Weight": "", "Molecular Formula": "C11H14ClNO.ClH", "Melting Point": "174-175 \u00b0C"}}