{"cas_no": "17980-64-2", "cn_name": "6-(2-\u7532\u6c27\u4e59\u6c27\u57fa)-6-\u7532\u57fa-2,5,7,10-\u56db\u6c27\u6742-6-\u7845\u6742\u7678\u70f7", "en_name": ["6-(2-Methoxyethoxy)-6-methyl-2,5,7,10-tetraoxa-6-silaundecane", "2,5,7,10-Tetraoxa-6-silaundecane, 6-(2-methoxyethoxy)-6-methyl-", "Silane, tris(2-methoxyethoxy)methyl-", "6-(2-Methoxyethoxy)-6-methyl-2,5,7,10-tetraoxa-6-silaundecane", "Methyltris(2-methoxyethoxy)silane", "Tris(2-methoxyethoxy)methylsilane", "Methyltris(methoxyethoxy)silane", "LS 3660", "NSC 77102"], "SMILES": "[Si](OCCOC)(OCCOC)(OCCOC)C", "physical_data": {"Molecular Weight": "268.38", "Molecular Formula": "C10H24O6Si", "Boiling Point": "145 \u00b0C @ Press: 15 Torr", "Density": "1.045 g/cm\u00b3"}}