{"cas_no": "179897-94-0", "cn_name": "5-\u6c1f-2-\u7532\u6c27\u57fa\u82ef\u787c\u9178", "en_name": ["5-Fluoro-2-methoxyphenylboronic acid", "Boronic acid, B-(5-fluoro-2-methoxyphenyl)-", "Boronic acid, (5-fluoro-2-methoxyphenyl)-", "B-(5-Fluoro-2-methoxyphenyl)boronic acid", "5-Fluoro-2-methoxyphenylboronic acid", "2-Methoxy-5-fluorophenylboronic acid"], "SMILES": "B(O)(O)C1=C(OC)C=CC(F)=C1", "physical_data": {"Molecular Weight": "169.95", "Molecular Formula": "C7H8BFO3", "Melting Point": "156-158 \u00b0C"}}