{"cas_no": "179897-95-1", "cn_name": "4-\u6eb4-2-\u6c2f-5-\u7532\u57fa\u82ef\u7532\u919a", "en_name": ["1-Bromo-5-chloro-4-methoxy-2-methylbenzene", "Benzene, 1-bromo-5-chloro-4-methoxy-2-methyl-", "1-Bromo-5-chloro-4-methoxy-2-methylbenzene", "4-Bromo-2-chloro-5-methylanisole"], "SMILES": "O(C)C1=C(Cl)C=C(Br)C(C)=C1", "physical_data": {"Molecular Weight": "235.51", "Molecular Formula": "C8H8BrClO", "Melting Point": "55 \u00b0C"}}