{"cas_no": "1798-04-5", "cn_name": "4-\u53d4-\u4e01\u57fa\u82ef\u6c27\u57fa\u4e59\u9178", "en_name": ["2-[4-(1,1-Dimethylethyl)phenoxy]acetic acid", "Acetic acid, 2-[4-(1,1-dimethylethyl)phenoxy]-", "Acetic acid, (p-tert-butylphenoxy)-", "Acetic acid, [4-(1,1-dimethylethyl)phenoxy]-", "2-[4-(1,1-Dimethylethyl)phenoxy]acetic acid", "4-tert-Butylphenoxyacetic acid", "(p-tert-Butylphenoxy)acetic acid", "NSC 8481", "[(4-tert-Butylphenyl)oxy]acetic acid", "2-(4-(tert-Butyl)phenoxy)acetic acid", "2-(4-tert-Butylphenoxy)acetic acid"], "SMILES": "C(C)(C)(C)C1=CC=C(OCC(O)=O)C=C1", "physical_data": {"Molecular Weight": "208.25", "Molecular Formula": "C12H16O3", "Melting Point": "80 \u00b0C"}}