{"cas_no": "1798-85-2", "cn_name": "1-\u6eb4-3-\u73af\u4e19\u70f7\u57fa\u82ef", "en_name": ["1-Bromo-3-cyclopropylbenzene", "Benzene, 1-bromo-3-cyclopropyl-", "1-Bromo-3-cyclopropylbenzene", "m-Bromocyclopropylbenzene", "m-Bromophenylcyclopropane", "3-Bromo-1-(cyclopropyl)benzene"], "SMILES": "BrC=1C=C(C=CC1)C2CC2", "physical_data": {"Molecular Weight": "197.07", "Molecular Formula": "C9H9Br", "Boiling Point": "98-100 \u00b0C @ Press: 14 Torr"}}