{"cas_no": "1798-09-0", "cn_name": "3-\u7532\u6c27\u57fa\u82ef\u4e59\u9178", "en_name": ["(3-Methoxyphenyl)acetic acid", "Benzeneacetic acid, 3-methoxy-", "Acetic acid, (m-methoxyphenyl)-", "3-Methoxybenzeneacetic acid", "(m-Methoxyphenyl)acetic acid", "(3-Methoxyphenyl)acetic acid", "m-Anisylacetic acid", "2-(3-Methoxyphenyl)acetic acid", "[3-(Methyloxy)phenyl]acetic acid", "3-Methoxy-2-phenylacetic acid"], "SMILES": "C(C(O)=O)C1=CC(OC)=CC=C1", "physical_data": {"Molecular Weight": "166.17", "Molecular Formula": "C9H10O3", "Melting Point": "71-73 \u00b0C"}}