{"cas_no": "17980-32-4", "cn_name": "\u4e8c\u5f02\u4e01\u57fa\u4e8c\u7532\u6c27\u57fa\u7845\u70f7", "en_name": ["Diisobutyldimethoxysilane", "Silane, dimethoxybis(2-methylpropyl)-", "Silane, diisobutyldimethoxy-", "Dimethoxybis(2-methylpropyl)silane", "Diisobutyldimethoxysilane"], "SMILES": "[Si](CC(C)C)(CC(C)C)(OC)OC", "physical_data": {"Molecular Weight": "204.38", "Molecular Formula": "C10H24O2Si", "Boiling Point": "120 \u00b0C @ Press: 6 Torr", "Density": "0.870 g/cm\u00b3"}}