{"cas_no": "1798-06-7", "cn_name": "4-\u7898\u82ef\u4e59\u9178", "en_name": ["4-Iodophenylacetic acid", "Benzeneacetic acid, 4-iodo-", "Acetic acid, (p-iodophenyl)-", "4-Iodobenzeneacetic acid", "(p-Iodophenyl)acetic acid", "4-Iodophenylacetic acid", "NSC 4614", "2-(4-Iodophenyl)acetic acid"], "SMILES": "C(C(O)=O)C1=CC=C(I)C=C1", "physical_data": {"Molecular Weight": "262.04", "Molecular Formula": "C8H7IO2", "Melting Point": "135-136 \u00b0C"}}