{"cas_no": "17995-04-9", "cn_name": "N,9-\u4e8c(\u4e09\u7532\u7845\u57fa)-9H-\u560c\u5464-6-\u80fa", "en_name": ["N,9-Bis(trimethylsilyl)-9H-purin-6-amine", "9H-Purin-6-amine, N,9-bis(trimethylsilyl)-", "Adenine, N,9-bis(trimethylsilyl)-", "N,9-Bis(trimethylsilyl)-9H-purin-6-amine", "NSC 154617"], "SMILES": "[Si](C)(C)(C)N1C=2C(=C(N[Si](C)(C)C)N=CN2)N=C1", "physical_data": {"Molecular Weight": "279.49", "Molecular Formula": "C11H21N5Si2", "Boiling Point": "124 \u00b0C @ Press: 0.25 Torr", "Melting Point": "87 \u00b0C"}}