{"cas_no": "17996-13-3", "cn_name": "4-(Z-\u6c28\u57fa)-1-\u4e01\u9187", "en_name": ["Phenylmethyl N-(4-hydroxybutyl)carbamate", "Carbamic acid, N-(4-hydroxybutyl)-, phenylmethyl ester", "Carbamic acid, (4-hydroxybutyl)-, benzyl ester", "Carbamic acid, (4-hydroxybutyl)-, phenylmethyl ester", "Phenylmethyl N-(4-hydroxybutyl)carbamate", "4-(Carbobenzoxyamino)-1-butanol", "[4-(Benzyloxycarbonyl)amino]-1-butanol", "Benzyl (4-hydroxybutyl)carbamate", "N-(4-Hydroxybutyl)carbamic acid benzyl ester", "(4-Hydroxybutyl)carbamic acid benzyl ester", "Benzyl N-(4-hydroxybutyl)carbamate"], "SMILES": "C(OC(NCCCCO)=O)C1=CC=CC=C1", "physical_data": {"Molecular Weight": "223.27", "Molecular Formula": "C12H17NO3", "Melting Point": "82-83 \u00b0C"}}