{"cas_no": "180-84-7", "cn_name": "1,7-\u4e8c\u6c27\u87ba\u73af-[5,5]\u5341\u4e00\u70f7", "en_name": ["Olean", "1,7-Dioxaspiro[5.5]undecane", "Olean"], "SMILES": "C12(CCCCO1)CCCCO2", "physical_data": {"Molecular Weight": "156.22", "Molecular Formula": "C9H16O2", "Boiling Point": "193 \u00b0C @ Press: 750 Torr", "Density": "1.0167 g/cm\u00b3 @ Temp: 20 \u00b0C"}}