{"cas_no": "18001-97-3", "cn_name": "1,3-\u4e8c(3-\u7f9f\u57fa\u4e19\u57fa)-1,1,3,3-\u56db\u7532\u57fa\u4e8c\u7845\u6c27\u70f7", "en_name": ["3,3\u2032-(1,1,3,3-Tetramethyl-1,3-disiloxanediyl)bis[1-propanol]", "1-Propanol, 3,3\u2032-(1,1,3,3-tetramethyl-1,3-disiloxanediyl)bis-", "5-Oxa-4,6-disilanonane-1,9-diol, 4,4,6,6-tetramethyl-", "3,3\u2032-(1,1,3,3-Tetramethyl-1,3-disiloxanediyl)bis[1-propanol]", "1,3-Bis(\u03b3-hydroxypropyl)-1,1,3,3-tetramethyldisiloxane", "1,3-Bis(3-hydroxypropyl)-1,1,3,3-tetramethyldisiloxane", "1,3-Bis(3-hydroxypropyl)tetramethyldisiloxane", "1,3-Di(3-hydroxypropyl) 1,1,3,3-tetramethyl disiloxane", "3,3\u2032-(1,1,3,3-Tetramethyldisiloxane-1,3-diyl)bis(propan-1-ol)", "3-[[3-Hydroxypropyl(dimethyl)silyl]oxy-dimethylsilyl]propan-1-ol"], "SMILES": "[Si](O[Si](CCCO)(C)C)(CCCO)(C)C", "physical_data": {"Molecular Weight": "250.48", "Molecular Formula": "C10H26O3Si2", "Boiling Point": "75 \u00b0C @ Press: 20 Torr", "Density": "0.953 g/cm\u00b3 @ Temp: 25 \u00b0C"}}