{"cas_no": "1800-91-5", "cn_name": "3,3,4,4,5,5,6,6,7,7,8,8-\u5341\u4e8c\u6c1f-1,9-\u7678\u4e8c\u70ef", "en_name": ["3,3,4,4,5,5,6,6,7,7,8,8-Dodecafluoro-1,9-decadiene", "1,9-Decadiene, 3,3,4,4,5,5,6,6,7,7,8,8-dodecafluoro-", "3,3,4,4,5,5,6,6,7,7,8,8-Dodecafluoro-1,9-decadiene", "1,6-Divinylperfluorohexane", "C 6DV"], "SMILES": "C(C(C(C(C=C)(F)F)(F)F)(F)F)(C(C(C=C)(F)F)(F)F)(F)F", "physical_data": {"Molecular Weight": "354.14", "Molecular Formula": "C10H6F12", "Boiling Point": "135-137 \u00b0C @ Press: 760 Torr"}}