{"cas_no": "180064-38-4", "cn_name": "1-\u7f9f\u57fa-2-(\u54aa\u5511\u5e76[1,2-A]\u5421\u5576-3-\u57fa)\u4e59\u70f7-1,1-\u53cc\u81a6\u9178", "en_name": ["Minodronic acid", "Phosphonic acid, P,P\u2032-(1-hydroxy-2-imidazo[1,2-a]pyridin-3-ylethylidene)bis-", "Phosphonic acid, (1-hydroxy-2-imidazo[1,2-a]pyridin-3-ylethylidene)bis-", "Imidazo[1,2-a]pyridine, phosphonic acid deriv.", "P,P\u2032-(1-Hydroxy-2-imidazo[1,2-a]pyridin-3-ylethylidene)bis[phosphonic acid]", "YH 529", "YM 529", "Minodronic acid", "ONO 5920", "BPH 261", "Recalbon", "Bonoteo", "[1-Hydroxy-2-(imidazo[1,2-a]pyridin-3-yl)ethylidene]bisphosphonic acid", "(1-Hydroxy-2-(imidazo[1,2-a]pyridin-3-yl)ethane-1,1-diyl)diphosphonicacid", "1-Hydroxy-2-(Imidazo[1,2-a]pyridin-3-yl)ethane-1,1-diphosphonic acid"], "SMILES": "C(C(P(=O)(O)O)(P(=O)(O)O)O)C=1N2C(=NC1)C=CC=C2", "physical_data": {"Molecular Weight": "322.15", "Molecular Formula": "C9H12N2O7P2", "Melting Point": "223-225 \u00b0C"}}