{"cas_no": "18000-24-3", "cn_name": "7-\u6c2f\u72ac\u5c3f\u9178", "en_name": ["7-Chlorokynurenic acid", "2-Quinolinecarboxylic acid, 7-chloro-4-hydroxy-", "Quinaldic acid, 7-chloro-4-hydroxy-", "Kynurenic acid, 7-chloro-", "7-Chloro-4-hydroxy-2-quinolinecarboxylic acid", "7-Chlorokynurenic acid", "7-Chloro-4-hydroxyquinaldic acid", "7-Chloroquinurenic acid", "NSC 149792"], "SMILES": "OC=1C2=C(N=C(C(O)=O)C1)C=C(Cl)C=C2", "physical_data": {"Molecular Weight": "223.61", "Molecular Formula": "C10H6ClNO3", "Melting Point": "277-278 \u00b0C (decomp)"}}