{"cas_no": "18001-60-0", "cn_name": "1,1,3,3-\u56db\u4e59\u6c27\u57fa-1,3-\u4e8c\u7532\u57fa\u4e8c\u7845\u6c27\u70f7", "en_name": ["1,1,3,3-Tetraethoxy-1,3-dimethyldisiloxane", "Disiloxane, 1,1,3,3-tetraethoxy-1,3-dimethyl-", "1,1,3,3-Tetraethoxy-1,3-dimethyldisiloxane", "Tetraethoxydimethyldisiloxane", "[Diethoxy(methyl)silyl]oxy-diethoxy-methylsilane"], "SMILES": "O([Si](OCC)(OCC)C)[Si](OCC)(OCC)C", "physical_data": {"Molecular Weight": "282.48", "Molecular Formula": "C10H26O5Si2", "Boiling Point": "205 \u00b0C", "Density": "0.953 g/cm\u00b3"}}