{"cas_no": "18016-58-5", "cn_name": "\u69f2\u76ae\u7d20 3-\u8461\u7cd6\u82f7 7-\u9f20\u674e\u7cd6\u82f7", "en_name": ["Quercetin 3-O-glucoside 7-O-rhamnoside", "4H-1-Benzopyran-4-one, 7-[(6-deoxy-\u03b1-L-mannopyranosyl)oxy]-2-(3,4-dihydroxyphenyl)-3-(\u03b2-D-glucopyranosyloxy)-5-hydroxy-", "Vincetoxicoside A", "7-[(6-Deoxy-\u03b1-L-mannopyranosyl)oxy]-2-(3,4-dihydroxyphenyl)-3-(\u03b2-D-glucopyranosyloxy)-5-hydroxy-4H-1-benzopyran-4-one", "3-O-(\u03b2-Glucosyl)-7-O-rhamnosylquercetin", "3-\u03b2-Glucosyl-7-rhamnosylquercetin", "3-\u03b2-D-Glucosyl-7-rhamnosylquercetin", "Petiolaroside", "Quercetin 3-glucoside 7-rhamnoside", "Quercetol 3-glucoside 7-rhamnoside", "Quercetin 3-O-glucoside 7-O-rhamnoside", "Quercetin 3-O-\u03b2-D-glucopyranosyl 7-O-\u03b1-L-rhamnopyranoside", "3-O-\u03b2-Glucopyranosylquercetin 7-O-\u03b1-rhamnopyranoside"], "SMILES": "O(C1=C(OC=2C(C1=O)=C(O)C=C(OC3C(O)C(O)C(O)C(C)O3)C2)C4=CC(O)=C(O)C=C4)C5OC(CO)C(O)C(O)C5O", "physical_data": {"Molecular Weight": "610.52", "Molecular Formula": "C27H30O16", "Melting Point": "230-232 \u00b0C"}}