{"cas_no": "18016-24-5", "cn_name": "\u8461\u8404\u7cd6\u9178\u9499", "en_name": ["Calcium gluconate", "D-Gluconic acid, calcium salt (2:1)", "Gluconic acid, calcium salt (2:1), D-", "Calciofon", "Calglucon", "Glucobiogen", "Calcium gluconate", "Ebucin", "Glucal", "Calcium D-gluconate", "Kalpren", "Dragocal", "Calcipur", "Novocal", "Calglucol", "Calcium hexagluconate", "Calcicol", "Biocal", "MeSH ID: D002125"], "SMILES": "C(C(C(CO)O)O)(C(C(O)=O)O)O.[Ca]", "physical_data": {"Molecular Weight": "", "Molecular Formula": "C6H12O7.<sup>1</sup>/2Ca", "Melting Point": "120 \u00b0C"}}