{"cas_no": "1801-10-1", "cn_name": "3-(\u4e09\u6c1f\u7532\u57fa)\u82ef\u7532\u9170\u80fa", "en_name": ["3-(Trifluoromethyl)benzamide", "Benzamide, 3-(trifluoromethyl)-", "m-Toluamide, \u03b1,\u03b1,\u03b1-trifluoro-", "3-(Trifluoromethyl)benzamide", "\u03b1,\u03b1,\u03b1-Trifluoro-m-toluamide", "m-Trifluoromethylbenzamide"], "SMILES": "C(F)(F)(F)C1=CC(C(N)=O)=CC=C1", "physical_data": {"Molecular Weight": "189.13", "Molecular Formula": "C8H6F3NO", "Melting Point": "121.5-122.0 \u00b0C"}}