{"cas_no": "18014-00-1", "cn_name": "2,5-\u4e8c\u6eb4\u5bf9\u82ef\u4e8c\u7532\u9178\u4e8c\u7532\u916f", "en_name": ["1,4-Dimethyl 2,5-dibromo-1,4-benzenedicarboxylate", "1,4-Benzenedicarboxylic acid, 2,5-dibromo-, 1,4-dimethyl ester", "Terephthalic acid, 2,5-dibromo-, dimethyl ester", "1,4-Benzenedicarboxylic acid, 2,5-dibromo-, dimethyl ester", "1,4-Dimethyl 2,5-dibromo-1,4-benzenedicarboxylate", "Dimethyl 2,5-dibromoterephthalate", "Dimethyl 2,5-dibromobenzene-1,4-dicarboxylate"], "SMILES": "C(OC)(=O)C1=C(Br)C=C(C(OC)=O)C(Br)=C1", "physical_data": {"Molecular Weight": "351.98", "Molecular Formula": "C10H8Br2O4", "Melting Point": "148.6 \u00b0C"}}