{"cas_no": "1801-42-9", "cn_name": "2.3-\u4e8c\u82ef\u57fa-1-\u4e8c\u6c22\u831a\u916e", "en_name": ["2,3-Diphenyl-1H-inden-1-one", "1H-Inden-1-one, 2,3-diphenyl-", "Indone, 2,3-diphenyl-", "2,3-Diphenyl-1H-inden-1-one", "2,3-Diphenyl-1-indenone", "2,3-Diphenyl-1-indanone", "2,3-Diphenylindone", "NSC 401880", "NSC 60783"], "SMILES": "O=C1C(=C(C=2C1=CC=CC2)C3=CC=CC=C3)C4=CC=CC=C4", "physical_data": {"Molecular Weight": "282.34", "Molecular Formula": "C21H14O", "Melting Point": "151-153 \u00b0C"}}