{"cas_no": "1801-72-5", "cn_name": "1,3-\u4e8c\u70ef\u4e19\u57fa\u8132", "en_name": ["N,N\u2032-Di-2-propen-1-ylurea", "Urea, N,N\u2032-di-2-propen-1-yl-", "Urea, 1,3-diallyl-", "Urea, N,N\u2032-di-2-propenyl-", "N,N\u2032-Di-2-propen-1-ylurea", "1,3-Diallylurea", "N,N\u2032-Diallylurea", "N,N\u2032-Di-2-propenylurea", "N,N\u2032-Bis(2-propenyl)urea", "NSC 102722", "Diallyl urea", "1,3-Bis(prop-2-enyl)urea", "1,3-Bis(prop-2-en-1-yl)urea"], "SMILES": "C(NCC=C)(NCC=C)=O", "physical_data": {"Molecular Weight": "140.18", "Molecular Formula": "C7H12N2O", "Melting Point": "90-93 \u00b0C"}}