{"cas_no": "18027-10-6", "cn_name": "\u4e09\u7532\u57fa\u7845\u6c27\u57fa\u94a0", "en_name": ["Sodium trimethylsilanolate", "Silanol, 1,1,1-trimethyl-, sodium salt (1:1)", "Silanol, trimethyl-, sodium salt", "Sodium, (trimethylsiloxy)-", "Sodium trimethylsilanolate", "Trimethylsilanol sodium salt", "Sodium trimethylsilanoate", "Trimethylsilyloxysodium", "Sodium trimethylsiloxide"], "SMILES": "[Si](C)(C)(C)O.[Na]", "physical_data": {"Molecular Weight": "", "Molecular Formula": "C3H10OSi.Na", "Melting Point": "147-150 \u00b0C (decomp)", "Density": "1.255 g/cm\u00b3"}}