{"cas_no": "18029-54-4", "cn_name": "5-[3-(\u4e8c\u7532\u57fa\u6c28\u57fa)\u4e19\u57fa]-5H-\u4e8c\u82ef\u5e76[A,D]\u73af\u5e9a\u70ef-5-\u9187", "en_name": ["5-[3-(Dimethylamino)propyl]-5H-dibenzo[a,d]cyclohepten-5-ol", "5H-Dibenzo[a,d]cyclohepten-5-ol, 5-[3-(dimethylamino)propyl]-", "5-[3-(Dimethylamino)propyl]-5H-dibenzo[a,d]cyclohepten-5-ol"], "SMILES": "C(CCN(C)C)C1(O)C=2C(C=CC=3C1=CC=CC3)=CC=CC2", "physical_data": {"Molecular Weight": "293.40", "Molecular Formula": "C20H23NO", "Melting Point": "139-140 \u00b0C"}}