{"cas_no": "1802-12-6", "cn_name": "\u5546\u9646\u7682\u82f7\u5143", "en_name": ["Phytolaccagenin", "Olean-12-ene-28,29-dioic acid, 2,3,23-trihydroxy-, 29-methyl ester, (2\u03b2,3\u03b2,4\u03b1,20\u03b2)-", "Olean-12-ene-28,30-dioic acid, 2\u03b2,3\u03b2,23-trihydroxy-, 30-methyl ester", "Phytolaccagenin", "Phytolaccagenine", "Jaligonic acid 30-methyl ester", "NSC 116453"], "SMILES": "CC12C(C3C(C(O)=O)(CC1)CCC(C(OC)=O)(C)C3)=CCC4C2(C)CCC5C4(C)CC(O)C(O)C5(CO)C", "physical_data": {"Molecular Weight": "532.71", "Molecular Formula": "C31H48O7", "Melting Point": "317 \u00b0C"}}