{"cas_no": "18027-45-7", "cn_name": "\u82ef\u57fa\u4e09(\u4e8c\u7532\u57fa\u7845\u6c27\u70f7\u57fa)\u7845\u70f7", "en_name": ["Phenyltris(dimethylsiloxy)silane", "Trisiloxane, 3-[(dimethylsilyl)oxy]-1,1,5,5-tetramethyl-3-phenyl-", "Trisiloxane, 3-(dimethylsiloxy)-1,1,5,5-tetramethyl-3-phenyl-", "3-[(Dimethylsilyl)oxy]-1,1,5,5-tetramethyl-3-phenyltrisiloxane", "Phenyltris(dimethylsiloxy)silane", "Tris(dimethylhydrogensiloxy)phenylsilane", "Tris(dimethylsiloxy)phenylsilane", "P 0660", "X 93-916", "3-Dimethylsilyloxy-3-phenyl-1,1,5,5-tetramethyltrisiloxane", "Tris(dimethylsilyloxy)phenylsilane", "SIP 6826.0", "SIP 6826", "3-(Dimethylsilyloxy)-1,1,5,5-tetramethyl-3-phenyltrisiloxane", "Tri(dimethylsiloxy)phenylsilane", "UC 235"], "SMILES": "[Si](O[SiH](C)C)(O[SiH](C)C)(O[SiH](C)C)C1=CC=CC=C1", "physical_data": {"Molecular Weight": "330.67", "Molecular Formula": "C12H26O3Si4", "Boiling Point": "91 \u00b0C @ Press: 2 Torr", "Density": "0.942 g/cm\u00b3"}}