{"cas_no": "1802-29-5", "cn_name": "2,2'-\u8054\u5421\u5576-5,5'-\u4e8c\u7532\u8148", "en_name": ["[2,2\u2032-Bipyridine]-5,5\u2032-dicarbonitrile", "[2,2\u2032-Bipyridine]-5,5\u2032-dicarbonitrile", "6,6\u2032-Binicotinonitrile", "5,5\u2032-Dicyano-2,2\u2032-bipyridine", "[2,2\u2032-Bipyridinyl]-5,5\u2032-dicarbonitrile"], "SMILES": "C(#N)C1=CC=C(N=C1)C2=CC=C(C#N)C=N2", "physical_data": {"Molecular Weight": "206.20", "Molecular Formula": "C12H6N4", "Melting Point": "272-273 \u00b0C"}}