{"cas_no": "180253-66-1", "cn_name": "(4-\u7532\u57fa\u5421\u5576-3-\u57fa)\u6c28\u57fa\u7532\u9178\u53d4\u4e01\u916f", "en_name": ["(4-Methylpyridin-3-yl)carbamic acid tert-butyl ester", "Carbamic acid, N-(4-methyl-3-pyridinyl)-, 1,1-dimethylethyl ester", "Carbamic acid, (4-methyl-3-pyridinyl)-, 1,1-dimethylethyl ester", "tert-Butyl 4-methyl-3-pyridinylcarbamate", "(4-Methylpyridin-3-yl)carbamic acid tert-butyl ester"], "SMILES": "N(C(OC(C)(C)C)=O)C=1C(C)=CC=NC1", "physical_data": {"Molecular Weight": "208.26", "Molecular Formula": "C11H16N2O2", "Melting Point": "91-93 \u00b0C"}}