{"cas_no": "18028-96-1", "cn_name": "\u4e8c\u6c2f\u5f02\u4e01\u57fa\u7532\u57fa\u7845\u70f7", "en_name": ["Dichloromethyl(2-methylpropyl)silane", "Silane, dichloromethyl(2-methylpropyl)-", "Silane, dichloroisobutylmethyl-", "Dichloromethyl(2-methylpropyl)silane", "Dichloro(isobutyl)(methyl)silane", "Isobutyldichloro(methyl)silane"], "SMILES": "C([Si](C)(Cl)Cl)C(C)C", "physical_data": {"Molecular Weight": "171.14", "Molecular Formula": "C5H12Cl2Si", "Boiling Point": "137.8 \u00b0C @ Press: 735 Torr", "Density": "1.0281 g/cm\u00b3 @ Temp: 20 \u00b0C"}}