{"cas_no": "18023-33-1", "cn_name": "\u4e59\u70ef\u57fa\u4e09\u5f02\u4e19\u6c27\u57fa\u7845\u70f7", "en_name": ["Vinyltriisopropoxysilane", "Silane, ethenyltris(1-methylethoxy)-", "Silane, triisopropoxyvinyl-", "Ethenyltris(1-methylethoxy)silane", "Triisopropoxyvinylsilane", "Vinyltriisopropoxysilane", "Tris(isopropoxy)vinylsilane", "CoatOSil 1706", "NSC 89751", "C 1706", "Z 6550", "A 1706", "AC 76", "Vinyltrisopropoxysilane", "NQ 331", "SIV 9210", "KH 1706", "CR 501", "CR 501 (silane)", "USI 403"], "SMILES": "[Si](OC(C)C)(OC(C)C)(OC(C)C)C=C", "physical_data": {"Molecular Weight": "232.39", "Molecular Formula": "C11H24O3Si", "Boiling Point": "179.5 \u00b0C", "Density": "0.865 g/cm\u00b3"}}