{"cas_no": "1802-30-8", "cn_name": "2,2'-\u8054\u5421\u5576-5,5'-\u4e8c\u7fa7\u9178", "en_name": ["[2,2\u2032-Bipyridine]-5,5\u2032-dicarboxylic acid", "[2,2\u2032-Bipyridine]-5,5\u2032-dicarboxylic acid", "6,6\u2032-Binicotinic acid", "5,5\u2032-Dicarboxy-2,2\u2032-bipyridine", "2,2\u2032-Bipyridyl-5,5\u2032-dicarboxylic acid", "5,5\u2032-Dicarboxy-2,2\u2032-bipyridyl"], "SMILES": "C(O)(=O)C1=CC=C(N=C1)C2=CC=C(C(O)=O)C=N2", "physical_data": {"Molecular Weight": "244.20", "Molecular Formula": "C12H8N2O4", "Melting Point": "&gt;360 \u00b0C"}}