{"cas_no": "18031-40-8", "cn_name": "\u7d2b\u82cf\u919b", "en_name": ["(S)-Perillaldehyde", "1-Cyclohexene-1-carboxaldehyde, 4-(1-methylethenyl)-, (4S)-", "1-Cyclohexene-1-carboxaldehyde, 4-isopropenyl-, (S)-(-)-", "1-Cyclohexene-1-carboxaldehyde, 4-(1-methylethenyl)-, (S)-", "(4S)-4-(1-Methylethenyl)-1-cyclohexene-1-carboxaldehyde", "(-)-Perillaldehyde", "(4S)-p-Mentha-1,8-dien-7-al", "(-)-(S)-Perillaldehyde", "l-Perillaldehyde", "(S)-(-)-Perillaldehyde", "(S)-(-)-Perillic aldehyde", "(-)-Perilla aldehyde", "(S)-Perillaldehyde", "L-Perillaldehyde", "(S)-4-(Prop-1-en-2-yl)cyclohex-1-ene-1-carboxaldehyde", "(S)-4-(Prop-1-En-2-yl)cyclohex-1-enecarbaldehyde", "(4S)-4-(Prop-1-en-2-yl)cyclohex-1-ene-1-carbaldehyde", "(4S)-4-Prop-1-en-2-ylcyclohexene-1-carbaldehyde"], "SMILES": "C(C)(=C)C1CCC(C=O)=CC1", "physical_data": {"Molecular Weight": "150.22", "Molecular Formula": "C10H14O", "Boiling Point": "104.5 \u00b0C", "Melting Point": "&lt;25 \u00b0C", "Density": "0.968 g/cm\u00b3 @ Temp: 15 \u00b0C"}}