{"cas_no": "18035-74-0", "cn_name": "\u4e8c\u73af\u5df1\u57fa\u4e8c\u6c2f\u7845\u70f7", "en_name": ["1,1\u2032-(Dichlorosilylene)bis[cyclohexane]", "Cyclohexane, 1,1\u2032-(dichlorosilylene)bis-", "Silane, dichlorodicyclohexyl-", "1,1\u2032-(Dichlorosilylene)bis[cyclohexane]", "Dicyclohexyldichlorosilane"], "SMILES": "[Si](Cl)(Cl)(C1CCCCC1)C2CCCCC2", "physical_data": {"Molecular Weight": "265.29", "Molecular Formula": "C12H22Cl2Si", "Boiling Point": "123 \u00b0C @ Press: 0.4 Torr", "Density": "1.103 g/cm\u00b3"}}