{"cas_no": "18039-42-4", "cn_name": "5-\u82ef\u57fa\u56db\u6c2e\u5511", "en_name": ["5-Phenyltetrazole", "2H-Tetrazole, 5-phenyl-", "1H-Tetrazole, 5-phenyl-", "Tetrazole, 5-phenyl-", "5-Phenyl-2H-tetrazole", "5-Phenyltetrazole", "MA 1623", "5-Phenyl-1H-tetrazole", "Kempore 50XPT", "Expandex OX 5PT", "Expandex 5PT", "5-Phenyl-1,2,3,4-tetrazole", "Phenyltetrazole", "Unifoam HB 1", "Unicell 5PT", "NSC 11138", "Celltetra BHT-P 5T", "Celltetra P 5T", "5-Phenyl-1,2,3,4-tetraazole"], "SMILES": "C=1(NN=NN1)C2=CC=CC=C2", "physical_data": {"Molecular Weight": "146.15", "Molecular Formula": "C7H6N4", "Boiling Point": "40-60 \u00b0C", "Melting Point": "215 \u00b0C"}}