{"cas_no": "180465-84-3", "cn_name": "\u87ba[\u5432\u54da\u5549-3,4'-\u54cc\u5576]-1'-\u7fa7\u9178\u53d4\u4e01\u916f", "en_name": ["1,1-Dimethylethyl 1,2-dihydrospiro[3H-indole-3,4\u2032-piperidine]-1\u2032-carboxylate", "Spiro[3H-indole-3,4\u2032-piperidine]-1\u2032-carboxylic acid, 1,2-dihydro-, 1,1-dimethylethyl ester", "1,1-Dimethylethyl 1,2-dihydrospiro[3H-indole-3,4\u2032-piperidine]-1\u2032-carboxylate", "Spiro[indoline-3,4\u2032-piperidine]-1\u2032-carboxylic acid tert-butyl ester", "1,2-Dihydrospiro[3H-indole-3,4\u2032-piperidine]-1\u2032-carboxylic acid 1,1-dimethylethyl ester"], "SMILES": "C(OC(C)(C)C)(=O)N1CCC2(C=3C(NC2)=CC=CC3)CC1", "physical_data": {"Molecular Weight": "288.38", "Molecular Formula": "C17H24N2O2", "Melting Point": "173-174 \u00b0C"}}