{"cas_no": "18042-54-1", "cn_name": "\u82ef\u57fa\u4e09\u4e59\u9178\u6c27\u5316\u7845\u70f7", "en_name": ["Silanetriol, 1-phenyl-, 1,1,1-triacetate", "Silanetriol, 1-phenyl-, 1,1,1-triacetate", "Silanetriol, phenyl-, triacetate", "Phenyltriacetoxysilane", "Monophenyltriacetoxysilane", "Triacetoxyphenylsilane", "[Diacetyloxy(phenyl)silyl] acetate"], "SMILES": "[Si](OC(C)=O)(OC(C)=O)(OC(C)=O)C1=CC=CC=C1", "physical_data": {"Molecular Weight": "282.32", "Molecular Formula": "C12H14O6Si", "Boiling Point": "158 \u00b0C @ Press: 30 Torr", "Melting Point": "34.5 \u00b0C", "Density": "1.194 g/cm\u00b3"}}