{"cas_no": "18048-64-1", "cn_name": "3-\u7532\u57fa-1-(3,4-\u4e8c\u7532\u57fa\u82ef\u57fa)-2-\u5421\u5511\u5549-5-\u916e", "en_name": ["2-(3,4-Dimethylphenyl)-2,4-dihydro-5-methyl-3H-pyrazol-3-one", "3H-Pyrazol-3-one, 2-(3,4-dimethylphenyl)-2,4-dihydro-5-methyl-", "2-Pyrazolin-5-one, 3-methyl-1-(3,4-xylyl)-", "2-(3,4-Dimethylphenyl)-2,4-dihydro-5-methyl-3H-pyrazol-3-one", "3-Methyl-1-(3,4-dimethylphenyl)-2-pyrazolin-5-one", "2-(3,4-Dimethylphenyl)-5-methyl-4H-pyrazol-3-one"], "SMILES": "O=C1N(C2=CC(C)=C(C)C=C2)N=C(C)C1", "physical_data": {"Molecular Weight": "202.25", "Molecular Formula": "C12H14N2O", "Melting Point": "116-118 \u00b0C"}}