{"cas_no": "18043-74-8", "cn_name": "1,2-\u53cc(\u7532\u57fa\u4e8c\u4e59\u6c27\u57fa\u7845\u57fa)\u4e59\u70f7", "en_name": ["4,7-Diethoxy-4,7-dimethyl-3,8-dioxa-4,7-disiladecane", "3,8-Dioxa-4,7-disiladecane, 4,7-diethoxy-4,7-dimethyl-", "4,7-Diethoxy-4,7-dimethyl-3,8-dioxa-4,7-disiladecane", "1,2-Bis(diethoxymethylsilyl)ethane", "1,2-Bis(methyldiethoxysilyl)ethane", "2-[Diethoxy(methyl)silyl]ethyl-diethoxy-methylsilane"], "SMILES": "[Si](CC[Si](OCC)(OCC)C)(OCC)(OCC)C", "physical_data": {"Molecular Weight": "294.54", "Molecular Formula": "C12H30O4Si2", "Boiling Point": "79-80 \u00b0C @ Press: 1.5 Torr", "Density": "0.9300 g/cm\u00b3 @ Temp: 20 \u00b0C"}}