{"cas_no": "1804-87-1", "cn_name": "\u7532\u57fa\u4e19\u70ef\u9178 2-\u4e59\u78fa\u9178\u916f\u94a0\u76d0", "en_name": ["2-Propenoic acid, 2-methyl-, 2-sulfoethyl ester, sodium salt (1:1)", "2-Propenoic acid, 2-methyl-, 2-sulfoethyl ester, sodium salt (1:1)", "2-Propenoic acid, 2-methyl-, 2-sulfoethyl ester, sodium salt", "Methacrylic acid, ester with 2-hydroxyethanesulfonic acid, sodium salt", "Methacrylic acid, 2-sulfoethyl ester, sodium salt", "Ethanesulfonic acid, 2-hydroxy-, methacrylate, sodium salt", "Sodium 2-sulfoethyl methacrylate", "2-Sulfoethyl methacrylate sodium salt", "Newfrontier LX 1000", "2-Sodiosulfoethyl methacrylate", "Antox MS 2N", "Sodium 2-(methacryloyloxy)ethanesulfonate", "2-(Methacryloyloxy)ethylsulfonic acid sodium salt", "Acryester SEM-Na", "Sulfoethyl methacrylate sodium salt", "Sodium 2-(methacryloyloxy)ethylsulfonate", "Antox S 2N-D"], "SMILES": "C(OC(C(C)=C)=O)CS(=O)(=O)O.[Na]", "physical_data": {"Molecular Weight": "", "Molecular Formula": "C6H10O5S.Na", "Melting Point": "245 \u00b0C"}}