{"cas_no": "18053-31-1", "cn_name": "\u798f\u7c73\u8bfa\u82ef", "en_name": ["Fominoben", "Benzamide, N-[3-chloro-2-[[methyl[2-(4-morpholinyl)-2-oxoethyl]amino]methyl]phenyl]-", "o-Benzotoluidide, 3\u2032-chloro-\u03b1-[methyl[(morpholinocarbonyl)methyl]amino]-", "N-[3-Chloro-2-[[methyl[2-(4-morpholinyl)-2-oxoethyl]amino]methyl]phenyl]benzamide", "N-(2-Benzoylamino-6-chlorobenzyl)-N-methylglycine morpholide", "Fominoben", "3\u2032-Chloro-\u03b1-[methyl[(morpholinocarbonyl)methyl]amino]-o-benzotoluidide", "3\u2032-Chloro-\u03b2-[N-methyl-N-[(morpholinocarbonyl)methyl]aminomethyl]benzanilide", "Terion"], "SMILES": "C(N(CC(=O)N1CCOCC1)C)C2=C(NC(=O)C3=CC=CC=C3)C=CC=C2Cl", "physical_data": {"Molecular Weight": "401.89", "Molecular Formula": "C21H24ClN3O3", "Melting Point": "122.75 \u00b0C"}}