{"cas_no": "18052-92-1", "cn_name": "\u7532\u57fa\u4e19\u70ef\u9170\u6c27\u7532\u57fa\u82ef\u57fa\u4e8c\u7532\u57fa\u7845\u70f7", "en_name": ["(Dimethylphenylsilyl)methyl 2-methyl-2-propenoate", "2-Propenoic acid, 2-methyl-, (dimethylphenylsilyl)methyl ester", "Methacrylic acid, (dimethylphenylsilyl)methyl ester", "(Dimethylphenylsilyl)methyl 2-methyl-2-propenoate", "(Methacryloxymethyl)phenyldimethylsilane", "[Dimethyl(phenyl)silyl]methyl 2-methylprop-2-enoate"], "SMILES": "[Si](COC(C(C)=C)=O)(C)(C)C1=CC=CC=C1", "physical_data": {"Molecular Weight": "234.37", "Molecular Formula": "C13H18O2Si", "Boiling Point": "106-107 \u00b0C @ Press: 1 Torr", "Density": "0.991 g/cm\u00b3 @ Temp: 25 \u00b0C"}}