{"cas_no": "1805-22-7", "cn_name": "\u5168\u6c1f\u7532\u57fa\u73af\u620a\u70f7", "en_name": ["Perfluoromethylcyclopentane", "Cyclopentane, 1,1,2,2,3,3,4,4,5-nonafluoro-5-(trifluoromethyl)-", "Cyclopentane, nonafluoro(trifluoromethyl)-", "1,1,2,2,3,3,4,4,5-Nonafluoro-5-(trifluoromethyl)cyclopentane", "Nonafluoro(trifluoromethyl)cyclopentane", "(Trifluoromethyl)perfluorocyclopentane", "Perfluoromethylcyclopentane", "Flutec PCI"], "SMILES": "C(F)(F)(F)C1(F)C(F)(F)C(F)(F)C(F)(F)C1(F)F", "physical_data": {"Molecular Weight": "300.05", "Molecular Formula": "C6F12", "Boiling Point": "48 \u00b0C", "Melting Point": "45 \u00b0C"}}