{"cas_no": "18059-10-4", "cn_name": "\u8d1d\u6bcd\u7d20\u4e59", "en_name": ["Peiminine", "Cevan-6-one, 3,20-dihydroxy-, (3\u03b2,5\u03b1)-", "5\u03b1-Cevan-6-one, 3\u03b2,20-dihydroxy-", "Osnovanine", "Fritillarine", "Benzo[7,8]fluoreno[2,1-b]quinolizine, cevan-6-one deriv.", "(3\u03b2,5\u03b1)-3,20-Dihydroxycevan-6-one", "Verticinone", "Raddeanine", "Peiminine", "Raddeanine (Fritillaria)"], "SMILES": "CC12C3C(C4C(C3)C5C(CC4)C(C)(O)C6N(C5)CC(C)CC6)CC(=O)C1CC(O)CC2", "physical_data": {"Molecular Weight": "429.64", "Molecular Formula": "C27H43NO3", "Melting Point": "212-213 \u00b0C"}}