{"cas_no": "1805-32-9", "cn_name": "3,4-\u4e8c\u6c2f\u82c4\u9187", "en_name": ["3,4-Dichlorobenzenemethanol", "Benzenemethanol, 3,4-dichloro-", "Benzyl alcohol, 3,4-dichloro-", "3,4-Dichlorobenzenemethanol", "3,4-Dichlorobenzyl alcohol", "(3,4-Dichlorophenyl)methanol", "NSC 26136", "NSC 407829"], "SMILES": "C(O)C1=CC(Cl)=C(Cl)C=C1", "physical_data": {"Molecular Weight": "177.03", "Molecular Formula": "C7H6Cl2O", "Boiling Point": "149.5 \u00b0C", "Melting Point": "36 \u00b0C"}}