{"cas_no": "18051-88-2", "cn_name": "\u7532\u57fa\u7678\u57fa\u4e8c\u6c2f\u7845\u70f7", "en_name": ["Dichlorodecylmethylsilane", "Silane, dichlorodecylmethyl-", "Dichlorodecylmethylsilane", "(Decyl)(methyl)dichlorosilane"], "SMILES": "C(CCCCCCCC)C[Si](C)(Cl)Cl", "physical_data": {"Molecular Weight": "255.30", "Molecular Formula": "C11H24Cl2Si", "Boiling Point": "111-114 \u00b0C @ Press: 3 Torr", "Density": "0.960 g/cm\u00b3"}}