{"cas_no": "1805-65-8", "cn_name": "2-\u53d4\u4e01\u57fa-1H-\u5432\u54da", "en_name": ["2-(1,1-Dimethylethyl)-1H-indole", "1H-Indole, 2-(1,1-dimethylethyl)-", "Indole, 2-tert-butyl-", "2-(1,1-Dimethylethyl)-1H-indole", "2-tert-Butylindole", "2-tert-Butyl-1H-indole"], "SMILES": "C(C)(C)(C)C1=CC=2C(N1)=CC=CC2", "physical_data": {"Molecular Weight": "173.25", "Molecular Formula": "C12H15N", "Boiling Point": "85-95 \u00b0C @ Press: 0.05 Torr", "Melting Point": "65-69 \u00b0C"}}