{"cas_no": "18060-79-2", "cn_name": "4-\u620a\u70ef\u57fa\u5f02\u786b\u6c30\u9178\u916f", "en_name": ["4-Pentenyl isothiocyanate", "1-Pentene, 5-isothiocyanato-", "Isothiocyanic acid, 4-pentenyl ester", "5-Isothiocyanato-1-pentene", "4-Pentenyl isothiocyanate"], "SMILES": "C(CN=C=S)CC=C", "physical_data": {"Molecular Weight": "127.21", "Molecular Formula": "C6H9NS", "Boiling Point": "12 \u00b0C @ Press: 75 Torr"}}