{"cas_no": "18069-14-2", "cn_name": "(20R,22R)-2\u0392,3\u0392,5\u0391,14\u0391,20,22,25-\u4e03\u7f9f\u57fa\u80c6\u753e-7-\u70ef-6-\u916e", "en_name": ["Polypodine B", "Cholest-7-en-6-one, 2,3,5,14,20,22,25-heptahydroxy-, (2\u03b2,3\u03b2,5\u03b2,22R)-", "5\u03b2-Cholest-7-en-6-one, 2\u03b2,3\u03b2,5,14,20,22,25-heptahydroxy-, (22R)-", "(2\u03b2,3\u03b2,5\u03b2,22R)-2,3,5,14,20,22,25-Heptahydroxycholest-7-en-6-one", "Polypodin B", "5\u03b2-Hydroxyecdysterone", "Hydroxyecdysterone", "Ajugasterone A", "5-Hydroxyecdysterone", "5,20-Dihydroxyecdysone", "Polypodine B", "Polypodyne B"], "SMILES": "OC12C=3C(C4(C)C(O)(C(=O)C3)CC(O)C(O)C4)CCC1(C)C(C(C(CCC(C)(C)O)O)(C)O)CC2", "physical_data": {"Molecular Weight": "496.63", "Molecular Formula": "C27H44O8", "Melting Point": "241-242 \u00b0C"}}