{"cas_no": "1806-26-4", "cn_name": "4-\u8f9b\u57fa\u915a", "en_name": ["4-n-Octylphenol", "Phenol, 4-octyl-", "Phenol, p-octyl-", "4-Octylphenol", "p-Octylphenol", "4-n-Octylphenol", "p-(n-Octyl)phenol"], "SMILES": "C(CCCCCCC)C1=CC=C(O)C=C1", "physical_data": {"Molecular Weight": "206.32", "Molecular Formula": "C14H22O", "Boiling Point": "113-114 \u00b0C @ Press: 3 Torr", "Melting Point": "42-43 \u00b0C", "Density": "0.9421 g/cm\u00b3 @ Temp: 20 \u00b0C"}}