{"cas_no": "1806-34-4", "cn_name": "1,4-\u53cc[2-(5-\u82ef\u57fa)\u6076\u5511\u57fa]\u82ef", "en_name": ["1,4-Bis(5-phenyl-2-oxazolyl)benzene", "Oxazole, 2,2\u2032-(1,4-phenylene)bis[5-phenyl-", "Oxazole, 2,2\u2032-p-phenylenebis[5-phenyl-", "2,2\u2032-(1,4-Phenylene)bis[5-phenyloxazole]", "p-Bis(5-phenyloxazol-2-yl)benzene", "Di(phenyl-5-oxazolyl-2)-1,4-benzene", "POPOP", "2,2\u2032-p-Phenylenebis(5-phenyloxazole)", "1,4-Bis(5-phenyl-2-oxazolyl)benzene", "NSC 24859", "1,4-Di(5-phenyl-2-oxazolyl)benzene", "2,2\u2032-(1,4-phenylene)bis(5-phenyl-1,3-oxazole)"], "SMILES": "C=1(OC(=CN1)C2=CC=CC=C2)C3=CC=C(C=C3)C=4OC(=CN4)C5=CC=CC=C5", "physical_data": {"Molecular Weight": "364.40", "Molecular Formula": "C24H16N2O2", "Melting Point": "244-246 \u00b0C"}}