{"cas_no": "1806-23-1", "cn_name": "2-\u6c2f-4'-\u6c1f\u4e8c\u82ef\u7532\u916e", "en_name": ["(2-Chlorophenyl)(4-fluorophenyl)methanone", "Methanone, (2-chlorophenyl)(4-fluorophenyl)-", "Benzophenone, 2-chloro-4\u2032-fluoro-", "(2-Chlorophenyl)(4-fluorophenyl)methanone", "2-Chloro-4\u2032-fluorobenzophenone", "2-Chlorophenyl 4-fluorophenyl ketone", "NSC 141026"], "SMILES": "C(=O)(C1=C(Cl)C=CC=C1)C2=CC=C(F)C=C2", "physical_data": {"Molecular Weight": "234.65", "Molecular Formula": "C13H8ClFO", "Melting Point": "58-59 \u00b0C"}}