{"cas_no": "18066-68-7", "cn_name": "2-(3,4-\u4e8c\u7532\u6c27\u57fa\u82ef\u57fa)\u4e59\u9178\u4e59\u916f", "en_name": ["Ethyl 3,4-dimethoxybenzeneacetate", "Benzeneacetic acid, 3,4-dimethoxy-, ethyl ester", "Acetic acid, (3,4-dimethoxyphenyl)-, ethyl ester", "Ethyl 3,4-dimethoxybenzeneacetate", "Ethyl 3,4-dimethoxyphenylacetate", "3,4-Dimethoxyphenylacetic acid ethyl ester", "NSC 10152"], "SMILES": "O(C)C1=C(OC)C=C(CC(OCC)=O)C=C1", "physical_data": {"Molecular Weight": "224.25", "Molecular Formula": "C12H16O4", "Boiling Point": "191 \u00b0C @ Press: 25 Torr"}}