{"cas_no": "18063-03-1", "cn_name": "2,6-\u4e8c\u6c1f\u82ef\u7532\u9170\u80fa", "en_name": ["2,6-Difluorobenzamide", "Benzamide, 2,6-difluoro-", "2,6-Difluorobenzamide"], "SMILES": "C(N)(=O)C1=C(F)C=CC=C1F", "physical_data": {"Molecular Weight": "157.12", "Molecular Formula": "C7H5F2NO", "Melting Point": "145-148 \u00b0C"}}