{"cas_no": "18063-02-0", "cn_name": "2,6-\u4e8c\u6c1f\u82ef\u7532\u9170\u6c2f", "en_name": ["2,6-Difluorobenzoyl chloride", "Benzoyl chloride, 2,6-difluoro-", "2,6-Difluorobenzoyl chloride", "2,6-Difluorobenzene-1-carbonyl chloride"], "SMILES": "C(Cl)(=O)C1=C(F)C=CC=C1F", "physical_data": {"Molecular Weight": "176.55", "Molecular Formula": "C7H3ClF2O", "Boiling Point": "72-77 \u00b0C @ Press: 13 Torr"}}