{"cas_no": "1806-29-7", "cn_name": "2,2'-\u4e8c\u7f9f\u57fa\u8054\u82ef", "en_name": ["[1,1\u2032-Biphenyl]-2,2\u2032-diol", "[1,1\u2032-Biphenyl]-2,2\u2032-diol", "2,2\u2032-Biphenyldiol", "o,o\u2032-Biphenol", "2,2\u2032-Dihydroxybiphenyl", "o,o\u2032-Diphenol", "2,2\u2032-Dihydroxydiphenyl", "2,2\u2032-Biphenol", "o,o\u2032-Dihydroxybiphenyl", "2,2\u2032-Dihydroxy-1,1\u2032-biphenyl", "1,1\u2032-Bi-2-phenol", "2,2\u2032-Bisphenol", "NSC 37068", "2\u2032-Hydroxy-1,1\u2032-biphenyl-2-ol", "2-(2-Hydroxyphenyl)phenol"], "SMILES": "OC1=C(C=CC=C1)C2=C(O)C=CC=C2", "physical_data": {"Molecular Weight": "186.21", "Molecular Formula": "C12H10O2", "Boiling Point": "320 \u00b0C", "Melting Point": "109 \u00b0C"}}