{"cas_no": "18073-84-2", "cn_name": "1,3-\u53cc-[1-(2-\u7f9f\u4e59\u57fa)-4-\u54cc\u5576\u57fa]\u4e19\u70f7", "en_name": ["1,3-Di-(N-\u03b2-hydroxyethyl-4-piperidyl)propane", "1-Piperidineethanol, 4,4\u2032-(1,3-propanediyl)bis-", "1-Piperidineethanol, 4,4\u2032-trimethylenedi-", "4,4\u2032-(1,3-Propanediyl)bis[1-piperidineethanol]", "1,3-Bis[N-(\u03b2-hydroxyethyl)-4-piperidyl]propane", "1,3-Di-(N-\u03b2-hydroxyethyl-4-piperidyl)propane", "S 43259-8", "NSC 99743", "2-(4-[3-[1-(2-Hydroxyethyl)piperidin-4-yl]propyl]piperidin-1-yl)ethan-1-ol"], "SMILES": "C(CCC1CCN(CCO)CC1)C2CCN(CCO)CC2", "physical_data": {"Molecular Weight": "298.46", "Molecular Formula": "C17H34N2O2", "Boiling Point": "219 \u00b0C @ Press: 1 Torr", "Melting Point": "95 \u00b0C"}}