{"cas_no": "18077-31-1", "cn_name": "(3 -\u6c2f\u4e19\u57fa)\u4e09(\u4e09\u7532\u57fa\u7845\u6c27\u57fa)\u7845\u70f7", "en_name": ["3-(3-Chloropropyl)-1,1,1,5,5,5-hexamethyl-3-[(trimethylsilyl)oxy]trisiloxane", "Trisiloxane, 3-(3-chloropropyl)-1,1,1,5,5,5-hexamethyl-3-[(trimethylsilyl)oxy]-", "Trisiloxane, 3-(3-chloropropyl)-1,1,1,5,5,5-hexamethyl-3-(trimethylsiloxy)-", "3-(3-Chloropropyl)-1,1,1,5,5,5-hexamethyl-3-[(trimethylsilyl)oxy]trisiloxane", "3-Chloropropyltris(trimethylsiloxy)silane", "3-Chloropropyltris(trimethylsilyloxy)silane", "(\u03b3-Chloropropyl)tri(trimethylsiloxy)silane"], "SMILES": "[Si](O[Si](C)(C)C)(O[Si](C)(C)C)(O[Si](C)(C)C)CCCCl", "physical_data": {"Molecular Weight": "373.18", "Molecular Formula": "C12H33ClO3Si4", "Boiling Point": "181 \u00b0C @ Press: 100 Torr", "Density": "0.922 g/cm\u00b3 @ Temp: 25 \u00b0C"}}