{"cas_no": "18087-76-8", "cn_name": "6-\u6c2f-3-\u785d\u57fa\u54aa\u5511\u5e76[1,2-B]\u54d2\u55ea", "en_name": ["6-Chloro-3-nitroimidazo[1,2-b]pyridazine", "Imidazo[1,2-b]pyridazine, 6-chloro-3-nitro-", "6-Chloro-3-nitroimidazo[1,2-b]pyridazine"], "SMILES": "N(=O)(=O)C=1N2C(=NC1)C=CC(Cl)=N2", "physical_data": {"Molecular Weight": "198.57", "Molecular Formula": "C6H3ClN4O2", "Melting Point": "210 \u00b0C"}}