{"cas_no": "18084-64-5", "cn_name": "1,4,7,10-\u56db\u82c4\u57fa-1,4,7,10-\u56db\u6c2e\u6742\u73af\u5341\u4e8c\u70f7", "en_name": ["1,4,7,10-Tetrabenzyl-1,4,7,10-tetraazacyclododecane", "1,4,7,10-Tetraazacyclododecane, 1,4,7,10-tetrakis(phenylmethyl)-", "1,4,7,10-Tetraazacyclododecane, 1,4,7,10-tetrabenzyl-", "1,4,7,10-Tetrakis(phenylmethyl)-1,4,7,10-tetraazacyclododecane", "1,4,7,10-Tetrabenzyl-1,4,7,10-tetraazacyclododecane", "1,4,7,10-Tetrakisbenzyl-1,4,7,10-tetraazacyclododecane", "1,4,7,10-Tetrabenzyl-1,4,7,10-tetrazacyclododecane"], "SMILES": "C(N1CCN(CC2=CC=CC=C2)CCN(CC3=CC=CC=C3)CCN(CC4=CC=CC=C4)CC1)C5=CC=CC=C5", "physical_data": {"Molecular Weight": "532.76", "Molecular Formula": "C36H44N4", "Melting Point": "140-142 \u00b0C"}}