{"cas_no": "18080-67-6", "cn_name": "1,4-\u4e8c\u6c27\u4ee3-2,3-\u4e8c\u6eb4\u7532\u57fa\u55b9\u5549", "en_name": ["Quinoxaline, 2,3-bis(bromomethyl)-, 1,4-dioxide", "Quinoxaline, 2,3-bis(bromomethyl)-, 1,4-dioxide", "2,3-Bis(bromomethyl)quinoxaline 1,4-dioxide", "Conoidin A", "2,3-bis(bromomethyl)quinoxaline-1,4-diium-1,4-bis(olate)", "2,3-Bis(bromomethyl)-1-oxoquinoxalin-1-ium-4(1H)-olate"], "SMILES": "O=N=1C2=C(N(=O)=C(CBr)C1CBr)C=CC=C2", "physical_data": {"Molecular Weight": "347.99", "Molecular Formula": "C10H8Br2N2O2", "Melting Point": "180-190 \u00b0C (decomp)"}}