{"cas_no": "18085-02-4", "cn_name": "3,4-\u53cc\u4e59\u9178\u57fa-1\u4e01\u70ef", "en_name": ["3-Butene-1,2-diol, 1,2-diacetate", "3-Butene-1,2-diol, 1,2-diacetate", "3-Butene-1,2-diol, diacetate", "Diacetoxybutene", "2-(Acetoxymethyl)-3-acetoxy-1-propene", "3,4-Diacetoxy-1-butene", "1,2-Diacetoxy-3-butene", "1-Butene-3,4-diyl diacetate", "1-Butene-3,4-diol diacetate", "3,4-Diacetyloxy-1-butene", "1-(Acetyloxy)but-3-en-2-yl acetate"], "SMILES": "C(COC(C)=O)(OC(C)=O)C=C", "physical_data": {"Molecular Weight": "172.18", "Molecular Formula": "C8H12O4", "Boiling Point": "94-98 \u00b0C @ Press: 12 Torr", "Density": "1.0603 g/cm\u00b3 @ Temp: 420 \u00b0C"}}