{"cas_no": "18085-97-7", "cn_name": "\u68d5\u77e2\u8f66\u83ca\u7d20", "en_name": ["Jaceosidin", "4H-1-Benzopyran-4-one, 5,7-dihydroxy-2-(4-hydroxy-3-methoxyphenyl)-6-methoxy-", "Flavone, 4\u2032,5,7-trihydroxy-3\u2032,6-dimethoxy-", "5,7-Dihydroxy-2-(4-hydroxy-3-methoxyphenyl)-6-methoxy-4H-1-benzopyran-4-one", "Jaceosidin", "3\u2032,6-Dimethoxy-4\u2032,5,7-trihydroxyflavone", "4\u2032,5,7-Trihydroxy-3\u2032,6-dimethoxyflavone", "4\u2032-Demethyleupatilin", "5,7,4\u2032-Trihydroxy-6,3\u2032-dimethoxyflavone", "6-Methoxyluteolin 3\u2032-methyl ether", "6-Hydroxyluteolin 6,3\u2032-dimethyl ether", "Jaseocidin"], "SMILES": "OC1=C2C(OC(=CC2=O)C3=CC(OC)=C(O)C=C3)=CC(O)=C1OC", "physical_data": {"Molecular Weight": "330.29", "Molecular Formula": "C17H14O7", "Melting Point": "259-260 \u00b0C"}}