{"cas_no": "1808-12-4", "cn_name": "BROMODIPHENHYDRAMINE", "en_name": ["Bromodiphenhydramine hydrochloride", "Ethanamine, 2-[(4-bromophenyl)phenylmethoxy]-N,N-dimethyl-, hydrochloride (1:1)", "Ethylamine, 2-[(p-bromo-\u03b1-phenylbenzyl)oxy]-N,N-dimethyl-, hydrochloride", "Ethanamine, 2-[(4-bromophenyl)phenylmethoxy]-N,N-dimethyl-, hydrochloride", "Ambodryl hydrochloride", "Bromdiphenylhydramine hydrochloride", "\u03b2-(p-Bromobenzhydryloxy)ethyldimethylamine hydrochloride", "Bromodiphenhydramine hydrochloride", "2-(4-Bromodiphenylmethoxy)ethyldimethylamine hydrochloride", "4-Bromo-\u03b1-phenylbenzyl 2-dimethylaminoethyl ether hydrochloride", "Bromdiphenhydramine hydrochloride", "Bromazine hydrochloride", "NSC 36113"], "SMILES": "C(OCCN(C)C)(C1=CC=C(Br)C=C1)C2=CC=CC=C2.Cl", "physical_data": {"Molecular Weight": "", "Molecular Formula": "C17H20BrNO.ClH", "Melting Point": "144-145 \u00b0C"}}