{"cas_no": "1809-10-5", "cn_name": "3-\u6eb4\u620a\u70f7", "en_name": ["3-Bromopentane", "Pentane, 3-bromo-", "3-Bromopentane", "3-Pentyl bromide"], "SMILES": "C(CC)(CC)Br", "physical_data": {"Molecular Weight": "151.04", "Molecular Formula": "C5H11Br", "Boiling Point": "118.6 \u00b0C", "Melting Point": "-126.2 \u00b0C", "Density": "1.2171 g/cm\u00b3 @ Temp: 20 \u00b0C"}}