{"cas_no": "1809-20-7", "cn_name": "\u4e9a\u78f7\u9178\u4e8c\u5f02\u4e19\u916f", "en_name": ["Diisopropyl phosphite", "Phosphonic acid, bis(1-methylethyl) ester", "Phosphonic acid, diisopropyl ester", "Isopropyl phosphonate ((C3H7O)2HPO)", "Diisopropyl phosphite", "Diisopropyl phosphonate", "Diisopropyl hydrogen phosphite", "O,O-Diisopropyl phosphonate", "Isopropyl phosphite ((C3H7O)2(HO)P)", "Bis(2-propyl) phosphite", "Diisopropoxyphosphine oxide", "NSC 82344", "T 451", "T 451 (antiwear additive)", "2-Propan-2-yloxyphosphonoyloxypropane"], "SMILES": "O(P(OC(C)C)=O)C(C)C", "physical_data": {"Molecular Weight": "166.16", "Molecular Formula": "C6H15O3P", "Boiling Point": "97 \u00b0C @ Press: 40 Torr", "Density": "1.020 g/cm\u00b3 @ Temp: 25 \u00b0C"}}