{"cas_no": "18097-52-4", "cn_name": "2-\u6c28\u57fa-5-\u6c2f\u4e8c\u82ef\u916e\u809f", "en_name": ["Methanone, (2-amino-5-chlorophenyl)phenyl-, oxime", "Methanone, (2-amino-5-chlorophenyl)phenyl-, oxime", "Benzophenone, 2-amino-5-chloro-, oxime", "2-Amino-5-chlorobenzophenone oxime", "5-Chloro-2-aminobenzophenone oxime", "NSC 86144", "(2-Amino-5-chlorophenyl)(phenyl)methanoneoxime", "(2-Amino-5-chlorophenyl)-phenylmethanone oxime"], "SMILES": "C(=NO)(C1=C(N)C=CC(Cl)=C1)C2=CC=CC=C2", "physical_data": {"Molecular Weight": "246.69", "Molecular Formula": "C13H11ClN2O", "Melting Point": "164-167 \u00b0C"}}