{"cas_no": "1809-19-4", "cn_name": "\u4e9a\u78f7\u9178\u4e8c\u4e01\u916f", "en_name": ["Dibutyl phosphite", "Phosphonic acid, dibutyl ester", "Butyl phosphite ((C4H9O)2(HO)P)", "Butyl phosphonate ((BuO)2HPO)", "Dibutyl phosphite", "Dibutyl phosphonate", "Di-n-butyl hydrogen phosphite", "Phosphorous acid, dibutyl ester", "Dibutyl hydrogen phosphite", "Butyl alcohol, hydrogen phosphite", "Dibutoxyphosphine oxide", "Butyl phosphonate ((C4H9O)2HPO)", "DBP 1", "Di-n-butyl phosphite", "NSC 2668", "Duraphos DBHP", "T 304"], "SMILES": "O(P(OCCCC)=O)CCCC", "physical_data": {"Molecular Weight": "194.21", "Molecular Formula": "C8H19O3P", "Boiling Point": "95 \u00b0C @ Press: 1 Torr", "Melting Point": "70.5 \u00b0C", "Density": "0.9860 g/cm\u00b3 @ Temp: 25 \u00b0C"}}