{"cas_no": "18092-54-1", "cn_name": "4-\u7532\u6c27\u57fa-2-\u785d\u57fa\u82ef\u78fa\u9170\u6c2f", "en_name": ["4-Methoxy-2-nitrobenzenesulfonyl chloride", "Benzenesulfonyl chloride, 4-methoxy-2-nitro-", "4-Methoxy-2-nitrobenzenesulfonyl chloride", "4-Methoxy-2-nitrophenylsulfonyl chloride", "2-Nitro-4-methoxybenzenesulfonyl chloride", "4-Methoxy-2-nitrobenzene-1-sulfonyl chloride"], "SMILES": "N(=O)(=O)C1=C(S(Cl)(=O)=O)C=CC(OC)=C1", "physical_data": {"Molecular Weight": "251.64", "Molecular Formula": "C7H6ClNO5S", "Melting Point": "74-75 \u00b0C"}}