{"cas_no": "180916-16-9", "cn_name": "\u62c9\u7d22\u6614\u82ac", "en_name": ["Lasofoxifene", "2-Naphthalenol, 5,6,7,8-tetrahydro-6-phenyl-5-[4-[2-(1-pyrrolidinyl)ethoxy]phenyl]-, (5R,6S)-", "2-Naphthalenol, 5,6,7,8-tetrahydro-6-phenyl-5-[4-[2-(1-pyrrolidinyl)ethoxy]phenyl]-, (5R-cis)-", "(5R,6S)-5,6,7,8-Tetrahydro-6-phenyl-5-[4-[2-(1-pyrrolidinyl)ethoxy]phenyl]-2-naphthalenol", "Lasofoxifene", "(-)-cis-6(S)-Phenyl-5(R)-[4-(2-pyrrolidin-1-ylethoxy)phenyl]-5,6,7,8-tetrahydronaphthalen-2-ol"], "SMILES": "OC=1C=C2C(C(C(CC2)C3=CC=CC=C3)C4=CC=C(OCCN5CCCC5)C=C4)=CC1", "physical_data": {"Molecular Weight": "413.55", "Molecular Formula": "C28H31NO2", "Melting Point": "132-134.3 \u00b0C"}}