{"cas_no": "18103-42-9", "cn_name": "5,7-\u4e8c\u7f9f\u57fa-3',4',5'-\u4e09\u7532\u6c27\u57fa\u9ec4\u916e", "en_name": ["5,7-Dihydroxy-3\u2032,4\u2032,5\u2032-trimethoxyflavone", "4H-1-Benzopyran-4-one, 5,7-dihydroxy-2-(3,4,5-trimethoxyphenyl)-", "Flavone, 5,7-dihydroxy-3\u2032,4\u2032,5\u2032-trimethoxy-", "5,7-Dihydroxy-2-(3,4,5-trimethoxyphenyl)-4H-1-benzopyran-4-one", "5,7-Dihydroxy-3\u2032,4\u2032,5\u2032-trimethoxyflavone", "Tricetin 3\u2032,4\u2032,5\u2032-trimethyl ether", "3\u2032,4\u2032,5\u2032-Tri-O-methyl-tricetin", "NSC 123410"], "SMILES": "O=C1C=2C(OC(=C1)C3=CC(OC)=C(OC)C(OC)=C3)=CC(O)=CC2O", "physical_data": {"Molecular Weight": "344.32", "Molecular Formula": "C18H16O7", "Melting Point": "264-265 \u00b0C"}}