{"cas_no": "18107-18-1", "cn_name": "\u4e09\u7532\u57fa\u7845\u70f7\u5316\u91cd\u6c2e\u7532\u70f7", "en_name": ["Trimethylsilyldiazomethane", "Silane, (diazomethyl)trimethyl-", "(Diazomethyl)trimethylsilane", "Trimethylsilyldiazomethane", "Diazo((trimethylsilyl))methane", "Methanediazonium, (trimethylsilyl)-, inner salt"], "SMILES": "C([Si](C)(C)C)=[N+]=[N-]", "physical_data": {"Molecular Weight": "", "Molecular Formula": "C4H10N2Si", "Boiling Point": "96 \u00b0C", "Density": "0.675 g/cm\u00b3"}}