{"cas_no": "1810-72-6", "cn_name": "2,6-\u4e8c\u6c2f\u55b9\u5549", "en_name": ["2,6-Dichloroquinoline", "Quinoline, 2,6-dichloro-", "2,6-Dichloroquinoline"], "SMILES": "ClC1=CC2=C(N=C(Cl)C=C2)C=C1", "physical_data": {"Molecular Weight": "198.05", "Molecular Formula": "C9H5Cl2N", "Melting Point": "162-163 \u00b0C"}}