{"cas_no": "1810-74-8", "cn_name": "7-\u7532\u6c27\u57fa-2,2,4-\u4e09\u7532\u57fa-1,2-\u4e8c\u6c22\u55b9\u5549", "en_name": ["1,2-Dihydro-7-methoxy-2,2,4-trimethylquinoline", "Quinoline, 1,2-dihydro-7-methoxy-2,2,4-trimethyl-", "1,2-Dihydro-7-methoxy-2,2,4-trimethylquinoline", "2,2,4-Trimethyl-7-methoxy-1,2-dihydroquinoline", "7-Methoxy-2,2,4-trimethyl-1,2-dihydroquinoline"], "SMILES": "CC=1C=2C(NC(C)(C)C1)=CC(OC)=CC2", "physical_data": {"Molecular Weight": "203.28", "Molecular Formula": "C13H17NO", "Melting Point": "67-69 \u00b0C"}}