{"cas_no": "18105-31-2", "cn_name": "\u5df1\u4e8c\u9178\u4e8c(\u4e09\u7532\u57fa\u7845\u916f)", "en_name": ["1,6-Bis(trimethylsilyl) hexanedioate", "Hexanedioic acid, 1,6-bis(trimethylsilyl) ester", "Adipic acid, bis(trimethylsilyl) ester", "Hexanedioic acid, bis(trimethylsilyl) ester", "1,6-Bis(trimethylsilyl) hexanedioate", "Bis(trimethylsilyl) adipate"], "SMILES": "O([Si](C)(C)C)C(CCCCC(O[Si](C)(C)C)=O)=O", "physical_data": {"Molecular Weight": "290.50", "Molecular Formula": "C12H26O4Si2", "Boiling Point": "134-136 \u00b0C @ Press: 12 Torr", "Density": "0.948 g/cm\u00b3"}}