{"cas_no": "18109-81-4", "cn_name": "\u67b8\u6a7c\u9178\u5e03\u4ed6\u7c73\u916f", "en_name": ["Butamirate citrate", "Benzeneacetic acid, \u03b1-ethyl-, 2-[2-(diethylamino)ethoxy]ethyl ester, 2-hydroxy-1,2,3-propanetricarboxylate (1:1)", "Butyric acid, 2-phenyl-, 2-[2-(diethylamino)ethoxy]ethyl ester, citrate (1:1)", "Ethanol, 2-[2-(diethylamino)ethoxy]-, 2-phenylbutyrate (ester), citrate (1:1)", "HH 197", "Butamirate citrate", "2-[2-(Diethylamino)ethoxy]ethyl-2-phenylbutyrate citrate (1:1)", "Abbott 36581", "Acodeen", "Sincodeen", "Sincodin", "Sincodix", "Sinecod", "Sinecond", "Panatus", "Cough Cut", "2-(2-(Diethylamino)ethoxy)ethyl 2-phenylbutanoate 2-hydroxypropane-1,2,3-tricarboxylate"], "SMILES": "C(CC(O)=O)(CC(O)=O)(C(O)=O)O.C(C(OCCOCCN(CC)CC)=O)(CC)C1=CC=CC=C1", "physical_data": {"Molecular Weight": "", "Molecular Formula": "C18H29NO3.C6H8O7", "Melting Point": "75 \u00b0C"}}