{"cas_no": "18110-87-7", "cn_name": "\u82e6\u6728\u78b1\u4e01", "en_name": ["4,5-Dimethoxycanthin-6-one", "6H-Indolo[3,2,1-de][1,5]naphthyridin-6-one, 4,5-dimethoxy-", "4,5-Dimethoxy-6H-indolo[3,2,1-de][1,5]naphthyridin-6-one", "O-Methylnigakinone", "4,5-Dimethoxycanthin-6-one", "Methylnigakinone", "4,5-Dimethoxy-\u03b2-canthin-6-one"], "SMILES": "O=C1N2C=3C(C=4C2=CC=CC4)=CC=NC3C(OC)=C1OC", "physical_data": {"Molecular Weight": "280.28", "Molecular Formula": "C16H12N2O3", "Melting Point": "145-146 \u00b0C"}}