{"cas_no": "181139-72-0", "cn_name": "[S-(E)]-2-[3-[3-[2-(7-\u6c2f-2-\u55b9\u5549\u57fa)\u4e59\u70ef\u57fa]\u82ef\u57fa]-3-\u7f9f\u57fa\u4e19\u57fa]\u82ef\u7532\u9178\u7532\u916f", "en_name": ["Methyl 2-[(3S)-3-[3-[(1E)-2-(7-chloro-2-quinolinyl)ethenyl]phenyl]-3-hydroxypropyl]benzoate", "Benzoic acid, 2-[(3S)-3-[3-[(1E)-2-(7-chloro-2-quinolinyl)ethenyl]phenyl]-3-hydroxypropyl]-, methyl ester", "Benzoic acid, 2-[3-[3-[2-(7-chloro-2-quinolinyl)ethenyl]phenyl]-3-hydroxypropyl]-, methyl ester, [S-(E)]-", "Methyl 2-[(3S)-3-[3-[(1E)-2-(7-chloro-2-quinolinyl)ethenyl]phenyl]-3-hydroxypropyl]benzoate", "Methyl (S),(E)-2-[3-[3-[2-(7-chloro-2-quinolinyl)ethenyl]phenyl]-3-hydroxypropyl]benzoate"], "SMILES": "C(=CC1=CC(C(CCC2=C(C(OC)=O)C=CC=C2)O)=CC=C1)C3=NC4=C(C=C3)C=CC(Cl)=C4", "physical_data": {"Molecular Weight": "457.95", "Molecular Formula": "C28H24ClNO3", "Melting Point": "84 \u00b0C"}}