{"cas_no": "1811-31-0", "cn_name": "N-\u4e59\u9170-D-\u534a\u4e73\u7cd6\u80fa", "en_name": ["GalNAc", "D-Galactose, 2-(acetylamino)-2-deoxy-", "Galactose, 2-acetamido-2-deoxy-, D-", "Galactosamine, N-acetyl-, D-", "2-(Acetylamino)-2-deoxy-D-galactose", "2-Acetamido-2-deoxy-D-galactose", "N-Acetyl-D-galactosamine", "N-Acetyl-2-amino-2-deoxy-D-galactose", "N-Acetyl-2-amino-2-deoxygalactose", "N-Acetylgalactosamine", "2-Deoxy-2-acetamido-D-galactose", "2-N-Acetyl-D-galactosamine", "D-N-Acetylgalactosamine", "N-Acetylchondrosamine", "GalNAc", "N-Acetyl D-galactosamine", "1: PN: WO2021037972 SEQID: 578 claimed sequence", "10: PN: WO2022006134 SEQID: 2166 claimed sequence"], "SMILES": "C(C(C(C(CO)O)O)O)(NC(C)=O)C=O", "physical_data": {"Molecular Weight": "221.21", "Molecular Formula": "C8H15NO6", "Melting Point": "159-160 \u00b0C"}}