{"cas_no": "18113-07-0", "cn_name": "4-\u6c2f-3-\u7532\u6c27\u57fa\u82ef\u915a", "en_name": ["4-Chloro-3-methoxyphenol", "Phenol, 4-chloro-3-methoxy-", "4-Chloro-3-methoxyphenol"], "SMILES": "O(C)C1=C(Cl)C=CC(O)=C1", "physical_data": {"Molecular Weight": "158.58", "Molecular Formula": "C7H7ClO2", "Boiling Point": "141-150 \u00b0C @ Press: 18 Torr", "Melting Point": "79-80 \u00b0C"}}