{"cas_no": "18110-86-6", "cn_name": "\u82e6\u6728\u78b1\u4e59", "en_name": ["4-Methoxy-5-hydroxycanthin-6-one", "6H-Indolo[3,2,1-de][1,5]naphthyridin-6-one, 5-hydroxy-4-methoxy-", "5-Hydroxy-4-methoxy-6H-indolo[3,2,1-de][1,5]naphthyridin-6-one", "Nigakinone", "5-Hydroxy-4-methoxycanthin-6-one", "4-Methoxy-5-hydroxycanthin-6-one"], "SMILES": "O=C1N2C=3C(C=4C2=CC=CC4)=CC=NC3C(OC)=C1O", "physical_data": {"Molecular Weight": "266.25", "Molecular Formula": "C15H10N2O3", "Melting Point": "224-225 \u00b0C"}}