{"cas_no": "18113-04-7", "cn_name": "2-\u6c2f-5-\u7532\u6c27\u57fa\u82ef\u915a", "en_name": ["2-Chloro-5-methoxyphenol", "Phenol, 2-chloro-5-methoxy-", "2-Chloro-5-methoxyphenol", "6-Chloro-3-methoxyphenol"], "SMILES": "O(C)C1=CC(O)=C(Cl)C=C1", "physical_data": {"Molecular Weight": "158.58", "Molecular Formula": "C7H7ClO2", "Boiling Point": "120-127 \u00b0C @ Press: 17 Torr"}}