{"cas_no": "18113-03-6", "cn_name": "2-\u6c2f-4\u7532\u6c27\u57fa\u82ef\u915a", "en_name": ["2-Chloro-4-methoxyphenol", "Phenol, 2-chloro-4-methoxy-", "2-Chloro-4-methoxyphenol"], "SMILES": "O(C)C1=CC(Cl)=C(O)C=C1", "physical_data": {"Molecular Weight": "158.58", "Molecular Formula": "C7H7ClO2", "Boiling Point": "108 \u00b0C @ Press: 15 Torr", "Melting Point": "46-47 \u00b0C"}}