{"cas_no": "18123-20-1", "cn_name": "4-\u7f9f\u57fa\u5416\u5576", "en_name": ["4-Hydroxyacridine", "4-Acridinol", "4-Hydroxyacridine"], "SMILES": "OC=1C2=C(C=C3C(=N2)C=CC=C3)C=CC1", "physical_data": {"Molecular Weight": "195.22", "Molecular Formula": "C13H9NO", "Melting Point": "117 \u00b0C"}}