{"cas_no": "181289-33-8", "cn_name": "(R)-(-)-3-(\u6c28\u7532\u9170\u7532\u57fa)-5-\u7532\u57fa\u5df1\u9178", "en_name": ["(R)-3-(Carbamoylmethyl)-5-methylhexanoic acid", "Hexanoic acid, 3-(2-amino-2-oxoethyl)-5-methyl-, (3R)-", "Hexanoic acid, 3-(2-amino-2-oxoethyl)-5-methyl-, (R)-", "(3R)-3-(2-Amino-2-oxoethyl)-5-methylhexanoic acid", "(R)-3-(Carbamoylmethyl)-5-methylhexanoic acid", "(R)-(-)-3-(Carbamoylmethyl)-5-methylhexanoic acid", "(R)-3-(2-Amino-2-oxoethyl)-5-methylhexanoic acid", "(3R)-3-(2-Amino-2-oxoethyl)-5-methylhexanoic acid"], "SMILES": "C(CC(C)C)(CC(N)=O)CC(O)=O", "physical_data": {"Molecular Weight": "187.24", "Molecular Formula": "C9H17NO3", "Melting Point": "131-135 \u00b0C"}}