{"cas_no": "18127-01-0", "cn_name": "4-(1,1-\u4e8c\u7532\u57fa\u4e59\u57fa)\u82ef\u4e19\u919b", "en_name": ["Bourgeonal", "Benzenepropanal, 4-(1,1-dimethylethyl)-", "Hydrocinnamaldehyde, p-tert-butyl-", "4-(1,1-Dimethylethyl)benzenepropanal", "p-tert-Butyldihydrocinnamaldehyde", "3-(4-tert-Butylphenyl)propanal", "Bourgeonal", "3-(p-tert-Butylphenyl)propanal"], "SMILES": "C(C)(C)(C)C1=CC=C(CCC=O)C=C1", "physical_data": {"Molecular Weight": "190.28", "Molecular Formula": "C13H18O", "Boiling Point": "112-114 \u00b0C @ Press: 2.5 Torr"}}