{"cas_no": "181231-67-4", "cn_name": "\u4e01\u57fa\u4e8c\u7532\u57fa(\u4e8c\u7532\u6c28\u57fa)\u7845\u70f7", "en_name": ["1-Butyl-N,N,1,1-tetramethylsilanamine", "Silanamine, 1-butyl-N,N,1,1-tetramethyl-", "1-Butyl-N,N,1,1-tetramethylsilanamine", "Butyldimethyl(dimethylamino)silane", "(Butyldimethylsilyl)dimethylamine"], "SMILES": "[Si](N(C)C)(CCCC)(C)C", "physical_data": {"Molecular Weight": "159.34", "Molecular Formula": "C8H21NSi", "Boiling Point": "47-49 \u00b0C @ Press: 12 Torr", "Density": "0.772 g/cm\u00b3"}}