{"cas_no": "1812-30-2", "cn_name": "\u6eb4\u897f\u6cee", "en_name": ["Bromazepam", "2H-1,4-Benzodiazepin-2-one, 7-bromo-1,3-dihydro-5-(2-pyridinyl)-", "2H-1,4-Benzodiazepin-2-one, 7-bromo-1,3-dihydro-5-(2-pyridyl)-", "7-Bromo-1,3-dihydro-5-(2-pyridinyl)-2H-1,4-benzodiazepin-2-one", "7-Bromo-1,3-dihydro-5-(2-pyridyl)-2H-1,4-benzdiazepin-2-one", "Bromazepam", "Ro 5-3350", "7-Bromo-1,3-dihydro-5-(2-pyridyl)-2H-1,4-benzodiazepin-2-one", "Lexotanil", "KL 001", "Lexilium", "Lexomil", "Compendium", "Lexotan", "Creosedin", "Normoc", "Durazanil", "NSC 140669", "Calmepam", "Lextonil", "Neoopt", "7-Bromo-(2-Pyridyl)-1H-1,4-benzodiazepine-2(3H)-one", "MeSH ID: D001960"], "SMILES": "BrC=1C=C2C(=NCC(=O)NC2=CC1)C3=CC=CC=N3", "physical_data": {"Molecular Weight": "316.15", "Molecular Formula": "C14H10BrN3O", "Melting Point": "237-238 \u00b0C"}}