{"cas_no": "18138-03-9", "cn_name": "2-\u4e19\u57fa\u5421\u55ea", "en_name": ["Propylpyrazine", "Pyrazine, 2-propyl-", "Pyrazine, propyl-", "2-Propylpyrazine", "Propylpyrazine"], "SMILES": "C(CC)C=1C=NC=CN1", "physical_data": {"Molecular Weight": "122.17", "Molecular Formula": "C7H10N2", "Boiling Point": "89-93 \u00b0C @ Press: 760 Torr"}}