{"cas_no": "1813-60-1", "cn_name": "\u56db\u4e01\u57fa\u81a6\u56db\u6c1f\u787c\u9178\u76d0", "en_name": ["Phosphonium, tetrabutyl-, tetrafluoroborate(1-) (1:1)", "Phosphonium, tetrabutyl-, tetrafluoroborate(1-) (1:1)", "Phosphonium, tetrabutyl-, tetrafluoroborate(1-)", "Tetrabutylphosphonium tetrafluoroborate", "Borate(1-), tetrafluoro-, tetrabutylphosphonium", "Tetra-n-butylphosphonium tetrafluoroborate", "PX 4FB", "Hishicolin PX 4FB", "Bu4PBF4"], "SMILES": "[B+3]([F-])([F-])([F-])[F-].[P+](CCCC)(CCCC)(CCCC)CCCC", "physical_data": {"Molecular Weight": "", "Molecular Formula": "C16H36P.BF4", "Melting Point": "98 \u00b0C"}}