{"cas_no": "18132-72-4", "cn_name": "1,3-\u4e8c(3-\u6c2f\u4e19\u57fa)-1,1,3,3-\u56db\u7532\u57fa\u4e8c\u7845\u6c27\u70f7", "en_name": ["1,3-Bis(3-chloropropyl)-1,1,3,3-tetramethyldisiloxane", "Disiloxane, 1,3-bis(3-chloropropyl)-1,1,3,3-tetramethyl-", "1,3-Bis(3-chloropropyl)-1,1,3,3-tetramethyldisiloxane", "1,1,3,3-Tetramethyl-1,3-bis(3-chloropropyl)disiloxane", "1,1,3,3-Tetramethyl-1,3-di(3-chloropropyl)disiloxane", "3-Chloropropyl-[3-chloropropyl(dimethyl)silyl]oxy-dimethylsilane"], "SMILES": "[Si](O[Si](CCCCl)(C)C)(CCCCl)(C)C", "physical_data": {"Molecular Weight": "287.37", "Molecular Formula": "C10H24Cl2OSi2", "Boiling Point": "128 \u00b0C @ Press: 7 Torr", "Density": "0.996 g/cm\u00b3 @ Temp: 25 \u00b0C"}}