{"cas_no": "18143-33-4", "cn_name": "\u6c2f(\u4e8c\u7532\u57fa)\u7532\u6c27\u57fa\u7845\u70f7", "en_name": ["(Chloromethyl)methoxydimethylsilane", "Silane, (chloromethyl)methoxydimethyl-", "(Chloromethyl)methoxydimethylsilane", "(Chloromethyl)dimethyl(methoxy)silane"], "SMILES": "[Si](CCl)(OC)(C)C", "physical_data": {"Molecular Weight": "138.67", "Molecular Formula": "C4H11ClOSi", "Boiling Point": "116.5-117 \u00b0C", "Density": "0.989 g/cm\u00b3 @ Temp: 20 \u00b0C"}}