{"cas_no": "18147-18-7", "cn_name": "\u53d4\u4e01\u57fa\u7532\u57fa\u4e8c\u6c2f\u7845\u70f7", "en_name": ["Dichloro(1,1-dimethylethyl)methylsilane", "Silane, dichloro(1,1-dimethylethyl)methyl-", "Silane, tert-butyldichloromethyl-", "Dichloro(1,1-dimethylethyl)methylsilane", "tert-Butylmethyldichlorosilane", "tert-Butyldichloromethylsilane", "Dichloro-tert-butylmethylsilane"], "SMILES": "C([Si](C)(Cl)Cl)(C)(C)C", "physical_data": {"Molecular Weight": "171.14", "Molecular Formula": "C5H12Cl2Si", "Boiling Point": "130-132 \u00b0C", "Melting Point": "88-90 \u00b0C"}}