{"cas_no": "18145-83-0", "cn_name": "\u6c2f\u5f02\u4e01\u57fa\u5316\u4e8c\u7532\u57fa\u5316\u6c2f\u7845\u70f7", "en_name": ["Chloro(3-chloro-2-methylpropyl)dimethylsilane", "Silane, chloro(3-chloro-2-methylpropyl)dimethyl-", "Chloro(3-chloro-2-methylpropyl)dimethylsilane"], "SMILES": "C([Si](C)(C)Cl)C(CCl)C", "physical_data": {"Molecular Weight": "185.17", "Molecular Formula": "C6H14Cl2Si", "Boiling Point": "89 \u00b0C @ Press: 25 Torr", "Density": "1.03 g/cm\u00b3 @ Temp: 25 \u00b0C"}}