{"cas_no": "18147-23-4", "cn_name": "N-\u4e01\u57fa\u7532\u57fa\u4e8c\u6c2f\u5316\u7845", "en_name": ["Butyldichloromethylsilane", "Silane, butyldichloromethyl-", "Butyldichloromethylsilane", "Butylmethyldichlorosilane", "n-Butylmethyldichlorosilane"], "SMILES": "C([Si](C)(Cl)Cl)CCC", "physical_data": {"Molecular Weight": "171.14", "Molecular Formula": "C5H12Cl2Si", "Boiling Point": "148 \u00b0C", "Density": "1.042 g/cm\u00b3"}}