{"cas_no": "18147-81-4", "cn_name": "2-\u7532\u916f\u57fa\u4e59\u57fa\u4e09\u6c2f\u7845\u70f7", "en_name": ["Propanoic acid, 3-(trichlorosilyl)-, methyl ester", "Propanoic acid, 3-(trichlorosilyl)-, methyl ester", "Propionic acid, 3-(trichlorosilyl)-, methyl ester", "(2-Carbomethoxyethyl)trichlorosilane", "Methyl 3-(trichlorosilyl)propanoate"], "SMILES": "C(C(OC)=O)C[Si](Cl)(Cl)Cl", "physical_data": {"Molecular Weight": "221.54", "Molecular Formula": "C4H7Cl3O2Si", "Boiling Point": "90-92 \u00b0C @ Press: 25 Torr", "Density": "1.3250 g/cm\u00b3 @ Temp: 20 \u00b0C"}}