{"cas_no": "18146-00-4", "cn_name": "\u70ef\u4e19\u6c27\u57fa\u4e09\u7532\u7845\u70f7", "en_name": ["Allyl trimethylsilyl ether", "Silane, trimethyl(2-propen-1-yloxy)-", "Silane, (allyloxy)trimethyl-", "Silane, trimethyl(2-propenyloxy)-", "Trimethyl(2-propen-1-yloxy)silane", "(Allyloxy)trimethylsilane", "1-Trimethylsiloxy-2-propene", "Allyl trimethylsilyl ether", "Trimethylallyloxysilane", "1-Trimethylsilyloxy-2-propene", "Trimethylsilylallyl ether", "Trimethyl(2-propenyloxy)silane", "3-Trimethylsiloxy-1-propene"], "SMILES": "O([Si](C)(C)C)CC=C", "physical_data": {"Molecular Weight": "130.26", "Molecular Formula": "C6H14OSi", "Boiling Point": "100-102 \u00b0C", "Melting Point": "98-99 \u00b0C", "Density": "0.789 g/cm\u00b3"}}