{"cas_no": "18143-30-1", "cn_name": "2-\u4e09\u7532\u57fa\u7845\u70f7\u4e59\u786b\u9187", "en_name": ["2-(Trimethylsilyl)ethanethiol", "Ethanethiol, 2-(trimethylsilyl)-", "2-(Trimethylsilyl)ethanethiol", "2-Mercaptoethyltrimethylsilane", "2-Trimethylsilanyl-ethanethiol", "2-(Trimethylsilyl)ethane-1-thiol"], "SMILES": "C([Si](C)(C)C)CS", "physical_data": {"Molecular Weight": "134.32", "Molecular Formula": "C5H14SSi", "Boiling Point": "62-63 \u00b0C @ Press: 43 Torr", "Density": "0.8488 g/cm\u00b3 @ Temp: 20 \u00b0C"}}