{"cas_no": "18156-74-6", "cn_name": "\u4e09\u7532\u57fa\u7845\u54aa\u5511", "en_name": ["(Trimethylsilyl)imidazole", "1H-Imidazole, 1-(trimethylsilyl)-", "Imidazole, 1-(trimethylsilyl)-", "1-(Trimethylsilyl)-1H-imidazole", "N-(Trimethylsilyl)imidazole", "(Trimethylsilyl)imidazole", "N-(Trimethylsilyl)imidazol", "1-(Trimethylsilyl)imidazole", "TSIM", "1-Imidazolyltrimethylsilane", "Trimethylimidazosilane", "TMSI", "NSC 139860", "N-(Trimethylsilyl)-1H-imidazole"], "SMILES": "[Si](C)(C)(C)N1C=CN=C1", "physical_data": {"Molecular Weight": "140.26", "Molecular Formula": "C6H12N2Si", "Boiling Point": "99 \u00b0C @ Press: 14 Torr", "Melting Point": "105-106 \u00b0C", "Density": "0.956 g/cm\u00b3"}}