{"cas_no": "181528-64-3", "cn_name": "\u84bf\u7532\u919a\u6742\u8d28\u2161((3AS,4R,6AS,7R,8S,10R,10AR)[1]-8-\u7532\u6c27\u57fa-4,7-\u4e8c\u7532\u57fa\u516b\u6c22-2H-\u544b\u5583\u5e76[3,2-I][2]\u82ef\u5e76\u5421\u5583-10-\u9187\u918b\u9178\u916f)", "en_name": ["2H,10H-Furo[3,2-i]-2-benzopyran-10-ol, octahydro-8-methoxy-4,7-dimethyl-, 10-acetate, (3aS,4R,6aS,7R,8S,10R,10aR)-", "2H,10H-Furo[3,2-i]-2-benzopyran-10-ol, octahydro-8-methoxy-4,7-dimethyl-, 10-acetate, (3aS,4R,6aS,7R,8S,10R,10aR)-", "2H,10H-Furo[3,2-i][2]benzopyran-10-ol, octahydro-8-methoxy-4,7-dimethyl-, acetate, [3aS-(3a\u03b1,4\u03b1,6a\u03b1,7\u03b2,8\u03b2,10\u03b1,10aS*)]-", "2H,10H-Furo[3,2-i][2]benzopyran-10-ol, octahydro-8-methoxy-4,7-dimethyl-, acetate, (3aS,4R,6aS,7R,8S,10R,10aR)-", "Artemether tetrahydrofuran acetate", "\u03b2-Artemetherfurano acetate"], "SMILES": "O(C(C)=O)C1C23C(C(C)C(OC)O1)CCC(C)C2CCO3", "physical_data": {"Molecular Weight": "298.37", "Molecular Formula": "C16H26O5", "Melting Point": "93-94 \u00b0C"}}