{"cas_no": "18156-15-5", "cn_name": "(3-\u6c30\u57fa\u4e19\u57fa)\u4e8c\u7532\u57fa\u6c2f\u7845\u70f7", "en_name": ["3-Cyanopropyldimethylchlorosilane", "Butanenitrile, 4-(chlorodimethylsilyl)-", "Butyronitrile, 4-(chlorodimethylsilyl)-", "4-(Chlorodimethylsilyl)butanenitrile", "Chloro(3-cyanopropyl)dimethylsilane", "3-Cyanopropyldimethylchlorosilane", "3-Cyanopropyldimethylsilyl chloride", "3-(Chlorodimethylsilyl)butyronitrile"], "SMILES": "C([Si](C)(C)Cl)CCC#N", "physical_data": {"Molecular Weight": "161.70", "Molecular Formula": "C6H12ClNSi", "Boiling Point": "108-109 \u00b0C @ Press: 15 Torr", "Density": "0.986 g/cm\u00b3"}}