{"cas_no": "18151-85-4", "cn_name": "\u7532\u57fa\u4e19\u70ef\u9170\u6c27\u4e19\u57fa\u4e94\u7532\u57fa\u4e8c\u7845\u6c27\u70f7", "en_name": ["(3-Methacryloxypropyl)pentamethyldisiloxane", "2-Propenoic acid, 2-methyl-, 3-(1,1,3,3,3-pentamethyl-1-disiloxanyl)propyl ester", "Methacrylic acid, 3-(pentamethyldisiloxanyl)propyl ester", "2-Propenoic acid, 2-methyl-, 3-(pentamethyldisiloxanyl)propyl ester", "TSL 9705", "(3-Methacryloyloxypropyl)pentamethyldisiloxane", "(3-Methacryloxypropyl)pentamethyldisiloxane", "Pentamethyldisiloxanepropyl methacrylate"], "SMILES": "[Si](CCCOC(C(C)=C)=O)(O[Si](C)(C)C)(C)C", "physical_data": {"Molecular Weight": "274.50", "Molecular Formula": "C12H26O3Si2", "Boiling Point": "120-125 \u00b0C @ Press: 1 Torr", "Density": "0.901 g/cm\u00b3 @ Temp: 25 \u00b0C"}}