{"cas_no": "18162-48-6", "cn_name": "\u53d4\u4e01\u57fa\u4e8c\u7532\u57fa\u6c2f\u7845\u70f7", "en_name": ["tert-Butyldimethylsilyl chloride", "Silane, chloro(1,1-dimethylethyl)dimethyl-", "Silane, chloro-tert-butyldimethyl-", "Chloro(1,1-dimethylethyl)dimethylsilane", "Dimethyl-tert-butylchlorosilane", "(1,1-Dimethylethyl)dimethylsilyl chloride", "tert-Butyldimethylsilyl chloride", "tert-Butyldimethylchlorosilane", "Chlorodimethyl-tert-butylsilane", "Chloro-tert-butyldimethylsilane", "Dimethyl(1,1-dimethylethyl)chlorosilane", "Dimethyl-tert-butylsilyl chloride", "TBDMS chloride", "tert-Butylchlorodimethylsilane", "t-Butyldimethylchlorosilane", "TBDMS-Cl", "tert-Butyl(dimethyl)silane chloride", "2-(Chlorodimethylsilyl)-2-methylpropane", "TBSCl", "LS 1190", "2-[4-(TertButyldimethylsilanyloxy)phenyl] chloride"], "SMILES": "C([Si](C)(C)Cl)(C)(C)C", "physical_data": {"Molecular Weight": "150.72", "Molecular Formula": "C6H15ClSi", "Boiling Point": "126 \u00b0C", "Melting Point": "86-88 \u00b0C (sublm)", "Density": "0.872 g/cm\u00b3"}}