{"cas_no": "18162-84-0", "cn_name": "\u6c2f\u4e8c\u7532\u57fa\u8f9b\u7845\u70f7", "en_name": ["Chlorodimethyloctylsilane", "Silane, chlorodimethyloctyl-", "Chlorodimethyloctylsilane", "n-Octyldimethylchlorosilane", "Octyldimethylchlorosilane", "Dimethyl(octyl)silyl chloride", "Dimethyloctylchlorosilane", "Dimethyl-n-octylchlorosilane", "ODMCS", "LS 3490"], "SMILES": "C(CCCCCCC)[Si](C)(C)Cl", "physical_data": {"Molecular Weight": "206.83", "Molecular Formula": "C10H23ClSi", "Boiling Point": "222-225 \u00b0C", "Density": "0.794 g/cm\u00b3"}}