{"cas_no": "181632-25-7", "cn_name": "6 - \u6c2f-2,3 - \u4e8c\u6c22- 5 -\u7532\u57fa- N - [6 - [(2 - \u7532\u57fa-3 - \u5421\u5576\u57fa)\u6c27] -3 - \u5421\u5576\u57fa] - 1H -\u5432\u54da- 1 - \u9170\u80fa\u76d0\u9178\u76d0", "en_name": ["6-Chloro-2,3-dihydro-5-methyl-N-[6-[(2-methyl-3-pyridinyl)oxy]-3-pyridinyl]-1H-indole-1-carboxamide", "1H-Indole-1-carboxamide, 6-chloro-2,3-dihydro-5-methyl-N-[6-[(2-methyl-3-pyridinyl)oxy]-3-pyridinyl]-", "6-Chloro-2,3-dihydro-5-methyl-N-[6-[(2-methyl-3-pyridinyl)oxy]-3-pyridinyl]-1H-indole-1-carboxamide", "SB 242084"], "SMILES": "C(NC=1C=CC(OC2=C(C)N=CC=C2)=NC1)(=O)N3C=4C(CC3)=CC(C)=C(Cl)C4", "physical_data": {"Molecular Weight": "394.85", "Molecular Formula": "C21H19ClN4O2", "Melting Point": "181-183 \u00b0C"}}