{"cas_no": "18169-57-8", "cn_name": "\u5f02\u4e01\u57fa\u4e09\u6c2f\u7845\u70f7(0309\u7981\u7a7a\u8fd0)", "en_name": ["Trichloro(2-methylpropyl)silane", "Silane, trichloro(2-methylpropyl)-", "Silane, trichloroisobutyl-", "Trichloro(2-methylpropyl)silane", "Isobutyltrichlorosilane", "Trichloroisobutylsilane", "(2-Methylpropyl)trichlorosilane"], "SMILES": "C([Si](Cl)(Cl)Cl)C(C)C", "physical_data": {"Molecular Weight": "191.56", "Molecular Formula": "C4H9Cl3Si", "Boiling Point": "143.3 \u00b0C", "Density": "1.162 g/cm\u00b3"}}