{"cas_no": "18166-02-4", "cn_name": "\u6c28\u7532\u57fa\u4e09\u7532\u57fa\u7845\u70f7", "en_name": ["(Trimethylsilylmethyl)amine", "Methanamine, 1-(trimethylsilyl)-", "Methylamine, 1-(trimethylsilyl)-", "1-(Trimethylsilyl)methanamine", "(Trimethylsilylmethyl)amine", "Aminomethyltrimethylsilane", "1-(Trimethylsilyl)methylamine", "NSC 96778", "(Trimethylsilyl)methanamine", "Trimethyl(aminomethyl)silane", "SIA 0596.0"], "SMILES": "[Si](CN)(C)(C)C", "physical_data": {"Molecular Weight": "103.24", "Molecular Formula": "C4H13NSi", "Boiling Point": "94-95 \u00b0C", "Melting Point": "102-103 \u00b0C", "Density": "0.769 g/cm\u00b3"}}