{"cas_no": "181695-72-7", "cn_name": "\u4ee3\u4ed6\u8003\u6614", "en_name": ["Valdecoxib", "Benzenesulfonamide, 4-(5-methyl-3-phenyl-4-isoxazolyl)-", "4-(5-Methyl-3-phenyl-4-isoxazolyl)benzenesulfonamide", "SC 65872", "Valdecoxib", "4-(5-Methyl-3-phenylisoxazol-4-yl)benzenesulfonamide", "Bextra", "Valecoxib", "Valus", "Valz", "Vx 2", "Valdyn"], "SMILES": "CC1=C(C(=NO1)C2=CC=CC=C2)C3=CC=C(S(N)(=O)=O)C=C3", "physical_data": {"Molecular Weight": "314.36", "Molecular Formula": "C16H14N2O3S", "Melting Point": "172-173 \u00b0C"}}