{"cas_no": "18166-43-3", "cn_name": "\u53d4\u4e01\u57fa\u4e8c\u7532\u57fa\u7845\u70f7\u9187", "en_name": ["Silicic acid (H4SiO4), tris(1,1-dimethylethyl) ester", "Silicic acid (H4SiO4), tris(1,1-dimethylethyl) ester", "Silicic acid (H4SiO4), tri-tert-butyl ester", "Tri-tert-butoxysilanol", "Tri-tert-butyl silicate", "Tri(tert-butyloxy)silanol", "NSC 243646", "Tris(tert-butoxy)silanol"], "SMILES": "O([Si](OC(C)(C)C)(OC(C)(C)C)O)C(C)(C)C", "physical_data": {"Molecular Weight": "264.43", "Molecular Formula": "C12H28O4Si", "Boiling Point": "95 \u00b0C @ Press: 20 Torr", "Melting Point": "65-66 \u00b0C"}}