{"cas_no": "18163-34-3", "cn_name": "2-\u4e59\u9170\u6c27\u57fa\u4e59\u57fa\u7532\u57fa\u4e8c\u6c2f\u7845\u70f7", "en_name": ["Methyl 3-(dichloromethylsilyl)propanoate", "Propanoic acid, 3-(dichloromethylsilyl)-, methyl ester", "Propionic acid, 3-(dichloromethylsilyl)-, methyl ester", "Methyl 3-(dichloromethylsilyl)propanoate"], "SMILES": "C(C(OC)=O)C[Si](C)(Cl)Cl", "physical_data": {"Molecular Weight": "201.12", "Molecular Formula": "C5H10Cl2O2Si", "Boiling Point": "98-99 \u00b0C @ Press: 25 Torr", "Density": "1.870 g/cm\u00b3 @ Temp: 25 \u00b0C"}}