{"cas_no": "18166-37-5", "cn_name": "\u6b63\u5df1\u57fa\u4e09\u4e59\u6c27\u57fa\u7845\u70f7", "en_name": ["Hexyltriethoxysilane", "Silane, triethoxyhexyl-", "Triethoxyhexylsilane", "Hexyltriethoxysilane", "HTS-E", "Sila-Ace HTS-E", "Epokuriito SA", "AZ 6171", "KBE 3063", "KBG 3063", "LS 4808", "Z 6586", "n-Hexyltriethoxysilane"], "SMILES": "[Si](CCCCCC)(OCC)(OCC)OCC", "physical_data": {"Molecular Weight": "248.43", "Molecular Formula": "C12H28O3Si", "Boiling Point": "115 \u00b0C @ Press: 18 Torr", "Density": "0.86 g/cm\u00b3"}}