{"cas_no": "1816-85-9", "cn_name": "11BETA-\u7f9f\u57fa\u777e\u916e", "en_name": ["11\u03b2-Hydroxytestosterone", "Androst-4-en-3-one, 11,17-dihydroxy-, (11\u03b2,17\u03b2)-", "Androst-4-en-3-one, 11\u03b2,17\u03b2-dihydroxy-", "(11\u03b2,17\u03b2)-11,17-Dihydroxyandrost-4-en-3-one", "11\u03b2-Hydroxytestosterone", "4-Androstene-11\u03b2,17\u03b2-diol-3-one", "11\u03b2-Hydroxy-3-oxo-4-androsten-17\u03b2-ol", "11\u03b2,17\u03b2-Dihydroxy-4-androsten-3-one", "11\u03b2,17\u03b2-Dihydroxy-4-androstene-3-one", "NSC 12168"], "SMILES": "CC12C3C(C4C(C)(CC3O)C(O)CC4)CCC1=CC(=O)CC2", "physical_data": {"Molecular Weight": "304.42", "Molecular Formula": "C19H28O3", "Melting Point": "234.5-235.5 \u00b0C"}}