{"cas_no": "18179-39-0", "cn_name": "4-\u7898\u6c34\u6768\u9178\u7532\u916f", "en_name": ["Methyl 2-hydroxy-4-iodobenzoate", "Benzoic acid, 2-hydroxy-4-iodo-, methyl ester", "Salicylic acid, 4-iodo-, methyl ester", "Methyl 4-iodosalicylate", "Methyl 2-hydroxy-4-iodobenzoate", "Methyl 4-iodo-2-hydroxybenzoate", "2-Hydroxy-4-iodobenzoic acid methyl ester"], "SMILES": "C(OC)(=O)C1=C(O)C=C(I)C=C1", "physical_data": {"Molecular Weight": "278.04", "Molecular Formula": "C8H7IO3", "Melting Point": "60 \u00b0C"}}