{"cas_no": "1817-90-9", "cn_name": "2-\u4e59\u6c27\u57fa\u4e59\u57fa\u82ef", "en_name": ["(2-Ethoxyethyl)benzene", "Benzene, (2-ethoxyethyl)-", "Ether, ethyl phenethyl", "(2-Ethoxyethyl)benzene", "Ethyl phenethyl ether", "2-Phenylethyl ethyl ether", "NSC 37997"], "SMILES": "C(COCC)C1=CC=CC=C1", "physical_data": {"Molecular Weight": "150.22", "Molecular Formula": "C10H14O", "Boiling Point": "193-196 \u00b0C"}}