{"cas_no": "18172-67-3", "cn_name": "\u5de6\u65cb-beta-\u848e\u70ef", "en_name": ["(-)-\u03b2-Pinene", "Bicyclo[3.1.1]heptane, 6,6-dimethyl-2-methylene-, (1S,5S)-", "2(10)-Pinene, (1S,5S)-(-)-", "Bicyclo[3.1.1]heptane, 6,6-dimethyl-2-methylene-, (1S)-", "(1S,5S)-6,6-Dimethyl-2-methylenebicyclo[3.1.1]heptane", "l-\u03b2-Pinene", "(-)-\u03b2-Pinene", "(-)-2(10)-Pinene", "(-)-Nopinene", "(1S)-(-)-\u03b2-Pinene", "(S)-\u03b2-Pinene", "(S)-(-)-\u03b2-Pinene", "(-)-(1S)-\u03b2-Pinene", "(1S)-\u03b2-Pinene", "(-)-(1S,5S)-\u03b2-Pinene", "(1S)-6,6-Dimethyl-2-methylenebicyclo[3.1.1]heptane"], "SMILES": "CC1(C)C2CC1CCC2=C", "physical_data": {"Molecular Weight": "136.23", "Molecular Formula": "C10H16", "Boiling Point": "166 \u00b0C", "Melting Point": "-61 \u00b0C", "Density": "0.8649 g/cm\u00b3 @ Temp: 20 \u00b0C"}}