{"cas_no": "1817-57-8", "cn_name": "4-\u82ef\u57fa-3-\u4e01\u7094-2-\u916e", "en_name": ["4-Phenyl-3-butyn-2-one", "3-Butyn-2-one, 4-phenyl-", "4-Phenyl-3-butyn-2-one", "Acetylphenylacetylene", "Methyl phenylethynyl ketone", "Phenylethynyl methyl ketone", "1-Phenyl-1-butyn-3-one", "4-Phenyl-3-butyne-2-one", "(3-Oxo-1-butynyl)benzene"], "SMILES": "C(#CC(C)=O)C1=CC=CC=C1", "physical_data": {"Molecular Weight": "144.17", "Molecular Formula": "C10H8O", "Boiling Point": "110-111 \u00b0C @ Press: 5 Torr", "Melting Point": "4.0-4.5 \u00b0C", "Density": "1.0257 g/cm\u00b3 @ Temp: 20 \u00b0C"}}