{"cas_no": "1817-74-9", "cn_name": "4,4'-\u4e8c\u785d\u57fa\u4e8c\u82ef\u57fa\u7532\u70f7", "en_name": ["1,1\u2032-Methylenebis[4-nitrobenzene]", "Benzene, 1,1\u2032-methylenebis[4-nitro-", "Methane, bis(p-nitrophenyl)-", "1,1\u2032-Methylenebis[4-nitrobenzene]", "4,4\u2032-Dinitrodiphenylmethane", "Bis(4-nitrophenyl)methane", "Bis(p-nitrophenyl)methane", "p,p\u2032-Dinitrodiphenylmethane", "NSC 631621", "NSC 6337", "1-Nitro-4-[(4-nitrophenyl)methyl]benzene"], "SMILES": "C(C1=CC=C(N(=O)=O)C=C1)C2=CC=C(N(=O)=O)C=C2", "physical_data": {"Molecular Weight": "258.23", "Molecular Formula": "C13H10N2O4", "Melting Point": "187 \u00b0C"}}