{"cas_no": "1817-73-8", "cn_name": "2-\u6eb4-4,6-\u4e8c\u785d\u57fa\u82ef\u80fa", "en_name": ["2-Bromo-4,6-dinitroaniline", "Benzenamine, 2-bromo-4,6-dinitro-", "Aniline, 2-bromo-4,6-dinitro-", "2-Bromo-4,6-dinitrobenzenamine", "2-Bromo-4,6-dinitroaniline", "6-Bromo-2,4-dinitroaniline", "2-Bromo-4,6-dinitroaminobenzene", "2,4-Dinitro-6-bromoaniline", "NSC 16572"], "SMILES": "N(=O)(=O)C1=CC(N(=O)=O)=CC(Br)=C1N", "physical_data": {"Molecular Weight": "262.02", "Molecular Formula": "C6H4BrN3O4", "Melting Point": "153 \u00b0C"}}