{"cas_no": "18171-14-7", "cn_name": "3-\u6c2f\u4e19\u57fa\u4e8c\u7532\u57fa\u7532\u6c27\u57fa\u7845\u70f7", "en_name": ["(3-Chloropropyl)methoxydimethylsilane", "Silane, (3-chloropropyl)methoxydimethyl-", "(3-Chloropropyl)methoxydimethylsilane", "(3-Chloropropyl)dimethylmethoxysilane"], "SMILES": "[Si](CCCCl)(OC)(C)C", "physical_data": {"Molecular Weight": "166.72", "Molecular Formula": "C6H15ClOSi", "Boiling Point": "170-171 \u00b0C", "Density": "0.941 g/cm\u00b3"}}