{"cas_no": "18171-59-0", "cn_name": "(\u4e8c\u6c2f\u7532\u57fa)\u4e8c\u7532\u57fa\u6c2f\u7845\u70f7", "en_name": ["Chloro(dichloromethyl)dimethylsilane", "Silane, chloro(dichloromethyl)dimethyl-", "Chloro(dichloromethyl)dimethylsilane", "(Dichloromethyl)dimethylchlorosilane"], "SMILES": "[Si](C(Cl)Cl)(C)(C)Cl", "physical_data": {"Molecular Weight": "177.53", "Molecular Formula": "C3H7Cl3Si", "Boiling Point": "149 \u00b0C", "Melting Point": "-48 \u00b0C", "Density": "1.237 g/cm\u00b3"}}