{"cas_no": "18171-19-2", "cn_name": "3-\u6c2f\u4e19\u57fa\u7532\u57fa\u4e8c\u7532\u6c27\u57fa\u7845\u70f7", "en_name": ["(3-Chloropropyl)dimethoxymethylsilane", "Silane, (3-chloropropyl)dimethoxymethyl-", "(3-Chloropropyl)dimethoxymethylsilane", "(\u03b3-Chloropropyl)dimethoxymethylsilane", "(3-Chloropropyl)methyldimethoxysilane", "(\u03b3-Chloropropyl)methyldimethoxysilane", "Sila-Ace S 610", "(\u03b1-Chloropropyl)(dimethoxymethyl)silane", "Dimethoxymethyl(3-chloropropyl)silane", "SIC 2355", "DB 221"], "SMILES": "[Si](CCCCl)(OC)(OC)C", "physical_data": {"Molecular Weight": "182.72", "Molecular Formula": "C6H15ClO2Si", "Boiling Point": "70-72 \u00b0C @ Press: 11 Torr", "Density": "1.025 g/cm\u00b3"}}