{"cas_no": "18171-74-9", "cn_name": "\u53d4\u4e01\u57fa\u4e09\u6c2f\u7845\u70f7", "en_name": ["tert-Butyltrichlorosilane", "Silane, trichloro(1,1-dimethylethyl)-", "Silane, tert-butyltrichloro-", "Trichloro(1,1-dimethylethyl)silane", "tert-Butylsilicon trichloride", "tert-Butyltrichlorosilane", "t-Butyltrichlorosilane", "Trichloro(tert-butyl)silane"], "SMILES": "C([Si](Cl)(Cl)Cl)(C)(C)C", "physical_data": {"Molecular Weight": "191.56", "Molecular Formula": "C4H9Cl3Si", "Boiling Point": "142-143 \u00b0C", "Melting Point": "97-100 \u00b0C", "Density": "1.160 g/cm\u00b3"}}