{"cas_no": "1817-47-6", "cn_name": "\u5bf9\u785d\u57fa\u5f02\u4e19\u57fa\u82ef", "en_name": ["1-Isopropyl-4-nitrobenzene", "Benzene, 1-(1-methylethyl)-4-nitro-", "Cumene, p-nitro-", "1-(1-Methylethyl)-4-nitrobenzene", "p-Isopropylnitrobenzene", "4-Nitrocumene", "p-Nitrocumene", "1-Isopropyl-4-nitrobenzene", "4-Nitroisopropylbenzene", "2-(p-Nitrophenyl)propane", "4-Isopropylnitrobenzene", "4-Isopropyl-1-nitrobenzene", "p-Nitroisopropylbenzene", "NSC 14494", "4-Nitro-1-isopropylbenzene", "1-Nitro-4-(propan-2-yl)benzene", "1-Nitro-4-propan-2-ylbenzene"], "SMILES": "C(C)(C)C1=CC=C(N(=O)=O)C=C1", "physical_data": {"Molecular Weight": "165.19", "Molecular Formula": "C9H11NO2", "Boiling Point": "122 \u00b0C", "Density": "1.0852 g/cm\u00b3 @ Temp: 20 \u00b0C"}}