{"cas_no": "18172-33-3", "cn_name": "\u73af\u5339\u963f\u5c3c\u9178", "en_name": ["Cyclopiazonic acid", "9H-Pyrrolo[1\u2032,2\u2032:2,3]isoindolo[4,5,6-cd]indol-9-one, 10-acetyl-2,6,6a,7,11a,11b-hexahydro-11-hydroxy-7,7-dimethyl-, (6aR,11aS,11bR)-", "9H-Pyrrolo[1\u2032,2\u2032:2,3]isoindolo[4,5,6-cd]indol-9-one, 10-acetyl-2,6,6a,7,11a,11b-hexahydro-11-hydroxy-7,7-dimethyl-, (6a\u03b1,11a\u03b2,11b\u03b1)-", "(6aR,11aS,11bR)-10-Acetyl-2,6,6a,7,11a,11b-hexahydro-11-hydroxy-7,7-dimethyl-9H-pyrrolo[1\u2032,2\u2032:2,3]isoindolo[4,5,6-cd]indol-9-one", "\u03b1-Cyclopiazonic acid", "Cyclopiazonic acid", "NSC 117181"], "SMILES": "OC=1C2C3C=4C=5C(CC3C(C)(C)N2C(=O)C1C(C)=O)=CC=CC5NC4", "physical_data": {"Molecular Weight": "336.38", "Molecular Formula": "C20H20N2O3", "Melting Point": "245-246 \u00b0C"}}