{"cas_no": "18186-97-5", "cn_name": "1,1,3,3-\u56db\u7532\u6c27\u57fa-1,3-\u4e8c\u7532\u57fa\u4e8c\u7845\u6c27\u70f7", "en_name": ["Dimethyltetramethoxydisiloxane", "Disiloxane, 1,1,3,3-tetramethoxy-1,3-dimethyl-", "1,1,3,3-Tetramethoxy-1,3-dimethyldisiloxane", "Dimethyltetramethoxydisiloxane", "1,1,3,3-Tetramethoxydimethyldisiloxane", "1,3-Dimethyltetramethoxydisiloxane", "[Dimethoxy(methyl)silyl]oxy-dimethoxy-methylsilane"], "SMILES": "O([Si](OC)(OC)C)[Si](OC)(OC)C", "physical_data": {"Molecular Weight": "226.38", "Molecular Formula": "C6H18O5Si2", "Boiling Point": "165 \u00b0C", "Density": "1.010 g/cm\u00b3"}}