{"cas_no": "18189-02-1", "cn_name": "\u90bb\u6c28\u57fa\u82ef\u7532\u9178\u5f02\u4e19\u916f", "en_name": ["Isopropyl anthranilate", "Benzoic acid, 2-amino-, 1-methylethyl ester", "Anthranilic acid, isopropyl ester", "Isopropyl anthranilate", "2-Aminobenzoic acid isopropyl ester", "Isopropyl 2-aminobenzoate"], "SMILES": "C(OC(C)C)(=O)C1=C(N)C=CC=C1", "physical_data": {"Molecular Weight": "179.22", "Molecular Formula": "C10H13NO2", "Boiling Point": "270.5-272.4 \u00b0C"}}