{"cas_no": "18181-70-9", "cn_name": "\u7898\u786b\u78f7", "en_name": ["Iodofenphos", "Phosphorothioic acid, O-(2,5-dichloro-4-iodophenyl) O,O-dimethyl ester", "C 9491", "O-(2,5-Dichloro-4-iodophenyl) O,O-dimethyl phosphorothioate", "CIBA C 9491", "Ciba 9491", "Iodofenphos", "OMS 1211", "Iodophos", "Alfacron", "Monocron 9491", "Nuvanol N", "Iodofenfos", "Trix", "Jodfenphos", "O,O-Dimethyl O-(2,5-dichloro-4-iodophenyl) phosphorothioate"], "SMILES": "O(P(OC)(OC)=S)C1=C(Cl)C=C(I)C(Cl)=C1", "physical_data": {"Molecular Weight": "413.00", "Molecular Formula": "C8H8Cl2IO3PS", "Melting Point": "72-73 \u00b0C", "Density": "2.0 g/cm\u00b3 @ Temp: 20 \u00b0C"}}