{"cas_no": "18187-14-9", "cn_name": "3-\u6c28\u4e19\u57fa\u4e09\u7532\u57fa\u7845\u70f7", "en_name": ["3-Aminopropyltrimethylsilane", "1-Propanamine, 3-(trimethylsilyl)-", "Propylamine, 3-(trimethylsilyl)-", "3-(Trimethylsilyl)-1-propanamine", "3-Aminopropyltrimethylsilane", "1-Amino-3-(trimethylsilyl)propane"], "SMILES": "C([Si](C)(C)C)CCN", "physical_data": {"Molecular Weight": "131.29", "Molecular Formula": "C6H17NSi", "Boiling Point": "58 \u00b0C @ Press: 30 Torr", "Density": "0.7831 g/cm\u00b3"}}