{"cas_no": "18184-75-3", "cn_name": "6-\u82c4\u57fa-6H-\u5421\u54af[3,4-B]\u5421\u5576-5,7-\u4e8c\u916e", "en_name": ["6-(Phenylmethyl)-5H-pyrrolo[3,4-b]pyridine-5,7(6H)-dione", "5H-Pyrrolo[3,4-b]pyridine-5,7(6H)-dione, 6-(phenylmethyl)-", "2,3-Pyridinedicarboximide, N-benzyl-", "6-(Phenylmethyl)-5H-pyrrolo[3,4-b]pyridine-5,7(6H)-dione", "NSC 151664", "6-Benzyl-5H-pyrrolo[3,4-b]pyridine-5,7(6H)-dione"], "SMILES": "O=C1C=2C(C(=O)N1CC3=CC=CC=C3)=NC=CC2", "physical_data": {"Molecular Weight": "238.24", "Molecular Formula": "C14H10N2O2", "Melting Point": "167-168 \u00b0C"}}