{"cas_no": "1818-71-9", "cn_name": "\u5f02\u9e1f\u82f7", "en_name": ["Isoguanosine", "Adenosine, 2,3-dihydro-2-oxo-", "Isoguanosine", "Adenosine, 1,2-dihydro-2-oxo-", "9H-Purin-2-ol, 6-amino-9-\u0392-D-ribofuranosyl-", "2,3-Dihydro-2-oxoadenosine", "Crotonoside", "9-\u03b2-D-Ribofuranosylisoguanine", "Isoguanine riboside", "2-Hydroxyadenosine", "Crotonosid", "NSC 12161", "6-Amino-9[(1\u2032-D-2\u2032-ribofuranosyl)-4-hydroxy-5-(hydroxymethyl)-oxolan-2-yl]-1H-purin-2-one"], "SMILES": "NC=1C2=C(N(C=N2)C3OC(CO)C(O)C3O)NC(=O)N1", "physical_data": {"Molecular Weight": "283.24", "Molecular Formula": "C10H13N5O5", "Melting Point": "237-241 \u00b0C"}}