{"cas_no": "18181-80-1", "cn_name": "\u6eb4\u87a8\u916f", "en_name": ["Bromopropylate", "Benzeneacetic acid, 4-bromo-\u03b1-(4-bromophenyl)-\u03b1-hydroxy-, 1-methylethyl ester", "Benzilic acid, 4,4\u2032-dibromo-, isopropyl ester", "Geigy 19851", "Isopropyl 4,4\u2032-dibromobenzilate", "GS 19851", "Bromopropylate", "Neoron (pesticide)", "Isopropyl dibromobenzilate", "Acarol", "Phenisobromolate", "Folbex VA", "Akpin", "Neoron", "Nanocron", "Akpinol", "Isopropyl bis(4-bromophenyl)glycolate"], "SMILES": "C(C(OC(C)C)=O)(O)(C1=CC=C(Br)C=C1)C2=CC=C(Br)C=C2", "physical_data": {"Molecular Weight": "428.12", "Molecular Formula": "C17H16Br2O3", "Melting Point": "77 \u00b0C"}}