{"cas_no": "1818-07-1", "cn_name": "\u82ef\u57fa\u8f9b\u57fa\u919a", "en_name": ["(Octyloxy)benzene", "Benzene, (octyloxy)-", "Ether, octyl phenyl", "(Octyloxy)benzene", "Phenyl octyl ether", "n-Octyl phenyl ether", "1-Phenoxyoctane", "1-Octyl phenyl ether", "Octyl phenyl ether", "n-Octyloxybenzene", "1-(Octyloxy)benzene"], "SMILES": "O(CCCCCCCC)C1=CC=CC=C1", "physical_data": {"Molecular Weight": "206.32", "Molecular Formula": "C14H22O", "Boiling Point": "285 \u00b0C", "Melting Point": "8 \u00b0C", "Density": "0.904 g/cm\u00b3 @ Temp: 23 \u00b0C"}}