{"cas_no": "18194-25-7", "cn_name": "1,2-\u4e8c\u5341\u4e8c\u9170\u57fa-SN-GLYCERO-3-\u80c6\u78b1\u78f7\u9178", "en_name": ["1,2-Dilauroyl-sn-glycero-3-phosphocholine", "3,5,9-Trioxa-4-phosphaheneicosan-1-aminium, 4-hydroxy-N,N,N-trimethyl-10-oxo-7-[(1-oxododecyl)oxy]-, inner salt, 4-oxide, (7R)-", "Choline, hydroxide, dihydrogen phosphate, inner salt, ester with 1,2-dilaurin, L-", "3,5,9-Trioxa-4-phosphaheneicosan-1-aminium, 4-hydroxy-N,N,N-trimethyl-10-oxo-7-[(1-oxododecyl)oxy]-, hydroxide, inner salt, 4-oxide, (R)-", "1,2-Dilaurin dihydrogen phosphate monoester with L-choline hydroxide inner salt", "1,2-Dilauroyl-L-phosphatidylcholine", "L-Dilauroyllecithin", "Dilauryllecithin", "Dilauroyl-L-\u03b1-lecithin", "1,2-Dilauroyl-sn-glycero-3-phosphorylcholine", "Dilauroyl-L-\u03b1-glycerophosphorylcholine", "Dilauroylphosphatidylcholine", "L-\u03b1-Di(dodecanoyl) lecithin", "L-\u03b1-Dilauroyl phosphatidylcholine", "1,2-Dilauroyl-sn-glycero-3-phosphocholine", "Dilauroyl-L-\u03b1-phosphatidylcholine", "Dilauroyl-L-\u03b1-glycerophosphocholine", "L-\u03b1-Dilauroylglyceryl-3-phosphorylcholine", "1,2-Dilauroyl-sn-glycero-3-phosphatidylcholine", "Didodecanoyl-sn-glycero-3-phosphocholine", "1,2-Didodecanoyl-sn-glycero-3-phosphocholine", "1,2-Dilauroyl-sn-glycero-3-phosphocholine", "1,2-Didodecanoyl-sn-glycero-3-phosphocholine", "DLPC", "Coatsome MC-1212", "L-Dilauroylphosphatidylcholine", "[(2R)-2,3-Di(dodecanoyloxy)propyl] 2-(trimethylazaniumyl)ethyl phosphate", "1,2-Dilauroyl-sn-glycero-3-phosphatidyl choline"], "SMILES": "C(COP(OCC[N+](C)(C)C)(=O)[O-])(COC(CCCCCCCCCCC)=O)OC(CCCCCCCCCCC)=O", "physical_data": {"Molecular Weight": "", "Molecular Formula": "C32H64NO8P", "Melting Point": "-1 \u00b0C"}}