{"cas_no": "18194-24-6", "cn_name": "\u4e8c\u8089\u8c46\u853b\u9170\u78f7\u8102\u9170\u80c6\u78b1\uff08DMPC\uff09", "en_name": ["1,2-Dimyristoyl-sn-glycero-3-phosphocholine", "3,5,9-Trioxa-4-phosphatricosan-1-aminium, 4-hydroxy-N,N,N-trimethyl-10-oxo-7-[(1-oxotetradecyl)oxy]-, inner salt, 4-oxide, (7R)-", "Choline, hydroxide, dihydrogen phosphate, inner salt, ester with 1,2-dimyristin, L-", "3,5,9-Trioxa-4-phosphatricosan-1-aminium, 4-hydroxy-N,N,N-trimethyl-10-oxo-7-[(1-oxotetradecyl)oxy]-, hydroxide, inner salt, 4-oxide, (R)-", "Choline, phosphate, ester with L-1,2-dimyristin", "Dimyristoyl-L-\u03b1-lecithin", "L-Dimyristoylphosphatidylcholine", "1,2-Ditetradecanoyl-sn-glycero-3-phosphorylcholine", "L-Dimyristoyllecithin", "L-\u03b1-Dimyristoylphosphatidylcholine", "1,2-Dimyristoyl-sn-glycero-3-phosphorylcholine", "1,2-Dimyristoyl-L-3-phosphatidylcholine", "1,2-Dimyristoyl-sn-glycerol-3-phosphocholine", "1,2-L-\u03b1-Dimyristoylphosphatidylcholine", "\u03b2,\u03b3-Dimyristoyl L-\u03b1-phosphatidylcholine", "1,2-Dimyristoyl-sn-glycerophosphocholine", "Ditetradecanoyllecithin", "sn-3-Dimyristoyllecithin", "1,2-Dimyristoyl-sn-glycero-3-phosphocholine", "1,2-Dimyristoyl-3-sn-phosphatidylcholine", "1,2-Dimyristoyl-L-phosphatidylcholine", "1,2-Dimyristoyl-sn-glycerol-3-phosphorylcholine", "Dimyristoyl-3-sn-phosphatidylcholine", "L-\u03b2,\u03b3-Dimyristoyl-\u03b1-lecithin", "L-\u03b1-Dimyristoyllecithin", "Dimyristoyl-L-\u03b1-phosphatidylcholine", "1,2-Dimyristoyl-sn-3-glycerophosphocholine", "Dimyristoyl-L-\u03b1-glycerophosphocholine", "Dimyristoylphosphatidylcholine", "1,2-Dimyristoyl-L-\u03b1-phosphatidylcholine", "L-1,2-Dimyristoylphosphatidylcholine", "L-\u03b2,\u03b3-Dimyristoyl-\u03b1-phosphatidylcholine", "Dimyristoyl sn-3-phosphatidylcholine", "DMPC", "1,2-Dimyristoyl-sn-glycero-3-phosphatidylcholine", "3,5,9-Trioxa-4-phosphatricosan-1-aminium, 4-hydroxy-N,N,N-trimethyl-10-oxo-7-[(1-oxotetradecyl)oxy]-, inner salt, 4-oxide, (R)-", "1,2-Dimyristoyl-sn-glycero-3-phosphocholine", "1,2-Dimyristoyl-sn-phosphatidylcholine", "1,2-Bis(myristoyl)-sn-glycerophosphocholine", "1,2-Ditetradecanoyl-sn-glycero-3-phosphocholine", "1,2-Dimyristoylphosphatidylcholine", "1,2-Myristoyl-sn-glycero-3-phosphocholine", "1,2-Ditetradecanoyl-sn-glycero-3-phosphocholine", "Dimyristoyl-sn-glycero-3-phosphocholine", "1,2-Dimyristoyl-3-sn-phosphatidylcholine", "50: PN: WO2017201317 SEQID: 123 claimed RNA", "1,2-Dimyristoyl-sn-glycero-phosphocholine", "Anatrace", "Coatsome MC 4040"], "SMILES": "C(OC(CCCCCCCCCCCCC)=O)(COP(OCC[N+](C)(C)C)(=O)[O-])COC(CCCCCCCCCCCCC)=O", "physical_data": {"Molecular Weight": "", "Molecular Formula": "C36H72NO8P", "Melting Point": "23 \u00b0C"}}