{"cas_no": "18197-26-7", "cn_name": "\u4e8c\u7532\u9170\u6c28\u57fa\u94a0", "en_name": ["Formamide, N-formyl-, sodium salt", "Formamide, N-formyl-, sodium salt", "Diformamide, sodium salt", "Sodium diformamide", "Sodium diformylamide", "Diformylimide sodium salt", "Diformylamine sodium salt"], "SMILES": "N(C=O)C=O.[Na]", "physical_data": {"Molecular Weight": "", "Molecular Formula": "C2H3NO2.Na", "Melting Point": "242 \u00b0C"}}