{"cas_no": "18204-80-3", "cn_name": "2-\u4e59\u9170\u6c27\u57fa\u4e59\u57fa\u4e09\u6c2f\u7845\u70f7", "en_name": ["Ethanol, 2-(trichlorosilyl)-, 1-acetate", "Ethanol, 2-(trichlorosilyl)-, 1-acetate", "Ethanol, 2-(trichlorosilyl)-, acetate", "(2-Acetoxyethyl)trichlorosilane", "2-(Trichlorosilyl)ethyl acetate"], "SMILES": "C(COC(C)=O)[Si](Cl)(Cl)Cl", "physical_data": {"Molecular Weight": "221.54", "Molecular Formula": "C4H7Cl3O2Si", "Boiling Point": "143 \u00b0C @ Press: 70 Torr", "Density": "1.272 g/cm\u00b3 @ Temp: 25 \u00b0C"}}