{"cas_no": "1820-99-1", "cn_name": "5,5'-\u786b\u4ee3\u53cc\u6c34\u6768\u9178", "en_name": ["3,3\u2032-Thiobis[6-hydroxybenzoic acid]", "Benzoic acid, 3,3\u2032-thiobis[6-hydroxy-", "Salicylic acid, 5,5\u2032-thiodi-", "3,3\u2032-Thiobis[6-hydroxybenzoic acid]", "Bis(3-carboxy-4-hydroxyphenyl) sulfide", "5,5\u2032-Thiodisalicylic acid", "4,4\u2032-Dihydroxy-3,3\u2032-dicarboxydiphenyl sulfide"], "SMILES": "S(C1=CC(C(O)=O)=C(O)C=C1)C2=CC(C(O)=O)=C(O)C=C2", "physical_data": {"Molecular Weight": "306.29", "Molecular Formula": "C14H10O6S", "Melting Point": "269-270 \u00b0C"}}