{"cas_no": "18204-93-8", "cn_name": "\u4e8c\u6c2f\u4e8c\u5df1\u57fa\u7845\u70f7", "en_name": ["Dichlorodihexylsilane", "Silane, dichlorodihexyl-", "Dichlorodihexylsilane", "LS 4460", "Dihexyldichlorosilane"], "SMILES": "C([Si](CCCCCC)(Cl)Cl)CCCCC", "physical_data": {"Molecular Weight": "269.33", "Molecular Formula": "C12H26Cl2Si", "Boiling Point": "111-113 \u00b0C @ Press: 6 Torr", "Density": "0.9617 g/cm\u00b3 @ Temp: 420 \u00b0C"}}