{"cas_no": "1820-81-1", "cn_name": "5-\u6c2f\u5c3f\u5627\u5576", "en_name": ["5-Chlorouracil", "2,4(1H,3H)-Pyrimidinedione, 5-chloro-", "Uracil, 5-chloro-", "5-Chloro-2,4(1H,3H)-pyrimidinedione", "5-Chlorouracil", "5-Chloro-2,4-pyrimidinedione", "NSC 28172", "5-Chloro-2,4-dihydroxypyrimidine", "5-Chloropyrimidine-2,4-diol"], "SMILES": "O=C1C(Cl)=CNC(=O)N1", "physical_data": {"Molecular Weight": "146.53", "Molecular Formula": "C4H3ClN2O2", "Melting Point": "&gt;300 \u00b0C"}}