{"cas_no": "18202-73-8", "cn_name": "2,2-\u4e8c\u7532\u57fa\u4e19\u4e9a\u80fa\u76d0\u9178", "en_name": ["Propanimidamide, 2,2-dimethyl-, hydrochloride (1:1)", "Propanimidamide, 2,2-dimethyl-, hydrochloride (1:1)", "Pivalamidine, monohydrochloride", "Propanimidamide, 2,2-dimethyl-, monohydrochloride", "Pivalamidine, hydrochloride", "2,2-Dimethylpropionamidine hydrochloride", "tert-Butylcarbamidine hydrochloride", "tert-Butylamidinium chloride", "2,2-Dimethylpropionimidamide hydrochloride", "tert-Butanecarboximidamide hydrochloride", "Pivalimidamide hydrochloride", "2,2-Dimethylpropanamidine hydrochloride", "1-Imino-2,2-dimethylpropan-1-aminium chloride"], "SMILES": "C(C(=N)N)(C)(C)C.Cl", "physical_data": {"Molecular Weight": "", "Molecular Formula": "C5H12N2.ClH", "Melting Point": "191-192 \u00b0C"}}