{"cas_no": "1821-39-2", "cn_name": "2-\u4e19\u57fa\u82ef\u80fa", "en_name": ["2-Propylaniline", "Benzenamine, 2-propyl-", "Aniline, o-propyl-", "2-Propylbenzenamine", "o-Propylaniline", "2-Propylaniline", "o-Aminopropylbenzene", "2-(n-Propyl)aniline", "(2-Propylphenyl)amine"], "SMILES": "C(CC)C1=C(N)C=CC=C1", "physical_data": {"Molecular Weight": "135.21", "Molecular Formula": "C9H13N", "Boiling Point": "226 \u00b0C"}}