{"cas_no": "1821-52-9", "cn_name": "3-\u5432\u54da\u4e59\u9178", "en_name": ["Indole-3-lactic acid", "1H-Indole-3-propanoic acid, \u03b1-hydroxy-", "Indole-3-lactic acid", "Indolelactic acid", "\u03b1-Hydroxy-1H-indole-3-propanoic acid", "3-Indolyllactic acid", "\u03b2-(3-Indolyl)lactic acid", "\u03b2-Indolyllactic acid", "2-Hydroxy-3-(3-indolyl)propanoic acid", "3-(3-Indolyl)-2-hydroxypropionic acid", "DL-Indole-3-lactic acid", "2-Hydroxy-3-(1H-indol-3-yl)propanoic acid", "3-(3-Indolyl)-DL-lactic acid"], "SMILES": "C(C(C(O)=O)O)C=1C=2C(NC1)=CC=CC2", "physical_data": {"Molecular Weight": "205.21", "Molecular Formula": "C11H11NO3", "Melting Point": "97-100 \u00b0C"}}