{"cas_no": "18217-00-0", "cn_name": "2-(4-\u7532\u6c27\u82ef\u57fa)-\u6c2f\u4e59\u70f7", "en_name": ["1-(2-Chloroethyl)-4-methoxybenzene", "Benzene, 1-(2-chloroethyl)-4-methoxy-", "Anisole, p-(2-chloroethyl)-", "1-(2-Chloroethyl)-4-methoxybenzene", "4-Methoxyphenethyl chloride", "p-Methoxyphenethyl chloride", "p-(2-Chloroethyl)anisole", "1-Chloro-2-(4-methoxyphenyl)ethane", "4-(2-Chloroethyl)anisole", "2-(4-Methoxyphenyl)ethylchloride"], "SMILES": "C(CCl)C1=CC=C(OC)C=C1", "physical_data": {"Molecular Weight": "170.64", "Molecular Formula": "C9H11ClO", "Boiling Point": "136-139 \u00b0C @ Press: 24 Torr"}}