{"cas_no": "18212-21-0", "cn_name": "4-\u7532\u57fa-1,2,3-\u567b\u4e8c\u5511-5-\u7fa7\u9178", "en_name": ["4-Methyl-1,2,3-thiadiazole-5-carboxylic acid", "1,2,3-Thiadiazole-5-carboxylic acid, 4-methyl-", "4-Methyl-1,2,3-thiadiazole-5-carboxylic acid", "SV 03", "NK-F 001"], "SMILES": "C(O)(=O)C1=C(C)N=NS1", "physical_data": {"Molecular Weight": "144.15", "Molecular Formula": "C4H4N2O2S", "Melting Point": "174-178 \u00b0C"}}