{"cas_no": "1821-27-8", "cn_name": "4,4\u02ca-\u4e8c\u785d\u57fa\u4e8c\u82ef\u80fa", "en_name": ["4,4\u2032-Dinitrodiphenylamine", "Benzenamine, 4-nitro-N-(4-nitrophenyl)-", "Diphenylamine, 4,4\u2032-dinitro-", "4-Nitro-N-(4-nitrophenyl)benzenamine", "4,4\u2032-Dinitrodiphenylamine", "Bis(p-nitrophenyl)amine", "Bis(4-nitrophenyl)amine", "NSC 36659", "N,N-Bis(4-nitrophenyl)amine"], "SMILES": "N(C1=CC=C(N(=O)=O)C=C1)C2=CC=C(N(=O)=O)C=C2", "physical_data": {"Molecular Weight": "259.22", "Molecular Formula": "C12H9N3O4", "Melting Point": "216 \u00b0C"}}