{"cas_no": "1821-47-2", "cn_name": "5-\u7532\u57fa\u8272\u80fa\u76d0\u9178\u76d0", "en_name": ["5-Methyltryptamine", "1H-Indole-3-ethanamine, 5-methyl-", "Indole, 3-(2-aminoethyl)-5-methyl-", "5-Methyl-1H-indole-3-ethanamine", "5-Methyltryptamine", "NSC 90805", "2-(5-Methyl-indol-3-yl)ethyl amine", "2-(5-Methyl-1H-indol-3-yl)ethanamine", "2-(5-Methyl-1H-indol-3-yl)ethylamine", "2-(5-Methyl-1H-indol-3-yl)ethan-1-amine"], "SMILES": "C(CN)C=1C=2C(NC1)=CC=C(C)C2", "physical_data": {"Molecular Weight": "174.24", "Molecular Formula": "C11H14N2", "Melting Point": "95 \u00b0C"}}