{"cas_no": "1821-12-1", "cn_name": "\u82ef\u4e01\u9178", "en_name": ["4-Phenylbutyric acid", "Benzenebutanoic acid", "Butyric acid, 4-phenyl-", "Butyric acid, \u03b3-phenyl-", "4-Phenylbutyric acid", "Benzenebutyric acid", "\u03b3-Phenylbutyric acid", "4-Phenylbutanoic acid", "\u03c9-Phenylbutanoic acid", "\u03b3-Phenylbutanoic acid", "4-Phenyl-n-butyric acid", "NSC 295"], "SMILES": "C(CCC(O)=O)C1=CC=CC=C1", "physical_data": {"Molecular Weight": "164.20", "Molecular Formula": "C10H12O2", "Boiling Point": "290 \u00b0C", "Melting Point": "52 \u00b0C"}}