{"cas_no": "1821-36-9", "cn_name": "N-\u73af\u5df1\u57fa\u82ef\u80fa", "en_name": ["N-Cyclohexylbenzenamine", "Benzenamine, N-cyclohexyl-", "Cyclohexylamine, N-phenyl-", "N-Cyclohexylbenzenamine", "Cyclohexanamine, N-phenyl-", "N-Phenylcyclohexylamine", "N-Cyclohexylaniline", "Cyclohexylphenylamine", "Phenylcyclohexylamine", "NSC 27510", "N-Cyclohexyl-N-phenylamine", "N-Cyclohexylphenylamine"], "SMILES": "N(C1CCCCC1)C2=CC=CC=C2", "physical_data": {"Molecular Weight": "175.27", "Molecular Formula": "C12H17N", "Boiling Point": "279 \u00b0C", "Melting Point": "16 \u00b0C", "Density": "1.003 g/cm\u00b3 @ Temp: 12 \u00b0C"}}