{"cas_no": "1821-02-9", "cn_name": "2-\u620a\u916e\u9178", "en_name": ["2-Oxovaleric acid", "Pentanoic acid, 2-oxo-", "Valeric acid, 2-oxo-", "2-Oxopentanoic acid", "\u03b1-Oxovaleric acid", "\u03b1-Oxo-n-valeric acid", "\u03b1-Ketovaleric acid", "2-Oxovaleric acid", "\u03b1-Oxopentanoic acid", "2-Ketovaleric acid", "\u03b1-keto-Valeric acid", "2-Ketopentanoic acid", "2-Oxo-n-valeric acid", "2-Ketopentanoate"], "SMILES": "C(CCC)(C(O)=O)=O", "physical_data": {"Molecular Weight": "116.12", "Molecular Formula": "C5H8O3", "Boiling Point": "179 \u00b0C", "Melting Point": "6.5 \u00b0C", "Density": "1.097 g/cm\u00b3 @ Temp: 14 \u00b0C"}}