{"cas_no": "18220-90-1", "cn_name": "4-\u4e59\u57fa\u82ef\u7532\u916e", "en_name": ["4-Ethylbenzophenone", "Methanone, (4-ethylphenyl)phenyl-", "Benzophenone, 4-ethyl-", "(4-Ethylphenyl)phenylmethanone", "p-Ethylbenzophenone", "4-Ethylbenzophenone"], "SMILES": "C(=O)(C1=CC=C(CC)C=C1)C2=CC=CC=C2", "physical_data": {"Molecular Weight": "210.27", "Molecular Formula": "C15H14O", "Boiling Point": "325-326 \u00b0C @ Press: 720 Torr", "Density": "1.0690 g/cm\u00b3 @ Temp: 20 \u00b0C"}}