{"cas_no": "18227-41-3", "cn_name": "5-\u6b63\u4e19\u57fa\u4e59\u5185\u9170\u8132", "en_name": ["Propylhydantoin", "2,4-Imidazolidinedione, 5-propyl-", "Hydantoin, 5-propyl-", "5-Propyl-2,4-imidazolidinedione", "Propylhydantoin", "5-Propylhydantoin"], "SMILES": "C(CC)C1C(=O)NC(=O)N1", "physical_data": {"Molecular Weight": "142.16", "Molecular Formula": "C6H10N2O2", "Melting Point": "134-136 \u00b0C"}}