{"cas_no": "18227-67-3", "cn_name": "4-\u6c28\u57fa-5-\u7532\u57fa-3-\u785d\u57fa\u5421\u5576", "en_name": ["3-Methyl-5-nitro-4-pyridinamine", "4-Pyridinamine, 3-methyl-5-nitro-", "3-Picoline, 4-amino-5-nitro-", "3-Methyl-5-nitro-4-pyridinamine", "3-Methyl-5-nitro-1,4-dihydropyridin-4-imine"], "SMILES": "N(=O)(=O)C=1C(N)=C(C)C=NC1", "physical_data": {"Molecular Weight": "153.14", "Molecular Formula": "C6H7N3O2", "Melting Point": "193 \u00b0C"}}