{"cas_no": "1822-73-7", "cn_name": "\u82ef\u57fa\u4e59\u70ef\u57fa\u786b\u919a", "en_name": ["(Ethenylthio)benzene", "Benzene, (ethenylthio)-", "Sulfide, phenyl vinyl", "(Ethenylthio)benzene", "Phenyl vinyl sulfide", "Vinyl phenyl sulfide", "Phenylthioethylene", "Vinylthiobenzene", "Phenyl vinyl thioether", "Phenylthioethene", "NSC 39625", "Phenyl(vinyl)sulfane"], "SMILES": "S(C=C)C1=CC=CC=C1", "physical_data": {"Molecular Weight": "136.21", "Molecular Formula": "C8H8S", "Boiling Point": "200-201 \u00b0C", "Density": "1.0386 g/cm\u00b3 @ Temp: 20 \u00b0C"}}