{"cas_no": "1822-51-1", "cn_name": "4-\u6c2f\u7532\u57fa\u5421\u5576\u76d0\u9178\u76d0", "en_name": ["4-Picolyl chloride hydrochloride", "Pyridine, 4-(chloromethyl)-, hydrochloride (1:1)", "Pyridine, 4-(chloromethyl)-, hydrochloride", "4-Picolyl chloride hydrochloride", "4-(Chloromethyl)pyridine hydrochloride", "4-(Chloromethyl)pyridinium chloride", "4-Pyridylmethyl chloride hydrochloride", "4-Chloromethylpyridine hydrochloride salt"], "SMILES": "C(Cl)C=1C=CN=CC1.Cl", "physical_data": {"Molecular Weight": "", "Molecular Formula": "C6H6ClN.ClH", "Melting Point": "165-166 \u00b0C"}}