{"cas_no": "182349-12-8", "cn_name": "\u5bcc\u9a6c\u9178\u5362\u5e15\u4ed6\u5b9a", "en_name": ["Rupatadine fumarate", "5H-Benzo[5,6]cyclohepta[1,2-b]pyridine, 8-chloro-6,11-dihydro-11-[1-[(5-methyl-3-pyridinyl)methyl]-4-piperidinylidene]-, (2E)-2-butenedioate (1:1)", "5H-Benzo[5,6]cyclohepta[1,2-b]pyridine, 8-chloro-6,11-dihydro-11-[1-[(5-methyl-3-pyridinyl)methyl]-4-piperidinylidene]-, (E)-2-butenedioate (1:1)", "Rupatadine fumarate"], "SMILES": "C(=CC(O)=O)C(O)=O.ClC=1C=C2C(C(C=3C(CC2)=CC=CN3)=C4CCN(CC=5C=C(C)C=NC5)CC4)=CC1", "physical_data": {"Molecular Weight": "", "Molecular Formula": "C26H26ClN3.C4H4O4", "Melting Point": "194-201 \u00b0C"}}