{"cas_no": "1823-63-8", "cn_name": "2,2,2-\u4e09\u6c1f-1-(4-\u7f9f\u57fa\u82ef\u57fa)\u4e59\u916e", "en_name": ["2,2,2-Trifluoro-1-(4-hydroxyphenyl)ethanone", "Ethanone, 2,2,2-trifluoro-1-(4-hydroxyphenyl)-", "Acetophenone, 2,2,2-trifluoro-4\u2032-hydroxy-", "2,2,2-Trifluoro-1-(4-hydroxyphenyl)ethanone", "4\u2032-Hydroxy-2,2,2-trifluoroacetophenone", "4-(Trifluoroacetyl)phenol", "2,2,2-Trifluoro-1-(4-hydroxyphenyl)ethan-1-one"], "SMILES": "C(C(F)(F)F)(=O)C1=CC=C(O)C=C1", "physical_data": {"Molecular Weight": "190.12", "Molecular Formula": "C8H5F3O2", "Melting Point": "114 \u00b0C"}}