{"cas_no": "18233-70-0", "cn_name": "N-(4-\u6c28\u57fa\u4e01\u57fa)-\u4e59\u9170\u80fa", "en_name": ["Monoacetyl-1,4-diaminobutane hydrochloride", "Acetamide, N-(4-aminobutyl)-, hydrochloride (1:1)", "Acetamide, N-(4-aminobutyl)-, monohydrochloride", "Acetamide, N-(4-aminobutyl)-, hydrochloride", "Monoacetyl-1,4-diaminobutane hydrochloride", "N-(4-Aminobutyl)acetamide hydrochloride"], "SMILES": "C(NC(C)=O)CCCN.Cl", "physical_data": {"Molecular Weight": "", "Molecular Formula": "C6H14N2O.ClH", "Melting Point": "140-141 \u00b0C"}}