{"cas_no": "1823-44-5", "cn_name": "2-(2'-\u567b\u5511\u57fa\u5076\u6c2e)\u5bf9\u7532\u915a", "en_name": ["2-(2-Thiazolylazo)-p-cresol", "Phenol, 4-methyl-2-[2-(2-thiazolyl)diazenyl]-", "p-Cresol, 2-(2-thiazolylazo)-", "Phenol, 4-methyl-2-(2-thiazolylazo)-", "4-Methyl-2-[2-(2-thiazolyl)diazenyl]phenol", "2-(2-Thiazolylazo)-4-methylphenol", "2-(2-Thiazolylazo)-p-cresol", "o-(2-Thiazolylazo)-4-methylphenol", "4-Me-TAP"], "SMILES": "N(=NC1=NC=CS1)C2=C(O)C=CC(C)=C2", "physical_data": {"Molecular Weight": "219.26", "Molecular Formula": "C10H9N3OS", "Melting Point": "128.5-131.0 \u00b0C"}}