{"cas_no": "1823-14-9", "cn_name": "5-\u82ef\u57fa-1-\u620a\u70ef\u57fa\u787c\u9178\u9891\u54ea\u9187\u916f", "en_name": ["5-Phenyl-1-pentyne", "Benzene, 4-pentyn-1-yl-", "1-Pentyne, 5-phenyl-", "Benzene, 4-pentynyl-", "4-Pentyn-1-ylbenzene", "5-Phenyl-1-pentyne", "1-Phenyl-4-pentyne", "NSC 102794", "4-Pentynylbenzene"], "SMILES": "C(CCC#C)C1=CC=CC=C1", "physical_data": {"Molecular Weight": "144.21", "Molecular Formula": "C11H12", "Boiling Point": "94 \u00b0C @ Press: 50 Torr", "Melting Point": "103-106 \u00b0C"}}