{"cas_no": "18230-61-0", "cn_name": "\u4e8c\u5f02\u4e19\u57fa\u4e8c\u7532\u6c27\u57fa\u7845\u70f7", "en_name": ["Diisopropyldimethoxysilane", "Silane, dimethoxybis(1-methylethyl)-", "Silane, diisopropyldimethoxy-", "Dimethoxybis(1-methylethyl)silane", "Diisopropyldimethoxysilane", "Z 6258", "Dimethoxydiisopropylsilane", "Silicon diisopropyl dimethoxide"], "SMILES": "[Si](C(C)C)(C(C)C)(OC)OC", "physical_data": {"Molecular Weight": "176.33", "Molecular Formula": "C8H20O2Si", "Boiling Point": "85-87 \u00b0C @ Press: 50 Torr", "Density": "0.875 g/cm\u00b3"}}