{"cas_no": "1823-91-2", "cn_name": "\u03b1-\u7532\u57fa\u82ef\u8148", "en_name": ["2-Phenylpropionitrile", "Benzeneacetonitrile, \u03b1-methyl-", "Hydratroponitrile", "\u03b1-Methylbenzeneacetonitrile", "\u03b1-Phenylpropionitrile", "2-Phenylpropionitrile", "\u03b1-Methylbenzyl cyanide", "\u03b1-Phenylethyl cyanide", "2-Phenylpropanenitrile", "\u03b1-Cyanoethylbenzene", "\u03b1-Methylphenylacetonitrile", "dl-\u03b1-Phenylethyl isocyanide", "(\u00b1)-2-Phenylpropionitrile", "dl-2-Phenylpropionitrile", "(\u00b1)-\u03b1-Methylbenzeneacetonitrile", "(\u00b1)-\u03b1-Methylbenzyl cyanide", "NSC 11264", "NSC 37485"], "SMILES": "C(C#N)(C)C1=CC=CC=C1", "physical_data": {"Molecular Weight": "131.17", "Molecular Formula": "C9H9N", "Boiling Point": "231 \u00b0C", "Melting Point": "210 \u00b0C", "Density": "0.98542 g/cm\u00b3 @ Temp: 20 \u00b0C"}}