{"cas_no": "182344-23-6", "cn_name": "4-\u6c1f-3-\u4e09\u6c1f\u7532\u57fa\u82ef\u57fa\u787c\u9178", "en_name": ["B-[4-Fluoro-3-(trifluoromethyl)phenyl]boronic acid", "Boronic acid, B-[4-fluoro-3-(trifluoromethyl)phenyl]-", "Boronic acid, [4-fluoro-3-(trifluoromethyl)phenyl]-", "B-[4-Fluoro-3-(trifluoromethyl)phenyl]boronic acid", "[4-Fluoro-3-(trifluoromethyl)phenyl]boronic acid", "3-(Trifluoromethyl)-4-fluorophenylboronic acid", "4-fluoro-3-(trifluoromethyl)benzeneboronic acid"], "SMILES": "C(F)(F)(F)C1=CC(B(O)O)=CC=C1F", "physical_data": {"Molecular Weight": "207.92", "Molecular Formula": "C7H5BF4O2", "Melting Point": "267-269 \u00b0C", "Density": "1.503 g/cm\u00b3"}}