{"cas_no": "182415-24-3", "cn_name": "5-(\u567b\u5429-2-\u57fa)-1H-\u5421\u5511-3-\u7fa7\u9178", "en_name": ["5-(2-Thienyl)-1H-pyrazole-3-carboxylic acid", "1H-Pyrazole-3-carboxylic acid, 5-(2-thienyl)-", "5-(2-Thienyl)-1H-pyrazole-3-carboxylic acid", "3-(2-Thienyl)pyrazole-5-carboxylic acid", "5-(Thiophen-2-yl)-1H-pyrazole-3-carboxylic acid"], "SMILES": "C(O)(=O)C=1C=C(NN1)C2=CC=CS2", "physical_data": {"Molecular Weight": "194.21", "Molecular Formula": "C8H6N2O2S", "Melting Point": "227 \u00b0C"}}