{"cas_no": "1824-81-3", "cn_name": "2-\u6c28\u57fa6-\u7532\u57fa\u5421\u5576", "en_name": ["2-Amino-6-methylpyridine", "2-Pyridinamine, 6-methyl-", "2-Picoline, 6-amino-", "6-Methyl-2-pyridinamine", "2-Amino-6-picoline", "6-Amino-2-picoline", "2-Amino-6-methylpyridine", "6-Amino-2-methylpyridine", "6-Methyl-2-pyridylamine", "6-Methyl-2-aminopyridine", "6-Methylpyridin-2-ylamine", "NSC 1488", "NSC 176163", "NSC 6971", "6-Methylpyridin-2-amine"], "SMILES": "CC=1N=C(N)C=CC1", "physical_data": {"Molecular Weight": "108.14", "Molecular Formula": "C6H8N2", "Boiling Point": "208.5 \u00b0C", "Melting Point": "41 \u00b0C"}}