{"cas_no": "18242-39-2", "cn_name": "3,5-\u4e8c\u785d\u57fa\u6eb4\u82ef", "en_name": ["1-Bromo-3,5-dinitrobenzene", "Benzene, 1-bromo-3,5-dinitro-", "1-Bromo-3,5-dinitrobenzene", "5-Bromo-1,3-dinitrobenzene", "3,5-Dinitrobromobenzene"], "SMILES": "N(=O)(=O)C1=CC(N(=O)=O)=CC(Br)=C1", "physical_data": {"Molecular Weight": "247.00", "Molecular Formula": "C6H3BrN2O4", "Melting Point": "77 \u00b0C"}}