{"cas_no": "1824-94-8", "cn_name": "\u7532\u57fa-\u0392-D-\u5421\u5583\u534a\u4e73\u7cd6\u82f7", "en_name": ["Methyl \u03b2-D-galactopyranoside", "\u03b2-D-Galactopyranoside, methyl", "Galactopyranoside, methyl, \u03b2-D-", "Methyl \u03b2-D-galactopyranoside", "Methyl galactoside", "Methyl \u03b2-galactoside", "1-O-Methyl-\u03b2-D-galactopyranoside", "Methyl \u03b2-D-galactoside", "NSC 33685", "\u03b2-Methylgalactose"], "SMILES": "C(O)C1OC(OC)C(O)C(O)C1O", "physical_data": {"Molecular Weight": "194.18", "Molecular Formula": "C7H14O6", "Melting Point": "174 \u00b0C", "Density": "1.485 g/cm\u00b3"}}