{"cas_no": "18245-94-8", "cn_name": "(5-\u53cc\u73af(2.2.1)\u5e9a\u57fa-2-\u70ef)\u7532\u57fa\u4e8c\u6c2f\u7845\u70f7", "en_name": ["5-(Dichloromethylsilyl)bicyclo[2.2.1]hept-2-ene", "Bicyclo[2.2.1]hept-2-ene, 5-(dichloromethylsilyl)-", "Silane, bicyclo[2.2.1]hept-5-en-2-yldichloromethyl-", "Silane, dichloromethyl-5-norbornen-2-yl-", "5-(Dichloromethylsilyl)bicyclo[2.2.1]hept-2-ene", "Dichloro(methyl)(5-norbornen-2-yl)silane", "2-Norbornene-6-methyldichlorosilane"], "SMILES": "[Si](C)(Cl)(Cl)C1C2CC(C1)C=C2", "physical_data": {"Molecular Weight": "207.17", "Molecular Formula": "C8H12Cl2Si", "Boiling Point": "74-75 \u00b0C @ Press: 10 Torr", "Density": "1.151 g/cm\u00b3"}}