{"cas_no": "18244-95-6", "cn_name": "\u4e09\u4e59\u70ef\u57fa\u7532\u57fa\u7845\u70f7", "en_name": ["Triethenylmethylsilane", "Silane, triethenylmethyl-", "Silane, methyltrivinyl-", "Triethenylmethylsilane", "Methyltrivinylsilane", "Trivinylmethylsilane", "NSC 174168"], "SMILES": "[Si](C=C)(C=C)(C=C)C", "physical_data": {"Molecular Weight": "124.26", "Molecular Formula": "C7H12Si", "Boiling Point": "102 \u00b0C", "Melting Point": "107.6 \u00b0C", "Density": "0.769 g/cm\u00b3"}}