{"cas_no": "18243-41-9", "cn_name": "\u6eb4\u4e59\u57fa\u4e09\u7532\u57fa\u7845\u70f7", "en_name": ["(Bromomethyl)trimethylsilane", "Silane, (bromomethyl)trimethyl-", "(Bromomethyl)trimethylsilane", "(Trimethylsilyl)methyl bromide", "Bromomethyltrimethylsilane", "[Trimethyl][bromomethyl]silane"], "SMILES": "[Si](CBr)(C)(C)C", "physical_data": {"Molecular Weight": "167.12", "Molecular Formula": "C4H11BrSi", "Boiling Point": "116.5 \u00b0C", "Density": "1.170 g/cm\u00b3"}}