{"cas_no": "1825-64-5", "cn_name": "\u5f02\u4e19\u6c27\u57fa\u4e09\u7532\u57fa\u7845\u70f7", "en_name": ["Trimethyl(1-methylethoxy)silane", "Silane, trimethyl(1-methylethoxy)-", "Silane, isopropoxytrimethyl-", "Trimethyl(1-methylethoxy)silane", "Trimethylisopropoxysilane", "Isopropoxytrimethylsilane", "Isopropyl trimethylsilyl ether", "(Isopropyloxy)trimethylsilane", "Trimethylsilyl isopropyl ether", "2-Propoxytrimethylsilane", "Trimethyl[(1-methylethyl)oxy]silane"], "SMILES": "O([Si](C)(C)C)C(C)C", "physical_data": {"Molecular Weight": "132.28", "Molecular Formula": "C6H16OSi", "Boiling Point": "87 \u00b0C", "Density": "0.8758 g/cm\u00b3 @ Temp: 20 \u00b0C"}}