{"cas_no": "1825-21-4", "cn_name": "\u4e94\u6c2f\u7532\u6c27\u57fa\u82ef", "en_name": ["Pentachloroanisole", "Benzene, 1,2,3,4,5-pentachloro-6-methoxy-", "Anisole, 2,3,4,5,6-pentachloro-", "Benzene, pentachloromethoxy-", "1,2,3,4,5-Pentachloro-6-methoxybenzene", "Methyl pentachlorophenate", "Pentachloroanisole", "Pentachloromethoxybenzene", "2,3,4,5,6-Pentachloroanisole", "Methyl pentachlorophenyl ether", "Pentachlorophenyl methyl ether", "PCP methyl ether", "Pentachlorophenol methyl ether"], "SMILES": "O(C)C1=C(Cl)C(Cl)=C(Cl)C(Cl)=C1Cl", "physical_data": {"Molecular Weight": "280.36", "Molecular Formula": "C7H3Cl5O", "Boiling Point": "309 \u00b0C @ Press: 760 Torr", "Melting Point": "108-110 \u00b0C"}}