{"cas_no": "1825-58-7", "cn_name": "\u82ef\u57fa\u4e8c\u7532\u57fa\u4e59\u6c27\u57fa\u7845", "en_name": ["(Ethoxydimethylsilyl)benzene", "Benzene, (ethoxydimethylsilyl)-", "Silane, ethoxydimethylphenyl-", "(Ethoxydimethylsilyl)benzene", "Ethoxydimethylphenylsilane", "Phenyldimethylethoxysilane", "NSC 96880", "Dimethylethoxyphenylsilane", "LS 3300"], "SMILES": "[Si](OCC)(C)(C)C1=CC=CC=C1", "physical_data": {"Molecular Weight": "180.32", "Molecular Formula": "C10H16OSi", "Boiling Point": "93 \u00b0C @ Press: 25 Torr", "Density": "0.926 g/cm\u00b3"}}