{"cas_no": "1825-61-2", "cn_name": "\u7532\u6c27\u57fa\u4e09\u7532\u57fa\u7845\u70f7", "en_name": ["Methoxytrimethylsilane", "Silane, methoxytrimethyl-", "Methoxytrimethylsilane", "Trimethylmethoxysilane", "Methyl trimethylsilyl ether", "Trimethylsilyl methyl ether", "TSL 8111", "SS 2010", "NSC 139858", "LS 510", "Z 6013"], "SMILES": "[Si](OC)(C)(C)C", "physical_data": {"Molecular Weight": "104.22", "Molecular Formula": "C4H12OSi", "Boiling Point": "57-58 \u00b0C", "Melting Point": "99-100 \u00b0C", "Density": "0.756 g/cm\u00b3"}}