{"cas_no": "1825-31-6", "cn_name": "1,4-\u4e8c\u6c2f\u8418", "en_name": ["1,4-Dichloronaphthalene", "Naphthalene, 1,4-dichloro-", "1,4-Dichloronaphthalene", "PCN 5", "NSC 90291"], "SMILES": "ClC=1C2=C(C(Cl)=CC1)C=CC=C2", "physical_data": {"Molecular Weight": "197.06", "Molecular Formula": "C10H6Cl2", "Boiling Point": "288 \u00b0C", "Melting Point": "67.5 \u00b0C"}}