{"cas_no": "1825-63-4", "cn_name": "\u4e09\u7532\u57fa\u4e19\u6c27\u57fa\u7845\u70f7", "en_name": ["Trimethylpropoxysilane", "Silane, trimethylpropoxy-", "Trimethylpropoxysilane", "Propoxytrimethylsilane", "Trimethyl-n-propoxysilane", "Propyl trimethylsilyl ether", "Trimethylsilicon propoxide", "Trimethylsilyl propyl ether", "1-Propyl trimethylsilyl ether", "(Trimethylsiloxy)propane"], "SMILES": "O([Si](C)(C)C)CCC", "physical_data": {"Molecular Weight": "132.28", "Molecular Formula": "C6H16OSi", "Boiling Point": "101-102 \u00b0C", "Density": "0.768 g/cm\u00b3"}}