{"cas_no": "1825-59-8", "cn_name": "\u7532\u57fa\u4e8c\u82ef\u57fa\u4e59\u6c27\u57fa\u7845\u70f7", "en_name": ["1,1\u2032-(Ethoxymethylsilylene)bis[benzene]", "Benzene, 1,1\u2032-(ethoxymethylsilylene)bis-", "Silane, ethoxymethyldiphenyl-", "1,1\u2032-(Ethoxymethylsilylene)bis[benzene]", "Methyldiphenylethoxysilane", "Ethoxymethyldiphenylsilane", "Diphenylmethylethoxysilane"], "SMILES": "[Si](OCC)(C)(C1=CC=CC=C1)C2=CC=CC=C2", "physical_data": {"Molecular Weight": "242.39", "Molecular Formula": "C15H18OSi", "Boiling Point": "100-102 \u00b0C @ Press: 0.3 Torr", "Melting Point": "-27 \u00b0C", "Density": "1.018 g/cm\u00b3"}}