{"cas_no": "1825-68-9", "cn_name": "\u4e8c\u7532\u57fa\u7532\u6c27\u57fa\u6c2f\u7845\u70f7", "en_name": ["Chloromethoxydimethylsilane", "Silane, chloromethoxydimethyl-", "Chloromethoxydimethylsilane", "Dimethylmethoxychlorosilane", "Methoxydimethylchlorosilane", "Dimethylmethoxysilyl chloride", "Methoxychlorodimethylsilane", "Chlorodimethylmethoxysilane", "Methoxydimethylsilyl chloride"], "SMILES": "[Si](OC)(C)(C)Cl", "physical_data": {"Molecular Weight": "124.64", "Molecular Formula": "C3H9ClOSi", "Boiling Point": "77 \u00b0C", "Density": "0.953 g/cm\u00b3 @ Temp: 25 \u00b0C"}}