{"cas_no": "1825-00-9", "cn_name": "\u7532\u57fa-L-\u5421\u5583\u963f\u62c9\u4f2f\u7cd6\u82f7", "en_name": ["Methyl \u03b2-L-arabinopyranoside", "\u03b2-L-Arabinopyranoside, methyl", "Arabinopyranoside, methyl, \u03b2-L-", "Methyl \u03b2-L-arabinopyranoside", "NSC 25272"], "SMILES": "O(C)C1C(O)C(O)C(O)CO1", "physical_data": {"Molecular Weight": "164.16", "Molecular Formula": "C6H12O5", "Melting Point": "169-170 \u00b0C", "Density": "1.44 g/cm\u00b3"}}