{"cas_no": "1825-62-3", "cn_name": "\u4e09\u7532\u57fa\u4e59\u6c27\u57fa\u7845\u70f7", "en_name": ["Trimethylethoxysilane", "Silane, ethoxytrimethyl-", "Ethoxytrimethylsilane", "Trimethylethoxysilane", "Trimethylsilyl ethyl ether", "Ethyl trimethylsilyl ether", "Trimethylsilyl ethoxide", "Trimethylsilicon ethoxide", "NSC 43345", "LS 875", "Silane M 3-ethoxy", "KBM 31", "T 1394", "SIT 8515.0"], "SMILES": "O([Si](C)(C)C)CC", "physical_data": {"Molecular Weight": "118.25", "Molecular Formula": "C5H14OSi", "Boiling Point": "76 \u00b0C", "Melting Point": "-83 \u00b0C", "Density": "0.757 g/cm\u00b3"}}