{"cas_no": "1825-19-0", "cn_name": "\u7532\u57fa\u4e94\u6c2f\u82ef\u57fa\u786b", "en_name": ["Pentachlorothioanisole", "Benzene, 1,2,3,4,5-pentachloro-6-(methylthio)-", "Sulfide, methyl pentachlorophenyl", "Benzene, pentachloro(methylthio)-", "1,2,3,4,5-Pentachloro-6-(methylthio)benzene", "Methyl pentachlorophenyl sulfide", "Pentachlorothioanisole", "Pentachloro(methylthio)benzene", "Methylthiopentachlorobenzene", "Pentachlorophenyl methyl sulfide", "PCTA", "1,2,3,4,5-Pentachloro-6-methylsulfanylbenzene", "1,2,3,4,5-Pentachloro-6-(methylsulfanyl)benzene"], "SMILES": "S(C)C1=C(Cl)C(Cl)=C(Cl)C(Cl)=C1Cl", "physical_data": {"Molecular Weight": "296.43", "Molecular Formula": "C7H3Cl5S", "Melting Point": "95-96 \u00b0C"}}