{"cas_no": "182500-28-3", "cn_name": "4-\u6eb4-5-\u7532\u57fa-2-\u785d\u57fa\u82ef\u915a", "en_name": ["4-Bromo-5-methyl-2-nitrophenol", "Phenol, 4-bromo-5-methyl-2-nitro-", "4-Bromo-5-methyl-2-nitrophenol", "2-Nitro-5-methyl-4-bromophenol"], "SMILES": "N(=O)(=O)C1=C(O)C=C(C)C(Br)=C1", "physical_data": {"Molecular Weight": "232.03", "Molecular Formula": "C7H6BrNO3", "Melting Point": "126 \u00b0C"}}