{"cas_no": "18267-36-2", "cn_name": "\u4e59\u57fa3-\u7f9f\u57fa-3-\u7532\u57fa\u4e01\u9178\u916f", "en_name": ["Ethyl 3-hydroxy-3-methylbutanoate", "Butanoic acid, 3-hydroxy-3-methyl-, ethyl ester", "Butyric acid, 3-hydroxy-3-methyl-, ethyl ester", "Ethyl 3-hydroxy-3-methylbutyrate", "Ethyl 3-hydroxy-3-methylbutanoate", "Ethyl \u03b2-hydroxyisovalerate"], "SMILES": "C(CC(C)(C)O)(OCC)=O", "physical_data": {"Molecular Weight": "146.18", "Molecular Formula": "C7H14O3", "Boiling Point": "179-180 \u00b0C", "Melting Point": "141-142.5 \u00b0C", "Density": "0.9740 g/cm\u00b3 @ Temp: 25 \u00b0C"}}