{"cas_no": "1826-28-4", "cn_name": "\u82ef\u57fa-2-\u5421\u5576\u57fa\u916e\u809f", "en_name": ["Phenyl 2-pyridyl ketoxime", "Methanone, phenyl-2-pyridinyl-, oxime", "Ketone, phenyl 2-pyridyl, oxime", "Phenyl 2-pyridyl ketoxime", "2-Benzoylpyridine ketoxime", "Phenyl(2-pyridinyl)methanone oxime", "2-Benzoylpyridine oxime", "NSC 53389", "Phenyl 2-pyridyl ketone oxime"], "SMILES": "C(=NO)(C1=CC=CC=C1)C2=CC=CC=N2", "physical_data": {"Molecular Weight": "198.22", "Molecular Formula": "C12H10N2O", "Melting Point": "150-152 \u00b0C"}}