{"cas_no": "18267-08-8", "cn_name": "\u56db\u4e59\u6c27\u57fa\u9506", "en_name": ["Zirconium ethoxide", "Ethanol, zirconium(4+) salt", "Ethyl alcohol, zirconium(4+) salt", "Zirconium ethoxide", "Tetraethoxyzirconium", "Zirconium ethoxide (Zr(OEt)4)", "Zirconium tetraethoxide", "Tetraethyl zirconate", "Zirconium tetrakis(ethoxide)", "Zirconium(IV) ethoxide", "Tetrakis(ethanolato)zirconium"], "SMILES": "C(C)O.[Zr]", "physical_data": {"Molecular Weight": "", "Molecular Formula": "C2H6O.<sup>1</sup>/4Zr", "Boiling Point": "180 \u00b0C @ Press: 13 Torr", "Melting Point": "171-173 \u00b0C"}}