{"cas_no": "18263-25-7", "cn_name": "2-\u6eb4\u5341\u516d\u70f7\u9178", "en_name": ["2-Bromohexadecanoic acid", "Hexadecanoic acid, 2-bromo-", "2-Bromohexadecanoic acid", "2-Bromopalmitic acid", "\u03b1-Bromopalmitic acid", "1-Bromopentadecanecarboxylic acid", "2-Bromo-n-hexadecanoic acid", "DL-2-Bromopalmitate", "NSC 58378"], "SMILES": "C(CCCCCCCCCCCC)CC(C(O)=O)Br", "physical_data": {"Molecular Weight": "335.32", "Molecular Formula": "C16H31BrO2", "Melting Point": "53-53.5 \u00b0C"}}