{"cas_no": "18264-71-6", "cn_name": "2,2'-\u4e8c\u785d\u57fa\u4e8c\u82ef\u80fa", "en_name": ["2,2\u2032-Dinitrodiphenylamine", "Benzenamine, 2-nitro-N-(2-nitrophenyl)-", "Diphenylamine, 2,2\u2032-dinitro-", "2-Nitro-N-(2-nitrophenyl)benzenamine", "2,2\u2032-Dinitrodiphenylamine", "Bis(2-nitrophenyl)amine", "2,2\u2032-Dinitrophenylamine", "NSC 68781", "2-Nitro-N-(2-nitrophenyl)aniline"], "SMILES": "N(C1=C(N(=O)=O)C=CC=C1)C2=C(N(=O)=O)C=CC=C2", "physical_data": {"Molecular Weight": "259.22", "Molecular Formula": "C12H9N3O4", "Melting Point": "162-165 \u00b0C"}}