{"cas_no": "1826-12-6", "cn_name": "4-\u82ef\u57fa\u567b\u5511", "en_name": ["4-Phenylthiazole", "Thiazole, 4-phenyl-", "4-Phenylthiazole"], "SMILES": "C1(=CSC=N1)C2=CC=CC=C2", "physical_data": {"Molecular Weight": "161.22", "Molecular Formula": "C9H7NS", "Boiling Point": "275 \u00b0C", "Melting Point": "55 \u00b0C"}}