{"cas_no": "18266-55-2", "cn_name": "N-(2-\u7f9f\u4e59\u57fa)\u9170\u4e19\u80fa", "en_name": ["N-(2-Hydroxyethyl)propionamide", "Propanamide, N-(2-hydroxyethyl)-", "Propionamide, N-(2-hydroxyethyl)-", "N-(2-Hydroxyethyl)propanamide", "N-(\u03b2-Hydroxyethyl)propionamide", "N-(2-Hydroxyethyl)propionamide", "N-(2-Hydroxyethyl)propionic acid amide", "NSC 6001", "Propionylaminoethanol", "N-(2-Hydroxylethyl)propionamide"], "SMILES": "C(NCCO)(CC)=O", "physical_data": {"Molecular Weight": "117.15", "Molecular Formula": "C5H11NO2", "Boiling Point": "201-203 \u00b0C @ Press: 10 Torr", "Melting Point": "46-48 \u00b0C", "Density": "1.071 g/cm\u00b3 @ Temp: 25 \u00b0C"}}