{"cas_no": "18279-67-9", "cn_name": "2-\u6c2f\u4e59\u57fa\u4e09\u4e59\u6c27\u57fa\u7845\u70f7", "en_name": ["(2-Chloroethyl)triethoxysilane", "Silane, (2-chloroethyl)triethoxy-", "(2-Chloroethyl)triethoxysilane", "Triethoxysilylethyl chloride", "2-Chloroethyltriethoxysilane", "\u03b2-Chloroethyltriethoxysilane", "C 3281"], "SMILES": "[Si](CCCl)(OCC)(OCC)OCC", "physical_data": {"Molecular Weight": "226.77", "Molecular Formula": "C8H19ClO3Si", "Boiling Point": "88-89 \u00b0C @ Press: 9 Torr", "Density": "1.009 g/cm\u00b3 @ Temp: 25 \u00b0C"}}