{"cas_no": "18270-17-2", "cn_name": "1-\u4e09\u7532\u7845\u57fa-1-\u620a\u7094", "en_name": ["Trimethyl-1-pentyn-1-ylsilane", "Silane, trimethyl-1-pentyn-1-yl-", "Silane, trimethyl-1-pentynyl-", "Trimethyl-1-pentyn-1-ylsilane", "1-(Trimethylsilyl)-1-pentyne", "Trimethyl-1-pentynylsilane", "Propyl(trimethylsilyl)acetylene", "(1-Pentyn-1-yl)trimethylsilane"], "SMILES": "C([Si](C)(C)C)#CCCC", "physical_data": {"Molecular Weight": "140.30", "Molecular Formula": "C8H16Si", "Boiling Point": "133-134 \u00b0C", "Density": "0.765 g/cm\u00b3 @ Temp: 25 \u00b0C"}}