{"cas_no": "18282-40-1", "cn_name": "1-\u4e59\u57fa-2-\u7898\u82ef", "en_name": ["1-Ethyl-2-iodobenzene", "Benzene, 1-ethyl-2-iodo-", "1-Ethyl-2-iodobenzene", "o-Ethyliodobenzene", "1-Iodo-2-ethylbenzene", "2-Ethyliodobenzene"], "SMILES": "C(C)C1=C(I)C=CC=C1", "physical_data": {"Molecular Weight": "232.06", "Molecular Formula": "C8H9I", "Boiling Point": "220-221 \u00b0C"}}