{"cas_no": "18284-36-1", "cn_name": "\u56db(\u4e09\u82ef\u57fa\u81a6)\u6c22\u5316\u94d1(I)", "en_name": ["Hydrotetrakis(triphenylphosphine)rhodium", "Rhodium, hydrotetrakis(triphenylphosphine)-", "Hydrotetrakis(triphenylphosphine)rhodium", "Hydrogen tetrakis(triphenyl phosphine)rhodium", "Hydridotetrakis(triphenylphosphine)rhodium", "Tetrakis(triphenylphosphine)rhodium hydride"], "SMILES": "[Rh+]([P](C1=CC=CC=C1)(C2=CC=CC=C2)C3=CC=CC=C3)([P](C4=CC=CC=C4)(C5=CC=CC=C5)C6=CC=CC=C6)([P](C7=CC=CC=C7)(C8=CC=CC=C8)C9=CC=CC=C9)([P](C%10=CC=CC=C%10)(C%11=CC=CC=C%11)C%12=CC=CC=C%12)[H-]", "physical_data": {"Molecular Weight": "", "Molecular Formula": "C72H61P4Rh", "Melting Point": "100.5-101.5 \u00b0C"}}