{"cas_no": "18282-59-2", "cn_name": "3,4-\u4e8c\u6c2f\u6eb4\u82ef", "en_name": ["4-Bromo-1,2-dichlorobenzene", "Benzene, 4-bromo-1,2-dichloro-", "4-Bromo-1,2-dichlorobenzene", "3,4-Dichlorobromobenzene", "1-Bromo-3,4-dichlorobenzene", "3,4-Dichloro-1-bromobenzene", "3,4-Dichlorophenyl bromide", "1,2-Dichloro-4-bromobenzene", "1-Bromo-3,4-chlorobenzene"], "SMILES": "ClC1=C(Cl)C=CC(Br)=C1", "physical_data": {"Molecular Weight": "225.90", "Molecular Formula": "C6H3BrCl2", "Boiling Point": "237 \u00b0C", "Melting Point": "25 \u00b0C"}}