{"cas_no": "18281-07-7", "cn_name": "\u4e8c\u5341\u4e09\u70f7\u9178\u4e59\u916f", "en_name": ["Tricosanoic acid, ethyl ester", "Tricosanoic acid, ethyl ester", "Ethyl tricosanoate"], "SMILES": "C(CCCCCCCCCCCCCCCCCCC)CCC(OCC)=O", "physical_data": {"Molecular Weight": "382.66", "Molecular Formula": "C25H50O2", "Boiling Point": "198-199 \u00b0C @ Press: 0.27 Torr"}}