{"cas_no": "18281-05-5", "cn_name": "\u82b1\u751f\u9178\u4e59\u916f", "en_name": ["Ethyl eicosanoate", "Eicosanoic acid, ethyl ester", "Arachidic acid, ethyl ester", "Ethyl eicosanoate", "Ethyl arachate", "Ethyl arachidate"], "SMILES": "C(CCCCCCCCCCCCCCC)CCCC(OCC)=O", "physical_data": {"Molecular Weight": "340.58", "Molecular Formula": "C22H44O2", "Boiling Point": "295 \u00b0C", "Melting Point": "50 \u00b0C"}}