{"cas_no": "18282-51-4", "cn_name": "4-\u7898\u82c4\u9187", "en_name": ["4-Iodobenzyl alcohol", "Benzenemethanol, 4-iodo-", "Benzyl alcohol, p-iodo-", "4-Iodobenzenemethanol", "p-Iodobenzyl alcohol", "4-Iodobenzyl alcohol", "(4-Iodophenyl)methanol"], "SMILES": "C(O)C1=CC=C(I)C=C1", "physical_data": {"Molecular Weight": "234.03", "Molecular Formula": "C7H7IO", "Boiling Point": "135-136 \u00b0C @ Press: 5 Torr", "Melting Point": "71-71.5 \u00b0C"}}