{"cas_no": "18282-10-5", "cn_name": "\u4e8c\u6c27\u5316\u9521", "en_name": ["Tin oxide (SnO2)", "Tin oxide (SnO2)", "Stannic oxide", "Tin(IV) oxide", "Stannic dioxide", "C.I. 77861", "Stannic oxide (SnO2)", "T 10 (oxide)", "T 10", "Tin dioxide (SnO2)", "Nalco SN 20", "SN 38 (oxide)", "SN 38", "T 1186", "S 1 (tin compound)", "S 3976", "S 1", "Nyacol SN 15", "Nanotek Tin Oxide", "Nanotek SnO2", "S 8 (oxide)", "S 8", "SAM 05", "P 3001", "SAM 05 (catalyst)", "Nyacol SN 15CG", "Nanotek SN", "EPS 12A", "Tin dioxide", "SH-S", "SH-S (oxide)", "S 1S", "OV-SN", "S 2000", "S 2000 (oxide)", "Tego RL", "SH (oxide)", "SH", "Suncolloid HX 305M5", "EPS 8", "CP 004", "EPS 12", "CXF 303IP", "HIS 30MH", "AT-SNNO 200N", "Suncolloid HX 405MH", "HX 405MH", "SnO2", "QF-Ti 1125P", "YC-Sn 20"], "SMILES": "[Sn](=O)=O", "physical_data": {"Molecular Weight": "150.71", "Molecular Formula": "O2Sn", "Melting Point": "1630 \u00b0C", "Density": "6.95 g/cm\u00b3"}}