{"cas_no": "18293-82-8", "cn_name": "\u5f02\u4e01\u57fa(\u7532\u57fa)\u4e8c\u7532\u6c27\u57fa\u7845\u70f7", "en_name": ["Dimethoxymethyl(2-methylpropyl)silane", "Silane, dimethoxymethyl(2-methylpropyl)-", "Silane, isobutyldimethoxymethyl-", "Dimethoxymethyl(2-methylpropyl)silane", "Isobutyl(methyl)dimethoxysilane", "Isobutyldimethoxymethylsilane"], "SMILES": "[Si](CC(C)C)(OC)(OC)C", "physical_data": {"Molecular Weight": "162.30", "Molecular Formula": "C7H18O2Si", "Boiling Point": "63 \u00b0C @ Press: 40 Torr", "Density": "0.8637 g/cm\u00b3 @ Temp: 20 \u00b0C"}}