{"cas_no": "1829-32-9", "cn_name": "3-\u6c2f\u6c34\u626c\u9178", "en_name": ["3-Chlorosalicylic acid", "Benzoic acid, 3-chloro-2-hydroxy-", "Salicylic acid, 3-chloro-", "3-Chloro-2-hydroxybenzoic acid", "3-Chlorosalicylic acid", "NSC 18854"], "SMILES": "C(O)(=O)C1=C(O)C(Cl)=CC=C1", "physical_data": {"Molecular Weight": "172.57", "Molecular Formula": "C7H5ClO3", "Melting Point": "180-182 \u00b0C", "Density": "0.863 g/cm\u00b3 @ Temp: 20 \u00b0C"}}