{"cas_no": "18297-63-7", "cn_name": "\u516d\u7532\u57fa\u4e8c\u7845\u8132", "en_name": ["N,N\u2032-Bis(trimethylsilyl)urea", "Urea, N,N\u2032-bis(trimethylsilyl)-", "Urea, 1,3-bis(trimethylsilyl)-", "N,N\u2032-Bis(trimethylsilyl)urea", "N1,N2-Bis(trimethylsilyl)urea", "1,3-Bis(trimethylsilyl)urea", "Bis(trimethylsilyl)urea", "TSL 8845"], "SMILES": "N([Si](C)(C)C)C(N[Si](C)(C)C)=O", "physical_data": {"Molecular Weight": "204.42", "Molecular Formula": "C7H20N2OSi2", "Melting Point": "222-224 \u00b0C"}}