{"cas_no": "18299-54-2", "cn_name": "\u4e59\u4e8c\u80fa\u76d0\u9178\u76d0", "en_name": ["1,2-Ethanediamine, hydrochloride (1:1)", "1,2-Ethanediamine, hydrochloride (1:1)", "Ethylenediamine, monohydrochloride", "1,2-Ethanediamine, monohydrochloride", "Ethylenediamine hydrochloride"], "SMILES": "C(CN)N.Cl", "physical_data": {"Molecular Weight": "", "Molecular Formula": "C2H8N2.ClH", "Melting Point": "143 \u00b0C"}}