{"cas_no": "1829-33-0", "cn_name": "3-\u6c2f-5-\u7f9f\u57fa\u82ef\u7532\u919b", "en_name": ["3-Chloro-5-hydroxybenzaldehyde", "Benzaldehyde, 3-chloro-5-hydroxy-", "3-Chloro-5-hydroxybenzaldehyde"], "SMILES": "C(=O)C1=CC(Cl)=CC(O)=C1", "physical_data": {"Molecular Weight": "156.57", "Molecular Formula": "C7H5ClO2", "Melting Point": "104 \u00b0C"}}