{"cas_no": "18293-54-4", "cn_name": "1-(\u4e09\u7532\u7845\u57fa)-1H-1,2,4-\u4e09\u5511", "en_name": ["1-Trimethylsilyl-1,2,4-triazole", "1H-1,2,4-Triazole, 1-(trimethylsilyl)-", "1-(Trimethylsilyl)-1H-1,2,4-triazole", "1-Trimethylsilyl-1,2,4-triazole", "N-(Trimethylsilyl)triazole", "1-(Trimethylsilyl)triazole", "1-Trimethylsilyl-1H-1,2,4-triazole"], "SMILES": "[Si](C)(C)(C)N1C=NC=N1", "physical_data": {"Molecular Weight": "141.25", "Molecular Formula": "C5H11N3Si", "Boiling Point": "74 \u00b0C @ Press: 12 Torr", "Density": "0.989 g/cm\u00b3"}}