{"cas_no": "1829-22-7", "cn_name": "2-\u7898\u5bf9\u82ef\u4e8c\u7532\u9178", "en_name": ["2-Iodo-1,4-benzenedicarboxylic acid", "1,4-Benzenedicarboxylic acid, 2-iodo-", "Terephthalic acid, iodo-", "2-Iodo-1,4-benzenedicarboxylic acid", "Iodoterephthalic acid", "2-Iodoterephthalic acid"], "SMILES": "C(O)(=O)C1=CC(I)=C(C(O)=O)C=C1", "physical_data": {"Molecular Weight": "292.03", "Molecular Formula": "C8H5IO4", "Melting Point": "299-300 \u00b0C"}}