{"cas_no": "1829-28-3", "cn_name": "2-\u7898\u82ef\u7532\u9178\u4e59\u916f,", "en_name": ["Ethyl 2-iodobenzoate", "Benzoic acid, 2-iodo-, ethyl ester", "Benzoic acid, o-iodo-, ethyl ester", "Ethyl 2-iodobenzoate", "Ethyl o-iodobenzoate", "2-Iodobenzoic acid ethyl ester", "2-(Ethoxycarbonyl)iodobenzene", "o-Iodobenzoic acid ethyl ester"], "SMILES": "C(OCC)(=O)C1=C(I)C=CC=C1", "physical_data": {"Molecular Weight": "276.07", "Molecular Formula": "C9H9IO2", "Boiling Point": "120-125 \u00b0C @ Press: 2.5 Torr", "Melting Point": "220-225 \u00b0C"}}