{"cas_no": "18296-45-2", "cn_name": "\u5730\u620a\u66f2\u916f", "en_name": ["Didrovaltrate", "Butanoic acid, 3-methyl-, (1S,2\u2032R,4aS,6S,7aS)-6-(acetyloxy)-4a,5,6,7a-tetrahydro-4-[(3-methyl-1-oxobutoxy)methyl]spiro[cyclopenta[c]pyran-7(1H),2\u2032-oxiran]-1-yl ester", "Butanoic acid, 3-methyl-, 6-(acetyloxy)-4a,5,6,7a-tetrahydro-4-[(3-methyl-1-oxobutoxy)methyl]spiro[cyclopenta[c]pyran-7(1H),2\u2032-oxiran]-1-yl ester, [1S-(1\u03b1,4a\u03b1,6\u03b1,7\u03b2,7a\u03b1)]-", "Spiro[cyclopenta[c]pyran-7(1H),2\u2032-oxirane], butanoic acid deriv.", "Didrovaltratum", "Dihydroisovalepotriate", "Dihydroisovaltrate", "Didrovaltrate", "Dihydroisovaltratum", "NSC 335756"], "SMILES": "O(C(C)=O)C1C2(C3C(C1)C(COC(CC(C)C)=O)=COC3OC(CC(C)C)=O)CO2", "physical_data": {"Molecular Weight": "424.48", "Molecular Formula": "C22H32O8", "Melting Point": "63-64 \u00b0C"}}