{"cas_no": "18291-80-0", "cn_name": "\u7532\u7845\u70f7\u57fa\u6eb4\u4ee3\u4e59\u9178\u4e09\u7532\u916f", "en_name": ["Acetic acid, 2-bromo-, trimethylsilyl ester", "Acetic acid, 2-bromo-, trimethylsilyl ester", "Acetic acid, bromo-, trimethylsilyl ester", "Silanol, trimethyl-, bromoacetate", "Trimethylsilyl bromoacetate", "Bromoacetic acid trimethylsilyl ester"], "SMILES": "O([Si](C)(C)C)C(CBr)=O", "physical_data": {"Molecular Weight": "211.13", "Molecular Formula": "C5H11BrO2Si", "Boiling Point": "57 \u00b0C @ Press: 9 Torr", "Density": "1.299 g/cm\u00b3"}}