{"cas_no": "18290-60-3", "cn_name": "[2-(3-\u73af\u5df1\u70ef\u57fa)\u4e59\u57fa]\u4e09\u6c2f\u7845\u70f7", "en_name": ["4-[2-(Trichlorosilyl)ethyl]cyclohexene", "Cyclohexene, 4-[2-(trichlorosilyl)ethyl]-", "Silane, trichloro[2-(3-cyclohexen-1-yl)ethyl]-", "4-[2-(Trichlorosilyl)ethyl]cyclohexene", "[2-(3-Cyclohexenyl)ethyl]trichlorosilane", "2-(4-Cyclohexenyl)ethyltrichlorosilane"], "SMILES": "C(C[Si](Cl)(Cl)Cl)C1CCC=CC1", "physical_data": {"Molecular Weight": "243.63", "Molecular Formula": "C8H13Cl3Si", "Boiling Point": "74-75 \u00b0C @ Press: 0.7 Torr", "Density": "1.230 g/cm\u00b3"}}