{"cas_no": "1829-37-4", "cn_name": "\u90bb\u6eb4\u82ef\u915a\u4e59\u916f", "en_name": ["2-Bromophenyl acetate", "Phenol, 2-bromo-, 1-acetate", "Phenol, o-bromo-, acetate", "Phenol, 2-bromo-, acetate", "o-Bromophenyl acetate", "o-Acetoxybromobenzene", "2-Bromophenol acetate", "2-Bromophenyl acetate", "NSC 404082", "1-Acetoxy-2-bromobenzene"], "SMILES": "O(C(C)=O)C1=C(Br)C=CC=C1", "physical_data": {"Molecular Weight": "215.04", "Molecular Formula": "C8H7BrO2", "Boiling Point": "147-150 \u00b0C @ Press: 25 Torr", "Density": "1.4924 g/cm\u00b3 @ Temp: 20 \u00b0C"}}