{"cas_no": "18294-87-6", "cn_name": "1-\u73af\u5df1\u70ef-1-\u4e59\u9178", "en_name": ["1-Cyclohexene-1-acetic acid", "1-Cyclohexene-1-acetic acid", "1-Cyclohexenylacetic acid", "Cyclohexene-1-acetic acid", "2-(Cyclohex-1-enyl)acetic acid", "NSC 14103", "(1-Cyclohexen-1-yl)acetic acid", "2-(1-Cyclohexen-1-yl)acetic acid"], "SMILES": "C(C(O)=O)C=1CCCCC1", "physical_data": {"Molecular Weight": "140.18", "Molecular Formula": "C8H12O2", "Boiling Point": "140 \u00b0C @ Press: 12 Torr", "Melting Point": "38 \u00b0C"}}