{"cas_no": "18292-38-1", "cn_name": "\u5f02\u4e01\u70ef\u57fa\u4e09\u7532\u57fa\u7845\u70f7", "en_name": ["Methallyltrimethylsilane", "Silane, trimethyl(2-methyl-2-propen-1-yl)-", "Silane, trimethyl(2-methylallyl)-", "Silane, trimethyl(2-methyl-2-propenyl)-", "Trimethyl(2-methyl-2-propen-1-yl)silane", "2-Methyl-1-(trimethylsilyl)-2-propene", "Trimethyl(2-methylallyl)silane", "2-Methyl-3-(trimethylsilyl)prop-1-ene", "(2-Methylallyl)trimethylsilane", "Methallyltrimethylsilane", "(2-Methyl-2-propenyl)trimethylsilane", "2-Methyl-3-(trimethylsilyl)propene", "1-(Trimethylsilyl)-2-methyl-2-propene"], "SMILES": "C([Si](C)(C)C)C(C)=C", "physical_data": {"Molecular Weight": "128.29", "Molecular Formula": "C7H16Si", "Boiling Point": "112-114 \u00b0C", "Density": "0.754 g/cm\u00b3"}}