{"cas_no": "18293-53-3", "cn_name": "\u4e09\u7532\u57fa\u7845\u70f7\u6c30\u5316\u7532\u70f7", "en_name": ["2-(Trimethylsilyl)acetonitrile", "Acetonitrile, 2-(trimethylsilyl)-", "Acetonitrile, (trimethylsilyl)-", "2-(Trimethylsilyl)acetonitrile", "(Trimethylsilyl)acetonitrile", "(Cyanomethyl)trimethylsilane"], "SMILES": "C([Si](C)(C)C)C#N", "physical_data": {"Molecular Weight": "113.23", "Molecular Formula": "C5H11NSi", "Boiling Point": "49-51 \u00b0C @ Press: 10 Torr", "Density": "0.829 g/cm\u00b3"}}