{"cas_no": "18294-85-4", "cn_name": "2-\u7f9f\u57fa\u5df1\u4e8c\u9178\u4e8c\u94a0\u76d0", "en_name": ["2-Hydroxyadipic acid", "Hexanedioic acid, 2-hydroxy-", "2-Hydroxyhexanedioic acid", "\u03b1-Hydroxyadipic acid", "2-Hydroxyadipic acid", "2,3,4-Trideoxyhexaric acid", "DL-2-Hydroxyadipic acid"], "SMILES": "C(C(C(O)=O)O)CCC(O)=O", "physical_data": {"Molecular Weight": "162.14", "Molecular Formula": "C6H10O5", "Melting Point": "151 \u00b0C"}}