{"cas_no": "1829-40-9", "cn_name": "\u516d\u82ef\u57fa\u4e8c\u7845\u6c27\u70f7", "en_name": ["Hexaphenyldisiloxane", "Disiloxane, 1,1,1,3,3,3-hexaphenyl-", "Disiloxane, hexaphenyl-", "1,1,1,3,3,3-Hexaphenyldisiloxane", "Hexaphenyldisiloxane", "Bis(triphenylsilyl) ether", "Bis(triphenylsilicon) oxide", "NSC 12574"], "SMILES": "[Si](O[Si](C1=CC=CC=C1)(C2=CC=CC=C2)C3=CC=CC=C3)(C4=CC=CC=C4)(C5=CC=CC=C5)C6=CC=CC=C6", "physical_data": {"Molecular Weight": "534.79", "Molecular Formula": "C36H30OSi2", "Boiling Point": "494 \u00b0C", "Melting Point": "224-225 \u00b0C", "Density": "0.8445 g/cm\u00b3 @ Temp: 20 \u00b0C"}}