{"cas_no": "1830-32-6", "cn_name": "\u963f\u55ea\u7c73\u7279", "en_name": ["Azintamide", "Acetamide, 2-[(6-chloro-3-pyridazinyl)thio]-N,N-diethyl-", "2-[(6-Chloro-3-pyridazinyl)thio]-N,N-diethylacetamide", "ST 9067", "Azintamide", "N,N-Diethyl-2-(3-chloro-6-pyridazinylthio)acetamide", "Oragallin", "N,N-Diethyl(6-chloropyridazin-3-ylthio)acetamide", "Azinthiamide", "Bilipurum", "Biloral", "Colerin", "Oragal", "Oragalin", "Oragallin purum", "NSC 291837", "2-(6-Chloro-pyridazin-3-ylsulfanyl)-N,N-diethyl-acetamide"], "SMILES": "S(CC(N(CC)CC)=O)C1=CC=C(Cl)N=N1", "physical_data": {"Molecular Weight": "259.76", "Molecular Formula": "C10H14ClN3OS", "Melting Point": "97 \u00b0C"}}