{"cas_no": "183065-68-1", "cn_name": "4-\u6eb4-2,6-\u4e8c\u6c1f\u82ef\u7532\u9178", "en_name": ["4-Bromo-2,6-difluorobenzoic acid", "Benzoic acid, 4-bromo-2,6-difluoro-", "4-Bromo-2,6-difluorobenzoic acid", "2,6-Difluoro-4-bromobenzoic acid"], "SMILES": "C(O)(=O)C1=C(F)C=C(Br)C=C1F", "physical_data": {"Molecular Weight": "237.00", "Molecular Formula": "C7H3BrF2O2", "Melting Point": "196-198 \u00b0C"}}