{"cas_no": "18301-56-9", "cn_name": "2-\u7532\u57fa\u4e19\u70ef\u9178-3-(\u7532\u57fa\u4e8c\u6c2f\u7845\u57fa)\u4e19(\u9187)\u916f", "en_name": ["3-(Dichloromethylsilyl)propyl 2-methyl-2-propenoate", "2-Propenoic acid, 2-methyl-, 3-(dichloromethylsilyl)propyl ester", "Methacrylic acid, 3-(dichloromethylsilyl)propyl ester", "3-(Dichloromethylsilyl)propyl 2-methyl-2-propenoate", "(\u03b3-Methacryloxypropyl)methyldichlorosilane", "(3-Methacryloyloxypropyl)methyldichlorosilane", "KL 502", "3-(Dichloromethylsilyl)propyl methacrylate", "(3-Methacryloxypropyl)methyldichlorosilane", "Dichloro[3-(methacryloyloxy)propyl]methylsilane", "[\u03b3-(Methacryloxy)propyl]dichloromethylsilane", "Methyldichloro(3-methacryloxypropyl)silane"], "SMILES": "O(CCC[Si](C)(Cl)Cl)C(C(C)=C)=O", "physical_data": {"Molecular Weight": "241.19", "Molecular Formula": "C8H14Cl2O2Si", "Boiling Point": "75 \u00b0C @ Press: 2 Torr", "Density": "1.108 g/cm\u00b3 @ Temp: 25 \u00b0C"}}