{"cas_no": "18306-29-1", "cn_name": "\u53cc(\u4e09\u7532\u57fa\u7845\u57fa)\u786b\u9178\u916f", "en_name": ["Silanol, trimethyl-, 1,1\u2032-sulfate", "Silanol, trimethyl-, 1,1\u2032-sulfate", "Silanol, trimethyl-, sulfate (2:1)", "Bis(trimethylsilyl) sulfate"], "SMILES": "O(S(O[Si](C)(C)C)(=O)=O)[Si](C)(C)C", "physical_data": {"Molecular Weight": "242.44", "Molecular Formula": "C6H18O4SSi2", "Boiling Point": "70 \u00b0C @ Press: 0.5 Torr", "Melting Point": "56-58 \u00b0C"}}