{"cas_no": "1830-78-0", "cn_name": "\u4e8c(2-\u7532\u57fa-2-\u4e19\u70ef\u9178)2-\u7f9f\u57fa-1,3-\u4e19\u4e8c\u9187\u916f", "en_name": ["2-Hydroxy-1,3-dimethacryloxypropane", "2-Propenoic acid, 2-methyl-, 1,1\u2032-(2-hydroxy-1,3-propanediyl) ester", "2-Propenoic acid, 2-methyl-, 2-hydroxy-1,3-propanediyl ester", "Methacrylic acid, 2-hydroxytrimethylene ester", "Glycerol dimethacrylate", "Glycerol 1,3-dimethacrylate", "Glycerin 1,3-dimethacrylate", "NK Ester 701", "2-Hydroxy-1,3-dimethacryloxypropane", "Glyceryl 1,3-dimethacrylate", "2-Hydroxy-1,3-dimethacryloyloxypropane", "G 101P", "Light Ester G 101P", "GP 101P", "Mhoromer D 1108", "D 1108", "1,3-Bis(methacryloyloxy)-2-propanol", "1,3-Di(methacryloyloxy)-2-hydroxypropane", "2-Hydroxy-3-methacrylolyoxypropyl methacrylate", "Glycerol 1,3-dimethylacrylate", "[2-Hydroxy-3-(2-methylprop-2-enoyloxy)propyl] 2-methylprop-2-enoate"], "SMILES": "C(C(COC(C(C)=C)=O)O)OC(C(C)=C)=O", "physical_data": {"Molecular Weight": "228.24", "Molecular Formula": "C11H16O5", "Boiling Point": "90-104 \u00b0C @ Press: 0.25 Torr", "Density": "1.33 g/cm\u00b3"}}