{"cas_no": "1830-54-2", "cn_name": "1,3-\u4e19\u916e\u4e8c\u7fa7\u9178\u4e8c\u7532\u916f", "en_name": ["1,5-Dimethyl 3-oxopentanedioate", "Pentanedioic acid, 3-oxo-, 1,5-dimethyl ester", "Glutaric acid, 3-oxo-, dimethyl ester", "Pentanedioic acid, 3-oxo-, dimethyl ester", "1,5-Dimethyl 3-oxopentanedioate", "Dimethyl \u03b2-oxoglutarate", "Dimethyl acetonedicarboxylate", "Dimethyl 1,3-acetonedicarboxylate", "Dimethyl 3-oxopentanedioate", "Dimethyl 3-oxoglutarate", "Dimethyl \u03b2-ketoglutarate", "Dimethyl 3-ketoglutarate", "Dimethyl 3-oxo-1,5-pentanedioate", "\u03b2-Oxoglutaric acid dimethyl ester", "Acetone dicarboxylic acid dimethyl ester", "3-Oxopentanedioic acid dimethyl ester", "NSC 4677", "Dimethyl 2-oxopropane-1,3-dicarboxylate", "1,3-Acetonedicarboxylic acid dimethyl ester", "3-Oxoglutaric acid dimethyl ester"], "SMILES": "C(CC(OC)=O)(CC(OC)=O)=O", "physical_data": {"Molecular Weight": "174.15", "Molecular Formula": "C7H10O5", "Boiling Point": "126 \u00b0C @ Press: 11 Torr", "Density": "1.202 g/cm\u00b3 @ Temp: 20 \u00b0C"}}