{"cas_no": "18306-79-1", "cn_name": "\uff083-\u6c28\u57fa\u4e19\u57fa\uff09\u4e8c\u7532\u57fa\u4e59\u6c27\u57fa\u7845\u70f7", "en_name": ["(3-Aminopropyl)dimethylethoxysilane", "1-Propanamine, 3-(ethoxydimethylsilyl)-", "Propylamine, 3-(ethoxydimethylsilyl)-", "3-(Ethoxydimethylsilyl)-1-propanamine", "Dimethyl(\u03b3-aminopropyl)ethoxysilane", "(3-Aminopropyl)dimethylethoxysilane", "(3-Aminopropyl)ethoxydimethylsilane", "(\u03b3-Aminopropyl)dimethylethoxysilane", "(3-(Ethoxydimethylsilyl)propyl)amine", "APDMES", "3-(Ethoxydimethylsilanyl)propylamine", "3-(Ethoxydimethylsilyl)propylamine"], "SMILES": "[Si](CCCN)(OCC)(C)C", "physical_data": {"Molecular Weight": "161.32", "Molecular Formula": "C7H19NOSi", "Boiling Point": "78-79 \u00b0C @ Press: 24 Torr", "Density": "0.857 g/cm\u00b3 @ Temp: 25 \u00b0C"}}