{"cas_no": "183133-96-2", "cn_name": "\u5361\u5df4\u4ed6\u8d5b", "en_name": ["Cabazitaxel", "Benzenepropanoic acid, \u03b2-[[(1,1-dimethylethoxy)carbonyl]amino]-\u03b1-hydroxy-, (2aR,4S,4aS,6R,9S,11S,12S,12aR,12bS)-12b-(acetyloxy)-12-(benzoyloxy)-2a,3,4,4a,5,6,9,10,11,12,12a,12b-dodecahydro-11-hydroxy-4,6-dimethoxy-4a,8,13,13-tetramethyl-5-oxo-7,11-methano-1H-cyclodeca[3,4]benz[1,2-b]oxet-9-yl ester, (\u03b1R,\u03b2S)-", "Benzenepropanoic acid, \u03b2-[[(1,1-dimethylethoxy)carbonyl]amino]-\u03b1-hydroxy-, 12b-(acetyloxy)-12-(benzoyloxy)-2a,3,4,4a,5,6,9,10,11,12,12a,12b-dodecahydro-11-hydroxy-4,6-dimethoxy-4a,8,13,13-tetramethyl-5-oxo-7,11-methano-1H-cyclodeca[3,4]benz[1,2-b]oxet-9-yl ester, [2aR-[2a\u03b1,4\u03b2,4a\u03b2,6\u03b2,9\u03b1(\u03b1R*,\u03b2S*),11\u03b1,12\u03b1,12a\u03b1,12b\u03b1]]-", "TXD 258", "Cabazitaxel", "XRP 6258", "Jevtana", "DEP cabazitaxel"], "SMILES": "O(C(C)=O)C12C3C(OC(=O)C4=CC=CC=C4)C5(O)C(C)(C)C(C(OC)C(=O)C3(C)C(OC)CC1OC2)=C(C)C(OC(C(C(NC(OC(C)(C)C)=O)C6=CC=CC=C6)O)=O)C5", "physical_data": {"Molecular Weight": "835.93", "Molecular Formula": "C45H57NO14", "Melting Point": "227-228 \u00b0C"}}