{"cas_no": "183288-47-3", "cn_name": "5-(1-\u54cc\u55ea\u57fa)\u82ef\u5e76\u544b\u5583-2-\u7fa7\u9178", "en_name": ["5-(1-Piperazinyl)-2-benzofurancarboxylic acid", "2-Benzofurancarboxylic acid, 5-(1-piperazinyl)-", "5-(1-Piperazinyl)-2-benzofurancarboxylic acid", "5-(1-Piperazinyl)benzofuran-2-carboxylic acid"], "SMILES": "C(O)(=O)C1=CC=2C(O1)=CC=C(C2)N3CCNCC3", "physical_data": {"Molecular Weight": "246.26", "Molecular Formula": "C13H14N2O3", "Melting Point": "275-278.2 \u00b0C"}}