{"cas_no": "18328-90-0", "cn_name": "N-\u4e59\u57fa\u7532\u57fa\u4e19\u70ef\u80fa", "en_name": ["N-Ethyl-2-methylallylamine", "2-Propen-1-amine, N-ethyl-2-methyl-", "Allylamine, N-ethyl-2-methyl-", "N-Ethyl-2-methyl-2-propen-1-amine", "N-Ethyl-2-methylallylamine", "N-Ethylmethallylamine", "N-2-Methylallyl-N-ethylamine", "N-Ethyl(2-methyl-2-propenyl)amine"], "SMILES": "C(C(C)=C)NCC", "physical_data": {"Molecular Weight": "99.17", "Molecular Formula": "C6H13N", "Boiling Point": "102 \u00b0C"}}