{"cas_no": "183204-72-0", "cn_name": "\u76d0\u9178\u66ff\u5421\u5627\u5576", "en_name": ["Tipiracil hydrochloride", "2,4(1H,3H)-Pyrimidinedione, 5-chloro-6-[(2-imino-1-pyrrolidinyl)methyl]-, hydrochloride (1:1)", "2,4(1H,3H)-Pyrimidinedione, 5-chloro-6-[(2-imino-1-pyrrolidinyl)methyl]-, monohydrochloride", "TPI hydrochloride", "TAS 1-462", "Tipiracil hydrochloride", "5-Chloro-6-[(2-iminopyrrolidin-1-yl)methyl]pyrimidine-2,4(1H,3H)-dione hydrochloride"], "SMILES": "C(C1=C(Cl)C(=O)NC(=O)N1)N2C(=N)CCC2.Cl", "physical_data": {"Molecular Weight": "", "Molecular Formula": "C9H11ClN4O2.ClH", "Melting Point": "245 \u00b0C (decomp)"}}