{"cas_no": "183208-35-7", "cn_name": "5-\u6eb4-7-\u6c2e\u6742\u5432\u54da", "en_name": ["5-Bromo-1H-pyrrolo[2,3-b]pyridine", "1H-Pyrrolo[2,3-b]pyridine, 5-bromo-", "5-Bromo-1H-pyrrolo[2,3-b]pyridine", "5-Bromo-7-azaindole", "5-Bromo-7H-pyrrolo[2,3-b]pyridine"], "SMILES": "BrC=1C=C2C(=NC1)NC=C2", "physical_data": {"Molecular Weight": "197.03", "Molecular Formula": "C7H5BrN2", "Melting Point": "174-176 \u00b0C"}}