{"cas_no": "183232-66-8", "cn_name": "1-(2,4-\u4e8c\u6c2f\u82ef\u57fa)-5-(4-\u7898\u82ef\u57fa)-4-\u7532\u57fa-N-(\u54cc\u5576-1-\u57fa)-1H-\u5421\u5511-3-\u7532\u9170\u80fa", "en_name": ["1-(2,4-Dichlorophenyl)-5-(4-iodophenyl)-4-methyl-N-1-piperidinyl-1H-pyrazole-3-carboxamide", "1H-Pyrazole-3-carboxamide, 1-(2,4-dichlorophenyl)-5-(4-iodophenyl)-4-methyl-N-1-piperidinyl-", "1-(2,4-Dichlorophenyl)-5-(4-iodophenyl)-4-methyl-N-1-piperidinyl-1H-pyrazole-3-carboxamide", "AM 251", "AM 251 (pharmaceutical)", "1-(2,4-Dichlorophenyl)-5-(4-iodophenyl)-4-methyl-N-piperidin-1-ylpyrazole-3-carboxamide"], "SMILES": "CC1=C(N(N=C1C(NN2CCCCC2)=O)C3=C(Cl)C=C(Cl)C=C3)C4=CC=C(I)C=C4", "physical_data": {"Molecular Weight": "555.24", "Molecular Formula": "C22H21Cl2IN4O", "Melting Point": "195-196 \u00b0C"}}