{"cas_no": "18323-58-5", "cn_name": "4-\u7532\u57fa\u4f1e\u5f62\u916e\u6cb9\u9178\u916f", "en_name": ["4-Methylumbelliferyl oleate", "9-Octadecenoic acid (9Z)-, 4-methyl-2-oxo-2H-1-benzopyran-7-yl ester", "Oleic acid, ester with 7-hydroxy-4-methylcoumarin", "9-Octadecenoic acid (Z)-, 4-methyl-2-oxo-2H-1-benzopyran-7-yl ester", "Coumarin, 7-hydroxy-4-methyl-, oleate", "Oleoyl 4-methylumbelliferone", "4-Methylumbelliferone oleate", "4-Methylumbelliferyl oleate"], "SMILES": "CC=1C=2C(=CC(OC(CCCCCCCC=CCCCCCCCC)=O)=CC2)OC(=O)C1", "physical_data": {"Molecular Weight": "440.61", "Molecular Formula": "C28H40O4", "Melting Point": "59-61 \u00b0C"}}