{"cas_no": "183319-69-9", "cn_name": "\u76d0\u9178\u57c3\u7f57\u66ff\u5c3c", "en_name": ["Erlotinib hydrochloride", "4-Quinazolinamine, N-(3-ethynylphenyl)-6,7-bis(2-methoxyethoxy)-, hydrochloride (1:1)", "4-Quinazolinamine, N-(3-ethynylphenyl)-6,7-bis(2-methoxyethoxy)-, monohydrochloride", "CP 358774", "OSI 774", "Tarceva", "6,7-Bis(2-methoxyethoxy)-4-(3-ethynylanilino)quinazoline hydrochloride", "[6,7-Bis(2-methoxyethoxy)quinazolin-4-yl]-(3-ethynylphenyl)amine hydrochloride", "Erlotinib hydrochloride"], "SMILES": "N(C=1C2=C(C=C(OCCOC)C(OCCOC)=C2)N=CN1)C3=CC(C#C)=CC=C3.Cl", "physical_data": {"Molecular Weight": "", "Molecular Formula": "C22H23N3O4.ClH", "Melting Point": "219-221 \u00b0C"}}