{"cas_no": "183322-45-4", "cn_name": "PD153035 HCl", "en_name": ["4-Quinazolinamine, N-(3-bromophenyl)-6,7-dimethoxy-, hydrochloride (1:1)", "4-Quinazolinamine, N-(3-bromophenyl)-6,7-dimethoxy-, hydrochloride (1:1)", "4-Quinazolinamine, N-(3-bromophenyl)-6,7-dimethoxy-, monohydrochloride", "6,7-Dimethoxy-4-[N-(3-bromophenyl)amino]quinazoline hydrochloride", "PD153035 HCl"], "SMILES": "N(C=1C2=C(C=C(OC)C(OC)=C2)N=CN1)C3=CC(Br)=CC=C3.Cl", "physical_data": {"Molecular Weight": "", "Molecular Formula": "C16H14BrN3O2.ClH", "Melting Point": "256-257.5 \u00b0C"}}