{"cas_no": "1833-53-0", "cn_name": "2-(\u4e09\u7532\u57fa\u7845\u6c27\u57fa)\u4e19\u70ef", "en_name": ["Trimethyl[(1-methylethenyl)oxy]silane", "Silane, trimethyl[(1-methylethenyl)oxy]-", "Silane, (isopropenyloxy)trimethyl-", "Trimethyl[(1-methylethenyl)oxy]silane", "Trimethyl[(1-methylvinyl)oxy]silane", "(Isopropenyloxy)trimethylsilane", "Isopropenyl trimethylsilyl ether", "2-(Trimethylsiloxy)propene", "2-(Trimethylsilyloxy)-1-propene", "2-Trimethylsiloxy-1-propene", "2-(Trimethylsilyloxy)propene", "Acetone trimethylsilyl enol ether", "Trimethyl(prop-1-en-2-yloxy)silane"], "SMILES": "O([Si](C)(C)C)C(C)=C", "physical_data": {"Molecular Weight": "130.26", "Molecular Formula": "C6H14OSi", "Boiling Point": "94-95 \u00b0C", "Melting Point": "40-45 \u00b0C", "Density": "0.786 g/cm\u00b3"}}