{"cas_no": "1833-51-8", "cn_name": "\u4e8c\u7532\u57fa\u6c2f\u7532\u57fa\u82ef\u57fa\u7845\u70f7", "en_name": ["[(Chloromethyl)dimethylsilyl]benzene", "Benzene, [(chloromethyl)dimethylsilyl]-", "Silane, (chloromethyl)dimethylphenyl-", "[(Chloromethyl)dimethylsilyl]benzene", "(Chloromethyl)dimethylphenylsilane", "Phenyldimethyl(chloromethyl)silane", "Chloromethylphenyldimethylsilane", "Dimethylphenylsilylmethyl chloride", "Dimethyl(chloromethyl)phenylsilane", "NSC 155366"], "SMILES": "[Si](CCl)(C)(C)C1=CC=CC=C1", "physical_data": {"Molecular Weight": "184.74", "Molecular Formula": "C9H13ClSi", "Boiling Point": "225 \u00b0C", "Density": "1.031 g/cm\u00b3"}}