{"cas_no": "183322-16-9", "cn_name": "3,4-\u4e8c(2-\u7532\u6c27\u57fa\u4e59\u6c27\u57fa)\u82ef\u7532\u9178\u4e59\u916f", "en_name": ["Benzoic acid, 3,4-bis(2-methoxyethoxy)-, ethyl ester", "Benzoic acid, 3,4-bis(2-methoxyethoxy)-, ethyl ester", "Ethyl 3,4-bis(2-methoxyethoxy)benzoate"], "SMILES": "O(CCOC)C1=C(OCCOC)C=CC(C(OCC)=O)=C1", "physical_data": {"Molecular Weight": "298.33", "Molecular Formula": "C15H22O6", "Melting Point": "55-58 \u00b0C"}}