{"cas_no": "183322-18-1", "cn_name": "4-\u6c2f-6,7-\u4e8c(2-\u7532\u6c27\u57fa\u4e59\u6c27\u57fa)\u55b9\u5511\u5549", "en_name": ["4-Chloro-6,7-bis(2-methoxyethoxy)quinazoline", "Quinazoline, 4-chloro-6,7-bis(2-methoxyethoxy)-", "4-Chloro-6,7-bis(2-methoxyethoxy)quinazoline", "4-Chloro-6,7-di(2-methoxyethoxy)quinazoline", "6,7-Bis(2-methoxyethoxy)-4-chloroquinazoline", "CP 335963"], "SMILES": "ClC=1C2=C(C=C(OCCOC)C(OCCOC)=C2)N=CN1", "physical_data": {"Molecular Weight": "312.75", "Molecular Formula": "C14H17ClN2O4", "Melting Point": "105-107 \u00b0C"}}