{"cas_no": "1833-31-4", "cn_name": "\u82c4\u57fa\u4e8c\u7532\u57fa\u6c2f\u7845\u70f7", "en_name": ["[(Chlorodimethylsilyl)methyl]benzene", "Benzene, [(chlorodimethylsilyl)methyl]-", "Silane, benzylchlorodimethyl-", "Silane, chlorodimethyl(phenylmethyl)-", "[(Chlorodimethylsilyl)methyl]benzene", "Benzyldimethylchlorosilane", "Benzylchlorodimethylsilane", "Benzyldimethylsilyl chloride", "Phenylmethylchlorodimethylsilane"], "SMILES": "C([Si](C)(C)Cl)C1=CC=CC=C1", "physical_data": {"Molecular Weight": "184.74", "Molecular Formula": "C9H13ClSi", "Boiling Point": "75-76 \u00b0C @ Press: 15 Torr", "Density": "0.949 g/cm\u00b3"}}