{"cas_no": "18339-94-1", "cn_name": "1,1-\u4e8c\u7532\u57fa\u7845\u6742-11-\u51a0\u919a-4", "en_name": ["2,2-Dimethyl-1,3,6,9-tetraoxa-2-silacycloundecane", "1,3,6,9-Tetraoxa-2-silacycloundecane, 2,2-dimethyl-", "2,2-Dimethyl-1,3,6,9-tetraoxa-2-silacycloundecane"], "SMILES": "C[Si]1(C)OCCOCCOCCO1", "physical_data": {"Molecular Weight": "206.31", "Molecular Formula": "C8H18O4Si", "Boiling Point": "96 \u00b0C @ Press: 9 Torr", "Density": "1.070 g/cm\u00b3"}}