{"cas_no": "183321-74-6", "cn_name": "\u57c3\u7f57\u66ff\u5c3c", "en_name": ["Erlotinib", "4-Quinazolinamine, N-(3-ethynylphenyl)-6,7-bis(2-methoxyethoxy)-", "N-(3-Ethynylphenyl)-6,7-bis(2-methoxyethoxy)-4-quinazolinamine", "OSI 744", "Erlotinib", "NSC 718781", "R 1415", "4-[(3-Ethynylphenyl)amino]-6,7-bis(2-methoxyethoxy)quinazoline"], "SMILES": "N(C=1C2=C(C=C(OCCOC)C(OCCOC)=C2)N=CN1)C3=CC(C#C)=CC=C3", "physical_data": {"Molecular Weight": "393.44", "Molecular Formula": "C22H23N3O4", "Melting Point": "159-160 \u00b0C"}}