{"cas_no": "18331-34-5", "cn_name": "BTR-1", "en_name": ["3-Ethyl-4-oxo-5-benzylidene-1,3-thiazolidine-2-thione", "4-Thiazolidinone, 3-ethyl-5-(phenylmethylene)-2-thioxo-", "Rhodanine, 5-benzylidene-3-ethyl-", "3-Ethyl-5-(phenylmethylene)-2-thioxo-4-thiazolidinone", "3-Ethyl-4-oxo-5-benzylidene-1,3-thiazolidine-2-thione", "5-Benzal-3-ethylrhodanine", "5-Benzylidene-3-ethylrhodanine", "NK 1077", "3-Ethyl-5-(phenylmethylidene)-2-sulfanylidene-1,3-thiazolidin-4-one"], "SMILES": "C(=C1C(=O)N(CC)C(=S)S1)C2=CC=CC=C2", "physical_data": {"Molecular Weight": "249.35", "Molecular Formula": "C12H11NOS2", "Melting Point": "150 \u00b0C"}}