{"cas_no": "18339-16-7", "cn_name": "\u96c4\u70ef\u916e", "en_name": ["Androstenone", "Androst-16-en-3-one, (5\u03b1)-", "5\u03b1-Androst-16-en-3-one", "Androstenone", "(5\u03b1)-Androst-16-en-3-one", "E 282", "5\u03b1-Androst-16-ene-3-one", "5\u03b1-Androstenone", "16,(5\u03b1)-Androsten-3-one"], "SMILES": "CC12C3C(C4C(C)(CC3)C=CC4)CCC1CC(=O)CC2", "physical_data": {"Molecular Weight": "272.42", "Molecular Formula": "C19H28O", "Melting Point": "102 \u00b0C"}}