{"cas_no": "183428-91-3", "cn_name": "6-AMINO-5-METHYLNICOTINONITRILE", "en_name": ["6-Amino-5-methyl-3-pyridinecarbonitrile", "3-Pyridinecarbonitrile, 6-amino-5-methyl-", "6-Amino-5-methyl-3-pyridinecarbonitrile", "6-Amino-5-methylnicotinonitrile"], "SMILES": "C(#N)C=1C=C(C)C(N)=NC1", "physical_data": {"Molecular Weight": "133.15", "Molecular Formula": "C7H7N3", "Melting Point": "184-188 \u00b0C"}}