{"cas_no": "18355-75-4", "cn_name": "2\uff0c3-\u4e8c\u6c1f\u82ef\u7532\u9178", "en_name": ["2,3-Difluorobenzamide", "Benzamide, 2,3-difluoro-", "2,3-Difluorobenzamide"], "SMILES": "C(N)(=O)C1=C(F)C(F)=CC=C1", "physical_data": {"Molecular Weight": "157.12", "Molecular Formula": "C7H5F2NO", "Melting Point": "110-111 \u00b0C"}}