{"cas_no": "1835-65-0", "cn_name": "3,4,5,6-\u56db\u6c1f\u90bb\u82ef\u4e8c\u8148", "en_name": ["3,4,5,6-Tetrafluoro-1,2-benzenedicarbonitrile", "1,2-Benzenedicarbonitrile, 3,4,5,6-tetrafluoro-", "Phthalonitrile, tetrafluoro-", "3,4,5,6-Tetrafluoro-1,2-benzenedicarbonitrile", "Tetrafluorophthalonitrile", "1,2-Dicyanotetrafluorobenzene", "3,4,5,6-Tetrafluorophthalodinitrile", "3,4,5,6-Tetrafluorophthalonitrile", "1,2-Dicyano-3,4,5,6-tetrafluorobenzene", "3,4,5,6-Tetrafluoro-1,2-dicyanobenzene", "Perfluorophthalonitrile", "Tetrafluoro-1,2-dicyanobenzene"], "SMILES": "C(#N)C1=C(C#N)C(F)=C(F)C(F)=C1F", "physical_data": {"Molecular Weight": "200.09", "Molecular Formula": "C8F4N2", "Melting Point": "83 \u00b0C"}}