{"cas_no": "1835-11-6", "cn_name": "4-\u82c4\u6c27\u57fa-3-\u7532\u6c27\u57fa\u82ef\u4e59\u916e", "en_name": ["1-(4-Benzyloxy-3-methoxyphenyl)ethanone", "Ethanone, 1-[3-methoxy-4-(phenylmethoxy)phenyl]-", "Acetophenone, 4\u2032-(benzyloxy)-3\u2032-methoxy-", "1-[3-Methoxy-4-(phenylmethoxy)phenyl]ethanone", "3\u2032-Methoxy-4\u2032-(benzyloxy)acetophenone", "4\u2032-(Benzyloxy)-3\u2032-methoxyacetophenone", "1-(3-Methoxy-4-phenylmethoxyphenyl)ethanone", "1-(4-Benzyloxy-3-methoxyphenyl)ethanone", "NSC 201234", "Acetovanillone benzyl ether", "1-[4-(Benzyloxy)-3-methoxyphenyl]ethan-1-one"], "SMILES": "O(CC1=CC=CC=C1)C2=C(OC)C=C(C(C)=O)C=C2", "physical_data": {"Molecular Weight": "256.30", "Molecular Formula": "C16H16O3", "Melting Point": "85-87 \u00b0C"}}