{"cas_no": "1835-04-7", "cn_name": "3,4-\u4e8c\u7532\u6c27\u57fa\u82ef\u4e59\u916e", "en_name": ["Propioveratrone", "1-Propanone, 1-(3,4-dimethoxyphenyl)-", "Propiophenone, 3\u2032,4\u2032-dimethoxy-", "1-(3,4-Dimethoxyphenyl)-1-propanone", "Propioveratrone", "3,4-Dimethoxypropiophenone", "3\u2032,4\u2032-Dimethoxypropiophenone", "3,4-Dimethoxyphenyl ethyl ketone", "Ethyl 3,4-dimethoxyphenyl ketone", "NSC 16954", "1,2-Dimethoxy-4-propionylbenzene"], "SMILES": "O(C)C1=C(OC)C=CC(C(CC)=O)=C1", "physical_data": {"Molecular Weight": "194.23", "Molecular Formula": "C11H14O3", "Boiling Point": "168-170 \u00b0C @ Press: 13 Torr", "Melting Point": "59-60 \u00b0C"}}