{"cas_no": "1835-49-0", "cn_name": "\u56db\u6c1f\u5bf9\u82ef\u4e8c\u8148", "en_name": ["Tetrafluoroterephthalonitrile", "1,4-Benzenedicarbonitrile, 2,3,5,6-tetrafluoro-", "Terephthalonitrile, tetrafluoro-", "2,3,5,6-Tetrafluoro-1,4-benzenedicarbonitrile", "Tetrafluoroterephthalonitrile", "Diamond 2031", "1,4-Dicyanotetrafluorobenzene", "2,3,5,6-Tetrafluoroterephthalonitrile", "Tetrafluoroterephthalodinitrile", "2,3,5,6-Tetrafluoro-1,4-benzodinitrile", "1,2,4,5-Tetrafluoro-3,6-dicyanobenzene", "NSC 97007", "1,4-Dicyano-2,3,5,6-tetrafluorobenzene", "2,3,5,6-Tetrafluoro-1,4-dicyanobenzene", "2,3,5,6-Tetrafluorophthalonitrile"], "SMILES": "C(#N)C1=C(F)C(F)=C(C#N)C(F)=C1F", "physical_data": {"Molecular Weight": "200.09", "Molecular Formula": "C8F4N2", "Melting Point": "198 \u00b0C"}}