{"cas_no": "1835-52-5", "cn_name": "DL-\u5929\u95e8\u51ac\u6c28\u9178\u7532\u916f\u76d0\u9178\u76d0", "en_name": ["Aspartic acid, 4-methyl ester, hydrochloride (1:1)", "Aspartic acid, 4-methyl ester, hydrochloride (1:1)", "Aspartic acid, 4-methyl ester, hydrochloride, DL-", "DL-Aspartic acid, 4-methyl ester, hydrochloride", "Aspartic acid, 4-methyl ester, hydrochloride", "\u03b2-Methyl DL-aspartate hydrochloride", "2-Amino-4-methoxy-4-oxobutanoic acid hydrochloride"], "SMILES": "C(C(C(O)=O)N)C(OC)=O.Cl", "physical_data": {"Molecular Weight": "", "Molecular Formula": "C5H9NO4.ClH", "Melting Point": "193-194 \u00b0C"}}