{"cas_no": "1835-14-9", "cn_name": "3-\u7532\u6c27\u57fa-4-\u7f9f\u57fa\u82ef\u4e19\u916e", "en_name": ["Propiovanillone", "1-Propanone, 1-(4-hydroxy-3-methoxyphenyl)-", "Propiophenone, 4\u2032-hydroxy-3\u2032-methoxy-", "1-(4-Hydroxy-3-methoxyphenyl)-1-propanone", "Propioguaiacone", "Propiovanillone", "Guaiacyl-1-propanone", "Ethyl guaiacyl ketone", "Propioguaiacol", "4\u2032-Hydroxy-3\u2032-methoxypropiophenone", "\u03b1-Guaiacyl ethyl ketone", "\u03b1-Guaiacylpropanone", "1-(3-Methoxy-4-hydroxyphenyl)-1-propanone", "1-Propiovanillone", "1-(4-Hydroxy-3-methoxyphenyl)propan-1-one", "NSC 16691", "1-(4-Hydroxy-3-methoxyphenyl)propanone", "1-Hydroxy-2-methoxy-4-propionylbenzene", "1-(4\u2032-Hydroxy-3\u2032-methoxyphenyl)propan-1-one", "4-Hydroxy-3-methoxyphenylpropanone"], "SMILES": "C(CC)(=O)C1=CC(OC)=C(O)C=C1", "physical_data": {"Molecular Weight": "180.20", "Molecular Formula": "C10H12O3", "Boiling Point": "180-185 \u00b0C @ Press: 15 Torr", "Melting Point": "61-62 \u00b0C"}}