{"cas_no": "1836-77-7", "cn_name": "4-\u6c30\u57fa\u56db\u6c22\u5421\u5583", "en_name": ["Chlornitrofen", "Benzene, 1,3,5-trichloro-2-(4-nitrophenoxy)-", "Ether, p-nitrophenyl 2,4,6-trichlorophenyl", "1,3,5-Trichloro-2-(4-nitrophenoxy)benzene", "MC 1478", "2,4,6-Trichlorophenyl 4-nitrophenyl ether", "p-Nitrophenyl 2,4,6-trichlorophenyl ether", "CNP", "2,4,6-Trichlorophenyl p-nitrophenyl ether", "2,4,6-Trichloro-4\u2032-nitrodiphenyl ether", "MO 338", "Chlornitrofen", "CNP 1032", "MC 338", "1-Nitro-4-(2,4,6-trichlorophenoxy)benzene", "2\u2032,4\u2032,6\u2032-Trichloro-4-nitrodiphenyl ether", "4-Nitrophenyl 2,4,6-trichlorophenyl ether"], "SMILES": "O(C1=C(Cl)C=C(Cl)C=C1Cl)C2=CC=C(N(=O)=O)C=C2", "physical_data": {"Molecular Weight": "318.54", "Molecular Formula": "C12H6Cl3NO3", "Boiling Point": "210 \u00b0C @ Press: 6 Torr", "Melting Point": "105.5 \u00b0C"}}