{"cas_no": "18362-51-1", "cn_name": "1,3-\u53cc(4-\u7532\u6c27\u57fa\u82ef)-1,3-\u4e19\u4e8c\u916e", "en_name": ["1,3-Bis(4-methoxyphenyl)-1,3-propanedione", "1,3-Propanedione, 1,3-bis(4-methoxyphenyl)-", "1,3-Propanedione, 1,3-bis(p-methoxyphenyl)-", "1,3-Bis(4-methoxyphenyl)-1,3-propanedione", "1,3-Bis(p-methoxyphenyl)-1,3-propanedione", "(4,4\u2032-Dimethoxydibenzoyl)methane", "Di(p-methoxybenzoyl)methane", "Bis(p-methoxybenzoyl)methane", "p,p\u2032-Dimethoxydibenzoylmethane", "NSC 99046", "1,3-Di(4-methoxyphenyl)-1,3-propanedione", "1,3-Bis(4-methoxyphenyl)-1,3-propandione", "1,3-Bis(4-dimethoxyphenyl)propane-1,3-dione"], "SMILES": "C(CC(=O)C1=CC=C(OC)C=C1)(=O)C2=CC=C(OC)C=C2", "physical_data": {"Molecular Weight": "284.31", "Molecular Formula": "C17H16O4", "Melting Point": "114 \u00b0C"}}