{"cas_no": "18368-64-4", "cn_name": "2-\u6c2f-5-\u7532\u57fa\u5421\u5576", "en_name": ["2-Chloro-5-methylpyridine", "Pyridine, 2-chloro-5-methyl-", "3-Picoline, 6-chloro-", "2-Chloro-5-methylpyridine", "2-Chloro-5-picoline"], "SMILES": "CC=1C=CC(Cl)=NC1", "physical_data": {"Molecular Weight": "127.57", "Molecular Formula": "C6H6ClN", "Boiling Point": "56 \u00b0C @ Press: 2.5 Torr"}}