{"cas_no": "18368-63-3", "cn_name": "2-\u7532\u57fa-6-\u6c2f\u5421\u5576", "en_name": ["2-Chloro-6-methylpyridine", "Pyridine, 2-chloro-6-methyl-", "2-Picoline, 6-chloro-", "2-Chloro-6-methylpyridine", "2-Chloro-6-picoline", "6-Chloro-2-picoline", "6-Methyl-2-chloropyridine", "6-Chloro-2-methylpyridine"], "SMILES": "CC=1N=C(Cl)C=CC1", "physical_data": {"Molecular Weight": "127.57", "Molecular Formula": "C6H6ClN", "Boiling Point": "183.5 \u00b0C", "Density": "1.1506 g/cm\u00b3 @ Temp: 420 \u00b0C"}}