{"cas_no": "18368-76-8", "cn_name": "2-\u6c2f-3-\u7532\u57fa\u5421\u5576", "en_name": ["2-Chloro-3-methylpyridine", "Pyridine, 2-chloro-3-methyl-", "3-Picoline, 2-chloro-", "2-Chloro-3-methylpyridine", "2-Chloro-3-picoline"], "SMILES": "CC1=C(Cl)N=CC=C1", "physical_data": {"Molecular Weight": "127.57", "Molecular Formula": "C6H6ClN", "Boiling Point": "188-191 \u00b0C @ Press: 760 Torr", "Melting Point": "193 \u00b0C"}}