{"cas_no": "183673-70-3", "cn_name": "2,4-\u4e8c\u6c27\u4ee3-1,3,8-\u4e09\u6c2e\u6742\u87ba[4,5]\u7678\u70f7-8-\u7532\u9178\u53d4\u4e01\u916f", "en_name": ["1,1-Dimethylethyl 2,4-dioxo-1,3,8-triazaspiro[4.5]decane-8-carboxylate", "1,3,8-Triazaspiro[4.5]decane-8-carboxylic acid, 2,4-dioxo-, 1,1-dimethylethyl ester", "1,1-Dimethylethyl 2,4-dioxo-1,3,8-triazaspiro[4.5]decane-8-carboxylate", "2,4-Dioxo-1,3,8-triazaspiro[4.5]decane-8-carboxylic acid tert-butyl ester", "2,4-Dioxo-1,3,8-triazaspiro[4.5]decane-8-carboxylic acid tert-butyl ester", "tert-Butyl 2,4-dioxo-1,3,8-triazaspiro[4.5]decane-8-carboxylate", "8-tert-Butoxycarbonyl-1,3,8-triazaspiro[4.5]decane-2,4-dione", "tert-Butyl 2,4-dioxo-1,3,8-triazaspiro[4.5]decan-8-carboxylate"], "SMILES": "O=C1C2(CCN(C(OC(C)(C)C)=O)CC2)NC(=O)N1", "physical_data": {"Molecular Weight": "269.30", "Molecular Formula": "C12H19N3O4", "Melting Point": "233-234 \u00b0C (decomp)"}}