{"cas_no": "1836-62-0", "cn_name": "2-\u7532\u6c27\u57fa\u82ef\u6c27\u57fa\u4e59\u80fa", "en_name": ["2-(2-Methoxyphenoxy)ethanamine", "Ethanamine, 2-(2-methoxyphenoxy)-", "Ethylamine, 2-(o-methoxyphenoxy)-", "2-(2-Methoxyphenoxy)ethanamine", "2-(2-Methoxyphenoxy)ethylamine", "2-(o-Methoxyphenoxy)ethylamine", "Guaiacoxyethylamine", "2-(2-Methoxyphenoxy)ethan-1-amine"], "SMILES": "O(CCN)C1=C(OC)C=CC=C1", "physical_data": {"Molecular Weight": "167.21", "Molecular Formula": "C9H13NO2", "Boiling Point": "139-141 \u00b0C @ Press: 11 Torr"}}