{"cas_no": "18365-42-9", "cn_name": "alpha-\u6c2f\u4ee3\u8089\u6842\u919b", "en_name": ["\u03b1-Chlorocinnamaldehyde", "2-Propenal, 2-chloro-3-phenyl-", "Cinnamaldehyde, \u03b1-chloro-", "2-Chloro-3-phenyl-2-propenal", "\u03b1-Chlorocinnamaldehyde", "2-Chloro-3-phenylacrolein", "2-Chloro-3-phenylpropenal", "2-Chloro-3-phenylacrylaldehyde"], "SMILES": "C(=C(C=O)Cl)C1=CC=CC=C1", "physical_data": {"Molecular Weight": "166.60", "Molecular Formula": "C9H7ClO", "Boiling Point": "132-133 \u00b0C @ Press: 9 Torr", "Melting Point": "32.1 \u00b0C"}}