{"cas_no": "18361-03-0", "cn_name": "2,5-\u4e8c\u7fa7\u9178-3,4-\u4e59\u6491\u4e8c\u6c27\u567b\u5429", "en_name": ["2,3-Dihydrothieno[3,4-b]-1,4-dioxin-5,7-dicarboxylic acid", "Thieno[3,4-b]-1,4-dioxin-5,7-dicarboxylic acid, 2,3-dihydro-", "Thieno[3,4-b]-p-dioxin-5,7-dicarboxylic acid, 2,3-dihydro-", "2,3-Dihydrothieno[3,4-b]-1,4-dioxin-5,7-dicarboxylic acid", "3,4-Ethylenedioxy-2,5-thiophenedicarboxylic acid"], "SMILES": "C(O)(=O)C1=C2C(=C(C(O)=O)S1)OCCO2", "physical_data": {"Molecular Weight": "230.19", "Molecular Formula": "C8H6O6S", "Melting Point": "319.5-321.2 \u00b0C"}}