{"cas_no": "18368-58-6", "cn_name": "2-\u5def\u57fa-5-\u7532\u57fa\u5421\u5576", "en_name": ["5-Methyl-2(1H)-pyridinethione", "2(1H)-Pyridinethione, 5-methyl-", "5-Methyl-2(1H)-pyridinethione", "5-Methyl-2-pyridthione", "5-Methylpyridine-2-thiol", "5-Methyl-2-thiopyridine"], "SMILES": "CC=1C=CC(=S)NC1", "physical_data": {"Molecular Weight": "125.19", "Molecular Formula": "C6H7NS", "Melting Point": "126-128 \u00b0C"}}