{"cas_no": "1836-75-5", "cn_name": "2,4-\u4e8c\u6c2f-4\u2019-\u785d\u57fa\u4e8c\u82ef\u919a", "en_name": ["Nitrofen", "Benzene, 2,4-dichloro-1-(4-nitrophenoxy)-", "Ether, 2,4-dichlorophenyl p-nitrophenyl", "2,4-Dichloro-1-(4-nitrophenoxy)benzene", "2,4-Dichlorophenyl p-nitrophenyl ether", "FW 925", "2,4-Dichloro-4\u2032-nitrodiphenyl ether", "NIP", "Nitrofen", "Nitrophen", "Nitrophene", "TOK E 25", "TOK (ether)", "2,4-Dichlorophenyl 4-nitrophenyl ether", "4-(2,4-Dichlorophenoxy)nitrobenzene", "4-Nitro-2\u2032,4\u2032-dichlorophenyl ether", "4\u2032-Nitro-2,4-dichlorodiphenyl ether", "TOK E", "Niclofen", "Nitrochlor", "Mezotox", "Preparation 125", "TOK E 40", "Nitrofen (pesticide)", "Trizilin", "2\u2032,4\u2032-Dichloro-4-nitrodiphenyl ether", "Trizilin 25", "TOK"], "SMILES": "O(C1=C(Cl)C=C(Cl)C=C1)C2=CC=C(N(=O)=O)C=C2", "physical_data": {"Molecular Weight": "284.09", "Molecular Formula": "C12H7Cl2NO3", "Boiling Point": "180-190 \u00b0C @ Press: 0.25 Torr", "Melting Point": "70-71 \u00b0C", "Density": "1.33 g/cm\u00b3 @ Temp: 90 \u00b0C"}}