{"cas_no": "1836-06-2", "cn_name": "3-\u6eb4-4-\u7f9f\u57fa\u82ef\u4e59\u916e", "en_name": ["1-(3-Bromo-4-hydroxyphenyl)ethanone", "Ethanone, 1-(3-bromo-4-hydroxyphenyl)-", "Acetophenone, 3\u2032-bromo-4\u2032-hydroxy-", "1-(3-Bromo-4-hydroxyphenyl)ethanone", "3\u2032-Bromo-4\u2032-hydroxyacetophenone", "1-(3-Bromo-4-hydroxyphenyl)ethan-1-one"], "SMILES": "C(C)(=O)C1=CC(Br)=C(O)C=C1", "physical_data": {"Molecular Weight": "215.04", "Molecular Formula": "C8H7BrO2", "Melting Point": "112 \u00b0C"}}