{"cas_no": "18368-61-1", "cn_name": "2-\u7532\u57fa-6-\u785d\u57fa\u5421\u5576", "en_name": ["2-Methyl-6-nitropyridine", "Pyridine, 2-methyl-6-nitro-", "2-Picoline, 6-nitro-", "2-Methyl-6-nitropyridine", "2-Nitro-6-picoline", "NSC 170845"], "SMILES": "N(=O)(=O)C=1N=C(C)C=CC1", "physical_data": {"Molecular Weight": "138.12", "Molecular Formula": "C6H6N2O2", "Melting Point": "113-114 \u00b0C"}}