{"cas_no": "1836-74-4", "cn_name": "1-(4-\u6c2f\u82ef\u6c27\u57fa)-4-\u785d\u57fa\u82ef", "en_name": ["1-Chloro-4-(4-nitrophenoxy)benzene", "Benzene, 1-chloro-4-(4-nitrophenoxy)-", "Ether, p-chlorophenyl p-nitrophenyl", "1-Chloro-4-(4-nitrophenoxy)benzene", "p-Chlorophenyl p-nitrophenyl ether", "4-Chloro-4\u2032-nitrodiphenyl ether", "4-Chlorophenyl 4-nitrophenyl ether", "4\u2032-Chloro-4-nitrodiphenyl ether", "4-(4-Chlorophenoxy)nitrobenzene", "NSC 12989", "1-(4-Chlorophenoxy)-4-nitrobenzene", "4-Chloro-(4-nitrophenoxy)benzene"], "SMILES": "O(C1=CC=C(N(=O)=O)C=C1)C2=CC=C(Cl)C=C2", "physical_data": {"Molecular Weight": "249.65", "Molecular Formula": "C12H8ClNO3", "Melting Point": "76.5 \u00b0C"}}