{"cas_no": "18362-64-6", "cn_name": "2,6-\u4e8c\u7532\u57fa-3,5-\u5e9a\u4e8c\u916e", "en_name": ["2,6-Dimethyl-3,5-heptanedione", "3,5-Heptanedione, 2,6-dimethyl-", "2,6-Dimethyl-3,5-heptanedione", "Diisobutyrylmethane", "Di-iso-butyrylmethane", "2,6-Dimethyl-3,5-dioxoheptane", "1,3-Diisopropyl-1,3-propanedione"], "SMILES": "C(CC(C(C)C)=O)(C(C)C)=O", "physical_data": {"Molecular Weight": "156.22", "Molecular Formula": "C9H16O2", "Boiling Point": "75-77 \u00b0C @ Press: 7 Torr"}}