{"cas_no": "18368-71-3", "cn_name": "4-\u7532\u57fa-2-\u785d\u57fa\u5421\u5576", "en_name": ["4-Methyl-2-nitropyridine", "Pyridine, 4-methyl-2-nitro-", "4-Picoline, 2-nitro-", "4-Methyl-2-nitropyridine", "2-Nitro-4-picoline", "NSC 170562"], "SMILES": "N(=O)(=O)C1=CC(C)=CC=N1", "physical_data": {"Molecular Weight": "138.12", "Molecular Formula": "C6H6N2O2", "Melting Point": "61-62 \u00b0C"}}