{"cas_no": "1837-91-8", "cn_name": "1,2,3,4,5,6-\u516d\u6eb4\u5316\u73af\u5df1\u70f7", "en_name": ["1,2,3,4,5,6-Hexabromocyclohexane", "Cyclohexane, 1,2,3,4,5,6-hexabromo-", "1,2,3,4,5,6-Hexabromocyclohexane", "Benzene hexabromide", "NSC 7908", "BRD-K 06817181", "BRD-K 06817181-001-02-3"], "SMILES": "BrC1C(Br)C(Br)C(Br)C(Br)C1Br", "physical_data": {"Molecular Weight": "557.54", "Molecular Formula": "C6H6Br6", "Melting Point": "222 \u00b0C"}}