{"cas_no": "18379-25-4", "cn_name": "\u5f02\u8f9b\u57fa\u4e09\u6c2f\u7845\u70f7", "en_name": ["Trichloro(2,4,4-trimethylpentyl)silane", "Silane, trichloro(2,4,4-trimethylpentyl)-", "Trichloro(2,4,4-trimethylpentyl)silane"], "SMILES": "C(C(C)(C)C)C(C[Si](Cl)(Cl)Cl)C", "physical_data": {"Molecular Weight": "247.67", "Molecular Formula": "C8H17Cl3Si", "Boiling Point": "40 \u00b0C @ Press: 2 Torr"}}