{"cas_no": "18378-20-6", "cn_name": "4-\u82c4\u6c28\u57fa-7-\u785d\u57fa\u82ef\u5e76-2-\u6c27\u6742-1,3-\u4e8c\u5511", "en_name": ["7-Benzylamino-4-nitro-2,1,3-benzoxadiazole", "2,1,3-Benzoxadiazol-4-amine, 7-nitro-N-(phenylmethyl)-", "Benzofurazan, 4-(benzylamino)-7-nitro-", "4-Benzofurazanamine, 7-nitro-N-(phenylmethyl)-", "7-Nitro-N-(phenylmethyl)-2,1,3-benzoxadiazol-4-amine", "7-Benzylamino-4-nitro-2,1,3-benzoxadiazole", "NSC 240867", "N-Benzyl-7-nitrobenzo[c][1,2,5]oxadiazol-4-amine"], "SMILES": "N(=O)(=O)C=1C=2C(C(NCC3=CC=CC=C3)=CC1)=NON2", "physical_data": {"Molecular Weight": "270.24", "Molecular Formula": "C13H10N4O3", "Melting Point": "214-215 \u00b0C"}}