{"cas_no": "183718-77-6", "cn_name": "N-(4-HYDROXYPHENYL)-ARACHIDONYLAMIDE", "en_name": ["(5Z,8Z,11Z,14Z)-N-(4-Hydroxyphenyl)-5,8,11,14-eicosatetraenamide", "5,8,11,14-Eicosatetraenamide, N-(4-hydroxyphenyl)-, (5Z,8Z,11Z,14Z)-", "5,8,11,14-Eicosatetraenamide, N-(4-hydroxyphenyl)-, (all-Z)-", "(5Z,8Z,11Z,14Z)-N-(4-Hydroxyphenyl)-5,8,11,14-eicosatetraenamide", "AM 404"], "SMILES": "N(C(CCCC=CCC=CCC=CCC=CCCCCC)=O)C1=CC=C(O)C=C1", "physical_data": {"Molecular Weight": "395.58", "Molecular Formula": "C26H37NO2", "Melting Point": "51-52 \u00b0C"}}