{"cas_no": "18378-89-7", "cn_name": "\u5149\u8f89\u9709\u7d20", "en_name": ["Mithramycin", "D-threo-2-Pentulose, 5-deoxy-1-C-[(2S,3S)-7-[[2,6-dideoxy-3-O-(2,6-dideoxy-\u03b2-D-arabino-hexopyranosyl)-\u03b2-D-arabino-hexopyranosyl]oxy]-3-[(O-2,6-dideoxy-3-C-methyl-\u03b2-D-ribo-hexopyranosyl-(1\u21923)-O-2,6-dideoxy-\u03b2-D-lyxo-hexopyranosyl-(1\u21923)-2,6-dideoxy-\u03b2-D-arabino-hexopyranosyl)oxy]-1,2,3,4-tetrahydro-5,10-dihydroxy-6-methyl-4-oxo-2-anthracenyl]-1-O-methyl-, (1S)-", "Mithramycin", "NSC 24559", "Antibiotic LA 7017", "Aureolic acid", "Mitramycin", "Mithracin", "[1S(2S,3S)]-5-Deoxy-1-C-[7-[[2,6-dideoxy-3-O-(2,6-dideoxy-\u03b2-D-arabino-hexopyranosyl)-\u03b2-D-arabino-hexopyranosyl]oxy]-3-[(O-2,6-dideoxy-3-C-methyl-\u03b2-D-ribo-hexopyranosyl-(1\u21923)-O-2,6-dideoxy-\u03b2-D-arabino-hexopyranosyl-(1\u21923)-2,6-dideoxy-\u03b2-D-lyxo-hexopyranosyl)oxy]-1,2,3,4-tetrahydro-5,10-dihydroxy-6-methyl-4-oxo-2-anthracenyl]-1-O-methyl-D-threo-2-pentulose", "Plicamycin", "Plicatomycin", "PA 144", "A 2371", "Mithramycin A"], "SMILES": "O=C1C=2C(CC(C(C(C(C(C)O)O)=O)OC)C1OC3CC(OC4CC(OC5CC(C)(O)C(O)C(C)O5)C(O)C(C)O4)C(O)C(C)O3)=CC=6C(C2O)=C(O)C(C)=C(OC7CC(OC8CC(O)C(O)C(C)O8)C(O)C(C)O7)C6", "physical_data": {"Molecular Weight": "1085.15", "Molecular Formula": "C52H76O24", "Melting Point": "180-183 \u00b0C"}}