{"cas_no": "1838-94-4", "cn_name": "\u4e00\u6c27\u5316\u5f02\u620a\u4e8c\u70ef", "en_name": ["2-Methyl-2-vinyloxirane", "Oxirane, 2-ethenyl-2-methyl-", "1-Butene, 3,4-epoxy-3-methyl-", "2-Ethenyl-2-methyloxirane", "3,4-Epoxy-3-methyl-1-butene", "3-Methyl-3,4-oxido-1-butene", "Isoprene epoxide", "1,2-Epoxy-2-methyl-3-butene", "2-Methyl-2-vinyloxirane", "2-Methyl-2-vinyloxacyclopropane", "2-Vinylpropylene oxide", "2-Methyl-2-vinylepoxide", "NSC 48598", "Isoprene oxide"], "SMILES": "C(=C)C1(C)CO1", "physical_data": {"Molecular Weight": "84.12", "Molecular Formula": "C5H8O", "Boiling Point": "78.5-79 \u00b0C", "Density": "0.8547 g/cm\u00b3 @ Temp: 20 \u00b0C"}}