{"cas_no": "18389-46-3", "cn_name": "3-\u6c28\u57fa-3-(2-\u567b\u5429\u57fa)\u4e19\u9178", "en_name": ["\u03b2-Amino-2-thiophenepropanoic acid", "2-Thiophenepropanoic acid, \u03b2-amino-", "2-Thiophenepropionic acid, \u03b2-amino-, DL-", "2-Thiophenepropanoic acid, \u03b2-amino-, (\u00b1)-", "\u03b2-Amino-2-thiophenepropanoic acid", "\u03b2-(2-Thienyl)-DL-\u03b2-alanine", "2-Thiophenepropionic acid, \u03b2-amino-", "NSC 67429", "(RS)-3-Amino-3-(2-thienyl)propanoic acid", "3-Amino-3-(2-thienyl)propionic Acid", "3-Amino-3-thien-2-ylpropanoic acid", "3-Amino-3-(thiophen-2-yl)propanoicacid", "3-Amino-3-(thiophen-2-yl)propanoic acid", "3-Amino-3-thiophen-2-ylpropanoic acid"], "SMILES": "C(CC(O)=O)(N)C1=CC=CS1", "physical_data": {"Molecular Weight": "171.22", "Molecular Formula": "C7H9NO2S", "Melting Point": "201-203 \u00b0C"}}