{"cas_no": "1838-59-1", "cn_name": "\u7532\u9178\u70ef\u4e19\u916f", "en_name": ["Allyl formate", "Formic acid, 2-propen-1-yl ester", "Formic acid, allyl ester", "Formic acid, 2-propenyl ester", "Allyl alcohol, formate", "Allyl formate", "NSC 4735", "2-Propenyl ester formic acid", "3-Formyloxy-propene"], "SMILES": "C(OC=O)C=C", "physical_data": {"Molecular Weight": "86.09", "Molecular Formula": "C4H6O2", "Boiling Point": "83.6 \u00b0C"}}