{"cas_no": "18381-45-8", "cn_name": "3-\u6c30\u57fa\u4e19\u919b\u4e8c\u4e59\u57fa\u7f29\u919b", "en_name": ["4,4-Diethoxybutanenitrile", "Butanenitrile, 4,4-diethoxy-", "Succinaldehydonitrile, diethyl acetal", "Propionaldehyde, 3-cyano-, diethyl acetal", "4,4-Diethoxybutanenitrile", "4,4-Diethoxybutyronitrile", "3-Cyanopropionaldehyde diethyl acetal"], "SMILES": "C(CCC#N)(OCC)OCC", "physical_data": {"Molecular Weight": "157.21", "Molecular Formula": "C8H15NO2", "Boiling Point": "104-106 \u00b0C", "Density": "0.947 g/cm\u00b3 @ Temp: 25 \u00b0C"}}