{"cas_no": "183802-98-4", "cn_name": "5-\u6eb4-2-\u6c2f\u82ef\u915a", "en_name": ["5-Bromo-2-chlorophenol", "Phenol, 5-bromo-2-chloro-", "5-Bromo-2-chlorophenol", "3-Bromo-6-chlorophenol"], "SMILES": "OC1=C(Cl)C=CC(Br)=C1", "physical_data": {"Molecular Weight": "207.45", "Molecular Formula": "C6H4BrClO", "Boiling Point": "230-234 \u00b0C @ Press: 744 Torr", "Melting Point": "57 \u00b0C"}}