{"cas_no": "1838-39-7", "cn_name": "N-\u4e59\u9178\u4e59\u916f-4-\u54cc\u5576\u7532\u9178\u4e59\u916f", "en_name": ["Ethyl 4-(ethoxycarbonyl)-1-piperidineacetate", "1-Piperidineacetic acid, 4-(ethoxycarbonyl)-, ethyl ester", "1-Piperidineacetic acid, 4-carboxy-, diethyl ester", "Ethyl 4-(ethoxycarbonyl)-1-piperidineacetate", "1-Carbethoxymethyl-4-carbethoxypiperidine", "1-Carboethoxymethyl-4-carboethoxypiperidine", "NSC 100756"], "SMILES": "C(C(OCC)=O)N1CCC(C(OCC)=O)CC1", "physical_data": {"Molecular Weight": "243.30", "Molecular Formula": "C12H21NO4", "Boiling Point": "101-103 \u00b0C", "Density": "1.057 g/cm\u00b3 @ Temp: 15 \u00b0C"}}