{"cas_no": "18388-16-4", "cn_name": "\u73af\u5df1\u57fa\u7532\u57fa\u4e09\u6c2f\u7845\u70f7", "en_name": ["[(Trichlorosilyl)methyl]cyclohexane", "Cyclohexane, [(trichlorosilyl)methyl]-", "Silane, trichloro(cyclohexylmethyl)-", "[(Trichlorosilyl)methyl]cyclohexane", "(Cyclohexylmethyl)trichlorosilane"], "SMILES": "C([Si](Cl)(Cl)Cl)C1CCCCC1", "physical_data": {"Molecular Weight": "231.62", "Molecular Formula": "C7H13Cl3Si", "Boiling Point": "94-98 \u00b0C @ Press: 11 Torr", "Density": "1.1765 g/cm\u00b3 @ Temp: 20 \u00b0C"}}