{"cas_no": "1838-08-0", "cn_name": "\u8f9b\u80fa\u76d0\u9178\u76d0", "en_name": ["Octadecylammonium chloride", "1-Octadecanamine, hydrochloride (1:1)", "Octadecylamine, hydrochloride", "1-Octadecanamine, hydrochloride", "Octadecylammonium chloride", "Stearylamine hydrochloride", "Farmin R 86H", "1-Aminooctadecane hydrochloride", "n-Octadecylamine hydrochloride", "Stearylammonium chloride", "n-Octadecanylamine hydrochloride"], "SMILES": "C(CCCCCCCCC)CCCCCCCCN.Cl", "physical_data": {"Molecular Weight": "", "Molecular Formula": "C18H39N.ClH", "Melting Point": "162-163 \u00b0C"}}