{"cas_no": "1839-17-4", "cn_name": "3-\u6c28\u57fa-4-(\u7532\u57fa\u6c28\u57fa)\u5421\u5576", "en_name": ["N4-Methyl-3,4-pyridinediamine", "3,4-Pyridinediamine, N4-methyl-", "Pyridine, 3-amino-4-(methylamino)-", "N4-Methyl-3,4-pyridinediamine", "4-(Methylamino)-3-aminopyridine", "3-Amino-4-(methylamino)pyridine", "4-(Methylamino)-3-pyridineamine"], "SMILES": "N(C)C=1C(N)=CN=CC1", "physical_data": {"Molecular Weight": "123.16", "Molecular Formula": "C6H9N3", "Melting Point": "169 \u00b0C"}}