{"cas_no": "1839-63-0", "cn_name": "\u516d\u6c2b\u3010\u8349(\u4e4b\u4e0a)+\u7c73\u3011", "en_name": ["1,3,5-Trimethylcyclohexane", "Cyclohexane, 1,3,5-trimethyl-", "1,3,5-Trimethylcyclohexane"], "SMILES": "CC1CC(C)CC(C)C1", "physical_data": {"Molecular Weight": "126.24", "Molecular Formula": "C9H18", "Boiling Point": "137.5 \u00b0C", "Density": "0.772 g/cm\u00b3 @ Temp: 20 \u00b0C"}}