{"cas_no": "18395-90-9", "cn_name": "\u4e8c\u53d4\u4e01\u57fa\u6c2f\u7845\u70f7", "en_name": ["Dichlorobis(1,1-dimethylethyl)silane", "Silane, dichlorobis(1,1-dimethylethyl)-", "Silane, di-tert-butyldichloro-", "Dichlorobis(1,1-dimethylethyl)silane", "Di-tert-butyldichlorosilane", "Dichloro-di-tert-butylsilane"], "SMILES": "[Si](C(C)(C)C)(C(C)(C)C)(Cl)Cl", "physical_data": {"Molecular Weight": "213.22", "Molecular Formula": "C8H18Cl2Si", "Boiling Point": "190-191 \u00b0C", "Melting Point": "-15 \u00b0C", "Density": "1.009 g/cm\u00b3"}}