{"cas_no": "1839-18-5", "cn_name": "2-\u6c2f-6-\u6c28\u57fa\u560c\u5464", "en_name": ["2-Chloroadenine", "9H-Purin-6-amine, 2-chloro-", "Adenine, 2-chloro-", "1H-Purin-6-amine, 2-chloro-", "2-Chloro-9H-purin-6-amine", "2-Chloroadenine", "6-Amino-2-chloropurine", "SQ 22982", "2-Chloro-6-aminopurine", "NSC 7362", "6-Amino-2-chloro-9H-purine", "2-Chloro-1H-purin-6-amine", "2-Chloro-7H-purin-6-amine"], "SMILES": "NC1=C2C(=NC(Cl)=N1)N=CN2", "physical_data": {"Molecular Weight": "169.57", "Molecular Formula": "C5H4ClN5", "Melting Point": "&gt;300 \u00b0C"}}