{"cas_no": "18395-93-2", "cn_name": "\u5e9a\u57fa\u7532\u57fa\u4e8c\u6c2f\u7845\u70f7", "en_name": ["Heptylmethyldichlorosilane", "Silane, dichloroheptylmethyl-", "Dichloroheptylmethylsilane", "Heptylmethyldichlorosilane", "Dichloro(heptyl)methylsilane"], "SMILES": "C(CCCCCC)[Si](C)(Cl)Cl", "physical_data": {"Molecular Weight": "213.22", "Molecular Formula": "C8H18Cl2Si", "Boiling Point": "207.5 \u00b0C @ Press: 750 Torr", "Density": "0.9780 g/cm\u00b3 @ Temp: 25 \u00b0C"}}