{"cas_no": "18390-00-6", "cn_name": "3-\u6c27\u4ee3-2-\u82ef\u57fa-4,4,5,5-\u56db\u7532\u57fa\u54aa\u5511\u5549-1-\u6c27", "en_name": ["2-Phenyl-4,4,5,5-tetramethylimidazoline-1-oxyl 3-oxide", "1H-Imidazol-1-yloxy, 4,5-dihydro-4,4,5,5-tetramethyl-2-phenyl-, 3-oxide", "2-Imidazolin-1-yloxy, 4,4,5,5-tetramethyl-2-phenyl-, 3-oxide", "4,5-Dihydro-4,4,5,5-tetramethyl-2-phenyl-1H-imidazol-1-oxy 3-oxide", "\u03b1-Phenyltetramethylnitronyl nitroxide", "PTIO", "2-Phenyl-4,4,5,5-tetramethyl-4,5-dihydro-1H-imidazolyl-1-oxy 3-oxide", "2-Phenyl-4,4,5,5-tetramethylimidazoline-1-oxyl 3-oxide", "2-Phenyl-4,4,5,5-tetramethyl-4,5-dihydro-1H-imidazolyl-1-oxyl 3-N-oxide"], "SMILES": "CC1(C)C(C)(C)N(=O)=C(N1[O])C2=CC=CC=C2", "physical_data": {"Molecular Weight": "", "Molecular Formula": "C13H17N2O2", "Melting Point": "139-145 \u00b0C"}}