{"cas_no": "18395-30-7", "cn_name": "\u5f02\u4e01\u57fa\u4e09\u7532\u6c27\u57fa\u7845\u70f7", "en_name": ["Isobutyltrimethoxysilane", "Silane, trimethoxy(2-methylpropyl)-", "Silane, isobutyltrimethoxy-", "Trimethoxy(2-methylpropyl)silane", "Isobutyltrimethoxysilane", "Dynasylan BSM 40", "Prosil 178", "Dynasylan BSM 40N", "SS 1120", "Dynasylan IBT-MO", "Silquest I 7810", "Z 2306", "AY 43-048", "Isobutyltrimethoxylsilane", "OFS 2306", "Sil-Act ATS 100", "Xiameter OFS 2306", "CG 8430"], "SMILES": "[Si](CC(C)C)(OC)(OC)OC", "physical_data": {"Molecular Weight": "178.30", "Molecular Formula": "C7H18O3Si", "Boiling Point": "154 \u00b0C", "Density": "0.933 g/cm\u00b3"}}