{"cas_no": "18409-17-1", "cn_name": "\u53cd\u5f0f-2-\u8f9b\u70ef-1-\u9187", "en_name": ["(E)-2-Octen-1-ol", "2-Octen-1-ol, (2E)-", "2-Octen-1-ol, (E)-", "(2E)-2-Octen-1-ol", "trans-2-Octenol", "trans-2-Octen-1-ol", "n-Oct-trans-2-en-1-ol", "(E)-2-Octenol", "(E)-2-Octen-1-ol", "(2E)-Oct-2-en-1-ol"], "SMILES": "C(CCCC)C=CCO", "physical_data": {"Molecular Weight": "128.21", "Molecular Formula": "C8H16O", "Boiling Point": "70.5-70.7 \u00b0C @ Press: 10 Torr", "Density": "0.8435 g/cm\u00b3 @ Temp: 20 \u00b0C"}}