{"cas_no": "18402-83-0", "cn_name": "3-\u58ec\u70ef-2-\u916e", "en_name": ["(E)-3-Nonen-2-one", "3-Nonen-2-one, (3E)-", "3-Nonen-2-one, (E)-", "(3E)-3-Nonen-2-one", "(E)-3-Nonen-2-one", "trans-3-Nonen-2-one", "(E)-3-Nonen-2-one", "(3E)-Non-3-en-2-one"], "SMILES": "C(CCCCC)=CC(C)=O", "physical_data": {"Molecular Weight": "140.22", "Molecular Formula": "C9H16O", "Boiling Point": "92 \u00b0C @ Press: 19 Torr", "Melting Point": "70-75 \u00b0C"}}