{"cas_no": "18406-41-2", "cn_name": "1,2-\u53cc\u4e09\u7532\u6c27\u57fa\u7845\u57fa\u4e59\u70f7", "en_name": ["1,2-Bis(trimethoxysilyl)ethane", "2,7-Dioxa-3,6-disilaoctane, 3,3,6,6-tetramethoxy-", "1,4-Disilabutane, 1,1,1,4,4,4-hexamethoxy-", "3,3,6,6-Tetramethoxy-2,7-dioxa-3,6-disilaoctane", "1,2-Bis(trimethoxysilyl)ethane", "1,2-Ethylenebis(trimethoxysilane)", "Ethylenebis[trimethoxysilane]", "XC 95A7405", "26M", "KBM 3026", "LMD 26M", "1,1,1,4,4,4-Hexamethoxy-1,4-disilabutane", "1,2-Di(trimethoxysilyl) ethane", "1,2-(Trimethoxysilyl)ethane"], "SMILES": "[Si](CC[Si](OC)(OC)OC)(OC)(OC)OC", "physical_data": {"Molecular Weight": "270.43", "Molecular Formula": "C8H22O6Si2", "Boiling Point": "103-104 \u00b0C @ Press: 5 Torr", "Density": "1.068 g/cm\u00b3"}}