{"cas_no": "18401-43-9", "cn_name": "\u4e8c\u73af[2.2.1]-5-\u5e9a\u70ef-2-\u57fa\u4e09\u4e59\u6c27\u57fa\u7845\u70f7", "en_name": ["5-Triethoxysilyl-2-norbornene", "Bicyclo[2.2.1]hept-2-ene, 5-(triethoxysilyl)-", "Silane, triethoxy-5-norbornen-2-yl-", "Silane, bicyclo[2.2.1]hept-5-en-2-yltriethoxy-", "5-(Triethoxysilyl)bicyclo[2.2.1]hept-2-ene", "5-(Triethoxysilyl)norbornene", "5-Triethoxysilyl-2-norbornene", "SIB 0992", "2-(Triethoxysilyl)bicyclo[2.2.1]hept-5-ene", "5-Triethoxysilylbicyclo[2.2.1]hept-2-ene", "LS 5080", "(Bicyclo[2.2.1]hept-5-en-2-yl)triethoxysilane"], "SMILES": "[Si](OCC)(OCC)(OCC)C1C2CC(C1)C=C2", "physical_data": {"Molecular Weight": "256.41", "Molecular Formula": "C13H24O3Si", "Boiling Point": "106-108 \u00b0C @ Press: 8 Torr", "Density": "0.960 g/cm\u00b3"}}