{"cas_no": "18407-94-8", "cn_name": "\u56db\u4e59\u6c27\u57fa\u4e59\u57fa\u539f\u7845\u9178", "en_name": ["Silicic acid (H4SiO4) tetrakis(2-ethoxyethyl) ester", "Silicic acid (H4SiO4), tetrakis(2-ethoxyethyl) ester", "Ethanol, 2-ethoxy-, tetraester with silicic acid (H4SiO4)", "Ethanol, 2-ethoxy-, silicate", "Silicic acid (H4SiO4) tetrakis(2-ethoxyethyl) ester", "2-Ethoxyethyl silicate", "Tetraethoxyethyl orthosilicate", "Tetrakis(2-ethoxyethyl) silicate", "Tetrakis(ethoxyethoxy)silane", "Tetrakis(2-ethoxyethoxy)silane"], "SMILES": "[Si](OCCOCC)(OCCOCC)(OCCOCC)OCCOCC", "physical_data": {"Molecular Weight": "384.54", "Molecular Formula": "C16H36O8Si", "Boiling Point": "200 \u00b0C @ Press: 0.1 Torr", "Density": "1.020 g/cm\u00b3"}}