{"cas_no": "18402-22-7", "cn_name": "\u5341\u56db\u70f7\u57fa\u4e09\u6c2f\u7845\u70f7", "en_name": ["Trichlorotetradecylsilane", "Silane, trichlorotetradecyl-", "Trichlorotetradecylsilane", "Tetradecyltrichlorosilane", "NSC 136541", "n-Tetradecyltrichlorosilane"], "SMILES": "C(CCCCCCCCCCC)CC[Si](Cl)(Cl)Cl", "physical_data": {"Molecular Weight": "331.82", "Molecular Formula": "C14H29Cl3Si", "Boiling Point": "156 \u00b0C @ Press: 3 Torr"}}