{"cas_no": "18407-07-3", "cn_name": "\u7532\u57fa\u5341\u4e8c\u70f7\u57fa\u4e8c\u6c2f\u7845\u70f7", "en_name": ["(Dodecyl)(methyl)dichlorosilane", "Silane, dichlorododecylmethyl-", "Dichlorododecylmethylsilane", "Dichloro(dodecyl)methylsilane", "(Dodecyl)(methyl)dichlorosilane"], "SMILES": "C(CCCCCCCCC)CC[Si](C)(Cl)Cl", "physical_data": {"Molecular Weight": "283.35", "Molecular Formula": "C13H28Cl2Si", "Boiling Point": "124-127 \u00b0C @ Press: 3 Torr", "Density": "0.955 g/cm\u00b3"}}