{"cas_no": "1841-19-6", "cn_name": "\u5e15\u7f57\u897f\u6c40 \u6742\u8d28C", "en_name": ["Fluspirilene", "1,3,8-Triazaspiro[4.5]decan-4-one, 8-[4,4-bis(4-fluorophenyl)butyl]-1-phenyl-", "1,3,8-Triazaspiro[4.5]decan-4-one, 8-[4,4-bis(p-fluorophenyl)butyl]-1-phenyl-", "8-[4,4-Bis(4-fluorophenyl)butyl]-1-phenyl-1,3,8-triazaspiro[4.5]decan-4-one", "8-[4,4-Bis(p-fluorophenyl)butyl]-1-phenyl-1,3,8-triazaspiro[4,5]decan-4-one", "Fluspirilene", "Imap", "Fluspiriline", "McN-JR 6218", "R 6218", "Fluspirilen", "Redeptin", "ZINC 00537755"], "SMILES": "O=C1C2(N(CN1)C3=CC=CC=C3)CCN(CCCC(C4=CC=C(F)C=C4)C5=CC=C(F)C=C5)CC2", "physical_data": {"Molecular Weight": "475.57", "Molecular Formula": "C29H31F2N3O", "Melting Point": "187.5-190 \u00b0C"}}