{"cas_no": "1841-58-3", "cn_name": "3-\u6c1f\u4e8c\u82ef-4-\u7fa7\u9178", "en_name": ["3\u2032-Fluoro[1,1\u2032-biphenyl]-4-carboxylic acid", "[1,1\u2032-Biphenyl]-4-carboxylic acid, 3\u2032-fluoro-", "4-Biphenylcarboxylic acid, 3\u2032-fluoro-", "3\u2032-Fluoro[1,1\u2032-biphenyl]-4-carboxylic acid", "3\u2032-Fluorobiphenyl-4-carboxylic acid"], "SMILES": "FC=1C=C(C2=CC=C(C(O)=O)C=C2)C=CC1", "physical_data": {"Molecular Weight": "216.21", "Molecular Formula": "C13H9FO2", "Melting Point": "244.1-246.1 \u00b0C", "Density": "1.42 g/cm\u00b3"}}