{"cas_no": "18419-53-9", "cn_name": "\u4e8c\u82ef\u57fa\u4e59\u70ef\u57fa\u6c2f\u7845\u70f7", "en_name": ["1,1\u2032-(Chloroethenylsilylene)bis[benzene]", "Benzene, 1,1\u2032-(chloroethenylsilylene)bis-", "Silane, chlorodiphenylvinyl-", "Silane, chloroethenyldiphenyl-", "1,1\u2032-(Chloroethenylsilylene)bis[benzene]", "Chlorodiphenylvinylsilane", "Diphenyl(vinyl)silyl chloride", "Vinyldiphenylchlorosilane", "NSC 139835", "Diphenyl(vinyl)chlorosilane"], "SMILES": "[Si](C=C)(Cl)(C1=CC=CC=C1)C2=CC=CC=C2", "physical_data": {"Molecular Weight": "244.79", "Molecular Formula": "C14H13ClSi", "Boiling Point": "125 \u00b0C @ Press: 0.5 Torr", "Density": "1.104 g/cm\u00b3"}}