{"cas_no": "1841-57-2", "cn_name": "4'-\u6c1f-2-\u8054\u82ef\u7532\u9178", "en_name": ["4\u2032-Fluoro[1,1\u2032-biphenyl]-2-carboxylic acid", "[1,1\u2032-Biphenyl]-2-carboxylic acid, 4\u2032-fluoro-", "2-Biphenylcarboxylic acid, 4\u2032-fluoro-", "4\u2032-Fluoro[1,1\u2032-biphenyl]-2-carboxylic acid", "2-(4-Fluorophenyl)benzoic acid", "4\u2032-Fluoro-2-biphenylcarboxylic acid", "4\u2032-Fluoro-1,1\u2032-biphenyl-2-carboxylic acid"], "SMILES": "C(O)(=O)C1=C(C=CC=C1)C2=CC=C(F)C=C2", "physical_data": {"Molecular Weight": "216.21", "Molecular Formula": "C13H9FO2", "Melting Point": "&gt;225 \u00b0C"}}