{"cas_no": "18411-75-1", "cn_name": "\u8f66\u6851\u5b50\u9178", "en_name": ["(4aR,5S,6R,8aS)-5-[2-(3-Furanyl)ethyl]-3,4,4a,5,6,7,8,8a-octahydro-8a-(hydroxymethyl)-5,6-dimethyl-1-naphthalenecarboxylic acid", "1-Naphthalenecarboxylic acid, 5-[2-(3-furanyl)ethyl]-3,4,4a,5,6,7,8,8a-octahydro-8a-(hydroxymethyl)-5,6-dimethyl-, (4aR,5S,6R,8aS)-", "17,19-Dinor-8\u03b2H-labda-3,13(16),14-trien-18-oic acid, 15,16-epoxy-5-(hydroxymethyl)-9-methyl-, (-)-", "1-Naphthalenecarboxylic acid, 5-[2-(3-furanyl)ethyl]-3,4,4a,5,6,7,8,8a-octahydro-8a-(hydroxymethyl)-5,6-dimethyl-, [4aR-(4a\u03b1,5\u03b1,6\u03b2,8a\u03b2)]-", "(4aR,5S,6R,8aS)-5-[2-(3-Furanyl)ethyl]-3,4,4a,5,6,7,8,8a-octahydro-8a-(hydroxymethyl)-5,6-dimethyl-1-naphthalenecarboxylic acid", "Hautriwaic acid", "(-)-Hautriwaic acid", "5,9-Di-epi-vishautriwaic acid"], "SMILES": "C(O)C12C(C(CCC=3C=COC3)(C)C(C)CC1)CCC=C2C(O)=O", "physical_data": {"Molecular Weight": "332.43", "Molecular Formula": "C20H28O4", "Melting Point": "183-184 \u00b0C"}}