{"cas_no": "18422-83-8", "cn_name": "\u4e8c\u6c22\u6851\u8272\u7d20", "en_name": ["Dihydromorin", "4H-1-Benzopyran-4-one, 2-(2,4-dihydroxyphenyl)-2,3-dihydro-3,5,7-trihydroxy-, (2R,3R)-", "Flavanone, 2\u2032,3,4\u2032,5,7-pentahydroxy-", "4H-1-Benzopyran-4-one, 2-(2,4-dihydroxyphenyl)-2,3-dihydro-3,5,7-trihydroxy-, (2R-trans)-", "(2R,3R)-2-(2,4-Dihydroxyphenyl)-2,3-dihydro-3,5,7-trihydroxy-4H-1-benzopyran-4-one", "Dihydromorin", "(+)-Dihydromorin"], "SMILES": "O=C1C=2C(OC(C1O)C3=C(O)C=C(O)C=C3)=CC(O)=CC2O", "physical_data": {"Molecular Weight": "304.25", "Molecular Formula": "C15H12O7", "Melting Point": "224 \u00b0C"}}