{"cas_no": "18420-09-2", "cn_name": "1,3-\u4e8c\u4e59\u6c27\u57fa-1,1,3,3-\u56db\u7532\u57fa\u4e8c\u7845\u6c27\u70f7", "en_name": ["1,3-Diethoxy-1,1,3,3-tetramethyldisiloxane", "Disiloxane, 1,3-diethoxy-1,1,3,3-tetramethyl-", "1,3-Diethoxy-1,1,3,3-tetramethyldisiloxane", "\u03b1,\u03c9-Diethoxytetramethyldisiloxane", "1,3-Diethoxytetramethyldisiloxane", "1,1,3,3-Tetramethyl-1,3-diethoxydisiloxane"], "SMILES": "[Si](O[Si](OCC)(C)C)(OCC)(C)C", "physical_data": {"Molecular Weight": "222.43", "Molecular Formula": "C8H22O3Si2", "Boiling Point": "161 \u00b0C", "Melting Point": "-134 \u00b0C", "Density": "0.879 g/cm\u00b3"}}