{"cas_no": "18437-58-6", "cn_name": "2-\u7532\u57fa-4-\u6c28\u57fa\u5421\u5576", "en_name": ["4-Amino-2-methylpyridine", "4-Pyridinamine, 2-methyl-", "2-Picoline, 4-amino-", "2-Methyl-4-pyridinamine", "4-Amino-2-picoline", "4-Amino-\u03b1-picoline", "4-Amino-2-methylpyridine", "2-Methyl-4-aminopyridine", "(2-Methylpyridin-4-yl)amine", "2-Methylpyridin-4-amine"], "SMILES": "NC=1C=C(C)N=CC1", "physical_data": {"Molecular Weight": "108.14", "Molecular Formula": "C6H8N2", "Melting Point": "95.5-96 \u00b0C"}}