{"cas_no": "1843-03-4", "cn_name": "\u6297\u6c27\u5242CA", "en_name": ["Tris(2-methyl-4-hydroxy-5-tert-butylphenyl)butane", "Phenol, 4,4\u2032,4\u2032\u2032-(1-methyl-1-propanyl-3-ylidene)tris[2-(1,1-dimethylethyl)-5-methyl-", "m-Cresol, 4,4\u2032,4\u2032\u2032-(1-methyl-1-propanyl-3-ylidene)tris[6-tert-butyl-", "4,4\u2032,4\u2032\u2032-(1-Methyl-1-propanyl-3-ylidene)tris[2-(1,1-dimethylethyl)-5-methylphenol]", "1,1,3-Tris(2-methyl-5-tert-butyl-4-hydroxyphenyl)butane", "1,1,3-Tris(2-methyl-4-hydroxy-5-tert-butylphenyl)butane", "1,1,3-Tris(5-tert-butyl-4-hydroxy-2-methylphenyl)butane", "Topanol CA", "Tris(2-methyl-4-hydroxy-5-tert-butylphenyl)butane", "1,1,3-Tris(2\u2032-methyl-4\u2032-hydroxy-5\u2032-tert-butylphenyl)butane", "Tris(5-tert-butyl-4-hydroxy-2-methylphenyl)butane", "Trisalkofen BMB", "TPNC", "GSY 930", "Mark AO 30", "1,1,3-Tris(3-tert-butyl-4-hydroxy-6-methylphenyl)butane", "1,1,3-Tri(3-tert-butyl-4-hydroxy-6-methylphenyl)butane", "Mixxim AO 30", "1,1,3-Tris-(2-methyl-4-hydroxy-5-tertiary butylphenyl)butane", "ARKLS-DH 37", "ADK Stab AO 30", "1,1,3-Tri(4-hydroxy-2-methyl-5-tert-butylphenyl)butane", "ADK-ARKLS DH 37", "AO 30", "Lowinox CA 22", "1,1,3-Tris-(2\u2032-methyl-4\u2032-hydroxy-5\u2032-t-butylphenyl)butane", "Adeka ARKLS DH 37", "TCA", "Seenox 336", "OS 930", "Antioxidant CA", "CA", "ADK-AO 30", "1,1,3-Tris (2-methyl-4-hydroxy-5-tert-butylphenyl) butane", "Adeka Stab AO 30"], "SMILES": "C(CC(C)C1=CC(C(C)(C)C)=C(O)C=C1C)(C2=CC(C(C)(C)C)=C(O)C=C2C)C3=CC(C(C)(C)C)=C(O)C=C3C", "physical_data": {"Molecular Weight": "544.81", "Molecular Formula": "C37H52O3", "Melting Point": "201 \u00b0C"}}