{"cas_no": "18436-37-8", "cn_name": "3-\u5df1\u57fa\u4e8c\u6c22-2(3H)-\u544b\u5583\u916e", "en_name": ["3-Hexyldihydro-2(3H)-furanone", "2(3H)-Furanone, 3-hexyldihydro-", "Octanoic acid, 2-(2-hydroxyethyl)-, \u03b3-lactone", "3-Hexyldihydro-2(3H)-furanone", "\u03b1-Hexyl-\u03b3-butyrolactone", "3-(Hexyl)dihydrofuran-2(3H)-one", "3-Hexyl-dihydro-furan-2-one"], "SMILES": "C(CCCCC)C1C(=O)OCC1", "physical_data": {"Molecular Weight": "170.25", "Molecular Formula": "C10H18O2", "Boiling Point": "87-88 \u00b0C @ Press: 1 Torr", "Density": "0.9561 g/cm\u00b3 @ Temp: 20 \u00b0C"}}