{"cas_no": "18437-66-6", "cn_name": "4-\u6c2f-(N-BOC)\u82ef\u80fa", "en_name": ["Carbamic acid, N-(4-chlorophenyl)-, 1,1-dimethylethyl ester", "Carbamic acid, N-(4-chlorophenyl)-, 1,1-dimethylethyl ester", "Carbanilic acid, p-chloro-, tert-butyl ester", "Carbamic acid, (4-chlorophenyl)-, 1,1-dimethylethyl ester", "tert-Butyl N-(p-chlorophenyl)carbamate", "tert-Butyl N-(4-chlorophenyl)carbamate", "N-tert-Butoxycarbonyl-4-chloroaniline", "tert-Butyl 4-chlorophenylcarbamate", "(4-Chlorophenyl)carbamic acid tert-butyl ester", "N-Boc-4-chloroaniline", "1,1-Dimethylethyl N-(4-chlorophenyl)carbamate", "4-Chloro-N-boc-aniline", "p-Chloro-N-tert-butoxycarbonylaniline"], "SMILES": "N(C(OC(C)(C)C)=O)C1=CC=C(Cl)C=C1", "physical_data": {"Molecular Weight": "227.69", "Molecular Formula": "C11H14ClNO2", "Melting Point": "105 \u00b0C"}}