{"cas_no": "18435-45-5", "cn_name": "1-\u5341\u4e5d\u78b3\u70ef", "en_name": ["1-Nonadecene", "1-Nonadecene", "NSC 77135"], "SMILES": "C(CCCCCCCCC)CCCCCCCC=C", "physical_data": {"Molecular Weight": "266.51", "Molecular Formula": "C19H38", "Boiling Point": "329 \u00b0C", "Melting Point": "23 \u00b0C"}}