{"cas_no": "18437-63-3", "cn_name": "4-\u785d\u57fa\u82ef\u57fa\u6c28\u57fa\u7532\u9178\u53d4\u4e01\u916f", "en_name": ["1,1-Dimethylethyl N-(4-nitrophenyl)carbamate", "Carbamic acid, N-(4-nitrophenyl)-, 1,1-dimethylethyl ester", "Carbanilic acid, p-nitro-, tert-butyl ester", "Carbamic acid, (4-nitrophenyl)-, 1,1-dimethylethyl ester", "1,1-Dimethylethyl N-(4-nitrophenyl)carbamate", "tert-Butyl p-nitrocarbanilate", "4-Nitro-N-(tert-butoxycarbonyl)aniline", "(4-Nitrophenyl)carbamic acid 1,1-dimethylethyl ester", "tert-Butyl p-nitrophenylcarbamate", "N-(tert-Butoxycarbonyl)-4-nitroaniline", "tert-Butyl (4-nitrophenyl)carbamate", "tert-Butyl N-(4-nitrophenyl)carbamate", "N-Boc-4-nitroaniline", "(4-Nitrophenyl)carbamic acid tert-butyl ester"], "SMILES": "N(=O)(=O)C1=CC=C(NC(OC(C)(C)C)=O)C=C1", "physical_data": {"Molecular Weight": "238.24", "Molecular Formula": "C11H14N2O4", "Boiling Point": "308-312 \u00b0C", "Melting Point": "112-113 \u00b0C"}}