{"cas_no": "1843-05-6", "cn_name": "\u7d2b\u5916\u7ebf\u5438\u6536\u5242 UV-531", "en_name": ["2-Hydroxy-4-octoxybenzophenone", "Methanone, [2-hydroxy-4-(octyloxy)phenyl]phenyl-", "Benzophenone, 2-hydroxy-4-(octyloxy)-", "[2-Hydroxy-4-(octyloxy)phenyl]phenylmethanone", "2-Hydroxy-4-octoxybenzophenone", "2-Hydroxy-4-n-octoxybenzophenone", "2-Hydroxy-4-(octyloxy)benzophenone", "Octabenzone", "4-n-Octyloxy-2-hydroxybenzophenone", "4-(Octyloxy)-2-hydroxybenzophenone", "Spectra-Sorb UV 531", "Cyasorb UV 531", "UF 4", "2-Hydroxy-4-(n-octyloxy)benzophenone", "Cyasorb 531", "UV 531", "Benzon OO", "Benzophenone 12", "2-Benzoyl-5-octyloxyphenol", "UV 1", "Advastab 46", "Anti-UV P", "Chimassorb 81", "Carstab 700", "Aduvex 248", "Sumisorb 130", "Viosorb 130", "Ongrostab HOB", "Mark 1413", "Cyasorb UV 532", "Rhodialux P", "UV 1 (ultraviolet absorber)", "Asahi 1413", "Uvinul M 408", "Seikalizer E", "Zislizer E", "V 130", "Sanduvor 3035", "ADK Stab 1413", "Seesorb 102", "Lowilite 22", "Adeka 1413", "Hostavin ARO 8", "ARO 8", "Uvinul 3008", "Specta-Sorb UV 531", "NSC 163400", "GW 531", "C 81", "LA 1413", "Cytec UV 531", "BP 12", "UV 53", "Chemisorb 81", "Tinuvin UV 531", "(2-Hydroxy-4-octoxyphenyl)-phenylmethanone", "Riasorb UV 531", "Adeka Stab 1413"], "SMILES": "C(=O)(C1=C(O)C=C(OCCCCCCCC)C=C1)C2=CC=CC=C2", "physical_data": {"Molecular Weight": "326.43", "Molecular Formula": "C21H26O3", "Boiling Point": "175-180 \u00b0C @ Press: 0.1 Torr", "Melting Point": "45-46 \u00b0C"}}