{"cas_no": "18436-71-0", "cn_name": "4-\u6c2f-6-\u7532\u57fa\u55b9\u5549", "en_name": ["4-Chloro-6-methylquinoline", "Quinoline, 4-chloro-6-methyl-", "4-Chloro-6-methylquinoline"], "SMILES": "ClC=1C2=C(C=CC(C)=C2)N=CC1", "physical_data": {"Molecular Weight": "177.63", "Molecular Formula": "C10H8ClN", "Melting Point": "55 \u00b0C"}}