{"cas_no": "18438-38-5", "cn_name": "2-\u7532\u786b\u57fa\u5421\u5576", "en_name": ["2-(Methylthio)pyridine", "Pyridine, 2-(methylthio)-", "2-(Methylthio)pyridine", "Methyl 2-pyridyl sulfide", "2-Pyridyl methyl sulfide", "\u03b1-(Methylthio)pyridine", "2-(Methylsulfanyl)pyridine", "2-Methylsulfanyl-pyridine", "2-Methylsulfanylpyridine"], "SMILES": "S(C)C1=CC=CC=N1", "physical_data": {"Molecular Weight": "125.19", "Molecular Formula": "C6H7NS", "Boiling Point": "91 \u00b0C @ Press: 22 Torr"}}