{"cas_no": "184475-35-2", "cn_name": "\u5409\u975e\u66ff\u5c3c", "en_name": ["Gefitinib", "4-Quinazolinamine, N-(3-chloro-4-fluorophenyl)-7-methoxy-6-[3-(4-morpholinyl)propoxy]-", "N-(3-Chloro-4-fluorophenyl)-7-methoxy-6-[3-(4-morpholinyl)propoxy]-4-quinazolinamine", "ZD 1839", "Iressa", "Gefitinib", "4-(3\u2032-Chloro-4\u2032-fluoroanilino)-7-methoxy-6-(3-morpholinopropoxy)quinazoline", "(3-Chloro-4-fluorophenyl)[7-methoxy-6-[3-(morpholin-4-yl)propoxy]quinazolin-4-yl]amine", "4-(3-Chloro-4-fluorophenylamino)-7-methoxy-6-[3-(4-morpholinyl)propoxy]quinazoline", "ZD1839", "Gefonib", "N-(3-Chloro-4-fluorophenyl)-7-methoxy-6-(3-morpholinopropoxy)quinazolin-4-amine"], "SMILES": "N(C=1C2=C(C=C(OC)C(OCCCN3CCOCC3)=C2)N=CN1)C4=CC(Cl)=C(F)C=C4", "physical_data": {"Molecular Weight": "446.90", "Molecular Formula": "C22H24ClFN4O3", "Melting Point": "194-198 \u00b0C"}}