{"cas_no": "1844-09-3", "cn_name": "\u5341\u516b\u786b\u919a", "en_name": ["Octadecyl sulfide", "Octadecane, 1,1\u2032-thiobis-", "Octadecyl sulfide", "1,1\u2032-Thiobis[octadecane]", "Dioctadecyl sulfide", "Distearyl sulfide", "NSC 71652", "1-Octadecylsulfanyloctadecane"], "SMILES": "S(CCCCCCCCCCCCCCCCCC)CCCCCCCCCCCCCCCCCC", "physical_data": {"Molecular Weight": "539.04", "Molecular Formula": "C36H74S", "Melting Point": "63.5-64.5 \u00b0C"}}