{"cas_no": "184416-83-9", "cn_name": "2,3-\u4e8c\u6c2f-4-\u5421\u5576\u80fa", "en_name": ["2,3-Dichloro-4-pyridinamine", "4-Pyridinamine, 2,3-dichloro-", "2,3-Dichloro-4-pyridinamine", "4-Amino-2,3-dichloropyridine"], "SMILES": "ClC=1C(N)=CC=NC1Cl", "physical_data": {"Molecular Weight": "163.00", "Molecular Formula": "C5H4Cl2N2", "Melting Point": "153.5-154.5 \u00b0C"}}