{"cas_no": "18449-82-6", "cn_name": "\u5341\u56db\u70f7\u57fa-\u0392-D-\u9ea6\u82bd\u7cd6\u82f7", "en_name": ["Tetradecyl-\u03b2-D-maltoside", "\u03b2-D-Glucopyranoside, tetradecyl 4-O-\u03b1-D-glucopyranosyl-", "Glucopyranoside, tetradecyl 4-O-\u03b1-D-glucopyranosyl-, \u03b2-D-", "Tetradecyl 4-O-\u03b1-D-glucopyranosyl-\u03b2-D-glucopyranoside", "1-Tetradecyl-\u03b2-D-maltoside", "Tetradecylmalotoside", "Tetradecyl-\u03b2-D-maltoside", "Tetradecylmaltoside", "n-Tetradecyl \u03b2-D-maltopyranoside"], "SMILES": "O(C1C(CO)OC(OCCCCCCCCCCCCCC)C(O)C1O)C2OC(CO)C(O)C(O)C2O", "physical_data": {"Molecular Weight": "538.67", "Molecular Formula": "C26H50O11", "Melting Point": "97.4 \u00b0C"}}