{"cas_no": "18448-47-0", "cn_name": "1-\u73af\u5df1\u70ef\u57fa-1-\u7532\u9178\u7532\u916f", "en_name": ["1-Cyclohexene-1-carboxylic acid, methyl ester", "1-Cyclohexene-1-carboxylic acid, methyl ester", "Methyl 1-cyclohexene-1-carboxylate", "1-(Methoxycarbonyl)-1-cyclohexene", "1-(Carbomethoxy)cyclohexene", "Methyl 1-cyclohexenecarboxylate"], "SMILES": "C(OC)(=O)C=1CCCCC1", "physical_data": {"Molecular Weight": "140.18", "Molecular Formula": "C8H12O2", "Boiling Point": "105 \u00b0C @ Press: 40 Torr"}}