{"cas_no": "1844-01-5", "cn_name": "4,4'-\u4e8c\u82ef\u4e9a\u7532\u57fa\u53cc\u915a", "en_name": ["Bis(4-hydroxyphenyl)diphenylmethane", "Phenol, 4,4\u2032-(diphenylmethylene)bis-", "Phenol, 4,4\u2032-(diphenylmethylene)di-", "4,4\u2032-(Diphenylmethylene)bis[phenol]", "4,4\u2032-Dihydroxytetraphenylmethane", "Bis(4-hydroxyphenyl)diphenylmethane", "Bisphenol TP", "1,1-Diphenyl-1,1-bis(4-hydroxyphenyl)methane", "Bis(p-hydroxyphenyl)diphenylmethane", "NSC 30848", "BisP-DP", "Bisphenol BP", "4,4\u2032-(Diphenylmethylene)diphenol", "1,1-Bis(4-hydroxyphenyl)-1,1-diphenylmethane"], "SMILES": "C(C1=CC=C(O)C=C1)(C2=CC=C(O)C=C2)(C3=CC=CC=C3)C4=CC=CC=C4", "physical_data": {"Molecular Weight": "352.43", "Molecular Formula": "C25H20O2", "Melting Point": "296-298 \u00b0C"}}