{"cas_no": "18449-41-7", "cn_name": "\u7f9f\u57fa\u79ef\u96ea\u8349\u82f7", "en_name": ["Madecassic acid", "Urs-12-en-28-oic acid, 2,3,6,23-tetrahydroxy-, (2\u03b1,3\u03b2,4\u03b1,6\u03b2)-", "Urs-12-en-28-oic acid, 2\u03b1,3\u03b2,6\u03b2,23-tetrahydroxy-", "Brahmic acid", "(2\u03b1,3\u03b2,4\u03b1,6\u03b2)-2,3,6,23-Tetrahydroxyurs-12-en-28-oic acid", "2\u03b1,3\u03b2,6\u03b2,23-Tetrahydroxy-urs-12-en-28-oic acid", "Madecassic acid", "6\u03b2-Hydroxyasiatic acid", "NSC 88135", "CID 12073158"], "SMILES": "CC12C3C(C)(C4(C)C(=CC3)C5C(C(O)=O)(CC4)CCC(C)C5C)CC(O)C1C(CO)(C)C(O)C(O)C2", "physical_data": {"Molecular Weight": "504.70", "Molecular Formula": "C30H48O6", "Melting Point": "265-268 \u00b0C"}}