{"cas_no": "18444-66-1", "cn_name": "\u846b\u82a6\u7d20 E", "en_name": ["Cucurbitacin E", "19-Norlanosta-1,5,23-triene-3,11,22-trione, 25-(acetyloxy)-2,16,20-trihydroxy-9-methyl-, (9\u03b2,10\u03b1,16\u03b1,23E)-", "19-Nor-9\u03b2,10\u03b1-lanosta-1,5,23-triene-3,11,22-trione, 2,16\u03b1,20,25-tetrahydroxy-9-methyl-, 25-acetate", "(9\u03b2,10\u03b1,16\u03b1,23E)-25-(Acetyloxy)-2,16,20-trihydroxy-9-methyl-19-norlanosta-1,5,23-triene-3,11,22-trione", "Cucurbitacin E", "\u03b1-Elaterin", "Cucurbitacine E", "\u03b1-Elaterine", "NSC 106399", "NSC 521775"], "SMILES": "CC12C(C)(C(C(C(C=CC(OC(C)=O)(C)C)=O)(C)O)C(O)C1)CC(=O)C3(C)C2CC=C4C3C=C(O)C(=O)C4(C)C", "physical_data": {"Molecular Weight": "556.69", "Molecular Formula": "C32H44O8", "Melting Point": "230 \u00b0C"}}