{"cas_no": "18450-26-5", "cn_name": "3-\u919b\u57fa\u5432\u54da-2-\u7532\u9178\u7532\u916f", "en_name": ["Methyl 3-formyl-1H-indole-2-carboxylate", "1H-Indole-2-carboxylic acid, 3-formyl-, methyl ester", "Indole-2-carboxylic acid, 3-formyl-, methyl ester", "Methyl 3-formyl-1H-indole-2-carboxylate", "3-Formyl-2-(methoxycarbonyl)indole"], "SMILES": "C(=O)C=1C=2C(NC1C(OC)=O)=CC=CC2", "physical_data": {"Molecular Weight": "203.19", "Molecular Formula": "C11H9NO3", "Melting Point": "209-210 \u00b0C"}}