{"cas_no": "18457-55-1", "cn_name": "L-\u7d2b\u82cf\u9187", "en_name": ["(-)-Perillyl alcohol", "1-Cyclohexene-1-methanol, 4-(1-methylethenyl)-, (4S)-", "p-Mentha-1,8-dien-7-ol, (S)-(-)-", "1-Cyclohexene-1-methanol, 4-(1-methylethenyl)-, (S)-", "(4S)-4-(1-Methylethenyl)-1-cyclohexene-1-methanol", "(-)-p-Mentha-1,8-dien-7-ol", "l-Perillyl alcohol", "(-)-Perillic alcohol", "(-)-Perillyl alcohol", "(S)-Perillyl alcohol", "(S)-(-)-Perillyl alcohol", "(-)-(S)-Perillyl alcohol", "(S)-(-)-Perilla alcohol", "Perycorolle", "(S)-(-)-(4-Isopropenyl-1-cyclohexenyl)methanol", "(S)-Perillic alcohol", "Alda-351", "1-Cyclohexene-1-methanol 4-(1-methylethenyl)-, (4S)-", "[(4S)-4-(Prop-1-en-2-yl)cyclohex-1-en-1-yl]methanol", "[(4S)-4-Prop-1-en-2-ylcyclohexen-1-yl]methanol"], "SMILES": "C(C)(=C)C1CCC(CO)=CC1", "physical_data": {"Molecular Weight": "152.23", "Molecular Formula": "C10H16O", "Boiling Point": "200 \u00b0C @ Press: 0.1 mmHg"}}