{"cas_no": "18453-07-1", "cn_name": "2-\u6c28\u4e59\u57fa\u567b\u5511", "en_name": ["2-Thiazolylethylamine", "2-Thiazoleethanamine", "Thiazole, 2-(2-aminoethyl)-", "2-(2-Aminoethyl)thiazole", "2-Thiazolylethylamine", "2-(2-Thiazolyl)ethylamine", "2-Thiazoleethylamine", "Y-G 16", "2-(Thiazol-2-yl)ethanamine", "2-(1,3-Thiazol-2-yl)ethylamine", "2-(Thiazol-2-yl)ethan-1-amine", "2-(1,3-Thiazol-2-yl)ethan-1-amine", "2-(1,3-Thiazol-2-yl)ethanamine"], "SMILES": "C(CN)C1=NC=CS1", "physical_data": {"Molecular Weight": "128.20", "Molecular Formula": "C5H8N2S", "Boiling Point": "75-76 \u00b0C @ Press: 2 Torr"}}