{"cas_no": "18457-04-0", "cn_name": "\u9a6c\u6765\u9178\u53cc(\u4e09\u7532\u7845\u70f7)\u916f", "en_name": ["Propanedioic acid, 1,3-bis(trimethylsilyl) ester", "Propanedioic acid, 1,3-bis(trimethylsilyl) ester", "Malonic acid, bis(trimethylsilyl) ester", "Propanedioic acid, bis(trimethylsilyl) ester", "Silanol, trimethyl-, malonate (2:1)", "Bis(trimethylsilyl) malonate"], "SMILES": "O([Si](C)(C)C)C(CC(O[Si](C)(C)C)=O)=O", "physical_data": {"Molecular Weight": "248.42", "Molecular Formula": "C9H20O4Si2", "Boiling Point": "63-66 \u00b0C @ Press: 1 Torr", "Melting Point": "56 \u00b0C", "Density": "0.970 g/cm\u00b3"}}