{"cas_no": "1845-25-6", "cn_name": "(1S,2S,5S)-(-)-2-\u7f9f\u57fa-3-\u848e\u70f7\u916e", "en_name": ["(1S,2S,5S)-2-Hydroxy-2,6,6-trimethylbicyclo[3.1.1]heptan-3-one", "Bicyclo[3.1.1]heptan-3-one, 2-hydroxy-2,6,6-trimethyl-, (1S,2S,5S)-", "3-Pinanone, 2-hydroxy-, (1S,2S,5S)-(-)-", "Bicyclo[3.1.1]heptan-3-one, 2-hydroxy-2,6,6-trimethyl-, [1S-(1\u03b1,2\u03b1,5\u03b1)]-", "(1S,2S,5S)-2-Hydroxy-2,6,6-trimethylbicyclo[3.1.1]heptan-3-one", "(-)-2\u03b1-Hydroxypinocamphone", "(-)-2-Hydroxy-3-pinanone", "(1S,2S,5S)-2-Hydroxypinan-3-one", "2\u03b1-Hydroxypinan-3-one"], "SMILES": "CC1(C)C2CC1CC(=O)C2(C)O", "physical_data": {"Molecular Weight": "168.23", "Molecular Formula": "C10H16O2", "Melting Point": "39-40 \u00b0C"}}