{"cas_no": "18450-27-6", "cn_name": "\u82f1\u6587\u540d\u79f0: 3-FORMYL-1H-INDOLE-2-CARBOXYLIC ACID ETHYL ESTER", "en_name": ["Ethyl 3-formyl-1H-indole-2-carboxylate", "1H-Indole-2-carboxylic acid, 3-formyl-, ethyl ester", "Indole-2-carboxylic acid, 3-formyl-, ethyl ester", "Ethyl 3-formyl-1H-indole-2-carboxylate", "Ethyl 3-formylindole-2-carboxylate", "3-Formyl-1H-indole-2-carboxylic acid ethyl ester"], "SMILES": "C(=O)C=1C=2C(NC1C(OCC)=O)=CC=CC2", "physical_data": {"Molecular Weight": "217.22", "Molecular Formula": "C12H11NO3", "Melting Point": "185 \u00b0C"}}