{"cas_no": "184587-72-2", "cn_name": "MANGOSTANOL", "en_name": ["Mangostanol", "2H,6H-Pyrano[3,2-b]xanthen-6-one, 3,4-dihydro-3,5,9-trihydroxy-8-methoxy-2,2-dimethyl-7-(3-methyl-2-buten-1-yl)-, (+)-", "2H,6H-Pyrano[3,2-b]xanthen-6-one, 3,4-dihydro-3,5,9-trihydroxy-8-methoxy-2,2-dimethyl-7-(3-methyl-2-butenyl)-, (+)-", "(+)-3,4-Dihydro-3,5,9-trihydroxy-8-methoxy-2,2-dimethyl-7-(3-methyl-2-buten-1-yl)-2H,6H-pyrano[3,2-b]xanthen-6-one", "Mangostanol", "(+)-Mangostanol", "3,5,9-Trihydroxy-8-methoxy-2,2-dimethyl-7-(3-methylbut-2-en-1-yl)-3,4-dihydropyrano[3,2-b]xanthen-6(2H)-one"], "SMILES": "C(C=C(C)C)C1=C2C(OC=3C(C2=O)=C(O)C4=C(C3)OC(C)(C)C(O)C4)=CC(O)=C1OC", "physical_data": {"Molecular Weight": "426.46", "Molecular Formula": "C24H26O7", "Melting Point": "164-166 \u00b0C"}}