{"cas_no": "18467-77-1", "cn_name": "\u8c03\u544b\u9178\uff08\u4e00\u6c34\uff09", "en_name": ["2,3:4,6-di-O-Isopropylidene-2-keto-L-gulonic acid", "\u03b1-L-xylo-2-Hexulofuranosonic acid, 2,3:4,6-bis-O-(1-methylethylidene)-", "L-xylo-Hexulofuranosonic acid, 2,3:4,6-di-O-isopropylidene-, \u03b1-", "7H-1,3-Dioxolo[4,5]furo[3,2-d][1,3]dioxin, \u03b1-L-xylo-2-hexulofuranosonic acid deriv.", "2,3:4,6-Bis-O-(1-methylethylidene)-\u03b1-L-xylo-2-hexulofuranosonic acid", "2,3:4,6-Diacetone-2-ketogulonic acid", "2,3:4,6-Di-O-isopropylidene-L-xylo-hexulosonic acid", "2,3:4,6-di-O-Isopropylidene-2-keto-L-gulonic acid", "Diacetone-2-oxo-L-gulonic acid", "Oxogulonic acid diacetonide", "Diacetone-2-ketogulonic acid", "Diacetone-2-keto-L-gulonic acid", "2-Keto-L-gulonic acid, diacetone deriv.", "2-keto-L-Gulonic acid, diacetone deriv.", "Diprogulic acid", "2,3:4,6-Diisopropylidene-2-keto-L-gulonic acid", "(-)-2,3:4,6-Di-O-isopropylidene-2-keto-L-gulonic acid", "Diacetone 2-keto-1-gulonic acid"], "SMILES": "C(O)(=O)C12C(C3C(O1)COC(C)(C)O3)OC(C)(C)O2", "physical_data": {"Molecular Weight": "274.27", "Molecular Formula": "C12H18O7", "Melting Point": "74 \u00b0C"}}