{"cas_no": "1846-76-0", "cn_name": "\u9999\u8c46\u7d20-3-\u7fa7\u9178\u4e59\u916f", "en_name": ["3-Carbethoxycoumarin", "2H-1-Benzopyran-3-carboxylic acid, 2-oxo-, ethyl ester", "3-Ethoxycarbonylcoumarin", "Ethyl 3-coumarincarboxylate", "3-Carbethoxycoumarin", "Ethyl 2-oxo-2H-1-benzopyran-3-carboxylate", "Ethyl 2H-2-oxo-1-benzopyran-3-carboxylate", "2-Oxo-2H-1-benzopyran-3-carboxylic acid ethyl ester", "NSC 620", "Ethyl 2H-1-benzopyran-2-oxo-3-carboxylate", "2-Oxo-2H-chromene-3-carboxylic acid ethyl ester"], "SMILES": "C(OCC)(=O)C1=CC=2C(OC1=O)=CC=CC2", "physical_data": {"Molecular Weight": "218.21", "Molecular Formula": "C12H10O4", "Melting Point": "92-94 \u00b0C"}}