{"cas_no": "18465-71-9", "cn_name": "(3R,4R)-\u4e8c\u6c22-3,4-\u4e8c\u7f9f\u57fa-3-\u7532\u57fa-2(3H)-\u544b\u5583\u916e", "en_name": ["(3R,4R)-Dihydro-3,4-dihydroxy-3-methyl-2(3H)-furanone", "2(3H)-Furanone, dihydro-3,4-dihydroxy-3-methyl-, (3R,4R)-", "Erythronic acid, 2-C-methyl-, \u03b3-lactone, D-", "2(3H)-Furanone, dihydro-3,4-dihydroxy-3-methyl-, (3R-cis)-", "(3R,4R)-Dihydro-3,4-dihydroxy-3-methyl-2(3H)-furanone", "2-C-Methyl-D-erythrono-1,4-lactone"], "SMILES": "CC1(O)C(O)COC1=O", "physical_data": {"Molecular Weight": "132.11", "Molecular Formula": "C5H8O4", "Melting Point": "113 \u00b0C"}}