{"cas_no": "18479-58-8", "cn_name": "2,6-\u4e8c\u7532\u57fa-7-\u8f9b\u70ef-2-\u9187", "en_name": ["2,6-Dimethyl-7-octen-2-ol", "7-Octen-2-ol, 2,6-dimethyl-", "2,6-Dimethyl-7-octen-2-ol", "3,7-Dimethyl-1-octen-7-ol", "1,1,5-Trimethyl-6-heptenol", "Dihydromyrcenol"], "SMILES": "C(CCC(C)(C)O)C(C=C)C", "physical_data": {"Molecular Weight": "156.27", "Molecular Formula": "C10H20O", "Boiling Point": "92 \u00b0C @ Press: 20 Torr", "Density": "0.8305 g/cm\u00b3 @ Temp: 15.5 \u00b0C"}}