{"cas_no": "18474-60-7", "cn_name": "5-\u7532\u57fa\u5432\u54da-2-\u7532\u9178", "en_name": ["7-Methyl-1H-indole-2-carboxylic acid", "1H-Indole-2-carboxylic acid, 7-methyl-", "Indole-2-carboxylic acid, 7-methyl-", "7-Methyl-1H-indole-2-carboxylic acid", "7-Methylindole-2-carboxylic acid"], "SMILES": "CC1=C2C(C=C(C(O)=O)N2)=CC=C1", "physical_data": {"Molecular Weight": "175.18", "Molecular Formula": "C10H9NO2", "Melting Point": "176 \u00b0C"}}