{"cas_no": "18479-49-7", "cn_name": "3,7-\u4e8c\u7532\u57fa-1-\u8f9b\u70ef-3-\u9187", "en_name": ["3,7-Dimethyl-1-octen-3-ol", "1-Octen-3-ol, 3,7-dimethyl-", "3,7-Dimethyl-1-octen-3-ol", "6,7-Dihydrolinalool", "Dihydrolinalol"], "SMILES": "C(CCCC(C)C)(C=C)(C)O", "physical_data": {"Molecular Weight": "156.27", "Molecular Formula": "C10H20O", "Boiling Point": "89-91 \u00b0C @ Press: 15 Torr"}}