{"cas_no": "18479-57-7", "cn_name": "3,7-\u4e8c\u7532\u57fa-\u8f9b\u70ef-2-\u9187", "en_name": ["Tetrahydromyrcenol", "2-Octanol, 2,6-dimethyl-", "2,6-Dimethyl-2-octanol", "Tetrahydromyrcenol"], "SMILES": "C(CCC(C)(C)O)C(CC)C", "physical_data": {"Molecular Weight": "158.28", "Molecular Formula": "C10H22O", "Boiling Point": "80.5 \u00b0C @ Press: 10 Torr", "Density": "0.8023 g/cm\u00b3 @ Temp: 25 \u00b0C"}}