{"cas_no": "18470-76-3", "cn_name": "N-\u7678\u57fa\u4e01\u4e8c\u9178\u9150", "en_name": ["3-Decyldihydro-2,5-furandione", "2,5-Furandione, 3-decyldihydro-", "Succinic anhydride, decyl-", "3-Decyldihydro-2,5-furandione", "Decylsuccinic anhydride", "n-Decylsuccinic anhydride", "NSC 80684", "3-Decyloxolane-2,5-dione"], "SMILES": "C(CCCCCCCCC)C1C(=O)OC(=O)C1", "physical_data": {"Molecular Weight": "240.34", "Molecular Formula": "C14H24O3", "Melting Point": "70-71 \u00b0C"}}