{"cas_no": "18479-51-1", "cn_name": "3,7-\u4e8c\u7532\u57fa-6-\u8f9b\u70ef-3-\u9187", "en_name": ["Dihydrolinalool", "6-Octen-3-ol, 3,7-dimethyl-", "3,7-Dimethyl-6-octen-3-ol", "3,7-Dimethyl-6-octene-3-ol", "2,6-Dimethyl-2-octen-6-ol", "Dihydrolinalool", "1,2-Dihydrolinalool", "(\u00b1)-Dihydrolinalool"], "SMILES": "C(CCC=C(C)C)(CC)(C)O", "physical_data": {"Molecular Weight": "156.27", "Molecular Formula": "C10H20O", "Boiling Point": "87 \u00b0C @ Press: 12 Torr", "Density": "0.8573 g/cm\u00b3 @ Temp: 25 \u00b0C"}}