{"cas_no": "1847-63-8", "cn_name": "\u76d0\u9178\u8418\u798f\u6614\u5b9a", "en_name": ["Nafoxidine hydrochloride", "Pyrrolidine, 1-[2-[4-(3,4-dihydro-6-methoxy-2-phenyl-1-naphthalenyl)phenoxy]ethyl]-, hydrochloride (1:1)", "Pyrrolidine, 1-[2-[p-(3,4-dihydro-6-methoxy-2-phenyl-1-naphthyl)phenoxy]ethyl]-, hydrochloride", "Pyrrolidine, 1-[2-[4-(3,4-dihydro-6-methoxy-2-phenyl-1-naphthalenyl)phenoxy]ethyl]-, hydrochloride", "U 11100A", "1-[2-[p-(3,4-Dihydro-6-methoxy-2-phenyl-1-naphthyl)phenoxy]ethyl]pyrrolidine hydrochloride", "Nafoxidine hydrochloride", "U 11100", "11100A", "NSC 70735"], "SMILES": "O(C)C=1C=C2C(C(=C(CC2)C3=CC=CC=C3)C4=CC=C(OCCN5CCCC5)C=C4)=CC1.Cl", "physical_data": {"Molecular Weight": "", "Molecular Formula": "C29H31NO2.ClH", "Melting Point": "165-168 \u00b0C"}}