{"cas_no": "1848-84-6", "cn_name": "2-\u4e59\u57fa\u82ef\u5e76\u54aa\u5511", "en_name": ["2-Ethylbenzimidazole", "1H-Benzimidazole, 2-ethyl-", "Benzimidazole, 2-ethyl-", "2-Ethyl-1H-benzimidazole", "2-Ethylbenzimidazole", "NSC 28961", "NSC 38878", "2-Ethyl-1H-1,3-benzodiazole", "2-Ethyl-1H-benzo[d]imidazole"], "SMILES": "C(C)C=1NC=2C(N1)=CC=CC2", "physical_data": {"Molecular Weight": "146.19", "Molecular Formula": "C9H10N2", "Melting Point": "174-175 \u00b0C"}}