{"cas_no": "18480-07-4", "cn_name": "\u6c22\u6c27\u5316\u9536", "en_name": ["Strontium hydroxide", "Strontium hydroxide (Sr(OH)2)", "Strontium hydroxide", "Strontium dihydroxide", "Strontium(II) hydroxide"], "SMILES": "[Sr](O)O", "physical_data": {"Molecular Weight": "", "Molecular Formula": "H2O2Sr", "Melting Point": "535 \u00b0C"}}