{"cas_no": "18480-23-4", "cn_name": "\u70ef\u4e19\u57fa\u4e09\u82ef\u57fa\u6c2f\u5316\u81a6", "en_name": ["Phosphonium, triphenyl-2-propen-1-yl-, chloride (1:1)", "Phosphonium, triphenyl-2-propen-1-yl-, chloride (1:1)", "Phosphonium, allyltriphenyl-, chloride", "Phosphonium, triphenyl-2-propenyl-, chloride", "Allyltriphenylphosphonium chloride", "NSC 126440"], "SMILES": "[P+](CC=C)(C1=CC=CC=C1)(C2=CC=CC=C2)C3=CC=CC=C3.[Cl-]", "physical_data": {"Molecular Weight": "", "Molecular Formula": "C21H20P.Cl", "Melting Point": "221-227 \u00b0C"}}