{"cas_no": "18483-17-5", "cn_name": "1,3,6-\u4e09-O-3,4,5-\u4e09\u7f9f\u57fa\u82ef\u7532\u9170-BETA-D-\u8461\u8404\u7cd6", "en_name": ["1,3,6-Tri-O-galloyl-\u03b2-D-glucose", "\u03b2-D-Glucopyranose, 1,3,6-tris(3,4,5-trihydroxybenzoate)", "Glucopyranose, 1,3,6-trigallate, \u03b2-D-", "1,3,6-Tri-O-galloyl-\u03b2-D-glucose", "\u03b2-D-Glucopyranose 1,3,6-trigallate", "1,3,6-Tri-O-galloyl-\u03b2-D-glucopyranose", "NSC 69861", "1,3,6-Tri-O-galloyl-\u03b2-glucospyranose", "NP 005114", "1,3,6-Tri-O-galloylglucose", "NP-005114"], "SMILES": "O(C(=O)C1=CC(O)=C(O)C(O)=C1)C2C(O)C(OC(=O)C3=CC(O)=C(O)C(O)=C3)OC(COC(=O)C4=CC(O)=C(O)C(O)=C4)C2O", "physical_data": {"Molecular Weight": "636.47", "Molecular Formula": "C27H24O18", "Melting Point": "227 \u00b0C"}}