{"cas_no": "18480-53-0", "cn_name": "3,4-\u4e8c\u6c2f\u5f02\u567b\u5511-5-\u7fa7\u9178", "en_name": ["3,4-Dichloro-5-isothiazolecarboxylic acid", "5-Isothiazolecarboxylic acid, 3,4-dichloro-", "3,4-Dichloro-5-isothiazolecarboxylic acid", "TD 1123", "Pennwalt TD 1123", "3,4-Dichloro-5-carboxyisothiazole", "3,4-Dichloroisothiazol-5-carboxylic acid", "3,4-Dichloroisothiazole-5-carboxylic acid"], "SMILES": "C(O)(=O)C1=C(Cl)C(Cl)=NS1", "physical_data": {"Molecular Weight": "198.03", "Molecular Formula": "C4HCl2NO2S", "Melting Point": "179-179.5 \u00b0C"}}