{"cas_no": "18487-39-3", "cn_name": "\u4e09\u6c2f\u82ef\u80fa", "en_name": ["2,3,5-Trichlorobenzenamine", "Benzenamine, 2,3,5-trichloro-", "Aniline, 2,3,5-trichloro-", "2,3,5-Trichlorobenzenamine", "2,3,5-Trichloroaniline"], "SMILES": "ClC1=C(Cl)C=C(Cl)C=C1N", "physical_data": {"Molecular Weight": "196.46", "Molecular Formula": "C6H4Cl3N", "Melting Point": "73 \u00b0C"}}