{"cas_no": "18495-30-2", "cn_name": "\u56db\u6c2f\u4e19\u70f7", "en_name": ["1,1,2,3-Tetrachloropropane", "Propane, 1,1,2,3-tetrachloro-", "1,1,2,3-Tetrachloropropane"], "SMILES": "C(C(Cl)Cl)(CCl)Cl", "physical_data": {"Molecular Weight": "181.88", "Molecular Formula": "C3H4Cl4", "Boiling Point": "179.5 \u00b0C", "Density": "1.513 g/cm\u00b3 @ Temp: 17 \u00b0C"}}