{"cas_no": "18494-87-6", "cn_name": "1-\u82ef\u5e76\u567b\u5429-3-\u78fa\u9170\u6c2f", "en_name": ["Benzo[b]thiophene-3-sulfonyl chloride", "Benzo[b]thiophene-3-sulfonyl chloride", "1-Benzothiophene-3-sulfonyl chloride"], "SMILES": "S(Cl)(=O)(=O)C=1C=2C(SC1)=CC=CC2", "physical_data": {"Molecular Weight": "232.71", "Molecular Formula": "C8H5ClO2S2", "Melting Point": "90 \u00b0C"}}