{"cas_no": "18495-14-2", "cn_name": "2-\u7f9f\u57fa-4-\u7532\u57fa\u82ef\u7532\u8148", "en_name": ["2-Hydroxy-4-methylbenzonitrile", "Benzonitrile, 2-hydroxy-4-methyl-", "2,4-Cresotonitrile", "2-Hydroxy-4-methylbenzonitrile", "4-Methyl-2-hydroxybenzonitrile"], "SMILES": "C(#N)C1=C(O)C=C(C)C=C1", "physical_data": {"Molecular Weight": "133.15", "Molecular Formula": "C8H7NO", "Melting Point": "87 \u00b0C"}}