{"cas_no": "1849-29-2", "cn_name": "\u7532\u9187-D3", "en_name": ["Methan-d3-ol", "Methan-d3-ol", "Methyl-d3 alcohol", "Trideuteriomethanol", "Methanol-1,1,1-d3", "Methanol (CD3OH)", "Methanol-d3"], "SMILES": "C(O)([2H])([2H])[2H]", "physical_data": {"Molecular Weight": "", "Molecular Formula": "CHD3O", "Boiling Point": "58.0-64.4 \u00b0C"}}