{"cas_no": "18496-54-3", "cn_name": "4-\u82ef\u57fa\u4e01\u9170\u6c2f", "en_name": ["Benzenebutanoyl chloride", "Benzenebutanoyl chloride", "Butyryl chloride, 4-phenyl-", "4-Phenylbutyryl chloride", "4-Phenylbutanoyl chloride", "\u03b3-Phenylbutyric chloride", "\u03b3-Phenylbutyryl chloride", "4-Phenylbutyric acid chloride"], "SMILES": "C(CCC(Cl)=O)C1=CC=CC=C1", "physical_data": {"Molecular Weight": "182.65", "Molecular Formula": "C10H11ClO", "Boiling Point": "123-124 \u00b0C @ Press: 13 Torr", "Melting Point": "96.5-99 \u00b0C"}}