{"cas_no": "1849-36-1", "cn_name": "4-\u785d\u57fa\u82ef\u786b\u9187", "en_name": ["4-Nitrobenzenethiol", "Benzenethiol, 4-nitro-", "Benzenethiol, p-nitro-", "4-Nitrobenzenethiol", "4-Nitrothiophenol", "p-Nitrobenzenethiol", "p-Nitrothiophenol", "p-Nitrophenyl mercaptan", "4-Nitrophenyl mercaptan", "NSC 128182", "1,4-Nitrobenzenethiol"], "SMILES": "N(=O)(=O)C1=CC=C(S)C=C1", "physical_data": {"Molecular Weight": "155.17", "Molecular Formula": "C6H5NO2S", "Melting Point": "75 \u00b0C"}}