{"cas_no": "18495-27-7", "cn_name": "1-\u6eb4-2-\u8f9b\u7094", "en_name": ["1-Bromo-2-octyne", "2-Octyne, 1-bromo-", "1-Bromo-2-octyne", "2-Octynyl bromide"], "SMILES": "C(C#CCBr)CCCC", "physical_data": {"Molecular Weight": "189.09", "Molecular Formula": "C8H13Br", "Boiling Point": "95 \u00b0C @ Press: 12 Torr", "Density": "1.1666 g/cm\u00b3 @ Temp: 20 \u00b0C"}}