{"cas_no": "1849-55-4", "cn_name": "3-\u7f9f\u57fa-2-\u5421\u5576\u7532\u919b", "en_name": ["3-Hydroxy-2-pyridinecarboxaldehyde", "2-Pyridinecarboxaldehyde, 3-hydroxy-", "Picolinaldehyde, 3-hydroxy-", "3-Hydroxy-2-pyridinecarboxaldehyde", "3-Hydroxypyridine-2-aldehyde", "2-Formyl-3-hydroxypyridine", "3-Hydroxypicolinaldehyde", "3-Hydroxypyridine-2-carbaldehyde"], "SMILES": "C(=O)C1=C(O)C=CC=N1", "physical_data": {"Molecular Weight": "123.11", "Molecular Formula": "C6H5NO2", "Boiling Point": "64 \u00b0C @ Press: 5 Torr", "Melting Point": "81-82 \u00b0C (sublm)"}}