{"cas_no": "1849-54-3", "cn_name": "3-\u7f9f\u57fa\u5421\u5576-4-\u919b", "en_name": ["3-Hydroxy-4-pyridinecarboxaldehyde", "4-Pyridinecarboxaldehyde, 3-hydroxy-", "Isonicotinaldehyde, 3-hydroxy-", "3-Hydroxy-4-pyridinecarboxaldehyde", "3-Hydroxy-4-pyridinealdehyde", "4-Formyl-3-hydroxypyridine", "3-Hydroxy-4-formylpyridine", "3-Hydroxyisonicotinaldehyde", "3-Hydroxypyridine-4-carbaldehyde"], "SMILES": "C(=O)C=1C(O)=CN=CC1", "physical_data": {"Molecular Weight": "123.11", "Molecular Formula": "C6H5NO2", "Melting Point": "126-128 \u00b0C"}}