{"cas_no": "1849-27-0", "cn_name": "1,4-\u53cc(\u82ef\u4e59\u7094\u57fa)\u82ef", "en_name": ["1,4-Bis(2-phenylethynyl)benzene", "Benzene, 1,4-bis(2-phenylethynyl)-", "Benzene, p-bis(phenylethynyl)-", "Benzene, 1,4-bis(phenylethynyl)-", "1,4-Bis(2-phenylethynyl)benzene", "p-Bis(phenylethynyl)benzene", "1,4-Bis(phenylethynyl)benzene", "1,4-Di(phenylethynyl)benzene"], "SMILES": "C(#CC1=CC=CC=C1)C2=CC=C(C#CC3=CC=CC=C3)C=C2", "physical_data": {"Molecular Weight": "278.35", "Molecular Formula": "C22H14", "Melting Point": "184-186 \u00b0C"}}