{"cas_no": "185-72-8", "cn_name": "1,6-\u4e8c\u5641\u87ba[2.5]\u8f9b\u70f7", "en_name": ["1,6-Dioxaspiro[2.5]octane", "1,6-Dioxaspiro[2.5]octane", "Tetrahydrospiro[oxirane-2,4\u2032-[4H]pyran]"], "SMILES": "C12(CO1)CCOCC2", "physical_data": {"Molecular Weight": "114.14", "Molecular Formula": "C6H10O2", "Boiling Point": "60 \u00b0C @ Press: 145 Torr", "Density": "1.044 g/cm\u00b3 @ Temp: 20 \u00b0C"}}