{"cas_no": "18503-89-4", "cn_name": "1,1-\u4e8c\u5f02\u4e19\u6c27\u57fa\u4e09\u7532\u80fa", "en_name": ["N,N-Dimethyl-1,1-bis(1-methylethoxy)methanamine", "Methanamine, N,N-dimethyl-1,1-bis(1-methylethoxy)-", "Trimethylamine, 1,1-diisopropoxy-", "N,N-Dimethyl-1,1-bis(1-methylethoxy)methanamine", "Dimethylformamide diisopropyl acetal", "N,N-Dimethylformamide diisopropyl acetal", "DMF diisopropyl acetal", "N,N-Dimethylformamide diisopropyl acetal"], "SMILES": "C(OC(C)C)(OC(C)C)N(C)C", "physical_data": {"Molecular Weight": "175.27", "Molecular Formula": "C9H21NO2", "Boiling Point": "152-155 \u00b0C @ Press: 760 Torr", "Density": "0.8522 g/cm\u00b3 @ Temp: 20 \u00b0C"}}