{"cas_no": "18503-90-7", "cn_name": "1,1-\u4e8c\u4e01\u6c27\u57fa\u4e09\u7532\u80fa", "en_name": ["1,1-Dibutoxy-N,N-dimethylmethanamine", "Methanamine, 1,1-dibutoxy-N,N-dimethyl-", "Trimethylamine, 1,1-dibutoxy-", "1,1-Dibutoxy-N,N-dimethylmethanamine", "Formamide, N,N-dimethyl-, dibutyl acetal", "N,N-Dimethylformamide dibutyl acetal", "Dimethylformamide dibutyl acetal", "DMF-dibutyl acetal"], "SMILES": "C(OCCCC)(OCCCC)N(C)C", "physical_data": {"Molecular Weight": "203.32", "Molecular Formula": "C11H25NO2", "Boiling Point": "96-98 \u00b0C @ Press: 16 Torr"}}