{"cas_no": "18507-89-6", "cn_name": "\u7678\u6c27\u55b9\u916f", "en_name": ["Decoquinate", "3-Quinolinecarboxylic acid, 6-(decyloxy)-7-ethoxy-4-hydroxy-, ethyl ester", "Ethyl 6-n-decyloxy-7-ethoxy-4-hydroxyquinoline-3-carboxylate", "Deccox", "Decoquinate", "M and B 15497", "Ethyl 6-decyloxy-7-ethoxy-4-hydroxyquinoline-3-carboxylate", "Ethyl 4-hydroxy-6-(decyloxy)-7-ethoxyquinoline-3-carboxylate", "Decoxy", "HC 1528", "NSC 339057"], "SMILES": "OC=1C2=C(C=C(OCC)C(OCCCCCCCCCC)=C2)N=CC1C(OCC)=O", "physical_data": {"Molecular Weight": "417.54", "Molecular Formula": "C24H35NO5", "Melting Point": "242-245 \u00b0C"}}