{"cas_no": "1850-14-2", "cn_name": "\u539f\u78b3\u9178\u56db\u7532\u916f", "en_name": ["Tetramethyl orthocarbonate", "Methane, tetramethoxy-", "Orthocarbonic acid, tetramethyl ester", "Tetramethoxymethane", "Tetramethyl orthocarbonate", "Dimethoxymethylal", "NSC 359558"], "SMILES": "C(OC)(OC)(OC)OC", "physical_data": {"Molecular Weight": "136.15", "Molecular Formula": "C5H12O4", "Boiling Point": "114 \u00b0C", "Melting Point": "-5 \u00b0C", "Density": "1.020 g/cm\u00b3 @ Temp: 20 \u00b0C"}}