{"cas_no": "18514-76-6", "cn_name": "5-\u785d\u57fa\u55b9\u5594\u5549", "en_name": ["5-Nitroquinoxaline", "Quinoxaline, 5-nitro-", "5-Nitroquinoxaline", "NSC 128768"], "SMILES": "N(=O)(=O)C=1C2=C(C=CC1)N=CC=N2", "physical_data": {"Molecular Weight": "175.14", "Molecular Formula": "C8H5N3O2", "Melting Point": "96-97 \u00b0C"}}