{"cas_no": "18511-72-3", "cn_name": "4,4-\u4e8c\u785d\u57fa-2,2-\u8054\u5421\u5576", "en_name": ["4,4\u2032-Dinitro-2,2\u2032-bipyridine", "2,2\u2032-Bipyridine, 4,4\u2032-dinitro-", "4,4\u2032-Dinitro-2,2\u2032-bipyridine", "4,4\u2032-Dinitro[2,2\u2032-bipyridine]"], "SMILES": "N(=O)(=O)C=1C=C(N=CC1)C2=CC(N(=O)=O)=CC=N2", "physical_data": {"Molecular Weight": "246.18", "Molecular Formula": "C10H6N4O4", "Melting Point": "180-190 \u00b0C"}}