{"cas_no": "18511-71-2", "cn_name": "4,4'-\u4e8c\u6eb4-2,2'-\u8054\u5421\u5576", "en_name": ["4,4\u2032-Dibromo-2,2\u2032-bipyridine", "2,2\u2032-Bipyridine, 4,4\u2032-dibromo-", "4,4\u2032-Dibromo-2,2\u2032-bipyridine", "4,4\u2032-Dibromo-2,2\u2032-dipyridine", "4,4\u2032-Bromo-2,2\u2032-bipyridine", "4,4\u2032-Dibromo-2,2\u2032-bipyridyl"], "SMILES": "BrC=1C=C(N=CC1)C2=CC(Br)=CC=N2", "physical_data": {"Molecular Weight": "313.98", "Molecular Formula": "C10H6Br2N2", "Melting Point": "141-142 \u00b0C"}}