{"cas_no": "185106-16-5", "cn_name": "\u963f\u8003\u66ff\u80fa", "en_name": ["Acotiamide", "4-Thiazolecarboxamide, N-[2-[bis(1-methylethyl)amino]ethyl]-2-[(2-hydroxy-4,5-dimethoxybenzoyl)amino]-", "N-[2-[Bis(1-methylethyl)amino]ethyl]-2-[(2-hydroxy-4,5-dimethoxybenzoyl)amino]-4-thiazolecarboxamide", "Acotiamide"], "SMILES": "C(NC1=NC(C(NCCN(C(C)C)C(C)C)=O)=CS1)(=O)C2=CC(OC)=C(OC)C=C2O", "physical_data": {"Molecular Weight": "450.55", "Molecular Formula": "C21H30N4O5S", "Melting Point": "128-130 \u00b0C"}}