{"cas_no": "18511-62-1", "cn_name": "(\u00b1)-4-\u6c1f\u82ef\u4e59\u70ef\u73af\u6c27\u5316\u7269", "en_name": ["2-(4-Fluorophenyl)oxirane", "Oxirane, 2-(4-fluorophenyl)-", "Benzene, 1-(epoxyethyl)-4-fluoro-", "Oxirane, (4-fluorophenyl)-", "2-(4-Fluorophenyl)oxirane", "(p-Fluorophenyl)oxirane", "p-Fluorostyrene oxide", "2-(p-Fluorophenyl)oxirane", "4-Fluorostyrene oxide", "(\u00b1)-(4-Fluorophenyl)oxirane", "4-Fluorophenylstyrene oxide", "4-Fluorostyrene epoxide", "4-Fluorophenyloxirane"], "SMILES": "FC1=CC=C(C2CO2)C=C1", "physical_data": {"Molecular Weight": "138.14", "Molecular Formula": "C8H7FO", "Boiling Point": "63-64 \u00b0C @ Press: 0.5 Torr"}}