{"cas_no": "18516-37-5", "cn_name": "2-\u7532\u57fa-1-\u5341\u4e00\u70ef", "en_name": ["2-Methyl-1-undecene", "1-Undecene, 2-methyl-", "2-Methyl-1-undecene", "1-Methyl-1-nonylethylene", "NSC 93957"], "SMILES": "C(CCCCCC)CCC(C)=C", "physical_data": {"Molecular Weight": "168.32", "Molecular Formula": "C12H24", "Boiling Point": "101.45 \u00b0C @ Press: 20 Torr"}}