{"cas_no": "1852-04-6", "cn_name": "\u5341\u4e00\u70f7\u4e8c\u9178", "en_name": ["Undecanedioic acid", "Undecanedioic acid", "1,9-Nonanedicarboxylic acid", "Hendecanedioic acid", "NSC 400241"], "SMILES": "C(CC(O)=O)CCCCCCCC(O)=O", "physical_data": {"Molecular Weight": "216.27", "Molecular Formula": "C11H20O4", "Boiling Point": "170-174 \u00b0C @ Press: 0.25-0.27 Torr", "Melting Point": "109-111 \u00b0C"}}