{"cas_no": "1852-16-0", "cn_name": "N-(N-\u4e01\u6c27\u57fa\u7532\u57fa)\u4e19\u70ef\u9170\u80fa", "en_name": ["N-(Butoxymethyl)acrylamide", "2-Propenamide, N-(butoxymethyl)-", "Acrylamide, N-(butoxymethyl)-", "N-(Butoxymethyl)-2-propenamide", "N-(Butoxymethyl)acrylamide", "NBM", "Wasmer BMA", "Wasmer NBM", "Cylink NBMA"], "SMILES": "C(NC(C=C)=O)OCCCC", "physical_data": {"Molecular Weight": "157.21", "Molecular Formula": "C8H15NO2", "Boiling Point": "110-112 \u00b0C @ Press: 0.03 Torr", "Melting Point": "-9-6 \u00b0C", "Density": "0.9693 g/cm\u00b3 @ Temp: 25 \u00b0C"}}