{"cas_no": "18524-94-2", "cn_name": "\u9a6c\u94b1\u5b50\u82f7", "en_name": ["(-)-Loganin", "Cyclopenta[c]pyran-4-carboxylic acid, 1-(\u03b2-D-glucopyranosyloxy)-1,4a,5,6,7,7a-hexahydro-6-hydroxy-7-methyl-, methyl ester, (1S,4aS,6S,7R,7aS)-", "Loganin", "Cyclopenta[c]pyran-4-carboxylic acid, 1-(\u03b2-D-glucopyranosyloxy)-1,4a,5,6,7,7a-hexahydro-6-hydroxy-7-methyl-, methyl ester, [1S-(1\u03b1,4a\u03b1,6\u03b1,7\u03b1,7a\u03b1)]-", "Cyclopenta[c]pyran-4-carboxylic acid, 1-(\u03b2-D-glucopyranosyloxy)-1,4a,5,6,7,7a-hexahydro-6-hydroxy-7-methyl-, methyl ester", "(1S)-1\u03b1-(\u03b2-D-Glucopyranosyloxy)-1,4a\u03b1,5,6,7,7a\u03b1-hexahydro-6\u03b1-hydroxy-7\u03b1-methylcyclopenta[c]pyran-4-carboxylic acid methyl ester", "7-Hydroxy-6-desoxyverbenalin", "Loganoside", "(-)-Loganin", "NSC 606403"], "SMILES": "O(C1C2C(C(C(OC)=O)=CO1)CC(O)C2C)C3OC(CO)C(O)C(O)C3O", "physical_data": {"Molecular Weight": "390.38", "Molecular Formula": "C17H26O10", "Melting Point": "223 \u00b0C"}}