{"cas_no": "1852-53-5", "cn_name": "5a-\u96c4\u753e\u70f7-3a,17b-\u4e8c\u9187", "en_name": ["5\u03b1-Androstane-3\u03b1,17\u03b2-diol", "Androstane-3,17-diol, (3\u03b1,5\u03b1,17\u03b2)-", "5\u03b1-Androstane-3\u03b1,17\u03b2-diol", "(3\u03b1,5\u03b1,17\u03b2)-Androstane-3,17-diol", "3\u03b1,17\u03b2-Dihydroxy-5\u03b1-androstane", "Androstane-3\u03b1,17\u03b2-diol", "Etiocholane-3\u03b1,17\u03b2-diol", "Hombreol", "Adiol", "3\u03b1,5\u03b1-Tetrahydrotestosterone", "NSC 9899", "17\u03b2-Dihydroandrosterone"], "SMILES": "CC12C3C(C4C(C)(CC3)C(O)CC4)CCC1CC(O)CC2", "physical_data": {"Molecular Weight": "292.46", "Molecular Formula": "C19H32O2", "Melting Point": "236-236.5 \u00b0C"}}