{"cas_no": "18523-48-3", "cn_name": "\u758a\u6c2e\u4e59\u9178", "en_name": ["2-Azidoacetic acid", "Acetic acid, 2-azido-", "Acetic acid, azido-", "2-Azidoacetic acid", "Azidoacetic acid"], "SMILES": "C(C(O)=O)N=[N+]=[N-]", "physical_data": {"Molecular Weight": "", "Molecular Formula": "C2H3N3O2", "Boiling Point": "116 \u00b0C @ Press: 12 Torr", "Melting Point": "16 \u00b0C"}}