{"cas_no": "1852-17-1", "cn_name": "\u4e19\u70ef\u8132", "en_name": ["Tetrahydro-2(1H)-pyrimidinone", "2(1H)-Pyrimidinone, tetrahydro-", "Tetrahydro-2(1H)-pyrimidinone", "Urea, N,N\u2032-1,3-propanediyl-", "Propyleneurea", "2-Ketohexahydropyrimidine", "Tetrahydro-2-pyrimidone", "N,N\u2032-Trimethyleneurea", "1,3-Propanediamine cyclic urea", "NSC 21315", "Hexahydro-1H-pyrimidin-2-one", "Tetrahydro-2-pyrimidinone", "3,4,5,6-Tetrahydropyrimidin-2(1H)-one", "1,3-Propyleneurea", "1,3-Diazinan-2-one"], "SMILES": "O=C1NCCCN1", "physical_data": {"Molecular Weight": "100.12", "Molecular Formula": "C4H8N2O", "Melting Point": "265-266 \u00b0C"}}