{"cas_no": "18536-91-9", "cn_name": "N-\u7678\u57fa\u4e09\u4e59\u6c27\u57fa\u7845\u70f7", "en_name": ["Dodecyltriethoxysilane", "Silane, dodecyltriethoxy-", "Dodecyltriethoxysilane", "1-(Triethoxysilyl)dodecane", "Triethoxydodecylsilane", "LS 6570", "NSC 139837", "n-Dodecyltriethoxysilane", "S 08550", "D 3383", "KH 3041", "SICO-N 1223"], "SMILES": "[Si](CCCCCCCCCCCC)(OCC)(OCC)OCC", "physical_data": {"Molecular Weight": "332.59", "Molecular Formula": "C18H40O3Si", "Boiling Point": "152-153 \u00b0C @ Press: 3 Torr", "Density": "0.884 g/cm\u00b3 @ Temp: 25 \u00b0C"}}