{"cas_no": "18531-99-2", "cn_name": "S-1,1'-\u8054-2-\u8418\u915a", "en_name": ["(-)-Binol", "[1,1\u2032-Binaphthalene]-2,2\u2032-diol, (1S)-", "[1,1\u2032-Binaphthalene]-2,2\u2032-diol, (S)-(-)-", "[1,1\u2032-Binaphthalene]-2,2\u2032-diol, (S)-", "(1S)-[1,1\u2032-Binaphthalene]-2,2\u2032-diol", "(S)-2,2\u2032-Dihydroxy-1,1\u2032-binaphthyl", "(-)-1,1\u2032-Bi-2-naphthol", "(S)-(-)-Bi-2-naphthol", "(-)-2,2\u2032-Dihydroxy-1,1\u2032-binaphthyl", "(-)-Bi-\u03b2-naphthol", "(-)-2,2\u2032-Dihydroxy-1,1\u2032-binaphthalene", "(S)-1,1\u2032-Bi-2-naphthol", "(S)-(-)-[1,1\u2032-Binaphthalene]-2,2\u2032-diol", "(S)-[1,1\u2032-Binaphthalene]-2,2\u2032-diol", "(S)-(-)-2,2\u2032-Dihydroxy-1,1\u2032-binaphthyl", "(S)-(-)-1,1\u2032-Bi-2-naphthol", "(-)-2,2\u2032-Dihydroxy-1,1\u2032-dinaphthyl", "(-)-S-1,1\u2032-Binaphthyl-2,2\u2032-diol", "(S)-BINOL", "(-)-1,1\u2032-Binaphthyl-2,2\u2032-diol", "(S)-(-)-2,2\u2032-Dihydroxy-1,1\u2032-binaphthalene", "(-)-Binol", "(S)-1,1\u2032-Binaphthyl-2,2\u2032-diol", "(-)-(1S)-[1,1\u2032-Binaphthalene]-2,2\u2032-diol", "(S)-1,1\u2032-Bis-2-naphthol", "(S)-2,2\u2032-Dihydroxy-1,1\u2032-binaphthalene", "(S)-1,1\u2032-Binaphthol", "(S)-1,1\u2032-Bi-2,2\u2032-naphthol", "(S)-(-)-BINOL", "(-)-1,1\u2032-Bis(2-naphthol)", "(-)-2,2\u2032-Binaphthol", "(S)-Binaphthol", "S-(-)-Binaphthol", "(S)-Binaphth-2-ol", "(-)-2,2\u2032-Dihydroxydinaphthyl"], "SMILES": "OC1=C(C2=C(C=C1)C=CC=C2)C=3C4=C(C=CC3O)C=CC=C4", "physical_data": {"Molecular Weight": "286.32", "Molecular Formula": "C20H14O2", "Melting Point": "211-212 \u00b0C"}}