{"cas_no": "18531-94-7", "cn_name": "R-1,1'-\u8054-2-\u8418\u915a", "en_name": ["(+)-BINOL", "[1,1\u2032-Binaphthalene]-2,2\u2032-diol, (1R)-", "[1,1\u2032-Binaphthalene]-2,2\u2032-diol, (R)-(+)-", "[1,1\u2032-Binaphthalene]-2,2\u2032-diol, (R)-", "(1R)-[1,1\u2032-Binaphthalene]-2,2\u2032-diol", "(R)-(+)-2,2\u2032-Dihydroxy-1,1\u2032-binaphthyl", "(R)-(+)-Bi-\u03b2-naphthol", "(+)-2,2\u2032-Dihydroxy-1,1\u2032-binaphthyl", "(R)-1,1\u2032-Bis-2-naphthol", "(+)-Bi-\u03b2-naphthol", "(+)-2,2\u2032-Dihydroxy-1,1\u2032-binaphthalene", "(+)-1,1\u2032-Binaphthyl-2,2\u2032-diol", "(+)-(R)-2,2\u2032-Dihydroxy-1,1\u2032-binaphthyl", "(R)-(+)-1,1\u2032-Bi-2-naphthol", "(+)-2,2\u2032-Dihydroxy-1,1\u2032-dinaphthyl", "(R)-(+)-[1,1\u2032-Binaphthalene]-2,2\u2032-diol", "(+)-1,1\u2032-Bi-2-naphthol", "(R)-2,2\u2032-Dihydroxy-1,1\u2032-binaphthyl", "(R)-1,1\u2032-Bi-2-naphthol", "(R)-[1,1\u2032-Binaphthalene]-2,2\u2032-diol", "(R)-Bi-2-naphthol", "(R)-BINOL", "(R)-1,1\u2032-Binaphth-2,2\u2032-diol", "(R)-2,2\u2032-Dihydroxy-1,1\u2032-binaphthalene", "(+)-Bi-2-naphthol", "(+)-(1R)-[1,1\u2032-Binaphthalene]-2,2\u2032-diol", "(R)-1,1\u2032-Bi-2-naphthol", "(R)-2,2\u2032-Binaphthol", "(R)-1,1\u2032-Binaphthyl-2,2\u2032-diol", "(R)-(+)-2,2\u2032-Dihydroxy-1,1\u2032-binaphthalene", "(R)-(+)-BINOL", "(+)-1,1\u2032-Bis(2-naphthol)", "(+)-2,2\u2032-Binaphthol", "(R)-Binaphthol", "(+)-BINOL", "(+)-2,2\u2032-Dihydroxydinaphthyl"], "SMILES": "OC1=C(C2=C(C=C1)C=CC=C2)C=3C4=C(C=CC3O)C=CC=C4", "physical_data": {"Molecular Weight": "286.32", "Molecular Formula": "C20H14O2", "Melting Point": "206-208 \u00b0C"}}