{"cas_no": "18546-37-7", "cn_name": "2-\u8131\u6c27-L-\u6838\u7cd6", "en_name": ["2-Deoxy-L-ribose", "L-erythro-Pentose, 2-deoxy-", "2-Deoxy-L-erythro-pentose", "2-Deoxy-L-ribose", "L-2-Deoxyribose", "2-Deoxy-l-ribose"], "SMILES": "C(C(CO)O)(CC=O)O", "physical_data": {"Molecular Weight": "134.13", "Molecular Formula": "C5H10O4", "Melting Point": "80-83 \u00b0C"}}