{"cas_no": "18547-93-8", "cn_name": "\u53cc-3-\u7532\u57fa\u4e19\u70ef\u57fa\u6c27\u4e19\u57fa\u5316\u56db\u7532\u57fa\u4e8c\u7845\u6c27\u70f7", "en_name": ["1,1\u2032-[(1,1,3,3-Tetramethyl-1,3-disiloxanediyl)di-3,1-propanediyl] bis(2-methyl-2-propenoate)", "2-Propenoic acid, 2-methyl-, 1,1\u2032-[(1,1,3,3-tetramethyl-1,3-disiloxanediyl)di-3,1-propanediyl] ester", "2-Propenoic acid, 2-methyl-, (1,1,3,3-tetramethyl-1,3-disiloxanediyl)di-3,1-propanediyl ester", "Methacrylic acid, (tetramethyldisiloxanylene)bis(trimethylene) ester", "1,1\u2032-[(1,1,3,3-Tetramethyl-1,3-disiloxanediyl)di-3,1-propanediyl] bis(2-methyl-2-propenoate)", "TSL 9706", "1,3-Bis(3-methacryloxypropyl)-1,1,3,3-tetramethyldisiloxane", "1,3-Bis[3-(methacryloyloxy)propyl]tetramethyldisiloxane", "1,3-Bis[3-(methacryloyloxy)propyl]-1,1,3,3-tetramethyldisiloxane", "SIB 1402.0", "1,3-Bis(3-methacryloxypropyl)tetramethyldisiloxane", "Gelest 1402.0"], "SMILES": "[Si](O[Si](CCCOC(C(C)=C)=O)(C)C)(CCCOC(C(C)=C)=O)(C)C", "physical_data": {"Molecular Weight": "386.63", "Molecular Formula": "C18H34O5Si2", "Boiling Point": "127 \u00b0C @ Press: 3 Torr", "Density": "0.966 g/cm\u00b3 @ Temp: 25 \u00b0C"}}