{"cas_no": "18549-40-1", "cn_name": "\u5355\u4e19\u916e\u8461\u8404\u7cd6", "en_name": ["1,2-O-Isopropylidene-\u03b1-D-glucofuranose", "\u03b1-D-Glucofuranose, 1,2-O-(1-methylethylidene)-", "Glucofuranose, 1,2-O-isopropylidene-, \u03b1-D-", "Glucofuranose, 1,2-O-isopropylidene-", "Furo[2,3-d]-1,3-dioxole, \u03b1-D-glucofuranose deriv.", "1,2-O-(1-Methylethylidene)-\u03b1-D-glucofuranose", "1,2-O-Isopropylidene-\u03b1-D-glucofuranose", "1,2-Mono-O-isopropylidene-\u03b1-D-glucofuranose", "NSC 1697"], "SMILES": "OC1C2C(OC1C(CO)O)OC(C)(C)O2", "physical_data": {"Molecular Weight": "220.22", "Molecular Formula": "C9H16O6", "Melting Point": "160-160.5 \u00b0C"}}