{"cas_no": "18542-45-5", "cn_name": "1-(\u7094\u4e19\u57fa\u6c27)\u8418", "en_name": ["1-Naphthalenyl propargyl ether", "Naphthalene, 1-(2-propyn-1-yloxy)-", "Naphthalene, 1-(2-propynyloxy)-", "1-(2-Propyn-1-yloxy)naphthalene", "1-Naphthyl 2-propynyl ether", "3-(1-Naphthyloxy)-1-propyne", "1-Naphthalenyl propargyl ether", "1-Prop-2-ynyloxynaphthalene", "1-Prop-2-ynoxynaphthalene", "1-(Prop-2-yn-1-yloxy)naphthalene"], "SMILES": "O(CC#C)C=1C2=C(C=CC1)C=CC=C2", "physical_data": {"Molecular Weight": "182.22", "Molecular Formula": "C13H10O", "Melting Point": "69-74 \u00b0C"}}