{"cas_no": "1854-25-7", "cn_name": "D-\u8461\u7cd6\u919b\u916e", "en_name": ["D-Glucosone", "D-arabino-Hexos-2-ulose", "D-arabino-Hexosulose", "Glucosone, D-", "D-Glucosone", "2-Ketoglucose", "2-Keto-D-glucose", "Mannosone", "Glucosone", "Fructosone"], "SMILES": "C(C(C(C=O)=O)O)(C(CO)O)O", "physical_data": {"Molecular Weight": "178.14", "Molecular Formula": "C6H10O6", "Melting Point": "85-96 \u00b0C (decomp)"}}