{"cas_no": "18542-42-2", "cn_name": "2-(\u786b\u4ee3\u7532\u57fa)\u4e59\u80fa", "en_name": ["2-(Methylthio)ethylamine", "Ethanamine, 2-(methylthio)-", "Ethylamine, 2-(methylthio)-", "S-Methylcysteamine", "2-(Methylthio)ethylamine", "2-Aminoethyl methyl sulfide", "1-Aza-4-thiapentane", "1-Amino-2-(methylthio)ethane", "2-(Methylthio)ethanamine", "2-Methylmercaptoethylamine", "2-(Methylsulfanyl)ethylamine", "2-(Methylsulfanyl)ethanamine", "2-(Methylsulfanyl)ethan-1-amine", "2-(Methylthio)-1-ethanamine"], "SMILES": "C(CN)SC", "physical_data": {"Molecular Weight": "91.18", "Molecular Formula": "C3H9NS", "Boiling Point": "146-148 \u00b0C"}}