{"cas_no": "1855-63-6", "cn_name": "\u73af\u5df1\u70ef-1-\u7532\u8148", "en_name": ["1-Cyclohexene-1-carbonitrile", "1-Cyclohexene-1-carbonitrile", "1-Cyanocyclohexene", "1-Cyclohexenyl cyanide", "1-Cyano-1-cyclohexene", "NSC 177484", "1-Cyclohexenecarbonitrile"], "SMILES": "C(#N)C=1CCCCC1", "physical_data": {"Molecular Weight": "107.15", "Molecular Formula": "C7H9N", "Boiling Point": "77-87 \u00b0C @ Press: 12 Torr", "Density": "0.94725 g/cm\u00b3 @ Temp: 20 \u00b0C"}}