{"cas_no": "18559-94-9", "cn_name": "\u6c99\u4e01\u80fa\u9187", "en_name": ["Salbutamol", "1,3-Benzenedimethanol, \u03b11-[[(1,1-dimethylethyl)amino]methyl]-4-hydroxy-", "m-Xylene-\u03b1,\u03b1\u2032-diol, \u03b11-[(tert-butylamino)methyl]-4-hydroxy-", "\u03b11-[[(1,1-Dimethylethyl)amino]methyl]-4-hydroxy-1,3-benzenedimethanol", "\u03b11-tert-Butylaminomethyl-4-hydroxy-m-xylene-\u03b11,\u03b13-diol", "Salbutamol", "AH 3365", "1-(tert-Butylaminomethyl)-4-hydroxy-m-xylene-\u03b11,\u03b13-diol", "2-(tert-Butylamino)-1-[(4-hydroxy-3-hydroxymethyl)phenyl]ethanol", "Albuterol", "Sultanol", "Ventolin", "m-Xylene \u03b1,\u03b1\u2032-diol, \u03b1-[(tert-butylamino)methyl]-4-hydroxy-", "Saventol", "Volmax", "(\u00b1)-Salbutamol", "DL-N-tert-Butyl-2(4-hydroxy-3-hydroxymethylphenyl)2-hydroxyethylamine", "dl-Salbutamol", "dl-Albuterol", "(\u00b1)-Albuterol", "Proventil HFA", "Sultanol N", "Ventoline", "Eolene", "Spreor", "Airomir", "Ventalin Inhaler", "Proventil Inhaler", "Etinoline", "Sabumol", "4-Hydroxy-3-(hydroxymethyl)-\u03b1-[[(1,1-dimethylethyl)amino]methyl]benzenemethanol", "Salamol EB", "Salbiar", "ProAir HFA", "Ventolin HFA"], "SMILES": "C(CNC(C)(C)C)(O)C1=CC(CO)=C(O)C=C1", "physical_data": {"Molecular Weight": "239.31", "Molecular Formula": "C13H21NO3", "Melting Point": "151 \u00b0C"}}