{"cas_no": "18583-60-3", "cn_name": "\u4e09\u5421\u5511\u5549\u57fa\u787c\u6c22\u94be", "en_name": ["Borate(1-), hydrotris(1H-pyrazolato-\u03baN1)-, potassium (1:1), (T-4)-", "Borate(1-), hydrotris(1H-pyrazolato-\u03baN1)-, potassium (1:1), (T-4)-", "Borate(1-), hydrotris(pyrazolato)-, potassium", "Borate(1-), hydrotris(1H-pyrazolato-N1)-, potassium, (T-4)-", "Borate(1-), hydrotris(1H-pyrazolato-\u03baN1)-, potassium, (T-4)-", "1H-Pyrazole, boron complex", "Potassium hydrotris(pyrazolato)borate(1-)", "Potassium trispyrazolylborate", "Potassium hydrotris(pyrazol-1-yl)borate", "Potassium hydridotris(1-pyrazolyl)borate", "Potassium hydrotris(pyrazolyl)borate", "Potassium hydrotris(pyrazolyl)borate(1-)", "Potassium hydrotripyrazolylborate", "Potassium tris(1-pyrazolyl)borate", "Potassium tripyrazolylborate", "Potassium tris(1-pyrazolyl)hydroborate", "Potassium hydrotris(1H-pyrazol-1-yl)borate", "Potassium hydrotris(1-pyrazolyl)borate(1-)", "Potassium hydrotris(1-pyrazolyl)borate", "Potassium hydrotris(pyrazolato)borate", "Potassium tris(1-pyrazolyl)borohydride"], "SMILES": "[B+3]([H-])([N-]1C=CC=N1)([N-]2C=CC=N2)[N-]3C=CC=N3.[K+]", "physical_data": {"Molecular Weight": "", "Molecular Formula": "C9H10BN6.K", "Melting Point": "185-190 \u00b0C"}}