{"cas_no": "18586-39-5", "cn_name": "2-\uff08\u4e8c\u82ef\u57fa\u7f9f\u4e9a\u81a6\u57fa\uff09\u4e59\u57fa\u4e09\u4e59\u6c27\u57fa\u7845\u70f7", "en_name": ["Diphenyl[2-(triethoxysilyl)ethyl]phosphine", "Phosphine, diphenyl[2-(triethoxysilyl)ethyl]-", "Diphenyl[2-(triethoxysilyl)ethyl]phosphine", "[2-(Triethoxysilyl)ethyl]diphenylphosphine", "\u03b2-Diphenylphosphinoethyltriethoxysilane", "[2-(Diphenylphosphino)ethyl]triethoxysilane", "MicroSi MS 805", "SID 4558.0"], "SMILES": "P(CC[Si](OCC)(OCC)OCC)(C1=CC=CC=C1)C2=CC=CC=C2", "physical_data": {"Molecular Weight": "376.50", "Molecular Formula": "C20H29O3PSi", "Boiling Point": "182 \u00b0C @ Press: 1.3 Torr", "Density": "1.050 g/cm\u00b3"}}