{"cas_no": "18586-22-6", "cn_name": "1,5-DIVINYL-3,3-DIPHENYL-1,1,5,5-TETRA-METHYLTRISILOXANE", "en_name": ["1,5-Diethenyl-1,1,5,5-tetramethyl-3,3-diphenyltrisiloxane", "Trisiloxane, 1,5-diethenyl-1,1,5,5-tetramethyl-3,3-diphenyl-", "Trisiloxane, 1,1,5,5-tetramethyl-3,3-diphenyl-1,5-divinyl-", "1,5-Diethenyl-1,1,5,5-tetramethyl-3,3-diphenyltrisiloxane", "1,1,5,5-Tetramethyl-3,3-diphenyl-1,5-divinyltrisiloxane", "SID 4609.0", "1,5-Divinyl-3,3-diphenyl-1,1,5,5-tetramethyltrisiloxane", "RMS 312 (siloxane)", "RMS 312", "1,1,5,5-Tetramethyl-1,5-divinyl-3,3-diphenyltrisiloxane"], "SMILES": "[Si](O[Si](C=C)(C)C)(O[Si](C=C)(C)C)(C1=CC=CC=C1)C2=CC=CC=C2", "physical_data": {"Molecular Weight": "384.69", "Molecular Formula": "C20H28O2Si3", "Boiling Point": "141-144 \u00b0C @ Press: 1 Torr", "Density": "0.976 g/cm\u00b3"}}