{"cas_no": "18598-63-5", "cn_name": "L-\u534a\u80f1\u6c28\u9178\u7532\u916f\u76d0\u9178\u76d0", "en_name": ["L-Cysteine, methyl ester, hydrochloride", "L-Cysteine, methyl ester, hydrochloride (1:1)", "Cysteine, methyl ester, hydrochloride, L-", "L-Cysteine, methyl ester, hydrochloride", "Cysteine methyl ester hydrochloride", "Methyl cysteine hydrochloride", "Methyl \u03b2-mercaptoalanine hydrochloride", "Methyl \u03b1-amino-\u03b2-mercaptopropionate hydrochloride", "Acdrile", "Visclair", "Mecysteine hydrochloride", "Methyl 2-amino-3-mercaptopropionate hydrochloride", "Pectite", "Zeotin", "Actiol", "(R)-Cysteine methyl ester hydrochloride", "Methyl cysteinate hydrochloride", "Methyl (R)-2-amino-3-mercaptopropanoate hydrochloride", "Methyl L-cysteinate hydrochloride", "LJ 48", "NSC 161611", "(R)-Methyl 2-amino-3-mercaptopropanoate hydrochloride"], "SMILES": "C(C(OC)=O)(CS)N.Cl", "physical_data": {"Molecular Weight": "", "Molecular Formula": "C4H9NO2S.ClH", "Melting Point": "140.5 \u00b0C"}}