{"cas_no": "1859-09-2", "cn_name": "\u6c18\u4ee3\u4e59\u9187", "en_name": ["Ethan-1,1-d2-ol", "Ethan-1,1-d2-ol", "Ethyl-1,1-d2 alcohol", "Ethanol-1,1-d2", "1,1-Dideuterioethanol"], "SMILES": "C(C)(O)([2H])[2H]", "physical_data": {"Molecular Weight": "", "Molecular Formula": "C2H4D2O", "Boiling Point": "75-78 \u00b0C", "Density": "0.824 g/cm\u00b3 @ Temp: 20 \u00b0C"}}