{"cas_no": "18598-74-8", "cn_name": "L-\u5f02\u4eae\u6c28\u9178\u7532\u916f\u76d0\u9178\u76d0", "en_name": ["L-Isoleucine, methyl ester, hydrochloride (1:1)", "L-Isoleucine, methyl ester, hydrochloride (1:1)", "Isoleucine, methyl ester, hydrochloride, L-", "L-Isoleucine, methyl ester, hydrochloride", "Methyl isoleucinate hydrochloride", "Isoleucine methyl ester hydrochloride", "Methyl L-isoleucinate hydrochloride"], "SMILES": "C(C(CC)C)(C(OC)=O)N.Cl", "physical_data": {"Molecular Weight": "", "Molecular Formula": "C7H15NO2.ClH", "Melting Point": "100.5-101 \u00b0C"}}