{"cas_no": "18595-14-7", "cn_name": "4-\u6c28\u57fa-3-\u7532\u57fa\u82ef\u7532\u9178\u7532\u916f", "en_name": ["Methyl 4-amino-3-methylbenzoate", "Benzoic acid, 4-amino-3-methyl-, methyl ester", "m-Toluic acid, 4-amino-, methyl ester", "Methyl 4-amino-3-methylbenzoate", "(4-(Methoxycarbonyl)-2-methylphenyl)amine", "Methyl 3-methyl-4-aminobenzoate", "4-Amino-3-methylbenzoic acid methyl ester"], "SMILES": "C(OC)(=O)C1=CC(C)=C(N)C=C1", "physical_data": {"Molecular Weight": "165.19", "Molecular Formula": "C9H11NO2", "Melting Point": "62-62.5 \u00b0C"}}