{"cas_no": "18594-05-3", "cn_name": "4-\u73af\u5df1\u57fa\u6811\u8102", "en_name": ["1-(4-Cyclohexylphenyl)ethanone", "Ethanone, 1-(4-cyclohexylphenyl)-", "Acetophenone, 4\u2032-cyclohexyl-", "1-(4-Cyclohexylphenyl)ethanone", "4-Cyclohexylacetophenone", "p-Cyclohexylacetophenone", "4\u2032-Cyclohexylacetophenone", "1-(4-Cyclohexylphenyl)ethan-1-one"], "SMILES": "C(C)(=O)C1=CC=C(C=C1)C2CCCCC2", "physical_data": {"Molecular Weight": "202.29", "Molecular Formula": "C14H18O", "Boiling Point": "165-173 \u00b0C @ Press: 10 Torr", "Melting Point": "68-69 \u00b0C", "Density": "1.0509 g/cm\u00b3 @ Temp: 20 \u00b0C"}}