{"cas_no": "18595-18-1", "cn_name": "3-\u6c28\u57fa-4-\u7532\u57fa\u82ef\u7532\u9178\u7532\u916f", "en_name": ["Benzoic acid, 3-amino-4-methyl-, methyl ester", "Benzoic acid, 3-amino-4-methyl-, methyl ester", "p-Toluic acid, 3-amino-, methyl ester", "Methyl 3-amino-4-methylbenzoate", "3-Amino-4-methylbenzoic acid methyl ester", "NSC 356832", "2-Methyl-5-methoxycarbonylaniline", "Methyl 3-amino-4-methylbenzoic acid"], "SMILES": "C(OC)(=O)C1=CC(N)=C(C)C=C1", "physical_data": {"Molecular Weight": "165.19", "Molecular Formula": "C9H11NO2", "Melting Point": "114.5-115.2 \u00b0C"}}