{"cas_no": "18595-16-9", "cn_name": "2-\u6c28\u57fa-5-\u7532\u57fa\u82ef\u7532\u9178\u7532\u916f", "en_name": ["Benzoic acid, 2-amino-5-methyl-, methyl ester", "Benzoic acid, 2-amino-5-methyl-, methyl ester", "m-Toluic acid, 6-amino-, methyl ester", "Methyl 5-methylanthranilate", "Methyl 2-amino-5-methylbenzoate", "2-Amino-5-methylbenzoic acid methyl ester"], "SMILES": "C(OC)(=O)C1=C(N)C=CC(C)=C1", "physical_data": {"Molecular Weight": "165.19", "Molecular Formula": "C9H11NO2", "Melting Point": "69-70 \u00b0C"}}