{"cas_no": "18599-22-9", "cn_name": "4-\u6eb4-3,3,4,4-\u56db\u6c1f\u4e01\u70ef", "en_name": ["4-Bromo-3,3,4,4-tetrafluoro-1-butene", "1-Butene, 4-bromo-3,3,4,4-tetrafluoro-", "4-Bromo-3,3,4,4-tetrafluoro-1-butene"], "SMILES": "C(C(Br)(F)F)(C=C)(F)F", "physical_data": {"Molecular Weight": "206.96", "Molecular Formula": "C4H3BrF4", "Boiling Point": "42 \u00b0C", "Density": "1.537 g/cm\u00b3 @ Temp: 25 \u00b0C"}}