{"cas_no": "18591-82-7", "cn_name": "6-\u7532\u57fa-3-\u6c28\u57fa\u54d2\u55ea", "en_name": ["3-Amino-6-methylpyridazine", "3-Pyridazinamine, 6-methyl-", "Pyridazine, 3-amino-6-methyl-", "6-Methyl-3-pyridazinamine", "3-Amino-6-methylpyridazine", "6-Methylpyridazin-3-amine"], "SMILES": "CC1=CC=C(N)N=N1", "physical_data": {"Molecular Weight": "109.13", "Molecular Formula": "C5H7N3", "Melting Point": "224-225 \u00b0C"}}