{"cas_no": "18599-20-7", "cn_name": "1,4-\u4e8c\u6eb4-1,1,2,2-\u56db\u6c1f\u4e01\u70f7", "en_name": ["1,4-Dibromo-1,1,2,2-tetrafluorobutane", "Butane, 1,4-dibromo-1,1,2,2-tetrafluoro-", "1,4-Dibromo-1,1,2,2-tetrafluorobutane"], "SMILES": "C(C(Br)(F)F)(CCBr)(F)F", "physical_data": {"Molecular Weight": "287.88", "Molecular Formula": "C4H4Br2F4", "Boiling Point": "66.6 \u00b0C @ Press: 61 Torr"}}