{"cas_no": "18592-13-7", "cn_name": "6-(\u6c2f\u7532\u57fa)\u8132\u5627\u5576", "en_name": ["6-(Chloromethyl)-2,4(1H,3H)-pyrimidinedione", "2,4(1H,3H)-Pyrimidinedione, 6-(chloromethyl)-", "Uracil, 6-(chloromethyl)-", "6-(Chloromethyl)-2,4(1H,3H)-pyrimidinedione", "6-(Chloromethyl)uracil", "6-(Chloromethyl)pyrimidine-2,4(1H,3H)-dione", "6-(Chloromethyl)-1,2,3,4-tetrahydropyrimidine-2,4-dione", "Uracyl chloride"], "SMILES": "C(Cl)C1=CC(=O)NC(=O)N1", "physical_data": {"Molecular Weight": "160.56", "Molecular Formula": "C5H5ClN2O2", "Melting Point": "207-209 \u00b0C"}}