{"cas_no": "18600-59-4", "cn_name": "\u7d2b\u5916\u7ebf\u5438\u6536\u5242UV-3638", "en_name": ["UV 3638", "4H-3,1-Benzoxazin-4-one, 2,2\u2032-(1,4-phenylene)bis-", "4H-3,1-Benzoxazin-4-one, 2,2\u2032-p-phenylenebis-", "2,2\u2032-(1,4-Phenylene)bis[4H-3,1-benzoxazin-4-one]", "Cyasorb UV 3638", "2,2\u2032-p-Phenylenebis[4H-3,1-benzoxazin-4-one]", "2,2\u2032-(1,4-Phenylene)bis[3,1-benzoxazin-4-one]", "2,2\u2032-p-Phenylenebis(3,1-benzoxazin-4-one)", "CEi-P", "2,2\u2032-(1,4-Phenylene)bis(4H-3,1-benzoxazin-4-one)", "Pionin ZA 101", "CEi-P-A", "UV 0901", "UV-BO", "UV 3638", "Eversorb 58", "2,2\u2032-(1,4-Phenylene)bis(4H-benzo[d][1,3]oxazin-4-one)", "Cyasorb 3638", "2-[4-(4-Oxo-3,1-benzoxazin-2-yl)phenyl]-3,1-benzoxazin-4-one", "Cyasorb UV 3638F", "UV 3638F"], "SMILES": "O=C1C=2C(N=C(O1)C3=CC=C(C=C3)C4=NC=5C(C(=O)O4)=CC=CC5)=CC=CC2", "physical_data": {"Molecular Weight": "368.34", "Molecular Formula": "C22H12N2O4", "Melting Point": "315-317 \u00b0C"}}