{"cas_no": "1860-60-2", "cn_name": "(3-(\u82c4\u6c27\u57fa)-4-\u7532\u6c27\u57fa\u82ef\u57fa)\u7532\u9187", "en_name": ["4-Methoxy-3-(phenylmethoxy)benzenemethanol", "Benzenemethanol, 4-methoxy-3-(phenylmethoxy)-", "Benzyl alcohol, 3-(benzyloxy)-4-methoxy-", "4-Methoxy-3-(phenylmethoxy)benzenemethanol", "3-(Benzyloxy)-4-methoxybenzyl alcohol", "[3-(Benzyloxy)-4-methoxyphenyl]methanol", "NSC 131750", "4-Methoxy-3-benzyloxybenzyl alcohol"], "SMILES": "O(CC1=CC=CC=C1)C2=C(OC)C=CC(CO)=C2", "physical_data": {"Molecular Weight": "244.29", "Molecular Formula": "C15H16O3", "Melting Point": "70-71 \u00b0C"}}