{"cas_no": "18607-90-4", "cn_name": "\u5361\u67af\u9187", "en_name": ["Kakuol", "1-Propanone, 1-(6-hydroxy-1,3-benzodioxol-5-yl)-", "Propiophenone, 2\u2032-hydroxy-4\u2032,5\u2032-(methylenedioxy)-", "1-(6-Hydroxy-1,3-benzodioxol-5-yl)-1-propanone", "Kakuol", "2-Hydroxy-4,5-methylenedioxypropiophenone"], "SMILES": "C(CC)(=O)C=1C=C2C(=CC1O)OCO2", "physical_data": {"Molecular Weight": "194.18", "Molecular Formula": "C10H10O4", "Melting Point": "110 \u00b0C"}}