{"cas_no": "18600-42-5", "cn_name": "4-\u785d\u57fa\u82c4\u80fa\u76d0\u9178\u76d0", "en_name": ["Benzenemethanamine, 4-nitro-, hydrochloride (1:1)", "Benzenemethanamine, 4-nitro-, hydrochloride (1:1)", "Benzylamine, p-nitro-, monohydrochloride", "Benzenemethanamine, 4-nitro-, monohydrochloride", "Benzylamine, p-nitro-, hydrochloride", "p-Nitrobenzylamine hydrochloride", "4-Nitrobenzylamine hydrochloride", "4-Nitrobenzenemethanamine hydrochloride", "(4-Nitrophenyl)methanamine hydrochloride"], "SMILES": "N(=O)(=O)C1=CC=C(CN)C=C1.Cl", "physical_data": {"Molecular Weight": "", "Molecular Formula": "C7H8N2O2.ClH", "Melting Point": "225 \u00b0C"}}