{"cas_no": "18609-17-1", "cn_name": "\u69f2\u76ae\u7d203-O-\u69d0\u7cd6", "en_name": ["Quercetin 3-O-sophoroside", "4H-1-Benzopyran-4-one, 2-(3,4-dihydroxyphenyl)-3-[(2-O-\u03b2-D-glucopyranosyl-\u03b2-D-glucopyranosyl)oxy]-5,7-dihydroxy-", "Flavone, 3,3\u2032,4\u2032,5,7-pentahydroxy-, 3-(2-O-\u03b2-D-glucopyranosyl-\u03b2-D-glucopyranoside)", "Flavone, 3,3\u2032,4\u2032,5,7-pentahydroxy-, 3-\u03b2-D-sophoroside", "2-(3,4-Dihydroxyphenyl)-3-[(2-O-\u03b2-D-glucopyranosyl-\u03b2-D-glucopyranosyl)oxy]-5,7-dihydroxy-4H-1-benzopyran-4-one", "Quercetin 3-\u03b2-sophoroside", "Q 6", "Quercetin 3-O-sophoroside", "Quercetin 3-\u03b2-D-sophoroside", "Baimaside", "Quercetin 3-O-(2-O-\u03b2-D-glucopyranosyl)-\u03b2-D-glucopyranoside", "Quercetin-3-O-\u03b2-D-glucosyl-(2\u21921)-\u03b2-D-glucoside", "Quercetin 3-O-\u03b2-D-glucopyranosyl(1\u21922)-\u03b2-D-glucopyranoside"], "SMILES": "O(C1=C(OC=2C(C1=O)=C(O)C=C(O)C2)C3=CC(O)=C(O)C=C3)C4C(OC5OC(CO)C(O)C(O)C5O)C(O)C(O)C(CO)O4", "physical_data": {"Molecular Weight": "626.52", "Molecular Formula": "C27H30O17", "Melting Point": "198-200 \u00b0C"}}