{"cas_no": "1860-26-0", "cn_name": "2-\u4e59\u57fa-N,N-\u53cc(2-\u4e59\u5df1\u57fa)-1-\u5df1\u80fa", "en_name": ["Tris(2-ethylhexyl)amine", "1-Hexanamine, 2-ethyl-N,N-bis(2-ethylhexyl)-", "Trihexylamine, 2,2\u2032,2\u2032\u2032-triethyl-", "2-Ethyl-N,N-bis(2-ethylhexyl)-1-hexanamine", "Tris(2-ethylhexyl)amine", "Tri(2-ethylhexyl)amine", "TEHA"], "SMILES": "N(CC(CCCC)CC)(CC(CCCC)CC)CC(CCCC)CC", "physical_data": {"Molecular Weight": "353.67", "Molecular Formula": "C24H51N", "Boiling Point": "120-125 \u00b0C @ Press: 0.1 Torr"}}