{"cas_no": "18609-16-0", "cn_name": "\u8131\u4e59\u9170\u57fa\u5370\u695d\u7d20", "en_name": ["Deacetylnimbin", "2H-Cyclopenta[b]naphtho[2,3-d]furan-10-acetic acid, 2-(3-furanyl)-3,3a,4a,5,5a,6,9,9a,10,10a-decahydro-5-hydroxy-6-(methoxycarbonyl)-1,6,9a,10a-tetramethyl-9-oxo-, methyl ester, (2R,3aR,4aS,5R,5aR,6R,9aR,10S,10aR)-", "2H-Cyclopenta[b]naphtho[2,3-d]furan-10-acetic acid, 6\u03b2-carboxy-2\u03b1-(3-furyl)-3,3a\u03b2,4a\u03b2,5,5a\u03b1,6,9,9a,10,10a-decahydro-5\u03b1-hydroxy-1,6,9a\u03b2,10a\u03b2-tetramethyl-9-oxo-, dimethyl ester", "18,24-Dinor-11,12-secochola-2,13,20,22-tetraene-4,11-dicarboxylic acid, 7,15:21,23-diepoxy-6-hydroxy-4,8-dimethyl-1-oxo-, dimethyl ester, (4\u03b1,5\u03b1,6\u03b1,7\u03b1,15\u03b2,17\u03b1)-", "Nimbic acid, dimethyl ester", "Deacetylnimbin", "6-Deacetylnimbin", "Desacetylnimbin", "(+)-Desacetylnimbin", "6-Desacetylnimbin"], "SMILES": "CC12C(CC(OC)=O)C3(C)C(C(O)C1OC4C2=C(C)C(C4)C=5C=COC5)C(C(OC)=O)(C)C=CC3=O", "physical_data": {"Molecular Weight": "498.56", "Molecular Formula": "C28H34O8", "Melting Point": "190-195 \u00b0C"}}