{"cas_no": "186028-80-8", "cn_name": "2-\u7532\u57fa\u6c28\u57fa-1-(3,4-\u4e9a\u7532\u4e8c\u6c27\u82ef\u57fa)-1-\u4e19\u916e\u76d0\u9178\u76d0", "en_name": ["Methylone hydrochloride", "1-Propanone, 1-(1,3-benzodioxol-5-yl)-2-(methylamino)-, hydrochloride (1:1)", "1-Propanone, 1-(1,3-benzodioxol-5-yl)-2-(methylamino)-, hydrochloride", "Methylone hydrochloride", "1-Benzo[1,3]dioxol-5-yl-2-methylamino-propan-1-one hydrochloride", "3,4-Methylenedioxymethcathinone hydrochloride"], "SMILES": "C(C(NC)C)(=O)C=1C=C2C(=CC1)OCO2.Cl", "physical_data": {"Molecular Weight": "", "Molecular Formula": "C11H13NO3.ClH", "Melting Point": "225-227 \u00b0C (decomp)"}}