{"cas_no": "1861-32-1", "cn_name": "\u6c2f\u915e\u9178\u4e8c\u7532\u916f", "en_name": ["Dacthal", "1,4-Benzenedicarboxylic acid, 2,3,5,6-tetrachloro-, 1,4-dimethyl ester", "Terephthalic acid, tetrachloro-, dimethyl ester", "1,4-Benzenedicarboxylic acid, 2,3,5,6-tetrachloro-, dimethyl ester", "Chlorthal-methyl", "Dacthal", "DAC 893", "DCPA", "Dimethyl tetrachloroterephthalate", "Dimethyl 2,3,5,6-tetrachloroterephthalate", "Tetrachloroterephthalic acid dimethyl ester", "Chlorthal-dimethyl", "Dac 4", "TCTP", "Chlorthal dimethyl ester", "Tetral", "2,3,5,6-Tetrachloro-1,4-benzenedicarboxylic acid dimethyl ester", "NSC 155745", "Cepos", "DCPA (herbicide)", "1,4-Dimethyl 2,3,5,6-tetrachlorobenzene-1,4-dicarboxylate"], "SMILES": "C(OC)(=O)C1=C(Cl)C(Cl)=C(C(OC)=O)C(Cl)=C1Cl", "physical_data": {"Molecular Weight": "331.96", "Molecular Formula": "C10H6Cl4O4", "Boiling Point": "365 \u00b0C", "Melting Point": "155-156 \u00b0C"}}