{"cas_no": "18618-55-8", "cn_name": "\u6c2f\u5316\u94c8", "en_name": ["Cerium trichloride heptahydrate", "Cerium chloride (CeCl3), hydrate (1:7)", "Cerium chloride (CeCl3), heptahydrate", "Cerous chloride heptahydrate", "Cerium trichloride heptahydrate", "Cerium (III) chloride heptahydrate", "CeCl3.7H2O"], "SMILES": "[Ce](Cl)(Cl)Cl.O", "physical_data": {"Molecular Weight": "", "Molecular Formula": "CeCl3.7H2O", "Melting Point": "103 \u00b0C"}}