{"cas_no": "1861-40-1", "cn_name": "\u6c1f\u8349\u80fa", "en_name": ["Benfluralin", "Benzenamine, N-butyl-N-ethyl-2,6-dinitro-4-(trifluoromethyl)-", "p-Toluidine, N-butyl-N-ethyl-\u03b1,\u03b1,\u03b1-trifluoro-2,6-dinitro-", "N-Butyl-N-ethyl-2,6-dinitro-4-(trifluoromethyl)benzenamine", "EL 110", "Benefin", "Binnell", "N-Butyl-2,6-dinitro-N-ethyl-4-trifluoromethylaniline", "N-Butyl-N-ethyl-\u03b1,\u03b1,\u03b1-trifluoro-2,6-dinitro-p-toluidine", "\u03b1,\u03b1,\u03b1,Trifluoro-2,6-dinitro-N,N-ethylbutyl-p-toluidine", "Balan", "N-Butyl-N-ethyl-4-trifluoromethyl-2,6-trinitroaniline", "Benfluralin", "N-Ethyl-N-butyl-2,6-dinitro-4-trifluoromethylaniline", "Bonalan", "Benephin", "2,6-Dinitro-4-trifluoromethyl-N-n-butyl-N-ethylaniline", "N-Butyl-N-ethyl-2,6-dinitro-4-trifluoromethylaniline", "Flubalex", "Bethrodine", "Benefex", "4-Trifluoromethyl-2,6-dinitro-N-ethyl-N-butylaniline", "Quilan", "Banafine", "Balfin", "Benfluraline", "Bhulan", "Carpidor", "Emblem", "Pel-Tech", "Benalan", "Benefine", "Benafine"], "SMILES": "N(CCCC)(CC)C1=C(N(=O)=O)C=C(C(F)(F)F)C=C1N(=O)=O", "physical_data": {"Molecular Weight": "335.28", "Molecular Formula": "C13H16F3N3O4", "Boiling Point": "148-149 \u00b0C @ Press: 7 Torr", "Melting Point": "65-66.5 \u00b0C"}}