{"cas_no": "18618-64-9", "cn_name": "8-\u5341\u4e94\u80fa", "en_name": ["8-Pentadecanamine", "8-Pentadecanamine", "Octylamine, 1-heptyl-", "1-Heptyloctylamine", "8-Pentadecylamine"], "SMILES": "C(CCCCCCC)(CCCCCCC)N", "physical_data": {"Molecular Weight": "227.43", "Molecular Formula": "C15H33N", "Boiling Point": "157 \u00b0C @ Press: 12 Torr"}}