{"cas_no": "1862-88-0", "cn_name": "\u90bb\u7f9f\u82c4\u57fa\u7532\u57fa\u9170\u80fa", "en_name": ["2-Hydroxy-N-methylbenzamide", "Benzamide, 2-hydroxy-N-methyl-", "Salicylamide, N-methyl-", "2-Hydroxy-N-methylbenzamide", "N-Methylsalicylamide", "N-Methyl-o-hydroxybenzamide", "N-Methyl-2-hydroxybenzamide", "NSC 522443"], "SMILES": "C(NC)(=O)C1=C(O)C=CC=C1", "physical_data": {"Molecular Weight": "151.16", "Molecular Formula": "C8H9NO2", "Melting Point": "89 \u00b0C"}}