{"cas_no": "18622-23-6", "cn_name": "4-\u8054\u82ef\u57fa\u7fa7\u9178\u80bc", "en_name": ["[1,1\u2032-Biphenyl]-4-carboxylic acid, hydrazide", "[1,1\u2032-Biphenyl]-4-carboxylic acid, hydrazide", "4-Biphenylcarboxylic acid, hydrazide", "p-Phenylbenzoic acid hydrazide", "p-Phenylbenzhydrazide", "4-Phenylbenzhydrazide", "1-Phenylbenzene-4-carbohydrazide", "[1,1\u2032-Biphenyl]-4-carbohydrazide", "NSC 234750"], "SMILES": "C(NN)(=O)C1=CC=C(C=C1)C2=CC=CC=C2", "physical_data": {"Molecular Weight": "212.25", "Molecular Formula": "C13H12N2O", "Melting Point": "189 \u00b0C"}}