{"cas_no": "18621-17-5", "cn_name": "N-\u4e8c\u82ef\u7532\u57fa\u6c2e\u6742\u73af\u4e01\u70f7-3-\u9187", "en_name": ["1-Benzhydrylazetidin-3-ol", "3-Azetidinol, 1-(diphenylmethyl)-", "1-(Diphenylmethyl)-3-azetidinol", "1-Benzhydrylazetidin-3-ol", "1-Benzhydryl-3-hydroxyazetidine", "N-(Diphenylmethyl)azetidin-3-ol", "1-(Diphenylmethyl)-3-hydroxyazetidine", "1-Benzhydryl-3-azetanol", "NSC 319045", "3-Hydroxy-1-(diphenylmethyl)azetidine", "N-(Diphenylmethyl)-3-hydroxyazetidine", "N-Benzhydryl-3-azetidinol", "N-Benzhydryl-3-hydroxyazetidine"], "SMILES": "C(N1CC(O)C1)(C2=CC=CC=C2)C3=CC=CC=C3", "physical_data": {"Molecular Weight": "239.31", "Molecular Formula": "C16H17NO", "Melting Point": "115 \u00b0C"}}