{"cas_no": "186296-23-1", "cn_name": "(S)-N-\u4e59\u9170-1-(4-\u6eb4\u82ef\u57fa)\u4e59\u80fa", "en_name": ["N-[(1S)-1-(4-Bromophenyl)ethyl]acetamide", "Acetamide, N-[(1S)-1-(4-bromophenyl)ethyl]-", "Acetamide, N-[1-(4-bromophenyl)ethyl]-, (S)-", "N-[(1S)-1-(4-Bromophenyl)ethyl]acetamide", "(S)-N-[1-(4-Bromophenyl)ethyl]acetamide", "(S)-N-[1-(4-Bromophenyl)ethyl]ethanamide"], "SMILES": "C(NC(C)=O)(C)C1=CC=C(Br)C=C1", "physical_data": {"Molecular Weight": "242.11", "Molecular Formula": "C10H12BrNO", "Melting Point": "133.8-134.1 \u00b0C"}}