{"cas_no": "1862-07-3", "cn_name": "6-\u4e8c\u7532\u80fa\u57fa-1-\u5df1\u9187", "en_name": ["6-(Dimethylamino)-1-hexanol", "1-Hexanol, 6-(dimethylamino)-", "6-(Dimethylamino)-1-hexanol", "6-(Dimethylamino)hexanol", "Kaolizer 25", "(6-Hydroxyhexyl)dimethylamine", "NSC 165607", "Kao 25", "KL 25"], "SMILES": "C(CCCCO)CN(C)C", "physical_data": {"Molecular Weight": "145.24", "Molecular Formula": "C8H19NO", "Boiling Point": "120-125 \u00b0C @ Press: 12 Torr"}}