{"cas_no": "18621-75-5", "cn_name": "1,4-\u4e8c\u4e59\u9170\u6c27\u57fa-2-\u4e01\u70ef", "en_name": ["1,4-Diacetoxy-2-butene", "2-Butene-1,4-diol, 1,4-diacetate", "2-Butene-1,4-diol, diacetate", "1,4-Diacetoxy-2-butene", "2-Butenylene acetate", "1,4-Diacetoxybutene", "2-Butenylene diacetate", "Butene-1,4-diol, diacetate"], "SMILES": "C(OC(C)=O)C=CCOC(C)=O", "physical_data": {"Molecular Weight": "172.18", "Molecular Formula": "C8H12O4", "Boiling Point": "114 \u00b0C @ Press: 15 Torr", "Density": "1.0826 g/cm\u00b3 @ Temp: 420 \u00b0C"}}