{"cas_no": "18625-22-4", "cn_name": "D-\u4eae\u6c28\u9170\u57fa-\u7518\u6c28\u9170\u57fa-\u7518\u6c28\u9178", "en_name": ["D-Leucylglycylglycine", "Glycine, D-leucylglycyl-", "Glycine, N-(N-D-leucylglycyl)-", "D-Leucylglycylglycine", "NSC 523307", "2-[[2-[[(2R)-2-Amino-4-methylpentanoyl]amino]acetyl]amino]acetic acid"], "SMILES": "C(C(CC(C)C)N)(NCC(NCC(O)=O)=O)=O", "physical_data": {"Molecular Weight": "245.28", "Molecular Formula": "C10H19N3O4", "Melting Point": "225 \u00b0C"}}