{"cas_no": "18623-11-5", "cn_name": "\u5341\u516b\u70f7\u57fa\u7845\u70f7", "en_name": ["Octadecylsilane", "Silane, octadecyl-", "Octadecylsilane", "Octadecyltrihydridosilane"], "SMILES": "C(CCCCCCCCC)CCCCCCCC[SiH3]", "physical_data": {"Molecular Weight": "284.60", "Molecular Formula": "C18H40Si", "Boiling Point": "195 \u00b0C @ Press: 15 Torr", "Melting Point": "29 \u00b0C", "Density": "0.794 g/cm\u00b3"}}