{"cas_no": "18621-18-6", "cn_name": "3-\u7f9f\u57fa\u6c2e\u6742\u73af\u4e01\u70f7\u76d0\u9178\u76d0", "en_name": ["3-Hydroxyazetidine hydrochloride", "3-Azetidinol, hydrochloride (1:1)", "3-Azetidinol, hydrochloride", "3-Hydroxyazetidine hydrochloride", "Azetidine-3-ol hydrochloride", "Azetidin-3-ol hydrochloride", "3-Hydroxyazetedine hydrochloride"], "SMILES": "OC1CNC1.Cl", "physical_data": {"Molecular Weight": "", "Molecular Formula": "C3H7NO.ClH", "Melting Point": "91-92 \u00b0C"}}