{"cas_no": "1863-63-4", "cn_name": "\u82ef\u7532\u9178\u94f5", "en_name": ["Ammonium benzoate", "Benzoic acid, ammonium salt (1:1)", "Benzoic acid, ammonium salt", "Ammonium benzoate", "Vulnoc AB", "Vulnoc ABS"], "SMILES": "C(O)(=O)C1=CC=CC=C1.N", "physical_data": {"Molecular Weight": "", "Molecular Formula": "C7H6O2.H3N", "Melting Point": "198 \u00b0C (decomp)", "Density": "1.260 g/cm\u00b3"}}