{"cas_no": "18636-98-1", "cn_name": "2-\u7532\u57fa\u82ef\u7532\u8112\u76d0\u9178\u76d0", "en_name": ["Benzenecarboximidamide, 2-methyl-, hydrochloride (1:1)", "Benzenecarboximidamide, 2-methyl-, hydrochloride (1:1)", "o-Toluamidine, monohydrochloride", "Benzenecarboximidamide, 2-methyl-, monohydrochloride", "2-Methylbenzamidine hydrochloride", "2-Methylbenzimidamide hydrochloride", "2-Methylbenzene-1-carboximidamide hydrochloride"], "SMILES": "C(=N)(N)C1=C(C)C=CC=C1.Cl", "physical_data": {"Molecular Weight": "", "Molecular Formula": "C8H10N2.ClH", "Melting Point": "249-250 \u00b0C"}}