{"cas_no": "18635-45-5", "cn_name": "2,3-\u4e8c\u6c28\u57fa\u4e19\u9178\u6c22\u6eb4\u9178\u76d0", "en_name": ["Alanine, 3-amino-, hydrobromide (1:1)", "Alanine, 3-amino-, hydrobromide (1:1)", "Propionic acid, 2,3-diamino-, monohydrobromide, DL-", "DL-Alanine, 3-amino-, monohydrobromide", "Alanine, 3-amino-, monohydrobromide", "DL-2,3-Diaminopropanoic acid hydrobromide", "(\u00b1)-2,3-Diaminopropionic acid hydrobromide", "2,3-Diaminopropanoic acid hydrobromide"], "SMILES": "C(C(O)=O)(CN)N.Br", "physical_data": {"Molecular Weight": "", "Molecular Formula": "C3H8N2O2.BrH", "Melting Point": "&gt;236 \u00b0C (decomp)"}}