{"cas_no": "186392-43-8", "cn_name": "5-CHLORO-N-[(1S,2R)-2-HYDROXY-3-(METHOXYMETHYLAMINO)-3-OXO-1-(PHENYLMETHYL)PROPYL]-1H-INDOLE-2-CARBOXAMIDE", "en_name": ["5-Chloro-N-[(1S,2R)-2-hydroxy-3-(methoxymethylamino)-3-oxo-1-(phenylmethyl)propyl]-1H-indole-2-carboxamide", "1H-Indole-2-carboxamide, 5-chloro-N-[(1S,2R)-2-hydroxy-3-(methoxymethylamino)-3-oxo-1-(phenylmethyl)propyl]-", "1H-Indole-2-carboxamide, 5-chloro-N-[2-hydroxy-3-(methoxymethylamino)-3-oxo-1-(phenylmethyl)propyl]-, [R-(R*,S*)]-", "5-Chloro-N-[(1S,2R)-2-hydroxy-3-(methoxymethylamino)-3-oxo-1-(phenylmethyl)propyl]-1H-indole-2-carboxamide", "CP 316819", "GPi 819"], "SMILES": "C(NC(CC1=CC=CC=C1)C(C(N(OC)C)=O)O)(=O)C=2NC=3C(C2)=CC(Cl)=CC3", "physical_data": {"Molecular Weight": "415.87", "Molecular Formula": "C21H22ClN3O4", "Melting Point": "192 \u00b0C"}}