{"cas_no": "18638-99-8", "cn_name": "3,4,5-\u4e09\u7532\u6c27\u57fa\u82c4\u80fa", "en_name": ["3,4,5-Trimethoxybenzylamine", "Benzenemethanamine, 3,4,5-trimethoxy-", "Benzylamine, 3,4,5-trimethoxy-", "3,4,5-Trimethoxybenzenemethanamine", "3,4,5-Trimethoxybenzylamine", "3,4,5-Trimethoxyphenylmethylamine", "NSC 101336", "(3,4,5-Trimethoxyphenyl)methanamine", "3,4,5-Tris(methyloxy)benzylamine"], "SMILES": "O(C)C1=C(OC)C=C(CN)C=C1OC", "physical_data": {"Molecular Weight": "197.23", "Molecular Formula": "C10H15NO3", "Boiling Point": "122 \u00b0C"}}