{"cas_no": "1864-94-4", "cn_name": "\u7532\u9178\u82ef\u916f", "en_name": ["Phenyl formate", "Formic acid, phenyl ester", "Phenyl formate", "Phenoxyformaldehyde"], "SMILES": "O(C=O)C1=CC=CC=C1", "physical_data": {"Molecular Weight": "122.12", "Molecular Formula": "C7H6O2", "Boiling Point": "78 \u00b0C @ Press: 14 Torr", "Melting Point": "33-37 \u00b0C", "Density": "1.0786 g/cm\u00b3 @ Temp: 15 \u00b0C"}}