{"cas_no": "18640-74-9", "cn_name": "2-\u5f02\u4e01\u57fa\u567b\u5511", "en_name": ["2-Isobutylthiazole", "Thiazole, 2-(2-methylpropyl)-", "Thiazole, 2-isobutyl-", "2-(2-Methylpropyl)thiazole", "2-Isobutylthiazole", "2-Isobutyl-1,3-thiazole", "NSC 290430", "2-(2-Methylpropyl)-1,3-thiazole"], "SMILES": "C(C(C)C)C1=NC=CS1", "physical_data": {"Molecular Weight": "141.23", "Molecular Formula": "C7H11NS", "Boiling Point": "60-62 \u00b0C @ Press: 760 Torr"}}