{"cas_no": "18640-60-3", "cn_name": "1-(5-\u6c2f-2-\u785d\u57fa)\u82ef\u4e59\u916e", "en_name": ["1-(5-Chloro-2-nitrophenyl)ethanone", "Ethanone, 1-(5-chloro-2-nitrophenyl)-", "Acetophenone, 5\u2032-chloro-2\u2032-nitro-", "1-(5-Chloro-2-nitrophenyl)ethanone", "5\u2032-Chloro-2\u2032-nitroacetophenone", "NSC 81223", "1-(5-Chloro-2-nitrophenyl)ethan-1-one"], "SMILES": "N(=O)(=O)C1=C(C(C)=O)C=C(Cl)C=C1", "physical_data": {"Molecular Weight": "199.59", "Molecular Formula": "C8H6ClNO3", "Boiling Point": "162-163 \u00b0C @ Press: 13 Torr", "Melting Point": "63-65 \u00b0C"}}