{"cas_no": "18641-57-1", "cn_name": "\u4fde\u9178\u7518\u6cb9\u916f", "en_name": ["Glyceryl tribehenate", "Docosanoic acid, 1,2,3-propanetriyl ester", "Docosanoin, tri-", "Glyceryl behenate", "Tribehenin", "Glyceryl tribehenate", "Tribehenoylglycerol", "Behenic acid triglyceride", "Tridocosanoin", "Syncrowax HRS", "Syncrowax HRC", "Compritol ATO 888", "Glycerin tribehenate", "Glycerol tribehenate", "Compritol 888ATO", "Lipovol GTB", "Glyceryl tridocosanoate", "Glycerin tribehenic acid ester", "Radia 7515", "Pelemol GTB", "Syncrowax HRC-PA-RB", "Syncrowax HRC-PA-MH", "Dynasan D122", "2,3-Di(docosanoyloxy)propyl docosanoate", "Syncrowax HR-C-FL", "Lipovol GBT"], "SMILES": "C(OC(CCCCCCCCCCCCCCCCCCCCC)=O)(COC(CCCCCCCCCCCCCCCCCCCCC)=O)COC(CCCCCCCCCCCCCCCCCCCCC)=O", "physical_data": {"Molecular Weight": "1059.80", "Molecular Formula": "C69H134O6", "Melting Point": "41 \u00b0C"}}