{"cas_no": "1864-92-2", "cn_name": "3-\u4e59\u6c27\u57fa-N,N-\u4e8c\u4e59\u82ef\u80fa", "en_name": ["3-Ethoxy-N,N-diethylbenzenamine", "Benzenamine, 3-ethoxy-N,N-diethyl-", "m-Phenetidine, N,N-diethyl-", "3-Ethoxy-N,N-diethylbenzenamine", "N,N-Diethyl-3-ethoxyaniline", "1-(Diethylamino)-3-ethoxybenzene", "N,N-Diethyl-m-phenetidine", "m-(Diethylamino)phenetole", "N,N-Diethyl-3-phenetidine", "3-Ethoxy-N,N-diethylaniline", "3-(Diethylamino)-1-ethoxybenzene", "NSC 6262"], "SMILES": "N(CC)(CC)C1=CC(OCC)=CC=C1", "physical_data": {"Molecular Weight": "193.29", "Molecular Formula": "C12H19NO", "Boiling Point": "286 \u00b0C"}}