{"cas_no": "18643-08-8", "cn_name": "\u4e8c\u7532\u57fa\u5341\u516b\u70f7\u57fa\u6c2f\u7845\u70f7", "en_name": ["Octadecyldimethylchlorosilane", "Silane, chlorodimethyloctadecyl-", "Chlorodimethyloctadecylsilane", "Octadecylchlorodimethylsilane", "Chlorooctadecyldimethylsilane", "Dimethyl(octadecyl)silyl chloride", "Dimethyl(octyldecyl)silyl chloride", "Octadecyldimethylchlorosilane", "Dimethyl(octadecyl)chlorosilane", "CDOS", "n-Octadecyldimethylchlorosilane"], "SMILES": "C(CCCCCCCCCCCCCCC)CC[Si](C)(C)Cl", "physical_data": {"Molecular Weight": "347.09", "Molecular Formula": "C20H43ClSi", "Boiling Point": "159 \u00b0C @ Press: 0.1 Torr", "Melting Point": "28-30 \u00b0C"}}