{"cas_no": "18640-58-9", "cn_name": "4-\u6eb4-3-\u785d\u57fa\u82ef\u4e59\u916e", "en_name": ["1-(4-Bromo-3-nitrophenyl)ethanone", "Ethanone, 1-(4-bromo-3-nitrophenyl)-", "Acetophenone, 4\u2032-bromo-3\u2032-nitro-", "1-(4-Bromo-3-nitrophenyl)ethanone", "3\u2032-Nitro-4\u2032-bromoacetophenone", "4\u2032-Bromo-3\u2032-nitroacetophenone", "NSC 111656", "1-(4-Bromo-3-nitrophenyl)ethan-1-one"], "SMILES": "N(=O)(=O)C1=CC(C(C)=O)=CC=C1Br", "physical_data": {"Molecular Weight": "244.04", "Molecular Formula": "C8H6BrNO3", "Melting Point": "116.5 \u00b0C"}}