{"cas_no": "18642-23-4", "cn_name": "\u8865\u9aa8\u8102\u5b9a", "en_name": ["Psoralidin", "6H-Benzofuro[3,2-c][1]benzopyran-6-one, 3,9-dihydroxy-2-(3-methyl-2-buten-1-yl)-", "6H-Benzofuro[3,2-c][1]benzopyran-6-one, 3,9-dihydroxy-2-(3-methyl-2-butenyl)-", "Psoralidin", "3-Benzofurancarboxylic acid, 2-[2,4-dihydroxy-5-(3-methyl-2-butenyl)phenyl]-6-hydroxy-, \u03b4-lactone", "3,9-Dihydroxy-2-(3-methyl-2-buten-1-yl)-6H-benzofuro[3,2-c][1]benzopyran-6-one", "3,9-Dihydroxy-2-(3-methylbut-2-enyl)-[1]benzofuro[3,2-c]chromen-6-one"], "SMILES": "O=C1C2=C(C=3C(O1)=CC(O)=C(CC=C(C)C)C3)OC=4C2=CC=C(O)C4", "physical_data": {"Molecular Weight": "336.34", "Molecular Formula": "C20H16O5", "Melting Point": "315 \u00b0C (decomp)"}}