{"cas_no": "18643-84-0", "cn_name": "2-\u6c2f\u5bf9\u82ef\u4e8c\u7532\u9178\u4e8c\u7532\u916f", "en_name": ["1,4-Benzenedicarboxylic acid, 2-chloro-, 1,4-dimethyl ester", "1,4-Benzenedicarboxylic acid, 2-chloro-, 1,4-dimethyl ester", "Terephthalic acid, chloro-, dimethyl ester", "1,4-Benzenedicarboxylic acid, 2-chloro-, dimethyl ester", "1,4-Dimethyl 2-chlorobenzene-1,4-dicarboxylate", "2-Chloro-1,4-benzenedicarboxylic acid dimethyl ester", "2-Chloroterephthalic acid dimethyl ester"], "SMILES": "C(OC)(=O)C1=C(Cl)C=C(C(OC)=O)C=C1", "physical_data": {"Molecular Weight": "228.63", "Molecular Formula": "C10H9ClO4", "Melting Point": "59-60 \u00b0C"}}