{"cas_no": "18649-93-9", "cn_name": "\u6cfd\u6cfb\u9187 B", "en_name": ["Alisol B", "Dammar-13(17)-en-3-one, 24,25-epoxy-11,23-dihydroxy-, (8\u03b1,9\u03b2,11\u03b2,14\u03b2,23S,24R)-", "8\u03b1,9\u03b2,14\u03b2-Dammar-13(17)-en-3-one, 24,25-epoxy-11\u03b2,23-dihydroxy-, (23S,24R)-", "(8\u03b1,9\u03b2,11\u03b2,14\u03b2,23S,24R)-24,25-Epoxy-11,23-dihydroxydammar-13(17)-en-3-one", "Alisol B", "16-Deoxoalisol C"], "SMILES": "CC12C(C3(C)C(CC1)C(C)(C)C(=O)CC3)C(O)CC=4C2(C)CCC4C(CC(O)C5C(C)(C)O5)C", "physical_data": {"Molecular Weight": "472.70", "Molecular Formula": "C30H48O4", "Melting Point": "166-168 \u00b0C"}}