{"cas_no": "18643-86-2", "cn_name": "\u90bb\u6eb4\u5bf9\u4e8c\u82ef\u7532\u9178\u4e8c\u7532\u916f", "en_name": ["1,4-Dimethyl 2-bromo-1,4-benzenedicarboxylate", "1,4-Benzenedicarboxylic acid, 2-bromo-, 1,4-dimethyl ester", "Terephthalic acid, bromo-, dimethyl ester", "1,4-Benzenedicarboxylic acid, 2-bromo-, dimethyl ester", "1,4-Dimethyl 2-bromo-1,4-benzenedicarboxylate", "Dimethyl monobromoterephthalate", "Dimethyl 2-bromoterephthalate", "Dimethyl bromoterephthalate", "Dimethyl 2-bromobenzene-1,4-dicarboxylate", "1,4-Dimethyl 2-bromobenzene-1,4-dicarboxylate"], "SMILES": "C(OC)(=O)C1=C(Br)C=C(C(OC)=O)C=C1", "physical_data": {"Molecular Weight": "273.08", "Molecular Formula": "C10H9BrO4", "Melting Point": "113-114 \u00b0C"}}