{"cas_no": "18642-44-9", "cn_name": "\u9ec4\u8089\u6960\u78b1", "en_name": ["Actein", "\u03b2-D-Xylopyranoside, (3\u03b2,12\u03b2,16\u03b2,23R,24R,25S,26S)-12-(acetyloxy)-16,23:23,26:24,25-triepoxy-26-hydroxy-9,19-cyclolanostan-3-yl", "Actein", "Spiro[5H-cyclopropa[1\u2032,8\u2032a]naphth[2\u2032,1\u2032:4,5]indeno[2,1-b]pyran-10(2H),2\u2032-[3,6]dioxabicyclo[3.1.0]hexane], \u03b2-D-xylopyranoside deriv.", "9,19-Cyclolanostane, \u03b2-D-xylopyranoside deriv.", "(3\u03b2,12\u03b2,16\u03b2,23R,24R,25S,26S)-12-(Acetyloxy)-16,23:23,26:24,25-triepoxy-26-hydroxy-9,19-cyclolanostan-3-yl \u03b2-D-xylopyranoside", "Shengmating"], "SMILES": "CC12C3C4(C5(C4)C(CC3)C(C)(C)C(OC6C(O)C(O)C(O)CO6)CC5)CC(OC(C)=O)C1(C)C7C(C2)OC8(CC7C)C9C(C)(O9)C(O)O8", "physical_data": {"Molecular Weight": "676.83", "Molecular Formula": "C37H56O11", "Melting Point": "246-250 \u00b0C"}}