{"cas_no": "1865-01-6", "cn_name": "\u7532\u9178\u5bf9\u785d\u57fa\u82ef\u916f", "en_name": ["4-Nitrophenyl formate", "Formic acid, 4-nitrophenyl ester", "Formic acid, p-nitrophenyl ester", "4-Nitrophenyl formate", "p-Nitrophenyl formate", "NSC 154301"], "SMILES": "N(=O)(=O)C1=CC=C(OC=O)C=C1", "physical_data": {"Molecular Weight": "167.12", "Molecular Formula": "C7H5NO4", "Melting Point": "73-74 \u00b0C"}}