{"cas_no": "186598-40-3", "cn_name": "\u53cc\uff08\u53d4\u4e01\u57fa\u6c28\u57fa\uff09\u7845\u70f7", "en_name": ["N,N\u2032-Bis(1,1-dimethylethyl)silanediamine", "Silanediamine, N,N\u2032-bis(1,1-dimethylethyl)-", "N,N\u2032-Bis(1,1-dimethylethyl)silanediamine", "Bis(tert-butylamino)silane", "BTBAS", "N,N\u2032-Bis-tert-butylsilanediamine"], "SMILES": "N(C(C)(C)C)[SiH2]NC(C)(C)C", "physical_data": {"Molecular Weight": "174.36", "Molecular Formula": "C8H22N2Si", "Boiling Point": "167 \u00b0C", "Density": "0.816 g/cm\u00b3"}}