{"cas_no": "1866-15-5", "cn_name": "\u7898\u4ee3\u786b\u4ee3\u4e59\u9170\u80c6\u78b1", "en_name": ["Acetylthiocholine iodide", "Ethanaminium, 2-(acetylthio)-N,N,N-trimethyl-, iodide (1:1)", "Ammonium, (2-mercaptoethyl)trimethyl-, iodide, acetate", "Ethanaminium, 2-(acetylthio)-N,N,N-trimethyl-, iodide", "(2-Mercaptoethyl)trimethylammonium iodide, acetate", "Acetic acid, thio-, S-ester with (2-mercaptoethyl)trimethylammonium iodide", "Acetylthiocholine iodide", "S-Acetylthiocholine iodide", "Acetylthiocholine diiodide", "[2-(Acetylthio)ethyl](trimethyl)ammonium iodide", "[2-(Acetylsulfanyl)ethyl]trimethylazanium iodide"], "SMILES": "C(CSC(C)=O)[N+](C)(C)C.[I-]", "physical_data": {"Molecular Weight": "", "Molecular Formula": "C7H16NOS.I", "Melting Point": "203-204 \u00b0C"}}