{"cas_no": "186685-89-2", "cn_name": "2-(4-\u7532\u9170\u57fa-2-\u7532\u6c27\u57fa\u82ef\u6c27\u57fa)\u4e59\u9170\u80fa", "en_name": ["2-(4-Formyl-2-methoxyphenoxy)acetamide", "Acetamide, 2-(4-formyl-2-methoxyphenoxy)-", "2-(4-Formyl-2-methoxyphenoxy)acetamide"], "SMILES": "O(CC(N)=O)C1=C(OC)C=C(C=O)C=C1", "physical_data": {"Molecular Weight": "209.20", "Molecular Formula": "C10H11NO4", "Melting Point": "84-85 \u00b0C"}}