{"cas_no": "18666-68-7", "cn_name": "\u4e59\u70ef\u57fa\u4e09\u82ef\u57fa\u7845\u70f7", "en_name": ["Triphenylvinylsilane", "Benzene, 1,1\u2032,1\u2032\u2032-(ethenylsilylidyne)tris-", "Silane, triphenylvinyl-", "Silane, ethenyltriphenyl-", "1,1\u2032,1\u2032\u2032-(Ethenylsilylidyne)tris[benzene]", "Triphenylvinylsilane", "Vinyltriphenylsilane", "Triphenylsilylethylene", "NSC 139006", "Ethenyltriphenylsilane"], "SMILES": "[Si](C=C)(C1=CC=CC=C1)(C2=CC=CC=C2)C3=CC=CC=C3", "physical_data": {"Molecular Weight": "286.44", "Molecular Formula": "C20H18Si", "Boiling Point": "190-210 \u00b0C @ Press: 3 Torr", "Melting Point": "58-61 \u00b0C"}}