{"cas_no": "1866-16-6", "cn_name": "(\u4e19\u57fa\u78b3\u9170\u57fa\u786b\u4e59\u57fa)\u4e09\u7532\u57fa\u7898\u5316\u94f5", "en_name": ["Butyrylthiocholine iodide", "Ethanaminium, N,N,N-trimethyl-2-[(1-oxobutyl)thio]-, iodide (1:1)", "Ammonium, (2-mercaptoethyl)trimethyl-, iodide, butyrate", "Ethanaminium, N,N,N-trimethyl-2-[(1-oxobutyl)thio]-, iodide", "(2-Mercaptoethyl)trimethylammonium iodide, butyrate", "Butyric acid, thio-, S-ester with (2-mercaptoethyl)trimethylammonium iodide", "Butyrylthiocholine iodide", "S-Butyrylthiocholine iodide", "2-(Butyrylthio)-N,N,N-trimethylethanaminium iodide"], "SMILES": "C([N+](C)(C)C)CSC(CCC)=O.[I-]", "physical_data": {"Molecular Weight": "", "Molecular Formula": "C9H20NOS.I", "Melting Point": "173 \u00b0C"}}