{"cas_no": "18662-53-8", "cn_name": "\u6b21\u6c2e\u57fa\u4e09\u4e59\u9178\u4e09\u94a0\u76d0", "en_name": ["Trisodium nitrilotriacetate monohydrate", "Glycine, N,N-bis(carboxymethyl)-, sodium salt, hydrate (1:3:1)", "Acetic acid, nitrilotri-, trisodium salt, monohydrate", "Glycine, N,N-bis(carboxymethyl)-, trisodium salt, monohydrate", "Trisodium nitrilotriacetate monohydrate", "Nitrilotriacetic acid trisodium salt monohydrate"], "SMILES": "N(CC(O)=O)(CC(O)=O)CC(O)=O.[Na].O", "physical_data": {"Molecular Weight": "", "Molecular Formula": "C6H9NO6.H2O.3Na", "Melting Point": "340 \u00b0C (decomp)"}}