{"cas_no": "1866-39-3", "cn_name": "\u5bf9\u7532\u57fa\u8089\u6842\u9178", "en_name": ["4-Methylcinnamic acid", "2-Propenoic acid, 3-(4-methylphenyl)-", "Cinnamic acid, p-methyl-", "3-(4-Methylphenyl)-2-propenoic acid", "p-Methylcinnamic acid", "4-Methylcinnamic acid", "3-(p-Tolyl)acrylic acid", "3-(4-Methylphenyl)propenoic acid", "3-(4-Tolyl)acrylic acid", "NSC 66272", "3-(4-Methylphenyl)acrylic acid"], "SMILES": "C(=CC(O)=O)C1=CC=C(C)C=C1", "physical_data": {"Molecular Weight": "162.19", "Molecular Formula": "C10H10O2", "Melting Point": "198-199 \u00b0C"}}