{"cas_no": "186692-46-6", "cn_name": "\u7ec6\u80de\u5468\u671f\u86cb\u767dB\u6fc0\u9176\u6291\u5236\u5242", "en_name": ["Roscovitine", "1-Butanol, 2-[[9-(1-methylethyl)-6-[(phenylmethyl)amino]-9H-purin-2-yl]amino]-, (2R)-", "1-Butanol, 2-[[9-(1-methylethyl)-6-[(phenylmethyl)amino]-9H-purin-2-yl]amino]-, (R)-", "(2R)-2-[[9-(1-Methylethyl)-6-[(phenylmethyl)amino]-9H-purin-2-yl]amino]-1-butanol", "Roscovitine", "CYC 202", "R-Roscovitine", "Seliciclib", "2-(R)-(1-Ethyl-2-hydroxyethylamino)-6-benzylamino-9-isopropylpurine", "Roscovitin", "(R)-Roscovitine", "(2R)-2-[[6-(Benzylamino)-9-propan-2-ylpurin-2-yl]amino]butan-1-ol"], "SMILES": "C(C)(C)N1C=2C(=C(NCC3=CC=CC=C3)N=C(NC(CC)CO)N2)N=C1", "physical_data": {"Molecular Weight": "354.45", "Molecular Formula": "C19H26N6O", "Melting Point": "106-108 \u00b0C"}}