{"cas_no": "1866-31-5", "cn_name": "\u8089\u6842\u9178\u70ef\u4e19\u916f", "en_name": ["Allyl cinnamate", "2-Propenoic acid, 3-phenyl-, 2-propen-1-yl ester", "Cinnamic acid, allyl ester", "2-Propenoic acid, 3-phenyl-, 2-propenyl ester", "Allyl cinnamate", "NSC 20972"], "SMILES": "C(=CC(OCC=C)=O)C1=CC=CC=C1", "physical_data": {"Molecular Weight": "188.22", "Molecular Formula": "C12H12O2", "Boiling Point": "163 \u00b0C @ Press: 17 Torr", "Density": "1.048 g/cm\u00b3 @ Temp: 20 \u00b0C"}}