{"cas_no": "18666-65-4", "cn_name": "\u4e09\u82ef\u6c27\u57fa\u4e59\u70ef\u57fa\u7845\u70f7", "en_name": ["1,1\u2032,1\u2032\u2032-[(Ethenylsilylidyne)tris(oxy)]tris[benzene]", "Benzene, 1,1\u2032,1\u2032\u2032-[(ethenylsilylidyne)tris(oxy)]tris-", "Silane, triphenoxyvinyl-", "Silane, ethenyltriphenoxy-", "1,1\u2032,1\u2032\u2032-[(Ethenylsilylidyne)tris(oxy)]tris[benzene]", "Triphenoxyvinylsilane", "Vinyltriphenoxysilane"], "SMILES": "[Si](OC1=CC=CC=C1)(OC2=CC=CC=C2)(OC3=CC=CC=C3)C=C", "physical_data": {"Molecular Weight": "334.44", "Molecular Formula": "C20H18O3Si", "Boiling Point": "210 \u00b0C @ Press: 7 Torr", "Density": "1.130 g/cm\u00b3 @ Temp: 25 \u00b0C"}}