{"cas_no": "18664-39-6", "cn_name": "4-\u6c30\u57fa\u8089\u6842\u9178", "en_name": ["3-(4-Cyanophenyl)-2-propenoic acid", "2-Propenoic acid, 3-(4-cyanophenyl)-", "Cinnamic acid, p-cyano-", "3-(4-Cyanophenyl)-2-propenoic acid", "4-Cyanocinnamic acid", "p-Cyanocinnamic acid", "NSC 134574"], "SMILES": "C(=CC(O)=O)C1=CC=C(C#N)C=C1", "physical_data": {"Molecular Weight": "173.17", "Molecular Formula": "C10H7NO2", "Melting Point": "254 \u00b0C"}}