{"cas_no": "1866-38-2", "cn_name": "\u95f4\u6c2f\u8089\u6842\u9178", "en_name": ["3-(3-Chlorophenyl)-2-propenoic acid", "2-Propenoic acid, 3-(3-chlorophenyl)-", "Cinnamic acid, m-chloro-", "3-(3-Chlorophenyl)-2-propenoic acid", "m-Chlorocinnamic acid", "3-Chlorocinnamic acid", "NSC 61876", "NSC 623439", "3-(3-Chlorophenyl)acrylic acid"], "SMILES": "C(=CC(O)=O)C1=CC(Cl)=CC=C1", "physical_data": {"Molecular Weight": "182.60", "Molecular Formula": "C9H7ClO2", "Melting Point": "161-162 \u00b0C"}}