{"cas_no": "18671-97-1", "cn_name": "2,6-\u4e8c\u6c2f\u55b9\u5594\u5549", "en_name": ["2,6-Dichloroquinoxaline", "Quinoxaline, 2,6-dichloro-", "2,6-Dichloroquinoxaline"], "SMILES": "ClC1=CC2=C(N=C(Cl)C=N2)C=C1", "physical_data": {"Molecular Weight": "199.04", "Molecular Formula": "C8H4Cl2N2", "Melting Point": "159-160 \u00b0C"}}