{"cas_no": "1867-66-9", "cn_name": "\u76d0\u9178\u6c2f\u6c28\u916e", "en_name": ["Ketamine hydrochloride", "Cyclohexanone, 2-(2-chlorophenyl)-2-(methylamino)-, hydrochloride (1:1)", "Cyclohexanone, 2-(o-chlorophenyl)-2-(methylamino)-, hydrochloride, (\u00b1)-", "Cyclohexanone, 2-(2-chlorophenyl)-2-(methylamino)-, hydrochloride, (\u00b1)-", "Cyclohexanone, 2-(2-chlorophenyl)-2-(methylamino)-, hydrochloride", "(\u00b1)-2-(o-Chlorophenyl)-2-(methylamino)cyclohexanone hydrochloride", "Ketamine hydrochloride", "Ketalar", "Vetalar", "Ketaset", "CI 581", "(\u00b1)-Ketamine hydrochloride", "Ketanest", "Ketolar", "Ketavet 100", "Calipsol", "Kalipsol", "Ketanarkon", "Ketaject", "Ketavet", "CL369", "Ketamil", "Ketmin 50", "2-(2-Chlorophenyl)-2-(methylamino)cyclohexanone hydrochloride", "Vetanarcol"], "SMILES": "N(C)C1(C(=O)CCCC1)C2=C(Cl)C=CC=C2.Cl", "physical_data": {"Molecular Weight": "", "Molecular Formula": "C13H16ClNO.ClH", "Melting Point": "262-263 \u00b0C"}}