{"cas_no": "1867-73-8", "cn_name": "N6-\u7532\u57fa\u817a\u82f7", "en_name": ["N6-Methyladenosine", "Adenosine, N-methyl-", "N-Methyladenosine", "N6-Methyladenosine", "6-Methyladenosine", "6-Methylaminopurine riboside", "6-Methylamino-9-\u03b2-D-ribofuranosylpurine", "6-Methylaminopurine ribonucleoside", "NSC 29409", "6-Methylaminopurine D-riboside", "9-\u03b2-D-Ribofuranosyl-N6-methylaminopurine", "2-(Hydroxymethyl)-5-(6-methylaminopurin-9-yl)oxolane-3,4-diol"], "SMILES": "OC1C(N2C=3C(N=C2)=C(NC)N=CN3)OC(CO)C1O", "physical_data": {"Molecular Weight": "281.27", "Molecular Formula": "C11H15N5O4", "Melting Point": "172 \u00b0C"}}