{"cas_no": "18672-02-1", "cn_name": "2-\u6c28\u57fa-6-\u6c2f\u55b9\u5549", "en_name": ["6-Chloro-2-quinolinamine", "2-Quinolinamine, 6-chloro-", "Quinoline, 2-amino-6-chloro-", "6-Chloro-2-quinolinamine", "6-Chloroquinolin-2-amine", "6-Chloroquinoline-2-amine", "2-Amino-6-chloroquinoline"], "SMILES": "ClC1=CC2=C(N=C(N)C=C2)C=C1", "physical_data": {"Molecular Weight": "178.62", "Molecular Formula": "C9H7ClN2", "Melting Point": "146-150 \u00b0C"}}