{"cas_no": "18677-43-5", "cn_name": "2,4-\u4e8c\u7532\u6c27\u57fa\u5421\u5576", "en_name": ["2,4-Dimethoxypyridine", "Pyridine, 2,4-dimethoxy-", "2,4-Dimethoxypyridine"], "SMILES": "O(C)C=1C=C(OC)N=CC1", "physical_data": {"Molecular Weight": "139.15", "Molecular Formula": "C7H9NO2", "Boiling Point": "200-201 \u00b0C"}}