{"cas_no": "18680-27-8", "cn_name": "(1S,2S,3R,5S)-(+)-2,3-\u848e\u70f7\u4e8c\u9187", "en_name": ["(+)-Pinanediol", "Bicyclo[3.1.1]heptane-2,3-diol, 2,6,6-trimethyl-, (1S,2S,3R,5S)-", "2,3-Pinanediol, (1S,2S,3R,5S)-(+)-", "Bicyclo[3.1.1]heptane-2,3-diol, 2,6,6-trimethyl-, [1S-(1\u03b1,2\u03b1,3\u03b1,5\u03b1)]-", "(1S,2S,3R,5S)-2,6,6-Trimethylbicyclo[3.1.1]heptane-2,3-diol", "2\u03b1,3\u03b1-Pinanediol", "(1S,2S,3R,5S)-(+)-Pinanediol", "(1S,2S,3R,5S)-(+)-Pinane-2,3-diol", "(1S,2S,3R,5S)-2,3-Pinanediol", "(+)-Pinanediol", "(1S,2S,3R,5S)-(+)-2,6,6-Trimethylbicyclo[3.1.1]heptane-2,3-diol", "(1S,2S,5S)-2,6,6-Trimethylbicyclo[3.1.1]heptane-2,3-diol"], "SMILES": "CC1(C)C2CC1CC(O)C2(C)O", "physical_data": {"Molecular Weight": "170.25", "Molecular Formula": "C10H18O2", "Melting Point": "53-56 \u00b0C"}}