{"cas_no": "186826-86-8", "cn_name": "\u76d0\u9178\u83ab\u897f\u6c99\u661f", "en_name": ["Moxifloxacin hydrochloride", "3-Quinolinecarboxylic acid, 1-cyclopropyl-6-fluoro-1,4-dihydro-8-methoxy-7-[(4aS,7aS)-octahydro-6H-pyrrolo[3,4-b]pyridin-6-yl]-4-oxo-, hydrochloride (1:1)", "3-Quinolinecarboxylic acid, 1-cyclopropyl-6-fluoro-1,4-dihydro-8-methoxy-7-(octahydro-6H-pyrrolo[3,4-b]pyridin-6-yl)-4-oxo-, monohydrochloride, (4aS-cis)-", "3-Quinolinecarboxylic acid, 1-cyclopropyl-6-fluoro-1,4-dihydro-8-methoxy-7-[(4aS,7aS)-octahydro-6H-pyrrolo[3,4-b]pyridin-6-yl]-4-oxo-, monohydrochloride", "1-Cyclopropyl-6-fluoro-1,4-dihydro-8-methoxy-7-[(4aS,7aS)-octahydro-6H-pyrrolo[3,4-b]pyridin-6-yl]-4-oxo-3-quinolinecarboxylic acid hydrochloride (1:1)", "Moxifloxacin hydrochloride", "BAY 12-8039", "Avalox", "Avelox", "Octegra", "Lapinix", "Actira", "Avelonm"], "SMILES": "O(C)C1=C2N(C=C(C(O)=O)C(=O)C2=CC(F)=C1N3CC4C(C3)NCCC4)C5CC5.Cl", "physical_data": {"Molecular Weight": "", "Molecular Formula": "C21H24FN3O4.ClH", "Melting Point": "331.00 \u00b0C"}}