{"cas_no": "18686-82-3", "cn_name": "2-\u5def\u57fa-1,3,4-\u567b\u4e8c\u5511", "en_name": ["1,3,4-Thiadiazole-2-thiol", "1,3,4-Thiadiazole-2(3H)-thione", "\u03942-1,3,4-Thiadiazoline-5-thione", "5-Mercapto-1,3,4-thiadiazole", "2-Mercapto-1,3,4-thiadiazole", "1,3,4-Thiadiazole-2-thione", "1,3,4-Thiadiazole-2-thiol", "1,3,4-Thiadiazole-5-thiol", "NSC 184817", "1,3,4-Thiadiazol-2-thione", "CA 1703"], "SMILES": "S=C1NN=CS1", "physical_data": {"Molecular Weight": "118.18", "Molecular Formula": "C2H2N2S2", "Melting Point": "143 \u00b0C"}}