{"cas_no": "1868-85-5", "cn_name": "(\u0391,\u0391,\u0391,2,3,5,6-\u4e03\u6c1f-P-\u7532\u82ef\u57fa)\u80bc", "en_name": ["[2,3,5,6-Tetrafluoro-4-(trifluoromethyl)phenyl]hydrazine", "Hydrazine, [2,3,5,6-tetrafluoro-4-(trifluoromethyl)phenyl]-", "Hydrazine, (heptafluoro-p-tolyl)-", "[2,3,5,6-Tetrafluoro-4-(trifluoromethyl)phenyl]hydrazine", "NSC 170067"], "SMILES": "C(F)(F)(F)C1=C(F)C(F)=C(NN)C(F)=C1F", "physical_data": {"Molecular Weight": "248.10", "Molecular Formula": "C7H3F7N2", "Melting Point": "84 \u00b0C"}}