{"cas_no": "1868-53-7", "cn_name": "\u4e8c\u6eb4\u6c1f\u7532\u70f7", "en_name": ["Dibromofluoromethane", "Methane, dibromofluoro-", "Dibromofluoromethane", "Fluorodibromomethane"], "SMILES": "C(Br)(Br)F", "physical_data": {"Molecular Weight": "191.82", "Molecular Formula": "CHBr2F", "Boiling Point": "64.9 \u00b0C", "Melting Point": "-78 \u00b0C", "Density": "2.4256 g/cm\u00b3 @ Temp: 18.5 \u00b0C"}}