{"cas_no": "18694-40-1", "cn_name": "\u4f9d\u5339\u5511", "en_name": ["Epirizole", "Pyrimidine, 4-methoxy-2-(5-methoxy-3-methyl-1H-pyrazol-1-yl)-6-methyl-", "Pyrimidine, 4-methoxy-2-(5-methoxy-3-methylpyrazol-1-yl)-6-methyl-", "4-Methoxy-2-(5-methoxy-3-methyl-1H-pyrazol-1-yl)-6-methylpyrimidine", "1-(4-Methyl-6-methoxy-2-pyrimidinyl)-3-methyl-5-methoxypyrazole", "DA 398", "Mepirizole", "1-(4-Methoxy-6-methyl-2-pyrimidinyl)-3-methyl-5-methoxypyrazole", "4-Methoxy-2-(5-methoxy-3-methylpyrazol-1-yl)-6-methylpyrimidine", "2-(3-Methyl-5-methoxy-1-pyrazolyl)-4-methoxy-6-methylpyrimidine", "2-(3-Methoxy-5-methylpyrazol-2-yl)-4-methoxy-6-methylpyrimidine", "Mebron", "Epirizole"], "SMILES": "O(C)C=1N(C=2N=C(OC)C=C(C)N2)N=C(C)C1", "physical_data": {"Molecular Weight": "234.25", "Molecular Formula": "C11H14N4O2", "Melting Point": "90-92 \u00b0C"}}