{"cas_no": "1869-24-5", "cn_name": "2-\u4e09\u6c1f\u7532\u57fa\u82ef\u78fa\u9170\u80fa", "en_name": ["2-(Trifluoromethyl)benzenesulfonamide", "Benzenesulfonamide, 2-(trifluoromethyl)-", "o-Toluenesulfonamide, \u03b1,\u03b1,\u03b1-trifluoro-", "2-(Trifluoromethyl)benzenesulfonamide", "2-(Trifluoromethyl)benzene-1-sulfonamide"], "SMILES": "C(F)(F)(F)C1=C(S(N)(=O)=O)C=CC=C1", "physical_data": {"Molecular Weight": "225.19", "Molecular Formula": "C7H6F3NO2S", "Melting Point": "184-185 \u00b0C"}}