{"cas_no": "18698-99-2", "cn_name": "2-\u6c30\u57fa\u82ef\u4e59\u9178", "en_name": ["2-Cyanobenzeneacetic acid", "Benzeneacetic acid, 2-cyano-", "Acetic acid, (o-cyanophenyl)-", "2-Cyanobenzeneacetic acid", "2-Cyanophenylacetic acid", "2-(2-Cyanophenyl)acetic acid", "o-Cyanobenzeneacetic acid"], "SMILES": "C(C(O)=O)C1=C(C#N)C=CC=C1", "physical_data": {"Molecular Weight": "161.16", "Molecular Formula": "C9H7NO2", "Melting Point": "122-123 \u00b0C"}}