{"cas_no": "18696-26-9", "cn_name": "\u82a5\u5b50\u78b1", "en_name": ["Sinapine", "Ethanaminium, 2-[[3-(4-hydroxy-3,5-dimethoxyphenyl)-1-oxo-2-propen-1-yl]oxy]-N,N,N-trimethyl-", "Choline, 4-hydroxy-3,5-dimethoxycinnamate (ester)", "Sinapine", "Ethanaminium, 2-[[3-(4-hydroxy-3,5-dimethoxyphenyl)-1-oxo-2-propenyl]oxy]-N,N,N-trimethyl-", "Cinnamic acid, 4-hydroxy-3,5-dimethoxy-, choline ester", "2-[[3-(4-Hydroxy-3,5-dimethoxyphenyl)-1-oxo-2-propen-1-yl]oxy]-N,N,N-trimethylethanaminium", "Sinapin"], "SMILES": "C(=CC(OCC[N+](C)(C)C)=O)C1=CC(OC)=C(O)C(OC)=C1", "physical_data": {"Molecular Weight": "", "Molecular Formula": "C16H24NO5", "Melting Point": "178 \u00b0C"}}