{"cas_no": "186953-56-0", "cn_name": "4,4'-(2,5-\u544b\u5583\u57fa)\u53cc[N-\u7532\u6c27\u57fa\u82ef\u7532\u8112]", "en_name": ["Pafuramidine", "Benzenecarboximidamide, 4,4\u2032-(2,5-furandiyl)bis[N-methoxy-", "4,4\u2032-(2,5-Furandiyl)bis[N-methoxybenzenecarboximidamide]", "2,5-Bis(4-amidinophenyl)furan-bis-O-methylamidoxime", "Pafuramidine"], "SMILES": "C(NOC)(=N)C1=CC=C(C=2OC(=CC2)C3=CC=C(C(NOC)=N)C=C3)C=C1", "physical_data": {"Molecular Weight": "364.40", "Molecular Formula": "C20H20N4O3", "Melting Point": "192.5-193 \u00b0C"}}