{"cas_no": "18699-48-4", "cn_name": "\u5bf9\u82ef\u4e8c\u7532\u9178\u4e8c\u5f02\u4e01\u916f", "en_name": ["Diisobutyl terephthalate", "1,4-Benzenedicarboxylic acid, 1,4-bis(2-methylpropyl) ester", "Terephthalic acid, diisobutyl ester", "1,4-Benzenedicarboxylic acid, bis(2-methylpropyl) ester", "Diisobutyl terephthalate"], "SMILES": "C(OCC(C)C)(=O)C1=CC=C(C(OCC(C)C)=O)C=C1", "physical_data": {"Molecular Weight": "278.34", "Molecular Formula": "C16H22O4", "Melting Point": "55 \u00b0C"}}