{"cas_no": "18698-97-0", "cn_name": "\u90bb\u6eb4\u82ef\u4e59\u9178", "en_name": ["2-Bromophenylacetic acid", "Benzeneacetic acid, 2-bromo-", "Acetic acid, (o-bromophenyl)-", "2-Bromobenzeneacetic acid", "2-Bromophenylacetic acid", "o-Bromophenylacetic acid", "2-(2-Bromophenyl)acetic acid"], "SMILES": "C(C(O)=O)C1=C(Br)C=CC=C1", "physical_data": {"Molecular Weight": "215.04", "Molecular Formula": "C8H7BrO2", "Melting Point": "109 \u00b0C"}}