{"cas_no": "18691-97-9", "cn_name": "\u7532\u57fa\u82ef\u567b\u9686", "en_name": ["Methabenzthiazuron", "Urea, N-2-benzothiazolyl-N,N\u2032-dimethyl-", "Urea, 1-(2-benzothiazolyl)-1,3-dimethyl-", "N-2-Benzothiazolyl-N,N\u2032-dimethylurea", "1-(2-Benzothiazolyl)-1,3-dimethylurea", "Methabenzthiazuron", "Methbenzthiazuron", "Preparation 5633", "Tribunil", "5633", "Bayer 5653", "Metabenzthiazuron", "Bayer 74283", "BAY 5653", "1,3-Dimethyl-3-(2-benzothiazolyl)urea", "Methibenzuron"], "SMILES": "N(C(NC)=O)(C)C1=NC=2C(S1)=CC=CC2", "physical_data": {"Molecular Weight": "221.28", "Molecular Formula": "C10H11N3OS", "Melting Point": "120 \u00b0C"}}