{"cas_no": "18699-02-0", "cn_name": "\u963f\u514b\u4ed6\u5229", "en_name": ["Actarit", "Benzeneacetic acid, 4-(acetylamino)-", "Acetic acid, (p-acetamidophenyl)-", "4-(Acetylamino)benzeneacetic acid", "4-(N-Acetylamino)phenylacetic acid", "p-Acetamidophenylacetic acid", "MS 932", "4-(Acetylamino)phenylacetic acid", "Actarit", "(4-Acetamidophenyl)acetic acid", "NSC 170317", "2-(4-Acetamidophenyl)acetic acid"], "SMILES": "C(C(O)=O)C1=CC=C(NC(C)=O)C=C1", "physical_data": {"Molecular Weight": "193.20", "Molecular Formula": "C10H11NO3", "Melting Point": "173 \u00b0C"}}