{"cas_no": "18704-37-5", "cn_name": "\u55b9\u5549-8-\u78fa\u9170\u6c2f", "en_name": ["8-Quinolinesulfonyl chloride", "8-Quinolinesulfonyl chloride", "8-Chlorosulfonyl-1-benzazine", "8-Quinolylsulfonyl chloride", "Quinoline-8-sulfonic acid chloride", "8-Quinolinylsulfonyl chloride", "8-Chinolinsulfonyl chloride", "NSC 91506", "8-Chlorosulfonylquinoline"], "SMILES": "S(Cl)(=O)(=O)C=1C2=C(C=CC1)C=CC=N2", "physical_data": {"Molecular Weight": "227.67", "Molecular Formula": "C9H6ClNO2S", "Melting Point": "124-126 \u00b0C"}}