{"cas_no": "18706-39-3", "cn_name": "2-\u4e09\u6c1f\u7532\u57fa\u55b9\u5549-4-\u7fa7\u9178", "en_name": ["2-(Trifluoromethyl)-4-quinolinecarboxylic acid", "4-Quinolinecarboxylic acid, 2-(trifluoromethyl)-", "Cinchoninic acid, 2-(trifluoromethyl)-", "2-(Trifluoromethyl)-4-quinolinecarboxylic acid", "2-Trifluoromethyl-4-carboxyquinoline"], "SMILES": "C(O)(=O)C=1C2=C(N=C(C(F)(F)F)C1)C=CC=C2", "physical_data": {"Molecular Weight": "241.17", "Molecular Formula": "C11H6F3NO2", "Melting Point": "181-182 \u00b0C"}}