{"cas_no": "187035-81-0", "cn_name": "4-\u4e09\u6c1f\u7532\u57fa\u5627\u5576-5-\u7532\u9178\u4e59\u916f", "en_name": ["Ethyl 4-(trifluoromethyl)-5-pyrimidinecarboxylate", "5-Pyrimidinecarboxylic acid, 4-(trifluoromethyl)-, ethyl ester", "Ethyl 4-(trifluoromethyl)-5-pyrimidinecarboxylate"], "SMILES": "C(OCC)(=O)C=1C(C(F)(F)F)=NC=NC1", "physical_data": {"Molecular Weight": "220.15", "Molecular Formula": "C8H7F3N2O2", "Boiling Point": "53-55 \u00b0C @ Press: 0.1 Torr"}}