{"cas_no": "18704-67-1", "cn_name": "4-\u6c2f-2-\u5421\u5511\u82ef\u915a", "en_name": ["4-Chloro-2-(1H-pyrazol-3-yl)phenol", "Phenol, 4-chloro-2-(1H-pyrazol-3-yl)-", "Phenol, 4-chloro-2-pyrazol-3-yl-", "Phenol, 4-chloro-2-[pyrazol-3(or 5)-yl]-", "4-Chloro-2-(1H-pyrazol-3-yl)phenol", "Mycanodin", "4-Chloro-2-(3-pyrazolyl)phenol", "Kr 104"], "SMILES": "OC1=C(C=C(Cl)C=C1)C=2C=CNN2", "physical_data": {"Molecular Weight": "194.62", "Molecular Formula": "C9H7ClN2O", "Melting Point": "150-152 \u00b0C"}}