{"cas_no": "18708-70-8", "cn_name": "2,4,6-\u4e09\u6c2f\u785d\u57fa\u82ef", "en_name": ["2,4,6-Trichloronitrobenzene", "Benzene, 1,3,5-trichloro-2-nitro-", "1,3,5-Trichloro-2-nitrobenzene", "2,4,6-Trichloro-1-nitrobenzene", "2,4,6-Trichloronitrobenzene", "NSC 10244"], "SMILES": "N(=O)(=O)C1=C(Cl)C=C(Cl)C=C1Cl", "physical_data": {"Molecular Weight": "226.44", "Molecular Formula": "C6H2Cl3NO2", "Melting Point": "72 \u00b0C"}}