{"cas_no": "187164-19-8", "cn_name": "\u5362\u7acb\u5eb7\u5511", "en_name": ["Luliconazole", "1H-Imidazole-1-acetonitrile, \u03b1-[(4R)-4-(2,4-dichlorophenyl)-1,3-dithiolan-2-ylidene]-, (\u03b1E)-", "1H-Imidazole-1-acetonitrile, \u03b1-[4-(2,4-dichlorophenyl)-1,3-dithiolan-2-ylidene]-, [R-(E)]-", "(\u03b1E)-\u03b1-[(4R)-4-(2,4-Dichlorophenyl)-1,3-dithiolan-2-ylidene]-1H-imidazole-1-acetonitrile", "NND 502", "Luliconazole", "Lulicon", "Luzu"], "SMILES": "ClC1=C(C=CC(Cl)=C1)C2SC(=C(C#N)N3C=CN=C3)SC2", "physical_data": {"Molecular Weight": "354.28", "Molecular Formula": "C14H9Cl2N3S2", "Melting Point": "151-152 \u00b0C"}}