{"cas_no": "18713-58-1", "cn_name": "\u82ef\u5f02\u4e01\u916e", "en_name": ["4\u2032-Chloroisobutyrophenone", "1-Propanone, 1-(4-chlorophenyl)-2-methyl-", "Propiophenone, 4\u2032-chloro-2-methyl-", "1-(4-Chlorophenyl)-2-methyl-1-propanone", "p-Chloroisobutyrophenone", "4\u2032-Chloro-2-methylpropiophenone", "p-Chlorophenyl isopropyl ketone", "4\u2032-Chloroisobutyrophenone", "4-Chlorophenyl isopropyl ketone"], "SMILES": "C(C(C)C)(=O)C1=CC=C(Cl)C=C1", "physical_data": {"Molecular Weight": "182.65", "Molecular Formula": "C10H11ClO", "Boiling Point": "122-123 \u00b0C @ Press: 25 Torr"}}