{"cas_no": "1871-76-7", "cn_name": "\u4e8c\u82ef\u57fa\u4e59\u9170\u6c2f", "en_name": ["Diphenylacetyl chloride", "Benzeneacetyl chloride, \u03b1-phenyl-", "Acetyl chloride, diphenyl-", "\u03b1-Phenylbenzeneacetyl chloride", "Diphenylacetic acid chloride", "Diphenylacetyl chloride", "\u03b1,\u03b1-Diphenylacetyl chloride", "2,2-Diphenylacetyl chloride", "NSC 120906"], "SMILES": "C(C(Cl)=O)(C1=CC=CC=C1)C2=CC=CC=C2", "physical_data": {"Molecular Weight": "230.69", "Molecular Formula": "C14H11ClO", "Boiling Point": "175-176 \u00b0C @ Press: 17 Torr", "Melting Point": "56.5 \u00b0C"}}