{"cas_no": "1871-96-1", "cn_name": "\u7678\u4e8c\u8148", "en_name": ["Sebaconitrile", "Decanedinitrile", "Sebaconitrile", "1,8-Dicyanooctane", "NSC 39461"], "SMILES": "C(CCCCC#N)CCCC#N", "physical_data": {"Molecular Weight": "164.25", "Molecular Formula": "C10H16N2", "Boiling Point": "204 \u00b0C", "Melting Point": "8.03 \u00b0C", "Density": "0.913 g/cm\u00b3 @ Temp: 20 \u00b0C"}}