{"cas_no": "1871-22-3", "cn_name": "\u6c2f\u5316\u56db\u5511\u84dd", "en_name": ["Blue tetrazolium", "2H-Tetrazolium, 2,2\u2032-(3,3\u2032-dimethoxy[1,1\u2032-biphenyl]-4,4\u2032-diyl)bis[3,5-diphenyl-, chloride (1:2)", "3,3\u2032-(3,3\u2032-Dimethoxy-4,4\u2032-biphenylylene)bis[2,5-diphenyl-2H-tetrazolium chloride]", "2H-Tetrazolium, 3,3\u2032-(3,3\u2032-dimethoxy-4,4\u2032-biphenylylene)bis[2,5-diphenyl-, dichloride", "2H-Tetrazolium, 2,2\u2032-(3,3\u2032-dimethoxy[1,1\u2032-biphenyl]-4,4\u2032-diyl)bis[3,5-diphenyl-, dichloride", "Blue tetrazolium", "BT", "3,3\u2032-Dianisolebis[4,4\u2032-(3,5-diphenyl)tetrazolium chloride]", "3,3\u2032-(3,3\u2032-Dimethoxy-4,4\u2032-biphenylene)bis[2,5-diphenyl-2H-tetrazolium chloride]", "Ditetrazolium chloride", "Tetrazolium blue", "2,2\u2032,5,5\u2032-Tetraphenyl-3,3\u2032-(3,3\u2032-dimethoxy-4,4\u2032-diphenylene)ditetrazolium chloride", "Blue tetrazolium chloride", "2,2\u2032-(m,m\u2032-Dimethoxy-p,p\u2032-biphenylene)bis(3,5-diphenyltetrazolium chloride)", "BT (dye)", "NSC 27623", "Tetrazolium blue chloride"], "SMILES": "O(C)C1=C(N2[N+](=NC(=N2)C3=CC=CC=C3)C4=CC=CC=C4)C=CC(=C1)C5=CC(OC)=C(C=C5)N6[N+](=NC(=N6)C7=CC=CC=C7)C8=CC=CC=C8.[Cl-]", "physical_data": {"Molecular Weight": "", "Molecular Formula": "C40H32N8O2.2Cl", "Melting Point": "242-245 \u00b0C (decomp)"}}