{"cas_no": "1871-57-4", "cn_name": "3-\u6c2f-2-\u6c2f\u7532\u57fa\u4e19\u70ef", "en_name": ["3-Chloro-2-(chloromethyl)-1-propene", "1-Propene, 3-chloro-2-(chloromethyl)-", "Propene, 3-chloro-2-(chloromethyl)-", "3-Chloro-2-(chloromethyl)-1-propene", "2-Chloromethyl-3-chloropropene", "3-Chloro-2-(chloromethyl)propene", "2-Methylene-1,3-dichloropropane", "1,3-Dichloro-2-methylenepropane", "2-Methylenepropane-1,3-dichloride", "1,1-Bis(chloromethyl)ethene", "2-Chloromethyl-3-chloro-1-propene", "2-(Chloromethyl)allyl chloride", "2-Chloromethyl-2-propenyl chloride", "NSC 88138", "1,1-Bis(chloromethyl)ethylene"], "SMILES": "C(CCl)(CCl)=C", "physical_data": {"Molecular Weight": "125.00", "Molecular Formula": "C4H6Cl2", "Boiling Point": "138 \u00b0C", "Melting Point": "-14 \u00b0C", "Density": "1.1782 g/cm\u00b3 @ Temp: 20 \u00b0C"}}