{"cas_no": "18717-73-2", "cn_name": "8-\u82ef\u57fa-8-\u6c2e\u6742\u53cc\u73af[3.2.1]\u8f9b\u70f7-3-\u915a", "en_name": ["N-Benzylnortropine", "8-Azabicyclo[3.2.1]octan-3-ol, 8-(phenylmethyl)-, (3-endo)-", "1\u03b1H,5\u03b1H-Nortropan-3\u03b1-ol, 8-benzyl-", "8-Azabicyclo[3.2.1]octan-3-ol, 8-(phenylmethyl)-, endo-", "Nortropine, 8-benzyl-", "(3-endo)-8-(Phenylmethyl)-8-azabicyclo[3.2.1]octan-3-ol", "8-Benzyl-8-azabicyclo[3.2.1]octan-3\u03b1-ol", "N-Benzylnortropine", "endo-8-Benzyl-8-azabicyclo[3.2.1]octan-3-ol"], "SMILES": "C(N1C2CC(O)CC1CC2)C3=CC=CC=C3", "physical_data": {"Molecular Weight": "217.31", "Molecular Formula": "C14H19NO", "Melting Point": "90 \u00b0C"}}