{"cas_no": "18711-15-4", "cn_name": "4,6-\u4e8c\u6c2f\u975b\u7ea2", "en_name": ["4,6-Dichloro-1H-indole-2,3-dione", "1H-Indole-2,3-dione, 4,6-dichloro-", "Indole-2,3-dione, 4,6-dichloro-", "4,6-Dichloro-1H-indole-2,3-dione", "4,6-Dichloroisatin", "4,6-Dichloro-2,3-indolinedione"], "SMILES": "O=C1C=2C(NC1=O)=CC(Cl)=CC2Cl", "physical_data": {"Molecular Weight": "216.02", "Molecular Formula": "C8H3Cl2NO2", "Melting Point": "250 \u00b0C"}}