{"cas_no": "1871-67-6", "cn_name": "2-\u8f9b\u70ef\u9178", "en_name": ["trans-2-Octenoic acid", "2-Octenoic acid, (2E)-", "2-Octenoic acid, (E)-", "(2E)-2-Octenoic acid", "trans-2-Octenoic acid", "(E)-Oct-2-enoic acid", "(2E)-Oct-2-enoic acid", "(E)-2-Octenoic acid"], "SMILES": "C(CCCCC)=CC(O)=O", "physical_data": {"Molecular Weight": "142.20", "Molecular Formula": "C8H14O2", "Boiling Point": "95-100 \u00b0C @ Press: 0.4 Torr", "Melting Point": "2 \u00b0C", "Density": "0.934 g/cm\u00b3 @ Temp: 25 \u00b0C"}}