{"cas_no": "1871-89-2", "cn_name": "N,N'-\u4e8c(2-\u7f9f\u4e59\u57fa)\u8349\u9170\u80fa", "en_name": ["N1,N2-Bis(2-hydroxyethyl)ethanediamide", "Ethanediamide, N1,N2-bis(2-hydroxyethyl)-", "Oxamide, N,N\u2032-bis(2-hydroxyethyl)-", "Ethanediamide, N,N\u2032-bis(2-hydroxyethyl)-", "N1,N2-Bis(2-hydroxyethyl)ethanediamide", "BK 7", "BK 7 (amide)", "N,N\u2032-Bis(2-hydroxyethyl)oxamide", "NSC 3646"], "SMILES": "C(C(NCCO)=O)(NCCO)=O", "physical_data": {"Molecular Weight": "176.17", "Molecular Formula": "C6H12N2O4", "Melting Point": "168 \u00b0C"}}