{"cas_no": "187227-45-8", "cn_name": "\u5965\u65af\u4ed6\u4f1f\u9178", "en_name": ["Ro 64-0802", "1-Cyclohexene-1-carboxylic acid, 4-(acetylamino)-5-amino-3-(1-ethylpropoxy)-, (3R,4R,5S)-", "1-Cyclohexene-1-carboxylic acid, 4-(acetylamino)-5-amino-3-(1-ethylpropoxy)-, [3R-(3\u03b1,4\u03b2,5\u03b1)]-", "(3R,4R,5S)-4-(Acetylamino)-5-amino-3-(1-ethylpropoxy)-1-cyclohexene-1-carboxylic acid", "GS 4071", "Ro 64-0802", "Oseltamivir acid"], "SMILES": "O(C(CC)CC)C1C(NC(C)=O)C(N)CC(C(O)=O)=C1", "physical_data": {"Molecular Weight": "284.35", "Molecular Formula": "C14H24N2O4", "Melting Point": "185-187 \u00b0C"}}