{"cas_no": "187235-37-6", "cn_name": "(S)-6,7-\u4e8c\u6c22-2-\u785d\u57fa-6-[[4-(\u4e09\u6c1f\u7532\u6c27\u57fa)\u82ef\u57fa]\u7532\u6c27\u57fa]-5H-\u54aa\u5511\u5e76[2,1-B][1,3]\u6076\u55ea", "en_name": ["PA 824", "5H-Imidazo[2,1-b][1,3]oxazine, 6,7-dihydro-2-nitro-6-[[4-(trifluoromethoxy)phenyl]methoxy]-, (6S)-", "5H-Imidazo[2,1-b][1,3]oxazine, 6,7-dihydro-2-nitro-6-[[4-(trifluoromethoxy)phenyl]methoxy]-, (S)-", "(6S)-6,7-Dihydro-2-nitro-6-[[4-(trifluoromethoxy)phenyl]methoxy]-5H-imidazo[2,1-b][1,3]oxazine", "PA 824", "(S)-PA 824", "Pretomanid", "(S)-6-[[4-(Trifluoromethoxy)benzyl]oxy]-6,7-dihydro-2-nitro-5H-imidazo[2,1-b][1,3]oxazine", "(S)-2-Nitro-6-((4-(trifluoromethoxy)benzyl)oxy)-6,7-dihydro-5H-imidazo[2,1-b][1,3]oxazine", "(6S)-2-Nitro-6-[[4-(trifluoromethoxy)phenyl]methoxy]-6,7-dihydro-5H-imidazo[2,1-b][1,3]oxazine"], "SMILES": "N(=O)(=O)C1=CN2C(=N1)OCC(OCC3=CC=C(OC(F)(F)F)C=C3)C2", "physical_data": {"Molecular Weight": "359.26", "Molecular Formula": "C14H12F3N3O5", "Melting Point": "149-150 \u00b0C"}}