{"cas_no": "18720-35-9", "cn_name": "\u4e8c\u73af\u30102,2,2\u3011\u8f9b\u70f7-1,4-\u73af\u5df1\u4e8c\u7fa7\u9178\u5355\u7532\u916f", "en_name": ["1-Methyl bicyclo[2.2.2]octane-1,4-dicarboxylate", "Bicyclo[2.2.2]octane-1,4-dicarboxylic acid, 1-methyl ester", "Bicyclo[2.2.2]octane-1,4-dicarboxylic acid, monomethyl ester", "1-Methyl bicyclo[2.2.2]octane-1,4-dicarboxylate", "4-(Methoxycarbonyl)bicyclo[2.2.2]octane-1-carboxylic acid", "4-(Methoxycarbonyl)bicyclo[2.2.2]octan-1-carboxylic acid", "Bicyclo[2.2.2]octane-1,3-dicarboxylic acid, 1-methyl ester", "1-Methyl bicyclo[2.2.2]octane-1,3-dicarboxylate"], "SMILES": "C(OC)(=O)C12CCC(C(O)=O)(CC1)CC2", "physical_data": {"Molecular Weight": "212.24", "Molecular Formula": "C11H16O4", "Melting Point": "173-176 \u00b0C"}}