{"cas_no": "18728-61-5", "cn_name": "2-(1-\u7f9f\u4e59\u57fa)\u5421\u5576", "en_name": ["\u03b1-Methyl-2-pyridinemethanol", "2-Pyridinemethanol, \u03b1-methyl-", "\u03b1-Methyl-2-pyridinemethanol", "2-Pyridylmethylcarbinol", "2-(1-Hydroxyethyl)pyridine", "Methyl(2-pyridyl)carbinol", "(\u00b1)-1-(2-Pyridyl)ethanol", "1-(2-Pyridyl)ethanol", "1-(2-Pyridinyl)ethanol", "1-(Pyridin-2-yl)ethan-1-ol"], "SMILES": "C(C)(O)C1=CC=CC=N1", "physical_data": {"Molecular Weight": "123.15", "Molecular Formula": "C7H9NO", "Boiling Point": "130 \u00b0C @ Press: 0.8 Torr", "Melting Point": "53-54 \u00b0C"}}