{"cas_no": "18720-65-5", "cn_name": "5-\u7532\u57fa-3-\u5e9a\u9187", "en_name": ["5-Methyl-3-heptanol", "3-Heptanol, 5-methyl-", "5-Methyl-3-heptanol"], "SMILES": "C(C(CC)C)C(CC)O", "physical_data": {"Molecular Weight": "130.23", "Molecular Formula": "C8H18O", "Boiling Point": "172 \u00b0C", "Melting Point": "-91.2 \u00b0C", "Density": "0.8493 g/cm\u00b3 @ Temp: 0 \u00b0C"}}