{"cas_no": "18729-48-1", "cn_name": "3-\u7532\u57fa\u73af\u620a\u9187", "en_name": ["3-Methylcyclopentanol", "Cyclopentanol, 3-methyl-", "3-Methylcyclopentanol", "3-Methylcyclopentan-1-ol"], "SMILES": "CC1CC(O)CC1", "physical_data": {"Molecular Weight": "100.16", "Molecular Formula": "C6H12O", "Boiling Point": "148.5 \u00b0C", "Density": "0.9120 g/cm\u00b3 @ Temp: 20 \u00b0C"}}