{"cas_no": "18725-37-6", "cn_name": "\u8fbe\u897f\u53f8\u5766", "en_name": ["N,S-Diacetylcysteine", "L-Cysteine, N,S-diacetyl-", "Cysteine, N-acetyl-, acetate (ester), L-", "L-Cysteine, N-acetyl-, acetate (ester)", "Cysteine, N-acetyl-, acetate", "Acetic acid, thio-, S-ester with N-acetyl-L-cysteine", "N,S-Diacetyl-L-cysteine", "N-Acetylcysteine S-acetate", "Dacisteine", "N,S-Diacetylcysteine", "(2R)-3-(Acetylsulfanyl)-2-acetamidopropanoic acid"], "SMILES": "C(CSC(C)=O)(NC(C)=O)C(O)=O", "physical_data": {"Molecular Weight": "205.23", "Molecular Formula": "C7H11NO4S", "Melting Point": "111-112 \u00b0C"}}