{"cas_no": "18720-66-6", "cn_name": "6-\u7532\u57fa-3-\u5e9a\u9187", "en_name": ["6-Methyl-3-heptanol", "3-Heptanol, 6-methyl-", "6-Methyl-3-heptanol", "(\u00b1)-6-Methyl-3-heptanol"], "SMILES": "C(CCC(C)C)(CC)O", "physical_data": {"Molecular Weight": "130.23", "Molecular Formula": "C8H18O", "Boiling Point": "165-166 \u00b0C", "Melting Point": "-61 \u00b0C", "Density": "0.8084 g/cm\u00b3"}}