{"cas_no": "1873-54-7", "cn_name": "3-\u4e59\u57fa\u55b9\u5549", "en_name": ["3-Ethylquinoline", "Quinoline, 3-ethyl-", "3-Ethylquinoline"], "SMILES": "C(C)C1=CC2=C(N=C1)C=CC=C2", "physical_data": {"Molecular Weight": "157.21", "Molecular Formula": "C11H11N", "Boiling Point": "266 \u00b0C", "Melting Point": "170-172 \u00b0C", "Density": "1.0343 g/cm\u00b3 @ Temp: 35 \u00b0C"}}