{"cas_no": "1873-92-3", "cn_name": "\u70ef\u4e19\u57fa\u4e8c\u6c2f\u7532\u57fa\u7845\u70f7", "en_name": ["Dichloromethyl-2-propen-1-ylsilane", "Silane, dichloromethyl-2-propen-1-yl-", "Silane, allyldichloromethyl-", "Silane, dichloromethyl-2-propenyl-", "Dichloromethyl-2-propen-1-ylsilane", "Allyldichloromethylsilane", "Allylmethyldichlorosilane"], "SMILES": "C([Si](C)(Cl)Cl)C=C", "physical_data": {"Molecular Weight": "155.10", "Molecular Formula": "C4H8Cl2Si", "Boiling Point": "119.5 \u00b0C", "Density": "1.076 g/cm\u00b3"}}