{"cas_no": "18733-15-8", "cn_name": "\u4e8c\u7532\u57fa[2-(\u7532\u6c27\u57fa\u7fb0\u57fa)\u4e59\u57fa]\u81a6\u9178\u916f", "en_name": ["Methyl 3-(dimethoxyphosphinyl)propanoate", "Propanoic acid, 3-(dimethoxyphosphinyl)-, methyl ester", "Propionic acid, 3-phosphono-, trimethyl ester", "Methyl 3-(dimethoxyphosphinyl)propanoate", "Dimethyl (2-methoxycarbonylethyl)phosphonate", "Dimethyl (2-methoxycarbonylethane)phosphonate", "Methyl 3-(dimethoxyphosphinyl)propionate", "Trimethyl (2-carboxyethyl)phosphonate", "Trimethyl 3-phosphonopropionate", "3-Dimethoxyphosphoryl-propionic acid methyl ester"], "SMILES": "P(CCC(OC)=O)(OC)(OC)=O", "physical_data": {"Molecular Weight": "196.14", "Molecular Formula": "C6H13O5P", "Boiling Point": "137-138 \u00b0C @ Press: 10 Torr", "Density": "1.2170 g/cm\u00b3 @ Temp: 420 \u00b0C"}}