{"cas_no": "1873-77-4", "cn_name": "\u4e09(\u4e09\u7532\u57fa\u7845\u57fa)\u7845\u70f7", "en_name": ["Tris(trimethylsilyl)silane", "Trisilane, 1,1,1,3,3,3-hexamethyl-2-(trimethylsilyl)-", "1,1,1,3,3,3-Hexamethyl-2-(trimethylsilyl)trisilane", "Tris(trimethylsilyl)silane", "TTMSS", "Tris(trimethysilyl)silane"], "SMILES": "[SiH]([Si](C)(C)C)([Si](C)(C)C)[Si](C)(C)C", "physical_data": {"Molecular Weight": "248.66", "Molecular Formula": "C9H28Si4", "Boiling Point": "82-84 \u00b0C @ Press: 12 Torr", "Density": "0.806 g/cm\u00b3"}}