{"cas_no": "1873-88-7", "cn_name": "\u53cc\u4e09\u7532\u57fa\u7845\u6c27\u57fa\u7532\u57fa\u7845\u70f7", "en_name": ["1,1,1,3,5,5,5-Heptamethyltrisiloxane", "Trisiloxane, 1,1,1,3,5,5,5-heptamethyl-", "1,1,1,3,5,5,5-Heptamethyltrisiloxane", "Methylbis(trimethylsilyloxy)silane", "2,2,4,6,6-Pentamethyl-3,5-dioxa-2,4,6-trisilaheptane", "Bis(trimethylsilyloxy)methylsilane", "Methylbis(trimethylsiloxy)silane", "Bis(trimethylsiloxy)methylsilane", "1,1,1,3,5,5,5-Heptamethylsiloxane", "Heptamethylhydrotrisiloxane", "SIB 1844.0", "SIB 1844", "2-Hydro-1,1,1,2,3,3,3-heptamethyltrisiloxane"], "SMILES": "O([Si](C)(C)C)[SiH](O[Si](C)(C)C)C", "physical_data": {"Molecular Weight": "222.50", "Molecular Formula": "C7H22O2Si3", "Boiling Point": "141-142 \u00b0C", "Density": "0.813 g/cm\u00b3"}}