{"cas_no": "187393-00-6", "cn_name": "\u53cc-\u4e59\u57fa\u5df1\u6c27\u82ef\u915a\u7532\u6c27\u82ef\u57fa\u4e09\u55ea", "en_name": ["Bemotrizinol", "Phenol, 2,2\u2032-[6-(4-methoxyphenyl)-1,3,5-triazine-2,4-diyl]bis[5-[(2-ethylhexyl)oxy]-", "2,2\u2032-[6-(4-Methoxyphenyl)-1,3,5-triazine-2,4-diyl]bis[5-[(2-ethylhexyl)oxy]phenol]", "CGF 1607", "Tinosorb S", "BEMT", "Bemotrizinol", "FAT 70\u2032884", "2,4-Bis[4-(2-ethylhexyloxy)-2-hydroxyphenyl]-6-(4-methoxyphenyl)-1,3,5-triazine", "Tinosorb S Aqua", "Escalol S", "Tianlaisch S", "Parsol Shield", "UV 627"], "SMILES": "OC1=C(C=2N=C(N=C(N2)C3=CC=C(OC)C=C3)C4=C(O)C=C(OCC(CCCC)CC)C=C4)C=CC(OCC(CCCC)CC)=C1", "physical_data": {"Molecular Weight": "627.81", "Molecular Formula": "C38H49N3O5", "Melting Point": "84-85 \u00b0C"}}