{"cas_no": "1873-89-8", "cn_name": "\u4e09(\u4e09\u7532\u7845\u70f7\u6c27\u57fa)\u7845\u70f7", "en_name": ["Tris(trimethylsiloxy)silane", "Trisiloxane, 1,1,1,5,5,5-hexamethyl-3-[(trimethylsilyl)oxy]-", "Trisiloxane, 1,1,1,5,5,5-hexamethyl-3-(trimethylsiloxy)-", "1,1,1,5,5,5-Hexamethyl-3-[(trimethylsilyl)oxy]trisiloxane", "Tris(trimethylsiloxy)silane", "Tris(trimethylsilyloxy)silane", "S 1003TS"], "SMILES": "O([SiH](O[Si](C)(C)C)O[Si](C)(C)C)[Si](C)(C)C", "physical_data": {"Molecular Weight": "296.66", "Molecular Formula": "C9H28O3Si4", "Boiling Point": "64 \u00b0C @ Press: 10 Torr", "Density": "0.852 g/cm\u00b3"}}