{"cas_no": "1874-23-3", "cn_name": "5-\u785d\u57fa-2-\u7ce0\u9178\u7532\u916f", "en_name": ["Methyl 5-nitro-2-furoate", "2-Furancarboxylic acid, 5-nitro-, methyl ester", "2-Furoic acid, 5-nitro-, methyl ester", "Methyl 5-nitro-2-furoate", "Methyl 5-nitropyromucate", "Methyl 5\u2032-nitropyromucate", "5-Nitro-2-carbomethoxyfuran", "Methyl 5-nitrofuran-2-carboxylate", "5-Nitro-2-(methoxycarbonyl)furan", "Methyl 5-nitro-2-furylcarboxylate", "5-Nitro-2-furoic acid methyl ester", "NSC 6457"], "SMILES": "C(OC)(=O)C=1OC(N(=O)=O)=CC1", "physical_data": {"Molecular Weight": "171.11", "Molecular Formula": "C6H5NO5", "Melting Point": "192.5-194 \u00b0C"}}