{"cas_no": "1874-62-0", "cn_name": "3-\u4e59\u6c27\u57fa-1,2-\u4e19\u4e8c\u9187", "en_name": ["3-Ethoxy-1,2-propanediol", "1,2-Propanediol, 3-ethoxy-", "3-Ethoxy-1,2-propanediol", "Glycerol \u03b1-monoethyl ether", "Glycerol \u03b1-ethyl ether", "Glycerol 1-ethyl ether", "Glycerin 1-ethyl ether", "NSC 227880"], "SMILES": "C(COCC)(CO)O", "physical_data": {"Molecular Weight": "120.15", "Molecular Formula": "C5H12O3", "Boiling Point": "160 \u00b0C @ Press: 100 Torr", "Density": "1.0947 g/cm\u00b3 @ Temp: 20 \u00b0C"}}