{"cas_no": "18740-39-1", "cn_name": "2,4-\u4e8c\u6c2f\u567b\u5429[2,3-D]\u5627\u5576", "en_name": ["2,4-Dichlorothieno[2,3-d]pyrimidine", "Thieno[2,3-d]pyrimidine, 2,4-dichloro-", "2,4-Dichlorothieno[2,3-d]pyrimidine"], "SMILES": "ClC1=C2C(=NC(Cl)=N1)SC=C2", "physical_data": {"Molecular Weight": "205.06", "Molecular Formula": "C6H2Cl2N2S", "Melting Point": "161-162 \u00b0C"}}