{"cas_no": "18742-02-4", "cn_name": "2-(2-\u6eb4\u4e59\u57fa)-1,3-\u4e8c\u6076\u70f7", "en_name": ["2-(2-Bromoethyl)-1,3-dioxolane", "1,3-Dioxolane, 2-(2-bromoethyl)-", "2-(2-Bromoethyl)-1,3-dioxolane", "1,1-(Ethylenedioxy)-3-bromopropane", "3-Bromopropanal ethylene acetal", "1-Bromo-3,3-(ethylenedioxy)propane", "\u03b2-Bromopropionaldehyde ethylene acetal", "3,3-(Ethylenedioxy)propyl bromide", "3-Bromopropionaldehyde ethylene acetal", "1,3-Dioxolan-2-ylethyl bromide", "2-(1,3-Dioxolan-2-yl)ethyl bromide", "2-(2-Bromoethyl)-1,3-dioxolan", "2-(2\u2032-Bromoethyl)-1,3-dioxolane"], "SMILES": "C(CBr)C1OCCO1", "physical_data": {"Molecular Weight": "181.03", "Molecular Formula": "C5H9BrO2", "Boiling Point": "76-80 \u00b0C @ Press: 0.8 Torr"}}