{"cas_no": "1874-54-0", "cn_name": "\u963f\u6d1b\u916e\u7cd6\u817a\u82f7", "en_name": ["1\u2032-C-(Hydroxymethyl)adenosine", "Adenosine, 1\u2032-C-(hydroxymethyl)-", "Adenine, 9-\u03b2-D-psicofuranosyl-", "9H-Purin-6-amine, 9-\u03b2-D-psicofuranosyl-", "1\u2032-C-(Hydroxymethyl)adenosine", "Psicofuranine", "9-\u03b2-D-Psicofuranosyl-6-aminopurine", "Angustmycin C", "9-\u03b2-D-Psicofuranosyladenine", "1\u2032-(Hydroxymethyl)adenosine", "NSC 53104"], "SMILES": "C(O)C1(OC(CO)C(O)C1O)N2C=3C(N=C2)=C(N)N=CN3", "physical_data": {"Molecular Weight": "297.27", "Molecular Formula": "C11H15N5O5", "Melting Point": "212 \u00b0C"}}