{"cas_no": "1874-22-2", "cn_name": "5-\u785d\u57fa\u544b\u5583-2-\u4e19\u70ef\u919b", "en_name": ["3-(5-Nitro-2-furyl)acrolein", "2-Propenal, 3-(5-nitro-2-furanyl)-", "2-Furanacrolein, 5-nitro-", "3-(5-Nitro-2-furanyl)-2-propenal", "\u03b2-(5-Nitro-2-furyl)acrolein", "5-Nitro-2-furylacrolein", "2-(5-Nitro-2-furyl)acrolein", "3-(5-Nitro-2-furyl)acrolein", "5-Nitrofuracrolein", "(5-Nitrofuryl)acrolein", "\u03b2-(5-Nitro-2-furanyl)acrolein", "5-Nitro-2-furanacrolein", "\u03b2-(5-Nitrofuryl)acrolein", "3-(5-Nitro-2-furyl)propenal"], "SMILES": "N(=O)(=O)C=1OC(C=CC=O)=CC1", "physical_data": {"Molecular Weight": "167.12", "Molecular Formula": "C7H5NO4", "Melting Point": "117-120 \u00b0C"}}