{"cas_no": "18749-71-8", "cn_name": "SITOINDOSIDE I", "en_name": ["Sitoindoside I", "\u03b2-D-Glucopyranoside, (3\u03b2)-stigmast-5-en-3-yl, 6-hexadecanoate", "Stigmast-5-en-3\u03b2-ol, \u03b2-D-glucopyranoside, 6\u2032-palmitate", "Palmitic acid, ester with \u03b2-sitosterol glucoside", "Stigmastane, \u03b2-D-glucopyranoside deriv.", "\u03b2-Sitosteryl-\u03b2-D-glucoside-6-monopalmitate", "\u03b2-Sitosteryl \u03b2-D-glucoside monopalmitate", "Sitoindoside I", "6\u2032-O-Palmitoyl-\u03b2-sitosterol-3-O-\u03b2-glucopyranoside", "6\u2032-O-Palmitoylsitosterol-3-O-\u03b2-D-glucoside", "Sitosteryl (6\u2032-O-palmitoyl)-3\u03b2-D-glucopyranoside", "Sitoindoside", "Longiside B", "Stigmast-5-en-3-\u03b2-6\u2032-palmitoylglucopyranoside", "Daucosterol 6\u2032-O-palmitate", "Sitosterol 3\u03b2-O-[6\u2032-palmitoyl-\u03b2-D-glucopyranoside]", "\u03b2-Sitosterol glucoside 6\u2032-O-monopalmitate", "Stigmast-5-en-3\u03b2-O-(6-O-hexadecanoyl-\u03b2-D-glucopyranoside)", "3-O-(6\u2032-O-Palmitoyl-\u03b2-D-glucosyl)-\u03b2-sitosterol", "(-)-\u03b2-Sitosterol 3-O-\u03b2-D-(6-O-palmitoyl)glucopyranoside", "16:0-Glc-sitosterol", "\u03b2-Sitosteryl 3\u03b2-glucopyranoside 6-O palmitate", "\u03b2-Sitosterol-3-O-\u03b1-L-(6\u2032-O-hexadecanoyl) glucoside"], "SMILES": "CC12C3C(C4C(C)(CC3)C(C(CCC(C(C)C)CC)C)CC4)CC=C1CC(OC5OC(COC(CCCCCCCCCCCCCCC)=O)C(O)C(O)C5O)CC2", "physical_data": {"Molecular Weight": "815.26", "Molecular Formula": "C51H90O7", "Melting Point": "163-165 \u00b0C"}}