{"cas_no": "1875-88-3", "cn_name": "4-\u6c2f\u82ef\u4e59\u9187", "en_name": ["4-Chlorobenzeneethanol", "Benzeneethanol, 4-chloro-", "Phenethyl alcohol, p-chloro-", "4-Chlorobenzeneethanol", "p-Chlorophenylethyl alcohol", "p-Chlorophenethyl alcohol", "2-(p-Chlorophenyl)ethanol", "2-(4-Chlorophenyl)ethanol", "4-Chlorophenethyl alcohol", "2-(4-Chlorophenyl)-1-ethanol", "NSC 404206", "4-Chlorophenethanol"], "SMILES": "C(CO)C1=CC=C(Cl)C=C1", "physical_data": {"Molecular Weight": "156.61", "Molecular Formula": "C8H9ClO", "Boiling Point": "259 \u00b0C"}}