{"cas_no": "1875-48-5", "cn_name": "\u6c28\u57fa\u90bb\u82ef\u4e8c\u7532\u80fa", "en_name": ["N-Aminophthalimide", "1H-Isoindole-1,3(2H)-dione, 2-amino-", "Phthalimide, N-amino-", "2-Amino-1H-isoindole-1,3(2H)-dione", "1,1-Phthaloylhydrazine", "Phthalhydrazide", "Phthalic acid, cyclic hydrazide", "Hydrazine, 1,1-(1,2-phenylenedicarbonyl)-", "N-Aminophthalimide", "Phthalocyclohydrazide", "NSC 407982", "NSC 91685", "2-Aminoisoindole-1,3-dione", "2-Aminoisoindoline-1,3-dione", "2-Amino-2,3-dihydro-1H-isoindole-1,3-dione"], "SMILES": "O=C1C=2C(C(=O)N1N)=CC=CC2", "physical_data": {"Molecular Weight": "162.15", "Molecular Formula": "C8H6N2O2", "Melting Point": "200-205 \u00b0C"}}