{"cas_no": "18755-46-9", "cn_name": "5-\u6c2f\u4e59\u57fa\u56db\u6c2e\u5511", "en_name": ["5-(2-Chloroethyl)-2H-tetrazole", "2H-Tetrazole, 5-(2-chloroethyl)-", "1H-Tetrazole, 5-(2-chloroethyl)-", "5-(2-Chloroethyl)-2H-tetrazole", "5-(2-Chloroethyl)tetrazole", "5-(2-Chloroethyl)-1H-tetrazole"], "SMILES": "C(CCl)C=1NN=NN1", "physical_data": {"Molecular Weight": "132.55", "Molecular Formula": "C3H5ClN4", "Melting Point": "96-98 \u00b0C"}}