{"cas_no": "1875-89-4", "cn_name": "3-\u7532\u57fa\u82ef\u4e59\u9187", "en_name": ["3-Methylbenzeneethanol", "Benzeneethanol, 3-methyl-", "Phenethyl alcohol, m-methyl-", "3-Methylbenzeneethanol", "3-Methylphenethyl alcohol", "2-(3-Methylphenyl)ethanol", "2-(m-Tolyl)ethanol", "2-(3-Methylphenyl)-1-ethanol", "2-(m-Tolyl)ethanol"], "SMILES": "C(CO)C1=CC(C)=CC=C1", "physical_data": {"Molecular Weight": "136.19", "Molecular Formula": "C9H12O", "Boiling Point": "112-113 \u00b0C @ Press: 10 Torr", "Density": "1.001 g/cm\u00b3 @ Temp: 20 \u00b0C"}}