{"cas_no": "18769-05-6", "cn_name": "\u4e8c\u4e59\u70ef\u57fa\u56db\u82ef\u57fa\u4e8c\u7845\u6c27\u70f7", "en_name": ["1,3-Diethenyl-1,1,3,3-tetraphenyldisiloxane", "Disiloxane, 1,3-diethenyl-1,1,3,3-tetraphenyl-", "Disiloxane, 1,1,3,3-tetraphenyl-1,3-divinyl-", "1,3-Diethenyl-1,1,3,3-tetraphenyldisiloxane", "1,1,3,3-Tetraphenyl-1,3-divinyldisiloxane", "1,3-Divinyltetraphenyldisiloxane", "Divinyltetraphenyldisiloxane", "Bis(diphenylvinylsiloxane)"], "SMILES": "[Si](O[Si](C=C)(C1=CC=CC=C1)C2=CC=CC=C2)(C=C)(C3=CC=CC=C3)C4=CC=CC=C4", "physical_data": {"Molecular Weight": "434.68", "Molecular Formula": "C28H26OSi2", "Melting Point": "77-81 \u00b0C"}}