{"cas_no": "18765-09-8", "cn_name": "\u4e09\u8f9b\u57fa\u7845\u70f7", "en_name": ["Trioctylsilane", "Silane, trioctyl-", "Trioctylsilane", "NSC 139862"], "SMILES": "[SiH](CCCCCCCC)(CCCCCCCC)CCCCCCCC", "physical_data": {"Molecular Weight": "368.76", "Molecular Formula": "C24H52Si", "Boiling Point": "163-165 \u00b0C @ Press: 0.15 Torr", "Density": "0.821 g/cm\u00b3"}}