{"cas_no": "1877-75-4", "cn_name": "\u5bf9\u7532\u6c27\u57fa\u82ef\u6c27\u4e59\u9178", "en_name": ["4-Methoxyphenoxyacetic acid", "Acetic acid, 2-(4-methoxyphenoxy)-", "Acetic acid, (p-methoxyphenoxy)-", "Acetic acid, (4-methoxyphenoxy)-", "2-(4-Methoxyphenoxy)acetic acid", "4-Methoxyphenoxyacetic acid", "p-Methoxyphenoxyacetic acid", "4-Methoxyphenyloxyacetic acid", "NSC 4255", "NSC 45652"], "SMILES": "O(CC(O)=O)C1=CC=C(OC)C=C1", "physical_data": {"Molecular Weight": "182.17", "Molecular Formula": "C9H10O4", "Melting Point": "112 \u00b0C"}}