{"cas_no": "1877-73-2", "cn_name": "3-\u785d\u57fa\u82ef\u4e59\u9178", "en_name": ["3-Nitrophenylacetic acid", "Benzeneacetic acid, 3-nitro-", "Acetic acid, (m-nitrophenyl)-", "3-Nitrobenzeneacetic acid", "3-Nitrophenylacetic acid", "(m-Nitrophenyl)acetic acid", "2-(3-Nitrophenyl)acetic acid", "NSC 93911"], "SMILES": "C(C(O)=O)C1=CC(N(=O)=O)=CC=C1", "physical_data": {"Molecular Weight": "181.15", "Molecular Formula": "C8H7NO4", "Melting Point": "117-120 \u00b0C"}}