{"cas_no": "18773-95-0", "cn_name": "2-\u4e59\u9170\u57fa\u82ef\u5e76\u54aa\u5511", "en_name": ["1-(1H-Benzimidazol-1-yl)ethanone", "Ethanone, 1-(1H-benzimidazol-1-yl)-", "Benzimidazole, 1-acetyl-", "1H-Benzimidazole, 1-acetyl-", "1-(1H-Benzimidazol-1-yl)ethanone", "1-Acetylbenzimidazole", "N-Acetylbenzimidazole", "1-Acetyl-1H-benzimidazole", "1-(1H-1,3-Benzodiazol-1-yl)ethan-1-one"], "SMILES": "C(C)(=O)N1C=2C(N=C1)=CC=CC2", "physical_data": {"Molecular Weight": "160.17", "Molecular Formula": "C9H8N2O", "Melting Point": "113-114 \u00b0C"}}