{"cas_no": "18776-12-0", "cn_name": "3-\u6c2f-1-\u82ef\u57fa\u4e19\u9187", "en_name": ["3-Chloro-1-phenyl-1-propanol", "Benzenemethanol, \u03b1-(2-chloroethyl)-", "Benzyl alcohol, \u03b1-(2-chloroethyl)-", "\u03b1-(2-Chloroethyl)benzenemethanol", "\u03b1-(2-Chloroethyl)benzyl alcohol", "3-Chloro-1-phenyl-1-propanol", "(\u00b1)-3-Chloro-1-phenyl-1-propanol", "3-Chloro-1-phenylpropanol"], "SMILES": "C(CCCl)(O)C1=CC=CC=C1", "physical_data": {"Molecular Weight": "170.64", "Molecular Formula": "C9H11ClO", "Boiling Point": "130-132 \u00b0C", "Melting Point": "30-32 \u00b0C", "Density": "1.1344 g/cm\u00b3 @ Temp: 20 \u00b0C"}}