{"cas_no": "1877-77-6", "cn_name": "3-\u6c28\u57fa\u82ef\u7532\u9187", "en_name": ["3-Aminobenzyl alcohol", "Benzenemethanol, 3-amino-", "Benzyl alcohol, m-amino-", "3-Aminobenzenemethanol", "3-Aminobenzyl alcohol", "3-(Hydroxymethyl)aniline", "m-Aminobenzyl alcohol", "NSC 62359", "(3-Aminophenyl)methanol", "[3-(Hydroxymethyl)phenyl]amine"], "SMILES": "C(O)C1=CC(N)=CC=C1", "physical_data": {"Molecular Weight": "123.15", "Molecular Formula": "C7H9NO", "Melting Point": "93-95 \u00b0C"}}