{"cas_no": "1877-72-1", "cn_name": "3-\u6c30\u57fa\u82ef\u7532\u9178", "en_name": ["3-Cyanobenzoic acid", "Benzoic acid, 3-cyano-", "Benzoic acid, m-cyano-", "3-Cyanobenzoic acid", "m-Cyanobenzoic acid", "m-Carboxybenzonitrile", "3-Carboxybenzonitrile"], "SMILES": "C(O)(=O)C1=CC(C#N)=CC=C1", "physical_data": {"Molecular Weight": "147.13", "Molecular Formula": "C8H5NO2", "Melting Point": "219 \u00b0C"}}