{"cas_no": "1878-68-8", "cn_name": "\u5bf9\u6eb4\u82ef\u4e59\u9178", "en_name": ["(4-Bromophenyl)acetic acid", "Benzeneacetic acid, 4-bromo-", "Acetic acid, (p-bromophenyl)-", "4-Bromobenzeneacetic acid", "(4-Bromophenyl)acetic acid", "(p-Bromophenyl)acetic acid", "2-(4-Bromophenyl)acetic acid", "NSC 14358", "p-Bromobenzeneacetic acid"], "SMILES": "C(C(O)=O)C1=CC=C(Br)C=C1", "physical_data": {"Molecular Weight": "215.04", "Molecular Formula": "C8H7BrO2", "Melting Point": "116 \u00b0C"}}