{"cas_no": "1878-84-8", "cn_name": "4-\u7f9f\u57fa\u82ef\u6c27\u4e59\u9178", "en_name": ["(4-Hydroxyphenoxy)acetic acid", "Acetic acid, 2-(4-hydroxyphenoxy)-", "Acetic acid, (p-hydroxyphenoxy)-", "Acetic acid, (4-hydroxyphenoxy)-", "2-(4-Hydroxyphenoxy)acetic acid", "p-Hydroxyphenoxyacetic acid", "(4-Hydroxyphenoxy)acetic acid", "O-(4-Hydroxyphenyl)glycolic acid"], "SMILES": "O(CC(O)=O)C1=CC=C(O)C=C1", "physical_data": {"Molecular Weight": "168.15", "Molecular Formula": "C8H8O4", "Melting Point": "155-156 \u00b0C"}}