{"cas_no": "1878-49-5", "cn_name": "2-\u7532\u57fa\u82ef\u6c27\u57fa\u4e59\u9178", "en_name": ["(2-Methylphenoxy)acetic acid", "Acetic acid, 2-(2-methylphenoxy)-", "Acetic acid, (o-tolyloxy)-", "Acetic acid, (2-methylphenoxy)-", "2-(2-Methylphenoxy)acetic acid", "(2-Methylphenoxy)acetic acid", "o-Cresoxyacetic acid", "2-(o-Tolyloxy)acetic acid", "o-Cresyloxyacetic acid", "o-Tolyloxyacetic acid", "(o-Methylphenoxy)acetic acid", "o-Cresolglycolic acid", "NSC 5293", "2-[(2-Methylphenyl)oxy]acetic acid", "2-Methylphenyloxyacetic acid"], "SMILES": "O(CC(O)=O)C1=C(C)C=CC=C1", "physical_data": {"Molecular Weight": "166.17", "Molecular Formula": "C9H10O3", "Boiling Point": "&gt;150 \u00b0C", "Melting Point": "153-154 \u00b0C"}}