{"cas_no": "1878-85-9", "cn_name": "2-\u7532\u6c27\u57fa\u82ef\u6c27\u4e59\u9178", "en_name": ["2-(2-Methoxyphenoxy)acetic acid", "Acetic acid, 2-(2-methoxyphenoxy)-", "Acetic acid, (o-methoxyphenoxy)-", "Acetic acid, (2-methoxyphenoxy)-", "2-(2-Methoxyphenoxy)acetic acid", "Guaiacoxyacetic acid", "(2-Methoxyphenoxy)acetic acid", "(o-Methoxyphenoxy)acetic acid", "NSC 5165"], "SMILES": "O(CC(O)=O)C1=C(OC)C=CC=C1", "physical_data": {"Molecular Weight": "182.17", "Molecular Formula": "C9H10O4", "Melting Point": "116-117 \u00b0C"}}