{"cas_no": "1878-81-5", "cn_name": "4-\u4e59\u9170\u82ef\u6c27\u57fa\u4e59\u9178", "en_name": ["4-Acetylphenoxyacetic acid", "Acetic acid, 2-(4-acetylphenoxy)-", "Acetic acid, (p-acetylphenoxy)-", "Acetic acid, (4-acetylphenoxy)-", "2-(4-Acetylphenoxy)acetic acid", "4-Acetylphenoxyacetic acid", "p-Acetylphenoxyacetic acid", "NSC 9356"], "SMILES": "C(C)(=O)C1=CC=C(OCC(O)=O)C=C1", "physical_data": {"Molecular Weight": "194.18", "Molecular Formula": "C10H10O4", "Melting Point": "175-177 \u00b0C"}}