{"cas_no": "18780-67-1", "cn_name": "4-\u4e59\u6c27\u57fa\u7fb0\u6c27\u57fa-3,5-\u4e8c\u7532\u6c27\u57fa\u82ef\u7532\u9178", "en_name": ["4-[(Ethoxycarbonyl)oxy]-3,5-dimethoxybenzoic acid", "Benzoic acid, 4-[(ethoxycarbonyl)oxy]-3,5-dimethoxy-", "Carbonic acid, ethyl ester, ester with 4-hydroxy-3,5-dimethoxybenzoic acid", "Benzoic acid, 4-hydroxy-3,5-dimethoxy-, ethyl carbonate", "4-[(Ethoxycarbonyl)oxy]-3,5-dimethoxybenzoic acid"], "SMILES": "O(C(OCC)=O)C1=C(OC)C=C(C(O)=O)C=C1OC", "physical_data": {"Molecular Weight": "270.24", "Molecular Formula": "C12H14O7", "Melting Point": "181-183 \u00b0C"}}