{"cas_no": "1878-71-3", "cn_name": "3-\u6c30\u57fa-\u82ef\u4e59\u9178", "en_name": ["3-Cyanobenzeneacetic acid", "Benzeneacetic acid, 3-cyano-", "Acetic acid, (m-cyanophenyl)-", "3-Cyanobenzeneacetic acid", "(m-Cyanophenyl)acetic acid", "3-Cyanophenylacetic acid", "2-(3-Cyanophenyl)acetic acid"], "SMILES": "C(C(O)=O)C1=CC(C#N)=CC=C1", "physical_data": {"Molecular Weight": "161.16", "Molecular Formula": "C9H7NO2", "Melting Point": "117.5-118.5 \u00b0C"}}