{"cas_no": "1878-88-2", "cn_name": "3-\u785d\u57fa\u82ef\u6c27\u4e59\u9178", "en_name": ["2-(3-Nitrophenoxy)acetic acid", "Acetic acid, 2-(3-nitrophenoxy)-", "Acetic acid, (m-nitrophenoxy)-", "Acetic acid, (3-nitrophenoxy)-", "2-(3-Nitrophenoxy)acetic acid", "3-Nitrophenoxyacetic acid", "m-Nitrophenoxyacetic acid", "NSC 193418"], "SMILES": "O(CC(O)=O)C1=CC(N(=O)=O)=CC=C1", "physical_data": {"Molecular Weight": "197.14", "Molecular Formula": "C8H7NO5", "Melting Point": "152-153 \u00b0C"}}