{"cas_no": "18787-64-9", "cn_name": "3-\u5341\u516d\u916e", "en_name": ["3-Hexadecanone", "3-Hexadecanone", "NSC 158511", "Cetan-3-one"], "SMILES": "C(CCC(CC)=O)CCCCCCCCCC", "physical_data": {"Molecular Weight": "240.42", "Molecular Formula": "C16H32O", "Boiling Point": "184 \u00b0C @ Press: 17 Torr", "Melting Point": "43 \u00b0C"}}