{"cas_no": "18786-24-8", "cn_name": "\u86c7\u7eb9\u77f3\u7d20", "en_name": ["(+)-Serpentine", "Oxayohimbanium, 3,4,5,6,16,17-hexadehydro-16-(methoxycarbonyl)-19-methyl-, (19\u03b1)-", "Serpentine (alkaloid)", "Serpentine", "Indolo[2,3-a]pyrano[3,4-g]quinolizin-6-ium, oxayohimbanium deriv.", "(19\u03b1)-3,4,5,6,16,17-Hexadehydro-16-(methoxycarbonyl)-19-methyloxayohimbanium", "3,4,5,6-Tetradehydroajmalicine", "(+)-Serpentine", "NSC 407301"], "SMILES": "C(OC)(=O)C=1C2CC=3C4=C(C=5C(N4)=CC=CC5)C=C[N+]3CC2C(C)OC1", "physical_data": {"Molecular Weight": "", "Molecular Formula": "C21H21N2O3", "Melting Point": "156 \u00b0C (decomp)"}}