{"cas_no": "1878-67-7", "cn_name": "3-\u6eb4\u82ef\u4e59\u9178", "en_name": ["3-Bromophenylacetic acid", "Benzeneacetic acid, 3-bromo-", "Acetic acid, (m-bromophenyl)-", "3-Bromobenzeneacetic acid", "3-Bromophenylacetic acid", "(m-Bromophenyl)acetic acid", "2-(3-Bromophenyl)acetic acid"], "SMILES": "C(C(O)=O)C1=CC(Br)=CC=C1", "physical_data": {"Molecular Weight": "215.04", "Molecular Formula": "C8H7BrO2", "Melting Point": "100-102 \u00b0C"}}