{"cas_no": "1878-18-8", "cn_name": "2-\u7532\u57fa-1-\u4e01\u786b\u9187", "en_name": ["2-Methyl-1-butanethiol", "1-Butanethiol, 2-methyl-", "2-Methyl-1-butanethiol", "1-Mercapto-2-methylbutane"], "SMILES": "C(CC)(CS)C", "physical_data": {"Molecular Weight": "104.21", "Molecular Formula": "C5H12S", "Boiling Point": "116.5 \u00b0C", "Density": "0.836 g/cm\u00b3 @ Temp: 20 \u00b0C"}}