{"cas_no": "18787-63-8", "cn_name": "2-HEXADECANONE", "en_name": ["2-Hexadecanone", "2-Hexadecanone", "Methyltetradecylketone", "Cetan-2-one"], "SMILES": "C(CCCCCCCC)CCCCCC(C)=O", "physical_data": {"Molecular Weight": "240.42", "Molecular Formula": "C16H32O", "Boiling Point": "132-133 \u00b0C @ Press: 0.7 Torr", "Melting Point": "44-45 \u00b0C"}}