{"cas_no": "1878-87-1", "cn_name": "2-\u785d\u57fa\u82ef\u6c27\u4e59\u9178", "en_name": ["2-Nitrophenoxyacetic acid", "Acetic acid, 2-(2-nitrophenoxy)-", "Acetic acid, (o-nitrophenoxy)-", "Acetic acid, (2-nitrophenoxy)-", "2-(2-Nitrophenoxy)acetic acid", "2-Nitrophenoxyacetic acid", "o-Nitrophenoxyacetic acid", "(2-Nitrophenoxy)ethanoic acid", "NSC 37409", "2-(2-Nitrophenyloxy)acetic acid"], "SMILES": "O(CC(O)=O)C1=C(N(=O)=O)C=CC=C1", "physical_data": {"Molecular Weight": "197.14", "Molecular Formula": "C8H7NO5", "Melting Point": "156-157 \u00b0C"}}