{"cas_no": "1878-66-6", "cn_name": "\u5bf9\u6c2f\u82ef\u4e59\u9178", "en_name": ["(4-Chlorophenyl)acetic acid", "Benzeneacetic acid, 4-chloro-", "Acetic acid, (p-chlorophenyl)-", "4-Chlorobenzeneacetic acid", "(p-Chlorophenyl)acetic acid", "2-(p-Chlorophenyl)acetic acid", "(4-Chlorophenyl)acetic acid", "PCPA", "2-(4-Chlorophenyl)acetic acid", "NSC 14285"], "SMILES": "C(C(O)=O)C1=CC=C(Cl)C=C1", "physical_data": {"Molecular Weight": "170.59", "Molecular Formula": "C8H7ClO2", "Melting Point": "105-108 \u00b0C"}}