{"cas_no": "1878-94-0", "cn_name": "\u5bf9\u7898\u82ef\u6c27\u4e59\u9178", "en_name": ["4-Iodophenoxyacetic acid", "Acetic acid, 2-(4-iodophenoxy)-", "Acetic acid, (p-iodophenoxy)-", "Acetic acid, (4-iodophenoxy)-", "2-(4-Iodophenoxy)acetic acid", "4-Iodophenoxyacetic acid", "p-Iodophenoxyacetic acid"], "SMILES": "O(CC(O)=O)C1=CC=C(I)C=C1", "physical_data": {"Molecular Weight": "278.04", "Molecular Formula": "C8H7IO3", "Melting Point": "155-156 \u00b0C"}}