{"cas_no": "1878-91-7", "cn_name": "\u5bf9\u6eb4\u82ef\u6c27\u4e59\u9178", "en_name": ["2-(4-Bromophenoxy)acetic acid", "Acetic acid, 2-(4-bromophenoxy)-", "Acetic acid, (p-bromophenoxy)-", "Acetic acid, (4-bromophenoxy)-", "2-(4-Bromophenoxy)acetic acid", "(4-Bromophenoxy)acetic acid", "p-Bromophenoxyacetic acid", "NSC 65085"], "SMILES": "O(CC(O)=O)C1=CC=C(Br)C=C1", "physical_data": {"Molecular Weight": "231.04", "Molecular Formula": "C8H7BrO3", "Melting Point": "160-161 \u00b0C"}}