{"cas_no": "1878-65-5", "cn_name": "3-\u6c2f\u82ef\u4e59\u9178", "en_name": ["(3-Chlorophenyl)acetic acid", "Benzeneacetic acid, 3-chloro-", "Acetic acid, (m-chlorophenyl)-", "3-Chlorobenzeneacetic acid", "(m-Chlorophenyl)acetic acid", "2-(3-Chlorophenyl)acetic acid", "NSC 87556", "(3-Chlorophenyl)acetic acid", "m-Chlorobenzeneacetic acid"], "SMILES": "C(C(O)=O)C1=CC(Cl)=CC=C1", "physical_data": {"Molecular Weight": "170.59", "Molecular Formula": "C8H7ClO2", "Melting Point": "78-79.5 \u00b0C"}}