{"cas_no": "187949-02-6", "cn_name": "\u963f\u5df4\u5eb7\u5511", "en_name": ["Albaconazole", "4(3H)-Quinazolinone, 7-chloro-3-[(1R,2R)-2-(2,4-difluorophenyl)-2-hydroxy-1-methyl-3-(1H-1,2,4-triazol-1-yl)propyl]-", "4(3H)-Quinazolinone, 7-chloro-3-[2-(2,4-difluorophenyl)-2-hydroxy-1-methyl-3-(1H-1,2,4-triazol-1-yl)propyl]-, [R-(R*,R*)]-", "7-Chloro-3-[(1R,2R)-2-(2,4-difluorophenyl)-2-hydroxy-1-methyl-3-(1H-1,2,4-triazol-1-yl)propyl]-4(3H)-quinazolinone", "UR 9825", "(1R,2R)-7-Chloro-3-[2-(2,4-difluorophenyl)-2-hydroxy-1-methyl-3-(1H-1,2,4-triazol-1-yl)propyl]quinazolin-4(3H)-one", "Albaconazole", "UR 9625"], "SMILES": "C(C(C)N1C(=O)C=2C(N=C1)=CC(Cl)=CC2)(CN3C=NC=N3)(O)C4=C(F)C=C(F)C=C4", "physical_data": {"Molecular Weight": "431.82", "Molecular Formula": "C20H16ClF2N5O2", "Melting Point": "93-110 \u00b0C"}}