{"cas_no": "18791-75-8", "cn_name": "4-\u6eb4-2-\u567b\u5429\u7532\u919b", "en_name": ["4-Bromo-2-thiophenecarboxaldehyde", "2-Thiophenecarboxaldehyde, 4-bromo-", "4-Bromo-2-thiophenecarboxaldehyde", "4-Bromo-2-formylthiophene", "3-Bromo-5-formylthiophene", "3-Bromo-5-thiophenecarboxaldehyde", "4-Bromothiophen-2-aldehyde", "4-Bromothiophen-2-carboxaldehyde", "4-Bromothiophene-2-carbaldehyde"], "SMILES": "C(=O)C1=CC(Br)=CS1", "physical_data": {"Molecular Weight": "191.05", "Molecular Formula": "C5H3BrOS", "Boiling Point": "114-115 \u00b0C @ Press: 11 Torr", "Melting Point": "44-45 \u00b0C"}}