{"cas_no": "18794-77-9", "cn_name": "2-\u6b63\u5df1\u57fa\u567b\u5429", "en_name": ["2-Hexylthiophene", "Thiophene, 2-hexyl-", "2-Hexylthiophene", "\u03b1-Hexylthiophene", "2-n-Hexylthiophene"], "SMILES": "C(CCCCC)C1=CC=CS1", "physical_data": {"Molecular Weight": "168.30", "Molecular Formula": "C10H16S", "Boiling Point": "79-82 \u00b0C @ Press: 1 Torr", "Density": "0.946 g/cm\u00b3 @ Temp: 20 \u00b0C"}}