{"cas_no": "18791-98-5", "cn_name": "3-\u6eb4\u567b\u5429-2-\u7532\u8148", "en_name": ["3-Bromo-2-thiophenecarbonitrile", "2-Thiophenecarbonitrile, 3-bromo-", "3-Bromo-2-thiophenecarbonitrile", "3-Bromo-2-cyanothiophene", "2-Cyano-3-bromothiophene"], "SMILES": "C(#N)C1=C(Br)C=CS1", "physical_data": {"Molecular Weight": "188.05", "Molecular Formula": "C5H2BrNS", "Melting Point": "50 \u00b0C"}}