{"cas_no": "18790-57-3", "cn_name": "1,4-\u4e8c\u7532\u6c27\u57fa-2-(2-\u785d\u57fa\u4e19\u70ef-1-\u57fa)\u82ef", "en_name": ["1,4-Dimethoxy-2-(2-nitro-1-propen-1-yl)benzene", "Benzene, 1,4-dimethoxy-2-(2-nitro-1-propen-1-yl)-", "Benzene, 1,4-dimethoxy-2-(2-nitropropenyl)-", "Benzene, 1,4-dimethoxy-2-(2-nitro-1-propenyl)-", "1,4-Dimethoxy-2-(2-nitro-1-propen-1-yl)benzene", "1-(2,5-Dimethoxyphenyl)-2-nitropropene", "2-Nitro-1-(2,5-dimethoxyphenyl)-1-propene", "NSC 151247"], "SMILES": "C(=C(N(=O)=O)C)C1=C(OC)C=CC(OC)=C1", "physical_data": {"Molecular Weight": "223.23", "Molecular Formula": "C11H13NO4", "Melting Point": "75 \u00b0C"}}