{"cas_no": "18794-84-8", "cn_name": "(E)-\u03b2-\u91d1\u5408\u6b22\u70ef", "en_name": ["\u03b2-Farnesene", "1,6,10-Dodecatriene, 7,11-dimethyl-3-methylene-, (6E)-", "1,6,10-Dodecatriene, 7,11-dimethyl-3-methylene-, (E)-", "(6E)-7,11-Dimethyl-3-methylene-1,6,10-dodecatriene", "\u03b2-Farnesene", "(E)-7,11-Dimethyl-3-methylene-1,6,10-dodecatriene", "trans-\u03b2-Farnesene", "(E)-\u03b2-Farnesene", "Biofene"], "SMILES": "C(=CCCC(C=C)=C)(CCC=C(C)C)C", "physical_data": {"Molecular Weight": "204.35", "Molecular Formula": "C15H24", "Boiling Point": "80-82 \u00b0C @ Press: 0.5 Torr", "Melting Point": "&lt;25 \u00b0C", "Density": "0.8399 g/cm\u00b3 @ Temp: 19 \u00b0C"}}