{"cas_no": "18791-78-1", "cn_name": "3-\u6eb4-4-\u919b\u57fa\u567b\u5429", "en_name": ["4-Bromo-3-thiophenecarboxaldehyde", "3-Thiophenecarboxaldehyde, 4-bromo-", "4-Bromo-3-thiophenecarboxaldehyde", "4-Bromo-3-formylthiophene", "3-Bromo-4-formylthiophene", "4-Bromo-3-thiophenecarbaldehyde"], "SMILES": "C(=O)C=1C(Br)=CSC1", "physical_data": {"Molecular Weight": "191.05", "Molecular Formula": "C5H3BrOS", "Boiling Point": "108-111.5 \u00b0C @ Press: 11 Torr"}}