{"cas_no": "1879-09-0", "cn_name": "6-\u53d4\u4e01\u57fa-2,4-\u4e8c\u7532\u57fa\u82ef\u915a", "en_name": ["2,4-Dimethyl-6-tert-butylphenol", "Phenol, 2-(1,1-dimethylethyl)-4,6-dimethyl-", "2,4-Xylenol, 6-tert-butyl-", "2-(1,1-Dimethylethyl)-4,6-dimethylphenol", "2,4-Dimethyl-6-tert-butylphenol", "Topanol A", "2-tert-Butyl-4,6-dimethylphenol", "6-tert-Butyl-2,4-xylenol", "6-tert-Butyl-2,4-dimethylphenol", "6-(1,1-Dimethylethyl)-2,4-dimethylphenol", "M 24", "M 24 (antioxidant)", "Antioxidant 30", "2-Methyl-6-tert-butyl-p-cresol", "NSC 8130", "4,6-Dimethyl-2-tert-butylphenol", "2-tert-Butyl-4,6-methylphenol", "Lowinox 624", "Antioxidant TBX", "NA 30", "NA 30 (polymerization inhibitor)"], "SMILES": "C(C)(C)(C)C1=C(O)C(C)=CC(C)=C1", "physical_data": {"Molecular Weight": "178.27", "Molecular Formula": "C12H18O", "Boiling Point": "249 \u00b0C", "Melting Point": "22.3 \u00b0C"}}