{"cas_no": "18797-79-0", "cn_name": "\u7d2b\u5807\u9187\u7075\u78b1", "en_name": ["(+)-Corynoline", "[1,3]Benzodioxolo[5,6-c]-1,3-dioxolo[4,5-i]phenanthridin-6-ol, 5b,6,7,12b,13,14-hexahydro-5b,13-dimethyl-, (5bR,6S,12bR)-", "Corynoline", "Chelidonine, 13-methyl-", "[1,3]Benzodioxolo[5,6-c]-1,3-dioxolo[4,5-i]phenanthridine, chelidonine deriv.", "(5bR,6S,12bR)-5b,6,7,12b,13,14-Hexahydro-5b,13-dimethyl[1,3]benzodioxolo[5,6-c]-1,3-dioxolo[4,5-i]phenanthridin-6-ol", "(+)-Corynoline", "[1,3]Benzodioxolo[5,6-c]-1,3-dioxolo[4,5-i]phenanthridin-6-ol, 5b,6,7,12b,13,14-hexahydro-5b,13-dimethyl-, [5bR-(5b\u03b1,6\u03b2,12b\u03b1)]-"], "SMILES": "CC12C(C=3C(CC1O)=CC4=C(C3)OCO4)N(C)CC=5C2=CC=C6C5OCO6", "physical_data": {"Molecular Weight": "367.40", "Molecular Formula": "C21H21NO5", "Melting Point": "180-183 \u00b0C"}}