{"cas_no": "18791-21-4", "cn_name": "\u5421\u5576\u9709\u7d20", "en_name": ["3-Hydroxy-N-[(2Z,5R,6S,9S,10S,11R)-10-hydroxy-5,11-dimethyl-2-(1-methylpropylidene)-3,7,12-trioxo-9-(3-pyridinylmethyl)-1,4-dioxa-8-azacyclododec-6-yl]-2-pyridinecarboxamide", "2-Pyridinecarboxamide, 3-hydroxy-N-[(2Z,5R,6S,9S,10S,11R)-10-hydroxy-5,11-dimethyl-2-(1-methylpropylidene)-3,7,12-trioxo-9-(3-pyridinylmethyl)-1,4-dioxa-8-azacyclododec-6-yl]-", "2-Pyridinecarboxamide, 3-hydroxy-N-[10-hydroxy-5,11-dimethyl-2-(1-methylpropylidene)-3,7,12-trioxo-9-(3-pyridinylmethyl)-1,4-dioxa-8-azacyclododec-6-yl]-, [5R-(2Z,5R*,6S*,9S*,10S*,11R*)]-", "Pyridomycin", "1,4-Dioxa-8-azacyclododecane, 2-pyridinecarboxamide deriv.", "3-Hydroxy-N-[(2Z,5R,6S,9S,10S,11R)-10-hydroxy-5,11-dimethyl-2-(1-methylpropylidene)-3,7,12-trioxo-9-(3-pyridinylmethyl)-1,4-dioxa-8-azacyclododec-6-yl]-2-pyridinecarboxamide", "Erizomycin", "NSC 246134"], "SMILES": "C(C1NC(=O)C(NC(=O)C2=C(O)C=CC=N2)C(C)OC(=O)C(=C(CC)C)OC(=O)C(C)C1O)C=3C=CC=NC3", "physical_data": {"Molecular Weight": "540.57", "Molecular Formula": "C27H32N4O8", "Melting Point": "218 \u00b0C"}}