{"cas_no": "188-94-3", "cn_name": "\u4e8c\u831a\u5e76(1,2,3-CD:1\u02ca,2\u02ca,3\u02ca-LM)\u82dd", "en_name": ["Diindeno[1,2,3-cd:1\u2032,2\u2032,3\u2032-lm]perylene", "Diindeno[1,2,3-cd:1\u2032,2\u2032,3\u2032-lm]perylene", "Periflanthene", "Periflanthen", "NSC 87529"], "SMILES": "C12=C3C=4C=5C(C3=CC=C1C=6C=7C(C2=CC4)=CC=C8C7C(=CC6)C=9C8=CC=CC9)=CC=CC5", "physical_data": {"Molecular Weight": "400.47", "Molecular Formula": "C32H16", "Melting Point": "&gt;400 \u00b0C"}}