{"cas_no": "188-72-7", "cn_name": "\u4eba\u9020\u7ea4\u7ef4", "en_name": ["Tribenzo[de,kl,rst]pentaphene", "Tribenzo[de,kl,rst]pentaphene", "Phenaleno[1,2,3-cd]perylene", "Terrylene", "Chalkacene", "Terrylen"], "SMILES": "C12=C3C=4C=5C=6C(C3=CC=C1C=7C=8C(C2=CC4)=CC=CC8C=CC7)=CC=CC6C=CC5", "physical_data": {"Molecular Weight": "376.45", "Molecular Formula": "C30H16", "Melting Point": "384-386 \u00b0C"}}