{"cas_no": "18800-34-5", "cn_name": "1-(2-\u6eb4\u4e59\u6c27\u57fa)-4-\u7532\u57fa\u82ef", "en_name": ["1-(2-Bromoethoxy)-4-methylbenzene", "Benzene, 1-(2-bromoethoxy)-4-methyl-", "Phenetole, \u03b2-bromo-p-methyl-", "1-(2-Bromoethoxy)-4-methylbenzene", "2-(4-Methylphenoxy)ethyl bromide", "2-(p-Tolyloxy)ethyl bromide", "\u03b2-Bromo-p-methylphenetole", "1-Bromo-2-(4-methylphenoxy)ethane", "NSC 28592", "2-(p-Tolyl)ethyl dithiocarbamate"], "SMILES": "O(CCBr)C1=CC=C(C)C=C1", "physical_data": {"Molecular Weight": "215.09", "Molecular Formula": "C9H11BrO", "Boiling Point": "136-138 \u00b0C @ Press: 18 Torr", "Melting Point": "39 \u00b0C"}}