{"cas_no": "18802-38-5", "cn_name": "6-\u6c28\u57fa-1,2,4-\u4e09\u55ea-3,5(2H,4H)-\u4e8c\u916e", "en_name": ["6-Amino-1,2,4-triazine-3,5(2H,4H)-dione", "1,2,4-Triazine-3,5(2H,4H)-dione, 6-amino-", "as-Triazine-3,5(2H,4H)-dione, 6-amino-", "6-Amino-1,2,4-triazine-3,5(2H,4H)-dione", "5-Amino-6-azauracil"], "SMILES": "O=C1C(N)=NNC(=O)N1", "physical_data": {"Molecular Weight": "128.09", "Molecular Formula": "C3H4N4O2", "Melting Point": "310-315 \u00b0C"}}