{"cas_no": "18807-73-3", "cn_name": "N-\u82c4\u6c27\u7fb0\u57fa-1,4-\u4e8c\u6c28\u57fa\u4e01\u70f7\u76d0\u9178\u76d0", "en_name": ["Carbamic acid, N-(4-aminobutyl)-, phenylmethyl ester, hydrochloride (1:1)", "Carbamic acid, N-(4-aminobutyl)-, phenylmethyl ester, hydrochloride (1:1)", "Carbamic acid, (4-aminobutyl)-, benzyl ester, monohydrochloride", "Carbamic acid, (4-aminobutyl)-, phenylmethyl ester, monohydrochloride", "N-Benzyloxycarbonyl-1,4-butanediamine hydrochloride"], "SMILES": "C(OC(NCCCCN)=O)C1=CC=CC=C1.Cl", "physical_data": {"Molecular Weight": "", "Molecular Formula": "C12H18N2O2.ClH", "Melting Point": "191-193 \u00b0C"}}