{"cas_no": "188057-28-5", "cn_name": "2-\u7f9f\u57fa-5-\u6c2f-3-\u7898\u5421\u5576", "en_name": ["5-Chloro-3-iodo-2(1H)-pyridinone", "2(1H)-Pyridinone, 5-chloro-3-iodo-", "5-Chloro-3-iodo-2(1H)-pyridinone", "5-Chloro-3-iodo-2-pyridinol"], "SMILES": "IC=1C(=O)NC=C(Cl)C1", "physical_data": {"Molecular Weight": "255.44", "Molecular Formula": "C5H3ClINO", "Melting Point": "&gt;200 \u00b0C"}}