{"cas_no": "18800-30-1", "cn_name": "1-(2-\u6eb4\u6c27\u57fa)-4-\u6eb4\u82ef", "en_name": ["1-Bromo-4-(2-bromoethoxy)benzene", "Benzene, 1-bromo-4-(2-bromoethoxy)-", "Phenetole, p,\u03b2-dibromo-", "1-Bromo-4-(2-bromoethoxy)benzene", "2-Bromoethyl p-bromophenyl ether", "1-Bromo-2-(4-bromophenoxy)ethane", "2-Bromoethyl 4-bromophenyl ether", "\u03b2,4-Dibromophenetole", "NSC 409402", "2-(4-Bromophenyl)ethyl dithiocarbamate", "\u03b2-(4-Bromophenoxy)ethyl bromide", "2-(4-Bromophenoxy)ethyl bromide"], "SMILES": "O(CCBr)C1=CC=C(Br)C=C1", "physical_data": {"Molecular Weight": "279.96", "Molecular Formula": "C8H8Br2O", "Boiling Point": "165 \u00b0C @ Press: 16 Torr", "Melting Point": "56-57 \u00b0C"}}