{"cas_no": "18801-00-8", "cn_name": "\u84bd", "en_name": ["2-tert-Butylanthracene", "Anthracene, 2-(1,1-dimethylethyl)-", "Anthracene, 2-tert-butyl-", "2-(1,1-Dimethylethyl)anthracene", "2-tert-Butylanthracene"], "SMILES": "C(C)(C)(C)C1=CC2=C(C=C3C(=C2)C=CC=C3)C=C1", "physical_data": {"Molecular Weight": "234.34", "Molecular Formula": "C18H18", "Melting Point": "147 \u00b0C"}}