{"cas_no": "18802-37-4", "cn_name": "6-\u6c2e\u5c3f\u5627\u5576", "en_name": ["Dihydro-1,2,4-triazine-3,5(2H,4H)-dione", "1,2,4-Triazine-3,5(2H,4H)-dione, dihydro-", "as-Triazine-3,5(2H,4H)-dione, dihydro-", "Dihydro-1,2,4-triazine-3,5(2H,4H)-dione", "5,6-Dihydro-6-azauracil", "Hexahydro-1,2,4-triazine-3,5-dione", "1,2,4-Triazinane-3,5-dione"], "SMILES": "O=C1NC(=O)NNC1", "physical_data": {"Molecular Weight": "115.09", "Molecular Formula": "C3H5N3O2", "Melting Point": "234 \u00b0C"}}