{"cas_no": "18800-51-6", "cn_name": "2,3-\u4e8c\u7532\u57fa\u82ef\u786b\u915a", "en_name": ["2,3-Dimethylbenzenethiol", "Benzenethiol, 2,3-dimethyl-", "2,3-Xylenethiol", "2,3-Dimethylbenzenethiol"], "SMILES": "CC1=C(C)C=CC=C1S", "physical_data": {"Molecular Weight": "138.23", "Molecular Formula": "C8H10S", "Boiling Point": "132.2 \u00b0C @ Press: 50 Torr", "Melting Point": "22-23 \u00b0C"}}