{"cas_no": "18800-53-8", "cn_name": "3,4-\u4e8c\u7532\u57fa\u82ef\u786b\u915a", "en_name": ["3,4-Dimethylbenzenethiol", "Benzenethiol, 3,4-dimethyl-", "3,4-Xylenethiol", "3,4-Dimethylbenzenethiol", "3,4-Dimethylthiophenol", "3,4-Dimethylbenzene-1-thiol"], "SMILES": "CC1=C(C)C=CC(S)=C1", "physical_data": {"Molecular Weight": "138.23", "Molecular Formula": "C8H10S", "Boiling Point": "132.5 \u00b0C @ Press: 50 Torr"}}