{"cas_no": "18812-51-6", "cn_name": "1-\u4e19\u57fa\u81a6\u9178\u4e8c\u4e59\u916f", "en_name": ["Diethyl propylphosphonate", "Phosphonic acid, P-propyl-, diethyl ester", "Phosphonic acid, propyl-, diethyl ester", "Diethyl propylphosphonate", "O,O-Diethyl propylphosphonate", "Diethyl propanephosphonate", "Diethoxypropylphosphine oxide", "1-Diethoxyphosphorylpropane"], "SMILES": "P(CCC)(OCC)(OCC)=O", "physical_data": {"Molecular Weight": "180.18", "Molecular Formula": "C7H17O3P", "Boiling Point": "102 \u00b0C @ Press: 17 Torr", "Density": "0.9937 g/cm\u00b3 @ Temp: 30 \u00b0C"}}