{"cas_no": "18810-25-8", "cn_name": "\u5965\u591a\u8bfa\u7519 H", "en_name": ["Odoroside H", "Card-20(22)-enolide, 3-[(6-deoxy-3-O-methyl-\u03b2-D-galactopyranosyl)oxy]-14-hydroxy-, (3\u03b2,5\u03b2)-", "Odoroside H", "(3\u03b2,5\u03b2)-3-[(6-Deoxy-3-O-methyl-\u03b2-D-galactopyranosyl)oxy]-14-hydroxycard-20(22)-enolide", "Digitoxigenin \u03b2-D-digitaloside", "Digitoxigenin digitaloside"], "SMILES": "OC12C3C(C4(C)C(CC3)CC(OC5C(O)C(OC)C(O)C(C)O5)CC4)CCC1(C)C(CC2)C6=CC(=O)OC6", "physical_data": {"Molecular Weight": "534.68", "Molecular Formula": "C30H46O8", "Melting Point": "228-232 \u00b0C"}}