{"cas_no": "188121-31-5", "cn_name": "6-\u7532\u57fa-5-\u785d\u57fa\u5f02\u55b9\u5549", "en_name": ["6-Methyl-5-nitroisoquinoline", "Isoquinoline, 6-methyl-5-nitro-", "6-Methyl-5-nitroisoquinoline"], "SMILES": "N(=O)(=O)C=1C2=C(C=CC1C)C=NC=C2", "physical_data": {"Molecular Weight": "188.18", "Molecular Formula": "C10H8N2O2", "Melting Point": "135-137 \u00b0C"}}