{"cas_no": "1882-71-9", "cn_name": "2-\u6c28\u57fa-5-\u7532\u6c27\u57fa\u82ef\u7532\u9170\u80fa", "en_name": ["2-Amino-5-methoxybenzamide", "Benzamide, 2-amino-5-methoxy-", "m-Anisamide, 6-amino-", "2-Amino-5-methoxybenzamide", "2-Amino-5-(methyloxy)benzamide", "5-Methoxy-2-aminobenzamide"], "SMILES": "C(N)(=O)C1=CC(OC)=CC=C1N", "physical_data": {"Molecular Weight": "166.18", "Molecular Formula": "C8H10N2O2", "Melting Point": "157-158 \u00b0C"}}