{"cas_no": "18820-82-1", "cn_name": "\u5421\u5576\u6eb4\u5316\u6c22\u76d0", "en_name": ["Pyridine, hydrobromide (1:1)", "Pyridine, hydrobromide (1:1)", "Pyridine, hydrobromide", "Pyridinium bromide", "Pyridinium hydrobromide", "Pyridine, compd. with hydrogen bromide (1:1)", "NSC 167065", "NSC 620577"], "SMILES": "C=1C=CN=CC1.Br", "physical_data": {"Molecular Weight": "", "Molecular Formula": "C5H5N.BrH", "Melting Point": "155-156 \u00b0C"}}