{"cas_no": "18829-56-6", "cn_name": "\u53cd\u5f0f-2-\u58ec\u919b", "en_name": ["(E)-2-Nonenal", "2-Nonenal, (2E)-", "2-Nonenal, (E)-", "(2E)-2-Nonenal", "trans-2-Nonenal", "trans-2-Nonen-1-al", "2-trans-Nonenal", "(E)-2-Nonen-1-al", "(E)-2-Nonenal", "(2E)-Non-2-enal", "(2E)-Nonenal", "(E)-Non-2-enal", "(E)-Nonen-1-al", "(2E)-Nonen-1-al"], "SMILES": "C(CC=CC=O)CCCC", "physical_data": {"Molecular Weight": "140.22", "Molecular Formula": "C9H16O", "Boiling Point": "101 \u00b0C", "Melting Point": "&lt;25 \u00b0C"}}