{"cas_no": "18829-70-4", "cn_name": "(-)-\u513f\u8336\u7d20\u6c34\u5408\u7269", "en_name": ["(-)-Catechol", "2H-1-Benzopyran-3,5,7-triol, 2-(3,4-dihydroxyphenyl)-3,4-dihydro-, (2S,3R)-", "Catechol, (-)-", "2H-1-Benzopyran-3,5,7-triol, 2-(3,4-dihydroxyphenyl)-3,4-dihydro-, (2S-trans)-", "(2S,3R)-2-(3,4-Dihydroxyphenyl)-3,4-dihydro-2H-1-benzopyran-3,5,7-triol", "(-)-Catechin", "L-Catechin", "l-Catechin", "(-)-Catechol", "l-Catechol", "NSC 81746", "(-)-(2S,3R)-Catechin", "ent-Catechin", "(-)-(2S,3R)-2-(3,4-Dihydroxyphenyl)-3,4-dihydro-1(2H)-benzopyran-3,5,7-triol", "(2S,3R)-Ent-catechin", "(2S,3R)-Catechin"], "SMILES": "OC1C(OC=2C(C1)=C(O)C=C(O)C2)C3=CC(O)=C(O)C=C3", "physical_data": {"Molecular Weight": "290.27", "Molecular Formula": "C15H14O6", "Melting Point": "175-177 \u00b0C"}}