{"cas_no": "1882-72-0", "cn_name": "2-\u6c28\u57fa-5-\u7f9f\u57fa\u82ef\u7532\u9178\u7532\u57fa", "en_name": ["Benzoic acid, 2-amino-5-hydroxy-, methyl ester", "Benzoic acid, 2-amino-5-hydroxy-, methyl ester", "Anthranilic acid, 5-hydroxy-, methyl ester", "Methyl 5-hydroxyanthranilate", "4-Amino-3-methoxycarbonylphenol", "Methyl 2-amino-5-hydroxybenzoate", "5-Hydroxyanthranilic acid methyl ester", "2-Amino-5-hydroxybenzoic acid methyl ester"], "SMILES": "C(OC)(=O)C1=C(N)C=CC(O)=C1", "physical_data": {"Molecular Weight": "167.16", "Molecular Formula": "C8H9NO3", "Melting Point": "158 \u00b0C"}}