{"cas_no": "18824-63-0", "cn_name": "1,1-\u4e8c\u7532\u6c27\u57fa\u58ec\u70f7", "en_name": ["1,1-Dimethoxynonane", "Nonane, 1,1-dimethoxy-", "Nonanal, dimethyl acetal", "1,1-Dimethoxynonane", "Pelargonic aldehyde dimethyl acetal", "Pelargonaldehyde dimethyl acetal"], "SMILES": "C(CCCCCCCC)(OC)OC", "physical_data": {"Molecular Weight": "188.31", "Molecular Formula": "C11H24O2", "Boiling Point": "96-98 \u00b0C @ Press: 15 Torr", "Density": "0.8733 g/cm\u00b3 @ Temp: 18 \u00b0C"}}