{"cas_no": "1882-69-5", "cn_name": "5-\u7532\u6c27\u57fa-2-\u785d\u57fa\u82ef\u7532\u9178", "en_name": ["5-Methoxy-2-nitrobenzoic acid", "Benzoic acid, 5-methoxy-2-nitro-", "m-Anisic acid, 6-nitro-", "5-Methoxy-2-nitrobenzoic acid", "2-Nitro-5-methoxybenzoic acid", "NSC 364656", "5-(Methyloxy)-2-nitrobenzoic acid"], "SMILES": "C(O)(=O)C1=C(N(=O)=O)C=CC(OC)=C1", "physical_data": {"Molecular Weight": "197.14", "Molecular Formula": "C8H7NO5", "Melting Point": "132 \u00b0C"}}