{"cas_no": "18829-55-5", "cn_name": "(E)-2-\u5e9a\u70ef\u919b", "en_name": ["trans-2-Heptenal", "2-Heptenal, (2E)-", "2-Heptenal, (E)-", "(2E)-2-Heptenal", "trans-2-Heptenal", "2-trans-Heptenal", "n-Hept-trans-2-enal", "(E)-2-Heptenal", "(E)-2-Hepten-1-al", "(2E)-Heptenal", "trans-2-Hepten-1-al"], "SMILES": "C(C=CC=O)CCC", "physical_data": {"Molecular Weight": "112.17", "Molecular Formula": "C7H12O", "Boiling Point": "70-73 \u00b0C @ Press: 19 Torr"}}