{"cas_no": "18822-58-7", "cn_name": "O-\u53d4\u4e01\u57fa-L-\u4e1d\u6c28\u9178", "en_name": ["O-(1,1-Dimethylethyl)-L-serine", "L-Serine, O-(1,1-dimethylethyl)-", "Alanine, 3-tert-butoxy-, L-", "O-(1,1-Dimethylethyl)-L-serine", "O-tert-Butyl-L-serine", "3-tert-Butoxy-L-alanine", "Serine tert-butyl ether", "O-tert-Butylserine", "L-Serine \u03b2-tert-butylether", "(2S)-2-Amino-3-(tert-butoxy)propanoic acid", "(2S)-2-Amino-3-[(2-methylpropan-2-yl)oxy]propanoic acid", "(S)-2-Amino-3-(tert-butoxy)propanoic acid"], "SMILES": "C(C(C(O)=O)N)OC(C)(C)C", "physical_data": {"Molecular Weight": "161.20", "Molecular Formula": "C7H15NO3", "Melting Point": "238-239 \u00b0C"}}