{"cas_no": "1882-82-2", "cn_name": "17\u03b1-\u7f9f\u57fa\u5b55\u753e-4-\u70ef-3,11,20-\u4e09\u916e", "en_name": ["21-Deoxycortisone", "Pregn-4-ene-3,11,20-trione, 17-hydroxy-", "17-Hydroxypregn-4-ene-3,11,20-trione", "6-Pregn-4-en-17\u03b1-ol-3,11,20-trione", "4-Pregnene-17\u03b1-ol-3,11,20-trione", "17\u03b1-Hydroxypregn-4-ene-3,11,20-trione", "21-Deoxycortisone", "21-Desoxycortisone", "17\u03b1-Hydroxy-11-oxoprogesterone", "NSC 38722"], "SMILES": "CC12C(C3C(C4(C)C(CC3)=CC(=O)CC4)C(=O)C1)CCC2(C(C)=O)O", "physical_data": {"Molecular Weight": "344.44", "Molecular Formula": "C21H28O4", "Melting Point": "236-239 \u00b0C", "Density": "1.25 g/cm\u00b3"}}