{"cas_no": "18822-59-8", "cn_name": "O-\u53d4\u4e01\u57fa-L-\u916a\u6c28\u9178", "en_name": ["O-tert-Butyl-L-tyrosine", "L-Tyrosine, O-(1,1-dimethylethyl)-", "Alanine, 3-(p-tert-butoxyphenyl)-, L-", "O-(1,1-Dimethylethyl)-L-tyrosine", "O-tert-Butyltyrosine", "O-tert-Butyl-L-tyrosine", "Tyrosine tert-butyl ether", "(S)-2-Amino-3-(4-(tert-butoxy)phenyl)propanoic acid"], "SMILES": "O(C(C)(C)C)C1=CC=C(CC(C(O)=O)N)C=C1", "physical_data": {"Molecular Weight": "237.29", "Molecular Formula": "C13H19NO3", "Melting Point": "248-249.5 \u00b0C (decomp)"}}