{"cas_no": "1883-75-6", "cn_name": "2,5-\u544b\u5583\u4e8c\u7532\u9187", "en_name": ["2,5-Furandimethanol", "2,5-Furandimethanol", "2,5-Bis(hydroxymethyl)furan", "2,5-Di(hydroxymethyl)furan", "FaRez 6305", "5-(Hydroxymethyl)furfuryl alcohol", "NSC 40737", "NSC 524614", "2,5-Bis(hydroxylmethyl)furan", "2,5-Dihydroxymethylfurane"], "SMILES": "C(O)C=1OC(CO)=CC1", "physical_data": {"Molecular Weight": "128.13", "Molecular Formula": "C6H8O3", "Boiling Point": "95-120 \u00b0C @ Press: 0.4 Torr", "Melting Point": "80 \u00b0C"}}