{"cas_no": "18836-52-7", "cn_name": "\u5899\u8349\u78b1", "en_name": ["Pellitorine", "2,4-Decadienamide, N-(2-methylpropyl)-, (2E,4E)-", "2,4-Decadienamide, N-isobutyl-, (E,E)-", "2,4-Decadienamide, N-(2-methylpropyl)-, (E,E)-", "Pellitorine", "(2E,4E)-N-(2-Methylpropyl)-2,4-decadienamide", "N-Isobutyldeca-trans-2-trans-4-dienamide", "N-(2-Methylpropyl)deca-trans-2-trans-4-dienamide", "N-Isobutyl-2-trans-4-trans-decadienamide", "(E,E)-N-(2-Methylpropyl)-2,4-decadienamide", "Pellitorin", "trans-Pellitorin", "2E,4E-Decadienoic acid N-isobutylamide", "(2E,4E)-N-Isobutyl-2,4-decadienamide", "trans-Pellitorine", "Optaflow A"], "SMILES": "C(C(NCC(C)C)=O)=CC=CCCCCC", "physical_data": {"Molecular Weight": "223.35", "Molecular Formula": "C14H25NO", "Melting Point": "72 \u00b0C"}}