{"cas_no": "1883-32-5", "cn_name": "2,2-\u4e8c\u82ef\u57fa\u4e59\u9187", "en_name": ["\u03b2-Phenylbenzeneethanol", "Benzeneethanol, \u03b2-phenyl-", "Ethanol, 2,2-diphenyl-", "\u03b2-Phenylbenzeneethanol", "2,2-Diphenylethanol", "2,2-Diphenylethyl alcohol", "NSC 4574", "2,2-Diphenyl-1-ethanol"], "SMILES": "C(CO)(C1=CC=CC=C1)C2=CC=CC=C2", "physical_data": {"Molecular Weight": "198.26", "Molecular Formula": "C14H14O", "Boiling Point": "190-192 \u00b0C @ Press: 12 Torr", "Melting Point": "64.5 \u00b0C"}}