{"cas_no": "188347-49-1", "cn_name": "3,5-\u4e8c\u6eb4\u82ef\u4e59\u9178", "en_name": ["3,5-Dibromobenzeneacetic acid", "Benzeneacetic acid, 3,5-dibromo-", "3,5-Dibromobenzeneacetic acid", "3,5-Dibromophenylacetic acid", "2-(3,5-Dibromophenyl)acetic acid"], "SMILES": "C(C(O)=O)C1=CC(Br)=CC(Br)=C1", "physical_data": {"Molecular Weight": "293.94", "Molecular Formula": "C8H6Br2O2", "Melting Point": "133-135 \u00b0C"}}