{"cas_no": "1883-13-2", "cn_name": "3-\u7f9f\u57fa\u6708\u6842 \u9178", "en_name": ["(\u00b1)-3-Hydroxydodecanoic acid", "Dodecanoic acid, 3-hydroxy-", "3-Hydroxydodecanoic acid", "\u03b2-Hydroxylauric acid", "\u03b2-Hydroxydodecanoic acid", "3-Hydroxylauric acid", "DL-\u03b2-Hydroxydodecanoic acid", "(\u00b1)-3-Hydroxydodecanoic acid", "(RS)-3-Hydroxylauric acid"], "SMILES": "C(CCCCCCCCC)(CC(O)=O)O", "physical_data": {"Molecular Weight": "216.32", "Molecular Formula": "C12H24O3", "Boiling Point": "113-115 \u00b0C @ Press: 3 Torr", "Melting Point": "70-70.5 \u00b0C"}}