{"cas_no": "1883-09-6", "cn_name": "L-2,4-\u4e8c\u6c28\u57fa\u4e01\u9178\u4e8c\u76d0\u9178\u76d0", "en_name": ["L-2,4-Diaminobutyric acid dihydrochloride", "Butanoic acid, 2,4-diamino-, hydrochloride (1:2), (2S)-", "Butyric acid, 2,4-diamino-, dihydrochloride, L-", "Butanoic acid, 2,4-diamino-, dihydrochloride, (S)-", "Butanoic acid, 2,4-diamino-, dihydrochloride, (2S)-", "L-2,4-Diaminobutyric acid dihydrochloride", "L-2,4-Diaminobutanoic acid dihydrochloride", "(2S)-2,4-Diaminobutanoic acid dihydrochloride"], "SMILES": "C(CCN)(C(O)=O)N.Cl", "physical_data": {"Molecular Weight": "", "Molecular Formula": "C4H10N2O2.2ClH", "Melting Point": "195-196 \u00b0C"}}