{"cas_no": "188417-26-7", "cn_name": "\u5f02\u4e01\u9178\u4e59\u57fa\u9999\u5170\u916f", "en_name": ["Ethylvanillin isobutyrate", "Propanoic acid, 2-methyl-, 2-ethoxy-4-formylphenyl ester", "4-Isobutanoyloxy-3-ethoxybenzaldehyde", "Ethylvanillin isobutyrate", "2-Ethoxy-4-formylphenyl 2-methylpropanoate", "2-Ethoxy-4-formylphenyl isobutyrate"], "SMILES": "O(C(C(C)C)=O)C1=C(OCC)C=C(C=O)C=C1", "physical_data": {"Molecular Weight": "236.26", "Molecular Formula": "C13H16O4", "Melting Point": "45-46 \u00b0C"}}