{"cas_no": "18842-99-4", "cn_name": "\u53bb\u4e59\u9170\u8f66\u53f6\u8349\u82f7\u9178", "en_name": ["Scandoside", "Cyclopenta[c]pyran-4-carboxylic acid, 1-(\u03b2-D-glucopyranosyloxy)-1,4a,5,7a-tetrahydro-5-hydroxy-7-(hydroxymethyl)-, (1S,4aS,5R,7aS)-", "Scandoside", "Cyclopenta[c]pyran-4-carboxylic acid, 1-(\u03b2-D-glucopyranosyloxy)-1,4a,5,7a-tetrahydro-5-hydroxy-7-(hydroxymethyl)-, [1S-(1\u03b1,4a\u03b1,5\u03b1,7a\u03b1)]-", "(1S,4aS,5R,7aS)-1-(\u03b2-D-Glucopyranosyloxy)-1,4a,5,7a-tetrahydro-5-hydroxy-7-(hydroxymethyl)cyclopenta[c]pyran-4-carboxylic acid"], "SMILES": "O(C1C2C(C(C(O)=O)=CO1)C(O)C=C2CO)C3OC(CO)C(O)C(O)C3O", "physical_data": {"Molecular Weight": "390.34", "Molecular Formula": "C16H22O11", "Melting Point": "139-143 \u00b0C"}}