{"cas_no": "188425-85-6", "cn_name": "\u5576\u9170\u83cc\u80fa", "en_name": ["Boscalid", "3-Pyridinecarboxamide, 2-chloro-N-(4\u2032-chloro[1,1\u2032-biphenyl]-2-yl)-", "2-Chloro-N-(4\u2032-chloro[1,1\u2032-biphenyl]-2-yl)-3-pyridinecarboxamide", "Boscalid", "Nicobifen", "BAS 510F", "Filan", "Cantus", "Endura", "F 510", "2-Chloro-N-(4\u2032-chlorobiphenyl-2-yl)nicotinamide", "Emerald (fungicide)", "Emerald", "2-Chloro-N-[2-(4-chlorophenyl)phenyl]pyridine-3-carboxamide"], "SMILES": "N(C(=O)C1=C(Cl)N=CC=C1)C2=C(C=CC=C2)C3=CC=C(Cl)C=C3", "physical_data": {"Molecular Weight": "343.21", "Molecular Formula": "C18H12Cl2N2O", "Melting Point": "143 \u00b0C"}}