{"cas_no": "1884-68-0", "cn_name": "\u56db\u82ef\u57fa\u567b\u5429", "en_name": ["2,3,4,5-Tetraphenylthiophene", "Thiophene, 2,3,4,5-tetraphenyl-", "Thiophene, tetraphenyl-", "2,3,4,5-Tetraphenylthiophene", "Thionessal", "Tetraphenylthiophene", "NSC 56485"], "SMILES": "C=1(C(=C(SC1C2=CC=CC=C2)C3=CC=CC=C3)C4=CC=CC=C4)C5=CC=CC=C5", "physical_data": {"Molecular Weight": "388.52", "Molecular Formula": "C28H20S", "Melting Point": "164 \u00b0C"}}