{"cas_no": "1885-38-7", "cn_name": "\u8089\u6842\u8148", "en_name": ["(2E)-3-Phenyl-2-propenenitrile", "2-Propenenitrile, 3-phenyl-, (2E)-", "Cinnamonitrile, (E)-", "2-Propenenitrile, 3-phenyl-, (E)-", "(2E)-3-Phenyl-2-propenenitrile", "trans-\u03b2-Phenylacrylonitrile", "trans-Cinnamonitrile", "trans-3-Phenylpropenonitrile", "(E)-Cinnamonitrile", "(E)-3-Phenylacrylonitrile", "(E)-3-Phenylpropenenitrile", "trans-3-Phenyl-2-propenenitrile", "(2E)-3-Phenylprop-2-enenitrile", "NSC 77496", "(2E)-3-Phenylprop-2-enenitrile", "3-trans-Phenyl-acrylonitrile", "(E)-Cinnamyl nitrile", "Cinnamalva"], "SMILES": "C(=CC#N)C1=CC=CC=C1", "physical_data": {"Molecular Weight": "129.16", "Molecular Formula": "C9H7N", "Boiling Point": "263.8 \u00b0C", "Melting Point": "22 \u00b0C", "Density": "1.0374 g/cm\u00b3 @ Temp: 15.2 \u00b0C"}}