{"cas_no": "1885-35-4", "cn_name": "3,4,5-\u4e09\u7532\u6c27\u57fa\u82ef\u7532\u8148", "en_name": ["3,4,5-Trimethoxybenzonitrile", "Benzonitrile, 3,4,5-trimethoxy-", "3,4,5-Trimethoxybenzonitrile", "3,4,5-Trimethoxybenzenecarbonitrile", "NSC 408924"], "SMILES": "O(C)C1=C(OC)C=C(C#N)C=C1OC", "physical_data": {"Molecular Weight": "193.20", "Molecular Formula": "C10H11NO3", "Melting Point": "91 \u00b0C"}}