{"cas_no": "1885-76-3", "cn_name": "6-\u785d\u57fa-2-\u7532\u57fa\u82ef\u7532\u8148", "en_name": ["2-Methyl-6-nitrobenzonitrile", "Benzonitrile, 2-methyl-6-nitro-", "o-Tolunitrile, 6-nitro-", "2-Methyl-6-nitrobenzonitrile", "6-Methyl-2-nitrobenzonitrile", "6-Nitro-o-tolunitrile", "6-Nitro-o-toluonitrile", "2-Cyano-3-nitrotoluene"], "SMILES": "C(#N)C1=C(N(=O)=O)C=CC=C1C", "physical_data": {"Molecular Weight": "162.15", "Molecular Formula": "C8H6N2O2", "Melting Point": "109-110 \u00b0C"}}