{"cas_no": "1885-14-9", "cn_name": "\u6c2f\u7532\u9178\u82ef\u916f", "en_name": ["Phenyl chloroformate", "Carbonochloridic acid, phenyl ester", "Formic acid, chloro-, phenyl ester", "Phenyl chloroformate", "Chloroformic acid phenyl ester", "Phenyl chlorocarbonate", "Phenyl carbonochloridate", "Phenyloxycarbonyl chloride", "Phenylchloroformic acid", "NSC 210946", "Chlorocarbonic acid phenyl ester"], "SMILES": "O(C(Cl)=O)C1=CC=CC=C1", "physical_data": {"Molecular Weight": "156.57", "Molecular Formula": "C7H5ClO2", "Boiling Point": "185 \u00b0C", "Melting Point": "38.0-38.5 \u00b0C"}}