{"cas_no": "1885-29-6", "cn_name": "2-\u6c28\u57fa\u82ef\u7532\u8148", "en_name": ["2-Aminobenzonitrile", "Benzonitrile, 2-amino-", "Anthranilonitrile", "2-Aminobenzonitrile", "o-Aminobenzonitrile", "2-Cyano-1-aminobenzene", "2-Cyanoaniline", "o-Cyanoaniline", "2-Cyanophenylamine", "1-Amino-2-cyanobenzene"], "SMILES": "C(#N)C1=C(N)C=CC=C1", "physical_data": {"Molecular Weight": "118.14", "Molecular Formula": "C7H6N2", "Boiling Point": "263 \u00b0C", "Melting Point": "51 \u00b0C"}}