{"cas_no": "1885-48-9", "cn_name": "\u4e8c\u6c1f\u7532\u57fa-2,2,2-\u4e09\u6c1f\u4e59\u57fa\u919a", "en_name": ["2,2,2-Trifluoroethyl difluoromethyl ether", "Ethane, 2-(difluoromethoxy)-1,1,1-trifluoro-", "Ether, difluoromethyl 2,2,2-trifluoroethyl", "2-(Difluoromethoxy)-1,1,1-trifluoroethane", "Difluoromethyl 2,2,2-trifluoroethyl ether", "2,2,2-Trifluoroethyl difluoromethyl ether", "HFC-E 245", "R-E 245fa1", "HFE 245fa2", "HFE 245mf", "E 245", "RE 245"], "SMILES": "C(C(F)(F)F)OC(F)F", "physical_data": {"Molecular Weight": "150.05", "Molecular Formula": "C3H3F5O", "Boiling Point": "29.3 \u00b0C"}}