{"cas_no": "1885-32-1", "cn_name": "2-\u6c28\u57fa-3-\u7532\u57fa\u82ef\u80fa", "en_name": ["2-Amino-3-methylbenzamide", "Benzamide, 2-amino-3-methyl-", "m-Toluamide, 2-amino-", "2-Amino-3-methylbenzamide"], "SMILES": "C(N)(=O)C1=C(N)C(C)=CC=C1", "physical_data": {"Molecular Weight": "150.18", "Molecular Formula": "C8H10N2O", "Melting Point": "149 \u00b0C"}}