{"cas_no": "1885-13-8", "cn_name": "4-\u7532\u6c27\u57fa\u90bb\u82ef\u4e8c\u7532\u9178", "en_name": ["4-Methoxyphthalic acid", "1,2-Benzenedicarboxylic acid, 4-methoxy-", "Phthalic acid, 4-methoxy-", "4-Methoxy-1,2-benzenedicarboxylic acid", "4-Methoxyphthalic acid", "4-Methoxy-o-phthalic acid"], "SMILES": "C(O)(=O)C1=C(C(O)=O)C=CC(OC)=C1", "physical_data": {"Molecular Weight": "196.16", "Molecular Formula": "C9H8O5", "Melting Point": "170 \u00b0C"}}