{"cas_no": "18855-52-2", "cn_name": "\u4e8c\u7532\u6c28\u57fa\u4e9a\u7532\u57fa\u4e8c\u78f7\u9178\u56db\u4e59\u916f", "en_name": ["Tetraethyl [(dimethylamino)methylene]diphosphonate", "Phosphonic acid, P,P\u2032-[(dimethylamino)methylene]bis-, P,P,P\u2032,P\u2032-tetraethyl ester", "Phosphonic acid, [(dimethylamino)methylene]di-, tetraethyl ester", "Phosphonic acid, [(dimethylamino)methylene]bis-, tetraethyl ester", "Tetraethyl [(dimethylamino)methylene]diphosphonate", "1,1-Bis(diethoxyphosphoryl)-N,N-dimethylmethanamine"], "SMILES": "C(P(OCC)(OCC)=O)(P(OCC)(OCC)=O)N(C)C", "physical_data": {"Molecular Weight": "331.28", "Molecular Formula": "C11H27NO6P2", "Boiling Point": "114-115 \u00b0C @ Press: 0.03 Torr"}}