{"cas_no": "18856-68-3", "cn_name": "\u4e8c\u7532\u57fa\u6c28\u4e9a\u7532\u57fa\u4e19\u4e8c\u9178\u4e8c\u4e59\u916f", "en_name": ["1,3-Diethyl 2-[(dimethylamino)methylene]propanedioate", "Propanedioic acid, 2-[(dimethylamino)methylene]-, 1,3-diethyl ester", "Malonic acid, [(dimethylamino)methylene]-, diethyl ester", "Propanedioic acid, [(dimethylamino)methylene]-, diethyl ester", "1,3-Diethyl 2-[(dimethylamino)methylene]propanedioate", "Diethyl dimethylaminomethylenemalonate", "[(Dimethylamino)methylene]propanedioic acid diethyl ester", "NSC 522482", "Ethyl 2-ethoxycarbonyl-3-dimethylamino-2-acrylate", "Diethyl 2-[(dimethylamino)methylene]malonate", "1,3-Diethyl 2-[(dimethylamino)methylidene]propanedioate"], "SMILES": "C(C(OCC)=O)(C(OCC)=O)=CN(C)C", "physical_data": {"Molecular Weight": "215.25", "Molecular Formula": "C10H17NO4", "Boiling Point": "123 \u00b0C @ Press: 0.07 Torr", "Melting Point": "176-178 \u00b0C"}}