{"cas_no": "18858-06-5", "cn_name": "5-\u6c2f-2-\u7532\u57fa\u82ef\u786b\u915a", "en_name": ["5-Chloro-2-methylbenzenethiol", "Benzenethiol, 5-chloro-2-methyl-", "o-Toluenethiol, 5-chloro-", "5-Chloro-2-methylbenzenethiol", "3-Chloro-6-methylbenzenethiol", "2-Methyl-5-chlorothiophenol", "2-Methyl-5-chlorobenzenethiol", "5-Chloro-2-methylthiophenol", "5-Chloro-o-thiocresol", "NSC 123874", "NSC 89851"], "SMILES": "SC1=C(C)C=CC(Cl)=C1", "physical_data": {"Molecular Weight": "158.65", "Molecular Formula": "C7H7ClS", "Boiling Point": "114-117 \u00b0C @ Press: 17 Torr"}}