{"cas_no": "18854-01-8", "cn_name": "\u6076\u5511\u78f7", "en_name": ["Isoxathion", "Phosphorothioic acid, O,O-diethyl O-(5-phenyl-3-isoxazolyl) ester", "3-Isoxazolol, 5-phenyl-, O-ester with O,O-diethyl phosphorothioate", "Isoxathion", "Karphos"], "SMILES": "O(P(OCC)(OCC)=S)C=1C=C(ON1)C2=CC=CC=C2", "physical_data": {"Molecular Weight": "313.31", "Molecular Formula": "C13H16NO4PS", "Boiling Point": "160 \u00b0C @ Press: 0.15 Torr", "Melting Point": "&lt;25 \u00b0C"}}