{"cas_no": "18868-43-4", "cn_name": "\u4e8c\u6c27\u5316\u94bc", "en_name": ["Molybdenum dioxide", "Molybdenum oxide (MoO2)", "Molybdenum dioxide", "Molybdenum oxide"], "SMILES": "[Mo](=O)=O", "physical_data": {"Molecular Weight": "", "Molecular Formula": "MoO2", "Melting Point": "2000 \u00b0C", "Density": "3.5 g/cm\u00b3"}}