{"cas_no": "18865-74-2", "cn_name": "\u56db(2,2,6,6-\u56db\u7532\u57fa-3,5-\u5e9a\u4e8c\u9178)\u9506", "en_name": ["Tetrakis(2,2,6,6-tetramethylheptane-3,5-dionato)zirconium", "Zirconium, tetrakis(2,2,6,6-tetramethyl-3,5-heptanedionato-\u03baO3,\u03baO5)-", "Zirconium, tetrakis(2,2,6,6-tetramethyl-3,5-heptanedionato)-", "Zirconium, tetrakis(2,2,6,6-tetramethyl-3,5-heptanedionato-O,O\u2032)-", "Zirconium, tetrakis(2,2,6,6-tetramethyl-3,5-heptanedionato-\u03baO,\u03baO\u2032)-", "3,5-Heptanedione, 2,2,6,6-tetramethyl-, zirconium complex", "Tetrakis(2,2,6,6-tetramethyl-3,5-heptanedionato-\u03baO3,\u03baO5)zirconium", "Tetrakis(dipivaloylmethanato)zirconium", "Zirconium tetrakis(dipivaloylmethane)", "Tetrakis(2,2,6,6-tetramethylheptane-3,5-dionato)zirconium", "Zirconium tetra(2,2,6,6-tetramethylheptanedioate)", "Zirconium tetrakis(dipivaloylmethanate)", "NSC 174883", "Zirconium tetrakis(dipivaloylmethanato)", "Tetrakis(2,2,6,6-tetramethyl-3,5-heptanedionato)zirconium(IV)", "Zirconium tetrakis(2,2,6,6-tetramethyl-3,5-heptanedionate)"], "SMILES": "C(C)(C)(C)C1=O[Zr+4]234(O=C(C(C)(C)C)[CH-]C(C(C)(C)C)=O2)(O=C(C(C)(C)C)[CH-]C(C(C)(C)C)=O3)(O=C(C(C)(C)C)[CH-]C(C(C)(C)C)=O4)O=C(C(C)(C)C)[CH-]1", "physical_data": {"Molecular Weight": "", "Molecular Formula": "C44H76O8Zr", "Melting Point": "192 \u00b0C (sublm)"}}