{"cas_no": "1886-57-3", "cn_name": "2-\u53d4\u4e01\u57fa\u785d\u57fa\u82ef", "en_name": ["1-(1,1-Dimethylethyl)-2-nitrobenzene", "Benzene, 1-(1,1-dimethylethyl)-2-nitro-", "Benzene, 1-tert-butyl-2-nitro-", "1-(1,1-Dimethylethyl)-2-nitrobenzene", "o-Nitro-tert-butylbenzene", "o-tert-Butylnitrobenzene", "1-tert-Butyl-2-nitrobenzene", "2-tert-Butylnitrobenzene", "NSC 43039"], "SMILES": "C(C)(C)(C)C1=C(N(=O)=O)C=CC=C1", "physical_data": {"Molecular Weight": "179.22", "Molecular Formula": "C10H13NO2", "Boiling Point": "114-115 \u00b0C @ Press: 10 Torr", "Melting Point": "-2.56 \u00b0C"}}