{"cas_no": "1887-29-2", "cn_name": "\u82ef\u786b\u4ee3\u78fa\u9178\u94a0", "en_name": ["Benzenesulfonothioic acid, sodium salt (1:1)", "Benzenesulfonothioic acid, sodium salt (1:1)", "Benzenesulfonic acid, thio-, sodium salt", "Benzenesulfonothioic acid, sodium salt", "Benzenesulfonic acid, thio-, S-sodium salt", "Sodium benzenethiosulfonate", "Sodium benzenethiosulphonate", "Sodium phenylthiosulfonate", "Benzenethiosulfonic acid sodium salt", "Sodium benezenesulfonothioate", "Sodium, (benzenesulfonothioato-\u03baS)-"], "SMILES": "S(=O)(=O)(S)C1=CC=CC=C1.[Na]", "physical_data": {"Molecular Weight": "", "Molecular Formula": "C6H6O2S2.Na", "Melting Point": "305-306 \u00b0C"}}