{"cas_no": "18871-66-4", "cn_name": "1,1-\u4e8c\u7532\u6c27\u57fa-N,N-\u4e8c\u7532\u57fa\u4e59\u80fa", "en_name": ["Dimethylacetamide dimethyl acetal", "Ethanamine, 1,1-dimethoxy-N,N-dimethyl-", "Acetamide, N,N-dimethyl-, dimethyl acetal", "Ethylamine, 1,1-dimethoxy-N,N-dimethyl-", "1,1-Dimethoxy-N,N-dimethylethanamine", "N,N-Dimethylacetamide dimethyl acetal", "Dimethylacetamide dimethyl acetal", "1-(Dimethylamino)-1,1-dimethoxyethane", "DMF dimethyl acetyl", "N-(1,1-Dimethoxyethyl)-N,N-dimethylamine", "(1,1-Dimethoxyethyl)dimethylamine", "1,1-Dimethoxy-N,N-dimethylethylamine", "1,1-Dimethoxy-N,N-dimethylethan-1-amine"], "SMILES": "C(N(C)C)(OC)(OC)C", "physical_data": {"Molecular Weight": "133.19", "Molecular Formula": "C6H15NO2", "Boiling Point": "118-120 \u00b0C"}}