{"cas_no": "18883-66-4", "cn_name": "\u94fe\u8132\u83cc\u7d20", "en_name": ["Streptozotocin", "D-Glucose, 2-deoxy-2-[[(methylnitrosoamino)carbonyl]amino]-", "Glucopyranose, 2-deoxy-2-(3-methyl-3-nitrosoureido)-, D-", "2-Deoxy-2-[[(methylnitrosoamino)carbonyl]amino]-D-glucose", "Streptozotocin", "Streptozoticin", "NSC 85998", "Streptozocin", "STRZ", "STZ", "NSC 37917", "Zanosar", "U 9889", "Estreptozocin"], "SMILES": "C(C(C(C(CO)O)O)O)(NC(N(N=O)C)=O)C=O", "physical_data": {"Molecular Weight": "265.22", "Molecular Formula": "C8H15N3O7", "Melting Point": "115 \u00b0C"}}