{"cas_no": "1888-94-4", "cn_name": "2-\u6c2f\u7532\u57fa\u4e19\u70ef\u9178\u4e59\u916f", "en_name": ["2-Chloroethyl methacrylate", "2-Propenoic acid, 2-methyl-, 2-chloroethyl ester", "Methacrylic acid, 2-chloroethyl ester", "Ethanol, 2-chloro-, methacrylate", "\u03b2-Chloroethyl methacrylate", "2-Chloroethyl methacrylate", "Methacrylic acid \u03b2-chloroethyl ester", "NSC 18595", "2-Chloroethyl 2-methylprop-2-enoate"], "SMILES": "C(C(C)=C)(OCCCl)=O", "physical_data": {"Molecular Weight": "148.59", "Molecular Formula": "C6H9ClO2", "Boiling Point": "60 \u00b0C @ Press: 7.5 Torr", "Density": "1.105 g/cm\u00b3 @ Temp: 20 \u00b0C"}}