{"cas_no": "18880-00-7", "cn_name": "4-\u53d4\u4e01\u57fa\u82c4\u6eb4", "en_name": ["4-tert-Butylbenzyl bromide", "Benzene, 1-(bromomethyl)-4-(1,1-dimethylethyl)-", "Toluene, \u03b1-bromo-p-tert-butyl-", "1-(Bromomethyl)-4-(1,1-dimethylethyl)benzene", "p-tert-Butylbenzyl bromide", "4-tert-Butylbenzyl bromide", "4-(1,1-Dimethylethyl)benzyl bromide", "\u03b1-Bromo-p-tert-butyltoluene", "4-tert-Butylphenylmethyl bromide", "1-Bromomethyl-4-tert-butylbenzene", "Bromo(4-tert-butylphenyl)methane", "NSC 186287", "1-tert-Butyl-4-(bromomethyl)benzene", "4-tert-Butyl-1-bromomethylbenzene"], "SMILES": "C(C)(C)(C)C1=CC=C(CBr)C=C1", "physical_data": {"Molecular Weight": "227.14", "Molecular Formula": "C11H15Br", "Boiling Point": "133 \u00b0C @ Press: 17 Torr", "Melting Point": "15.2 \u00b0C", "Density": "1.232 g/cm\u00b3 @ Temp: 20 \u00b0C"}}