{"cas_no": "18887-19-9", "cn_name": "\u4e39\u53c2\u916e\u7532\u916f", "en_name": ["Methyl tanshinonate", "Phenanthro[1,2-b]furan-6-carboxylic acid, 6,7,8,9,10,11-hexahydro-1,6-dimethyl-10,11-dioxo-, methyl ester, (6S)-", "Phenanthro[1,2-b]furan-6-carboxylic acid, 6,7,8,9,10,11-hexahydro-1,6-dimethyl-10,11-dioxo-, methyl ester, (S)-", "Methyl tanshinonate", "Methyl tanshinate"], "SMILES": "O=C1C=2C(C3=C(C1=O)C(C)=CO3)=CC=C4C2CCCC4(C(OC)=O)C", "physical_data": {"Molecular Weight": "338.35", "Molecular Formula": "C20H18O5", "Melting Point": "175-176 \u00b0C"}}