{"cas_no": "1888-91-1", "cn_name": "N-\u4e59\u9170\u5df1\u5185\u9170\u80fa", "en_name": ["Acetylcaprolactam", "2H-Azepin-2-one, 1-acetylhexahydro-", "1-Acetylhexahydro-2H-azepin-2-one", "N-Acetylcaprolactam", "N-Acetyl-\u03b5-caprolactam", "N-Acetyl-6-caprolactam", "Acetylcaprolactam", "1-Acetylhexahydroazepin-2-one", "1-Acetylperhydro-2-azepinone", "NSC 522408", "Activator O", "Aktivator O", "1-Acetylazepan-2-one"], "SMILES": "C(C)(=O)N1C(=O)CCCCC1", "physical_data": {"Molecular Weight": "155.19", "Molecular Formula": "C8H13NO2", "Boiling Point": "133-134 \u00b0C @ Press: 16 Torr", "Density": "1.0998 g/cm\u00b3 @ Temp: 20 \u00b0C"}}