{"cas_no": "188815-32-9", "cn_name": "3-\u6eb4-5-\u7898\u82ef\u7532\u9178", "en_name": ["3-Bromo-5-iodobenzoic acid", "Benzoic acid, 3-bromo-5-iodo-", "3-Bromo-5-iodobenzoic acid", "5-Iodo-3-bromobenzoic acid"], "SMILES": "C(O)(=O)C1=CC(Br)=CC(I)=C1", "physical_data": {"Molecular Weight": "326.91", "Molecular Formula": "C7H4BrIO2", "Melting Point": "209-211 \u00b0C"}}