{"cas_no": "18880-05-2", "cn_name": "3-\u7532\u6c27\u57fa\u82c4\u57fa\u4e09\u82ef\u57fa\u6c2f\u5316", "en_name": ["Phosphonium, [(3-methoxyphenyl)methyl]triphenyl-, chloride (1:1)", "Phosphonium, [(3-methoxyphenyl)methyl]triphenyl-, chloride (1:1)", "Phosphonium, (m-methoxybenzyl)triphenyl-, chloride", "Phosphonium, [(3-methoxyphenyl)methyl]triphenyl-, chloride", "3-Methoxybenzyltriphenylphosphonium chloride"], "SMILES": "[P+](CC1=CC(OC)=CC=C1)(C2=CC=CC=C2)(C3=CC=CC=C3)C4=CC=CC=C4.[Cl-]", "physical_data": {"Molecular Weight": "", "Molecular Formula": "C26H24OP.Cl", "Melting Point": "271-272 \u00b0C"}}