{"cas_no": "18881-17-9", "cn_name": "(S)-1,2,3,4-\u56db\u6c22\u5f02\u55b9\u5549-3-\u57fa-\u7532\u9187", "en_name": ["(S)-1,2,3,4-Tetrahydro-3-isoquinolinemethanol", "3-Isoquinolinemethanol, 1,2,3,4-tetrahydro-, (3S)-", "3-Isoquinolinemethanol, 1,2,3,4-tetrahydro-, (S)-", "(3S)-1,2,3,4-Tetrahydro-3-isoquinolinemethanol", "(S)-3-Hydroxymethyl-1,2,3,4-tetrahydroisoquinoline", "(S)-(-)-1,2,3,4-Tetrahydro-3-isoquinolinemethanol", "(S)-(1,2,3,4-Tetrahydroisoquinolin-3-yl)methanol", "(S)-1,2,3,4-Tetrahydro-3-isoquinolinemethanol", "((3S)-1,2,3,4-Tetrahydroisoquinolin-3-yl)methanol", "(3S)-1,2,3,4-Tetrahydroisoquinolin-3-ylmethanol"], "SMILES": "C(O)C1CC=2C(CN1)=CC=CC2", "physical_data": {"Molecular Weight": "163.22", "Molecular Formula": "C10H13NO", "Melting Point": "105-107 \u00b0C"}}