{"cas_no": "1888-57-9", "cn_name": "2,5-\u4e8c\u7532\u57fa-3-\u5df1\u916e", "en_name": ["2,5-Dimethyl-3-hexanone", "3-Hexanone, 2,5-dimethyl-", "2,5-Dimethyl-3-hexanone", "Isobutyl isopropyl ketone", "Isopropyl isobutyl ketone", "NSC 940"], "SMILES": "C(CC(C)C)(C(C)C)=O", "physical_data": {"Molecular Weight": "128.21", "Molecular Formula": "C8H16O", "Boiling Point": "147.5 \u00b0C", "Density": "0.81223 g/cm\u00b3 @ Temp: 20 \u00b0C"}}