{"cas_no": "1888-89-7", "cn_name": "1,2,5,6- \u4e8c\u73af\u6c27\u5df1\u70f7", "en_name": ["1,2:5,6-Diepoxyhexane", "Hexitol, 1,2:5,6-dianhydro-3,4-dideoxy-", "Hexane, 1,2:5,6-diepoxy-", "1,2:5,6-Dianhydro-3,4-dideoxyhexitol", "1,5-Hexadiene diepoxide", "1,2:5,6-Diepoxyhexane", "NSC 47548", "1,2-Di(oxiran-2-yl)ethane", "2-[2-(Oxiran-2-yl)ethyl]oxirane"], "SMILES": "C(CC1CO1)C2CO2", "physical_data": {"Molecular Weight": "114.14", "Molecular Formula": "C6H10O2", "Boiling Point": "86-88 \u00b0C @ Press: 15 Torr"}}