{"cas_no": "1888-71-7", "cn_name": "\u516d\u6c2f\u4e19\u70ef", "en_name": ["1,1,2,3,3,3-Hexachloro-1-propene", "1-Propene, 1,1,2,3,3,3-hexachloro-", "Propene, hexachloro-", "1,1,2,3,3,3-Hexachloro-1-propene", "Hexachloropropene", "Hexachloropropylene", "Perchloropropylene", "Perchloropropene", "1,1,1,2,3,3-Hexachloropropene", "Hexachloro-1-propene", "NSC 7297", "Perchloroprop-1-ene"], "SMILES": "C(C(Cl)(Cl)Cl)(=C(Cl)Cl)Cl", "physical_data": {"Molecular Weight": "248.75", "Molecular Formula": "C3Cl6", "Boiling Point": "209.5 \u00b0C", "Melting Point": "-72.9 \u00b0C", "Density": "1.7632 g/cm\u00b3 @ Temp: 20 \u00b0C"}}