{"cas_no": "1888-33-1", "cn_name": "N-\u4e59\u9170\u57fa\u5bf9\u7532\u82ef\u78fa\u9170\u80fa", "en_name": ["N-[(4-Methylphenyl)sulfonyl]acetamide", "Acetamide, N-[(4-methylphenyl)sulfonyl]-", "Acetamide, N-(p-tolylsulfonyl)-", "N-[(4-Methylphenyl)sulfonyl]acetamide", "N-Acetyltoluene-4-sulfonamide", "N-Tosylacetamide", "N-Acetyl-p-toluenesulfonamide", "NSC 144080", "N-Acetyl-4-methylbenzenesulfonamide", "N-p-Toluenesulfonylacetamide"], "SMILES": "S(NC(C)=O)(=O)(=O)C1=CC=C(C)C=C1", "physical_data": {"Molecular Weight": "213.25", "Molecular Formula": "C9H11NO3S", "Melting Point": "139 \u00b0C"}}