{"cas_no": "188813-07-2", "cn_name": "3-\u6eb4-5-\u7898\u82ef\u7532\u9178\u7532\u916f", "en_name": ["Methyl 3-bromo-5-iodobenzoate", "Benzoic acid, 3-bromo-5-iodo-, methyl ester", "Methyl 3-bromo-5-iodobenzoate", "3-Bromo-5-iodobenzoic acid methyl ester", "Methyl 5-bromo-3-iodobenzoate"], "SMILES": "C(OC)(=O)C1=CC(Br)=CC(I)=C1", "physical_data": {"Molecular Weight": "340.94", "Molecular Formula": "C8H6BrIO2", "Melting Point": "62.0-63.0 \u00b0C"}}