{"cas_no": "18881-04-4", "cn_name": "(S)-\u987a\u5f0f-\u9a6c\u97ad\u8349\u70ef\u9187", "en_name": ["(-)-Verbenol", "Bicyclo[3.1.1]hept-3-en-2-ol, 4,6,6-trimethyl-, (1S,2S,5S)-", "Bicyclo[3.1.1]hept-3-en-2-ol, 4,6,6-trimethyl-, [1S-(1\u03b1,2\u03b2,5\u03b1)]-", "(1S,2S,5S)-4,6,6-Trimethylbicyclo[3.1.1]hept-3-en-2-ol", "(-)-cis-Verbenol", "S-(-)-cis-Verbenol", "(1S,4S,5S)-cis-Verbenol", "(S)-cis-Verbenol", "(-)-Verbenol", "(1S)-cis-Verbenol"], "SMILES": "CC1(C)C2CC1C(O)C=C2C", "physical_data": {"Molecular Weight": "152.23", "Molecular Formula": "C10H16O", "Melting Point": "65 \u00b0C"}}