{"cas_no": "1888-75-1", "cn_name": "\u5f02\u4e19\u57fa\u9502", "en_name": ["Isopropyllithium", "Lithium, (1-methylethyl)-", "Lithium, isopropyl-", "Isopropyllithium", "2-Propyllithium", "2-Lithiopropane"], "SMILES": "C(C)(C)[Li]", "physical_data": {"Molecular Weight": "", "Molecular Formula": "C3H7Li", "Melting Point": "99-100 \u00b0C"}}