{"cas_no": "1889-67-4", "cn_name": "2,3-\u4e8c\u7532\u57fa-2,3-\u4e8c\u82ef\u57fa\u4e01\u70f7", "en_name": ["2,3-Dimethyl-2,3-diphenylbutane", "Benzene, 1,1\u2032-(1,1,2,2-tetramethyl-1,2-ethanediyl)bis-", "Bibenzyl, \u03b1,\u03b1,\u03b1\u2032,\u03b1\u2032-tetramethyl-", "1,1\u2032-(1,1,2,2-Tetramethyl-1,2-ethanediyl)bis[benzene]", "Dicumene", "\u03b1,\u03b1\u2032-Dicumyl", "2,3-Dimethyl-2,3-diphenylbutane", "2,3-Diphenyl-2,3-dimethylbutane", "Dicumyl", "1,2-Diphenyltetramethylethane", "Interox CC-DFB", "\u03b1,\u03b1,\u03b1\u2032,\u03b1\u2032-Tetramethylbibenzyl", "Perkadox 30", "Nofmer BC", "1,1,2,2-Tetramethyl-1,2-diphenylethane", "Bicumyl", "Nofmer BC 90", "BC 90", "CCDFB 90", "NSC 34859", "Curox CC-DC", "(2,3-Dimethylbutane-2,3-diyl)dibenzene", "(2,3-Dimethyl-3-phenylbutan-2-yl)benzene", "DMDPB"], "SMILES": "C(C(C)(C)C1=CC=CC=C1)(C)(C)C2=CC=CC=C2", "physical_data": {"Molecular Weight": "238.37", "Molecular Formula": "C18H22", "Boiling Point": "162-165 \u00b0C @ Press: 14 Torr", "Melting Point": "115 \u00b0C"}}