{"cas_no": "1889-59-4", "cn_name": "\u4e59\u57fa\u4e59\u70ef\u57fa\u781c", "en_name": ["(Ethylsulfonyl)ethene", "Ethene, (ethylsulfonyl)-", "Sulfone, ethyl vinyl", "(Ethylsulfonyl)ethene", "Ethyl vinyl sulfone", "Vinyl ethyl sulfone", "NSC 186282", "(Ethanesulfonyl)ethene", "1-Ethenylsulfonylethane", "1-Vinylsulfonylethane"], "SMILES": "S(CC)(C=C)(=O)=O", "physical_data": {"Molecular Weight": "120.17", "Molecular Formula": "C4H8O2S", "Boiling Point": "110-112 \u00b0C @ Press: 8 Torr", "Density": "1.1407 g/cm\u00b3 @ Temp: 20 \u00b0C"}}