{"cas_no": "1889-71-0", "cn_name": "4-\u6c2f\u82ef\u57fa\u82c4\u57fa\u916e", "en_name": ["1-(4-Chlorophenyl)-2-phenylethanone", "Ethanone, 1-(4-chlorophenyl)-2-phenyl-", "Acetophenone, 4\u2032-chloro-2-phenyl-", "1-(4-Chlorophenyl)-2-phenylethanone", "Benzyl p-chlorophenyl ketone", "4\u2032-Chloro-2-phenylacetophenone", "p-Chlorophenyl benzyl ketone", "4-Chlorophenyl benzyl ketone", "Benzyl 4-chlorophenyl ketone", "1-(4-Chlorophenyl)-2-phenyl-1-ethanone", "NSC 32891", "NSC 99455"], "SMILES": "C(CC1=CC=CC=C1)(=O)C2=CC=C(Cl)C=C2", "physical_data": {"Molecular Weight": "230.69", "Molecular Formula": "C14H11ClO", "Boiling Point": "199-200 \u00b0C @ Press: 16 Torr", "Melting Point": "107.5 \u00b0C"}}