{"cas_no": "189-55-9", "cn_name": "\u4e8c\u82ef\u5e76(A,I)\u8298", "en_name": ["Dibenzo[a,i]pyrene", "Benzo[rst]pentaphene", "Benzo[rst]pentacene", "Dibenzo[a,i]pyrene", "3,4:9,10-Dibenzopyrene", "Dibenzo[b,h]pyrene", "1,2:7,8-Dibenzpyrene", "NSC 87521"], "SMILES": "C12=C3C=4C=5C(C=C3C=CC1=CC=6C(C2=CC4)=CC=CC6)=CC=CC5", "physical_data": {"Molecular Weight": "302.37", "Molecular Formula": "C24H14", "Boiling Point": "275 \u00b0C @ Press: 0.05 Torr", "Melting Point": "280 \u00b0C"}}