{"cas_no": "189-64-0", "cn_name": "\u4e8c\u82ef\u5e76(A,H)\u8298", "en_name": ["Dibenzo[a,h]pyrene", "Dibenzo[b,def]chrysene", "Dibenzo[a,h]pyrene", "3,4:8,9-Dibenzopyrene"], "SMILES": "C12=C3C4=C5C(=CC3=CC=C1C=6C(C=C2C=C4)=CC=CC6)C=CC=C5", "physical_data": {"Molecular Weight": "302.37", "Molecular Formula": "C24H14", "Melting Point": "317 \u00b0C"}}