{"cas_no": "18908-66-2", "cn_name": "\u6eb4\u4ee3\u5f02\u8f9b\u70f7", "en_name": ["2-Ethylhexyl bromide", "Heptane, 3-(bromomethyl)-", "3-(Bromomethyl)heptane", "2-Ethylhexyl bromide", "1-Bromo-2-ethylhexane", "2-Ethyl-1-hexyl bromide", "1-Bromoiso-octane", "2-Ethyl-1-bromohexane"], "SMILES": "C(CCCC)(CBr)CC", "physical_data": {"Molecular Weight": "193.12", "Molecular Formula": "C8H17Br", "Boiling Point": "93-98 \u00b0C", "Density": "1.1197 g/cm\u00b3 @ Temp: 25 \u00b0C"}}