{"cas_no": "18908-07-1", "cn_name": "3-\u7532\u6c27\u57fa\u82ef\u5f02\u6c30\u9178", "en_name": ["3-Methoxyphenyl isocyanate", "Benzene, 1-isocyanato-3-methoxy-", "Isocyanic acid, m-methoxyphenyl ester", "1-Isocyanato-3-methoxybenzene", "m-Methoxyphenyl isocyanate", "3-Methoxyphenyl isocyanate", "m-Anisyl isocyanate", "3-Anisyl isocyanate"], "SMILES": "N(=C=O)C1=CC(OC)=CC=C1", "physical_data": {"Molecular Weight": "149.15", "Molecular Formula": "C8H7NO2", "Boiling Point": "94.6-94.8 \u00b0C @ Press: 10 Torr"}}