{"cas_no": "18903-01-0", "cn_name": "N-\u8089\u6842\u57fa\u54cc\u55ea", "en_name": ["1-Cinnamylpiperazine", "Piperazine, 1-(3-phenyl-2-propen-1-yl)-", "Piperazine, 1-cinnamyl-", "Piperazine, 1-(3-phenyl-2-propenyl)-", "1-(3-Phenyl-2-propen-1-yl)piperazine", "1-Cinnamylpiperazine", "N-Cinnamylpiperazine", "N-(3-Phenyl-2-propenyl)piperazine", "1-(3-Phenylallyl)piperazine", "4-Cinnamylpiperazine", "1-(3-Phenyl-2-propenyl)piperazine", "4-(3-Phenylallyl)piperazine"], "SMILES": "C(=CCN1CCNCC1)C2=CC=CC=C2", "physical_data": {"Molecular Weight": "202.30", "Molecular Formula": "C13H18N2", "Boiling Point": "112-114 \u00b0C @ Press: 0.098 Torr", "Melting Point": "95 \u00b0C"}}