{"cas_no": "189089-91-6", "cn_name": "1-(\u82ef\u78fa\u9170\u57fa)-1H-\u5421\u54af\u5e76[2,3-B]\u5421\u5576-2-\u7532\u919b", "en_name": ["1-(Phenylsulfonyl)-1H-pyrrolo[2,3-b]pyridine-2-carboxaldehyde", "1H-Pyrrolo[2,3-b]pyridine-2-carboxaldehyde, 1-(phenylsulfonyl)-", "1-(Phenylsulfonyl)-1H-pyrrolo[2,3-b]pyridine-2-carboxaldehyde", "1-(Benzenesulfonyl)pyrrolo[2,3-b]pyridine-2-carbaldehyde", "1-(Phenylsulfonyl)-1H-pyrrolo[2,3-b]pyridine-2-carbaldehyde"], "SMILES": "S(=O)(=O)(N1C=2C(C=C1C=O)=CC=CN2)C3=CC=CC=C3", "physical_data": {"Molecular Weight": "286.31", "Molecular Formula": "C14H10N2O3S", "Melting Point": "140-145 \u00b0C"}}