{"cas_no": "189028-93-1", "cn_name": "(4S)-3-[5-(4-\u6c1f\u82ef\u57fa)-1,5-\u4e8c\u6c27\u4ee3\u620a\u57fa]-4-\u82ef\u57fa-2-\u6076\u5511\u70f7\u916e", "en_name": ["(S)-1-(4-Fluorophenyl)-5-(2-oxo-4-phenyloxazolidin-3-yl)pentane-1,5-dione", "1,5-Pentanedione, 1-(4-fluorophenyl)-5-[(4S)-2-oxo-4-phenyl-3-oxazolidinyl]-", "2-Oxazolidinone, 3-[5-(4-fluorophenyl)-1,5-dioxopentyl]-4-phenyl-, (S)-", "2-Oxazolidinone, 3-[5-(4-fluorophenyl)-1,5-dioxopentyl]-4-phenyl-, (4S)-", "1-(4-Fluorophenyl)-5-[(4S)-2-oxo-4-phenyl-3-oxazolidinyl]-1,5-pentanedione", "(4S)-4-Phenyl-3-[5-(4-fluorophenyl)-5-oxopentanoyl]-1,3-oxazolidin-2-one", "(S)-3-[5-(4-Fluorophenyl)-1,5-dioxopentyl]-4-phenyloxazolidin-2-one", "(S)-3-[4-(4-Fluorobenzoyl)-1-oxobutyl]-4-phenyloxazolidin-2-one", "(S)-1-(4-Fluorophenyl)-5-(2-oxo-4-phenyloxazolidin-3-yl)pentane-1,5-dione", "1-(4-Fluorophenyl)-5-[(4S)-2-oxo-4-phenyl-1,3-oxazolidin-3-yl]pentane-1,5-dione"], "SMILES": "C(CCCC(=O)C1=CC=C(F)C=C1)(=O)N2C(COC2=O)C3=CC=CC=C3", "physical_data": {"Molecular Weight": "355.36", "Molecular Formula": "C20H18FNO4", "Melting Point": "94-95 \u00b0C"}}