{"cas_no": "1891-95-8", "cn_name": "\u7f9f\u654c\u8349\u8148", "en_name": ["Chloroxynil", "Benzonitrile, 3,5-dichloro-4-hydroxy-", "3,5-Dichloro-4-hydroxybenzonitrile", "Chloroxynil", "2,6-Dichloro-4-cyanophenol", "4-Cyano-2,6-dichlorophenol"], "SMILES": "C(#N)C1=CC(Cl)=C(O)C(Cl)=C1", "physical_data": {"Molecular Weight": "188.01", "Molecular Formula": "C7H3Cl2NO", "Melting Point": "144-145 \u00b0C"}}