{"cas_no": "1891-90-3", "cn_name": "4-\u4e09\u6c1f\u7532\u57fa\u82ef\u7532\u9170\u80fa", "en_name": ["4-(Trifluoromethyl)benzamide", "Benzamide, 4-(trifluoromethyl)-", "p-Toluamide, \u03b1,\u03b1,\u03b1-trifluoro-", "4-(Trifluoromethyl)benzamide", "4-Trifluoromethylbenzamide", "p-(Trifluoromethyl)benzamide", "NSC 160490"], "SMILES": "C(F)(F)(F)C1=CC=C(C(N)=O)C=C1", "physical_data": {"Molecular Weight": "189.13", "Molecular Formula": "C8H6F3NO", "Melting Point": "185 \u00b0C"}}