{"cas_no": "18916-17-1", "cn_name": "\u67da\u76ae\u82f7\u4e8c\u6c22\u67e5\u5c14\u916e", "en_name": ["Naringin dihydrochalcone", "1-Propanone, 1-[4-[[2-O-(6-deoxy-\u03b1-L-mannopyranosyl)-\u03b2-D-glucopyranosyl]oxy]-2,6-dihydroxyphenyl]-3-(4-hydroxyphenyl)-", "Glucopyranoside, 3,5-dihydroxy-4-(p-hydroxyhydrocinnamoyl)phenyl 2-O-(6-deoxy-\u03b1-L-mannopyranosyl)-, \u03b2-D-", "Phloretin, 4\u2032-(2-O-\u03b1-L-rhamno-\u03b2-D-glucopyranoside)", "1-[4-[[2-O-(6-Deoxy-\u03b1-L-mannopyranosyl)-\u03b2-D-glucopyranosyl]oxy]-2,6-dihydroxyphenyl]-3-(4-hydroxyphenyl)-1-propanone", "Naringin dihydrochalcone"], "SMILES": "O(C1C(OC2C(O)C(O)C(O)C(C)O2)C(O)C(O)C(CO)O1)C3=CC(O)=C(C(CCC4=CC=C(O)C=C4)=O)C(O)=C3", "physical_data": {"Molecular Weight": "582.55", "Molecular Formula": "C27H34O14", "Melting Point": "168-169 \u00b0C"}}