{"cas_no": "18912-37-3", "cn_name": "4-\u7532\u6c27\u57fa\u82ef\u57fa\u78b3\u9178\u916f", "en_name": ["4-Methoxybenzyl carbazate", "Hydrazinecarboxylic acid, (4-methoxyphenyl)methyl ester", "Carbazic acid, p-methoxybenzyl ester", "Benzyl alcohol, p-methoxy-, carbazate", "p-Methoxybenzyl carbazate", "4-Methoxybenzyl carbazate", "(4-Methoxyphenyl)methyl N-aminocarbamate"], "SMILES": "C(OC(NN)=O)C1=CC=C(OC)C=C1", "physical_data": {"Molecular Weight": "196.20", "Molecular Formula": "C9H12N2O3", "Melting Point": "74-75 \u00b0C"}}