{"cas_no": "1892-57-5", "cn_name": "1-(3-\u4e8c\u7532\u57fa\u6c28\u57fa\u4e19\u57fa)-3-\u4e59\u57fa\u78b3\u4e8c\u4e9a\u80fa", "en_name": ["1-Ethyl-3-(3\u2032-dimethylaminopropyl)carbodiimide", "1,3-Propanediamine, N3-(ethylcarbonimidoyl)-N1,N1-dimethyl-", "Carbodiimide, [3-(dimethylamino)propyl]ethyl-", "1,3-Propanediamine, N\u2032-(ethylcarbonimidoyl)-N,N-dimethyl-", "N3-(Ethylcarbonimidoyl)-N1,N1-dimethyl-1,3-propanediamine", "1-Ethyl-3-[3-(dimethylamino)propyl]carbodiimide", "1-Ethyl-3-(dimethylaminopropyl)carbodiimide", "N-Ethyl-N\u2032-(3-dimethylaminopropyl)carbodiimide", "3-(3-Dimethylaminopropyl)-1-ethylcarbodiimide", "Dec", "1-Ethyl-3-(3\u2032-dimethylaminopropyl)carbodiimide", "1-[3-(Dimethylamino)propyl]-3-ethylcarbodiimide", "EDAC", "N-(3-Dimethylaminopropyl)-N\u2032-ethylcarbodiimide", "1-Ethyl-3-(N,N-dimethylamino)propylcarbodiimide", "EDC", "3-Ethyl-1-(3-dimethylaminopropyl)carbodiimide", "([[3-(Dimethylamino)propyl]imino]methylidene)(ethyl)amine", "(3-Dimethylamino-propyl)-ethyl-carbodiimide"], "SMILES": "C(N=C=NCC)CCN(C)C", "physical_data": {"Molecular Weight": "155.24", "Molecular Formula": "C8H17N3", "Boiling Point": "53-54 \u00b0C @ Press: 0.6 Torr"}}