{"cas_no": "1892-29-1", "cn_name": "2-\u7f9f\u4e59\u57fa\u4e8c\u786b\u5316\u7269", "en_name": ["Hydroxyethyl disulfide", "Ethanol, 2,2\u2032-dithiobis-", "Ethanol, 2,2\u2032-dithiodi-", "2,2\u2032-Dithiobis[ethanol]", "Diethanol disulfide", "2,2\u2032-Dithiodiethanol", "2-Hydroxyethyl disulfide", "Bis(2-hydroxyethyl) disulfide", "Dithiodiglycol", "Hydroxyethyl disulfide", "2-Hydroxyethane disulfide", "3,4-Dithia-1,6-hexanediol", "\u03b2-Hydroxyethyl disulfide", "2-Mercaptoethanol disulfide", "NSC 33920", "Di(hydroxyethyl) disulfide", "2,2\u2032-Dihydroxyethyl disulfide", "2,2\u2032-Disulfanediyldiethanol", "2-(2-Hydroxyethyldisulfanyl)ethanol"], "SMILES": "S(SCCO)CCO", "physical_data": {"Molecular Weight": "154.25", "Molecular Formula": "C4H10O2S2", "Boiling Point": "106 \u00b0C @ Press: 0.015 Torr", "Melting Point": "25-26 \u00b0C", "Density": "1.172 g/cm\u00b3 @ Temp: 25 \u00b0C"}}