{"cas_no": "1892-22-4", "cn_name": "3-\u6c28\u57fa\u54cc\u5576-2-\u916e", "en_name": ["3-Amino-2-piperidinone", "2-Piperidinone, 3-amino-", "2-Piperidone, 3-amino-", "3-Amino-2-piperidinone", "Ornithine, N5-lactam", "3-Amino-2-piperidone"], "SMILES": "NC1C(=O)NCCC1", "physical_data": {"Molecular Weight": "114.15", "Molecular Formula": "C5H10N2O", "Boiling Point": "125-135 \u00b0C @ Press: 2-3 Torr"}}