{"cas_no": "189279-58-1", "cn_name": "ABT-492", "en_name": ["Delafloxacin", "3-Quinolinecarboxylic acid, 1-(6-amino-3,5-difluoro-2-pyridinyl)-8-chloro-6-fluoro-1,4-dihydro-7-(3-hydroxy-1-azetidinyl)-4-oxo-", "1-(6-Amino-3,5-difluoro-2-pyridinyl)-8-chloro-6-fluoro-1,4-dihydro-7-(3-hydroxy-1-azetidinyl)-4-oxo-3-quinolinecarboxylic acid", "WQ 3034", "ABT 492", "1-(6-Amino-3,5-difluoropyridin-2-yl)-8-chloro-6-fluoro-7-(3-hydroxyazetidin-1-yl)-4-oxo-1,4-dihydroquinoline-3-carboxylic acid", "RX 3341", "Delafloxacin", "Delafloxacinum", "Baxdela"], "SMILES": "ClC1=C2N(C=C(C(O)=O)C(=O)C2=CC(F)=C1N3CC(O)C3)C4=C(F)C=C(F)C(N)=N4", "physical_data": {"Molecular Weight": "440.76", "Molecular Formula": "C18H12ClF3N4O4", "Melting Point": "238-241 \u00b0C"}}