{"cas_no": "1892-43-9", "cn_name": "2-(4-\u6c2f\u82ef\u6c27)\u4e59\u9187", "en_name": ["2-(4-Chlorophenoxy)ethanol", "Ethanol, 2-(4-chlorophenoxy)-", "Ethanol, 2-(p-chlorophenoxy)-", "2-(4-Chlorophenoxy)ethanol", "2-(p-Chlorophenoxy)ethanol", "Chloro-p-phenoxetol", "p-Chlorophenyl monoglycol ether", "p-Chlorophenyl glycol ether", "Chlorophetanol", "Fungisan", "p-Chlorophenyl 2-hydroxyethyl ether", "Mycotetracid", "4-(2-Hydroxyethoxy)chlorobenzene", "\u03b2-(p-Chlorophenoxy)ethanol", "FKE 01", "NSC 8133", "2-(4-Chlorophenoxy)ethan-1-ol"], "SMILES": "O(CCO)C1=CC=C(Cl)C=C1", "physical_data": {"Molecular Weight": "172.61", "Molecular Formula": "C8H9ClO2", "Boiling Point": "178 \u00b0C @ Press: 35 Torr", "Melting Point": "28 \u00b0C"}}