{"cas_no": "18937-79-6", "cn_name": "2-\u5df1\u7094\u7532\u916f", "en_name": ["Methyl 2-hexynoate", "2-Hexynoic acid, methyl ester", "Methyl 2-hexynoate"], "SMILES": "C(C#CCCC)(OC)=O", "physical_data": {"Molecular Weight": "126.15", "Molecular Formula": "C7H10O2", "Boiling Point": "86 \u00b0C @ Press: 0.1 Torr"}}