{"cas_no": "18936-17-9", "cn_name": "2-\u7532\u57fa\u4e01\u8148", "en_name": ["2-Methylbutyronitrile", "Butanenitrile, 2-methyl-", "Butyronitrile, 2-methyl-", "Butyronitrile, \u03b1-methyl-", "2-Methylbutanenitrile", "2-Methylbutyronitrile", "2-Cyanobutane", "\u03b1-Methylbutyronitrile", "(\u00b1)-2-Cyanobutane", "sec-Butyl cyanide", "NSC 165615"], "SMILES": "C(CC)(C#N)C", "physical_data": {"Molecular Weight": "83.13", "Molecular Formula": "C5H9N", "Boiling Point": "125 \u00b0C", "Melting Point": "116 \u00b0C", "Density": "0.786 g/cm\u00b3 @ Temp: 20 \u00b0C"}}