{"cas_no": "1893-33-0", "cn_name": "\u9170\u80fa\u54cc\u5576\u916e", "en_name": ["Pipamperone", "[1,4\u2032-Bipiperidine]-4\u2032-carboxamide, 1\u2032-[4-(4-fluorophenyl)-4-oxobutyl]-", "[1,4\u2032-Bipiperidine]-4\u2032-carboxamide, 1\u2032-[3-(p-fluorobenzoyl)propyl]-", "1\u2032-[4-(4-Fluorophenyl)-4-oxobutyl][1,4\u2032-bipiperidine]-4\u2032-carboxamide", "R 3345", "Dipiperone", "1\u2032-[3-(p-Fluorobenzoyl)propyl][1,4\u2032-bipiperidine]-4\u2032-carboxamide", "4\u2032-Fluoro-4-[4-N-piperidino-4-carbamidopiperidino]butyrophenone", "Dipiperon", "Floropipamide", "Pipamperone", "1-(p-Fluorophenyl)-4-(4-piperidino-4-carbamoylpiperidino)-1-butanone", "4\u2032-Fluoro-4-{N-[4-(N-piperidino)-4-carbamido]piperidino}butyrophenone", "Dipiperal", "McN-JR 3345", "1-[4-(4-Fluorophenyl)-4-oxobutyl]-4-piperidin-1-ylpiperidine-4-carboxamide"], "SMILES": "C(N)(=O)C1(CCN(CCCC(=O)C2=CC=C(F)C=C2)CC1)N3CCCCC3", "physical_data": {"Molecular Weight": "375.48", "Molecular Formula": "C21H30FN3O2", "Melting Point": "124.5-126.0 \u00b0C"}}