{"cas_no": "18942-49-9", "cn_name": "BOC-D-\u82ef\u4e19\u6c28\u9178", "en_name": ["N-tert-Butoxycarbonyl-D-phenylalanine", "D-Phenylalanine, N-[(1,1-dimethylethoxy)carbonyl]-", "Alanine, N-carboxy-3-phenyl-, N-tert-butyl ester, D-", "N-[(1,1-Dimethylethoxy)carbonyl]-D-phenylalanine", "N-tert-Butoxycarbonyl-D-phenylalanine", "tert-Butoxycarbonyl-D-phenylalanine", "BOC-D-phenylalanine", "(R)-N-(tert-Butoxycarbonyl)phenylalanine", "N-BOC-D-phenylalanine", "N-tert-Butyloxycarbonyl-D-phenylalanine", "(2R)-2-(tert-Butoxycarbonylamino)-3-phenylpropanoic acid", "(R)-2-[(tert-Butoxycarbonyl)amino]-3-phenylpropionic acid", "(2R)-2-[(tert-Butoxycarbonyl)amino]-3-phenylpropionic acid", "(R)-2-(tert-Butoxycarbonylamino)-3-phenylpropanoic acid", "tert-Butyloxycarbonyl-D-phenylalanine", "(R)-2-((tert-Butoxycarbonyl)amino)-3-phenylpropionic acid", "(2R)-2-[[(tert-Butoxy)carbonyl]amino]-3-phenylpropanoic acid", "(2R)-2-[(2-Methylpropan-2-yl)oxycarbonylamino]-3-phenylpropanoic acid"], "SMILES": "C(CC1=CC=CC=C1)(NC(OC(C)(C)C)=O)C(O)=O", "physical_data": {"Molecular Weight": "265.30", "Molecular Formula": "C14H19NO4", "Melting Point": "88-89 \u00b0C"}}