{"cas_no": "18956-15-5", "cn_name": "2',3'-\u4e8c\u7f9f\u57fa-4'-\u7532\u6c27\u57fa\u67e5\u8033\u916e", "en_name": ["Pinostrobin chalcone", "2-Propen-1-one, 1-(2,6-dihydroxy-4-methoxyphenyl)-3-phenyl-, (2E)-", "Chalcone, 2\u2032,6\u2032-dihydroxy-4\u2032-methoxy-", "2-Propen-1-one, 1-(2,6-dihydroxy-4-methoxyphenyl)-3-phenyl-, (E)-", "(2E)-1-(2,6-Dihydroxy-4-methoxyphenyl)-3-phenyl-2-propen-1-one", "Pinostrobin chalcone", "2\u2032,6\u2032-Dihydroxy-4\u2032-methoxychalcone", "(E)-1-(2,6-Dihydroxy-4-methoxyphenyl)-3-phenyl-2-propen-1-one"], "SMILES": "C(C=CC1=CC=CC=C1)(=O)C2=C(O)C=C(OC)C=C2O", "physical_data": {"Molecular Weight": "270.28", "Molecular Formula": "C16H14O4", "Melting Point": "152-154 \u00b0C"}}