{"cas_no": "18952-87-9", "cn_name": "1-\u5f02\u4e19\u57fa\u5421\u5511", "en_name": ["1-Isopropyl-1H-pyrazole", "1H-Pyrazole, 1-(1-methylethyl)-", "Pyrazole, 1-isopropyl-", "1-(1-Methylethyl)-1H-pyrazole", "1-Isopropylpyrazole", "1-Isopropyl-1H-pyrazole", "1-Propan-2-ylpyrazole", "1-(Propan-2-yl)-1H-pyrazole"], "SMILES": "C(C)(C)N1C=CC=N1", "physical_data": {"Molecular Weight": "110.16", "Molecular Formula": "C6H10N2", "Boiling Point": "141-145 \u00b0C"}}