{"cas_no": "18956-16-6", "cn_name": "\u8c46\u853b\u660e", "en_name": ["2\u2032,4\u2032-Dihydroxy-6\u2032-methoxychalcone", "2-Propen-1-one, 1-(2,4-dihydroxy-6-methoxyphenyl)-3-phenyl-", "Chalcone, 2\u2032,4\u2032-dihydroxy-6\u2032-methoxy-", "1-(2,4-Dihydroxy-6-methoxyphenyl)-3-phenyl-2-propen-1-one", "2\u2032,4\u2032-Dihydroxy-6\u2032-methoxychalcone"], "SMILES": "C(C=CC1=CC=CC=C1)(=O)C2=C(OC)C=C(O)C=C2O", "physical_data": {"Molecular Weight": "270.28", "Molecular Formula": "C16H14O4", "Melting Point": "178 \u00b0C"}}