{"cas_no": "18956-87-1", "cn_name": "\u5429\u567b\u55ea-10-\u78b3\u9170\u6c2f", "en_name": ["Phenothiazine-10-carbonyl chloride", "10H-Phenothiazine-10-carbonyl chloride", "Phenothiazine-10-carbonyl chloride", "Phenothiazine-N-carbonyl chloride", "10-Chlorocarbonylphenothiazine", "N-(Chlorocarbonyl)phenothiazine"], "SMILES": "C(Cl)(=O)N1C=2C(SC=3C1=CC=CC3)=CC=CC2", "physical_data": {"Molecular Weight": "261.73", "Molecular Formula": "C13H8ClNOS", "Melting Point": "99 \u00b0C"}}