{"cas_no": "18968-05-3", "cn_name": "1,3,4,6-\u56db-\u6c27-\u4e59\u9170-\u0392-D-\u5421\u5576\u7518\u9732\u7cd6", "en_name": ["\u03b2-D-Mannopyranose, 1,3,4,6-tetraacetate", "\u03b2-D-Mannopyranose, 1,3,4,6-tetraacetate", "Mannopyranose, 1,3,4,6-tetraacetate, \u03b2-D-", "1,3,4,6-Tetra-O-acetyl-\u03b2-D-mannopyranose"], "SMILES": "O(C(C)=O)C1C(OC(C)=O)C(O)C(OC(C)=O)OC1COC(C)=O", "physical_data": {"Molecular Weight": "348.30", "Molecular Formula": "C14H20O10", "Melting Point": "134-136 \u00b0C"}}