{"cas_no": "18967-42-5", "cn_name": "3,4-\u4e8c\u6c2f\u82ef\u7532\u57fa\u5f02\u786b\u6c30\u9178\u916f", "en_name": ["Benzene, 1,2-dichloro-4-(isothiocyanatomethyl)-", "Benzene, 1,2-dichloro-4-(isothiocyanatomethyl)-", "Isothiocyanic acid, 3,4-dichlorobenzyl ester", "Toluene, 3,4-dichloro-\u03b1-isothiocyanato-", "3,4-Dichlorobenzyl isothiocyanate", "NSC 221245", "1,2-Dichloro-4-(isothiocyanatomethyl)benzene"], "SMILES": "C(N=C=S)C1=CC(Cl)=C(Cl)C=C1", "physical_data": {"Molecular Weight": "218.10", "Molecular Formula": "C8H5Cl2NS", "Boiling Point": "124-128 \u00b0C @ Press: 0.37 Torr", "Density": "1.409 g/cm\u00b3 @ Temp: 20 \u00b0C"}}