{"cas_no": "1896-62-4", "cn_name": "\u53cd\u5f0f\u82ef\u4e9a\u7532\u57fa\u4e19\u916e", "en_name": ["trans-4-Phenyl-3-buten-2-one", "3-Buten-2-one, 4-phenyl-, (3E)-", "3-Buten-2-one, 4-phenyl-, (E)-", "(3E)-4-Phenyl-3-buten-2-one", "Methyl trans-styryl ketone", "trans-Benzylideneacetone", "trans-1-Phenylbut-1-en-3-one", "trans-Benzalacetone", "trans-4-Phenyl-3-buten-2-one", "trans-Phenylvinyl methyl ketone", "(E)-Benzylideneacetone", "(E)-Methyl styryl ketone", "(E)-Benzalacetone", "(E)-4-Phenyl-3-buten-2-one", "Methyl (E)-2-phenylethenyl ketone", "trans-4-Phenyl-3-butene-2-one", "trans-4-Phenylbuten-2-one", "(E)-Benzalacetone"], "SMILES": "C(=CC(C)=O)C1=CC=CC=C1", "physical_data": {"Molecular Weight": "146.19", "Molecular Formula": "C10H10O", "Boiling Point": "262 \u00b0C", "Melting Point": "42 \u00b0C"}}