{"cas_no": "18962-05-5", "cn_name": "4-\u5f02\u4e19\u6c27\u57fa\u82ef\u7532\u919b", "en_name": ["4-Isopropoxybenzaldehyde", "Benzaldehyde, 4-(1-methylethoxy)-", "Benzaldehyde, p-isopropoxy-", "4-(1-Methylethoxy)benzaldehyde", "4-Isopropoxybenzaldehyde", "p-Isopropoxybenzaldehyde", "4-(Isopropyloxy)benzaldehyde", "p-(Isopropyloxy)benzaldehyde", "NSC 69072", "4-[(1-Methylethyl)oxy]benzaldehyde", "4-(Propan-2-yloxy)benzaldehyde"], "SMILES": "O(C(C)C)C1=CC=C(C=O)C=C1", "physical_data": {"Molecular Weight": "164.20", "Molecular Formula": "C10H12O2", "Boiling Point": "135-136 \u00b0C", "Melting Point": "167 \u00b0C"}}