{"cas_no": "18967-44-7", "cn_name": "2-\u6c2f\u82ef\u7532\u57fa\u5f02\u786b\u4ee3\u6c30\u9178\u916f", "en_name": ["1-Chloro-2-(isothiocyanatomethyl)benzene", "Benzene, 1-chloro-2-(isothiocyanatomethyl)-", "Isothiocyanic acid, o-chlorobenzyl ester", "Toluene, o-chloro-\u03b1-isothiocyanato-", "1-Chloro-2-(isothiocyanatomethyl)benzene", "2-Chlorobenzyl isothiocyanate", "o-Chlorobenzyl isothiocyanate", "NSC 221237"], "SMILES": "C(N=C=S)C1=C(Cl)C=CC=C1", "physical_data": {"Molecular Weight": "183.66", "Molecular Formula": "C8H6ClNS", "Boiling Point": "94-98 \u00b0C @ Press: 0.23 Torr", "Density": "1.282 g/cm\u00b3 @ Temp: 20 \u00b0C"}}