{"cas_no": "18962-07-7", "cn_name": "4-\u5f02\u4e01\u6c27\u57fa\u82ef\u7532\u919b", "en_name": ["4-(2-Methylpropoxy)benzaldehyde", "Benzaldehyde, 4-(2-methylpropoxy)-", "Benzaldehyde, p-isobutoxy-", "4-(2-Methylpropoxy)benzaldehyde", "p-Isobutoxybenzaldehyde", "4-(2-Methylpropyloxy)benzaldehyde", "NSC 68517", "4-Isobutoxybenzaldehyde", "4-(Isobutyloxy)benzaldehyde"], "SMILES": "O(CC(C)C)C1=CC=C(C=O)C=C1", "physical_data": {"Molecular Weight": "178.23", "Molecular Formula": "C11H14O2", "Boiling Point": "152 \u00b0C @ Press: 16 Torr", "Melting Point": "155 \u00b0C"}}