{"cas_no": "189628-37-3", "cn_name": "5-\u6eb4-2-\u6c2f\u82ef\u7532\u919b", "en_name": ["5-Bromo-2-chlorobenzaldehyde", "Benzaldehyde, 5-bromo-2-chloro-", "5-Bromo-2-chlorobenzaldehyde"], "SMILES": "C(=O)C1=C(Cl)C=CC(Br)=C1", "physical_data": {"Molecular Weight": "219.46", "Molecular Formula": "C7H4BrClO", "Melting Point": "43-46 \u00b0C"}}