{"cas_no": "189628-38-4", "cn_name": "5-\u6c1f-2-\u7532\u6c27\u57fa\u82ef\u8148", "en_name": ["5-Fluoro-2-methoxybenzonitrile", "Benzonitrile, 5-fluoro-2-methoxy-", "5-Fluoro-2-methoxybenzonitrile", "3-Fluoro-6-methoxybenzonitrile"], "SMILES": "O(C)C1=C(C#N)C=C(F)C=C1", "physical_data": {"Molecular Weight": "151.14", "Molecular Formula": "C8H6FNO", "Melting Point": "112.5-113.7 \u00b0C"}}