{"cas_no": "1897-52-5", "cn_name": "2,6-\u4e8c\u6c1f\u82ef\u8148", "en_name": ["2,6-Difluorobenzonitrile", "Benzonitrile, 2,6-difluoro-", "2,6-Difluorobenzonitrile"], "SMILES": "C(#N)C1=C(F)C=CC=C1F", "physical_data": {"Molecular Weight": "139.10", "Molecular Formula": "C7H3F2N", "Boiling Point": "99 \u00b0C", "Melting Point": "31 \u00b0C"}}