{"cas_no": "18979-60-7", "cn_name": "4-\u4e19\u57fa\u95f4\u82ef\u4e8c\u915a", "en_name": ["4-Propylresorcinol", "1,3-Benzenediol, 4-propyl-", "Resorcinol, 4-propyl-", "4-Propyl-1,3-benzenediol", "4-n-Propylresorcinol", "6-Propylresorcinol", "4-Propylresorcinol"], "SMILES": "C(CC)C1=C(O)C=C(O)C=C1", "physical_data": {"Molecular Weight": "152.19", "Molecular Formula": "C9H12O2", "Melting Point": "82.5 \u00b0C"}}