{"cas_no": "1897-45-6", "cn_name": "\u767e\u83cc\u6e05", "en_name": ["Chlorothalonil", "1,3-Benzenedicarbonitrile, 2,4,5,6-tetrachloro-", "Isophthalonitrile, tetrachloro-", "2,4,5,6-Tetrachloro-1,3-benzenedicarbonitrile", "DAC 2787", "Daconil", "Daconil 2787", "Forturf", "2,4,5,6-Tetrachloroisophthalonitrile", "Termil", "Chlorothalonil", "Tetrachloroisophthalonitrile", "Daconil 2787WP", "1,3-Dicyanotetrachlorobenzene", "Bravo 6F", "Bravo", "Chlorthalonil", "TPN (pesticide)", "Nopcocide N 96", "Sweep", "TPN", "Nopcocide", "Dacosoil", "Daconil F", "2,4,5,6-Tetrachloro-1,3-dicyanobenzene", "Bravo 500", "Nopcocide 54DB", "Thalonil", "Daconil M", "Tetrachlorobenzene-1,3-dicarbonitrile", "Clortosip L", "Nopcocide N 54D", "2,4,5,6-Tetrachloro-1,3-isophthalonitrile", "Vanox", "Vanox 500SC", "Vanox 750PM", "Clortosip", "Clortosip 500SC", "Kavach", "Bravo Ultrex", "NexGen", "Kabiguard 164SA", "Bravonil", "Nuocide 960", "Daconil 500", "Marincide C", "Daconil 1000", "Tuff-Brite", "M 1", "M 1 (mildewcide)", "Busan 1192", "SD 404", "Hortyl", "Optimist", "Bravonil Ultrex", "Microban Additive M 15", "Microban M 15", "Agronil PI 231", "Nuocide 404D", "Fungitrol 404D", "Bravo 720", "Bravo Weather Stick", "Kavach 75WP", "Dakoflo", "Bravo Plus", "2,4,5,6-Tetrachloro-m-benzenedinitrile", "Gwarant", "Gwarant 500SC", "Bravo 500SC", "Guarant 500SC", "Bravo Weather Stik", "Chloronil", "Chloronil 720", "Blotch", "2,4,5,6-Tetrachloroisophthalodinitrile", "Daconil 50SC", "YS 801 (mildewcide)", "YS 801", "Fongil F", "N 96", "Barrack", "Daconil Weatherstik", "Daconil Weather Stik", "Bravo 72SC", "Daconil Ultrex", "WS 098", "2,3,5,6-Tetrachloroisophthalonitrile"], "SMILES": "C(#N)C1=C(Cl)C(C#N)=C(Cl)C(Cl)=C1Cl", "physical_data": {"Molecular Weight": "265.91", "Molecular Formula": "C8Cl4N2", "Boiling Point": "350 \u00b0C", "Melting Point": "250-251 \u00b0C", "Density": "1.7 g/cm\u00b3 @ Temp: 25 \u00b0C"}}