{"cas_no": "18979-61-8", "cn_name": "4-\u6b63\u4e01\u57fa\u95f4\u82ef\u4e8c\u915a", "en_name": ["Butylresorcinol", "1,3-Benzenediol, 4-butyl-", "Resorcinol, 4-butyl-", "4-Butyl-1,3-benzenediol", "4-Butylresorcinol", "Butylresorcinol", "NKO 12", "Rucinol", "Iklen"], "SMILES": "C(CCC)C1=C(O)C=C(O)C=C1", "physical_data": {"Molecular Weight": "166.22", "Molecular Formula": "C10H14O2", "Boiling Point": "155-175 \u00b0C @ Press: 7 Torr", "Melting Point": "47-48 \u00b0C"}}