{"cas_no": "18979-72-1", "cn_name": "4-\u6b63\u4e01\u6c27\u57fa\u82ef\u915a", "en_name": ["3-Butoxyphenol", "Phenol, 3-butoxy-", "Phenol, m-butoxy-", "3-Butoxyphenol", "m-Butoxyphenol", "Resorcinol monobutyl ether", "3-n-Butoxyphenol", "NSC 35992", "3-Butyloxyphenol"], "SMILES": "O(CCCC)C1=CC(O)=CC=C1", "physical_data": {"Molecular Weight": "166.22", "Molecular Formula": "C10H14O2", "Boiling Point": "121 \u00b0C @ Press: 4 Torr"}}