{"cas_no": "18979-53-8", "cn_name": "4-\u620a\u6c27\u57fa\u82ef\u915a", "en_name": ["4-(Pentyloxy)phenol", "Phenol, 4-(pentyloxy)-", "Phenol, p-(pentyloxy)-", "4-(Pentyloxy)phenol", "p-(Pentyloxy)phenol", "Amol", "p-(n-Pentyloxy)phenol", "4-Pentoxyphenol", "p-Pentoxyphenol"], "SMILES": "O(CCCCC)C1=CC=C(O)C=C1", "physical_data": {"Molecular Weight": "180.24", "Molecular Formula": "C11H16O2", "Melting Point": "56-57 \u00b0C"}}