{"cas_no": "18978-78-4", "cn_name": "8-\u6c28\u57fa\u55b9\u54ea\u5576", "en_name": ["8-Aminoquinaldine", "8-Quinolinamine, 2-methyl-", "Quinaldine, 8-amino-", "2-Methyl-8-quinolinamine", "8-Amino-2-methylquinoline", "8-Aminoquinaldine", "NSC 7944", "(2-Methylquinolin-8-yl)amine", "2-Methyl-8-aminoquinoline"], "SMILES": "NC=1C2=C(C=CC(C)=N2)C=CC1", "physical_data": {"Molecular Weight": "158.20", "Molecular Formula": "C10H10N2", "Melting Point": "56 \u00b0C"}}