{"cas_no": "1897-53-6", "cn_name": "2-\u6c1f\u5bf9\u82ef\u4e8c\u8148", "en_name": ["2-Fluoro-1,4-benzenedicarbonitrile", "1,4-Benzenedicarbonitrile, 2-fluoro-", "Terephthalonitrile, fluoro-", "2-Fluoro-1,4-benzenedicarbonitrile", "2-Fluoroterephthalonitrile"], "SMILES": "C(#N)C1=CC(F)=C(C#N)C=C1", "physical_data": {"Molecular Weight": "146.12", "Molecular Formula": "C8H3FN2", "Melting Point": "121.0-123.5 \u00b0C"}}