{"cas_no": "18979-55-0", "cn_name": "4-\u5df1\u6c27\u57fa\u82ef\u915a", "en_name": ["4-(Hexyloxy)phenol", "Phenol, 4-(hexyloxy)-", "Phenol, p-(hexyloxy)-", "4-(Hexyloxy)phenol", "p-(Hexyloxy)phenol", "4-n-Hexoxyphenol", "4-n-Hexyloxyphenol", "p-Hexoxyphenol"], "SMILES": "O(CCCCCC)C1=CC=C(O)C=C1", "physical_data": {"Molecular Weight": "194.27", "Molecular Formula": "C12H18O2", "Boiling Point": "112 \u00b0C @ Press: 3 Torr", "Melting Point": "45-47 \u00b0C"}}