{"cas_no": "1897-50-3", "cn_name": "5-\u6c2f-2,4,6-\u4e09\u6c1f\u95f4\u82ef\u4e8c\u7532\u8148", "en_name": ["5-Chloro-2,4,6-trifluoro-1,3-benzenedicarbonitrile", "1,3-Benzenedicarbonitrile, 5-chloro-2,4,6-trifluoro-", "Isophthalonitrile, 5-chloro-2,4,6-trifluoro-", "5-Chloro-2,4,6-trifluoro-1,3-benzenedicarbonitrile", "5-Chloro-2,4,6-trifluoroisophthalonitrile", "5-Chloro-2,4,6-trifluoro-1,3-benzodinitrile", "SDB 028"], "SMILES": "C(#N)C1=C(F)C(C#N)=C(F)C(Cl)=C1F", "physical_data": {"Molecular Weight": "216.55", "Molecular Formula": "C8ClF3N2", "Melting Point": "109-110 \u00b0C"}}