{"cas_no": "18979-50-5", "cn_name": "4-\u4e19\u6c27\u57fa\u82ef\u915a", "en_name": ["4-Propoxyphenol", "Phenol, 4-propoxy-", "Phenol, p-propoxy-", "4-Propoxyphenol", "p-Propoxyphenol", "4-Propyloxyphenol", "Hydroquinone monopropyl ether", "NSC 82358"], "SMILES": "O(CCC)C1=CC=C(O)C=C1", "physical_data": {"Molecular Weight": "152.19", "Molecular Formula": "C9H12O2", "Melting Point": "55-58 \u00b0C"}}