{"cas_no": "1897-43-4", "cn_name": "2,5-\u4e8c\u6c2f\u5bf9\u82ef\u4e8c\u8148", "en_name": ["2,5-Dichloro-1,4-benzenedicarbonitrile", "1,4-Benzenedicarbonitrile, 2,5-dichloro-", "Terephthalonitrile, 2,5-dichloro-", "2,5-Dichloro-1,4-benzenedicarbonitrile", "2,5-Dichloroterephthalonitrile", "2,5-Dichloro-1,4-benzodinitrile"], "SMILES": "C(#N)C1=C(Cl)C=C(C#N)C(Cl)=C1", "physical_data": {"Molecular Weight": "197.02", "Molecular Formula": "C8H2Cl2N2", "Melting Point": "214-215 \u00b0C"}}