{"cas_no": "1897-41-2", "cn_name": "\u56db\u6c2f\u5bf9\u82ef\u4e8c\u8148", "en_name": ["Tetrachloroterephthalonitrile", "1,4-Benzenedicarbonitrile, 2,3,5,6-tetrachloro-", "Terephthalonitrile, tetrachloro-", "2,3,5,6-Tetrachloro-1,4-benzenedicarbonitrile", "Tetrachloroterephthalonitrile", "2,3,5,6-Tetrachloroterephthalonitrile", "2,3,5,6-Tetrachloro-1,4-dicyanobenzene", "Tetrachloroterephthalodinitrile", "1,4-Dicyano-2,3,5,6-tetrachlorobenzene"], "SMILES": "C(#N)C1=C(Cl)C(Cl)=C(C#N)C(Cl)=C1Cl", "physical_data": {"Molecular Weight": "265.91", "Molecular Formula": "C8Cl4N2", "Melting Point": "183-184 \u00b0C (decomp)"}}