{"cas_no": "189816-05-5", "cn_name": "4-\u6c2f-7-\u7532\u6c27\u57fa-2-\u82ef\u57fa\u55b9\u5549", "en_name": ["4-Chloro-7-methoxy-2-phenylquinoline", "Quinoline, 4-chloro-7-methoxy-2-phenyl-", "4-Chloro-7-methoxy-2-phenylquinoline", "4-Chloro-7-methoxy-2-(phenyl)quinoline"], "SMILES": "ClC=1C2=C(N=C(C1)C3=CC=CC=C3)C=C(OC)C=C2", "physical_data": {"Molecular Weight": "269.73", "Molecular Formula": "C16H12ClNO", "Melting Point": "101-101.5 \u00b0C"}}