{"cas_no": "18984-21-9", "cn_name": "\u817a\u82f7\u4e00\u78f7\u9178", "en_name": ["2,4-Dichloro-1-(2-nitroethenyl)benzene", "Benzene, 2,4-dichloro-1-(2-nitroethenyl)-", "Styrene, 2,4-dichloro-\u03b2-nitro-", "2,4-Dichloro-1-(2-nitroethenyl)benzene", "2,4-Dichloro-\u03b2-nitrostyrene", "NSC 81882", "2,4-Dichloro-1-(2-nitrovinyl)benzene", "1,3-Dichloro-4-(2-nitroethenyl)benzene"], "SMILES": "C(=CN(=O)=O)C1=C(Cl)C=C(Cl)C=C1", "physical_data": {"Molecular Weight": "218.04", "Molecular Formula": "C8H5Cl2NO2", "Melting Point": "110 \u00b0C"}}