{"cas_no": "189882-33-5", "cn_name": "6-\u6c30\u57fa-7-\u6c2e\u6742\u5432\u54da", "en_name": ["1H-Pyrrolo[2,3-b]pyridine-6-carbonitrile", "1H-Pyrrolo[2,3-b]pyridine-6-carbonitrile"], "SMILES": "C(#N)C=1N=C2C(=CC1)C=CN2", "physical_data": {"Molecular Weight": "143.15", "Molecular Formula": "C8H5N3", "Melting Point": "187.4 \u00b0C"}}