{"cas_no": "18982-54-2", "cn_name": "2-\u6eb4\u82c4\u9187", "en_name": ["2-Bromobenzyl alcohol", "Benzenemethanol, 2-bromo-", "Benzyl alcohol, o-bromo-", "2-Bromobenzenemethanol", "o-Bromobenzyl alcohol", "2-Bromobenzyl alcohol", "1-Bromo-2-(hydroxymethyl)benzene", "2-Bromophenylmethanol", "2-Hydroxymethyl-1-bromobenzene", "2-(Hydroxymethyl)phenyl bromide"], "SMILES": "C(O)C1=C(Br)C=CC=C1", "physical_data": {"Molecular Weight": "187.03", "Molecular Formula": "C7H7BrO", "Melting Point": "79 \u00b0C"}}