{"cas_no": "18980-21-7", "cn_name": "4-\u6eb4-2-\u4e59\u57fa\u82ef\u915a", "en_name": ["4-Bromo-2-ethylphenol", "Phenol, 4-bromo-2-ethyl-", "4-Bromo-2-ethylphenol"], "SMILES": "C(C)C1=C(O)C=CC(Br)=C1", "physical_data": {"Molecular Weight": "201.06", "Molecular Formula": "C8H9BrO", "Boiling Point": "110 \u00b0C @ Press: 3 Torr"}}