{"cas_no": "1898-66-4", "cn_name": "2,2-\u8054\u82ef\u57fa-1-\u82e6\u57fa\u80bc\u57fa", "en_name": ["DPPH radical", "Hydrazinyl, 2,2-diphenyl-1-(2,4,6-trinitrophenyl)-", "Hydrazyl, 2,2-diphenyl-1-picryl-", "Hydrazyl, 2,2-diphenyl-1-(2,4,6-trinitrophenyl)-", "2,2-Diphenyl-1-(2,4,6-trinitrophenyl)hydrazinyl", "2,2-Diphenyl-1-picrylhydrazyl", "Diphenylpicrylhydrazyl", "N,N-Diphenyl-N\u2032-picrylhydrazyl", "\u03b1,\u03b1-Diphenyl-\u03b2-picrylhydrazyl", "1,1-Diphenyl-2-picrylhydrazyl", "DPPH", "2,2-Diphenylpicrylhydrazyl", "1,1-Diphenyl-2-picrylhydrazyl radical", "2,2-Diphenyl-1-(2,4,6-trinitrophenyl)hydrazinyl (DPPH radical)", "DPPH radical", "Di(phenyl)(2,4,6-trinitrophenyl)iminoazanium", "2,2-Diphenyl-1-picrylhydrazyl radical", "D 4313"], "SMILES": "[N](N(C1=CC=CC=C1)C2=CC=CC=C2)C3=C(N(=O)=O)C=C(N(=O)=O)C=C3N(=O)=O", "physical_data": {"Molecular Weight": "", "Molecular Formula": "C18H12N5O6", "Melting Point": "129 \u00b0C (decomp)", "Density": "1.484 g/cm\u00b3"}}