{"cas_no": "18997-19-8", "cn_name": "\u7279\u620a\u9178\u6c2f\u7532\u916f", "en_name": ["Chloromethyl pivalate", "Propanoic acid, 2,2-dimethyl-, chloromethyl ester", "Pivalic acid, chloromethyl ester", "Methanol, chloro-, pivalate", "Chloromethyl 2,2-dimethylpropionate", "Pivaloyloxymethyl chloride", "Chloromethyl trimethylacetate", "[(tert-Butylcarbonyl)oxy]methyl chloride", "\u03b1,\u03b1-Dimethylpropionyloxymethyl chloride", "Chloromethyl pivalate", "Chloromethyl 2,2-dimethylpropanoate", "(2,2-Dimethyl-1-oxopropoxy)methyl chloride", "2,2-Dimethylpropionic acid chloromethyl ester", "POM-Cl"], "SMILES": "C(C(C)(C)C)(OCCl)=O", "physical_data": {"Molecular Weight": "150.60", "Molecular Formula": "C6H11ClO2", "Boiling Point": "80 \u00b0C @ Press: 15 mmHg", "Melting Point": "132-135 \u00b0C"}}