{"cas_no": "18997-54-1", "cn_name": "\u82ef\u57fa\u4e59\u57fa BETA-D-\u5421\u5583\u8461\u8404\u7cd6\u82f7", "en_name": ["Phenylethyl \u03b2-D-glucopyranoside", "\u03b2-D-Glucopyranoside, 2-phenylethyl", "Glucopyranoside, phenethyl, \u03b2-D-", "2-Phenylethyl \u03b2-D-glucopyranoside", "\u03b2-Phenylethyl \u03b2-D-glucoside", "\u03b2-Phenylethyl \u03b2-D-glucopyranoside", "\u03b2-Phenylethanol glucoside", "2-Phenylethyl \u03b2-D-glucoside", "Phenethyl \u03b2-D-glucoside", "Phenethyl \u03b2-D-glucopyranoside", "Phenylethyl 2-glucoside", "2-Phenylethyl O-\u03b2-D-glucopyranoside", "Phenylethyl \u03b2-D-glucopyranoside", "2-Phenylethyl O-\u03b2-glucoside"], "SMILES": "O(CCC1=CC=CC=C1)C2OC(CO)C(O)C(O)C2O", "physical_data": {"Molecular Weight": "284.30", "Molecular Formula": "C14H20O6", "Melting Point": "119-120 \u00b0C"}}