{"cas_no": "18999-28-5", "cn_name": "2-\u5e9a\u70ef\u9178", "en_name": ["2-Heptenoic acid", "2-Heptenoic acid", "3-Butylacrylic acid"], "SMILES": "C(=CC(O)=O)CCCC", "physical_data": {"Molecular Weight": "128.17", "Molecular Formula": "C7H12O2", "Boiling Point": "226.5 \u00b0C", "Melting Point": "-19 \u00b0C", "Density": "0.9557 g/cm\u00b3 @ Temp: 20 \u00b0C"}}