{"cas_no": "18997-57-4", "cn_name": "4-\u7532\u57fa\u4f1e\u5f62\u916e\u9170-\u0392-D-\u5421\u5583\u8461\u7cd6\u9178\u82f7", "en_name": ["4-Methylumbelliferyl \u03b2-D-glucopyranoside", "2H-1-Benzopyran-2-one, 7-(\u03b2-D-glucopyranosyloxy)-4-methyl-", "Coumarin, 7-(\u03b2-D-glucopyranosyloxy)-4-methyl-", "7-(\u03b2-D-Glucopyranosyloxy)-4-methyl-2H-1-benzopyran-2-one", "4-Methylumbelliferyl-\u03b2-D-glucoside", "4-Methylumbelliferone \u03b2-D-glucoside", "4-Methylumbelliferyl glucoside", "4-Methylumbelliferyl \u03b2-D-glucopyranoside", "4-Methyl-coumarin-7-O-\u03b2-D-glucoside"], "SMILES": "CC=1C=2C(=CC(OC3OC(CO)C(O)C(O)C3O)=CC2)OC(=O)C1", "physical_data": {"Molecular Weight": "338.31", "Molecular Formula": "C16H18O8", "Melting Point": "205-207 \u00b0C"}}