{"cas_no": "19008-43-6", "cn_name": "BENZYL P-AMINOBENZOATE", "en_name": ["Benzoic acid, 4-amino-, phenylmethyl ester", "Benzoic acid, 4-amino-, phenylmethyl ester", "Benzoic acid, p-amino-, benzyl ester", "4-Aminobenzoic acid benzyl ester", "Benzyl p-aminobenzoate", "p-(Benzyloxycarbonyl)aniline", "Benzyl 4-aminobenzoate", "Phenylmethyl 4-aminobenzoate", "NSC 30685"], "SMILES": "C(OCC1=CC=CC=C1)(=O)C2=CC=C(N)C=C2", "physical_data": {"Molecular Weight": "227.26", "Molecular Formula": "C14H13NO2", "Melting Point": "84.7 \u00b0C"}}