{"cas_no": "19009-56-4", "cn_name": "2-\u7532\u57fa\u7678\u9187", "en_name": ["2-Methyldecanal", "Decanal, 2-methyl-", "2-Methyldecanal", "\u03b1-Methyldecanal", "Methyloctylacetaldehyde"], "SMILES": "C(CCC(C=O)C)CCCCC", "physical_data": {"Molecular Weight": "170.29", "Molecular Formula": "C11H22O", "Boiling Point": "85-88 \u00b0C @ Press: 3 Torr", "Density": "0.8265 g/cm\u00b3 @ Temp: 20 \u00b0C"}}