{"cas_no": "19006-82-7", "cn_name": "6-\u82ef\u57fa-2-\u7f9f\u57fa\u5421\u5576", "en_name": ["6-Phenyl-2(1H)-pyridinone", "2(1H)-Pyridinone, 6-phenyl-", "2(1H)-Pyridone, 6-phenyl-", "6-Phenyl-2(1H)-pyridinone", "6-Phenyl-2-pyridinone", "2-Hydroxy-6-phenylpyridine", "6-Phenyl-2-pyridone", "6-Phenylpyridin-2-ol"], "SMILES": "O=C1NC(=CC=C1)C2=CC=CC=C2", "physical_data": {"Molecular Weight": "171.20", "Molecular Formula": "C11H9NO", "Melting Point": "195-196 \u00b0C"}}