{"cas_no": "19009-39-3", "cn_name": "\u4e8c\u5f02\u4e19\u57fa\u7532\u80fa\u9170\u6c2f", "en_name": ["N,N-Bis(1-methylethyl)carbamic chloride", "Carbamic chloride, N,N-bis(1-methylethyl)-", "Carbamoyl chloride, diisopropyl-", "Carbamic chloride, bis(1-methylethyl)-", "N,N-Bis(1-methylethyl)carbamic chloride", "Diisopropylcarbamoyl chloride", "N,N-Diisopropylcarbamoyl chloride", "Diisopropylcarbamyl chloride", "Diisopropylcarbamic chloride"], "SMILES": "N(C(C)C)(C(C)C)C(Cl)=O", "physical_data": {"Molecular Weight": "163.65", "Molecular Formula": "C7H14ClNO", "Boiling Point": "90-93 \u00b0C @ Press: 15 Torr", "Melting Point": "60 \u00b0C"}}