{"cas_no": "19012-02-3", "cn_name": "1-\u7532\u57fa-3-\u4e59\u9170\u5432\u54da", "en_name": ["1-(1-Methyl-1H-indol-3-yl)ethanone", "Ethanone, 1-(1-methyl-1H-indol-3-yl)-", "Ketone, methyl 1-methylindol-3-yl", "1-(1-Methyl-1H-indol-3-yl)ethanone", "N-Methyl-3-acetylindole", "1-Methyl-3-acetylindole", "3-Acetyl-1-methylindole", "1-(1-Methyl-1H-indol-3-yl)-1-ethanone", "3-Acetyl-1-methyl-1H-indole", "1-(1-Methylindol-3-yl)ethanone"], "SMILES": "C(C)(=O)C=1C=2C(N(C)C1)=CC=CC2", "physical_data": {"Molecular Weight": "173.21", "Molecular Formula": "C11H11NO", "Boiling Point": "130-140 \u00b0C @ Press: 0.01 Torr", "Melting Point": "95 \u00b0C"}}