{"cas_no": "19013-10-6", "cn_name": "4-\u7f9f\u57fa-3-\u785d\u57fa\u82ef\u7532\u9178\u4e59\u916f", "en_name": ["Benzoic acid, 4-hydroxy-3-nitro-, ethyl ester", "Benzoic acid, 4-hydroxy-3-nitro-, ethyl ester", "4-Hydroxy-3-nitrobenzoic acid ethyl ester", "Ethyl 4-hydroxy-3-nitrobenzoate", "Ethyl 3-nitro-4-hydroxybenzoate", "4-(Ethoxycarbonyl)-2-nitrophenol"], "SMILES": "N(=O)(=O)C1=CC(C(OCC)=O)=CC=C1O", "physical_data": {"Molecular Weight": "211.17", "Molecular Formula": "C9H9NO5", "Melting Point": "72-74 \u00b0C"}}