{"cas_no": "19018-24-7", "cn_name": "2-(1-\u7f9f\u4e59\u57fa)\u82ef\u5e76\u54aa\u5511", "en_name": ["\u03b1-Methyl-1H-benzimidazole-2-methanol", "1H-Benzimidazole-2-methanol, \u03b1-methyl-", "2-Benzimidazolemethanol, \u03b1-methyl-", "\u03b1-Methyl-1H-benzimidazole-2-methanol", "2-(1\u2032-Hydroxyethyl)benzimidazole", "2-(\u03b1-Hydroxyethyl)benzimidazole", "2-(1-Hydroxyethyl)benzimidazole", "1-(1H-Benzimidazol-2-yl)ethanol", "(\u00b1)-1-(1H-Benzimidazol-2-yl)ethanol", "1-(1H-Benzo[d]imidazol-2-yl)ethanol", "1-(1H-1,3-Benzodiazol-2-yl)ethan-1-ol"], "SMILES": "C(C)(O)C=1NC=2C(N1)=CC=CC2", "physical_data": {"Molecular Weight": "162.19", "Molecular Formula": "C9H10N2O", "Melting Point": "179-180 \u00b0C"}}