{"cas_no": "19013-11-7", "cn_name": "3-\u785d\u57fa-4-\u7532\u57fa\u82ef\u7532\u9170\u80fa", "en_name": ["4-Methyl-3-nitrobenzamide", "Benzamide, 4-methyl-3-nitro-", "p-Toluamide, 3-nitro-", "4-Methyl-3-nitrobenzamide"], "SMILES": "N(=O)(=O)C1=CC(C(N)=O)=CC=C1C", "physical_data": {"Molecular Weight": "180.16", "Molecular Formula": "C8H8N2O3", "Melting Point": "168-169 \u00b0C"}}