{"cas_no": "19013-03-7", "cn_name": "\u6cfd\u5170\u8272\u539f\u70ef", "en_name": ["Eupatoriochromene", "Ethanone, 1-(7-hydroxy-2,2-dimethyl-2H-1-benzopyran-6-yl)-", "Ketone, 7-hydroxy-2,2-dimethyl-2H-1-benzopyran-6-yl methyl", "1-(7-Hydroxy-2,2-dimethyl-2H-1-benzopyran-6-yl)ethanone", "Eupatoriochromene", "Desmethylencecalin", "De(methyl)encecalin", "6-Acetyl-7-hydroxy-2,2-dimethylchromene", "NSC 363789"], "SMILES": "C(C)(=O)C=1C=C2C(=CC1O)OC(C)(C)C=C2", "physical_data": {"Molecular Weight": "218.25", "Molecular Formula": "C13H14O3", "Melting Point": "80 \u00b0C"}}