{"cas_no": "19012-03-4", "cn_name": "1-\u7532\u57fa\u5432\u54da-3-\u7532\u919b", "en_name": ["1-Methylindole-3-carboxaldehyde", "1H-Indole-3-carboxaldehyde, 1-methyl-", "Indole-3-carboxaldehyde, 1-methyl-", "1-Methyl-1H-indole-3-carboxaldehyde", "3-Formyl-1-methylindole", "N-Methyl-3-formylindole", "N-Methyl-3-indolecarboxaldehyde", "1-Methylindole-3-carboxaldehyde", "1-Methyl-3-formylindole", "N-Methylindole-3-carbaldehyde", "NSC 83042", "1-Methyl-1H-indole-3-carbaldehyde", "1-Methylindole-3-carbaldehyde"], "SMILES": "C(=O)C=1C=2C(N(C)C1)=CC=CC2", "physical_data": {"Molecular Weight": "159.18", "Molecular Formula": "C10H9NO", "Boiling Point": "186-189 \u00b0C @ Press: 3-4 Torr", "Melting Point": "69-70 \u00b0C"}}