{"cas_no": "190273-89-3", "cn_name": "6-\u6eb4-2-\u55b9\u5511\u5549\u80fa", "en_name": ["6-Bromo-2-quinazolinamine", "2-Quinazolinamine, 6-bromo-", "6-Bromo-2-quinazolinamine", "2-Amino-6-bromoquinazoline", "6-Bromoquinazolin-2-amine"], "SMILES": "BrC1=CC2=C(N=C(N)N=C2)C=C1", "physical_data": {"Molecular Weight": "224.06", "Molecular Formula": "C8H6BrN3", "Melting Point": "270-272 \u00b0C"}}