{"cas_no": "1903-22-6", "cn_name": "\u73af\u620a\u70f7\u4e9a\u57fa\u4e59\u9178\u4e59\u916f", "en_name": ["Acetic acid, 2-cyclopentylidene-, ethyl ester", "Acetic acid, 2-cyclopentylidene-, ethyl ester", "\u03941,\u03b1-Cyclopentaneacetic acid, ethyl ester", "Acetic acid, cyclopentylidene-, ethyl ester", "Carbethoxymethylenecyclopentane", "Ethyl cyclopentylideneacetate", "Ethyl 2-cyclopentylideneacetate"], "SMILES": "C(C(OCC)=O)=C1CCCC1", "physical_data": {"Molecular Weight": "154.21", "Molecular Formula": "C9H14O2", "Boiling Point": "71-72.5 \u00b0C @ Press: 1 Torr", "Melting Point": "82-84 \u00b0C"}}