{"cas_no": "19037-69-5", "cn_name": "7-\u7f9f\u57fa-4-\u7532\u57fa-8-\u785d\u57fa\u9999\u8c46\u7d20", "en_name": ["7-Hydroxy-4-methyl-8-nitrocoumarin", "2H-1-Benzopyran-2-one, 7-hydroxy-4-methyl-8-nitro-", "Coumarin, 7-hydroxy-4-methyl-8-nitro-", "Umbelliferone, 4-methyl-8-nitro-", "7-Hydroxy-4-methyl-8-nitro-2H-1-benzopyran-2-one", "7-Hydroxy-4-methyl-8-nitrocoumarin", "4-Methyl-7-hydroxy-8-nitrocoumarin", "4-Hydroxy-4-methyl-8-nitrocoumarin", "NSC 382373", "7-Hydroxy-8-nitro-4-methyl-2H-chromen-2-one"], "SMILES": "N(=O)(=O)C1=C2C(C(C)=CC(=O)O2)=CC=C1O", "physical_data": {"Molecular Weight": "221.17", "Molecular Formula": "C10H7NO5", "Melting Point": "256 \u00b0C"}}