{"cas_no": "1903-91-9", "cn_name": "2-\u7532\u6c27\u57fa\u4e59\u8112\u76d0\u9178\u76d0", "en_name": ["Ethanimidamide, 2-methoxy-, hydrochloride (1:1)", "Ethanimidamide, 2-methoxy-, hydrochloride (1:1)", "Acetamidine, 2-methoxy-, monohydrochloride", "Ethanimidamide, 2-methoxy-, monohydrochloride", "Acetamidine, 2-methoxy-, hydrochloride", "2-Methoxyacetamidine hydrochloride", "Methoxyacetamidine hydrochloride", "2-Methoxyethanimidamide hydrochloride", "2-Methoxyacetimidamide hydrochloride"], "SMILES": "C(C(=N)N)OC.Cl", "physical_data": {"Molecular Weight": "", "Molecular Formula": "C3H8N2O.ClH", "Melting Point": "70 \u00b0C"}}