{"cas_no": "1904-58-1", "cn_name": "\uff082-\u6c28\u57fa\u82ef\u7532\u9170\uff09\u80bc", "en_name": ["2-Aminobenzohydrazide", "Benzoic acid, 2-amino-, hydrazide", "Anthranilic acid, hydrazide", "o-Aminobenzhydrazide", "o-Aminobenzoic acid hydrazide", "o-Aminobenzoic hydrazide", "2-Aminobenzhydrazide", "2-Aminobenzoic acid hydrazide", "Anthraniloyl hydrazide", "2-Aminobenzoylhydrazine", "Anthranilic hydrazide", "o-Aminobenzoylhydrazine", "1-(2-Aminobenzoyl)hydrazine", "2-Aminobenzohydrazide", "NSC 642", "2-Aminobenzoylhydrazide", "INHd 22", "Anthranoylhydrazine", "o-Aminobenzohydrazide", "Anthraniloylhydrazine", "2-Aminobenzoic hydrazide"], "SMILES": "C(NN)(=O)C1=C(N)C=CC=C1", "physical_data": {"Molecular Weight": "151.17", "Molecular Formula": "C7H9N3O", "Melting Point": "120-121 \u00b0C"}}