{"cas_no": "19040-62-1", "cn_name": "2,5-\u4e8c\u7532\u57fa\u82ef\u78fa\u9170\u6c2f", "en_name": ["2,5-Dimethylbenzenesulfonyl chloride", "Benzenesulfonyl chloride, 2,5-dimethyl-", "2,5-Xylenesulfonyl chloride", "2,5-Dimethylbenzenesulfonyl chloride", "2,5-Dimethylphenylsulfonyl chloride", "p-Xylene-2-sulfonyl chloride", "2,5-Dimethylbenzene-1-sulfonyl chloride"], "SMILES": "S(Cl)(=O)(=O)C1=C(C)C=CC(C)=C1", "physical_data": {"Molecular Weight": "204.67", "Molecular Formula": "C8H9ClO2S", "Boiling Point": "149-150 \u00b0C @ Press: 12 Torr", "Melting Point": "156-158 \u00b0C"}}