{"cas_no": "19044-88-3", "cn_name": "\u6c28\u78fa\u4e50\u7075", "en_name": ["Oryzalin", "Benzenesulfonamide, 4-(dipropylamino)-3,5-dinitro-", "Sulfanilamide, 3,5-dinitro-N4,N4-dipropyl-", "4-(Dipropylamino)-3,5-dinitrobenzenesulfonamide", "Oryzalin", "Surflan", "EL 119", "Ryzelan", "3,5-Dinitro-N4,N4-dipropylsulfanilamide", "N4,N4-Dipropyl-3,5-dinitrosulfanilamide", "Rizelan", "Dirimal", "NSC 648479", "Oryzalin 4 Pro"], "SMILES": "N(CCC)(CCC)C1=C(N(=O)=O)C=C(S(N)(=O)=O)C=C1N(=O)=O", "physical_data": {"Molecular Weight": "346.36", "Molecular Formula": "C12H18N4O6S", "Melting Point": "137-138 \u00b0C"}}