{"cas_no": "1904-98-9", "cn_name": "2,6-\u4e8c\u6c28\u57fa\u560c\u5464", "en_name": ["2,6-Diaminopurine", "9H-Purine-2,6-diamine", "Purine, 2,6-diamino-", "1H-Purine-2,6-diamine", "2,6-Diaminopurine", "2-Aminoadenine", "SQ 21065", "NSC 743"], "SMILES": "NC1=C2C(=NC(N)=N1)N=CN2", "physical_data": {"Molecular Weight": "150.14", "Molecular Formula": "C5H6N6", "Melting Point": "302 \u00b0C"}}