{"cas_no": "19059-68-8", "cn_name": "3-\u4e8c\u7532\u6c28\u57fa-2,2-\u4e8c\u7532\u57fa-1-\u4e19\u9187", "en_name": ["3-(Dimethylamino)-2,2-dimethyl-1-propanol", "1-Propanol, 3-(dimethylamino)-2,2-dimethyl-", "3-(Dimethylamino)-2,2-dimethyl-1-propanol", "NSC 403920"], "SMILES": "C(C(CO)(C)C)N(C)C", "physical_data": {"Molecular Weight": "131.22", "Molecular Formula": "C7H17NO", "Boiling Point": "150-151 \u00b0C @ Press: 17 Torr"}}