{"cas_no": "19057-60-4", "cn_name": "\u85af\u84e3\u7682\u7519", "en_name": ["(+)-Dioscin", "\u03b2-D-Glucopyranoside, (3\u03b2,25R)-spirost-5-en-3-yl O-6-deoxy-\u03b1-L-mannopyranosyl-(1\u21922)-O-[6-deoxy-\u03b1-L-mannopyranosyl-(1\u21924)]-", "Dioscin", "(3\u03b2,25R)-Spirost-5-en-3-yl O-6-deoxy-\u03b1-L-mannopyranosyl-(1\u21922)-O-[6-deoxy-\u03b1-L-mannopyranosyl-(1\u21924)]-\u03b2-D-glucopyranoside", "Dioscine", "Diosgenin bis-\u03b1-L-rhamnopyranosyl-(1\u21922 and 1\u21924)-\u03b2-D-glucopyranoside", "Collettiside III", "(+)-Dioscin", "Polyphyllin III", "Diosgenin 3-O-\u03b1-L-rhamnopyranosyl-(1\u21924)-[\u03b1-L-rhamnopyranosyl-(1\u21922)]-\u03b2-D-glucopyranoside", "3-O-\u03b2-D-\u03b1-L-Rhamnopyranosyl(1\u21924)-[\u03b1-L-rhamnopyranosyl(1\u21922)]-\u03b2-D-glucopyranoside-diosgenin", "Diosgenin 3-O-\u03b1-L-rhamnopyranosyl-(1\u21922)-[\u03b1-L-rhamnopyranosyl-(1\u21924)]-\u03b2-D-glucopyranoside", "Paris III", "Parissaponin III"], "SMILES": "CC12C3C(CC1C4C(CC2)C5(C)C(=CC4)CC(OC6C(OC7C(O)C(O)C(O)C(C)O7)C(O)C(OC8C(O)C(O)C(O)C(C)O8)C(CO)O6)CC5)OC9(C3C)CCC(C)CO9", "physical_data": {"Molecular Weight": "869.04", "Molecular Formula": "C45H72O16", "Melting Point": "288 \u00b0C (decomp)"}}