{"cas_no": "19057-67-1", "cn_name": "\u91cd\u697c\u7682\u82f7E", "en_name": ["Prosapogenin A", "\u03b2-D-Glucopyranoside, (3\u03b2,25R)-spirost-5-en-3-yl 2-O-(6-deoxy-\u03b1-L-mannopyranosyl)-", "Spirost-5-ene, 3\u03b2-[[2-O-(6-deoxy-\u03b1-L-mannopyranosyl)-\u03b2-D-glucopyranosyl]oxy]-, (25R)-", "Spirostan, \u03b2-D-glucopyranoside deriv.", "Spiro[8H-naphth[2\u2032,1\u2032:4,5]indeno[2,1-b]furan-8,2\u2032-[2H]pyran], \u03b2-D-glucopyranoside deriv.", "(3\u03b2,25R)-Spirost-5-en-3-yl 2-O-(6-deoxy-\u03b1-L-mannopyranosyl)-\u03b2-D-glucopyranoside", "Glucopyranoside, (25R)-spirost-5-en-3\u03b2-yl 2-O-(6-deoxy-\u03b1-L-mannopyranosyl)-, \u03b2-D-", "Prosapogenin A of dioscin", "Prosapogenin A", "Diosgenin 3-O-\u03b1-L-rhamnopyranosyl-(1\u21922)-\u03b2-D-glucopyranoside", "Prosapogenin A, from Dioscoreatokoro", "Prosapogenin D\u20321", "Ophiopogonin C'", "Progenin III", "Lilioglycoside D", "Polyphyllin V", "25(R)-Diosgenin 3-O-\u03b1-L-rhamnopyranosyl-(1\u21922)-\u03b2-D-glucopyranoside", "Paris V", "17-Deoxyparis VI", "Saponin Ta", "Paris saponin V"], "SMILES": "CC12C3C(CC1C4C(CC2)C5(C)C(=CC4)CC(OC6C(OC7C(O)C(O)C(O)C(C)O7)C(O)C(O)C(CO)O6)CC5)OC8(C3C)CCC(C)CO8", "physical_data": {"Molecular Weight": "722.90", "Molecular Formula": "C39H62O12", "Melting Point": "212-214 \u00b0C"}}