{"cas_no": "19064-68-7", "cn_name": "1-\u6c2f-4-\u7532\u57fa\u4e8c\u6c2e\u6742\u8418", "en_name": ["1-Chloro-4-methylphthalazine", "Phthalazine, 1-chloro-4-methyl-", "1-Chloro-4-methylphthalazine", "NSC 111227"], "SMILES": "CC=1C2=C(C(Cl)=NN1)C=CC=C2", "physical_data": {"Molecular Weight": "178.62", "Molecular Formula": "C9H7ClN2", "Melting Point": "130 \u00b0C"}}