{"cas_no": "1906-57-6", "cn_name": "\u4e59\u57fa \u94be \u8349\u9178\u76d0", "en_name": ["Ethanedioic acid, 1-ethyl ester, potassium salt (1:1)", "Ethanedioic acid, 1-ethyl ester, potassium salt (1:1)", "Oxalic acid, monoethyl ester, potassium salt", "Ethanedioic acid, monoethyl ester, potassium salt", "Oxalic acid, ethyl ester, potassium salt", "Ethyl potassium oxalate", "Potassium ethyl oxalate", "2-Ethoxy-2-oxoacetic acid potassium salt", "Potassium 2-ethoxy-2-oxoacetate"], "SMILES": "C(OCC)(C(O)=O)=O.[K]", "physical_data": {"Molecular Weight": "", "Molecular Formula": "C4H6O4.K", "Melting Point": "222-225 \u00b0C"}}