{"cas_no": "19064-24-5", "cn_name": "2,6-\u4e8c\u6c1f\u785d\u57fa\u82ef", "en_name": ["1,3-Difluoro-2-nitrobenzene", "Benzene, 1,3-difluoro-2-nitro-", "1,3-Difluoro-2-nitrobenzene", "2,6-Difluoronitrobenzene", "2,6-Difluoro-1-nitrobenzene"], "SMILES": "N(=O)(=O)C1=C(F)C=CC=C1F", "physical_data": {"Molecular Weight": "159.09", "Molecular Formula": "C6H3F2NO2", "Melting Point": "74 \u00b0C"}}