{"cas_no": "19064-74-5", "cn_name": "6-\u6eb4\u915e\u55ea", "en_name": ["6-Bromophthalazine", "Phthalazine, 6-bromo-", "6-Bromophthalazine"], "SMILES": "BrC1=CC2=C(C=C1)C=NN=C2", "physical_data": {"Molecular Weight": "209.04", "Molecular Formula": "C8H5BrN2", "Melting Point": "110 \u00b0C"}}