{"cas_no": "1906-82-7", "cn_name": "\u4e59\u9170\u7518\u6c28\u9178\u4e59\u916f", "en_name": ["Ethyl acetamidoacetate", "Glycine, N-acetyl-, ethyl ester", "Aceturic acid, ethyl ester", "N-Acetylglycine ethyl ester", "Ethyl N-acetylglycinate", "Acetylglycine ethyl ester", "Ethyl acetamidoacetate", "Ethyl N-acetylglycine", "N-Acetylglycine ethyl"], "SMILES": "C(CNC(C)=O)(OCC)=O", "physical_data": {"Molecular Weight": "145.16", "Molecular Formula": "C6H11NO3", "Boiling Point": "106 \u00b0C @ Press: 2 Torr", "Melting Point": "48 \u00b0C"}}