{"cas_no": "19064-69-8", "cn_name": "\u915e\u55ea-1-\u80fa", "en_name": ["1-Phthalazinamine", "1-Phthalazinamine", "Phthalazine, 1-amino-", "1-Aminophthalazine"], "SMILES": "NC=1C2=C(C=NN1)C=CC=C2", "physical_data": {"Molecular Weight": "145.16", "Molecular Formula": "C8H7N3", "Melting Point": "211 \u00b0C (sublm)"}}