{"cas_no": "19060-15-2", "cn_name": "4-\u6c28\u57fa\u4e01\u919b\u4e8c\u7532\u7f29\u919b", "en_name": ["4,4-Dimethoxy-1-butanamine", "1-Butanamine, 4,4-dimethoxy-", "Butyraldehyde, 4-amino-, dimethyl acetal", "Butylamine, 4,4-dimethoxy-", "4,4-Dimethoxy-1-butanamine", "4-Aminobutanal dimethyl acetal", "4-Aminobutyraldehyde dimethyl acetal", "4,4-Dimethoxybutylamine", "4,4-Bis(methyloxy)butylamine", "\u03b3-Aminobutyraldehyde dimethyl acetal", "4,4-Dimethoxybutanamine"], "SMILES": "C(CCCN)(OC)OC", "physical_data": {"Molecular Weight": "133.19", "Molecular Formula": "C6H15NO2", "Boiling Point": "76-77 \u00b0C @ Press: 18 Torr"}}