{"cas_no": "19064-65-4", "cn_name": "3-\u7532\u6c27\u57fa\u5627\u5576", "en_name": ["3-Methoxypyridazine", "Pyridazine, 3-methoxy-", "3-Methoxypyridazine"], "SMILES": "O(C)C1=CC=CN=N1", "physical_data": {"Molecular Weight": "110.11", "Molecular Formula": "C5H6N2O", "Boiling Point": "77-78 \u00b0C @ Press: 5 Torr"}}