{"cas_no": "19064-64-3", "cn_name": "3,6-\u4e8c\u6c2f-4-\u7532\u57fa\u54d2\u55ea", "en_name": ["3,6-Dichloro-4-methylpyridazine", "Pyridazine, 3,6-dichloro-4-methyl-", "3,6-Dichloro-4-methylpyridazine", "NSC 66367", "4-Methyl-3,6-dichloropyridazine"], "SMILES": "CC1=C(Cl)N=NC(Cl)=C1", "physical_data": {"Molecular Weight": "163.00", "Molecular Formula": "C5H4Cl2N2", "Boiling Point": "149-151 \u00b0C @ Press: 21 Torr", "Melting Point": "86.5-97 \u00b0C"}}