{"cas_no": "19063-55-9", "cn_name": "6-\u6eb4\u9999\u8c46\u7d20", "en_name": ["6-Bromo-2H-1-benzopyran-2-one", "2H-1-Benzopyran-2-one, 6-bromo-", "Coumarin, 6-bromo-", "6-Bromo-2H-1-benzopyran-2-one", "6-Bromocoumarin", "NSC 146624", "6-Bromochromene-2-one"], "SMILES": "BrC=1C=C2C(OC(=O)C=C2)=CC1", "physical_data": {"Molecular Weight": "225.04", "Molecular Formula": "C9H5BrO2", "Melting Point": "164 \u00b0C"}}