{"cas_no": "19064-18-7", "cn_name": "2,6-\u4e8c\u6c1f\u82c4\u9187", "en_name": ["2,6-Difluorobenzenemethanol", "Benzenemethanol, 2,6-difluoro-", "Benzyl alcohol, 2,6-difluoro-", "2,6-Difluorobenzenemethanol", "2,6-Difluorobenzyl alcohol", "(2,6-Difluorophenyl)methanol"], "SMILES": "C(O)C1=C(F)C=CC=C1F", "physical_data": {"Molecular Weight": "144.12", "Molecular Formula": "C7H6F2O", "Melting Point": "168.5-169 \u00b0C"}}