{"cas_no": "19064-16-5", "cn_name": "2,6-\u4e8c\u6c1f\u82ef\u7532\u919b\u809f", "en_name": ["Benzaldehyde, 2,6-difluoro-, oxime", "Benzaldehyde, 2,6-difluoro-, oxime", "2,6-Difluorobenzaldehyde oxime"], "SMILES": "C(=NO)C1=C(F)C=CC=C1F", "physical_data": {"Molecular Weight": "157.12", "Molecular Formula": "C7H5F2NO", "Melting Point": "114.5-115 \u00b0C"}}