{"cas_no": "1906-79-2", "cn_name": "1-\u4e59\u57fa\u6eb4\u5316\u5421\u5576", "en_name": ["Ethylpyridinium bromide", "Pyridinium, 1-ethyl-, bromide (1:1)", "Pyridinium, 1-ethyl-, bromide", "1-Ethylpyridinium bromide", "EPB", "N-Ethylpyridinium bromide", "Ethylpyridinium bromide", "N-Ethylpyridinylium bromide"], "SMILES": "C(C)[N+]=1C=CC=CC1.[Br-]", "physical_data": {"Molecular Weight": "", "Molecular Formula": "C7H10N.Br", "Melting Point": "120-121 \u00b0C"}}