{"cas_no": "1907-33-1", "cn_name": "\u53d4\u4e01\u9187\u9502", "en_name": ["Lithium tert-butoxide", "2-Propanol, 2-methyl-, lithium salt (1:1)", "tert-Butyl alcohol, lithium salt", "2-Propanol, 2-methyl-, lithium salt", "Lithium tert-butoxide", "(1,1-Dimethylethoxy)lithium", "Lithium tert-butylate", "tert-Butoxylithium", "Lithium tert-butanolate", "tert-Butanol lithium salt", "Lithium t-butoxide", "2-Methyl-2-propanol lithium salt", "Lithium 2-methylpropan-2-olate"], "SMILES": "C(C)(C)(C)O.[Li]", "physical_data": {"Molecular Weight": "", "Molecular Formula": "C4H10O.Li", "Boiling Point": "110 \u00b0C @ Press: 0.01 Torr", "Density": "0.897 g/cm\u00b3"}}