{"cas_no": "190788-60-4", "cn_name": "2-\u7532\u6c27\u57fa\u82ef\u57fa\u787c\u9178\u9891\u54ea\u9187\u916f", "en_name": ["2-(2-Methoxyphenyl)-4,4,5,5-tetramethyl-1,3,2-dioxaborolane", "1,3,2-Dioxaborolane, 2-(2-methoxyphenyl)-4,4,5,5-tetramethyl-", "2-(2-Methoxyphenyl)-4,4,5,5-tetramethyl-1,3,2-dioxaborolane", "o-(Pinacolboryl)anisole", "2-Methoxyphenylboronic acid pinacol ester"], "SMILES": "O(C)C1=C(C=CC=C1)B2OC(C)(C)C(C)(C)O2", "physical_data": {"Molecular Weight": "234.10", "Molecular Formula": "C13H19BO3", "Melting Point": "80-81 \u00b0C"}}