{"cas_no": "19075-58-2", "cn_name": "6-\u6eb4\u82ef\u5e76[B]\u567b\u5429-2-\u7532\u9178", "en_name": ["6-Bromobenzo[b]thiophene-2-carboxylic acid", "Benzo[b]thiophene-2-carboxylic acid, 6-bromo-", "6-Bromobenzo[b]thiophene-2-carboxylic acid", "6-Bromobenzothiophene-2-carboxylic acid", "6-Bromo-1-benzothiophene-2-carboxylic acid", "Benzo[b]thiophene-6-carboxylic acid, 2-(bromocarbonyl)-"], "SMILES": "C(O)(=O)C1=CC=2C(S1)=CC(Br)=CC2", "physical_data": {"Molecular Weight": "257.10", "Molecular Formula": "C9H5BrO2S", "Melting Point": "267 \u00b0C"}}