{"cas_no": "19075-59-3", "cn_name": "7-\u6eb4\u82ef\u5e76[B]\u567b\u5429-2-\u7fa7\u9178", "en_name": ["7-Bromobenzo[b]thiophene-2-carboxylic acid", "Benzo[b]thiophene-2-carboxylic acid, 7-bromo-", "7-Bromobenzo[b]thiophene-2-carboxylic acid", "7-Bromobenzothiophene-2-carboxylic acid"], "SMILES": "BrC1=C2C(C=C(C(O)=O)S2)=CC=C1", "physical_data": {"Molecular Weight": "257.10", "Molecular Formula": "C9H5BrO2S", "Melting Point": "288 \u00b0C"}}