{"cas_no": "190786-44-8", "cn_name": "\u82ef\u78fa\u9178\u8d1d\u6258\u53f8\u6c40", "en_name": ["Bepotastine besilate", "1-Piperidinebutanoic acid, 4-[(S)-(4-chlorophenyl)-2-pyridinylmethoxy]-, benzenesulfonate (1:1)", "1-Piperidinebutanoic acid, 4-[(4-chlorophenyl)-2-pyridinylmethoxy]-, (S)-, monobenzenesulfonate", "1-Piperidinebutanoic acid, 4-[(S)-(4-chlorophenyl)-2-pyridinylmethoxy]-, monobenzenesulfonate", "Bepotastine besilate", "Talion", "Bepotastine benzenesulfonate salt", "BB", "Bepreve", "TAU 284", "Bepotastine besylate", "Bepotastine benzenesulfonate", "(S)-4-[4-(4-chlorophenyl-2-pyridylmethoxy)piperidinyl]butyric acid benzenesulfonate", "Tarion", "Betatastine"], "SMILES": "S(=O)(=O)(O)C1=CC=CC=C1.C(OC1CCN(CCCC(O)=O)CC1)(C2=CC=C(Cl)C=C2)C3=CC=CC=N3", "physical_data": {"Molecular Weight": "", "Molecular Formula": "C21H25ClN2O3.C6H6O3S", "Melting Point": "161-163 \u00b0C"}}