{"cas_no": "1907-65-9", "cn_name": "N-\u4e01\u57fa\u5bf9\u7532\u82ef\u78fa\u9170\u80fa", "en_name": ["N-Butyl-4-methylbenzenesulfonamide", "Benzenesulfonamide, N-butyl-4-methyl-", "p-Toluenesulfonamide, N-butyl-", "N-Butyl-4-methylbenzenesulfonamide", "N-Tosylbutylamine", "N-Butyl-p-toluenesulfonamide", "N-Butyl-p-toluenesulfoneamide", "NSC 2180"], "SMILES": "S(NCCCC)(=O)(=O)C1=CC=C(C)C=C1", "physical_data": {"Molecular Weight": "227.32", "Molecular Formula": "C11H17NO2S", "Melting Point": "77 \u00b0C"}}