{"cas_no": "19075-45-7", "cn_name": "6-\u6eb4\u82ef\u5e76[B]\u567b\u5429-2-\u7532\u919b", "en_name": ["6-Bromobenzo[b]thiophene-2-carboxaldehyde", "Benzo[b]thiophene-2-carboxaldehyde, 6-bromo-", "6-Bromobenzo[b]thiophene-2-carboxaldehyde"], "SMILES": "C(=O)C1=CC=2C(S1)=CC(Br)=CC2", "physical_data": {"Molecular Weight": "241.10", "Molecular Formula": "C9H5BrOS", "Melting Point": "95-96 \u00b0C"}}