{"cas_no": "1908-11-8", "cn_name": "\u80c6\u56fa\u9187\u6708\u6842\u9178\u916f", "en_name": ["Cholesteryl laurate", "Cholest-5-en-3-ol (3\u03b2)-, 3-dodecanoate", "Cholesterol, laurate", "Cholest-5-en-3-ol (3\u03b2)-, dodecanoate", "Lauric acid, cholesteryl ester", "Cholesteryl laurate", "Cholesteryl dodecanoate", "Dodecanoic acid cholesteryl ester", "NSC 80701", "Cholest-5-en-3\u03b2-ol laurate", "5-Cholesten-3\u03b2-ol laurate", "Cholesterol dodecanoate", "CE(12:0)"], "SMILES": "CC12C3C(C4C(C)(CC3)C(C(CCCC(C)C)C)CC4)CC=C1CC(OC(CCCCCCCCCCC)=O)CC2", "physical_data": {"Molecular Weight": "568.96", "Molecular Formula": "C39H68O2", "Melting Point": "91-92 \u00b0C"}}