{"cas_no": "19083-00-2", "cn_name": "\u7ea4\u7ec6\u85af\u84e3\u7682\u82f7", "en_name": ["Gracillin", "\u03b2-D-Glucopyranoside, (3\u03b2,25R)-spirost-5-en-3-yl O-6-deoxy-\u03b1-L-mannopyranosyl-(1\u21922)-O-[\u03b2-D-glucopyranosyl-(1\u21923)]-", "Gracillin", "(3\u03b2,25R)-Spirost-5-en-3-yl O-6-deoxy-\u03b1-L-mannopyranosyl-(1\u21922)-O-[\u03b2-D-glucopyranosyl-(1\u21923)]-\u03b2-D-glucopyranoside", "Diosgenin 3-O-\u03b2-gracillimatrioside", "Gracilline", "Lilioglycoside G", "Diosgenin 3-O-(\u03b1-L-rhamnopyranosyl(1\u21922)-[\u03b2-D-glucopyranosyl(1\u21923)])-\u03b2-D-glucopyranoside", "NSC 698787", "25(R)-Diosgenin 3-O-\u03b2-D-glucopyranosyl-(1\u21923)-[\u03b1-L-rhamnopyranosyl-(1\u21922)]-\u03b2-D-glucopyranoside", "Dulcamarin C"], "SMILES": "CC12C3C(CC1C4C(CC2)C5(C)C(=CC4)CC(OC6C(OC7C(O)C(O)C(O)C(C)O7)C(OC8OC(CO)C(O)C(O)C8O)C(O)C(CO)O6)CC5)OC9(C3C)CCC(C)CO9", "physical_data": {"Molecular Weight": "885.04", "Molecular Formula": "C45H72O17", "Melting Point": "290-293 \u00b0C"}}