{"cas_no": "1908-87-8", "cn_name": "3-\u7532\u57fa\u56db\u6c22\u567b\u5511-2-\u786b\u916e", "en_name": ["3-Methyl-2-thiazolidinethione", "2-Thiazolidinethione, 3-methyl-", "3-Methyl-2-thiazolidinethione", "N-Methyl-2-thiazolidinethione", "Vulkacit CRV", "3-Methyl-1,3-thiazolidine-2-thione", "NSC 122616", "Rhenogran MTT 80", "Rhenocure CRV", "MTT 80", "MTT", "Rhenocure CRV/LG"], "SMILES": "S=C1N(C)CCS1", "physical_data": {"Molecular Weight": "133.24", "Molecular Formula": "C4H7NS2", "Boiling Point": "90-100 \u00b0C @ Press: 10-14 Torr", "Melting Point": "68-69 \u00b0C"}}