{"cas_no": "1909-91-7", "cn_name": "\u5f02\u67cf\u70ef\u9178", "en_name": ["(+)-Isocupressic acid", "1-Naphthalenecarboxylic acid, decahydro-5-[(3E)-5-hydroxy-3-methyl-3-penten-1-yl]-1,4a-dimethyl-6-methylene-, (1S,4aR,5S,8aR)-", "Isocupressic acid", "Labda-8(20),13-dien-19-oic acid, 15-hydroxy-, (E)-", "1-Naphthalenecarboxylic acid, decahydro-5-(5-hydroxy-3-methyl-3-pentenyl)-1,4a-dimethyl-6-methylene-, [1S-[1\u03b1,4a\u03b1,5\u03b1(E),8a\u03b2]]-", "1-Naphthalenecarboxylic acid, decahydro-5-[(3E)-5-hydroxy-3-methyl-3-pentenyl]-1,4a-dimethyl-6-methylene-, (1S,4aR,5S,8aR)-", "(1S,4aR,5S,8aR)-Decahydro-5-[(3E)-5-hydroxy-3-methyl-3-penten-1-yl]-1,4a-dimethyl-6-methylene-1-naphthalenecarboxylic acid", "(+)-Isocupressic acid"], "SMILES": "CC12C(C(C(O)=O)(C)CCC1)CCC(=C)C2CCC(=CCO)C", "physical_data": {"Molecular Weight": "320.47", "Molecular Formula": "C20H32O3", "Melting Point": "109-110 \u00b0C"}}