{"cas_no": "19099-54-8", "cn_name": "2-\u7898\u5f02\u4e19\u57fa\u82ef", "en_name": ["1-Iodo-2-isopropylbenzene", "Benzene, 1-iodo-2-(1-methylethyl)-", "Cumene, o-iodo-", "1-Iodo-2-(1-methylethyl)benzene", "o-Iodocumene", "2-Iodo-1-isopropylbenzene", "2-Isopropyliodobenzene", "1-Iodo-2-isopropylbenzene", "2-Isopropylphenyl iodide", "1-Iodo-2-propan-2-ylbenzene", "1-Iodo-2-(propan-2-yl)benzene", "1-Isopropyl-2-iodobenzene", "2-Isopropyl-1-iodobenzene"], "SMILES": "C(C)(C)C1=C(I)C=CC=C1", "physical_data": {"Molecular Weight": "246.09", "Molecular Formula": "C9H11I", "Boiling Point": "84-85 \u00b0C @ Press: 2 Torr", "Density": "1.5487 g/cm\u00b3 @ Temp: 20 \u00b0C"}}