{"cas_no": "19094-56-5", "cn_name": "2-\u6c2f-5-\u7898\u82ef\u7532\u9178", "en_name": ["2-Chloro-5-iodobenzoic acid", "Benzoic acid, 2-chloro-5-iodo-", "2-Chloro-5-iodobenzoic acid", "5-Iodo-2-chlorobenzoic acid", "B-(2-Chloro-5-iodophenyl)boronic acid"], "SMILES": "C(O)(=O)C1=C(Cl)C=CC(I)=C1", "physical_data": {"Molecular Weight": "282.46", "Molecular Formula": "C7H4ClIO2", "Melting Point": "155-156 \u00b0C"}}