{"cas_no": "19095-24-0", "cn_name": "1,1,3,3,5,5,7,7,9,9,11,11,13,13,15,15-\u5341\u516d\u7532\u57fa\u516b\u7845\u6c27\u70f7", "en_name": ["1,1,3,3,5,5,7,7,9,9,11,11,13,13,15,15-Hexadecamethyloctasiloxane", "Octasiloxane, 1,1,3,3,5,5,7,7,9,9,11,11,13,13,15,15-hexadecamethyl-", "1,1,3,3,5,5,7,7,9,9,11,11,13,13,15,15-Hexadecamethyloctasiloxane", "1,15-Dihydrohexadecamethyloctasiloxane", "1,15-Dihydrogenhexadecamethyloctasiloxane"], "SMILES": "[Si](O[Si](O[Si](O[Si](O[SiH](C)C)(C)C)(C)C)(C)C)(O[Si](O[Si](O[SiH](C)C)(C)C)(C)C)(C)C", "physical_data": {"Molecular Weight": "579.25", "Molecular Formula": "C16H50O7Si8", "Boiling Point": "105 \u00b0C @ Press: 0.3 Torr"}}