{"cas_no": "19099-93-5", "cn_name": "1-Cbz-4-\u54cc\u5576\u916e", "en_name": ["Benzyl 4-oxo-1-piperidinecarboxylate", "1-Piperidinecarboxylic acid, 4-oxo-, phenylmethyl ester", "1-Piperidinecarboxylic acid, 4-oxo-, benzyl ester", "N-Carbobenzyloxy-4-piperidone", "N-(Carbobenzyloxy)-4-piperidinone", "1-Carbobenzoxy-4-piperidone", "N-(Benzyloxycarbonyl)-4-piperidone", "1-Benzyloxycarbonyl-4-piperidone", "1-(Benzyloxycarbonyl)-4-piperidinone", "N-(Benzyloxycarbonyl)-4-oxopiperidine", "Benzyl 4-oxo-1-piperidinecarboxylate", "4-Oxopiperidine-1-carboxylic acid benzyl ester", "1-Benzyloxycarbonyl-4-oxopiperidine", "(N-Benzyloxycarbonyl)piperidin-4-one", "4-Oxopiperidin-1-carboxylic acid benzyl ester", "1-CBZ-4-piperidone", "Phenylmethyl 4-oxo-1-piperidinecarboxylate", "N-Cbz-4-piperidinone"], "SMILES": "C(OCC1=CC=CC=C1)(=O)N2CCC(=O)CC2", "physical_data": {"Molecular Weight": "233.26", "Molecular Formula": "C13H15NO3", "Boiling Point": "125-131 \u00b0C @ Press: 4 x 10<sup>-3</sup> Torr", "Melting Point": "37-38 \u00b0C"}}