{"cas_no": "19090-04-1", "cn_name": "\u82ef\u5e76\u4e8c\u6c22\u5421\u5583-3-\u916e", "en_name": ["2H-1-Benzopyran-3(4H)-one", "2H-1-Benzopyran-3(4H)-one", "3-Chromanone", "3,4-Dihydro-2H-1-benzopyran-3-one"], "SMILES": "O=C1CC=2C(OC1)=CC=CC2", "physical_data": {"Molecular Weight": "148.16", "Molecular Formula": "C9H8O2", "Boiling Point": "195-205 \u00b0C @ Press: 0.1-0.25 Torr"}}