{"cas_no": "19094-48-5", "cn_name": "3,5-\u4e8c\u7898\u82ef\u7532\u9178", "en_name": ["3,5-Diiodobenzoic acid", "Benzoic acid, 3,5-diiodo-", "3,5-Diiodobenzoic acid", "3,5-Diiodobenzoate", "NSC 149429"], "SMILES": "C(O)(=O)C1=CC(I)=CC(I)=C1", "physical_data": {"Molecular Weight": "373.91", "Molecular Formula": "C7H4I2O2", "Melting Point": "235 \u00b0C"}}