{"cas_no": "19090-03-0", "cn_name": "\u4e8c\u6c22-2H-\u56db\u6c22\u5421\u5583-3-\u916e", "en_name": ["Tetrahydrothiopyran-3-one", "2H-Thiopyran-3(4H)-one, dihydro-", "Dihydro-2H-thiopyran-3(4H)-one", "3-Thiacyclohexanone", "1-Thiacyclohexan-3-one", "3-Oxotetrahydrothiopyran", "Tetrahydrothiopyran-3-one", "3-Oxothiacyclohexane"], "SMILES": "O=C1CCCSC1", "physical_data": {"Molecular Weight": "116.18", "Molecular Formula": "C5H8OS", "Boiling Point": "80 \u00b0C @ Press: 4 Torr"}}