{"cas_no": "191-48-0", "cn_name": "\u73af\u5341\u8f6e\u70ef", "en_name": ["Decacyclene", "Diacenaphtho[1,2-j:1\u2032,2\u2032-l]fluoranthene", "Decacyclene", "NSC 60676"], "SMILES": "C=12C3=C(C4=C(C1C=5C=6C2=CC=CC6C=CC5)C=7C=8C4=CC=CC8C=CC7)C=9C=%10C3=CC=CC%10C=CC9", "physical_data": {"Molecular Weight": "450.53", "Molecular Formula": "C36H18", "Melting Point": "389 \u00b0C"}}