{"cas_no": "191-26-4", "cn_name": "\u84bd\u5d4c\u84bd", "en_name": ["Anthanthrene", "Dibenzo[def,mno]chrysene", "Anthanthren", "Dibenzo[cd,jk]pyrene", "Anthanthrene"], "SMILES": "C12=C3C=4C=5C=C1C=CC6=C2C(C=C3C=CC4C=CC5)=CC=C6", "physical_data": {"Molecular Weight": "276.33", "Molecular Formula": "C22H12", "Melting Point": "257 \u00b0C"}}