{"cas_no": "191-24-2", "cn_name": "\u82ef\u5e76(G,H,I)\u82dd", "en_name": ["Benzo[ghi]perylene", "Benzo[ghi]perylene", "1,12-Benzoperylene", "1,12-Benzperylene", "NSC 89275"], "SMILES": "C12=C3C=4C=5C=6C1=C(C=CC2=CC=C3C=CC4C=CC5)C=CC6", "physical_data": {"Molecular Weight": "276.33", "Molecular Formula": "C22H12", "Boiling Point": "550 \u00b0C @ Press: 760 Torr", "Melting Point": "277 \u00b0C", "Density": "1.3 g/cm\u00b3"}}