{"cas_no": "191-07-1", "cn_name": "\u6655\u82ef", "en_name": ["Coronene", "Coronene", "NSC 90725", "Circumbenzene"], "SMILES": "C12=C3C=4C=5C=6C1=C7C=CC6C=CC5C=CC4C=CC3=CC=C2C=C7", "physical_data": {"Molecular Weight": "300.35", "Molecular Formula": "C24H12", "Boiling Point": "525 \u00b0C", "Melting Point": "437.3 \u00b0C", "Density": "1.377 g/cm\u00b3"}}