{"cas_no": "191-68-4", "cn_name": "\u4e8c\u82ef\u5e76[G,P]\u7a20\u4e8c\u8418", "en_name": ["Dibenzo[g,p]chrysene", "Dibenzo[g,p]chrysene", "Tetrabenzonaphthalene", "Dibenzo[a,c]triphenylene", "1,2,3,4,5,6,7,8-Tetrabenzonaphthalene", "Tetrabenzo[a,c,f,h]naphthalene", "NSC 30878", "NSC 90781", "1,2,7,8-Dibenzochrysene"], "SMILES": "C12=C(C=3C(C=4C1=CC=CC4)=CC=CC3)C=5C(C=6C2=CC=CC6)=CC=CC5", "physical_data": {"Molecular Weight": "328.41", "Molecular Formula": "C26H16", "Melting Point": "218 \u00b0C"}}