{"cas_no": "191-30-0", "cn_name": "\u4e8c\u82ef\u5e76(A,L)\u8298", "en_name": ["Dibenzo[a,l]pyrene", "Dibenzo[def,p]chrysene", "1,2:3,4-Dibenzopyrene", "Dibenzo[a,l]pyrene", "Ba 51-090462", "1,2,9,10-Dibenzopyrene", "4,5,6,7-Dibenzpyrene", "2,3:4,5-Dibenzpyrene", "NSC 90324"], "SMILES": "C12=C3C=4C(C=5C1=C(C=CC2=CC=6C3=CC=CC6)C=CC5)=CC=CC4", "physical_data": {"Molecular Weight": "302.37", "Molecular Formula": "C24H14", "Melting Point": "162.4 \u00b0C"}}