{"cas_no": "1910-42-5", "cn_name": "\u767e\u8349\u67af", "en_name": ["Methyl viologen", "4,4\u2032-Bipyridinium, 1,1\u2032-dimethyl-, chloride (1:2)", "4,4\u2032-Bipyridinium, 1,1\u2032-dimethyl-, dichloride", "1,1\u2032-Dimethyl-4,4\u2032-bipyridinium dichloride", "N,N\u2032-Dimethyl-4,4\u2032-bipyridinium dichloride", "N,N\u2032-Dimethyl-4,4\u2032-dipyridylium dichloride", "1,1\u2032-Dimethyl-4,4\u2032-dipyridylium dichloride", "Paraquat dichloride", "Methyl viologen", "Gramoxone W", "Gramoxone dichloride", "1,1\u2032-Dimethyl-4,4\u2032-dipyridinium dichloride", "Methyl viologen dichloride", "Gramixel", "Gramoxone S", "Gramoxone", "OK 622", "Dimethyl viologen chloride", "Gramoxone D", "AH 501", "Methylviologen chloride", "Paragreen A", "Cekuquat", "Galokson", "Gramoxone Max", "Cyclone Max", "Gramoxone Inteon", "AH 501 (herbicide)", "Paraquat", "Nuquat", "Tocha"], "SMILES": "C[N+]=1C=CC(=CC1)C=2C=C[N+](C)=CC2.[Cl-]", "physical_data": {"Molecular Weight": "", "Molecular Formula": "C12H14N2.2Cl", "Melting Point": "175-180 \u00b0C", "Density": "1.25 g/cm\u00b3"}}