{"cas_no": "19103-54-9", "cn_name": "\u4e09\u88c2\u9f20\u5c3e\u8349\u7d20", "en_name": ["Salvigenin", "4H-1-Benzopyran-4-one, 5-hydroxy-6,7-dimethoxy-2-(4-methoxyphenyl)-", "Flavone, 5-hydroxy-4\u2032,6,7-trimethoxy-", "5-Hydroxy-6,7-dimethoxy-2-(4-methoxyphenyl)-4H-1-benzopyran-4-one", "Salvigenin", "5-Hydroxy-4\u2032,6,7-trimethoxyflavone", "Psathyrotin", "7-O-Methylpectolinarigenin", "5-Hydroxy-6,7,4\u2032-trimethoxyflavone", "5-Desmethyltetraraethylscutellarein"], "SMILES": "OC1=C2C(OC(=CC2=O)C3=CC=C(OC)C=C3)=CC(OC)=C1OC", "physical_data": {"Molecular Weight": "328.32", "Molecular Formula": "C18H16O6", "Melting Point": "188 \u00b0C"}}