{"cas_no": "19112-35-7", "cn_name": "(2-\u6c2f\u82ef\u7532\u9170)\u4e59\u9178\u4e59\u916f", "en_name": ["Ethyl 2-chloro-\u03b2-oxobenzenepropanoate", "Benzenepropanoic acid, 2-chloro-\u03b2-oxo-, ethyl ester", "Acetic acid, (o-chlorobenzoyl)-, ethyl ester", "Ethyl 2-chloro-\u03b2-oxobenzenepropanoate", "Ethyl (o-chlorobenzoyl)acetate", "Ethyl (2-chlorobenzoyl)acetate", "NSC 158136", "Ethyl 3-(2-chlorophenyl)-3-oxopropanoate", "Ethyl 2-(2-chlorobenzoyl)acetate", "3-(2-Chlorophenyl)-3-oxopropionic acid ethyl ester"], "SMILES": "C(CC(OCC)=O)(=O)C1=C(Cl)C=CC=C1", "physical_data": {"Molecular Weight": "226.66", "Molecular Formula": "C11H11ClO3", "Boiling Point": "&gt;200 \u00b0C"}}