{"cas_no": "19116-90-6", "cn_name": "2,5-\u4e8c\u7532\u6c27\u57fa\u82ef-1-\u78fa\u80fa", "en_name": ["2,5-Dimethoxybenzenesulfonamide", "Benzenesulfonamide, 2,5-dimethoxy-", "2,5-Dimethoxybenzenesulfonamide", "2,5-Dimethoxybenzene-1-sulfonamide", "2,5-Dimethoxy-benzenesulfonic acid amide"], "SMILES": "S(N)(=O)(=O)C1=C(OC)C=CC(OC)=C1", "physical_data": {"Molecular Weight": "217.24", "Molecular Formula": "C8H11NO4S", "Melting Point": "47.5-48.5 \u00b0C"}}