{"cas_no": "191171-55-8", "cn_name": "2-\u6c28\u57fa\u82ef\u787c\u9178\u9891\u54ea\u9187\u916f", "en_name": ["2-(4,4,5,5-Tetramethyl-1,3,2-dioxaborolan-2-yl)aniline", "Benzenamine, 2-(4,4,5,5-tetramethyl-1,3,2-dioxaborolan-2-yl)-", "2-(4,4,5,5-Tetramethyl-1,3,2-dioxaborolan-2-yl)benzenamine", "2-(4,4,5,5-Tetramethyl-1,3,2-dioxaborolan-2-yl)phenylamine", "2-(4,4,5,5-Tetramethyl-1,3,2-dioxaborolan-2-yl)aniline", "2-(2-Aminophenyl)-4,4,5,5-tetramethyl-1,3,2-dioxaborolane", "2-(Tetramethyl-1,3,2-dioxaborolan-2-yl)aniline", "2-Aminophenylboronic acid pinacol ester"], "SMILES": "NC1=C(B2OC(C)(C)C(C)(C)O2)C=CC=C1", "physical_data": {"Molecular Weight": "219.09", "Molecular Formula": "C12H18BNO2", "Melting Point": "67-68 \u00b0C"}}