{"cas_no": "1911-78-0", "cn_name": "10ALPHA-\u7f9f\u57fa\u65e5\u672c\u523a\u53c2\u841c-4-\u916e", "en_name": ["(-)-Oplopanone", "Ethanone, 1-[(1S,3aR,4R,7S,7aS)-octahydro-4-hydroxy-4-methyl-7-(1-methylethyl)-1H-inden-1-yl]-", "Oplopanone", "Ketone, 3a\u03b1,4,5,6,7,7a\u03b2-hexahydro-4\u03b1-hydroxy-7\u03b2-isopropyl-4-methyl-1\u03b2-indanyl methyl, (-)-", "Ethanone, 1-[octahydro-4-hydroxy-4-methyl-7-(1-methylethyl)-1H-inden-1-yl]-, [1S-(1\u03b1,3a\u03b2,4\u03b2,7\u03b1,7a\u03b1)]-", "1-[(1S,3aR,4R,7S,7aS)-Octahydro-4-hydroxy-4-methyl-7-(1-methylethyl)-1H-inden-1-yl]ethanone", "Oplopanon", "(-)-Oplopanone", "10\u03b1-Hydroxyoplopan-4-one"], "SMILES": "C(C)(=O)C1C2C(CC1)C(C)(O)CCC2C(C)C", "physical_data": {"Molecular Weight": "238.37", "Molecular Formula": "C15H26O2", "Melting Point": "96-97 \u00b0C"}}