{"cas_no": "1912-31-8", "cn_name": "\u7532\u78fa\u9178\u4e19\u916f", "en_name": ["Propyl methanesulfonate", "Methanesulfonic acid, propyl ester", "Propyl methanesulfonate", "NSC 49872", "n-Propyl methanesulfonate", "Propyl mesylate"], "SMILES": "O(S(C)(=O)=O)CCC", "physical_data": {"Molecular Weight": "138.19", "Molecular Formula": "C4H10O3S", "Boiling Point": "115 \u00b0C @ Press: 21 Torr"}}