{"cas_no": "1912-28-3", "cn_name": "\u4e59\u78fa\u9178\u7532\u916f", "en_name": ["Methyl ethanesulfonate", "Ethanesulfonic acid, methyl ester", "Methyl ethanesulfonate", "Methyl ethylsulfonate"], "SMILES": "S(CC)(OC)(=O)=O", "physical_data": {"Molecular Weight": "124.16", "Molecular Formula": "C3H8O3S", "Boiling Point": "100-101 \u00b0C @ Press: 24 Torr"}}