{"cas_no": "19121-58-5", "cn_name": "\u6fb3\u6d32\u8304\u78b1", "en_name": ["Solasonine", "\u03b2-D-Galactopyranoside, (3\u03b2,22\u03b1,25R)-spirosol-5-en-3-yl O-6-deoxy-\u03b1-L-mannopyranosyl-(1\u21922)-O-[\u03b2-D-glucopyranosyl-(1\u21923)]-", "Solasonine", "Spirosolane, \u03b2-D-galactopyranoside deriv.", "(3\u03b2,22\u03b1,25R)-Spirosol-5-en-3-yl O-6-deoxy-\u03b1-L-mannopyranosyl-(1\u21922)-O-[\u03b2-D-glucopyranosyl-(1\u21923)]-\u03b2-D-galactopyranoside", "Solasonin", "\u03b1-Solasonine", "NSC 82149"], "SMILES": "CC12C3C(CC1C4C(CC2)C5(C)C(=CC4)CC(OC6C(OC7C(O)C(O)C(O)C(C)O7)C(OC8OC(CO)C(O)C(O)C8O)C(O)C(CO)O6)CC5)OC9(C3C)CCC(C)CN9", "physical_data": {"Molecular Weight": "884.06", "Molecular Formula": "C45H73NO16", "Melting Point": "284-285 \u00b0C (decomp)"}}