{"cas_no": "1912-44-3", "cn_name": "6-\u6c2f-1H-\u5432\u54da-3-\u57fa-\u4e59\u9178", "en_name": ["6-Chloro-1H-indole-3-acetic acid", "1H-Indole-3-acetic acid, 6-chloro-", "Indole-3-acetic acid, 6-chloro-", "6-Chloro-1H-indole-3-acetic acid", "6-Chloroindole-3-acetic acid", "6-Chloro-IAA", "2-(6-Chloro-1H-indol-3-yl)acetic acid", "SR 058", "NSC 295295"], "SMILES": "C(C(O)=O)C=1C=2C(NC1)=CC(Cl)=CC2", "physical_data": {"Molecular Weight": "209.63", "Molecular Formula": "C10H8ClNO2", "Melting Point": "182-184 \u00b0C (decomp)"}}