{"cas_no": "1912-45-4", "cn_name": "5-\u6c2f\u5432\u54da-3-\u918b\u9178", "en_name": ["5-Chloroindole-3-acetic acid", "1H-Indole-3-acetic acid, 5-chloro-", "Indole-3-acetic acid, 5-chloro-", "5-Chloro-1H-indole-3-acetic acid", "5-Chloroindole-3-acetic acid", "5-Chloro-IAA", "2-(5-Chloro-1H-indol-3-yl)acetic acid", "SR 024", "5-Chloroindoleacetic acid", "(5-Chloro-1H-indol-3-yl)acetic acid"], "SMILES": "C(C(O)=O)C=1C=2C(NC1)=CC=C(Cl)C2", "physical_data": {"Molecular Weight": "209.63", "Molecular Formula": "C10H8ClNO2", "Melting Point": "158-159 \u00b0C"}}