{"cas_no": "1912-47-6", "cn_name": "2-(5-\u7532\u57fa-1H-\u5432\u54da)-3-\u4e59\u9178", "en_name": ["5-Methyl-3-indoleacetic acid", "1H-Indole-3-acetic acid, 5-methyl-", "Indole-3-acetic acid, 5-methyl-", "5-Methyl-1H-indole-3-acetic acid", "5-Methyl-3-indoleacetic acid", "2-(5-Methyl-1H-indol-3-yl)acetic acid", "NSC 21428"], "SMILES": "C(C(O)=O)C=1C=2C(NC1)=CC=C(C)C2", "physical_data": {"Molecular Weight": "189.21", "Molecular Formula": "C11H11NO2", "Melting Point": "151 \u00b0C"}}