{"cas_no": "191226-98-9", "cn_name": "[(1S,2R)-1-\u82c4\u57fa-2-\u7f9f\u57fa-3-[\u5f02\u4e01\u57fa[(4-\u785d\u57fa\u82ef\u57fa)\u78fa\u9170]\u6c28\u57fa]\u4e19\u57fa]\u6c28\u57fa\u7532\u9178\u53d4\u4e01\u916f", "en_name": ["tert-Butyl [(1S,2R)-1-benzyl-2-hydroxy-3-[isobutyl[(4-nitrophenyl)sulfonyl]amino]propyl]carbamate", "Carbamic acid, N-[(1S,2R)-2-hydroxy-3-[(2-methylpropyl)[(4-nitrophenyl)sulfonyl]amino]-1-(phenylmethyl)propyl]-, 1,1-dimethylethyl ester", "Carbamic acid, [2-hydroxy-3-[(2-methylpropyl)[(4-nitrophenyl)sulfonyl]amino]-1-(phenylmethyl)propyl]-, 1,1-dimethylethyl ester, [R-(R*,S*)]-", "Carbamic acid, [(1S,2R)-2-hydroxy-3-[(2-methylpropyl)[(4-nitrophenyl)sulfonyl]amino]-1-(phenylmethyl)propyl]-, 1,1-dimethylethyl ester", "tert-Butyl [(1S,2R)-1-benzyl-2-hydroxy-3-[isobutyl[(4-nitrophenyl)sulfonyl]amino]propyl]carbamate"], "SMILES": "S(N(CC(C(CC1=CC=CC=C1)NC(OC(C)(C)C)=O)O)CC(C)C)(=O)(=O)C2=CC=C(N(=O)=O)C=C2", "physical_data": {"Molecular Weight": "521.63", "Molecular Formula": "C25H35N3O7S", "Melting Point": "166.5-168.5 \u00b0C"}}