{"cas_no": "1912-30-7", "cn_name": "\u4e59\u78fa\u9178\u4e59\u916f", "en_name": ["Ethyl ethanesulfonate", "Ethanesulfonic acid, ethyl ester", "Ethyl ethanesulfonate", "Ethyl ethyl sulfonate"], "SMILES": "S(OCC)(CC)(=O)=O", "physical_data": {"Molecular Weight": "138.19", "Molecular Formula": "C4H10O3S", "Boiling Point": "157 \u00b0C @ Press: 763 Torr", "Melting Point": "100-101 \u00b0C", "Density": "1.0829 g/cm\u00b3 @ Temp: 20 \u00b0C"}}