{"cas_no": "19125-99-6", "cn_name": "C.I.\u6cb9\u6eb6\u9ec4166", "en_name": ["Solvent Yellow 43", "1H-Benz[de]isoquinoline-1,3(2H)-dione, 2-butyl-6-(butylamino)-", "Naphthalimide, N-butyl-4-(butylamino)-", "2-Butyl-6-(butylamino)-1H-benz[de]isoquinoline-1,3(2H)-dione", "N-Butyl-4-(butylamino)naphthalimide", "Fluorol 555", "Fluorol Yellow 086", "N-Butyl-4-(butylamino)-1,8-naphthalimide", "Fluorol 7GA", "C.I. Solvent Yellow 116", "C.I. 561930", "Solvent Yellow 43", "C.I. Solvent Yellow 43", "Solvent Yellow 116", "C.I. Fluorescent Brightening Agent 75", "Oil Color 7G", "C.I. Fluorescent Brightener 75", "Azosol Brilliant Yellow 8GF", "Morton Yellow G", "Morton Fluorescent Yellow G", "Fluorescent brightening agent 75", "7GA", "7GA Naphthalamide dye", "Kayaset Flavine FG", "Kayaset Yellow FG", "Fluorescent Yellow 43", "Fluorescent Brilliant Yellow R", "Day-Glo Tigris Yellow", "DFSB-K 43", "Neeliglow Yellow 43", "4-(Butylamino)-N-butyl-1,8-naphthalimide", "NY 43", "Day-Glo Tigris Yellow D 043", "Tigris Yellow D 043", "Oplas Yellow 156", "2-Butyl-6-(butylamino)benzo[de]isoquinoline-1,3-dione", "2-Butyl-6-butylamino-benzo[de]isoquinoline-1,3-dione"], "SMILES": "N(CCCC)C=1C2=C3C(C(=O)N(CCCC)C(=O)C3=CC=C2)=CC1", "physical_data": {"Molecular Weight": "324.42", "Molecular Formula": "C20H24N2O2", "Melting Point": "125-126 \u00b0C"}}