{"cas_no": "1912-43-2", "cn_name": "2-\u7532\u57fa\u5432\u54da-3-\u4e59\u9178", "en_name": ["2-Methyl-1H-indole-3-acetic acid", "1H-Indole-3-acetic acid, 2-methyl-", "Indole-3-acetic acid, 2-methyl-", "2-Methyl-1H-indole-3-acetic acid", "2-Methylindole-3-acetic acid", "2-Methyl-3-indolylacetic acid", "2-(2-Methyl-1H-indol-3-yl)acetic acid", "(2-Methyl-1H-indol-3-yl)acetic acid"], "SMILES": "C(C(O)=O)C=1C=2C(NC1C)=CC=CC2", "physical_data": {"Molecular Weight": "189.21", "Molecular Formula": "C11H11NO2", "Melting Point": "199-200 \u00b0C"}}