{"cas_no": "1912-42-1", "cn_name": "7-\u6c2e\u6742\u5432\u54da-3-\u4e59\u9178", "en_name": ["1H-Pyrrolo[2,3-b]pyridine-3-acetic acid", "1H-Pyrrolo[2,3-b]pyridine-3-acetic acid", "7-Azaindole-3-acetic acid", "(1H-Pyrrolo[2,3-b]pyridin-3-yl)acetic acid", "2-[1H-Pyrrolo[2,3-b]pyridin-3-yl]acetic acid", "2-(1H-Pyrrolo[2,3-b]pyridin-3-yl)aceticacid"], "SMILES": "C(C(O)=O)C=1C=2C(NC1)=NC=CC2", "physical_data": {"Molecular Weight": "176.17", "Molecular Formula": "C9H8N2O2", "Melting Point": "214.5-215.0 \u00b0C (decomp)"}}