{"cas_no": "1912-32-9", "cn_name": "\u7532\u78fa\u9178\u6b63\u4e01\u916f", "en_name": ["Butyl methanesulfonate", "Methanesulfonic acid, butyl ester", "Butyl methanesulfonate", "n-Butyl methanesulfonate", "Butyl mesylate", "NSC 36060", "Methanesulfonic acid n-butyl ester"], "SMILES": "O(S(C)(=O)=O)CCCC", "physical_data": {"Molecular Weight": "152.21", "Molecular Formula": "C5H12O3S", "Boiling Point": "105-106 \u00b0C", "Density": "1.1074 g/cm\u00b3 @ Temp: 20 \u00b0C"}}