{"cas_no": "1912-33-0", "cn_name": "\u5432\u54da-3-\u918b\u9178\u7532\u916f", "en_name": ["Indole-3-acetic acid, methyl ester", "1H-Indole-3-acetic acid, methyl ester", "Indole-3-acetic acid, methyl ester", "\u03b2-Indolylacetic acid methyl ester", "Methyl \u03b2-indoleacetate", "Methyl indole-3-acetate", "IAA methyl ester", "Methyl indol-3-ylacetate", "Indolyl-3-acetic acid methyl ester", "NSC 63806", "Methyl 1H-indol-3-ylacetate", "(1H-Indol-3-yl)acetic acid methyl ester", "Methyl 2-(1H-indol-3-yl)acetate", "Methyl 1H-indole-3-acetate"], "SMILES": "C(C(OC)=O)C=1C=2C(NC1)=CC=CC2", "physical_data": {"Molecular Weight": "189.21", "Molecular Formula": "C11H11NO2", "Boiling Point": "185-190 \u00b0C @ Press: 3 Torr", "Melting Point": "49.5-50 \u00b0C"}}