{"cas_no": "1912-24-9", "cn_name": "\u963f\u7279\u62c9\u6d25", "en_name": ["Atrazine", "1,3,5-Triazine-2,4-diamine, 6-chloro-N2-ethyl-N4-(1-methylethyl)-", "s-Triazine, 2-chloro-4-(ethylamino)-6-(isopropylamino)-", "1,3,5-Triazine-2,4-diamine, 6-chloro-N-ethyl-N\u2032-(1-methylethyl)-", "6-Chloro-N2-ethyl-N4-(1-methylethyl)-1,3,5-triazine-2,4-diamine", "A 361", "G 30027", "Aktinit A", "Atrazine", "2-Chloro-4-ethylamineisopropylamine-s-triazine", "2-Chloro-4-ethylamino-6-isopropylamino-1,3,5-triazine", "1-Chloro-3-ethylamino-5-isopropylamino-2,4,6-triazine", "Hungazin PK", "Triazine A 1294", "Gesaprim", "Zeazin", "2-Ethylamino-4-isopropylamino-6-chloro-s-triazine", "Hungazin", "2-Chloro-4-(ethylamino)-6-(isopropylamino)-s-triazine", "Argezin", "Aktikon", "Aktikon PK", "Atrazin", "2-Chloro-4-(ethylamino)-6-(2-propylamino)-s-triazine", "Aktinit PK", "Cyazin", "Wonuk", "Primatol A", "2-Chloro-4-(ethylamino)-6-(isopropylamino)triazine", "Oleogesaprim", "Zeazine", "Chromozin", "Radazin", "Gesaprim 50", "Akticon", "Atrataf", "Zeapos", "CET", "Oleogesaprim 200", "Gesaprim 500", "Herbatoxol", "ATZ", "Zeopos", "6-Chloro-4-(ethylamino)-2-(isopropylamino)-s-triazine", "Gesaprim L", "Azoprim", "Azoprim 50", "AAtrex Nine-O", "AAtrex 4L", "AAtrex", "Gesamprim", "Zealin L", "Atranex", "Atranex 80WP", "Nu-Trazine", "Aatrex 4LC", "Radazin T", "NSC 163046", "Primoleo", "Atraphyt", "Atragranz", "Farmozine", "6-Chloro-N-Ethyl-N\u2032-(1-methylethyl)-1,3,5-triazine-2,4-diamine", "Atrasan", "Aatrex L", "Nortox 500SC", "2-Ethylamino-4-isopropylamino-6-chloro-1,3,5-triazine", "Atrazerba FL", "Atradex", "Aatrax", "Atanor 50 SC", "2-Chloro-6-ethylamino-4-isopropylamino-1,3,5-triazine", "Proof", "MeSH ID: D001280"], "SMILES": "N(C(C)C)C=1N=C(NCC)N=C(Cl)N1", "physical_data": {"Molecular Weight": "215.68", "Molecular Formula": "C8H14ClN5", "Melting Point": "175-177 \u00b0C", "Density": "1.23 g/cm\u00b3 @ Temp: 22 \u00b0C"}}