{"cas_no": "1912-26-1", "cn_name": "\u8349\u8fbe\u6d25", "en_name": ["Trietazine", "1,3,5-Triazine-2,4-diamine, 6-chloro-N2,N2,N4-triethyl-", "s-Triazine, 2-chloro-4-(diethylamino)-6-(ethylamino)-", "1,3,5-Triazine-2,4-diamine, 6-chloro-N,N,N\u2032-triethyl-", "6-Chloro-N2,N2,N4-triethyl-1,3,5-triazine-2,4-diamine", "G 27901", "2-Chloro-4-(diethylamino)-6-(ethylamino)-s-triazine", "2-Chloro-4-ethylamino-6-diethylamino-s-triazine", "Gesafloc", "Trietazine", "Triethazine", "2-Chloro-4-(diethylamino)-6-(ethylamino)-1,3,5-triazine", "2-Ethylamino-4-diethylamino-6-chlorotriazine", "NSC 13908", "NC 1667"], "SMILES": "N(CC)(CC)C=1N=C(NCC)N=C(Cl)N1", "physical_data": {"Molecular Weight": "229.71", "Molecular Formula": "C9H16ClN5", "Melting Point": "100-101 \u00b0C"}}