{"cas_no": "19139-31-2", "cn_name": "(2E)-2-\u4e01\u70ef\u4e8c\u9178\u4e8c\u5df1\u916f", "en_name": ["Dihexyl fumarate", "2-Butenedioic acid (2E)-, 1,4-dihexyl ester", "Fumaric acid, dihexyl ester", "2-Butenedioic acid (E)-, dihexyl ester", "2-Butenedioic acid (2E)-, dihexyl ester", "Dihexyl fumarate"], "SMILES": "C(C=CC(OCCCCCC)=O)(OCCCCCC)=O", "physical_data": {"Molecular Weight": "284.39", "Molecular Formula": "C16H28O4", "Boiling Point": "162-164 \u00b0C @ Press: 2 Torr", "Density": "0.9549 g/cm\u00b3 @ Temp: 23 \u00b0C"}}