{"cas_no": "191330-56-0", "cn_name": "(3R,4S)-1-(4-\u6c1f\u82ef\u57fa)-3-[3-(4-\u6c1f\u82ef\u57fa)-3-\u6c27\u4ee3\u4e19\u57fa]-4-(4-\u7f9f\u57fa\u82ef\u57fa)\u6c2e\u6742\u73af\u4e01\u70f7-2-\u916e", "en_name": ["(3R,4S)-1-(4-Fluorophenyl)-3-[3-(4-fluorophenyl)-3-oxopropyl]-4-(4-hydroxyphenyl)azetidin-2-one", "2-Azetidinone, 1-(4-fluorophenyl)-3-[3-(4-fluorophenyl)-3-oxopropyl]-4-(4-hydroxyphenyl)-, (3R,4S)-", "2-Azetidinone, 1-(4-fluorophenyl)-3-[3-(4-fluorophenyl)-3-oxopropyl]-4-(4-hydroxyphenyl)-, (3R-trans)-", "(3R,4S)-1-(4-Fluorophenyl)-3-[3-(4-fluorophenyl)-3-oxopropyl]-4-(4-hydroxyphenyl)-2-azetidinone", "(3R,4S)-1-(4-Fluorophenyl)-3-[3-(4-fluorophenyl)-3-oxopropyl]-4-(4-hydroxyphenyl)azetidin-2-one"], "SMILES": "C(CC(=O)C1=CC=C(F)C=C1)C2C(N(C2=O)C3=CC=C(F)C=C3)C4=CC=C(O)C=C4", "physical_data": {"Molecular Weight": "407.41", "Molecular Formula": "C24H19F2NO3", "Melting Point": "51-53 \u00b0C"}}