{"cas_no": "19131-99-8", "cn_name": "(S)-N-\u7532\u57fa-1-\u82ef\u57fa\u4e59\u80fa", "en_name": ["(\u03b1S)-N,\u03b1-Dimethylbenzenemethanamine", "Benzenemethanamine, N,\u03b1-dimethyl-, (\u03b1S)-", "Benzylamine, N,\u03b1-dimethyl-, (S)-(-)-", "Benzenemethanamine, N,\u03b1-dimethyl-, (S)-", "(\u03b1S)-N,\u03b1-Dimethylbenzenemethanamine", "S-(-)-N,\u03b1-Dimethylbenzylamine", "(S)-N-Methyl-1-phenylethylamine", "(S)-Methyl(1-phenylethyl)amine", "N-Methyl-(S)-\u03b1-phenylethylamine", "N-Methyl-(S)-1-phenylethylamine", "(S)-N,\u03b1-Dimethylbenzenemethanamine", "(S)-N,\u03b1-Dimethylbenzylamine", "(S)-(-)-N-Methyl-1-phenylethylamine", "(S)-\u03b1,N-Dimethylbenzylamine", "N-Methyl-N-[(1S)-1-phenylethyl]amine", "(1S)-N-Methyl-1-phenylethylamine", "N-Methyl-N-[(\u03b1S)-\u03b1-methylbenzyl]amine", "(S)-N-Methyl-\u03b1-methylbenzylamine", "(-)-(S)-\u03b1,N-Dimethylbenzylamine", "(S)-N-Methyl-1-phenylethanamine", "(1S)-N-Methyl-1-phenylethanamine", "(S)-N-Methyl-1-phenylethan-1-amine"], "SMILES": "C(NC)(C)C1=CC=CC=C1", "physical_data": {"Molecular Weight": "135.21", "Molecular Formula": "C9H13N", "Boiling Point": "86 \u00b0C @ Press: 20 Torr"}}