{"cas_no": "19130-96-2", "cn_name": "1-\u8131\u6c27\u91ce\u5c3b\u9709\u7d20", "en_name": ["Deoxynojirimycin", "3,4,5-Piperidinetriol, 2-(hydroxymethyl)-, (2R,3R,4R,5S)-", "Glucopyranose, 5-amino-1,5-dideoxy-, D-", "3,4,5-Piperidinetriol, 2-(hydroxymethyl)-, [2R-(2\u03b1,3\u03b2,4\u03b1,5\u03b2)]-", "(2R,3R,4R,5S)-2-(Hydroxymethyl)-3,4,5-piperidinetriol", "Nojirimycin, 1-deoxy-", "1-Deoxynojirimycin", "D-Glucitol, 1,5-dideoxy-1,5-imino-", "Moranoline", "5-Amino-1,5-dideoxy-D-glucopyranose", "Moranolin", "Deoxynojirimycin", "BAY-h 5595", "1,5-Dideoxy-1,5-imino-D-glucitol", "D-1-Deoxynojirimycin", "Duvoglustat"], "SMILES": "C(O)C1C(O)C(O)C(O)CN1", "physical_data": {"Molecular Weight": "163.17", "Molecular Formula": "C6H13NO4", "Melting Point": "204-205 \u00b0C"}}