{"cas_no": "1913-12-8", "cn_name": "N-\u53d4\u4e01\u6c27\u7fb0\u57fa-L-\u5929\u51ac\u6c28\u9178 4-\u53d4\u4e01\u916f\u4e8c\u73af\u5df1\u80fa\u76d0", "en_name": ["L-Aspartic acid, N-[(1,1-dimethylethoxy)carbonyl]-, 4-(1,1-dimethylethyl) ester, compd. with N-cyclohexylcyclohexanamine (1:1)", "L-Aspartic acid, N-[(1,1-dimethylethoxy)carbonyl]-, 4-(1,1-dimethylethyl) ester, compd. with N-cyclohexylcyclohexanamine (1:1)", "Aspartic acid, N-carboxy-, N,4-di-tert-butyl ester, compd. with dicyclohexylamine (1:1), L-", "Aspartic acid, N-carboxy-, N,4-di-tert-butyl ester, compd. with dicyclohexylamine"], "SMILES": "N(C1CCCCC1)C2CCCCC2.C(CC(OC(C)(C)C)=O)(NC(OC(C)(C)C)=O)C(O)=O", "physical_data": {"Molecular Weight": "", "Molecular Formula": "C13H23NO6.C12H23N", "Melting Point": "145-147 \u00b0C"}}