{"cas_no": "19132-06-0", "cn_name": "(2S,3S)-(+)-2,3-\u4e01\u4e8c\u9187", "en_name": ["(+)-2,3-Butanediol", "2,3-Butanediol, (2S,3S)-", "2,3-Butanediol, L-", "2,3-Butanediol, [S-(R*,R*)]-", "(2S,3S)-2,3-Butanediol", "(S,S)-2,3-Butanediol", "L-(+)-Butane-2,3-diol", "(+)-2,3-Butanediol", "(2S,3S)-(+)-2,3-Butanediol", "Dextro-2,3-Butanediol"], "SMILES": "C(C(C)O)(C)O", "physical_data": {"Molecular Weight": "90.12", "Molecular Formula": "C4H10O2", "Boiling Point": "180.5 \u00b0C", "Melting Point": "18.2 \u00b0C"}}