{"cas_no": "1914-60-9", "cn_name": "\u82ef\u5e76\u4e8c\u6c22\u544b\u5583-2-\u7fa7\u9178", "en_name": ["2,3-Dihydrobenzofuran-2-carboxylic acid", "2-Benzofurancarboxylic acid, 2,3-dihydro-", "Coumarilic acid, 2,3-dihydro-", "2,3-Dihydro-2-benzofurancarboxylic acid", "2,3-Dihydrocoumarilic acid", "2,3-Dihydrobenzofuran-2-carboxylic acid", "2,3-Dihydro-1-benzofuran-2-carboxylic acid"], "SMILES": "C(O)(=O)C1CC=2C(O1)=CC=CC2", "physical_data": {"Molecular Weight": "164.16", "Molecular Formula": "C9H8O3", "Melting Point": "116-117 \u00b0C"}}