{"cas_no": "1914-58-5", "cn_name": "4-\u82ef\u57fa-3-\u4e01\u70ef\u9178", "en_name": ["(3E)-4-Phenyl-3-butenoic acid", "3-Butenoic acid, 4-phenyl-, (3E)-", "3-Butenoic acid, 4-phenyl-, (E)-", "(3E)-4-Phenyl-3-butenoic acid", "trans-Styrylacetic acid", "(E)-4-Phenyl-3-butenoic acid", "NSC 172584", "(3E)-4-Phenylbut-3-enoic acid"], "SMILES": "C(=CCC(O)=O)C1=CC=CC=C1", "physical_data": {"Molecular Weight": "162.19", "Molecular Formula": "C10H10O2", "Melting Point": "78-80 \u00b0C"}}