{"cas_no": "19145-96-1", "cn_name": "\u53cd-1,4-\u73af\u5df1\u70f7\u4e8c\u7fa7\u9178\u4e8c\u4e59\u916f", "en_name": ["1,4-Diethyl trans-1,4-cyclohexanedicarboxylate", "1,4-Cyclohexanedicarboxylic acid, 1,4-diethyl ester, trans-", "1,4-Cyclohexanedicarboxylic acid, diethyl ester, trans-", "1,4-Diethyl trans-1,4-cyclohexanedicarboxylate", "trans-Cyclohexane-1,4-dicarboxylic acid diethyl ester"], "SMILES": "C(OCC)(=O)C1CCC(C(OCC)=O)CC1", "physical_data": {"Molecular Weight": "228.28", "Molecular Formula": "C12H20O4", "Melting Point": "46-46.8 \u00b0C"}}