{"cas_no": "19141-40-3", "cn_name": "(R)-2-\u82ef\u57fa-1-\u4e19\u9187", "en_name": ["(+)-2-Phenyl-1-propanol", "Benzeneethanol, \u03b2-methyl-, (\u03b2R)-", "Phenethyl alcohol, \u03b2-methyl-, (R)-(+)-", "Benzeneethanol, \u03b2-methyl-, (R)-", "Phenethyl alcohol, \u03b2-methyl-, (+)-", "(\u03b2R)-\u03b2-Methylbenzeneethanol", "(2R)-2-Phenyl-1-propanol", "(R)-(+)-\u03b2-Methylphenethyl alcohol", "(+)-2-Phenyl-1-propanol", "(R)-(+)-2-Phenyl-1-propanol", "(+)-\u03b2-Methylbenzeneethanol", "(R)-2-Phenylpropanol", "(R)-2-Phenyl-1-propanol", "(+)-2-Phenylpropanol", "(2R)-2-Phenylpropan-1-ol", "(R)-(+)-2-Phenyl-1-propanol"], "SMILES": "C(CO)(C)C1=CC=CC=C1", "physical_data": {"Molecular Weight": "136.19", "Molecular Formula": "C9H12O", "Boiling Point": "115 \u00b0C @ Press: 17 Torr"}}