{"cas_no": "19156-50-4", "cn_name": "5-\u7532\u57fa\u567b\u5429-3-\u7532\u9178", "en_name": ["5-Methyl-3-thiophenecarboxylic acid", "3-Thiophenecarboxylic acid, 5-methyl-", "5-Methyl-3-thiophenecarboxylic acid", "2-Methyl-4-thiophenecarboxylic acid", "5-Methylthiophene-3-carboxylic acid"], "SMILES": "C(O)(=O)C=1C=C(C)SC1", "physical_data": {"Molecular Weight": "142.18", "Molecular Formula": "C6H6O2S", "Melting Point": "131-132 \u00b0C"}}