{"cas_no": "191546-97-1", "cn_name": "\u7c73\u6c2e\u5e73\u6742\u8d28F", "en_name": ["1,3,4,14b-Tetrahydro-2-methylpyrazino[2,1-a]pyrido[2,3-c][2]benzazepin-10(2H)-one", "Pyrazino[2,1-a]pyrido[2,3-c][2]benzazepin-10(2H)-one, 1,3,4,14b-tetrahydro-2-methyl-", "1,3,4,14b-Tetrahydro-2-methylpyrazino[2,1-a]pyrido[2,3-c][2]benzazepin-10(2H)-one"], "SMILES": "CN1CC2N(C=3C(C(=O)C=4C2=CC=CC4)=CC=CN3)CC1", "physical_data": {"Molecular Weight": "279.34", "Molecular Formula": "C17H17N3O", "Melting Point": "155-156 \u00b0C"}}