{"cas_no": "19152-93-3", "cn_name": "\u6c28\u82ef\u8776\u5576\u6742\u8d28C", "en_name": ["2,4-Diamino-6-phenyl-7(8H)-pteridinone", "7(8H)-Pteridinone, 2,4-diamino-6-phenyl-", "7-Pteridinol, 2,4-diamino-6-phenyl-", "7(1H)-Pteridinone, 2,4-diamino-6-phenyl-", "2,4-Diamino-6-phenyl-7(8H)-pteridinone", "2,4-Diamino-7-hydroxy-6-phenylpteridine", "NSC 33416", "2,4-Diamino-6-phenyl-8H-pteridin-7-one", "2,4-Diamino-6-phenyl-7-pteridinol"], "SMILES": "NC1=C2C(NC(=O)C(=N2)C3=CC=CC=C3)=NC(N)=N1", "physical_data": {"Molecular Weight": "254.25", "Molecular Formula": "C12H10N6O", "Melting Point": "406-408 \u00b0C (decomp)"}}