{"cas_no": "19158-51-1", "cn_name": "4-\u7532\u82ef\u78fa\u9170\u6c30", "en_name": ["4-Methylbenzenesulfonyl cyanide", "Benzenesulfonyl cyanide, 4-methyl-", "p-Toluenesulfonyl cyanide", "4-Methylbenzenesulfonyl cyanide", "Tosyl cyanide", "p-Tolylsulfonyl cyanide", "4-Toluenesulfonyl cyanide", "(4-Methylphenyl)sulfonylformonitrile"], "SMILES": "S(C#N)(=O)(=O)C1=CC=C(C)C=C1", "physical_data": {"Molecular Weight": "181.21", "Molecular Formula": "C8H7NO2S", "Melting Point": "46-48 \u00b0C"}}