{"cas_no": "19156-63-9", "cn_name": "2-\u6c28\u57fa-5-\u4e59\u57fa\u567b\u5429-3-\u7532\u9178\u7532\u916f", "en_name": ["2-Amino-5-ethyl-3-thiophenecarboxylic acid methyl ester", "3-Thiophenecarboxylic acid, 2-amino-5-ethyl-, methyl ester", "Methyl 5-ethyl-2-amino-thiophene-3-carboxylate", "Methyl 2-amino-5-ethyl-3-thiophenecarboxylate", "2-Amino-5-ethyl-3-thiophenecarboxylic acid methyl ester"], "SMILES": "C(OC)(=O)C1=C(N)SC(CC)=C1", "physical_data": {"Molecular Weight": "185.24", "Molecular Formula": "C8H11NO2S", "Melting Point": "62 \u00b0C"}}