{"cas_no": "19152-36-4", "cn_name": "2'-\u7f9f\u57fa-3,4-\u4e8c\u7532\u6c27\u57fa\u67e5\u8033\u916e", "en_name": ["2\u2032-Hydroxy-3,4-dimethoxychalcone", "2-Propen-1-one, 3-(3,4-dimethoxyphenyl)-1-(2-hydroxyphenyl)-", "Chalcone, 2\u2032-hydroxy-3,4-dimethoxy-", "3-(3,4-Dimethoxyphenyl)-1-(2-hydroxyphenyl)-2-propen-1-one", "2\u2032-Hydroxy-3,4-dimethoxychalcone", "2-[3-(3,4-Dimethoxyphenyl)-2-propenoyl]phenol", "3-(3,4-Dimethoxyphenyl)-1-(2\u2032-hydroxyphenyl)-2-propene-1-one", "3,4-Dimethoxy-2\u2032-hydroxychalcone"], "SMILES": "O(C)C1=C(OC)C=CC(C=CC(=O)C2=C(O)C=CC=C2)=C1", "physical_data": {"Molecular Weight": "284.31", "Molecular Formula": "C17H16O4", "Melting Point": "114-115 \u00b0C"}}