{"cas_no": "191605-10-4", "cn_name": "D-(+)-\u4e8c\u5bf9\u7532\u6c27\u57fa\u82ef\u7532\u9170\u9152\u77f3\u9178", "en_name": ["(S,S)-Di-p-anisoyltartaric acid", "Butanedioic acid, 2,3-bis[(4-methoxybenzoyl)oxy]-, (2S,3S)-", "Butanedioic acid, 2,3-bis[(4-methoxybenzoyl)oxy]-, [S-(R*,R*)]-", "(2S,3S)-2,3-Bis[(4-methoxybenzoyl)oxy]butanedioic acid", "(S,S)-Di-p-anisoyltartaric acid", "(2S,3S)-(+)-Di(p-anisoyl)tartaric acid", "Di(+)-(p-anisoyl)-D-tartrate"], "SMILES": "C(C(OC(=O)C1=CC=C(OC)C=C1)C(O)=O)(OC(=O)C2=CC=C(OC)C=C2)C(O)=O", "physical_data": {"Molecular Weight": "418.35", "Molecular Formula": "C20H18O10", "Melting Point": "186 \u00b0C"}}