{"cas_no": "1916-59-2", "cn_name": "2-AMINO-3H-PHENOXAZIN-3-ONE", "en_name": ["2-Aminophenoxazin-3-one", "3H-Phenoxazin-3-one, 2-amino-", "2-Amino-3H-phenoxazin-3-one", "Questiomycin A", "2-Aminophenoxazin-3-one", "2-Aminophenoxazon", "2-Amino-3-phenoxazone", "2-Aminophenoxazone", "AV Toxin C", "Acrospermumviticola toxin C", "NSC 94945", "Isophenoxazine"], "SMILES": "NC1=CC=2C(OC=3C(N2)=CC=CC3)=CC1=O", "physical_data": {"Molecular Weight": "212.20", "Molecular Formula": "C12H8N2O2", "Melting Point": "249-250 \u00b0C"}}