{"cas_no": "1916-08-1", "cn_name": "3,4-\u4e8c\u7532\u6c27\u57fa-5-\u7f9f\u57fa\u82ef\u7532\u9178", "en_name": ["3-Hydroxy-4,5-dimethoxybenzoic acid", "Benzoic acid, 3-hydroxy-4,5-dimethoxy-", "Veratric acid, 5-hydroxy-", "3-Hydroxy-4,5-dimethoxybenzoic acid", "Gallic acid, 3,4-dimethyl ether", "3,4-Dimethoxy-5-hydroxybenzoic acid", "5-Hydroxy-3,4-dimethoxybenzoic acid", "NSC 19885", "3,4-O-Dimethylgallic acid"], "SMILES": "O(C)C1=C(OC)C=C(C(O)=O)C=C1O", "physical_data": {"Molecular Weight": "198.17", "Molecular Formula": "C9H10O5", "Melting Point": "194-195 \u00b0C"}}