{"cas_no": "1916-07-0", "cn_name": "3,4,5-\u4e09\u7532\u6c27\u57fa\u82ef\u7532\u9178\u7532\u916f", "en_name": ["Methyl 3,4,5-trimethoxybenzoate", "Benzoic acid, 3,4,5-trimethoxy-, methyl ester", "Methyl 3,4,5-trimethoxybenzoate", "Trimethylgallic acid methyl ester", "3,4,5-Trimethoxybenzoic acid methyl ester", "Methyl tri-O-methylgallate", "Methyl gallate trimethyl ether", "Methyl eudesmate", "NSC 16955"], "SMILES": "O(C)C1=C(OC)C=C(C(OC)=O)C=C1OC", "physical_data": {"Molecular Weight": "226.23", "Molecular Formula": "C11H14O5", "Boiling Point": "118-120 \u00b0C @ Press: 0.1 Torr", "Melting Point": "82-83 \u00b0C"}}