{"cas_no": "19179-36-3", "cn_name": "3,5-\u4e8c\u7f9f\u57fa\u82ef\u7532\u8148", "en_name": ["3,5-Dihydroxybenzonitrile", "Benzonitrile, 3,5-dihydroxy-", "\u03b1-Resorcylonitrile", "3,5-Dihydroxybenzonitrile", "5-Cyanoresorcinol"], "SMILES": "C(#N)C1=CC(O)=CC(O)=C1", "physical_data": {"Molecular Weight": "135.12", "Molecular Formula": "C7H5NO2", "Melting Point": "154-156 \u00b0C"}}