{"cas_no": "19171-18-7", "cn_name": "4-\u785d\u57fa\u6c99\u5229\u5ea6\u80fa", "en_name": ["2-(2,6-Dioxo-3-piperidinyl)-4-nitro-1H-isoindole-1,3(2H)-dione", "1H-Isoindole-1,3(2H)-dione, 2-(2,6-dioxo-3-piperidinyl)-4-nitro-", "Phthalimide, N-(2,6-dioxo-3-piperidyl)-3-nitro-", "2-(2,6-Dioxo-3-piperidinyl)-4-nitro-1H-isoindole-1,3(2H)-dione", "4-Nitrothalidomide", "2-(2,6-Dioxopiperidin-3-yl)-4-nitro-isoindole-1,3-dione", "4-Nitro-2-(2,6-dioxopiperidin-3-yl)isoindoline-1,3-dione", "2-(2,6-Dioxopiperidin-3-yl)-4-nitroisoindoline-1,3-dione", "EC1-078"], "SMILES": "O=C1C=2C(C(=O)N1C3C(=O)NC(=O)CC3)=CC=CC2N(=O)=O", "physical_data": {"Molecular Weight": "303.23", "Molecular Formula": "C13H9N3O6", "Melting Point": "&gt;250 \u00b0C"}}