{"cas_no": "19179-31-8", "cn_name": "3,5-\u4e8c\u7532\u6c27\u57fa\u82ef\u8148", "en_name": ["3,5-Dimethoxybenzonitrile", "Benzonitrile, 3,5-dimethoxy-", "3,5-Dimethoxybenzonitrile", "NSC 73710", "1-(Cyanomethyl)-3,5-dimethoxybenzene"], "SMILES": "C(#N)C1=CC(OC)=CC(OC)=C1", "physical_data": {"Molecular Weight": "163.17", "Molecular Formula": "C9H9NO2", "Melting Point": "87-88 \u00b0C"}}