{"cas_no": "1917-44-8", "cn_name": "2,4-\u4e8c\u82ef\u57fa-6-\u7f9f\u57fa-1,3,5-\u4e09\u55ea", "en_name": ["4,6-Diphenyl-1,3,5-triazin-2(1H)-one", "1,3,5-Triazin-2(1H)-one, 4,6-diphenyl-", "s-Triazin-2(1H)-one, 4,6-diphenyl-", "4,6-Diphenyl-1,3,5-triazin-2(1H)-one", "2,4-Diphenyl-6-hydroxy-s-triazine", "2-Hydroxy-4,6-diphenyl-s-triazine", "NSC 288740", "2-Hydroxy-4,6-diphenyl-1,3,5-triazine", "2,6-Diphenyl-1H-1,3,5-triazin-4-one"], "SMILES": "O=C1N=C(NC(=N1)C2=CC=CC=C2)C3=CC=CC=C3", "physical_data": {"Molecular Weight": "249.27", "Molecular Formula": "C15H11N3O", "Melting Point": "295 \u00b0C"}}