{"cas_no": "1917-64-2", "cn_name": "5-\u7532\u6c27\u57fa\u7532\u57fa-2-\u544b\u5583\u7532\u919b", "en_name": ["5-Methoxymethylfurfural", "2-Furancarboxaldehyde, 5-(methoxymethyl)-", "2-Furaldehyde, 5-(methoxymethyl)-", "5-(Methoxymethyl)-2-furancarboxaldehyde", "5-Methoxymethylfurfural", "5-Methoxymethyl-2-furaldehyde"], "SMILES": "C(OC)C=1OC(C=O)=CC1", "physical_data": {"Molecular Weight": "140.14", "Molecular Formula": "C7H8O3", "Boiling Point": "68-70 \u00b0C @ Press: 2 Torr", "Melting Point": "-8 \u00b0C", "Density": "1.146 g/cm\u00b3 @ Temp: 17.9 \u00b0C"}}