{"cas_no": "191732-72-6", "cn_name": "\u6765\u90a3\u5ea6\u80fa", "en_name": ["Lenalidomide", "2,6-Piperidinedione, 3-(4-amino-1,3-dihydro-1-oxo-2H-isoindol-2-yl)-", "3-(4-Amino-1,3-dihydro-1-oxo-2H-isoindol-2-yl)-2,6-piperidinedione", "3-(4-Amino-1-oxoisoindolin-2-yl)piperidine-2,6-dione", "Revimid", "CC 5013", "CDC 501", "Lenalidomide", "Revlimid", "1-Oxo-4-amino-2-(2,6-dioxopiperidin-3-yl)isoindole", "3-(4-Amino-1-oxoisoindolin-2-yl)piperidin-2,6-dione", "ENMD 0997", "IMiD 3", "revlMiD", "R-Revlimid"], "SMILES": "O=C1N(CC=2C1=CC=CC2N)C3C(=O)NC(=O)CC3", "physical_data": {"Molecular Weight": "259.26", "Molecular Formula": "C13H13N3O3", "Melting Point": "265-267 \u00b0C"}}