{"cas_no": "191744-13-5", "cn_name": "2,3,6A,7,8,9-\u516d\u6c22-11H-1,4-\u4e8c\u6076\u70f7\u5e76[2,3-G]\u5421\u54af\u5e76[2,1-B][1,3]\u82ef\u5e76\u6076\u55ea-11-\u916e", "en_name": ["2,3,6a,7,8,9-Hexahydro-11H-1,4-dioxino[2,3-g]pyrrolo[2,1-b][1,3]benzoxazin-11-one", "11H-1,4-Dioxino[2,3-g]pyrrolo[2,1-b][1,3]benzoxazin-11-one, 2,3,6a,7,8,9-hexahydro-", "2,3,6a,7,8,9-Hexahydro-11H-1,4-dioxino[2,3-g]pyrrolo[2,1-b][1,3]benzoxazin-11-one", "BDP 37", "CX 614", "LiD 37"], "SMILES": "O=C1C=2C(OC3N1CCC3)=CC4=C(C2)OCCO4", "physical_data": {"Molecular Weight": "247.25", "Molecular Formula": "C13H13NO4", "Melting Point": "155-158 \u00b0C"}}