{"cas_no": "19172-47-5", "cn_name": "\u52b3\u68ee\u8bd5\u5242", "en_name": ["Lawesson's reagent", "1,3,2,4-Dithiadiphosphetane, 2,4-bis(4-methoxyphenyl)-, 2,4-disulfide", "Phosphonotrithioic acid, (p-methoxyphenyl)-, bimol. cyclic anhydrosulfide", "p-Anisyldithiophosphonic anhydride", "2,4-Bis(p-methoxyphenyl)-1,3,2,4-dithiadiphosphetane 2,4-disulfide", "Lawesson's reagent", "2,4-Bis(4-methoxyphenyl)-1,3-dithia-2,4-diphosphetane 2,4-disulfide", "Reagents, Lawesson's", "2,4-Di(p-methoxyphenyl)-1,3-dithiadiphosphetane disulfide", "NSC 150550", "2,4-Bis(4-methoxyphenyl)-2,4-dithioxo-1,3,2,4-dithiadiphosphetane", "2,4-Bis(4-methoxyphenyl)-1,3,2,4-dithiadiphosphetane-2,4-disulfide", "Lawesson reagent", "2,4-(4-Methoxyphenyl)-1,3,2,4-dithiadiphosphetane-2,4-disulfide", "2,4-Bis(4-methoxyphenyl)-1,3,2,4-dithiadiphosphetan-2,4-disulfide"], "SMILES": "S=P1(SP(=S)(S1)C2=CC=C(OC)C=C2)C3=CC=C(OC)C=C3", "physical_data": {"Molecular Weight": "404.47", "Molecular Formula": "C14H14O2P2S4", "Melting Point": "229 \u00b0C"}}