{"cas_no": "19171-19-8", "cn_name": "\u6cca\u9a6c\u5ea6\u80fa", "en_name": ["Pomalidomide", "1H-Isoindole-1,3(2H)-dione, 4-amino-2-(2,6-dioxo-3-piperidinyl)-", "Phthalimide, 3-amino-N-(2,6-dioxo-3-piperidyl)-", "4-Amino-2-(2,6-dioxo-3-piperidinyl)-1H-isoindole-1,3(2H)-dione", "4-Amino-2-(2,6-dioxo-3-piperidyl)isoindoline-1,3-dione", "CC 4047", "Actimid", "4-Amino-2-(2,6-dioxo-3-piperidinyl)isoindole-1,3-dione", "Pomalidomide", "4-Amino-2-(2,6-dioxopiperidine-3-yl)isoindoline-1,3-dione", "2-(2,6-Dioxopiperidin-3-yl)-4-amino-isoindole-1,3-dione", "4-Amino-2-(2,6-dioxopiperidin-3-yl)isoindoline-1,3-dione", "Pomalyst", "Imnovid"], "SMILES": "O=C1N(C(=O)C=2C1=CC=CC2N)C3C(=O)NC(=O)CC3", "physical_data": {"Molecular Weight": "273.24", "Molecular Formula": "C13H11N3O4", "Melting Point": "&gt;250 \u00b0C"}}