{"cas_no": "1918-02-1", "cn_name": "4-\u6c28\u57fa-3,5,6-\u4e09\u6c2f\u5421\u5576\u7fa7\u9178", "en_name": ["Picloram", "2-Pyridinecarboxylic acid, 4-amino-3,5,6-trichloro-", "Picolinic acid, 4-amino-3,5,6-trichloro-", "4-Amino-3,5,6-trichloro-2-pyridinecarboxylic acid", "4-Amino-3,5,6-trichloropicolinic acid", "4-Amino-3,5,6-trichloro-2-picolinic acid", "ATCP", "Picloram", "Tordon", "3,5,6-Trichloro-4-aminopicolinic acid", "4-Aminotrichloropicolinic acid", "4-Amino-3,5,6-trichloropyridine-2-carboxylic acid", "Grazon PC", "NSC 233899", "Padron", "Padron (herbicide)", "MeSH ID: D010846"], "SMILES": "C(O)(=O)C1=C(Cl)C(N)=C(Cl)C(Cl)=N1", "physical_data": {"Molecular Weight": "241.46", "Molecular Formula": "C6H3Cl3N2O2", "Melting Point": "218.5 \u00b0C"}}