{"cas_no": "1918-18-9", "cn_name": "\u706d\u8349\u7075", "en_name": ["Methyl N-(3,4-dichlorophenyl)carbamate", "Carbamic acid, N-(3,4-dichlorophenyl)-, methyl ester", "Carbanilic acid, 3,4-dichloro-, methyl ester", "Carbamic acid, (3,4-dichlorophenyl)-, methyl ester", "NIA 2995", "MCC (herbicide)", "Methyl 3,4-dichlorocarbanilate", "Methyl N-(3,4-dichlorophenyl)carbamate", "Swep", "Methyl 3,4-dichlorophenylcarbamate", "MCC", "3,4-Dichlorophenylcarbamic acid methyl ester"], "SMILES": "N(C(OC)=O)C1=CC(Cl)=C(Cl)C=C1", "physical_data": {"Molecular Weight": "220.05", "Molecular Formula": "C8H7Cl2NO2", "Melting Point": "112-114 \u00b0C"}}