{"cas_no": "19186-35-7", "cn_name": "\u53bb\u6c27\u9b3c\u81fc\u8102\u7d20", "en_name": ["(-)-Deoxypodophyllotoxin", "Furo[3\u2032,4\u2032:6,7]naphtho[2,3-d]-1,3-dioxol-6(5aH)-one, 5,8,8a,9-tetrahydro-5-(3,4,5-trimethoxyphenyl)-, (5R,5aR,8aR)-", "Podophyllotoxin, deoxy-", "Furo[3\u2032,4\u2032:6,7]naphtho[2,3-d]-1,3-dioxol-6(5aH)-one, 5,8,8a,9-tetrahydro-5-(3,4,5-trimethoxyphenyl)-, [5R-(5\u03b1,5a\u03b2,8a\u03b1)]-", "(5R,5aR,8aR)-5,8,8a,9-Tetrahydro-5-(3,4,5-trimethoxyphenyl)furo[3\u2032,4\u2032:6,7]naphtho[2,3-d]-1,3-dioxol-6(5aH)-one", "Deoxypodophyllotoxin", "Desoxypodophyllotoxin", "Anthricin", "Silicicolin", "4-Deoxypodophyllotoxin", "(-)-Deoxypodophyllotoxin", "(-)-Anthricin", "AS 2-3", "(-)-Desoxypodophyllotoxin"], "SMILES": "O=C1C2C(C=3C(CC2CO1)=CC4=C(C3)OCO4)C5=CC(OC)=C(OC)C(OC)=C5", "physical_data": {"Molecular Weight": "398.41", "Molecular Formula": "C22H22O7", "Melting Point": "168 \u00b0C"}}