{"cas_no": "1918-00-9", "cn_name": "\u9ea6\u8349\u754f", "en_name": ["Dicamba", "Benzoic acid, 3,6-dichloro-2-methoxy-", "o-Anisic acid, 3,6-dichloro-", "3,6-Dichloro-2-methoxybenzoic acid", "Dicamba", "3,6-Dichloro-o-anisic acid", "2,5-Dichloro-6-methoxybenzoic acid", "Mediben", "2-Methoxy-3,6-dichlorobenzoic acid", "Velsicol Compound R", "Velsicol 58CS11", "Dianat", "MDBA", "Banvel", "Banvel SGF", "Vanquish", "Banvel 70WP", "DC", "Aviator", "Celebrity B", "Mais Banvel WG", "MeSH ID: D003996"], "SMILES": "C(O)(=O)C1=C(OC)C(Cl)=CC=C1Cl", "physical_data": {"Molecular Weight": "221.04", "Molecular Formula": "C8H6Cl2O3", "Melting Point": "114-116 \u00b0C", "Density": "1.57 g/cm\u00b3 @ Temp: 25 \u00b0C"}}