{"cas_no": "19186-97-1", "cn_name": "\u4e09(\u4e09\u6eb4\u65b0\u620a\u57fa)\u78f7\u9178\u916f", "en_name": ["Tris(tribromoneopentyl) phosphate", "1-Propanol, 3-bromo-2,2-bis(bromomethyl)-, 1,1\u2032,1\u2032\u2032-phosphate", "1-Propanol, 3-bromo-2,2-bis(bromomethyl)-, phosphate (3:1)", "Tris[3-bromo-2,2-bis(bromomethyl)propyl] phosphate", "Tris[2,2-bis(bromomethyl)-3-bromopropyl] phosphate", "CR 900", "Tris(tribromoneopentyl) phosphate", "Flame Cut 175R", "TPB 3070", "Flame Cut 175", "Kronitex PB 370", "PB 370", "FR 370", "FR 372", "Reoflam FR 370", "TexFRon 3000", "FR 680", "SR 370"], "SMILES": "C(COP(OCC(CBr)(CBr)CBr)(OCC(CBr)(CBr)CBr)=O)(CBr)(CBr)CBr", "physical_data": {"Molecular Weight": "1018.46", "Molecular Formula": "C15H24Br9O4P", "Melting Point": "172-173 \u00b0C"}}