{"cas_no": "19184-65-7", "cn_name": "2-(\u6eb4\u7532\u57fa)-2-(\u7f9f\u7532\u57fa)-1,3-\u4e19\u4e8c\u9187", "en_name": ["2-(Bromomethyl)-2-(hydroxymethyl)-1,3-propanediol", "1,3-Propanediol, 2-(bromomethyl)-2-(hydroxymethyl)-", "2-(Bromomethyl)-2-(hydroxymethyl)-1,3-propanediol", "Tris(hydroxymethyl)(bromomethyl)methane", "Pentaerythritol monobromohydrin", "Monobromoneopentyl triol", "Monobromopentaerythritol", "Pentaerythritol monobromide", "2,2-Bis(hydroxymethyl)-3-hydroxypropyl bromide", "NSC 151735"], "SMILES": "C(CBr)(CO)(CO)CO", "physical_data": {"Molecular Weight": "199.04", "Molecular Formula": "C5H11BrO3", "Melting Point": "75-77 \u00b0C"}}