{"cas_no": "191868-14-1", "cn_name": "N-[(1R)-1-[[[[4-[[(Aminocarbonyl)amino]methyl]phenyl]methyl]amino]carbonyl]-4-[(aminoiminomethyl)amino]butyl]-\u03b1-phenyl-benzeneacetamideditrifluoroacetate", "en_name": ["N-[(1R)-1-[[[[4-[[(Aminocarbonyl)amino]methyl]phenyl]methyl]amino]carbonyl]-4-[(aminoiminomethyl)amino]butyl]-\u03b1-phenylbenzeneacetamide 2,2,2-trifluoroacetate (1:1)", "Benzeneacetamide, N-[(1R)-1-[[[[4-[[(aminocarbonyl)amino]methyl]phenyl]methyl]amino]carbonyl]-4-[(aminoiminomethyl)amino]butyl]-\u03b1-phenyl-, 2,2,2-trifluoroacetate (1:1)", "Benzeneacetamide, N-[1-[[[[4-[[(aminocarbonyl)amino]methyl]phenyl]methyl]amino]carbonyl]-4-[(aminoiminomethyl)amino]butyl]-\u03b1-phenyl-, (R)-, mono(trifluoroacetate)", "Benzeneacetamide, N-[(1R)-1-[[[[4-[[(aminocarbonyl)amino]methyl]phenyl]methyl]amino]carbonyl]-4-[(aminoiminomethyl)amino]butyl]-\u03b1-phenyl-, mono(trifluoroacetate)", "N-[(1R)-1-[[[[4-[[(Aminocarbonyl)amino]methyl]phenyl]methyl]amino]carbonyl]-4-[(aminoiminomethyl)amino]butyl]-\u03b1-phenylbenzeneacetamide 2,2,2-trifluoroacetate (1:1)", "BIBO 3304"], "SMILES": "C(C(O)=O)(F)(F)F.C(C(NC(C(NCC1=CC=C(CNC(N)=O)C=C1)=O)CCCNC(=N)N)=O)(C2=CC=CC=C2)C3=CC=CC=C3", "physical_data": {"Molecular Weight": "", "Molecular Formula": "C29H35N7O3.C2HF3O2", "Melting Point": "&gt;60 \u00b0C (decomp)"}}