{"cas_no": "1918-13-4", "cn_name": "\u8d5b\u8349\u9752", "en_name": ["Chlorthiamid", "Benzenecarbothioamide, 2,6-dichloro-", "Benzamide, 2,6-dichlorothio-", "2,6-Dichlorobenzenecarbothioamide", "SD 7961", "Chlorthiamid", "2,6-Dichlorothiobenzamide", "Prefix", "Chlorthiamide", "DCBN", "Prefix (chlorthiamid)", "2,6-Dichlorobenzene-1-carbothioamide"], "SMILES": "C(N)(=S)C1=C(Cl)C=CC=C1Cl", "physical_data": {"Molecular Weight": "206.09", "Molecular Formula": "C7H5Cl2NS", "Melting Point": "151 \u00b0C"}}