{"cas_no": "1918-82-7", "cn_name": "2-\u4e59\u70ef\u57fa\u567b\u5429", "en_name": ["2-Vinylthiophene", "Thiophene, 2-ethenyl-", "Thiophene, 2-vinyl-", "2-Ethenylthiophene", "2-Vinylthiophene", "Thien-2-ylethene"], "SMILES": "C(=C)C1=CC=CS1", "physical_data": {"Molecular Weight": "110.18", "Molecular Formula": "C6H6S", "Boiling Point": "62-63 \u00b0C @ Press: 50 Torr", "Density": "1.044 g/cm\u00b3 @ Temp: 20 \u00b0C"}}