{"cas_no": "1918-79-2", "cn_name": "5-\u7532\u57fa-2-\u567b\u5429\u7532\u9178", "en_name": ["5-Methyl-2-thiophenecarboxylic acid", "2-Thiophenecarboxylic acid, 5-methyl-", "5-Methyl-2-thiophenecarboxylic acid", "2-Carboxy-5-methylthiophene", "2-Methyl-5-thiophenecarboxylic acid", "NSC 89698"], "SMILES": "C(O)(=O)C=1SC(C)=CC1", "physical_data": {"Molecular Weight": "142.18", "Molecular Formula": "C6H6O2S", "Melting Point": "138-139 \u00b0C"}}