{"cas_no": "1918-16-7", "cn_name": "\u6bd2\u8349\u5b89", "en_name": ["Propachlor", "Acetamide, 2-chloro-N-(1-methylethyl)-N-phenyl-", "Acetanilide, 2-chloro-N-isopropyl-", "2-Chloro-N-(1-methylethyl)-N-phenylacetamide", "CP 31393", "2-Chloro-N-isopropylacetanilide", "N-Isopropyl-\u03b1-chloroacetanilide", "Ramrod 65", "Propachlore", "Propachlor", "Ramrod", "\u03b1-Chloro-N-isopropylacetanilide", "N-Isopropyl-2-chloroacetanilide", "Satecid", "2-Chloro-N-isopropyl-N-phenylacetamide", "Niticid", "Bexton 4L", "Bexton", "Kartex A", "Acilid", "Muharicid", "Albrass", "Ramrod Flo"], "SMILES": "N(C(CCl)=O)(C(C)C)C1=CC=CC=C1", "physical_data": {"Molecular Weight": "211.69", "Molecular Formula": "C11H14ClNO", "Boiling Point": "110 \u00b0C @ Press: 0.03 Torr", "Melting Point": "67-76 \u00b0C", "Density": "1.242 g/cm\u00b3 @ Temp: 25 \u00b0C"}}