{"cas_no": "19181-54-5", "cn_name": "8-\u7532\u57fa-4-\u55b9\u5511\u916e", "en_name": ["8-Methyl-4(3H)-quinazolinone", "4(3H)-Quinazolinone, 8-methyl-", "4(1H)-Quinazolinone, 8-methyl-", "8-Methyl-4(3H)-quinazolinone", "8-Methylquinazolin-4(3H)-one"], "SMILES": "O=C1C=2C(=C(C)C=CC2)NC=N1", "physical_data": {"Molecular Weight": "160.17", "Molecular Formula": "C9H8N2O", "Melting Point": "247 \u00b0C"}}