{"cas_no": "1918-77-0", "cn_name": "2-\u567b\u5429\u4e59\u9178", "en_name": ["2-Thiopheneacetic acid", "2-Thiopheneacetic acid", "2-Thienylacetic acid", "2-(2-Thienyl)acetic acid", "Thiophen-2-ylacetic acid", "2-Thienylethanoic acid", "2-(Thiophen-2-yl)acetic acid", "2-(Thien-2-yl)acetic acid"], "SMILES": "C(C(O)=O)C1=CC=CS1", "physical_data": {"Molecular Weight": "142.18", "Molecular Formula": "C6H6O2S", "Melting Point": "75-76 \u00b0C"}}