{"cas_no": "19186-33-5", "cn_name": "\u8292\u96f7\u7d20", "en_name": ["Aristeromycin", "1,2-Cyclopentanediol, 5-(6-amino-9H-purin-9-yl)-3-(hydroxymethyl)-, (1S,2R,3R,5R)-", "1,2-Cyclopentanediol, 3-(6-amino-9H-purin-9-yl)-5-(hydroxymethyl)-, (1R,2S,3R,5R)-", "1,2-Cyclopentanediol, 3-(6-amino-9H-purin-9-yl)-5-(hydroxymethyl)-, [1R-(1\u03b1,2\u03b1,3\u03b2,5\u03b2)]-", "(1S,2R,3R,5R)-5-(6-Amino-9H-purin-9-yl)-3-(hydroxymethyl)-1,2-cyclopentanediol", "Aristeromycin", "Cycloadenosine", "Carbocyclic adenosine", "C-Adenosine", "(-)-Aristeromycin", "1\u2032a-Carbaadenosine", "NSC 103526"], "SMILES": "OC1C(N2C=3C(N=C2)=C(N)N=CN3)CC(CO)C1O", "physical_data": {"Molecular Weight": "265.27", "Molecular Formula": "C11H15N5O3", "Melting Point": "213-215 \u00b0C (decomp)"}}