{"cas_no": "1918-11-2", "cn_name": "\u7279\u8349\u7075", "en_name": ["Terbucarb", "Phenol, 2,6-bis(1,1-dimethylethyl)-4-methyl-, 1-(N-methylcarbamate)", "Carbamic acid, methyl-, 2,6-di-tert-butyl-p-tolyl ester", "Phenol, 2,6-bis(1,1-dimethylethyl)-4-methyl-, methylcarbamate", "Azak", "2,6-Di-tert-butyl-p-tolyl methylcarbamate", "Terbutol", "2,6-Di-tert-butyl-4-methylphenyl-N-methylcarbamate", "MBPMC", "Terbucarb"], "SMILES": "O(C(NC)=O)C1=C(C(C)(C)C)C=C(C)C=C1C(C)(C)C", "physical_data": {"Molecular Weight": "277.40", "Molecular Formula": "C17H27NO2", "Melting Point": "203-204 \u00b0C"}}