{"cas_no": "1919-48-8", "cn_name": "2,4,6-\u4e09\u82ef\u6c27\u57fa-1,3,5-\u4e09\u55ea", "en_name": ["2,4,6-Triphenoxy-1,3,5-triazine", "1,3,5-Triazine, 2,4,6-triphenoxy-", "s-Triazine, 2,4,6-triphenoxy-", "2,4,6-Triphenoxy-1,3,5-triazine", "Triphenyl cyanurate", "Triphenoxy-s-triazine", "2,4,6-Triphenoxy-s-triazine", "NSC 76476", "NRB 01501"], "SMILES": "O(C=1N=C(OC2=CC=CC=C2)N=C(OC3=CC=CC=C3)N1)C4=CC=CC=C4", "physical_data": {"Molecular Weight": "357.36", "Molecular Formula": "C21H15N3O3", "Melting Point": "235-236 \u00b0C"}}