{"cas_no": "19199-82-7", "cn_name": "4-\u785d\u57fa\u82ef\u915a\u6eb4\u4e59\u916f", "en_name": ["Acetic acid, 2-bromo-, 4-nitrophenyl ester", "Acetic acid, 2-bromo-, 4-nitrophenyl ester", "Acetic acid, bromo-, p-nitrophenyl ester", "Acetic acid, bromo-, 4-nitrophenyl ester", "4-Nitrophenyl bromoacetate", "p-Nitrophenyl bromoacetate", "NSC 341921", "4-Nitrophenyl 2-bromoacetate"], "SMILES": "O(C(CBr)=O)C1=CC=C(N(=O)=O)C=C1", "physical_data": {"Molecular Weight": "260.04", "Molecular Formula": "C8H6BrNO4", "Melting Point": "72-75 \u00b0C (decomp)"}}