{"cas_no": "192-65-4", "cn_name": "\u4e8c\u82ef\u5e76[A,E]\u8298", "en_name": ["Dibenzo[a,e]pyrene", "Naphtho[1,2,3,4-def]chrysene", "Dibenzo[a,e]pyrene", "1,2:4,5-Dibenzopyrene", "Dibenzo[3,4:6,7]pyrene"], "SMILES": "C12=C3C=4C=5C(C1=CC=6C(C2=CC=C3C=CC4)=CC=CC6)=CC=CC5", "physical_data": {"Molecular Weight": "302.37", "Molecular Formula": "C24H14", "Melting Point": "233.5 \u00b0C"}}