{"cas_no": "192-97-2", "cn_name": "\u82ef\u5e76[E]\u8298", "en_name": ["Benzo[e]pyrene", "Benzo[e]pyrene", "1,2-Benzpyrene", "1,2-Benzopyrene", "4,5-Benzpyrene", "4,5-Benzopyrene", "NSC 89273"], "SMILES": "C12=C3C=4C=5C(C1=CC=CC2=CC=C3C=CC4)=CC=CC5", "physical_data": {"Molecular Weight": "252.31", "Molecular Formula": "C20H12", "Boiling Point": "493 \u00b0C", "Melting Point": "178-179 \u00b0C"}}