{"cas_no": "19202-36-9", "cn_name": "\u65e5\u672c\u6241\u67cf\u9ec4\u916e", "en_name": ["Hinokiflavone", "4H-1-Benzopyran-4-one, 6-[4-(5,7-dihydroxy-4-oxo-4H-1-benzopyran-2-yl)phenoxy]-5,7-dihydroxy-2-(4-hydroxyphenyl)-", "Flavone, 4\u2032,5,5\u2032\u2032,7,7\u2032\u2032-pentahydroxy-4\u2032\u2032\u2032,6-oxydi-", "Hinokiflavone", "6-[4-(5,7-Dihydroxy-4-oxo-4H-1-benzopyran-2-yl)phenoxy]-5,7-dihydroxy-2-(4-hydroxyphenyl)-4H-1-benzopyran-4-one"], "SMILES": "OC1=C2C(OC(=CC2=O)C3=CC=C(O)C=C3)=CC(O)=C1OC4=CC=C(C=C4)C=5OC=6C(C(=O)C5)=C(O)C=C(O)C6", "physical_data": {"Molecular Weight": "538.46", "Molecular Formula": "C30H18O10", "Melting Point": "&gt;330 \u00b0C"}}