{"cas_no": "1920-66-7", "cn_name": "2-\u6c2f-4-\u6c28\u57fa-5-\u785d\u57fa\u5627\u5576", "en_name": ["2-Chloro-5-nitro-4-pyrimidinamine", "4-Pyrimidinamine, 2-chloro-5-nitro-", "Pyrimidine, 4-amino-2-chloro-5-nitro-", "2-Chloro-5-nitro-4-pyrimidinamine", "4-Amino-2-chloro-5-nitropyrimidine", "2-Chloro-4-amino-5-nitropyrimidine", "NSC 40838", "2-Chloro-5-nitropyrimidin-4-amine", "2-Chloro-5-nitro-pyrimidin-4-ylamine"], "SMILES": "N(=O)(=O)C=1C(N)=NC(Cl)=NC1", "physical_data": {"Molecular Weight": "174.55", "Molecular Formula": "C4H3ClN4O2", "Melting Point": "220-221 \u00b0C"}}