{"cas_no": "19219-98-8", "cn_name": "2,5,6-\u4e09\u7532\u57fa\u82ef\u5e76\u5511", "en_name": ["2,5,6-Trimethylbenzoxazole", "Benzoxazole, 2,5,6-trimethyl-", "2,5,6-Trimethylbenzoxazole", "NSC 73186", "2,5,6-Trimethylbenzo[d]oxazole", "2,5,6-Trimethyl-1,3-benzoxazole"], "SMILES": "CC=1C=C2C(=CC1C)OC(C)=N2", "physical_data": {"Molecular Weight": "161.20", "Molecular Formula": "C10H11NO", "Melting Point": "93 \u00b0C"}}