{"cas_no": "1921-70-6", "cn_name": "\u59e5\u9c9b\u70f7", "en_name": ["Pristane", "Pentadecane, 2,6,10,14-tetramethyl-", "2,6,10,14-Tetramethylpentadecane", "Norphytane", "Pristane", "Bute hydrocarbon", "Norphytan", "Pristan", "NSC 114852"], "SMILES": "C(CCCC(CCCC(C)C)C)(CCCC(C)C)C", "physical_data": {"Molecular Weight": "268.52", "Molecular Formula": "C19H40", "Boiling Point": "296 \u00b0C", "Density": "0.7833 g/cm\u00b3 @ Temp: 20 \u00b0C"}}