{"cas_no": "19216-56-9", "cn_name": "\u54cc\u5511\u55ea", "en_name": ["Prazosin", "Methanone, [4-(4-amino-6,7-dimethoxy-2-quinazolinyl)-1-piperazinyl]-2-furanyl-", "Piperazine, 1-(4-amino-6,7-dimethoxy-2-quinazolinyl)-4-(2-furoyl)-", "Piperazine, 1-(4-amino-6,7-dimethoxy-2-quinazolinyl)-4-(2-furanylcarbonyl)-", "[4-(4-Amino-6,7-dimethoxy-2-quinazolinyl)-1-piperazinyl]-2-furanylmethanone", "Prazosin", "Lentopres", "4-(4-Amino-6,7-dimethoxyquinazolin-2-yl)piperazinyl 2-furyl ketone", "Furazosin", "2-[4-(2-Furoyl)piperazin-1-yl]-6,7-dimethoxyquinazolin-4-amine", "2-[4-(Furan-2-carbonyl)piperazin-1-yl]-6,7-dimethoxyquinazolin-4-amine", "MeSH ID: D011224"], "SMILES": "NC=1C2=C(N=C(N1)N3CCN(C(=O)C4=CC=CO4)CC3)C=C(OC)C(OC)=C2", "physical_data": {"Molecular Weight": "383.40", "Molecular Formula": "C19H21N5O4", "Melting Point": "279 \u00b0C"}}