{"cas_no": "19213-72-0", "cn_name": "1-\u4e59\u6c27\u7532\u9170\u54aa\u5511", "en_name": ["1H-Imidazole-1-carboxylic acid, ethyl ester", "1H-Imidazole-1-carboxylic acid, ethyl ester", "Imidazole-1-carboxylic acid, ethyl ester", "N-(Ethoxyformyl)imidazole", "1-(Ethoxycarbonyl)imidazole", "Ethyl imidazole-1-carboxylate", "Ethyl 1H-imidazole-1-carboxylate", "NSC 82335", "1-Carbethoxyimidazole"], "SMILES": "C(OCC)(=O)N1C=CN=C1", "physical_data": {"Molecular Weight": "140.14", "Molecular Formula": "C6H8N2O2", "Boiling Point": "100 \u00b0C @ Press: 16 Torr"}}