{"cas_no": "192185-72-1", "cn_name": "\u66ff\u5421\u6cd5\u5c3c", "en_name": ["Tipifarnib", "2(1H)-Quinolinone, 6-[(R)-amino(4-chlorophenyl)(1-methyl-1H-imidazol-5-yl)methyl]-4-(3-chlorophenyl)-1-methyl-", "6-[(R)-Amino(4-chlorophenyl)(1-methyl-1H-imidazol-5-yl)methyl]-4-(3-chlorophenyl)-1-methyl-2(1H)-quinolinone", "Tipifarnib", "(R)-(+)-R 115777", "Zarnestra", "2: PN: WO2019129231 SEQID: 3 claimed sequence", "Tipifarnib-P2"], "SMILES": "C(N)(C=1C=C2C(=CC(=O)N(C)C2=CC1)C3=CC(Cl)=CC=C3)(C=4N(C)C=NC4)C5=CC=C(Cl)C=C5", "physical_data": {"Molecular Weight": "489.40", "Molecular Formula": "C27H22Cl2N4O", "Melting Point": "234 \u00b0C"}}