{"cas_no": "19219-99-9", "cn_name": "5-\u6c2f-2-\u7532\u57fa\u82ef\u5e76\u5641\u5511", "en_name": ["5-Chloro-2-methylbenzoxazole", "Benzoxazole, 5-chloro-2-methyl-", "5-Chloro-2-methylbenzoxazole", "2-Methyl-5-chlorobenzoxazole", "NSC 26192"], "SMILES": "CC=1OC=2C(N1)=CC(Cl)=CC2", "physical_data": {"Molecular Weight": "167.59", "Molecular Formula": "C8H6ClNO", "Boiling Point": "64-65 \u00b0C @ Press: 13.3 Pa", "Melting Point": "63 \u00b0C"}}