{"cas_no": "19220-93-0", "cn_name": "\u4e59\u9178\u4e94\u6c1f\u82ef\u916f", "en_name": ["Phenol, 2,3,4,5,6-pentafluoro-, 1-acetate", "Phenol, 2,3,4,5,6-pentafluoro-, 1-acetate", "Phenol, pentafluoro-, acetate", "Pentafluorophenyl acetate", "NSC 168737"], "SMILES": "O(C(C)=O)C1=C(F)C(F)=C(F)C(F)=C1F", "physical_data": {"Molecular Weight": "226.10", "Molecular Formula": "C8H3F5O2", "Boiling Point": "74 \u00b0C"}}