{"cas_no": "19227-13-5", "cn_name": "4-\u7532\u57fa\u82ef\u7532\u9170\u80fa\u809f", "en_name": ["4-Methylbenzamidoxime", "Benzenecarboximidamide, N-hydroxy-4-methyl-", "p-Toluamidoxime", "N-Hydroxy-4-methylbenzenecarboximidamide", "4-Methylbenzamidoxime", "p-Tolamidoxime", "p-Methylbenzamidoxime", "p-Toluamide oxime", "p-Tolylamidoxime", "N-Hydroxy-4-methylbenzamidine", "4-Methyl-N-hydroxybenzamidine", "N\u2032-Hydroxy-4-methylbenzamidine", "N\u2032-Hydroxy-4-methylbenzenecarboximidamide", "4-Methylbenzamide oxime", "N\u2032-Hydroxy-4-methylbenzimidamide", "N-Hydroxy-4-methylbenzimidamide"], "SMILES": "C(NO)(=N)C1=CC=C(C)C=C1", "physical_data": {"Molecular Weight": "150.18", "Molecular Formula": "C8H10N2O", "Melting Point": "148-149 \u00b0C"}}