{"cas_no": "19224-26-1", "cn_name": "1,2-\u4e19\u4e8c\u9187\u4e8c\u82ef\u7532\u9178\u916f", "en_name": ["Propylene glycol dibenzoate", "1,2-Propanediol, 1,2-dibenzoate", "1,2-Propanediol, dibenzoate", "Propylene glycol dibenzoate", "Benzoflex 284", "1,2-Propylene glycol dibenzoate", "LexFeel Shine", "K-Flex PG", "1-(Benzoyloxy)propan-2-yl benzoate"], "SMILES": "C(OCC(OC(=O)C1=CC=CC=C1)C)(=O)C2=CC=CC=C2", "physical_data": {"Molecular Weight": "284.31", "Molecular Formula": "C17H16O4", "Boiling Point": "232 \u00b0C @ Press: 12 Torr"}}