{"cas_no": "19237-84-4", "cn_name": "\u76d0\u9178\u54cc\u5511\u55ea", "en_name": ["Prazosin hydrochloride", "Methanone, [4-(4-amino-6,7-dimethoxy-2-quinazolinyl)-1-piperazinyl]-2-furanyl-, hydrochloride (1:1)", "Piperazine, 1-(4-amino-6,7-dimethoxy-2-quinazolinyl)-4-(2-furoyl)-, monohydrochloride", "Piperazine, 1-(4-amino-6,7-dimethoxy-2-quinazolinyl)-4-(2-furanylcarbonyl)-, monohydrochloride", "Furazosin hydrochloride", "2-[4-(2-Furoyl)piperazin-1-yl]-4-amino-6,7-dimethoxyquinazoline hydrochloride", "Prazosin hydrochloride", "CP 12299-1", "Hypovase", "Peripress", "Hypovasole", "Minipress", "Deprazolin", "Pratsiol", "Adverszuten", "Adversuten", "NSC 292810", "Duramipress", "Sinetens", "Eurex", "Alpress LP", "[4-(4-Amino-6,7-dimethoxy-quinazolin-2-yl)-piperazin-1-yl]-furan-2-yl-methanone", "hydrochloride"], "SMILES": "NC=1C2=C(N=C(N1)N3CCN(C(=O)C4=CC=CO4)CC3)C=C(OC)C(OC)=C2.Cl", "physical_data": {"Molecular Weight": "", "Molecular Formula": "C19H21N5O4.ClH", "Melting Point": "258-259 \u00b0C (decomp)"}}