{"cas_no": "192374-15-5", "cn_name": "\u5b89\u975e\u4ed6\u916e\u5417\u5549\u4ee3(2R,3R)-\u5f02\u6784\u4f53", "en_name": ["(-)-(2R,3R)-2-(3-chlorophenyl)-3,5,5-trimethyl-2-morpholinol", "2-Morpholinol, 2-(3-chlorophenyl)-3,5,5-trimethyl-, (2R,3R)-", "2-Morpholinol, 2-(3-chlorophenyl)-3,5,5-trimethyl-, (2R-cis)-", "(2R,3R)-2-(3-Chlorophenyl)-3,5,5-trimethyl-2-morpholinol", "(-)-(2R,3R)-2-(3-chlorophenyl)-3,5,5-trimethyl-2-morpholinol", "(R,R)-Hydroxybupropion"], "SMILES": "OC1(C(C)NC(C)(C)CO1)C2=CC(Cl)=CC=C2", "physical_data": {"Molecular Weight": "255.74", "Molecular Formula": "C13H18ClNO2", "Melting Point": "128-131 \u00b0C"}}