{"cas_no": "19230-50-3", "cn_name": "2-\u7898-5-\u785d\u57fa\u82ef\u7532\u9178", "en_name": ["2-Iodo-5-nitrobenzoic acid", "Benzoic acid, 2-iodo-5-nitro-", "2-Iodo-5-nitrobenzoic acid"], "SMILES": "C(O)(=O)C1=CC(N(=O)=O)=CC=C1I", "physical_data": {"Molecular Weight": "293.02", "Molecular Formula": "C7H4INO4", "Melting Point": "197-198 \u00b0C"}}