{"cas_no": "19235-89-3", "cn_name": "4-\u6c2f-2-\u6c30\u57fa\u5421\u5576", "en_name": ["4-Chloro-2-cyanopyridine", "2-Pyridinecarbonitrile, 4-chloro-", "Picolinonitrile, 4-chloro-", "4-Chloro-2-pyridinecarbonitrile", "4-Chloropicolinonitrile", "4-Chloro-2-cyanopyridine", "2-Cyano-4-chloropyridine", "4-Chloro-pyridine-2-carbonitrile", "4-Chloropyridine carbonitrile"], "SMILES": "C(#N)C1=CC(Cl)=CC=N1", "physical_data": {"Molecular Weight": "138.55", "Molecular Formula": "C6H3ClN2", "Melting Point": "85-86 \u00b0C"}}