{"cas_no": "19231-06-2", "cn_name": "\u53cc(4-\u7532\u6c27\u57fa\u82ef\u57fa)\u7898\u9393 \u6eb4\u5316\u7269", "en_name": ["Iodonium, bis(4-methoxyphenyl)-, bromide (1:1)", "Iodonium, bis(4-methoxyphenyl)-, bromide (1:1)", "Iodonium, bis(p-methoxyphenyl)-, bromide", "Iodonium, bis(4-methoxyphenyl)-, bromide", "p,p\u2032-Dimethoxydiphenyliodonium bromide", "Di(p-Anisyl)iodonium bromide", "Bis(p-anisyl)iodonium bromide", "Bis(4-methoxyphenyl)iodonium bromide", "NSC 141350"], "SMILES": "[I+](C1=CC=C(OC)C=C1)C2=CC=C(OC)C=C2.[Br-]", "physical_data": {"Molecular Weight": "", "Molecular Formula": "C14H14IO2.Br", "Melting Point": "190-192 \u00b0C"}}