{"cas_no": "19230-81-0", "cn_name": "\u808c\u9150\u76d0\u9178\u76d0", "en_name": ["Creatinine hydrochloride", "4H-Imidazol-4-one, 2-amino-1,5-dihydro-1-methyl-, hydrochloride (1:1)", "Creatinine, monohydrochloride", "4H-Imidazol-4-one, 2-amino-1,5-dihydro-1-methyl-, monohydrochloride", "2-Imidazolin-4-one, 2-amino-1-methyl-, monohydrochloride", "Creatinine hydrochloride", "2-Amino-1-methyl-1,5-dihydroimidazol-4-one hydrochloride", "2-Imino-1-methylimidazolidin-4-one hydrochloride"], "SMILES": "NC=1N(C)CC(=O)N1.Cl", "physical_data": {"Molecular Weight": "", "Molecular Formula": "C4H7N3O.ClH", "Melting Point": "283-285 \u00b0C (decomp)"}}