{"cas_no": "19230-28-5", "cn_name": "1,3-\u4e8c\u6c2f-2-\u7898\u82ef", "en_name": ["1,3-Dichloro-2-iodobenzene", "Benzene, 1,3-dichloro-2-iodo-", "1,3-Dichloro-2-iodobenzene", "2,6-Dichlorophenyl iodide", "2,6-Dichloroiodobenzene", "2,6-Dichloro-1-iodobenzene", "1-Iodo-2,6-dichlorobenzene"], "SMILES": "IC1=C(Cl)C=CC=C1Cl", "physical_data": {"Molecular Weight": "272.90", "Molecular Formula": "C6H3Cl2I", "Melting Point": "68 \u00b0C"}}