{"cas_no": "1923-70-2", "cn_name": "\u56db\u4e01\u57fa\u9ad8\u6c2f\u9178\u94f5", "en_name": ["Tetrabutylammonium perchlorate", "1-Butanaminium, N,N,N-tributyl-, perchlorate (1:1)", "Ammonium, tetrabutyl-, perchlorate", "Tetrabutylammonium perchlorate", "1-Butanaminium, N,N,N-tributyl-, perchlorate", "Tetra-n-butylammonium perchlorate", "TBAP", "QAP 01"], "SMILES": "[N+](CCCC)(CCCC)(CCCC)CCCC.Cl(=O)(=O)(=O)[O-]", "physical_data": {"Molecular Weight": "", "Molecular Formula": "C16H36N.ClO4", "Melting Point": "205-206 \u00b0C"}}