{"cas_no": "19241-20-4", "cn_name": "3-\u4e59\u57fa\u82ef\u57fa\u786b\u4ee3\u5f02\u6c30\u9178\u916f", "en_name": ["Benzene, 1-ethyl-3-isothiocyanato-", "Benzene, 1-ethyl-3-isothiocyanato-", "Isothiocyanic acid, m-ethylphenyl ester", "3-Ethylphenyl isothiocyanate", "1-Ethyl-3-isothiocyanatobenzene"], "SMILES": "N(=C=S)C1=CC(CC)=CC=C1", "physical_data": {"Molecular Weight": "163.24", "Molecular Formula": "C9H9NS", "Boiling Point": "116 \u00b0C @ Press: 7 Torr"}}