{"cas_no": "19243-95-9", "cn_name": "4\u2019-\u7f9f\u57fa-2-\u7532\u57fa\u4e19\u70ef\u9170\u82ef\u80fa", "en_name": ["(4-Hydroxyphenyl)methacrylamide", "2-Propenamide, N-(4-hydroxyphenyl)-2-methyl-", "Acrylanilide, 4\u2032-hydroxy-2-methyl-", "N-(4-Hydroxyphenyl)-2-methyl-2-propenamide", "p-Methacrylamidophenol", "N-(4-Hydroxyphenyl)methacrylamide", "N-(p-Hydroxyphenyl)methacrylamide", "p-Hydroxymethacrylanilide", "(4-Hydroxyphenyl)methacrylamide"], "SMILES": "N(C(C(C)=C)=O)C1=CC=C(O)C=C1", "physical_data": {"Molecular Weight": "177.20", "Molecular Formula": "C10H11NO2", "Melting Point": "153-155 \u00b0C"}}