{"cas_no": "19241-16-8", "cn_name": "2,6-\u4e8c\u7532\u57fa\u5f02\u786b\u6c30\u9178\u82ef\u916f", "en_name": ["2-Isothiocyanato-1,3-dimethylbenzene", "Benzene, 2-isothiocyanato-1,3-dimethyl-", "Isothiocyanic acid, 2,6-xylyl ester", "2-Isothiocyanato-1,3-dimethylbenzene", "2,6-Dimethylphenyl isothiocyanate", "2,6-Xylyl isothiocyanate", "NSC 172978", "2,6-Dimethylphenyl thioisocyanate"], "SMILES": "N(=C=S)C1=C(C)C=CC=C1C", "physical_data": {"Molecular Weight": "163.24", "Molecular Formula": "C9H9NS", "Boiling Point": "89 \u00b0C @ Press: 2 Torr"}}