{"cas_no": "192441-08-0", "cn_name": "\u7f57\u7c73\u9c81\u66f2", "en_name": ["Lomeguatrib", "9H-Purin-2-amine, 6-[(4-bromo-2-thienyl)methoxy]-", "1H-Purin-2-amine, 6-[(4-bromo-2-thienyl)methoxy]-", "6-[(4-Bromo-2-thienyl)methoxy]-9H-purin-2-amine", "Lomeguatrib", "2-Amino-6-(4-bromothiophen-2-ylmethoxy)-9H-purine", "PaTrin 2"], "SMILES": "O(CC1=CC(Br)=CS1)C2=C3C(=NC(N)=N2)N=CN3", "physical_data": {"Molecular Weight": "326.17", "Molecular Formula": "C10H8BrN5OS", "Melting Point": "212-214 \u00b0C"}}