{"cas_no": "19241-36-2", "cn_name": "5-\u6c2f-2-\u7532\u57fa\u5f02\u786b\u6c30\u9178\u82ef\u916f", "en_name": ["4-Chloro-2-isothiocyanato-1-methylbenzene", "Benzene, 4-chloro-2-isothiocyanato-1-methyl-", "Isothiocyanic acid, 5-chloro-o-tolyl ester", "4-Chloro-2-isothiocyanato-1-methylbenzene", "5-Chloro-o-tolyl isothiocyanate", "5-Chloro-2-methylphenyl isothiocyanate", "2-Methyl-5-chlorophenyl isothiocyanate", "NSC 134677"], "SMILES": "N(=C=S)C1=C(C)C=CC(Cl)=C1", "physical_data": {"Molecular Weight": "183.66", "Molecular Formula": "C8H6ClNS", "Boiling Point": "123 \u00b0C @ Press: 8 Torr"}}