{"cas_no": "19248-13-6", "cn_name": "N-(2-\u6c28\u4e59\u57fa)-N-\u4e59\u57fa-M-\u7532\u82ef\u80fa", "en_name": ["N1-Ethyl-N1-(3-methylphenyl)-1,2-ethanediamine", "1,2-Ethanediamine, N1-ethyl-N1-(3-methylphenyl)-", "Ethylenediamine, N-ethyl-N-m-tolyl-", "1,2-Ethanediamine, N-ethyl-N-(3-methylphenyl)-", "N1-Ethyl-N1-(3-methylphenyl)-1,2-ethanediamine", "N-Ethyl-N-(2-aminoethyl)-m-toluidine", "N-(2-Aminoethyl)-N-ethyl-m-toluidine", "N-Ethyl-N-(3-methylphenyl)-1,2-ethanediamine", "[2-(Ethyl(3-methylphenyl)amino]ethyl]amine", "NSC 151043", "N-Ethyl-N-(m-tolyl)ethane-1,2-diamine", "N-Ethyl-N-(3-methylphenyl)ethylenediamine"], "SMILES": "N(CCN)(CC)C1=CC(C)=CC=C1", "physical_data": {"Molecular Weight": "178.27", "Molecular Formula": "C11H18N2", "Boiling Point": "145-148 \u00b0C @ Press: 13 Torr"}}