{"cas_no": "19241-38-4", "cn_name": "4-\u6eb4-2-\u7532\u57fa\u82ef\u57fa\u5f02\u786b\u6c30\u9178\u916f", "en_name": ["4-Bromo-1-isothiocyanato-2-methylbenzene", "Benzene, 4-bromo-1-isothiocyanato-2-methyl-", "Isothiocyanic acid, 4-bromo-o-tolyl ester", "4-Bromo-1-isothiocyanato-2-methylbenzene", "4-Bromo-2-methylphenyl isothiocyanate"], "SMILES": "N(=C=S)C1=C(C)C=C(Br)C=C1", "physical_data": {"Molecular Weight": "228.11", "Molecular Formula": "C8H6BrNS", "Melting Point": "50-51 \u00b0C"}}