{"cas_no": "19249-03-7", "cn_name": "\u4e09\u4e59\u70ef\u57fa\u4e8c\u9187", "en_name": ["Triethylene glycol ditosylate", "Ethanol, 2,2\u2032-[1,2-ethanediylbis(oxy)]bis-, 1,1\u2032-bis(4-methylbenzenesulfonate)", "Triethylene glycol, di-p-toluenesulfonate", "Ethanol, 2,2\u2032-[1,2-ethanediylbis(oxy)]bis-, bis(4-methylbenzenesulfonate)", "Triethylene glycol ditosylate", "Triethylene glycol di-4-toluenesulfonate", "Triethylene glycol ditoluenesulfonate", "3,6-Dioxaoctane-1,8-diol ditosylate", "Triethylene glycol bis(4-toluenesulfonate)", "1,8-Bis(p-tolylsulfonyloxy)-3,6-dioxaoctane", "Triethylene glycol bis(p-toluenesulfonate)", "Triethyleneglycol bis(toluenesulfonate)", "1,8-Bis(tosyloxy)-3,6-dioxaoctane", "Triethylene glycol di-p-tosylate", "Triethylene glycol bis(p-tosylate)", "NSC 244980", "2-[2-[2-[[(4-Methylphenyl)sulfonyl]oxy]ethoxy]ethoxy]ethyl 4-methylbenzenesulfonate", "1,2-Ethanediylbis(oxy-2,1-ethanediyl) bis(4-methylbenzenesulfonate)", "(3,6-Dioxaoctane-1,8-diyl)bis(4-methyl-benzenesulfonate)"], "SMILES": "S(OCCOCCOCCOS(=O)(=O)C1=CC=C(C)C=C1)(=O)(=O)C2=CC=C(C)C=C2", "physical_data": {"Molecular Weight": "458.55", "Molecular Formula": "C20H26O8S2", "Melting Point": "80-81 \u00b0C"}}