{"cas_no": "19244-98-5", "cn_name": "\u80cd\u6c22\u6eb4\u9178\u76d0", "en_name": ["Guanidinium bromide", "Guanidine, hydrobromide (1:1)", "Guanidine, monohydrobromide", "Guanidinium bromide", "Guanidine hydrobromide"], "SMILES": "C(=N)(N)N.Br", "physical_data": {"Molecular Weight": "", "Molecular Formula": "CH5N3.BrH", "Melting Point": "178-180 \u00b0C"}}