{"cas_no": "19241-35-1", "cn_name": "3-\u6c2f-2-\u7532\u57fa\u82ef\u57fa\u5f02\u786b\u6c30\u9178\u916f", "en_name": ["Benzene, 1-chloro-3-isothiocyanato-2-methyl-", "Benzene, 1-chloro-3-isothiocyanato-2-methyl-", "Isothiocyanic acid, 3-chloro-o-tolyl ester", "Toluene, 2-chloro-6-isothiocyanato-", "3-Chloro-o-tolyl isothiocyanate", "3-Chloro-2-methylphenyl isothiocyanate", "NSC 134676", "1-Chloro-3-isothiocyanato-2-methylbenzene"], "SMILES": "N(=C=S)C1=C(C)C(Cl)=CC=C1", "physical_data": {"Molecular Weight": "183.66", "Molecular Formula": "C8H6ClNS", "Boiling Point": "99 \u00b0C @ Press: 2-3 Torr"}}