{"cas_no": "19247-87-1", "cn_name": "5-\u7532\u9170\u57fa-2-\u544b\u5583\u57fa\u82ef\u7532\u9178\u4e59\u916f", "en_name": ["Benzoic acid, 4-(5-formyl-2-furanyl)-, ethyl ester", "Benzoic acid, 4-(5-formyl-2-furanyl)-, ethyl ester", "Benzoic acid, p-(5-formyl-2-furyl)-, ethyl ester", "5-(4-Carbethoxyphenyl)-2-furaldehyde", "4-(5-formyl-2-furanyl)benzoic acid ethyl ester", "Ethyl 4-(5-formylfuran-2-yl)benzoate", "5-(4-Ethoxycarbonylphenyl)furan-2-carboxaldehyde"], "SMILES": "C(=O)C=1OC(=CC1)C2=CC=C(C(OCC)=O)C=C2", "physical_data": {"Molecular Weight": "244.24", "Molecular Formula": "C14H12O4", "Melting Point": "113-115 \u00b0C"}}