{"cas_no": "19249-34-4", "cn_name": "N,N-\u4e8c\u4e59\u9170\u6c27\u4e59\u57fa\u82ef\u80fa", "en_name": ["Ethanol, 2,2\u2032-(phenylimino)bis-, 1,1\u2032-diacetate", "Ethanol, 2,2\u2032-(phenylimino)bis-, 1,1\u2032-diacetate", "Ethanol, 2,2\u2032-(phenylimino)di-, diacetate (ester)", "Ethanol, 2,2\u2032-(phenylimino)bis-, diacetate (ester)", "Ethanol, 2,2\u2032-(phenylimino)di-, diacetate", "N,N-Bis(2-acetoxyethyl)aniline", "Bis(2-acetoxyethyl)aniline", "N,N-Bis(acetoxyethyl)aniline", "N,N-Bis(\u03b2-acetoxyethyl)aniline", "N,N-Di(\u03b2-acetoxyethyl)aniline", "N,N-Bis(2-acetyloxyethyl)aniline", "N,N-Di(2-acetoxyethyl)aniline", "Diacetyl-N-phenyldiethanolamine", "O,O\u2032-Diacetyl-N-phenyldiethanolamine", "N,N-Bis(2-hydroxyethyl)aniline diacetate", "(Phenylazanediyl)bis(ethane-2,1-diyl) diacetate"], "SMILES": "N(CCOC(C)=O)(CCOC(C)=O)C1=CC=CC=C1", "physical_data": {"Molecular Weight": "265.30", "Molecular Formula": "C14H19NO4", "Boiling Point": "177-180 \u00b0C @ Press: 4 Torr"}}