{"cas_no": "19241-24-8", "cn_name": "4-\u53d4\u4e01\u57fa\u82ef\u5f02\u786b\u6c30\u9178\u916f", "en_name": ["1-(1,1-Dimethylethyl)-4-isothiocyanatobenzene", "Benzene, 1-(1,1-dimethylethyl)-4-isothiocyanato-", "Isothiocyanic acid, p-tert-butylphenyl ester", "1-(1,1-Dimethylethyl)-4-isothiocyanatobenzene", "4-tert-Butylphenyl isothiocyanate", "p-tert-Butylphenyl isothiocyanate", "1-tert-Butyl-4-isothiocyanatobenzene"], "SMILES": "C(C)(C)(C)C1=CC=C(N=C=S)C=C1", "physical_data": {"Molecular Weight": "191.29", "Molecular Formula": "C11H13NS", "Boiling Point": "105 \u00b0C @ Press: 1.3 Torr", "Melting Point": "30 \u00b0C"}}