{"cas_no": "19241-17-9", "cn_name": "3,4-\u4e8c\u7532\u57fa\u82ef\u57fa\u5f02\u786b\u6c30\u9178\u916f", "en_name": ["4-Isothiocyanato-1,2-dimethylbenzene", "Benzene, 4-isothiocyanato-1,2-dimethyl-", "Isothiocyanic acid, 3,4-xylyl ester", "4-Isothiocyanato-1,2-dimethylbenzene", "3,4-Dimethylphenyl isothiocyanate"], "SMILES": "N(=C=S)C1=CC(C)=C(C)C=C1", "physical_data": {"Molecular Weight": "163.24", "Molecular Formula": "C9H9NS", "Boiling Point": "263-264 \u00b0C", "Melting Point": "74-76 \u00b0C"}}