{"cas_no": "19241-19-1", "cn_name": "2-\u4e59\u57fa\u5f02\u786b\u6c30\u9178\u82ef\u916f", "en_name": ["1-Ethyl-2-isothiocyanatobenzene", "Benzene, 1-ethyl-2-isothiocyanato-", "Isothiocyanic acid, o-ethylphenyl ester", "1-Ethyl-2-isothiocyanatobenzene", "2-Ethylphenyl isothiocyanate", "o-Ethylphenyl isothiocyanate", "2-Ethyl-1-isothiocyanatobenzene"], "SMILES": "N(=C=S)C1=C(CC)C=CC=C1", "physical_data": {"Molecular Weight": "163.24", "Molecular Formula": "C9H9NS", "Boiling Point": "254-255 \u00b0C"}}