{"cas_no": "19259-90-6", "cn_name": "\u6c18\u4ee3\u4e59\u9170\u6c2f", "en_name": ["Acetyl-d3 chloride", "Acetyl-d3 chloride", "Acetyl chloride-d3", "Trideuteroacetyl chloride"], "SMILES": "C(C([2H])([2H])[2H])(Cl)=O", "physical_data": {"Molecular Weight": "", "Molecular Formula": "C2ClD3O", "Boiling Point": "52-54 \u00b0C"}}