{"cas_no": "19254-69-4", "cn_name": "\u9ea6\u89d2\u753e-4,6,8(14),22-\u56db\u70ef-3-\u916e", "en_name": ["Ergosta-4,6,8(14),22-tetraen-3-one", "Ergosta-4,6,8(14),22-tetraen-3-one, (22E)-", "Ergosta-4,6,8(14),22-tetraen-3-one", "(22E)-Ergosta-4,6,8(14),22-tetraen-3-one", "(22E)-4,6,8(14),22-Ergostatetraen-3-one", "(22E,24R)-Ergosta-4,6,8(14),22-tetraen-3-one", "Ergone", "(22E,24R)-Ergosta-4,6,8(14),22-tetraen-3-one"], "SMILES": "CC12C(=C3C(C4(C)C(C=C3)=CC(=O)CC4)CC1)CCC2C(C=CC(C(C)C)C)C", "physical_data": {"Molecular Weight": "392.62", "Molecular Formula": "C28H40O", "Melting Point": "113-114 \u00b0C"}}