{"cas_no": "19250-09-0", "cn_name": "1-(3,4-\u4e8c\u6c2f\u82ef\u57fa)-2-\u786b\u8132", "en_name": ["N-(3,4-Dichlorophenyl)thiourea", "Thiourea, N-(3,4-dichlorophenyl)-", "Urea, 1-(3,4-dichlorophenyl)-2-thio-", "Thiourea, (3,4-dichlorophenyl)-", "N-(3,4-Dichlorophenyl)thiourea", "(3,4-Dichlorophenyl)thiourea", "Amino[(3,4-dichlorophenyl)amino]methane-1-thione", "1-(3,4-Dichlorophenyl)thiourea"], "SMILES": "N(C(N)=S)C1=CC(Cl)=C(Cl)C=C1", "physical_data": {"Molecular Weight": "221.11", "Molecular Formula": "C7H6Cl2N2S", "Melting Point": "203-204 \u00b0C"}}