{"cas_no": "19256-31-6", "cn_name": "1,1-\u4e8c\u4e59\u6c27\u57fa-3-\u82ef\u57fa\u4e19-2-\u916e", "en_name": ["1,1-Diethoxy-3-phenyl-2-propanone", "2-Propanone, 1,1-diethoxy-3-phenyl-", "Pyruvaldehyde, phenyl-, 1-(diethyl acetal)", "Pyruvaldehyde, phenyl-, diethyl acetal", "1,1-Diethoxy-3-phenyl-2-propanone", "1,1-Diethoxy-3-phenylacetone"], "SMILES": "C(C(C(OCC)OCC)=O)C1=CC=CC=C1", "physical_data": {"Molecular Weight": "222.28", "Molecular Formula": "C13H18O3", "Boiling Point": "107-110 \u00b0C @ Press: 0.3 Torr", "Density": "1.0170 g/cm\u00b3 @ Temp: 25 \u00b0C"}}