{"cas_no": "19264-68-7", "cn_name": "9-\u82ef\u7532\u9170\u5361\u5511", "en_name": ["9H-Carbazol-9-ylphenylmethanone", "Methanone, 9H-carbazol-9-ylphenyl-", "Carbazole, 9-benzoyl-", "9H-Carbazole, 9-benzoyl-", "9H-Carbazol-9-ylphenylmethanone", "N-Benzoylcarbazole", "9-Benzoylcarbazole", "NSC 14861"], "SMILES": "C(=O)(N1C=2C(C=3C1=CC=CC3)=CC=CC2)C4=CC=CC=C4", "physical_data": {"Molecular Weight": "271.31", "Molecular Formula": "C19H13NO", "Melting Point": "97-98 \u00b0C"}}