{"cas_no": "1927-25-9", "cn_name": "DL-\u9ad8\u4e1d\u6c28\u9178", "en_name": ["Homoserine", "Homoserine", "Butyric acid, 2-amino-4-hydroxy-, DL-", "DL-Homoserine", "DL-\u03b1-Amino-\u03b3-hydroxybutyric acid", "NSC 37755", "2-Azaniumyl-4-hydroxybutanoate", "2-Amino-4-hydroxybutanoic acid"], "SMILES": "C(CCO)(C(O)=O)N", "physical_data": {"Molecular Weight": "119.12", "Molecular Formula": "C4H9NO3", "Melting Point": "187 \u00b0C"}}