{"cas_no": "1927-06-6", "cn_name": "\u6eb4\u5316\u80c6\u78b1", "en_name": ["Ethanaminium, 2-hydroxy-N,N,N-trimethyl-, bromide (1:1)", "Ethanaminium, 2-hydroxy-N,N,N-trimethyl-, bromide (1:1)", "Choline, bromide", "Ethanaminium, 2-hydroxy-N,N,N-trimethyl-, bromide", "Trimethyl(2-hydroxyethyl)ammonium bromide", "(2-Hydroxyethyl)trimethylammonium bromide"], "SMILES": "C([N+](C)(C)C)CO.[Br-]", "physical_data": {"Molecular Weight": "", "Molecular Formula": "C5H14NO.Br", "Melting Point": "287-289 \u00b0C (decomp)"}}