{"cas_no": "19275-46-8", "cn_name": "3,4-\u4e8c\u6c22-5,9-\u4e8c\u7f9f\u57fa-8-\u7532\u6c27\u57fa-2,2-\u4e8c\u7532\u57fa-7-(3-\u7532\u57fa-2-\u4e01\u70ef\u57fa)-2H,6H-\u5421\u5583\u5e76[3,2-B]\u6c27\u6742\u84bd-6-\u916e", "en_name": ["3-Isomangostin", "2H,6H-Pyrano[3,2-b]xanthen-6-one, 3,4-dihydro-5,9-dihydroxy-8-methoxy-2,2-dimethyl-7-(3-methyl-2-butenyl)-", "3,4-Dihydro-5,9-dihydroxy-8-methoxy-2,2-dimethyl-7-(3-methyl-2-butenyl)-2H,6H-pyrano[3,2-b]xanthen-6-one", "3-Isomangostin"], "SMILES": "C(C=C(C)C)C1=C2C(OC=3C(C2=O)=C(O)C4=C(C3)OC(C)(C)CC4)=CC(O)=C1OC", "physical_data": {"Molecular Weight": "410.46", "Molecular Formula": "C24H26O6", "Melting Point": "164-166 \u00b0C"}}