{"cas_no": "19276-03-0", "cn_name": "1-\u82c4\u57fa-2-\u6c2f\u7532\u57fa-\u54aa\u5511\u76d0\u9178\u76d0", "en_name": ["1H-Imidazole, 2-(chloromethyl)-1-(phenylmethyl)-, hydrochloride (1:1)", "1H-Imidazole, 2-(chloromethyl)-1-(phenylmethyl)-, hydrochloride (1:1)", "Imidazole, 1-benzyl-2-(chloromethyl)-, monohydrochloride", "1H-Imidazole, 2-(chloromethyl)-1-(phenylmethyl)-, monohydrochloride", "1-Benzyl-2-(chloromethyl)imidazole hydrochloride", "1-Benzyl-2-(chloromethyl)-1H-imidazole hydrochloride"], "SMILES": "C(N1C(CCl)=NC=C1)C2=CC=CC=C2.Cl", "physical_data": {"Molecular Weight": "", "Molecular Formula": "C11H11ClN2.ClH", "Melting Point": "181-182 \u00b0C"}}