{"cas_no": "1927-95-3", "cn_name": "4-\u6eb4\u4e59\u9178\u82ef\u916f", "en_name": ["4-Bromophenyl acetate", "Phenol, 4-bromo-, 1-acetate", "Phenol, p-bromo-, acetate", "Phenol, 4-bromo-, acetate", "p-Bromophenyl acetate", "p-Acetoxybromobenzene", "4-Bromophenyl acetate", "1-Acetoxy-4-bromobenzene", "4-Bromoacetoxybenzene", "4-Acetoxybromobenzene", "4-Bromophenol acetate", "NSC 404083", "1-Bromo-4-acetoxybenzene"], "SMILES": "O(C(C)=O)C1=CC=C(Br)C=C1", "physical_data": {"Molecular Weight": "215.04", "Molecular Formula": "C8H7BrO2", "Boiling Point": "235-240 \u00b0C", "Melting Point": "21.5 \u00b0C"}}