{"cas_no": "19287-45-7", "cn_name": "\u4e59\u787c\u70f7", "en_name": ["Diborane", "Diborane(6)", "Diboron hexahydride", "Diborane", "Diborane (B2H6)", "Borane (B2H6)", "Boron hydride (B2H6)", "Hydrogen boride (H6B2)"], "SMILES": "[BH2]1[H][BH2][H]1", "physical_data": {"Molecular Weight": "27.67", "Molecular Formula": "B2H6", "Boiling Point": "-92.5 \u00b0C", "Melting Point": "-165 \u00b0C", "Density": "0.33 g/cm\u00b3 @ Temp: -29.6 \u00b0C"}}