{"cas_no": "1928-38-7", "cn_name": "2,4-\u4e8c\u6c2f\u82ef\u6c27\u4e59\u9178\u7532\u916f", "en_name": ["2,4-D methyl ester", "Acetic acid, 2-(2,4-dichlorophenoxy)-, methyl ester", "Acetic acid, (2,4-dichlorophenoxy)-, methyl ester", "2,4-D methyl ester", "Methyl (2,4-dichlorophenoxy)acetate", "(2,4-Dichlorophenoxy)acetic acid methyl ester", "NSC 9399"], "SMILES": "O(CC(OC)=O)C1=C(Cl)C=C(Cl)C=C1", "physical_data": {"Molecular Weight": "235.06", "Molecular Formula": "C9H8Cl2O3", "Boiling Point": "119 \u00b0C @ Press: 1 Torr", "Melting Point": "119 \u00b0C"}}