{"cas_no": "192869-50-4", "cn_name": "5,6,7,8-\u56db\u6c22\u5421\u5576\u5e76[4,3-D]\u5627\u5576", "en_name": ["5,6,7,8-Tetrahydropyrido[4,3-d]pyrimidine", "Pyrido[4,3-d]pyrimidine, 5,6,7,8-tetrahydro-", "5,6,7,8-Tetrahydropyrido[4,3-d]pyrimidine"], "SMILES": "C1=2C(CCNC1)=NC=NC2", "physical_data": {"Molecular Weight": "135.17", "Molecular Formula": "C7H9N3", "Melting Point": "186-187 \u00b0C"}}