{"cas_no": "19282-45-2", "cn_name": "4,5,6,7-\u56db\u6c22\u82ef\u5e76[B]\u567b\u5429-2-\u7fa7\u9178\u4e59\u916f", "en_name": ["Ethyl 4,5,6,7-tetrahydrobenzo[b]thiophene-2-carboxylate", "Benzo[b]thiophene-2-carboxylic acid, 4,5,6,7-tetrahydro-, ethyl ester", "Ethyl 4,5,6,7-tetrahydrobenzo[b]thiophene-2-carboxylate"], "SMILES": "C(OCC)(=O)C1=CC2=C(S1)CCCC2", "physical_data": {"Molecular Weight": "210.29", "Molecular Formula": "C11H14O2S", "Boiling Point": "193 \u00b0C @ Press: 16 Torr", "Melting Point": "30 \u00b0C"}}