{"cas_no": "192863-40-4", "cn_name": "(3-\u785d\u57fa\u82ef\u57fa)\u4e09\u6c1f\u787c\u9178\u94be", "en_name": ["Borate(1-), trifluoro(3-nitrophenyl)-, potassium (1:1), (T-4)-", "Borate(1-), trifluoro(3-nitrophenyl)-, potassium (1:1), (T-4)-", "Borate(1-), trifluoro(3-nitrophenyl)-, potassium, (T-4)-", "Potassium (3-nitrophenyl)trifluoroborate"], "SMILES": "[B+3]([F-])([F-])([F-])[C-]=1C=C(N(=O)=O)C=CC1.[K+]", "physical_data": {"Molecular Weight": "", "Molecular Formula": "C6H4BF3NO2.K", "Melting Point": "235-236 \u00b0C"}}