{"cas_no": "19283-70-6", "cn_name": "\u66f2\u7f8e\u4ed6\u55ea\u6742\u8d2813", "en_name": ["2-Hydroxy-3,4-dimethoxybenzaldehyde", "Benzaldehyde, 2-hydroxy-3,4-dimethoxy-", "Veratraldehyde, 2-hydroxy-", "2-Hydroxy-3,4-dimethoxybenzaldehyde", "3,4-Dimethoxysalicylaldehyde", "3,4-Dimethoxy-2-hydroxybenzaldehyde"], "SMILES": "O(C)C1=C(OC)C=CC(C=O)=C1O", "physical_data": {"Molecular Weight": "182.17", "Molecular Formula": "C9H10O4", "Boiling Point": "122 \u00b0C @ Press: 2 Torr", "Melting Point": "74 \u00b0C"}}