{"cas_no": "1929-88-0", "cn_name": "\u567b\u8349\u9686", "en_name": ["Benzthiazuron", "Urea, N-2-benzothiazolyl-N\u2032-methyl-", "Urea, 1-(2-benzothiazolyl)-3-methyl-", "N-2-Benzothiazolyl-N\u2032-methylurea", "Gatnon", "1-Methyl-3-(2-benzothiazolyl)urea", "Benzthiazuron", "1-(2-Benzothiazolyl)-3-methylurea", "Bayer 60618", "N-Methyl-N\u2032-(2-benzothiazolyl)urea", "1-(1,3-Benzothiazol-2-yl)-3-methyl urea", "NSC 202513", "1-(Benzo[d]thiazol-2-yl)-3-methylurea"], "SMILES": "N(C(NC)=O)C1=NC=2C(S1)=CC=CC2", "physical_data": {"Molecular Weight": "207.25", "Molecular Formula": "C9H9N3OS", "Melting Point": "265 \u00b0C"}}