{"cas_no": "1929-82-4", "cn_name": "2-\u6c2f-6-\u4e09\u6c2f\u7532\u57fa\u5421\u5576", "en_name": ["Nitrapyrin", "Pyridine, 2-chloro-6-(trichloromethyl)-", "2-Chloro-6-(trichloromethyl)pyridine", "N-Serve", "Nitrapyrin", "6-Chloro-2-(trichloromethyl)pyridine", "CP", "2-Trichloromethyl-6-chloropyridine", "N-Serve 24E", "Instinct GF 3181"], "SMILES": "C(Cl)(Cl)(Cl)C=1N=C(Cl)C=CC1", "physical_data": {"Molecular Weight": "230.91", "Molecular Formula": "C6H3Cl4N", "Boiling Point": "136-137.5 \u00b0C", "Melting Point": "63 \u00b0C"}}