{"cas_no": "1929-29-9", "cn_name": "3-(4-\u7532\u6c27\u57fa\u82ef\u57fa)\u4e19\u9178", "en_name": ["3-(4-Methoxyphenyl)propionic acid", "Benzenepropanoic acid, 4-methoxy-", "Hydrocinnamic acid, p-methoxy-", "4-Methoxybenzenepropanoic acid", "\u03b2-(p-Methoxyphenyl)propionic acid", "p-Methoxyhydrocinnamic acid", "p-Methoxybenzenepropionic acid", "3-(p-Methoxyphenyl)propionic acid", "3-(4-Methoxyphenyl)propanoic acid", "3-(p-Methoxyphenyl)propanoic acid", "3-(4-Methoxyphenyl)propionic acid", "4-Methoxyhydrocinnamic acid", "NSC 33134", "NSC 51509", "3-[4-(Methyloxy)phenyl]propanoic acid"], "SMILES": "C(CC(O)=O)C1=CC=C(OC)C=C1", "physical_data": {"Molecular Weight": "180.20", "Molecular Formula": "C10H12O3", "Melting Point": "98-100 \u00b0C"}}