{"cas_no": "1929-77-7", "cn_name": "\u706d\u8349\u731b", "en_name": ["S-Propyl dipropylthiocarbamate", "Carbamothioic acid, N,N-dipropyl-, S-propyl ester", "Carbamic acid, dipropylthio-, S-propyl ester", "Carbamothioic acid, dipropyl-, S-propyl ester", "R-1607", "Dipropylthiocarbamic acid S-propyl ester", "PPTC", "S-Propyl dipropylthiocarbamate", "Propyl dipropylthiolcarbamate", "Vernam", "Vernolate", "Vanalate", "S-n-Propyl N,N-dipropylthiocarbamate", "Perbulate"], "SMILES": "N(C(SCCC)=O)(CCC)CCC", "physical_data": {"Molecular Weight": "203.34", "Molecular Formula": "C10H21NOS", "Boiling Point": "149-150 \u00b0C @ Press: 30 Torr", "Melting Point": "&lt;25 \u00b0C", "Density": "0.954 g/cm\u00b3 @ Temp: 20 \u00b0C"}}