{"cas_no": "1929-73-3", "cn_name": "2,4-\u4e8c\u6c2f\u82ef\u6c27\u4e59\u9178\u4e01\u6c27\u57fa\u4e59\u57fa\u916f", "en_name": ["2,4-D Butotyl", "Acetic acid, 2-(2,4-dichlorophenoxy)-, 2-butoxyethyl ester", "Acetic acid, (2,4-dichlorophenoxy)-, 2-butoxyethyl ester", "Ethanol, 2-butoxy-, (2,4-dichlorophenoxy)acetate", "Butoxyethyl (2,4-dichlorophenoxy)acetate", "2,4-Dichlorophenoxyacetic acid butoxyethanol ester", "Planotox", "2,4-Dichlorophenoxyacetic acid butoxyethyl ester", "2,4-D Butoxyethanol ester", "2-Butoxyethyl 2,4-dichlorophenoxyacetate", "2,4-D Butoxyethyl ester", "Bladex B", "2,4-D 2-Butoxyethyl ester", "Weedone LV 4", "Brush Killer 64", "Butoxyethanol ester of 2,4-D", "2,4-DBEE", "Aqua-Kleen", "2,4-D Butotyl", "Desormone Lourd D", "Desormone 600", "2,4-D Butotyl ester"], "SMILES": "O(CC(OCCOCCCC)=O)C1=C(Cl)C=C(Cl)C=C1", "physical_data": {"Molecular Weight": "321.20", "Molecular Formula": "C14H18Cl2O4", "Boiling Point": "156-162 \u00b0C @ Press: 1-1.5 Torr", "Density": "1.232 g/cm\u00b3 @ Temp: 20 \u00b0C"}}