{"cas_no": "19293-62-0", "cn_name": "4,4'-\u4e8c\u7532\u6c27\u57fa\u4e8c\u82ef\u7532\u80fa", "en_name": ["4,4\u2032-Dimethoxybenzhydrylamine", "Benzenemethanamine, 4-methoxy-\u03b1-(4-methoxyphenyl)-", "Methylamine, 1,1-bis(p-methoxyphenyl)-", "4-Methoxy-\u03b1-(4-methoxyphenyl)benzenemethanamine", "4,4\u2032-Dimethoxybenzhydrylamine", "Bis(4-methoxyphenyl)methylamine", "Di-p-anisylmethylamine", "NSC 505712", "Bis(4-methoxyphenyl)methanamine"], "SMILES": "C(N)(C1=CC=C(OC)C=C1)C2=CC=C(OC)C=C2", "physical_data": {"Molecular Weight": "243.30", "Molecular Formula": "C15H17NO2", "Melting Point": "58-59 \u00b0C"}}