{"cas_no": "1929-30-2", "cn_name": "\u7532\u6c27\u57fa\u8089\u6842\u9178\u4e59\u916f", "en_name": ["Ethyl p-methoxycinnamate", "2-Propenoic acid, 3-(4-methoxyphenyl)-, ethyl ester", "Cinnamic acid, p-methoxy-, ethyl ester", "Ethyl p-methoxycinnamate", "Methyl-p-coumaric acid ethyl ester", "4-Methoxycinnamic acid ethyl ester", "Ethyl 4-methoxycinnamate", "3-(4-Methoxyphenyl)-2-propenoic acid ethyl ester", "NSC 26462", "NSC 44831", "NSC 636698", "Ethyl 3-(4-methoxyphenyl)acrylate", "3-(4-Methoxyphenyl)acrylic acid ethyl ester", "Ethyl 3-(4-methoxyphenyl)propenoate", "Ethyl 3-(4-methoxyphenyl)-2-propenoate"], "SMILES": "C(=CC(OCC)=O)C1=CC=C(OC)C=C1", "physical_data": {"Molecular Weight": "206.24", "Molecular Formula": "C12H14O3", "Boiling Point": "177-180 \u00b0C @ Press: 15 Torr", "Melting Point": "50 \u00b0C"}}