{"cas_no": "192944-51-7", "cn_name": "1H-\u5432\u5511-5-\u7532\u9178\u4e59\u916f", "en_name": ["Ethyl 1H-indazole-5-carboxylate", "1H-Indazole-5-carboxylic acid, ethyl ester", "Ethyl 1H-indazole-5-carboxylate"], "SMILES": "C(OCC)(=O)C=1C=C2C(=CC1)NN=C2", "physical_data": {"Molecular Weight": "190.20", "Molecular Formula": "C10H10N2O2", "Melting Point": "122-124 \u00b0C"}}