{"cas_no": "193-39-5", "cn_name": "\u831a\u5e76(1,2,3-CD)\u6bd4", "en_name": ["Indeno[1,2,3-cd]pyrene", "Indeno[1,2,3-cd]pyrene", "1,10-(o-Phenylene)pyrene", "1,10-(1,2-Phenylene)pyrene"], "SMILES": "C12=C3C=4C=5C=C1C=6C(C2=CC=C3C=CC4C=CC5)=CC=CC6", "physical_data": {"Molecular Weight": "276.33", "Molecular Formula": "C22H12", "Boiling Point": "536 \u00b0C", "Melting Point": "163.6 \u00b0C"}}