{"cas_no": "19309-14-9", "cn_name": "\u5c0f\u8c46\u853b\u660e", "en_name": ["Cardamonin", "2-Propen-1-one, 1-(2,4-dihydroxy-6-methoxyphenyl)-3-phenyl-, (2E)-", "Chalcone, 2\u2032,4\u2032-dihydroxy-6\u2032-methoxy-", "2-Propen-1-one, 1-(2,4-dihydroxy-6-methoxyphenyl)-3-phenyl-, (E)-", "(2E)-1-(2,4-Dihydroxy-6-methoxyphenyl)-3-phenyl-2-propen-1-one", "Cardamonin", "Alpinetin chalcone", "Cardamomin"], "SMILES": "C(C=CC1=CC=CC=C1)(=O)C2=C(OC)C=C(O)C=C2O", "physical_data": {"Molecular Weight": "270.28", "Molecular Formula": "C16H14O4", "Melting Point": "203-205 \u00b0C"}}