{"cas_no": "19309-90-1", "cn_name": "3-\u7532\u57fa\u4e19\u70ef\u9170\u6c27\u57fa\u4e19\u57fa\u53cc(\u4e09\u7532\u57fa\u7845\u6c27\u57fa)\u7532\u57fa\u7845\u70f7", "en_name": ["Methacryloxypropylbis(trimethylsiloxy)methylsilane", "2-Propenoic acid, 2-methyl-, 3-[1,3,3,3-tetramethyl-1-[(trimethylsilyl)oxy]-1-disiloxanyl]propyl ester", "Methacrylic acid, 3-[1,3,3,3-tetramethyl-1-(trimethylsiloxy)disiloxanyl]propyl ester", "2-Propenoic acid, 2-methyl-, 3-[1,3,3,3-tetramethyl-1-[(trimethylsilyl)oxy]disiloxanyl]propyl ester", "Methacryloxypropylbis(trimethylsiloxy)methylsilane", "(3-Methacryloxypropyl)bis(trimethylsiloxy)methylsilane", "Bis(trimethylsiloxy)methylsilylpropyl methacrylate", "3-Methacryloyloxypropylbis(trimethylsiloxy)methylsilane"], "SMILES": "[Si](CCCOC(C(C)=C)=O)(O[Si](C)(C)C)(O[Si](C)(C)C)C", "physical_data": {"Molecular Weight": "348.66", "Molecular Formula": "C14H32O4Si3", "Boiling Point": "83-85 \u00b0C @ Press: 1.5 Torr", "Density": "0.912 g/cm\u00b3"}}