{"cas_no": "1930-72-9", "cn_name": "4-\u6c2f-3,5-\u4e8c\u785d\u57fa\u82ef\u7532\u8148", "en_name": ["4-Chloro-3,5-dinitrobenzonitrile", "Benzonitrile, 4-chloro-3,5-dinitro-", "4-Chloro-3,5-dinitrobenzonitrile", "3,5-Dinitro-4-chlorobenzonitrile", "NSC 74453", "1-Chloro-4-cyano-2,6-dinitrobenzene"], "SMILES": "N(=O)(=O)C1=C(Cl)C(N(=O)=O)=CC(C#N)=C1", "physical_data": {"Molecular Weight": "227.56", "Molecular Formula": "C7H2ClN3O4", "Melting Point": "143-144.5 \u00b0C"}}