{"cas_no": "1931-62-0", "cn_name": "2-\u4e19\u70ef\u8fc7\u6c27\u9178-3-\u7fb0\u57fa-1-(1,1-\u4e8c\u7532\u57fa\u4e59\u57fa)\u916f", "en_name": ["tert-Butyl peroxymaleate", "2-Propeneperoxoic acid, 3-carboxy-, 1-(1,1-dimethylethyl) ester, (2Z)-", "Maleic monoperoxyacid, 1-tert-butyl ester", "Maleic monoperoxyacid, OO-tert-butyl ester", "2-Propeneperoxoic acid, 3-carboxy-, 1-(1,1-dimethylethyl) ester, (Z)-", "tert-Butyl monopermaleate", "tert-Butyl peroxymaleic acid", "tert-Butyl peroxymaleate", "tert-Butyl monoperoxymaleate", "Perbutyl MA 25", "Luperco PMA 25", "Perbutyl MA", "Peroxan PM 25", "Perkadox PF-MT 40", "Perkadox PF-MT 40Z", "Peroxan PM 25S"], "SMILES": "C(OOC(C)(C)C)(C=CC(O)=O)=O", "physical_data": {"Molecular Weight": "188.18", "Molecular Formula": "C8H12O5", "Melting Point": "130-131 \u00b0C"}}