{"cas_no": "1931-60-8", "cn_name": "\u8863\u5eb7\u9170\u6c2f", "en_name": ["2-Methylenebutanedioyl dichloride", "Butanedioyl dichloride, 2-methylene-", "Succinyl chloride, methylene-", "Butanedioyl dichloride, methylene-", "2-Methylenebutanedioyl dichloride", "Itaconic acid dichloride", "Itaconic acid chloride", "Methylenesuccinyl chloride", "Itaconoyl chloride", "Itaconoyl dichloride", "NSC 89694", "2-Methylidenebutanedioyl dichloride"], "SMILES": "C(CC(Cl)=O)(C(Cl)=O)=C", "physical_data": {"Molecular Weight": "166.99", "Molecular Formula": "C5H4Cl2O2", "Boiling Point": "98-100 \u00b0C @ Press: 16 Torr"}}