{"cas_no": "1931-44-8", "cn_name": "2-\u6c28\u57fa-7-\u7f9f\u57fa-1,8-\u8418\u5576", "en_name": ["2-Amino-7-hydroxy-1,8-naphthyridine", "1,8-Naphthyridin-2(1H)-one, 7-amino-", "1,8-Naphthyridin-2-ol, 7-amino-", "7-Amino-1,8-naphthyridin-2(1H)-one", "7-Amino-1,8-naphthyridin-2-one", "2-Amino-7-hydroxy-1,8-naphthyridine", "2-Amino-1,8-naphthyridin-7-ol", "7-Amino-1,8-naphthyridin-2-ol"], "SMILES": "NC=1NC=2C(C=CC(=O)N2)=CC1", "physical_data": {"Molecular Weight": "161.16", "Molecular Formula": "C8H7N3O", "Melting Point": "&gt;360 \u00b0C"}}