{"cas_no": "19311-91-2", "cn_name": "N,N-\u4e8c\u4e59\u57fa\u6c34\u6768\u9170\u80fa", "en_name": ["N,N-Diethyl-2-hydroxybenzamide", "Benzamide, N,N-diethyl-2-hydroxy-", "Salicylamide, N,N-diethyl-", "N,N-Diethyl-2-hydroxybenzamide", "N,N-Diethylsalicylamide", "Diethylsalicylamide", "2-Hydroxy-N,N-diethylbenzamide"], "SMILES": "C(N(CC)CC)(=O)C1=C(O)C=CC=C1", "physical_data": {"Molecular Weight": "193.24", "Molecular Formula": "C11H15NO2", "Boiling Point": "165-170 \u00b0C @ Press: 15 Torr", "Melting Point": "103-104 \u00b0C"}}