{"cas_no": "19317-11-4", "cn_name": "3,7,11-\u4e09\u7532\u57fa-2,6,10-\u5341\u4e8c\u70f7\u4e09\u70ef\u919b", "en_name": ["Farnesal", "2,6,10-Dodecatrienal, 3,7,11-trimethyl-", "Farnesal", "3,7,11-Trimethyl-2,6,10-dodecatrienal", "Farnesone"], "SMILES": "C(=CCCC(=CC=O)C)(CCC=C(C)C)C", "physical_data": {"Molecular Weight": "220.35", "Molecular Formula": "C15H24O", "Boiling Point": "172-174 \u00b0C @ Press: 14 Torr", "Density": "0.893 g/cm\u00b3 @ Temp: 18 \u00b0C"}}