{"cas_no": "19315-93-6", "cn_name": "2,6-\u4e8c\u7f9f\u57fa\u55b9\u5549", "en_name": ["6-Hydroxy-2(1H)-quinolinone", "2(1H)-Quinolinone, 6-hydroxy-", "2,6-Quinolinediol", "6-Hydroxy-2(1H)-quinolinone", "6-Hydroxycarbostyril", "6-Hydroxyquinolin-2-one", "2,6-Dihydroxyquinoline", "6-Hydroxy-1H-quinolin-2-one"], "SMILES": "OC=1C=C2C(NC(=O)C=C2)=CC1", "physical_data": {"Molecular Weight": "161.16", "Molecular Formula": "C9H7NO2", "Melting Point": "328-332 \u00b0C"}}