{"cas_no": "1932-04-3", "cn_name": "1,2-\u4e8c\u54cc\u5576\u57fa\u4e59\u70f7", "en_name": ["1,2-Dipiperidinoethane", "Piperidine, 1,1\u2032-(1,2-ethanediyl)bis-", "Piperidine, 1,1\u2032-ethylenedi-", "1,1\u2032-(1,2-Ethanediyl)bis[piperidine]", "1,2-Dipiperidinylethane", "1,2-Dipiperidinoethane", "1,2-Bis(N-piperidinyl)ethane", "1,2-Bis(1-piperidinyl)ethane", "NSC 59292", "1,2-(Piperidin-1-yl)ethane", "1-[2-(Piperidin-1-yl)ethyl]piperidine", "1-(2-Piperidin-1-ylethyl)piperidine", "1,2-Di(piperidin-1-yl)ethane"], "SMILES": "C(CN1CCCCC1)N2CCCCC2", "physical_data": {"Molecular Weight": "196.33", "Molecular Formula": "C12H24N2", "Boiling Point": "265 \u00b0C", "Melting Point": "-0.5 \u00b0C", "Density": "0.9236 g/cm\u00b3 @ Temp: 16.5 \u00b0C"}}