{"cas_no": "1932-03-2", "cn_name": "1-(2-\u6c2f\u4e59\u57fa)\u54cc\u5576", "en_name": ["1-(2-Chloroethyl)piperidine", "Piperidine, 1-(2-chloroethyl)-", "1-(2-Chloroethyl)piperidine", "N-(\u03b2-Chloroethyl)piperidine", "N-(2-Chloroethyl)piperidine", "SKF 191", "2-Piperidinoethyl chloride", "2-(1-Piperidyl)ethyl chloride", "\u03b2-Piperidinoethyl chloride", "1-Chloro-2-piperidinoethane", "N-(2-Chlorethyl)piperidine", "1-Piperidino-2-chloroethane", "1-(\u03b2-Chloroethyl)piperidine", "2-(Piperidin-1-yl)ethyl chloride", "1-(3-Chloroethyl)piperidine", "2-Piperidino-1-chloroethane", "2-Chloroethyl piperidine"], "SMILES": "C(CCl)N1CCCCC1", "physical_data": {"Molecular Weight": "147.65", "Molecular Formula": "C7H14ClN", "Boiling Point": "47 \u00b0C @ Press: 1 Torr", "Melting Point": "229-230 \u00b0C"}}