{"cas_no": "19322-27-1", "cn_name": "\u83ca\u82e3\u916e", "en_name": ["4-Hydroxy-5-methyl-3(2H)-furanone", "3(2H)-Furanone, 4-hydroxy-5-methyl-", "4-Hydroxy-5-methyl-3(2H)-furanone", "5-Methyl-4-hydroxy-2,3-dihydrofuran-3-one", "4-Hydroxy-5-methyl-2,3-dihydrofuran-3-one", "5-Methyl-4-hydroxy-3(2H)-furanone", "Norfuraneol", "Norfuronol"], "SMILES": "OC=1C(=O)COC1C", "physical_data": {"Molecular Weight": "114.10", "Molecular Formula": "C5H6O3", "Melting Point": "127-128 \u00b0C"}}