{"cas_no": "19329-89-6", "cn_name": "\u4e73\u9178\u5f02\u620a\u916f", "en_name": ["Isoamyl lactate", "Propanoic acid, 2-hydroxy-, 3-methylbutyl ester", "Lactic acid, isopentyl ester", "Isopentyl alcohol, lactate", "Isoamyl lactate", "Isopentyl 2-hydroxypropanoate", "Isopentyl lactate", "3-Methylbutyl lactate", "3-Methylbutyl 2-hydroxypropanoate"], "SMILES": "O(C(C(C)O)=O)CCC(C)C", "physical_data": {"Molecular Weight": "160.21", "Molecular Formula": "C8H16O3", "Boiling Point": "202.4 \u00b0C"}}