{"cas_no": "1932-92-9", "cn_name": "\u4e19\u9178\u4e19\u7094\u916f", "en_name": ["2-Propyn-1-ol, 1-propanoate", "2-Propyn-1-ol, 1-propanoate", "2-Propyn-1-ol, propionate", "2-Propyn-1-ol, propanoate", "Propionic acid, 2-propynyl ester", "2-Propynyl propanoate", "Propargyl propionate", "Prop-2-ynyl propionate"], "SMILES": "C(OCC#C)(CC)=O", "physical_data": {"Molecular Weight": "112.13", "Molecular Formula": "C6H8O2", "Boiling Point": "137-138 \u00b0C", "Density": "0.969 g/cm\u00b3 @ Temp: 20 \u00b0C"}}