{"cas_no": "19339-59-4", "cn_name": "4-\u6c2f\u82ef\u7532\u9170\u7532\u57fa\u786b\u6c30\u9178\u916f", "en_name": ["Thiocyanic acid, 2-(4-chlorophenyl)-2-oxoethyl ester", "Thiocyanic acid, 2-(4-chlorophenyl)-2-oxoethyl ester", "Thiocyanic acid, p-chlorophenacyl ester", "p-Chlorobenzoylmethyl thiocyanate", "1-(4-Chlorophenyl)-2-thiocyanatoethanone", "p-Chlorophenacyl thiocyanate", "4-Chlorophenacyl thiocyanate", "NSC 100737", "NSC 45262", "1-(4-Chlorophenyl)-2-(cyanosulfanyl)ethan-1-one", "2-(4-Chlorophenyl)-2-oxoethyl thiocyanate"], "SMILES": "C(CSC#N)(=O)C1=CC=C(Cl)C=C1", "physical_data": {"Molecular Weight": "211.67", "Molecular Formula": "C9H6ClNOS", "Melting Point": "138.6-139.2 \u00b0C"}}