{"cas_no": "19335-11-6", "cn_name": "5-\u6c28\u57fa\u5432\u5511", "en_name": ["1H-Indazol-5-amine", "1H-Indazol-5-amine", "1H-Indazole, 5-amino-", "5-Aminoindazole", "5-Amino-1H-indazole", "5-Indazolylamine", "5-Indazolamine", "5-Aminobenzopyrazole", "1H-Indazol-5-ylamine", "NSC 44676", "AC 30454"], "SMILES": "NC=1C=C2C(=CC1)NN=C2", "physical_data": {"Molecular Weight": "133.15", "Molecular Formula": "C7H7N3", "Melting Point": "175-178 \u00b0C"}}