{"cas_no": "19337-97-4", "cn_name": "trans-3-(3-\u5421\u5576)\u4e19\u70ef\u9178", "en_name": ["trans-3-(3-Pyridyl)acrylic acid", "2-Propenoic acid, 3-(3-pyridinyl)-, (2E)-", "3-Pyridineacrylic acid, (E)-", "2-Propenoic acid, 3-(3-pyridinyl)-, (E)-", "(2E)-3-(3-Pyridinyl)-2-propenoic acid", "trans-3-Pyridineacrylic acid", "(E)-3-Pyridineacrylic acid", "trans-3-(3-Pyridyl)propenoic acid", "trans-3-(3-Pyridyl)acrylic acid", "trans-3-(3-Pyridinyl)acrylic acid", "(2E)-3-(Pyridin-3-yl)prop-2-enoic acid", "(E)-3-(Pyridin-3-yl)-2-propenoic acid", "(E)-3-(Pyridin-3-yl)acrylic acid", "(E)-3-(Pyridin-3-yl)acrylic acid", "(E)-3-(Pyridin-3-yl)prop-2-enoic acid", "trans-\u03b2-(3-Pyridinyl)acrylic acid", "trans-3-(3-Pyridyl)-2-propenoic acid", "(E)-3-(3-Pyridyl)acrylic acid", "(E)-3-(3-Pyridyl)prop-2-enoic acid"], "SMILES": "C(=CC(O)=O)C=1C=CC=NC1", "physical_data": {"Molecular Weight": "149.15", "Molecular Formula": "C8H7NO2", "Melting Point": "232-234 \u00b0C"}}