{"cas_no": "19342-01-9", "cn_name": "(R)-(+)-N,N-\u4e8c\u7532\u57fa-1-\u82ef\u4e59\u80fa", "en_name": ["(\u03b1R)-N,N,\u03b1-Trimethylbenzenemethanamine", "Benzenemethanamine, N,N,\u03b1-trimethyl-, (\u03b1R)-", "Benzylamine, N,N,\u03b1-trimethyl-, L-(+)-", "Benzenemethanamine, N,N,\u03b1-trimethyl-, (R)-", "(\u03b1R)-N,N,\u03b1-Trimethylbenzenemethanamine", "(R)-(+)-N,N-Dimethyl-1-phenylethylamine", "(+)-N,N-Dimethyl-\u03b1-methylbenzylamine", "(+)-(R)-N,N-Dimethyl-\u03b1-phenylethylamine", "(+)-N,N,\u03b1-Trimethylbenzylamine", "(R)-\u03b1-Methylbenzyldimethylamine", "(R)-N,N-Dimethyl-1-phenylethylamine", "(R)-Dimethyl(1-phenylethyl)amine", "(R)-[1-(Dimethylamino)ethyl]benzene", "(R)-(+)-N,N-Dimethyl-1-phenylethylamine", "(1R)-N,N-Dimethyl-1-phenylethanamine"], "SMILES": "C(N(C)C)(C)C1=CC=CC=C1", "physical_data": {"Molecular Weight": "149.23", "Molecular Formula": "C10H15N", "Boiling Point": "78-78.5 \u00b0C @ Press: 15 Torr", "Density": "0.9027 g/cm\u00b3 @ Temp: 20 \u00b0C"}}