{"cas_no": "1934-75-4", "cn_name": "\u4e8c\u6c30\u80fa\u94a0", "en_name": ["Sodium dicyanamide", "Cyanamide, N-cyano-, sodium salt (1:1)", "Sodium dicyanamide", "Dicyanamide, sodium salt", "Cyanamide, cyano-, sodium salt", "Sodium dicyanoamidate(1-)"], "SMILES": "N(C#N)C#N.[Na]", "physical_data": {"Molecular Weight": "", "Molecular Formula": "C2HN3.Na", "Melting Point": "315 \u00b0C"}}