{"cas_no": "19343-78-3", "cn_name": "1,2,3,4-\u56db\u6c22-4-\u7532\u57fa\u55b9\u5549", "en_name": ["4-Methyl-1,2,3,4-tetrahydroquinoline", "Quinoline, 1,2,3,4-tetrahydro-4-methyl-", "Lepidine, 1,2,3,4-tetrahydro-", "1,2,3,4-Tetrahydro-4-methylquinoline", "4-Methyl-1,2,3,4-tetrahydroquinoline", "1,2,3,4-Tetrahydrolepidine"], "SMILES": "CC1C=2C(NCC1)=CC=CC2", "physical_data": {"Molecular Weight": "147.22", "Molecular Formula": "C10H13N", "Boiling Point": "143-144 \u00b0C", "Density": "1.0231 g/cm\u00b3 @ Temp: 20 \u00b0C"}}