{"cas_no": "19347-73-0", "cn_name": "6-\u6c2f\u5df1\u9170\u6c2f", "en_name": ["6-Chlorohexanoyl chloride", "Hexanoyl chloride, 6-chloro-", "6-Chlorohexanoyl chloride", "\u03b5-Chlorocapronyl chloride", "6-Chlorocaproyl chloride"], "SMILES": "C(CC(Cl)=O)CCCCl", "physical_data": {"Molecular Weight": "169.05", "Molecular Formula": "C6H10Cl2O", "Boiling Point": "54-57 \u00b0C @ Press: 0.15 Torr"}}