{"cas_no": "1934-71-0", "cn_name": "1-PHENYLCYCLOHEXYLAMINE HYDROCHLORIDE", "en_name": ["Cyclohexanamine, 1-phenyl-, hydrochloride (1:1)", "Cyclohexanamine, 1-phenyl-, hydrochloride (1:1)", "Cyclohexylamine, 1-phenyl-, hydrochloride", "Cyclohexanamine, 1-phenyl-, hydrochloride", "CI 401", "1-Phenylcyclohexylamine hydrochloride", "1-Amino-1-phenylcyclohexane hydrochloride", "IEM 1921", "1-Phenylcyclohexan-1-amine hydrochloride"], "SMILES": "NC1(CCCCC1)C2=CC=CC=C2.Cl", "physical_data": {"Molecular Weight": "", "Molecular Formula": "C12H17N.ClH", "Melting Point": "247-248 \u00b0C"}}