{"cas_no": "193410-84-3", "cn_name": "\u5c71\u6912\u5b50\u70ef\u916e", "en_name": ["Zeylenone", "2-Cyclohexen-1-one, 4-(benzoyloxy)-6-[(benzoyloxy)methyl]-5,6-dihydroxy-, (4R,5S,6S)-", "2-Cyclohexen-1-one, 4-(benzoyloxy)-6-[(benzoyloxy)methyl]-5,6-dihydroxy-, [4R-(4\u03b1,5\u03b2,6\u03b2)]-", "(4R,5S,6S)-4-(Benzoyloxy)-6-[(benzoyloxy)methyl]-5,6-dihydroxy-2-cyclohexen-1-one", "Zeylenone", "Tonkinenin A", "(-)-Zeylenone"], "SMILES": "C(OC(=O)C1=CC=CC=C1)C2(O)C(O)C(OC(=O)C3=CC=CC=C3)C=CC2=O", "physical_data": {"Molecular Weight": "382.36", "Molecular Formula": "C21H18O7", "Melting Point": "150-152 \u00b0C"}}