{"cas_no": "19351-18-9", "cn_name": "2,2-\u4e8c\u7532\u57fa\u567b\u5511\u70f7", "en_name": ["2,2-Dimethylthiazolidine", "Thiazolidine, 2,2-dimethyl-", "2,2-Dimethylthiazolidine", "2,2-Dimethyl-1,3-thiazolidine", "2,2-Dimethyltetrahydrothiazole"], "SMILES": "CC1(C)NCCS1", "physical_data": {"Molecular Weight": "117.21", "Molecular Formula": "C5H11NS", "Boiling Point": "61 \u00b0C @ Press: 15 Torr"}}