{"cas_no": "19353-92-5", "cn_name": "\u5bf9\u4e8c\u7532\u6c28\u57fa\u82ef\u7532\u9170\u80bc", "en_name": ["4-(Dimethylamino)benzohydrazide", "Benzoic acid, 4-(dimethylamino)-, hydrazide", "Benzoic acid, p-(dimethylamino)-, hydrazide", "p-(Dimethylamino)benzoic acid hydrazide", "4-(Dimethylamino)benzoylhydrazine", "4-Dimethylaminobenzoic acid hydrazide", "4-(Dimethylamino)benzenecarbohydrazide", "4-(Dimethylamino)benzohydrazide", "NSC 219987", "4-Dimethylaminobenzhydrazide", "4-(Dimethylamino)benzoylhydrazide", "4-(Dimethylamino)benzocarbohydrazide", "p-(Dimethylamino)benzoyl hydrazide"], "SMILES": "C(NN)(=O)C1=CC=C(N(C)C)C=C1", "physical_data": {"Molecular Weight": "179.22", "Molecular Formula": "C9H13N3O", "Melting Point": "170-171 \u00b0C"}}