{"cas_no": "19355-69-2", "cn_name": "N-\u6c30\u57fa-N'-\u7532\u57fa\u4e59\u8112", "en_name": ["2-Amino-2-methylpropanenitrile", "Propanenitrile, 2-amino-2-methyl-", "Propionitrile, 2-amino-2-methyl-", "2-Amino-2-methylpropanenitrile", "\u03b1-Aminoisobutyronitrile", "1-Cyano-1-methylethylamine", "2-Amino-2-methylpropionitrile", "2-Amino-2-cyanopropane", "2-Cyanoisopropylamine", "2-Aminoisobutyronitrile", "2-Aminopropane-2-carbonitrile", "Aminodimethylacetonitrile", "\u03b1-Amino-\u03b1-methylpropionitrile"], "SMILES": "C(C#N)(C)(C)N", "physical_data": {"Molecular Weight": "84.12", "Molecular Formula": "C4H8N2", "Boiling Point": "51-52 \u00b0C @ Press: 15 Torr", "Density": "0.885 g/cm\u00b3 @ Temp: 25 \u00b0C"}}