{"cas_no": "19360-67-9", "cn_name": "4-\u7fa7\u57fa\u82ef\u6c27\u4e59\u9178", "en_name": ["4-(Carboxymethoxy)benzoic acid", "Benzoic acid, 4-(carboxymethoxy)-", "p-Anisic acid, \u03b1-carboxy-", "4-(Carboxymethoxy)benzoic acid", "4-Carboxyphenoxyacetic acid", "4-Carboxy-1-(carboxymethoxy)benzene", "NSC 190728", "4-Carboxylphenoxyacetic acid"], "SMILES": "C(O)(=O)C1=CC=C(OCC(O)=O)C=C1", "physical_data": {"Molecular Weight": "196.16", "Molecular Formula": "C9H8O5", "Melting Point": "280-282 \u00b0C"}}