{"cas_no": "193693-68-4", "cn_name": "Fmoc-Nip-OH", "en_name": ["1-(9H-Fluoren-9-ylmethyl) (3S)-1,3-piperidinedicarboxylate", "1,3-Piperidinedicarboxylic acid, 1-(9H-fluoren-9-ylmethyl) ester, (3S)-", "1,3-Piperidinedicarboxylic acid, 1-(9H-fluoren-9-ylmethyl) ester, (S)-", "1-(9H-Fluoren-9-ylmethyl) (3S)-1,3-piperidinedicarboxylate", "(3S)-1-[(9H-Fluoren-9-ylmethoxy)carbonyl]piperidine-3-carboxylic acid", "(S)-Fmoc-nipecotic acid"], "SMILES": "C(OC(=O)N1CC(C(O)=O)CCC1)C2C=3C(C=4C2=CC=CC4)=CC=CC3", "physical_data": {"Molecular Weight": "351.40", "Molecular Formula": "C21H21NO4", "Melting Point": "160-161 \u00b0C"}}