{"cas_no": "19368-18-4", "cn_name": "2-(2,6-\u4e8c\u7532\u57fa\u82ef\u57fa\u6c28\u57fa\u7532\u9170\u57fa)\u5b89\u606f\u9999\u9178", "en_name": ["2-[[(2,6-Dimethylphenyl)amino]carbonyl]benzoic acid", "Benzoic acid, 2-[[(2,6-dimethylphenyl)amino]carbonyl]-", "Phthalanilic acid, 2\u2032,6\u2032-dimethyl-", "2-[[(2,6-Dimethylphenyl)amino]carbonyl]benzoic acid", "Ftaxilide", "NSC 16112", "2-[(2,6-Dimethylphenyl)carbamoyl]benzoic acid"], "SMILES": "C(NC1=C(C)C=CC=C1C)(=O)C2=C(C(O)=O)C=CC=C2", "physical_data": {"Molecular Weight": "269.30", "Molecular Formula": "C16H15NO3", "Melting Point": "188-189 \u00b0C"}}