{"cas_no": "1936-96-5", "cn_name": "\u9178\u6027\u6a59G", "en_name": ["Thiocyanic acid, 3-methyl-2-buten-1-yl ester", "Thiocyanic acid, 3-methyl-2-buten-1-yl ester", "Thiocyanic acid, 3-methyl-2-butenyl ester", "3-Methyl-2-buten-1-yl thiocyanate", "1-Thiocyanato-3-methyl-2-butene"], "SMILES": "C(CSC#N)=C(C)C", "physical_data": {"Molecular Weight": "127.21", "Molecular Formula": "C6H9NS", "Boiling Point": "30-32 \u00b0C @ Press: 0.1 Torr"}}