{"cas_no": "19365-08-3", "cn_name": "3-\u7f9f\u57fa-2-\u54cc\u5576\u916e", "en_name": ["3-Hydroxypiperidin-2-one", "2-Piperidinone, 3-hydroxy-", "2-Piperidone, 3-hydroxy-", "3-Hydroxy-2-piperidinone", "3-Hydroxy-2-piperidone", "2-Hydroxyvalerolactam", "NSC 100722", "3-Hydroxypiperidin-2-one"], "SMILES": "OC1C(=O)NCCC1", "physical_data": {"Molecular Weight": "115.13", "Molecular Formula": "C5H9NO2", "Melting Point": "141-142 \u00b0C"}}