{"cas_no": "1937-19-5", "cn_name": "\u80bc\u7532\u9170\u4e9a\u80fa\u9170\u80fa\u4e00\u6c2f\u5316\u6c22", "en_name": ["Aminoguanidinium chloride", "Hydrazinecarboximidamide, hydrochloride (1:1)", "Guanidine, amino-, monohydrochloride", "Hydrazinecarboximidamide, monohydrochloride", "Aminoguanidine monohydrochloride", "Aminoguanidine hydrochloride", "GER 11", "Pimagedine hydrochloride", "Aminoguanidinium chloride"], "SMILES": "C(NN)(=N)N.Cl", "physical_data": {"Molecular Weight": "", "Molecular Formula": "CH6N4.ClH", "Melting Point": "163-164 \u00b0C"}}