{"cas_no": "1937-62-8", "cn_name": "\u53cd-9-\u5341\u516b\u78b3\u70ef\u9178\u7532\u916f", "en_name": ["Methyl elaidate", "9-Octadecenoic acid, methyl ester, (9E)-", "Elaidic acid, methyl ester", "9-Octadecenoic acid, methyl ester, (E)-", "Methyl elaidate", "Methyl trans-9-octadecenoate", "Methyl 9(E)-octadecenoate", "9(E)-Octadecenoic acid methyl ester", "trans-Oleic acid methyl ester"], "SMILES": "C(CCC=CCCCCCCCC)CCCCC(OC)=O", "physical_data": {"Molecular Weight": "296.49", "Molecular Formula": "C19H36O2", "Boiling Point": "164-165 \u00b0C @ Press: 0.5 Torr", "Melting Point": "10.75 \u00b0C", "Density": "0.8790 g/cm\u00b3 @ Temp: 16 \u00b0C"}}