{"cas_no": "19379-90-9", "cn_name": "N-\u5341\u4e8c\u70f7\u57fa-N,N-\u53cc(2-\u7f9f\u57fa\u4e59\u57fa)\u82ef\u7532\u57fa\u6c2f\u5316\u94f5", "en_name": ["Benzoxonium chloride", "Benzenemethanaminium, N-dodecyl-N,N-bis(2-hydroxyethyl)-, chloride (1:1)", "Ammonium, benzyldodecylbis(2-hydroxyethyl)-, chloride", "Benzenemethanaminium, N-dodecyl-N,N-bis(2-hydroxyethyl)-, chloride", "Benzyldodecylbis(2-hydroxyethyl)ammonium chloride", "Absonal", "Bradophen", "Dodecylbis(\u03b2-hydroxyethyl)benzylammonium chloride", "Beloran", "Dodecyldi(\u03b2-hydroxyethyl)benzylammonium chloride", "Cohortan", "D 301 (antiseptic)", "Dodecyl(benzyl)diethanolammonium chloride", "Benzyldodecyldiethanolammonium chloride", "Laurylbis(2-hydroxyethyl)benzylammonium chloride", "Lomades", "Bactofen", "Benzoxonium chloride", "D 301", "Katanol C12", "Zy 15021", "Bradophen 100M", "Bialcol", "Orofar", "Absonal V"], "SMILES": "[N+](CC1=CC=CC=C1)(CCCCCCCCCCCC)(CCO)CCO.[Cl-]", "physical_data": {"Molecular Weight": "", "Molecular Formula": "C23H42NO2.Cl", "Melting Point": "108 \u00b0C"}}