{"cas_no": "19388-87-5", "cn_name": "\u725b\u78fa\u7f57\u5b9a", "en_name": ["Taurolidine", "2H-1,2,4-Thiadiazine, 4,4\u2032-methylenebis[tetrahydro-, 1,1,1\u2032,1\u2032-tetraoxide", "Taurolin", "4,4\u2032-Methylenebis(perhydro-1,2,4-thiadiazin 1,1-dioxide)", "Tauroline", "Taurolidine", "T 7329"], "SMILES": "C(N1CCS(=O)(=O)NC1)N2CCS(=O)(=O)NC2", "physical_data": {"Molecular Weight": "284.36", "Molecular Formula": "C7H16N4O4S2", "Melting Point": "156 \u00b0C"}}