{"cas_no": "19387-91-8", "cn_name": "\u66ff\u785d\u5511", "en_name": ["Tinidazole", "1H-Imidazole, 1-[2-(ethylsulfonyl)ethyl]-2-methyl-5-nitro-", "Imidazole, 1-[2-(ethylsulfonyl)ethyl]-2-methyl-5-nitro-", "1-[2-(Ethylsulfonyl)ethyl]-2-methyl-5-nitro-1H-imidazole", "Tinidazole", "1-(Ethylsulfonylethyl)-2-methyl-5-nitroimidazole", "CP 12574", "Ethyl [2-(2-methyl-5-nitroimidazol-1-yl)ethyl] sulfone", "Tinidazol", "Glongyn", "Fasigyn", "Bioshik", "Sorquetan", "Trimonase", "Simplotan", "Fasigin", "Tricolam", "Pletil", "Tiprogyn", "Tini 300", "Tindamax", "Amtiba", "1-(2-Ethylsulfonylethyl)-2-methyl-5-nitroimidazole", "Protozol", "1-[2\u2032-(Ethylsulfonyl)-ethyl]-2-methyl-5-nitroimidazole", "1-[2-(Ethanesulfonyl)ethyl]-2-methyl-5-nitro-1H-imidazole", "1-(2-Ethanesulfonyl-ethyl)-2-methyl-5-nitro-1H-imidazole", "Sporinex", "MeSH ID: D014011"], "SMILES": "C(CS(CC)(=O)=O)N1C(N(=O)=O)=CN=C1C", "physical_data": {"Molecular Weight": "247.27", "Molecular Formula": "C8H13N3O4S", "Melting Point": "127-128 \u00b0C"}}