{"cas_no": "19386-06-2", "cn_name": "ETHYL 3-(1-ADAMANTYL)-3-OXOPROPANOATE", "en_name": ["Ethyl 3-(adamant-1-yl)-3-oxopropionate", "Tricyclo[3.3.1.13,7]decane-1-propanoic acid, \u03b2-oxo-, ethyl ester", "1-Adamantanepropionic acid, \u03b2-oxo-, ethyl ester", "Ethyl 3-(adamant-1-yl)-3-oxopropionate", "3-Adamantan-1-yl-3-oxo-propionic acid ethyl ester"], "SMILES": "C(CC(OCC)=O)(=O)C12CC3CC(C1)CC(C2)C3", "physical_data": {"Molecular Weight": "250.33", "Molecular Formula": "C15H22O3", "Boiling Point": "108-110 \u00b0C @ Press: 0.06 Torr", "Melting Point": "108-110 \u00b0C"}}