{"cas_no": "19395-41-6", "cn_name": "\u03b1-\u82ef\u57fa\u54cc\u5576\u57fa-2-\u4e59\u9178", "en_name": ["2-Piperidineacetic acid, \u03b1-phenyl-", "2-Piperidineacetic acid, \u03b1-phenyl-", "\u03b1-Phenyl-2-piperidineacetic acid", "Ritalinic acid", "Rilatinic acid", "2-Phenyl-2-(piperidin-2-yl)acetic acid", "2-Phenyl-2-piperidin-2-ylacetic acid"], "SMILES": "C(C(O)=O)(C1=CC=CC=C1)C2CCCCN2", "physical_data": {"Molecular Weight": "219.28", "Molecular Formula": "C13H17NO2", "Melting Point": "248 \u00b0C (decomp)"}}