{"cas_no": "193954-27-7", "cn_name": "Fmoc-L-beta-\u9ad8\u5f02\u4eae\u6c28\u9178", "en_name": ["(3R,4S)-3-[[(9H-Fluoren-9-ylmethoxy)carbonyl]amino]-4-methylhexanoic acid", "Hexanoic acid, 3-[[(9H-fluoren-9-ylmethoxy)carbonyl]amino]-4-methyl-, (3R,4S)-", "Hexanoic acid, 3-[[(9H-fluoren-9-ylmethoxy)carbonyl]amino]-4-methyl-, [R-(R*,S*)]-", "(3R,4S)-3-[[(9H-Fluoren-9-ylmethoxy)carbonyl]amino]-4-methylhexanoic acid"], "SMILES": "C(OC(NC(C(CC)C)CC(O)=O)=O)C1C=2C(C=3C1=CC=CC3)=CC=CC2", "physical_data": {"Molecular Weight": "367.44", "Molecular Formula": "C22H25NO4", "Melting Point": "98-100 \u00b0C"}}