{"cas_no": "19396-83-9", "cn_name": "\u53cc\u73af[2.2.1]\u5e9a\u70f7-2-\u7532\u919b", "en_name": ["Bicyclo[2.2.1]heptane-2-carboxaldehyde", "Bicyclo[2.2.1]heptane-2-carboxaldehyde", "2-Norbornanecarboxaldehyde", "2-Norbornanecarbaldehyde", "2-Formylbicyclo[2.2.1]heptane"], "SMILES": "C(=O)C1C2CC(C1)CC2", "physical_data": {"Molecular Weight": "124.18", "Molecular Formula": "C8H12O", "Boiling Point": "75-76 \u00b0C @ Press: 25 Torr"}}