{"cas_no": "19398-47-1", "cn_name": "1,4-\u4e8c\u6eb4-2-\u4e01\u9187", "en_name": ["1,4-Dibromo-2-butanol", "2-Butanol, 1,4-dibromo-", "1,4-Dibromo-2-butanol", "2-Hydroxy-1,4-dibromobutane", "\u03c9,\u03c9\u2032-Dibromobutan-2-ol", "NSC 84192"], "SMILES": "C(CCBr)(CBr)O", "physical_data": {"Molecular Weight": "231.91", "Molecular Formula": "C4H8Br2O", "Boiling Point": "114-115 \u00b0C @ Press: 13 Torr", "Density": "1.96 g/cm\u00b3 @ Temp: 20 \u00b0C"}}