{"cas_no": "19398-61-9", "cn_name": "2\uff0c5-\u4e8c\u6c2f\u7532\u82ef", "en_name": ["2,5-Dichlorotoluene", "Benzene, 1,4-dichloro-2-methyl-", "Toluene, 2,5-dichloro-", "1,4-Dichloro-2-methylbenzene", "2,5-Dichlorotoluene", "NSC 86117"], "SMILES": "CC1=C(Cl)C=CC(Cl)=C1", "physical_data": {"Molecular Weight": "161.03", "Molecular Formula": "C7H6Cl2", "Boiling Point": "200 \u00b0C", "Melting Point": "5 \u00b0C"}}