{"cas_no": "19398-53-9", "cn_name": "\u4e8c\u6eb4\u620a\u70f7", "en_name": ["2,4-Dibromopentane", "Pentane, 2,4-dibromo-", "2,4-Dibromopentane"], "SMILES": "C(C(Br)C)C(Br)C", "physical_data": {"Molecular Weight": "229.94", "Molecular Formula": "C5H10Br2", "Boiling Point": "70 \u00b0C @ Press: 17 Torr", "Density": "1.6302 g/cm\u00b3 @ Temp: 20 \u00b0C"}}