{"cas_no": "19396-06-6", "cn_name": "\u591a\u6297\u9709\u7d20 B", "en_name": ["Polyoxin B", "\u03b2-D-Allofuranuronic acid, 5-[[2-amino-5-O-(aminocarbonyl)-2-deoxy-L-xylonoyl]amino]-1,5-dideoxy-1-[3,4-dihydro-5-(hydroxymethyl)-2,4-dioxo-1(2H)-pyrimidinyl]-", "Polyoxin B", "Allofuranuronic acid, 5-(2-amino-2-deoxy-L-xylonamido)-1,5-dideoxy-1-[3,4-dihydro-5-(hydroxymethyl)-2,4-dioxo-1(2H)-pyrimidinyl]-, monocarbamate (ester), \u03b2-D-", "5-[[2-Amino-5-O-(aminocarbonyl)-2-deoxy-L-xylonoyl]amino]-1,5-dideoxy-1-[3,4-dihydro-5-(hydroxymethyl)-2,4-dioxo-1(2H)-pyrimidinyl]-\u03b2-D-allofuranuronic acid", "Milpan", "Polar", "Polar (antibiotic)", "Duoyangqing"], "SMILES": "OC1C(OC(C(NC(C(C(C(COC(N)=O)O)O)N)=O)C(O)=O)C1O)N2C=C(CO)C(=O)NC2=O", "physical_data": {"Molecular Weight": "507.41", "Molecular Formula": "C17H25N5O13", "Melting Point": "150-153 \u00b0C (decomp)"}}