{"cas_no": "19398-77-7", "cn_name": "3,4-\u4e8c\u4e59\u57fa\u6b63\u5df1\u70f7", "en_name": ["3,4-Diethylhexane", "Hexane, 3,4-diethyl-", "3,4-Diethylhexane"], "SMILES": "C(C(CC)CC)(CC)CC", "physical_data": {"Molecular Weight": "142.28", "Molecular Formula": "C10H22", "Boiling Point": "163.9 \u00b0C", "Density": "0.7514 g/cm\u00b3 @ Temp: 20 \u00b0C"}}