{"cas_no": "1939-27-1", "cn_name": "3-(\u5f02\u4e01\u9170\u6c28\u57fa)-1-\u4e09\u6c1f\u7532\u57fa\u82ef", "en_name": ["2-Methyl-N-[3-(trifluoromethyl)phenyl]propanamide", "Propanamide, 2-methyl-N-[3-(trifluoromethyl)phenyl]-", "m-Propionotoluidide, \u03b1,\u03b1,\u03b1-trifluoro-2-methyl-", "2-Methyl-N-[3-(trifluoromethyl)phenyl]propanamide", "2-Methyl-N-[3-(trifluoromethyl)phenyl]propionamide", "3\u2032-Trifluoromethylisobutyranilide"], "SMILES": "N(C(C(C)C)=O)C1=CC(C(F)(F)F)=CC=C1", "physical_data": {"Molecular Weight": "231.21", "Molecular Formula": "C11H12F3NO", "Melting Point": "100-101 \u00b0C"}}