{"cas_no": "19395-39-2", "cn_name": "alpha-\u82ef\u57fa\u54cc\u5576-2-\u4e59\u9170\u80fa", "en_name": ["\u03b1-Phenyl-2-piperidineacetamide", "2-Piperidineacetamide, \u03b1-phenyl-", "\u03b1-Phenyl-2-piperidineacetamide", "2-Phenyl-2-(2-piperidyl)acetamide", "erythro/threo-2-Phenyl-2-piperidin-2-ylacetamide", "2-Phenyl-2-(piperidin-2-yl)acetamide", "2-Phenyl-2-piperidin-2-ylacetamide"], "SMILES": "C(C(N)=O)(C1=CC=CC=C1)C2CCCCN2", "physical_data": {"Molecular Weight": "218.29", "Molecular Formula": "C13H18N2O", "Melting Point": "173 \u00b0C"}}