{"cas_no": "19393-92-1", "cn_name": "1-\u6eb4-2\uff0c6-\u4e8c\u6c2f\u82ef", "en_name": ["2-Bromo-1,3-dichlorobenzene", "Benzene, 2-bromo-1,3-dichloro-", "2-Bromo-1,3-dichlorobenzene", "1,3-Dichloro-2-bromobenzene", "2,6-Dichlorobromobenzene", "1-Bromo-2,6-dichlorobenzene", "NSC 155332"], "SMILES": "BrC1=C(Cl)C=CC=C1Cl", "physical_data": {"Molecular Weight": "225.90", "Molecular Formula": "C6H3BrCl2", "Boiling Point": "242 \u00b0C", "Melting Point": "65 \u00b0C"}}