{"cas_no": "19398-06-2", "cn_name": "2-\u4e59\u57fa\u82ef\u80bc\u5355\u76d0\u9178\u76d0", "en_name": ["Hydrazine, (2-ethylphenyl)-, hydrochloride (1:1)", "Hydrazine, (2-ethylphenyl)-, hydrochloride (1:1)", "Hydrazine, (o-ethylphenyl)-, monohydrochloride", "Hydrazine, (2-ethylphenyl)-, monohydrochloride", "Hydrazine, (o-ethylphenyl)-, hydrochloride", "1-(2-Ethylphenyl)hydrazine hydrochloride", "2-Ethyl Phenyl Hydrazine Hydrochloride"], "SMILES": "C(C)C1=C(NN)C=CC=C1.Cl", "physical_data": {"Molecular Weight": "", "Molecular Formula": "C8H12N2.ClH", "Melting Point": "177-181 \u00b0C"}}