{"cas_no": "19393-96-5", "cn_name": "2-\u6eb4-1,3,5-\u4e09\u6c2f\u82ef", "en_name": ["2-Bromo-1,3,5-trichlorobenzene", "Benzene, 2-bromo-1,3,5-trichloro-", "2-Bromo-1,3,5-trichlorobenzene", "1-Bromo-2,4,6-trichlorobenzene", "Bromo-2,4,6-trichlorobenzene", "2,4,6-Trichlorobromobenzene", "1,3,5-Trichloro-2-bromobenzene"], "SMILES": "BrC1=C(Cl)C=C(Cl)C=C1Cl", "physical_data": {"Molecular Weight": "260.34", "Molecular Formula": "C6H2BrCl3", "Melting Point": "65 \u00b0C"}}