{"cas_no": "1939-99-7", "cn_name": "\u82c4\u78fa\u9170\u6c2f", "en_name": ["Benzenemethanesulfonyl chloride", "Benzenemethanesulfonyl chloride", "\u03b1-Toluenesulfonyl chloride", "Phenylmethanesulfonyl chloride", "Benzylsulfonyl chloride", "Phenylmethylsulfonyl chloride", "NSC 41894"], "SMILES": "C(S(Cl)(=O)=O)C1=CC=CC=C1", "physical_data": {"Molecular Weight": "190.65", "Molecular Formula": "C7H7ClO2S", "Melting Point": "92 \u00b0C"}}