{"cas_no": "193902-87-3", "cn_name": "4-(4-\u6c28\u57fa-2-\u4e09\u6c1f\u7532\u57fa-\u82ef\u57fa)-\u54cc\u55ea-1-\u7532\u9178 \u53d4\u4e01\u57fa \u916f", "en_name": ["tert-Butyl 4-[4-amino-2-(trifluoromethyl)phenyl]piperazine-1-carboxylate", "1-Piperazinecarboxylic acid, 4-[4-amino-2-(trifluoromethyl)phenyl]-, 1,1-dimethylethyl ester", "4-(4-Amino-2-trifluoromethylphenyl)piperazine-1-carboxylic acid tert-butyl ester", "1-Boc-4-[4-amino-2-(trifluoromethyl)phenyl]piperazine", "tert-Butyl 4-[4-amino-2-(trifluoromethyl)phenyl]piperazine-1-carboxylate"], "SMILES": "C(F)(F)(F)C1=C(C=CC(N)=C1)N2CCN(C(OC(C)(C)C)=O)CC2", "physical_data": {"Molecular Weight": "345.36", "Molecular Formula": "C16H22F3N3O2", "Melting Point": "140-141 \u00b0C"}}