{"cas_no": "194-59-2", "cn_name": "7H-\u4e8c\u82ef\u5e76\u5494\u5511", "en_name": ["7H-Dibenzo[c,g]carbazole", "7H-Dibenzo[c,g]carbazole", "7-Aza-7H-dibenzo[c,g]fluorene", "3,4:5,6-Dibenzocarbazole", "NSC 87519"], "SMILES": "C=12C=3C=4C(C=CC3NC1C=CC=5C2=CC=CC5)=CC=CC4", "physical_data": {"Molecular Weight": "267.32", "Molecular Formula": "C20H13N", "Melting Point": "158 \u00b0C"}}