{"cas_no": "19408-46-9", "cn_name": "\u6625\u96f7\u9709\u7d20\u76d0\u9178\u76d0", "en_name": ["Kasugamycin hydrochloride", "D-chiro-Inositol, 3-O-[2-amino-4-[(carboxyiminomethyl)amino]-2,3,4,6-tetradeoxy-\u03b1-D-arabino-hexopyranosyl]-, hydrochloride (1:1)", "Kasugamycin, monohydrochloride", "D-chiro-Inositol, 3-O-[2-amino-4-[(carboxyiminomethyl)amino]-2,3,4,6-tetradeoxy-\u03b1-D-arabino-hexopyranosyl]-, monohydrochloride", "Kasumin", "Kasugamycin hydrochloride"], "SMILES": "O(C1C(O)C(O)C(O)C(O)C1O)C2C(N)CC(NC(C(O)=O)=N)C(C)O2.Cl", "physical_data": {"Molecular Weight": "", "Molecular Formula": "C14H25N3O9.ClH", "Melting Point": "202-204 \u00b0C (decomp)"}}