{"cas_no": "19404-18-3", "cn_name": "5-\u6c2f-3-\u7532\u57fa\u82ef\u5e76\u567b\u5429", "en_name": ["5-Chloro-3-methylbenzo[b]thiophene", "Benzo[b]thiophene, 5-chloro-3-methyl-", "5-Chloro-3-methylbenzo[b]thiophene", "5-Chloro-3-methylbenzothiophene", "NSC 248678"], "SMILES": "CC=1C=2C(=CC=C(Cl)C2)SC1", "physical_data": {"Molecular Weight": "182.67", "Molecular Formula": "C9H7ClS", "Boiling Point": "92-93 \u00b0C @ Press: 0.3 Torr"}}