{"cas_no": "19402-64-3", "cn_name": "\u82ef\u78fa\u9178\u94f5", "en_name": ["Ammonium benzenesulfonate", "Benzenesulfonic acid, ammonium salt (1:1)", "Benzenesulfonic acid, ammonium salt", "Ammonium benzenesulfonate"], "SMILES": "S(=O)(=O)(O)C1=CC=CC=C1.N", "physical_data": {"Molecular Weight": "", "Molecular Formula": "C6H6O3S.H3N", "Melting Point": "284-285 \u00b0C"}}