{"cas_no": "1940-18-7", "cn_name": "1-\u4e59\u57fa\u73af\u5df1\u9187", "en_name": ["1-Ethylcyclohexanol", "Cyclohexanol, 1-ethyl-", "1-Ethylcyclohexanol", "1-Ethyl-1-hydroxycyclohexane", "1-Ethyl-1-cyclohexanol", "NSC 25550", "1-Hydroxy-1-ethylcyclohexane"], "SMILES": "C(C)C1(O)CCCCC1", "physical_data": {"Molecular Weight": "128.21", "Molecular Formula": "C8H16O", "Boiling Point": "166 \u00b0C", "Melting Point": "34.5 \u00b0C", "Density": "0.9226 g/cm\u00b3 @ Temp: 25 \u00b0C"}}