{"cas_no": "1940-29-0", "cn_name": "4-\u6eb4-3,5-\u4e8c\u6c2f\u82ef\u80fa", "en_name": ["4-Bromo-3,5-dichlorobenzenamine", "Benzenamine, 4-bromo-3,5-dichloro-", "Aniline, 4-bromo-3,5-dichloro-", "4-Bromo-3,5-dichlorobenzenamine", "4-Bromo-3,5-dichloroaniline"], "SMILES": "BrC1=C(Cl)C=C(N)C=C1Cl", "physical_data": {"Molecular Weight": "240.91", "Molecular Formula": "C6H4BrCl2N", "Melting Point": "125-127 \u00b0C"}}