{"cas_no": "19403-92-0", "cn_name": "2,4,6-\u4e09\u7898\u95f4\u82ef\u4e8c\u915a", "en_name": ["2,4,6-Triiodoresorcinol", "1,3-Benzenediol, 2,4,6-triiodo-", "Resorcinol, 2,4,6-triiodo-", "2,4,6-Triiodo-1,3-benzenediol", "2,4,6-Triiodoresorcinol", "Riodoxol"], "SMILES": "OC1=C(I)C(O)=C(I)C=C1I", "physical_data": {"Molecular Weight": "487.80", "Molecular Formula": "C6H3I3O2", "Melting Point": "144 \u00b0C"}}