{"cas_no": "1940-42-7", "cn_name": "4-\u6eb4-2,5-\u4e8c\u6c2f\u82ef\u915a", "en_name": ["4-Bromo-2,5-dichlorophenol", "Phenol, 4-bromo-2,5-dichloro-", "4-Bromo-2,5-dichlorophenol", "2,5-Dichloro-4-bromophenol", "Phosvel phenol", "Leptophos phenol"], "SMILES": "BrC1=C(Cl)C=C(O)C(Cl)=C1", "physical_data": {"Molecular Weight": "241.90", "Molecular Formula": "C6H3BrCl2O", "Melting Point": "71-72 \u00b0C"}}