{"cas_no": "19406-86-1", "cn_name": "3-\u6c28\u57fa-4-\u7532\u57fa\u82ef\u7532\u9170\u80fa", "en_name": ["3-Amino-4-methylbenzamide", "Benzamide, 3-amino-4-methyl-", "p-Toluamide, 3-amino-", "3-Amino-4-methylbenzamide"], "SMILES": "C(N)(=O)C1=CC(N)=C(C)C=C1", "physical_data": {"Molecular Weight": "150.18", "Molecular Formula": "C8H10N2O", "Melting Point": "113-114 \u00b0C"}}