{"cas_no": "1940-57-4", "cn_name": "9-\u6eb4\u544b\u5464", "en_name": ["9-Bromofluorene", "9H-Fluorene, 9-bromo-", "Fluorene, 9-bromo-", "9-Bromo-9H-fluorene", "9-Bromofluorene", "9-Fluorenyl bromide", "NSC 12349"], "SMILES": "BrC1C=2C(C=3C1=CC=CC3)=CC=CC2", "physical_data": {"Molecular Weight": "245.11", "Molecular Formula": "C13H9Br", "Melting Point": "104 \u00b0C"}}