{"cas_no": "19407-42-2", "cn_name": "2-\u4e59\u9170\u6c28\u57fa-6-\u6c2f-\u82ef\u7532\u9178", "en_name": ["2-(Acetylamino)-6-chlorobenzoic acid", "Benzoic acid, 2-(acetylamino)-6-chloro-", "Anthranilic acid, N-acetyl-6-chloro-", "2-(Acetylamino)-6-chlorobenzoic acid", "N-Acetyl-6-chloroanthranilic acid", "2-Acetamido-6-chlorobenzoic acid", "2-Chloro-6-acetamidobenzoic acid"], "SMILES": "C(O)(=O)C1=C(NC(C)=O)C=CC=C1Cl", "physical_data": {"Molecular Weight": "213.62", "Molecular Formula": "C9H8ClNO3", "Melting Point": "204-207 \u00b0C"}}