{"cas_no": "19406-51-0", "cn_name": "4-\u6c28\u57fa-2,6-\u4e8c\u785d\u57fa\u7532\u82ef", "en_name": ["4-Amino-2,6-dinitrotoluene", "Benzenamine, 4-methyl-3,5-dinitro-", "p-Toluidine, 3,5-dinitro-", "4-Methyl-3,5-dinitrobenzenamine", "3,5-Dinitro-4-methylaniline", "4-Amino-2,6-dinitrotoluene", "2,6-Dinitro-4-aminotoluene", "1-Amino-3,5-dinitro-4-methylbenzene", "3,5-Dinitro-p-toluidine", "4-Methyl-3,5-dinitroaniline", "NSC 25010", "NSC 55353", "4-ADNT"], "SMILES": "N(=O)(=O)C1=C(C)C(N(=O)=O)=CC(N)=C1", "physical_data": {"Molecular Weight": "197.15", "Molecular Formula": "C7H7N3O4", "Melting Point": "171 \u00b0C"}}