{"cas_no": "19408-84-5", "cn_name": "\u4e8c\u6c22\u8fa3\u6912\u7d20", "en_name": ["Dihydrocapsaicin", "Nonanamide, N-[(4-hydroxy-3-methoxyphenyl)methyl]-8-methyl-", "Nonanamide, 8-methyl-N-vanillyl-", "N-[(4-Hydroxy-3-methoxyphenyl)methyl]-8-methylnonanamide", "Dihydrocapsaicin", "6,7-Dihydrocapsaicin", "Capsaicin, dihydro-"], "SMILES": "C(NC(CCCCCCC(C)C)=O)C1=CC(OC)=C(O)C=C1", "physical_data": {"Molecular Weight": "307.43", "Molecular Formula": "C18H29NO3", "Melting Point": "65.6-65.8 \u00b0C"}}