{"cas_no": "1941-26-0", "cn_name": "\u56db\u4e59\u57fa\u785d\u9178\u94f5", "en_name": ["Ethanaminium, N,N,N-triethyl-, nitrate (1:1)", "Ethanaminium, N,N,N-triethyl-, nitrate (1:1)", "Ammonium, tetraethyl-, nitrate", "Ethanaminium, N,N,N-triethyl-, nitrate", "Tetraethylammonium nitrate", "NSC 152114"], "SMILES": "[N+](CC)(CC)(CC)CC.N(=O)(=O)[O-]", "physical_data": {"Molecular Weight": "", "Molecular Formula": "C8H20N.NO3", "Melting Point": "280 \u00b0C (decomp)"}}