{"cas_no": "19415-51-1", "cn_name": "5-\u6c1f-2-\u7532\u6c27\u57fa\u82ef\u7532\u919b", "en_name": ["5-Fluoro-2-methoxybenzaldehyde", "Benzaldehyde, 5-fluoro-2-methoxy-", "o-Anisaldehyde, 5-fluoro-", "5-Fluoro-2-methoxybenzaldehyde", "3-Fluoro-6-methoxybenzaldehyde", "5-Fluoro-o-anisaldehyde", "2-Methoxy-5-fluorobenzaldehyde"], "SMILES": "O(C)C1=C(C=O)C=C(F)C=C1", "physical_data": {"Molecular Weight": "154.14", "Molecular Formula": "C8H7FO2", "Melting Point": "45-45.0 \u00b0C"}}