{"cas_no": "1941-52-2", "cn_name": "D-\u8461\u8404\u7cd6-\u4e8c\u4e59\u57fa\u7f29\u786b\u919b", "en_name": ["D-Glucose, diethyl dithioacetal", "D-Glucose, diethyl dithioacetal", "D-Glucose, diethyl mercaptal", "Glucose diethyl mercaptal", "NSC 19773", "NSC 8521"], "SMILES": "C(C(C(C(C(CO)O)O)O)O)(SCC)SCC", "physical_data": {"Molecular Weight": "286.41", "Molecular Formula": "C10H22O5S2", "Melting Point": "125 \u00b0C"}}