{"cas_no": "1941-24-8", "cn_name": "\u785d\u9178\u56db\u7532\u57fa\u94f5", "en_name": ["Tetramethylammonium nitrate", "Methanaminium, N,N,N-trimethyl-, nitrate (1:1)", "Ammonium, tetramethyl-, nitrate", "Methanaminium, N,N,N-trimethyl-, nitrate", "Tetramethylammonium nitrate"], "SMILES": "[N+](C)(C)(C)C.N(=O)(=O)[O-]", "physical_data": {"Molecular Weight": "", "Molecular Formula": "C4H12N.NO3", "Melting Point": "410 \u00b0C", "Density": "0.70 g/cm\u00b3"}}