{"cas_no": "19428-14-9", "cn_name": "\u78f7\u9178\u82ef\u4e19\u54cc\u6797", "en_name": ["Benproperine phosphate", "Piperidine, 1-[1-methyl-2-[2-(phenylmethyl)phenoxy]ethyl]-, phosphate (1:1)", "Piperidine, 1-[1-methyl-2-[(\u03b1-phenyl-o-tolyl)oxy]ethyl]-, phosphate (1:1)", "Pirexyl", "1-(2-Benzylphenoxy)-2-piperidinopropane phosphate", "1-[2-(2-Benzylphenoxy)-1-methylethyl]piperidine monophosphate", "ASA 158-5", "Blascorid", "Benproperine phosphate", "1-[2-(2-Benzylphenoxy)-1-methylethyl]piperidinium dihydrogen phosphate"], "SMILES": "C(C1=C(OCC(C)N2CCCCC2)C=CC=C1)C3=CC=CC=C3.P(=O)(O)(O)O", "physical_data": {"Molecular Weight": "", "Molecular Formula": "C21H27NO.H3O4P", "Melting Point": "150-152 \u00b0C"}}