{"cas_no": "1942-31-0", "cn_name": "4-\u82ef\u4e59\u7094\u57fa\u82ef\u4e59\u916e", "en_name": ["1-[4-(2-Phenylethynyl)phenyl]ethanone", "Ethanone, 1-[4-(2-phenylethynyl)phenyl]-", "Acetophenone, 4\u2032-(phenylethynyl)-", "Ethanone, 1-[4-(phenylethynyl)phenyl]-", "1-[4-(2-Phenylethynyl)phenyl]ethanone", "4-(2-Phenylethynyl)acetophenone", "1-[4-(Phenylethynyl)phenyl]ethanone", "4-Acetyltolane", "1-Acetyl-4-(phenylethynyl)benzene", "4\u2032-(Phenylethynyl)acetophenone", "4-(Phenylethynyl)acetophenone", "4-Acetylphenyl(phenyl)acetylene", "1-(4-Acetylphenyl)-2-phenylethyne", "p-Acetyldiphenylacetylene", "1-(4-Acetylphenyl)-2-phenylacetylene", "1-[4-(Phenylethynyl)phenyl]ethan-1-one", "1-[4-(2-Phenyleth-1-ynyl)phenyl]ethan-1-one", "4\u2032-(2-Phenylethynyl)acetophenone"], "SMILES": "C(#CC1=CC=CC=C1)C2=CC=C(C(C)=O)C=C2", "physical_data": {"Molecular Weight": "220.27", "Molecular Formula": "C16H12O", "Melting Point": "98-99 \u00b0C"}}