{"cas_no": "1942-46-7", "cn_name": "5-\u7678\u7094", "en_name": ["5-Decyne", "5-Decyne", "Dibutylacetylene", "1,2-Dibutylacetylene", "NSC 135002"], "SMILES": "C(#CCCCC)CCCC", "physical_data": {"Molecular Weight": "138.25", "Molecular Formula": "C10H18", "Boiling Point": "177 \u00b0C", "Melting Point": "-73 \u00b0C", "Density": "0.769 g/cm\u00b3 @ Temp: 20 \u00b0C"}}