{"cas_no": "19420-57-6", "cn_name": "1-\u786c\u8102\u9170-SN-\u7518\u6cb9-3-\u78f7\u9170\u80c6\u78b1", "en_name": ["1-Stearoyl-sn-glycero-3-phosphocholine", "3,5,9-Trioxa-4-phosphaheptacosan-1-aminium, 4,7-dihydroxy-N,N,N-trimethyl-10-oxo-, inner salt, 4-oxide, (7R)-", "Choline, hydroxide, dihydrogen phosphate, inner salt, 3-ester with 1-monostearin, L-", "3,5,9-Trioxa-4-phosphaheptacosan-1-aminium, 4,7-dihydroxy-N,N,N-trimethyl-10-oxo-, inner salt, 4-oxide, (R)-", "Choline, phosphate, 3-ester with 1-monostearin, L-", "Stearin, 1-mono-, 3-(dihydrogen phosphate), monoester with choline hydroxide, inner salt, L-", "1-Stearoyl-sn-glycero-3-phosphorylcholine", "1-Octadecanoyllysolecithin", "Stearoyl L-\u03b1-lysolecithin", "1-Stearoyl-sn-glycero-3-phosphocholine", "1-Stearoyl-sn-glycerol-3-phosphorylcholine", "1-Octadecanoyl-sn-glycerol-3-phosphorylcholine", "1-O-Stearoyl-sn-glycero-3-phosphocholine", "Coatsome MC 80H", "1-O-Stearoyl-2-lyso-sn-glycero-3-phosphocholine", "Lysophosphatidylcholine C18:0", "Stearoyl lysophosphatidylcholine", "1-Stearoyl-2-hydroxy-sn-glycero-3-phosphocholine", "1-Stearoyl-sn-glycerol-3-phosphatidylcholine", "(R)-2-Hydroxy-3-(stearoyloxy)propyl (2-(trimethylammonio)ethyl) phosphate", "Lysophosphatidylcholine 18:0"], "SMILES": "C(C(COC(CCCCCCCCCCCCCCCCC)=O)O)OP(OCC[N+](C)(C)C)(=O)[O-]", "physical_data": {"Molecular Weight": "", "Molecular Formula": "C26H54NO7P", "Melting Point": "100-200 \u00b0C"}}