{"cas_no": "1942-52-5", "cn_name": "2-\u4e8c\u4e59\u6c28\u57fa\u4e59\u786b\u9187\u76d0\u9178\u76d0", "en_name": ["(Diethylamino)ethanethiol hydrochloride", "Ethanethiol, 2-(diethylamino)-, hydrochloride (1:1)", "Ethanethiol, 2-(diethylamino)-, hydrochloride", "(Diethylamino)ethanethiol hydrochloride", "N,N-Diethyl-\u03b2-mercaptoethylamine hydrochloride", "N-(2-Mercaptoethyl)diethylamine hydrochloride", "2-(Diethylamino)ethanethiol hydrochloride", "2-(Diethylamino)ethylmercaptan hydrochloride"], "SMILES": "N(CCS)(CC)CC.Cl", "physical_data": {"Molecular Weight": "", "Molecular Formula": "C6H15NS.ClH", "Melting Point": "172-173 \u00b0C"}}