{"cas_no": "1942-45-6", "cn_name": "4-\u8f9b\u7094", "en_name": ["4-Octyne", "4-Octyne", "Dipropylacetylene", "1,2-Dipropylacetylene", "Dipropylethyne"], "SMILES": "C(#CCCC)CCC", "physical_data": {"Molecular Weight": "110.20", "Molecular Formula": "C8H14", "Boiling Point": "131.6 \u00b0C", "Melting Point": "-101 \u00b0C", "Density": "0.7521 g/cm\u00b3 @ Temp: 20 \u00b0C"}}