{"cas_no": "19429-30-2", "cn_name": "\u4e8c\u53d4\u4e01\u57fa\u4e8c\u6c2f\u5316\u9521", "en_name": ["Dichlorobis(1,1-dimethylethyl)stannane", "Stannane, dichlorobis(1,1-dimethylethyl)-", "Stannane, di-tert-butyldichloro-", "Dichlorobis(1,1-dimethylethyl)stannane", "Di-tert-butyldichlorostannane", "Dichlorodi-tert-butylstannane", "Di-tert-butyltin dichloride", "Di-tert-butyldichlorotin"], "SMILES": "[Sn](C(C)(C)C)(C(C)(C)C)(Cl)Cl", "physical_data": {"Molecular Weight": "303.84", "Molecular Formula": "C8H18Cl2Sn", "Boiling Point": "66 \u00b0C @ Press: 3 Torr", "Melting Point": "42-43 \u00b0C"}}