{"cas_no": "19427-36-2", "cn_name": "11a-\u7f9f\u57fa-16,17a-\u73af\u6c27\u5b55\u916e", "en_name": ["(11\u03b1,16\u03b1)-16,17-Epoxy-11-hydroxypregn-4-ene-3,20-dione", "Pregn-4-ene-3,20-dione, 16,17-epoxy-11-hydroxy-, (11\u03b1,16\u03b1)-", "Pregn-4-ene-3,20-dione, 16\u03b1,17-epoxy-11\u03b1-hydroxy-", "Progesterone, 16\u03b1,17-epoxy-11\u03b1-hydroxy-", "(11\u03b1,16\u03b1)-16,17-Epoxy-11-hydroxypregn-4-ene-3,20-dione", "11\u03b1-Hydroxy-16\u03b1,17\u03b1-epoxypregn-4-ene-3,20-dione", "11\u03b1-Hydroxy-16\u03b1,17\u03b1-oxidoprogesterone", "16\u03b1,17-Epoxy-11\u03b1-hydroxypregn-4-ene-3,20-dione", "11\u03b1-Hydroxy-16\u03b1,17-epoxyprogesterone"], "SMILES": "C(C)(=O)C12C3(C)C(CC1O2)C4C(C(O)C3)C5(C)C(CC4)=CC(=O)CC5", "physical_data": {"Molecular Weight": "344.44", "Molecular Formula": "C21H28O4", "Melting Point": "238.0-238.5 \u00b0C"}}