{"cas_no": "19427-82-8", "cn_name": "\u4e1d\u7acb\u5c3c\u4ead", "en_name": ["Selinidin", "2-Butenoic acid, 2-methyl-, (9S)-9,10-dihydro-8,8-dimethyl-2-oxo-2H,8H-benzo[1,2-b:3,4-b\u2032]dipyran-9-yl ester, (2Z)-", "Crotonic acid, 2-methyl-, ester with 9,10-dihydro-9-hydroxy-8,8-dimethyl-2H,8H-benzo[1,2-b:3,4-b\u2032]dipyran-2-one, (Z)-(S)-", "2-Butenoic acid, 2-methyl-, 9,10-dihydro-8,8-dimethyl-2-oxo-2H,8H-benzo[1,2-b:3,4-b\u2032]dipyran-9-yl ester, [S-(Z)]-", "2H,8H-Benzo[1,2-b:3,4-b\u2032]dipyran, 2-butenoic acid deriv.", "Selinidin", "Secryptotaenin A"], "SMILES": "O(C(C(=CC)C)=O)C1CC=2C3=C(C=CC2OC1(C)C)C=CC(=O)O3", "physical_data": {"Molecular Weight": "328.36", "Molecular Formula": "C19H20O5", "Melting Point": "97-98 \u00b0C"}}