{"cas_no": "19427-28-2", "cn_name": "N-\u7532\u9170-L-\u5929\u51ac\u6c28\u9178", "en_name": ["N-Formyl-L-aspartic acid", "L-Aspartic acid, N-formyl-", "Aspartic acid, N-formyl-, L-", "N-Formyl-L-aspartic acid", "N-Formylaspartic acid", "(2S)-2-Formamidobutanedioic acid", "(S)-2-Formamidosuccinic acid"], "SMILES": "C(CC(O)=O)(NC=O)C(O)=O", "physical_data": {"Molecular Weight": "161.11", "Molecular Formula": "C5H7NO5", "Melting Point": "127.5-128 \u00b0C"}}