{"cas_no": "19436-52-3", "cn_name": "N-\u4e59\u9170-D-\u4e19\u6c28\u9178", "en_name": ["N-Acetyl-D-alanine", "D-Alanine, N-acetyl-", "Alanine, N-acetyl-, D-", "N-Acetyl-D-alanine", "Acetyl-D-alanine", "(R)-N-Acetylalanine", "(R)-(+)-N-Acetylalanine", "(R)-2-(Acetylamino)propanoic acid", "NSC 203819", "(2R)-2-Acetamidopropanoic acid"], "SMILES": "C(NC(C)=O)(C(O)=O)C", "physical_data": {"Molecular Weight": "131.13", "Molecular Formula": "C5H9NO3", "Melting Point": "125 \u00b0C"}}