{"cas_no": "19437-20-8", "cn_name": "alpha-\u90bb\u82ef\u4e8c\u7532\u9170\u4e9a\u6c28\u57fa\u82ef\u4e19\u916e", "en_name": ["2-Phthalimidopropiophenone", "1H-Isoindole-1,3(2H)-dione, 2-(1-methyl-2-oxo-2-phenylethyl)-", "Phthalimide, N-(\u03b1-methylphenacyl)-", "2-(1-Methyl-2-oxo-2-phenylethyl)-1H-isoindole-1,3(2H)-dione", "2-Phthalimidopropiophenone", "2-(1-Oxo-1-phenylpropan-2-yl)isoindole-1,3-dione", "2-(1-Oxo-1-phenylpropan-2-yl)isoindoline-1,3-dione", "2-(1-Oxo-1-phenylpropan-2-yl)-2,3-dihydro-1H-isoindole-1,3-dione"], "SMILES": "C(C(=O)C1=CC=CC=C1)(C)N2C(=O)C=3C(C2=O)=CC=CC3", "physical_data": {"Molecular Weight": "279.29", "Molecular Formula": "C17H13NO3", "Melting Point": "87-88 \u00b0C"}}