{"cas_no": "1943-82-4", "cn_name": "2-\u82ef\u4e59\u57fa\u5f02\u6c30\u9178\u916f", "en_name": ["Phenethyl isocyanate", "Benzene, (2-isocyanatoethyl)-", "Isocyanic acid, phenethyl ester", "Phenethyl alcohol, isocyanate", "(2-Isocyanatoethyl)benzene", "Phenethyl isocyanate", "2-Phenylethyl isocyanate", "\u03b2-Phenylethyl isocyanate"], "SMILES": "C(CN=C=O)C1=CC=CC=C1", "physical_data": {"Molecular Weight": "147.17", "Molecular Formula": "C9H9NO", "Boiling Point": "109-111 \u00b0C @ Press: 13 Torr", "Density": "1.0618 g/cm\u00b3 @ Temp: 20 \u00b0C"}}