{"cas_no": "19430-93-4", "cn_name": "\u5168\u6c1f\u4e01\u57fa\u4e59\u70ef", "en_name": ["(Perfluorobutyl)ethylene", "1-Hexene, 3,3,4,4,5,5,6,6,6-nonafluoro-", "3,3,4,4,5,5,6,6,6-Nonafluoro-1-hexene", "1,1,2-Trihydroperfluoro-1-hexene", "(Perfluorobutyl)ethene", "(Perfluorobutyl)ethylene", "1H,1H,2H-Nonafluoro-1-hexene", "Zonyl PFBE", "3,3,4,4,5,5,6,6,6-Nonafluorohexene", "F 1420", "1H,1H,2H-Perfluoro-1-hexene", "6,6,6,5,5,4,4,3,3-Nonafluoro-1-hexene", "Cheminox PFBE", "1-(Perfluorobutyl)ethene"], "SMILES": "C(C(C(F)(F)F)(F)F)(C(C=C)(F)F)(F)F", "physical_data": {"Molecular Weight": "246.07", "Molecular Formula": "C6H3F9", "Boiling Point": "59 \u00b0C @ Press: 760 Torr"}}