{"cas_no": "19433-84-2", "cn_name": "2,3-\u4e8c\u6c2f\u4e19\u9170\u80fa", "en_name": ["2,3-Dichloropropanamide", "Propanamide, 2,3-dichloro-", "Propionamide, 2,3-dichloro-", "2,3-Dichloropropanamide", "\u03b1,\u03b2-Dichloropropionamide", "2,3-Dichloropropionamide", "NSC 406576"], "SMILES": "C(C(N)=O)(CCl)Cl", "physical_data": {"Molecular Weight": "141.98", "Molecular Formula": "C3H5Cl2NO", "Melting Point": "103 \u00b0C"}}