{"cas_no": "1943-83-5", "cn_name": "\u6c2f\u4e59\u57fa\u5f02\u6c30\u9178\u916f", "en_name": ["2-Chloroethyl isocyanate", "Ethane, 1-chloro-2-isocyanato-", "Isocyanic acid, 2-chloroethyl ester", "Ethanol, 2-chloro-, isocyanate", "1-Chloro-2-isocyanatoethane", "2-Chloroethyl isocyanate", "\u03b2-Chloroethylisocyanate", "NSC 87418"], "SMILES": "C(N=C=O)CCl", "physical_data": {"Molecular Weight": "105.52", "Molecular Formula": "C3H4ClNO", "Boiling Point": "135 \u00b0C"}}