{"cas_no": "19438-61-0", "cn_name": "4-\u7532\u57fa\u82ef\u9150", "en_name": ["4-Methylphthalic anhydride", "1,3-Isobenzofurandione, 5-methyl-", "Phthalic anhydride, 4-methyl-", "5-Methyl-1,3-isobenzofurandione", "4-Methylphthalic anhydride", "4-Methylphthalic acid anhydride", "5-Methylisobenzofuran-1,3-dione", "5-Methyl-2-benzofuran-1,3-dione"], "SMILES": "O=C1C=2C(C(=O)O1)=CC=C(C)C2", "physical_data": {"Molecular Weight": "162.14", "Molecular Formula": "C9H6O3", "Boiling Point": "299 \u00b0C", "Melting Point": "93 \u00b0C"}}