{"cas_no": "19434-36-7", "cn_name": "2-(4-METHOXYPHENOXY)BENZENECARBALDEHYDE", "en_name": ["2-(4-Methoxyphenoxy)benzaldehyde", "Benzaldehyde, 2-(4-methoxyphenoxy)-", "Benzaldehyde, o-(p-methoxyphenoxy)-", "2-(4-Methoxyphenoxy)benzaldehyde"], "SMILES": "O(C1=C(C=O)C=CC=C1)C2=CC=C(OC)C=C2", "physical_data": {"Molecular Weight": "228.24", "Molecular Formula": "C14H12O3", "Melting Point": "63-65 \u00b0C"}}