{"cas_no": "19432-69-0", "cn_name": "5-\u7532\u57fa\u567b\u5429-2-\u7fa7\u9178\u7532\u916f", "en_name": ["Methyl 5-methyl-2-thiophenecarboxylate", "2-Thiophenecarboxylic acid, 5-methyl-, methyl ester", "Methyl 5-methyl-2-thiophenecarboxylate", "5-Methylthiophene-2-carboxylic acid methyl ester"], "SMILES": "C(OC)(=O)C=1SC(C)=CC1", "physical_data": {"Molecular Weight": "156.20", "Molecular Formula": "C7H8O2S", "Boiling Point": "77-79 \u00b0C @ Press: 5 Torr", "Density": "1.1736 g/cm\u00b3 @ Temp: 20 \u00b0C"}}