{"cas_no": "19438-60-9", "cn_name": "4-\u7532\u57fa\u516d\u6c22\u82ef\u9150", "en_name": ["Rikacid MH", "1,3-Isobenzofurandione, hexahydro-5-methyl-", "1,2-Cyclohexanedicarboxylic anhydride, 4-methyl-", "Hexahydro-5-methyl-1,3-isobenzofurandione", "4-Methyl-1,2-cyclohexanedicarboxylic anhydride", "Hexahydro-4-methylphthalic anhydride", "4-Methylhexahydrophthalic acid anhydride", "4-Methylhexahydrophthalic anhydride", "Rikacid MH", "WH 700", "NSC 128883", "HN 7000", "Quinhard HH 400", "Rikacid MH-T", "Lindride 52", "1-Methylcyclohexane-4,5-Dicarboxylic anhydride", "EDK-X 52", "Lindride 52D"], "SMILES": "O=C1C2C(C(=O)O1)CCC(C)C2", "physical_data": {"Molecular Weight": "168.19", "Molecular Formula": "C9H12O3", "Melting Point": "-29 \u00b0C", "Density": "1.16 g/cm\u00b3"}}