{"cas_no": "19431-84-6", "cn_name": "\u83aa\u672f\u9187", "en_name": ["Curcumenol", "6H-3a,6-Epoxyazulen-6-ol, 1,2,3,4,5,8a-hexahydro-3,8-dimethyl-5-(1-methylethylidene)-, (3S,3aS,6R,8aS)-", "5\u03b2-Guaia-7(11),9-dien-8\u03b1-ol, 5,8-epoxy-", "6H-3a,6-Epoxyazulen-6-ol, 1,2,3,4,5,8a-hexahydro-3,8-dimethyl-5-(1-methylethylidene)-, [3S-(3\u03b1,3a\u03b1,6\u03b1,8a\u03b2)]-", "(3S,3aS,6R,8aS)-1,2,3,4,5,8a-Hexahydro-3,8-dimethyl-5-(1-methylethylidene)-6H-3a,6-epoxyazulen-6-ol", "(+)-Curcumenol", "Curcumenol", "Curcumenol, (+)-"], "SMILES": "CC1C23C(C(C)=CC(O)(O2)C(=C(C)C)C3)CC1", "physical_data": {"Molecular Weight": "234.33", "Molecular Formula": "C15H22O2", "Melting Point": "113-115 \u00b0C"}}