{"cas_no": "1943-84-6", "cn_name": "\u5341\u516d\u70f7\u57fa\u5f02\u6c30\u9178\u916f", "en_name": ["Hexadecyl isocyanate", "Hexadecane, 1-isocyanato-", "Isocyanic acid, hexadecyl ester", "1-Hexadecanol, isocyanate", "1-Isocyanatohexadecane", "Hexadecyl isocyanate"], "SMILES": "C(CCCCCCCCC)CCCCCCN=C=O", "physical_data": {"Molecular Weight": "267.45", "Molecular Formula": "C17H33NO", "Boiling Point": "200-207 \u00b0C @ Press: 12 Torr"}}