{"cas_no": "19432-68-9", "cn_name": "2-\u567b\u5429\u4e59\u9178\u7532\u916f", "en_name": ["2-Thiopheneacetic acid, methyl ester", "2-Thiopheneacetic acid, methyl ester", "Methyl (2-thienyl)acetate", "Methyl 2-thiopheneacetate", "Methyl 2-(thiophen-2-yl)acetate", "2-(Thien-2-yl)acetic acid methyl ester"], "SMILES": "C(C(OC)=O)C1=CC=CS1", "physical_data": {"Molecular Weight": "156.20", "Molecular Formula": "C7H8O2S", "Boiling Point": "115-118 \u00b0C @ Press: 23 Torr"}}