{"cas_no": "19432-88-3", "cn_name": "2-(\u5421\u54af\u70f7-2-\u57fa)\u4e59\u9187", "en_name": ["2-Pyrrolidineethanol", "2-Pyrrolidineethanol", "2-(2-Hydroxyethyl)pyrrolidine", "2-Pyrrolidin-2-ylethanol", "2-(Pyrrolidin-2-yl)ethan-1-ol"], "SMILES": "C(CO)C1CCCN1", "physical_data": {"Molecular Weight": "115.17", "Molecular Formula": "C6H13NO", "Boiling Point": "678-680 \u00b0C @ Press: 0.03 Torr", "Density": "1.0117 g/cm\u00b3 @ Temp: 20 \u00b0C"}}