{"cas_no": "19437-26-4", "cn_name": "2-\u4e8c\u5421\u5576\u57fa\u916e", "en_name": ["2-Pyridyl ketone", "Methanone, di-2-pyridinyl-", "2-Pyridyl ketone", "Di-2-pyridinylmethanone", "Di-2-pyridyl ketone", "2,2\u2032-Dipyridyl ketone", "Bis(2-pyridyl) ketone", "Di(pyridin-2-yl) ketone", "Bis(pyridin-2-yl) ketone", "2,2\u2032-Bis(pyridyl)ketone", "NSC 174057", "Bis(pyridin-2-yl)methanone", "2,2\u2032-Bipyridyl ketone", "Di(pyridine-2-yl)methanone", "2-(Pyridine-2-carbonyl)pyridine", "Bis(2-pyridyl)methanone"], "SMILES": "C(=O)(C1=CC=CC=N1)C2=CC=CC=N2", "physical_data": {"Molecular Weight": "184.19", "Molecular Formula": "C11H8N2O", "Boiling Point": "115-125 \u00b0C @ Press: 0.1 Torr", "Melting Point": "52-53 \u00b0C"}}