{"cas_no": "19434-34-5", "cn_name": "2-\u82ef\u6c27\u57fa\u82ef\u7532\u919b", "en_name": ["2-Phenoxybenzaldehyde", "Benzaldehyde, 2-phenoxy-", "Benzaldehyde, o-phenoxy-", "2-Phenoxybenzaldehyde", "o-Phenoxybenzaldehyde"], "SMILES": "O(C1=C(C=O)C=CC=C1)C2=CC=CC=C2", "physical_data": {"Molecular Weight": "198.22", "Molecular Formula": "C13H10O2", "Boiling Point": "150-153 \u00b0C @ Press: 1 Torr"}}