{"cas_no": "19438-10-9", "cn_name": "3-\u7f9f\u57fa\u82ef\u7532\u9178\u7532\u916f", "en_name": ["Methyl 3-hydroxybenzoate", "Benzoic acid, 3-hydroxy-, methyl ester", "Benzoic acid, m-hydroxy-, methyl ester", "3-Hydroxybenzoic acid methyl ester", "Methyl m-hydroxybenzoate", "Methyl 3-hydroxybenzoate", "m-Hydroxybenzoic acid methyl ester", "m-Carbomethoxyphenol", "3-Carbomethoxyphenol", "3-(Methoxycarbonyl)phenol", "NSC 40536"], "SMILES": "C(OC)(=O)C1=CC(O)=CC=C1", "physical_data": {"Molecular Weight": "152.15", "Molecular Formula": "C8H8O3", "Boiling Point": "281 \u00b0C", "Melting Point": "73 \u00b0C"}}