{"cas_no": "1943-79-9", "cn_name": "\u82ef\u57fa \u7532\u57fa\u6c28\u57fa\u7532\u9178\u916f", "en_name": ["Phenyl methylcarbamate", "Carbamic acid, N-methyl-, phenyl ester", "Carbamic acid, methyl-, phenyl ester", "Phenyl methylcarbamate", "DRC 3345", "Phenyl N-methylcarbamate", "Phenmec", "S 101", "NSC 128138"], "SMILES": "O(C(NC)=O)C1=CC=CC=C1", "physical_data": {"Molecular Weight": "151.16", "Molecular Formula": "C8H9NO2", "Melting Point": "86 \u00b0C", "Density": "1.160 g/cm\u00b3"}}