{"cas_no": "1944-05-4", "cn_name": "2,3,4,5,6-PENTAFLUOROBENZHYDROL", "en_name": ["2,3,4,5,6-Pentafluoro-\u03b1-phenylbenzenemethanol", "Benzenemethanol, 2,3,4,5,6-pentafluoro-\u03b1-phenyl-", "Benzhydrol, 2,3,4,5,6-pentafluoro-", "2,3,4,5,6-Pentafluoro-\u03b1-phenylbenzenemethanol", "2,3,4,5,6-Pentafluorobenzhydrol", "(Pentafluorophenyl)(phenyl)methanol", "1-Phenyl-1-(2,3,4,5,6-pentafluorophenyl)methanol", "(2,3,4,5,6-Pentafluorophenyl)-phenylmethanol"], "SMILES": "C(O)(C1=C(F)C(F)=C(F)C(F)=C1F)C2=CC=CC=C2", "physical_data": {"Molecular Weight": "274.19", "Molecular Formula": "C13H7F5O", "Boiling Point": "115-117 \u00b0C @ Press: 1.7 Torr", "Melting Point": "47 \u00b0C"}}