{"cas_no": "194413-58-6", "cn_name": "Semaxanib", "en_name": ["Semaxanib", "2H-Indol-2-one, 3-[(3,5-dimethyl-1H-pyrrol-2-yl)methylene]-1,3-dihydro-, (3Z)-", "2H-Indol-2-one, 3-[(3,5-dimethyl-1H-pyrrol-2-yl)methylene]-1,3-dihydro-, (Z)-", "(3Z)-3-[(3,5-Dimethyl-1H-pyrrol-2-yl)methylene]-1,3-dihydro-2H-indol-2-one", "Semaxanib", "3-[1-(3,5-Dimethyl-1H-pyrrol-2-yl)meth-(Z)-ylidene]-2-oxo-2,3-dihydroindole", "(Z)-SU 5416", "TSU 16", "Sugen"], "SMILES": "C(=C1C=2C(NC1=O)=CC=CC2)C=3NC(C)=CC3C", "physical_data": {"Molecular Weight": "238.28", "Molecular Formula": "C15H14N2O", "Melting Point": "220-222 \u00b0C"}}