{"cas_no": "194490-14-7", "cn_name": "5-\u6c2f-3-\u6c30\u57fa\u5432\u54da", "en_name": ["5-Chloro-1H-indole-3-carbonitrile", "1H-Indole-3-carbonitrile, 5-chloro-", "5-Chloro-1H-indole-3-carbonitrile"], "SMILES": "C(#N)C=1C=2C(NC1)=CC=C(Cl)C2", "physical_data": {"Molecular Weight": "176.60", "Molecular Formula": "C9H5ClN2", "Melting Point": "198-199 \u00b0C"}}