{"cas_no": "19444-84-9", "cn_name": "2-\u7f9f\u57fa-\u4e01\u9178\u916e", "en_name": ["\u03b1-Hydroxy-\u03b3-butyrolactone", "2(3H)-Furanone, dihydro-3-hydroxy-", "Butyric acid, 2,4-dihydroxy-, \u03b3-lactone", "Dihydro-3-hydroxy-2(3H)-furanone", "\u03b1-Hydroxy-\u03b3-butyrolactone", "2,4-Dihydroxybutyric acid \u03b3-lactone", "2-Hydroxybutyrolactone", "2,4-Dihydroxybutanoic acid \u03b3-lactone", "2-Hydroxy-4-butanolide", "3-Hydroxydihydrofuran-2-one", "3-Hydroxydihydrofuran-2(3H)-one", "3-Hydroxyoxolan-2-one", "2-Hydroxy-\u03b3-butyrolactone", "2-Oxotetrahydrofuran-3-ol", "3-Hydroxytetrahydrofuran-2-one"], "SMILES": "OC1C(=O)OCC1", "physical_data": {"Molecular Weight": "102.09", "Molecular Formula": "C4H6O3", "Boiling Point": "107-111 \u00b0C @ Press: 6 Torr"}}