{"cas_no": "194423-15-9", "cn_name": "PD168393", "en_name": ["PD 168393", "2-Propenamide, N-[4-[(3-bromophenyl)amino]-6-quinazolinyl]-", "N-[4-[(3-Bromophenyl)amino]-6-quinazolinyl]-2-propenamide", "PD 168393"], "SMILES": "N(C=1C2=C(C=CC(NC(C=C)=O)=C2)N=CN1)C3=CC(Br)=CC=C3", "physical_data": {"Molecular Weight": "369.22", "Molecular Formula": "C17H13BrN4O", "Melting Point": "279 \u00b0C"}}