{"cas_no": "1944-12-3", "cn_name": "\u6c22\u6eb4\u9178\u975e\u8bfa\u7279\u7f57", "en_name": ["Fenoterol hydrobromide", "1,3-Benzenediol, 5-[1-hydroxy-2-[[2-(4-hydroxyphenyl)-1-methylethyl]amino]ethyl]-, hydrobromide (1:1)", "Benzyl alcohol, 3,5-dihydroxy-\u03b1-[[(p-hydroxy-\u03b1-methylphenethyl)amino]methyl]-, hydrobromide", "1,3-Benzenediol, 5-[1-hydroxy-2-[[2-(4-hydroxyphenyl)-1-methylethyl]amino]ethyl]-, hydrobromide", "3,5-Dihydroxy-\u03b1-[[(p-hydroxy-\u03b1-methylphenethyl)amino]methyl]benzyl alc. monohydrobromide", "Th 1165a", "1-(p-Hydroxyphenyl)-2-(\u03b2-3\u2032,5\u2032-dihydroxyphenyl-\u03b2-hydroxy)ethylaminopropane hydrobromide", "3,5-Dihydroxy-\u03b1-[(p-hydroxy-\u03b1-methylphenethyl)amino]methylbenzyl alcohol hydrobromide", "1-(3,5-Dihydroxyphenyl)-2-[2-(3-p-hydroxyphenyl)propylamino]ethanol hydrobromide", "Fenoterol hydrobromide", "Berotec", "Partusisten", "Fenoterol bromide", "Phenoterol hydrobromide", "Airum", "Dosberotec"], "SMILES": "C(CNC(CC1=CC=C(O)C=C1)C)(O)C2=CC(O)=CC(O)=C2.Br", "physical_data": {"Molecular Weight": "", "Molecular Formula": "C17H21NO4.BrH", "Melting Point": "222-223 \u00b0C"}}