{"cas_no": "19449-26-4", "cn_name": "2-\u4e8c\u7532\u57fa\u6c28\u57fa-1,3-\u4e8c\u6c27\u6742\u73af\u620a\u70f7", "en_name": ["N,N-Dimethyl-1,3-dioxolan-2-amine", "1,3-Dioxolan-2-amine, N,N-dimethyl-", "N,N-Dimethyl-1,3-dioxolan-2-amine", "Dimethylformamide cyclic ethylene acetal", "NSC 119918", "N,N-Dimethylformamide ethylene acetal"], "SMILES": "N(C)(C)C1OCCO1", "physical_data": {"Molecular Weight": "117.15", "Molecular Formula": "C5H11NO2", "Boiling Point": "142-144 \u00b0C", "Density": "1.007 g/cm\u00b3 @ Temp: 20 \u00b0C"}}