{"cas_no": "194423-06-8", "cn_name": "CL-387785", "en_name": ["N-[4-[(3-Bromophenyl)amino]-6-quinazolinyl]-2-butynamide", "2-Butynamide, N-[4-[(3-bromophenyl)amino]-6-quinazolinyl]-", "N-[4-[(3-Bromophenyl)amino]-6-quinazolinyl]-2-butynamide", "CL 387785", "EKI 785", "WAY-EKI 785", "EKB 785"], "SMILES": "N(C=1C2=C(C=CC(NC(C#CC)=O)=C2)N=CN1)C3=CC(Br)=CC=C3", "physical_data": {"Molecular Weight": "381.23", "Molecular Formula": "C18H13BrN4O", "Melting Point": "274-276 \u00b0C"}}