{"cas_no": "194471-85-7", "cn_name": "\u987a-2-(FMOC-\u6c28\u57fa)-\u73af\u5df1\u70f7\u7fa7\u9178", "en_name": ["rel-(1R,2S)-2-[[(9H-Fluoren-9-ylmethoxy)carbonyl]amino]cyclohexanecarboxylic acid", "Cyclohexanecarboxylic acid, 2-[[(9H-fluoren-9-ylmethoxy)carbonyl]amino]-, (1R,2S)-rel-", "Cyclohexanecarboxylic acid, 2-[[(9H-fluoren-9-ylmethoxy)carbonyl]amino]-, cis-", "rel-(1R,2S)-2-[[(9H-Fluoren-9-ylmethoxy)carbonyl]amino]cyclohexanecarboxylic acid", "cis-2-[(9-Fluorenylmethoxycarbonyl)amino]-1-cyclohexanecarboxylic acid"], "SMILES": "C(OC(NC1C(C(O)=O)CCCC1)=O)C2C=3C(C=4C2=CC=CC4)=CC=CC3", "physical_data": {"Molecular Weight": "365.42", "Molecular Formula": "C22H23NO4", "Melting Point": "103-105 \u00b0C"}}