{"cas_no": "1945-92-2", "cn_name": "2,4-\u4e8c\u785d\u57fa-N-(2-\u7f9f\u4e59\u57fa)\u82ef\u80fa", "en_name": ["2-[(2,4-Dinitrophenyl)amino]ethanol", "Ethanol, 2-[(2,4-dinitrophenyl)amino]-", "Ethanol, 2-(2,4-dinitroanilino)-", "2-[(2,4-Dinitrophenyl)amino]ethanol", "2,4-Dinitrophenylaminoethanol", "N-(2,4-Dinitrophenyl)ethanolamine", "NSC 24188", "2-(2,4-Dinitrophenylamino)ethanol", "2,4-Dinitro-N-(2-hydroxyethyl)aniline", "2-(2,4-Dinitroanilino)ethanol", "2-[(2,4-Dinitrophenyl)amino]ethan-1-ol"], "SMILES": "N(=O)(=O)C1=C(NCCO)C=CC(N(=O)=O)=C1", "physical_data": {"Molecular Weight": "227.17", "Molecular Formula": "C8H9N3O5", "Melting Point": "90 \u00b0C"}}