{"cas_no": "1945-84-2", "cn_name": "2-\u4e59\u7094\u57fa\u5421\u5576", "en_name": ["2-Ethynylpyridine", "Pyridine, 2-ethynyl-", "2-Ethynylpyridine", "2-Pyridylacetylene", "Pyridin-2-ylacetylene", "2-Pyridylethyne", "2-Pyridinylethyne"], "SMILES": "C(#C)C1=CC=CC=N1", "physical_data": {"Molecular Weight": "103.12", "Molecular Formula": "C7H5N", "Boiling Point": "86-88 \u00b0C @ Press: 14 Torr", "Melting Point": "76-78 \u00b0C"}}