{"cas_no": "1945-78-4", "cn_name": "2,2'-\u4e9a\u7532\u57fa\u53cc\u82ef\u5e76\u567b\u5511", "en_name": ["2,2\u2032-Methylenebis[benzothiazole]", "Benzothiazole, 2,2\u2032-methylenebis-", "2,2\u2032-Methylenebis[benzothiazole]", "2,2\u2032-Methylenebisbenzothiazole", "Bis(2-benzothiazolyl)methane", "2-[(1,3-Benzothiazol-2-yl)methyl]-1,3-benzothiazole", "2-(1,3-Benzothiazol-2-ylmethyl)-1,3-benzothiazole"], "SMILES": "C(C1=NC=2C(S1)=CC=CC2)C3=NC=4C(S3)=CC=CC4", "physical_data": {"Molecular Weight": "282.38", "Molecular Formula": "C15H10N2S2", "Melting Point": "280 \u00b0C"}}