{"cas_no": "19457-55-7", "cn_name": "\u4f9d\u897f\u7f8e\u5766\u4e2d\u95f4\u4f53", "en_name": ["6-Methyleneandrost-4-ene-3,17-dione", "Androst-4-ene-3,17-dione, 6-methylene-", "6-Methyleneandrost-4-ene-3,17-dione", "6-Methyleneandrost-4-en-3,17-dione"], "SMILES": "CC12C3C(C4C(C)(CC3)C(=O)CC4)CC(=C)C1=CC(=O)CC2", "physical_data": {"Molecular Weight": "298.42", "Molecular Formula": "C20H26O2", "Melting Point": "163-165 \u00b0C"}}