{"cas_no": "19461-38-2", "cn_name": "\u7518\u6c28\u9170-L-\u5f02\u4eae\u6c28\u9178", "en_name": ["Glycyl-L-isoleucine", "L-Isoleucine, glycyl-", "Isoleucine, N-glycyl-, L-", "L-Isoleucine, N-glycyl-", "Glycyl-L-isoleucine", "Glycylisoleucine", "N-Glycyl-L-isoleucine", "54: PN: EP2161028 PAGE: 10 claimed protein", "15: PN: WO2014063098 TABLE: 5 claimed protein", "161: PN: WO2011146121 PAGE: 117 claimed sequence", "110: PN: US20130123467 SEQID: 134 claimed protein", "16: PN: KR20140043582 SEQID: 19 claimed protein", "466: PN: WO2022125673 SEQID: 466 claimed protein", "484: PN: WO2022215055 SEQID: 484 claimed protein"], "SMILES": "C(NC(CN)=O)(C(CC)C)C(O)=O", "physical_data": {"Molecular Weight": "188.22", "Molecular Formula": "C8H16N2O3", "Melting Point": "257 \u00b0C"}}