{"cas_no": "1946-82-3", "cn_name": "N-\u4e59\u9170-L-\u8d56\u6c28\u9178", "en_name": ["N-Acetyl-L-lysine", "L-Lysine, N2-acetyl-", "Lysine, N2-acetyl-, L-", "N2-Acetyl-L-lysine", "N\u03b1-Acetyl-L-lysine", "N\u03b1-Acetyllysine", "6-Amino-L-2-acetamidohexanoic acid", "N-Acetyl-L-lysine", "N2-Acetyllysine", "(2S)-6-Amino-2-acetamidohexanoic acid", "(2S)-2-Acetamido-6-aminohexanoic acid", "N-Acetyllysine"], "SMILES": "C(CCCCN)(NC(C)=O)C(O)=O", "physical_data": {"Molecular Weight": "188.22", "Molecular Formula": "C8H16N2O3", "Melting Point": "250 \u00b0C (decomp)"}}