{"cas_no": "19466-47-8", "cn_name": "\u8c46\u753e\u70f7\u9187", "en_name": ["Stigmastan-3\u03b2-ol", "Stigmastan-3-ol, (3\u03b2)-", "Stigmastan-3\u03b2-ol", "(3\u03b2)-Stigmastan-3-ol", "24\u03b1-Ethyl-5\u03b1-cholestan-3\u03b2-ol"], "SMILES": "CC12C(C3C(C4(C)C(CC3)CC(O)CC4)CC1)CCC2C(CCC(C(C)C)CC)C", "physical_data": {"Molecular Weight": "416.72", "Molecular Formula": "C29H52O", "Melting Point": "134-139 \u00b0C"}}