{"cas_no": "194602-23-8", "cn_name": "2-\u4e59\u6c27\u57fa-5-(4-\u7532\u57fa\u54cc\u55ea-1-\u57fa\u78fa\u9170\u57fa)\u82ef\u7532\u9178", "en_name": ["2-Ethoxy-5-[(4-methyl-1-piperazinyl)sulfonyl]benzoic acid", "Benzoic acid, 2-ethoxy-5-[(4-methyl-1-piperazinyl)sulfonyl]-", "2-Ethoxy-5-[(4-methyl-1-piperazinyl)sulfonyl]benzoic acid", "2-Ethoxy-5-(4-methyl-1-piperazinylsulfonyl)benzoic acid"], "SMILES": "S(=O)(=O)(C1=CC(C(O)=O)=C(OCC)C=C1)N2CCN(C)CC2", "physical_data": {"Molecular Weight": "328.38", "Molecular Formula": "C14H20N2O5S", "Melting Point": "198-199 \u00b0C"}}