{"cas_no": "19463-48-0", "cn_name": "5-\u6c2f\u9999\u8349\u919b", "en_name": ["3-Chloro-4-hydroxy-5-methoxybenzaldehyde", "Benzaldehyde, 3-chloro-4-hydroxy-5-methoxy-", "Vanillin, 5-chloro-", "3-Chloro-4-hydroxy-5-methoxybenzaldehyde", "5-Chlorovanillin", "5-Monochlorovanillin", "NSC 45929"], "SMILES": "O(C)C1=C(O)C(Cl)=CC(C=O)=C1", "physical_data": {"Molecular Weight": "186.59", "Molecular Formula": "C8H7ClO3", "Melting Point": "165 \u00b0C"}}