{"cas_no": "19467-03-9", "cn_name": "\u7f8e\u5229\u59a5\u53cc\u7519", "en_name": ["Melittoside", "\u03b2-D-Glucopyranoside, (1S,4aS,5R,7aR)-5,7a-dihydro-5-hydroxy-7-(hydroxymethyl)cyclopenta[c]pyran-1,4a(1H)-diyl bis-", "Melittoside", "\u03b2-D-Glucopyranoside, 5,7a-dihydro-5-hydroxy-7-(hydroxymethyl)cyclopenta[c]pyran-1,4a(1H)-diyl bis-, [1S-(1\u03b1,4a\u03b1,5\u03b1,7a\u03b1)]-", "(1S,4aS,5R,7aR)-5,7a-Dihydro-5-hydroxy-7-(hydroxymethyl)cyclopenta[c]pyran-1,4a(1H)-diyl bis-\u03b2-D-glucopyranoside"], "SMILES": "O(C12C(C(OC3OC(CO)C(O)C(O)C3O)OC=C1)C(CO)=CC2O)C4OC(CO)C(O)C(O)C4O", "physical_data": {"Molecular Weight": "", "Molecular Formula": "C21H32O15", "Melting Point": "167-168 \u00b0C"}}