{"cas_no": "19472-74-3", "cn_name": "\u90bb\u6eb4\u6c30\u82c4", "en_name": ["(2-Bromophenyl)acetonitrile", "Benzeneacetonitrile, 2-bromo-", "Acetonitrile, (o-bromophenyl)-", "2-Bromobenzeneacetonitrile", "(o-Bromophenyl)acetonitrile", "(2-Bromophenyl)acetonitrile", "o-Bromobenzyl cyanide", "2-Bromobenzyl cyanide", "1-Bromo-2-cyanomethylbenzene", "NSC 338412", "2-Cyanomethylbromobenzene", "2-(o-Bromophenyl)acetonitrile", "2-(2-Bromophenyl)acetonitrile"], "SMILES": "C(C#N)C1=C(Br)C=CC=C1", "physical_data": {"Molecular Weight": "196.04", "Molecular Formula": "C8H6BrN", "Boiling Point": "145-147 \u00b0C @ Press: 13 Torr", "Melting Point": "1 \u00b0C"}}