{"cas_no": "1947-47-3", "cn_name": "3-\u6c28\u57fa-2-\u82ef\u57fa\u4e8c\u6c22\u831a\u916e", "en_name": ["3-Amino-2-phenyl-1H-inden-1-one", "1H-Inden-1-one, 3-amino-2-phenyl-", "Indone, 3-amino-2-phenyl-", "3-Amino-2-phenyl-1H-inden-1-one", "3-Amino-2-phenylindene-1-one", "NSC 156175", "3-Amino-2-phenylinden-1-one"], "SMILES": "NC1=C(C(=O)C=2C1=CC=CC2)C3=CC=CC=C3", "physical_data": {"Molecular Weight": "221.25", "Molecular Formula": "C15H11NO", "Melting Point": "266-268 \u00b0C"}}