{"cas_no": "1947-58-6", "cn_name": "2,3-\u4e8c\u6eb4-1,4-\u4e01\u4e8c\u9187", "en_name": ["rel-(2R,3R)-2,3-Dibromo-1,4-butanediol", "1,4-Butanediol, 2,3-dibromo-, (2R,3R)-rel-", "1,4-Butanediol, 2,3-dibromo-, (R*,R*)-(\u00b1)-", "1,4-Butanediol, 2,3-dibromo-, (R*,R*)-", "rel-(2R,3R)-2,3-Dibromo-1,4-butanediol", "rac-2,3-Dibromobutane-1,4-diol", "2,3-Dibromo-2,3-dideoxy-dl-threitol"], "SMILES": "C(C(CO)Br)(CO)Br", "physical_data": {"Molecular Weight": "247.91", "Molecular Formula": "C4H8Br2O2", "Boiling Point": "33.5-34.0 \u00b0C @ Press: 0.8 Torr"}}