{"cas_no": "1947-00-8", "cn_name": "N-\u82c4\u6c27\u7fb0\u57fa--6-\u6c28\u57fa\u5df1\u9178", "en_name": ["N-(Benzyloxycarbonyl)-6-aminohexanoic acid", "Hexanoic acid, 6-[[(phenylmethoxy)carbonyl]amino]-", "Hexanoic acid, 6-(carboxyamino)-, N-benzyl ester", "6-[[(Phenylmethoxy)carbonyl]amino]hexanoic acid", "Carbobenzoxy-\u03b5-aminocaproic acid", "N-(Carbobenzoxy)-6-aminocaproic acid", "6-[(Benzyloxycarbonyl)amino]hexanoic acid", "N-(Benzyloxycarbonyl)-6-aminocaproic acid", "N-(Benzyloxycarbonyl)-\u03b5-aminocaproic acid", "N-Carbobenzoxy-\u03b5-aminohexanoic acid", "6-(Benzyloxycarbonylamino)caproic acid", "6-(N-Benzyloxycarbonylamino)hexanoic acid", "N-(Benzyloxycarbonyl)-6-aminohexanoic acid", "6-(N-Carbobenzyloxyamino)hexanoic acid", "NSC 92812", "VIB 197", "6-[(Carbobenzyloxy)amino]caproic acid"], "SMILES": "C(OC(NCCCCCC(O)=O)=O)C1=CC=CC=C1", "physical_data": {"Molecular Weight": "265.30", "Molecular Formula": "C14H19NO4", "Melting Point": "55 \u00b0C"}}