{"cas_no": "194798-83-9", "cn_name": "\u78f7\u6c1f\u5eb7\u5511", "en_name": ["Fosfluconazole", "1H-1,2,4-Triazole-1-ethanol, \u03b1-(2,4-difluorophenyl)-\u03b1-(1H-1,2,4-triazol-1-ylmethyl)-, 1-(dihydrogen phosphate)", "1H-1,2,4-Triazole-1-ethanol, \u03b1-(2,4-difluorophenyl)-\u03b1-(1H-1,2,4-triazol-1-ylmethyl)-, dihydrogen phosphate (ester)", "Fosfluconazole", "Prodif", "2-(2,4-Difluorophenyl)-1,3-di(1H-1,2,4-triazol-1-yl)propan-2-yl dihydrogen phosphate"], "SMILES": "C(CN1C=NC=N1)(CN2C=NC=N2)(OP(=O)(O)O)C3=C(F)C=C(F)C=C3", "physical_data": {"Molecular Weight": "386.25", "Molecular Formula": "C13H13F2N6O4P", "Melting Point": "223-224 \u00b0C"}}