{"cas_no": "19485-38-2", "cn_name": "1-\u7532\u57fa-1H-\u54aa\u5511-4,5-\u4e8c\u7fa7\u9178", "en_name": ["1-Methyl-1H-imidazole-4,5-dicarboxylic acid", "1H-Imidazole-4,5-dicarboxylic acid, 1-methyl-", "Imidazole-4,5-dicarboxylic acid, 1-methyl-", "1-Methyl-1H-imidazole-4,5-dicarboxylic acid", "1-Methylimidazole-4,5-dicarboxylic acid", "1-Methyl-4,5-dicarboxyimidazole", "IEM 1573", "4,5-Dicarboxy-N-methylimidazole", "1-Methy-4,5-imidazoledicarboxylic acid"], "SMILES": "C(O)(=O)C1=C(C(O)=O)N(C)C=N1", "physical_data": {"Molecular Weight": "170.12", "Molecular Formula": "C6H6N2O4", "Melting Point": "262-263 \u00b0C"}}