{"cas_no": "1948-48-7", "cn_name": "\u0392-\u8c37\u6c28\u9178", "en_name": ["3-Aminopentanedioic acid", "Pentanedioic acid, 3-amino-", "Glutaric acid, 3-amino-", "3-Aminopentanedioic acid", "\u03b2-Glutamic acid", "3-Aminoglutaric acid", "\u03b2-Aminoglutaric acid", "NSC 341646"], "SMILES": "C(C(CC(O)=O)N)C(O)=O", "physical_data": {"Molecular Weight": "147.13", "Molecular Formula": "C5H9NO4", "Melting Point": "268-272 \u00b0C (decomp)"}}