{"cas_no": "1948-29-4", "cn_name": "\u0393-\u8c37\u6c28\u9170-\u7518\u6c28\u9178", "en_name": ["\u03b3-Glu-Gly", "Glycine, L-\u03b3-glutamyl-", "Glutamine, N-(carboxymethyl)-, L-", "Glycine, N-L-\u03b3-glutamyl-", "Glutamine, N-(carboxymethyl)-", "L-\u03b3-Glutamylglycine", "\u03b3-Glutamylglycine", "\u03b3-L-Glutamylglycine", "\u03b3-Glu-Gly", "NSC 334201", "13: PN: WO2011158590 PAGE: 34 claimed sequence", "6: PN: CN107114752 PAGE: 2 claimed sequence", "(2S)-2-Amino-5-(carboxymethylamino)-5-oxopentanoic acid"], "SMILES": "C(C(NCC(O)=O)=O)CC(C(O)=O)N", "physical_data": {"Molecular Weight": "204.18", "Molecular Formula": "C7H12N2O5", "Melting Point": "193-194 \u00b0C"}}