{"cas_no": "1948-33-0", "cn_name": "\u7279\u4e01\u57fa\u5bf9\u82ef\u4e8c\u915a", "en_name": ["tert-Butylhydroquinone", "1,4-Benzenediol, 2-(1,1-dimethylethyl)-", "Hydroquinone, tert-butyl-", "2-(1,1-Dimethylethyl)-1,4-benzenediol", "tert-Butylhydroquinone", "2-tert-Butylhydroquinone", "Mono-tert-butylhydroquinone", "tert-Butyl-1,4-benzenediol", "TBHQ", "MTBHQ", "Mono-tertiarybutylhydroquinone", "t-Butylhydroquinone", "2-tert-Butyl-1,4-benzenediol", "2-(1,1-Dimethylethyl)hydroquinone", "2-(tert-Butyl)-p-hydroquinone", "Banox 20BA", "Tenox TBHQ", "2-tert-Butyl-1,4-hydroquinone", "2-tert-Butyl-1,4-dihydroxybenzene", "t-Butylhydroquinone", "Tenox 20", "NSC 4972", "Keniox 20", "tert-Butyldihydroxybenzene", "2-t-Butylhydroquinone", "MC-TB 20", "Grindox 450", "Grindox 204", "tert-Butyl-1,4-dihydroxybenzene", "2-tert-Butyl-4-hydroxyphenol", "Stearer TBH", "PI 172", "TBHQ 400B"], "SMILES": "C(C)(C)(C)C1=C(O)C=CC(O)=C1", "physical_data": {"Molecular Weight": "166.22", "Molecular Formula": "C10H14O2", "Melting Point": "126.5-128.5 \u00b0C"}}