{"cas_no": "1948-40-9", "cn_name": "3,5-\u4e8c\u7898-4-\u7f9f\u57fa\u82ef\u7532\u919b", "en_name": ["4-Hydroxy-3,5-diiodobenzaldehyde", "Benzaldehyde, 4-hydroxy-3,5-diiodo-", "4-Hydroxy-3,5-diiodobenzaldehyde", "3,5-Diiodo-4-hydroxybenzaldehyde", "NSC 72943"], "SMILES": "C(=O)C1=CC(I)=C(O)C(I)=C1", "physical_data": {"Molecular Weight": "373.91", "Molecular Formula": "C7H4I2O2", "Melting Point": "200-201 \u00b0C"}}