{"cas_no": "1948-71-6", "cn_name": "N-\u4e59\u9170\u57fa-L-\u916a\u6c28\u9178\u80fa", "en_name": ["N-Acetyl-L-tyrosinamide", "Benzenepropanamide, \u03b1-(acetylamino)-4-hydroxy-, (\u03b1S)-", "Hydrocinnamamide, \u03b1-acetamido-p-hydroxy-, L-", "Benzenepropanamide, \u03b1-(acetylamino)-4-hydroxy-, (S)-", "(\u03b1S)-\u03b1-(Acetylamino)-4-hydroxybenzenepropanamide", "N-Acetyl-L-tyrosinamide", "N-Acetyl-L-tyrosine amide", "N-Acetyl-4-hydroxy-L-phenylalaninamide", "NAYA", "(2S)-2-Acetamido-3-(4-hydroxyphenyl)propanamide"], "SMILES": "C(C(NC(C)=O)C(N)=O)C1=CC=C(O)C=C1", "physical_data": {"Molecular Weight": "222.24", "Molecular Formula": "C11H14N2O3", "Melting Point": "224 \u00b0C", "Density": "1.19 g/cm\u00b3"}}