{"cas_no": "19492-03-6", "cn_name": "\u745e\u9999\u7d20-7-\u7532\u919a", "en_name": ["8-Hydroxy-7-methoxy-2H-1-benzopyran-2-one", "2H-1-Benzopyran-2-one, 8-hydroxy-7-methoxy-", "Coumarin, 8-hydroxy-7-methoxy-", "Herniarin, 8-hydroxy-", "8-Hydroxy-7-methoxy-2H-1-benzopyran-2-one", "Daphnetin 7-methyl ether", "8-Hydroxy-7-methoxycoumarin", "7-Methoxy-8-hydroxycoumarin"], "SMILES": "OC1=C2C(=CC=C1OC)C=CC(=O)O2", "physical_data": {"Molecular Weight": "192.17", "Molecular Formula": "C10H8O4", "Melting Point": "169-170 \u00b0C"}}