{"cas_no": "1949-78-6", "cn_name": "L-\u8c37\u80fa\u9178\u916f", "en_name": ["L-Lyxose", "L-Lyxose", "Lyxose, L-"], "SMILES": "C(C(CO)O)(C(C=O)O)O", "physical_data": {"Molecular Weight": "150.13", "Molecular Formula": "C5H10O5", "Melting Point": "102-104 \u00b0C"}}