{"cas_no": "19490-92-7", "cn_name": "ALPHA-\u7532\u57fa-ALPHA-\u82ef\u57fa\u5421\u5576-2-\u7532\u9187", "en_name": ["\u03b1-Methyl-\u03b1-phenyl-2-pyridinemethanol", "2-Pyridinemethanol, \u03b1-methyl-\u03b1-phenyl-", "\u03b1-Methyl-\u03b1-phenyl-2-pyridinemethanol", "\u03b1-Methyl-\u03b1-pyridylbenzyl alcohol", "\u03b1-Methyl-\u03b1-phenyl-2-pyridylmethanol", "NSC 28862", "1-Phenyl-1-(pyridin-2-yl)ethanol", "1-Phenyl-1-(2-pyridyl)ethanol", "1-Phenyl-1-(pyridin-2-yl)ethan-1-ol"], "SMILES": "C(C)(O)(C1=CC=CC=C1)C2=CC=CC=N2", "physical_data": {"Molecular Weight": "199.25", "Molecular Formula": "C13H13NO", "Boiling Point": "301-303 \u00b0C", "Melting Point": "32 \u00b0C"}}