{"cas_no": "1949-45-7", "cn_name": "\u7532\u6cdb\u5f71\u9178", "en_name": ["Metrizoate", "Benzoic acid, 3-(acetylamino)-5-(acetylmethylamino)-2,4,6-triiodo-", "Benzoic acid, 3-acetamido-2,4,6-triiodo-5-(N-methylacetamido)-", "3-(Acetylamino)-5-(acetylmethylamino)-2,4,6-triiodobenzoic acid", "3,5-Diacetamido-N-methyl-2,4,6-triiodobenzoic acid", "Metrizoic acid", "Metrizoate", "3-Acetamido-5-[acetyl(methyl)amino]-2,4,6-triiodobenzoic acid", "3-Acetamido-2,4,6-triiodo-5-(N-methylacetamido)benzoic acid"], "SMILES": "N(C(C)=O)(C)C1=C(I)C(NC(C)=O)=C(I)C(C(O)=O)=C1I", "physical_data": {"Molecular Weight": "627.94", "Molecular Formula": "C12H11I3N2O4", "Melting Point": "281.5 \u00b0C"}}