{"cas_no": "194924-96-4", "cn_name": "1-\u53d4-\u4e01\u57fa 2-\u7532\u57fa 3-\u6c27\u4e9a\u57fa\u5421\u54af\u70f7-1,2-\u4e8c\u7532\u9178\u57fa\u916f", "en_name": ["1-(1,1-Dimethylethyl) 2-methyl 3-oxo-1,2-pyrrolidinedicarboxylate", "1,2-Pyrrolidinedicarboxylic acid, 3-oxo-, 1-(1,1-dimethylethyl) 2-methyl ester", "1-(1,1-Dimethylethyl) 2-methyl 3-oxo-1,2-pyrrolidinedicarboxylate", "1-tert-Butyl 2-methyl 3-oxopyrrolidine-1,2-dicarboxylate"], "SMILES": "C(OC)(=O)C1N(C(OC(C)(C)C)=O)CCC1=O", "physical_data": {"Molecular Weight": "243.26", "Molecular Formula": "C11H17NO5", "Melting Point": "55-56 \u00b0C"}}