{"cas_no": "1949-20-8", "cn_name": "\u67e0\u6aac\u9178\u5965\u7d22\u62c9\u660e", "en_name": ["Oxolamine citrate", "1,2,4-Oxadiazole-5-ethanamine, N,N-diethyl-3-phenyl-, 2-hydroxy-1,2,3-propanetricarboxylate (1:1)", "1,2,4-Oxadiazole, 5-[2-(diethylamino)ethyl]-3-phenyl-, citrate (1:1)", "AF 438", "Bredon", "5-(Diethylaminoethyl)-3-phenyl-1,2,4-oxadiazole citrate", "Oxarmin", "Oxolamine citrate", "Perebron", "3-Phenyl-5-(diethylaminoethyl)-1,2,4-oxadiazole citrate", "Prilon", "Broncatar", "SKF 9976", "Flogobron", "NSC 100298"], "SMILES": "C(CC(O)=O)(CC(O)=O)(C(O)=O)O.C(CN(CC)CC)C1=NC(=NO1)C2=CC=CC=C2", "physical_data": {"Molecular Weight": "", "Molecular Formula": "C14H19N3O.C6H8O7", "Melting Point": "141-142 \u00b0C"}}