{"cas_no": "1949-89-9", "cn_name": "2-\u8131\u6c27-D-\u534a\u4e73\u7cd6", "en_name": ["2-Deoxy-D-galactose", "D-lyxo-Hexose, 2-deoxy-", "2-Deoxy-D-lyxo-hexose", "Galactose, 2-deoxy-, D-", "2-Deoxy-D-galactose", "2-Deoxygalactose", "Galactose, 2-deoxy-", "2-Deoxy-D-talose"], "SMILES": "C(C(CC=O)O)(C(CO)O)O", "physical_data": {"Molecular Weight": "164.16", "Molecular Formula": "C6H12O5", "Melting Point": "104-105 \u00b0C"}}