{"cas_no": "1949-88-8", "cn_name": "L(-)-\u963f\u5353\u7cd6", "en_name": ["L-Altrose", "L-Altrose", "Altrose, L-"], "SMILES": "C(C(C(C=O)O)O)(C(CO)O)O", "physical_data": {"Molecular Weight": "180.16", "Molecular Formula": "C6H12O6", "Melting Point": "107-109.5 \u00b0C"}}