{"cas_no": "19498-72-7", "cn_name": "3-(2-\u567b\u5429\u57fa)-1-\u4e19\u9187", "en_name": ["2-Thiophenepropanol", "2-Thiophenepropanol", "3-(2-Thienyl)-1-propanol", "3-(Thiophen-2-yl)propan-1-ol"], "SMILES": "C(CCO)C1=CC=CS1", "physical_data": {"Molecular Weight": "142.22", "Molecular Formula": "C7H10OS", "Boiling Point": "188-190 \u00b0C @ Press: 3 Torr"}}