{"cas_no": "19493-45-9", "cn_name": "3-\u6c2f\u5f02\u55b9\u5549", "en_name": ["3-Chloroisoquinoline", "Isoquinoline, 3-chloro-", "3-Chloroisoquinoline"], "SMILES": "ClC1=CC2=C(C=N1)C=CC=C2", "physical_data": {"Molecular Weight": "163.60", "Molecular Formula": "C9H6ClN", "Melting Point": "45-46 \u00b0C"}}