{"cas_no": "195-19-7", "cn_name": "\u82ef\u5e76- 3 ,4 -\u83f2", "en_name": ["Benzo[c]phenanthrene", "Benzo[c]phenanthrene", "3,4-Benzophenanthrene", "Tetrahelicene", "Benzo[e]phenanthrene"], "SMILES": "C12=C3C(=CC=C1C=CC=4C2=CC=CC4)C=CC=C3", "physical_data": {"Molecular Weight": "228.29", "Molecular Formula": "C18H12", "Boiling Point": "175-180 \u00b0C @ Press: 0.3 Torr", "Melting Point": "68 \u00b0C"}}