{"cas_no": "1950-85-2", "cn_name": "\u786b\u7532\u78fa\u9178\u94a0", "en_name": ["Methanesulfonothioic acid, sodium salt (1:1)", "Methanesulfonothioic acid, sodium salt (1:1)", "Methanesulfonic acid, thio-, sodium salt", "Methanesulfonothioic acid, sodium salt", "Sodium methanethiosulfonate"], "SMILES": "S(C)(=O)(=O)S.[Na]", "physical_data": {"Molecular Weight": "", "Molecular Formula": "CH4O2S2.Na", "Melting Point": "273-274 \u00b0C"}}