{"cas_no": "195062-61-4", "cn_name": "4-(4,4,5,5-\u56db\u7532\u57fa-1,3,2-\u4e8c\u6c27\u6742\u787c\u70f7-2-\u57fa)\u6c2f\u82ef", "en_name": ["4-Chlorophenylboronic acid pinacol ester", "1,3,2-Dioxaborolane, 2-(4-chlorophenyl)-4,4,5,5-tetramethyl-", "2-(4-Chlorophenyl)-4,4,5,5-tetramethyl-1,3,2-dioxaborolane", "4-Chlorophenylboronic acid pinacol ester", "Pinacol (4-chlorophenyl)boronate", "4-Chlorophenyl(pinacolato)borane"], "SMILES": "CC1(C)OB(OC1(C)C)C2=CC=C(Cl)C=C2", "physical_data": {"Molecular Weight": "238.52", "Molecular Formula": "C12H16BClO2", "Melting Point": "36-38 \u00b0C"}}