{"cas_no": "195062-62-5", "cn_name": "4-(4,4,5,5-\u56db\u7532\u57fa-1,3,2-\u4e8c\u6c27\u787c\u620a\u73af-2-\u57fa)\u82ef\u7532\u9178\u4e59\u916f", "en_name": ["Ethyl 4-(4,4,5,5-tetramethyl-1,3,2-dioxaborolan-2-yl)benzoate", "Benzoic acid, 4-(4,4,5,5-tetramethyl-1,3,2-dioxaborolan-2-yl)-, ethyl ester", "Ethyl 4-(4,4,5,5-tetramethyl-1,3,2-dioxaborolan-2-yl)benzoate", "4-(4,4,5,5-Tetramethyl-[1,3,2]dioxaborolan-2-yl)benzoic acid ethyl ester", "2-(4-(Ethoxycarbonyl)phenyl)-4,4,5,5-tetramethyl-1,3,2-dioxaborolane"], "SMILES": "CC1(C)OB(OC1(C)C)C2=CC=C(C(OCC)=O)C=C2", "physical_data": {"Molecular Weight": "276.14", "Molecular Formula": "C15H21BO4", "Melting Point": "78-80 \u00b0C"}}