{"cas_no": "19509-11-6", "cn_name": "1-\u7532\u57fa-3-\u82ef\u57fa\u54cc\u55ea", "en_name": ["1-Methyl-3-phenylpiperidine", "Piperidine, 1-methyl-3-phenyl-", "1-Methyl-3-phenylpiperidine"], "SMILES": "CN1CC(CCC1)C2=CC=CC=C2", "physical_data": {"Molecular Weight": "175.27", "Molecular Formula": "C12H17N", "Boiling Point": "126 \u00b0C @ Press: 14 Torr"}}