{"cas_no": "19500-62-0", "cn_name": "7-\u7532\u6c27\u57fa-1,2,3,4-\u56db\u6c22\u55b9\u5549", "en_name": ["Quinoline, 1,2,3,4-tetrahydro-7-methoxy-, hydrochloride (1:1)", "Quinoline, 1,2,3,4-tetrahydro-7-methoxy-, hydrochloride (1:1)", "Quinoline, 1,2,3,4-tetrahydro-7-methoxy-, hydrochloride"], "SMILES": "O(C)C=1C=C2C(=CC1)CCCN2.Cl", "physical_data": {"Molecular Weight": "", "Molecular Formula": "C10H13NO.ClH", "Melting Point": "181 \u00b0C"}}