{"cas_no": "19501-58-7", "cn_name": "4-\u7532\u6c27\u57fa\u82ef\u80bc\u76d0\u9178\u76d0", "en_name": ["(4-Methoxyphenyl)hydrazine hydrochloride", "Hydrazine, (4-methoxyphenyl)-, hydrochloride (1:1)", "Hydrazine, (p-methoxyphenyl)-, monohydrochloride", "Hydrazine, (4-methoxyphenyl)-, monohydrochloride", "Hydrazine, (p-methoxyphenyl)-, hydrochloride", "(p-Methoxyphenyl)hydrazine hydrochloride", "(4-Methoxyphenyl)hydrazine hydrochloride", "p-Anisylhydrazine hydrochloride", "1-(p-Methoxyphenyl)hydrazine hydrochloride", "(p-Methoxyphenyl)hydrazinium chloride", "(4-Methoxyphenyl)hydrazine monohydrochloride", "N-(4-Methoxyphenyl)hydrazine hydrochloride", "[4-(Methyloxy)phenyl]hydrazine monohydrochloride"], "SMILES": "N(N)C1=CC=C(OC)C=C1.Cl", "physical_data": {"Molecular Weight": "", "Molecular Formula": "C7H10N2O.ClH", "Melting Point": "160-161 \u00b0C"}}