{"cas_no": "195062-59-0", "cn_name": "2-\u7532\u57fa\u82ef\u787c\u9178\u9891\u90a3\u9187\u916f", "en_name": ["4,4,5,5-Tetramethyl-2-o-tolyl-1,3,2-dioxaborolane", "1,3,2-Dioxaborolane, 4,4,5,5-tetramethyl-2-(2-methylphenyl)-", "4,4,5,5-Tetramethyl-2-(2-methylphenyl)-1,3,2-dioxaborolane", "2-(2-Methylphenyl)-4,4,5,5-tetramethyl-1,3,2-dioxaborolane", "4,4,5,5-Tetramethyl-2-o-tolyl-1,3,2-dioxaborolane", "(o-Methylphenyl)pinacolborane", "2-Tolylboronic acid pinacol ester", "2-Methylphenylboronic acid pinacol ester", "2-(4,4,5,5-Tetramethyl-1,3,2-dioxaborolan-2-yl)toluene"], "SMILES": "CC1=C(B2OC(C)(C)C(C)(C)O2)C=CC=C1", "physical_data": {"Molecular Weight": "218.10", "Molecular Formula": "C13H19BO2", "Melting Point": "32-34 \u00b0C"}}