{"cas_no": "19500-95-9", "cn_name": "\u7532\u6c27\u57fa\u4e59\u9178\u9150", "en_name": ["Acetic acid, 2-methoxy-, anhydride", "Acetic acid, 2-methoxy-, anhydride", "Acetic acid, methoxy-, anhydride", "Methoxyacetic anhydride", "Methoxyacetic acid anhydride", "2-Methoxyacetic anhydride", "Methoxyethanoic anhydride"], "SMILES": "C(OC(COC)=O)(COC)=O", "physical_data": {"Molecular Weight": "162.14", "Molecular Formula": "C6H10O5", "Boiling Point": "124-128 \u00b0C @ Press: 20 Torr"}}