{"cas_no": "19500-02-8", "cn_name": "2-\u7532\u57fa-3-\u7532\u6c27\u57fa\u82ef\u80fa", "en_name": ["3-Methoxy-2-methylaniline", "Benzenamine, 3-methoxy-2-methyl-", "m-Anisidine, 2-methyl-", "3-Methoxy-2-methylbenzenamine", "2-Methyl-3-methoxyaniline", "3-Methoxy-2-methylaniline", "3-Methoxy-2-methylphenylamine", "2-Methoxy-6-aminotoluene", "3-Amino-1-methoxy-2-methylbenzene", "1-Methoxy-2-methyl-3-aminobenzene"], "SMILES": "O(C)C1=C(C)C(N)=CC=C1", "physical_data": {"Molecular Weight": "137.18", "Molecular Formula": "C8H11NO", "Melting Point": "31 \u00b0C"}}