{"cas_no": "1950-68-1", "cn_name": "4-\u7532\u6c27\u82ef\u78fa\u9170\u80bc", "en_name": ["4-Methoxybenzenesulfonic acid hydrazide", "Benzenesulfonic acid, 4-methoxy-, hydrazide", "Benzenesulfonic acid, p-methoxy-, hydrazide", "4-Methoxybenzenesulfonic acid hydrazide", "p-Methoxybenzenesulfonic acid hydrazide", "p-Methoxyphenylsulfonyl hydrazide", "(p-Methoxyphenylsulfonyl)hydrazine", "(p-Methoxybenzenesulfonyl)hydrazine", "p-Methoxybenzenesulfonic hydrazide", "4-Methoxybenzenesulfonylhydrazide", "p-Methoxybenzenesulfonyl hydrazide", "(4-Methoxybenzenesulfonyl)hydrazine", "NSC 267215", "((4-Methoxyphenyl)sulfonyl)hydrazine", "4-Methoxybenzenesulfonohydrazide"], "SMILES": "S(NN)(=O)(=O)C1=CC=C(OC)C=C1", "physical_data": {"Molecular Weight": "202.23", "Molecular Formula": "C7H10N2O3S", "Melting Point": "99 \u00b0C"}}