{"cas_no": "1951-25-3", "cn_name": "\u80fa\u7898\u916e", "en_name": ["Amiodarone", "Methanone, (2-butyl-3-benzofuranyl)[4-[2-(diethylamino)ethoxy]-3,5-diiodophenyl]-", "Ketone, 2-butyl-3-benzofuranyl 4-[2-(diethylamino)ethoxy]-3,5-diiodophenyl", "(2-Butyl-3-benzofuranyl)[4-[2-(diethylamino)ethoxy]-3,5-diiodophenyl]methanone", "Amiodarone", "2-Butyl-3-benzofuranyl p-[(2-diethylamino)ethoxy]-m,m-diiodophenyl ketone", "2-n-Butyl-3\u2032,5\u2032-diiodo-4\u2032-N-diethylaminoethoxy-3-benzoylbenzofuran", "2-Butyl-3-[3,5-diiodo-4-(2-diethylaminoethoxy)benzoyl]benzofuran", "Sedacoron", "Sedacorone", "Ancaron", "Amidorone", "MeSH ID: D000638"], "SMILES": "C(=O)(C=1C=2C(OC1CCCC)=CC=CC2)C3=CC(I)=C(OCCN(CC)CC)C(I)=C3", "physical_data": {"Molecular Weight": "645.31", "Molecular Formula": "C25H29I2NO3", "Melting Point": "100-102 \u00b0C"}}