{"cas_no": "1951-12-8", "cn_name": "2-\u6c2f\u6b63\u4e01\u9178", "en_name": ["3-Chlorobutanoic acid", "Butanoic acid, 3-chloro-", "Butyric acid, 3-chloro-", "Butyric acid, \u03b2-chloro-", "3-Chlorobutanoic acid", "3-Chlorobutyric acid", "\u03b2-Chlorobutyric acid", "(\u00b1)-3-Chlorobutyric acid", "NSC 404459"], "SMILES": "C(C(C)Cl)C(O)=O", "physical_data": {"Molecular Weight": "122.55", "Molecular Formula": "C4H7ClO2", "Boiling Point": "103-105 \u00b0C @ Press: 15 Torr", "Melting Point": "43-44.5 \u00b0C", "Density": "1.1865 g/cm\u00b3 @ Temp: 19.85 \u00b0C"}}