{"cas_no": "1951-26-4", "cn_name": "2-\u4e01\u57fa-3-(3,5-\u4e8c\u7898-4-\u7f9f\u57fa\u82ef\u7532\u9170)\u82ef\u5e76\u544b\u5583", "en_name": ["(2-Butyl-3-benzofuranyl)(4-hydroxy-3,5-diiodophenyl)methanone", "Methanone, (2-butyl-3-benzofuranyl)(4-hydroxy-3,5-diiodophenyl)-", "Ketone, 2-butyl-3-benzofuranyl 4-hydroxy-3,5-diiodophenyl", "(2-Butyl-3-benzofuranyl)(4-hydroxy-3,5-diiodophenyl)methanone", "S 1086", "L 3373", "NSC 85437", "(2-Butyl-1-benzofuran-3-yl)-(4-hydroxy-3,5-diiodophenyl)methanone", "2-Butyl-3-(3,5-diiodo-4-hydroxybenzoyl)benzofuran"], "SMILES": "C(=O)(C=1C=2C(OC1CCCC)=CC=CC2)C3=CC(I)=C(O)C(I)=C3", "physical_data": {"Molecular Weight": "546.14", "Molecular Formula": "C19H16I2O3", "Melting Point": "146.4-146.9 \u00b0C"}}