{"cas_no": "19522-69-1", "cn_name": "N-\u6b63\u4e01\u57fa\u4e59\u70ef\u4e8c\u80fa", "en_name": ["N1-Butyl-1,2-ethanediamine", "1,2-Ethanediamine, N1-butyl-", "Ethylenediamine, N-butyl-", "1,2-Ethanediamine, N-butyl-", "N1-Butyl-1,2-ethanediamine", "N-Butylethylenediamine", "2-Butylaminoethylamine", "(2-Aminoethyl)(butyl)amine"], "SMILES": "C(NCCN)CCC", "physical_data": {"Molecular Weight": "116.20", "Molecular Formula": "C6H16N2", "Boiling Point": "71 \u00b0C @ Press: 13 Torr"}}