{"cas_no": "19524-06-2", "cn_name": "4-\u6eb4\u5421\u5576\u76d0\u9178\u76d0", "en_name": ["4-Bromopyridine hydrochloride", "Pyridine, 4-bromo-, hydrochloride (1:1)", "Pyridine, 4-bromo-, hydrochloride", "4-Bromopyridine hydrochloride", "4-Bromopyridinium chloride", "4-Bromopyridine monohydrochloride"], "SMILES": "BrC=1C=CN=CC1.Cl", "physical_data": {"Molecular Weight": "", "Molecular Formula": "C5H4BrN.ClH", "Melting Point": "237-239 \u00b0C"}}