{"cas_no": "19523-57-0", "cn_name": "\u90bb\u4e59\u6c27\u57fa\u8418\u7532\u919b", "en_name": ["2-Ethoxy-1-naphthalenecarboxaldehyde", "1-Naphthalenecarboxaldehyde, 2-ethoxy-", "1-Naphthaldehyde, 2-ethoxy-", "2-Ethoxy-1-naphthalenecarboxaldehyde", "2-Ethoxynaphthaldehyde", "2-Ethoxy-1-naphthaldehyde", "NSC 74560", "2-Ethoxynaphthalene-1-carbaldehyde"], "SMILES": "C(=O)C=1C2=C(C=CC1OCC)C=CC=C2", "physical_data": {"Molecular Weight": "200.23", "Molecular Formula": "C13H12O2", "Melting Point": "115 \u00b0C"}}