{"cas_no": "19522-67-9", "cn_name": "N-\u5f02\u4e19\u57fa\u4e59\u4e8c\u80fa", "en_name": ["N-Isopropylethylenediamine", "1,2-Ethanediamine, N1-(1-methylethyl)-", "Ethylenediamine, N-isopropyl-", "1,2-Ethanediamine, N-(1-methylethyl)-", "N1-(1-Methylethyl)-1,2-ethanediamine", "2-(Isopropylamino)ethylamine", "N-Isopropylethylenediamine", "N-Isopropylethane-1,2-diamine", "NSC 84230", "1-Isopropylethylenediamine", "N-Isopropyl-1,2-diaminoethane", "N-(Propan-2-yl)ethane-1,2-diamine", "(2-Aminoethyl)(propan-2-yl)amine"], "SMILES": "N(C(C)C)CCN", "physical_data": {"Molecular Weight": "102.18", "Molecular Formula": "C5H14N2", "Boiling Point": "135.5-137.5 \u00b0C @ Press: 767 Torr", "Density": "0.8232 g/cm\u00b3 @ Temp: 25 \u00b0C"}}