{"cas_no": "1953-54-4", "cn_name": "5-\u7f9f\u57fa\u5432\u54da", "en_name": ["5-Hydroxyindole", "1H-Indol-5-ol", "Indol-5-ol", "5-Hydroxyindole", "5-Hydroxy-1H-indole", "NSC 87503"], "SMILES": "OC=1C=C2C(=CC1)NC=C2", "physical_data": {"Molecular Weight": "133.15", "Molecular Formula": "C8H7NO", "Melting Point": "107-108 \u00b0C"}}