{"cas_no": "1953-99-7", "cn_name": "3,4,5,6-\u56db\u6c2f\u82ef-1,2-\u4e8c\u7532\u8148", "en_name": ["Tetrachlorophthalonitrile", "1,2-Benzenedicarbonitrile, 3,4,5,6-tetrachloro-", "Phthalonitrile, tetrachloro-", "3,4,5,6-Tetrachloro-1,2-benzenedicarbonitrile", "Tetrachlorophthalonitrile", "Tetrachlorophthalodinitrile", "3,4,5,6-Tetrachlorophthalonitrile", "3,4,5,6-Tetrachloro-1,2-dicyanobenzene", "3,4,5,6-Tetrachlorophthalodinitrile", "1,2-Dicyano-3,4,5,6-tetrachlorobenzene"], "SMILES": "C(#N)C1=C(C#N)C(Cl)=C(Cl)C(Cl)=C1Cl", "physical_data": {"Molecular Weight": "265.91", "Molecular Formula": "C8Cl4N2", "Melting Point": "243.5-244.0 \u00b0C"}}