{"cas_no": "19533-92-7", "cn_name": "ALPHITOLIC ACID", "en_name": ["Alphitolic acid", "Lup-20(29)-en-28-oic acid, 2,3-dihydroxy-, (2\u03b1,3\u03b2)-", "Lup-20(29)-en-28-oic acid, 2\u03b1,3\u03b2-dihydroxy-", "3aH-Cyclopenta[a]chrysene, lup-20(29)-en-28-oic acid deriv.", "(2\u03b1,3\u03b2)-2,3-Dihydroxylup-20(29)-en-28-oic acid", "Alphitolic acid", "2\u03b1-Hydroxybetulinic acid", "Aophitolic acid"], "SMILES": "C(O)(=O)C12C(C3C(C)(CC1)C4(C)C(CC3)C5(C)C(CC4)C(C)(C)C(O)C(O)C5)C(C(C)=C)CC2", "physical_data": {"Molecular Weight": "472.70", "Molecular Formula": "C30H48O4", "Melting Point": "232-234 \u00b0C"}}