{"cas_no": "1953-04-4", "cn_name": "\u6c22\u6eb4\u9178\u52a0\u5170\u4ed6\u654f", "en_name": ["Galantamine hydrobromide", "6H-Benzofuro[3a,3,2-ef][2]benzazepin-6-ol, 4a,5,9,10,11,12-hexahydro-3-methoxy-11-methyl-, hydrobromide (1:1), (4aS,6R,8aS)-", "Galanthamine, hydrobromide", "6H-Benzofuro[3a,3,2-ef][2]benzazepin-6-ol, 4a,5,9,10,11,12-hexahydro-3-methoxy-11-methyl-, hydrobromide, (4aS,6R,8aS)-", "Galantamine hydrobromide", "Nivalin", "Nivaline", "Galanthamine hydrogen bromide", "Nivaline (pharmaceutical)", "(-)-Galanthamine hydrobromide", "Reminyl", "Jilkon hydrobromide", "Lycoremine hydrobromide", "(-)-Galantamine hydrobromide", "Razadyne", "Tamilin"], "SMILES": "O(C)C1=C2C=3C4(C(O2)CC(O)C=C4)CCN(C)CC3C=C1.Br", "physical_data": {"Molecular Weight": "", "Molecular Formula": "C17H21NO3.BrH", "Melting Point": "255-256 \u00b0C"}}