{"cas_no": "1953-02-2", "cn_name": "\u786b\u666e\u7f57\u5b81", "en_name": ["Tiopronin", "Glycine, N-(2-mercapto-1-oxopropyl)-", "Glycine, N-(2-mercaptopropionyl)-", "N-(2-Mercapto-1-oxopropyl)glycine", "Thiola", "(2-Mercaptopropionyl)glycine", "\u03b1-Mercaptopropionylglycine", "Mercaptopropionylglycine", "N-(2-Mercaptopropionyl)glycine", "Tiopronin", "Meprin (detoxicant)", "Mucolysin", "(2-Mercaptopropionamido)acetic acid", "\u03b1-Mercaptopropionyglycine", "Thiopronin", "Thiopronine", "MPG", "Hepadigest", "Sutilan Cusi", "DL-(\u03b1-Mercaptopropionyl)glycine", "(\u00b1)-Tiopronin", "MPG (hepatoprotective)", "Thiosol", "Acadione", "BRN 1859822", "Sutilan", "Tiopronino", "Tiopronine", "Thiolpropionamidoacetic acid", "Vincol", "Tioproninum", "Epatiol", "Capen", "Tioglis", "Captimer", "CCRIS 1935", "2-(2-Sulfanylpropanamido)acetic acid", "2-(2-Sulfanylpropanoylamino)acetic acid"], "SMILES": "C(NCC(O)=O)(C(C)S)=O", "physical_data": {"Molecular Weight": "163.19", "Molecular Formula": "C5H9NO3S", "Melting Point": "96 \u00b0C"}}