{"cas_no": "1954-45-6", "cn_name": "4-\u7532\u57fa\u8272\u6c28\u9178", "en_name": ["4-Methyltryptophan", "Tryptophan, 4-methyl-", "Tryptophan, 4-methyl-, DL-", "DL-Tryptophan, 4-methyl-", "4-Methyltryptophan", "DL-4-Methyltryptophan", "(\u00b1)-4-Methyltryptophan", "4-Methyl-DL-tryptophan", "NSC 71048", "2-Amino-3-(4-methyl-1H-indol-3-yl)propanoic acid"], "SMILES": "C(C(C(O)=O)N)C=1C=2C(NC1)=CC=CC2C", "physical_data": {"Molecular Weight": "218.25", "Molecular Formula": "C12H14N2O2", "Melting Point": "270-272 \u00b0C"}}