{"cas_no": "19547-88-7", "cn_name": "(R)-\u7532\u57fa2-\u4e59\u9170\u80fa\u57fa-3-(\u4e59\u9170\u57fa\u786b\u57fa)\u4e19\u9178\u916f", "en_name": ["N,S-Diacetyl-L-cysteine methyl ester", "L-Cysteine, N,S-diacetyl-, methyl ester", "Cysteine, N-acetyl-, methyl ester, acetate (ester), L-", "L-Cysteine, N-acetyl-, methyl ester, acetate (ester)", "Acetic acid, thio-, S-ester with N-acetyl-L-cysteine methyl ester", "N,S-Diacetyl-L-cysteine methyl ester", "Mucothiol", "N,S-Diacetylcysteine methyl ester"], "SMILES": "C(C(OC)=O)(CSC(C)=O)NC(C)=O", "physical_data": {"Molecular Weight": "219.26", "Molecular Formula": "C8H13NO4S", "Melting Point": "100 \u00b0C"}}