{"cas_no": "19542-67-7", "cn_name": "(E)-3-(P-TOLUENESULFONYL)ACRYLONITRILE", "en_name": ["(2E)-3-[(4-Methylphenyl)sulfonyl]-2-propenenitrile", "2-Propenenitrile, 3-[(4-methylphenyl)sulfonyl]-, (2E)-", "Acrylonitrile, 3-(p-tolylsulfonyl)-, (E)-", "2-Propenenitrile, 3-[(4-methylphenyl)sulfonyl]-, (E)-", "(2E)-3-[(4-Methylphenyl)sulfonyl]-2-propenenitrile", "BAY 117821", "BAY 11-7082", "BAY 11-7821"], "SMILES": "S(C=CC#N)(=O)(=O)C1=CC=C(C)C=C1", "physical_data": {"Molecular Weight": "207.25", "Molecular Formula": "C10H9NO2S", "Melting Point": "132-133 \u00b0C"}}