{"cas_no": "19542-54-2", "cn_name": "Z-VAL-VAL-OH", "en_name": ["N-[(Phenylmethoxy)carbonyl]-L-valyl-L-valine", "L-Valine, N-[(phenylmethoxy)carbonyl]-L-valyl-", "Valine, N-(N-carboxy-L-valyl)-, N-benzyl ester, L-", "L-Valine, N-[N-[(phenylmethoxy)carbonyl]-L-valyl]-", "Valine, N-(N-carboxyvalyl)-, N-benzyl ester", "N-[(Phenylmethoxy)carbonyl]-L-valyl-L-valine", "Carbobenzoxy-L-valyl-L-valine", "N-(Benzyloxycarbonyl)-L-valyl-L-valine", "N-(Benzyloxycarbonyl)valylvaline"], "SMILES": "C(C(NC(C(C)C)C(O)=O)=O)(NC(OCC1=CC=CC=C1)=O)C(C)C", "physical_data": {"Molecular Weight": "350.41", "Molecular Formula": "C18H26N2O5", "Melting Point": "139.5-140 \u00b0C"}}