{"cas_no": "19545-26-7", "cn_name": "\u6e25\u66fc\u9752\u9709\u7d20", "en_name": ["Wortmannin", "3H-Furo[4,3,2-de]indeno[4,5-h]-2-benzopyran-3,6,9-trione, 11-(acetyloxy)-1,6b,7,8,9a,10,11,11b-octahydro-1-(methoxymethyl)-9a,11b-dimethyl-, (1S,6bR,9aS,11R,11bR)-", "3H-Furo[4,3,2-de]indeno[4,5-h]-2-benzopyran-3,6,9-trione, 11-(acetyloxy)-1,6b,7,8,9a,10,11,11b-octahydro-1-(methoxymethyl)-9a,11b-dimethyl-, [1S-(1\u03b1,6b\u03b1,9a\u03b2,11\u03b1,11b\u03b2)]-", "(1S,6bR,9aS,11R,11bR)-11-(Acetyloxy)-1,6b,7,8,9a,10,11,11b-octahydro-1-(methoxymethyl)-9a,11b-dimethyl-3H-furo[4,3,2-de]indeno[4,5-h]-2-benzopyran-3,6,9-trione", "Wortmannin", "KY 12420", "(+)-Wortmannin"], "SMILES": "CC12C3=C(C4C(C)(CC3OC(C)=O)C(=O)CC4)C(=O)C5=C1C(C(=O)OC2COC)=CO5", "physical_data": {"Molecular Weight": "428.43", "Molecular Formula": "C23H24O8", "Melting Point": "240 \u00b0C"}}