{"cas_no": "19549-80-5", "cn_name": "4,6-\u4e8c\u7532\u57fa-2-\u5e9a\u916e", "en_name": ["4,6-Dimethyl-2-heptanone", "2-Heptanone, 4,6-dimethyl-", "4,6-Dimethyl-2-heptanone", "2,4-Dimethyl-6-heptanone"], "SMILES": "C(C(CC(C)=O)C)C(C)C", "physical_data": {"Molecular Weight": "142.24", "Molecular Formula": "C9H18O", "Boiling Point": "190-191 \u00b0C", "Density": "0.9024 g/cm\u00b3 @ Temp: 0 \u00b0C"}}