{"cas_no": "19542-77-9", "cn_name": "N-\u4e59\u9170\u57fa\u535e\u57fa\u534a\u80f1\u6c28\u9178", "en_name": ["Benzylmercapturic acid", "L-Cysteine, N-acetyl-S-(phenylmethyl)-", "Alanine, N-acetyl-3-(benzylthio)-, L-", "N-Acetyl-S-(phenylmethyl)-L-cysteine", "Benzylmercapturic acid", "S-Benzyl-N-acetyl-L-cysteine", "N-Acetyl-S-benzylcysteine", "S-Benzyl-N-acetylcysteine", "N-Acetyl-S-benzyl-L-cysteine", "S-Benzyl-(R)-mercapturic acid", "(R)-2-Acetamido-3-(benzylthio)propanoic acid"], "SMILES": "C(SCC(NC(C)=O)C(O)=O)C1=CC=CC=C1", "physical_data": {"Molecular Weight": "253.32", "Molecular Formula": "C12H15NO3S", "Melting Point": "156-157 \u00b0C"}}