{"cas_no": "1955-46-0", "cn_name": "5-\u785d\u57fa\u95f4\u82ef\u4e8c\u7532\u9178\u5355\u7532\u916f", "en_name": ["1-Methyl 5-nitro-1,3-benzenedicarboxylate", "1,3-Benzenedicarboxylic acid, 5-nitro-, 1-methyl ester", "Isophthalic acid, 5-nitro-, monomethyl ester", "1,3-Benzenedicarboxylic acid, 5-nitro-, monomethyl ester", "Isophthalic acid, 5-nitro-, methyl ester", "1-Methyl 5-nitro-1,3-benzenedicarboxylate", "Monomethyl 5-nitroisophthalate", "Methyl hydrogen 5-nitroisophthalate", "5-Nitro-3-(carbomethoxy)benzoic acid", "3-Carbomethoxy-5-nitrobenzoic acid", "5-Nitro-1,3-benzenedicarboxylic acid monomethyl ester", "5-Nitroisophthalic acid monomethyl ester", "3-Methoxycarbonyl-5-nitrobenzoic acid", "3-Nitro-5-(methoxycarbonyl)benzoic acid", "5-Nitroisophthalic acid methyl ester", "5-Nitro-1,3-benzenedicarboxylic acid methyl ester", "Methyl 3-carboxy-5-nitrobenzoate"], "SMILES": "C(OC)(=O)C1=CC(C(O)=O)=CC(N(=O)=O)=C1", "physical_data": {"Molecular Weight": "225.15", "Molecular Formula": "C9H7NO6", "Melting Point": "175-179 \u00b0C"}}