{"cas_no": "19550-07-3", "cn_name": "2,5-\u4e8c\u7532\u57fa-3-\u5df1\u9187", "en_name": ["2,5-Dimethyl-3-hexanol", "3-Hexanol, 2,5-dimethyl-", "2,5-Dimethyl-3-hexanol", "2,5-Dimethyl-3-hexyl alcohol", "NSC 95420"], "SMILES": "C(CC(C)C)(C(C)C)O", "physical_data": {"Molecular Weight": "130.23", "Molecular Formula": "C8H18O", "Boiling Point": "157.5 \u00b0C", "Density": "0.8212 g/cm\u00b3 @ Temp: 20 \u00b0C"}}