{"cas_no": "19550-08-4", "cn_name": "3,4-\u4e8c\u7532\u57fa-3-\u5df1\u9187", "en_name": ["3,4-Dimethyl-3-hexanol", "3-Hexanol, 3,4-dimethyl-", "3,4-Dimethyl-3-hexanol", "NSC 97526"], "SMILES": "C(C(CC)C)(CC)(C)O", "physical_data": {"Molecular Weight": "130.23", "Molecular Formula": "C8H18O", "Boiling Point": "150-152 \u00b0C @ Press: 740 Torr", "Density": "0.8345 g/cm\u00b3 @ Temp: 25 \u00b0C"}}