{"cas_no": "1956-25-8", "cn_name": "5-\u82c4\u6c27\u57fa-DL-\u8272\u6c28\u9178", "en_name": ["5-(Phenylmethoxy)tryptophan", "Tryptophan, 5-(phenylmethoxy)-", "Tryptophan, 5-(benzyloxy)-", "5-(Phenylmethoxy)tryptophan", "5-Benzyloxytryptophan", "DL-5-(Benzyloxy)tryptophan", "5-(Phenylmethoxy)-DL-tryptophan", "5-Benzyloxy-DL-tryptophan", "NSC 56424", "2-Amino-3-(5-(benzyloxy)-1H-indol-3-yl)propanoic acid", "2-Amino-3-(5-benzyloxy-1H-indol-3-yl)-propionic acid", "2-Azaniumyl-3-(5-phenylmethoxy-1H-indol-3-yl)propanoate", "2-Amino-3-(5-phenylmethoxy-1H-indol-3-yl)propanoic acid"], "SMILES": "C(C(C(O)=O)N)C=1C=2C(NC1)=CC=C(OCC3=CC=CC=C3)C2", "physical_data": {"Molecular Weight": "310.35", "Molecular Formula": "C18H18N2O3", "Melting Point": "275-276 \u00b0C (decomp)"}}