{"cas_no": "1956-11-2", "cn_name": "4-\u785d\u57fa\u82ef\u57fa\u6708\u6842\u9178\u916f", "en_name": ["p-Nitrophenyl laurate", "Dodecanoic acid, 4-nitrophenyl ester", "Lauric acid, p-nitrophenyl ester", "p-Nitrophenol laurate", "p-Nitrophenyl laurate", "p-Nitrophenyl dodecanoate", "4-Nitrophenyl dodecanoate", "4-Nitrophenyl laurate", "Lauric acid 4-nitrophenyl ester"], "SMILES": "O(C(CCCCCCCCCCC)=O)C1=CC=C(N(=O)=O)C=C1", "physical_data": {"Molecular Weight": "321.41", "Molecular Formula": "C18H27NO4", "Melting Point": "37.6 \u00b0C"}}