{"cas_no": "1956-30-5", "cn_name": "3',5'-\u53cc\u4e59\u9170\u57fa-5-\u7898-\u8131\u6c27\u5c3f\u82f7", "en_name": ["Uridine, 2\u2032-deoxy-5-iodo-, 3\u2032,5\u2032-diacetate", "Uridine, 2\u2032-deoxy-5-iodo-, 3\u2032,5\u2032-diacetate", "3\u2032,5\u2032-Di-O-acetyl-5-iodo-2\u2032-deoxyuridine"], "SMILES": "O=C1N(C2OC(COC(C)=O)C(OC(C)=O)C2)C=C(I)C(=O)N1", "physical_data": {"Molecular Weight": "438.17", "Molecular Formula": "C13H15IN2O7", "Melting Point": "156-157 \u00b0C"}}