{"cas_no": "19562-30-2", "cn_name": "\u5421\u4e59\u9178\u4e09\u6c2e\u8418", "en_name": ["Piromidic acid", "Pyrido[2,3-d]pyrimidine-6-carboxylic acid, 8-ethyl-5,8-dihydro-5-oxo-2-(1-pyrrolidinyl)-", "8-Ethyl-5,8-dihydro-5-oxo-2-(1-pyrrolidinyl)pyrido[2,3-d]pyrimidine-6-carboxylic acid", "8-Ethyl-5,8-dihydro-5-oxo-2-pyrrolidinopyrido[2,3-d]pyrimidine-6-carboxylic acid", "Piromidic acid", "5,8-Dihydro-8-ethyl-5-oxo-2-pyrrolidinopyrido[2,3-d]pyrimidine-6-carboxylic acid", "PD 93", "Panacid", "Pyromidic acid", "Septural", "Enterol", "Purim", "Reelon", "Pirudal", "Gastrurol", "Bactramyl", "Uropir", "NSC 291120"], "SMILES": "C(C)N1C=2C(C(=O)C(C(O)=O)=C1)=CN=C(N2)N3CCCC3", "physical_data": {"Molecular Weight": "288.30", "Molecular Formula": "C14H16N4O3", "Melting Point": "315 \u00b0C"}}