{"cas_no": "1956-06-5", "cn_name": "\u5bf9-\u785d\u57fa\u82ef\u57fa\u4e19\u9178\u916f", "en_name": ["p-Nitrophenyl propionate", "Propanoic acid, 4-nitrophenyl ester", "Propionic acid, p-nitrophenyl ester", "p-Nitrophenyl propionate", "p-Nitrophenyl n-propionate", "4-Nitrophenyl propionate", "p-Nitrophenyl propanoate", "NSC 404316", "4-Nitrophenyl propanoate"], "SMILES": "O(C(CC)=O)C1=CC=C(N(=O)=O)C=C1", "physical_data": {"Molecular Weight": "195.17", "Molecular Formula": "C9H9NO4", "Melting Point": "65-65.5 \u00b0C"}}