{"cas_no": "19592-55-3", "cn_name": "3,20-\u4e8c(\u4e59\u70ef\u4e8c\u6c27\u57fa)\u5b55\u753e-5,7-\u4e8c\u70ef", "en_name": ["Pregna-5,7-diene-3,20-dione, cyclic 3,20-bis(1,2-ethanediyl acetal)", "Pregna-5,7-diene-3,20-dione, cyclic 3,20-bis(1,2-ethanediyl acetal)", "Pregna-5,7-diene-3,20-dione, cyclic bis(ethylene acetal)", "Pregna-5,7-diene-3,20-dione, cyclic bis(1,2-ethanediyl acetal)", "3,20-Bis(ethylenedioxy)pregna-5,7-diene", "9\u03b1,10\u03b2-3,20-Bis(ethylenedioxy)-5,7-pregnadiene"], "SMILES": "CC12C(C=3C(CC1)C4(C)C(=CC3)CC5(CC4)OCCO5)CCC2C6(C)OCCO6", "physical_data": {"Molecular Weight": "400.55", "Molecular Formula": "C25H36O4", "Melting Point": "186.5-188.5 \u00b0C"}}