{"cas_no": "19597-07-0", "cn_name": "1,3-\u4e8c\u7532\u57fa\u5421\u54af\u70f7-2-\u916e", "en_name": ["1,3-Dimethyl-2-pyrrolidinone", "2-Pyrrolidinone, 1,3-dimethyl-", "1,3-Dimethyl-2-pyrrolidinone"], "SMILES": "O=C1C(C)CCN1C", "physical_data": {"Molecular Weight": "113.16", "Molecular Formula": "C6H11NO", "Boiling Point": "105-106 \u00b0C @ Press: 30 Torr", "Density": "0.792 g/cm\u00b3 @ Temp: 15 \u00b0C"}}