{"cas_no": "196-42-9", "cn_name": "\u8418[2,3-\u0391]\u8298", "en_name": ["Naphtho[2,3-a]pyrene", "Naphtho[2,1,8-qra]naphthacene", "Naphtho[2,3-a]pyrene", "Naphtho[2,3-b]pyrene", "Naphtho[8,1,2-cde]naphthacene"], "SMILES": "C12=C3C=4C(C=C1C=CC5=C2C(C=C3)=CC=C5)=CC=6C(C4)=CC=CC6", "physical_data": {"Molecular Weight": "302.37", "Molecular Formula": "C24H14", "Melting Point": "273 \u00b0C"}}