{"cas_no": "19600-63-6", "cn_name": "1,2-\u73af\u6c27-7-\u8f9b\u70ef", "en_name": ["2-(5-Hexen-1-yl)oxirane", "Oxirane, 2-(5-hexen-1-yl)-", "1-Octene, 7,8-epoxy-", "Oxirane, 5-hexenyl-", "2-(5-Hexen-1-yl)oxirane", "7,8-Epoxy-1-octene", "1,2-Epoxy-7-octene", "5-Hexenyloxirane", "(\u00b1)-1,2-Epoxyoct-7-ene", "(\u00b1)-5-Hexenyloxirane", "\u03c9-Hexenyl oxirane", "(5-Hexen-1-yl)oxirane", "2-Hex-5-enyloxirane"], "SMILES": "C(CCCC=C)C1CO1", "physical_data": {"Molecular Weight": "126.20", "Molecular Formula": "C8H14O", "Boiling Point": "65 \u00b0C @ Press: 10 Torr"}}