{"cas_no": "1961-72-4", "cn_name": "(R)-3-\u7f9f\u57fa\u5341\u56db\u70f7\u9178", "en_name": ["(\u00b1)-3-Hydroxytetradecanoic acid", "Tetradecanoic acid, 3-hydroxy-", "3-Hydroxytetradecanoic acid", "\u03b2-Hydroxymyristic acid", "3-Hydroxymyristic acid", "\u03b2-Hydroxytetradecanoic acid", "(\u00b1)-3-Hydroxytetradecanoic acid", "(RS)-3-Hydroxytetradecanoic acid", "(3RS)-3-Hydroxytetradecanoic acid"], "SMILES": "C(CCCCCCCCCC)C(CC(O)=O)O", "physical_data": {"Molecular Weight": "244.37", "Molecular Formula": "C14H28O3", "Melting Point": "78-79 \u00b0C"}}