{"cas_no": "19614-12-1", "cn_name": "2-\u6eb4-5-\u7532\u6c27\u57fa\u6eb4\u82c4", "en_name": ["2-Bromo-5-methoxybenzyl bromide", "Benzene, 1-bromo-2-(bromomethyl)-4-methoxy-", "Anisole, 4-bromo-3-(bromomethyl)-", "1-Bromo-2-(bromomethyl)-4-methoxybenzene", "2-Bromo-5-methoxybenzyl bromide", "4-Bromo-3-(bromomethyl)-1-methoxybenzene", "5-Methoxy-2-bromobenzyl bromide", "3-Methoxy-6-bromobenzyl bromide"], "SMILES": "C(Br)C1=CC(OC)=CC=C1Br", "physical_data": {"Molecular Weight": "279.96", "Molecular Formula": "C8H8Br2O", "Melting Point": "85-87 \u00b0C"}}