{"cas_no": "1961-77-9", "cn_name": "\u6c2f\u5730\u5b55\u916e", "en_name": ["Chlormadinone", "Pregna-4,6-diene-3,20-dione, 6-chloro-17-hydroxy-", "6-Chloro-17-hydroxypregna-4,6-diene-3,20-dione", "Chlormadinone", "6-Chloro-6-dehydro-17\u03b1-hydroxyprogesterone", "6-Chloro-6-dehydro-17-hydroxyprogesterone", "Chlormadinon"], "SMILES": "CC12C(C3C(C4(C)C(C(Cl)=C3)=CC(=O)CC4)CC1)CCC2(C(C)=O)O", "physical_data": {"Molecular Weight": "362.89", "Molecular Formula": "C21H27ClO3", "Melting Point": "212-214 \u00b0C"}}