{"cas_no": "19614-16-5", "cn_name": "2-\u6eb4\u8334\u9999\u786b\u919a", "en_name": ["2-Bromothioanisole", "Benzene, 1-bromo-2-(methylthio)-", "Sulfide, o-bromophenyl methyl", "1-Bromo-2-(methylthio)benzene", "o-Bromophenyl methyl sulfide", "o-Bromothioanisole", "o-Bromo(methylthio)benzene", "2-Bromothioanisole", "2-(Methylthio)phenyl bromide", "2-Bromophenyl methyl sulfide", "Methyl o-bromophenyl sulfide", "1-Bromo-2-methylthiobenzene", "2-(Methylthio)bromobenzene", "Methyl 2-bromophenyl sulfide", "1-Bromo-2-methylsulfanylbenzene", "(2-Bromophenyl)(methyl)sulfane"], "SMILES": "S(C)C1=C(Br)C=CC=C1", "physical_data": {"Molecular Weight": "203.10", "Molecular Formula": "C7H7BrS", "Boiling Point": "256 \u00b0C @ Press: 768 Torr", "Density": "1.5135 g/cm\u00b3 @ Temp: 16 \u00b0C"}}