{"cas_no": "19614-15-4", "cn_name": "4-(4-\u5417\u5549\u57fa)\u82ef\u7532\u9178\u4e59\u916f", "en_name": ["Ethyl 4-(4-morpholinyl)benzoate", "Benzoic acid, 4-(4-morpholinyl)-, ethyl ester", "Benzoic acid, p-morpholino-, ethyl ester", "Ethyl 4-(4-morpholinyl)benzoate", "4-(Morpholin-4-yl)benzoic acid ethyl ester", "Ethyl 4-morpholinobenzoate"], "SMILES": "C(OCC)(=O)C1=CC=C(C=C1)N2CCOCC2", "physical_data": {"Molecular Weight": "235.28", "Molecular Formula": "C13H17NO3", "Melting Point": "83-85 \u00b0C"}}