{"cas_no": "19624-22-7", "cn_name": "\u620a\u787c\u70f7", "en_name": ["Pentaborane(9)", "Pentaborane(9)", "Boron hydride (B5H9)", "Pentaborane", "Pentaborane (B5H9)", "Nonahydropentaborane", "Borane (B5H9)"], "SMILES": "[BH]123[BH]456[BH]17([BH]28([BH]34([H]5)[H]8)[H]7)[H]6", "physical_data": {"Molecular Weight": "55.06", "Molecular Formula": "B5H9", "Boiling Point": "60 \u00b0C", "Melting Point": "-46.6 \u00b0C", "Density": "0.61 g/cm\u00b3 @ Temp: 0 \u00b0C"}}