{"cas_no": "1962-75-0", "cn_name": "\u5bf9\u82ef\u4e8c\u7532\u9178\u4e8c\u4e01\u916f", "en_name": ["1,4-Dibutyl 1,4-benzenedicarboxylate", "1,4-Benzenedicarboxylic acid, 1,4-dibutyl ester", "Terephthalic acid, dibutyl ester", "1,4-Benzenedicarboxylic acid, dibutyl ester", "1,4-Dibutyl 1,4-benzenedicarboxylate", "Dibutyl terephthalate", "Butyl terephthalate", "NSC 6349", "Eastman DBT", "1,4-Dibutyl benzene-1,4-dicarboxylate"], "SMILES": "C(OCCCC)(=O)C1=CC=C(C(OCCCC)=O)C=C1", "physical_data": {"Molecular Weight": "278.34", "Molecular Formula": "C16H22O4", "Boiling Point": "154-156 \u00b0C @ Press: 1 Torr", "Melting Point": "16 \u00b0C", "Density": "1.034 g/cm\u00b3 @ Temp: 25 \u00b0C"}}