{"cas_no": "19621-92-2", "cn_name": "6-\u7f9f\u57fa\u5421\u5576-2-\u7fa7\u9178", "en_name": ["6-Hydroxypicolinic acid", "2-Pyridinecarboxylic acid, 1,6-dihydro-6-oxo-", "Picolinic acid, 1,6-dihydro-6-oxo-", "Picolinic acid, 6-hydroxy-", "1,6-Dihydro-6-oxo-2-pyridinecarboxylic acid", "6-Hydroxypicolinic acid", "6-Hydroxypyridine-2-carboxylic acid", "2-Oxo-1,2-dihydropyridine-6-carboxylic acid", "2-Hydroxypyridine-6-carboxylic acid", "NSC 51589", "6-Oxo-1,6-dihydropyridine-2-carboxylic acid", "6-Hydroxy-2-picolinic acid", "6-Oxopyridine-2-carboxylic acid", "6-Oxo-1H-pyridine-2-carboxylicacid"], "SMILES": "C(O)(=O)C=1NC(=O)C=CC1", "physical_data": {"Molecular Weight": "139.11", "Molecular Formula": "C6H5NO3", "Melting Point": "282 \u00b0C (decomp)"}}