{"cas_no": "1963-21-9", "cn_name": "\u7518\u6c28\u9170-L-\u7f2c\u6c28\u9178", "en_name": ["Glycyl-L-valine", "L-Valine, glycyl-", "Valine, N-glycyl-, L-", "L-Valine, N-glycyl-", "Glycyl-L-valine", "Glycylvaline", "N-Glycyl-L-valine", "NSC 163327", "NSC 83255", "48: PN: EP2161028 PAGE: 10 claimed protein", "43: PN: WO2014063098 TABLE: 5 claimed sequence", "158: PN: US20130123467 SEQID: 189 claimed protein", "19: PN: WO2014120891 PAGE: 141 claimed sequence", "4: PN: US20150203546 PAGE: 78 claimed sequence", "(2S)-2-(2-Aminoacetamido)-3-methylbutanoic acid", "(S)-2-(2-Aminoacetamido)-3-methylbutanoic acid", "84: PN: WO2021147954 SEQID: 84 claimed protein", "487: PN: WO2022215055 SEQID: 487 claimed protein"], "SMILES": "C(NC(CN)=O)(C(C)C)C(O)=O", "physical_data": {"Molecular Weight": "174.20", "Molecular Formula": "C7H14N2O3", "Melting Point": "242-243 \u00b0C (decomp)"}}