{"cas_no": "1963-36-6", "cn_name": "\u5bf9\u7532\u6c27\u57fa\u8089\u6842\u919b", "en_name": ["4-Methoxycinnamaldehyde", "2-Propenal, 3-(4-methoxyphenyl)-", "Cinnamaldehyde, p-methoxy-", "3-(4-Methoxyphenyl)-2-propenal", "p-Methoxycinnamaldehyde", "p-Methoxycinnamic aldehyde", "4-Methoxycinnamaldehyde", "3-(p-Methoxyphenyl)-2-propen-1-al", "NSC 26454", "3-(4-Methoxyphenyl)propenal", "3-(4-Methoxyphenyl)acrylaldehyde"], "SMILES": "C(=CC=O)C1=CC=C(OC)C=C1", "physical_data": {"Molecular Weight": "162.19", "Molecular Formula": "C10H10O2", "Boiling Point": "170-175 \u00b0C @ Press: 15 Torr", "Melting Point": "59-59.5 \u00b0C"}}