{"cas_no": "19647-71-3", "cn_name": "N-CBZ-L-\u82ef\u4e19\u6c28\u9178", "en_name": ["Phenylmethyl N-[(1S)-2-[(4-nitrophenyl)amino]-2-oxo-1-(phenylmethyl)ethyl]carbamate", "Carbamic acid, N-[(1S)-2-[(4-nitrophenyl)amino]-2-oxo-1-(phenylmethyl)ethyl]-, phenylmethyl ester", "Carbamic acid, [\u03b1-[(p-nitrophenyl)carbamoyl]phenethyl]-, benzyl ester, L-", "Carbamic acid, [2-[(4-nitrophenyl)amino]-2-oxo-1-(phenylmethyl)ethyl]-, phenylmethyl ester, (S)-", "Carbamic acid, [(1S)-2-[(4-nitrophenyl)amino]-2-oxo-1-(phenylmethyl)ethyl]-, phenylmethyl ester", "Phenylmethyl N-[(1S)-2-[(4-nitrophenyl)amino]-2-oxo-1-(phenylmethyl)ethyl]carbamate", "N-Benzyloxycarbonyl-L-phenylalanine p-nitroanilide", "N-(Benzyloxycarbonyl)-L-phenylalanine 4-nitroanilide", "N-Carbobenzoxy-L-phenylalanyl-p-nitroanilide"], "SMILES": "C(CC1=CC=CC=C1)(C(NC2=CC=C(N(=O)=O)C=C2)=O)NC(OCC3=CC=CC=C3)=O", "physical_data": {"Molecular Weight": "419.43", "Molecular Formula": "C23H21N3O5", "Melting Point": "159 \u00b0C"}}