{"cas_no": "196597-26-9", "cn_name": "\u96f7\u7f8e\u66ff\u80fa", "en_name": ["Ramelteon", "Propanamide, N-[2-[(8S)-1,6,7,8-tetrahydro-2H-indeno[5,4-b]furan-8-yl]ethyl]-", "Propanamide, N-[2-(1,6,7,8-tetrahydro-2H-indeno[5,4-b]furan-8-yl)ethyl]-, (S)-", "N-[2-[(8S)-1,6,7,8-Tetrahydro-2H-indeno[5,4-b]furan-8-yl]ethyl]propanamide", "TAK 375", "Ramelteon", "(S)-N-[2-(1,6,7,8-Tetrahydro-2H-indeno[5,4-b]furan-8-yl)ethyl]propionamide", "Rozerem", "(S)-N-[2-(1,6,7,8-Tetrahydro-2H-indeno-[5,4-b]furan-8-yl)ethyl]propionamide", "Rozerm"], "SMILES": "C(CNC(CC)=O)C1C=2C3=C(C=CC2CC1)OCC3", "physical_data": {"Molecular Weight": "259.34", "Molecular Formula": "C16H21NO2", "Melting Point": "113-115 \u00b0C"}}