{"cas_no": "1965-19-1", "cn_name": "2-(2-\u7532\u6c27\u57fa\u82ef\u57fa)-4,5-\u4e8c\u82ef\u57fa-1H-\u54aa\u5511", "en_name": ["2-(2-Methoxyphenyl)-4,5-diphenyl-1H-imidazole", "1H-Imidazole, 2-(2-methoxyphenyl)-4,5-diphenyl-", "Imidazole, 2-(o-methoxyphenyl)-4,5-diphenyl-", "2-(2-Methoxyphenyl)-4,5-diphenyl-1H-imidazole"], "SMILES": "O(C)C1=C(C=2NC(=C(N2)C3=CC=CC=C3)C4=CC=CC=C4)C=CC=C1", "physical_data": {"Molecular Weight": "326.39", "Molecular Formula": "C22H18N2O", "Melting Point": "207.5-208.5 \u00b0C"}}