{"cas_no": "1965-09-9", "cn_name": "4,4'-\u4e8c\u7f9f\u57fa\u4e8c\u82ef\u919a", "en_name": ["4,4\u2032-Dihydroxydiphenyl ether", "Phenol, 4,4\u2032-oxybis-", "Phenol, 4,4\u2032-oxydi-", "Phenol, p,p\u2032-oxydi-", "Phenol, p,p\u2032-oxybis-", "4,4\u2032-Oxybis[phenol]", "4,4\u2032-Dihydroxydiphenyl ether", "Bis(p-hydroxyphenyl) ether", "p-(p-Hydroxyphenoxy)phenol", "4,4\u2032-Dihydroxydiphenyl oxide", "4,4\u2032-Oxydiphenol", "Bis(4-hydroxyphenyl) ether", "p-Hydroxyphenyl ether", "Quinol ether", "Specianol DPE-H", "4-(4-Hydroxyphenoxy)phenol", "4,4\u2032-Oxybiphenol", "P-O-P", "4,4\u2032-Bisphenol ether"], "SMILES": "O(C1=CC=C(O)C=C1)C2=CC=C(O)C=C2", "physical_data": {"Molecular Weight": "202.21", "Molecular Formula": "C12H10O3", "Melting Point": "160 \u00b0C"}}