{"cas_no": "19652-33-6", "cn_name": "2-\u7f9f\u57fa-3-\u6c2f-5-\u6eb4\u82ef\u7532\u919b", "en_name": ["5-Bromo-3-chloro-2-hydroxybenzaldehyde", "Benzaldehyde, 5-bromo-3-chloro-2-hydroxy-", "Salicylaldehyde, 5-bromo-3-chloro-", "5-Bromo-3-chloro-2-hydroxybenzaldehyde", "5-Bromo-3-chlorosalicylaldehyde"], "SMILES": "C(=O)C1=C(O)C(Cl)=CC(Br)=C1", "physical_data": {"Molecular Weight": "235.46", "Molecular Formula": "C7H4BrClO2", "Melting Point": "100-102 \u00b0C"}}