{"cas_no": "19654-19-4", "cn_name": "2-(4-\u6eb4\u82ef\u57fa)\u82ef\u5e76\u567b\u5511", "en_name": ["2-(4-Bromophenyl)benzothiazole", "Benzothiazole, 2-(4-bromophenyl)-", "Benzothiazole, 2-(p-bromophenyl)-", "2-(4-Bromophenyl)benzothiazole", "2-(4\u2032-Bromophenyl)benzothiazole", "2-(p-Bromophenyl)benzothiazole", "2-(4-Bromophenyl)-1,3-benzothiazole", "2-(4\u2032-Bromophenyl)benzo[d]thiazole", "2-(4-Bromophenyl)benzo[d]thiazole"], "SMILES": "BrC1=CC=C(C2=NC=3C(S2)=CC=CC3)C=C1", "physical_data": {"Molecular Weight": "290.18", "Molecular Formula": "C13H8BrNS", "Melting Point": "132 \u00b0C"}}