{"cas_no": "196597-78-1", "cn_name": "1,2,6,7-\u56db\u6c22-8H-\u831a\u5e76[5,4-b]\u544b\u5583-8-\u916e", "en_name": ["1,2,6,7-Tetrahydro-8H-indeno[5,4-b]furan-8-one", "8H-Indeno[5,4-b]furan-8-one, 1,2,6,7-tetrahydro-", "1,2,6,7-Tetrahydro-8H-indeno[5,4-b]furan-8-one", "6,7-Dihydro-1H-indeno[5,4-b]furan-8(2H)-one"], "SMILES": "O=C1C=2C3=C(C=CC2CC1)OCC3", "physical_data": {"Molecular Weight": "174.20", "Molecular Formula": "C11H10O2", "Melting Point": "133-134 \u00b0C"}}