{"cas_no": "196597-17-8", "cn_name": "N- [2-\uff081,6,7,8-\u56db\u6c22-2H-\u831a\u5e76[5,4-b]\u544b\u5583-8-\u57fa\uff09\u4e59\u57fa]- \u4e19\u9170\u80fa", "en_name": ["N-[2-(1,6,7,8-Tetrahydro-2H-indeno[5,4-b]furan-8-yl)ethyl]propanamide", "Propanamide, N-[2-(1,6,7,8-tetrahydro-2H-indeno[5,4-b]furan-8-yl)ethyl]-", "N-[2-(1,6,7,8-Tetrahydro-2H-indeno[5,4-b]furan-8-yl)ethyl]propanamide"], "SMILES": "C(CNC(CC)=O)C1C=2C3=C(C=CC2CC1)OCC3", "physical_data": {"Molecular Weight": "259.34", "Molecular Formula": "C16H21NO2", "Melting Point": "102-104 \u00b0C"}}