{"cas_no": "19652-14-3", "cn_name": "5-\u6c28\u57fa-3-(4-\u6c2f\u82ef\u57fa)-1-\u82ef\u57fa\u5421\u5511", "en_name": ["3-(4-Chlorophenyl)-1-phenyl-1H-pyrazol-5-amine", "1H-Pyrazol-5-amine, 3-(4-chlorophenyl)-1-phenyl-", "Pyrazole, 5-amino-3-(p-chlorophenyl)-1-phenyl-", "3-(4-Chlorophenyl)-1-phenyl-1H-pyrazol-5-amine"], "SMILES": "NC1=CC(=NN1C2=CC=CC=C2)C3=CC=C(Cl)C=C3", "physical_data": {"Molecular Weight": "269.73", "Molecular Formula": "C15H12ClN3", "Melting Point": "191-192 \u00b0C"}}