{"cas_no": "19653-33-9", "cn_name": "3-(1-\u54cc\u5576\u57fa)-\u4e19\u9178\u4e59\u916f", "en_name": ["Ethyl 1-piperidinepropanoate", "1-Piperidinepropanoic acid, ethyl ester", "1-Piperidinepropionic acid, ethyl ester", "Ethyl 1-piperidinepropanoate", "Ethyl 3-piperidinepropionate", "NSC 75594", "Ethyl 3-piperidinopropionate", "Ethyl 3-(1-piperidyl)propionate", "Ethyl 3-(1-piperidinyl)propanoate", "1-[2-(Ethoxycarbonyl)ethyl]piperidine"], "SMILES": "C(CC(OCC)=O)N1CCCCC1", "physical_data": {"Molecular Weight": "185.26", "Molecular Formula": "C10H19NO2", "Boiling Point": "&gt;218 \u00b0C", "Density": "0.927 g/cm\u00b3 @ Temp: 20 \u00b0C"}}