{"cas_no": "196597-76-9", "cn_name": "\u96f7\u7f8e\u66ff\u80fa\u6742\u8d28H", "en_name": ["6,7-Dibromo-2,3-dihydro-5-benzofuranpropanoic acid", "5-Benzofuranpropanoic acid, 6,7-dibromo-2,3-dihydro-", "6,7-Dibromo-2,3-dihydro-5-benzofuranpropanoic acid", "3-(6,7-Dibromo-2,3-dihydrobenzo[b]furan-5-yl)propanoic acid", "3-(6,7-Dibromo-2,3-dihydrobenzofuran-5-yl)propanoic acid", "3-(6,7-Dibromo-2,3-dihydrobenzofuran-5-yl)propionic acid", "3-(6,7-Dibromo-2,3-dihydrobenzofuran-5-yl)propionoic acid"], "SMILES": "BrC1=C2C(=CC(CCC(O)=O)=C1Br)CCO2", "physical_data": {"Molecular Weight": "350.00", "Molecular Formula": "C11H10Br2O3", "Melting Point": "117-118 \u00b0C"}}