{"cas_no": "196597-77-0", "cn_name": "4,5-\u4e8c\u6eb4-1,2,6,7-\u56db\u6c22-8H-\u831a\u5e76[5,4-B]\u544b\u5583-8-\u916e", "en_name": ["4,5-Dibromo-1,2,6,7-tetrahydro-8H-indeno[5,4-b]furan-8-one", "8H-Indeno[5,4-b]furan-8-one, 4,5-dibromo-1,2,6,7-tetrahydro-", "4,5-Dibromo-1,2,6,7-tetrahydro-8H-indeno[5,4-b]furan-8-one"], "SMILES": "O=C1C=2C3=C(C(Br)=C(Br)C2CC1)OCC3", "physical_data": {"Molecular Weight": "331.99", "Molecular Formula": "C11H8Br2O2", "Melting Point": "224-226 \u00b0C"}}