{"cas_no": "19660-16-3", "cn_name": "2\uff0c3-\u4e8c\u6eb4\u4e19\u57fa\u4e19\u70ef", "en_name": ["2,3-Dibromopropyl acrylate", "2-Propenoic acid, 2,3-dibromopropyl ester", "Acrylic acid, 2,3-dibromopropyl ester", "1-Propanol, 2,3-dibromo-, acrylate", "2,3-Dibromopropyl acrylate", "2,3-Dibromopropyl prop-2-enoate"], "SMILES": "C(COC(C=C)=O)(CBr)Br", "physical_data": {"Molecular Weight": "271.93", "Molecular Formula": "C6H8Br2O2", "Boiling Point": "105 \u00b0C @ Press: 6 Torr", "Density": "1.7803 g/cm\u00b3 @ Temp: 20 \u00b0C"}}