{"cas_no": "19666-30-9", "cn_name": "\u6076\u8349\u916e", "en_name": ["Oxadiazon", "1,3,4-Oxadiazol-2(3H)-one, 3-[2,4-dichloro-5-(1-methylethoxy)phenyl]-5-(1,1-dimethylethyl)-", "\u03942-1,3,4-Oxadiazolin-5-one, 2-tert-butyl-4-(2,4-dichloro-5-isopropoxyphenyl)-", "3-[2,4-Dichloro-5-(1-methylethoxy)phenyl]-5-(1,1-dimethylethyl)-1,3,4-oxadiazol-2(3H)-one", "RP 17623", "2-tert-Butyl-4-(2,4-dichloro-5-isopropoxyphenyl)-5-oxo-1,3,4-oxadiazoline", "2-tert-Butyl-4-(2,4-dichloro-5-isopropyloxyphenyl)-5-oxo-1,3,4-oxadiazoline", "Oxadiazone", "2-tert-Butyl-4-(2,4-dichloro-5-isopropoxyphenyl)-1,3,4-oxadiazolin-5-one", "Oxadiazon", "Ronstar", "G 315", "Kensogen Ti", "Foresite", "Ronstar 380 SC"], "SMILES": "O=C1N(N=C(C(C)(C)C)O1)C2=CC(OC(C)C)=C(Cl)C=C2Cl", "physical_data": {"Molecular Weight": "345.22", "Molecular Formula": "C15H18Cl2N2O3", "Melting Point": "90 \u00b0C", "Density": "1 x 10<sup>-6</sup> g/cm\u00b3"}}