{"cas_no": "196618-13-0", "cn_name": "\u5965\u53f8\u4ed6\u97e6", "en_name": ["Oseltamivir", "1-Cyclohexene-1-carboxylic acid, 4-(acetylamino)-5-amino-3-(1-ethylpropoxy)-, ethyl ester, (3R,4R,5S)-", "1-Cyclohexene-1-carboxylic acid, 4-(acetylamino)-5-amino-3-(1-ethylpropoxy)-, ethyl ester, [3R-(3\u03b1,4\u03b2,5\u03b1)]-", "GS 4104", "Oseltamivir", "Tamvir", "Tamiflu-Free", "GOP-A-Flu", "(-)-Oseltamivir", "Enfluvir", "Ethyl (3R,4R,5S)-5-amino-4-acetamido-3-(pentan-3-yloxy)cyclohex-1-ene-1-carboxylate", "ZINC 039295508", "Ebilfumin", "MeSH ID: D053139"], "SMILES": "O(C(CC)CC)C1C(NC(C)=O)C(N)CC(C(OCC)=O)=C1", "physical_data": {"Molecular Weight": "312.40", "Molecular Formula": "C16H28N2O4", "Melting Point": "107-108 \u00b0C"}}