{"cas_no": "196601-69-1", "cn_name": "(2R)-2-\u6c28\u57fa-3-\u7532\u6c27\u57fa-N-(\u82ef\u57fa\u7532\u57fa)\u4e19\u9170\u80fa", "en_name": ["(R)-2-Amino-N-benzyl-3-methoxypropionamide", "Propanamide, 2-amino-3-methoxy-N-(phenylmethyl)-, (2R)-", "Propanamide, 2-amino-3-methoxy-N-(phenylmethyl)-, (R)-", "(2R)-2-Amino-3-methoxy-N-(phenylmethyl)propanamide", "(2R)-2-Amino-3-methoxy-N-(phenylmethyl)propanamide", "(R)-2-Amino-N-benzyl-3-methoxypropionamide", "(2R)-2-Amino-N-benzyl-3-methoxypropanamide", "(2R)-2-Amino-N-benzyl-3-methoxypropanamide"], "SMILES": "C(NC(C(COC)N)=O)C1=CC=CC=C1", "physical_data": {"Molecular Weight": "208.26", "Molecular Formula": "C11H16N2O2", "Melting Point": "39-40 \u00b0C"}}