{"cas_no": "1967-31-3", "cn_name": "2-\u6c2f\u5bf9\u82ef\u4e8c\u7532\u9178", "en_name": ["2-Chloro-1,4-benzenedicarboxylic acid", "1,4-Benzenedicarboxylic acid, 2-chloro-", "Terephthalic acid, chloro-", "2-Chloro-1,4-benzenedicarboxylic acid", "2-Chloroterephthalic acid", "Chloroterephthalic acid", "3-Chloro-4-carboxybenzoic acid", "NSC 20548", "2-Chlorobenzene-1,4-dicarboxylic acid"], "SMILES": "C(O)(=O)C1=CC(Cl)=C(C(O)=O)C=C1", "physical_data": {"Molecular Weight": "200.58", "Molecular Formula": "C8H5ClO4", "Melting Point": "306-308 \u00b0C"}}