{"cas_no": "19675-63-9", "cn_name": "\u5bf9\u7fa7\u57fa\u82ef\u4e59\u70ef\u9178", "en_name": ["4-(2-Carboxyethenyl)benzoic acid", "Benzoic acid, 4-(2-carboxyethenyl)-", "Cinnamic acid, p-carboxy-", "4-(2-Carboxyethenyl)benzoic acid", "4-Carboxycinnamic acid", "p-Carboxycinnamic acid"], "SMILES": "C(O)(=O)C1=CC=C(C=CC(O)=O)C=C1", "physical_data": {"Molecular Weight": "192.17", "Molecular Formula": "C10H8O4", "Melting Point": "250-260 \u00b0C"}}