{"cas_no": "1967-16-4", "cn_name": "\u6c2f\u7094\u7075", "en_name": ["Chlorbufam", "Carbamic acid, N-(3-chlorophenyl)-, 1-methyl-2-propyn-1-yl ester", "Carbanilic acid, m-chloro-, 1-methyl-2-propynyl ester", "Carbamic acid, (3-chlorophenyl)-, 1-methyl-2-propynyl ester", "1-Butyn-3-yl m-chlorophenylcarbamate", "3-Chlorophenylcarbamic acid 1-methylpropynyl ester", "BIPC", "Chlorbufam", "Chlorobufam", "Grisemin", "3-Butyn-2-yl m-chlorocarbanilate", "Chlorbupham", "1-Methyl-2-propynyl N-(3-chlorophenyl)carbamate"], "SMILES": "N(C(OC(C#C)C)=O)C1=CC(Cl)=CC=C1", "physical_data": {"Molecular Weight": "223.66", "Molecular Formula": "C11H10ClNO2", "Melting Point": "45-46 \u00b0C", "Density": "1.22 g/cm\u00b3"}}