{"cas_no": "19670-49-6", "cn_name": "\u8f9b\u9178\u7518\u6cb9\u916f", "en_name": ["Glyceryl 1-monooctanoate", "Octanoic acid, 2,3-dihydroxypropyl ester", "Octanoin, 1-mono-", "\u03b1-Monocaprylin", "Octanoic acid 1-monoglyceride", "Caprylic acid \u03b1-monoglyceride", "1-Monooctanoylglycerol", "Glyceryl 1-monooctanoate", "1-Monocaprylin", "2,3-Dihydroxypropyl octanoate", "1-Monooctanoin", "(\u00b1)-Glycerol monoctanoate", "DL-1-Monooctanoin", "1-Monocapryloyl-rac-glycerol", "Monoctanoin"], "SMILES": "C(OCC(CO)O)(CCCCCCC)=O", "physical_data": {"Molecular Weight": "218.29", "Molecular Formula": "C11H22O4", "Melting Point": "39.5-40.5 \u00b0C"}}