{"cas_no": "19670-51-0", "cn_name": "1-\u68d5\u6988\u9178\u5355\u7518\u6cb9\u916f", "en_name": ["1-Monopalmitin", "Hexadecanoic acid, 2,3-dihydroxypropyl ester", "Palmitin, 1-mono-", "\u03b1-Monopalmitin", "1-Monopalmitin", "Glyceryl palmitate", "Glycerol 3-palmitate", "Glycerol 1-palmitate", "Glycerol 1-monopalmitate", "Palmitic acid \u03b1-monoglyceride", "Hexadecanoic acid \u03b1-monoglyceride", "1-Monohexadecanoylglycerol", "(\u00b1)-1-Monopalmitin", "(\u00b1)-1-Hexadecanoylglycerol", "DL-1-Monopalmitin", "1-O-Palmitoyl-DL-glycerol", "1-Monopalmitoyl-rac-glycerol", "(\u00b1)-1-O-Hexadecanoylglycerol", "1-Palmitoyl-rac-glycerol", "Dimodan PA 90", "1-Glycerol hexadecanoate", "NSC 404240", "1-O-Palmitoylglycerol", "Glycerol 1-monohexadecanoate", "2,3-Dihydroxypropyl palmitate", "2,3-Dihydroxypropyl hexadecanoate", "1-Glyceryl monohexadecanoate", "1-Palmitoyl-rac-glycerol", "1-Monohexadecanoyl-rac-glycerol"], "SMILES": "C(C(OCC(CO)O)=O)CCCCCCCCCCCCCC", "physical_data": {"Molecular Weight": "330.50", "Molecular Formula": "C19H38O4", "Melting Point": "71-72 \u00b0C"}}