{"cas_no": "1968-40-7", "cn_name": "4-\u620a\u70ef\u9178\u4e59\u916f", "en_name": ["Ethyl 4-pentenoate", "4-Pentenoic acid, ethyl ester", "Ethyl 4-pentenoate", "4-Ethoxycarbonylbut-1-ene"], "SMILES": "C(CCC=C)(OCC)=O", "physical_data": {"Molecular Weight": "128.17", "Molecular Formula": "C7H12O2", "Boiling Point": "130 \u00b0C @ Press: 12 Torr", "Density": "0.9234 g/cm\u00b3 @ Temp: 40 \u00b0C"}}