{"cas_no": "1968-05-4", "cn_name": "3,3'-\u4e8c\u5432\u54da\u7532\u70f7", "en_name": ["3,3\u2032-Diindolylmethane", "1H-Indole, 3,3\u2032-methylenebis-", "Indole, 3,3\u2032-methylenedi-", "3,3\u2032-Methylenebis[1H-indole]", "3,3\u2032-Diindolylmethane", "3,3\u2032-Bisindolylmethane", "Arundine", "Bis(3-indolyl)methane", "HB 236", "Bis(1H-indol-3-yl)methane", "DIM (AhR agonist)", "DIM (diindolylmethane)", "Cervicon-DIM", "Infemin", "Diindolylmethane", "Di(1H-indol-3-yl)methane", "DIM", "3,3\u2032-Methanediyldi(1H-indole)", "3-[(1H-Indol-3-yl)methyl]-1H-indole"], "SMILES": "C(C=1C=2C(NC1)=CC=CC2)C=3C=4C(NC3)=CC=CC4", "physical_data": {"Molecular Weight": "246.31", "Molecular Formula": "C17H14N2", "Boiling Point": "~230 \u00b0C (approx) @ Press: 0.01 Torr", "Melting Point": "167 \u00b0C"}}