{"cas_no": "19685-21-3", "cn_name": "2,5,8,11-\u56db\u6c27\u6742\u5341\u56db\u78b3\u70ef-13-\u70ef", "en_name": ["2,5,8,11-Tetraoxatetradec-13-ene", "2,5,8,11-Tetraoxatetradec-13-ene", "Methyl triethylene glycol allyl ether", "Allylmethoxytriethylene glycol", "Triethyleneglycol methyl allyl ether", "Triethyleneglycol monomethyl monoallyl ether", "Allylmethoxytriethylene oxide", "Allyl triethylene glycol methyl ether", "Triethylene glycol allyl methyl ether", "Allyl(trioxyethylene) methyl ether", "Tri(ethylene glycol) monoallyl monomethyl ether", "ENEA 0375", "3-[2-[2-(2-Methoxyethoxy)ethoxy]ethoxy]-1-propene"], "SMILES": "C(OCCOCC=C)COCCOC", "physical_data": {"Molecular Weight": "204.26", "Molecular Formula": "C10H20O4", "Boiling Point": "117-119 \u00b0C @ Press: 5 Torr"}}