{"cas_no": "19687-73-1", "cn_name": "2-NP-\u544b\u5583\u5511\u916e", "en_name": ["3-[[(2-Nitrophenyl)methylene]amino]-2-oxazolidinone", "2-Oxazolidinone, 3-[[(2-nitrophenyl)methylene]amino]-", "2-Oxazolidinone, 3-[(o-nitrobenzylidene)amino]-", "3-[[(2-Nitrophenyl)methylene]amino]-2-oxazolidinone", "NPAOZ"], "SMILES": "C(=NN1C(=O)OCC1)C2=C(N(=O)=O)C=CC=C2", "physical_data": {"Molecular Weight": "235.20", "Molecular Formula": "C10H9N3O4", "Melting Point": "175-176 \u00b0C"}}