{"cas_no": "19686-05-6", "cn_name": "2,8-\u4e8c\u7532\u57fa-2,3,4,5-\u56db\u6c22-1H-\u5421\u5576\u5e76[4,3-b]\u5432\u54da", "en_name": ["2,8-Dimethyl-2,3,4,5-tetrahydro-1H-pyrido[4,3-b]indole", "1H-Pyrido[4,3-b]indole, 2,3,4,5-tetrahydro-2,8-dimethyl-", "2,3,4,5-Tetrahydro-2,8-dimethyl-1H-pyrido[4,3-b]indole", "2,8-Dimethyl-2,3,4,5-tetrahydro-1H-pyrido[4,3-b]indole", "2,8-Dimethyl-1,3,4,5-tetrahydropyrido[4,3-b]indole", "2,8-Dimethyl-1H,2H,3H,4H,5H-pyrido[4,3-b]indole"], "SMILES": "CC=1C=C2C3=C(NC2=CC1)CCN(C)C3", "physical_data": {"Molecular Weight": "200.28", "Molecular Formula": "C13H16N2", "Melting Point": "98-100 \u00b0C"}}