{"cas_no": "19686-73-8", "cn_name": "1-\u6eb4-2-\u4e19\u9187", "en_name": ["1-Bromo-2-propanol", "2-Propanol, 1-bromo-", "1-Bromo-2-propanol", "2-Hydroxy-2-methylethyl bromide", "2-Hydroxypropyl bromide", "1-Bromo-2-hydroxypropane", "Propylene bromohydrin", "(\u00b1)-1-Bromo-2-propanol"], "SMILES": "C(CBr)(C)O", "physical_data": {"Molecular Weight": "138.99", "Molecular Formula": "C3H7BrO", "Boiling Point": "146.5 \u00b0C", "Density": "1.5585 g/cm\u00b3 @ Temp: 30 \u00b0C"}}