{"cas_no": "19685-09-7", "cn_name": "10-\u7f9f\u57fa\u559c\u6811\u78b1", "en_name": ["Hydroxycamptothecin", "1H-Pyrano[3\u2032,4\u2032:6,7]indolizino[1,2-b]quinoline-3,14(4H,12H)-dione, 4-ethyl-4,9-dihydroxy-, (4S)-", "Camptothecine, 10-hydroxy-", "1H-Pyrano[3\u2032,4\u2032:6,7]indolizino[1,2-b]quinoline-3,14(4H,12H)-dione, 4-ethyl-4,9-dihydroxy-, (S)-", "(4S)-4-Ethyl-4,9-dihydroxy-1H-pyrano[3\u2032,4\u2032:6,7]indolizino[1,2-b]quinoline-3,14(4H,12H)-dione", "10-Hydroxycamptothecine", "Hydroxycamptothecin", "10-Hydroxycamptothecin", "(S)-10-Hydroxycamptothecin", "NSC 107124", "(+)-10-Hydroxycamptothecin", "ChEMBL 273862", "10-HCPT"], "SMILES": "O=C1N2C(C=3C(C2)=CC=4C(N3)=CC=C(O)C4)=CC5=C1COC(=O)C5(CC)O", "physical_data": {"Molecular Weight": "364.35", "Molecular Formula": "C20H16N2O5", "Melting Point": "268-270 \u00b0C"}}