{"cas_no": "19692-45-6", "cn_name": "\u5bf9\u53d4\u4e01\u57fa\u6c2f\u82c4", "en_name": ["4-tert-Butylbenzyl chloride", "Benzene, 1-(chloromethyl)-4-(1,1-dimethylethyl)-", "Toluene, p-tert-butyl-\u03b1-chloro-", "1-(Chloromethyl)-4-(1,1-dimethylethyl)benzene", "4-tert-Butylbenzyl chloride", "p-tert-Butylbenzyl chloride", "4-(1,1-Dimethylethyl)benzyl chloride", "1-Chloromethyl-4-tert-butylbenzene", "1-(1,1-Dimethylethyl)-4-chloromethylbenzene", "4-t-Butylbenzyl chloride", "p-(Chloromethyl)-tert-butylbenzene", "1-tert-Butyl-4-(chloromethyl)benzene"], "SMILES": "C(C)(C)(C)C1=CC=C(CCl)C=C1", "physical_data": {"Molecular Weight": "182.69", "Molecular Formula": "C11H15Cl", "Boiling Point": "115 \u00b0C @ Press: 16 Torr", "Melting Point": "-18 \u00b0C"}}