{"cas_no": "19694-10-1", "cn_name": "3-\u6c28\u57fa-4-\u6c2f\u82ef\u7532\u9170\u80fa", "en_name": ["3-Amino-4-chlorobenzamide", "Benzamide, 3-amino-4-chloro-", "3-Amino-4-chlorobenzamide", "4-Chloro-3-aminobenzamide", "3-Amino-4-chlorobenzenecarboxamide"], "SMILES": "C(N)(=O)C1=CC(N)=C(Cl)C=C1", "physical_data": {"Molecular Weight": "170.60", "Molecular Formula": "C7H7ClN2O", "Melting Point": "164 \u00b0C"}}