{"cas_no": "19693-75-5", "cn_name": "2-\u7532\u6c27\u57fa-1,3-\u4e8c\u6076\u8302\u70f7", "en_name": ["2-Methoxy-1,3-dioxolane", "1,3-Dioxolane, 2-methoxy-", "Orthoformic acid, cyclic ethylene methyl ester", "Ethylene glycol, cyclic methyl orthoformate", "2-Methoxy-1,3-dioxolane"], "SMILES": "O(C)C1OCCO1", "physical_data": {"Molecular Weight": "104.10", "Molecular Formula": "C4H8O3", "Boiling Point": "129.5 \u00b0C @ Press: 760 Torr"}}