{"cas_no": "196929-78-9", "cn_name": "(R)-(+)-\u53d4\u4e01\u57fa\u4e9a\u78fa\u9170\u80fa", "en_name": ["(R)-2-Methylpropane-2-sulfinamide", "2-Propanesulfinamide, 2-methyl-, [S(R)]-", "2-Propanesulfinamide, 2-methyl-, (R)-", "[S(R)]-2-Methyl-2-propanesulfinamide", "(R)-tert-Butanesulfinamide", "(R)-(+)-2-Methyl-2-propanesulfinamide", "(R)-tert-Butylsulfinamide", "(R)-2-Methyl-2-propanesulfinamide", "(R)-(+)-tert-Butanesulfinamide", "(R)-(+)-tert-Butylsulfinamide", "(R)-2-Methylpropane-2-sulfinamide", "(R)-(+)-2-Methyl-2-propanesulfinamide", "(R)-2-Methylpropan-2-sulfinamide", "(R)-tert-Butylsulfinamide", "(R)-(+)-tert-Butylsulfinamide", "(R)-tert-Butanesulfinamide", "(R)-t-Butyl sulfinamide", "(R)-tert-Butanesulfinimide"], "SMILES": "C(S(N)=O)(C)(C)C", "physical_data": {"Molecular Weight": "121.20", "Molecular Formula": "C4H11NOS", "Melting Point": "101-102 \u00b0C"}}