{"cas_no": "19691-80-6", "cn_name": "\u4e59\u57fa\u6740\u6251\u78f7", "en_name": ["Athidathion", "Phosphorodithioic acid, O,O-diethyl S-[(5-methoxy-2-oxo-1,3,4-thiadiazol-3(2H)-yl)methyl] ester", "Phosphorodithioic acid, O,O-diethyl ester, S-ester with 4-(mercaptomethyl)-2-methoxy-\u03942-1,3,4-thiadiazolin-5-one", "\u03942-1,3,4-Thiadiazolin-5-one, 4-(mercaptomethyl)-2-methoxy-, S-ester with O,O-diethyl phosphorodithioate", "GS 13006", "Athidathion"], "SMILES": "P(SCN1C(=O)SC(OC)=N1)(OCC)(OCC)=S", "physical_data": {"Molecular Weight": "330.38", "Molecular Formula": "C8H15N2O4PS3", "Melting Point": "43-44 \u00b0C"}}