{"cas_no": "1970-40-7", "cn_name": "\u4e09\u6c2f\u5421\u5576\u9187", "en_name": ["Pyriclor", "4-Pyridinol, 2,3,5-trichloro-", "2,3,5-Trichloro-4-pyridinol", "M 2901", "Daxtron", "Pyriclor", "Pyrichlor"], "SMILES": "ClC=1C(O)=C(Cl)C=NC1Cl", "physical_data": {"Molecular Weight": "198.43", "Molecular Formula": "C5H2Cl3NO", "Melting Point": "216 \u00b0C"}}