{"cas_no": "19716-61-1", "cn_name": "8-\u6c27\u9ec4\u8fde\u78b1", "en_name": ["8-Oxocoptisine", "4H-Bis[1,3]benzodioxolo[5,6-a:4\u2032,5\u2032-g]quinolizin-4-one, 6,7-dihydro-", "6,7-Dihydro-4H-bis[1,3]benzodioxolo[5,6-a:4\u2032,5\u2032-g]quinolizin-4-one", "8-Oxocoptisine", "8-Oxycoptisine", "2,3,9,10-Dimethylenedioxy-8-oxoprotoberberine"], "SMILES": "O=C1N2C(C=3C(=CC4=C(C3)OCO4)CC2)=CC=5C1=C6C(=CC5)OCO6", "physical_data": {"Molecular Weight": "335.31", "Molecular Formula": "C19H13NO5", "Melting Point": "283-285 \u00b0C"}}