{"cas_no": "19718-92-4", "cn_name": "4-\u4e8c\u7532\u80fa\u57fa\u4e01\u919b\u7f29\u4e8c\u7532\u9187", "en_name": ["4,4-Dimethoxy-N,N-dimethyl-1-butanamine", "1-Butanamine, 4,4-dimethoxy-N,N-dimethyl-", "Butyraldehyde, 4-(dimethylamino)-, dimethyl acetal", "Butylamine, 4,4-dimethoxy-N,N-dimethyl-", "4,4-Dimethoxy-N,N-dimethyl-1-butanamine", "4-(Dimethylamino)butyraldehyde dimethyl acetal", "4,4-Dimethoxy-N,N-dimethylbutanamine", "4-(Dimethylamino)butanal dimethyl acetal", "(4,4-Dimethoxy-butyl)-dimethyl-amine"], "SMILES": "C(CCCN(C)C)(OC)OC", "physical_data": {"Molecular Weight": "161.24", "Molecular Formula": "C8H19NO2", "Boiling Point": "53.5 \u00b0C @ Press: 5 Torr"}}