{"cas_no": "19715-19-6", "cn_name": "3,5-\u4e8c\u53d4\u4e01\u57fa\u6c34\u6768\u9178", "en_name": ["3,5-Bis(1,1-dimethylethyl)-2-hydroxybenzoic acid", "Benzoic acid, 3,5-bis(1,1-dimethylethyl)-2-hydroxy-", "Salicylic acid, 3,5-di-tert-butyl-", "3,5-Bis(1,1-dimethylethyl)-2-hydroxybenzoic acid", "3,5-Di-tert-butylsalicylic acid", "2-Hydroxy-3,5-di-tert-butylbenzoic acid", "3,5-Di(tert-butyl)-2-hydroxybenzoic acid", "3,5-Di(tert-butyl)-2-hydroxybenzenecarboxylic acid", "TCI-D 1947", "3,5-Bis-tert-butylsalicylic acid", "3,5-Ditert-butyl-2-hydroxybenzoic acid", "D 1947"], "SMILES": "C(C)(C)(C)C1=C(O)C(C(O)=O)=CC(C(C)(C)C)=C1", "physical_data": {"Molecular Weight": "250.33", "Molecular Formula": "C15H22O3", "Melting Point": "164.4 \u00b0C"}}