{"cas_no": "19719-28-9", "cn_name": "2,4-\u4e8c\u6c2f\u82ef\u4e59\u9178", "en_name": ["2,4-Dichlorophenylacetic acid", "Benzeneacetic acid, 2,4-dichloro-", "Acetic acid, (2,4-dichlorophenyl)-", "2,4-Dichlorobenzeneacetic acid", "2,4-Dichlorophenylacetic acid", "NSC 54853", "2-(2,4-Dichlorophenyl)acetic acid"], "SMILES": "C(C(O)=O)C1=C(Cl)C=C(Cl)C=C1", "physical_data": {"Molecular Weight": "205.04", "Molecular Formula": "C8H6Cl2O2", "Melting Point": "131 \u00b0C"}}