{"cas_no": "19716-26-8", "cn_name": "STIGMASTEROL GLUCOSIDE", "en_name": ["Stigmasterol 3-O-\u03b2-D-glucopyranoside", "\u03b2-D-Glucopyranoside, (3\u03b2,22E)-stigmasta-5,22-dien-3-yl", "Stigmasta-5,22-diene, 3\u03b2-(\u03b2-D-glucopyranosyloxy)-", "Stigmastane, \u03b2-D-glucopyranoside deriv.", "(3\u03b2,22E)-Stigmasta-5,22-dien-3-yl \u03b2-D-glucopyranoside", "Stigmasterol 3-O-\u03b2-D-glucopyranoside", "Stigmasteryl \u03b2-glucoside", "Stigmasterol glucoside", "Stigmasterol \u03b2-D-glucoside", "Stigmasteryl D-glucoside", "Stigmasteryl \u03b2-D-glucopyranoside", "Stigmasterol 3-\u03b2-D-glucopyranoside", "Stigmasterol \u03b2-glucopyranoside", "Stigmasterol \u03b2-D-glucopyranoside", "Stigmasterol 3-O-glucoside", "Stigmasterol 3-O-\u03b2-D-glucoside", "\u03945-Stigmasterol 3-O-\u03b2-D-glucopyranoside", "\u03b2-Stigmasteryl 3-O-\u03b2-D-glucopyranoside", "3-O-\u03b2-D-Glucopyranosylstigmasterol", "Stigma-5,22-dien-3-\u03b2-D-glucopyranoside", "Stigmasterol O-glucoside", "3-O-\u03b2-D-Glucopyranosyl-\u03b2-stigmasterol", "Stigmasta-5,22-diene-3-O-\u03b2-D-glucopyranoside", "\u03b2-Stigmasterol-3-O-\u03b2-D-glucopyranoside"], "SMILES": "CC12C(C3C(C4(C)C(=CC3)CC(OC5OC(CO)C(O)C(O)C5O)CC4)CC1)CCC2C(C=CC(C(C)C)CC)C", "physical_data": {"Molecular Weight": "574.83", "Molecular Formula": "C35H58O6", "Melting Point": "299 \u00b0C"}}