{"cas_no": "1971007-88-1", "cn_name": "5FMDMB-2201", "en_name": ["N-[[1-(5-Fluoropentyl)-1H-indol-3-yl]carbonyl]-3-methyl-L-valine methyl ester", "L-Valine, N-[[1-(5-fluoropentyl)-1H-indol-3-yl]carbonyl]-3-methyl-, methyl ester", "N-[[1-(5-Fluoropentyl)-1H-indol-3-yl]carbonyl]-3-methyl-L-valine methyl ester"], "SMILES": "C(NC(C(OC)=O)C(C)(C)C)(=O)C=1C=2C(N(CCCCCF)C1)=CC=CC2", "physical_data": {"Molecular Weight": "376.46", "Molecular Formula": "C21H29FN2O3", "Melting Point": "82-84 \u00b0C"}}