{"cas_no": "19727-83-4", "cn_name": "6-\u785d\u57fa\u5432\u54da\u5549", "en_name": ["6-Nitroindoline", "1H-Indole, 2,3-dihydro-6-nitro-", "Indoline, 6-nitro-", "2,3-Dihydro-6-nitro-1H-indole", "6-Nitroindoline", "6-Nitro-2,3-dihydro-1H-indole", "NSC 80658"], "SMILES": "N(=O)(=O)C=1C=C2C(=CC1)CCN2", "physical_data": {"Molecular Weight": "164.16", "Molecular Formula": "C8H8N2O2", "Melting Point": "67-69 \u00b0C"}}