{"cas_no": "19728-63-3", "cn_name": "N-\u82c4\u6c27\u7fb0\u57fa-L-\u82cf\u6c28\u9178", "en_name": ["Z-Thr-OH", "L-Threonine, N-[(phenylmethoxy)carbonyl]-", "Threonine, N-carboxy-, N-benzyl ester, L-", "N-[(Phenylmethoxy)carbonyl]-L-threonine", "N-Carbobenzoxy-L-threonine", "N-Benzyloxycarbonyl-L-threonine", "Z-Thr-OH", "Cbz-Thr-OH", "NSC 333749", "N-Cbz-L-threonine", "(2S,3R)-2-[(Benzyloxycarbonyl)amino]-3-hydroxybutanoic acid", "(2R)-2-[(4R,5R)-5-Methyl-2-oxooxazolidine-4-carboxamido]-3-(thiazol-4-yl)propanoic acid"], "SMILES": "C(NC(OCC1=CC=CC=C1)=O)(C(C)O)C(O)=O", "physical_data": {"Molecular Weight": "253.25", "Molecular Formula": "C12H15NO5", "Melting Point": "103-104 \u00b0C"}}