{"cas_no": "1972-28-7", "cn_name": "\u5076\u6c2e\u4e8c\u7532\u9178\u4e8c\u4e59\u916f", "en_name": ["Diethyl azodicarboxylate", "1,2-Diazenedicarboxylic acid, 1,2-diethyl ester", "Formic acid, azodi-, diethyl ester", "Diazenedicarboxylic acid, diethyl ester", "Diethyl azodicarboxylate", "Diethyl azodiformate", "Diethyl diazodicarboxylate", "Diethoxycarbonyldiazene", "1,2-Ethoxycarbonyl diazene", "Diethyl diazenedicarboxylate", "Azodicarboxylic acid diethyl ester", "DEAD", "Unifoam AZ-AE 200", "NSC 3474", "NSC 679015"], "SMILES": "C(N=NC(OCC)=O)(OCC)=O", "physical_data": {"Molecular Weight": "174.15", "Molecular Formula": "C6H10N2O4", "Boiling Point": "90-95 \u00b0C @ Press: 5 Torr", "Melting Point": "118-122 \u00b0C"}}