{"cas_no": "19721-22-3", "cn_name": "3-\u5def\u57fa-1-\u4e19\u9187", "en_name": ["3-Mercapto-1-propanol", "1-Propanol, 3-mercapto-", "3-Mercapto-1-propanol", "1-Mercapto-3-propanol", "3-Hydroxypropyl mercaptan", "3-Mercaptopropanol", "3-Hydroxypropanethiol", "NSC 46437", "3-Sulfanylpropanol", "3-Sulfanylpropan-1-ol"], "SMILES": "C(CO)CS", "physical_data": {"Molecular Weight": "92.16", "Molecular Formula": "C3H8OS", "Boiling Point": "85-90 \u00b0C @ Press: 15 Torr"}}