{"cas_no": "1973-22-4", "cn_name": "2-\u6eb4\u4e59\u82ef", "en_name": ["1-Bromo-2-ethylbenzene", "Benzene, 1-bromo-2-ethyl-", "1-Bromo-2-ethylbenzene", "o-Bromoethylbenzene", "2-Bromo-1-ethylbenzene", "2-Ethylbromobenzene", "o-Ethylbromobenzene", "1-Ethyl-2-bromobenzene"], "SMILES": "C(C)C1=C(Br)C=CC=C1", "physical_data": {"Molecular Weight": "185.06", "Molecular Formula": "C8H9Br", "Boiling Point": "199.3 \u00b0C", "Melting Point": "-67.9 \u00b0C"}}