{"cas_no": "19735-89-8", "cn_name": "1-\u82ef\u57fa-3-\u7532\u57fa-5-\u5421\u5511\u5549\u916e", "en_name": ["3-Methyl-1-phenylpyrazolone", "3H-Pyrazol-3-one, 1,2-dihydro-5-methyl-2-phenyl-", "3-Pyrazolin-5-one, 3-methyl-1-phenyl-", "1,2-Dihydro-5-methyl-2-phenyl-3H-pyrazol-3-one", "3-Methyl-1-phenylpyrazolone", "N-Desmethylantipyrine", "N-Demethylantipyrine", "1-Phenyl-3-methyl-\u03943-pyrazol-5-one", "1-Phenyl-3-methyl-5-pyrazolone", "5-Methyl-2-phenyl-1,2-dihydropyrazol-3-one", "2,3-Dihydro-5-methyl-2-phenyl-1H-pyrazol-3-one"], "SMILES": "O=C1N(NC(C)=C1)C2=CC=CC=C2", "physical_data": {"Molecular Weight": "174.20", "Molecular Formula": "C10H10N2O", "Melting Point": "128 \u00b0C"}}