{"cas_no": "19733-56-3", "cn_name": "4-(\u54cc\u5576-3-\u57fa)\u82ef\u80fa", "en_name": ["4-(3-Piperidinyl)benzenamine", "Benzenamine, 4-(3-piperidinyl)-", "Piperidine, 3-(p-aminophenyl)-", "4-(3-Piperidinyl)benzenamine", "3-(4-Aminophenyl)piperidine", "4-(Piperidin-3-yl)aniline"], "SMILES": "NC1=CC=C(C=C1)C2CCCNC2", "physical_data": {"Molecular Weight": "176.26", "Molecular Formula": "C11H16N2", "Melting Point": "96-97 \u00b0C"}}