{"cas_no": "19746-37-3", "cn_name": "S-\u4e59\u9170\u80fa\u57fa\u7532\u57fa-N-\u53d4\u4e01\u6c27\u7fb0\u57fa-L-\u534a\u80f1\u6c28\u9178", "en_name": ["S-[(Acetylamino)methyl]-N-[(1,1-dimethylethoxy)carbonyl]-L-cysteine", "L-Cysteine, S-[(acetylamino)methyl]-N-[(1,1-dimethylethoxy)carbonyl]-", "Alanine, 3-[(acetamidomethyl)thio]-N-carboxy-, N-tert-butyl ester, L-", "S-[(Acetylamino)methyl]-N-[(1,1-dimethylethoxy)carbonyl]-L-cysteine", "N-tert-Butoxycarbonyl-S-(acetamidomethyl)-L-cysteine"], "SMILES": "C(NC(OC(C)(C)C)=O)(CSCNC(C)=O)C(O)=O", "physical_data": {"Molecular Weight": "292.35", "Molecular Formula": "C11H20N2O5S", "Melting Point": "110-112 \u00b0C"}}