{"cas_no": "19748-66-4", "cn_name": "1-(3-\u7f9f\u4e19\u57fa)\u5421\u54af\u70f7", "en_name": ["1-Pyrrolidinepropanol", "1-Pyrrolidinepropanol", "3-(1-Pyrrolidyl)-1-propanol", "3-(1-Pyrrolidinyl)propanol", "3-Pyrrolidino-1-propanol", "N-(3-Hydroxypropyl)pyrrolidine", "3-(Pyrrolidin-1-yl)propan-1-ol", "1-(3-Hydroxypropyl)pyrrolidine"], "SMILES": "C(CCO)N1CCCC1", "physical_data": {"Molecular Weight": "129.20", "Molecular Formula": "C7H15NO", "Boiling Point": "98 \u00b0C @ Press: 18 Torr"}}