{"cas_no": "19740-72-8", "cn_name": "\u4e8c\u5f02\u4e19\u57fa\u8054\u4e9a\u6c28\u57fa\u4e8c\u78b3\u80fa", "en_name": ["Diisopropyl hydrazodicarboxylate", "1,2-Hydrazinedicarboxylic acid, 1,2-bis(1-methylethyl) ester", "Bicarbamic acid, diisopropyl ester", "1,2-Hydrazinedicarboxylic acid, bis(1-methylethyl) ester", "Diisopropyl 1,2-hydrazinedicarboxylate", "Diisopropyl hydrazodicarboxylate", "Celogen HT 500", "NSC 29147", "Bis(1-methylethyl) hydrazine-1,2-dicarboxylate"], "SMILES": "C(NNC(OC(C)C)=O)(OC(C)C)=O", "physical_data": {"Molecular Weight": "204.22", "Molecular Formula": "C8H16N2O4", "Melting Point": "105-107 \u00b0C"}}