{"cas_no": "1974-04-5", "cn_name": "2-\u6eb4\u5e9a\u70f7", "en_name": ["2-Bromoheptane", "Heptane, 2-bromo-", "2-Bromoheptane", "2-Heptyl bromide", "(\u00b1)-2-Bromoheptane", "NSC 11768", "Heptan-2-yl bromide"], "SMILES": "C(CCCC)C(Br)C", "physical_data": {"Molecular Weight": "179.10", "Molecular Formula": "C7H15Br", "Boiling Point": "166 \u00b0C", "Melting Point": "47 \u00b0C", "Density": "1.1277 g/cm\u00b3 @ Temp: 20 \u00b0C"}}