{"cas_no": "1974-05-6", "cn_name": "3-\u6eb4\u5e9a\u70f7", "en_name": ["3-Bromoheptane", "Heptane, 3-bromo-", "3-Bromoheptane", "3-Heptyl bromide"], "SMILES": "C(CCCC)(CC)Br", "physical_data": {"Molecular Weight": "179.10", "Molecular Formula": "C7H15Br", "Boiling Point": "62 \u00b0C", "Density": "1.1415 g/cm\u00b3 @ Temp: 15 \u00b0C"}}