{"cas_no": "19745-72-3", "cn_name": "4-\u7f9f\u57fa-\u0391-\u6c28\u57fa\u82ef\u4e59\u916e\u76d0\u9178\u76d0", "en_name": ["Ethanone, 2-amino-1-(4-hydroxyphenyl)-, hydrochloride (1:1)", "Ethanone, 2-amino-1-(4-hydroxyphenyl)-, hydrochloride (1:1)", "Acetophenone, 2-amino-4\u2032-hydroxy-, hydrochloride", "Ethanone, 2-amino-1-(4-hydroxyphenyl)-, hydrochloride", "\u03b1-Amino-4-hydroxyacetophenone hydrochloride", "\u03b1-Amino-p-hydroxyacetophenone hydrochloride", "2-Amino-1-(4-hydroxyphenyl)ethanone hydrochloride", "2-Amino-4\u2032-Hydroxyacetophenone Hydrochloride"], "SMILES": "C(CN)(=O)C1=CC=C(O)C=C1.Cl", "physical_data": {"Molecular Weight": "", "Molecular Formula": "C8H9NO2.ClH", "Melting Point": "245-252 \u00b0C (decomp)"}}