{"cas_no": "1975-50-4", "cn_name": "2-\u7532\u57fa-3-\u785d\u57fa\u82ef\u7532\u9178", "en_name": ["2-Methyl-3-nitrobenzoic acid", "Benzoic acid, 2-methyl-3-nitro-", "o-Toluic acid, 3-nitro-", "2-Methyl-3-nitrobenzoic acid", "3-Nitro-2-methylbenzoic acid", "3-Nitro-o-toluic acid"], "SMILES": "C(O)(=O)C1=C(C)C(N(=O)=O)=CC=C1", "physical_data": {"Molecular Weight": "181.15", "Molecular Formula": "C8H7NO4", "Melting Point": "152 \u00b0C"}}