{"cas_no": "1975-52-6", "cn_name": "2-\u7532\u57fa-5-\u785d\u57fa\u82ef\u7532\u9178", "en_name": ["2-Methyl-5-nitrobenzoic acid", "Benzoic acid, 2-methyl-5-nitro-", "o-Toluic acid, 5-nitro-", "2-Methyl-5-nitrobenzoic acid", "5-Nitro-o-toluic acid", "3-Nitro-6-methylbenzoic acid", "5-Nitro-2-methylbenzoic acid"], "SMILES": "C(O)(=O)C1=CC(N(=O)=O)=CC=C1C", "physical_data": {"Molecular Weight": "181.15", "Molecular Formula": "C8H7NO4", "Melting Point": "179 \u00b0C"}}