{"cas_no": "19752-55-7", "cn_name": "3,5-\u4e8c\u6c2f-1-\u6eb4\u82ef", "en_name": ["Bromo-3,5-dichlorobenzene", "Benzene, 1-bromo-3,5-dichloro-", "1-Bromo-3,5-dichlorobenzene", "3,5-Dichlorobromobenzene", "Bromo-3,5-dichlorobenzene", "3,5-Dichloro-1-bromobenzene"], "SMILES": "BrC1=CC(Cl)=CC(Cl)=C1", "physical_data": {"Molecular Weight": "225.90", "Molecular Formula": "C6H3BrCl2", "Boiling Point": "232 \u00b0C", "Melting Point": "83 \u00b0C"}}