{"cas_no": "1975-78-6", "cn_name": "\u7678\u8148", "en_name": ["Decanenitrile", "Decanenitrile", "Caprinitrile", "Decanonitrile", "1-Decanenitrile", "n-Decanonitrile", "1-Cyanononane", "NSC 6085", "Nonyl cyanide", "Arneel 10D"], "SMILES": "C(CCCCC)CCCC#N", "physical_data": {"Molecular Weight": "153.26", "Molecular Formula": "C10H19N", "Boiling Point": "243 \u00b0C", "Melting Point": "-17.9 \u00b0C", "Density": "0.82945 g/cm\u00b3 @ Temp: 15 \u00b0C"}}