{"cas_no": "19752-61-5", "cn_name": "2,4-\u4e8c\u53d4\u4e01\u6c27\u57fa-5-\u6eb4\u5627\u5576", "en_name": ["5-Bromo-2,4-bis(1,1-dimethylethoxy)pyrimidine", "Pyrimidine, 5-bromo-2,4-bis(1,1-dimethylethoxy)-", "Pyrimidine, 5-bromo-2,4-di-tert-butoxy-", "5-Bromo-2,4-bis(1,1-dimethylethoxy)pyrimidine", "5-Bromo-2,4-bis(tert-butoxy)pyrimidine", "5-Bromo-2,4-di-tert-butoxypyrimidine"], "SMILES": "O(C(C)(C)C)C1=NC(OC(C)(C)C)=NC=C1Br", "physical_data": {"Molecular Weight": "303.20", "Molecular Formula": "C12H19BrN2O2", "Melting Point": "61 \u00b0C"}}