{"cas_no": "1975-51-5", "cn_name": "2-\u7532\u57fa-4-\u785d\u57fa\u82ef\u7532\u9178", "en_name": ["2-Methyl-4-nitrobenzoic acid", "Benzoic acid, 2-methyl-4-nitro-", "o-Toluic acid, 4-nitro-", "2-Methyl-4-nitrobenzoic acid", "4-Nitro-2-methylbenzoic acid", "4-Nitro-o-toluic acid", "NSC 227948"], "SMILES": "N(=O)(=O)C1=CC(C)=C(C(O)=O)C=C1", "physical_data": {"Molecular Weight": "181.15", "Molecular Formula": "C8H7NO4", "Boiling Point": "153 \u00b0C", "Melting Point": "151-152 \u00b0C"}}