{"cas_no": "19757-97-2", "cn_name": "2-\u7f9f\u57fa-2-\u7532\u6c27\u57fa\u4e59\u9178\u7532\u916f", "en_name": ["Methyl 2-hydroxy-2-methoxyacetate", "Acetic acid, 2-hydroxy-2-methoxy-, methyl ester", "Glycolic acid, methoxy-, methyl ester", "Acetic acid, hydroxymethoxy-, methyl ester", "Glyoxylic acid, methyl ester, methyl hemiacetal", "Methyl glyoxylate methyl hemiacetal", "Methyl 2-hydroxy-2-methoxyacetate", "2-Hydroxy-2-methoxyacetic acid methyl ester", "\u03b1-Hydroxy-\u03b1-methoxyacetic acid", "GMHA", "Glycolic acid methyl ester-hemiacetal"], "SMILES": "C(C(OC)=O)(OC)O", "physical_data": {"Molecular Weight": "120.10", "Molecular Formula": "C4H8O4", "Boiling Point": "117-120 \u00b0C @ Press: 760 Torr"}}