{"cas_no": "19752-57-9", "cn_name": "1,3-\u4e8c\u6eb4-5-\u7898\u82ef", "en_name": ["1,3-Dibromo-5-iodobenzene", "Benzene, 1,3-dibromo-5-iodo-", "1,3-Dibromo-5-iodobenzene", "3,5-Dibromoiodobenzene", "3,5-Dibromophenyl iodide", "1-Iodo-3,5-dibromobenzene"], "SMILES": "BrC1=CC(Br)=CC(I)=C1", "physical_data": {"Molecular Weight": "361.80", "Molecular Formula": "C6H3Br2I", "Melting Point": "122.5-123.5 \u00b0C"}}