{"cas_no": "19750-02-8", "cn_name": "3-\u6c28\u57fa-4-\u7fa7\u57fa\u4e59\u6c27\u57fa\u5421\u5511", "en_name": ["Ethyl 3-amino-1H-pyrazole-4-carboxylate", "1H-Pyrazole-4-carboxylic acid, 3-amino-, ethyl ester", "Pyrazole-4-carboxylic acid, 3-amino-, ethyl ester", "Pyrazole-4-carboxylic acid, 3(or 5)-amino-, ethyl ester", "3-Amino-4-carbethoxypyrazole", "Ethyl 3-aminopyrazole-4-carboxylate", "3-Amino-4-(ethoxycarbonyl)pyrazole", "Ethyl 5-amino-4-pyrazolecarboxylate", "Ethyl 5-aminopyrazol-4-carboxylate", "Ethyl 3-aminopyrazol-4-carboxylate", "3-Amino-1H-pyrazole-4-carboxylic acid ethyl ester", "Ethyl 5-amino-1H-pyrazole-4-carboxylate", "Ethyl 3-amino-1H-pyrazole-4-carboxylate", "NSC 521580", "3-Amino-4-carboethoxy-2H-pyrazole"], "SMILES": "C(OCC)(=O)C=1C(N)=NNC1", "physical_data": {"Molecular Weight": "155.15", "Molecular Formula": "C6H9N3O2", "Melting Point": "102-103 \u00b0C"}}