{"cas_no": "19763-90-7", "cn_name": "3,4-\u4e8c\u6c2f\u82ef\u80bc\u76d0\u9178\u76d0", "en_name": ["Hydrazine, (3,4-dichlorophenyl)-, hydrochloride (1:1)", "Hydrazine, (3,4-dichlorophenyl)-, hydrochloride (1:1)", "Hydrazine, (3,4-dichlorophenyl)-, monohydrochloride", "3,4-Dichlorophenylhydrazine hydrochloride", "2-(3,4-Dichlorophenyl)hydrazinium chloride"], "SMILES": "N(N)C1=CC(Cl)=C(Cl)C=C1.Cl", "physical_data": {"Molecular Weight": "", "Molecular Formula": "C6H6Cl2N2.ClH", "Melting Point": "202 \u00b0C (decomp)"}}