{"cas_no": "1977-10-2", "cn_name": "\u6d1b\u6c99\u5e73", "en_name": ["Loxapine", "Dibenz[b,f][1,4]oxazepine, 2-chloro-11-(4-methyl-1-piperazinyl)-", "2-Chloro-11-(4-methyl-1-piperazinyl)dibenz[b,f][1,4]oxazepine", "HF 3170", "LW 3170", "Loxapine", "Oxilapine", "SUM 3170", "CL 62362", "2-Chloro-11-(4-methylpiperazino)dibenz[b,f][1,4]oxazepine", "S 805", "Loxapin", "Cloxazepine", "Loxitane IM", "Adasuve", "Rosup", "2-Chloro-11-(4-methylpiperazin-1-yl)dibenzo[b,f][1,4]oxazepine", "MeSH ID: D008152"], "SMILES": "ClC=1C=C2C(=NC=3C(OC2=CC1)=CC=CC3)N4CCN(C)CC4", "physical_data": {"Molecular Weight": "327.81", "Molecular Formula": "C18H18ClN3O", "Melting Point": "109-110 \u00b0C"}}