{"cas_no": "19771-63-2", "cn_name": "\u4e19\u534a\u80f1\u6c28\u9178", "en_name": ["Procysteine", "4-Thiazolidinecarboxylic acid, 2-oxo-, (4R)-", "4-Thiazolidinecarboxylic acid, 2-oxo-, L-", "4-Thiazolidinecarboxylic acid, 2-oxo-, (R)-", "(4R)-2-Oxo-4-thiazolidinecarboxylic acid", "L-2-Oxo-4-thiazolidinecarboxylic acid", "(R)-2-Oxothiazolidine-4-carboxylic acid", "Procysteine", "(R)-(-)-2-Oxothiazolidine-4-carboxylic acid", "2-Oxo-L-thiazolidine-4-carboxylic acid", "(4R)-2-Oxothiazolidine-4-carboxylic acid", "(-)-2-Oxo-4-thiazolidinecarboxylic acid", "R-2-Oxo-1,3-thiazolidine-4-carboxylic acid", "(4R)-2-Oxo-1,3-thiazolidine-4-carboxylic acid", "(4R)-2-Oxo-1,3-thiazolidine-4-carboxylic acid"], "SMILES": "C(O)(=O)C1NC(=O)SC1", "physical_data": {"Molecular Weight": "147.15", "Molecular Formula": "C4H5NO3S", "Melting Point": "171-173 \u00b0C"}}