{"cas_no": "19777-66-3", "cn_name": "(S)-(-)-\u4e8c\u6c28\u57fa\u4e19\u70f7\u4e8c\u76d0\u9178\u76d0", "en_name": ["1,2-Propanediamine, hydrochloride (1:2), (2S)-", "1,2-Propanediamine, hydrochloride (1:2), (2S)-", "1,2-Propanediamine, dihydrochloride, L-", "1,2-Propanediamine, dihydrochloride, (S)-", "1,2-Propanediamine, dihydrochloride, (2S)-", "(S)-(-)-1,2-Propanediamine dihydrochloride", "(S)-1,2-Diaminopropane dihydrochloride", "(S)-(-)-1,2-Diaminopropane dihydrochloride", "(S)-Propane-1,2-diamine dihydrochloride"], "SMILES": "C(CN)(C)N.Cl", "physical_data": {"Molecular Weight": "", "Molecular Formula": "C3H10N2.2ClH", "Melting Point": "242-243 \u00b0C"}}