{"cas_no": "19777-67-4", "cn_name": "(R)-(+)-\u4e8c\u6c28\u57fa\u4e19\u70f7\u4e8c\u76d0\u9178\u76d0", "en_name": ["1,2-Propanediamine, hydrochloride (1:2), (2R)-", "1,2-Propanediamine, hydrochloride (1:2), (2R)-", "1,2-Propanediamine, dihydrochloride, D-", "1,2-Propanediamine, dihydrochloride, (R)-", "1,2-Propanediamine, dihydrochloride, (2R)-", "(R)-(+)-1,2-Diaminopropane dihydrochloride", "(+)-1,2-Propanediamine dihydrochloride", "(R)-1,2-Diaminopropane dihydrochloride", "(R)-Propane-1,2-diamine dihydrochloride"], "SMILES": "C(CN)(C)N.Cl", "physical_data": {"Molecular Weight": "", "Molecular Formula": "C3H10N2.2ClH", "Melting Point": "236-238 \u00b0C"}}