{"cas_no": "19774-82-4", "cn_name": "\u76d0\u9178\u80fa\u7898\u916e", "en_name": ["Amiodarone hydrochloride", "Methanone, (2-butyl-3-benzofuranyl)[4-[2-(diethylamino)ethoxy]-3,5-diiodophenyl]-, hydrochloride (1:1)", "Ketone, 2-butyl-3-benzofuranyl 4-[2-(diethylamino)ethoxy]-3,5-diiodophenyl, hydrochloride", "Methanone, (2-butyl-3-benzofuranyl)[4-[2-(diethylamino)ethoxy]-3,5-diiodophenyl]-, hydrochloride", "SKF 33134A", "2-Butyl-3-benzofuranyl 4-[2-(diethylamino)ethoxy]-3,5-diiodophenyl ketone hydrochloride", "L 3428", "Amiodarone hydrochloride", "Amiodaronum hydrochloride", "Cordarone", "L 3428-Labaz", "Trangorex", "Pacerone", "Miodaron", "Angiodarona", "Ritmocardyl", "Ortacrone", "Cordarex", "Amiodar", "Rythmarone", "Cordarone X", "Atlansil", "Ancoron", "Miocard", "Nexterone", "NSC 85442"], "SMILES": "C(=O)(C=1C=2C(OC1CCCC)=CC=CC2)C3=CC(I)=C(OCCN(CC)CC)C(I)=C3.Cl", "physical_data": {"Molecular Weight": "", "Molecular Formula": "C25H29I2NO3.ClH", "Melting Point": "156 \u00b0C"}}