{"cas_no": "19781-72-7", "cn_name": "11-\u4e8c\u5341\u4e00\u916e", "en_name": ["11-Heneicosanone", "11-Heneicosanone", "Didecyl ketone", "Heneicosene-11-one", "NSC 93984"], "SMILES": "C(C(CCCCCCCCCC)=O)CCCCCCCCC", "physical_data": {"Molecular Weight": "310.56", "Molecular Formula": "C21H42O", "Melting Point": "64.3-64.5 \u00b0C"}}