{"cas_no": "19786-36-8", "cn_name": "H-PRO-TYR-OH", "en_name": ["L-Prolyl-L-tyrosine", "L-Tyrosine, L-prolyl-", "Tyrosine, N-L-prolyl-, L-", "L-Tyrosine, N-L-prolyl-", "L-Prolyl-L-tyrosine", "48: PN: WO2005081628 SEQID: 1048 claimed protein", "37: PN: EP2161028 PAGE: 10 claimed protein", "14: PN: WO2014063098 TABLE: 5 claimed sequence", "134: PN: US20130123467 SEQID: 160 claimed protein", "785: PN: WO2022215055 SEQID: 785 claimed protein"], "SMILES": "C(NC(CC1=CC=C(O)C=C1)C(O)=O)(=O)C2CCCN2", "physical_data": {"Molecular Weight": "278.30", "Molecular Formula": "C14H18N2O4", "Melting Point": "217 \u00b0C"}}