{"cas_no": "1978-61-6", "cn_name": "4-\u6c1f\u82ef\u57fa-\u56db\u7f9f\u57fa\u5421\u5576", "en_name": ["4-(4-Fluorophenyl)-1,2,3,6-tetrahydropyridine hydrochloride", "Pyridine, 4-(4-fluorophenyl)-1,2,3,6-tetrahydro-, hydrochloride (1:1)", "Pyridine, 4-(p-fluorophenyl)-1,2,3,6-tetrahydro-, hydrochloride", "Pyridine, 4-(4-fluorophenyl)-1,2,3,6-tetrahydro-, hydrochloride", "4-(4-Fluorophenyl)-1,2,3,6-tetrahydropyridine hydrochloride", "4-(4-Fluorophenyl)-1,2,5,6-tetrahydropyridine hydrochloride"], "SMILES": "FC1=CC=C(C=C1)C=2CCNCC2.Cl", "physical_data": {"Molecular Weight": "", "Molecular Formula": "C11H12FN.ClH", "Melting Point": "172-173.5 \u00b0C"}}