{"cas_no": "19780-84-8", "cn_name": "5-\u5df1\u7094-3-\u9187", "en_name": ["5-Hexyn-3-ol", "5-Hexyn-3-ol", "1-Hexyn-4-ol", "4-Hydroxy-1-hexyne", "NSC 244897"], "SMILES": "C(CC#C)(CC)O", "physical_data": {"Molecular Weight": "98.14", "Molecular Formula": "C6H10O", "Boiling Point": "58-59 \u00b0C @ Press: 25 Torr", "Density": "0.8918 g/cm\u00b3 @ Temp: 20 \u00b0C"}}