{"cas_no": "19788-35-3", "cn_name": "5-\u7532\u57fa\u5f02\u6076\u5511-3-\u7fa7\u9178\u7532\u916f", "en_name": ["Methyl 5-methyl-3-isoxazolecarboxylate", "3-Isoxazolecarboxylic acid, 5-methyl-, methyl ester", "Methyl 5-methyl-3-isoxazolecarboxylate", "Premnazole", "5-Methylisoxazole-3-carboxylic acid methyl ester"], "SMILES": "C(OC)(=O)C=1C=C(C)ON1", "physical_data": {"Molecular Weight": "141.12", "Molecular Formula": "C6H7NO3", "Melting Point": "89-90 \u00b0C"}}