{"cas_no": "19780-25-7", "cn_name": "2-\u4e59\u57fa\u4e01\u70ef\u919b", "en_name": ["2-Ethyl-2-butenal", "2-Butenal, 2-ethyl-", "Crotonaldehyde, 2-ethyl-", "Crotonaldehyde, \u03b1-ethyl-", "2-Ethyl-2-butenal", "2-Ethylcrotonaldehyde", "\u03b1-Ethyl-2-butenal"], "SMILES": "C(CC)(=CC)C=O", "physical_data": {"Molecular Weight": "98.14", "Molecular Formula": "C6H10O", "Boiling Point": "34-38 \u00b0C @ Press: 14 Torr", "Density": "0.8723 g/cm\u00b3 @ Temp: 15 \u00b0C"}}