{"cas_no": "19788-37-5", "cn_name": "4-\u6c2f\u7532\u57fa-3,5-\u4e8c\u7532\u57fa\u5f02\u5641\u5511", "en_name": ["4-(Chloromethyl)-3,5-dimethylisoxazole", "Isoxazole, 4-(chloromethyl)-3,5-dimethyl-", "4-(Chloromethyl)-3,5-dimethylisoxazole", "3,5-Dimethyl-4-chloromethylisoxazole", "(3,5-Dimethylisoxazol-4-yl)methyl chloride"], "SMILES": "C(Cl)C=1C(C)=NOC1C", "physical_data": {"Molecular Weight": "145.59", "Molecular Formula": "C6H8ClNO", "Boiling Point": "87-88 \u00b0C @ Press: 8 Torr", "Density": "1.173 g/cm\u00b3 @ Temp: 20 \u00b0C"}}