{"cas_no": "19788-36-4", "cn_name": "(3,5-\u4e8c\u7532\u57fa-4-\u5f02\u6076\u5511\u57fa)\u7532\u9187", "en_name": ["3,5-Dimethyl-4-isoxazolemethanol", "4-Isoxazolemethanol, 3,5-dimethyl-", "3,5-Dimethyl-4-isoxazolemethanol", "NSC 151752", "(3,5-Dimethylisoxazol-4-yl)methanol", "(3,5-Dimethyl-1,2-oxazol-4-yl)methanol", "(Dimethyl-1,2-oxazol-4-yl)methanol"], "SMILES": "C(O)C=1C(C)=NOC1C", "physical_data": {"Molecular Weight": "127.14", "Molecular Formula": "C6H9NO2", "Melting Point": "73-74 \u00b0C"}}