{"cas_no": "19781-73-8", "cn_name": "\u6b63\u5341\u4e03\u70f7\u57fa\u73af\u5df1\u70f7", "en_name": ["Heptadecylcyclohexane", "Cyclohexane, heptadecyl-", "Heptadecane, 1-cyclohexyl-", "Heptadecylcyclohexane", "n-Heptadecylcyclohexane"], "SMILES": "C(CCCCCCCCCCCCCCCC)C1CCCCC1", "physical_data": {"Molecular Weight": "322.61", "Molecular Formula": "C23H46", "Boiling Point": "397 \u00b0C", "Melting Point": "38 \u00b0C"}}