{"cas_no": "19780-10-0", "cn_name": "5-\u5341\u4e8c\u916e", "en_name": ["5-Dodecanone", "5-Dodecanone", "Butyl heptyl ketone", "NSC 158524"], "SMILES": "C(CCCCCCC)(CCCC)=O", "physical_data": {"Molecular Weight": "184.32", "Molecular Formula": "C12H24O", "Boiling Point": "93-96 \u00b0C @ Press: 0.9 Torr"}}