{"cas_no": "19781-86-3", "cn_name": "8-\u5341\u516d\u7094", "en_name": ["8-Hexadecyne", "8-Hexadecyne"], "SMILES": "C(#CCCCCCCC)CCCCCCC", "physical_data": {"Molecular Weight": "222.41", "Molecular Formula": "C16H30", "Boiling Point": "115-116 \u00b0C @ Press: 0.5 Torr"}}