{"cas_no": "19780-12-2", "cn_name": "5-\u5341\u4e8c\u7094", "en_name": ["5-Dodecyne", "5-Dodecyne"], "SMILES": "C(C#CCCCC)CCCCC", "physical_data": {"Molecular Weight": "166.30", "Molecular Formula": "C12H22", "Boiling Point": "100-105 \u00b0C @ Press: 16 Torr"}}