{"cas_no": "19788-49-9", "cn_name": "2-\u5def\u57fa\u4e19\u9178\u4e59\u916f", "en_name": ["Ethyl 2-mercaptopropionate", "Propanoic acid, 2-mercapto-, ethyl ester", "Propionic acid, 2-mercapto-, ethyl ester", "Ethyl 2-mercaptopropionate", "Ethyl \u03b1-mercaptopropionate", "2-Mercaptopropionic acid ethyl ester", "Ethyl 2-mercaptopropanoate", "(\u00b1)-2-Mercaptopropionic acid ethyl ester", "\u03b1-Mercaptopropionic acid ethyl ester", "2-Mercaptopropanoic acid ethyl ester", "Ethyl 2-sulfanylpropanoate"], "SMILES": "C(OCC)(C(C)S)=O", "physical_data": {"Molecular Weight": "134.20", "Molecular Formula": "C5H10O2S", "Boiling Point": "40-41 \u00b0C @ Press: 1 Torr"}}