{"cas_no": "19781-81-8", "cn_name": "4-\u5e9a\u7094-2-\u9187", "en_name": ["4-Heptyn-2-ol", "4-Heptyn-2-ol", "2-Hydroxy-4-heptyne"], "SMILES": "C(C#CCC)C(C)O", "physical_data": {"Molecular Weight": "112.17", "Molecular Formula": "C7H12O", "Boiling Point": "68 \u00b0C @ Press: 14 Torr"}}