{"cas_no": "19797-32-1", "cn_name": "3,5-\u4e8c\u6c2f\u82ef\u78fa\u9170\u80fa", "en_name": ["3,5-Dichlorobenzenesulfonamide", "Benzenesulfonamide, 3,5-dichloro-", "3,5-Dichlorobenzenesulfonamide", "3,5-Dichlorophenylsulfonamide", "3,5-Dichlorobenzene-1-sulfonamide"], "SMILES": "S(N)(=O)(=O)C1=CC(Cl)=CC(Cl)=C1", "physical_data": {"Molecular Weight": "226.08", "Molecular Formula": "C6H5Cl2NO2S", "Melting Point": "147-148 \u00b0C"}}