{"cas_no": "19798-80-2", "cn_name": "2-\u6c28\u57fa-4-\u6c2f-\u5421\u5576", "en_name": ["4-Chloro-2-pyridinamine", "2-Pyridinamine, 4-chloro-", "Pyridine, 2-amino-4-chloro-", "4-Chloro-2-pyridinamine", "2-Amino-4-chloropyridine", "4-Chloro-2-aminopyridine", "(4-Chloropyridin-2-yl)amine"], "SMILES": "ClC=1C=C(N)N=CC1", "physical_data": {"Molecular Weight": "128.56", "Molecular Formula": "C5H5ClN2", "Melting Point": "130-131 \u00b0C"}}