{"cas_no": "19794-93-5", "cn_name": "\u66f2\u5511\u916e", "en_name": ["Trazodone", "1,2,4-Triazolo[4,3-a]pyridin-3(2H)-one, 2-[3-[4-(3-chlorophenyl)-1-piperazinyl]propyl]-", "s-Triazolo[4,3-a]pyridin-3(2H)-one, 2-[3-[4-(m-chlorophenyl)-1-piperazinyl]propyl]-", "2-[3-[4-(3-Chlorophenyl)-1-piperazinyl]propyl]-1,2,4-triazolo[4,3-a]pyridin-3(2H)-one", "Trazodone", "Trazodon", "Trazalon", "2-[3-[4-(3-Chlorophenyl)piperazin-1-yl]propyl]-2H,3H-[1,2,4]triazolo[4,3-a]pyridin-3-one", "2-[3-[4-(3-Chlorophenyl)piperazin-1-yl]propyl]-[1,2,4]triazolo[4,3-a]pyridin-3-one", "Beneficat", "Trazadone", "MeSH ID: D014196"], "SMILES": "O=C1N2C(=NN1CCCN3CCN(CC3)C4=CC(Cl)=CC=C4)C=CC=C2", "physical_data": {"Molecular Weight": "371.86", "Molecular Formula": "C19H22ClN5O", "Melting Point": "87 \u00b0C"}}