{"cas_no": "1979-98-2", "cn_name": "2-\u7532\u786b\u57fa-4,6-\u4e8c\u7f9f\u57fa\u5627\u5576", "en_name": ["4,6-Dihydroxy-2-(methylthio)pyrimidine", "4(3H)-Pyrimidinone, 6-hydroxy-2-(methylthio)-", "4(1H)-Pyrimidinone, 6-hydroxy-2-(methylthio)-", "4,6-Pyrimidinediol, 2-(methylthio)-", "6-Hydroxy-2-(methylthio)-4(3H)-pyrimidinone", "2-(Methylthio)-4,6-dihydroxypyrimidine", "4,6-Dihydroxy-2-(methylmercapto)pyrimidine", "4,6-Dihydroxy-2-(methylthio)pyrimidine", "2-Methylsulfanylpyrimidine-4,6-diol", "NSC 44557", "6-Hydroxy-2-(methylthio)-4-pyrimidinone", "6-Hydroxy-2-(methylthio)-4(1H)-pyrimidinone", "2-Methylthiopyrimidine-4,6-diol", "2-Methylmercapto-4,6-dihydroxypyrimidine"], "SMILES": "S(C)C=1NC(=O)C=C(O)N1", "physical_data": {"Molecular Weight": "158.18", "Molecular Formula": "C5H6N2O2S", "Melting Point": "&lt;300 \u00b0C"}}