{"cas_no": "1979-36-8", "cn_name": "2,5-\u4e8c\u6c1f\u82ef\u4e59\u916e", "en_name": ["1-(2,5-Difluorophenyl)ethanone", "Ethanone, 1-(2,5-difluorophenyl)-", "Acetophenone, 2\u2032,5\u2032-difluoro-", "1-(2,5-Difluorophenyl)ethanone", "2\u2032,5\u2032-Difluoroacetophenone", "2,5-Difluorophenyl methyl ketone", "1-(2,5-Difluorophenyl)ethan-1-one"], "SMILES": "C(C)(=O)C1=C(F)C=CC(F)=C1", "physical_data": {"Molecular Weight": "156.13", "Molecular Formula": "C8H6F2O", "Boiling Point": "61 \u00b0C @ Press: 5 Torr", "Density": "1.2099 g/cm\u00b3 @ Temp: 22 \u00b0C"}}