{"cas_no": "19798-81-3", "cn_name": "2-\u6c28\u57fa-6-\u6eb4\u5421\u5576", "en_name": ["2-Amino-6-bromopyridine", "2-Pyridinamine, 6-bromo-", "Pyridine, 2-amino-6-bromo-", "6-Bromo-2-pyridinamine", "2-Amino-6-bromopyridine", "6-Bromopyridin-2-ylamine", "6-Bromo-2-aminopyridine", "NSC 176170", "2-Bromo-6-aminopyridine"], "SMILES": "BrC=1N=C(N)C=CC1", "physical_data": {"Molecular Weight": "173.01", "Molecular Formula": "C5H5BrN2", "Melting Point": "89-89.5 \u00b0C"}}