{"cas_no": "19793-20-5", "cn_name": "19-\u53bb\u7532\u57fa-4-\u96c4\u70ef\u4e8c\u9187", "en_name": ["Bolandiol", "Estr-4-ene-3,17-diol, (3\u03b2,17\u03b2)-", "Estr-4-ene-3\u03b2,17\u03b2-diol", "(3\u03b2,17\u03b2)-Estr-4-ene-3,17-diol", "\u03944-Estrene-3\u03b2,17\u03b2-diol", "Bolandiol", "19-Nor-4-androstene-3\u03b2,17\u03b2-diol", "Norandrodiol Select 300", "19-Norandrostenediol", "19-Nor-4-androstenediol"], "SMILES": "CC12C(C3C(C4C(CC3)=CC(O)CC4)CC1)CCC2O", "physical_data": {"Molecular Weight": "276.41", "Molecular Formula": "C18H28O2", "Melting Point": "169-172 \u00b0C"}}