{"cas_no": "198-55-0", "cn_name": "\u82dd", "en_name": ["Perylene", "Perylene", "Dibenz[de,kl]anthracene", "peri-Dinaphthalene", "\u03b1-Perylene", "NSC 6512", "MeSH ID: D010569"], "SMILES": "C12=C3C=4C=5C(C1=CC=CC2=CC=C3)=CC=CC5C=CC4", "physical_data": {"Molecular Weight": "252.31", "Molecular Formula": "C20H12", "Boiling Point": "497 \u00b0C", "Melting Point": "273-274 \u00b0C", "Density": "1.35 g/cm\u00b3"}}