{"cas_no": "19805-75-5", "cn_name": "2,2,5,5-\u56db\u7532\u57fa-3-\u5421\u54af\u5549-3-\u6c28\u7532\u9170\u80fa", "en_name": ["3-Carbamoyl-2,2,5,5-tetramethyl-3-pyrroline", "1H-Pyrrole-3-carboxamide, 2,5-dihydro-2,2,5,5-tetramethyl-", "3-Pyrroline-3-carboxamide, 2,2,5,5-tetramethyl-", "2,5-Dihydro-2,2,5,5-tetramethyl-1H-pyrrole-3-carboxamide", "3-Aminocarbonyl-2,2,5,5-tetramethyl-3-pyrroline", "3-Carbamoyl-2,2,5,5-tetramethyl-3-pyrroline", "HO 2", "2,2,5,5-Tetramethyl-3-pyrroline-3-carboxamide", "2,2,5,5-Tetramethyl-1H-pyrrole-3-carboxamide", "2,2,5,5-Tetramethyl-2,5-dihydro-1H-pyrrole-3-carboxamide"], "SMILES": "C(N)(=O)C=1C(C)(C)NC(C)(C)C1", "physical_data": {"Molecular Weight": "168.24", "Molecular Formula": "C9H16N2O", "Melting Point": "178-179 \u00b0C"}}