{"cas_no": "19804-27-4", "cn_name": "\u5bf9-\u7532\u57fa\u82ef\u6d77\u62c9\u660e", "en_name": ["4-Methyldiphenhydramine", "Ethanamine, N,N-dimethyl-2-[(4-methylphenyl)phenylmethoxy]-", "Ethylamine, N,N-dimethyl-2-[(p-methyl-\u03b1-phenylbenzyl)oxy]-", "N,N-Dimethyl-2-[(4-methylphenyl)phenylmethoxy]ethanamine", "N,N-Dimethyl-N-[2-(p-methyl-\u03b1-phenylbenzyloxy)ethyl]amine", "4-Methyldiphenhydramine", "p-Methylbenzhydryl 2-dimethylaminoethyl ether", "p-Methyldiphenhydramine", "Toladryl"], "SMILES": "C(OCCN(C)C)(C1=CC=C(C)C=C1)C2=CC=CC=C2", "physical_data": {"Molecular Weight": "269.38", "Molecular Formula": "C18H23NO", "Boiling Point": "143 \u00b0C", "Melting Point": "151-155 \u00b0C"}}