{"cas_no": "19806-17-8", "cn_name": "1\uff0c3-\u82ef\u4e8c\u4e59\u9178", "en_name": ["1,3-Benzenediacetic acid", "1,3-Benzenediacetic acid", "m-Benzenediacetic acid", "m-Phenylenediacetic acid", "1,3-Phenylenediacetic acid", "NSC 75867", "(3-Carboxymethylphenyl)acetic acid", "2,2\u2032-(1,3-Phenylene)diacetic acid", "2-[3-(Carboxymethyl)phenyl]acetic acid"], "SMILES": "C(C(O)=O)C1=CC(CC(O)=O)=CC=C1", "physical_data": {"Molecular Weight": "194.18", "Molecular Formula": "C10H10O4", "Melting Point": "171.5-172 \u00b0C"}}