{"cas_no": "19808-30-1", "cn_name": "5-\u6eb4\u5627\u5576-4-\u916e", "en_name": ["5-Bromo-4(3H)-pyrimidinone", "4(3H)-Pyrimidinone, 5-bromo-", "4(1H)-Pyrimidinone, 5-bromo-", "4-Pyrimidinol, 5-bromo-", "5-Bromo-4(3H)-pyrimidinone", "5-Bromo-4-hydroxypyrimidine", "5-Bromopyrimidin-4(1H)-one", "5-Bromopyrimidin-4-ol", "5-Bromo-1H-pyrimidin-6-one"], "SMILES": "BrC=1C(=O)NC=NC1", "physical_data": {"Molecular Weight": "174.98", "Molecular Formula": "C4H3BrN2O", "Melting Point": "199-200 \u00b0C"}}