{"cas_no": "19812-93-2", "cn_name": "\u6c30\u57fa\u8054\u82ef\u915a", "en_name": ["4\u2032-Cyano-4-hydroxybiphenyl", "[1,1\u2032-Biphenyl]-4-carbonitrile, 4\u2032-hydroxy-", "4-Biphenylcarbonitrile, 4\u2032-hydroxy-", "4\u2032-Hydroxy[1,1\u2032-biphenyl]-4-carbonitrile", "4\u2032-Hydroxy-4-biphenylcarbonitrile", "4-Cyano-4\u2032-hydroxybiphenyl", "4\u2032-Cyano-4-hydroxybiphenyl", "4-Hydroxy-4\u2032-cyanobiphenyl", "4-(4-Hydroxyphenyl)benzonitrile", "4-(4-Cyanophenyl)phenol", "4-(4\u2032-Cyanophenyl)phenol", "4\u2032-Hydroxy-4-biphenylylcarbonitrile", "4\u2032-Hydroxy-4-cyanobiphenyl", "4\u2032-Cyanobiphenyl-4-ol", "4\u2032-Hydroxybiphenyl-4-nitrile", "4\u2032-Hydroxy-4-cyano-1,1\u2032-biphenyl", "4\u2032-Cyano-4-biphenol", "4-Hydro-4\u2032-cyanobiphenyl"], "SMILES": "C(#N)C1=CC=C(C=C1)C2=CC=C(O)C=C2", "physical_data": {"Molecular Weight": "195.22", "Molecular Formula": "C13H9NO", "Melting Point": "193-194 \u00b0C (sublm)"}}