{"cas_no": "19816-88-7", "cn_name": "1,3-\u4e8c\u82ef\u57fa\u4e19\u916e-\u5bf9\u7532\u82ef\u78fa\u9178\u8159", "en_name": ["4-Methylbenzenesulfonic acid 2-[2-phenyl-1-(phenylmethyl)ethylidene]hydrazide", "Benzenesulfonic acid, 4-methyl-, 2-[2-phenyl-1-(phenylmethyl)ethylidene]hydrazide", "p-Toluenesulfonic acid, (\u03b1-benzylphenethylidene)hydrazide", "Benzenesulfonic acid, 4-methyl-, [2-phenyl-1-(phenylmethyl)ethylidene]hydrazide", "4-Methylbenzenesulfonic acid 2-[2-phenyl-1-(phenylmethyl)ethylidene]hydrazide", "Dibenzyl ketone tolylsulfonylhydrazone", "1,3-Diphenylpropanone tosylhydrazone", "NSC 126949", "1,3-Diphenylacetone p-tosylhydrazone", "1,3-Diphenylpropan-2-one tosylhydrazone"], "SMILES": "C(CC1=CC=CC=C1)(CC2=CC=CC=C2)=NNS(=O)(=O)C3=CC=C(C)C=C3", "physical_data": {"Molecular Weight": "378.49", "Molecular Formula": "C22H22N2O2S", "Melting Point": "175-177 \u00b0C"}}