{"cas_no": "19819-95-5", "cn_name": "2-\u6c2f\u82ef\u57fa\u4e59\u9187", "en_name": ["2-Chlorobenzeneethanol", "Benzeneethanol, 2-chloro-", "Phenethyl alcohol, o-chloro-", "2-Chlorobenzeneethanol", "2-(2-Chlorophenyl)ethanol", "2-Chlorophenethyl alcohol", "2-Chlorophenethanol", "2-(2-Chlorophenyl)ethan-1-ol"], "SMILES": "C(CO)C1=C(Cl)C=CC=C1", "physical_data": {"Molecular Weight": "156.61", "Molecular Formula": "C8H9ClO", "Boiling Point": "58-61 \u00b0C @ Press: 0.08 Torr"}}