{"cas_no": "19811-05-3", "cn_name": "2,4-\u4e8c\u6c2f\u82ef\u7532\u916e", "en_name": ["2,4-Dichlorobenzophenone", "Methanone, (2,4-dichlorophenyl)phenyl-", "Benzophenone, 2,4-dichloro-", "(2,4-Dichlorophenyl)phenylmethanone", "2,4-Dichlorobenzophenone", "Benzoyl-2,4-dichlorobenzene", "1-(2,4-Dichlorophenyl)-1-phenylmethanone"], "SMILES": "C(=O)(C1=C(Cl)C=C(Cl)C=C1)C2=CC=CC=C2", "physical_data": {"Molecular Weight": "251.11", "Molecular Formula": "C13H8Cl2O", "Melting Point": "48 \u00b0C"}}