{"cas_no": "19812-64-7", "cn_name": "1,14-\u5341\u56db\u70f7\u4e8c\u9187", "en_name": ["1,14-Tetradecanediol", "1,14-Tetradecanediol", "1,14-Dihydroxytetradecane"], "SMILES": "C(CCCCCCCO)CCCCCCO", "physical_data": {"Molecular Weight": "230.39", "Molecular Formula": "C14H30O2", "Melting Point": "85.8 \u00b0C"}}