{"cas_no": "19819-98-8", "cn_name": "\u90bb\u7532\u57fa\u82ef\u4e59\u9187", "en_name": ["2-(2-Methylphenyl)ethanol", "Benzeneethanol, 2-methyl-", "Phenethyl alcohol, o-methyl-", "2-Methylbenzeneethanol", "2-(2-Methylphenyl)ethanol", "o-Methylphenethyl alcohol", "2-Methylphenethyl alcohol", "NSC 409882", "2-(o-Tolyl)ethanol", "Peomosa", "2-(o-Tolyl)ethan-1-ol", "2-(2-Methylphenyl)ethan-1-ol"], "SMILES": "C(CO)C1=C(C)C=CC=C1", "physical_data": {"Molecular Weight": "136.19", "Molecular Formula": "C9H12O", "Boiling Point": "243.5 \u00b0C", "Melting Point": "2 \u00b0C", "Density": "1.0195 g/cm\u00b3 @ Temp: 20 \u00b0C"}}