{"cas_no": "19829-72-2", "cn_name": "2,3-\u4e8c\u7f9f\u57fa-1,4-\u82ef\u4e8c\u7532\u9178", "en_name": ["2,3-Dihydroxy-1,4-benzenedicarboxylic acid", "1,4-Benzenedicarboxylic acid, 2,3-dihydroxy-", "Terephthalic acid, 2,3-dihydroxy-", "2,3-Dihydroxy-1,4-benzenedicarboxylic acid", "2,3-Dihydroxyterephthalic acid", "NSC 38869", "2,3-Dihydroxy-p-benzenediacetic acid"], "SMILES": "C(O)(=O)C1=C(O)C(O)=C(C(O)=O)C=C1", "physical_data": {"Molecular Weight": "198.13", "Molecular Formula": "C8H6O6", "Melting Point": "293 \u00b0C"}}