{"cas_no": "1982-47-4", "cn_name": "\u67af\u8349\u9686", "en_name": ["Chloroxuron", "Urea, N\u2032-[4-(4-chlorophenoxy)phenyl]-N,N-dimethyl-", "Urea, 3-[p-(p-chlorophenoxy)phenyl]-1,1-dimethyl-", "N\u2032-[4-(4-Chlorophenoxy)phenyl]-N,N-dimethylurea", "Chloroxuron", "Tenoran", "C 1983", "N-4-(p-Chlorophenoxy)phenyl-N\u2032,N\u2032-dimethyl urea", "3-[p-(p-Chlorophenoxy)phenyl]-1,1-dimethylurea", "N1-[4-(4-Chlorophenoxy)phenyl]-N,N-dimethylurea", "Norex", "3-[4-(p-Chlorophenoxy)phenyl]-1,1-dimethylurea", "Gesamoos", "Chloroxifenidim", "1-[4-(4-Chlorophenoxy)phenyl]-3,3-dimethylurea"], "SMILES": "O(C1=CC=C(NC(N(C)C)=O)C=C1)C2=CC=C(Cl)C=C2", "physical_data": {"Molecular Weight": "290.74", "Molecular Formula": "C15H15ClN2O2", "Melting Point": "151 \u00b0C", "Density": "1.34 g/cm\u00b3 @ Temp: 20 \u00b0C"}}