{"cas_no": "1982-49-6", "cn_name": "\u73af\u8349\u9686", "en_name": ["1-(2-Methylcyclohexyl)-3-phenylurea", "Urea, N-(2-methylcyclohexyl)-N\u2032-phenyl-", "Urea, 1-(2-methylcyclohexyl)-3-phenyl-", "N-(2-Methylcyclohexyl)-N\u2032-phenylurea", "H 1318", "1-(2-Methylcyclohexyl)-3-phenylurea", "Siduron", "Tupersan", "NSC 131951"], "SMILES": "N(C(NC1=CC=CC=C1)=O)C2C(C)CCCC2", "physical_data": {"Molecular Weight": "232.32", "Molecular Formula": "C14H20N2O", "Melting Point": "133-138 \u00b0C", "Density": "1.08 g/cm\u00b3 @ Temp: 25 \u00b0C"}}