{"cas_no": "19829-31-3", "cn_name": "3-\u6eb4\u82ef\u4e19\u916e", "en_name": ["1-(3-Bromophenyl)-1-propanone", "1-Propanone, 1-(3-bromophenyl)-", "Propiophenone, 3\u2032-bromo-", "1-(3-Bromophenyl)-1-propanone", "3\u2032-Bromopropiophenone", "m-Bromopropiophenone", "3-Bromophenyl ethyl ketone", "3-Bromopropiophenone"], "SMILES": "C(CC)(=O)C1=CC(Br)=CC=C1", "physical_data": {"Molecular Weight": "213.07", "Molecular Formula": "C9H9BrO", "Boiling Point": "143 \u00b0C", "Melting Point": "36 \u00b0C"}}