{"cas_no": "198226-63-0", "cn_name": "2-\u7532\u57fa-1-(\u8418-2-\u57fa)\u4e19\u80fa", "en_name": ["\u03b1,\u03b1-Dimethyl-2-naphthaleneethanamine", "2-Naphthaleneethanamine, \u03b1,\u03b1-dimethyl-", "\u03b1,\u03b1-Dimethyl-2-naphthaleneethanamine", "[1,1-Dimethyl-2-(naphthalen-2-yl)ethyl]amine", "2-Methyl-1-(naphthalen-2-yl)propan-2-amine", "2-Methyl-1-naphthalen-2-ylpropan-2-amine"], "SMILES": "C(C(C)(C)N)C1=CC2=C(C=C1)C=CC=C2", "physical_data": {"Molecular Weight": "199.29", "Molecular Formula": "C14H17N", "Boiling Point": "158-162 \u00b0C @ Press: 1.5 Torr"}}