{"cas_no": "198283-73-7", "cn_name": "\u66ff\u5df4\u514b\u5170", "en_name": ["Tebanicline", "Pyridine, 5-[(2R)-2-azetidinylmethoxy]-2-chloro-", "Pyridine, 5-(2-azetidinylmethoxy)-2-chloro-, (R)-", "5-[(2R)-2-Azetidinylmethoxy]-2-chloropyridine", "ABT 594", "Tebanicline", "(R)-5-(Azetidin-2-ylmethoxy)-2-chloropyridine", "5-[((2R)-Azetidin-2-yl)methoxy]-2-chloropyridine", "Ebanicline"], "SMILES": "O(CC1CCN1)C=2C=CC(Cl)=NC2", "physical_data": {"Molecular Weight": "198.65", "Molecular Formula": "C9H11ClN2O", "Melting Point": "116-117 \u00b0C"}}