{"cas_no": "19829-32-4", "cn_name": "3-\u6eb4\u4e19\u82ef", "en_name": ["1-Bromo-3-propylbenzene", "Benzene, 1-bromo-3-propyl-", "1-Bromo-3-propylbenzene", "3-Propylbromobenzene"], "SMILES": "C(CC)C1=CC(Br)=CC=C1", "physical_data": {"Molecular Weight": "199.09", "Molecular Formula": "C9H11Br", "Boiling Point": "96-100 \u00b0C @ Press: 17 Torr"}}