{"cas_no": "19829-74-4", "cn_name": "4,6-\u4e8c\u7f9f\u57fa\u95f4\u82ef\u4e8c\u7532\u9178", "en_name": ["4,6-Dihydroxyisophthalic acid", "1,3-Benzenedicarboxylic acid, 4,6-dihydroxy-", "Isophthalic acid, 4,6-dihydroxy-", "4,6-Dihydroxy-1,3-benzenedicarboxylic acid", "Resorcinol-4,6-dicarboxylic acid", "4,6-Dihydroxyisophthalic acid"], "SMILES": "C(O)(=O)C1=CC(C(O)=O)=C(O)C=C1O", "physical_data": {"Molecular Weight": "198.13", "Molecular Formula": "C8H6O6", "Melting Point": "312 \u00b0C"}}