{"cas_no": "1983-10-4", "cn_name": "\u4e09\u6b63\u4e01\u57fa\u6c1f\u5316\u9521", "en_name": ["Tributyltin fluoride", "Stannane, tributylfluoro-", "Tributyltin fluoride", "Tin, tributylfluoro-", "Tributylfluorostannane", "Fluorotributyltin", "Tri-n-butylstannyl fluoride", "BioMeT TBTF", "CBL 9B", "Tri-n-butyltin fluoride", "Aceto TBTF", "TBTF", "Fluoro(tributyl)stannane", "NSC 179737", "NSC 195319"], "SMILES": "[Sn](CCCC)(CCCC)(CCCC)F", "physical_data": {"Molecular Weight": "309.05", "Molecular Formula": "C12H27FSn", "Melting Point": "260 \u00b0C"}}