{"cas_no": "1983-26-2", "cn_name": "\u6c2f\u7532\u57fa\u81a6\u9178\u4e8c\u6c2f", "en_name": ["P-(Chloromethyl)phosphonic dichloride", "Phosphonic dichloride, P-(chloromethyl)-", "Phosphonic dichloride, (chloromethyl)-", "P-(Chloromethyl)phosphonic dichloride", "(Chloromethyl)phosphonic acid dichloride", "Chloromethylphosphonyl dichloride", "(Chloromethyl)phosphonic dichloride", "Chloromethyl dichlorophosphine oxide", "Chloromethanephosphonic acid dichloride", "Dichloro(chloromethyl)phosphine oxide", "Chloromethanephosphonic dichloride", "NSC 9350", "(Chloromethyl)phosphoryl dichloride", "(Chloromethyl)phosphonoyl dichloride"], "SMILES": "P(CCl)(Cl)(Cl)=O", "physical_data": {"Molecular Weight": "167.36", "Molecular Formula": "CH2Cl3OP", "Boiling Point": "103 \u00b0C @ Press: 30 Torr", "Density": "1.6444 g/cm\u00b3 @ Temp: 20 \u00b0C"}}