{"cas_no": "19833-12-6", "cn_name": "\u6768\u6885\u7d20-3-O-\u0392-D-\u8461\u8404\u7cd6\u82f7", "en_name": ["Myricetin 3-O-glucoside", "4H-1-Benzopyran-4-one, 3-(\u03b2-D-glucopyranosyloxy)-5,7-dihydroxy-2-(3,4,5-trihydroxyphenyl)-", "Isomyricitrin", "Myricetin 3-glucoside", "3-(\u03b2-D-Glucopyranosyloxy)-5,7-dihydroxy-2-(3,4,5-trihydroxyphenyl)-4H-1-benzopyran-4-one", "Myricetin 3-O-glucoside", "Myricetin 3-\u03b2-D-glucopyranoside", "Myricetin 3-O-D-glucoside", "Myricetin 3-O-\u03b2-D-glucoside", "Myricetin 3-\u03b2-glucoside", "Myricetin 3-O-\u03b2-D-glucopyranoside", "3,3\u2032,4\u2032,5,5\u2032,7-Hexahydroxyflavone 3-\u03b2-D-glucopyranoside", "Isomericitrin", "Myricetin 3-O-glucopyranoside"], "SMILES": "O(C1=C(OC=2C(C1=O)=C(O)C=C(O)C2)C3=CC(O)=C(O)C(O)=C3)C4OC(CO)C(O)C(O)C4O", "physical_data": {"Molecular Weight": "480.38", "Molecular Formula": "C21H20O13", "Melting Point": "275-277 \u00b0C"}}