{"cas_no": "19832-87-2", "cn_name": "2-\u6c2f-5-\u7532\u57fa-1,4-\u82ef\u918c", "en_name": ["2-Chloro-5-methyl-1,4-benzoquinone", "2,5-Cyclohexadiene-1,4-dione, 2-chloro-5-methyl-", "p-Benzoquinone, 2-chloro-5-methyl-", "2-Chloro-5-methyl-2,5-cyclohexadiene-1,4-dione", "5-Chloro-2-methyl-1,4-benzoquinone", "2-Chloro-5-methyl-p-benzoquinone", "2-Chloro-5-methyl-1,4-benzoquinone"], "SMILES": "CC=1C(=O)C=C(Cl)C(=O)C1", "physical_data": {"Molecular Weight": "156.57", "Molecular Formula": "C7H5ClO2", "Melting Point": "103.7-104.8 \u00b0C"}}