{"cas_no": "1983-72-8", "cn_name": "\u82dc\u84ff\u5185\u916f", "en_name": ["3-Hydroxy-6H-[1,3]dioxolo[4\u2032,5\u2032:5,6]benzofuro[3,2-c][1]benzopyran-6-one", "6H-[1,3]Dioxolo[4\u2032,5\u2032:5,6]benzofuro[3,2-c][1]benzopyran-6-one, 3-hydroxy-", "6H-[1,3]Dioxolo[5,6]benzofuro[3,2-c][1]benzopyran-6-one, 3-hydroxy-", "Furo[2,3-f]-1,3-benzodioxole-7-carboxylic acid, 6-(2,4-dihydroxyphenyl)-, \u03b4-lactone", "3-Hydroxy-6H-[1,3]dioxolo[4\u2032,5\u2032:5,6]benzofuro[3,2-c][1]benzopyran-6-one", "Medicagol", "3-Hydroxy-6H-[1,3]dioxolo[5,6]benzofuro[3,2-c][1]benzopyran-6-one", "7-Hydroxy-11,12-(methylenedioxy)coumestan", "7-Hydroxy-5\u2032,6\u2032-methylene dioxybenzofurano[3\u2032,2\u2032:3,4]coumarin"], "SMILES": "O=C1C2=C(C=3C(O1)=CC(O)=CC3)OC=4C2=CC5=C(C4)OCO5", "physical_data": {"Molecular Weight": "296.23", "Molecular Formula": "C16H8O6", "Melting Point": "&gt;300 \u00b0C"}}