{"cas_no": "1983-81-9", "cn_name": "4,7-\u4e8c\u7f9f\u57fa\u9999\u8c46\u7d20", "en_name": ["4,7-Dihydroxycoumarin", "2H-1-Benzopyran-2-one, 4,7-dihydroxy-", "Coumarin, 4,7-dihydroxy-", "4,7-Dihydroxy-2H-1-benzopyran-2-one", "4,7-Dihydroxycoumarin", "NSC 136214", "4,7-Dihydroxy-2-oxo-2H-1-benzopyran"], "SMILES": "OC=1C=2C(OC(=O)C1)=CC(O)=CC2", "physical_data": {"Molecular Weight": "178.14", "Molecular Formula": "C9H6O4", "Melting Point": "264 \u00b0C (decomp)"}}