{"cas_no": "19832-98-5", "cn_name": "4-\u7532\u57fa-3,4-\u4e8c\u6c22-2H-1-\u8418\u916e", "en_name": ["4-Methyl-1-tetralone", "1(2H)-Naphthalenone, 3,4-dihydro-4-methyl-", "3,4-Dihydro-4-methyl-1(2H)-naphthalenone", "4-Methyl-1-tetralone", "3,4-Dihydro-4-methylnaphthalen-1(2H)-one", "4-Methyl-\u03b1-tetralone", "4-Methyltetralone", "(\u00b1)-4-Methyl-1-tetralone", "(\u00b1)-4-Methyl-\u03b1-tetralone", "(RS)-4-Methyl-1-tetralone", "(\u00b1)-1-Methyl-4-tetralone", "NSC 65631", "4-Methyl-3,4-dihydro-2H-naphthalen-1-one"], "SMILES": "CC1C=2C(C(=O)CC1)=CC=CC2", "physical_data": {"Molecular Weight": "160.21", "Molecular Formula": "C11H12O", "Boiling Point": "145-160 \u00b0C", "Density": "1.0779 g/cm\u00b3 @ Temp: 19 \u00b0C"}}