{"cas_no": "19838-07-4", "cn_name": "2-\u7f9f\u57fa-3-\u7532\u57fa\u5421\u55ea", "en_name": ["3-Methyl-2(1H)-pyrazinone", "2(1H)-Pyrazinone, 3-methyl-", "Pyrazinol, 3-methyl-", "3-Methyl-2(1H)-pyrazinone", "2-Hydroxy-3-methylpyrazine", "3-Methylpyrazin-2-ol", "3-Methyl-1,2-dihydropyrazin-2-one", "3-Methyl-1H-pyrazin-2-one"], "SMILES": "CC=1C(=O)NC=CN1", "physical_data": {"Molecular Weight": "110.11", "Molecular Formula": "C5H6N2O", "Melting Point": "150-152 \u00b0C"}}