{"cas_no": "19836-78-3", "cn_name": "3-\u7532\u57fa-2-\u6076\u5511\u70f7\u916e", "en_name": ["3-Methyl-2-oxazolidinone", "2-Oxazolidinone, 3-methyl-", "3-Methyl-2-oxazolidinone", "N-Methyl-2-oxazolidinone", "N-Methyl-2-oxazolidone", "3-Methyl-1,3-oxazolidin-2-one", "3-Methyl-1,3-oxazolidine-2-one", "3-Methyloxazolidinone"], "SMILES": "O=C1N(C)CCO1", "physical_data": {"Molecular Weight": "101.10", "Molecular Formula": "C4H7NO2", "Boiling Point": "180 \u00b0C @ Press: 1.5 Torr", "Melting Point": "29.03 \u00b0C", "Density": "1.1683 g/cm\u00b3 @ Temp: 20 \u00b0C"}}