{"cas_no": "19833-96-6", "cn_name": "2-\u73af\u620a\u57fa-2-\u7f9f\u57fa\u82ef\u4e59\u9178\u7532\u916f", "en_name": ["Methyl \u03b1-cyclopentyl-\u03b1-hydroxybenzeneacetate", "Benzeneacetic acid, \u03b1-cyclopentyl-\u03b1-hydroxy-, methyl ester", "Mandelic acid, \u03b1-cyclopentyl-, methyl ester", "Methyl \u03b1-cyclopentyl-\u03b1-hydroxybenzeneacetate", "Methyl cyclopentylphenylglycolate", "Methyl \u03b1-cyclopentylmandelate", "NSC 93811", "Methyl (\u00b1)-cyclopentylmandelate", "Methyl 2-Cyclopentyl-2-hydroxy-2-phenylacetate"], "SMILES": "C(C(OC)=O)(O)(C1CCCC1)C2=CC=CC=C2", "physical_data": {"Molecular Weight": "234.29", "Molecular Formula": "C14H18O3", "Boiling Point": "120-127 \u00b0C @ Press: 0.25 Torr"}}