{"cas_no": "19838-08-5", "cn_name": "2-\u6c28\u57fa-3-\u7532\u57fa\u5421\u55ea", "en_name": ["3-Methyl-2-pyrazinamine", "2-Pyrazinamine, 3-methyl-", "Pyrazine, 2-amino-3-methyl-", "Pyrazinamine, 3-methyl-", "3-Methyl-2-pyrazinamine", "2-Amino-3-methylpyrazine", "NSC 186054"], "SMILES": "CC=1C(N)=NC=CN1", "physical_data": {"Molecular Weight": "109.13", "Molecular Formula": "C5H7N3", "Melting Point": "165-167 \u00b0C"}}