{"cas_no": "19840-99-4", "cn_name": "7-\u6c28\u57fa-4-\u7532\u57fa-2-\u55b9\u5549\u916e", "en_name": ["7-Amino-4-methyl-2-quinolinone", "2(1H)-Quinolinone, 7-amino-4-methyl-", "Carbostyril, 7-amino-4-methyl-", "7-Amino-4-methyl-2(1H)-quinolinone", "2-Hydroxy-4-methyl-7-aminoquinoline", "4-Methyl-7-aminocarbostyril", "7-Amino-4-methyl-2-quinolinone", "Carbostyril 124", "7-Amino-4-methyl-2-quinolone", "7-Amino-4-methylcarbostyril", "Carbostyryl 7", "7-Amino-2-hydroxy-4-methylquinoline"], "SMILES": "CC=1C=2C(NC(=O)C1)=CC(N)=CC2", "physical_data": {"Molecular Weight": "174.20", "Molecular Formula": "C10H10N2O", "Melting Point": "274 \u00b0C"}}