{"cas_no": "1984-58-3", "cn_name": "2,5-\u4e8c\u6c2f\u82ef\u7532\u919a", "en_name": ["1,4-Dichloro-2-methoxybenzene", "Benzene, 1,4-dichloro-2-methoxy-", "Anisole, 2,5-dichloro-", "1,4-Dichloro-2-methoxybenzene", "2,5-Dichloroanisole"], "SMILES": "O(C)C1=C(Cl)C=CC(Cl)=C1", "physical_data": {"Molecular Weight": "177.03", "Molecular Formula": "C7H6Cl2O", "Melting Point": "24 \u00b0C"}}