{"cas_no": "19847-12-2", "cn_name": "2-\u6c30\u57fa\u5421\u55ea", "en_name": ["Pyrazinecarbonitrile", "2-Pyrazinecarbonitrile", "Pyrazinecarbonitrile", "Pyrazinonitrile", "2-Cyanopyrazine", "Pyrazinenitrile", "Cyanopyrazine", "Pyrazinyl cyanide", "NSC 166137", "NSC 72371"], "SMILES": "C(#N)C=1C=NC=CN1", "physical_data": {"Molecular Weight": "105.10", "Molecular Formula": "C5H3N3", "Boiling Point": "87 \u00b0C", "Melting Point": "20 \u00b0C"}}