{"cas_no": "198470-84-7", "cn_name": "\u5e15\u745e\u6614\u5e03", "en_name": ["Parecoxib", "Propanamide, N-[[4-(5-methyl-3-phenyl-4-isoxazolyl)phenyl]sulfonyl]-", "N-[[4-(5-Methyl-3-phenyl-4-isoxazolyl)phenyl]sulfonyl]propanamide", "Parecoxib", "SC 69124", "Vorth-P", "Valus-P", "Xapit"], "SMILES": "CC1=C(C(=NO1)C2=CC=CC=C2)C3=CC=C(S(NC(CC)=O)(=O)=O)C=C3", "physical_data": {"Molecular Weight": "370.42", "Molecular Formula": "C19H18N2O4S", "Melting Point": "142-143 \u00b0C"}}