{"cas_no": "198480-21-6", "cn_name": "1-(4-(2-(\u6c2e\u6742\u73af\u5e9a\u70f7-1-\u57fa)\u4e59\u6c27\u57fa)\u82c4\u57fa)-5-(\u82c4\u6c27\u57fa)-2-(4-(\u82c4\u6c27\u57fa)\u82ef\u57fa)-3-\u7532\u57fa-1H-\u5432\u54da", "en_name": ["1-[4-(2-(Azepan-1-yl)ethoxy)benzyl]-5-(benzyloxy)-2-(4-(benzyloxy)phenyl)-3-methyl-1H-indole", "1H-Indole, 1-[[4-[2-(hexahydro-1H-azepin-1-yl)ethoxy]phenyl]methyl]-3-methyl-5-(phenylmethoxy)-2-[4-(phenylmethoxy)phenyl]-", "1-[[4-[2-(Hexahydro-1H-azepin-1-yl)ethoxy]phenyl]methyl]-3-methyl-5-(phenylmethoxy)-2-[4-(phenylmethoxy)phenyl]-1H-indole", "1-[4-(2-(Azepan-1-yl)ethoxy)benzyl]-5-(benzyloxy)-2-(4-(benzyloxy)phenyl)-3-methyl-1H-indole"], "SMILES": "C(N1C(=C(C)C=2C1=CC=C(OCC3=CC=CC=C3)C2)C4=CC=C(OCC5=CC=CC=C5)C=C4)C6=CC=C(OCCN7CCCCCC7)C=C6", "physical_data": {"Molecular Weight": "650.85", "Molecular Formula": "C44H46N2O3", "Melting Point": "106-107 \u00b0C"}}