{"cas_no": "1984-59-4", "cn_name": "2,3-\u4e8c\u6c2f\u8334\u9999\u919a", "en_name": ["2,3-Dichloroanisole", "Benzene, 1,2-dichloro-3-methoxy-", "Anisole, 2,3-dichloro-", "1,2-Dichloro-3-methoxybenzene", "2,3-Dichloroanisole", "2,3-Dichlorophenyl methyl ether"], "SMILES": "O(C)C1=C(Cl)C(Cl)=CC=C1", "physical_data": {"Molecular Weight": "177.03", "Molecular Formula": "C7H6Cl2O", "Melting Point": "32 \u00b0C"}}