{"cas_no": "1984-23-2", "cn_name": "4-\u785d\u57fa\u82ef\u57fa\u5f02\u6c30", "en_name": ["1-Isocyano-4-nitrobenzene", "Benzene, 1-isocyano-4-nitro-", "Phenyl isocyanide, p-nitro-", "1-Isocyano-4-nitrobenzene", "p-Nitrophenyl isocyanide", "4-Nitrophenyl isocyanide", "p-Nitrophenyl isonitrile"], "SMILES": "N(=O)(=O)C1=CC=C([N+]#[C-])C=C1", "physical_data": {"Molecular Weight": "", "Molecular Formula": "C7H4N2O2", "Melting Point": "95-97 \u00b0C"}}