{"cas_no": "19847-10-0", "cn_name": "2-\u5421\u55ea\u7fb0\u9170\u6c2f", "en_name": ["2-Pyrazinecarbonyl chloride", "2-Pyrazinecarbonyl chloride", "Pyrazinecarbonyl chloride", "Pyrazinoyl chloride", "Pyrazine-2-carboxylic acid chloride", "Pyrazinoic acid chloride"], "SMILES": "C(Cl)(=O)C=1C=NC=CN1", "physical_data": {"Molecular Weight": "142.54", "Molecular Formula": "C5H3ClN2O", "Melting Point": "59-61 \u00b0C"}}