{"cas_no": "1984-06-1", "cn_name": "\u8f9b\u9178\u94a0", "en_name": ["Sodium octanoate", "Octanoic acid, sodium salt (1:1)", "Octanoic acid, sodium salt", "Sodium caprylate", "Sodium octanoate", "Caprylic acid sodium salt", "Sodium n-octanoate", "Sodium octoate"], "SMILES": "C(CCCCC)CC(O)=O.[Na]", "physical_data": {"Molecular Weight": "", "Molecular Formula": "C8H16O2.Na", "Melting Point": "243-245 \u00b0C"}}