{"cas_no": "1984-65-2", "cn_name": "2,6-\u4e8c\u6c2f\u82ef\u7532\u919a", "en_name": ["2,6-Dichloroanisole", "Benzene, 1,3-dichloro-2-methoxy-", "Anisole, 2,6-dichloro-", "1,3-Dichloro-2-methoxybenzene", "2,6-Dichloroanisole", "2,6-Dichloranisole", "2,6-Dichlorophenyl methyl ether"], "SMILES": "O(C)C1=C(Cl)C=CC=C1Cl", "physical_data": {"Molecular Weight": "177.03", "Molecular Formula": "C7H6Cl2O", "Boiling Point": "105-106 \u00b0C", "Melting Point": "&lt;25 \u00b0C"}}