{"cas_no": "198481-33-3", "cn_name": "\u918b\u9178\u5df4\u591a\u6614\u82ac", "en_name": ["Bazedoxifene acetate", "1H-Indol-5-ol, 1-[[4-[2-(hexahydro-1H-azepin-1-yl)ethoxy]phenyl]methyl]-2-(4-hydroxyphenyl)-3-methyl-, acetate (1:1)", "1H-Indol-5-ol, 1-[[4-[2-(hexahydro-1H-azepin-1-yl)ethoxy]phenyl]methyl]-2-(4-hydroxyphenyl)-3-methyl-, monoacetate (salt)", "TSE 424", "Bazedoxifene acetate", "WAY-TES 424", "Viviant"], "SMILES": "C(C)(O)=O.C(N1C(=C(C)C=2C1=CC=C(O)C2)C3=CC=C(O)C=C3)C4=CC=C(OCCN5CCCCCC5)C=C4", "physical_data": {"Molecular Weight": "", "Molecular Formula": "C30H34N2O3.C2H4O2", "Melting Point": "170.5-172.5 \u00b0C"}}