{"cas_no": "1984-15-2", "cn_name": "\u4e9a\u7532\u57fa\u4e8c\u78f7\u9178", "en_name": ["Methylenediphosphonic acid", "Phosphonic acid, P,P\u2032-methylenebis-", "Phosphonic acid, methylenedi-", "Phosphonic acid, methylenebis-", "P,P\u2032-Methylenebis[phosphonic acid]", "Methanediphosphonic acid", "Methylenediphosphonic acid", "Methanebisphosphonic acid", "MDP", "Medronic acid", "Methylenebis[phosphonic acid]", "Methylene-1,1-bisphosphonic acid", "Medronate", "Methane-1,1-diphosphonic acid", "(Phosphonomethyl)phosphonic acid"], "SMILES": "C(P(=O)(O)O)P(=O)(O)O", "physical_data": {"Molecular Weight": "176.00", "Molecular Formula": "CH6O6P2", "Melting Point": "199.5 \u00b0C"}}