{"cas_no": "1985-12-2", "cn_name": "4-\u6eb4\u82ef\u57fa\u5f02\u786b\u6c30\u9178\u916f", "en_name": ["4-Bromophenyl isothiocyanate", "Benzene, 1-bromo-4-isothiocyanato-", "Isothiocyanic acid, p-bromophenyl ester", "1-Bromo-4-isothiocyanatobenzene", "p-Bromophenyl isothiocyanate", "4-Bromophenyl isothiocyanate", "Bromobenzene-4-isothiocyanate", "Trichofytocid", "Trichophytocid", "NSC 72012", "1-Isothiocyanato-4-bromobenzene"], "SMILES": "N(=C=S)C1=CC=C(Br)C=C1", "physical_data": {"Molecular Weight": "214.08", "Molecular Formula": "C7H4BrNS", "Boiling Point": "140 \u00b0C @ Press: 13 Torr", "Melting Point": "60-61 \u00b0C"}}