{"cas_no": "198561-87-4", "cn_name": "(R)-2-(FMOC-\u6c28\u57fa)-3-\u53d4\u4e01\u6c27\u57fa-1-\u4e19\u9187", "en_name": ["9H-Fluoren-9-ylmethyl N-[(1R)-2-(1,1-dimethylethoxy)-1-(hydroxymethyl)ethyl]carbamate", "Carbamic acid, N-[(1R)-2-(1,1-dimethylethoxy)-1-(hydroxymethyl)ethyl]-, 9H-fluoren-9-ylmethyl ester", "Carbamic acid, [2-(1,1-dimethylethoxy)-1-(hydroxymethyl)ethyl]-, 9H-fluoren-9-ylmethyl ester, (R)-", "Carbamic acid, [(1R)-2-(1,1-dimethylethoxy)-1-(hydroxymethyl)ethyl]-, 9H-fluoren-9-ylmethyl ester", "9H-Fluoren-9-ylmethyl N-[(1R)-2-(1,1-dimethylethoxy)-1-(hydroxymethyl)ethyl]carbamate"], "SMILES": "C(OC(NC(COC(C)(C)C)CO)=O)C1C=2C(C=3C1=CC=CC3)=CC=CC2", "physical_data": {"Molecular Weight": "369.45", "Molecular Formula": "C22H27NO4", "Melting Point": "95-97 \u00b0C"}}