{"cas_no": "1985-46-2", "cn_name": "2,4-\u4e8c\u6c28\u57fa-6-\u4e8c\u7532\u6c28\u57fa-1,3,5-\u4e09\u55ea", "en_name": ["N,N-Dimethylmelamine", "1,3,5-Triazine-2,4,6-triamine, N2,N2-dimethyl-", "Melamine, N2,N2-dimethyl-", "1,3,5-Triazine-2,4,6-triamine, N,N-dimethyl-", "N2,N2-Dimethyl-1,3,5-triazine-2,4,6-triamine", "ENT 22312", "s-Triazine, 2,4-diamino-6-(dimethylamino)-", "N2,N2-Dimethylmelamine", "2-(Dimethylamino)-4,6-diamino-s-triazine", "2,4-Diamino-6-(dimethylamino)-s-triazine", "NSC 4417", "N,N-Dimethylmelamine", "N,N-Dimethyl-1,3,5-triazine-2,4,6-triamine", "2,4-Diamino-6-dimethylamino-1,3,5-triazine", "2-N,2-N-Dimethyl-1,3,5-triazine-2,4,6-triamine"], "SMILES": "N(C)(C)C=1N=C(N)N=C(N)N1", "physical_data": {"Molecular Weight": "154.17", "Molecular Formula": "C5H10N6", "Melting Point": "306-307 \u00b0C"}}