{"cas_no": "1985-51-9", "cn_name": "\u65b0\u620a\u4e8c\u9187\u4e8c\u7532\u57fa\u4e19\u70ef\u9178\u916f", "en_name": ["Neopentyl glycol dimethacrylate", "2-Propenoic acid, 2-methyl-, 1,1\u2032-(2,2-dimethyl-1,3-propanediyl) ester", "Methacrylic acid, 2,2-dimethyltrimethylene ester", "2-Propenoic acid, 2-methyl-, 2,2-dimethyl-1,3-propanediyl ester", "1,3-Propanediol, 2,2-dimethyl-, dimethacrylate", "2,2-Dimethyl-1,3-propanediol dimethacrylate", "Neopentyl glycol dimethacrylate", "\u03b1,\u03c9-Bis(methacryloyloxy)-2,2-dimethylpropylene", "Neopentyl bis(methacrylate)", "Neopentanediol dimethacrylate", "NK Ester NPG", "TD 1523", "Light Ester NP", "NK Ester NPG-DM", "Pleximon V 773", "FA 125M", "SR 248", "Neopentyl dimethacrylate", "Sartomer SR 248", "NK NPG", "Fancryl FA 125M", "2,2-Dimethylpropane-1,3-diyl bis(2-methylacrylate)", "[2,2-Dimethyl-3-(2-methylprop-2-enoyloxy)propyl] 2-methylprop-2-enoate", "Miramer M 213"], "SMILES": "C(C(COC(C(C)=C)=O)(C)C)OC(C(C)=C)=O", "physical_data": {"Molecular Weight": "240.30", "Molecular Formula": "C13H20O4", "Boiling Point": "87 \u00b0C"}}