{"cas_no": "19851-61-7", "cn_name": "1,4-\u4e8c\u7f9f\u57fa\u82ef\u9178\u53cc(\u7532\u82ef)\u916f", "en_name": ["1,4-Bis(phenylmethyl) 1,4-benzenedicarboxylate", "1,4-Benzenedicarboxylic acid, 1,4-bis(phenylmethyl) ester", "Terephthalic acid, dibenzyl ester", "1,4-Benzenedicarboxylic acid, bis(phenylmethyl) ester", "1,4-Bis(phenylmethyl) 1,4-benzenedicarboxylate", "Dibenzyl terephthalate"], "SMILES": "C(OCC1=CC=CC=C1)(=O)C2=CC=C(C(OCC3=CC=CC=C3)=O)C=C2", "physical_data": {"Molecular Weight": "346.38", "Molecular Formula": "C22H18O4", "Melting Point": "94 \u00b0C"}}