{"cas_no": "198561-07-8", "cn_name": "FMOC-L-\u7094\u4e19\u57fa\u7518\u6c28\u9178", "en_name": ["Fmoc-L-propargylglycine", "4-Pentynoic acid, 2-[[(9H-fluoren-9-ylmethoxy)carbonyl]amino]-, (2S)-", "4-Pentynoic acid, 2-[[(9H-fluoren-9-ylmethoxy)carbonyl]amino]-, (S)-", "(2S)-2-[[(9H-Fluoren-9-ylmethoxy)carbonyl]amino]-4-pentynoic acid", "Fmoc-L-propargylglycine", "(2S)-2-(9H-Fluoren-9-ylmethoxycarbonylamino)pent-4-ynoic acid"], "SMILES": "C(OC(NC(CC#C)C(O)=O)=O)C1C=2C(C=3C1=CC=CC3)=CC=CC2", "physical_data": {"Molecular Weight": "335.35", "Molecular Formula": "C20H17NO4", "Melting Point": "175-177 \u00b0C"}}