{"cas_no": "1986-81-8", "cn_name": "N-\u6c27\u4ee3\u70df\u9170\u80fa", "en_name": ["Nicotinamide N-oxide", "3-Pyridinecarboxamide, 1-oxide", "Nicotinamide, 1-oxide", "Nicotinamide N-oxide", "NSC 168416", "NSC 30531", "Pyridine-3-carboxamide 1-oxide", "Niacinamide N-oxide", "1-Oxidopyridin-1-ium-3-carboxamide", "3-Carbamoylpyridin-1-ium-1-olate"], "SMILES": "C(N)(=O)C1=CN(=O)=CC=C1", "physical_data": {"Molecular Weight": "138.12", "Molecular Formula": "C6H6N2O2", "Melting Point": "275-276 \u00b0C (decomp)"}}