{"cas_no": "19861-63-3", "cn_name": "5-\u6c28\u57fa-2,4-\u4e8c\u6c2f\u82ef\u7532\u9178", "en_name": ["5-Amino-2,4-dichlorobenzoic acid", "Benzoic acid, 5-amino-2,4-dichloro-", "5-Amino-2,4-dichlorobenzoic acid"], "SMILES": "C(O)(=O)C1=C(Cl)C=C(Cl)C(N)=C1", "physical_data": {"Molecular Weight": "206.03", "Molecular Formula": "C7H5Cl2NO2", "Melting Point": "196-197 \u00b0C"}}