{"cas_no": "19869-42-2", "cn_name": "1-\u7532\u57fa\u516d\u6c22\u6c2e\u6742\u5353-4-\u916e\u76d0\u9178\u76d0", "en_name": ["4H-Azepin-4-one, hexahydro-1-methyl-, hydrochloride (1:1)", "4H-Azepin-4-one, hexahydro-1-methyl-, hydrochloride (1:1)", "4H-Azepin-4-one, hexahydro-1-methyl-, hydrochloride", "1-Methylhexahydro-4-azepinone hydrochloride", "1-Methylhexahydroazepin-4-one hydrochloride", "1-Methylazepan-4-one hydrochloride", "N-Methylazepan-4-one hydrochloride", "1-Methyl-1,2,3,5,6,7-hexahydroazepin-4-one hydrochloride"], "SMILES": "O=C1CCN(C)CCC1.Cl", "physical_data": {"Molecular Weight": "", "Molecular Formula": "C7H13NO.ClH", "Melting Point": "166.5-167 \u00b0C"}}