{"cas_no": "1986-89-6", "cn_name": "\u4e8c\u6b63\u8f9b\u57fa\u4e9a\u781c", "en_name": ["1-(Octylsulfinyl)octane", "Octane, 1-(octylsulfinyl)-", "Octyl sulfoxide", "Octane, 1,1\u2032-sulfinylbis-", "1-(Octylsulfinyl)octane", "Dioctyl sulfoxide", "Di-n-octyl sulfoxide", "Bis(1-octyl) sulfoxide", "NSC 65460", "1-(Octane-1-sulfinyl)-octane"], "SMILES": "S(CCCCCCCC)(CCCCCCCC)=O", "physical_data": {"Molecular Weight": "274.51", "Molecular Formula": "C16H34OS", "Melting Point": "71-72 \u00b0C"}}