{"cas_no": "19865-87-3", "cn_name": "CABRALEALACTONE", "en_name": ["Cabralealactone", "18-Norcholan-24-oic acid, 20-hydroxy-4,4,8,14-tetramethyl-3-oxo-, \u03b3-lactone, (5\u03b1)-", "18-Nor-5\u03b1-cholan-24-oic acid, 20-hydroxy-4,4,8,14-tetramethyl-3-oxo-, \u03b3-lactone, (20S)-", "18-Nor-5\u03b1-cholanic acid, 20-hydroxy-4,4,8,14-tetramethyl-3-oxo-, \u03b3-lactone", "Tris(norketo)lactone II", "Cabralealactone"], "SMILES": "CC12C(C3(C)C(CC1)C(C)(C)C(=O)CC3)CCC4C2(C)CCC4C5(C)OC(=O)CC5", "physical_data": {"Molecular Weight": "414.62", "Molecular Formula": "C27H42O3", "Melting Point": "183 \u00b0C"}}