{"cas_no": "19879-84-6", "cn_name": "1-\u786b\u4ee3-~-D-\u8461\u8404\u7cd6\u56db\u4e59\u9178\u916f", "en_name": ["Tetra-O-acetyl-1-thio-\u03b2-D-glucopyranose", "\u03b2-D-Glucopyranose, 1-thio-, 2,3,4,6-tetraacetate", "Glucopyranose, 1-thio-, 2,3,4,6-tetraacetate, \u03b2-D-", "Glucopyranose, 1-thio-, 2,3,4,6-tetraacetate", "2,3,4,6-Tetra-O-acetyl-1-thio-\u03b2-D-glucopyranose", "Tetra-O-acetyl-1-thio-\u03b2-D-glucopyranose", "\u03b2-D-Thioglucopyranose 2,3,4,6-tetraacetate", "SKF 83940D", "1-Thio-\u03b2-D-glucopyranose tetraacetate", "1-Thio-\u03b2-D-glucose tetraacetate", "NSC 97032", "2,3,4,6-Tetra-O-acetyl-1-thio-\u03b2-D-glucopyranoside", "2,3,4,6-Tetra-O-acetyl-1-thio-\u03b2-D-glycopyranose", "2,3,4,6-Tetra-O-acetyl-\u03b2-D-1-thioglucopyranoside", "2,3,4,6-Tetra-O-acetyl-1-thio-\u03b2-D-glucose"], "SMILES": "O(C(C)=O)C1C(OC(C)=O)C(COC(C)=O)OC(S)C1OC(C)=O", "physical_data": {"Molecular Weight": "364.37", "Molecular Formula": "C14H20O9S", "Melting Point": "74-75 \u00b0C"}}