{"cas_no": "1987-50-4", "cn_name": "4-\u5e9a\u57fa\u82ef\u915a", "en_name": ["4-n-Heptylphenol", "Phenol, 4-heptyl-", "Phenol, p-heptyl-", "4-Heptylphenol", "p-Hydroxyheptylbenzene", "p-Heptylphenol", "4-n-Heptylphenol", "p-Hydroxy-n-heptylbenzene"], "SMILES": "C(CCCCCC)C1=CC=C(O)C=C1", "physical_data": {"Molecular Weight": "192.30", "Molecular Formula": "C13H20O", "Boiling Point": "165 \u00b0C", "Melting Point": "24 \u00b0C"}}