{"cas_no": "19879-30-2", "cn_name": "\u7532\u57fa\u8865\u9aa8\u8102\u9ec4\u916eA", "en_name": ["Bavachinin", "4H-1-Benzopyran-4-one, 2,3-dihydro-2-(4-hydroxyphenyl)-7-methoxy-6-(3-methyl-2-buten-1-yl)-, (2S)-", "Flavanone, 4\u2032-hydroxy-7-methoxy-6-(3-methyl-2-butenyl)-", "4H-1-Benzopyran-4-one, 2,3-dihydro-2-(4-hydroxyphenyl)-7-methoxy-6-(3-methyl-2-butenyl)-, (S)-", "4H-1-Benzopyran-4-one, 2,3-dihydro-2-(4-hydroxyphenyl)-7-methoxy-6-(3-methyl-2-butenyl)-, (2S)-", "(2S)-2,3-Dihydro-2-(4-hydroxyphenyl)-7-methoxy-6-(3-methyl-2-buten-1-yl)-4H-1-benzopyran-4-one", "Bavachinin", "7-O-Methylbavachin", "Bavachinin A"], "SMILES": "O=C1C=2C(OC(C1)C3=CC=C(O)C=C3)=CC(OC)=C(CC=C(C)C)C2", "physical_data": {"Molecular Weight": "338.40", "Molecular Formula": "C21H22O4", "Melting Point": "154-155 \u00b0C"}}