{"cas_no": "19872-52-7", "cn_name": "4-\u5def\u57fa-4-\u7532\u57fa-2-\u620a\u916e", "en_name": ["4-Mercapto-4-methyl-2-pentanone", "2-Pentanone, 4-mercapto-4-methyl-", "4-Mercapto-4-methyl-2-pentanone", "4-Methyl-4-mercapto-2-pentanone", "2-Mercapto-2-methylpentan-4-one", "4-Methyl-4-sulfanylpentan-2-one", "4MMP", "4-Sulfanyl-4-methylpentan-2-one"], "SMILES": "C(C(C)(C)S)C(C)=O", "physical_data": {"Molecular Weight": "132.22", "Molecular Formula": "C6H12OS", "Boiling Point": "55 \u00b0C @ Press: 12 Torr"}}