{"cas_no": "19883-77-3", "cn_name": "L-3-\u6c1f\u82ef\u4e19\u6c28\u9178", "en_name": ["3-Fluoro-L-phenylalanine", "L-Phenylalanine, 3-fluoro-", "Alanine, 3-(m-fluorophenyl)-, L-", "3-Fluoro-L-phenylalanine", "L-3-Fluorophenylalanine", "m-Fluoro-L-phenylalanine", "(2S)-2-Amino-3-(3-fluorophenyl)propanoic acid", "(2S)-2-Azaniumyl-3-(3-fluorophenyl)propanoate"], "SMILES": "C(C(C(O)=O)N)C1=CC(F)=CC=C1", "physical_data": {"Molecular Weight": "183.18", "Molecular Formula": "C9H10FNO2", "Melting Point": "240-245 \u00b0C"}}