{"cas_no": "198835-06-2", "cn_name": "5-\u6c27\u4ee3-2-\u6c2e\u6742\u53cc\u73af[2.2.1]\u5e9a\u70f7-2-\u7fa7\u9178\u53d4\u4e01\u916f", "en_name": ["1,1-Dimethylethyl 5-oxo-2-azabicyclo[2.2.1]heptane-2-carboxylate", "2-Azabicyclo[2.2.1]heptane-2-carboxylic acid, 5-oxo-, 1,1-dimethylethyl ester", "1,1-Dimethylethyl 5-oxo-2-azabicyclo[2.2.1]heptane-2-carboxylate"], "SMILES": "C(OC(C)(C)C)(=O)N1C2CC(C1)C(=O)C2", "physical_data": {"Molecular Weight": "211.26", "Molecular Formula": "C11H17NO3", "Melting Point": "96 \u00b0C"}}