{"cas_no": "19881-18-6", "cn_name": "\u785d\u786b\u6c30\u919a", "en_name": ["Nitroscanate", "Benzene, 1-isothiocyanato-4-(4-nitrophenoxy)-", "Isothiocyanic acid, p-(p-nitrophenoxy)phenyl ester", "1-Isothiocyanato-4-(4-nitrophenoxy)benzene", "4-Nitro-4\u2032-isothiocyanatodiphenyl ether", "Nitroscanate", "Cantrodifene", "Lopatol", "4-(4-Nitrophenoxy)phenyl isothiocyanate"], "SMILES": "O(C1=CC=C(N(=O)=O)C=C1)C2=CC=C(N=C=S)C=C2", "physical_data": {"Molecular Weight": "272.28", "Molecular Formula": "C13H8N2O3S", "Melting Point": "110 \u00b0C"}}