{"cas_no": "198821-78-2", "cn_name": "5-(2-\u7532\u6c27\u57fa-4-\u785d\u57fa\u82ef\u57fa)-4-\u5641\u5511", "en_name": ["5-(2-Methoxy-4-nitrophenyl)oxazole", "Oxazole, 5-(2-methoxy-4-nitrophenyl)-", "5-(2-Methoxy-4-nitrophenyl)oxazole", "5-(2-Methoxy-4-nitrophenyl)-4-oxazole", "5-(4-Nitro-2-methoxyphenyl)oxazole"], "SMILES": "O(C)C1=C(C=CC(N(=O)=O)=C1)C2=CN=CO2", "physical_data": {"Molecular Weight": "220.18", "Molecular Formula": "C10H8N2O4", "Melting Point": "150-152 \u00b0C"}}