{"cas_no": "19885-10-0", "cn_name": "\u6cfd\u6cfb\u9187 A", "en_name": ["Alisol A", "Dammar-13(17)-en-3-one, 11,23,24,25-tetrahydroxy-, (8\u03b1,9\u03b2,11\u03b2,14\u03b2,23S,24R)-", "8\u03b1,9\u03b2,14\u03b2-Dammar-13(17)-en-3-one, 11\u03b2,23,24,25-tetrahydroxy-, (23S,24R)-", "(8\u03b1,9\u03b2,11\u03b2,14\u03b2,23S,24R)-11,23,24,25-Tetrahydroxydammar-13(17)-en-3-one", "Alisol A"], "SMILES": "CC12C(C3(C)C(CC1)C(C)(C)C(=O)CC3)C(O)CC=4C2(C)CCC4C(CC(C(C(C)(C)O)O)O)C", "physical_data": {"Molecular Weight": "490.71", "Molecular Formula": "C30H50O5", "Melting Point": "90-91 \u00b0C"}}