{"cas_no": "19889-37-3", "cn_name": "2-\u4e59\u57fa-2-\u7532\u57fa\u4e01\u9178", "en_name": ["2-Ethyl-2-methylbutanoic acid", "Butanoic acid, 2-ethyl-2-methyl-", "Butyric acid, 2-ethyl-2-methyl-", "2-Ethyl-2-methylbutanoic acid", "2-Methyl-2-ethylbutanoic acid", "\u03b1-Methyl-\u03b1-ethylbutyric acid", "\u03b1-Ethyl-\u03b1-methylbutyric acid", "2-Ethyl-2-methylbutyric acid", "2-Methyl-2-ethyl-1-butanoic acid", "2-Methyl-2-ethylbutyric acid", "\u03b1-Ethyl-\u03b1-methylbutanoic acid"], "SMILES": "C(C(O)=O)(CC)(CC)C", "physical_data": {"Molecular Weight": "130.18", "Molecular Formula": "C7H14O2", "Boiling Point": "207 \u00b0C", "Melting Point": "&lt;-20 \u00b0C", "Density": "0.8926 g/cm\u00b3 @ Temp: 25 \u00b0C"}}