{"cas_no": "1988-11-0", "cn_name": "2,6-DIISOPROPYL-[1,4]BENZOQUINONE", "en_name": ["2,6-Diisopropyl-1,4-benzoquinone", "2,5-Cyclohexadiene-1,4-dione, 2,6-bis(1-methylethyl)-", "p-Benzoquinone, 2,6-diisopropyl-", "2,6-Bis(1-methylethyl)-2,5-cyclohexadiene-1,4-dione", "2,6-Diisopropyl-p-benzoquinone", "2,6-Diisopropyl-1,4-benzoquinone", "2,3-Diisopropyl-p-benzoquinone", "2,6-Di(propan-2-yl)cyclohexa-2,5-diene-1,4-dione", "2,6-Bis(propan-2-yl)cyclohexa-2,5-diene-1,4-dione", "2,6-Diisopropylcyclohexa-2,5-diene-1,4-dione"], "SMILES": "C(C)(C)C=1C(=O)C(C(C)C)=CC(=O)C1", "physical_data": {"Molecular Weight": "192.25", "Molecular Formula": "C12H16O2", "Boiling Point": "130-131 \u00b0C @ Press: 4-5 Torr"}}