{"cas_no": "19883-78-4", "cn_name": "L-2-\u6c1f\u82ef\u4e19\u6c28\u9178", "en_name": ["2-Fluoro-L-phenylalanine", "L-Phenylalanine, 2-fluoro-", "Alanine, 3-(o-fluorophenyl)-, L-", "2-Fluoro-L-phenylalanine", "o-Fluoro-L-phenylalanine", "L-2-Fluorophenylalanine", "(2S)-2-Azaniumyl-3-(2-fluorophenyl)propanoate", "(S)-2-FluorophenyLalanine", "(2S)-2-Amino-3-(2-fluorophenyl)propanoic acid"], "SMILES": "C(C(C(O)=O)N)C1=C(F)C=CC=C1", "physical_data": {"Molecular Weight": "183.18", "Molecular Formula": "C9H10FNO2", "Melting Point": "208-210 \u00b0C"}}