{"cas_no": "19883-41-1", "cn_name": "(R)-(-)-2- \u82ef\u57fa\u7518\u6c28\u9178\u7532\u916f", "en_name": ["D-Phenylglycine methyl ester hydrochloride", "Benzeneacetic acid, \u03b1-amino-, methyl ester, hydrochloride (1:1), (\u03b1R)-", "Glycine, 2-phenyl-, methyl ester, hydrochloride, D-", "Benzeneacetic acid, \u03b1-amino-, methyl ester, hydrochloride, (R)-", "Benzeneacetic acid, \u03b1-amino-, methyl ester, hydrochloride, (\u03b1R)-", "Methyl D-phenylglycinate hydrochloride", "D-Phenylglycine methyl ester hydrochloride", "D-\u03b1-Aminophenylacetic acid methyl ester hydrochloride", "Methyl D-\u03b1-phenylglycine hydrochloride", "Methyl (R)-phenylglycinate hydrochloride", "(R)-Phenylglycine methyl ester hydrochloride", "Methyl D-\u03b1-phenylglycinate hydrochloride", "(R)-(-)-2-Phenylglycine methyl ester hydrochloride", "((R)-2-Methoxy-2-oxo-1-phenylethyl)ammonium chloride", "(R)-Methyl 2-amino-2-phenylacetate hydrochloride", "Methyl (R)-amino(phenyl)acetate hydrochloride", "(R)-Methyl 2-amino-2-phenylacetate hydrochloride", "(R)-2-Phenylglycine methyl ester hydrochloride", "Methyl (R)-2-amino-2-phenylacetate hydrochloride"], "SMILES": "C(C(OC)=O)(N)C1=CC=CC=C1.Cl", "physical_data": {"Molecular Weight": "", "Molecular Formula": "C9H11NO2.ClH", "Melting Point": "198-201 \u00b0C"}}