{"cas_no": "1989-53-3", "cn_name": "2,6-\u4e8c\u7532\u6c27\u57fa\u82ef\u7532\u9170\u6c2f", "en_name": ["2,6-Dimethoxybenzoyl chloride", "Benzoyl chloride, 2,6-dimethoxy-", "2,6-Dimethoxybenzoyl chloride"], "SMILES": "C(Cl)(=O)C1=C(OC)C=CC=C1OC", "physical_data": {"Molecular Weight": "200.62", "Molecular Formula": "C9H9ClO3", "Boiling Point": "125-132 \u00b0C @ Press: 0.2 Torr", "Melting Point": "64-66 \u00b0C"}}