{"cas_no": "1989-33-9", "cn_name": "9-\u82b4\u7532\u9178", "en_name": ["Fluorene-9-carboxylic acid", "9H-Fluorene-9-carboxylic acid", "Fluorene-9-carboxylic acid", "9-Carboxyfluorene", "NSC 5322", "Fluorine-9-carbocylic acid"], "SMILES": "C(O)(=O)C1C=2C(C=3C1=CC=CC3)=CC=CC2", "physical_data": {"Molecular Weight": "210.23", "Molecular Formula": "C14H10O2", "Melting Point": "228-231 \u00b0C"}}