{"cas_no": "198904-31-3", "cn_name": "\u963f\u624e\u90a3\u97e6", "en_name": ["Atazanavir", "2,5,6,10,13-Pentaazatetradecanedioic acid, 3,12-bis(1,1-dimethylethyl)-8-hydroxy-4,11-dioxo-9-(phenylmethyl)-6-[[4-(2-pyridinyl)phenyl]methyl]-, 1,14-dimethyl ester, (3S,8S,9S,12S)-", "2,5,6,10,13-Pentaazatetradecanedioic acid, 3,12-bis(1,1-dimethylethyl)-8-hydroxy-4,11-dioxo-9-(phenylmethyl)-6-[[4-(2-pyridinyl)phenyl]methyl]-, dimethyl ester, [3S-(3R*,8R*,9R*,12R*)]-", "2,5,6,10,13-Pentaazatetradecanedioic acid, 3,12-bis(1,1-dimethylethyl)-8-hydroxy-4,11-dioxo-9-(phenylmethyl)-6-[[4-(2-pyridinyl)phenyl]methyl]-, dimethyl ester, (3S,8S,9S,12S)-", "1,14-Dimethyl (3S,8S,9S,12S)-3,12-bis(1,1-dimethylethyl)-8-hydroxy-4,11-dioxo-9-(phenylmethyl)-6-[[4-(2-pyridinyl)phenyl]methyl]-2,5,6,10,13-pentaazatetradecanedioate", "CGP 73547", "BMS 232632", "Atazanavir"], "SMILES": "N(CC1=CC=C(C=C1)C2=CC=CC=N2)(CC(C(CC3=CC=CC=C3)NC(C(NC(OC)=O)C(C)(C)C)=O)O)NC(C(NC(OC)=O)C(C)(C)C)=O", "physical_data": {"Molecular Weight": "704.86", "Molecular Formula": "C38H52N6O7", "Melting Point": "198-200 \u00b0C"}}