{"cas_no": "198904-86-8", "cn_name": "2-[(2S,3S)-3-[[(\u53d4\u4e01\u6c27\u57fa)\u7fb0\u57fa]\u6c28\u57fa]-2-\u7f9f\u57fa-4-\u82ef\u57fa\u4e01\u57fa]-2-[[4-(2-\u5421\u5576\u57fa)\u82ef\u57fa]\u7532\u57fa]\u80bc\u7fa7\u9178\u53d4\u4e01\u916f", "en_name": ["1,1-Dimethylethyl 2-[(2S,3S)-3-[[(1,1-dimethylethoxy)carbonyl]amino]-2-hydroxy-4-phenylbutyl]-2-[[4-(2-pyridinyl)phenyl]methyl]hydrazinecarboxylate", "Hydrazinecarboxylic acid, 2-[(2S,3S)-3-[[(1,1-dimethylethoxy)carbonyl]amino]-2-hydroxy-4-phenylbutyl]-2-[[4-(2-pyridinyl)phenyl]methyl]-, 1,1-dimethylethyl ester", "Hydrazinecarboxylic acid, 2-[3-[[(1,1-dimethylethoxy)carbonyl]amino]-2-hydroxy-4-phenylbutyl]-2-[[4-(2-pyridinyl)phenyl]methyl]-, 1,1-dimethylethyl ester, [S-(R*,R*)]-", "1,1-Dimethylethyl 2-[(2S,3S)-3-[[(1,1-dimethylethoxy)carbonyl]amino]-2-hydroxy-4-phenylbutyl]-2-[[4-(2-pyridinyl)phenyl]methyl]hydrazinecarboxylate"], "SMILES": "C(N(CC(C(CC1=CC=CC=C1)NC(OC(C)(C)C)=O)O)NC(OC(C)(C)C)=O)C2=CC=C(C=C2)C3=CC=CC=N3", "physical_data": {"Molecular Weight": "562.70", "Molecular Formula": "C32H42N4O5", "Melting Point": "185-186 \u00b0C"}}