{"cas_no": "19895-95-5", "cn_name": "\u5c71\u5948\u915a 3-O-BETA-D-\u69d0\u7cd6\u82f7", "en_name": ["Kaempferol 3-O-sophoroside", "4H-1-Benzopyran-4-one, 3-[(2-O-\u03b2-D-glucopyranosyl-\u03b2-D-glucopyranosyl)oxy]-5,7-dihydroxy-2-(4-hydroxyphenyl)-", "Flavone, 3,4\u2032,5,7-tetrahydroxy-, 3-(2-O-\u03b2-D-glucopyranosyl-\u03b2-D-glucopyranoside)", "3-[(2-O-\u03b2-D-Glucopyranosyl-\u03b2-D-glucopyranosyl)oxy]-5,7-dihydroxy-2-(4-hydroxyphenyl)-4H-1-benzopyran-4-one", "Kaempferol 3-\u03b2-sophoroside", "Flavone, 3,4\u2032,5,7-tetrahydroxy-, 3-sophoroside", "Kaempferol 3-sophoroside", "Sophoraflavonoloside", "Kaempferol 3-O-sophoroside", "3,4\u2032,5,7-Tetrahydroxyflavone 3-\u03b2-D-sophoroside", "Flavone, 3,4\u2032,5,7-tetrahydroxy-, 3-\u03b2-sophoroside", "Kaempherol 3-O-\u03b2-sophoroside", "Kaempferol 3-O-\u03b2-D-sophoroside", "Kaempferol 3-O-\u03b2-sophoroside", "Kaempferol 3-O-\u03b2-D-glucopyranosyl-(1\u21922)-\u03b2-D-glucopyranoside", "Kaempferol 3-O-\u03b2-D-glucosyl-(2\u21921)-\u03b2-D-glucoside", "Astragalin-2\u2032\u2032-O-\u03b2-D-glucopyranoside", "Kaempferide-3-O-sophoroside"], "SMILES": "O(C1=C(OC=2C(C1=O)=C(O)C=C(O)C2)C3=CC=C(O)C=C3)C4C(OC5OC(CO)C(O)C(O)C5O)C(O)C(O)C(CO)O4", "physical_data": {"Molecular Weight": "610.52", "Molecular Formula": "C27H30O16", "Melting Point": "195 \u00b0C"}}