{"cas_no": "1989-52-2", "cn_name": "\u80c6\u753e\u70ef\u57fa\u8c46\u853b\u9178\u916f", "en_name": ["Cholesteryl myristate", "Cholest-5-en-3-ol (3\u03b2)-, 3-tetradecanoate", "Cholesterol, myristate", "Cholest-5-en-3-ol (3\u03b2)-, tetradecanoate", "Myristic acid, cholesteryl ester", "Cholesteryl myristate", "Cholesteryl tetradecanoate", "Cholestryl myristate", "NSC 226867", "Cholest-5-en-3\u03b2-ol palmitate", "5-Cholesten-3\u03b2-ol palmitate", "Cholesterol tetradecanoate", "CE(14:0)"], "SMILES": "CC12C3C(C4C(C)(CC3)C(C(CCCC(C)C)C)CC4)CC=C1CC(OC(CCCCCCCCCCCCC)=O)CC2", "physical_data": {"Molecular Weight": "597.01", "Molecular Formula": "C41H72O2", "Melting Point": "80-86 \u00b0C"}}