{"cas_no": "1990-29-0", "cn_name": "D-\u963f\u5353\u7cd6", "en_name": ["D-Altrose", "D-Altrose", "Altrose, D-", "NSC 2573", "D-Alrtose"], "SMILES": "C(C(C(C=O)O)O)(C(CO)O)O", "physical_data": {"Molecular Weight": "180.16", "Molecular Formula": "C6H12O6", "Melting Point": "103.5 \u00b0C"}}