{"cas_no": "19900-69-7", "cn_name": "4,4'-\u4e9a\u7532\u53cc-(2,6-\u4e8c\u5f02\u4e19\u57fa\u82ef\u80fa)", "en_name": ["4,4\u2032-Methylenebis(2,6-diisopropylaniline)", "Benzenamine, 4,4\u2032-methylenebis[2,6-bis(1-methylethyl)-", "Aniline, 4,4\u2032-methylenebis[2,6-diisopropyl-", "4,4\u2032-Methylenebis[2,6-bis(1-methylethyl)benzenamine]", "3,3\u2032,5,5\u2032-Tetraisopropyl-4,4\u2032-diaminodiphenylmethane", "4,4\u2032-Methylenebis(2,6-diisopropylaniline)", "Bis(3,5-diisopropyl-4-aminophenyl)methane", "MDPA", "Kayabond C 400", "M-DIPA", "Lonzacure M-DIPA", "4,4\u2032-Methylenebis[2,6-bis(1-methylethyl)benzeneamine]"], "SMILES": "C(C)(C)C1=C(N)C(C(C)C)=CC(CC2=CC(C(C)C)=C(N)C(C(C)C)=C2)=C1", "physical_data": {"Molecular Weight": "366.58", "Molecular Formula": "C25H38N2", "Boiling Point": "215-218 \u00b0C @ Press: 0.5 Torr"}}