{"cas_no": "19906-72-0", "cn_name": "\u8702\u6597\u83dc\u5185\u916fA", "en_name": ["(+)-Bakkenolide A", "Spiro[furan-3(2H),2\u2032-[2H]inden]-2-one, decahydro-3\u2032a,4\u2032-dimethyl-4-methylene-, (2\u2032R,3\u2032aR,4\u2032S,7\u2032aR)-", "Spiro[furan-3(2H),2\u2032-indan]-2-one, 3\u2032a,4,4\u2032,5,5\u2032,6\u2032,7\u2032,7\u2032a\u03b2-octahydro-3\u2032a\u03b2,4\u2032\u03b2-dimethyl-4-methylene-, (2\u2032R)-", "Spiro[furan-3(2H),2\u2032-[2H]inden]-2-one, decahydro-3\u2032a,4\u2032-dimethyl-4-methylene-, [2\u2032R-(2\u2032\u03b1,3\u2032a\u03b1,4\u2032\u03b1,7\u2032a\u03b1)]-", "(2\u2032R,3\u2032aR,4\u2032S,7\u2032aR)-Decahydro-3\u2032a,4\u2032-dimethyl-4-methylenespiro[furan-3(2H),2\u2032-[2H]inden]-2-one", "Bakkenolide A", "Fukinanolide", "Bakkenolid A", "Fukinanolid", "(+)-Bakkenolide A", "NSC 292655"], "SMILES": "C=C1C2(CC3(C)C(C2)CCCC3C)C(=O)OC1", "physical_data": {"Molecular Weight": "234.33", "Molecular Formula": "C15H22O2", "Melting Point": "80.5-80.6 \u00b0C"}}