{"cas_no": "19902-91-1", "cn_name": "\u4e8c\u6c22\u9ebb\u9189\u6912\u7d20", "en_name": ["(+)-Dihydromethysticin", "2H-Pyran-2-one, 6-[2-(1,3-benzodioxol-5-yl)ethyl]-5,6-dihydro-4-methoxy-, (6S)-", "2H-Pyran-2-one, 5,6-dihydro-4-methoxy-6-[3,4-(methylenedioxy)phenethyl]-, (S)-", "2H-Pyran-2-one, 6-[2-(1,3-benzodioxol-5-yl)ethyl]-5,6-dihydro-4-methoxy-, (S)-", "Methysticin, dihydro-", "(6S)-6-[2-(1,3-Benzodioxol-5-yl)ethyl]-5,6-dihydro-4-methoxy-2H-pyran-2-one", "Methysticin, 7,8-dihydro-", "Dihydromethysticin", "7,8-Dihydromethysticin", "DHM", "(+)-Dihydromethysticin", "NSC 112159", "(S)-(+)-Dihydromethysticin", "(2S)-2-[2-(1,3-Benzodioxol-5-yl)ethyl]-4-methoxy-2,3-dihydropyran-6-one"], "SMILES": "C(CC1CC(OC)=CC(=O)O1)C=2C=C3C(=CC2)OCO3", "physical_data": {"Molecular Weight": "276.28", "Molecular Formula": "C15H16O5", "Melting Point": "117-118 \u00b0C"}}