{"cas_no": "1990-90-5", "cn_name": "3-\u7532\u57fa-4-\u6c28\u57fa\u5421\u5576", "en_name": ["3-Methyl-4-pyridinamine", "4-Pyridinamine, 3-methyl-", "3-Picoline, 4-amino-", "3-Methyl-4-pyridinamine", "Phillips 1908", "4-Amino-3-methylpyridine", "3-Methyl-4-aminopyridine", "4-Amino-3-picoline", "NSC 52454", "(3-Methylpyridin-4-yl)amine", "3-Methylpyridin-4-amine"], "SMILES": "CC=1C(N)=CC=NC1", "physical_data": {"Molecular Weight": "108.14", "Molecular Formula": "C6H8N2", "Melting Point": "108-109 \u00b0C"}}