{"cas_no": "19900-65-3", "cn_name": "4,4'-\u4e9a\u7532\u57fa\u53cc(2-\u4e59\u57fa)\u82ef\u80fa", "en_name": ["4,4\u2032-Methylenebis[2-ethylbenzenamine]", "Benzenamine, 4,4\u2032-methylenebis[2-ethyl-", "Aniline, 4,4\u2032-methylenebis[2-ethyl-", "4,4\u2032-Methylenebis[2-ethylbenzenamine]", "4,4\u2032-Diamino-3,3\u2032-diethyldiphenylmethane", "4,4\u2032-Methylenebis(2-ethylaniline)", "4,4\u2032-Methylenebis(o-ethylaniline)", "3,3\u2032-Diethyl-4,4\u2032-diaminodiphenylmethane", "Araldite HY 350", "4,4\u2032-Methylenebis[2-ethylbenzamine]", "HY 450", "Kayahard A-A", "C 100S", "C 100S (amine)", "H 256", "H 256 (amine)", "4,4\u2032-Methylenebis(2-ethylbenzeneamine)", "Lapox K 450", "K 450", "Acetocure MBOEA"], "SMILES": "C(C1=CC(CC)=C(N)C=C1)C2=CC(CC)=C(N)C=C2", "physical_data": {"Molecular Weight": "254.37", "Molecular Formula": "C17H22N2", "Melting Point": "45.5-46.5 \u00b0C"}}