{"cas_no": "19910-33-9", "cn_name": "\u03b1-\u7532\u57fa-4-\u785d\u57fa\u82ef\u4e59\u9178", "en_name": ["2-(4-Nitrophenyl)propionic acid", "Benzeneacetic acid, \u03b1-methyl-4-nitro-", "Hydratropic acid, p-nitro-", "\u03b1-Methyl-4-nitrobenzeneacetic acid", "2-(4-Nitrophenyl)propionic acid", "2-(p-Nitrophenyl)propionic acid", "2-(4-Nitrophenyl)propanoic acid", "(\u00b1)-2-(4-Nitrophenyl)propionic acid"], "SMILES": "C(C(O)=O)(C)C1=CC=C(N(=O)=O)C=C1", "physical_data": {"Molecular Weight": "195.17", "Molecular Formula": "C9H9NO4", "Melting Point": "100.0-100.5 \u00b0C"}}