{"cas_no": "1991-87-3", "cn_name": "4-\u7532\u57fa-L-\u82ef\u4e19\u6c28\u9178", "en_name": ["4-Methyl-L-phenylalanine", "L-Phenylalanine, 4-methyl-", "Alanine, 3-p-tolyl-, L-", "4-Methyl-L-phenylalanine", "p-Methyl-L-phenylalanine", "L-4\u2032-Methylphenylalanine", "L-4-Methylphenylalanine", "(S)-2-Amino-3-(p-tolyl)propanoic acid", "(2S)-2-Amino-3-(4-methylphenyl)propanoic acid"], "SMILES": "C(C(C(O)=O)N)C1=CC=C(C)C=C1", "physical_data": {"Molecular Weight": "179.22", "Molecular Formula": "C10H13NO2", "Melting Point": "275-279 \u00b0C"}}