{"cas_no": "19916-73-5", "cn_name": "O-6-\u82c4\u57fa\u9e1f\u560c\u5464", "en_name": ["6-(Phenylmethoxy)-9H-purin-2-amine", "9H-Purin-2-amine, 6-(phenylmethoxy)-", "Purine, 2-amino-6-(benzyloxy)-", "1H-Purin-2-amine, 6-(phenylmethoxy)-", "6-(Phenylmethoxy)-9H-purin-2-amine", "2-Amino-6-(benzyloxy)purine", "6-(Benzyloxy)guanine", "2-Amino-6-(phenylmethoxy)-9H-purine", "6-O-Benzylguanine", "NSC 637037", "O6-Benzylguanine", "O6-Benzylguanine", "Benzylguanine", "6-(Benzyloxy)-7H-purin-2-amine"], "SMILES": "O(CC1=CC=CC=C1)C2=C3C(=NC(N)=N2)N=CN3", "physical_data": {"Molecular Weight": "241.25", "Molecular Formula": "C12H11N5O", "Melting Point": "202-205 \u00b0C"}}