{"cas_no": "1991-52-2", "cn_name": "2,5-\u4e8c\u53d4\u4e01\u57fa-4-\u7532\u6c27\u57fa\u82ef\u915a", "en_name": ["2,5-Di-tert-butyl-4-methoxyphenol", "Phenol, 2,5-bis(1,1-dimethylethyl)-4-methoxy-", "Phenol, 2,5-di-tert-butyl-4-methoxy-", "2,5-Bis(1,1-dimethylethyl)-4-methoxyphenol", "2,5-Di-tert-butyl-4-methoxyphenol", "2,5-Di-tert-butyl-4-hydroxyanisole", "DTBMP", "2,5-Di(1,1-dimethylethyl)-4-methoxyphenol", "2,5-Ditert-butyl-4-methoxyphenol", "DTBMP (antioxidant)"], "SMILES": "C(C)(C)(C)C1=C(OC)C=C(C(C)(C)C)C(O)=C1", "physical_data": {"Molecular Weight": "236.35", "Molecular Formula": "C15H24O2", "Melting Point": "101.5-103 \u00b0C"}}