{"cas_no": "19912-61-9", "cn_name": "\u83aa\u672f\u544b\u5583\u4e8c\u70ef", "en_name": ["Furanodiene", "Cyclodeca[b]furan, 4,7,8,11-tetrahydro-3,6,10-trimethyl-, (5E,9Z)-", "Germacra-1(10),4,7,11-tetraene, 8,12-epoxy-, (Z,E)-", "Cyclodeca[b]furan, 4,7,8,11-tetrahydro-3,6,10-trimethyl-, (Z,E)-", "(5E,9Z)-4,7,8,11-Tetrahydro-3,6,10-trimethylcyclodeca[b]furan", "Furanodiene", "(1Z,4E)-8,12-Epoxygermacra-1(10),4,7,11-tetraen-6-one"], "SMILES": "CC=1C2=C(OC1)CC(C)=CCCC(C)=CC2", "physical_data": {"Molecular Weight": "216.32", "Molecular Formula": "C15H20O", "Melting Point": "74-75 \u00b0C"}}