{"cas_no": "1992-15-0", "cn_name": "1,4-\u53cc(2-\u7f9f\u57fa\u516d\u6c1f\u5f02\u4e19\u57fa)\u82ef", "en_name": ["\u03b11,\u03b11,\u03b14,\u03b14-Tetrakis(trifluoromethyl)-1,4-benzenedimethanol", "1,4-Benzenedimethanol, \u03b11,\u03b11,\u03b14,\u03b14-tetrakis(trifluoromethyl)-", "p-Xylene-\u03b1,\u03b1\u2032-diol, \u03b1,\u03b1,\u03b1\u2032,\u03b1\u2032-tetrakis(trifluoromethyl)-", "1,4-Benzenedimethanol, \u03b1,\u03b1,\u03b1\u2032,\u03b1\u2032-tetrakis(trifluoromethyl)-", "\u03b11,\u03b11,\u03b14,\u03b14-Tetrakis(trifluoromethyl)-1,4-benzenedimethanol", "1,4-Bis(2-hydroxyhexafluoro-2-propyl)benzene", "1,4-Bis(2-hydroxyhexafluoroisopropyl)benzene", "1,4-HFAB", "\u03b1,\u03b1,\u03b1\u2032,\u03b1\u2032-Tetrakis(trifluoromethyl)-1,4-benzenedimethanol", "1,1,1,3,3,3-Hexafluoro-2-[4-(1,1,1,3,3,3-hexafluoro-2-hydroxypropan-2-yl)phenyl]propan-2-ol"], "SMILES": "C(C(F)(F)F)(C(F)(F)F)(O)C1=CC=C(C(C(F)(F)F)(C(F)(F)F)O)C=C1", "physical_data": {"Molecular Weight": "410.16", "Molecular Formula": "C12H6F12O2", "Melting Point": "85 \u00b0C"}}