{"cas_no": "1992-48-9", "cn_name": "\u7845\u9178\u5f02\u4e19\u916f", "en_name": ["Tetraisopropoxysilane", "Silicic acid (H4SiO4), tetrakis(1-methylethyl) ester", "Silicic acid (H4SiO4), tetraisopropyl ester", "Isopropyl silicate ((C3H7O)4Si)", "Tetraisopropoxysilane", "Silicon tetraisopropoxide", "Tetrakis(isopropyloxy)silane", "Tetraisopropyl orthosilicate", "Tetraisopropyl silicate", "Silicon isopropoxide", "Tetrakis(1-methylethoxy)silane", "NSC 252164", "TK 217", "Isopropyl orthosilicate"], "SMILES": "[Si](OC(C)C)(OC(C)C)(OC(C)C)OC(C)C", "physical_data": {"Molecular Weight": "264.43", "Molecular Formula": "C12H28O4Si", "Boiling Point": "185-186 \u00b0C", "Melting Point": "146 \u00b0C (decomp)", "Density": "0.8772 g/cm\u00b3"}}