{"cas_no": "19924-43-7", "cn_name": "3-\u7532\u6c27\u57fa\u82ef\u4e59\u8148", "en_name": ["(3-Methoxyphenyl)acetonitrile", "Benzeneacetonitrile, 3-methoxy-", "Acetonitrile, (m-methoxyphenyl)-", "3-Methoxybenzeneacetonitrile", "(m-Methoxyphenyl)acetonitrile", "m-Methoxybenzyl cyanide", "(3-Methoxyphenyl)acetonitrile", "3-Methoxybenzyl cyanide", "2-(3-Methoxyphenyl)acetonitrile", "NSC 143401", "Limnanthin nitrile"], "SMILES": "C(C#N)C1=CC(OC)=CC=C1", "physical_data": {"Molecular Weight": "147.17", "Molecular Formula": "C9H9NO", "Boiling Point": "152 \u00b0C"}}