{"cas_no": "199327-61-2", "cn_name": "7-\u7532\u6c27\u57fa-6-(3-\u5417\u5549-4-\u57fa\u4e19\u6c27\u57fa)\u55b9\u5511\u5549-4(3H)-\u916e", "en_name": ["7-Methoxy-6-(3-morpholinopropoxy)-3,4-dihydroquinazolin-4-one", "4(3H)-Quinazolinone, 7-methoxy-6-[3-(4-morpholinyl)propoxy]-", "4(1H)-Quinazolinone, 7-methoxy-6-[3-(4-morpholinyl)propoxy]-", "7-Methoxy-6-[3-(4-morpholinyl)propoxy]-4(3H)-quinazolinone", "7-Methoxy-6-(3-morpholinopropoxy)-3,4-dihydroquinazolin-4-one", "7-Methoxy-6-(3-(morpholin-4-yl)propoxy)-3H-quinazolin-4-one", "7-Methoxy-6-[3-(4-morpholinyl)propoxy]quinazolin-4(3H)-one", "7-Methoxy-6-(3-morpholinopropoxy)quinazolin-4-one"], "SMILES": "O=C1C=2C(=CC(OC)=C(OCCCN3CCOCC3)C2)NC=N1", "physical_data": {"Molecular Weight": "319.36", "Molecular Formula": "C16H21N3O4", "Melting Point": "233-236 \u00b0C"}}