{"cas_no": "19932-26-4", "cn_name": "3-(2,2,3,3-\u56db\u6c1f\u4e19\u6c27\u57fa)-1,2-\u6c27\u5316\u4e19\u70ef", "en_name": ["2-[(2,2,3,3-Tetrafluoropropoxy)methyl]oxirane", "Oxirane, 2-[(2,2,3,3-tetrafluoropropoxy)methyl]-", "Propane, 1,2-epoxy-3-(2,2,3,3-tetrafluoropropoxy)-", "Oxirane, [(2,2,3,3-tetrafluoropropoxy)methyl]-", "2-[(2,2,3,3-Tetrafluoropropoxy)methyl]oxirane", "1,2-Epoxy-3-(2,2,3,3-tetrafluoropropoxy)propane", "Glycidyl 2,2,3,3-tetrafluoropropyl ether", "E 5244", "2-(4,4,5,5-Tetrafluoro-2-oxapentyl)oxirane"], "SMILES": "C(OCC(C(F)F)(F)F)C1CO1", "physical_data": {"Molecular Weight": "188.12", "Molecular Formula": "C6H8F4O2", "Boiling Point": "175-176 \u00b0C", "Melting Point": "110-111 \u00b0C"}}