{"cas_no": "19932-84-4", "cn_name": "6-\u6c2f-\u82ef\u5e76\u6076\u5511\u916e", "en_name": ["6-Chloro-2,3-dihydrobenzoxazol-2-one", "2(3H)-Benzoxazolone, 6-chloro-", "2-Benzoxazolinone, 6-chloro-", "6-Chloro-2(3H)-benzoxazolone", "6-Chlorobenzoxazolone", "6-Chloro-2-benzoxazolinone", "6-Chloro-2-benzoxazolone", "6-Chlorobenzoxazolinone", "HOE 54014", "6-Chloro-2,3-dihydrobenzoxazol-2-one", "6-Chlorobenzoxazolone-2", "NSC 26191", "NSC 664284", "6-Chloro-3H-benzoxazol-2-one", "6-Chlorobenzo[d]oxazol-2(3H)-one"], "SMILES": "O=C1NC=2C(O1)=CC(Cl)=CC2", "physical_data": {"Molecular Weight": "169.57", "Molecular Formula": "C7H4ClNO2", "Melting Point": "196 \u00b0C"}}