{"cas_no": "19932-85-5", "cn_name": "6-\u6eb4-\u82ef\u5e76\u6076\u5511\u916e", "en_name": ["6-Bromo-2(3H)-benzoxazolone", "2(3H)-Benzoxazolone, 6-bromo-", "2-Benzoxazolinone, 6-bromo-", "6-Bromo-2(3H)-benzoxazolone", "6-Bromo-2-benzoxazolinone", "6-Bromo-2-benzoxazolone", "6-Bromobenzoxazolone", "6-Bromo-3H-benzoxazol-2-one", "NSC 26190", "Cincreasin", "6-Bromo-1,3-benzoxazol-2(3H)-one", "6-Bromobenzo[d]oxazol-2(3H)-one"], "SMILES": "O=C1NC=2C(O1)=CC(Br)=CC2", "physical_data": {"Molecular Weight": "214.02", "Molecular Formula": "C7H4BrNO2", "Melting Point": "188-190 \u00b0C"}}