{"cas_no": "199391-76-9", "cn_name": "HeBF", "en_name": ["2,3-Dihydro-4-benzofuranethanol", "4-Benzofuranethanol, 2,3-dihydro-", "2,3-Dihydro-4-benzofuranethanol", "2-(2,3-Dihydrobenzofuran-4-yl)ethanol", "2-(2,3-Dihydro-1-benzofuran-4-yl)ethan-1-ol"], "SMILES": "C(CO)C1=C2C(OCC2)=CC=C1", "physical_data": {"Molecular Weight": "164.20", "Molecular Formula": "C10H12O2", "Boiling Point": "110-113 \u00b0C @ Press: 20 Torr"}}