{"cas_no": "19933-24-5", "cn_name": "3-(2-\u567b\u5429)\u5421\u5511", "en_name": ["3-(2-Thienyl)-1H-pyrazole", "1H-Pyrazole, 3-(2-thienyl)-", "3-(2-Thienyl)-1H-pyrazole", "3-(2-Thienyl)pyrazole", "3-Thiophen-2-yl-1H-pyrazole"], "SMILES": "C=1(C=CNN1)C2=CC=CS2", "physical_data": {"Molecular Weight": "150.20", "Molecular Formula": "C7H6N2S", "Boiling Point": "120-124 \u00b0C @ Press: 10 Torr", "Melting Point": "98-99 \u00b0C"}}