{"cas_no": "19937-59-8", "cn_name": "\u7532\u6c27\u9686", "en_name": ["Metoxuron", "Urea, N\u2032-(3-chloro-4-methoxyphenyl)-N,N-dimethyl-", "Urea, 3-(3-chloro-4-methoxyphenyl)-1,1-dimethyl-", "N\u2032-(3-Chloro-4-methoxyphenyl)-N,N-dimethylurea", "Metoxuron", "N-(3-Chloro-4-methoxyphenyl)-N\u2032,N\u2032-dimethylurea", "Metoxuran", "1-(3-Chloro-4-methoxyphenyl)-3,3-dimethylurea", "Dosanex", "3-(3-Chloro-4-methoxyphenyl)-1,1-dimethylurea", "SAN 6602", "SAN 7102", "Purivel"], "SMILES": "N(C(N(C)C)=O)C1=CC(Cl)=C(OC)C=C1", "physical_data": {"Molecular Weight": "228.68", "Molecular Formula": "C10H13ClN2O2", "Melting Point": "126.5 \u00b0C"}}