{"cas_no": "19947-75-2", "cn_name": "5-\u6c28\u57fa-3,4-\u4e8c\u7532\u57fa\u5f02\u5511", "en_name": ["5-Amino-3,4-dimethylisoxazole", "5-Isoxazolamine, 3,4-dimethyl-", "Isoxazole, 5-amino-3,4-dimethyl-", "3,4-Dimethyl-5-isoxazolamine", "5-Amino-3,4-dimethylisoxazole", "3,4-Dimethyl-5-isoxazolylamine", "3,4-Dimethyl-5-aminoisoxazole", "NSC 143787", "3,4-Dimethyl-1,2-oxazol-5-amine"], "SMILES": "CC=1C(C)=NOC1N", "physical_data": {"Molecular Weight": "112.13", "Molecular Formula": "C5H8N2O", "Melting Point": "125 \u00b0C"}}