{"cas_no": "1994-13-4", "cn_name": "6-\u6c1f-4-\u7f9f\u57fa\u9999\u8c46\u7d20", "en_name": ["6-Fluoro-4-hydroxycoumarin", "2H-1-Benzopyran-2-one, 6-fluoro-4-hydroxy-", "Coumarin, 6-fluoro-4-hydroxy-", "6-Fluoro-4-hydroxy-2H-1-benzopyran-2-one", "6-Fluoro-4-hydroxycoumarin"], "SMILES": "OC=1C=2C(OC(=O)C1)=CC=C(F)C2", "physical_data": {"Molecular Weight": "180.13", "Molecular Formula": "C9H5FO3", "Melting Point": "245-246 \u00b0C"}}