{"cas_no": "19950-55-1", "cn_name": "\u851a\u745e\u6606\u68ee", "en_name": ["Veraguensin", "Furan, 2,5-bis(3,4-dimethoxyphenyl)tetrahydro-3,4-dimethyl-, (2R,3S,4S,5S)-", "Veraguensin", "Furan, 2,5-bis(3,4-dimethoxyphenyl)tetrahydro-3,4-dimethyl-, [2R-(2\u03b1,3\u03b1,4\u03b2,5\u03b1)]-", "(2R,3S,4S,5S)-2,5-Bis(3,4-dimethoxyphenyl)tetrahydro-3,4-dimethylfuran", "Veraguensine", "(+)-Veraguensin"], "SMILES": "CC1C(OC(C1C)C2=CC(OC)=C(OC)C=C2)C3=CC(OC)=C(OC)C=C3", "physical_data": {"Molecular Weight": "372.45", "Molecular Formula": "C22H28O5", "Melting Point": "128.0-129.2 \u00b0C"}}