{"cas_no": "19956-54-8", "cn_name": "METHYLLUCIDONE", "en_name": ["4-Methoxy-2-[(2E)-1-methoxy-3-phenyl-2-propen-1-ylidene]-4-cyclopentene-1,3-dione", "4-Cyclopentene-1,3-dione, 4-methoxy-2-[(2E)-1-methoxy-3-phenyl-2-propen-1-ylidene]-", "4-Cyclopentene-1,3-dione, 4-methoxy-2-(\u03b1-methoxycinnamylidene)-", "4-Cyclopentene-1,3-dione, 4-methoxy-2-[(2E)-1-methoxy-3-phenyl-2-propenylidene]-", "4-Methoxy-2-[(2E)-1-methoxy-3-phenyl-2-propen-1-ylidene]-4-cyclopentene-1,3-dione", "Methyllucidone", "Lucidone, methyl-"], "SMILES": "C(C=CC1=CC=CC=C1)(OC)=C2C(=O)C(OC)=CC2=O", "physical_data": {"Molecular Weight": "270.28", "Molecular Formula": "C16H14O4", "Melting Point": "115-116 \u00b0C"}}