{"cas_no": "19952-47-7", "cn_name": "2-\u6c28\u57fa-4-\u6c2f\u82ef\u5e76\u567b\u5511", "en_name": ["2-Amino-4-chlorobenzothiazole", "2-Benzothiazolamine, 4-chloro-", "Benzothiazole, 2-amino-4-chloro-", "4-Chloro-2-benzothiazolamine", "2-Amino-4-chlorobenzothiazole", "4-Chloro-1,3-benzothiazol-2-ylamine", "(4-Chlorobenzothiazol-2-yl)amine", "4-Chloro-1,3-benzothiazol-2-amine", "2-Amino-4-chloro-1,3-benzothiazole", "4-Chlorobenzo[d]thiazol-2-amine"], "SMILES": "ClC1=C2C(SC(N)=N2)=CC=C1", "physical_data": {"Molecular Weight": "184.65", "Molecular Formula": "C7H5ClN2S", "Melting Point": "203 \u00b0C"}}