{"cas_no": "19956-53-7", "cn_name": "LUCIDONE", "en_name": ["Lucidone", "4-Cyclopentene-1,3-dione, 2-[(2E)-1-hydroxy-3-phenyl-2-propenylidene]-4-methoxy-, (2Z)-", "4-Cyclopentene-1,3-dione, 2-(\u03b1-hydroxycinnamylidene)-4-methoxy-", "4-Cyclopentene-1,3-dione, 2-(1-hydroxy-3-phenyl-2-propenylidene)-4-methoxy-, (Z,E)-", "(2Z)-2-[(2E)-1-Hydroxy-3-phenyl-2-propenylidene]-4-methoxy-4-cyclopentene-1,3-dione", "Lucidone"], "SMILES": "C(C=CC1=CC=CC=C1)(O)=C2C(=O)C(OC)=CC2=O", "physical_data": {"Molecular Weight": "256.25", "Molecular Formula": "C15H12O4", "Melting Point": "166.5-168.5 \u00b0C"}}