{"cas_no": "199666-03-0", "cn_name": "RO 61-8048", "en_name": ["3,4-Dimethoxy-N-[4-(3-nitrophenyl)-2-thiazolyl]benzenesulfonamide", "Benzenesulfonamide, 3,4-dimethoxy-N-[4-(3-nitrophenyl)-2-thiazolyl]-", "3,4-Dimethoxy-N-[4-(3-nitrophenyl)-2-thiazolyl]benzenesulfonamide", "Ro 61-8048", "3,4-Dimethoxy-N-[4-(3-nitrophenyl)-1,3-thiazol-2-yl]benzenesulfonamide"], "SMILES": "N(S(=O)(=O)C1=CC(OC)=C(OC)C=C1)C2=NC(=CS2)C3=CC(N(=O)=O)=CC=C3", "physical_data": {"Molecular Weight": "421.45", "Molecular Formula": "C17H15N3O6S2", "Melting Point": "185 \u00b0C"}}