{"cas_no": "1996-41-4", "cn_name": "2-\u6c2f-4-\u6c1f\u82ef\u915a", "en_name": ["2-Chloro-4-fluorophenol", "Phenol, 2-chloro-4-fluoro-", "2-Chloro-4-fluorophenol", "4-Fluoro-2-chlorophenol", "NSC 10273"], "SMILES": "ClC1=C(O)C=CC(F)=C1", "physical_data": {"Molecular Weight": "146.55", "Molecular Formula": "C6H4ClFO", "Boiling Point": "50 \u00b0C @ Press: 1 Torr", "Melting Point": "51-53 \u00b0C", "Density": "1.377 g/cm\u00b3 @ Temp: 19 \u00b0C"}}