{"cas_no": "19962-37-9", "cn_name": "N-2-\u4e59\u9170\u9e1f\u560c\u5464", "en_name": ["N2-Acetylguanine", "Acetamide, N-(6,9-dihydro-6-oxo-1H-purin-2-yl)-", "Acetamide, N-(1,6-dihydro-6-oxopurin-2-yl)-", "Acetamide, N-(6,7-dihydro-6-oxo-1H-purin-2-yl)-", "Guanine, N-acetyl-", "N-(6,9-Dihydro-6-oxo-1H-purin-2-yl)acetamide", "N2-Acetylguanine", "2-N-Acetylguanine", "N-Acetylguanine", "2-Acetylamino-6-hydroxypurine", "2-Acetamido-6-hydroxypurine"], "SMILES": "O=C1C2=C(NC(NC(C)=O)=N1)N=CN2", "physical_data": {"Molecular Weight": "193.16", "Molecular Formula": "C7H7N5O2", "Melting Point": "324 \u00b0C"}}