{"cas_no": "1996-30-1", "cn_name": "3-\u6eb4-4-\u6c1f\u6c2f\u82ef", "en_name": ["2-Bromo-4-chloro-1-fluorobenzene", "Benzene, 2-bromo-4-chloro-1-fluoro-", "2-Bromo-4-chloro-1-fluorobenzene", "4-Chloro-2-bromo-1-fluorobenzene", "2-Bromo-4-chlorofluorobenzene", "5-Chloro-2-fluorobromobenzene", "3-Bromo-1-chloro-4-fluorobenzene", "2-Fluoro-5-chlorobromobenzene", "1-Bromo-2-fluoro-5-chlorobenzene"], "SMILES": "BrC1=C(F)C=CC(Cl)=C1", "physical_data": {"Molecular Weight": "209.44", "Molecular Formula": "C6H3BrClF", "Boiling Point": "90 \u00b0C @ Press: 30 Torr"}}