{"cas_no": "1996-88-9", "cn_name": "2-(\u5168\u6c1f\u8f9b\u57fa)\u4e59\u57fa\u7532\u57fa\u4e19\u70ef\u9178\u916f", "en_name": ["Perfluorooctylethyl methacrylate", "2-Propenoic acid, 2-methyl-, 3,3,4,4,5,5,6,6,7,7,8,8,9,9,10,10,10-heptadecafluorodecyl ester", "Methacrylic acid, 3,3,4,4,5,5,6,6,7,7,8,8,9,9,10,10,10-heptadecafluorodecyl ester", "1-Decanol, 3,3,4,4,5,5,6,6,7,7,8,8,9,9,10,10,10-heptadecafluoro-, methacrylate", "2-(Perfluorooctyl)ethyl methacrylate", "MAE 800", "Viscoat 17FM", "Light Ester FM 108", "M 1820 (ester)", "M 1820", "MAE 600", "Fluowet MAE 600", "1,1,2,2-Tetrahydroperfluorodecyl methacrylate", "3,3,4,4,5,5,6,6,7,7,8,8,9,9,10,10,10-Heptadecafluorodecyl methacrylate", "Cheminox FAMAC", "1H,1H,2H,2H-Perfluorodecyl methacrylate", "Fluowet 812MA", "FMA 8", "F 17MA", "Fluowet MAE 800", "FAMAC", "Cheminox FAMAC 8", "Perfluorooctylethyl methacrylate", "2-Heptadecafluorooctylethyl methacrylate", "3,3,4,4,5,5,6,6,7,7,8,8,9,9,10,10,10-Heptadecafluorodecyl 2-methylprop-2enoate", "1H,1H,2H,2H-Heptadecafluorodecyl methacrylate", "2-(Perfluorooctyl)ethyl methacylate", "2-(Perfluorooctyl)ethyl methacryate", "MAF 17"], "SMILES": "C(C(C(C(C(F)(F)F)(F)F)(F)F)(F)F)(C(C(C(CCOC(C(C)=C)=O)(F)F)(F)F)(F)F)(F)F", "physical_data": {"Molecular Weight": "532.19", "Molecular Formula": "C14H9F17O2", "Boiling Point": "118-122 \u00b0C @ Press: 4 Torr"}}