{"cas_no": "19968-85-5", "cn_name": "\u6c28\u7532\u73af\u5df1\u9187\u76d0\u9178\u76d0", "en_name": ["Cyclohexanol, 1-(aminomethyl)-, hydrochloride (1:1)", "Cyclohexanol, 1-(aminomethyl)-, hydrochloride (1:1)", "Cyclohexanol, 1-(aminomethyl)-, hydrochloride", "1-Aminomethyl-1-cyclohexanol hydrochloride", "1-(Aminomethyl)cyclohexanol hydrochloride"], "SMILES": "C(N)C1(O)CCCCC1.Cl", "physical_data": {"Molecular Weight": "", "Molecular Formula": "C7H15NO.ClH", "Melting Point": "205 \u00b0C"}}