{"cas_no": "19961-27-4", "cn_name": "N-\u4e59\u57fa\u5f02\u4e19\u57fa\u80fa", "en_name": ["N-Ethyl-2-propanamine", "2-Propanamine, N-ethyl-", "Diethylamine, 1-methyl-", "N-Ethyl-2-propanamine", "N-Ethylisopropylamine", "Ethylisopropylamine", "Isopropylethylamine", "2-(Ethylamino)propane", "N-Ethyl-N-isopropylamine", "NSC 165659", "(Ethyl)(1-methylethyl)amine"], "SMILES": "N(C(C)C)CC", "physical_data": {"Molecular Weight": "87.16", "Molecular Formula": "C5H13N", "Boiling Point": "69.6 \u00b0C", "Density": "0.71 g/cm\u00b3 @ Temp: 20 \u00b0C"}}