{"cas_no": "19968-17-3", "cn_name": "4-\u6eb4-3-\u4e09\u6c1f\u7532\u57fa\u5421\u5511", "en_name": ["4-Bromo-3-(trifluoromethyl)-1H-pyrazole", "1H-Pyrazole, 4-bromo-3-(trifluoromethyl)-", "Pyrazole, 4-bromo-3-(trifluoromethyl)-", "4-Bromo-3-(trifluoromethyl)-1H-pyrazole", "4-Bromo-3-trifluoromethyl-1H-pyrazole", "4-Bromo-5-trifluoromethyl-1H-pyrazole"], "SMILES": "C(F)(F)(F)C=1C(Br)=CNN1", "physical_data": {"Molecular Weight": "214.97", "Molecular Formula": "C4H2BrF3N2", "Melting Point": "108 \u00b0C"}}