{"cas_no": "19975-56-5", "cn_name": "2-\u7532\u786b\u57fa-2-\u567b\u5511\u5549", "en_name": ["4,5-Dihydro-2-(methylthio)thiazole", "Thiazole, 4,5-dihydro-2-(methylthio)-", "2-Thiazoline, 2-(methylthio)-", "4,5-Dihydro-2-(methylthio)thiazole", "2-Methylthio-2-thiazoline", "2-(Methylthio)thiazoline", "4,5-Dihydro-2-methylthiothiazole", "NSC 196203", "2-(Methylsulfanyl)-4,5-dihydrothiazole", "2-(Methylthio)-4,5-dihydro-1,3-thiazole", "2-(Methylthio)-4,5-dihydrothiazole", "2-(Methylsulfanyl)-4,5-dihydro-1,3-thiazole", "2-Methylsulfanyl-4,5-dihydro-1,3-thiazole"], "SMILES": "S(C)C1=NCCS1", "physical_data": {"Molecular Weight": "133.24", "Molecular Formula": "C4H7NS2", "Boiling Point": "46 \u00b0C @ Press: 14 Torr"}}