{"cas_no": "19983-44-9", "cn_name": "Stattic", "en_name": ["Stattic", "Benzo[b]thiophene, 6-nitro-, 1,1-dioxide", "6-Nitrobenzo[b]thiophene 1,1-dioxide", "Stattic"], "SMILES": "O=S1(=O)C=2C(C=C1)=CC=C(N(=O)=O)C2", "physical_data": {"Molecular Weight": "211.19", "Molecular Formula": "C8H5NO4S", "Melting Point": "187-188 \u00b0C"}}