{"cas_no": "19984-46-4", "cn_name": "\u54cc\u55ea,1-\u4e09\u73af[3.3.1.1]\u7678-1-\u57fa-", "en_name": ["1-(1-Adamantyl)piperazine", "Piperazine, 1-tricyclo[3.3.1.13,7]dec-1-yl-", "Piperazine, 1-(1-adamantyl)-", "1-Tricyclo[3.3.1.13,7]dec-1-ylpiperazine", "1-(1-Adamantyl)piperazine", "N-1-Adamantylpiperazine", "1-(N-Piperazino)adamantane", "1-(Adamantan-1-yl)piperazine"], "SMILES": "C12(CC3CC(C1)CC(C2)C3)N4CCNCC4", "physical_data": {"Molecular Weight": "220.35", "Molecular Formula": "C14H24N2", "Boiling Point": "148-150 \u00b0C", "Melting Point": "83-85 \u00b0C (sublm)"}}