{"cas_no": "199850-67-4", "cn_name": "N-[(4'-\u6eb4[1,1'-\u8054\u82ef]-4-\u57fa)\u78fa\u9170\u57fa]-L-\u7f2c\u6c28\u9178", "en_name": ["N-[(4\u2032-Bromo[1,1\u2032-biphenyl]-4-yl)sulfonyl]-L-valine", "L-Valine, N-[(4\u2032-bromo[1,1\u2032-biphenyl]-4-yl)sulfonyl]-", "N-[(4\u2032-Bromo[1,1\u2032-biphenyl]-4-yl)sulfonyl]-L-valine", "PD 166793-0000", "PD 166793", "(2S)-2-[[4-(4-Bromophenyl)phenyl]sulfonylamino]-3-methylbutanoic acid", "(S)-2-(4\u2032-Bromobiphenyl-4-ylsulfonamido)-3-methylbutanoic acid"], "SMILES": "S(NC(C(C)C)C(O)=O)(=O)(=O)C1=CC=C(C=C1)C2=CC=C(Br)C=C2", "physical_data": {"Molecular Weight": "412.30", "Molecular Formula": "C17H18BrNO4S", "Melting Point": "192-193 \u00b0C"}}