{"cas_no": "19980-43-9", "cn_name": "1-(\u4e09\u7532\u57fa\u7845\u6c27\u57fa)\u73af\u620a\u70ef", "en_name": ["1-[(Trimethylsilyl)oxy]cyclopentene", "Cyclopentene, 1-[(trimethylsilyl)oxy]-", "Silane, (1-cyclopenten-1-yloxy)trimethyl-", "1-[(Trimethylsilyl)oxy]cyclopentene", "1-(Trimethylsilyloxy)cyclopentene", "1-Cyclopentenyl trimethylsilyl ether", "1-(Trimethylsiloxy)cyclopentene", "1-(Trimethylsilyloxy)-1-cyclopentene", "(1-Cyclopentenyloxy)trimethylsilane", "(1-Cyclopenten-1-yloxy)trimethylsilane", "1-(Trimethylsiloxy)-1-cyclopentene", "Cyclopentanone trimethylsilyl enol ether"], "SMILES": "O([Si](C)(C)C)C=1CCCC1", "physical_data": {"Molecular Weight": "156.30", "Molecular Formula": "C8H16OSi", "Boiling Point": "158-159 \u00b0C", "Density": "0.878 g/cm\u00b3"}}