{"cas_no": "19982-07-1", "cn_name": "1-\u4e59\u9170\u6c28\u57fa-3,5-\u4e8c\u7532\u57fa\u91d1\u521a\u70f7", "en_name": ["1-Acetamido-3,5-dimethyladamantane", "Acetamide, N-(3,5-dimethyltricyclo[3.3.1.13,7]dec-1-yl)-", "Acetamide, N-(3,5-dimethyl-1-adamantyl)-", "N-(3,5-Dimethyltricyclo[3.3.1.13,7]dec-1-yl)acetamide", "1-Acetamido-3,5-dimethyladamantane", "1-Acetylamino-3,5-dimethyladamantane", "N-Acetylmemantine"], "SMILES": "N(C(C)=O)C12CC3(C)CC(C)(C1)CC(C2)C3", "physical_data": {"Molecular Weight": "221.34", "Molecular Formula": "C14H23NO", "Melting Point": "80-82 \u00b0C (sublm)"}}