{"cas_no": "19992-45-1", "cn_name": "4-\u82ef\u57fa-\u73af\u5df1\u57fa\u80fa", "en_name": ["4-Phenylcyclohexylamine", "Cyclohexanamine, 4-phenyl-", "Cyclohexylamine, 4-phenyl-", "4-Phenylcyclohexanamine", "4-Phenylcyclohexylamine", "4-Phenylcyclohexan-1-amine"], "SMILES": "NC1CCC(CC1)C2=CC=CC=C2", "physical_data": {"Molecular Weight": "175.27", "Molecular Formula": "C12H17N", "Boiling Point": "279 \u00b0C @ Press: 760 mmHg"}}