{"cas_no": "1999-00-4", "cn_name": "4-\u6c1f\u82ef\u7532\u9170\u4e59\u9178\u4e59\u916f", "en_name": ["Ethyl 4-fluoro-\u03b2-oxobenzenepropanoate", "Benzenepropanoic acid, 4-fluoro-\u03b2-oxo-, ethyl ester", "Acetic acid, (p-fluorobenzoyl)-, ethyl ester", "Ethyl 4-fluoro-\u03b2-oxobenzenepropanoate", "Ethyl (p-fluorobenzoyl)acetate", "Ethyl \u03b1-(p-fluorobenzoyl)acetate", "Ethyl (4-fluorobenzoyl)acetate", "Ethyl 3-oxo-3-(4-fluorophenyl)propionate", "Ethyl 3-(4-fluorophenyl)-3-oxopropanoate", "Ethyl 2-(4-fluorobenzoyl)acetate", "Ethyl 3-(4-fluorophenyl)-3-oxopropionate", "3-(4-Fluorophenyl)-3-oxopropanoic acid ethyl ester", "Ethyl 2-(p-fluorobenzoyl)acetate", "(4-Fluorobenzoyl)acetic acid ethyl ester"], "SMILES": "C(CC(OCC)=O)(=O)C1=CC=C(F)C=C1", "physical_data": {"Molecular Weight": "210.20", "Molecular Formula": "C11H11FO3", "Boiling Point": "104-105 \u00b0C @ Press: 0.6 Torr"}}