{"cas_no": "1999-33-3", "cn_name": "N\u0391-\u7518\u6c28\u9170-L-\u5929\u51ac\u9170\u80fa\u9178", "en_name": ["Glycyl-L-asparagine", "L-Asparagine, glycyl-", "Asparagine, N2-glycyl-, L-", "L-Asparagine, N2-glycyl-", "Glycyl-L-asparagine", "Glycylasparagine", "N2-Glycylasparagine", "NSC 203810", "222: PN: EP2161028 PAGE: 11 claimed protein", "6: PN: WO2014063098 TABLE: 5 claimed sequence", "8: PN: WO2013001819 SEQID: 16 claimed protein", "127: PN: US20130123467 SEQID: 152 claimed protein", "7: PN: WO2018183671 TABLE: L1 claimed sequence", "22: PN: WO2019144309 SEQID: 25 claimed protein", "(2S)-4-Amino-2-[(2-azaniumylacetyl)amino]-4-oxobutanoate", "27: PN: WO2020113403 TABLE: L1 claimed protein"], "SMILES": "C(NC(CN)=O)(CC(N)=O)C(O)=O", "physical_data": {"Molecular Weight": "189.17", "Molecular Formula": "C6H11N3O4", "Melting Point": "203 \u00b0C (decomp)"}}