{"cas_no": "19992-50-8", "cn_name": "ML329", "en_name": ["4-[(1,4-Dihydro-1,4-dioxo-2-naphthalenyl)amino]benzenesulfonamide", "Benzenesulfonamide, 4-[(1,4-dihydro-1,4-dioxo-2-naphthalenyl)amino]-", "Sulfanilamide, N4-(1,4-dihydro-1,4-dioxo-2-naphthyl)-", "4-[(1,4-Dihydro-1,4-dioxo-2-naphthalenyl)amino]benzenesulfonamide", "ML 329"], "SMILES": "O=C1C=2C(C(=O)C=C1NC3=CC=C(S(N)(=O)=O)C=C3)=CC=CC2", "physical_data": {"Molecular Weight": "328.34", "Molecular Formula": "C16H12N2O4S", "Melting Point": "293-294 \u00b0C (decomp)"}}