{"cas_no": "2000-43-3", "cn_name": "2,2,2-\u4e09\u6c2f-1-\u82ef\u57fa\u4e59\u9187", "en_name": ["2,2,2-Trichloro-1-phenylethanol", "Benzenemethanol, \u03b1-(trichloromethyl)-", "Benzyl alcohol, \u03b1-(trichloromethyl)-", "\u03b1-(Trichloromethyl)benzenemethanol", "Efiran 99", "Phenyl(trichloromethyl)carbinol", "\u03b1-(Trichloromethyl)benzyl alcohol", "2,2,2-Trichloro-1-phenylethanol", "1-Phenyl-2,2,2-trichloroethanol", "NSC 2796", "1,1,1-Trichloro-2-hydroxy-2-phenylethane", "2,2,2-Trichloro-1-phenylethan-1-ol"], "SMILES": "C(C(Cl)(Cl)Cl)(O)C1=CC=CC=C1", "physical_data": {"Molecular Weight": "225.50", "Molecular Formula": "C8H7Cl3O", "Boiling Point": "155-156 \u00b0C @ Press: 150 Torr", "Melting Point": "37 \u00b0C", "Density": "1.464 g/cm\u00b3 @ Temp: 20 \u00b0C"}}