{"cas_no": "20007-72-1", "cn_name": "9-\u7532\u57fa-delta-5(10)-\u8f9b-1,6-\u4e8c\u916e", "en_name": ["(\u00b1)-Wieland-Miescher ketone", "1,6(2H,7H)-Naphthalenedione, 3,4,8,8a-tetrahydro-8a-methyl-", "3,4,8,8a-Tetrahydro-8a-methyl-1,6(2H,7H)-naphthalenedione", "9-Methyl-\u03945,10-octalin-1,6-dione", "9-Methyl-1,6-dioxo-1,2,3,4,6,7,8,9-octahydronaphthalene", "9-Methyl-5(10)-octalin-1,6-dione", "Wieland-Miescher ketone", "MODX", "(\u00b1)-8a-Methyl-1,2,3,4,6,7,8,8a-octahydro-1,6-naphthalenedione", "(R/S)-Wieland-Miescher ketone", "NSC 87581", "(\u00b1)-Wieland-Miescher ketone", "8a-Methyl-3,4,8,8a-tetrahydronaphthalene-1,6(2H,7H)-dione"], "SMILES": "CC12C(=CC(=O)CC1)CCCC2=O", "physical_data": {"Molecular Weight": "178.23", "Molecular Formula": "C11H14O2", "Boiling Point": "106-108 \u00b0C @ Press: 1 x 10<sup>-3</sup> Torr", "Melting Point": "41.5-42.5 \u00b0C"}}