{"cas_no": "20017-68-9", "cn_name": "1\uff0c3-\u4e8c\u6c22-1-\uff081\uff0c2\uff0c3\uff0c6-\u56db\u6c22-4-\u5421\u5576\u57fa\uff09-2\u6c22\u82ef\u54aa\u5511-2-\u916e", "en_name": ["3,3-Diphenylpropyl bromide", "Benzene, 1,1\u2032-(3-bromopropylidene)bis-", "Propane, 3-bromo-1,1-diphenyl-", "1,1\u2032-(3-Bromopropylidene)bis[benzene]", "3,3-Diphenylpropyl bromide", "1-Bromo-3,3-diphenylpropane", "3-Bromo-1,1-diphenylpropane", "3,3-Diphenyl-1-bromopropane", "NSC 72996", "(3-Bromo-1-phenylpropyl)benzene", "(3-Bromopropane-1,1-diyl)dibenzene"], "SMILES": "C(CCBr)(C1=CC=CC=C1)C2=CC=CC=C2", "physical_data": {"Molecular Weight": "275.18", "Molecular Formula": "C15H15Br", "Boiling Point": "145 \u00b0C @ Press: 2 Torr", "Melting Point": "43 \u00b0C"}}