{"cas_no": "20016-85-7", "cn_name": "(R)-2-\u7f9f\u57fa\u4e01\u9178", "en_name": ["(R)-2-Hydroxybutanoic acid", "Butanoic acid, 2-hydroxy-, (2R)-", "Butyric acid, 2-hydroxy-, D-", "Butanoic acid, 2-hydroxy-, (R)-", "(2R)-2-Hydroxybutanoic acid", "D-\u03b1-Hydroxybutyric acid", "D-2-Hydroxybutyric acid", "D-(-)-\u03b1-Hydroxybutyric acid", "(-)-2-Hydroxybutyric acid", "(-)-2-Hydroxy-n-butyric acid", "(-)-2-Hydroxybutanoic acid", "(R)-\u03b1-Hydroxybutyric acid", "(-)-\u03b1-Hydroxybutyric acid", "(R)-2-Hydroxybutyric acid", "(R)-2-Hydroxybutanoic acid", "(2R)-2-Hydroxybutanoic acid", "(R)-2-Hydroxybutyric acid"], "SMILES": "C(C(O)=O)(CC)O", "physical_data": {"Molecular Weight": "104.10", "Molecular Formula": "C4H8O3", "Melting Point": "55-55.5 \u00b0C"}}