{"cas_no": "2001-96-9", "cn_name": "4-\u785d\u57fa\u82ef\u57fa-BETA-D-\u5421\u5583\u6728\u7cd6\u82f7", "en_name": ["p-Nitrophenyl \u03b2-D-xylopyranoside", "\u03b2-D-Xylopyranoside, 4-nitrophenyl", "Xylopyranoside, p-nitrophenyl, \u03b2-D-", "Xylopyranoside, p-nitrophenyl", "4-Nitrophenyl \u03b2-D-xylopyranoside", "p-Nitrophenyl \u03b2-xylopyranoside", "p-Nitrophenyl \u03b2-D-xylopyranoside", "p-Nitrophenyl \u03b2-D-xyloside", "p-Nitrophenol \u03b2-D-xyloside", "NSC 371094"], "SMILES": "O(C1C(O)C(O)C(O)CO1)C2=CC=C(N(=O)=O)C=C2", "physical_data": {"Molecular Weight": "271.22", "Molecular Formula": "C11H13NO7", "Melting Point": "159-161 \u00b0C"}}