{"cas_no": "2001-45-8", "cn_name": "\u56db\u82ef\u57fa\u6c2f\u5316\u81a6", "en_name": ["Tetraphenylphosphonium chloride", "Phosphonium, tetraphenyl-, chloride (1:1)", "Phosphonium, tetraphenyl-, chloride", "Tetraphenylphosphonium chloride", "Chlorotetraphenylphosphorane", "T 1735"], "SMILES": "[P+](C1=CC=CC=C1)(C2=CC=CC=C2)(C3=CC=CC=C3)C4=CC=CC=C4.[Cl-]", "physical_data": {"Molecular Weight": "", "Molecular Formula": "C24H20P.Cl", "Melting Point": "265-267 \u00b0C"}}