{"cas_no": "20017-67-8", "cn_name": "3,3-\u4e8c\u82ef\u57fa\u4e19\u9187", "en_name": ["\u03b3-Phenylbenzenepropanol", "Benzenepropanol, \u03b3-phenyl-", "1-Propanol, 3,3-diphenyl-", "\u03b3-Phenylbenzenepropanol", "3,3-Diphenyl-1-propanol", "3,3-Diphenylpropanol", "NSC 74499", "3,3-Diphenylpropyl alcohol"], "SMILES": "C(CCO)(C1=CC=CC=C1)C2=CC=CC=C2", "physical_data": {"Molecular Weight": "212.29", "Molecular Formula": "C15H16O", "Boiling Point": "152-154 \u00b0C @ Press: 0.3 Torr", "Melting Point": "20-22 \u00b0C"}}