{"cas_no": "20012-63-9", "cn_name": "2-\u82c4\u6c27\u57fa\u82ef\u80fa", "en_name": ["2-Benzyloxyaniline", "Benzenamine, 2-(phenylmethoxy)-", "Aniline, o-(benzyloxy)-", "2-(Phenylmethoxy)benzenamine", "2-Aminophenyl benzyl ether", "o-(Benzyloxy)aniline", "o-Aminophenyl benzyl ether", "O-Benzyl-o-aminophenol", "2-Benzyloxyaniline", "2-(Benzyloxy)phenylamine", "NSC 46882", "2-(Benzyloxy)benzenamine", "2-Phenylmethoxyaniline", "2-(Benzyloxy)aniline"], "SMILES": "O(CC1=CC=CC=C1)C2=C(N)C=CC=C2", "physical_data": {"Molecular Weight": "199.25", "Molecular Formula": "C13H13NO", "Boiling Point": "186-187 \u00b0C @ Press: 13 Torr", "Melting Point": "39-40 \u00b0C"}}