{"cas_no": "2001-93-6", "cn_name": "\u4e8c\u786b\u4ee3\u8132", "en_name": ["2,4-Dithiouracil", "2,4(1H,3H)-Pyrimidinedithione", "Uracil, 2,4-dithio-", "2,4-Dithiouracil", "2,4-Pyrimidinedithiol", "2,4-Dimercaptopyrimidine", "2,4-Dithioxopyrimidine", "Dithiouracil", "NSC 42031", "1,2,3,4-Tetrahydropyrimidine-2,4-dithione", "1H-Pyrimidine-2,4-dithione", "2-Sulfanyl-1,4-dihydropyrimidine-4-thione"], "SMILES": "S=C1NC(=S)NC=C1", "physical_data": {"Molecular Weight": "144.22", "Molecular Formula": "C4H4N2S2", "Melting Point": "&gt;270 \u00b0C (decomp)"}}