{"cas_no": "20013-75-6", "cn_name": "\u7126\u84ec\u83aa\u672f\u916e", "en_name": ["6,7-Dihydro-1,5,8-trimethylnaphtho[2,1-b]furan", "Naphtho[2,1-b]furan, 6,7-dihydro-1,5,8-trimethyl-", "6,7-Dihydro-1,5,8-trimethylnaphtho[2,1-b]furan", "Pyrocurzerenone", "Pyrocurzerenon", "1,5,8-Trimethyl-6H,7H-naphtho[2,1-b]furan"], "SMILES": "CC=1C=2C3=C(C(C)=CC2OC1)CCC(C)=C3", "physical_data": {"Molecular Weight": "212.29", "Molecular Formula": "C15H16O", "Melting Point": "76.5-77.5 \u00b0C"}}