{"cas_no": "2001-32-3", "cn_name": "3-(2-\u785d\u57fa\u82ef\u57fa)\u4e19\u9178", "en_name": ["2-Nitrobenzenepropanoic acid", "Benzenepropanoic acid, 2-nitro-", "Hydrocinnamic acid, o-nitro-", "2-Nitrobenzenepropanoic acid", "3-o-Nitrophenylpropionic acid", "3-(2-Nitrophenyl)propanoic acid", "NSC 99344", "3-(o-Nitrophenyl)propanoic acid"], "SMILES": "C(CC(O)=O)C1=C(N(=O)=O)C=CC=C1", "physical_data": {"Molecular Weight": "195.17", "Molecular Formula": "C9H9NO4", "Boiling Point": "216-220 \u00b0C @ Press: 12 Torr", "Melting Point": "115 \u00b0C"}}