{"cas_no": "2001-29-8", "cn_name": "4-\u6eb4\u82ef\u57fa\u82c4\u57fa\u916e", "en_name": ["1-(4-Bromophenyl)-2-phenylethanone", "Ethanone, 1-(4-bromophenyl)-2-phenyl-", "Acetophenone, 4\u2032-bromo-2-phenyl-", "1-(4-Bromophenyl)-2-phenylethanone", "4-Bromodeoxybenzoin", "4\u2032-Bromo-2-phenylacetophenone", "p-Bromophenyl benzyl ketone", "4-Bromodesoxybenzoin", "4-Bromophenyl benzyl ketone", "Benzyl 4-bromophenyl ketone", "Benzyl p-bromophenyl ketone", "1-(4-Bromophenyl)-2-phenylethan-1-one"], "SMILES": "C(CC1=CC=CC=C1)(=O)C2=CC=C(Br)C=C2", "physical_data": {"Molecular Weight": "275.14", "Molecular Formula": "C14H11BrO", "Boiling Point": "165 \u00b0C @ Press: 3 Torr", "Melting Point": "113.5-115 \u00b0C"}}