{"cas_no": "200132-54-3", "cn_name": "O-\u70ef\u4e19\u57fa-N-(9-\u84bd\u7532\u57fa)\u6eb4\u5316\u91d1\u9e21\u7eb3\u78b1", "en_name": ["Cinchonanium, 1-(9-anthracenylmethyl)-9-(2-propenyloxy)-, bromide, (8\u03b1,9R)-", "Cinchonanium, 1-(9-anthracenylmethyl)-9-(2-propenyloxy)-, bromide, (8\u03b1,9R)-", "O(9)-Allyl-N-9-anthracenylcinchonidinium bromide", "O-Allyl-1-(anthracen-9-ylmethyl)cinchonidinium bromide", "O-Allyl-N-[(9-anthracenyl)methyl]cinchonidium bromide", "O(9)-Allyl-N-9-anthracenylmethylcinchonidium bromide", "O-Allyl-N-(9-anthracenylmethyl)cinchoninium bromide"], "SMILES": "C([N+]12C(C(OCC=C)C=3C4=C(N=CC3)C=CC=C4)CC(C(C=C)C1)CC2)C=5C6=C(C=C7C5C=CC=C7)C=CC=C6.[Br-]", "physical_data": {"Molecular Weight": "", "Molecular Formula": "C37H37N2O.Br", "Melting Point": "169-172 \u00b0C"}}