{"cas_no": "20029-52-1", "cn_name": "4-\u73af\u5df1\u57fa\u82ef\u7532\u9178", "en_name": ["4-Cyclohexylbenzoic acid", "Benzoic acid, 4-cyclohexyl-", "Benzoic acid, p-cyclohexyl-", "4-Cyclohexylbenzoic acid", "p-Cyclohexylbenzoic acid", "4-Cyclohexylphenylcarboxylic acid", "NSC 126462"], "SMILES": "C(O)(=O)C1=CC=C(C=C1)C2CCCCC2", "physical_data": {"Molecular Weight": "204.26", "Molecular Formula": "C13H16O2", "Melting Point": "196 \u00b0C"}}