{"cas_no": "2002-24-6", "cn_name": "\u4e59\u9187\u80fa\u76d0\u9178\u76d0", "en_name": ["Ethanolamine hydrochloride", "Ethanol, 2-amino-, hydrochloride (1:1)", "Ethanol, 2-amino-, hydrochloride", "Ethanolamine hydrochloride", "Monoethanolamine hydrochloride", "2-Aminoethanol hydrochloride", "MEA hydrochloride", "\u03b2-Aminoethanol hydrochloride", "Ethanolamine chloride", "Colamine hydrochloride", "Monoethanolaminium chloride"], "SMILES": "C(CO)N.Cl", "physical_data": {"Molecular Weight": "", "Molecular Formula": "C2H7NO.ClH", "Melting Point": "82-86 \u00b0C"}}