{"cas_no": "20020-02-4", "cn_name": "1,2,3,4-\u56db\u6c2f\u8418", "en_name": ["1,2,3,4-Tetrachloronaphthalene", "Naphthalene, 1,2,3,4-tetrachloro-", "1,2,3,4-Tetrachloronaphthalene", "TCN", "PCN 27", "NSC 524443"], "SMILES": "ClC=1C2=C(C(Cl)=C(Cl)C1Cl)C=CC=C2", "physical_data": {"Molecular Weight": "265.95", "Molecular Formula": "C10H4Cl4", "Melting Point": "199 \u00b0C"}}