{"cas_no": "20028-68-6", "cn_name": "2,4,6-\u4e09\u6c2f\u55b9\u5511\u5549", "en_name": ["2,4,6-Trichloroquinazoline", "Quinazoline, 2,4,6-trichloro-", "2,4,6-Trichloroquinazoline"], "SMILES": "ClC=1C2=C(N=C(Cl)N1)C=CC(Cl)=C2", "physical_data": {"Molecular Weight": "233.48", "Molecular Formula": "C8H3Cl3N2", "Boiling Point": "230-240 \u00b0C @ Press: 15 Torr", "Melting Point": "131 \u00b0C"}}