{"cas_no": "2002-44-0", "cn_name": "PRO-LEU-GLY AMIDE;MIF-I;OXYTOCIN FRAGMENT 7-9", "en_name": ["L-Prolyl-L-leucylglycinamide", "Glycinamide, L-prolyl-L-leucyl-", "2-Pyrrolidinecarboxamide, N-[1-[(carbamoylmethyl)carbamoyl]-3-methylbutyl]-", "L-Prolyl-L-leucylglycinamide", "L-Proline-L-leucine-glycine-amide", "Pro-Leu-Gly-NH2", "H-Pro-Leu-Gly-NH2", "Melanocyte-stimulating hormone release-inhibiting factor I (ox)", "L-Prolyl-L-leucylglycylamide", "L-Prolyl-L-leucyl-glycine amide", "MSH-release inhibiting factor I", "Melanocyte-stimulating hormone release-inhibiting factor I", "Prolylleucylglycine amide", "Prolyleucyl-glycinamide", "Melanostatin I (ox)", "MIF-I", "MIF-1", "Oxytocin C-terminal tripeptide", "7-9-Oxytocin", "26: PN: US6093797 PAGE: 15 claimed protein", "27: PN: US6093797 PAGE: 15 claimed protein", "2: PN: WO2009039992 PAGE: 107 claimed protein", "Melanocyte-stimulating hormone release-inhibiting factor 1"], "SMILES": "C(NC(=O)C1CCCN1)(C(NCC(N)=O)=O)CC(C)C", "physical_data": {"Molecular Weight": "284.35", "Molecular Formula": "C13H24N4O3", "Melting Point": "122-123 \u00b0C"}}