{"cas_no": "2002-04-2", "cn_name": "2-\u6c28\u57fa-5-(4-\u5421\u5576\u57fa)-1,3,4-\u567b\u91cd\u6c2e", "en_name": ["5-(Pyridin-4-yl)-1,3,4-thiadiazol-2-amine", "1,3,4-Thiadiazol-2-amine, 5-(4-pyridinyl)-", "Pyridine, 4-(5-amino-1,3,4-thiadiazol-2-yl)-", "5-(4-Pyridinyl)-1,3,4-thiadiazol-2-amine", "5-(4-Pyridyl)-2-amino-1,3,4-thiadiazole", "5-(Pyridin-4-yl)-1,3,4-thiadiazol-2-amine", "2-Amino-5-(4-pyridinyl)-1,3,4-thiadiazole"], "SMILES": "NC=1SC(=NN1)C=2C=CN=CC2", "physical_data": {"Molecular Weight": "178.21", "Molecular Formula": "C7H6N4S", "Melting Point": "240-241 \u00b0C (decomp)"}}