{"cas_no": "2002-22-4", "cn_name": "2-\u786b\u4ee3\u7ec4\u6c28\u9178", "en_name": ["(\u03b1S)-\u03b1-Amino-2,3-dihydro-2-thioxo-1H-imidazole-4-propanoic acid", "1H-Imidazole-4-propanoic acid, \u03b1-amino-2,3-dihydro-2-thioxo-, (\u03b1S)-", "Histidine, 2-mercapto-, L-", "1H-Imidazole-4-propanoic acid, \u03b1-amino-2,3-dihydro-2-thioxo-, (S)-", "(\u03b1S)-\u03b1-Amino-2,3-dihydro-2-thioxo-1H-imidazole-4-propanoic acid", "L-2-Mercaptohistidine", "L-Thiohistidine", "2-Mercapto-L-histidine", "L-2-Thiolhistidine", "L-2-Thioxohistidine", "(2S)-2-Azaniumyl-3-(2-sulfanylidene-1,3-dihydroimidazol-4-yl)propanoate", "(S)-2-Amino-3-(2-thioxo-2,3-dihydro-1H-imidazol-4-yl)propanoic acid", "2-Mercaptohistidine"], "SMILES": "C(C(C(O)=O)N)C1=CNC(=S)N1", "physical_data": {"Molecular Weight": "187.22", "Molecular Formula": "C6H9N3O2S", "Melting Point": "314 \u00b0C (decomp)"}}