{"cas_no": "20031-21-4", "cn_name": "1,2-O-\u5f02\u4e9a\u4e19\u57fa-alpha-D-\u544b\u5583\u6728\u7cd6", "en_name": ["1,2-O-Isopropylidene-\u03b1-D-xylofuranose", "\u03b1-D-Xylofuranose, 1,2-O-(1-methylethylidene)-", "Xylofuranose, 1,2-O-isopropylidene-, \u03b1-D-", "Xylofuranose, 1,2-O-isopropylidene-", "Furo[2,3-d]-1,3-dioxole, \u03b1-D-xylofuranose deriv.", "1,2-O-(1-Methylethylidene)-\u03b1-D-xylofuranose", "1,2-O-Isopropylidene-\u03b1-D-xylofuranose", "1,2-O-Isopropylidene-D-xylofuranose", "1,2-Di-O-isopropylidene-\u03b1-D-xylofuranose"], "SMILES": "OC1C2C(OC1CO)OC(C)(C)O2", "physical_data": {"Molecular Weight": "190.19", "Molecular Formula": "C8H14O5", "Boiling Point": "150-151 \u00b0C @ Press: 760 Torr", "Melting Point": "40-41 \u00b0C"}}