{"cas_no": "20033-99-2", "cn_name": "2-\u7f9f\u7532\u57fa-5-\u7532\u6c27\u57fa\u82ef\u5e76\u54aa\u5511", "en_name": ["6-Methoxy-1H-benzimidazole-2-methanol", "1H-Benzimidazole-2-methanol, 6-methoxy-", "2-Benzimidazolemethanol, 5-methoxy-", "1H-Benzimidazole-2-methanol, 5-methoxy-", "2-Benzimidazolemethanol, 5(or 6)-methoxy-", "6-Methoxy-1H-benzimidazole-2-methanol", "(6-Methoxy-1H-benzimidazol-2-yl)methanol", "(5-Methoxy-1H-benzoimidazol-2-yl)-methanol", "(5-Methoxy-1H-1,3-benzodiazol-2-yl)methanol"], "SMILES": "C(O)C=1NC=2C(N1)=CC=C(OC)C2", "physical_data": {"Molecular Weight": "178.19", "Molecular Formula": "C9H10N2O2", "Melting Point": "190-191 \u00b0C"}}