{"cas_no": "20034-02-0", "cn_name": "(6-\u7532\u57fa-1H-\u82ef\u5e76\u54aa\u5511-2-\u57fa)\u7532\u9187", "en_name": ["6-Methyl-1H-benzimidazole-2-methanol", "1H-Benzimidazole-2-methanol, 6-methyl-", "2-Benzimidazolemethanol, 5-methyl-", "1H-Benzimidazole-2-methanol, 5-methyl-", "2-Benzimidazolemethanol, 5(or 6)-methyl-", "6-Methyl-1H-benzimidazole-2-methanol", "(5-Methyl-1H-benzimidazol-2-yl)methanol", "(6-Methyl-1H-1,3-benzodiazol-2-yl)methanol", "(5-Methyl-1H-1,3-benzodiazol-2-yl)methanol", "(6-Methyl-1H-benzimidazol-2-yl)methanol"], "SMILES": "C(O)C=1NC=2C(N1)=CC(C)=CC2", "physical_data": {"Molecular Weight": "162.19", "Molecular Formula": "C9H10N2O", "Melting Point": "203 \u00b0C"}}