{"cas_no": "2003-10-3", "cn_name": "2-\u6eb4-1-(3-(\u4e09\u6c1f\u7532\u57fa)\u82ef\u57fa)\u4e59\u916e", "en_name": ["2-Bromo-1-[3-(trifluoromethyl)phenyl]ethanone", "Ethanone, 2-bromo-1-[3-(trifluoromethyl)phenyl]-", "Acetophenone, 2-bromo-3\u2032-(trifluoromethyl)-", "2-Bromo-1-[3-(trifluoromethyl)phenyl]ethanone", "\u03b1-Bromo-3\u2032-(trifluoromethyl)acetophenone", "2-Bromo-3\u2032-(trifluoromethyl)acetophenone", "m-(Trifluoromethyl)phenacyl bromide", "3-(Trifluoromethyl)phenacyl bromide", "\u03b1-Bromo-m-(trifluoromethyl)acetophenone", "\u03b1-Bromo-3-(trifluoromethyl)acetophenone", "2-Bromo-1-(3-trifluoromethylphenyl)ethanone", "2-Bromo-1-(3-trifluoromethylphenyl)-1-ethanone"], "SMILES": "C(CBr)(=O)C1=CC(C(F)(F)F)=CC=C1", "physical_data": {"Molecular Weight": "267.04", "Molecular Formula": "C9H6BrF3O", "Boiling Point": "85-90 \u00b0C @ Press: 1.2 Torr"}}