{"cas_no": "2004-03-7", "cn_name": "6-\u7532\u57fa\u560c\u5464", "en_name": ["6-Methylpurine", "9H-Purine, 6-methyl-", "Purine, 6-methyl-", "1H-Purine, 6-methyl-", "6-Methyl-9H-purine", "6-Methylpurine", "NSC 407198"], "SMILES": "CC1=C2C(=NC=N1)N=CN2", "physical_data": {"Molecular Weight": "134.14", "Molecular Formula": "C6H6N4", "Melting Point": "235-236 \u00b0C"}}