{"cas_no": "2004-39-9", "cn_name": "\u4e8c\u5341\u4e03\u70f7\u9187", "en_name": ["1-Heptacosanol", "1-Heptacosanol", "Heptacosanol", "n-Heptacosanol", "NSC 53829"], "SMILES": "C(CCCCCCCCCCCCCO)CCCCCCCCCCCCC", "physical_data": {"Molecular Weight": "396.73", "Molecular Formula": "C27H56O", "Melting Point": "81-83 \u00b0C"}}