{"cas_no": "2004-70-8", "cn_name": "\u53cd-1,3-\u620a\u4e8c\u70ef", "en_name": ["trans-1,3-Pentadiene", "1,3-Pentadiene, (3E)-", "1,3-Pentadiene, (E)-", "Piperylene, trans-", "(3E)-1,3-Pentadiene", "trans-1,3-Pentadiene", "trans-Piperylene", "trans-1-Methylbutadiene", "(E)-1,3-Pentadiene", "trans-1-Methyl-1,3-butadiene", "1,3-trans-Pentadiene", "(E)-Piperylene", "NSC 73901"], "SMILES": "C(C=C)=CC", "physical_data": {"Molecular Weight": "68.12", "Molecular Formula": "C5H8", "Boiling Point": "42 \u00b0C", "Melting Point": "-87.5 \u00b0C", "Density": "0.6710 g/cm\u00b3 @ Temp: 25 \u00b0C"}}