{"cas_no": "2004-04-8", "cn_name": "\u5fb7\u5938\u83cc\u7d20", "en_name": ["4\u2032,5\u2032-Didehydro-1\u2032-C-(hydroxymethyl)adenosine", "Adenosine, 4\u2032,5\u2032-didehydro-1\u2032-C-(hydroxymethyl)-", "Adenine, 9-(6-deoxy-\u03b2-D-erythro-hex-5-enulofuranosyl)-", "9H-Purin-6-amine, 9-(6-deoxy-\u03b2-D-erythro-hex-5-en-2-ulofuranosyl)-", "Decoyinin", "Angustomycin A", "4\u2032,5\u2032-Didehydro-1\u2032-C-(hydroxymethyl)adenosine", "Antibiotic A 14", "Angustmycin A", "Decoyinine", "5,6-Psicofuranosenyladenine", "Wugufengsu", "Wugufengin", "Guvermectin"], "SMILES": "C(O)C1(C(O)C(O)C(=C)O1)N2C=3C(N=C2)=C(N)N=CN3", "physical_data": {"Molecular Weight": "279.25", "Molecular Formula": "C11H13N5O4", "Melting Point": "160-162 \u00b0C"}}