{"cas_no": "2004-07-1", "cn_name": "6-\u6c2f\u9e1f\u560c\u5464\u6838\u82f7", "en_name": ["2-Amino-6-chloropurine riboside", "9H-Purin-2-amine, 6-chloro-9-\u03b2-D-ribofuranosyl-", "9H-Purine, 2-amino-6-chloro-9-\u03b2-D-ribofuranosyl-", "6-Chloro-9-\u03b2-D-ribofuranosyl-9H-purin-2-amine", "2-Amino-6-chloropurine ribonucleoside", "NSC 44586", "2-Amino-6-chloro-9-\u03b2-D-ribofuranosylpurine", "2-Amino-6-chloropurine riboside", "6-Chloroguanosine"], "SMILES": "ClC1=C2C(N(C=N2)C3OC(CO)C(O)C3O)=NC(N)=N1", "physical_data": {"Molecular Weight": "301.69", "Molecular Formula": "C10H12ClN5O4", "Melting Point": "171-172 \u00b0C (decomp)"}}