{"cas_no": "2005-10-9", "cn_name": "6H-\u82ef\u5e76[C]\u82ef\u5e76\u5421\u5583-6-\u916e", "en_name": ["6H-Dibenzo[b,d]pyran-6-one", "6H-Dibenzo[b,d]pyran-6-one", "2-Biphenylcarboxylic acid, 2\u2032-hydroxy-, \u03b4-lactone", "2-Biphenylcarboxylic acid, 2\u2032-hydroxy-, lactone", "3,4-Benzocoumarin", "6-Dibenzopyrone", "2-Hydroxy-2\u2032-carboxydiphenyllactone", "Benzo[c]coumarin", "2\u2032-Hydroxy-2-biphenylcarboxylic acid lactone", "Dibenzo[b,d]pyrone", "NSC 407876", "6H-Benzo[c]chromen-6-one", "Urolithin H"], "SMILES": "O=C1C=2C(C=3C(O1)=CC=CC3)=CC=CC2", "physical_data": {"Molecular Weight": "196.20", "Molecular Formula": "C13H8O2", "Boiling Point": "360 \u00b0C", "Melting Point": "94 \u00b0C"}}