{"cas_no": "20059-73-8", "cn_name": "4-[2-(\u4e8c\u7532\u57fa\u6c28\u57fa)\u4e59\u6c27\u57fa]\u82c4\u80fa", "en_name": ["4-[2-(Dimethylamino)ethoxy]benzenemethanamine", "Benzenemethanamine, 4-[2-(dimethylamino)ethoxy]-", "Benzylamine, p-[2-(dimethylamino)ethoxy]-", "4-[2-(Dimethylamino)ethoxy]benzenemethanamine", "NSC 37857", "4-[2-(Dimethylamino)ethoxy]benzylamine", "2-[4-(Aminomethyl)phenoxy]-N,N-dimethylethanamine", "[2-(4-Aminomethyl-phenoxy)-ethyl]-dimethyl-amine", "[4-[2-(Dimethylamino)ethoxy]phenyl]methanamine", "[2-[(4-Aminomethylphenyl)oxy]ethyl]dimethylamine", "2-[4-(Aminomethyl)phenoxy]-N,N-dimethylethan-1-amine"], "SMILES": "O(CCN(C)C)C1=CC=C(CN)C=C1", "physical_data": {"Molecular Weight": "194.27", "Molecular Formula": "C11H18N2O", "Boiling Point": "120-123 \u00b0C @ Press: 0.3 Torr"}}