{"cas_no": "200575-15-1", "cn_name": "4-[2-\u4e59\u6c27\u57fa-5-(4-\u7532\u57fa-1-\u54cc\u55ea\u57fa\u78fa\u9170\u57fa)\u82ef\u7532\u9170\u80fa\u57fa]-1-\u7532\u57fa-3-\u4e19\u57fa-1H-\u5421\u5511-5-\u7532\u9170\u80fa", "en_name": ["4-[[2-Ethoxy-5-[(4-methyl-1-piperazinyl)sulfonyl]benzoyl]amino]-1-methyl-3-propyl-1H-pyrazole-5-carboxamide", "1H-Pyrazole-5-carboxamide, 4-[[2-ethoxy-5-[(4-methyl-1-piperazinyl)sulfonyl]benzoyl]amino]-1-methyl-3-propyl-", "4-[[2-Ethoxy-5-[(4-methyl-1-piperazinyl)sulfonyl]benzoyl]amino]-1-methyl-3-propyl-1H-pyrazole-5-carboxamide", "4-[2-Ethoxy-5-(4-methyl-1-piperazinylsulfonyl)benzamido]-1-methyl-3-propyl-1H-pyrazole-5-carboxamide"], "SMILES": "N(C(=O)C1=C(OCC)C=CC(S(=O)(=O)N2CCN(C)CC2)=C1)C=3C(CCC)=NN(C)C3C(N)=O", "physical_data": {"Molecular Weight": "492.59", "Molecular Formula": "C22H32N6O5S", "Melting Point": "208-210 \u00b0C"}}