{"cas_no": "20056-92-2", "cn_name": "\u987a-7-\u5341\u4e8c\u70ef-1-\u9187", "en_name": ["(Z)-7-Dodecen-1-ol", "7-Dodecen-1-ol, (7Z)-", "7-Dodecen-1-ol, (Z)-", "(7Z)-7-Dodecen-1-ol", "cis-7-Dodecen-1-ol", "(Z)-7-Dodecen-1-ol", "(Z)-7-Dodecenyl alcohol"], "SMILES": "C(C=CCCCC)CCCCCO", "physical_data": {"Molecular Weight": "184.32", "Molecular Formula": "C12H24O", "Boiling Point": "270.1 \u00b0C"}}