{"cas_no": "200575-16-2", "cn_name": "5-\u6c2f\u78fa\u9170\u57fa-2-\u4e59\u6c27\u57fa\u82ef\u7532\u9178", "en_name": ["5-(Chlorosulfonyl)-2-ethoxybenzoic acid", "Benzoic acid, 5-(chlorosulfonyl)-2-ethoxy-", "5-(Chlorosulfonyl)-2-ethoxybenzoic acid", "5-Chlorosulfonyl-2-ethoxybenzoic acid"], "SMILES": "C(O)(=O)C1=C(OCC)C=CC(S(Cl)(=O)=O)=C1", "physical_data": {"Molecular Weight": "264.68", "Molecular Formula": "C9H9ClO5S", "Melting Point": "115-116 \u00b0C"}}