{"cas_no": "2005-08-5", "cn_name": "\u82ef\u7532\u9178-4-\u6c2f\u82ef\u916f", "en_name": ["Benzoic acid, 4-chlorophenyl ester", "Benzoic acid, 4-chlorophenyl ester", "Benzoic acid, p-chlorophenyl ester", "Phenol, p-chloro-, benzoate", "p-Chlorophenol benzoate", "p-Chlorophenyl benzoate", "4-Chlorophenyl benzoate", "NSC 406605"], "SMILES": "C(OC1=CC=C(Cl)C=C1)(=O)C2=CC=CC=C2", "physical_data": {"Molecular Weight": "232.66", "Molecular Formula": "C13H9ClO2", "Melting Point": "87-87.5 \u00b0C"}}