{"cas_no": "20053-88-7", "cn_name": "\u8131\u6c22\u82b3\u6a1f\u9187", "en_name": ["Hotrienol", "1,5,7-Octatrien-3-ol, 3,7-dimethyl-, (3R,5E)-", "1,5,7-Octatrien-3-ol, 3,7-dimethyl-, (E)-(R)-(-)-", "1,5,7-Octatrien-3-ol, 3,7-dimethyl-, [R-(E)]-", "(3R,5E)-3,7-Dimethyl-1,5,7-octatrien-3-ol", "Hotrienol, trans-(-)-", "(-)-trans-Khotrienol", "Hotrienol", "trans-(-)-Hotrienol"], "SMILES": "C(CC=CC(C)=C)(C=C)(C)O", "physical_data": {"Molecular Weight": "152.23", "Molecular Formula": "C10H16O", "Boiling Point": "80-84 \u00b0C @ Press: 15 Torr"}}