{"cas_no": "20069-09-4", "cn_name": "\u835c\u8307\u9170\u80fa", "en_name": ["Piperlongumine", "2(1H)-Pyridinone, 5,6-dihydro-1-[(2E)-1-oxo-3-(3,4,5-trimethoxyphenyl)-2-propen-1-yl]-", "2(1H)-Pyridone, 5,6-dihydro-1-(3,4,5-trimethoxycinnamoyl)-", "2(1H)-Pyridinone, 5,6-dihydro-1-[1-oxo-3-(3,4,5-trimethoxyphenyl)-2-propenyl]-, (E)-", "2(1H)-Pyridinone, 5,6-dihydro-1-[(2E)-1-oxo-3-(3,4,5-trimethoxyphenyl)-2-propenyl]-", "5,6-Dihydro-1-[(2E)-1-oxo-3-(3,4,5-trimethoxyphenyl)-2-propen-1-yl]-2(1H)-pyridinone", "Piperlongumine", "Piplartine", "Piplartin"], "SMILES": "O(C)C1=C(OC)C(OC)=CC(C=CC(=O)N2C(=O)C=CCC2)=C1", "physical_data": {"Molecular Weight": "317.34", "Molecular Formula": "C17H19NO5", "Melting Point": "124 \u00b0C"}}