{"cas_no": "20063-89-2", "cn_name": "DL-\u6c2e\u6742\u73af\u4e01\u70f7-2-\u7fa7\u9178", "en_name": ["(\u00b1)-2-Azetidinecarboxylic acid", "2-Azetidinecarboxylic acid", "DL-2-Azetidinecarboxylic acid", "(\u00b1)-2-Azetidinecarboxylic acid"], "SMILES": "C(O)(=O)C1CCN1", "physical_data": {"Molecular Weight": "101.10", "Molecular Formula": "C4H7NO2", "Melting Point": "217 \u00b0C (decomp)"}}