{"cas_no": "20063-92-7", "cn_name": "\u53cd\u5f0f-3-\u58ec\u70ef", "en_name": ["(3E)-3-Nonene", "3-Nonene, (3E)-", "3-Nonene, (E)-", "(3E)-3-Nonene", "trans-3-Nonene", "(E)-3-Nonene", "\u03b3-trans-Nonene", "NSC 97534"], "SMILES": "C(CCCC)C=CCC", "physical_data": {"Molecular Weight": "126.24", "Molecular Formula": "C9H18", "Boiling Point": "147.5 \u00b0C"}}