{"cas_no": "20074-79-7", "cn_name": "4-\u6c28\u57fa\u82c4\u57fa\u78f7\u9178\u4e8c\u4e59\u916f", "en_name": ["Diethyl (4-aminobenzyl)phosphonate", "Phosphonic acid, P-[(4-aminophenyl)methyl]-, diethyl ester", "Phosphonic acid, (p-aminobenzyl)-, diethyl ester", "Phosphonic acid, [(4-aminophenyl)methyl]-, diethyl ester", "DABP", "Diethyl (4-aminobenzyl)phosphonate", "Diethyl (p-aminobenzyl)phosphonate", "NSC 84194", "(4-Aminobenzyl)phosphonic acid diethyl ester"], "SMILES": "C(P(OCC)(OCC)=O)C1=CC=C(N)C=C1", "physical_data": {"Molecular Weight": "243.24", "Molecular Formula": "C11H18NO3P", "Melting Point": "93-95 \u00b0C"}}