{"cas_no": "20075-26-7", "cn_name": "1-(\u7532\u6c27\u57fa\u7532\u57fa)-1H-\u54aa\u5511", "en_name": ["1-(Methoxymethyl)-1H-imidazole", "1H-Imidazole, 1-(methoxymethyl)-", "Imidazole, 1-(methoxymethyl)-", "1-(Methoxymethyl)-1H-imidazole", "1-(Methoxymethyl)imidazole", "N-(Methoxymethyl)imidazole"], "SMILES": "C(OC)N1C=CN=C1", "physical_data": {"Molecular Weight": "112.13", "Molecular Formula": "C5H8N2O", "Boiling Point": "77-80 \u00b0C @ Press: 1 Torr"}}