{"cas_no": "2008-58-4", "cn_name": "2,6-\u4e8c\u6c2f\u82ef\u7532\u9170\u80fa", "en_name": ["2,6-Dichlorobenzamide", "Benzamide, 2,6-dichloro-", "2,6-Dichlorobenzamide", "BAM", "2,6-BAM", "NSC 53137", "AE-C 653711"], "SMILES": "C(N)(=O)C1=C(Cl)C=CC=C1Cl", "physical_data": {"Molecular Weight": "190.03", "Molecular Formula": "C7H5Cl2NO", "Melting Point": "198-200 \u00b0C", "Density": "1.52 g/cm\u00b3"}}