{"cas_no": "2008-39-1", "cn_name": "2,4-\u4e8c\u6c2f\u82ef\u6c27\u4e59\u9178\u4e8c\u7532\u80fa\u76d0", "en_name": ["Aminol", "Acetic acid, 2-(2,4-dichlorophenoxy)-, compd. with N-methylmethanamine (1:1)", "Acetic acid, (2,4-dichlorophenoxy)-, compd. with dimethylamine (1:1)", "Acetic acid, (2,4-dichlorophenoxy)-, compd. with N-methylmethanamine (1:1)", "Acetic acid, (2,4-dichlorophenoxy)-, compd. with Me2NH", "Acetic acid, (2,4-dichlorophenoxy)-, salt with Me2NH", "Dimethylamine, (2,4-dichlorophenoxy)acetate", "Methanamine, N-methyl-, (2,4-dichlorophenoxy)acetate", "(2,4-Dichlorophenoxy)acetic acid dimethylamine", "2,4-D dimethylamine salt", "2,4-D dimethylamine", "Dimethylammonium (2,4-dichlorophenoxy)acetate", "(2,4-Dichlorophenoxy)acetic acid dimethylamine salt", "Hormin", "2,4-D Amine salt", "Bladex G", "2,4-D amine", "Phordene", "Formula 40", "2,4-D DMA", "Monosan", "DMA 4", "DMA 4 (pesticide)", "Aminol", "Aminol (herbicide)", "Weedar 96", "Farmco D 50", "D 50 (pesticide)", "D 50", "Aminopielik 39", "Brabant 2,4-D amine", "Dikamin D", "Spraygraze", "U 46D Fluid", "Shirweed 500", "Spritz-Hormin", "Amisol", "Weedar 64", "Clean Crop 2,4-D Amine 500", "Wilbur-Ellis 2,4-D Amine 500", "Aminopielik 600SL", "DMA 6", "Aminopielek 720", "Amicide", "Amin'a", "Aminopielik Standard 4600SL", "Aminopielik Standard 600SL", "Aminopielik Standard", "Luvaram", "Agro D amine", "Cornox amine", "DMA 806BR", "Savage", "Depitox", "Agrisolution", "Herboxon", "2,4-D dimethylammonium salt", "Weedar", "WAM 40", "Base Camp Amine 4", "WEEDestroy AM-40", "DMA 4 IVM", "2,4-Dichlorophenoxyacetic acid dimethylamine salt", "Sculpin G"], "SMILES": "O(CC(O)=O)C1=C(Cl)C=C(Cl)C=C1.N(C)C", "physical_data": {"Molecular Weight": "", "Molecular Formula": "C8H6Cl2O3.C2H7N", "Melting Point": "85-87 \u00b0C"}}