{"cas_no": "2008-75-5", "cn_name": "1-(2-\u6c2f\u4e59\u57fa)\u54cc\u5576\u76d0\u9178\u76d0", "en_name": ["1-(2-Chloroethyl)piperidine hydrochloride", "Piperidine, 1-(2-chloroethyl)-, hydrochloride (1:1)", "Piperidine, 1-(2-chloroethyl)-, hydrochloride", "N-(\u03b2-Chloroethyl)piperidine hydrochloride", "1-Chloro-2-piperidinoethane hydrochloride", "2-Piperidinoethyl chloride hydrochloride", "1-(2-Chloroethyl)piperidine hydrochloride", "N-(2-Chloroethyl)piperidine hydrochloride", "2-Piperidino-1-chloroethane hydrochloride", "2-(Piperidin-1-yl)ethyl chloride hydrochloride", "1-(2-Chloroethyl)piperidine monohydrochloride", "2-(1-Piperidinyl)-1-chloroethane hydrochloride", "1-(2-Chloroethyl)piperidinium chloride", "1-Chloro-2-(1-piperidinyl)ethane monohydrochloride"], "SMILES": "C(CCl)N1CCCCC1.Cl", "physical_data": {"Molecular Weight": "", "Molecular Formula": "C7H14ClN.ClH", "Boiling Point": "196 \u00b0C", "Melting Point": "231 \u00b0C"}}