{"cas_no": "20086-06-0", "cn_name": "\u9ec4\u836f\u5b50\u7d20 B", "en_name": ["Diosbulbin B", "4H-3a,6:7,10-Dimethanofuro[2,3-c]oxepino[4,5-e]oxepin-4,8(6H)-dione, 2-(3-furanyl)octahydro-11b-methyl-, (2R,3aS,6S,6aS,7R,10R,11aR,11bS)-", "4H-3a,6:7,10-Dimethanofuro[2,3-c]oxepino[4,5-e]oxepin-4,8(6H)-dione, 2-(3-furanyl)octahydro-11b-methyl-, [2R-(2\u03b1,3a\u03b2,6\u03b2,6a\u03b2,7\u03b2,10\u03b2,11a\u03b1,11b\u03b2)]-", "Diosbulbin B", "(2R,3aS,6S,6aS,7R,10R,11aR,11bS)-2-(3-Furanyl)octahydro-11b-methyl-4H-3a,6:7,10-dimethanofuro[2,3-c]oxepino[4,5-e]oxepin-4,8(6H)-dione"], "SMILES": "CC12C3(CC(OC3=O)C4C1CC5CC4C(=O)O5)OC(C2)C=6C=COC6", "physical_data": {"Molecular Weight": "344.36", "Molecular Formula": "C19H20O6", "Melting Point": "285 \u00b0C"}}