{"cas_no": "20082-71-7", "cn_name": "\u4e94\u6c1f\u82ef\u57fa\u4e8c\u7532\u57fa\u6c2f\u7845\u70f7", "en_name": ["Chlorodimethyl(pentafluorophenyl)silane", "Benzene, 1-(chlorodimethylsilyl)-2,3,4,5,6-pentafluoro-", "Silane, chlorodimethyl(pentafluorophenyl)-", "1-(Chlorodimethylsilyl)-2,3,4,5,6-pentafluorobenzene", "Flophemesyl chloride", "Chlorodimethyl(pentafluorophenyl)silane", "(Pentafluorophenyl)dimethylchlorosilane", "(Pentafluorophenyl)dimethylsilyl chloride"], "SMILES": "[Si](C)(C)(Cl)C1=C(F)C(F)=C(F)C(F)=C1F", "physical_data": {"Molecular Weight": "260.66", "Molecular Formula": "C8H6ClF5Si", "Boiling Point": "88-90 \u00b0C @ Press: 10 Torr", "Density": "1.367 g/cm\u00b3 @ Temp: 25 \u00b0C"}}