{"cas_no": "20086-07-1", "cn_name": "\u9ec4\u836f\u5b50\u7d20 C", "en_name": ["(2R,3aS,6S,6aS,7R,9R,10aR,10bS)-2-(3-Furanyl)decahydro-9-hydroxy-10b-methyl-4-oxo-4H-3a,6-methanofuro[2,3-d][2]benzoxepin-7-carboxylic acid", "4H-3a,6-Methanofuro[2,3-d][2]benzoxepin-7-carboxylic acid, 2-(3-furanyl)decahydro-9-hydroxy-10b-methyl-4-oxo-, (2R,3aS,6S,6aS,7R,9R,10aR,10bS)-", "4H-3a,6-Methanofuro[2,3-d][2]benzoxepin-7-carboxylic acid, 2-(3-furanyl)decahydro-9-hydroxy-10b-methyl-4-oxo-, [2R-(2\u03b1,3a\u03b2,6\u03b2,6a\u03b2,7\u03b1,9\u03b1,10a\u03b1,10b\u03b2)]-", "Diosbulbin C", "(2R,3aS,6S,6aS,7R,9R,10aR,10bS)-2-(3-Furanyl)decahydro-9-hydroxy-10b-methyl-4-oxo-4H-3a,6-methanofuro[2,3-d][2]benzoxepin-7-carboxylic acid"], "SMILES": "CC12C3(CC(OC3=O)C4C1CC(O)CC4C(O)=O)OC(C2)C=5C=COC5", "physical_data": {"Molecular Weight": "362.37", "Molecular Formula": "C19H22O7", "Melting Point": "247-250 \u00b0C"}}