{"cas_no": "2008-41-5", "cn_name": "\u4e01\u8349\u7279", "en_name": ["Butylate", "Carbamothioic acid, N,N-bis(2-methylpropyl)-, S-ethyl ester", "Carbamic acid, diisobutylthio-, S-ethyl ester", "Carbamothioic acid, bis(2-methylpropyl)-, S-ethyl ester", "Ethyl N,N-diisobutylthiocarbamate", "Ethyl-N,N-diisobutyl thiolcarbamate", "Stauffer R 1910", "R 1910", "Butylate", "Sutan", "S-Ethyl diisobutylthiocarbamate", "S-Ethyl N,N-diisobutylthiolcarbamate", "S-Ethyl N,N-diisobutylthiocarbamate", "Butilate", "Diisocarb", "Anelda"], "SMILES": "N(C(SCC)=O)(CC(C)C)CC(C)C", "physical_data": {"Molecular Weight": "217.37", "Molecular Formula": "C11H23NOS", "Boiling Point": "137.5-138 \u00b0C @ Press: 21 Torr", "Melting Point": "&lt;25 \u00b0C", "Density": "0.9402 g/cm\u00b3 @ Temp: 25 \u00b0C"}}