{"cas_no": "2009-24-7", "cn_name": "\u82b1\u6912\u6bd2\u9187", "en_name": ["Xanthotoxol", "7H-Furo[3,2-g][1]benzopyran-7-one, 9-hydroxy-", "Xanthotoxol", "5-Benzofuranacrylic acid, 6,7-dihydroxy-, \u03b4-lactone", "9-Hydroxy-7H-furo[3,2-g][1]benzopyran-7-one", "Psoralen, 8-hydroxy-", "2-Propenoic acid, 3-(6,7-dihydroxy-5-benzofuranyl)-, \u03b4-lactone", "8-Hydroxypsoralen", "NSC 401269", "Xanthotol"], "SMILES": "OC=1C2=C(C=C3C1OC=C3)C=CC(=O)O2", "physical_data": {"Molecular Weight": "202.16", "Molecular Formula": "C11H6O4", "Melting Point": "246 \u00b0C"}}