{"cas_no": "200936-87-4", "cn_name": "Boc-L-\u4eae\u6c28\u9178\u4e00\u6c34\u5408\u7269", "en_name": ["Boc-Leu-OH monohydrate", "L-Leucine, N-[(1,1-dimethylethoxy)carbonyl]-, hydrate (1:1)", "L-Leucine, N-[(1,1-dimethylethoxy)carbonyl]-, monohydrate", "Boc-Leu-OH monohydrate", "(S)-2-((tert-Butoxycarbonyl)amino)-4-methylpentanoic acid hydrate"], "SMILES": "C(NC(OC(C)(C)C)=O)(CC(C)C)C(O)=O.O", "physical_data": {"Molecular Weight": "", "Molecular Formula": "C11H21NO4.H2O", "Melting Point": "74 \u00b0C"}}