{"cas_no": "20098-14-0", "cn_name": "5-\u7f9f\u57fa-2-\u91d1\u521a\u70f7\u916e", "en_name": ["5-Hydroxy-2-adamantanone", "Tricyclo[3.3.1.13,7]decan-2-one, 5-hydroxy-", "2-Adamantanone, 5-hydroxy-", "Tricyclo[3.3.1.13,7]decanone, 5-hydroxy-", "5-Hydroxytricyclo[3.3.1.13,7]decan-2-one", "5-Hydroxy-2-adamantanone", "4-Oxo-1-adamantanol", "5-Hydroxyadamantanone", "1-Hydroxy-4-adamantanone", "1-Hydroxy-4-ketoadamantane", "Kemantane", "Idramantone", "Kemantan"], "SMILES": "OC12CC3C(=O)C(C1)CC(C2)C3", "physical_data": {"Molecular Weight": "166.22", "Molecular Formula": "C10H14O2", "Melting Point": "318 \u00b0C"}}