{"cas_no": "20098-20-8", "cn_name": "5-\u6eb4-2-\u91d1\u521a\u916e", "en_name": ["5-Bromo-2-adamantanone", "Tricyclo[3.3.1.13,7]decan-2-one, 5-bromo-", "2-Adamantanone, 5-bromo-", "Tricyclo[3.3.1.13,7]decanone, 5-bromo-", "5-Bromotricyclo[3.3.1.13,7]decan-2-one", "5-Bromo-2-adamantanone", "1-Bromoadamantan-4-one", "(\u00b1)-5-Bromoadamantan-2-one"], "SMILES": "BrC12CC3C(=O)C(C1)CC(C2)C3", "physical_data": {"Molecular Weight": "229.11", "Molecular Formula": "C10H13BrO", "Melting Point": "150-152 \u00b0C"}}