{"cas_no": "20098-48-0", "cn_name": "1,2,3-\u4e09\u6c2f-5-\u785d\u57fa\u82ef", "en_name": ["1,2,3-Trichloro-5-nitrobenzene", "Benzene, 1,2,3-trichloro-5-nitro-", "1,2,3-Trichloro-5-nitrobenzene", "3,4,5-Trichloronitrobenzene", "NSC 523881", "3,4,5-Trichloro-1-nitrobenzene", "5-Nitro-1,2,3-trichlorobenzene"], "SMILES": "N(=O)(=O)C1=CC(Cl)=C(Cl)C(Cl)=C1", "physical_data": {"Molecular Weight": "226.44", "Molecular Formula": "C6H2Cl3NO2", "Melting Point": "72.5 \u00b0C"}}