{"cas_no": "2009-83-8", "cn_name": "6-\u6c2f-1-\u5df1\u9187", "en_name": ["6-Chloro-1-hexanol", "1-Hexanol, 6-chloro-", "6-Chloro-1-hexanol", "1-Chloro-6-hexanol", "6-Chlorohexanol", "Hexamethylene chlorohydrin", "\u03c9-Chlorohexanol", "1-Chloro-6-hydroxyhexane", "NSC 3700"], "SMILES": "C(CCCO)CCCl", "physical_data": {"Molecular Weight": "136.62", "Molecular Formula": "C6H13ClO", "Boiling Point": "102.7 \u00b0C @ Press: 11 Torr", "Melting Point": "102 \u00b0C", "Density": "1.0241 g/cm\u00b3 @ Temp: 20 \u00b0C"}}