{"cas_no": "20099-89-2", "cn_name": "2-\u6eb4-4'-\u6c30\u57fa\u82ef\u4e59\u916e", "en_name": ["4-Cyanophenacyl bromide", "Benzonitrile, 4-(2-bromoacetyl)-", "Benzonitrile, p-(bromoacetyl)-", "Benzonitrile, 4-(bromoacetyl)-", "4-(2-Bromoacetyl)benzonitrile", "\u03b1-Bromo-4-cyanoacetophenone", "p-Cyanophenacyl bromide", "p-Cyano-\u03b1-bromoacetophenone", "p-Cyano-\u03c9-bromoacetophenone", "4-(Bromoacetyl)benzonitrile", "4-Cyanophenacyl bromide", "2-Bromo-4\u2032-cyanoacetophenone", "2-Bromo-p-cyanoacetophenone", "4-(2\u2032-Bromoacetyl)benzonitrile", "NSC 157569", "2-Bromo-1-(4-cyanophenyl)ethanone"], "SMILES": "C(CBr)(=O)C1=CC=C(C#N)C=C1", "physical_data": {"Molecular Weight": "224.05", "Molecular Formula": "C9H6BrNO", "Melting Point": "92-94 \u00b0C"}}