{"cas_no": "2010-61-9", "cn_name": "\u516d\u6c1f-2-(\u5bf9\u7532\u82ef\u57fa)\u5f02\u4e19\u9187", "en_name": ["4-Methyl-\u03b1,\u03b1-bis(trifluoromethyl)benzenemethanol", "Benzenemethanol, 4-methyl-\u03b1,\u03b1-bis(trifluoromethyl)-", "p-Cymen-8-ol, 9,9,9,10,10,10-hexafluoro-", "4-Methyl-\u03b1,\u03b1-bis(trifluoromethyl)benzenemethanol", "1,1,1,3,3,3-Hexafluoro-2-p-tolyl-2-propanol", "1,1,1,3,3,3-Hexafluoro-2-(4-methylphenyl)-2-propanol", "4-(2-Hydroxyhexafluoro-2-propyl)toluene", "2-(p-Tolyl)-1,1,1,3,3,3-hexafluoro-2-propanol", "2-(4-Methylphenyl)-1,1,1,3,3,3-hexafluoropropan-2-ol", "Hexafluoro-2-(p-tolyl)-2-propanol"], "SMILES": "C(C(F)(F)F)(C(F)(F)F)(O)C1=CC=C(C)C=C1", "physical_data": {"Molecular Weight": "258.16", "Molecular Formula": "C10H8F6O", "Boiling Point": "69-70 \u00b0C @ Press: 6 Torr", "Density": "1.4166 g/cm\u00b3 @ Temp: 20 \u00b0C"}}