{"cas_no": "2010-15-3", "cn_name": "\u82ef\u57fa\u4e59\u5185\u9170\u8132-\u7518\u6c28\u9178", "en_name": ["Phenylthiohydantoin", "4-Imidazolidinone, 3-phenyl-2-thioxo-", "Hydantoin, 3-phenyl-2-thio-", "3-Phenyl-2-thioxo-4-imidazolidinone", "3-Phenyl-2-thiohydantoin", "Phenylthiohydantoin", "3-N-Phenyl-2-thiohydantoin", "Glycine phenylthiohydantoin", "Glycine, 3-phenyl-2-thiohydantoin", "PTH-Glycine", "4-Oxo-3-phenylimidazolidine-2-thione", "3-(Phenyl)thiohydantoin", "1-Phenyl-2-sulfanyl-4,5-dihydro-1H-imidazol-5-one", "3-Phenyl-2-sulfanylideneimidazolidin-4-one"], "SMILES": "O=C1N(C(=S)NC1)C2=CC=CC=C2", "physical_data": {"Molecular Weight": "192.24", "Molecular Formula": "C9H8N2OS", "Melting Point": "240-242 \u00b0C"}}