{"cas_no": "20103-09-7", "cn_name": "2,5-\u4e8c-\u6c2f-1,4-\u82ef\u4e8c\u80fa", "en_name": ["2,5-Dichloro-1,4-benzenediamine", "1,4-Benzenediamine, 2,5-dichloro-", "p-Phenylenediamine, 2,5-dichloro-", "2,5-Dichloro-1,4-benzenediamine", "2,5-Diamino-1,4-dichlorobenzene", "2,5-Dichloro-p-phenylenediamine", "2,5-Dichloro-1,4-phenylenediamine", "4-Amino-2,5-dichloroaniline", "2,5-Dichloro-1,4-diaminobenzene", "1,4-Diamino-2,5-dichlorobenzene", "2,5-Dichloro-1,4-p-phenylenediamine"], "SMILES": "ClC1=C(N)C=C(Cl)C(N)=C1", "physical_data": {"Molecular Weight": "177.03", "Molecular Formula": "C6H6Cl2N2", "Melting Point": "170 \u00b0C"}}