{"cas_no": "2010-06-2", "cn_name": "2-\u6c28\u57fa-4-\u82ef\u57fa\u567b\u5511", "en_name": ["2-Amino-4-phenylthiazole", "2-Thiazolamine, 4-phenyl-", "Thiazole, 2-amino-4-phenyl-", "4-Phenyl-2-thiazolamine", "2-Amino-4-phenylthiazole", "4-Phenyl-2-aminothiazole", "4-Phenyl-2-thiazolylamine", "4-Phenyl-1,3-thiazol-2-ylamine", "NSC 2528", "2-Amino-4-phenyl-1,3-thiazole", "4-Phenyl-1,3-thiazol-2-amine"], "SMILES": "NC1=NC(=CS1)C2=CC=CC=C2", "physical_data": {"Molecular Weight": "176.24", "Molecular Formula": "C9H8N2S", "Melting Point": "152.5 \u00b0C"}}