{"cas_no": "201004-46-8", "cn_name": "N2-[(9H-\u82b4-9-\u57fa\u7532\u6c27\u57fa)\u7fb0\u57fa]-N6-(1-\u6c27\u4ee3\u5341\u516d\u70f7\u57fa)-L-\u8d56\u6c28\u9178", "en_name": ["N2-[(9H-Fluoren-9-ylmethoxy)carbonyl]-N6-(1-oxohexadecyl)-L-lysine", "L-Lysine, N2-[(9H-fluoren-9-ylmethoxy)carbonyl]-N6-(1-oxohexadecyl)-", "N2-[(9H-Fluoren-9-ylmethoxy)carbonyl]-N6-(1-oxohexadecyl)-L-lysine", "(2S)-2-(9H-Fluoren-9-ylmethoxycarbonylamino)-6-(hexadecanoylamino)hexanoic acid"], "SMILES": "C(OC(NC(CCCCNC(CCCCCCCCCCCCCCC)=O)C(O)=O)=O)C1C=2C(C=3C1=CC=CC3)=CC=CC2", "physical_data": {"Molecular Weight": "606.84", "Molecular Formula": "C37H54N2O5", "Melting Point": "138-139 \u00b0C"}}