{"cas_no": "2011-67-8", "cn_name": "\u785d\u7532\u897f\u6cee", "en_name": ["Nimetazepam", "2H-1,4-Benzodiazepin-2-one, 1,3-dihydro-1-methyl-7-nitro-5-phenyl-", "1,3-Dihydro-1-methyl-7-nitro-5-phenyl-2H-1,4-benzodiazepin-2-one", "Nimetazepam", "S 1530", "1-Methyl-5-phenyl-7-nitro-1,3-dihydro-2H-1,4-benzodiazepin-2-one", "Ro 5-3453", "N-Methylmogadon", "Methylnitrazepam", "Elimin", "N-Methylnitrazepam", "Erimin", "1-Methylnitrazepam", "Nimetazam", "Hypnon", "1-Methyl-7-nitro-5-phenyl-1H-1,4-benzodiazepin-2(3H)-one", "1-Methyl-7-nitro-5-phenyl-3H-1,4-benzodiazepin-2-one"], "SMILES": "CN1C=2C(C(=NCC1=O)C3=CC=CC=C3)=CC(N(=O)=O)=CC2", "physical_data": {"Molecular Weight": "295.29", "Molecular Formula": "C16H13N3O3", "Melting Point": "7.5-156.5 \u00b0C"}}