{"cas_no": "2011-48-5", "cn_name": "(4-\u7532\u6c27\u82ef\u57fa)\u80bc\u76d0\u9178\u76d0", "en_name": ["Hydrazine, [(4-methoxyphenyl)methyl]-, hydrochloride (1:1)", "Hydrazine, [(4-methoxyphenyl)methyl]-, hydrochloride (1:1)", "Hydrazine, [(4-methoxyphenyl)methyl]-, monohydrochloride", "Hydrazine, (p-methoxybenzyl)-, hydrochloride", "(4-Methoxybenzyl)hydrazine hydrochloride", "[(4-Methoxyphenyl)methyl]hydrazine hydrochloride", "1-(4-Methoxybenzyl)hydrazine hydrochloride"], "SMILES": "C(NN)C1=CC=C(OC)C=C1.Cl", "physical_data": {"Molecular Weight": "", "Molecular Formula": "C8H12N2O.ClH", "Melting Point": "194-195 \u00b0C (decomp)"}}