{"cas_no": "20112-79-2", "cn_name": "2-(\u7532\u786b\u57fa)-2-\u54aa\u5511\u5549", "en_name": ["2-(Methylthio)-2-imidazoline", "1H-Imidazole, 4,5-dihydro-2-(methylthio)-", "2-Imidazoline, 2-(methylthio)-", "4,5-Dihydro-2-(methylthio)-1H-imidazole", "2-Methylmercapto-4,5-dihydroimidazole", "2-(Methylmercapto)-2-imidazoline", "2-(Methylmercapto)-1-imidazoline", "2-(Methylthio)-2-imidazoline", "2-(Methylthio)-4,5-dihydroimidazole", "2-(Methylthio)-4,5-dihydro-1H-imidazole", "2-(Methylsulfanyl)-4,5-dihydro-1H-imidazole"], "SMILES": "S(C)C=1NCCN1", "physical_data": {"Molecular Weight": "116.18", "Molecular Formula": "C4H8N2S", "Melting Point": "100-102 \u00b0C"}}