{"cas_no": "2011-66-7", "cn_name": "2-\u6c28\u57fa-5-\u785d\u57fa-2'-\u6c2f\u4e8c\u82ef\u7532\u916e", "en_name": ["2-Amino-5-nitro-2\u2032-chlorobenzophenone", "Methanone, (2-amino-5-nitrophenyl)(2-chlorophenyl)-", "Benzophenone, 2-amino-2\u2032-chloro-5-nitro-", "(2-Amino-5-nitrophenyl)(2-chlorophenyl)methanone", "2-Amino-2\u2032-chloro-5-nitrobenzophenone", "2-Amino-5-nitro-2\u2032-chlorobenzophenone"], "SMILES": "C(=O)(C1=CC(N(=O)=O)=CC=C1N)C2=C(Cl)C=CC=C2", "physical_data": {"Molecular Weight": "276.68", "Molecular Formula": "C13H9ClN2O3", "Melting Point": "118-120 \u00b0C"}}