{"cas_no": "2011-70-3", "cn_name": "5 -\u785d\u57fa- 2 -(\u6eb4\u4e59\u9170\u6c28\u57fa)\u4e8c\u82ef\u7532\u916e", "en_name": ["N-(2-Benzoyl-4-nitrophenyl)-2-bromoacetamide", "Acetamide, N-(2-benzoyl-4-nitrophenyl)-2-bromo-", "Acetanilide, 2\u2032-benzoyl-2-bromo-4\u2032-nitro-", "N-(2-Benzoyl-4-nitrophenyl)-2-bromoacetamide", "5-Nitro-2-(bromoacetamido)benzophenone"], "SMILES": "C(=O)(C1=C(NC(CBr)=O)C=CC(N(=O)=O)=C1)C2=CC=CC=C2", "physical_data": {"Molecular Weight": "363.16", "Molecular Formula": "C15H11BrN2O4", "Melting Point": "155-156 \u00b0C"}}