{"cas_no": "2012-74-0", "cn_name": "\u03b1-\u5f02\u4e19\u57fa\u5bf9\u6c2f\u82ef\u57fa\u4e59\u9178", "en_name": ["2-(4-Chlorophenyl)-3-methylbutyric acid", "Benzeneacetic acid, 4-chloro-\u03b1-(1-methylethyl)-", "Butyric acid, 2-(p-chlorophenyl)-3-methyl-", "4-Chloro-\u03b1-(1-methylethyl)benzeneacetic acid", "4-Chloro-\u03b1-isopropylphenylacetic acid", "2-(p-Chlorophenyl)-3-methylbutyric acid", "2-(4-Chlorophenyl)isovaleric acid", "2-(4-Chlorophenyl)-3-methylbutanoic acid", "2-(4-Chlorophenyl)-3-methylbutyric acid", "4-Chloro-\u03b1-isopropylbenzeneacetic acid", "(\u00b1)-2-(p-Chlorophenyl)-3-methylbutyric acid", "(\u00b1)-\u03b1-Isopropyl-4-chlorophenylacetic acid", "(\u00b1)-2-(4-Chlorophenyl)-3-methylbutanoic acid", "(\u00b1)-2-(4-Chlorophenyl)isovaleric acid", "dl-2-(4-Chlorophenyl)-3-methylbutyric acid", "(RS)-2-(4-Chlorophenyl)-3-methylbutyric acid", "(\u00b1)-2-(4-Chlorophenyl)-3-methylbutyric acid", "Racemic fenvaleric acid", "(\u00b1)-Fenvaleric acid", "(RS)-Fenvaleric acid"], "SMILES": "C(C(C)C)(C(O)=O)C1=CC=C(Cl)C=C1", "physical_data": {"Molecular Weight": "212.67", "Molecular Formula": "C11H13ClO2", "Melting Point": "89-90 \u00b0C"}}