{"cas_no": "20120-24-5", "cn_name": "3-(4-MORPHOLINO)\u4e19\u9178\u4e59\u916f", "en_name": ["Ethyl 3-(4-morpholino)propionate", "4-Morpholinepropanoic acid, ethyl ester", "4-Morpholinepropionic acid, ethyl ester", "NSC 36187", "Ethyl 3-morpholinopropanoate", "Ethyl 3-(4-morpholino)propionate", "Ethyl 3-(morpholin-4-yl)propanoate", "4-[2-(Ethoxycarbonyl)ethyl]morpholine", "3-(Morpholin-4-yl)propionic acid ethyl ester"], "SMILES": "C(CC(OCC)=O)N1CCOCC1", "physical_data": {"Molecular Weight": "187.24", "Molecular Formula": "C9H17NO3", "Boiling Point": "112 \u00b0C @ Press: 9 Torr", "Melting Point": "129-130 \u00b0C", "Density": "1.0380 g/cm\u00b3 @ Temp: 20 \u00b0C"}}