{"cas_no": "20123-80-2", "cn_name": "\u7f9f\u82ef\u78fa\u9178\u9499", "en_name": ["Calcium dobesilate", "Benzenesulfonic acid, 2,5-dihydroxy-, calcium salt (2:1)", "Hydroquinone calcium sulfonate", "Calcium bis(2,5-dihydroxybenzenesulfonate)", "Calcium dobesilate", "Calcium p-dihydroxybenzenesulfonate", "Doxium", "Dobesilate calcium", "2,5-Dihydroxybenzenesulfonic acid calcium salt", "Calcium 2,5-dihydroxybenzenesulfonate", "205E", "Dobesilate calcium salt", "Hydroquinone calcium sulfate", "Dexium"], "SMILES": "S(=O)(=O)(O)C1=C(O)C=CC(O)=C1.[Ca]", "physical_data": {"Molecular Weight": "", "Molecular Formula": "C6H6O5S.<sup>1</sup>/2Ca", "Melting Point": "&gt;300 \u00b0C (decomp)"}}