{"cas_no": "20120-21-2", "cn_name": "3-\u4e8c\u7532\u6c28\u57fa\u4e19\u9178\u4e59\u916f", "en_name": ["\u03b2-Alanine, N,N-dimethyl-, ethyl ester", "\u03b2-Alanine, N,N-dimethyl-, ethyl ester", "N,N-Dimethyl-\u03b2-alanine ethyl ester", "Ethyl 3-(N,N-dimethylamino)propionate", "Ethyl \u03b2-(dimethylamino)propionate", "Ethyl 3-(dimethylamino)propionate", "Ethyl 3-(dimethylamino)propanoate", "NSC 73176", "\u03b2-Dimethylaminopropionic acid ethyl ester"], "SMILES": "C(CCN(C)C)(OCC)=O", "physical_data": {"Molecular Weight": "145.20", "Molecular Formula": "C7H15NO2", "Boiling Point": "256-257 \u00b0C @ Press: 1 Torr"}}