{"cas_no": "2012-81-9", "cn_name": "\u03b1-\u5f02\u4e19\u57fa\u5bf9\u6c2f\u82ef\u57fa\u4e59\u8148", "en_name": ["4-Chloro-\u03b1-(1-methylethyl)benzeneacetonitrile", "Benzeneacetonitrile, 4-chloro-\u03b1-(1-methylethyl)-", "Butyronitrile, 2-(p-chlorophenyl)-3-methyl-", "4-Chloro-\u03b1-(1-methylethyl)benzeneacetonitrile", "2-(p-Chlorophenyl)-3-methylbutyronitrile", "4-Chloro-\u03b1-isopropylbenzyl cyanide", "2-(4-Chlorophenyl)-3-methylbutyronitrile", "3-Methyl-2-(4\u2032-chlorophenyl)-butyronitrile", "2-(4-Chlorophenyl)-3-methylbutanenitrile", "3-Methyl-2-(4-chlorophenyl)butyronitrile"], "SMILES": "C(C(C)C)(C#N)C1=CC=C(Cl)C=C1", "physical_data": {"Molecular Weight": "193.67", "Molecular Formula": "C11H12ClN", "Boiling Point": "109 \u00b0C @ Press: 0.8 Torr"}}