{"cas_no": "201286-64-8", "cn_name": "3,5-\u4e8c\u7532\u57fa\u5421\u5576-4-\u7532\u919b", "en_name": ["3,5-Dimethyl-4-pyridinecarboxaldehyde", "4-Pyridinecarboxaldehyde, 3,5-dimethyl-", "3,5-Dimethyl-4-pyridinecarboxaldehyde", "3,5-Dimethylpyridine-4-carbaldehyde"], "SMILES": "C(=O)C=1C(C)=CN=CC1C", "physical_data": {"Molecular Weight": "135.16", "Molecular Formula": "C8H9NO", "Melting Point": "67-67.8 \u00b0C"}}