{"cas_no": "20126-59-4", "cn_name": "\u9999\u53f6\u6728\u7d20-7-O-\u0392-D-\u8461\u8404\u7cd6\u82f7", "en_name": ["Diosmetin 7-O-\u03b2-D-glucoside", "4H-1-Benzopyran-4-one, 7-(\u03b2-D-glucopyranosyloxy)-5-hydroxy-2-(3-hydroxy-4-methoxyphenyl)-", "Flavone, 3\u2032,5,7-trihydroxy-4\u2032-methoxy-, 7-\u03b2-D-glucopyranoside", "Diosmetin, 7-\u03b2-D-glucopyranoside", "Glucopyranoside, diosmetin-7, \u03b2-D-", "7-(\u03b2-D-Glucopyranosyloxy)-5-hydroxy-2-(3-hydroxy-4-methoxyphenyl)-4H-1-benzopyran-4-one", "Diosmetol 7-glucoside", "7-\u03b2-D-Glucopyranosyldiosmetol", "Diosmetin 7-O-\u03b2-D-glucopyranoside", "Diosmetin 7-O-glucoside", "7-O-\u03b2-D-Glucopyranosyl-3\u2032,5-dihydroxy-4\u2032-methoxyflavone", "Diosmetin 7-glucoside", "Diosmetin 7-O-\u03b2-glucoside", "Diosmetin 7-O-\u03b2-D-glucoside", "7-O-(\u03b2-D-Glucopyranosyl)diosmetine", "Eridictiol", "Thalassiolin D aglycon"], "SMILES": "O=C1C=2C(OC(=C1)C3=CC(O)=C(OC)C=C3)=CC(OC4OC(CO)C(O)C(O)C4O)=CC2O", "physical_data": {"Molecular Weight": "462.40", "Molecular Formula": "C22H22O11", "Melting Point": "253-255 \u00b0C"}}