{"cas_no": "20125-84-2", "cn_name": "\u987a\u5f0f-3-\u8f9b\u70ef-1-\u9187", "en_name": ["cis-3-Octen-1-ol", "3-Octen-1-ol, (3Z)-", "3-Octen-1-ol, (Z)-", "(3Z)-3-Octen-1-ol", "(Z)-3-Octen-1-ol", "cis-3-Octen-1-ol", "cis-3-Octene-1-ol"], "SMILES": "C(CCCC)=CCCO", "physical_data": {"Molecular Weight": "128.21", "Molecular Formula": "C8H16O", "Boiling Point": "95-96 \u00b0C @ Press: 15 Torr"}}