{"cas_no": "20133-21-5", "cn_name": "\u56db\u5def\u57fa\u82ef", "en_name": ["1,2,4,5-Benzenetetrathiol", "1,2,4,5-Benzenetetrathiol", "1,2,4,5-Tetramercaptobenzene"], "SMILES": "SC1=C(S)C=C(S)C(S)=C1", "physical_data": {"Molecular Weight": "206.37", "Molecular Formula": "C6H6S4", "Melting Point": "139-141 \u00b0C"}}