{"cas_no": "2013-12-9", "cn_name": "D-\u6b63\u7f2c\u6c28\u9178", "en_name": ["D-Norvaline", "D-Norvaline", "Norvaline, D-", "(R)-Norvaline", "D-\u03b1-Aminovaleric acid", "(R)-2-Aminopentanoic acid", "(2R)-2-Aminopentanoic acid"], "SMILES": "C(CCC)(C(O)=O)N", "physical_data": {"Molecular Weight": "117.15", "Molecular Formula": "C5H11NO2", "Melting Point": "223-224 \u00b0C"}}