{"cas_no": "20133-19-1", "cn_name": "1-(3,4-\u4e8c\u7532\u6c27\u57fa\u82ef\u57fa)\u4e19\u70f7-1,2-\u4e8c\u9187", "en_name": ["1-(3,4-Dimethoxyphenyl)-1,2-propanediol", "1,2-Propanediol, 1-(3,4-dimethoxyphenyl)-", "1-(3,4-Dimethoxyphenyl)-1,2-propanediol", "Methyl isoeugenol glycol", "1-(3,4-Dimethoxyphenyl)propane-1,2-diol"], "SMILES": "C(C(C)O)(O)C1=CC(OC)=C(OC)C=C1", "physical_data": {"Molecular Weight": "212.24", "Molecular Formula": "C11H16O4", "Melting Point": "124-126 \u00b0C"}}