{"cas_no": "20137-37-5", "cn_name": "\u94c1\u51ac\u9752\u9178", "en_name": ["Rotundic acid", "Urs-12-en-28-oic acid, 3,19,23-trihydroxy-, (3\u03b2,4\u03b1)-", "Urs-12-en-28-oic acid, 3\u03b2,19,23-trihydroxy-", "(3\u03b2,4\u03b1)-3,19,23-Trihydroxyurs-12-en-28-oic acid", "Rotundic acid", "3\u03b2,19\u03b1,23-Trihydroxyurs-12-en-28-oic acid", "22-Deoxyilexolic acid A"], "SMILES": "C(O)(=O)C12C(C=3C(C)(CC1)C4(C)C(CC3)C5(C)C(CC4)C(CO)(C)C(O)CC5)C(C)(O)C(C)CC2", "physical_data": {"Molecular Weight": "488.70", "Molecular Formula": "C30H48O5", "Melting Point": "272-274 \u00b0C (decomp)"}}