{"cas_no": "20139-55-3", "cn_name": "4-\u6c2f-2-\u7532\u57fa-N-\u4e59\u9170\u4e59\u9170\u82ef\u80fa", "en_name": ["N-(4-Chloro-2-methylphenyl)-3-oxobutanamide", "Butanamide, N-(4-chloro-2-methylphenyl)-3-oxo-", "o-Acetoacetotoluidide, 4\u2032-chloro-", "N-(4-Chloro-2-methylphenyl)-3-oxobutanamide", "NSC 87579"], "SMILES": "N(C(CC(C)=O)=O)C1=C(C)C=C(Cl)C=C1", "physical_data": {"Molecular Weight": "225.67", "Molecular Formula": "C11H12ClNO2", "Melting Point": "102 \u00b0C"}}