{"cas_no": "2014-83-7", "cn_name": "2,6-\u4e8c\u6c2f\u6c2f\u82c4", "en_name": ["2,6-Dichlorobenzyl chloride", "Benzene, 1,3-dichloro-2-(chloromethyl)-", "Toluene, \u03b1,2,6-trichloro-", "1,3-Dichloro-2-(chloromethyl)benzene", "2,6-Dichlorobenzyl chloride", "\u03b1,2,6-Trichlorotoluene", "2-Chloromethyl-1,3-dichlorobenzene", "(2,6-Dichlorophenyl)methyl chloride", "NSC 86116"], "SMILES": "C(Cl)C1=C(Cl)C=CC=C1Cl", "physical_data": {"Molecular Weight": "195.47", "Molecular Formula": "C7H5Cl3", "Boiling Point": "135 \u00b0C", "Melting Point": "39-40 \u00b0C"}}