{"cas_no": "2015-56-7", "cn_name": "\u8054\u82ef\u57fa\u6c28\u57fa\u78f7\u9178\u916f", "en_name": ["Phosphoramidic acid, diphenyl ester", "Phosphoramidic acid, diphenyl ester", "Phenyl phosphoramidate", "Diphenyl amidophosphate", "Diphenyl phosphoramidate", "NSC 2043", "Diphenylphosphoramide", "[[Amino(phenoxy)phosphoryl]oxy]benzene"], "SMILES": "O(P(OC1=CC=CC=C1)(N)=O)C2=CC=CC=C2", "physical_data": {"Molecular Weight": "249.20", "Molecular Formula": "C12H12NO3P", "Melting Point": "149.5-150.0 \u00b0C"}}