{"cas_no": "2015-19-2", "cn_name": "4-\u6c2f\u82ef\u80fa-3-\u78fa\u9170\u80fa", "en_name": ["5-Amino-2-chlorobenzenesulfonamide", "Benzenesulfonamide, 5-amino-2-chloro-", "Metanilamide, 6-chloro-", "5-Amino-2-chlorobenzenesulfonamide", "2-Chloro-5-aminobenzenesulfonamide", "3-Sulfamoyl-4-chloroaniline", "4-Chloro-3-sulfamoylaniline", "4-Chloro-5-(aminosulfonyl)aniline", "3-Aminosulfonyl-4-chloroaniline"], "SMILES": "S(N)(=O)(=O)C1=C(Cl)C=CC(N)=C1", "physical_data": {"Molecular Weight": "206.65", "Molecular Formula": "C6H7ClN2O2S", "Melting Point": "167-169 \u00b0C"}}