{"cas_no": "2016-63-9", "cn_name": "\u82c4\u4e59\u9187\u80fa\u560c\u5464", "en_name": ["Bamifylline", "1H-Purine-2,6-dione, 7-[2-[ethyl(2-hydroxyethyl)amino]ethyl]-3,7-dihydro-1,3-dimethyl-8-(phenylmethyl)-", "Theophylline, 8-benzyl-7-[2-[ethyl(2-hydroxyethyl)amino]ethyl]-", "7-[2-[Ethyl(2-hydroxyethyl)amino]ethyl]-3,7-dihydro-1,3-dimethyl-8-(phenylmethyl)-1H-purine-2,6-dione", "Bamifylline", "8\u2032-Benzyl-7-(2-[ethyl(2-hydroxyethyl)amino]ethyl)theophylline", "Benzethamophylline", "8102 CB", "Bamiphylline", "8012CB", "Benzetamophylline"], "SMILES": "C(CN(CCO)CC)N1C2=C(N=C1CC3=CC=CC=C3)N(C)C(=O)N(C)C2=O", "physical_data": {"Molecular Weight": "385.46", "Molecular Formula": "C20H27N5O3", "Melting Point": "80 \u00b0C"}}