{"cas_no": "2016-36-6", "cn_name": "\u6c34\u6768\u9178\u80c6\u78b1", "en_name": ["Choline salicylate", "Ethanaminium, 2-hydroxy-N,N,N-trimethyl-, 2-hydroxybenzoate (1:1)", "Choline, salicylate (salt)", "Choline salicylate", "Ethanaminium, 2-hydroxy-N,N,N-trimethyl-, salt with 2-hydroxybenzoic acid (1:1)", "Salicylic acid, ion(1-), choline", "Benzoic acid, 2-hydroxy-, ion(1-), 2-hydroxy-N,N,N-trimethylethanaminium", "Actasal", "Arthropan", "(2-Hydroxyethyl)trimethylammonium salicylate", "Arret", "Salicol", "Artrobione", "Mundisal", "Syrap", "Satibon", "Audax", "Choline salicylic acid salt", "Salicylic acid choline salt", "Choline subsalicylate", "(2-Hydroxyethyl)trimethylammonium 2-hydroxybenzoate", "Cholinium salicylate"], "SMILES": "C([N+](C)(C)C)CO.C([O-])(=O)C1=C(O)C=CC=C1", "physical_data": {"Molecular Weight": "", "Molecular Formula": "C7H5O3.C5H14NO", "Melting Point": "49-50 \u00b0C", "Density": "1.168177 g/cm\u00b3 @ Temp: 40 \u00b0C"}}