{"cas_no": "2016-57-1", "cn_name": "1-\u7678\u80fa", "en_name": ["Decylamine", "1-Decanamine", "Decylamine", "1-Aminodecane", "Decanamine", "n-Decylamine", "1-Decylamine", "Monodecylamine", "Kemamine P 190D", "NDA", "Caprylamine"], "SMILES": "C(CCCCC)CCCCN", "physical_data": {"Molecular Weight": "157.30", "Molecular Formula": "C10H23N", "Boiling Point": "220.5 \u00b0C", "Melting Point": "17 \u00b0C", "Density": "0.7933 g/cm\u00b3 @ Temp: 20 \u00b0C"}}