{"cas_no": "2016-56-0", "cn_name": "1-\u5341\u4e8c\u70f7\u80fa\u4e59\u9178\u76d0", "en_name": ["Dodecylamine, acetate", "1-Dodecanamine, acetate (1:1)", "Dodecylamine, acetate", "1-Dodecanamine, acetate", "Laurylamine acetate", "n-Dodecylamine acetate", "Dodecylammonium acetate", "Armac 12D", "Lauryl ammonium acetate", "Nopcogen 16L", "Laurylamine acetic acid salt", "NSC 97256"], "SMILES": "C(C)(O)=O.C(CCCCCC)CCCCCN", "physical_data": {"Molecular Weight": "", "Molecular Formula": "C12H27N.C2H4O2", "Melting Point": "68.5-69 \u00b0C"}}