{"cas_no": "2016-04-8", "cn_name": "N,N-\u4e8c\u7532\u57fa\u7532\u9170\u80fa\u4e8c\u82c4\u57fa\u7f29\u919b", "en_name": ["N,N-Dimethyl-1,1-bis(phenylmethoxy)methanamine", "Methanamine, N,N-dimethyl-1,1-bis(phenylmethoxy)-", "Trimethylamine, 1,1-bis(benzyloxy)-", "N,N-Dimethyl-1,1-bis(phenylmethoxy)methanamine", "Formamide, N,N-dimethyl-, bis(phenylmethyl) acetal", "Dimethylformamide dibenzyl acetal", "N,N-Dimethylformamide dibenzyl acetal", "DMF-dibenzyl acetal"], "SMILES": "C(OC(OCC1=CC=CC=C1)N(C)C)C2=CC=CC=C2", "physical_data": {"Molecular Weight": "271.35", "Molecular Formula": "C17H21NO2", "Boiling Point": "118-120 \u00b0C @ Press: 0.2 Torr"}}