{"cas_no": "2016-88-8", "cn_name": "\u76d0\u9178\u963f\u7c73\u6d1b\u5229", "en_name": ["Amiloride hydrochloride", "2-Pyrazinecarboxamide, 3,5-diamino-N-(aminoiminomethyl)-6-chloro-, hydrochloride (1:1)", "Pyrazinecarboxamide, N-amidino-3,5-diamino-6-chloro-, monohydrochloride", "Pyrazinecarboxamide, 3,5-diamino-N-(aminoiminomethyl)-6-chloro-, monohydrochloride", "N-Amidino-3,5-diamino-6-chloropyrazinamide hydrochloride", "N-Amidino-3,5-diamino-6-chloropyrazinecarboxamide hydrochloride", "Amiloride hydrochloride", "Amipramizide", "Colectril", "Amiprazide", "Nilurid", "Amilorid hydrochloride", "Amipramidine", "Guanamprazine hydrochloride", "Midamor", "MK-870 hydrochloride", "1-(3,5-Diamino-6-chloropyrazinecarboxyl)guanidine hydrochloride"], "SMILES": "C(NC(=N)N)(=O)C=1C(N)=NC(N)=C(Cl)N1.Cl", "physical_data": {"Molecular Weight": "", "Molecular Formula": "C6H8ClN7O.ClH", "Melting Point": "293.5 \u00b0C"}}