{"cas_no": "2016-06-0", "cn_name": "\u5de6\u65cb\u7532\u72b6\u817a\u7d20\u82ef\u7532\u919b\u6742\u8d28", "en_name": ["4-(4-Hydroxy-3,5-diiodophenoxy)-3,5-diiodobenzaldehyde", "Benzaldehyde, 4-(4-hydroxy-3,5-diiodophenoxy)-3,5-diiodo-", "4-(4-Hydroxy-3,5-diiodophenoxy)-3,5-diiodobenzaldehyde"], "SMILES": "O(C1=C(I)C=C(C=O)C=C1I)C2=CC(I)=C(O)C(I)=C2", "physical_data": {"Molecular Weight": "717.80", "Molecular Formula": "C13H6I4O3", "Melting Point": "234 \u00b0C"}}