{"cas_no": "2016-42-4", "cn_name": "\u5341\u56db\u80fa", "en_name": ["Tetradecylamine", "1-Tetradecanamine", "Tetradecylamine", "Myristylamine", "n-Tetradecylamine", "Tetradecanamine", "1-Aminotetradecane", "Armeen 14", "1-Tetradecylamine", "Monotetradecylamine", "Alamine 5D", "Farmin 40D", "Nissan Amine MB", "NSC 66437", "Armeen 14D"], "SMILES": "C(CCCCCCC)CCCCCCN", "physical_data": {"Molecular Weight": "213.40", "Molecular Formula": "C14H31N", "Boiling Point": "291.2 \u00b0C", "Melting Point": "83.1 \u00b0C"}}