{"cas_no": "20175-84-2", "cn_name": "\u5f02\u67ff\u918c", "en_name": ["Isodiospyrin", "[1,2\u2032-Binaphthalene]-5,5\u2032,8,8\u2032-tetrone, 1\u2032,4-dihydroxy-2,3\u2032-dimethyl-, (1R)-", "[1,2\u2032-Binaphthalene]-5,5\u2032,8,8\u2032-tetrone, 1\u2032,4-dihydroxy-2,3\u2032-dimethyl-, (R)-", "(1R)-1\u2032,4-Dihydroxy-2,3\u2032-dimethyl[1,2\u2032-binaphthalene]-5,5\u2032,8,8\u2032-tetrone", "Isodiospyrin", "(-)-Isodiospyrin"], "SMILES": "CC=1C(=C2C(=C(O)C1)C(=O)C=CC2=O)C=3C(O)=C4C(=CC3C)C(=O)C=CC4=O", "physical_data": {"Molecular Weight": "374.34", "Molecular Formula": "C22H14O6", "Melting Point": "233 \u00b0C"}}