{"cas_no": "20173-04-0", "cn_name": "N-\u7532\u57fa-N-(3-\u7532\u57fa\u5421\u5576)\u80fa", "en_name": ["N-Methyl-3-pyridinemethanamine", "3-Pyridinemethanamine, N-methyl-", "Pyridine, 3-[(methylamino)methyl]-", "N-Methyl-3-pyridinemethanamine", "N-Methyl-3-picolylamine", "3-(Methylaminomethyl)pyridine", "N-Methyl-N-(3-pyridylmethyl)amine", "3-(N-Methylaminomethyl)pyridine", "N-Methylpyridine-3-methanamine", "Methyl[(pyridin-3-yl)methyl]amine", "NSC 63901", "NSC 66532", "N-Methyl-N-(pyridin-3-ylmethyl)amine", "N-Methyl-1-(pyridin-3-yl)methanamine", "N-(Pyridin-3-ylmethyl)methylamine", "N-[(Pyridin-3-yl)methyl]-N-methylamine", "N-Methyl-1-(3-pyridyl)methanamine"], "SMILES": "C(NC)C=1C=CC=NC1", "physical_data": {"Molecular Weight": "122.17", "Molecular Formula": "C7H10N2", "Boiling Point": "93-95 \u00b0C @ Press: 12 Torr"}}