{"cas_no": "20170-32-5", "cn_name": "3-(3,5-\u4e8c\u53d4\u4e01\u57fa-4-\u7f9f\u57fa\u82ef\u57fa)\u4e19\u9178", "en_name": ["3-(3\u2032,5\u2032-Di-tert-butyl-4\u2032-hydroxyphenyl)propionic acid", "Benzenepropanoic acid, 3,5-bis(1,1-dimethylethyl)-4-hydroxy-", "Hydrocinnamic acid, 3,5-di-tert-butyl-4-hydroxy-", "3,5-Bis(1,1-dimethylethyl)-4-hydroxybenzenepropanoic acid", "3-(3,5-Di-tert-butyl-4-hydroxyphenyl)propionic acid", "3,5-Di-tert-butyl-4-hydroxyhydrocinnamic acid", "\u03b2-(4-Hydroxy-3,5-di-tert-butylphenyl)propionic acid", "\u03b2-(3,5-Di-tert-butyl-4-hydroxyphenyl)propionic acid", "3,5-Di-tert-butyl-4-hydroxybenzenepropanoic acid", "Fenozan acid", "Fenozan", "4-Hydroxy-3,5-di-tert-butylphenylpropionic acid", "Phenosan", "\u03b2-(4-Hydroxy-3,5-di-tert-butylphenyl)propanoic acid", "Phenozan", "3,5-Di-tert-butyl-4-hydroxyphenylpropionic acid", "Phenoxan", "Fenoxan", "Fenoksan", "Phenoxan (antioxidant)", "Irganox 1310", "Irganox B 2", "3-(3,5-Di-tert-butyl-4-hydroxyphenyl)propanoic acid", "3-(3\u2032,5\u2032-Di-tert-butyl-4\u2032-hydroxyphenyl)propionic acid", "Antioxidant AO", "3-(3\u20325\u2032-Di-tert-butyl-4\u2032-hydroxyphenyl) propionic acid", "RA14 (pharmaceutical)", "3-[3,5-Bis(1,1-dimethylethyl)-4-hydroxyphenyl]propionic acid"], "SMILES": "C(C)(C)(C)C1=C(O)C(C(C)(C)C)=CC(CCC(O)=O)=C1", "physical_data": {"Molecular Weight": "278.39", "Molecular Formula": "C17H26O3", "Melting Point": "172-173 \u00b0C"}}