{"cas_no": "20174-70-3", "cn_name": "2 -\u80bc\u57fa- 6 -\u7532\u6c27\u57fa- 1,3 -\u82ef\u5e76\u567b\u5511", "en_name": ["2-Hydrazino-6-methoxybenzothiazole", "Benzothiazole, 2-hydrazinyl-6-methoxy-", "Benzothiazole, 2-hydrazino-6-methoxy-", "2(3H)-Benzothiazolone, 6-methoxy-, hydrazone", "2-Hydrazinyl-6-methoxybenzothiazole", "2-Hydrazino-6-methoxybenzothiazole", "(6-Methoxybenzothiazol-2-yl)hydrazine", "(6-Methoxy-1,3-benzothiazol-2-yl)hydrazine", "2-Hydrazinyl-6-methoxy-1,3-benzothiazole"], "SMILES": "N(N)=C1SC=2C(N1)=CC=C(OC)C2", "physical_data": {"Molecular Weight": "195.24", "Molecular Formula": "C8H9N3OS", "Melting Point": "168-169 \u00b0C"}}