{"cas_no": "20174-68-9", "cn_name": "4-\u7532\u57fa-2-\u80bc\u57fa\u82ef\u5e76\u567b\u5511", "en_name": ["2-Hydrazino-4-methylbenzothiazole", "Benzothiazole, 2-hydrazinyl-4-methyl-", "Benzothiazole, 2-hydrazino-4-methyl-", "2(3H)-Benzothiazolone, 4-methyl-, hydrazone", "2-Hydrazinyl-4-methylbenzothiazole", "2-Hydrazino-4-methylbenzothiazole", "2-Hydrazino-4-methyl-1,3-benzothiazole", "4-Methyl-2-hydrazinobenzothiazole", "4-Methyl-2-benzothiazolyl hydrazine", "(4-Methyl-1,3-benzothiazol-2-yl)hydrazine", "(4-Methyl-benzothiazol-2-yl)-hydrazine", "2-Hydrazinyl-4-methyl-1,3-benzothiazole"], "SMILES": "CC1=C2C(SC(=NN)N2)=CC=C1", "physical_data": {"Molecular Weight": "179.24", "Molecular Formula": "C8H9N3S", "Melting Point": "167-169 \u00b0C"}}