{"cas_no": "2017-68-7", "cn_name": "2-NAPHTHALEN-2-YL-ETHYLAMINE", "en_name": ["2-Naphthaleneethanamine", "2-Naphthaleneethanamine", "2-Naphthaleneethylamine", "\u03b2-(2-Naphthyl)ethylamine", "2-(2-Naphthyl)ethylamine", "2-(2-Aminoethyl)naphthalene", "2-Naphthylethylamine", "[2-(Naphthalen-2-yl)ethyl]amine", "2-(Naphthalen-2-yl)ethan-1-amine", "2-Naphthalen-2-ylethanamine"], "SMILES": "C(CN)C1=CC2=C(C=C1)C=CC=C2", "physical_data": {"Molecular Weight": "171.24", "Molecular Formula": "C12H13N", "Boiling Point": "160-165 \u00b0C @ Press: 15 Torr"}}