{"cas_no": "2018-61-3", "cn_name": "N-\u4e59\u9170-L-\u82ef\u4e19\u6c28\u9178", "en_name": ["N-Acetyl-L-phenylalanine", "L-Phenylalanine, N-acetyl-", "Alanine, N-acetyl-3-phenyl-, L-", "N-Acetyl-L-phenylalanine", "L-N-Acetylphenylalanine", "Acetyl-L-phenylalanine", "N-Acetylphenylalanine", "Acetylphenylalanine", "N-Acetyl-(S)-phenylalanine", "(+)-N-Acetylphenylalanine", "L-(+)-N-Acetylphenylalanine", "(S)-2-(Acetylamino)-3-phenylpropanoic acid", "(+)-N-Acetyl-L-phenylalanine", "NSC 45699", "(2S)-2-(Acetylamino)-3-phenylpropanoic acid", "(2S)-2-Acetamido-3-phenylpropanoic acid", "(S)-2-Acetamido-3-phenylpropanoic acid"], "SMILES": "C(CC1=CC=CC=C1)(NC(C)=O)C(O)=O", "physical_data": {"Molecular Weight": "207.23", "Molecular Formula": "C11H13NO3", "Melting Point": "171-173 \u00b0C"}}