{"cas_no": "20187-55-7", "cn_name": "\u82c4\u8fbe\u9178", "en_name": ["Bendazac", "Acetic acid, 2-[[1-(phenylmethyl)-1H-indazol-3-yl]oxy]-", "Acetic acid, [(1-benzyl-1H-indazol-3-yl)oxy]-", "Acetic acid, [[1-(phenylmethyl)-1H-indazol-3-yl]oxy]-", "2-[[1-(Phenylmethyl)-1H-indazol-3-yl]oxy]acetic acid", "Bendazac", "1-Benzylindazole-3-oxyacetic acid", "AF 983", "(1-Benzyl-3-indazolyl)oxyacetic acid", "Zildazac", "Bindazac", "Zildasac", "Dogalina", "Bendazolic acid", "2-(1-Benzyl-1H-indazol-3-yloxy)acetic Acid", "2-(1-Benzylindazol-3-yl)oxyacetic acid", "2-((1-Benzyl-1H-indazol-3-yl)oxy)acetic acid"], "SMILES": "C(N1C=2C(C(OCC(O)=O)=N1)=CC=CC2)C3=CC=CC=C3", "physical_data": {"Molecular Weight": "282.29", "Molecular Formula": "C16H14N2O3", "Melting Point": "160 \u00b0C"}}