{"cas_no": "20183-47-5", "cn_name": "\u7ec6\u53f6\u8fdc\u5fd7\u7682\u82f7", "en_name": ["Tenuifolin", "Olean-12-ene-23,28-dioic acid, 3-(\u03b2-D-glucopyranosyloxy)-2,27-dihydroxy-, (2\u03b2,3\u03b2,4\u03b1)-", "Olean-12-ene-23,28-dioic acid, 3\u03b2-(\u03b2-D-glucopyranosyloxy)-2\u03b2,27-dihydroxy-", "Glucopyranoside, 2\u03b2,3\u03b2,27-trihydroxyolean-12-ene-23,28-dioic acid-3, \u03b2-D-", "(2\u03b2,3\u03b2,4\u03b1)-3-(\u03b2-D-Glucopyranosyloxy)-2,27-dihydroxyolean-12-ene-23,28-dioic acid", "Tenuifolin", "Presenegenin-3-O-glucoside", "Tenuifoline"], "SMILES": "C(O)C12C(C3C(C(O)=O)(CC1)CCC(C)(C)C3)=CCC4C2(C)CCC5C4(C)CC(O)C(OC6OC(CO)C(O)C(O)C6O)C5(C(O)=O)C", "physical_data": {"Molecular Weight": "680.82", "Molecular Formula": "C36H56O12", "Melting Point": "201-204 \u00b0C"}}