{"cas_no": "20196-21-8", "cn_name": "\u786b\u4ee3\u5417\u5549\u916e", "en_name": ["3-Thiomorpholinone", "3-Thiomorpholinone", "3-Oxothiomorpholine", "NSC 27540", "1,4-Thiazinan-3-one"], "SMILES": "O=C1CSCCN1", "physical_data": {"Molecular Weight": "117.17", "Molecular Formula": "C4H7NOS", "Boiling Point": "185 \u00b0C @ Press: 18 Torr", "Melting Point": "87-89 \u00b0C"}}