{"cas_no": "20193-21-9", "cn_name": "N-\u4e19\u57fa\u4e01\u80fa", "en_name": ["N-Propyl-1-butanamine", "1-Butanamine, N-propyl-", "Butylamine, N-propyl-", "N-Propyl-1-butanamine", "Butylpropylamine", "N-Butyl-N-propylamine", "N-Propylbutylamine", "n-Propyl-n-butylamine", "N-Butylpropylamine", "N-Propylbutan-1-amine"], "SMILES": "C(NCCC)CCC", "physical_data": {"Molecular Weight": "115.22", "Molecular Formula": "C7H17N", "Boiling Point": "134 \u00b0C", "Density": "0.7497 g/cm\u00b3 @ Temp: 20 \u00b0C"}}