{"cas_no": "20198-19-0", "cn_name": "2-\u6c28\u57fa-3H-\u55b9\u5511\u5549-4-\u916e", "en_name": ["2-Amino-4(1H)-quinazolinone", "4(1H)-Quinazolinone, 2-amino-", "4(3H)-Quinazolinone, 2-amino-", "4-Quinazolinol, 2-amino-", "4(1H)-Quinazolinone, 2,3-dihydro-2-imino-", "2-Amino-4(1H)-quinazolinone", "2-Amino-4-quinazolinone", "2-Amino-4-hydroxyquinazoline", "2-Amino-4-quinazolone", "2-Amino-4(3H)-quinazolinone", "5,8-dideazapterin", "NSC 174024", "NSC 51782", "2-Amino-1H-quinazolin-4-one", "2-Amino-3,4-dihydroquinazolin-4-one", "2-Amino-3H-quinazolin-4-one", "2-Aminoquinazolin-4-ol"], "SMILES": "O=C1C=2C(NC(N)=N1)=CC=CC2", "physical_data": {"Molecular Weight": "161.16", "Molecular Formula": "C8H7N3O", "Melting Point": "315 \u00b0C (decomp)"}}