{"cas_no": "20191-75-7", "cn_name": "2-\u6c28\u57fa-1-\u6eb4\u8418", "en_name": ["1-Bromo-2-naphthalenamine", "2-Naphthalenamine, 1-bromo-", "2-Naphthylamine, 1-bromo-", "1-Bromo-2-naphthalenamine", "2-Amino-1-bromonaphthalene", "1-Bromo-2-naphthylamine", "1-Bromo-\u03b2-naphthylamine", "1-Bromo-2-aminonaphthalene", "1-Bromonaphthalen-2-amine"], "SMILES": "BrC=1C2=C(C=CC1N)C=CC=C2", "physical_data": {"Molecular Weight": "222.08", "Molecular Formula": "C10H8BrN", "Melting Point": "63-64 \u00b0C"}}