{"cas_no": "20196-89-8", "cn_name": "\u5c71\u5948\u915a-7-O-\u9f20\u674e\u7cd6\u82f7", "en_name": ["Kaempferol-7-O-\u03b1-L-rhamnoside", "4H-1-Benzopyran-4-one, 7-[(6-deoxy-\u03b1-L-mannopyranosyl)oxy]-3,5-dihydroxy-2-(4-hydroxyphenyl)-", "\u03b1-Rhamnoisorobin", "Kaempferol 7-rhamnoside", "7-[(6-Deoxy-\u03b1-L-mannopyranosyl)oxy]-3,5-dihydroxy-2-(4-hydroxyphenyl)-4H-1-benzopyran-4-one", "Kaempferol 7-O-\u03b1-L-rhamnopyranoside", "Kaempferol 7-\u03b1-L-rhamnoside", "Kaempferol 7-O-rhamnoside", "Kaempferol-7-O-\u03b1-L-rhamnoside", "Kampferol-7-O-rhamnoside", "7-O-Kaempherol rhamnoside"], "SMILES": "O=C1C=2C(OC(=C1O)C3=CC=C(O)C=C3)=CC(OC4C(O)C(O)C(O)C(C)O4)=CC2O", "physical_data": {"Molecular Weight": "432.38", "Molecular Formula": "C21H20O10", "Melting Point": "170-173 \u00b0C"}}