{"cas_no": "20190-03-8", "cn_name": "\u73af\u5df1\u80fa\u78b3\u9178\u76d0", "en_name": ["Carbamic acid, N-cyclohexyl-, compd. with cyclohexanamine (1:1)", "Carbamic acid, N-cyclohexyl-, compd. with cyclohexanamine (1:1)", "Cyclohexanecarbamic acid, compd. with cyclohexylamine (1:1)", "Carbamic acid, cyclohexyl-, compd. with cyclohexanamine (1:1)", "Cyclohexanecarbamic acid, compd. with cyclohexylamine", "Cyclohexylammonium N-cyclohexylcarbamate", "Cyclohexylammonium cyclohexylcarbamate", "Verzone Crystal 130"], "SMILES": "NC1CCCCC1.N(C(=O)O)C1CCCCC1", "physical_data": {"Molecular Weight": "", "Molecular Formula": "C7H13NO2.C6H13N", "Melting Point": "112-113 \u00b0C"}}