{"cas_no": "20193-20-8", "cn_name": "N-\u4e59\u57fa\u6b63\u4e19\u80fa", "en_name": ["Ethylpropylamine", "1-Propanamine, N-ethyl-", "Propylamine, N-ethyl-", "N-Ethyl-1-propanamine", "N-Ethyl-n-propylamine", "Ethylpropylamine", "N-Ethylpropylamine", "N-Ethylpropanamine", "N-Propyl-N-ethylamine", "Propylethylamine"], "SMILES": "C(NCC)CC", "physical_data": {"Molecular Weight": "87.16", "Molecular Formula": "C5H13N", "Boiling Point": "81 \u00b0C", "Melting Point": "78 \u00b0C", "Density": "0.7318 g/cm\u00b3 @ Temp: 20 \u00b0C"}}