{"cas_no": "20191-74-6", "cn_name": "2-\u4e59\u57fa-5-\u785d\u57fa\u82ef\u80fa", "en_name": ["2-Ethyl-5-nitrobenzenamine", "Benzenamine, 2-ethyl-5-nitro-", "Aniline, 2-ethyl-5-nitro-", "2-Ethyl-5-nitrobenzenamine", "4-Nitro-2-amino-1-ethylbenzene", "2-Ethyl-5-nitroaniline"], "SMILES": "N(=O)(=O)C1=CC(N)=C(CC)C=C1", "physical_data": {"Molecular Weight": "166.18", "Molecular Formula": "C8H10N2O2", "Melting Point": "60.5-61.5 \u00b0C"}}