{"cas_no": "20200-22-0", "cn_name": "N-\u7532\u57fa-2-\u785d\u57fa-4-\u4e09\u6c1f\u7532\u57fa\u82ef\u80fa", "en_name": ["N-Methyl-2-nitro-4-(trifluoromethyl)aniline", "Benzenamine, N-methyl-2-nitro-4-(trifluoromethyl)-", "p-Toluidine, \u03b1,\u03b1,\u03b1-trifluoro-N-methyl-2-nitro-", "N-Methyl-2-nitro-4-(trifluoromethyl)benzenamine", "3-Nitro-4-methylaminobenzotrifluoride", "N-Methyl-2-nitro-4-(trifluoromethyl)aniline"], "SMILES": "N(=O)(=O)C1=C(NC)C=CC(C(F)(F)F)=C1", "physical_data": {"Molecular Weight": "220.15", "Molecular Formula": "C8H7F3N2O2", "Melting Point": "73-75 \u00b0C"}}