{"cas_no": "20201-24-5", "cn_name": "3-\u7532\u57fa-2-\u6c27\u4ee3\u4e01\u9170\u4e59\u916f", "en_name": ["Ethyl 3-methyl-2-oxobutanoate", "Butanoic acid, 3-methyl-2-oxo-, ethyl ester", "Butyric acid, 3-methyl-2-oxo-, ethyl ester", "Ethyl \u03b1-ketoisovalerate", "Ethyl 3-methyl-2-oxobutanoate", "Ethyl 3-methyl-2-oxobutyrate", "Ethyl 2-oxo-3-methylbutyrate", "Ethyl 2-oxo-3-methylbutanoate", "Ethyl isopropylglyoxylate", "3-Methyl-2-oxobutanoic acid ethyl ester", "2-Oxo-3-methylbutyric acid ethyl ester"], "SMILES": "C(C(OCC)=O)(C(C)C)=O", "physical_data": {"Molecular Weight": "144.17", "Molecular Formula": "C7H12O3", "Boiling Point": "65.5 \u00b0C @ Press: 16 Torr", "Density": "0.973 g/cm\u00b3 @ Temp: 20 \u00b0C"}}