{"cas_no": "20208-73-5", "cn_name": "\u4e01\u57fa\u7518\u6c28\u9178", "en_name": ["Butyrylglycine", "Glycine, N-(1-oxobutyl)-", "Glycine, N-butyryl-", "N-(1-Oxobutyl)glycine", "N-Butyrylglycine", "Butyrylglycine", "N-Butanoylglycine", "(Butyrylamino)acetic acid", "2-(Butanoylamino)acetic acid", "2-Butanamidoacetic acid"], "SMILES": "C(NCC(O)=O)(CCC)=O", "physical_data": {"Molecular Weight": "145.16", "Molecular Formula": "C6H11NO3", "Melting Point": "65-70 \u00b0C"}}