{"cas_no": "20207-16-3", "cn_name": "2-\u6c28\u57fa\u4e59\u9170\u4e59\u9178\u4e59\u916f\u76d0\u9178\u76d0", "en_name": ["Butanoic acid, 2-amino-3-oxo-, ethyl ester, hydrochloride (1:1)", "Butanoic acid, 2-amino-3-oxo-, ethyl ester, hydrochloride (1:1)", "Acetoacetic acid, 2-amino-, ethyl ester, hydrochloride", "Butanoic acid, 2-amino-3-oxo-, ethyl ester, hydrochloride", "\u03b1-Acetylglycine ethyl ester hydrochloride", "Ethyl 2-amino-3-oxobutanoate hydrochloride", "Ethyl \u03b1-aminoacetoacetate hydrochloride", "Ethyl 2-aminoacetoacetate hydrochloride", "2-Amino-3-oxobutanoic acid ethyl ester hydrochloride"], "SMILES": "C(C(OCC)=O)(C(C)=O)N.Cl", "physical_data": {"Molecular Weight": "", "Molecular Formula": "C6H11NO3.ClH", "Melting Point": "113.5-114.5 \u00b0C"}}