{"cas_no": "2021-28-5", "cn_name": "3-\u82ef\u4e19\u9178\u4e59\u916f", "en_name": ["Ethyl 3-phenylpropanoate", "Benzenepropanoic acid, ethyl ester", "Hydrocinnamic acid, ethyl ester", "Ethyl hydrocinnamate", "Ethyl 3-phenylpropionate", "Ethyl dihydrocinnamate", "Ethyl 3-phenylpropanoate", "3-Phenylpropanoic acid ethyl ester", "Ethyl benzenepropanoate", "3-Phenylpropionic acid ethyl ester", "NSC 126040"], "SMILES": "C(CC(OCC)=O)C1=CC=CC=C1", "physical_data": {"Molecular Weight": "178.23", "Molecular Formula": "C11H14O2", "Boiling Point": "247.2 \u00b0C", "Melting Point": "122-124 \u00b0C"}}