{"cas_no": "2021-58-1", "cn_name": "3-\uff082-\u567b\u5429\u57fa\uff09-DL-\u4e19\u6c28\u9178", "en_name": ["2-Thienylalanine", "2-Thiophenepropanoic acid, \u03b1-amino-", "2-Thiophenepropionic acid, \u03b1-amino-, (\u00b1)-", "2-Thiophenepropanoic acid, \u03b1-amino-, (\u00b1)-", "\u03b1-Amino-2-thiophenepropanoic acid", "\u03b2-2-Thienyl-DL-alanine", "DL-\u03b2-Thienylalanine", "2-Thiophenealanine", "\u03b2-2-Thienylalanine", "(\u00b1)-\u03b1-Amino-2-thiophenepropanoic acid", "2-Thienylalanine", "2-Amino-3-(2-thienyl)propionic acid", "DL-(2-Thienyl)alanine", "NSC 754", "DL-3-(2-Thienyl)alanine", "3-(2-Thienyl)alanine", "2-Amino-3-(thiophen-2-yl)propionic acid", "2-Azaniumyl-3-thiophen-2-ylpropanoate", "2-Amino-3-(thiophen-2-yl)propanoic acid", "2-Amino-3-(thiophen-2-yl)propanoicacid"], "SMILES": "C(C(C(O)=O)N)C1=CC=CS1", "physical_data": {"Molecular Weight": "171.22", "Molecular Formula": "C7H9NO2S", "Melting Point": "274-275 \u00b0C"}}