{"cas_no": "202189-78-4", "cn_name": "\u6bd4\u62c9\u65af\u6c40", "en_name": ["Bilastine", "Benzeneacetic acid, 4-[2-[4-[1-(2-ethoxyethyl)-1H-benzimidazol-2-yl]-1-piperidinyl]ethyl]-\u03b1,\u03b1-dimethyl-", "4-[2-[4-[1-(2-Ethoxyethyl)-1H-benzimidazol-2-yl]-1-piperidinyl]ethyl]-\u03b1,\u03b1-dimethylbenzeneacetic acid", "Bilastine", "2-[-4-(2-[4-[1-(2-Ethoxyethyl)-1H-benzimidazol-2-yl]-1-piperidinyl]ethyl)phenyl]-2-methylpropanoic acid"], "SMILES": "C(COCC)N1C(=NC=2C1=CC=CC2)C3CCN(CCC4=CC=C(C(C(O)=O)(C)C)C=C4)CC3", "physical_data": {"Molecular Weight": "463.61", "Molecular Formula": "C28H37N3O3", "Melting Point": "204-206 \u00b0C"}}