{"cas_no": "20225-24-5", "cn_name": "2-\u4e59\u57fa\u620a\u9178", "en_name": ["2-Ethylpentanoic acid", "Pentanoic acid, 2-ethyl-", "Valeric acid, 2-ethyl-", "2-Ethylpentanoic acid", "3-Hexanecarboxylic acid", "\u03b1-Ethylvaleric acid", "2-Ethylvaleric acid"], "SMILES": "C(CCC)(C(O)=O)CC", "physical_data": {"Molecular Weight": "130.18", "Molecular Formula": "C7H14O2", "Boiling Point": "113 \u00b0C @ Press: 17 Torr", "Density": "0.911 g/cm\u00b3 @ Temp: 27 \u00b0C"}}