{"cas_no": "20229-56-5", "cn_name": "\u7ee3\u7ebf\u83ca\u7519", "en_name": ["Quercetin 4\u2032-O-glucoside", "4H-1-Benzopyran-4-one, 2-[4-(\u03b2-D-glucopyranosyloxy)-3-hydroxyphenyl]-3,5,7-trihydroxy-", "Spireoside", "2-[4-(\u03b2-D-Glucopyranosyloxy)-3-hydroxyphenyl]-3,5,7-trihydroxy-4H-1-benzopyran-4-one", "Spiraeoside", "Quercetin 4\u2032-glucoside", "Quercetin 4\u2032-O-glucoside", "Quercetin 4\u2032-\u03b2-D-glucopyranoside", "Spiraein (Acacia)", "Spiraein", "Spiraeosid", "Quercetin 4\u2032-O-\u03b2-D-glucopyranoside", "Quercetin 4\u2032-O-\u03b2-D-glucoside", "Quercetin 4\u2032-\u03b2-D-glucoside"], "SMILES": "O=C1C=2C(OC(=C1O)C3=CC(O)=C(OC4OC(CO)C(O)C(O)C4O)C=C3)=CC(O)=CC2O", "physical_data": {"Molecular Weight": "464.38", "Molecular Formula": "C21H20O12", "Melting Point": "240-241 \u00b0C"}}