{"cas_no": "2022-85-7", "cn_name": "5-\u6c1f\u80de\u5627\u5576", "en_name": ["Flucytosine", "2(1H)-Pyrimidinone, 6-amino-5-fluoro-", "2(1H)-Pyrimidinone, 4-amino-5-fluoro-", "Cytosine, 5-fluoro-", "6-Amino-5-fluoro-2(1H)-pyrimidinone", "5-Fluorocytosine", "Flucytosine", "4-Amino-5-fluoropyrimidin-2(1H)-one", "5-Fluorocytosin", "Flucytosin", "Ro 2-9915", "Fluocytosine", "Ancobon", "Fluorocytosine", "Ancotyl", "Ancotil", "6-Amino-2-oxo-5-fluoropyrimidine", "Alcobon", "NSC 103805", "4-Amino-5-fluoropyrimidin-2-ol", "Toca FC"], "SMILES": "NC1=C(F)C=NC(=O)N1", "physical_data": {"Molecular Weight": "129.09", "Molecular Formula": "C4H4FN3O", "Melting Point": "295-297 \u00b0C (decomp)"}}