{"cas_no": "20237-98-3", "cn_name": "2,6-\u53cc-(4-\u53e0\u6c2e\u82ef\u4e9a\u7532\u57fa)\u73af\u5df1\u916e", "en_name": ["2,6-Bis(4-azidobenzal)cyclohexanone", "Cyclohexanone, 2,6-bis[(4-azidophenyl)methylene]-", "Cyclohexanone, 2,6-bis(p-azidobenzylidene)-", "2,6-Bis[(4-azidophenyl)methylene]cyclohexanone", "2,6-Bis(4-azidobenzylidene)cyclohexanone", "2,6-Bis(4\u2032-azidobenzal)cyclohexanone", "2,6-Bis(4-azidobenzal)cyclohexanone", "2,6-Di(4\u2032-azidobenzal)cyclohexanone", "2,6-Bis(p-azidobenzylidene)cyclohexanone", "2,6-Bis(4\u2032-azidobenzyl)cyclohexanone", "2,6-Di(4-azidobenzal)cyclohexanone"], "SMILES": "C(=C1C(=O)C(=CC2=CC=C(N=[N+]=[N-])C=C2)CCC1)C3=CC=C(N=[N+]=[N-])C=C3", "physical_data": {"Molecular Weight": "", "Molecular Formula": "C20H16N6O", "Melting Point": "140 \u00b0C"}}