{"cas_no": "20232-39-7", "cn_name": "6,7-\u4e8c\u7532\u6c27\u57fa-3,4-\u4e8c\u6c22\u5f02\u55b9\u5549\u76d0\u9178\u76d0", "en_name": ["Isoquinoline, 3,4-dihydro-6,7-dimethoxy-, hydrochloride (1:1)", "Isoquinoline, 3,4-dihydro-6,7-dimethoxy-, hydrochloride (1:1)", "Isoquinoline, 3,4-dihydro-6,7-dimethoxy-, hydrochloride", "3,4-Dihydro-6,7-dimethoxyisoquinoline hydrochloride", "6,7-Dimethoxy-3,4-dihydroisoquinoline hydrochloride"], "SMILES": "O(C)C=1C=C2C(=CC1OC)C=NCC2.Cl", "physical_data": {"Molecular Weight": "", "Molecular Formula": "C11H13NO2.ClH", "Melting Point": "75-76 \u00b0C"}}