{"cas_no": "20235-19-2", "cn_name": "DL-\u963f\u62c9\u4f2f\u7cd6", "en_name": ["Arabinose", "Arabinose", "DL-Arabinose", "dl-Arabinose", "(\u00b1)-Arabinose", "MeSH ID: D001089"], "SMILES": "C(C(CO)O)(C(C=O)O)O", "physical_data": {"Molecular Weight": "150.13", "Molecular Formula": "C5H10O5", "Melting Point": "158.5 \u00b0C", "Density": "1.609 g/cm\u00b3 @ Temp: -5 \u00b0C"}}