{"cas_no": "2024-83-1", "cn_name": "3\uff0c4-\u4e8c\u7532\u6c27\u57fa\u82c4\u8148", "en_name": ["3,4-Dimethoxybenzonitrile", "Benzonitrile, 3,4-dimethoxy-", "Veratronitrile", "3,4-Dimethoxybenzonitrile", "1-Cyano-3,4-dimethoxybenzene", "4-Cyano-2-methoxyanisole", "NSC 209526", "NSC 27016"], "SMILES": "O(C)C1=C(OC)C=CC(C#N)=C1", "physical_data": {"Molecular Weight": "163.17", "Molecular Formula": "C9H9NO2", "Melting Point": "66-67 \u00b0C"}}