{"cas_no": "20243-59-8", "cn_name": "\u7f9f\u57fa\u82ab\u82b1\u7d20", "en_name": ["Luteolin 7-methyl ether", "4H-1-Benzopyran-4-one, 2-(3,4-dihydroxyphenyl)-5-hydroxy-7-methoxy-", "Flavone, 3\u2032,4\u2032,5-trihydroxy-7-methoxy-", "2-(3,4-Dihydroxyphenyl)-5-hydroxy-7-methoxy-4H-1-benzopyran-4-one", "7-O-Methylluteolin", "Luteolin 7-methyl ether", "3\u2032,4\u2032,5-Trihydroxy-7-methoxyflavone", "3\u2032-Hydroxygenkwanin", "5,3\u2032,4\u2032-Trihydroxy-7-methoxyflavone", "Hydroxygenkwanin", "2-(3,4-Dihydroxyphenyl)-5-hydroxy-7-methoxychromen-4-one", "2-(3,4-Dihydroxyphenyl)-5-hydroxy-7-methoxy-4H-chromen-4-one"], "SMILES": "O=C1C=2C(OC(=C1)C3=CC(O)=C(O)C=C3)=CC(OC)=CC2O", "physical_data": {"Molecular Weight": "300.26", "Molecular Formula": "C16H12O6", "Melting Point": "258-260 \u00b0C"}}