{"cas_no": "20249-17-6", "cn_name": "3-\u7f9f\u57fa\u73af\u4e01\u8148", "en_name": ["3-Hydroxycyclobutane-1-carbonitrile", "Cyclobutanecarbonitrile, 3-hydroxy-", "3-Hydroxycyclobutanecarbonitrile", "3-Cyanocyclobutanol", "3-Hydroxy-cyclobutanecarbonitrile", "3-Hydroxycyclobutane-1-carbonitrile"], "SMILES": "C(#N)C1CC(O)C1", "physical_data": {"Molecular Weight": "97.12", "Molecular Formula": "C5H7NO", "Boiling Point": "70-71 \u00b0C @ Press: 0.33 Torr"}}