{"cas_no": "20248-08-2", "cn_name": "\u0391-\u9999\u6811\u8102\u916e", "en_name": ["\u03b4-Amyrone", "Olean-13(18)-en-3-one", "3-Oxo-\u039413(18)-oleanene", "\u03b4-Amyrenone", "\u03b4-Amyrone"], "SMILES": "CC12C3(C)C(=C4C(C)(CC3)CCC(C)(C)C4)CCC1C5(C)C(CC2)C(C)(C)C(=O)CC5", "physical_data": {"Molecular Weight": "424.70", "Molecular Formula": "C30H48O", "Melting Point": "198-201 \u00b0C"}}