{"cas_no": "2024-88-6", "cn_name": "\u53cc\u915aA\u53cc\u6c2f\u7532\u9178\u916f", "en_name": ["C,C\u2032-[(1-Methylethylidene)di-4,1-phenylene] dicarbonochloridate", "Carbonochloridic acid, C,C\u2032-[(1-methylethylidene)di-4,1-phenylene] ester", "Formic acid, chloro-, isopropylidenedi-p-phenylene ester", "Carbonochloridic acid, (1-methylethylidene)di-4,1-phenylene ester", "Phenol, 4,4\u2032-isopropylidenedi-, bis(chloroformate)", "C,C\u2032-[(1-Methylethylidene)di-4,1-phenylene] dicarbonochloridate", "Bisphenol A bis(chloroformate)", "Isopropylidenedi-p-phenylene chloroformate", "2,2-Bis[p-(chloroformyloxy)phenyl]propane", "Bisphenol A dichloroformate", "2,2-Bis(4-hydroxyphenyl)propane bis(chloroformate)", "Diphenylolpropane bischloroformate", "2,2-Bis(4-chloroformyloxyphenyl)propane", "[4-[2-(4-Carbonochloridoyloxyphenyl)propan-2-yl]phenyl] carbonochloridate"], "SMILES": "C(C)(C)(C1=CC=C(OC(Cl)=O)C=C1)C2=CC=C(OC(Cl)=O)C=C2", "physical_data": {"Molecular Weight": "353.20", "Molecular Formula": "C17H14Cl2O4", "Melting Point": "95-96 \u00b0C"}}