{"cas_no": "20244-61-5", "cn_name": "\u56db\u6eb4\u73af\u5df1\u4e8c\u70ef-1-\u916e", "en_name": ["2,4,4,6-Tetrabromo-2,5-cyclohexadien-1-one", "2,5-Cyclohexadien-1-one, 2,4,4,6-tetrabromo-", "2,4,4,6-Tetrabromo-2,5-cyclohexadien-1-one", "2,4,4,6-Tetrabromo-2,5-cyclohexadienone", "TBCD", "NSC 176338", "TABCO", "TBHCD", "TBCO"], "SMILES": "BrC1(Br)C=C(Br)C(=O)C(Br)=C1", "physical_data": {"Molecular Weight": "409.70", "Molecular Formula": "C6H2Br4O", "Melting Point": "123-125 \u00b0C"}}