{"cas_no": "20255-94-1", "cn_name": "\u7518\u6cb91,2-\u4e8c\u8089\u8c46\u853b\u9178\u916f", "en_name": ["1,2-Dimyristoyl-rac-glycerol", "Tetradecanoic acid, 1,1\u2032-[1-(hydroxymethyl)-1,2-ethanediyl] ester", "Myristin, 1,2-di-", "Tetradecanoic acid, 1-(hydroxymethyl)-1,2-ethanediyl ester", "1,2-Dimyristin", "1,2-Glycerin dimyristic acid ester", "1,2-Dimyristoylglycerin", "1,2-Dimyristoyl glycerol", "1,2-Dimyristoyl-rac-glycerol", "Glycerol 1,2-ditetradecanoate", "3-Hydroxypropane-1,2-diyl ditetradecanoate"], "SMILES": "C(OC(CCCCCCCCCCCCC)=O)(COC(CCCCCCCCCCCCC)=O)CO", "physical_data": {"Molecular Weight": "512.81", "Molecular Formula": "C31H60O5", "Melting Point": "80 \u00b0C"}}