{"cas_no": "2025-40-3", "cn_name": "a-\u73af\u7532\u57fa\u4e59\u9178\u4e59\u916f", "en_name": ["Ethyl benzylidenecyanoacetate", "2-Propenoic acid, 2-cyano-3-phenyl-, ethyl ester", "Cinnamic acid, \u03b1-cyano-, ethyl ester", "Benzylidenecyanoacetic acid ethyl ester", "Ethyl benzylidenecyanoacetate", "Ethyl \u03b1-cyanocinnamate", "Ethyl 2-benzylidene-2-cyanoacetate", "Ethyl \u03b1-benzylidenecyanoacetate", "Ethyl 3-phenyl-2-cyano-2-propenoate", "Ethyl 2-cyano-3-phenylacrylate", "2-Cyano-3-phenyl-2-propenoic acid ethyl ester", "2-Cyano-3-phenylacrylic acid ethyl ester", "NSC 8904", "Ethyl 2-cyano-3-phenyl-2-propenoate", "3-Phenyl-2-cyano-2-propenoic acid ethyl ester", "Ethyl 2-cyano-2-(benzylidene)acetate", "Ethyl cyanocinnamate"], "SMILES": "C(=CC1=CC=CC=C1)(C(OCC)=O)C#N", "physical_data": {"Molecular Weight": "201.22", "Molecular Formula": "C12H11NO2", "Boiling Point": "188 \u00b0C @ Press: 15 Torr", "Melting Point": "51 \u00b0C"}}