{"cas_no": "20265-39-8", "cn_name": "4-\u6c28\u57fa-2-\u7532\u6c27\u57fa\u5421\u5576", "en_name": ["2-Methoxypyridin-4-amine", "4-Pyridinamine, 2-methoxy-", "Pyridine, 4-amino-2-methoxy-", "2-Methoxy-4-pyridinamine", "4-Amino-2-methoxypyridine", "(2-Methoxypyridin-4-yl)amine", "NSC 133109", "2-Methoxypyridin-4-amine", "2-Methoxy-4-aminopyridine"], "SMILES": "O(C)C1=CC(N)=CC=N1", "physical_data": {"Molecular Weight": "124.14", "Molecular Formula": "C6H8N2O", "Melting Point": "91.5-92.0 \u00b0C"}}