{"cas_no": "20265-96-7", "cn_name": "4-\u6c2f\u82ef\u80fa\u76d0\u9178\u76d0", "en_name": ["4-Chloroaniline hydrochloride", "Benzenamine, 4-chloro-, hydrochloride (1:1)", "Aniline, p-chloro-, hydrochloride", "Benzenamine, 4-chloro-, hydrochloride", "p-Chloroaniline hydrochloride", "p-Chlorophenylamine hydrochloride", "4-Chloroaniline hydrochloride", "p-Chloroanilinium chloride", "4-Chlorobenzenamine hydrochloride", "4-Chlorophenylammonium chloride", "4-Chloroanilinium chloride", "4-Chloroaniline monohydrochloride"], "SMILES": "ClC1=CC=C(N)C=C1.Cl", "physical_data": {"Molecular Weight": "", "Molecular Formula": "C6H6ClN.ClH", "Melting Point": "69-70 \u00b0C"}}