{"cas_no": "20260-53-1", "cn_name": "\u6c2f\u5316\u70df\u78b1\u76d0\u9178\u76d0", "en_name": ["3-Pyridinecarbonyl chloride, hydrochloride (1:1)", "3-Pyridinecarbonyl chloride, hydrochloride (1:1)", "Nicotinoyl chloride, hydrochloride", "3-Pyridinecarbonyl chloride, hydrochloride", "Nicotinic acid chloride hydrochloride"], "SMILES": "C(Cl)(=O)C=1C=CC=NC1.Cl", "physical_data": {"Molecular Weight": "", "Molecular Formula": "C6H4ClNO.ClH", "Melting Point": "164-165 \u00b0C"}}