{"cas_no": "20266-00-6", "cn_name": "2-\u6c2f-1-\u5421\u54af\u70f7-1\u57fa-\u4e59\u916e", "en_name": ["2-Chloro-1-(1-pyrrolidinyl)ethanone", "Ethanone, 2-chloro-1-(1-pyrrolidinyl)-", "Pyrrolidine, 1-(chloroacetyl)-", "2-Chloro-1-(1-pyrrolidinyl)ethanone", "1-(Chloroacetyl)pyrrolidine", "Pyrrolidylcarbonylmethyl chloride", "N-(Chloroacetyl)pyrrolidine", "2-Chloro-1-(pyrrolidin-1-yl)ethanone", "2-Chloro-1-(pyrrolidin-1-yl)ethan-1-one", "1-(2-Chloroacetyl)pyrrolidine"], "SMILES": "C(CCl)(=O)N1CCCC1", "physical_data": {"Molecular Weight": "147.60", "Molecular Formula": "C6H10ClNO", "Boiling Point": "112 \u00b0C @ Press: 0.5 Torr", "Melting Point": "44-46 \u00b0C"}}