{"cas_no": "20265-97-8", "cn_name": "\u5bf9-\u8334\u9999\u80fa\u76d0\u9178\u76d0", "en_name": ["Benzenamine, 4-methoxy-, hydrochloride (1:1)", "Benzenamine, 4-methoxy-, hydrochloride (1:1)", "p-Anisidine, hydrochloride", "Benzenamine, 4-methoxy-, hydrochloride", "p-Anisidine monohydrochloride", "4-Methoxyaniline hydrochloride", "p-Methoxyaniline hydrochloride", "p-Methoxyanilinium chloride", "4-Methoxybenzenamine hydrochloride"], "SMILES": "O(C)C1=CC=C(N)C=C1.Cl", "physical_data": {"Molecular Weight": "", "Molecular Formula": "C7H9NO.ClH", "Melting Point": "185-186 \u00b0C"}}