{"cas_no": "20265-37-6", "cn_name": "3-\u7532\u6c27\u57fa-2-\u785d\u57fa\u5421\u5576", "en_name": ["3-Methoxy-2-nitropyridine", "Pyridine, 3-methoxy-2-nitro-", "3-Methoxy-2-nitropyridine", "2-Nitro-3-methoxypyridine", "3-(Methyloxy)-2-nitropyridine"], "SMILES": "O(C)C1=C(N(=O)=O)N=CC=C1", "physical_data": {"Molecular Weight": "154.12", "Molecular Formula": "C6H6N2O3", "Melting Point": "73-75 \u00b0C"}}