{"cas_no": "2026-48-4", "cn_name": "L-\u7f2c\u6c28\u9187", "en_name": ["(+)-Valinol", "1-Butanol, 2-amino-3-methyl-, (2S)-", "1-Butanol, 2-amino-3-methyl-, L-", "1-Butanol, 2-amino-3-methyl-, (S)-", "(2S)-2-Amino-3-methyl-1-butanol", "L-Valinol", "(S)-2-Amino-3-methyl-1-butanol", "(S)-Valinol", "(S)-(+)-Valinol", "(+)-(S)-Valinol", "(+)-Valinol", "(2S)-Valinol", "(S)-(+)-2-Amino-3-methyl-1-butanol", "[(S)-1-(Hydroxymethyl)-2-methylpropyl]amine", "NSC 322922", "(+)-2-Amino-3-methyl-1-butanol", "(S)-2-Amino-3-methylbutanol", "(2S)-1-Hydroxy-3-methylbutan-2-amine"], "SMILES": "C(C(C)C)(CO)N", "physical_data": {"Molecular Weight": "103.16", "Molecular Formula": "C5H13NO", "Boiling Point": "71.5-73.5 \u00b0C", "Melting Point": "31-32 \u00b0C"}}