{"cas_no": "20265-38-7", "cn_name": "2-\u7532\u6c27\u57fa-3-\u6c28\u57fa\u5421\u5576", "en_name": ["2-Methoxy-3-pyridinamine", "3-Pyridinamine, 2-methoxy-", "Pyridine, 3-amino-2-methoxy-", "2-Methoxy-3-pyridinamine", "3-Amino-2-methoxypyridine", "2-Methoxy-3-aminopyridine", "(2-Methoxypyridin-3-yl)amine"], "SMILES": "O(C)C1=C(N)C=CC=N1", "physical_data": {"Molecular Weight": "124.14", "Molecular Formula": "C6H8N2O", "Boiling Point": "116-118 \u00b0C", "Melting Point": "69 \u00b0C"}}