{"cas_no": "20279-21-4", "cn_name": "1,2,3,10B-\u56db\u6c22\u8367\u84bd", "en_name": ["1,2,3,10b-Tetrahydrofluoranthene", "Fluoranthene, 1,2,3,10b-tetrahydro-", "1,2,3,10b-Tetrahydrofluoranthene", "1,2,3,4-Tetrahydrofluoranthene", "NSC 102260"], "SMILES": "C1=2C3C=4C(C1=CC=CC2CCC3)=CC=CC4", "physical_data": {"Molecular Weight": "206.28", "Molecular Formula": "C16H14", "Boiling Point": "203-205 \u00b0C", "Melting Point": "75 \u00b0C"}}