{"cas_no": "20279-16-7", "cn_name": "3-\u7f9f\u57fa\u4e8c\u82ef\u5e76\u544b\u5583", "en_name": ["3-Dibenzofuranol", "3-Dibenzofuranol", "2-Hydroxydiphenylene oxide", "3-Hydroxydibenzofuran", "Dibenzo[b,d]furan-3-ol"], "SMILES": "OC=1C=C2C(C=3C(O2)=CC=CC3)=CC1", "physical_data": {"Molecular Weight": "184.19", "Molecular Formula": "C12H8O2", "Melting Point": "136 \u00b0C"}}