{"cas_no": "2027-17-0", "cn_name": "2-\u5f02\u4e19\u57fa\u8418", "en_name": ["2-Isopropylnaphthalene", "Naphthalene, 2-(1-methylethyl)-", "Naphthalene, 2-isopropyl-", "2-(1-Methylethyl)naphthalene", "2-Isopropylnaphthalene", "\u03b2-Isopropylnaphthalene", "NSC 166466", "6-Isopropylnaphthalene", "2-(Propan-2-yl)naphthalene", "2-Propan-2-ylnaphthalene"], "SMILES": "C(C)(C)C1=CC2=C(C=C1)C=CC=C2", "physical_data": {"Molecular Weight": "170.25", "Molecular Formula": "C13H14", "Boiling Point": "268.2 \u00b0C", "Melting Point": "14.5 \u00b0C", "Density": "0.9753 g/cm\u00b3 @ Temp: 20 \u00b0C"}}