{"cas_no": "20283-92-5", "cn_name": "\u8ff7\u8fed\u9999\u9178", "en_name": ["Rosmarinic acid", "Benzenepropanoic acid, \u03b1-[[(2E)-3-(3,4-dihydroxyphenyl)-1-oxo-2-propen-1-yl]oxy]-3,4-dihydroxy-, (\u03b1R)-", "Cinnamic acid, 3,4-dihydroxy-, 2-ester with 3-(3,4-dihydroxyphenyl)lactic acid", "Benzenepropanoic acid, \u03b1-[[3-(3,4-dihydroxyphenyl)-1-oxo-2-propenyl]oxy]-3,4-dihydroxy-, [R-(E)]-", "Rosmarinic acid", "Benzenepropanoic acid, \u03b1-[[(2E)-3-(3,4-dihydroxyphenyl)-1-oxo-2-propenyl]oxy]-3,4-dihydroxy-, (\u03b1R)-", "(\u03b1R)-\u03b1-[[(2E)-3-(3,4-Dihydroxyphenyl)-1-oxo-2-propen-1-yl]oxy]-3,4-dihydroxybenzenepropanoic acid", "Rosemary acid", "Rosemaric acid", "RM 21A", "Mamorekku RUH 2", "Meiji Red Perilla Polyphenol", "trans-Rosmarinic acid", "Labiatenic acid", "Labiatic acid", "NPLC 0542", "SYL 001"], "SMILES": "C(C(OC(C=CC1=CC(O)=C(O)C=C1)=O)C(O)=O)C2=CC(O)=C(O)C=C2", "physical_data": {"Molecular Weight": "360.31", "Molecular Formula": "C18H16O8", "Melting Point": "169-171.5 \u00b0C"}}