{"cas_no": "20281-00-9", "cn_name": "\u6c27\u5316\u94ef", "en_name": ["Cesium oxide", "Cesium oxide (Cs2O)", "Cesium oxide", "Dicesium oxide", "Dicesium monoxide"], "SMILES": "O([Cs])[Cs]", "physical_data": {"Molecular Weight": "", "Molecular Formula": "Cs2O", "Melting Point": "4.33 \u00b0C"}}