{"cas_no": "2028-63-9", "cn_name": "3-\u4e01\u7094-2-\u9187", "en_name": ["3-Butyn-2-ol", "3-Butyn-2-ol", "Methyl ethynyl carbinol", "1-Butyn-3-ol", "1-Methyl-2-propyn-1-ol", "3-Methyl-1-propyn-3-ol", "3-Hydroxy-1-butyne", "\u03b1-Methylpropargyl alcohol", "1-Methylpropargyl alcohol", "1-Methyl-2-propynyl alcohol", "2-Hydroxy-3-butyne", "(\u00b1)-But-1-yn-3-ol", "(\u00b1)-3-Butyn-2-ol", "(RS)-1-Butyn-3-ol", "DL-1-Butyn-3-ol", "NSC 222370"], "SMILES": "C(C#C)(C)O", "physical_data": {"Molecular Weight": "70.09", "Molecular Formula": "C4H6O", "Boiling Point": "106.5 \u00b0C", "Melting Point": "-3 \u00b0C", "Density": "0.8858 g/cm\u00b3 @ Temp: 20 \u00b0C"}}