{"cas_no": "20289-26-3", "cn_name": "4-\u82c4\u6c27\u57fa\u5432\u54da", "en_name": ["4-Benzyloxyindole", "1H-Indole, 4-(phenylmethoxy)-", "Indole, 4-(benzyloxy)-", "4-(Phenylmethoxy)-1H-indole", "4-Benzyloxyindole", "4-Benzyloxy-1H-indole", "NSC 92539", "CC-1-33"], "SMILES": "O(CC1=CC=CC=C1)C2=C3C(NC=C3)=CC=C2", "physical_data": {"Molecular Weight": "223.27", "Molecular Formula": "C15H13NO", "Melting Point": "72-74 \u00b0C"}}