{"cas_no": "202865-66-5", "cn_name": "2-\u6eb4-5-\u6c1f\u82c4\u9187", "en_name": ["2-Bromo-5-fluorobenzenemethanol", "Benzenemethanol, 2-bromo-5-fluoro-", "2-Bromo-5-fluorobenzenemethanol", "2-Bromo-5-fluorobenzyl alcohol", "(2-Bromo-5-fluorophenyl)methanol", "2-Bromo-5-fluorobenzyl alc"], "SMILES": "C(O)C1=C(Br)C=CC(F)=C1", "physical_data": {"Molecular Weight": "205.02", "Molecular Formula": "C7H6BrFO", "Melting Point": "92-94 \u00b0C"}}