{"cas_no": "202825-46-5", "cn_name": "\u6c99\u82ac\u9170\u80fa\u7532\u78fa\u9178\u76d0", "en_name": ["Safinamide mesylate", "Propanamide, 2-[[[4-[(3-fluorophenyl)methoxy]phenyl]methyl]amino]-, (2S)-, methanesulfonate (1:1)", "Propanamide, 2-[[[4-[(3-fluorophenyl)methoxy]phenyl]methyl]amino]-, (S)-, monomethanesulfonate", "Propanamide, 2-[[[4-[(3-fluorophenyl)methoxy]phenyl]methyl]amino]-, (2S)-, monomethanesulfonate", "PNU 151774E", "NW 1015", "Safinamide mesylate", "(S)-2-[[4-[(3-Fluorobenzyl)oxy]benzyl]amino]propanamide methanesulfonate", "Safinamide methanesulfonate", "EMD 1195686 mesylate", "Xadago"], "SMILES": "S(C)(=O)(=O)O.O(CC1=CC(F)=CC=C1)C2=CC=C(CNC(C(N)=O)C)C=C2", "physical_data": {"Molecular Weight": "", "Molecular Formula": "C17H19FN2O2.CH4O3S", "Melting Point": "213 \u00b0C (decomp)"}}