{"cas_no": "20290-75-9", "cn_name": "\u987a6,9,12,15-\u5341\u516b\u78b3\u56db\u70ef\u9178", "en_name": ["Stearidonic acid", "6,9,12,15-Octadecatetraenoic acid, (6Z,9Z,12Z,15Z)-", "6,9,12,15-Octadecatetraenoic acid, (all-Z)-", "(6Z,9Z,12Z,15Z)-6,9,12,15-Octadecatetraenoic acid", "6,9,12,15-cis-Octadecatetraenoic acid", "(all-Z)-6,9,12,15-Octadecatetraenoic acid", "(6Z,9Z,12Z,15Z)-Octadecatetraenoic acid", "\u03946,9,12,15-Octadecatetraenoic acid", "all-cis-6,9,12,15-Octadecatetraenoic acid", "Moroctic acid", "Stearidonic acid", "(Z,Z,Z,Z)-6,9,12,15-Octadecatetraenoic acid", "18:4(n-3)", "6Z,9Z,12Z,15Z-Octadecatetraenoic acid"], "SMILES": "C(CC=CCC=CCC=CCC)=CCCCCC(O)=O", "physical_data": {"Molecular Weight": "276.41", "Molecular Formula": "C18H28O2", "Melting Point": "200 \u00b0C (decomp)", "Density": "0.9334 g/cm\u00b3 @ Temp: 15 \u00b0C"}}