{"cas_no": "20295-64-1", "cn_name": "2-\u6c2f\u5421\u5576\u6c2e\u6c27\u5316\u7269\u76d0\u9178\u76d0", "en_name": ["Pyridine, 2-chloro-, 1-oxide, hydrochloride (1:1)", "Pyridine, 2-chloro-, 1-oxide, hydrochloride (1:1)", "Pyridine, 2-chloro-, 1-oxide, hydrochloride", "Pyridine, 2-chloro, 1-oxide, compd. with hydrochloric acid", "2-Chloropyridine N-oxide hydrochloride"], "SMILES": "ClC=1N(=O)=CC=CC1.Cl", "physical_data": {"Molecular Weight": "", "Molecular Formula": "C5H4ClNO.ClH", "Melting Point": "143 \u00b0C"}}