{"cas_no": "20291-40-1", "cn_name": "7-\u7532\u6c27\u57fa-7-\u6c27\u4ee3\u5e9a\u9178", "en_name": ["1-Methyl heptanedioate", "Heptanedioic acid, 1-methyl ester", "Pimelic acid, monomethyl ester", "Heptanedioic acid, monomethyl ester", "Pimelic acid, methyl ester", "1-Methyl heptanedioate", "Monomethyl pimelate", "Methyl hemipimelate", "Methyl 1,7-heptanedioate", "Methyl 6-carboxyhexanoate", "7-Methoxy-7-oxoheptanoic acid", "6-Methoxycarbonylhexanoic acid"], "SMILES": "C(CCC(OC)=O)CCC(O)=O", "physical_data": {"Molecular Weight": "174.19", "Molecular Formula": "C8H14O4", "Boiling Point": "128 \u00b0C @ Press: 16 Torr", "Melting Point": "5 \u00b0C", "Density": "1.0383 g/cm\u00b3 @ Temp: 20 \u00b0C"}}