{"cas_no": "20296-29-1", "cn_name": "3-\u8f9b\u9187", "en_name": ["3-Octanol", "3-Octanol", "Ethylamylcarbinol", "n-Octan-3-ol", "1-Ethyl-1-hexanol", "(\u00b1)-3-Octanol", "DL-3-Octanol", "Octan-3-ol"], "SMILES": "C(CCCCC)(CC)O", "physical_data": {"Molecular Weight": "130.23", "Molecular Formula": "C8H18O", "Boiling Point": "171 \u00b0C", "Melting Point": "-45 \u00b0C", "Density": "0.8279 g/cm\u00b3 @ Temp: 15 \u00b0C"}}