{"cas_no": "20294-50-2", "cn_name": "4-\u6eb4-2-\u7532\u57fa-6-\u785d\u57fa\u82ef\u915a", "en_name": ["4-Bromo-2-methyl-6-nitrophenol", "Phenol, 4-bromo-2-methyl-6-nitro-", "o-Cresol, 4-bromo-6-nitro-", "4-Bromo-2-methyl-6-nitrophenol", "4-Bromo-6-methyl-2-nitrophenol"], "SMILES": "N(=O)(=O)C1=C(O)C(C)=CC(Br)=C1", "physical_data": {"Molecular Weight": "232.03", "Molecular Formula": "C7H6BrNO3", "Melting Point": "90.5 \u00b0C"}}