{"cas_no": "202982-72-7", "cn_name": "4-\u6c2f-3-\u7898\u82ef\u915a", "en_name": ["4-Chloro-3-iodophenol", "Phenol, 4-chloro-3-iodo-", "4-Chloro-3-iodophenol"], "SMILES": "IC1=C(Cl)C=CC(O)=C1", "physical_data": {"Molecular Weight": "254.45", "Molecular Formula": "C6H4ClIO", "Melting Point": "78 \u00b0C"}}