{"cas_no": "2029-94-9", "cn_name": "3,4-\u4e8c\u4e59\u6c27\u57fa\u82ef\u7532\u919b", "en_name": ["3,4-Diethoxybenzaldehyde", "Benzaldehyde, 3,4-diethoxy-", "3,4-Diethoxybenzaldehyde", "NSC 6331"], "SMILES": "O(CC)C1=C(OCC)C=CC(C=O)=C1", "physical_data": {"Molecular Weight": "194.23", "Molecular Formula": "C11H14O3", "Boiling Point": "279 \u00b0C", "Melting Point": "22 \u00b0C", "Density": "1.101 g/cm\u00b3 @ Temp: 21.5 \u00b0C"}}