{"cas_no": "203-64-5", "cn_name": "4H-\u73af\u620a[DEF]\u83f2", "en_name": ["4H-Cyclopenta[def]phenanthrene", "4H-Cyclopenta[def]phenanthrene", "Benzo[def]fluorene", "Methane, 4,5-phenanthrylene-", "4,5-Methylenephenanthrene", "Phenanthrene, 4,5-methylene-", "4,5-Phenanthrylenemethane", "Methylenephenanthrene", "NSC 88888"], "SMILES": "C12=C3C=4CC1=CC=CC2=CC=C3C=CC4", "physical_data": {"Molecular Weight": "190.24", "Molecular Formula": "C15H10", "Boiling Point": "353 \u00b0C", "Melting Point": "114 \u00b0C"}}