{"cas_no": "2030-63-9", "cn_name": "\u6c2f\u82ef\u5429\u55ea", "en_name": ["Clofazimine", "2-Phenazinamine, N,5-bis(4-chlorophenyl)-3,5-dihydro-3-[(1-methylethyl)imino]-", "Phenazine, 3-(p-chloroanilino)-10-(p-chlorophenyl)-2,10-dihydro-2-(isopropylimino)-", "N,5-Bis(4-chlorophenyl)-3,5-dihydro-3-[(1-methylethyl)imino]-2-phenazinamine", "G 30320", "3-(p-Chloroanilino)-10-(p-chlorophenyl)-2,10-dihydro-2-(isopropylimino)phenazine", "Clofazimine", "B 663 (pharmaceutical)", "B 663", "Chlofazimine", "2-(4-Chloroanilino)-3-isopropylimino-5-(4-chlorophenyl)-3,5-dihydrophenazine", "2-p-Chloroanilino-5-p-chlorophenyl-3,5-dihydro-3-isopropyliminophenazine", "Lampren", "Hansepran", "Lamprene", "NSC 141046", "MeSH ID: D002991"], "SMILES": "N(C(C)C)=C1C=C2N(C=3C(N=C2C=C1NC4=CC=C(Cl)C=C4)=CC=CC3)C5=CC=C(Cl)C=C5", "physical_data": {"Molecular Weight": "473.40", "Molecular Formula": "C27H22Cl2N4", "Melting Point": "210-212 \u00b0C"}}