{"cas_no": "20300-02-1", "cn_name": "\u567b\u5429-2-\u786b\u4ee3\u7532\u9170\u80fa", "en_name": ["2-Thiophenecarbothioamide", "2-Thiophenecarbothioamide", "2-Thiophenecarboxamide, thio-", "2-Thienylthiocarboxamide", "2-Thiophenethiocarboxamide", "2-Thiocarbamoylthiophene", "2-(Aminothiocarbonyl)thiophene", "Thiophene-2-carbothioic acid amide", "Thien-2-carbothioic acid amide"], "SMILES": "C(N)(=S)C1=CC=CS1", "physical_data": {"Molecular Weight": "143.23", "Molecular Formula": "C5H5NS2", "Melting Point": "110-111 \u00b0C"}}