{"cas_no": "20306-75-6", "cn_name": "N-\u7532\u57fa\u4e59\u9170\u57fa\u4e59\u9170\u80fa", "en_name": ["N-Methylacetoacetamide", "Butanamide, N-methyl-3-oxo-", "Acetoacetamide, N-methyl-", "N-Methyl-3-oxobutanamide", "2-Acetyl-N-methylacetamide", "N-Methylacetoacetamide"], "SMILES": "C(CC(C)=O)(NC)=O", "physical_data": {"Molecular Weight": "115.13", "Molecular Formula": "C5H9NO2", "Boiling Point": "170 \u00b0C @ Press: 18 Torr", "Melting Point": "47 \u00b0C"}}