{"cas_no": "20310-89-8", "cn_name": "\u7682\u8349\u82f7", "en_name": ["Saponarin", "4H-1-Benzopyran-4-one, 6-\u03b2-D-glucopyranosyl-7-(\u03b2-D-glucopyranosyloxy)-5-hydroxy-2-(4-hydroxyphenyl)-", "Saponarin", "6-\u03b2-D-Glucopyranosyl-7-(\u03b2-D-glucopyranosyloxy)-5-hydroxy-2-(4-hydroxyphenyl)-4H-1-benzopyran-4-one", "Isovitexin 7-\u03b2-D-glucopyranoside", "Petrocomoside", "6-C-Glucosyl-7-O-glucosylapigenin", "Isovitexin 7-glucoside", "7-O-Glucosylisovitexin", "Isovitexin 7-\u03b2-D-glucoside", "Apigenin 6-C-glucosyl-7-O-glucoside", "Apigenin-6-C-glucoside-7-O-glucoside"], "SMILES": "O(C1=C(C(O)=C2C(=C1)OC(=CC2=O)C3=CC=C(O)C=C3)C4OC(CO)C(O)C(O)C4O)C5OC(CO)C(O)C(O)C5O", "physical_data": {"Molecular Weight": "594.52", "Molecular Formula": "C27H30O15", "Melting Point": "210-215 \u00b0C"}}