{"cas_no": "20315-25-7", "cn_name": "\u539f\u82b1\u9752\u7d20B1", "en_name": ["Procyanidin B1", "[4,8\u2032-Bi-2H-1-benzopyran]-3,3\u2032,5,5\u2032,7,7\u2032-hexol, 2,2\u2032-bis(3,4-dihydroxyphenyl)-3,3\u2032,4,4\u2032-tetrahydro-, (2R,2\u2032R,3R,3\u2032S,4R)-", "[4,8\u2032\u2032-Biflavan]-3,3\u2032,3\u2032\u2032,3\u2032\u2032\u2032,4\u2032,4\u2032\u2032\u2032,5,5\u2032\u2032,7,7\u2032\u2032-decol, stereoisomer", "[4,8\u2032-Bi-2H-1-benzopyran]-3,3\u2032,5,5\u2032,7,7\u2032-hexol, 2,2\u2032-bis(3,4-dihydroxyphenyl)-3,3\u2032,4,4\u2032-tetrahydro-, [2R-[2\u03b1,3\u03b1,4\u03b2(2\u2032R*,3\u2032S*)]]-", "(2R,2\u2032R,3R,3\u2032S,4R)-2,2\u2032-Bis(3,4-dihydroxyphenyl)-3,3\u2032,4,4\u2032-tetrahydro[4,8\u2032-bi-2H-1-benzopyran]-3,3\u2032,5,5\u2032,7,7\u2032-hexol", "Procyanidin B1", "Procyanidol B1", "Proanthocyanidin B1", "(-)-Epicatechin-(4\u03b2-8)-(+)-catechin", "(+)-Procyanidin B1", "Epicatechin 4\u03b2-8 catechin"], "SMILES": "OC1C(C=2C(OC1C3=CC(O)=C(O)C=C3)=CC(O)=CC2O)C4=C5C(CC(O)C(O5)C6=CC(O)=C(O)C=C6)=C(O)C=C4O", "physical_data": {"Molecular Weight": "578.52", "Molecular Formula": "C30H26O12", "Melting Point": "204-205 \u00b0C (decomp)"}}