{"cas_no": "20316-62-5", "cn_name": "\u94f6\u6934\u7519", "en_name": ["Tiliroside", "4H-1-Benzopyran-4-one, 5,7-dihydroxy-2-(4-hydroxyphenyl)-3-[[6-O-[(2E)-3-(4-hydroxyphenyl)-1-oxo-2-propen-1-yl]-\u03b2-D-glucopyranosyl]oxy]-", "Tiliroside", "2-Propenoic acid, 3-(4-hydroxyphenyl)-, 6\u2032-ester with 3-(\u03b2-D-glucopyranosyloxy)-5,7-dihydroxy-2-(4-hydroxyphenyl)-4H-1-benzopyran-4-one, (E)-", "4H-1-Benzopyran-4-one, 5,7-dihydroxy-2-(4-hydroxyphenyl)-3-[[6-O-[(2E)-3-(4-hydroxyphenyl)-1-oxo-2-propenyl]-\u03b2-D-glucopyranosyl]oxy]-", "5,7-Dihydroxy-2-(4-hydroxyphenyl)-3-[[6-O-[(2E)-3-(4-hydroxyphenyl)-1-oxo-2-propen-1-yl]-\u03b2-D-glucopyranosyl]oxy]-4H-1-benzopyran-4-one", "4H-1-Benzopyran-4-one, 5,7-dihydroxy-2-(4-hydroxyphenyl)-3-[[6-O-[3-(4-hydroxyphenyl)-1-oxo-2-propenyl]-\u03b2-D-glucopyranosyl]oxy]-, (E)-", "3-O-Kaempferol 6-O-(trans-p-coumaroyl)-\u03b2-D-glucopyranoside", "Potengriffioside A", "Kaempferol 3-O-(6\u2032\u2032-trans-p-coumaroyl)-\u03b2-D-glucopyranoside", "Kaempferol-3-O-\u03b2-D-(6\u2032\u2032-trans-p-coumaroyl) glucopyranoside", "Kaempferol-3-O-\u03b2-D-(6\u2032\u2032-O-(E)-p-coumaroyl)glucopyranoside", "Kaempferol 3-O-\u03b2-D-(6\u2032\u2032-E-p-coumaroyl)glucopyranoside", "Kaempferol 3-O-[6\u2032\u2032-O-(trans-p-coumaroyl)]-\u03b2-D-glucopyranoside", "trans-Tiliroside", "Kaempferol 3-O-(6\u2032\u2032-O-p-coumaroyl)glucoside", "Astragalin-6\"", "-trans-p-coumarate", "Kaempferol 3-O-\u03b2-D-(6\u2032\u2032-O-p-coumaryl)glycoside", "Kaempferol 3-O-[6\u2032\u2032-O-(E)-p-coumaroyl]-\u03b2-D-glucopyranoside", "RonaCare Tiliroside", "Kaempferol 3-\u03b2-D-(6-O-trans-p-coumaryl)glucopyranoside", "Kaempferol 3-O-\u03b2-D-(6-O-trans-p-coumaroyl)glucopyranoside", "Kaempferol 3-O-\u03b2-D-6-O-(p-hydroxycinnamoyl)glucopyranoside", "Kaempferol 3-O-\u03b2-D-(6-O-trans-4-hydroxycinnamoyl)glucopyranoside", "Kaempferol-3-\u03b2-D-(6-O-trans-p-coumaroyl)glucopyranoside", "3-O-[6\u2032-O-(trans-p-Coumaroyl)-\u03b2-D-glucopyranosyl]kaempferol"], "SMILES": "O(C1=C(OC=2C(C1=O)=C(O)C=C(O)C2)C3=CC=C(O)C=C3)C4OC(COC(C=CC5=CC=C(O)C=C5)=O)C(O)C(O)C4O", "physical_data": {"Molecular Weight": "594.52", "Molecular Formula": "C30H26O13", "Melting Point": "247-256 \u00b0C"}}