{"cas_no": "2031-79-0", "cn_name": "\u516d\u4e59\u57fa\u73af\u4e09\u7845\u6c27\u70f7", "en_name": ["2,2,4,4,6,6-Hexaethylcyclotrisiloxane", "Cyclotrisiloxane, 2,2,4,4,6,6-hexaethyl-", "Cyclotrisiloxane, hexaethyl-", "2,2,4,4,6,6-Hexaethylcyclotrisiloxane", "Hexaethylcyclotrisiloxane", "1,1,3,3,5,5-Hexaethylcyclotrisiloxane", "2,2,4,4,6,6-Hexaethyl-1,3,5,2,4,6-trioxatrisilinane"], "SMILES": "C(C)[Si]1(CC)O[Si](CC)(CC)O[Si](CC)(CC)O1", "physical_data": {"Molecular Weight": "306.62", "Molecular Formula": "C12H30O3Si3", "Boiling Point": "117 \u00b0C @ Press: 10 Torr", "Melting Point": "14 \u00b0C", "Density": "0.955 g/cm\u00b3"}}