{"cas_no": "20315-68-8", "cn_name": "2,3,4,9-\u56db\u6c22-6-\u7532\u6c27\u57fa-1H-\u5421\u54af[3,4-B]\u5432\u54da", "en_name": ["Pinoline", "1H-Pyrido[3,4-b]indole, 2,3,4,9-tetrahydro-6-methoxy-", "2,3,4,9-Tetrahydro-6-methoxy-1H-pyrido[3,4-b]indole", "6-Methoxy-1,2,3,4-tetrahydro-\u03b2-carboline", "6-Methoxytetrahydro-\u03b2-carboline", "6-Methoxytryptoline", "Pinoline", "6-Methoxy-THBC", "6-Methoxy-1,2,3,4-tetrahydro-9H-pyrido[3,4-b]indole", "6-Methoxy-2,3,4,9-tetrahydro-1H-pyrido[3,4-b]indole"], "SMILES": "O(C)C=1C=C2C3=C(NC2=CC1)CNCC3", "physical_data": {"Molecular Weight": "202.25", "Molecular Formula": "C12H14N2O", "Boiling Point": "&lt;170 \u00b0C", "Melting Point": "220-223 \u00b0C"}}