{"cas_no": "20312-37-2", "cn_name": "(R)-2-\u7f9f\u57fa-4-\u7532\u57fa\u620a\u9178", "en_name": ["D-Leucic acid", "Pentanoic acid, 2-hydroxy-4-methyl-, (2R)-", "Valeric acid, 2-hydroxy-4-methyl-, D-", "Pentanoic acid, 2-hydroxy-4-methyl-, (R)-", "(2R)-2-Hydroxy-4-methylpentanoic acid", "D-2-Hydroxyisocaproic acid", "D-2-Hydroxy-4-methylvaleric acid", "D-2-Hydroxy-4-methylpentanoic acid", "(R)-2-Hydroxyisocaproic acid", "(R)-Leucic acid", "(R)-2-Hydroxy-4-methylpentanoic acid", "D-Leucic acid", "D-\u03b1-Hydroxyisocaproic acid", "(-)-\u03b1-Hydroxyisocaproic acid", "(-)-2-Hydroxyisocaproic acid", "(R)-2-Hydroxy-4-methylpentanoic acid"], "SMILES": "C(CC(C)C)(C(O)=O)O", "physical_data": {"Molecular Weight": "132.16", "Molecular Formula": "C6H12O3", "Melting Point": "76-80 \u00b0C"}}