{"cas_no": "20311-51-7", "cn_name": "\u6fb3\u6d32\u8304\u8fb9\u78b1", "en_name": ["Solamargine", "\u03b2-D-Glucopyranoside, (3\u03b2,22\u03b1,25R)-spirosol-5-en-3-yl O-6-deoxy-\u03b1-L-mannopyranosyl-(1\u21922)-O-[6-deoxy-\u03b1-L-mannopyranosyl-(1\u21924)]-", "Solamargine", "(3\u03b2,22\u03b1,25R)-Spirosol-5-en-3-yl O-6-deoxy-\u03b1-L-mannopyranosyl-(1\u21922)-O-[6-deoxy-\u03b1-L-mannopyranosyl-(1\u21924)]-\u03b2-D-glucopyranoside", "\u03b4-Solanigrine", "Solamargin", "\u03b1-Solamargine", "NSC 407810"], "SMILES": "CC12C3C(CC1C4C(CC2)C5(C)C(=CC4)CC(OC6C(OC7C(O)C(O)C(O)C(C)O7)C(O)C(OC8C(O)C(O)C(O)C(C)O8)C(CO)O6)CC5)OC9(C3C)CCC(C)CN9", "physical_data": {"Molecular Weight": "868.06", "Molecular Formula": "C45H73NO15", "Melting Point": "301 \u00b0C"}}