{"cas_no": "2031-23-4", "cn_name": "1-(3-\u6c2f\u4e19\u57fa)-4-\u7532\u57fa\u54cc\u55ea\u4e8c\u76d0\u9178\u76d0", "en_name": ["Piperazine, 1-(3-chloropropyl)-4-methyl-, hydrochloride (1:2)", "Piperazine, 1-(3-chloropropyl)-4-methyl-, hydrochloride (1:2)", "Piperazine, 1-(3-chloropropyl)-4-methyl-, dihydrochloride", "3-(4-Methyl-1-piperazinyl)propyl chloride dihydrochloride", "1-(3-Chloropropyl)-4-methylpiperazine dihydrochloride", "4-(3-Chloropropyl)-1-methylpiperazine dihydrochloride"], "SMILES": "C(CCCl)N1CCN(C)CC1.Cl", "physical_data": {"Molecular Weight": "", "Molecular Formula": "C8H17ClN2.2ClH", "Melting Point": "255-257 \u00b0C (decomp)"}}