{"cas_no": "20312-36-1", "cn_name": "L-3-\u82ef\u4e73\u9178", "en_name": ["(-)-3-Phenyllactic acid", "Benzenepropanoic acid, \u03b1-hydroxy-, (\u03b1S)-", "Lactic acid, 3-phenyl-, (S)-", "Benzenepropanoic acid, \u03b1-hydroxy-, (S)-", "(\u03b1S)-\u03b1-Hydroxybenzenepropanoic acid", "L-\u03b2-Phenyllactic acid", "L-2-Hydroxy-3-phenylpropionic acid", "\u03b2-Phenyl-L-lactic acid", "S-(-)-3-Phenyllactic acid", "(S)-2-Hydroxy-3-phenylpropionic acid", "(S)-Phenyllactic acid", "(-)-2-Hydroxy-3-phenylpropionic acid", "(S)-2-Hydroxy-3-phenylpropanoic acid", "(2S)-2-Hydroxy-3-phenylpropionic acid", "L-(-)-3-Phenyllactic acid", "(S)-\u03b2-Phenyllactic acid", "L-3-Phenyllactic acid", "(-)-3-Phenyllactic acid", "(S)-3-Phenyllactic acid", "(-)-\u03b2-Phenyllactic acid", "L-Phenyllactic acid", "(-)-2-Hydroxy-3-phenylpropanoic acid", "3-(S)-Phenyl lactic acid", "(2S)-2-Hydroxy-3-phenylpropanoic acid", "(2S)-2-Hydroxy-3-phenylpropanoic acid"], "SMILES": "C(C(C(O)=O)O)C1=CC=CC=C1", "physical_data": {"Molecular Weight": "166.17", "Molecular Formula": "C9H10O3", "Melting Point": "121 \u00b0C"}}