{"cas_no": "2031-62-1", "cn_name": "\u7532\u57fa\u4e8c\u4e59\u6c27\u57fa\u7845\u70f7", "en_name": ["Methyldiethoxysilane", "Silane, diethoxymethyl-", "Diethoxymethylsilane", "Methyldiethoxysilane", "NSC 139844", "DEMS"], "SMILES": "[SiH](OCC)(OCC)C", "physical_data": {"Molecular Weight": "134.25", "Molecular Formula": "C5H14O2Si", "Boiling Point": "94-95 \u00b0C", "Density": "0.829 g/cm\u00b3"}}