{"cas_no": "2031-67-6", "cn_name": "\u7532\u57fa\u4e09\u4e59\u6c27\u57fa\u7845\u70f7", "en_name": ["Triethoxymethylsilane", "Silane, triethoxymethyl-", "Triethoxymethylsilane", "Methaneorthosiliconic acid, triethyl ester", "Methyltriethoxysilane", "Triethoxysilylmethane", "A 162", "ICI-EP 5850", "TSL 8123", "Monomethyltriethoxysilane", "KBE 13LS1890", "KBE 13", "SZ 6072", "Silquest A 162", "LS 1890", "Dynasylan MTES", "NSC 5226", "SIM 6555.0", "ND 27", "SZ 6383", "Dynasylan MIES", "MTES", "Z 6383", "SZ 607", "KH 202", "D 150", "DX 701", "D 150 (silane)", "DB 8031", "WD 922", "KH 132", "CJ 8300", "Xiameter OFS 6370", "Geniosil M 1 Triethoxy", "Z 8383", "OFS 6383", "A 11180", "UP 301"], "SMILES": "[Si](OCC)(OCC)(OCC)C", "physical_data": {"Molecular Weight": "178.30", "Molecular Formula": "C7H18O3Si", "Boiling Point": "142 \u00b0C", "Density": "0.894 g/cm\u00b3"}}