{"cas_no": "20323-74-4", "cn_name": "2-\u6c28\u57fa-4,5-\u4e8c\u7532\u6c27\u57fa\u82ef\u7532\u9178\u4e59\u916f", "en_name": ["Benzoic acid, 2-amino-4,5-dimethoxy-, ethyl ester", "Benzoic acid, 2-amino-4,5-dimethoxy-, ethyl ester", "Veratric acid, 6-amino-, ethyl ester", "Ethyl 2-amino-4,5-dimethoxybenzoate", "Ethyl 6-aminoveratrate"], "SMILES": "C(OCC)(=O)C1=CC(OC)=C(OC)C=C1N", "physical_data": {"Molecular Weight": "225.24", "Molecular Formula": "C11H15NO4", "Melting Point": "88 \u00b0C"}}