{"cas_no": "2032-34-0", "cn_name": "\u6c30\u57fa\u4e59\u919b\u7f29\u4e8c\u4e59\u9187", "en_name": ["3,3-Diethoxypropionitrile", "Propanenitrile, 3,3-diethoxy-", "Acetaldehyde, cyano-, diethyl acetal", "3,3-Diethoxypropanenitrile", "Malonaldehydenitrile diethyl acetal", "3,3-Diethoxypropionitrile", "Cyanoacetaldehyde diethylacetal"], "SMILES": "C(CC#N)(OCC)OCC", "physical_data": {"Molecular Weight": "143.18", "Molecular Formula": "C7H13NO2", "Boiling Point": "99 \u00b0C @ Press: 14 Torr", "Density": "0.9496 g/cm\u00b3 @ Temp: 20 \u00b0C"}}