{"cas_no": "2032-35-1", "cn_name": "\u6eb4\u4ee3\u4e59\u919b\u7f29\u4e8c\u4e59\u9187", "en_name": ["Bromoacetaldehyde diethyl acetal", "Ethane, 2-bromo-1,1-diethoxy-", "Acetaldehyde, bromo-, diethyl acetal", "2-Bromo-1,1-diethoxyethane", "Bromacetal", "1,1-Diethoxy-2-bromoethane", "Bromoacetaldehyde diethyl acetal", "Diethyl bromoacetaldehyde acetal", "2-Bromoacetaldehyde diethyl acetal", "1-Bromo-2,2-diethoxyethane", "2,2-Diethoxyethyl bromide", "\u03b1-Bromoacetaldehyde diethyl acetal", "Bromacetaldehyde diethyl acetal", "Bromoacetal", "NSC 8036"], "SMILES": "C(OCC)(OCC)CBr", "physical_data": {"Molecular Weight": "197.07", "Molecular Formula": "C6H13BrO2", "Boiling Point": "57-58 \u00b0C @ Press: 9 Torr", "Density": "1.2960 g/cm\u00b3 @ Temp: 19 \u00b0C"}}