{"cas_no": "2032-75-9", "cn_name": "2,2-\u4e8c\u6c2f\u82ef\u5e76[D][1,3]\u4e8c\u6c27\u6742\u73af\u620a\u70ef", "en_name": ["2,2-Dichloro-1,3-benzodioxole", "1,3-Benzodioxole, 2,2-dichloro-", "Benzene, 1,2-[(dichloromethylene)dioxy]-", "2,2-Dichloro-1,3-benzodioxole", "Pyrocatechol dichloromethylene acetal", "2,2-Dichlorobenzodioxole", "2,2-Dichlorobenzodioxolane", "2,2-Dichlorobenzo[1,3]dioxol", "2,2-Dichloro-2H-1,3-benzodioxole"], "SMILES": "ClC1(Cl)OC=2C(O1)=CC=CC2", "physical_data": {"Molecular Weight": "191.01", "Molecular Formula": "C7H4Cl2O2", "Boiling Point": "85-85.5 \u00b0C @ Press: 12 Torr"}}