{"cas_no": "2032-33-9", "cn_name": "N-\u4e19\u57fa\u82c4\u80fa", "en_name": ["N-Propylbenzenemethanamine", "Benzenemethanamine, N-propyl-", "Benzylamine, N-propyl-", "N-Propylbenzenemethanamine", "N-Benzylpropylamine", "Benzylpropylamine", "N-Propylbenzylamine", "N-(Phenylmethyl)propylamine", "N-Benzyl-1-propanamine", "Propylbenzylamine"], "SMILES": "C(NCCC)C1=CC=CC=C1", "physical_data": {"Molecular Weight": "149.23", "Molecular Formula": "C10H15N", "Boiling Point": "102-108 \u00b0C @ Press: 12 Torr"}}