{"cas_no": "2032-65-7", "cn_name": "\u7532\u786b\u5a01", "en_name": ["Methiocarb", "Phenol, 3,5-dimethyl-4-(methylthio)-, 1-(N-methylcarbamate)", "Phenol, 3,5-dimethyl-4-(methylthio)-, methylcarbamate", "Carbamic acid, methyl-, 4-(methylthio)-3,5-xylyl ester", "B 37344", "BAY 37344", "Mesurol", "4-Methylthio-3,5-dimethylphenyl methylcarbamate", "4-(Methylthio)-3,5-xylyl methylcarbamate", "Metmercapturon", "BAY 5024", "DCR 736", "Mercaptodimethur", "Mesurol phenol", "Methiocarb", "4-(Methylthio)-3,5-xylyl-N-methylcarbamate", "SD 9228", "3,5-Dimethyl-4-(methylthio)phenyl methylcarbamate", "Draza", "Mesurol 50", "Mesurol 500FS", "MeSH ID: D008714"], "SMILES": "O(C(NC)=O)C1=CC(C)=C(SC)C(C)=C1", "physical_data": {"Molecular Weight": "225.31", "Molecular Formula": "C11H15NO2S", "Melting Point": "119 \u00b0C"}}