{"cas_no": "20329-96-8", "cn_name": "3,4,5-\u4e09\u7532\u57fa\u8089\u6842\u9178\u7532\u916f", "en_name": ["Methyl (E)-3,4,5-trimethoxycinnamate", "2-Propenoic acid, 3-(3,4,5-trimethoxyphenyl)-, methyl ester, (2E)-", "Cinnamic acid, 3,4,5-trimethoxy-, methyl ester, (E)-", "2-Propenoic acid, 3-(3,4,5-trimethoxyphenyl)-, methyl ester, (E)-", "Methyl trans-3-(3,4,5-trimethoxyphenyl)acrylate", "Methyl 3,4,5-trimethoxy-trans-cinnamate", "Methyl trans-3,4,5-trimethoxycinnamate", "Methyl (E)-3,4,5-trimethoxycinnamate", "trans-3-(3,4,5-Tri-methoxyphenyl-3-Propenoic acid methyl ester"], "SMILES": "O(C)C1=C(OC)C=C(C=CC(OC)=O)C=C1OC", "physical_data": {"Molecular Weight": "252.26", "Molecular Formula": "C13H16O5", "Melting Point": "229-231 \u00b0C (decomp)"}}