{"cas_no": "20324-33-8", "cn_name": "\u4e09\u4e19\u4e8c\u9187\u5355\u7532\u919a", "en_name": ["1-[2-(2-Methoxy-1-methylethoxy)-1-methylethoxy]-2-propanol", "2-Propanol, 1-[2-(2-methoxy-1-methylethoxy)-1-methylethoxy]-", "1-[2-(2-Methoxy-1-methylethoxy)-1-methylethoxy]-2-propanol", "Dowanol 62B", "2-[2-(2-Methoxy-1-methylethoxy)-1-methylethoxy]-1-methylethanol", "1-[1-(1-Methoxypropan-2-yloxy)propan-2-yloxy]propan-2-ol", "1-((1-((1-Methoxypropan-2-yl)oxy)propan-2-yl)oxy)propan-2-ol", "Celtol TPM"], "SMILES": "C(COC(COC)C)(OCC(C)O)C", "physical_data": {"Molecular Weight": "206.28", "Molecular Formula": "C10H22O4", "Boiling Point": "250 \u00b0C", "Melting Point": "&lt;25 \u00b0C", "Density": "1.0192 g/cm\u00b3 @ Temp: 20 \u00b0C"}}