{"cas_no": "20329-98-0", "cn_name": "3,4,5-\u4e09\u7532\u6c27\u57fa\u8089\u6842\u9178", "en_name": ["(E)-3,4,5-Trimethoxycinnamic acid", "2-Propenoic acid, 3-(3,4,5-trimethoxyphenyl)-, (2E)-", "Cinnamic acid, 3,4,5-trimethoxy-, (E)-", "2-Propenoic acid, 3-(3,4,5-trimethoxyphenyl)-, (E)-", "(2E)-3-(3,4,5-Trimethoxyphenyl)-2-propenoic acid", "3,4,5-Trimethoxy-trans-cinnamic acid", "(E)-3,4,5-Trimethoxycinnamic acid", "(E)-3,4,5-Trimethoxyphenylacrylic acid", "trans-3,4,5-Trimethoxycinnamic acid", "(E)-3-(3,4,5-Trimethoxyphenyl)acrylic acid", "(E)-3-(3,4,5-Trimethoxyphenyl)acrylic acid", "(E)-3,4,5-Trimethoxycinnamic acid"], "SMILES": "O(C)C1=C(OC)C(OC)=CC(C=CC(O)=O)=C1", "physical_data": {"Molecular Weight": "238.24", "Molecular Formula": "C12H14O5", "Melting Point": "124-125 \u00b0C"}}