{"cas_no": "2033-89-8", "cn_name": "3,4-\u4e8c\u7532\u6c27\u57fa\u82ef\u915a", "en_name": ["3,4-Dimethoxyphenol", "Phenol, 3,4-dimethoxy-", "3,4-Dimethoxyphenol", "NSC 140927", "3,4-Bis(methyloxy)phenol"], "SMILES": "O(C)C1=C(OC)C=C(O)C=C1", "physical_data": {"Molecular Weight": "154.16", "Molecular Formula": "C8H10O3", "Boiling Point": "168-170 \u00b0C", "Melting Point": "79-80 \u00b0C"}}