{"cas_no": "2033-76-3", "cn_name": "1-(2-\u6eb4\u4e59\u6c27\u57fa)-4-\u6c2f\u82ef", "en_name": ["1-(2-Bromoethoxy)-4-chlorobenzene", "Benzene, 1-(2-bromoethoxy)-4-chloro-", "Phenetole, \u03b2-bromo-p-chloro-", "1-(2-Bromoethoxy)-4-chlorobenzene", "\u03b2-Bromo-p-chlorophenetole", "2-(p-Chlorophenoxy)ethyl bromide", "4-Chlorophenoxyethyl bromide", "1-Bromo-2-(4-chlorophenoxy)ethane", "2-(4-Chlorophenoxy)ethyl bromide", "4-(2-Bromoethoxy)-1-chlorobenzene", "NSC 404198", "2-Bromoethyl 4-chlorophenyl ether", "4-Chlorophenyl 2-bromoethyl ether"], "SMILES": "O(CCBr)C1=CC=C(Cl)C=C1", "physical_data": {"Molecular Weight": "235.51", "Molecular Formula": "C8H8BrClO", "Boiling Point": "165-168 \u00b0C @ Press: 20 Torr", "Melting Point": "40-41 \u00b0C"}}