{"cas_no": "2033-24-1", "cn_name": "\u4e19\u4e8c\u9178\u73af(\u4e9a)\u5f02\u4e19\u916f", "en_name": ["2,2-Dimethyl-1,3-dioxane-4,6-dione", "1,3-Dioxane-4,6-dione, 2,2-dimethyl-", "Malonic acid, cyclic isopropylidene ester", "2,2-Dimethyl-1,3-dioxane-4,6-dione", "Meldrum's acid", "2,2-Propanediol cyclic malonate", "Cyclic isopropylidene malonate", "2,2-Dimethyl-m-dioxane-4,6-dione", "Isopropylidene malonate", "2,2-Dimethyl-4,6-dioxo-1,3-dioxane", "Meldrumic acid", "2,2-Dimethyl-1,3-dioxan-4,6-dione", "NSC 688343", "NSC 71902", "N,N-Dimethyl-1-4-aminobilidine"], "SMILES": "CC1(C)OC(=O)CC(=O)O1", "physical_data": {"Molecular Weight": "144.13", "Molecular Formula": "C6H8O4", "Boiling Point": "116-120 \u00b0C @ Press: 14 Torr", "Melting Point": "94 \u00b0C"}}