{"cas_no": "2033-94-5", "cn_name": "", "en_name": ["2-Methyl-1-phenyl-3-butyne-1,2-diol", "3-Butyne-1,2-diol, 2-methyl-1-phenyl-", "2-Methyl-1-phenyl-3-butyne-1,2-diol", "Centalun", "3-Methyl-3,4-dihydroxy-4-phenyl-1-butyne"], "SMILES": "C(C(C#C)(C)O)(O)C1=CC=CC=C1", "physical_data": {"Molecular Weight": "176.21", "Molecular Formula": "C11H12O2", "Melting Point": "62-65 \u00b0C"}}