{"cas_no": "20333-39-5", "cn_name": "\u4e59\u57fa\u7532\u57fa\u4e8c\u786b\u919a", "en_name": ["Ethyl methyl disulfide", "Disulfide, ethyl methyl", "Ethanesulfenothioic acid, methyl ester", "Ethyl methyl disulfide", "Methyl ethyl disulfide", "2,3-Dithiapentane"], "SMILES": "S(CC)SC", "physical_data": {"Molecular Weight": "108.23", "Molecular Formula": "C3H8S2", "Boiling Point": "66.6 \u00b0C", "Melting Point": "-105.91 \u00b0C", "Density": "0.8369 g/cm\u00b3 @ Temp: 25 \u00b0C"}}