{"cas_no": "2033-30-9", "cn_name": "5,6-\u4e8c\u7532\u57fa-2-\u82ef\u5e76\u54aa\u5511\u5549\u916e", "en_name": ["1,3-Dihydro-5,6-dimethyl-2H-benzimidazol-2-one", "2H-Benzimidazol-2-one, 1,3-dihydro-5,6-dimethyl-", "2-Benzimidazolinone, 5,6-dimethyl-", "1,3-Dihydro-5,6-dimethyl-2H-benzimidazol-2-one", "5,6-Dimethyl-2-benzimidazolinone", "NSC 163165"], "SMILES": "CC=1C=C2C(=CC1C)NC(=O)N2", "physical_data": {"Molecular Weight": "162.19", "Molecular Formula": "C9H10N2O", "Melting Point": "&gt;345 \u00b0C"}}