{"cas_no": "2033-42-3", "cn_name": "1-\u7898-2-\u8418\u915a", "en_name": ["1-Iodo-2-naphthalenol", "2-Naphthalenol, 1-iodo-", "2-Naphthol, 1-iodo-", "1-Iodo-2-naphthalenol", "1-Iodo-2-naphthol", "NSC 87885", "2-Hydroxy-1-iodonaphthalene", "1-Iodo-2-hydroxynaphthalene"], "SMILES": "IC=1C2=C(C=CC1O)C=CC=C2", "physical_data": {"Molecular Weight": "270.07", "Molecular Formula": "C10H7IO", "Melting Point": "94.5 \u00b0C"}}