{"cas_no": "2033-45-6", "cn_name": "3,5-\u4e8c\u7532\u57fa-4-\u7898\u5421\u5511", "en_name": ["4-Iodo-3,5-dimethyl-1H-pyrazole", "1H-Pyrazole, 4-iodo-3,5-dimethyl-", "Pyrazole, 4-iodo-3,5-dimethyl-", "4-Iodo-3,5-dimethyl-1H-pyrazole", "4-Iodo-3,5-dimethylpyrazole", "NSC 100887", "3,5-Dimethyl-4-iodopyrazole", "3,5-Dimethyl-4-iodo-1H-pyrazole"], "SMILES": "IC=1C(C)=NNC1C", "physical_data": {"Molecular Weight": "222.03", "Molecular Formula": "C5H7IN2", "Melting Point": "137 \u00b0C"}}