{"cas_no": "20332-10-9", "cn_name": "\u4e8c\u82ef\u57fa\u786b\u5316\u9521", "en_name": ["Diphenylthioxostannane", "Stannane, diphenylthioxo-", "Diphenyltin sulfide", "Tin, diphenylthioxo-", "Diphenylthioxostannane"], "SMILES": "[Sn](=S)(C1=CC=CC=C1)C2=CC=CC=C2", "physical_data": {"Molecular Weight": "304.98", "Molecular Formula": "C12H10SSn", "Melting Point": "181-182 \u00b0C"}}