{"cas_no": "2034-65-3", "cn_name": "5-\u8131\u6c27\u83b0\u975e\u9187", "en_name": ["3,4\u2032,7-Trihydroxyflavone", "4H-1-Benzopyran-4-one, 3,7-dihydroxy-2-(4-hydroxyphenyl)-", "Flavone, 3,4\u2032,7-trihydroxy-", "3,7-Dihydroxy-2-(4-hydroxyphenyl)-4H-1-benzopyran-4-one", "Resokaempferol", "4\u2032,7-Dihydroxyflavonol", "3,4\u2032,7-Trihydroxyflavone", "3,7,4\u2032-Trihydroxyflavone", "5-Deoxykaempferol", "7,4\u2032-Dihydroxyflavonol", "5-Dehydroxykaempferol"], "SMILES": "OC1=C(OC=2C(C1=O)=CC=C(O)C2)C3=CC=C(O)C=C3", "physical_data": {"Molecular Weight": "270.24", "Molecular Formula": "C15H10O5", "Melting Point": "280 \u00b0C (decomp)"}}