{"cas_no": "20348-16-7", "cn_name": "2-\u6c28\u57fa-3-\u7f9f\u57fa-6-\u7532\u57fa\u5421\u5576", "en_name": ["2-Amino-6-methyl-3-pyridinol", "3-Pyridinol, 2-amino-6-methyl-", "2-Amino-6-methyl-3-pyridinol", "3-Hydroxy-6-methyl-2-pyridinamine", "2-Amino-3-hydroxy-6-methylpyridine", "(3-Hydroxy-6-methylpyridin-2-yl)amine", "2-Amino-6-methylpyridinyl-3-ol"], "SMILES": "NC1=C(O)C=CC(C)=N1", "physical_data": {"Molecular Weight": "124.14", "Molecular Formula": "C6H8N2O", "Melting Point": "153-154.5 \u00b0C"}}