{"cas_no": "2034-22-2", "cn_name": "2,4,5-\u4e09\u6eb4\u54aa\u5511", "en_name": ["2,4,5-Tribromoimidazole", "1H-Imidazole, 2,4,5-tribromo-", "Imidazole, 2,4,5-tribromo-", "2,4,5-Tribromo-1H-imidazole", "2,4,5-Tribromoimidazole", "NSC 514965"], "SMILES": "BrC1=C(Br)N=C(Br)N1", "physical_data": {"Molecular Weight": "304.77", "Molecular Formula": "C3HBr3N2", "Melting Point": "218 \u00b0C (decomp)"}}