{"cas_no": "20344-46-1", "cn_name": "\u85e4\u9ec4\u83cc\u7d20", "en_name": ["Galuteolin", "4H-1-Benzopyran-4-one, 2-(3,4-dihydroxyphenyl)-5-(\u03b2-D-glucopyranosyloxy)-7-hydroxy-", "Flavone, 3\u2032,4\u2032,5,7-tetrahydroxy-, 5-\u03b2-D-glucopyranoside", "2-(3,4-Dihydroxyphenyl)-5-(\u03b2-D-glucopyranosyloxy)-7-hydroxy-4H-1-benzopyran-4-one", "Luteolin 5-glucoside", "Luteolin 5-\u03b2-D-glucopyranoside", "Galuteolin", "Luteolin 5-O-\u03b2-D-glucopyranoside", "Luteolin-5-O-glucoside", "Luteolin-5-O-\u03b2-D-glucoside"], "SMILES": "O(C1=C2C(OC(=CC2=O)C3=CC(O)=C(O)C=C3)=CC(O)=C1)C4OC(CO)C(O)C(O)C4O", "physical_data": {"Molecular Weight": "448.38", "Molecular Formula": "C21H20O11", "Melting Point": "260-263 \u00b0C"}}