{"cas_no": "20348-09-8", "cn_name": "2H-\u5421\u5576\u5e76[3,2-b][1,4]\u6076\u55ea-3(4H)-\u916e", "en_name": ["2H-Pyrido[3,2-b]-1,4-oxazin-3(4H)-one", "2H-Pyrido[3,2-b]-1,4-oxazin-3(4H)-one", "2H-Pyrido[3,2-b][1,4]oxazin-3-one", "NSC 122276", "4H-Pyrido[3,2-b][1,4]oxazin-3-one", "2H,3H,4H-Pyrido[3,2-b][1,4]oxazin-3-one"], "SMILES": "O=C1NC=2C(OC1)=CC=CN2", "physical_data": {"Molecular Weight": "150.13", "Molecular Formula": "C7H6N2O2", "Melting Point": "190-192 \u00b0C"}}