{"cas_no": "20347-65-3", "cn_name": "1-\u4e59\u9178\u51b0\u7247\u916f", "en_name": ["(+)-Borneol acetate", "Bicyclo[2.2.1]heptan-2-ol, 1,7,7-trimethyl-, 2-acetate, (1R,2S,4R)-", "Bicyclo[2.2.1]heptan-2-ol, 1,7,7-trimethyl-, acetate, (1R-endo)-", "2-Bornanol, acetate, (1R,2S,4R)-(+)-", "Bicyclo[2.2.1]heptan-2-ol, 1,7,7-trimethyl-, acetate, (1R,2S,4R)-", "Borneol, d-, acetate", "d-Bornyl acetate", "(+)-Bornyl, acetate", "(+)-Borneol acetate"], "SMILES": "CC12C(OC(C)=O)CC(C1(C)C)CC2", "physical_data": {"Molecular Weight": "196.29", "Molecular Formula": "C12H20O2", "Boiling Point": "105-107 \u00b0C @ Press: 15 Torr"}}