{"cas_no": "2034-74-4", "cn_name": "7-\u916e\u57fa-\u0392-\u8c37\u753e\u9187", "en_name": ["7-Ketositosterol", "Stigmast-5-en-7-one, 3-hydroxy-, (3\u03b2)-", "Stigmast-5-en-7-one, 3\u03b2-hydroxy-", "(3\u03b2)-3-Hydroxystigmast-5-en-7-one", "Stigmast-5-en-3\u03b2-ol-7-one", "7-Oxo-\u03b2-sitosterol", "7-Oxositosterol", "7-Keto-\u03b2-sitosterol", "3\u03b2-Hydroxystigmast-5-en-7-one", "(24R)-3\u03b2-Hydroxystigmast-5-en-7-one", "3-Hydroxy-24-ethyl-5-cholestene-7-one", "7-Ketositosterol", "(24R)-3\u03b2-Hydroxy-24-ethylcholest-5-en-7-one", "(24R)-Ethylcholest-5-en-3\u03b2-ol-7-one", "7-keto-Sitosterol", "7-Oxysitosterol"], "SMILES": "CC12C(C3C(C4(C)C(=CC3=O)CC(O)CC4)CC1)CCC2C(CCC(C(C)C)CC)C", "physical_data": {"Molecular Weight": "428.69", "Molecular Formula": "C29H48O2", "Melting Point": "120-123 \u00b0C"}}