{"cas_no": "2034-69-7", "cn_name": "\u897f\u745e\u9999\u7d20", "en_name": ["Daphnoretin", "2H-1-Benzopyran-2-one, 7-hydroxy-6-methoxy-3-[(2-oxo-2H-1-benzopyran-7-yl)oxy]-", "Coumarin, 7-hydroxy-6-methoxy-3,7\u2032-oxydi-", "7-Hydroxy-6-methoxy-3-[(2-oxo-2H-1-benzopyran-7-yl)oxy]-2H-1-benzopyran-2-one", "Daphnoretin", "Thymelol", "NSC 291852"], "SMILES": "O(C1=CC=2C(OC1=O)=CC(O)=C(OC)C2)C=3C=C4C(=CC3)C=CC(=O)O4", "physical_data": {"Molecular Weight": "352.29", "Molecular Formula": "C19H12O7", "Melting Point": "249-250 \u00b0C"}}