{"cas_no": "2035-99-6", "cn_name": "\u8f9b\u9178\u5f02\u620a\u916f", "en_name": ["Isoamyl octanoate", "Octanoic acid, 3-methylbutyl ester", "Octanoic acid, isopentyl ester", "Isopentyl alcohol, octanoate", "Isoamyl caprylate", "Isoamyl octanoate", "Isopentyl octanoate", "3-Methylbutyl octanoate"], "SMILES": "O(C(CCCCCCC)=O)CCC(C)C", "physical_data": {"Molecular Weight": "214.34", "Molecular Formula": "C13H26O2", "Boiling Point": "267-268 \u00b0C"}}