{"cas_no": "2035-72-5", "cn_name": "2-\u7f9f\u57fa-4-(\u7532\u57fa\u4e19\u70ef\u9170\u6c27\u57fa)\u4e8c\u82ef\u7532\u916e", "en_name": ["2-Hydroxy-4-(methacryloyloxy)benzophenone", "2-Propenoic acid, 2-methyl-, 4-benzoyl-3-hydroxyphenyl ester", "Methacrylic acid, 4-ester with 2,4-dihydroxybenzophenone", "Methacrylic acid, 4-benzoyl-3-hydroxyphenyl ester", "Benzophenone, 2,4-dihydroxy-, 4-methacrylate", "2-Hydroxy-4-(methacryloyloxy)benzophenone", "(3-Hydroxy-4-benzoyl)phenyl methacrylate", "4-Methacryloyloxy-2-hydroxybenzophenone", "4-Methacryloxy-2-hydroxybenzophenone", "2-Methyl-acrylic acid 4-benzoyl-3-hydroxy-phenyl ester"], "SMILES": "C(=O)(C1=C(O)C=C(OC(C(C)=C)=O)C=C1)C2=CC=CC=C2", "physical_data": {"Molecular Weight": "282.29", "Molecular Formula": "C17H14O4", "Melting Point": "77-78 \u00b0C"}}