{"cas_no": "20358-05-8", "cn_name": "2-\u6c28\u57fa-7-\u6eb4\u82ef\u5e76\u567b\u5511", "en_name": ["7-Bromo-2-benzothiazolamine", "2-Benzothiazolamine, 7-bromo-", "Benzothiazole, 2-amino-7-bromo-", "7-Bromo-2-benzothiazolamine", "2-Amino-7-bromobenzothiazole", "7-Bromobenzo[d]thiazol-2-amine"], "SMILES": "BrC1=C2C(N=C(N)S2)=CC=C1", "physical_data": {"Molecular Weight": "229.10", "Molecular Formula": "C7H5BrN2S", "Melting Point": "189-191 \u00b0C"}}