{"cas_no": "2035-15-6", "cn_name": "(-)-MAACKIAIN", "en_name": ["(-)-Maackiain", "6H-[1,3]Dioxolo[5,6]benzofuro[3,2-c][1]benzopyran-3-ol, 6a,12a-dihydro-, (6aR,12aR)-", "Maackiain", "6H-[1,3]Dioxolo[5,6]benzofuro[3,2-c][1]benzopyran-3-ol, 6a\u03b1,12a\u03b1-dihydro-, (-)-", "6H-[1,3]Dioxolo[5,6]benzofuro[3,2-c][1]benzopyran-3-ol, 6a,12a-dihydro-, (6aR-cis)-", "(6aR,12aR)-6a,12a-Dihydro-6H-[1,3]dioxolo[5,6]benzofuro[3,2-c][1]benzopyran-3-ol", "Inermin", "(-)-Maackiain", "Trifolirhizin aglycone", "Maackiaine", "Inermine", "l-Maackiain", "(-)-(6aR,12aR)-maackiain"], "SMILES": "OC=1C=C2C(C3C(C=4C(O3)=CC5=C(C4)OCO5)CO2)=CC1", "physical_data": {"Molecular Weight": "284.26", "Molecular Formula": "C16H12O5", "Melting Point": "178.5-179.0 \u00b0C"}}