{"cas_no": "20358-00-3", "cn_name": "2-\u6c28\u57fa-5-\u6c2f\u82ef\u5e76\u567b\u5511", "en_name": ["5-Chloro-2-benzothiazolamine", "2-Benzothiazolamine, 5-chloro-", "Benzothiazole, 2-amino-5-chloro-", "5-Chloro-2-benzothiazolamine", "2-Amino-5-chlorobenzothiazole", "5-Chloro-2-aminobenzothiazole", "5-Chloro-2-benzothiazolylamine", "NSC 44454", "NSC 56970", "5-Chlorobenzo[d]thiazol-2-amine"], "SMILES": "NC=1SC=2C(N1)=CC(Cl)=CC2", "physical_data": {"Molecular Weight": "184.65", "Molecular Formula": "C7H5ClN2S", "Melting Point": "196-198 \u00b0C"}}