{"cas_no": "20357-20-4", "cn_name": "5-\u6eb4-2-\u785d\u57fa\u82ef\u7532\u919b", "en_name": ["5-Bromo-2-nitrobenzaldehyde", "Benzaldehyde, 5-bromo-2-nitro-", "5-Bromo-2-nitrobenzaldehyde", "2-Nitro-5-bromobenzaldehyde", "NSC 107452"], "SMILES": "C(=O)C1=C(N(=O)=O)C=CC(Br)=C1", "physical_data": {"Molecular Weight": "230.02", "Molecular Formula": "C7H4BrNO3", "Melting Point": "68-69 \u00b0C"}}