{"cas_no": "2035-89-4", "cn_name": "\u7532\u919b\u4e8c\u7532\u57fa\u8159", "en_name": ["Formaldehyde, dimethylhydrazone", "Formaldehyde, dimethylhydrazone", "Dimethylmethylenehydrazine", "Formaldehyde 2,2-dimethylhydrazone", "NSC 516745"], "SMILES": "N(N=C)(C)C", "physical_data": {"Molecular Weight": "72.11", "Molecular Formula": "C3H8N2", "Boiling Point": "72 \u00b0C @ Press: 730 Torr", "Melting Point": "-103 \u00b0C", "Density": "0.8125 g/cm\u00b3 @ Temp: 20 \u00b0C"}}