{"cas_no": "203569-15-7", "cn_name": "3-\u6eb4-5-\u7532\u57fa\u5421\u5576-4-\u7532\u919b", "en_name": ["3-Bromo-5-methyl-4-pyridinecarboxaldehyde", "4-Pyridinecarboxaldehyde, 3-bromo-5-methyl-", "3-Bromo-5-methyl-4-pyridinecarboxaldehyde", "3-Bromo-5-methylpyridine-4-carbaldehyde", "3-Bromo-4-formyl-5-methylpyridine"], "SMILES": "C(=O)C=1C(Br)=CN=CC1C", "physical_data": {"Molecular Weight": "200.03", "Molecular Formula": "C7H6BrNO", "Melting Point": "67 \u00b0C"}}