{"cas_no": "20358-03-6", "cn_name": "2-\u6c28\u57fa-5-\u6eb4\u567b\u5511", "en_name": ["5-Bromo-2-benzothiazolamine", "2-Benzothiazolamine, 5-bromo-", "Benzothiazole, 2-amino-5-bromo-", "5-Bromo-2-benzothiazolamine", "(5-Bromobenzothiazol-2-yl)amine", "2-Amino-5-bromobenzothiazole", "5-Bromobenzo[d]thiazol-2-amine", "2-Amino-5-bromo-1,3-benzothiazole", "5-Bromo-2-aminobenzothiazole"], "SMILES": "NC=1SC=2C(N1)=CC(Br)=CC2", "physical_data": {"Molecular Weight": "229.10", "Molecular Formula": "C7H5BrN2S", "Melting Point": "195-197 \u00b0C"}}