{"cas_no": "20358-02-5", "cn_name": "2-\u6c28\u57fa-4-\u6eb4\u82ef\u5e76\u567b\u5511", "en_name": ["4-Bromo-2-benzothiazolamine", "2-Benzothiazolamine, 4-bromo-", "Benzothiazole, 2-amino-4-bromo-", "4-Bromo-2-benzothiazolamine", "2-Amino-4-bromobenzothiazole", "4-Bromobenzo[d]thiazol-2-amine", "2-Amino-4-bromo-1,3-benzothiazole"], "SMILES": "BrC1=C2C(SC(N)=N2)=CC=C1", "physical_data": {"Molecular Weight": "229.10", "Molecular Formula": "C7H5BrN2S", "Melting Point": "182-184 \u00b0C"}}