{"cas_no": "2035-75-8", "cn_name": "\u5df1\u4e8c\u9178\u9150", "en_name": ["Adipic anhydride", "2,7-Oxepanedione", "Adipic anhydride", "Hexanedioic anhydride", "Butanedicarboxylic anhydride", "Hexanedioic acid, anhydride", "Cyclic adipic anhydride"], "SMILES": "O=C1OC(=O)CCCC1", "physical_data": {"Molecular Weight": "128.13", "Molecular Formula": "C6H8O3", "Boiling Point": "135-190 \u00b0C @ Press: 8 Torr", "Melting Point": "60-64 \u00b0C"}}