{"cas_no": "20358-01-4", "cn_name": "7-\u6c2f\u82ef\u5e76\u567b\u55112-\u80fa", "en_name": ["7-Chloro-2-benzothiazolamine", "2-Benzothiazolamine, 7-chloro-", "Benzothiazole, 2-amino-7-chloro-", "7-Chloro-2-benzothiazolamine", "2-Amino-7-chlorobenzothiazole"], "SMILES": "ClC1=C2C(N=C(N)S2)=CC=C1", "physical_data": {"Molecular Weight": "184.65", "Molecular Formula": "C7H5ClN2S", "Melting Point": "177-178 \u00b0C"}}