{"cas_no": "20350-15-6", "cn_name": "\u5e03\u96f7\u975e\u5fb7\u83cc\u7d20 A", "en_name": ["Brefeldin A", "4H-Cyclopent[f]oxacyclotridecin-4-one, 1,6,7,8,9,11a,12,13,14,14a-decahydro-1,13-dihydroxy-6-methyl-, (1R,2E,6S,10E,11aS,13S,14aR)-", "4H-Cyclopent[f]oxacyclotridecin-4-one, 1,6,7,8,9,11a\u03b2,12,13,14,14a\u03b1-decahydro-1\u03b2,13\u03b1-dihydroxy-6\u03b2-methyl-", "4H-Cyclopent[f]oxacyclotridecin-4-one, 1,6,7,8,9,11a,12,13,14,14a-decahydro-1,13-dihydroxy-6-methyl-, [1R-(1R*,2E,6S*,10E,11aS*,13S*,14aR*)]-", "(1R,2E,6S,10E,11aS,13S,14aR)-1,6,7,8,9,11a,12,13,14,14a-Decahydro-1,13-dihydroxy-6-methyl-4H-cyclopent[f]oxacyclotridecin-4-one", "Brefeldin A", "Ascotoxin", "Cyanein", "Decumbin", "Cyanaein", "Nectrolide", "Synergisidin", "(+)-Brefeldin A", "Brefeldin", "NSC 107456", "NSC 244390", "NSC 56310", "NSC 89671", "MeSH ID: D020126"], "SMILES": "OC1C2C(CC(O)C2)C=CCCCC(C)OC(=O)C=C1", "physical_data": {"Molecular Weight": "280.36", "Molecular Formula": "C16H24O4", "Melting Point": "190 \u00b0C"}}