{"cas_no": "20357-21-5", "cn_name": "2-\u6eb4-6-\u785d\u57fa\u82ef\u7532\u919b", "en_name": ["2-Bromo-6-nitrobenzaldehyde", "Benzaldehyde, 2-bromo-6-nitro-", "2-Bromo-6-nitrobenzaldehyde"], "SMILES": "C(=O)C1=C(N(=O)=O)C=CC=C1Br", "physical_data": {"Molecular Weight": "230.02", "Molecular Formula": "C7H4BrNO3", "Melting Point": "82 \u00b0C"}}