{"cas_no": "20357-25-9", "cn_name": "6-\u785d\u57fa\u85dc\u82a6\u919b", "en_name": ["DMNB", "Benzaldehyde, 4,5-dimethoxy-2-nitro-", "Veratraldehyde, 6-nitro-", "4,5-Dimethoxy-2-nitrobenzaldehyde", "3,4-Dimethoxy-6-nitrobenzaldehyde", "6-Nitroveratraldehyde", "4-O-Methyl-6-nitrovanillin", "2-Nitro-4,5-dimethoxybenzaldehyde", "NSC 65590", "DMNB"], "SMILES": "N(=O)(=O)C1=C(C=O)C=C(OC)C(OC)=C1", "physical_data": {"Molecular Weight": "211.17", "Molecular Formula": "C9H9NO5", "Melting Point": "133 \u00b0C"}}