{"cas_no": "20357-15-7", "cn_name": "1,2-\u4e8c\u7532\u57fa\u5432\u54da-3-\u7532\u9178", "en_name": ["1,2-Dimethyl-1H-indole-3-carboxylic acid", "1H-Indole-3-carboxylic acid, 1,2-dimethyl-", "Indole-3-carboxylic acid, 1,2-dimethyl-", "1,2-Dimethyl-1H-indole-3-carboxylic acid", "1,2-Dimethylindole-3-carboxylic acid"], "SMILES": "C(O)(=O)C=1C=2C(N(C)C1C)=CC=CC2", "physical_data": {"Molecular Weight": "189.21", "Molecular Formula": "C11H11NO2", "Melting Point": "185 \u00b0C"}}