{"cas_no": "20358-06-9", "cn_name": "2-\u6c28\u57fa-4-\u6c1f\u82ef\u5e76\u567b\u5511", "en_name": ["4-Fluoro-2-benzothiazolamine", "2-Benzothiazolamine, 4-fluoro-", "Benzothiazole, 2-amino-4-fluoro-", "4-Fluoro-2-benzothiazolamine", "2-Amino-4-fluorobenzothiazole", "(4-Fluorobenzothiazol-2-yl)amine", "4-Fluorobenzothiazol-2-amine"], "SMILES": "FC1=C2C(SC(N)=N2)=CC=C1", "physical_data": {"Molecular Weight": "168.19", "Molecular Formula": "C7H5FN2S", "Boiling Point": "101 \u00b0C @ Press: 760 Torr"}}