{"cas_no": "2036-41-1", "cn_name": "5-\u7532\u57fa\u5627\u5576", "en_name": ["5-Methylpyrimidine", "Pyrimidine, 5-methyl-", "5-Methylpyrimidine", "5-Methyl-1,3-diazine"], "SMILES": "CC=1C=NC=NC1", "physical_data": {"Molecular Weight": "94.11", "Molecular Formula": "C5H6N2", "Boiling Point": "153 \u00b0C", "Melting Point": "30.5 \u00b0C"}}