{"cas_no": "2036-13-7", "cn_name": "6-\u6c30\u560c\u5464", "en_name": ["9H-Purine-6-carbonitrile", "9H-Purine-6-carbonitrile", "Purine-6-carbonitrile", "1H-Purine-6-carbonitrile", "6-Cyanopurine", "NSC 21625"], "SMILES": "C(#N)C1=C2C(N=CN2)=NC=N1", "physical_data": {"Molecular Weight": "145.12", "Molecular Formula": "C6H3N5", "Melting Point": "177-178 \u00b0C"}}