{"cas_no": "20362-31-6", "cn_name": "\u725b\u84a1\u82f7", "en_name": ["Arctiin", "2(3H)-Furanone, 4-[(3,4-dimethoxyphenyl)methyl]-3-[[4-(\u03b2-D-glucopyranosyloxy)-3-methoxyphenyl]methyl]dihydro-, (3R,4R)-", "Arctiin", "2(3H)-Furanone, 4-[(3,4-dimethoxyphenyl)methyl]-3-[[4-(\u03b2-D-glucopyranosyloxy)-3-methoxyphenyl]methyl]dihydro-, (3R-trans)-", "(3R,4R)-4-[(3,4-Dimethoxyphenyl)methyl]-3-[[4-(\u03b2-D-glucopyranosyloxy)-3-methoxyphenyl]methyl]dihydro-2(3H)-furanone", "Arctigenin-4-glucoside", "NSC 315527", "Arctii", "Arctin"], "SMILES": "C(C1C(CC2=CC(OC)=C(OC3OC(CO)C(O)C(O)C3O)C=C2)C(=O)OC1)C4=CC(OC)=C(OC)C=C4", "physical_data": {"Molecular Weight": "534.55", "Molecular Formula": "C27H34O11", "Melting Point": "112 \u00b0C"}}