{"cas_no": "2037-31-2", "cn_name": "3-\u6c2f\u82ef\u786b\u915a", "en_name": ["3-Chlorothiophenol", "Benzenethiol, 3-chloro-", "Benzenethiol, m-chloro-", "3-Chlorobenzenethiol", "m-Chlorobenzenethiol", "m-Chlorothiophenol", "3-Chlorothiophenol", "m-Chlorobenzenethiol", "NSC 32020", "3-Chlorobenzene-1-thiol"], "SMILES": "ClC1=CC(S)=CC=C1", "physical_data": {"Molecular Weight": "144.62", "Molecular Formula": "C6H5ClS", "Boiling Point": "206 \u00b0C"}}