{"cas_no": "20375-65-9", "cn_name": "3-\u6c2f-6-\u82ef\u57fa\u54d2\u55ea", "en_name": ["3-Chloro-6-phenylpyridazine", "Pyridazine, 3-chloro-6-phenyl-", "3-Chloro-6-phenylpyridazine", "3-Phenyl-6-chloropyridazine", "6-Phenyl-3-chloropyridazine", "NSC 28739", "6-Chloro-3-phenylpyridazine"], "SMILES": "ClC1=CC=C(N=N1)C2=CC=CC=C2", "physical_data": {"Molecular Weight": "190.63", "Molecular Formula": "C10H7ClN2", "Melting Point": "158-160 \u00b0C"}}