{"cas_no": "2037-95-8", "cn_name": "\u5361\u6c99\u4ed1", "en_name": ["2H-1,3-Benzoxazine-2,4(3H)-dione", "2H-1,3-Benzoxazine-2,4(3H)-dione", "Carsalam", "4H-1,3-Benzoxazine-2,4(3H)-dione", "3,4-Dihydro-1,3-benzoxazine-3,4-dione", "3,4-Dihydro-1,3-benzoxazine-2,4-dione", "1,3-Benzoxazine-2,4-dione", "2,4-Dioxo-3,4-dihydro-2H-1,3-benzoxazine", "Beaprine", "Ruhmal", "Oxophenhydroxazine", "Carbonylsalicylamide", "CSA", "NSC 36166", "2H-Benzo[e][1,3]oxazine-2,4(3H)-dione", "3,4-Dihydro-2H-1,3-benzoxazine-2,4-dione", "Benzo[e][1,3]oxazine-2,4-dione"], "SMILES": "O=C1C=2C(OC(=O)N1)=CC=CC2", "physical_data": {"Molecular Weight": "163.13", "Molecular Formula": "C8H5NO3", "Melting Point": "229-230 \u00b0C"}}