{"cas_no": "2037-48-1", "cn_name": "2-\u8131\u6c27\u94fe\u9709\u80fa\u4e8c\u6c22\u6eb4\u9178\u76d0", "en_name": ["Deoxystreptamine", "Streptamine, 2-deoxy-", "1,2,3-Cyclohexanetriol, 4,6-diamino-", "Streptamine, deoxy-", "2-Deoxystreptamine", "Deoxystreptamine", "2-Desoxystreptamine", "2-Deoxy-D-streptamine", "NSC 156938"], "SMILES": "OC1C(O)C(O)C(N)CC1N", "physical_data": {"Molecular Weight": "162.19", "Molecular Formula": "C6H14N2O3", "Melting Point": "280 \u00b0C"}}