{"cas_no": "2037-26-5", "cn_name": "\u6c18\u4ee3\u7532\u82ef", "en_name": ["Toluene-d8", "Benzene-1,2,3,4,5-d5, 6-(methyl-d3)-", "Benzene-d5, methyl-d3-", "Toluene-d8", "6-(Methyl-d3)benzene-1,2,3,4,5-d5", "Perdeuteriotoluene", "[2H8]Toluene", "1,2,3,4,5-Pentadeuterio-6-(trideuteriomethyl)benzene"], "SMILES": "C(C1=CC=CC=C1)([2H])([2H])[2H]", "physical_data": {"Molecular Weight": "", "Molecular Formula": "C7D8", "Boiling Point": "105-120 \u00b0C"}}