{"cas_no": "203866-16-4", "cn_name": "N-\u53d4\u4e01\u6c27\u7fb0\u57fa-\u987a\u5f0f-4-\u6c1f-L-\u812f\u6c28\u9178\u7532\u916f", "en_name": ["1-(1,1-Dimethylethyl) 2-methyl (2S,4S)-4-fluoro-1,2-pyrrolidinedicarboxylate", "1,2-Pyrrolidinedicarboxylic acid, 4-fluoro-, 1-(1,1-dimethylethyl) 2-methyl ester, (2S,4S)-", "1,2-Pyrrolidinedicarboxylic acid, 4-fluoro-, 1-(1,1-dimethylethyl) 2-methyl ester, (2S-cis)-", "1-(1,1-Dimethylethyl) 2-methyl (2S,4S)-4-fluoro-1,2-pyrrolidinedicarboxylate", "1-tert-Butyl 2-methyl (2S,4S)-4-fluoro-1,2-pyrrolidinedicarboxylate", "tert-Butyl (2S,4S)-2-(methoxycarbonyl)-4-fluoropyrrolidine-1-carboxylate", "Methyl (2S,4S)-N-tert-butoxycarbonyl-4-fluoropyrrolidine-2-carboxylate", "(2S,4S)-4-Fluoro-1-(tert-butoxycarbonyl)pyrrolidine-2-carboxylic acid methyl ester", "(2S,4S)-1-tert-Butyl 2-methyl 4-fluoropyrrolidine-1,2-dicarboxylate"], "SMILES": "C(OC(C)(C)C)(=O)N1C(C(OC)=O)CC(F)C1", "physical_data": {"Molecular Weight": "247.26", "Molecular Formula": "C11H18FNO4", "Melting Point": "210 \u00b0C"}}