{"cas_no": "203854-56-2", "cn_name": "(S)-2-(AMINOMETHYL)-4-METHYLPENTANOIC ACID", "en_name": ["(2S)-2-(Aminomethyl)-4-methylpentanoic acid", "Pentanoic acid, 2-(aminomethyl)-4-methyl-, (2S)-", "Pentanoic acid, 2-(aminomethyl)-4-methyl-, (S)-", "(2S)-2-(Aminomethyl)-4-methylpentanoic acid", "(S)-2-Aminomethyl-4-methylpentanoic acid", "(-)-2-Aminomethyl-4-methylpentanoic acid"], "SMILES": "C(CC(C)C)(C(O)=O)CN", "physical_data": {"Molecular Weight": "145.20", "Molecular Formula": "C7H15NO2", "Melting Point": "226-228 \u00b0C"}}