{"cas_no": "20388-87-8", "cn_name": "2-\u82ef\u57fa-1-\u4e19\u80fa\u76d0\u9178\u76d0", "en_name": ["Benzeneethanamine, \u03b2-methyl-, hydrochloride (1:1)", "Benzeneethanamine, \u03b2-methyl-, hydrochloride (1:1)", "Phenethylamine, \u03b2-methyl-, hydrochloride", "Benzeneethanamine, \u03b2-methyl-, hydrochloride", "2-Phenyl-1-propanamine hydrochloride", "2-Phenylpropylamine hydrochloride", "\u03b2-Methylbenzeneethanamine hydrochloride", "2-Phenyl-1-propanamine monohydrochloride"], "SMILES": "C(CN)(C)C1=CC=CC=C1.Cl", "physical_data": {"Molecular Weight": "", "Molecular Formula": "C9H13N.ClH", "Melting Point": "194 \u00b0C"}}