{"cas_no": "20383-28-2", "cn_name": "\u4e8c\u5f02\u5df1\u57fa\u916e", "en_name": ["N,N-Bis(1-methylethyl)benzamide", "Benzamide, N,N-bis(1-methylethyl)-", "Benzamide, N,N-diisopropyl-", "N,N-Bis(1-methylethyl)benzamide", "N,N-Diisopropylbenzamide", "NSC 6912"], "SMILES": "N(C(=O)C1=CC=CC=C1)(C(C)C)C(C)C", "physical_data": {"Molecular Weight": "205.30", "Molecular Formula": "C13H19NO", "Boiling Point": "164-174 \u00b0C @ Press: 20 Torr", "Melting Point": "69-714 \u00b0C"}}