{"cas_no": "2038-57-5", "cn_name": "3-\u82ef\u57fa-1-\u4e19\u80fa", "en_name": ["Benzenepropanamine", "Benzenepropanamine", "Propylamine, 3-phenyl-", "Hydrocinnamylamine", "3-Phenylpropylamine", "\u03b3-Phenyl-n-propylamine", "\u03b3-Phenylpropylamine", "1-Amino-3-phenylpropane", "3-Phenyl-n-propylamine", "3-Phenyl-1-propanamine", "3-Phenyl-1-aminopropane", "3-Phenylpropanamine", "Phenpropylamine", "NSC 87080", "(3-Phenylpropan-1-yl)amine", "3-Benzenepropanamine"], "SMILES": "C(CCN)C1=CC=CC=C1", "physical_data": {"Molecular Weight": "135.21", "Molecular Formula": "C9H13N", "Boiling Point": "221 \u00b0C"}}