{"cas_no": "20389-10-0", "cn_name": "2-(3-\u6c2f\u82ef\u57fa)\u55b9\u5549-4-\u7fa7\u9178", "en_name": ["2-(3-Chlorophenyl)-4-quinolinecarboxylic acid", "4-Quinolinecarboxylic acid, 2-(3-chlorophenyl)-", "Cinchoninic acid, 2-(m-chlorophenyl)-", "2-(3-Chlorophenyl)-4-quinolinecarboxylic acid", "2-(3-Chlorophenyl)quinoline-4-carboxylic acid", "NSC 123857"], "SMILES": "C(O)(=O)C=1C2=C(N=C(C1)C3=CC(Cl)=CC=C3)C=CC=C2", "physical_data": {"Molecular Weight": "283.71", "Molecular Formula": "C16H10ClNO2", "Melting Point": "244-246 \u00b0C"}}