{"cas_no": "203854-54-0", "cn_name": "(S)-2-(\u6c28\u57fa\u7532\u57fa)-3-\u7532\u57fa\u4e01\u9178", "en_name": ["(2S)-2-(Aminomethyl)-3-methylbutanoic acid", "Butanoic acid, 2-(aminomethyl)-3-methyl-, (2S)-", "Butanoic acid, 2-(aminomethyl)-3-methyl-, (S)-", "(2S)-2-(Aminomethyl)-3-methylbutanoic acid", "(S)-2-Aminomethyl-3-methylbutanoic acid", "(+)-2-Aminomethyl-3-methylbutanoic acid"], "SMILES": "C(C(C)C)(C(O)=O)CN", "physical_data": {"Molecular Weight": "131.17", "Molecular Formula": "C6H13NO2", "Melting Point": "238-239 \u00b0C"}}