{"cas_no": "2038-03-1", "cn_name": "N-(2-\u6c28\u57fa\u4e59\u57fa)\u5417\u5549", "en_name": ["4-Morpholineethanamine", "4-Morpholineethanamine", "Morpholine, 4-(2-aminoethyl)-", "N-(2-Aminoethyl)morpholine", "1-Amino-2-morpholinoethane", "2-Morpholinoethylamine", "\u03b2-Morpholinoethylamine", "N-(\u03b2-Aminoethyl)morpholine", "2-Morpholinoethanamine", "2-(4-Morpholinyl)ethylamine", "4-(2-Aminoethyl)morpholine", "2-Morpholino-1-ethanamine", "2-(4-Morpholinyl)ethanamine", "2-(4-Morpholino)ethylamine", "4-Aminoethylmorpholine", "[2-(Morpholin-4-yl)ethyl]amine", "2-(Morpholin-4-yl)ethan-1-amine", "2-(Morpholin-4-yl)ethanamine"], "SMILES": "C(CN)N1CCOCC1", "physical_data": {"Molecular Weight": "130.19", "Molecular Formula": "C6H14N2O", "Boiling Point": "205 \u00b0C", "Melting Point": "25.6 \u00b0C", "Density": "0.992 g/cm\u00b3"}}