{"cas_no": "20380-11-4", "cn_name": "27-\u7f9f\u57fa\u80c6\u56fa\u9187", "en_name": ["(25R)-26-Hydroxycholesterol", "Cholest-5-ene-3,26-diol, (3\u03b2,25R)-", "Cholest-5-ene-3\u03b2,26-diol, (25R)-", "(3\u03b2,25R)-Cholest-5-ene-3,26-diol", "(25R)-Cholest-5-ene-3\u03b2,26-diol", "(25R)-26-Hydroxycholesterol", "(3\u03b2,25R)-Cholest-5-ene-3,26-diol"], "SMILES": "CC12C(C3C(C4(C)C(=CC3)CC(O)CC4)CC1)CCC2C(CCCC(CO)C)C", "physical_data": {"Molecular Weight": "402.65", "Molecular Formula": "C27H46O2", "Melting Point": "172-174 \u00b0C"}}