{"cas_no": "2038-44-0", "cn_name": "\u4e8c\u6c2f\u4e59\u4e8c\u809f", "en_name": ["Dichloroglyoxime", "Ethanediimidoyl dichloride, N1,N2-dihydroxy-", "Glyoxime, dichloro-", "Oxalohydroximoyl chloride", "Ethanediimidoyl dichloride, dihydroxy-", "N1,N2-Dihydroxyethanediimidoyl dichloride", "Oxalyl chloride, dioxime", "Ethanedioyl dichloride, dioxime", "Dichloroglyoxime", "1,2-Dichloroglyoxime", "NSC 528431", "DCO"], "SMILES": "C(C(=NO)Cl)(=NO)Cl", "physical_data": {"Molecular Weight": "156.96", "Molecular Formula": "C2H2Cl2N2O2", "Melting Point": "201 \u00b0C"}}