{"cas_no": "203854-59-5", "cn_name": "FMOC-(S)-2-(\u4e8c\u7532\u57fa)-3-\u7532\u57fa\u4e01\u9178", "en_name": ["(2S)-2-[[[(9H-Fluoren-9-ylmethoxy)carbonyl]amino]methyl]-3-methylbutanoic acid", "Butanoic acid, 2-[[[(9H-fluoren-9-ylmethoxy)carbonyl]amino]methyl]-3-methyl-, (2S)-", "Butanoic acid, 2-[[[(9H-fluoren-9-ylmethoxy)carbonyl]amino]methyl]-3-methyl-, (S)-", "(2S)-2-[[[(9H-Fluoren-9-ylmethoxy)carbonyl]amino]methyl]-3-methylbutanoic acid", "(s)-2-[(9H-Fluoren-9-ylmethoxycarbonylamino)-methyl]-3-methyl-butyric acid", "(S)-2-(((((9H-Fluoren-9-yl)methoxy)carbonyl)amino)methyl)-3-methylbutanoic acid"], "SMILES": "C(OC(NCC(C(C)C)C(O)=O)=O)C1C=2C(C=3C1=CC=CC3)=CC=CC2", "physical_data": {"Molecular Weight": "353.41", "Molecular Formula": "C21H23NO4", "Melting Point": "121-123 \u00b0C"}}