{"cas_no": "203866-13-1", "cn_name": "(2S,4S)-N-Boc-\u987a\u5f0f-4-\u6c1f-L-\u812f\u6c28\u9178", "en_name": ["1-(1,1-Dimethylethyl) (2S,4S)-4-fluoro-1,2-pyrrolidinedicarboxylate", "1,2-Pyrrolidinedicarboxylic acid, 4-fluoro-, 1-(1,1-dimethylethyl) ester, (2S,4S)-", "1,2-Pyrrolidinedicarboxylic acid, 4-fluoro-, 1-(1,1-dimethylethyl) ester, (2S-cis)-", "1-(1,1-Dimethylethyl) (2S,4S)-4-fluoro-1,2-pyrrolidinedicarboxylate", "(2S,4S)-1-(tert-Butoxycarbonyl)-4-fluoropyrrolidine-2-carboxylic acid", "(2S,4S)-1-(tert-Butoxycarbonyl)-4-fluoro-2-pyrrolidinecarboxylic acid", "N-tert-BOC-cis-4-fluoro-L-proline", "(4S)-1-tert-Butoxycarbonyl-4-fluoro-L-proline", "(2S,4S)-1-(tert-Butoxycarbonyl)-4-fluoropyrrolidine-2-carboxylic acid", "(2S,4S)-1-(tert-Butoxycarbonyl)-4-fluoropyrrolidine-2-carboxylicaci"], "SMILES": "C(OC(C)(C)C)(=O)N1C(C(O)=O)CC(F)C1", "physical_data": {"Molecular Weight": "233.24", "Molecular Formula": "C10H16FNO4", "Melting Point": "160-162 \u00b0C"}}