{"cas_no": "203854-51-7", "cn_name": "O-TERT-\u4e01\u57fa-N-FMOC-L-\u0392-\u9ad8\u4e1d\u6c28\u9178", "en_name": ["(3R)-4-(1,1-Dimethylethoxy)-3-[[(9H-fluoren-9-ylmethoxy)carbonyl]amino]butanoic acid", "Butanoic acid, 4-(1,1-dimethylethoxy)-3-[[(9H-fluoren-9-ylmethoxy)carbonyl]amino]-, (3R)-", "Butanoic acid, 4-(1,1-dimethylethoxy)-3-[[(9H-fluoren-9-ylmethoxy)carbonyl]amino]-, (R)-", "(3R)-4-(1,1-Dimethylethoxy)-3-[[(9H-fluoren-9-ylmethoxy)carbonyl]amino]butanoic acid", "(3R)-3-(9H-Fluoren-9-ylmethoxycarbonylamino)-4-[(2-methylpropan-2-yl)oxy]butanoic acid"], "SMILES": "C(OC(NC(COC(C)(C)C)CC(O)=O)=O)C1C=2C(C=3C1=CC=CC3)=CC=CC2", "physical_data": {"Molecular Weight": "397.46", "Molecular Formula": "C23H27NO5", "Melting Point": "98 \u00b0C"}}