{"cas_no": "20389-09-7", "cn_name": "2-(2-\u6c2f-\u82ef\u57fa)-\u55b9\u5549-4-\u7fa7\u9178", "en_name": ["2-(2-Chlorophenyl)-4-quinolinecarboxylic acid", "4-Quinolinecarboxylic acid, 2-(2-chlorophenyl)-", "Cinchoninic acid, 2-(o-chlorophenyl)-", "2-(2-Chlorophenyl)-4-quinolinecarboxylic acid", "2-(o-Chlorophenyl)cinchoninic acid", "NSC 109765"], "SMILES": "ClC1=C(C2=NC3=C(C(C(O)=O)=C2)C=CC=C3)C=CC=C1", "physical_data": {"Molecular Weight": "283.71", "Molecular Formula": "C16H10ClNO2", "Melting Point": "233.0-235.0 \u00b0C"}}