{"cas_no": "20389-05-3", "cn_name": "2-P-TOLYL-QUINOLINE-4-CARBOXYLIC", "en_name": ["2-(4-Methylphenyl)-4-quinolinecarboxylic acid", "4-Quinolinecarboxylic acid, 2-(4-methylphenyl)-", "Cinchoninic acid, 2-p-tolyl-", "Cinchophen, 4\u2032-methyl-", "2-(4-Methylphenyl)-4-quinolinecarboxylic acid", "2-(4-Methylphenyl)quinoline-4-carboxylic acid", "2-(4\u2032-Methylphenyl)quinoline-4-carboxylic acid"], "SMILES": "C(O)(=O)C=1C2=C(N=C(C1)C3=CC=C(C)C=C3)C=CC=C2", "physical_data": {"Molecular Weight": "263.29", "Molecular Formula": "C17H13NO2", "Melting Point": "211 \u00b0C"}}