{"cas_no": "2039-67-0", "cn_name": "3-\u7532\u6c27\u57fa\u82ef\u4e59\u80fa", "en_name": ["3-Methoxyphenethylamine", "Benzeneethanamine, 3-methoxy-", "Phenethylamine, m-methoxy-", "3-Methoxybenzeneethanamine", "3-Methoxy-\u03b2-phenethylamine", "m-Methoxyphenethylamine", "3-Methoxyphenylethylamine", "3-Methoxyphenethylamine", "2-(3-Methoxyphenyl)ethylamine", "2-(m-Methoxyphenyl)ethylamine", "m-Methoxy-\u03b2-phenylethylamine", "2-(3-Methoxyphenyl)ethanamine", "NSC 124706", "2-(3-Methoxyphenyl)-1-ethanamine", "[2-[3-(Methyloxy)phenyl]ethyl]amine", "1-(2-Aminoethyl)-3-methoxybenzene"], "SMILES": "C(CN)C1=CC(OC)=CC=C1", "physical_data": {"Molecular Weight": "151.21", "Molecular Formula": "C9H13NO", "Boiling Point": "128 \u00b0C @ Press: 12 Torr"}}