{"cas_no": "2039-80-7", "cn_name": "4-\u4e8c\u7532\u57fa\u6c28\u57fa\u82ef\u4e59\u70ef", "en_name": ["4-Ethenyl-N,N-dimethylbenzenamine", "Benzenamine, 4-ethenyl-N,N-dimethyl-", "Aniline, N,N-dimethyl-p-vinyl-", "4-Ethenyl-N,N-dimethylbenzenamine", "p-(Dimethylamino)styrene", "N,N-Dimethyl-p-vinylaniline", "4-(N,N-Dimethylamino)styrene", "p-(N,N-Dimethylamino)styrene", "4-(Dimethylamino)styrene", "N,N-Dimethyl-4-vinylaniline", "N,N-Dimethyl-p-aminostyrene", "p-Vinyldimethylaniline", "4-Vinyl-N,N-dimethylaniline", "4-Ethenyl-N,N-dimethylaniline", "NSC 3471", "1-(Dimethylamino)-4-vinylbenzene"], "SMILES": "N(C)(C)C1=CC=C(C=C)C=C1", "physical_data": {"Molecular Weight": "147.22", "Molecular Formula": "C10H13N", "Boiling Point": "90-91 \u00b0C", "Melting Point": "16.8 \u00b0C", "Density": "0.9623-0.9663 g/cm\u00b3 @ Temp: 16 \u00b0C"}}