{"cas_no": "2039-66-9", "cn_name": "2-(2-\u6c28\u57fa\u4e59\u57fa)\u82ef\u915a", "en_name": ["2-(2-Aminoethyl)phenol", "Phenol, 2-(2-aminoethyl)-", "Phenol, o-(2-aminoethyl)-", "2-(2-Aminoethyl)phenol", "o-Tyramine", "2-(2-Hydroxyphenyl)ethylamine", "2-Hydroxyphenethylamine", "2-(o-Hydroxyphenyl)ethylamine", "o-Hydroxyphenethylamine", "MeSH ID: D015078"], "SMILES": "C(CN)C1=C(O)C=CC=C1", "physical_data": {"Molecular Weight": "137.18", "Molecular Formula": "C8H11NO", "Melting Point": "113-115 \u00b0C"}}