{"cas_no": "2039-50-1", "cn_name": "5-\u6eb4\u7532\u57fa-3-\u82ef\u57fa\u5f02\u5641\u5511", "en_name": ["5-(Bromomethyl)-3-phenylisoxazole", "Isoxazole, 5-(bromomethyl)-3-phenyl-", "5-(Bromomethyl)-3-phenylisoxazole"], "SMILES": "C(Br)C1=CC(=NO1)C2=CC=CC=C2", "physical_data": {"Molecular Weight": "238.08", "Molecular Formula": "C10H8BrNO", "Boiling Point": "143-145 \u00b0C @ Press: 2 Torr", "Melting Point": "85-86 \u00b0C", "Density": "1.4780 g/cm\u00b3 @ Temp: 20 \u00b0C"}}