{"cas_no": "2039-76-1", "cn_name": "3-\u4e59\u9170\u57fa\u83f2", "en_name": ["1-(3-Phenanthrenyl)ethanone", "Ethanone, 1-(3-phenanthrenyl)-", "Ketone, methyl 3-phenanthryl", "1-(3-Phenanthrenyl)ethanone", "3-Acetylphenanthrene", "Methyl 3-phenanthryl ketone", "NSC 3192", "1-(3-Phenanthryl)ethanone", "1-(Phenanthren-3-yl)ethanone"], "SMILES": "C(C)(=O)C1=CC2=C3C(=CC=C2C=C1)C=CC=C3", "physical_data": {"Molecular Weight": "220.27", "Molecular Formula": "C16H12O", "Boiling Point": "172-181 \u00b0C @ Press: 0.9 Torr", "Melting Point": "87-88 \u00b0C"}}