{"cas_no": "2039-88-5", "cn_name": "2-\u6eb4\u82ef\u4e59\u70ef", "en_name": ["2-Bromostyrene", "Benzene, 1-bromo-2-ethenyl-", "Styrene, o-bromo-", "1-Bromo-2-ethenylbenzene", "o-Bromostyrene", "2-Bromostyrene", "o-Bromovinylbenzene", "1-Bromo-2-vinylbenzene", "2-Vinylphenyl bromide", "2-Vinyl-1-bromobenzene"], "SMILES": "C(=C)C1=C(Br)C=CC=C1", "physical_data": {"Molecular Weight": "183.05", "Molecular Formula": "C8H7Br", "Boiling Point": "209.2 \u00b0C", "Melting Point": "-52.5 \u00b0C", "Density": "1.409 g/cm\u00b3 @ Temp: 15 \u00b0C"}}