{"cas_no": "2039-87-4", "cn_name": "2-\u6c2f\u82ef\u4e59\u70ef", "en_name": ["2-Chlorostyrene", "Benzene, 1-chloro-2-ethenyl-", "Styrene, o-chloro-", "1-Chloro-2-ethenylbenzene", "o-Chlorostyrene", "2-Chlorostyrene", "o-Chlorovinylbenzene", "NSC 18601", "1-Chloro-2-vinylbenzene", "o-Chlorosytrene"], "SMILES": "C(=C)C1=C(Cl)C=CC=C1", "physical_data": {"Molecular Weight": "138.59", "Molecular Formula": "C8H7Cl", "Boiling Point": "188.7 \u00b0C @ Press: 760 Torr", "Melting Point": "-63.1 \u00b0C", "Density": "1.1 g/cm\u00b3 @ Temp: 20 \u00b0C"}}