{"cas_no": "2039-89-6", "cn_name": "2,5-\u4e8c\u7532\u57fa\u82ef\u4e59\u70ef", "en_name": ["2,5-Dimethylstyrene", "Benzene, 2-ethenyl-1,4-dimethyl-", "Styrene, 2,5-dimethyl-", "2-Ethenyl-1,4-dimethylbenzene", "2,5-Dimethylstyrene", "1,4-Dimethyl-2-vinylbenzene", "NSC 73477", "1,4-Dimethyl-2-ethenylbenzene"], "SMILES": "C(=C)C1=C(C)C=CC(C)=C1", "physical_data": {"Molecular Weight": "132.20", "Molecular Formula": "C10H12", "Boiling Point": "82-83 \u00b0C @ Press: 23 Torr", "Melting Point": "-36.8--34.8 \u00b0C", "Density": "0.902 g/cm\u00b3 @ Temp: 25 \u00b0C"}}