{"cas_no": "2039-86-3", "cn_name": "3-\u6eb4\u82ef\u4e59\u70ef", "en_name": ["3-Bromostyrene", "Benzene, 1-bromo-3-ethenyl-", "Styrene, m-bromo-", "1-Bromo-3-ethenylbenzene", "3-Bromostyrene", "m-Bromostyrene", "1-Bromo-3-vinylbenzene", "3-Vinylbromobenzene", "3-Bromovinylbenzene"], "SMILES": "C(=C)C1=CC(Br)=CC=C1", "physical_data": {"Molecular Weight": "183.05", "Molecular Formula": "C8H7Br", "Boiling Point": "90-94 \u00b0C", "Density": "1.4059 g/cm\u00b3 @ Temp: 20 \u00b0C"}}