{"cas_no": "2039-68-1", "cn_name": "\u53cd\u5f0f-4,4\u02ca-\u4e8c\u82ef\u57fa\u82aa", "en_name": ["4,4\u2032-Diphenylstilbene", "1,1\u2032-Biphenyl, 4-(2-[1,1\u2032-biphenyl]-4-ylethenyl)-", "Stilbene, 4,4\u2032-diphenyl-", "1,1\u2032-Biphenyl, 4,4\u2032\u2032-(1,2-ethenediyl)bis-", "4-(2-[1,1\u2032-Biphenyl]-4-ylethenyl)-1,1\u2032-biphenyl", "1,2-Bis(p-biphenylyl)ethylene", "1,2-Bis(4-biphenylyl)ethylene", "p,p\u2032-Diphenylstilbene", "4,4\u2032-Diphenylstilbene", "1,2-Bis(4-diphenylyl)ethylene", "BBE", "DPS", "DPS (fluor)", "NSC 24862"], "SMILES": "C(=CC1=CC=C(C=C1)C2=CC=CC=C2)C3=CC=C(C=C3)C4=CC=CC=C4", "physical_data": {"Molecular Weight": "332.44", "Molecular Formula": "C26H20", "Melting Point": "301 \u00b0C"}}