{"cas_no": "2039-85-2", "cn_name": "3-\u6c2f\u82ef\u4e59\u70ef", "en_name": ["3-Chlorostyrene", "Benzene, 1-chloro-3-ethenyl-", "Styrene, m-chloro-", "1-Chloro-3-ethenylbenzene", "m-Chlorostyrene", "3-Chlorostyrene", "3-Chlorovinylbenzene", "3-Chlorophenylethene", "NSC 18602", "1-Chloro-3-vinylbenzene"], "SMILES": "C(=C)C1=CC(Cl)=CC=C1", "physical_data": {"Molecular Weight": "138.59", "Molecular Formula": "C8H7Cl", "Boiling Point": "188.7 \u00b0C", "Density": "1.1168 g/cm\u00b3 @ Temp: 20 \u00b0C"}}