{"cas_no": "2039-06-7", "cn_name": "3,5-\u4e8c\u82ef\u57fa-1-H-1,2,4-\u4e09\u6c2e\u5511", "en_name": ["3,5-Diphenyl-1H-1,2,4-triazole", "1H-1,2,4-Triazole, 3,5-diphenyl-", "s-Triazole, 3,5-diphenyl-", "3,5-Diphenyl-1H-1,2,4-triazole", "3,5-Diphenyl-1,2,4-triazole", "3,5-Diphenyl-4H-[1,2,4]triazole", "3,5-Diphenyl-4H-1,2,4-triazole"], "SMILES": "C=1(NC(=NN1)C2=CC=CC=C2)C3=CC=CC=C3", "physical_data": {"Molecular Weight": "221.26", "Molecular Formula": "C14H11N3", "Melting Point": "190-191 \u00b0C"}}