{"cas_no": "2039-82-9", "cn_name": "\u5bf9\u6eb4\u82ef\u4e59\u70ef", "en_name": ["4-Bromostyrene", "Benzene, 1-bromo-4-ethenyl-", "Styrene, p-bromo-", "1-Bromo-4-ethenylbenzene", "p-Bromostyrene", "4-Bromostyrene", "1-(4-Bromophenyl)ethylene", "Parabromostyrene", "para-Bromostyrene", "4-Bromophenylethene", "1-Bromo-4-vinylbenzene", "NSC 60393", "4-Vinyl-1-bromobenzene", "4-Vinylphenyl bromide", "4-Bromo-1-ethenylbenzene"], "SMILES": "C(=C)C1=CC=C(Br)C=C1", "physical_data": {"Molecular Weight": "183.05", "Molecular Formula": "C8H7Br", "Boiling Point": "212 \u00b0C", "Melting Point": "7.7 \u00b0C", "Density": "1.356 g/cm\u00b3 @ Temp: 20 \u00b0C"}}