{"cas_no": "20395-28-2", "cn_name": "5-\u6c2f\u4e59\u9178\u82ef\u916f", "en_name": ["1-Pentanol, 5-chloro-, 1-acetate", "1-Pentanol, 5-chloro-, 1-acetate", "1-Pentanol, 5-chloro-, acetate", "5-Chloropentyl acetate", "5-Chloro-1-amyl acetate", "5-Chloro-1-acetoxypentane", "5-Chloro-1-pentanol acetate", "5-Chloro-1-pentyl acetate", "1-Acetoxy-5-chloropentane", "NSC 76003"], "SMILES": "C(CCCCCl)OC(C)=O", "physical_data": {"Molecular Weight": "164.63", "Molecular Formula": "C7H13ClO2", "Boiling Point": "103 \u00b0C @ Press: 18 Torr", "Density": "1.0648 g/cm\u00b3 @ Temp: 20 \u00b0C"}}