{"cas_no": "20398-06-5", "cn_name": "\u4e59\u9187\u94ca(I)", "en_name": ["Ethanol, thallium(1+) salt (1:1)", "Ethanol, thallium(1+) salt (1:1)", "Ethyl alcohol, thallium(1+) salt", "Ethanol, thallium(1+) salt", "Thallium(I) ethoxide", "Thallous ethoxide", "Thallium(1+) ethoxide", "Thallium monoethoxide", "Thallium ethoxide", "Ethoxythallium"], "SMILES": "C(C)O.[Tl]", "physical_data": {"Molecular Weight": "", "Molecular Formula": "C2H6O.Tl", "Melting Point": "-3 \u00b0C", "Density": "3.493 g/cm\u00b3"}}