{"cas_no": "2039-77-2", "cn_name": "9-\u4e59\u9170\u83f2", "en_name": ["9-Acetylphenanthrene", "Ethanone, 1-(9-phenanthrenyl)-", "Ketone, methyl 9-phenanthryl", "1-(9-Phenanthrenyl)ethanone", "9-Acetylphenanthrene", "NSC 15306", "NSC 231776"], "SMILES": "C(C)(=O)C1=C2C(=C3C(=C1)C=CC=C3)C=CC=C2", "physical_data": {"Molecular Weight": "220.27", "Molecular Formula": "C16H12O", "Melting Point": "74-74.5 \u00b0C"}}