{"cas_no": "2039-83-0", "cn_name": "3,4-\u4e8c\u6c2f\u82ef\u4e59\u70ef", "en_name": ["1,2-Dichloro-4-ethenylbenzene", "Benzene, 1,2-dichloro-4-ethenyl-", "Styrene, 3,4-dichloro-", "1,2-Dichloro-4-ethenylbenzene", "3,4-Dichlorostyrene", "(3,4-Dichlorophenyl)ethylene"], "SMILES": "C(=C)C1=CC(Cl)=C(Cl)C=C1", "physical_data": {"Molecular Weight": "173.04", "Molecular Formula": "C8H6Cl2", "Boiling Point": "69-70 \u00b0C @ Press: 4 Torr", "Melting Point": "166 \u00b0C", "Density": "1.256 g/cm\u00b3 @ Temp: 20 \u00b0C"}}