{"cas_no": "2039-90-9", "cn_name": "1,3-\u4e8c\u7532\u57fa\u82ef\u4e59\u70ef", "en_name": ["2,6-Dimethylstyrene", "Benzene, 2-ethenyl-1,3-dimethyl-", "Styrene, 2,6-dimethyl-", "2-Ethenyl-1,3-dimethylbenzene", "2,6-Dimethylstyrene", "1,3-Dimethyl-2-vinylbenzene", "2-Vinyl-m-xylene"], "SMILES": "C(=C)C1=C(C)C=CC=C1C", "physical_data": {"Molecular Weight": "132.20", "Molecular Formula": "C10H12", "Boiling Point": "65-66 \u00b0C @ Press: 10 Torr", "Melting Point": "48-50 \u00b0C", "Density": "0.9094 g/cm\u00b3 @ Temp: 20 \u00b0C"}}