{"cas_no": "2040-96-2", "cn_name": "\u6b63\u4e19\u57fa\u73af\u620a\u70f7", "en_name": ["Propylcyclopentane", "Cyclopentane, propyl-", "Propylcyclopentane", "n-Propylcyclopentane", "NSC 73947", "1-Propylcyclopentane"], "SMILES": "C(CC)C1CCCC1", "physical_data": {"Molecular Weight": "112.21", "Molecular Formula": "C8H16", "Boiling Point": "131 \u00b0C", "Melting Point": "-117.3 \u00b0C", "Density": "0.7736 g/cm\u00b3 @ Temp: 20 \u00b0C"}}