{"cas_no": "2040-01-9", "cn_name": "\u4e94\u7532\u57fa\u82ef\u4e59\u916e", "en_name": ["1-(2,3,4,5,6-Pentamethylphenyl)ethanone", "Ethanone, 1-(2,3,4,5,6-pentamethylphenyl)-", "Acetophenone, 2\u2032,3\u2032,4\u2032,5\u2032,6\u2032-pentamethyl-", "Ethanone, 1-(pentamethylphenyl)-", "Acetophenone, 2,3,4,5,6-pentamethyl-", "1-(2,3,4,5,6-Pentamethylphenyl)ethanone", "2\u2032,3\u2032,4\u2032,5\u2032,6\u2032-Pentamethylacetophenone", "Acetylpentamethylbenzene", "Methyl 2,3,4,5,6-pentamethylphenyl ketone", "2,3,4,5,6-Pentamethylacetophenone", "1-(Pentamethylphenyl)ethan-1-one", "1-(2,3,4,5,6-Pentamethylphenyl)ethan-1-one"], "SMILES": "C(C)(=O)C1=C(C)C(C)=C(C)C(C)=C1C", "physical_data": {"Molecular Weight": "190.28", "Molecular Formula": "C13H18O", "Boiling Point": "144-145 \u00b0C @ Press: 8 Torr", "Melting Point": "110 \u00b0C"}}