{"cas_no": "2040-07-5", "cn_name": "2',4',5'-\u4e09\u7532\u57fa\u82ef\u4e59\u916e", "en_name": ["1-(2,4,5-Trimethylphenyl)ethanone", "Ethanone, 1-(2,4,5-trimethylphenyl)-", "Acetophenone, 2\u2032,4\u2032,5\u2032-trimethyl-", "1-(2,4,5-Trimethylphenyl)ethanone", "2\u2032,4\u2032,5\u2032-Trimethylacetophenone", "2,4,5-Trimethylacetophenone", "NSC 833", "1-(2,4,5-Trimethylphenyl)ethan-1-one"], "SMILES": "C(C)(=O)C1=C(C)C=C(C)C(C)=C1", "physical_data": {"Molecular Weight": "162.23", "Molecular Formula": "C11H14O", "Boiling Point": "246.5 \u00b0C", "Melting Point": "10.5 \u00b0C"}}