{"cas_no": "2040-89-3", "cn_name": "2-\u6eb4-6-\u6c1f\u82ef\u915a", "en_name": ["2-Bromo-6-fluorophenol", "Phenol, 2-bromo-6-fluoro-", "2-Bromo-6-fluorophenol"], "SMILES": "OC1=C(Br)C=CC=C1F", "physical_data": {"Molecular Weight": "191.00", "Molecular Formula": "C6H4BrFO", "Melting Point": "50 \u00b0C"}}