{"cas_no": "2040-05-3", "cn_name": "2',6'-\u4e8c\u6c2f\u82ef\u4e59\u916e", "en_name": ["1-(2,6-Dichlorophenyl)ethanone", "Ethanone, 1-(2,6-dichlorophenyl)-", "Acetophenone, 2\u2032,6\u2032-dichloro-", "1-(2,6-Dichlorophenyl)ethanone", "2\u2032,6\u2032-Dichloroacetophenone", "1-(2,6-Dichlorophenyl)ethan-1-one"], "SMILES": "C(C)(=O)C1=C(Cl)C=CC=C1Cl", "physical_data": {"Molecular Weight": "189.04", "Molecular Formula": "C8H6Cl2O", "Boiling Point": "140-141 \u00b0C @ Press: 24 Torr", "Melting Point": "42-43 \u00b0C"}}