{"cas_no": "2040-95-1", "cn_name": "\u6b63\u4e01\u57fa\u73af\u620a\u70f7", "en_name": ["Butylcyclopentane", "Cyclopentane, butyl-", "Butylcyclopentane", "NSC 74179"], "SMILES": "C(CCC)C1CCCC1", "physical_data": {"Molecular Weight": "126.24", "Molecular Formula": "C9H18", "Boiling Point": "156.6 \u00b0C", "Melting Point": "-108 \u00b0C", "Density": "0.7887 g/cm\u00b3 @ Temp: 14.95 \u00b0C"}}