{"cas_no": "2040-90-6", "cn_name": "2-\u6c2f-6-\u6c1f\u82ef\u915a", "en_name": ["2-Chloro-6-fluorophenol", "Phenol, 2-chloro-6-fluoro-", "2-Chloro-6-fluorophenol", "2-Fluoro-6-chlorophenol"], "SMILES": "OC1=C(Cl)C=CC=C1F", "physical_data": {"Molecular Weight": "146.55", "Molecular Formula": "C6H4ClFO", "Melting Point": "65 \u00b0C"}}