{"cas_no": "20408-97-3", "cn_name": "5-\u786b\u4ee3-D-\u8461\u8404\u7cd6", "en_name": ["Thioglucose", "D-Glucose, 5-thio-", "5-Thio-D-glucose", "Thioglucose", "NSC 204984", "5-Thioglucose"], "SMILES": "C(C(C(CO)S)O)(C(C=O)O)O", "physical_data": {"Molecular Weight": "196.22", "Molecular Formula": "C6H12O5S", "Melting Point": "135.5 \u00b0C"}}