{"cas_no": "2040-04-2", "cn_name": "2,6-\u4e8c\u7532\u6c27\u57fa\u82ef\u4e59\u916e", "en_name": ["1-(2,6-Dimethoxyphenyl)ethanone", "Ethanone, 1-(2,6-dimethoxyphenyl)-", "Acetophenone, 2\u2032,6\u2032-dimethoxy-", "Acetophenone, 2,6-dimethoxy-", "1-(2,6-Dimethoxyphenyl)ethanone", "2\u2032,6\u2032-Dimethoxyacetophenone", "1-(2,6-Dimethoxyphenyl)ethan-1-one"], "SMILES": "C(C)(=O)C1=C(OC)C=CC=C1OC", "physical_data": {"Molecular Weight": "180.20", "Molecular Formula": "C10H12O3", "Boiling Point": "135-136 \u00b0C", "Melting Point": "73-74 \u00b0C"}}