{"cas_no": "20407-84-5", "cn_name": "\u53cd-2-\u5341\u4e8c\u70ef\u919b", "en_name": ["(E)-2-Dodecenal", "2-Dodecenal, (2E)-", "2-Dodecenal, (E)-", "(2E)-2-Dodecenal", "2-trans-Dodecenal", "trans-2-Dodecenal", "(E)-2-Dodecenal", "trans-2-Dodecen-1-al", "(E)-2-Dodecen-1-al", "(E)-2-Dodecenal"], "SMILES": "C(CCCCCC)CCC=CC=O", "physical_data": {"Molecular Weight": "182.30", "Molecular Formula": "C12H22O", "Boiling Point": "73-74 \u00b0C @ Press: 0.5 Torr"}}