{"cas_no": "204191-43-5", "cn_name": "3-\u6c28\u57fa-4,4-\u4e8c\u7532\u57fa-\u620a\u9178", "en_name": ["3-Amino-4,4-dimethylpentanoic acid", "Pentanoic acid, 3-amino-4,4-dimethyl-", "3-Amino-4,4-dimethylpentanoic acid", "(\u00b1)-3-Amino-4,4-dimethylpentanoic acid"], "SMILES": "C(CC(O)=O)(C(C)(C)C)N", "physical_data": {"Molecular Weight": "145.20", "Molecular Formula": "C7H15NO2", "Melting Point": "197-200 \u00b0C"}}