{"cas_no": "2041-14-7", "cn_name": "2-\u6c28\u57fa\u4e59\u57fa\u81a6\u9178", "en_name": ["(2-Aminoethyl)phosphonic acid", "Phosphonic acid, P-(2-aminoethyl)-", "Phosphonic acid, (2-aminoethyl)-", "P-(2-Aminoethyl)phosphonic acid", "Ciliatine", "(2-Aminoethyl)phosphonic acid", "Phosphonoethylamine", "2-Aminoethanephosphonic acid", "\u03b2-Aminoethylphosphonic acid", "NSC 133837"], "SMILES": "C(P(=O)(O)O)CN", "physical_data": {"Molecular Weight": "125.06", "Molecular Formula": "C2H8NO3P", "Melting Point": "281-282 \u00b0C"}}