{"cas_no": "2041-15-8", "cn_name": "1,3,5-\u73af\u5df1\u70f7\u4e09\u9187", "en_name": ["1,3,5-Cyclohexanetriol", "1,3,5-Cyclohexanetriol", "Phloroglucitol", "NSC 25143"], "SMILES": "OC1CC(O)CC(O)C1", "physical_data": {"Molecular Weight": "132.16", "Molecular Formula": "C6H12O3", "Melting Point": "245 \u00b0C"}}