{"cas_no": "20426-12-4", "cn_name": "2-\u7f9f\u57fa\u67e5\u8033\u916e", "en_name": ["4-Hydroxychalcone", "2-Propen-1-one, 3-(4-hydroxyphenyl)-1-phenyl-", "Chalcone, 4-hydroxy-", "3-(4-Hydroxyphenyl)-1-phenyl-2-propen-1-one", "4-Hydroxychalcone", "4-Hydroxystyryl phenyl ketone", "(4-Hydroxybenzylidene)acetophenone", "(4-Hydroxybenzal)acetophenone", "1-Phenyl-3-(4-hydroxyphenyl)-2-propen-1-one", "NSC 60593", "p-Hydroxychalcone"], "SMILES": "C(C=CC1=CC=C(O)C=C1)(=O)C2=CC=CC=C2", "physical_data": {"Molecular Weight": "224.25", "Molecular Formula": "C15H12O2", "Melting Point": "183-184 \u00b0C"}}