{"cas_no": "204255-06-1", "cn_name": "5-\u53e0\u6c2e\u5965\u585e\u7c73\u97e6", "en_name": ["Ethyl (3R,4R,5S)-4-acetamido-5-azido-3-(1-ethylpropoxy)-1-cyclohexene-1-carboxylate", "1-Cyclohexene-1-carboxylic acid, 4-(acetylamino)-5-azido-3-(1-ethylpropoxy)-, ethyl ester, (3R,4R,5S)-", "1-Cyclohexene-1-carboxylic acid, 4-(acetylamino)-5-azido-3-(1-ethylpropoxy)-, ethyl ester, [3R-(3\u03b1,4\u03b2,5\u03b1)]-", "Ethyl (3R,4R,5S)-4-acetamido-5-azido-3-(1-ethylpropoxy)-1-cyclohexene-1-carboxylate"], "SMILES": "O(C(CC)CC)C1C(NC(C)=O)C(N=[N+]=[N-])CC(C(OCC)=O)=C1", "physical_data": {"Molecular Weight": "", "Molecular Formula": "C16H26N4O4", "Melting Point": "121-123 \u00b0C"}}