{"cas_no": "20423-99-8", "cn_name": "\u8fea\u666e\u7f57\u916e", "en_name": ["Deprodone", "Pregna-1,4-diene-3,20-dione, 11,17-dihydroxy-, (11\u03b2)-", "Pregna-1,4-diene-3,20-dione, 11\u03b2,17-dihydroxy-", "(11\u03b2)-11,17-Dihydroxypregna-1,4-diene-3,20-dione", "21-Deoxyprednisolone", "Deprodone", "Desolone"], "SMILES": "CC12C(C3C(C4(C)C(CC3)=CC(=O)C=C4)C(O)C1)CCC2(C(C)=O)O", "physical_data": {"Molecular Weight": "344.44", "Molecular Formula": "C21H28O4", "Melting Point": "271.5-273 \u00b0C (decomp)"}}