{"cas_no": "2042-37-7", "cn_name": "2-\u6eb4\u82ef\u8148", "en_name": ["2-Bromobenzonitrile", "Benzonitrile, 2-bromo-", "Benzonitrile, o-bromo-", "2-Bromobenzonitrile", "o-Bromobenzonitrile", "1-Bromo-2-cyanobenzene", "o-Bromocyanobenzene", "1-Cyano-2-bromobenzene", "2-Cyanobromobenzene", "NSC 59730", "2-Cyano-1-bromobenzene"], "SMILES": "C(#N)C1=C(Br)C=CC=C1", "physical_data": {"Molecular Weight": "182.02", "Molecular Formula": "C7H4BrN", "Boiling Point": "252 \u00b0C", "Melting Point": "55.5 \u00b0C"}}