{"cas_no": "204255-11-8", "cn_name": "\u78f7\u9178\u5965\u53f8\u4ed6\u97e6", "en_name": ["Oseltamivir phosphate", "1-Cyclohexene-1-carboxylic acid, 4-(acetylamino)-5-amino-3-(1-ethylpropoxy)-, ethyl ester, (3R,4R,5S)-, phosphate (1:1)", "1-Cyclohexene-1-carboxylic acid, 4-(acetylamino)-5-amino-3-(1-ethylpropoxy)-, ethyl ester, [3R-(3\u03b1,4\u03b2,5\u03b1)]-, phosphate (1:1)", "Oseltamivir phosphate", "Ro 64-0796/002", "Ethyl (3R,4R,5S)-4-N-Acetylamino-5-amino-3-(1-ethylpropoxy)-1-cyclohexene-1-carboxylate phosphate (1:1)", "Tamiflu", "Oseltamir phosphate", "(-)-Oseltamivir phosphate", "Fluvir", "Saiflu", "Ethyl (3R,4R,5S)-4-acetamido-5-amino-3-(pentan-3-yloxy)cyclohex-1-ene-1-carboxylate phosphate", "Oseltamivir ethyl ester"], "SMILES": "P(=O)(O)(O)O.O(C(CC)CC)C1C(NC(C)=O)C(N)CC(C(OCC)=O)=C1", "physical_data": {"Molecular Weight": "", "Molecular Formula": "C16H28N2O4.H3O4P", "Melting Point": "184-186 \u00b0C"}}