{"cas_no": "2042-14-0", "cn_name": "4-\u7532\u57fa-3-\u785d\u57fa\u82ef\u915a", "en_name": ["4-Methyl-3-nitrophenol", "Phenol, 4-methyl-3-nitro-", "p-Cresol, 3-nitro-", "4-Methyl-3-nitrophenol", "3-Nitro-4-methylphenol", "3-Nitro-p-cresol", "4-Hydroxy-2-nitrotoluene", "4-Methyl-5-nitrophenol", "NSC 41205"], "SMILES": "N(=O)(=O)C1=C(C)C=CC(O)=C1", "physical_data": {"Molecular Weight": "153.14", "Molecular Formula": "C7H7NO3", "Melting Point": "79 \u00b0C"}}