{"cas_no": "20427-56-9", "cn_name": "\u56db\u6c27\u5316\u948c", "en_name": ["Ruthenium tetroxide", "Ruthenium oxide (RuO4), (T-4)-", "Ruthenium oxide (RuO4)", "Ruthenium tetroxide", "Ruthenium tetraoxide", "Ruthenium(VIII) oxide", "Ruthenium(VIII) tetraoxide", "Tetraoxoruthenium"], "SMILES": "[Ru](=O)(=O)(=O)=O", "physical_data": {"Molecular Weight": "", "Molecular Formula": "O4Ru", "Melting Point": "25 \u00b0C"}}