{"cas_no": "204316-36-9", "cn_name": "N-\u82b4\u7532\u6c27\u7fb0\u57fa-N'-\u82c4\u6c27\u7fb0\u57fa-L-\u4e8c\u6c28\u57fa\u4e19\u9178", "en_name": ["N-[(9H-Fluoren-9-ylmethoxy)carbonyl]-3-[[(phenylmethoxy)carbonyl]amino]-L-alanine", "L-Alanine, N-[(9H-fluoren-9-ylmethoxy)carbonyl]-3-[[(phenylmethoxy)carbonyl]amino]-", "N-[(9H-Fluoren-9-ylmethoxy)carbonyl]-3-[[(phenylmethoxy)carbonyl]amino]-L-alanine"], "SMILES": "C(OC(NC(CNC(OCC1=CC=CC=C1)=O)C(O)=O)=O)C2C=3C(C=4C2=CC=CC4)=CC=CC3", "physical_data": {"Molecular Weight": "460.48", "Molecular Formula": "C26H24N2O6", "Melting Point": "119 \u00b0C"}}