{"cas_no": "204326-43-2", "cn_name": "4H-8-BROMO-1,2,4-OXADIAZOLO(3,4-D)BENZ(B)(1,4)OXAZIN-1-ONE", "en_name": ["8-Bromo-1H,4H-[1,2,4]oxadiazolo[3,4-c][1,4]benzoxazin-1-one", "1H,4H-[1,2,4]Oxadiazolo[3,4-c][1,4]benzoxazin-1-one, 8-bromo-", "8-Bromo-1H,4H-[1,2,4]oxadiazolo[3,4-c][1,4]benzoxazin-1-one", "NS 2028", "4H-8-Bromo-1,2,4-oxadiazolo(3,4-d)ben(b)(1,4)oxazin-1-one"], "SMILES": "O=C1N2C=3C(OCC2=NO1)=CC=C(Br)C3", "physical_data": {"Molecular Weight": "269.05", "Molecular Formula": "C9H5BrN2O3", "Melting Point": "163-164 \u00b0C"}}