{"cas_no": "2043-61-0", "cn_name": "\u73af\u5df1\u70f7\u57fa\u7532\u919b", "en_name": ["Cyclohexanecarboxaldehyde", "Cyclohexanecarboxaldehyde", "Cyclohexanealdehyde", "Cyclohexylformaldehyde", "Cyclohexanal", "Formylcyclohexane", "Cyclohexanaldehyde", "Cyclohexylcarboxaldehyde", "1-Formylcyclohexane", "Cyclohexanecarbaldehyde", "1-Cyclohexanecarboxaldehyde", "Hexahydrobenzaldehyde", "Cyclohexylcarbaldehyde", "Cyclohexane-1-aldehyde", "NSC 68509", "Cyclohexancarboxaldehyde"], "SMILES": "C(=O)C1CCCCC1", "physical_data": {"Molecular Weight": "112.17", "Molecular Formula": "C7H12O", "Boiling Point": "159.3 \u00b0C", "Melting Point": "104-107 \u00b0C", "Density": "0.9235 g/cm\u00b3 @ Temp: 25 \u00b0C"}}