{"cas_no": "2043-47-2", "cn_name": "1H,1H,2H,2H-\u5168\u6c1f\u5df1-1-\u9187", "en_name": ["2-(Perfluorobutyl)ethanol", "1-Hexanol, 3,3,4,4,5,5,6,6,6-nonafluoro-", "3,3,4,4,5,5,6,6,6-Nonafluoro-1-hexanol", "2-(Perfluorobutyl)ethyl alcohol", "1,1,2,2-Tetrahydroperfluorohexyl alcohol", "2-(Perfluorobutyl)ethanol", "1H,1H,2H,2H-Perfluorohexanol", "1H,1H,2H,2H-Perfluorohexan-1-ol", "1H,1H,2H,2H-Nonafluorohexanol", "A 1420", "3,3,4,4,5,5,6,6,6-Nonafluorohexanol", "1H,1H,2H,2H-Nonafluoro-1-hexanol", "1H,1H,2H,2H-Nonafluoro-n-hexanol", "1,1,2,2-Tetrahydroperfluorohexan-1-ol", "4:2 FTOH", "TEOH 4", "Perfluorobutylethanol", "6,6,6,5,5,4,4,3,3-Nonafluorohexan-1-ol"], "SMILES": "C(C(C(F)(F)F)(F)F)(C(CCO)(F)F)(F)F", "physical_data": {"Molecular Weight": "264.09", "Molecular Formula": "C6H5F9O", "Boiling Point": "65 \u00b0C @ Press: 20 Torr"}}