{"cas_no": "20439-47-8", "cn_name": "\u5de6\u65cb-\u53cd\u5f0f-1,2-\u73af\u5df1\u4e8c\u80fa", "en_name": ["(-)-trans-1,2-Diaminocyclohexane", "1,2-Cyclohexanediamine, (1R,2R)-", "1,2-Cyclohexanediamine, (1R-trans)-", "(1R,2R)-1,2-Cyclohexanediamine", "trans-(-)-1,2-Cyclohexanediamine", "l-trans-1,2-Diaminocyclohexane", "trans-(-)-1,2-Diaminocyclohexane", "(1R,2R)-(-)-1,2-Diaminocyclohexane", "(-)-(1R,2R)-Diaminocyclohexane", "(R,R)-trans-1,2-Diaminocyclohexane", "(R,R)-(-)-1,2-Cyclohexanediamine", "trans-(R,R)-1,2-Cyclohexanediamine", "trans-l-1,2-Diaminocyclohexane", "(-)-trans-1,2-Diaminocyclohexane", "trans-(R,R)-1,2-Diaminocyclohexane", "(R,R)-(-)-trans-1,2-Diaminocyclohexane", "(1R-trans)-1,2-Cyclohexanediamine", "trans-1R,2R-Diaminocyclohexane", "(1R,2R)-1,2-Diaminocyclohexane", "(R,R)-1,2-Diaminocyclohexane", "(1R,2R)-trans-1,2-Diaminocyclohexane", "(1R,2R)-Diaminocyclohexane", "trans-l-1,2-Cyclohexanediamine", "(R,R)-(-)-1,2-Diaminocyclohexane", "(1R,2R)-(-)-1,2-Cyclohexanediamine", "(-)-trans-1,2-Cyclohexanediamine", "(1R,2R)-Cyclohexanediamine", "(-)-(1R,2R)Cyclohexanediamine", "(-)-(1R,2R)-1,2-Cyclohexanediamine", "(1R,2R)-(-)-Diaminocyclohexane", "trans-(1R,2R)-1,2-Diaminocyclohexane", "(R,R)-trans-1,2-Cyclohexanediamine", "(R,R)-1,2-Cyclohexanediamine", "1R,2R-trans-Cyclohexanediamine", "(1R,2R)-trans-Cyclohexane-1,2-diamine", "(R,R)-Dach", "(1R,2R)-2-Aminocyclohexylamine", "(1R,2R)-1,2-trans-Cyclohexanediamine", "(1R,2R)-(+)-1,2-Diaminocyclohexane", "(R,R)-DACH", "(1R,2R)-1,2-Cyclohexyldiamine", "(1R,2R)-Cyclohexan-1,2-diamine", "DACH", "1,2-(R,R)-Diaminocyclohexane"], "SMILES": "NC1C(N)CCCC1", "physical_data": {"Molecular Weight": "114.19", "Molecular Formula": "C6H14N2", "Melting Point": "43-45 \u00b0C"}}