{"cas_no": "2043-54-1", "cn_name": "\u5168\u6c1f\u7678\u57fa\u4e59\u57fa\u7898", "en_name": ["1-Iodo-1H,1H,2H,2H-perfluorododecane", "Dodecane, 1,1,1,2,2,3,3,4,4,5,5,6,6,7,7,8,8,9,9,10,10-heneicosafluoro-12-iodo-", "1,1,1,2,2,3,3,4,4,5,5,6,6,7,7,8,8,9,9,10,10-Heneicosafluoro-12-iodododecane", "1-(2-Iodoethyl)heneicosafluorodecane", "1-Iodo-1H,1H,2H,2H-perfluorododecane", "Perfluorodecylethyl iodide", "2-(Perfluorodecyl)ethyl iodide", "1-Iodo-2-(perfluorodecanyl)ethane", "1H,1H,2H,2H-Perfluorododecyl iodide", "1H,1H,2H,2H-Perfluododecyl iodide", "1,1,1,2,2,3,3,4,4,5,5,6,6,7,7,8,8,9,9,10,10-Henicosafluoro-12-iodododecane"], "SMILES": "C(C(C(C(C(C(F)(F)F)(F)F)(F)F)(F)F)(F)F)(C(C(C(C(CCI)(F)F)(F)F)(F)F)(F)F)(F)F", "physical_data": {"Molecular Weight": "674.03", "Molecular Formula": "C12H4F21I", "Boiling Point": "108 \u00b0C @ Press: 10 Torr"}}