{"cas_no": "2043-55-2", "cn_name": "1,1,2,2-\u56db\u6c22\u5168\u6c1f\u5df1\u57fa\u7898", "en_name": ["1,1,1,2,2,3,3,4,4-Nonafluoro-6-iodohexane", "Hexane, 1,1,1,2,2,3,3,4,4-nonafluoro-6-iodo-", "1,1,1,2,2,3,3,4,4-Nonafluoro-6-iodohexane", "2-(Perfluorobutyl)ethyl iodide", "1-Perfluorobutyl-2-iodoethane", "1H,1H,2H,2H-Perfluorohexyl iodide", "2-Perfluorobutyl-1-iodoethane", "3,3,4,4,5,5,6,6,6-Nonafluorohexyl iodide", "1-Iodo-3,3,4,4,5,5,6,6,6-nonafluorohexane", "2-(Nonafluorobutyl)ethyl iodide", "1-Iodo-2-(perfluorobutyl)ethane", "1-Iodo-1H,1H,2H,2H-perfluorohexane"], "SMILES": "C(C(C(F)(F)F)(F)F)(C(CCI)(F)F)(F)F", "physical_data": {"Molecular Weight": "373.99", "Molecular Formula": "C6H4F9I", "Boiling Point": "81 \u00b0C @ Press: 100 Torr"}}