{"cas_no": "2043-57-4", "cn_name": "1,1,1,2,2,3,3,4,4,5,5,6,6-\u5341\u4e09\u6c1f-8-\u7898\u8f9b\u70f7", "en_name": ["1,1,1,2,2,3,3,4,4,5,5,6,6-Tridecafluoro-8-iodooctane", "Octane, 1,1,1,2,2,3,3,4,4,5,5,6,6-tridecafluoro-8-iodo-", "1,1,1,2,2,3,3,4,4,5,5,6,6-Tridecafluoro-8-iodooctane", "3,3,4,4,5,5,6,6,7,7,8,8,8-Tridecafluorooctyl iodide", "1-(2-Iodoethyl)tridecafluorohexane", "2-(Perfluorohexyl)ethyl iodide", "1-Iodo-1H,1H,2H,2H-perfluorooctane", "2-Perfluorohexyl-1-iodoethane", "1H,1H,2H,2H-Tridecafluorooctyl iodide", "1H,1H,2H,2H-Perfluorooctyl iodide", "1-Iodo-1H,1H,2H,2H-tridecafluorooctane", "Perfluorohexylethyl iodide", "1-Iodo-3,3,4,4,5,5,6,6,7,7,8,8,8-Tridecafluorooctane", "1H,1H,2H,2H-Nonafluorohexyl iodide", "1-Iodo-2-(perfluorohexyl)ethane"], "SMILES": "C(C(C(C(F)(F)F)(F)F)(F)F)(C(C(CCI)(F)F)(F)F)(F)F", "physical_data": {"Molecular Weight": "474.00", "Molecular Formula": "C8H4F13I", "Boiling Point": "180 \u00b0C"}}