{"cas_no": "2043-53-0", "cn_name": "1,1,1,2,2,3,3,4,4,5,5,6,6,7,7,8,8-\u5341\u4e03\u6c1f-10-\u7898\u5e9a\u70f7", "en_name": ["1,1,1,2,2,3,3,4,4,5,5,6,6,7,7,8,8-Heptadecafluoro-10-iododecane", "Decane, 1,1,1,2,2,3,3,4,4,5,5,6,6,7,7,8,8-heptadecafluoro-10-iodo-", "1,1,1,2,2,3,3,4,4,5,5,6,6,7,7,8,8-Heptadecafluoro-10-iododecane", "1-Iodo-1,1,2,2-tetrahydroperfluorodecane", "1,1,2,2-Tetrahydroperfluorodecyl iodide", "3,3,4,4,5,5,6,6,7,7,8,8,9,9,10,10,10-Heptadecafluorodecyl iodide", "1-(2-Iodoethyl)heptadecafluorooctane", "2-(Perfluorooctyl)ethyl iodide", "1-(Perfluorooctyl)-2-iodoethane", "2-(n-Perfluorooctyl)ethyl iodide", "1-Iodo-1H,1H,2H,2H-perfluorodecane", "1H,1H,2H,2H-Heptadecaflurorodecyl iodide", "Perfluorooctylethyl iodide", "3,3,4,4,5,5,6,6,7,7,8,8,9,9,10,10,10-Heptadecafluoro-1-iododecane", "1-Iodo-3,3,4,4,5,5,6,6,7,7,8,8,9,9,10,10,10-heptadecafluorodecane", "1-Iodo-2-(perfluorooctyl)ethane", "1H,1H,2H,2H-Perfluorodecyl iodide", "10-Iodo-1,1,1,2,2,3,3,4,4,5,5,6,6,7,7,8,8-heptadecafluorodecane", "1H,1H,2H,2H-Heptadecafluorodecyl iodide"], "SMILES": "C(C(C(C(C(F)(F)F)(F)F)(F)F)(F)F)(C(C(C(CCI)(F)F)(F)F)(F)F)(F)F", "physical_data": {"Molecular Weight": "574.02", "Molecular Formula": "C10H4F17I", "Boiling Point": "90-91 \u00b0C @ Press: 10 Torr", "Melting Point": "50 \u00b0C"}}