{"cas_no": "2043-43-8", "cn_name": "\u4e73\u9170\u6c28", "en_name": ["Lactamide", "Propanamide, 2-hydroxy-", "Lactamide", "2-Hydroxypropanamide", "Lactic amide", "\u03b1-Hydroxypropionamide", "2-Hydroxypropionamide", "Lactic acid amide", "(\u00b1)-Lactamide", "DL-Lactamide", "NSC 61454", "NSC 9903"], "SMILES": "C(C(N)=O)(C)O", "physical_data": {"Molecular Weight": "89.09", "Molecular Formula": "C3H7NO2", "Melting Point": "76.4 \u00b0C"}}