{"cas_no": "2043-38-1", "cn_name": "\u5e03\u567b\u55ea", "en_name": ["Butizide", "2H-1,2,4-Benzothiadiazine-7-sulfonamide, 6-chloro-3,4-dihydro-3-(2-methylpropyl)-, 1,1-dioxide", "2H-1,2,4-Benzothiadiazine-7-sulfonamide, 6-chloro-3,4-dihydro-3-isobutyl-, 1,1-dioxide", "Butizide", "Eunephran", "3-Isobutyl-6-chloro-3,4-dihydro-2H-1,2,4-benzothiadiazine-7-sulfonamide 1,1-dioxide", "Isobutylhydrochlorothiazide", "Saltucin", "Thiabutazide", "Buthiazide", "Su 6187", "S 3500", "Butizid", "3500S", "Modenol"], "SMILES": "O=S1(=O)C=2C(NC(CC(C)C)N1)=CC(Cl)=C(S(N)(=O)=O)C2", "physical_data": {"Molecular Weight": "353.85", "Molecular Formula": "C11H16ClN3O4S2", "Melting Point": "221.5 \u00b0C"}}