{"cas_no": "20440-93-1", "cn_name": "\u4e09(4-\u785d\u57fa\u82ef\u57fa)\u80fa", "en_name": ["4-Nitro-N,N-bis(4-nitrophenyl)benzenamine", "Benzenamine, 4-nitro-N,N-bis(4-nitrophenyl)-", "Triphenylamine, 4,4\u2032,4\u2032\u2032-trinitro-", "4-Nitro-N,N-bis(4-nitrophenyl)benzenamine", "Tris(p-nitrophenyl)amine", "Tri(p-nitrophenyl)amine", "Tris(4-nitrophenyl)amine", "Tri(4-nitrophenyl)amine", "4,4\u2032,4\u2032\u2032-Trinitrotriphenylamine"], "SMILES": "N(C1=CC=C(N(=O)=O)C=C1)(C2=CC=C(N(=O)=O)C=C2)C3=CC=C(N(=O)=O)C=C3", "physical_data": {"Molecular Weight": "380.31", "Molecular Formula": "C18H12N4O6", "Melting Point": "349-350 \u00b0C"}}