{"cas_no": "20443-98-5", "cn_name": "2,6-\u4e8c\u6c2f\u82c4\u57fa\u6eb4", "en_name": ["2,6-Dichlorobenzyl bromide", "Benzene, 2-(bromomethyl)-1,3-dichloro-", "Toluene, \u03b1-bromo-2,6-dichloro-", "2-(Bromomethyl)-1,3-dichlorobenzene", "2,6-Dichlorobenzyl bromide", "\u03b1-Bromo-2,6-dichlorotoluene", "2,6-Dichloro-\u03b1-bromotoluene", "NSC 93898", "1-Bromomethyl-2,6-dichlorobenzene"], "SMILES": "C(Br)C1=C(Cl)C=CC=C1Cl", "physical_data": {"Molecular Weight": "239.92", "Molecular Formula": "C7H5BrCl2", "Boiling Point": "118 \u00b0C @ Press: 2 Torr", "Melting Point": "45-46 \u00b0C"}}