{"cas_no": "20442-79-9", "cn_name": "3-\u7898\u8054\u82ef", "en_name": ["3-Iodobiphenyl", "1,1\u2032-Biphenyl, 3-iodo-", "Biphenyl, 3-iodo-", "3-Iodo-1,1\u2032-biphenyl", "3-Iodobiphenyl", "3-Biphenyl iodide", "m-Iodobiphenyl", "1-Iodo-3-phenylbenzene"], "SMILES": "IC=1C=C(C=CC1)C2=CC=CC=C2", "physical_data": {"Molecular Weight": "280.10", "Molecular Formula": "C12H9I", "Boiling Point": "149-152 \u00b0C @ Press: 1 Torr", "Melting Point": "26.5 \u00b0C"}}