{"cas_no": "2044-88-4", "cn_name": "N-\u7532\u57fa-2,4-\u4e8c\u785d\u57fa\u82ef\u80fa", "en_name": ["N-Methyl-2,4-dinitroaniline", "Benzenamine, N-methyl-2,4-dinitro-", "Aniline, N-methyl-2,4-dinitro-", "N-Methyl-2,4-dinitrobenzenamine", "N-Methyl-2,4-dinitroaniline", "(2,4-Dinitrophenyl)methylamine", "2,4-Dinitro-N-methylaniline", "1-(Methylamino)-2,4-dinitrobenzene", "NSC 36958"], "SMILES": "N(=O)(=O)C1=C(NC)C=CC(N(=O)=O)=C1", "physical_data": {"Molecular Weight": "197.15", "Molecular Formula": "C7H7N3O4", "Melting Point": "175-176 \u00b0C"}}