{"cas_no": "2044-73-7", "cn_name": "\u5421\u5576-2-\u7532\u786b\u9187", "en_name": ["2-Pyridinemethanethiol", "2-Pyridinemethanethiol", "Pyridine-2-thiocarbinol", "2-(Mercaptomethyl)pyridine", "2-Pyridylmethyl mercaptan", "2-Pyridylmethanethiol", "2-Picolylthiol", "NSC 82320", "Pyridin-2-ylmethanethiol"], "SMILES": "C(S)C1=CC=CC=N1", "physical_data": {"Molecular Weight": "125.19", "Molecular Formula": "C6H7NS", "Boiling Point": "87-89 \u00b0C @ Press: 10 Torr"}}