{"cas_no": "20440-95-3", "cn_name": "4,4'-\u4e8c\u7532\u57fa\u4e09\u82ef\u80fa", "en_name": ["4-Methyl-N-(4-methylphenyl)-N-phenylbenzenamine", "Benzenamine, 4-methyl-N-(4-methylphenyl)-N-phenyl-", "Di-p-tolylamine, N-phenyl-", "4-Methyl-N-(4-methylphenyl)-N-phenylbenzenamine", "N,N-Di-p-tolylaniline", "N-Phenyl-di-p-tolylamine", "N,N-Bis(4-methylphenyl)aniline", "Phenylbis(p-tolyl)amine", "Phenyl-di-p-tolylamine", "4,4\u2032-Dimethyltriphenylamine", "N,N-Bis(p-tolyl)aniline", "N,N-Di(4-methylphenyl)phenylamine"], "SMILES": "N(C1=CC=C(C)C=C1)(C2=CC=C(C)C=C2)C3=CC=CC=C3", "physical_data": {"Molecular Weight": "273.37", "Molecular Formula": "C20H19N", "Boiling Point": "289.3 \u00b0C", "Melting Point": "109 \u00b0C"}}