{"cas_no": "2044-72-6", "cn_name": "2',5'-\u4e8c\u6c2f\u4e59\u9170\u4e59\u9170\u82ef\u80fa", "en_name": ["N-(2,5-Dichlorophenyl)-3-oxobutanamide", "Butanamide, N-(2,5-dichlorophenyl)-3-oxo-", "Acetoacetanilide, 2\u2032,5\u2032-dichloro-", "N-(2,5-Dichlorophenyl)-3-oxobutanamide", "2\u2032,5\u2032-Dichloroacetoacetanilide", "Acetoacetic acid-2,5-dichloroanilide", "NSC 3911"], "SMILES": "N(C(CC(C)=O)=O)C1=C(Cl)C=CC(Cl)=C1", "physical_data": {"Molecular Weight": "246.09", "Molecular Formula": "C10H9Cl2NO2", "Melting Point": "94-96 \u00b0C"}}