{"cas_no": "2044-64-6", "cn_name": "N,N-\u4e8c\u7532\u57fa\u4e59\u9170\u57fa\u4e59\u9170\u80fa", "en_name": ["Dimethylacetoacetamide", "Butanamide, N,N-dimethyl-3-oxo-", "Acetoacetamide, N,N-dimethyl-", "N,N-Dimethyl-3-oxobutanamide", "N,N-Dimethylacetoacetamide", "N,N-Dimethyl-3-oxobutyramide", "Dimethylacetoacetamide", "NSC 524755", "N,N-Dimethyl-2-acetoacetamide", "N,N-Dimethylacetoacetic amide"], "SMILES": "C(CC(C)=O)(N(C)C)=O", "physical_data": {"Molecular Weight": "129.16", "Molecular Formula": "C6H11NO2", "Boiling Point": "80-83 \u00b0C @ Press: 0.5 Torr", "Melting Point": "120 \u00b0C"}}