{"cas_no": "20445-31-2", "cn_name": "(R)-(+)-alpha-\u7532\u6c27\u57fa-alpha-\u4e09\u6c1f\u7532\u57fa\u82ef\u4e59\u9178", "en_name": ["(R)-\u03b1-Methoxy-\u03b1-(trifluoromethyl)phenylacetic acid", "Benzeneacetic acid, \u03b1-methoxy-\u03b1-(trifluoromethyl)-, (\u03b1R)-", "Hydratropic acid, \u03b2,\u03b2,\u03b2-trifluoro-\u03b1-methoxy-, (+)-", "Benzeneacetic acid, \u03b1-methoxy-\u03b1-(trifluoromethyl)-, (R)-", "(\u03b1R)-\u03b1-Methoxy-\u03b1-(trifluoromethyl)benzeneacetic acid", "(+)-Mosher's acid", "(+)-\u03b1-Methoxy-\u03b1-(trifluoromethyl)phenylacetic acid", "(R)-(+)-\u03b1-Methoxy-\u03b1-(trifluoromethyl)phenylacetic acid", "(+)-MTPA", "(R)-(+)-MTPA acid", "(R)-\u03b1-Methoxy-\u03b1-(trifluoromethyl)phenylacetic acid", "(+)-3,3,3-Trifluoro-2-methoxy-2-phenylpropionic acid", "(R)-\u03b1-Methoxy-\u03b1-(trifluoromethyl)benzeneacetic acid", "(R)-Mosher's acid", "(R)-Mosher acid", "(R)-MTPA", "(R)-3,3,3-Trifluoro-2-methoxy-2-phenylpropanoic acid", "(R)-(+)-3,3,3-Trifluoro-2-phenyl-2-methoxypropanoic acid", "(R)-2-Methoxy-2-(trifluoromethylphenylacetic acid", "(R)-(+)-Mosher's acid", "(R)-(+)-Mosher acid", "(R)-\u03b1-Methoxy-\u03b1-(trifluoromethyl)phenylethanoic acid", "(R)-2-Methoxy-2-phenyl-2-(trifluoromethyl)ethanoic acid", "(2R)-3,3,3-Trifluoro-2-methoxy-2-phenylpropanoic acid", "(R)-\u03b1-Methoxy-\u03b1-trifluoromethylphenylacetic acid", "(R)-Mosher acid", "R-MTPA-OH", "(2R)-3,3,3-Trifluoro-2-methoxy-2-phenylpropanoic acid", "(R)-2-Methoxy-2-phenyl-3,3,3-trifluoropropanoic acid"], "SMILES": "C(C(F)(F)F)(C(O)=O)(OC)C1=CC=CC=C1", "physical_data": {"Molecular Weight": "234.17", "Molecular Formula": "C10H9F3O3", "Boiling Point": "95-110 \u00b0C @ Press: 1.5-2.0 Torr"}}