{"cas_no": "20443-99-6", "cn_name": "2,4-\u4e8c\u6c2f\u6eb4\u82c4", "en_name": ["2,4-Dichlorobenzyl bromide", "Benzene, 1-(bromomethyl)-2,4-dichloro-", "Toluene, \u03b1-bromo-2,4-dichloro-", "1-(Bromomethyl)-2,4-dichlorobenzene", "2,4-Dichlorobenzyl bromide"], "SMILES": "C(Br)C1=C(Cl)C=C(Cl)C=C1", "physical_data": {"Molecular Weight": "239.92", "Molecular Formula": "C7H5BrCl2", "Boiling Point": "126-133 \u00b0C @ Press: 8 Torr"}}