{"cas_no": "20443-74-7", "cn_name": "4-\u6c2f(1,1-\u8054\u82ef)-4-\u78fa\u9170\u6c2f", "en_name": ["4\u2032-Chloro[1,1\u2032-biphenyl]-4-sulfonyl chloride", "[1,1\u2032-Biphenyl]-4-sulfonyl chloride, 4\u2032-chloro-", "4-Biphenylsulfonyl chloride, 4\u2032-chloro-", "4\u2032-Chloro[1,1\u2032-biphenyl]-4-sulfonyl chloride", "4\u2032-Chloro-4-biphenylsulfonyl chloride", "4-(4-Chlorophenyl)benzenesulfonyl chloride"], "SMILES": "S(Cl)(=O)(=O)C1=CC=C(C=C1)C2=CC=C(Cl)C=C2", "physical_data": {"Molecular Weight": "287.16", "Molecular Formula": "C12H8Cl2O2S", "Melting Point": "104-106 \u00b0C"}}