{"cas_no": "2045-70-7", "cn_name": "3,5-\u4e8c\u785d\u57fa-2-\u6c28\u57fa\u567b\u5429", "en_name": ["3,5-Dinitro-2-thiophenamine", "2-Thiophenamine, 3,5-dinitro-", "3,5-Dinitro-2-thiophenamine", "2-Amino-3,5-dinitrothiophene"], "SMILES": "N(=O)(=O)C1=CC(N(=O)=O)=C(N)S1", "physical_data": {"Molecular Weight": "189.15", "Molecular Formula": "C4H3N3O4S", "Melting Point": "178.9-180.8 \u00b0C"}}