{"cas_no": "2045-00-3", "cn_name": "2-\u6c28\u57fa\u82ef\u80c2\u9178", "en_name": ["o-Arsanilic acid", "Arsonic acid, As-(2-aminophenyl)-", "o-Arsanilic acid", "Arsonic acid, (2-aminophenyl)-", "As-(2-Aminophenyl)arsonic acid", "o-Aminobenzenearsonic acid", "2-Aminobenzenearsonic acid", "(o-Aminophenyl)arsonic acid", "2-Arsanilic acid", "(2-Aminophenyl)arsonic acid", "NSC 12611"], "SMILES": "[As](=O)(O)(O)C1=C(N)C=CC=C1", "physical_data": {"Molecular Weight": "217.05", "Molecular Formula": "C6H8AsNO3", "Melting Point": "153-154 \u00b0C", "Density": "1.79 g/cm\u00b3"}}