{"cas_no": "2045-79-6", "cn_name": "2-\u7532\u6c27\u57fa\u82ef\u4e59\u80fa", "en_name": ["2-Methoxyphenethylamine", "Benzeneethanamine, 2-methoxy-", "Phenethylamine, o-methoxy-", "2-Methoxybenzeneethanamine", "2-(o-Methoxyphenyl)ethylamine", "2-Methoxyphenylethylamine", "o-Methoxyphenylethylamine", "2-Methoxyphenethylamine", "o-Methoxy-\u03b2-phenylethylamine", "2-(2-Methoxyphenyl)ethanamine", "2-(2-Methoxyphenyl)ethylamine", "o-Methoxyphenethylamine", "2-(2-Methoxyphenyl)ethan-1-amine", "1-Amino-2-(2-methoxyphenyl)-ethane"], "SMILES": "C(CN)C1=C(OC)C=CC=C1", "physical_data": {"Molecular Weight": "151.21", "Molecular Formula": "C9H13NO", "Boiling Point": "236.5 \u00b0C"}}