{"cas_no": "20451-53-0", "cn_name": "\u82ef\u57fa\u4e59\u70ef\u57fa\u4e9a\u781c", "en_name": ["(Ethenylsulfinyl)benzene", "Benzene, (ethenylsulfinyl)-", "Sulfoxide, phenyl vinyl", "(Ethenylsulfinyl)benzene", "Phenyl vinyl sulfoxide", "Vinyl phenyl sulfoxide", "(\u00b1)-Phenyl vinyl sulfoxide", "(Vinylsulfinyl)benzene", "Ethenyl phenyl sulfoxide"], "SMILES": "S(C=C)(=O)C1=CC=CC=C1", "physical_data": {"Molecular Weight": "152.21", "Molecular Formula": "C8H8OS", "Boiling Point": "93-95 \u00b0C @ Press: 0.2 Torr", "Melting Point": "100-102 \u00b0C", "Density": "1.1629 g/cm\u00b3 @ Temp: 20 \u00b0C"}}