{"cas_no": "204512-95-8", "cn_name": "(S)4-\u6c28\u57fa\u56db\u6c22\u544b\u5583\u76d0\u9178\u76d0", "en_name": ["3-Furanamine, tetrahydro-, hydrochloride (1:1), (3S)-", "3-Furanamine, tetrahydro-, hydrochloride (1:1), (3S)-", "3-Furanamine, tetrahydro-, hydrochloride, (S)-", "3-Furanamine, tetrahydro-, hydrochloride, (3S)-", "(S)-Tetrahydrofuran-3-ylamine hydrochloride", "(S)-Tetrahydrofuran-3-amine hydrochloride", "(3S)-Tetrahydrofuran-3-amine hydrochloride"], "SMILES": "NC1CCOC1.Cl", "physical_data": {"Molecular Weight": "", "Molecular Formula": "C4H9NO.ClH", "Melting Point": "165-170 \u00b0C"}}