{"cas_no": "2046-18-6", "cn_name": "4-\u82ef\u57fa\u4e01\u8148", "en_name": ["Benzenebutanenitrile", "Benzenebutanenitrile", "Butyronitrile, 4-phenyl-", "4-Phenylbutyronitrile", "(3-Cyanopropyl)benzene", "1-Cyano-3-phenylpropane", "4-Phenylbutanenitrile", "\u03b3-Phenylpropyl cyanide", "NSC 1853"], "SMILES": "C(CCC#N)C1=CC=CC=C1", "physical_data": {"Molecular Weight": "145.20", "Molecular Formula": "C10H11N", "Boiling Point": "97-99 \u00b0C"}}