{"cas_no": "20469-63-0", "cn_name": "2,4-\u4e8c\u7532\u6c27\u57fa\u7898\u82ef", "en_name": ["1-Iodo-2,4-dimethoxybenzene", "Benzene, 1-iodo-2,4-dimethoxy-", "1-Iodo-2,4-dimethoxybenzene", "2,4-Dimethoxyiodobenzene", "2,4-Dimethoxyphenyl iodide", "1,3-Dimethoxy-4-iodobenzene", "NSC 89774", "2-Iodo-1,5-dimethoxybenzene"], "SMILES": "O(C)C1=CC(OC)=CC=C1I", "physical_data": {"Molecular Weight": "264.06", "Molecular Formula": "C8H9IO2", "Boiling Point": "163 \u00b0C @ Press: 14 Torr", "Melting Point": "40 \u00b0C"}}