{"cas_no": "20462-00-4", "cn_name": "1,3-\u4e8c\u567b\u70f7-2-\u7532\u9178\u4e59\u916f", "en_name": ["Ethyl 1,3-dithiane-2-carboxylate", "1,3-Dithiane-2-carboxylic acid, ethyl ester", "m-Dithiane-2-carboxylic acid, ethyl ester", "Ethyl 1,3-dithiane-2-carboxylate", "2-(Ethoxycarbonyl)-1,3-dithiane"], "SMILES": "C(OCC)(=O)C1SCCCS1", "physical_data": {"Molecular Weight": "192.30", "Molecular Formula": "C7H12O2S2", "Boiling Point": "96 \u00b0C @ Press: 0.4 Torr"}}