{"cas_no": "2046-17-5", "cn_name": "4-\u82ef\u4e01\u9178\u7532\u916f", "en_name": ["Methyl 4-phenylbutyrate", "Benzenebutanoic acid, methyl ester", "Butyric acid, 4-phenyl-, methyl ester", "Methyl 4-phenylbutyrate", "Methyl 4-phenylbutanoate", "NSC 133895", "Methyl benzenebutanoate", "4-Phenylbutyric acid methyl ester"], "SMILES": "C(CCC(OC)=O)C1=CC=CC=C1", "physical_data": {"Molecular Weight": "178.23", "Molecular Formula": "C11H14O2", "Boiling Point": "181 \u00b0C @ Press: 18 Torr"}}