{"cas_no": "2046-21-1", "cn_name": "5-\u4e59\u9170\u620a\u9178\u7532\u916f", "en_name": ["Heptanoic acid, 6-oxo-, methyl ester", "Heptanoic acid, 6-oxo-, methyl ester", "Methyl 6-oxoheptanoate", "6-Oxoheptanoic acid methyl ester", "NSC 148317"], "SMILES": "C(CCCC(C)=O)C(OC)=O", "physical_data": {"Molecular Weight": "158.20", "Molecular Formula": "C8H14O3", "Boiling Point": "140-142 \u00b0C @ Press: 0.8 Torr", "Density": "1.0636 g/cm\u00b3 @ Temp: 20 \u00b0C"}}