{"cas_no": "20474-93-5", "cn_name": "2-\u4e01\u70ef\u9178\u70ef\u4e19\u916f", "en_name": ["2-Propen-1-yl 2-butenoate", "2-Butenoic acid, 2-propen-1-yl ester", "Crotonic acid, allyl ester", "2-Butenoic acid, 2-propenyl ester", "2-Propen-1-yl 2-butenoate", "Allyl crotonate", "NSC 18598", "Allyl 2-butenoate"], "SMILES": "C(OCC=C)(C=CC)=O", "physical_data": {"Molecular Weight": "126.15", "Molecular Formula": "C7H10O2", "Boiling Point": "88-89 \u00b0C @ Press: 70 Torr", "Density": "0.9440 g/cm\u00b3 @ Temp: 20 \u00b0C"}}