{"cas_no": "2047-91-8", "cn_name": "1,2,3,4-\u56db\u6c22\u73af\u620a[B]\u5432\u54da", "en_name": ["1,2,3,4-Tetrahydrocyclopent[b]indole", "Cyclopent[b]indole, 1,2,3,4-tetrahydro-", "1,2,3,4-Tetrahydrocyclopent[b]indole", "2,3-Trimethyleneindole", "1H-Indole, 2,3-(1,3-propanediyl)-", "NSC 112674", "1,2,3,4-Tetrahydrocyclopenta[b]indole", "1H,2H,3H,4H-Cyclopenta[b]indole"], "SMILES": "C=12C=3C(NC1CCC2)=CC=CC3", "physical_data": {"Molecular Weight": "157.21", "Molecular Formula": "C11H11N", "Boiling Point": "160-162 \u00b0C @ Press: 1 Torr", "Melting Point": "109 \u00b0C"}}