{"cas_no": "20485-41-0", "cn_name": "4-\u7532\u57fa\u567b\u5511-5-\u7532\u9178", "en_name": ["4-Methyl-5-thiazolecarboxylic acid", "5-Thiazolecarboxylic acid, 4-methyl-", "4-Methyl-5-thiazolecarboxylic acid", "4-Methyl-1,3-thiazole-5-carboxylic acid"], "SMILES": "C(O)(=O)C1=C(C)N=CS1", "physical_data": {"Molecular Weight": "143.16", "Molecular Formula": "C5H5NO2S", "Melting Point": "280 \u00b0C (decomp)"}}