{"cas_no": "20485-43-2", "cn_name": "1-\u7532\u57fa-1H-\u54aa\u5511-2-\u7fa7\u9178", "en_name": ["1-Methyl-1H-imidazole-2-carboxylic acid", "1H-Imidazole-2-carboxylic acid, 1-methyl-", "Imidazole-2-carboxylic acid, 1-methyl-", "1-Methyl-1H-imidazole-2-carboxylic acid", "1-Methyl-1H-2-imidazolecarboxylic acid", "1-Methylimidazole-2-carboxylic acid"], "SMILES": "C(O)(=O)C=1N(C)C=CN1", "physical_data": {"Molecular Weight": "126.11", "Molecular Formula": "C5H6N2O2", "Melting Point": "99-101 \u00b0C"}}