{"cas_no": "20485-39-6", "cn_name": "4-\u7532\u57fa-1,3-\u6076\u5511-5-\u7532\u9178\u4e59\u916f", "en_name": ["Ethyl 4-methyloxazole-5-carboxylate", "5-Oxazolecarboxylic acid, 4-methyl-, ethyl ester", "Ethyl 4-methyloxazolecarboxylate", "4-Methyl-5-carbethoxyoxazole", "4-Methyloxazole-5-carboxylic acid ethyl ester", "Ethyl 4-methyloxazole-5-carboxylate"], "SMILES": "C(OCC)(=O)C1=C(C)N=CO1", "physical_data": {"Molecular Weight": "155.15", "Molecular Formula": "C7H9NO3", "Boiling Point": "59-62 \u00b0C @ Press: 1.5 Torr", "Melting Point": "38 \u00b0C"}}