{"cas_no": "20487-40-5", "cn_name": "\u4e19\u9178\u53d4\u4e01\u916f", "en_name": ["tert-Butyl propionate", "Propanoic acid, 1,1-dimethylethyl ester", "Propionic acid, tert-butyl ester", "tert-Butyl propionate", "1,1-Dimethylethyl propionate", "tert-Butyl propanoate", "Propionic acid tert-butyl ester"], "SMILES": "O(C(C)(C)C)C(CC)=O", "physical_data": {"Molecular Weight": "130.18", "Molecular Formula": "C7H14O2", "Boiling Point": "118.25 \u00b0C", "Density": "0.8647 g/cm\u00b3 @ Temp: 20 \u00b0C"}}