{"cas_no": "2049-73-2", "cn_name": "\u4e8c\u4e59\u6c27\u57fa\u82ef", "en_name": ["1,3-Diethoxybenzene", "Benzene, 1,3-diethoxy-", "Benzene, m-diethoxy-", "1,3-Diethoxybenzene", "Resorcinol diethyl ether", "m-Diethoxybenzene", "NSC 4888", "2,4-Diethoxybenzene"], "SMILES": "O(CC)C1=CC(OCC)=CC=C1", "physical_data": {"Molecular Weight": "166.22", "Molecular Formula": "C10H14O2", "Boiling Point": "235 \u00b0C", "Melting Point": "12.4 \u00b0C"}}