{"cas_no": "2049-70-9", "cn_name": "2-\u4e59\u57fa-2-\u7532\u57fa\u4e19\u4e8c\u9178\u4e8c\u4e59\u916f", "en_name": ["1,3-Diethyl 2-ethyl-2-methylpropanedioate", "Propanedioic acid, 2-ethyl-2-methyl-, 1,3-diethyl ester", "Malonic acid, ethylmethyl-, diethyl ester", "Propanedioic acid, ethylmethyl-, diethyl ester", "1,3-Diethyl 2-ethyl-2-methylpropanedioate", "Diethyl ethylmethylmalonate", "Diethyl 2-ethyl-2-methylmalonate", "Diethyl methylethylmalonate", "2-Ethyl-2-methylmalonic acid diethyl ester"], "SMILES": "C(C(OCC)=O)(C(OCC)=O)(CC)C", "physical_data": {"Molecular Weight": "202.25", "Molecular Formula": "C10H18O4", "Boiling Point": "73-76 \u00b0C @ Press: 5 Torr"}}