{"cas_no": "2049-67-4", "cn_name": "\u620a\u70ef\u4e8c\u9178\u4e8c\u4e59\u916f,\u987a\u5f0f\u548c\u53cd\u5f0f\u6df7\u5408\u7269", "en_name": ["1,5-Diethyl 2-pentenedioate", "2-Pentenedioic acid, 1,5-diethyl ester", "Glutaconic acid, diethyl ester", "2-Pentenedioic acid, diethyl ester", "1,5-Diethyl 2-pentenedioate", "Diethyl glutaconate", "Diethyl 2-pentenedioate", "NSC 62678"], "SMILES": "C(CC=CC(OCC)=O)(OCC)=O", "physical_data": {"Molecular Weight": "186.21", "Molecular Formula": "C9H14O4", "Boiling Point": "237 \u00b0C"}}