{"cas_no": "2049-80-1", "cn_name": "\u70ef\u4e19\u57fa\u4e19\u4e8c\u9178\u4e8c\u4e59\u916f", "en_name": ["Diethyl allylmalonate", "Propanedioic acid, 2-(2-propen-1-yl)-, 1,3-diethyl ester", "Malonic acid, allyl-, diethyl ester", "Propanedioic acid, 2-propenyl-, diethyl ester", "Diethyl allylmalonate", "Ethyl allylmalonate", "Diethyl 2-allylmalonate", "Diethyl 2-prop-2-enylmalonate", "Diethyl 2-allyl-1,3-propanedioate", "Allylmalonic acid diethyl ester", "Diethyl 2-propenylmalonate", "2-Allylmalonic acid diethyl ester", "NSC 67393", "NSC 8777", "(2-Propenyl)propanedioic acid diethyl ester", "Diethyl 1-butene-4,4-dicarboxylate", "1,3-Diethyl 2-(prop-2-en-1-yl)propanedioate", "Diethyl 2-allylpropanedioate"], "SMILES": "C(C(OCC)=O)(C(OCC)=O)CC=C", "physical_data": {"Molecular Weight": "200.23", "Molecular Formula": "C10H16O4", "Boiling Point": "222.5 \u00b0C", "Density": "1.0092 g/cm\u00b3 @ Temp: 20 \u00b0C"}}