{"cas_no": "2049-95-8", "cn_name": "\u53d4\u620a\u57fa\u82ef", "en_name": ["tert-Amylbenzene", "Benzene, (1,1-dimethylpropyl)-", "Benzene, tert-pentyl-", "(1,1-Dimethylpropyl)benzene", "tert-Pentylbenzene", "tert-Amylbenzene", "2-Methyl-2-phenylbutane", "Hizol P", "NSC 4025", "(2-Methylbutan-2-yl)benzene", "2-Methylbutan-2-ylbenzene"], "SMILES": "C(CC)(C)(C)C1=CC=CC=C1", "physical_data": {"Molecular Weight": "148.24", "Molecular Formula": "C11H16", "Boiling Point": "192.4 \u00b0C", "Density": "0.8720 g/cm\u00b3"}}