{"cas_no": "20493-60-1", "cn_name": "5-\u6eb4-3-\u7532\u57fa\u5f02\u567b\u5511", "en_name": ["5-Bromo-3-methylisothiazole", "Isothiazole, 5-bromo-3-methyl-", "5-Bromo-3-methylisothiazole"], "SMILES": "CC=1C=C(Br)SN1", "physical_data": {"Molecular Weight": "178.05", "Molecular Formula": "C4H4BrNS", "Boiling Point": "72 \u00b0C @ Press: 13 Torr"}}