{"cas_no": "2049-96-9", "cn_name": "\u82ef\u7532\u9178\u6b63\u620a\u916f", "en_name": ["Pentyl benzoate", "Benzoic acid, pentyl ester", "Amyl benzoate", "Pentyl benzoate", "n-Pentyl benzoate", "n-Amyl benzoate"], "SMILES": "C(OCCCCC)(=O)C1=CC=CC=C1", "physical_data": {"Molecular Weight": "192.25", "Molecular Formula": "C12H16O2", "Boiling Point": "137-138 \u00b0C @ Press: 15 Torr", "Density": "0.9520 g/cm\u00b3 @ Temp: 22 \u00b0C"}}