{"cas_no": "2049-94-7", "cn_name": "\u5f02\u620a\u57fa\u82ef", "en_name": ["Isopentylbenzene", "Benzene, (3-methylbutyl)-", "Benzene, isopentyl-", "Benzene, isoamyl-", "(3-Methylbutyl)benzene", "Isopentylbenzene", "2-Methyl-4-phenylbutane", "3-Methyl-1-phenylbutane", "Isoamylbenzene", "1-Phenyl-3-methylbutane", "NSC 62142", "1-Isopentylbenzene"], "SMILES": "C(CC(C)C)C1=CC=CC=C1", "physical_data": {"Molecular Weight": "148.24", "Molecular Formula": "C11H16", "Boiling Point": "195 \u00b0C", "Density": "0.855 g/cm\u00b3 @ Temp: 20 \u00b0C"}}