{"cas_no": "20491-92-3", "cn_name": "2,4,6-\u4e09\u7532\u6c27\u57fa\u82ef\u915a", "en_name": ["2,4,6-Trimethoxyphenol", "Phenol, 2,4,6-trimethoxy-", "2,4,6-Trimethoxyphenol", "2,4,6-Trimethoxylphenol"], "SMILES": "O(C)C1=C(O)C(OC)=CC(OC)=C1", "physical_data": {"Molecular Weight": "184.19", "Molecular Formula": "C9H12O4", "Melting Point": "60-64 \u00b0C"}}