{"cas_no": "205-43-6", "cn_name": "\u82ef\u5e76\u8418(1,2-D)\u567b\u5511", "en_name": ["Benzo[b]naphtho[1,2-d]thiophene", "Benzo[b]naphtho[1,2-d]thiophene", "3,4-Benzo-9-thiafluorene", "7-Thia-7H-benzo[c]fluorene", "Naphtho[2,1-b]thianaphthene", "3,4-Benzodibenzothiophene"], "SMILES": "C=12C=3C(SC1C=CC=4C2=CC=CC4)=CC=CC3", "physical_data": {"Molecular Weight": "234.32", "Molecular Formula": "C16H10S", "Boiling Point": "280 \u00b0C @ Press: 15 Torr", "Melting Point": "102-102.5 \u00b0C"}}