{"cas_no": "205-99-2", "cn_name": "\u82ef\u5e76(B)\u8367\u84bd", "en_name": ["Benz[e]acephenanthrylene", "Benz[e]acephenanthrylene", "Benzo[e]fluoranthene", "3,4-Benzofluoranthene", "Benzo[b]fluoranthene", "3,4-Benz[e]acephenanthrylene", "3,4-Benzfluoranthene", "2,3-Benzfluoranthene", "NSC 89265", "BbF"], "SMILES": "C12=C3C=4C(C1=CC=CC2=C5C(=C3)C=CC=C5)=CC=CC4", "physical_data": {"Molecular Weight": "252.31", "Molecular Formula": "C20H12", "Boiling Point": "481 \u00b0C", "Melting Point": "168 \u00b0C"}}