{"cas_no": "205-82-3", "cn_name": "\u82ef\u5e76\u8367\u84bd", "en_name": ["Benzo[j]fluoranthene", "Benzo[j]fluoranthene", "10,11-Benzofluoranthene", "Dibenzo[a,jk]fluorene", "Benzo-12,13-fluoranthene", "7,8-Benzfluoranthene"], "SMILES": "C1=2C(C=3C=4C1=CC=CC4C=CC3)=CC=C5C2C=CC=C5", "physical_data": {"Molecular Weight": "252.31", "Molecular Formula": "C20H12", "Boiling Point": "480 \u00b0C", "Melting Point": "166 \u00b0C"}}