{"cas_no": "205-25-4", "cn_name": "7H-\u82ef\u5e76[C]\u5494\u5511", "en_name": ["7H-Benzo[c]carbazole", "7H-Benzo[c]carbazole", "3,4-Benzocarbazole", "7-Aza-7H-benzo[c]fluorene", "NSC 108995"], "SMILES": "C=12C=3C(NC1C=CC=4C2=CC=CC4)=CC=CC3", "physical_data": {"Molecular Weight": "217.27", "Molecular Formula": "C16H11N", "Boiling Point": "448 \u00b0C", "Melting Point": "134 \u00b0C"}}