{"cas_no": "205-12-9", "cn_name": "7H-\u82ef\u5e76\u82b4", "en_name": ["7H-Benzo[c]fluorene", "7H-Benzo[c]fluorene", "Benzo[c]fluorene", "3,4-Benzofluorene", "NSC 89264"], "SMILES": "C=12C=3C(CC1C=CC=4C2=CC=CC4)=CC=CC3", "physical_data": {"Molecular Weight": "216.28", "Molecular Formula": "C17H12", "Melting Point": "124-125 \u00b0C"}}