{"cas_no": "2050-09-1", "cn_name": "\u6b63\u620a\u9178\u5f02\u620a\u916f", "en_name": ["Isoamyl valerate", "Pentanoic acid, 3-methylbutyl ester", "Valeric acid, isopentyl ester", "Isopentyl alcohol, valerate", "3-Methylbutyl valerate", "Isoamyl valerate", "3-Methyl-1-butyl n-valerate", "3-Methylbutyl pentanoate", "Isopentyl pentanoate", "Isopentyl valerate", "Isoamyl n-valerate", "NSC 7006"], "SMILES": "C(OCCC(C)C)(CCCC)=O", "physical_data": {"Molecular Weight": "172.26", "Molecular Formula": "C10H20O2", "Boiling Point": "187-190 \u00b0C"}}