{"cas_no": "2050-22-8", "cn_name": "\u5421\u5576-2,3-\u4e8c\u7fa7\u9178\u4e8c\u4e59\u916f", "en_name": ["2,3-Diethyl 2,3-pyridinedicarboxylate", "2,3-Pyridinedicarboxylic acid, 2,3-diethyl ester", "2,3-Pyridinedicarboxylic acid, diethyl ester", "2,3-Diethyl 2,3-pyridinedicarboxylate", "Diethyl 2,3-pyridinedicarboxylate", "Diethyl quinolinate", "Quinolinic acid diethyl ester"], "SMILES": "C(OCC)(=O)C1=C(C(OCC)=O)N=CC=C1", "physical_data": {"Molecular Weight": "223.23", "Molecular Formula": "C11H13NO4", "Boiling Point": "282 \u00b0C"}}