{"cas_no": "2050-60-4", "cn_name": "\u8349\u9178\u4e8c\u4e01\u916f", "en_name": ["Dibutyl oxalate", "Ethanedioic acid, 1,2-dibutyl ester", "Oxalic acid, dibutyl ester", "Ethanedioic acid, dibutyl ester", "di-n-Butyl oxalate", "Dibutyl oxalate", "Butyl oxalate", "NSC 8468"], "SMILES": "C(C(OCCCC)=O)(OCCCC)=O", "physical_data": {"Molecular Weight": "202.25", "Molecular Formula": "C10H18O4", "Boiling Point": "241 \u00b0C", "Melting Point": "-30.5 \u00b0C", "Density": "0.98732 g/cm\u00b3 @ Temp: 20 \u00b0C"}}