{"cas_no": "2050-01-3", "cn_name": "\u5f02\u4e01\u9178\u5f02\u620a\u916f", "en_name": ["Isoamyl isobutyrate", "Propanoic acid, 2-methyl-, 3-methylbutyl ester", "Isobutyric acid, isopentyl ester", "Isopentyl alcohol, isobutyrate", "3-Methylbutyl isobutyrate", "Isoamyl isobutyrate", "Isopentyl isobutyrate", "3-Methyl-1-butyl isobutyrate", "3-Methylbutyl 2-methylpropanoate", "Isoamyl 2-methylpropanoate", "Isoamyl isobutanoate"], "SMILES": "O(C(C(C)C)=O)CCC(C)C", "physical_data": {"Molecular Weight": "158.24", "Molecular Formula": "C9H18O2", "Boiling Point": "168.5 \u00b0C"}}