{"cas_no": "20503-40-6", "cn_name": "6-\u6c28\u57fa\u82ef\u5e76\u567b\u5429-1\uff0c1-\u4e8c\u6c27\u70f7", "en_name": ["6-Amino-1,1-dioxobenzo[b]thiophene", "Benzo[b]thiophen-6-amine, 1,1-dioxide", "6-Aminobenzo[b]thiophene 1,1-dioxide", "6-Amino-1,1-dioxobenzo[b]thiophene", "(1,1-Dioxobenzothiophen-6-yl)amine", "1,1-Dioxo-1H-benzo[b]thiophen-6-ylamine", "6-Aminobenzothiophene-1,1-dioxide", "1,1-Dioxo-1-benzothiophen-6-amine"], "SMILES": "O=S1(=O)C=2C(C=C1)=CC=C(N)C2", "physical_data": {"Molecular Weight": "181.21", "Molecular Formula": "C8H7NO2S", "Melting Point": "165 \u00b0C (decomp)"}}