{"cas_no": "2050-87-5", "cn_name": "\u4e8c\u70ef\u4e19\u57fa\u4e09\u786b\u919a", "en_name": ["Diallyl trisulfide", "Trisulfide, di-2-propen-1-yl", "Allyl trisulfide", "Trisulfide, di-2-propenyl", "Di-2-propen-1-yl trisulfide", "Diallyl trisulfide", "Allitridin", "Allitridum", "Di(2-propenyl) trisulfide", "NSC 651936", "Allitride", "DATS"], "SMILES": "S(SCC=C)SCC=C", "physical_data": {"Molecular Weight": "178.34", "Molecular Formula": "C6H10S3", "Boiling Point": "60-95 \u00b0C @ Press: 12 Torr"}}