{"cas_no": "2050-14-8", "cn_name": "2,2'-\u4e8c\u7f9f\u57fa\u5076\u6c2e\u82ef", "en_name": ["2,2\u2032-Dihydroxyazobenzene", "Phenol, 2,2\u2032-(1,2-diazenediyl)bis-", "Phenol, 2,2\u2032-azodi-", "Phenol, 2,2\u2032-azobis-", "Phenol, o,o\u2032-azodi-", "Phenol, o,o\u2032-azobis-", "2,2\u2032-(1,2-Diazenediyl)bis[phenol]", "o-Azophenol", "o,o\u2032-Dihydroxyazobenzene", "2,2\u2032-Dihydroxyazobenzene", "2,2\u2032-Azodiphenol", "2,2\u2032-Azophenol", "Azobenzene-2,2\u2032-diol", "Azobis(2-hydroxyphenyl)", "2,2\u2032-Diazenediyldiphenol"], "SMILES": "N(=NC1=C(O)C=CC=C1)C2=C(O)C=CC=C2", "physical_data": {"Molecular Weight": "214.22", "Molecular Formula": "C12H10N2O2", "Melting Point": "173 \u00b0C"}}