{"cas_no": "2050-46-6", "cn_name": "\u90bb\u82ef\u4e8c\u4e59\u919a", "en_name": ["1,2-Diethoxybenzene", "Benzene, 1,2-diethoxy-", "Benzene, o-diethoxy-", "1,2-Diethoxybenzene", "o-Diethoxybenzene", "Catechol diethyl ether", "NSC 6189"], "SMILES": "O(CC)C1=C(OCC)C=CC=C1", "physical_data": {"Molecular Weight": "166.22", "Molecular Formula": "C10H14O2", "Boiling Point": "219 \u00b0C", "Melting Point": "44 \u00b0C", "Density": "1.0169 g/cm\u00b3 @ Temp: 20 \u00b0C"}}