{"cas_no": "2050-77-3", "cn_name": "1-\u7898\u7678\u70f7", "en_name": ["1-Iododecane", "Decane, 1-iodo-", "1-Iododecane", "Decyl iodide", "n-Decyl iodide", "1-Decyl iodide"], "SMILES": "C(CCCCC)CCCCI", "physical_data": {"Molecular Weight": "268.18", "Molecular Formula": "C10H21I", "Boiling Point": "132 \u00b0C", "Melting Point": "-16.3 \u00b0C", "Density": "1.2567 g/cm\u00b3 @ Temp: 20 \u00b0C"}}