{"cas_no": "2050-23-9", "cn_name": "\u8f9b\u4e8c\u9178\u4e8c\u4e59\u916f", "en_name": ["Diethyl suberate", "Octanedioic acid, 1,8-diethyl ester", "Suberic acid, diethyl ester", "Octanedioic acid, diethyl ester", "Diethyl suberate", "Diethyl octanedioate", "NSC 62701"], "SMILES": "C(CCCCCCC(OCC)=O)(OCC)=O", "physical_data": {"Molecular Weight": "230.30", "Molecular Formula": "C12H22O4", "Boiling Point": "282.6 \u00b0C", "Melting Point": "5.9 \u00b0C"}}