{"cas_no": "2050-48-8", "cn_name": "4,4'-\u4e8c\u6eb4\u4e8c\u82ef\u781c", "en_name": ["1,1\u2032-Sulfonylbis[4-bromobenzene]", "Benzene, 1,1\u2032-sulfonylbis[4-bromo-", "Sulfone, bis(p-bromophenyl)", "1,1\u2032-Sulfonylbis[4-bromobenzene]", "Bis(p-bromophenyl) sulfone", "4,4\u2032-Dibromodiphenyl sulfone", "Bis(4-bromophenyl) sulfone", "NSC 43047", "Di(4-bromophenyl) sulfone", "1-Bromo-4-(4-bromophenyl)sulfonylbenzene"], "SMILES": "S(=O)(=O)(C1=CC=C(Br)C=C1)C2=CC=C(Br)C=C2", "physical_data": {"Molecular Weight": "376.06", "Molecular Formula": "C12H8Br2O2S", "Melting Point": "171 \u00b0C"}}