{"cas_no": "2050-94-4", "cn_name": "\u78b3\u9178\u4e8c\u620a\u916f", "en_name": ["Dipentyl carbonate", "Carbonic acid, dipentyl ester", "Dipentyl carbonate", "Diamyl carbonate", "NSC 7948"], "SMILES": "O(C(OCCCCC)=O)CCCCC", "physical_data": {"Molecular Weight": "202.29", "Molecular Formula": "C11H22O3", "Boiling Point": "238-240 \u00b0C"}}