{"cas_no": "2050-44-4", "cn_name": "2,4-\u4e8c\u7532\u57fa\u4e59\u9170\u82ef\u80fa", "en_name": ["N-(2,5-Dimethylphenyl)acetamide", "Acetamide, N-(2,5-dimethylphenyl)-", "2\u2032,5\u2032-Acetoxylidide", "N-(2,5-Dimethylphenyl)acetamide", "2\u2032,5\u2032-Dimethylacetanilide", "2,5-Dimethylacetanilide", "NSC 43199", "NSC 7646"], "SMILES": "N(C(C)=O)C1=C(C)C=CC(C)=C1", "physical_data": {"Molecular Weight": "163.22", "Molecular Formula": "C10H13NO", "Melting Point": "141-142 \u00b0C"}}