{"cas_no": "2050-08-0", "cn_name": "\u6c34\u6768\u9178\u620a\u916f", "en_name": ["Amyl salicylate", "Benzoic acid, 2-hydroxy-, pentyl ester", "Salicylic acid, pentyl ester", "Salicylic acid, amyl ester", "Amyl salicylate", "Pentyl salicylate", "NSC 403668", "NSC 44877", "NSC 46125", "2-Hydroxybenzoic acid pentyl ester", "Pentyl 2-hydroxybenzoate"], "SMILES": "C(OCCCCC)(=O)C1=C(O)C=CC=C1", "physical_data": {"Molecular Weight": "208.25", "Molecular Formula": "C12H16O3", "Boiling Point": "270 \u00b0C", "Density": "1.0552 g/cm\u00b3 @ Temp: 27 \u00b0C"}}