{"cas_no": "2050-47-7", "cn_name": "4,4'-\u4e8c\u6eb4\u4e8c\u82ef\u919a", "en_name": ["BDE 15", "Benzene, 1,1\u2032-oxybis[4-bromo-", "Ether, bis(p-bromophenyl)", "1,1\u2032-Oxybis[4-bromobenzene]", "Bis(p-bromophenyl) ether", "4,4\u2032-Dibromodiphenyl ether", "p,p\u2032-Dibromodiphenyl ether", "Bis(4-bromophenyl) ether", "Bis(bromophenyl) ether", "BDE 15", "PBDE 15", "NSC 1787", "NSC 9487", "Di(4-bromophenyl) ether", "3,2\u2032-Dibromodiphenyl ether"], "SMILES": "O(C1=CC=C(Br)C=C1)C2=CC=C(Br)C=C2", "physical_data": {"Molecular Weight": "328.00", "Molecular Formula": "C12H8Br2O", "Boiling Point": "339 \u00b0C", "Melting Point": "60.5 \u00b0C"}}