{"cas_no": "2050-68-2", "cn_name": "4,4-\u4e8c\u6c2f\u8054\u82ef", "en_name": ["4,4\u2032-Dichlorobiphenyl", "1,1\u2032-Biphenyl, 4,4\u2032-dichloro-", "Biphenyl, 4,4\u2032-dichloro-", "4,4\u2032-Dichloro-1,1\u2032-biphenyl", "4,4\u2032-Dichlorobiphenyl", "p,p\u2032-Dichlorobiphenyl", "p,p-DCBP", "PCB 15", "NSC 1141", "1-Chloro-4-(4-chlorophenyl)benzene"], "SMILES": "ClC1=CC=C(C=C1)C2=CC=C(Cl)C=C2", "physical_data": {"Molecular Weight": "223.10", "Molecular Formula": "C12H8Cl2", "Boiling Point": "317 \u00b0C", "Melting Point": "149.3 \u00b0C"}}