{"cas_no": "2050-92-2", "cn_name": "\u4e8c\u620a\u80fa", "en_name": ["Dipentylamine", "1-Pentanamine, N-pentyl-", "Dipentylamine", "N-Pentyl-1-pentanamine", "Diamylamine", "Di-n-amylamine", "Di-n-pentylamine", "Dipentanamine", "NSC 6329", "N,N-Dipentylamine"], "SMILES": "N(CCCCC)CCCCC", "physical_data": {"Molecular Weight": "157.30", "Molecular Formula": "C10H23N", "Boiling Point": "202.5 \u00b0C", "Melting Point": "-7.85 \u00b0C", "Density": "0.7771 g/cm\u00b3 @ Temp: 20 \u00b0C"}}