{"cas_no": "2050-85-3", "cn_name": "N,N-\u4e8c\u4e59\u9170\u57fa\u90bb\u82ef\u4e8c\u80fa", "en_name": ["N,N\u2032-1,2-Phenylenebis[acetamide]", "Acetamide, N,N\u2032-1,2-phenylenebis-", "Acetamide, N,N\u2032-o-phenylenebis-", "N,N\u2032-1,2-Phenylenebis[acetamide]", "N,N\u2032-Diacetyl-o-phenylenediamine", "o-Diacetamidophenylene", "1,2-Di(acetylamino)benzene", "NSC 70132", "N-[2-(Acetylamino)phenyl]acetamide", "o-Phenylenediacetamide", "1,2-Bis(acetylamino)benzene"], "SMILES": "N(C(C)=O)C1=C(NC(C)=O)C=CC=C1", "physical_data": {"Molecular Weight": "192.21", "Molecular Formula": "C10H12N2O2", "Melting Point": "188.2-188.7 \u00b0C"}}