{"cas_no": "2050-76-2", "cn_name": "2,4-\u4e8c\u6c2f-1-\u8418\u9187", "en_name": ["2,4-Dichloro-1-naphthol", "1-Naphthalenol, 2,4-dichloro-", "1-Naphthol, 2,4-dichloro-", "2,4-Dichloro-1-naphthalenol", "2,4-Dichloro-1-naphthol", "2,4-Dichloronaphthol", "2,4-Dichloro-\u03b1-naphthol", "NSC 6322"], "SMILES": "OC=1C2=C(C(Cl)=CC1Cl)C=CC=C2", "physical_data": {"Molecular Weight": "213.06", "Molecular Formula": "C10H6Cl2O", "Boiling Point": "180 \u00b0C", "Melting Point": "107.5 \u00b0C"}}