{"cas_no": "2050-49-9", "cn_name": "2,4-\u4e8c\u6eb4-1-\u8418\u915a", "en_name": ["2,4-Dibromo-1-naphthalenol", "1-Naphthalenol, 2,4-dibromo-", "1-Naphthol, 2,4-dibromo-", "2,4-Dibromo-1-naphthalenol", "2,4-Dibromo-1-naphthol", "2,4-Dibromo-\u03b1-naphthol", "2,4-Dibromonaphthol", "NSC 6230"], "SMILES": "OC=1C2=C(C(Br)=CC1Br)C=CC=C2", "physical_data": {"Molecular Weight": "301.96", "Molecular Formula": "C10H6Br2O", "Melting Point": "105 \u00b0C"}}