{"cas_no": "2050-74-0", "cn_name": "1,8-\u4e8c\u6c2f\u8418", "en_name": ["1,8-Dichloronaphthalene", "Naphthalene, 1,8-dichloro-", "1,8-Dichloronaphthalene", "PCN 9"], "SMILES": "ClC=1C2=C(C=CC=C2Cl)C=CC1", "physical_data": {"Molecular Weight": "197.06", "Molecular Formula": "C10H6Cl2", "Melting Point": "89 \u00b0C"}}