{"cas_no": "2050-51-3", "cn_name": "3-\u4e8c\u4e01\u6c28\u57fa-1-\u4e19\u9187", "en_name": ["3-(Dibutylamino)-1-propanol", "1-Propanol, 3-(dibutylamino)-", "3-(Dibutylamino)-1-propanol", "3-(Dibutylamino)propyl alcohol", "3-Di-n-butylamino-1-propanol", "N,N-Dibutylpropanolamine", "NSC 6332"], "SMILES": "N(CCCC)(CCCC)CCCO", "physical_data": {"Molecular Weight": "187.32", "Molecular Formula": "C11H25NO", "Boiling Point": "247-248 \u00b0C @ Press: 749 Torr", "Density": "0.8663 g/cm\u00b3 @ Temp: 20 \u00b0C"}}