{"cas_no": "20501-56-8", "cn_name": "\u5854\u62c9\u4e4c\u5934\u80fa", "en_name": ["Talatisamine", "Aconitane-8,14-diol, 20-ethyl-1,16-dimethoxy-4-(methoxymethyl)-, (1\u03b1,14\u03b1,16\u03b2)-", "Talatisamine", "11aH-12,3,6a-Ethanylylidene-7,9-methanonaphth[2,3-b]azocine, aconitane-8,14-diol deriv.", "(1\u03b1,14\u03b1,16\u03b2)-20-Ethyl-1,16-dimethoxy-4-(methoxymethyl)aconitane-8,14-diol", "Talatizamine", "(-)-Talatisamine"], "SMILES": "O(C)C1C23C4C(COC)(CN(CC)C2C(C4)C5(O)C6C3CC(C6O)C(OC)C5)CC1", "physical_data": {"Molecular Weight": "421.57", "Molecular Formula": "C24H39NO5", "Melting Point": "138-140 \u00b0C"}}