{"cas_no": "2050-43-3", "cn_name": "2',4'-\u4e8c\u7532\u57fa\u4e59\u9170\u82ef\u80fa", "en_name": ["N-(2,4-Dimethylphenyl)acetamide", "Acetamide, N-(2,4-dimethylphenyl)-", "2\u2032,4\u2032-Acetoxylidide", "N-(2,4-Dimethylphenyl)acetamide", "2\u2032,4\u2032-Acetoxylidine", "2\u2032,4\u2032-Dimethylacetanilide", "2,4-Dimethylacetanilide", "MBR 22441", "NSC 37567", "N-Acetyl 2,4-dimethylaniline"], "SMILES": "N(C(C)=O)C1=C(C)C=C(C)C=C1", "physical_data": {"Molecular Weight": "163.22", "Molecular Formula": "C10H13NO", "Boiling Point": "170 \u00b0C", "Melting Point": "129.3 \u00b0C"}}