{"cas_no": "2050-20-6", "cn_name": "\u5e9a\u4e8c\u9178\u4e8c\u4e59\u916f", "en_name": ["Diethyl pimelate", "Heptanedioic acid, 1,7-diethyl ester", "Pimelic acid, diethyl ester", "Heptanedioic acid, diethyl ester", "Diethyl pimelate", "Diethyl heptanedioate", "NSC 17503"], "SMILES": "C(CCCCCC(OCC)=O)(OCC)=O", "physical_data": {"Molecular Weight": "216.27", "Molecular Formula": "C11H20O4", "Boiling Point": "254 \u00b0C", "Melting Point": "-24 \u00b0C", "Density": "0.991-0.996 g/cm\u00b3 @ Temp: 20 \u00b0C"}}