{"cas_no": "2050-66-0", "cn_name": "2,2-\u4e8c\u785d\u57fa-4,4-\u4e8c\u6c2f\u4e8c\u82ef\u4e8c\u786b", "en_name": ["Bis(4-chloro-2-nitrophenyl) disulfide", "Disulfide, bis(4-chloro-2-nitrophenyl)", "Bis(4-chloro-2-nitrophenyl) disulfide", "Bis(2-nitro-4-chlorophenyl) disulfide", "NSC 6334"], "SMILES": "N(=O)(=O)C1=C(SSC2=C(N(=O)=O)C=C(Cl)C=C2)C=CC(Cl)=C1", "physical_data": {"Molecular Weight": "377.22", "Molecular Formula": "C12H6Cl2N2O4S2", "Melting Point": "212 \u00b0C"}}