{"cas_no": "2050-67-1", "cn_name": "3,3'-\u4e8c\u6c2f\u8054\u82ef", "en_name": ["3,3\u2032-Dichlorobiphenyl", "1,1\u2032-Biphenyl, 3,3\u2032-dichloro-", "Biphenyl, 3,3\u2032-dichloro-", "3,3\u2032-Dichloro-1,1\u2032-biphenyl", "3,3\u2032-Dichlorobiphenyl", "3,3\u2032-Dichlorodiphenyl", "m,m\u2032-Dichlorobiphenyl", "3,3\u2032-DCB", "PCB 11"], "SMILES": "ClC=1C=C(C=CC1)C2=CC(Cl)=CC=C2", "physical_data": {"Molecular Weight": "223.10", "Molecular Formula": "C12H8Cl2", "Boiling Point": "320 \u00b0C", "Melting Point": "29 \u00b0C"}}