{"cas_no": "2051-49-2", "cn_name": "\u5df1\u9178\u9150", "en_name": ["Hexanoic anhydride", "Hexanoic acid, 1,1\u2032-anhydride", "Hexanoic anhydride", "Hexanoic acid, anhydride", "Caproic acid anhydride", "Caproic anhydride", "Capronic acid anhydride", "Hexanoyl anhydride", "Capronic anhydride", "n-Hexanoic acid anhydride", "n-Hexanoic anhydride"], "SMILES": "O(C(CCCCC)=O)C(CCCCC)=O", "physical_data": {"Molecular Weight": "214.30", "Molecular Formula": "C12H22O3", "Boiling Point": "130-131 \u00b0C @ Press: 15 Torr", "Melting Point": "-41 \u00b0C", "Density": "0.92397 g/cm\u00b3 @ Temp: 15 \u00b0C"}}