{"cas_no": "20511-12-0", "cn_name": "2-\u6c28\u57fa-5-\u7898\u5421\u5576", "en_name": ["2-Amino-5-iodopyridine", "2-Pyridinamine, 5-iodo-", "Pyridine, 2-amino-5-iodo-", "5-Iodo-2-pyridinamine", "5-Iodo-2-aminopyridine", "2-Amino-5-iodopyridine", "6-Amino-3-iodopyridine", "NSC 31592", "(5-Iodopyridin-2-yl)amine"], "SMILES": "IC=1C=CC(N)=NC1", "physical_data": {"Molecular Weight": "220.01", "Molecular Formula": "C5H5IN2", "Melting Point": "129 \u00b0C"}}