{"cas_no": "2051-96-9", "cn_name": "\u4e73\u9178\u82c4\u916f", "en_name": ["Benzyl lactate", "Propanoic acid, 2-hydroxy-, phenylmethyl ester", "Lactic acid, benzyl ester", "Benzyl lactate", "Benzyl 2-hydroxypropionate", "Phenylmethyl 2-hydroxypropanoate", "NSC 72745", "Benzyl (\u00b1)-lactate", "Benzyl 2-hydroxypropanoate"], "SMILES": "C(OC(C(C)O)=O)C1=CC=CC=C1", "physical_data": {"Molecular Weight": "180.20", "Molecular Formula": "C10H12O3", "Boiling Point": "128-130 \u00b0C @ Press: 5-6 Torr", "Melting Point": "41-42 \u00b0C"}}