{"cas_no": "2051-97-0", "cn_name": "1-\u82c4\u57fa\u5421\u54af", "en_name": ["N-Benzylpyrrole", "1H-Pyrrole, 1-(phenylmethyl)-", "Pyrrole, 1-benzyl-", "1-(Phenylmethyl)-1H-pyrrole", "1-Benzylpyrrole", "N-Benzylpyrrole", "NSC 116806", "NSC 4024", "1-Benzyl-1H-pyrrole"], "SMILES": "C(C1=CC=CC=C1)N2C=CC=C2", "physical_data": {"Molecular Weight": "157.21", "Molecular Formula": "C11H11N", "Boiling Point": "247 \u00b0C", "Melting Point": "15 \u00b0C", "Density": "1.0183 g/cm\u00b3 @ Temp: 20 \u00b0C"}}