{"cas_no": "2051-33-4", "cn_name": "\u56db\u6c22\u718f\u8863\u8349\u9187", "en_name": ["(\u00b1)-Tetrahydrolavandulol", "1-Hexanol, 5-methyl-2-(1-methylethyl)-", "1-Hexanol, 2-isopropyl-5-methyl-", "5-Methyl-2-(1-methylethyl)-1-hexanol", "2-Isopropyl-5-methyl-1-hexanol", "NSC 65622", "(\u00b1)-Tetrahydrolavandulol", "2-Isopropyl-5-methylhexan-1-ol", "5-Methyl-2-isopropylhexyl alcohol"], "SMILES": "C(CCC(C)C)(C(C)C)CO", "physical_data": {"Molecular Weight": "158.28", "Molecular Formula": "C10H22O", "Boiling Point": "211 \u00b0C", "Density": "0.8366 g/cm\u00b3 @ Temp: 17 \u00b0C"}}