{"cas_no": "2051-76-5", "cn_name": "\u4e19\u70ef\u9178\u9150", "en_name": ["Acrylic anhydride", "2-Propenoic acid, 1,1\u2032-anhydride", "Acrylic anhydride", "2-Propenoic acid, anhydride", "Acrylic acid anhydride", "NSC 32616", "Diacrylic acid anhydride", "Prop-2-enoyl prop-2-enoate", "2-Propenoic anhydride", "Acryloyl anhydride"], "SMILES": "O(C(C=C)=O)C(C=C)=O", "physical_data": {"Molecular Weight": "126.11", "Molecular Formula": "C6H6O3", "Boiling Point": "60-66 \u00b0C @ Press: 10-12 Torr", "Melting Point": "-20 \u00b0C"}}