{"cas_no": "2051-98-1", "cn_name": "5-\u6eb4\u82ca", "en_name": ["5-Bromoacenaphthene", "Acenaphthylene, 5-bromo-1,2-dihydro-", "Acenaphthene, 5-bromo-", "5-Bromo-1,2-dihydroacenaphthylene", "5-Bromoacenaphthene", "NSC 59823"], "SMILES": "BrC1=C2C3=C(CCC3=CC=C2)C=C1", "physical_data": {"Molecular Weight": "233.10", "Molecular Formula": "C12H9Br", "Boiling Point": "335 \u00b0C", "Melting Point": "52 \u00b0C"}}