{"cas_no": "2051-61-8", "cn_name": "3-\u6c2f\u4e8c\u82ef\u915a", "en_name": ["3-Chlorobiphenyl", "1,1\u2032-Biphenyl, 3-chloro-", "Biphenyl, 3-chloro-", "3-Chloro-1,1\u2032-biphenyl", "m-Chlorobiphenyl", "3-Chlorobiphenyl", "3-Chlorodiphenyl", "3-Monochlorobiphenyl", "PCB 2", "1-Chloro-3-phenylbenzene"], "SMILES": "ClC=1C=C(C=CC1)C2=CC=CC=C2", "physical_data": {"Molecular Weight": "188.65", "Molecular Formula": "C12H9Cl", "Boiling Point": "284.5 \u00b0C", "Melting Point": "16 \u00b0C"}}