{"cas_no": "2051-85-6", "cn_name": "\u82cf\u4e39\u6a59G", "en_name": ["2,4-Dihydroxyazobenzene", "1,3-Benzenediol, 4-(2-phenyldiazenyl)-", "Sudan G", "C.I. Solvent Orange 1", "1,3-Benzenediol, 4-(phenylazo)-", "4-(2-Phenyldiazenyl)-1,3-benzenediol", "C.I. 11920", "Benzeneazoresorcinol", "Ceres Orange G", "Ceres orange GN", "Cerisol Yellow GR", "C.I. Food Orange 3", "2,4-Dibenzeneazoresorcinol", "Fast Oil Orange T", "Fast Oil Yellow G", "Fat Orange A", "Fat Orange G", "Fat Orange GS", "Fat Orange RG", "Fat Victoria Yellow D", "Fast Oil Yellow 2G", "Grasol Yellow RSF", "Hexacol Oil Yellow GG", "Lacquer Orange V 3G", "Oil Orange G", "Oil Orange 4G", "Oil Orange MO", "Oil Orange MON", "Oil Orange MON Extra", "Oil Yellow G Extra", "Oil Yellow GG", "Organol Orange 2J", "Plastoresin Orange F 3A", "Resinol Orange G", "Solvent Orange 1", "Sudan Orange G", "Sudan Yellow AR", "Tertrogras Orange SG", "1504 Yellow", "Yellow M Soluble in Grease", "Oil-sol. Yellow Zh", "2,4-Dihydroxyazobenzene", "4-(Phenylazo)resorcinol", "Ceres Orange", "Orange Au Gras W 2201", "NSC 7949"], "SMILES": "N(=NC1=CC=CC=C1)C2=C(O)C=C(O)C=C2", "physical_data": {"Molecular Weight": "214.22", "Molecular Formula": "C12H10N2O2", "Melting Point": "170 \u00b0C"}}