{"cas_no": "2051-90-3", "cn_name": "\u4e8c\u6c2f\u4e8c\u82ef\u7532\u70f7", "en_name": ["Dichlorodiphenylmethane", "Benzene, 1,1\u2032-(dichloromethylene)bis-", "Methane, dichlorodiphenyl-", "1,1\u2032-(Dichloromethylene)bis[benzene]", "Dichlorodiphenylmethane", "Diphenyldichloromethane", "Benzophenone dichloride", "DPM (halocarbon)", "DPM", "\u03b1,\u03b1-Dichlorodiphenylmethane", "NSC 37425", "[Dichloro(phenyl)methyl]benzene"], "SMILES": "C(Cl)(Cl)(C1=CC=CC=C1)C2=CC=CC=C2", "physical_data": {"Molecular Weight": "237.12", "Molecular Formula": "C13H10Cl2", "Boiling Point": "193 \u00b0C @ Press: 32 Torr", "Melting Point": "190 \u00b0C (decomp)", "Density": "1.243 g/cm\u00b3 @ Temp: 20 \u00b0C"}}