{"cas_no": "2051-05-0", "cn_name": "\u4e9e\u786b\u9178\u4e8c\u620a\u916f", "en_name": ["Sulfurous acid, dipentyl ester", "Sulfurous acid, dipentyl ester", "Pentyl sulfite, (C5H11O)2SO", "Dipentyl sulfite"], "SMILES": "O(S(OCCCCC)=O)CCCCC", "physical_data": {"Molecular Weight": "222.34", "Molecular Formula": "C10H22O3S", "Boiling Point": "137 \u00b0C @ Press: 20 Torr", "Density": "0.9821 g/cm\u00b3 @ Temp: 16 \u00b0C"}}