{"cas_no": "2051-95-8", "cn_name": "3-\u82ef\u4e19\u70ef\u6eb4\u9178\u916f", "en_name": ["3-Benzoylpropionic acid", "Benzenebutanoic acid, \u03b3-oxo-", "Propionic acid, 3-benzoyl-", "\u03b3-Oxobenzenebutanoic acid", "\u03b2-Benzoylpropionic acid", "Propanoic acid, 3-benzoyl-", "3-Benzoylpropanoic acid", "4-Oxo-4-phenylbutyric acid", "4-Oxo-4-phenylbutanoic acid", "3-Benzoylpropionic acid", "4-Phenyl-4-oxobutanoic acid", "NSC 2092", "NSC 229040", "NSC 51010"], "SMILES": "C(CCC(O)=O)(=O)C1=CC=CC=C1", "physical_data": {"Molecular Weight": "178.18", "Molecular Formula": "C10H10O3", "Melting Point": "117-119 \u00b0C"}}