{"cas_no": "2051-62-9", "cn_name": "4-\u6c2f\u8054\u82ef", "en_name": ["4-Chlorobiphenyl", "1,1\u2032-Biphenyl, 4-chloro-", "Biphenyl, 4-chloro-", "4-Chloro-1,1\u2032-biphenyl", "4-Chlorobiphenyl", "p-Chlorobiphenyl", "4-Chlorodiphenyl", "1-Chloro-4-phenylbenzene", "PCB 3", "1,1\u2032-Biphenyl-4-yl chloride", "NSC 37066", "4-Biphenylyl chloride"], "SMILES": "ClC1=CC=C(C=C1)C2=CC=CC=C2", "physical_data": {"Molecular Weight": "188.65", "Molecular Formula": "C12H9Cl", "Boiling Point": "292.9 \u00b0C", "Melting Point": "78.8 \u00b0C"}}