{"cas_no": "2051-31-2", "cn_name": "4-\u6b63\u7678\u9187", "en_name": ["4-Decanol", "4-Decanol", "1-Propylheptyl alcohol", "dl-Decan-4-ol", "(\u00b1)-4-Decanol", "NSC 2637"], "SMILES": "C(CCCCCC)(CCC)O", "physical_data": {"Molecular Weight": "158.28", "Molecular Formula": "C10H22O", "Boiling Point": "210.5 \u00b0C", "Melting Point": "-11 \u00b0C", "Density": "0.8244 g/cm\u00b3 @ Temp: 21 \u00b0C"}}