{"cas_no": "2051-60-7", "cn_name": "2-\u6c2f\u8054\u82ef\u919a", "en_name": ["2-Chlorobiphenyl", "1,1\u2032-Biphenyl, 2-chloro-", "Biphenyl, 2-chloro-", "2-Chloro-1,1\u2032-biphenyl", "2-Chlorobiphenyl", "2-Monochlorobiphenyl", "o-Chlorobiphenyl", "2-Chlorodiphenyl", "1-Chloro-2-phenylbenzene", "PCB 1", "NSC 67354"], "SMILES": "ClC1=C(C2=CC=CC=C2)C=CC=C1", "physical_data": {"Molecular Weight": "188.65", "Molecular Formula": "C12H9Cl", "Boiling Point": "274 \u00b0C", "Melting Point": "34 \u00b0C", "Density": "1.1499 g/cm\u00b3 @ Temp: 32.5 \u00b0C"}}