{"cas_no": "2051-07-2", "cn_name": "\u53cc(4-\u7532\u6c27\u4e9a\u82c4\u57fa)\u4e19\u916e", "en_name": ["1,5-Bis(4-methoxyphenyl)-1,4-pentadien-3-one", "1,4-Pentadien-3-one, 1,5-bis(4-methoxyphenyl)-", "1,4-Pentadien-3-one, 1,5-bis(p-methoxyphenyl)-", "3-Pentadienone, 1,5-bis(p-methoxyphenyl)-", "1,5-Bis(4-methoxyphenyl)-1,4-pentadien-3-one", "Bis(4-methoxybenzylidene)acetone", "1,5-Bis(p-methoxyphenyl)-1,4-pentadien-3-one", "NSC 401196", "NSC 677239"], "SMILES": "C(=CC(C=CC1=CC=C(OC)C=C1)=O)C2=CC=C(OC)C=C2", "physical_data": {"Molecular Weight": "294.34", "Molecular Formula": "C19H18O3", "Melting Point": "130-132 \u00b0C"}}