{"cas_no": "20511-20-0", "cn_name": "\u5bf9\u7532\u57fa\u8089\u6842\u9178\u4e59\u916f", "en_name": ["Ethyl 3-(4-methylphenyl)-2-propenoate", "2-Propenoic acid, 3-(4-methylphenyl)-, ethyl ester", "Cinnamic acid, p-methyl-, ethyl ester", "Ethyl 3-(4-methylphenyl)-2-propenoate", "Ethyl p-methylcinnamate", "4-Methylcinnamic acid ethyl ester", "Ethyl 4-methylcinnamate", "NSC 338436", "Ethyl 3-(p-tolyl)acrylate", "Ethyl 3-(4-methylphenyl)propenoate"], "SMILES": "C(=CC(OCC)=O)C1=CC=C(C)C=C1", "physical_data": {"Molecular Weight": "190.24", "Molecular Formula": "C12H14O2", "Boiling Point": "142 \u00b0C @ Press: 1 Torr"}}