{"cas_no": "2051-78-7", "cn_name": "\u4e01\u9178\u70ef\u4e19\u916f", "en_name": ["Allyl butyrate", "Butanoic acid, 2-propen-1-yl ester", "Butyric acid, allyl ester", "Butanoic acid, 2-propenyl ester", "Allyl butyrate", "2-Propenyl butanoate", "NSC 18600", "Allyl butanoate"], "SMILES": "C(OCC=C)(CCC)=O", "physical_data": {"Molecular Weight": "128.17", "Molecular Formula": "C7H12O2", "Boiling Point": "142 \u00b0C", "Melting Point": "-80 \u00b0C", "Density": "0.894 g/cm\u00b3 @ Temp: 25 \u00b0C"}}