{"cas_no": "2051-24-3", "cn_name": "\u5341\u6c2f\u8054\u82ef", "en_name": ["2,2\u2032,3,3\u2032,4,4\u2032, 5,5\u2032,6,6\u2032-Decachlorobiphenyl", "1,1\u2032-Biphenyl, 2,2\u2032,3,3\u2032,4,4\u2032,5,5\u2032,6,6\u2032-decachloro-", "Biphenyl, decachloro-", "2,2\u2032,3,3\u2032,4,4\u2032,5,5\u2032,6,6\u2032-Decachloro-1,1\u2032-biphenyl", "Perchlorobiphenyl", "Decachlorobiphenyl", "2,2\u2032,3,3\u2032,4,4\u2032, 5,5\u2032,6,6\u2032-Decachlorobiphenyl", "PCB 209", "DCB", "CB 209", "DTXSID4047541"], "SMILES": "ClC1=C(C(Cl)=C(Cl)C(Cl)=C1Cl)C2=C(Cl)C(Cl)=C(Cl)C(Cl)=C2Cl", "physical_data": {"Molecular Weight": "498.66", "Molecular Formula": "C12Cl10", "Melting Point": "305.8 \u00b0C"}}