{"cas_no": "2051-04-9", "cn_name": "\u4e8c\u5f02\u620a\u57fa\u4e8c\u786b\u919a", "en_name": ["Bis(3-methylbutyl) disulfide", "Disulfide, bis(3-methylbutyl)", "Isopentyl disulfide", "Bis(3-methylbutyl) disulfide", "Diisoamyl disulfide", "Isoamyl disulfide", "2,9-Dimethyl-5,6-dithiadecane", "Diisopentyl disulfide", "NSC 677439", "NSC 2362", "3-Methyl-1-(3-methylbutyldisulfanyl)butane"], "SMILES": "C(CC(C)C)SSCCC(C)C", "physical_data": {"Molecular Weight": "206.41", "Molecular Formula": "C10H22S2", "Boiling Point": "247 \u00b0C", "Density": "0.9192 g/cm\u00b3 @ Temp: 20 \u00b0C"}}