{"cas_no": "2051-30-1", "cn_name": "2,6-\u4e8c\u7532\u57fa\u8f9b\u70f7", "en_name": ["2,6-Dimethyloctane", "Octane, 2,6-dimethyl-", "2,6-Dimethyloctane", "Myrcane", "NSC 91459"], "SMILES": "C(CCCC(C)C)(CC)C", "physical_data": {"Molecular Weight": "142.28", "Molecular Formula": "C10H22", "Boiling Point": "160.4 \u00b0C", "Density": "0.741 g/cm\u00b3 @ Temp: 0 \u00b0C"}}