{"cas_no": "2051-28-7", "cn_name": "\u5341\u6c22\u55b9\u5549", "en_name": ["Decahydroquinoline", "Quinoline, decahydro-", "Decahydroquinoline", "2-Azabicyclo[4.4.0]decane", "Perhydroquinoline", "1,2,3,4,4a,5,6,7,8,8a-Decahydroquinoline"], "SMILES": "C12C(CCCC1)NCCC2", "physical_data": {"Molecular Weight": "139.24", "Molecular Formula": "C9H17N", "Boiling Point": "207-210 \u00b0C", "Melting Point": "45.5 \u00b0C", "Density": "0.9147 g/cm\u00b3 @ Temp: 14 \u00b0C"}}