{"cas_no": "2051-99-2", "cn_name": "1-\u6eb4-4-\u5f02\u4e01\u57fa\u82ef", "en_name": ["1-Bromo-4-(2-methylpropyl)benzene", "Benzene, 1-bromo-4-(2-methylpropyl)-", "Benzene, 1-bromo-4-isobutyl-", "1-Bromo-4-(2-methylpropyl)benzene", "1-Bromo-4-isobutylbenzene", "4-Isobutylbromobenzene", "p-Isobutylbromobenzene", "4-Bromoisobutylbenzene", "4-Isobutylphenyl bromide"], "SMILES": "C(C(C)C)C1=CC=C(Br)C=C1", "physical_data": {"Molecular Weight": "213.11", "Molecular Formula": "C10H13Br", "Boiling Point": "97-98 \u00b0C @ Press: 5 Torr", "Melting Point": "-49.68 \u00b0C", "Density": "1.2609 g/cm\u00b3 @ Temp: 20 \u00b0C"}}