{"cas_no": "2051-18-5", "cn_name": "4-\u5f02\u4e19\u57fa\u82c4\u6c2f", "en_name": ["4-Isopropylbenzyl chloride", "Benzene, 1-(chloromethyl)-4-(1-methylethyl)-", "p-Cymene, 7-chloro-", "1-(Chloromethyl)-4-(1-methylethyl)benzene", "4-Isopropylbenzyl chloride", "p-Isopropylbenzyl chloride", "p-(Chloromethyl)cumene", "1-(Chloromethyl)-4-isopropylbenzene", "NSC 33915", "1-(Chloromethyl)-4-propan-2-ylbenzene", "1-(Chloromethyl)-4-(propan-2-yl)benzene"], "SMILES": "C(C)(C)C1=CC=C(CCl)C=C1", "physical_data": {"Molecular Weight": "168.66", "Molecular Formula": "C10H13Cl", "Boiling Point": "120-124 \u00b0C @ Press: 26 Torr", "Density": "1.024 g/cm\u00b3 @ Temp: 20 \u00b0C"}}