{"cas_no": "20511-15-3", "cn_name": "3-\u6c28\u57fa-4-\u6c2f\u5421\u5576", "en_name": ["4-Chloro-3-pyridinamine", "3-Pyridinamine, 4-chloro-", "Pyridine, 3-amino-4-chloro-", "4-Chloro-3-pyridinamine", "3-Amino-4-chloropyridine", "4-Chloro-3-aminopyridine", "4-Chloropyrid-3-ylamine", "(4-Chloropyridin-3-yl)amine"], "SMILES": "ClC=1C(N)=CN=CC1", "physical_data": {"Molecular Weight": "128.56", "Molecular Formula": "C5H5ClN2", "Melting Point": "82 \u00b0C"}}