{"cas_no": "2052-14-4", "cn_name": "\u6c34\u6768\u9178\u4e01\u916f", "en_name": ["Butyl salicylate", "Benzoic acid, 2-hydroxy-, butyl ester", "Salicylic acid, butyl ester", "Butyl salicylate", "Butyl 2-hydroxybenzoate", "Butyl o-hydroxybenzoate", "n-Butyl salicylate", "NSC 1511", "NSC 403676"], "SMILES": "C(OCCCC)(=O)C1=C(O)C=CC=C1", "physical_data": {"Molecular Weight": "194.23", "Molecular Formula": "C11H14O3", "Boiling Point": "271 \u00b0C", "Melting Point": "-5.9 \u00b0C", "Density": "1.0253 g/cm\u00b3 @ Temp: 20 \u00b0C"}}