{"cas_no": "2052-15-5", "cn_name": "\u4e59\u9170\u4e19\u9178\u4e01\u916f", "en_name": ["Butyl levulinate", "Pentanoic acid, 4-oxo-, butyl ester", "Levulinic acid, butyl ester", "Butyl levulinate", "n-Butyl levulinate", "4-Ketopentanoic acid butyl ester", "Butyl 4-oxopentanoate", "NSC 78451"], "SMILES": "C(CCC(C)=O)(OCCCC)=O", "physical_data": {"Molecular Weight": "172.22", "Molecular Formula": "C9H16O3", "Boiling Point": "237.5 \u00b0C", "Density": "0.97452 g/cm\u00b3 @ Temp: 20 \u00b0C"}}