{"cas_no": "2052-07-5", "cn_name": "2-\u6eb4\u8054\u82ef", "en_name": ["2-Bromobiphenyl", "1,1\u2032-Biphenyl, 2-bromo-", "Biphenyl, 2-bromo-", "2-Bromo-1,1\u2032-biphenyl", "2-Bromobiphenyl", "o-Bromobiphenyl", "PBB 1", "2-Phenylbromobenzene", "1-Bromo-2-phenylbenzene", "2-Biphenylyl bromide", "NSC 67353", "m-Biphenyl bromide", "2-Biphenyl bromide", "o-Biphenyl bromide"], "SMILES": "BrC1=C(C2=CC=CC=C2)C=CC=C1", "physical_data": {"Molecular Weight": "233.10", "Molecular Formula": "C12H9Br", "Boiling Point": "297 \u00b0C", "Melting Point": "1.5 \u00b0C", "Density": "1.2175 g/cm\u00b3 @ Temp: 26 \u00b0C"}}