{"cas_no": "2052-06-4", "cn_name": "4-\u6eb4-N,N-\u4e8c\u4e59\u57fa\u82ef\u80fa", "en_name": ["4-Bromo-N,N-diethylbenzenamine", "Benzenamine, 4-bromo-N,N-diethyl-", "Aniline, p-bromo-N,N-diethyl-", "4-Bromo-N,N-diethylbenzenamine", "4-Bromo-N,N-diethylaniline", "p-Bromo-N,N-diethylaniline", "N,N-Diethyl-4-bromoaniline", "4-(Diethylamino)bromobenzene", "NSC 8071", "N-(4-Bromophenyl)diethylamine", "N,N-Diethyl-p-bromoaniline"], "SMILES": "N(CC)(CC)C1=CC=C(Br)C=C1", "physical_data": {"Molecular Weight": "228.13", "Molecular Formula": "C10H14BrN", "Boiling Point": "270 \u00b0C", "Melting Point": "38 \u00b0C"}}