{"cas_no": "20526-97-0", "cn_name": "3-(4-\u6c2f\u82ef\u4e9a\u7532\u57fa)\u5f02\u82ef\u5e76\u544b\u5583-1(3H)-\u916e", "en_name": ["3-(p-Chlorobenzylidene)phthalide", "1(3H)-Isobenzofuranone, 3-[(4-chlorophenyl)methylene]-", "Phthalide, 3-(p-chlorobenzylidene)-", "3-[(4-Chlorophenyl)methylene]-1(3H)-isobenzofuranone", "3-(4-Chlorobenzal)phthalide", "3-(p-Chlorobenzylidene)phthalide", "3-(4-Chlorobenzylidene)-2-benzofuran-1(3H)-one", "3-[(4-Chlorophenyl)methylidene]-2-benzofuran-1-one"], "SMILES": "C(=C1C=2C(C(=O)O1)=CC=CC2)C3=CC=C(Cl)C=C3", "physical_data": {"Molecular Weight": "256.68", "Molecular Formula": "C15H9ClO2", "Melting Point": "152-153 \u00b0C"}}