{"cas_no": "2052-46-2", "cn_name": "N,N-\u4e8c\u7532\u57fa\u5bf9\u82ef\u4e8c\u80fa\u5355\u76d0\u9178\u76d0", "en_name": ["1,4-Benzenediamine, N1,N1-dimethyl-, hydrochloride (1:1)", "1,4-Benzenediamine, N1,N1-dimethyl-, hydrochloride (1:1)", "p-Phenylenediamine, N,N-dimethyl-, monohydrochloride", "1,4-Benzenediamine, N,N-dimethyl-, monohydrochloride", "p-Amino-N,N-dimethylaniline monohydrochloride", "N,N-Dimethyl-p-phenylenediamine monohydrochloride", "N,N-Dimethyl-1,4-benzenediamine hydrochloride", "N,N-Dimethyl-1,4-phenylenediamine monohydrochloride"], "SMILES": "N(C)(C)C1=CC=C(N)C=C1.Cl", "physical_data": {"Molecular Weight": "", "Molecular Formula": "C8H12N2.ClH", "Melting Point": "219 \u00b0C (decomp)"}}