{"cas_no": "2052-01-9", "cn_name": "2-\u6eb4\u4ee3\u5f02\u4e01\u9178", "en_name": ["Bromoisobutyric acid", "Propanoic acid, 2-bromo-2-methyl-", "Propionic acid, 2-bromo-2-methyl-", "Isobutyric acid, \u03b1-bromo-", "2-Bromo-2-methylpropanoic acid", "\u03b1-Bromoisobutyric acid", "Isobromobutyric acid", "\u03b1-Bromo-\u03b1-methylpropionic acid", "2-Bromoisobutyric acid", "2-Bromo-2-methylpropionic acid", "Bromoisobutyric acid", "NSC 41213", "2-Methyl-2-bromopropanoic acid"], "SMILES": "C(C(O)=O)(Br)(C)C", "physical_data": {"Molecular Weight": "167.00", "Molecular Formula": "C4H7BrO2", "Boiling Point": "199 \u00b0C", "Melting Point": "48.5 \u00b0C"}}