{"cas_no": "2052-49-5", "cn_name": "\u56db\u4e01\u57fa\u6c22\u6c27\u5316\u94f5", "en_name": ["Tetrabutylammonium hydroxide", "1-Butanaminium, N,N,N-tributyl-, hydroxide (1:1)", "Ammonium, tetrabutyl-, hydroxide", "Tetrabutylammonium hydroxide", "1-Butanaminium, N,N,N-tributyl-, hydroxide", "Tetra-n-butylammonium hydroxide", "TBAH 40"], "SMILES": "[N+](CCCC)(CCCC)(CCCC)CCCC.[OH-]", "physical_data": {"Molecular Weight": "", "Molecular Formula": "C16H36N.HO", "Melting Point": "26-28 \u00b0C"}}