{"cas_no": "20532-33-6", "cn_name": "5-\u6c2f\u82ef\u5e76\u567b\u5429", "en_name": ["5-Chlorobenzo[b]thiophene", "Benzo[b]thiophene, 5-chloro-", "5-Chlorobenzo[b]thiophene", "5-Chlorobenzothiophene"], "SMILES": "ClC=1C=C2C(=CC1)SC=C2", "physical_data": {"Molecular Weight": "168.64", "Molecular Formula": "C8H5ClS", "Boiling Point": "85 \u00b0C @ Press: 4 Torr"}}