{"cas_no": "20535-83-5", "cn_name": "2-\u6c28\u57fa-6-\u7532\u6c27\u57fa\u560c\u5464", "en_name": ["O6-Methylguanine", "9H-Purin-2-amine, 6-methoxy-", "Purine, 2-amino-6-methoxy-", "1H-Purin-2-amine, 6-methoxy-", "6-Methoxy-9H-purin-2-amine", "6-Methoxyguanine", "O6-Methylguanine", "2-Amino-6-methoxypurine", "NSC 37364", "6-O-Methylguanine"], "SMILES": "O(C)C1=C2C(=NC(N)=N1)N=CN2", "physical_data": {"Molecular Weight": "165.15", "Molecular Formula": "C6H7N5O", "Melting Point": "245-248 \u00b0C (decomp)"}}