{"cas_no": "20537-88-6", "cn_name": "\u6c28\u78f7\u6c40", "en_name": ["Amifostine", "Ethanethiol, 2-[(3-aminopropyl)amino]-, 1-(dihydrogen phosphate)", "Phosphorothioic acid, S-[2-[(3-aminopropyl)amino]ethyl] ester", "Ethanethiol, 2-[(3-aminopropyl)amino]-, dihydrogen phosphate (ester)", "WR 2721C", "WR 2721", "S-[N-(3-Aminopropyl)-2-aminoethyl] dihydrogen thiophosphate", "Gammaphos", "Aminopropylaminoethyl thiophosphate", "S-[2-(3-Aminopropylamino)ethyl] phosphorothioate", "S-[2-[(3-Aminopropyl)amino]ethyl] dihydrogen phosphorothioate", "YM 08310", "2-(3-Aminopropylamino)ethyl thiophosphate", "Ethiofos", "NSC 296961", "Amifostine", "Ethyol", "S 8744", "SAPEP", "([2-[(3-Aminopropyl)amino]ethyl]sulfanyl)phosphonic acid", "MeSH ID: D004999"], "SMILES": "S(CCNCCCN)P(=O)(O)O", "physical_data": {"Molecular Weight": "214.22", "Molecular Formula": "C5H15N2O3PS", "Melting Point": "160-161 \u00b0C"}}