{"cas_no": "20532-30-3", "cn_name": "5-\u7532\u6c27\u57fa\u82ef\u5e76\u567b\u5429", "en_name": ["5-Methoxybenzo[b]thiophene", "Benzo[b]thiophene, 5-methoxy-", "5-Methoxybenzo[b]thiophene", "5-Methoxybenzothiophene"], "SMILES": "O(C)C=1C=C2C(=CC1)SC=C2", "physical_data": {"Molecular Weight": "164.22", "Molecular Formula": "C9H8OS", "Melting Point": "42 \u00b0C"}}