{"cas_no": "20547-45-9", "cn_name": "\u9e21\u77e2\u85e4\u7519", "en_name": ["Paederoside", "Carbonothioic acid, O-[[(2aS,4aS,5S,7bS)-5-(\u03b2-D-glucopyranosyloxy)-2a,4a,5,7b-tetrahydro-1-oxo-1H-2,6-dioxacyclopent[cd]inden-4-yl]methyl] S-methyl ester", "Pederoside", "Carbonothioic acid, O-[[5-(\u03b2-D-glucopyranosyloxy)-2a,4a,5,7b-tetrahydro-1-oxo-1H-2,6-dioxacyclopent[cd]inden-4-yl]methyl] S-methyl ester, [2aS-(2a\u03b1,4a\u03b1,5\u03b1,7b\u03b1)]-", "1H-2,6-Dioxacyclopent[cd]indene, carbonothioic acid deriv.", "Paederoside", "NSC 305984"], "SMILES": "O(C1C2C3C(C=C2COC(SC)=O)OC(=O)C3=CO1)C4OC(CO)C(O)C(O)C4O", "physical_data": {"Molecular Weight": "446.43", "Molecular Formula": "C18H22O11S", "Melting Point": "122-123 \u00b0C"}}