{"cas_no": "20549-47-7", "cn_name": "(+)-\u4e8c\u6c22\u9999\u82b9\u9187", "en_name": ["(1R,2R,5R)-2-Methyl-5-(1-methylethenyl)cyclohexanol", "Cyclohexanol, 2-methyl-5-(1-methylethenyl)-, (1R,2R,5R)-", "p-Menth-8-en-2-ol, (R,R,R)-(-)-", "Cyclohexanol, 2-methyl-5-(1-methylethenyl)-, [1R-(1\u03b1,2\u03b2,5\u03b1)]-", "(1R,2R,5R)-2-Methyl-5-(1-methylethenyl)cyclohexanol", "(-)-Dihydrocarveol", "Carveol, dihydro-, (-)-", "(1R,2R,5R)-5-Isopropenyl-2-methylcyclohexanol", "(1R,2R,5R)-5-Isopropenyl-2-methylcyclohexanol"], "SMILES": "C(C)(=C)C1CC(O)C(C)CC1", "physical_data": {"Molecular Weight": "154.25", "Molecular Formula": "C10H18O", "Boiling Point": "224 \u00b0C @ Press: 761 Torr", "Density": "0.9210 g/cm\u00b3 @ Temp: 30 \u00b0C"}}