{"cas_no": "20554-84-1", "cn_name": "\u5c0f\u767d\u83ca\u5185\u916f", "en_name": ["(-)-Parthenolide", "Oxireno[9,10]cyclodeca[1,2-b]furan-9(1aH)-one, 2,3,6,7,7a,8,10a,10b-octahydro-1a,5-dimethyl-8-methylene-, (1aR,4E,7aS,10aS,10bR)-", "Germacra-1(10),11(13)-dien-12-oic acid, 4,5\u03b1-epoxy-6\u03b2-hydroxy-, \u03b3-lactone", "Parthenolide", "(1aR,4E,7aS,10aS,10bR)-2,3,6,7,7a,8,10a,10b-Octahydro-1a,5-dimethyl-8-methyleneoxireno[9,10]cyclodeca[1,2-b]furan-9(1aH)-one", "(-)-Parthenolide"], "SMILES": "CC12C(C3C(C(=C)C(=O)O3)CCC(C)=CCC1)O2", "physical_data": {"Molecular Weight": "248.32", "Molecular Formula": "C15H20O3", "Melting Point": "115-116 \u00b0C"}}