{"cas_no": "20555-91-3", "cn_name": "3,4-\u4e8c\u6c2f\u7898\u82ef", "en_name": ["1,2-Dichloro-4-iodobenzene", "Benzene, 1,2-dichloro-4-iodo-", "1,2-Dichloro-4-iodobenzene", "3,4-Dichloroiodobenzene", "3,4-Dichlorophenyl iodide", "3,4-Dichloro-1-iodobenzene", "4-Iodo-1,2-dichlorobenzene", "1-Iodo-3,4-dichlorobenzene"], "SMILES": "ClC1=C(Cl)C=CC(I)=C1", "physical_data": {"Molecular Weight": "272.90", "Molecular Formula": "C6H3Cl2I", "Melting Point": "30.5 \u00b0C"}}