{"cas_no": "205510-53-8", "cn_name": "1-(2-\u6c2f-5-\u567b\u5511\u57fa\u7532\u57fa)-3-\u7532\u57fa-2-\u785d\u57fa\u80cd", "en_name": ["Clothianidin", "Guanidine, N-[(2-chloro-5-thiazolyl)methyl]-N\u2032-methyl-N\u2032\u2032-nitro-, [C(E)]-", "[C(E)]-N-[(2-Chloro-5-thiazolyl)methyl]-N\u2032-methyl-N\u2032\u2032-nitroguanidine", "TI 435", "Clothianidin", "Poncho", "Dantotsu", "Fullswing", "Apacz", "Clutch", "Clutch (insecticide)", "Belay", "TM 44401", "Arena", "V 10170", "Takeloc MC 50E", "Takeloc CLMN 10", "Celero", "(E)-1-(2-Chloro-1,3-thiazol-5-yl methyl)-3-methyl-2-nitroguanidine", "Poncho 600", "Dantop", "(E)-1-(2-Chloro-1,3-thiazole-5-ylmethyl)-3-methyl-2-nitroguanidine", "Poncho 250", "NipsIt Inside", "Titan ST", "Dantotsu 16WSG", "Takeloc MC 50 Super", "NipsIt", "(E)-1-(2-Chloro-1,3-thiazol-5-ylmethyl)-3-methyl-2-nitroguanidine", "Nipsit Inside Insecticide", "Takelock MC 50 super", "Poncho 60 FS"], "SMILES": "C(NC(=NN(=O)=O)NC)C1=CN=C(Cl)S1", "physical_data": {"Molecular Weight": "249.68", "Molecular Formula": "C6H8ClN5O2S", "Melting Point": "172-174 \u00b0C"}}