{"cas_no": "20559-55-1", "cn_name": "\u5965\u82ef\u8fbe\u5511", "en_name": ["Oxibendazole", "Carbamic acid, N-(6-propoxy-1H-benzimidazol-2-yl)-, methyl ester", "2-Benzimidazolecarbamic acid, 5-propoxy-, methyl ester", "Carbamic acid, (5-propoxy-1H-benzimidazol-2-yl)-, methyl ester", "5-Propoxy-2-(carbomethoxyamino)benzimidazole", "Methyl 5-propoxybenzimidazole-2-carbamate", "Oxibendazole", "Methyl (5-n-propoxy-2-benzimidazolyl)carbamate", "Loditac", "Anthelcide EQ"], "SMILES": "N(C(OC)=O)C=1NC=2C(N1)=CC(OCCC)=CC2", "physical_data": {"Molecular Weight": "249.27", "Molecular Formula": "C12H15N3O3", "Melting Point": "230 \u00b0C"}}