{"cas_no": "2055-46-1", "cn_name": "3,4,5,6-\u56db\u6c22-2-\u5627\u5576\u786b\u9187", "en_name": ["Tetrahydropyrimidine-2-thione", "2(1H)-Pyrimidinethione, tetrahydro-", "Tetrahydro-2(1H)-pyrimidinethione", "Cyclic propylene thiourea", "N,N\u2032-Trimethylenethiourea", "Thiourea, N,N\u2032-1,3-propanediyl-", "Hexahydropyrimidine-2-thione", "2-Mercaptotetrahydropyrimidine", "1,4,5,6-Tetrahydro-2-pyrimidinethiol", "3,4,5,6-Tetrahydro-2-pyrimidinethiol", "Tetrahydropyrimidine-2-thione", "2-Mercapto-3,4,5,6-tetrahydropyrimidine", "2-Mercapto-1,4,5,6-tetrahydropyrimidine", "Perhydropyrimidine-2-thione", "3,4,5,6-Tetrahydro-2(1H)-pyrimidinethione", "1,3-Diazinane-2-thione", "NSC 21316", "3,4,5,6-Tetrahydro-1H-pyrimidine-2-thione", "Trimethylenethiourea", "3,4,5,6-Tetrahydro-2-mercaptopyrimidine", "1,3-Trimethylene-2-thiourea"], "SMILES": "S=C1NCCCN1", "physical_data": {"Molecular Weight": "116.18", "Molecular Formula": "C4H8N2S", "Melting Point": "210-212 \u00b0C"}}