{"cas_no": "20562-02-1", "cn_name": "A-\u8304\u78b1", "en_name": ["\u03b1-Solanine", "\u03b2-D-Galactopyranoside, (3\u03b2)-solanid-5-en-3-yl O-6-deoxy-\u03b1-L-mannopyranosyl-(1\u21922)-O-[\u03b2-D-glucopyranosyl-(1\u21923)]-", "\u03b1-Solanine", "Solanidane, \u03b2-D-galactopyranoside deriv.", "1H-Naphth[2\u2032,1\u2032:4,5]indeno[1,2-b]indolizine, \u03b2-D-galactopyranoside deriv.", "(3\u03b2)-Solanid-5-en-3-yl O-6-deoxy-\u03b1-L-mannopyranosyl-(1\u21922)-O-[\u03b2-D-glucopyranosyl-(1\u21923)]-\u03b2-D-galactopyranoside", "\u03b1-Solanin"], "SMILES": "CC12C3C(CC1C4C(CC2)C5(C)C(=CC4)CC(OC6C(OC7C(O)C(O)C(O)C(C)O7)C(OC8OC(CO)C(O)C(O)C8O)C(O)C(CO)O6)CC5)N9C(C3C)CCC(C)C9", "physical_data": {"Molecular Weight": "868.06", "Molecular Formula": "C45H73NO15", "Melting Point": "285 \u00b0C (decomp)"}}