{"cas_no": "20561-09-5", "cn_name": "\u73af\u4e19\u70f7-1,2-\u4e8c\u7fa7\u9178\u4e8c\u4e59\u916f", "en_name": ["1,2-Diethyl 1,2-cyclopropanedicarboxylate", "1,2-Cyclopropanedicarboxylic acid, 1,2-diethyl ester", "1,2-Cyclopropanedicarboxylic acid, diethyl ester", "1,2-Diethyl 1,2-cyclopropanedicarboxylate", "Diethyl 1,2-cyclopropanedicarboxylate", "NSC 122105"], "SMILES": "C(OCC)(=O)C1C(C(OCC)=O)C1", "physical_data": {"Molecular Weight": "186.21", "Molecular Formula": "C9H14O4", "Boiling Point": "120-123 \u00b0C @ Press: 15 Torr", "Density": "1.057 g/cm\u00b3 @ Temp: 20 \u00b0C"}}