{"cas_no": "20562-03-2", "cn_name": "\u03b1-\u5361\u8304\u78b1", "en_name": ["\u03b1-Chaconine", "\u03b2-D-Glucopyranoside, (3\u03b2)-solanid-5-en-3-yl O-6-deoxy-\u03b1-L-mannopyranosyl-(1\u21922)-O-[6-deoxy-\u03b1-L-mannopyranosyl-(1\u21924)]-", "\u03b1-Chaconine", "Solanidane, \u03b2-D-glucopyranoside deriv.", "1H-Naphth[2\u2032,1\u2032:4,5]indeno[1,2-b]indolizine, \u03b2-D-glucopyranoside deriv.", "(3\u03b2)-Solanid-5-en-3-yl O-6-deoxy-\u03b1-L-mannopyranosyl-(1\u21922)-O-[6-deoxy-\u03b1-L-mannopyranosyl-(1\u21924)]-\u03b2-D-glucopyranoside", "Chaconine"], "SMILES": "CC12C(C3C(CC1)C4(C)C(=CC3)CC(OC5C(OC6C(O)C(O)C(O)C(C)O6)C(O)C(OC7C(O)C(O)C(O)C(C)O7)C(CO)O5)CC4)CC8C2C(C)C9N8CC(C)CC9", "physical_data": {"Molecular Weight": "852.06", "Molecular Formula": "C45H73NO14", "Melting Point": "243 \u00b0C"}}