{"cas_no": "20575-57-9", "cn_name": "\u6bdb\u5f02\u9ec4\u916e", "en_name": ["Calycosin", "4H-1-Benzopyran-4-one, 7-hydroxy-3-(3-hydroxy-4-methoxyphenyl)-", "Isoflavone, 3\u2032,7-dihydroxy-4\u2032-methoxy-", "7-Hydroxy-3-(3-hydroxy-4-methoxyphenyl)-4H-1-benzopyran-4-one", "Calycosin", "3\u2032,7-Dihydroxy-4\u2032-methoxyisoflavone", "7,3\u2032-Dihydroxy-4\u2032-methoxyisoflavone", "3\u2032-Hydroxyformononetin", "Cyclosin", "Cyclosin (isoflavone)", "7-Hydroxy-3-(3-hydroxy-4-methoxyphenyl)benzopyran-4-one"], "SMILES": "O=C1C(=COC=2C1=CC=C(O)C2)C3=CC(O)=C(OC)C=C3", "physical_data": {"Molecular Weight": "284.26", "Molecular Formula": "C16H12O5", "Melting Point": "250-251 \u00b0C"}}