{"cas_no": "20577-27-9", "cn_name": "2-\u7f9f\u57fa-3-\u6c30\u57fa\u5421\u5576", "en_name": ["3-Cyano-2-pyridone", "3-Pyridinecarbonitrile, 1,2-dihydro-2-oxo-", "Nicotinonitrile, 1,2-dihydro-2-oxo-", "1,2-Dihydro-2-oxo-3-pyridinecarbonitrile", "2-Hydroxy-3-cyanopyridine", "3-Cyano-2-pyridone", "3-Cyano-2-pyridinol", "2-Hydroxynicotinonitrile", "3-Cyano-2-hydroxypyridine", "2-Oxo-1,2-dihydro-3-pyridinecarbonitrile", "2-Hydroxypyridine-3-carbonitrile", "3-Cyano-2(1H)-pyridinone", "2-Oxo-1H-pyridine-3-carbonitrile"], "SMILES": "C(#N)C=1C(=O)NC=CC1", "physical_data": {"Molecular Weight": "120.11", "Molecular Formula": "C6H4N2O", "Melting Point": "225-226 \u00b0C"}}