{"cas_no": "20577-61-1", "cn_name": "\u4e59\u9170\u4e19\u916e\u9178\u7532\u916f", "en_name": ["Pentanoic acid, 2,4-dioxo-, methyl ester", "Pentanoic acid, 2,4-dioxo-, methyl ester", "Valeric acid, 2,4-dioxo-, methyl ester", "Methyl \u03b2-acetylpyruvate", "Methyl 3-acetylpyruvate", "Methyl acetylpyruvate", "Methyl 2,4-dioxopentanoate", "1-Methoxy-1,2,4-pentanetrione"], "SMILES": "C(C(OC)=O)(CC(C)=O)=O", "physical_data": {"Molecular Weight": "144.13", "Molecular Formula": "C6H8O4", "Boiling Point": "93-97 \u00b0C @ Press: 9-11 Torr", "Melting Point": "61.5-62.5 \u00b0C"}}