{"cas_no": "2057-84-3", "cn_name": "\u620a\u919b2\uff0c4-\u4e8c\u785d\u57fa\u82ef\u80bc", "en_name": ["n-Valeraldehyde 2,4-dinitrophenylhydrazone", "Pentanal, 2-(2,4-dinitrophenyl)hydrazone", "Valeraldehyde, (2,4-dinitrophenyl)hydrazone", "Pentanal, (2,4-dinitrophenyl)hydrazone", "n-Valeraldehyde 2,4-dinitrophenylhydrazone", "NSC 403613"], "SMILES": "N(=O)(=O)C1=C(NN=CCCCC)C=CC(N(=O)=O)=C1", "physical_data": {"Molecular Weight": "266.25", "Molecular Formula": "C11H14N4O4", "Melting Point": "105 \u00b0C"}}