{"cas_no": "20579-43-5", "cn_name": "3,4,5-trimethylpyridine", "en_name": ["3,4,5-Trimethylpyridine", "Pyridine, 3,4,5-trimethyl-", "3,4,5-Trimethylpyridine", "3,4,5-Collidine"], "SMILES": "CC=1C(C)=CN=CC1C", "physical_data": {"Molecular Weight": "121.18", "Molecular Formula": "C8H11N", "Boiling Point": "205-207 \u00b0C", "Melting Point": "32.6-35.6 \u00b0C", "Density": "0.9616 g/cm\u00b3 @ Temp: 15 \u00b0C"}}