{"cas_no": "2057-49-0", "cn_name": "4-(3-\u82ef\u57fa\u4e19\u57fa)\u5421\u5576", "en_name": ["4-(3-Phenylpropyl)pyridine", "Pyridine, 4-(3-phenylpropyl)-", "4-(3-Phenylpropyl)pyridine", "4-Phenylpropylpyridine", "1-(4-Pyridyl)-3-phenylpropane", "Pep Set 3401 Catalyst"], "SMILES": "C(CCC=1C=CN=CC1)C2=CC=CC=C2", "physical_data": {"Molecular Weight": "197.28", "Molecular Formula": "C14H15N", "Boiling Point": "322 \u00b0C", "Density": "1.0224 g/cm\u00b3 @ Temp: 20 \u00b0C"}}