{"cas_no": "20571-42-0", "cn_name": "7-(\u4e8c\u4e59\u80fa\u57fa)\u9999\u8c46\u7d20", "en_name": ["7-Diethylaminocoumarin", "2H-1-Benzopyran-2-one, 7-(diethylamino)-", "Coumarin, 7-(diethylamino)-", "7-(Diethylamino)-2H-1-benzopyran-2-one", "7-Diethylaminocoumarin", "LD 466", "C 1H", "Coumarin 466", "7-Diethylaminochromen-2-one", "Coumarin 110", "7-Diethylamino-2H-benzopyran-2-one", "7-(Diethylamino)-2H-chromen-2-one"], "SMILES": "N(CC)(CC)C=1C=C2C(=CC1)C=CC(=O)O2", "physical_data": {"Molecular Weight": "217.26", "Molecular Formula": "C13H15NO2", "Melting Point": "88-89 \u00b0C"}}