{"cas_no": "205754-33-2", "cn_name": "8-\u7f9f\u57fa\u4f9d\u6cd5\u97e6\u4f26", "en_name": ["8-Hydroxyefavirenz", "2H-3,1-Benzoxazin-2-one, 6-chloro-4-(2-cyclopropylethynyl)-1,4-dihydro-8-hydroxy-4-(trifluoromethyl)-, (4S)-", "2H-3,1-Benzoxazin-2-one, 6-chloro-4-(cyclopropylethynyl)-1,4-dihydro-8-hydroxy-4-(trifluoromethyl)-, (4S)-", "(4S)-6-Chloro-4-(2-cyclopropylethynyl)-1,4-dihydro-8-hydroxy-4-(trifluoromethyl)-2H-3,1-benzoxazin-2-one", "8-Hydroxyefavirenz", "(4S)-6-Chloro-4-(2-cyclopropylethynyl)-8-hydroxy-4-(trifluoromethyl)-1H-3,1-benzoxazin-2-one"], "SMILES": "C(#CC1CC1)C2(C(F)(F)F)C=3C(NC(=O)O2)=C(O)C=C(Cl)C3", "physical_data": {"Molecular Weight": "331.67", "Molecular Formula": "C14H9ClF3NO3", "Melting Point": "171-172 \u00b0C"}}