{"cas_no": "2058-52-8", "cn_name": "\u6c2f\u567b\u5e73", "en_name": ["Clotiapine", "Dibenzo[b,f][1,4]thiazepine, 2-chloro-11-(4-methyl-1-piperazinyl)-", "2-Chloro-11-(4-methyl-1-piperazinyl)dibenzo[b,f][1,4]thiazepine", "LW 2159", "2-Chloro-11-(4-methylpiperazino)dibenzo[b,f][1,4]thiazepine", "Clothiapine", "Clotiapine", "HF 2159", "Etumine", "Clothiapin", "Entumine", "Deliton", "Etomine"], "SMILES": "ClC=1C=C2C(=NC=3C(SC2=CC1)=CC=CC3)N4CCN(C)CC4", "physical_data": {"Molecular Weight": "343.87", "Molecular Formula": "C18H18ClN3S", "Melting Point": "119 \u00b0C"}}