{"cas_no": "2058-46-0", "cn_name": "\u76d0\u9178\u571f\u9709\u7d20", "en_name": ["Oxytetracycline hydrochloride", "2-Naphthacenecarboxamide, 4-(dimethylamino)-1,4,4a,5,5a,6,11,12a-octahydro-3,5,6,10,12,12a-hexahydroxy-6-methyl-1,11-dioxo-, hydrochloride (1:1), (4S,4aR,5S,5aR,6S,12aS)-", "2-Naphthacenecarboxamide, 4-(dimethylamino)-1,4,4a,5,5a,6,11,12a-octahydro-3,5,6,10,12,12a-hexahydroxy-6-methyl-1,11-dioxo-, monohydrochloride", "2-Naphthacenecarboxamide, 4-(dimethylamino)-1,4,4a,5,5a,6,11,12a-octahydro-3,5,6,10,12,12a-hexahydroxy-6-methyl-1,11-dioxo-, monohydrochloride, [4S-(4\u03b1,4a\u03b1,5\u03b1,5a\u03b1,6\u03b2,12a\u03b1)]-", "2-Naphthacenecarboxamide, 4-(dimethylamino)-1,4,4a,5,5a,6,11,12a-octahydro-3,5,6,10,12,12a-hexahydroxy-6-methyl-1,11-dioxo-, monohydrochloride, (4S,4aR,5S,5aR,6S,12aS)-", "1-Dimethylamino-1,4,6,11,12,13,14,18-octahydro-2,5,7,11,12,14-hexahydroxy-4,6-dioxo-11-methylnaphthacene-3-carbonamide hydrochloride", "Liquamycin Injectable", "Oxytetracycline hydrochloride", "Terramycin hydrochloride", "Tetran hydrochloride", "5-Hydroxytetracycline hydrochloride", "TM 5", "5-Hydroxytetracycline monohydrochloride", "Aquacycline", "Engemycin", "Oxytetrin", "Mepatar", "Oxytet", "Oxylag", "Gynamousse", "Oxybiocycline", "Oxycyclin", "Occrycetin", "Terraject", "Oxyject", "Oxy-Dumocyclin", "Oxypan", "Toxinal", "Duphacycline", "Oxytetracid", "Oxy WS", "Tetramel", "Oxlopar", "Alamycin", "Oxybiotic", "Tetra-Tabilinen", "Biocyl", "Maxicyklin", "Vetilmicin", "Teramycin", "Terramycin 343", "Shuihemeisu"], "SMILES": "OC12C(C(O)C3C(=C1O)C(=O)C=4C(C3(C)O)=CC=CC4O)C(N(C)C)C(O)=C(C(N)=O)C2=O.Cl", "physical_data": {"Molecular Weight": "", "Molecular Formula": "C22H24N2O9.ClH", "Melting Point": "178 \u00b0C (decomp)"}}