{"cas_no": "205873-58-1", "cn_name": "\u5432\u54da-7-\u7532\u9178\u4e59\u916f", "en_name": ["Ethyl 1H-indole-7-carboxylate", "1H-Indole-7-carboxylic acid, ethyl ester", "Ethyl 1H-indole-7-carboxylate"], "SMILES": "C(OCC)(=O)C1=C2C(=CC=C1)C=CN2", "physical_data": {"Molecular Weight": "189.21", "Molecular Formula": "C11H11NO2", "Melting Point": "56-57 \u00b0C"}}