{"cas_no": "20587-30-8", "cn_name": "2-\u785d\u57fa-5-\u7532\u57fa\u82ef\u7532\u9178\u7532\u916f", "en_name": ["Benzoic acid, 5-methyl-2-nitro-, methyl ester", "Benzoic acid, 5-methyl-2-nitro-, methyl ester", "m-Toluic acid, 6-nitro-, methyl ester", "Methyl 6-nitro-m-toluate", "Methyl 5-methyl-2-nitrobenzoate", "5-Methyl-2-nitrobenzoic acid methyl ester"], "SMILES": "C(OC)(=O)C1=C(N(=O)=O)C=CC(C)=C1", "physical_data": {"Molecular Weight": "195.17", "Molecular Formula": "C9H9NO4", "Melting Point": "78-79 \u00b0C"}}