{"cas_no": "20582-55-2", "cn_name": "4-\u7532\u57fa\u567b\u5511-5-\u7532\u9178\u4e59\u916f", "en_name": ["5-Thiazolecarboxylic acid, 4-methyl-, ethyl ester", "5-Thiazolecarboxylic acid, 4-methyl-, ethyl ester", "Ethyl 4-methylthiazole-5-carboxylate", "4-Methylthiazole-5-carboxylic acid ethyl ester", "4-Methyl-5-(ethoxycarbonyl)thiazole", "NSC 170824", "Ethyl 4-methyl-1,3-thiazole-5-carboxylate"], "SMILES": "C(OCC)(=O)C1=C(C)N=CS1", "physical_data": {"Molecular Weight": "171.22", "Molecular Formula": "C7H9NO2S", "Boiling Point": "230-236 \u00b0C", "Melting Point": "27-28 \u00b0C"}}