{"cas_no": "2058-72-2", "cn_name": "5-\u6eb4-1-\u7532\u57fa-1H-\u5432\u54da-2,3-\u4e8c\u916e", "en_name": ["5-Bromo-1-methylisatin", "1H-Indole-2,3-dione, 5-bromo-1-methyl-", "Indole-2,3-dione, 5-bromo-1-methyl-", "Isatin, 5-bromo-1-methyl-", "5-Bromo-1-methyl-1H-indole-2,3-dione", "5-Bromo-N-methylisatin", "5-Bromo-1-methylisatin", "1-Methyl-5-bromoisatin", "5-Bromo-1-methylindole-2,3-dione", "5-Bromo-1-methylindoline-2,3-dione"], "SMILES": "O=C1C=2C(N(C)C1=O)=CC=C(Br)C2", "physical_data": {"Molecular Weight": "240.05", "Molecular Formula": "C9H6BrNO2", "Melting Point": "164 \u00b0C"}}