{"cas_no": "20582-85-8", "cn_name": "4-(\u7532\u786b\u57fa)\u4e01\u9187", "en_name": ["4-(Methylthio)-1-butanol", "1-Butanol, 4-(methylthio)-", "4-(Methylthio)-1-butanol"], "SMILES": "C(CCO)CSC", "physical_data": {"Molecular Weight": "120.21", "Molecular Formula": "C5H12OS", "Boiling Point": "81-85 \u00b0C @ Press: 3 Torr"}}