{"cas_no": "2058-74-4", "cn_name": "1-\u7532\u57fa\u975b\u7ea2", "en_name": ["1-Methylisatin", "1H-Indole-2,3-dione, 1-methyl-", "Indole-2,3-dione, 1-methyl-", "Isatin, 1-methyl-", "1-Methyl-1H-indole-2,3-dione", "1-Methylisatin", "N-Methylisatin", "OL 57", "1-Methyl-2,3-indolinedione", "1-Methylindole-2,3-dione", "N-Methylindoline-2,3-dione", "NSC 42449", "N-Methyl-indole-2,3-dione", "1-Methyl-2,3-dioxoindole", "1-Methyl-2,3-dihydro-1H-indole-2,3-dione"], "SMILES": "O=C1C=2C(N(C)C1=O)=CC=CC2", "physical_data": {"Molecular Weight": "161.16", "Molecular Formula": "C9H7NO2", "Melting Point": "130-133 \u00b0C"}}