{"cas_no": "20595-30-6", "cn_name": "\u53cd-3-\u6c1f\u82ef\u4e19\u70ef\u9178", "en_name": ["(2E)-3-(3-Fluorophenyl)-2-propenoic acid", "2-Propenoic acid, 3-(3-fluorophenyl)-, (2E)-", "Cinnamic acid, m-fluoro-, (E)-", "2-Propenoic acid, 3-(3-fluorophenyl)-, (E)-", "(2E)-3-(3-Fluorophenyl)-2-propenoic acid", "trans-3-Fluorocinnamic acid", "(E)-m-Fluorocinnamic acid", "trans-3-(3-Fluorophenyl)-2-propenoic acid", "(E)-3-Fluorocinnamic acid", "(E)-3-Fluorocinnamic acid", "(E)-3-(3-Fluorophenyl)acrylic acid"], "SMILES": "C(=CC(O)=O)C1=CC(F)=CC=C1", "physical_data": {"Molecular Weight": "166.15", "Molecular Formula": "C9H7FO2", "Melting Point": "98-100 \u00b0C"}}