{"cas_no": "206-44-0", "cn_name": "\u8367\u84bd", "en_name": ["Fluoranthene", "Fluoranthene", "Benzo[jk]fluorene", "Idryl", "1,2-(1,8-Naphthylene)benzene", "Benzene, 1,2-(1,8-naphthalenediyl)-", "NSC 6803", "ClusterCarbon"], "SMILES": "C12=C3C=4C(C1=CC=CC2=CC=C3)=CC=CC4", "physical_data": {"Molecular Weight": "202.25", "Molecular Formula": "C16H10", "Boiling Point": "384 \u00b0C", "Melting Point": "111 \u00b0C", "Density": "1.252 g/cm\u00b3 @ Temp: 0 \u00b0C"}}