{"cas_no": "20605-01-0", "cn_name": "\u53cc\u7f9f\u7532\u57fa\u4e19\u4e8c\u9178\u4e8c\u4e59\u916f", "en_name": ["Propanedioic acid, 2,2-bis(hydroxymethyl)-, 1,3-diethyl ester", "Propanedioic acid, 2,2-bis(hydroxymethyl)-, 1,3-diethyl ester", "Malonic acid, bis(hydroxymethyl)-, diethyl ester", "Propanedioic acid, bis(hydroxymethyl)-, diethyl ester", "Diethyl bis(hydroxymethyl)malonate", "Bis(hydroxymethyl)propanedioic acid diethyl ester", "NSC 218327", "Diethyl \u03b1,\u03b1-bis(hydroxymethyl)malonate", "Diethyl 2,2-bis(hydroxymethyl)malonate", "1,3-Diethyl 2,2-bis(hydroxymethyl)propanedioate", "Bis(hydroxymethyl)malonic acid diethyl ester"], "SMILES": "C(C(OCC)=O)(C(OCC)=O)(CO)CO", "physical_data": {"Molecular Weight": "220.22", "Molecular Formula": "C9H16O6", "Melting Point": "41-45 \u00b0C"}}