{"cas_no": "20601-38-1", "cn_name": "4,4'-\u4e8c\u7f9f\u57fa\u4e8c\u73af\u5df1\u70f7", "en_name": ["[1,1\u2032-Bicyclohexyl]-4,4\u2032-diol", "[1,1\u2032-Bicyclohexyl]-4,4\u2032-diol", "[Bicyclohexyl]-4,4\u2032-diol", "4,4\u2032-Dihydroxybicyclohexyl", "4,4\u2032-Bicyclohexanediol", "4,4\u2032-Dihydroxydicyclohexane", "Bis(4-hydroxycyclohexyl)", "[1,1\u2032-Bi(cyclohexane)]-4,4\u2032-diol"], "SMILES": "OC1CCC(CC1)C2CCC(O)CC2", "physical_data": {"Molecular Weight": "198.30", "Molecular Formula": "C12H22O2", "Melting Point": "204-207 \u00b0C"}}