{"cas_no": "206055-89-2", "cn_name": "3-(4-\u6c1f\u82ef\u57fa)-5-\u5f02\u6076\u5511\u7532\u9187", "en_name": ["3-(4-Fluorophenyl)-5-isoxazolemethanol", "5-Isoxazolemethanol, 3-(4-fluorophenyl)-", "3-(4-Fluorophenyl)-5-isoxazolemethanol", "[3-(4-Fluorophenyl)isoxazol-5-yl]methanol"], "SMILES": "C(O)C1=CC(=NO1)C2=CC=C(F)C=C2", "physical_data": {"Molecular Weight": "193.17", "Molecular Formula": "C10H8FNO2", "Melting Point": "97-98 \u00b0C"}}