{"cas_no": "20603-00-3", "cn_name": "2-(\u516d\u7532\u6491\u4e9a\u80fa)\u4e59\u9187", "en_name": ["2-(Azepan-1-yl)ethanol", "1H-Azepine-1-ethanol, hexahydro-", "Hexahydro-1H-azepine-1-ethanol", "1-Hexamethylenimineethanol", "1-(2-Hydroxyethyl)homopiperidine", "EGIS 5925", "2-(Perhydroazepino)ethanol", "2-(Azepan-1-yl)ethanol", "NSC 50608", "1-Azepaneethanol", "2-(Azepan-1-yl)ethan-1-ol", "2-(Hexamethyleneimino)ethanol", "Hexahydro-1H-azepin-1-ethanol"], "SMILES": "C(CO)N1CCCCCC1", "physical_data": {"Molecular Weight": "143.23", "Molecular Formula": "C8H17NO", "Boiling Point": "111 \u00b0C @ Press: 23 Torr", "Density": "0.9733 g/cm\u00b3 @ Temp: 20 \u00b0C"}}