{"cas_no": "20601-83-6", "cn_name": "\u7852\u5316\u6c5e", "en_name": ["Mercury selenide (HgSe)", "Mercury selenide (HgSe)", "Mercuric selenide", "Mercury monoselenide", "Mercury(2+) selenide", "Mercury(II) selenide"], "SMILES": "[Hg]=[Se]", "physical_data": {"Molecular Weight": "", "Molecular Formula": "HgSe", "Melting Point": "667 \u00b0C"}}