{"cas_no": "20605-41-8", "cn_name": "\u7532\u6c27\u57fa\u4e59\u9178\u80bc", "en_name": ["Acetic acid, 2-methoxy-, hydrazide", "Acetic acid, 2-methoxy-, hydrazide", "Acetic acid, methoxy-, hydrazide", "Methoxyacetic acid hydrazide", "2-Methoxyacetic acid hydrazide", "Methoxyacetylhydrazine", "Methoxyacetic hydrazide", "Methoxyacetyl hydrazide", "N-(2-Methoxyacetyl)hydrazide", "Methoxyacetohydrazide", "2-Methoxyacetohydrazide"], "SMILES": "C(COC)(NN)=O", "physical_data": {"Molecular Weight": "104.11", "Molecular Formula": "C3H8N2O2", "Melting Point": "58-59 \u00b0C"}}