{"cas_no": "20600-44-6", "cn_name": "5-\u6c2f-2-\u82ef\u9a88\u567b\u5511\u916e", "en_name": ["5-Chloro-2(3H)-benzothiazolone", "2(3H)-Benzothiazolone, 5-chloro-", "2-Benzothiazolol, 5-chloro-", "2-Benzothiazolinone, 5-chloro-", "5-Chloro-2(3H)-benzothiazolone", "5-Chloro-2-benzothiazolinone", "5-Chloro-2-hydroxybenzothiazole", "5-Chloro-2-benzothiazolone", "5-Chloro-2-oxobenzothiazoline", "5-Chloro-3H-benzothiazol-2-one", "5-Chloro-1,3-benzothiazol-2(3H)-one"], "SMILES": "O=C1SC=2C(N1)=CC(Cl)=CC2", "physical_data": {"Molecular Weight": "185.63", "Molecular Formula": "C7H4ClNOS", "Melting Point": "218 \u00b0C"}}