{"cas_no": "2060-64-2", "cn_name": "1-\u82ef\u5e76\u567b\u5429-5-\u7fa7\u9178", "en_name": ["Benzo[b]thiophene-5-carboxylic acid", "Benzo[b]thiophene-5-carboxylic acid", "1-Benzothiophene-5-carboxylic acid", "Benzothiophene-5-carboxylic acid"], "SMILES": "C(O)(=O)C=1C=C2C(=CC1)SC=C2", "physical_data": {"Molecular Weight": "178.21", "Molecular Formula": "C9H6O2S", "Melting Point": "207-208 \u00b0C"}}