{"cas_no": "206181-90-0", "cn_name": "3-\u6c2f\u5421\u5576-2-\u7532\u919b", "en_name": ["3-Chloro-2-pyridinecarboxaldehyde", "2-Pyridinecarboxaldehyde, 3-chloro-", "3-Chloro-2-pyridinecarboxaldehyde", "3-Chloropyridine-2-carboxaldehyde", "3-Chloro-2-formylpyridine", "3-Chloropicolinaldehyde", "3-Chloro-pyridine-2-carbaldehyde", "3-Chloropyridine-2-carbaldehyde"], "SMILES": "C(=O)C1=C(Cl)C=CC=N1", "physical_data": {"Molecular Weight": "141.56", "Molecular Formula": "C6H4ClNO", "Melting Point": "52-56.2 \u00b0C"}}