{"cas_no": "2061-64-5", "cn_name": "5\u0391,8\u0391-\u8868\u4e8c\u6c27-(22E,24R)-\u9ea6\u89d2\u753e-6,22-\u4e8c\u70ef-3\u0392-\u9187", "en_name": ["Ergosterol peroxide", "Ergosta-6,22-dien-3-ol, 5,8-epidioxy-, (3\u03b2,5\u03b1,8\u03b1,22E)-", "5\u03b1,8\u03b1-Ergosta-6,22-dien-3\u03b2-ol, 5,8-epidioxy-", "5,8-Epidioxy-2H-cyclopenta[a]phenanthrene, ergosta-6,22-dien-3-ol deriv.", "(3\u03b2,5\u03b1,8\u03b1,22E)-5,8-Epidioxyergosta-6,22-dien-3-ol", "Ergosterol peroxide", "Ergosterol endoperoxide", "Ergosteryl peroxide", "Peroxyergosterol", "5,8\u03b1-Epidioxy-5\u03b1-ergosta-6,22-dien-3\u03b2-ol", "Ergosterol 5\u03b1,8\u03b1-epidioxide", "5\u03b1,8\u03b1-Epidioxyergosta-6,22-dien-3\u03b2-ol", "(22E,24R)-5\u03b1,8\u03b1-Epidioxyergosta-6,22-dien-3\u03b2-ol", "(22E)-5\u03b1,8\u03b1-Epidioxyergosta-6,22-dien-3\u03b2-ol", "(24R)-Ergost-5\u03b1,8\u03b1-epidioxy-6,22-dien-3\u03b2-ol", "5\u03b1,8\u03b1-Epidioxy-(22E,24R)-ergosta-6,22-dien-3\u03b2-ol", "3\u03b2-Hydroxy-5\u03b1,8\u03b1-epidioxyergosta-6,22-diene", "5\u03b1,8\u03b1-Epodioxy-(22E,24R)-ergosta-6,22-dien-3\u03b2-ol", "NSC 31324", "5,8-Epidioxy-5\u03b1,8\u03b1-ergosta-6,22-dien-3\u03b2-ol", "5\u03b1,8\u03b1-Epidioxyergosterol", "Ergosterol 5,8-peroxide", "5\u03b1,8\u03b1-Epidioxy-22E-ergosta-6,22-dien-3\u03b2-ol", "(3\u03b2,5\u03b1,22E,24R)-5,8-Epidioxyergosta-6,22-dien-3-ol", "5\u03b1,8\u03b1-Epidoxy-(22E,24R)-ergosta-6,22-dien-3\u03b2-ol", "5\u03b1,8\u03b1-Epidioxy-24-methyl-ergosta-6,22-dien-3\u03b2-ol", "Ergosterol 5\u03b1,8\u03b1-peroxide", "5\u03b1,8\u03b1-Epidioxyergosta-6,22-diene-3\u03b2-ol", "(22E,24R)-Ergosta-5,7,22-trien-3\u03b2-olb"], "SMILES": "CC12C3C4(C5C(C)(CC3)C(C(C=CC(C(C)C)C)C)CC5)C=CC1(OO4)CC(O)CC2", "physical_data": {"Molecular Weight": "428.65", "Molecular Formula": "C28H44O3", "Melting Point": "178 \u00b0C"}}