{"cas_no": "20611-21-6", "cn_name": "2-(\u82ef\u57fa\u78fa\u9170\u57fa)\u4e59\u9187", "en_name": ["2-(Phenylsulfonyl)ethanol", "Ethanol, 2-(phenylsulfonyl)-", "2-(Phenylsulfonyl)ethanol", "2-Hydroxyethyl phenyl sulfone", "\u03b2-(Phenylsulfonyl)ethanol", "Phenyl 2-hydroxyethyl sulfoxide", "2-(Benzenesulfonyl)ethanol", "2-(Benzenesulfonyl)ethan-1-ol"], "SMILES": "S(CCO)(=O)(=O)C1=CC=CC=C1", "physical_data": {"Molecular Weight": "186.23", "Molecular Formula": "C8H10O3S", "Boiling Point": "177 \u00b0C @ Press: 2 Torr", "Melting Point": "121.5 \u00b0C"}}