{"cas_no": "20628-07-3", "cn_name": "1-(2-\u7532\u6c27\u57fa-5-\u7532\u57fa\u82ef\u57fa)\u4e59\u916e", "en_name": ["1-(2-Methoxy-5-methylphenyl)ethanone", "Ethanone, 1-(2-methoxy-5-methylphenyl)-", "Acetophenone, 2\u2032-methoxy-5\u2032-methyl-", "1-(2-Methoxy-5-methylphenyl)ethanone", "6\u2032-Methoxy-3\u2032-methylacetophenone", "2\u2032-Methoxy-5\u2032-methylacetophenone", "5-Methyl-2-methoxyacetophenone", "3-Acetyl-4-methoxytoluene", "1-(2-Methoxy-5-methylphenyl)ethan-1-one"], "SMILES": "C(C)(=O)C1=C(OC)C=CC(C)=C1", "physical_data": {"Molecular Weight": "164.20", "Molecular Formula": "C10H12O2", "Boiling Point": "120.5 \u00b0C @ Press: 7 Torr", "Melting Point": "85 \u00b0C", "Density": "1.0652 g/cm\u00b3 @ Temp: 20 \u00b0C"}}