{"cas_no": "2062-98-8", "cn_name": "\u5168\u6c1f(2-\u7532\u57fa-3-\u6c27\u6742\u5df1\u57fa)\u6c1f\u5316\u7269", "en_name": ["2,3,3,3-Tetrafluoro-2-(1,1,2,2,3,3,3-heptafluoropropoxy)propanoyl fluoride", "Propanoyl fluoride, 2,3,3,3-tetrafluoro-2-(1,1,2,2,3,3,3-heptafluoropropoxy)-", "Propionyl fluoride, tetrafluoro-2-(heptafluoropropoxy)-", "Propanoyl fluoride, 2,3,3,3-tetrafluoro-2-(heptafluoropropoxy)-", "Propionyl fluoride, 2,3,3,3-tetrafluoro-2-(heptafluoropropoxy)-", "2,3,3,3-Tetrafluoro-2-(1,1,2,2,3,3,3-heptafluoropropoxy)propanoyl fluoride", "2-(Heptafluoropropoxy)tetrafluoropropionyl fluoride", "2,3,3,3-Tetrafluoro-2-(heptafluoropropoxy)propanoyl fluoride", "Hexafluoropropene oxide dimer", "Perfluoro-2-propoxypropanoyl fluoride", "Perfluoro-2-(trifluoromethyl)-3-oxahexanoyl fluoride", "Perfluoro(2-methyl-3-oxahexanoyl) fluoride", "2-(Perfluoropropoxy)perfluoropropanoyl fluoride", "2-Heptafluoropropoxy-2,3,3,3-tetrafluoropropanoyl fluoride", "2-(Heptafluoropropoxy)-2,3,3,3-tetrafluoropropionyl fluoride", "Perfluoro-2-methyl-3-oxa-hexanacid fluoride", "Perfluoro-2-methyl-3-oxa-hexanoic acid fluoride", "2,3,3,3-Tetrafluoro-2-(perfluoropropoxy)propanoyl fluoride", "2-(Perfluoropropyloxy)perfluoropropanoyl fluoride"], "SMILES": "C(OC(C(C(F)(F)F)(F)F)(F)F)(C(F)(F)F)(C(F)=O)F", "physical_data": {"Molecular Weight": "332.04", "Molecular Formula": "C6F12O2", "Boiling Point": "55-57 \u00b0C"}}