{"cas_no": "206273-87-2", "cn_name": "4-\u82c4\u6c28\u57fa\u54cc\u5576-1-\u7532\u9178\u53d4\u4e01\u916f", "en_name": ["1,1-Dimethylethyl 4-[(phenylmethyl)amino]-1-piperidinecarboxylate", "1-Piperidinecarboxylic acid, 4-[(phenylmethyl)amino]-, 1,1-dimethylethyl ester", "1,1-Dimethylethyl 4-[(phenylmethyl)amino]-1-piperidinecarboxylate", "4-Benzylaminopiperidine-1-carboxylic acid tert-butyl ester", "4-Benzylamino-1-(tert-butoxycarbonyl)piperidine", "tert-Butyl 4-(benzylamino)piperidine-1-carboxylate", "1-Boc-4-benzylaminopiperidine", "1-Boc-4-(benzylamino)piperidine"], "SMILES": "C(OC(C)(C)C)(=O)N1CCC(NCC2=CC=CC=C2)CC1", "physical_data": {"Molecular Weight": "290.40", "Molecular Formula": "C17H26N2O2", "Melting Point": "87-91 \u00b0C"}}