{"cas_no": "20624-92-4", "cn_name": "5-\u6c2f\u9999\u8349\u57fa\u9187", "en_name": ["3-Chloro-4-hydroxy-5-methoxybenzenemethanol", "Benzenemethanol, 3-chloro-4-hydroxy-5-methoxy-", "Vanillyl alcohol, 5-chloro-", "3-Chloro-4-hydroxy-5-methoxybenzenemethanol", "3-Chloro-4-hydroxy-5-methoxybenzyl alcohol", "2-Chloro-4-(hydroxymethyl)-6-methoxyphenol"], "SMILES": "O(C)C1=C(O)C(Cl)=CC(CO)=C1", "physical_data": {"Molecular Weight": "188.61", "Molecular Formula": "C8H9ClO3", "Melting Point": "110-111 \u00b0C"}}