{"cas_no": "2062-84-2", "cn_name": "\u82ef\u54cc\u5229\u591a", "en_name": ["Benperidol", "2H-Benzimidazol-2-one, 1-[1-[4-(4-fluorophenyl)-4-oxobutyl]-4-piperidinyl]-1,3-dihydro-", "2-Benzimidazolinone, 1-[1-[3-(p-fluorobenzoyl)propyl]-4-piperidyl]-", "1-[1-[4-(4-Fluorophenyl)-4-oxobutyl]-4-piperidinyl]-1,3-dihydro-2H-benzimidazol-2-one", "McN-JR 4584", "Benperidol", "Benzoperidol", "Benzperidol", "1-[1-[3-(p-Fluorobenzoyl)propyl]-4-piperidyl]-2-benzimidazolinone", "1-(1-[4-(p-Fluorophenyl)-4-oxobutyl]piperidin-4-yl)-2-benzimidazolinone", "Glianimon", "Anquil", "CB 8089", "Frenactyl", "R 4584", "R 4730", "Frenactil", "NSC 170982", "Benguil"], "SMILES": "O=C1N(C=2C(N1)=CC=CC2)C3CCN(CCCC(=O)C4=CC=C(F)C=C4)CC3", "physical_data": {"Molecular Weight": "381.44", "Molecular Formula": "C22H24FN3O2", "Melting Point": "170-171.8 \u00b0C"}}