{"cas_no": "2062-25-1", "cn_name": "\u90bb\u4e09\u6c1f\u7532\u57fa\u8089\u6842\u9178", "en_name": ["3-[2-(Trifluoromethyl)phenyl]-2-propenoic acid", "2-Propenoic acid, 3-[2-(trifluoromethyl)phenyl]-", "Cinnamic acid, o-(trifluoromethyl)-", "3-[2-(Trifluoromethyl)phenyl]-2-propenoic acid", "o-(Trifluoromethyl)cinnamic acid", "2-(Trifluoromethyl)cinnamic acid", "3-[2-(Trifluoromethyl)phenyl]acrylic acid"], "SMILES": "C(F)(F)(F)C1=C(C=CC(O)=O)C=CC=C1", "physical_data": {"Molecular Weight": "216.16", "Molecular Formula": "C10H7F3O2", "Melting Point": "206 \u00b0C"}}