{"cas_no": "2062-78-4", "cn_name": "\u5339\u83ab\u5947\u7279", "en_name": ["Pimozide", "2H-Benzimidazol-2-one, 1-[1-[4,4-bis(4-fluorophenyl)butyl]-4-piperidinyl]-1,3-dihydro-", "2-Benzimidazolinone, 1-[1-[4,4-bis(p-fluorophenyl)butyl]-4-piperidyl]-", "1-[1-[4,4-Bis(4-fluorophenyl)butyl]-4-piperidinyl]-1,3-dihydro-2H-benzimidazol-2-one", "R 6238", "1-[4,4-Bis(p-fluorophenyl)butyl]-4-(2-oxo-1-benzimidazolinyl)piperidine", "1-[1-[4,4-Bis(p-fluorophenyl)butyl]-4-piperidyl]-2-benzimidazolinone", "Pimozide", "Orap", "NSC 170984", "Primozide", "1-(1-(4,4-Bis(4-fluorophenyl)butyl)-4-piperindinyl)-1,3-dihydro-2H-benzimidazol-2-one", "Apo-Pimozide", "1-(1-(4,4-Bis(4-Fluorophenyl)butyl)piperidin-4-yl)-1,3-dihydro-2H-benzo[d]imidazol-2-one", "MeSH ID: D010868"], "SMILES": "O=C1N(C=2C(N1)=CC=CC2)C3CCN(CCCC(C4=CC=C(F)C=C4)C5=CC=C(F)C=C5)CC3", "physical_data": {"Molecular Weight": "461.55", "Molecular Formula": "C28H29F2N3O", "Melting Point": "214-218 \u00b0C"}}