{"cas_no": "20633-84-5", "cn_name": "\u5fcd\u51ac\u82f7", "en_name": ["Luteolin 7-O-rutinoside", "4H-1-Benzopyran-4-one, 7-[[6-O-(6-deoxy-\u03b1-L-mannopyranosyl)-\u03b2-D-glucopyranosyl]oxy]-2-(3,4-dihydroxyphenyl)-5-hydroxy-", "Scolymoside", "Glucopyranoside, luteolin-7 6-O-(6-deoxy-\u03b1-L-mannopyranosyl)-, \u03b2-D-", "7-[[6-O-(6-Deoxy-\u03b1-L-mannopyranosyl)-\u03b2-D-glucopyranosyl]oxy]-2-(3,4-dihydroxyphenyl)-5-hydroxy-4H-1-benzopyran-4-one", "Luteolin 7-rutinoside", "7-Rutinosylluteolin", "Luteolin 7-O-rutinoside", "Luteolin 7-\u03b2-rutinoside", "Skolimoside", "Luteolin-7-O-\u03b2-D-rutinoside", "5,7,3\u2032,4\u2032-Tetrahydroxyflavone 7-O-rutinoside", "Luteolin 7-O-\u03b1-L-rhamnosyl-(1\u21926)-\u03b2-D-glucopyranoside", "Scolimoside", "Luteolin 7-O-\u03b1-L-rhamnopyranosyl-(1\u21926)-\u03b2-D-glucopyranoside"], "SMILES": "O=C1C=2C(OC(=C1)C3=CC(O)=C(O)C=C3)=CC(OC4OC(COC5C(O)C(O)C(O)C(C)O5)C(O)C(O)C4O)=CC2O", "physical_data": {"Molecular Weight": "594.52", "Molecular Formula": "C27H30O15", "Melting Point": "192-196 \u00b0C"}}