{"cas_no": "20636-41-3", "cn_name": "5-\u7f9f\u57fa\u5c3f\u5627\u5576", "en_name": ["5-Hydroxy-2,4(1H,3H)-pyrimidinedione", "2,4(1H,3H)-Pyrimidinedione, 5-hydroxy-", "5-Hydroxy-2,4(1H,3H)-pyrimidinedione", "NSC 90431", "2,4,5-Trihydroxypyrimidine"], "SMILES": "O=C1C(O)=CNC(=O)N1", "physical_data": {"Molecular Weight": "128.09", "Molecular Formula": "C4H4N2O3", "Melting Point": "310 \u00b0C (decomp)"}}