{"cas_no": "20637-09-6", "cn_name": "4-(\u5bf9\u6c28\u57fa\u82ef)\u4e01\u9178\u7532\u916f", "en_name": ["Methyl 4-aminobenzenebutanoate", "Benzenebutanoic acid, 4-amino-, methyl ester", "Butyric acid, 4-(p-aminophenyl)-, methyl ester", "Methyl 4-aminobenzenebutanoate", "Methyl 4-(4-aminophenyl)butyrate", "Methyl 4-(p-aminophenyl)butyrate", "Methyl 4-(4-aminophenyl)butanoate", "4-(4-Aminophenyl)butanoic acid methyl ester"], "SMILES": "C(CCC(OC)=O)C1=CC=C(N)C=C1", "physical_data": {"Molecular Weight": "193.24", "Molecular Formula": "C11H15NO2", "Melting Point": "42 \u00b0C"}}