{"cas_no": "206361-99-1", "cn_name": "\u8fbe\u82a6\u90a3\u97e6", "en_name": ["Darunavir", "Carbamic acid, N-[(1S,2R)-3-[[(4-aminophenyl)sulfonyl](2-methylpropyl)amino]-2-hydroxy-1-(phenylmethyl)propyl]-, (3R,3aS,6aR)-hexahydrofuro[2,3-b]furan-3-yl ester", "Carbamic acid, [3-[[(4-aminophenyl)sulfonyl](2-methylpropyl)amino]-2-hydroxy-1-(phenylmethyl)propyl]-, hexahydrofuro[2,3-b]furan-3-yl ester, [3R-[3\u03b1(1S*,2R*),3a\u03b2,6a\u03b2]]-", "Carbamic acid, [(1S,2R)-3-[[(4-aminophenyl)sulfonyl](2-methylpropyl)amino]-2-hydroxy-1-(phenylmethyl)propyl]-, (3R,3aS,6aR)-hexahydrofuro[2,3-b]furan-3-yl ester", "(3R,3aS,6aR)-Hexahydrofuro[2,3-b]furan-3-yl N-[(1S,2R)-3-[[(4-aminophenyl)sulfonyl](2-methylpropyl)amino]-2-hydroxy-1-(phenylmethyl)propyl]carbamate", "Darunavir", "TMC 114", "UIC 94017", "TMC 114 (inhibitor)", "Prezista", "TMC 41629", "(-)-Darunavir"], "SMILES": "O(C(NC(C(CN(S(=O)(=O)C1=CC=C(N)C=C1)CC(C)C)O)CC2=CC=CC=C2)=O)C3C4C(OC3)OCC4", "physical_data": {"Molecular Weight": "547.66", "Molecular Formula": "C27H37N3O7S", "Melting Point": "74 \u00b0C"}}