{"cas_no": "20644-12-6", "cn_name": "1,12-\u4e8c\u78b3\u6742\u5341\u4e8c\u787c\u70f7", "en_name": ["p-Carborane", "1,12-Dicarbadodecaborane(12)", "p-Carborane", "p-Dicarbadodecaborane(12)", "p-Carborane(12)", "1,12-Dicarba-closo-dodecaborane", "p-Carborane (C2B10H12)", "1,12-Carborane (C2B10H12)", "1,12-Dicarbadodecaborane", "1,12-Dicarba-closo-dodecaborane(12)"], "SMILES": "[BH]1234[BH]567[BH]189[BH]2%10%11[BH]3%12%13[CH]45%14[BH]6%15%16[BH]78%17[CH]%109%18[BH]%12%11%19[BH]%13%14%15[BH]%16%17%19%18", "physical_data": {"Molecular Weight": "", "Molecular Formula": "C2H12B10", "Melting Point": "259-261 \u00b0C"}}