{"cas_no": "2065-23-8", "cn_name": "\u82ef\u6c27\u4e59\u9178\u7532\u916f", "en_name": ["Methyl 2-phenoxyacetate", "Acetic acid, 2-phenoxy-, methyl ester", "Acetic acid, phenoxy-, methyl ester", "Methyl 2-phenoxyacetate", "Phenoxyacetic acid methyl ester", "Methyl phenoxyacetate", "NSC 32414"], "SMILES": "O(CC(OC)=O)C1=CC=CC=C1", "physical_data": {"Molecular Weight": "166.17", "Molecular Formula": "C9H10O3", "Boiling Point": "245 \u00b0C", "Density": "1.1493 g/cm\u00b3 @ Temp: 20 \u00b0C"}}