{"cas_no": "20651-71-2", "cn_name": "4-\u4e01\u57fa\u82ef\u7532\u9178", "en_name": ["4-Butylbenzoic acid", "Benzoic acid, 4-butyl-", "Benzoic acid, p-butyl-", "4-Butylbenzoic acid", "p-Butylbenzoic acid", "4-n-Butylbenzoic acid", "p-n-Butylbenzoic acid"], "SMILES": "C(O)(=O)C1=CC=C(CCCC)C=C1", "physical_data": {"Molecular Weight": "178.23", "Molecular Formula": "C11H14O2", "Boiling Point": "150-155 \u00b0C @ Press: 0.4 Torr", "Melting Point": "100-113 \u00b0C"}}