{"cas_no": "20651-75-6", "cn_name": "1-\u4e01\u57fa-4-\u785d\u57fa\u82ef", "en_name": ["1-Butyl-4-nitrobenzene", "Benzene, 1-butyl-4-nitro-", "1-Butyl-4-nitrobenzene", "p-Nitrobutylbenzene", "p-Butylnitrobenzene", "4-Nitrobutylbenzene"], "SMILES": "N(=O)(=O)C1=CC=C(CCCC)C=C1", "physical_data": {"Molecular Weight": "179.22", "Molecular Formula": "C10H13NO2", "Boiling Point": "152-155 \u00b0C @ Press: 16 Torr", "Melting Point": "67-68 \u00b0C"}}