{"cas_no": "206559-48-0", "cn_name": "4-(4-\u7fa7\u57fa\u82ef\u57fa)-3-\u6c28\u57fa\u786b\u8132", "en_name": ["4-[(Hydrazinylthioxomethyl)amino]benzoic acid", "Benzoic acid, 4-[(hydrazinylthioxomethyl)amino]-", "Benzoic acid, 4-[(hydrazinothioxomethyl)amino]-", "4-[(Hydrazinylthioxomethyl)amino]benzoic acid", "4-(4-Carboxyphenyl)-3-thiosemicarbazide"], "SMILES": "N(C(NN)=S)C1=CC=C(C(O)=O)C=C1", "physical_data": {"Molecular Weight": "211.24", "Molecular Formula": "C8H9N3O2S", "Melting Point": "&gt;275 \u00b0C"}}