{"cas_no": "2065-66-9", "cn_name": "\u7532\u57fa\u4e09\u82ef\u57fa\u7898\u5316", "en_name": ["Phosphonium, methyltriphenyl-, iodide (1:1)", "Phosphonium, methyltriphenyl-, iodide (1:1)", "Phosphonium, methyltriphenyl-, iodide", "Methyltriphenylphosphonium iodide", "Triphenylmethylphosphinium iodide", "Triphenylmethylphosphonium iodide"], "SMILES": "[P+](C)(C1=CC=CC=C1)(C2=CC=CC=C2)C3=CC=CC=C3.[I-]", "physical_data": {"Molecular Weight": "", "Molecular Formula": "C19H18P.I", "Melting Point": "182-183 \u00b0C"}}