{"cas_no": "2065-70-5", "cn_name": "2,6-\u4e8c\u6c2f\u8418", "en_name": ["2,6-Dichloronaphthalene", "Naphthalene, 2,6-dichloro-", "2,6-Dichloronaphthalene", "PCN 11"], "SMILES": "ClC1=CC2=C(C=C(Cl)C=C2)C=C1", "physical_data": {"Molecular Weight": "197.06", "Molecular Formula": "C10H6Cl2", "Boiling Point": "285 \u00b0C", "Melting Point": "140.5 \u00b0C"}}