{"cas_no": "2065-27-2", "cn_name": "2,6-\u4e8c\u7532\u6c27\u57fa\u82ef\u7532\u9178\u7532\u916f", "en_name": ["Benzoic acid, 2,6-dimethoxy-, methyl ester", "Benzoic acid, 2,6-dimethoxy-, methyl ester", "Methyl 2,6-dimethoxybenzoate", "2,6-Dimethoxybenzoic acid methyl ester"], "SMILES": "C(OC)(=O)C1=C(OC)C=CC=C1OC", "physical_data": {"Molecular Weight": "196.20", "Molecular Formula": "C10H12O4", "Boiling Point": "160-172 \u00b0C @ Press: 14 Torr", "Melting Point": "88 \u00b0C"}}