{"cas_no": "206548-14-3", "cn_name": "2-\u6c28\u57fa-5-\u6eb4-3-\u7532\u57fa\u82ef\u7532\u9178\u7532\u916f", "en_name": ["Methyl 2-amino-5-bromo-3-methylbenzoate", "Benzoic acid, 2-amino-5-bromo-3-methyl-, methyl ester", "Methyl 2-amino-5-bromo-3-methylbenzoate"], "SMILES": "C(OC)(=O)C1=C(N)C(C)=CC(Br)=C1", "physical_data": {"Molecular Weight": "244.09", "Molecular Formula": "C9H10BrNO2", "Melting Point": "57-58 \u00b0C"}}