{"cas_no": "2065-75-0", "cn_name": "2-\u6eb4\u4e19\u4e8c\u919b", "en_name": ["2-Bromopropanedial", "Propanedial, 2-bromo-", "Malonaldehyde, bromo-", "Propanedial, bromo-", "2-Bromopropanedial", "Bromomalonaldehyde", "Bromomalondialdehyde", "2-Bromomalondialdehyde", "2-Bromo-1,3-propanedialdehyde", "2-Bromomalonaldehyde", "2-BromoPropane-1,3-dial", "Bromopropanedial"], "SMILES": "C(C=O)(C=O)Br", "physical_data": {"Molecular Weight": "150.96", "Molecular Formula": "C3H3BrO2", "Melting Point": "148 \u00b0C"}}