{"cas_no": "2065-67-0", "cn_name": "\u56db\u82ef\u57fa\u7898\u5316\u81a6", "en_name": ["Tetraphenylphosphonium iodide", "Phosphonium, tetraphenyl-, iodide (1:1)", "Phosphonium, tetraphenyl-, iodide", "Tetraphenylphosphonium iodide", "Iodotetraphenylphosphorane"], "SMILES": "[P+](C1=CC=CC=C1)(C2=CC=CC=C2)(C3=CC=CC=C3)C4=CC=CC=C4.[I-]", "physical_data": {"Molecular Weight": "", "Molecular Formula": "C24H20P.I", "Melting Point": "333-343 \u00b0C"}}