{"cas_no": "20651-73-4", "cn_name": "4-N-\u4e01\u57fa\u82ef\u7532\u8148", "en_name": ["4-Butylbenzonitrile", "Benzonitrile, 4-butyl-", "Benzonitrile, p-butyl-", "4-Butylbenzonitrile", "p-Cyanobutylbenzene", "p-Butylbenzonitrile"], "SMILES": "C(CCC)C1=CC=C(C#N)C=C1", "physical_data": {"Molecular Weight": "159.23", "Molecular Formula": "C11H13N", "Boiling Point": "154 \u00b0C @ Press: 760 Torr"}}