{"cas_no": "20667-19-0", "cn_name": "\u7532\u57fa\u4e09\u82ef\u57fa\u7898\u5316\u93fb", "en_name": ["Iodomethyltriphenylphosphorane", "Phosphorane, iodomethyltriphenyl-", "Iodomethyltriphenylphosphorane"], "SMILES": "P(C)(I)(C1=CC=CC=C1)(C2=CC=CC=C2)C3=CC=CC=C3", "physical_data": {"Molecular Weight": "404.22", "Molecular Formula": "C19H18IP", "Melting Point": "176-181 \u00b0C"}}