{"cas_no": "2066-89-9", "cn_name": "\u5e15\u53f8\u70df\u80bc", "en_name": ["Pasiniazid", "4-Pyridinecarboxylic acid, hydrazide, compd. with 4-amino-2-hydroxybenzoate (1:1)", "Isonicotinic acid hydrazide, mono(4-aminosalicylate)", "4-Pyridinecarboxylic acid, hydrazide, mono(4-amino-2-hydroxybenzoate)", "Salicylic acid, 4-amino-, compd. with isonicotinic acid hydrazide", "Salicylic acid, 4-amino-, compd. with isoniazid", "Salicylic acid, 4-amino-, compd. with isonicotinic acid hydrazide (1:1)", "Benzoic acid, 4-amino-2-hydroxy-, compd. with 4-pyridinecarboxylic acid hydrazide (1:1)", "p-Aminosalicylic acid isonicotinyl hydrazide", "Dipasic", "Fintozid", "Isoniazid 4-aminosalicylate", "Pasiniazide", "Pasiniazid", "Isonicotinic acid hydrazide p-aminosalicylate", "Nidrapas", "Paraniazide", "Parasal INH", "Pascidaber", "Pashain", "Pas-Hidracida", "GEWO 399"], "SMILES": "C(NN)(=O)C=1C=CN=CC1.C(O)(=O)C1=C(O)C=C(N)C=C1", "physical_data": {"Molecular Weight": "", "Molecular Formula": "C7H7NO3.C6H7N3O", "Melting Point": "142-144 \u00b0C"}}