{"cas_no": "20662-53-7", "cn_name": "4-\uff082-\u916e\u9178-1-\u82ef\u5e76\u54aa\u5511\uff09\u54cc\u5576", "en_name": ["1,3-Dihydro-1-(4-piperidinyl)-2H-benzimidazol-2-one", "2H-Benzimidazol-2-one, 1,3-dihydro-1-(4-piperidinyl)-", "2-Benzimidazolinone, 1-(4-piperidyl)-", "1,3-Dihydro-1-(4-piperidinyl)-2H-benzimidazol-2-one", "1-(4-Piperidinyl)-2-benzimidazolinone", "1-(4-Piperidyl)-2-benzimidazolinone", "1-(4-Piperidyl)-2-oxobenzimidazoline", "4-(2-Oxo-1-benzimidazolinyl)piperidine", "1-(4-Piperidinyl)-1H-benzimidazol-2(3H)-one", "R 30507", "4-(2-Oxo-1-benzimidazoly)piperidine", "1-(4-Piperidinyl)-1,3-dihydrobenzimidazol-2-one", "1-(4-Piperidinyl)-2-benzimidazolone", "4-(2-Oxo-1-benzimidazolyl)piperidine", "4-(2-Oxo-2,3-dihydrobenzimidazol-1-yl)piperidine", "4-(2-Oxo-1,3-dihydro-2H-benzimidazol-1-yl)piperidine", "1-(4-Piperidyl)-3-hydrobenzimidazol-2-one", "4-(2-keto-1-Benzimidazolinyl)piperidine", "1-(4-Piperidinyl)-1,3-dihydro-2H-benzimidazol-2-one", "4-(2,3-Dihydro-2-oxobenzimidazol-1-yl)piperidine", "4-(2-Oxo-1,3-dihydrobenzimidazol-1-yl)piperidine", "1-(Piperidin-4-yl)-1,3-dihydro-benzoimidazol-2-one", "1,3-Dihydro-1-(4-piperidinyl)benzimidazol-2-one", "1-(Piperidin-4-yl)-1H-benzo[d]imidazol-2(3H)-one", "1-(Piperidin-4-yl)-1H-1,3-benzodiazol-2-ol", "1-Piperidin-4-yl-1H-benzoimidazol-2-ol", "1-(Piperidin-4-yl)-1H-benzo[d]imidazol-2-ol", "1-(Piperidin-4-yl)-2,3-dihydro-1H-1,3-benzodiazol-2-one", "3-Piperidin-4-yl-1H-benzimidazol-2-one"], "SMILES": "O=C1N(C=2C(N1)=CC=CC2)C3CCNCC3", "physical_data": {"Molecular Weight": "217.27", "Molecular Formula": "C12H15N3O", "Melting Point": "178-180 \u00b0C"}}