{"cas_no": "20665-85-4", "cn_name": "\u5f02\u4e01\u9178\u9999\u5170\u916f", "en_name": ["Isobutavan", "Propanoic acid, 2-methyl-, 4-formyl-2-methoxyphenyl ester", "Isobutyric acid, ester with vanillin", "Vanillin, isobutyrate", "Isobutavan", "4-Isobutyroyloxy-3-methoxybenzaldehyde", "(4-Formyl-2-methoxyphenyl) 2-methylpropanoate"], "SMILES": "O(C(C(C)C)=O)C1=C(OC)C=C(C=O)C=C1", "physical_data": {"Molecular Weight": "222.24", "Molecular Formula": "C12H14O4", "Melting Point": "29-30 \u00b0C"}}