{"cas_no": "20662-84-4", "cn_name": "2,4,5-\u4e09\u7532\u57fa\u6076\u5511", "en_name": ["Trimethyloxazole", "Oxazole, 2,4,5-trimethyl-", "Oxazole, trimethyl-", "2,4,5-Trimethyloxazole", "Trimethyloxazole", "2,4,5-Trimethyl-1,3-oxazole"], "SMILES": "CC1=C(C)OC(C)=N1", "physical_data": {"Molecular Weight": "111.14", "Molecular Formula": "C6H9NO", "Boiling Point": "134 \u00b0C", "Density": "0.9566 g/cm\u00b3 @ Temp: 25 \u00b0C"}}