{"cas_no": "20679-58-7", "cn_name": "1,4-\u53cc(\u6eb4\u4e59\u916e\u6c27)-2-\u4e01\u70ef", "en_name": ["1,4-Bis(bromoacetoxy)-2-butene", "Acetic acid, 2-bromo-, 1,1\u2032-(2-butene-1,4-diyl) ester", "Acetic acid, bromo-, 2-butenylene ester", "Acetic acid, bromo-, 2-butene-1,4-diyl ester", "2-Butene-1,4-diol, bis(bromoacetate)", "1,4-Bis(bromoacetoxy)-2-butene", "Slimacide V 10", "Fennosan F 50", "Slimicide BBAB", "Busan 1210", "B 14", "NSC 23989", "BBAB", "2-Butene-1,4-diyl bis(bromoacetate)"], "SMILES": "C(OCC=CCOC(CBr)=O)(CBr)=O", "physical_data": {"Molecular Weight": "329.97", "Molecular Formula": "C8H10Br2O4", "Boiling Point": "135-136 \u00b0C @ Press: 5 x 10<sup>-3</sup> Torr"}}