{"cas_no": "20677-73-0", "cn_name": "2-(\u7532\u6c28\u57fa)-\u4e59\u919b\u7f29\u4e8c\u4e59\u9187", "en_name": ["2,2-Diethoxy-N-methylethanamine", "Ethanamine, 2,2-diethoxy-N-methyl-", "Acetaldehyde, (methylamino)-, diethyl acetal", "Ethylamine, 2,2-diethoxy-N-methyl-", "2,2-Diethoxy-N-methylethanamine", "Methylaminoacetaldehyde diethyl acetal", "2-(Methylamino)acetaldehyde diethyl acetal", "2,2-Diethoxyethylmethylamine", "N-Methylaminoacetaldehyde diethyl acetal", "NSC 66542"], "SMILES": "C(CNC)(OCC)OCC", "physical_data": {"Molecular Weight": "147.22", "Molecular Formula": "C7H17NO2", "Boiling Point": "164-166 \u00b0C @ Press: 750 Torr"}}