{"cas_no": "20676-54-4", "cn_name": "2-\u4e59\u9170\u6c28\u57fa-5-\u6c2f\u82ef\u7532\u9178\u7532\u916f", "en_name": ["Methyl 2-(acetylamino)-5-chlorobenzoate", "Benzoic acid, 2-(acetylamino)-5-chloro-, methyl ester", "Anthranilic acid, N-acetyl-5-chloro-, methyl ester", "Methyl 2-(acetylamino)-5-chlorobenzoate", "Methyl N-acetyl-5-chloroanthranilate", "Methyl 5-chloro-N-acetylanthranilate", "2-Acetylamino-5-chloro-benzoic acid methyl ester"], "SMILES": "N(C(C)=O)C1=C(C(OC)=O)C=C(Cl)C=C1", "physical_data": {"Molecular Weight": "227.64", "Molecular Formula": "C10H10ClNO3", "Melting Point": "130 \u00b0C"}}