{"cas_no": "2067-33-6", "cn_name": "5-\u6eb4\u620a\u9178", "en_name": ["5-Bromopentanoic acid", "Pentanoic acid, 5-bromo-", "Valeric acid, 5-bromo-", "5-Bromopentanoic acid", "\u03b4-Bromovaleric acid", "5-Bromovaleric acid", "1-Bromo-4-carboxybutane", "NSC 53507", "5-Bromo-1-pentanoic acid"], "SMILES": "C(CCCBr)C(O)=O", "physical_data": {"Molecular Weight": "181.03", "Molecular Formula": "C5H9BrO2", "Boiling Point": "142-145 \u00b0C @ Press: 15 Torr", "Melting Point": "38-40 \u00b0C"}}