{"cas_no": "2067-84-7", "cn_name": "\u5421\u5576\u5e76[2,3- B]\u5421\u55ea- 2,3(1H,4H) - \u4e8c\u916e", "en_name": ["1,4-Dihydropyrido[2,3-b]pyrazine-2,3-dione", "Pyrido[2,3-b]pyrazine-2,3-dione, 1,4-dihydro-", "Pyrido[2,3-b]pyrazine-2,3-diol", "1,4-Dihydropyrido[2,3-b]pyrazine-2,3-dione", "2,3-Dihydroxypyrido[2,3-b]pyrazine", "2,3-Dihydroxy-1,4,5-triazanaphthalene", "NSC 91561"], "SMILES": "O=C1NC=2C(NC1=O)=NC=CC2", "physical_data": {"Molecular Weight": "163.13", "Molecular Formula": "C7H5N3O2", "Melting Point": "&gt;300 \u00b0C"}}