{"cas_no": "206873-63-4", "cn_name": "N-[2-[[4-[2-(6,7-\u4e8c\u7532\u6c27\u57fa-3,4-\u4e8c\u6c22-1H-\u5f02\u55b9\u5549-2-\u57fa)\u4e59\u57fa]\u82ef\u57fa]\u6c28\u57fa\u7532\u9170\u57fa]-4,5-\u4e8c\u7532\u6c27\u57fa\u82ef\u57fa]\u55b9\u5549-3-\u7532\u9170\u80fa", "en_name": ["Tariquidar", "3-Quinolinecarboxamide, N-[2-[[[4-[2-(3,4-dihydro-6,7-dimethoxy-2(1H)-isoquinolinyl)ethyl]phenyl]amino]carbonyl]-4,5-dimethoxyphenyl]-", "N-[2-[[[4-[2-(3,4-Dihydro-6,7-dimethoxy-2(1H)-isoquinolinyl)ethyl]phenyl]amino]carbonyl]-4,5-dimethoxyphenyl]-3-quinolinecarboxamide", "XR 9576", "Tariquidar"], "SMILES": "N(C(=O)C1=CC2=C(N=C1)C=CC=C2)C3=C(C(NC4=CC=C(CCN5CC=6C(CC5)=CC(OC)=C(OC)C6)C=C4)=O)C=C(OC)C(OC)=C3", "physical_data": {"Molecular Weight": "646.73", "Molecular Formula": "C38H38N4O6", "Melting Point": "133-135 \u00b0C"}}