{"cas_no": "206872-01-7", "cn_name": "2-\u6c28\u57fa-6-\u6eb4-4-\u7532\u6c27\u57fa\u82ef\u915a", "en_name": ["2-Amino-6-bromo-4-methoxyphenol", "Phenol, 2-amino-6-bromo-4-methoxy-", "2-Amino-6-bromo-4-methoxyphenol"], "SMILES": "O(C)C1=CC(Br)=C(O)C(N)=C1", "physical_data": {"Molecular Weight": "218.05", "Molecular Formula": "C7H8BrNO2", "Melting Point": "95-97 \u00b0C"}}