{"cas_no": "2068-02-2", "cn_name": "3,7-DI-O-METHYLQUERCETIN", "en_name": ["Quercetin 3,7-dimethyl ether", "4H-1-Benzopyran-4-one, 2-(3,4-dihydroxyphenyl)-5-hydroxy-3,7-dimethoxy-", "Flavone, 3\u2032,4\u2032,5-trihydroxy-3,7-dimethoxy-", "2-(3,4-Dihydroxyphenyl)-5-hydroxy-3,7-dimethoxy-4H-1-benzopyran-4-one", "3,7-Di-O-methylquercetin", "Quercetin 3,7-dimethyl ether", "3,7-Dimethylquercetin", "5,3\u2032,4\u2032-Trihydroxy-3,7-dimethoxyflavone", "3\u2032,4\u2032,5-Trihydroxy-3,7-dimethoxyflavone", "3,7-Dimethoxy-3\u2032,4\u2032,5-trihydroxyflavone", "Quercetin 3,7-di-O-methyl ether", "3,7-Dimethoxy-5,3\u2032,4\u2032-trihydroxyflavone", "2-(3,4-Dihydroxyphenyl)-5-hydroxy-3,7-dimethoxychromen-4-one"], "SMILES": "O(C)C1=C(OC=2C(C1=O)=C(O)C=C(OC)C2)C3=CC(O)=C(O)C=C3", "physical_data": {"Molecular Weight": "330.29", "Molecular Formula": "C17H14O7", "Melting Point": "234-235 \u00b0C"}}