{"cas_no": "2068-24-8", "cn_name": "\u4e9a\u7532\u57fa\u53cc\u786b\u4ee3\u4e59\u9178", "en_name": ["2,2\u2032-[Methylenebis(thio)]bis[acetic acid]", "Acetic acid, 2,2\u2032-[methylenebis(thio)]bis-", "Acetic acid, (methylenedithio)di-", "2,2\u2032-[Methylenebis(thio)]bis[acetic acid]", "Methylenedithiodiacetic acid", "Methylenebisthioglycolic acid", "Methane-1,1-bis(mercaptoacetic acid)", "NSC 163488", "2-(Carboxymethylsulfanylmethylsulfanyl)acetic acid", "2-([[(Carboxymethyl)sulfanyl]methyl]sulfanyl)acetic acid"], "SMILES": "S(CC(O)=O)CSCC(O)=O", "physical_data": {"Molecular Weight": "196.24", "Molecular Formula": "C5H8O4S2", "Boiling Point": "126-128 \u00b0C @ Press: 0.1 Torr", "Melting Point": "120-125 \u00b0C", "Density": "1.57 g/cm\u00b3"}}