{"cas_no": "20691-84-3", "cn_name": "\u95f4\u7532\u57fa\u7ea2", "en_name": ["3-[2-[4-(Dimethylamino)phenyl]diazenyl]benzoic acid", "Benzoic acid, 3-[2-[4-(dimethylamino)phenyl]diazenyl]-", "Benzoic acid, m-[[p-(dimethylamino)phenyl]azo]-", "Benzoic acid, 3-[[4-(dimethylamino)phenyl]azo]-", "3-[2-[4-(Dimethylamino)phenyl]diazenyl]benzoic acid", "3\u2032-Carboxy-4-dimethylaminoazobenzene", "3-[4-(Dimethylamino)phenylazo]benzoic acid", "m-Methyl red", "Meta-methyl red", "3-[[4-(Dimethylamino)phenyl]diazenyl]benzoic acid"], "SMILES": "N(=NC1=CC=C(N(C)C)C=C1)C2=CC(C(O)=O)=CC=C2", "physical_data": {"Molecular Weight": "269.30", "Molecular Formula": "C15H15N3O2", "Melting Point": "207-208 \u00b0C"}}