{"cas_no": "20691-92-3", "cn_name": "1-\u7532\u57fa\u54cc\u5576-4-\u8148", "en_name": ["1-Methyl-4-piperidinecarbonitrile", "4-Piperidinecarbonitrile, 1-methyl-", "Isonipecotonitrile, 1-methyl-", "1-Methyl-4-piperidinecarbonitrile", "4-Cyano-1-methylpiperidine", "1-Methyl-4-cyanopiperidine", "1-Methylisonipecotonitrile"], "SMILES": "C(#N)C1CCN(C)CC1", "physical_data": {"Molecular Weight": "124.18", "Molecular Formula": "C7H12N2", "Boiling Point": "82-83 \u00b0C @ Press: 10 Torr", "Density": "0.9521 g/cm\u00b3 @ Temp: 20 \u00b0C"}}