{"cas_no": "20697-04-5", "cn_name": "\u95f4\u73af\u6c27\u4e59\u70f7\u6c2f\u82ef", "en_name": ["2-(3-Chlorophenyl)oxirane", "Oxirane, 2-(3-chlorophenyl)-", "Benzene, 1-chloro-3-(epoxyethyl)-", "Oxirane, (3-chlorophenyl)-", "2-(3-Chlorophenyl)oxirane", "3-Chlorostyrene oxide", "(m-Chlorophenyl)oxirane", "m-Chlorostyrene oxide", "3-Chloroepoxystyrene", "(3-Chlorophenyl)oxirane"], "SMILES": "ClC=1C=C(C=CC1)C2CO2", "physical_data": {"Molecular Weight": "154.59", "Molecular Formula": "C8H7ClO", "Boiling Point": "64-65 \u00b0C @ Press: 0.5 Torr"}}