{"cas_no": "20691-72-9", "cn_name": "4-\u7898-2-\u785d\u57fa\u82ef\u80fa", "en_name": ["4-Iodo-2-nitrobenzenamine", "Benzenamine, 4-iodo-2-nitro-", "Aniline, 4-iodo-2-nitro-", "4-Iodo-2-nitrobenzenamine", "4-Iodo-2-nitroaniline", "2-Nitro-4-iodoaniline"], "SMILES": "N(=O)(=O)C1=C(N)C=CC(I)=C1", "physical_data": {"Molecular Weight": "264.02", "Molecular Formula": "C6H5IN2O2", "Melting Point": "121-122 \u00b0C"}}