{"cas_no": "2069-48-9", "cn_name": "(4-\u6c2f\u82ef\u57fa)(4-\u6c1f\u82ef\u57fa)\u7532\u916e", "en_name": ["4-Chloro-4\u2032-fluorobenzophenone", "Methanone, (4-chlorophenyl)(4-fluorophenyl)-", "Benzophenone, 4-chloro-4\u2032-fluoro-", "(4-Chlorophenyl)(4-fluorophenyl)methanone", "4-Chloro-4\u2032-fluorobenzophenone", "4-Fluoro-4\u2032-chlorobenzophenone"], "SMILES": "C(=O)(C1=CC=C(Cl)C=C1)C2=CC=C(F)C=C2", "physical_data": {"Molecular Weight": "234.65", "Molecular Formula": "C13H8ClFO", "Melting Point": "114-115 \u00b0C"}}