{"cas_no": "207-08-9", "cn_name": "\u82ef\u5e76[k]\u8367\u84bd", "en_name": ["Benzo[k]fluoranthene", "Benzo[k]fluoranthene", "Dibenzo[b,jk]fluorene", "11,12-Benzofluoranthene", "2,3,1\u2032,8\u2032-Binaphthylene", "8,9-Benzofluoranthene", "8,9-Benzfluoranthene"], "SMILES": "C12=C3C=4C(C1=CC=CC2=CC=C3)=CC=5C(C4)=CC=CC5", "physical_data": {"Molecular Weight": "252.31", "Molecular Formula": "C20H12", "Boiling Point": "480 \u00b0C", "Melting Point": "217 \u00b0C"}}