{"cas_no": "20717-79-7", "cn_name": "1-\u6eb4-2-\u8418\u7532\u9178", "en_name": ["1-Bromo-2-naphthalenecarboxylic acid", "2-Naphthalenecarboxylic acid, 1-bromo-", "2-Naphthoic acid, 1-bromo-", "1-Bromo-2-naphthalenecarboxylic acid", "1-Bromo-2-naphthoic acid", "JFD 03900"], "SMILES": "BrC=1C2=C(C=CC1C(O)=O)C=CC=C2", "physical_data": {"Molecular Weight": "251.08", "Molecular Formula": "C11H7BrO2", "Melting Point": "189-191 \u00b0C"}}