{"cas_no": "20711-10-8", "cn_name": "\u918b\u9178(Z)-11-\u5341\u56db\u70ef\u916f", "en_name": ["(Z)-11-Tetradecenyl acetate", "11-Tetradecen-1-ol, 1-acetate, (11Z)-", "11-Tetradecen-1-ol, acetate, (Z)-", "11-Tetradecen-1-ol, acetate, (11Z)-", "cis-11-Tetradecenyl acetate", "cis-11-Tetradecen-1-ol acetate", "(Z)-11-Tetradecenyl acetate", "cis-11-Tetradecen-1-yl acetate", "(Z)-11-Tetradecen-1-ol acetate", "(Z)-11-Tetradecen-1-yl acetate", "11-cis-Tetradecen-1-yl acetate", "Hamaki-con", "Z 11-14Ac", "(11Z)-11-Tetradecen-1-ol acetate"], "SMILES": "C(CCCCCCC=CCC)CCCOC(C)=O", "physical_data": {"Molecular Weight": "254.41", "Molecular Formula": "C16H30O2", "Boiling Point": "117 \u00b0C", "Melting Point": "&lt;25 \u00b0C"}}