{"cas_no": "2071-20-7", "cn_name": "\u53cc\u4e8c\u82ef\u57fa\u81a6\u7532\u70f7", "en_name": ["Bis(diphenylphosphino)methane", "Phosphine, 1,1\u2032-methylenebis[1,1-diphenyl-", "Phosphine, methylenebis[diphenyl-", "1,1\u2032-Methylenebis[1,1-diphenylphosphine]", "Methanediylbis[diphenylphosphine]", "Bis(diphenylphosphino)methane", "Methylenebis[diphenylphosphine]", "Tetraphenylmethylenediphosphine", "DPPM", "DPPM (phosphine derivative)", "NSC 147767", "1,1-Bis(diphenylphosphino)methane", "[(Diphenylphosphanyl)methyl]diphenylphosphane"], "SMILES": "P(CP(C1=CC=CC=C1)C2=CC=CC=C2)(C3=CC=CC=C3)C4=CC=CC=C4", "physical_data": {"Molecular Weight": "384.39", "Molecular Formula": "C25H22P2", "Melting Point": "159-161 \u00b0C"}}