{"cas_no": "20717-86-6", "cn_name": "\u4e09\u5f02\u4e19\u6c27\u57fa\u6c2f\u5316\u949b", "en_name": ["Chlorotriisopropoxytitanium", "Titanium, chlorotris(2-propanolato)-, (T-4)-", "Titanium, chlorotriisopropoxy-", "2-Propanol, titanium complex", "(T-4)-Chlorotris(2-propanolato)titanium", "Titanium triisopropoxide chloride", "Triisopropoxytitanium chloride", "Titanium chloride triisopropoxide", "Tris(isopropyloxy)titanium chloride", "Chlorotriisopropyl titanate", "Chlorotriisopropoxytitanium", "Monochlorotitanium triisopropoxide", "Chlorotitanium tris(isopropoxide)", "Chlorotris(isopropanolato)titanium", "Chlorotris(isopropoxy)titanium", "Triisopropoxycyclochlorotitanium", "Triisopropoxychlorotitanium", "Chlorotitanium triisopropoxide", "Titanium chlorotris(isopropoxide)"], "SMILES": "[Ti](OC(C)C)(OC(C)C)(OC(C)C)Cl", "physical_data": {"Molecular Weight": "", "Molecular Formula": "C9H21ClO3Ti", "Boiling Point": "63-66 \u00b0C @ Press: 0.1 Torr", "Melting Point": "34-36 \u00b0C", "Density": "1.091 g/cm\u00b3"}}