{"cas_no": "20719-68-0", "cn_name": "(1,1-\u4e8c\u7532\u57fa-2-\u7532\u6c27\u57fa\u4e59\u57fa)\u80fa", "en_name": ["1-Methoxy-2-methyl-2-propanamine", "2-Propanamine, 1-methoxy-2-methyl-", "Ethylamine, 2-methoxy-1,1-dimethyl-", "1-Methoxy-2-methyl-2-propanamine", "1,1-Dimethyl-2-methoxyethylamine", "2-Methoxy-1,1-dimethylethylamine", "1-Methoxy-2-amino-2-methylpropane", "2-Amino-2-methyl-1-methoxypropane"], "SMILES": "C(C(C)(C)N)OC", "physical_data": {"Molecular Weight": "103.16", "Molecular Formula": "C5H13NO", "Boiling Point": "101 \u00b0C @ Press: 744 Torr"}}