{"cas_no": "20716-98-7", "cn_name": "3,6,8-\u4e09\u7f9f\u57fa-1-\u7532\u57fa\u5360\u5428\u916e", "en_name": ["Norlichexanthone", "9H-Xanthen-9-one, 1,3,6-trihydroxy-8-methyl-", "Xanthen-9-one, 1,3,6-trihydroxy-8-methyl-", "1,3,6-Trihydroxy-8-methyl-9H-xanthen-9-one", "Norlichexanthone", "3,6,8-Trihydroxy-1-methyl-9H-xanthen-9-one", "1,3,6-Trihydroxy-8-methylxanthone", "Fusarindin", "3,6,8-Trihydroxy-1-methylxanthone"], "SMILES": "O=C1C=2C(OC=3C1=C(O)C=C(O)C3)=CC(O)=CC2C", "physical_data": {"Molecular Weight": "258.23", "Molecular Formula": "C14H10O5", "Melting Point": "226-228 \u00b0C"}}