{"cas_no": "20726-63-0", "cn_name": "\u4e8c\u4e59\u80fa\u4e59\u9178\u76d0", "en_name": ["Diethylammonium acetate", "Ethanamine, N-ethyl-, acetate (1:1)", "Diethylamine, acetate", "Ethanamine, N-ethyl-, acetate", "Diethylammonium acetate"], "SMILES": "C(C)(O)=O.N(CC)CC", "physical_data": {"Molecular Weight": "", "Molecular Formula": "C4H11N.C2H4O2", "Melting Point": "46 \u00b0C"}}