{"cas_no": "20721-18-0", "cn_name": "2-\u7f9f\u57fa-6-\u7532\u57fa\u5421\u55ea", "en_name": ["6-Methyl-2(1H)-pyrazinone", "2(1H)-Pyrazinone, 6-methyl-", "Pyrazinol, 6-methyl-", "6-Methyl-2(1H)-pyrazinone", "6-Methylpyrazin-2-one", "NSC 143141", "2-Hydroxy-6-methylpyrazine"], "SMILES": "CC=1NC(=O)C=NC1", "physical_data": {"Molecular Weight": "110.11", "Molecular Formula": "C5H6N2O", "Melting Point": "249-250 \u00b0C"}}