{"cas_no": "20725-03-5", "cn_name": "\u9ec4\u989c\u6728\u7d20", "en_name": ["(\u00b1)-Fustin", "4H-1-Benzopyran-4-one, 2-(3,4-dihydroxyphenyl)-2,3-dihydro-3,7-dihydroxy-, (2R,3R)-rel-", "Flavanone, 3,3\u2032,4\u2032,7-tetrahydroxy-", "4H-1-Benzopyran-4-one, 2-(3,4-dihydroxyphenyl)-2,3-dihydro-3,7-dihydroxy-, trans-", "Fustin", "rel-(2R,3R)-2-(3,4-Dihydroxyphenyl)-2,3-dihydro-3,7-dihydroxy-4H-1-benzopyran-4-one", "Dihydrofisetin", "2,3-Dihydrofisetin", "(\u00b1)-Fustin", "trans-(\u00b1)-3,3\u2032,4\u2032,7-Tetrahydroxyflavanone", "NSC 59264"], "SMILES": "OC1C(OC=2C(C1=O)=CC=C(O)C2)C3=CC(O)=C(O)C=C3", "physical_data": {"Molecular Weight": "288.25", "Molecular Formula": "C15H12O6", "Melting Point": "226-228 \u00b0C"}}