{"cas_no": "20733-11-3", "cn_name": "4-\u7532\u6c27\u57fa\u54d2\u55ea", "en_name": ["4-Methoxypyridazine", "Pyridazine, 4-methoxy-", "4-Methoxypyridazine"], "SMILES": "O(C)C=1C=CN=NC1", "physical_data": {"Molecular Weight": "110.11", "Molecular Formula": "C5H6N2O", "Melting Point": "43-44 \u00b0C"}}