{"cas_no": "20739-58-6", "cn_name": "2-\u8f9b\u7094-1-\u9187", "en_name": ["2-Octyn-1-ol", "2-Octyn-1-ol", "2-Octynol", "NSC 203012"], "SMILES": "C(CCCC)C#CCO", "physical_data": {"Molecular Weight": "126.20", "Molecular Formula": "C8H14O", "Boiling Point": "95.0-95.2 \u00b0C @ Press: 10 Torr", "Melting Point": "-18 \u00b0C", "Density": "0.8805 g/cm\u00b3 @ Temp: 20 \u00b0C"}}