{"cas_no": "20731-74-2", "cn_name": "3-\u7532\u786b\u57fa\u567b\u5429", "en_name": ["3-(Methylthio)thiophene", "Thiophene, 3-(methylthio)-", "3-(Methylthio)thiophene", "3-Methylsulfanylthiophene"], "SMILES": "S(C)C=1C=CSC1", "physical_data": {"Molecular Weight": "130.23", "Molecular Formula": "C5H6S2", "Boiling Point": "93-94 \u00b0C @ Press: 30 Torr"}}