{"cas_no": "20737-48-8", "cn_name": "4-\u7f9f\u57fa-2-\u7532\u57fa\u567b\u5511-5-\u7fa7\u9178\u4e59\u916f", "en_name": ["5-Thiazolecarboxylic acid, 4-hydroxy-2-methyl-, ethyl ester", "5-Thiazolecarboxylic acid, 4-hydroxy-2-methyl-, ethyl ester", "Ethyl 4-hydroxy-2-methyl-1,3-thiazole-5-carboxylate", "Ethyl 4-hydroxy-2-methylthiazole-5-carboxylate", "4-Hydroxy-2-methylthiazole-5-carboxylic acid ethyl ester"], "SMILES": "C(OCC)(=O)C1=C(O)N=C(C)S1", "physical_data": {"Molecular Weight": "187.22", "Molecular Formula": "C7H9NO3S", "Melting Point": "37-39 \u00b0C"}}