{"cas_no": "20736-08-7", "cn_name": "\u67f4\u80e1\u7682\u82f7 C", "en_name": ["Saikosaponin C", "\u03b2-D-Glucopyranoside, (3\u03b2,16\u03b2)-13,28-epoxy-16-hydroxyolean-11-en-3-yl O-6-deoxy-\u03b1-L-mannopyranosyl-(1\u21924)-O-[\u03b2-D-glucopyranosyl-(1\u21926)]-", "Saikosaponin C", "Oleanane, \u03b2-D-glucopyranoside deriv.", "(3\u03b2,16\u03b2)-13,28-Epoxy-16-hydroxyolean-11-en-3-yl O-6-deoxy-\u03b1-L-mannopyranosyl-(1\u21924)-O-[\u03b2-D-glucopyranosyl-(1\u21926)]-\u03b2-D-glucopyranoside"], "SMILES": "CC12C3(C4C(CO3)(C(O)C1)CCC(C)(C)C4)C=CC5C2(C)CCC6C5(C)CCC(OC7OC(COC8OC(CO)C(O)C(O)C8O)C(OC9C(O)C(O)C(O)C(C)O9)C(O)C7O)C6(C)C", "physical_data": {"Molecular Weight": "927.12", "Molecular Formula": "C48H78O17", "Melting Point": "310-314 \u00b0C"}}