{"cas_no": "20734-76-3", "cn_name": "2-\u6c28\u57fa-4-\u7532\u6c27\u57fa\u82ef\u915a", "en_name": ["2-Amino-4-methoxyphenol", "Phenol, 2-amino-4-methoxy-", "2-Amino-4-methoxyphenol", "1-Amino-2-hydroxy-5-methoxybenzene", "4-Methoxy-2-aminophenol", "2-Hydroxy-5-methoxyaniline"], "SMILES": "O(C)C1=CC(N)=C(O)C=C1", "physical_data": {"Molecular Weight": "139.15", "Molecular Formula": "C7H9NO2", "Melting Point": "124 \u00b0C"}}