{"cas_no": "2073-35-0", "cn_name": "L-\u827e\u675c\u7cd6\u919b\u9178", "en_name": ["L-Iduronic acid", "L-Iduronic acid", "Iduronic acid, L-"], "SMILES": "C(C(C(C=O)O)O)(C(C(O)=O)O)O", "physical_data": {"Molecular Weight": "194.14", "Molecular Formula": "C6H10O7", "Melting Point": "131-132 \u00b0C"}}