{"cas_no": "20734-58-1", "cn_name": "1,8-\u53cc\u4e8c\u7532\u6c28\u57fa\u8418", "en_name": ["Proton sponge", "1,8-Naphthalenediamine, N1,N1,N8,N8-tetramethyl-", "1,8-Naphthalenediamine, N,N,N\u2032,N\u2032-tetramethyl-", "N1,N1,N8,N8-Tetramethyl-1,8-naphthalenediamine", "1,8-Bis(dimethylamino)naphthalene", "Proton sponge", "N,N,N\u2032,N\u2032-Tetramethyl-1,8-diaminonaphthalene", "N,N,N\u2032,N\u2032-Tetramethyl-1,8-naphthalenediamine", "1,8-Bis(N,N-dimethylamino)naphthalene", "1-N,1-N,8-N,8-N-Tetramethylnaphthalene-1,8-diamine"], "SMILES": "N(C)(C)C=1C=2C(N(C)C)=CC=CC2C=CC1", "physical_data": {"Molecular Weight": "214.31", "Molecular Formula": "C14H18N2", "Boiling Point": "144-145 \u00b0C @ Press: 4 Torr", "Melting Point": "185 \u00b0C"}}