{"cas_no": "2075-46-9", "cn_name": "4-\u785d\u57fa\u5421\u5511", "en_name": ["4-Nitropyrazole", "1H-Pyrazole, 4-nitro-", "Pyrazole, 4-nitro-", "4-Nitro-1H-pyrazole", "4-Nitropyrazole"], "SMILES": "N(=O)(=O)C=1C=NNC1", "physical_data": {"Molecular Weight": "113.07", "Molecular Formula": "C3H3N3O2", "Melting Point": "161-162 \u00b0C"}}