{"cas_no": "2075-45-8", "cn_name": "4-\u6eb4\u5421\u5511", "en_name": ["4-Bromopyrazole", "1H-Pyrazole, 4-bromo-", "Pyrazole, 4-bromo-", "4-Bromo-1H-pyrazole", "4-Bromopyrazole", "NSC 522023"], "SMILES": "BrC=1C=NNC1", "physical_data": {"Molecular Weight": "146.97", "Molecular Formula": "C3H3BrN2", "Melting Point": "94-96 \u00b0C"}}