{"cas_no": "207557-35-5", "cn_name": "(2S)-N-\u6c2f\u4e59\u9170\u57fa-2-\u6c30\u57fa\u56db\u6c22\u5421\u54af", "en_name": ["(S)-1-(2-Chloroacetyl)pyrrolidine-2-carbonitrile", "2-Pyrrolidinecarbonitrile, 1-(2-chloroacetyl)-, (2S)-", "2-Pyrrolidinecarbonitrile, 1-(chloroacetyl)-, (2S)-", "(2S)-1-(2-Chloroacetyl)-2-pyrrolidinecarbonitrile", "1-Chloroacetyl-2-(S)-cyanopyrrolidine", "(S)-1-(2-Chloroacetyl)pyrrolidine-2-carbonitrile", "(2S)-1-chloroacetylpyrrolidine-2-carbonitrile", "(2S)-1-(Chloroacetyl)-2-pyrrolidinecarbonitrile", "(2S)-N-Chloroacetyl-2-cyanopyrrolidine", "1-(2-Chloroacetyl)-(2S)-pyrrolidine carbonitrile", "(S)-1-(Chloroacetyl)pyrrolidine-2-carbonitrile", "2-Pyrrolidinecarbonitrile 1-(2-chloroacetyl)-, (2S)-"], "SMILES": "C(CCl)(=O)N1C(C#N)CCC1", "physical_data": {"Molecular Weight": "172.61", "Molecular Formula": "C7H9ClN2O", "Melting Point": "52-53 \u00b0C"}}