{"cas_no": "2076-36-0", "cn_name": "3-\u7532\u57fa\u82ef\u5e76\u544b\u5583-2-\u7532\u9178\u7532\u916f", "en_name": ["Methyl 3-methyl-2-benzofurancarboxylate", "2-Benzofurancarboxylic acid, 3-methyl-, methyl ester", "Methyl 3-methyl-2-benzofurancarboxylate", "3-Methylbenzofuran-2-carboxylic acid methyl ester"], "SMILES": "CC=1C=2C(OC1C(OC)=O)=CC=CC2", "physical_data": {"Molecular Weight": "190.20", "Molecular Formula": "C11H10O3", "Boiling Point": "130-135 \u00b0C @ Press: 1 Torr", "Melting Point": "69-70 \u00b0C"}}