{"cas_no": "20769-85-1", "cn_name": "2-\u6eb4\u4ee3\u5f02\u4e01\u9170\u6eb4", "en_name": ["2-Bromoisobutyryl bromide", "Propanoyl bromide, 2-bromo-2-methyl-", "Propionyl bromide, 2-bromo-2-methyl-", "2-Bromo-2-methylpropanoyl bromide", "\u03b1-Bromoisobutyryl bromide", "2-Bromo-2-methylpropionyl bromide", "Bromodimethylacetyl bromide", "2-Bromoisobutyryl bromide", "2-Bromoisobutanoyl bromide", "2-Bromoisobutyric bromide", "Bromoisobutyryl bromide", "2-Methyl-2-bromopropionyl bromide", "1,2-Dibromo-2-methylpropanal", "Bibb"], "SMILES": "C(C(Br)=O)(Br)(C)C", "physical_data": {"Molecular Weight": "229.90", "Molecular Formula": "C4H6Br2O", "Boiling Point": "163 \u00b0C"}}