{"cas_no": "20776-55-0", "cn_name": "2-\u6c28\u57fa-3-\u7898\u82ef\u7532\u9178", "en_name": ["2-Amino-3-iodobenzoic acid", "Benzoic acid, 2-amino-3-iodo-", "Anthranilic acid, 3-iodo-", "2-Amino-3-iodobenzoic acid", "3-Iodoanthranilic acid", "NSC 135149"], "SMILES": "C(O)(=O)C1=C(N)C(I)=CC=C1", "physical_data": {"Molecular Weight": "263.03", "Molecular Formula": "C7H6INO2", "Melting Point": "208-209 \u00b0C"}}