{"cas_no": "2077-46-5", "cn_name": "2,3,6-\u4e09\u6c2f\u7532\u82ef", "en_name": ["2,3,6-Trichlorotoluene", "Benzene, 1,2,4-trichloro-3-methyl-", "Toluene, 2,3,6-trichloro-", "1,2,4-Trichloro-3-methylbenzene", "2,3,6-Trichlorotoluene"], "SMILES": "CC1=C(Cl)C(Cl)=CC=C1Cl", "physical_data": {"Molecular Weight": "195.47", "Molecular Formula": "C7H5Cl3", "Boiling Point": "118 \u00b0C @ Press: 18 Torr", "Melting Point": "43-44 \u00b0C"}}