{"cas_no": "20776-50-5", "cn_name": "2-\u6c28\u57fa-4-\u6eb4\u82ef\u7532\u9178", "en_name": ["2-Amino-4-bromobenzoic acid", "Benzoic acid, 2-amino-4-bromo-", "Anthranilic acid, 4-bromo-", "2-Amino-4-bromobenzoic acid", "4-Bromoanthranilic acid", "5-Bromo-2-carboxyaniline"], "SMILES": "C(O)(=O)C1=C(N)C=C(Br)C=C1", "physical_data": {"Molecular Weight": "216.03", "Molecular Formula": "C7H6BrNO2", "Melting Point": "222 \u00b0C"}}