{"cas_no": "20776-45-8", "cn_name": "5-\u82c4\u6c27\u57fa\u8272\u80fa", "en_name": ["5-(Benzyloxy)tryptamine", "1H-Indole-3-ethanamine, 5-(phenylmethoxy)-", "Indole, 3-(2-aminoethyl)-5-(benzyloxy)-", "5-(Phenylmethoxy)-1H-indole-3-ethanamine", "Ba 2810", "5-(Benzyloxy)tryptamine", "O-Benzylserotonin", "5-Benzyloxy-1H-indole-3-ethanamine", "2-[5-(Benzyloxy)-1H-indol-3-yl]ethan-1-amine", "2-(5-Phenylmethoxy-1H-indol-3-yl)ethanamine", "2-(5-Benzyloxy-1H-indol-3-yl)-ethylamine"], "SMILES": "C(CN)C=1C=2C(NC1)=CC=C(OCC3=CC=CC=C3)C2", "physical_data": {"Molecular Weight": "266.34", "Molecular Formula": "C17H18N2O", "Melting Point": "248-250 \u00b0C"}}