{"cas_no": "20776-51-6", "cn_name": "2-\u6c28\u57fa-3-\u6eb4\u82ef\u7532\u9178", "en_name": ["2-Amino-3-bromobenzoic acid", "Benzoic acid, 2-amino-3-bromo-", "Anthranilic acid, 3-bromo-", "2-Amino-3-bromobenzoic acid", "3-Bromoanthranilic acid", "NSC 112517", "3-Bromo-2-aminobenzoic acid"], "SMILES": "C(O)(=O)C1=C(N)C(Br)=CC=C1", "physical_data": {"Molecular Weight": "216.03", "Molecular Formula": "C7H6BrNO2", "Melting Point": "171-174 \u00b0C"}}