{"cas_no": "207740-26-9", "cn_name": "2,5-\u4e8c\u7532\u6c27\u57fa-4-\u6b63\u4e19\u786b\u57fa\u82ef\u4e59\u80fa", "en_name": ["2,5-Dimethoxy-4-(n)-propylthiophenethylamine", "Benzeneethanamine, 2,5-dimethoxy-4-(propylthio)-", "2,5-Dimethoxy-4-(propylthio)benzeneethanamine", "2,5-Dimethoxy-4-(propylthio)phenethylamine", "2C-T7", "2,5-Dimethoxy-4-(n)-propylthiophenethylamine", "2,5-Dimethoxy-4-propylthio-\u03b2-phenethylamine", "2-[2,5-Dimethoxy-4-(propylsulfanyl)phenyl]ethan-1-amine"], "SMILES": "S(CCC)C1=C(OC)C=C(CCN)C(OC)=C1", "physical_data": {"Molecular Weight": "255.38", "Molecular Formula": "C13H21NO2S", "Melting Point": "135 \u00b0C"}}