{"cas_no": "207740-24-7", "cn_name": "2,5-\u4e8c\u7532\u6c27\u57fa-4-\u4e59\u786b\u57fa\u82ef\u4e59\u80fa", "en_name": ["4-Ethylthio-2,5-dimethoxyphenethylamine", "Benzeneethanamine, 4-(ethylthio)-2,5-dimethoxy-", "4-(Ethylthio)-2,5-dimethoxybenzeneethanamine", "2,5-Dimethoxy-4-(ethylthio)phenethylamine", "4-Ethylthio-2,5-dimethoxyphenethylamine", "2C-T2", "4-Ethylthio-2,5-dimethoxy-\u03b2-phenethylamine", "2-[4-(Ethylsulfanyl)-2,5-dimethoxyphenyl]ethan-1-amine"], "SMILES": "C(CN)C1=C(OC)C=C(SCC)C(OC)=C1", "physical_data": {"Molecular Weight": "241.35", "Molecular Formula": "C12H19NO2S", "Melting Point": "130 \u00b0C"}}