{"cas_no": "20776-67-4", "cn_name": "2-\u6c28\u57fa-5-\u6c2f-3-\u7532\u57fa\u82ef\u7532\u9178", "en_name": ["2-Amino-5-chloro-3-methylbenzoic acid", "Benzoic acid, 2-amino-5-chloro-3-methyl-", "m-Toluic acid, 2-amino-5-chloro-", "2-Amino-5-chloro-3-methylbenzoic acid", "3-Methyl-5-chloroanthranilic acid", "2-Amino-3-methyl-5-chlorobenzoic acid"], "SMILES": "C(O)(=O)C1=C(N)C(C)=CC(Cl)=C1", "physical_data": {"Molecular Weight": "185.61", "Molecular Formula": "C8H8ClNO2", "Melting Point": "&gt;197 \u00b0C (decomp)"}}