{"cas_no": "20782-94-9", "cn_name": "4-\u6c2f-2,5-\u4e8c\u7532\u57fa\u82ef\u80fa", "en_name": ["4-Chloro-2,5-dimethylbenzenamine", "Benzenamine, 4-chloro-2,5-dimethyl-", "2,5-Xylidine, 4-chloro-", "4-Chloro-2,5-dimethylbenzenamine", "4-Chloro-2,5-dimethylaniline", "2,5-Dimethyl-4-chloroaniline"], "SMILES": "CC1=C(Cl)C=C(C)C(N)=C1", "physical_data": {"Molecular Weight": "155.62", "Molecular Formula": "C8H10ClN", "Boiling Point": "135-136 \u00b0C @ Press: 15 Torr", "Melting Point": "92-93 \u00b0C"}}