{"cas_no": "20780-54-5", "cn_name": "(S)-\u73af\u6c27\u82ef\u4e59\u70f7", "en_name": ["(S)-Styrene oxide", "Oxirane, 2-phenyl-, (2S)-", "Benzene, (epoxyethyl)-, (S)-", "Oxirane, phenyl-, (S)-", "Oxirane, phenyl-, (2S)-", "(2S)-2-Phenyloxirane", "(S)-(-)-Phenylepoxyethane", "(S)-Styrene oxide", "(S)-(-)-Styrene oxide", "(S)-Phenyloxirane", "(S)-Phenylethylene oxide", "(-)-Styrene oxide", "(S)-(-)-Phenyloxirane", "(S)-Styrene 7,8-oxide", "(-)-Phenyloxirane", "(S)-Epoxystyrene", "(2S)-Phenyloxirane", "(2S)-2-Phenyloxirane"], "SMILES": "C1(CO1)C2=CC=CC=C2", "physical_data": {"Molecular Weight": "120.15", "Molecular Formula": "C8H8O", "Boiling Point": "88-89 \u00b0C @ Press: 19 Torr"}}