{"cas_no": "20780-74-9", "cn_name": "7-\u6eb4\u975b\u7ea2", "en_name": ["7-Bromoisatin", "1H-Indole-2,3-dione, 7-bromo-", "Indole-2,3-dione, 7-bromo-", "Isatin, 7-bromo-", "7-Bromo-1H-indole-2,3-dione", "7-Bromoisatin", "7-Bromoindoline-2,3-dione", "7-Bromoindole-2,3-dione", "7-Bromo-2,3-dioxoindoline"], "SMILES": "O=C1C=2C(=C(Br)C=CC2)NC1=O", "physical_data": {"Molecular Weight": "226.03", "Molecular Formula": "C8H4BrNO2", "Melting Point": "203-204 \u00b0C"}}