{"cas_no": "20784-50-3", "cn_name": "\u8865\u9aa8\u8102\u4e59\u7d20", "en_name": ["Isobavachalcone", "2-Propen-1-one, 1-[2,4-dihydroxy-3-(3-methyl-2-buten-1-yl)phenyl]-3-(4-hydroxyphenyl)-, (2E)-", "Chalcone, 2\u2032,4,4\u2032-trihydroxy-3\u2032-(3-methyl-2-butenyl)-", "2-Propen-1-one, 1-[2,4-dihydroxy-3-(3-methyl-2-butenyl)phenyl]-3-(4-hydroxyphenyl)-, (E)-", "2-Propen-1-one, 1-[2,4-dihydroxy-3-(3-methyl-2-butenyl)phenyl]-3-(4-hydroxyphenyl)-, (2E)-", "(2E)-1-[2,4-Dihydroxy-3-(3-methyl-2-butenyl)phenyl]-3-(4-hydroxyphenyl)-2-propen-1-one", "Isobavachalcone", "Corylifolinin", "Isobacachalcone", "4-Hydroxyisocordoin"], "SMILES": "C(C=CC1=CC=C(O)C=C1)(=O)C2=C(O)C(CC=C(C)C)=C(O)C=C2", "physical_data": {"Molecular Weight": "324.37", "Molecular Formula": "C20H20O4", "Melting Point": "156.8-157.8 \u00b0C"}}