{"cas_no": "20788-07-2", "cn_name": "\u96f7\u7410\u592a\u5c14", "en_name": ["Resorantel", "Benzamide, N-(4-bromophenyl)-2,6-dihydroxy-", "\u03b3-Resorcylanilide, 4\u2032-bromo-", "N-(4-Bromophenyl)-2,6-dihydroxybenzamide", "Terenol", "4\u2032-Bromo-2,6-dihydroxybenzanilide", "Resorantel", "4\u2032-Bromo-\u03b3-resorcylanilide", "2,6-Dihydroxybenzoic acid 4\u2032-bromanilide", "Resorcylam", "HOE 296V"], "SMILES": "C(NC1=CC=C(Br)C=C1)(=O)C2=C(O)C=CC=C2O", "physical_data": {"Molecular Weight": "308.13", "Molecular Formula": "C13H10BrNO3", "Melting Point": "229 \u00b0C"}}