{"cas_no": "20780-78-3", "cn_name": "7-\u7898\u5432\u54da\u6ee1\u4e8c\u916e", "en_name": ["7-Iodoisatin", "1H-Indole-2,3-dione, 7-iodo-", "Indole-2,3-dione, 7-iodo-", "Isatin, 7-iodo-", "7-Iodo-1H-indole-2,3-dione", "7-Iodoisatin", "7-Iodoindoline-2,3-dione"], "SMILES": "O=C1C=2C(=C(I)C=CC2)NC1=O", "physical_data": {"Molecular Weight": "273.03", "Molecular Formula": "C8H4INO2", "Melting Point": "209 \u00b0C"}}