{"cas_no": "20780-49-8", "cn_name": "\u4e59\u9178-3,7-\u4e8c\u7532\u57fa\u8f9b\u916f", "en_name": ["3,7-Dimethyloctyl acetate", "1-Octanol, 3,7-dimethyl-, 1-acetate", "1-Octanol, 3,7-dimethyl-, acetate", "Tetrahydrogeranyl acetate", "Dihydrocitronellyl acetate", "3,7-Dimethyloctyl acetate", "Dimethyl octanyl acetate"], "SMILES": "C(CCCC(C)C)(CCOC(C)=O)C", "physical_data": {"Molecular Weight": "200.32", "Molecular Formula": "C12H24O2", "Boiling Point": "104-108 \u00b0C @ Press: 12 Torr", "Density": "0.8659 g/cm\u00b3 @ Temp: 20 \u00b0C"}}