{"cas_no": "20781-21-9", "cn_name": "2,4-\u4e8c\u7532\u6c27\u57fa\u82c4\u80fa\u76d0\u9178\u76d0", "en_name": ["Benzenemethanamine, 2,4-dimethoxy-, hydrochloride (1:1)", "Benzenemethanamine, 2,4-dimethoxy-, hydrochloride (1:1)", "Benzylamine, 2,4-dimethoxy-, hydrochloride", "Benzenemethanamine, 2,4-dimethoxy-, hydrochloride", "2,4-Dimethoxybenzylamine hydrochloride", "(2,4-Dimethoxyphenyl)methanamine hydrochloride"], "SMILES": "O(C)C1=C(CN)C=CC(OC)=C1.Cl", "physical_data": {"Molecular Weight": "", "Molecular Formula": "C9H13NO2.ClH", "Melting Point": "189-191 \u00b0C"}}