{"cas_no": "2078-54-8", "cn_name": "\u4e19\u6cca\u915a", "en_name": ["Propofol", "Phenol, 2,6-bis(1-methylethyl)-", "Phenol, 2,6-diisopropyl-", "2,6-Bis(1-methylethyl)phenol", "2,6-Diisopropylphenol", "ICI 35868", "Diprivan", "Propofol", "2,6-Bis(isopropyl)phenol", "PD 18215", "Diprivan 10", "Disoprivan", "Recofol", "Diprofol", "Diprifusor", "Propofol-lipuro", "Rapinovet", "NSC 5105", "Ampofol", "Ivofol", "Disoprofol", "Pofol", "Pronest", "Propovan", "Fresofol", "Aquafol", "Vetofol", "Anepol", "PropVet", "Plofed", "Propoclear", "2,6-Di(propan-2-yl)phenol", "Propolipid"], "SMILES": "C(C)(C)C1=C(O)C(C(C)C)=CC=C1", "physical_data": {"Molecular Weight": "178.27", "Molecular Formula": "C12H18O", "Boiling Point": "242 \u00b0C", "Melting Point": "18 \u00b0C", "Density": "1.540 g/cm\u00b3 @ Temp: 20 \u00b0C"}}