{"cas_no": "20784-60-5", "cn_name": "4'-O-\u7532\u57fa\u8865\u9aa8\u8102\u67e5\u5c14\u916e", "en_name": ["4\u2032-O-Methylbavachalcone", "2-Propen-1-one, 1-[2-hydroxy-4-methoxy-5-(3-methyl-2-buten-1-yl)phenyl]-3-(4-hydroxyphenyl)-, (2E)-", "Chalcone, 2\u2032,4-dihydroxy-4\u2032-methoxy-5\u2032-(3-methyl-2-butenyl)-", "2-Propen-1-one, 1-[2-hydroxy-4-methoxy-5-(3-methyl-2-butenyl)phenyl]-3-(4-hydroxyphenyl)-, (E)-", "(2E)-1-[2-Hydroxy-4-methoxy-5-(3-methyl-2-buten-1-yl)phenyl]-3-(4-hydroxyphenyl)-2-propen-1-one", "4\u2032-O-Methylbavachalcone", "4\u2032-O-Methylbroussochalcone B"], "SMILES": "C(C=C(C)C)C1=C(OC)C=C(O)C(C(C=CC2=CC=C(O)C=C2)=O)=C1", "physical_data": {"Molecular Weight": "338.40", "Molecular Formula": "C21H22O4", "Melting Point": "169.9-170.1 \u00b0C"}}