{"cas_no": "2078-71-9", "cn_name": "\u03b2-\u7f9f\u4e59\u57fa\u8132", "en_name": ["(2-Hydroxyethyl)urea", "Urea, N-(2-hydroxyethyl)-", "Urea, (2-hydroxyethyl)-", "N-(2-Hydroxyethyl)urea", "Monoethylolurea", "N-(\u03b2-Hydroxyethyl)urea", "(2-Hydroxyethyl)urea", "(\u03b2-Hydroxyethyl)urea", "Monoethanolurea", "1-(2-Hydroxyethyl)urea", "NSC 1127", "Hydrovance"], "SMILES": "N(C(N)=O)CCO", "physical_data": {"Molecular Weight": "104.11", "Molecular Formula": "C3H8N2O2", "Melting Point": "94-95 \u00b0C"}}