{"cas_no": "20780-76-1", "cn_name": "5-\u7898\u5432\u54da\u918c", "en_name": ["5-Iodoisatin", "1H-Indole-2,3-dione, 5-iodo-", "Indole-2,3-dione, 5-iodo-", "Isatin, 5-iodo-", "5-Iodo-1H-indole-2,3-dione", "5-Iodoisatin", "NSC 92515", "5-Iodoindoline-2,3-dione"], "SMILES": "O=C1C=2C(NC1=O)=CC=C(I)C2", "physical_data": {"Molecular Weight": "273.03", "Molecular Formula": "C8H4INO2", "Melting Point": "264-265 \u00b0C"}}