{"cas_no": "20780-53-4", "cn_name": "(R)-\u73af\u6c27\u82ef\u4e59\u70f7", "en_name": ["(+)-Styrene oxide", "Oxirane, 2-phenyl-, (2R)-", "Benzene, (epoxyethyl)-, (R)-(+)-", "Oxirane, phenyl-, (R)-", "Oxirane, phenyl-, (2R)-", "(2R)-2-Phenyloxirane", "(+)-(R)-Styrene oxide", "(+)-Styrene oxide", "(R)-(+)-Phenyloxirane", "(R)-Phenylethylene oxide", "(R)-Styrene 7,8-oxide", "(+)-Phenyloxirane", "(R)-(+)-Styrene oxide", "(R)-Epoxystyrene", "(R)-Phenyloxirane", "(2R)-Phenyloxirane", "(R)-Styrene oxide", "(R)-(+)-Styrene epoxide", "(R)-2-Phenyloxirane", "(R)-2-Phenyloxirane"], "SMILES": "C1(CO1)C2=CC=CC=C2", "physical_data": {"Molecular Weight": "120.15", "Molecular Formula": "C8H8O", "Boiling Point": "85-120 \u00b0C @ Press: 24 Torr", "Melting Point": "120-123 \u00b0C"}}