{"cas_no": "20795-51-1", "cn_name": "1-\u82ef\u57fa\u620a-3-\u916e", "en_name": ["1-Phenyl-3-pentanone", "3-Pentanone, 1-phenyl-", "1-Phenyl-3-pentanone", "Ethyl phenethyl ketone"], "SMILES": "C(CC(CC)=O)C1=CC=CC=C1", "physical_data": {"Molecular Weight": "162.23", "Molecular Formula": "C11H14O", "Boiling Point": "124 \u00b0C @ Press: 14 Torr"}}