{"cas_no": "2079-00-7", "cn_name": "\u5e03\u62c9\u53f6\u65af", "en_name": ["Blasticidin S", "\u03b2-D-erythro-Hex-2-enopyranuronic acid, 4-[[(3S)-3-amino-5-[(aminoiminomethyl)methylamino]-1-oxopentyl]amino]-1-(4-amino-2-oxo-1(2H)-pyrimidinyl)-1,2,3,4-tetradeoxy-", "Blasticidin S", "D-erythro-Hex-2-enopyranuronic acid, 4-[3-amino-5-(1-methylguanidino)valeramido]-1-(4-amino-2-oxo-1(2H)-pyrimidinyl)-1,2,3,4-tetradeoxy-", "4-[[(3S)-3-Amino-5-[(aminoiminomethyl)methylamino]-1-oxopentyl]amino]-1-(4-amino-2-oxo-1(2H)-pyrimidinyl)-1,2,3,4-tetradeoxy-\u03b2-D-erythro-hex-2-enopyranuronic acid", "Bla-S"], "SMILES": "O=C1N(C2OC(C(O)=O)C(NC(CC(CCN(C(=N)N)C)N)=O)C=C2)C=CC(N)=N1", "physical_data": {"Molecular Weight": "422.44", "Molecular Formula": "C17H26N8O5", "Melting Point": "235-236 \u00b0C (decomp)"}}