{"cas_no": "2079-95-0", "cn_name": "\u6b63\u5341\u56db\u70f7\u57fa\u786b\u9187", "en_name": ["1-Tetradecanethiol", "1-Tetradecanethiol", "Tetradecyl mercaptan", "1-Mercaptotetradecane", "Myristyl mercaptan", "n-Tetradecylmercaptan", "NSC 57865", "n-Tetradecyl thiolate", "1-Tetradecylthiol"], "SMILES": "C(CCCCCCC)CCCCCCS", "physical_data": {"Molecular Weight": "230.45", "Molecular Formula": "C14H30S", "Boiling Point": "176-180 \u00b0C", "Melting Point": "89-90 \u00b0C", "Density": "0.8484 g/cm\u00b3"}}