{"cas_no": "20795-53-3", "cn_name": "3-\u82ef\u57fa\u73af\u5df1\u916e", "en_name": ["3-Phenylcyclohexanone", "Cyclohexanone, 3-phenyl-", "3-Phenylcyclohexanone", "(\u00b1)-3-Phenylcyclohexanone", "NSC 119037"], "SMILES": "O=C1CC(CCC1)C2=CC=CC=C2", "physical_data": {"Molecular Weight": "174.24", "Molecular Formula": "C12H14O", "Boiling Point": "169-169.5 \u00b0C @ Press: 18 Torr", "Melting Point": "64 \u00b0C"}}