{"cas_no": "208-96-8", "cn_name": "\u82ca\u70ef", "en_name": ["Acenaphthylene", "Acenaphthylene", "Cyclopenta[de]naphthalene", "NSC 59821"], "SMILES": "C12=C3C=CC1=CC=CC2=CC=C3", "physical_data": {"Molecular Weight": "152.19", "Molecular Formula": "C12H8", "Boiling Point": "265-275 \u00b0C", "Melting Point": "92-93 \u00b0C", "Density": "0.8988 g/cm\u00b3 @ Temp: 16 \u00b0C"}}