{"cas_no": "2081-44-9", "cn_name": "\u56db\u6c22\u5421\u5583-4-\u9187", "en_name": ["Tetrahydro-2H-pyran-4-ol", "2H-Pyran-4-ol, tetrahydro-", "Pyran-4-ol, tetrahydro-", "Tetrahydro-2H-pyran-4-ol", "4-Hydroxytetrahydropyran", "Tetrahydro-4-pyranol", "Tetrahydro-2H-pyranol-4-ol", "4-Hydroxytetrahydro-2H-pyran", "Oxan-4-ol"], "SMILES": "OC1CCOCC1", "physical_data": {"Molecular Weight": "102.13", "Molecular Formula": "C5H10O2", "Boiling Point": "60.5 \u00b0C @ Press: 0.7 Torr", "Density": "1.0776 g/cm\u00b3 @ Temp: 12.5 \u00b0C"}}