{"cas_no": "20816-79-9", "cn_name": "1-\u6eb4-8-\u6c2f\u8418", "en_name": ["1-Bromo-8-chloronaphthalene", "Naphthalene, 1-bromo-8-chloro-", "1-Bromo-8-chloronaphthalene"], "SMILES": "BrC=1C2=C(C=CC=C2Cl)C=CC1", "physical_data": {"Molecular Weight": "241.51", "Molecular Formula": "C10H6BrCl", "Boiling Point": "150-160 \u00b0C @ Press: 5-6 Torr", "Melting Point": "87-88 \u00b0C"}}