{"cas_no": "20816-12-0", "cn_name": "\u9507\u9178", "en_name": ["Osmium tetroxide", "Osmium oxide (OsO4), (T-4)-", "Osmium oxide (OsO4)", "Osmium tetroxide", "Osmium tetraoxide", "Milas' reagent", "Osmium(IV) oxide", "Osmium oxide", "Tetraoxoosmium", "Reagents, Milas'", "MeSH ID: D009993"], "SMILES": "[Os](=O)(=O)(=O)=O", "physical_data": {"Molecular Weight": "", "Molecular Formula": "O4Os", "Boiling Point": "130.0 \u00b0C @ Press: 760 Torr", "Melting Point": "40.6 \u00b0C", "Density": "4.9 g/cm\u00b3"}}