{"cas_no": "20824-29-7", "cn_name": "\u5f02\u80e1\u8c46\u82f7", "en_name": ["Strictosidine", "2H-Pyran-5-carboxylic acid, 3-ethenyl-2-(\u03b2-D-glucopyranosyloxy)-3,4-dihydro-4-[[(1S)-2,3,4,9-tetrahydro-1H-pyrido[3,4-b]indol-1-yl]methyl]-, methyl ester, (2S,3R,4S)-", "Strictosidine", "2H-Pyran-5-carboxylic acid, 3-ethenyl-2-(\u03b2-D-glucopyranosyloxy)-3,4-dihydro-4-[(2,3,4,9-tetrahydro-1H-pyrido[3,4-b]indol-1-yl)methyl]-, methyl ester, [2S-[2\u03b1,3\u03b2,4\u03b2(R*)]]-", "1H-Pyrido[3,4-b]indole, 2H-pyran-5-carboxylic acid deriv.", "Isovincoside", "3-Isovincoside", "Strictosidin", "3\u03b1(S)-Strictosidine", "(-)-Strictosidine"], "SMILES": "C(C1C2=C(C=3C(N2)=CC=CC3)CCN1)C4C(C=C)C(OC5OC(CO)C(O)C(O)C5O)OC=C4C(OC)=O", "physical_data": {"Molecular Weight": "530.57", "Molecular Formula": "C27H34N2O9", "Melting Point": "161-165 \u00b0C"}}