{"cas_no": "2082-76-0", "cn_name": "\u6b63\u7678\u9178\u9150", "en_name": ["Decanoic anhydride", "Decanoic acid, 1,1\u2032-anhydride", "Decanoic anhydride", "Decanoic acid, anhydride", "Capric anhydride", "Caprinic anhydride"], "SMILES": "O(C(CCCCCCCCC)=O)C(CCCCCCCCC)=O", "physical_data": {"Molecular Weight": "326.51", "Molecular Formula": "C20H38O3", "Boiling Point": "125-140 \u00b0C", "Melting Point": "24.7 \u00b0C", "Density": "0.8596 g/cm\u00b3 @ Temp: 70 \u00b0C"}}