{"cas_no": "20829-55-4", "cn_name": "CYCLO(-TRP-TRP)", "en_name": ["Cyclo-L-Trp-L-Trp", "2,5-Piperazinedione, 3,6-bis(1H-indol-3-ylmethyl)-, (3S,6S)-", "2,5-Piperazinedione, 3,6-bis(indol-3-ylmethyl)-, (3S,6S)-", "2,5-Piperazinedione, 3,6-bis(1H-indol-3-ylmethyl)-, (3S-cis)-", "(3S,6S)-3,6-Bis(1H-indol-3-ylmethyl)-2,5-piperazinedione", "Cyclic dioxopiperazine-L-tryptophan-L-tryptophan", "Cyclic L-tryptophanyl-L-tryptophan", "Cyclic diketopiperazine-L-tryptophyl-L-tryptophan", "Cyclo-L-Trp-L-Trp", "Cyclo(L-tryptophanyl-L-tryptophan)", "Cyclo-ditryptophan"], "SMILES": "C(C=1C=2C(NC1)=CC=CC2)C3C(=O)NC(CC=4C=5C(NC4)=CC=CC5)C(=O)N3", "physical_data": {"Molecular Weight": "372.42", "Molecular Formula": "C22H20N4O2", "Melting Point": "242 \u00b0C"}}