{"cas_no": "20829-97-4", "cn_name": "5-\u785d\u57fa-1H-\u82ef\u5e76[D][1,3]\u6076\u55ea-2,4-\u4e8c\u916e", "en_name": ["6-Nitroisatoic anhydride", "2H-3,1-Benzoxazine-2,4(1H)-dione, 5-nitro-", "5-Nitro-2H-3,1-benzoxazine-2,4(1H)-dione", "6-Nitroisatoic anhydride"], "SMILES": "N(=O)(=O)C1=C2C(NC(=O)OC2=O)=CC=C1", "physical_data": {"Molecular Weight": "208.13", "Molecular Formula": "C8H4N2O5", "Melting Point": "215 \u00b0C"}}