{"cas_no": "20826-03-3", "cn_name": "5-\u7532\u6c27\u57fa\u70df\u9178", "en_name": ["5-Methoxynicotinic acid", "3-Pyridinecarboxylic acid, 5-methoxy-", "Nicotinic acid, 5-methoxy-", "5-Methoxy-3-pyridinecarboxylic acid", "5-Methoxypyridine-3-carboxylic acid", "5-Methoxynicotinic acid"], "SMILES": "C(O)(=O)C=1C=C(OC)C=NC1", "physical_data": {"Molecular Weight": "153.14", "Molecular Formula": "C7H7NO3", "Melting Point": "228-229 \u00b0C"}}