{"cas_no": "2082-81-7", "cn_name": "1,4-\u4e01\u4e8c\u9187\u4e8c\u7532\u57fa\u4e19\u70ef\u9178\u916f", "en_name": ["Butanediol dimethacrylate", "2-Propenoic acid, 2-methyl-, 1,1\u2032-(1,4-butanediyl) ester", "Methacrylic acid, tetramethylene ester", "2-Propenoic acid, 2-methyl-, 1,4-butanediyl ester", "1,4-Butanediol, dimethacrylate", "1,4-Butylene dimethacrylate", "Tetramethylene glycol dimethacrylate", "Oligotetramethylene glycol dimethacrylate", "Butanediol dimethacrylate", "Tetramethylene dimethacrylate", "1,4-Butylene glycol dimethacrylate", "Tetramethylene methacrylate", "DMM 4", "1,4-Tetramethylene dimethacrylate", "NK Ester BD", "BDMA", "BDDMA", "SR 214B", "SR 214E", "Light Ester 1.4BG", "Sartomer 214", "SR 214", "Mhoromer MFM 405", "n-Butane-1,4-diyl dimethacrylate", "Visiomer 1,4-BDDMA", "Butane-1,4-diyl bis(2-methylacrylate)"], "SMILES": "O(C(C(C)=C)=O)CCCCOC(C(C)=C)=O", "physical_data": {"Molecular Weight": "226.27", "Molecular Formula": "C12H18O4", "Boiling Point": "110 \u00b0C @ Press: 3 Torr", "Melting Point": "226.28 \u00b0C", "Density": "1.011 g/cm\u00b3 @ Temp: 25 \u00b0C"}}