{"cas_no": "2082-59-9", "cn_name": "\u620a\u9178\u9150", "en_name": ["Valeric anhydride", "Pentanoic acid, 1,1\u2032-anhydride", "Valeric anhydride", "Pentanoic acid, anhydride", "Pentanoic anhydride", "Valeryl anhydride", "Valeric acid anhydride", "n-Valeric anhydride"], "SMILES": "C(OC(CCCC)=O)(CCCC)=O", "physical_data": {"Molecular Weight": "186.25", "Molecular Formula": "C10H18O3", "Boiling Point": "227 \u00b0C", "Melting Point": "-56.1 \u00b0C"}}