{"cas_no": "2082-84-0", "cn_name": "\u5341\u70f7\u57fa\u4e09\u7532\u57fa\u6eb4\u5316\u94f5", "en_name": ["Decyltrimethylammonium bromide", "1-Decanaminium, N,N,N-trimethyl-, bromide (1:1)", "Ammonium, decyltrimethyl-, bromide", "1-Decanaminium, N,N,N-trimethyl-, bromide", "Decyltrimethylammonium bromide", "n-Decyltrimethylammonium bromide", "N,N,N-Trimethyl-1-decanaminium bromide", "N,N,N-Trimethyldecylammonium bromide", "DTAB", "FSM 20", "Trimethyldecylammonium bromide", "DeTAB", "N-Decyl-N,N,N-trimethylammonium bromide"], "SMILES": "C(CCCCCCCC)C[N+](C)(C)C.[Br-]", "physical_data": {"Molecular Weight": "", "Molecular Formula": "C13H30N.Br", "Melting Point": "233-235 \u00b0C"}}