{"cas_no": "20826-04-4", "cn_name": "5-\u6eb4\u70df\u9178", "en_name": ["5-Bromonicotinic acid", "3-Pyridinecarboxylic acid, 5-bromo-", "Nicotinic acid, 5-bromo-", "5-Bromo-3-pyridinecarboxylic acid", "5-Bromonicotinic acid", "3-Carboxy-5-bromopyridine", "NSC 9461", "5-Bromopyridinyl-3-carboxylic acid", "5-Bromo-3-pyridincarboxylic acid"], "SMILES": "C(O)(=O)C=1C=C(Br)C=NC1", "physical_data": {"Molecular Weight": "202.01", "Molecular Formula": "C6H4BrNO2", "Melting Point": "182-183 \u00b0C"}}