{"cas_no": "2082-80-6", "cn_name": "\u4e9a\u78f7\u9178\u4e09(\u5341\u516b\u70f7\u57fa)\u8102", "en_name": ["Tristearyl phosphite", "Phosphorous acid, trioctadecyl ester", "Octadecyl phosphite ((C18H37O)3P)", "Trioctadecyl phosphite", "Tristearyl phosphite", "Tris(octadecyl) phosphite", "JP 318", "Weston TSP", "JP 318E", "Chelex S", "NSC 65487", "ADK Stab 3012"], "SMILES": "P(OCCCCCCCCCCCCCCCCCC)(OCCCCCCCCCCCCCCCCCC)OCCCCCCCCCCCCCCCCCC", "physical_data": {"Molecular Weight": "839.43", "Molecular Formula": "C54H111O3P", "Melting Point": "40 \u00b0C"}}