{"cas_no": "2082-79-3", "cn_name": "\u6297\u6c27\u52421076", "en_name": ["Antioxidant 1076", "Benzenepropanoic acid, 3,5-bis(1,1-dimethylethyl)-4-hydroxy-, octadecyl ester", "Hydrocinnamic acid, 3,5-di-tert-butyl-4-hydroxy-, octadecyl ester", "Irganox 1076", "Octadecyl 3,5-di-tert-butyl-4-hydroxyhydrocinnamate", "Octadecyl \u03b2-(3,5-di-tert-butyl-4-hydroxyphenyl)propionate", "Octadecyl \u03b2-(4\u2032-hydroxy-3\u2032,5\u2032-di-tert-butylphenyl)propionate", "2,6-Di-tert-butyl-4-[[(octadecyloxy)carbonyl]ethyl]phenol", "Octadecyl 3,5-di-tert-butyl-4-hydroxyphenylpropionate", "Stearyl \u03b2-(3,5-di-tert-butyl-4-hydroxyphenyl)propionate", "Octadecyl \u03b2-(3,5-tert-butyl-4-hydroxyphenyl)propionate", "Octadecyl 3-(3,5-di-tert-butyl-4-hydroxyphenyl)propionate", "Stearyl 3,5-di-tert-butyl-4-hydroxyhydrocinnamate", "4-Carboxyethyl)-2,6-di-tert-butyl-1-hydroxybenzene stearyl ester", "Octadecyl-3-(3\u2032,5\u2032-di-tert-butyl-4\u2032-hydroxyphenyl)propionate", "3,5-Di-tert-butyl-4-hydroxyphenylpropionic acid octadecyl ester", "2,6-Di-tert-butyl-4-(octadecanoxycarbonylethyl)phenol", "n-Octadecyl \u03b2-(3,5-di-tert-butyl-4-hydroxyphenyl)propionate", "3-(3,5-Di-tert-butyl-4-hydroxyphenyl)propionic acid octadecyl ester", "3-(3,5-Di-tert-butyl-4-hydroxyphenol)propionic acid octadecyl ester", "Stearyl 3-(3,5-di-tert-butyl-4-hydroxyphenyl)propionate", "Octadecyl-3-(3\u2032,5\u2032-di-tert-butyl-4\u2032-hydroxyphenyl)propenoate", "Octadecyl \u03b2-(4-hydroxy-3,5-di-tert-butylphenyl)propionate", "Octadecyl 3,5-di-tert-butyl-4-oxyphenylpropionate", "Octadecyl 3-(3\u2032,5\u2032-di-tert-butyl-4-hydroxyphenyl) propionate", "n-Octadecyl \u03b2-(4\u2032-hydroxy-3\u2032,5\u2032-di-tert-butylphenyl)propionate", "Antioxidant 1076", "AO 4", "Irganox 1906", "Octadecyl 3-(4-hydroxy-3,5-di-tert-butylphenyl)propionate", "Mark AO 50", "U 276", "Octadecyl 3,5-bis(1,1-dimethylethyl)-4-hydroxyphenylpropanoate", "Naugard 76", "Sumilizer BP 76", "E 376", "I 1076", "IR 1076", "Irganox 1976", "Ralox 530", "Anox PP 18", "n-Octadecyl 3-(3,5-di-tert-butyl-4-hydroxyphenyl)propionate", "ADK Stab AO 50", "Irganox L 107", "Octadecyl 3-(4\u2032-hydroxy-3\u2032,5\u2032-di-tert-butylphenyl)propionate", "Irganox I 1076", "n-Octadecyl 3,5-di-tert-butyl-4-hydroxyhydrocinnamate", "Ultranox 276", "Octadecyl 3-[3,5-Bis(1,1-dimethylethyl)-4-hydroxybenzene]propionate", "n-Octadecyl-3-(3\u2032,5\u2032-di-tert-butyl-4\u2032-hydroxyphenyl)propionate", "Tominokusu SS", "Tominox SS", "IX 1076", "Selosol F 773", "Arenox A 76", "Irganox 1068", "Hostanox O 16", "O 16", "Hostanox M 016", "n-Octadecyl 3-(4\u2032-hydroxy-3\u2032,5\u2032-di-tert-butylphenyl)propionate", "AT 76", "L 107", "Octadecanyl \u03b2-(3,5-di-tert-butyl-4-hydroxyphenyl)propionate", "AO 50", "M 4", "Quantox 1076", "Irgastab PVC 76", "Irganox 1076DWJ", "Hostanox 016", "Songnox 1076", "Addiox 1016", "Tinogard TS", "JY 1076", "KY 1076", "Sonox 1076", "Chinox 1076", "Chemnox 1076", "HG 1076", "Irganox 1096", "Antioxidant 1016", "3-(3,5-Di-tert-butyl-4-hydroxyphenyl)propionic acid stearyl ester", "AO 1076", "Adeka Stab AO 50", "Antioxidant 1068", "Octadecyl 3-(3,5-bis(1,1-dimethylethyl)-4-hydroxyphenyl)propionate", "Antioxidant 1081", "\u03b2-(3,5-Di-tert-butyl-4-hydroxyphenyl)propionic acid octadecyl ester", "Octadecyl 3-(3,5-bis-tert-butyl-4-hydroxyphenyl)propanoate", "Octadecyl 3-(3,5-di-tert-butyl-4-hydroxyphenyl) propionate", "\u03b2-(3,5-Di-tert-butyl-4-hydroxyphenyl)propionic acid n-octadecyl alcohol ester", "2,6-Di-tert-butyl-4-[(2-octadecyloxycarbonyl)ethyl]phenol", "\u03b2-(3,5-Di-tert-butyl-4-hydroxyphenyl)propanoic acid n-octadecyl ester", "Octadecyl 3-(3,5-di-tert-butyl-4-hydroxyphenyl)propanoate", "Jyanox 1076", "\u03b2-(4-Hydroxy-3,5-di-tert-butylphenyl)propanoic acid n-octadecyl ester", "AT 1076", "Dovernox 76", "3,5-Bis(1,1-dimethylethyl)-4-hydroxybenzenepropanoic acid octadecyl ester", "B 65227", "SK 1076", "Chemnox B 201", "BC 1076", "Rianox 1076"], "SMILES": "C(CC(OCCCCCCCCCCCCCCCCCC)=O)C1=CC(C(C)(C)C)=C(O)C(C(C)(C)C)=C1", "physical_data": {"Molecular Weight": "530.86", "Molecular Formula": "C35H62O3", "Melting Point": "49-50 \u00b0C"}}