{"cas_no": "208245-76-5", "cn_name": "1,4-\u4e8c\u6c2e\u6742-5-\u73af\u5e9a\u916e\u76d0\u9178\u76d0", "en_name": ["5H-1,4-Diazepin-5-one, hexahydro-, hydrochloride (1:1)", "5H-1,4-Diazepin-5-one, hexahydro-, hydrochloride (1:1)", "5H-1,4-Diazepin-5-one, hexahydro-, monohydrochloride", "1,4-Diazepan-5-one hydrochloride"], "SMILES": "O=C1CCNCCN1.Cl", "physical_data": {"Molecular Weight": "", "Molecular Formula": "C5H10N2O.ClH", "Melting Point": "223-225 \u00b0C"}}