{"cas_no": "20834-59-7", "cn_name": "\u03b1,\u03b1,4-\u4e09\u7532\u57fa\u82ef\u4e59\u9187", "en_name": ["\u03b1,\u03b1,4-Trimethylbenzeneethanol", "Benzeneethanol, \u03b1,\u03b1,4-trimethyl-", "Phenethyl alcohol, p,\u03b1,\u03b1-trimethyl-", "\u03b1,\u03b1,4-Trimethylbenzeneethanol", "1,1-Dimethyl-2-(4-methylphenyl)ethanol", "2-Methyl-1-p-tolylpropan-2-ol", "2-Methyl-1-(4-methylphenyl)propan-2-ol", "2-p-Methylbenzyl-2-propanol"], "SMILES": "C(C(C)(C)O)C1=CC=C(C)C=C1", "physical_data": {"Molecular Weight": "164.24", "Molecular Formula": "C11H16O", "Boiling Point": "102 \u00b0C @ Press: 8 Torr", "Melting Point": "40-41 \u00b0C"}}