{"cas_no": "20830-81-3", "cn_name": "\u67d4\u7ea2\u9709\u7d20", "en_name": ["Daunorubicin", "5,12-Naphthacenedione, 8-acetyl-10-[(3-amino-2,3,6-trideoxy-\u03b1-L-lyxo-hexopyranosyl)oxy]-7,8,9,10-tetrahydro-6,8,11-trihydroxy-1-methoxy-, (8S,10S)-", "Daunomycin", "5,12-Naphthacenedione, 8-acetyl-10-[(3-amino-2,3,6-trideoxy-\u03b1-L-lyxo-hexopyranosyl)oxy]-7,8,9,10-tetrahydro-6,8,11-trihydroxy-1-methoxy-, (8S-cis)-", "(8S,10S)-8-Acetyl-10-[(3-amino-2,3,6-trideoxy-\u03b1-L-lyxo-hexopyranosyl)oxy]-7,8,9,10-tetrahydro-6,8,11-trihydroxy-1-methoxy-5,12-naphthacenedione", "Rubomycin C", "Daunorubicin", "Daunorubicine", "NSC 82151", "RP 13057", "Rubidomycin", "Acetyladriamycin", "Cerubidin", "Leukaemomycin C", "(+)-Daunomycin", "Daunomycine", "DaunoXome", "NSC 83142", "Daunoblastina", "(7S,9S)-9-Acetyl-7-[(2R,4S,5S,6S)-4-amino-5-hydroxy-6-methyloxan-2-yl]oxy-6,9,l 1-trihydroxy-4-methoxy-8,10-dihydro-7H-tetracene-5,12-dione", "FSL 0507", "MeSH ID: D003630"], "SMILES": "OC=1C2=C(C(OC3CC(N)C(O)C(C)O3)CC(C(C)=O)(O)C2)C(O)=C4C1C(=O)C=5C(C4=O)=C(OC)C=CC5", "physical_data": {"Molecular Weight": "527.52", "Molecular Formula": "C27H29NO10", "Melting Point": "208-209 \u00b0C"}}