{"cas_no": "2083-68-3", "cn_name": "\u6b63\u8f9b\u57fa\u4e09\u7532\u57fa\u6eb4\u5316\u94f5", "en_name": ["Octyltrimethylammonium bromide", "1-Octanaminium, N,N,N-trimethyl-, bromide (1:1)", "Ammonium, trimethyloctyl-, bromide", "1-Octanaminium, N,N,N-trimethyl-, bromide", "Trimethyloctylammonium bromide", "Octyltrimethylammonium bromide", "Octalone", "N,N,N-Trimethyl-1-octanaminium bromide", "n-Octyltrimethylammonium bromide", "N-Octyl-N,N,N-trimethylammonium bromide", "C 8TAB", "TrimethylQUAT?"], "SMILES": "C(CCCCCCC)[N+](C)(C)C.[Br-]", "physical_data": {"Molecular Weight": "", "Molecular Formula": "C11H26N.Br", "Boiling Point": "114 \u00b0C @ Press: 5 Torr", "Melting Point": "198-200 \u00b0C"}}