{"cas_no": "20835-91-0", "cn_name": "\u8c46\u753e-3\u0392,5\u0391,6\u0392-\u4e09\u9187", "en_name": ["Stigmastane-3\u03b2,5\u03b1,6\u03b2-triol", "Stigmastane-3,5,6-triol, (3\u03b2,5\u03b1,6\u03b2)-", "5\u03b1-Stigmastane-3\u03b2,5,6\u03b2-triol", "(3\u03b2,5\u03b1,6\u03b2)-Stigmastane-3,5,6-triol", "Stigmastane-3\u03b2,5\u03b1,6\u03b2-triol", "24\u03b1-Ethylcholestane-3\u03b2,5\u03b1,6\u03b2-triol", "(24R)-Stigmastane-3\u03b2,5\u03b1,6\u03b2-triol", "(24R)-Ethylcholestan-3\u03b2,5\u03b1,6\u03b2-triol", "Sitostanetriol", "(24R)-24-Ethyl-5\u03b1-cholestane-3\u03b2,5,6\u03b2-triol", "Sitostane-3\u03b2,5\u03b1,6\u03b2-triol"], "SMILES": "CC12C3C(C4C(C)(CC3)C(C(CCC(C(C)C)CC)C)CC4)CC(O)C1(O)CC(O)CC2", "physical_data": {"Molecular Weight": "448.72", "Molecular Formula": "C29H52O3", "Melting Point": "224-226.5 \u00b0C"}}