{"cas_no": "20838-44-2", "cn_name": "3-\u785d\u57fa\u82ef \u0392-D-\u5421\u5583\u8461\u7cd6\u82f7", "en_name": ["3-Nitrophenyl \u03b2-D-glucopyranoside", "\u03b2-D-Glucopyranoside, 3-nitrophenyl", "Glucopyranoside, m-nitrophenyl, \u03b2-D-", "3-Nitrophenyl \u03b2-D-glucopyranoside", "m-Nitrophenyl \u03b2-D-glucopyranoside", "\u03b2-[m-Nitrophenyl]-D-glucopyranoside", "3-Nitrophenyl \u03b2-D-glucoside"], "SMILES": "O(C1C(O)C(O)C(O)C(CO)O1)C2=CC(N(=O)=O)=CC=C2", "physical_data": {"Molecular Weight": "301.25", "Molecular Formula": "C12H15NO8", "Melting Point": "171-172 \u00b0C"}}