{"cas_no": "20834-61-1", "cn_name": "2-\u6eb4-4,6-\u4e8c-\u53d4-\u4e01\u57fa\u82ef\u915a", "en_name": ["2-Bromo-4,6-di-tert-butylphenol", "Phenol, 2-bromo-4,6-bis(1,1-dimethylethyl)-", "Phenol, 2-bromo-4,6-di-tert-butyl-", "2-Bromo-4,6-bis(1,1-dimethylethyl)phenol", "2-Bromo-4,6-di-tert-butylphenol", "2-Bromo-4,6-bis(tert-butyl)phenol", "4,6-Di(tert-butyl)-2-bromophenol", "6-Bromo-2,4-tert-butylphenol", "2-Bromo-4,6-ditert-butylphenol"], "SMILES": "C(C)(C)(C)C1=CC(C(C)(C)C)=CC(Br)=C1O", "physical_data": {"Molecular Weight": "285.22", "Molecular Formula": "C14H21BrO", "Boiling Point": "141-142 \u00b0C", "Melting Point": "59-61 \u00b0C"}}