{"cas_no": "2083-09-2", "cn_name": "2,5-\u53cc(4-\u53cc\u82ef\u57fa)\u6076\u5511", "en_name": ["2,5-Bis(4-biphenylyl)oxazole", "Oxazole, 2,5-bis([1,1\u2032-biphenyl]-4-yl)-", "Oxazole, 2,5-bis(4-biphenylyl)-", "2,5-Bis([1,1\u2032-biphenyl]-4-yl)oxazole", "BBO (wavelength shifter)", "2,5-Bis(4-biphenylyl)oxazole", "2,5-Dibiphenyloxazole", "2,5-Bis-p-biphenylyloxazole", "2,5-Bis(4-biphenyl)oxazole", "2,5-Bis(biphenylyl)oxazole", "2,5-Di(4-biphenylyl)oxazole", "2,5-Bis(biphenyl)oxazole", "BBO", "NSC 24863", "2,5-Bis(4-phenylphenyl)-1,3-oxazole"], "SMILES": "C=1(OC(=NC1)C2=CC=C(C=C2)C3=CC=CC=C3)C4=CC=C(C=C4)C5=CC=CC=C5", "physical_data": {"Molecular Weight": "373.45", "Molecular Formula": "C27H19NO", "Melting Point": "242 \u00b0C"}}