{"cas_no": "2083-91-2", "cn_name": "N,N-\u4e8c\u7532\u57fa\u4e09\u7532\u57fa\u7845\u80fa", "en_name": ["(Dimethylamino)trimethylsilane", "Silanamine, N,N,1,1,1-pentamethyl-", "Silylamine, pentamethyl-", "Silanamine, pentamethyl-", "N,N,1,1,1-Pentamethylsilanamine", "N-(Trimethylsilyl)dimethylamine", "(Trimethylsilyl)dimethylamine", "Pentamethylsilylamine", "(Dimethylamino)trimethylsilane", "Trimethyl(dimethylamino)silane", "N,N-Dimethyl-N-(trimethylsilyl)amine", "Pentamethylsilanamine", "N,N-Dimethyl(trimethylsilyl)amine", "N-Methyl-N-(trimethylsilyl)methylamine", "(N,N-Dimethylamino)trimethylsilane", "TSL 8831", "T 0591"], "SMILES": "[Si](N(C)C)(C)(C)C", "physical_data": {"Molecular Weight": "117.26", "Molecular Formula": "C5H15NSi", "Boiling Point": "86 \u00b0C", "Density": "0.741 g/cm\u00b3"}}