{"cas_no": "20831-76-9", "cn_name": "\u9f99\u80c6\u82e6\u82f7", "en_name": ["Gentiopicroside", "1H,3H-Pyrano[3,4-c]pyran-1-one, 5-ethenyl-6-(\u03b2-D-glucopyranosyloxy)-5,6-dihydro-, (5R,6S)-", "Gentiopicrin", "Gentiopicroside", "1H,3H-Pyrano[3,4-c]pyran-1-one, 5-ethenyl-6-(\u03b2-D-glucopyranosyloxy)-5,6-dihydro-, (5R-trans)-", "(5R,6S)-5-Ethenyl-6-(\u03b2-D-glucopyranosyloxy)-5,6-dihydro-1H,3H-pyrano[3,4-c]pyran-1-one", "NSC 606402"], "SMILES": "C(=C)C1C=2C(=COC1OC3OC(CO)C(O)C(O)C3O)C(=O)OCC2", "physical_data": {"Molecular Weight": "356.32", "Molecular Formula": "C16H20O9", "Melting Point": "191 \u00b0C"}}