{"cas_no": "20846-91-7", "cn_name": "\u4e59\u4e8c\u80fa\u4e8c\u7425\u73c0\u9178\u4e09\u94a0", "en_name": ["Ethylenediamine-N,N\u2032-disuccinic acid", "L-Aspartic acid, N,N\u2032-1,2-ethanediylbis-", "Aspartic acid, N,N\u2032-ethylenedi-, L,L-", "Aspartic acid, N,N\u2032-ethylenedi-", "N,N\u2032-1,2-Ethanediylbis[L-aspartic acid]", "N,N\u2032-Ethylenediaminedisuccinic acid", "L-Ethylenediaminedisuccinic acid", "EDSS", "(S,S)-Ethylenediamine-N,N\u2032-disuccinic acid", "N,N\u2032-Ethylenediaspartic acid", "N,N\u2032-Bis(1,2-dicarboxyethyl)ethylenediamine", "(S,S\u2032)-Ethylenediamine-N,N\u2032-disuccinic acid", "(S,S)-Ethylenediaminedisuccinic acid", "[S,S]-EDDS", "(S,S)-Ethylenediaminedisuccinic acid", "Enviomet C 265", "EDDS", "Ethylenediamine-N,N\u2032-disuccinic acid", "Chelest EDDS 4H", "(S,S)-Ethylenediaminesuccinic acid", "[S,S]-Ethylenediamine-N,N\u2032-disuccinic acid", "Natraquest E 30"], "SMILES": "C(CC(O)=O)(C(O)=O)NCCNC(CC(O)=O)C(O)=O", "physical_data": {"Molecular Weight": "292.24", "Molecular Formula": "C10H16N2O8", "Melting Point": "220-222 \u00b0C"}}