{"cas_no": "2084-19-7", "cn_name": "2-\u620a\u786b\u9187", "en_name": ["2-Pentanethiol", "2-Pentanethiol", "1-Methylbutanethiol", "sec-Amylmercaptan", "2-Pentyl mercaptan", "2-Mercaptopentane"], "SMILES": "C(C(C)S)CC", "physical_data": {"Molecular Weight": "104.21", "Molecular Formula": "C5H12S", "Boiling Point": "112.9 \u00b0C", "Melting Point": "-169 \u00b0C"}}