{"cas_no": "2084-28-8", "cn_name": "\u53cd\u5f0f4-\u6c28\u57fa\u73af\u5df1\u57fa\u7532\u9178\u4e59\u916f\u76d0\u9178\u76d0", "en_name": ["Cyclohexanecarboxylic acid, 4-amino-, ethyl ester, hydrochloride (1:1), trans-", "Cyclohexanecarboxylic acid, 4-amino-, ethyl ester, hydrochloride (1:1), trans-", "Cyclohexanecarboxylic acid, 4-amino-, ethyl ester, hydrochloride, trans-", "Ethyl trans-4-aminocyclohexanecarboxylate hydrochloride", "Ethyl trans-4-aminocyclohexanecarboxylate monohydrochloride"], "SMILES": "C(OCC)(=O)C1CCC(N)CC1.Cl", "physical_data": {"Molecular Weight": "", "Molecular Formula": "C9H17NO2.ClH", "Melting Point": "153 \u00b0C"}}