{"cas_no": "20849-78-9", "cn_name": "4-(2-\u6c2f\u4e59\u57fa)\u82ef\u7532\u9178", "en_name": ["4-(2-Chloroethyl)benzoic acid", "Benzoic acid, 4-(2-chloroethyl)-", "Benzoic acid, p-(2-chloroethyl)-", "4-(2-Chloroethyl)benzoic acid", "2-[4-Carboxyphenyl]ethyl chloride"], "SMILES": "C(O)(=O)C1=CC=C(CCCl)C=C1", "physical_data": {"Molecular Weight": "184.62", "Molecular Formula": "C9H9ClO2", "Melting Point": "187-188 \u00b0C"}}