{"cas_no": "20845-34-5", "cn_name": "1-\u7532\u57fa-2-\u54cc\u5576\u7532\u9187", "en_name": ["1-Methyl-2-piperidinemethanol", "2-Piperidinemethanol, 1-methyl-", "1-Methyl-2-piperidinemethanol", "2-Hydroxymethyl-N-methylpiperidine", "(1-Methyl-2-piperidyl)methanol", "N-Methyl-2-piperidinemethanol", "(\u00b1)-2-Hydroxymethyl-1-methylpiperidine", "(1-Methylpiperidin-2-yl)methanol", "2-Hydroxymethyl-1-methylpiperidine", "NSC 45464", "1-Methyl-2-(hydroxymethyl)piperidine"], "SMILES": "C(O)C1N(C)CCCC1", "physical_data": {"Molecular Weight": "129.20", "Molecular Formula": "C7H15NO", "Boiling Point": "96-98 \u00b0C @ Press: 19 Torr"}}