{"cas_no": "20859-02-3", "cn_name": "L-\u53d4\u4eae\u6c28\u9178", "en_name": ["L-tert-Leucine", "L-Valine, 3-methyl-", "Butyric acid, 2-amino-3,3-dimethyl-, L-", "3-Methyl-L-valine", "L-tert-Leucine", "\u03b2-Methyl-L-valine", "L-Pseudoleucine", "(S)-tert-Leucine", "L-2-Amino-3,3-dimethylbutyric acid", "tert-L-Leucine", "(S)-tert-Butylglycine", "L-tert-Butylglycine", "(2S)-2-Amino-3,3-dimethylbutanoic acid", "(S)-2-Amino-3,3-dimethylbutyric acid", "NSC 203785", "tert-Butyl-L-glycine", "(S)-2-Amino-3,3-dimethylbutanoic acid"], "SMILES": "C(C(C)(C)C)(C(O)=O)N", "physical_data": {"Molecular Weight": "131.17", "Molecular Formula": "C6H13NO2", "Melting Point": "252-256 \u00b0C"}}