{"cas_no": "20850-49-1", "cn_name": "3-\u7532\u57fa-2-(3,4-\u4e8c\u7532\u6c27\u57fa\u82ef\u57fa)\u4e01\u8148", "en_name": ["2-(3,4-Dimethoxyphenyl)-3-methylbutanenitrile", "Benzeneacetonitrile, 3,4-dimethoxy-\u03b1-(1-methylethyl)-", "Butyronitrile, 2-(3,4-dimethoxyphenyl)-3-methyl-", "3,4-Dimethoxy-\u03b1-(1-methylethyl)benzeneacetonitrile", "2-(3,4-Dimethoxyphenyl)-3-methylbutyronitrile", "2-(3,4-Dimethoxyphenyl)-2-isopropylacetonitrile", "\u03b1-Isopropylveratryl cyanide", "(\u00b1)-2-(3,4-Dimethoxyphenyl)-3-methylbutanenitrile", "(\u00b1)-3,4-Dimethoxy-\u03b1-isopropylbenzeneacetonitrile", "\u03b1-Isopropylhomoveratronitrile", "Isopropyl(3,4-dimethoxyphenyl)acetonitrile", "2-(3,4-Dimethoxyphenyl)-3-methylbutanenitrile", "3-Methyl-2-(3,4-dimethoxyphenyl)butyronitrile"], "SMILES": "C(C(C)C)(C#N)C1=CC(OC)=C(OC)C=C1", "physical_data": {"Molecular Weight": "219.28", "Molecular Formula": "C13H17NO2", "Boiling Point": "160-166 \u00b0C @ Press: 6 Torr", "Melting Point": "49-51 \u00b0C"}}