{"cas_no": "20859-10-3", "cn_name": "(E)-6-\u7532\u57fa\u5e9a-3-\u70ef-2-\u916e", "en_name": ["(3E)-6-Methyl-3-hepten-2-one", "3-Hepten-2-one, 6-methyl-, (3E)-", "3-Hepten-2-one, 6-methyl-, (E)-", "(3E)-6-Methyl-3-hepten-2-one", "(3E)-6-Methylhept-3-en-2-one", "(E)-6-Methylhept-3-en-2-one"], "SMILES": "C(CC(C)C)=CC(C)=O", "physical_data": {"Molecular Weight": "126.20", "Molecular Formula": "C8H14O", "Boiling Point": "69-70 \u00b0C @ Press: 18 Torr", "Density": "0.8450 g/cm\u00b3 @ Temp: 13 \u00b0C"}}