{"cas_no": "20850-43-5", "cn_name": "\u80e1\u6912\u57fa\u6c2f", "en_name": ["Piperonyl chloride", "1,3-Benzodioxole, 5-(chloromethyl)-", "Toluene, \u03b1-chloro-3,4-(methylenedioxy)-", "5-(Chloromethyl)-1,3-benzodioxole", "Piperonyl chloride", "3,4-(Methylenedioxy)benzyl chloride", "4-Chloromethyl-1,2-methylenedioxybenzene", "Benzo[1,3]dioxol-5-ylmethyl chloride", "NSC 127686", "5-(Chloromethyl)benzodioxole"], "SMILES": "C(Cl)C=1C=C2C(=CC1)OCO2", "physical_data": {"Molecular Weight": "170.59", "Molecular Formula": "C8H7ClO2", "Boiling Point": "134-135 \u00b0C @ Press: 14 Torr", "Melting Point": "20.5 \u00b0C"}}