{"cas_no": "2085-88-3", "cn_name": "2-\u82ef\u57fa-1,2-\u73af\u6c27\u4e19\u70f7", "en_name": ["\u03b1-Methylstyrene oxide", "Oxirane, 2-methyl-2-phenyl-", "Cumene, \u03b1,\u03b2-epoxy-", "2-Methyl-2-phenyloxirane", "\u03b1-Methylstyrene oxide", "\u03b1-Methylstyrene epoxide", "2-Phenyl-1,2-epoxypropane", "2-Phenylpropene oxide", "(\u00b1)-2-Methyl-2-phenyloxirane", "1,2-Epoxy-2-phenylpropane", "NSC 36616", "NSC 51065", "2-Phenyl-2-methyloxirane"], "SMILES": "CC1(CO1)C2=CC=CC=C2", "physical_data": {"Molecular Weight": "134.18", "Molecular Formula": "C9H10O", "Boiling Point": "81-81.5 \u00b0C @ Press: 14 Torr", "Density": "1.0395 g/cm\u00b3 @ Temp: 0 \u00b0C"}}