{"cas_no": "2085-33-8", "cn_name": "8-\u7f9f\u57fa\u55b9\u5549\u94dd", "en_name": ["Tris-(8-hydroxyquinoline)aluminum", "Aluminum, tris(8-quinolinolato-\u03baN1,\u03baO8)-", "Aluminum, tris(8-quinolinolato)-", "Aluminum, tris(8-quinolinolato-N1,O8)-", "Tris(8-quinolinolato-\u03baN1,\u03baO8)aluminum", "Hydroxyquinoline aluminum", "Aluminum oxinate", "Tris(8-quinolinolato)aluminum", "Aluminum 8-hydroxyquinolinate", "Tri-8-quinolinolatoaluminum", "Tris(8-hydroxyquinolinato)aluminum", "Al 8Q", "8-Hydroxyquinoline aluminum", "Aluminum, tris(8-hydroxyquinolinato)-", "Tris(8-quinolinol)aluminum", "Tris(8-hydroxyquinolinate)aluminum", "Tris(8-hydroxyquinolinol-N1,O8)aluminum", "Alq3", "Aluminum tris(8-hydroxyquinolinate)", "Tris-(8-hydroxyquinoline)aluminum", "Tris(8-hydroxyquinolato)aluminum", "Tris(8-quinolinolato)aluminum(III)", "Aluminum tris(8-quinolinolate)", "Alq", "LT-E 401", "Tris(8-hydroxychinolin)aluminum", "Tris(8-quinolinato)aluminum"], "SMILES": "[Al+3]123([N]=4C=5C([O-]1)=CC=CC5C=CC4)([N]=6C=7C([O-]2)=CC=CC7C=CC6)[N]=8C=9C([O-]3)=CC=CC9C=CC8", "physical_data": {"Molecular Weight": "", "Molecular Formula": "C27H18AlN3O3", "Boiling Point": "21 \u00b0C @ Press: 0.16 Torr", "Melting Point": "413-415 \u00b0C (decomp)", "Density": "1.19 g/cm\u00b3"}}