{"cas_no": "20859-73-8", "cn_name": "\u78f7\u5316\u94dd", "en_name": ["Aluminum phosphide", "Aluminum phosphide (AlP)", "Celphos", "Delicia Gastoxin", "Delicia", "Detia Gas Ex-B", "Phostoxin", "Aluminium phosphide (AlP)", "Aluminum monophosphide", "Detia-Ex-B", "Phostoxin A", "Gastion", "Phosfume", "Aluminum phosphide", "Epifume"], "SMILES": "[Al]#P", "physical_data": {"Molecular Weight": "", "Molecular Formula": "AlP", "Melting Point": "2550 \u00b0C", "Density": "2.85 g/cm\u00b3 @ Temp: 15 \u00b0C"}}