{"cas_no": "2086-83-1", "cn_name": "\u9ec4\u83b2\u7d20", "en_name": ["Berberine", "Benzo[g]-1,3-benzodioxolo[5,6-a]quinolizinium, 5,6-dihydro-9,10-dimethoxy-", "Umbellatine", "Berbinium, 7,8,13,13a-tetradehydro-9,10-dimethoxy-2,3-(methylenedioxy)-", "5,6-Dihydro-9,10-dimethoxybenzo[g]-1,3-benzodioxolo[5,6-a]quinolizinium", "Berberine", "Berbericine", "Berberin", "Umbellatin", "Thalsine", "Majarine", "Berberone", "MeSH ID: D001599"], "SMILES": "O(C)C1=C2C=[N+]3C(C=4C(=CC5=C(C4)OCO5)CC3)=CC2=CC=C1OC", "physical_data": {"Molecular Weight": "", "Molecular Formula": "C20H18NO4", "Melting Point": "145 \u00b0C"}}