{"cas_no": "20869-95-8", "cn_name": "ERMANIN", "en_name": ["Ermanin", "4H-1-Benzopyran-4-one, 5,7-dihydroxy-3-methoxy-2-(4-methoxyphenyl)-", "Flavone, 5,7-dihydroxy-3,4\u2032-dimethoxy-", "5,7-Dihydroxy-3-methoxy-2-(4-methoxyphenyl)-4H-1-benzopyran-4-one", "Ermanin", "Dimethyl-3,4\u2032-kaempferol", "Kaempferol 3,4\u2032-dimethyl ether", "3,4\u2032-Di-O-methylkaempferol", "5,7-Dihydroxy-3,4\u2032-dimethoxyflavone", "Kaempferol 3,4\u2032-di-O-methyl ether", "NSC 31882"], "SMILES": "O(C)C1=C(OC=2C(C1=O)=C(O)C=C(O)C2)C3=CC=C(OC)C=C3", "physical_data": {"Molecular Weight": "314.29", "Molecular Formula": "C17H14O6", "Melting Point": "234 \u00b0C"}}