{"cas_no": "2086-26-2", "cn_name": "4-\u785d\u57fa\u82c4\u57fa\u7f9f\u80fa\u76d0\u9178\u76d0", "en_name": ["Hydroxylamine, O-[(4-nitrophenyl)methyl]-, hydrochloride (1:1)", "Hydroxylamine, O-[(4-nitrophenyl)methyl]-, hydrochloride (1:1)", "Hydroxylamine, O-[(4-nitrophenyl)methyl]-, monohydrochloride", "Hydroxylamine, O-(p-nitrobenzyl)-, monohydrochloride", "Benzyloxyamine, p-nitro-, hydrochloride", "p-Nitrobenzyloxyamine hydrochloride", "O-(p-Nitrobenzyl)hydroxylamine hydrochloride", "4-Nitrobenzyloxyamine hydrochloride", "O-(4-Nitrobenzyl)hydroxylamine hydrochloride"], "SMILES": "N(=O)(=O)C1=CC=C(CON)C=C1.Cl", "physical_data": {"Molecular Weight": "", "Molecular Formula": "C7H8N2O3.ClH", "Melting Point": "190-196 \u00b0C"}}