{"cas_no": "20870-90-0", "cn_name": "5-\u6eb4-1-\u7532\u57fa-2-\u5432\u54da\u916e", "en_name": ["5-Bromo-1,3-dihydro-1-methyl-2H-indol-2-one", "2H-Indol-2-one, 5-bromo-1,3-dihydro-1-methyl-", "2-Indolinone, 5-bromo-1-methyl-", "Oxindole, 5-bromo-1-methyl-", "5-Bromo-1,3-dihydro-1-methyl-2H-indol-2-one", "5-Bromo-1-methyl-2-indolinone", "5-Bromo-N-methyloxindole"], "SMILES": "CN1C=2C(CC1=O)=CC(Br)=CC2", "physical_data": {"Molecular Weight": "226.07", "Molecular Formula": "C9H8BrNO", "Melting Point": "132-133 \u00b0C"}}