{"cas_no": "20870-78-4", "cn_name": "5-\u6eb4\u6c27\u5316\u5432\u54da", "en_name": ["5-Bromo-2-oxindole", "2H-Indol-2-one, 5-bromo-1,3-dihydro-", "2-Indolinone, 5-bromo-", "Oxindole, 5-bromo-", "5-Bromo-1,3-dihydro-2H-indol-2-one", "5-Bromo-2-oxindole", "5-Bromo-1,3-dihydroindol-2-one", "5-Bromooxindole", "5-Bromo-2-oxo-2,3-dihydro-1H-indole", "5-Bromo-2,3-dihydroindol-2-one"], "SMILES": "O=C1NC=2C(C1)=CC(Br)=CC2", "physical_data": {"Molecular Weight": "212.04", "Molecular Formula": "C8H6BrNO", "Melting Point": "220-221 \u00b0C"}}