{"cas_no": "20876-29-3", "cn_name": "(5-\u7532\u6c27\u57fa-2-\u785d\u57fa-\u82ef\u57fa)-\u4e59\u9178", "en_name": ["5-Methoxy-2-nitrobenzeneacetic acid", "Benzeneacetic acid, 5-methoxy-2-nitro-", "Acetic acid, (5-methoxy-2-nitrophenyl)-", "5-Methoxy-2-nitrobenzeneacetic acid", "(5-Methoxy-2-nitrophenyl)acetic acid", "2-(5-Methoxy-2-nitrophenyl)acetic acid"], "SMILES": "C(C(O)=O)C1=C(N(=O)=O)C=CC(OC)=C1", "physical_data": {"Molecular Weight": "211.17", "Molecular Formula": "C9H9NO5", "Melting Point": "176 \u00b0C"}}