{"cas_no": "20874-52-6", "cn_name": "\u67f4\u80e1\u7682\u82f7 D", "en_name": ["Saikosaponin D", "\u03b2-D-Galactopyranoside, (3\u03b2,4\u03b1,16\u03b1)-13,28-epoxy-16,23-dihydroxyolean-11-en-3-yl 6-deoxy-3-O-\u03b2-D-glucopyranosyl-", "Saikosaponin D", "(3\u03b2,4\u03b1,16\u03b1)-13,28-Epoxy-16,23-dihydroxyolean-11-en-3-yl 6-deoxy-3-O-\u03b2-D-glucopyranosyl-\u03b2-D-galactopyranoside"], "SMILES": "CC12C3(C4C(CO3)(C(O)C1)CCC(C)(C)C4)C=CC5C2(C)CCC6C5(C)CCC(OC7C(O)C(OC8OC(CO)C(O)C(O)C8O)C(O)C(C)O7)C6(CO)C", "physical_data": {"Molecular Weight": "780.98", "Molecular Formula": "C42H68O13", "Melting Point": "212-218 \u00b0C"}}