{"cas_no": "20880-92-6", "cn_name": "\u679c\u7cd6\u4e8c\u4e19\u916e", "en_name": ["2,3:4,5-Di-O-isopropylidene-\u03b2-D-fructopyranose", "\u03b2-D-Fructopyranose, 2,3:4,5-bis-O-(1-methylethylidene)-", "Fructopyranose, 2,3:4,5-di-O-isopropylidene-, \u03b2-D-", "5H-Bis[1,3]dioxolo[4,5-b:4\u2032,5\u2032-d]pyran, \u03b2-D-fructopyranose deriv.", "2,3:4,5-Bis-O-(1-methylethylidene)-\u03b2-D-fructopyranose", "2,3:4,5-Di-O-isopropylidene-\u03b2-D-fructopyranose", "NSC 407023", "D-Fructopyranose diacetonide"], "SMILES": "C(O)C12C(C3C(CO1)OC(C)(C)O3)OC(C)(C)O2", "physical_data": {"Molecular Weight": "260.28", "Molecular Formula": "C12H20O6", "Melting Point": "119 \u00b0C"}}