{"cas_no": "20882-75-1", "cn_name": "\u5f53\u836f\u5b81", "en_name": ["Swertianin", "9H-Xanthen-9-one, 1,2,8-trihydroxy-6-methoxy-", "Xanthen-9-one, 1,2,8-trihydroxy-6-methoxy-", "1,2,8-Trihydroxy-6-methoxy-9H-xanthen-9-one", "Gentiakochianin", "Swertianin", "1,3,7,8-Tetrahydroxyxanthone 3-methyl ether", "1,7,8-Trihydroxy-3-methoxyxanthone", "3-Methoxy-1,7,8-trihydroxyxanthone", "Gentiakoxianin", "NSC 289490", "Swertianine", "1,2,8-Trihydroxy-6-methoxyxanthen-9-one"], "SMILES": "O=C1C=2C(OC=3C1=C(O)C(O)=CC3)=CC(OC)=CC2O", "physical_data": {"Molecular Weight": "274.23", "Molecular Formula": "C14H10O6", "Melting Point": "243 \u00b0C"}}