{"cas_no": "2088-71-3", "cn_name": "17-\u5b89\u606f\u9999\u9178\u96c4\u70ef\u9187\u916e", "en_name": ["Testosterone, benzoate", "Androst-4-en-3-one, 17-(benzoyloxy)-, (17\u03b2)-", "Testosterone, benzoate", "(17\u03b2)-17-(Benzoyloxy)androst-4-en-3-one", "17\u03b2-Benzoyloxyandrost-4-en-3-one", "Androst-4-en-17\u03b2-ol-3-one benzoate", "Testosterone 17-benzoate", "17\u03b2-Hydroxyandrost-4-en-3-one benzoate", "NSC 524278", "4-Androstene-17\u03b2-ol-3-one benzoate"], "SMILES": "CC12C3C(C4C(C)(CC3)C(OC(=O)C5=CC=CC=C5)CC4)CCC1=CC(=O)CC2", "physical_data": {"Molecular Weight": "392.53", "Molecular Formula": "C26H32O3", "Melting Point": "200 \u00b0C"}}