{"cas_no": "2089-89-6", "cn_name": "2,7-\u8418\u4e8c\u7fa7\u9178", "en_name": ["2,7-Naphthalenedicarboxylic acid", "2,7-Naphthalenedicarboxylic acid"], "SMILES": "C(O)(=O)C1=CC2=C(C=CC(C(O)=O)=C2)C=C1", "physical_data": {"Molecular Weight": "216.19", "Molecular Formula": "C12H8O4", "Melting Point": "&gt;190 \u00b0C (sublm)"}}