{"cas_no": "20893-30-5", "cn_name": "2-\u567b\u5429\u4e59\u8148", "en_name": ["2-Thiopheneacetonitrile", "2-Thiopheneacetonitrile", "2-Thienylacetonitrile", "2-(Cyanomethyl)thiophene", "2-(Thien-2-yl)acetonitrile", "2-(Thiophen-2-yl)acetonitrile"], "SMILES": "C(C#N)C1=CC=CS1", "physical_data": {"Molecular Weight": "123.18", "Molecular Formula": "C6H5NS", "Boiling Point": "115-120 \u00b0C", "Melting Point": "50-51 \u00b0C", "Density": "1.153 g/cm\u00b3 @ Temp: 25 \u00b0C"}}