{"cas_no": "2089-36-3", "cn_name": "\u80e1\u6912\u919b\u809f", "en_name": ["1,3-Benzodioxole-5-carboxaldehyde oxime", "1,3-Benzodioxole-5-carboxaldehyde, oxime", "Piperonal, oxime", "1,3-Benzodioxole-5-carboxaldehyde oxime", "Piperonaldoxime", "3,4-Methylenedioxybenzaldehyde oxime", "3,4-Methylenedioxybenzaldoxime", "NSC 27012"], "SMILES": "C(=NO)C=1C=C2C(=CC1)OCO2", "physical_data": {"Molecular Weight": "165.15", "Molecular Formula": "C8H7NO3", "Melting Point": "86 \u00b0C"}}