{"cas_no": "20901-53-5", "cn_name": "2-\u6c27\u4ee3-2,3-\u4e8c\u6c22-1H-\u54aa\u5511-4-\u7532\u9178\u7532\u916f", "en_name": ["Methyl 2,3-dihydro-2-oxo-1H-imidazole-4-carboxylate", "1H-Imidazole-4-carboxylic acid, 2,3-dihydro-2-oxo-, methyl ester", "4-Imidazoline-4-carboxylic acid, 2-oxo-, methyl ester", "Methyl 2,3-dihydro-2-oxo-1H-imidazole-4-carboxylate"], "SMILES": "C(OC)(=O)C=1NC(=O)NC1", "physical_data": {"Molecular Weight": "142.11", "Molecular Formula": "C5H6N2O3", "Melting Point": "280 \u00b0C"}}