{"cas_no": "2091-39-6", "cn_name": "11,14-\u4e8c\u5341\u78b3\u4e8c\u70ef\u9178C20:2", "en_name": ["11,14-Eicosadienoic acid", "11,14-Eicosadienoic acid"], "SMILES": "C(CCC=CCC=CCCCCC)CCCCCCC(O)=O", "physical_data": {"Molecular Weight": "308.50", "Molecular Formula": "C20H36O2", "Boiling Point": "198 \u00b0C @ Press: 0.08 Torr"}}