{"cas_no": "20913-25-1", "cn_name": "2-\u7532\u57fa\u73af\u4e19\u70f7-1-\u7fa7\u9178\u4e59\u916f", "en_name": ["Ethyl 2-methylcyclopropanecarboxylate", "Cyclopropanecarboxylic acid, 2-methyl-, ethyl ester", "Ethyl 2-methylcyclopropanecarboxylate"], "SMILES": "C(OCC)(=O)C1C(C)C1", "physical_data": {"Molecular Weight": "128.17", "Molecular Formula": "C7H12O2", "Boiling Point": "58-59 \u00b0C @ Press: 27 Torr", "Melting Point": "147 \u00b0C"}}