{"cas_no": "2091-46-5", "cn_name": "\u7094\u4e19\u57fa\u4e09\u82ef\u57fa\u6eb4\u5316\u81a6", "en_name": ["Phosphonium, triphenyl-2-propyn-1-yl-, bromide (1:1)", "Phosphonium, triphenyl-2-propyn-1-yl-, bromide (1:1)", "Phosphonium, triphenyl-2-propynyl-, bromide", "Triphenyl-2-propynylphosphonium bromide", "Propargyltriphenylphosphonium bromide", "Triphenylpropargylphosphonium bromide", "2-Propynyltriphenylphosphonium bromide", "NSC 219251", "P 1379"], "SMILES": "[P+](CC#C)(C1=CC=CC=C1)(C2=CC=CC=C2)C3=CC=CC=C3.[Br-]", "physical_data": {"Molecular Weight": "", "Molecular Formula": "C21H18P.Br", "Melting Point": "164-167 \u00b0C"}}