{"cas_no": "20917-49-1", "cn_name": "N-\u4e9a\u785d\u57fa\u73af\u5e9a\u57fa\u4e9a\u80fa", "en_name": ["N-Nitrosoheptamethyleneimine", "Azocine, octahydro-1-nitroso-", "Heptamethylenimine, 1-nitroso-", "Octahydro-1-nitrosoazocine", "N-Nitrosoheptamethyleneimine", "N-Nitrosoazacyclooctane", "1-Nitrosoazocane"], "SMILES": "N(=O)N1CCCCCCC1", "physical_data": {"Molecular Weight": "142.20", "Molecular Formula": "C7H14N2O", "Boiling Point": "130 \u00b0C @ Press: 16 Torr"}}