{"cas_no": "20924-57-6", "cn_name": "\u5f02\u82ef\u5e76\u4e8c\u6c22\u5421\u5583-4-\u9187", "en_name": ["3,4-Dihydro-1H-2-benzopyran-4-ol", "1H-2-Benzopyran-4-ol, 3,4-dihydro-", "4-Isochromanol", "3,4-Dihydro-1H-2-benzopyran-4-ol", "3,4-Dihydro-1H-isochromen-4-ol"], "SMILES": "OC1C=2C(COC1)=CC=CC2", "physical_data": {"Molecular Weight": "150.17", "Molecular Formula": "C9H10O2", "Melting Point": "68 \u00b0C"}}