{"cas_no": "20927-53-1", "cn_name": "\u5730\u897f\u6cee\u6742\u8d28E", "en_name": ["6-Chloro-1-methyl-4-phenyl-2(1H)-quinazolinone", "2(1H)-Quinazolinone, 6-chloro-1-methyl-4-phenyl-", "6-Chloro-1-methyl-4-phenyl-2(1H)-quinazolinone", "6-Chloro-4-phenyl-1-methyl-2(1H)-quinazolinone", "1-Methyl-4-phenyl-6-chloro-2(1H)-quinazolinone", "6-Chloro-1-methyl-4-phenyl-2(1H)-quinazolone", "1-Methyl-4-phenyl-6-chloro-2-quinazolinone"], "SMILES": "CN1C=2C(C(=NC1=O)C3=CC=CC=C3)=CC(Cl)=CC2", "physical_data": {"Molecular Weight": "270.71", "Molecular Formula": "C15H11ClN2O", "Melting Point": "226-227 \u00b0C"}}