{"cas_no": "2092-49-1", "cn_name": "\u53bb\u6c22-\u4e8c\u9999\u5170\u7d20", "en_name": ["Divanillin", "[1,1\u2032-Biphenyl]-3,3\u2032-dicarboxaldehyde, 6,6\u2032-dihydroxy-5,5\u2032-dimethoxy-", "3,3\u2032-Biphenyldicarboxaldehyde, 6,6\u2032-dihydroxy-5,5\u2032-dimethoxy-", "6,6\u2032-Dihydroxy-5,5\u2032-dimethoxy[1,1\u2032-biphenyl]-3,3\u2032-dicarboxaldehyde", "5,5\u2032-Bivanillin", "Dehydrodivanillin", "2,2\u2032-Dihydroxy-3,3\u2032-dimethoxy-5,5\u2032-diformylbiphenyl", "Divanillin", "NSC 16723", "5,5\u2032-Diformyl-3,3\u2032-Dimethoxy-1,1\u2032-biphenyl-2,2\u2032-diol", "Bivanillin", "5,5\u2032-Bisvanillin"], "SMILES": "OC1=C(C=C(C=O)C=C1OC)C2=C(O)C(OC)=CC(C=O)=C2", "physical_data": {"Molecular Weight": "302.28", "Molecular Formula": "C16H14O6", "Melting Point": "305 \u00b0C"}}