{"cas_no": "20925-27-3", "cn_name": "2-\u6c2f-4-\u6c28\u57fa\u82ef\u8148", "en_name": ["4-Amino-2-chlorobenzonitrile", "Benzonitrile, 4-amino-2-chloro-", "4-Amino-2-chlorobenzonitrile", "3-Chloro-4-cyanoaniline", "2-Chloro-4-aminobenzonitrile", "(3-Chloro-4-cyanophenyl)amine"], "SMILES": "C(#N)C1=C(Cl)C=C(N)C=C1", "physical_data": {"Molecular Weight": "152.58", "Molecular Formula": "C7H5ClN2", "Melting Point": "118 \u00b0C"}}