{"cas_no": "20931-37-7", "cn_name": "\u0392-\u5012\u637b\u5b50\u7d20", "en_name": ["\u03b2-Mangostin", "9H-Xanthen-9-one, 1,6-dihydroxy-3,7-dimethoxy-2,8-bis(3-methyl-2-buten-1-yl)-", "Xanthen-9-one, 1,6-dihydroxy-3,7-dimethoxy-2,8-bis(3-methyl-2-butenyl)-", "9H-Xanthen-9-one, 1,6-dihydroxy-3,7-dimethoxy-2,8-bis(3-methyl-2-butenyl)-", "1,6-Dihydroxy-3,7-dimethoxy-2,8-bis(3-methyl-2-buten-1-yl)-9H-xanthen-9-one", "\u03b2-Mangostin"], "SMILES": "C(C=C(C)C)C1=C2C(OC=3C(C2=O)=C(O)C(CC=C(C)C)=C(OC)C3)=CC(O)=C1OC", "physical_data": {"Molecular Weight": "424.49", "Molecular Formula": "C25H28O6", "Melting Point": "175.5 \u00b0C"}}