{"cas_no": "20938-74-3", "cn_name": "n-\u7532\u57fa-\u786b\u4ee3\u4e59\u9170\u80fa", "en_name": ["N-Methylmercaptoacetamide", "Acetamide, 2-mercapto-N-methyl-", "2-Mercapto-N-methylacetamide", "N-Methylmercaptoacetamide"], "SMILES": "C(CS)(NC)=O", "physical_data": {"Molecular Weight": "105.16", "Molecular Formula": "C3H7NOS", "Boiling Point": "91-94 \u00b0C @ Press: 5 Torr", "Melting Point": "58 \u00b0C"}}