{"cas_no": "20934-81-0", "cn_name": "4-(\u82ef\u5e76[D]\u6076\u5511-2-\u57fa)\u82ef\u80fa", "en_name": ["2-(p-Aminophenyl)benzoxazole", "Benzenamine, 4-(2-benzoxazolyl)-", "Benzoxazole, 2-(p-aminophenyl)-", "4-(2-Benzoxazolyl)benzenamine", "p-2-Benzoxazolylaniline", "2-(4-Aminophenyl)benzoxazole", "2-(p-Aminophenyl)benzoxazole", "2-(4\u2032-Aminophenyl)benzoxazole", "4-(Benzo[d]oxazol-2-yl)aniline", "2-(4-Aminophenyl)benzo[d]oxazole"], "SMILES": "NC1=CC=C(C2=NC=3C(O2)=CC=CC3)C=C1", "physical_data": {"Molecular Weight": "210.23", "Molecular Formula": "C13H10N2O", "Melting Point": "169-170 \u00b0C"}}