{"cas_no": "209481-20-9", "cn_name": "SB271046", "en_name": ["5-Chloro-N-[4-methoxy-3-(1-piperazinyl)phenyl]-3-methylbenzo[b]thiophene-2-sulfonamide", "Benzo[b]thiophene-2-sulfonamide, 5-chloro-N-[4-methoxy-3-(1-piperazinyl)phenyl]-3-methyl-", "5-Chloro-N-[4-methoxy-3-(1-piperazinyl)phenyl]-3-methylbenzo[b]thiophene-2-sulfonamide", "SB 271046", "SB 737050", "SB 270146"], "SMILES": "CC=1C=2C(SC1S(NC3=CC(=C(OC)C=C3)N4CCNCC4)(=O)=O)=CC=C(Cl)C2", "physical_data": {"Molecular Weight": "451.99", "Molecular Formula": "C20H22ClN3O3S2", "Melting Point": "240-241 \u00b0C (decomp)"}}