{"cas_no": "2094-98-6", "cn_name": "1,1'-\u5076\u6c2e(\u6c30\u57fa\u73af\u5df1\u70f7)", "en_name": ["1,1\u2032-Azobis(cyclohexane-1-carbonitrile)", "Cyclohexanecarbonitrile, 1,1\u2032-(1,2-diazenediyl)bis-", "Cyclohexanecarbonitrile, 1,1\u2032-azodi-", "Cyclohexanecarbonitrile, 1,1\u2032-azobis-", "1,1\u2032-Azobis[cyclohexanecarbonitrile]", "1,1\u2032-Azobis(cyclohexanenitrile)", "1,1\u2032-Azodicyclohexanecarbonitrile", "1-Azo-1-cyanocyclohexane", "Azobis(1-cyanocyclohexane)", "1,1\u2032-Azobis[1-cyanocyclohexane]", "1,1\u2032-Azobis(1-cyclohexanecarbonitrile)", "Azocyclohexane-1,1\u2032-dinitrile", "Vazo 88", "V 40", "V 40 (initiator)", "1,1\u2032-Azodi(hexahydrobenzonitrile)", "N,N-Azobis(cyclohexanecarbonitrile)", "ACHN", "1,1\u2032-Azobis(cyclohexane-1-carbonitrile)", "ACCN", "1,1\u2032-Azobis(cyanocyclohexane)", "V 88"], "SMILES": "N(=NC1(C#N)CCCCC1)C2(C#N)CCCCC2", "physical_data": {"Molecular Weight": "244.34", "Molecular Formula": "C14H20N4", "Melting Point": "116 \u00b0C"}}