{"cas_no": "2094-72-6", "cn_name": "\u91d1\u521a\u70f7\u9170\u6c2f", "en_name": ["1-Adamantanecarbonyl chloride", "Tricyclo[3.3.1.13,7]decane-1-carbonyl chloride", "1-Adamantanecarbonyl chloride", "1-Adamantanecarboxylic acid chloride", "1-Adamantylcarbonyl chloride", "1-Adamantoyl chloride", "1-Adamantylcarboxylic acid chloride", "1-Adamantanoyl chloride", "NSC 179368", "NSC 249324", "1-Chlorocarbonyladamantane"], "SMILES": "C(Cl)(=O)C12CC3CC(C1)CC(C2)C3", "physical_data": {"Molecular Weight": "198.69", "Molecular Formula": "C11H15ClO", "Boiling Point": "140 \u00b0C @ Press: 15 Torr", "Melting Point": "48.5-52.0 \u00b0C"}}