{"cas_no": "2094-99-7", "cn_name": "3-\u5f02\u4e19\u57fa-\u4e8c\u7532\u57fa\u82c4\u57fa\u5f02\u6c30\u9178\u916fTMI", "en_name": ["1-(1-Isocyanato-1-methylethyl)-3-(1-methylethenyl)benzene", "Benzene, 1-(1-isocyanato-1-methylethyl)-3-(1-methylethenyl)-", "Isocyanic acid, m-isopropenyl-\u03b1,\u03b1-dimethylbenzyl ester", "1-(1-Isocyanato-1-methylethyl)-3-(1-methylethenyl)benzene", "3-Isopropenyl-\u03b1,\u03b1-dimethylbenzyl isocyanate", "m-TMI", "TMI", "m-Isopropenyl-\u03b1,\u03b1-dimethylbenzyl isocyanate", "Takenate TMI", "meta-TMI", "Dimethyl-m-isopropenylbenzyl isocyanate", "m-Isopropenylcumyl isocyanate", "\u03b1,\u03b1-Dimethyl-m-isopropenylbenzyl isocyanate", "Cytec TMI", "m-Isopropenyldimethylbenzyl isocyanate", "3-Isopropenyl-\u03b1,\u03b1\u2032-dimethylbenzyl isocyanate", "1-(1-Isocyanato-1-methylethyl)-3-isopropenylbenzene", "1-(2-Isocyanatopropan-2-yl)-3-(prop-1-en-2-yl)benzene", "1-(2-Isocyanatopropan-2-yl)-3-prop-1-en-2-ylbenzene", "\u03b1,\u03b1-Dimethyl-3-isopropenylbenzyl isocyanate"], "SMILES": "C(N=C=O)(C)(C)C1=CC(C(C)=C)=CC=C1", "physical_data": {"Molecular Weight": "201.26", "Molecular Formula": "C13H15NO", "Boiling Point": "269.5 \u00b0C"}}