{"cas_no": "20941-65-5", "cn_name": "\u4e8c\u4e59\u57fa\u4e8c\u786b\u4ee3\u6c28\u57fa\u7532\u9178\u78b2", "en_name": ["Tetrakis(diethyldithiocarbamato)tellurium", "Tellurium, tetrakis(N,N-diethylcarbamodithioato-\u03baS,\u03baS\u2032)-, (DD-8-111\u2032\u20321\u2032\u20321\u20321\u20321\u2032\u2032\u20321\u2032\u2032\u2032)-", "Tellurium, tetrakis(diethyldithiocarbamato)-", "Tellurium, tetrakis(diethylcarbamodithioato-S,S\u2032)-, (DD-8-111\u2032\u20321\u2032\u20321\u20321\u20321\u2032\u2032\u20321\u2032\u2032\u2032)-", "Tellurium, tetrakis(diethylcarbamodithioato-\u03baS,\u03baS\u2032)-, (DD-8-111\u2032\u20321\u2032\u20321\u20321\u20321\u2032\u2032\u20321\u2032\u2032\u2032)-", "(DD-8-111\u2032\u20321\u2032\u20321\u20321\u20321\u2032\u2032\u20321\u2032\u2032\u2032)-Tetrakis(N,N-diethylcarbamodithioato-\u03baS,\u03baS\u2032)tellurium", "Tellurium(IV) diethyl dithiocarbamate", "Tetrakis(diethyldithiocarbamato)tellurium", "Tellurium diethyldithiocarbamate", "Ethyl Tellurac", "Carbamodithioic acid, diethyl-, tetrakis(anhydrosulfide) with thiotelluric acid (H4TeS4)", "Tellurac", "Nocceler TTTE", "Tetrakis(diethyldithiocarbamato)tellurium(IV)", "Accel TTTE", "Accelerator TL", "TTTE"], "SMILES": "N(CC)(CC)C1=[S][Te+4]234([S-]C(N(CC)CC)=[S]2)([S-]C(N(CC)CC)=[S]3)([S-]C(N(CC)CC)=[S]4)[S-]1", "physical_data": {"Molecular Weight": "", "Molecular Formula": "C20H40N4S8Te", "Melting Point": "108-109 \u00b0C", "Density": "1.55 g/cm\u00b3"}}