{"cas_no": "2094-73-7", "cn_name": "\u91d1\u521a\u70f7-1-\u7532\u9178\u4e59\u916f", "en_name": ["Ethyl 1-adamantanecarboxylate", "Tricyclo[3.3.1.13,7]decane-1-carboxylic acid, ethyl ester", "1-Adamantanecarboxylic acid, ethyl ester", "1-Adamantylcarboxylic acid ethyl ester", "Ethyl 1-adamantanecarboxylate", "1-Carbethoxyadamantane"], "SMILES": "C(OCC)(=O)C12CC3CC(C1)CC(C2)C3", "physical_data": {"Molecular Weight": "208.30", "Molecular Formula": "C13H20O2", "Boiling Point": "89 \u00b0C @ Press: 9.55 Torr"}}