{"cas_no": "209410-46-8", "cn_name": "VX-745", "en_name": ["5-(2,6-Dichlorophenyl)-2-[(2,4-difluorophenyl)thio]-6H-pyrimido[1,6-b]pyridazin-6-one", "6H-Pyrimido[1,6-b]pyridazin-6-one, 5-(2,6-dichlorophenyl)-2-[(2,4-difluorophenyl)thio]-", "5-(2,6-Dichlorophenyl)-2-[(2,4-difluorophenyl)thio]-6H-pyrimido[1,6-b]pyridazin-6-one", "VX 745", "Neflamapimod", "VRT 031745", "VD 31745"], "SMILES": "O=C1C(=C2N(N=C(SC3=C(F)C=C(F)C=C3)C=C2)C=N1)C4=C(Cl)C=CC=C4Cl", "physical_data": {"Molecular Weight": "436.26", "Molecular Formula": "C19H9Cl2F2N3OS", "Melting Point": "261-264 \u00b0C"}}