{"cas_no": "20955-11-7", "cn_name": "\u516d\u6c1f\u94c1\u9178\u94a0", "en_name": ["Ferrate(3-), hexafluoro-, sodium (1:3), (OC-6-11)-", "Ferrate(3-), hexafluoro-, sodium (1:3), (OC-6-11)-", "Ferrate(3-), hexafluoro-, trisodium", "Ferrate(3-), hexafluoro-, trisodium, (OC-6-11)-", "Sodium fluoferrate(III)", "Trisodium hexafluoroferrate(3-)", "Iron sodium fluoride (FeNa3F6)", "Iron sodium fluoride (FeNa3F6)"], "SMILES": "[Fe+3]([F-])([F-])([F-])([F-])([F-])[F-].[Na+]", "physical_data": {"Molecular Weight": "", "Molecular Formula": "F6Fe.3Na", "Melting Point": "951 \u00b0C"}}