{"cas_no": "2096-10-8", "cn_name": "2-\u6c28\u57fa\u817a\u560c\u5464\u6838\u82f7", "en_name": ["2-Aminoadenosine", "Adenosine, 2-amino-", "9H-Purine, 2,6-diamino-9-\u03b2-D-ribofuranosyl-", "2-Aminoadenosine", "2,6-Diaminopurine riboside", "9-\u03b2-Ribosyl-2,6-diaminopurine", "2,6-Diaminopurine ribonucleoside", "9H-Purine-2,6-diamine, 9-\u03b2-D-ribofuranosyl-", "2,6-Diaminonebularine", "2,6-Diaminopurinosine", "2,6-Diamino-9-\u03b2-D-ribofuranosylpurine", "NSC 7363", "18: PN: US7015315 PAGE: 27 claimed sequence", "2-(2,6-Diaminopurin-9-yl)-5-(hydroxymethyl)oxolane-3,4-diol", "5-(2,6-Diaminopurin-9-yl)-2-(hydroxymethyl)oxolane-3,4-diol"], "SMILES": "NC1=C2C(N(C=N2)C3OC(CO)C(O)C3O)=NC(N)=N1", "physical_data": {"Molecular Weight": "282.26", "Molecular Formula": "C10H14N6O4", "Melting Point": "248 \u00b0C"}}