{"cas_no": "20965-27-9", "cn_name": "7-\u6eb4\u5e9a\u8148", "en_name": ["7-Bromoheptanenitrile", "Heptanenitrile, 7-bromo-", "7-Bromoheptanenitrile", "6-Cyanohexyl bromide", "7-Bromoheptanonitrile", "NSC 60131"], "SMILES": "C(CCCBr)CCC#N", "physical_data": {"Molecular Weight": "190.08", "Molecular Formula": "C7H12BrN", "Boiling Point": "140-141 \u00b0C @ Press: 14 Torr"}}