{"cas_no": "20967-96-8", "cn_name": "3-\u82ef\u7532\u6c27\u57fa\u82ef\u4e59\u8148", "en_name": ["3-(Phenylmethoxy)benzeneacetonitrile", "Benzeneacetonitrile, 3-(phenylmethoxy)-", "Acetonitrile, [m-(benzyloxy)phenyl]-", "3-(Phenylmethoxy)benzeneacetonitrile", "[m-(Benzyloxy)phenyl]acetonitrile", "[3-(Benzyloxy)phenyl]acetonitrile", "3\u2032-Benzyloxyphenylacetonitrile", "2-[3-(Benzyloxy)phenyl]acetonitrile", "2-(3-Phenylmethoxyphenyl)acetonitrile"], "SMILES": "O(CC1=CC=CC=C1)C2=CC(CC#N)=CC=C2", "physical_data": {"Molecular Weight": "223.27", "Molecular Formula": "C15H13NO", "Boiling Point": "162-166 \u00b0C @ Press: 0.55 Torr"}}