{"cas_no": "2097-18-9", "cn_name": "1-\u4e59\u70ef\u57fa\u6742\u6c2e\u7845\u4e09\u70f7", "en_name": ["1-Ethenyl-2,8,9-trioxa-5-aza-1-silabicyclo[3.3.3]undecane", "2,8,9-Trioxa-5-aza-1-silabicyclo[3.3.3]undecane, 1-ethenyl-", "2,8,9-Trioxa-5-aza-1-silabicyclo[3.3.3]undecane, 1-vinyl-", "1-Ethenyl-2,8,9-trioxa-5-aza-1-silabicyclo[3.3.3]undecane", "Vinylsilatrane", "1-Vinylsilatrane", "NSC 93562", "1-Vinyl-2,8,9-trioxa-5-aza-1-silabicyclo[3.3.3]undecane"], "SMILES": "C(=C)[Si]12OCCN(CCO1)CCO2", "physical_data": {"Molecular Weight": "201.30", "Molecular Formula": "C8H15NO3Si", "Melting Point": "163-165 \u00b0C"}}