{"cas_no": "20977-05-3", "cn_name": "\u4e03\u53f6\u7682\u82f7\u94a0", "en_name": ["Escin, monosodium salt", "Escin, monosodium salt", "Sodium escinate", "Sodium escin", "Escin sodium", "Aescin sodium"], "SMILES": "", "physical_data": {"Molecular Weight": "", "Molecular Formula": "Unspecified", "Melting Point": "250-252 \u00b0C"}}