{"cas_no": "20970-75-6", "cn_name": "2-\u6c30\u57fa-3-\u7532\u57fa\u5421\u5576", "en_name": ["3-Methyl-2-pyridinecarbonitrile", "2-Pyridinecarbonitrile, 3-methyl-", "Picolinonitrile, 3-methyl-", "3-Methyl-2-pyridinecarbonitrile", "2-Cyano-3-methylpyridine", "3-Methylpicolinonitrile", "2-Cyano-3-picoline", "3-Methyl-2-cyanopyridine", "3-Methylpicolonitrile"], "SMILES": "C(#N)C1=C(C)C=CC=N1", "physical_data": {"Molecular Weight": "118.14", "Molecular Formula": "C7H6N2", "Boiling Point": "120 \u00b0C @ Press: 15 Torr", "Melting Point": "85-86 \u00b0C"}}