{"cas_no": "209783-80-2", "cn_name": "\u6069\u66ff\u8bfa\u7279", "en_name": ["Entinostat", "Carbamic acid, N-[[4-[[(2-aminophenyl)amino]carbonyl]phenyl]methyl]-, 3-pyridinylmethyl ester", "Carbamic acid, [[4-[[(2-aminophenyl)amino]carbonyl]phenyl]methyl]-, 3-pyridinylmethyl ester", "MS 275", "MS 27-275", "MS 275-27", "SNDX 275", "Entinostat", "(Pyridin-3-yl)methyl 4-(2-aminophenylcarbamoyl)benzylcarbamate"], "SMILES": "C(NC1=C(N)C=CC=C1)(=O)C2=CC=C(CNC(OCC=3C=CC=NC3)=O)C=C2", "physical_data": {"Molecular Weight": "376.41", "Molecular Formula": "C21H20N4O3", "Melting Point": "159-160 \u00b0C"}}