{"cas_no": "20989-17-7", "cn_name": "L-\u82ef\u7518\u6c28\u9187", "en_name": ["(+)-Phenylglycinol", "Benzeneethanol, \u03b2-amino-, (\u03b2S)-", "Phenethyl alcohol, \u03b2-amino-, L-", "Benzeneethanol, \u03b2-amino-, (S)-", "(\u03b2S)-\u03b2-Aminobenzeneethanol", "(+)-2-Amino-2-phenylethanol", "(S)-2-Amino-2-phenylethanol", "L-Phenylglycinol", "(+)-\u03b1-Phenylglycinol", "(S)-2-Phenylglycinol", "(+)-Phenylglycinol", "(S)-Phenylglycinol", "(S)-2-Phenylethanolamine", "(S)-\u03b2-Aminobenzeneethanol", "(+)-(S)-2-Amino-2-phenylethanol", "L-\u03b2-Aminophenethyl alcohol", "L-\u03b1-Phenylglycinol", "(S)-(+)-Phenylglycinol", "(S)-\u03b1-Aminophenylethanol", "(2S)-2-Amino-2-phenyl-1-ethanol", "(2S)-Phenylglycinol", "(S)-1-Phenyl-2-hydroxyethylamine", "(S)-(+)-2-Phenylglycinol", "[(S)-2-Hydroxy-1-phenylethyl]amine", "(2S)-2-Phenyl-2-aminoethanol", "(2S)-2-Amino-2-phenylethanol", "(1S)-2-Amino-2-phenylethanol", "(1S)-2-Hydroxy-1-phenylethylamine", "(S)-2-Amino-2-phenylethan-1-ol", "(S)-(+)-2-Amino-2-phenylethanol", "(2S)-2-Amino-2-phenylethan-1-ol"], "SMILES": "C(CO)(N)C1=CC=CC=C1", "physical_data": {"Molecular Weight": "137.18", "Molecular Formula": "C8H11NO", "Melting Point": "71-73 \u00b0C"}}