{"cas_no": "20980-22-7", "cn_name": "1-(2-\u5627\u5576\u57fa)\u54cc\u55ea", "en_name": ["1-(2-Pyrimidinyl)piperazine", "Pyrimidine, 2-(1-piperazinyl)-", "2-(1-Piperazinyl)pyrimidine", "1-(2-Pyrimidinyl)piperazine", "1-(2-Pyrimidyl)piperazine", "MJ 13653", "4-(2-Pyrimidinyl)piperazine", "1-PP", "CM 56324H", "PmP", "N-2-Pyrimidinylpiperazine", "2-Piperazinopyrimidine", "1-(4-Pyrimidin-2-yl)piperazine"], "SMILES": "C=1(N=CC=CN1)N2CCNCC2", "physical_data": {"Molecular Weight": "164.21", "Molecular Formula": "C8H12N4", "Boiling Point": "118-120 \u00b0C @ Press: 2 Torr", "Melting Point": "176.5-178.5 \u00b0C"}}