{"cas_no": "2098-66-0", "cn_name": "\u73af\u4e19\u5b55\u916e", "en_name": ["Cyproterone", "3\u2032H-Cyclopropa[1,2]pregna-1,4,6-triene-3,20-dione, 6-chloro-1,2-dihydro-17-hydroxy-, (1\u03b2,2\u03b2)-", "3\u2032H-Cyclopropa[1,2]pregna-1,4,6-triene-3,20-dione, 6-chloro-1\u03b2,2\u03b2-dihydro-17-hydroxy-", "Pregna-4,6-diene-3,20-dione, 6-chloro-17-hydroxy-1\u03b1,2\u03b1-methylene-", "(1\u03b2,2\u03b2)-6-Chloro-1,2-dihydro-17-hydroxy-3\u2032H-cyclopropa[1,2]pregna-1,4,6-triene-3,20-dione", "6-Chloro-17-hydroxy-1\u03b1,2\u03b1-methylenepregna-4,6-diene-3,20-dione", "Cyproterone", "SH 80881", "1,2\u03b1-Methylene-6-chloro-6-17\u03b1-hydroxyprogesterone", "6-Chloro-6-dehydro-17\u03b1-hydroxy-1,2\u03b1-methyleneprogesterone", "6-Chloro-1,2\u03b1-methylene-4,6-pregnadien-17\u03b1-ol-3,20-dione", "SH 881"], "SMILES": "CC12C3C(C3)C(=O)C=C1C(Cl)=CC4C2CCC5(C)C4CCC5(C(C)=O)O", "physical_data": {"Molecular Weight": "374.90", "Molecular Formula": "C22H27ClO3", "Melting Point": "237.5-240 \u00b0C"}}