{"cas_no": "20996-62-7", "cn_name": "(\u4e59\u57fa\u786b\u4ee3)\u4e19\u916e", "en_name": ["(Ethylthio)acetone", "2-Propanone, 1-(ethylthio)-", "2-Propanone, (ethylthio)-", "1-(Ethylthio)-2-propanone", "Ethyl 2-oxopropyl sulfide", "(Ethylthio)acetone", "Acetonyl ethyl sulfide", "Ethyl 2-oxo-thiopropionate", "Ethyl acetonyl sulfide", "NSC 100147", "1-(Ethylsulfanyl)propan-2-one"], "SMILES": "C(C(C)=O)SCC", "physical_data": {"Molecular Weight": "118.20", "Molecular Formula": "C5H10OS", "Boiling Point": "63.5-71 \u00b0C @ Press: 20 Torr", "Density": "0.9950 g/cm\u00b3 @ Temp: 20 \u00b0C"}}