{"cas_no": "2100-42-7", "cn_name": "2-\u6c2f-1,4-\u4e8c\u7532\u6c27\u57fa\u82ef", "en_name": ["2-Chloro-1,4-dimethoxybenzene", "Benzene, 2-chloro-1,4-dimethoxy-", "2-Chloro-1,4-dimethoxybenzene", "Chlorohydroquinone dimethyl ether", "1-Chloro-2,5-dimethoxybenzene", "Chloro-1,4-dimethoxybenzene", "2,5-Dimethoxychlorobenzene", "Monochloro-1,4-dimethoxybenzene", "NSC 60152", "2-Chloro-4-methoxyanisole", "2,5-Dimethoxyphenyl chloride"], "SMILES": "O(C)C1=CC(Cl)=C(OC)C=C1", "physical_data": {"Molecular Weight": "172.61", "Molecular Formula": "C8H9ClO2", "Boiling Point": "110 \u00b0C @ Press: 0.6 Torr"}}