{"cas_no": "2100-25-6", "cn_name": "3-\u7898-1,2,4,5-\u56db\u7532\u57fa\u82ef", "en_name": ["3-Iodo-1,2,4,5-tetramethylbenzene", "Benzene, 3-iodo-1,2,4,5-tetramethyl-", "3-Iodo-1,2,4,5-tetramethylbenzene", "Iododurene", "3-Iododurene", "2,3,5,6-Tetramethyliodobenzene", "1-Iodo-2,3,5,6-tetramethylbenzene", "NSC 97133"], "SMILES": "CC1=C(I)C(C)=C(C)C=C1C", "physical_data": {"Molecular Weight": "260.11", "Molecular Formula": "C10H13I", "Melting Point": "78.5-79.5 \u00b0C"}}