{"cas_no": "2100-31-4", "cn_name": "\u90bb\u4e19\u6c27\u57fa\u82ef\u7532\u9178", "en_name": ["2-Propoxybenzoic acid", "Benzoic acid, 2-propoxy-", "Benzoic acid, o-propoxy-", "2-Propoxybenzoic acid", "o-Propoxybenzoic acid", "Salicylic acid propyl ether"], "SMILES": "O(CCC)C1=C(C(O)=O)C=CC=C1", "physical_data": {"Molecular Weight": "180.20", "Molecular Formula": "C10H12O3", "Boiling Point": "215 \u00b0C @ Press: 20 Torr", "Melting Point": "99-100 \u00b0C"}}