{"cas_no": "21003-46-3", "cn_name": "\u524d\u5217\u5730\u5c14\u6742\u8d28F", "en_name": ["(8\u03b2,11\u03b1,13E,15S)-11,15-Dihydroxy-9-oxoprost-13-en-1-oic acid", "Prost-13-en-1-oic acid, 11,15-dihydroxy-9-oxo-, (8\u03b2,11\u03b1,13E,15S)-", "Cyclopentaneheptanoic acid, 3-hydroxy-2-(3-hydroxy-1-octenyl)-5-oxo-, stereoisomer", "(8\u03b2,11\u03b1,13E,15S)-11,15-Dihydroxy-9-oxoprost-13-en-1-oic acid", "Ovinonic acid", "8-Isoprostaglandin E1", "Isoprostaglandin E1", "8-iso-PGE1", "11\u03b1,15-(S)-Dihydroxy-9-oxo-13-trans-8-isoprostenoic acid", "8-Iso-PGE1"], "SMILES": "C(CCCCCC(O)=O)C1C(C=CC(CCCCC)O)C(O)CC1=O", "physical_data": {"Molecular Weight": "354.48", "Molecular Formula": "C20H34O5", "Melting Point": "77-79 \u00b0C"}}