{"cas_no": "2100-17-6", "cn_name": "4-\u620a\u70ef\u919b", "en_name": ["4-Pentenal", "4-Pentenal", "Pent-4-en-1-al"], "SMILES": "C(CC=O)C=C", "physical_data": {"Molecular Weight": "84.12", "Molecular Formula": "C5H8O", "Boiling Point": "99 \u00b0C", "Density": "0.852 g/cm\u00b3 @ Temp: 20 \u00b0C"}}