{"cas_no": "21018-84-8", "cn_name": "\u82e6\u674f\u82f7", "en_name": ["Amarogentin", "1H,3H-Pyrano[3,4-c]pyran-1-one, 5-ethenyl-4,4a,5,6-tetrahydro-6-[[2-O-[(3,3\u2032,5-trihydroxy[1,1\u2032-biphenyl]-2-yl)carbonyl]-\u03b2-D-glucopyranosyl]oxy]-, (4aS,5R,6S)-", "Amarogentin", "[1,1\u2032-Biphenyl]-2-carboxylic acid, 3,3\u2032,5-trihydroxy-, 2-ester with 5-ethenyl-6-(\u03b2-D-glucopyranosyloxy)-4,4a,5,6-tetrahydro-1H,3H-pyrano[3,4-c]pyran-1-one, [4aS-(4a\u03b1,5\u03b2,6\u03b1)]-", "1H,3H-Pyrano[3,4-c]pyran, [1,1\u2032-biphenyl]-2-carboxylic acid deriv.", "(4aS,5R,6S)-5-Ethenyl-4,4a,5,6-tetrahydro-6-[[2-O-[(3,3\u2032,5-trihydroxy[1,1\u2032-biphenyl]-2-yl)carbonyl]-\u03b2-D-glucopyranosyl]oxy]-1H,3H-pyrano[3,4-c]pyran-1-one", "1H,3H-Pyrano[3,4-c]pyran-1-one, 5-ethenyl-4,4a,5,6-tetrahydro-6-[[2-O-[(3,3\u2032,5-trihydroxy[1,1\u2032-biphenyl]-2-yl)carbonyl]-\u03b2-D-glucopyranosyl]oxy]-, [4aS-(4a\u03b1,5\u03b2,6\u03b1)]-"], "SMILES": "C(OC1C(OC2C(C=C)C3C(=CO2)C(=O)OCC3)OC(CO)C(O)C1O)(=O)C4=C(C=C(O)C=C4O)C5=CC(O)=CC=C5", "physical_data": {"Molecular Weight": "586.54", "Molecular Formula": "C29H30O13", "Melting Point": "178-180 \u00b0C"}}