{"cas_no": "2102-59-2", "cn_name": "(-)-\u9999\u82b9\u915a", "en_name": ["(-)-cis-Carveol", "2-Cyclohexen-1-ol, 2-methyl-5-(1-methylethenyl)-, (1R,5R)-", "p-Mentha-6,8-dien-2-ol, (2R,4R)-(-)-", "2-Cyclohexen-1-ol, 2-methyl-5-(1-methylethenyl)-, (1R-cis)-", "(1R,5R)-2-Methyl-5-(1-methylethenyl)-2-cyclohexen-1-ol", "L-cis-Carveol", "Carveol, cis-(-)-", "(-)-cis-Carveol", "cis-(-)-Carveol", "(1R,5R)-(-)-cis-Carveol", "(1R-cis)-2-Methyl-5-isopropenyl-2-cyclohexen-1-ol", "(1R)-cis-Carveol", "(-)-(4R,6R)-Carveol", "(2R,5R)-2-Methyl-5-(prop-1-en-2-yl)cyclohex-2-en-1-ol", "(1R,5R)-2-Methyl-5-(prop-1-en-2-yl)cyclohex-2-en-1-ol", "(R,R)-Carveol", "(R,R)-Carveol"], "SMILES": "C(C)(=C)C1CC(O)C(C)=CC1", "physical_data": {"Molecular Weight": "152.23", "Molecular Formula": "C10H16O", "Melting Point": "24-25 \u00b0C"}}