{"cas_no": "21020-24-6", "cn_name": "3-\u6c2f-1-\u4e01\u7094", "en_name": ["3-Chloro-1-butyne", "1-Butyne, 3-chloro-", "3-Chloro-1-butyne", "2-Chloro-3-butyne", "1-Butyn-3-yl chloride", "1-Methylpropargyl chloride"], "SMILES": "C(C#C)(C)Cl", "physical_data": {"Molecular Weight": "88.54", "Molecular Formula": "C4H5Cl", "Boiling Point": "68.5 \u00b0C", "Density": "0.9466 g/cm\u00b3 @ Temp: 25 \u00b0C"}}