{"cas_no": "21035-59-6", "cn_name": "N-\u7532\u57fa-1-\u5421\u5576-2-\u7532\u80fa", "en_name": ["N-Methyl-2-pyridinemethanamine", "2-Pyridinemethanamine, N-methyl-", "Pyridine, 2-[(methylamino)methyl]-", "N-Methyl-2-pyridinemethanamine", "2-Picolylmethylamine", "2-(Methylaminomethyl)pyridine", "\u03b1-Picolylmethylamine", "N-Methyl-2-picolylamine", "N-Methyl-N-(2-pyridylmethyl)amine", "2-(N-Methylaminomethyl)pyridine", "N-Methyl-N-(pyridin-2-ylmethyl)amine", "2-(2-Methylaminomethyl)pyridine", "NSC 63910", "N-Methylpyridine-2-methanamine", "N-Methyl-1-(pyridin-2-yl)methanamine", "Methyl(pyridin-2-ylmethyl)amine"], "SMILES": "C(NC)C1=CC=CC=N1", "physical_data": {"Molecular Weight": "122.17", "Molecular Formula": "C7H10N2", "Boiling Point": "78-80 \u00b0C @ Press: 10 Torr", "Melting Point": "64 \u00b0C"}}