{"cas_no": "2103-57-3", "cn_name": "2,3,4\u2014\u4e09\u7532\u6c27\u57fa\u82ef\u7532\u919b", "en_name": ["2,3,4-Trimethoxybenzaldehyde", "Benzaldehyde, 2,3,4-trimethoxy-", "2,3,4-Trimethoxybenzaldehyde"], "SMILES": "O(C)C1=C(OC)C(OC)=CC=C1C=O", "physical_data": {"Molecular Weight": "196.20", "Molecular Formula": "C10H12O4", "Boiling Point": "170 \u00b0C @ Press: 12 Torr", "Melting Point": "30 \u00b0C"}}