{"cas_no": "21038-67-5", "cn_name": "\u5421\u5576\u5e76[3,4-D]\u5627\u5576-2,4(1H,3H)-\u4e8c\u916e", "en_name": ["Pyrido[3,4-d]pyrimidine-2,4(1H,3H)-dione", "Pyrido[3,4-d]pyrimidine-2,4(1H,3H)-dione", "NSC 127963", "1H-Pyrido[3,4-d]pyrimidine-2,4-dione", "1H,2H,3H,4H-Pyrido[3,4-d]pyrimidine-2,4-dione", "2-Hydroxy-3H-pyrido[3,4-d]pyrimidin-4-one"], "SMILES": "O=C1C=2C(NC(=O)N1)=CN=CC2", "physical_data": {"Molecular Weight": "163.13", "Molecular Formula": "C7H5N3O2", "Melting Point": "&gt;320 \u00b0C"}}