{"cas_no": "2103-64-2", "cn_name": "\u7126\u915a\u915e\u5355\u6c34\u5408\u7269", "en_name": ["Gallein", "Spiro[isobenzofuran-1(3H),9\u2032-[9H]xanthen]-3-one, 3\u2032,4\u2032,5\u2032,6\u2032-tetrahydroxy-", "Gallein", "3\u2032,4\u2032,5\u2032,6\u2032-Tetrahydroxyspiro[isobenzofuran-1(3H),9\u2032-[9H]xanthen]-3-one", "C.I. 45445", "C.I. Mordant Violet 25", "Pyrogallolphthalein", "Alizarine violet", "Mordant Violet 25", "NSC 622478", "NSC 56445", "NSC 8668", "3\u2032,4\u2032,5\u2032,6\u2032-Tetrahydroxyspiro[2-benzofuran-3,9\u2032-xanthene]-1-one hydrate", "3\u2032,4\u2032,5\u2032,6\u2032-Tetrahydroxyspiro[2-benzofuran-3,9\u2032-xanthene]-1-one", "3\u2032,4\u2032,5\u2032,6\u2032-Tetrahydroxy-3H-spiro[isobenzofuran-1,9\u2032-xanthen]-3-one"], "SMILES": "O=C1OC2(C=3C(OC=4C2=CC=C(O)C4O)=C(O)C(O)=CC3)C=5C1=CC=CC5", "physical_data": {"Molecular Weight": "364.31", "Molecular Formula": "C20H12O7", "Melting Point": "&gt;300 \u00b0C"}}