{"cas_no": "2103-88-0", "cn_name": "2-\u5def\u57fa-4-\u82ef\u57fa\u567b\u5511", "en_name": ["2-Mercapto-4-phenylthiazole", "2(3H)-Thiazolethione, 4-phenyl-", "4-Thiazoline-2-thione, 4-phenyl-", "2-Thiazolethiol, 4-phenyl-", "4-Phenyl-2(3H)-thiazolethione", "2-Mercapto-4-phenylthiazole", "4-Phenyl-\u03944-thiazoline-2-thione", "4-Phenyl-2-mercaptothiazole", "4-Phenylthiazole-2-thiol", "4-Phenyl-4-thiazoline-2-thione", "4-Phenyl-1,3-thiazole-2-thiol", "NSC 678", "3-Phenylthiazole-2-thiol"], "SMILES": "S=C1NC(=CS1)C2=CC=CC=C2", "physical_data": {"Molecular Weight": "193.29", "Molecular Formula": "C9H7NS2", "Melting Point": "168 \u00b0C"}}