{"cas_no": "2103-99-3", "cn_name": "5-\u7532\u9170\u57fa\u567b\u5511-2-\u6c28\u57fa\u7532\u9178\u53d4\u4e01\u916f", "en_name": ["4-(4-Chlorophenyl)-2-thiazolamine", "2-Thiazolamine, 4-(4-chlorophenyl)-", "Thiazole, 2-amino-4-(p-chlorophenyl)-", "4-(4-Chlorophenyl)-2-thiazolamine", "2-Amino-4-(p-chlorophenyl)thiazole", "4-(p-Chlorophenyl)-2-aminothiazole", "2-Amino-4-(4-chlorophenyl)thiazole", "T 157602", "4-(4\u2032-Chlorophenyl)-2-aminothiazole", "NSC 372682", "4-(4-Chlorophenyl)thiazol-2-amine", "4-(4-Chlorophenyl)thiazol-2-ylamine", "4-(4-Chlorophenyl)-1,3-thiazol-2-amine", "4-(4-Chlorophenyl)-2-aminothiazole"], "SMILES": "NC1=NC(C2=CC=C(Cl)C=C2)=CS1", "physical_data": {"Molecular Weight": "210.68", "Molecular Formula": "C9H7ClN2S", "Melting Point": "163-164 \u00b0C"}}