{"cas_no": "2104-64-5", "cn_name": "\u82ef\u786b\u78f7\u916f", "en_name": ["O-Ethyl O-(4-nitrophenyl) phenylphosphonothioate", "Phosphonothioic acid, P-phenyl-, O-ethyl O-(4-nitrophenyl) ester", "Phosphonothioic acid, phenyl-, O-ethyl O-(p-nitrophenyl) ester", "Phosphonothioic acid, phenyl-, O-ethyl O-(4-nitrophenyl) ester", "Phosphonothioic acid, phenyl-, ethyl p-nitrophenyl ester", "EPN 300", "EPN", "O-Ethyl O-(4-nitrophenyl) benzenethionophosphonate", "O-Ethyl O-p-nitrophenyl benzenethiophosphonate", "O-Ethyl O-(4-nitrophenyl) phenylphosphonothioate", "O-Ethyl O-(p-nitrophenyl) phenylphosphonothioate", "Santox", "NSC 404840", "NSC 8943", "O-ETHYL O-(P-NITROPHENYL) PHENYLPHOSPHONOTHIOATE"], "SMILES": "P(OC1=CC=C(N(=O)=O)C=C1)(OCC)(=S)C2=CC=CC=C2", "physical_data": {"Molecular Weight": "323.30", "Molecular Formula": "C14H14NO4PS", "Boiling Point": "215 \u00b0C @ Press: 5 Torr", "Melting Point": "36 \u00b0C", "Density": "1.270 g/cm\u00b3 @ Temp: 25 \u00b0C"}}