{"cas_no": "2104-19-0", "cn_name": "\u58ec\u4e8c\u9178\u6c22\u7532\u916f", "en_name": ["Monomethyl azelate", "Nonanedioic acid, 1-methyl ester", "Azelaic acid, monomethyl ester", "Nonanedioic acid, monomethyl ester", "Azelaic acid, methyl ester", "Monomethyl azelate", "8-Carbomethoxyoctanoic acid", "Methyl hydrogen azelate", "Monomethyl nonanedioate", "Methyl 8-carboxyoctanoate", "Monomethyl azelaate", "9-Methoxy-9-oxononanoic acid", "NSC 60226", "8-(Methoxycarbonyl)octanoic acid"], "SMILES": "C(CCCCCCCC(O)=O)(OC)=O", "physical_data": {"Molecular Weight": "202.25", "Molecular Formula": "C10H18O4", "Boiling Point": "190-195 \u00b0C", "Melting Point": "21-24 \u00b0C"}}