{"cas_no": "21040-45-9", "cn_name": "CINNAMYL ACETATE", "en_name": ["trans-Cinnamyl acetate", "2-Propen-1-ol, 3-phenyl-, 1-acetate, (2E)-", "Cinnamyl alcohol, acetate, (E)-", "2-Propen-1-ol, 3-phenyl-, acetate, (E)-", "2-Propen-1-ol, 3-phenyl-, acetate, (2E)-", "trans-Cinnamyl acetate", "(E)-3-Phenyl-2-propenyl acetate", "(E)-Cinnamyl acetate", "trans-3-Acetoxy-1-phenyl-1-propene", "(E)-3-Acetoxy-1-phenyl-1-propene", "(E)-3-Phenylprop-2-en-1-yl acetate", "(2E)-3-Phenyl-2-propen-1-ol acetate", "(E)-3-Phenylallyl acetate", "trans-3-Phenyl-2-propenyl acetate", "Acetic acid (E)-3-phenyl-2-propenyl ester"], "SMILES": "C(=CCOC(C)=O)C1=CC=CC=C1", "physical_data": {"Molecular Weight": "176.21", "Molecular Formula": "C11H12O2", "Boiling Point": "139-140 \u00b0C @ Press: 10 Torr", "Melting Point": "115-120 \u00b0C", "Density": "1.0520 g/cm\u00b3 @ Temp: 22 \u00b0C"}}