{"cas_no": "2104-96-3", "cn_name": "\u6eb4\u78f7\u677e", "en_name": ["Bromophos", "Phosphorothioic acid, O-(4-bromo-2,5-dichlorophenyl) O,O-dimethyl ester", "Cela S 1942", "S 1942", "O-(4-Bromo-2,5-dichlorophenyl) O,O-dimethyl phosphorothioate", "4-Bromo-2,5-dichlorophenyl dimethyl phosphorothionate", "Bromophos", "O,O-Dimethyl O-(4-bromo-2,5-dichlorophenyl) phosphorothioate", "O,O-Dimethyl-O-(2,5-dichloro-4-bromophenyl)phosphorothioate", "O,O-Dimethyl O-(2,5-dichloro-4-bromophenyl) thiophosphate", "EL 400", "Nexion", "Nexion 40", "Bromofos", "OMS 658", "Nexion LC 40", "Drillzid", "Bromovur", "Bromophos-methyl", "Nexion 5G", "Metabrom", "Sovinexion", "Omexan", "Nexion 40EC", "Nexion 25WP", "O,O-Dimethyl O-(4-bromo-2,5-dichlorophenyl) phosphorothionate", "NSC 527602"], "SMILES": "O(P(OC)(OC)=S)C1=C(Cl)C=C(Br)C(Cl)=C1", "physical_data": {"Molecular Weight": "366.00", "Molecular Formula": "C8H8BrCl2O3PS", "Boiling Point": "140-142 \u00b0C @ Press: 0.01 Torr", "Melting Point": "53-54 \u00b0C"}}