{"cas_no": "2104-09-8", "cn_name": "4-(4-\u785d\u57fa\u82ef\u57fa)-1,3-\u567b\u5511-2-\u80fa", "en_name": ["2-Amino-4-(p-nitrophenyl)thiazole", "2-Thiazolamine, 4-(4-nitrophenyl)-", "Thiazole, 2-amino-4-(p-nitrophenyl)-", "4-(4-Nitrophenyl)-2-thiazolamine", "2-Amino-4-(p-nitrophenyl)thiazole", "4-(4-Nitrophenyl)thiazol-2-amine", "2-Amino-4-(4-nitrophenyl)thiazole", "4-(4-Nitrophenyl)-1,3-thiazol-2-amine", "2-Amino-4-(4\u2032-nitrophenyl)-1,3-thiazole"], "SMILES": "NC1=NC(C2=CC=C(N(=O)=O)C=C2)=CS1", "physical_data": {"Molecular Weight": "221.24", "Molecular Formula": "C9H7N3O2S", "Melting Point": "285-286 \u00b0C"}}