{"cas_no": "2104-04-3", "cn_name": "4-(4-\u7532\u6c27\u57fa\u82ef\u57fa)-1,3-\u567b\u5511-2-\u80fa", "en_name": ["2-Amino-4-(4-methoxyphenyl)thiazole", "2-Thiazolamine, 4-(4-methoxyphenyl)-", "Thiazole, 2-amino-4-(p-methoxyphenyl)-", "4-(4-Methoxyphenyl)-2-thiazolamine", "2-Amino-4-(p-methoxyphenyl)thiazole", "2-Amino-4-(4-methoxyphenyl)thiazole", "2-Amino-4-(p-anisyl)thiazole", "4-(4-Methoxyphenyl)thiazol-2-ylamine", "4-(4-Methoxyphenyl)-1,3-thiazol-2-amine"], "SMILES": "NC1=NC(=CS1)C2=CC=C(OC)C=C2", "physical_data": {"Molecular Weight": "206.26", "Molecular Formula": "C10H10N2OS", "Melting Point": "204-205 \u00b0C"}}