{"cas_no": "2105-61-5", "cn_name": "2,4,5-\u4e09\u6c1f\u785d\u57fa\u82ef", "en_name": ["1,2,4-Trifluoro-5-nitrobenzene", "Benzene, 1,2,4-trifluoro-5-nitro-", "1,2,4-Trifluoro-5-nitrobenzene", "2,4,5-Trifluoronitrobenzene", "2,4,5-Trifluoro-1-nitrobenzene", "5-Nitro-1,2,4-trifluorobenzene", "NSC 10248"], "SMILES": "N(=O)(=O)C1=C(F)C=C(F)C(F)=C1", "physical_data": {"Molecular Weight": "177.08", "Molecular Formula": "C6H2F3NO2", "Boiling Point": "194.5 \u00b0C", "Melting Point": "-11 \u00b0C"}}