{"cas_no": "2105-43-3", "cn_name": "\u76d0\u9178\u544b\u5583\u786b\u80fa", "en_name": ["Formamide, N-[(4-amino-2-methyl-5-pyrimidinyl)methyl]-N-[4-hydroxy-1-methyl-2-[[(tetrahydro-2-furanyl)methyl]dithio]-1-buten-1-yl]-, hydrochloride (1:1)", "Formamide, N-[(4-amino-2-methyl-5-pyrimidinyl)methyl]-N-[4-hydroxy-1-methyl-2-[[(tetrahydro-2-furanyl)methyl]dithio]-1-buten-1-yl]-, hydrochloride (1:1)", "Formamide, N-[(4-amino-2-methyl-5-pyrimidinyl)methyl]-N-[4-hydroxy-1-methyl-2-[(tetrahydrofurfuryl)dithio]-1-butenyl]-, monohydrochloride", "Formamide, N-[(4-amino-2-methyl-5-pyrimidinyl)methyl]-N-[4-hydroxy-1-methyl-2-[[(tetrahydro-2-furanyl)methyl]dithio]-1-butenyl]-, monohydrochloride", "Thiamine tetrahydrofurfuryl disulfide hydrochloride", "TTFD hydrochloride", "Thiamin tetrahydrofurfuryl disulfide hydrochloride", "Fursultiamine hydrochloride"], "SMILES": "C(N(C(=C(SSCC1CCCO1)CCO)C)C=O)C=2C(N)=NC(C)=NC2.Cl", "physical_data": {"Molecular Weight": "", "Molecular Formula": "C17H26N4O3S2.ClH", "Melting Point": "160 \u00b0C (decomp)"}}