{"cas_no": "21050-95-3", "cn_name": "1-\u6c2f\u82ef\u5e76\u4e09\u6c2e\u5511", "en_name": ["1-Chlorobenzotriazole", "1H-Benzotriazole, 1-chloro-", "1-Chloro-1H-benzotriazole", "1-Chlorobenzotriazole", "N-Chlorobenzotriazole", "1-Chloro-1,2,3-benzotriazole", "NSC 186037", "1-Chloro-1H-1,2,3-benzotriazole"], "SMILES": "ClN1C=2C(=CC=CC2)N=N1", "physical_data": {"Molecular Weight": "153.57", "Molecular Formula": "C6H4ClN3", "Melting Point": "105-106 \u00b0C"}}