{"cas_no": "21050-13-5", "cn_name": "\u53cc(\u4e09\u82ef\u57fa\u6b63\u81a6\u57fa)\u6c2f\u5316\u94f5", "en_name": ["Bis(triphenylphosphine)iminium chloride", "Phosphorus(1+), triphenyl(P,P,P-triphenylphosphine imidato-\u03baN)-, chloride (1:1), (T-4)-", "Phosphorus(1+), triphenyl(P,P,P-triphenylphosphine imidato)-, chloride", "Phosphorus(1+), triphenyl(P,P,P-triphenylphosphine imidato-N)-, chloride, (T-4)-", "Bis(triphenylphosphoranylidene)ammonium chloride", "Phosphorus(1+), triphenyl(P,P,P-triphenylphosphine imidato-\u03baN)-, chloride, (T-4)-", "Phosphine imide, P,P,P-triphenyl-, phosphorus complex", "Bis(triphenylphosphine)iminium chloride", "Triphenyl(P,P,P-triphenylphosphine imidato)phosphorus(1+) chloride", "Bis(triphenylphosphine)iminium monochloride", "PPNCl", "Bis(triphenylphosphoranylidene)iminium chloride", "Bis(triphenylphosphoranyldiene)ammonium chloride"], "SMILES": "[P+](N=P(C1=CC=CC=C1)(C2=CC=CC=C2)C3=CC=CC=C3)(C4=CC=CC=C4)(C5=CC=CC=C5)C6=CC=CC=C6.[Cl-]", "physical_data": {"Molecular Weight": "", "Molecular Formula": "C36H30NP2.Cl", "Melting Point": "272 \u00b0C"}}