{"cas_no": "2105-94-4", "cn_name": "4-\u6eb4-2-\u6c1f\u82ef\u915a", "en_name": ["4-Bromo-2-fluorophenol", "Phenol, 4-bromo-2-fluoro-", "4-Bromo-2-fluorophenol", "2-Fluoro-4-bromophenol", "p-Bromo-o-fluorophenol", "3-Fluoro-4-hydroxybromobenzene"], "SMILES": "FC1=C(O)C=CC(Br)=C1", "physical_data": {"Molecular Weight": "191.00", "Molecular Formula": "C6H4BrFO", "Boiling Point": "64 \u00b0C @ Press: 7 Torr"}}