{"cas_no": "210580-75-9", "cn_name": "1-((S)-2-AMINO-PROPYL)-1H-INDAZOL-6-OL", "en_name": ["1-[(2S)-2-Aminopropyl]-1H-indazol-6-ol", "1H-Indazol-6-ol, 1-[(2S)-2-aminopropyl]-", "1-[(2S)-2-Aminopropyl]-1H-indazol-6-ol", "1-((S)-2-Aminopropyl)-1H-indazol-6-ol", "1H-Indazol-6-ol 1-[(2S)-2-aminopropyl]-", "1-[(2S)-2-Aminopropyl]-1H-indazol-6-ol"], "SMILES": "C(C(C)N)N1C=2C(C=N1)=CC=C(O)C2", "physical_data": {"Molecular Weight": "191.23", "Molecular Formula": "C10H13N3O", "Melting Point": "170-172 \u00b0C"}}