{"cas_no": "2106-50-5", "cn_name": "2-\u6c2f-4-\u6c1f\u785d\u57fa\u82ef", "en_name": ["2-Chloro-4-fluoro-1-nitrobenzene", "Benzene, 2-chloro-4-fluoro-1-nitro-", "2-Chloro-4-fluoro-1-nitrobenzene", "2-Chloro-4-fluoronitrobenzene", "3-Chloro-4-nitrofluorobenzene", "1-Fluoro-3-chloro-4-nitrobenzene", "2-Fluoro-4-chloronitrobenzene"], "SMILES": "N(=O)(=O)C1=C(Cl)C=C(F)C=C1", "physical_data": {"Molecular Weight": "175.54", "Molecular Formula": "C6H3ClFNO2", "Boiling Point": "238.5 \u00b0C", "Melting Point": "37.25 \u00b0C"}}