{"cas_no": "2106-02-7", "cn_name": "2-\u6c2f-4-\u6c1f\u82ef\u80fa", "en_name": ["2-Chloro-4-fluorobenzenamine", "Benzenamine, 2-chloro-4-fluoro-", "Aniline, 2-chloro-4-fluoro-", "2-Chloro-4-fluorobenzenamine", "2-Chloro-4-fluoroaniline", "(2-Chloro-4-fluorophenyl)amine", "4-Fluoro-2-chloroaniline"], "SMILES": "ClC1=C(N)C=CC(F)=C1", "physical_data": {"Molecular Weight": "145.56", "Molecular Formula": "C6H5ClFN", "Boiling Point": "70-71 \u00b0C @ Press: 0.25 Torr"}}