{"cas_no": "21062-20-4", "cn_name": "2,2'-\u6c27\u5316\u4e8c\u4e59\u9170\u6c2f", "en_name": ["2,2\u2032-Oxybis[acetyl chloride]", "Acetyl chloride, 2,2\u2032-oxybis-", "Acetyl chloride, oxydi-", "2,2\u2032-Oxybis[acetyl chloride]", "Diglycolic acid dichloride", "Oxydiacetyl chloride", "Diglycolyl dichloride", "2,2\u2032-Oxydiacetyl chloride", "Diglycolic dichloride", "Diglycoloyl chloride", "Oxydiacetyl dichloride", "Oxybis(acetyl chloride)", "Diglycolic acid chloride", "2-(2-Chloro-2-oxoethoxy)acetyl chloride", "Diglycolyl chloride"], "SMILES": "O(CC(Cl)=O)CC(Cl)=O", "physical_data": {"Molecular Weight": "170.98", "Molecular Formula": "C4H4Cl2O3", "Boiling Point": "37-38 \u00b0C @ Press: 1.05 Torr", "Melting Point": "121-123 \u00b0C"}}