{"cas_no": "2106-49-2", "cn_name": "3-\u6c2f-2-\u6c1f\u785d\u57fa\u82ef", "en_name": ["1-Chloro-2-fluoro-3-nitrobenzene", "Benzene, 1-chloro-2-fluoro-3-nitro-", "1-Chloro-2-fluoro-3-nitrobenzene", "3-Chloro-2-fluoronitrobenzene", "2-Fluoro-3-chloronitrobenzene", "NSC 190665"], "SMILES": "N(=O)(=O)C1=C(F)C(Cl)=CC=C1", "physical_data": {"Molecular Weight": "175.54", "Molecular Formula": "C6H3ClFNO2", "Boiling Point": "106 \u00b0C @ Press: 5 Torr", "Melting Point": "5 \u00b0C"}}