{"cas_no": "2107-69-9", "cn_name": "5,6-\u4e8c\u7532\u6c27\u57fa\u831a\u916e", "en_name": ["5,6-Dimethoxy-1-indanone", "1H-Inden-1-one, 2,3-dihydro-5,6-dimethoxy-", "1-Indanone, 5,6-dimethoxy-", "2,3-Dihydro-5,6-dimethoxy-1H-inden-1-one", "5,6-Dimethoxy-1-indanone", "NSC 401450", "5,6-Dimethoxy-2,3-dihydro-1H-inden-1-one", "2,3-Dihydro-5,6-dimethoxyinden-1-one"], "SMILES": "O=C1C=2C(=CC(OC)=C(OC)C2)CC1", "physical_data": {"Molecular Weight": "192.21", "Molecular Formula": "C11H12O3", "Boiling Point": "138-139 \u00b0C @ Press: 2 Torr", "Melting Point": "120 \u00b0C"}}