{"cas_no": "2107-76-8", "cn_name": "5,7-\u4e8c\u7f9f\u57fa-4-\u7532\u57fa\u9999\u8c46\u7d20", "en_name": ["5,7-Dihydroxy-4-methylcoumarin", "2H-1-Benzopyran-2-one, 5,7-dihydroxy-4-methyl-", "Coumarin, 5,7-dihydroxy-4-methyl-", "5,7-Dihydroxy-4-methyl-2H-1-benzopyran-2-one", "4-Methyl-5,7-dihydroxycoumarin", "5,7-Dihydroxy-4-methylcoumarin", "NSC 5302", "5,7-Dihydroxy-4-methyl-chromen-2-one", "5,7-Dihydroxy-4-methyl-2H-chromen-2-one"], "SMILES": "CC=1C=2C(=CC(O)=CC2O)OC(=O)C1", "physical_data": {"Molecular Weight": "192.17", "Molecular Formula": "C10H8O4", "Melting Point": "282-284 \u00b0C"}}