{"cas_no": "2107-70-2", "cn_name": "3,4-\u4e8c\u7532\u6c27\u57fa\u82ef\u4e19\u9178", "en_name": ["3-(3,4-Dimethoxyphenyl)propionic acid", "Benzenepropanoic acid, 3,4-dimethoxy-", "Hydrocinnamic acid, 3,4-dimethoxy-", "3,4-Dimethoxybenzenepropanoic acid", "3-(3,4-Dimethoxyphenyl)propionic acid", "\u03b2-(3,4-Dimethoxyphenyl)propionic acid", "3,4-Dimethoxyhydrocinnamic acid", "3,4-Dimethoxyphenylpropionic acid", "3-(3,4-Dimethoxyphenyl)propanoic acid", "3,4-Dimethoxybenzenepropionic acid", "3,4-Dimethoxydihydrocinnamic acid", "NSC 76043"], "SMILES": "O(C)C1=C(OC)C=CC(CCC(O)=O)=C1", "physical_data": {"Molecular Weight": "210.23", "Molecular Formula": "C11H14O4", "Melting Point": "98-99 \u00b0C"}}