{"cas_no": "21078-72-8", "cn_name": "3-\u7532\u57fa-3-\u58ec\u9187", "en_name": ["3-Methyl-3-nonanol", "3-Nonanol, 3-methyl-", "3-Methyl-3-nonanol", "2-Ethyl-2-octanol", "Ethylhexylmethylcarbinol", "3-Methylnonan-3-ol", "(\u00b1)-3-Methyl-3-nonanol"], "SMILES": "C(C(CC)(C)O)CCCCC", "physical_data": {"Molecular Weight": "158.28", "Molecular Formula": "C10H22O", "Boiling Point": "75-76 \u00b0C @ Press: 5 Torr"}}