{"cas_no": "2107-77-9", "cn_name": "7,8-\u4e8c\u7f9f\u57fa-4-\u7532\u57fa\u9999\u8c46\u7d20", "en_name": ["7,8-Dihydroxy-4-methylcoumarin", "2H-1-Benzopyran-2-one, 7,8-dihydroxy-4-methyl-", "Coumarin, 7,8-dihydroxy-4-methyl-", "7,8-Dihydroxy-4-methyl-2H-1-benzopyran-2-one", "7,8-Dihydroxy-4-methylcoumarin", "4-Methyl-7,8-dihydroxycoumarin", "4-Methyldaphnetin", "NSC 45795", "NSC 72276", "7,8-Dihydroxy-4-methyl-chromen-2-one", "7,8-Dihydroxy-4-methyl-2H-chromen-2-one"], "SMILES": "CC=1C=2C(=C(O)C(O)=CC2)OC(=O)C1", "physical_data": {"Molecular Weight": "192.17", "Molecular Formula": "C10H8O4", "Melting Point": "238 \u00b0C"}}