{"cas_no": "21087-64-9", "cn_name": "\u55ea\u8349\u916e", "en_name": ["Metribuzin", "1,2,4-Triazin-5(4H)-one, 4-amino-6-(1,1-dimethylethyl)-3-(methylthio)-", "as-Triazin-5(4H)-one, 4-amino-6-tert-butyl-3-(methylthio)-", "4-Amino-6-(1,1-dimethylethyl)-3-(methylthio)-1,2,4-triazin-5(4H)-one", "4-Amino-6-tert-butyl-3-(methylthio)-as-triazin-5(4H)-one", "BAY 94337", "4-Amino-6-tert-butyl-3-(methylthio)-1,2,4-triazin-5-one", "Sencor", "Metribuzin", "BAY 61597", "4-Amino-6-tert-butyl-3-(methylthio)-1,2,4-triazin-5(4H)-one", "4-Amino-6-tert-butyl-3-(methylthio)-4,5-dihydro-1,2,4-triazin-5-one", "Bayer 6159", "Sencorex", "BAY 6159H", "BAY 6159", "Lexone", "4-Amino-6-tert-butyl-3-(methylthio)-1,2,4-triazine-5(4H)-one", "3-Methylthio-4-amino-6-tert-butyl-1,2,4-triazin-5-one", "3-Methylthio-4-amino-6-tert-butyl-1,2,4-triazin-5(4H)-one", "Sencorex L.F.", "Sencor 4F", "Sencor 75DF", "Lexone DF", "Metribuzine", "Senkor", "DPX 2504", "Zontran", "DIC 1468", "4-Amino-6-tert-butyl-4,5-dihydro-3-methylthio-1,2,4-triazin-5-one", "Sencor 480", "Soccer", "Soccer (herbicide)", "Tribute", "Tribute (metribuzin herbicide)", "Sencor Extra", "Sencor 70 WG", "Sencor SC", "Qincaotong", "Metribuzin 70 WP", "Dimetric Liquid"], "SMILES": "C(C)(C)(C)C=1C(=O)N(N)C(SC)=NN1", "physical_data": {"Molecular Weight": "214.29", "Molecular Formula": "C8H14N4OS", "Boiling Point": "132 \u00b0C @ Press: 0.02 Torr", "Melting Point": "126.2 \u00b0C", "Density": "1.28 g/cm\u00b3 @ Temp: 20 \u00b0C"}}