{"cas_no": "21080-92-2", "cn_name": "3-\u567b\u5429\u4e19\u4e8c\u9178", "en_name": ["3-Thiophenemalonic acid", "Propanedioic acid, 2-(3-thienyl)-", "3-Thiophenemalonic acid", "Propanedioic acid, 3-thienyl-", "2-(3-Thienyl)propanedioic acid", "3-Thienylmalonic acid", "2-(3-Thienyl)malonic acid", "2-(Thiophen-3-yl)malonic acid", "2-Thiophen-3-ylpropanedioic acid", "2-(Thiophen-3-yl)propanedioic acid"], "SMILES": "C(C(O)=O)(C(O)=O)C=1C=CSC1", "physical_data": {"Molecular Weight": "186.19", "Molecular Formula": "C7H6O4S", "Melting Point": "139-140 \u00b0C (decomp)"}}