{"cas_no": "21085-72-3", "cn_name": "\u0391-D -\u8461\u8404\u7cd6\u919b\u9178\u7532\u57fa\u916f", "en_name": ["Acetobromo-\u03b1-D-glucuronic acid methyl ester", "\u03b1-D-Glucopyranuronic acid, 1-bromo-1-deoxy-, methyl ester, 2,3,4-triacetate", "Glucopyranuronic acid, 1-bromo-1-deoxy-, methyl ester, triacetate, \u03b1-D-", "\u03b1-D-Glucopyranuronic acid, 1-bromo-1-deoxy-, methyl ester, triacetate", "Glucuronic acid, 1-bromo-1-deoxy-, methyl ester, 2,3,4-triacetate", "Methyl acetobromoglucuronate", "Methyl 2,3,4-tri-O-acetyl-1-bromo-1-deoxy-\u03b1-D-glucopyranosyluronate", "Methyl 2,3,4-tri-O-acetyl-1-bromo-1-deoxy-\u03b1-D-glucopyranuranate", "Methyl (tri-O-acetyl-\u03b1-D-glucopyranosyl bromide)uronate", "Methyl 1-bromo-1-deoxy-2,3,4-tri-O-acetyl-\u03b1-D-glucopyranuronate", "Methyl \u03b1-acetobromglucuronate", "Methyl \u03b1-acetobromoglucuronate", "Methyl 2,3,4-tri-O-acetyl-\u03b1-bromoglucuronate", "Acetobromo-\u03b1-D-glucuronic acid methyl ester", "Methyl 2,3,4-tri-O-acetyl-1-bromo-\u03b1-D-glucopyranuronate", "Methyl (2,3,4-tri-O-acetyl-\u03b1-D-glucopyranosyl bromide)uronate", "Methyl (2S,3S,4S,5R,6R)-3,4,5-triacetoxy-6-bromo-tetrahydropyran-2-carboxylate"], "SMILES": "O(C(C)=O)C1C(OC(C)=O)C(C(OC)=O)OC(Br)C1OC(C)=O", "physical_data": {"Molecular Weight": "397.17", "Molecular Formula": "C13H17BrO9", "Melting Point": "106-107 \u00b0C"}}