{"cas_no": "2109-66-2", "cn_name": "N-(2-\u7f9f\u4e19\u57fa)\u5417\u5549", "en_name": ["N-(2-Hydroxypropyl)morpholine", "4-Morpholineethanol, \u03b1-methyl-", "\u03b1-Methyl-4-morpholineethanol", "N-(\u03b2-Hydroxypropyl)morpholine", "N-(2-Hydroxypropyl)morpholine", "1-Morpholino-2-propanol", "4-(2-Hydroxypropyl)morpholine", "(\u00b1)-1-Morpholino-2-propanol", "NSC 61987", "1-(Morpholin-4-yl)propan-2-ol", "1-Morpholinopropan-2-ol"], "SMILES": "C(C(C)O)N1CCOCC1", "physical_data": {"Molecular Weight": "145.20", "Molecular Formula": "C7H15NO2", "Boiling Point": "97-98 \u00b0C @ Press: 13 Torr", "Density": "1.0203 g/cm\u00b3 @ Temp: 20 \u00b0C"}}