{"cas_no": "210963-94-3", "cn_name": "6-\u5421\u54af\u5549\u70df\u9178\u7532\u916f", "en_name": ["Methyl 6-(1-pyrrolidinyl)-3-pyridinecarboxylate", "3-Pyridinecarboxylic acid, 6-(1-pyrrolidinyl)-, methyl ester", "Methyl 6-(1-pyrrolidinyl)-3-pyridinecarboxylate"], "SMILES": "C(OC)(=O)C1=CC=C(N=C1)N2CCCC2", "physical_data": {"Molecular Weight": "206.24", "Molecular Formula": "C11H14N2O2", "Melting Point": "122.6-123.6 \u00b0C"}}