{"cas_no": "2110-18-1", "cn_name": "2-(3-\u82ef\u4e19\u57fa)\u5421\u5576", "en_name": ["2-(3-Phenylpropyl)pyridine", "Pyridine, 2-(3-phenylpropyl)-", "2-(3-Phenylpropyl)pyridine"], "SMILES": "C(CCC1=CC=CC=N1)C2=CC=CC=C2", "physical_data": {"Molecular Weight": "197.28", "Molecular Formula": "C14H15N", "Boiling Point": "132-135 \u00b0C @ Press: 2 Torr", "Density": "1.0171 g/cm\u00b3 @ Temp: 25 \u00b0C"}}