{"cas_no": "21104-28-9", "cn_name": "\u9a6c\u6c49\u4e5d\u91cc\u9999\u78b1", "en_name": ["Mahanimbine", "Pyrano[3,2-a]carbazole, 3,11-dihydro-3,5-dimethyl-3-(4-methyl-3-penten-1-yl)-, (3S)-", "Mahanimbine", "Pyrano[3,2-a]carbazole, 3,11-dihydro-3,5-dimethyl-3-(4-methyl-3-pentenyl)-, (+)-", "(3S)-3,11-Dihydro-3,5-dimethyl-3-(4-methyl-3-penten-1-yl)pyrano[3,2-a]carbazole", "Mahanimbin", "(+)-(S)-Mahanimbine"], "SMILES": "CC1=C2C(=C3C(C=4C(N3)=CC=CC4)=C1)C=CC(CCC=C(C)C)(C)O2", "physical_data": {"Molecular Weight": "331.45", "Molecular Formula": "C23H25NO", "Melting Point": "94-95 \u00b0C"}}