{"cas_no": "2110-78-3", "cn_name": "2-\u7f9f\u57fa\u5f02\u4e01\u9178\u7532\u916f", "en_name": ["Methyl 2-hydroxyisobutyrate", "Propanoic acid, 2-hydroxy-2-methyl-, methyl ester", "Lactic acid, 2-methyl-, methyl ester", "Methyl \u03b1-hydroxyisobutyrate", "Methyl 2-methyllactate", "Methyl 2-hydroxy-2-methylpropionate", "Methyl 2-hydroxyisobutyrate", "\u03b1-Hydroxyisobutyric acid methyl ester", "Methyl 2-methyl-2-hydroxypropionate", "Methyl 2-hydroxy-2-methylpropanoate", "2-Hydroxyisobutyric acid methyl ester", "NSC 7305", "NSC 9381", "2-Hydroxy-2-methylpropionic acid methyl ester", "Methyl 2-hydroxyisobutanoate"], "SMILES": "C(C(C)(C)O)(OC)=O", "physical_data": {"Molecular Weight": "118.13", "Molecular Formula": "C5H10O3", "Boiling Point": "137 \u00b0C"}}