{"cas_no": "21101-63-3", "cn_name": "4-(\u4e09\u6c1f\u7532\u57fa\u786b\u4ee3)\u82ef\u7532\u57fa\u6eb4", "en_name": ["1-(Bromomethyl)-4-[(trifluoromethyl)thio]benzene", "Benzene, 1-(bromomethyl)-4-[(trifluoromethyl)thio]-", "Sulfide, \u03b1-bromo-p-tolyl trifluoromethyl", "1-(Bromomethyl)-4-[(trifluoromethyl)thio]benzene", "4-(Trifluoromethylthio)benzyl bromide", "4-Trifluoromethylsulfanylbenzyl bromide", "1-Bromomethyl-4-trifluoromethylsulfanylbenzene"], "SMILES": "S(C(F)(F)F)C1=CC=C(CBr)C=C1", "physical_data": {"Molecular Weight": "271.10", "Molecular Formula": "C8H6BrF3S", "Boiling Point": "105-106 \u00b0C @ Press: 760 Torr", "Melting Point": "52-52.5 \u00b0C"}}