{"cas_no": "211053-50-8", "cn_name": "(S)-3-\u7f9f\u7532\u57fa\u5417\u5549", "en_name": ["(3S)-3-Morpholinemethanol", "3-Morpholinemethanol, (3S)-", "(3S)-3-Morpholinemethanol", "(S)-3-Hydroxymethylmorpholine", "(3S)-3-(Hydroxymethyl)morpholine", "(S)-3-Morpholinemethanol", "[(3S)-Morpholin-3-yl)methanol"], "SMILES": "C(O)C1COCCN1", "physical_data": {"Molecular Weight": "117.15", "Molecular Formula": "C5H11NO2", "Melting Point": "112 \u00b0C"}}