{"cas_no": "2111-75-3", "cn_name": "L-\u7d2b\u82cf\u919b", "en_name": ["Perillaldehyde", "1-Cyclohexene-1-carboxaldehyde, 4-(1-methylethenyl)-", "Perillaldehyde", "1-Cyclohexene-1-carboxaldehyde, 4-isopropenyl-", "4-(1-Methylethenyl)-1-cyclohexene-1-carboxaldehyde", "Perilla aldehyde", "4-Isopropenyl-1-cyclohexene-1-carboxaldehyde", "Perillal", "p-Mentha-1,8-dien-7-al", "Perillyl aldehyde", "4-Isopropenyl-1-cyclohexenecarboxaldehyde", "4-(2-Propenyl)-1-cyclohexenecarboxaldehyde", "(\u00b1)-Perillaldehyde", "dl-Perillaldehyde", "NSC 138642", "1,8-p-Menthadien-7-al", "4-(Prop-1-en-2-yl)cyclohex-1-ene-1-carboxaldehyde", "Perillic aldehyde"], "SMILES": "C(C)(=C)C1CCC(C=O)=CC1", "physical_data": {"Molecular Weight": "150.22", "Molecular Formula": "C10H14O", "Boiling Point": "240 \u00b0C", "Melting Point": "&lt;25 \u00b0C", "Density": "0.9617 g/cm\u00b3 @ Temp: 18 \u00b0C"}}