{"cas_no": "21112-37-8", "cn_name": "2-\u53d4\u4e01\u57fa-1,4-\u4e8c\u7532\u6c27\u57fa\u82ef", "en_name": ["2-tert-Butyl-1,4-dimethoxybenzene", "Benzene, 2-(1,1-dimethylethyl)-1,4-dimethoxy-", "Benzene, 2-tert-butyl-1,4-dimethoxy-", "2-(1,1-Dimethylethyl)-1,4-dimethoxybenzene", "Mono-tert-butylhydroquinone dimethyl ether", "Compound 77B", "1,4-Dimethoxy-2-tert-butylbenzene", "2-tert-Butyl-1,4-dimethoxybenzene", "Vetimoss", "1,4-Dimethoxy-2-t-butylbenzene", "1-tert-Butyl-2,5-dimethoxybenzene"], "SMILES": "C(C)(C)(C)C1=C(OC)C=CC(OC)=C1", "physical_data": {"Molecular Weight": "194.27", "Molecular Formula": "C12H18O2", "Boiling Point": "117-118 \u00b0C @ Press: 12 Torr", "Melting Point": "70-70.5 \u00b0C", "Density": "0.9978 g/cm\u00b3 @ Temp: 15 \u00b0C"}}