{"cas_no": "21124-40-3", "cn_name": "DL-\u0391-\u6c28\u57fa\u567b\u5429-2-\u918b\u9178", "en_name": ["\u03b1-Amino-2-thiopheneacetic acid", "2-Thiopheneacetic acid, \u03b1-amino-", "2-Thiopheneacetic acid, \u03b1-amino-, DL-", "2-Thiopheneacetic acid, \u03b1-amino-, (\u00b1)-", "\u03b1-Amino-2-thiopheneacetic acid", "DL-2-Amino-2-thien-2-ylacetic acid", "DL-2-Thienylglycine", "\u03b1-Amino-2-thienylacetic acid", "2-Amino-2-(2-Thienyl)acetic acid", "DL-\u03b1-Amino-2-thiopheneacetic acid", "DL-\u03b1-Amino-2-thienylacetic acid", "2-Amino-2-(thiophen-2-yl)acetic acid"], "SMILES": "C(C(O)=O)(N)C1=CC=CS1", "physical_data": {"Molecular Weight": "157.19", "Molecular Formula": "C6H7NO2S", "Melting Point": "233-236 \u00b0C"}}