{"cas_no": "21129-09-9", "cn_name": "1,2-\u5341\u56db\u78b3\u4e8c\u9187", "en_name": ["1,2-Tetradecanediol", "1,2-Tetradecanediol", "1,2-Tetradecylene glycol", "n-Tetradecane-1,2-diol", "NSC 71507", "1,2-Dihydroxytetradecane"], "SMILES": "C(CCC(CO)O)CCCCCCCCC", "physical_data": {"Molecular Weight": "230.39", "Molecular Formula": "C14H30O2", "Boiling Point": "152-154 \u00b0C @ Press: 0.2 Torr", "Melting Point": "68-68.5 \u00b0C"}}