{"cas_no": "21124-33-4", "cn_name": "\u4e8c\u4e59\u57fa\u4e8c\u786b\u4ee3\u6c28\u57fa\u7532\u9178\u94f5", "en_name": ["Ammonium diethyldithiocarbamate", "Carbamodithioic acid, N,N-diethyl-, ammonium salt (1:1)", "Carbamic acid, diethyldithio-, ammonium salt", "Carbamodithioic acid, diethyl-, ammonium salt", "Diethyldithiocarbamic acid ammonium salt", "Ammonium diethyldithiocarbamate", "Ammonium N,N-diethyldithiocarbamate"], "SMILES": "N(C(=S)S)(CC)CC.N", "physical_data": {"Molecular Weight": "", "Molecular Formula": "C5H11NS2.H3N", "Melting Point": "62-64 \u00b0C"}}