{"cas_no": "211244-81-4", "cn_name": "2-(\u7532\u57fa\u786b\u57fa)\u5421\u5576\u5e76[2,3-D]\u5627\u5576-7(8H)-\u916e", "en_name": ["2-(Methylthio)pyrido[2,3-d]pyrimidin-7(8H)-one", "Pyrido[2,3-d]pyrimidin-7(8H)-one, 2-(methylthio)-", "Pyrido[2,3-d]pyrimidin-7(1H)-one, 2-(methylthio)-", "2-(Methylthio)pyrido[2,3-d]pyrimidin-7(8H)-one", "2-Methanethio-8H-pyrido[2,3-d]pyrimidin-7-one", "2-Methylsulfanyl-8H-pyrido[2,3-d]pyrimidin-7-one", "2-(Methylsulfanyl)pyrido[2,3-d]pyrimidin-7(8H)-one"], "SMILES": "S(C)C=1NC=2C(=CN1)C=CC(=O)N2", "physical_data": {"Molecular Weight": "193.23", "Molecular Formula": "C8H7N3OS", "Melting Point": "269-271 \u00b0C"}}