{"cas_no": "21120-36-5", "cn_name": "\u90bb\u6c1f\u82ef\u4e19\u916e", "en_name": ["2-Fluoro-1-phenyl-1-propanone", "1-Propanone, 2-fluoro-1-phenyl-", "Propiophenone, 2-fluoro-", "2-Fluoro-1-phenyl-1-propanone", "1-Fluoroethyl phenyl ketone", "2-Fluoropropiophenone", "1-Phenyl-2-fluoro-1-propanone", "\u03b1-Fluroropropiophenone", "\u03b1-Fluoropropiophenone"], "SMILES": "C(C(C)F)(=O)C1=CC=CC=C1", "physical_data": {"Molecular Weight": "152.17", "Molecular Formula": "C9H9FO", "Boiling Point": "95-99 \u00b0C @ Press: 19 Torr"}}