{"cas_no": "21124-13-0", "cn_name": "1-\u7532\u57fa-3-\u5bf9\u7532\u82ef\u57fa\u4e09\u6c2e", "en_name": ["1-Methyl-3-p-tolyltriazene", "1-Triazene, 1-methyl-3-(4-methylphenyl)-", "Triazene, 3-methyl-1-p-tolyl-", "1-Methyl-3-(4-methylphenyl)-1-triazene", "3-Methyl-1-p-tolyltriazene", "1-Methyl-3-p-tolyltriazene", "1-p-Tolyl-3-methyltriazene", "Methyl-p-tolyltriazene", "1-Methyl-3-(4-methylphenyl)triazene", "3-Methyl-1-(4-methylphenyl)triazene", "NSC 106329", "NSC 183741", "3-Methyl-1-(4-methylphenyl)triaz-1-ene"], "SMILES": "N(=NNC)C1=CC=C(C)C=C1", "physical_data": {"Molecular Weight": "149.19", "Molecular Formula": "C8H11N3", "Melting Point": "80.5-81.5 \u00b0C"}}