{"cas_no": "2113-51-1", "cn_name": "2-\u7898\u8054\u82ef", "en_name": ["2-Iodobiphenyl", "1,1\u2032-Biphenyl, 2-iodo-", "Biphenyl, 2-iodo-", "2-Iodo-1,1\u2032-biphenyl", "o-Phenyliodobenzene", "2-Iodobiphenyl", "o-Iodobiphenyl", "2-Iodo-1-phenylbenzene", "NSC 9283", "1-Iodo-2-phenylbenzene"], "SMILES": "IC1=C(C2=CC=CC=C2)C=CC=C1", "physical_data": {"Molecular Weight": "280.10", "Molecular Formula": "C12H9I", "Boiling Point": "158 \u00b0C @ Press: 6 Torr", "Melting Point": "55-57 \u00b0C", "Density": "1.6038 g/cm\u00b3 @ Temp: 25 \u00b0C"}}