{"cas_no": "2113-05-5", "cn_name": "1-(3-\u6c2f\u82ef\u57fa)\u53cc\u80cd", "en_name": ["Imidodicarbonimidic diamide, N-(3-chlorophenyl)-, hydrochloride (1:1)", "Imidodicarbonimidic diamide, N-(3-chlorophenyl)-, hydrochloride (1:1)", "Biguanide, 1-(m-chlorophenyl)-, monohydrochloride", "Imidodicarbonimidic diamide, N-(3-chlorophenyl)-, monohydrochloride", "N-m-Chlorophenylbiguanide hydrochloride", "1-(3-Chlorophenyl)biguanide hydrochloride"], "SMILES": "N(C(NC(=N)N)=N)C1=CC(Cl)=CC=C1.Cl", "physical_data": {"Molecular Weight": "", "Molecular Formula": "C8H10ClN5.ClH", "Melting Point": "208 \u00b0C"}}