{"cas_no": "2113-57-7", "cn_name": "3-\u6eb4\u8054\u82ef", "en_name": ["3-Bromobiphenyl", "1,1\u2032-Biphenyl, 3-bromo-", "Biphenyl, 3-bromo-", "3-Bromo-1,1\u2032-biphenyl", "3-Bromobiphenyl", "m-Bromobiphenyl", "3-Xenyl bromide", "[1,1\u2032-Biphenyl]-3-yl bromide", "1-Bromo-3-phenylbenzene", "NSC 407775", "3-Biphenyl bromide", "PBB 2"], "SMILES": "BrC=1C=C(C=CC1)C2=CC=CC=C2", "physical_data": {"Molecular Weight": "233.10", "Molecular Formula": "C12H9Br", "Boiling Point": "300 \u00b0C", "Melting Point": "93-94 \u00b0C", "Density": "1.410 g/cm\u00b3 @ Temp: 20 \u00b0C"}}