{"cas_no": "21132-30-9", "cn_name": "N,N'-\u53cc\u4e94\u6c1f\u82ef\u57fa\u8132", "en_name": ["N,N\u2032-Bis(2,3,4,5,6-pentafluorophenyl)urea", "Urea, N,N\u2032-bis(2,3,4,5,6-pentafluorophenyl)-", "Carbanilide, 2,2\u2032,3,3\u2032,4,4\u2032,5,5\u2032,6,6\u2032-decafluoro-", "Urea, N,N\u2032-bis(pentafluorophenyl)-", "N,N\u2032-Bis(2,3,4,5,6-pentafluorophenyl)urea"], "SMILES": "N(C(NC1=C(F)C(F)=C(F)C(F)=C1F)=O)C2=C(F)C(F)=C(F)C(F)=C2F", "physical_data": {"Molecular Weight": "392.15", "Molecular Formula": "C13H2F10N2O", "Melting Point": "270-270.5 \u00b0C"}}