{"cas_no": "2113-68-0", "cn_name": "\u8054\u82ef-4-\u78fa\u9178", "en_name": ["[1,1\u2032-Biphenyl]-4-sulfonic acid", "[1,1\u2032-Biphenyl]-4-sulfonic acid", "4-Biphenylsulfonic acid", "p-Biphenylsulfonic acid", "4-Sulfobiphenyl", "Diphenyl-4-sulfonic acid", "NSC 158280"], "SMILES": "S(=O)(=O)(O)C1=CC=C(C=C1)C2=CC=CC=C2", "physical_data": {"Molecular Weight": "234.27", "Molecular Formula": "C12H10O3S", "Melting Point": "138-140 \u00b0C"}}