{"cas_no": "2113-58-8", "cn_name": "3-\u785d\u57fa\u8054\u82ef", "en_name": ["3-Nitrobiphenyl", "1,1\u2032-Biphenyl, 3-nitro-", "Biphenyl, 3-nitro-", "3-Nitro-1,1\u2032-biphenyl", "3-Nitrobiphenyl", "m-Nitrobiphenyl", "3-Nitrodiphenyl", "NSC 408697", "3-Phenylnitrobenzene", "3\u2032-Nitrobiphenyl", "m-Nitrophenyl benzene", "1-Nitro-3-phenylbenzene"], "SMILES": "N(=O)(=O)C=1C=C(C=CC1)C2=CC=CC=C2", "physical_data": {"Molecular Weight": "199.21", "Molecular Formula": "C12H9NO2", "Boiling Point": "227 \u00b0C", "Melting Point": "62 \u00b0C"}}