{"cas_no": "21145-77-7", "cn_name": "\u5410\u7eb3\u9e9d\u9999", "en_name": ["Tonalide", "Ethanone, 1-(5,6,7,8-tetrahydro-3,5,5,6,8,8-hexamethyl-2-naphthalenyl)-", "2\u2032-Acetonaphthone, 5\u2032,6\u2032,7\u2032,8\u2032-tetrahydro-3\u2032,5\u2032,5\u2032,6\u2032,8\u2032,8\u2032-hexamethyl-", "1-(5,6,7,8-Tetrahydro-3,5,5,6,8,8-hexamethyl-2-naphthalenyl)ethanone", "Tonalid", "Tonalide", "AHMT", "Musk tonalid", "AHTN", "AHMT (perfume)", "7-Acetyl-1,1,3,4,4,6-hexamethyltetralin", "Extralide", "Tentarome", "Fixolide", "6-Acetyl-1,1,2,4,4,7-hexamethyltetralin", "Tetralide", "NSC 19550", "7-Acetyl-1,1,3,4,4,6-hexamethyltetraline", "6-Acetyl-1,1,2,4,4,7-hexamethyltetraline", "Acetylhexamethyltetrahydronaphthalene", "7-Acetyl-1,1,3,4,4,6-hexamethyl-1,2,3,4-tetra-hydronaphthalene", "1-(3,5,5,6,8,8-Hexamethyl-5,6,7,8-tetrahydronaphthalen-2-yl)ethan-1-one", "1-(3,5,5,6,8,8-Hexamethyl-5,6,7,8-tetrahydronaphthalen-2-yl)ethanone", "1-(3,5,5,6,8,8-Hexamethyl-6,7-dihydronaphthalen-2-yl)ethanone", "1-(3,5,5,6,8,8-Hexamethyl-5,6,7,8-tetrahydro-naphthalen-2-yl)-ethanone"], "SMILES": "CC1(C)C=2C(=CC(C(C)=O)=C(C)C2)C(C)(C)CC1C", "physical_data": {"Molecular Weight": "258.40", "Molecular Formula": "C18H26O", "Boiling Point": "124 \u00b0C @ Press: 1 Torr"}}