{"cas_no": "2114-42-3", "cn_name": "\u4e19\u70ef\u57fa\u73af\u5e9a\u70f7", "en_name": ["Allylcyclohexane", "Cyclohexane, 2-propen-1-yl-", "Cyclohexane, allyl-", "Cyclohexane, 2-propenyl-", "2-Propen-1-ylcyclohexane", "1-Propene, 3-cyclohexyl-", "1-Cyclohexyl-2-propene", "Allylcyclohexane", "3-Cyclohexyl-1-propene", "Allycyclohexane", "2-Propenyl cyclohexane", "NSC 110882"], "SMILES": "C(C=C)C1CCCCC1", "physical_data": {"Molecular Weight": "124.22", "Molecular Formula": "C9H16", "Boiling Point": "132 \u00b0C", "Density": "0.8156 g/cm\u00b3 @ Temp: 20 \u00b0C"}}