{"cas_no": "21149-26-8", "cn_name": "8-\u7f9f\u57fa\u817a\u560c\u5464", "en_name": ["8-Hydroxyadenine", "8H-Purin-8-one, 6-amino-7,9-dihydro-", "8H-Purin-8-one, 6-amino-1,7-dihydro-", "Purin-8(9H)-one, 6-amino-", "Purin-8-ol, 6-amino-", "6-Amino-7,9-dihydro-8H-purin-8-one", "8-Hydroxyadenine", "6-Amino-8-hydroxypurine", "Oxyadenine", "Oxaden", "1H-Purin-6-amine, 8-hydroxy-", "8-Oxoadenine", "Oksaden", "8-Oxo-7,8-dihydroadenine", "7,8-Dihydro-8-oxoadenine", "NSC 24123"], "SMILES": "NC1=C2C(NC(=O)N2)=NC=N1", "physical_data": {"Molecular Weight": "151.13", "Molecular Formula": "C5H5N5O", "Melting Point": "&gt;320 \u00b0C (decomp)"}}