{"cas_no": "2114-00-3", "cn_name": "2-\u6eb4\u82ef\u4e19\u916e", "en_name": ["\u03b1-Bromopropiophenone", "1-Propanone, 2-bromo-1-phenyl-", "Propiophenone, 2-bromo-", "2-Bromo-1-phenyl-1-propanone", "\u03b1-Bromopropiophenone", "2-Bromopropiophenone", "1-Bromoethyl phenyl ketone", "1-Benzoyl-1-bromoethane", "\u03b1-Bromoethyl phenyl ketone", "\u03b1-Methylphenacyl bromide", "dl-\u03b1-Bromopropiophenone", "NSC 89689"], "SMILES": "C(C(Br)C)(=O)C1=CC=CC=C1", "physical_data": {"Molecular Weight": "213.07", "Molecular Formula": "C9H9BrO", "Boiling Point": "247.5 \u00b0C", "Density": "1.430 g/cm\u00b3 @ Temp: 20 \u00b0C"}}