{"cas_no": "2114-39-8", "cn_name": "2-\u6eb4-1-\u82ef\u4e19\u70f7", "en_name": ["2-Bromo-1-phenylpropane", "Benzene, (2-bromopropyl)-", "(2-Bromopropyl)benzene", "1-Phenyl-2-bromopropane", "2-Bromo-1-phenylpropane", "1-Bromo-1-methyl-2-phenylethane", "(\u00b1)-2-Bromo-1-phenylpropane"], "SMILES": "C(C(Br)C)C1=CC=CC=C1", "physical_data": {"Molecular Weight": "199.09", "Molecular Formula": "C9H11Br", "Boiling Point": "92-93 \u00b0C @ Press: 10 Torr"}}