{"cas_no": "2114-02-5", "cn_name": "\u8112\u57fa\u786b\u8132", "en_name": ["Amidinothiourea", "Thiourea, N-(aminoiminomethyl)-", "Urea, 1-amidino-2-thio-", "Thiourea, (aminoiminomethyl)-", "N-(Aminoiminomethyl)thiourea", "Guanylthiourea", "Gutimine", "Thiodicyanodiamidine", "1-Amidino-2-thiourea", "1-Amidinothiourea", "Guthimin", "ASU", "N-Amidinothiourea", "Amidinothiourea", "N-(Diaminomethylene)thiourea", "Amino[[amino(imino)methyl]amino]thioxomethane", "2-Imino-4-thiobiuret", "NSC 55743", "(Diaminomethylidene)thiourea", "1-(Diaminomethylene)thiourea"], "SMILES": "N(C(=N)N)C(N)=S", "physical_data": {"Molecular Weight": "118.16", "Molecular Formula": "C2H6N4S", "Melting Point": "170-172 \u00b0C (decomp)"}}