{"cas_no": "2114-18-3", "cn_name": "2-\u6c2f\u4e59\u57fa\u6c28\u57fa\u7532\u9178\u916f", "en_name": ["2-Chloroethyl carbamate", "Ethanol, 2-chloro-, 1-carbamate", "Ethanol, 2-chloro-, carbamate", "Carbamic acid, 2-chloroethyl ester", "\u03b2-Chloroethyl carbamate", "2-Chloroethyl carbamate", "NSC 31185"], "SMILES": "O(C(N)=O)CCCl", "physical_data": {"Molecular Weight": "123.54", "Molecular Formula": "C3H6ClNO2", "Melting Point": "76 \u00b0C"}}