{"cas_no": "2114-33-2", "cn_name": "\u4e59\u9178-1-\u7532\u57fa-2-\u82ef\u4e59\u916f", "en_name": ["Benzeneethanol, \u03b1-methyl-, 1-acetate", "Benzeneethanol, \u03b1-methyl-, 1-acetate", "Phenethyl alcohol, \u03b1-methyl-, acetate", "Benzeneethanol, \u03b1-methyl-, acetate", "2-Acetoxy-1-phenylpropane", "1-Phenyl-2-propanol acetate", "(2-Acetoxypropyl)benzene", "NSC 30160", "1-Benzylethyl acetate", "1-Phenyl-2-propyl acetate", "1-Phenylpropan-2-yl acetate"], "SMILES": "C(C(OC(C)=O)C)C1=CC=CC=C1", "physical_data": {"Molecular Weight": "178.23", "Molecular Formula": "C11H14O2", "Boiling Point": "107-108 \u00b0C @ Press: 13 Torr", "Density": "1.0081 g/cm\u00b3 @ Temp: 20 \u00b0C"}}