{"cas_no": "21149-38-2", "cn_name": "2,2,2-\u4e09\u6c1f-N,N-\u4e8c(\u4e09\u7532\u7845\u57fa)\u4e59\u9170\u80fa", "en_name": ["N,N-Bis(trimethylsilyl)trifluoroacetamide", "Acetamide, 2,2,2-trifluoro-N,N-bis(trimethylsilyl)-", "2,2,2-Trifluoro-N,N-bis(trimethylsilyl)acetamide", "N,N-Bis(trimethylsilyl)trifluoroacetamide"], "SMILES": "N(C(C(F)(F)F)=O)([Si](C)(C)C)[Si](C)(C)C", "physical_data": {"Molecular Weight": "257.40", "Molecular Formula": "C8H18F3NOSi2", "Boiling Point": "47 \u00b0C @ Press: 27 Torr"}}