{"cas_no": "21142-29-0", "cn_name": "\u7532\u57fa\u4e19\u70ef\u9170\u6c27\u57fa\u4e19\u57fa\u4e09\u4e59\u6c27\u57fa\u7845\u70f7", "en_name": ["Methacryloxypropyltriethoxysilane", "2-Propenoic acid, 2-methyl-, 3-(triethoxysilyl)propyl ester", "Methacrylic acid, 3-(triethoxysilyl)propyl ester", "1-Propanol, 3-(triethoxysilyl)-, methacrylate", "(\u03b3-Methacryloxypropyl)triethoxysilane", "(3-Methacryloxypropyl)triethoxysilane", "(\u03b3-Methacryloyloxypropyl)triethoxysilane", "[3-(Methacryloyloxy)propyl]triethoxysilane", "KBE 503", "\u03b3-(Triethoxysilyl)propyl methacrylate", "Y 9936", "3-MPTES", "3-(Triethoxysilyl)propyl methacrylate", "Y 11878", "2-Methyl-2-propenoic acid 3-(triethoxysilyl)propyl ester", "WD 70", "Z 6036", "SZ 6036", "Methacryloxypropyltriethoxysilane", "KH 572", "DB 572", "Triethoxysilylpropyl methacrylate", "Silquest Y 9936", "KH 570A", "VPS-MEEO", "Gelest 6487", "Triethoxy(3-methacryloyloxypropyl)silane", "SCA-R 74E", "3-Triethoxysilylpropyl 2-methylprop-2-enoate", "T 2676", "AC 636", "JH 0174"], "SMILES": "[Si](CCCOC(C(C)=C)=O)(OCC)(OCC)OCC", "physical_data": {"Molecular Weight": "290.43", "Molecular Formula": "C13H26O5Si", "Boiling Point": "130 \u00b0C @ Press: 4 Torr", "Density": "0.985 g/cm\u00b3"}}