{"cas_no": "2115-91-5", "cn_name": "\u77f3\u659b\u78b1", "en_name": ["(-)-Dendrobine", "7,5-(Epoxymethano)-1H-cyclopent[cd]indol-9-one, decahydro-1,7b-dimethyl-6-(1-methylethyl)-, (2aS,4aS,5R,6S,7R,7aS,7bR)-", "Dendrobine", "Dendroban-12-one", "(2aS,4aS,5R,6S,7R,7aS,7bR)-Decahydro-1,7b-dimethyl-6-(1-methylethyl)-7,5-(epoxymethano)-1H-cyclopent[cd]indol-9-one", "7,5-(Epoxymethano)-1H-cyclopent[cd]indol-9-one, decahydro-1,7b-dimethyl-6-(1-methylethyl)-, [2aS-(2a\u03b1,4a\u03b1,5\u03b2,6\u03b1,7\u03b2,7a\u03b1,7b\u03b1)]-", "(-)-Dendrobine", "12-Oxodendrobane", "NSC 607862"], "SMILES": "CC12C3C4C(C(C)C)C(C1CCC2CN3C)C(=O)O4", "physical_data": {"Molecular Weight": "263.38", "Molecular Formula": "C16H25NO2", "Melting Point": "134 \u00b0C"}}