{"cas_no": "211513-37-0", "cn_name": "CETP\u6291\u5236\u5242", "en_name": ["Dalcetrapib", "Propanethioic acid, 2-methyl-, S-[2-[[[1-(2-ethylbutyl)cyclohexyl]carbonyl]amino]phenyl] ester", "JTT 705", "Dalcetrapib"], "SMILES": "C(NC1=C(SC(C(C)C)=O)C=CC=C1)(=O)C2(CC(CC)CC)CCCCC2", "physical_data": {"Molecular Weight": "389.59", "Molecular Formula": "C23H35NO2S", "Melting Point": "63-63.5 \u00b0C"}}