{"cas_no": "21168-72-9", "cn_name": "2-[4-(\u6c28\u7532\u57fa)\u54cc\u5576-1-\u57fa]\u4e59\u9187", "en_name": ["4-(Aminomethyl)-1-piperidineethanol", "1-Piperidineethanol, 4-(aminomethyl)-", "4-(Aminomethyl)-1-piperidineethanol", "4-Aminomethyl-1-(2-hydroxyethyl)piperidine", "2-[4-(Aminomethyl)piperidin-1-yl]ethan-1-ol", "2-[4-(Aminomethyl)piperidin-1-yl]ethanol", "2-(4-Aminomethyl-piperidin-1-yl)-ethanol"], "SMILES": "C(CO)N1CCC(CN)CC1", "physical_data": {"Molecular Weight": "158.24", "Molecular Formula": "C8H18N2O", "Boiling Point": "99-100 \u00b0C @ Press: 10.3 Torr"}}