{"cas_no": "21165-77-5", "cn_name": "\u683c\u5217\u672c\u8132(\u4f18\u964d\u7cd6)\u6742\u8d28B", "en_name": ["Methyl N-[[4-[2-[(5-chloro-2-methoxybenzoyl)amino]ethyl]phenyl]sulfonyl]carbamate", "Carbamic acid, N-[[4-[2-[(5-chloro-2-methoxybenzoyl)amino]ethyl]phenyl]sulfonyl]-, methyl ester", "Carbamic acid, [[p-[2-(5-chloro-o-anisamido)ethyl]phenyl]sulfonyl]-, methyl ester", "Carbamic acid, [[4-[2-[(5-chloro-2-methoxybenzoyl)amino]ethyl]phenyl]sulfonyl]-, methyl ester", "Methyl N-[[4-[2-[(5-chloro-2-methoxybenzoyl)amino]ethyl]phenyl]sulfonyl]carbamate"], "SMILES": "C(NCCC1=CC=C(S(NC(OC)=O)(=O)=O)C=C1)(=O)C2=C(OC)C=CC(Cl)=C2", "physical_data": {"Molecular Weight": "426.87", "Molecular Formula": "C18H19ClN2O6S", "Melting Point": "189-191 \u00b0C"}}