{"cas_no": "21161-11-5", "cn_name": "2-\u785d\u57fa\u95f4\u82ef\u4e8c\u7532\u9178", "en_name": ["2-Nitro-1,3-benzenedicarboxylic acid", "1,3-Benzenedicarboxylic acid, 2-nitro-", "2-Nitro-1,3-benzenedicarboxylic acid", "2-Nitroisophthalic acid", "3-Carboxy-2-nitrobenzoic acid", "2,6-Dicarboxy-1-nitrobenzene"], "SMILES": "N(=O)(=O)C1=C(C(O)=O)C=CC=C1C(O)=O", "physical_data": {"Molecular Weight": "211.13", "Molecular Formula": "C8H5NO6", "Melting Point": "300 \u00b0C"}}