{"cas_no": "21160-83-8", "cn_name": "Z-LYS(Z)-OSU", "en_name": ["N2,N6-Bis[(phenylmethoxy)carbonyl]-L-lysine 2,5-dioxo-1-pyrrolidinyl ester", "L-Lysine, N2,N6-bis[(phenylmethoxy)carbonyl]-, 2,5-dioxo-1-pyrrolidinyl ester", "Succinimide, N-[(N2,N6-dicarboxy-L-lysyl)oxy]-, dibenzyl ester", "Carbamic acid, [1-[[(2,5-dioxo-1-pyrrolidinyl)oxy]carbonyl]-1,5-pentanediyl]bis-, bis(phenylmethyl) ester, (S)-", "Carbamic acid, [(1S)-1-[[(2,5-dioxo-1-pyrrolidinyl)oxy]carbonyl]-1,5-pentanediyl]bis-, bis(phenylmethyl) ester", "N2,N6-Bis[(phenylmethoxy)carbonyl]-L-lysine 2,5-dioxo-1-pyrrolidinyl ester", "N\u03b1,N\u03b5-Dibenzyloxycarbonyl-L-lysine N-hydroxysuccinimide ester", "NSC 250409", "(2,5-Dioxopyrrolidin-1-yl) (2S)-2,6-bis(phenylmethoxycarbonylamino)hexanoate"], "SMILES": "O(C(C(NC(OCC1=CC=CC=C1)=O)CCCCNC(OCC2=CC=CC=C2)=O)=O)N3C(=O)CCC3=O", "physical_data": {"Molecular Weight": "511.52", "Molecular Formula": "C26H29N3O8", "Melting Point": "112-113 \u00b0C"}}