{"cas_no": "2116-65-6", "cn_name": "4-\u82c4\u57fa\u5421\u5576", "en_name": ["4-Benzylpyridine", "Pyridine, 4-(phenylmethyl)-", "Pyridine, 4-benzyl-", "4-(Phenylmethyl)pyridine", "4-Benzylpyridine", "Ba 33216", "\u03b3-Benzylpyridine", "CDD 3513", "NSC 8075"], "SMILES": "C(C1=CC=CC=C1)C=2C=CN=CC2", "physical_data": {"Molecular Weight": "169.22", "Molecular Formula": "C12H11N", "Boiling Point": "288 \u00b0C", "Melting Point": "12.4 \u00b0C", "Density": "1.062 g/cm\u00b3 @ Temp: 20 \u00b0C"}}