{"cas_no": "2116-84-9", "cn_name": "\u82ef\u57fa\u4e09(\u4e09\u7532\u57fa\u7845\u6c27\u70f7\u57fa)\u7845\u70f7", "en_name": ["Phenyltris(trimethylsiloxy)silane", "Trisiloxane, 1,1,1,5,5,5-hexamethyl-3-phenyl-3-[(trimethylsilyl)oxy]-", "Trisiloxane, 1,1,1,5,5,5-hexamethyl-3-phenyl-3-(trimethylsiloxy)-", "1,1,1,5,5,5-Hexamethyl-3-phenyl-3-[(trimethylsilyl)oxy]trisiloxane", "Phenyltris(trimethylsiloxy)silane", "Dow Corning 556", "Tris(trimethylsiloxy)phenylsilane", "Silicone DC 556", "Dow Corning 556 Fluid", "DC 556", "1,1,1,5,5,5-Hexamethyl-3-phenyl-3-(trimethylsilyloxy)trisiloxane", "Dow 556 Fluid", "PD 5", "PD 5 silicone", "Baysilon PD 5"], "SMILES": "[Si](O[Si](C)(C)C)(O[Si](C)(C)C)(O[Si](C)(C)C)C1=CC=CC=C1", "physical_data": {"Molecular Weight": "372.75", "Molecular Formula": "C15H32O3Si4", "Boiling Point": "264-266 \u00b0C", "Melting Point": "-102 \u00b0C", "Density": "0.924 g/cm\u00b3"}}