{"cas_no": "2117-28-4", "cn_name": "\u53cc(\u4e09\u7532\u57fa\u7845\u57fa)\u7532\u70f7", "en_name": ["1,1\u2032-Methylenebis[1,1,1-trimethylsilane]", "Silane, 1,1\u2032-methylenebis[1,1,1-trimethyl-", "2,4-Disilapentane, 2,2,4,4-tetramethyl-", "Silane, methylenebis[trimethyl-", "1,1\u2032-Methylenebis[1,1,1-trimethylsilane]", "Bis(trimethylsilyl)methane", "Methylenebis[trimethylsilane]"], "SMILES": "C([Si](C)(C)C)[Si](C)(C)C", "physical_data": {"Molecular Weight": "160.40", "Molecular Formula": "C7H20Si2", "Boiling Point": "132-133 \u00b0C", "Melting Point": "-71 \u00b0C", "Density": "0.752 g/cm\u00b3"}}