{"cas_no": "2117-36-4", "cn_name": "\u4e09\u4e01\u57fa\u6c2f\u5316\u9517", "en_name": ["Tributylchlorogermane", "Germane, tributylchloro-", "Tributylchlorogermane", "Chlorotributylgermane", "Tributylgermanium chloride", "Tributylgermyl chloride"], "SMILES": "[Ge](CCCC)(CCCC)(CCCC)Cl", "physical_data": {"Molecular Weight": "279.44", "Molecular Formula": "C12H27ClGe", "Boiling Point": "269-270 \u00b0C", "Density": "1.054 g/cm\u00b3"}}