{"cas_no": "2117-11-5", "cn_name": "4-\u620a\u7094-2-\u9187", "en_name": ["4-Pentyn-2-ol", "4-Pentyn-2-ol", "4-Pentyne-2-ol", "1-Pentyn-4-ol", "4-Hydroxy-1-pentyne", "(\u00b1)-4-Pentyn-2-ol", "(RS)-4-Pentyn-2-ol", "(RS)-1-Pentyn-4-ol", "1-Methyl-3-butyn-1-ol", "1-Methyl-3-butynyl alcohol"], "SMILES": "C(C(C)O)C#C", "physical_data": {"Molecular Weight": "84.12", "Molecular Formula": "C5H8O", "Boiling Point": "128 \u00b0C", "Density": "0.8918 g/cm\u00b3 @ Temp: 20 \u00b0C"}}