{"cas_no": "2117-50-2", "cn_name": "\u53cc(\u4e09\u7532\u57fa\u9521)\u4e59\u7094", "en_name": ["1,1\u2032-(1,2-Ethynediyl)bis[1,1,1-trimethylstannane]", "Stannane, 1,1\u2032-(1,2-ethynediyl)bis[1,1,1-trimethyl-", "Stannane, ethynylenebis[trimethyl-", "Tin, ethynylenebis[trimethyl-", "Stannane, 1,2-ethynediylbis[trimethyl-", "1,1\u2032-(1,2-Ethynediyl)bis[1,1,1-trimethylstannane]", "Bis(trimethylstannyl)acetylene", "1,2-Bis(trimethylstannyl)ethyne", "1,2-Ethynediylbis[trimethylstannane]", "1,2-Bis(trimethylstannyl)acetylene"], "SMILES": "C(#C[Sn](C)(C)C)[Sn](C)(C)C", "physical_data": {"Molecular Weight": "351.65", "Molecular Formula": "C8H18Sn2", "Boiling Point": "97-98 \u00b0C @ Press: 16 Torr", "Melting Point": "57.5-59 \u00b0C"}}