{"cas_no": "21187-98-4", "cn_name": "\u683c\u5217\u9f50\u7279", "en_name": ["Gliclazide", "Benzenesulfonamide, N-[[(hexahydrocyclopenta[c]pyrrol-2(1H)-yl)amino]carbonyl]-4-methyl-", "Urea, 1-(hexahydrocyclopenta[c]pyrrol-2(1H)-yl)-3-(p-tolylsulfonyl)-", "Cyclopenta[c]pyrrole, benzenesulfonamide deriv.", "N-[[(Hexahydrocyclopenta[c]pyrrol-2(1H)-yl)amino]carbonyl]-4-methylbenzenesulfonamide", "Gliclazide", "Diamicron", "S 1702", "1-(Hexahydrocyclopenta[c]pyrrol-2(1H)-yl)-3-(p-tolylsulfonyl)urea", "SE 1702", "S 852", "N-(4-Methylbenzenesulfonyl)-N\u2032-[3-azabicyclo(3,3,0)oct-3-yl]urea", "Diabezidum", "Glinormax", "Diabrezide", "Diaprel", "Glyzide", "Glimicron", "Diabyl", "1-(3,3a,4,5,6,6a-Hexahydro-1H-cyclopenta[c]pyrrol-2-yl)-3-(4-methylphenyl)sulfonylurea", "1-(4-Methylbenzenesulfonyl)-3-[octahydrocyclopenta[c]pyrrol-2-yl]urea", "BRD-A 61154809", "MeSH ID: D005907"], "SMILES": "N(C(NS(=O)(=O)C1=CC=C(C)C=C1)=O)N2CC3C(C2)CCC3", "physical_data": {"Molecular Weight": "323.41", "Molecular Formula": "C15H21N3O3S", "Melting Point": "181 \u00b0C"}}