{"cas_no": "21188-58-9", "cn_name": "3-\u7f9f\u57fa\u5df1\u9178\u7532\u916f", "en_name": ["Methyl 3-hydroxyhexanoate", "Hexanoic acid, 3-hydroxy-, methyl ester", "Methyl 3-hydroxycaproate", "Methyl 3-hydroxyhexanoate", "3-Hydroxyhexanoic acid methyl ester"], "SMILES": "C(C(CCC)O)C(OC)=O", "physical_data": {"Molecular Weight": "146.18", "Molecular Formula": "C7H14O3", "Boiling Point": "98 \u00b0C @ Press: 15 Torr"}}