{"cas_no": "21188-61-4", "cn_name": "3-\u4e59\u9170\u6c27\u57fa\u5df1\u9178\u4e59\u916f", "en_name": ["Ethyl 3-acetoxyhexanoate", "Hexanoic acid, 3-(acetyloxy)-, ethyl ester", "Hexanoic acid, 3-hydroxy-, ethyl ester, acetate", "Ethyl 3-acetoxyhexanoate"], "SMILES": "C(CC(OCC)=O)(OC(C)=O)CCC", "physical_data": {"Molecular Weight": "202.25", "Molecular Formula": "C10H18O4", "Boiling Point": "110-111 \u00b0C @ Press: 9 Torr"}}