{"cas_no": "211914-51-1", "cn_name": "\u8fbe\u6bd4\u52a0\u7fa4", "en_name": ["Dabigatran", "\u03b2-Alanine, N-[[2-[[[4-(aminoiminomethyl)phenyl]amino]methyl]-1-methyl-1H-benzimidazol-5-yl]carbonyl]-N-2-pyridinyl-", "N-[[2-[[[4-(Aminoiminomethyl)phenyl]amino]methyl]-1-methyl-1H-benzimidazol-5-yl]carbonyl]-N-2-pyridinyl-\u03b2-alanine", "Dabigatran", "BIBR 953", "BIBR 953ZW"], "SMILES": "CN1C=2C(=CC(C(N(CCC(O)=O)C3=CC=CC=N3)=O)=CC2)N=C1CNC4=CC=C(C(=N)N)C=C4", "physical_data": {"Molecular Weight": "471.51", "Molecular Formula": "C25H25N7O3", "Melting Point": "276-277 \u00b0C"}}