{"cas_no": "211915-06-9", "cn_name": "\u8fbe\u6bd4\u52a0\u7fa4\u916f", "en_name": ["Dabigatran etexilate", "\u03b2-Alanine, N-[[2-[[[4-[[[(hexyloxy)carbonyl]amino]iminomethyl]phenyl]amino]methyl]-1-methyl-1H-benzimidazol-5-yl]carbonyl]-N-2-pyridinyl-, ethyl ester", "Dabigatran etexilate", "BIBR 1048", "Prazaxa"], "SMILES": "CN1C=2C(=CC(C(N(CCC(OCC)=O)C3=CC=CC=N3)=O)=CC2)N=C1CNC4=CC=C(C(NC(OCCCCCC)=O)=N)C=C4", "physical_data": {"Molecular Weight": "627.73", "Molecular Formula": "C34H41N7O5", "Melting Point": "128-129 \u00b0C"}}