{"cas_no": "21193-75-9", "cn_name": "D-\u534a\u4e73\u7cd6\u70ef", "en_name": ["D-Galactal", "D-arabino-Hex-5-enitol, 2,6-anhydro-5-deoxy-", "D-lyxo-Hex-1-enopyranose, 1,2-dideoxy-", "2,6-Anhydro-5-deoxy-D-arabino-hex-5-enitol", "D-Galactal"], "SMILES": "C(O)C1C(O)C(O)C=CO1", "physical_data": {"Molecular Weight": "146.14", "Molecular Formula": "C6H10O4", "Melting Point": "99-100 \u00b0C"}}