{"cas_no": "21198-18-5", "cn_name": "4-\u73af\u5df1\u57fa\u6c28\u57fa\u786b\u8132", "en_name": ["4-Cyclohexylthiosemicarbazide", "Hydrazinecarbothioamide, N-cyclohexyl-", "Semicarbazide, 4-cyclohexyl-3-thio-", "N-Cyclohexylhydrazinecarbothioamide", "4-Cyclohexylthiosemicarbazide", "4-Cyclohexyl-3-thiosemicarbazide", "N-Cyclohexylthiosemicarbazide", "NSC 82337", "1-Amino-3-cyclohexylthiourea", "3-Amino-1-cyclohexylthiourea"], "SMILES": "N(C(NN)=S)C1CCCCC1", "physical_data": {"Molecular Weight": "173.28", "Molecular Formula": "C7H15N3S", "Melting Point": "141-143 \u00b0C"}}