{"cas_no": "2120-70-9", "cn_name": "\u82ef\u6c27\u4ee3\u4e59\u919b", "en_name": ["Phenoxyacetaldehyde", "Acetaldehyde, 2-phenoxy-", "Acetaldehyde, phenoxy-", "2-Phenoxyacetaldehyde", "Phenoxyacetaldehyde", "2-Phenoxyethanal", "NSC 49355"], "SMILES": "O(CC=O)C1=CC=CC=C1", "physical_data": {"Molecular Weight": "136.15", "Molecular Formula": "C8H8O2", "Boiling Point": "94 \u00b0C @ Press: 6 Torr", "Melting Point": "160-162 \u00b0C"}}