{"cas_no": "21203-86-1", "cn_name": "2-\u82ef\u57fa-4-\u6c28\u57fa\u5421\u5576", "en_name": ["2-Phenyl-4-pyridinamine", "4-Pyridinamine, 2-phenyl-", "Pyridine, 4-amino-2-phenyl-", "2-Phenyl-4-pyridinamine", "2-Phenyl-4-aminopyridine", "2-Phenylpyridin-4-amine", "2-Phenyl-pyridin-4-ylamine"], "SMILES": "NC=1C=C(N=CC1)C2=CC=CC=C2", "physical_data": {"Molecular Weight": "170.21", "Molecular Formula": "C11H10N2", "Melting Point": "130-131 \u00b0C"}}