{"cas_no": "21211-65-4", "cn_name": "2,2'-\u4e8c\u5421\u54af\u57fa\u7532\u70f7", "en_name": ["Dipyrrylmethane", "1H-Pyrrole, 2,2\u2032-methylenebis-", "Pyrrole, 2,2\u2032-methylenedi-", "2,2\u2032-Methylenebis[1H-pyrrole]", "2,2\u2032-Dipyrromethane", "Dipyrrylmethane", "2,2\u2032-Dipyrrolylmethane", "2,2\u2032-Dipyrrylmethane", "Di(2-pyrryl)methane", "Dipyrromethane", "Bis(1H-pyrrol-2-yl)methane", "2,2\u2032-Dipyrrolemethane", "Di(1H-pyrrol-2-yl)methane", "Bis-pyrrol-2-ylmethane", "2-(1H-Pyrrol-2-ylmethyl)-1H-pyrrole"], "SMILES": "C(C1=CC=CN1)C2=CC=CN2", "physical_data": {"Molecular Weight": "146.19", "Molecular Formula": "C9H10N2", "Melting Point": "75 \u00b0C"}}