{"cas_no": "21211-22-3", "cn_name": "3-\u6c2f\u82ef\u5e76(B)\u567b\u5429-2-\u7fa7\u9178", "en_name": ["3-Chlorobenzo[b]thiophene-2-carboxylic acid", "Benzo[b]thiophene-2-carboxylic acid, 3-chloro-", "3-Chlorobenzo[b]thiophene-2-carboxylic acid", "3-Chlorobenzothiophene-2-carboxylic acid", "NSC 206632", "3-Chloro-1-benzothiophene-2-carboxylic acid"], "SMILES": "ClC=1C=2C(SC1C(O)=O)=CC=CC2", "physical_data": {"Molecular Weight": "212.65", "Molecular Formula": "C9H5ClO2S", "Melting Point": "263 \u00b0C"}}