{"cas_no": "212141-54-3", "cn_name": "\u74e6\u4ed6\u62c9\u5c3c\u78b1", "en_name": ["Vatalanib", "1-Phthalazinamine, N-(4-chlorophenyl)-4-(4-pyridinylmethyl)-", "N-(4-Chlorophenyl)-4-(4-pyridinylmethyl)-1-phthalazinamine", "CGP 79787", "Vatalanib", "Pynasunate", "Vatalinib", "Valatinib"], "SMILES": "N(C=1C2=C(C(CC=3C=CN=CC3)=NN1)C=CC=C2)C4=CC=C(Cl)C=C4", "physical_data": {"Molecular Weight": "346.81", "Molecular Formula": "C20H15ClN4", "Melting Point": "209-212 \u00b0C"}}