{"cas_no": "212118-77-9", "cn_name": "\u8367\u5149\u542b\u7837\u87ba\u65cb\u7c98\u7ed3\u5242/\u5362\u7c73\u5965\u7eff\u8272", "en_name": ["FlAsH", "Spiro[isobenzofuran-1(3H),9\u2032-[9H]xanthen]-3-one, 4\u2032,5\u2032-bis(1,3,2-dithiarsolan-2-yl)-3\u2032,6\u2032-dihydroxy-", "4\u2032,5\u2032-Bis(1,3,2-dithiarsolan-2-yl)-3\u2032,6\u2032-dihydroxyspiro[isobenzofuran-1(3H),9\u2032-[9H]xanthen]-3-one", "Fluorescein arsenical helix binder", "FlAsH-EDT2", "Lumio Green", "FlAsH"], "SMILES": "O=C1OC2(C=3C(=C(C(O)=CC3)[As]4SCCS4)OC=5C2=CC=C(O)C5[As]6SCCS6)C=7C1=CC=CC7", "physical_data": {"Molecular Weight": "664.50", "Molecular Formula": "C24H18As2O5S4", "Melting Point": "115-116 \u00b0C"}}