{"cas_no": "2121-12-2", "cn_name": "\u6c27\u5316\u77f3\u849c\u78b1", "en_name": ["Ungeremine", "[1,3]Dioxolo[4,5-j]pyrrolo[3,2,1-de]phenanthridinium, 4,5-dihydro-2-hydroxy-", "Lycoranium, 1,2,3,3a,6,7,12b,12c-octadehydro-2-hydroxy-", "4,5-Dihydro-2-hydroxy[1,3]dioxolo[4,5-j]pyrrolo[3,2,1-de]phenanthridinium", "Ungeremine", "Lycobetaine", "Ungerimine"], "SMILES": "OC1=CC2=C3[N+](=CC=4C2=CC5=C(C4)OCO5)CCC3=C1", "physical_data": {"Molecular Weight": "", "Molecular Formula": "C16H12NO3", "Melting Point": "270-272 \u00b0C (decomp)"}}