{"cas_no": "212142-18-2", "cn_name": "\u7425\u73c0\u9178\u74e6\u4ed6\u62c9\u5c3c", "en_name": ["Vatalanib succinate", "Butanedioic acid, compd. with N-(4-chlorophenyl)-4-(4-pyridinylmethyl)-1-phthalazinamine (1:1)", "1-Phthalazinamine, N-(4-chlorophenyl)-4-(4-pyridinylmethyl)-, butanedioate (1:1)", "PTK 787", "CGP 79787D", "ZK 222584", "Vatalanib succinate", "PTK 787ZK22258", "PTK 787/ZK 222584"], "SMILES": "C(CC(O)=O)C(O)=O.N(C=1C2=C(C(CC=3C=CN=CC3)=NN1)C=CC=C2)C4=CC=C(Cl)C=C4", "physical_data": {"Molecular Weight": "", "Molecular Formula": "C20H15ClN4.C4H6O4", "Melting Point": "195 \u00b0C"}}