{"cas_no": "21222-05-9", "cn_name": "-\u4e8c\u785d\u57fa\u82ef\u7532\u916e", "en_name": ["3,3\u2032-Dinitrobenzophenone", "Methanone, bis(3-nitrophenyl)-", "Benzophenone, 3,3\u2032-dinitro-", "Bis(3-nitrophenyl)methanone", "3,3\u2032-Dinitrobenzophenone", "m,m\u2032-Dinitrobenzophenone", "Bis(m-nitrophenyl) ketone", "NSC 86515"], "SMILES": "C(=O)(C1=CC(N(=O)=O)=CC=C1)C2=CC(N(=O)=O)=CC=C2", "physical_data": {"Molecular Weight": "272.21", "Molecular Formula": "C13H8N2O5", "Melting Point": "155 \u00b0C"}}