{"cas_no": "2122-19-2", "cn_name": "\u4e19\u70ef\u786b\u8132", "en_name": ["4-Methylimidazolidine-2-thione", "2-Imidazolidinethione, 4-methyl-", "2-Imidazoline-2-thiol, 4-methyl-", "2-Imidazoline-2-thiol, 5-methyl-", "4-Methyl-2-imidazolidinethione", "4-Methylimidazolidine-2-thione", "N,N\u2032-(1,2-Propylene)thiourea", "NSC 31254", "NSC 68394"], "SMILES": "CC1NC(=S)NC1", "physical_data": {"Molecular Weight": "116.18", "Molecular Formula": "C4H8N2S", "Melting Point": "102-104 \u00b0C"}}