{"cas_no": "2122-61-4", "cn_name": "4-\u6c28\u57fa-3,5-\u4e8c\u7898\u82ef\u7532\u9178", "en_name": ["4-Amino-3,5-diiodobenzoic acid", "Benzoic acid, 4-amino-3,5-diiodo-", "4-Amino-3,5-diiodobenzoic acid", "3,5-Diiodo-4-aminobenzoic acid", "NSC 57118"], "SMILES": "C(O)(=O)C1=CC(I)=C(N)C(I)=C1", "physical_data": {"Molecular Weight": "388.93", "Molecular Formula": "C7H5I2NO2", "Melting Point": "&gt;310 \u00b0C"}}