{"cas_no": "21221-93-2", "cn_name": "3,5-\u53cc(\u4e09\u6c1f\u7532\u57fa)\u82ef\u7532\u916e", "en_name": ["[3,5-Bis(trifluoromethyl)phenyl]phenylmethanone", "Methanone, [3,5-bis(trifluoromethyl)phenyl]phenyl-", "Benzophenone, 3,5-bis(trifluoromethyl)-", "[3,5-Bis(trifluoromethyl)phenyl]phenylmethanone", "[3,5-Bis(trifluoromethyl)phenyl](phenyl)methanone", "3,5-Bis(trifluoromethyl)benzophenone"], "SMILES": "C(=O)(C1=CC(C(F)(F)F)=CC(C(F)(F)F)=C1)C2=CC=CC=C2", "physical_data": {"Molecular Weight": "318.21", "Molecular Formula": "C15H8F6O", "Melting Point": "109.0-110.8 \u00b0C"}}