{"cas_no": "2122-63-6", "cn_name": "4-\u6c28\u57fa-3-\u7898\u82ef\u7532\u9178", "en_name": ["4-Amino-3-iodobenzoic acid", "Benzoic acid, 4-amino-3-iodo-", "4-Amino-3-iodobenzoic acid", "3-Iodo-4-aminobenzoic acid", "NSC 85381"], "SMILES": "C(O)(=O)C1=CC(I)=C(N)C=C1", "physical_data": {"Molecular Weight": "263.03", "Molecular Formula": "C7H6INO2", "Melting Point": "201-202 \u00b0C"}}