{"cas_no": "2122-70-5", "cn_name": "alpha-\u8418\u4e59\u9178\u4e59\u916f", "en_name": ["Ethyl 1-naphthylacetate", "1-Naphthaleneacetic acid, ethyl ester", "Naphthaleneacetic acid, ethyl ester", "Ethyl 1-naphthylacetate", "Ethyl 1-naphthaleneacetate", "NAA ethyl ester", "NSC 74497", "(1-Naphthyl)acetic acid ethyl ester", "Ethyl 2-(naphthalen-1-yl)acetate"], "SMILES": "C(C(OCC)=O)C=1C2=C(C=CC1)C=CC=C2", "physical_data": {"Molecular Weight": "214.26", "Molecular Formula": "C14H14O2", "Boiling Point": "177-179 \u00b0C @ Press: 13 Torr", "Melting Point": "88.5 \u00b0C"}}