{"cas_no": "212386-71-5", "cn_name": "2,3-\u4e8c\u6c1f-4-\u4e59\u6c27\u57fa\u82ef\u787c\u9178", "en_name": ["B-(4-Ethoxy-2,3-difluorophenyl)boronic acid", "Boronic acid, B-(4-ethoxy-2,3-difluorophenyl)-", "Boronic acid, (4-ethoxy-2,3-difluorophenyl)-", "B-(4-Ethoxy-2,3-difluorophenyl)boronic acid", "4-Ethoxy-2,3-difluorophenylboronic acid", "(2,3-Difluoro-4-ethoxyphenyl)boronic acid"], "SMILES": "B(O)(O)C1=C(F)C(F)=C(OCC)C=C1", "physical_data": {"Molecular Weight": "201.96", "Molecular Formula": "C8H9BF2O3", "Melting Point": "135-136 \u00b0C"}}