{"cas_no": "212322-56-0", "cn_name": "3-[(3-\u6c28\u57fa-4-\u7532\u57fa\u6c28\u57fa\u82ef\u7532\u9170)\u5421\u5576-2-\u57fa\u6c28\u57fa]\u4e19\u9178\u4e59\u916f", "en_name": ["N-[3-Amino-4-(methylamino)benzoyl]-N-2-pyridinyl-\u03b2-alanine ethyl ester", "\u03b2-Alanine, N-[3-amino-4-(methylamino)benzoyl]-N-2-pyridinyl-, ethyl ester", "N-[3-Amino-4-(methylamino)benzoyl]-N-2-pyridinyl-\u03b2-alanine ethyl ester", "Ethyl 3-[(3-amino-4-methylaminobenzoyl)-(pyridin-2-yl)-amino]propanoate", "Ethyl 3-[3-amino-4-(methylamino)-N-(pyridin-2-yl)benzoylamino]propanoate", "Ethyl 3-[[3-amino-4-(methylamino)benzoyl](pyridin-2-yl)amino]propionate", "3-[(3-Amino-4-methylamino-benzoyl)-pyridin-2-yl-amino]-propionic acid ethyl ester"], "SMILES": "N(C(=O)C1=CC(N)=C(NC)C=C1)(CCC(OCC)=O)C2=CC=CC=N2", "physical_data": {"Molecular Weight": "342.39", "Molecular Formula": "C18H22N4O3", "Melting Point": "103-104 \u00b0C"}}