{"cas_no": "2124-31-4", "cn_name": "\u4e8c\u7532\u6c28\u57fa\u82ef\u4e59\u916e", "en_name": ["1-[4-(Dimethylamino)phenyl]ethanone", "Ethanone, 1-[4-(dimethylamino)phenyl]-", "Acetophenone, 4\u2032-(dimethylamino)-", "1-[4-(Dimethylamino)phenyl]ethanone", "p-(Dimethylamino)acetophenone", "4\u2032-(Dimethylamino)acetophenone", "4\u2032-(N,N-Dimethylamino)acetophenone", "4-Acetyl-N,N-dimethylaniline", "4-(Dimethylamino)phenyl methyl ketone", "p-(N,N-Dimethylamino)acetophenone", "NSC 74022", "1-(4-(Dimethylamino)phenyl)ethan-1-one"], "SMILES": "C(C)(=O)C1=CC=C(N(C)C)C=C1", "physical_data": {"Molecular Weight": "163.22", "Molecular Formula": "C10H13NO", "Boiling Point": "172-175 \u00b0C @ Press: 11 Torr", "Melting Point": "103 \u00b0C"}}