{"cas_no": "21243-18-5", "cn_name": "6-\u6c1f-2,3-\u4e8c\u6c22-4H-\u786b\u4ee3\u8272\u70ef-4-\u916e", "en_name": ["6-Fluoro-2,3-dihydro-4H-1-benzothiopyran-4-one", "4H-1-Benzothiopyran-4-one, 6-fluoro-2,3-dihydro-", "Thiochroman-4-one, 6-fluoro-", "6-Fluoro-2,3-dihydro-4H-1-benzothiopyran-4-one", "6-Fluorothiochroman-4-one", "6-Fluoro-2,3-dihydro-4H-thiochromen-4-one", "6-Fluoro-2,3-dihydro-4H-[1]benzothiopyran-4-one"], "SMILES": "O=C1C=2C(=CC=C(F)C2)SCC1", "physical_data": {"Molecular Weight": "182.21", "Molecular Formula": "C9H7FOS", "Melting Point": "96-97 \u00b0C"}}