{"cas_no": "21245-02-3", "cn_name": "\u5bf9\u4e8c\u7532\u6c28\u57fa\u82ef\u7532\u9178\u5f02\u8f9b\u916f", "en_name": ["4-(Dimethylamino)benzoic acid 2-ethylhexyl ester", "Benzoic acid, 4-(dimethylamino)-, 2-ethylhexyl ester", "Benzoic acid, p-(dimethylamino)-, 2-ethylhexyl ester", "Escalol 507", "2-Ethylhexyl 4-(N,N-dimethylamino)benzoate", "2-Ethylhexyl p-(dimethylamino)benzoate", "Padimate O", "2-Ethylhexyl N,N-dimethyl-p-aminobenzoate", "2-Ethylhexyl 4-(dimethylamino)benzoate", "2-Ethylhexyl p-(N,N-dimethylamino)benzoate", "Arlatone UVB", "Eusolex 6007", "Quantacure EHA", "Octyl dimethyl PABA", "4-(Dimethylamino)benzoic acid 2-ethylhexyl ester", "EHDAB", "Esacure EHA", "Speedcure EHA", "Omnirad EHA", "Genocure EHA", "ODPABA", "Chivacure OPD", "Chemcure EHA", "Ethylhexyl dimethyl paba", "Gencure EHA"], "SMILES": "C(OCC(CCCC)CC)(=O)C1=CC=C(N(C)C)C=C1", "physical_data": {"Molecular Weight": "277.40", "Molecular Formula": "C17H27NO2", "Melting Point": "242.5-243.5 \u00b0C"}}