{"cas_no": "21249-59-2", "cn_name": "3-\u6eb4\u4e01\u9178\u7532\u916f", "en_name": ["Butanoic acid, 3-bromo-, methyl ester", "Butanoic acid, 3-bromo-, methyl ester", "Butyric acid, 3-bromo-, methyl ester", "Methyl 3-bromobutanoate", "Methyl 3-bromobutyrate"], "SMILES": "C(CC(Br)C)(OC)=O", "physical_data": {"Molecular Weight": "181.03", "Molecular Formula": "C5H9BrO2", "Boiling Point": "71 \u00b0C @ Press: 15 Torr", "Density": "1.3858 g/cm\u00b3 @ Temp: 25 \u00b0C"}}