{"cas_no": "2124-57-4", "cn_name": "\u7ef4\u751f\u7d20 K2(35)", "en_name": ["Menaquinone 7", "1,4-Naphthalenedione, 2-[(2E,6E,10E,14E,18E,22E)-3,7,11,15,19,23,27-heptamethyl-2,6,10,14,18,22,26-octacosaheptaen-1-yl]-3-methyl-", "1,4-Naphthoquinone, 2-(3,7,11,15,19,23,27-heptamethyl-2,6,10,14,18,22,26-octacosaheptaenyl)-3-methyl-, (all-E)-", "1,4-Naphthalenedione, 2-(3,7,11,15,19,23,27-heptamethyl-2,6,10,14,18,22,26-octacosaheptaenyl)-3-methyl-, (all-E)-", "1,4-Naphthalenedione, 2-[(2E,6E,10E,14E,18E,22E)-3,7,11,15,19,23,27-heptamethyl-2,6,10,14,18,22,26-octacosaheptaenyl]-3-methyl-", "2-[(2E,6E,10E,14E,18E,22E)-3,7,11,15,19,23,27-Heptamethyl-2,6,10,14,18,22,26-octacosaheptaen-1-yl]-3-methyl-1,4-naphthalenedione", "Vitamin K2(35)", "Menaquinone K7", "Menaquinone 7", "MK-7", "Vitamin MK 7", "K 2 Oil M 1500", "Vitamin K2-7"], "SMILES": "O=C1C=2C(C(=O)C(C)=C1CC=C(CCC=C(CCC=C(CCC=C(CCC=C(CCC=C(CCC=C(C)C)C)C)C)C)C)C)=CC=CC2", "physical_data": {"Molecular Weight": "649.00", "Molecular Formula": "C46H64O2", "Melting Point": "54 \u00b0C"}}