{"cas_no": "21240-34-6", "cn_name": "1,2-\u4e8c\u82ef\u57fa\u4e9a\u4e59\u70ef\u57fa\u78b3\u9178\u76d0", "en_name": ["4,5-Diphenyl-1,3-dioxol-2-one", "1,3-Dioxol-2-one, 4,5-diphenyl-", "Carbonic acid, cyclic diphenylvinylene ester", "4,5-Diphenyl-1,3-dioxol-2-one", "1,2-Diphenylvinylene carbonate", "Cyclic diphenylvinylene carbonate", "Diphenyl-1,3-dioxol-2-one", "NSC 177493"], "SMILES": "O=C1OC(=C(O1)C2=CC=CC=C2)C3=CC=CC=C3", "physical_data": {"Molecular Weight": "238.24", "Molecular Formula": "C15H10O3", "Melting Point": "74-76 \u00b0C"}}