{"cas_no": "2125-23-7", "cn_name": "2,4,6-\u4e09(2,4-\u4e8c\u7f9f\u57fa\u82ef\u57fa)-1,3,5-\u4e09\u55ea", "en_name": ["Tris(2,4-dihydroxyphenyl)-1,3,5-triazine", "1,3-Benzenediol, 4,4\u2032,4\u2032\u2032-(1,3,5-triazine-2,4,6-triyl)tris-", "Resorcinol, 4,4\u2032,4\u2032\u2032-s-triazine-2,4,6-triyltri-", "4,4\u2032,4\u2032\u2032-(1,3,5-Triazine-2,4,6-triyl)tris[1,3-benzenediol]", "2,4,6-Tris(2,4-Dihydroxyphenyl)-s-triazine", "2,4,6-Tris[2,4-dihydroxyphenyl]-1,3,5-triazine", "2,4,6-Tri(2,4-dihydroxyphenyl)-1,3,5-triazine", "Tris(2,4-dihydroxyphenyl)-1,3,5-triazine"], "SMILES": "OC1=C(C=2N=C(N=C(N2)C3=C(O)C=C(O)C=C3)C4=C(O)C=C(O)C=C4)C=CC(O)=C1", "physical_data": {"Molecular Weight": "405.36", "Molecular Formula": "C21H15N3O6", "Melting Point": "&lt;300 \u00b0C"}}