{"cas_no": "21256-18-8", "cn_name": "\u5965\u6c99\u666e\u79e6", "en_name": ["Oxaprozin", "2-Oxazolepropanoic acid, 4,5-diphenyl-", "2-Oxazolepropionic acid, 4,5-diphenyl-", "4,5-Diphenyl-2-oxazolepropanoic acid", "\u03b2-(4,5-Diphenyloxazol-2-yl)propionic acid", "Oxaprozin", "4,5-Diphenyl-2-oxazolepropionic acid", "Wy 21743", "Daypro", "Durapro", "Alvo", "Duraprost", "Oxapro", "NSC 310839", "Actirin", "3-(4,5-Diphenyloxazol-2-yl)propionic acid", "Oxoprazine", "3-(4,5-Diphenyloxazol-2-yl)propanoic acid"], "SMILES": "C(CC(O)=O)C1=NC(=C(O1)C2=CC=CC=C2)C3=CC=CC=C3", "physical_data": {"Molecular Weight": "293.32", "Molecular Formula": "C18H15NO3", "Melting Point": "160.5-161.5 \u00b0C"}}