{"cas_no": "21259-20-1", "cn_name": "T-2\u6bd2\u7d20(\u9570\u5200\u83cc\u5c5e)", "en_name": ["T 2 Toxin", "Trichothec-9-ene-3,4,8,15-tetrol, 12,13-epoxy-, 4,15-diacetate 8-(3-methylbutanoate), (3\u03b1,4\u03b2,8\u03b1)-", "Trichothec-9-ene-3\u03b1,4\u03b2,8\u03b1,15-tetrol, 12,13-epoxy-, 4,15-diacetate 8-isovalerate", "Spiro[2,5-methano-1-benzoxepin-10,2\u2032-oxirane], trichothec-9-ene-3,4,8,15-tetrol deriv.", "8\u03b1-(3-Methylbutyryloxy)-4\u03b2,15-diacetoxyscirp-9-en-3\u03b1-ol", "4\u03b2,15-Diacetoxy-8\u03b1-(3-methylbutyryloxy)-12,13-epoxytrichothec-9-en-3\u03b1-ol", "T 2 Toxin", "Fusariotoxin T 2", "Toxin T 2", "Insariotoxin", "T 2 mycotoxin", "NSC 138780", "Mycotoxin T 2", "T 2", "T-2 Lienomycin", "MeSH ID: D013605"], "SMILES": "CC12C3(C(C(O)C1OC(C)=O)OC4C2(COC(C)=O)CC(OC(CC(C)C)=O)C(C)=C4)CO3", "physical_data": {"Molecular Weight": "466.52", "Molecular Formula": "C24H34O9", "Melting Point": "151-152 \u00b0C"}}