{"cas_no": "2126-91-2", "cn_name": "DL-\u72ac\u5c3f\u6c28\u9178\u786b\u9178\u76d0", "en_name": ["Benzenebutanoic acid, \u03b1,2-diamino-\u03b3-oxo-, sulfate (1:1)", "Benzenebutanoic acid, \u03b1,2-diamino-\u03b3-oxo-, sulfate (1:1)", "Alanine, 3-anthraniloyl-, sulfate (1:1), DL-", "Benzenebutanoic acid, \u03b1,2-diamino-\u03b3-oxo-, (\u00b1)-, sulfate (1:1)", "DL-Kynurenine sulfate", "2-Amino-4-(2-aminophenyl)-4-oxobutanoic acid compound with sulfuric acid (1:1)"], "SMILES": "C(CC(C(O)=O)N)(=O)C1=C(N)C=CC=C1.S(=O)(=O)(O)O", "physical_data": {"Molecular Weight": "", "Molecular Formula": "C10H12N2O3.H2O4S", "Melting Point": "174-175 \u00b0C (decomp)"}}