{"cas_no": "212650-43-6", "cn_name": "N-BOC-\u5417\u5549-2-\u7fa7\u9178", "en_name": ["4-(tert-Butoxycarbonyl)morpholine-3-carboxylic acid", "3,4-Morpholinedicarboxylic acid, 4-(1,1-dimethylethyl) ester", "4-(tert-Butoxycarbonyl)morpholine-3-carboxylic acid", "N-Boc-morpholine-3-carboxylic acid", "4-[[(1,1-Dimethylethyl)oxy]carbonyl]-3-morpholinecarboxylic acid", "Morpholine-3,4-dicarboxylic acid 4-tert-butyl ester", "4-Boc-morpholine-3-carboxylic acid"], "SMILES": "C(OC(C)(C)C)(=O)N1C(C(O)=O)COCC1", "physical_data": {"Molecular Weight": "231.25", "Molecular Formula": "C10H17NO5", "Melting Point": "159-160 \u00b0C"}}