{"cas_no": "212631-67-9", "cn_name": "5-\u6eb4-2-((2-\u6c2f-4-\u7898\u82ef\u57fa)\u6c28\u57fa)-N-(\u73af\u4e19\u57fa\u7532\u6c27\u57fa)-3,4-\u4e8c\u6c1f\u82ef\u7532\u9170\u80fa", "en_name": ["5-Bromo-2-[(2-chloro-4-iodophenyl)amino]-N-(cyclopropylmethoxy)-3,4-difluorobenzamide", "Benzamide, 5-bromo-2-[(2-chloro-4-iodophenyl)amino]-N-(cyclopropylmethoxy)-3,4-difluoro-", "5-Bromo-2-[(2-chloro-4-iodophenyl)amino]-N-(cyclopropylmethoxy)-3,4-difluorobenzamide", "5-Bromo-2-(2-chloro-4-iodophenylamino)-N-cyclopropylmethoxy-3,4-difluorobenzamide", "PD 184161"], "SMILES": "N(C1=C(C(NOCC2CC2)=O)C=C(Br)C(F)=C1F)C3=C(Cl)C=C(I)C=C3", "physical_data": {"Molecular Weight": "557.56", "Molecular Formula": "C17H13BrClF2IN2O2", "Melting Point": "174-175 \u00b0C"}}