{"cas_no": "2127-10-8", "cn_name": "2,2'-\u4e8c\u786b\u53cc(5-\u785d\u57fa\u5421\u5576)", "en_name": ["2,2\u2032-Dithiobis[5-nitropyridine]", "Pyridine, 2,2\u2032-dithiobis[5-nitro-", "2,2\u2032-Dithiobis[5-nitropyridine]", "2,2\u2032-Dithiobis(5-nitropyridine)", "DTNP", "Bis(5-nitro-2-pyridyl) disulfide", "5,5\u2032-Dinitro-2,2\u2032-dipyridyl disulfide", "5-Nitro-2-pyridyl disulfide", "6,6\u2032-Dithiobis(3-nitropyridine)", "2,2\u2032-Bis(5-nitropyridyl) disulfide", "5,5\u2032-Dinitro-2,2\u2032-dithiobis[pyridine]", "NSC 677436", "NSC 149336", "5,5\u2032-Dinitro-2,2\u2032-dithiodipyridine", "Bis(5-nitropyridin-2-yl) disulfide", "2,2\u2032-Dithiodi(5-nitropyridine)", "1,2-Bis(5-nitropyridin-2-yl)disulfane", "5-Nitro-2-[(5-nitropyridin-2-yl)disulfanyl]pyridine"], "SMILES": "N(=O)(=O)C=1C=CC(SSC2=CC=C(N(=O)=O)C=N2)=NC1", "physical_data": {"Molecular Weight": "310.31", "Molecular Formula": "C10H6N4O4S2", "Melting Point": "150-151 \u00b0C"}}