{"cas_no": "2127-03-9", "cn_name": "2,2'-\u4e8c\u786b\u4e8c\u5421\u5576", "en_name": ["2,2\u2032-Dipyridyl disulfide", "Pyridine, 2,2\u2032-dithiobis-", "Pyridine, 2,2\u2032-dithiodi-", "2,2\u2032-Dithiobis[pyridine]", "2,2\u2032-Dithiodipyridine", "2,2\u2032-Dipyridyl disulfide", "Bis(2-pyridyl) disulfide", "Di-2-pyridyl disulfide", "Bis(2-pyridinyl) disulfide", "2-Pyridyl disulfide", "Aldrithiol 2", "2,2\u2032-Dipyridinyl disulfide", "NSC 677438", "2-Aldrithiol", "NSC 94055", "Bis(pyridin-2-yl) disulfide", "1,2-Bis(2-pyridinyl) disulfide", "2,2\u2032-Bipyridyl disulfide", "2\u2032-Aldrithiol", "Di-2-pyridinyl disulfide", "2,2\u2032-Disulfanediyldipyridine", "1,2-Di(pyridin-2-yl)disulfane", "2,2-Dithiobispyridine", "2-(Pyridin-2-yldisulfanyl)pyridine", "Aldrithiol", "QA 4326"], "SMILES": "S(SC1=CC=CC=N1)C2=CC=CC=N2", "physical_data": {"Molecular Weight": "220.31", "Molecular Formula": "C10H8N2S2", "Boiling Point": "57-57 \u00b0C", "Melting Point": "51-52 \u00b0C"}}