{"cas_no": "2128-93-0", "cn_name": "4-\u82ef\u57fa\u4e8c\u82ef\u7532\u916e", "en_name": ["4-Phenylbenzophenone", "Methanone, [1,1\u2032-biphenyl]-4-ylphenyl-", "Benzophenone, 4-phenyl-", "[1,1\u2032-Biphenyl]-4-ylphenylmethanone", "4-Benzoylbiphenyl", "4-Phenylbenzophenone", "p-Phenylbenzophenone", "p-Biphenylyl phenyl ketone", "4-Biphenylyl phenyl ketone", "Phenyl p-biphenylyl ketone", "p-Benzoylbiphenyl", "Trigonal 12", "Eusolex 3490", "NSC 55283", "NSC 97365", "4-Phenylphenyl phenyl methanone", "4-(Phenylcarbonyl)biphenyl", "Speedcure BPZ", "(Biphenyl-4-yl)(phenyl)methanone", "Genocure PBZ", "Speedcure PBZ", "4-Benzoyl-1,1\u2032-biphenyl", "Runtecure 1059", "JRcure PBZ", "Photoinitiator PBZ", "Gencure PBZ", "Omnirad 4PBZ"], "SMILES": "C(=O)(C1=CC=C(C=C1)C2=CC=CC=C2)C3=CC=CC=C3", "physical_data": {"Molecular Weight": "258.31", "Molecular Formula": "C19H14O", "Boiling Point": "419-420 \u00b0C @ Press: 744 Torr", "Melting Point": "102 \u00b0C"}}