{"cas_no": "21282-97-3", "cn_name": "\u4e59\u9170\u4e59\u9178\u7532\u57fa\u4e19\u70ef\u9178\u4e59\u4e8c\u9187\u916f", "en_name": ["2-(Acetoacetoxy)ethyl methacrylate", "Butanoic acid, 3-oxo-, 2-[(2-methyl-1-oxo-2-propen-1-yl)oxy]ethyl ester", "Acetoacetic acid, 2-hydroxyethyl ester methacrylate", "Butanoic acid, 3-oxo-, 2-[(2-methyl-1-oxo-2-propenyl)oxy]ethyl ester", "2-Hydroxyethyl methacrylate acetoacetate", "2-(Methacryloyloxy)ethyl acetoacetate", "Lonzamon AAEMA", "Ethylene glycol acetoacetate methacrylate", "2-(Acetoacetoxy)ethyl methacrylate", "Eastman AAEM", "AAEM", "3-Oxo-butyric acid 2-(2-methylacryloyloxy)ethyl ester", "Ethylene glycol acetylacetate methacrylate", "2-(Acetylacetoxy)ethyl methacrylate", "Ethylene glycol monoacetoacetate monomethacrylate", "2-[(2-Methylprop-2-enoyl)oxy]ethyl 3-oxobutanoate", "2-(Methacryloyloxy)ethyl3-oxobutanoate", "2-(2-Methylprop-2-enoyloxy)ethyl 3-oxobutanoate", "M 10571"], "SMILES": "O(CCOC(C(C)=C)=O)C(CC(C)=O)=O", "physical_data": {"Molecular Weight": "214.22", "Molecular Formula": "C10H14O5", "Melting Point": "&lt;25 \u00b0C"}}