{"cas_no": "21286-54-4", "cn_name": "\u53f3\u65cb\u6a1f\u8111-10-\u78fa\u9170\u6c2f", "en_name": ["10-Camphorsulfonyl chloride", "Bicyclo[2.2.1]heptane-1-methanesulfonyl chloride, 7,7-dimethyl-2-oxo-, (1S,4R)-", "10-Bornanesulfonyl chloride, 2-oxo-, (+)-", "Bicyclo[2.2.1]heptane-1-methanesulfonyl chloride, 7,7-dimethyl-2-oxo-, (1S)-", "10-Camphorsulfonyl chloride", "(1S,4R)-7,7-Dimethyl-2-oxobicyclo[2.2.1]heptane-1-methanesulfonyl chloride", "d-Camphorsulfonyl chloride", "(+)-Camphorsulfonyl chloride", "(+)-10-Camphorsulfonyl chloride", "d-10-Camphorsulfonyl chloride", "(1S)-Camphor-10-sulfonyl chloride", "(1S)-(+)-Camphorsulfonyl chloride", "(1S)-(+)-10-Camphorsulfonyl chloride", "(1S)-10-Camphorsulfonyl chloride", "(1S)-1-[(Chlorosulfonyl)methyl]-7,7-dimethylbicyclo[2.2.1]heptan-2-one", "(S)-(+)-10-Camphorsulfonyl chloride", "(+)-10-Camphorsulfonic acid chloride", "(S)-Camphor-10-sulfonyl chloride", "(S)-(+)-Camphorsulfonyl chloride", "((1S,4R)-7,7-Dimethyl-2-oxobicyclo[2.2.1]heptan-1-yl)methanesulfonyl chloride", "d-Camphorsulfonyl chloride", "D-(+)-10-Camphorsulfonyl chloride"], "SMILES": "C(S(Cl)(=O)=O)C12C(C)(C)C(CC1=O)CC2", "physical_data": {"Molecular Weight": "250.74", "Molecular Formula": "C10H15ClO3S", "Boiling Point": "40-60 \u00b0C", "Melting Point": "68 \u00b0C"}}