{"cas_no": "212844-54-7", "cn_name": "(2R)-2-[[6-[(3-\u6c2f-4-\u7fa7\u57fa\u82ef\u57fa)\u6c28\u57fa]-9-(1-\u7532\u57fa\u4e59\u57fa)-9H-\u560c\u5464-2-\u57fa]\u6c28\u57fa]-3-\u7532\u57fa-1-\u4e01\u9187", "en_name": ["Purvalanol B", "Benzoic acid, 2-chloro-4-[[2-[[(1R)-1-(hydroxymethyl)-2-methylpropyl]amino]-9-(1-methylethyl)-9H-purin-6-yl]amino]-", "2-Chloro-4-[[2-[[(1R)-1-(hydroxymethyl)-2-methylpropyl]amino]-9-(1-methylethyl)-9H-purin-6-yl]amino]benzoic acid", "Purvalanol B", "NG 95"], "SMILES": "N(C1=C2C(N(C(C)C)C=N2)=NC(NC(C(C)C)CO)=N1)C3=CC(Cl)=C(C(O)=O)C=C3", "physical_data": {"Molecular Weight": "432.90", "Molecular Formula": "C20H25ClN6O3", "Melting Point": "55.9 \u00b0C"}}