{"cas_no": "21298-55-5", "cn_name": "2-(3-\u567b\u5429\u57fa)\u5421\u5576", "en_name": ["2-(3-Thienyl)pyridine", "Pyridine, 2-(3-thienyl)-", "2-(3-Thienyl)pyridine", "2-(3\u2032-Thienyl)pyridine", "2-Pyridyl-3-thiophene", "2-(Thiophen-3-yl)pyridine", "2-Thiophen-3-ylpyridine"], "SMILES": "C=1(C=CSC1)C2=CC=CC=N2", "physical_data": {"Molecular Weight": "161.22", "Molecular Formula": "C9H7NS", "Boiling Point": "90-92 \u00b0C @ Press: 0.5 Torr", "Melting Point": "251.8-252.6 \u00b0C"}}