{"cas_no": "21296-94-6", "cn_name": "2,3-\u4e8c\u7532\u57fa-5-\u785d\u57fa\u5432\u54da", "en_name": ["2,3-Dimethyl-5-nitro-1H-indole", "1H-Indole, 2,3-dimethyl-5-nitro-", "Indole, 2,3-dimethyl-5-nitro-", "2,3-Dimethyl-5-nitro-1H-indole", "5-Nitro-2,3-dimethylindole", "2,3-Dimethyl-5-nitroindole", "INF 2", "NSC 84204"], "SMILES": "CC=1C=2C(NC1C)=CC=C(N(=O)=O)C2", "physical_data": {"Molecular Weight": "190.20", "Molecular Formula": "C10H10N2O2", "Melting Point": "186 \u00b0C"}}