{"cas_no": "2129-89-7", "cn_name": "\u7532\u57fa\u4e8c\u82ef\u57fa\u6c27\u5316\u81a6", "en_name": ["Methyldiphenylphosphine oxide", "Phosphine oxide, methyldiphenyl-", "Methyldiphenylphosphine oxide", "Diphenylmethylphosphine oxide", "NSC 407134", "Methyldiphenyloxophosphine"], "SMILES": "P(C)(=O)(C1=CC=CC=C1)C2=CC=CC=C2", "physical_data": {"Molecular Weight": "216.22", "Molecular Formula": "C13H13OP", "Boiling Point": "151-152 \u00b0C @ Press: 10 Torr", "Melting Point": "109-110 \u00b0C"}}