{"cas_no": "21293-29-8", "cn_name": "(+)-\u8131\u843d\u9178", "en_name": ["Abscisic acid", "2,4-Pentadienoic acid, 5-[(1S)-1-hydroxy-2,6,6-trimethyl-4-oxo-2-cyclohexen-1-yl]-3-methyl-, (2Z,4E)-", "2,4-Pentadienoic acid, 5-(1-hydroxy-2,6,6-trimethyl-4-oxo-2-cyclohexen-1-yl)-3-methyl-, (Z,E)-(S)-(+)-", "2,4-Pentadienoic acid, 5-(1-hydroxy-2,6,6-trimethyl-4-oxo-2-cyclohexen-1-yl)-3-methyl-, [S-(Z,E)]-", "(2Z,4E)-5-[(1S)-1-Hydroxy-2,6,6-trimethyl-4-oxo-2-cyclohexen-1-yl]-3-methyl-2,4-pentadienoic acid", "cis-trans-(+)-Abscisic acid", "Abscisin II", "Dormin", "Abscisic acid", "(+)-Abscisic acid", "Abscisic acid, (+)-", "2-cis,4-trans-Abscisic acid", "(+)-Abscisin II", "(+)-cis-Abscisic acid", "cis-Abscisic acid", "(S)-(+)-Abscisic acid", "Dormin (abscission factor)", "ABA", "cis,trans-Abscisic acid", "ABK", "(+)-(S)-Abscisic acid", "(+)-(cis,trans)-Abscisic acid", "(S)-(+)-ABA", "(+)-ABA", "PBI 58", "(S)-ABA", "NSC 146877", "NSC 148832", "(Z,E)-Abscisic acid", "ProTone", "MeSH ID: D000040"], "SMILES": "C(=CC(=CC(O)=O)C)C1(O)C(C)(C)CC(=O)C=C1C", "physical_data": {"Molecular Weight": "264.32", "Molecular Formula": "C15H20O4", "Melting Point": "160 \u00b0C"}}