{"cas_no": "213-46-7", "cn_name": "\u82c9", "en_name": ["Picene", "Picene", "Benzo[a]chrysene", "Dibenzo[a,i]phenanthrene", "1,2:7,8-Dibenzophenanthrene", "NSC 406006", "[5]Phenacene"], "SMILES": "C12=C3C(C=4C(C=C3)=CC=CC4)=CC=C1C=5C(C=C2)=CC=CC5", "physical_data": {"Molecular Weight": "278.35", "Molecular Formula": "C22H14", "Boiling Point": "519 \u00b0C", "Melting Point": "368 \u00b0C"}}