{"cas_no": "2130-96-3", "cn_name": "Boc-O-\u82c4\u57fa-L-\u916a\u6c28\u9178", "en_name": ["N-[(1,1-Dimethylethoxy)carbonyl]-O-(phenylmethyl)-L-tyrosine", "L-Tyrosine, N-[(1,1-dimethylethoxy)carbonyl]-O-(phenylmethyl)-", "Alanine, 3-[p-(benzyloxy)phenyl]-N-carboxy-, N-tert-butyl ester, L-", "Alanine, 3-[p-(benzyloxy)phenyl]-N-carboxy-, N-tert-butyl ester", "L-Alanine, 3-[p-(benzyloxy)phenyl]-N-carboxy-, N-tert-butyl ester", "N-[(1,1-Dimethylethoxy)carbonyl]-O-(phenylmethyl)-L-tyrosine", "N-(tert-Butyloxycarbonyl)-O-benzyl-L-tyrosine", "O-Benzyl-N-tert-butoxycarbonyl-L-tyrosine", "N-(tert-Butoxycarbonyl)-O-benzyl-L-tyrosine", "(tert-Butoxycarbonyl)-O-benzyltyrosine", "N-(tert-Butoxycarbonyl)-O4-benzyl-L-tyrosine", "N-(tert-Butoxycarbonyl)-O-benzyltyrosine", "NSC 164044", "(2S)-3-[4-(Benzyloxy)phenyl]-2-[(tert-butoxycarbonyl)amino]propanoic acid", "(S)-3-(4-Benzyloxyphenyl)-2-(tert-butoxycarbonylamino)propionic acid", "(2S)-2-[(2-Methylpropan-2-yl)oxycarbonylamino]-3-(4-phenylmethoxyphenyl)propanoic acid", "(S)-3-(4-(Benzyloxy)phenyl)-2-((tert-butoxycarbonyl)amino)propanoic acid", "(2S)-3-(4-Benzyloxyphenyl)-2-(tert-butoxycarbonylamino)propanoic acid"], "SMILES": "C(C(NC(OC(C)(C)C)=O)C(O)=O)C1=CC=C(OCC2=CC=CC=C2)C=C1", "physical_data": {"Molecular Weight": "371.43", "Molecular Formula": "C21H25NO5", "Melting Point": "108-109 \u00b0C"}}