{"cas_no": "21302-43-2", "cn_name": "5-\u6c28\u57fa-8-\u7f9f\u57fa\u55b9\u5549\u4e8c\u76d0\u9178\u76d0", "en_name": ["5-Amino-8-hydroxyquinoline dihydrochloride", "8-Quinolinol, 5-amino-, hydrochloride (1:2)", "8-Quinolinol, 5-amino-, dihydrochloride", "5-Amino-8-hydroxyquinoline dihydrochloride", "5-Amino-8-quinolinol dihydrochloride"], "SMILES": "NC=1C2=C(C(O)=CC1)N=CC=C2.Cl", "physical_data": {"Molecular Weight": "", "Molecular Formula": "C9H8N2O.2ClH", "Melting Point": "&gt;280 \u00b0C (decomp)"}}