{"cas_no": "21302-79-4", "cn_name": "\u7f8e\u6d32\u8336\u9178", "en_name": ["Ceanothic acid", "3\u2032H-Cyclopenta[3,4]-18-norandrost-3-ene-3\u2032,13-dicarboxylic acid, tetrahydro-4\u2032-hydroxy-4,5\u2032,5\u2032,9-tetramethyl-15-(1-methylethenyl)-, (3\u03b2,3\u2032\u03b2,4\u03b1,4\u2032\u03b1,5\u03b2,8\u03b1,9\u03b2,10\u03b1,13\u03b1,14\u03b2,15\u03b2)-", "A(1)-Norlup-20(29)-en-28-oic acid, 2\u03b1-carboxy-3\u03b2-hydroxy-", "Ceanothic acid", "Emmolic acid", "A(1),28-Dinorlup-20(29)-ene-2,17-dicarboxylic acid, 3-hydroxy-, (2\u03b1,3\u03b2)-", "(3\u03b2,3\u2032\u03b2,4\u03b1,4\u2032\u03b1,5\u03b2,8\u03b1,9\u03b2,10\u03b1,13\u03b1,14\u03b2,15\u03b2)-Tetrahydro-4\u2032-hydroxy-4,5\u2032,5\u2032,9-tetramethyl-15-(1-methylethenyl)-3\u2032H-cyclopenta[3,4]-18-norandrost-3-ene-3\u2032,13-dicarboxylic acid", "2\u03b1-Carboxy-3\u03b2-hydroxy-A(1)-norlup-20(29)-en-28-oic acid"], "SMILES": "CC12C3C(C)(C4(C)C(CC3)C5C(C(O)=O)(CC4)CCC5C(C)=C)CCC1C(C)(C)C(O)C2C(O)=O", "physical_data": {"Molecular Weight": "486.68", "Molecular Formula": "C30H46O5", "Melting Point": "354 \u00b0C"}}