{"cas_no": "21314-17-0", "cn_name": "4-\u7f9f\u57fa-1-\u82ef\u57fa\u5421\u5511\u5e76[3,4-D]\u5627\u5576", "en_name": ["1,5-Dihydro-1-phenyl-4H-pyrazolo[3,4-d]pyrimidin-4-one", "4H-Pyrazolo[3,4-d]pyrimidin-4-one, 1,5-dihydro-1-phenyl-", "1H-Pyrazolo[3,4-d]pyrimidin-4-ol, 1-phenyl-", "1,5-Dihydro-1-phenyl-4H-pyrazolo[3,4-d]pyrimidin-4-one", "1-Phenylallopurinol", "4-Hydroxy-1-phenylpyrazolo[3,4-d]pyrimidine", "NSC 3954", "1-Phenyl-1H-pyrazolo[3,4-d]pyrimidin-4-ol", "1-Phenyl-1,5-dihydro-4H-pyrazolo[3,4-d]pyrimidin-4-one", "1-Phenyl-1H-Pyrazolo[3,4-d]pyrimidine-4-ol", "1-Phenyl-1H,4H,5H-pyrazolo[3,4-d]pyrimidin-4-one"], "SMILES": "O=C1C2=C(N(N=C2)C3=CC=CC=C3)NC=N1", "physical_data": {"Molecular Weight": "212.21", "Molecular Formula": "C11H8N4O", "Melting Point": "299 \u00b0C"}}