{"cas_no": "2131-61-5", "cn_name": "\u5f02\u786b\u4ee3\u6c30\u57fa4-\u785d\u57fa\u82ef\u916f", "en_name": ["4-Nitrophenyl isothiocyanate", "Benzene, 1-isothiocyanato-4-nitro-", "Isothiocyanic acid, p-nitrophenyl ester", "1-Isothiocyanato-4-nitrobenzene", "p-Nitrophenyl isothiocyanate", "4-Nitrophenyl isothiocyanate"], "SMILES": "N(=O)(=O)C1=CC=C(N=C=S)C=C1", "physical_data": {"Molecular Weight": "180.18", "Molecular Formula": "C7H4N2O2S", "Boiling Point": "137-138 \u00b0C", "Melting Point": "110-112 \u00b0C"}}