{"cas_no": "2131-59-1", "cn_name": "\u5f02\u786b\u6c30\u76843-\u6eb4\u82ef\u916f", "en_name": ["3-Bromophenyl isothiocyanate", "Benzene, 1-bromo-3-isothiocyanato-", "Isothiocyanic acid, m-bromophenyl ester", "1-Bromo-3-isothiocyanatobenzene", "m-Bromophenyl isothiocyanate", "3-Bromophenyl isothiocyanate", "m-Bromophenyl isothiocyanate"], "SMILES": "N(=C=S)C1=CC(Br)=CC=C1", "physical_data": {"Molecular Weight": "214.08", "Molecular Formula": "C7H4BrNS", "Boiling Point": "256 \u00b0C"}}