{"cas_no": "2131-62-6", "cn_name": "4-\u7fa7\u57fa\u82ef\u57fa\u5f02\u786b\u6c30\u9178\u916f", "en_name": ["4-Isothiocyanatobenzoic acid", "Benzoic acid, 4-isothiocyanato-", "Benzoic acid, p-isothiocyanato-", "4-Isothiocyanatobenzoic acid", "p-Isothiocyanatobenzoic acid", "4-Carboxyphenyl isothiocyanate", "NSC 52064"], "SMILES": "C(O)(=O)C1=CC=C(N=C=S)C=C1", "physical_data": {"Molecular Weight": "179.20", "Molecular Formula": "C8H5NO2S", "Melting Point": "209-210 \u00b0C"}}