{"cas_no": "2131-18-2", "cn_name": "\u5341\u4e94\u70f7\u57fa\u82ef", "en_name": ["Pentadecylbenzene", "Benzene, pentadecyl-", "Pentadecane, 1-phenyl-", "Pentadecylbenzene", "n-Pentadecylbenzene", "1-Phenylpentadecane", "1-Phenyl-n-pentadecane", "Pentadecylbenzol", "NSC 88949"], "SMILES": "C(CCCCCCCCCCCCCC)C1=CC=CC=C1", "physical_data": {"Molecular Weight": "288.51", "Molecular Formula": "C21H36", "Boiling Point": "373 \u00b0C", "Melting Point": "22 \u00b0C", "Density": "0.8548 g/cm\u00b3 @ Temp: 20 \u00b0C"}}