{"cas_no": "2131-55-7", "cn_name": "4-\u6c2f\u5f02\u786b\u6c30\u9178\u82ef\u916f", "en_name": ["4-Chlorophenyl isothiocyanate", "Benzene, 1-chloro-4-isothiocyanato-", "Isothiocyanic acid, p-chlorophenyl ester", "1-Chloro-4-isothiocyanatobenzene", "4-Chlorophenyl isothiocyanate", "Sch 20350", "p-Chlorophenyl isothiocyanate", "NSC 20213"], "SMILES": "N(=C=S)C1=CC=C(Cl)C=C1", "physical_data": {"Molecular Weight": "169.63", "Molecular Formula": "C7H4ClNS", "Boiling Point": "249.5 \u00b0C", "Melting Point": "46 \u00b0C"}}