{"cas_no": "21312-10-7", "cn_name": "\u918b\u78fa\u80fa\u7532\u5641\u5511", "en_name": ["Acetylsulfamethoxazole", "Acetamide, N-[4-[[(5-methyl-3-isoxazolyl)amino]sulfonyl]phenyl]-", "Acetanilide, 4\u2032-[(5-methyl-3-isoxazolyl)sulfamoyl]-", "N-[4-[[(5-Methyl-3-isoxazolyl)amino]sulfonyl]phenyl]acetamide", "N4-Acetylsulfisomezole", "Sulfisomezole-N4-acetate", "N4-Acetylsulfamethoxazole", "4\u2032-Acetyl-3-sulfa-5-methylisoxazole", "Acetylsulfamethoxazole", "N4-Acetylsulfamethoxazole", "STX 606", "N-Acetylsulfamethoxazole"], "SMILES": "N(S(=O)(=O)C1=CC=C(NC(C)=O)C=C1)C2=NOC(C)=C2", "physical_data": {"Molecular Weight": "295.31", "Molecular Formula": "C12H13N3O4S", "Melting Point": "220-221 \u00b0C"}}