{"cas_no": "2131-63-7", "cn_name": "3-\u7fa7\u57fa\u5f02\u786b\u6c30\u9178\u82ef\u916f", "en_name": ["3-Isothiocyanatobenzoic acid", "Benzoic acid, 3-isothiocyanato-", "Benzoic acid, m-isothiocyanato-", "3-Isothiocyanatobenzoic acid", "m-Isothiocyanatobenzoic acid", "3-Carboxyphenyl isothiocyanate", "NSC 53162"], "SMILES": "N(=C=S)C1=CC(C(O)=O)=CC=C1", "physical_data": {"Molecular Weight": "179.20", "Molecular Formula": "C8H5NO2S", "Melting Point": "165 \u00b0C"}}