{"cas_no": "2131-41-1", "cn_name": "\u4e09\u7532\u57fa\u8418", "en_name": ["1,4,5-Trimethylnaphthalene", "Naphthalene, 1,4,5-trimethyl-", "1,4,5-Trimethylnaphthalene"], "SMILES": "CC=1C2=C(C(C)=CC1)C(C)=CC=C2", "physical_data": {"Molecular Weight": "170.25", "Molecular Formula": "C13H14", "Boiling Point": "145 \u00b0C", "Melting Point": "63 \u00b0C"}}