{"cas_no": "2131-64-8", "cn_name": "4-\u4e8c\u7532\u80fa\u57fa\u82ef\u57fa\u4e59\u786b\u6c30\u9178\u916f", "en_name": ["4-Isothiocyanato-N,N-dimethylbenzenamine", "Benzenamine, 4-isothiocyanato-N,N-dimethyl-", "Isothiocyanic acid, p-(dimethylamino)phenyl ester", "Aniline, p-isothiocyanato-N,N-dimethyl-", "4-Isothiocyanato-N,N-dimethylbenzenamine", "p-Isothiocyanato-N,N-dimethylaniline", "p-(Dimethylamino)phenyl isothiocyanate", "4-(N,N-Dimethylamino)phenyl isothiocyanate", "4-(Dimethylamino)phenyl isothiocyanate", "NSC 196179", "(4-Isothiocyanatophenyl)dimethylamine"], "SMILES": "N(C)(C)C1=CC=C(N=C=S)C=C1", "physical_data": {"Molecular Weight": "178.25", "Molecular Formula": "C9H10N2S", "Melting Point": "73 \u00b0C", "Density": "1.12 g/cm\u00b3"}}