{"cas_no": "21324-40-3", "cn_name": "\u516d\u6c1f\u78f7\u9178\u9502", "en_name": ["Lithium hexafluorophosphate", "Phosphate(1-), hexafluoro-, lithium (1:1)", "Phosphate(1-), hexafluoro-, lithium", "Lithium hexafluorophosphate", "Lithium hexafluorophosphate (LiPF6)", "Lithium hexafluorophosphate(1-)", "Lithium fluophosphate", "Lithium phosphorus fluoride (LiPF6)", "LBG 45864", "LBC 305-01"], "SMILES": "[P+5]([F-])([F-])([F-])([F-])([F-])[F-].[Li+]", "physical_data": {"Molecular Weight": "", "Molecular Formula": "F6P.Li", "Melting Point": "194.29 \u00b0C (decomp)"}}