{"cas_no": "213261-59-7", "cn_name": "5,5'-(2,5-\u544b\u5583\u4e8c\u57fa)\u4e8c-2-\u567b\u5429\u7532\u9187", "en_name": ["5,5\u2032-(2,5-Furandiyl)bis[2-thiophenemethanol]", "2-Thiophenemethanol, 5,5\u2032-(2,5-furandiyl)bis-", "5,5\u2032-(2,5-Furandiyl)bis[2-thiophenemethanol]", "NSC 652287", "RITA", "[Furan-2,5-diylbis(thiene-5,2-diyl)]dimethanol", "[5-[5-[5-(Hydroxymethyl)thiophen-2-yl]furan-2-yl]thiophen-2-yl]methanol", "2,5-Bis[5-hydroxymethyl-2-thienyl]furan", "BRD-K 00317371"], "SMILES": "C(O)C=1SC(C=2OC(=CC2)C=3SC(CO)=CC3)=CC1", "physical_data": {"Molecular Weight": "292.37", "Molecular Formula": "C14H12O3S2", "Melting Point": "158-160 \u00b0C"}}