{"cas_no": "21327-86-6", "cn_name": "2-\u6c2f-6-\u7532\u57fa\u82ef\u7532\u9178", "en_name": ["2-Chloro-6-methylbenzoic acid", "Benzoic acid, 2-chloro-6-methyl-", "o-Toluic acid, 6-chloro-", "2-Chloro-6-methylbenzoic acid"], "SMILES": "C(O)(=O)C1=C(C)C=CC=C1Cl", "physical_data": {"Molecular Weight": "170.59", "Molecular Formula": "C8H7ClO2", "Melting Point": "108 \u00b0C"}}