{"cas_no": "2133-40-6", "cn_name": "L-\u812f\u6c28\u9178\u7532\u916f\u76d0\u9178\u76d0", "en_name": ["L-Proline, methyl ester, hydrochloride (1:1)", "L-Proline, methyl ester, hydrochloride (1:1)", "L-Proline, methyl ester, hydrochloride", "Proline, methyl ester, hydrochloride, L-", "Methyl prolinate hydrochloride", "(S)-Proline methyl ester hydrochloride", "Methyl L-prolinate hydrochloride", "Methyl proline hydrochloride", "L-Proline methyl ester monohydrochloride", "(2S)-(Methoxycarbonyl)pyrrolidine hydrochloride", "(S)-Methyl pyrrolidine-2-carboxylate hydrochloride", "(S)-Pyrrolidine-2-carboxylic acid methyl ester hydrochloride", "L-Pro-OMe hydrochloride", "Methyl L-prolinate hydrochloride", "Methyl L-prolinate hydrochloric acid salt", "Methyl (2S)-pyrrolidine-2-carboxylate hydrochloride"], "SMILES": "C(OC)(=O)C1CCCN1.Cl", "physical_data": {"Molecular Weight": "", "Molecular Formula": "C6H11NO2.ClH", "Melting Point": "71 \u00b0C"}}