{"cas_no": "21339-55-9", "cn_name": "\u76f8\u601d\u5b50\u78b1", "en_name": ["1-Methyl-L-tryptophan", "L-Tryptophan, 1-methyl-", "Tryptophan, 1-methyl-, L-", "1-Methyl-L-tryptophan", "1-Methyltryptophan", "L-1-Methyltryptophan", "L-(-)-1-Methyltryptophan", "NSC 77678", "(S)-2-Amino-3-(1-methyl-1H-indol-3-yl)propanoic acid", "N-1-Methyl-L-tryptophan"], "SMILES": "C(C(C(O)=O)N)C=1C=2C(N(C)C1)=CC=CC2", "physical_data": {"Molecular Weight": "218.25", "Molecular Formula": "C12H14N2O2", "Melting Point": "223-225 \u00b0C (decomp)"}}