{"cas_no": "21331-80-6", "cn_name": "(2-\u4e8c\u7532\u57fa\u6c28\u57fa\u4e59\u57fa)\u4e09\u82ef\u57fa\u6eb4\u5316\u81a6", "en_name": ["Phosphonium, [2-(dimethylamino)ethyl]triphenyl-, bromide (1:1)", "Phosphonium, [2-(dimethylamino)ethyl]triphenyl-, bromide (1:1)", "Phosphonium, [2-(dimethylamino)ethyl]triphenyl-, bromide", "[2-(Dimethylamino)ethyl]triphenylphosphonium bromide"], "SMILES": "[P+](CCN(C)C)(C1=CC=CC=C1)(C2=CC=CC=C2)C3=CC=CC=C3.[Br-]", "physical_data": {"Molecular Weight": "", "Molecular Formula": "C22H25NP.Br", "Melting Point": "204-205 \u00b0C"}}