{"cas_no": "2133-34-8", "cn_name": "(S)-(-)-2-\u7fa7\u57fa\u73af\u4e01\u80fa", "en_name": ["(-)-Azetidinecarboxylic acid", "2-Azetidinecarboxylic acid, (2S)-", "2-Azetidinecarboxylic acid, L-", "2-Azetidinecarboxylic acid, (S)-", "(2S)-2-Azetidinecarboxylic acid", "L-2-Azetidinecarboxylic acid", "(S)-Azetidine-2-carboxylic acid", "(S)-(-)-2-Azetidine carboxylic acid", "(2S)-Azetidine-2-carboxylic acid", "(-)-Azetidinecarboxylic acid", "2-Azetidinecarboxylic acid (2S)-"], "SMILES": "C(O)(=O)C1CCN1", "physical_data": {"Molecular Weight": "101.10", "Molecular Formula": "C4H7NO2", "Melting Point": "212 \u00b0C (decomp)"}}