{"cas_no": "21331-43-1", "cn_name": "2-\u6c28\u57fa-4-(2-\u8418\u57fa)\u567b\u5511", "en_name": ["2-Amino-4-(2-naphthyl)thiazole", "2-Thiazolamine, 4-(2-naphthalenyl)-", "Thiazole, 2-amino-4-(2-naphthyl)-", "4-(2-Naphthalenyl)-2-thiazolamine", "2-Amino-4-\u03b2-naphthylthiazole", "2-Amino-4-(2-naphthyl)thiazole", "4-(2-Naphthyl)-2-amino-1,3-thiazole", "2-Amino-4-(naphthalen-2-yl)thiazole"], "SMILES": "NC1=NC(C2=CC3=C(C=C2)C=CC=C3)=CS1", "physical_data": {"Molecular Weight": "226.30", "Molecular Formula": "C13H10N2S", "Melting Point": "153-154 \u00b0C"}}