{"cas_no": "21331-86-2", "cn_name": "\u4e09(\u4e09\u7532\u57fa\u7845\u57fa)\u80fa", "en_name": ["N,N-Bis(dimethylsilyl)-1,1-dimethylsilanamine", "Silanamine, N,N-bis(dimethylsilyl)-1,1-dimethyl-", "Disilazane, 2-(dimethylsilyl)-1,1,3,3-tetramethyl-", "N,N-Bis(dimethylsilyl)-1,1-dimethylsilanamine", "Tris(dimethylsilyl)amine", "[[Bis(dimethylsilyl)amino]-methylsilyl]methane"], "SMILES": "N([SiH](C)C)([SiH](C)C)[SiH](C)C", "physical_data": {"Molecular Weight": "191.49", "Molecular Formula": "C6H21NSi3", "Boiling Point": "152-155 \u00b0C", "Density": "0.804 g/cm\u00b3"}}