{"cas_no": "2134-29-4", "cn_name": "\u7f57\u6c0f\u83cc\u7d20", "en_name": ["Reuterin", "Propanal, 3-hydroxy-", "Hydracrylaldehyde", "3-Hydroxypropanal", "Hydracrolein", "3-Hydroxypropionaldehyde", "\u03b2-Hydroxypropanal", "\u03b2-Hydroxypropionaldehyde", "Reuterin", "3-Oxo-1-propanol"], "SMILES": "C(CO)C=O", "physical_data": {"Molecular Weight": "74.08", "Molecular Formula": "C3H6O2", "Boiling Point": "90 \u00b0C @ Press: 18 Torr"}}