{"cas_no": "2134-24-9", "cn_name": "N-\u82ef\u7532\u9170-DL-\u82ef\u57fa\u4e19\u6c28\u9178\u0392-\u82ef\u57fa\u916f", "en_name": ["N-Benzoyl-DL-phenylalanine \u03b2-naphthyl ester", "Phenylalanine, N-benzoyl-, 2-naphthalenyl ester", "Alanine, N-benzoyl-3-phenyl-, 2-naphthyl ester, DL-", "Alanine, N-benzoyl-3-phenyl-, 2-naphthyl ester", "2-Naphthol, ester with N-benzoyl-3-phenyl-DL-alanine", "N-Benzoyl-DL-phenylalanine \u03b2-naphthyl ester"], "SMILES": "O(C(C(CC1=CC=CC=C1)NC(=O)C2=CC=CC=C2)=O)C3=CC4=C(C=C3)C=CC=C4", "physical_data": {"Molecular Weight": "395.45", "Molecular Formula": "C26H21NO3", "Melting Point": "156-157 \u00b0C"}}