{"cas_no": "21352-22-7", "cn_name": "3-\u6c28\u57fa-2-\u7532\u57fa\u55b9\u5549", "en_name": ["2-Methyl-3-quinolinamine", "3-Quinolinamine, 2-methyl-", "Quinaldine, 3-amino-", "2-Methyl-3-quinolinamine", "3-Amino-2-methylquinoline", "2-Methylquinolin-3-amine", "2-Methyl-quinolin-3-ylamine"], "SMILES": "NC1=CC2=C(N=C1C)C=CC=C2", "physical_data": {"Molecular Weight": "158.20", "Molecular Formula": "C10H10N2", "Boiling Point": "198 \u00b0C @ Press: 16 Torr", "Melting Point": "159-160 \u00b0C"}}