{"cas_no": "2135-17-3", "cn_name": "\u6c1f\u7c73\u677e", "en_name": ["Flumetasone", "Pregna-1,4-diene-3,20-dione, 6,9-difluoro-11,17,21-trihydroxy-16-methyl-, (6\u03b1,11\u03b2,16\u03b1)-", "Pregna-1,4-diene-3,20-dione, 6\u03b1,9-difluoro-11\u03b2,17,21-trihydroxy-16\u03b1-methyl-", "(6\u03b1,11\u03b2,16\u03b1)-6,9-Difluoro-11,17,21-trihydroxy-16-methylpregna-1,4-diene-3,20-dione", "U 10974", "6\u03b1,9\u03b1-Difluoro-16\u03b1-methylprednisolone", "6\u03b1,9-Difluoro-11\u03b2,17,21-trihydroxy-16\u03b1-methylpregna-1,4-diene-3,20-dione", "Flumethasone", "6\u03b1-Fluorodexamethasone", "6\u03b1,9\u03b1-Difluoro-16\u03b1-methyl-1,4-pregnadiene-11\u03b2,17\u03b1,21-triol-3,20-dione", "Flumethason", "Aniprime", "Flucort", "Methagon", "Anaprime", "Flucorticin", "Fluvet", "RS 2177", "Cortexillar", "Flumetasone", "Vecort", "6\u03b1-Fluorodexamethazone", "Aniprome", "NSC 5402", "NSC 54702", "Flutamethasone", "MeSH ID: D005443"], "SMILES": "FC12C(C3C(C)(CC1O)C(C(CO)=O)(O)C(C)C3)CC(F)C=4C2(C)C=CC(=O)C4", "physical_data": {"Molecular Weight": "410.45", "Molecular Formula": "C22H28F2O5", "Melting Point": "202-204 \u00b0C"}}