{"cas_no": "21351-79-1", "cn_name": "\u6c22\u6c27\u5316\u94ef", "en_name": ["Cesium hydroxide", "Cesium hydroxide (Cs(OH))", "Cesium hydroxide", "NSC 121987"], "SMILES": "[Cs]O", "physical_data": {"Molecular Weight": "", "Molecular Formula": "CsHO", "Melting Point": "272.3 \u00b0C"}}