{"cas_no": "2136-81-4", "cn_name": "3-\u6c2f\u82ef\u5e76\u4e09\u6c2f\u5316\u7269", "en_name": ["1-Chloro-3-(trichloromethyl)benzene", "Benzene, 1-chloro-3-(trichloromethyl)-", "Toluene, m,\u03b1,\u03b1,\u03b1-tetrachloro-", "1-Chloro-3-(trichloromethyl)benzene", "m-Chlorobenzotrichloride", "3-Chlorobenzotrichloride", "m-Chloro(trichloromethyl)benzene", "NSC 59737"], "SMILES": "C(Cl)(Cl)(Cl)C1=CC(Cl)=CC=C1", "physical_data": {"Molecular Weight": "229.92", "Molecular Formula": "C7H4Cl4", "Boiling Point": "255 \u00b0C", "Melting Point": "0.6 \u00b0C"}}