{"cas_no": "21368-68-3", "cn_name": "DL-\u6a1f\u8111", "en_name": ["(\u00b1)-Camphor", "Bicyclo[2.2.1]heptan-2-one, 1,7,7-trimethyl-", "Camphor", "1,7,7-Trimethylbicyclo[2.2.1]heptan-2-one", "2-Bornanone", "1,7,7-Trimethylbicyclo[2.2.1]-2-heptanone", "Root bark oil", "Spirit of camphor", "1,7,7-Trimethylnorcamphor", "2-Camphanone", "Alphanon", "(\u00b1)-Camphor", "dl-Camphor", "DL-Camphor", "Racemic camphor", "Borneo camphor", "HCXL 8899", "MeSH ID: D002164"], "SMILES": "CC12C(C)(C)C(CC1=O)CC2", "physical_data": {"Molecular Weight": "152.23", "Molecular Formula": "C10H16O", "Boiling Point": "204 \u00b0C", "Melting Point": "179 \u00b0C", "Density": "0.992 g/cm\u00b3 @ Temp: 25 \u00b0C"}}