{"cas_no": "2136-75-6", "cn_name": "(\u7532\u9170\u57fa\u4e9a\u7532\u57fa)\u4e09\u82ef\u57fa\u81a6", "en_name": ["2-(Triphenylphosphoranylidene)acetaldehyde", "Acetaldehyde, 2-(triphenylphosphoranylidene)-", "Acetaldehyde, (triphenylphosphoranylidene)-", "2-(Triphenylphosphoranylidene)acetaldehyde", "(Formylmethylene)triphenylphosphorane", "(Triphenylphosphoranylidene)acetaldehyde", "(2-Oxoethylidene)triphenylphosphorane", "(Triphenylphosphoranylidene)acetaldehye", "2-(Triphenyl-\u03bb5-phosphanylidene)acetaldehyde"], "SMILES": "P(=CC=O)(C1=CC=CC=C1)(C2=CC=CC=C2)C3=CC=CC=C3", "physical_data": {"Molecular Weight": "304.32", "Molecular Formula": "C20H17OP", "Melting Point": "187 \u00b0C (decomp)"}}