{"cas_no": "2136-89-2", "cn_name": "2-\u6c2f\u4e09\u6c2f\u7532\u82ef", "en_name": ["o-Chlorobenzotrichloride", "Benzene, 1-chloro-2-(trichloromethyl)-", "Toluene, o,\u03b1,\u03b1,\u03b1-tetrachloro-", "1-Chloro-2-(trichloromethyl)benzene", "o-Chlorophenyltrichloromethane", "o-Chlorobenzotrichloride", "2-Chlorobenzotrichloride", "o-Chlorobenzylidyne chloride", "\u03b1,\u03b1,\u03b1,2-Tetrachlorotoluene", "NSC 59736"], "SMILES": "C(Cl)(Cl)(Cl)C1=C(Cl)C=CC=C1", "physical_data": {"Molecular Weight": "229.92", "Molecular Formula": "C7H4Cl4", "Boiling Point": "264.3 \u00b0C", "Melting Point": "29.4 \u00b0C"}}