{"cas_no": "213697-53-1", "cn_name": "2-\u4e8c\u73af\u5df1\u81a6\u57fa-2'-(N,N-\u4e8c\u7532\u80fa)-\u8054\u82ef", "en_name": ["2\u2032-(Dicyclohexylphosphino)-N,N-dimethyl[1,1\u2032-biphenyl]-2-amine", "[1,1\u2032-Biphenyl]-2-amine, 2\u2032-(dicyclohexylphosphino)-N,N-dimethyl-", "2\u2032-(Dicyclohexylphosphino)-N,N-dimethyl[1,1\u2032-biphenyl]-2-amine", "2\u2032-(Dicyclohexylphosphino)-N,N-dimethyl-[1,1\u2032-biphenyl]-2-amine", "2-(N,N-Dimethylamino)-2\u2032-(dicyclohexylphosphino)biphenyl", "2-Dicyclohexylphosphino-2\u2032-(N,N-dimethylamino)biphenyl", "2-(Dicyclohexylphosphino)-2\u2032-(dimethylamino)biphenyl", "2-Dicyclohexylphosphino-2\u2032-dimethylamino-1,1\u2032-biphenyl", "DavePhos", "Dicyclohexyl[2\u2032-(dimethylamino)biphenyl-2-yl]phosphine", "2\u2032-(Dicyclohexylphosphino)-N,N-dimethylbiphenyl-2-amine", "(2-Dimethylamino-1,1\u2032-biphenyl-2-yl)dicyclohexylphosphine", "2\u2032-(Dicyclohexylphosphanyl)-N,N-dimethylbiphenyl-2-amine", "2-[2-(Dicyclohexylphosphanyl)phenyl]-N,N-dimethylaniline", "2-(2-Dicyclohexylphosphanylphenyl)-N,N-dimethylaniline"], "SMILES": "P(C1=C(C=CC=C1)C2=C(N(C)C)C=CC=C2)(C3CCCCC3)C4CCCCC4", "physical_data": {"Molecular Weight": "393.54", "Molecular Formula": "C26H36NP", "Melting Point": "116-118 \u00b0C"}}