{"cas_no": "2136-72-3", "cn_name": "2-(\u5341\u516b\u6c27\u57fa)\u4e59\u9187", "en_name": ["2-(Octadecyloxy)ethanol", "Ethanol, 2-(octadecyloxy)-", "2-(Octadecyloxy)ethanol", "2-Octadecoxyethanol", "Ethylene glycol monooctadecyl ether", "Hydroxyethyl stearyl ether", "3-Oxa-1-heneicosanol", "Ethylene glycol monostearyl ether", "2-Octadecyloxy-1-ethanol"], "SMILES": "C(CCCCCCCOCCO)CCCCCCCCCC", "physical_data": {"Molecular Weight": "314.55", "Molecular Formula": "C20H42O2", "Melting Point": "49-50 \u00b0C"}}