{"cas_no": "2137-18-0", "cn_name": "\u5b55\u8bfa\u916e", "en_name": ["Gestonorone", "19-Norpregn-4-ene-3,20-dione, 17-hydroxy-", "17-Hydroxy-19-norpregn-4-ene-3,20-dione", "Gestonorone", "17\u03b1-Hydroxy-19-norpregn-4-ene-3,20-dione", "TX 045", "17\u03b1-Hydroxy-19-norprogesterone", "Gestronol", "17\u03b1-Hydroxy-19-norpregn-4-en-3,20-dione", "19-Norpregn-4-en-3,20-dione-17\u03b1-ol", "17\u03b1-17-Acetyl-17-hydroxyestr-4-en-3-one", "17\u03b2-Acetyl-17\u03b1-hydroxyestr-4-en-3-one"], "SMILES": "CC12C(C3C(C4C(CC3)=CC(=O)CC4)CC1)CCC2(C(C)=O)O", "physical_data": {"Molecular Weight": "316.43", "Molecular Formula": "C20H28O3", "Melting Point": "204-206 \u00b0C"}}