{"cas_no": "21378-21-2", "cn_name": "3-\u7532\u57fa-2-\u73af\u5df1\u70ef-1-\u9187", "en_name": ["3-Methyl-2-cyclohexen-1-ol", "2-Cyclohexen-1-ol, 3-methyl-", "3-Methyl-2-cyclohexen-1-ol", "1-Methyl-1-cyclohexen-3-ol", "3-Methyl-2-cyclohexenol", "3-Hydroxy-1-methylcyclohexene", "Seudenol", "(\u00b1)-3-Methyl-2-cyclohexen-1-ol", "(\u00b1)-3-Hydroxy-1-methylcyclohexene", "(\u00b1)-Seudenol", "NSC 174669", "1-Methyl-3-hydroxycyclohex-1-ene"], "SMILES": "CC1=CC(O)CCC1", "physical_data": {"Molecular Weight": "112.17", "Molecular Formula": "C7H12O", "Boiling Point": "56 \u00b0C @ Press: 1 Torr", "Density": "0.9463 g/cm\u00b3 @ Temp: 423 \u00b0C"}}