{"cas_no": "2138-22-9", "cn_name": "4-\u6c2f\u90bb\u82ef\u4e8c\u915a", "en_name": ["4-Chlorocatechol", "1,2-Benzenediol, 4-chloro-", "Pyrocatechol, 4-chloro-", "4-Chloro-1,2-benzenediol", "4-Chlorocatechol", "4-Chloropyrocatechol", "4-Chloro-1,2-dihydroxybenzene"], "SMILES": "OC1=C(O)C=CC(Cl)=C1", "physical_data": {"Molecular Weight": "144.56", "Molecular Formula": "C6H5ClO2", "Boiling Point": "136-136.5 \u00b0C @ Press: 8.5 Torr", "Melting Point": "90.5 \u00b0C"}}