{"cas_no": "2138-43-4", "cn_name": "\u5f02\u4e19\u57fa\u90bb\u82ef\u4e8c\u915a", "en_name": ["4-Isopropylcatechol", "1,2-Benzenediol, 4-(1-methylethyl)-", "Pyrocatechol, 4-isopropyl-", "4-(1-Methylethyl)-1,2-benzenediol", "1,2-Dihydroxy-4-isopropylbenzene", "4-Isopropylcatechol", "4-Isopropyl-1,2-dihydroxybenzene", "4-Isopropylpyrocatechol", "NSC 62676", "4-Isopropyl-1,2-benzenediol"], "SMILES": "C(C)(C)C1=CC(O)=C(O)C=C1", "physical_data": {"Molecular Weight": "152.19", "Molecular Formula": "C9H12O2", "Boiling Point": "271 \u00b0C", "Melting Point": "78 \u00b0C"}}