{"cas_no": "2138-48-9", "cn_name": "3-\u5f02\u4e19\u57fa\u90bb\u82ef\u4e8c\u915a", "en_name": ["3-(1-Methylethyl)-1,2-benzenediol", "1,2-Benzenediol, 3-(1-methylethyl)-", "Pyrocatechol, 3-isopropyl-", "3-(1-Methylethyl)-1,2-benzenediol", "3-Isopropylcatechol", "3-Isopropylpyrocatechol", "3-Isopropyl-1,2-dihydroxybenzene", "1,2-Dihydroxy-3-isopropylbenzene", "3-Isopropylbenzene-1,2-diol", "NSC 62675", "3-Propan-2-ylbenzene-1,2-diol", "Isopropyl catechol"], "SMILES": "C(C)(C)C1=C(O)C(O)=CC=C1", "physical_data": {"Molecular Weight": "152.19", "Molecular Formula": "C9H12O2", "Boiling Point": "155-156.5 \u00b0C @ Press: 30 Torr"}}