{"cas_no": "2138-24-1", "cn_name": "\u56db\u5df2\u57fa\u7898\u5316\u94f5", "en_name": ["Tetrahexylammonium iodide", "1-Hexanaminium, N,N,N-trihexyl-, iodide (1:1)", "Tetrahexylammonium iodide", "Ammonium, tetrahexyl-, iodide", "1-Hexanaminium, N,N,N-trihexyl-, iodide", "Tetra-n-hexylammonium iodide"], "SMILES": "[N+](CCCCCC)(CCCCCC)(CCCCCC)CCCCCC.[I-]", "physical_data": {"Molecular Weight": "", "Molecular Formula": "C24H52N.I", "Melting Point": "101-103 \u00b0C"}}