{"cas_no": "21397-07-9", "cn_name": "2-\u6c2f-3-\u6c1f\u785d\u57fa\u82ef", "en_name": ["2-Chloro-1-fluoro-3-nitrobenzene", "Benzene, 2-chloro-1-fluoro-3-nitro-", "2-Chloro-1-fluoro-3-nitrobenzene", "2-Chloro-3-fluoronitrobenzene"], "SMILES": "N(=O)(=O)C1=C(Cl)C(F)=CC=C1", "physical_data": {"Molecular Weight": "175.54", "Molecular Formula": "C6H3ClFNO2", "Boiling Point": "237-239 \u00b0C"}}