{"cas_no": "2139-47-1", "cn_name": "\u70df\u9170\u6c28\u57fa\u6bd4\u6797", "en_name": ["Nifenazone", "3-Pyridinecarboxamide, N-(2,3-dihydro-1,5-dimethyl-3-oxo-2-phenyl-1H-pyrazol-4-yl)-", "Nicotinamide, N-antipyrinyl-", "N-(2,3-Dihydro-1,5-dimethyl-3-oxo-2-phenyl-1H-pyrazol-4-yl)-3-pyridinecarboxamide", "N-Antipyrinylnicotinamide", "Nicodone", "Nicofesone", "Nicophesone", "Nicophezon", "Nicopyron", "4-Nicotinamido-2,3-dimethyl-1-phenyl-3-pyrazolin-5-one", "Nicotinic acid 4-antipyrilamide", "4-(Nicotinoylamino)antipyrine", "Nifenazone", "Phenicazone", "Thylin", "Nifenazon", "Nicazane", "Niapyrin", "Nicotinoylantipyrine", "Nicoreumal", "Nicoron", "Nicotazone", "Nicozone", "Nikodon", "Nikofezon", "Nicodon", "Niprazine", "N-Nicotinoylaminoantipyrine", "Dolongan", "Reupiron"], "SMILES": "O=C1N(N(C)C(C)=C1NC(=O)C=2C=CC=NC2)C3=CC=CC=C3", "physical_data": {"Molecular Weight": "308.33", "Molecular Formula": "C17H16N4O2", "Melting Point": "253 \u00b0C"}}