{"cas_no": "21397-11-5", "cn_name": "2-\u6c1f-3-\u785d\u57fa\u82ef\u80fa", "en_name": ["2-Fluoro-3-nitrobenzenamine", "Benzenamine, 2-fluoro-3-nitro-", "Aniline, 2-fluoro-3-nitro-", "2-Fluoro-3-nitrobenzenamine", "2-Fluoro-3-nitroaniline"], "SMILES": "N(=O)(=O)C1=C(F)C(N)=CC=C1", "physical_data": {"Molecular Weight": "156.11", "Molecular Formula": "C6H5FN2O2", "Melting Point": "114-115 \u00b0C"}}