{"cas_no": "21392-57-4", "cn_name": "\u67ef\u56e0\u4e8c\u7532\u919a", "en_name": ["5,7-Dimethoxyflavone", "4H-1-Benzopyran-4-one, 5,7-dimethoxy-2-phenyl-", "Flavone, 5,7-dimethoxy-", "5,7-Dimethoxy-2-phenyl-4H-1-benzopyran-4-one", "5,7-Dimethoxyflavone", "Chrysin dimethyl ether", "5,7-Dimethoxy-4-oxo-2-phenyl-4H-1-benzopyran", "5,7-Dimethoxy-2-phenyl-4H-chromen-4-one", "5,7-Di-O-methylchrysin", "5,7-Di-O-methoxy chrysin"], "SMILES": "O(C)C1=C2C(OC(=CC2=O)C3=CC=CC=C3)=CC(OC)=C1", "physical_data": {"Molecular Weight": "282.29", "Molecular Formula": "C17H14O4", "Melting Point": "115-117 \u00b0C"}}