{"cas_no": "214-17-5", "cn_name": "\u82ef\u5e76\uff08b\uff09\u5c48", "en_name": ["Benzo[b]chrysene", "Benzo[b]chrysene", "3,4-Benzotetraphene", "1,2:6,7-Dibenzophenanthrene", "3,4-Benzotetracene", "2,3:7,8-Dibenzophenanthrene", "Benzo[c]tetraphene", "2,3-Benzochrysene", "Naphth[2,1-a]anthracene", "NSC 89274"], "SMILES": "C12=C3C(C=C4C(=C3)C=CC=C4)=CC=C1C=5C(C=C2)=CC=CC5", "physical_data": {"Molecular Weight": "278.35", "Molecular Formula": "C22H14", "Melting Point": "292-294 \u00b0C"}}