{"cas_no": "21402-26-6", "cn_name": "4-\u6eb4-3-\u6c2f\u82ef\u80fa", "en_name": ["4-Bromo-3-chloroaniline", "Benzenamine, 4-bromo-3-chloro-", "Aniline, 4-bromo-3-chloro-", "4-Bromo-3-chlorobenzenamine", "3-Chloro-4-bromoaniline", "4-Bromo-3-chloroaniline", "(4-Bromo-3-chlorophenyl)amine"], "SMILES": "ClC1=C(Br)C=CC(N)=C1", "physical_data": {"Molecular Weight": "206.47", "Molecular Formula": "C6H5BrClN", "Melting Point": "66-67 \u00b0C"}}