{"cas_no": "2140-11-6", "cn_name": "2',3'-O-\u5f02\u4e19\u53c9\u808c\u82f7", "en_name": ["2\u2032,3\u2032-O-(1-Methylethylidene)inosine", "Inosine, 2\u2032,3\u2032-O-(1-methylethylidene)-", "Inosine, 2\u2032,3\u2032-O-isopropylidene-", "Furo[3,4-d]-1,3-dioxole, inosine deriv.", "2\u2032,3\u2032-O-(1-Methylethylidene)inosine", "2\u2032,3\u2032-O-Isopropylideneinosine", "2\u2032,3\u2032-Isopropylideneinosine", "NSC 29925", "Chembridge 5141597"], "SMILES": "C(O)C1OC(C2C1OC(C)(C)O2)N3C4=C(N=C3)C(=O)N=CN4", "physical_data": {"Molecular Weight": "308.29", "Molecular Formula": "C13H16N4O5", "Melting Point": "271-276 \u00b0C"}}