{"cas_no": "2140-77-4", "cn_name": "2-\u7532\u9ce5\u82f7", "en_name": ["N2-Methylguanosine", "Guanosine, N-methyl-", "N-Methylguanosine", "N2-Methylguanosine", "2-Methylguanosine", "N2-Methylguanine riboside"], "SMILES": "OC1C(N2C3=C(N=C2)C(=O)N=C(NC)N3)OC(CO)C1O", "physical_data": {"Molecular Weight": "297.27", "Molecular Formula": "C11H15N5O5", "Melting Point": "233 \u00b0C (decomp)"}}