{"cas_no": "2140-46-7", "cn_name": "5-\u80c6\u753e\u70ef-3\u0392,25-\u4e8c\u9187", "en_name": ["25-Hydroxycholesterol", "Cholest-5-ene-3,25-diol, (3\u03b2)-", "Cholest-5-ene-3\u03b2,25-diol", "(3\u03b2)-Cholest-5-ene-3,25-diol", "25-Hydroxycholesterol", "5-Cholesten-3\u03b2,25-diol", "25-Hydroxy-5-cholestene-3\u03b2-ol"], "SMILES": "CC12C(C3C(C4(C)C(=CC3)CC(O)CC4)CC1)CCC2C(CCCC(C)(C)O)C", "physical_data": {"Molecular Weight": "402.65", "Molecular Formula": "C27H46O2", "Melting Point": "177-179 \u00b0C"}}