{"cas_no": "2140-69-4", "cn_name": "3-\u7532\u57fa\u5c3f\u82f7", "en_name": ["3-Methyluridine", "Uridine, 3-methyl-", "3-Methyluridine", "N3-Methyluridine", "NSC 246077"], "SMILES": "OC1C(OC(CO)C1O)N2C(=O)N(C)C(=O)C=C2", "physical_data": {"Molecular Weight": "258.23", "Molecular Formula": "C10H14N2O6", "Melting Point": "108-110 \u00b0C"}}