{"cas_no": "2140-79-6", "cn_name": "2'-O-\u7532\u57fa\u817a\u82f7", "en_name": ["2\u2032-O-Methyladenosine", "Adenosine, 2\u2032-O-methyl-", "2\u2032-O-Methyladenosine", "Cordysinin B"], "SMILES": "O(C)C1C(N2C=3C(N=C2)=C(N)N=CN3)OC(CO)C1O", "physical_data": {"Molecular Weight": "281.27", "Molecular Formula": "C11H15N5O4", "Melting Point": "204-206 \u00b0C"}}