{"cas_no": "2140-61-6", "cn_name": "5-\u7532\u57fa\u80de\u82f7", "en_name": ["5-Methylcytidine", "Cytidine, 5-methyl-", "5-Methylcytidine", "NSC 363933", "3: PN: US20060035254 PAGE: 63 claimed sequence"], "SMILES": "OC1C(OC(CO)C1O)N2C(=O)N=C(N)C(C)=C2", "physical_data": {"Molecular Weight": "257.24", "Molecular Formula": "C10H15N3O5", "Melting Point": "213 \u00b0C (decomp)"}}