{"cas_no": "2140-67-2", "cn_name": "N2,N2-\u4e8c\u7532\u57fa\u9e1f\u82f7", "en_name": ["N2,N2-Dimethylguanosine", "Guanosine, N,N-dimethyl-", "N,N-Dimethylguanosine", "2,2-Dimethylguanosine", "2-Dimethylamino-6-oxypurine riboside", "N2,N2-Dimethylguanosine"], "SMILES": "O=C1C2=C(N(C=N2)C3OC(CO)C(O)C3O)NC(N(C)C)=N1", "physical_data": {"Molecular Weight": "311.29", "Molecular Formula": "C12H17N5O5", "Melting Point": "235-236 \u00b0C (decomp)"}}