{"cas_no": "21406-61-1", "cn_name": "(1-\u620a\u57fa)\u4e09\u82ef\u57fa\u6eb4\u5316\u78f7", "en_name": ["Phosphonium, pentyltriphenyl-, bromide (1:1)", "Phosphonium, pentyltriphenyl-, bromide (1:1)", "Phosphonium, pentyltriphenyl-, bromide", "Pentyltriphenylphosphonium bromide", "Amyltriphenylphosphonium bromide", "Bromo(pentyl)triphenylphosphorane"], "SMILES": "[P+](CCCCC)(C1=CC=CC=C1)(C2=CC=CC=C2)C3=CC=CC=C3.[Br-]", "physical_data": {"Molecular Weight": "", "Molecular Formula": "C23H26P.Br", "Melting Point": "165-167.5 \u00b0C"}}