{"cas_no": "2140-65-0", "cn_name": "1-\u7532\u57fa\u9e1f\u9150(0\u5ea6\u4ee5\u4e0b\u4fdd\u5b58)", "en_name": ["1-Methylguanosine", "Guanosine, 1-methyl-", "1-Methylguanosine", "N1-Methylguanosine", "NSC 70897"], "SMILES": "OC1C(N2C3=C(N=C2)C(=O)N(C)C(N)=N3)OC(CO)C1O", "physical_data": {"Molecular Weight": "297.27", "Molecular Formula": "C11H15N5O5", "Melting Point": "163 \u00b0C"}}