{"cas_no": "2140-71-8", "cn_name": "2'-\u7532\u6c27\u57fa\u9e1f\u82f7", "en_name": ["2\u2032-O-Methylguanosine", "Guanosine, 2\u2032-O-methyl-", "2\u2032-O-Methylguanosine"], "SMILES": "O(C)C1C(N2C3=C(N=C2)C(=O)N=C(N)N3)OC(CO)C1O", "physical_data": {"Molecular Weight": "297.27", "Molecular Formula": "C11H15N5O5", "Melting Point": "233-235 \u00b0C"}}