{"cas_no": "2140-29-6", "cn_name": "A-\u8461\u7cd6-A-\u8461\u7cd6\u82f7", "en_name": ["Kojibiose", "D-Glucose, 2-O-\u03b1-D-glucopyranosyl-", "Kojibiose", "2-O-\u03b1-D-Glucopyranosyl-D-glucose"], "SMILES": "O(C(C(C(C(CO)O)O)O)C=O)C1OC(CO)C(O)C(O)C1O", "physical_data": {"Molecular Weight": "342.30", "Molecular Formula": "C12H22O11", "Melting Point": "174.5 \u00b0C"}}