{"cas_no": "2140-95-6", "cn_name": "(R)-3-AMINO-2-METHYLPROPANOIC ACID", "en_name": ["(-)-\u03b2-Aminoisobutyric acid", "Propanoic acid, 3-amino-2-methyl-, (2R)-", "\u03b2-Alanine, 2-methyl-, D-", "Propanoic acid, 3-amino-2-methyl-, (R)-", "(2R)-3-Amino-2-methylpropanoic acid", "D-\u03b2-Aminoisobutyric acid", "R-\u03b2-Aminoisobutyric acid", "D-3-Amino-2-methylpropionic acid", "(-)-\u03b2-Aminoisobutyric acid", "(R)-3-Amino-2-methylpropanoic acid", "D-3-Amino-2-methylpropanoic acid", "(R)-3-Amino-2-methylpropionic acid", "D-3-Aminoisobutyric acid", "(-)-3-Amino-2-methylpropionic acid", "2(R)-Methyl-\u03b2-alanine", "(R)-3-Amino-2-methylpropanoic acid", "(2R)-3-Amino-2-methyl-propanoic acid"], "SMILES": "C(C(O)=O)(CN)C", "physical_data": {"Molecular Weight": "103.12", "Molecular Formula": "C4H9NO2", "Melting Point": "194-196 \u00b0C"}}