{"cas_no": "21401-21-8", "cn_name": "\u7d2b\u6749\u6c30\u91a3\u7518", "en_name": ["Taxiphyllin", "Benzeneacetonitrile, \u03b1-(\u03b2-D-glucopyranosyloxy)-4-hydroxy-, (\u03b1R)-", "Acetonitrile, (\u03b2-D-glucopyranosyloxy)(p-hydroxyphenyl)-", "Benzeneacetonitrile, \u03b1-(\u03b2-D-glucopyranosyloxy)-4-hydroxy-, (R)-", "Glucopyranoside, D-\u03b1-cyano-p-hydroxybenzyl", "(\u03b1R)-\u03b1-(\u03b2-D-Glucopyranosyloxy)-4-hydroxybenzeneacetonitrile", "Taxiphyllin", "(2R)-Taxiphyllin"], "SMILES": "O(C(C#N)C1=CC=C(O)C=C1)C2OC(CO)C(O)C(O)C2O", "physical_data": {"Molecular Weight": "311.29", "Molecular Formula": "C14H17NO7", "Melting Point": "168-169 \u00b0C (decomp)"}}