{"cas_no": "2140-76-3", "cn_name": "2'-\u7532\u6c27\u57fa\u5c3f\u82f7", "en_name": ["2\u2032-O-Methyluridine", "Uridine, 2\u2032-O-methyl-", "2\u2032-O-Methyluridine", "O2\u2032-Methyluridine", "1: PN: WO2023049218 PAGE: 366 claimed sequence"], "SMILES": "O(C)C1C(OC(CO)C1O)N2C(=O)NC(=O)C=C2", "physical_data": {"Molecular Weight": "258.23", "Molecular Formula": "C10H14N2O6", "Melting Point": "159 \u00b0C"}}