{"cas_no": "2140-73-0", "cn_name": "1-\u7532\u57fa\u808c\u82f7", "en_name": ["1-Methylinosine", "Inosine, 1-methyl-", "1-Methylinosine", "N1-Methylinosine"], "SMILES": "OC1C(N2C3=C(N=C2)C(=O)N(C)C=N3)OC(CO)C1O", "physical_data": {"Molecular Weight": "282.25", "Molecular Formula": "C11H14N4O5", "Melting Point": "211-212 \u00b0C"}}