{"cas_no": "21411-53-0", "cn_name": "\u7ef4\u5409\u5c3c\u4e9a\u9709\u7d20M1", "en_name": ["Virginiamycin M1", "3H-21,18-Nitrilo-1H,22H-pyrrolo[2,1-c][1,8,4,19]dioxadiazacyclotetracosine-1,7,16,22(4H,17H)-tetrone, 8,9,14,15,24,25-hexahydro-14-hydroxy-4,12-dimethyl-3-(1-methylethyl)-, (3R,4R,5E,10E,12E,14S)-", "Ostreogrycin A", "Virginiamycin M1", "Mikamycin A", "(3R,4R,5E,10E,12E,14S)-8,9,14,15,24,25-Hexahydro-14-hydroxy-4,12-dimethyl-3-(1-methylethyl)-3H-21,18-nitrilo-1H,22H-pyrrolo[2,1-c][1,8,4,19]dioxadiazacyclotetracosine-1,7,16,22(4H,17H)-tetrone", "Staphylomycin M1", "PA 114A", "Streptogramin A", "Pristinamycin IIA", "Antibiotic PA 114A1", "Factor M (antibiotic)", "Vernamycin A", "Antibiotic PA 114A", "[3R-(3R*,4R*,5E,10E,12E,14S*)]-8,9,14,15,24,25-Hexahydro-14-hydroxy-4,12-dimethyl-3-(1-methylethyl)-3H-21,18-nitrilo-1H,22H-pyrrolo[2,1-c][1,8,4,19]dioxadiazacyclotetracosine-1,7,16,22(4H,17H)-tetrone", "Factor M", "RP 12536", "NSC 244426", "NSC 87432", "Pristinamycin II"], "SMILES": "O=C1N2C(C(=O)OC(C(C)C)C(C)C=CC(=O)NCC=CC(C)=CC(O)CC(=O)CC3=NC1=CO3)=CCC2", "physical_data": {"Molecular Weight": "525.59", "Molecular Formula": "C28H35N3O7", "Melting Point": "165-167 \u00b0C"}}