{"cas_no": "21419-48-7", "cn_name": "6-\u6eb4\u55b9\u5511\u5549-4-\u80fa", "en_name": ["6-Bromo-4-quinazolinamine", "4-Quinazolinamine, 6-bromo-", "Quinazoline, 4-amino-6-bromo-", "6-Bromo-4-quinazolinamine", "4-Amino-6-bromoquinazoline", "6-Bromoquinazolin-4-amine"], "SMILES": "NC=1C2=C(C=CC(Br)=C2)N=CN1", "physical_data": {"Molecular Weight": "224.06", "Molecular Formula": "C8H6BrN3", "Melting Point": "&gt;350 \u00b0C"}}