{"cas_no": "2141-62-0", "cn_name": "3-\u4e59\u6c27\u57fa\u4e19\u8148", "en_name": ["3-Ethoxypropanenitrile", "Propanenitrile, 3-ethoxy-", "Propionitrile, 3-ethoxy-", "Propionitrile, \u03b2-ethoxy-", "3-Ethoxypropanenitrile", "\u03b2-Ethoxypropionitrile", "3-Ethoxypropionitrile", "Ethyl \u03b2-cyanoethyl ether", "NSC 7767"], "SMILES": "C(CC#N)OCC", "physical_data": {"Molecular Weight": "99.13", "Molecular Formula": "C5H9NO", "Boiling Point": "171 \u00b0C", "Melting Point": "48.9 \u00b0C", "Density": "0.8904 g/cm\u00b3 @ Temp: 20 \u00b0C"}}