{"cas_no": "2141-09-5", "cn_name": "\u6728\u862d\u82b1\u9e7c", "en_name": ["(+)-Magnoflorine", "4H-Dibenzo[de,g]quinolinium, 5,6,6a,7-tetrahydro-1,11-dihydroxy-2,10-dimethoxy-6,6-dimethyl-, (6aS)-", "6a\u03b1-Aporphinium, 1,11-dihydroxy-2,10-dimethoxy-6-methyl-", "4H-Dibenzo[de,g]quinolinium, 5,6,6a,7-tetrahydro-1,11-dihydroxy-2,10-dimethoxy-6,6-dimethyl-, (S)-", "(6aS)-5,6,6a,7-Tetrahydro-1,11-dihydroxy-2,10-dimethoxy-6,6-dimethyl-4H-dibenzo[de,g]quinolinium", "Magnoflorine", "Thalictrine", "Escholine", "Thalictrin", "Escholin", "(+)-Magnoflorine", "\u03b1-Magnoflorine", "(6AS)-2,10-dimethoxy-6,6-dimethyl-5,6,6a,7-tetrahydro-4H-dibenzo[de,g]quinoline-6-ium-1,11-diol", "Zizyphusine", "zizyphusine"], "SMILES": "OC1=C2C=3C(CC=4C2=C(O)C(OC)=CC4)[N+](C)(C)CCC3C=C1OC", "physical_data": {"Molecular Weight": "", "Molecular Formula": "C20H24NO4", "Melting Point": "208 \u00b0C"}}