{"cas_no": "21416-43-3", "cn_name": "\u5c3f\u5627\u5576\u57fa\u4e19\u6c28\u9178", "en_name": ["(\u03b1S)-\u03b1-Amino-3,4-dihydro-2,4-dioxo-1(2H)-pyrimidinepropanoic acid", "1(2H)-Pyrimidinepropanoic acid, \u03b1-amino-3,4-dihydro-2,4-dioxo-, (\u03b1S)-", "1(2H)-Pyrimidinepropionic acid, \u03b1-amino-3,4-dihydro-2,4-dioxo-, (S)-", "1(2H)-Pyrimidinepropanoic acid, \u03b1-amino-3,4-dihydro-2,4-dioxo-, (S)-", "L-Willardiine", "(\u03b1S)-\u03b1-Amino-3,4-dihydro-2,4-dioxo-1(2H)-pyrimidinepropanoic acid", "Willardiine, (-)-", "(-)-Willardiine", "(S)-Willardiine", "(2S)-2-Amino-3-(2,4-dioxo-1,2,3,4-tetrahydropyrimidin-1-yl)propanoic acid"], "SMILES": "C(C(C(O)=O)N)N1C(=O)NC(=O)C=C1", "physical_data": {"Molecular Weight": "199.16", "Molecular Formula": "C7H9N3O4", "Melting Point": "204-205 \u00b0C"}}