{"cas_no": "21411-42-7", "cn_name": "2,4,6-\u4e09\u7532\u57fa\u82ef\u7532\u786b\u9187", "en_name": ["2,4,6-Trimethylbenzenemethanethiol", "Benzenemethanethiol, 2,4,6-trimethyl-", "Methanethiol, mesityl-", "2,4,6-Trimethylbenzenemethanethiol", "(2,4,6-Trimethylphenyl)methanethiol", "2,4,6-Trimethylbenzyl mercaptan", "NSC 181935"], "SMILES": "C(S)C1=C(C)C=C(C)C=C1C", "physical_data": {"Molecular Weight": "166.28", "Molecular Formula": "C10H14S", "Boiling Point": "120 \u00b0C @ Press: 5 Torr", "Melting Point": "46-47 \u00b0C"}}