{"cas_no": "21416-67-1", "cn_name": "\u4e19\u4e9a\u80fa", "en_name": ["Razoxane", "2,6-Piperazinedione, 4,4\u2032-(1-methyl-1,2-ethanediyl)bis-", "2,6-Piperazinedione, 4,4\u2032-propylenedi-", "4,4\u2032-(1-Methyl-1,2-ethanediyl)bis[2,6-piperazinedione]", "1,2-Bis(3,5-dioxo-1-piperazinyl)propane", "4,4\u2032-Propylenedi(2,6-piperazinedione)", "4,4\u2032-Propylenebis(2,6-piperazinedione)", "ICRF 159", "ICI 59118", "Razoxin", "Troxozone", "(\u00b1)-1,2-Bis(3,5-dioxopiperazin-1-yl)propane", "(\u00b1)-1,2-Bis(3,5-dioxopiperazinyl)propane", "Tepirone", "NSC 129943", "Razoxane"], "SMILES": "C(C(C)N1CC(=O)NC(=O)C1)N2CC(=O)NC(=O)C2", "physical_data": {"Molecular Weight": "268.27", "Molecular Formula": "C11H16N4O4", "Melting Point": "237-239 \u00b0C"}}