{"cas_no": "2142-66-7", "cn_name": "2-\u4e59\u916e\u8054\u82ef", "en_name": ["1-[1,1\u2032-Biphenyl]-2-ylethanone", "Ethanone, 1-[1,1\u2032-biphenyl]-2-yl-", "Acetophenone, 2\u2032-phenyl-", "1-[1,1\u2032-Biphenyl]-2-ylethanone", "2-Acetylbiphenyl", "o-Phenylacetophenone", "2-Acetyl-1,1\u2032-biphenyl", "1-Biphenyl-2-ylethanone", "o-Acetylphenyl benzene", "1-(2-Phenylphenyl)ethan-1-one", "2\u2032-Phenylacetophenone"], "SMILES": "C(C)(=O)C1=C(C=CC=C1)C2=CC=CC=C2", "physical_data": {"Molecular Weight": "196.24", "Molecular Formula": "C14H12O", "Boiling Point": "157.5-158 \u00b0C @ Press: 11 Torr", "Melting Point": "56-56.5 \u00b0C"}}