{"cas_no": "21427-62-3", "cn_name": "2,5-\u4e8c\u6c2f-3-\u785d\u57fa\u5421\u5576", "en_name": ["2,5-Dichloro-3-nitropyridine", "Pyridine, 2,5-dichloro-3-nitro-", "2,5-Dichloro-3-nitropyridine", "3-Nitro-2,5-dichloropyridine"], "SMILES": "N(=O)(=O)C1=C(Cl)N=CC(Cl)=C1", "physical_data": {"Molecular Weight": "192.99", "Molecular Formula": "C5H2Cl2N2O2", "Melting Point": "110-115 \u00b0C"}}