{"cas_no": "2142-01-0", "cn_name": "N-\u82c4\u57fa\u915e\u9170\u4e9a\u80fa", "en_name": ["2-(Phenylmethyl)-1H-isoindole-1,3(2H)-dione", "1H-Isoindole-1,3(2H)-dione, 2-(phenylmethyl)-", "Phthalimide, N-benzyl-", "2-(Phenylmethyl)-1H-isoindole-1,3(2H)-dione", "N-Benzylphthalimide", "2-(Phenylmethyl)isoindole-1,3(2H)-dione", "2-(Phenylmethyl)-1,3-isoindolinedione", "NSC 2771", "2-Benzylisoindole-1,3-dione", "2-Benzyl-1,3-dioxo-2,3-dihydro-1H-isoindole", "2-Benzylisoindoline-1,3-dione", "2-Benzyl-2,3-dihydro-1H-isoindole-1,3-dione"], "SMILES": "O=C1C=2C(C(=O)N1CC3=CC=CC=C3)=CC=CC2", "physical_data": {"Molecular Weight": "237.25", "Molecular Formula": "C15H11NO2", "Melting Point": "116 \u00b0C"}}