{"cas_no": "2142-69-0", "cn_name": "2-\u6eb4\u82ef\u4e59\u916e", "en_name": ["2\u2032-Bromoacetophenone", "Ethanone, 1-(2-bromophenyl)-", "Acetophenone, 2\u2032-bromo-", "1-(2-Bromophenyl)ethanone", "o-Bromoacetophenone", "2\u2032-Bromoacetophenone", "o-Bromophenyl methyl ketone", "1-Acetyl-2-bromobenzene", "2-Bromophenyl methyl ketone", "2-Acetylbromobenzene", "NSC 155380", "1-Bromo-2-acetylbenzene", "Methyl 2-bromophenyl ketone", "1-(2-Bromophenyl)ethan-1-one", "o-Acetylphenyl bromide"], "SMILES": "C(C)(=O)C1=C(Br)C=CC=C1", "physical_data": {"Molecular Weight": "199.04", "Molecular Formula": "C8H7BrO", "Boiling Point": "113-114 \u00b0C @ Press: 11 Torr"}}