{"cas_no": "2142-63-4", "cn_name": "3'-\u6eb4\u82ef\u4e59\u916e", "en_name": ["3-Bromoacetophenone", "Ethanone, 1-(3-bromophenyl)-", "Acetophenone, 3\u2032-bromo-", "1-(3-Bromophenyl)ethanone", "m-Bromoacetophenone", "3-Bromoacetophenone", "3\u2032-Bromoacetophenone", "m-Bromophenyl methyl ketone", "1-Acetyl-3-bromobenzene", "NSC 46620", "3-Acetyl-1-bromobenzene", "3-Bromophenyl methyl ketone", "Methyl 3-bromophenyl ketone", "1-(3-Bromophenyl)ethan-1-one"], "SMILES": "C(C)(=O)C1=CC(Br)=CC=C1", "physical_data": {"Molecular Weight": "199.04", "Molecular Formula": "C8H7BrO", "Boiling Point": "133 \u00b0C", "Melting Point": "7.5 \u00b0C"}}