{"cas_no": "21423-81-4", "cn_name": "3-\u6c2f-4-\u7532\u57fa\u82ef\u7532\u8148", "en_name": ["3-Chloro-4-methylbenzonitrile", "Benzonitrile, 3-chloro-4-methyl-", "p-Tolunitrile, 3-chloro-", "3-Chloro-4-methylbenzonitrile", "3-Chloro-p-tolunitrile", "3-Chloro-4-methylaminobenzoate", "2-Chloro-4-cyanotoluene"], "SMILES": "C(#N)C1=CC(Cl)=C(C)C=C1", "physical_data": {"Molecular Weight": "151.59", "Molecular Formula": "C8H6ClN", "Boiling Point": "90 \u00b0C @ Press: 2 Torr"}}