{"cas_no": "21423-84-7", "cn_name": "2-\u6c2f-4-\u7532\u57fa\u82ef\u7532\u8148", "en_name": ["2-Chloro-4-methylbenzonitrile", "Benzonitrile, 2-chloro-4-methyl-", "p-Tolunitrile, 2-chloro-", "2-Chloro-4-methylbenzonitrile", "2-Chloro-p-tolunitrile", "NSC 263769"], "SMILES": "C(#N)C1=C(Cl)C=C(C)C=C1", "physical_data": {"Molecular Weight": "151.59", "Molecular Formula": "C8H6ClN", "Melting Point": "51-55 \u00b0C"}}