{"cas_no": "2142-76-9", "cn_name": "2',6'-\u4e8c\u7532\u57fa\u82ef\u4e59\u916e", "en_name": ["1-(2,6-Dimethylphenyl)ethanone", "Ethanone, 1-(2,6-dimethylphenyl)-", "Acetophenone, 2\u2032,6\u2032-dimethyl-", "1-(2,6-Dimethylphenyl)ethanone", "2\u2032,6\u2032-Dimethylacetophenone", "2,6-Dimethylacetophenone", "1-(2,6-Dimethylphenyl)ethan-1-one"], "SMILES": "C(C)(=O)C1=C(C)C=CC=C1C", "physical_data": {"Molecular Weight": "148.20", "Molecular Formula": "C10H12O", "Boiling Point": "72-73 \u00b0C @ Press: 1.5 Torr", "Melting Point": "23.5-23.7 \u00b0C", "Density": "0.9821 g/cm\u00b3 @ Temp: 25 \u00b0C"}}