{"cas_no": "21422-04-8", "cn_name": "7-\u53bb\u7532\u57fa\u8f6f\u6728\u82b1\u6912\u7d20", "en_name": ["Demethylsuberosin", "2H-1-Benzopyran-2-one, 7-hydroxy-6-(3-methyl-2-buten-1-yl)-", "Coumarin, 7-hydroxy-6-(3-methyl-2-butenyl)-", "2H-1-Benzopyran-2-one, 7-hydroxy-6-(3-methyl-2-butenyl)-", "7-Hydroxy-6-(3-methyl-2-buten-1-yl)-2H-1-benzopyran-2-one", "7-Demethylsuberosin", "6-(Dimethylallyl)umbelliferone", "Demethylsuberosin"], "SMILES": "C(C=C(C)C)C=1C=C2C(=CC1O)OC(=O)C=C2", "physical_data": {"Molecular Weight": "230.26", "Molecular Formula": "C14H14O3", "Melting Point": "133.5-134.0 \u00b0C"}}