{"cas_no": "2142-67-8", "cn_name": "\u4e59\u6c27\u57fa\u82ef\u4e59\u916e", "en_name": ["1-(2-Ethoxyphenyl)ethanone", "Ethanone, 1-(2-ethoxyphenyl)-", "Acetophenone, 2\u2032-ethoxy-", "1-(2-Ethoxyphenyl)ethanone", "2\u2032-Ethoxyacetophenone", "o-Ethoxyacetophenone", "1-(2-Ethoxyphenyl)ethan-1-one"], "SMILES": "C(C)(=O)C1=C(OCC)C=CC=C1", "physical_data": {"Molecular Weight": "164.20", "Molecular Formula": "C10H12O2", "Melting Point": "36-40 \u00b0C"}}