{"cas_no": "2142-68-9", "cn_name": "\u90bb\u6c2f\u82ef\u4e59\u916e", "en_name": ["2\u2032-Chloroacetophenone", "Ethanone, 1-(2-chlorophenyl)-", "Acetophenone, 2\u2032-chloro-", "1-(2-Chlorophenyl)ethanone", "o-Chloroacetophenone", "2\u2032-Chloroacetophenone", "o-Chlorophenyl methyl ketone", "Methyl 2-chlorophenyl ketone", "2-Chlorophenyl methyl ketone", "NSC 405474", "2-Acetylphenyl chloride", "2-Chloro-1-acetylbenzene", "1-(2-Chlorophenyl)ethan-1-one"], "SMILES": "C(C)(=O)C1=C(Cl)C=CC=C1", "physical_data": {"Molecular Weight": "154.59", "Molecular Formula": "C8H7ClO", "Boiling Point": "227-278 \u00b0C @ Press: 788 Torr", "Melting Point": "25-28 \u00b0C", "Density": "1.1884 g/cm\u00b3 @ Temp: 25 \u00b0C"}}