{"cas_no": "214360-66-4", "cn_name": "4-\u53d4\u4e01\u57fa\u82ef\u787c\u9178\u9891\u90a3\u9187\u916f", "en_name": ["4-tert-Butylphenylboronic acid pinacol ester", "1,3,2-Dioxaborolane, 2-[4-(1,1-dimethylethyl)phenyl]-4,4,5,5-tetramethyl-", "2-[4-(1,1-Dimethylethyl)phenyl]-4,4,5,5-tetramethyl-1,3,2-dioxaborolane", "2-(4-tert-Butylphenyl)-4,4,5,5-tetramethyl-1,3,2-dioxaborolane", "4-tert-Butylphenylboronic acid pinacol ester"], "SMILES": "CC1(C)OB(OC1(C)C)C2=CC=C(C(C)(C)C)C=C2", "physical_data": {"Molecular Weight": "260.18", "Molecular Formula": "C16H25BO2", "Melting Point": "139.9-140.9 \u00b0C"}}