{"cas_no": "21436-03-3", "cn_name": "(1S,2S)-(+)-1,2-\u73af\u5df1\u4e8c\u80fa", "en_name": ["(+)-trans-1,2-Diaminocyclohexane", "1,2-Cyclohexanediamine, (1S,2S)-", "1,2-Cyclohexanediamine, (1S-trans)-", "(1S,2S)-1,2-Cyclohexanediamine", "trans-(+)-1,2-Diaminocyclohexane", "d-trans-1,2-Diaminocyclohexane", "trans-(S,S)-1,2-Diaminocyclohexane", "(1S,2S)-trans-Cyclohexane-1,2-diamine", "(1S,2S)-Diaminocyclohexane", "(1S-trans)-1,2-Cyclohexanediamine", "(+)-trans-1,2-Diaminocyclohexane", "(S,S)-1,2-Diaminocyclohexane", "(1S,2S)-(+)-Cyclohexane-1,2-diamine", "(1S,2S)-trans-1,2-Diaminocyclohexane", "(1S,2S)-1,2-Diaminocyclohexane", "trans-(+)-1,2-Cyclohexanediamine", "(+)-trans-1,2-Cyclohexanediamine", "(S,S)-1,2-Cyclohexanediamine", "(+)-(1S,2S)-Diaminocyclohexane", "trans-(1S,2S)-1,2-Diaminocyclohexane", "(1S,2S)-(+)-1,2-Diaminocyclohexane", "1S,2S-trans-Cyclohexanediamine", "(1S,2S)-(+)-1,2-Aminocyclohexane", "(S,S)-trans-1,2-Diaminocyclohexane", "((1S,2S)-2-Aminocyclohexyl)amine", "(S,S)-trans-1,2-Cyclohexanediamine", "Cyclohexane-(1S,2S)-diamine", "(1S,2S)-1,2-trans-Cyclohexanediamine", "(1S,2S)-(+)-Diaminocyclohexane", "(1S,2S)-(+)-trans-1,2-Diaminocyclohexane", "1,2-(S,S)-Diaminocyclohexane"], "SMILES": "NC1C(N)CCCC1", "physical_data": {"Molecular Weight": "114.19", "Molecular Formula": "C6H14N2", "Melting Point": "40-43 \u00b0C"}}