{"cas_no": "2143-87-5", "cn_name": "4-\u4e8c\u7532\u80fa\u57fa-4'-\u785d\u57fa\u8054\u82ef", "en_name": ["N,N-Dimethyl-4\u2032-nitro[1,1\u2032-biphenyl]-4-amine", "[1,1\u2032-Biphenyl]-4-amine, N,N-dimethyl-4\u2032-nitro-", "4-Biphenylamine, N,N-dimethyl-4\u2032-nitro-", "N,N-Dimethyl-4\u2032-nitro[1,1\u2032-biphenyl]-4-amine", "4-(Dimethylamino)-4\u2032-nitrobiphenyl", "N,N-Dimethyl-(4\u2032-nitrobiphenyl-4-yl)amine", "4-N,N-Dimethylamino-4\u2032-nitrobiphenyl", "N,N-Dimethyl-4\u2032-nitrobiphenyl-4-amine"], "SMILES": "N(C)(C)C1=CC=C(C=C1)C2=CC=C(N(=O)=O)C=C2", "physical_data": {"Molecular Weight": "242.27", "Molecular Formula": "C14H14N2O2", "Melting Point": "244 \u00b0C"}}