{"cas_no": "214360-47-1", "cn_name": "2-\u8148\u57fa\u82ef\u787c\u9178\u65b0\u620a\u4e8c\u9187\u916f", "en_name": ["2-(5,5-Dimethyl-1,3,2-dioxaborinan-2-yl)benzonitrile", "Benzonitrile, 2-(5,5-dimethyl-1,3,2-dioxaborinan-2-yl)-", "2-(5,5-Dimethyl-1,3,2-dioxaborinan-2-yl)benzonitrile", "2-(2-Cyanophenyl)-5,5-dimethyl-1,3,2-dioxaborinane", "(2-Cyanophenyl)boronic acid 2,2-dimethylpropane-1,3-diol cyclic ester", "2,2-Dimethyltrimethylene (2-cyanophenyl)boronate"], "SMILES": "C(#N)C1=C(C=CC=C1)B2OCC(C)(C)CO2", "physical_data": {"Molecular Weight": "215.06", "Molecular Formula": "C12H14BNO2", "Melting Point": "109-111 \u00b0C"}}