{"cas_no": "214360-74-4", "cn_name": "(3-\u6eb4\u7532\u57fa\u82ef\u57fa)\u787c\u9178\u9891\u54ea\u9187\u916f", "en_name": ["2-[3-(Bromomethyl)phenyl]-4,4,5,5-tetramethyl-1,3,2-dioxaborolane", "1,3,2-Dioxaborolane, 2-[3-(bromomethyl)phenyl]-4,4,5,5-tetramethyl-", "2-[3-(Bromomethyl)phenyl]-4,4,5,5-tetramethyl-1,3,2-dioxaborolane", "2-(3-(Bromomethyl)phenyl)-4,4,5,5-tetramethyl-1,3,2-dioxaborolane", "(3-Bromomethylphenyl)boronic acid pinacol ester", "3-Bromomethylphenylboronic acid pinacol ester"], "SMILES": "CC1(C)OB(OC1(C)C)C2=CC(CBr)=CC=C2", "physical_data": {"Molecular Weight": "297.00", "Molecular Formula": "C13H18BBrO2", "Melting Point": "74-75 \u00b0C"}}