{"cas_no": "214360-49-3", "cn_name": "3-\u4e59\u9170\u57fa\u82ef\u787c\u9178\u9891\u90a3\u9187\u916f", "en_name": ["1-[3-(4,4,5,5-Tetramethyl-1,3,2-dioxaborolan-2-yl)phenyl]ethanone", "Ethanone, 1-[3-(4,4,5,5-tetramethyl-1,3,2-dioxaborolan-2-yl)phenyl]-", "1-[3-(4,4,5,5-Tetramethyl-1,3,2-dioxaborolan-2-yl)phenyl]ethanone", "2-(3-Acetylphenyl)-4,4,5,5-tetramethyl-1,3,2-dioxaborolane", "1-(3-(4,4,5,5-Tetramethyl-1,3,2-dioxaborolan-2-yl)phenyl)ethan-1-one"], "SMILES": "CC1(C)OB(OC1(C)C)C2=CC(C(C)=O)=CC=C2", "physical_data": {"Molecular Weight": "246.11", "Molecular Formula": "C14H19BO3", "Melting Point": "50.7-52.5 \u00b0C"}}