{"cas_no": "2144-54-9", "cn_name": "2-(\u5168\u6c1f\u7678\u57fa)\u4e59\u57fa\u7532\u57fa\u4e19\u70ef\u9178\u916f", "en_name": ["3,3,4,4,5,5,6,6,7,7,8,8,9,9,10,10,11,11,12,12,12-Heneicosafluorododecyl 2-methyl-2-propenoate", "2-Propenoic acid, 2-methyl-, 3,3,4,4,5,5,6,6,7,7,8,8,9,9,10,10,11,11,12,12,12-heneicosafluorododecyl ester", "Methacrylic acid, 3,3,4,4,5,5,6,6,7,7,8,8,9,9,10,10,11,11,12,12,12-heneicosafluorododecyl ester", "1-Dodecanol, 3,3,4,4,5,5,6,6,7,7,8,8,9,9,10,10,11,11,12,12,12-heneicosafluoro-, methacrylate", "3,3,4,4,5,5,6,6,7,7,8,8,9,9,10,10,11,11,12,12,12-Heneicosafluorododecyl 2-methyl-2-propenoate", "2-(Perfluorodecyl)ethyl methacrylate", "Perfluorodecylethyl methacrylate", "3,3,4,4,5,5,6,6,7,7,8,8,9,9,10,10,11,11,12,12,12-Heneicosafluorododecyl methacrylate"], "SMILES": "C(C(C(C(C(C(F)(F)F)(F)F)(F)F)(F)F)(F)F)(C(C(C(C(CCOC(C(C)=C)=O)(F)F)(F)F)(F)F)(F)F)(F)F", "physical_data": {"Molecular Weight": "632.21", "Molecular Formula": "C16H9F21O2", "Boiling Point": "95-100 \u00b0C"}}