{"cas_no": "2144-40-3", "cn_name": "2,5-\u4e8c\u7f9f\u7532\u57fa\u56db\u6c22\u544b\u5583", "en_name": ["cis-2,5-Bis(hydroxymethyl)tetrahydrofuran", "erythro-Hexitol, 2,5-anhydro-3,4-dideoxy-", "2,5-Furandimethanol, tetrahydro-, cis-", "2,5-Anhydro-3,4-dideoxy-erythro-hexitol", "cis-2,5-Bis(hydroxymethyl)tetrahydrofuran"], "SMILES": "C(O)C1OC(CO)CC1", "physical_data": {"Molecular Weight": "132.16", "Molecular Formula": "C6H12O3", "Boiling Point": "134 \u00b0C @ Press: 3 Torr", "Melting Point": "130.5 \u00b0C"}}