{"cas_no": "21443-96-9", "cn_name": "7-\u6c28\u57fa\u5432\u5511", "en_name": ["1H-Indazol-7-amine", "1H-Indazol-7-amine", "1H-Indazole, 7-amino-", "7-Aminoindazole", "7-Amino-1H-indazole", "NSC 170661", "NSC 44675", "1H-Indazol-7-ylamine"], "SMILES": "NC1=C2C(=CC=C1)C=NN2", "physical_data": {"Molecular Weight": "133.15", "Molecular Formula": "C7H7N3", "Melting Point": "159 \u00b0C"}}