{"cas_no": "214470-55-0", "cn_name": "4-\u6c2f-3-\u6c30\u57fa-6,7-\u4e8c\u7532\u6c27\u57fa\u55b9\u5549", "en_name": ["4-Chloro-6,7-dimethoxy-3-quinolinecarbonitrile", "3-Quinolinecarbonitrile, 4-chloro-6,7-dimethoxy-", "4-Chloro-6,7-dimethoxy-3-quinolinecarbonitrile", "4-Chloro-3-cyano-6,7-dimethoxyquinoline"], "SMILES": "ClC=1C2=C(C=C(OC)C(OC)=C2)N=CC1C#N", "physical_data": {"Molecular Weight": "248.67", "Molecular Formula": "C12H9ClN2O2", "Melting Point": "220-223 \u00b0C"}}