{"cas_no": "2144-37-8", "cn_name": "5-(\u6c2f\u7532\u57fa)2-\u544b\u5583\u7532\u9178\u7532\u916f", "en_name": ["Methyl 5-chloromethyl-2-furoate", "2-Furancarboxylic acid, 5-(chloromethyl)-, methyl ester", "2-Furoic acid, 5-(chloromethyl)-, methyl ester", "Methyl 5-(chloromethyl)furan-2-carboxylate", "5-Carbomethoxyfurfuryl chloride", "Methyl 5-chloromethyl-2-furoate", "Methyl 5-(chloromethyl)furoate", "Methyl 5-chloromethyl-2-furanoate", "NSC 117334", "5-(Chloromethyl)furan-2-carboxylic acid methyl ester", "Methyl 5-chloromethyl-2-furancarboxylate", "ST 005540"], "SMILES": "C(OC)(=O)C=1OC(CCl)=CC1", "physical_data": {"Molecular Weight": "174.58", "Molecular Formula": "C7H7ClO3", "Boiling Point": "136 \u00b0C @ Press: 15 Torr", "Melting Point": "32.5 \u00b0C"}}