{"cas_no": "21440-97-1", "cn_name": "6-\u6eb4-4,4-\u4e8c\u7532\u57fa-1,4-\u4e8c\u6c22\u82ef\u5e76\u5641\u5511-2-\u916e", "en_name": ["Brofoxine", "2H-3,1-Benzoxazin-2-one, 6-bromo-1,4-dihydro-4,4-dimethyl-", "6-Bromo-1,4-dihydro-4,4-dimethyl-2H-3,1-benzoxazin-2-one", "Brofoxine", "FI 6820", "6-Bromo-4,4-dimethyl-1,4-dihydro-2H-3,1-benzoxazin-2-one", "6-Bromo-4,4-dimethyl-1H-benzo[d][1,3]oxazin-2(4H)-one"], "SMILES": "CC1(C)C=2C(NC(=O)O1)=CC=C(Br)C2", "physical_data": {"Molecular Weight": "256.10", "Molecular Formula": "C10H10BrNO2", "Melting Point": "203-205 \u00b0C"}}