{"cas_no": "2144-08-3", "cn_name": "2,3,4-\u4e09\u7f9f\u57fa\u82ef\u7532\u919b", "en_name": ["2,3,4-Trihydroxybenzaldehyde", "Benzaldehyde, 2,3,4-trihydroxy-", "2,3,4-Trihydroxybenzaldehyde", "3,4-Dihydroxysalicylaldehyde", "NSC 22595", "2,3,4-Trihydroxybenzaldeyde"], "SMILES": "C(=O)C1=C(O)C(O)=C(O)C=C1", "physical_data": {"Molecular Weight": "154.12", "Molecular Formula": "C7H6O4", "Melting Point": "158 \u00b0C"}}