{"cas_no": "2146-36-3", "cn_name": "\u5341\u4e8c\u6c22\u82ca", "en_name": ["Dodecahydroacenaphthylene", "Acenaphthylene, dodecahydro-", "Acenaphthene, decahydro-", "Dodecahydroacenaphthylene", "Perhydroacenaphthene", "Decahydroacenaphthene", "Tricyclo[6.3.1.04,12]dodecane"], "SMILES": "C12C3CCC1CCCC2CCC3", "physical_data": {"Molecular Weight": "164.29", "Molecular Formula": "C12H20", "Boiling Point": "115 \u00b0C @ Press: 12 Torr", "Melting Point": "20 \u00b0C", "Density": "1.029 g/cm\u00b3 @ Temp: 20 \u00b0C"}}