{"cas_no": "2146-71-6", "cn_name": "\u6708\u6842\u9178\u4e59\u70ef\u916f", "en_name": ["Vinyl laurate", "Dodecanoic acid, ethenyl ester", "Lauric acid, vinyl ester", "Vinyl laurate", "Vinyl dodecanoate", "Dodecanoic acid vinyl ester", "NSC 32650"], "SMILES": "C(CCCCCCCCCCC)(OC=C)=O", "physical_data": {"Molecular Weight": "226.35", "Molecular Formula": "C14H26O2", "Boiling Point": "123 \u00b0C @ Press: 4 Torr", "Density": "0.8641 g/cm\u00b3 @ Temp: 20 \u00b0C"}}