{"cas_no": "2146-07-8", "cn_name": "\u5bf9\u6c1f\u82ef\u80fa\u76d0\u9178\u76d0", "en_name": ["Benzenamine, 4-fluoro-, hydrochloride (1:1)", "Benzenamine, 4-fluoro-, hydrochloride (1:1)", "Aniline, p-fluoro-, hydrochloride", "Benzenamine, 4-fluoro-, hydrochloride", "p-Fluoroaniline hydrochloride", "4-Fluorobenzenamine hydrochloride", "4-Fluoroaniline hydrochloride", "4-Fluoroanilinium chloride"], "SMILES": "FC1=CC=C(N)C=C1.Cl", "physical_data": {"Molecular Weight": "", "Molecular Formula": "C6H6FN.ClH", "Melting Point": "&gt;200 \u00b0C"}}