{"cas_no": "2146-38-5", "cn_name": "1-\u4e59\u57fa-1-\u73af\u620a\u70ef", "en_name": ["Ethylcyclopentene", "Cyclopentene, 1-ethyl-", "1-Ethylcyclopentene", "1-Ethyl-1-cyclopentene", "Ethylcyclopentene", "NSC 73920"], "SMILES": "C(C)C=1CCCC1", "physical_data": {"Molecular Weight": "96.17", "Molecular Formula": "C7H12", "Boiling Point": "106.3 \u00b0C", "Melting Point": "-118.5 \u00b0C", "Density": "0.7975 g/cm\u00b3"}}