{"cas_no": "21462-39-5", "cn_name": "\u76d0\u9178\u514b\u6797\u9709\u7d20", "en_name": ["Clindamycin hydrochloride", "L-threo-\u03b1-D-galacto-Octopyranoside, methyl 7-chloro-6,7,8-trideoxy-6-[[[(2S,4R)-1-methyl-4-propyl-2-pyrrolidinyl]carbonyl]amino]-1-thio-, hydrochloride (1:1)", "L-threo-\u03b1-D-galacto-Octopyranoside, methyl 7-chloro-6,7,8-trideoxy-6-[[(1-methyl-4-propyl-2-pyrrolidinyl)carbonyl]amino]-1-thio-, monohydrochloride, (2S-trans)-", "L-threo-\u03b1-D-galacto-Octopyranoside, methyl 7-chloro-6,7,8-trideoxy-6-(1-methyl-4-propyl-L-2-pyrrolidinecarboxamido)-1-thio-, monohydrochloride, trans- \u03b1-", "L-threo-\u03b1-D-galacto-Octopyranoside, methyl 7-chloro-6,7,8-trideoxy-6-[[[(2S,4R)-1-methyl-4-propyl-2-pyrrolidinyl]carbonyl]amino]-1-thio-, monohydrochloride", "Clindamycin hydrochloride", "Clindomycin hydrochloride", "7(S)-Chloro-7-deoxylincomycin hydrochloride", "Clindimycin hydrochloride", "7-Chloro-7-deoxylincomycin hydrochloride", "Cleocin hydrochloride", "Dalacina", "Antirobe vet.", "Clindavet", "Clinacin"], "SMILES": "C(NC(=O)C1CC(CCC)CN1C)(C(C)Cl)C2OC(SC)C(O)C(O)C2O.Cl", "physical_data": {"Molecular Weight": "", "Molecular Formula": "C18H33ClN2O5S.ClH", "Melting Point": "144 \u00b0C"}}