{"cas_no": "2147-83-3", "cn_name": "1,3-\u4e8c\u6c22-1-(1,2,3,6-\u56db\u6c22-4-\u5421\u5576\u57fa)-2\u6c22\u82ef\u54aa\u5511-2-\u916e", "en_name": ["1,3-Dihydro-1-(1,2,3,6-tetrahydro-4-pyridinyl)-2H-benzimidazole-2-one", "2H-Benzimidazol-2-one, 1,3-dihydro-1-(1,2,3,6-tetrahydro-4-pyridinyl)-", "2-Benzimidazolinone, 1-(1,2,3,6-tetrahydro-4-pyridyl)-", "1,3-Dihydro-1-(1,2,3,6-tetrahydro-4-pyridinyl)-2H-benzimidazol-2-one", "1-(1,2,3,6-Tetrahydro-4-pyridyl)-2-benzimidazolinone", "R 4748", "1,3-Dihydro-1-(1,2,3,6-tetrahydro-4-pyridinyl)-2H-benzimidazole-2-one", "NSC 88883", "1-(1,2,3,6-Tetrahydropyridin-4-yl)-1,3-dihydrobenzimidazol-2-one", "1-(1,2,3,6-Tetrahydropyridin-4-yl)-1H-benzo[d]imidazol-2(3H)-one", "1-(1,2,3,6-Tetrahydropyridin-4-yl)-2,3-dihydro-1H-1,3-benzodiazol-2-one", "3-(1,2,3,6-Tetrahydropyridin-4-yl)-1H-benzimidazol-2-one"], "SMILES": "O=C1N(C=2C(N1)=CC=CC2)C=3CCNCC3", "physical_data": {"Molecular Weight": "215.25", "Molecular Formula": "C12H13N3O", "Melting Point": "184-190 \u00b0C"}}