{"cas_no": "21472-89-9", "cn_name": "1-\u6c2e\u6742\u53cc\u73af[2.2.1]\u5e9a\u70f7-3-\u916e", "en_name": ["1-Azabicyclo[2.2.1]heptan-3-one", "1-Azabicyclo[2.2.1]heptan-3-one"], "SMILES": "O=C1C2CN(C1)CC2", "physical_data": {"Molecular Weight": "111.14", "Molecular Formula": "C6H9NO", "Melting Point": "25-27 \u00b0C"}}