{"cas_no": "21470-41-7", "cn_name": "4,4'-\u4e8c\u6b63\u620a\u6c27\u57fa\u8054\u82ef", "en_name": ["4,4\u2032-Bis(pentyloxy)-1,1\u2032-biphenyl", "1,1\u2032-Biphenyl, 4,4\u2032-bis(pentyloxy)-", "Biphenyl, 4,4\u2032-bis(pentyloxy)-", "4,4\u2032-Bis(pentyloxy)-1,1\u2032-biphenyl", "1-Pentoxy-4-(4-pentoxyphenyl)benzene", "4,4\u2032-Di(pentyloxy)biphenyl"], "SMILES": "O(CCCCC)C1=CC=C(C=C1)C2=CC=C(OCCCCC)C=C2", "physical_data": {"Molecular Weight": "326.47", "Molecular Formula": "C22H30O2", "Melting Point": "162-165 \u00b0C"}}