{"cas_no": "2148-55-2", "cn_name": "4,5-\u4e8c\u6c2f\u55b9\u5511\u5549", "en_name": ["4,5-Dichloroquinazoline", "Quinazoline, 4,5-dichloro-", "4,5-Dichloroquinazoline", "NSC 63434"], "SMILES": "ClC=1C2=C(C=CC=C2Cl)N=CN1", "physical_data": {"Molecular Weight": "199.04", "Molecular Formula": "C8H4Cl2N2", "Melting Point": "131.5-133 \u00b0C"}}