{"cas_no": "2148-56-3", "cn_name": "2-\u6c28\u57fa-6-\u6c2f\u82ef\u7532\u9178", "en_name": ["2-Amino-6-chlorobenzoic acid", "Benzoic acid, 2-amino-6-chloro-", "Anthranilic acid, 6-chloro-", "2-Amino-6-chlorobenzoic acid", "6-Chloroanthranilic acid", "2-Chloro-6-aminobenzoic acid", "NSC 17189", "6-Chloro-2-aminobenzoic acid"], "SMILES": "C(O)(=O)C1=C(Cl)C=CC=C1N", "physical_data": {"Molecular Weight": "171.58", "Molecular Formula": "C7H6ClNO2", "Melting Point": "159 \u00b0C"}}