{"cas_no": "214822-96-5", "cn_name": "4-\u6c1f-3-\u7f9f\u57fa\u82ef\u7532\u9178\u7532\u916f", "en_name": ["Benzoic acid, 4-fluoro-3-hydroxy-, methyl ester", "Benzoic acid, 4-fluoro-3-hydroxy-, methyl ester", "Methyl 4-fluoro-3-hydroxybenzoate", "4-Fluoro-3-hydroxybenzoic acid methyl ester", "4-Fluoro-5-hydroxybenzoic acid methyl ester", "Methyl 4-fluoro-5-hydroxybenzoate"], "SMILES": "C(OC)(=O)C1=CC(O)=C(F)C=C1", "physical_data": {"Molecular Weight": "170.14", "Molecular Formula": "C8H7FO3", "Melting Point": "78-86 \u00b0C"}}