{"cas_no": "21498-08-8", "cn_name": "\u76d0\u9178\u6d1b\u975e\u897f\u5b9a", "en_name": ["Lofexidine hydrochloride", "1H-Imidazole, 2-[1-(2,6-dichlorophenoxy)ethyl]-4,5-dihydro-, hydrochloride (1:1)", "2-Imidazoline, 2-[1-(2,6-dichlorophenoxy)ethyl]-, monohydrochloride", "1H-Imidazole, 2-[1-(2,6-dichlorophenoxy)ethyl]-4,5-dihydro-, monohydrochloride", "Lofexidine hydrochloride", "Britlofex", "Loxacor", "Lofetensin", "MDL 14042", "Baq 168", "2-(1-(2,6-Dichlorophenoxy)ethyl)-4,5-dihydro-1H-imidazole hydrochloride"], "SMILES": "O(C(C)C=1NCCN1)C2=C(Cl)C=CC=C2Cl.Cl", "physical_data": {"Molecular Weight": "", "Molecular Formula": "C11H12Cl2N2O.ClH", "Melting Point": "221-223 \u00b0C"}}