{"cas_no": "21499-24-1", "cn_name": "AGRIMONOLIDE", "en_name": ["Agrimonolide", "1H-2-Benzopyran-1-one, 3,4-dihydro-6,8-dihydroxy-3-[2-(4-methoxyphenyl)ethyl]-, (3S)-", "Agrimonolide", "Isocoumarin, 3,4-dihydro-6,8-dihydroxy-3-(p-methoxyphenethyl)-, (S)-", "1H-2-Benzopyran-1-one, 3,4-dihydro-6,8-dihydroxy-3-[2-(4-methoxyphenyl)ethyl]-, (S)-", "(3S)-3,4-Dihydro-6,8-dihydroxy-3-[2-(4-methoxyphenyl)ethyl]-1H-2-benzopyran-1-one"], "SMILES": "O=C1C=2C(CC(CCC3=CC=C(OC)C=C3)O1)=CC(O)=CC2O", "physical_data": {"Molecular Weight": "314.33", "Molecular Formula": "C18H18O5", "Melting Point": "175.5-176.5 \u00b0C"}}