{"cas_no": "21490-63-1", "cn_name": "\u53cd\u5f0f-2,3-\u73af\u6c27\u4e01\u70f7", "en_name": ["trans-2,3-Dimethyloxirane", "Oxirane, 2,3-dimethyl-, (2R,3R)-rel-", "Butane, 2,3-epoxy-, trans-", "Oxirane, 2,3-dimethyl-, trans-", "rel-(2R,3R)-2,3-Dimethyloxirane", "trans-2-Butene oxide", "trans-2,3-Dimethyloxirane", "trans-2-Butylene oxide", "trans-2,3-Epoxybutane", "trans-2,3-Butylene oxide", "(\u00b1)-trans-2,3-Dimethyloxirane", "(\u00b1)-trans-2,3-Epoxybutane", "trans-2,3-Butene oxide", "NSC 24244", "(2R*,3R*)-2,3-Dimethyloxirane"], "SMILES": "CC1C(C)O1", "physical_data": {"Molecular Weight": "72.11", "Molecular Formula": "C4H8O", "Boiling Point": "56.5 \u00b0C", "Melting Point": "-85 \u00b0C", "Density": "0.8226 g/cm\u00b3 @ Temp: 25 \u00b0C"}}