{"cas_no": "21499-23-0", "cn_name": "\u767d\u82b1\u524d\u80e1\u7532\u7d20", "en_name": ["Phyllodulcin", "1H-2-Benzopyran-1-one, 3,4-dihydro-8-hydroxy-3-(3-hydroxy-4-methoxyphenyl)-, (3R)-", "Isocoumarin, 3,4-dihydro-8-hydroxy-3\u03b2-(3-hydroxy-4-methoxyphenyl)-", "1H-2-Benzopyran-1-one, 3,4-dihydro-8-hydroxy-3-(3-hydroxy-4-methoxyphenyl)-, (R)-", "(3R)-3,4-Dihydro-8-hydroxy-3-(3-hydroxy-4-methoxyphenyl)-1H-2-benzopyran-1-one", "Phyllodulcin", "8-Hydroxy-3-(3-hydroxy-4-methoxyphenyl)dihydroisocoumarin", "d-Phyllodulcin", "(+)-Phyllodulcin", "(R)-(+)-Phyllodulcin", "3R-Phyllodulcin", "(3R)-8-Hydroxy-3-(3-hydroxy-4-methoxyphenyl)-3,4-dihydroisochromen-1-one", "(3R)-8-Hydroxy-3-(3-hydroxy-4-methoxyphenyl)-3,4-dihydro-1H-isochromen-1-one"], "SMILES": "O=C1C=2C(CC(O1)C3=CC(O)=C(OC)C=C3)=CC=CC2O", "physical_data": {"Molecular Weight": "286.28", "Molecular Formula": "C16H14O5", "Melting Point": "120 \u00b0C"}}