{"cas_no": "21499-66-1", "cn_name": "\u9e26\u80c6\u5b50\u7d20 D", "en_name": ["Bruceine D", "Picras-3-ene-2,16-dione, 13,20-epoxy-1,11,12,14,15-pentahydroxy-, (1\u03b2,11\u03b2,12\u03b1,15\u03b2)-", "5H-3,11c\u03b2-(Epoxymethano)phenanthro[10,1-bc]pyran-5,10(6a\u03b2H)-dione, 1,2,3,3a,4,7,7a\u03b1,11,11a,11b\u03b1-decahydro-1\u03b2,2\u03b1,3a\u03b2,4\u03b2,11\u03b2-pentahydroxy-3\u03b1,8,11a\u03b2-trimethyl-, (-)-", "(1\u03b2,11\u03b2,12\u03b1,15\u03b2)-13,20-Epoxy-1,11,12,14,15-pentahydroxypicras-3-ene-2,16-dione", "Bruceine D", "NSC 318801", "Brucein D", "20-Deoxyyadanziolide A"], "SMILES": "OC12C34C(C5(C)C(CC3OC(=O)C1O)C(C)=CC(=O)C5O)C(O)C(O)C2(C)OC4", "physical_data": {"Molecular Weight": "410.42", "Molecular Formula": "C20H26O9", "Melting Point": "285-290 \u00b0C"}}