{"cas_no": "2149-70-4", "cn_name": "N'-\u785d\u57fa-L-\u7cbe\u6c28\u9178", "en_name": ["N\u03c9-Nitro-L-arginine", "L-Ornithine, N5-[imino(nitroamino)methyl]-", "Ornithine, N5-(nitroamidino)-, L-", "N5-[Imino(nitroamino)methyl]-L-ornithine", "\u03c9-Nitro-L-arginine", "\u03c9-Nitroarginine", "Nitro-L-arginine", "NG-Nitroarginine", "Nitroarginine", "(+)-NG-Nitroarginine", "L-Arginine, \u03c9-nitro-", "L-Arginine, NG-nitro-", "L-NG-Nitroarginine", "N\u03c9-Nitro-L-arginine", "NOLA", "N\u03c9-Nitro-L-arginine", "NG-Nitro-L-arginine", "NSC 53662", "L-NNA", "L-NOARG", "(2S)-2-Amino-5-(N\u2032-nitrocarbamimidamido)pentanoic acid", "(2S)-5-[[Amino(nitramido)methylidene]amino]-2-azaniumylpentanoate"], "SMILES": "N(CCCC(C(O)=O)N)C(NN(=O)=O)=N", "physical_data": {"Molecular Weight": "219.20", "Molecular Formula": "C6H13N5O4", "Melting Point": "263 \u00b0C (decomp)"}}