{"cas_no": "215-58-7", "cn_name": "1,2,3,4-\u4e8c\u82ef\u7532\u57fa\u9178", "en_name": ["Benzo[b]triphenylene", "Benzo[b]triphenylene", "1,2:3,4-Dibenzanthracene", "Dibenz[a,c]anthracene", "Dibenzo[a,c]anthracene", "1,2:3,4-Dibenzoanthracene", "2,3-Benzotriphenylene"], "SMILES": "C12=C(C=3C(C=4C1=CC=CC4)=CC=CC3)C=C5C(=C2)C=CC=C5", "physical_data": {"Molecular Weight": "278.35", "Molecular Formula": "C22H14", "Boiling Point": "524 \u00b0C", "Melting Point": "206 \u00b0C"}}