{"cas_no": "2150-41-6", "cn_name": "2,4-\u4e8c\u7532\u6c27\u57fa\u82ef\u7532\u9178\u7532\u916f", "en_name": ["Benzoic acid, 2,4-dimethoxy-, methyl ester", "Benzoic acid, 2,4-dimethoxy-, methyl ester", "Methyl 2,4-dimethoxybenzoate", "2,4-Dimethoxybenzoic acid methyl ester", "NSC 49277"], "SMILES": "C(OC)(=O)C1=C(OC)C=C(OC)C=C1", "physical_data": {"Molecular Weight": "196.20", "Molecular Formula": "C10H12O4", "Boiling Point": "293-296 \u00b0C", "Melting Point": "48-49 \u00b0C"}}