{"cas_no": "2150-40-5", "cn_name": "METHYL 2,5-DIMETHOXYBENZOATE", "en_name": ["Benzoic acid, 2,5-dimethoxy-, methyl ester", "Benzoic acid, 2,5-dimethoxy-, methyl ester", "Methyl 2,5-dimethoxybenzoate"], "SMILES": "C(OC)(=O)C1=C(OC)C=CC(OC)=C1", "physical_data": {"Molecular Weight": "196.20", "Molecular Formula": "C10H12O4", "Boiling Point": "95-98 \u00b0C @ Press: 1 Torr"}}