{"cas_no": "2150-43-8", "cn_name": "3,4-\u4e8c\u7f9f\u57fa\u82ef\u7532\u9178\u7532\u916f", "en_name": ["Methyl 3,4-dihydroxybenzoate", "Benzoic acid, 3,4-dihydroxy-, methyl ester", "Protocatechuic acid, methyl ester", "3,4-Dihydroxybenzoic acid methyl ester", "Methyl protocatechuate", "Methyl 3,4-dihydroxybenzoate", "NSC 146458"], "SMILES": "C(OC)(=O)C1=CC(O)=C(O)C=C1", "physical_data": {"Molecular Weight": "168.15", "Molecular Formula": "C8H8O4", "Boiling Point": "120-180 \u00b0C @ Press: 1.5 Torr", "Melting Point": "134-135 \u00b0C"}}