{"cas_no": "2150-55-2", "cn_name": "2-\u6c28\u57fa-2-\u567b\u5511\u5549-4-\u7fa7\u9178", "en_name": ["2-Aminothiazoline-4-carboxylic acid", "4-Thiazolecarboxylic acid, 2-amino-4,5-dihydro-", "2-Thiazoline-4-carboxylic acid, 2-amino-", "2-Amino-4,5-dihydro-4-thiazolecarboxylic acid", "2-Aminothiazoline-4-carboxylic acid", "2-Iminothiazolidine-4-carboxylic acid", "DL-2-Aminothiazoline-4-carboxylic acid", "DL-2-Amino-\u03942-thiazoline-4-carboxylic acid", "NSC 25069", "DL-2-Amino-2-thiazolin-4-carboxylic acid", "2-Amino-2-thiazoline-4-carboxylic acid", "2-Imino-1,3-thiazolidine-4-carboxylic acid", "2-Amino-4,5-dihydro-1,3-thiazole-4-carboxylic acid", "2-Amino-4,5-dihydro-1,3-thiazol-3-ium-4-carboxylate"], "SMILES": "C(O)(=O)C1N=C(N)SC1", "physical_data": {"Molecular Weight": "146.17", "Molecular Formula": "C4H6N2O2S", "Melting Point": "212 \u00b0C"}}