{"cas_no": "2150-46-1", "cn_name": "2,5-\u4e8c\u7f9f\u57fa\u82ef\u7532\u9178\u7532\u916f", "en_name": ["Methyl 2,5-dihydroxybenzoate", "Benzoic acid, 2,5-dihydroxy-, methyl ester", "Gentisic acid, methyl ester", "Methyl 2,5-dihydroxybenzoate", "Methyl gentisate", "2,5-Dihydroxybenzoic acid methyl ester", "Methoxycarbonylhydroquinone", "NSC 618316", "2-Methoxycarbonyl-1,4-Benzenediol", "2-(Methoxycarbonyl)hydroquinone"], "SMILES": "C(OC)(=O)C1=C(O)C=CC(O)=C1", "physical_data": {"Molecular Weight": "168.15", "Molecular Formula": "C8H8O4", "Boiling Point": "55 \u00b0C @ Press: 0.01 Torr", "Melting Point": "86 \u00b0C"}}