{"cas_no": "2150-11-0", "cn_name": "3',4',7-\u4e09\u7f9f\u57fa\u9ec4\u916e", "en_name": ["3\u2032,4\u2032,7-Trihydroxyflavone", "4H-1-Benzopyran-4-one, 2-(3,4-dihydroxyphenyl)-7-hydroxy-", "Flavone, 3\u2032,4\u2032,7-trihydroxy-", "2-(3,4-Dihydroxyphenyl)-7-hydroxy-4H-1-benzopyran-4-one", "3\u2032,4\u2032,7-Trihydroxyflavone", "7,3\u2032,4\u2032-Trihydroxyflavone", "T 414", "3\u2032,4\u2032,7-Trihydroxylflavone", "5-Deoxyluteolin", "2-(3,4-Dihydroxyphenyl)-7-hydroxychromen-4-one", "2-(3,4-Dihydroxyphenyl)-7-hydroxy-4H-chromen-4-one", "7,3\u2032,4\u2032-HOFL"], "SMILES": "O=C1C=2C(OC(=C1)C3=CC(O)=C(O)C=C3)=CC(O)=CC2", "physical_data": {"Molecular Weight": "270.24", "Molecular Formula": "C15H10O5", "Melting Point": "318-322 \u00b0C"}}