{"cas_no": "2150-02-9", "cn_name": "\u53cc(2-\u5def\u57fa\u4e59\u57fa)\u919a", "en_name": ["2-Mercaptoethyl ether", "Ethanethiol, 2,2\u2032-oxybis-", "Ethanethiol, 2,2\u2032-oxydi-", "2,2\u2032-Oxybis[ethanethiol]", "Bis(2-mercaptoethyl) ether", "Dithiodiglycol", "Ethyl ether dimercaptan", "\u03b2,\u03b2\u2032-Dimercaptodiethyl ether", "2,2\u2032-Dimercaptodiethyl ether", "3-Oxapentane-1,5-dithiol", "\u03b2-Mercaptoethyl ether", "Bis(mercaptoethyl) ether", "2,2\u2032-Oxydi-1-ethanethiol", "2-Mercaptoethyl ether", "2,2\u2032-Oxydiethanethiol", "1,5-Dimercapto-3-oxapentane", "NSC 51020", "NSC 6751", "2-(2-Sulfanylethoxy)ethane-1-thiol", "2-(2-Sulfanylethoxy)ethyl hydrosulfide", "2-(2-Sulfanylethoxy)ethanethiol", "Di(2-mercaptoethyl) ether"], "SMILES": "O(CCS)CCS", "physical_data": {"Molecular Weight": "138.25", "Molecular Formula": "C4H10OS2", "Boiling Point": "217 \u00b0C", "Density": "1.127 g/cm\u00b3 @ Temp: 20 \u00b0C"}}