{"cas_no": "2150-58-5", "cn_name": "\u82ef\u915a\u76d0", "en_name": ["4-[[4-(Dimethylamino)phenyl]imino]-2,5-cyclohexadien-1-one", "2,5-Cyclohexadien-1-one, 4-[[4-(dimethylamino)phenyl]imino]-", "Indoaniline, N,N-dimethyl-", "Phenol blue", "4-[[4-(Dimethylamino)phenyl]imino]-2,5-cyclohexadien-1-one", "N,N-Dimethylindoaniline", "NSC 400538", "NSC 402443"], "SMILES": "N(C1=CC=C(N(C)C)C=C1)=C2C=CC(=O)C=C2", "physical_data": {"Molecular Weight": "226.27", "Molecular Formula": "C14H14N2O", "Melting Point": "146-148 \u00b0C"}}