{"cas_no": "2150-37-0", "cn_name": "3,5-\u4e8c\u7532\u6c27\u57fa\u82ef\u7532\u9178\u7532\u916f", "en_name": ["Methyl 3,5-dimethoxybenzoate", "Benzoic acid, 3,5-dimethoxy-, methyl ester", "Methyl 3,5-dimethoxybenzoate", "3,5-Dimethoxybenzoic acid methyl ester", "NSC 65605", "Methyl 3,5-bis(methyloxy)benzoate"], "SMILES": "C(OC)(=O)C1=CC(OC)=CC(OC)=C1", "physical_data": {"Molecular Weight": "196.20", "Molecular Formula": "C10H12O4", "Melting Point": "43 \u00b0C"}}