{"cas_no": "2150-47-2", "cn_name": "2,4-\u4e8c\u7f9f\u57fa\u82ef\u7532\u9178\u7532\u916f", "en_name": ["Methyl 2,4-dihydroxybenzoate", "Benzoic acid, 2,4-dihydroxy-, methyl ester", "\u03b2-Resorcylic acid, methyl ester", "Methyl 2,4-dihydroxybenzoate", "Methyl \u03b2-resorcylate", "2,4-Dihydroxybenzoic acid methyl ester"], "SMILES": "C(OC)(=O)C1=C(O)C=C(O)C=C1", "physical_data": {"Molecular Weight": "168.15", "Molecular Formula": "C8H8O4", "Boiling Point": "102-104 \u00b0C @ Press: 0.5 Torr", "Melting Point": "118-121 \u00b0C"}}