{"cas_no": "2150-42-7", "cn_name": "2,3-\u4e8c\u7532\u6c27\u57fa\u82ef\u7532\u9178\u7532\u916f", "en_name": ["Methyl 2,3-dimethoxybenzoate", "Benzoic acid, 2,3-dimethoxy-, methyl ester", "o-Veratric acid, methyl ester", "Methyl 2,3-dimethoxybenzoate", "Methyl o-veratrate", "NSC 146462", "2,3-Dimethoxybenzoic acid methyl ester", "2,3-Dimethoxy-benzoic acid methyl ester"], "SMILES": "C(OC)(=O)C1=C(OC)C(OC)=CC=C1", "physical_data": {"Molecular Weight": "196.20", "Molecular Formula": "C10H12O4", "Boiling Point": "180-185 \u00b0C @ Press: 50 Torr", "Melting Point": "47 \u00b0C"}}