{"cas_no": "2150-44-9", "cn_name": "3,5-\u4e8c\u7f9f\u57fa\u82ef\u7532\u9178\u7532\u916f", "en_name": ["3,5-Dihydroxybenzoic acid methyl ester", "Benzoic acid, 3,5-dihydroxy-, methyl ester", "\u03b1-Resorcylic acid, methyl ester", "Methyl 3,5-dihydroxybenzoate", "3,5-Dihydroxybenzoic acid methyl ester", "\u03b1-Resorcinol carboxylic acid methyl ester", "Methyl \u03b1-resorcylate", "NSC 61082", "Methyl 3,5-hydroxybenzoate"], "SMILES": "C(OC)(=O)C1=CC(O)=CC(O)=C1", "physical_data": {"Molecular Weight": "168.15", "Molecular Formula": "C8H8O4", "Melting Point": "163-165 \u00b0C"}}