{"cas_no": "2150-38-1", "cn_name": "3,4-\u4e8c\u7532\u6c27\u57fa\u82ef\u7532\u9178\u7532\u916f", "en_name": ["Methyl 3,4-dimethoxybenzoate", "Benzoic acid, 3,4-dimethoxy-, methyl ester", "Veratric acid, methyl ester", "Methyl veratrate", "Methyl 3,4-dimethoxybenzoate", "3,4-Dimethoxybenzoic acid methyl ester", "NSC 15668"], "SMILES": "O(C)C1=C(OC)C=CC(C(OC)=O)=C1", "physical_data": {"Molecular Weight": "196.20", "Molecular Formula": "C10H12O4", "Boiling Point": "283 \u00b0C", "Melting Point": "60.8 \u00b0C"}}