{"cas_no": "2150-45-0", "cn_name": "2,6-\u4e8c\u7f9f\u57fa\u82ef\u7532\u9178\u7532\u916f", "en_name": ["Benzoic acid, 2,6-dihydroxy-, methyl ester", "Benzoic acid, 2,6-dihydroxy-, methyl ester", "\u03b3-Resorcylic acid, methyl ester", "Methyl 2,6-dihydroxybenzoate", "2,6-Dihydroxy-benzoic acid methylester"], "SMILES": "C(OC)(=O)C1=C(O)C=CC=C1O", "physical_data": {"Molecular Weight": "168.15", "Molecular Formula": "C8H8O4", "Melting Point": "68-69 \u00b0C"}}