{"cas_no": "21511-25-1", "cn_name": "GERALDOL", "en_name": ["Geraldol", "4H-1-Benzopyran-4-one, 3,7-dihydroxy-2-(4-hydroxy-3-methoxyphenyl)-", "Flavone, 3,4\u2032,7-trihydroxy-3\u2032-methoxy-", "3,7-Dihydroxy-2-(4-hydroxy-3-methoxyphenyl)-4H-1-benzopyran-4-one", "Geraldol", "3\u2032-Methoxy-3,7,4\u2032-trihydroxyflavone"], "SMILES": "OC1=C(OC=2C(C1=O)=CC=C(O)C2)C3=CC(OC)=C(O)C=C3", "physical_data": {"Molecular Weight": "300.26", "Molecular Formula": "C16H12O6", "Melting Point": "307-308 \u00b0C"}}