{"cas_no": "21510-43-0", "cn_name": "2-(4-\u6eb4\u82ef\u57fa)-5-\u82ef\u57fa-1,3,4-\u6076\u4e8c\u5511", "en_name": ["2-(4-Bromophenyl)-5-phenyl-1,3,4-oxadiazole", "1,3,4-Oxadiazole, 2-(4-bromophenyl)-5-phenyl-", "1,3,4-Oxadiazole, 2-(p-bromophenyl)-5-phenyl-", "2-(4-Bromophenyl)-5-phenyl-1,3,4-oxadiazole", "NSC 89572"], "SMILES": "BrC1=CC=C(C=2OC(=NN2)C3=CC=CC=C3)C=C1", "physical_data": {"Molecular Weight": "301.14", "Molecular Formula": "C14H9BrN2O", "Melting Point": "167 \u00b0C"}}