{"cas_no": "21516-68-7", "cn_name": "\u7ea2\u66f2", "en_name": ["Monascin", "2H-Furo[3,2-g][2]benzopyran-2,9(3H)-dione, 3a,4,8,9a-tetrahydro-9a-methyl-3-(1-oxohexyl)-6-(1E)-1-propen-1-yl-, (3S,3aR,9aR)-", "2H-Furo[3,2-g][2]benzopyran-2,9(3H)-dione, 3-hexanoyl-3a,4,8,9a-tetrahydro-9a-methyl-6-propenyl-", "Monascin", "2H-Furo[3,2-g][2]benzopyran-2,9(3H)-dione, 3a,4,8,9a-tetrahydro-9a-methyl-3-(1-oxohexyl)-6-(1-propenyl)-, [3S-[3\u03b1,3a\u03b1,6(E),9a\u03b2]]-", "2H-Furo[3,2-g][2]benzopyran-2,9(3H)-dione, 3a,4,8,9a-tetrahydro-9a-methyl-3-(1-oxohexyl)-6-(1E)-1-propenyl-, (3S,3aR,9aR)-", "(3S,3aR,9aR)-3a,4,8,9a-Tetrahydro-9a-methyl-3-(1-oxohexyl)-6-(1E)-1-propen-1-yl-2H-furo[3,2-g][2]benzopyran-2,9(3H)-dione", "Monascoflavin", "Monascoflavine"], "SMILES": "CC12C(C(C(CCCCC)=O)C(=O)O1)CC3=C(C2=O)COC(C=CC)=C3", "physical_data": {"Molecular Weight": "358.43", "Molecular Formula": "C21H26O5", "Melting Point": "145 \u00b0C"}}