{"cas_no": "21524-39-0", "cn_name": "2,3-\u4e8c\u6c1f\u82ef\u8148", "en_name": ["2,3-Difluorobenzonitrile", "Benzonitrile, 2,3-difluoro-", "2,3-Difluorobenzonitrile", "1,2-Difluoro-3-cyanobenzene"], "SMILES": "C(#N)C1=C(F)C(F)=CC=C1", "physical_data": {"Molecular Weight": "139.10", "Molecular Formula": "C7H3F2N", "Boiling Point": "175-177 \u00b0C"}}