{"cas_no": "2152-34-3", "cn_name": "\u5339\u83ab\u6797", "en_name": ["Pemoline", "4(5H)-Oxazolone, 2-amino-5-phenyl-", "2-Oxazolin-4-one, 2-amino-5-phenyl-", "4-Oxazolidinone, 2-imino-5-phenyl-", "2-Amino-5-phenyl-4(5H)-oxazolone", "Azoxodone", "2-Imino-5-phenyl-4-oxazolidinone", "Kethamed", "Okodon", "Pemoline", "5-Phenyl-2-imino-4-oxooxazolidine", "Tradon", "Tradone", "Pemolin", "Pondex", "5-Phenyl-2-iminooxazolidin-4-one", "2-Imino-4-oxo-5-phenyloxazolidine", "2-Amino-5-phenyl-2-oxazolin-4-one", "2-Imino-4-keto-5-phenyltetrahydrooxazole", "Pheniminooxazolidinone", "Phenoxazole", "Phenylisohydantoin", "Phenylpseudohydantoin", "LA 956", "Yh 1", "PIO", "Azoksodon", "Dantromin", "Azoxodon", "Centramin", "Deltamin", "Stimul", "Ronyl", "Hyton", "Sistra", "Pioxol", "Stimulol", "Sigmadyn", "NSC 25159", "Hyton Asa", "Nitan", "Volital", "Deltamine", "Senior", "NSC 169499", "2-Amino-5-phenyl-1,3-oxazol-4(5H)-one", "Fenoxazol", "2-Amino-5-phenyl-4-oxazolone", "MeSH ID: D010389"], "SMILES": "O=C1C(OC(N)=N1)C2=CC=CC=C2", "physical_data": {"Molecular Weight": "176.17", "Molecular Formula": "C9H8N2O2", "Melting Point": "256 \u00b0C (decomp)"}}