{"cas_no": "2152-44-5", "cn_name": "\u500d\u4ed6\u7c73\u677e\u620a\u9178\u916f", "en_name": ["Betamethasone valerate", "Pregna-1,4-diene-3,20-dione, 9-fluoro-11,21-dihydroxy-16-methyl-17-[(1-oxopentyl)oxy]-, (11\u03b2,16\u03b2)-", "Pregna-1,4-diene-3,20-dione, 9-fluoro-11\u03b2,17,21-trihydroxy-16\u03b2-methyl-, 17-valerate", "Valeric acid, 17-ester with 9-fluoro-11\u03b2,17,21-trihydroxy-16\u03b2-methylpregna-1,4-diene-3,20-dione", "(11\u03b2,16\u03b2)-9-Fluoro-11,21-dihydroxy-16-methyl-17-[(1-oxopentyl)oxy]pregna-1,4-diene-3,20-dione", "Betamethasone 17-valerate", "Betnovateat", "9\u03b1-Fluoro-11\u03b2,21-dihydroxy-16\u03b2-methyl-17\u03b1-valeryloxypregna-1,4-diene-3,20-dione", "\u03b2-Methasone 17-valerate", "Betamethasone valerate", "Betnovate", "Valisone", "Celestoderm", "Celestane V", "Betamethasone 17\u03b1-valerate", "Stanoval", "Celeston valerate", "Rinderon V", "Betoid", "Bedermin", "Beta-Val", "Bextasol", "Celestan V", "Celestoderm V", "Betnesol V", "Tokuderm", "Betneval", "Dermosol", "Hormezon", "Ecoval 70", "Dermovaleas", "Bettamousse", "Fuciderm", "9\u03b1-Fluoro-16\u03b2-methylprednisolone 17-valerate", "MeSH ID: D001624"], "SMILES": "CC12C(OC(CCCC)=O)(C(CO)=O)C(C)CC1C3C(F)(C(O)C2)C4(C)C(CC3)=CC(=O)C=C4", "physical_data": {"Molecular Weight": "476.58", "Molecular Formula": "C27H37FO6", "Melting Point": "183-184 \u00b0C"}}