{"cas_no": "21535-47-7", "cn_name": "\u76d0\u9178\u7c73\u5b89\u8272\u6797", "en_name": ["Mianserin hydrochloride", "Dibenzo[c,f]pyrazino[1,2-a]azepine, 1,2,3,4,10,14b-hexahydro-2-methyl-, hydrochloride (1:1)", "Dibenzo[c,f]pyrazino[1,2-a]azepine, 1,2,3,4,10,14b-hexahydro-2-methyl-, monohydrochloride", "Mianserin hydrochloride", "Tolvon", "GB 94", "Mianserine hydrochloride", "Org GB 94", "Toluon", "Bolvidon", "Athymil", "Tetramide", "Tolvin", "Lantanon", "Norval", "NSC 292267", "2-Methyl-1,2,3,4,10,14b-hexahydrodibenzo[c,f]pyrazino[1,2-a]azepine hydrochloride"], "SMILES": "CN1CC2N(C=3C(CC=4C2=CC=CC4)=CC=CC3)CC1.Cl", "physical_data": {"Molecular Weight": "", "Molecular Formula": "C18H20N2.ClH", "Melting Point": "282-284 \u00b0C"}}