{"cas_no": "215303-72-3", "cn_name": "4-(4-\u6c1f\u82ef\u57fa)-2-(4-\u7f9f\u57fa-1-\u4e01\u7094)-1-(3-\u82ef\u57fa\u4e19\u57fa)-5-(4-\u5421\u5576\u57fa)\u54aa\u5511", "en_name": ["4-[4-(4-Fluorophenyl)-1-(3-phenylpropyl)-5-(4-pyridinyl)-1H-imidazol-2-yl]-3-butyn-1-ol", "3-Butyn-1-ol, 4-[4-(4-fluorophenyl)-1-(3-phenylpropyl)-5-(4-pyridinyl)-1H-imidazol-2-yl]-", "4-[4-(4-Fluorophenyl)-1-(3-phenylpropyl)-5-(4-pyridinyl)-1H-imidazol-2-yl]-3-butyn-1-ol", "RWJ 67657", "4-(4-Fluorophenyl)-2-(4-hydroxy-1-butynyl)-1-(3-Phenylpropyl)-5-(4-Pyridyl)imidazole", "JNJ 3026582"], "SMILES": "C(CCC1=CC=CC=C1)N2C(=C(N=C2C#CCCO)C3=CC=C(F)C=C3)C=4C=CN=CC4", "physical_data": {"Molecular Weight": "425.50", "Molecular Formula": "C27H24FN3O", "Melting Point": "124 \u00b0C"}}