{"cas_no": "21535-97-7", "cn_name": "3-\u7532\u57fa\u82ef\u5e76\u544b\u5583", "en_name": ["3-Methylbenzofuran", "Benzofuran, 3-methyl-", "3-Methylbenzofuran", "3-Methylbenzo[b]furan", "3-Methyl-1-benzofuran"], "SMILES": "CC=1C=2C(=CC=CC2)OC1", "physical_data": {"Molecular Weight": "132.16", "Molecular Formula": "C9H8O", "Boiling Point": "197 \u00b0C", "Density": "1.0568 g/cm\u00b3 @ Temp: 25 \u00b0C"}}