{"cas_no": "21535-44-4", "cn_name": "6-\u6c2f\u7532\u57fa\u5417\u5429\u70f7\u5576", "en_name": ["6-(Chloromethyl)-11H-dibenz[b,e]azepine", "11H-Dibenz[b,e]azepine, 6-(chloromethyl)-", "Morphanthridine, 6-(chloromethyl)-", "6-(Chloromethyl)-11H-dibenz[b,e]azepine", "6-Chloromethylmorphanthridine"], "SMILES": "C(Cl)C=1C=2C(CC=3C(N1)=CC=CC3)=CC=CC2", "physical_data": {"Molecular Weight": "241.72", "Molecular Formula": "C15H12ClN", "Melting Point": "136-137 \u00b0C"}}