{"cas_no": "21539-53-7", "cn_name": "3-\u53d4\u4e01\u80fa\u57fa\u4e19\u8148", "en_name": ["3-[(1,1-Dimethylethyl)amino]propanenitrile", "Propanenitrile, 3-[(1,1-dimethylethyl)amino]-", "Propionitrile, 3-(tert-butylamino)-", "3-[(1,1-Dimethylethyl)amino]propanenitrile", "3-(tert-Butylamino)propionitrile", "3-[(tert-Butyl)amino]propanenitrile", "N-tert-Butylcyanoethylamine"], "SMILES": "N(C(C)(C)C)CCC#N", "physical_data": {"Molecular Weight": "126.20", "Molecular Formula": "C7H14N2", "Boiling Point": "50-52 \u00b0C @ Press: 1 Torr"}}