{"cas_no": "215309-01-6", "cn_name": "3-(4-\u7532\u57fa-1-\u54cc\u55ea)\u82ef\u7532\u9178", "en_name": ["3-(4-Methyl-1-piperazinyl)benzoic acid", "Benzoic acid, 3-(4-methyl-1-piperazinyl)-", "3-(4-Methyl-1-piperazinyl)benzoic acid", "3-(4-Methylpiperazin-1-yl)benzoic acid"], "SMILES": "C(O)(=O)C=1C=C(C=CC1)N2CCN(C)CC2", "physical_data": {"Molecular Weight": "220.27", "Molecular Formula": "C12H16N2O2", "Melting Point": "220 \u00b0C (decomp)"}}