{"cas_no": "21535-43-3", "cn_name": "N-[2-(\u82ef\u57fa\u7532\u57fa)\u82ef\u57fa]-2-\u6c2f\u4e59\u9170\u80fa", "en_name": ["2-Chloro-N-[2-(phenylmethyl)phenyl]acetamide", "Acetamide, 2-chloro-N-[2-(phenylmethyl)phenyl]-", "o-Acetotoluidide, 2-chloro-\u03b1-phenyl-", "2-Chloro-N-[2-(phenylmethyl)phenyl]acetamide"], "SMILES": "C(C1=C(NC(CCl)=O)C=CC=C1)C2=CC=CC=C2", "physical_data": {"Molecular Weight": "259.73", "Molecular Formula": "C15H14ClNO", "Melting Point": "113-114 \u00b0C"}}