{"cas_no": "21548-73-2", "cn_name": "\u786b\u5316\u94f6", "en_name": ["Silver sulfide (Ag2S)", "Silver sulfide (Ag2S)", "Silver sulfide", "Disilver sulfide", "Disilver monosulfide", "Silver(1+) sulfide", "Argentous sulfide"], "SMILES": "S([Ag])[Ag]", "physical_data": {"Molecular Weight": "", "Molecular Formula": "Ag2S", "Melting Point": "837 \u00b0C"}}