{"cas_no": "21542-96-1", "cn_name": "\u4e8c\u7532\u57fa\u5c71\u5d5b\u80fa", "en_name": ["Dimethylbehenylamine", "1-Docosanamine, N,N-dimethyl-", "Docosylamine, N,N-dimethyl-", "N,N-Dimethyl-1-docosanamine", "N,N-Dimethyldocosylamine", "N-Docosyldimethylamine", "DM 22D", "Armeen DM 22D", "Dimethylbehenylamine", "Farmin DM 2298", "Farmin DM 2285", "Dimethyldocosylamine", "Behenyldimethylamine"], "SMILES": "C(CCCCCCCCCCCCCC)CCCCCCCN(C)C", "physical_data": {"Molecular Weight": "353.67", "Molecular Formula": "C24H51N", "Boiling Point": "190 \u00b0C @ Press: 0.1 Torr", "Melting Point": "41 \u00b0C"}}