{"cas_no": "2154-68-9", "cn_name": "3-\u7fa7\u57fa-2,2,5,5-\u56db\u7532\u57fa\u5421\u54af\u70f7 1-\u6c27", "en_name": ["3-Carboxy-2,2,5,5-tetramethyl-1-pyrrolidinyloxy", "1-Pyrrolidinyloxy, 3-carboxy-2,2,5,5-tetramethyl-", "3-Carboxy-2,2,5,5-tetramethyl-1-pyrrolidinyloxy", "2,2,5,5-Tetramethyl-3-carboxypyrrolidinooxy", "3-Carboxy-2,2,5,5-tetramethylpyrrolidinyloxyl", "2,2,5,5-Tetramethyl-3-carboxypyrrolidine-N-oxyl", "3-Carboxy-2,2,5,5-tetramethylpyrrolidine-1-oxyl", "PCA", "2,2,5,5-Tetramethylpyrrolidine-1-oxyl-3-carboxylic acid", "PCA (radical)", "T 517", "2,2,5,5-Tetramethylpiperidine-1-oxyl-3-carboxylic acid", "DL-3-Carboxy-2,2,5,5-tetramethyl-1-pyrrolidinyloxyl", "3-Carboxy-2,2,5,5-tetramethylpyrrolidinyloxy", "NSC 158842", "3-Carboxy-2,2,5,5-tetramethylpyrrolidin-1-oxy", "3-Carboxy-1-oxyl-2,2,5,5-tetramethylpyrrolidine", "3-Carboxyproxyl", "C 1406"], "SMILES": "[O]N1C(C)(C)C(C(O)=O)CC1(C)C", "physical_data": {"Molecular Weight": "", "Molecular Formula": "C9H16NO3", "Melting Point": "193 \u00b0C"}}