{"cas_no": "21544-03-6", "cn_name": "\u56db\u6c22\u90bb\u82ef\u4e8c\u7532\u9178\u4e8c\u7f29\u6c34\u7518\u6cb9\u916f", "en_name": ["Diglycidyl tetrahydrophthalate", "4-Cyclohexene-1,2-dicarboxylic acid, 1,2-bis(2-oxiranylmethyl) ester", "4-Cyclohexene-1,2-dicarboxylic acid, bis(2,3-epoxypropyl) ester", "4-Cyclohexene-1,2-dicarboxylic acid, bis(oxiranylmethyl) ester", "1-Propanol, 2,3-epoxy-, 4-cyclohexene-1,2-dicarboxylate (2:1)", "\u03944-Tetrahydrophthalic acid diglycidyl ester", "Diglycidyl \u03944-tetrahydrophthalate", "Diglycidyl tetrahydrophthalate", "Tetrahydrophthalic acid diglycidyl ester", "Diglycidyl 4-cyclohexene-1,2-dicarboxylate", "Diglycidyl 1,2,3,6-tetrahydrophthalate"], "SMILES": "C(OCC1CO1)(=O)C2C(C(OCC3CO3)=O)CC=CC2", "physical_data": {"Molecular Weight": "282.29", "Molecular Formula": "C14H18O6", "Boiling Point": "200-202 \u00b0C @ Press: 5 Torr", "Density": "1.1545 g/cm\u00b3 @ Temp: 20 \u00b0C"}}