{"cas_no": "2154-67-8", "cn_name": "2,2,5,5-\u56db\u7532\u57fa-3-\u5421\u54af\u5549-1-\u6c27\u57fa-3-\u7532\u9178", "en_name": ["3-Carboxy-2,2,5,5-tetramethylpyrroline-1-oxyl", "1H-Pyrrol-1-yloxy, 3-carboxy-2,5-dihydro-2,2,5,5-tetramethyl-", "3-Pyrrolin-1-yloxy, 3-carboxy-2,2,5,5-tetramethyl-", "3-Carboxy-2,5-dihydro-2,2,5,5-tetramethyl-1H-pyrrol-1-yloxy", "2,2,5,5-Tetramethyl-3-pyrroline-1-oxyl-3-carboxylic acid", "3-Carboxy-2,2,5,5-tetramethylpyrroline-1-oxyl", "3-Carboxy-2,2,5,5-tetramethyl-3-pyrroline-1-oxyl", "3-Carboxy-2,2,5,5-tetramethyl-1-pyrrolinyloxyl", "PCAOL", "2,2,5,5-Tetramethyl-3-carboxy-3-pyrroline-1-oxyl", "2,2,5,5-Tetramethylpyrroline-1-oxyl-3-carboxylic acid", "2,2,5,5-Tetramethyl-1-oxypyrroline-3-carboxylic acid", "1-Oxyl-2,2,5,5-tetramethylpyrroline-3-carboxylic acid", "2,2,5,5-Tetramethylpyrrolin-1-oxyl-3-carboxylic acid", "2,2,5,5-Tetramethyl-3-pirrolinyl-1-oxy-3-carboxylic acid"], "SMILES": "[O]N1C(C)(C)C(C(O)=O)=CC1(C)C", "physical_data": {"Molecular Weight": "", "Molecular Formula": "C9H14NO3", "Melting Point": "210-211 \u00b0C"}}