{"cas_no": "2155-96-6", "cn_name": "\u4e59\u70ef\u57fa\u4e8c\u82ef\u57fa\u81a6", "en_name": ["Diphenylvinylphosphine", "Phosphine, ethenyldiphenyl-", "Phosphine, diphenylvinyl-", "Ethenyldiphenylphosphine", "Diphenylvinylphosphine", "Vinyldiphenylphosphine", "NSC 151257"], "SMILES": "P(C=C)(C1=CC=CC=C1)C2=CC=CC=C2", "physical_data": {"Molecular Weight": "212.23", "Molecular Formula": "C14H13P", "Boiling Point": "104 \u00b0C @ Press: 0.25 Torr", "Melting Point": "70.5-71.5 \u00b0C"}}