{"cas_no": "2155-60-4", "cn_name": "\u4e9a\u7532\u57fa\u4e01\u4e8c\u9178\u4e8c\u4e01\u916f", "en_name": ["Dibutyl itaconate", "Butanedioic acid, 2-methylene-, 1,4-dibutyl ester", "Succinic acid, methylene-, dibutyl ester", "Butanedioic acid, methylene-, dibutyl ester", "Itaconic acid, dibutyl ester", "Dibutyl itaconate", "Di(n-butyl) itaconate", "NSC 5251", "NSC 8487"], "SMILES": "C(C(OCCCC)=O)(CC(OCCCC)=O)=C", "physical_data": {"Molecular Weight": "242.31", "Molecular Formula": "C13H22O4", "Boiling Point": "135-136 \u00b0C @ Press: 10 Torr", "Density": "0.9865 g/cm\u00b3 @ Temp: 20 \u00b0C"}}