{"cas_no": "21553-46-8", "cn_name": "3,5-\u4e8c\u7532\u57fa-4-\u7532\u6c27\u57fa\u82ef\u7532\u9178", "en_name": ["4-Methoxy-3,5-dimethylbenzoic acid", "Benzoic acid, 4-methoxy-3,5-dimethyl-", "p-Anisic acid, 3,5-dimethyl-", "4-Methoxy-3,5-dimethylbenzoic acid", "3,5-Dimethyl-4-methoxybenzoic acid", "3,5-Dimethyl-p-anisic acid"], "SMILES": "O(C)C1=C(C)C=C(C(O)=O)C=C1C", "physical_data": {"Molecular Weight": "180.20", "Molecular Formula": "C10H12O3", "Melting Point": "192-193 \u00b0C"}}