{"cas_no": "2155-94-4", "cn_name": "\u4e8c\u7532\u57fa\u70ef\u4e19\u57fa\u80fa", "en_name": ["N,N-Dimethylallylamine", "2-Propen-1-amine, N,N-dimethyl-", "Allylamine, N,N-dimethyl-", "N,N-Dimethyl-2-propen-1-amine", "Dimethylallylamine", "N,N-Dimethylallylamine", "Allyldimethylamine", "N-Allyl-N,N-dimethylamine", "N,N-Dimethyl-2-propenylamine", "NSC 32615", "3-(Dimethylamino)-1-propene", "AC 407980050"], "SMILES": "C(N(C)C)C=C", "physical_data": {"Molecular Weight": "85.15", "Molecular Formula": "C5H11N", "Boiling Point": "64 \u00b0C", "Melting Point": "59-63 \u00b0C", "Density": "0.7094 g/cm\u00b3 @ Temp: 25 \u00b0C"}}