{"cas_no": "2155-74-0", "cn_name": "\u4e01\u6c27\u57fa\u9511", "en_name": ["1-Butanol, antimony(3+) salt (3:1)", "1-Butanol, antimony(3+) salt (3:1)", "Antimonic acid (H3SbO3), tributyl ester", "1-Butanol, antimony(3+) salt", "Butyl antimonate(III)", "Tributoxyantimony", "Antimony tributoxide", "Tributoxystibine", "Tributylantimonite", "Antimony butoxide", "Alcofine SB 40", "Antimony(III) butoxide", "Butyl antimonite ((BuO)3Sb)"], "SMILES": "C(CC)CO.[Sb]", "physical_data": {"Molecular Weight": "", "Molecular Formula": "C4H10O.<sup>1</sup>/3Sb", "Boiling Point": "138.5-139.5 \u00b0C @ Press: 5.5 Torr", "Density": "1.2804 g/cm\u00b3 @ Temp: 20 \u00b0C"}}