{"cas_no": "2156-97-0", "cn_name": "2-\u4e19\u70ef\u9178\u5341\u4e8c\u70f7\u57fa\u916f", "en_name": ["Lauryl acrylate", "2-Propenoic acid, dodecyl ester", "Acrylic acid, dodecyl ester", "Lauryl acrylate", "Dodecyl acrylate", "n-Dodecyl acrylate", "Ageflex FA 12", "NK Ester LA", "SR 335", "KU-LA", "Sartomer 335", "Light Acrylate L-A", "Viscoat LA", "NSC 24177", "Photomer 4812", "SR 498D", "Blemmer LA", "LA", "4812/75F", "Miramer 120", "C 12A", "Sarbio 5101", "FA 112A", "EM 215", "LA 001", "LAI 214", "Light Acrylate L", "Sartomer SR 335", "Blemmer L", "D 4129", "M 122 (acrylate)", "M 122"], "SMILES": "C(COC(C=C)=O)CCCCCCCCCC", "physical_data": {"Molecular Weight": "240.38", "Molecular Formula": "C15H28O2", "Boiling Point": "170-185 \u00b0C @ Press: 21 Torr", "Melting Point": "4 \u00b0C", "Density": "0.8727 g/cm\u00b3 @ Temp: 20 \u00b0C"}}