{"cas_no": "2156-96-9", "cn_name": "\u4e19\u70ef\u9178\u7678\u916f", "en_name": ["Decyl acrylate", "2-Propenoic acid, decyl ester", "Acrylic acid, decyl ester", "Decyl acrylate", "NSC 5929", "n-Decyl acrylate"], "SMILES": "C(COC(C=C)=O)CCCCCCCC", "physical_data": {"Molecular Weight": "212.33", "Molecular Formula": "C13H24O2", "Boiling Point": "158 \u00b0C @ Press: 50 Torr", "Density": "0.8781 g/cm\u00b3 @ Temp: 20 \u00b0C"}}