{"cas_no": "2156-29-8", "cn_name": "2-[4-(\u4e8c\u7532\u57fa\u6c28\u57fa)\u82ef\u4e59\u70ef\u57fa]-1-\u7532\u57fa\u5421\u5576\u7898\u5316\u7269", "en_name": ["Pyridinium, 2-[2-[4-(dimethylamino)phenyl]ethenyl]-1-methyl-, iodide (1:1)", "Pyridinium, 2-[2-[4-(dimethylamino)phenyl]ethenyl]-1-methyl-, iodide (1:1)", "Pyridinium, 2-[p-(dimethylamino)styryl]-1-methyl-, iodide", "Pyridinium, 2-[2-[4-(dimethylamino)phenyl]ethenyl]-1-methyl-, iodide", "2-[p-(Dimethylamino)styryl]-1-methylpyridinium iodide", "\u03c9-(N\u2032-Methylpyridyl-2\u2032)-4-dimethylaminostyrene iodide", "2-[4-(Dimethylamino)styryl]-1-methylpyridinium iodide", "2-[p-(Dimethylamino)styryl]pyridine methiodide", "D 308 (dye)", "D 308", "DASPI", "DASPMI", "2-Di-1-ASP", "o-DASPMI"], "SMILES": "C(=CC=1[N+](C)=CC=CC1)C2=CC=C(N(C)C)C=C2.[I-]", "physical_data": {"Molecular Weight": "", "Molecular Formula": "C16H19N2.I", "Melting Point": "275 \u00b0C"}}