{"cas_no": "21564-17-0", "cn_name": "2-(\u786b\u6c30\u9178\u7532\u57fa\u5def\u57fa)\u82ef\u5e76\u567b\u5511", "en_name": ["2-(Thiocyanomethylthio)benzothiazole", "Thiocyanic acid, (2-benzothiazolylthio)methyl ester", "2-[(Thiocyanatomethyl)thio]benzothiazole", "Busan 72", "2-(Thiocyanomethylthio)benzothiazole", "Busan 15", "TCMTB", "Busan 72A", "KVK 733059", "Busan 30I", "Busan 30-1", "Busan 30", "Ichiban", "Busan 70", "Alentisan", "Busan 71", "Busan 30A", "Benthiazole", "Superdavloxan", "Busan 1030", "Sancelant TMB", "2-(Thiocyanatomethylthio)benzo[d]thiazole", "Delsan 30", "Busan 80", "Busan 30L", "Nusan", "Busan 1118", "Busan 30WBA", "BN 30", "Bulab 6009", "Afrotin CRO", "Busan 30WB", "Ascend", "Nu-flow T", "Guzafan", "Argent 30", "Argent", "Tolcide 2230", "2-(Thiocyanatomethylthio)-1,3-benzothiazole", "Fungicide FDE", "Acticide WB 300", "(2-Benzothiazolylthio)methyl thiocyanate", "2-(Thiocyanomethylthio)benzthiazole"], "SMILES": "S(CSC#N)C1=NC=2C(S1)=CC=CC2", "physical_data": {"Molecular Weight": "238.35", "Molecular Formula": "C9H6N2S3", "Boiling Point": "&gt;120 \u00b0C", "Melting Point": "&lt;-10 \u00b0C", "Density": "1.4 g/cm\u00b3"}}