{"cas_no": "2156-27-6", "cn_name": "\u82ef\u4e19\u54cc\u6797", "en_name": ["Benproperine", "Piperidine, 1-[1-methyl-2-[2-(phenylmethyl)phenoxy]ethyl]-", "Piperidine, 1-[1-methyl-2-[(\u03b1-phenyl-o-tolyl)oxy]ethyl]-", "1-[1-Methyl-2-[2-(phenylmethyl)phenoxy]ethyl]piperidine", "1-[2-(2-Benzylphenoxy)-1-methylethyl]piperidine", "Benproperine"], "SMILES": "C(C1=C(OCC(C)N2CCCCC2)C=CC=C1)C3=CC=CC=C3", "physical_data": {"Molecular Weight": "309.45", "Molecular Formula": "C21H27NO", "Boiling Point": "159-161 \u00b0C @ Press: 0.2 Torr"}}