{"cas_no": "2157-45-1", "cn_name": "\u56db(2-\u7532\u6c27\u57fa\u4e59\u6c27\u57fa)\u7845\u70f7", "en_name": ["Silicic acid (H4SiO4) tetrakis(2-methoxyethyl) ester", "Silicic acid (H4SiO4), tetrakis(2-methoxyethyl) ester", "Ethanol, 2-methoxy-, tetraester with silicic acid (H4SiO4)", "Ethanol, 2-methoxy-, silicate", "Silicic acid (H4SiO4) tetrakis(2-methoxyethyl) ester", "Tetra(methoxyethoxy)silane", "Tetrakis(2-methoxyethoxy)silane", "Tetrakis(\u03b2-methoxyethyl) silicate", "Tetrakis(2-methoxyethyl) silicate", "Tetra(\u03b2-methoxyethyl) orthosilicate", "Tetrakis(methoxyethoxy)silane", "NSC 252165", "Tetra(2-methoxyethoxy)silane"], "SMILES": "[Si](OCCOC)(OCCOC)(OCCOC)OCCOC", "physical_data": {"Molecular Weight": "328.43", "Molecular Formula": "C12H28O8Si", "Boiling Point": "179-182 \u00b0C @ Press: 10 Torr", "Density": "1.079 g/cm\u00b3"}}