{"cas_no": "2157-52-0", "cn_name": "9-\u82b4\u916e\u809f", "en_name": ["Fluorenone oxime", "9H-Fluoren-9-one, oxime", "Fluoren-9-one, oxime", "Fluorenone oxime", "9-Oximinofluorene", "NSC 1988"], "SMILES": "N(O)=C1C=2C(C=3C1=CC=CC3)=CC=CC2", "physical_data": {"Molecular Weight": "195.22", "Molecular Formula": "C13H9NO", "Melting Point": "194 \u00b0C"}}