{"cas_no": "2157-19-9", "cn_name": "\u786b\u4e39\u9187", "en_name": ["Endodiol", "Bicyclo[2.2.1]hept-5-ene-2,3-dimethanol, 1,4,5,6,7,7-hexachloro-", "5-Norbornene-2,3-dimethanol, 1,4,5,6,7,7-hexachloro-", "1,4,5,6,7,7-Hexachlorobicyclo[2.2.1]hept-5-ene-2,3-dimethanol", "Thiodandiol", "1,4,5,6,7,7-Hexachloro-2,3-bis(hydroxymethyl)-5-norbornene", "Endosulfan alcohol", "1,4,5,6,7,7-Hexachloro-5-norbornene-2,3-dimethanol", "Chlorendic diol", "Endosulfandiol", "Endodiol", "NSC 11682", "NSC 41892"], "SMILES": "ClC12C(Cl)(Cl)C(Cl)(C(CO)C1CO)C(Cl)=C2Cl", "physical_data": {"Molecular Weight": "360.88", "Molecular Formula": "C9H8Cl6O2", "Melting Point": "199 \u00b0C"}}