{"cas_no": "2157-56-4", "cn_name": "2\uff0c4-\u620a\u786b\u9187\u4e8c\u6c27(\u6742)\u8291", "en_name": ["2,4-Pentanedione, 2,4-dioxime", "2,4-Pentanedione, 2,4-dioxime", "2,4-Pentanedione, dioxime", "2,4-Pentanedione oxime", "Acetylacetone dioxime", "2,4-Pentanedioxime", "NSC 1843"], "SMILES": "C(C(=NO)C)C(=NO)C", "physical_data": {"Molecular Weight": "130.15", "Molecular Formula": "C5H10N2O2", "Melting Point": "149-150 \u00b0C"}}