{"cas_no": "2157-39-3", "cn_name": "3,5-\u4e8c\u7fa7\u57fa\u6c2f\u82ef", "en_name": ["5-Chloro-1,3-benzenedicarboxylic acid", "1,3-Benzenedicarboxylic acid, 5-chloro-", "Isophthalic acid, 5-chloro-", "5-Chloro-1,3-benzenedicarboxylic acid", "5-Chloroisophthalic acid", "3-Carboxy-5-chlorobenzoic acid"], "SMILES": "C(O)(=O)C1=CC(C(O)=O)=CC(Cl)=C1", "physical_data": {"Molecular Weight": "200.58", "Molecular Formula": "C8H5ClO4", "Melting Point": "279-280 \u00b0C"}}