{"cas_no": "2158-08-9", "cn_name": "n-\u5341\u516b\u70f7\u57fa\u8132", "en_name": ["N-Octadecylurea", "Urea, N-octadecyl-", "Urea, octadecyl-", "N-Octadecylurea", "Octadecylurea", "N-Stearylurea", "Stearylurea", "NSC 16075"], "SMILES": "C(CCCCCCCCCCCC)CCCCCNC(N)=O", "physical_data": {"Molecular Weight": "312.53", "Molecular Formula": "C19H40N2O", "Melting Point": "101 \u00b0C"}}