{"cas_no": "21586-90-3", "cn_name": "\u9e26\u80c6\u5b50\u7d20E", "en_name": ["(1\u03b2,2\u03b1,11\u03b2,12\u03b1,15\u03b2)-13,20-Epoxy-1,2,11,12,14,15-hexahydroxypicras-3-en-16-one", "Picras-3-en-16-one, 13,20-epoxy-1,2,11,12,14,15-hexahydroxy-, (1\u03b2,2\u03b1,11\u03b2,12\u03b1,15\u03b2)-", "5H-3,11c\u03b2-(Epoxymethano)phenanthro[10,1-bc]pyran-5-one, 1,2,3,3a,4,6a\u03b2,7,7a\u03b1,10,11,11a,11b\u03b1-dodecahydro-1\u03b2,2\u03b1,3a\u03b2,4\u03b2,10\u03b1,11\u03b2-hexahydroxy-3\u03b1,8,11a\u03b2-trimethyl-, (+)-", "(1\u03b2,2\u03b1,11\u03b2,12\u03b1,15\u03b2)-13,20-Epoxy-1,2,11,12,14,15-hexahydroxypicras-3-en-16-one", "Bruceine E", "WST 63", "Brucein E", "2-O-Demethylbruceine M", "20-Deoxybruceine F"], "SMILES": "OC12C34C(C5(C)C(CC3OC(=O)C1O)C(C)=CC(O)C5O)C(O)C(O)C2(C)OC4", "physical_data": {"Molecular Weight": "412.43", "Molecular Formula": "C20H28O9", "Melting Point": "260-264 \u00b0C"}}