{"cas_no": "2158-14-7", "cn_name": "4-\u4e59\u9170\u6c28\u57fa\u82ef\u78fa\u9170\u53e0\u6c2e", "en_name": ["4-Acetamidobenzenesulfonyl azide", "Benzenesulfonyl azide, 4-(acetylamino)-", "Sulfanilyl azide, N-acetyl-", "4-(Acetylamino)benzenesulfonyl azide", "p-Acetamidobenzenesulfonyl azide", "4-Acetamidobenzenesulfonyl azide", "4-Acetamidophenylsulfonyl azide", "NSC 82543", "N-(4-Azidosulfonylphenyl)acetamide", "p-ABSA", "4-Acetamidobenzene-1-sulfonyl azide"], "SMILES": "S(N=[N+]=[N-])(=O)(=O)C1=CC=C(NC(C)=O)C=C1", "physical_data": {"Molecular Weight": "", "Molecular Formula": "C8H8N4O3S", "Melting Point": "107 \u00b0C"}}