{"cas_no": "215874-86-5", "cn_name": "3-(5-\u7532\u57fa-3-\u5f02\u5641\u5511\u57fa)-6-[(1-\u7532\u57fa-1H-1,2,3-\u4e09\u6c2e\u5511-4-\u57fa)\u7532\u6c27\u57fa][1,2,4]\u4e09\u6c2e\u5511\u5e76[3,4-A]\u915e\u55ea", "en_name": ["\u03b1 5IA", "1,2,4-Triazolo[3,4-a]phthalazine, 3-(5-methyl-3-isoxazolyl)-6-[(1-methyl-1H-1,2,3-triazol-4-yl)methoxy]-", "3-(5-Methyl-3-isoxazolyl)-6-[(1-methyl-1H-1,2,3-triazol-4-yl)methoxy]-1,2,4-triazolo[3,4-a]phthalazine", "\u03b1 5IA"], "SMILES": "O(CC=1N=NN(C)C1)C2=NN3C(C=4C2=CC=CC4)=NN=C3C5=NOC(C)=C5", "physical_data": {"Molecular Weight": "362.35", "Molecular Formula": "C17H14N8O2", "Melting Point": "260-262 \u00b0C"}}