{"cas_no": "215923-54-9", "cn_name": "\u82ef\u5e76\u4e8c\u6c27\u516d\u73af-6-(1-\u54cc\u5576\u57fa)\u7532\u9170\u80fa", "en_name": ["(2,3-Dihydro-1,4-benzodioxin-6-yl)-1-piperidinylmethanone", "Methanone, (2,3-dihydro-1,4-benzodioxin-6-yl)-1-piperidinyl-", "Piperidine, 1-[(2,3-dihydro-1,4-benzodioxin-6-yl)carbonyl]-", "(2,3-Dihydro-1,4-benzodioxin-6-yl)-1-piperidinylmethanone", "CX 546", "BDP 17", "GR 87", "1-(2,3-Dihydro-1,4-benzodioxin-6-ylcarbonyl)piperidine", "1-(2,3-Dihydro-1,4-benzodioxine-6-carbonyl)piperidine"], "SMILES": "C(=O)(C=1C=C2C(=CC1)OCCO2)N3CCCCC3", "physical_data": {"Molecular Weight": "247.29", "Molecular Formula": "C14H17NO3", "Melting Point": "60-62 \u00b0C"}}