{"cas_no": "21594-52-5", "cn_name": "6-\u6eb4-3H-\u6076\u5511\u5e76[4,5-B]\u5421\u5576-2-\u916e", "en_name": ["6-Bromo-3H-oxazolo[4,5-b]pyridin-2-one", "Oxazolo[4,5-b]pyridin-2(3H)-one, 6-bromo-", "6-Bromooxazolo[4,5-b]pyridin-2(3H)-one", "6-Bromo-3H-oxazolo[4,5-b]pyridin-2-one"], "SMILES": "O=C1NC=2C(O1)=CC(Br)=CN2", "physical_data": {"Molecular Weight": "215.00", "Molecular Formula": "C6H3BrN2O2", "Melting Point": "233-235 \u00b0C"}}