{"cas_no": "21593-77-1", "cn_name": "S-\u70ef\u4e19\u57fa-L-\u534a\u80f1\u6c28\u9178", "en_name": ["(+)-S-Allylcysteine", "L-Cysteine, S-2-propen-1-yl-", "Alanine, 3-(allylthio)-, L-", "L-Cysteine, S-2-propenyl-", "Alanine, 3-(allylthio)-", "S-2-Propen-1-yl-L-cysteine", "S-Allyl-L-cysteine", "3-(Allylthio)-L-alanine", "S-Allylcysteine", "S-2-Propenylcysteine", "S-(2-Propenyl)-L-cysteine", "Deoxyalliin", "(+)-S-Allylcysteine", "NSC 96449", "PMK-S 005", "(2R)-2-Amino-3-(prop-2-en-1-ylsulfanyl)propanoic acid", "(2R)-2-Azaniumyl-3-prop-2-enylsulfanylpropanoate", "S-1-Propenylmercaptocysteine"], "SMILES": "C(CSCC=C)(C(O)=O)N", "physical_data": {"Molecular Weight": "161.22", "Molecular Formula": "C6H11NO2S", "Melting Point": "218-219 \u00b0C"}}