{"cas_no": "21598-06-1", "cn_name": "5-\u7f9f\u57fa\u5432\u54da-2-\u7532\u9178", "en_name": ["5-Hydroxyindole-2-carboxylic acid", "1H-Indole-2-carboxylic acid, 5-hydroxy-", "Indole-2-carboxylic acid, 5-hydroxy-", "5-Hydroxy-1H-indole-2-carboxylic acid", "5-Hydroxyindole-2-carboxylic acid", "NSC 117338"], "SMILES": "C(O)(=O)C=1NC=2C(C1)=CC(O)=CC2", "physical_data": {"Molecular Weight": "177.16", "Molecular Formula": "C9H7NO3", "Melting Point": "246 \u00b0C (decomp)"}}