{"cas_no": "2159-42-4", "cn_name": "3',4'-\u4e8c\u7532\u57fa\u4e8c\u82ef\u7532\u916e-2-\u7532\u9178", "en_name": ["2-(3,4-Dimethylbenzoyl)benzoic acid", "Benzoic acid, 2-(3,4-dimethylbenzoyl)-", "Benzoic acid, o-(3,4-dimethylbenzoyl)-", "2-(3,4-Dimethylbenzoyl)benzoic acid", "NSC 201577"], "SMILES": "C(=O)(C1=C(C(O)=O)C=CC=C1)C2=CC(C)=C(C)C=C2", "physical_data": {"Molecular Weight": "254.28", "Molecular Formula": "C16H14O3", "Melting Point": "192 \u00b0C"}}