{"cas_no": "21608-06-0", "cn_name": "N-\u4e59\u57fa-N-\u82ef\u57fa-\u0392-\u4e19\u6c28\u9178\u7532\u916f", "en_name": ["N-Ethyl-N-phenyl-\u03b2-alanine methyl ester", "\u03b2-Alanine, N-ethyl-N-phenyl-, methyl ester", "N-Ethyl-N-phenyl-\u03b2-alanine methyl ester", "N-Ethyl-N-\u03b2-methoxycarbonylethylaniline", "N-\u03b2-Carbomethoxyethyl-N-ethylaminobenzene", "N-Ethyl-N-2-(methoxycarbonyl)ethylaniline"], "SMILES": "N(CCC(OC)=O)(CC)C1=CC=CC=C1", "physical_data": {"Molecular Weight": "207.27", "Molecular Formula": "C12H17NO2", "Boiling Point": "122-126 \u00b0C @ Press: 3 Torr"}}