{"cas_no": "2160-93-2", "cn_name": "\u53d4\u4e01\u57fa\u4e8c\u4e59\u9187\u80fa", "en_name": ["tert-Butyldiethanolamine", "Ethanol, 2,2\u2032-[(1,1-dimethylethyl)imino]bis-", "Ethanol, 2,2\u2032-(tert-butylimino)di-", "2,2\u2032-[(1,1-Dimethylethyl)imino]bis[ethanol]", "3-tert-Butyl-3-aza-1,5-pentanediol", "tert-Butyldiethanolamine", "2,2\u2032-(tert-Butylimino)diethanol", "N-tert-Butyldiethanolamine", "N-tert-Butyliminodiethanol", "N-tert-Butylbis(2-hydroxyethyl)amine", "N-tert-Butyl-2,2\u2032-iminodiethanol", "tert-Butylbis(2-hydroxyethyl)amine", "N-tert-Butyl-di(2-hydroxyethyl)amine", "NSC 525736", "Amino Alcohol BDEA", "N,N-Bis(2-hydroxyethyl)-tert-butylamine", "t-BuDEA", "2,2\u2032-(tert-Butylazanediyl)diethanol", "2-[tert-Butyl(2-hydroxyethyl)amino]ethanol", "2-[tert-Butyl(2-hydroxyethyl)amino]ethan-1-ol"], "SMILES": "N(C(C)(C)C)(CCO)CCO", "physical_data": {"Molecular Weight": "161.24", "Molecular Formula": "C8H19NO2", "Boiling Point": "136-139 \u00b0C @ Press: 12 Torr", "Melting Point": "189 \u00b0C"}}