{"cas_no": "2160-94-3", "cn_name": "3-\u73af\u5df1\u57fa-1,1-\u4e8c\u7532\u9187", "en_name": ["3-Cyclohexene-1,1-dimethanol", "3-Cyclohexene-1,1-dimethanol", "1,1-Bis(hydroxymethyl)-3-cyclohexene", "4,4-Bis(hydroxymethyl)-1-cyclohexene", "4,4-Bis(hydroxymethyl)cyclohexene", "1-Cyclohexene-4,4-dimethanol", "NSC 112688", "[1-(Hydroxymethyl)cyclohex-3-en-1-yl]methanol"], "SMILES": "C(O)C1(CO)CCC=CC1", "physical_data": {"Molecular Weight": "142.20", "Molecular Formula": "C8H14O2", "Boiling Point": "128 \u00b0C @ Press: 3 Torr", "Melting Point": "92 \u00b0C"}}