{"cas_no": "2160-63-6", "cn_name": "5-\u6eb4\u786b\u4ee3\u82ef-2-\u7532\u919b\u809f", "en_name": ["5-Bromothiophene-2-carboxaldehyde oxime", "2-Thiophenecarboxaldehyde, 5-bromo-, oxime", "BTO", "5-Bromothiophene-2-carboxaldehyde oxime"], "SMILES": "C(=NO)C=1SC(Br)=CC1", "physical_data": {"Molecular Weight": "206.06", "Molecular Formula": "C5H4BrNOS", "Melting Point": "138-139 \u00b0C"}}