{"cas_no": "21606-04-2", "cn_name": "3-\u785d\u57fa-2-\u7fa7\u57fa\u82ef\u7532\u9178\u7532\u916f", "en_name": ["1-Methyl 3-nitro-1,2-benzenedicarboxylate", "1,2-Benzenedicarboxylic acid, 3-nitro-, 1-methyl ester", "Phthalic acid, 3-nitro-, 1-methyl ester", "1-Methyl 3-nitro-1,2-benzenedicarboxylate", "1-Methyl 3-nitrophthalate", "2-Methoxycarbonyl-6-nitrobenzoic acid", "Methyl 2-carboxy-3-nitrobenzoate"], "SMILES": "C(O)(=O)C1=C(C(OC)=O)C=CC=C1N(=O)=O", "physical_data": {"Molecular Weight": "225.15", "Molecular Formula": "C9H7NO6", "Melting Point": "166-167 \u00b0C"}}