{"cas_no": "21609-90-5", "cn_name": "\u5bf9\u6eb4\u78f7", "en_name": ["Leptophos", "Phosphonothioic acid, P-phenyl-, O-(4-bromo-2,5-dichlorophenyl) O-methyl ester", "Phosphonothioic acid, phenyl-, O-(4-bromo-2,5-dichlorophenyl) O-methyl ester", "O-(4-Bromo-2,5-dichlorophenyl) O-methyl phenylphosphonothioate", "VCS 506", "Velsicol VCS 506", "Velsicol 506", "Phosvel", "K62-105", "Leptophos", "Fosvel", "NK 711", "Abar", "Oleophosvel", "MBCP", "(\u00b1)-Leptophos", "MeSH ID: D010773"], "SMILES": "P(OC1=C(Cl)C=C(Br)C(Cl)=C1)(OC)(=S)C2=CC=CC=C2", "physical_data": {"Molecular Weight": "412.07", "Molecular Formula": "C13H10BrCl2O2PS", "Melting Point": "70.2-70.6 \u00b0C", "Density": "1.53 g/cm\u00b3 @ Temp: 25 \u00b0C"}}