{"cas_no": "21617-15-2", "cn_name": "7-\u6c2f-2,3-\u4e8c\u6c22\u55b9\u5549-4-\u916e", "en_name": ["7-Chloro-2,3-dihydro-4(1H)-quinolinone", "4(1H)-Quinolinone, 7-chloro-2,3-dihydro-", "4(1H)-Quinolone, 7-chloro-2,3-dihydro-", "7-Chloro-2,3-dihydro-4(1H)-quinolinone", "7-Chloro-1,2,3,4-tetrahydro-4-quinolinone", "7-Chloro-2,3-dihydro-1H-quinolin-4-one", "NSC 147653"], "SMILES": "O=C1C=2C(=CC(Cl)=CC2)NCC1", "physical_data": {"Molecular Weight": "181.62", "Molecular Formula": "C9H8ClNO", "Melting Point": "130-132 \u00b0C"}}