{"cas_no": "2161-85-5", "cn_name": "1,1'-(4,6-\u4e8c\u7f9f\u57fa\u82ef)\u4e8c\u4e59\u916e", "en_name": ["4,6-Diacetylresorcinol", "Ethanone, 1,1\u2032-(4,6-dihydroxy-1,3-phenylene)bis-", "Resorcinol, 4,6-diacetyl-", "1,1\u2032-(4,6-Dihydroxy-1,3-phenylene)bis[ethanone]", "4,6-Diacetyl-1,3-benzenediol", "4,6-Diacetylresorcinol", "Resodiacetophenone", "5\u2032-Acetyl-2\u2032,4\u2032-dihydroxyacetophenone", "2\u2032,4\u2032-Dihydroxy-5\u2032-acetylacetophenone", "1,3-Diacetyl-4,6-dihydroxybenzene", "Resdiacetophenone", "1,5-Diacetyl-2,4-dihydroxybenzene", "1,1\u2032-(4,6-Dihydroxybenzene-1,3-diyl)diethanone", "1-(5-Acetyl-2,4-dihydroxyphenyl)ethanone", "1-(5-Acetyl-2,4-dihydroxyphenyl)ethan-1-one", "1,1\u2032-(4,6-Dihydroxy-1,3-phenylene)diethanone"], "SMILES": "C(C)(=O)C1=CC(C(C)=O)=C(O)C=C1O", "physical_data": {"Molecular Weight": "194.18", "Molecular Formula": "C10H10O4", "Melting Point": "182 \u00b0C"}}