{"cas_no": "21615-34-9", "cn_name": "\u90bb\u7532\u6c27\u57fa\u82ef\u7532\u9170\u6c2f", "en_name": ["2-Methoxybenzoyl chloride", "Benzoyl chloride, 2-methoxy-", "o-Anisoyl chloride", "2-Methoxybenzoyl chloride", "o-Methoxybenzoyl chloride", "2-Anisoyl chloride", "ortho-Anisoyl chloride", "2-Methoxybenzoic acid chloride", "2-(Methyloxy)benzoyl chloride", "2-Methoxybenzene-1-carbonyl chloride"], "SMILES": "O(C)C1=C(C(Cl)=O)C=CC=C1", "physical_data": {"Molecular Weight": "170.59", "Molecular Formula": "C8H7ClO2", "Boiling Point": "128 \u00b0C @ Press: 11 Torr"}}