{"cas_no": "2161-40-2", "cn_name": "2-\u7532\u6c27\u57fa\u5353\u916e", "en_name": ["2-Methoxy-2,4,6-cycloheptatrien-1-one", "2,4,6-Cycloheptatrien-1-one, 2-methoxy-", "2-Methoxy-2,4,6-cycloheptatrien-1-one", "2-Methoxytropone", "2-C-Methoxytropone", "2-Methoxycycloheptatrienone", "\u03b1-Tropolone methyl ether", "\u03b1-Methoxytropone", "Tropolone methyl ether", "2-Methoxy-2,4,6-cycloheptatrienone", "YMN 27", "2-Methoxytropolone"], "SMILES": "O(C)C=1C(=O)C=CC=CC1", "physical_data": {"Molecular Weight": "136.15", "Molecular Formula": "C8H8O2", "Boiling Point": "135-137 \u00b0C @ Press: 4 Torr", "Melting Point": "76 \u00b0C"}}