{"cas_no": "21617-20-9", "cn_name": "6-Chloro-2,3-Dihydroquinolin-4(1H)-One", "en_name": ["6-Chloro-2,3-dihydro-4(1H)-quinolinone", "4(1H)-Quinolinone, 6-chloro-2,3-dihydro-", "4(1H)-Quinolone, 6-chloro-2,3-dihydro-", "6-Chloro-2,3-dihydro-4(1H)-quinolinone", "6-Chloro-2,3-dihydro-4(1H)-quinolone", "6-Chloro-2,3-dihydroquinolin-4(1H)-one"], "SMILES": "O=C1C=2C(=CC=C(Cl)C2)NCC1", "physical_data": {"Molecular Weight": "181.62", "Molecular Formula": "C9H8ClNO", "Melting Point": "112 \u00b0C"}}