{"cas_no": "21617-12-9", "cn_name": "4,8-\u4e8c\u6c2f\u55b9\u5549", "en_name": ["4,8-Dichloroquinoline", "Quinoline, 4,8-dichloro-", "4,8-Dichloroquinoline"], "SMILES": "ClC=1C2=C(C(Cl)=CC=C2)N=CC1", "physical_data": {"Molecular Weight": "198.05", "Molecular Formula": "C9H5Cl2N", "Melting Point": "155-156 \u00b0C"}}