{"cas_no": "2161-86-6", "cn_name": "2,4-\u4e8c\u4e59\u9170\u57fa\u95f4\u82ef\u4e09\u915a", "en_name": ["2,4-Diacetylphloroglucinol", "Ethanone, 1,1\u2032-(2,4,6-trihydroxy-1,3-phenylene)bis-", "Phloroglucinol, diacetyl-", "1,1\u2032-(2,4,6-Trihydroxy-1,3-phenylene)bis[ethanone]", "2,4-Diacetylphloroglucinol", "K2 (pharmaceutical)", "K2", "2,4,6-Trihydroxy-1,3-diacetylbenzene", "5-Acetyl-2,4,6-trihydroxyacetophenone", "2,4-Diacetyl-1,3,5-benzenetriol", "1,3-Diacetyl-2,4,6-trihydroxybenzene", "IPO 15474FS", "1-(3-Acetyl-2,4,6-trihydroxyphenyl)ethanone", "1-(3-Acetyl-2,4,6-trihydroxyphenyl)ethan-1-one"], "SMILES": "OC1=C(C(C)=O)C(O)=CC(O)=C1C(C)=O", "physical_data": {"Molecular Weight": "210.18", "Molecular Formula": "C10H10O5", "Melting Point": "154 \u00b0C"}}