{"cas_no": "21626-70-0", "cn_name": "4-(\u5417\u5549\u78fa\u9170)\u82ef\u80fa", "en_name": ["4-(Morpholinosulfonyl)aniline", "Benzenamine, 4-(4-morpholinylsulfonyl)-", "Morpholine, 4-sulfanilyl-", "Morpholine, 4-[(4-aminophenyl)sulfonyl]-", "4-(4-Morpholinylsulfonyl)benzenamine", "Compound 82/208", "4-(Morpholinosulfonyl)aniline", "4-Aminophenyl morpholino sulfone", "4-(4-Morpholinylsulfonyl)aniline", "3-(Morpholine-4-sulfonyl)phenylamine", "4-((4-Morpholine)sulfonyl)phenylamine", "4-(Morpholin-4-ylsulfonyl)phenylamine", "4-(4-Morpholinesulfonyl)aniline"], "SMILES": "S(=O)(=O)(C1=CC=C(N)C=C1)N2CCOCC2", "physical_data": {"Molecular Weight": "242.29", "Molecular Formula": "C10H14N2O3S", "Melting Point": "217 \u00b0C"}}