{"cas_no": "2162-74-5", "cn_name": "N,N'-\u4e8c(2,6-\u4e8c\u5f02\u4e19\u57fa\u82ef\u57fa)\u78b3\u4e8c\u4e9a\u80fa", "en_name": ["Bis(2,6-diisopropylphenyl)carbodiimide", "Benzenamine, N,N\u2032-methanetetraylbis[2,6-bis(1-methylethyl)-", "Carbodiimide, bis(2,6-diisopropylphenyl)-", "N,N\u2032-Methanetetraylbis[2,6-bis(1-methylethyl)benzenamine]", "N,N\u2032-Bis(2,6-diisopropylphenyl)carbodiimide", "Bis(o,o\u2032-diisopropylphenyl)carbodiimide", "Bis(2,6-diisopropylphenyl)carbodiimide", "Carbo D", "Stabaxol 1", "Stabaxol I", "N,N\u2032-(2,2\u2032,6,6\u2032-Tetraisopropyldiphenyl)carbodiimide", "Raschig 7000", "N,N\u2032-Di-2,6-diisopropylphenylcarbodiimide", "Stabilizer 7000", "Stabilizer 7000F", "Additin RC 8500", "Stabaxol P 1", "EN 160", "Stabaxol I-LF", "Stabaxol EN 160", "DIPC", "2,2\u2032,6,6\u2032-Tetraisopropyldiphenylcarbodiimide", "Hycasyl 1001", "R 7000", "S 7000", "SY 7000", "Zika AH 362", "Stabaxol I-CF", "Staboxol I", "Chinox SA 1", "SA 1", "AW 700", "Austab SW 100", "AHA 98"], "SMILES": "N(=C=NC1=C(C(C)C)C=CC=C1C(C)C)C2=C(C(C)C)C=CC=C2C(C)C", "physical_data": {"Molecular Weight": "362.55", "Molecular Formula": "C25H34N2", "Boiling Point": "152-162 \u00b0C @ Press: 0.05 Torr", "Melting Point": "47-49.5 \u00b0C"}}