{"cas_no": "2162-99-4", "cn_name": "1,8-\u4e8c\u6c2f\u8f9b\u70f7", "en_name": ["1,8-Dichlorooctane", "Octane, 1,8-dichloro-", "1,8-Dichlorooctane"], "SMILES": "C(CCCCCl)CCCCl", "physical_data": {"Molecular Weight": "183.12", "Molecular Formula": "C8H16Cl2", "Boiling Point": "241 \u00b0C"}}