{"cas_no": "21622-01-5", "cn_name": "3-\u73af\u620a\u70ef-1-\u7532\u9178\u4e59\u916f", "en_name": ["3-Cyclopentene-1-carboxylic acid, ethyl ester", "3-Cyclopentene-1-carboxylic acid, ethyl ester", "Ethyl cyclopent-3-enecarboxylate", "Ethyl 3-cyclopentene-1-carboxylate"], "SMILES": "C(OCC)(=O)C1CC=CC1", "physical_data": {"Molecular Weight": "140.18", "Molecular Formula": "C8H12O2", "Boiling Point": "89-93 \u00b0C @ Press: 40 Torr"}}