{"cas_no": "2162-98-3", "cn_name": "1,10-\u4e8c\u6c2f\u7678\u70f7", "en_name": ["1,10-Dichlorodecane", "Decane, 1,10-dichloro-", "1,10-Dichlorodecane", "NSC 9484"], "SMILES": "C(CCCCCCl)CCCCCl", "physical_data": {"Molecular Weight": "211.17", "Molecular Formula": "C10H20Cl2", "Boiling Point": "104-110 \u00b0C @ Press: 2 Torr", "Melting Point": "15.6 \u00b0C", "Density": "0.9853 g/cm\u00b3 @ Temp: 27 \u00b0C"}}