{"cas_no": "2163-69-1", "cn_name": "\u73af\u83a0\u9686", "en_name": ["Cycluron", "Urea, N\u2032-cyclooctyl-N,N-dimethyl-", "Urea, 3-cyclooctyl-1,1-dimethyl-", "N\u2032-Cyclooctyl-N,N-dimethylurea", "3-Cyclooctyl-1,1-dimethylurea", "Cycluron", "OMU", "HS 61", "1,1-Dimethyl-3-cyclooctylurea", "1-Cyclooctyl-3,3-dimethylurea"], "SMILES": "N(C(N(C)C)=O)C1CCCCCCC1", "physical_data": {"Molecular Weight": "198.31", "Molecular Formula": "C11H22N2O", "Melting Point": "138 \u00b0C"}}