{"cas_no": "2163-42-0", "cn_name": "2-\u7532\u57fa-1,3-\u4e19\u4e8c\u9187", "en_name": ["2-Methyl-1,3-propanediol", "1,3-Propanediol, 2-methyl-", "2-Methyl-1,3-propanediol", "\u03b2-Hydroxyisobutanol", "MPDiol", "1,3-Dihydroxyisobutane", "Methylpropanediol", "2-Methylpropane-1,3-diol", "1,3-Dihydroxy-2-methylpropane", "2-Methyl-1,3-propylene glycol", "Polyol 4", "1,3-Isobutanediol"], "SMILES": "C(CO)(CO)C", "physical_data": {"Molecular Weight": "90.12", "Molecular Formula": "C4H10O2", "Boiling Point": "195 \u00b0C", "Melting Point": "-91 \u00b0C", "Density": "1.020 g/cm\u00b3 @ Temp: 20 \u00b0C"}}