{"cas_no": "2163-48-6", "cn_name": "\u4e19\u57fa\u4e19\u4e8c\u9178\u4e8c\u4e59\u916f", "en_name": ["Propanedioic acid, 2-propyl-, 1,3-diethyl ester", "Propanedioic acid, 2-propyl-, 1,3-diethyl ester", "Malonic acid, propyl-, diethyl ester", "Propanedioic acid, propyl-, diethyl ester", "Propylmalonic acid diethyl ester", "Diethyl propylmalonate", "Diethyl 2-propylmalonate", "Diethyl n-propylmalonate", "2-Propylmalonic acid diethyl ester", "NSC 53659", "Diethyl 2-n-propylmalonate", "1,3-Diethyl 2-propylpropanedioate", "Diethyl 2-propylpropanedioate"], "SMILES": "C(C(OCC)=O)(C(OCC)=O)CCC", "physical_data": {"Molecular Weight": "202.25", "Molecular Formula": "C10H18O4", "Boiling Point": "221 \u00b0C", "Density": "0.9914 g/cm\u00b3 @ Temp: 20 \u00b0C"}}