{"cas_no": "216393-66-7", "cn_name": "1-\u7898-2,3,5-\u4e09\u6c2f\u82ef", "en_name": ["1,2,5-Trichloro-3-iodobenzene", "Benzene, 1,2,5-trichloro-3-iodo-", "1,2,5-Trichloro-3-iodobenzene"], "SMILES": "ClC1=C(Cl)C=C(Cl)C=C1I", "physical_data": {"Molecular Weight": "307.34", "Molecular Formula": "C6H2Cl3I", "Melting Point": "56 \u00b0C"}}