{"cas_no": "2163-80-6", "cn_name": "\u7532\u57fa\u7837\u9178\u94a0", "en_name": ["Monosodium methanearsonate", "Arsonic acid, methyl-, monosodium salt", "Methanearsonic acid, monosodium salt", "Ansar 529", "Ansar 170", "Ansar 170L", "Monosodium acid methanearsonate", "Monosodium acid metharsonate", "Monosodium methanearsonate", "Monosodium methylarsonate", "MSMA", "Daconate", "Sodium acid methanearsonate", "Weed 108", "Gepiron", "Bueno 6", "Methylarsonic acid monosodium salt"], "SMILES": "[As](C)(=O)(O)O.[Na]", "physical_data": {"Molecular Weight": "", "Molecular Formula": "CH5AsO3.Na", "Melting Point": "130-140 \u00b0C"}}