{"cas_no": "2163-00-0", "cn_name": "1,6-\u4e8c\u6c2f\u5df1\u70f7", "en_name": ["1,6-Dichlorohexane", "Hexane, 1,6-dichloro-", "1,6-Dichlorohexane", "NSC 60700"], "SMILES": "C(CCCCl)CCCl", "physical_data": {"Molecular Weight": "155.07", "Molecular Formula": "C6H12Cl2", "Boiling Point": "204 \u00b0C", "Density": "1.0677 g/cm\u00b3 @ Temp: 20 \u00b0C"}}