{"cas_no": "21635-88-1", "cn_name": "3-\u6c27\u6742\u73af\u4e01\u80fa", "en_name": ["3-Oxetanamine", "3-Oxetanamine", "3-Aminooxetane", "(Oxetan-3-yl)amine", "Oxetan-3-amine"], "SMILES": "NC1COC1", "physical_data": {"Molecular Weight": "73.09", "Molecular Formula": "C3H7NO", "Boiling Point": "50-82 \u00b0C @ Press: 60-70 Torr"}}