{"cas_no": "21635-90-5", "cn_name": "1,2,3,4,4A,5,8,8A-\u516b\u6c22-1,4:5,8-\u4e8c\u7532\u6865\u8418", "en_name": ["1,2,3,4,4a,5,8,8a-Octahydro-1,4:5,8-dimethanonaphthalene", "1,4:5,8-Dimethanonaphthalene, 1,2,3,4,4a,5,8,8a-octahydro-", "1,2,3,4,4a,5,8,8a-Octahydro-1,4:5,8-dimethanonaphthalene", "Dimethanooctahydronaphthalene", "Tetracyclo[4.4.0.12,5.17,10]-3-dodecene", "Tetracyclododecene", "Tetracyclo[4.4.12,5.17,10.0]dodeca-3-ene", "Tetracyclo[6.2.1.13,6.02,7]dodeca-4-ene", "Tetracyclo[4.4.0.12,5.17,10]dodeca-3-ene"], "SMILES": "C12C(C3CC1C=C3)C4CC2CC4", "physical_data": {"Molecular Weight": "160.26", "Molecular Formula": "C12H16", "Boiling Point": "92-96 \u00b0C @ Press: 10 Torr"}}