{"cas_no": "21637-25-2", "cn_name": "(3-\u69f2\u76ae\u7d20)-\u03b2-D-\u8461\u8404\u7cd6\u82f7", "en_name": ["Isoquercitrin", "4H-1-Benzopyran-4-one, 2-(3,4-dihydroxyphenyl)-3-(\u03b2-D-glucofuranosyloxy)-5,7-dihydroxy-", "Flavone, 3,3\u2032,4\u2032,5,7-pentahydroxy-, 3-\u03b2-D-glucofuranoside", "2-(3,4-Dihydroxyphenyl)-3-(\u03b2-D-glucofuranosyloxy)-5,7-dihydroxy-4H-1-benzopyran-4-one", "Quercetin 3-(\u03b2-D-glucofuranoside)", "Isoquercitrin", "Isoquercitroside", "Isotrifoliin", "Quercetin 3-O-\u03b2-D-glucofuranoside", "Isoquercitrozide"], "SMILES": "O(C1=C(OC=2C(C1=O)=C(O)C=C(O)C2)C3=CC(O)=C(O)C=C3)C4OC(C(CO)O)C(O)C4O", "physical_data": {"Molecular Weight": "464.38", "Molecular Formula": "C21H20O12", "Melting Point": "226 \u00b0C"}}