{"cas_no": "21643-38-9", "cn_name": "4-\u5df1\u57fa\u82ef\u7532\u9178", "en_name": ["4-Hexylbenzoic acid", "Benzoic acid, 4-hexyl-", "Benzoic acid, p-hexyl-", "4-Hexylbenzoic acid", "p-Hexylbenzoic acid", "4-n-Hexylbenzoic acid", "p-n-Hexylbenzoic acid", "NSC 172887"], "SMILES": "C(O)(=O)C1=CC=C(CCCCCC)C=C1", "physical_data": {"Molecular Weight": "206.28", "Molecular Formula": "C13H18O2", "Melting Point": "97 \u00b0C"}}