{"cas_no": "2164-08-1", "cn_name": "\u73af\u8349\u5b9a", "en_name": ["Lenacil", "1H-Cyclopentapyrimidine-2,4(3H,5H)-dione, 3-cyclohexyl-6,7-dihydro-", "3-Cyclohexyl-6,7-dihydro-1H-cyclopentapyrimidine-2,4(3H,5H)-dione", "3-Cyclohexyl-5,6-trimethyleneuracil", "Du Pont 634", "Experimental Herbicide 634", "Herbicide 634", "Lenacil", "Uracil 634", "Venzar", "Hexilure", "Elbatan", "Adol", "Adol 80WP", "5-Cyclohexyl-5,7-diaza-2,3,4,5,6,7-hexahydroindene-4,6-dione", "Adol (pesticide)", "Lenacil 80WP", "Buracyl", "Hexylure", "3-Cyclohexyl-6,7-dihydro-1H-cyclopenta[d]pyrimidine-2,4(3H,5H)-dione", "3-Cyclohexyl-2-hydroxy-3,5,6,7-tetrahydro-cyclopentapyrimidin-4-one"], "SMILES": "O=C1N(C(=O)NC2=C1CCC2)C3CCCCC3", "physical_data": {"Molecular Weight": "234.29", "Molecular Formula": "C13H18N2O2", "Melting Point": "316 \u00b0C"}}