{"cas_no": "2164-33-2", "cn_name": "2-\u6c2f\u7532\u57fa-1,4-\u82ef\u5e76\u4e8c\u6076\u70f7", "en_name": ["2-(Chloromethyl)-2,3-dihydro-1,4-benzodioxin", "1,4-Benzodioxin, 2-(chloromethyl)-2,3-dihydro-", "1,4-Benzodioxan, 2-(chloromethyl)-", "2-(Chloromethyl)-2,3-dihydro-1,4-benzodioxin", "2-(Chloromethyl)-1,4-benzodioxane", "2-Chloromethyl-1,4-benzodioxan", "2-Chloromethyl-2,3-dihydro-1,4-benzodioxin", "NSC 1500", "NSC 24519", "NSC 33830", "2-Chloromethyl-2,3-dihydrobenzo[1,4]dioxine"], "SMILES": "C(Cl)C1OC=2C(OC1)=CC=CC2", "physical_data": {"Molecular Weight": "184.62", "Molecular Formula": "C9H9ClO2", "Boiling Point": "131.5 \u00b0C @ Press: 15 Torr", "Density": "1.2833 g/cm\u00b3 @ Temp: 20 \u00b0C"}}