{"cas_no": "21643-42-5", "cn_name": "\u4e19\u70ef\u9178\u5341\u56db\u916f", "en_name": ["Tetradecyl acrylate", "2-Propenoic acid, tetradecyl ester", "Acrylic acid, tetradecyl ester", "1-Tetradecanol, acrylate", "Tetradecyl acrylate", "n-Tetradecyl acrylate", "Myristyl acrylate"], "SMILES": "C(CCCCCCCCCCC)CCOC(C=C)=O", "physical_data": {"Molecular Weight": "268.43", "Molecular Formula": "C17H32O2", "Boiling Point": "138 \u00b0C @ Press: 0.4 Torr", "Melting Point": "14 \u00b0C", "Density": "0.8700 g/cm\u00b3 @ Temp: 20 \u00b0C"}}