{"cas_no": "21640-48-2", "cn_name": "3-(3-\u6c2f\u82ef\u57fa)\u4e19\u9178", "en_name": ["3-(3-Chlorophenyl)propanoic acid", "Benzenepropanoic acid, 3-chloro-", "Hydrocinnamic acid, m-chloro-", "3-Chlorobenzenepropanoic acid", "3-Chloro-\u03b2-phenylpropionic acid", "m-Chlorohydrocinnamic acid", "3-Chlorohydrocinnamic acid", "3-[3-Chlorophenyl]propionic acid", "3-(3-Chlorophenyl)propanoic acid"], "SMILES": "C(CC(O)=O)C1=CC(Cl)=CC=C1", "physical_data": {"Molecular Weight": "184.62", "Molecular Formula": "C9H9ClO2", "Melting Point": "73-74 \u00b0C"}}