{"cas_no": "2164-84-3", "cn_name": "5-\u785d\u57fa-4,6-\u4e8c\u6c28\u57fa\u5627\u5576", "en_name": ["4,6-Diamino-5-nitropyrimidine", "4,6-Pyrimidinediamine, 5-nitro-", "Pyrimidine, 4,6-diamino-5-nitro-", "5-Nitro-4,6-pyrimidinediamine", "4,6-Diamino-5-nitropyrimidine", "NSC 26753", "NSC 45756"], "SMILES": "N(=O)(=O)C=1C(N)=NC=NC1N", "physical_data": {"Molecular Weight": "155.11", "Molecular Formula": "C4H5N5O2", "Melting Point": "&gt;250 \u00b0C"}}