{"cas_no": "2164-67-2", "cn_name": "2-\u80fa\u57fa-6-\u7f9f\u7532\u57fa\u5627\u5576", "en_name": ["2-Amino-4-pyrimidinemethanol", "4-Pyrimidinemethanol, 2-amino-", "2-Amino-4-pyrimidinemethanol", "2-Amino-4-hydroxymethylpyrimidine", "(2-Aminopyrimidin-4-yl)methanol"], "SMILES": "C(O)C1=NC(N)=NC=C1", "physical_data": {"Molecular Weight": "125.13", "Molecular Formula": "C5H7N3O", "Melting Point": "145 \u00b0C"}}