{"cas_no": "2164-09-2", "cn_name": "\u5730\u5feb\u4e50,\u4e01\u9170\u8349\u80fa", "en_name": ["Chloranocryl", "2-Propenamide, N-(3,4-dichlorophenyl)-2-methyl-", "Acrylanilide, 3\u2032,4\u2032-dichloro-2-methyl-", "N-(3,4-Dichlorophenyl)-2-methyl-2-propenamide", "N 4556", "DCMA", "3\u2032,4\u2032-Dichloro-2-methylacrylanilide", "N-(3,4-Dichlorophenyl)methacrylamide", "Dicryl", "Methacrylic acid 3,4-dichloroanilide", "Niagara 4556", "3\u2032,4\u2032-Dichloromethacrylanilide", "Licryl", "Chloranocryl", "2-Methyl-N-(3,4-dichlorophenyl)acrylamide"], "SMILES": "N(C(C(C)=C)=O)C1=CC(Cl)=C(Cl)C=C1", "physical_data": {"Molecular Weight": "230.09", "Molecular Formula": "C10H9Cl2NO", "Melting Point": "128 \u00b0C"}}