{"cas_no": "2164-34-3", "cn_name": "2-\u6eb4\u7532\u57fa-1\uff0c4-\u82ef\u5e76\u4e8c\u6076\u70f7", "en_name": ["2-(Bromomethyl)-1,4-benzodioxane", "1,4-Benzodioxin, 2-(bromomethyl)-2,3-dihydro-", "1,4-Benzodioxan, 2-(bromomethyl)-", "2-(Bromomethyl)-2,3-dihydro-1,4-benzodioxin", "2-Bromomethyl-1,4-benzodioxan", "2-(Bromomethyl)-1,4-benzodioxane", "2-Bromomethyl-2,3-dihydro-1,4-benzodioxin", "NSC 106871", "2-Bromomethyl-2,3-dihydrobenzo[1,4]dioxine", "2-(Bromomethyl)-2,3-dihydrobenzo[b][1,4]dioxine", "(2,3-Dihydrobenzo[b][1,4]dioxin-2-yl)methyl bromide"], "SMILES": "C(Br)C1OC=2C(OC1)=CC=CC2", "physical_data": {"Molecular Weight": "229.07", "Molecular Formula": "C9H9BrO2", "Boiling Point": "126-127 \u00b0C @ Press: 0.9 Torr"}}