{"cas_no": "2164-17-2", "cn_name": "\u4f0f\u8349\u9686", "en_name": ["Fluometuron", "Urea, N,N-dimethyl-N\u2032-[3-(trifluoromethyl)phenyl]-", "Urea, 1,1-dimethyl-3-(\u03b1,\u03b1,\u03b1-trifluoro-m-tolyl)-", "N,N-Dimethyl-N\u2032-[3-(trifluoromethyl)phenyl]urea", "C 2059", "Cotoran", "1,1-Dimethyl-3-(\u03b1,\u03b1,\u03b1-trifluoro-m-tolyl)urea", "Fluometuron", "N-(3-Trifluoromethylphenyl)-N\u2032,N\u2032-dimethylurea", "3-(m-Trifluoromethylphenyl)-1,1-dimethylurea", "N-(m-Trifluoromethylphenyl)-N\u2032,N\u2032-dimethylurea", "3-(3-Trifluoromethylphenyl)-1,1-dimethylurea", "Ciba 2059", "Pakhtaran", "Lanex", "Cotoran 85DF", "Fluomethuron"], "SMILES": "N(C(N(C)C)=O)C1=CC(C(F)(F)F)=CC=C1", "physical_data": {"Molecular Weight": "232.20", "Molecular Formula": "C10H11F3N2O", "Boiling Point": "~280 \u00b0C (approx) @ Press: 760 Torr", "Melting Point": "163-164.5 \u00b0C", "Density": "1.39 g/cm\u00b3 @ Temp: 20 \u00b0C"}}