{"cas_no": "21651-19-4", "cn_name": "\u4e00\u6c27\u5316\u9521", "en_name": ["Tin oxide (SnO)", "Tin oxide (SnO)", "Stannous oxide", "Tin(II) oxide", "Tin monoxide", "Tin(2+) oxide", "Tin oxide (Sn2O2)", "Ceramace C 10", "Tegokat 188"], "SMILES": "O=[Sn]", "physical_data": {"Molecular Weight": "", "Molecular Formula": "OSn", "Melting Point": "1080 \u00b0C", "Density": "6.45 g/cm\u00b3"}}