{"cas_no": "21653-40-7", "cn_name": "\u76d0\u9178-NA-\u82ef\u7532\u9170-1-\u7cbe\u6c28\u9178\u9170-4-\u785d\u57fa\u82ef\u80fa", "en_name": ["Benzamide, N-[(1S)-4-[(aminoiminomethyl)amino]-1-[[(4-nitrophenyl)amino]carbonyl]butyl]-, hydrochloride (1:1)", "Benzamide, N-[(1S)-4-[(aminoiminomethyl)amino]-1-[[(4-nitrophenyl)amino]carbonyl]butyl]-, hydrochloride (1:1)", "Valeranilide, 2-benzamido-5-guanidino-4\u2032-nitro-, monohydrochloride, L-", "Benzamide, N-[4-[(aminoiminomethyl)amino]-1-[[(4-nitrophenyl)amino]carbonyl]butyl]-, monohydrochloride, (S)-", "Benzamide, N-[(1S)-4-[(aminoiminomethyl)amino]-1-[[(4-nitrophenyl)amino]carbonyl]butyl]-, monohydrochloride", "N\u03b1-Benzoyl-L-arginine-p-nitroanilide hydrochloride"], "SMILES": "N(C(C(NC(=O)C1=CC=CC=C1)CCCNC(=N)N)=O)C2=CC=C(N(=O)=O)C=C2.Cl", "physical_data": {"Molecular Weight": "", "Molecular Formula": "C19H22N6O4.ClH", "Melting Point": "261-262 \u00b0C"}}