{"cas_no": "21655-48-1", "cn_name": "\u987a\u5f0f-2,6-\u4e8c\u7532\u57fa\u54cc\u55ea", "en_name": ["rel-(2R,6S)-2,6-Dimethylpiperazine", "Piperazine, 2,6-dimethyl-, (2R,6S)-rel-", "Piperazine, 2,6-dimethyl-, cis-", "rel-(2R,6S)-2,6-Dimethylpiperazine", "cis-2,6-Dimethylpiperazine", "cis-3,5-Dimethylpiperazine"], "SMILES": "CC1NC(C)CNC1", "physical_data": {"Molecular Weight": "114.19", "Molecular Formula": "C6H14N2", "Melting Point": "115-116 \u00b0C"}}