{"cas_no": "21652-58-4", "cn_name": "1H,1H,2H-\u5168\u6c1f-1-\u7678\u70ef", "en_name": ["Heptadecafluoro-1-decene", "1-Decene, 3,3,4,4,5,5,6,6,7,7,8,8,9,9,10,10,10-heptadecafluoro-", "3,3,4,4,5,5,6,6,7,7,8,8,9,9,10,10,10-Heptadecafluoro-1-decene", "1,1,2-Trihydroperfluoro-1-decene", "(Perfluorooctyl)ethylene", "1H,1H,2H-Perfluorodecene", "(Perfluorooctyl)ethene", "1H,1H,2H-Heptadecafluoro-1-decene", "1H,1H,2H-Perfluoro-1-decene", "3,3,4,4,5,5,6,6,7,7,8,8,9,9,10,10,10-Heptadecafluorodecene", "F 1820", "Heptadecafluoro-1-decene", "Cheminox PFOE", "3,3,4,4,5,5,6,6,7,7,8,8,9,9,10,10,1 0-Heptadecafluoro-1-decene"], "SMILES": "C(C(C(C(C(F)(F)F)(F)F)(F)F)(F)F)(C(C(C(C=C)(F)F)(F)F)(F)F)(F)F", "physical_data": {"Molecular Weight": "446.10", "Molecular Formula": "C10H3F17", "Boiling Point": "150 \u00b0C"}}