{"cas_no": "21668-77-9", "cn_name": "\u4f0a\u7f57\u5730\u585e", "en_name": ["1,3-Propanedisulfonic acid", "1,3-Propanedisulfonic acid", "Eprodisate"], "SMILES": "C(S(=O)(=O)O)CCS(=O)(=O)O", "physical_data": {"Molecular Weight": "204.22", "Molecular Formula": "C3H8O6S2", "Boiling Point": "157 \u00b0C @ Press: 1.4 Torr", "Melting Point": "120-125 \u00b0C"}}