{"cas_no": "2166-31-6", "cn_name": "6-\u82ef\u57fa-3-\u54d2\u55ea\u916e", "en_name": ["6-Phenyl-3(2H)-pyridazinone", "3(2H)-Pyridazinone, 6-phenyl-", "6-Phenyl-3(2H)-pyridazinone", "3-Pyridazinol, 6-phenyl-", "3-Phenyl-6-pyridazone", "6-Phenyl-3-pyridazone", "3-Phenyl-6-pyridazinone", "6-Phenyl-3-pyridazinone", "6-Phenylpyridazin-3-ol", "NSC 13399", "6-Phenyl-2H-pyridazin-3-one", "3-Phenyl-1H-pyridazin-6-one"], "SMILES": "O=C1C=CC(=NN1)C2=CC=CC=C2", "physical_data": {"Molecular Weight": "172.18", "Molecular Formula": "C10H8N2O", "Melting Point": "151 \u00b0C"}}