{"cas_no": "21667-64-1", "cn_name": "\u95f4\u785d\u57fa\u82ef\u7532\u9170\u4e59\u8148", "en_name": ["3-Nitro-\u03b2-oxobenzenepropanenitrile", "Benzenepropanenitrile, 3-nitro-\u03b2-oxo-", "Acetonitrile, (m-nitrobenzoyl)-", "3-Nitro-\u03b2-oxobenzenepropanenitrile", "m-Nitrophenacyl cyanide", "3-Nitrophenacyl cyanide", "3-Nitrobenzoylacetonitrile", "2-(3-Nitrobenzoyl)acetonitrile"], "SMILES": "C(CC#N)(=O)C1=CC(N(=O)=O)=CC=C1", "physical_data": {"Molecular Weight": "190.16", "Molecular Formula": "C9H6N2O3", "Melting Point": "152.0-153.0 \u00b0C"}}