{"cas_no": "21663-61-6", "cn_name": "2,5-\u4e8c\u6c2f\u82ef\u7532\u8148", "en_name": ["2,5-Dichlorobenzonitrile", "Benzonitrile, 2,5-dichloro-", "2,5-Dichlorobenzonitrile", "NSC 166361"], "SMILES": "C(#N)C1=C(Cl)C=CC(Cl)=C1", "physical_data": {"Molecular Weight": "172.01", "Molecular Formula": "C7H3Cl2N", "Melting Point": "129 \u00b0C"}}