{"cas_no": "21667-63-0", "cn_name": "3-\u6c30\u57fa\u82ef\u7532\u9170\u57fa\u4e59\u8148", "en_name": ["3-Cyano-\u03b2-oxobenzenepropanenitrile", "Benzenepropanenitrile, 3-cyano-\u03b2-oxo-", "Benzonitrile, m-(cyanoacetyl)-", "3-Cyano-\u03b2-oxobenzenepropanenitrile", "3-(2-Cyanoacetyl)benzonitrile"], "SMILES": "C(CC#N)(=O)C1=CC(C#N)=CC=C1", "physical_data": {"Molecular Weight": "170.17", "Molecular Formula": "C10H6N2O", "Melting Point": "189-190 \u00b0C"}}