{"cas_no": "21679-14-1", "cn_name": "\u6c1f\u8fbe\u62c9\u6ee8", "en_name": ["Fludarabine", "9H-Purin-6-amine, 9-\u03b2-D-arabinofuranosyl-2-fluoro-", "Adenine, 9-\u03b2-D-arabinofuranosyl-2-fluoro-", "9-\u03b2-D-Arabinofuranosyl-2-fluoro-9H-purin-6-amine", "9-\u03b2-D-Arabinofuranosyl-2-fluoroadenine", "2-Fluoro-9-\u03b2-D-arabinofuranosyladenine", "9-\u03b2-D-Arabinosyl-2-fluoroadenine", "NSC 118218", "NSC 118218H", "F-ara-A", "Fludarabine", "2-Fluoroadenine arabinoside", "2-Fluoro Ara-A", "2F-Ara-A"], "SMILES": "NC1=C2C(N(C=N2)C3OC(CO)C(O)C3O)=NC(F)=N1", "physical_data": {"Molecular Weight": "285.23", "Molecular Formula": "C10H12FN5O4", "Melting Point": "260 \u00b0C"}}