{"cas_no": "21671-00-1", "cn_name": "SHOREIC ACID", "en_name": ["Shoreic acid", "1H-Benz[e]indene-6-propanoic acid, dodecahydro-6,9a,9b-trimethyl-7-(1-methylethenyl)-3-[(2S,5R)-tetrahydro-5-(1-hydroxy-1-methylethyl)-2-methyl-2-furanyl]-, (3S,3aR,5aR,6S,7S,9aR,9bR)-", "3,4-Secodammar-4(28)-en-3-oic acid, 20,24-epoxy-25-hydroxy-, (24R)-", "(3S,3aR,5aR,6S,7S,9aR,9bR)-Dodecahydro-6,9a,9b-trimethyl-7-(1-methylethenyl)-3-[(2S,5R)-tetrahydro-5-(1-hydroxy-1-methylethyl)-2-methyl-2-furanyl]-1H-benz[e]indene-6-propanoic acid", "Shoreic acid", "Shoric acid", "20,24-Epoxy-25-hydroxy-3,4-seco-4(28)-dammaren-3-oic acid methyl ester", "29-Deoxycleomdiolic acid"], "SMILES": "CC12C3(C)C(C(CCC(O)=O)(C)C(C(C)=C)CC3)CCC1C(CC2)C4(C)OC(C(C)(C)O)CC4", "physical_data": {"Molecular Weight": "474.72", "Molecular Formula": "C30H50O4", "Melting Point": "102-104 \u00b0C"}}