{"cas_no": "2167-51-3", "cn_name": "Alpha,Alpha'-\u53cc\uff084-\u7f9f\u57fa\u82ef\uff091\uff0c4-\u4e8c\u5f02\u4e19\u57fa\u82ef", "en_name": ["Bisphenol P", "Phenol, 4,4\u2032-[1,4-phenylenebis(1-methylethylidene)]bis-", "Phenol, 4,4\u2032-(p-phenylenediisopropylidene)di-", "4,4\u2032-[1,4-Phenylenebis(1-methylethylidene)]bis[phenol]", "\u03b1,\u03b1\u2032-Bis(4-hydroxyphenyl)-p-diisopropylbenzene", "4,4\u2032-(p-Phenylenediisopropylidene)diphenol", "1,4-Bis[2-(4-hydroxyphenyl)-2-propyl]benzene", "1,4-Bis(p-hydroxycumyl)benzene", "4,4\u2032-(p-Phenylenediisopropylidene)bisphenol", "Bisphenol P", "1,4-Bis(4-hydroxycumyl)benzene", "1,4-Bis[\u03b1-methyl-\u03b1-(4-hydroxyphenyl)ethyl]benzene", "\u03b1,\u03b1\u2032-Bis(4-hydroxyphenyl)-1,4-diisopropylbenzene", "1,4-Bis(1-(4-hydroxyphenyl)-1-methylethyl)benzene", "B 1563", "4,4\u2032-(1,4-Phenylenediisopropylidene)bisphenol"], "SMILES": "C(C)(C)(C1=CC=C(C(C)(C)C2=CC=C(O)C=C2)C=C1)C3=CC=C(O)C=C3", "physical_data": {"Molecular Weight": "346.46", "Molecular Formula": "C24H26O2", "Boiling Point": "246 \u00b0C @ Press: 0.1 Torr", "Melting Point": "192 \u00b0C"}}