{"cas_no": "2167-14-8", "cn_name": "\u8336\u5421\u54af", "en_name": ["1-Ethyl-1H-pyrrole-2-carboxaldehyde", "1H-Pyrrole-2-carboxaldehyde, 1-ethyl-", "Pyrrole-2-carboxaldehyde, 1-ethyl-", "1-Ethyl-1H-pyrrole-2-carboxaldehyde", "1-Ethyl-2-formylpyrrole", "N-Ethylpyrrole-2-carboxaldehyde", "N-Ethyl-2-formylpyrrole", "1-Ethylpyrrole-2-aldehyde", "1-Ethyl-2-pyrrolecarboxaldehyde"], "SMILES": "C(=O)C=1N(CC)C=CC1", "physical_data": {"Molecular Weight": "123.15", "Molecular Formula": "C7H9NO", "Boiling Point": "59 \u00b0C @ Press: 6 Torr"}}