{"cas_no": "21679-46-9", "cn_name": "\u4e59\u9170\u4e19\u916e\u94b4(III)", "en_name": ["tris(Acetylacetonato)cobalt", "Cobalt, tris(2,4-pentanedionato-\u03baO2,\u03baO4)-, (OC-6-11)-", "Cobalt, tris(2,4-pentanedionato)-", "Cobalt, tris(2,4-pentanedionato-O,O\u2032)-, (OC-6-11)-", "Cobalt, tris(2,4-pentanedionato-\u03baO,\u03baO\u2032)-, (OC-6-11)-", "(OC-6-11)-Tris(2,4-pentanedionato-\u03baO2,\u03baO4)cobalt", "Cobalt triacetylacetonate", "Cobalt tris(acetylacetonate)", "Cobalt(III) acetylacetonate", "Cobaltic acetylacetonate", "Cobalt(3+) acetylacetonate", "Tris(acetylacetonato)cobalt", "Tris(2,4-pentanedionato)cobalt", "Tris(acetylacetone)cobalt", "Cobaltic trisacetylacetonate", "Tris(acetylacetonato)cobalt(III)", "Cobalt acetylacetonate", "Cobalt triacetoacetate", "Tris(acetoacetonato)cobalt", "tris(Acetylacetonato)cobalt", "NSC 43621", "NSC 4653", "Nacem Second Cobalt", "Nacem Cobalt(III)", "(\u00b1)-Cobalt(III) tris(acetylacetonate)"], "SMILES": "CC1=O[Co+3]23(O=C(C)[CH-]C(C)=O2)(O=C(C)[CH-]C(C)=O3)O=C(C)[CH-]1", "physical_data": {"Molecular Weight": "", "Molecular Formula": "C15H21CoO6", "Melting Point": "209 \u00b0C"}}