{"cas_no": "21679-31-2", "cn_name": "\u4e59\u9170\u4e19\u916e\u94ec", "en_name": ["Tris(acetylacetonato)chromium", "Chromium, tris(2,4-pentanedionato-\u03baO2,\u03baO4)-, (OC-6-11)-", "Chromium, tris(2,4-pentanedionato)-", "Chromium, tris(2,4-pentanedionato-O,O\u2032)-, (OC-6-11)-", "Chromium, tris(2,4-pentanedionato-\u03baO,\u03baO\u2032)-, (OC-6-11)-", "(OC-6-11)-Tris(2,4-pentanedionato-\u03baO2,\u03baO4)chromium", "Chromium(III) acetylacetonate", "Chromium acetylacetonate", "Chromium tris(acetylacetonate)", "Chromium tris(2,4-pentanedionate)", "Chromium(3+) acetylacetonate", "Tris(acetylacetonato)chromium", "Tris(acetylacetonato)chromium(III)", "Chromium triacetylacetonate", "Chromic acetylacetonate", "Tris(2,4-pentanedionato)chromium", "NSC 4654", "NSC 52331", "Tris(2,4-pentanedionato-\u03ba2O,O\u2032)chromium(III)"], "SMILES": "CC1=O[Cr+3]23(O=C(C)[CH-]C(C)=O2)(O=C(C)[CH-]C(C)=O3)O=C(C)[CH-]1", "physical_data": {"Molecular Weight": "", "Molecular Formula": "C15H21CrO6", "Melting Point": "209-213 \u00b0C"}}