{"cas_no": "21678-37-5", "cn_name": "N,N,2-\u4e09\u7532\u57fa\u4e19\u9170\u80fa", "en_name": ["Dimethylisobutyramide", "Propanamide, N,N,2-trimethyl-", "Propionamide, N,N,2-trimethyl-", "N,N,2-Trimethylpropanamide", "N,N-Dimethylisobutyramide", "N,N,2-Trimethylpropionamide", "2,N,N-Trimethylpropanamide", "Dimethylisobutyramide", "NSC 53151", "N,N-Dimethyl-2-methylpropionamide", "N,N-Dimethyl-2-methylpropanamide", "2,N,N-Trimethylpropionamide"], "SMILES": "C(C(C)C)(N(C)C)=O", "physical_data": {"Molecular Weight": "115.17", "Molecular Formula": "C6H13NO", "Boiling Point": "175-176 \u00b0C @ Press: 7 Torr"}}