{"cas_no": "2167-23-9", "cn_name": "2,2-\u53cc(\u8fc7\u6c27\u5316\u53d4\u4e01\u57fa)\u4e01\u70f7", "en_name": ["2,2-Bis(tert-butylperoxy)butane", "Peroxide, 1,1\u2032-(1-methylpropylidene)bis[2-(1,1-dimethylethyl)", "Peroxide, sec-butylidenebis[tert-butyl", "Peroxide, (1-methylpropylidene)bis[(1,1-dimethylethyl)", "1,1\u2032-(1-Methylpropylidene)bis[2-(1,1-dimethylethyl) peroxide]", "3,4,6,7-Tetraoxanonane, 5-ethyl-2,2,5,8,8-pentamethyl-", "2,2-Bis(tert-butylperoxy)butane", "VP 1200", "2,2-Di(tert-butylperoxy)butane", "Chaloxyd P 1293AL", "Chaloxyd P 1200AL", "Lupersol 220", "Trigonox DB 50", "2,2-Bis(tert-butyldioxy)butane", "Trigonox DM 50", "sec-Butylidenebis[tert-butyl peroxide]", "Perhexa 22", "Trigonox D", "Trigonox D-E 50", "Perhexa 22-50S", "NSC 5626", "DB 50", "Trigonox D-C 50", "2,2-Bis(tert-butylperoxybutane)", "Luperox 220M50", "2,2-Di-tert-butylperoxybutane"], "SMILES": "C(OOC(C)(C)C)(OOC(C)(C)C)(CC)C", "physical_data": {"Molecular Weight": "234.33", "Molecular Formula": "C12H26O4", "Boiling Point": "41 \u00b0C @ Press: 1 Torr"}}