{"cas_no": "2168-06-1", "cn_name": "3,3,3-\u4e09\u5bf9\u6c2f\u82ef\u4e19\u9178", "en_name": ["4-Chloro-\u03b2,\u03b2-bis(4-chlorophenyl)benzenepropanoic acid", "Benzenepropanoic acid, 4-chloro-\u03b2,\u03b2-bis(4-chlorophenyl)-", "Propionic acid, 3,3,3-tris(p-chlorophenyl)-", "4-Chloro-\u03b2,\u03b2-bis(4-chlorophenyl)benzenepropanoic acid", "3,3,3-Tris(4-chlorophenyl)propanoic acid"], "SMILES": "C(CC(O)=O)(C1=CC=C(Cl)C=C1)(C2=CC=C(Cl)C=C2)C3=CC=C(Cl)C=C3", "physical_data": {"Molecular Weight": "405.70", "Molecular Formula": "C21H15Cl3O2", "Melting Point": "192-193 \u00b0C"}}