{"cas_no": "2168-96-9", "cn_name": "\u4e8c\u6b63\u5341\u4e8c\u70f7\u57fa \u4e9a\u781c", "en_name": ["Dodecyl sulfoxide", "Dodecane, 1-(dodecylsulfinyl)-", "Dodecyl sulfoxide", "Dodecane, 1,1\u2032-sulfinylbis-", "1-(Dodecylsulfinyl)dodecane", "Di-n-dodecylsulfoxide", "Didodecylsulfoxide", "Dilauryl sulfoxide"], "SMILES": "S(CCCCCCCCCCCC)(CCCCCCCCCCCC)=O", "physical_data": {"Molecular Weight": "386.72", "Molecular Formula": "C24H50OS", "Melting Point": "89-90 \u00b0C"}}