{"cas_no": "2168-93-6", "cn_name": "\u6b63\u4e01\u57fa\u4e9a\u781c", "en_name": ["Dibutyl sulfoxide", "Butane, 1-(butylsulfinyl)-", "Butyl sulfoxide", "Butane, 1,1\u2032-sulfinylbis-", "1-(Butylsulfinyl)butane", "Di-n-butyl sulfoxide", "Dibutyl sulfoxide", "1,1\u2032-Sulfinylbis[butane]", "n-Butyl sulfoxide"], "SMILES": "S(CCCC)(CCCC)=O", "physical_data": {"Molecular Weight": "162.29", "Molecular Formula": "C8H18OS", "Boiling Point": "106-107 \u00b0C @ Press: 2 Torr", "Melting Point": "32.6 \u00b0C", "Density": "0.92234 g/cm\u00b3 @ Temp: 40.00 \u00b0C"}}