{"cas_no": "2168-13-0", "cn_name": "2-(\u4e8c\u7532\u57fa\u80fa\u57fa\u7532\u57fa)-3-\u7f9f\u57fa\u5421\u5576", "en_name": ["2-[(Dimethylamino)methyl]-3-pyridinol", "3-Pyridinol, 2-[(dimethylamino)methyl]-", "2-[(Dimethylamino)methyl]-3-pyridinol", "2-Dimethylaminomethyl-3-hydroxypyridine", "NSC 130957", "NSC 72095", "3-Hydroxy-2-(dimethylaminomethyl)pyridine"], "SMILES": "C(N(C)C)C1=C(O)C=CC=N1", "physical_data": {"Molecular Weight": "152.19", "Molecular Formula": "C8H12N2O", "Boiling Point": "86-96 \u00b0C @ Press: 3.7 Torr", "Melting Point": "56-59 \u00b0C"}}