{"cas_no": "216854-24-9", "cn_name": "R)-1-\u82c4\u57fa-3-N-\u53d4\u4e01\u6c27\u7fb0\u57fa\u6c28\u57fa\u54cc\u5576", "en_name": ["1,1-Dimethylethyl N-[(3S)-1-(phenylmethyl)-3-piperidinyl]carbamate", "Carbamic acid, N-[(3S)-1-(phenylmethyl)-3-piperidinyl]-, 1,1-dimethylethyl ester", "Carbamic acid, [(3S)-1-(phenylmethyl)-3-piperidinyl]-, 1,1-dimethylethyl ester", "1,1-Dimethylethyl N-[(3S)-1-(phenylmethyl)-3-piperidinyl]carbamate", "(S)-tert-Butyl(1-benzylpiperidin-3-yl)carbamate"], "SMILES": "C(N1CC(NC(OC(C)(C)C)=O)CCC1)C2=CC=CC=C2", "physical_data": {"Molecular Weight": "290.40", "Molecular Formula": "C17H26N2O2", "Melting Point": "78-80 \u00b0C"}}