{"cas_no": "21691-43-0", "cn_name": "N-\u82c4\u6c27\u7fb0\u57fa-DL-\u6b63\u7f2c\u6c28\u9178", "en_name": ["N-[(Phenylmethoxy)carbonyl]norvaline", "Norvaline, N-[(phenylmethoxy)carbonyl]-", "Norvaline, N-carboxy-, N-benzyl ester, DL-", "DL-Norvaline, N-[(phenylmethoxy)carbonyl]-", "Norvaline, N-carboxy-, N-benzyl ester", "N-[(Phenylmethoxy)carbonyl]norvaline", "N-(Benzyloxycarbonyl)-DL-norvaline", "DL-(Carbobenzyloxy)norvaline", "N-Carbobenzyloxy-DL-norvaline", "NSC 97947", "Cbz-DL-Norvaline", "2-(Phenylmethoxycarbonylamino)pentanoic acid", "2-[[(Benzyloxy)carbonyl]amino]pentanoic acid"], "SMILES": "C(NC(OCC1=CC=CC=C1)=O)(CCC)C(O)=O", "physical_data": {"Molecular Weight": "251.28", "Molecular Formula": "C13H17NO4", "Melting Point": "90-91 \u00b0C"}}