{"cas_no": "2169-64-4", "cn_name": "\u6c2e\u5c3f\u82f7\u4e59\u916f", "en_name": ["Azaribine", "1,2,4-Triazine-3,5(2H,4H)-dione, 2-(2,3,5-tri-O-acetyl-\u03b2-D-ribofuranosyl)-", "as-Triazine-3,5(2H,4H)-dione, 2-\u03b2-D-ribofuranosyl-, 2\u2032,3\u2032,5\u2032-triacetate", "2-(2,3,5-Tri-O-acetyl-\u03b2-D-ribofuranosyl)-1,2,4-triazine-3,5(2H,4H)-dione", "CB 304", "Azaribine", "Triazure", "2\u2032,3\u2032,5\u2032-Tri-O-acetyl-6-azauridine", "6-Azauridine triacetate", "Azaribin", "6-Aza-2\u2032,3\u2032,5\u2032-tri-O-acetyluridine", "NSC 67239"], "SMILES": "O(C(C)=O)C1C(OC(COC(C)=O)C1OC(C)=O)N2C(=O)NC(=O)C=N2", "physical_data": {"Molecular Weight": "371.30", "Molecular Formula": "C14H17N3O9", "Melting Point": "99-101 \u00b0C"}}