{"cas_no": "21691-44-1", "cn_name": "\u82c4\u6c27\u7fb0\u9170\u57fa\u6b63\u7f2c\u6c28\u9178", "en_name": ["N-[(Phenylmethoxy)carbonyl]-L-norvaline", "L-Norvaline, N-[(phenylmethoxy)carbonyl]-", "Norvaline, N-carboxy-, N-benzyl ester, L-", "N-[(Phenylmethoxy)carbonyl]-L-norvaline", "N-(Benzyloxycarbonyl)-L-norvaline", "N-(Carbobenzoxy)norvaline", "(Benzyloxycarbonyl)norvaline", "N-(Benzyloxycarbonyl)norvaline", "L-(Carbobenzyloxy)norvaline", "Z-L-Norvaline", "N-Carbobenzyloxy-L-norvaline", "Cbz-L-norvaline", "(2S)-2-(Phenylmethoxycarbonylamino)pentanoic acid"], "SMILES": "C(NC(OCC1=CC=CC=C1)=O)(CCC)C(O)=O", "physical_data": {"Molecular Weight": "251.28", "Molecular Formula": "C13H17NO4", "Melting Point": "85-86 \u00b0C"}}