{"cas_no": "2169-44-0", "cn_name": "LAUROSCHOLTZINE", "en_name": ["N-Methyllaurotetanine", "4H-Dibenzo[de,g]quinolin-9-ol, 5,6,6a,7-tetrahydro-1,2,10-trimethoxy-6-methyl-, (6aS)-", "6a\u03b1-Aporphin-9-ol, 1,2,10-trimethoxy-", "4H-Dibenzo[de,g]quinolin-9-ol, 5,6,6a,7-tetrahydro-1,2,10-trimethoxy-6-methyl-, (S)-", "Rogersine", "Laurotetanine, N-methyl-", "(6aS)-5,6,6a,7-Tetrahydro-1,2,10-trimethoxy-6-methyl-4H-dibenzo[de,g]quinolin-9-ol", "Lauroscholtzine", "N-Methyllaurotetanine", "(+)-N-Methyllaurotetanine", "2-O-Methylboldine", "NSC 247506", "NSC 247564", "Boldine 2-methyl ether"], "SMILES": "O(C)C1=C2C=3C(CC=4C2=CC(OC)=C(O)C4)N(C)CCC3C=C1OC", "physical_data": {"Molecular Weight": "341.40", "Molecular Formula": "C20H23NO4", "Melting Point": "158-159 \u00b0C"}}