{"cas_no": "2169-68-8", "cn_name": "(Z)-2-\u6c30\u57fa-3-(4-\u6c2f\u82ef\u57fa)\u4e19\u70ef\u9178\u4e59\u916f", "en_name": ["Ethyl (2E)-3-(4-chlorophenyl)-2-cyano-2-propenoate", "2-Propenoic acid, 3-(4-chlorophenyl)-2-cyano-, ethyl ester, (2E)-", "Cinnamic acid, p-chloro-\u03b1-cyano-, ethyl ester, (E)-", "2-Propenoic acid, 3-(4-chlorophenyl)-2-cyano-, ethyl ester, (E)-", "Ethyl (2E)-3-(4-chlorophenyl)-2-cyano-2-propenoate", "Ethyl (E)-(4-chlorobenzylidene)cyanoacetate", "Ethyl (E)-p-chloro-\u03b1-cyanocinnamate", "(2E)-3-(4-Chlorophenyl)-2-cyano-2-propenoic acid ethyl ester", "Ethyl (E)-3-(4-chlorophenyl)-2-cyano-2-propenoate", "Ethyl (E)-2-cyano-3-(4-chlorophenyl)-2-propenoate", "(E)-Ethyl 3-(4-chlorophenyl)-2-cyanoacrylate"], "SMILES": "C(=C(C(OCC)=O)C#N)C1=CC=C(Cl)C=C1", "physical_data": {"Molecular Weight": "235.67", "Molecular Formula": "C12H10ClNO2", "Melting Point": "92-94 \u00b0C"}}