{"cas_no": "2169-87-1", "cn_name": "2,3-\u8418\u4e8c\u7fa7\u9178", "en_name": ["2,3-Naphthalenedicarboxylic acid", "2,3-Naphthalenedicarboxylic acid", "2,3-Naphthalic acid", "Naphthalene-2,3-carboxylic acid", "2,3-NDA", "NSC 16063"], "SMILES": "C(O)(=O)C=1C(C(O)=O)=CC2=C(C1)C=CC=C2", "physical_data": {"Molecular Weight": "216.19", "Molecular Formula": "C12H8O4", "Melting Point": "239-240 \u00b0C (decomp)"}}