{"cas_no": "217-59-4", "cn_name": "9,10-\u82ef\u5e76\u83f2", "en_name": ["Triphenylene", "Triphenylene", "9,10-Benzphenanthrene", "9,10-Benzophenanthrene", "1,2,3,4-Dibenznaphthalene", "Isochrysene", "Benzo[l]phenanthrene", "NSC 57455"], "SMILES": "C12=C3C(=C4C(=C1C=CC=C2)C=CC=C4)C=CC=C3", "physical_data": {"Molecular Weight": "228.29", "Molecular Formula": "C18H12", "Boiling Point": "425 \u00b0C", "Melting Point": "199 \u00b0C", "Density": "0.9425 g/cm\u00b3 @ Temp: 20 \u00b0C"}}