{"cas_no": "21702-84-1", "cn_name": "2,4-\u4e8c\u6eb4\u82ef\u7532\u919a", "en_name": ["2,4-Dibromoanisole", "Benzene, 2,4-dibromo-1-methoxy-", "Anisole, 2,4-dibromo-", "2,4-Dibromo-1-methoxybenzene", "2,4-Dibromoanisole", "1,5-Dibromo-2-methoxybenzene", "1,3-Dibromo-4-methoxybenzene"], "SMILES": "O(C)C1=C(Br)C=C(Br)C=C1", "physical_data": {"Molecular Weight": "265.93", "Molecular Formula": "C7H6Br2O", "Boiling Point": "100-102 \u00b0C @ Press: 1 Torr", "Melting Point": "61 \u00b0C"}}