{"cas_no": "21709-90-0", "cn_name": "\u4e19\u7518\u6c28\u9178", "en_name": ["Propionylglycine", "Glycine, N-(1-oxopropyl)-", "Glycine, N-propionyl-", "N-(1-Oxopropyl)glycine", "Propionylglycine", "N-Propionylglycine", "NSC 158539", "(Propionylamino)acetic acid", "2-(Propionamido)acetic acid", "2-(Propanoylamino)acetic acid", "2-Propanamidoacetic acid"], "SMILES": "C(NCC(O)=O)(CC)=O", "physical_data": {"Molecular Weight": "131.13", "Molecular Formula": "C5H9NO3", "Melting Point": "126-127 \u00b0C"}}