{"cas_no": "21700-74-3", "cn_name": "\u6c2f\u4ee3\u82ef\u57fa\u4e09\u4e59\u6c27\u57fa\u7845\u70f7(\u95f4\u4f4d\u4e0e\u5bf9\u4f4d\u5f02\u6784\u4f53\u7684\u6df7\u5408\u7269)", "en_name": ["1-Chloro-4-(triethoxysilyl)benzene", "Benzene, 1-chloro-4-(triethoxysilyl)-", "Silane, (p-chlorophenyl)triethoxy-", "Silane, (4-chlorophenyl)triethoxy-", "1-Chloro-4-(triethoxysilyl)benzene", "(p-Chlorophenyl)triethoxysilane", "4-Chlorophenyltriethoxysilane", "Triethoxy(p-chlorophenyl)silane"], "SMILES": "[Si](OCC)(OCC)(OCC)C1=CC=C(Cl)C=C1", "physical_data": {"Molecular Weight": "274.82", "Molecular Formula": "C12H19ClO3Si", "Boiling Point": "182-184 \u00b0C @ Press: 0.07 Torr", "Density": "1.069 g/cm\u00b3 @ Temp: 25 \u00b0C"}}