{"cas_no": "2170-13-0", "cn_name": "\u82ef\u7532\u9178-4-\u8054\u82ef\u916f", "en_name": ["[1,1\u2032-Biphenyl]-4-ol, 4-benzoate", "[1,1\u2032-Biphenyl]-4-ol, 4-benzoate", "4-Biphenylol, benzoate", "[1,1\u2032-Biphenyl]-4-ol, benzoate", "Phenol, p-phenyl-, benzoate", "Benzoic acid, 4-biphenylyl ester", "p-Biphenylyl benzoate", "4-(Benzoyloxy)biphenyl", "NSC 28435", "Biphenyl-4-yl benzoate", "1,1\u2032-Biphenyl-4-yl benzoate", "(4-Phenylphenyl) benzoate"], "SMILES": "O(C(=O)C1=CC=CC=C1)C2=CC=C(C=C2)C3=CC=CC=C3", "physical_data": {"Molecular Weight": "274.31", "Molecular Formula": "C19H14O2", "Melting Point": "148.5-149.5 \u00b0C"}}