{"cas_no": "21702-79-4", "cn_name": "3,5-\u4e8c\u6eb4-2-\u7f9f\u57fa\u82ef\u7532\u9178\u7532\u916f", "en_name": ["Benzoic acid, 3,5-dibromo-2-hydroxy-, methyl ester", "Benzoic acid, 3,5-dibromo-2-hydroxy-, methyl ester", "Salicylic acid, 3,5-dibromo-, methyl ester", "Methyl 3,5-dibromosalicylate", "Methyl 3,5-dibromo-2-hydroxybenzoate", "3,5-Dibromo-2-hydroxy-benzoic acid methyl ester"], "SMILES": "C(OC)(=O)C1=C(O)C(Br)=CC(Br)=C1", "physical_data": {"Molecular Weight": "309.94", "Molecular Formula": "C8H6Br2O3", "Melting Point": "155 \u00b0C"}}