{"cas_no": "2170-03-8", "cn_name": "\u8863\u5eb7\u9178\u9150", "en_name": ["Itaconic anhydride", "2,5-Furandione, dihydro-3-methylene-", "Itaconic anhydride", "Succinic anhydride, methylene-", "Dihydro-3-methylene-2,5-furandione", "Methylenesuccinic anhydride", "Itaconic acid anhydride", "3-Methylenedihydrofuran-2,5-dione", "NSC 43979", "3-Methylidenedihydrofuran-2,5-dione", "KD 13", "3,4-Dihydro-3-methylene-2,5-Furandione", "3-Methylideneoxolane-2,5-dione"], "SMILES": "C=C1C(=O)OC(=O)C1", "physical_data": {"Molecular Weight": "112.08", "Molecular Formula": "C5H4O3", "Boiling Point": "139-140 \u00b0C @ Press: 30 Torr", "Melting Point": "69 \u00b0C"}}