{"cas_no": "21715-46-8", "cn_name": "\u827e\u66ff\u4f0f\u8f9b", "en_name": ["Etifoxine", "4H-3,1-Benzoxazin-2-amine, 6-chloro-N-ethyl-4-methyl-4-phenyl-", "4H-3,1-Benzoxazine, 6-chloro-2-(ethylamino)-4-methyl-4-phenyl-", "6-Chloro-N-ethyl-4-methyl-4-phenyl-4H-3,1-benzoxazin-2-amine", "2-Ethylamino-6-chloro-4-methyl-4-phenyl-4H-3,1-benzoxazine", "Etifoxine", "Etifoxin", "HOE 36-801"], "SMILES": "CC1(C=2C(N=C(NCC)O1)=CC=C(Cl)C2)C3=CC=CC=C3", "physical_data": {"Molecular Weight": "300.78", "Molecular Formula": "C17H17ClN2O", "Melting Point": "90-92 \u00b0C"}}