{"cas_no": "21715-90-2", "cn_name": "N-\u7f9f\u57fa-5-\u964d\u51b0\u7247\u70ef-2,3-\u4e8c\u7532\u9170\u4e9a\u80fa", "en_name": ["3a,4,7,7a-Tetrahydro-2-hydroxy-4,7-methano-1H-isoindole-1,3(2H)-dione", "4,7-Methano-1H-isoindole-1,3(2H)-dione, 3a,4,7,7a-tetrahydro-2-hydroxy-", "5-Norbornene-2,3-dicarboximide, N-hydroxy-", "3a,4,7,7a-Tetrahydro-2-hydroxy-4,7-methano-1H-isoindole-1,3(2H)-dione", "N-Hydroxy-5-norbornene-2,3-dicarboximide", "N-Hydroxy-5-bicyclo[2.2.1]heptene-2,3-dicarboximide", "NSC 100740", "NSC 12953", "HONB", "3,5-Dioxo-4-azatricyclo[5.2.1.02\u20326]dec-8-en-4-ol"], "SMILES": "O=C1C2C(C3CC2C=C3)C(=O)N1O", "physical_data": {"Molecular Weight": "179.17", "Molecular Formula": "C9H9NO3", "Melting Point": "164 \u00b0C"}}