{"cas_no": "2171-98-4", "cn_name": "\u5f02\u4e19\u9187\u9506", "en_name": ["Zirconium isopropoxide", "2-Propanol, zirconium(4+) salt (4:1)", "Isopropyl alcohol, zirconium(4+) salt", "Zirconium isopropoxide", "Tetraisopropoxyzirconium", "Tetraisopropyl zirconate", "Zirconium tetraisopropoxide", "Isopropyl alcohol zirconium salt (4:1)", "Zirconium isopropoxide (Zr(OMe2CH)4)", "Zirconium isopropylate", "2-Propanol zirconium salt", "Zirconium(IV) isopropoxide", "Tetrakis(isopropoxy)zirconium", "Zirconium(4+) isopropoxide", "Zirconium, tetrakis(2-propanolato)-, (T-4)-", "AKZ 955"], "SMILES": "C(C)(C)O.[Zr]", "physical_data": {"Molecular Weight": "", "Molecular Formula": "C3H8O.<sup>1</sup>/4Zr", "Boiling Point": "160 \u00b0C @ Press: 0.1 Torr", "Density": "1 g/cm\u00b3"}}