{"cas_no": "21717-29-3", "cn_name": "6-\u4e59\u57fa\u5421\u5576-2-\u80fa", "en_name": ["6-Ethyl-2-pyridinamine", "2-Pyridinamine, 6-ethyl-", "Pyridine, 2-amino-6-ethyl-", "6-Ethyl-2-pyridinamine", "2-Amino-6-ethylpyridine", "(6-Ethylpyridin-2-yl)amine"], "SMILES": "C(C)C=1N=C(N)C=CC1", "physical_data": {"Molecular Weight": "122.17", "Molecular Formula": "C7H10N2", "Boiling Point": "217-219 \u00b0C"}}