{"cas_no": "21725-46-2", "cn_name": "\u8349\u51c0\u6d25", "en_name": ["Cyanazine", "Propanenitrile, 2-[[4-chloro-6-(ethylamino)-1,3,5-triazin-2-yl]amino]-2-methyl-", "Propionitrile, 2-[[4-chloro-6-(ethylamino)-s-triazin-2-yl]amino]-2-methyl-", "2-[[4-Chloro-6-(ethylamino)-1,3,5-triazin-2-yl]amino]-2-methylpropanenitrile", "SD 15418", "WL 19805", "2-(4-Chloro-6-ethylamino-s-triazin-2-ylamino)-2-methylpropionitrile", "2-Chloro-4-ethylamino-6-(1-methyl-1-cyanoethylamino)-s-triazine", "DW 3418", "2-Chloro-4-ethylamino-6-(\u03b1,\u03b1-dimethylcyanomethyl)amino-1,3,5-triazine", "Bladex", "Cyanazine", "Bladex 80WP", "2-[[4-Chloro-6-(ethylamino)-1,3,5-triazin-2-yl]amino]-2-methylpropionitrile", "Fortrol", "Cyanazin", "Bladex 50WP", "Gramex"], "SMILES": "N(C(C#N)(C)C)C=1N=C(NCC)N=C(Cl)N1", "physical_data": {"Molecular Weight": "240.69", "Molecular Formula": "C9H13ClN6", "Melting Point": "167.5-169 \u00b0C", "Density": "129 g/cm\u00b3 @ Temp: 20 \u00b0C"}}