{"cas_no": "21725-69-9", "cn_name": "\u82ef[D]\u5f02\u6076\u5511-3-\u9187", "en_name": ["1,2-Benzisoxazol-3(2H)-one", "1,2-Benzisoxazol-3(2H)-one", "1,2-Benzisoxazol-3-ol", "1,2-Benzisoxazolin-3-one", "3-Hydroxybenzisoxazole", "Benzo[d]isoxazol-3-one", "3-Hydroxy-1,2-benzisoxazole", "Benzo[d]isoxazol-3-ol", "NSC 683715", "1,2-Benzisoxazoline-3-one", "1,2-Benzoxazol-3-one", "2,3-Dihydro-1,2-benzoxazol-3-one", "1,2-Benzoxazol-3-ol"], "SMILES": "O=C1C=2C(=CC=CC2)ON1", "physical_data": {"Molecular Weight": "135.12", "Molecular Formula": "C7H5NO2", "Melting Point": "145-146 \u00b0C"}}