{"cas_no": "2172879-52-4", "cn_name": "LIT-927\u6e38\u79bb", "en_name": ["4-(4-Chlorophenyl)-6-(4-hydroxy-3-methoxyphenyl)-2(1H)-pyrimidinone", "2(1H)-Pyrimidinone, 4-(4-chlorophenyl)-6-(4-hydroxy-3-methoxyphenyl)-", "4-(4-Chlorophenyl)-6-(4-hydroxy-3-methoxyphenyl)-2(1H)-pyrimidinone"], "SMILES": "O=C1NC(=CC(=N1)C2=CC=C(Cl)C=C2)C3=CC(OC)=C(O)C=C3", "physical_data": {"Molecular Weight": "328.75", "Molecular Formula": "C17H13ClN2O3", "Melting Point": "306-308 \u00b0C"}}