{"cas_no": "21732-98-9", "cn_name": "1-H-1,2,4-\u4e09\u6c2e\u5511-3-\u7532\u9170\u80bc", "en_name": ["1H-1,2,4-Triazole-5-carboxylic acid, hydrazide", "1H-1,2,4-Triazole-5-carboxylic acid, hydrazide", "s-Triazole-3-carboxylic acid, hydrazide", "1H-1,2,4-Triazole-3-carboxylic acid, hydrazide", "IF 337", "1,2,4-Triazole-3-carboxylic acid hydrazide", "1H-1,2,4-Triazole-5-carbohydrazide", "1H-1,2,4-Triazole-3-carbohydrazide", "4H-1,2,4-Triazole-3-carbohydrazide"], "SMILES": "C(NN)(=O)C=1NC=NN1", "physical_data": {"Molecular Weight": "127.10", "Molecular Formula": "C3H5N5O", "Melting Point": "241-244 \u00b0C"}}