{"cas_no": "2173-69-5", "cn_name": "2-\u7532\u57fa-2-\u82ef\u57fa\u4e19-1-\u9187", "en_name": ["\u03b2,\u03b2-Dimethylbenzeneethanol", "Benzeneethanol, \u03b2,\u03b2-dimethyl-", "Phenethyl alcohol, \u03b2,\u03b2-dimethyl-", "\u03b2,\u03b2-Dimethylbenzeneethanol", "Neophyl alcohol", "2-Methyl-2-phenylpropanol", "2-Methyl-2-phenyl-1-propanol", "2,2-Dimethyl-2-phenylethanol", "NSC 956", "2-Phenyl-2-methylpropan-1-ol"], "SMILES": "C(CO)(C)(C)C1=CC=CC=C1", "physical_data": {"Molecular Weight": "150.22", "Molecular Formula": "C10H14O", "Boiling Point": "122-123 \u00b0C @ Press: 20 Torr", "Density": "0.9969 g/cm\u00b3 @ Temp: 20 \u00b0C"}}