{"cas_no": "21739-93-5", "cn_name": "2-\u6eb4-5-\u6c2f\u82ef\u7532\u9178", "en_name": ["2-Bromo-5-chlorobenzoic acid", "Benzoic acid, 2-bromo-5-chloro-", "2-Bromo-5-chlorobenzoic acid", "NSC 128879", "5-Chloro-2-bromobenzoic acid"], "SMILES": "C(O)(=O)C1=C(Br)C=CC(Cl)=C1", "physical_data": {"Molecular Weight": "235.46", "Molecular Formula": "C7H4BrClO2", "Melting Point": "148-149 \u00b0C"}}