{"cas_no": "2173-56-0", "cn_name": "\u6b63\u620a\u9178\u6b63\u620a\u916f", "en_name": ["Pentyl pentanoate", "Pentanoic acid, pentyl ester", "Valeric acid, pentyl ester", "Amyl valerate", "Amyl valerianate", "Pentyl valerate", "Pentyl pentanoate", "1-Pentyl n-valerate", "n-Pentyl pentanoate", "NSC 76414"], "SMILES": "O(C(CCCC)=O)CCCCC", "physical_data": {"Molecular Weight": "172.26", "Molecular Formula": "C10H20O2", "Boiling Point": "203.7 \u00b0C", "Melting Point": "-78.8 \u00b0C"}}