{"cas_no": "21739-92-4", "cn_name": "5-\u6eb4-2-\u6c2f\u82ef\u7532\u9178", "en_name": ["5-Bromo-2-chlorobenzoic acid", "Benzoic acid, 5-bromo-2-chloro-", "5-Bromo-2-chlorobenzoic acid", "2-chloro-5-bromobenzoic acid"], "SMILES": "C(O)(=O)C1=C(Cl)C=CC(Br)=C1", "physical_data": {"Molecular Weight": "235.46", "Molecular Formula": "C7H4BrClO2", "Melting Point": "165-167 \u00b0C"}}