{"cas_no": "21732-17-2", "cn_name": "\u56db\u6c2e\u5511\u4e59\u9178", "en_name": ["1H-Tetrazole-1-acetic acid", "1H-Tetrazole-1-acetic acid", "1-Tetrazoleacetic acid", "1-Tetrazolylacetic acid", "1H-Tetrazol-1-ylacetic acid", "2-(1H-Tetrazol-1-yl)acetic acid", "2-(1H-1,2,3,4-Tetrazol-1-yl)acetic acid", "2-(Tetrazol-1-yl)acetic acid", "1H-Tetraazol-1-ylacetic acid", "1H-1,2,3,4-Tetrazole-1-acetic acid"], "SMILES": "C(C(O)=O)N1C=NN=N1", "physical_data": {"Molecular Weight": "128.09", "Molecular Formula": "C3H4N4O2", "Melting Point": "128.2-129.2 \u00b0C"}}