{"cas_no": "21731-56-6", "cn_name": "4-\u7532\u781c\u57fa-2-\u785d\u57fa\u82ef\u80fa", "en_name": ["4-(Methylsulfonyl)-2-nitrobenzenamine", "Benzenamine, 4-(methylsulfonyl)-2-nitro-", "Aniline, 4-(methylsulfonyl)-2-nitro-", "4-(Methylsulfonyl)-2-nitrobenzenamine", "4-(Methylsulfonyl)-2-nitroaniline", "1-Amino-4-methylsulfonyl-2-nitrobenzene", "4-Amino-3-nitrophenyl methyl sulfone"], "SMILES": "N(=O)(=O)C1=CC(S(C)(=O)=O)=CC=C1N", "physical_data": {"Molecular Weight": "216.21", "Molecular Formula": "C7H8N2O4S", "Melting Point": "198-199 \u00b0C"}}