{"cas_no": "2173-57-1", "cn_name": "2-(2-\u7532\u57fa\u4e19\u6c27\u57fa)\u8418", "en_name": ["2-(2-Methylpropoxy)naphthalene", "Naphthalene, 2-(2-methylpropoxy)-", "Naphthalene, 2-isobutoxy-", "2-(2-Methylpropoxy)naphthalene", "Isobutyl 2-naphthyl ether", "2-Isobutoxynaphthalene", "\u03b2-Naphthyl isobutyl ether"], "SMILES": "O(CC(C)C)C1=CC2=C(C=C1)C=CC=C2", "physical_data": {"Molecular Weight": "200.28", "Molecular Formula": "C14H16O", "Boiling Point": "304.5 \u00b0C", "Melting Point": "33-33.5 \u00b0C"}}