{"cas_no": "2174-13-2", "cn_name": "3\u03b2-\u7f9f\u57fa-20-\u7f9f\u4e9a\u6c28\u57fa\u5b55\u753e-5,16-\u4e8c\u70ef-20-\u916e-3-\u918b\u9178\u916f", "en_name": ["(3\u03b2)-3-(Acetyloxy)pregna-5,16-dien-20-one 20-oxime", "Pregna-5,16-dien-20-one, 3-(acetyloxy)-, 20-oxime, (3\u03b2)-", "Pregna-5,16-dien-20-one, 3\u03b2-hydroxy-, oxime, acetate (ester)", "Pregna-5,16-dien-20-one, 3\u03b2-hydroxy-, acetate, oxime", "(3\u03b2)-3-(Acetyloxy)pregna-5,16-dien-20-one 20-oxime", "NSC 224249", "16-Dehydropregnenolone acetate oxime"], "SMILES": "CC12C3C(C4C(C)(CC3)C(C(=NO)C)=CC4)CC=C1CC(OC(C)=O)CC2", "physical_data": {"Molecular Weight": "371.51", "Molecular Formula": "C23H33NO3", "Melting Point": "220-223 \u00b0C"}}