{"cas_no": "21740-23-8", "cn_name": "1-\u6c2f-2-\u8131\u6c27-3,5-\u4e8c-O-\u5bf9\u6c2f\u82ef\u7532\u9170\u57fa-D-\u6838\u7cd6", "en_name": ["\u03b1-D-erythro-Pentofuranosyl chloride, 2-deoxy-, 3,5-bis(4-chlorobenzoate)", "\u03b1-D-erythro-Pentofuranosyl chloride, 2-deoxy-, 3,5-bis(4-chlorobenzoate)", "D-erythro-Pentofuranosyl chloride, 2-deoxy-, bis(p-chlorobenzoate), \u03b1-", "\u03b1-D-erythro-Pentofuranosyl chloride, 2-deoxy-, bis(4-chlorobenzoate)", "Benzoic acid, p-chloro-, diester with 2-deoxy-\u03b1-D-erythro-pentofuranosyl chloride", "2-Deoxy-3,5-di-O-(p-chlorobenzoyl)-\u03b1-D-erythro-pentofuranosyl chloride", "2-Deoxy-3,5-di-O-(p-chlorobenzoyl)-\u03b1-D-ribofuranosyl chloride", "1-Chloro-2-deoxy-3,5-O-bis(p-chlorobenzoyl)-\u03b1-D-erythro-pentofuranose", "3,5-O-Bis(p-chlorobenzoyl)-2-deoxy-\u03b1-D-ribofuranosyl chloride", "3,5-Bis(4-chlorobenzoyl)-2-deoxy-\u03b1-D-ribofuranosyl chloride", "3,5-Di-O-(p-chlorobenzoyl)-2-deoxy-\u03b1-D-erythro-pentofuranosyl chloride", "NSC 140594"], "SMILES": "C(OC(=O)C1=CC=C(Cl)C=C1)C2C(OC(=O)C3=CC=C(Cl)C=C3)CC(Cl)O2", "physical_data": {"Molecular Weight": "429.68", "Molecular Formula": "C19H15Cl3O5", "Melting Point": "130-131 \u00b0C"}}