{"cas_no": "217448-86-7", "cn_name": "\u5362\u975e\u9170\u80fa\u76f8\u5173\u7269\u8d28B", "en_name": ["Methyl 1-[(2,6-difluorophenyl)methyl]-1H-1,2,3-triazole-4-carboxylate", "1H-1,2,3-Triazole-4-carboxylic acid, 1-[(2,6-difluorophenyl)methyl]-, methyl ester", "Methyl 1-[(2,6-difluorophenyl)methyl]-1H-1,2,3-triazole-4-carboxylate", "1-(2,6-Difluorobenzyl)-1H-1,2,3-triazole-4-carboxylic acid methyl ester", "Methyl 1-(2,6-difluorobenzyl)-1H-1,2,3-triazole-4-carboxylate", "1-(2,6-Difluorobenzyl)-1,2,3-triazole-4-carboxylic acid methyl ester"], "SMILES": "C(C1=C(F)C=CC=C1F)N2C=C(C(OC)=O)N=N2", "physical_data": {"Molecular Weight": "253.20", "Molecular Formula": "C11H9F2N3O2", "Melting Point": "133-135 \u00b0C"}}