{"cas_no": "21743-75-9", "cn_name": "1H-\u56db\u5511-5-\u4e59\u9178", "en_name": ["Tetrazole-5-acetic acid", "2H-Tetrazole-5-acetic acid", "1H-Tetrazole-5-acetic acid", "Tetrazole-5-acetic acid", "NSC 282047", "(1H-Tetrazol-5-yl)acetic acid", "1,2,3,4-Tetrazole-5-acetic acid", "(2H-Tetrazol-5-yl)acetic acid", "2-(2H-Tetrazol-5-yl)acetic acid", "2-(1H-Tetrazol-5-yl)acetic acid", "2-(1H-1,2,3,4-Tetrazol-5-yl)acetic acid", "1H-Tetraazol-5-ylacetic acid", "2-(2H-1,2,3,4-Tetrazol-5-yl)acetic acid"], "SMILES": "C(C(O)=O)C=1NN=NN1", "physical_data": {"Molecular Weight": "128.09", "Molecular Formula": "C3H4N4O2", "Melting Point": "127 \u00b0C"}}