{"cas_no": "2174-59-6", "cn_name": "\u53bb\u7532\u57fa\u5ddd\u9648\u76ae\u7d20", "en_name": ["5-Demethylnobiletin", "4H-1-Benzopyran-4-one, 2-(3,4-dimethoxyphenyl)-5-hydroxy-6,7,8-trimethoxy-", "Flavone, 5-hydroxy-3\u2032,4\u2032,6,7,8-pentamethoxy-", "2-(3,4-Dimethoxyphenyl)-5-hydroxy-6,7,8-trimethoxy-4H-1-benzopyran-4-one", "5-O-Demethylnobiletin", "5-Hydroxy-6,7,8,3\u2032,4\u2032-pentamethoxyflavone", "5-Hydroxy-3\u2032,4\u2032,6,7,8-pentamethoxyflavone", "5-O-Desmethylnobiletin", "5-Desmethylnobiletin", "5-Demethylnobiletin", "NSC 618927", "2-(3,4-Dimethoxyphenyl)-5-hydroxy-6,7,8-trimethoxychromen-4-one"], "SMILES": "O(C)C1=C2C(=C(O)C(OC)=C1OC)C(=O)C=C(O2)C3=CC(OC)=C(OC)C=C3", "physical_data": {"Molecular Weight": "388.37", "Molecular Formula": "C20H20O8", "Melting Point": "145 \u00b0C"}}