{"cas_no": "21746-40-7", "cn_name": "6,6-\u4e8c\u7532\u57fa-5-\u4e9a\u7532\u57fa-1,3-\u73af\u620a\u4e8c\u70ef", "en_name": ["N-Propylmaleimide", "1H-Pyrrole-2,5-dione, 1-propyl-", "Maleimide, N-propyl-", "1-Propyl-1H-pyrrole-2,5-dione", "N-Propylmaleimide", "1-Propyl-2,5-dihydro-1H-pyrrole-2,5-dione"], "SMILES": "C(CC)N1C(=O)C=CC1=O", "physical_data": {"Molecular Weight": "139.15", "Molecular Formula": "C7H9NO2", "Boiling Point": "97 \u00b0C @ Press: 18 Torr", "Melting Point": "80 \u00b0C"}}