{"cas_no": "2174-64-3", "cn_name": "\u592b\u62c9\u7f8e\u8bfa", "en_name": ["5-Methoxyresorcinol", "1,3-Benzenediol, 5-methoxy-", "Resorcinol, 5-methoxy-", "5-Methoxy-1,3-benzenediol", "1,3-Dihydroxy-5-methoxybenzene", "Phloroglucinol monomethyl ether", "O-Methylphloroglucinol", "Flamenol", "1-Methoxy-3,5-benzenediol", "5-Methoxyresorcinol", "Monomethylphloroglucinol", "3-Hydroxy-5-methoxyphenol", "3,5-Dihydroxyanisole", "5-Methoxybenzene-1,3-diol"], "SMILES": "O(C)C1=CC(O)=CC(O)=C1", "physical_data": {"Molecular Weight": "140.14", "Molecular Formula": "C7H8O3", "Boiling Point": "187-189 \u00b0C @ Press: 12 Torr", "Melting Point": "80.3 \u00b0C"}}