{"cas_no": "21747-46-6", "cn_name": "(+)-\u5587\u53ed\u70ef", "en_name": ["Viridiflorene", "1H-Cycloprop[e]azulene, 1a,2,3,5,6,7,7a,7b-octahydro-1,1,4,7-tetramethyl-, (1aR,7R,7aS,7bR)-", "1H-Cycloprop[e]azulene, 1a,2,3,5,6,7,7a,7b-octahydro-1,1,4,7-tetramethyl-, (+)-", "1H-Cycloprop[e]azulene, 1a,2,3,5,6,7,7a,7b-octahydro-1,1,4,7-tetramethyl-, [1aR-(1a\u03b1,7\u03b1,7a\u03b2,7b\u03b1)]-", "Ledene", "(1aR,7R,7aS,7bR)-1a,2,3,5,6,7,7a,7b-Octahydro-1,1,4,7-tetramethyl-1H-cycloprop[e]azulene", "Viridiflorene", "Leden", "(+)-Ledene", "(+)-Viridiflorene"], "SMILES": "CC1(C)C2C3C(=C(C)CCC21)CCC3C", "physical_data": {"Molecular Weight": "204.35", "Molecular Formula": "C15H24", "Boiling Point": "116-118 \u00b0C", "Density": "0.9233 g/cm\u00b3 @ Temp: 20 \u00b0C"}}