{"cas_no": "21744-84-3", "cn_name": "4-\u7532\u57fa-2H-1,4-\u82ef\u5e76\u5641\u55ea-3(4H)-\u916e", "en_name": ["4-Methyl-2H-1,4-benzoxazin-3(4H)-one", "2H-1,4-Benzoxazin-3(4H)-one, 4-methyl-", "4-Methyl-2H-1,4-benzoxazin-3(4H)-one"], "SMILES": "CN1C=2C(OCC1=O)=CC=CC2", "physical_data": {"Molecular Weight": "163.17", "Molecular Formula": "C9H9NO2", "Melting Point": "57-58 \u00b0C"}}