{"cas_no": "21742-00-7", "cn_name": "2-\u4e09\u6c1f\u7532\u57fa\u82c4\u57fa\u6c2f", "en_name": ["2-Trifluoromethylbenzyl chloride", "Benzene, 1-(chloromethyl)-2-(trifluoromethyl)-", "o-Xylene, \u03b1\u2032-chloro-\u03b1,\u03b1,\u03b1-trifluoro-", "1-(Chloromethyl)-2-(trifluoromethyl)benzene", "2-Trifluoromethylbenzyl chloride"], "SMILES": "C(Cl)C1=C(C(F)(F)F)C=CC=C1", "physical_data": {"Molecular Weight": "194.58", "Molecular Formula": "C8H6ClF3", "Boiling Point": "72-73 \u00b0C @ Press: 15 Torr"}}