{"cas_no": "2175-90-8", "cn_name": "\u4e8c\u82ef\u57fa\u5bcc\u70ef", "en_name": ["Diphenylfulvene", "Benzene, 1,1\u2032-(2,4-cyclopentadien-1-ylidenemethylene)bis-", "Methane, 2,4-cyclopentadien-1-ylidenediphenyl-", "Benzene, (2,4-cyclopentadien-1-ylidenephenylmethyl)-", "Fulvene, 6,6-diphenyl-", "1,1\u2032-(2,4-Cyclopentadien-1-ylidenemethylene)bis[benzene]", "Diphenylfulvene", "6,6-Diphenylfulvene", "5-(Diphenylmethylene)-1,3-cyclopentadiene", "NSC 402188", "6,6-Diphenylpentafulvene", "[2-(Cyclopenta-2,4-dienylidene)propane-1,3-diyl]dibenzene", "[Cyclopenta-2,4-dien-1-ylidene(phenyl)methyl]benzene"], "SMILES": "C(=C1C=CC=C1)(C2=CC=CC=C2)C3=CC=CC=C3", "physical_data": {"Molecular Weight": "230.30", "Molecular Formula": "C18H14", "Boiling Point": "309 \u00b0C", "Melting Point": "82 \u00b0C"}}