{"cas_no": "2176-62-7", "cn_name": "\u4e94\u6c2f\u5421\u5576", "en_name": ["Pentachloropyridine", "Pyridine, 2,3,4,5,6-pentachloro-", "Pyridine, pentachloro-", "2,3,4,5,6-Pentachloropyridine", "Pentachloropyridine", "Perchloropyridine", "NSC 26286"], "SMILES": "ClC=1C(Cl)=C(Cl)C(Cl)=NC1Cl", "physical_data": {"Molecular Weight": "251.33", "Molecular Formula": "C5Cl5N", "Boiling Point": "280 \u00b0C", "Melting Point": "125.5 \u00b0C"}}