{"cas_no": "21763-80-4", "cn_name": "5-\u7f9f\u57fa-3',4',6,7-\u56db\u7532\u6c27\u57fa\u9ec4\u916e", "en_name": ["5-Hydroxy-6,7,3\u2032,4\u2032-tetramethoxyflavone", "4H-1-Benzopyran-4-one, 2-(3,4-dimethoxyphenyl)-5-hydroxy-6,7-dimethoxy-", "Flavone, 5-hydroxy-3\u2032,4\u2032,6,7-tetramethoxy-", "2-(3,4-Dimethoxyphenyl)-5-hydroxy-6,7-dimethoxy-4H-1-benzopyran-4-one", "5-Hydroxy-6,7,3\u2032,4\u2032-tetramethoxyflavone", "5-Hydroxy-3\u2032,4\u2032,6,7-tetramethoxyflavone", "3\u2032-O-Methyleupatorin", "6-Methoxyluteolin 3\u2032,4\u2032,7-trimethyl ether", "6,7,3\u2032,4\u2032-Tetramethoxy-5-hydroxyflavone", "Santaflavone", "6-Methoxyluteolin 7,3\u2032,4\u2032-trimethyl ether", "5-Desmethylsinensetin"], "SMILES": "OC1=C2C(OC(=CC2=O)C3=CC(OC)=C(OC)C=C3)=CC(OC)=C1OC", "physical_data": {"Molecular Weight": "358.34", "Molecular Formula": "C19H18O7", "Melting Point": "189-190 \u00b0C"}}