{"cas_no": "2176-45-6", "cn_name": "3-\u82ef\u6c27\u57fa\u5421\u5576", "en_name": ["3-Phenoxypyridine", "Pyridine, 3-phenoxy-", "3-Phenoxypyridine", "CI 844", "3-Pyridinyl phenyl ether"], "SMILES": "O(C1=CC=CC=C1)C=2C=CC=NC2", "physical_data": {"Molecular Weight": "171.20", "Molecular Formula": "C11H9NO", "Boiling Point": "147-149 \u00b0C"}}