{"cas_no": "2176-98-9", "cn_name": "\u56db\u4e19\u57fa\u9521", "en_name": ["Tetrapropylstannane", "Stannane, tetrapropyl-", "Tin, tetrapropyl-", "Tetrapropylstannane", "Tetrapropyltin", "NSC 78942"], "SMILES": "[Sn](CCC)(CCC)(CCC)CCC", "physical_data": {"Molecular Weight": "291.06", "Molecular Formula": "C12H28Sn", "Boiling Point": "228 \u00b0C", "Melting Point": "-109.1 \u00b0C"}}