{"cas_no": "2177-70-0", "cn_name": "\u7532\u57fa\u4e19\u70ef\u9178\u82ef\u916f", "en_name": ["Phenyl methacrylate", "2-Propenoic acid, 2-methyl-, phenyl ester", "Methacrylic acid, phenyl ester", "Phenyl methacrylate", "NSC 177877", "Acryester PH", "Miramer M 1041"], "SMILES": "O(C(C(C)=C)=O)C1=CC=CC=C1", "physical_data": {"Molecular Weight": "162.19", "Molecular Formula": "C10H10O2", "Boiling Point": "47-50 \u00b0C @ Press: 0.2 Torr", "Density": "1.0542 g/cm\u00b3 @ Temp: 20 \u00b0C"}}