{"cas_no": "2177-62-0", "cn_name": "L-\u5929\u51ac\u6c28\u9178-4-\u7532\u916f", "en_name": ["Aspartic acid \u03b2-methyl ester", "L-Aspartic acid, 4-methyl ester", "Aspartic acid, 4-methyl ester, L-", "Aspartic acid \u03b2-methyl ester", "L-Aspartic acid \u03b2-methyl ester", "\u03b2-L-Aspartyl methyl ester", "\u03b2-Methyl aspartate", "(S)-2-Aminobutanedioic acid 4-methyl ester", "4-Methyl L-aspartate", "\u03b2-Methyl L-aspartate", "(S)-2-Amino-4-methoxy-4-oxobutanoic acid"], "SMILES": "C(C(C(O)=O)N)C(OC)=O", "physical_data": {"Molecular Weight": "147.13", "Molecular Formula": "C5H9NO4", "Melting Point": "193-195 \u00b0C"}}