{"cas_no": "2177-63-1", "cn_name": "L-\u5929\u51ac\u6c28\u9178-4-\u82c4\u916f", "en_name": ["4-(Phenylmethyl) hydrogen L-aspartate", "L-Aspartic acid, 4-(phenylmethyl) ester", "Aspartic acid, 4-benzyl ester, L-", "4-(Phenylmethyl) hydrogen L-aspartate", "Benzyl aspartate", "L-Aspartic acid 4-benzyl ester", "\u03b2-Benzyl aspartate", "Aspartic acid \u03b2-benzyl ester", "\u03b2-Benzyl L-aspartate", "4-Benzyl L-aspartate", "L-Aspartic acid \u03b2-benzyl ester", "L-Aspartic acid 4-O-benzyl ester", "NSC 524167", "(2S)-2-Amino-4-(benzyloxy)-4-oxobutanoic acid", "(2S)-2-Amino-4-oxo-4-phenylmethoxybutanoic acid"], "SMILES": "C(OC(CC(C(O)=O)N)=O)C1=CC=CC=C1", "physical_data": {"Molecular Weight": "223.23", "Molecular Formula": "C11H13NO4", "Melting Point": "111 \u00b0C"}}