{"cas_no": "2177-47-1", "cn_name": "2-\u7532\u57fa\u831a", "en_name": ["2-Methylindene", "1H-Indene, 2-methyl-", "Indene, 2-methyl-", "2-Methyl-1H-indene", "2-Methylindene"], "SMILES": "CC=1CC=2C(C1)=CC=CC2", "physical_data": {"Molecular Weight": "130.19", "Molecular Formula": "C10H10", "Boiling Point": "208 \u00b0C", "Melting Point": "80 \u00b0C", "Density": "0.9734 g/cm\u00b3 @ Temp: 19 \u00b0C"}}