{"cas_no": "21789-36-6", "cn_name": "2,4-\u4e8c\u7532\u57fa\u82c4\u8148", "en_name": ["2,4-Dimethylbenzonitrile", "Benzonitrile, 2,4-dimethyl-", "2,4-Dimethylbenzonitrile", "1-Cyano-2,4-dimethylbenzene"], "SMILES": "C(#N)C1=C(C)C=C(C)C=C1", "physical_data": {"Molecular Weight": "131.17", "Molecular Formula": "C9H9N", "Boiling Point": "112 \u00b0C @ Press: 21 Torr", "Melting Point": "24-25 \u00b0C"}}