{"cas_no": "2179-57-9", "cn_name": "\u4e8c\u70ef\u4e19\u57fa\u4e8c\u786b", "en_name": ["Diallyl disulfide", "Disulfide, di-2-propen-1-yl", "Allyl disulfide", "Disulfide, di-2-propenyl", "Di-2-propen-1-yl disulfide", "Diallyl disulfide", "Diallyl disulphide", "4,5-Dithia-1,7-octadiene", "Garlicin", "Di(2-propenyl) disulfide", "Bis(2-propenyl) disulfide", "Dipropenyl disulfide", "NSC 29228", "1,2-Diallyldisulfane"], "SMILES": "S(SCC=C)CC=C", "physical_data": {"Molecular Weight": "146.27", "Molecular Formula": "C6H10S2", "Boiling Point": "79 \u00b0C @ Press: 16 Torr", "Density": "1.010 g/cm\u00b3 @ Temp: 15 \u00b0C"}}