{"cas_no": "21794-55-8", "cn_name": "\u67d4\u7ea2\u916e", "en_name": ["(+)-Daunomycinone", "5,12-Naphthacenedione, 8-acetyl-7,8,9,10-tetrahydro-6,8,10,11-tetrahydroxy-1-methoxy-, (8S,10S)-", "Daunomycinone", "5,12-Naphthacenedione, 8-acetyl-7,8,9,10-tetrahydro-6,8,10,11-tetrahydroxy-1-methoxy-, (8S-cis)-", "(8S,10S)-8-Acetyl-7,8,9,10-tetrahydro-6,8,10,11-tetrahydroxy-1-methoxy-5,12-naphthacenedione", "Daunorubicin aglycone", "Leukaemomycinone C", "Daunomycin aglicone", "(+)-Daunomycinone", "Daunomycinon", "Daunorubicinone", "NSC 109351"], "SMILES": "O=C1C=2C(=C(O)C3=C(C2O)C(O)CC(C(C)=O)(O)C3)C(=O)C=4C1=C(OC)C=CC4", "physical_data": {"Molecular Weight": "398.36", "Molecular Formula": "C21H18O8", "Melting Point": "213-214 \u00b0C"}}