{"cas_no": "2179-60-4", "cn_name": "\u7532\u57fa\u4e19\u57fa\u4e8c\u786b\u919a", "en_name": ["Methyl propyl disulfide", "Disulfide, methyl propyl", "Methyl propyl disulfide", "2,3-Dithiahexane", "1-(Methyldisulfanyl)propane"], "SMILES": "C(SSC)CC", "physical_data": {"Molecular Weight": "122.25", "Molecular Formula": "C4H10S2", "Boiling Point": "95.6 \u00b0C", "Melting Point": "-112.98 \u00b0C", "Density": "0.8375 g/cm\u00b3 @ Temp: 25 \u00b0C"}}