{"cas_no": "2179-15-9", "cn_name": "Z-LYS-ONP \u76d0\u9178\u76d0", "en_name": ["L-Lysine, N2-[(phenylmethoxy)carbonyl]-, 4-nitrophenyl ester, hydrochloride (1:1)", "L-Lysine, N2-[(phenylmethoxy)carbonyl]-, 4-nitrophenyl ester, hydrochloride (1:1)", "Lysine, N2-carboxy-, N2-benzyl p-nitrophenyl ester, monohydrochloride, L-", "L-Lysine, N2-[(phenylmethoxy)carbonyl]-, 4-nitrophenyl ester, monohydrochloride"], "SMILES": "O(C(C(NC(OCC1=CC=CC=C1)=O)CCCCN)=O)C2=CC=C(N(=O)=O)C=C2.Cl", "physical_data": {"Molecular Weight": "", "Molecular Formula": "C20H23N3O6.ClH", "Melting Point": "150-152 \u00b0C"}}