{"cas_no": "2179-59-1", "cn_name": "\u70ef\u4e19\u57fa\u4e19\u57fa\u4e8c\u786b\u919a", "en_name": ["Allyl propyl disulfide", "Disulfide, 2-propen-1-yl propyl", "Disulfide, allyl propyl", "Disulfide, 2-propenyl propyl", "2-Propen-1-yl propyl disulfide", "Allyl propyl disulfide", "Propyl allyl disulfide", "4,5-Dithia-1-octene", "2-Propenyl propyl disulfide", "1-(Prop-2-enyldisulfanyl)propane"], "SMILES": "S(SCC=C)CCC", "physical_data": {"Molecular Weight": "148.29", "Molecular Formula": "C6H12S2", "Boiling Point": "78-80 \u00b0C @ Press: 13 Torr", "Melting Point": "-15 \u00b0C", "Density": "0.9 g/cm\u00b3"}}