{"cas_no": "218-01-9", "cn_name": "\u5c48", "en_name": ["Chrysene", "Chrysene", "1,2-Benzphenanthrene", "Benzo[a]phenanthrene", "1,2-Benzophenanthrene", "NSC 6175", "[4]Phenacene"], "SMILES": "C12=C(C=3C(C=C1)=CC=CC3)C=CC=4C2=CC=CC4", "physical_data": {"Molecular Weight": "228.29", "Molecular Formula": "C18H12", "Boiling Point": "448 \u00b0C", "Melting Point": "258.2 \u00b0C", "Density": "1.274 g/cm\u00b3 @ Temp: 20 \u00b0C"}}