{"cas_no": "21801-79-6", "cn_name": "2-\u7532\u57fa\u54aa\u5511\u5e76\u5421\u5576-3-\u7fa7\u9178", "en_name": ["2-Methylimidazo[1,2-a]pyridine-3-carboxylic acid", "Imidazo[1,2-a]pyridine-3-carboxylic acid, 2-methyl-", "2-Methylimidazo[1,2-a]pyridine-3-carboxylic acid", "NSC 156822"], "SMILES": "C(O)(=O)C=1N2C(=NC1C)C=CC=C2", "physical_data": {"Molecular Weight": "176.17", "Molecular Formula": "C9H8N2O2", "Melting Point": "~185 \u00b0C (decomp) (approx)"}}