{"cas_no": "21802-37-9", "cn_name": "\u6d45\u84dd\u9709\u7d20", "en_name": ["(E)-4-Methoxy[2,2\u2032-bipyridine]-6-carboxaldehyde oxime", "[2,2\u2032-Bipyridine]-6-carboxaldehyde, 4-methoxy-, oxime, (E)-", "Cerulomycin", "(E)-4-Methoxy[2,2\u2032-bipyridine]-6-carboxaldehyde oxime", "Caerulomycin A", "Caerulomycin"], "SMILES": "C(=NO)C1=NC(=CC(OC)=C1)C2=CC=CC=N2", "physical_data": {"Molecular Weight": "229.23", "Molecular Formula": "C12H11N3O2", "Melting Point": "173 \u00b0C"}}