{"cas_no": "21806-61-1", "cn_name": "\u4e19\u70ef\u57fa-1,3-\u78fa\u9178\u5185\u916f", "en_name": ["5H-1,2-Oxathiole, 2,2-dioxide", "5H-1,2-Oxathiole, 2,2-dioxide", "1-Propene-1-sulfonic acid, 3-hydroxy-, \u03b3-sultone", "1,3-Propene sultone", "1-Propene-1,3-sultone"], "SMILES": "O=S1(=O)C=CCO1", "physical_data": {"Molecular Weight": "120.13", "Molecular Formula": "C3H4O3S", "Boiling Point": "118 \u00b0C", "Melting Point": "78 \u00b0C"}}