{"cas_no": "21800-83-9", "cn_name": "\u5de6\u65cb\u4e59\u57fa\u753e\u70ef\u4e8c\u916e", "en_name": ["13-Ethylgon-4-ene-3,17-dione", "Gon-4-ene-3,17-dione, 13-ethyl-", "13-Ethylgon-4-ene-3,17-dione", "13\u03b2-Ethylgon-4-en-3,17-dione", "(+)-13-Ethylgon-4-ene-3,17-dione", "13\u03b2-Ethylgon-4-ene-3,17-dione", "18-Methyl-19-norandrost-4-ene-3,17-dione", "(+)-13\u03b2-Ethylgon-4-ene-3,17-dione", "18-Methylestr-4-ene-3,17-dione", "18a-Homo-19-norandrost-4-ene-3,17-dione"], "SMILES": "C(C)C12C(C3C(CC1)C4C(CC3)=CC(=O)CC4)CCC2=O", "physical_data": {"Molecular Weight": "286.41", "Molecular Formula": "C19H26O2", "Melting Point": "175-176 \u00b0C"}}