{"cas_no": "2181-97-7", "cn_name": "(\u7532\u6c27\u57fa\u7fb0\u57fa\u7532\u57fa)\u4e09\u82ef\u57fa\u6c2f\u5316\u93fb", "en_name": ["Phosphonium, (2-methoxy-2-oxoethyl)triphenyl-, chloride (1:1)", "Phosphonium, (2-methoxy-2-oxoethyl)triphenyl-, chloride (1:1)", "Phosphonium, (carboxymethyl)triphenyl-, chloride, methyl ester", "Phosphonium, (2-methoxy-2-oxoethyl)triphenyl-, chloride", "(Carboxymethyl)triphenylphosphonium chloride, methyl ester", "(Methoxycarbonylmethyl)triphenylphosphonium chloride", "(2-Methoxy-2-oxoethyl)triphenylphosphonium chloride", "(Methoxycarbonylmethyl)tris(phenyl)phosphonium chloride"], "SMILES": "[P+](CC(OC)=O)(C1=CC=CC=C1)(C2=CC=CC=C2)C3=CC=CC=C3.[Cl-]", "physical_data": {"Molecular Weight": "", "Molecular Formula": "C21H20O2P.Cl", "Melting Point": "142 \u00b0C"}}