{"cas_no": "21816-08-0", "cn_name": "3-\u6eb4-1-\u91d1\u521a\u70f7\u7532\u9178", "en_name": ["3-Bromo-1-adamantanecarboxylic acid", "Tricyclo[3.3.1.13,7]decane-1-carboxylic acid, 3-bromo-", "1-Adamantanecarboxylic acid, 3-bromo-", "3-Bromotricyclo[3.3.1.13,7]decane-1-carboxylic acid", "1-Bromo-3-carboxyadamantane", "1-Bromoadamantane-3-carboxylic acid", "3-Bromo-1-adamantanecarboxylic acid", "3-Bromo-1-carboxyadamantane", "3-Bromoadamantan-1-carboxylic acid", "3-Bromoadamantanecarboxylic acid", "3-Bromoadamantane-1-carboxylic cid"], "SMILES": "C(O)(=O)C12CC3(Br)CC(C1)CC(C2)C3", "physical_data": {"Molecular Weight": "259.14", "Molecular Formula": "C11H15BrO2", "Melting Point": "146.5 \u00b0C"}}