{"cas_no": "2181-42-2", "cn_name": "\u4e09\u7532\u57fa\u7898\u5316\u950d", "en_name": ["Trimethylsulfonium iodide", "Sulfonium, trimethyl-, iodide (1:1)", "Sulfonium, trimethyl-, iodide", "Trimethylsulfonium iodide", "Trimethylsulphonium iodide", "Trimethyl-\u03bb[3]-sulfane hydroiodide"], "SMILES": "[S+](C)(C)C.[I-]", "physical_data": {"Molecular Weight": "", "Molecular Formula": "C3H9S.I", "Melting Point": "203-207 \u00b0C"}}