{"cas_no": "21810-34-4", "cn_name": "6-\u7f9f\u57fa\u5df1\u9178\u94a0", "en_name": ["Hexanoic acid, 6-hydroxy-, potassium salt (1:1)", "Hexanoic acid, 6-hydroxy-, potassium salt (1:1)", "Hexanoic acid, 6-hydroxy-, monopotassium salt", "Potassium 6-Hydroxyhexanoic acid"], "SMILES": "C(CC(O)=O)CCCO.[K]", "physical_data": {"Molecular Weight": "", "Molecular Formula": "C6H12O3.K", "Melting Point": "203-205 \u00b0C"}}