{"cas_no": "21829-25-4", "cn_name": "\u785d\u82ef\u5730\u5e73", "en_name": ["Nifedipine", "3,5-Pyridinedicarboxylic acid, 1,4-dihydro-2,6-dimethyl-4-(2-nitrophenyl)-, 3,5-dimethyl ester", "3,5-Pyridinedicarboxylic acid, 1,4-dihydro-2,6-dimethyl-4-(o-nitrophenyl)-, dimethyl ester", "3,5-Pyridinedicarboxylic acid, 1,4-dihydro-2,6-dimethyl-4-(2-nitrophenyl)-, dimethyl ester", "Nifedipine", "BAY-a 1040", "4-(2-Nitrophenyl)-2,6-dimethyl-3,5-dicarbomethoxy-1,4-dihydropyridine", "Adalat", "BAY 1040", "2,6-Dimethyl-3,5-dicarbomethoxy-4-(2-nitrophenyl)-1,4-dihydropyridine", "Corynphar", "Corinfar", "Procardia", "Fenihidine", "Glopir", "TN 873R", "Cordafen", "2,6-Dimethyl-4-(2-nitrophenyl)-1,4-dihydropyridine-3,5-dicarboxylic acid dimethyl ester", "Cordaflex", "Niphedipine", "Dimethyl 4-(o-Nitrophenyl)-2,6-dimethyl-1,4-dihydro-3,5-pyridinedicarboxylate", "Procardia XL", "Nifelate", "Sepamit R", "Adalat CC", "Nifelan", "Nifedipine retard", "UV-ENP 349PINA", "Macorel", "Duranifin", "Adalat 10", "Nifangin", "Anpine", "Dignokonstant", "Zenusin", "Adalat LA", "Nifedipres", "Adalat GITS 30", "Fedcor Retard", "Alonix S", "Fedipin", "Coracten", "Vasdalat", "Fenamon SR", "Adalat 20", "Nifedirex LP", "Nifelat", "Ecodipin", "Fenamon", "Pidilat", "Adalat CR", "Nifedin", "Nifedine", "Hadipine", "Cordalat", "Myogard", "Adalat LP", "Nifecard", "Adalat 5", "Calcilat", "Nifidine", "Adalat GITS", "Tibricol", "Nificard", "Osmo-Adalat", "Chronadalate LP", "Sepamit", "Nyefax", "Nifebene", "Vasofed", "Tensopin", "Alpha-Nifedipine Retard", "Cordipin", "Corotrend", "Ecodipin E", "Nifelat Q", "Adalat FT", "Adapine", "Citilat", "Alonix", "Cardifen", "Dilcor", "Normadil", "Adalat PA", "Dipinkor", "Nifdemin", "Adalat Oros", "Nicardia", "Apo-Nifed", "Fedcor", "Adalate", "Cardilat", "Nifecor", "Cardionorm", "NIfedilat", "Nifedepat", "Nifar", "Adalat Crono", "Depin", "Dilafed", "Orix", "Nifedicor", "Megalat", "Hexadilat", "Calcibloc", "Nyefax Retard", "Novo Nifedin", "Angipec", "Vasdalat Retard", "Aprical", "Coral", "Alat", "Calcigard", "Nedipin", "Nifipen", "Slofedipine XL", "Chronadalate", "Cordilan", "Bonacid", "Anifed", "Alfadat", "Nifensar XL", "Adapress", "Ecodipi", "Kordafen", "Introcar", "Cordicant", "Aldipin", "Oxcord", "Camont", "Cardilate", "Dimethyl 1,4-dihydro-2,6-dimethyl-4-(2-nitrophenyl)-3,5-pyridinedicarboxylate", "Adalat retard", "Nifedate", "Nifelantern", "Nicardia retard", "Calciguard", "Xinran", "Corinfar retard", "1,4-Dihydro-2,6-dimethyl-4-(2-nitrophenyl)-3,5-pyridinedicarboxylic acid dimethyl ester", "Cordipin-retard", "Calbloc retard", "Calcigard retard", "Cardules retard", "Depicor SR", "Depin retard", "Nifedine SR", "Nifelet retard", "Dimethyl 2,6-dimethyl-4-(2-nitrophenyl)-1,4-dihydropyridine-3,5-dicarboxylate", "3,5-Dimethyl 2,6-dimethyl-4-(2-nitrophenyl)-1,4-dihydropyridine-3,5-dicarboxylate", "2,6-Dimethyl-4-(o-nitrophenyl)-3,5-dimethoxycarbonyl-1,4-dihydropyridine", "MeSH ID: D009543"], "SMILES": "C(OC)(=O)C=1C(C(C(OC)=O)=C(C)NC1C)C2=C(N(=O)=O)C=CC=C2", "physical_data": {"Molecular Weight": "346.33", "Molecular Formula": "C17H18N2O6", "Melting Point": "172-174 \u00b0C"}}