{"cas_no": "2182-55-0", "cn_name": "\u73af\u5df1\u57fa\u4e59\u70ef\u919a", "en_name": ["Cyclohexyl vinyl ether", "Cyclohexane, (ethenyloxy)-", "Ether, cyclohexyl vinyl", "(Ethenyloxy)cyclohexane", "Cyclohexyl vinyl ether", "NSC 75856", "CHVE", "(Cyclohexyloxy)ethene", "Vinyloxycyclohexane"], "SMILES": "O(C=C)C1CCCCC1", "physical_data": {"Molecular Weight": "126.20", "Molecular Formula": "C8H14O", "Boiling Point": "147-148 \u00b0C", "Density": "0.8883 g/cm\u00b3 @ Temp: 420 \u00b0C"}}