{"cas_no": "2182-14-1", "cn_name": "\u6587\u591a\u7075", "en_name": ["(-)-Vindoline", "Aspidospermidine-3-carboxylic acid, 4-(acetyloxy)-6,7-didehydro-3-hydroxy-16-methoxy-1-methyl-, methyl ester, (2\u03b2,3\u03b2,4\u03b2,5\u03b1,12R,19\u03b1)-", "Vindoline, (-)-", "Aspidospermidine-3-carboxylic acid, 4-(acetyloxy)-6,7-didehydro-3-hydroxy-16-methoxy-1-methyl-, methyl ester, (2\u03b2,3\u03b2,4\u03b2,5\u03b1,12\u03b2,19\u03b1)-", "1H-Indolizino[8,1-cd]carbazole, aspidospermidine-3-carboxylic acid deriv.", "Vindolin", "(-)-Vindoline", "Vindoline", "NSC 91994"], "SMILES": "C(C)C12C3C4(C(C(C(OC)=O)(O)C1OC(C)=O)N(C)C=5C4=CC=C(OC)C5)CCN3CC=C2", "physical_data": {"Molecular Weight": "456.53", "Molecular Formula": "C25H32N2O6", "Melting Point": "164-165 \u00b0C"}}