{"cas_no": "21820-51-9", "cn_name": "L-\u78f7\u9178\u916a\u6c28\u9178", "en_name": ["Phospho-L-tyrosine", "L-Tyrosine, O-phosphono-", "Tyrosine, dihydrogen phosphate (ester), L-", "L-Tyrosine, dihydrogen phosphate (ester)", "Tyrosine, di-H phosphate", "Tyrosine, phosphate", "O-Phosphono-L-tyrosine", "Tyrosine O-phosphate", "O-Phospho-L-tyrosine", "O-Phosphotyrosine", "Phosphotyrosine", "L-Phosphotyrosine", "Phospho-L-tyrosine", "L-Tyrosine-O-phosphate", "(2S)-2-Amino-3-(4-phosphonooxyphenyl)propanoic acid", "Phosphonotyrosine"], "SMILES": "O(P(=O)(O)O)C1=CC=C(CC(C(O)=O)N)C=C1", "physical_data": {"Molecular Weight": "261.17", "Molecular Formula": "C9H12NO6P", "Melting Point": "225 \u00b0C"}}