{"cas_no": "21829-28-7", "cn_name": "\u95f4\u785d\u82ef\u5730\u5e73", "en_name": ["1,4-Dihydro-2,6-dimethyl-4-(3-nitrophenyl)-3,5-pyridinedicarboxylic acid diethyl ester", "3,5-Pyridinedicarboxylic acid, 1,4-dihydro-2,6-dimethyl-4-(3-nitrophenyl)-, 3,5-diethyl ester", "3,5-Pyridinedicarboxylic acid, 1,4-dihydro-2,6-dimethyl-4-(m-nitrophenyl)-, diethyl ester", "3,5-Pyridinedicarboxylic acid, 1,4-dihydro-2,6-dimethyl-4-(3-nitrophenyl)-, diethyl ester", "Metanifedipine", "1,4-Dihydro-2,6-dimethyl-4-(3-nitrophenyl)-3,5-pyridinedicarboxylic acid diethyl ester", "NSC 136464", "Diethyl 2,6-dimethyl-4-(3-nitrophenyl)-1,4-dihydropyridine-3,5-dicarboxylate", "2,6-Dimethyl-4-(3-nitrophenyl)-1,4-dihydro-pyridine-3,5-dicarboxylic acid diethyl ester", "Diethyl 4-(3-nitrophenyl)-2,6-dimethyl-1,4-dihydropyridine-3,5-dicarboxylate", "2,6-Dimethyl-4-(m-nitrophenyl)-3,5-diethoxycarbonyl-1,4-dihydropyridine"], "SMILES": "C(OCC)(=O)C=1C(C(C(OCC)=O)=C(C)NC1C)C2=CC(N(=O)=O)=CC=C2", "physical_data": {"Molecular Weight": "374.39", "Molecular Formula": "C19H22N2O6", "Melting Point": "164 \u00b0C"}}