{"cas_no": "2182-66-3", "cn_name": "\u4e8c\u7532\u57fa\u4e8c\u4e59\u9170\u6c27\u57fa\u7845\u70f7", "en_name": ["Silanediol, 1,1-dimethyl-, 1,1-diacetate", "Silanediol, 1,1-dimethyl-, 1,1-diacetate", "Silanediol, dimethyl-, diacetate", "Dimethyldiacetoxysilane", "Diacetoxydimethylsilane", "Bis(acetyloxy)dimethylsilane", "[Acetyloxy(dimethyl)silyl] acetate", "(Acetyloxy)dimethylsilyl acetate"], "SMILES": "O([Si](OC(C)=O)(C)C)C(C)=O", "physical_data": {"Molecular Weight": "176.24", "Molecular Formula": "C6H12O4Si", "Boiling Point": "165 \u00b0C", "Melting Point": "-12.5 \u00b0C", "Density": "1.054 g/cm\u00b3"}}