{"cas_no": "21835-01-8", "cn_name": "\u4e59\u57fa\u73af\u620a\u70ef\u9187\u916e", "en_name": ["3-Ethyl-2-hydroxy-2-cyclopenten-1-one", "2-Cyclopenten-1-one, 3-ethyl-2-hydroxy-", "3-Ethyl-2-hydroxy-2-cyclopenten-1-one", "Ethylcyclotene", "3-Ethyl-2-cyclopenten-2-ol-1-one", "2-Hydroxy-3-ethyl-2-cyclopentenone", "2-Hydroxy-3-ethyl-2-cyclopenten-1-one"], "SMILES": "C(C)C1=C(O)C(=O)CC1", "physical_data": {"Molecular Weight": "126.15", "Molecular Formula": "C7H10O2", "Boiling Point": "78-80 \u00b0C @ Press: 4 Torr", "Melting Point": "38-40 \u00b0C"}}