{"cas_no": "21834-92-4", "cn_name": "\u53ef\u5361\u919b", "en_name": ["5-Methyl-2-phenyl-2-hexenal", "Benzeneacetaldehyde, \u03b1-(3-methylbutylidene)-", "2-Hexenal, 5-methyl-2-phenyl-", "\u03b1-(3-Methylbutylidene)benzeneacetaldehyde", "5-Methyl-2-phenyl-2-hexenal", "2-Phenyl-5-methylhex-2-enal", "Cocal"], "SMILES": "C(=CCC(C)C)(C=O)C1=CC=CC=C1", "physical_data": {"Molecular Weight": "188.27", "Molecular Formula": "C13H16O", "Boiling Point": "96-100 \u00b0C @ Press: 0.7 Torr"}}