{"cas_no": "2185-00-4", "cn_name": "2,5-\u5641\u5511\u70f7\u4e8c\u916e", "en_name": ["2,5-Oxazolidinedione", "2,5-Oxazolidinedione", "Glycine, N-carboxy-, cyclic anhydride", "Glycine-N-carboxy acid anhydride", "N-Carboxyglycine anhydride", "Glycine N-carboxy anhydride", "Glycine-N-carboxylic anhydride", "Leuchs' anhydride", "1,3-Oxazolidine-2,5-dione", "Glycine-NCA"], "SMILES": "O=C1OC(=O)NC1", "physical_data": {"Molecular Weight": "101.06", "Molecular Formula": "C3H3NO3", "Melting Point": "&gt;200 \u00b0C"}}