{"cas_no": "2185-03-7", "cn_name": "L-\u9ad8\u4e1d\u6c28\u9178\u5185\u916f\u76d0\u9178\u76d0", "en_name": ["2(3H)-Furanone, 3-aminodihydro-, hydrochloride (1:1), (3S)-", "2(3H)-Furanone, 3-aminodihydro-, hydrochloride (1:1), (3S)-", "2(3H)-Furanone, 3-aminodihydro-, hydrochloride, (S)-", "2(3H)-Furanone, 3-aminodihydro-, hydrochloride, (3S)-", "L-Homoserine lactone hydrochloride", "(S)-Homoserine lactone hydrochloride", "(3S)-3-Aminodihydro-2(3H)-furanone hydrochloride", "(S)-3-Aminodihydrofuran-2(3H)-one hydrochloride"], "SMILES": "NC1C(=O)OCC1.Cl", "physical_data": {"Molecular Weight": "", "Molecular Formula": "C4H7NO2.ClH", "Melting Point": "219 \u00b0C"}}