{"cas_no": "21854-95-5", "cn_name": "2,2'-\u4e8c\u6c2f\u8054\u82ef\u7532\u9170", "en_name": ["1,2-Bis(2-chlorophenyl)-1,2-ethanedione", "1,2-Ethanedione, 1,2-bis(2-chlorophenyl)-", "Benzil, 2,2\u2032-dichloro-", "Ethanedione, bis(2-chlorophenyl)-", "1,2-Bis(2-chlorophenyl)-1,2-ethanedione", "2,2\u2032-Dichlorobenzil", "o,o\u2032-Dichlorobenzil", "NSC 114829", "Bis(2-chlorophenyl)ethanedione"], "SMILES": "C(C(=O)C1=C(Cl)C=CC=C1)(=O)C2=C(Cl)C=CC=C2", "physical_data": {"Molecular Weight": "279.12", "Molecular Formula": "C14H8Cl2O2", "Melting Point": "128 \u00b0C"}}