{"cas_no": "21855-16-3", "cn_name": "2,6-\u5421\u5576\u4e8c\u7fa7\u9178\u5355\u4e59\u916f", "en_name": ["2-Ethyl 2,6-pyridinedicarboxylate", "2,6-Pyridinedicarboxylic acid, 2-ethyl ester", "2,6-Pyridinedicarboxylic acid, monoethyl ester", "2-Ethyl 2,6-pyridinedicarboxylate", "Methyl dipicolinate", "6-Ethoxycarbonyl-2-pyridinecarboxylic acid"], "SMILES": "C(OCC)(=O)C=1N=C(C(O)=O)C=CC1", "physical_data": {"Molecular Weight": "195.17", "Molecular Formula": "C9H9NO4", "Melting Point": "121 \u00b0C"}}