{"cas_no": "21852-50-6", "cn_name": "3,4,5-\u4e09\u7532\u6c27\u57fa\u82c4\u6eb4", "en_name": ["3,4,5-Trimethoxybenzyl bromide", "Benzene, 5-(bromomethyl)-1,2,3-trimethoxy-", "Toluene, \u03b1-bromo-3,4,5-trimethoxy-", "5-(Bromomethyl)-1,2,3-trimethoxybenzene", "3,4,5-Trimethoxybenzyl bromide", "1-(Bromomethyl)-3,4,5-trimethoxybenzene", "(3,4,5-Trimethoxyphenyl)methyl bromide"], "SMILES": "O(C)C1=C(OC)C=C(CBr)C=C1OC", "physical_data": {"Molecular Weight": "261.11", "Molecular Formula": "C10H13BrO3", "Melting Point": "74-75 \u00b0C"}}