{"cas_no": "21850-44-2", "cn_name": "\u516b\u6eb4\u919a", "en_name": ["Tetrabromobisphenol A bis(2,3-dibromopropyl ether)", "Benzene, 1,1\u2032-(1-methylethylidene)bis[3,5-dibromo-4-(2,3-dibromopropoxy)-", "Propane, 2,2-bis[3,5-dibromo-4-(2,3-dibromopropoxy)phenyl]-", "1,1\u2032-(1-Methylethylidene)bis[3,5-dibromo-4-(2,3-dibromopropoxy)benzene]", "2,2-Bis[4-(2,3-dibromopropyloxy)-3,5-dibromophenyl]propane", "2,2-Bis[3,5-dibromo-4-(2,3-dibromopropoxy)phenyl]propane", "2,2-Bis[4-(2,3-dibromopropoxy)-3,5-dibromophenyl]propane", "1,1\u2032-Isopropylidenebis[3,5-dibromo-4-(2,3-dibromopropoxy)benzene]", "4,4\u2032-Isopropylidenebis[2,6-dibromo-1-(2,3-dibromopropoxy)benzene]", "Bromkal 66-8", "Bis(2,3-dibromopropoxy)tetrabromobisphenol A", "Fire Guard 3100", "PE 68", "Tetrabromobisphenol A bis(2,3-dibromopropyl ether)", "D 5532", "Tetrabromobisphenol A 2,3-dibromopropyl ether", "GX 5532", "FG 3100", "3,3\u2032,5,5\u2032-Tetrabromobisphenol A bis(2,3-dibromopropyl) ether", "2,2-Bis[[3,5-dibromo-4-(2,3-dibromopropyloxy)]phenyl]propane", "Flame Cut 121R", "PE 68 (fireproofing agent)", "Flame Cut 121K", "Pyroguard SR 720", "SR 720", "FR 720", "Saytex HP 800AG", "TBBPA-DBPE", "Saytex HP 800A", "HP 800A", "FCP 680", "Fire Cut P 680G", "OBE", "Pyroguard SR 720N", "SR 720N", "TexFRon 9001", "XZ 6800", "Fire Cut P 680", "1,3-Dibromo-5-[2-[3,5-dibromo-4-(2,3-dibromopropoxy)phenyl]propan-2-yl]-2-(2,3-dibromopropoxy)benzene", "E-R 08N", "FCP 680G"], "SMILES": "C(C)(C)(C1=CC(Br)=C(OCC(CBr)Br)C(Br)=C1)C2=CC(Br)=C(OCC(CBr)Br)C(Br)=C2", "physical_data": {"Molecular Weight": "943.61", "Molecular Formula": "C21H20Br8O2", "Melting Point": "85-92 \u00b0C"}}