{"cas_no": "21852-80-2", "cn_name": "\u9570\u53f6\u82b9\u9187", "en_name": ["(-)-Falcarinol", "1,9-Heptadecadiene-4,6-diyn-3-ol, (3R,9Z)-", "1,9-Heptadecadiene-4,6-diyn-3-ol, (Z)-(-)-", "1,9-Heptadecadiene-4,6-diyn-3-ol, [R-(Z)]-", "Panaxynol", "(3R,9Z)-1,9-Heptadecadiene-4,6-diyn-3-ol", "Falcarinol", "Carotatoxin", "(-)-Panaxynol", "(R)-(-)-Falcarinol", "(-)-Falcarinol", "(cis)-(-)-3-Hydroxy-1,9-heptadecadien-4,6-diyne", "(Z)-Falcarinol"], "SMILES": "C(#CCC=CCCCCCCC)C#CC(C=C)O", "physical_data": {"Molecular Weight": "244.37", "Molecular Formula": "C17H24O", "Boiling Point": "115 \u00b0C @ Press: 0.02 Torr"}}