{"cas_no": "21862-63-5", "cn_name": "\u53cd-4-\u53d4\u4e01\u57fa\u73af\u5df1\u9187", "en_name": ["trans-4-tert-Butylcyclohexanol", "Cyclohexanol, 4-(1,1-dimethylethyl)-, trans-", "Cyclohexanol, 4-tert-butyl-, trans-", "trans-4-(1,1-Dimethylethyl)cyclohexanol", "trans-4-tert-Butylcyclohexanol", "trans-1-tert-Butylcyclohexan-4-ol", "trans-4-tert-Butyl-1-cyclohexanol", "trans-4-tert-Butylcyclohexyl alcohol", "trans-p-tert-Butylcyclohexanol", "SymSitive 1609", "SymSitive DPG", "FEMA 4724"], "SMILES": "C(C)(C)(C)C1CCC(O)CC1", "physical_data": {"Molecular Weight": "156.27", "Molecular Formula": "C10H20O", "Melting Point": "78-79 \u00b0C"}}