{"cas_no": "2186-92-7", "cn_name": "4-\u7532\u6c27\u57fa\u82ef\u7532\u919b\u4e8c\u7532\u7f29\u919b", "en_name": ["Anisaldehyde dimethyl acetal", "Benzene, 1-(dimethoxymethyl)-4-methoxy-", "p-Anisaldehyde, dimethyl acetal", "Toluene, p,\u03b1,\u03b1-trimethoxy-", "1-(Dimethoxymethyl)-4-methoxybenzene", "p-Methoxybenzaldehyde dimethyl acetal", "4-Methoxybenzaldehyde dimethyl acetal", "Anisaldehyde dimethyl acetal", "(p-Methoxyphenyl)dimethoxymethane", "Anisic aldehyde dimethyl acetal", "Dimethoxy(4-methoxyphenyl)methane", "4-Anisaldehyde dimethyl acetal", "p-(Dimethoxymethyl)anisole"], "SMILES": "C(OC)(OC)C1=CC=C(OC)C=C1", "physical_data": {"Molecular Weight": "182.22", "Molecular Formula": "C10H14O3", "Boiling Point": "123 \u00b0C"}}