{"cas_no": "2186-24-5", "cn_name": "2-(4-\u7532\u57fa\u82ef\u6c27\u57fa)\u7532\u57fa\u73af\u6c27\u4e59\u70f7", "en_name": ["p-Cresyl glycidyl ether", "Oxirane, 2-[(4-methylphenoxy)methyl]-", "Propane, 1,2-epoxy-3-(p-tolyloxy)-", "Oxirane, [(4-methylphenoxy)methyl]-", "2-[(4-Methylphenoxy)methyl]oxirane", "p-Cresyl glycidyl ether", "p-Tolyl glycidyl ether", "Glycidyl p-tolyl ether", "1,2-Epoxy-3-(p-tolyloxy)propane", "3-(4-Methylphenoxy)-1,2-epoxypropane", "Glycidyl p-methylphenyl ether", "2,3-Epoxypropyl p-tolyl ether", "p-Cresol glycidyl ether", "1-(p-Methylphenoxy)-2,3-epoxypropane", "Glycidyl p-cresyl ether", "1-p-(Tolyloxy)-2,3-epoxypropane", "Glycidyl 4-methylphenyl ether", "1,2-Epoxy-3-(4-methylphenoxy)propane", "[(4-Methylphenoxy)methyl]oxirane", "p-Methylphenyl glycidyl ether", "p-Methylphenol glycidyl ether", "Adeka Glycilol ED 529", "ED 529", "NSC 112255", "4-Methylphenyl glycidyl ether"], "SMILES": "C(OC1=CC=C(C)C=C1)C2CO2", "physical_data": {"Molecular Weight": "164.20", "Molecular Formula": "C10H12O2", "Boiling Point": "119-120 \u00b0C @ Press: 7 Torr", "Density": "1.0794 g/cm\u00b3 @ Temp: 20 \u00b0C"}}