{"cas_no": "21860-84-4", "cn_name": "2-\u90bb\u82ef\u4e8c\u7532\u9170\u4e9a\u6c28\u57fa\u4e19\u9178", "en_name": ["1,3-Dihydro-\u03b1-methyl-1,3-dioxo-2H-isoindole-2-acetic acid", "2H-Isoindole-2-acetic acid, 1,3-dihydro-\u03b1-methyl-1,3-dioxo-", "2-Isoindolineacetic acid, \u03b1-methyl-1,3-dioxo-", "1,3-Dihydro-\u03b1-methyl-1,3-dioxo-2H-isoindole-2-acetic acid", "Alanine, N-phthaloyl-", "2-Phthalimidopropionic acid", "1,3-Dihydro-1,3-dioxo-\u03b1-methyl-2H-isoindole-2-acetic acid", "N-Phthalyl-DL-alanine", "N-Phthaloyl-DL-alanine", "NSC 13404", "2-(1,3-Dihydro-1,3-dioxo-2H-isoindol-2-yl)propanoic acid", "DL-N-Phthaloylalanine", "2-(1,3-Dioxoisoindolin-2-yl)propanoic acid", "2-Phthalimidopropanoic acid", "2-(1,3-Dioxo-1,3-dihydro-2H-isoindol-2-yl)propanoic acid", "2-(1,3-Dioxo-2,3-dihydro-1H-isoindol-2-yl)propanoic acid"], "SMILES": "C(C(O)=O)(C)N1C(=O)C=2C(C1=O)=CC=CC2", "physical_data": {"Molecular Weight": "219.19", "Molecular Formula": "C11H9NO4", "Melting Point": "164 \u00b0C"}}