{"cas_no": "21860-07-1", "cn_name": "3-\u4e59\u9170\u57fa\u82ef\u7532\u9178\u7532\u916f", "en_name": ["Benzoic acid, 3-acetyl-, methyl ester", "Benzoic acid, 3-acetyl-, methyl ester", "Benzoic acid, m-acetyl-, methyl ester", "Methyl 3-acetylbenzoate", "Methyl m-acetylbenzoate", "3-Acetylbenzoic acid methyl ester"], "SMILES": "C(OC)(=O)C1=CC(C(C)=O)=CC=C1", "physical_data": {"Molecular Weight": "178.18", "Molecular Formula": "C10H10O3", "Melting Point": "43-45 \u00b0C"}}