{"cas_no": "21871-47-6", "cn_name": "5-\u82c4\u786b\u57fa\u56db\u6c2e\u5511", "en_name": ["5-Benzylthio-1H-tetrazole", "2H-Tetrazole, 5-[(phenylmethyl)thio]-", "1H-Tetrazole, 5-(benzylthio)-", "1H-Tetrazole, 5-[(phenylmethyl)thio]-", "Tetrazole, 5-(benzylthio)-", "5-[(Phenylmethyl)thio]-2H-tetrazole", "5-Benzylmercapto-1,2,3,4-tetrazole", "5-Benzylthio-1H-tetrazole", "NSC 282041", "5-Benzylmercaptotetrazole"], "SMILES": "C(SC=1NN=NN1)C2=CC=CC=C2", "physical_data": {"Molecular Weight": "192.24", "Molecular Formula": "C8H8N4S", "Melting Point": "150-151 \u00b0C"}}