{"cas_no": "2187-07-7", "cn_name": "DL-ALPHA-\u6c28\u57fa\u7f8a\u8102\u9178", "en_name": ["(\u00b1)-2-Aminooctanoic acid", "Octanoic acid, 2-amino-", "Octanoic acid, 2-amino-, DL-", "Octanoic acid, 2-amino-, (\u00b1)-", "2-Aminooctanoic acid", "2-Amino-DL-caprylic acid", "DL-\u03b1-Aminocaprylic acid", "(\u00b1)-2-Aminooctanoic acid", "DL-\u03b1-Aminooctanoic acid", "DL-2-Aminooctanoic acid", "\u03b1-Aminocaprylic acid", "\u03b1-Aminooctanoic acid", "(\u00b1)-2-Aminocaprylic acid", "NSC 123023", "NSC 20147", "DL-2-Aminocaprylic acid", "(\u00b1)-\u03b1-Aminocaprylic acid", "2-Azaniumyloctanoate"], "SMILES": "C(CCCCCC)(C(O)=O)N", "physical_data": {"Molecular Weight": "159.23", "Molecular Formula": "C8H17NO2", "Melting Point": "270 \u00b0C"}}