{"cas_no": "21886-62-4", "cn_name": "4-\u53d4\u4e01\u57fa-2-\u6c2f\u82ef\u4e59\u916e", "en_name": ["2-Chloro-1-[4-(1,1-dimethylethyl)phenyl]ethanone", "Ethanone, 2-chloro-1-[4-(1,1-dimethylethyl)phenyl]-", "Acetophenone, 4\u2032-tert-butyl-2-chloro-", "2-Chloro-1-[4-(1,1-dimethylethyl)phenyl]ethanone", "2-Chloro-4\u2032-tert-butylacetophenone", "4-tert-Butylphenacyl chloride", "NSC 23491", "1-(4-tert-Butylphenyl)-2-chloroethanone", "1-(4-tert-Butylphenyl)-2-chloroethan-1-one", "2-Chloro-1-(4-tert-butylphenyl)ethanone"], "SMILES": "C(C)(C)(C)C1=CC=C(C(CCl)=O)C=C1", "physical_data": {"Molecular Weight": "210.70", "Molecular Formula": "C12H15ClO", "Boiling Point": "142-146 \u00b0C @ Press: 1 Torr"}}