{"cas_no": "21881-77-6", "cn_name": "4-(\u95f4\u785d\u57fa\u82ef\u57fa)-2,6-\u4e8c\u7532\u57fa-1,4-\u4e8c\u6c22-3,5-\u5421\u5576\u4e8c\u7fa7\u9178\u4e8c\u7532\u916f", "en_name": ["m-Nifedipine", "3,5-Pyridinedicarboxylic acid, 1,4-dihydro-2,6-dimethyl-4-(3-nitrophenyl)-, 3,5-dimethyl ester", "3,5-Pyridinedicarboxylic acid, 1,4-dihydro-2,6-dimethyl-4-(m-nitrophenyl)-, dimethyl ester", "3,5-Pyridinedicarboxylic acid, 1,4-dihydro-2,6-dimethyl-4-(3-nitrophenyl)-, dimethyl ester", "m-Nifedipine", "BAY-a 4339", "1,4-Dihydro-2,6-dimethyl-4-(3-nitrophenyl)-3,5-pyridinedicarboxylic acid dimethyl ester", "Dimethyl 4-(m-nitrophenyl)-2,6-dimethyl-1,4-dihydro-3,5-pyridinedicarboxylate", "3,5-Dimethyl 2,6-dimethyl-4-(3-nitrophenyl)-1,4-dihydropyridine-3,5-dicarboxylate"], "SMILES": "C(OC)(=O)C=1C(C(C(OC)=O)=C(C)NC1C)C2=CC(N(=O)=O)=CC=C2", "physical_data": {"Molecular Weight": "346.33", "Molecular Formula": "C17H18N2O6", "Melting Point": "208.0 \u00b0C"}}