{"cas_no": "21889-05-4", "cn_name": "4-(1H-\u5432\u54da-2-\u57fa)\u82ef\u80fa", "en_name": ["2-(4-Aminophenyl)indole", "Benzenamine, 4-(1H-indol-2-yl)-", "Indole, 2-(p-aminophenyl)-", "4-(1H-Indol-2-yl)benzenamine", "2-(4-Aminophenyl)indole", "2-(p-Aminophenyl)indole", "NSC 119095"], "SMILES": "NC1=CC=C(C2=CC=3C(N2)=CC=CC3)C=C1", "physical_data": {"Molecular Weight": "208.26", "Molecular Formula": "C14H12N2", "Melting Point": "201-202 \u00b0C"}}