{"cas_no": "21887-01-4", "cn_name": "HORMINONE", "en_name": ["Horminone", "1,4-Phenanthrenedione, 4b,5,6,7,8,8a,9,10-octahydro-3,10-dihydroxy-4b,8,8-trimethyl-2-(1-methylethyl)-, (4bS,8aS,10R)-", "Podocarpa-8,12-diene-11,14-dione, 7\u03b1,12-dihydroxy-13-isopropyl-", "Horminone", "1,4-Phenanthrenedione, 4b,5,6,7,8,8a,9,10-octahydro-3,10-dihydroxy-4b,8,8-trimethyl-2-(1-methylethyl)-, [4bS-(4b\u03b1,8a\u03b2,10\u03b2)]-", "(4bS,8aS,10R)-4b,5,6,7,8,8a,9,10-Octahydro-3,10-dihydroxy-4b,8,8-trimethyl-2-(1-methylethyl)-1,4-phenanthrenedione", "7\u03b1-Hydroxyroyleanone", "NSC 294577"], "SMILES": "CC12C3=C(C(=O)C(C(C)C)=C(O)C3=O)C(O)CC1C(C)(C)CCC2", "physical_data": {"Molecular Weight": "332.43", "Molecular Formula": "C20H28O4", "Melting Point": "178 \u00b0C"}}