{"cas_no": "21881-78-7", "cn_name": "1,4-\u4e8c\u6c22-2,6-\u4e8c\u7532\u57fa-4-(3-\u785d\u57fa\u82ef\u57fa)-3,5-\u5421\u5576\u4e8c\u7532\u9178\u4e8c\u5f02\u4e19\u916f", "en_name": ["3,5-Bis(1-methylethyl) 1,4-dihydro-2,6-dimethyl-4-(3-nitrophenyl)-3,5-pyridinedicarboxylate", "3,5-Pyridinedicarboxylic acid, 1,4-dihydro-2,6-dimethyl-4-(3-nitrophenyl)-, 3,5-bis(1-methylethyl) ester", "3,5-Pyridinedicarboxylic acid, 1,4-dihydro-2,6-dimethyl-4-(m-nitrophenyl)-, diisopropyl ester", "3,5-Pyridinedicarboxylic acid, 1,4-dihydro-2,6-dimethyl-4-(3-nitrophenyl)-, bis(1-methylethyl) ester", "3,5-Bis(1-methylethyl) 1,4-dihydro-2,6-dimethyl-4-(3-nitrophenyl)-3,5-pyridinedicarboxylate", "2,6-Dimethyl-4-(3-nitro-phenyl)-1,4-dihydro-pyridine-3,5-dicarboxylic acid diisopropyl ester"], "SMILES": "C(OC(C)C)(=O)C=1C(C(C(OC(C)C)=O)=C(C)NC1C)C2=CC(N(=O)=O)=CC=C2", "physical_data": {"Molecular Weight": "402.44", "Molecular Formula": "C21H26N2O6", "Melting Point": "122 \u00b0C"}}