{"cas_no": "2188-18-3", "cn_name": "N-Boc-N'-\u785d\u57fa-L-\u7cbe\u6c28\u9178", "en_name": ["N2-[(1,1-Dimethylethoxy)carbonyl]-N5-[imino(nitroamino)methyl]-L-ornithine", "L-Ornithine, N2-[(1,1-dimethylethoxy)carbonyl]-N5-[imino(nitroamino)methyl]-", "Ornithine, N2-carboxy-N5-(nitroamidino)-, N2-tert-butyl ester, L-", "Ornithine, N2-carboxy-N5-(nitroamidino)-, N-tert-butyl ester", "N2-[(1,1-Dimethylethoxy)carbonyl]-N5-[imino(nitroamino)methyl]-L-ornithine", "N\u03b1-tert-Butoxycarbonyl-NG-nitro-L-arginine", "N2-tert-Butyloxycarbonyl-N\u03c9-nitro-L-arginine", "N2-tert-Butoxycarbonyl-NG-nitroarginine", "N\u03b1-tert-Butoxycarbonyl-NG-nitroarginine", "(2S)-2-[[(tert-Butoxy)carbonyl]amino]-5-(N\u2032-nitrocarbamimidamido)pentanoic acid", "(2S)-5-[Amino(nitramido)methylidene]azaniumyl-2-[(2-methylpropan-2-yl)oxycarbonylamino]pentanoate", "(2S)-2-(tert-Butoxycarbonylamino)-5-[(N-nitrocarbamimidoyl)amino]pentanoic acid"], "SMILES": "C(NC(OC(C)(C)C)=O)(CCCNC(NN(=O)=O)=N)C(O)=O", "physical_data": {"Molecular Weight": "319.31", "Molecular Formula": "C11H21N5O6", "Melting Point": "111-113 \u00b0C"}}