{"cas_no": "21888-98-2", "cn_name": "\u53f3\u82c4\u66ff\u7c73\u7279", "en_name": ["Dexetimide", "[3,4\u2032-Bipiperidine]-2,6-dione, 3-phenyl-1\u2032-(phenylmethyl)-, (3S)-", "[3,4\u2032-Bipiperidine]-2,6-dione, 3-phenyl-1\u2032-(phenylmethyl)-, (S)-", "Glutarimide, 2-(1-benzyl-4-piperidyl)-2-phenyl-, (S)-(+)-", "(3S)-3-Phenyl-1\u2032-(phenylmethyl)[3,4\u2032-bipiperidine]-2,6-dione", "Dexetimide", "Dexbenzetimide", "(+)-2-(1-Benzyl-4-piperidyl)-2-phenylglutarimide", "(+)-Benzetimide", "(S)-(+)-Dexetimide"], "SMILES": "O=C1C(CCC(=O)N1)(C2CCN(CC3=CC=CC=C3)CC2)C4=CC=CC=C4", "physical_data": {"Molecular Weight": "362.46", "Molecular Formula": "C23H26N2O2", "Melting Point": "181-183 \u00b0C"}}