{"cas_no": "2188-68-3", "cn_name": "\u76d0\u9178\u77f3\u849c\u78b1", "en_name": ["1H-[1,3]Dioxolo[4,5-j]pyrrolo[3,2,1-de]phenanthridine-1,2-diol, 2,4,5,7,12b,12c-hexahydro-, hydrochloride (1:1), (1S,2S,12bS,12cS)-", "1H-[1,3]Dioxolo[4,5-j]pyrrolo[3,2,1-de]phenanthridine-1,2-diol, 2,4,5,7,12b,12c-hexahydro-, hydrochloride (1:1), (1S,2S,12bS,12cS)-", "Lycoran-1\u03b1,2\u03b2-diol, 3,3a-didehydro-, hydrochloride", "1H-[1,3]Dioxolo[4,5-j]pyrrolo[3,2,1-de]phenanthridine-1,2-diol, 2,4,5,7,12b,12c-hexahydro-, hydrochloride, (1S,2S,12bS,12cS)-", "Galanthan-1,2-diol, 3,12-didehydro-9,10-[methylenebis(oxy)]-, hydrochloride, (1\u03b1,2\u03b2)-", "Lycorine hydrochloride", "Licorin hydrochloride"], "SMILES": "OC1C2C3N(CC=4C2=CC5=C(C4)OCO5)CCC3=CC1O.Cl", "physical_data": {"Molecular Weight": "", "Molecular Formula": "C16H17NO4.ClH", "Melting Point": "206 \u00b0C"}}