{"cas_no": "21898-59-9", "cn_name": "1-\u7532\u57fa\u5421\u54af-2-\u4e59\u9178", "en_name": ["1-Methyl-1H-pyrrole-2-acetic acid", "1H-Pyrrole-2-acetic acid, 1-methyl-", "Pyrrole-2-acetic acid, 1-methyl-", "1-Methyl-1H-pyrrole-2-acetic acid", "1-Methyl-2-pyrroleacetic acid", "N-Methylpyrrole-2-acetic acid", "(1-Methylpyrrol-2-yl)acetic acid", "(1-Methyl-1H-pyrrol-2-yl)acetic acid", "2-(1-Methyl-1H-pyrrol-2-yl)acetic acid"], "SMILES": "C(C(O)=O)C=1N(C)C=CC1", "physical_data": {"Molecular Weight": "139.15", "Molecular Formula": "C7H9NO2", "Melting Point": "113 \u00b0C"}}