{"cas_no": "21892-80-8", "cn_name": "3-\u7532\u57fa-2-\u82ef\u5e76\u6076\u5511\u916e", "en_name": ["3-Methylbenzo[d]oxazol-2(3H)-one", "2(3H)-Benzoxazolone, 3-methyl-", "2-Benzoxazolinone, 3-methyl-", "3-Methyl-2(3H)-benzoxazolone", "N-Methyl-2-benzoxazolinone", "N-Methylbenzoxazolone", "3-Methylbenzoxazolone", "3-Methyl-2-benzoxazolinone", "3-Methyl-3H-benzoxazol-2-one", "3-Methylbenzo[d]oxazol-2(3H)-one", "3-Methyl-1,2-dihydrobenzoxazol-2-one", "3-Methyl-2,3-dihydro-1,3-benzoxazol-2-one", "3-Methyl-3H-benzooxazol-2-one", "3-Methyl-1,3-benzoxazol-2-one"], "SMILES": "CN1C=2C(OC1=O)=CC=CC2", "physical_data": {"Molecular Weight": "149.15", "Molecular Formula": "C8H7NO2", "Boiling Point": "110-112 \u00b0C @ Press: 1 Torr", "Melting Point": "83 \u00b0C"}}