{"cas_no": "2189-26-6", "cn_name": "\u7518\u6c28\u9170-DL-\u8272\u6c28\u9178", "en_name": ["Glycyl-DL-tryptophan", "Tryptophan, glycyl-", "Tryptophan, N-glycyl-, DL-", "DL-Tryptophan, N-glycyl-", "Glycyltryptophan", "Glycyl-DL-tryptophan", "DL-Glycyltryptophan", "NSC 119997", "2-(2-Aminoacetamido)-3-(1H-indol-3-yl)propanoic acid", "2-[(2-Azaniumylacetyl)amino]-3-(1H-indol-3-yl)propanoate"], "SMILES": "C(C(NC(CN)=O)C(O)=O)C=1C=2C(NC1)=CC=CC2", "physical_data": {"Molecular Weight": "261.28", "Molecular Formula": "C13H15N3O3", "Melting Point": "~280 \u00b0C (decomp) (approx)"}}