{"cas_no": "21896-59-3", "cn_name": "N-(2-\u6c2f\u4e59\u57fa)\u7532\u78fa\u9170\u80fa", "en_name": ["N-(2-Chloroethyl)methanesulfonamide", "Methanesulfonamide, N-(2-chloroethyl)-", "N-(2-Chloroethyl)methanesulfonamide", "\u03b2-Methanesulfonamidoethyl chloride", "2-(Methylsulfonamido)ethyl chloride", "1-Chloro-2-(methylsulfonamido)ethane"], "SMILES": "N(S(C)(=O)=O)CCCl", "physical_data": {"Molecular Weight": "157.62", "Molecular Formula": "C3H8ClNO2S", "Boiling Point": "145-150 \u00b0C @ Press: 3-4 Torr"}}