{"cas_no": "2189-60-8", "cn_name": "1-\u82ef\u57fa\u8f9b\u70f7", "en_name": ["Octylbenzene", "Benzene, octyl-", "Octane, 1-phenyl-", "Octylbenzene", "n-Octylbenzene", "1-Phenyloctane", "Octylbenzol", "NSC 404115"], "SMILES": "C(CCCCCCC)C1=CC=CC=C1", "physical_data": {"Molecular Weight": "190.32", "Molecular Formula": "C14H22", "Boiling Point": "264.5 \u00b0C", "Melting Point": "-36 \u00b0C", "Density": "0.8582 g/cm\u00b3 @ Temp: 20 \u00b0C"}}