{"cas_no": "218926-47-7", "cn_name": "FMOC-\u4e8c\u4e01\u57fa\u7518\u6c28\u9178", "en_name": ["N-[(9H-Fluoren-9-ylmethoxy)carbonyl]-2-propylnorvaline", "Norvaline, N-[(9H-fluoren-9-ylmethoxy)carbonyl]-2-propyl-", "N-[(9H-Fluoren-9-ylmethoxy)carbonyl]-2-propylnorvaline"], "SMILES": "C(OC(NC(CCC)(CCC)C(O)=O)=O)C1C=2C(C=3C1=CC=CC3)=CC=CC2", "physical_data": {"Molecular Weight": "381.46", "Molecular Formula": "C23H27NO4", "Melting Point": "102-105 \u00b0C"}}