{"cas_no": "21898-19-1", "cn_name": "\u76d0\u9178\u514b\u4ed1\u7279\u7f57", "en_name": ["Clenbuterol hydrochloride", "Benzenemethanol, 4-amino-3,5-dichloro-\u03b1-[[(1,1-dimethylethyl)amino]methyl]-, hydrochloride (1:1)", "Benzyl alcohol, 4-amino-\u03b1-[(tert-butylamino)methyl]-3,5-dichloro-, monohydrochloride", "Benzenemethanol, 4-amino-3,5-dichloro-\u03b1-[[(1,1-dimethylethyl)amino]methyl]-, monohydrochloride", "1-(4-Amino-3,5-dichlorophenyl)-2-(tert-butylamino)ethanol hydrochloride", "NAB 365", "NAB 365Cl", "Clenbuterol hydrochloride", "Spiropent", "4-Amino-\u03b1-(tert-butylaminomethyl)-3,5-dichlorobenzyl alcohol monohydrochloride", "Ventipulmin", "Clenasma"], "SMILES": "C(CNC(C)(C)C)(O)C1=CC(Cl)=C(N)C(Cl)=C1.Cl", "physical_data": {"Molecular Weight": "", "Molecular Formula": "C12H18Cl2N2O.ClH", "Melting Point": "174-175 \u00b0C"}}