{"cas_no": "2190-25-2", "cn_name": "1,3\u68d5\u6988\u9178-2-\u53cd\u6cb9\u9178\u7518\u6cb9\u916f", "en_name": ["1,3-Dipalmitoyl-2-oleoylglycerol", "9-Octadecenoic acid (9Z)-, 2-[(1-oxohexadecyl)oxy]-1-[[(1-oxohexadecyl)oxy]methyl]ethyl ester", "Olein, 1,3-dipalmito-2-", "Palmitin, 2-oleo-1,3-di-", "9-Octadecenoic acid (Z)-, 2-[(1-oxohexadecyl)oxy]-1-[[(1-oxohexadecyl)oxy]methyl]ethyl ester", "Glyceryl 2-oleate-1,3-dipalmitate", "2-Oleodipalmitin", "1,3-Dipalmitoyl-2-oleoylglycerol", "2-Oleo-1,3-dipalmitin", "1,3-Dipalmito-2-olein", "Glycerin-1-palmitate-2-oleate-3-palmitate", "Glycerol 1,3-dipalmitate 2-oleate", "1,3-Dipalmitoyl-2-oleoylglycerin", "2-Oleoyl-1,3-dipalmitoylglycerin", "2-Oleoyl-1,3-dipalmitin", "1-Palmito-2-oleo-3-palmitin", "1,3-Dipalmitoyl-2-olein", "POP", "2-Oleoyl-1,3-dipalmitoylglycerol", "Triglyceride POP,sn", "POP-TG", "1,3-Dihexadecanoyl-2-(9i-octadecenoyl)glycerol"], "SMILES": "C(OC(CCCCCCCC=CCCCCCCCC)=O)(COC(CCCCCCCCCCCCCCC)=O)COC(CCCCCCCCCCCCCCC)=O", "physical_data": {"Molecular Weight": "833.36", "Molecular Formula": "C53H100O6", "Melting Point": "37.5-38.5 \u00b0C"}}