{"cas_no": "21908-53-2", "cn_name": "\u6c27\u5316\u6c5e(II), \u9ec4", "en_name": ["Mercuric oxide", "Mercury oxide (HgO)", "Mercuric oxide", "Mercury monoxide", "Mercuric oxide (HgO)", "C.I. 77760", "Yellow Mercuric Oxide", "Mercury(2+) oxide", "Santar M", "Santar", "Mercury(II) oxide", "Red mercuric oxide", "Mercury oxide", "Yellow precipitate", "Red mercury oxide"], "SMILES": "[Hg]=O", "physical_data": {"Molecular Weight": "", "Molecular Formula": "HgO", "Melting Point": "500 \u00b0C (decomp)", "Density": "11.1 g/cm\u00b3"}}