{"cas_no": "21906-39-8", "cn_name": "3-\u4e09\u6c1f\u7532\u57fa\u82ef\u4e19\u916e", "en_name": ["1-[3-(Trifluoromethyl)phenyl]-2-propanone", "2-Propanone, 1-[3-(trifluoromethyl)phenyl]-", "2-Propanone, 1-(\u03b1,\u03b1,\u03b1-trifluoro-m-tolyl)-", "1-[3-(Trifluoromethyl)phenyl]-2-propanone", "m-(Trifluoromethyl)benzyl methyl ketone", "1-(3-Trifluoromethylphenyl)-2-propanone", "[3-(Trifluoromethyl)phenyl]acetone", "1-(\u03b1,\u03b1,\u03b1-Trifluoro-m-tolyl)-2-propanone", "m-(Trifluoromethyl)phenylacetone", "1-(3-Trifluoromethylphenyl)acetone", "1-(3-Trifluoromethylphenyl)propane-2-one"], "SMILES": "C(C(C)=O)C1=CC(C(F)(F)F)=CC=C1", "physical_data": {"Molecular Weight": "202.17", "Molecular Formula": "C10H9F3O", "Boiling Point": "105-115 \u00b0C @ Press: 20 Torr"}}