{"cas_no": "2190-21-8", "cn_name": "1,2-\u4e8c\u4e9a\u6cb9\u9170-3-\u6cb9\u9170\u53cd\u5f0f\u7518\u6cb9", "en_name": ["1,2-Dilinoleoyl-3-oleoyl-rac-glycerol", "9,12-Octadecadienoic acid (9Z,12Z)-, 1,1\u2032-[1-[[[(9Z)-1-oxo-9-octadecen-1-yl]oxy]methyl]-1,2-ethanediyl] ester", "Linolein, 3-oleo-1,2-di-", "9,12-Octadecadienoic acid (Z,Z)-, 1-[[(1-oxo-9-octadecenyl)oxy]methyl]-1,2-ethanediyl ester, (Z)-", "9,12-Octadecadienoic acid (9Z,12Z)-, 1-[[[(9Z)-1-oxo-9-octadecenyl]oxy]methyl]-1,2-ethanediyl ester", "Glyceryl 2,3-dilinoleate-1-oleate", "2,3-Dilinoleo-1-olein", "3-Oleo-1,2-dilinolein", "1-Oleo-2,3-dilinolein", "1,2-Dilinoleoyl-3-olein", "1,2-Dilinoleoyl-3-oleoyl-rac-glycerol"], "SMILES": "C(OC(CCCCCCCC=CCC=CCCCCC)=O)(COC(CCCCCCCC=CCCCCCCCC)=O)COC(CCCCCCCC=CCC=CCCCCC)=O", "physical_data": {"Molecular Weight": "881.40", "Molecular Formula": "C57H100O6", "Melting Point": "-14.5--13.2 \u00b0C", "Density": "0.9281 g/cm\u00b3 @ Temp: 20 \u00b0C"}}