{"cas_no": "21905-86-2", "cn_name": "4-\u564c\u5549\u7fa7\u9178", "en_name": ["4-Cinnolinecarboxylic acid", "4-Cinnolinecarboxylic acid", "NSC 75570"], "SMILES": "C(O)(=O)C=1C2=C(N=NC1)C=CC=C2", "physical_data": {"Molecular Weight": "174.16", "Molecular Formula": "C9H6N2O2", "Melting Point": "195-196 \u00b0C (decomp)"}}