{"cas_no": "21901-34-8", "cn_name": "2-\u7f9f\u57fa-5-\u785d\u57fa3-\u7532\u57fa\u5421\u5576", "en_name": ["3-Methyl-5-nitro-2(1H)-pyridinone", "2(1H)-Pyridinone, 3-methyl-5-nitro-", "2-Pyridinol, 3-methyl-5-nitro-", "3-Methyl-5-nitro-2(1H)-pyridinone", "2-Hydroxy-3-methyl-5-nitropyridine", "6-Hydroxy-5-methyl-3-nitropyridine", "3-Methyl-5-nitro-2-pyridinol", "NSC 63888", "3-Methyl-5-nitropyridin-2(1H)-one", "2-Hydroxy-5-nitro-3-picoline", "3-Methyl-5-nitro-1H-pyridin-2-one", "3-Methyl-5-nitro-1,2-dihydropyridin-2-one"], "SMILES": "N(=O)(=O)C=1C=C(C)C(=O)NC1", "physical_data": {"Molecular Weight": "154.12", "Molecular Formula": "C6H6N2O3", "Melting Point": "228.5-229.5 \u00b0C"}}