{"cas_no": "21900-42-5", "cn_name": "2,4-\u4e8c\u7532\u57fa\u82ef\u7532\u9170\u6c2f", "en_name": ["2,4-Dimethylbenzoyl chloride", "Benzoyl chloride, 2,4-dimethyl-", "2,4-Dimethylbenzoyl chloride"], "SMILES": "C(Cl)(=O)C1=C(C)C=C(C)C=C1", "physical_data": {"Molecular Weight": "168.62", "Molecular Formula": "C9H9ClO", "Boiling Point": "113 \u00b0C @ Press: 15 Torr"}}