{"cas_no": "21900-23-2", "cn_name": "3,4-\u4e8c\u7532\u57fa\u82ef-1-\u7fb0\u9170\u6c2f", "en_name": ["3,4-Dimethylbenzoyl chloride", "Benzoyl chloride, 3,4-dimethyl-", "3,4-Dimethylbenzoyl chloride"], "SMILES": "C(Cl)(=O)C1=CC(C)=C(C)C=C1", "physical_data": {"Molecular Weight": "168.62", "Molecular Formula": "C9H9ClO", "Boiling Point": "185 \u00b0C"}}