{"cas_no": "21901-41-7", "cn_name": "2-\u7f9f\u57fa-4-\u7532\u57fa-5-\u785d\u57fa\u5421\u5576", "en_name": ["4-Methyl-5-nitro-2(1H)-pyridinone", "2(1H)-Pyridinone, 4-methyl-5-nitro-", "2-Pyridinol, 4-methyl-5-nitro-", "4-Methyl-5-nitro-2(1H)-pyridinone", "2-Hydroxy-4-methyl-5-nitropyridine", "NSC 402987", "4-Methyl-5-nitropyridin-2-ol", "4-Methyl-5-nitropyridin-2(1H)-one"], "SMILES": "N(=O)(=O)C=1C(C)=CC(=O)NC1", "physical_data": {"Molecular Weight": "154.12", "Molecular Formula": "C6H6N2O3", "Melting Point": "189-190 \u00b0C"}}