{"cas_no": "21913-98-4", "cn_name": "3'-METHOXYDAIDZEIN", "en_name": ["3\u2032-Methoxydaidzein", "4H-1-Benzopyran-4-one, 7-hydroxy-3-(4-hydroxy-3-methoxyphenyl)-", "Isoflavone, 4\u2032,7-dihydroxy-3\u2032-methoxy-", "7-Hydroxy-3-(4-hydroxy-3-methoxyphenyl)-4H-1-benzopyran-4-one", "4\u2032,7-Dihydroxy-3\u2032-methoxyisoflavone", "3\u2032-Methoxydaidzein", "7,4\u2032-Dihydroxy-3\u2032-methoxyisoflavone"], "SMILES": "O=C1C(=COC=2C1=CC=C(O)C2)C3=CC(OC)=C(O)C=C3", "physical_data": {"Molecular Weight": "284.26", "Molecular Formula": "C16H12O5", "Melting Point": "244-246 \u00b0C"}}