{"cas_no": "21911-84-2", "cn_name": "3-(\u82ef\u57fa\u6c28\u57fa)\u4e19\u9178\u7532\u916f", "en_name": ["N-Phenyl-\u03b2-alanine methyl ester", "\u03b2-Alanine, N-phenyl-, methyl ester", "N-Phenyl-\u03b2-alanine methyl ester", "Methyl \u03b2-(N-phenyl)aminopropionate", "N-[(Methoxycarbonyl)ethyl]aniline", "Methyl 3-anilinopropionate", "Methyl \u03b2-anilinopropionate", "3-(Phenylamino)propanoic acid methyl ester", "NSC 144467", "N-[2-(Methoxycarbonyl)ethyl]aniline", "Methyl 3-(phenylamino)propanoate", "Methyl 3-(N-phenylamino)propionate", "3-Phenyl-amino-propionic acid methyl ester"], "SMILES": "N(CCC(OC)=O)C1=CC=CC=C1", "physical_data": {"Molecular Weight": "179.22", "Molecular Formula": "C10H13NO2", "Boiling Point": "125-126 \u00b0C @ Press: 3 Torr", "Melting Point": "37.6-38.3 \u00b0C"}}