{"cas_no": "2192-06-5", "cn_name": "\u567b\u5511", "en_name": ["4(5H)-Thiazolone, 2-amino-, hydrochloride (1:1)", "4(5H)-Thiazolone, 2-amino-, hydrochloride (1:1)", "4-Thiazolidinone, 2-imino-, monohydrochloride", "4(5H)-Thiazolone, 2-amino-, monohydrochloride", "2-Thiazolin-4-one, 2-amino-, hydrochloride", "Pseudothiohydantoin hydrochloride", "2-Imino-4-thiazolidinone hydrochloride", "2-Amino-4(5H)-thiazolone hydrochloride", "2-Imino-1,3-thiazolidin-4-one hydrochloride"], "SMILES": "O=C1N=C(N)SC1.Cl", "physical_data": {"Molecular Weight": "", "Molecular Formula": "C3H4N2OS.ClH", "Melting Point": "&gt;350 \u00b0C"}}