{"cas_no": "2192-20-3", "cn_name": "\u76d0\u9178\u7f9f\u55ea", "en_name": ["Hydroxyzine hydrochloride", "Ethanol, 2-[2-[4-[(4-chlorophenyl)phenylmethyl]-1-piperazinyl]ethoxy]-, hydrochloride (1:2)", "Ethanol, 2-[2-[4-(p-chloro-\u03b1-phenylbenzyl)-1-piperazinyl]ethoxy]-, dihydrochloride", "Ethanol, 2-[2-[4-[(4-chlorophenyl)phenylmethyl]-1-piperazinyl]ethoxy]-, dihydrochloride", "Atarax dihydrochloride", "1-(p-Chlorobenzhydryl)-4-[2-(2-hydroxyethoxy)ethyl]diethylenediamine dihydrochloride", "2-[2-[4-(p-Chloro-\u03b1-phenylbenzyl)-1-piperazinyl]ethoxy]ethanol dihydrochloride", "Hydroxyzine dihydrochloride", "Vistaril Steraject", "Atarax", "Hydroxyzine hydrochloride", "Neurolax", "Durrax", "Quiess", "Hydroxyzyne hydrochloride", "Alamon", "Orgatrax", "Vistaril Parenteral", "QYS", "Aterax", "Atranine A", "Atarax P Parenteral soln.", "Hydroxizine chloride", "2-(2-(4-((4-Chlorophenyl)(phenyl)methyl)piperazin-1-yl)ethoxy)ethanol dihydrochloride"], "SMILES": "C(N1CCN(CCOCCO)CC1)(C2=CC=C(Cl)C=C2)C3=CC=CC=C3.Cl", "physical_data": {"Molecular Weight": "", "Molecular Formula": "C21H27ClN2O2.2ClH", "Melting Point": "193 \u00b0C"}}