{"cas_no": "21943-15-7", "cn_name": "3,5-\u4e8c\u6eb4-2-\u7f9f\u57fa\u5421\u55ea", "en_name": ["3,5-Dibromo-2(1H)-pyrazinone", "2(1H)-Pyrazinone, 3,5-dibromo-", "Pyrazinol, 3,5-dibromo-", "3,5-Dibromo-2(1H)-pyrazinone", "3,5-Dibromopyrazin-2-ol", "3,5-Dibromo-1H-pyrazin-2-one", "3,5-Dibromo-2-hydroxypyrazine", "3,5-Dibromo-1,2-dihydropyrazin-2-one"], "SMILES": "BrC=1C(=O)NC=C(Br)N1", "physical_data": {"Molecular Weight": "253.88", "Molecular Formula": "C4H2Br2N2O", "Melting Point": "182-184 \u00b0C"}}