{"cas_no": "21948-70-9", "cn_name": "2-\u7532\u786b\u57fa\u5421\u55ea", "en_name": ["2-(Methylthio)pyrazine", "Pyrazine, 2-(methylthio)-", "Pyrazine, (methylthio)-", "2-(Methylthio)pyrazine", "2-Methylmercaptopyrazine", "Methyl pyrazinyl sulfide", "(Methylthio)pyrazine", "Pyrazinyl methyl sulfide", "2-Methylsulfanylpyrazine", "2-(Methylsulfanyl)pyrazine"], "SMILES": "S(C)C=1C=NC=CN1", "physical_data": {"Molecular Weight": "126.18", "Molecular Formula": "C5H6N2S", "Melting Point": "45-47.5 \u00b0C"}}