{"cas_no": "21947-98-8", "cn_name": "N-\u53d4\u4e01\u6c27\u7fb0\u57fa-S-\u4e09\u82ef\u7532\u57fa-L-\u534a\u80f1\u6c28\u9178", "en_name": ["N-[(1,1-Dimethylethoxy)carbonyl]-S-(triphenylmethyl)-L-cysteine", "L-Cysteine, N-[(1,1-dimethylethoxy)carbonyl]-S-(triphenylmethyl)-", "Alanine, N-carboxy-3-(tritylthio)-, N-tert-butyl ester, L-", "N-[(1,1-Dimethylethoxy)carbonyl]-S-(triphenylmethyl)-L-cysteine", "N-tert-Butoxycarbonyl-S-tritylcysteine", "N-(tert-Butoxycarbonyl)-S-trityl-L-cysteine", "N-Boc-S-trityl-L-cysteine", "NSC 129903", "2: PN: US20040265921 PAGE: 4 claimed protein", "6: PN: WO2015068532 SEQID: 6 claimed sequence", "(2R)-2-[(2-Methylpropan-2-yl)oxycarbonylamino]-3-tritylsulfanylpropanoic acid"], "SMILES": "C(SCC(NC(OC(C)(C)C)=O)C(O)=O)(C1=CC=CC=C1)(C2=CC=CC=C2)C3=CC=CC=C3", "physical_data": {"Molecular Weight": "463.59", "Molecular Formula": "C27H29NO4S", "Melting Point": "76-77 \u00b0C"}}