{"cas_no": "21956-56-9", "cn_name": "3,5-\u4e8c\u7532\u6c27\u57fa\u4e8c\u82ef\u4e59\u70ef", "en_name": ["trans-3,5-Dimethoxystilbene", "Benzene, 1,3-dimethoxy-5-[(1E)-2-phenylethenyl]-", "Stilbene, 3,5-dimethoxy-, (E)-", "Benzene, 1,3-dimethoxy-5-(2-phenylethenyl)-, (E)-", "1,3-Dimethoxy-5-[(1E)-2-phenylethenyl]benzene", "trans-Pinosylvin dimethyl ether", "trans-3,5-Dimethoxystilbene", "Pinosylvin, dimethyl ether", "(E)-1-(3,5-Dimethoxyphenyl)-2-phenylethene", "(E)-3,5-Dimethoxystilbene", "3,5-Dimethoxy-trans-stilbene", "(E)-1,3-Dimethoxy-5-styrylbenzene"], "SMILES": "C(=CC1=CC=CC=C1)C2=CC(OC)=CC(OC)=C2", "physical_data": {"Molecular Weight": "240.30", "Molecular Formula": "C16H16O2", "Boiling Point": "180 \u00b0C @ Press: 1 Torr", "Melting Point": "54-55 \u00b0C"}}