{"cas_no": "219537-97-0", "cn_name": "1,2-\u53cc(5-\u6c2f-2-\u7532\u57fa\u567b\u5429-3-\u57fa)\u73af\u620a-1-\u70ef", "en_name": ["3,3\u2032-(1-Cyclopentene-1,2-diyl)bis[5-chloro-2-methylthiophene]", "Thiophene, 3,3\u2032-(1-cyclopentene-1,2-diyl)bis[5-chloro-2-methyl-", "3,3\u2032-(1-Cyclopentene-1,2-diyl)bis[5-chloro-2-methylthiophene]", "1,2-Bis(5-chloro-2-methyl-3-thienyl)cyclopentene", "1,2-Bis(5\u2032-chloro-2\u2032-methylthien-3\u2032-yl)cyclopentene", "1,2-Bis(5-chloro-2-methylthiophen-3-yl)cyclopent-1-ene"], "SMILES": "CC1=C(C2=C(CCC2)C=3C=C(Cl)SC3C)C=C(Cl)S1", "physical_data": {"Molecular Weight": "329.31", "Molecular Formula": "C15H14Cl2S2", "Melting Point": "76-78 \u00b0C"}}