{"cas_no": "219580-11-7", "cn_name": "PD173074", "en_name": ["N-[2-[[4-(Diethylamino)butyl]amino]-6-(3,5-dimethoxyphenyl)pyrido[2,3-d]pyrimidin-7-yl]-N\u2032-(1,1-dimethylethyl)urea", "Urea, N-[2-[[4-(diethylamino)butyl]amino]-6-(3,5-dimethoxyphenyl)pyrido[2,3-d]pyrimidin-7-yl]-N\u2032-(1,1-dimethylethyl)-", "N-[2-[[4-(Diethylamino)butyl]amino]-6-(3,5-dimethoxyphenyl)pyrido[2,3-d]pyrimidin-7-yl]-N\u2032-(1,1-dimethylethyl)urea", "PD 173074", "1-tert-Butyl-3-[2-[4-(diethylamino)butylamino]-6-(3,5-dimethoxyphenyl)pyrido[2,3-d]pyrimidin-7-yl]urea"], "SMILES": "N(C(NC(C)(C)C)=O)C=1C(=CC2=C(N1)N=C(NCCCCN(CC)CC)N=C2)C3=CC(OC)=CC(OC)=C3", "physical_data": {"Molecular Weight": "523.67", "Molecular Formula": "C28H41N7O3", "Melting Point": "82-86 \u00b0C"}}