{"cas_no": "219543-09-6", "cn_name": "4-\u4e59\u9170\u6c28\u57fa-2,2,6,6-\u56db\u7532\u57fa-1-\u6c27\u6742\u54cc\u5576\u56db\u6c1f\u787c\u9178\u76d0", "en_name": ["Piperidinium, 4-(acetylamino)-2,2,6,6-tetramethyl-1-oxo-, tetrafluoroborate(1-) (1:1)", "Piperidinium, 4-(acetylamino)-2,2,6,6-tetramethyl-1-oxo-, tetrafluoroborate(1-) (1:1)", "Piperidinium, 4-(acetylamino)-2,2,6,6-tetramethyl-1-oxo-, tetrafluoroborate(1-)", "Bobbitt's salt", "4-Acetamido-2,2,6,6-tetramethyl-1-oxopiperidinium tetrafluoroborate"], "SMILES": "[B+3]([F-])([F-])([F-])[F-].N(C(C)=O)C1CC(C)(C)[N+](=O)C(C)(C)C1", "physical_data": {"Molecular Weight": "", "Molecular Formula": "C11H21N2O2.BF4", "Melting Point": "194-197 \u00b0C (decomp)"}}