{"cas_no": "21964-44-3", "cn_name": "1-\u58ec\u70ef-3-\u9187", "en_name": ["1-Nonen-3-ol", "1-Nonen-3-ol", "Hexylvinylcarbinol", "1-Vinylheptanol", "3-Hydroxy-1-nonene", "(\u00b1)-1-Nonen-3-ol", "NSC 102782"], "SMILES": "C(CCCCCC)(C=C)O", "physical_data": {"Molecular Weight": "142.24", "Molecular Formula": "C9H18O", "Boiling Point": "193.5 \u00b0C", "Density": "0.824 g/cm\u00b3 @ Temp: 21 \u00b0C"}}