{"cas_no": "2196-13-6", "cn_name": "\u786b\u4ee3\u5f02\u70df\u9170\u80fa", "en_name": ["4-Pyridinecarbothioamide", "4-Pyridinecarbothioamide", "Isonicotinamide, thio-", "Isonicotinic acid thioamide", "Thioisonicotinamide", "Thio-4-pyridinecarboxamide", "Isothionicotinamide", "4-Pyridylthiocarboxamide", "4-Pyridinethiocarboxamide", "NSC 1607", "4-(Aminothiocarbonyl)pyridine", "4-Pyridinethioamide"], "SMILES": "C(N)(=S)C=1C=CN=CC1", "physical_data": {"Molecular Weight": "138.19", "Molecular Formula": "C6H6N2S", "Melting Point": "210 \u00b0C"}}