{"cas_no": "21967-41-9", "cn_name": "\u9ec4\u82a9\u82f7", "en_name": ["Baicalin", "\u03b2-D-Glucopyranosiduronic acid, 5,6-dihydroxy-4-oxo-2-phenyl-4H-1-benzopyran-7-yl", "Baicalin", "5,6-Dihydroxy-4-oxo-2-phenyl-4H-1-benzopyran-7-yl \u03b2-D-glucopyranosiduronic acid", "Baicalein 7-glucuronide", "Baicalein 7-O-\u03b2-D-glucuronide", "Baicalein 7-O-glucuronide"], "SMILES": "OC1=C2C(OC(=CC2=O)C3=CC=CC=C3)=CC(OC4OC(C(O)=O)C(O)C(O)C4O)=C1O", "physical_data": {"Molecular Weight": "446.36", "Molecular Formula": "C21H18O11", "Melting Point": "223 \u00b0C"}}