{"cas_no": "2196-14-7", "cn_name": "7,4'-\u4e8c\u7f9f\u57fa\u9ec4\u916e", "en_name": ["7,4\u2032-Dihydroxyflavone", "4H-1-Benzopyran-4-one, 7-hydroxy-2-(4-hydroxyphenyl)-", "Flavone, 4\u2032,7-dihydroxy-", "7-Hydroxy-2-(4-hydroxyphenyl)-4H-1-benzopyran-4-one", "7,4\u2032-Dihydroxyflavone", "4\u2032,7-Dihydroxyflavone", "7-Hydroxy-2-(4-Hydroxyphenyl)chromen-4-one", "Kumatakenin B", "7-Hydroxy-2-(4-hydroxyphenyl)-4H-chromen-4-one", "Daizein"], "SMILES": "O=C1C=2C(OC(=C1)C3=CC=C(O)C=C3)=CC(O)=CC2", "physical_data": {"Molecular Weight": "254.24", "Molecular Formula": "C15H10O4", "Melting Point": "315 \u00b0C"}}