{"cas_no": "2196-99-8", "cn_name": "2-\u6c2f-4-\u7532\u6c27\u57fa\u82ef\u4e59\u916e", "en_name": ["2-Chloro-1-(4-methoxyphenyl)ethanone", "Ethanone, 2-chloro-1-(4-methoxyphenyl)-", "Acetophenone, 2-chloro-4\u2032-methoxy-", "2-Chloro-1-(4-methoxyphenyl)ethanone", "4-Methoxyphenacyl chloride", "4\u2032-Methoxy-2-chloroacetophenone", "p-Methoxyphenacyl chloride", "2-Chloro-4\u2032-methoxyacetophenone", "\u03b1-Chloro-4-methoxyacetophenone", "2-Chloro-1-(4\u2032-methoxyphenyl)ethanone", "Chloromethyl 4-methoxyphenyl ketone", "NSC 41670", "\u03b1-Chloro-4\u2032-methoxyacetophenone", "\u03b1-Chloro-p-methoxyacetophenone", "2-Chloro-1-(4-methoxyphenyl)ethan-1-one"], "SMILES": "C(CCl)(=O)C1=CC=C(OC)C=C1", "physical_data": {"Molecular Weight": "184.62", "Molecular Formula": "C9H9ClO2", "Melting Point": "97-98 \u00b0C"}}