{"cas_no": "21961-30-8", "cn_name": "3-\u6c28\u57fa-5-\u6c2f\u82ef\u7532\u9178", "en_name": ["3-Amino-5-chlorobenzoic acid", "Benzoic acid, 3-amino-5-chloro-", "3-Amino-5-chlorobenzoic acid"], "SMILES": "C(O)(=O)C1=CC(Cl)=CC(N)=C1", "physical_data": {"Molecular Weight": "171.58", "Molecular Formula": "C7H6ClNO2", "Melting Point": "185-250 \u00b0C (decomp)"}}