{"cas_no": "21968-17-2", "cn_name": "N-\u5f02\u4e19\u57fa\u4e19\u80fa", "en_name": ["N-(1-Methylethyl)-1-propanamine", "1-Propanamine, N-(1-methylethyl)-", "Propylamine, N-isopropyl-", "N-(1-Methylethyl)-1-propanamine", "N-n-Propylisopropylamine", "N-Isopropylpropylamine", "Propylisopropylamine", "N-Isopropyl-N-[n-propyl]amine", "N-Isopropyl-N-propylamine", "(Propan-2-yl)(propyl)amine"], "SMILES": "N(C(C)C)CCC", "physical_data": {"Molecular Weight": "101.19", "Molecular Formula": "C6H15N", "Boiling Point": "96.9 \u00b0C", "Density": "0.73 g/cm\u00b3 @ Temp: 20 \u00b0C"}}