{"cas_no": "21962-45-8", "cn_name": "4-\u6c30\u57fa-2-\u7532\u6c27\u57fa\u82ef\u7532\u919b", "en_name": ["4-Formyl-3-methoxybenzonitrile", "Benzonitrile, 4-formyl-3-methoxy-", "Terephthalaldehydonitrile, 3-methoxy-", "4-Formyl-3-methoxybenzonitrile", "2-Methoxy-4-cyanobenzaldehyde", "4-Cyano-2-methoxybenzaldehyde"], "SMILES": "O(C)C1=C(C=O)C=CC(C#N)=C1", "physical_data": {"Molecular Weight": "161.16", "Molecular Formula": "C9H7NO2", "Melting Point": "109-111 \u00b0C"}}