{"cas_no": "2196-18-1", "cn_name": "3,4'-\u4e8c\u7f9f\u57fa-3'-\u7532\u6c27\u57fa\u82ef\u4e19\u916e", "en_name": ["\u03b2-Hydroxypropiovanillone", "1-Propanone, 3-hydroxy-1-(4-hydroxy-3-methoxyphenyl)-", "Propiophenone, 3,4\u2032-dihydroxy-3\u2032-methoxy-", "3-Hydroxy-1-(4-hydroxy-3-methoxyphenyl)-1-propanone", "\u03b2-Hydroxypropiovanillone", "3,4\u2032-Dihydroxy-3\u2032-methoxypropiophenone", "\u03c9-Hydroxypropioguaiacone", "2-Hydroxyethylguaiacylketone"], "SMILES": "C(CCO)(=O)C1=CC(OC)=C(O)C=C1", "physical_data": {"Molecular Weight": "196.20", "Molecular Formula": "C10H12O4", "Melting Point": "109-110 \u00b0C"}}