{"cas_no": "2196-60-3", "cn_name": "\u4e4c\u836f\u78b1", "en_name": ["(+)-Coclaurine", "7-Isoquinolinol, 1,2,3,4-tetrahydro-1-[(4-hydroxyphenyl)methyl]-6-methoxy-, (1R)-", "7-Isoquinolinol, 1,2,3,4-tetrahydro-1-[(4-hydroxyphenyl)methyl]-6-methoxy-, (R)-", "(1R)-1,2,3,4-Tetrahydro-1-[(4-hydroxyphenyl)methyl]-6-methoxy-7-isoquinolinol", "(+)-Coclaurine", "d-Coclaurine", "Sanjoinine K", "(R)-Coclaurine", "(+)-R-Coclaurine"], "SMILES": "C(C1C=2C(=CC(OC)=C(O)C2)CCN1)C3=CC=C(O)C=C3", "physical_data": {"Molecular Weight": "285.34", "Molecular Formula": "C17H19NO3", "Melting Point": "222-224 \u00b0C"}}