{"cas_no": "21964-49-8", "cn_name": "(1,13-\u5341\u56db\u70f7\u4e8c)\u70ef", "en_name": ["1,13-Tetradecadiene", "1,13-Tetradecadiene"], "SMILES": "C(CCCCCC=C)CCCCC=C", "physical_data": {"Molecular Weight": "194.36", "Molecular Formula": "C14H26", "Boiling Point": "129-133 \u00b0C @ Press: 12 Torr", "Density": "0.8486 g/cm\u00b3 @ Temp: 19 \u00b0C"}}