{"cas_no": "219714-96-2", "cn_name": "\u4e94\u6c1f\u78fa\u8349\u80fa", "en_name": ["Penoxsulam", "Benzenesulfonamide, 2-(2,2-difluoroethoxy)-N-(5,8-dimethoxy[1,2,4]triazolo[1,5-c]pyrimidin-2-yl)-6-(trifluoromethyl)-", "2-(2,2-Difluoroethoxy)-N-(5,8-dimethoxy[1,2,4]triazolo[1,5-c]pyrimidin-2-yl)-6-(trifluoromethyl)benzenesulfonamide", "Penoxsulam", "Granite", "DASH 001", "Ricer 240SC", "Granite SC", "Grasp", "Grasp (benzenesulfonamide)", "Grasp EC", "Clipper", "Clipper (benzenesulfonamide)", "Clipper 20OD", "Ricer", "Granite (herbicide)", "Viper", "Rainbow 25OD"], "SMILES": "S(NC=1N=C2N(N1)C(OC)=NC=C2OC)(=O)(=O)C3=C(OCC(F)F)C=CC=C3C(F)(F)F", "physical_data": {"Molecular Weight": "483.37", "Molecular Formula": "C16H14F5N5O5S", "Melting Point": "223-224 \u00b0C"}}