{"cas_no": "2197-63-9", "cn_name": "\u53cc\u5341\u516d\u70f7\u57fa\u78f7\u9178", "en_name": ["Dicetyl phosphate", "1-Hexadecanol, 1,1\u2032-(hydrogen phosphate)", "1-Hexadecanol, hydrogen phosphate", "Dicetyl phosphate", "Dicetyl hydrogen phosphate", "Dihexadecyl hydrogen phosphate", "Dihexadecyl phosphate", "Bis(hexadecyl) phosphate", "Di(hexadecyl) monohydrogen phosphate", "Di-n-hexadecyl phosphate", "Phosphoric acid dihexadecyl ester", "DAP 60H", "NSC 12429", "Crodafos CS 20A", "CS 20A"], "SMILES": "O(P(OCCCCCCCCCCCCCCCC)(=O)O)CCCCCCCCCCCCCCCC", "physical_data": {"Molecular Weight": "546.85", "Molecular Formula": "C32H67O4P", "Melting Point": "68-70 \u00b0C"}}