{"cas_no": "219783-77-4", "cn_name": "\u7d2b\u6749\u9187EP\u6742\u8d28O", "en_name": ["(2aR,4S,4aS,6R,9S,11S,12S,12aR,12bS)-6,12b-Bis(acetyloxy)-12-(benzoyloxy)-2a,3,4,4a,5,6,9,10,11,12,12a,12b-dodecahydro-4,11-dihydroxy-4a,8,13,13-tetramethyl-5-oxo-7,11-methano-1H-cyclodeca[3,4]benz[1,2-b]oxet-9-yl (\u03b1R,\u03b2S)-\u03b1-hydroxy-\u03b2-[[(2E)-1-oxo-3-phenyl-2-propen-1-yl]amino]benzenepropanoate", "Benzenepropanoic acid, \u03b1-hydroxy-\u03b2-[[(2E)-1-oxo-3-phenyl-2-propen-1-yl]amino]-, (2aR,4S,4aS,6R,9S,11S,12S,12aR,12bS)-6,12b-bis(acetyloxy)-12-(benzoyloxy)-2a,3,4,4a,5,6,9,10,11,12,12a,12b-dodecahydro-4,11-dihydroxy-4a,8,13,13-tetramethyl-5-oxo-7,11-methano-1H-cyclodeca[3,4]benz[1,2-b]oxet-9-yl ester, (\u03b1R,\u03b2S)-", "Benzenepropanoic acid, \u03b1-hydroxy-\u03b2-[[(2E)-1-oxo-3-phenyl-2-propenyl]amino]-, (2aR,4S,4aS,6R,9S,11S,12S,12aR,12bS)-6,12b-bis(acetyloxy)-12-(benzoyloxy)-2a,3,4,4a,5,6,9,10,11,12,12a,12b-dodecahydro-4,11-dihydroxy-4a,8,13,13-tetramethyl-5-oxo-7,11-methano-1H-cyclodeca[3,4]benz[1,2-b]oxet-9-yl ester, (\u03b1R,\u03b2S)-", "(2aR,4S,4aS,6R,9S,11S,12S,12aR,12bS)-6,12b-Bis(acetyloxy)-12-(benzoyloxy)-2a,3,4,4a,5,6,9,10,11,12,12a,12b-dodecahydro-4,11-dihydroxy-4a,8,13,13-tetramethyl-5-oxo-7,11-methano-1H-cyclodeca[3,4]benz[1,2-b]oxet-9-yl (\u03b1R,\u03b2S)-\u03b1-hydroxy-\u03b2-[[(2E)-1-oxo-3-phenyl-2-propen-1-yl]amino]benzenepropanoate"], "SMILES": "O(C(C)=O)C12C3C(OC(=O)C4=CC=CC=C4)C5(O)C(C)(C)C(C(OC(C)=O)C(=O)C3(C)C(O)CC1OC2)=C(C)C(OC(C(C(NC(C=CC6=CC=CC=C6)=O)C7=CC=CC=C7)O)=O)C5", "physical_data": {"Molecular Weight": "879.94", "Molecular Formula": "C49H53NO14", "Melting Point": "149-150 \u00b0C"}}