{"cas_no": "2198-58-5", "cn_name": "N,N-\u4e8c\u4e59\u57fa\u5bf9\u82ef\u4e8c\u80fa\u76d0\u9178\u76d0", "en_name": ["N,N-Diethyl-p-phenylenediamine hydrochloride", "1,4-Benzenediamine, N1,N1-diethyl-, hydrochloride (1:1)", "p-Phenylenediamine, N,N-diethyl-, monohydrochloride", "1,4-Benzenediamine, N,N-diethyl-, monohydrochloride", "N,N-Diethyl-p-phenylenediamine hydrochloride", "N,N-Diethyl-p-phenylenediamine monohydrochloride", "CD 1", "CD 1 (amine)"], "SMILES": "N(CC)(CC)C1=CC=C(N)C=C1.Cl", "physical_data": {"Molecular Weight": "", "Molecular Formula": "C10H16N2.ClH", "Melting Point": "222-223 \u00b0C"}}