{"cas_no": "2198-23-4", "cn_name": "\u4e01\u9999\u9178\u7532\u916f", "en_name": ["4-Nonene", "4-Nonene"], "SMILES": "C(CCCC)=CCCC", "physical_data": {"Molecular Weight": "126.24", "Molecular Formula": "C9H18", "Boiling Point": "144-146 \u00b0C", "Density": "0.732 g/cm\u00b3 @ Temp: 18 \u00b0C"}}