{"cas_no": "2198-66-5", "cn_name": "2-\u6eb4-4-\u53d4\u4e01\u57fa\u82ef\u915a", "en_name": ["2-Bromo-4-tert-butylphenol", "Phenol, 2-bromo-4-(1,1-dimethylethyl)-", "Phenol, 2-bromo-4-tert-butyl-", "2-Bromo-4-(1,1-dimethylethyl)phenol", "2-Bromo-4-tert-butylphenol", "4-tert-Butyl-2-bromophenol", "NSC 2360", "2-Bromo-4-tert-butylphenol"], "SMILES": "C(C)(C)(C)C1=CC(Br)=C(O)C=C1", "physical_data": {"Molecular Weight": "229.11", "Molecular Formula": "C10H13BrO", "Boiling Point": "113 \u00b0C @ Press: 9 Torr", "Melting Point": "52 \u00b0C"}}