{"cas_no": "219861-08-2", "cn_name": "\u8349\u9178\u53f3\u65cb\u897f\u915e\u666e\u5170", "en_name": ["Escitalopram oxalate", "5-Isobenzofurancarbonitrile, 1-[3-(dimethylamino)propyl]-1-(4-fluorophenyl)-1,3-dihydro-, (1S)-, ethanedioate (1:1)", "Escitalopram oxalate", "Lu 26-054-0", "Lexapro", "Cipralex", "(+)-(S)-1-[3-(Dimethylamino)propyl]-1-(4-fluorophenyl)-1,3-dihydroisobenzofuran-5-carbonitrile oxalate (1:1)", "(S)-(+)Citalopram oxalate", "Cipra-Pro", "Szetalo"], "SMILES": "C(C(O)=O)(O)=O.C(CCN(C)C)C1(C=2C(CO1)=CC(C#N)=CC2)C3=CC=C(F)C=C3", "physical_data": {"Molecular Weight": "", "Molecular Formula": "C20H21FN2O.C2H2O4", "Melting Point": "144-146 \u00b0C"}}