{"cas_no": "2198-61-0", "cn_name": "\u5df1\u9178\u5f02\u620a\u916f", "en_name": ["Isoamyl hexanoate", "Hexanoic acid, 3-methylbutyl ester", "Hexanoic acid, isopentyl ester", "Isopentyl alcohol, hexanoate", "Isoamyl caproate", "Isoamyl hexanoate", "3-Methylbutyl hexanoate", "Isopentyl hexanoate", "Isopentyl caproate"], "SMILES": "C(OCCC(C)C)(CCCCC)=O", "physical_data": {"Molecular Weight": "186.29", "Molecular Formula": "C11H22O2", "Boiling Point": "225.5 \u00b0C"}}