{"cas_no": "2198-64-3", "cn_name": "N-\u82ef\u7532\u9170-L-\u4e19\u6c28\u9178", "en_name": ["N-Benzoyl-L-alanine", "L-Alanine, N-benzoyl-", "Alanine, N-benzoyl-, L-", "N-Benzoyl-L-alanine", "N-Benzoylalanine", "\u03b1-Methylhippuric acid", "Methylhippuric acid", "(S)-\u03b1-Methylhippuric acid", "(S)-N-Benzoylalanine", "L-N-Benzoylalanine", "Benzoyl-L-alanine", "N-Benzoyl-\u03b1-alanine", "NSC 167298", "NSC 43124", "(2S)-2-(Phenylformamido)propanoic acid", "Bz-L-Ala-OH"], "SMILES": "C(NC(C(O)=O)C)(=O)C1=CC=CC=C1", "physical_data": {"Molecular Weight": "193.20", "Molecular Formula": "C10H11NO3", "Boiling Point": "148-151 \u00b0C", "Melting Point": "119 \u00b0C"}}