{"cas_no": "21988-87-4", "cn_name": "2,4,6-\u4e09\u6eb4\u7532\u57fa\u4e09\u7532\u57fa\u82ef", "en_name": ["1,3,5-Tris(bromomethyl)-2,4,6-trimethylbenzene", "Benzene, 1,3,5-tris(bromomethyl)-2,4,6-trimethyl-", "1,3,5-Tris(bromomethyl)-2,4,6-trimethylbenzene", "2,4,6-Tri(bromomethyl)mesitylene", "Tris(bromomethyl)mesitylene", "1,3,5-Tri(bromomethyl)-2,4,6-trimethylbenzene", "2,4,6-Tris(bromomethyl)mesitylene", "1,3,5-Tris(bromomethyl)mesitylene", "2,4,6-Tris(bromomethyl)-1,3,5-trimethylbenzene", "1,3,5-Tris(4-bromomethyl)-2,4,6-trimethylbenzene", "1,3,5-Tris(bromoomethyl)-2,4,6-trimethylbenzene"], "SMILES": "C(Br)C1=C(C)C(CBr)=C(C)C(CBr)=C1C", "physical_data": {"Molecular Weight": "398.96", "Molecular Formula": "C12H15Br3", "Melting Point": "184-185 \u00b0C"}}