{"cas_no": "2198-53-0", "cn_name": "2',6'-\u4e8c\u7532\u57fa\u4e59\u9170\u82ef\u80fa", "en_name": ["N-(2,6-Dimethylphenyl)acetamide", "Acetamide, N-(2,6-dimethylphenyl)-", "2\u2032,6\u2032-Acetoxylidide", "N-(2,6-Dimethylphenyl)acetamide", "2\u2032,6\u2032-Dimethylacetanilide", "N-Acetyl-2,6-xylidine", "N-Acetyl-2,6-dimethylaniline", "NSC 54130"], "SMILES": "N(C(C)=O)C1=C(C)C=CC=C1C", "physical_data": {"Molecular Weight": "163.22", "Molecular Formula": "C10H13NO", "Melting Point": "182-184 \u00b0C"}}