{"cas_no": "2198-54-1", "cn_name": "3,4-\u4e8c\u7532\u57fa\u4e59\u9170\u82ef\u80fa", "en_name": ["N-(3,4-Dimethylphenyl)acetamide", "Acetamide, N-(3,4-dimethylphenyl)-", "3\u2032,4\u2032-Acetoxylidide", "N-(3,4-Dimethylphenyl)acetamide", "3\u2032,4\u2032-Dimethylacetanilide", "NSC 25232"], "SMILES": "N(C(C)=O)C1=CC(C)=C(C)C=C1", "physical_data": {"Molecular Weight": "163.22", "Molecular Formula": "C10H13NO", "Melting Point": "96.5 \u00b0C"}}