{"cas_no": "219834-95-4", "cn_name": "(4-\u7532\u6c27\u57fa-1-\u8418\u57fa)\u787c\u9178", "en_name": ["B-(4-Methoxy-1-naphthalenyl)boronic acid", "Boronic acid, B-(4-methoxy-1-naphthalenyl)-", "Boronic acid, (4-methoxy-1-naphthalenyl)-", "B-(4-Methoxy-1-naphthalenyl)boronic acid", "(4-Methoxynaphthalen-1-yl)boronic acid", "(4-Methoxy-1-naphthyl)boronic acid"], "SMILES": "B(O)(O)C=1C2=C(C(OC)=CC1)C=CC=C2", "physical_data": {"Molecular Weight": "202.01", "Molecular Formula": "C11H11BO3", "Melting Point": "195 \u00b0C"}}