{"cas_no": "2199-51-1", "cn_name": "2,4-\u4e8c\u7532\u57fa-3-\u5421\u54af\u7fa7\u9178\u4e59\u916f", "en_name": ["Ethyl 2,4-dimethyl-1H-pyrrole-3-carboxylate", "1H-Pyrrole-3-carboxylic acid, 2,4-dimethyl-, ethyl ester", "Pyrrole-3-carboxylic acid, 2,4-dimethyl-, ethyl ester", "Ethyl 2,4-dimethyl-1H-pyrrole-3-carboxylate", "2,4-Dimethyl-3-carbethoxypyrrole", "Ethyl 2,4-dimethylpyrrole-3-carboxylate", "2,4-Dimethyl-3-(ethoxycarbonyl)pyrrole", "3-(Ethoxycarbonyl)-2,4-dimethylpyrrole", "2,4-Dimethyl-1H-pyrrole-3-carboxylic acid ethyl ester", "NSC 13425"], "SMILES": "C(OCC)(=O)C=1C(C)=CNC1C", "physical_data": {"Molecular Weight": "167.21", "Molecular Formula": "C9H13NO2", "Boiling Point": "159-160 \u00b0C @ Press: 10 Torr", "Melting Point": "75-76 \u00b0C"}}