{"cas_no": "219911-35-0", "cn_name": "2-\u7532\u57fa-6-(\u82ef\u57fa\u4e59\u7094\u57fa)\u5421\u5576\u76d0\u9178\u76d0", "en_name": ["Pyridine, 2-methyl-6-(2-phenylethynyl)-, hydrochloride (1:1)", "Pyridine, 2-methyl-6-(2-phenylethynyl)-, hydrochloride (1:1)", "Pyridine, 2-methyl-6-(phenylethynyl)-, hydrochloride", "MPEP hydrochloride", "2-Methyl-6-(phenylethynyl)pyridine hydrochloride"], "SMILES": "C(#CC1=CC=CC=C1)C=2N=C(C)C=CC2.Cl", "physical_data": {"Molecular Weight": "", "Molecular Formula": "C14H11N.ClH", "Melting Point": "145-146 \u00b0C"}}