{"cas_no": "2199-46-4", "cn_name": "3,4,5-\u4e09\u7532\u57fa\u5421\u54af-2-\u7532\u57fa\u4e59\u916f", "en_name": ["Ethyl 3,4,5-trimethyl-1H-pyrrole-2-carboxylate", "1H-Pyrrole-2-carboxylic acid, 3,4,5-trimethyl-, ethyl ester", "Pyrrole-2-carboxylic acid, 3,4,5-trimethyl-, ethyl ester", "Ethyl 3,4,5-trimethyl-1H-pyrrole-2-carboxylate", "2,3,4-Trimethyl-5-carbethoxypyrrole", "Ethyl 3,4,5-trimethylpyrrole-2-carboxylate", "NSC 15767", "2-Ethoxycarbonyl-3,4,5-trimethylpyrrole", "3,4,5-Trimethyl-1H-pyrrole-2-carboxylic acid ethyl ester"], "SMILES": "C(OCC)(=O)C1=C(C)C(C)=C(C)N1", "physical_data": {"Molecular Weight": "181.23", "Molecular Formula": "C10H15NO2", "Melting Point": "128 \u00b0C"}}