{"cas_no": "2199-59-9", "cn_name": "2,4-\u4e8c\u7532\u57fa-5-\u919b\u57fa-1H-\u5421\u54af-3-\u7532\u9178\u4e59\u916f", "en_name": ["1H-Pyrrole-3-carboxylic acid, 5-formyl-2,4-dimethyl-, ethyl ester", "1H-Pyrrole-3-carboxylic acid, 5-formyl-2,4-dimethyl-, ethyl ester", "Pyrrole-3-carboxylic acid, 5-formyl-2,4-dimethyl-, ethyl ester", "Ethyl 2-formyl-3,5-dimethylpyrrole-4-carboxylate", "Ethyl 5-formyl-2,4-dimethylpyrrole-3-carboxylate", "Ethyl 2,4-dimethyl-5-formylpyrrole-3-carboxylate", "2,4-Dimethyl-3-ethoxycarbonyl-5-formylpyrrole", "5-Formyl-2,4-dimethyl-1H-pyrrole-3-carboxylic acid ethyl ester", "NSC 13426", "4-Ethoxycarbonyl-3,5-dimethylpyrrole-2-carboxaldehyde", "Ethyl 5-formyl-2,4-dimethyl-1H-pyrrole-3-carboxylate"], "SMILES": "C(OCC)(=O)C=1C(C)=C(C=O)NC1C", "physical_data": {"Molecular Weight": "195.22", "Molecular Formula": "C10H13NO3", "Melting Point": "165 \u00b0C"}}