{"cas_no": "219967-69-8", "cn_name": "O-\u53d4\u4e01\u57fa-N-FMOC-L-\u0392-\u9ad8\u916a\u6c28\u9178", "en_name": ["(\u03b2S)-4-(1,1-Dimethylethoxy)-\u03b2-[[(9H-fluoren-9-ylmethoxy)carbonyl]amino]benzenebutanoic acid", "Benzenebutanoic acid, 4-(1,1-dimethylethoxy)-\u03b2-[[(9H-fluoren-9-ylmethoxy)carbonyl]amino]-, (\u03b2S)-", "(\u03b2S)-4-(1,1-Dimethylethoxy)-\u03b2-[[(9H-fluoren-9-ylmethoxy)carbonyl]amino]benzenebutanoic acid", "(3S)-3-(9H-Fluoren-9-ylmethoxycarbonylamino)-4-[4-[(2-methylpropan-2-yl)oxy]phenyl]butanoic acid"], "SMILES": "C(OC(NC(CC1=CC=C(OC(C)(C)C)C=C1)CC(O)=O)=O)C2C=3C(C=4C2=CC=CC4)=CC=CC3", "physical_data": {"Molecular Weight": "473.56", "Molecular Formula": "C29H31NO5", "Melting Point": "105-110 \u00b0C"}}