{"cas_no": "2199-64-6", "cn_name": "ETHYL 4-FORMYL-3,5-DIMETHYL-1H-PYRROLE-2-CARBOXYLATE", "en_name": ["Ethyl 4-formyl-3,5-dimethyl-1H-pyrrole-2-carboxylate", "1H-Pyrrole-2-carboxylic acid, 4-formyl-3,5-dimethyl-, ethyl ester", "Pyrrole-2-carboxylic acid, 4-formyl-3,5-dimethyl-, ethyl ester", "Ethyl 4-formyl-3,5-dimethyl-1H-pyrrole-2-carboxylate", "Ethyl 4-formyl-3,5-dimethylpyrrole-2-carboxylate", "NSC 13665"], "SMILES": "C(OCC)(=O)C1=C(C)C(C=O)=C(C)N1", "physical_data": {"Molecular Weight": "195.22", "Molecular Formula": "C10H13NO3", "Melting Point": "145 \u00b0C"}}