{"cas_no": "219909-83-8", "cn_name": "3-[(2S,4S)-4-\u5def\u57fa\u5421\u54af\u70f7-2-\u7fb0\u9170\u80fa\u57fa]\u82ef\u7532\u9178\u76d0\u9178\u76d0", "en_name": ["Benzoic acid, 3-[[[(2S,4S)-4-mercapto-2-pyrrolidinyl]carbonyl]amino]-, hydrochloride (1:1)", "Benzoic acid, 3-[[[(2S,4S)-4-mercapto-2-pyrrolidinyl]carbonyl]amino]-, hydrochloride (1:1)", "Benzoic acid, 3-[[[(2S,4S)-4-mercapto-2-pyrrolidinyl]carbonyl]amino]-, monohydrochloride"], "SMILES": "C(NC1=CC(C(O)=O)=CC=C1)(=O)C2CC(S)CN2.Cl", "physical_data": {"Molecular Weight": "", "Molecular Formula": "C12H14N2O3S.ClH", "Melting Point": "212 \u00b0C"}}