{"cas_no": "2199-52-2", "cn_name": "2,5-\u4e8c\u7532\u57fa\u5421\u54af-3-\u4e59\u916f", "en_name": ["Ethyl 2,5-dimethyl-1H-pyrrole-3-carboxylate", "1H-Pyrrole-3-carboxylic acid, 2,5-dimethyl-, ethyl ester", "Pyrrole-3-carboxylic acid, 2,5-dimethyl-, ethyl ester", "Ethyl 2,5-dimethyl-1H-pyrrole-3-carboxylate", "Ethyl 2,5-dimethylpyrrole-3-carboxylate", "2,5-Dimethylpyrrole-3-carboxylic acid ethyl ester", "NSC 19437", "2,5-Dimethyl-1H-pyrrole-3-carboxylic acid ethyl ester"], "SMILES": "C(OCC)(=O)C1=C(C)NC(C)=C1", "physical_data": {"Molecular Weight": "167.21", "Molecular Formula": "C9H13NO2", "Melting Point": "117-117.5 \u00b0C"}}