{"cas_no": "219921-94-5", "cn_name": "(S)-3-\u7532\u57fa-1-[2-(1-\u54cc\u5576\u57fa)\u82ef\u57fa]\u4e01\u80fa.N-\u4e59\u9170-L-\u8c37\u6c28\u9178\u76d0", "en_name": ["L-Glutamic acid, N-acetyl-, compd. with (\u03b1S)-\u03b1-(2-methylpropyl)-2-(1-piperidinyl)benzenemethanamine (1:1)", "L-Glutamic acid, N-acetyl-, compd. with (\u03b1S)-\u03b1-(2-methylpropyl)-2-(1-piperidinyl)benzenemethanamine (1:1)", "Benzenemethanamine, \u03b1-(2-methylpropyl)-2-(1-piperidinyl)-, (\u03b1S)-, N-acetyl-L-glutamate (1:1)"], "SMILES": "C(CCC(O)=O)(NC(C)=O)C(O)=O.C(CC(C)C)(N)C1=C(C=CC=C1)N2CCCCC2", "physical_data": {"Molecular Weight": "", "Molecular Formula": "C16H26N2.C7H11NO5", "Melting Point": "169-171 \u00b0C"}}