{"cas_no": "2199-87-3", "cn_name": "6-\u6eb4\u9999\u8c46\u7d20-3-\u7532\u9178", "en_name": ["6-Bromo-2-oxo-2H-chromene-3-carboxylic acid", "2H-1-Benzopyran-3-carboxylic acid, 6-bromo-2-oxo-", "6-Bromo-2-oxo-2H-1-benzopyran-3-carboxylic acid", "6-Bromo-2-oxo-2H-chromene-3-carboxylic acid", "6-Bromo-3-carboxycoumarin", "6-Bromocoumarin-3-carboxylic acid"], "SMILES": "C(O)(=O)C1=CC=2C(OC1=O)=CC=C(Br)C2", "physical_data": {"Molecular Weight": "269.05", "Molecular Formula": "C10H5BrO4", "Melting Point": "200 \u00b0C"}}