{"cas_no": "2199-93-1", "cn_name": "3-\u4e59\u9170\u57fa-6-\u6eb4\u9999\u8c46\u7d20", "en_name": ["3-Acetyl-6-bromocoumarin", "2H-1-Benzopyran-2-one, 3-acetyl-6-bromo-", "Coumarin, 3-acetyl-6-bromo-", "3-Acetyl-6-bromo-2H-1-benzopyran-2-one", "3-Acetyl-6-bromocoumarin", "6-Bromo-3-acetylcoumarin", "NSC 201515", "3-Acetyl-6-bromo-2H-chromen-2-one", "3-Acetyl-6-bromochromen-2-one"], "SMILES": "C(C)(=O)C1=CC=2C(OC1=O)=CC=C(Br)C2", "physical_data": {"Molecular Weight": "267.08", "Molecular Formula": "C11H7BrO3", "Melting Point": "219 \u00b0C", "Density": "1.70 g/cm\u00b3"}}