{"cas_no": "22009-37-6", "cn_name": "7-\u7532\u57fa-3,4-\u4e8c\u6c22-2H-1-\u8418\u916e", "en_name": ["7-Methyl-1-tetralone", "1(2H)-Naphthalenone, 3,4-dihydro-7-methyl-", "3,4-Dihydro-7-methyl-1(2H)-naphthalenone", "7-Methyl-1-tetralone", "7-Methyltetralone", "7-Methyl-\u03b1-tetralone", "NSC 115847", "7-Methyl-3,4-dihydronaphthalen-1(2H)-one", "7-Methyltetralin-1-one"], "SMILES": "O=C1C=2C(=CC=C(C)C2)CCC1", "physical_data": {"Molecular Weight": "160.21", "Molecular Formula": "C11H12O", "Boiling Point": "143-145 \u00b0C @ Press: 15 Torr", "Melting Point": "35-36 \u00b0C"}}