{"cas_no": "220000-87-3", "cn_name": "N-\u7532\u57fa-4-\u6c2f-2-\u5421\u5576\u7532\u9170\u80fa", "en_name": ["4-Chloro-N-methylpicolinamide", "2-Pyridinecarboxamide, 4-chloro-N-methyl-", "4-Chloro-N-methyl-2-pyridinecarboxamide", "2-(N-Methylcarbamoyl)-4-chloropyridine", "N-Methyl-4-chloro-2-pyridinecarboxamide", "N-Methyl-4-chloropicolinamide", "4-Chloropyridine-2-carboxylic acid methylamide", "4-Chloro-N-methylpicolinamide", "APS-4-76"], "SMILES": "C(NC)(=O)C1=CC(Cl)=CC=N1", "physical_data": {"Molecular Weight": "170.60", "Molecular Formula": "C7H7ClN2O", "Melting Point": "41-42 \u00b0C"}}