{"cas_no": "22002-45-5", "cn_name": "3-\u6eb4-4-\u7532\u6c27\u57fa\u7532\u82ef", "en_name": ["2-Bromo-4-methylanisole", "Benzene, 2-bromo-1-methoxy-4-methyl-", "Anisole, 2-bromo-4-methyl-", "2-Bromo-1-methoxy-4-methylbenzene", "2-Bromo-4-methylanisole", "3-Bromo-4-methoxytoluene", "m-Bromo-p-methoxytoluene", "1-Bromo-2-methoxy-5-methylbenzene"], "SMILES": "O(C)C1=C(Br)C=C(C)C=C1", "physical_data": {"Molecular Weight": "201.06", "Molecular Formula": "C8H9BrO", "Boiling Point": "222 \u00b0C @ Press: 760 Torr", "Melting Point": "199 \u00b0C"}}