{"cas_no": "22007-72-3", "cn_name": "\u767d\u524d\u82f7B", "en_name": ["Quercetin 7-O-rhamnoside", "4H-1-Benzopyran-4-one, 7-[(6-deoxy-\u03b1-L-mannopyranosyl)oxy]-2-(3,4-dihydroxyphenyl)-3,5-dihydroxy-", "Vincetoxicoside B", "7-[(6-Deoxy-\u03b1-L-mannopyranosyl)oxy]-2-(3,4-dihydroxyphenyl)-3,5-dihydroxy-4H-1-benzopyran-4-one", "7-Rhamnosylquercetin", "Quercetin 7-rhamnoside", "Quercetin 7-O-rhamnoside", "Quercetol 7-O-rhamnoside", "Quercetin-7-\u03b1-L-rhamnoside", "Sophoretin-3-O-\u03b1-L-rhamnoside"], "SMILES": "O=C1C=2C(OC(=C1O)C3=CC(O)=C(O)C=C3)=CC(OC4C(O)C(O)C(O)C(C)O4)=CC2O", "physical_data": {"Molecular Weight": "448.38", "Molecular Formula": "C21H20O11", "Melting Point": "174-175 \u00b0C"}}