{"cas_no": "22009-38-7", "cn_name": "7-\u7f9f\u57fa-3,4-\u4e8c\u6c22-2H-1-\u8418\u916e", "en_name": ["3,4-Dihydro-7-hydroxy-1(2H)-naphthalenone", "1(2H)-Naphthalenone, 3,4-dihydro-7-hydroxy-", "3,4-Dihydro-7-hydroxy-1(2H)-naphthalenone", "5,6,7,8-Tetrahydro-8-oxo-2-naphthol", "7-Hydroxy-1-tetralone", "7-Hydroxy-\u03b1-tetralone", "3,4-Dihydro-7-hydroxy-1(2H)naphthalenone", "7-Hydroxy-3,4-dihydro-1(2H)-naphthalenone", "7-Hydroxy-3,4-dihydro-2H-naphthalen-1-one", "8-Oxo-5,6,7,8-tetrahydronaphthalen-2-ol", "1,2,3,4-Tetrahydro-7-hydroxynaphthyl-1-one", "7-Hydroxy-1,2,3,4-tetrahydro-1-naphthalenone", "7-Hydrox-3,4-dihydronaphthalen-1(2H)-one"], "SMILES": "O=C1C=2C(=CC=C(O)C2)CCC1", "physical_data": {"Molecular Weight": "162.19", "Molecular Formula": "C10H10O2", "Boiling Point": "213-215 \u00b0C", "Melting Point": "166 \u00b0C"}}