{"cas_no": "22013-33-8", "cn_name": "6-\u6c28\u57fa-1,4-\u82ef\u5e76\u4e8c\u6c27\u6742\u73af", "en_name": ["1,4-Benzodioxan-6-amine", "1,4-Benzodioxin-6-amine, 2,3-dihydro-", "1,4-Benzodioxan-6-amine", "2,3-Dihydro-1,4-benzodioxin-6-amine", "6-Amino-1,4-benzodioxane", "3,4-(Ethylenedioxy)aniline", "6-Amino-2,3-dihydro-1,4-benzodioxin", "2,3-Dihydrobenzo[1,4]dioxin-6-ylamine", "2,3-Dihydrobenzo[b][1,4]dioxin-6-amine", "6-Amino-2,3-dihydro-1,4-benzodioxine", "6-Amino-2,3-dihydrobenzo[b][1,4]dioxane", "6-Amino-2,3-dihydrobenzo[b][1,4]dioxine", "2,3-Dihydro-1,4-benzodioxin-6-ylamine"], "SMILES": "NC=1C=C2C(=CC1)OCCO2", "physical_data": {"Molecular Weight": "151.16", "Molecular Formula": "C8H9NO2", "Boiling Point": "149-150 \u00b0C @ Press: 2 Torr", "Melting Point": "207-208 \u00b0C"}}