{"cas_no": "22015-35-6", "cn_name": "\u7898\u5316\u94d5(II)", "en_name": ["Europium iodide (EuI2)", "Europium iodide (EuI2)", "Europium diiodide", "Europium(II) iodide"], "SMILES": "[Eu](I)I", "physical_data": {"Molecular Weight": "", "Molecular Formula": "EuI2", "Melting Point": "510 \u00b0C", "Density": "5.50 g/cm\u00b3 @ Temp: 25 \u00b0C"}}