{"cas_no": "2201-23-2", "cn_name": "1-\u82ef\u57fa-1-\u73af\u5df1\u57fa\u7532\u8148", "en_name": ["1-Phenylcyclohexanecarbonitrile", "Cyclohexanecarbonitrile, 1-phenyl-", "1-Phenylcyclohexanecarbonitrile", "1-Phenylcyclohexanenitrile", "NSC 106872", "1-Phenyl-1-cyclohexanecarbonitrile", "1-Phenylcyclohexane-1-carbonitrile"], "SMILES": "C(#N)C1(CCCCC1)C2=CC=CC=C2", "physical_data": {"Molecular Weight": "185.26", "Molecular Formula": "C13H15N", "Boiling Point": "125-127 \u00b0C @ Press: 3 Torr"}}