{"cas_no": "220127-57-1", "cn_name": "\u7532\u78fa\u9178\u4f0a\u9a6c\u66ff\u5c3c", "en_name": ["Imatinib mesylate", "Benzamide, 4-[(4-methyl-1-piperazinyl)methyl]-N-[4-methyl-3-[[4-(3-pyridinyl)-2-pyrimidinyl]amino]phenyl]-, methanesulfonate (1:1)", "Benzamide, 4-[(4-methyl-1-piperazinyl)methyl]-N-[4-methyl-3-[[4-(3-pyridinyl)-2-pyrimidinyl]amino]phenyl]-, monomethanesulfonate", "Imatinib mesilate", "Imatinib mesylate", "CGP 57148B", "STI 571", "Glivec", "Gleevac", "Gleevec", "1-Methyl-4-(4-((4-methyl-3-((4-(pyridin-3-yl)pyrimidin-2-yl)amino)phenyl)carbamoyl)benzyl)piperazine methanesulfonate", "Mitinab", "ST 571"], "SMILES": "S(C)(=O)(=O)O.N(C=1N=C(C=CN1)C=2C=CC=NC2)C3=CC(NC(=O)C4=CC=C(CN5CCN(C)CC5)C=C4)=CC=C3C", "physical_data": {"Molecular Weight": "", "Molecular Formula": "C29H31N7O.CH4O3S", "Melting Point": "146-148 \u00b0C"}}