{"cas_no": "22027-51-6", "cn_name": "(4-\u7532\u57fa\u82ef\u7532\u9170\u57fa)\u4e59\u9178\u7532\u916f", "en_name": ["Methyl 4-methyl-\u03b2-oxobenzenepropanoate", "Benzenepropanoic acid, 4-methyl-\u03b2-oxo-, methyl ester", "Acetic acid, p-toluoyl-, methyl ester", "Methyl 4-methyl-\u03b2-oxobenzenepropanoate", "Methyl 3-(4-methylphenyl)-3-oxopropanoate", "NSC 157310", "3-Oxo-3-(4-methylphenyl)propionic acid methyl ester", "Methyl 3-oxo-3-p-tolylpropanoate", "Methyl 3-oxo-3-(4-methylphenyl)propanoate", "3-Oxo-3-p-tolyl-propionic acid methyl ester"], "SMILES": "C(CC(OC)=O)(=O)C1=CC=C(C)C=C1", "physical_data": {"Molecular Weight": "192.21", "Molecular Formula": "C11H12O3", "Boiling Point": "190-192 \u00b0C @ Press: 41 Torr"}}