{"cas_no": "22026-39-7", "cn_name": "3,4-\u4e9a\u7532\u57fa\u4e8c\u6c27\u82c4\u80bc", "en_name": ["1,3-Benzodioxole-5-carboxylic acid, hydrazide", "1,3-Benzodioxole-5-carboxylic acid, hydrazide", "Piperonylic acid, hydrazide", "3,4-(Methylenedioxy)benzohydrazide", "3,4-Methylenedioxybenzhydrazide", "2H-Benzo[d]-1,3-dioxolane-5-carbohydrazide", "1,3-Benzodioxole-5-carbohydrazide", "5-(Hydrazinocarbonyl)benzo[d][1,3]dioxole", "Benzo[d][1,3]dioxole-5-carbohydrazide", "1,3-Dioxaindane-5-carbohydrazide", "2H-1,3-Benzodioxole-5-carbohydrazide"], "SMILES": "C(NN)(=O)C=1C=C2C(=CC1)OCO2", "physical_data": {"Molecular Weight": "180.16", "Molecular Formula": "C8H8N2O3", "Melting Point": "175-176 \u00b0C"}}