{"cas_no": "2202-17-7", "cn_name": "O-\u7532\u57fa\u8759\u8760\u845b\u78b1", "en_name": ["(-)-O-Methyldauricine", "Isoquinoline, 1,2,3,4-tetrahydro-6,7-dimethoxy-1-[[4-[2-methoxy-5-[[(1R)-1,2,3,4-tetrahydro-6,7-dimethoxy-2-methyl-1-isoquinolinyl]methyl]phenoxy]phenyl]methyl]-2-methyl-, (1R)-", "Dauricine, O-methyl-", "Isoquinoline, 1,2,3,4-tetrahydro-6,7-dimethoxy-1-[[4-[2-methoxy-5-[(1,2,3,4-tetrahydro-6,7-dimethoxy-2-methyl-1-isoquinolinyl)methyl]phenoxy]phenyl]methyl]-2-methyl-, [R-(R*,R*)]-", "(1R)-1,2,3,4-Tetrahydro-6,7-dimethoxy-1-[[4-[2-methoxy-5-[[(1R)-1,2,3,4-tetrahydro-6,7-dimethoxy-2-methyl-1-isoquinolinyl]methyl]phenoxy]phenyl]methyl]-2-methylisoquinoline", "O-Methyldauricine", "O,O-Dimethyldauricinoline", "(-)-O-Methyldauricine", "O,O-Dimethylcuspidaline"], "SMILES": "C(C1C=2C(=CC(OC)=C(OC)C2)CCN1C)C3=CC(OC4=CC=C(CC5C=6C(=CC(OC)=C(OC)C6)CCN5C)C=C4)=C(OC)C=C3", "physical_data": {"Molecular Weight": "638.79", "Molecular Formula": "C39H46N2O6", "Melting Point": "181-182 \u00b0C"}}