{"cas_no": "22029-76-1", "cn_name": "4-(2,6,6-\u4e09\u7532\u57fa\u73af\u5df1\u70ef\u57fa-1-\u57fa)-3-\u4e01\u70ef-2-\u9187", "en_name": ["\u03b2-Ionol", "3-Buten-2-ol, 4-(2,6,6-trimethyl-1-cyclohexen-1-yl)-", "4-(2,6,6-Trimethyl-1-cyclohexen-1-yl)-3-buten-2-ol", "\u03b2-Ionol"], "SMILES": "C(=CC(C)O)C=1C(C)(C)CCCC1C", "physical_data": {"Molecular Weight": "194.31", "Molecular Formula": "C13H22O", "Boiling Point": "130.5 \u00b0C @ Press: 14.5 Torr", "Density": "0.9251 g/cm\u00b3 @ Temp: 19 \u00b0C"}}