{"cas_no": "22027-50-5", "cn_name": "3-(4-\u7532\u6c27\u57fa\u82ef\u57fa)-3-\u6c27\u4ee3\u4e19\u9178\u7532\u916f", "en_name": ["Methyl 4-methoxy-\u03b2-oxobenzenepropanoate", "Benzenepropanoic acid, 4-methoxy-\u03b2-oxo-, methyl ester", "Acetic acid, p-anisoyl-, methyl ester", "Methyl 4-methoxy-\u03b2-oxobenzenepropanoate", "Methyl 3-(4-methoxyphenyl)-3-oxopropionate", "Methyl (4-methoxybenzoyl)acetate", "(4-Methoxybenzoyl)acetic acid methyl ester", "3-Oxo-3-(4-methoxyphenyl)propionic acid methyl ester", "3-(4-Methoxyphenyl)-3-oxopropanoic acid methyl ester", "Methyl 3-(4-methoxyphenyl)-3-oxopropanoate", "Methyl 3-oxo-3-(4-methoxyphenyl)propanoate", "3-(4-Methoxyphenyl)-3-oxo-propionic acid methyl ester"], "SMILES": "C(CC(OC)=O)(=O)C1=CC=C(OC)C=C1", "physical_data": {"Molecular Weight": "208.21", "Molecular Formula": "C11H12O4", "Boiling Point": "147 \u00b0C @ Press: 2.5 Torr", "Melting Point": "&lt;50 \u00b0C"}}