{"cas_no": "22033-87-0", "cn_name": "\u5965\u5229\u7d22\u897f", "en_name": ["Olesoxime", "Cholest-4-en-3-one, oxime", "NSC 21311", "TRO 19622", "Olesoxime"], "SMILES": "CC12C(C3C(C4(C)C(CC3)=CC(=NO)CC4)CC1)CCC2C(CCCC(C)C)C", "physical_data": {"Molecular Weight": "399.65", "Molecular Formula": "C27H45NO", "Melting Point": "145-148 \u00b0C"}}