{"cas_no": "220353-22-0", "cn_name": "4-\u6c28\u57fa-2,6-\u4e8c\u6c1f\u82ef\u915a\u76d0\u9178\u76d0", "en_name": ["Phenol, 4-amino-2,6-difluoro-, hydrochloride (1:1)", "Phenol, 4-amino-2,6-difluoro-, hydrochloride (1:1)", "Phenol, 4-amino-2,6-difluoro-, hydrochloride", "4-Amino-2,6-difluorophenol hydrochloride"], "SMILES": "OC1=C(F)C=C(N)C=C1F.Cl", "physical_data": {"Molecular Weight": "", "Molecular Formula": "C6H5F2NO.ClH", "Melting Point": "&gt;230 \u00b0C (decomp)"}}