{"cas_no": "220353-20-8", "cn_name": "2,4-\u4e8c\u6c1f-3-\u7532\u6c27\u57fa\u82ef\u7532\u8148", "en_name": ["2,4-Difluoro-3-methoxybenzonitrile", "Benzonitrile, 2,4-difluoro-3-methoxy-", "2,4-Difluoro-3-methoxybenzonitrile", "2,4-Difluoro-3-methoxy-benzonitrile", "3-Cyano-2,6-difluoroanisole"], "SMILES": "O(C)C1=C(F)C(C#N)=CC=C1F", "physical_data": {"Molecular Weight": "169.13", "Molecular Formula": "C8H5F2NO", "Melting Point": "41-42 \u00b0C"}}