{"cas_no": "2203-97-6", "cn_name": "\u6c22\u5316\u53ef\u7684\u677e\u7425\u73c0\u9178\u916f", "en_name": ["Hydrocortisone hemisuccinate", "Pregn-4-ene-3,20-dione, 21-(3-carboxy-1-oxopropoxy)-11,17-dihydroxy-, (11\u03b2)-", "Cortisol, 21-(hydrogen succinate)", "Cortisol, hydrogen succinate", "(11\u03b2)-21-(3-Carboxy-1-oxopropoxy)-11,17-dihydroxypregn-4-ene-3,20-dione", "Cortisol 21-hemisuccinate", "Hydrocortisone 21-hemisuccinate", "Hydrocortisone 21-(hydrogen succinate)", "Hydrocortisone 21-succinate", "Hydrocortisone hemisuccinate", "Cortisol hemisuccinate", "Hydrocortisone succinate", "Cortisol succinate", "Hydrocortisone hydrogen succinate", "Saxizon", "NSC 7576", "Hydrocortisone 21-O-\u03b2-carbonylpropionic acid"], "SMILES": "CC12C(C3C(C(O)C1)C4(C)C(CC3)=CC(=O)CC4)CCC2(C(COC(CCC(O)=O)=O)=O)O", "physical_data": {"Molecular Weight": "462.53", "Molecular Formula": "C25H34O8", "Melting Point": "170-172 \u00b0C"}}