{"cas_no": "22031-64-7", "cn_name": "\u8089\u6842\u9170\u80fa", "en_name": ["trans-Cinnamamide", "2-Propenamide, 3-phenyl-, (2E)-", "Cinnamamide, (E)-", "2-Propenamide, 3-phenyl-, (E)-", "(2E)-3-Phenyl-2-propenamide", "trans-Cinnamamide", "trans-Cinnamic acid amide", "trans-Cinnamoylamine", "trans-\u03b2-(Aminocarbonyl)styrene", "U 2422", "(E)-Cinnamamide", "trans-3-Phenyl-2-propenamide", "(E)-3-Phenyl-2-propenamide", "(E)-Cinnamamide"], "SMILES": "C(=CC(N)=O)C1=CC=CC=C1", "physical_data": {"Molecular Weight": "147.17", "Molecular Formula": "C9H9NO", "Melting Point": "148 \u00b0C"}}