{"cas_no": "22037-28-1", "cn_name": "3-\u6eb4\u544b\u5583", "en_name": ["3-Bromofuran", "Furan, 3-bromo-", "3-Bromofuran", "\u03b2-Bromofuran", "3-Furyl bromide"], "SMILES": "BrC=1C=COC1", "physical_data": {"Molecular Weight": "146.97", "Molecular Formula": "C4H3BrO", "Boiling Point": "103 \u00b0C", "Density": "1.6606 g/cm\u00b3 @ Temp: 20 \u00b0C"}}