{"cas_no": "22042-71-3", "cn_name": "4-\u7532\u9170\u82ef\u6c27\u57fa\u4e59\u9178", "en_name": ["(4-Formylphenoxy)acetic acid", "Acetic acid, 2-(4-formylphenoxy)-", "Acetic acid, (p-formylphenoxy)-", "Acetic acid, (4-formylphenoxy)-", "2-(4-Formylphenoxy)acetic acid", "(p-Formylphenoxy)acetic acid", "(4-Formylphenoxy)acetic acid", "4-(Carboxymethyloxy)benzaldehyde", "4-(Carboxymethoxy)benzaldehyde"], "SMILES": "O(CC(O)=O)C1=CC=C(C=O)C=C1", "physical_data": {"Molecular Weight": "180.16", "Molecular Formula": "C9H8O4", "Melting Point": "192-195 \u00b0C"}}