{"cas_no": "22042-73-5", "cn_name": "4-(2-\u7f9f\u57fa\u4e59\u6c27\u57fa)\u82ef\u7532\u919b", "en_name": ["4-(2-Hydroxyethoxy)benzaldehyde", "Benzaldehyde, 4-(2-hydroxyethoxy)-", "Benzaldehyde, p-(2-hydroxyethoxy)-", "4-(2-Hydroxyethoxy)benzaldehyde", "2-(p-Formylphenoxy)ethanol", "p-Hydroxyethoxybenzaldehyde", "p-(2-Hydroxyethoxy)benzaldehyde"], "SMILES": "O(CCO)C1=CC=C(C=O)C=C1", "physical_data": {"Molecular Weight": "166.17", "Molecular Formula": "C9H10O3", "Melting Point": "37 \u00b0C"}}