{"cas_no": "22042-79-1", "cn_name": "3,5-\u4e8c\u7532\u57fa-1\u82ef\u57fa\u5421\u5511-4-\u567b\u5429\u7532\u919b", "en_name": ["3,5-Dimethyl-1-phenyl-1H-pyrazole-4-carboxaldehyde", "1H-Pyrazole-4-carboxaldehyde, 3,5-dimethyl-1-phenyl-", "Pyrazole-4-carboxaldehyde, 3,5-dimethyl-1-phenyl-", "3,5-Dimethyl-1-phenyl-1H-pyrazole-4-carboxaldehyde", "3,5-Dimethyl-1-phenylpyrazole-4-carboxaldehyde", "3,5-Dimethyl-1-phenyl-4-formylpyrazole", "3,5-Dimethyl-1-phenyl-1H-pyrazole-4-carbaldehyde", "3,5-Dimethyl-1-phenylpyrazole-4-carbaldehyde"], "SMILES": "CC=1N(N=C(C)C1C=O)C2=CC=CC=C2", "physical_data": {"Molecular Weight": "200.24", "Molecular Formula": "C12H12N2O", "Boiling Point": "170 \u00b0C @ Press: 1 mmHg", "Melting Point": "128 \u00b0C"}}