{"cas_no": "22047-88-7", "cn_name": "2-\u82c4\u6c27\u57fa\u82ef\u4e59\u9178", "en_name": ["2-(Benzyloxy)phenylacetic acid", "Benzeneacetic acid, 2-(phenylmethoxy)-", "Acetic acid, [o-(benzyloxy)phenyl]-", "2-(Phenylmethoxy)benzeneacetic acid", "o-(Benzyloxy)phenylacetic acid", "2-(Benzyloxy)phenylacetic acid", "2-Phenylmethoxybenzeneacetic acid", "2-(2-(Benzyloxy)phenyl)acetic acid", "2-[2-(Benzyloxy)phenyl]acetic acid"], "SMILES": "O(CC1=CC=CC=C1)C2=C(CC(O)=O)C=CC=C2", "physical_data": {"Molecular Weight": "242.27", "Molecular Formula": "C15H14O3", "Melting Point": "97-99 \u00b0C"}}