{"cas_no": "22041-19-6", "cn_name": "\u5421\u54af\u70f7\u4e59\u9178\u4e59\u916f", "en_name": ["1-Pyrrolidineacetic acid, ethyl ester", "1-Pyrrolidineacetic acid, ethyl ester", "Ethyl N-pyrrolidinylacetate", "Ethyl 1-pyrrolidineacetate", "Ethyl 2-(pyrrolidin-1-yl)acetate"], "SMILES": "C(C(OCC)=O)N1CCCC1", "physical_data": {"Molecular Weight": "157.21", "Molecular Formula": "C8H15NO2", "Boiling Point": "59-59.5 \u00b0C"}}