{"cas_no": "22047-25-2", "cn_name": "2-\u4e59\u9170\u57fa\u5421\u55ea", "en_name": ["Acetylpyrazine", "Ethanone, 1-(2-pyrazinyl)-", "Ketone, methyl pyrazinyl", "Ethanone, 1-pyrazinyl-", "1-(2-Pyrazinyl)ethanone", "2-Acetylpyrazine", "Acetylpyrazine", "Pyrazine methyl ketone", "NSC 72374", "1-(Pyrazin-2-yl)ethanone", "1-(2-Pyrazinyl)-1-ethanone", "2-Acetyl-1,4-pyrazine", "Methyl pyrazin-2-yl ketone"], "SMILES": "C(C)(=O)C=1C=NC=CN1", "physical_data": {"Molecular Weight": "122.12", "Molecular Formula": "C6H6N2O", "Boiling Point": "79-80 \u00b0C", "Melting Point": "76-78 \u00b0C"}}