{"cas_no": "22042-72-4", "cn_name": "2-(2-\u7f9f\u57fa\u4e59\u6c27\u57fa)\u82ef\u7532\u919b", "en_name": ["2-(2-Hydroxyethoxy)benzaldehyde", "Benzaldehyde, 2-(2-hydroxyethoxy)-", "Benzaldehyde, o-(2-hydroxyethoxy)-", "2-(2-Hydroxyethoxy)benzaldehyde"], "SMILES": "O(CCO)C1=C(C=O)C=CC=C1", "physical_data": {"Molecular Weight": "166.17", "Molecular Formula": "C9H10O3", "Melting Point": "158-159 \u00b0C"}}