{"cas_no": "220497-66-5", "cn_name": "(1S,3R)-N-FMOC-3-\u6c28\u57fa\u73af\u620a\u70f7\u7532\u9178", "en_name": ["(1S,3R)-3-[[(9H-Fluoren-9-ylmethoxy)carbonyl]amino]cyclopentanecarboxylic acid", "Cyclopentanecarboxylic acid, 3-[[(9H-fluoren-9-ylmethoxy)carbonyl]amino]-, (1S,3R)-", "(1S,3R)-3-[[(9H-Fluoren-9-ylmethoxy)carbonyl]amino]cyclopentanecarboxylic acid"], "SMILES": "C(OC(NC1CC(C(O)=O)CC1)=O)C2C=3C(C=4C2=CC=CC4)=CC=CC3", "physical_data": {"Molecular Weight": "351.40", "Molecular Formula": "C21H21NO4", "Melting Point": "166-168 \u00b0C"}}