{"cas_no": "22055-22-7", "cn_name": "\u4e8c\u53f6\u8349\u7d20", "en_name": ["9-(1,3-Benzodioxol-5-yl)-4-hydroxy-6,7-dimethoxynaphtho[2,3-c]furan-1(3H)-one", "Naphtho[2,3-c]furan-1(3H)-one, 9-(1,3-benzodioxol-5-yl)-4-hydroxy-6,7-dimethoxy-", "Naphtho[2,3-c]furan-1(3H)-one, 4-hydroxy-6,7-dimethoxy-9-[3,4-(methylenedioxy)phenyl]-", "9-(1,3-Benzodioxol-5-yl)-4-hydroxy-6,7-dimethoxynaphtho[2,3-c]furan-1(3H)-one", "Diphyllin", "NSC 309691"], "SMILES": "O=C1C2=C(C=3C(C(O)=C2CO1)=CC(OC)=C(OC)C3)C=4C=C5C(=CC4)OCO5", "physical_data": {"Molecular Weight": "380.35", "Molecular Formula": "C21H16O7", "Melting Point": "290 \u00b0C"}}