{"cas_no": "22059-21-8", "cn_name": "1-\u6c28\u57fa\u73af\u4e19\u70f7\u7fa7\u9178", "en_name": ["1-Aminocyclopropane-1-carboxylic acid", "Cyclopropanecarboxylic acid, 1-amino-", "1-Aminocyclopropanecarboxylic acid", "1-Aminocyclopropane-1-carboxylate", "\u03b1-Aminocyclopropanecarboxylic acid", "1-Aminocyclopropane-1-carboxylic acid", "ACC", "1-Amino-1-carboxycyclopropane", "ACPC", "NSC 98430"], "SMILES": "C(O)(=O)C1(N)CC1", "physical_data": {"Molecular Weight": "101.10", "Molecular Formula": "C4H7NO2", "Melting Point": "198-201 \u00b0C"}}