{"cas_no": "22059-22-9", "cn_name": "N-\u7f9f\u57fa\u4e59\u8112", "en_name": ["Acetamide oxime", "Ethanimidamide, N-hydroxy-", "Acetamidoxime", "Acetamide oxime", "Methylamidoxime", "N-Hydroxyacetamidine", "N-Hydroxyethanimidamide", "N\u2032-Hydroxyethanimidamide", "N\u2032-Hydroxyacetimidamide", "N\u2032-Hydroxyacetamidine", "N-Hydroxyacetimidamide"], "SMILES": "C(NO)(C)=N", "physical_data": {"Molecular Weight": "74.08", "Molecular Formula": "C2H6N2O", "Melting Point": "135 \u00b0C"}}