{"cas_no": "220551-92-8", "cn_name": "N-(2,5-\u4e8c\u7532\u6c27\u57fa\u82c4\u57fa)-N-(5-\u6c1f-2-\u82ef\u6c27\u57fa\u82ef\u57fa)\u4e59\u9170\u80fa", "en_name": ["N-(2,5-Dimethoxybenzyl)-N-(5-fluoro-2-phenoxyphenyl)acetamide", "Acetamide, N-[(2,5-dimethoxyphenyl)methyl]-N-(5-fluoro-2-phenoxyphenyl)-", "N-[(2,5-Dimethoxyphenyl)methyl]-N-(5-fluoro-2-phenoxyphenyl)acetamide", "DAA 1106", "N-(2,5-Dimethoxybenzyl)-N-(5-fluoro-2-phenoxyphenyl)acetamide"], "SMILES": "N(CC1=C(OC)C=CC(OC)=C1)(C(C)=O)C2=C(OC3=CC=CC=C3)C=CC(F)=C2", "physical_data": {"Molecular Weight": "395.42", "Molecular Formula": "C23H22FNO4", "Melting Point": "92.5-93.5 \u00b0C"}}