{"cas_no": "22065-85-6", "cn_name": "1-\u82c4\u57fa-4-\u54cc\u5576\u7532\u919b", "en_name": ["1-(Phenylmethyl)-4-piperidinecarboxaldehyde", "4-Piperidinecarboxaldehyde, 1-(phenylmethyl)-", "Isonipecotaldehyde, 1-benzyl-", "1-(Phenylmethyl)-4-piperidinecarboxaldehyde", "1-Benzyl-4-formylpiperidine", "4-Formyl-1-benzylpiperidine", "1-Benzyl-4-piperidinecarboxaldehyde", "N-Benzyl-4-piperidinecarbaldehyde", "N-(Phenylmethyl)piperidine-4-carboxaldehyde", "4-Formyl-1-(phenylmethyl)piperidine", "N-Benzyl-4-formylpiperidine", "1-Benzyl-piperidine-4-carbaldehyde", "1-Benzylpiperidine-4-carbaldehyde", "N-Benzylpiperidine-4-carboxaldehyde"], "SMILES": "C(N1CCC(C=O)CC1)C2=CC=CC=C2", "physical_data": {"Molecular Weight": "203.28", "Molecular Formula": "C13H17NO", "Melting Point": "145-149 \u00b0C"}}