{"cas_no": "22068-49-1", "cn_name": "4-(1,3-\u4e8c\u786b\u620a\u73af)\u82ef\u915a", "en_name": ["2-(4\u2032-Hydroxyphenyl)-1,3-dithiolane", "Phenol, 4-(1,3-dithiolan-2-yl)-", "Phenol, p-1,3-dithiolan-2-yl-", "4-(1,3-Dithiolan-2-yl)phenol", "2-(4-Hydroxyphenyl)-1,3-dithiolane", "2-(4\u2032-Hydroxyphenyl)-1,3-dithiolane", "NSC 132849"], "SMILES": "OC1=CC=C(C=C1)C2SCCS2", "physical_data": {"Molecular Weight": "198.31", "Molecular Formula": "C9H10OS2", "Melting Point": "119-120 \u00b0C"}}