{"cas_no": "2206-27-1", "cn_name": "\u6c18\u4ee3\u4e8c\u7532\u4e9a\u781c", "en_name": ["DMSO-d6", "Methane-d3, 1,1\u2032-sulfinylbis-", "(Methyl sulfoxide)-d6", "Methane-d3, sulfinylbis-", "1,1\u2032-Sulfinylbis[methane-d3]", "Dimethyl-d6 sulfoxide", "Dimethyl sulfoxide-d6", "Sulfinylbis(methane-d3)", "DMSO-d6", "Hexadeuteriodimethyl sulfoxide", "Di(methyl-d3) sulfoxide", "Bis(trideuteromethyl) sulfoxide", "Perdeuteriodimethyl sulfoxide", "Bis(trideuteriomethyl) sulfoxide", "Deuterated-DMSO", "Perdeuterated dimethyl sulfoxide", "Perdeuterated thioacetone"], "SMILES": "S(C([2H])([2H])[2H])(C)=O", "physical_data": {"Molecular Weight": "", "Molecular Formula": "C2D6OS", "Boiling Point": "74 \u00b0C @ Press: 11 Torr"}}