{"cas_no": "2206-43-1", "cn_name": "4-\u7532\u6c27\u57fa\u5f02\u915e\u9178", "en_name": ["4-Methoxy-1,3-benzenedicarboxylic acid", "1,3-Benzenedicarboxylic acid, 4-methoxy-", "Isophthalic acid, 4-methoxy-", "4-Methoxy-1,3-benzenedicarboxylic acid", "4-Methoxyisophthalic acid", "2-Methoxy-1,5-benzenedicarboxylic acid", "NSC 20694"], "SMILES": "C(O)(=O)C1=C(OC)C=CC(C(O)=O)=C1", "physical_data": {"Molecular Weight": "196.16", "Molecular Formula": "C9H8O5", "Melting Point": "265 \u00b0C"}}