{"cas_no": "2206-89-5", "cn_name": "\u4e19\u70ef\u9178\u6c2f\u4e59\u916f", "en_name": ["Chloroethyl acrylate", "2-Propenoic acid, 2-chloroethyl ester", "Acrylic acid, 2-chloroethyl ester", "Ethanol, 2-chloro-, acrylate", "Chloroethyl acrylate", "2-Chloroethyl acrylate", "Acrylic acid \u03b2-chloroethyl ester", "\u03b2-Chloroethyl acrylate", "NSC 18592", "NSC 65162", "2-Chloroethyl prop-2-enoate"], "SMILES": "C(OCCCl)(C=C)=O", "physical_data": {"Molecular Weight": "134.56", "Molecular Formula": "C5H7ClO2", "Boiling Point": "64-66 \u00b0C @ Press: 20 Torr"}}