{"cas_no": "2207-04-7", "cn_name": "\u53cd-1,4-\u4e8c\u7532\u57fa\u73af\u5df1\u70f7", "en_name": ["trans-1,4-Dimethylcyclohexane", "Cyclohexane, 1,4-dimethyl-, trans-", "trans-1,4-Dimethylcyclohexane", "1-trans-4-Dimethylcyclohexane"], "SMILES": "CC1CCC(C)CC1", "physical_data": {"Molecular Weight": "112.21", "Molecular Formula": "C8H16", "Boiling Point": "119.4 \u00b0C", "Melting Point": "-36.9 \u00b0C", "Density": "0.75835 g/cm\u00b3 @ Temp: 25 \u00b0C"}}