{"cas_no": "22071-24-5", "cn_name": "3-\u82ef\u7532\u9170\u82c4\u57fa\u6eb4", "en_name": ["3-Benzoylbenzyl bromide", "Methanone, [3-(bromomethyl)phenyl]phenyl-", "Benzophenone, 3-(bromomethyl)-", "[3-(Bromomethyl)phenyl]phenylmethanone", "3-(Bromomethyl)benzophenone", "3-Benzoylbenzyl bromide"], "SMILES": "C(=O)(C1=CC(CBr)=CC=C1)C2=CC=CC=C2", "physical_data": {"Molecular Weight": "275.14", "Molecular Formula": "C14H11BrO", "Melting Point": "67-68 \u00b0C"}}