{"cas_no": "22071-22-3", "cn_name": "3-\u82ef\u9170\u82ef\u57fa\u4e59\u9178", "en_name": ["3-Benzoylbenzeneacetic acid", "Benzeneacetic acid, 3-benzoyl-", "Acetic acid, (m-benzoylphenyl)-", "3-Benzoylbenzeneacetic acid", "RU 4462", "(3-Benzoylphenyl)acetic acid", "m-Benzoylphenylacetic acid", "2-(3-Benzoylphenyl)acetic acid"], "SMILES": "C(=O)(C1=CC(CC(O)=O)=CC=C1)C2=CC=CC=C2", "physical_data": {"Molecular Weight": "240.25", "Molecular Formula": "C15H12O3", "Melting Point": "112-113 \u00b0C"}}