{"cas_no": "2207-27-4", "cn_name": "5,5-\u4e8c\u7532\u6c27\u57fa-1,2,3,4-\u56db\u6c2f\u73af\u620a\u4e8c\u70ef", "en_name": ["1,2,3,4-Tetrachloro-5,5-dimethoxy-1,3-cyclopentadiene", "1,3-Cyclopentadiene, 1,2,3,4-tetrachloro-5,5-dimethoxy-", "2,4-Cyclopentadien-1-one, 2,3,4,5-tetrachloro-, dimethyl acetal", "Cyclopentadienone, tetrachloro-, dimethyl acetal", "Cyclopentadiene, 1,2,3,4-tetrachloro-5,5-dimethoxy-", "1,2,3,4-Tetrachloro-5,5-dimethoxy-1,3-cyclopentadiene", "1,2,3,4-Tetrachloro-5,5-dimethoxycyclopentadiene", "5,5-Dimethoxytetrachlorocyclopentadiene", "Tetrachlorocyclopentadienone dimethyl acetal", "2,3,4,5-Tetrachlorocyclopentadienone dimethyl acetal", "2,3,4,5-Tetrachloro-2,4-cyclopentadien-1-one dimethyl acetal", "5,5-Dimethoxy-1,2,3,4-tetrachlorocyclopentadiene", "2,3,4,5-Tetrachloro-1,1-dimethoxycyclopentadiene", "1,1-Dimethoxy-2,3,4,5-tetrachloro-2,4-cyclopentadiene", "Tetrachlorocyclopentadienone dimethyl ketal", "1,1-Dimethoxy-2,3,4,5-tetrachlorocyclopentadiene", "5,5-Dimethoxy-1,2,3,4-tetrachloro-1,3-cyclopentadiene", "1,1-Dimethoxytetrachlorocyclopentadiene", "NSC 5584"], "SMILES": "O(C)C1(OC)C(Cl)=C(Cl)C(Cl)=C1Cl", "physical_data": {"Molecular Weight": "263.93", "Molecular Formula": "C7H6Cl4O2", "Boiling Point": "109 \u00b0C", "Melting Point": "27-28 \u00b0C", "Density": "1.5010 g/cm\u00b3 @ Temp: 20 \u00b0C"}}