{"cas_no": "22071-15-4", "cn_name": "\u916e\u57fa\u5e03\u6d1b\u82ac", "en_name": ["Ketoprofen", "Benzeneacetic acid, 3-benzoyl-\u03b1-methyl-", "Hydratropic acid, m-benzoyl-", "3-Benzoyl-\u03b1-methylbenzeneacetic acid", "Ketoprofen", "m-Benzoylhydratropic acid", "R.P. 19583", "2-(3-Benzoylphenyl)propionic acid", "Ketoprophen", "Ketoprofene", "RU 4733", "19583RP", "3-Benzoylhydratropic acid", "Orudis", "2-(m-Benzoylphenyl)propionic acid", "Profenid", "\u03b1-(3-Benzoylphenyl)propionic acid", "Alrheumun", "Capisten", "Aneol", "Oruvail", "Epatec", "(\u00b1)-3-Benzoyl-\u03b1-methylbenzeneacetic acid", "(\u00b1)-Ketoprofen", "(RS)-Ketoprofen", "(\u00b1)-m-Benzoylhydratropic acid", "(\u00b1)-2-(3-Benzoylphenyl)propionic acid", "Racemic ketoprofen", "Ketorin", "Bi-profenid", "Menamin", "Toprec", "Ketopron", "Iso-K", "Toprek", "Dexal", "Lertus", "Oscorel", "Orugesic", "Kefenid", "Fastum", "Meprofen", "Alrheumat", "Knavon", "Mohrus", "Miltax", "Ketonal", "Sector", "2-(3-Benzoylphenyl)propanoic acid", "Zon", "Siduro", "Rhofenid", "IDEA 033", "Lasonil", "Romefen Vet", "Febrofen", "Refastil", "Comforion", "Actron Ketoprofen", "Profenin", "Doloket", "KetoproBAG", "MeSH ID: D007660"], "SMILES": "C(=O)(C1=CC(C(C(O)=O)C)=CC=C1)C2=CC=CC=C2", "physical_data": {"Molecular Weight": "254.28", "Molecular Formula": "C16H14O3", "Melting Point": "94 \u00b0C"}}