{"cas_no": "2207-01-4", "cn_name": "\u987a-1,2-\u4e8c\u7532\u57fa\u73af\u5df1\u70f7", "en_name": ["cis-1,2-Dimethylcyclohexane", "Cyclohexane, 1,2-dimethyl-, (1R,2S)-rel-", "Cyclohexane, 1,2-dimethyl-, cis-", "rel-(1R,2S)-1,2-Dimethylcyclohexane", "cis-1,2-Dimethylcyclohexane", "1-cis-2-Dimethylcyclohexane", "1,2-cis-Dimethylcyclohexane", "NSC 74157"], "SMILES": "CC1C(C)CCCC1", "physical_data": {"Molecular Weight": "112.21", "Molecular Formula": "C8H16", "Boiling Point": "129.8 \u00b0C", "Melting Point": "-49.9 \u00b0C", "Density": "0.786 g/cm\u00b3 @ Temp: 20 \u00b0C"}}