{"cas_no": "22078-59-7", "cn_name": "5-(3-\u6c2f\u82ef)\u7ce0\u919b", "en_name": ["5-(3-Chlorophenyl)-2-furancarboxaldehyde", "2-Furancarboxaldehyde, 5-(3-chlorophenyl)-", "2-Furaldehyde, 5-(m-chlorophenyl)-", "5-(3-Chlorophenyl)-2-furancarboxaldehyde", "5-(m-Chlorophenyl)-2-furaldehyde", "5-(3-Chlorophenyl)-2-furaldehyde"], "SMILES": "C(=O)C=1OC(=CC1)C2=CC(Cl)=CC=C2", "physical_data": {"Molecular Weight": "206.63", "Molecular Formula": "C11H7ClO2", "Melting Point": "97.5-98 \u00b0C"}}