{"cas_no": "2207-75-2", "cn_name": "\u6c27\u55ea\u9178\u94be", "en_name": ["Potassium oxonate", "1,3,5-Triazine-2-carboxylic acid, 1,4,5,6-tetrahydro-4,6-dioxo-, potassium salt (1:1)", "Allantoxanic acid, monopotassium salt", "1,3,5-Triazine-2-carboxylic acid, 1,4,5,6-tetrahydro-4,6-dioxo-, monopotassium salt", "Allantoxanic acid, potassium salt", "Potassium azaorotate", "Potassium 2,6-dihydroxytriazinecarboxylate", "Potassium oxonate", "Potassium otastat", "Oteracil potassium"], "SMILES": "C(O)(=O)C=1NC(=O)NC(=O)N1.[K]", "physical_data": {"Molecular Weight": "", "Molecular Formula": "C4H3N3O4.K", "Melting Point": "&gt;300 \u00b0C"}}