{"cas_no": "2208-15-3", "cn_name": "4-\u6eb4-3-\u7f9f\u57fa-2-\u8418\u7532\u9178", "en_name": ["4-Bromo-3-hydroxy-2-naphthalenecarboxylic acid", "2-Naphthalenecarboxylic acid, 4-bromo-3-hydroxy-", "2-Naphthoic acid, 4-bromo-3-hydroxy-", "4-Bromo-3-hydroxy-2-naphthalenecarboxylic acid", "4-Bromo-3-hydroxy-2-naphthoic acid", "Brotocol", "Colequin", "Higacol", "Naftocol", "Pronacol", "1-Bromo-2-hydroxy-3-naphthoic acid", "NSC 53065"], "SMILES": "BrC=1C2=C(C=C(C(O)=O)C1O)C=CC=C2", "physical_data": {"Molecular Weight": "267.08", "Molecular Formula": "C11H7BrO3", "Melting Point": "229 \u00b0C"}}