{"cas_no": "220801-66-1", "cn_name": "2-(5-\u6eb4-2-\u7f9f\u82ef\u57fa)\u4e59\u9178\u7532\u916f", "en_name": ["Methyl 5-bromo-2-hydroxybenzeneacetate", "Benzeneacetic acid, 5-bromo-2-hydroxy-, methyl ester", "Methyl 5-bromo-2-hydroxybenzeneacetate", "2-(5-Bromo-2-hydroxyphenyl)acetic acid methyl ester", "Methyl 2-(5-bromo-2-hydroxyphenyl)acetate"], "SMILES": "C(C(OC)=O)C1=C(O)C=CC(Br)=C1", "physical_data": {"Molecular Weight": "245.07", "Molecular Formula": "C9H9BrO3", "Melting Point": "81.1 \u00b0C"}}