{"cas_no": "2208-07-3", "cn_name": "\u4e59\u57fa\u4e59\u9170\u4e9a\u80fa\u76d0\u9178\u76d0", "en_name": ["Ethanimidic acid, ethyl ester, hydrochloride (1:1)", "Ethanimidic acid, ethyl ester, hydrochloride (1:1)", "Acetimidic acid, ethyl ester, hydrochloride", "Ethanimidic acid, ethyl ester, hydrochloride", "Ethyl acetimidate hydrochloride", "Ethyl iminoacetate hydrochloride", "Ethyl acetocarboximidate hydrochloride", "Ethyl ethanimidate hydrochloride", "Ethyl acetoimidate hydrochloride", "Ethyl acetoamidate hydrochloride", "Ethyl ethanimidoate hydrochloride"], "SMILES": "O(C(C)=N)CC.Cl", "physical_data": {"Molecular Weight": "", "Molecular Formula": "C4H9NO.ClH", "Melting Point": "110-115 \u00b0C"}}