{"cas_no": "22083-74-5", "cn_name": "(+/-)-\u5c3c\u53e4\u4e01", "en_name": ["DL-Nicotine", "Pyridine, 3-(1-methyl-2-pyrrolidinyl)-", "Nicotine, (\u00b1)-", "Pyridine, 3-(1-methyl-2-pyrrolidinyl)-, (\u00b1)-", "3-(1-Methyl-2-pyrrolidinyl)pyridine", "(\u00b1)-Nicotine", "DL-Nicotine", "(R,S)-Nicotine", "1-Methyl-2-(3-pyridyl)pyrrolidine"], "SMILES": "CN1C(CCC1)C=2C=CC=NC2", "physical_data": {"Molecular Weight": "162.23", "Molecular Formula": "C10H14N2", "Boiling Point": "247 \u00b0C", "Melting Point": "-79 \u00b0C"}}