{"cas_no": "22089-22-1", "cn_name": "\u66f2\u78f7\u80fa", "en_name": ["Trofosfamide", "2H-1,3,2-Oxazaphosphorin-2-amine, N,N,3-tris(2-chloroethyl)tetrahydro-, 2-oxide", "2H-1,3,2-Oxazaphosphorine, 2-[bis(2-chloroethyl)amino]-3-(2-chloroethyl)tetrahydro-, 2-oxide", "Trophosphamide", "Trofosfamide", "NSC 109723", "Trilophosphamide", "Trisfosfamide", "Trifosfamide", "Trofosfamid", "Ixoten", "3-(2-Chloroethyl)-2-[bis(2-chloroethyl)amino]tetrahydro-2H-1,3,2-oxazaphosphorine 2-oxide", "Asta Z 4828", "Trilofosfamida", "Trophosphamid", "Triphosphamide", "Z 4828"], "SMILES": "N(CCCl)(CCCl)P1(=O)N(CCCl)CCCO1", "physical_data": {"Molecular Weight": "323.58", "Molecular Formula": "C9H18Cl3N2O2P", "Melting Point": "50.5 \u00b0C"}}