{"cas_no": "22084-94-2", "cn_name": "4-\u7532\u57fa\u745e\u9999\u7d207-\u7532\u57fa\u919a", "en_name": ["8-Hydroxy-7-methoxy-4-methyl-2H-1-benzopyran-2-one", "2H-1-Benzopyran-2-one, 8-hydroxy-7-methoxy-4-methyl-", "Coumarin, 8-hydroxy-7-methoxy-4-methyl-", "Herniarin, 8-hydroxy-4-methyl-", "8-Hydroxy-7-methoxy-4-methyl-2H-1-benzopyran-2-one", "4-Methyl-7-methoxy-8-hydroxycoumarin"], "SMILES": "CC=1C=2C(=C(O)C(OC)=CC2)OC(=O)C1", "physical_data": {"Molecular Weight": "206.19", "Molecular Formula": "C11H10O4", "Melting Point": "145 \u00b0C"}}