{"cas_no": "2208-05-1", "cn_name": "\u82ef\u7532\u9178\u4e8c\u7532\u57fa\u6c28\u57fa\u4e59\u916f", "en_name": ["2-Dimethylaminoethyl benzoate", "Benzoic acid, 2-(dimethylamino)ethyl ester", "Ethanol, 2-(dimethylamino)-, benzoate", "2-Dimethylaminoethyl benzoate", "N,N-Dimethylaminoethyl benzoate", "N,N-Dimethyl(2-benzoyloxyethyl)amine", "Gencure DMB"], "SMILES": "C(OCCN(C)C)(=O)C1=CC=CC=C1", "physical_data": {"Molecular Weight": "193.24", "Molecular Formula": "C11H15NO2", "Boiling Point": "152-154 \u00b0C @ Press: 3 Torr"}}