{"cas_no": "22090-26-2", "cn_name": "N-\u5bf9\u6eb4\u82ef\u5421\u54af\u70f7", "en_name": ["1-(4-Bromophenyl)pyrrolidine", "Pyrrolidine, 1-(4-bromophenyl)-", "Pyrrolidine, 1-(p-bromophenyl)-", "1-(4-Bromophenyl)pyrrolidine", "N-(4-Bromophenyl)pyrrolidine", "4-Pyrrolidinobromobenzene", "4-Bromo-1-(1-pyrrolidinyl)benzene"], "SMILES": "BrC1=CC=C(C=C1)N2CCCC2", "physical_data": {"Molecular Weight": "226.11", "Molecular Formula": "C10H12BrN", "Melting Point": "99-100 \u00b0C"}}