{"cas_no": "220991-20-8", "cn_name": "\u7f57\u7f8e\u6614\u5e03", "en_name": ["Lumiracoxib", "Benzeneacetic acid, 2-[(2-chloro-6-fluorophenyl)amino]-5-methyl-", "2-[(2-Chloro-6-fluorophenyl)amino]-5-methylbenzeneacetic acid", "COX 189", "Lumiracoxib", "Prexige", "CGS 35189", "2-[2-(2-Chloro-6-fluorophenylamino)-5-methylphenyl]acetic acid", "[2-[(2-Chloro-6-fluorophenyl)amino]-5-methylphenyl]acetic acid"], "SMILES": "N(C1=C(CC(O)=O)C=C(C)C=C1)C2=C(Cl)C=CC=C2F", "physical_data": {"Molecular Weight": "293.72", "Molecular Formula": "C15H13ClFNO2", "Melting Point": "152-154 \u00b0C"}}