{"cas_no": "22095-34-7", "cn_name": "[1,2,4]\u4e09\u5511-1-\u57fa\u4e59\u9178", "en_name": ["\u03b1-Methyl-2-furanmethanamine", "2-Furanmethanamine, \u03b1-methyl-", "Furfurylamine, \u03b1-methyl-", "\u03b1-Methyl-2-furanmethanamine", "(1-Furan-2-ylethyl)amine", "1-(2-Furyl)ethanamine", "1-(Furan-2-yl)ethan-1-amine", "1-(Furan-2-yl)ethanamine"], "SMILES": "C(C)(N)C1=CC=CO1", "physical_data": {"Molecular Weight": "111.14", "Molecular Formula": "C6H9NO", "Boiling Point": "145-147 \u00b0C @ Press: 740 Torr", "Density": "0.9856 g/cm\u00b3 @ Temp: 20 \u00b0C"}}