{"cas_no": "221018-02-6", "cn_name": "4-(4-\u7532\u57fa\u786b\u4ee3\u82ef\u57fa)\u82ef\u7532\u919b", "en_name": ["4\u2032-(Methylthio)[1,1\u2032-biphenyl]-4-carboxaldehyde", "[1,1\u2032-Biphenyl]-4-carboxaldehyde, 4\u2032-(methylthio)-", "4\u2032-(Methylthio)[1,1\u2032-biphenyl]-4-carboxaldehyde", "4-(4-Methyl-2-thienyl)benzaldehyde"], "SMILES": "C(=O)C1=CC=C(C=C1)C2=CC=C(SC)C=C2", "physical_data": {"Molecular Weight": "228.31", "Molecular Formula": "C14H12OS", "Melting Point": "100.1-102.2 \u00b0C"}}