{"cas_no": "2210-24-4", "cn_name": "N-\u82ef\u57fa\u4e19\u70ef\u9170\u80fa", "en_name": ["N-Phenylacrylamide", "2-Propenamide, N-phenyl-", "Acrylanilide", "N-Phenyl-2-propenamide", "N-Phenylacrylamide", "N-Acryloylaniline", "NSC 6857"], "SMILES": "N(C(C=C)=O)C1=CC=CC=C1", "physical_data": {"Molecular Weight": "147.17", "Molecular Formula": "C9H9NO", "Boiling Point": "145-150 \u00b0C @ Press: 3 Torr", "Melting Point": "104 \u00b0C"}}