{"cas_no": "221054-79-1", "cn_name": "R-\u96cc\u9a6c\u915a", "en_name": ["(+)-Equol", "2H-1-Benzopyran-7-ol, 3,4-dihydro-3-(4-hydroxyphenyl)-, (3R)-", "(3R)-3,4-Dihydro-3-(4-hydroxyphenyl)-2H-1-benzopyran-7-ol", "(R)-Equol", "Isoequol", "(+)-Equol", "(3R)-3-(4-Hydroxyphenyl)-3,4-dihydro-2H-chromen-7-ol", "(3R)-3-(4-Hydroxyphenyl)chroman-7-ol"], "SMILES": "OC=1C=C2C(CC(CO2)C3=CC=C(O)C=C3)=CC1", "physical_data": {"Molecular Weight": "242.27", "Molecular Formula": "C15H14O3", "Melting Point": "184-187 \u00b0C"}}