{"cas_no": "2210-63-1", "cn_name": "\u5355\u82ef\u57fa\u4fdd\u6cf0\u677e", "en_name": ["Mofebutazone", "3,5-Pyrazolidinedione, 4-butyl-1-phenyl-", "4-Butyl-1-phenyl-3,5-pyrazolidinedione", "Mofebutazone", "1-Phenyl-4-butyl-3,5-pyrazolidinedione", "Butazone", "Mobutazone", "Monazan", "Monophenylbutazone", "1-Phenyl-4-n-butyl-3,5-dioxopyrazolidine", "Mophebutazone", "4-Butyl-3,5-dioxo-1-phenyltetrahydropyrazole", "4-Butyl-1-phenyl-3,5-dioxopyrazolidine", "2-Phenyl-3,5-dihydroxy-4-butylpyrazolidine", "Mobutazon", "Mobuzon", "Reumatox", "Monorheumetten", "1-Phenyl-4-butylpyrazolidin-3,5-dione", "Arcobutine", "Monomil", "Monozon", "Mozol", "Monofen", "Arcomonol Tablets", "Mofesal", "Monobutyl", "Monazon", "NSC 73725", "Monofenew"], "SMILES": "O=C1N(NC(=O)C1CCCC)C2=CC=CC=C2", "physical_data": {"Molecular Weight": "232.28", "Molecular Formula": "C13H16N2O2", "Melting Point": "102.5 \u00b0C"}}