{"cas_no": "2210-28-8", "cn_name": "\u4e19\u57fa-2-\u7532\u57fa-2-\u4e19\u70ef\u9178\u916f", "en_name": ["Propyl methacrylate", "2-Propenoic acid, 2-methyl-, propyl ester", "Methacrylic acid, propyl ester", "Propyl methacrylate", "n-Propyl methacrylate", "Propyl 2-methyl-2-propenoate", "Propyl 2-methylacrylate", "NSC 32624"], "SMILES": "C(C(C)=C)(OCCC)=O", "physical_data": {"Molecular Weight": "128.17", "Molecular Formula": "C7H12O2", "Boiling Point": "141 \u00b0C @ Press: 760 Torr", "Density": "0.9022 g/cm\u00b3 @ Temp: 20 \u00b0C"}}