{"cas_no": "2210-79-9", "cn_name": "2-\u7532\u82ef\u7f29\u6c34\u7518\u6cb9\u919a", "en_name": ["o-Cresyl glycidyl ether", "Oxirane, 2-[(2-methylphenoxy)methyl]-", "Propane, 1,2-epoxy-3-(o-tolyloxy)-", "Oxirane, [(2-methylphenoxy)methyl]-", "2-[(2-Methylphenoxy)methyl]oxirane", "1-(o-Methylphenoxy)-2,3-epoxypropane", "1,2-Epoxy-3-(2-methylphenoxy)propane", "1-(2-Methylphenoxy)-2,3-epoxypropane", "Glycidyl o-tolyl ether", "Glycidyl 2-methylphenyl ether", "1,2-Epoxy-3-(o-tolyloxy)propane", "1-(2,3-Epoxypropoxy)-2-methylbenzene", "Glycidyl o-methylphenyl ether", "2-Methylphenyl glycidyl ether", "Epodil 742", "o-Cresyl glycidyl ether", "(2-Methylphenoxymethyl)oxirane", "Heloxy 62", "Heloxy R Modifier 62", "NSC 11571", "NSC 20291", "Araldite DY-K", "SY-OCG", "o-Cresol glycidyl ether", "K 100", "K 100 (epoxide)", "o-Methylphenyl glycidyl ether", "H 62", "Erisys 10", "o-Tolyl glycidyl ether", "ME 701", "Heloxy Modifier KR", "SY-OCGPEG", "XY 691", "D 691"], "SMILES": "O(CC1CO1)C2=C(C)C=CC=C2", "physical_data": {"Molecular Weight": "164.20", "Molecular Formula": "C10H12O2", "Boiling Point": "109-111 \u00b0C @ Press: 4.00 Torr", "Density": "1.08 g/cm\u00b3"}}