{"cas_no": "2210-25-5", "cn_name": "N-\u5f02\u4e19\u57fa\u4e19\u70ef\u9170\u80fa", "en_name": ["N-Isopropylacrylamide", "2-Propenamide, N-(1-methylethyl)-", "Acrylamide, N-isopropyl-", "N-(1-Methylethyl)-2-propenamide", "N-Isopropylacrylamide", "NIPAM", "Isopropylacrylamide", "N-Isopropylpropenamide", "NSC 11448", "NIPAAm", "2-Propenoic acid, (1-methylethyl)azanyl ester", "Kohshylmer NIPAM"], "SMILES": "C(NC(C)C)(C=C)=O", "physical_data": {"Molecular Weight": "113.16", "Molecular Formula": "C6H11NO", "Boiling Point": "85-88 \u00b0C @ Press: 1 Torr", "Melting Point": "60 \u00b0C"}}