{"cas_no": "2210-74-4", "cn_name": "\u6108\u521b\u6728\u915a\u7f29\u6c34\u7518\u6cb9\u919a", "en_name": ["2-[(2-Methoxyphenoxy)methyl]oxirane", "Oxirane, 2-[(2-methoxyphenoxy)methyl]-", "Benzene, 1-(2,3-epoxypropoxy)-2-methoxy-", "Oxirane, [(2-methoxyphenoxy)methyl]-", "2-[(2-Methoxyphenoxy)methyl]oxirane", "1-(2-Methoxyphenoxy)-2,3-epoxypropane", "Glycidyl 2-methoxyphenyl ether", "1,2-Epoxy-3-(2-methoxyphenoxy)propane", "2-Methoxyphenyl glycidyl ether", "1,2-Epoxy-3-(o-methoxyphenoxy)propane", "2-(2,3-Epoxypropoxy)anisole", "2-Methoxy-1-(oxiranylmethoxy)benzene", "NSC 112256", "NSC 133442", "Glycidyl o-methoxyphenyl ether", "1-(2,3-Epoxypropoxy)-2-methoxybenzene"], "SMILES": "O(CC1CO1)C2=C(OC)C=CC=C2", "physical_data": {"Molecular Weight": "180.20", "Molecular Formula": "C10H12O3", "Boiling Point": "88-90 \u00b0C @ Press: 0.05 Torr", "Melting Point": "36 \u00b0C"}}