{"cas_no": "221006-67-3", "cn_name": "4-\u6eb4-3-\u7532\u57fa\u82ef\u787c\u9178", "en_name": ["B-(4-Bromo-3-methylphenyl)boronic acid", "Boronic acid, B-(4-bromo-3-methylphenyl)-", "Boronic acid, (4-bromo-3-methylphenyl)-", "B-(4-Bromo-3-methylphenyl)boronic acid", "4-Bromo-3-methylphenylboronic acid"], "SMILES": "B(O)(O)C1=CC(C)=C(Br)C=C1", "physical_data": {"Molecular Weight": "214.85", "Molecular Formula": "C7H8BBrO2", "Melting Point": "&gt;250 \u00b0C"}}