{"cas_no": "2210-93-7", "cn_name": "1-\u82ef\u57fa\u54cc\u55ea\u76d0\u9178\u76d0", "en_name": ["Piperazine, 1-phenyl-, hydrochloride (1:1)", "Piperazine, 1-phenyl-, hydrochloride (1:1)", "Piperazine, 1-phenyl-, monohydrochloride", "1-Phenylpiperazine hydrochloride", "N-Phenylpiperazine hydrochloride", "4-Phenylpiperazine hydrochloride"], "SMILES": "C1(=CC=CC=C1)N2CCNCC2.Cl", "physical_data": {"Molecular Weight": "", "Molecular Formula": "C10H14N2.ClH", "Melting Point": "247 \u00b0C (decomp)"}}