{"cas_no": "22118-12-3", "cn_name": "2-\u6eb4\u4e01\u9170\u6c2f", "en_name": ["2-Bromobutanoyl chloride", "Butanoyl chloride, 2-bromo-", "Butyryl chloride, 2-bromo-", "2-Bromobutanoyl chloride", "2-Bromobutyryl chloride", "\u03b1-Bromobutyryl chloride"], "SMILES": "C(C(Cl)=O)(CC)Br", "physical_data": {"Molecular Weight": "185.45", "Molecular Formula": "C4H6BrClO", "Boiling Point": "151 \u00b0C", "Density": "1.5320 g/cm\u00b3 @ Temp: 20 \u00b0C"}}