{"cas_no": "22112-79-4", "cn_name": "5,10,15,20-\u56db(3-\u7f9f\u57fa\u82ef\u57fa)\u535f\u5549", "en_name": ["m-THPP", "Phenol, 3,3\u2032,3\u2032\u2032,3\u2032\u2032\u2032-(21H,23H-porphine-5,10,15,20-tetrayl)tetrakis-", "Phenol, 3,3\u2032,3\u2032\u2032,3\u2032\u2032\u2032-(5,10,15,20-porphinetetrayl)tetra-", "3,3\u2032,3\u2032\u2032,3\u2032\u2032\u2032-(21H,23H-Porphine-5,10,15,20-tetrayl)tetrakis[phenol]", "5,10,15,20-Tetra(m-hydroxyphenyl)porphyrin", "Tetra(3-hydroxyphenyl)porphine", "5,10,15,20-Tetrakis(3\u2032-hydroxyphenyl)porphine", "m-THPP", "meso-Tetrakis(3-hydroxyphenyl)porphyrin", "5,10,15,20-Tetrakis(3-hydroxyphenyl)porphyrin", "3,3\u2032,3\u2032\u2032,3\u2032\u2032\u2032-Porphyrin-5,10,15,20-tetrayltetraphenol"], "SMILES": "OC=1C=C(C=2C=3NC(=CC3)C(=C4N=C(C=C4)C(=C5NC(=C(C6=NC2C=C6)C7=CC(O)=CC=C7)C=C5)C8=CC(O)=CC=C8)C9=CC(O)=CC=C9)C=CC1", "physical_data": {"Molecular Weight": "678.73", "Molecular Formula": "C44H30N4O4", "Melting Point": "&gt;320 \u00b0C"}}