{"cas_no": "22118-09-8", "cn_name": "\u6eb4\u4e59\u9170\u6c2f", "en_name": ["Bromoacetyl chloride", "Acetyl chloride, 2-bromo-", "Acetyl chloride, bromo-", "2-Bromoacetyl chloride", "Bromoacetyl chloride", "NSC 97376", "2-Bromo-1-chloro-ethanal"], "SMILES": "C(CBr)(Cl)=O", "physical_data": {"Molecular Weight": "157.39", "Molecular Formula": "C2H2BrClO", "Boiling Point": "115-117 \u00b0C", "Density": "1.914 g/cm\u00b3 @ Temp: 20 \u00b0C"}}