{"cas_no": "22115-41-9", "cn_name": "2-\u6c30\u57fa\u6eb4\u82c4", "en_name": ["2-Cyanobenzyl bromide", "Benzonitrile, 2-(bromomethyl)-", "o-Tolunitrile, \u03b1-bromo-", "2-(Bromomethyl)benzonitrile", "o-Cyanobenzyl bromide", "2-Cyanobenzyl bromide", "\u03b1-Bromo-o-toluonitrile", "o-(Bromomethyl)benzonitrile", "\u03b1-Bromo-o-tolunitrile", "\u03b1-Bromo-2-cyanotoluene", "1-(Bromomethyl)-2-cyanobenzene", "2-Cyano-\u03b1-bromotoluene", "(2-Cyanophenyl)methyl bromide", "2-Nitrilebenzyl bromide"], "SMILES": "C(Br)C1=C(C#N)C=CC=C1", "physical_data": {"Molecular Weight": "196.04", "Molecular Formula": "C8H6BrN", "Boiling Point": "140-150 \u00b0C @ Press: 5 Torr", "Melting Point": "70-71 \u00b0C", "Density": "1.708 g/cm\u00b3"}}