{"cas_no": "22117-85-7", "cn_name": "5-\u6c28\u78fa\u9170\u57fa-2-\u7532\u6c27\u57fa\u82ef\u7532\u9178", "en_name": ["5-(Aminosulfonyl)-2-methoxybenzoic acid", "Benzoic acid, 5-(aminosulfonyl)-2-methoxy-", "o-Anisic acid, 5-sulfamoyl-", "5-(Aminosulfonyl)-2-methoxybenzoic acid", "2-Methoxy-5-sulfamoylbenzoic acid", "2-Methoxy-5-sulfonamidobenzoic acid", "2-Methoxy-5-sulfamidobenzoic acid"], "SMILES": "C(O)(=O)C1=C(OC)C=CC(S(N)(=O)=O)=C1", "physical_data": {"Molecular Weight": "231.23", "Molecular Formula": "C8H9NO5S", "Melting Point": "220 \u00b0C"}}