{"cas_no": "2211-94-1", "cn_name": "2,3-\u73af\u6c27\u4e19\u57fa-4-\u7532\u6c27\u57fa\u82ef\u57fa\u919a", "en_name": ["4-Methoxyphenyl glycidyl ether", "Oxirane, 2-[(4-methoxyphenoxy)methyl]-", "Benzene, 1-(2,3-epoxypropoxy)-4-methoxy-", "Oxirane, [(4-methoxyphenoxy)methyl]-", "2-[(4-Methoxyphenoxy)methyl]oxirane", "3-(4-Methoxyphenoxy)-1,2-epoxypropane", "1-(p-Methoxyphenoxy)-2,3-epoxypropane", "p-Methoxyphenyl glycidyl ether", "Glycidyl p-methoxyphenyl ether", "1,2-Epoxy-3-(p-methoxyphenoxy)propane", "Glycidyl 4-methoxyphenyl ether", "2-(p-Methoxyphenoxymethyl)oxirane", "1-(4-Methoxyphenoxy)-2,3-epoxypropane", "2,3-Epoxypropyl p-methoxyphenyl ether", "1,2-Epoxy-3-(4-methoxyphenoxy)propane", "1-(2,3-Epoxypropoxy)-4-methoxybenzene", "(4-Methoxyphenoxymethyl)oxirane", "(\u00b1)-O-(4-Methoxyphenyl)glycidol", "2,3-Epoxypropyl 4-methoxyphenyl ether", "4-Methoxyphenyl glycidyl ether", "NSC 126709", "NSC 26796"], "SMILES": "C(OC1=CC=C(OC)C=C1)C2CO2", "physical_data": {"Molecular Weight": "180.20", "Molecular Formula": "C10H12O3", "Boiling Point": "135-137 \u00b0C @ Press: 2.5 Torr", "Melting Point": "48 \u00b0C"}}