{"cas_no": "2211-64-5", "cn_name": "N-\u73af\u5df1\u57fa\u7f9f\u80fa", "en_name": ["Cyclohexylhydroxylamine", "Cyclohexanamine, N-hydroxy-", "Hydroxylamine, N-cyclohexyl-", "N-Hydroxycyclohexanamine", "Cyclohexylhydroxylamine", "N-Hydroxycyclohexylamine", "N-Cyclohexylhydroxylamine"], "SMILES": "N(O)C1CCCCC1", "physical_data": {"Molecular Weight": "115.17", "Molecular Formula": "C6H13NO", "Melting Point": "137 \u00b0C"}}