{"cas_no": "2212-10-4", "cn_name": "(\u6c2f\u7532\u57fa)\u7532\u57fa\u4e8c\u4e59\u6c27\u57fa\u7845\u70f7", "en_name": ["(Chloromethyl)diethoxymethylsilane", "Silane, (chloromethyl)diethoxymethyl-", "(Chloromethyl)diethoxymethylsilane", "(Chloromethyl)methyldiethoxysilane"], "SMILES": "[Si](OCC)(OCC)(CCl)C", "physical_data": {"Molecular Weight": "182.72", "Molecular Formula": "C6H15ClO2Si", "Boiling Point": "160-161 \u00b0C", "Density": "1 g/cm\u00b3 @ Temp: 25 \u00b0C"}}