{"cas_no": "2212-81-9", "cn_name": "\u4e8c\u53d4\u4e01\u57fa\u8fc7\u6c27\u5316\u5f02\u4e19\u57fa\u82ef", "en_name": ["1,3-Bis(tert-butylperoxyisopropyl)benzene", "Peroxide, 1,1\u2032-[1,3-phenylenebis(1-methylethylidene)]bis[2-(1,1-dimethylethyl)", "Peroxide, (m-phenylenediisopropylidene)bis[tert-butyl", "Peroxide, [1,3-phenylenebis(1-methylethylidene)]bis[(1,1-dimethylethyl)", "1,1\u2032-[1,3-Phenylenebis(1-methylethylidene)]bis[2-(1,1-dimethylethyl) peroxide]", "1,3-Di-tert-butylperoxydiisopropylbenzene", "m-Bis[2-(tert-butylperoxy)-2-propyl]benzene", "m-Bis(tert-butylperoxyisopropyl)benzene", "1,3-Bis(2-tert-butyldioxyprop-2-yl)benzene", "1,3-Bis(2-tert-butylperoxy-2-propyl)benzene", "1,3-Bis(tert-butylperoxyisopropyl)benzene", "1,3-Bis[\u03b1-(tert-butyldioxy)isopropyl]benzene", "m-Bis[2-(tert-butyldioxy)-2-propyl]benzene", "1,3-Bis(1-tert-butyldioxy-1-methylethyl)benzene", "1,3-Bis(tert-butyldioxyisopropyl)benzene", "m-Bis(2-tert-butylperoxyisopropyl)benzene", "1,3-Bis[\u03b1-(tert-butylperoxy)isopropyl]benzene", "Perkadox 14C", "Perkadox 14/96", "Perkadox 14/40", "Sanperox TY 1.3-90", "1,3-Bis(2-tert-butylperoxyisopropyl)benzene", "TY 13", "Sanperox TY 1.3", "Perbutyl P", "Perkadox 14/40C", "Perbutyl P 40", "Perkadox 1K/40", "PBP", "PBP (peroxide)", "Perkadox 14/90", "Bis-PO", "1,3-Di(2-tert-butylperoxyisopropyl)benzene", "Perkadox 14G", "\u03b1,\u03b1\u2032-Bis(tert-butylperoxy)-1,3-diisopropylbenzene", "Bis(t-butylperoxyisopropyl)benzene", "F 40", "F 60", "BIBP 90", "BIBP-F 40", "BIBP-F 40SP2", "1,3-Bis(t-butylperoxyisopropyl)benzene", "BIPB", "BIPB 96", "Perkadox 14-40B-PD-S", "BIPB 40GE"], "SMILES": "C(OOC(C)(C)C)(C)(C)C1=CC(C(OOC(C)(C)C)(C)C)=CC=C1", "physical_data": {"Molecular Weight": "338.48", "Molecular Formula": "C20H34O4", "Melting Point": "49-52 \u00b0C", "Density": "0.9361 g/cm\u00b3 @ Temp: 24.34 \u00b0C"}}