{"cas_no": "2212-67-1", "cn_name": "\u79be\u8349\u654c", "en_name": ["Molinate", "1H-Azepine-1-carbothioic acid, hexahydro-, S-ethyl ester", "R 4572", "S-Ethyl hexahydro-1H-azepine-1-carbothioate", "Ethyl 1-hexamethyleneiminecarbothiolate", "Hydram", "Molinate", "Stauffer R 4572", "Yalan", "Ordram", "S-Ethyl hexahydroazepine-1-carbothioate", "Jalan", "S-Ethyl N,N-hexamethylenethiocarbamate", "Yulan", "Felan", "SC 9908", "(Azepan-1-yl)(ethylsulfanyl)methanone"], "SMILES": "C(SCC)(=O)N1CCCCCC1", "physical_data": {"Molecular Weight": "187.30", "Molecular Formula": "C9H17NOS", "Boiling Point": "136.5 \u00b0C @ Press: 10 Torr", "Melting Point": "&lt;25 \u00b0C", "Density": "1.063 g/cm\u00b3 @ Temp: 20 \u00b0C"}}