{"cas_no": "2212-75-1", "cn_name": "N-alpha-Cbz-L-\u8d56\u6c28\u9178", "en_name": ["N-\u03b1-Benzyloxycarbonyl-L-lysine", "L-Lysine, N2-[(phenylmethoxy)carbonyl]-", "Lysine, N2-carboxy-, N2-benzyl ester, L-", "Lysine, N2-carboxy-, N-benzyl ester", "L-Lysine, N2-carboxy-, N-benzyl ester", "N2-[(Phenylmethoxy)carbonyl]-L-lysine", "N-\u03b1-Benzyloxycarbonyl-L-lysine", "\u03b1-Carbobenzoxy-L-lysine", "N\u03b1-(Benzyloxycarbonyl)lysine", "\u03b1-N-Benzyloxycarbonyl-L-lysine", "N2-Carboxylysine N2-benzyl ester", "N-\u03b1-Carbobenzoxy-L-lysine", "N2-Benzyloxycarbonyllysine", "N2-Benzyloxycarbonyl-L-lysine", "N-\u03b1-Z-L-Lysine", "N\u03b1-Cbz-Lysine", "Cbz-L-Lys-OH", "(2S)-6-Azaniumyl-2-(phenylmethoxycarbonylamino)hexanoate", "N-\u03b1-Benzyloxycarbonyl-L-lysine-p-nitroanilide"], "SMILES": "C(NC(OCC1=CC=CC=C1)=O)(CCCCN)C(O)=O", "physical_data": {"Molecular Weight": "280.32", "Molecular Formula": "C14H20N2O4", "Melting Point": "248-250 \u00b0C"}}