{"cas_no": "2212-69-3", "cn_name": "(S)-4-\u785d\u57fa\u82ef\u57fa2-(((\u82c4\u6c27\u57fa)\u7fb0\u57fa)\u6c28\u57fa)-6-((\u53d4\u4e01\u6c27\u57fa\u7fb0\u57fa)\u6c28\u57fa)\u5df1\u9178\u916f", "en_name": ["N6-[(1,1-Dimethylethoxy)carbonyl]-N2-[(phenylmethoxy)carbonyl]-L-lysine 4-nitrophenyl ester", "L-Lysine, N6-[(1,1-dimethylethoxy)carbonyl]-N2-[(phenylmethoxy)carbonyl]-, 4-nitrophenyl ester", "Lysine, N2,N6-dicarboxy-, N2-benzyl N6-tert-butyl p-nitrophenyl ester, L-", "L-Lysine, N2,N6-dicarboxy-, N2-benzyl N6-tert-butyl p-nitrophenyl ester", "N6-[(1,1-Dimethylethoxy)carbonyl]-N2-[(phenylmethoxy)carbonyl]-L-lysine 4-nitrophenyl ester", "Cbz-Lys(Boc)-ONp", "NSC 164045", "(S)-4-Nitrophenyl 2-(((benzyloxy)carbonyl)amino)-6-((tert-butoxycarbonyl)amino)hexanoate"], "SMILES": "O(C(C(NC(OCC1=CC=CC=C1)=O)CCCCNC(OC(C)(C)C)=O)=O)C2=CC=C(N(=O)=O)C=C2", "physical_data": {"Molecular Weight": "501.53", "Molecular Formula": "C25H31N3O8", "Melting Point": "93.5-94.5 \u00b0C"}}