{"cas_no": "22128-62-7", "cn_name": "\u6c2f\u7532\u9178\u6c2f\u7532\u916f", "en_name": ["Chloromethyl chloroformate", "Carbonochloridic acid, chloromethyl ester", "Formic acid, chloro-, chloromethyl ester", "Chloromethyl chloroformate", "Chloromethoxycarbonyl chloride", "Chloromethyl carbonochloridate", "Chloroformic acid chloromethyl ester", "Chloromethyl chlorocarbonate", "1-Chloromethyl chloroformate"], "SMILES": "O(C(Cl)=O)CCl", "physical_data": {"Molecular Weight": "128.94", "Molecular Formula": "C2H2Cl2O2", "Boiling Point": "107 \u00b0C", "Density": "1.456 g/cm\u00b3 @ Temp: 15 \u00b0C"}}