{"cas_no": "2212-08-0", "cn_name": "(\u6c2f\u7532\u57fa)\u7532\u57fa\u4e8c\u5f02\u4e19\u6c27\u57fa\u7845\u70f7", "en_name": ["(Chloromethyl)methylbis(1-methylethoxy)silane", "Silane, (chloromethyl)methylbis(1-methylethoxy)-", "Silane, (chloromethyl)diisopropoxymethyl-", "(Chloromethyl)methylbis(1-methylethoxy)silane", "(Chloromethyl)diisopropoxy(methyl)silane", "(Chloromethyl)methyldiisopropoxysilane"], "SMILES": "[Si](OC(C)C)(OC(C)C)(CCl)C", "physical_data": {"Molecular Weight": "210.77", "Molecular Formula": "C8H19ClO2Si", "Boiling Point": "50-52 \u00b0C @ Press: 1.5 Torr", "Density": "0.970 g/cm\u00b3"}}