{"cas_no": "2212-11-5", "cn_name": "\u6c2f\u7532\u57fa\u7532\u57fa\u4e8c\u7532\u6c27\u57fa\u7845\u70f7", "en_name": ["(Chloromethyl)dimethoxymethylsilane", "Silane, (chloromethyl)dimethoxymethyl-", "(Chloromethyl)dimethoxymethylsilane", "Methylchloromethyldimethoxysilane", "Chloromethylmethyldimethoxysilane"], "SMILES": "[Si](CCl)(OC)(OC)C", "physical_data": {"Molecular Weight": "154.67", "Molecular Formula": "C4H11ClO2Si", "Boiling Point": "141-144 \u00b0C", "Density": "1.08 g/cm\u00b3 @ Temp: 20 \u00b0C"}}