{"cas_no": "2212-76-2", "cn_name": "Z-6-\u53d4\u4e01\u6c27\u7fb0\u9170\u8d56\u6c28\u9178\u00b7 \u4e8c\u73af\u5df1\u57fa\u80fa\u76d0", "en_name": ["L-Lysine, N6-[(1,1-dimethylethoxy)carbonyl]-N2-[(phenylmethoxy)carbonyl]-, compd. with N-cyclohexylcyclohexanamine (1:1)", "L-Lysine, N6-[(1,1-dimethylethoxy)carbonyl]-N2-[(phenylmethoxy)carbonyl]-, compd. with N-cyclohexylcyclohexanamine (1:1)", "Lysine, N2,N6-dicarboxy-, N2-benzyl N6-tert-butyl ester, compd. with dicyclohexylamine (1:1), L-", "Lysine, N2,N6-dicarboxy-, N2-benzyl N6-tert-butyl ester, compd. with dicyclohexylamine"], "SMILES": "N(C1CCCCC1)C2CCCCC2.C(OC(NC(CCCCNC(OC(C)(C)C)=O)C(O)=O)=O)C1=CC=CC=C1", "physical_data": {"Molecular Weight": "", "Molecular Formula": "C19H28N2O6.C12H23N", "Melting Point": "156-157 \u00b0C"}}