{"cas_no": "22128-43-4", "cn_name": "4-\u7532\u57fa-1-\u8f9b\u7094-4-\u9187", "en_name": ["4-Methyl-1-octyn-4-ol", "1-Octyn-4-ol, 4-methyl-", "4-Methyl-1-octyn-4-ol", "4-Methyl-4-hydroxy-1-octyne", "(\u00b1)-4-Methyl-1-octyn-4-ol"], "SMILES": "C(CCCC)(CC#C)(C)O", "physical_data": {"Molecular Weight": "140.22", "Molecular Formula": "C9H16O", "Boiling Point": "58-64 \u00b0C @ Press: 4 Torr"}}