{"cas_no": "2212-32-0", "cn_name": "N-\u7532\u57fa-N-(N,N-\u4e8c\u7532\u80fa\u57fa\u4e59\u57fa)\u4e59\u9187\u80fa", "en_name": ["2-[[2-(Dimethylamino)ethyl]methylamino]ethanol", "Ethanol, 2-[[2-(dimethylamino)ethyl]methylamino]-", "2-[[2-(Dimethylamino)ethyl]methylamino]ethanol", "Dabco T", "N,N,N\u2032-Trimethyl-N\u2032-(hydroxyethyl)ethylenediamine", "N,N,N\u2032-Trimethylaminoethyl ethanolamine", "Toyocat RX 5", "RX 5", "N-(Dimethylaminoethyl)-N-methylethanolamine", "Jeffcat Z 110", "N,N,N\u2032-Trimethyl-N\u2032-(2-hydroxyethyl)ethylenediamine", "Kaolizer 28", "N-(2-Dimethylaminoethyl)-N-methylethanolamine", "2-(2-N,N-Dimethylaminoethyl-N-methylamino)ethanol", "Z 110", "N,N,N\u2032-Trimethyl-N\u2032-(2-hydroxyethyl)-1,2-ethanediamine", "Lupragen N 400", "2-[[2-(Dimethylamino)ethyl](methyl)amino]ethan-1-ol", "Jeffcat ZR 110", "Maycat RA 5"], "SMILES": "N(CCN(C)C)(CCO)C", "physical_data": {"Molecular Weight": "146.23", "Molecular Formula": "C7H18N2O", "Boiling Point": "84 \u00b0C @ Press: 10 Torr", "Density": "0.9044 g/cm\u00b3 @ Temp: 20 \u00b0C"}}