{"cas_no": "2213-23-2", "cn_name": "2,4-\u4e8c\u7532\u57fa\u5e9a\u70f7", "en_name": ["(\u00b1)-2,4-Dimethylheptane", "Heptane, 2,4-dimethyl-", "2,4-Dimethylheptane", "(\u00b1)-2,4-Dimethylheptane"], "SMILES": "C(C(CCC)C)C(C)C", "physical_data": {"Molecular Weight": "128.26", "Molecular Formula": "C9H20", "Boiling Point": "132.9 \u00b0C", "Density": "0.7206 g/cm\u00b3 @ Temp: 15 \u00b0C"}}