{"cas_no": "2213-81-2", "cn_name": "2-\u6c2f-5-\u53d4\u4e01\u57fa-1,3-\u4e8c\u785d\u57fa\u82ef", "en_name": ["2-Chloro-5-(1,1-dimethylethyl)-1,3-dinitrobenzene", "Benzene, 2-chloro-5-(1,1-dimethylethyl)-1,3-dinitro-", "Benzene, 5-tert-butyl-2-chloro-1,3-dinitro-", "2-Chloro-5-(1,1-dimethylethyl)-1,3-dinitrobenzene", "2,6-Dinitro-4-tert-butylchlorobenzene", "4-tert-Butyl-2,6-dinitrochlorobenzene", "5-tert-Butyl-2-chloro-1,3-dinitrobenzene"], "SMILES": "N(=O)(=O)C1=C(Cl)C(N(=O)=O)=CC(C(C)(C)C)=C1", "physical_data": {"Molecular Weight": "258.66", "Molecular Formula": "C10H11ClN2O4", "Melting Point": "116-117 \u00b0C"}}