{"cas_no": "22139-77-1", "cn_name": "\u8d64\u677e\u7d20", "en_name": ["Pinosylvin", "1,3-Benzenediol, 5-[(1E)-2-phenylethenyl]-", "3,5-Stilbenediol, (E)-", "1,3-Benzenediol, 5-(2-phenylethenyl)-, (E)-", "5-[(1E)-2-Phenylethenyl]-1,3-benzenediol", "trans-3,5-Dihydroxystilbene", "Pinosylvin", "Pinosylvine", "3,5-Dihydroxy-trans-stilbene", "(E)-5-Styrylbenzene-1,3-diol"], "SMILES": "C(=CC1=CC=CC=C1)C2=CC(O)=CC(O)=C2", "physical_data": {"Molecular Weight": "212.24", "Molecular Formula": "C14H12O2", "Melting Point": "156 \u00b0C"}}