{"cas_no": "22131-79-9", "cn_name": "\u70ef\u6c2f\u82ef\u4e59\u9178", "en_name": ["Alclofenac", "Benzeneacetic acid, 3-chloro-4-(2-propen-1-yloxy)-", "Acetic acid, [4-(allyloxy)-3-chlorophenyl]-", "Benzeneacetic acid, 3-chloro-4-(2-propenyloxy)-", "3-Chloro-4-(2-propen-1-yloxy)benzeneacetic acid", "[4-(Allyloxy)-3-chlorophenyl]acetic acid", "Mervan", "Alclofenac", "W 7320", "Alclophenac", "Neosten", "Prinalgin", "[3-Chloro-4-(allyloxy)phenyl]acetic acid", "Neoston", "MY 101", "Allopydin", "Medifenac", "Zumaril", "Epinal", "Reufenac", "Aclofenac", "2-[3-Chloro-4-(prop-2-en-1-yloxy)phenyl]acetic acid", "2-(4-(Allyloxy)-3-chlorophenyl)acetic acid", "2-(4-(Allyloxy)-3-chlorophenyl)aceticacid"], "SMILES": "C(C(O)=O)C1=CC(Cl)=C(OCC=C)C=C1", "physical_data": {"Molecular Weight": "226.66", "Molecular Formula": "C11H11ClO3", "Melting Point": "92.5 \u00b0C"}}