{"cas_no": "2213-43-6", "cn_name": "1-\u6c28\u57fa\u54cc\u5576", "en_name": ["1-Aminopiperidine", "1-Piperidinamine", "Piperidine, 1-amino-", "N-Aminopiperidine", "1-Aminopiperidine", "Pentamethylenehydrazine", "1-Piperidineamine", "1-Piperidylamine", "NSC 83225", "Piperidin-1-ylamine"], "SMILES": "NN1CCCCC1", "physical_data": {"Molecular Weight": "100.16", "Molecular Formula": "C5H12N2", "Boiling Point": "147 \u00b0C"}}