{"cas_no": "22134-07-2", "cn_name": "2,4,6-\u4e09\u6c2f\u5f02\u786b\u6c30\u9178\u82ef\u916f", "en_name": ["1,3,5-Trichloro-2-isothiocyanatobenzene", "Benzene, 1,3,5-trichloro-2-isothiocyanato-", "Isothiocyanic acid, 2,4,6-trichlorophenyl ester", "1,3,5-Trichloro-2-isothiocyanatobenzene", "2,4,6-Trichlorophenyl isothiocyanate"], "SMILES": "N(=C=S)C1=C(Cl)C=C(Cl)C=C1Cl", "physical_data": {"Molecular Weight": "238.52", "Molecular Formula": "C7H2Cl3NS", "Melting Point": "80-81 \u00b0C"}}