{"cas_no": "2213-32-3", "cn_name": "2,4-\u4e8c\u7532\u57fa-1-\u620a\u70ef", "en_name": ["2,4-Dimethyl-1-pentene", "1-Pentene, 2,4-dimethyl-", "2,4-Dimethyl-1-pentene", "NSC 74135"], "SMILES": "C(C(C)C)C(C)=C", "physical_data": {"Molecular Weight": "98.19", "Molecular Formula": "C7H14", "Boiling Point": "81.6 \u00b0C", "Melting Point": "-124.1 \u00b0C", "Density": "0.6937 g/cm\u00b3 @ Temp: 20 \u00b0C"}}