{"cas_no": "2213-63-0", "cn_name": "2,3-\u4e8c\u6c2f\u55b9\u5594\u5549", "en_name": ["2,3-Dichloroquinoxaline", "Quinoxaline, 2,3-dichloro-", "2,3-Dichloroquinoxaline", "NSC 33437"], "SMILES": "ClC1=NC2=C(N=C1Cl)C=CC=C2", "physical_data": {"Molecular Weight": "199.04", "Molecular Formula": "C8H4Cl2N2", "Melting Point": "149-150 \u00b0C"}}