{"cas_no": "22134-75-4", "cn_name": "3,5-\u4e8c\u6c2f\u78fa\u80fa", "en_name": ["4-Amino-3,5-dichlorobenzenesulfonamide", "Benzenesulfonamide, 4-amino-3,5-dichloro-", "Sulfanilamide, 3,5-dichloro-", "4-Amino-3,5-dichlorobenzenesulfonamide", "3,5-Dichlorosulfanilamide", "3,5-Dichlorosulfanilimide", "NSC 62888"], "SMILES": "S(N)(=O)(=O)C1=CC(Cl)=C(N)C(Cl)=C1", "physical_data": {"Molecular Weight": "241.10", "Molecular Formula": "C6H6Cl2N2O2S", "Melting Point": "205-205.5 \u00b0C"}}