{"cas_no": "221347-71-3", "cn_name": "5-\u6c1f\u82ef\u5e76\u6076\u5511", "en_name": ["5-Fluorobenzoxazole", "Benzoxazole, 5-fluoro-", "5-Fluorobenzoxazole"], "SMILES": "FC=1C=C2C(=CC1)OC=N2", "physical_data": {"Molecular Weight": "137.11", "Molecular Formula": "C7H4FNO", "Melting Point": "43-45 \u00b0C"}}