{"cas_no": "22149-35-5", "cn_name": "\u5c71\u67f0\u915a 3-\u9f99\u80c6\u53cc\u7cd6\u82f7", "en_name": ["Kaempferol 3-O-gentiobioside", "4H-1-Benzopyran-4-one, 3-[(6-O-\u03b2-D-glucopyranosyl-\u03b2-D-glucopyranosyl)oxy]-5,7-dihydroxy-2-(4-hydroxyphenyl)-", "Flavone, 3,4\u2032,5,7-tetrahydroxy-, 3-(6-O-\u03b2-D-glucopyranosyl-\u03b2-D-glucopyranoside)", "3-[(6-O-\u03b2-D-Glucopyranosyl-\u03b2-D-glucopyranosyl)oxy]-5,7-dihydroxy-2-(4-hydroxyphenyl)-4H-1-benzopyran-4-one", "Kaempferol 3-gentiobioside", "3-O-\u03b2-D-Glucosyl-(1\u21926)-\u03b2-D-glucosylkaempferol", "Kaempferol 3-O-gentiobioside"], "SMILES": "O(C1=C(OC=2C(C1=O)=C(O)C=C(O)C2)C3=CC=C(O)C=C3)C4OC(COC5OC(CO)C(O)C(O)C5O)C(O)C(O)C4O", "physical_data": {"Molecular Weight": "610.52", "Molecular Formula": "C27H30O16", "Melting Point": "210-211 \u00b0C"}}