{"cas_no": "22149-28-6", "cn_name": "11-HYDROXYTABERSONINE", "en_name": ["11-Hydroxytabersonine", "Aspidospermidine-3-carboxylic acid, 2,3,6,7-tetradehydro-16-hydroxy-, methyl ester, (5\u03b1,12R,19\u03b1)-", "Tabersonine, 11-hydroxy-", "Aspidospermidine-3-carboxylic acid, 2,3,6,7-tetradehydro-16-hydroxy-, methyl ester, (5\u03b1,12\u03b2,19\u03b1)-", "1H-Indolizino[8,1-cd]carbazole, aspidospermidine-3-carboxylic acid deriv.", "16-Hydroxytabersonine", "11-Hydroxytabersonine"], "SMILES": "C(C)C12C3C4(C(=C(C(OC)=O)C1)NC=5C4=CC=C(O)C5)CCN3CC=C2", "physical_data": {"Molecular Weight": "352.43", "Molecular Formula": "C21H24N2O3", "Melting Point": "176 \u00b0C"}}