{"cas_no": "22144-76-9", "cn_name": "\u7ec6\u80de\u677e\u9a70\u7d20 C", "en_name": ["Cytochalasin C", "1H-Cycloundec[d]isoindole-1,11(2H)-dione, 15-(acetyloxy)-3,3a,6,6a,9,10,12,15-octahydro-6,12-dihydroxy-4,5,10,12-tetramethyl-3-(phenylmethyl)-, (3S,3aR,6S,6aR,7E,10S,12R,13E,15R,15aR)-", "1H-Cycloundec[d]isoindole-1,11(2H)-dione, 3-benzyl-3,3a,6,6a,9,10,12,15-octahydro-6,12,15-trihydroxy-4,5,10,12-tetramethyl-, 15-acetate", "[11]Cytochalasa-5,13,19-triene-1,17-dione, 21-(acetyloxy)-7,18-dihydroxy-16,18-dimethyl-10-phenyl-, (7S,13E,16S,18R,19E,21R)-", "1H-Cycloundec[d]isoindole, [11]cytochalasa-5,13,19-triene-1,17-dione deriv.", "(3S,3aR,6S,6aR,7E,10S,12R,13E,15R,15aR)-15-(Acetyloxy)-3,3a,6,6a,9,10,12,15-octahydro-6,12-dihydroxy-4,5,10,12-tetramethyl-3-(phenylmethyl)-1H-cycloundec[d]isoindole-1,11(2H)-dione", "Cytochalasin C", "1H-Cycloundec[d]isoindole-1,11(2H)-dione, 15-(acetyloxy)-3,3a,6,6a,9,10,12,15-octahydro-6,12-dihydroxy-4,5,10,12-tetramethyl-3-(phenylmethyl)-, [3S-(3R*,3aS*,6R*,6aS*,7E,10R*,12S*,13E,15S*,15aS*)]-"], "SMILES": "O(C(C)=O)C1C23C(C(CC4=CC=CC=C4)NC2=O)C(C)=C(C)C(O)C3C=CCC(C)C(=O)C(C)(O)C=C1", "physical_data": {"Molecular Weight": "507.62", "Molecular Formula": "C30H37NO6", "Melting Point": "260-265 \u00b0C"}}