{"cas_no": "22148-77-2", "cn_name": "1-\u7532\u57fa-3-\u82ef\u57fa\u4e19\u80fa", "en_name": ["1-Methyl-3-phenylpropylamine", "Benzenepropanamine, \u03b1-methyl-", "Propylamine, 1-methyl-3-phenyl-", "\u03b1-Methylbenzenepropanamine", "1-Phenyl-3-aminobutane", "3-Amino-1-phenylbutane", "1-Methyl-3-phenylpropylamine", "4-Phenyl-2-aminobutane", "(\u00b1)-\u03b1-Methylbenzenepropanamine", "DL-1-Methyl-3-phenylpropylamine", "(\u00b1)-1-Methyl-3-phenylpropylamine", "(\u00b1)-3-Amino-1-phenylbutane", "2-Amino-4-phenylbutane", "(RS)-1-Methyl-3-phenylpropylamine", "NSC 115524", "4-Phenyl-2-butanamine", "(3-Aminobutyl)benzene", "4-Phenyl-2-butylamine", "3-Phenyl-1-methylpropylamine"], "SMILES": "C(CC(C)N)C1=CC=CC=C1", "physical_data": {"Molecular Weight": "149.23", "Molecular Formula": "C10H15N", "Boiling Point": "223 \u00b0C", "Melting Point": "143 \u00b0C", "Density": "0.9289 g/cm\u00b3"}}