{"cas_no": "2215-63-6", "cn_name": "1-\u82c4\u57fa-3-\u7f9f\u57fa-1H-\u5432\u5511", "en_name": ["1-Benzyl-1H-indazol-3-ol", "3H-Indazol-3-one, 1,2-dihydro-1-(phenylmethyl)-", "1H-Indazol-3-ol, 1-benzyl-", "3-Indazolinone, 1-benzyl-", "1,2-Dihydro-1-(phenylmethyl)-3H-indazol-3-one", "1-Benzyl-3-hydroxy-1H-indazole", "1-Benzyl-3-hydroxyindazole", "1-Benzyl-1H-indazolone", "1-Benzyl-1H-indazol-3-ol", "3-Hydroxy-1-benzyl-1H-indazole", "1-Benzyl-1H-indazol-3-one", "1-Benzyl-3-indazolinone", "1-Benzyl-3-indazolone", "1-Benzyl-1,2-dihydro-3H-indazol-3-one", "NSC 247064", "1-Benzyl-2H-indazol-3-one", "1-Benzyl-1H-indazol-3(2H)-one", "1-Benzyl-2,3-dihydro-1H-indazol-3-one"], "SMILES": "C(N1C=2C(C(=O)N1)=CC=CC2)C3=CC=CC=C3", "physical_data": {"Molecular Weight": "224.26", "Molecular Formula": "C14H12N2O", "Melting Point": "167 \u00b0C"}}