{"cas_no": "22153-71-5", "cn_name": "2-\u785d\u57fa\u82ef--\u0392-\u5421\u5583\u534a\u4e73\u7cd6\u82f7", "en_name": ["4-Nitrophenyl 6-deoxy-\u03b2-L-galactopyranoside", "\u03b2-L-Galactopyranoside, 4-nitrophenyl 6-deoxy-", "Galactopyranoside, p-nitrophenyl 6-deoxy-, \u03b2-L-", "4-Nitrophenyl 6-deoxy-\u03b2-L-galactopyranoside", "p-Nitrophenyl-\u03b2-fucopyranoside", "p-Nitrophenyl \u03b2-L-fucopyranoside", "p-Nitrophenyl \u03b2-L-fucoside", "4-Nitrophenyl-\u03b2-L-fucopyranoside"], "SMILES": "O(C1C(O)C(O)C(O)C(C)O1)C2=CC=C(N(=O)=O)C=C2", "physical_data": {"Molecular Weight": "285.25", "Molecular Formula": "C12H15NO7", "Melting Point": "182-184 \u00b0C"}}