{"cas_no": "22150-76-1", "cn_name": "L-\u751f\u7269\u558b\u5464", "en_name": ["Biopterin", "4(1H)-Pteridinone, 2-amino-6-[(1R,2S)-1,2-dihydroxypropyl]-", "4(3H)-Pteridinone, 2-amino-6-(L-erythro-1,2-dihydroxypropyl)-", "4(1H)-Pteridinone, 2-amino-6-(1,2-dihydroxypropyl)-, [S-(R*,S*)]-", "2-Amino-6-[(1R,2S)-1,2-dihydroxypropyl]-4(1H)-pteridinone", "Biopterin", "L-erythro-Biopterin", "Pterin H B2", "L-Biopterin", "6-Biopterin", "(-)-Biopterin", "NSC 339699", "MeSH ID: D001708"], "SMILES": "O=C1C=2C(NC=C(C(C(C)O)O)N2)=NC(N)=N1", "physical_data": {"Molecular Weight": "237.22", "Molecular Formula": "C9H11N5O3", "Melting Point": "300 \u00b0C (decomp)"}}