{"cas_no": "2215-89-6", "cn_name": "4,4'-\u4e8c\u82ef\u919a\u4e8c\u7532\u9178", "en_name": ["4,4\u2032-Oxybis[benzoic acid]", "Benzoic acid, 4,4\u2032-oxybis-", "Benzoic acid, 4,4\u2032-oxydi-", "Benzoic acid, p,p\u2032-oxydi-", "Benzoic acid, p,p\u2032-oxybis-", "4,4\u2032-Oxybis[benzoic acid]", "4,4\u2032-Dicarboxydiphenyl oxide", "4,4\u2032-Oxydibenzoic acid", "4,4\u2032-Dicarboxydiphenyl ether", "4-(4-Carboxyphenoxy)benzoic acid", "4,4\u2032-Oxydiphenylenedicarboxylic acid", "Diphenyl ether-4,4\u2032-dicarboxylic acid", "BAS 85763", "NSC 39046", "4,4\u2032-Biphenyl ether dicarboxylic acid", "Di(4-carboxyphenyl) ether", "4,4\u2032-Dicarboxy biphenyl ether"], "SMILES": "O(C1=CC=C(C(O)=O)C=C1)C2=CC=C(C(O)=O)C=C2", "physical_data": {"Molecular Weight": "258.23", "Molecular Formula": "C14H10O5", "Melting Point": "&gt;285 \u00b0C"}}