{"cas_no": "2215-21-6", "cn_name": "3,5-\u4e8c\u5f02\u4e19\u57fa\u90bb\u7f9f\u57fa\u82ef\u7532\u9178", "en_name": ["3,5-Diisopropylsalicylic acid", "Benzoic acid, 2-hydroxy-3,5-bis(1-methylethyl)-", "Salicylic acid, 3,5-diisopropyl-", "2-Hydroxy-3,5-bis(1-methylethyl)benzoic acid", "3,5-Diisopropylsalicylic acid", "3,5-Diisopropyl-2-hydroxybenzoic acid", "2-Hydroxy-3,5-diisopropylbenzoic acid", "2-Hydroxy-3,5-bis(propan-2-yl)benzoic acid"], "SMILES": "C(C)(C)C1=C(O)C(C(O)=O)=CC(C(C)C)=C1", "physical_data": {"Molecular Weight": "222.28", "Molecular Formula": "C13H18O3", "Melting Point": "118.5 \u00b0C"}}