{"cas_no": "2215-77-2", "cn_name": "4-\u82ef\u6c27\u57fa\u82ef\u7532\u9178", "en_name": ["4-Phenoxybenzoic acid", "Benzoic acid, 4-phenoxy-", "Benzoic acid, p-phenoxy-", "4-Phenoxybenzoic acid", "p-Phenoxybenzoic acid", "NSC 246039"], "SMILES": "O(C1=CC=C(C(O)=O)C=C1)C2=CC=CC=C2", "physical_data": {"Molecular Weight": "214.22", "Molecular Formula": "C13H10O3", "Boiling Point": "198-205 \u00b0C @ Press: 18 Torr", "Melting Point": "159 \u00b0C"}}