{"cas_no": "2216-33-3", "cn_name": "3-\u7532\u57fa\u8f9b\u70f7", "en_name": ["3-Methyloctane", "Octane, 3-methyl-", "3-Methyloctane", "NSC 23689", "(\u00b1)-3-Methyloctane"], "SMILES": "C(CCCCC)(CC)C", "physical_data": {"Molecular Weight": "128.26", "Molecular Formula": "C9H20", "Boiling Point": "144.2 \u00b0C", "Melting Point": "-107.6 \u00b0C", "Density": "0.714 g/cm\u00b3 @ Temp: 27 \u00b0C"}}