{"cas_no": "22162-22-7", "cn_name": "1-\u6eb4-2,3-\u4e8c\u7532\u57fa-5-\u785d\u57fa\u82ef", "en_name": ["1-Bromo-2,3-dimethyl-5-nitrobenzene", "Benzene, 1-bromo-2,3-dimethyl-5-nitro-", "o-Xylene, 3-bromo-5-nitro-", "1-Bromo-2,3-dimethyl-5-nitrobenzene"], "SMILES": "N(=O)(=O)C1=CC(Br)=C(C)C(C)=C1", "physical_data": {"Molecular Weight": "230.06", "Molecular Formula": "C8H8BrNO2", "Melting Point": "101 \u00b0C"}}