{"cas_no": "22161-81-5", "cn_name": "\u53f3\u65cb\u916e\u6d1b\u82ac", "en_name": ["(+)-Ketoprofen", "Benzeneacetic acid, 3-benzoyl-\u03b1-methyl-, (\u03b1S)-", "Benzeneacetic acid, 3-benzoyl-\u03b1-methyl-, (S)-", "Hydratropic acid, m-benzoyl-, (+)-", "(\u03b1S)-3-Benzoyl-\u03b1-methylbenzeneacetic acid", "(+)-Ketoprofen", "(S)-Ketoprofen", "(+)-3-Benzoylhydratropic acid", "(+)-2-(3-Benzoylphenyl)propionic acid", "(2S)-2-(3-Benzoylphenyl)propionic acid", "Dexketoprofen", "(+)-(S)-m-Benzoylhydratropic acid", "(S)-(+)-2-(3-Benzoylphenyl)propionic acid", "(S)-2-(3-Benzoylphenyl)propionic acid", "(+)-3-Benzoyl-\u03b1-methylbenzeneacetic acid", "S-(+)-Ketoprofen", "(S)-2-(3-Benzoylphenyl)propanoic acid", "Arveles", "(2S)-2-(3-Benzoylphenyl)propanoic acid"], "SMILES": "C(=O)(C1=CC(C(C(O)=O)C)=CC=C1)C2=CC=CC=C2", "physical_data": {"Molecular Weight": "254.28", "Molecular Formula": "C16H14O3", "Melting Point": "72 \u00b0C"}}