{"cas_no": "2216-84-4", "cn_name": "1,2,3,4,5,6-\u73af\u5df1\u70f7\u516d\u7fa7\u9178", "en_name": ["1,2,3,4,5,6-Cyclohexanehexacarboxylic acid", "1,2,3,4,5,6-Cyclohexanehexacarboxylic acid", "Hexahydromellitic acid"], "SMILES": "C(O)(=O)C1C(C(O)=O)C(C(O)=O)C(C(O)=O)C(C(O)=O)C1C(O)=O", "physical_data": {"Molecular Weight": "348.22", "Molecular Formula": "C12H12O12", "Melting Point": "222-224 \u00b0C"}}