{"cas_no": "2216-16-2", "cn_name": "3-\u785d\u57fa-N,N-\u4e8c\u4e59\u57fa\u82ef\u80fa", "en_name": ["N,N-Diethyl-3-nitrobenzenamine", "Benzenamine, N,N-diethyl-3-nitro-", "Aniline, N,N-diethyl-m-nitro-", "N,N-Diethyl-3-nitrobenzenamine", "N,N-Diethyl-3-nitroaniline", "m-Nitro-N,N-diethylaniline", "N,N-Diethyl-m-nitroaniline", "3-Nitro-N,N-diethylaniline"], "SMILES": "N(CC)(CC)C1=CC(N(=O)=O)=CC=C1", "physical_data": {"Molecular Weight": "194.23", "Molecular Formula": "C10H14N2O2", "Boiling Point": "135 \u00b0C @ Press: 0.7 Torr"}}