{"cas_no": "2216-45-7", "cn_name": "4-\u7532\u57fa\u82ef\u7532\u9187\u4e59\u9178\u916f", "en_name": ["Benzenemethanol, 4-methyl-, 1-acetate", "Benzenemethanol, 4-methyl-, 1-acetate", "Benzyl alcohol, p-methyl-, acetate", "Benzenemethanol, 4-methyl-, acetate", "p-Methylbenzyl acetate", "p-Tolubenzyl acetate", "p-Xylyl acetate", "4-Methylbenzyl acetate", "p-Acetoxymethyltoluene", "NSC 7001", "(4-Methylphenyl)methyl acetate"], "SMILES": "C(OC(C)=O)C1=CC=C(C)C=C1", "physical_data": {"Molecular Weight": "164.20", "Molecular Formula": "C10H12O2", "Boiling Point": "227-230 \u00b0C", "Melting Point": "40 \u00b0C"}}