{"cas_no": "2216-87-7", "cn_name": "3-\u5341\u4e00\u916e", "en_name": ["3-Undecanone", "3-Undecanone", "Ethyl octyl ketone", "NSC 158429"], "SMILES": "C(CCC(CC)=O)CCCCC", "physical_data": {"Molecular Weight": "170.29", "Molecular Formula": "C11H22O", "Boiling Point": "227 \u00b0C", "Melting Point": "12 \u00b0C", "Density": "0.8272 g/cm\u00b3 @ Temp: 20 \u00b0C"}}