{"cas_no": "2216-69-5", "cn_name": "1-\u7532\u6c27\u57fa\u8418", "en_name": ["1-Methoxynaphthalene", "Naphthalene, 1-methoxy-", "1-Methoxynaphthalene", "1-Naphthyl methyl ether", "Methyl 1-naphthyl ether", "\u03b1-Methoxynaphthalene", "\u03b1-Naphthyl methyl ether", "1-Naphthol methyl ether", "NSC 5530"], "SMILES": "O(C)C=1C2=C(C=CC1)C=CC=C2", "physical_data": {"Molecular Weight": "158.20", "Molecular Formula": "C11H10O", "Boiling Point": "269 \u00b0C", "Melting Point": "&lt;-10 \u00b0C", "Density": "1.097 g/cm\u00b3 @ Temp: 20 \u00b0C"}}