{"cas_no": "2216-34-4", "cn_name": "4-\u7532\u57fa\u8f9b\u70f7", "en_name": ["(\u00b1)-4-Methyloctane", "Octane, 4-methyl-", "4-Methyloctane", "NSC 23691", "(\u00b1)-4-Methyloctane"], "SMILES": "C(CCCC)(CCC)C", "physical_data": {"Molecular Weight": "128.26", "Molecular Formula": "C9H20", "Boiling Point": "142.4 \u00b0C", "Melting Point": "-113.3 \u00b0C", "Density": "0.7320 g/cm\u00b3 @ Temp: 16 \u00b0C"}}