{"cas_no": "2216-15-1", "cn_name": "N,N-\u4e8c\u4e59\u57fa-4-\u785d\u57fa\u82ef\u80fa", "en_name": ["N,N-Diethyl-4-nitrobenzenamine", "Benzenamine, N,N-diethyl-4-nitro-", "Aniline, N,N-diethyl-p-nitro-", "N,N-Diethyl-4-nitrobenzenamine", "N,N-Diethyl-4-nitroaniline", "N,N-Diethyl-p-nitroaniline", "p-Nitro-N,N-diethylaniline", "4-Nitro-N,N-diethylaniline", "4-(Diethylamino)nitrobenzene"], "SMILES": "N(CC)(CC)C1=CC=C(N(=O)=O)C=C1", "physical_data": {"Molecular Weight": "194.23", "Molecular Formula": "C10H14N2O2", "Melting Point": "77.5 \u00b0C"}}