{"cas_no": "2216-32-2", "cn_name": "4-\u4e59\u5e9a\u70f7", "en_name": ["4-Ethylheptane", "Heptane, 4-ethyl-", "4-Ethylheptane"], "SMILES": "C(CCC)(CCC)CC", "physical_data": {"Molecular Weight": "128.26", "Molecular Formula": "C9H20", "Boiling Point": "141.2 \u00b0C"}}