{"cas_no": "221615-72-1", "cn_name": "1-(6-\u7532\u57fa-3-\u5421\u5576)-2-[4-(\u7532\u5def\u57fa)\u82ef\u57fa]-\u4e59\u916e", "en_name": ["1-(6-Methyl-3-pyridinyl)-2-[4-(methylthio)phenyl]ethanone", "Ethanone, 1-(6-methyl-3-pyridinyl)-2-[4-(methylthio)phenyl]-", "1-(6-Methyl-3-pyridinyl)-2-[4-(methylthio)phenyl]ethanone", "1-(6-Methylpyridin-3-yl)-2-[4-(methylthio)phenyl]ethanone", "1-(6-Methylpyridin-3-yl)-2-(4-methylsulfanylphenyl)ethanone"], "SMILES": "C(CC1=CC=C(SC)C=C1)(=O)C=2C=CC(C)=NC2", "physical_data": {"Molecular Weight": "257.35", "Molecular Formula": "C15H15NOS", "Melting Point": "111-113 \u00b0C"}}