{"cas_no": "22160-26-5", "cn_name": "\u7518\u6cb9\u8461\u7cd6\u82f7", "en_name": ["Glucosylglycerol", "\u03b1-D-Glucopyranoside, 2-hydroxy-1-(hydroxymethyl)ethyl", "Glucopyranoside, 2-hydroxy-1-(hydroxymethyl)ethyl, \u03b1-D-", "2-Hydroxy-1-(hydroxymethyl)ethyl \u03b1-D-glucopyranoside", "2-O-\u03b1-D-Glucopyranosylglycerol", "Glucosylglycerol", "2-O-\u03b1-D-Glucosylglycerol", "Glycoin"], "SMILES": "O(C(CO)CO)C1OC(CO)C(O)C(O)C1O", "physical_data": {"Molecular Weight": "254.23", "Molecular Formula": "C9H18O8", "Melting Point": "121 \u00b0C"}}