{"cas_no": "2216-92-4", "cn_name": "N-\u82ef\u57fa\u6c28\u57fa\u4e59\u9178\u4e59\u57fa\u919a", "en_name": ["N-Phenylglycine ethyl ester", "Glycine, N-phenyl-, ethyl ester", "N-Phenylglycine ethyl ester", "Ethyl phenylglycinate", "Ethyl N-phenylglycinate", "Phenylglycine ethyl ester", "Ethyl 2-(phenylamino)acetate", "Ethyl anilinoacetate"], "SMILES": "N(CC(OCC)=O)C1=CC=CC=C1", "physical_data": {"Molecular Weight": "179.22", "Molecular Formula": "C10H13NO2", "Boiling Point": "273.5 \u00b0C", "Melting Point": "58 \u00b0C"}}