{"cas_no": "2216-52-6", "cn_name": "[1S-(1\u03b1,2\u03b1,5\u03b2)]-5-\u7532\u57fa-2-(1-\u7532\u57fa\u4e59\u57fa)\u73af\u5df1\u9187", "en_name": ["(+)-Neomenthol", "Cyclohexanol, 5-methyl-2-(1-methylethyl)-, (1S,2S,5R)-", "Menthol, (1R,3S,4S)-(+)-", "Cyclohexanol, 5-methyl-2-(1-methylethyl)-, [1S-(1\u03b1,2\u03b1,5\u03b2)]-", "(1S,2S,5R)-5-Methyl-2-(1-methylethyl)cyclohexanol", "(+)-neo-Menthol", "(+)-Neomenthol", "(1S,2S,5R)-Neomenthol", "d-Neomenthol", "(+)-trans-p-Menthan-trans-3-ol"], "SMILES": "C(C)(C)C1C(O)CC(C)CC1", "physical_data": {"Molecular Weight": "156.27", "Molecular Formula": "C10H20O", "Boiling Point": "83-84 \u00b0C @ Press: 7 Torr", "Density": "0.90415 g/cm\u00b3 @ Temp: 20 \u00b0C"}}