{"cas_no": "2216-51-5", "cn_name": "L-\u8584\u8377\u9187", "en_name": ["(-)-Menthol", "Cyclohexanol, 5-methyl-2-(1-methylethyl)-, (1R,2S,5R)-", "Menthol, (1R,3R,4S)-(-)-", "Cyclohexanol, 5-methyl-2-(1-methylethyl)-, [1R-(1\u03b1,2\u03b2,5\u03b1)]-", "(1R,2S,5R)-5-Methyl-2-(1-methylethyl)cyclohexanol", "l-Menthol", "(-)-Menthol", "(R)-(-)-Menthol", "(-)-Menthyl alcohol", "(1R)-(-)-Menthol", "(1R,2S,5R)-(-)-Menthol", "Levomenthol", "l-(-)-Menthol", "1R-Menthol", "NSC 62788", "L-Menthol", "(1R,2S,5R)-2-Isopropyl-5-methylcyclohexanol", "(1R,2S,5R)-2-Isopropyl-5-methylcyclohexan-1-ol", "L-Mentholum", "(-)-(1R,3R,4S)-Menthol", "Minclea", "(1R,2S,5R)-5-Methyl-2-(propan-2-yl)cyclohexanol", "A 10474", "(1R,2S,5R)-2-Isopropyl-5-methylcyclohexan-1-ol", "Hakkano", "(1R,2S,5R)-2-Isopropyl-5-methylcyclohexanol", "(-)-trans-p-Menthan-cis-3-ol", "FEMA 2665"], "SMILES": "C(C)(C)C1C(O)CC(C)CC1", "physical_data": {"Molecular Weight": "156.27", "Molecular Formula": "C10H20O", "Boiling Point": "212 \u00b0C", "Melting Point": "41-43 \u00b0C", "Density": "0.890 g/cm\u00b3"}}