{"cas_no": "2216-68-4", "cn_name": "N-\u7532\u57fa-1-\u8418\u80fa", "en_name": ["N-Methyl-1-naphthalenamine", "1-Naphthalenamine, N-methyl-", "1-Naphthylamine, N-methyl-", "N-Methyl-1-naphthalenamine", "N-Methyl-1-naphthylamine", "N-Methyl-\u03b1-naphthylamine", "1-(Methylamino)naphthalene", "N-Methyl-N-(1-naphthyl)amine", "N-Methylnaphthalene-1-amine", "NSC 9412", "N-(1-Naphthyl)methylamine"], "SMILES": "N(C)C=1C2=C(C=CC1)C=CC=C2", "physical_data": {"Molecular Weight": "157.21", "Molecular Formula": "C11H11N", "Boiling Point": "294.5 \u00b0C", "Melting Point": "174 \u00b0C"}}