{"cas_no": "2216-12-8", "cn_name": "2-\u785d\u57fa\u82ef\u57fa\u82ef\u57fa\u919a", "en_name": ["2-Nitrodiphenyl ether", "Benzene, 1-nitro-2-phenoxy-", "Ether, o-nitrophenyl phenyl", "1-Nitro-2-phenoxybenzene", "Phenyl o-nitrophenyl ether", "2-Nitrodiphenyl ether", "o-Nitrophenyl phenyl ether", "2-Nitrophenyl phenyl ether", "2-Phenoxynitrobenzene", "o-Nitrodiphenyl ether", "NSC 5419", "NSC 642583", "2-Phenoxy-1-nitrobenzene"], "SMILES": "O(C1=C(N(=O)=O)C=CC=C1)C2=CC=CC=C2", "physical_data": {"Molecular Weight": "215.20", "Molecular Formula": "C12H9NO3", "Boiling Point": "195-197 \u00b0C", "Melting Point": "&lt;-20 \u00b0C", "Density": "1.2539 g/cm\u00b3 @ Temp: 21.5 \u00b0C"}}