{"cas_no": "221615-75-4", "cn_name": "2-(4-\u7532\u78fa\u9170\u57fa\u82ef\u57fa)-1-(6-\u7532\u57fa\u5421\u5576-3-\u57fa)-\u4e59\u916e", "en_name": ["1-(6-Methylpyridin-3-yl)-2-[4-(methylsulfonyl)phenyl]ethanone", "Ethanone, 1-(6-methyl-3-pyridinyl)-2-[4-(methylsulfonyl)phenyl]-", "1-(6-Methyl-3-pyridinyl)-2-[4-(methylsulfonyl)phenyl]ethanone", "1-(6-Methylpyridin-3-yl)-2-[4-(methylsulfonyl)phenyl]ethanone", "2-(4-Mesylphenyl)-1-(6-methylpyridin-3-yl)-ethan-1-one"], "SMILES": "C(CC1=CC=C(S(C)(=O)=O)C=C1)(=O)C=2C=CC(C)=NC2", "physical_data": {"Molecular Weight": "289.35", "Molecular Formula": "C15H15NO3S", "Melting Point": "172-173 \u00b0C"}}