{"cas_no": "2216-94-6", "cn_name": "\u82ef\u4e19\u9178\u4e59\u916f", "en_name": ["2-Propynoic acid, 3-phenyl-, ethyl ester", "2-Propynoic acid, 3-phenyl-, ethyl ester", "Propiolic acid, phenyl-, ethyl ester", "Ethyl phenylpropiolate", "Ethyl 3-phenylpropiolate", "Ethyl phenylacetylenecarboxylate", "Ethyl 3-phenylpropynoate", "Ethyl phenylpropynoate", "EPP", "Ethyl 3-phenyl-2-propynoate", "Ethyl 2-phenylacetylenecarboxylate", "3-Phenyl-2-propynoic acid ethyl ester", "Ethyl 3-phenylpropargylate", "NSC 41566", "3-Phenylpropynic acid ethyl ester"], "SMILES": "C(#CC(OCC)=O)C1=CC=CC=C1", "physical_data": {"Molecular Weight": "174.20", "Molecular Formula": "C11H10O2", "Boiling Point": "265 \u00b0C", "Melting Point": "149-150 \u00b0C"}}