{"cas_no": "2217-43-8", "cn_name": "5,6,7,8-\u56db\u6c22-2-\u8418\u80fa", "en_name": ["6-Aminotetralin", "2-Naphthalenamine, 5,6,7,8-tetrahydro-", "2-Naphthylamine, 5,6,7,8-tetrahydro-", "5,6,7,8-Tetrahydro-2-naphthalenamine", "6-Aminotetralin", "2-Amino-5,6,7,8-tetrahydronaphthalene", "5,6,7,8-Tetrahydro-2-naphthylamine", "5,6,7,8-Tetrahydronaphthalen-2-amine", "5,6,7,8-Tetrahydronaphthalen-2-ylamine", "6-Amino-1,2,3,4-tetrahydronaphthalene", "1,2,3,4-Tetrahydro-6-aminonaphthalene"], "SMILES": "NC=1C=C2C(=CC1)CCCC2", "physical_data": {"Molecular Weight": "147.22", "Molecular Formula": "C10H13N", "Boiling Point": "148-156 \u00b0C @ Press: 19 Torr", "Melting Point": "34-35 \u00b0C"}}