{"cas_no": "2217-41-6", "cn_name": "1-\u6c28\u57fa\u56db\u6c22\u5316\u8418", "en_name": ["5,6,7,8-Tetrahydro-1-naphthylamine", "1-Naphthalenamine, 5,6,7,8-tetrahydro-", "1-Naphthylamine, 5,6,7,8-tetrahydro-", "5,6,7,8-Tetrahydro-1-naphthalenamine", "5-Aminotetralin", "5-Amino-1,2,3,4-tetrahydronaphthalene", "1-Amino-5,6,7,8-tetrahydronaphthalene", "5-Tetralinylamine", "5,6,7,8-Tetrahydro-1-naphthylamine", "1,2,3,4-Tetrahydro-5-naphthylamine", "5,6,7,8-Tetrahydro-1-naphthalenylamine", "NSC 53503", "1,2,3,4-Tetrahydro-5-naphthalenamine", "1,2,3,4-Tetrahydro-5-aminonaphthalene"], "SMILES": "NC1=C2C(=CC=C1)CCCC2", "physical_data": {"Molecular Weight": "147.22", "Molecular Formula": "C10H13N", "Boiling Point": "279 \u00b0C", "Melting Point": "38 \u00b0C", "Density": "1.0607 g/cm\u00b3 @ Temp: 20 \u00b0C"}}