{"cas_no": "2217-33-6", "cn_name": "\u4e01\u9178\u56db\u6c22\u7ce0\u916f", "en_name": ["Tetrahydrofurfuryl butyrate", "Butanoic acid, (tetrahydro-2-furanyl)methyl ester", "Butyric acid, tetrahydrofurfuryl ester", "Tetrahydrofurfuryl butyrate", "Tetrahydro-2-furanylmethyl butyrate", "2-(Butyryloxymethyl)tetrahydrofuran"], "SMILES": "C(OC(CCC)=O)C1CCCO1", "physical_data": {"Molecular Weight": "172.22", "Molecular Formula": "C9H16O3", "Boiling Point": "97 \u00b0C @ Press: 0.2 Torr"}}