{"cas_no": "2217-02-9", "cn_name": "(+)-\u8451\u9187", "en_name": ["(+)-Fenchol", "Bicyclo[2.2.1]heptan-2-ol, 1,3,3-trimethyl-, (1R,2R,4S)-", "Bicyclo[2.2.1]heptan-2-ol, 1,3,3-trimethyl-, (1R-endo)-", "(1R,2R,4S)-1,3,3-Trimethylbicyclo[2.2.1]heptan-2-ol", "(+)-\u03b1-Fenchol", "\u03b1-Fenchol, (+)-", "D-Fenchol", "(+)-Fenchol", "\u03b1-(+)-Fenchol", "(+)-\u03b1-Fenchyl alcohol", "(1R-endo)-Fenchol", "(1R)-endo-(+)-Fenchyl alcohol", "(+)-Fenchyl alcohol", "D-Fenchyl alcohol", "(1R)-endo-(+)-Fenchol", "(1R,2R,4S)-endo-Fenchol", "(+)-endo-Fenchol"], "SMILES": "CC12C(O)C(C)(C)C(C1)CC2", "physical_data": {"Molecular Weight": "154.25", "Molecular Formula": "C10H18O", "Melting Point": "43.5 \u00b0C"}}