{"cas_no": "22179-86-8", "cn_name": "N-\u7f9f\u57fa4-(\u4e09\u6c1f\u7532\u57fa)\u82ef\u7532\u8112", "en_name": ["N-Hydroxy-4-(trifluoromethyl)benzenecarboximidamide", "Benzenecarboximidamide, N-hydroxy-4-(trifluoromethyl)-", "p-Toluamidoxime, \u03b1,\u03b1,\u03b1-trifluoro-", "N-Hydroxy-4-(trifluoromethyl)benzenecarboximidamide", "4-Trifluoromethylbenzamidoxime", "4-(Trifluoromethyl)-N\u2032-hydroxybenzenecarboximidamide", "N\u2032-Hydroxy-4-(trifluoromethyl)benzenecarboximidamide", "N-Hydroxy-4-(trifluoromethyl)benzamidine", "N-Hydroxy-4-trifluoromethylbenzimidamide"], "SMILES": "C(F)(F)(F)C1=CC=C(C(NO)=N)C=C1", "physical_data": {"Molecular Weight": "204.15", "Molecular Formula": "C8H7F3N2O", "Melting Point": "127-129 \u00b0C"}}