{"cas_no": "22179-72-2", "cn_name": "4-\u6c1f\u786b\u4ee3\u82c4\u80fa", "en_name": ["4-Fluorothiobenzamide", "Benzenecarbothioamide, 4-fluoro-", "Benzamide, p-fluorothio-", "4-Fluorobenzenecarbothioamide", "4-Fluorothiobenzamide", "4-Fluoro-1-benzenecarbothioamide", "4-Fluorobenzothioamide"], "SMILES": "C(N)(=S)C1=CC=C(F)C=C1", "physical_data": {"Molecular Weight": "155.19", "Molecular Formula": "C7H6FNS", "Melting Point": "148 \u00b0C"}}