{"cas_no": "2217-79-0", "cn_name": "\u4e8c\u82ef\u57fa\u7898", "en_name": ["Diphenyliodonium iodide", "Iodonium, diphenyl-, iodide (1:1)", "Iodonium, diphenyl-, iodide", "Diphenyliodonium iodide", "NSC 172526"], "SMILES": "[I+](C1=CC=CC=C1)C2=CC=CC=C2.[I-]", "physical_data": {"Molecular Weight": "", "Molecular Formula": "C12H10I.I", "Melting Point": "162 \u00b0C"}}