{"cas_no": "2217-35-8", "cn_name": "\u6c34\u6768\u9178\u56db\u6c22\u7ce0\u916f", "en_name": ["(Tetrahydro-2-furanyl)methyl 2-hydroxybenzoate", "Benzoic acid, 2-hydroxy-, (tetrahydro-2-furanyl)methyl ester", "Salicylic acid, tetrahydrofurfuryl ester", "(Tetrahydro-2-furanyl)methyl 2-hydroxybenzoate", "Tetrahydrofurfuryl salicylate", "NSC 68484", "(Tetrahydrofuran-2-yl)methyl 2-hydroxybenzoate", "(Oxolan-2-yl)methyl 2-hydroxybenzoate", "2-Hydroxy-benzoic acid tetrahydro-furan-2-ylmethyl ester"], "SMILES": "C(OCC1CCCO1)(=O)C2=C(O)C=CC=C2", "physical_data": {"Molecular Weight": "222.24", "Molecular Formula": "C12H14O4", "Boiling Point": "166 \u00b0C @ Press: 5 Torr", "Density": "1.1831 g/cm\u00b3 @ Temp: 34 \u00b0C"}}