{"cas_no": "22172-17-4", "cn_name": "\u7532\u57fa\u5f53\u836f\u5b81", "en_name": ["1,8-Dihydroxy-3,7-dimethoxyxanthone", "9H-Xanthen-9-one, 1,8-dihydroxy-2,6-dimethoxy-", "Xanthen-9-one, 1,8-dihydroxy-2,6-dimethoxy-", "1,8-Dihydroxy-2,6-dimethoxy-9H-xanthen-9-one", "Methylswertianin", "Swertiaperennin", "1,3,7,8-Tetrahydroxyxanthone 3,7-dimethyl ether", "1,8-Dihydroxy-3,7-dimethoxyxanthone", "1,8-Dihydroxy-3,7-dimethoxyxanthen-9-one", "1,8-Dihydroxy-2,6-dimethoxyxanthone", "Svercyaperenin", "Swertiaperenine", "1,8-Dihydroxy-2,6-dimethoxyxanthen-9-one"], "SMILES": "O=C1C=2C(OC=3C1=C(O)C=C(OC)C3)=CC=C(OC)C2O", "physical_data": {"Molecular Weight": "288.25", "Molecular Formula": "C15H12O6", "Melting Point": "194-195 \u00b0C"}}