{"cas_no": "2217-40-5", "cn_name": "1,2,3,4-\u56db\u6c22-1-\u8418\u80fa", "en_name": ["1,2,3,4-Tetrahydro-1-naphthylamine", "1-Naphthalenamine, 1,2,3,4-tetrahydro-", "1-Naphthalenamine, 1,2,3,4-tetrahydro-, (\u00b1)-", "1-Naphthylamine, 1,2,3,4-tetrahydro-, (\u00b1)-", "1,2,3,4-Tetrahydro-1-naphthalenamine", "1-Aminotetralin", "1,2,3,4-Tetrahydro-1-naphthylamine", "1-Amino-1,2,3,4-tetrahydronaphthalene", "1,2,3,4-Tetrahydro-1-aminonaphthalene", "1,2,3,4-Tetrahydronaphthalen-1-ylamine", "(\u00b1)-1-Aminotetralin", "(\u00b1)-1,2,3,4-Tetrahydro-\u03b1-naphthylamine", "(\u00b1)-1,2,3,4-Tetrahydro-1-naphthylamine", "(RS)-1-Aminotetralin", "(RS)-1,2,3,4-Tetrahydro-1-naphthylamine", "NSC 30349", "1-Aminotetraline"], "SMILES": "NC1C=2C(CCC1)=CC=CC2", "physical_data": {"Molecular Weight": "147.22", "Molecular Formula": "C10H13N", "Boiling Point": "114 \u00b0C @ Press: 10 Torr"}}