{"cas_no": "22179-73-3", "cn_name": "3,4-\u4e8c\u6c2f\u786b\u4ee3\u82ef\u7532\u9170\u80fa", "en_name": ["3,4-Dichlorobenzenecarbothioamide", "Benzenecarbothioamide, 3,4-dichloro-", "Benzamide, 3,4-dichlorothio-", "3,4-Dichlorobenzenecarbothioamide", "3,4-Dichlorothiobenzamide", "3,4-Dichlorobenzothioamide", "3,4-Dichlorobenzene-1-carbothioamide"], "SMILES": "C(N)(=S)C1=CC(Cl)=C(Cl)C=C1", "physical_data": {"Molecular Weight": "206.09", "Molecular Formula": "C7H5Cl2NS", "Melting Point": "132-134 \u00b0C"}}