{"cas_no": "22179-78-8", "cn_name": "N-\u7f9f\u57fa-4-\u6c1f\u82ef\u7532\u8112", "en_name": ["4-Fluorobenzamidoxime", "Benzenecarboximidamide, 4-fluoro-N-hydroxy-", "Benzamidoxime, p-fluoro-", "4-Fluoro-N-hydroxybenzenecarboximidamide", "4-Fluorobenzamidoxime", "4-Fluorobenzamide oxime", "4-Fluoro-N\u2032-hydroxybenzenecarboximidamide", "4-Fluoro-N-hydroxybenzamidine", "4-Fluoro-N\u2032-hydroxybenzamidine", "N\u2032-Hydroxy-4-fluorobenzenecarboximidamide", "N-Hydroxy-4-fluorobenzamidine", "4-Fluoro-N-hydroxybenzimidamide"], "SMILES": "C(NO)(=N)C1=CC=C(F)C=C1", "physical_data": {"Molecular Weight": "154.14", "Molecular Formula": "C7H7FN2O", "Melting Point": "93-95 \u00b0C"}}