{"cas_no": "2217-55-2", "cn_name": "\u4e8c\u786b\u5316\u53cc-(2,4-\u4e8c\u785d\u57fa\u82ef)", "en_name": ["Bis(2,4-dinitrophenyl) disulfide", "Disulfide, bis(2,4-dinitrophenyl)", "Bis(2,4-dinitrophenyl) disulfide", "2,2\u2032,4,4\u2032-Tetranitrodiphenyl disulfide", "NSC 677455", "NSC 192", "1,2-Bis(2,4-dinitrophenyl)disulfane"], "SMILES": "S(SC1=C(N(=O)=O)C=C(N(=O)=O)C=C1)C2=C(N(=O)=O)C=C(N(=O)=O)C=C2", "physical_data": {"Molecular Weight": "398.33", "Molecular Formula": "C12H6N4O8S2", "Melting Point": "280 \u00b0C"}}