{"cas_no": "2217-07-4", "cn_name": "N,N-\u4e8c\u4e19\u57fa\u82ef\u80fa", "en_name": ["N,N-Dipropylbenzenamine", "Benzenamine, N,N-dipropyl-", "Aniline, N,N-dipropyl-", "N,N-Dipropylbenzenamine", "N-Phenyldipropylamine", "N,N-Dipropylaniline", "Dipropylaniline", "NSC 5689"], "SMILES": "N(CCC)(CCC)C1=CC=CC=C1", "physical_data": {"Molecular Weight": "177.29", "Molecular Formula": "C12H19N", "Boiling Point": "242 \u00b0C"}}