{"cas_no": "22198-72-7", "cn_name": "4-\u6c28\u57fa\u5b89\u66ff\u6bd4\u6797\u76d0\u9178\u76d0", "en_name": ["3H-Pyrazol-3-one, 4-amino-1,2-dihydro-1,5-dimethyl-2-phenyl-, hydrochloride (1:1)", "3H-Pyrazol-3-one, 4-amino-1,2-dihydro-1,5-dimethyl-2-phenyl-, hydrochloride (1:1)", "Antipyrine, 4-amino-, monohydrochloride", "3H-Pyrazol-3-one, 4-amino-1,2-dihydro-1,5-dimethyl-2-phenyl-, monohydrochloride", "4-Aminoantipyrine hydrochloride"], "SMILES": "O=C1N(N(C)C(C)=C1N)C2=CC=CC=C2.Cl", "physical_data": {"Molecular Weight": "", "Molecular Formula": "C11H13N3O.ClH", "Melting Point": "201 \u00b0C"}}