{"cas_no": "22199-08-2", "cn_name": "\u78fa\u80fa\u5627\u5576\u94f6", "en_name": ["Silver sulfadiazine", "Silver, [4-amino-N-(2-pyrimidinyl-\u03baN1)benzenesulfonamidato-\u03baO]-", "Sulfanilamide, N1-2-pyrimidinyl-, monosilver(1+) salt", "Silver, (4-amino-N-2-pyrimidinylbenzenesulfonamidato-NN,O1)-", "Benzenesulfonamide, 4-amino-N-2-pyrimidinyl-, silver complex", "[4-Amino-N-(2-pyrimidinyl-\u03baN1)benzenesulfonamidato-\u03baO]silver", "Silver sulfadiazine", "Silver sulphadiazine", "Flamazine", "Dermazin", "Sulfadiazine silver salt", "Silvadene", "Sulfadiazine silver", "Geben", "Flammazine", "NSC 625324", "Silver 2-sulfanilamidopyrimidine", "Silverol", "Dermazine", "Altreet-Ag", "Physiotulle-Ag", "Silverdin", "Sulfargin", "Thermazene", "Flumazine", "MeSH ID: D012837"], "SMILES": "O=S=1(N=C2[N]([Ag+]O1)=CC=C[N-]2)C3=CC=C(N)C=C3", "physical_data": {"Molecular Weight": "", "Molecular Formula": "C10H9AgN4O2S", "Melting Point": "285-287 \u00b0C"}}