{"cas_no": "2219-51-4", "cn_name": "\u6c18\u4ee3\u4e59\u4e8c\u9187", "en_name": ["1,2-Ethane-1,1,2,2-d4-diol", "1,2-Ethane-1,1,2,2-d4-diol", "Ethylene-d4 glycol", "Ethylene-1,1,2,2-d4 glycol", "1,2-Ethane-d4-diol", "Perdeuterated ethylene glycol"], "SMILES": "C(CO)(O)([2H])[2H]", "physical_data": {"Molecular Weight": "", "Molecular Formula": "C2H2D4O2", "Boiling Point": "86-87 \u00b0C @ Press: 8 Torr", "Density": "1.1894 g/cm\u00b3 @ Temp: 20 \u00b0C"}}