{"cas_no": "2219-82-1", "cn_name": "2-\u53d4\u4e01\u57fa-6-\u7532\u57fa\u82ef\u915a", "en_name": ["2-tert-Butyl-6-methylphenol", "Phenol, 2-(1,1-dimethylethyl)-6-methyl-", "o-Cresol, 6-tert-butyl-", "2-(1,1-Dimethylethyl)-6-methylphenol", "2-tert-Butyl-6-methylphenol", "2-Methyl-6-tert-butylphenol", "6-tert-Butyl-o-cresol", "6-tert-Butyl-2-methylphenol", "4-Hydroxy-3-methyl-5-tert-butylbenzol", "NSC 78461"], "SMILES": "C(C)(C)(C)C1=C(O)C(C)=CC=C1", "physical_data": {"Molecular Weight": "164.24", "Molecular Formula": "C11H16O", "Boiling Point": "230 \u00b0C", "Melting Point": "31 \u00b0C", "Density": "0.9957 g/cm\u00b3 @ Temp: 20 \u00b0C"}}