{"cas_no": "22204-88-2", "cn_name": "\u76d0\u9178\u66f2\u9a6c\u591a", "en_name": ["Tramadol hydrochloride", "Cyclohexanol, 2-[(dimethylamino)methyl]-1-(3-methoxyphenyl)-, hydrochloride (1:1), (1R,2R)-rel-", "Cyclohexanol, 2-[(dimethylamino)methyl]-1-(3-methoxyphenyl)-, hydrochloride, cis-(\u00b1)-", "Cyclohexanol, 2-[(dimethylamino)methyl]-1-(3-methoxyphenyl)-, hydrochloride, (1R,2R)-rel-", "CG 315", "(\u00b1)-trans-2-[(Dimethylamino)methyl]-1-(m-methoxyphenyl)cyclohexanol hydrochloride", "Tramadol hydrochloride", "Tramal", "Cyclohexanol, 2-[(dimethylamino)methyl]-1-(3-methoxyphenyl)-, hydrochloride, cis-", "Zumatran", "Radol", "Bellatram", "Tadol", "Tradol-Puren", "Tramagit", "Tramagetic", "Tramazac", "Topalgic", "Trabar", "Tramed", "Tradonal", "Tridol", "Tramadex", "Tramol", "Dolana", "Mabron", "Ultram", "Adamon", "Contramal", "Tradol", "Omnidol", "cis-Tramadol hydrochloride", "Melanate", "Zydol", "Crispin", "NIH 10969", "Adolonta", "Amadol", "Zydol XL 150", "Poltram", "ULTRAM ER", "Trodon", "Tridural", "Tramundin", "Tramal Retard", "Allapian", "Ira-Tramadol", "Tedamol", "Tramadol-Pharma", "Cemadol", "Viotra", "Dolotram", "Abidol"], "SMILES": "OC1(C(CN(C)C)CCCC1)C2=CC(OC)=CC=C2.Cl", "physical_data": {"Molecular Weight": "", "Molecular Formula": "C16H25NO2.ClH", "Melting Point": "180-181 \u00b0C"}}