{"cas_no": "22205-45-4", "cn_name": "\u786b\u5316\u4e9a\u94dc", "en_name": ["Copper sulfide (Cu2S)", "Copper sulfide (Cu2S)", "Cuprous sulfide", "Dicopper sulfide", "Copper(I) sulfide", "Dicopper monosulfide", "Cuprous sulfide (Cu2S)", "Austro Tecc CB 500", "Copper sulfide (Cu0.67S0.33)", "Copper sulfide (CuS0.5)"], "SMILES": "S([Cu])[Cu]", "physical_data": {"Molecular Weight": "", "Molecular Formula": "Cu2S", "Melting Point": "1100 \u00b0C"}}