{"cas_no": "22204-53-1", "cn_name": "\u8418\u666e\u751f", "en_name": ["Naproxen", "2-Naphthaleneacetic acid, 6-methoxy-\u03b1-methyl-, (\u03b1S)-", "2-Naphthaleneacetic acid, 6-methoxy-\u03b1-methyl-, (+)-", "2-Naphthaleneacetic acid, 6-methoxy-\u03b1-methyl-, (S)-", "(\u03b1S)-6-Methoxy-\u03b1-methyl-2-naphthaleneacetic acid", "(+)-2-(6-Methoxy-2-naphthyl)propionic acid", "Naproxen", "(+)-6-Methoxy-\u03b1-methyl-2-naphthaleneacetic acid", "d-2-(6-Methoxy-2-naphthyl)propionic acid", "d-Naproxen", "CG 3117", "Naprosyn", "Equiproxen", "Naixan", "(+)-Naproxen", "(S)-(+)-Naproxen", "(S)-Naproxen", "(+)-(S)-Naproxen", "(S)-2-(6-Methoxy-2-naphthyl)propionic acid", "(S)-(+)-2-(6-Methoxy-2-naphthyl)propionic acid", "(S)-6-Methoxy-\u03b1-methyl-2-naphthaleneacetic acid", "(S)-2-(6-Methoxy-2-naphthyl)propanoic acid", "(S)-(+)-Naproxene", "Apo-Naproxen", "Diocodal", "RS 3540", "Laraflex", "Naprosyne", "Naxen", "MNPA", "Naprux", "Laser", "Bonyl", "Napren", "Floginax", "Veradol", "Proxen", "Panoxen", "Proxine", "Xenar", "Dysmenalgit", "Reuxen", "Nycopren", "Prexan", "Naprium", "Naprius", "(S)-\u03b1-Methyl-6-methoxynaphthalene-2-acetic acid", "Aproxen", "(S)-2-(6-Methoxynaphthalen-2-yl)propionic acid", "(S)-2-(6-Methoxynaphthalen-2-yl)propanoic acid", "Xenar-CR", "(2S)-2-(6-Methoxy-2-naphthyl)propanoic acid", "(+)-(S)-2-(6-Methoxynaphthalen-2-yl)propanoic acid", "(2S)-2-(6-Methoxynaphthalen-2-yl)propanoic acid", "EC-Naprosyn", "MeSH ID: D009288"], "SMILES": "C(C(O)=O)(C)C1=CC2=C(C=C(OC)C=C2)C=C1", "physical_data": {"Molecular Weight": "230.26", "Molecular Formula": "C14H14O3", "Melting Point": "152-154 \u00b0C", "Density": "1.24 g/cm\u00b3"}}