{"cas_no": "22204-89-3", "cn_name": "4-\u7f9f\u57fa-N,N-\u4e8c\u4e59\u57fa\u8272\u80fa", "en_name": ["4-Hydroxy-N,N-diethyltryptamine", "1H-Indol-4-ol, 3-[2-(diethylamino)ethyl]-", "Indol-4-ol, 3-[2-(diethylamino)ethyl]-", "3-[2-(Diethylamino)ethyl]-1H-indol-4-ol", "4-Hydroxy-N,N-diethyltryptamine", "3-(2-Diethylaminoethyl)indol-4-ol", "CZ 74"], "SMILES": "C(CN(CC)CC)C=1C=2C(NC1)=CC=CC2O", "physical_data": {"Molecular Weight": "232.32", "Molecular Formula": "C14H20N2O", "Melting Point": "104-106 \u00b0C"}}