{"cas_no": "2221-00-3", "cn_name": "4-(\u54aa\u5511-1-\u57fa)\u82ef\u80fa", "en_name": ["4-(1H-Imidazol-1-yl)aniline", "Benzenamine, 4-(1H-imidazol-1-yl)-", "Imidazole, 1-(p-aminophenyl)-", "4-(1H-Imidazol-1-yl)benzenamine", "1-(p-Aminophenyl)imidazole", "1-(4-Aminophenyl)imidazole", "4-(1-Imidazolyl)aniline", "1-(4-Aminophenyl)-1H-imidazole", "4-[Imidazol-1-yl]phenylamine", "(4-Imidazolylphenyl)amine", "NSC 266462", "4-(1H-Imidazol-1-yl)aniline"], "SMILES": "NC1=CC=C(C=C1)N2C=CN=C2", "physical_data": {"Molecular Weight": "159.19", "Molecular Formula": "C9H9N3", "Melting Point": "141-143 \u00b0C"}}