{"cas_no": "22223-49-0", "cn_name": "2-\u6c28\u57fa-3-\u7532\u57fa\u82ef\u7532\u9178\u7532\u916f", "en_name": ["Benzoic acid, 2-amino-3-methyl-, methyl ester", "Benzoic acid, 2-amino-3-methyl-, methyl ester", "m-Toluic acid, 2-amino-, methyl ester", "2-Carbomethoxy-6-methylaniline", "3-Methylanthranilic acid methyl ester", "Methyl 3-methylanthranilate", "Methyl 2-amino-3-methylbenzoate", "2-Amino-3-methyl-benzoic acid methyl ester"], "SMILES": "C(OC)(=O)C1=C(N)C(C)=CC=C1", "physical_data": {"Molecular Weight": "165.19", "Molecular Formula": "C9H11NO2", "Boiling Point": "83 \u00b0C @ Press: 0.05 Torr"}}