{"cas_no": "22224-92-6", "cn_name": "\u82ef\u7ebf\u78f7", "en_name": ["Fenamiphos", "Phosphoramidic acid, N-(1-methylethyl)-, ethyl 3-methyl-4-(methylthio)phenyl ester", "Phosphoramidic acid, isopropyl-, ethyl 4-(methylthio)-m-tolyl ester", "Phosphoramidic acid, (1-methylethyl)-, ethyl 3-methyl-4-(methylthio)phenyl ester", "B 68138", "Ethyl 4-(methylthio)-m-tolyl isopropylphosphoramidate", "BAY 68138", "Bayer 68138", "Nemacur P", "Nemacur", "Phenamiphos", "Ethyl 3-methyl-4-(methylthio)phenyl (1-methylethyl)phosphoramidate", "Fenamiphos", "Fenamifos", "Fenamithion"], "SMILES": "P(OC1=CC(C)=C(SC)C=C1)(NC(C)C)(OCC)=O", "physical_data": {"Molecular Weight": "303.36", "Molecular Formula": "C13H22NO3PS", "Melting Point": "49.2 \u00b0C", "Density": "1.191 g/cm\u00b3 @ Temp: 23 \u00b0C"}}