{"cas_no": "2222-33-5", "cn_name": "5-\u4e8c\u82ef\u5e76\u73af\u5e9a\u70ef\u916e", "en_name": ["Dibenzo[a,d]cyclohepten-5-one", "5H-Dibenzo[a,d]cyclohepten-5-one", "2,3:6,7-Dibenzotropone", "Dibenzo[a,d]cyclohepten-5-one", "5H-Dibenzo[a,d]cycloheptenone", "Dibenzosuberenone", "5-Dibenzosuberenone", "NSC 86151", "Didehydrodibenzosuberone"], "SMILES": "O=C1C=2C(C=CC=3C1=CC=CC3)=CC=CC2", "physical_data": {"Molecular Weight": "206.24", "Molecular Formula": "C15H10O", "Boiling Point": "220 \u00b0C @ Press: 8 Torr", "Melting Point": "88.4-89.2 \u00b0C"}}