{"cas_no": "22224-41-5", "cn_name": "1,3,5-\u4e09\u82ef\u7532\u9170\u57fa-D-\u544b\u5583\u6838\u7cd6", "en_name": ["\u03b1-D-Ribofuranose, 1,3,5-tribenzoate", "\u03b1-D-Ribofuranose, 1,3,5-tribenzoate", "Ribofuranose, 1,3,5-tribenzoate", "1,3,5-Tri-O-benzoyl-\u03b1-D-ribofuranose", "\u03b1-D-1,3,5-Tri-O-benzoyl-ribofuranose"], "SMILES": "O(C(=O)C1=CC=CC=C1)C2C(COC(=O)C3=CC=CC=C3)OC(OC(=O)C4=CC=CC=C4)C2O", "physical_data": {"Molecular Weight": "462.45", "Molecular Formula": "C26H22O8", "Melting Point": "139-142 \u00b0C"}}