{"cas_no": "22227-26-5", "cn_name": "3,5-\u53cc\u4e09\u6c1f\u7532\u57fa\u82ef\u7532\u9170\u80fa", "en_name": ["3,5-Bis(trifluoromethyl)benzamide", "Benzamide, 3,5-bis(trifluoromethyl)-", "3,5-Bis(trifluoromethyl)benzamide", "3,5-Ditrifluoromethylbenzamide"], "SMILES": "C(F)(F)(F)C1=CC(C(F)(F)F)=CC(C(N)=O)=C1", "physical_data": {"Molecular Weight": "257.13", "Molecular Formula": "C9H5F6NO", "Melting Point": "181-183 \u00b0C"}}