{"cas_no": "22235-81-0", "cn_name": "\u5f02\u4e19\u6258\u54c1\u6742\u8d28E", "en_name": ["N-Isopropylnoratropine", "Benzeneacetic acid, \u03b1-(hydroxymethyl)-, (3-endo)-8-(1-methylethyl)-8-azabicyclo[3.2.1]oct-3-yl ester", "1\u03b1H,5\u03b1H-Nortropan-3\u03b1-ol, 8-isopropyl-, (\u00b1)-tropate (ester)", "Benzeneacetic acid, \u03b1-(hydroxymethyl)-, 8-(1-methylethyl)-8-azabicyclo[3.2.1]oct-3-yl ester, endo-(\u00b1)-", "Benzeneacetic acid, \u03b1-(hydroxymethyl)-, 8-(1-methylethyl)-8-azabicyclo[3.2.1]oct-3-yl ester, endo-", "Tropic acid, 8-isopropyl-3\u03b1-nortropanyl ester", "N-Isopropylnoratropine"], "SMILES": "C(C)(C)N1C2CC(OC(C(CO)C3=CC=CC=C3)=O)CC1CC2", "physical_data": {"Molecular Weight": "317.42", "Molecular Formula": "C19H27NO3", "Melting Point": "114-116 \u00b0C"}}