{"cas_no": "22232-71-9", "cn_name": "\u9a6c\u5432\u54da", "en_name": ["Mazindol", "3H-Imidazo[2,1-a]isoindol-5-ol, 5-(4-chlorophenyl)-2,5-dihydro-", "3H-Imidazo[2,1-a]isoindol-5-ol, 5-(p-chlorophenyl)-2,5-dihydro-", "5-(4-Chlorophenyl)-2,5-dihydro-3H-imidazo[2,1-a]isoindol-5-ol", "5-Hydroxy-5-p-chlorophenyl-2,3-dihydro-5H-imidazo[2,1-a]isoindole", "Mazindol", "5-(p-Chlorophenyl)-5-hydroxy-2,3-dihydro-5H-imidazo[2,1-a]isoindole", "5-(p-Chlorophenyl)-2,5-dihydro-3H-imidazo[2,1-a]isoindol-5-ol", "5-(4-Chlorophenyl)-2,3-dihydro-5-hydroxy-5H-imidazo[2,1-a]isoindole", "SaH 42548", "Sanorex", "5-(p-Chlorophenyl)-2,3-dihydro-5H-imidazo[2,1-a]isoindol-5-ol", "AN 448", "Teronac", "Mazildene", "Magrilon", "Mazanor", "Terenac", "MeSH ID: D008454"], "SMILES": "OC1(N2C(C=3C1=CC=CC3)=NCC2)C4=CC=C(Cl)C=C4", "physical_data": {"Molecular Weight": "284.74", "Molecular Formula": "C16H13ClN2O", "Melting Point": "198-199 \u00b0C"}}