{"cas_no": "22236-11-9", "cn_name": "N-(4-\u4e8c\u6c1f\u7532\u6c27\u57fa\u82ef\u57fa)\u4e59\u9170\u80fa", "en_name": ["N-[4-(Difluoromethoxy)phenyl]acetamide", "Acetamide, N-[4-(difluoromethoxy)phenyl]-", "p-Acetanisidide, \u03b1,\u03b1-difluoro-", "N-[4-(Difluoromethoxy)phenyl]acetamide", "N-(4-Difluoromethoxyphenyl)acetamide", "4-Difluoromethoxyacetanilide"], "SMILES": "N(C(C)=O)C1=CC=C(OC(F)F)C=C1", "physical_data": {"Molecular Weight": "201.17", "Molecular Formula": "C9H9F2NO2", "Melting Point": "109-111 \u00b0C"}}