{"cas_no": "22232-54-8", "cn_name": "\u5361\u6bd4\u5417\u5511", "en_name": ["Carbimazole", "1H-Imidazole-1-carboxylic acid, 2,3-dihydro-3-methyl-2-thioxo-, ethyl ester", "4-Imidazoline-1-carboxylic acid, 3-methyl-2-thioxo-, ethyl ester", "Tyrazol", "Carbimazole", "1-Ethoxycarbonyl-3-methyl-2-thio-4-imidazoline", "Ethyl 3-methyl-2-thioimidazoline-1-carboxylate", "1-Methyl-3-carbethoxy-2-thioglyoxalone", "Athyromazole", "CG 1", "3-Carbethoxymercapto-1-methylimidazole", "Carbethoxymethimazole", "3-Carbethoxythio-1-methylglyoxaline", "3-Carbethoxythio-1-methyliminazole", "Neomercazole", "Ethyl 3-methyl-2-thioxo-\u03944-imidazoline-1-carboxylate", "Basolest", "Carbimazol", "Neo-Thyreostat"], "SMILES": "C(OCC)(=O)N1C(=S)N(C)C=C1", "physical_data": {"Molecular Weight": "186.23", "Molecular Formula": "C7H10N2O2S", "Melting Point": "123.5 \u00b0C"}}