{"cas_no": "22236-45-9", "cn_name": "S,S-\u4e8c\u7532\u57fa-N-(\u5bf9\u7532\u82ef\u78fa\u9170\u57fa)\u78fa\u57fa\u809f", "en_name": ["N-(Dimethyloxido-\u03bb4-sulfanylidene)-4-methylbenzenesulfonamide", "Benzenesulfonamide, N-(dimethyloxido-\u03bb4-sulfanylidene)-4-methyl-", "Sulfoximine, S,S-dimethyl-N-(p-tolylsulfonyl)-", "Sulfoximine, S,S-dimethyl-N-[(4-methylphenyl)sulfonyl]-", "N-(Dimethyloxido-\u03bb4-sulfanylidene)-4-methylbenzenesulfonamide", "NSC 202395", "S,S-Dimethyl-N-(p-tolylsulfonyl)sulfoximine"], "SMILES": "S(N=S(C)(C)=O)(=O)(=O)C1=CC=C(C)C=C1", "physical_data": {"Molecular Weight": "247.33", "Molecular Formula": "C9H13NO3S2", "Melting Point": "168 \u00b0C"}}