{"cas_no": "2223-82-7", "cn_name": "\u65b0\u620a\u4e8c\u9187\u4e8c\u4e19\u70ef\u9178\u916f", "en_name": ["Neopentyl glycol diacrylate", "2-Propenoic acid, 1,1\u2032-(2,2-dimethyl-1,3-propanediyl) ester", "Acrylic acid, 2,2-dimethyltrimethylene ester", "2-Propenoic acid, 2,2-dimethyl-1,3-propanediyl ester", "1,3-Propanediol, 2,2-dimethyl-, diacrylate", "2,2-Dimethyltrimethylene acrylate", "Sartomer SR 247", "Dimethylolpropane diacrylate", "2,2-Dimethylpropane-1,3-diol diacrylate", "Neopentyl glycol diacrylate", "Neopentanediol diacrylate", "NK Ester A-NPG", "Kayarad NPGDA", "Viscoat 247", "NPGDA", "Viscoat 215", "2,2-Dimethylpropanediol diacrylate", "Light Acrylate ND-A", "Light Acrylate NP-A", "Sartomer 247", "NSC 97407", "A-NPG", "NP-A", "Etermer EM 225", "EM 225", "SR 247", "(2,2-Dimethyl-3-prop-2-enoyloxypropyl) prop-2-enoate", "2,2-Dimethylpropane-1,3-diyl diacrylate", "A 17770", "EM 325", "LM 255"], "SMILES": "C(C(COC(C=C)=O)(C)C)OC(C=C)=O", "physical_data": {"Molecular Weight": "212.24", "Molecular Formula": "C11H16O4", "Boiling Point": "96 \u00b0C @ Press: 0.98 Torr", "Melting Point": "6 \u00b0C", "Density": "1.0 g/cm\u00b3"}}