{"cas_no": "2224-15-9", "cn_name": "\u4e59\u4e8c\u9187\u4e8c\u7f29\u6c34\u7518\u6cb9\u919a", "en_name": ["Glycol diglycidyl ether", "Oxirane, 2,2\u2032-[1,2-ethanediylbis(oxymethylene)]bis-", "Ethane, 1,2-bis(2,3-epoxypropoxy)-", "2,2\u2032-[1,2-Ethanediylbis(oxymethylene)]bis[oxirane]", "Ethylene glycol bis(glycidyl ether)", "Glycol diglycidyl ether", "Ethylene glycol diglycidyl ether", "1,2-Bis(2,3-epoxypropoxy)ethane", "1,2-Bis(glycidyloxy)ethane", "Ethylene diglycidyl ether", "1,2-Diglycidyloxyethane", "Diglycidylethylene glycol", "Ethylene glycol bis(2,3-epoxypropyl) ether", "1,2-Ethanediol diglycidyl ether", "1,2:9,10-Diepoxy-4,7-dioxadecane", "1,2-Bis(2,3-epoxypropyloxy)ethane", "NSC 54740", "1,2-Bis(2,3-epoxypropyloxy)ethylene", "2,2\u2032-[Ethane-1,2-diylbis(oxymethanediyl)]dioxirane", "1,2-Bis(oxiran-2-ylmethoxy)ethane", "2-[[2-(Oxiran-2-ylmethoxy)ethoxy]methyl]oxirane", "2-[2-(Oxiran-2-ylmethoxy)ethoxymethyl]oxirane", "R 007168", "B 38399B"], "SMILES": "C(OCCOCC1CO1)C2CO2", "physical_data": {"Molecular Weight": "174.19", "Molecular Formula": "C8H14O4", "Boiling Point": "119 \u00b0C @ Press: 2-3 Torr", "Density": "1.1182 g/cm\u00b3 @ Temp: 30 \u00b0C"}}