{"cas_no": "22246-13-5", "cn_name": "6-\u6c28\u57fa-3,4-\u4e8c\u6c22-2(1H)-\u55b9\u5549\u916e", "en_name": ["6-Amino-3,4-dihydroquinolin-2(1H)-one", "2(1H)-Quinolinone, 6-amino-3,4-dihydro-", "Carbostyril, 6-amino-3,4-dihydro-", "6-Amino-3,4-dihydro-2(1H)-quinolinone", "6-Amino-3,4-dihydrocarbostyril", "6-Amino-1,3,4-trihydroquinolin-2-one", "6-Amino-3,4-dihydro-1H-quinolin-2-one", "6-Amino-3,4-dihydroquinolin-2(1H)-one", "6-Amino-3,4-dihydroquinoline-2(1H)-one"], "SMILES": "NC=1C=C2C(NC(=O)CC2)=CC1", "physical_data": {"Molecular Weight": "162.19", "Molecular Formula": "C9H10N2O", "Melting Point": "174-176 \u00b0C"}}