{"cas_no": "2224-52-4", "cn_name": "(S)-4-\u7532\u57fa\u5511\u70f7-2,5-\u4e8c\u916e", "en_name": ["Alanine N-carboxyanhydride", "2,5-Oxazolidinedione, 4-methyl-, (4S)-", "2,5-Oxazolidinedione, 4-methyl-, L-", "2,5-Oxazolidinedione, 4-methyl-, (S)-", "(4S)-4-Methyl-2,5-oxazolidinedione", "N-Carboxyalanine anhydride", "Alanine N-carboxyanhydride", "N-Carboxy-L-alanine anhydride", "N-Carboxy-L-alanine N-carboxy anhydride", "L-4-Methyl-2,5-oxazolidinedione", "L-Alanine N-carboxyanhydride", "(S)-4-Methyl-2,5-oxazolidinedione", "(4S)-4-Methyl-1,3-oxazolidine-2,5-dione", "L-Alanine-N-carboxyl anhydride"], "SMILES": "CC1C(=O)OC(=O)N1", "physical_data": {"Molecular Weight": "115.09", "Molecular Formula": "C4H5NO3", "Melting Point": "90-92 \u00b0C"}}