{"cas_no": "2224-10-4", "cn_name": "4-\u7fa7\u57fa\u7532\u82ef\u78fa\u4e01\u8132", "en_name": ["Carboxytolbutamide", "Benzoic acid, 4-[[[(butylamino)carbonyl]amino]sulfonyl]-", "Benzoic acid, p-[(butylcarbamoyl)sulfamoyl]-", "4-[[[(Butylamino)carbonyl]amino]sulfonyl]benzoic acid", "Carboxytolbutamide", "Carboxycarbutamide", "Tolbutamide carboxylic acid", "1-Butyl-3-(p-carboxyphenyl)sulfonylurea"], "SMILES": "S(NC(NCCCC)=O)(=O)(=O)C1=CC=C(C(O)=O)C=C1", "physical_data": {"Molecular Weight": "300.33", "Molecular Formula": "C12H16N2O5S", "Melting Point": "211 \u00b0C"}}