{"cas_no": "22248-79-9", "cn_name": "\u6740\u866b\u754f", "en_name": ["Tetrachlorvinphos", "Phosphoric acid, (1Z)-2-chloro-1-(2,4,5-trichlorophenyl)ethenyl dimethyl ester", "Phosphoric acid, 2-chloro-1-(2,4,5-trichlorophenyl)ethenyl dimethyl ester, (Z)-", "Phosphoric acid, 2-chloro-1-(2,4,5-trichlorophenyl)vinyl dimethyl ester, (Z)-", "Tetrachlorvinphos", "Rabon", "Stirophos", "Gardona", "Stirofos", "SD 8447", "CVMP", "Vinfos", "Rabond", "cis-Gardona", "(Z)-Tetrachlorovinphos", "Tetrachlorvinfos", "Debantic", "Stitifos", "Gardicide", "MeSH ID: D013751"], "SMILES": "C(OP(OC)(OC)=O)(=CCl)C1=C(Cl)C=C(Cl)C(Cl)=C1", "physical_data": {"Molecular Weight": "365.96", "Molecular Formula": "C10H9Cl4O4P", "Melting Point": "97-98 \u00b0C"}}