{"cas_no": "22246-16-8", "cn_name": "6-\u785d\u57fa-3,4-\u4e8c\u6c22-2(1H)-\u55b9\u5549\u916e", "en_name": ["3,4-Dihydro-6-nitro-2(1H)-quinolinone", "2(1H)-Quinolinone, 3,4-dihydro-6-nitro-", "Carbostyril, 3,4-dihydro-6-nitro-", "3,4-Dihydro-6-nitro-2(1H)-quinolinone", "6-Nitro-1,2,3,4-tetrahydrochinolin-2-one", "6-Nitro-1,3,4-trihydroquinolin-2-one", "6-Nitro-3,4-dihydro-1H-quinolin-2-one", "6-Nitro-3,4-dihydroquinolin-2(1H)-one"], "SMILES": "N(=O)(=O)C=1C=C2C(NC(=O)CC2)=CC1", "physical_data": {"Molecular Weight": "192.17", "Molecular Formula": "C9H8N2O3", "Melting Point": "202-205 \u00b0C"}}