{"cas_no": "22244-22-0", "cn_name": "3,4-DIHYDRO-2H-BENZO[1,4]OXAZINE-2-CARBOXYLIC ACID ETHYL ESTER", "en_name": ["Ethyl 3,4-dihydro-2H-1,4-benzoxazine-2-carboxylate", "2H-1,4-Benzoxazine-2-carboxylic acid, 3,4-dihydro-, ethyl ester", "Ethyl 3,4-dihydro-2H-1,4-benzoxazine-2-carboxylate", "3,4-Dihydro-2H-1,4-benzoxazine-2-carboxylic acid ethyl ester", "Ethyl 3,4-dihydro-2H-benzo[b][1,4]oxazine-2-carboxylate"], "SMILES": "C(OCC)(=O)C1OC=2C(NC1)=CC=CC2", "physical_data": {"Molecular Weight": "207.23", "Molecular Formula": "C11H13NO3", "Boiling Point": "131-133 \u00b0C @ Press: 760 Torr"}}