{"cas_no": "2224-02-4", "cn_name": "1,2-\u4e8c\u567b\u620a\u73af-4-\u7fa7\u9178", "en_name": ["1,2-Dithiolane-4-carboxylic acid", "1,2-Dithiolane-4-carboxylic acid", "Ph 800/21", "1,2-Dithiacyclopentane-4-carboxylic acid", "Asparagusic acid"], "SMILES": "C(O)(=O)C1CSSC1", "physical_data": {"Molecular Weight": "150.22", "Molecular Formula": "C4H6O2S2", "Melting Point": "76.5-77.5 \u00b0C"}}