{"cas_no": "22246-05-5", "cn_name": "3,4-\u4e8c\u6c22-7-\u7f9f\u57fa-1(2H)-\u5f02\u55b9\u5549\u916e", "en_name": ["3,4-Dihydro-7-hydroxy-1(2H)-isoquinolinone", "1(2H)-Isoquinolinone, 3,4-dihydro-7-hydroxy-", "Isocarbostyril, 3,4-dihydro-7-hydroxy-", "3,4-Dihydro-7-hydroxy-1(2H)-isoquinolinone", "7-Hydroxy-3,4-dihydro-2H-isoquinolin-1-one", "7-Hydroxy-3,4-dihydroisoquinolin-1(2H)-one"], "SMILES": "O=C1C=2C(=CC=C(O)C2)CCN1", "physical_data": {"Molecular Weight": "163.17", "Molecular Formula": "C9H9NO2", "Melting Point": "204-206 \u00b0C"}}