{"cas_no": "2224-33-1", "cn_name": "\u4e59\u70ef\u57fa\u4e09\u4e01\u916e\u809f\u57fa\u7845\u70f7", "en_name": ["Vinyltris(methylethylketoxime)silane", "2-Butanone, 2,2\u2032,2\u2032\u2032-[O,O\u2032,O\u2032\u2032-(ethenylsilylidyne)trioxime]", "2-Butanone, O,O\u2032,O\u2032\u2032-(ethenylsilylidyne)trioxime", "2-Butanone, O,O\u2032,O\u2032\u2032-(vinylsilylidyne)trioxime", "Silane, tris[(sec-butylideneamino)oxy]vinyl-", "Vinyltris[(2-butylidene)aminooxy]silane", "Tris(sec-butylideneaminooxy)vinylsilane", "Vinyltris(methylethylketoxime)silane", "Tris(ethylmethylketoximato)vinylsilane", "Vinyltris(2-butanoneoximato)silane", "Vinyltris(methylethylketoximato)silane", "Vinyltri(methylethylketoximo)silane", "Vinyltrisbutanoximesilane", "Vinyltri(methyl ethyl ketoximino)silane", "Vinyltri(methylethylketoxime)silane", "Vinyltris(methyl ethyl ketoximino)silane", "OX 20", "OX 20 (oxime)", "SIV 9280.0", "Vinyltris(ethylmethylketoxime)silane", "D 90", "VTO(VOS)", "Xinlantian D 91", "D 91", "Product 119-54", "BCA 100"], "SMILES": "[Si](ON=C(CC)C)(ON=C(CC)C)(ON=C(CC)C)C=C", "physical_data": {"Molecular Weight": "313.47", "Molecular Formula": "C14H27N3O3Si", "Boiling Point": "113 \u00b0C @ Press: 0.1 Torr", "Melting Point": "-22 \u00b0C", "Density": "0.982 g/cm\u00b3 @ Temp: 25 \u00b0C"}}