{"cas_no": "22245-96-1", "cn_name": "7-\u785d\u57fa-\u4e8c\u6c22\u5f02\u55b9\u5549-2-\u916e", "en_name": ["7-Nitro-3,4-dihydro-2H-isoquinolin-1-one", "1(2H)-Isoquinolinone, 3,4-dihydro-7-nitro-", "Isocarbostyril, 3,4-dihydro-7-nitro-", "3,4-Dihydro-7-nitro-1(2H)-isoquinolinone", "7-Nitro-3,4-dihydroisocarbostyril", "7-Nitro-3,4-dihydro-2H-isoquinolin-1-one", "7-Nitro-2,3,4-trihydroisoquinolin-1-one", "7-Nitro-3,4-dihydroisoquinolin-1(2H)-one"], "SMILES": "O=C1C=2C(=CC=C(N(=O)=O)C2)CCN1", "physical_data": {"Molecular Weight": "192.17", "Molecular Formula": "C9H8N2O3", "Melting Point": "225-230 \u00b0C"}}