{"cas_no": "2224-00-2", "cn_name": "1-\u620a\u70ef-3-\u7094", "en_name": ["2-Ethoxy-1-naphthalenecarboxylic acid", "1-Naphthalenecarboxylic acid, 2-ethoxy-", "1-Naphthoic acid, 2-ethoxy-", "2-Ethoxy-1-naphthalenecarboxylic acid", "2-Ethoxy-1-naphthoic acid", "2-Ethoxynaphthalene-1-carboxylic acid"], "SMILES": "C(O)(=O)C=1C2=C(C=CC1OCC)C=CC=C2", "physical_data": {"Molecular Weight": "216.23", "Molecular Formula": "C13H12O3", "Melting Point": "147 \u00b0C"}}