{"cas_no": "22246-18-0", "cn_name": "3,4-\u4e8c\u6c22-7-\u7f9f\u57fa-2(1H)-\u55b9\u5549\u916e", "en_name": ["7-Hydroxy-3,4-dihydro-2(1H)-quinolinone", "2(1H)-Quinolinone, 3,4-dihydro-7-hydroxy-", "Carbostyril, 3,4-dihydro-7-hydroxy-", "Hydrocarbostyril, 7-hydroxy-", "3,4-Dihydro-7-hydroxy-2(1H)-quinolinone", "7-Hydroxy-1,2,3,4-tetrahydro-2-quinolinone", "7-Hydroxy-3,4-dihydrocarbostyril", "7-Hydroxy-3,4-dihydro-2(1H)-quinolinone", "7-Hydroxy-3,4-dihydro-1H-quinolin-2-one", "3,4-Dihydro-7-hydroxy-2(1 H)-quinoline", "3,4-Dihydro-quinoline-2,7-diol", "3,4-Dihydroquinoline-2,7-diol"], "SMILES": "OC=1C=C2C(CCC(=O)N2)=CC1", "physical_data": {"Molecular Weight": "163.17", "Molecular Formula": "C9H9NO2", "Melting Point": "230 \u00b0C"}}