{"cas_no": "22254-24-6", "cn_name": "\u5f02\u4e19\u6258\u6eb4\u94f5", "en_name": ["Ipratropium bromide", "8-Azoniabicyclo[3.2.1]octane, 3-(3-hydroxy-1-oxo-2-phenylpropoxy)-8-methyl-8-(1-methylethyl)-, bromide (1:1), (3-endo,8-syn)-", "1\u03b1H,5\u03b1H-Tropanium, 3\u03b1-hydroxy-8-isopropyl-, bromide, (\u00b1)-tropate", "8-Azoniabicyclo[3.2.1]octane, 3-(3-hydroxy-1-oxo-2-phenylpropoxy)-8-methyl-8-(1-methylethyl)-, bromide, (endo,syn)-(\u00b1)-", "8-Isopropylatropinium bromide", "8-Azoniabicyclo[3.2.1]octane, 3-(3-hydroxy-1-oxo-2-phenylpropoxy)-8-methyl-8-(1-methylethyl)-, bromide, (3-endo,8-syn)-", "Sch 1000", "Atrovent", "Ipratropium bromide", "N-Isopropylatropinium bromide", "8-Azoniabicyclo[3.2.1]octane, 3-(3-hydroxy-1-oxo-2-phenylpropoxy)-8-methyl-8-(1-methylethyl)-, bromide, (endo,syn)-", "Sch 100", "N-Isopropylnoratropinium bromomethylate", "Atrovent forte", "Aerovent", "Ipraxa"], "SMILES": "C(C)(C)[N+]1(C)C2CC(OC(C(CO)C3=CC=CC=C3)=O)CC1CC2.[Br-]", "physical_data": {"Molecular Weight": "", "Molecular Formula": "C20H30NO3.Br", "Melting Point": "231 \u00b0C"}}