{"cas_no": "22255-22-7", "cn_name": "3,4',5-\u4e09\u7532\u6c27\u57fa-\u53cd-\u4e8c\u82ef\u4ee3\u4e59\u70ef", "en_name": ["Resveratrol trimethyl ether", "Benzene, 1,3-dimethoxy-5-[(1E)-2-(4-methoxyphenyl)ethenyl]-", "Stilbene, 3,4\u2032,5-trimethoxy-, (E)-", "Benzene, 1,3-dimethoxy-5-[2-(4-methoxyphenyl)ethenyl]-, (E)-", "1,3-Dimethoxy-5-[(1E)-2-(4-methoxyphenyl)ethenyl]benzene", "3,4\u2032,5-Trimethoxy-trans-stilbene", "Resveratrol trimethyl ether", "Tri-O-methylresveratrol", "(E)-3,5,4\u2032-Trimethoxystilbene", "3,5,4\u2032-Trimethoxy-trans-stilbene", "(E)-1-(4-Methoxyphenyl)-2-(3,5-dimethoxyphenyl)ethene", "(E)-2-(3,5-Dimethoxyphenyl)-1-(4-methoxyphenyl)ethene", "(E)-1,3-Dimethoxy-5-(4-methoxystyryl)benzene", "(E)-3,4\u2032,5-Trimethoxystilbene", "trans-Trimethoxyresveratrol", "BTM 0512"], "SMILES": "C(=CC1=CC=C(OC)C=C1)C2=CC(OC)=CC(OC)=C2", "physical_data": {"Molecular Weight": "270.32", "Molecular Formula": "C17H18O3", "Melting Point": "55-57 \u00b0C"}}