{"cas_no": "22252-43-3", "cn_name": "7-\u6c28\u57fa-3-\u7532\u57fa-8-\u6c27\u4ee3-5-\u786b\u6742-1-\u6c2e\u6742\u53cc\u73af[4.2.0]\u8f9b-2-\u70ef-2-\u7532\u9178", "en_name": ["7-Aminodeacetoxycephalosporanic acid", "5-Thia-1-azabicyclo[4.2.0]oct-2-ene-2-carboxylic acid, 7-amino-3-methyl-8-oxo-, (6R,7R)-", "5-Thia-1-azabicyclo[4.2.0]oct-2-ene-2-carboxylic acid, 7-amino-3-methyl-8-oxo-", "5-Thia-1-azabicyclo[4.2.0]oct-2-ene-2-carboxylic acid, 7-amino-3-methyl-8-oxo-, (6R-trans)-", "(6R,7R)-7-Amino-3-methyl-8-oxo-5-thia-1-azabicyclo[4.2.0]oct-2-ene-2-carboxylic acid", "7-Amino-3-methyl-3-cephem-4-carboxylic acid", "3-Methyl-7-amino-\u03943-cephem-4-carboxylic acid", "7\u03b2-Amino-3-methylceph-3-em-4-carboxylic acid", "7-Aminodeacetoxycephalosporanic acid", "7-Amino-3-deacetoxycephalosporanic acid", "7-Amino-3-methyl-\u03943-cephan-4-carboxylic acid", "7-Amino-3-methyl-3-cephen-4-carboxylic acid", "7-Aminodesacetoxycephalosporanic acid", "7-Aminodeacetoxycephalexanic acid", "7-\u03b2-Amino-3-methyl-3-cephem-4-carboxylic acid", "Deacetoxycephalosporanic acid", "3-Methyl-7-aminoceph-3-em-4-carboxylic acid", "7-Amino-3-desacetoxycephalosporanic acid", "7-Amino-3-methyl-\u03943-cephem-4-carboxylic acid", "7-ADCA", "7-Amino-3-methylcephalosporanic acid"], "SMILES": "C(O)(=O)C=1N2C(C(N)C2=O)SCC1C", "physical_data": {"Molecular Weight": "214.24", "Molecular Formula": "C8H10N2O3S", "Melting Point": "228-231 \u00b0C (decomp)"}}