{"cas_no": "2225-23-2", "cn_name": "\u4e8c(\u5bf9-\u7532\u82ef\u78fa\u9178)1,2-\u4e59\u4e8c\u786b\u9187\u916f[\u6d3b\u6cfc\u4e9a\u7532\u57fa\u7684\u4fdd\u62a4\u8bd5\u5242]", "en_name": ["Benzenesulfonothioic acid, 4-methyl-, S1,S1\u2032-1,2-ethanediyl ester", "Benzenesulfonothioic acid, 4-methyl-, S1,S1\u2032-1,2-ethanediyl ester", "p-Toluenesulfonic acid, thio-, S,S\u2032-ethylene ester", "Benzenesulfonothioic acid, 4-methyl-, S,S\u2032-1,2-ethanediyl ester", "p-Toluenesulfonic acid, thio-, S,S-ethylene ester", "1,2-Ethanedithiol, di-p-toluenesulfonate"], "SMILES": "S(SCCSS(=O)(=O)C1=CC=C(C)C=C1)(=O)(=O)C2=CC=C(C)C=C2", "physical_data": {"Molecular Weight": "402.57", "Molecular Formula": "C16H18O4S4", "Melting Point": "76 \u00b0C"}}