{"cas_no": "222530-33-8", "cn_name": "\u987a-3-(\u53d4\u4e01\u6c27\u7fa7\u6c28\u57fa)\u73af\u5df1\u57fa\u7532\u9178", "en_name": ["rel-(1R,3S)-3-[[(1,1-Dimethylethoxy)carbonyl]amino]cyclohexanecarboxylic acid", "Cyclohexanecarboxylic acid, 3-[[(1,1-dimethylethoxy)carbonyl]amino]-, (1R,3S)-rel-", "rel-(1R,3S)-3-[[(1,1-Dimethylethoxy)carbonyl]amino]cyclohexanecarboxylic acid", "rel-(1R,3S)-3-[(tert-Butoxycarbonyl)amino]cyclohexanecarboxylic acid", "cis-3-(tert-Butoxycarbonylamino)cyclohexanecarboxylic acid", "cis-3-((tert-Butoxycarbonyl)amino)cyclohexane-1-carboxylic acid"], "SMILES": "N(C(OC(C)(C)C)=O)C1CC(C(O)=O)CCC1", "physical_data": {"Molecular Weight": "243.30", "Molecular Formula": "C12H21NO4", "Melting Point": "136-138 \u00b0C"}}