{"cas_no": "22259-53-6", "cn_name": "\u5432\u54da-3-\u7532\u80fa", "en_name": ["Indole-3-methanamine", "1H-Indole-3-methanamine", "Indole, 3-(aminomethyl)-", "3-(Aminomethyl)indole", "Indole-3-methanamine", "3-Indoylmethanamine", "1-(1H-Indol-3-yl)methanamine", "1H-Indol-3-ylmethanamine", "1H-Indol-3-ylmethylamine"], "SMILES": "C(N)C=1C=2C(NC1)=CC=CC2", "physical_data": {"Molecular Weight": "146.19", "Molecular Formula": "C9H10N2", "Melting Point": "84 \u00b0C"}}