{"cas_no": "22255-13-6", "cn_name": "\u6241\u84c4\u82f7", "en_name": ["Guaijaverin", "4H-1-Benzopyran-4-one, 3-(\u03b1-L-arabinopyranosyloxy)-2-(3,4-dihydroxyphenyl)-5,7-dihydroxy-", "Guaijaverin", "Arabinopyranoside, quercetin-3, \u03b1-L-", "3-(\u03b1-L-Arabinopyranosyloxy)-2-(3,4-dihydroxyphenyl)-5,7-dihydroxy-4H-1-benzopyran-4-one", "Quercetin 3-\u03b1-L-arabinopyranoside", "Guaiaverin", "Guajaverin", "Foeniculin (glycoside)", "Feniculine", "Foeniculin", "Feniculin", "Quercetin 3-O-\u03b1-L-arabinopyranoside", "Guajavarin", "Quercetin-3-O-\u03b1-L-arabinoside", "3\u2032,4\u2032,5,7-Tetrahydroxyflavone 3-O-\u03b1-L-arabinoside", "Gujaverin", "3-O-\u03b1-L-Arabinopyranosylquercetin"], "SMILES": "O(C1=C(OC=2C(C1=O)=C(O)C=C(O)C2)C3=CC(O)=C(O)C=C3)C4C(O)C(O)C(O)CO4", "physical_data": {"Molecular Weight": "434.35", "Molecular Formula": "C20H18O11", "Melting Point": "237-239 \u00b0C"}}