{"cas_no": "22262-60-8", "cn_name": "3-\u6eb4-2-(\u6eb4\u7532\u57fa)\u4e19\u9178\u7532\u916f", "en_name": ["Methyl 3-bromo-2-(bromomethyl)propanoate", "Propanoic acid, 3-bromo-2-(bromomethyl)-, methyl ester", "Propionic acid, 3-bromo-2-(bromomethyl)-, methyl ester", "Methyl \u03b2,\u03b2\u2032-dibromoisobutyrate", "NSC 620109", "Methyl 3-bromo-2-(bromomethyl)propanoate", "3-Bromo-2-bromomethylpropionic acid methyl ester"], "SMILES": "C(C(OC)=O)(CBr)CBr", "physical_data": {"Molecular Weight": "259.92", "Molecular Formula": "C5H8Br2O2", "Boiling Point": "110 \u00b0C @ Press: 1 Torr"}}