{"cas_no": "22260-51-1", "cn_name": "\u7532\u78fa\u9178\u6eb4\u9690\u4ead", "en_name": ["Bromocriptine mesylate", "Ergotaman-3\u2032,6\u2032,18-trione, 2-bromo-12\u2032-hydroxy-2\u2032-(1-methylethyl)-5\u2032-(2-methylpropyl)-, (5\u03b1)-, methanesulfonate (1:1)", "Ergocryptine, 2-bromo-, monomethanesulfonate (salt)", "Ergotaman-3\u2032,6\u2032,18-trione, 2-bromo-12\u2032-hydroxy-2\u2032-(1-methylethyl)-5\u2032-(2-methylpropyl)-, (5\u2032\u03b1)-, monomethanesulfonate (salt)", "Indolo[4,3-fg]quinoline, ergotaman-3\u2032,6\u2032,18-trione deriv.", "8H-Oxazolo[3,2-a]pyrrolo[2,1-c]pyrazine, ergotaman-3\u2032,6\u2032,18-trione deriv.", "Bromocriptine mesylate", "Bromocriptine methanesulfonate", "Parlodel", "Bromocryptine mesylate", "CB 154", "Bromocryptine methanesulfonate", "Pravidel", "Bagren", "(+)-Bromocriptine methanesulfonate", "Cycloset", "Bromocriptinemesylate"], "SMILES": "S(C)(=O)(=O)O.OC12N(C(=O)C(NC(=O)C3C=C4C=5C=6C(CC4N(C)C3)=C(Br)NC6C=CC5)(C(C)C)O1)C(CC(C)C)C(=O)N7C2CCC7", "physical_data": {"Molecular Weight": "", "Molecular Formula": "C32H40BrN5O5.CH4O3S", "Melting Point": "192-196 \u00b0C (decomp)"}}