{"cas_no": "22264-50-2", "cn_name": "1-\u6c28\u57fa\u73af\u4e01\u7532\u9178", "en_name": ["1-Aminocyclobutanecarboxylic acid", "Cyclobutanecarboxylic acid, 1-amino-", "1-Aminocyclobutanecarboxylic acid", "1-Aminocyclobutane-1-carboxylic acid", "NSC 403362", "NSC 403363"], "SMILES": "C(O)(=O)C1(N)CCC1", "physical_data": {"Molecular Weight": "115.13", "Molecular Formula": "C5H9NO2", "Melting Point": "290 \u00b0C (decomp)"}}