{"cas_no": "2227-17-0", "cn_name": "\u5f97\u6c2f\u8e52", "en_name": ["Dienochlor", "Bi-2,4-cyclopentadien-1-yl, 1,1\u2032,2,2\u2032,3,3\u2032,4,4\u2032,5,5\u2032-decachloro-", "Bi-2,4-cyclopentadien-1-yl, decachloro-", "1,1\u2032,2,2\u2032,3,3\u2032,4,4\u2032,5,5\u2032-Decachlorobi-2,4-cyclopentadien-1-yl", "HRS 16", "HRS 16A", "HRS 1654", "Bis(pentachloro-2,4-cyclopentadien-1-yl)", "Hooker HRS 16", "Hooker HRS 1654", "Pentac WP", "Decachlor", "Pentac", "Pentac SP", "Decachlorobi-2,4-cyclopentadien-1-yl", "Dienochlor", "Pentac AquaFlow", "NSC 26106", "NSC 41880", "1,2,3,4,5-Pentachloro-5-(1,2,3,4,5-pentachlorocyclopenta-2,4-dien-1-yl)cyclopenta-1,3-diene"], "SMILES": "ClC1(C(Cl)=C(Cl)C(Cl)=C1Cl)C2(Cl)C(Cl)=C(Cl)C(Cl)=C2Cl", "physical_data": {"Molecular Weight": "474.64", "Molecular Formula": "C10Cl10", "Melting Point": "122-123 \u00b0C"}}