{"cas_no": "2227-79-4", "cn_name": "\u786b\u4ee3\u82ef\u7532\u9170\u80fa", "en_name": ["Thiobenzamide", "Benzenecarbothioamide", "Benzamide, thio-", "Thiobenzamide", "Benzothioamide", "Benzenethiocarboxamide", "Aminothiocarbonylbenzene", "Thibendiamide"], "SMILES": "C(N)(=S)C1=CC=CC=C1", "physical_data": {"Molecular Weight": "137.20", "Molecular Formula": "C7H7NS", "Boiling Point": "180 \u00b0C", "Melting Point": "115-116 \u00b0C"}}