{"cas_no": "2227-13-6", "cn_name": "\u6740\u87a8\u597d", "en_name": ["Tetrasul", "Benzene, 1,2,4-trichloro-5-[(4-chlorophenyl)thio]-", "Sulfide, p-chlorophenyl 2,4,5-trichlorophenyl", "1,2,4-Trichloro-5-[(4-chlorophenyl)thio]benzene", "V 101", "4-Chlorophenyl 2,4,5-trichlorophenyl sulfide", "p-Chlorophenyl 2,4,5-trichlorophenyl sulfide", "2,4,4\u2032,5-Tetrachlorodiphenyl sulfide", "Tetrasul", "Animert", "Animert V 101", "Tetradisul"], "SMILES": "S(C1=C(Cl)C=C(Cl)C(Cl)=C1)C2=CC=C(Cl)C=C2", "physical_data": {"Molecular Weight": "324.05", "Molecular Formula": "C12H6Cl4S", "Melting Point": "84-85 \u00b0C"}}