{"cas_no": "2227-29-4", "cn_name": "\u4e8c\u5f02\u4e19\u57fa\u6c2f\u4ee3\u7845\u70f7", "en_name": ["Chlorobis(1-methylethyl)silane", "Silane, chlorobis(1-methylethyl)-", "Silane, chlorodiisopropyl-", "Chlorobis(1-methylethyl)silane", "Diisopropylchlorosilane", "Chlorodiisopropylsilane", "Diisopropylsilyl chloride"], "SMILES": "[SiH](C(C)C)(C(C)C)Cl", "physical_data": {"Molecular Weight": "150.72", "Molecular Formula": "C6H15ClSi", "Boiling Point": "137 \u00b0C", "Density": "0.872 g/cm\u00b3"}}