{"cas_no": "2227-64-7", "cn_name": "2-\u6eb4-3'-\u785d\u57fa\u82ef\u4e59\u916e", "en_name": ["3-Nitrophenacyl bromide", "Ethanone, 2-bromo-1-(3-nitrophenyl)-", "Acetophenone, 2-bromo-3\u2032-nitro-", "2-Bromo-1-(3-nitrophenyl)ethanone", "\u03b1-Bromo-3\u2032-nitroacetophenone", "\u03b1-Bromo-m-nitroacetophenone", "\u03c9-Bromo-m-nitroacetophenone", "3-Nitrophenacyl bromide", "m-Nitrophenacyl bromide", "2-Bromo-m-nitroacetophenone", "Bromomethyl m-nitrophenyl ketone", "2-Bromo-3\u2032-nitroacetophenone", "\u03b1-Bromo-3-nitroacetophenone", "NSC 69855", "1-(3-Nitrophenyl)-2-bromoethanone", "Bromomethyl 3-nitrophenyl ketone", "1-Nitro-3-(bromoacetyl)benzene", "2-Bromo-1-(3-nitrophenyl)ethan-1-one"], "SMILES": "C(CBr)(=O)C1=CC(N(=O)=O)=CC=C1", "physical_data": {"Molecular Weight": "244.04", "Molecular Formula": "C8H6BrNO3", "Melting Point": "96 \u00b0C"}}