{"cas_no": "22286-82-4", "cn_name": "2-\u82ef\u57fa\u4e19\u70ef\u9178\u4e59\u916f", "en_name": ["Ethyl \u03b1-methylenebenzeneacetate", "Benzeneacetic acid, \u03b1-methylene-, ethyl ester", "Atropic acid, ethyl ester", "Ethyl \u03b1-methylenebenzeneacetate", "Ethyl atropate", "Ethyl 2-phenylacrylate", "Ethyl \u03b1-phenylacrylate", "Ethyl 2-phenylprop-2-enoate", "2-Phenylacrylic acid ethyl ester"], "SMILES": "C(C(OCC)=O)(=C)C1=CC=CC=C1", "physical_data": {"Molecular Weight": "176.21", "Molecular Formula": "C11H12O2", "Boiling Point": "124-125 \u00b0C @ Press: 17 Torr", "Density": "1.0419 g/cm\u00b3 @ Temp: 25 \u00b0C"}}