{"cas_no": "22283-43-8", "cn_name": "1-(4-\u4e8c\u7532\u6c28\u57fa)\u82ef-2-\u786b\u8132", "en_name": ["N-[4-(Dimethylamino)phenyl]thiourea", "Thiourea, N-[4-(dimethylamino)phenyl]-", "Urea, 1-[p-(dimethylamino)phenyl]-2-thio-", "Thiourea, [4-(dimethylamino)phenyl]-", "N-[4-(Dimethylamino)phenyl]thiourea", "[4-(Dimethylamino)phenyl]thiourea", "1-[4-(Dimethylamino)phenyl]-2-thiourea"], "SMILES": "N(C(N)=S)C1=CC=C(N(C)C)C=C1", "physical_data": {"Molecular Weight": "195.28", "Molecular Formula": "C9H13N3S", "Melting Point": "180-181 \u00b0C"}}