{"cas_no": "22280-62-2", "cn_name": "2-\u6c28\u57fa-5-\u785d\u57fa-6-\u7532\u57fa\u5421\u5576", "en_name": ["6-Methyl-5-nitro-2-pyridinamine", "2-Pyridinamine, 6-methyl-5-nitro-", "2-Picoline, 6-amino-3-nitro-", "6-Methyl-5-nitro-2-pyridinamine", "2-Amino-5-nitro-6-methylpyridine", "2-Amino-6-methyl-5-nitropyridine", "6-Amino-3-nitro-2-picoline", "3-Nitro-6-amino-2-picoline", "NSC 63855", "6-Methyl-5-nitropyridin-2-ylamine"], "SMILES": "N(=O)(=O)C1=C(C)N=C(N)C=C1", "physical_data": {"Molecular Weight": "153.14", "Molecular Formula": "C6H7N3O2", "Melting Point": "188 \u00b0C"}}