{"cas_no": "22288-78-4", "cn_name": "3-\u6c28\u57fa-2-\u567b\u5429\u7532\u9178\u7532\u916f", "en_name": ["Methyl 3-aminothiophene-2-carboxylate", "2-Thiophenecarboxylic acid, 3-amino-, methyl ester", "3-Amino-2-methoxycarbonylthiophene", "Methyl 3-amino-2-thiophenecarboxylate", "3-Amino-2-thiophenecarboxylic acid methyl ester", "3-Aminothiophen-2-carboxylic acid methyl ester", "Methyl 3-aminothiophene-2-carboxylate"], "SMILES": "C(OC)(=O)C1=C(N)C=CS1", "physical_data": {"Molecular Weight": "157.19", "Molecular Formula": "C6H7NO2S", "Boiling Point": "101 \u00b0C", "Melting Point": "65 \u00b0C"}}