{"cas_no": "22280-56-4", "cn_name": "2-\u6c2f-3-\u7532\u57fa-5-\u785d\u57fa\u5421\u5576", "en_name": ["2-Chloro-3-methyl-5-nitropyridine", "Pyridine, 2-chloro-3-methyl-5-nitro-", "3-Picoline, 2-chloro-5-nitro-", "2-Chloro-3-methyl-5-nitropyridine", "2-Chloro-5-nitro-3-picoline", "NSC 63887", "6-Chloro-5-methyl-3-nitropyridine"], "SMILES": "N(=O)(=O)C=1C=C(C)C(Cl)=NC1", "physical_data": {"Molecular Weight": "172.57", "Molecular Formula": "C6H5ClN2O2", "Boiling Point": "145.5 \u00b0C @ Press: 18 Torr", "Melting Point": "47-48 \u00b0C"}}