{"cas_no": "22282-73-1", "cn_name": "3-\u6c1f\u5421\u5576-4-\u9187", "en_name": ["3-Fluoro-4-pyridinol", "4-Pyridinol, 3-fluoro-", "3-Fluoro-4-pyridinol", "3-Fluoropyridin-4-ol", "3-Fluoro-1H-pyridin-4-one", "3-Fluoro-4-hydroxypyridine"], "SMILES": "FC=1C(O)=CC=NC1", "physical_data": {"Molecular Weight": "113.09", "Molecular Formula": "C5H4FNO", "Melting Point": "153 \u00b0C"}}