{"cas_no": "22282-65-1", "cn_name": "2-\u7532\u57fa-4-\u7898\u5421\u5576", "en_name": ["4-Iodo-2-methylpyridine", "Pyridine, 4-iodo-2-methyl-", "2-Picoline, 4-iodo-", "4-Iodo-2-methylpyridine", "4-Iodo-2-picoline"], "SMILES": "IC=1C=C(C)N=CC1", "physical_data": {"Molecular Weight": "219.02", "Molecular Formula": "C6H6IN", "Boiling Point": "84-86 \u00b0C @ Press: 14 Torr", "Melting Point": "43 \u00b0C"}}