{"cas_no": "22280-60-0", "cn_name": "6-\u6c2f-2-\u7532\u57fa-3-\u785d\u57fa\u5421\u5576", "en_name": ["6-Chloro-2-methyl-3-nitropyridine", "Pyridine, 6-chloro-2-methyl-3-nitro-", "2-Picoline, 6-chloro-3-nitro-", "6-Chloro-2-methyl-3-nitropyridine", "2-Chloro-5-nitro-6-methylpyridine", "2-Chloro-6-methyl-5-nitropyridine", "3-Nitro-6-chloro-2-picoline", "6-Chloro-3-nitro-2-picoline", "NSC 75592", "2-Chloro-5-nitro-6-picoline"], "SMILES": "N(=O)(=O)C1=C(C)N=C(Cl)C=C1", "physical_data": {"Molecular Weight": "172.57", "Molecular Formula": "C6H5ClN2O2", "Melting Point": "54-55 \u00b0C"}}