{"cas_no": "22282-70-8", "cn_name": "2-\u6c1f-4-\u7898\u5421\u5576", "en_name": ["2-Fluoro-4-iodopyridine", "Pyridine, 2-fluoro-4-iodo-", "2-Fluoro-4-iodopyridine", "4-Iodo-2-fluoropyridine"], "SMILES": "IC=1C=C(F)N=CC1", "physical_data": {"Molecular Weight": "222.99", "Molecular Formula": "C5H3FIN", "Melting Point": "58 \u00b0C"}}