{"cas_no": "222978-02-1", "cn_name": "2-\u6c1f-4-\u7f9f\u57fa\u7532\u57fa\u82ef\u7532\u8148", "en_name": ["2-Fluoro-4-(hydroxymethyl)benzonitrile", "Benzonitrile, 2-fluoro-4-(hydroxymethyl)-", "2-Fluoro-4-(hydroxymethyl)benzonitrile", "2-Fluoro-4-hydroxymethylbenzonitrile"], "SMILES": "C(O)C1=CC(F)=C(C#N)C=C1", "physical_data": {"Molecular Weight": "151.14", "Molecular Formula": "C8H6FNO", "Melting Point": "63-67 \u00b0C"}}