{"cas_no": "22298-29-9", "cn_name": "\u82ef\u7532\u9178\u500d\u4ed6\u7c73\u677e", "en_name": ["Betamethasone benzoate", "Pregna-1,4-diene-3,20-dione, 17-(benzoyloxy)-9-fluoro-11,21-dihydroxy-16-methyl-, (11\u03b2,16\u03b2)-", "Pregna-1,4-diene-3,20-dione, 9-fluoro-11\u03b2,17,21-trihydroxy-16\u03b2-methyl-, 17-benzoate", "(11\u03b2,16\u03b2)-17-(Benzoyloxy)-9-fluoro-11,21-dihydroxy-16-methylpregna-1,4-diene-3,20-dione", "Betamethasone 17-benzoate", "Betamethasone benzoate", "MS 1112", "Beben", "Flurobate", "Bebate", "W 5975", "Benisone", "Euvaderm", "Uticort", "Parbetan"], "SMILES": "O(C(=O)C1=CC=CC=C1)C2(C(CO)=O)C3(C)C(CC2C)C4C(F)(C(O)C3)C5(C)C(CC4)=CC(=O)C=C5", "physical_data": {"Molecular Weight": "496.57", "Molecular Formula": "C29H33FO6", "Melting Point": "225-228 \u00b0C"}}