{"cas_no": "22303-36-2", "cn_name": "2-\u6c2f-N-(4-\u7532\u6c27\u57fa\u82ef\u57fa)-\u4e59\u9170\u80fa", "en_name": ["2-Chloro-N-(4-methoxyphenyl)acetamide", "Acetamide, 2-chloro-N-(4-methoxyphenyl)-", "p-Acetanisidide, 2-chloro-", "2-Chloro-N-(4-methoxyphenyl)acetamide", "2-Chloro-4\u2032-methoxyacetanilide", "2-Chloro-N-p-anisylacetamide", "N-Chloroacetyl-4-methoxyaniline", "N-(p-Anisyl)chloroacetamide", "2-Chloro-p-acetanisidide", "N-(p-Methoxyphenyl)chloroacetamide", "N-(4-Anisyl)chloroacetamide", "NSC 8373", "\u03b1-Chloro-p-methoxyacetanilide", "N-(4-Methoxyphenyl)-2-chloroacetamide"], "SMILES": "N(C(CCl)=O)C1=CC=C(OC)C=C1", "physical_data": {"Molecular Weight": "199.63", "Molecular Formula": "C9H10ClNO2", "Melting Point": "121.5-122.5 \u00b0C"}}