{"cas_no": "22318-10-1", "cn_name": "\u7a46\u8331\u8438\u5185\u916f\u9187", "en_name": ["Evodol", "11H,13H-Oxireno[d]pyrano[4\u2032,3\u2032:3,3a]isobenzofuro[5,4-f][2]benzopyran-4,6,13(2H,5aH)-trione, 8-(3-furanyl)-4a,8,8a,9,10,10a,14,14a-octahydro-3-hydroxy-2,2,4a,8a-tetramethyl-, (4aR,4bR,5aS,8S,8aS,10aR,10bR,14aS)-", "Limonoic acid, 5,6-didehydro-6-hydroxy-, di-\u03b4-lactone", "Evodol", "Limonin diosphenol", "(4aR,4bR,5aS,8S,8aS,10aR,10bR,14aS)-8-(3-Furanyl)-4a,8,8a,9,10,10a,14,14a-octahydro-3-hydroxy-2,2,4a,8a-tetramethyl-11H,13H-oxireno[d]pyrano[4\u2032,3\u2032:3,3a]isobenzofuro[5,4-f][2]benzopyran-4,6,13(2H,5aH)-trione", "11H,13H-Oxireno[d]pyrano[4\u2032,3\u2032:3,3a]isobenzofuro[5,4-f][2]benzopyran-4,6,13(2H,5aH)-trione, 8-(3-furanyl)-4a,8,8a,9,10,10a,14,14a-octahydro-3-hydroxy-2,2,4a,8a-tetramethyl-, [4aR-(4a\u03b1,4bR*,5a\u03b2,8\u03b2,8a\u03b2,10a\u03b2,10bR*,14a\u03b2)]-", "Glaucin C", "NSC 314322"], "SMILES": "CC12C34C(C)(C(OC(=O)C3O4)C=5C=COC5)CCC1C67C(=C(O)C2=O)C(C)(C)OC6CC(=O)OC7", "physical_data": {"Molecular Weight": "484.50", "Molecular Formula": "C26H28O9", "Melting Point": "281 \u00b0C"}}