{"cas_no": "2231-57-4", "cn_name": "\u786b\u4ee3\u5361\u5df4\u80bc", "en_name": ["Thiocarbohydrazide", "Carbonothioic dihydrazide", "Carbohydrazide, thio-", "TCH", "Thiocarbohydrazide", "Hydrazinecarbohydrazonothioic acid", "1,3-Diamino-2-thiourea", "Thiocarbonohydrazide", "Thiocarbonic dihydrazide", "Thiocarbazide", "NSC 689", "1,3-Diaminothiourea"], "SMILES": "C(NN)(NN)=S", "physical_data": {"Molecular Weight": "106.15", "Molecular Formula": "CH6N4S", "Melting Point": "170 \u00b0C (decomp)"}}