{"cas_no": "22316-47-8", "cn_name": "\u6c27\u5f02\u5b89\u5b9a", "en_name": ["Clobazam", "1H-1,5-Benzodiazepine-2,4(3H,5H)-dione, 7-chloro-1-methyl-5-phenyl-", "7-Chloro-1-methyl-5-phenyl-1H-1,5-benzodiazepine-2,4(3H,5H)-dione", "Clobazam", "HR 376", "Frisium", "Urbanyl", "Mystan", "Frizium", "Urbadan", "H 4723", "LM 2717", "NSC 336279", "Clobazepam", "7-Chloro-1,5-dihydro-1-methyl-5-phenyl-1,5-benzodiazepine-2,4(3H)-dione", "7-chloro-1-methyl-5-phenyl-1 H-1,5-benzodiazepine-2,4(3H,5H)-dione", "Onfi"], "SMILES": "O=C1N(C=2C(N(C)C(=O)C1)=CC=C(Cl)C2)C3=CC=CC=C3", "physical_data": {"Molecular Weight": "300.74", "Molecular Formula": "C16H13ClN2O2", "Melting Point": "166-168 \u00b0C"}}