{"cas_no": "2231-66-5", "cn_name": "2,2-\u4e8c\u7532\u57fa-5-(1-\u7532\u57fa\u4e59\u4e9a\u57fa)-1,3-\u4e8c\u6076\u70f7-4,6-\u4e8c\u916e", "en_name": ["2,2-Dimethyl-5-(1-methylethylidene)-1,3-dioxane-4,6-dione", "1,3-Dioxane-4,6-dione, 2,2-dimethyl-5-(1-methylethylidene)-", "Malonic acid, isopropylidene-, cyclic isopropylidene ester", "2,2-Propanediol, cyclic isopropylidenemalonate", "2,2-Dimethyl-5-(1-methylethylidene)-1,3-dioxane-4,6-dione", "Propanedioic acid, (1-methylethylidene)-, cyclic 1-methylethylidene ester", "1,3-Dioxane-4,6-dione, 5-isopropylidene-2,2-dimethyl-", "5-Isopropylidene-2,2-dimethyl-[1,3]dioxane-4,6-dione", "2,2-Dimethyl-5-(propan-2-ylidene)-1,3-dioxane-4,6-dione"], "SMILES": "C(C)(C)=C1C(=O)OC(C)(C)OC1=O", "physical_data": {"Molecular Weight": "184.19", "Molecular Formula": "C9H12O4", "Melting Point": "128 \u00b0C"}}