{"cas_no": "22325-27-5", "cn_name": "4,6-\u4e8c\u7532\u57fa-2-\u5def\u57fa\u5627\u5576", "en_name": ["4,6-Dimethyl-2-mercaptopyrimidine", "2(1H)-Pyrimidinethione, 4,6-dimethyl-", "2-Pyrimidinethiol, 4,6-dimethyl-", "4,6-Dimethyl-2(1H)-pyrimidinethione", "1,2-Dihydro-4,6-dimethylpyrimidine-2-thione", "4,6-Dimethyl-2-pyrimidinethiol", "4,6-Dimethyl-2-mercaptopyrimidine", "2-Mercapto-4,6-dimethylpyrimidine", "4,6-Dimethyl-2-pyrimidinethione", "4,6-Dimethyl-2-pyrimidinylmercaptan", "NSC 15491", "NSC 314273", "NSC 314274", "2-Thio-4,6-dimethylpyrimidine"], "SMILES": "CC1=CC(C)=NC(=S)N1", "physical_data": {"Molecular Weight": "140.21", "Molecular Formula": "C6H8N2S", "Melting Point": "208-210 \u00b0C"}}