{"cas_no": "22323-80-4", "cn_name": "(S)-2,2-\u4e8c\u7532\u57fa-1,3-\u4e8c\u6c27\u620a\u73af-4-\u7532\u919b", "en_name": ["(4S)-2,2-Dimethyl-1,3-dioxolane-4-carboxaldehyde", "1,3-Dioxolane-4-carboxaldehyde, 2,2-dimethyl-, (4S)-", "1,3-Dioxolane-4-carboxaldehyde, 2,2-dimethyl-, L-", "1,3-Dioxolane-4-carboxaldehyde, 2,2-dimethyl-, (S)-", "(4S)-2,2-Dimethyl-1,3-dioxolane-4-carboxaldehyde", "2,3-O-Isopropylidene-L-glyceraldehyde", "L-Glyceraldehyde acetonide", "(S)-Glyceraldehyde acetonide", "(S)-2,3-O-Isopropylideneglyceraldehyde", "(S)-Isopropylideneglyceraldehyde", "(S)-Glyceraldehyde isopropylidene acetal", "(S)-2,2-Dimethyl-1,3-dioxolane-4-carboxaldehyde", "(S)-2,3-(Isopropylidenedioxy)propionaldehyde", "(S)-2,2-Dimethyl-1,3-dioxolane-4-carbaldehyde", "1,3-Dioxolane-4-carboxaldehyde 2,2-dimethyl-, (4S)-", "(4S)-2,2-Dimethyl-1,3-dioxolane-4-carbaldehyde", "(4S)-2,2-Dimethyl-1,3-dioxolan-4-carboxaldehyde"], "SMILES": "C(=O)C1OC(C)(C)OC1", "physical_data": {"Molecular Weight": "130.14", "Molecular Formula": "C6H10O3", "Boiling Point": "42-44 \u00b0C @ Press: 13 Torr"}}