{"cas_no": "2232-08-8", "cn_name": "1-\u5bf9\u7532\u57fa\u82ef\u78fa\u9170\u54aa\u5511", "en_name": ["1-(p-Toluenesulfonyl)imidazole", "1H-Imidazole, 1-[(4-methylphenyl)sulfonyl]-", "Imidazole, 1-(p-tolylsulfonyl)-", "1-[(4-Methylphenyl)sulfonyl]-1H-imidazole", "N-(p-Toluenesulfonyl)imidazole", "1-(p-Toluenesulfonyl)imidazole", "1-(p-Tolylsulfonyl)imidazole", "1-Tosylimidazole", "N-Tosylimidazole", "NSC 109348", "NSC 669590", "p-Toluenesulfonic acid imidazolide", "1-(4-Methylphenylsulfonyl)imidazole", "1-(4-Methylphenylsulfonyl)-1H-imidazole", "1-Tosyl-1H-imidazole"], "SMILES": "S(=O)(=O)(C1=CC=C(C)C=C1)N2C=CN=C2", "physical_data": {"Molecular Weight": "222.26", "Molecular Formula": "C10H10N2O2S", "Melting Point": "77-78 \u00b0C"}}