{"cas_no": "22323-82-6", "cn_name": "(S)-(+)-\u7518\u6cb9\u9187\u7f29\u4e19\u916e", "en_name": ["(+)-Solketal", "1,3-Dioxolane-4-methanol, 2,2-dimethyl-, (4S)-", "1,3-Dioxolane-4-methanol, 2,2-dimethyl-, L-", "1,3-Dioxolane-4-methanol, 2,2-dimethyl-, (S)-", "(4S)-2,2-Dimethyl-1,3-dioxolane-4-methanol", "L-(+)-2,2-Dimethyl-1,3-dioxolane-4-methanol", "1,2-Isopropylidene-sn-glycerol", "(2S)-Glycerol 1,2-acetonide", "2,3-O-Isopropylidene-D-glycerol", "1,2-O-Isopropylidene-sn-glycerol", "(S)-(+)-1,2-Isopropylideneglycerol", "(S)-Solketal", "(S)-2,2-Dimethyl-1,3-dioxolane-4-methanol", "(+)-Solketal", "(+)-\u03b1,\u03b2-Isopropylideneglycerol", "(S)-Isopropylideneglycerol", "(4S)-2,2-Dimethyl-1,3-dioxolan-4-ylmethanol", "1,2-O-Isopropylidene-(S)-glycerol", "(+)-2,2-Dimethyl-1,3-dioxolane-4-methanol", "(S)-1,2-Isopropylideneglycerol", "(S)-1,2-O-Isopropylideneglycerol", "(+)-1,2-O-Isopropylidene-sn-glycerol", "(+)-Glycerol acetonide", "(S)-(+)-2,2-Dimethyl-1,3-dioxolane-4-methanol", "(S)-(+)-(2,2-Dimethyl-[1,3]dioxolan-4-yl)methanol", "((4S)-2,2-Dimethyl-1,3-dioxolan-4-yl)methanol", "(S)-(+)-2,2-Dimethyl-1,3-dioxolan-4-methanol", "[(S)-2,2-Dimethyl-[1,3]dioxolan-4-yl]methanol", "(S)-2,2-Dimethyl-1,3-dioxolan-4-methanol"], "SMILES": "C(O)C1OC(C)(C)OC1", "physical_data": {"Molecular Weight": "132.16", "Molecular Formula": "C6H12O3", "Boiling Point": "77-78 \u00b0C @ Press: 9.98 Torr"}}