{"cas_no": "2232-12-4", "cn_name": "1,3-\u4e8c\u7898-5,5-\u4e8c\u7532\u57fa\u6d77\u56e0", "en_name": ["1,3-Diiodo-5,5-dimethyl-2,4-imidazolidinedione", "2,4-Imidazolidinedione, 1,3-diiodo-5,5-dimethyl-", "Hydantoin, 1,3-diiodo-5,5-dimethyl-", "1,3-Diiodo-5,5-dimethyl-2,4-imidazolidinedione", "1,3-Diiodo-5,5-dimethylhydantoin", "1,3-Diiodo-5,5-dimethylimidazolidine-2,4-dione", "Diiodo-5,5-dimethylhydantoin"], "SMILES": "CC1(C)C(=O)N(I)C(=O)N1I", "physical_data": {"Molecular Weight": "379.92", "Molecular Formula": "C5H6I2N2O2", "Melting Point": "213-214 \u00b0C (decomp)"}}