{"cas_no": "22326-31-4", "cn_name": "5-\u78fa\u9178\u57fa\u95f4\u82ef\u4e8c\u7532\u9178", "en_name": ["Sulfoisophthalic acid", "1,3-Benzenedicarboxylic acid, 5-sulfo-", "Isophthalic acid, 5-sulfo-", "5-Sulfo-1,3-benzenedicarboxylic acid", "5-Sulfoisophthalic acid", "3,5-Dicarboxybenzenesulfonic acid", "Sulfoisophthalic acid"], "SMILES": "S(=O)(=O)(O)C1=CC(C(O)=O)=CC(C(O)=O)=C1", "physical_data": {"Molecular Weight": "246.19", "Molecular Formula": "C8H6O7S", "Melting Point": "258 \u00b0C"}}