{"cas_no": "22329-76-6", "cn_name": "\u963f\u9b4f\u9178\u7532\u916f", "en_name": ["Methyl (E)-ferulate", "2-Propenoic acid, 3-(4-hydroxy-3-methoxyphenyl)-, methyl ester, (2E)-", "Cinnamic acid, 4-hydroxy-3-methoxy-, methyl ester, (E)-", "2-Propenoic acid, 3-(4-hydroxy-3-methoxyphenyl)-, methyl ester, (E)-", "Methyl trans-4-hydroxy-3-methoxycinnamate", "Methyl trans-ferulate", "(E)-4-Hydroxy-3-methoxycinnamic acid methyl ester", "Methyl (E)-ferulate", "Methyl (E)-ferulate", "Methyl (E)-4-hydroxy-3-methoxycinnamate", "Methyl (E)-3-(4-hydroxy-3-methoxyphenyl)-2-propenoate", "Methyl (2E)-3-(4-hydroxy-3-methoxyphenyl)prop-2-enoate", "trans-Ferulic acid methyl ester", "(E)-Methyl-3-(4-hydroxy-3-methoxyphenyl)acrylate", "(E)-Ferulic acid methyl ester", "Methyl (E)-3-(4-hydroxy-3-methoxyphenyl)prop-2-enoate"], "SMILES": "C(=CC(OC)=O)C1=CC(OC)=C(O)C=C1", "physical_data": {"Molecular Weight": "208.21", "Molecular Formula": "C11H12O4", "Melting Point": "58-60 \u00b0C"}}