{"cas_no": "22338-67-6", "cn_name": "GRANDIFLORENIC ACID", "en_name": ["Grandiflorenic acid", "Kaura-9(11),16-dien-18-oic acid, (4\u03b1)-", "Kaura-9(11),16-dien-18-oic acid", "(4\u03b1)-Kaura-9(11),16-dien-18-oic acid", "Grandiflorenic acid", "(-)-Kaur-9(11),16-dien-19-oic acid", "9,11-Dehydro-ent-kaurenoic acid", "ent-9(11),16-Kauradien-19-oic acid", "(+)-Grandiflorenic acid", "ent-Kaura-9(11),16-dien-19-oic acid"], "SMILES": "CC12C=3C4(CC(CC3)C(=C)C4)CCC1C(C(O)=O)(C)CCC2", "physical_data": {"Molecular Weight": "300.44", "Molecular Formula": "C20H28O2", "Melting Point": "155-157 \u00b0C"}}