{"cas_no": "2233-18-3", "cn_name": "3,5-\u4e8c\u7532\u57fa-4-\u7f9f\u57fa\u82ef\u7532\u919b", "en_name": ["3,5-Dimethyl-4-hydroxybenzaldehyde", "Benzaldehyde, 4-hydroxy-3,5-dimethyl-", "4-Hydroxy-3,5-dimethylbenzaldehyde", "4-Formyl-2,6-xylenol", "3,5-Dimethyl-4-hydroxybenzaldehyde", "NSC 128405"], "SMILES": "C(=O)C1=CC(C)=C(O)C(C)=C1", "physical_data": {"Molecular Weight": "150.17", "Molecular Formula": "C9H10O2", "Melting Point": "114.5-115 \u00b0C"}}