{"cas_no": "2234-20-0", "cn_name": "2,4-\u4e8c\u7532\u57fa\u82ef\u4e59\u70ef", "en_name": ["2,4-Dimethylstyrene", "Benzene, 1-ethenyl-2,4-dimethyl-", "Styrene, 2,4-dimethyl-", "1-Ethenyl-2,4-dimethylbenzene", "2,4-Dimethylstyrene", "1-Vinyl-2,4-dimethylbenzene", "1,3-Dimethyl-4-vinylbenzene", "4-Vinyl-m-xylene", "2,4-Dimethyl-1-vinylbenzene", "NSC 62089", "2,4-Dimethyl-1-ethenylbenzene"], "SMILES": "C(=C)C1=C(C)C=C(C)C=C1", "physical_data": {"Molecular Weight": "132.20", "Molecular Formula": "C10H12", "Boiling Point": "81-85 \u00b0C @ Press: 14 Torr", "Melting Point": "-64.5--62 \u00b0C", "Density": "0.905 g/cm\u00b3 @ Temp: 20 \u00b0C"}}