{"cas_no": "22346-75-4", "cn_name": "4-\u5421\u5576\u57fa\u7532\u9187N-\u6c27\u5316\u7269", "en_name": ["4-Pyridinemethanol, 1-oxide", "4-Pyridinemethanol, 1-oxide", "4-Pyridylcarbinol N-oxide", "4-(Hydroxymethyl)pyridine N-oxide", "4-Pyridinemethanol N-oxide", "(1-Oxopyridin-4-yl)methanol", "4-(Hydroxymethyl)pyridine 1-oxide"], "SMILES": "C(O)C=1C=CN(=O)=CC1", "physical_data": {"Molecular Weight": "125.13", "Molecular Formula": "C6H7NO2", "Melting Point": "125 \u00b0C"}}