{"cas_no": "2234-97-1", "cn_name": "\u4e09\u4e19\u57fa\u81a6", "en_name": ["Tripropylphosphine", "Phosphine, tripropyl-", "Tripropylphosphine", "Tri-n-propylphosphine", "Cytop 330"], "SMILES": "P(CCC)(CCC)CCC", "physical_data": {"Molecular Weight": "160.24", "Molecular Formula": "C9H21P", "Boiling Point": "103.5 \u00b0C @ Press: 50 Torr", "Density": "0.807 g/cm\u00b3 @ Temp: 20 \u00b0C"}}