{"cas_no": "223463-13-6", "cn_name": "5-\u6eb4-2-\u7898\u5421\u5576", "en_name": ["5-Bromo-2-iodopyridine", "Pyridine, 5-bromo-2-iodo-", "5-Bromo-2-iodopyridine", "2-Iodo-5-bromopyridine"], "SMILES": "BrC=1C=CC(I)=NC1", "physical_data": {"Molecular Weight": "283.89", "Molecular Formula": "C5H3BrIN", "Melting Point": "117 \u00b0C"}}