{"cas_no": "22345-47-7", "cn_name": "\u6258\u975e\u7d22\u6d0b", "en_name": ["Tofisopam", "5H-2,3-Benzodiazepine, 1-(3,4-dimethoxyphenyl)-5-ethyl-7,8-dimethoxy-4-methyl-", "1-(3,4-Dimethoxyphenyl)-5-ethyl-7,8-dimethoxy-4-methyl-5H-2,3-benzodiazepine", "Tofisopam", "Grandaxin", "EGYT 341", "7,8-Dimethoxy-1-(3,4-dimethoxyphenyl)-5-ethyl-4-methyl-5H-2,3-benzodiazepine", "Seriel", "1-(3,4-Dimethoxyphenyl)-4-methyl-5-ethyl-7,8-dimethoxy-5H-2,3-benzodiazepine", "Nodeprine", "1-(3,4-Dimethoxyphenyl)-5-ethyl-7,8-dimethoxy-4-methyl-5H-benzo[d][1,2]diazepine"], "SMILES": "C(C)C1C=2C(C(=NN=C1C)C3=CC(OC)=C(OC)C=C3)=CC(OC)=C(OC)C2", "physical_data": {"Molecular Weight": "382.45", "Molecular Formula": "C22H26N2O4", "Melting Point": "156.5 \u00b0C"}}