{"cas_no": "2234-82-4", "cn_name": "\u4e19\u57fa\u6c2f\u5316\u9541", "en_name": ["Propylmagnesium chloride", "Magnesium, chloropropyl-", "Propylmagnesium chloride", "Chloropropylmagnesium", "n-Propylmagnesium chloride"], "SMILES": "C(CC)[Mg]Cl", "physical_data": {"Molecular Weight": "", "Molecular Formula": "C3H7ClMg", "Boiling Point": "148-150 \u00b0C @ Press: 15 Torr"}}