{"cas_no": "22349-03-7", "cn_name": "N-\u5341\u4e5d\u70f7\u57fa\u73af\u5df1\u70f7", "en_name": ["Nonadecylcyclohexane", "Cyclohexane, nonadecyl-", "Nonadecane, 1-cyclohexyl-", "Nonadecylcyclohexane", "n-Nonadecylcyclohexane"], "SMILES": "C(CCCCCCCCCCCCCCCCCC)C1CCCCC1", "physical_data": {"Molecular Weight": "350.66", "Molecular Formula": "C25H50", "Boiling Point": "420 \u00b0C", "Melting Point": "45 \u00b0C"}}