{"cas_no": "2234-75-5", "cn_name": "1,2,4-\u4e09\u7532\u57fa\u73af\u5df1\u70f7", "en_name": ["1,2,4-Trimethylcyclohexane", "Cyclohexane, 1,2,4-trimethyl-", "1,2,4-Trimethylcyclohexane", "NSC 18907", "1,2,5-Trimethylcyclohexane"], "SMILES": "CC1C(C)CCC(C)C1", "physical_data": {"Molecular Weight": "126.24", "Molecular Formula": "C9H18", "Boiling Point": "140-141 \u00b0C", "Density": "0.778 g/cm\u00b3 @ Temp: 20 \u00b0C"}}