{"cas_no": "2234-14-2", "cn_name": "2,4,6-\u4e09\u5f02\u4e19\u57fa\u82ef\u4e59\u916e", "en_name": ["1-[2,4,6-Tris(1-methylethyl)phenyl]ethanone", "Ethanone, 1-[2,4,6-tris(1-methylethyl)phenyl]-", "Acetophenone, 2\u2032,4\u2032,6\u2032-triisopropyl-", "1-[2,4,6-Tris(1-methylethyl)phenyl]ethanone", "2\u2032,4\u2032,6\u2032-Triisopropylacetophenone", "2,4,6-Triisopropylacetophenone", "1-(2,4,6-Triisopropylphenyl)ethanone", "NSC 152212", "1-[2,4,6-Tri(propan-2-yl)phenyl]ethanone", "1-(2,4,6-Triisopropylphenyl)ethan-1-one"], "SMILES": "C(C)(=O)C1=C(C(C)C)C=C(C(C)C)C=C1C(C)C", "physical_data": {"Molecular Weight": "246.39", "Molecular Formula": "C17H26O", "Melting Point": "87.5-88 \u00b0C"}}