{"cas_no": "223437-05-6", "cn_name": "1-\u7532\u57fa-1-\u4e19\u57fa\u5421\u54af\u70f7\u53cc(\u4e09\u6c1f\u7532\u78fa\u9170)\u4e9a\u80fa\u76d0", "en_name": ["N-Methyl-N-propylpyrrolidinium bis(trifluoromethanesulfonyl)imide", "Pyrrolidinium, 1-methyl-1-propyl-, salt with 1,1,1-trifluoro-N-[(trifluoromethyl)sulfonyl]methanesulfonamide (1:1)", "Methanesulfonamide, 1,1,1-trifluoro-N-[(trifluoromethyl)sulfonyl]-, ion(1-), 1-methyl-1-propylpyrrolidinium", "1-Methyl-1-propylpyrrolidinium bis(trifluoromethylsulfonyl)imide", "N-Methyl-N-propylpyrrolidinium bis(trifluoromethanesulfonyl)imide", "Elexcel IL 220", "N-Propyl-N-methylpyrrolidinium bis(trifluoromethylsulfonyl)imide", "1-Methyl-1-propylpyrrolidinium bis(trifluoromethanesulfonyl)imide", "1-Propyl-1-methyl-pyrrolidinium bis(trifluoromethanesulfonyl)imide", "N-Methyl-N-propylpyrrolidinium bis(trifluoromethanesulfonyl)amide", "IL 220", "1-Propyl-1-methylpyrrolidinium bis(trifluoromethylsulfonyl)imide", "1-Methyl-1-propylpyrrolidinium bis[(trifluoromethyl)sulfonyl]amide", "N-Propyl-N-methylpyrrolidinium bis(trifluoromethanesulfonyl)imide", "Methylpropylpyrrolidinium bis(trifluoromethanesulfonyl)imide", "1-Methyl-N-propylpyrrolidinium bis(trifluoromethylsulfonyl)imide", "1-Methyl-1-propylpyrrolidinium bis[(trifluoromethyl)sulfonyl]azanide", "[PYR13][TFSA]"], "SMILES": "S([N-]S(C(F)(F)F)(=O)=O)(C(F)(F)F)(=O)=O.C(CC)[N+]1(C)CCCC1", "physical_data": {"Molecular Weight": "", "Molecular Formula": "C8H18N.C2F6NO4S2", "Melting Point": "9.1 \u00b0C", "Density": "1.27 g/cm\u00b3"}}