{"cas_no": "2234-13-1", "cn_name": "\u516b\u6c2f\u5316\u8418", "en_name": ["Octachloronaphthalene", "Naphthalene, 1,2,3,4,5,6,7,8-octachloro-", "Naphthalene, octachloro-", "1,2,3,4,5,6,7,8-Octachloronaphthalene", "Perna", "Halowax 1051", "Perchloronaphthalene", "Octachloronaphthalene", "PCN 75", "NSC 243655"], "SMILES": "ClC=1C2=C(C(Cl)=C(Cl)C(Cl)=C2Cl)C(Cl)=C(Cl)C1Cl", "physical_data": {"Molecular Weight": "403.73", "Molecular Formula": "C10Cl8", "Boiling Point": "246 \u00b0C @ Press: 0.50 Torr", "Melting Point": "185-197 \u00b0C", "Density": "2.00 g/cm\u00b3 @ Temp: 25 \u00b0C"}}