{"cas_no": "223437-11-4", "cn_name": "1-\u6b63\u4e01\u57fa-1-\u7532\u57fa\u5421\u54af\u70f7\u4e8c(\u4e09\u6c1f\u7532\u57fa\u78fa\u9170)\u9170\u4e9a\u80fa", "en_name": ["1-Butyl-1-methylpyrrolidinium bis(trifluoromethylsulfonyl)imide", "Pyrrolidinium, 1-butyl-1-methyl-, salt with 1,1,1-trifluoro-N-[(trifluoromethyl)sulfonyl]methanesulfonamide (1:1)", "Methanesulfonamide, 1,1,1-trifluoro-N-[(trifluoromethyl)sulfonyl]-, ion(1-), 1-butyl-1-methylpyrrolidinium", "N,N-Butylmethylpyrrolidinium trifluoromethanesulfonimide", "N,N-Butylmethylpyrrolidinium bis(trifluoromethanesulfonyl)imide", "1-Butyl-1-methylpyrrolidinium bis(trifluoromethanesulfonyl)imide", "1-Butyl-1-methylpyrrolidinium bis(trifluoromethylsulfonyl)imide", "N,N-Butylmethylpyrrolidinium bis(trifluoromethanesulfonyl)amide", "N-Butyl-N-methylpyrrolidinium bis(trifluoromethylsulfonyl)imide", "1-Butyl-1-methylpyrrolidinium bis(trifluoromethanesulfonyl)amide", "N-Butyl-N-methylpyrrolidinium bis(trifluoromethane sulfone)imide", "1-Butyl-1-methylpyrrolidinium bistriflimide", "1-Butyl-1-methylpyrrolidinium N,N-bis[(trifluoromethyl)sulfonyl]amide", "N-Butyl-N-methylpyrrolidinium bistriflimide", "1-Butyl-1-methylpyrrolidinium bis(trifluoromethylsulfonyl)amide", "Butylmethylpyrrolidinium bis(trifluoromethylsulfonyl)imide", "Butylmethylpyrrolidinium bis(trifluoromethanesulfonyl)imide", "N-Methyl-N-butyl-pyrrolidinium bis(trifluoromethanesulfonyl)imide", "N-Butyl-N-methylpyrrolidinium bis(trifluoromethansulfonyl)imide", "N-Butyl-N-methylpyrrolidinium bis(trifluoromethanesulfonyl)amide", "1-Butyl-1-methylpyrrolidinium (trifluoromethanesulfonyl)imide", "N-Methyl-N-butylpyrrolidinium bis(trifluoromethylsulfonyl)imide", "[Bmpyrr][NTf2]", "PYR14-TFSI", "N-Butyl-N-methylpyrrolidinium bis(fluoromethanesulfonyl)imide", "B 2851", "[c4Mpyr][tf2N]"], "SMILES": "S([N-]S(C(F)(F)F)(=O)=O)(C(F)(F)F)(=O)=O.C(CCC)[N+]1(C)CCCC1", "physical_data": {"Molecular Weight": "", "Molecular Formula": "C9H20N.C2F6NO4S2", "Melting Point": "-15 \u00b0C", "Density": "1.40 g/cm\u00b3 @ Temp: 25 \u00b0C"}}