{"cas_no": "22348-97-6", "cn_name": "\u6708\u6842\u9170\u4e59\u9178\u7532\u916f", "en_name": ["Methyl 3-oxotetradecanoate", "Tetradecanoic acid, 3-oxo-, methyl ester", "Methyl 3-oxotetradecanoate", "Methyl \u03b2-ketomyristate", "Methyl 3-oxomyristate"], "SMILES": "C(CCCCCCCCCCC)(CC(OC)=O)=O", "physical_data": {"Molecular Weight": "256.38", "Molecular Formula": "C15H28O3", "Boiling Point": "137-139 \u00b0C @ Press: 0.9 Torr", "Melting Point": "28.7 \u00b0C"}}