{"cas_no": "22348-64-7", "cn_name": "22(S)-\u7f9f\u57fa\u80c6\u56fa\u9187", "en_name": ["(22S)-Hydroxycholesterol", "Cholest-5-ene-3,22-diol, (3\u03b2,22S)-", "Cholest-5-ene-3\u03b2,22-diol, (20S,22S)-", "(3\u03b2,22S)-Cholest-5-ene-3,22-diol", "(22S)-Hydroxycholesterol", "(22S)-22-Hydroxycholesterol", "22\u03b2-Hydroxycholesterol", "Cholest-5-ene-3\u03b2,22(S)-diol"], "SMILES": "CC12C(C3C(C4(C)C(=CC3)CC(O)CC4)CC1)CCC2C(C(CCC(C)C)O)C", "physical_data": {"Molecular Weight": "402.65", "Molecular Formula": "C27H46O2", "Melting Point": "186 \u00b0C"}}