{"cas_no": "2234-16-4", "cn_name": "2,4-\u4e8c\u6c2f\u82ef\u4e59\u916e", "en_name": ["2\u2032,4\u2032-Dichloroacetophenone", "Ethanone, 1-(2,4-dichlorophenyl)-", "Acetophenone, 2\u2032,4\u2032-dichloro-", "1-(2,4-Dichlorophenyl)ethanone", "2\u2032,4\u2032-Dichloroacetophenone", "p-Chloro-2-chloroacetophenone", "o,p-Dichloroacetophenone", "NSC 33945", "2-Acetyl-5-chlorophenyl chloride", "2,4-Dichlorophenyl methyl ketone", "1-(2,4-Dichlorophenyl)ethan-1-one"], "SMILES": "C(C)(=O)C1=C(Cl)C=C(Cl)C=C1", "physical_data": {"Molecular Weight": "189.04", "Molecular Formula": "C8H6Cl2O", "Boiling Point": "140-150 \u00b0C @ Press: 115 Torr", "Melting Point": "33.5 \u00b0C", "Density": "1.322 g/cm\u00b3 @ Temp: 22 \u00b0C"}}