{"cas_no": "22353-38-4", "cn_name": "5-\u785d\u57fa-2-\u7f9f\u57fa-3-\u6c2f\u5421\u5576", "en_name": ["3-Chloro-5-nitro-2(1H)-pyridinone", "2(1H)-Pyridinone, 3-chloro-5-nitro-", "2-Pyridinol, 3-chloro-5-nitro-", "3-Chloro-5-nitro-2(1H)-pyridinone", "3-Chloro-2-hydroxy-5-nitropyridine", "3-Chloro-5-nitro-2-hydroxypyridine", "NSC 349953", "3-Chloro-5-nitro-2-pyridinol", "3-Chloro-5-nitropyridin-2-ol", "2-Hydroxy-3-chloro-5-nitropyridine", "3-Chloro-5-nitro-1H-pyridin-2-one", "3-Chloro-5-nitro-1,2-dihydropyridin-2-one"], "SMILES": "N(=O)(=O)C=1C=C(Cl)C(=O)NC1", "physical_data": {"Molecular Weight": "174.54", "Molecular Formula": "C5H3ClN2O3", "Melting Point": "165-167 \u00b0C"}}