{"cas_no": "22353-40-8", "cn_name": "5-\u785d\u57fa-2,3-\u4e8c\u6c2f\u5421\u5576", "en_name": ["2,3-Dichloro-5-nitropyridine", "Pyridine, 2,3-dichloro-5-nitro-", "2,3-Dichloro-5-nitropyridine"], "SMILES": "N(=O)(=O)C=1C=C(Cl)C(Cl)=NC1", "physical_data": {"Molecular Weight": "192.99", "Molecular Formula": "C5H2Cl2N2O2", "Boiling Point": "254 \u00b0C", "Melting Point": "107-115 \u00b0C"}}