{"cas_no": "223519-11-7", "cn_name": "3-\u6c28\u57fa-5\u6eb4-4-\u7532\u57fa\u82ef\u7532\u9178\u7532\u916f", "en_name": ["Benzoic acid, 3-amino-5-bromo-4-methyl-, methyl ester", "Benzoic acid, 3-amino-5-bromo-4-methyl-, methyl ester", "Methyl 3-amino-5-bromo-4-methylbenzoate", "3-Amino-5-bromo-4-methylBenzoic acid methyl ester", "3-Amino-5-bromo-4-methyl-benzoic acid methyl ester"], "SMILES": "C(OC)(=O)C1=CC(Br)=C(C)C(N)=C1", "physical_data": {"Molecular Weight": "244.09", "Molecular Formula": "C9H10BrNO2", "Melting Point": "117.5-119.5 \u00b0C"}}