{"cas_no": "2235-01-0", "cn_name": "\u82ef\u7532\u916e\u4e8c\u7532\u57fa\u7f29\u916e", "en_name": ["1,1\u2032-(Dimethoxymethylene)bis[benzene]", "Benzene, 1,1\u2032-(dimethoxymethylene)bis-", "Benzophenone, dimethyl acetal", "Methane, dimethoxydiphenyl-", "1,1\u2032-(Dimethoxymethylene)bis[benzene]", "Dimethoxydiphenylmethane", "Diphenyldimethoxymethane", "Benzophenone dimethyl ketal", "NSC 82332", "Diphenyl ketone dimethyl acetal", "[Dimethoxy(phenyl)methyl]benzene"], "SMILES": "C(OC)(OC)(C1=CC=CC=C1)C2=CC=CC=C2", "physical_data": {"Molecular Weight": "228.29", "Molecular Formula": "C15H16O2", "Boiling Point": "102-105 \u00b0C @ Press: 1 Torr", "Melting Point": "107 \u00b0C"}}