{"cas_no": "2235-46-3", "cn_name": "N,N-\u4e8c\u4e59\u57fa\u4e59\u9170\u4e59\u9170\u80fa", "en_name": ["Diethylacetoacetamide", "Butanamide, N,N-diethyl-3-oxo-", "Acetoacetamide, N,N-diethyl-", "N,N-Diethyl-3-oxobutanamide", "N,N-Diethylacetoacetamide", "1-(Diethylcarbamoyl)-2-propanone", "Diethylacetoacetamide", "N,N-Diethylacetylacetamide", "Promotor C", "N-Diethylacetoacetamide"], "SMILES": "N(C(CC(C)=O)=O)(CC)CC", "physical_data": {"Molecular Weight": "157.21", "Molecular Formula": "C8H15NO2", "Boiling Point": "126-127 \u00b0C", "Density": "0.995 g/cm\u00b3 @ Temp: 20 \u00b0C"}}