{"cas_no": "2235-15-6", "cn_name": "1-\u82ca\u916e", "en_name": ["1(2H)-Acenaphthylenone", "1(2H)-Acenaphthylenone", "1-Acenaphthenone", "2-Acenaphthone", "Acenaphthenone", "Acenaphthylen-1-one", "NSC 18756", "NSC 22341", "1-Acenaphthone", "1,2-Dihydroacenaphthylen-1-one", "2H-Acenaphthylen-1-one"], "SMILES": "O=C1C=2C3=C(C1)C=CC=C3C=CC2", "physical_data": {"Molecular Weight": "168.19", "Molecular Formula": "C12H8O", "Melting Point": "121-123 \u00b0C"}}