{"cas_no": "22352-19-8", "cn_name": "\u03b2-D-\u9ea6\u82bd\u7cd6\u516b\u4e59\u9178\u916f", "en_name": ["\u03b2-D-Glucopyranose, 4-O-(2,3,4,6-tetra-O-acetyl-\u03b1-D-glucopyranosyl)-, 1,2,3,6-tetraacetate", "\u03b2-D-Glucopyranose, 4-O-(2,3,4,6-tetra-O-acetyl-\u03b1-D-glucopyranosyl)-, 1,2,3,6-tetraacetate", "Maltose, octaacetate, \u03b2-", "\u03b2-D-Glucopyranose, 4-O-(2,3,4,6-tetra-O-acetyl-\u03b1-D-glucopyranosyl)-, tetraacetate", "\u03b2-Maltose octaacetate", "Octaacetyl-\u03b2-maltose", "\u03b2-D-Maltopyranose octaacetate", "Octa-O-acetyl-\u03b2-D-maltose", "NSC 1351", "Octa-O-acetyl-\u03b2-maltose", "\u03b2-D-Maltose octaacetate", "\u03b2-Maltose peracetate"], "SMILES": "O(C1C(OC(C)=O)C(OC(C)=O)C(OC(C)=O)OC1COC(C)=O)C2C(OC(C)=O)C(OC(C)=O)C(OC(C)=O)C(COC(C)=O)O2", "physical_data": {"Molecular Weight": "678.59", "Molecular Formula": "C28H38O19", "Boiling Point": "0.200-5 \u00b0C @ Press: 1 x 10<sup>-4</sup> Torr", "Melting Point": "159-160 \u00b0C"}}