{"cas_no": "22353-53-3", "cn_name": "2-\u7532\u6c27\u57fa-3-\u6c2f-5-\u785d\u57fa\u5421\u5576", "en_name": ["3-Chloro-2-methoxy-5-nitropyridine", "Pyridine, 3-chloro-2-methoxy-5-nitro-", "3-Chloro-2-methoxy-5-nitropyridine"], "SMILES": "N(=O)(=O)C=1C=C(Cl)C(OC)=NC1", "physical_data": {"Molecular Weight": "188.57", "Molecular Formula": "C6H5ClN2O3", "Melting Point": "63-64 \u00b0C"}}