{"cas_no": "22353-34-0", "cn_name": "3-\u6c28\u57fa-5-\u6c2f\u5421\u5576", "en_name": ["5-Chloro-3-pyridinamine", "3-Pyridinamine, 5-chloro-", "Pyridine, 3-amino-5-chloro-", "5-Chloro-3-pyridinamine", "3-Amino-5-chloropyridine", "(5-Chloropyridin-3-yl)amine", "3-Chloro-5-aminopyridine"], "SMILES": "ClC=1C=C(N)C=NC1", "physical_data": {"Molecular Weight": "128.56", "Molecular Formula": "C5H5ClN2", "Melting Point": "82 \u00b0C"}}