{"cas_no": "2235-00-9", "cn_name": "N-\u4e59\u70ef\u57fa\u5df1\u5185\u9170\u80fa", "en_name": ["Vinylcaprolactam", "2H-Azepin-2-one, 1-ethenylhexahydro-", "2H-Azepin-2-one, hexahydro-1-vinyl-", "1-Ethenylhexahydro-2H-azepin-2-one", "N-Vinylcaprolactam", "Vinylcaprolactam", "N-Vinyl-\u03b5-caprolactam", "1-Vinylcaprolactam", "N-Vinylazepan-2-one", "V-CAP", "V-Cap RC", "NVC", "1-Vinyl-2-azepanone", "1-Ethenylazepan-2-one", "1-Vinylazepan-2-one", "415464-100G"], "SMILES": "C(=C)N1C(=O)CCCCC1", "physical_data": {"Molecular Weight": "139.19", "Molecular Formula": "C8H13NO", "Boiling Point": "104.0-105.5 \u00b0C @ Press: 7.0-7.5 Torr", "Melting Point": "34-35 \u00b0C", "Density": "1.0084 g/cm\u00b3 @ Temp: 40 \u00b0C"}}