{"cas_no": "2235-25-8", "cn_name": "\u8c37\u4e50\u751f", "en_name": ["Ethylmercury phosphate", "Mercurate(2-), ethyl[phosphato(3-)-\u03baO]-, hydrogen (1:2)", "Mercury, (dihydrogen phosphato)ethyl-", "Mercurate(2-), ethyl[phosphato(3-)-O]-, dihydrogen", "Ethylmercury phosphate", "Mercurate(2-), ethyl[phosphato(3-)-\u03baO]-, dihydrogen", "Phosphoric acid, mercury complex", "Ethylmercuric phosphate", "Lignasan", "Ruberon granule", "Granosan M", "EMP", "Ceresan NI", "Fusariol universal"], "SMILES": "O(P(=O)([O-])[O-])[Hg]CC.[H+]", "physical_data": {"Molecular Weight": "", "Molecular Formula": "C2H5HgO4P.2H", "Melting Point": "179-180 \u00b0C"}}