{"cas_no": "22368-21-4", "cn_name": "\u6cfd\u5170\u6797\u7d20", "en_name": ["Eupatilin", "4H-1-Benzopyran-4-one, 2-(3,4-dimethoxyphenyl)-5,7-dihydroxy-6-methoxy-", "Flavone, 5,7-dihydroxy-3\u2032,4\u2032,6-trimethoxy-", "2-(3,4-Dimethoxyphenyl)-5,7-dihydroxy-6-methoxy-4H-1-benzopyran-4-one", "Eupatilin", "5,7-Dihydroxy-3\u2032,4\u2032,6-trimethoxyflavone", "NSC 122413", "Stillen", "5,7-Dihydroxy-6,3\u2032,4\u2032-trimethoxyflavone", "2-(3,4-Dimethoxyphenyl)-5,7-dihydroxy-6-methoxychromen-4-one"], "SMILES": "OC1=C2C(OC(=CC2=O)C3=CC(OC)=C(OC)C=C3)=CC(O)=C1OC", "physical_data": {"Molecular Weight": "344.32", "Molecular Formula": "C18H16O7", "Melting Point": "236-238 \u00b0C"}}