{"cas_no": "2236-01-3", "cn_name": "\u4e59\u9170\u7532\u57fa\u4e09\u82ef\u57fa\u6eb4\u5316\u93fb", "en_name": ["Phosphonium, (2-oxopropyl)triphenyl-, bromide (1:1)", "Phosphonium, (2-oxopropyl)triphenyl-, bromide (1:1)", "Phosphonium, acetonyltriphenyl-, bromide", "Phosphonium, (2-oxopropyl)triphenyl-, bromide", "Acetonyltriphenylphosphonium bromide", "(2-Oxopropyl)triphenylphosphonium bromide"], "SMILES": "[P+](CC(C)=O)(C1=CC=CC=C1)(C2=CC=CC=C2)C3=CC=CC=C3.[Br-]", "physical_data": {"Molecular Weight": "", "Molecular Formula": "C21H20OP.Br", "Melting Point": "221 \u00b0C"}}