{"cas_no": "22364-68-7", "cn_name": "\u90bb\u7532\u57fa\u82ef\u4e59\u8148", "en_name": ["2-Methylphenylacetonitrile", "Benzeneacetonitrile, 2-methyl-", "Acetonitrile, o-tolyl-", "2-Methylbenzeneacetonitrile", "o-Tolylacetonitrile", "2-Methylbenzyl cyanide", "o-Methylphenylacetonitrile", "2-Methylphenylacetonitrile", "o-Methylbenzyl cyanide", "o-Methylbenzyl nitrile", "NSC 75859", "2-(o-Tolyl)acetonitrile", "2-(2-Methylphenyl)acetonitrile"], "SMILES": "C(C#N)C1=C(C)C=CC=C1", "physical_data": {"Molecular Weight": "131.17", "Molecular Formula": "C9H9N", "Boiling Point": "244 \u00b0C", "Melting Point": "142-143 \u00b0C"}}