{"cas_no": "223673-61-8", "cn_name": "\u7c73\u62c9\u8d1d\u9686", "en_name": ["Mirabegron", "4-Thiazoleacetamide, 2-amino-N-[4-[2-[[(2R)-2-hydroxy-2-phenylethyl]amino]ethyl]phenyl]-", "2-Amino-N-[4-[2-[[(2R)-2-hydroxy-2-phenylethyl]amino]ethyl]phenyl]-4-thiazoleacetamide", "Mirabegron", "YM 178", "Betanis", "Myrbetriq", "2-(2-Amino-1,3-thiazol-4-yl)-N-[4-[2-[((2R)-2-hydroxy-2-phenylethyl)amino]ethyl]phenyl]acetamide", "(R)-Mirabegron", "2-(2-Amino-1,3-thiazol-4-yl)-N-[4-[2-[[(2R)-2-hydroxy-2-phenylethyl]amino]ethyl]phenyl]acetamide", "Betmiga"], "SMILES": "N(C(CC1=CSC(N)=N1)=O)C2=CC=C(CCNCC(O)C3=CC=CC=C3)C=C2", "physical_data": {"Molecular Weight": "396.51", "Molecular Formula": "C21H24N4O2S", "Melting Point": "140-142 \u00b0C"}}