{"cas_no": "223668-68-6", "cn_name": "\u53cc(\u4e94\u6c1f\u82ef\u57fa)\u4e8c\u7532\u6c27\u57fa\u7845\u70f7", "en_name": ["1,1\u2032-(Dimethoxysilylene)bis[2,3,4,5,6-pentafluorobenzene]", "Benzene, 1,1\u2032-(dimethoxysilylene)bis[2,3,4,5,6-pentafluoro-", "Silane, dimethoxybis(pentafluorophenyl)-", "1,1\u2032-(Dimethoxysilylene)bis[2,3,4,5,6-pentafluorobenzene]", "Bis(pentafluorophenyl)dimethoxysilane"], "SMILES": "[Si](OC)(OC)(C1=C(F)C(F)=C(F)C(F)=C1F)C2=C(F)C(F)=C(F)C(F)=C2F", "physical_data": {"Molecular Weight": "424.27", "Molecular Formula": "C14H6F10O2Si", "Boiling Point": "90 \u00b0C @ Press: 13 Torr"}}