{"cas_no": "2236-60-4", "cn_name": "2-\u6c28\u57fa-4-\u7f9f\u57fa\u8776\u5576", "en_name": ["Pterin", "4(3H)-Pteridinone, 2-amino-", "4(1H)-Pteridinone, 2-amino-", "2-Amino-4(3H)-pteridinone", "Pterin", "2-Amino-4-hydroxypteridine", "Pteridoxamine", "2-Amino-4-pteridone", "4-Oxopterin", "4-Oxo-2-aminopteridine", "2-Amino-4(1H)-pteridinone", "2-Amino-4-oxopteridine", "2-Aminopteridin-4-one", "Pterine", "NSC 11540", "NSC 170929", "NSC 18696", "2-Amino-1,4-dihydropteridin-4-one", "2-Amino-4,8-dihydropteridin-4-one", "2-Aminopteridin-4-ol", "2-Amino-1H-pteridin-4-one", "2-Amino-3,4-dihydropteridin-4-one"], "SMILES": "O=C1C=2C(=NC(N)=N1)NC=CN2", "physical_data": {"Molecular Weight": "163.14", "Molecular Formula": "C6H5N5O", "Melting Point": "&gt;360 \u00b0C"}}