{"cas_no": "2237-36-7", "cn_name": "4-\u7532\u6c27\u57fa\u6c34\u6768\u9178", "en_name": ["4-Methoxysalicylic acid", "Benzoic acid, 2-hydroxy-4-methoxy-", "p-Anisic acid, 2-hydroxy-", "2-Hydroxy-4-methoxybenzoic acid", "2-Hydroxy-p-anisic acid", "4-Methoxysalicylic acid", "4-Methoxy-2-hydroxybenzoic acid", "p-Methoxysalicylic acid", "NSC 94304"], "SMILES": "C(O)(=O)C1=C(O)C=C(OC)C=C1", "physical_data": {"Molecular Weight": "168.15", "Molecular Formula": "C8H8O4", "Melting Point": "157 \u00b0C"}}