{"cas_no": "2237-30-1", "cn_name": "\u95f4\u6c28\u57fa\u82ef\u7532\u8148", "en_name": ["3-Aminobenzonitrile", "Benzonitrile, 3-amino-", "Benzonitrile, m-amino-", "3-Aminobenzonitrile", "m-Aminobenzonitrile", "3-Cyanoaniline", "m-Cyanoaniline", "3-Cyanophenylamine", "NSC 7626", "3ABN"], "SMILES": "C(#N)C1=CC(N)=CC=C1", "physical_data": {"Molecular Weight": "118.14", "Molecular Formula": "C7H6N2", "Boiling Point": "289 \u00b0C", "Melting Point": "54.3 \u00b0C"}}