{"cas_no": "22373-78-0", "cn_name": "\u83ab\u80fd\u83cc\u7d20\u94a0\u76d0", "en_name": ["Monensin sodium", "Monensin, sodium salt (1:1)", "1,6-Dioxaspiro[4.5]decane-7-butyric acid, 2-[5-ethyltetrahydro-5-[tetrahydro-3-methyl-5-[tetrahydro-6-hydroxy-6-(hydroxymethyl)-3,5-dimethyl-2H-pyran-2-yl]-2-furyl]-2-furyl]-9-hydroxy-\u03b2-methoxy-\u03b1,\u03b3,2,8-tetramethyl-, monosodium salt", "Monensin, monosodium salt", "Monensin sodium salt", "Monensin sodium", "Rumensin", "Sodium monensin", "Coban 45", "Coban", "Monensin A sodium salt", "NSC 343257", "CRC Rumensin", "Kexxtone"], "SMILES": "CC1(OC2(OC(C(C(C(C(O)=O)C)OC)C)C(C)C(O)C2)CC1)C3OC(CC)(CC3)C4OC(CC4C)C5OC(CO)(O)C(C)CC5C.[Na]", "physical_data": {"Molecular Weight": "", "Molecular Formula": "C36H62O11.Na", "Melting Point": "267-269 \u00b0C"}}