{"cas_no": "2238-07-5", "cn_name": "\u4e8c\u7f29\u6c34\u7518\u6cb9\u919a", "en_name": ["2,2\u2032-[Oxybis(methylene)]bis[oxirane]", "Oxirane, 2,2\u2032-[oxybis(methylene)]bis-", "Ether, bis(2,3-epoxypropyl)", "2,2\u2032-[Oxybis(methylene)]bis[oxirane]", "Diglycidyl ether", "NSC 54739", "Bis(2,3-epoxypropyl) ether", "Di-2,3-epoxypropyl ether", "1,2,6,7-Diepoxy-4-oxaheptane"], "SMILES": "C(OCC1CO1)C2CO2", "physical_data": {"Molecular Weight": "130.14", "Molecular Formula": "C6H10O3", "Boiling Point": "260 \u00b0C @ Press: 760 Torr", "Density": "1.1195 g/cm\u00b3 @ Temp: 20 \u00b0C"}}