{"cas_no": "22385-77-9", "cn_name": "3,5-\u4e8c\u53d4\u4e01\u57fa\u6eb4\u82ef", "en_name": ["1-Bromo-3,5-bis(1,1-dimethylethyl)benzene", "Benzene, 1-bromo-3,5-bis(1,1-dimethylethyl)-", "Benzene, 1-bromo-3,5-di-tert-butyl-", "1-Bromo-3,5-bis(1,1-dimethylethyl)benzene", "3,5-Di-tert-butylbromobenzene", "1-Bromo-3,5-di-tert-butylbenzene", "3,5-Di-tert-butylphenyl bromide", "1-Bromo-3,5-tert-butylbenzene", "1,3-Di-tert-butyl-5-bromobenzene", "1-Bromo-3,5-ditert-butylbenzene", "1-Bromo-3,5-Di-t-butylbenzene", "3,5-Di-tert-butyl-1-bromobenzene", "1-Bromo-3,5-bis(tert-butyl)benzene"], "SMILES": "C(C)(C)(C)C1=CC(C(C)(C)C)=CC(Br)=C1", "physical_data": {"Molecular Weight": "269.22", "Molecular Formula": "C14H21Br", "Boiling Point": "147-148 \u00b0C @ Press: 12 Torr", "Melting Point": "63-64 \u00b0C"}}