{"cas_no": "2238-90-6", "cn_name": "\u795e\u7ecf\u9798\u6c28\u9187\u534a\u4e73\u7cd6\u82f7", "en_name": ["Psychosine", "\u03b2-D-Galactopyranoside, (2S,3R,4E)-2-amino-3-hydroxy-4-octadecen-1-yl", "Psychosine", "Galactopyranoside, 2-amino-3-hydroxy-4-octadecenyl, (E)-DL-erythro-\u03b2-D-", "\u03b2-D-Galactopyranoside, 2-amino-3-hydroxy-4-octadecenyl, [R-[R*,S*-(E)]]-", "Galactopyranoside, 2-amino-3-hydroxy-4-octadecenyl", "\u03b2-D-Galactopyranoside, (2S,3R,4E)-2-amino-3-hydroxy-4-octadecenyl", "(2S,3R,4E)-2-Amino-3-hydroxy-4-octadecen-1-yl \u03b2-D-galactopyranoside", "Galactosylsphingosine", "erythro-Psychosine", "MeSH ID: D011609"], "SMILES": "O(CC(C(C=CCCCCCCCCCCCCC)O)N)C1OC(CO)C(O)C(O)C1O", "physical_data": {"Molecular Weight": "461.63", "Molecular Formula": "C24H47NO7", "Melting Point": "190 \u00b0C (decomp)"}}