{"cas_no": "22381-53-9", "cn_name": "2-\u6c2f\u4e59\u57fa\u5bf9\u7532\u82ef\u57fa\u781c", "en_name": ["1-[(2-Chloroethyl)sulfonyl]-4-methylbenzene", "Benzene, 1-[(2-chloroethyl)sulfonyl]-4-methyl-", "Sulfone, 2-chloroethyl p-tolyl", "1-[(2-Chloroethyl)sulfonyl]-4-methylbenzene", "p-Toluene 2-chloroethyl sulphone", "1-Tosyl-2-chloroethane", "NSC 9012", "1-(2-Chloroethanesulfonyl)-4-methylbenzene"], "SMILES": "S(CCCl)(=O)(=O)C1=CC=C(C)C=C1", "physical_data": {"Molecular Weight": "218.70", "Molecular Formula": "C9H11ClO2S", "Boiling Point": "140 \u00b0C @ Press: 1.5 Torr", "Melting Point": "22.5 \u00b0C"}}