{"cas_no": "22383-85-3", "cn_name": "2,3,4-\u4e09\u7532\u6c27\u57fa-6-\u7532\u57fa\u82ef\u7532\u919b", "en_name": ["2,3,4-Trimethoxy-6-methylbenzaldehyde", "Benzaldehyde, 2,3,4-trimethoxy-6-methyl-", "o-Tolualdehyde, 4,5,6-trimethoxy-", "2,3,4-Trimethoxy-6-methylbenzaldehyde", "2-Methyl-4,5,6-trimethoxybenzaldehyde", "4,5,6-Trimethoxy-o-tolualdehyde"], "SMILES": "O(C)C1=C(OC)C(OC)=CC(C)=C1C=O", "physical_data": {"Molecular Weight": "210.23", "Molecular Formula": "C11H14O4", "Melting Point": "61-61.4 \u00b0C"}}