{"cas_no": "22381-54-0", "cn_name": "2-(\u5bf9\u7532\u82ef\u78fa\u9170)\u4e59\u9187", "en_name": ["2-[(4-Methylphenyl)sulfonyl]ethanol", "Ethanol, 2-[(4-methylphenyl)sulfonyl]-", "Ethanol, 2-(p-tolylsulfonyl)-", "2-[(4-Methylphenyl)sulfonyl]ethanol", "2-(p-Tolylsulfonyl)ethanol", "2-(4-Methylphenylsulfonyl)ethanol", "2-(4-Toluenesulfonyl)ethanol", "4-Methylphenyl 2-hydroxyethyl sulfone", "NSC 70003", "2-(p-Methylphenylsulfonyl)ethanol", "2-(4-Methylbenzenesulfonyl)ethan-1-ol", "2-Tosylethan-1-ol"], "SMILES": "S(CCO)(=O)(=O)C1=CC=C(C)C=C1", "physical_data": {"Molecular Weight": "200.25", "Molecular Formula": "C9H12O3S", "Boiling Point": "168-170 \u00b0C @ Press: 0.1 Torr", "Melting Point": "57 \u00b0C"}}