{"cas_no": "22384-63-0", "cn_name": "5,6,3',4'-\u56db\u7f9f\u57fa-7-\u7532\u6c27\u57fa\u9ec4\u916e", "en_name": ["Pedalitin", "4H-1-Benzopyran-4-one, 2-(3,4-dihydroxyphenyl)-5,6-dihydroxy-7-methoxy-", "Flavone, 3\u2032,4\u2032,5,6-tetrahydroxy-7-methoxy-", "Pedalitin", "2-(3,4-Dihydroxyphenyl)-5,6-dihydroxy-7-methoxy-4H-1-benzopyran-4-one", "6-Hydroxyluteolin-7-methyl ether", "5,6,3\u2032,4\u2032-Tetrahydroxy-7-methoxyflavone", "2-(3,4-Dihydroxyphenyl)-5,6-dihydroxy-7-methoxychromen-4-one"], "SMILES": "OC1=C2C(OC(=CC2=O)C3=CC(O)=C(O)C=C3)=CC(OC)=C1O", "physical_data": {"Molecular Weight": "316.26", "Molecular Formula": "C16H12O7", "Melting Point": "300-301 \u00b0C"}}