{"cas_no": "22398-80-7", "cn_name": "\u78f7\u5316\u94df", "en_name": ["Indium phosphide", "Indium phosphide (InP)", "Indium monophosphide", "Indium phosphide"], "SMILES": "[In]#P", "physical_data": {"Molecular Weight": "", "Molecular Formula": "InP", "Melting Point": "1070 \u00b0C", "Density": "4.81 g/cm\u00b3"}}