{"cas_no": "2239-24-9", "cn_name": "SERRATENEDIOL", "en_name": ["(3S,4aR,6aS,9aR,11S,13aR,13bS,15aS,15bR)-2,3,4,4a,5,6,6a,7,9,9a,10,11,12,13,13a,13b,14,15,15a,15b-Eicosahydro-4,4,6a,10,10,13a,15b-heptamethyl-1H-cyclohepta[1,2-a:5,4-a\u2032]dinaphthalene-3,11-diol", "1H-Cyclohepta[1,2-a:5,4-a\u2032]dinaphthalene-3,11-diol, 2,3,4,4a,5,6,6a,7,9,9a,10,11,12,13,13a,13b,14,15,15a,15b-eicosahydro-4,4,6a,10,10,13a,15b-heptamethyl-, (3S,4aR,6aS,9aR,11S,13aR,13bS,15aS,15bR)-", "C(14a)-Homo-27-norgammacer-14-ene-3\u03b2,21\u03b1-diol", "Serratenediol", "C(14a)-Homo-27-norgammacer-14-ene-3,21-diol, (3\u03b2,21\u03b1)-", "(3S,4aR,6aS,9aR,11S,13aR,13bS,15aS,15bR)-2,3,4,4a,5,6,6a,7,9,9a,10,11,12,13,13a,13b,14,15,15a,15b-Eicosahydro-4,4,6a,10,10,13a,15b-heptamethyl-1H-cyclohepta[1,2-a:5,4-a\u2032]dinaphthalene-3,11-diol", "Cathaya D", "1H-Cyclohepta[1,2-a:5,4-a\u2032]dinaphthalene-3,11-diol, 2,3,4,4a,5,6,6a,7,9,9a,10,11,12,13,13a,13b,14,15,15a,15b-eicosahydro-4,4,6a,10,10,13a,15b-heptamethyl-, [3S-(3\u03b1,4a\u03b2,6a\u03b1,9a\u03b1,11\u03b2,13a\u03b2,13b\u03b1,15a\u03b2,15b\u03b1)]-", "C(14a)-Homo-27-norgammacer-14-ene-3\u03b2,21\u03b1-diol", "3\u03b2-Hydroxyserrat-14-en-21\u03b1-ol", "Serrat-14-en-3\u03b2,21\u03b1-diol"], "SMILES": "CC12C3C(C)(CC=4C(CC3)C5(C)C(CC4)C(C)(C)C(O)CC5)CCC1C(C)(C)C(O)CC2", "physical_data": {"Molecular Weight": "442.72", "Molecular Formula": "C30H50O2", "Melting Point": "302.5-304.5 \u00b0C"}}