{"cas_no": "22398-09-0", "cn_name": "4-\u6b63\u4e19\u57fa\u54cc\u5576", "en_name": ["4-Propylpiperidine", "Piperidine, 4-propyl-", "4-Propylpiperidine", "4-n-Propylpiperidine", "NSC 24355"], "SMILES": "C(CC)C1CCNCC1", "physical_data": {"Molecular Weight": "127.23", "Molecular Formula": "C8H17N", "Boiling Point": "173 \u00b0C", "Density": "0.864 g/cm\u00b3 @ Temp: 23 \u00b0C"}}