{"cas_no": "22396-77-6", "cn_name": "4-(\u4e8c\u4e59\u6c28\u57fa)-2-\u4e01\u7094\u9187\u4e59\u9178\u916f", "en_name": ["2-Butyn-1-ol, 4-(diethylamino)-, 1-acetate", "2-Butyn-1-ol, 4-(diethylamino)-, 1-acetate", "2-Butyn-1-ol, 4-(diethylamino)-, acetate (ester)", "2-Butyn-1-ol, 4-diethylamino-, acetate", "4-Diethylamino-2-butynyl acetate", "1-Acetoxy-4-diethylamino-2-butyne"], "SMILES": "N(CC#CCOC(C)=O)(CC)CC", "physical_data": {"Molecular Weight": "183.25", "Molecular Formula": "C10H17NO2", "Boiling Point": "94 \u00b0C @ Press: 0.5 Torr"}}