{"cas_no": "22395-24-0", "cn_name": "3',4',7-\u4e09\u7532\u6c27\u57fa\u9ec4\u916e", "en_name": ["2-(3,4-Dimethoxyphenyl)-7-methoxy-4H-1-benzopyran-4-one", "4H-1-Benzopyran-4-one, 2-(3,4-dimethoxyphenyl)-7-methoxy-", "Flavone, 3\u2032,4\u2032,7-trimethoxy-", "2-(3,4-Dimethoxyphenyl)-7-methoxy-4H-1-benzopyran-4-one", "3\u2032,4\u2032,7-Trimethoxyflavone", "7,3\u2032,4\u2032-Trimethoxyflavone", "2-(3,4-Dimethoxyphenyl)-7-methoxy-4H-chromen-4-one", "2-(3,4-Dimethoxyphenyl)-7-methoxychromen-4-one"], "SMILES": "O=C1C=2C(OC(=C1)C3=CC(OC)=C(OC)C=C3)=CC(OC)=CC2", "physical_data": {"Molecular Weight": "312.32", "Molecular Formula": "C18H16O5", "Melting Point": "176 \u00b0C"}}