{"cas_no": "2239-88-5", "cn_name": "3,3'-O-\u4e8c\u7532\u57fa\u97a3\u82b1\u9178", "en_name": ["3,3\u2032-Di-O-methylellagic acid", "[1]Benzopyrano[5,4,3-cde][1]benzopyran-5,10-dione, 2,7-dihydroxy-3,8-dimethoxy-", "Diphenic acid, 4,4\u2032,6,6\u2032-tetrahydroxy-5,5\u2032-dimethoxy-, di-\u03b4-lactone", "2,7-Dihydroxy-3,8-dimethoxy[1]benzopyrano[5,4,3-cde][1]benzopyran-5,10-dione", "3,3\u2032-Di-O-methylellagic acid", "Ellagic acid, 3,3\u2032-di-O-methyl-", "Ellagic acid 3,3\u2032-dimethyl ether", "3,3\u2032-Dimethoxyellagic acid", "3,3\u2032-Dimethylellagic acid", "Dimethoxy ellagic acid"], "SMILES": "O(C)C=1C2=C3C4=C(C(OC)=C(O)C=C4C(=O)O2)OC(=O)C3=CC1O", "physical_data": {"Molecular Weight": "330.25", "Molecular Formula": "C16H10O8", "Melting Point": "330-331 \u00b0C"}}