{"cas_no": "224-42-0", "cn_name": "\u4e8c\u82ef\u5e76(A,J)\u4e2b\u5576", "en_name": ["Dibenz[a,j]acridine", "Dibenz[a,j]acridine", "7-Azadibenz[a,j]anthracene", "1,2:7,8-Dibenzacridine", "NSC 114903"], "SMILES": "C12=C3C(=CC=C1N=C4C(=C2)C=5C(C=C4)=CC=CC5)C=CC=C3", "physical_data": {"Molecular Weight": "279.33", "Molecular Formula": "C21H13N", "Melting Point": "216 \u00b0C"}}