{"cas_no": "2240-25-7", "cn_name": "5-\u6eb4\u80de\u5627\u5576", "en_name": ["5-Bromocytosine", "2(1H)-Pyrimidinone, 6-amino-5-bromo-", "Cytosine, 5-bromo-", "2(1H)-Pyrimidinone, 4-amino-5-bromo-", "6-Amino-5-bromo-2(1H)-pyrimidinone", "5-Bromocytosine", "4-Amino-5-bromo-2-hydroxypyrimidine"], "SMILES": "NC1=C(Br)C=NC(=O)N1", "physical_data": {"Molecular Weight": "190.00", "Molecular Formula": "C4H4BrN3O", "Melting Point": "245-255 \u00b0C (decomp)"}}