{"cas_no": "2240-41-7", "cn_name": "\u82ef\u57fa\u81a6\u9178\u4e8c\u7532\u916f", "en_name": ["Dimethyl P-phenylphosphonate", "Phosphonic acid, P-phenyl-, dimethyl ester", "Phosphonic acid, phenyl-, dimethyl ester", "Dimethyl P-phenylphosphonate", "Dimethyl phenylphosphonate", "Dimethyl benzenephosphonate", "Phenylphosphonic acid dimethyl ester", "Dimethoxyphenylphosphine oxide", "NSC 62258", "O,O-Dimethyl phenylphosphonate"], "SMILES": "P(OC)(OC)(=O)C1=CC=CC=C1", "physical_data": {"Molecular Weight": "186.14", "Molecular Formula": "C8H11O3P", "Boiling Point": "103-104 \u00b0C @ Press: 4 Torr"}}