{"cas_no": "22419-74-5", "cn_name": "\u56e0\u9999\u915a", "en_name": ["Incensole", "15-Oxabicyclo[10.2.1]pentadeca-5,9-dien-2-ol, 1,5,9-trimethyl-12-(1-methylethyl)-, (1R,2S,5E,9E,12S)-", "15-Oxabicyclo[10.2.1]pentadeca-5,9-dien-2-ol, 12-isopropyl-1,5,9-trimethyl-", "(1R,2S,5E,9E,12S)-1,5,9-Trimethyl-12-(1-methylethyl)-15-oxabicyclo[10.2.1]pentadeca-5,9-dien-2-ol", "Incensol", "Incensole"], "SMILES": "C(C)(C)C12OC(C)(CC1)C(O)CCC(C)=CCCC(C)=CC2", "physical_data": {"Molecular Weight": "306.48", "Molecular Formula": "C20H34O2", "Melting Point": "77.6 \u00b0C"}}