{"cas_no": "22414-24-0", "cn_name": "2,5-\u4e8c\u6c22-2,5-\u4e8c\u7532\u6c27\u57fa-2-\u7532\u57fa\u544b\u5583", "en_name": ["2,5-Dihydro-2,5-dimethoxy-2-methylfuran", "Furan, 2,5-dihydro-2,5-dimethoxy-2-methyl-", "2,5-Dihydro-2,5-dimethoxy-2-methylfuran", "2-Methyl-2,5-dimethoxy-2,5-dihydrofuran", "2,5-Dimethoxy-2-methyl-2,5-dihydrofuran"], "SMILES": "O(C)C1(C)OC(OC)C=C1", "physical_data": {"Molecular Weight": "144.17", "Molecular Formula": "C7H12O3", "Boiling Point": "152 \u00b0C"}}