{"cas_no": "22427-39-0", "cn_name": "\u4eba\u53c2\u7682\u82f7 Rg1", "en_name": ["Ginsenoside Rg1", "\u03b2-D-Glucopyranoside, (3\u03b2,6\u03b1,12\u03b2)-3,12-dihydroxydammar-24-ene-6,20-diyl bis-", "Ginsenoside Rg1", "Panaxoside A", "Dammarane, \u03b2-D-glucopyranoside deriv.", "(3\u03b2,6\u03b1,12\u03b2)-3,12-Dihydroxydammar-24-ene-6,20-diyl bis-\u03b2-D-glucopyranoside", "Sanchinoside C1", "Ginsenoside A2", "Panaxoside Rg1", "Ginsenoside g1", "Sanchinoside Rg1", "Panaxsaponin Rg1", "Rg1 ginsenoside", "Rg1 ginsenoside"], "SMILES": "CC12C(C3(C)C(C(OC4OC(CO)C(O)C(O)C4O)C1)C(C)(C)C(O)CC3)CC(O)C5C2(C)CCC5C(OC6OC(CO)C(O)C(O)C6O)(CCC=C(C)C)C", "physical_data": {"Molecular Weight": "801.01", "Molecular Formula": "C42H72O14", "Melting Point": "191-194 \u00b0C"}}