{"cas_no": "22424-58-4", "cn_name": "5-\u82c4\u6c27\u57fa-2-\u785d\u57fa\u7532\u82ef", "en_name": ["2-Methyl-1-nitro-4-(phenylmethoxy)benzene", "Benzene, 2-methyl-1-nitro-4-(phenylmethoxy)-", "Ether, benzyl 4-nitro-m-tolyl", "2-Methyl-1-nitro-4-(phenylmethoxy)benzene", "NSC 86149", "1-(Benzyloxy)-3-methyl-4-nitrobenzene", "5-Benzyloxy-2-nitrotoluene", "1-((3-Methyl-4-nitrophenoxy)methyl)benzene"], "SMILES": "N(=O)(=O)C1=C(C)C=C(OCC2=CC=CC=C2)C=C1", "physical_data": {"Molecular Weight": "243.26", "Molecular Formula": "C14H13NO3", "Melting Point": "73-74 \u00b0C"}}