{"cas_no": "2243-06-3", "cn_name": "4-\u96c4\u70ef\u4e09\u916e", "en_name": ["Androst-4-ene-3,6,17-trione", "Androst-4-ene-3,6,17-trione", "4-Androstene-3,6,17-trione", "6OXO"], "SMILES": "CC12C3C(C4C(C)(CC3)C(=O)CC4)CC(=O)C1=CC(=O)CC2", "physical_data": {"Molecular Weight": "300.39", "Molecular Formula": "C19H24O3", "Melting Point": "216-217 \u00b0C"}}