{"cas_no": "2243-27-8", "cn_name": "\u58ec\u57fa\u8148", "en_name": ["Nonanenitrile", "Nonanenitrile", "Pelargonitrile", "n-Nonanonitrile", "1-Cyanooctane", "Nonanonitrile", "n-Nonanenitrile", "n-Octyl cyanide", "Octyl cyanide", "1-Octyl cyanide", "Pelargononitrile", "Nonanitrile", "NSC 5560"], "SMILES": "C(CCCC#N)CCCC", "physical_data": {"Molecular Weight": "139.24", "Molecular Formula": "C9H17N", "Boiling Point": "224.4 \u00b0C", "Melting Point": "-34.2 \u00b0C", "Density": "0.9375 g/cm\u00b3 @ Temp: 8 \u00b0C"}}