{"cas_no": "2243-61-0", "cn_name": "1,4-\u4e8c\u80fa\u8418", "en_name": ["1,4-Naphthalenediamine", "1,4-Naphthalenediamine", "1,4-Diaminonaphthalene", "1,4-Naphthylenediamine"], "SMILES": "NC=1C2=C(C(N)=CC1)C=CC=C2", "physical_data": {"Molecular Weight": "158.20", "Molecular Formula": "C10H10N2", "Melting Point": "120 \u00b0C"}}