{"cas_no": "2243-47-2", "cn_name": "3-\u6c28\u57fa\u8054\u82ef", "en_name": ["3-Aminobiphenyl", "[1,1\u2032-Biphenyl]-3-amine", "3-Biphenylamine", "3-Aminobiphenyl", "m-Phenylaniline", "m-Aminobiphenyl", "3-Phenylaniline", "(1,1\u2032-Biphenyl-3-yl)amine", "3-Amino-1,1\u2032-biphenyl"], "SMILES": "NC=1C=C(C=CC1)C2=CC=CC=C2", "physical_data": {"Molecular Weight": "169.22", "Molecular Formula": "C12H11N", "Boiling Point": "177-178 \u00b0C @ Press: 18 Torr", "Melting Point": "31-31.5 \u00b0C"}}