{"cas_no": "2243-08-5", "cn_name": "6-\u7fb0\u57fa\u9ec4\u4f53\u916e", "en_name": ["Pregn-4-ene-3,6,20-trione", "Pregn-4-ene-3,6,20-trione", "6-Oxoprogesterone", "6-Ketoprogesterone", "NSC 76757"], "SMILES": "CC12C3C(C4C(C)(CC3)C(C(C)=O)CC4)CC(=O)C1=CC(=O)CC2", "physical_data": {"Molecular Weight": "328.45", "Molecular Formula": "C21H28O3", "Melting Point": "185-188 \u00b0C"}}