{"cas_no": "2243-83-6", "cn_name": "2-\u8418\u7532\u9170\u6c2f", "en_name": ["2-Naphthoyl chloride", "2-Naphthalenecarbonyl chloride", "2-Naphthoyl chloride", "\u03b2-Naphthoyl chloride", "\u03b2-Naphthalenecarbonyl chloride", "2-Naphthoic chloride", "2-(Chlorocarbonyl)naphthalene", "2-Naphthalenecarboxylic acid chloride", "2-Naphthoic acid chloride", "NSC 9842", "Naphthalen-2-carbonyl chloride"], "SMILES": "C(Cl)(=O)C1=CC2=C(C=C1)C=CC=C2", "physical_data": {"Molecular Weight": "190.63", "Molecular Formula": "C11H7ClO", "Boiling Point": "305 \u00b0C", "Melting Point": "51 \u00b0C"}}