{"cas_no": "2243-42-7", "cn_name": "2-\u82ef\u6c27\u57fa\u82ef\u7532\u9178", "en_name": ["2-Phenoxybenzoic acid", "Benzoic acid, 2-phenoxy-", "Benzoic acid, o-phenoxy-", "2-Phenoxybenzoic acid", "o-Phenoxybenzoic acid", "NSC 39656", "2-(Phenyloxy)benzoic acid", "2-PBA"], "SMILES": "O(C1=C(C(O)=O)C=CC=C1)C2=CC=CC=C2", "physical_data": {"Molecular Weight": "214.22", "Molecular Formula": "C13H10O3", "Boiling Point": "355 \u00b0C", "Melting Point": "113 \u00b0C"}}