{"cas_no": "2243-62-1", "cn_name": "1,5-\u8418\u4e8c\u80fa", "en_name": ["1,5-Diaminonaphthalene", "1,5-Naphthalenediamine", "1,5-Diaminonaphthalene", "1,5-Naphthylenediamine", "NSC 401110", "1,5-DAN"], "SMILES": "NC=1C2=C(C(N)=CC=C2)C=CC1", "physical_data": {"Molecular Weight": "158.20", "Molecular Formula": "C10H10N2", "Melting Point": "190 \u00b0C", "Density": "1.4 g/cm\u00b3 @ Temp: 25 \u00b0C"}}