{"cas_no": "2243-56-3", "cn_name": "1-\u8418\u80bc\u76d0\u9178\u76d0", "en_name": ["1-Naphthylhydrazine hydrochloride", "Hydrazine, 1-naphthalenyl-, hydrochloride (1:1)", "Hydrazine, 1-naphthalenyl-, monohydrochloride", "\u03b1-Naphthylhydrazine monohydrochloride", "1-Naphthylhydrazine hydrochloride", "1-Hydrazinonaphthalene monohydrochloride", "N-(1-Naphthyl)hydrazine hydrochloride", "Naphthalen-1-ylhydrazine hydrochloride", "1-Naphthalenylhydrazine hydrochloride"], "SMILES": "N(N)C=1C2=C(C=CC1)C=CC=C2.Cl", "physical_data": {"Molecular Weight": "", "Molecular Formula": "C10H10N2.ClH", "Melting Point": "119 \u00b0C"}}