{"cas_no": "22433-89-2", "cn_name": "4-\u6eb4\u95f4\u82ef\u4e8c\u7532\u8148", "en_name": ["4-Bromo-1,3-benzenedicarbonitrile", "1,3-Benzenedicarbonitrile, 4-bromo-", "Isophthalonitrile, 4-bromo-", "4-Bromo-1,3-benzenedicarbonitrile", "4-Bromoisophthalonitrile", "2,4-Dicyanobromobenzene"], "SMILES": "C(#N)C1=CC(C#N)=CC=C1Br", "physical_data": {"Molecular Weight": "207.03", "Molecular Formula": "C8H3BrN2", "Melting Point": "191-193 \u00b0C"}}