{"cas_no": "2243-98-3", "cn_name": "1-\u5341\u4e00\u7094", "en_name": ["1-Undecyne", "1-Undecyne", "NSC 87633"], "SMILES": "C(CCCCC)CCCC#C", "physical_data": {"Molecular Weight": "152.28", "Molecular Formula": "C11H20", "Boiling Point": "196 \u00b0C", "Melting Point": "-25 \u00b0C", "Density": "0.8024 g/cm\u00b3 @ Temp: 13 \u00b0C"}}