{"cas_no": "22433-91-6", "cn_name": "2-\u6eb4-1,3-\u95f4\u82ef\u4e8c\u7532\u9178", "en_name": ["2-Bromo-1,3-benzenedicarboxylic acid", "1,3-Benzenedicarboxylic acid, 2-bromo-", "Isophthalic acid, 2-bromo-", "2-Bromo-1,3-benzenedicarboxylic acid", "2-Bromoisophthalic acid", "NSC 312822", "NSC 312849"], "SMILES": "C(O)(=O)C1=C(Br)C(C(O)=O)=CC=C1", "physical_data": {"Molecular Weight": "245.03", "Molecular Formula": "C8H5BrO4", "Melting Point": "218 \u00b0C"}}