{"cas_no": "2243-80-3", "cn_name": "3-\u785d\u57fa\u82ef\u7532\u916e", "en_name": ["3-Nitrobenzophenone", "Methanone, (3-nitrophenyl)phenyl-", "Benzophenone, 3-nitro-", "(3-Nitrophenyl)phenylmethanone", "m-Nitrobenzophenone", "3-Nitrobenzophenone", "NSC 37083"], "SMILES": "C(=O)(C1=CC(N(=O)=O)=CC=C1)C2=CC=CC=C2", "physical_data": {"Molecular Weight": "227.22", "Molecular Formula": "C13H9NO3", "Boiling Point": "234 \u00b0C @ Press: 18 Torr", "Melting Point": "95 \u00b0C"}}