{"cas_no": "2243-81-4", "cn_name": "\u8418-1-\u7532\u9170\u80fa", "en_name": ["1-Naphthalenecarboxamide", "1-Naphthalenecarboxamide", "1-Naphthamide", "Naphthylacetamide", "1-Naphthalenecarboxylic acid amide", "1-Naphthylamide", "NSC 38871"], "SMILES": "C(N)(=O)C=1C2=C(C=CC1)C=CC=C2", "physical_data": {"Molecular Weight": "171.20", "Molecular Formula": "C11H9NO", "Melting Point": "205.8 \u00b0C"}}