{"cas_no": "2243-82-5", "cn_name": "2-\u8418\u9170\u80fa", "en_name": ["2-Naphthalenecarboxamide", "2-Naphthalenecarboxamide", "2-Naphthamide", "NSC 171209"], "SMILES": "C(N)(=O)C1=CC2=C(C=C1)C=CC=C2", "physical_data": {"Molecular Weight": "171.20", "Molecular Formula": "C11H9NO", "Melting Point": "191-192 \u00b0C"}}