{"cas_no": "224311-49-3", "cn_name": "2-\u4e8c\u53d4\u4e01\u57fa\u78f7-2-(N,N-\u4e8c\u7532\u6c28\u57fa)\u8054\u82ef", "en_name": ["2\u2032-[Bis(1,1-dimethylethyl)phosphino]-N,N-dimethyl[1,1\u2032-biphenyl]-2-amine", "[1,1\u2032-Biphenyl]-2-amine, 2\u2032-[bis(1,1-dimethylethyl)phosphino]-N,N-dimethyl-", "2\u2032-[Bis(1,1-dimethylethyl)phosphino]-N,N-dimethyl[1,1\u2032-biphenyl]-2-amine", "2-(Di-tert-butylphosphino)-2\u2032-(dimethylamino)biphenyl", "2\u2032-(Di-tert-butylphosphino)-N,N-dimethylbiphenyl-2-amine", "t-BuDavePhos", "2-[Di(tert-butyl)phosphino]-2\u2032-(dimethylamino)-[1,1\u2032-biphenyl]", "Di-tert-butyl[2-[2-(dimethylamino)phenyl]phenyl]phosphine", "2-(2-Ditert-butylphosphanylphenyl)-N,N-dimethylaniline"], "SMILES": "P(C(C)(C)C)(C(C)(C)C)C1=C(C=CC=C1)C2=C(N(C)C)C=CC=C2", "physical_data": {"Molecular Weight": "341.47", "Molecular Formula": "C22H32NP", "Melting Point": "111-113 \u00b0C"}}