{"cas_no": "2243-54-1", "cn_name": "2-\u8418\u57fa\u5f02\u6c30\u9178\u916f", "en_name": ["2-Naphthyl isocyanate", "Naphthalene, 2-isocyanato-", "2-Isocyanatonaphthalene", "2-Naphthyl isocyanate", "\u03b2-Naphthyl isocyanate", "(Naphthalen-2-yl)isocyanate", "NSC 5529"], "SMILES": "N(=C=O)C1=CC2=C(C=C1)C=CC=C2", "physical_data": {"Molecular Weight": "169.18", "Molecular Formula": "C11H7NO", "Boiling Point": "144 \u00b0C @ Press: 14 Torr", "Melting Point": "56 \u00b0C"}}