{"cas_no": "2243-35-8", "cn_name": "2-\u4e59\u9170\u6c27\u57fa\u82ef\u4e59\u916e", "en_name": ["2-(Acetyloxy)-1-phenylethanone", "Ethanone, 2-(acetyloxy)-1-phenyl-", "Acetophenone, 2-hydroxy-, acetate", "2-(Acetyloxy)-1-phenylethanone", "\u03c9-Acetoxyacetophenone", "Phenacyl acetate", "2-Hydroxyacetophenoneacetate", "\u03b1-Acetoxyacetophenone", "2-Acetoxyacetophenone", "Acetic acid 2-oxo-2-phenylethyl ester", "NSC 9837", "Benzoylmethyl acetate", "2-Oxo-2-phenylethyl acetate"], "SMILES": "C(COC(C)=O)(=O)C1=CC=CC=C1", "physical_data": {"Molecular Weight": "178.18", "Molecular Formula": "C10H10O3", "Boiling Point": "270 \u00b0C", "Melting Point": "49 \u00b0C"}}