{"cas_no": "2243-67-6", "cn_name": "(6-\u6c28\u57fa-2-\u8418\u57fa)\u80fa", "en_name": ["2,6-Naphthalenediamine", "2,6-Naphthalenediamine", "C.I. 76600", "2,6-Naphthylenediamine", "2,6-Diaminonaphthalene"], "SMILES": "NC1=CC2=C(C=C(N)C=C2)C=C1", "physical_data": {"Molecular Weight": "158.20", "Molecular Formula": "C10H10N2", "Melting Point": "222 \u00b0C"}}