{"cas_no": "22438-39-7", "cn_name": "\u6b63\u7678\u57fa\u786b\u5316\u7532\u57fa", "en_name": ["1-(Methylthio)decane", "Decane, 1-(methylthio)-", "Sulfide, decyl methyl", "1-(Methylthio)decane", "Methyl decyl sulfide", "Decyl methyl sulfide", "2-Thiadodecane", "n-Decyl methyl sulfide", "1-Methylsulfanyldecane"], "SMILES": "C(CCCCSC)CCCCC", "physical_data": {"Molecular Weight": "188.37", "Molecular Formula": "C11H24S", "Boiling Point": "125 \u00b0C @ Press: 12 Torr"}}