{"cas_no": "22442-48-4", "cn_name": "3-(4-\u7532\u6c27\u57fa\u82ef\u57fa)\u4e19\u8148", "en_name": ["4-Methoxybenzenepropanenitrile", "Benzenepropanenitrile, 4-methoxy-", "Hydrocinnamonitrile, p-methoxy-", "4-Methoxybenzenepropanenitrile", "3-(4-Methoxyphenyl)propionitrile", "\u03b2-(4-Methoxyphenyl)propionitrile", "3-(p-Methoxyphenyl)propionitrile", "3-(4-Methoxyphenyl)propanenitrile"], "SMILES": "C(CC#N)C1=CC=C(OC)C=C1", "physical_data": {"Molecular Weight": "161.20", "Molecular Formula": "C10H11NO", "Boiling Point": "172-173 \u00b0C @ Press: 17 Torr"}}