{"cas_no": "2244-16-8", "cn_name": "\u53f3\u65cb\u9999\u82b9\u916e", "en_name": ["(+)-Carvone", "2-Cyclohexen-1-one, 2-methyl-5-(1-methylethenyl)-, (5S)-", "p-Mentha-6,8-dien-2-one, (S)-(+)-", "2-Cyclohexen-1-one, 2-methyl-5-(1-methylethenyl)-, (S)-", "(5S)-2-Methyl-5-(1-methylethenyl)-2-cyclohexen-1-one", "(+)-Carvone", "d-Carvone", "d-1-Methyl-4-isopropenyl-6-cyclohexen-2-one", "Carvone, (+)-", "(S)-Carvone", "(S)-(+)-Carvone", "D-(+)-Carvone", "D-Carvone", "Talent", "(S)-(+)-p-Mentha-6,8-dien-2-one", "(S)-2-Methyl-5-(1-methylethenyl)-2-cyclohexen-1-one", "(S)-2-Methyl-5-(prop-1-en-2-yl)cyclohex-2-en-1-one", "(5S)-2-Methyl-5-(prop-1-en-2-yl)cyclohex-2-en-1-one", "(S)-2-Methyl-5-(prop-1-en-2-yl)cyclohex-2-enone"], "SMILES": "C(C)(=C)C1CC(=O)C(C)=CC1", "physical_data": {"Molecular Weight": "150.22", "Molecular Formula": "C10H14O", "Boiling Point": "231 \u00b0C", "Melting Point": "&lt;15 \u00b0C", "Density": "0.960 g/cm\u00b3 @ Temp: 24 \u00b0C"}}