{"cas_no": "22441-21-0", "cn_name": "\u53cc\u4e94\u6c2f\u4e8c\u82ef\u4e8c\u786b", "en_name": ["Bis(2,3,4,5,6-pentachlorophenyl) disulfide", "Disulfide, bis(2,3,4,5,6-pentachlorophenyl)", "Disulfide, bis(pentachlorophenyl)", "Bis(2,3,4,5,6-pentachlorophenyl) disulfide", "Bis(pentachlorophenyl) disulfide", "Perchlorodiphenyl disulfide"], "SMILES": "S(SC1=C(Cl)C(Cl)=C(Cl)C(Cl)=C1Cl)C2=C(Cl)C(Cl)=C(Cl)C(Cl)=C2Cl", "physical_data": {"Molecular Weight": "562.79", "Molecular Formula": "C12Cl10S2", "Melting Point": "237 \u00b0C"}}