{"cas_no": "22446-37-3", "cn_name": "2-\u7f9f\u57fa\u82ef\u4e59\u9178\u7532\u916f", "en_name": ["Methyl (2-hydroxyphenyl)acetate", "Benzeneacetic acid, 2-hydroxy-, methyl ester", "Acetic acid, (o-hydroxyphenyl)-, methyl ester", "Methyl o-hydroxyphenylacetate", "Methyl 2-hydroxybenzeneacetate", "2-Hydroxyphenylacetic acid methyl ester", "Methyl (2-hydroxyphenyl)acetate", "2-(2-Hydroxyphenyl)acetic acid methyl ester", "Methyl 2-(2\u2032-hydroxyphenyl)acetate"], "SMILES": "C(C(OC)=O)C1=C(O)C=CC=C1", "physical_data": {"Molecular Weight": "166.17", "Molecular Formula": "C9H10O3", "Boiling Point": "90-94 \u00b0C @ Press: 0.1 Torr", "Melting Point": "71-72 \u00b0C"}}