{"cas_no": "22446-38-4", "cn_name": "3-\u7f9f\u57fa\u82ef\u4e59\u9178\u4e59\u916f", "en_name": ["Ethyl 3-hydroxybenzeneacetate", "Benzeneacetic acid, 3-hydroxy-, ethyl ester", "Acetic acid, (m-hydroxyphenyl)-, ethyl ester", "Ethyl 3-hydroxybenzeneacetate", "Ethyl 3-hydroxyphenylacetate", "(3-Hydroxyphenyl)acetic acid ethyl ester", "Ethyl 2-(3-hydroxyphenyl)acetate", "2-(3-Hydroxyphenyl)acetic acid ethyl ester"], "SMILES": "C(C(OCC)=O)C1=CC(O)=CC=C1", "physical_data": {"Molecular Weight": "180.20", "Molecular Formula": "C10H12O3", "Boiling Point": "177-179 \u00b0C @ Press: 12 Torr"}}