{"cas_no": "2244-07-7", "cn_name": "N-\u5341\u4e00\u70f7\u57fa\u8148", "en_name": ["Undecanenitrile", "Undecanenitrile", "Hendecanenitrile", "Undecanonitrile", "1-Decyl cyanide", "n-Undecanonitrile", "1-Cyanodecane", "NSC 4026", "Decyl cyanide"], "SMILES": "C(CCCCC#N)CCCCC", "physical_data": {"Molecular Weight": "167.29", "Molecular Formula": "C11H21N", "Boiling Point": "253 \u00b0C"}}