{"cas_no": "22445-42-7", "cn_name": "3,5-\u4e8c\u7532\u57fa\u82ef\u8148", "en_name": ["3,5-Dimethylbenzonitrile", "Benzonitrile, 3,5-dimethyl-", "3,5-Dimethylbenzonitrile", "1,3-Dimethyl-5-cyanobenzene"], "SMILES": "C(#N)C1=CC(C)=CC(C)=C1", "physical_data": {"Molecular Weight": "131.17", "Molecular Formula": "C9H9N", "Melting Point": "42-43 \u00b0C"}}