{"cas_no": "22459-81-0", "cn_name": "4-\u6eb4-3-\u6c2f\u4e59\u9170\u82ef\u80fa", "en_name": ["N-(4-Bromo-3-chlorophenyl)acetamide", "Acetamide, N-(4-bromo-3-chlorophenyl)-", "Acetanilide, 4\u2032-bromo-3\u2032-chloro-", "N-(4-Bromo-3-chlorophenyl)acetamide", "3-Chloro-4-bromoacetanilide", "4-Bromo-3-chloroacetanilide"], "SMILES": "N(C(C)=O)C1=CC(Cl)=C(Br)C=C1", "physical_data": {"Molecular Weight": "248.50", "Molecular Formula": "C8H7BrClNO", "Melting Point": "151.400078125 \u00b0C"}}