{"cas_no": "2245-30-9", "cn_name": "3,3-\u4e8c\u7532\u57fa-1,2-\u73af\u6c27\u4e01\u70f7", "en_name": ["2-(1,1-Dimethylethyl)oxirane", "Oxirane, 2-(1,1-dimethylethyl)-", "Butane, 1,2-epoxy-3,3-dimethyl-", "Oxirane, (1,1-dimethylethyl)-", "2-(1,1-Dimethylethyl)oxirane", "tert-Butylethylene oxide", "2-tert-Butyloxirane", "tert-Butyloxirane", "3,3-Dimethyl-1-butene oxide", "3,3-Dimethyl-1,2-epoxybutane", "(\u00b1)-tert-Butyloxirane", "(\u00b1)-2-(tert-Butyl)oxirane", "1,2-Epoxy-3,3-dimethylbutane", "NSC 356829", "Neohexene oxide"], "SMILES": "C(C)(C)(C)C1CO1", "physical_data": {"Molecular Weight": "100.16", "Molecular Formula": "C6H12O", "Boiling Point": "86 \u00b0C", "Density": "0.8195 g/cm\u00b3 @ Temp: 25 \u00b0C"}}