{"cas_no": "2245-38-7", "cn_name": "2,3,5-\u4e09\u7532\u57fa\u8418", "en_name": ["2,3,5-Trimethylnaphthalene", "Naphthalene, 1,6,7-trimethyl-", "1,6,7-Trimethylnaphthalene", "2,3,5-Trimethylnaphthalene", "NSC 89511"], "SMILES": "CC=1C2=C(C=C(C)C(C)=C2)C=CC1", "physical_data": {"Molecular Weight": "170.25", "Molecular Formula": "C13H14", "Boiling Point": "285 \u00b0C", "Melting Point": "25.3 \u00b0C"}}