{"cas_no": "22457-89-2", "cn_name": "\u82ef\u78f7\u786b\u80fa", "en_name": ["Benfotiamine", "Benzenecarbothioic acid, S-[2-[[(4-amino-2-methyl-5-pyrimidinyl)methyl]formylamino]-1-[2-(phosphonooxy)ethyl]-1-propen-1-yl] ester", "Benzoic acid, thio-, S-ester with N-[(4-amino-2-methyl-5-pyrimidinyl)methyl]-N-(4-hydroxy-2-mercapto-1-methyl-1-butenyl)formamide dihydrogen phosphate (ester)", "Benzenecarbothioic acid, S-[2-[[(4-amino-2-methyl-5-pyrimidinyl)methyl]formylamino]-1-[2-(phosphonooxy)ethyl]-1-propenyl] ester", "Formamide, N-[(4-amino-2-methyl-5-pyrimidinyl)methyl]-N-(4-hydroxy-2-mercapto-1-methyl-1-butenyl)-, S-benzoate O-(dihydrogen phosphate)", "N-[(4-Amino-2-methyl-5-pyrimidinyl)methyl]-N-(4-hydroxy-2-mercapto-1-methyl-1-butenyl)formamide S-benzoate O-phosphate", "Benfotiamine", "Benzoylthiamine monophosphate", "Benzoylthiamine O-monophosphate", "S-Benzoylthiamine monophosphate", "S-Benzoylthiamine O-monophosphate", "Biotamin", "BTMP", "Nitanevril", "Neurostop", "Vitanevril", "Berdi", "Betivina", "Bietamine", "Tabiomyl", "Benfothiamine", "8088CB", "Milgamma"], "SMILES": "C(N(C(=C(SC(=O)C1=CC=CC=C1)CCOP(=O)(O)O)C)C=O)C=2C(N)=NC(C)=NC2", "physical_data": {"Molecular Weight": "466.45", "Molecular Formula": "C19H23N4O6PS", "Melting Point": "165 \u00b0C (decomp)"}}