{"cas_no": "22457-23-4", "cn_name": "5-\u7532\u57fa-3-\u5e9a\u916e\u809f", "en_name": ["Stemone", "3-Heptanone, 5-methyl-, oxime", "Ethyl 2-methylbutyl ketoxime", "5-Methyl-3-heptanone oxime", "Stemone", "NSC 166310"], "SMILES": "C(CC(CC)C)(CC)=NO", "physical_data": {"Molecular Weight": "143.23", "Molecular Formula": "C8H17NO", "Boiling Point": "70 \u00b0C @ Press: 0.7 Torr"}}