{"cas_no": "2245-53-6", "cn_name": "\u6c22\u918c-\u041e\uff0c\u041e\u2032-\u4e8c\u4e59\u9178", "en_name": ["2,2\u2032-[1,4-Phenylenebis(oxy)]bis[acetic acid]", "Acetic acid, 2,2\u2032-[1,4-phenylenebis(oxy)]bis-", "Acetic acid, (p-phenylenedioxy)di-", "2,2\u2032-[1,4-Phenylenebis(oxy)]bis[acetic acid]", "Hydroquinone-O,O-diacetic acid", "1,4-Dicarboxymethoxybenzene", "1,4-Phenylenedioxydiacetic acid", "1,4-Bis(carboxymethoxy)benzene", "NSC 163333", "(p-Phenylenedioxy)diacetic acid", "Benzene-1,4-bis(oxydiacetic acid)", "Hydroquinone-O,O\u2032-diacetic acid", "Benzene-1,4-dioxydiacetic acid", "(4-Carboxymethoxyphenoxy)acetic acid", "2,2\u2032-(1,4-Phenylenebis(oxy))diacetic acid", "2-[4-(Carboxymethoxy)phenoxy]acetic acid"], "SMILES": "O(CC(O)=O)C1=CC=C(OCC(O)=O)C=C1", "physical_data": {"Molecular Weight": "226.18", "Molecular Formula": "C10H10O6", "Melting Point": "251 \u00b0C"}}