{"cas_no": "2245-43-4", "cn_name": "4-\u91d1\u521a\u70f7\u57fa\u6eb4\u82ef", "en_name": ["1-(4-Bromophenyl)adamantane", "Tricyclo[3.3.1.13,7]decane, 1-(4-bromophenyl)-", "Adamantane, 1-(p-bromophenyl)-", "1-(4-Bromophenyl)tricyclo[3.3.1.13,7]decane", "1-(4-Bromophenyl)adamantane", "1-(p-Bromophenyl)adamantane", "4-(Adamant-1-yl)-1-bromobenzene"], "SMILES": "BrC1=CC=C(C23CC4CC(C2)CC(C3)C4)C=C1", "physical_data": {"Molecular Weight": "291.23", "Molecular Formula": "C16H19Br", "Melting Point": "101-102 \u00b0C"}}