{"cas_no": "2246-44-8", "cn_name": "1-\u6c28\u57fa-2-\u7532\u57fa\u8418", "en_name": ["2-Methyl-1-naphthalenamine", "1-Naphthalenamine, 2-methyl-", "1-Naphthylamine, 2-methyl-", "2-Methyl-1-naphthalenamine", "2-Methyl-1-naphthylamine", "1-Amino-2-methylnaphthalene", "2-Methyl-1-aminonaphthalene"], "SMILES": "NC=1C2=C(C=CC1C)C=CC=C2", "physical_data": {"Molecular Weight": "157.21", "Molecular Formula": "C11H11N", "Boiling Point": "165 \u00b0C", "Melting Point": "31 \u00b0C"}}