{"cas_no": "2247-91-8", "cn_name": "\u4e59\u91781-(\u4e09\u6c1f\u7532\u57fa)\u4e59\u70ef\u916f", "en_name": ["1-Propen-2-ol, 3,3,3-trifluoro-, 2-acetate", "1-Propen-2-ol, 3,3,3-trifluoro-, 2-acetate", "1-Propen-2-ol, 3,3,3-trifluoro-, acetate", "\u03b1-Trifluoromethylvinyl acetate", "1,1,1-Trifluoro-2-propen-2-yl acetate", "1-(Trifluoromethyl)vinyl acetate", "1,1,1-Trifluoro-2-(acetyloxy)-2-propene"], "SMILES": "C(OC(C)=O)(C(F)(F)F)=C", "physical_data": {"Molecular Weight": "154.09", "Molecular Formula": "C5H5F3O2", "Boiling Point": "86.5 \u00b0C", "Density": "1.2119 g/cm\u00b3 @ Temp: 25 \u00b0C"}}