{"cas_no": "22476-74-0", "cn_name": "3,3-\u7532\u57fa\u54cc\u55ea-2-\u916e", "en_name": ["3,3-Dimethyl-2-piperazinone", "2-Piperazinone, 3,3-dimethyl-", "Piperazinone, 3,3-dimethyl-", "3,3-Dimethyl-2-piperazinone", "3,3-Dimethylpiperazin-2-one", "3,3-Dimethyl-1-piperazin-2-one"], "SMILES": "O=C1C(C)(C)NCCN1", "physical_data": {"Molecular Weight": "128.17", "Molecular Formula": "C6H12N2O", "Melting Point": "134 \u00b0C"}}