{"cas_no": "22479-95-4", "cn_name": "4-\u7f9f\u57fa\u90bb\u82ef\u4e8c\u7532\u9178\u4e8c\u7532\u916f", "en_name": ["Dimethyl 4-hydroxyphthalate", "1,2-Benzenedicarboxylic acid, 4-hydroxy-, 1,2-dimethyl ester", "Phthalic acid, 4-hydroxy-, dimethyl ester", "1,2-Benzenedicarboxylic acid, 4-hydroxy-, dimethyl ester", "4-Hydroxy-o-phthalic acid dimethyl ester", "Dimethyl 4-hydroxyphthalate", "Dimethyl 4-hydroxy-1,2-benzenedicarboxylate", "1,2-Dimethyl 4-hydroxybenzene-1,2-dicarboxylate"], "SMILES": "C(OC)(=O)C1=C(C(OC)=O)C=CC(O)=C1", "physical_data": {"Molecular Weight": "210.18", "Molecular Formula": "C10H10O5", "Melting Point": "100-110 \u00b0C"}}