{"cas_no": "22480-91-7", "cn_name": "2,3,4-\u4e09\u7532\u6c27\u57fa\u82ef\u4e59\u9178", "en_name": ["2,3,4-Trimethoxybenzeneacetic acid", "Benzeneacetic acid, 2,3,4-trimethoxy-", "Acetic acid, (2,3,4-trimethoxyphenyl)-", "2,3,4-Trimethoxybenzeneacetic acid", "2,3,4-Trimethoxyphenylacetic acid", "2-(2,3,4-Trimethoxyphenyl)acetic acid"], "SMILES": "O(C)C1=C(OC)C(OC)=CC=C1CC(O)=O", "physical_data": {"Molecular Weight": "226.23", "Molecular Formula": "C11H14O5", "Melting Point": "120 \u00b0C"}}