{"cas_no": "22483-09-6", "cn_name": "\u6c28\u57fa\u4e59\u919b\u7f29\u4e8c\u7532\u9187", "en_name": ["Aminoacetaldehyde dimethyl acetal", "Ethanamine, 2,2-dimethoxy-", "Acetaldehyde, amino-, dimethyl acetal", "Ethylamine, 2,2-dimethoxy-", "2,2-Dimethoxyethanamine", "2,2-Dimethoxyethylamine", "Aminoacetaldehyde dimethyl acetal", "DEA", "2-Aminoacetaldehyde dimethyl acetal", "Glycinal dimethyl acetal", "1-Amino-2,2-dimethoxyethane", "NSC 73701", "Aminoacetaldehyde dimethylacetal", "2,2-Dimethoxyethan-1-amine", "1-Amino-2,2-dimethyloxyethane", "N-(2,2-Dimethoxyethyl)amine"], "SMILES": "C(CN)(OC)OC", "physical_data": {"Molecular Weight": "105.14", "Molecular Formula": "C4H11NO2", "Boiling Point": "137-139 \u00b0C", "Density": "0.9676 g/cm\u00b3 @ Temp: 25 \u00b0C"}}