{"cas_no": "22482-43-5", "cn_name": "2,6-\u4e8c\u6c2f-~-\u785d\u57fa\u82ef\u4e59\u70ef", "en_name": ["1,3-Dichloro-2-(2-nitroethenyl)benzene", "Benzene, 1,3-dichloro-2-(2-nitroethenyl)-", "Styrene, 2,6-dichloro-\u03b2-nitro-", "1,3-Dichloro-2-(2-nitroethenyl)benzene", "2,6-Dichloro-\u03b2-nitrostyrene", "NSC 122864", "1,3-Dichloro-2-(2-nitrovinyl)benzene"], "SMILES": "C(=CN(=O)=O)C1=C(Cl)C=CC=C1Cl", "physical_data": {"Molecular Weight": "218.04", "Molecular Formula": "C8H5Cl2NO2", "Melting Point": "63-64 \u00b0C"}}