{"cas_no": "22494-42-4", "cn_name": "\u4e8c\u6c1f\u5c3c\u67f3", "en_name": ["Diflunisal", "[1,1\u2032-Biphenyl]-3-carboxylic acid, 2\u2032,4\u2032-difluoro-4-hydroxy-", "3-Biphenylcarboxylic acid, 2\u2032,4\u2032-difluoro-4-hydroxy-", "2\u2032,4\u2032-Difluoro-4-hydroxy[1,1\u2032-biphenyl]-3-carboxylic acid", "5-(2,4-Difluorophenyl)salicylic acid", "Diflunisal", "MK 647", "Dolobid", "Fluodonil", "Dolisal", "Dolobis", "Fluniget", "Flustar", "Flovacil", "Adomal", "Difludol", "2\u2032,4\u2032-Difluoro-4-hydroxybiphenyl-3-carboxylic acid", "Doloban", "Diflusinal", "2-Hydroxy-5-(2,4-difluorophenyl)benzoic acid", "MeSH ID: D004061"], "SMILES": "FC1=C(C=CC(F)=C1)C2=CC(C(O)=O)=C(O)C=C2", "physical_data": {"Molecular Weight": "250.20", "Molecular Formula": "C13H8F2O3", "Melting Point": "210-221 \u00b0C"}}