{"cas_no": "22502-03-0", "cn_name": "\u4e59\u9170\u4e59\u9178\u7532\u6c27\u4e59\u916f", "en_name": ["2-Methoxyethyl 3-oxobutanoate", "Butanoic acid, 3-oxo-, 2-methoxyethyl ester", "Acetoacetic acid, 2-methoxyethyl ester", "Ethanol, 2-methoxy-, acetoacetate", "2-Methoxyethyl 3-oxobutanoate", "2-Methoxyethyl acetoacetate", "3-Oxo-butyric acid 2-methoxy-ethyl ester"], "SMILES": "O(C(CC(C)=O)=O)CCOC", "physical_data": {"Molecular Weight": "160.17", "Molecular Formula": "C7H12O4", "Boiling Point": "90 \u00b0C @ Press: 3 Torr"}}