{"cas_no": "22503-72-6", "cn_name": "7-\u6c2f-3-\u7532\u57fa-3,4-\u4e8c\u6c22-2H-1,2,4-\u82ef\u5e76\u567b\u4e8c\u55ea 1,1-\u4e8c\u6c27\u5316\u7269", "en_name": ["IDRA 21", "2H-1,2,4-Benzothiadiazine, 7-chloro-3,4-dihydro-3-methyl-, 1,1-dioxide", "IDRA 21"], "SMILES": "O=S1(=O)C=2C(NC(C)N1)=CC=C(Cl)C2", "physical_data": {"Molecular Weight": "232.69", "Molecular Formula": "C8H9ClN2O2S", "Melting Point": "209 \u00b0C"}}