{"cas_no": "22504-50-3", "cn_name": "\u53cc(3-\u5def\u57fa\u4e19\u9178)\u4e59\u4e8c\u9187", "en_name": ["1,1\u2032-(1,2-Ethanediyl) bis(3-mercaptopropanoate)", "Propanoic acid, 3-mercapto-, 1,1\u2032-(1,2-ethanediyl) ester", "Propionic acid, 3-mercapto-, ethylene ester", "Propanoic acid, 3-mercapto-, 1,2-ethanediyl ester", "Ethylene glycol, bis(3-mercaptopropionate)", "1,1\u2032-(1,2-Ethanediyl) bis(3-mercaptopropanoate)", "Ethylene glycol bis(\u03b2-mercaptopropionate)", "Ethylene 3-mercaptopropionate", "Ethylenebis(3-mercaptopropionate)", "E 23 (crosslinking agent)", "Ethylene glycol di(\u03b2-mercaptopropionate)", "Ethylenebis(\u03b2-mercaptopropionate)", "E 23", "Ethylene glycol di(3-mercaptopropionate)", "1,2-Ethylene glycol bis(3-mercaptopropionate)", "Thiocure GDMP", "GDMP", "Glycol dimercaptopropionate", "Ethane-1,2-diyl bis(3-sulfanylpropanoate)", "Ethylene glycol bis(mercaptopropionate)", "Glycol di-3-mercaptopropionate", "Thiocure 320", "1,2-Bis(3-mercaptopropionyloxy)ethane"], "SMILES": "C(OCCOC(CCS)=O)(CCS)=O", "physical_data": {"Molecular Weight": "238.32", "Molecular Formula": "C8H14O4S2", "Melting Point": "148 \u00b0C"}}