{"cas_no": "2250-53-5", "cn_name": "3-\u6c28\u57fa-5-(\u4e09\u6c1f\u7532\u57fa)-1H-\u5432\u5511", "en_name": ["5-(Trifluoromethyl)-1H-indazol-3-amine", "1H-Indazol-3-amine, 5-(trifluoromethyl)-", "1H-Indazole, 3-amino-5-(trifluoromethyl)-", "5-(Trifluoromethyl)-1H-indazol-3-amine", "3-Amino-5-trifluoromethyl-1H-indazole", "BAY-h 1127", "3-Amino-5-trifluoromethylindazole"], "SMILES": "NC=1C=2C(=CC=C(C(F)(F)F)C2)NN1", "physical_data": {"Molecular Weight": "201.15", "Molecular Formula": "C8H6F3N3", "Melting Point": "122-123 \u00b0C"}}