{"cas_no": "22509-74-6", "cn_name": "N-\u4e59\u6c27\u7fb0\u57fa\u90bb\u82ef\u4e8c\u7532\u9170\u4e9a\u80fa", "en_name": ["N-Carbethoxyphthalimide", "2H-Isoindole-2-carboxylic acid, 1,3-dihydro-1,3-dioxo-, ethyl ester", "2-Isoindolinecarboxylic acid, 1,3-dioxo-, ethyl ester", "Ethyl N-phthaloylcarbamate", "N-Carbethoxyphthalimide", "N-(Ethoxycarbonyl)phthalimide", "N-Carboethoxyphthalimide", "Nefkens' reagent", "2-(Carbethoxy)phthalimide", "Reagents, Nefkens'", "Carbethoxyphthalimide", "NSC 76576", "Ethyl 1,3-dioxo-1,3-dihydro-2H-isoindole-2-carboxylate", "ethyl 1,3-dioxo-1,3-dihydro-2H-isoindole-2-carboxylate", "Ethyl 1,3-dioxo-1,3-dihydroisoindole-2-carboxylate", "1,3-Dioxo-1,3-dihydroisoindole-2-carboxylic acid ethyl ester", "Ethyl 1,3-dioxoisoindoline-2-carboxylate", "Ethyl 1,3-dioxo-2,3-dihydro-1H-isoindole-2-carboxylate", "1,3-Dioxoisoindoline-2-carboxylic acid ethyl ester"], "SMILES": "C(OCC)(=O)N1C(=O)C=2C(C1=O)=CC=CC2", "physical_data": {"Molecular Weight": "219.19", "Molecular Formula": "C11H9NO4", "Melting Point": "90-92 \u00b0C"}}