{"cas_no": "22508-64-1", "cn_name": "4 -\u7532\u57fa- 4 -\u620a\u70ef- 1 -\u9187", "en_name": ["4-Methyl-4-penten-1-ol", "4-Penten-1-ol, 4-methyl-", "4-Methyl-4-penten-1-ol"], "SMILES": "C(C(C)=C)CCO", "physical_data": {"Molecular Weight": "100.16", "Molecular Formula": "C6H12O", "Boiling Point": "60 \u00b0C @ Press: 17 Torr"}}