{"cas_no": "2251-50-5", "cn_name": "\u4e94\u6c1f\u82ef\u7532\u9170\u6c2f", "en_name": ["Pentafluorobenzoyl chloride", "Benzoyl chloride, 2,3,4,5,6-pentafluoro-", "Benzoyl chloride, pentafluoro-", "2,3,4,5,6-Pentafluorobenzoyl chloride", "Pentafluorobenzoyl chloride", "Perfluorobenzoyl chloride", "2,3,4,5,6-Pentafluorobenzoic acid chloride", "NSC 97002"], "SMILES": "C(Cl)(=O)C1=C(F)C(F)=C(F)C(F)=C1F", "physical_data": {"Molecular Weight": "230.52", "Molecular Formula": "C7ClF5O", "Boiling Point": "158.5 \u00b0C"}}