{"cas_no": "22518-27-0", "cn_name": "4-(4'-\u6c2f\u82ef\u57fa)-2-\u5421\u54af\u70f7\u916e", "en_name": ["4-(4-Chlorophenyl)-2-pyrrolidinone", "2-Pyrrolidinone, 4-(4-chlorophenyl)-", "2-Pyrrolidinone, 4-(p-chlorophenyl)-", "4-(4-Chlorophenyl)-2-pyrrolidinone", "4-(4-Chlorophenyl)-2-pyrrolidone", "(\u00b1)-Baclofen lactam", "Baclofen lactam"], "SMILES": "O=C1CC(C2=CC=C(Cl)C=C2)CN1", "physical_data": {"Molecular Weight": "195.65", "Molecular Formula": "C10H10ClNO", "Melting Point": "118 \u00b0C"}}