{"cas_no": "22515-18-0", "cn_name": "4,4-\u4e8c\u6c1f\u73af\u5df2\u916e", "en_name": ["4,4-Difluorocyclohexanone", "Cyclohexanone, 4,4-difluoro-", "4,4-Difluorocyclohexanone", "4,4-Difluorocyclohexan-1-one"], "SMILES": "FC1(F)CCC(=O)CC1", "physical_data": {"Molecular Weight": "134.12", "Molecular Formula": "C6H8F2O", "Melting Point": "31-32 \u00b0C"}}