{"cas_no": "2251-65-2", "cn_name": "3-(\u4e09\u6c1f\u7532\u57fa)\u82ef\u7532\u9170\u6c2f", "en_name": ["3-(Trifluoromethyl)benzoyl chloride", "Benzoyl chloride, 3-(trifluoromethyl)-", "m-Toluoyl chloride, \u03b1,\u03b1,\u03b1-trifluoro-", "3-(Trifluoromethyl)benzoyl chloride", "\u03b1,\u03b1,\u03b1-Trifluoro-m-toluoyl chloride", "m-(Trifluoromethyl)benzoyl chloride", "NSC 88307", "3-[Trifluoromethyl]phenylcarbonyl chloride", "3-Trifluoromethylbenzoyl chloride"], "SMILES": "C(F)(F)(F)C1=CC(C(Cl)=O)=CC=C1", "physical_data": {"Molecular Weight": "208.57", "Molecular Formula": "C8H4ClF3O", "Boiling Point": "187 \u00b0C"}}