{"cas_no": "2252-51-9", "cn_name": "2-\u6c2f-4-\u6c1f\u82ef\u7532\u9178", "en_name": ["2-Chloro-4-fluorobenzoic acid", "Benzoic acid, 2-chloro-4-fluoro-", "2-Chloro-4-fluorobenzoic acid"], "SMILES": "C(O)(=O)C1=C(Cl)C=C(F)C=C1", "physical_data": {"Molecular Weight": "174.56", "Molecular Formula": "C7H4ClFO2", "Melting Point": "181-182 \u00b0C"}}