{"cas_no": "2252-45-1", "cn_name": "3-(\u4e09\u6c1f\u7532\u57fa\u786b\u4ee3)\u6eb4\u82ef", "en_name": ["1-Bromo-3-[(trifluoromethyl)thio]benzene", "Benzene, 1-bromo-3-[(trifluoromethyl)thio]-", "Sulfide, m-bromophenyl trifluoromethyl", "1-Bromo-3-[(trifluoromethyl)thio]benzene", "1-Bromo-3-trifluoromethylthiobenzene", "(3-Bromophenyl)(trifluoromethyl)sulfane", "1-Bromo-3-[(trifluoromethyl)sulfanyl]benzene", "1-Bromo-3-(trifluoromethylsulfanyl)benzene"], "SMILES": "S(C(F)(F)F)C1=CC(Br)=CC=C1", "physical_data": {"Molecular Weight": "257.07", "Molecular Formula": "C7H4BrF3S", "Boiling Point": "192-194 \u00b0C"}}