{"cas_no": "22525-43-5", "cn_name": "4-\u6c28\u57fa-4-(N,N-\u4e8c\u7532\u57fa\u6c28\u57fa)1,2-\u4e8c\u82ef\u4e59\u70ef", "en_name": ["4-[2-(4-Aminophenyl)ethenyl]-N,N-dimethylbenzenamine", "Benzenamine, 4-[2-(4-aminophenyl)ethenyl]-N,N-dimethyl-", "4,4\u2032-Stilbenediamine, N,N-dimethyl-", "4-[2-(4-Aminophenyl)ethenyl]-N,N-dimethylbenzenamine", "4-(N,N-Dimethylamino)-4\u2032-aminostilbene", "4-Amino-4\u2032-(dimethylamino)stilbene", "4\u2032-N,N-Dimethylamino-4-aminostilbene"], "SMILES": "C(=CC1=CC=C(N)C=C1)C2=CC=C(N(C)C)C=C2", "physical_data": {"Molecular Weight": "238.33", "Molecular Formula": "C16H18N2", "Melting Point": "172-173 \u00b0C"}}