{"cas_no": "2252-50-8", "cn_name": "2-\u6c2f-5-\u6c1f\u82ef\u7532\u9178", "en_name": ["2-Chloro-5-fluorobenzoic acid", "Benzoic acid, 2-chloro-5-fluoro-", "2-Chloro-5-fluorobenzoic acid", "NSC 190631"], "SMILES": "C(O)(=O)C1=C(Cl)C=CC(F)=C1", "physical_data": {"Molecular Weight": "174.56", "Molecular Formula": "C7H4ClFO2", "Melting Point": "61 \u00b0C"}}