{"cas_no": "2252-63-3", "cn_name": "1-(4-\u6c1f\u82ef\u57fa)\u54cc\u55ea", "en_name": ["1-(4-Fluorophenyl)piperazine", "Piperazine, 1-(4-fluorophenyl)-", "Piperazine, 1-(p-fluorophenyl)-", "1-(4-Fluorophenyl)piperazine", "N-(p-Fluorophenyl)piperazine", "1-(p-Fluorophenyl)piperazine", "4-(4-Fluorophenyl)piperazine", "N-(4-Fluorophenyl)piperazine", "p-Fluorophenylpiperazine"], "SMILES": "FC1=CC=C(C=C1)N2CCNCC2", "physical_data": {"Molecular Weight": "180.22", "Molecular Formula": "C10H13FN2", "Boiling Point": "118-123 \u00b0C", "Melting Point": "30-33 \u00b0C"}}