{"cas_no": "2252-62-2", "cn_name": "2-(4-(\u4e09\u6c1f\u7532\u57fa)\u82ef\u57fa)\u4e19-2-\u9187", "en_name": ["\u03b1,\u03b1-Dimethyl-4-(trifluoromethyl)benzenemethanol", "Benzenemethanol, \u03b1,\u03b1-dimethyl-4-(trifluoromethyl)-", "p-Cymen-8-ol, 7,7,7-trifluoro-", "\u03b1,\u03b1-Dimethyl-4-(trifluoromethyl)benzenemethanol", "\u03b1,\u03b1-Dimethyl-p-(trifluoromethyl)benzyl alcohol", "2-[4-(Trifluoromethyl)phenyl]-2-propanol", "[4-(Trifluoromethyl)phenyl]dimethylcarbinol"], "SMILES": "C(C)(C)(O)C1=CC=C(C(F)(F)F)C=C1", "physical_data": {"Molecular Weight": "204.19", "Molecular Formula": "C10H11F3O", "Boiling Point": "73.5-74.9 \u00b0C @ Press: 3 Torr", "Melting Point": "40.5-41.5 \u00b0C"}}