{"cas_no": "22536-63-6", "cn_name": "2-\u6c2f-4-\u7532\u6c27\u57fa\u5627\u5576", "en_name": ["2-Chloro-4-methoxypyrimidine", "Pyrimidine, 2-chloro-4-methoxy-", "2-Chloro-4-methoxypyrimidine"], "SMILES": "O(C)C1=NC(Cl)=NC=C1", "physical_data": {"Molecular Weight": "144.56", "Molecular Formula": "C5H5ClN2O", "Boiling Point": "96-97 \u00b0C @ Press: 18 Torr", "Melting Point": "55 \u00b0C"}}