{"cas_no": "22535-90-6", "cn_name": "3,9-\u53cc[2-(3,5-\u4e8c\u6c28\u57fa-2,4,6-\u4e09\u6c2e\u6742\u82ef\u57fa)\u4e59\u57fa]-2,4,6,8-\u56db\u6c27\u87ba[5.5]\u5341\u4e00\u70f7", "en_name": ["6,6\u2032-(2,4,8,10-Tetraoxaspiro[5.5]undecane-3,9-diyldi-2,1-ethanediyl)bis[1,3,5-triazine-2,4-diamine]", "1,3,5-Triazine-2,4-diamine, 6,6\u2032-(2,4,8,10-tetraoxaspiro[5.5]undecane-3,9-diyldi-2,1-ethanediyl)bis-", "s-Triazine, 2,2\u2032-(2,4,8,10-tetraoxaspiro[5.5]undec-3,9-ylenediethylene)bis[4,6-diamino-", "2,4,8,10-Tetraoxaspiro[5.5]undecane, 1,3,5-triazine-2,4-diamine deriv.", "6,6\u2032-(2,4,8,10-Tetraoxaspiro[5.5]undecane-3,9-diyldi-2,1-ethanediyl)bis[1,3,5-triazine-2,4-diamine]", "3,9-Bis[2-(4,6-diamino-s-triazin-2-yl)ethyl]-2,4,8,10-tetraoxaspiro[5.5]undecane", "3,9-Bis[2-(2,6-diamino-s-triazin-4-yl)ethyl]-2,4,8,10-tetraoxaspiro[5.5]undecane", "3,9-Bis[2-(3,5-diamino-2,4,6-triazaphenyl)ethyl]-2,4,8,10-tetraoxaspiro[5,5]undecane", "6,6\u2032-(2,4,8,10-Tetraoxaspiro[5.5]undecane-3,9-diyldi-2,1-ethanediyl)bis(1,3,5-triazine-2,4-diamine)", "CTU-guanamine"], "SMILES": "C(CC=1N=C(N)N=C(N)N1)C2OCC3(COC(CCC=4N=C(N)N=C(N)N4)OC3)CO2", "physical_data": {"Molecular Weight": "434.45", "Molecular Formula": "C17H26N10O4", "Melting Point": "270-272 \u00b0C"}}