{"cas_no": "2253-73-8", "cn_name": "\u5f02\u786b\u6c30\u9178\u5f02\u4e19\u916f", "en_name": ["Isopropyl isothiocyanate", "Propane, 2-isothiocyanato-", "Isothiocyanic acid, isopropyl ester", "2-Isothiocyanatopropane", "Isopropyl isothiocyanate", "2-Propyl isothiocyanate", "Putranjivin", "Putranjivine", "Isopropyl thioisocyanate"], "SMILES": "N(C(C)C)=C=S", "physical_data": {"Molecular Weight": "101.17", "Molecular Formula": "C4H7NS", "Boiling Point": "138 \u00b0C", "Density": "0.9475 g/cm\u00b3 @ Temp: 20 \u00b0C"}}