{"cas_no": "22536-64-7", "cn_name": "2-\u6c2f-4-\u7532\u6c27\u57fa-6-\u7532\u57fa\u5627\u5576", "en_name": ["2-Chloro-4-methoxy-6-methylpyrimidine", "Pyrimidine, 2-chloro-4-methoxy-6-methyl-", "2-Chloro-4-methoxy-6-methylpyrimidine", "2-Chloro-4-methyl-6-methoxypyrimidine"], "SMILES": "O(C)C=1C=C(C)N=C(Cl)N1", "physical_data": {"Molecular Weight": "158.59", "Molecular Formula": "C6H7ClN2O", "Boiling Point": "99-100 \u00b0C @ Press: 5 Torr", "Melting Point": "22-25 \u00b0C"}}