{"cas_no": "22536-67-0", "cn_name": "2,5-\u4e8c\u6c2f\u5627\u5576", "en_name": ["2,5-Dichloropyrimidine", "Pyrimidine, 2,5-dichloro-", "2,5-Dichloropyrimidine", "2-Chloro-5-chloropyrimidine"], "SMILES": "ClC=1C=NC(Cl)=NC1", "physical_data": {"Molecular Weight": "148.98", "Molecular Formula": "C4H2Cl2N2", "Boiling Point": "190 \u00b0C", "Melting Point": "57.0-57.5 \u00b0C"}}