{"cas_no": "22535-49-5", "cn_name": "4-\u4e19\u70ef\u9170\u7f9f\u82ef\u7532\u9178\u82ef\u916e", "en_name": ["4-(Acryloyloxy)benzophenone", "2-Propenoic acid, 4-benzoylphenyl ester", "Acrylic acid, ester with 4-hydroxybenzophenone", "Benzophenone, 4-hydroxy-, acrylate", "p-Acryloxybenzophenone", "4-Acryloxybenzophenone", "4-Benzoylphenyl acrylate", "4-(Acryloyloxy)benzophenone", "4-Acryloylbenzophenone"], "SMILES": "C(=O)(C1=CC=C(OC(C=C)=O)C=C1)C2=CC=CC=C2", "physical_data": {"Molecular Weight": "252.26", "Molecular Formula": "C16H12O3", "Melting Point": "48.5 \u00b0C"}}