{"cas_no": "22536-65-8", "cn_name": "2-\u6c2f-5-\u7532\u6c27\u57fa\u5627\u5576", "en_name": ["2-Chloro-5-methoxypyrimidine", "Pyrimidine, 2-chloro-5-methoxy-", "2-Chloro-5-methoxypyrimidine", "2-Chloro-5-(methyloxy)pyrimidine"], "SMILES": "O(C)C=1C=NC(Cl)=NC1", "physical_data": {"Molecular Weight": "144.56", "Molecular Formula": "C5H5ClN2O", "Melting Point": "51.5 \u00b0C"}}