{"cas_no": "22532-62-3", "cn_name": "4-\u6eb4-2-\u7f9f\u57fa\u82ef\u7532\u919b", "en_name": ["4-Bromo-2-hydroxybenzaldehyde", "Benzaldehyde, 4-bromo-2-hydroxy-", "Salicylaldehyde, 4-bromo-", "4-Bromo-2-hydroxybenzaldehyde", "4-Bromosalicylaldehyde", "2-Hydroxy-4-bromobenzaldehyde"], "SMILES": "C(=O)C1=C(O)C=C(Br)C=C1", "physical_data": {"Molecular Weight": "201.02", "Molecular Formula": "C7H5BrO2", "Boiling Point": "48-52 \u00b0C @ Press: 0.04 Torr", "Melting Point": "52 \u00b0C"}}