{"cas_no": "22545-15-9", "cn_name": "2-(4-\u4e59\u6c27\u57fa\u82ef\u57fa)\u4e59\u9187", "en_name": ["4-Ethoxybenzeneethanol", "Benzeneethanol, 4-ethoxy-", "Phenethyl alcohol, p-ethoxy-", "4-Ethoxybenzeneethanol", "2-(4-Ethoxyphenyl)ethanol", "p-Ethoxyphenethyl alcohol", "4-(2-Hydroxyethyl)phenetol", "NSC 69078", "2-(4-Ethoxyphenyl)ethan-1-ol"], "SMILES": "C(CO)C1=CC=C(OCC)C=C1", "physical_data": {"Molecular Weight": "166.22", "Molecular Formula": "C10H14O2", "Boiling Point": "123 \u00b0C @ Press: 3 Torr"}}