{"cas_no": "2254-94-6", "cn_name": "3-\u7532\u57fa-2(3H)-\u82ef\u5e76\u567b\u5511\u786b\u916e", "en_name": ["3-Methyl-2(3H)-benzothiazolethione", "2(3H)-Benzothiazolethione, 3-methyl-", "2-Benzothiazolinethione, 3-methyl-", "3-Methyl-2(3H)-benzothiazolethione", "3-Methylbenzothiazoline-2-thione", "N-Methylbenzothiazoline-2-thione", "3-Methyl-1,3-benzothiazoline-2-thione", "3-Methylbenzothiazole-2-thione", "3-Methylbenzo[d]thiazoline-2-thione", "NSC 66551", "2,3-Dihydro-3-methyl-2-benzothiazolethione", "N-Methylbenzothiazole-2-thione", "3-Methyl-2,3-dihydro-1,3-benzothiazole-2-thione", "3-Methylbenzo[d]thiazole-2(3H)-thione", "3-Methyl-1,3-benzothiazole-2-thione", "3-Methyl-3H-benzothiazole-2-thione"], "SMILES": "CN1C=2C(SC1=S)=CC=CC2", "physical_data": {"Molecular Weight": "181.28", "Molecular Formula": "C8H7NS2", "Boiling Point": "335 \u00b0C", "Melting Point": "90 \u00b0C"}}