{"cas_no": "22544-07-6", "cn_name": "N/A", "en_name": ["2,4\u2032-Dichloro-4-nitrodiphenyl ether", "Benzene, 2-chloro-1-(4-chlorophenoxy)-4-nitro-", "Ether, 2-chloro-4-nitrophenyl p-chlorophenyl", "2-Chloro-1-(4-chlorophenoxy)-4-nitrobenzene", "2,4\u2032-Dichloro-4-nitrodiphenyl ether", "2-Chloro-4-nitrophenyl p-chlorophenyl ether"], "SMILES": "O(C1=C(Cl)C=C(N(=O)=O)C=C1)C2=CC=C(Cl)C=C2", "physical_data": {"Molecular Weight": "284.09", "Molecular Formula": "C12H7Cl2NO3", "Melting Point": "108-110 \u00b0C"}}