{"cas_no": "225525-50-8", "cn_name": "2-N-BOC-\u6c28\u57fa\u82ef\u5e76\u567b\u5511-6-\u7fa7\u57fa \u9178", "en_name": ["2-[[(1,1-Dimethylethoxy)carbonyl]amino]-6-benzothiazolecarboxylic acid", "6-Benzothiazolecarboxylic acid, 2-[[(1,1-dimethylethoxy)carbonyl]amino]-", "2-[[(1,1-Dimethylethoxy)carbonyl]amino]-6-benzothiazolecarboxylic acid", "2-tert-Butoxycarbonylaminobenzothiazole-6-carboxylic acid", "2-(N-tert-Butoxycarbonylamino)benzothiazole-6-carboxylic acid", "2-(tert-Butoxycarbonylamino)-4-benzothiazole-6-carboxylic acid", "2-[[(tert-Butoxy)carbonyl]amino]-1,3-benzothiazole-6-carboxylic acid"], "SMILES": "N(C(OC(C)(C)C)=O)C=1SC=2C(N1)=CC=C(C(O)=O)C2", "physical_data": {"Molecular Weight": "294.33", "Molecular Formula": "C13H14N2O4S", "Melting Point": "&gt;300 \u00b0C"}}