{"cas_no": "2255-50-7", "cn_name": "4-\u7532\u6c27\u57fa\u544b\u5583\u5e76[2,3-B]\u55b9\u5549-8-\u9187", "en_name": ["8-Hydroxydictamnine", "Furo[2,3-b]quinolin-8-ol, 4-methoxy-", "4-Methoxyfuro[2,3-b]quinolin-8-ol", "Robustine (Haplophyllum)", "Robustine", "8-Hydroxydictamnine", "NPLC 0314"], "SMILES": "O(C)C=1C=2C(N=C3C1C=CO3)=C(O)C=CC2", "physical_data": {"Molecular Weight": "215.20", "Molecular Formula": "C12H9NO3", "Melting Point": "148-149 \u00b0C"}}