{"cas_no": "2255-80-3", "cn_name": "4-\u6eb4-7-\u7532\u57fa\u82ef\u5e76[C][1,2,5]\u567b\u4e8c\u5511", "en_name": ["4-Bromo-7-methyl-2,1,3-benzothiadiazole", "2,1,3-Benzothiadiazole, 4-bromo-7-methyl-", "4-Bromo-7-methyl-2,1,3-benzothiadiazole", "7-Bromo-4-methyl-2,1,3-benzothiadiazole", "4-Bromo-7-methylbenzo[1,2,5]thiadiazole"], "SMILES": "BrC=1C=2C(C(C)=CC1)=NSN2", "physical_data": {"Molecular Weight": "229.10", "Molecular Formula": "C7H5BrN2S", "Melting Point": "139.3-140.3 \u00b0C"}}