{"cas_no": "22564-43-8", "cn_name": "N-\u4e59\u57fa-N-\u6c2f\u4e59\u57fa-3-\u7532\u57fa\u82ef\u80fa", "en_name": ["N-(2-Chloroethyl)-N-ethyl-3-methylbenzenamine", "Benzenamine, N-(2-chloroethyl)-N-ethyl-3-methyl-", "m-Toluidine, N-(2-chloroethyl)-N-ethyl-", "N-(2-Chloroethyl)-N-ethyl-3-methylbenzenamine", "N-Chloroethyl-N-ethyl-m-toluidine", "N-Ethyl-N-\u03b2-chloroethyl-m-toluidine", "1-[N-Ethyl-N-(\u03b2-chloroethyl)amino]-3-methylbenzene", "N-(2-Chloroethyl)-N-ethyl-m-toluidine", "N-Ethyl-N-(2-chloroethyl)-m-toluidine", "N-(2-Chloroethyl)-N-ethyl-N-toluidine", "N-(2-Chloroethyl)-N-ethyl-3-methylaniline"], "SMILES": "N(CCCl)(CC)C1=CC(C)=CC=C1", "physical_data": {"Molecular Weight": "197.70", "Molecular Formula": "C11H16ClN", "Boiling Point": "143-144 \u00b0C @ Press: 13-14 Torr"}}