{"cas_no": "22572-40-3", "cn_name": "\u4e8c\u7532\u57fa\u6c28\u57fa\u4e19\u57fa\u4e59\u57fa\u78b3\u9170\u80fa", "en_name": ["1-[3-(Dimethylamino)propyl]-3-ethylcarbodiimide methiodide", "1-Propanaminium, 3-[(ethylcarbonimidoyl)amino]-N,N,N-trimethyl-, iodide (1:1)", "Ammonium, [3-[(ethylimidocarbonyl)amino]propyl]trimethyl-, iodide", "1-Propanaminium, 3-[(ethylcarbonimidoyl)amino]-N,N,N-trimethyl-, iodide", "[3-[(Ethylimidocarbonyl)amino]propyl]trimethylammonium iodide", "1-Ethyl-3-[3-(trimethylammonio)propyl]carbodiimide iodide", "1-Ethyl-3-(3-dimethylaminopropyl)carbodiimide methiodide", "1-[3-(Dimethylamino)propyl]-3-ethylcarbodiimide methiodide", "N-[3-(Dimethylamino)propyl]-N\u2032-ethylcarbodiimide methiodide", "(3-[[(Ethylimino)methylidene]amino]propyl)trimethylazanium iodide", "(Dimethylaminopropyl)-3-ethylcarbodiimide methiodide"], "SMILES": "C(CCN=C=NCC)[N+](C)(C)C.[I-]", "physical_data": {"Molecular Weight": "", "Molecular Formula": "C9H20N3.I", "Melting Point": "106 \u00b0C"}}