{"cas_no": "2257-35-4", "cn_name": "\u4e09\u6c2f\u4e19\u70ef\u9178", "en_name": ["2,3,3-Trichloro-2-propenoic acid", "2-Propenoic acid, 2,3,3-trichloro-", "Acrylic acid, trichloro-", "2,3,3-Trichloro-2-propenoic acid", "Perchlorovinylic acid", "Trichloroacrylic acid", "2,3,3-Trichloroacrylic acid"], "SMILES": "C(=C(Cl)Cl)(C(O)=O)Cl", "physical_data": {"Molecular Weight": "175.40", "Molecular Formula": "C3HCl3O2", "Boiling Point": "222 \u00b0C", "Melting Point": "76 \u00b0C"}}