{"cas_no": "22573-93-9", "cn_name": "\u5df1\u8054\u53cc\u8f9b\u80cd", "en_name": ["Alexidine", "2,4,11,13-Tetraazatetradecanediimidamide, N,N\u2032\u2032-bis(2-ethylhexyl)-3,12-diimino-", "Biguanide, 1,1\u2032-hexamethylenebis[5-(2-ethylhexyl)-", "N,N\u2032\u2032-Bis(2-ethylhexyl)-3,12-diimino-2,4,11,13-tetraazatetradecanediimidamide", "Alexidine", "Win 21904", "Sterwin 904", "Bisguadine", "1,6-Bis(2-ethylhexylbiguanido)hexane", "QR 711", "Bisguanidine", "Compound 904", "1,1\u2032-Hexamethylenebis[5-(2-ethylhexyl)biguanide]"], "SMILES": "C(CNC(NC(NCCCCCCNC(NC(NCC(CCCC)CC)=N)=N)=N)=N)(CCCC)CC", "physical_data": {"Molecular Weight": "508.79", "Molecular Formula": "C26H56N10", "Melting Point": "224-227 \u00b0C"}}