{"cas_no": "2257-09-2", "cn_name": "2-\u82ef\u57fa\u4e59\u57fa\u5f02\u786b\u4ee3\u6c30\u9178\u916f", "en_name": ["Phenethyl isothiocyanate", "Benzene, (2-isothiocyanatoethyl)-", "Isothiocyanic acid, phenethyl ester", "(2-Isothiocyanatoethyl)benzene", "Phenethyl mustard oil", "\u03b2-Phenylethyl isothiocyanate", "Phenylethyl isothiocyanate", "Phenylethyl mustard oil", "2-Phenylethyl isothiocyanate", "Phenethyl isothiocyanate", "\u03b2-Phenethyl isothiocyanate", "NSC 87868", "JC 5411", "1-(2-Isothiocyanatoethyl)benzene", "Beta-phenylethyl isothiocyanate"], "SMILES": "C(CN=C=S)C1=CC=CC=C1", "physical_data": {"Molecular Weight": "163.24", "Molecular Formula": "C9H9NS", "Boiling Point": "139-140 \u00b0C", "Melting Point": "203-205 \u00b0C", "Density": "1.0942 g/cm\u00b3 @ Temp: 20 \u00b0C"}}