{"cas_no": "22570-53-2", "cn_name": "\u6cfd\u6e25\u841c", "en_name": ["Zeorin", "A\u2032-Neogammacerane-6,22-diol, (6\u03b1)-", "A\u2032-Neo-21\u03b2H-gammacerane-6\u03b1,22-diol", "Zeorin", "1H-Cyclopenta[a]chrysene, A\u2032-neogammacerane-6,22-diol deriv.", "(6\u03b1)-A\u2032-Neogammacerane-6,22-diol", "\u03b1-Zeorin", "6\u03b1,22-Dihydroxyhopane"], "SMILES": "CC12C(C3(C)C(C(O)C1)C(C)(C)CCC3)CCC4C2(C)CCC5C4(C)CCC5C(C)(C)O", "physical_data": {"Molecular Weight": "444.73", "Molecular Formula": "C30H52O2", "Melting Point": "253 \u00b0C"}}