{"cas_no": "22583-75-1", "cn_name": "\u82ef\u7532\u916e-d10", "en_name": ["Benzophenone-d10", "Methanone, di(phenyl-2,3,4,5,6-d5)-", "Benzophenone-d10", "Methanone, di(phenyl-d5)-", "Di(phenyl-2,3,4,5,6-d5)methanone", "Perdeuteriobenzophenone", "Perdeuterobenzophenone", "Decadeuteriobenzophenone", "Bis(pentadeuterophenyl)methanone"], "SMILES": "C(=O)(C1=C(C=CC=C1)[2H])C2=CC=CC=C2", "physical_data": {"Molecular Weight": "", "Molecular Formula": "C13D10O", "Melting Point": "169-170 \u00b0C"}}