{"cas_no": "2258-42-6", "cn_name": "\u7532\u4e59\u9150", "en_name": ["Acetic-formic anhydride", "Acetic acid, anhydride with formic acid", "Formic-acetic anhydride", "Formyl acetic anhydride", "O-Formyl acetate", "Acetyl formyl anhydride", "Acetyl formate", "Acetoformic anhydride", "Acetic-formic mixed anhydride", "Formylacetyl anhydride", "Acetic-formic anhydride"], "SMILES": "O(C(C)=O)C=O", "physical_data": {"Molecular Weight": "88.06", "Molecular Formula": "C3H4O3", "Boiling Point": "27-28 \u00b0C @ Press: 1 Torr", "Melting Point": "122 \u00b0C"}}