{"cas_no": "2258-21-1", "cn_name": "2-\u7532\u57fa-1H-\u54aa\u5511-1-\u4e19\u80fa", "en_name": ["2-Methyl-1H-imidazole-1-propanamine", "1H-Imidazole-1-propanamine, 2-methyl-", "Imidazole, 1-(3-aminopropyl)-2-methyl-", "2-Methyl-1H-imidazole-1-propanamine", "1-(3-Aminopropyl)-2-methylimidazole", "1-(3\u2032-Aminopropyl)-2-methylimidazole", "3-(2-Methylimidazol-1-yl)propylamine", "3-(2-Methylimidazol-1-yl)propan-1-amine"], "SMILES": "C(CCN)N1C(C)=NC=C1", "physical_data": {"Molecular Weight": "139.20", "Molecular Formula": "C7H13N3", "Boiling Point": "110-112 \u00b0C @ Press: 2-3 Torr"}}