{"cas_no": "22581-63-1", "cn_name": "1,2-\u4e8c\u6eb4\u4e59\u70f7-D4", "en_name": ["Ethane-1,1,2,2-d4, 1,2-dibromo-", "Ethane-1,1,2,2-d4, 1,2-dibromo-", "Ethane-1,1,2,2-d4, dibromo-", "1,2-Dibromotetradeuteroethane", "1,2-Dibromoethane-d4", "1,2-Dibromo-1,1,2,2-tetradeuteroethane", "1,1,2,2-Tetradeutero-1,2-dibromoethane", "1,2-Dibromo-1,1,2,2-tetradeuterioethane"], "SMILES": "C(CBr)(Br)([2H])[2H]", "physical_data": {"Molecular Weight": "", "Molecular Formula": "C2Br2D4", "Boiling Point": "129.5 \u00b0C", "Melting Point": "130.15 \u00b0C", "Density": "2.20407 g/cm\u00b3 @ Temp: 20 \u00b0C"}}