{"cas_no": "22592-15-0", "cn_name": "1-\u6c2f-2-\u620a\u7094", "en_name": ["1-Chloro-2-pentyne", "2-Pentyne, 1-chloro-", "1-Chloro-2-pentyne"], "SMILES": "C(#CCCl)CC", "physical_data": {"Molecular Weight": "102.56", "Molecular Formula": "C5H7Cl", "Melting Point": "195 \u00b0C"}}