{"cas_no": "22591-21-5", "cn_name": "1,1-\u4e8c\u6c2f\u9891\u54ea\u916e", "en_name": ["1,1-Dichloro-3,3-dimethyl-2-butanone", "2-Butanone, 1,1-dichloro-3,3-dimethyl-", "1,1-Dichloro-3,3-dimethyl-2-butanone", "Dichloromethyl tert-butyl ketone", "\u03b1,\u03b1-Dichloropinacolin", "1,1-Dichloropinacolone"], "SMILES": "C(C(C)(C)C)(C(Cl)Cl)=O", "physical_data": {"Molecular Weight": "169.05", "Molecular Formula": "C6H10Cl2O", "Boiling Point": "79-84 \u00b0C @ Press: 15 Torr", "Melting Point": "50-51 \u00b0C"}}