{"cas_no": "2259-06-5", "cn_name": "\u6866\u6728\u9178\u7532\u916f", "en_name": ["Methyl betulinate", "Lup-20(29)-en-28-oic acid, 3-hydroxy-, methyl ester, (3\u03b2)-", "Lup-20(29)-en-28-oic acid, 3\u03b2-hydroxy-, methyl ester", "Lup-20(30)-en-28-oic acid, 3\u03b2-hydroxy-, methyl ester", "1H-Cyclopenta[a]chrysene, lup-20(29)-en-28-oic acid deriv.", "Methyl betulinate", "Methyl betulate", "Betulinic acid methyl ester", "Mairin, methyl ester", "NSC 152532"], "SMILES": "C(OC)(=O)C12C(C3C(C)(CC1)C4(C)C(CC3)C5(C)C(CC4)C(C)(C)C(O)CC5)C(C(C)=C)CC2", "physical_data": {"Molecular Weight": "470.73", "Molecular Formula": "C31H50O3", "Melting Point": "224-225 \u00b0C"}}