{"cas_no": "2259-96-3", "cn_name": "\u83b0\u70ef\u6c2f\u567b\u55ea", "en_name": ["Cyclothiazide", "2H-1,2,4-Benzothiadiazine-7-sulfonamide, 3-bicyclo[2.2.1]hept-5-en-2-yl-6-chloro-3,4-dihydro-, 1,1-dioxide", "2H-1,2,4-Benzothiadiazine-7-sulfonamide, 6-chloro-3,4-dihydro-3-(5-norbornen-2-yl)-, 1,1-dioxide", "MDi 193", "Anhydron", "6-Chloro-3,4-dihydro-3-(5-norbornen-2-yl)-2H-1,2,4-benzothiadiazine-7-sulfonamide-1,1-dioxide", "6-Chloro-3,4-dihydro-3-(5-norbornen-2-yl)-7-sulfamyl-1,2,4-benzothiadiazine-1,1-dioxide", "6-Chloro-3-(5-norbornen-2-yl)-7-sulfamoyl-3,4-dihydro-2H-1,2,4-benzothiadiazine-1,1-dioxide", "Cyclothiazide", "Doburil", "6-Chloro-3-(5-bicyclo[2.2.1]hept-2-enyl)-7-sulfamoyl-3,4-dihydro-1,2,4-benzothiadiazine 1,1-dioxide", "Aquirel", "Renazide", "Valmiran", "Fluidil", "Lilly 35483"], "SMILES": "O=S1(=O)NC(C2C3CC(C2)C=C3)NC=4C1=CC(S(N)(=O)=O)=C(Cl)C4", "physical_data": {"Molecular Weight": "389.88", "Molecular Formula": "C14H16ClN3O4S2", "Melting Point": "234 \u00b0C"}}