{"cas_no": "226-36-8", "cn_name": "\u4e8c\u82ef\u5e76(A,H)\u6742\u84bd", "en_name": ["Dibenz[a,h]acridine", "Dibenz[a,h]acridine", "7-Azadibenz[a,h]anthracene", "1,2:5,6-Dibenzacridine", "Dibenz[a,d]acridine", "1,2,5,6-Dibenzoacridine"], "SMILES": "C12=C3C(=CC=C1N=C4C(=C2)C=CC=5C4=CC=CC5)C=CC=C3", "physical_data": {"Molecular Weight": "279.33", "Molecular Formula": "C21H13N", "Melting Point": "226 \u00b0C"}}