{"cas_no": "22608-11-3", "cn_name": "\u8131\u7532\u6c27\u59dc\u9ec4", "en_name": ["Demethoxycurcumin", "1,6-Heptadiene-3,5-dione, 1-(4-hydroxy-3-methoxyphenyl)-7-(4-hydroxyphenyl)-, (1E,6E)-", "1,6-Heptadiene-3,5-dione, 1-(4-hydroxy-3-methoxyphenyl)-7-(p-hydroxyphenyl)-", "1,6-Heptadiene-3,5-dione, 1-(4-hydroxy-3-methoxyphenyl)-7-(4-hydroxyphenyl)-, (E,E)-", "(1E,6E)-1-(4-Hydroxy-3-methoxyphenyl)-7-(4-hydroxyphenyl)-1,6-heptadiene-3,5-dione", "Demethoxycurcumin", "Curcumin II", "Monodemethoxycurcumin", "Desmethoxycurcumin", "(1E,6E)-1-(4-Hydroxyphenyl)-7-(4-hydroxy-3-methoxyphenyl)-1,6-heptadiene-3,5-dione", "(1E,6E)-1-(4-Hydroxy-3-methoxyphenyl)-7-(4-hydroxyphenyl)hepta-1,6-diene-3,5-dione"], "SMILES": "C(=CC(CC(C=CC1=CC=C(O)C=C1)=O)=O)C2=CC(OC)=C(O)C=C2", "physical_data": {"Molecular Weight": "338.35", "Molecular Formula": "C20H18O5", "Melting Point": "168 \u00b0C"}}