{"cas_no": "2260-50-6", "cn_name": "\u4e59\u9170\u80c6\u78b1\u7898\u5316\u7269", "en_name": ["Acetylcholine iodide", "Ethanaminium, 2-(acetyloxy)-N,N,N-trimethyl-, iodide (1:1)", "Choline acetate (ester), iodide", "Ethanaminium, 2-(acetyloxy)-N,N,N-trimethyl-, iodide", "Choline, acetyl-, iodide", "Acetylcholine iodide", "2-(Dimethylamino)ethyl acetate methiodide"], "SMILES": "C(COC(C)=O)[N+](C)(C)C.[I-]", "physical_data": {"Molecular Weight": "", "Molecular Formula": "C7H16NO2.I", "Melting Point": "160-162 \u00b0C", "Density": "1.43 g/cm\u00b3"}}