{"cas_no": "22607-75-6", "cn_name": "4-AZATRICYCLO[4.3.1.1~3,8~]UNDECAN-5-ONE HYDROCHLORIDE", "en_name": ["4-Azatricyclo[4.3.1.13,8]undecan-5-one", "4-Azatricyclo[4.3.1.13,8]undecan-5-one", "4-Azahomoadamantan-5-one", "NSC 145164"], "SMILES": "O=C1C2CC3CC(C2)CC(N1)C3", "physical_data": {"Molecular Weight": "165.23", "Molecular Formula": "C10H15NO", "Melting Point": "309-310 \u00b0C"}}