{"cas_no": "226085-18-3", "cn_name": "3-\u6eb4-1-[(4-\u7532\u57fa\u82ef\u57fa)\u78fa\u9170\u57fa]-1H-\u5421\u54af\u5e76[2,3-B]\u5421\u5576", "en_name": ["3-Bromo-1-[(4-methylphenyl)sulfonyl]-1H-pyrrolo[2,3-b]pyridine", "1H-Pyrrolo[2,3-b]pyridine, 3-bromo-1-[(4-methylphenyl)sulfonyl]-", "3-Bromo-1-[(4-methylphenyl)sulfonyl]-1H-pyrrolo[2,3-b]pyridine", "3-Bromo-1-tosyl-1H-pyrrolo[2,3-b]pyridine", "3-Bromo-1-(4-methylphenyl)sulfonylpyrrolo[2,3-b]pyridine"], "SMILES": "S(=O)(=O)(N1C=2C(C(Br)=C1)=CC=CN2)C3=CC=C(C)C=C3", "physical_data": {"Molecular Weight": "351.22", "Molecular Formula": "C14H11BrN2O2S", "Melting Point": "144-146 \u00b0C"}}