{"cas_no": "2261-99-6", "cn_name": "\u7532\u57fa\u4e19\u70ef\u9178\u5341\u4e8c\u6c1f\u5e9a\u916f", "en_name": ["1,1,7-Trihydrododecafluoroheptyl methacrylate", "2-Propenoic acid, 2-methyl-, 2,2,3,3,4,4,5,5,6,6,7,7-dodecafluoroheptyl ester", "Methacrylic acid, 2,2,3,3,4,4,5,5,6,6,7,7-dodecafluoroheptyl ester", "1-Heptanol, 2,2,3,3,4,4,5,5,6,6,7,7-dodecafluoro-, methacrylate", "1,1,7-Trihydrododecafluoroheptyl methacrylate", "\u03b1,\u03b1,\u03c9-Trihydroperfluoroheptyl methacrylate", "1H,1H,7H-Dodecafluoroheptyl methacrylate", "M 5610", "1H,1H,7H-Perfluoroheptyl methacrylate", "2,2,3,3,4,4,5,5,6,6,7,7-Dodecafluoroheptyl 2-methylprop-2-enoate"], "SMILES": "C(C(C(COC(C(C)=C)=O)(F)F)(F)F)(C(C(C(F)F)(F)F)(F)F)(F)F", "physical_data": {"Molecular Weight": "400.16", "Molecular Formula": "C11H8F12O2", "Boiling Point": "112 \u00b0C @ Press: 40 Torr"}}