{"cas_no": "22614-75-1", "cn_name": "6-\u6c1f\u55b9\u5549-2(1H)-\u916e", "en_name": ["6-Fluoro-2(1H)-quinolinone", "2(1H)-Quinolinone, 6-fluoro-", "Carbostyril, 6-fluoro-", "6-Fluoro-2(1H)-quinolinone", "6-Fluorocarbostyril", "6-Fluoro-1H-quinolin-2-one", "6-Fluoroquinolin-2(1H)-one"], "SMILES": "FC=1C=C2C(NC(=O)C=C2)=CC1", "physical_data": {"Molecular Weight": "163.15", "Molecular Formula": "C9H6FNO", "Melting Point": "270-275 \u00b0C"}}