{"cas_no": "22627-70-9", "cn_name": "3-\u4e59\u6c27\u57fa-2-\u73af\u620a\u70ef\u916e", "en_name": ["3-Ethoxy-2-cyclopenten-1-one", "2-Cyclopenten-1-one, 3-ethoxy-", "3-Ethoxy-2-cyclopenten-1-one", "3-Ethoxy-2-cyclopentenone", "3-Ethoxycyclopent-2-en-1-one", "1-Ethoxy-1-cyclopenten-3-one"], "SMILES": "O(CC)C1=CC(=O)CC1", "physical_data": {"Molecular Weight": "126.15", "Molecular Formula": "C7H10O2", "Boiling Point": "62 \u00b0C @ Press: 5 Torr"}}