{"cas_no": "22620-32-2", "cn_name": "(5-\u6c1f\u5421\u5576-3-\u57fa)\u7532\u9187", "en_name": ["5-Fluoro-3-pyridinemethanol", "3-Pyridinemethanol, 5-fluoro-", "5-Fluoro-3-pyridinemethanol", "(5-Fluoro-3-pyridyl)methanol", "5-Fluoro-3-hydroxymethylpyridine", "(5-Fluoropyridin-3-yl)methanol"], "SMILES": "C(O)C=1C=C(F)C=NC1", "physical_data": {"Molecular Weight": "127.12", "Molecular Formula": "C6H6FNO", "Boiling Point": "123 \u00b0C @ Press: 0.4 Torr"}}