{"cas_no": "22625-57-6", "cn_name": "5-\u6c2f\u7532\u57fa-2-\u6c27\u5511\u5549\u916e", "en_name": ["5-(Chloromethyl)-2-oxazolidinone", "2-Oxazolidinone, 5-(chloromethyl)-", "5-(Chloromethyl)-2-oxazolidinone", "NSC 111158", "5-(Chloromethyl)-1,3-oxazolidin-2-one", "5-Chloromethyl-2-oxooxazolidine"], "SMILES": "C(Cl)C1OC(=O)NC1", "physical_data": {"Molecular Weight": "135.55", "Molecular Formula": "C4H6ClNO2", "Melting Point": "105-106 \u00b0C"}}