{"cas_no": "226256-56-0", "cn_name": "\u897f\u90a3\u5361\u585e", "en_name": ["Cinacalcet", "1-Naphthalenemethanamine, \u03b1-methyl-N-[3-[3-(trifluoromethyl)phenyl]propyl]-, (\u03b1R)-", "(\u03b1R)-\u03b1-Methyl-N-[3-[3-(trifluoromethyl)phenyl]propyl]-1-naphthalenemethanamine", "Cinacalcet", "AMG 073", "N-[(1R)-1-(1-Naphthyl)ethyl]-3-[3-(trifluoromethyl)phenyl]propan-1-amine", "Parareg"], "SMILES": "C(NCCCC1=CC(C(F)(F)F)=CC=C1)(C)C=2C3=C(C=CC2)C=CC=C3", "physical_data": {"Molecular Weight": "357.41", "Molecular Formula": "C22H22F3N", "Boiling Point": "178.2 \u00b0C"}}