{"cas_no": "22621-41-6", "cn_name": "3-\u785d\u57fa\u6c34\u6768\u9178\u7532\u916f", "en_name": ["Benzoic acid, 2-hydroxy-3-nitro-, methyl ester", "Benzoic acid, 2-hydroxy-3-nitro-, methyl ester", "Salicylic acid, 3-nitro-, methyl ester", "Methyl 3-nitrosalicylate", "2-(Methoxycarbonyl)-6-nitrophenol", "3-Nitrosalicylic acid methyl ester", "Methyl 2-hydroxy-3-nitrobenzoate", "2-Hydroxy-3-nitrobenzoic acid methyl ester"], "SMILES": "C(OC)(=O)C1=C(O)C(N(=O)=O)=CC=C1", "physical_data": {"Molecular Weight": "197.14", "Molecular Formula": "C8H7NO5", "Melting Point": "132 \u00b0C"}}