{"cas_no": "22633-33-6", "cn_name": "3,5-\u4e8c\u785d\u57fa\u6c34\u6768\u9178\u7532\u916f", "en_name": ["Methyl 2-hydroxy-3,5-dinitrobenzoate", "Benzoic acid, 2-hydroxy-3,5-dinitro-, methyl ester", "Salicylic acid, 3,5-dinitro-, methyl ester", "Methyl 2-hydroxy-3,5-dinitrobenzoate", "Methyl 3,5-dinitrosalicylate", "NSC 203306", "2-Hydroxy-3,5-dinitro-benzoic acid methyl ester"], "SMILES": "C(OC)(=O)C1=C(O)C(N(=O)=O)=CC(N(=O)=O)=C1", "physical_data": {"Molecular Weight": "242.14", "Molecular Formula": "C8H6N2O7", "Melting Point": "127-128 \u00b0C"}}