{"cas_no": "22632-59-3", "cn_name": "\u4e19\u620a\u9178\u7532\u916f", "en_name": ["Pentanoic acid, 2-propyl-, methyl ester", "Pentanoic acid, 2-propyl-, methyl ester", "Valeric acid, 2-propyl-, methyl ester", "Methyl dipropylacetate", "Methyl 2-propylpentanoate", "Methyl valproate", "2-Propyl-pentanoic acid methyl ester"], "SMILES": "C(C(OC)=O)(CCC)CCC", "physical_data": {"Molecular Weight": "158.24", "Molecular Formula": "C9H18O2", "Boiling Point": "171 \u00b0C"}}