{"cas_no": "22649-04-3", "cn_name": "TORACHRYSONE", "en_name": ["Torachrysone", "Ethanone, 1-(1,8-dihydroxy-6-methoxy-3-methyl-2-naphthalenyl)-", "2\u2032-Acetonaphthone, 1\u2032,8\u2032-dihydroxy-6\u2032-methoxy-3\u2032-methyl-", "1-(1,8-Dihydroxy-6-methoxy-3-methyl-2-naphthalenyl)ethanone", "Torachrysone", "Nakahalene", "Trachrysone", "1,8-Dihydroxy-2-acetyl-3-methyl-6-methoxynaphthalene"], "SMILES": "OC=1C2=C(C=C(OC)C=C2O)C=C(C)C1C(C)=O", "physical_data": {"Molecular Weight": "246.26", "Molecular Formula": "C14H14O4", "Melting Point": "210-214 \u00b0C"}}