{"cas_no": "22644-28-6", "cn_name": "(R)-2-\u7532\u57fa-1,4-\u4e01\u4e8c\u9187", "en_name": ["(2R)-2-Methyl-1,4-butanediol", "1,4-Butanediol, 2-methyl-, (2R)-", "1,4-Butanediol, 2-methyl-, (R)-(+)-", "1,4-Butanediol, 2-methyl-, (R)-", "(2R)-2-Methyl-1,4-butanediol", "(R)-2-Methyl-1,4-butanediol", "(R)-2-Methylbutane-1,4-diol", "(R)-2-Methylbutan-1,4-diol", "(2R)-2-Methylbutane-1,4-diol"], "SMILES": "C(CCO)(CO)C", "physical_data": {"Molecular Weight": "104.15", "Molecular Formula": "C5H12O2", "Boiling Point": "131-132 \u00b0C @ Press: 18 Torr"}}