{"cas_no": "2265-94-3", "cn_name": "3,5-\u4e8c\u6c1f\u785d\u57fa\u82ef", "en_name": ["1,3-Difluoro-5-nitrobenzene", "Benzene, 1,3-difluoro-5-nitro-", "1,3-Difluoro-5-nitrobenzene", "3,5-Difluoronitrobenzene", "3,5-Difluoro-1-nitrobenzene", "NSC 10260"], "SMILES": "N(=O)(=O)C1=CC(F)=CC(F)=C1", "physical_data": {"Molecular Weight": "159.09", "Molecular Formula": "C6H3F2NO2", "Boiling Point": "176.5 \u00b0C", "Melting Point": "17 \u00b0C"}}