{"cas_no": "2265-64-7", "cn_name": "\u5730\u585e\u7c73\u677e\u5f02\u70df\u9178\u916f", "en_name": ["Dexamethasone 21-isonicotinate", "Pregna-1,4-diene-3,20-dione, 9-fluoro-11,17-dihydroxy-16-methyl-21-[(4-pyridinylcarbonyl)oxy]-, (11\u03b2,16\u03b1)-", "Pregna-1,4-diene-3,20-dione, 9-fluoro-11\u03b2,17,21-trihydroxy-16\u03b1-methyl-, 21-isonicotinate", "(11\u03b2,16\u03b1)-9-Fluoro-11,17-dihydroxy-16-methyl-21-[(4-pyridinylcarbonyl)oxy]pregna-1,4-diene-3,20-dione", "Isonicotinic acid, 21-ester with 9-fluoro-11\u03b2,17,21-trihydroxy-16\u03b1-methylpregna-1,4-diene-3,20-dione", "HE 111", "Dexamethasone isonicotinate", "Isonicotinic acid dexamethasone-21 ester", "Pyridine-4-carboxylic acid 21-dexamethasone ester", "Dexamethasone 21-isonicotinate", "Pyridine-4-carboxylic acid-(dexamethasone-21\u2032)-ester", "Voren", "Auxiloson", "Dexamethasone 21-(4-pyridinecarboxylate)", "Ketoren", "Ausixone", "Alin Depot"], "SMILES": "CC12C(C3C(F)(C4(C)C(CC3)=CC(=O)C=C4)C(O)C1)CC(C)C2(C(COC(=O)C=5C=CN=CC5)=O)O", "physical_data": {"Molecular Weight": "497.56", "Molecular Formula": "C28H32FNO6", "Melting Point": "250-252 \u00b0C"}}