{"cas_no": "22651-87-2", "cn_name": "\u73af\u5df1\u7532\u9178\u9150", "en_name": ["Cyclohexanecarboxylic anhydride", "Cyclohexanecarboxylic acid, 1,1\u2032-anhydride", "Cyclohexanecarboxylic anhydride", "Cyclohexanecarboxylic acid, anhydride", "NSC 75109"], "SMILES": "C(OC(=O)C1CCCCC1)(=O)C2CCCCC2", "physical_data": {"Molecular Weight": "238.32", "Molecular Formula": "C14H22O3", "Boiling Point": "160-162 \u00b0C", "Melting Point": "25 \u00b0C"}}