{"cas_no": "226561-02-0", "cn_name": "AMARONOL B", "en_name": ["(-)-2-[(3,5-Dihydroxy-4-methoxyphenyl)methyl]-2,4,6-trihydroxy-3(2H)-benzofuranone", "3(2H)-Benzofuranone, 2-[(3,5-dihydroxy-4-methoxyphenyl)methyl]-2,4,6-trihydroxy-, (-)-", "(-)-2-[(3,5-Dihydroxy-4-methoxyphenyl)methyl]-2,4,6-trihydroxy-3(2H)-benzofuranone", "Amaronol B", "2-[(3,5-Dihydroxy-4-methoxyphenyl)methyl]-2,4,6-trihydroxy-1-benzofuran-3-one"], "SMILES": "C(C1(O)C(=O)C=2C(O1)=CC(O)=CC2O)C3=CC(O)=C(OC)C(O)=C3", "physical_data": {"Molecular Weight": "334.28", "Molecular Formula": "C16H14O8", "Melting Point": "94-96 \u00b0C"}}