{"cas_no": "2265-91-0", "cn_name": "1,3-\u4e8c\u6c1f-5-\u7898\u82ef", "en_name": ["1,3-Difluoro-5-iodobenzene", "Benzene, 1,3-difluoro-5-iodo-", "1,3-Difluoro-5-iodobenzene", "3,5-Difluoroiodobenzene", "1-Iodo-3,5-difluorobenzene", "3,5-Difluoro-1-iodobenzene"], "SMILES": "FC1=CC(F)=CC(I)=C1", "physical_data": {"Molecular Weight": "239.99", "Molecular Formula": "C6H3F2I", "Boiling Point": "58-60 \u00b0C"}}