{"cas_no": "22663-37-2", "cn_name": "4-\u6c2f\u82ef\u78fa\u9170\u8132", "en_name": ["N-(Aminocarbonyl)-4-chlorobenzenesulfonamide", "Benzenesulfonamide, N-(aminocarbonyl)-4-chloro-", "Urea, [(p-chlorophenyl)sulfonyl]-", "N-(Aminocarbonyl)-4-chlorobenzenesulfonamide", "p-Chlorobenzenesulfonylurea", "[(p-Chlorophenyl)sulfonyl]urea", "4-Chlorobenzenesulfonylurea", "P 571", "N-(p-Chlorobenzenesulfonyl)urea", "1-(p-Chlorophenylsulfonyl)urea", "(4-Chlorophenyl)sulfonylurea"], "SMILES": "S(NC(N)=O)(=O)(=O)C1=CC=C(Cl)C=C1", "physical_data": {"Molecular Weight": "234.66", "Molecular Formula": "C7H7ClN2O3S", "Melting Point": "180-182 \u00b0C"}}