{"cas_no": "22668-01-5", "cn_name": "\u4f9d\u4ed6\u785d\u5511", "en_name": ["Etanidazole", "1H-Imidazole-1-acetamide, N-(2-hydroxyethyl)-2-nitro-", "Imidazole-1-acetamide, N-(2-hydroxyethyl)-2-nitro-", "N-(2-Hydroxyethyl)-2-nitro-1H-imidazole-1-acetamide", "SR 2508", "NSC 301-467", "Etanidazole", "Radinyl", "N-(2-Hydroxyethyl)-2-(2-nitro-1H-imidazol-1-yl)acetamide", "MeSH ID: D017341"], "SMILES": "N(=O)(=O)C=1N(CC(NCCO)=O)C=CN1", "physical_data": {"Molecular Weight": "214.18", "Molecular Formula": "C7H10N4O4", "Melting Point": "163.5-164.7 \u00b0C"}}