{"cas_no": "22662-39-1", "cn_name": "\u7898\u919a\u67f3\u80fa", "en_name": ["Rafoxanide", "Benzamide, N-[3-chloro-4-(4-chlorophenoxy)phenyl]-2-hydroxy-3,5-diiodo-", "Salicylanilide, 3\u2032-chloro-4\u2032-(p-chlorophenoxy)-3,5-diiodo-", "N-[3-Chloro-4-(4-chlorophenoxy)phenyl]-2-hydroxy-3,5-diiodobenzamide", "Rafoxanide", "3,5-Diiodo-3\u2032-chloro-4\u2032-(p-chlorophenoxy)salicylanilide", "3,5-Diodo-3\u2032-chloro-4\u2032-(p-chlorophenoxy)salicylanilide", "Ranide", "3\u2032-Chloro-4\u2032-(p-chlorophenoxy)-3,5-diiodosalicylanilide", "3\u2032-Chloro-4\u2032-(4-chlorophenoxy)-3,5-diiodosalicylanilide", "Disalan", "NSC 355278", "MeSH ID: D011888"], "SMILES": "C(NC1=CC(Cl)=C(OC2=CC=C(Cl)C=C2)C=C1)(=O)C3=C(O)C(I)=CC(I)=C3", "physical_data": {"Molecular Weight": "626.01", "Molecular Formula": "C19H11Cl2I2NO3", "Melting Point": "169 \u00b0C"}}