{"cas_no": "22664-55-7", "cn_name": "\u7f8e\u66ff\u6d1b\u5c14", "en_name": ["Metipranolol", "Phenol, 4-[2-hydroxy-3-[(1-methylethyl)amino]propoxy]-2,3,6-trimethyl-, 1-acetate", "2-Propanol, 1-(4-hydroxy-2,3,5-trimethylphenoxy)-3-(isopropylamino)-, 4-acetate", "Trimepranol", "VUFB 6453", "Disorat", "Metipranolol", "Methypranol", "BM 01.004", "VUAB 6453", "(\u00b1)-1-(4-Acetoxy-2,3,5-trimethylphenoxy)-3-(isopropylamino)-2-propanol", "(RS)-Metipranolol", "DL-Metipranolol", "(\u00b1)-Metipranolol", "Glausyn", "Betamet", "Glauline", "Turoptin", "Betanol", "[4-[2-Hydroxy-3-(propan-2-ylamino)propoxy]-2,3,6-trimethylphenyl] acetate", "MeSH ID: D014290"], "SMILES": "O(CC(CNC(C)C)O)C1=C(C)C(C)=C(OC(C)=O)C(C)=C1", "physical_data": {"Molecular Weight": "309.40", "Molecular Formula": "C17H27NO4", "Melting Point": "105-107 \u00b0C"}}