{"cas_no": "2267-25-6", "cn_name": "2-\u6c2f-4-\u6c1f\u82ef\u7532\u919a", "en_name": ["2-Chloro-4-fluoro-1-methoxybenzene", "Benzene, 2-chloro-4-fluoro-1-methoxy-", "Anisole, 2-chloro-4-fluoro-", "2-Chloro-4-fluoro-1-methoxybenzene", "2-Chloro-4-fluoroanisole"], "SMILES": "O(C)C1=C(Cl)C=C(F)C=C1", "physical_data": {"Molecular Weight": "160.57", "Molecular Formula": "C7H6ClFO", "Boiling Point": "67 \u00b0C @ Press: 5 Torr"}}