{"cas_no": "22679-54-5", "cn_name": "4-\u53d4\u4e01\u57fa\u82ef\u7532\u916e", "en_name": ["4-tert-Butylbenzophenone", "Methanone, [4-(1,1-dimethylethyl)phenyl]phenyl-", "Benzophenone, 4-tert-butyl-", "[4-(1,1-Dimethylethyl)phenyl]phenylmethanone", "4-tert-Butylbenzophenone", "p-tert-Butylbenzophenone", "(4-(tert-Butyl)phenyl)(phenyl)methanone"], "SMILES": "C(=O)(C1=CC=C(C(C)(C)C)C=C1)C2=CC=CC=C2", "physical_data": {"Molecular Weight": "238.32", "Molecular Formula": "C17H18O", "Boiling Point": "132-134 \u00b0C @ Press: 0.1 Torr"}}