{"cas_no": "2268-79-3", "cn_name": "6-\u7532\u57fa-2-\u5def\u57fa\u82ef\u5e76\u567b\u5511", "en_name": ["6-Methyl-2(3H)-benzothiazolethione", "2(3H)-Benzothiazolethione, 6-methyl-", "2-Benzothiazolethiol, 6-methyl-", "6-Methyl-2(3H)-benzothiazolethione", "2-Mercapto-6-methylbenzothiazole", "6-Methyl-2-benzothiazolethiol"], "SMILES": "S=C1NC=2C(S1)=CC(C)=CC2", "physical_data": {"Molecular Weight": "181.28", "Molecular Formula": "C8H7NS2", "Melting Point": "175.5-178.5 \u00b0C"}}