{"cas_no": "22688-78-4", "cn_name": "\u5c71\u5948\u915a\u8461\u8404\u7cd6\u919b\u9178\u82f7", "en_name": ["Kaempferol 3-O-glucuronide", "\u03b2-D-Glucopyranosiduronic acid, 5,7-dihydroxy-2-(4-hydroxyphenyl)-4-oxo-4H-1-benzopyran-3-yl", "Glucopyranosiduronic acid, 5,7-dihydroxy-2-(p-hydroxyphenyl)-4-oxo-4H-1-benzopyran-3-yl, \u03b2-D-", "5,7-Dihydroxy-2-(4-hydroxyphenyl)-4-oxo-4H-1-benzopyran-3-yl \u03b2-D-glucopyranosiduronic acid", "Glucuronyl-3-kaempferol", "Kaempferol 3-glucuronide", "Kaempferol 3-\u03b2-glucuronide", "Kaempferol 3-\u03b2-D-glucuronide", "Kaempferol 3-O-glucuronide", "Kaempherol 3-O-\u03b2-glucuronide", "Kaempferol 3-O-\u03b2-glucuronide", "Kaempferol 3-O-\u03b2-D-glucuronide", "Kaempferol 3-O-\u03b2-D-glucuronopyranoside"], "SMILES": "O(C1=C(OC=2C(C1=O)=C(O)C=C(O)C2)C3=CC=C(O)C=C3)C4OC(C(O)=O)C(O)C(O)C4O", "physical_data": {"Molecular Weight": "462.36", "Molecular Formula": "C21H18O12", "Melting Point": "189-191 \u00b0C"}}