{"cas_no": "2268-05-5", "cn_name": "2,6-\u4e8c\u6c2f\u6c1f\u82ef", "en_name": ["1,3-Dichloro-2-fluorobenzene", "Benzene, 1,3-dichloro-2-fluoro-", "1,3-Dichloro-2-fluorobenzene", "2,6-Dichlorofluorobenzene", "1-Fluoro-2,6-dichlorobenzene", "2-Fluoro-1,3-dichlorobenzene", "2,6-Dichloro-1-fluorobenzene"], "SMILES": "FC1=C(Cl)C=CC=C1Cl", "physical_data": {"Molecular Weight": "164.99", "Molecular Formula": "C6H3Cl2F", "Boiling Point": "168-169 \u00b0C", "Melting Point": "35 \u00b0C"}}