{"cas_no": "22688-79-5", "cn_name": "2-(3,4\u4e8c\u7f9f\u57fa\u82ef\u57fa)-5,7-\u4e8c\u7f9f\u57fa-4-\u6c27\u4ee3-4H-1-\u82ef\u5e76\u5421\u5583-3-\u57fa-BETA-D-\u5421\u5583\u8461\u7cd6\u82f7\u9178", "en_name": ["Quercetin 3-glucuronide", "\u03b2-D-Glucopyranosiduronic acid, 2-(3,4-dihydroxyphenyl)-5,7-dihydroxy-4-oxo-4H-1-benzopyran-3-yl", "Glucopyranosiduronic acid, 2-(3,4-dihydroxyphenyl)-5,7-dihydroxy-4-oxo-4H-1-benzopyran-3-yl, \u03b2-D-", "Miquelianin", "2-(3,4-Dihydroxyphenyl)-5,7-dihydroxy-4-oxo-4H-1-benzopyran-3-yl \u03b2-D-glucopyranosiduronic acid", "Quercetin 3-glucuronide", "Querciturone", "Quercetin 3-\u03b2-glucuronide", "Quercetin 3-\u03b2-D-glucuronide", "Quercetin 3-O-\u03b2-D-glucuronopyranoside", "Quercetin 3-O-\u03b2-D-glucuronide", "Quercituron", "Quercetin 3-O-glucuronide", "Quercetin-3-O-\u03b2-glucuronide", "Mikwelianin", "Quercetin 3-\u03b2-D-glucuronopyranoside", "Quercetin 3-O-\u03b2-D-glucopyranosiduronic acid", "Q3GA"], "SMILES": "O(C1=C(OC=2C(C1=O)=C(O)C=C(O)C2)C3=CC(O)=C(O)C=C3)C4OC(C(O)=O)C(O)C(O)C4O", "physical_data": {"Molecular Weight": "478.36", "Molecular Formula": "C21H18O13", "Melting Point": "190-192 \u00b0C"}}