{"cas_no": "226954-04-7", "cn_name": "AC-5216", "en_name": ["N-Ethyl-7,8-dihydro-7-methyl-8-oxo-2-phenyl-N-(phenylmethyl)-9H-purine-9-acetamide", "9H-Purine-9-acetamide, N-ethyl-7,8-dihydro-7-methyl-8-oxo-2-phenyl-N-(phenylmethyl)-", "N-Ethyl-7,8-dihydro-7-methyl-8-oxo-2-phenyl-N-(phenylmethyl)-9H-purine-9-acetamide", "Emapunil", "AC 5216", "XBD 173"], "SMILES": "C(C(N(CC1=CC=CC=C1)CC)=O)N2C=3C(N(C)C2=O)=CN=C(N3)C4=CC=CC=C4", "physical_data": {"Molecular Weight": "401.46", "Molecular Formula": "C23H23N5O2", "Melting Point": "165.5-166.5 \u00b0C"}}