{"cas_no": "22697-65-0", "cn_name": "5,7,4'-TRIHYDROXY-3,6-DIMETHOXYFLAVONE", "en_name": ["6-Hydroxykaempferol 3,6-dimethyl ether", "4H-1-Benzopyran-4-one, 5,7-dihydroxy-2-(4-hydroxyphenyl)-3,6-dimethoxy-", "Flavone, 4\u2032,5,7-trihydroxy-3,6-dimethoxy-", "5,7-Dihydroxy-2-(4-hydroxyphenyl)-3,6-dimethoxy-4H-1-benzopyran-4-one", "4\u2032,5,7-Trihydroxy-3,6-dimethoxyflavone", "Galetin 3,6-dimethyl ether", "6-Methoxykaempferol 3-methyl ether", "5,7,4\u2032-Trihydroxy-3,6-dimethoxyflavone", "3,6-Dimethoxyapigenin", "6-Hydroxykaempferol 3,6-dimethyl ether", "6-Methoxy-3-O-methylkaempferol", "NSC 271638", "Viscosine (pharmaceutical)", "Viscosine"], "SMILES": "O=C1C=2C(OC(=C1OC)C3=CC=C(O)C=C3)=CC(O)=C(OC)C2O", "physical_data": {"Molecular Weight": "330.29", "Molecular Formula": "C17H14O7", "Melting Point": "217 \u00b0C"}}