{"cas_no": "2270-20-4", "cn_name": "5-\u82ef\u57fa\u620a\u9178", "en_name": ["Benzenepentanoic acid", "Benzenepentanoic acid", "Valeric acid, 5-phenyl-", "Valeric acid, \u03b4-phenyl-", "Phenylvaleric acid", "5-Phenylvaleric acid", "Phenylpentanoic acid", "5-Phenylpentanoic acid", "\u03b4-Phenylvaleric acid", "NSC 65637"], "SMILES": "C(CCCC(O)=O)C1=CC=CC=C1", "physical_data": {"Molecular Weight": "178.23", "Molecular Formula": "C11H14O2", "Boiling Point": "190 \u00b0C", "Melting Point": "57.5 \u00b0C"}}