{"cas_no": "22705-32-4", "cn_name": "\u4e8c\u7532\u7845\u57fa\u4e8c\u7532\u80fa", "en_name": ["N,N,1,1-Tetramethylsilanamine", "Silanamine, N,N,1,1-tetramethyl-", "Silylamine, N,N,1,1-tetramethyl-", "N,N,1,1-Tetramethylsilanamine", "(Dimethylamino)dimethylsilane", "Dimethyl(dimethylsilyl)amine", "N,N-Dimethylaminodimethylsilane", "(Dimethylsilyl)dimethylamine"], "SMILES": "N([SiH](C)C)(C)C", "physical_data": {"Molecular Weight": "103.24", "Molecular Formula": "C4H13NSi", "Boiling Point": "67.00 \u00b0C"}}