{"cas_no": "2270-40-8", "cn_name": "\u4e8c\u4e59\u9170\u9573\u8349\u9570\u5200\u83cc\u70ef\u9187", "en_name": ["Diacetoxyscirpenol", "Trichothec-9-ene-3,4,15-triol, 12,13-epoxy-, 4,15-diacetate, (3\u03b1,4\u03b2)-", "Trichothec-9-ene-3\u03b1,4\u03b2,15-triol, 12,13-epoxy-, 4,15-diacetate", "Anguidin", "Diacetoxyscirpenol", "4\u03b2,15-Diacetoxy-12,13-epoxytrichothec-9-en-3\u03b1-ol", "4,15-Diacetoxyscirpen-3-ol", "4,15-Diacetoxyscirp-9-en-3-ol", "Anguidine", "NSC 141537", "4,15-Diacetoxyscirpenol", "Scirpenetriol 4,15-diacetate", "DAS", "Scirp-9-ene-3\u03b1,4\u03b2,15-triol, 4,15-diacetate", "4,15-Di-O-acetylscirpenol", "NSC 177378"], "SMILES": "CC12C3(C(C(O)C1OC(C)=O)OC4C2(COC(C)=O)CCC(C)=C4)CO3", "physical_data": {"Molecular Weight": "366.41", "Molecular Formula": "C19H26O7", "Melting Point": "161-162 \u00b0C"}}