{"cas_no": "22705-33-5", "cn_name": "\u4e8c(\u4e8c\u7532\u6c28\u57fa)\u7532\u57fa\u7845", "en_name": ["N,N,N\u2032,N\u2032,1-Pentamethylsilanediamine", "Silanediamine, N,N,N\u2032,N\u2032,1-pentamethyl-", "N,N,N\u2032,N\u2032,1-Pentamethylsilanediamine", "Bis(dimethylamino)methylsilane", "Methylbis(dimethylamino)silane", "LS 910", "[(Dimethylamino)(methyl)silyl]dimethylamine"], "SMILES": "[SiH](N(C)C)(N(C)C)C", "physical_data": {"Molecular Weight": "132.28", "Molecular Formula": "C5H16N2Si", "Boiling Point": "112-113 \u00b0C", "Density": "0.798 g/cm\u00b3"}}