{"cas_no": "22706-11-2", "cn_name": "4-\u6c28\u57fa-5-\u82ef\u57fa-4H-1,2,4-\u4e09\u5511-3-\u786b\u9187", "en_name": ["4-Amino-5-phenyl-4H-1,2,4-triazole-3-thiol", "3H-1,2,4-Triazole-3-thione, 4-amino-2,4-dihydro-5-phenyl-", "4H-1,2,4-Triazole-3-thiol, 4-amino-5-phenyl-", "4-Amino-2,4-dihydro-5-phenyl-3H-1,2,4-triazole-3-thione", "1H-4-Amino-3-phenyl-s-triazole-5-thione", "4-Amino-5-phenyl-4H-1,2,4-triazole-3-thiol", "4-Amino-3-phenyl-5-mercapto-1,2,4-triazoline", "4-Amino-3-mercapto-5-phenyl-1,2,4-triazole", "4-Amino-3-mercapto-5-phenyl-4H-1,2,4-triazole", "4-Amino-5-phenyl-2,4-dihydro-3H-1,2,4-triazole-3-thione", "3-Phenyl-4-amino-5-mercapto-1,2,4-triazole"], "SMILES": "NN1C(=NNC1=S)C2=CC=CC=C2", "physical_data": {"Molecular Weight": "192.24", "Molecular Formula": "C8H8N4S", "Melting Point": "204-205 \u00b0C"}}