{"cas_no": "22710-07-2", "cn_name": "2,3-\u4e8c\u7532\u57fa\u5421\u5576-N-\u6c27\u5316\u7269", "en_name": ["Pyridine, 2,3-dimethyl-, 1-oxide", "Pyridine, 2,3-dimethyl-, 1-oxide", "2,3-Lutidine, 1-oxide", "2,3-Dimethylpyridine N-oxide", "2,3-Dimethylpyridine 1-oxide", "2,3-Lutidine-N-oxide", "2,3-Dimethyl-1-oxidopyridin-1-ium"], "SMILES": "CC1=C(C)C=CC=N1=O", "physical_data": {"Molecular Weight": "123.15", "Molecular Formula": "C7H9NO", "Boiling Point": "160-161 \u00b0C @ Press: 1 Torr", "Melting Point": "85-93 \u00b0C"}}