{"cas_no": "22717-55-1", "cn_name": "4-\u6c2f-2-\u7f9f\u57fa\u82ef\u7532\u9178\u7532\u916f", "en_name": ["Methyl 4-chloro-2-hydroxybenzoate", "Benzoic acid, 4-chloro-2-hydroxy-, methyl ester", "Salicylic acid, 4-chloro-, methyl ester", "Methyl 4-chloro-2-hydroxybenzoate", "Methyl p-chlorosalicylate", "Methyl 4-chlorosalicylate", "2-Hydroxy-4-chlorobenzoic acid methyl ester", "NSC 300575", "4-Chloro-2-hydroxybenzoic acid methyl ester"], "SMILES": "C(OC)(=O)C1=C(O)C=C(Cl)C=C1", "physical_data": {"Molecular Weight": "186.59", "Molecular Formula": "C8H7ClO3", "Boiling Point": "127 \u00b0C @ Press: 15 Torr"}}