{"cas_no": "227197-72-0", "cn_name": "6-\u6c2f\u82ef\u5e76\u5641\u5511", "en_name": ["6-Chlorobenzoxazole", "Benzoxazole, 6-chloro-", "6-Chlorobenzoxazole", "6-Chlorobenzo[d]oxazole"], "SMILES": "ClC=1C=C2C(=CC1)N=CO2", "physical_data": {"Molecular Weight": "153.57", "Molecular Formula": "C7H4ClNO", "Melting Point": "56-57 \u00b0C"}}