{"cas_no": "22717-56-2", "cn_name": "4-\u6eb4-2-\u7f9f\u57fa\u82ef\u7532\u9178\u7532\u916f", "en_name": ["4-Bromo-2-hydroxybenzoic acid methyl ester", "Benzoic acid, 4-bromo-2-hydroxy-, methyl ester", "Salicylic acid, 4-bromo-, methyl ester", "Methyl 4-bromo-2-hydroxybenzoate", "4-Bromo-2-hydroxybenzoic acid methyl ester"], "SMILES": "C(OC)(=O)C1=C(O)C=C(Br)C=C1", "physical_data": {"Molecular Weight": "231.04", "Molecular Formula": "C8H7BrO3", "Melting Point": "38 \u00b0C"}}