{"cas_no": "22717-57-3", "cn_name": "5-\u7532\u57fa\u6c34\u6768\u9178\u7532\u916f", "en_name": ["Methyl 5-methylsalicylate", "Benzoic acid, 2-hydroxy-5-methyl-, methyl ester", "2,5-Cresotic acid, methyl ester", "Methyl 5-methylsalicylate", "2-Hydroxy-5-methylbenzoic acid methyl ester", "Methyl 2-hydroxy-5-methylbenzoate", "NSC 165635", "2-(Methoxycarbonyl)-4-methylphenol"], "SMILES": "C(OC)(=O)C1=C(O)C=CC(C)=C1", "physical_data": {"Molecular Weight": "166.17", "Molecular Formula": "C9H10O3", "Boiling Point": "244.5 \u00b0C", "Melting Point": "-1 \u00b0C", "Density": "1.1673 g/cm\u00b3 @ Temp: 0 \u00b0C"}}