{"cas_no": "2271-93-4", "cn_name": "N,N\u2019-1,6-\u5df1\u4e8c\u57fa\u53cc(1-\u6c2e\u4e19\u5576\u9170\u80fa)", "en_name": ["N,N\u2032-Hexamethylene-1,6-bis(1-aziridinecarboxamide)", "1-Aziridinecarboxamide, N,N\u2032-1,6-hexanediylbis-", "1-Aziridinecarboxamide, N,N\u2032-hexamethylenebis-", "N,N\u2032-1,6-Hexanediylbis[1-aziridinecarboxamide]", "HBC", "N,N\u2032-Hexamethylenebis(1-aziridinecarboxamide)", "Hexamethylenebis(ethyleneurea)", "N,N\u2032-Hexamethylenebis(1-aziridinyl carboxamide)", "1,6-Hexamethylenebis(ethyleneurea)", "OM 53139", "Olin 53139", "Hexamethylenediethyleneurea", "1,1\u2032-(Hexamethylenedicarbamoyl)diaziridine", "AI 3-50172", "ENT 50172", "HDU", "HZ 22", "Chemitite HZ 22", "N,N\u2032-Hexamethylene-1,6-bis(1-aziridinecarboxamide)", "DM 130", "NSC 146970", "1,6-Hexamethylene bis(N,N-ethyleneurea)", "N,N\u2032-Hexamethylene 1,6-bis(1-aziridinyl carboxamide)"], "SMILES": "C(NCCCCCCNC(=O)N1CC1)(=O)N2CC2", "physical_data": {"Molecular Weight": "254.33", "Molecular Formula": "C12H22N4O2", "Melting Point": "106 \u00b0C"}}