{"cas_no": "22711-23-5", "cn_name": "\u5bf9\u6c2f\u8054\u82ef\u9170", "en_name": ["1-(4-Chlorophenyl)-2-phenyl-1,2-ethanedione", "1,2-Ethanedione, 1-(4-chlorophenyl)-2-phenyl-", "Benzil, 4-chloro-", "Ethanedione, (4-chlorophenyl)phenyl-", "1-(4-Chlorophenyl)-2-phenyl-1,2-ethanedione", "4-Chlorobenzil", "(p-Chlorophenyl)phenylethanedione", "p-Chlorobenzil", "1-(4-Chlorophenyl)-2-phenylethan-1,2-dione"], "SMILES": "C(C(=O)C1=CC=CC=C1)(=O)C2=CC=C(Cl)C=C2", "physical_data": {"Molecular Weight": "244.67", "Molecular Formula": "C14H9ClO2", "Boiling Point": "163-165 \u00b0C @ Press: 0.98 Torr", "Melting Point": "73 \u00b0C"}}