{"cas_no": "22720-75-8", "cn_name": "2-\u4e59\u9170\u57fa\u82ef\u5e76\u567b\u5429", "en_name": ["2-Acetylbenzothiophene", "Ethanone, 1-benzo[b]thien-2-yl-", "Ketone, benzo[b]thien-2-yl methyl", "1-Benzo[b]thien-2-ylethanone", "2-Acetylbenzothiophene", "2-Acetylbenzo[b]thiophene", "1-(Benzo[b]thiophen-2-yl)ethan-1-one", "1-Benzo[b]thiophen-2-ylethanone", "1-(Benzothiophen-2-yl)ethanone", "1-(Benzothien-2-yl)ethanone", "1-(1-Benzothiophen-2-yl)ethan-1-one", "1-(1-Benzothiophen-2-yl)ethanone", "1-(Benzo[b]thien-2-yl)ethan-1-one"], "SMILES": "C(C)(=O)C1=CC=2C(S1)=CC=CC2", "physical_data": {"Molecular Weight": "176.23", "Molecular Formula": "C10H8OS", "Melting Point": "88-89 \u00b0C"}}