{"cas_no": "22726-00-7", "cn_name": "3-\u6eb4\u82ef\u7532\u9170\u80fa", "en_name": ["3-Bromobenzamide", "Benzamide, 3-bromo-", "Benzamide, m-bromo-", "3-Bromobenzamide", "m-Bromobenzamide", "3-Bromobenzenecarboxamide", "NSC 81217"], "SMILES": "C(N)(=O)C1=CC(Br)=CC=C1", "physical_data": {"Molecular Weight": "200.03", "Molecular Formula": "C7H6BrNO", "Melting Point": "155.3 \u00b0C"}}