{"cas_no": "22737-37-7", "cn_name": "N,O-\u53cc\u4e09\u7532\u7845\u57fa\u7f9f\u80fa", "en_name": ["N,O-Bis(trimethylsilyl)hydroxylamine", "Silanamine, 1,1,1-trimethyl-N-[(trimethylsilyl)oxy]-", "Silylamine, 1,1,1-trimethyl-N-(trimethylsiloxy)-", "1,1,1-Trimethyl-N-[(trimethylsilyl)oxy]silanamine", "N,O-Bis(trimethylsilyl)hydroxylamine", "1,1,1-Trimethyl-N-(trimethylsiloxy)silylamine"], "SMILES": "N(O[Si](C)(C)C)[Si](C)(C)C", "physical_data": {"Molecular Weight": "177.39", "Molecular Formula": "C6H19NOSi2", "Boiling Point": "78-79 \u00b0C @ Press: 100 Torr", "Density": "0.830 g/cm\u00b3"}}