{"cas_no": "2273-51-0", "cn_name": "\u4e8c\u82ef\u57fa\u6c27\u5316\u9521", "en_name": ["Oxodiphenylstannane", "Stannane, oxodiphenyl-", "Diphenyltin oxide", "Tin, oxodiphenyl-", "Oxodiphenylstannane", "NSC 55161"], "SMILES": "[Sn](=O)(C1=CC=CC=C1)C2=CC=CC=C2", "physical_data": {"Molecular Weight": "288.92", "Molecular Formula": "C12H10OSn", "Melting Point": "320 \u00b0C (decomp)"}}