{"cas_no": "22735-07-5", "cn_name": "22735-07-5", "en_name": ["L-Cystine, 1,1\u2032-diethyl ester, hydrochloride (1:2)", "L-Cystine, 1,1\u2032-diethyl ester, hydrochloride (1:2)", "Cystine, diethyl ester, dihydrochloride, L-", "L-Cystine, diethyl ester, dihydrochloride", "NSC 519836"], "SMILES": "C(C(OCC)=O)(CSSCC(C(OCC)=O)N)N.Cl", "physical_data": {"Molecular Weight": "", "Molecular Formula": "C10H20N2O4S2.2ClH", "Melting Point": "186-189 \u00b0C"}}