{"cas_no": "22737-36-6", "cn_name": "O-(\u4e09\u7532\u57fa\u7845)\u7f9f\u80fa", "en_name": ["O-(Trimethylsilyl)hydroxylamine", "Hydroxylamine, O-(trimethylsilyl)-", "O-(Trimethylsilyl)hydroxylamine", "Trimethylsiloxyamine"], "SMILES": "[Si](ON)(C)(C)C", "physical_data": {"Molecular Weight": "105.21", "Molecular Formula": "C3H11NOSi", "Boiling Point": "98-99 \u00b0C", "Density": "0.86 g/cm\u00b3"}}