{"cas_no": "2273-93-0", "cn_name": "2,6-\u4e8c\u6c2f-7-\u7532\u57fa\u560c\u5464", "en_name": ["2,6-Dichloro-7-methyl-7H-purine", "7H-Purine, 2,6-dichloro-7-methyl-", "Purine, 2,6-dichloro-7-methyl-", "2,6-Dichloro-7-methyl-7H-purine", "2,6-Dichloro-7-methylpurine", "NSC 7853", "5,7-Dichloro-1-methyl-1H-imidazo[4,5-d]pyrimidine"], "SMILES": "ClC1=C2C(=NC(Cl)=N1)N=CN2C", "physical_data": {"Molecular Weight": "203.03", "Molecular Formula": "C6H4Cl2N4", "Melting Point": "195.5-196 \u00b0C"}}