{"cas_no": "22734-04-9", "cn_name": "1-\u73af\u620a\u70ef\u4e59\u8148", "en_name": ["1-Cyclopentene-1-acetonitrile", "1-Cyclopentene-1-acetonitrile", "(1-Cyclopenten-1-yl)acetonitrile", "1-Cyclopentenylacetonitrile", "1-(Cyanomethyl)cyclopentene", "2-(Cyclopent-1-en-1-yl)acetonitrile"], "SMILES": "C(C#N)C=1CCCC1", "physical_data": {"Molecular Weight": "107.15", "Molecular Formula": "C7H9N", "Boiling Point": "99 \u00b0C @ Press: 33 Torr", "Density": "0.93949 g/cm\u00b3 @ Temp: 20.5 \u00b0C"}}