{"cas_no": "2274-66-0", "cn_name": "2,2,2',4'-\u56db\u6c2f\u82ef\u4e59\u916e", "en_name": ["2,2-Dichloro-1-(2,4-dichlorophenyl)ethanone", "Ethanone, 2,2-dichloro-1-(2,4-dichlorophenyl)-", "Acetophenone, 2,2,2\u2032,4\u2032-tetrachloro-", "2,2-Dichloro-1-(2,4-dichlorophenyl)ethanone", "2,2,2\u2032,4\u2032-Tetrachloroacetophenone", "2,4-Dichlorophenacylidene dichloride", "\u03b1,\u03b1,2\u2032,4\u2032-Tetrachloroacetophenone", "NSC 81222", "2,2-Dichloro-1-(2,4-dichlorophenyl)ethan-1-one"], "SMILES": "C(C(Cl)Cl)(=O)C1=C(Cl)C=C(Cl)C=C1", "physical_data": {"Molecular Weight": "257.93", "Molecular Formula": "C8H4Cl4O", "Boiling Point": "94 \u00b0C @ Press: 0.2 Torr"}}