{"cas_no": "2274-42-2", "cn_name": "\u7532\u57fa\u78fa\u9170\u4e59\u8148", "en_name": ["(Methylsulfonyl)acetonitrile", "Acetonitrile, 2-(methylsulfonyl)-", "Acetonitrile, (methylsulfonyl)-", "2-(Methylsulfonyl)acetonitrile", "(Methylsulfonyl)acetonitrile", "Methanesulfonylacetonitrile", "NSC 207832", "2-Methanesulfonylacetonitrile"], "SMILES": "C(S(C)(=O)=O)C#N", "physical_data": {"Molecular Weight": "119.14", "Molecular Formula": "C3H5NO2S", "Melting Point": "83.5-84.5 \u00b0C"}}