{"cas_no": "2274-11-5", "cn_name": "\u4e8c\u4e19\u70ef\u9178\u4e59\u4e8c\u9187\u916f", "en_name": ["Ethylene acrylate", "2-Propenoic acid, 1,1\u2032-(1,2-ethanediyl) ester", "Acrylic acid, ethylene ester", "2-Propenoic acid, 1,2-ethanediyl ester", "Ethylene glycol, diacrylate", "Acrylic acid, diester with ethylene glycol", "Ethylene diacrylate", "Ethylene acrylate", "1,2-Ethanediol diacrylate", "Light Ester EG-A", "NSC 24160", "Lightacrylate EG-A", "2-(Prop-2-enoyloxy)ethyl prop-2-enoate"], "SMILES": "O(CCOC(C=C)=O)C(C=C)=O", "physical_data": {"Molecular Weight": "170.16", "Molecular Formula": "C8H10O4", "Boiling Point": "53-57 \u00b0C @ Press: 0.6 Torr", "Melting Point": "184-193 \u00b0C"}}