{"cas_no": "2275-18-5", "cn_name": "\u53d1\u679c", "en_name": ["Prothoate", "Phosphorodithioic acid, O,O-diethyl S-[2-[(1-methylethyl)amino]-2-oxoethyl] ester", "Phosphorodithioic acid, O,O-diethyl ester, S-ester with N-isopropyl-2-mercaptoacetamide", "Acetamide, N-isopropyl-2-mercapto-, S-ester with O,O-di-Et phosphorodithioate", "American Cyanamid 18,682", "O,O-Diethyl S-(N-isopropylcarbamoylmethyl) phosphorodithioate", "Fac 20", "Fostion", "Prothoate", "Trimethoate", "FAC (pesticide)", "Prothoat", "Fak 40", "FAC"], "SMILES": "P(SCC(NC(C)C)=O)(OCC)(OCC)=S", "physical_data": {"Molecular Weight": "285.36", "Molecular Formula": "C9H20NO3PS2", "Boiling Point": "152-155 \u00b0C @ Press: 0.1-0.2 Torr", "Melting Point": "28.5 \u00b0C", "Density": "1.151 g/cm\u00b3 @ Temp: 32 \u00b0C"}}