{"cas_no": "2275-23-2", "cn_name": "\u869c\u706d\u591a", "en_name": ["Vamidothion", "Phosphorothioic acid, O,O-dimethyl S-[2-[[1-methyl-2-(methylamino)-2-oxoethyl]thio]ethyl] ester", "Phosphorothioic acid, O,O-dimethyl ester, S-ester with 2-[(2-mercaptoethyl)thio]-N-methylpropionamide", "RP 9895", "O,O-Dimethyl S-[2-(1-methylcarbamoylethylthio)ethyl] phosphorothioate", "Dimethyl S-[2-(1-methylcarbamoylethylthio)ethyl] phosphorothiolate", "Kilval", "Vamidoate", "Vamidothion", "Bamidothion"], "SMILES": "P(SCCSC(C(NC)=O)C)(OC)(OC)=O", "physical_data": {"Molecular Weight": "287.34", "Molecular Formula": "C8H18NO4PS2", "Melting Point": "46-48 \u00b0C"}}