{"cas_no": "22767-90-4", "cn_name": "1\uff0c1\uff0c1-\u4e09\u6c1f-5\uff0c5-\u4e8c\u7532\u57fa-2\uff0c4-\u5df1\u4e8c\u916e", "en_name": ["1,1,1-Trifluoro-5,5-dimethyl-2,4-hexanedione", "2,4-Hexanedione, 1,1,1-trifluoro-5,5-dimethyl-", "1,1,1-Trifluoro-5,5-dimethyl-2,4-hexanedione", "(Trifluoroacetyl)pivaloylmethane", "Pivaloyltrifluoroacetone", "1,1,1-Trifluoro-5,5-dimethylhexane-2,4-dione", "2,4-Pentanedione, 1,1,1-trifluoro-5,5,5-trimethyl-", "6,6,6-Trifluoro-2,2-dimethyl-3,5-hexanedione", "1,1,1-Trifluoro-3-pivaloylacetone", "5,5-Dimethyl-1,1,1-trifluorohexane-2,4-dione", "1,1,1-Trifluoro-5,5-dimethylhexan-2,4-dione"], "SMILES": "C(C(C(C)(C)C)=O)C(C(F)(F)F)=O", "physical_data": {"Molecular Weight": "196.17", "Molecular Formula": "C8H11F3O2", "Boiling Point": "39-41 \u00b0C @ Press: 17 Torr"}}