{"cas_no": "2276-90-6", "cn_name": "\u7898\u4ed6\u62c9\u9178", "en_name": ["Iothalamic acid", "Benzoic acid, 3-(acetylamino)-2,4,6-triiodo-5-[(methylamino)carbonyl]-", "Isophthalamic acid, 5-acetamido-2,4,6-triiodo-N-methyl-", "3-(Acetylamino)-2,4,6-triiodo-5-[(methylamino)carbonyl]benzoic acid", "MI 216", "5-Acetamido-2,4,6-triiodo-N-methylisophthalamic acid", "5-Acetylamino-2,4,6-triiodo-N-methyl-3-isophthalamic acid", "Iothalamic acid", "Methalamic acid", "Iotalamic acid", "Cysto Conray II", "3-Acetamido-2,4,6-triiodo-5-(methylcarbamoyl)benzoic acid", "MeSH ID: D007483"], "SMILES": "C(NC)(=O)C1=C(I)C(C(O)=O)=C(I)C(NC(C)=O)=C1I", "physical_data": {"Molecular Weight": "613.91", "Molecular Formula": "C11H9I3N2O4", "Melting Point": "&gt;300 \u00b0C (decomp)"}}