{"cas_no": "22775-37-7", "cn_name": "3,5-\u4e8c\u6c2f-2-\u7532\u6c27\u57fa\u82ef\u7532\u9178", "en_name": ["3,5-Dichloro-2-methoxybenzoic acid", "Benzoic acid, 3,5-dichloro-2-methoxy-", "o-Anisic acid, 3,5-dichloro-", "3,5-Dichloro-2-methoxybenzoic acid", "Salicyn (growth stimulant)", "2-Methoxy-3,5-dichlorobenzoic acid"], "SMILES": "O(C)C1=C(C(O)=O)C=C(Cl)C=C1Cl", "physical_data": {"Molecular Weight": "221.04", "Molecular Formula": "C8H6Cl2O3", "Melting Point": "166-167 \u00b0C"}}