{"cas_no": "2277-19-2", "cn_name": "(Z)-6-\u58ec\u70ef\u919b", "en_name": ["cis-6-Nonenal", "6-Nonenal, (6Z)-", "6-Nonenal, (Z)-", "(6Z)-6-Nonenal", "6-Nonenal, cis-", "cis-6-Nonenal", "(Z)-6-Nonenal"], "SMILES": "C(CCCC=O)C=CCC", "physical_data": {"Molecular Weight": "140.22", "Molecular Formula": "C9H16O", "Boiling Point": "62-63 \u00b0C @ Press: 2 Torr"}}