{"cas_no": "2277-23-8", "cn_name": "\u4e00\u7678\u9178\u7518\u6cb9\u916f", "en_name": ["1-Decanoylglycerol", "Decanoic acid, 2,3-dihydroxypropyl ester", "Decanoin, 1-mono-", "Glycerol 1-monodecanoate", "1-Monocaprin", "Decanoic acid 1-monoglyceride", "Capryl monoglyceride", "\u03b1-Monocaprin", "Capric acid \u03b1-monoglyceride", "Decanoic acid \u03b1-monoglyceride", "1-Monodecanoylglycerol", "1-Decanoylglycerol", "(\u00b1)-Glyceryl 1-monodecanoate", "(\u00b1)-1-Monodecanoin", "2,3-Dihydroxypropyl decanoate", "1-Glyceryl caprate"], "SMILES": "C(OCC(CO)O)(CCCCCCCCC)=O", "physical_data": {"Molecular Weight": "246.34", "Molecular Formula": "C13H26O4", "Melting Point": "51.4 \u00b0C"}}