{"cas_no": "2277-28-3", "cn_name": "\u4e00\u4e9a\u6cb9\u9178\u7518\u6cb9\u916f", "en_name": ["1-Monolinolein", "9,12-Octadecadienoic acid (9Z,12Z)-, 2,3-dihydroxypropyl ester", "Linolein, 1-mono-", "9,12-Octadecadienoic acid (Z,Z)-, 2,3-dihydroxypropyl ester", "\u03b1-Glyceryl linoleate", "1-Monolinolein", "Glycerol 1-monolinolate", "1-Glyceryl linoleate", "Oleinate 288", "\u03b1-Monolinolein", "1-Linoleylglycerol", "1-Monolinoleoyl-rac-glycerol", "(\u00b1)-2,3-Dihydroxypropyl 9(Z),12(Z)-octadecadienoate", "2,3-Dihydroxypropyl linoleate", "3-O-(9Z,12Z-Octadecadienoyl)glycerol", "1-O-(9Z,12Z-Octadecadienoyl)glycerol", "(9Z,12Z)-2,3-Dihydroxypropyl octadecadienoate", "1-Monolinoleoyl-rac-glycerol", "1-Linoleoyl-rac-glycerol"], "SMILES": "C(CC(OCC(CO)O)=O)CCCCCC=CCC=CCCCCC", "physical_data": {"Molecular Weight": "354.52", "Molecular Formula": "C21H38O4", "Melting Point": "14-15 \u00b0C"}}