{"cas_no": "2277-92-1", "cn_name": "\u6c2f\u7f9f\u67f3\u80fa", "en_name": ["Oxyclozanide", "Benzamide, 2,3,5-trichloro-N-(3,5-dichloro-2-hydroxyphenyl)-6-hydroxy-", "Salicylanilide, 3,3\u2032,5,5\u2032,6-pentachloro-2\u2032-hydroxy-", "2,3,5-Trichloro-N-(3,5-dichloro-2-hydroxyphenyl)-6-hydroxybenzamide", "Oxyclozanide", "3,5,6,3\u2032,5\u2032-Pentachloro-2,2\u2032-dihydroxybenzanilide", "Zanil", "3,3\u2032,5,5\u2032,6-Pentachloro-2,2\u2032-dihydroxybenzanilide", "Oxyclozanid", "Diplin", "ICI 46638", "Zanilox", "3,3\u2032,5,5\u2032,6-Pentachloro-2\u2032-hydroxysalicylanilide", "Fascocide"], "SMILES": "C(NC1=C(O)C(Cl)=CC(Cl)=C1)(=O)C2=C(Cl)C(Cl)=CC(Cl)=C2O", "physical_data": {"Molecular Weight": "401.46", "Molecular Formula": "C13H6Cl5NO3", "Melting Point": "210 \u00b0C"}}