{"cas_no": "22781-23-3", "cn_name": "\u6076\u866b\u5a01", "en_name": ["Bendiocarb", "1,3-Benzodioxol-4-ol, 2,2-dimethyl-, 4-(N-methylcarbamate)", "Carbamic acid, methyl-, 2,3-(isopropylidenedioxy)phenyl ester", "1,3-Benzodioxol-4-ol, 2,2-dimethyl-, methylcarbamate", "Phenol, 2,3-(isopropylidenedioxy)-, methylcarbamate", "NC 6897", "Fisons NC 6897", "Bendiocarb", "Ficam", "Ficam 80W", "2,2-Dimethyl-1,3-benzodioxol-4-yl N-methylcarbamate", "2,2-Dimethyl-1,3-benzodioxol-4-yl methylcarbamate", "Ficam W", "Garvox", "Niomil", "Bencarbate", "Tatoo", "Seedox", "Seedox 80W", "Seedox (insecticide)", "Turcam", "Tattoo", "Dycarb", "Multamat", "Ficam D"], "SMILES": "O(C(NC)=O)C1=C2C(OC(C)(C)O2)=CC=C1", "physical_data": {"Molecular Weight": "223.23", "Molecular Formula": "C11H13NO4", "Melting Point": "129-130 \u00b0C", "Density": "0.69 g/cm\u00b3 @ Temp: 20 \u00b0C"}}