{"cas_no": "2279-15-4", "cn_name": "N-\u82c4\u6c27\u7fb0\u57fa-D-\u8272\u6c28\u9178", "en_name": ["N-(Benzyloxycarbonyl)-D-tryptophan", "D-Tryptophan, N-[(phenylmethoxy)carbonyl]-", "Tryptophan, N-carboxy-, N-benzyl ester, D-", "N-[(Phenylmethoxy)carbonyl]-D-tryptophan", "N-(Benzyloxycarbonyl)-D-tryptophan", "D-(Carbobenzyloxy)tryptophan", "N-CBZ-D-tryptophan", "N-Carbobenzyloxy-D-tryptophan", "(2R)-2-(Benzyloxycarbonylamino)-3-(1H-indol-3-yl)propionic acid", "Cbz-D-tryptophan", "(R)-2-(((Benzyloxy)carbonyl)amino)-3-(1H-indol-3-yl)propanoic acid", "N-Carbobenzoxy-D-tryptophan", "(2R)-3-(1H-Indol-3-yl)-2-(phenylmethoxycarbonylamino)propanoic acid"], "SMILES": "C(C(NC(OCC1=CC=CC=C1)=O)C(O)=O)C=2C=3C(NC2)=CC=CC3", "physical_data": {"Molecular Weight": "338.36", "Molecular Formula": "C19H18N2O4", "Melting Point": "128-129 \u00b0C"}}