{"cas_no": "22798-98-7", "cn_name": "ECDYSTERONE 2,3:20,22-DIACETONIDE", "en_name": ["20-Hydroxyecdysone 2,3:20,22-diacetonide", "Cholest-7-en-6-one, 14,25-dihydroxy-2,3:20,22-bis[(1-methylethylidene)bis(oxy)]-, (2\u03b2,3\u03b2,5\u03b2,22R)-", "5\u03b2-Cholest-7-en-6-one, 2\u03b2,3\u03b2,14,20,22,25-hexahydroxy-, cyclic 2,3:20,22-diacetal with acetone, (22R)-", "5H-Cyclopenta[7,8]phenanthro[2,3-d][1,3]dioxole, cholest-7-en-6-one deriv.", "(2\u03b2,3\u03b2,5\u03b2,22R)-14,25-Dihydroxy-2,3:20,22-bis[(1-methylethylidene)bis(oxy)]cholest-7-en-6-one", "20-Hydroxyecdysone 2,3:20,22-diacetonide", "Ecdysterone 2,3:20,22-diacetonide", "20-Hydroxyecdysone diacetonide", "20-Hydroxy-2,3,20,22-di-O-isopropylideneecdysone"], "SMILES": "OC12C(C)(C(CC1)C3(C)C(CCC(C)(C)O)OC(C)(C)O3)CCC4C2=CC(=O)C5C4(C)CC6C(C5)OC(C)(C)O6", "physical_data": {"Molecular Weight": "560.76", "Molecular Formula": "C33H52O7", "Melting Point": "234 \u00b0C"}}