{"cas_no": "2279-16-5", "cn_name": "\u6c2f\u4e59\u9170-L-\u7f2c\u6c28\u9178", "en_name": ["N-(2-Chloroacetyl)-L-valine", "L-Valine, N-(2-chloroacetyl)-", "Valine, N-(chloroacetyl)-, L-", "L-Valine, N-(chloroacetyl)-", "N-(2-Chloroacetyl)-L-valine", "N-Chloroacetyl-L-valine", "NSC 97928", "(2S)-2-(2-Chloroacetamido)-3-methylbutanoic acid", "(S)-2-(2-Chloroacetamido)-3-methylbutanoic acid", "(2S)-2-[(2-Chloroacetyl)amino]-3-methyl-butanoic acid"], "SMILES": "C(NC(CCl)=O)(C(C)C)C(O)=O", "physical_data": {"Molecular Weight": "193.63", "Molecular Formula": "C7H12ClNO3", "Melting Point": "128-130 \u00b0C"}}