{"cas_no": "2279-76-7", "cn_name": "\u4e09\u6b63\u4e19\u57fa\u6c2f\u5316\u9521\u4ee3\u7528\u54c1\u6807\u6837", "en_name": ["Tripropyltin chloride", "Stannane, chlorotripropyl-", "Tripropyltin chloride", "Tin, chlorotripropyl-", "Chlorotripropylstannane", "Tripropylstannyl chloride", "Tri-n-propyltin chloride", "Tripropylchlorostannane", "Chlorotripropyltin"], "SMILES": "[Sn](CCC)(CCC)(CCC)Cl", "physical_data": {"Molecular Weight": "283.43", "Molecular Formula": "C9H21ClSn", "Boiling Point": "122-123 \u00b0C @ Press: 10 Torr", "Melting Point": "-23.5 \u00b0C", "Density": "1.2740 g/cm\u00b3 @ Temp: 20 \u00b0C"}}