{"cas_no": "22802-39-7", "cn_name": "2-\u6eb4-4,5-\u4e8c\u7532\u57fa\u82ef\u915a", "en_name": ["2-Bromo-4,5-dimethylphenol", "Phenol, 2-bromo-4,5-dimethyl-", "3,4-Xylenol, 6-bromo-", "2-Bromo-4,5-dimethylphenol", "6-Bromo-3,4-dimethylphenol", "NSC 96970"], "SMILES": "BrC1=C(O)C=C(C)C(C)=C1", "physical_data": {"Molecular Weight": "201.06", "Molecular Formula": "C8H9BrO", "Melting Point": "80 \u00b0C"}}