{"cas_no": "2280-85-5", "cn_name": "6-\u7532\u57fa-DL-\u8272\u6c28\u9178", "en_name": ["6-Methyl-DL-tryptophan", "Tryptophan, 6-methyl-", "Tryptophan, 6-methyl-, DL-", "DL-Tryptophan, 6-methyl-", "6-Methyltryptophan", "6-Methyl-DL-tryptophan", "DL-6-Methyltryptophan", "DL-6-Methyltryptophane", "(\u00b1)-6-Methyltryptophan", "NSC 1461", "2-Amino-3-(6-methyl-1H-indol-3-yl)propanoic acid"], "SMILES": "C(C(C(O)=O)N)C=1C=2C(NC1)=CC(C)=CC2", "physical_data": {"Molecular Weight": "218.25", "Molecular Formula": "C12H14N2O2", "Melting Point": "258-260 \u00b0C"}}