{"cas_no": "22808-73-7", "cn_name": "4-\u78fa\u9170\u57fa\u82ef\u7532\u9178\u7532\u916f", "en_name": ["Benzoic acid, 4-(aminosulfonyl)-, methyl ester", "Benzoic acid, 4-(aminosulfonyl)-, methyl ester", "Benzoic acid, p-sulfamoyl-, methyl ester", "4-Methoxycarbonylbenzenesulfonamide", "Methyl p-(aminosulfonyl)benzoate", "Methyl 4-(aminosulfonyl)benzoate", "4-Sulfamoylbenzoic acid methyl ester", "p-Carboxybenzenesulfonamide methyl ester", "NSC 251214", "Methyl 4-sulfamoylbenzoate"], "SMILES": "S(N)(=O)(=O)C1=CC=C(C(OC)=O)C=C1", "physical_data": {"Molecular Weight": "215.23", "Molecular Formula": "C8H9NO4S", "Melting Point": "181-182 \u00b0C"}}