{"cas_no": "22809-37-6", "cn_name": "6-\u6eb4\u5df1\u9170\u6c2f", "en_name": ["6-Bromohexanoyl chloride", "Hexanoyl chloride, 6-bromo-", "6-Bromohexanoyl chloride", "\u03b5-Bromocaproyl chloride", "6-Bromocaproyl chloride", "6-Bromocaproic chloride", "6-Bromohexanoic chloride", "\u03c9-Bromohexanoyl chloride"], "SMILES": "C(CC(Cl)=O)CCCBr", "physical_data": {"Molecular Weight": "213.50", "Molecular Formula": "C6H10BrClO", "Boiling Point": "95-102 \u00b0C @ Press: 1 Torr"}}