{"cas_no": "2280-01-5", "cn_name": "N-\u4e59\u9170\u57fa-D-\u8272\u6c28\u9178", "en_name": ["N-Acetyl-D-tryptophan", "D-Tryptophan, N-acetyl-", "Tryptophan, N-acetyl-, D-", "N-Acetyl-D-tryptophan", "N-Acetyl-(R)-tryptophan", "(R)-N-Acetyltryptophan", "(2R)-2-Acetamido-3-(1H-indol-3-yl)propanoic acid"], "SMILES": "C(C(NC(C)=O)C(O)=O)C=1C=2C(NC1)=CC=CC2", "physical_data": {"Molecular Weight": "246.26", "Molecular Formula": "C13H14N2O3", "Melting Point": "180-181 \u00b0C"}}