{"cas_no": "22808-29-3", "cn_name": "4-\u53d4\u4e01\u57fa-3,6-\u4e8c\u6c2f\u54d2\u55ea", "en_name": ["4-tert-Butyl-3,6-dichloropyridazine", "Pyridazine, 3,6-dichloro-4-(1,1-dimethylethyl)-", "Pyridazine, 4-tert-butyl-3,6-dichloro-", "3,6-Dichloro-4-(1,1-dimethylethyl)pyridazine", "3,6-Dichloro-4-tert-butylpyridazine", "4-tert-Butyl-3,6-dichloropyridazine"], "SMILES": "C(C)(C)(C)C1=C(Cl)N=NC(Cl)=C1", "physical_data": {"Molecular Weight": "205.08", "Molecular Formula": "C8H10Cl2N2", "Melting Point": "37-40 \u00b0C"}}