{"cas_no": "22803-05-0", "cn_name": "3,3',4,4'-\u8054\u82ef\u56db\u7532\u9178", "en_name": ["3,3\u2032,4,4\u2032-Biphenyltetracarboxylic acid", "[1,1\u2032-Biphenyl]-3,3\u2032,4,4\u2032-tetracarboxylic acid", "3,3\u2032,4,4\u2032-Biphenyltetracarboxylic acid", "3,4,3\u2032,4\u2032-Biphenyltetracarboxylic acid"], "SMILES": "C(O)(=O)C=1C=C(C=CC1C(O)=O)C2=CC(C(O)=O)=C(C(O)=O)C=C2", "physical_data": {"Molecular Weight": "330.25", "Molecular Formula": "C16H10O8", "Melting Point": "280 \u00b0C"}}