{"cas_no": "2280-27-5", "cn_name": "(S)-(+)-2-\u6c28\u57fa-3-\u7f9f\u57fa-3-\u7532\u57fa\u4e01\u9178", "en_name": ["3-Methyl-L-threonine", "L-Threonine, 3-methyl-", "Valine, 3-hydroxy-, L-", "L-Valine, 3-hydroxy-", "3-Methyl-L-threonine", "\u03b2-Hydroxy-L-valine", "(2S)-2-Amino-3-hydroxy-3-methylbutanoic acid", "3-Hydroxy-L-valine", "(S)-3-Hydroxy-2-amino-3-methylbutanoic acid", "(S)-2-Amino-3-hydroxy-3-methylbutanoic acid", "(2S)-2-Amino-3-hydroxy-3-methylbutanoic acid"], "SMILES": "C(C(C)(C)O)(C(O)=O)N", "physical_data": {"Molecular Weight": "133.15", "Molecular Formula": "C5H11NO3", "Melting Point": "205 \u00b0C"}}