{"cas_no": "22801-44-1", "cn_name": "\u7532\u54cc\u5361\u56e0", "en_name": ["Mepivacaine", "2-Piperidinecarboxamide, N-(2,6-dimethylphenyl)-1-methyl-", "2\u2032,6\u2032-Pipecoloxylidide, 1-methyl-", "N-(2,6-Dimethylphenyl)-1-methyl-2-piperidinecarboxamide", "Carbocaine", "Mepivacaine", "Scandicain", "Scandicaine", "Carbocain", "1-Methyl-2\u2032,6\u2032-pipecoloxylidide", "DL-Mepivacaine", "(\u00b1)-Mepivacaine", "Mepicaine", "Tevacaine", "Carbocaine-V", "MepiSV", "APF 135", "Scandinibsa", "MeSH ID: D008619"], "SMILES": "N(C(=O)C1N(C)CCCC1)C2=C(C)C=CC=C2C", "physical_data": {"Molecular Weight": "246.35", "Molecular Formula": "C15H22N2O", "Melting Point": "150.5 \u00b0C"}}