{"cas_no": "22819-91-6", "cn_name": "7-\u6c2f\u5e9a\u9187\u8148", "en_name": ["7-Chloroheptanenitrile", "Heptanenitrile, 7-chloro-", "7-Chloroheptanenitrile", "7-Chloroheptanonitrile", "1-Chloro-6-cyanohexane"], "SMILES": "C(CCCCl)CCC#N", "physical_data": {"Molecular Weight": "145.63", "Molecular Formula": "C7H12ClN", "Boiling Point": "131-132 \u00b0C @ Press: 15 Torr", "Density": "1.003 g/cm\u00b3 @ Temp: 20.5 \u00b0C"}}