{"cas_no": "22816-60-0", "cn_name": "AMINO[(3,4-DICHLOROBENZYL)SULFANYL]METHANIMINIUM CHLORIDE", "en_name": ["Carbamimidothioic acid, (3,4-dichlorophenyl)methyl ester, hydrochloride (1:1)", "Carbamimidothioic acid, (3,4-dichlorophenyl)methyl ester, hydrochloride (1:1)", "Pseudourea, 2-(3,4-dichlorobenzyl)-2-thio-, monohydrochloride", "Carbamimidothioic acid, (3,4-dichlorophenyl)methyl ester, monohydrochloride", "Pseudourea, 2-(3,4-dichlorobenzyl)-2-thio-, hydrochloride", "S-(3,4-Dichlorobenzyl)thiouronium chloride", "A 22", "2-(3,4-Dichloro-benzyl)-isothiourea hydrochloride", "3,4-Dichlorobenzyl carbamimidothioate hydrochloride"], "SMILES": "C(SC(=N)N)C1=CC(Cl)=C(Cl)C=C1.Cl", "physical_data": {"Molecular Weight": "", "Molecular Formula": "C8H8Cl2N2S.ClH", "Melting Point": "210 \u00b0C"}}