{"cas_no": "22819-07-4", "cn_name": "3-\u6c28\u57fa-5-\u82c4\u57fa-4H-1,2,4-\u4e09\u5511", "en_name": ["3-(Phenylmethyl)-1H-1,2,4-triazol-5-amine", "1H-1,2,4-Triazol-5-amine, 3-(phenylmethyl)-", "s-Triazole, 3-amino-5-benzyl-", "1H-1,2,4-Triazol-3-amine, 5-(phenylmethyl)-", "3-(Phenylmethyl)-1H-1,2,4-triazol-5-amine", "3-Amino-5-benzyl-1,2,4-triazole", "5-Benzyl-2H-1,2,4-triazol-3-amine", "3-Benzyl-1H-1,2,4-triazol-5-amine", "3-Benzyl-5-amino-1,2,4-triazol"], "SMILES": "C(C1=NN=C(N)N1)C2=CC=CC=C2", "physical_data": {"Molecular Weight": "174.20", "Molecular Formula": "C9H10N4", "Melting Point": "170-170.5 \u00b0C"}}