{"cas_no": "22812-90-4", "cn_name": "2-\u7f9f\u57fa\u4e59\u57fa\u6b63\u4e19\u57fa\u786b\u919a", "en_name": ["2-(Propylthio)ethanol", "Ethanol, 2-(propylthio)-", "2-(Propylthio)ethanol", "2-Hydroxyethyl propyl sulfide", "NSC 84225", "2-(Propylsulfanyl)ethan-1-ol", "2-Propylsulfanylethanol"], "SMILES": "S(CCC)CCO", "physical_data": {"Molecular Weight": "120.21", "Molecular Formula": "C5H12OS", "Boiling Point": "95 \u00b0C @ Press: 15 Torr", "Density": "0.9855 g/cm\u00b3 @ Temp: 20 \u00b0C"}}