{"cas_no": "22818-40-2", "cn_name": "D(-)-\u5bf9\u7f9f\u57fa\u82ef\u7518\u6c28\u9178", "en_name": ["D-p-Hydroxyphenylglycine", "Benzeneacetic acid, \u03b1-amino-4-hydroxy-, (\u03b1R)-", "Glycine, 2-(p-hydroxyphenyl)-, D-", "Benzeneacetic acid, \u03b1-amino-4-hydroxy-, (R)-", "(\u03b1R)-\u03b1-Amino-4-hydroxybenzeneacetic acid", "D-(-)-2-(4-Hydroxyphenyl)glycine", "D-p-Hydroxyphenylglycine", "D-(-)-2-(p-Hydroxyphenyl)glycine", "D-2-(4-Hydroxyphenyl)glycine", "D-(-)-Amino(4-hydroxyphenyl)acetic acid", "D-\u03b1-Amino-p-hydroxyphenylacetic acid", "D-2-Amino-2-(p-hydroxyphenyl)acetic acid", "D-(-)-p-Hydroxyphenylglycine", "D-(-)-\u03b1-Amino-p-hydroxyphenylacetic acid", "D-(-)-\u03b1-Amino-4-hydroxyphenylacetic acid", "D-\u03b1-Amino-4-hydroxyphenylacetic acid", "D-4-Hydroxyphenylglycine", "p-Hydroxy-D-phenylglycine", "D-(-)-\u03b1-(4-Hydroxyphenyl)glycine", "D-\u03b1-p-Hydroxyphenylglycine", "D-(-)-4-Hydroxyphenylglycine", "(R)-(4-Hydroxyphenyl)glycine", "(R)-2-(4-Hydroxyphenyl)glycine", "p-Hydroxy-(R)-phenylglycine", "4-Hydroxy-D-phenylglycine", "(R)-2-Amino-2-(4-hydroxyphenyl)acetic acid", "(2R)-2-Amino-2-(4-hydroxyphenyl)acetic acid", "(2R)-2-Azaniumyl-2-(4-hydroxyphenyl)acetate"], "SMILES": "C(C(O)=O)(N)C1=CC=C(O)C=C1", "physical_data": {"Molecular Weight": "167.16", "Molecular Formula": "C8H9NO3", "Melting Point": "223 \u00b0C (decomp)"}}