{"cas_no": "22823-50-3", "cn_name": "N-\u53d4\u4e01\u6c27\u7fb0\u57fa-L-\u86cb\u6c28\u9178\u4e8c\u73af\u5df1\u80fa\u76d0", "en_name": ["L-Methionine, N-[(1,1-dimethylethoxy)carbonyl]-, compd. with N-cyclohexylcyclohexanamine (1:1)", "L-Methionine, N-[(1,1-dimethylethoxy)carbonyl]-, compd. with N-cyclohexylcyclohexanamine (1:1)", "Methionine, N-carboxy-, N-tert-butyl ester, compd. with dicyclohexylamine (1:1), L-", "N-tert-Butyloxycarbonyl-L-methionine dicyclohexylammonium salt", "tert-Butoxycarbonyl-L-methionine dicyclohexylamine salt"], "SMILES": "N(C1CCCCC1)C2CCCCC2.C(NC(OC(C)(C)C)=O)(CCSC)C(O)=O", "physical_data": {"Molecular Weight": "", "Molecular Formula": "C12H23N.C10H19NO4S", "Melting Point": "120-123 \u00b0C"}}