{"cas_no": "228266-40-8", "cn_name": "N,BETA,BETA-\u4e09\u7532\u57fa-L-\u82ef\u57fa\u4e19\u6c28\u9170\u57fa-N-[(1S,2E)-3-\u7fa7\u57fa-1-(1-\u7532\u57fa\u4e59\u57fa)-2-\u4e01\u70ef\u57fa]-N,3-\u4e8c\u7532\u57fa-L-\u7f2c\u6c28\u9170\u80fa", "en_name": ["N,\u03b2,\u03b2-Trimethyl-L-phenylalanyl-N-[(1S,2E)-3-carboxy-1-(1-methylethyl)-2-buten-1-yl]-N,3-dimethyl-L-valinamide", "L-Valinamide, N,\u03b2,\u03b2-trimethyl-L-phenylalanyl-N-[(1S,2E)-3-carboxy-1-(1-methylethyl)-2-buten-1-yl]-N,3-dimethyl-", "L-Valinamide, N,\u03b2,\u03b2-trimethyl-L-phenylalanyl-N-[(1S,2E)-3-carboxy-1-(1-methylethyl)-2-butenyl]-N,3-dimethyl-", "N,\u03b2,\u03b2-Trimethyl-L-phenylalanyl-N-[(1S,2E)-3-carboxy-1-(1-methylethyl)-2-buten-1-yl]-N,3-dimethyl-L-valinamide", "SPA 110", "HTI 286", "Taltobulin"], "SMILES": "C(C(C)(C)C1=CC=CC=C1)(C(NC(C(N(C(C=C(C(O)=O)C)C(C)C)C)=O)C(C)(C)C)=O)NC", "physical_data": {"Molecular Weight": "473.65", "Molecular Formula": "C27H43N3O4", "Melting Point": "135-137 \u00b0C"}}