{"cas_no": "22821-80-3", "cn_name": "4'-\u7532\u57fa\u78fa\u9170\u4e59\u9170\u82ef\u80fa", "en_name": ["N-[4-(Methylsulfonyl)phenyl]acetamide", "Acetamide, N-[4-(methylsulfonyl)phenyl]-", "Acetanilide, 4\u2032-(methylsulfonyl)-", "N-[4-(Methylsulfonyl)phenyl]acetamide", "p-Acetamidophenyl methyl sulfone", "NSC 85737"], "SMILES": "S(C)(=O)(=O)C1=CC=C(NC(C)=O)C=C1", "physical_data": {"Molecular Weight": "213.25", "Molecular Formula": "C9H11NO3S", "Melting Point": "183 \u00b0C"}}