{"cas_no": "22839-47-0", "cn_name": "\u963f\u65af\u5df4\u751c", "en_name": ["Aspartame", "L-Phenylalanine, L-\u03b1-aspartyl-, 2-methyl ester", "Succinamic acid, 3-amino-N-(\u03b1-carboxyphenethyl)-, N-methyl ester, stereoisomer", "L-Phenylalanine, N-L-\u03b1-aspartyl-, 1-methyl ester", "L-Aspartyl-L-phenylalanine methyl ester", "Aspartylphenylalanine methyl ester", "L-\u03b1-Aspartyl-L-phenylalanine methyl ester", "L-Aspartyl-L-3-phenylalanine methyl ester", "\u03b1-L-Aspartyl-L-phenylalanine methyl ester", "Methyl aspartylphenylalanate", "Sweet dipeptide", "Aspartame", "L-Aspartyl-L-phenylalanyl methyl ester", "Canderel", "Dipeptide sweetener", "\u03b1-Sweet", "NutraSweet", "Palsweet Diet", "E 951", "Pal Sweet", "Equal", "\u03b1-Aspartame", "L-Aspartame", "Finn", "Zero-Cal", "Sladex", "Pal Sweet Diet G 100", "SWD 8029", "MeSH ID: D001218"], "SMILES": "C(CC1=CC=CC=C1)(NC(C(CC(O)=O)N)=O)C(OC)=O", "physical_data": {"Molecular Weight": "294.30", "Molecular Formula": "C14H18N2O5", "Melting Point": "246-247 \u00b0C"}}