{"cas_no": "2283-82-1", "cn_name": "\u8131\u6c22\u96c4\u753e\u916e", "en_name": ["Dehydroandrosterone", "Androst-5-en-17-one, 3-hydroxy-, (3\u03b1)-", "Androst-5-en-17-one, 3\u03b1-hydroxy-", "(3\u03b1)-3-Hydroxyandrost-5-en-17-one", "\u03945-Androstene-3\u03b1-ol-17-one", "Dehydroandrosterone", "Isoandrostenolone", "3\u03b1-Hydroxy-5-androsten-17-one", "Androst-5-en-3\u03b1-ol-17-one"], "SMILES": "CC12C3C(C4C(C)(CC3)C(=O)CC4)CC=C1CC(O)CC2", "physical_data": {"Molecular Weight": "288.42", "Molecular Formula": "C19H28O2", "Melting Point": "148 \u00b0C"}}