{"cas_no": "2283-08-1", "cn_name": "2-\u7f9f\u57fa-1-\u8418\u7532\u9178", "en_name": ["2-Hydroxy-1-naphthoic acid", "1-Naphthalenecarboxylic acid, 2-hydroxy-", "1-Naphthoic acid, 2-hydroxy-", "2-Hydroxy-1-naphthalenecarboxylic acid", "2-Hydroxy-1-naphthoic acid", "NSC 2803"], "SMILES": "C(O)(=O)C=1C2=C(C=CC1O)C=CC=C2", "physical_data": {"Molecular Weight": "188.18", "Molecular Formula": "C11H8O3", "Boiling Point": "216 \u00b0C", "Melting Point": "154-155 \u00b0C"}}