{"cas_no": "22831-39-6", "cn_name": "\u7845\u5316\u9541", "en_name": ["Magnesium silicide (Mg2Si)", "Magnesium silicide (Mg2Si)", "Dimagnesium silicide", "Magnesium silicide", "Dimagnesium monosilicide", "Magnesium, compd. with silicon (2:1)", "Magnesium silicide (Mg66.7Si33.3)"], "SMILES": "[Si](=[Mg])=[Mg]", "physical_data": {"Molecular Weight": "", "Molecular Formula": "Mg2Si", "Melting Point": "1102 \u00b0C", "Density": "1.940 g/cm\u00b3"}}