{"cas_no": "2283-11-6", "cn_name": "\u516d\u4e59\u57fa\u4e9a\u78f7\u9178\u80fa", "en_name": ["Hexaethylphosphorous triamide", "Phosphorous triamide, N,N,N\u2032,N\u2032,N\u2032\u2032,N\u2032\u2032-hexaethyl-", "Phosphorous triamide, hexaethyl-", "N,N,N\u2032,N\u2032,N\u2032\u2032,N\u2032\u2032-Hexaethylphosphorous triamide", "Tris(diethylamino)phosphine", "Hexaethylphosphorous triamide", "Hexaethyltriaminophosphine", "Phosphorous acid tris(diethylamide)", "Tris(N,N-diethylamino)phosphine", "Hexaethyltriamidophosphite", "Tris(diethylamido)phosphine"], "SMILES": "P(N(CC)CC)(N(CC)CC)N(CC)CC", "physical_data": {"Molecular Weight": "247.36", "Molecular Formula": "C12H30N3P", "Boiling Point": "120-122 \u00b0C @ Press: 10 Torr", "Melting Point": "230-232 \u00b0C", "Density": "0.906 g/cm\u00b3 @ Temp: 20 \u00b0C"}}