{"cas_no": "2284-31-3", "cn_name": "\u7ea2\u8f66\u8f74\u8349\u7d20", "en_name": ["Pratensein", "4H-1-Benzopyran-4-one, 5,7-dihydroxy-3-(3-hydroxy-4-methoxyphenyl)-", "Isoflavone, 3\u2032,5,7-trihydroxy-4\u2032-methoxy-", "5,7-Dihydroxy-3-(3-hydroxy-4-methoxyphenyl)-4H-1-benzopyran-4-one", "Pratensein", "4\u2032-O-Methylorobol", "Pratenseine", "3\u2032-Hydroxybiochanin A"], "SMILES": "O=C1C=2C(OC=C1C3=CC(O)=C(OC)C=C3)=CC(O)=CC2O", "physical_data": {"Molecular Weight": "300.26", "Molecular Formula": "C16H12O6", "Melting Point": "271-273 \u00b0C"}}