{"cas_no": "2284-20-0", "cn_name": "1-\u8418\u5f02\u786b\u6c30\u9178\u916f", "en_name": ["4-Methoxyphenyl isothiocyanate", "Benzene, 1-isothiocyanato-4-methoxy-", "Isothiocyanic acid, p-methoxyphenyl ester", "1-Isothiocyanato-4-methoxybenzene", "p-Anisyl isothiocyanate", "4-Methoxyphenyl isothiocyanate", "4-Anisyl isothiocyanate", "p-Methoxyphenyl isothiocyanate", "4-(Isothiocyanato)anisole", "NSC 77713", "4-Isothiocyanato-1-methoxybenzene", "1-Methoxy-4-isothiocyanatobenzene"], "SMILES": "N(=C=S)C1=CC=C(OC)C=C1", "physical_data": {"Molecular Weight": "165.21", "Molecular Formula": "C8H7NOS", "Boiling Point": "280.5 \u00b0C", "Melting Point": "18 \u00b0C"}}