{"cas_no": "2284-30-2", "cn_name": "4-\u82ef\u7532\u57fa-1,3-\u82ef\u4e8c\u915a", "en_name": ["4-Benzylresorcinol", "1,3-Benzenediol, 4-(phenylmethyl)-", "Resorcinol, 4-benzyl-", "Cresorcinol, \u03b1-phenyl-", "4-(Phenylmethyl)-1,3-benzenediol", "p-Benzylresorcinol", "4-Benzylresorcinol", "4-Benzyl-1,3-benzenediol"], "SMILES": "C(C1=C(O)C=C(O)C=C1)C2=CC=CC=C2", "physical_data": {"Molecular Weight": "200.23", "Molecular Formula": "C13H12O2", "Boiling Point": "210-215 \u00b0C @ Press: 12 Torr", "Melting Point": "76-77 \u00b0C"}}