{"cas_no": "22841-92-5", "cn_name": "3-\u6c2f-2-\u80bc\u57fa\u7812\u5576", "en_name": ["3-Chloro-2-hydrazinylpyridine", "Pyridine, 3-chloro-2-hydrazinyl-", "Pyridine, 3-chloro-2-hydrazino-", "2(1H)-Pyridinone, 3-chloro-, hydrazone", "3-Chloro-2-hydrazinylpyridine", "3-Chloro-2-hydrazinopyridine", "2-Hydrazino-3-chloropyridine", "3-Chloro-2(1H)-pyridinone hydrazone", "(3-Chloropyridin-2-yl)hydrazine", "[3-Chloro-2-pyridyl]-1-hydrazine", "3-Chloro-2-hydrazylpyridine", "1-(3-Chloropyridin-2-yl)hydrazine", "(3-Chloro-2-pyridyl)hydrazine"], "SMILES": "N(N)=C1C(Cl)=CC=CN1", "physical_data": {"Molecular Weight": "143.57", "Molecular Formula": "C5H6ClN3", "Melting Point": "163-164 \u00b0C"}}