{"cas_no": "22840-03-5", "cn_name": "ASP-TYR", "en_name": ["L-\u03b1-Aspartyl-L-tyrosine", "L-Tyrosine, L-\u03b1-aspartyl-", "Tyrosine, N-L-\u03b1-aspartyl-, L-", "L-Tyrosine, N-L-\u03b1-aspartyl-", "L-\u03b1-Aspartyl-L-tyrosine", "15: PN: WO2016164579 SEQID: 15 claimed sequence", "15: PN: WO2016164528 SEQID: 15 claimed sequence", "38: PN: WO2019074124 SEQID: 46 claimed protein", "4: PN: WO2021210633 PAGE: 18 claimed sequence", "448: PN: WO2022215055 SEQID: 448 claimed protein"], "SMILES": "C(C(NC(C(CC(O)=O)N)=O)C(O)=O)C1=CC=C(O)C=C1", "physical_data": {"Molecular Weight": "296.28", "Molecular Formula": "C13H16N2O6", "Melting Point": "177-178 \u00b0C"}}