{"cas_no": "22859-36-5", "cn_name": "(\u7532\u6c27\u57fa\u7532\u57fa)\u4e09\u7532\u6c27\u57fa\u7845\u70f7", "en_name": ["Trimethoxy(methoxymethyl)silane", "Silane, trimethoxy(methoxymethyl)-", "Trimethoxy(methoxymethyl)silane", "(Methoxymethyl)trimethoxysilane", "X 12-1312MS"], "SMILES": "[Si](COC)(OC)(OC)OC", "physical_data": {"Molecular Weight": "166.25", "Molecular Formula": "C5H14O4Si", "Boiling Point": "79-80 \u00b0C @ Press: 90 mbar"}}