{"cas_no": "2285-12-3", "cn_name": "\u95f4\u4e09\u6c1f\u7532\u82ef\u5f02\u6c30\u9178\u916f", "en_name": ["2-(Trifluoromethyl)phenyl isocyanate", "Benzene, 1-isocyanato-2-(trifluoromethyl)-", "Isocyanic acid, \u03b1,\u03b1,\u03b1-trifluoro-o-tolyl ester", "1-Isocyanato-2-(trifluoromethyl)benzene", "2-(Trifluoromethyl)phenyl isocyanate", "o-(Trifluoromethyl)phenyl isocyanate", "\u03b1,\u03b1,\u03b1-Trifluoro-o-tolyl isocyanate"], "SMILES": "C(F)(F)(F)C1=C(N=C=O)C=CC=C1", "physical_data": {"Molecular Weight": "187.12", "Molecular Formula": "C8H4F3NO", "Boiling Point": "70-72 \u00b0C @ Press: 20 Torr"}}