{"cas_no": "2286-54-6", "cn_name": "3,3-\u4e8c\u82ef\u57fa\u4e19\u8148", "en_name": ["\u03b2-Phenylbenzenepropanenitrile", "Benzenepropanenitrile, \u03b2-phenyl-", "Propionitrile, 3,3-diphenyl-", "\u03b2-Phenylbenzenepropanenitrile", "3,3-Diphenylpropionitrile", "3,3-Diphenylpropanenitrile"], "SMILES": "C(CC#N)(C1=CC=CC=C1)C2=CC=CC=C2", "physical_data": {"Molecular Weight": "207.27", "Molecular Formula": "C15H13N", "Boiling Point": "175-178 \u00b0C @ Press: 2 Torr", "Melting Point": "88.5 \u00b0C"}}