{"cas_no": "22862-76-6", "cn_name": "\u8334\u9999\u9709\u7d20", "en_name": ["(-)-Anisomycin", "3,4-Pyrrolidinediol, 2-[(4-methoxyphenyl)methyl]-, 3-acetate, (2R,3S,4S)-", "3,4-Pyrrolidinediol, 2-[(4-methoxyphenyl)methyl]-, 3-acetate, [2R-(2\u03b1,3\u03b1,4\u03b2)]-", "Anisomycin", "3,4-Pyrrolidinediol, 2-(p-methoxybenzyl)-, 3-acetate, (2R,3S,4S)-", "(2R,3S,4S)-2-(p-Methoxybenzyl)-3,4-pyrrolidinediol 3-acetate", "(2R,3S,4S)-2-(p-Methoxyphenylmethyl)-3-acetoxy-4-hydroxypyrrolidine", "Flagecidin", "(-)-Anisomycin", "Anisomycin, (-)-", "NSC 76712", "Wuningmeisu C", "MeSH ID: D000841"], "SMILES": "C(C1C(OC(C)=O)C(O)CN1)C2=CC=C(OC)C=C2", "physical_data": {"Molecular Weight": "265.30", "Molecular Formula": "C14H19NO4", "Melting Point": "140.5 \u00b0C"}}