{"cas_no": "22863-82-7", "cn_name": "2-(\u7f9f\u57fa\u7532\u57fa)\u84bd", "en_name": ["2-Anthracenemethanol", "2-Anthracenemethanol", "2-Anthracenylmethanol", "2-(Hydroxymethyl)anthracene"], "SMILES": "C(O)C1=CC2=C(C=C3C(=C2)C=CC=C3)C=C1", "physical_data": {"Molecular Weight": "208.26", "Molecular Formula": "C15H12O", "Melting Point": "223-224 \u00b0C (decomp)"}}