{"cas_no": "22876-19-3", "cn_name": "5-\u6c2f-2-\u5def\u57fa\u82ef\u5e76\u6076\u5511", "en_name": ["5-Chloro-2-mercaptobenzoxazole", "2(3H)-Benzoxazolethione, 5-chloro-", "2-Benzoxazolinethione, 5-chloro-", "2-Benzoxazolethiol, 5-chloro-", "5-Chloro-2(3H)-benzoxazolethione", "5-Chloro-2-thioxobenzoxazoline", "5-Chloro-2-mercaptobenzoxazole", "5-Chloro-2-benzoxazolethiol", "2-Mercapto-5-chlorobenzoxazole", "5-Chloro-2-benzoxazolinethione", "NSC 26187", "5-Chloro-1,3-benzoxazole-2-thiol"], "SMILES": "S=C1OC=2C(N1)=CC(Cl)=CC2", "physical_data": {"Molecular Weight": "185.63", "Molecular Formula": "C7H4ClNOS", "Melting Point": "275 \u00b0C"}}