{"cas_no": "22871-55-2", "cn_name": "5-\u785d\u57fa\u95f4\u82ef\u4e8c\u7532\u9178\u4e00\u4e59\u916f", "en_name": ["1-Ethyl 5-nitro-1,3-benzenedicarboxylate", "1,3-Benzenedicarboxylic acid, 5-nitro-, 1-ethyl ester", "Isophthalic acid, 5-nitro-, monoethyl ester", "1,3-Benzenedicarboxylic acid, 5-nitro-, monoethyl ester", "1-Ethyl 5-nitro-1,3-benzenedicarboxylate", "Monoethyl 5-nitroisophthalic acid", "Monoethyl 5-nitroisophthalate", "3-Ethoxycarbonyl-5-nitrobenzoic acid", "Ethyl 3-carboxy-5-nitrobenzoate"], "SMILES": "C(OCC)(=O)C1=CC(C(O)=O)=CC(N(=O)=O)=C1", "physical_data": {"Molecular Weight": "239.18", "Molecular Formula": "C10H9NO6", "Melting Point": "162 \u00b0C"}}