{"cas_no": "22876-20-6", "cn_name": "6-\u6c2f-2-\u5def\u57fa\u82ef\u5e76\u6076\u5511", "en_name": ["6-Chloro-2-mercaptobenzoxazole", "2(3H)-Benzoxazolethione, 6-chloro-", "2-Benzoxazolinethione, 6-chloro-", "6-Chloro-2(3H)-benzoxazolethione", "6-Chloro-2-thioxobenzoxazoline", "6-Chloro-2-benzoxazolinethione", "6-Chloro-2-mercaptobenzoxazole", "6-Chloro-1,3-benzoxazole-2-thiol", "6-Chlorobenzoxazole-2-thiol", "6-Chloro-2-mercaptobenzo[d]oxazole", "6-Chlorobenzo[d]oxazole-2-thiol"], "SMILES": "S=C1NC=2C(O1)=CC(Cl)=CC2", "physical_data": {"Molecular Weight": "185.63", "Molecular Formula": "C7H4ClNOS", "Melting Point": "224-225 \u00b0C"}}