{"cas_no": "22879-79-4", "cn_name": "\u5421\u54c6\u7d20", "en_name": ["Biotin", "1H-Thieno[3,4-d]imidazole-4-pentanoic acid, hexahydro-2-oxo-, (3aS,4S,6aR)-", "Biotin", "1H-Thieno[3,4-d]imidazole-4-pentanoic acid, hexahydro-2-oxo-, [3aS-(3a\u03b1,4\u03b2,6a\u03b1)]-", "(3aS,4S,6aR)-Hexahydro-2-oxo-1H-thieno[3,4-d]imidazole-4-pentanoic acid", "Bioepiderm", "Coenzyme R", "Factor S", "(+)-cis-Hexahydro-2-oxo-1H-thieno[3,4]imidazole-4-valeric acid", "cis-(+)-Tetrahydro-2-oxothieno[3,4]imidazoline-4-valeric acid", "Vitamin H", "Vitamin B7", "d-Biotin", "(+)-Biotin", "Factor S (vitamin)", "D(+)-Biotin", "Bios II", "D-Biotin", "Meribin", "Rovimix H 2", "Lutavit H2", "Biodermatin", "NSC 63865", "Vitamin I", "Medebiotin", "5-((3aS,4S,6aR)-2-Oxohexahydro-1H-thieno[3,4-d]imidazol-4-yl)pentanoic acid", "MD 1003", "7: PN: KR2178813 SEQID: 7 claimed sequence", "MeSH ID: D001710"], "SMILES": "C(CCCC(O)=O)C1C2C(NC(=O)N2)CS1", "physical_data": {"Molecular Weight": "244.31", "Molecular Formula": "C10H16N2O3S", "Melting Point": "232 \u00b0C (decomp)", "Density": "1.42 g/cm\u00b3"}}