{"cas_no": "22881-35-2", "cn_name": "\u82b3\u9999\u6cd5\u5b97", "en_name": ["Famprofazone", "3H-Pyrazol-3-one, 1,2-dihydro-1-methyl-4-(1-methylethyl)-5-[[methyl(1-methyl-2-phenylethyl)amino]methyl]-2-phenyl-", "3-Pyrazolin-5-one, 4-isopropyl-2-methyl-3-[[methyl(\u03b1-methylphenethyl)amino]methyl]-1-phenyl-", "1,2-Dihydro-1-methyl-4-(1-methylethyl)-5-[[methyl(1-methyl-2-phenylethyl)amino]methyl]-2-phenyl-3H-pyrazol-3-one", "Famprofazone", "1-Methyl-5-[[methyl(1-phenylpropan-2-yl)amino]methyl]-2-phenyl-4-propan-2-ylpyrazol-3-one"], "SMILES": "CN1N(C(=O)C(C(C)C)=C1CN(C(CC2=CC=CC=C2)C)C)C3=CC=CC=C3", "physical_data": {"Molecular Weight": "377.52", "Molecular Formula": "C24H31N3O", "Melting Point": "132-133 \u00b0C"}}