{"cas_no": "22884-31-7", "cn_name": "\u4e94\u4e9a\u7532\u57fa\u53cc(\u4e09\u82ef\u57fa\u6eb4\u5316\u81a6)", "en_name": ["1,5-Pentanediylbis(triphenylphosphonium) dibromide, 1,1\u2032-(1,5-pentanediyl)bis[1,1,1-triphenyl-, bromide (1:2)", "1,5-Pentanediylbis(triphenylphosphonium) dibromide, 1,1\u2032-(1,5-pentanediyl)bis[1,1,1-triphenyl-, bromide (1:2)", "Phosphonium, pentamethylenebis[triphenyl-, dibromide", "Phosphonium, 1,5-pentanediylbis[triphenyl-, dibromide", "Pentamethylenebis(triphenylphosphonium bromide)", "1,5-Pentanediylbis(triphenylphosphonium) dibromide"], "SMILES": "[P+](CCCCC[P+](C1=CC=CC=C1)(C2=CC=CC=C2)C3=CC=CC=C3)(C4=CC=CC=C4)(C5=CC=CC=C5)C6=CC=CC=C6.[Br-]", "physical_data": {"Molecular Weight": "", "Molecular Formula": "C41H40P2.2Br", "Melting Point": "262 \u00b0C"}}