{"cas_no": "22884-29-3", "cn_name": "\u7898\u5316\u5f02\u4e19\u57fa\u4e09\u82ef\u93fb", "en_name": ["Phosphonium, (2-methylpropyl)triphenyl-, bromide (1:1)", "Phosphonium, (2-methylpropyl)triphenyl-, bromide (1:1)", "Phosphonium, isobutyltriphenyl-, bromide", "Phosphonium, (2-methylpropyl)triphenyl-, bromide", "Isobutyltriphenylphosphonium bromide", "2-Methylpropyltriphenylphosphonium bromide"], "SMILES": "[P+](CC(C)C)(C1=CC=CC=C1)(C2=CC=CC=C2)C3=CC=CC=C3.[Br-]", "physical_data": {"Molecular Weight": "", "Molecular Formula": "C22H24P.Br", "Melting Point": "198-202 \u00b0C"}}