{"cas_no": "2288-13-3", "cn_name": "1-\u7532\u57fa-2,8,9-\u4e09\u6c27\u6742-5-\u6c2e\u6742-1-\u7845\u6742\u4e8c\u73af[3.3.3]\u5341\u4e00\u70f7", "en_name": ["1-Methyl-2,8,9-trioxa-5-aza-1-silabicyclo[3.3.3]undecane", "2,8,9-Trioxa-5-aza-1-silabicyclo[3.3.3]undecane, 1-methyl-", "1-Methyl-2,8,9-trioxa-5-aza-1-silabicyclo[3.3.3]undecane", "Methylsilatrane", "1-Methylsilatrane"], "SMILES": "C[Si]12OCCN(CCO1)CCO2", "physical_data": {"Molecular Weight": "189.28", "Molecular Formula": "C7H15NO3Si", "Boiling Point": "174 \u00b0C @ Press: 31 Torr", "Melting Point": "152 \u00b0C"}}