{"cas_no": "22888-70-6", "cn_name": "\u6c34\u98de\u84df\u5bbe", "en_name": ["Silybin", "4H-1-Benzopyran-4-one, 2-[(2R,3R)-2,3-dihydro-3-(4-hydroxy-3-methoxyphenyl)-2-(hydroxymethyl)-1,4-benzodioxin-6-yl]-2,3-dihydro-3,5,7-trihydroxy-, (2R,3R)-", "4-Chromanone, 3,5,7-trihydroxy-2-[3-(4-hydroxy-3-methoxyphenyl)-2-(hydroxymethyl)-1,4-benzodioxan-6-yl]-", "Silybin", "4H-1-Benzopyran-4-one, 2-[2,3-dihydro-3-(4-hydroxy-3-methoxyphenyl)-2-(hydroxymethyl)-1,4-benzodioxin-6-yl]-2,3-dihydro-3,5,7-trihydroxy-, [2R-[2\u03b1,3\u03b2,6(2R*,3R*)]]-", "1,4-Benzodioxin, 4H-1-benzopyran-4-one deriv.", "(2R,3R)-2-[(2R,3R)-2,3-Dihydro-3-(4-hydroxy-3-methoxyphenyl)-2-(hydroxymethyl)-1,4-benzodioxin-6-yl]-2,3-dihydro-3,5,7-trihydroxy-4H-1-benzopyran-4-one", "Silybine", "Silymarin I", "7C3MT", "Silliver", "Silymarine I", "Silibinin", "Silymarin MZ 80", "Silybum substance E6", "Silybin A", "Silybin b1", "Silibinin A", "Mepasil", "Realsil"], "SMILES": "C(O)C1C(OC=2C(O1)=CC=C(C2)C3OC=4C(C(=O)C3O)=C(O)C=C(O)C4)C5=CC(OC)=C(O)C=C5", "physical_data": {"Molecular Weight": "482.44", "Molecular Formula": "C25H22O10", "Melting Point": "158 \u00b0C"}}