{"cas_no": "22884-10-2", "cn_name": "\u54aa\u5511-1-\u4e59\u9178", "en_name": ["1H-Imidazole-1-acetic acid", "1H-Imidazole-1-acetic acid", "Imidazole-1-acetic acid", "Imidazol-1-ylacetic acid", "2-(1H-Imidazol-1-yl)acetic acid", "(1H-Imidazol-1-yl)acetic acid", "2-(1H-Imidazol-3-ium-3-yl)acetate"], "SMILES": "C(C(O)=O)N1C=CN=C1", "physical_data": {"Molecular Weight": "126.11", "Molecular Formula": "C5H6N2O2", "Melting Point": "268-269 \u00b0C (decomp)"}}