{"cas_no": "22889-78-7", "cn_name": "4-\u6c28\u57fa-3,5-\u4e8c\u6c2f\u5421\u5576", "en_name": ["4-Amino-3,5-dichloropyridine", "4-Pyridinamine, 3,5-dichloro-", "Pyridine, 4-amino-3,5-dichloro-", "3,5-Dichloro-4-pyridinamine", "3,5-Dichloro-4-aminopyridine", "4-Amino-3,5-dichloropyridine", "3,5-Dichloropyridin-4-ylamine", "3,5-Dichloropyridin-4-amine", "3,5-Dichloropyridine-4-amine"], "SMILES": "NC=1C(Cl)=CN=CC1Cl", "physical_data": {"Molecular Weight": "163.00", "Molecular Formula": "C5H4Cl2N2", "Melting Point": "161 \u00b0C"}}