{"cas_no": "22884-95-3", "cn_name": "3,4-\u4e8c\u7532\u57fa\u82ef\u8148", "en_name": ["3,4-Dimethylbenzonitrile", "Benzonitrile, 3,4-dimethyl-", "3,4-Dimethylbenzonitrile", "1,2-Dimethyl-4-cyanobenzene"], "SMILES": "C(#N)C1=CC(C)=C(C)C=C1", "physical_data": {"Molecular Weight": "131.17", "Molecular Formula": "C9H9N", "Boiling Point": "118-122 \u00b0C @ Press: 15 Torr", "Melting Point": "69-69.5 \u00b0C"}}