{"cas_no": "22892-95-1", "cn_name": "4-\u6c2f-3-\u6c2f\u78fa\u9170\u57fa-5-\u785d\u57fa\u82ef\u7532\u9178", "en_name": ["4-Chloro-3-(chlorosulfonyl)-5-nitrobenzoic acid", "Benzoic acid, 4-chloro-3-(chlorosulfonyl)-5-nitro-", "4-Chloro-3-(chlorosulfonyl)-5-nitrobenzoic acid"], "SMILES": "S(Cl)(=O)(=O)C1=C(Cl)C(N(=O)=O)=CC(C(O)=O)=C1", "physical_data": {"Molecular Weight": "300.07", "Molecular Formula": "C7H3Cl2NO6S", "Melting Point": "193-194 \u00b0C (decomp)"}}