{"cas_no": "22892-96-2", "cn_name": "4-\u6c2f-3-\u785d\u57fa-5-\u78fa\u9170\u80fa\u57fa\u82ef\u7532\u9178", "en_name": ["3-(Aminosulfonyl)-4-chloro-5-nitrobenzoic acid", "Benzoic acid, 3-(aminosulfonyl)-4-chloro-5-nitro-", "Benzoic acid, 4-chloro-3-nitro-5-sulfamoyl-", "3-(Aminosulfonyl)-4-chloro-5-nitrobenzoic acid", "4-Chloro-3-nitro-5-sulfamoylbenzoate acid", "4-Chloro-3-nitro-5-sulfamoylbenzoic acid", "4-Chloro-3-nitro-5-sulfamylbenzoic acid", "5-Aminosulfonyl-4-chloro-3-nitrobenzoic acid", "4-Chloro-3-nitro-5-sulfonamido-benzoic acid", "2-Chloro-3-nitro-5-carboxy-benzenesulphonamide"], "SMILES": "S(N)(=O)(=O)C1=C(Cl)C(N(=O)=O)=CC(C(O)=O)=C1", "physical_data": {"Molecular Weight": "280.64", "Molecular Formula": "C7H5ClN2O6S", "Melting Point": "235-236.5 \u00b0C (decomp)"}}