{"cas_no": "229-87-8", "cn_name": "\u83f2\u5576", "en_name": ["Phenanthridine", "Phenanthridine", "Benzo[c]quinoline", "3,4-Benzoquinoline", "9-Azaphenanthrene", "3,4-Benzoisoquinoline", "5-Azaphenanthrene", "NSC 338473", "NSC 73482", "NSC 93336"], "SMILES": "C12=C3C(=NC=C1C=CC=C2)C=CC=C3", "physical_data": {"Molecular Weight": "179.22", "Molecular Formula": "C13H9N", "Boiling Point": "349 \u00b0C", "Melting Point": "107.4 \u00b0C"}}