{"cas_no": "22900-11-4", "cn_name": "N-\u4e59\u9170\u795e\u7ecf\u6c28\u9178\u7532\u916f", "en_name": ["\u03b2-Neuraminic acid, N-acetyl-, methyl ester", "\u03b2-Neuraminic acid, N-acetyl-, methyl ester", "D-glycero-D-galacto-Nonulopyranosonic acid, 5-acetamido-3,5-dideoxy-, methyl ester, \u03b2-", "D-glycero-\u03b2-D-galacto-2-Nonulopyranosonic acid, 5-(acetylamino)-3,5-dideoxy-, methyl ester", "Methyl N-acetyl-\u03b2-neuraminate", "N-Acetyl-\u03b2-neuraminic acid methyl ester"], "SMILES": "C(C(CO)O)(O)C1C(NC(C)=O)C(O)CC(C(OC)=O)(O)O1", "physical_data": {"Molecular Weight": "323.30", "Molecular Formula": "C12H21NO9", "Melting Point": "183 \u00b0C"}}