{"cas_no": "2290-65-5", "cn_name": "\u5f02\u786b\u6c22\u9178\u4e09\u7532\u57fa\u7845\u916f", "en_name": ["Isothiocyanatotrimethylsilane", "Silane, isothiocyanatotrimethyl-", "Isothiocyanatotrimethylsilane", "Trimethylsilyl isothiocyanate", "Trimethylisothiocyanatosilane"], "SMILES": "N([Si](C)(C)C)=C=S", "physical_data": {"Molecular Weight": "131.27", "Molecular Formula": "C4H9NSSi", "Boiling Point": "144 \u00b0C", "Melting Point": "-33 \u00b0C", "Density": "0.931 g/cm\u00b3"}}