{"cas_no": "22901-11-7", "cn_name": "3,4-\u4e8c\u6c22-1H-2-\u82ef\u5e76\u5421\u5583-1-\u4e59\u9178", "en_name": ["3,4-Dihydro-1H-2-benzopyran-1-acetic acid", "1H-2-Benzopyran-1-acetic acid, 3,4-dihydro-", "1-Isochromanacetic acid", "3,4-Dihydro-1H-2-benzopyran-1-acetic acid", "2-(3,4-Dihydro-1H-isochromen-1-yl)acetic acid", "2-(3,4-Dihydro-1H-2-benzopyran-1-yl)acetic acid"], "SMILES": "C(C(O)=O)C1C=2C(CCO1)=CC=CC2", "physical_data": {"Molecular Weight": "192.21", "Molecular Formula": "C11H12O3", "Boiling Point": "155-157 \u00b0C @ Press: 0.4 Torr", "Melting Point": "69-71 \u00b0C"}}