{"cas_no": "22910-60-7", "cn_name": "\u94f6\u674f\u9178", "en_name": ["Ginkgolic acid", "Benzoic acid, 2-hydroxy-6-(8Z)-8-pentadecen-1-yl-", "Salicylic acid, 6-(8-pentadecenyl)-, (Z)-", "Benzoic acid, 2-hydroxy-6-(8-pentadecenyl)-, (Z)-", "Benzoic acid, 2-hydroxy-6-(8Z)-8-pentadecenyl-", "2-Hydroxy-6-(8Z)-8-pentadecen-1-ylbenzoic acid", "Ginkgolic acid", "1-Hydroxy-2-carboxy-3-(pentadecen-8\u2032-yl)benzene", "Ginkgoic acid", "6-(Z)-8-Pentadecenylsalicylic acid", "Romanicardic acid", "6-(8Z)-Pentadecenylsalicylic acid", "Ginkgolic acid I", "Anacardic acid monoene", "22:1-\u03c97-Anacardic acid", "Ginkgolic acid 15:1", "6-(8-Pentadecenyl)salicylic acid", "6-(8\u2032Z-Pentadecenyl)salicylic acid", "(15:1)-Anacardic acid", "Ginkgolic acid C15:1"], "SMILES": "C(O)(=O)C1=C(CCCCCCCC=CCCCCCC)C=CC=C1O", "physical_data": {"Molecular Weight": "346.50", "Molecular Formula": "C22H34O3", "Boiling Point": "221-223 \u00b0C @ Press: 4 Torr", "Melting Point": "92 \u00b0C", "Density": "0.9148 g/cm\u00b3 @ Temp: 20 \u00b0C"}}