{"cas_no": "2291-59-0", "cn_name": "9-\u82c4\u57fa-9-\u6c2e\u6742\u53cc\u73af[3.3.1]\u58ec-3-\u916e", "en_name": ["9-Azabicyclo[3.3.1]nonan-3-one, 9-(phenylmethyl)-, hydrochloride (1:1)", "9-Azabicyclo[3.3.1]nonan-3-one, 9-(phenylmethyl)-, hydrochloride (1:1)", "9-Azabicyclo[3.3.1]nonan-3-one, 9-benzyl-, hydrochloride", "9-Azabicyclo[3.3.1]nonan-3-one, 9-(phenylmethyl)-, hydrochloride", "Norpseudopelletierine, N-benzyl-, hydrochloride", "NSC 116041", "9-Benzyl-9-azabicyclo[3.3.1]nonan-3-one hydrochloride"], "SMILES": "C(N1C2CC(=O)CC1CCC2)C3=CC=CC=C3.Cl", "physical_data": {"Molecular Weight": "", "Molecular Formula": "C15H19NO.ClH", "Melting Point": "228 \u00b0C (decomp)"}}