{"cas_no": "22916-47-8", "cn_name": "\u54aa\u5eb7\u5511", "en_name": ["Miconazole", "1H-Imidazole, 1-[2-(2,4-dichlorophenyl)-2-[(2,4-dichlorophenyl)methoxy]ethyl]-", "Imidazole, 1-[2,4-dichloro-\u03b2-[(2,4-dichlorobenzyl)oxy]phenethyl]-", "1-[2-(2,4-Dichlorophenyl)-2-[(2,4-dichlorophenyl)methoxy]ethyl]-1H-imidazole", "Miconazole", "R 18134", "MJR 1762", "(\u00b1)-Miconazole", "Daktarin IV", "Monistat IV", "NSC 170986", "Florid-F", "Lauriad", "Daktanol", "Zimybase", "Loramyc", "1-[2-(2,4-Dichloro-benzyloxy)-2-(2,4-dichloro-phenyl)-ethyl]-1H-imidazole", "1-(2-((2,4-Dichlorobenzyl)oxy)-2-(2,4-dichlorophenyl)ethyl)-1H-imidazole", "1-[2-(2,4-Dichlorophenyl)-2-[(2,4-dichlorophenyl)methoxy]ethyl]imidazole", "MeSH ID: D008825"], "SMILES": "C(CN1C=CN=C1)(OCC2=C(Cl)C=C(Cl)C=C2)C3=C(Cl)C=C(Cl)C=C3", "physical_data": {"Molecular Weight": "416.13", "Molecular Formula": "C18H14Cl4N2O", "Melting Point": "184-185 \u00b0C"}}