{"cas_no": "22924-15-8", "cn_name": "3-\u4e59\u6c27\u57fa\u82ef\u7532\u919b", "en_name": ["3-Ethoxybenzaldehyde", "Benzaldehyde, 3-ethoxy-", "Benzaldehyde, m-ethoxy-", "3-Ethoxybenzaldehyde", "m-Ethoxybenzaldehyde"], "SMILES": "O(CC)C1=CC(C=O)=CC=C1", "physical_data": {"Molecular Weight": "150.17", "Molecular Formula": "C9H10O2", "Boiling Point": "245.5 \u00b0C", "Melting Point": "177 \u00b0C"}}