{"cas_no": "2292-16-2", "cn_name": "\u7532\u57fa\u83b2\u5fc3\u78b1", "en_name": ["(-)-Neferine", "Phenol, 4-[[(1S)-1,2,3,4-tetrahydro-6,7-dimethoxy-2-methyl-1-isoquinolinyl]methyl]-2-[[(1R)-1,2,3,4-tetrahydro-6-methoxy-1-[(4-methoxyphenyl)methyl]-2-methyl-7-isoquinolinyl]oxy]-", "Neferine", "4-[[(1S)-1,2,3,4-Tetrahydro-6,7-dimethoxy-2-methyl-1-isoquinolinyl]methyl]-2-[[(1R)-1,2,3,4-tetrahydro-6-methoxy-1-[(4-methoxyphenyl)methyl]-2-methyl-7-isoquinolinyl]oxy]phenol", "Neferin", "4\u2032\u2032-O-Methylliensinine", "Methylliensinine", "(-)-Neferine", "SC 185"], "SMILES": "C(C1C=2C(=CC(OC)=C(OC3=CC(CC4C=5C(=CC(OC)=C(OC)C5)CCN4C)=CC=C3O)C2)CCN1C)C6=CC=C(OC)C=C6", "physical_data": {"Molecular Weight": "624.77", "Molecular Formula": "C38H44N2O6", "Melting Point": "59-61 \u00b0C"}}