{"cas_no": "22929-52-8", "cn_name": "\u4e8c\u6c22-3(2H)-\u544b\u5583\u916e", "en_name": ["3-Oxotetrahydrofuran", "3(2H)-Furanone, dihydro-", "Dihydro-3(2H)-furanone", "3-Oxotetrahydrofuran", "Oxolan-3-one", "Dihydrofuran-3-one", "4,5-Dihydro-3(2H)-furanone", "Dihydrofuran-3(2H)-one"], "SMILES": "O=C1CCOC1", "physical_data": {"Molecular Weight": "86.09", "Molecular Formula": "C4H6O2", "Boiling Point": "92-94 \u00b0C @ Press: 15 Torr", "Density": "1.1124 g/cm\u00b3 @ Temp: 420 \u00b0C"}}