{"cas_no": "22921-72-8", "cn_name": "5-\u82ef\u6c27\u57fa\u620a\u57fa\u6eb4", "en_name": ["[(5-Bromopentyl)oxy]benzene", "Benzene, [(5-bromopentyl)oxy]-", "Ether, 5-bromopentyl phenyl", "[(5-Bromopentyl)oxy]benzene", "5-Phenoxypentyl bromide", "5-Bromopentyl phenyl ether", "1-Bromo-5-phenoxypentane", "5-Phenoxy-1-bromopentane"], "SMILES": "O(CCCCCBr)C1=CC=CC=C1", "physical_data": {"Molecular Weight": "243.14", "Molecular Formula": "C11H15BrO", "Boiling Point": "160-165 \u00b0C @ Press: 11 Torr"}}