{"cas_no": "2292-79-7", "cn_name": "\u53cc\u91d1\u521a\u70f7", "en_name": ["Diamantane", "3,5,1,7-[1,2,3,4]Butanetetraylnaphthalene, decahydro-", "Decahydro-3,5,1,7-[1,2,3,4]butanetetraylnaphthalene", "Pentacyclo[7.3.1.14,12.02,7.06,11]tetradecane", "Congressane", "Diamantane", "[6]Diadamantane", "Diadamantane"], "SMILES": "C12C3C4C5C(C1CC(C3)C5)CC(C2)C4", "physical_data": {"Molecular Weight": "188.31", "Molecular Formula": "C14H20", "Melting Point": "244 \u00b0C"}}