{"cas_no": "22921-68-2", "cn_name": "2-\u6eb4-5-\u7532\u6c27\u57fa\u82ef\u7532\u9178", "en_name": ["2-Bromo-5-methoxybenzoic acid", "Benzoic acid, 2-bromo-5-methoxy-", "m-Anisic acid, 6-bromo-", "2-Bromo-5-methoxybenzoic acid", "5-Methoxy-2-bromobenzoic acid", "2-Bromo-5-(methyloxy)benzoic acid"], "SMILES": "C(O)(=O)C1=CC(OC)=CC=C1Br", "physical_data": {"Molecular Weight": "231.04", "Molecular Formula": "C8H7BrO3", "Melting Point": "161-162 \u00b0C"}}