{"cas_no": "22936-75-0", "cn_name": "\u5f02\u620a\u4e59\u51c0", "en_name": ["Dimethametryn", "1,3,5-Triazine-2,4-diamine, N2-(1,2-dimethylpropyl)-N4-ethyl-6-(methylthio)-", "s-Triazine, 2-[(1,2-dimethylpropyl)amino]-4-(ethylamino)-6-(methylthio)-", "1,3,5-Triazine-2,4-diamine, N-(1,2-dimethylpropyl)-N\u2032-ethyl-6-(methylthio)-", "N2-(1,2-Dimethylpropyl)-N4-ethyl-6-(methylthio)-1,3,5-triazine-2,4-diamine", "C 18898", "2-(1\u2032,2\u2032-Dimethylpropylamino)-4-ethylamino-6-methylthio-1,3,5-triazine", "4-(1,2-Dimethylpropylamino)-2-ethylamino-6-methylthiotriazine", "Dimethametorin", "Dimethametryn", "2-[(1,2-Dimethylpropyl)amino]-4-(ethylamino)-6-(methylthio)-s-triazine", "2-(1,2-Dimethylpropylamino)-4-ethylamino-6-methylthio-1,3,5-triazine", "2-Ethylamino-4-(1,2-dimethylpropylamino)-6-methylthio-s-triazine", "Belclene 310", "CG 7103", "2-Ethylamino-4-(1,2-dimethylpropylamino)-6-methylthio-1,3,5-triazine"], "SMILES": "N(C(C(C)C)C)C=1N=C(NCC)N=C(SC)N1", "physical_data": {"Molecular Weight": "255.38", "Molecular Formula": "C11H21N5S", "Boiling Point": "152 \u00b0C", "Melting Point": "65 \u00b0C"}}