{"cas_no": "22936-83-0", "cn_name": "1-\u7532\u57fa\u73af\u4e19\u80fa", "en_name": ["1-Methylcyclopropanamine", "Cyclopropanamine, 1-methyl-", "Cyclopropylamine, 1-methyl-", "1-Methylcyclopropanamine", "1-Methylcyclopropylamine", "1-Amino-1-methylcyclopropane", "1-Methylcyclopropan-1-amine"], "SMILES": "CC1(N)CC1", "physical_data": {"Molecular Weight": "71.12", "Molecular Formula": "C4H9N", "Boiling Point": "58-60 \u00b0C"}}