{"cas_no": "22936-86-3", "cn_name": "\u73af\u4e19\u6d25", "en_name": ["Cyprazine", "1,3,5-Triazine-2,4-diamine, 6-chloro-N2-cyclopropyl-N4-(1-methylethyl)-", "s-Triazine, 2-chloro-4-(cyclopropylamino)-6-(isopropylamino)-", "1,3,5-Triazine-2,4-diamine, 6-chloro-N-cyclopropyl-N\u2032-(1-methylethyl)-", "6-Chloro-N2-cyclopropyl-N4-(1-methylethyl)-1,3,5-triazine-2,4-diamine", "S 6115", "2-Chloro-4-cyclopropylamino-6-isopropylamino-s-triazine", "Cyprozine", "Outfox", "Cyprazine", "2-Chloro-4-isopropylamino-6-cyclopropylamino-s-triazine", "K 6295", "2-Chloro-4-isopropylamino-6-cyclopropylamino-1,3,5-triazine"], "SMILES": "N(C=1N=C(NC(C)C)N=C(Cl)N1)C2CC2", "physical_data": {"Molecular Weight": "227.69", "Molecular Formula": "C9H14ClN5", "Melting Point": "167 \u00b0C", "Density": "1.24 g/cm\u00b3"}}