{"cas_no": "2293-07-4", "cn_name": "\u5bf9\u7532\u6c27\u57fa\u82ef\u57fa\u786b\u8132", "en_name": ["(4-Methoxyphenyl)thiourea", "Thiourea, N-(4-methoxyphenyl)-", "Urea, 1-(p-methoxyphenyl)-2-thio-", "Thiourea, (4-methoxyphenyl)-", "N-(4-Methoxyphenyl)thiourea", "N-(p-Methoxyphenyl)thiourea", "(p-Methoxyphenyl)thiourea", "(4-Methoxyphenyl)thiourea", "p-Anisylthiourea", "N-p-Anisylthiourea", "1-(4-Methoxyphenyl)thiourea", "4-Thioureidoanisole", "1-(p-Methoxyphenyl)thiourea", "NSC 402583", "NSC 79869"], "SMILES": "N(C(N)=S)C1=CC=C(OC)C=C1", "physical_data": {"Molecular Weight": "182.24", "Molecular Formula": "C8H10N2OS", "Melting Point": "208 \u00b0C"}}