{"cas_no": "2294-38-4", "cn_name": "1-\u4e59\u57fa\u6c2f\u5316\u5421\u5576", "en_name": ["Ethylpyridinium chloride", "Pyridinium, 1-ethyl-, chloride (1:1)", "Pyridinium, 1-ethyl-, chloride", "1-Ethylpyridinium chloride", "Ethylpyridinium chloride", "N-Ethylpyridinium chloride"], "SMILES": "C(C)[N+]=1C=CC=CC1.[Cl-]", "physical_data": {"Molecular Weight": "", "Molecular Formula": "C7H10N.Cl", "Melting Point": "100 \u00b0C"}}