{"cas_no": "22948-06-7", "cn_name": "4-\u4e09\u7532\u57fa\u82ef\u80fa", "en_name": ["p-Tritylaniline", "Benzenamine, 4-(triphenylmethyl)-", "p-Toluidine, \u03b1,\u03b1,\u03b1-triphenyl-", "4-(Triphenylmethyl)benzenamine", "Triphenyl(p-aminophenyl)methane", "p-Aminotetraphenylmethane", "p-Tritylaniline", "4-(Triphenylmethyl)aniline", "1-Amino-4-(triphenylmethyl)benzene", "\u03b1,\u03b1,\u03b1-Triphenyl-p-toluidine", "4-(Trityl)aniline", "NSC 2085", "4-(Aminophenyl)triphenylmethane"], "SMILES": "C(C1=CC=C(N)C=C1)(C2=CC=CC=C2)(C3=CC=CC=C3)C4=CC=CC=C4", "physical_data": {"Molecular Weight": "335.44", "Molecular Formula": "C25H21N", "Melting Point": "250 \u00b0C"}}