{"cas_no": "22948-94-3", "cn_name": "N-\u5df2\u9170\u57fa\u5432\u54da-3-\u7532\u919b", "en_name": ["1-Acetylindole-3-carboxaldehyde", "1H-Indole-3-carboxaldehyde, 1-acetyl-", "Indole-3-carboxaldehyde, 1-acetyl-", "1-Acetyl-1H-indole-3-carboxaldehyde", "1-Acetylindole-3-carboxaldehyde", "N-Acetyl-1H-indole-3-carboxaldehyde", "N-Acetylindol-3-carboxaldehyde", "NSC 61289", "N-Acetyl-3-indolecarboxaldehyde", "1-Acetyl-3-formyl-1H-indole", "1-Acetyl-3-formylindole", "1-Acetyl-1H-indole-3-carbaldehyde", "1-Acetylindole-3-carbaldehyde"], "SMILES": "C(C)(=O)N1C=2C(C(C=O)=C1)=CC=CC2", "physical_data": {"Molecular Weight": "187.19", "Molecular Formula": "C11H9NO2", "Melting Point": "159-162 \u00b0C"}}