{"cas_no": "2294-76-0", "cn_name": "2-\u620a\u57fa\u5421\u5576", "en_name": ["2-Pentylpyridine", "Pyridine, 2-pentyl-", "2-Pentylpyridine", "NSC 4693"], "SMILES": "C(CCCC)C1=CC=CC=N1", "physical_data": {"Molecular Weight": "149.23", "Molecular Formula": "C10H15N", "Boiling Point": "206.5-207.0 \u00b0C", "Density": "0.9016 g/cm\u00b3 @ Temp: 20 \u00b0C"}}