{"cas_no": "22948-02-3", "cn_name": "3-\u6c28\u57fa\u82ef\u786b\u915a", "en_name": ["3-Aminothiophenol", "Benzenethiol, 3-amino-", "Benzenethiol, m-amino-", "3-Aminobenzenethiol", "3-Aminothiophenol", "m-Aminothiophenol", "3-Mercaptoaniline", "m-Aminobenzenethiol", "3-Aminobenzene-1-thiol"], "SMILES": "NC1=CC(S)=CC=C1", "physical_data": {"Molecular Weight": "125.19", "Molecular Formula": "C6H7NS", "Boiling Point": "180-190 \u00b0C @ Press: 16 Torr"}}