{"cas_no": "22940-86-9", "cn_name": "1-(3,5-\u4e8c\u7532\u57fa\u544b\u5583-2-\u57fa)\u4e59\u916e", "en_name": ["1-(3,5-Dimethyl-2-furanyl)ethanone", "Ethanone, 1-(3,5-dimethyl-2-furanyl)-", "Ketone, 3,5-dimethyl-2-furyl methyl", "1-(3,5-Dimethyl-2-furanyl)ethanone", "2-Acetyl-3,5-dimethylfuran", "1-(3,5-Dimethylfuran-2-yl)ethan-1-one"], "SMILES": "C(C)(=O)C=1OC(C)=CC1C", "physical_data": {"Molecular Weight": "138.16", "Molecular Formula": "C8H10O2", "Boiling Point": "195 \u00b0C @ Press: 760 Torr", "Melting Point": "18 \u00b0C", "Density": "1.035 g/cm\u00b3 @ Temp: 20 \u00b0C"}}