{"cas_no": "2295-12-7", "cn_name": "\u73af\u4e09\u4e9a\u7532\u57fa\u7845\u70f7", "en_name": ["1,1-Dimethylsilacyclobutane", "Silacyclobutane, 1,1-dimethyl-", "1,1-Dimethylsilacyclobutane", "1,1-Dimethyl-1-silacyclobutane", "1,1-Dimethylsiletane", "Cyclotrimethylenedimethylsilane", "1,1-Dimethylsilatane"], "SMILES": "C[Si]1(C)CCC1", "physical_data": {"Molecular Weight": "100.23", "Molecular Formula": "C5H12Si", "Boiling Point": "82 \u00b0C", "Melting Point": "42-45 \u00b0C", "Density": "0.775 g/cm\u00b3"}}