{"cas_no": "2295-31-0", "cn_name": "2,4-\u567b\u5511\u70f7\u4e8c\u916e", "en_name": ["Thiazolidinedione", "2,4-Thiazolidinedione", "Thiazolidinedione", "2-Thiazolin-4-one, 2-hydroxy-", "2,4-Dioxothiazolidine", "2,4(3H,5H)-Thiazoledione", "U 25560", "NSC 6745", "Thiazole-2,4-dione", "2,4-Dioxo-1,3-thiazolidine", "Thiazolidin-2,4-dione", "2-Hydroxy-4,5-dihydro-1,3-thiazol-4-one"], "SMILES": "O=C1NC(=O)SC1", "physical_data": {"Molecular Weight": "117.13", "Molecular Formula": "C3H3NO2S", "Melting Point": "128 \u00b0C"}}