{"cas_no": "22955-73-3", "cn_name": "4-\u7532\u6c27\u57fa\u95f4\u82ef\u4e8c\u7532\u9178\u4e8c\u7532\u916f", "en_name": ["1,3-Dimethyl 4-methoxy-1,3-benzenedicarboxylate", "1,3-Benzenedicarboxylic acid, 4-methoxy-, 1,3-dimethyl ester", "Isophthalic acid, 4-methoxy-, dimethyl ester", "1,3-Benzenedicarboxylic acid, 4-methoxy-, dimethyl ester", "1,3-Dimethyl 4-methoxy-1,3-benzenedicarboxylate", "Dimethyl 4-methoxyisophthalate", "4-Methoxy-1,3-benzenedicarboxylic acid dimethyl ester", "4-Methoxyisophthalic acid dimethyl ester", "2-Methoxy-1,5-benzenedicarboxylic acid dimethyl ester"], "SMILES": "C(OC)(=O)C1=C(OC)C=CC(C(OC)=O)=C1", "physical_data": {"Molecular Weight": "224.21", "Molecular Formula": "C11H12O5", "Melting Point": "96 \u00b0C"}}