{"cas_no": "2295-58-1", "cn_name": "\u592b\u6d1b\u4e19\u916e", "en_name": ["Flopropione", "1-Propanone, 1-(2,4,6-trihydroxyphenyl)-", "Propiophenone, 2\u2032,4\u2032,6\u2032-trihydroxy-", "Phloropropiophenone", "1-(2,4,6-Trihydroxyphenyl)-1-propanone", "Flopropione", "2\u2032,4\u2032,6\u2032-Trihydroxypropiophenone", "2,4,6-Trihydroxypropiophenone", "RP 13907", "Argobyl", "Cospanon", "Labroda", "Labrodax supanate", "Propiophloroglucine", "Flopropion", "Labrodax", "13907 R. P.", "Phloropropionone", "Propionylphloroglucinol", "Gallepronin", "Spasmoril", "Supazlun", "Flopion", "Spamorin", "Supanate", "Gasstenon", "Profenon", "Pasmus", "NSC 97909", "1-(2,4,6-Trihydroxyphenyl)propan-1-one"], "SMILES": "C(CC)(=O)C1=C(O)C=C(O)C=C1O", "physical_data": {"Molecular Weight": "182.17", "Molecular Formula": "C9H10O4", "Melting Point": "175.5 \u00b0C"}}