{"cas_no": "2295-35-4", "cn_name": "\u56db\u6c22\u5421\u54af-2-\u786b\u916e", "en_name": ["2-Pyrrolidinethione", "2-Pyrrolidinethione", "Thiopyrrolidone", "\u03b3-Butyrothiolactam", "Thiobutyrolactam", "2-Thiopyrrolidone", "Pyrrolidine-2(1H)-thione", "Pyrrolidine-2-thione"], "SMILES": "S=C1CCCN1", "physical_data": {"Molecular Weight": "101.17", "Molecular Formula": "C4H7NS", "Melting Point": "116 \u00b0C"}}