{"cas_no": "22961-45-1", "cn_name": "4-\u82ef\u6c28\u57fa\u5421\u5576", "en_name": ["N-Phenyl-4-pyridinamine", "4-Pyridinamine, N-phenyl-", "Pyridine, 4-anilino-", "N-Phenyl-4-pyridinamine", "4-Anilinopyridine", "4-(Phenylamino)pyridine", "N-4-Pyridylaniline", "NSC 153374"], "SMILES": "N(C1=CC=CC=C1)C=2C=CN=CC2", "physical_data": {"Molecular Weight": "170.21", "Molecular Formula": "C11H10N2", "Melting Point": "175 \u00b0C"}}