{"cas_no": "22972-51-6", "cn_name": "(1S,4R)-1-\u7532\u57fa-4-(1-\u7532\u57fa\u4e59\u70ef\u57fa)-2-\u73af\u5df1\u70ef-1-\u9187", "en_name": ["(1S,4R)-1-Methyl-4-(1-methylethenyl)-2-cyclohexen-1-ol", "2-Cyclohexen-1-ol, 1-methyl-4-(1-methylethenyl)-, (1S,4R)-", "p-Mentha-2,8-dien-1-ol, stereoisomer", "2-Cyclohexen-1-ol, 1-methyl-4-(1-methylethenyl)-, (1S-cis)-", "(1S,4R)-1-Methyl-4-(1-methylethenyl)-2-cyclohexen-1-ol", "cis-Isolimonenol", "p-Mentha-2,8-dien-1-\u03b2-ol", "(+)-cis-p-Mentha-2,8-dien-1-ol", "(+)-(1S,4R)-p-Mentha-2,8-dien-1-ol", "(+)-p-Mentha-2,8-dien-1-ol", "(1S,4R)-p-Menth-2,8-dien-1-ol"], "SMILES": "C(C)(=C)C1CCC(C)(O)C=C1", "physical_data": {"Molecular Weight": "152.23", "Molecular Formula": "C10H16O", "Boiling Point": "69-70 \u00b0C @ Press: 3 Torr", "Density": "0.9380 g/cm\u00b3 @ Temp: 20 \u00b0C"}}