{"cas_no": "22978-25-2", "cn_name": "2-\u6c2f-5-\u785d\u57fa-N-\u82ef\u57fa\u82ef\u9170\u80fa", "en_name": ["2-Chloro-5-nitrobenzanilide", "Benzamide, 2-chloro-5-nitro-N-phenyl-", "Benzanilide, 2-chloro-5-nitro-", "2-Chloro-5-nitro-N-phenylbenzamide", "2-Chloro-5-nitrobenzanilide", "GW 9662", "GW 9622"], "SMILES": "C(NC1=CC=CC=C1)(=O)C2=CC(N(=O)=O)=CC=C2Cl", "physical_data": {"Molecular Weight": "276.68", "Molecular Formula": "C13H9ClN2O3", "Melting Point": "158 \u00b0C"}}