{"cas_no": "2298-36-4", "cn_name": "4-\u80fa\u82ef\u6c27\u57fa\u4e59\u9178", "en_name": ["2-(4-Aminophenoxy)acetic acid", "Acetic acid, 2-(4-aminophenoxy)-", "Acetic acid, (p-aminophenoxy)-", "Acetic acid, (4-aminophenoxy)-", "2-(4-Aminophenoxy)acetic acid", "(p-Aminophenoxy)acetic acid", "(4-Aminophenoxy)acetic acid", "NSC 36983", "[(4-Aminophenyl)oxy]acetic acid"], "SMILES": "O(CC(O)=O)C1=CC=C(N)C=C1", "physical_data": {"Molecular Weight": "167.16", "Molecular Formula": "C8H9NO3", "Melting Point": "132 \u00b0C"}}