{"cas_no": "22984-54-9", "cn_name": "\u7532\u57fa\u4e09\u4e01\u916e\u809f\u57fa\u7845\u70f7", "en_name": ["Methyltris(methyl ethyl ketoxime)silane", "2-Butanone, 2,2\u2032,2\u2032\u2032-[O,O\u2032,O\u2032\u2032-(methylsilylidyne)trioxime]", "2-Butanone, O,O\u2032,O\u2032\u2032-(methylsilylidyne)trioxime", "O,O\u2032,O\u2032\u2032-(Methylsilylidyne)tris(ethyl methyl ketoxime)", "Methyltris(2-butylideneaminooxy)silane", "Tris(2-butylideneiminooxy)methylsilane", "Methyltri(methylethylketoxime)silane", "Methyltris(methyl ethyl ketoxime)silane", "Methyltris(ethylmethylketoxime)silane", "Methyltris(hydroxyiminobutyl)silane", "Methyltri(2-butanoneoximyl)silane", "Methyltris(2-butanoneoximato)silane", "Methyltri(methylethylketoximo)silane", "Methyltris(methyl ethyl ketoximato)silane", "Methyltri(ethylmethylketoximo)silane", "OX 10", "Methyltris(butanoxime)silane", "WD 922", "D 30", "OS 1000", "BO-Z 9075", "Silane BO-Z 9075", "LMD 923", "DB 8033", "D 31 (crosslinking agent)", "Methyltris(methyl ethyl ketoximino)silane", "CG 310", "WD 923", "MTO(MOS)", "KBR 336", "D 31", "Andisil MOS"], "SMILES": "[Si](ON=C(CC)C)(ON=C(CC)C)(ON=C(CC)C)C", "physical_data": {"Molecular Weight": "301.46", "Molecular Formula": "C13H27N3O3Si", "Boiling Point": "110-111 \u00b0C @ Press: 2 Torr", "Melting Point": "-22 \u00b0C", "Density": "0.982 g/cm\u00b3"}}