{"cas_no": "22987-10-6", "cn_name": "N-\u4e19\u9170\u57fa-1,3-\u82ef\u4e8c\u80fa", "en_name": ["N-(3-Aminophenyl)propanamide", "Propanamide, N-(3-aminophenyl)-", "N-(3-Aminophenyl)propanamide", "3\u2032-Aminopropionanilide", "m-Aminopropionanilide", "N-(3-Aminophenyl)propionamide"], "SMILES": "N(C(CC)=O)C1=CC(N)=CC=C1", "physical_data": {"Molecular Weight": "164.20", "Molecular Formula": "C9H12N2O", "Melting Point": "56 \u00b0C"}}