{"cas_no": "2298-07-9", "cn_name": "4-\u6eb4-1-\u8418\u80fa", "en_name": ["1-Amino-4-bromonaphthalene", "1-Naphthalenamine, 4-bromo-", "1-Naphthylamine, 4-bromo-", "4-Bromo-1-naphthalenamine", "4-Bromo-1-naphthylamine", "1-Amino-4-bromonaphthalene", "NSC 120524", "NSC 16028", "4-Bromo-1-naphthalenemine", "1-Bromo-4-aminonaphthalene", "(4-Bromonaphthalen-1-yl)amine"], "SMILES": "BrC=1C2=C(C(N)=CC1)C=CC=C2", "physical_data": {"Molecular Weight": "222.08", "Molecular Formula": "C10H8BrN", "Melting Point": "100-103 \u00b0C"}}