{"cas_no": "22980-09-2", "cn_name": "\u5432\u54da-3-\u4e59\u919b\u9170\u6c2f", "en_name": ["\u03b1-Oxo-1H-indole-3-acetyl chloride", "1H-Indole-3-acetyl chloride, \u03b1-oxo-", "Indole-3-glyoxyloyl chloride", "\u03b1-Oxo-1H-indole-3-acetyl chloride", "3-Indoleglyoxylyl chloride", "2-(3-Indolyl)-2-oxoacetyl chloride", "NSC 128332", "(1H-Indol-3-yl)oxoacetyl chloride", "2-(1H-Indol-3-yl)-2-oxoacetyl chloride", "3-Indolylglyoxylyl chloride"], "SMILES": "C(C(Cl)=O)(=O)C=1C=2C(NC1)=CC=CC2", "physical_data": {"Molecular Weight": "207.61", "Molecular Formula": "C10H6ClNO2", "Melting Point": "129 \u00b0C"}}