{"cas_no": "22996-18-5", "cn_name": "4-\u6c2f-2-\u785d\u57fa\u82ef\u7532\u9187", "en_name": ["4-Chloro-2-nitrobenzenemethanol", "Benzenemethanol, 4-chloro-2-nitro-", "Benzyl alcohol, 4-chloro-2-nitro-", "4-Chloro-2-nitrobenzenemethanol", "4-Chloro-2-nitrobenzyl alcohol", "(4-Chloro-2-nitrophenyl)methanol"], "SMILES": "N(=O)(=O)C1=C(CO)C=CC(Cl)=C1", "physical_data": {"Molecular Weight": "187.58", "Molecular Formula": "C7H6ClNO3", "Melting Point": "72 \u00b0C"}}