{"cas_no": "22994-85-0", "cn_name": "\u82c4\u54d2\u5511", "en_name": ["Benznidazole", "1H-Imidazole-1-acetamide, 2-nitro-N-(phenylmethyl)-", "Imidazole-1-acetamide, N-benzyl-2-nitro-", "2-Nitro-N-(phenylmethyl)-1H-imidazole-1-acetamide", "Ro 07-1051", "Benznidazole", "Ro 71051", "N-Benzyl-2-nitroimidazol-1-yl-acetamide", "Radanil", "Benzonidazole", "Benzonidazol", "Benznidazol", "Rochagan", "NSC 299972"], "SMILES": "C(C(NCC1=CC=CC=C1)=O)N2C(N(=O)=O)=NC=C2", "physical_data": {"Molecular Weight": "260.25", "Molecular Formula": "C12H12N4O3", "Melting Point": "189 \u00b0C"}}