{"cas_no": "2299-73-2", "cn_name": "4-\u7532\u6c27\u57fa\u4e8c\u6c2e\u82ef\u7532\u919b", "en_name": ["4-Methoxybenzaldehyde azine", "Benzaldehyde, 4-methoxy-, 2-[(4-methoxyphenyl)methylene]hydrazone", "p-Anisaldehyde, azine", "Benzaldehyde, 4-methoxy-, [(4-methoxyphenyl)methylene]hydrazone", "p-Anisalazine", "Anisaldazine", "p-Anisaldazine", "Anisalazine", "p-Methoxybenzaldehyde azine", "p-Methoxybenzaldazine", "4,4\u2032-Dimethoxybenzylideneazine", "4-Methoxybenzalazine", "4-Methoxybenzaldehyde azine", "NSC 1987", "4-Methoxybenzaldehyde [(4-methoxyphenyl)methylene]hydrazone", "4,4\u2032-Dimethoxybenzaldazine", "1,2-Bis(4-methoxybenzylidene)hydrazine"], "SMILES": "C(=NN=CC1=CC=C(OC)C=C1)C2=CC=C(OC)C=C2", "physical_data": {"Molecular Weight": "268.31", "Molecular Formula": "C16H16N2O2", "Melting Point": "165 \u00b0C"}}