{"cas_no": "22990-77-8", "cn_name": "2-\u6c28\u7532\u57fa\u54cc\u5576", "en_name": ["2-Piperidinemethanamine", "2-Piperidinemethanamine", "Piperidine, 2-(aminomethyl)-", "2-(Aminomethyl)piperidine", "Piperidin-2-ylmethanamine", "1-(Piperidin-2-yl)methanamine"], "SMILES": "C(N)C1CCCCN1", "physical_data": {"Molecular Weight": "114.19", "Molecular Formula": "C6H14N2", "Boiling Point": "80-81 \u00b0C @ Press: 18 Torr"}}