{"cas_no": "22996-21-0", "cn_name": "4-\u7532\u6c27\u57fa-2-\u785d\u57fa-\u82ef\u7532\u919b", "en_name": ["4-Methoxy-2-nitrobenzaldehyde", "Benzaldehyde, 4-methoxy-2-nitro-", "p-Anisaldehyde, 2-nitro-", "4-Methoxy-2-nitrobenzaldehyde", "2-Nitro-4-methoxybenzaldehyde", "NSC 617208"], "SMILES": "N(=O)(=O)C1=C(C=O)C=CC(OC)=C1", "physical_data": {"Molecular Weight": "181.15", "Molecular Formula": "C8H7NO4", "Melting Point": "95.5-96 \u00b0C"}}