{"cas_no": "22996-24-3", "cn_name": "4-METHYL-2-NITROBENZYLALCOHOL", "en_name": ["4-Methyl-2-nitrobenzenemethanol", "Benzenemethanol, 4-methyl-2-nitro-", "Benzyl alcohol, 4-methyl-2-nitro-", "4-Methyl-2-nitrobenzenemethanol", "4-Methyl-2-nitrobenzyl alcohol", "(4-Methyl-2-nitrophenyl)methanol", "2-Nitro-4-methylbenzyl alcohol"], "SMILES": "N(=O)(=O)C1=C(CO)C=CC(C)=C1", "physical_data": {"Molecular Weight": "167.16", "Molecular Formula": "C8H9NO3", "Melting Point": "86-87 \u00b0C"}}