{"cas_no": "230-07-9", "cn_name": "4,7-\u83f2\u6d1b\u6797", "en_name": ["4,7-Phenanthroline", "4,7-Phenanthroline", "Pseudophenanthroline", "5,6,3\u2032,2\u2032-Pyridoquinoline", "Pyrido[3,2-f]quinoline", "p-Phenanthroline", "1,8-Diazaphenanthrene", "NSC 35680"], "SMILES": "C12=C3C(=CC=C1N=CC=C2)N=CC=C3", "physical_data": {"Molecular Weight": "180.21", "Molecular Formula": "C12H8N2", "Melting Point": "177 \u00b0C"}}