{"cas_no": "230-27-3", "cn_name": "7\uff0c8-\u82ef\u5e76\u55b9\u5549", "en_name": ["Benzo[h]quinoline", "Benzo[h]quinoline", "4-Azaphenanthrene", "7,8-Benzoquinoline", "\u03b1-Naphthoquinoline", "\u03b1-Benzoquinoline", "7,8-Benzo[h]quinoline", "NSC 16033"], "SMILES": "C12=C3C(=CC=C1C=CC=C2)C=CC=N3", "physical_data": {"Molecular Weight": "179.22", "Molecular Formula": "C13H9N", "Boiling Point": "339 \u00b0C", "Melting Point": "52 \u00b0C"}}