{"cas_no": "230-17-1", "cn_name": "\u82ef\u5e76[c]\u564c\u5549", "en_name": ["Benzo[c]cinnoline", "Benzo[c]cinnoline", "9,10-Diazaphenanthrene", "Diphenylenazone", "3,4-Benzocinnoline", "Phenazone (three-ring system)", "5,6-Phenanthroline", "2,2\u2032-Azobiphenyl", "Phenazone", "5,6-Diazaphenanthrene", "NSC 86935"], "SMILES": "C12=C3C(=NN=C1C=CC=C2)C=CC=C3", "physical_data": {"Molecular Weight": "180.21", "Molecular Formula": "C12H8N2", "Melting Point": "158 \u00b0C", "Density": "1.307 g/cm\u00b3 @ Temp: 20 \u00b0C"}}