{"cas_no": "230-46-6", "cn_name": "1,7-\u83f2\u5570\u5549", "en_name": ["1,7-Phenanthroline", "1,7-Phenanthroline", "m-Phenanthroline", "4,10-Phenanthroline", "Pyrido[2,3-f]quinoline", "1,5-Diazaphenanthrene", "NSC 35679"], "SMILES": "C12=C3C(=CC=C1N=CC=C2)C=CC=N3", "physical_data": {"Molecular Weight": "180.21", "Molecular Formula": "C12H8N2", "Boiling Point": "360 \u00b0C", "Melting Point": "78 \u00b0C"}}