{"cas_no": "23000-15-9", "cn_name": "2,5-\u4e8c\u4e59\u57fa-1,3-\u5641\u5511-4-\u7fa7\u9178\u4e59\u916f", "en_name": ["Ethyl 2,5-dimethyl-4-oxazolecarboxylate", "4-Oxazolecarboxylic acid, 2,5-dimethyl-, ethyl ester", "Ethyl 2,5-dimethyl-4-oxazolecarboxylate"], "SMILES": "C(OCC)(=O)C1=C(C)OC(C)=N1", "physical_data": {"Molecular Weight": "169.18", "Molecular Formula": "C8H11NO3", "Boiling Point": "117 \u00b0C @ Press: 11 Torr"}}