{"cas_no": "23007-85-4", "cn_name": "1-\u7532\u57fa-4-\u82ef\u57fa-1,2,3,6-\u56db\u6c22\u5421\u5576\u76d0\u9178\u76d0", "en_name": ["Pyridine, 1,2,3,6-tetrahydro-1-methyl-4-phenyl-, hydrochloride (1:1)", "Pyridine, 1,2,3,6-tetrahydro-1-methyl-4-phenyl-, hydrochloride (1:1)", "Pyridine, 1,2,3,6-tetrahydro-1-methyl-4-phenyl-, hydrochloride", "1-Methyl-4-phenyl-1,2,3,6-tetrahydropyridine hydrochloride"], "SMILES": "CN1CCC(=CC1)C2=CC=CC=C2.Cl", "physical_data": {"Molecular Weight": "", "Molecular Formula": "C12H15N.ClH", "Melting Point": "241-243 \u00b0C"}}