{"cas_no": "23008-56-2", "cn_name": "4-\u6c2f-2'-\u785d\u57fa\u8054\u82ef\u80fa", "en_name": ["N-(4-Chlorophenyl)-2-nitrobenzenamine", "Benzenamine, N-(4-chlorophenyl)-2-nitro-", "Diphenylamine, 4\u2032-chloro-2-nitro-", "Diphenylamine, 4-chloro-2\u2032-nitro-", "N-(4-Chlorophenyl)-2-nitrobenzenamine", "4\u2032-Chloro-2-nitrodiphenylamine", "4-Chloro-2\u2032-nitrodiphenylamine", "4-Chloro-N-(2-nitrophenyl)benzenamine", "2-(4-Chlorophenylamino)-1-nitrobenzene", "C.I. Disperse Yellow 22", "Disperse Yellow 22", "C.I. 10336", "N-(4-Chlorophenyl)-2-nitroaniline", "2-(4-Chlorophenylamino)nitrobenzene"], "SMILES": "N(C1=C(N(=O)=O)C=CC=C1)C2=CC=C(Cl)C=C2", "physical_data": {"Molecular Weight": "248.67", "Molecular Formula": "C12H9ClN2O2", "Melting Point": "145-146 \u00b0C"}}