{"cas_no": "23012-13-7", "cn_name": "\u5511-4-\u7fa7\u9178", "en_name": ["4-Oxazolecarboxylic acid", "4-Oxazolecarboxylic acid", "4-Carboxyoxazole", "1,3-Oxazole-4-carboxylic acid"], "SMILES": "C(O)(=O)C1=COC=N1", "physical_data": {"Molecular Weight": "113.07", "Molecular Formula": "C4H3NO3", "Melting Point": "142 \u00b0C"}}