{"cas_no": "2301-52-2", "cn_name": "\u915e\u9170-DL-\u8c37\u6c28\u9178", "en_name": ["2-(1,3-Dihydro-1,3-dioxo-2H-isoindol-2-yl)pentanedioic acid", "Pentanedioic acid, 2-(1,3-dihydro-1,3-dioxo-2H-isoindol-2-yl)-", "Glutaric acid, 2-phthalimido-", "2-(1,3-Dihydro-1,3-dioxo-2H-isoindol-2-yl)pentanedioic acid", "2-Phthalimidoglutaric acid", "Ba 2733", "DL-2-Phthalimidoglutaric acid", "2-Phthalimido-DL-glutaric acid", "NSC 120849", "NSC 43131", "2-(1,3-Dioxo-2,3-dihydro-1H-isoindol-2-yl)pentanedioic acid", "2-(1,3-Dioxoisoindol-2-yl)pentanedioic acid", "2-(1,3-Dioxoisoindolin-2-yl)pentanedioic acid"], "SMILES": "C(CCC(O)=O)(C(O)=O)N1C(=O)C=2C(C1=O)=CC=CC2", "physical_data": {"Molecular Weight": "277.23", "Molecular Formula": "C13H11NO6", "Melting Point": "189-190 \u00b0C"}}