{"cas_no": "23013-84-5", "cn_name": "\u7518\u8349\u915a", "en_name": ["Glycyrol", "6H-Benzofuro[3,2-c][1]benzopyran-6-one, 3,9-dihydroxy-1-methoxy-2-(3-methyl-2-buten-1-yl)-", "6H-Benzofuro[3,2-c][1]benzopyran-6-one, 3,9-dihydroxy-1-methoxy-2-(3-methyl-2-butenyl)-", "3,9-Dihydroxy-1-methoxy-2-(3-methyl-2-buten-1-yl)-6H-benzofuro[3,2-c][1]benzopyran-6-one", "Glycyrol", "Neoglycyrol", "Neoglycerol"], "SMILES": "O(C)C1=C2C3=C(C=4C(O3)=CC(O)=CC4)C(=O)OC2=CC(O)=C1CC=C(C)C", "physical_data": {"Molecular Weight": "366.36", "Molecular Formula": "C21H18O6", "Melting Point": "263.5-265 \u00b0C"}}