{"cas_no": "23012-17-1", "cn_name": "2-\u7532\u57fa\u6076\u5511-4-\u7fa7\u9178", "en_name": ["2-Methyloxazole-4-carboxylic acid", "4-Oxazolecarboxylic acid, 2-methyl-", "2-Methyl-4-oxazolecarboxylic acid", "2-Methyloxazole-4-carboxylic acid", "2-Methyl-1,3-oxazole-4-carboxylic acid", "2-Methyl-1,3-oxazol-4-carboxylic acid"], "SMILES": "C(O)(=O)C=1N=C(C)OC1", "physical_data": {"Molecular Weight": "127.10", "Molecular Formula": "C5H5NO3", "Melting Point": "183-184 \u00b0C (decomp)"}}