{"cas_no": "23012-30-8", "cn_name": "ETHYL 2,4-DIMETHYLOXAZOLE-5-CARBOXYLATE", "en_name": ["2,4-Dimethyloxazole-5-carboxylic acid ethyl ester", "5-Oxazolecarboxylic acid, 2,4-dimethyl-, ethyl ester", "Ethyl 2,4-dimethyl-5-oxazolecarboxylate", "NSC 238862", "2,4-Dimethyloxazole-5-carboxylic acid ethyl ester"], "SMILES": "C(OCC)(=O)C1=C(C)N=C(C)O1", "physical_data": {"Molecular Weight": "169.18", "Molecular Formula": "C8H11NO3", "Boiling Point": "98-103 \u00b0C @ Press: 4 Torr", "Melting Point": "55-56 \u00b0C"}}