{"cas_no": "23012-16-0", "cn_name": "2-\u82ef\u57fa-4-\u6076\u5511\u7fa7\u9178", "en_name": ["2-Phenyloxazole-4-carboxylic acid", "4-Oxazolecarboxylic acid, 2-phenyl-", "2-Phenyl-4-oxazolecarboxylic acid", "2-Phenyloxazole-4-carboxylic acid", "2-Phenyl-1,3-oxazole-4-carboxylic acid"], "SMILES": "C(O)(=O)C=1N=C(OC1)C2=CC=CC=C2", "physical_data": {"Molecular Weight": "189.17", "Molecular Formula": "C10H7NO3", "Melting Point": "210 \u00b0C"}}