{"cas_no": "2301-25-9", "cn_name": "1-(4-\u785d\u57fa\u82ef)-1H-\u54aa\u5511", "en_name": ["1-(4-Nitrophenyl)-1H-imidazole", "1H-Imidazole, 1-(4-nitrophenyl)-", "Imidazole, 1-(p-nitrophenyl)-", "1-(4-Nitrophenyl)-1H-imidazole", "1-(p-Nitrophenyl)imidazole", "1-(4-Nitrophenyl)imidazole", "4-(Imidazol-1-yl)nitrobenzene", "4-(1H-Imidazol-1-yl)-1-nitrobenzene"], "SMILES": "N(=O)(=O)C1=CC=C(C=C1)N2C=CN=C2", "physical_data": {"Molecular Weight": "189.17", "Molecular Formula": "C9H7N3O2", "Melting Point": "195-198 \u00b0C"}}