{"cas_no": "23012-14-8", "cn_name": "4-\u6076\u5511\u7532\u9178\u4e59\u916f", "en_name": ["Ethyl oxazole-4-carboxylate", "4-Oxazolecarboxylic acid, ethyl ester", "Ethyl 1,3-oxazole-4-carboxylate", "Ethyl oxazole-4-carboxylate", "4-(Ethoxycarbonyl)oxazole"], "SMILES": "C(OCC)(=O)C1=COC=N1", "physical_data": {"Molecular Weight": "141.12", "Molecular Formula": "C6H7NO3", "Boiling Point": "101-102 \u00b0C @ Press: 14 Torr", "Melting Point": "47-49 \u00b0C"}}