{"cas_no": "23023-13-4", "cn_name": "1-(3,4-\u4e8c\u4e9a\u7532\u6c27\u57fa)\u82ef\u57fa-2-\u4e01\u916e", "en_name": ["1-(1,3-Benzodioxol-5-yl)-2-butanone", "2-Butanone, 1-(1,3-benzodioxol-5-yl)-", "2-Butanone, 1-[3,4-(methylenedioxy)phenyl]-", "1-(1,3-Benzodioxol-5-yl)-2-butanone", "1-(Benzo[d][1,3]dioxol-5-yl)butan-2-one", "1-(2H-1,3-Benzodioxol-5-yl)butan-2-one"], "SMILES": "C(C(CC)=O)C=1C=C2C(=CC1)OCO2", "physical_data": {"Molecular Weight": "192.21", "Molecular Formula": "C11H12O3", "Boiling Point": "130-134 \u00b0C @ Press: 0.1 Torr"}}