{"cas_no": "2302-39-8", "cn_name": "4,5-\u4e8c\u7532\u57fa-1H-\u54aa\u5511", "en_name": ["4,5-Dimethyl-1H-imidazole", "1H-Imidazole, 4,5-dimethyl-", "Imidazole, 4,5-dimethyl-", "4,5-Dimethyl-1H-imidazole", "4,5-Dimethylimidazole"], "SMILES": "CC1=C(C)N=CN1", "physical_data": {"Molecular Weight": "96.13", "Molecular Formula": "C5H8N2", "Boiling Point": "165-175 \u00b0C @ Press: 11 Torr", "Melting Point": "191-192 \u00b0C"}}