{"cas_no": "2302-88-7", "cn_name": "\u4e59\u9170\u786b\u4ee3\u6c28\u57fa\u8132", "en_name": ["Acetic acid, 2-(aminothioxomethyl)hydrazide", "Acetic acid, 2-(aminothioxomethyl)hydrazide", "Semicarbazide, 1-acetyl-3-thio-", "N-Acetylthiosemicarbazide", "1-Acetylthiosemicarbazide", "Acetylthiosemicarbazide", "1-Acetyl-3-thiosemicarbazide", "NSC 202518", "2-Acetylhydrazinecarbothioamide"], "SMILES": "N(NC(N)=S)C(C)=O", "physical_data": {"Molecular Weight": "133.17", "Molecular Formula": "C3H7N3OS", "Melting Point": "157 \u00b0C"}}