{"cas_no": "230295-09-7", "cn_name": "2,3,6-\u4e09\u6c1f\u82c4\u80fa", "en_name": ["2,3,6-Trifluorobenzenemethanamine", "Benzenemethanamine, 2,3,6-trifluoro-", "2,3,6-Trifluorobenzenemethanamine", "2,3,6-Trifluorobenzylamine", "(2,3,6-Trifluorophenyl)methanamine"], "SMILES": "C(N)C1=C(F)C(F)=CC=C1F", "physical_data": {"Molecular Weight": "161.12", "Molecular Formula": "C7H6F3N", "Melting Point": "280-281 \u00b0C"}}