{"cas_no": "2302-30-9", "cn_name": "4,5-\u4e8c\u7898-1H-\u54aa\u5511", "en_name": ["4,5-Dibromo-1H-imidazole", "1H-Imidazole, 4,5-dibromo-", "Imidazole, 4,5-dibromo-", "4,5-Dibromo-1H-imidazole", "4,5-Dibromoimidazole"], "SMILES": "BrC1=C(Br)N=CN1", "physical_data": {"Molecular Weight": "225.87", "Molecular Formula": "C3H2Br2N2", "Melting Point": "225 \u00b0C"}}