{"cas_no": "2302-25-2", "cn_name": "4-\u6eb4-1H-\u54aa\u5511", "en_name": ["4-Bromoimidazole", "1H-Imidazole, 5-bromo-", "Imidazole, 4-bromo-", "1H-Imidazole, 4-bromo-", "Imidazole, 4(or 5)-bromo-", "5-Bromo-1H-imidazole", "4(or 5)-Bromoimidazole", "4-Bromoimidazole", "4-Bromo-1H-imidazole", "NSC 227280", "NSC 54254"], "SMILES": "BrC1=CN=CN1", "physical_data": {"Molecular Weight": "146.97", "Molecular Formula": "C3H3BrN2", "Melting Point": "130-131 \u00b0C"}}