{"cas_no": "230295-07-5", "cn_name": "4-\u6eb4-3-\u82ef\u57fa-5-\u4e09\u6c1f\u7532\u57fa\u5421\u5511", "en_name": ["4-Bromo-3-phenyl-5-(trifluoromethyl)-1H-pyrazole", "1H-Pyrazole, 4-bromo-3-phenyl-5-(trifluoromethyl)-", "4-Bromo-3-phenyl-5-(trifluoromethyl)-1H-pyrazole", "4-Bromo-3-phenyl-5-trifluoromethylpyrazole"], "SMILES": "BrC=1C(=NNC1C(F)(F)F)C2=CC=CC=C2", "physical_data": {"Molecular Weight": "291.07", "Molecular Formula": "C10H6BrF3N2", "Melting Point": "173-175 \u00b0C"}}