{"cas_no": "23038-36-0", "cn_name": "1-\u6eb4-4-(\u82ef\u57fa\u78fa\u9170\u57fa)\u82ef", "en_name": ["1-Bromo-4-(phenylsulfonyl)benzene", "Benzene, 1-bromo-4-(phenylsulfonyl)-", "Sulfone, p-bromophenyl phenyl", "1-Bromo-4-(phenylsulfonyl)benzene", "4-Bromophenyl phenyl sulfone", "4-(Phenylsulfonyl)bromobenzene", "NSC 220105", "p-Bromophenyl phenyl sulfone", "1-Benzenesulfonyl-4-bromobenzene", "4-Bromodiphenyl sulfone", "4-Bromophenylsulfonylbenzene", "1-(Phenylsulfonyl)-4-bromobenzene"], "SMILES": "S(=O)(=O)(C1=CC=C(Br)C=C1)C2=CC=CC=C2", "physical_data": {"Molecular Weight": "297.17", "Molecular Formula": "C12H9BrO2S", "Melting Point": "108-108.5 \u00b0C"}}