{"cas_no": "23031-25-6", "cn_name": "\u7279\u5e03\u4ed6\u6797", "en_name": ["Terbutaline", "1,3-Benzenediol, 5-[2-[(1,1-dimethylethyl)amino]-1-hydroxyethyl]-", "Benzyl alcohol, \u03b1-[(tert-butylamino)methyl]-3,5-dihydroxy-", "5-[2-[(1,1-Dimethylethyl)amino]-1-hydroxyethyl]-1,3-benzenediol", "Terbutaline", "KWD 2019", "1-(3,5-Dihydroxyphenyl)-2-(tert-butylamino)ethanol", "Brican", "Bricar", "Bricaril", "Bricyn", "Terbutalin", "(\u00b1)-Terbutaline", "AR-D 080301", "AR-DO80301", "Fasma", "Aerodur", "MeSH ID: D013726"], "SMILES": "C(CNC(C)(C)C)(O)C1=CC(O)=CC(O)=C1", "physical_data": {"Molecular Weight": "225.28", "Molecular Formula": "C12H19NO3", "Melting Point": "119-120 \u00b0C"}}