{"cas_no": "23039-28-3", "cn_name": "3-\u53d4\u4e01\u57fa\u82ef\u7532\u919b", "en_name": ["3-(1,1-Dimethylethyl)benzaldehyde", "Benzaldehyde, 3-(1,1-dimethylethyl)-", "Benzaldehyde, m-tert-butyl-", "3-(1,1-Dimethylethyl)benzaldehyde", "m-tert-Butylbenzaldehyde", "3-tert-Butylbenzaldehyde"], "SMILES": "C(C)(C)(C)C1=CC(C=O)=CC=C1", "physical_data": {"Molecular Weight": "162.23", "Molecular Formula": "C11H14O", "Boiling Point": "140-150 \u00b0C"}}