{"cas_no": "2303-01-7", "cn_name": "\u95f4\u7532\u915a\u7d2b", "en_name": ["m-Cresol purple", "Phenol, 4,4\u2032-(1,1-dioxido-3H-2,1-benzoxathiol-3-ylidene)bis[3-methyl-", "m-Cresol, 4,4\u2032-(3H-2,1-benzoxathiol-3-ylidene)di-, S,S-dioxide", "m-Cresol purple", "Phenol, 4,4\u2032-(3H-2,1-benzoxathiol-3-ylidene)bis[3-methyl-, S,S-dioxide", "o-Toluenesulfonic acid, \u03b1-hydroxy-\u03b1,\u03b1-bis(4-hydroxy-o-tolyl)-, \u03b3-sultone", "3H-2,1-Benzoxathiole, phenol deriv.", "4,4\u2032-(1,1-Dioxido-3H-2,1-benzoxathiol-3-ylidene)bis[3-methylphenol]", "Cresol purple", "m-Cresolsulfonephthalein", "Metacresol Purple", "NSC 9607", "3,3-Bis(4-hydroxy-2-methylphenyl)-3H-benzo[c][1,2]oxathiole 1,1-dioxide"], "SMILES": "CC1=C(C2(C=3C(S(=O)(=O)O2)=CC=CC3)C4=C(C)C=C(O)C=C4)C=CC(O)=C1", "physical_data": {"Molecular Weight": "382.43", "Molecular Formula": "C21H18O5S", "Melting Point": "296 \u00b0C"}}