{"cas_no": "23031-32-5", "cn_name": "\u786b\u9178\u7279\u5e03\u4ed6\u6797", "en_name": ["Terbutaline sulfate", "1,3-Benzenediol, 5-[2-[(1,1-dimethylethyl)amino]-1-hydroxyethyl]-, sulfate (2:1)", "Benzyl alcohol, \u03b1-[(tert-butylamino)methyl]-3,5-dihydroxy-, sulfate (2:1) (salt)", "1,3-Benzenediol, 5-[2-[(1,1-dimethylethyl)amino]-1-hydroxyethyl]-, sulfate (2:1) (salt)", "Terbutaline sulfate", "Terbutalin sulfate", "2-(tert-Butylamino)-1-(3,5-dihydroxyphenyl)ethanol sulfate (2:1)", "Bricanyl", "Brethine", "Brithine", "Benzyl alcohol, \u03b1-[(tert-butylamino)methyl]-3,5-dihydroxy-, sulfate (2:1) (salt), (\u00b1)-", "(\u00b1)-Terbutaline sulfate", "1,3-Benzenediol, 5-[2-[(1,1-dimethylethyl)amino]-1-hydroxyethyl]-, (\u00b1)-, sulfate (2:1) (salt)", "dl-Terbutaline sulfate", "Terbasmin", "Terbul", "Monovent", "Butaliret", "Brethaire", "(\u00b1)-Terbutaline hemisulfate", "Terbutaline hemisulphate", "Terbutaline hemisulfate"], "SMILES": "S(=O)(=O)(O)O.C(CNC(C)(C)C)(O)C1=CC(O)=CC(O)=C1", "physical_data": {"Molecular Weight": "", "Molecular Formula": "C12H19NO3.<sup>1</sup>/2H2O4S", "Melting Point": "246-248 \u00b0C"}}