{"cas_no": "2303-16-4", "cn_name": "\u71d5\u9ea6\u654c", "en_name": ["Di-allate", "Carbamothioic acid, N,N-bis(1-methylethyl)-, S-(2,3-dichloro-2-propen-1-yl) ester", "Carbamic acid, diisopropylthio-, S-(2,3-dichloroallyl) ester", "Carbamothioic acid, bis(1-methylethyl)-, S-(2,3-dichloro-2-propenyl) ester", "2,3-DCDT", "CP 15336", "Avadex", "2,3-Dichloroallyl N,N-diisopropylthiolcarbamate", "DATC", "Di-allate", "S-(2,3-Dichloroallyl) diisopropylthiocarbamate"], "SMILES": "N(C(SCC(=CCl)Cl)=O)(C(C)C)C(C)C", "physical_data": {"Molecular Weight": "270.22", "Molecular Formula": "C10H17Cl2NOS", "Boiling Point": "150 \u00b0C @ Press: 9 Torr", "Melting Point": "25-30 \u00b0C", "Density": "1.188 g/cm\u00b3 @ Temp: 25 \u00b0C"}}