{"cas_no": "23031-36-9", "cn_name": "\u7094\u4e19\u83ca\u916f", "en_name": ["Prallethrin", "Cyclopropanecarboxylic acid, 2,2-dimethyl-3-(2-methyl-1-propen-1-yl)-, 2-methyl-4-oxo-3-(2-propyn-1-yl)-2-cyclopenten-1-yl ester", "Cyclopropanecarboxylic acid, 2,2-dimethyl-3-(2-methylpropenyl)-, ester with 4-hydroxy-3-methyl-2-(2-propynyl)-2-cyclopenten-1-one, trans-(\u00b1)-", "Cyclopropanecarboxylic acid, 2,2-dimethyl-3-(2-methyl-1-propenyl)-, 2-methyl-4-oxo-3-(2-propynyl)-2-cyclopenten-1-yl ester", "Cyclopropanecarboxylic acid, 2,2-dimethyl-3-(2-methylpropenyl)-, ester with 4-hydroxy-3-methyl-2-(2-propynyl)-2-cyclopenten-1-one", "2-Cyclopenten-1-one, 4-hydroxy-3-methyl-2-(2-propynyl)-, 2,2-dimethyl-3-(2-methylpropenyl)cyclopropanecarboxylate, trans-(\u00b1)-", "S 4068", "Prallethrin", "S 4068SF", "Rethrinpropargyl", "Etoc", "Acetylene C permethrin", "Prallethrine"], "SMILES": "C(=C(C)C)C1C(C(OC2C(C)=C(CC#C)C(=O)C2)=O)C1(C)C", "physical_data": {"Molecular Weight": "300.39", "Molecular Formula": "C19H24O3", "Boiling Point": "&gt;313.5 \u00b0C", "Melting Point": "&lt;25 \u00b0C"}}