{"cas_no": "2303-17-5", "cn_name": "\u91ce\u9ea6\u754f", "en_name": ["Triallate", "Carbamothioic acid, N,N-bis(1-methylethyl)-, S-(2,3,3-trichloro-2-propen-1-yl) ester", "Carbamic acid, diisopropylthio-, S-(2,3,3-trichloroallyl) ester", "Carbamothioic acid, bis(1-methylethyl)-, S-(2,3,3-trichloro-2-propenyl) ester", "2-Propene-1-thiol, 2,3,3-trichloro-, diisopropylcarbamate", "CP 23426", "Avadex BW", "Far-Go", "Triallate", "S-2,3,3-Trichloroallyl N,N-diisopropylthiocarbamate", "Dipthal", "S-2,3,3-Trichloroallyl diisopropylthiocarbamate", "2,3,3-Trichloroallyl N,N-diisopropylthiocarbamate", "Triamyl", "NSC 379698", "Trillate", "MeSH ID: D014214"], "SMILES": "N(C(SCC(=C(Cl)Cl)Cl)=O)(C(C)C)C(C)C", "physical_data": {"Molecular Weight": "304.66", "Molecular Formula": "C10H16Cl3NOS", "Boiling Point": "117 \u00b0C @ Press: 0.3 Torr", "Melting Point": "29-30 \u00b0C", "Density": "1.273 g/cm\u00b3 @ Temp: 25 \u00b0C"}}