{"cas_no": "23031-78-9", "cn_name": "3-\u6c28\u57fa-1,2-\u82ef\u5e76\u5f02\u567b\u5511", "en_name": ["1,2-Benzisothiazol-3-amine", "1,2-Benzisothiazol-3-amine", "1,2-Benzisothiazole, 3-amino-", "3-Amino-1,2-benzisothiazole", "3-Benzisothiazoleamine", "1,2-Benzothiazol-3-amine"], "SMILES": "NC=1C=2C(=CC=CC2)SN1", "physical_data": {"Molecular Weight": "150.20", "Molecular Formula": "C7H6N2S", "Melting Point": "114 \u00b0C"}}