{"cas_no": "2304-94-1", "cn_name": "N-CBZ-beta-\u4e19\u6c28\u9178", "en_name": ["N-(Benzyloxycarbonyl)-\u03b2-alanine", "\u03b2-Alanine, N-[(phenylmethoxy)carbonyl]-", "\u03b2-Alanine, N-carboxy-, N-benzyl ester", "N-[(Phenylmethoxy)carbonyl]-\u03b2-alanine", "N-(Benzyloxycarbonyl)-\u03b2-alanine", "Carbobenzoxy-\u03b2-alanine", "N-Carbobenzoxy-\u03b2-alanine", "N-Carbobenzyloxy-\u03b2-alanine", "N-CBZ-\u03b2-alanine", "3-(Benzyloxycarbonylamino)propionic acid", "NSC 17161", "NSC 28943", "NSC 657842", "3-(Benzyloxycarbonylamino)propanoic acid", "3-[N-(Benzyloxycarbonyl)amino]propionic acid", "N-Carbobenzoyl-\u03b2-alanine", "Cbz-beta-Alanine"], "SMILES": "C(OC(NCCC(O)=O)=O)C1=CC=CC=C1", "physical_data": {"Molecular Weight": "223.23", "Molecular Formula": "C11H13NO4", "Melting Point": "106 \u00b0C"}}