{"cas_no": "23047-25-8", "cn_name": "\u6d1b\u975e\u5e15\u660e", "en_name": ["Lofepramine", "Ethanone, 1-(4-chlorophenyl)-2-[[3-(10,11-dihydro-5H-dibenz[b,f]azepin-5-yl)propyl]methylamino]-", "Acetophenone, 4\u2032-chloro-2-[[3-(10,11-dihydro-5H-dibenz[b,f]azepin-5-yl)propyl]methylamino]-", "1-(4-Chlorophenyl)-2-[[3-(10,11-dihydro-5H-dibenz[b,f]azepin-5-yl)propyl]methylamino]ethanone", "Leo 640", "5-[3-[N-Methyl-N-(p-chlorophenacyl)amino]propyl]-10,11-dihydro-5H-dibenz[b,f]azepine", "Lofepramine", "Lopramine", "Amplit", "Lomont"], "SMILES": "C(CCN(CC(=O)C1=CC=C(Cl)C=C1)C)N2C=3C(CCC=4C2=CC=CC4)=CC=CC3", "physical_data": {"Molecular Weight": "418.96", "Molecular Formula": "C26H27ClN2O", "Melting Point": "104-406 \u00b0C"}}