{"cas_no": "2304-81-6", "cn_name": "N-\u786c\u8102\u9170\u795e\u7ecf\u9798\u6c28\u9187", "en_name": ["C18-Ceramide", "Octadecanamide, N-[(1S,2R,3E)-2-hydroxy-1-(hydroxymethyl)-3-heptadecen-1-yl]-", "Octadecanamide, N-[2-hydroxy-1-(hydroxymethyl)-3-heptadecenyl]-, [R-[R*,S*-(E)]]-", "Octadecanamide, N-[2-hydroxy-1-(hydroxymethyl)-3-heptadecenyl]-, (E)-D-erythro-", "Octadecanamide, N-[(1S,2R,3E)-2-hydroxy-1-(hydroxymethyl)-3-heptadecenyl]-", "N-[(1S,2R,3E)-2-Hydroxy-1-(hydroxymethyl)-3-heptadecen-1-yl]octadecanamide", "N-Stearoyl-C18-sphingosine", "D-erythro-1,3-Dihydroxy-2-octadecanoylamido-trans-4-octadecene", "N-Stearoylsphingosine", "N-Stearoylsphingenine", "N-Stearoyl-D-sphingosine", "C18:0 Ceramide", "N-Stearoyl-D-erythro-sphingosine", "C18-Ceramide", "Ceramide (d18:1C18:0)", "N-Octadecanoylsphingosine", "Ceramide 18", "Ceramide NG", "DS-HydroCeramide"], "SMILES": "C(NC(CCCCCCCCCCCCCCCCC)=O)(C(C=CCCCCCCCCCCCCC)O)CO", "physical_data": {"Molecular Weight": "565.95", "Molecular Formula": "C36H71NO3", "Melting Point": "88-89 \u00b0C"}}