{"cas_no": "2304-30-5", "cn_name": "\u56db\u4e01\u57fa\u6c2f\u5316\u81a6", "en_name": ["Tetrabutylphosphonium chloride", "Phosphonium, tetrabutyl-, chloride (1:1)", "Phosphonium, tetrabutyl-, chloride", "Tetrabutylphosphonium chloride", "Tetra-n-butylphosphonium chloride", "Hishicolin PX 4C", "Cyphos 443P", "Cyphos 443T", "Cyphos IL 164"], "SMILES": "[P+](CCCC)(CCCC)(CCCC)CCCC.[Cl-]", "physical_data": {"Molecular Weight": "", "Molecular Formula": "C16H36P.Cl", "Melting Point": "80-83 \u00b0C"}}