{"cas_no": "2304-89-4", "cn_name": "3-\u916e\u57fa-7ALPHA,12ALPHA-\u4e8c\u7f9f\u57fa-5ALPHA-\u80c6\u70f7\u9178", "en_name": ["3-Oxocholic acid", "Cholan-24-oic acid, 7,12-dihydroxy-3-oxo-, (5\u03b2,7\u03b1,12\u03b1)-", "5\u03b2-Cholan-24-oic acid, 7\u03b1,12\u03b1-dihydroxy-3-oxo-", "5\u03b2-Cholanic acid, 7\u03b1,12\u03b1-dihydroxy-3-oxo-", "(5\u03b2,7\u03b1,12\u03b1)-7,12-Dihydroxy-3-oxocholan-24-oic acid", "7\u03b1,12\u03b1-Dihydroxy-3-keto-5\u03b2-cholanic acid", "7\u03b1,12\u03b1-Dihydroxy-3-oxocholanic acid", "7\u03b1,12\u03b1-Dihydroxy-3-oxo-5\u03b2-cholan-24-oic acid", "3-Oxo-7\u03b1,12\u03b1-dihydroxycholan-24-oic acid", "3-Oxo-7\u03b1,12\u03b1-dihydroxy-5\u03b2-cholanic acid", "7\u03b1,12\u03b1-Dihydroxy-3-oxo-5\u03b2-cholanic acid", "3-Oxocholic acid", "3-keto-7\u03b1,12\u03b1-Dihydroxy-5\u03b2-cholanic acid", "3-Oxo-7\u03b1,12\u03b1-dihydroxy-5\u03b2-cholanoic acid", "7\u03b1,12\u03b1-Dihydroxy-3-oxo-5\u03b2-cholanoic acid", "3-Ketocholic acid", "3-Dehydrocholic acid", "3-Oxo-7a,12a-dihydroxy-5b-cholanic acid"], "SMILES": "OC1C2C3C(C)(C(C(CCC(O)=O)C)CC3)C(O)CC2C4(C)C(C1)CC(=O)CC4", "physical_data": {"Molecular Weight": "406.56", "Molecular Formula": "C24H38O5", "Melting Point": "185 \u00b0C"}}