{"cas_no": "23046-03-9", "cn_name": "5,6-\u4e8c\u7532\u6c27\u57fa\u82ef\u5e76[B]\u567b\u5429-2-\u7fa7\u9178", "en_name": ["5,6-Dimethoxybenzo[b]thiophene-2-carboxylic acid", "Benzo[b]thiophene-2-carboxylic acid, 5,6-dimethoxy-", "5,6-Dimethoxybenzo[b]thiophene-2-carboxylic acid", "NSC 108922"], "SMILES": "O(C)C=1C=C2C(=CC1OC)SC(C(O)=O)=C2", "physical_data": {"Molecular Weight": "238.26", "Molecular Formula": "C11H10O4S", "Melting Point": "255-257 \u00b0C"}}