{"cas_no": "2304-96-3", "cn_name": "N-\u82c4\u6c27\u7fb0\u57fa-L-\u5929\u51ac\u9170\u80fa", "en_name": ["N2-[(Phenylmethoxy)carbonyl]-L-asparagine", "L-Asparagine, N2-[(phenylmethoxy)carbonyl]-", "Asparagine, N2-carboxy-, N2-benzyl ester, L-", "Asparagine, N2-carboxy-, N-benzyl ester", "N2-[(Phenylmethoxy)carbonyl]-L-asparagine", "Carbobenzoxy-L-asparagine", "N-(Benzyloxycarbonyl)-L-asparagine", "N-Carbobenzoxy-L-asparagine", "N2-(Benzyloxycarbonyl)-L-asparagine", "NSC 59837", "NSC 88498", "(S)-4-Amino-2-(((benzyloxy)carbonyl)amino)-4-oxobutanoic acid", "(2S)-2-[[(Benzyloxy)carbonyl]amino]-3-carbamoylpropanoic acid", "(2S)-4-Amino-4-oxo-2-(phenylmethoxycarbonylamino)butanoic acid", "N-Cbz-L-asparagine"], "SMILES": "C(OC(NC(CC(N)=O)C(O)=O)=O)C1=CC=CC=C1", "physical_data": {"Molecular Weight": "266.25", "Molecular Formula": "C12H14N2O5", "Melting Point": "165 \u00b0C"}}