{"cas_no": "2304-98-5", "cn_name": "N\u03b1-CBZ-N\u03c9-\u785d\u57fa-L-\u7cbe\u6c28\u9178", "en_name": ["N5-[Imino(nitroamino)methyl]-N2-[(phenylmethoxy)carbonyl]-L-ornithine", "L-Ornithine, N5-[imino(nitroamino)methyl]-N2-[(phenylmethoxy)carbonyl]-", "Ornithine, N2-carboxy-N5-(nitroamidino)-, N2-benzyl ester, L-", "N5-[Imino(nitroamino)methyl]-N2-[(phenylmethoxy)carbonyl]-L-ornithine", "N2-Carbobenzoxy-N\u03c9-nitro-L-arginine", "N\u03b1-(Benzyloxycarbonyl)-N\u03c9-nitroarginine", "N\u03b1-Benzyloxycarbonyl-N\u03c9-nitro-L-arginine", "N2-Benzyloxycarbonyl-NG-nitroarginine", "Benzyloxycarbonylnitro-L-arginine", "N2-Benzyloxycarbonyl-NG-nitro-L-arginine", "N\u03b1-Benzyloxycarbonyl-NG-nitroarginine"], "SMILES": "C(OC(NC(CCCNC(NN(=O)=O)=N)C(O)=O)=O)C1=CC=CC=C1", "physical_data": {"Molecular Weight": "353.33", "Molecular Formula": "C14H19N5O6", "Melting Point": "132-134 \u00b0C"}}