{"cas_no": "2305-25-1", "cn_name": "3-\u7f9f\u57fa\u5df1\u9178\u4e59\u916f", "en_name": ["(\u00b1)-Ethyl 3-Hydroxyhexanoate", "Hexanoic acid, 3-hydroxy-, ethyl ester", "Caproic acid, \u03b2-hydroxy-, ethyl ester", "Ethyl 3-hydroxyhexanoate", "(\u00b1)-Ethyl 3-Hydroxyhexanoate", "3-Hydroxy-hexanoic acid ethyl ester"], "SMILES": "C(CC(OCC)=O)(CCC)O", "physical_data": {"Molecular Weight": "160.21", "Molecular Formula": "C8H16O3", "Boiling Point": "95 \u00b0C @ Press: 12 Torr"}}