{"cas_no": "2305-37-5", "cn_name": "3-\u6c28\u57fa-5-\u7532\u57fa\u82ef\u7532\u9178", "en_name": ["3-Amino-5-methylbenzoic acid", "Benzoic acid, 3-amino-5-methyl-", "m-Toluic acid, 5-amino-", "3-Amino-5-methylbenzoic acid", "5-Amino-m-toluic acid"], "SMILES": "C(O)(=O)C1=CC(C)=CC(N)=C1", "physical_data": {"Molecular Weight": "151.16", "Molecular Formula": "C8H9NO2", "Melting Point": "183-184 \u00b0C"}}