{"cas_no": "2305-70-6", "cn_name": "4-\u7f9f\u57fa\u55b9\u5549-3-\u7532\u8148", "en_name": ["4-Hydroxy-3-quinolinecarbonitrile", "3-Quinolinecarbonitrile, 4-hydroxy-", "4-Hydroxy-3-quinolinecarbonitrile"], "SMILES": "OC=1C2=C(N=CC1C#N)C=CC=C2", "physical_data": {"Molecular Weight": "170.17", "Molecular Formula": "C10H6N2O", "Melting Point": "301 \u00b0C"}}