{"cas_no": "23051-44-7", "cn_name": "(3,5,5-\u4e09\u7532\u57fa\u73af\u5df1-2-\u70ef\u4e9a\u57fa)\u4e19\u4e8c\u8148", "en_name": ["2-(3,5,5-Trimethyl-2-cyclohexen-1-ylidene)propanedinitrile", "Propanedinitrile, 2-(3,5,5-trimethyl-2-cyclohexen-1-ylidene)-", "2-Cyclohexene-\u03941,\u03b1-malononitrile, 3,5,5-trimethyl-", "Propanedinitrile, (3,5,5-trimethyl-2-cyclohexen-1-ylidene)-", "2-(3,5,5-Trimethyl-2-cyclohexen-1-ylidene)propanedinitrile", "3-Dicyanomethylene-1,5,5-trimethylcyclohex-1-ene", "2-(3,5,5-Trimethylcyclohex-2-ene-1-ylidene)-1,3-propanedinitrile", "2-(3,5,5-Trimethyl-2-cyclohexenylidene)malononitrile", "NSC 174848", "(3,5,5-Trimethylcyclohex-2-enylidene)malononitrile", "3-Dicyanomethylidene-1,5,5-trimethylcyclohexene", "2-(3,5,5-Trimethylcyclohex-2-en-1-ylidene)malononitrile"], "SMILES": "C(C#N)(C#N)=C1CC(C)(C)CC(C)=C1", "physical_data": {"Molecular Weight": "186.25", "Molecular Formula": "C12H14N2", "Boiling Point": "175-176 \u00b0C @ Press: 19 Torr", "Melting Point": "79-80 \u00b0C"}}