{"cas_no": "2305-32-0", "cn_name": "\u53cd-1,2-\u73af\u5df1\u70f7\u4e8c\u7532\u9178", "en_name": ["(\u00b1)-trans-1,2-Cyclohexanedicarboxylic acid", "1,2-Cyclohexanedicarboxylic acid, (1R,2R)-rel-", "1,2-Cyclohexanedicarboxylic acid, trans-", "rel-(1R,2R)-1,2-Cyclohexanedicarboxylic acid", "trans-1,2-Cyclohexanedicarboxylic acid", "(\u00b1)-trans-1,2-Cyclohexanedicarboxylic acid", "NSC 31593"], "SMILES": "C(O)(=O)C1C(C(O)=O)CCCC1", "physical_data": {"Molecular Weight": "172.18", "Molecular Formula": "C8H12O4", "Melting Point": "222 \u00b0C"}}