{"cas_no": "2305-13-7", "cn_name": "\u4e8c\u6c22\u677e\u67cf\u9187", "en_name": ["Dihydroconiferyl alcohol", "Benzenepropanol, 4-hydroxy-3-methoxy-", "1-Propanol, 3-(4-hydroxy-3-methoxyphenyl)-", "4-Hydroxy-3-methoxybenzenepropanol", "Coniferyl alcohol, dihydro-", "Dihydroconiferyl alcohol", "3-(p-Hydroxy-m-methoxyphenyl)-1-propanol", "4-(3-Hydroxypropyl)-2-methoxyphenol", "3-Guaiacyl-1-propanol", "Guaiacyl-3-propanol", "1-Guaiacyl-3-propanol", "4-(\u03b3-Hydroxypropyl)-2-methoxyphenol", "3-(4-Hydroxy-3-methoxyphenyl)-1-propanol", "3-(3-Methoxy-4-hydroxyphenyl)propanol", "3-(4-Hydroxy-3-methoxyphenyl)propanol", "NSC 4591", "DHCA", "3-(3-Methoxy-4-hydroxyphenyl)-1-propanol", "4-Propanolguaiacol", "4-(3-Hydroxypropyl)guaiacol"], "SMILES": "C(CCO)C1=CC(OC)=C(O)C=C1", "physical_data": {"Molecular Weight": "182.22", "Molecular Formula": "C10H14O3", "Boiling Point": "196 \u00b0C @ Press: 16 Torr", "Melting Point": "65 \u00b0C"}}