{"cas_no": "2305-36-4", "cn_name": "2-\u6c28\u57fa-4-\u7532\u57fa\u82ef\u7532\u9178", "en_name": ["2-Amino-4-methylbenzoic acid", "Benzoic acid, 2-amino-4-methyl-", "p-Toluic acid, 2-amino-", "2-Amino-4-methylbenzoic acid", "4-Methylanthranilic acid", "2-Amino-p-toluic acid", "NSC 39155"], "SMILES": "C(O)(=O)C1=C(N)C=C(C)C=C1", "physical_data": {"Molecular Weight": "151.16", "Molecular Formula": "C8H9NO2", "Melting Point": "178-180 \u00b0C"}}