{"cas_no": "23056-33-9", "cn_name": "2-\u6c2f-5-\u785d\u57fa-4-\u7532\u57fa\u5421\u5576", "en_name": ["2-Chloro-4-methyl-5-nitropyridine", "Pyridine, 2-chloro-4-methyl-5-nitro-", "4-Picoline, 2-chloro-5-nitro-", "2-Chloro-4-methyl-5-nitropyridine", "2-Chloro-5-nitro-4-methylpyridine", "NSC 402978", "2-Chloro-5-nitro-4-picoline"], "SMILES": "N(=O)(=O)C=1C(C)=CC(Cl)=NC1", "physical_data": {"Molecular Weight": "172.57", "Molecular Formula": "C6H5ClN2O2", "Boiling Point": "91.2 \u00b0C @ Press: 5 Torr", "Melting Point": "38.5-39.5 \u00b0C"}}