{"cas_no": "23056-47-5", "cn_name": "2-\u6eb4-4-\u7532\u57fa-5-\u785d\u57fa\u5421\u5576", "en_name": ["2-Bromo-4-methyl-5-nitropyridine", "Pyridine, 2-bromo-4-methyl-5-nitro-", "4-Picoline, 2-bromo-5-nitro-", "2-Bromo-4-methyl-5-nitropyridine", "NSC 403724"], "SMILES": "N(=O)(=O)C=1C(C)=CC(Br)=NC1", "physical_data": {"Molecular Weight": "217.02", "Molecular Formula": "C6H5BrN2O2", "Melting Point": "180-181 \u00b0C"}}