{"cas_no": "23052-80-4", "cn_name": "L-AP3", "en_name": ["3-Phosphono-L-alanine", "L-Alanine, 3-phosphono-", "Alanine, 3-phosphono-, L-", "3-Phosphono-L-alanine", "(R)-2-Amino-3-phosphonopropanoic acid", "L-2-Amino-3-phosphonopropionic acid", "L-AP 3", "NSC 133887", "(2R)-2-Amino-3-phosphonopropanoic acid"], "SMILES": "C(CP(=O)(O)O)(C(O)=O)N", "physical_data": {"Molecular Weight": "169.07", "Molecular Formula": "C3H8NO5P", "Melting Point": "&gt;200 \u00b0C"}}