{"cas_no": "2305-79-5", "cn_name": "4,5,6,7-\u56db\u6c30\u5432\u5511", "en_name": ["4,5,6,7-Tetrahydro-1H-indazole", "1H-Indazole, 4,5,6,7-tetrahydro-", "4,5,6,7-Tetrahydro-1H-indazole", "4,5,6,7-Tetrahydroindazole", "NSC 195333", "2H-Indazole, 4,5,6,7-tetrahydro-", "4,5,6,7-Tetrahydro-2H-indazole"], "SMILES": "C12=C(NN=C1)CCCC2", "physical_data": {"Molecular Weight": "122.17", "Molecular Formula": "C7H10N2", "Boiling Point": "151 \u00b0C @ Press: 14 Torr", "Melting Point": "84 \u00b0C"}}