{"cas_no": "2305-21-7", "cn_name": "\u53cd\u5f0f-2-\u5df2\u70ef-1-\u9187", "en_name": ["2-Hexen-1-ol", "2-Hexen-1-ol", "NSC 142553", "2-Hexenyl alcohol"], "SMILES": "C(CCC)=CCO", "physical_data": {"Molecular Weight": "100.16", "Molecular Formula": "C6H12O", "Boiling Point": "154-156 \u00b0C", "Density": "0.8628 g/cm\u00b3 @ Temp: 20 \u00b0C"}}