{"cas_no": "23056-40-8", "cn_name": "2-\u6c2f-5-\u7532\u57fa-3-\u785d\u57fa\u5421\u5576", "en_name": ["2-Chloro-5-methyl-3-nitropyridine", "Pyridine, 2-chloro-5-methyl-3-nitro-", "3-Picoline, 6-chloro-5-nitro-", "2-Chloro-5-methyl-3-nitropyridine", "5-Methyl-2-chloro-3-nitropyridine", "5-Methyl-3-nitro-2-chloropyridine", "2-Chloro-3-nitro-5-methylpyridine"], "SMILES": "N(=O)(=O)C1=C(Cl)N=CC(C)=C1", "physical_data": {"Molecular Weight": "172.57", "Molecular Formula": "C6H5ClN2O2", "Melting Point": "50-51 \u00b0C"}}