{"cas_no": "23056-35-1", "cn_name": "2-\u7532\u57fa-3-\u785d\u57fa-4-\u6c2f\u5421\u5576", "en_name": ["4-Chloro-2-methyl-3-nitropyridine", "Pyridine, 4-chloro-2-methyl-3-nitro-", "2-Picoline, 4-chloro-3-nitro-", "4-Chloro-2-methyl-3-nitropyridine"], "SMILES": "N(=O)(=O)C=1C(Cl)=CC=NC1C", "physical_data": {"Molecular Weight": "172.57", "Molecular Formula": "C6H5ClN2O2", "Melting Point": "45-48 \u00b0C"}}