{"cas_no": "2305-26-2", "cn_name": "\u987a-4-\u73af\u5df1\u70ef-1,2-\u4e8c\u7fa7\u9178", "en_name": ["rel-(1R,2S)-4-Cyclohexene-1,2-dicarboxylic acid", "4-Cyclohexene-1,2-dicarboxylic acid, (1R,2S)-rel-", "4-Cyclohexene-1,2-dicarboxylic acid, cis-", "rel-(1R,2S)-4-Cyclohexene-1,2-dicarboxylic acid", "cis-4-Cyclohexene-1,2-dicarboxylic acid", "1-Cyclohexene-4,5-cis-dicarboxylic acid", "cis-\u03944-Tetrahydrophthalic acid", "cis-\u03944-Cyclohexene-1,2-dicarboxylic acid", "cis-Cyclohexene-4,5-dicarboxylic acid", "cis-1,2,3,6-Tetrahydrophthalic acid", "cis-1,2-Cyclohex-4-enedicarboxylic acid"], "SMILES": "C(O)(=O)C1C(C(O)=O)CC=CC1", "physical_data": {"Molecular Weight": "170.16", "Molecular Formula": "C8H10O4", "Boiling Point": "106-107 \u00b0C @ Press: 0.1 Torr", "Melting Point": "166 \u00b0C"}}