{"cas_no": "23056-39-5", "cn_name": "2-\u6c2f-4-\u7532\u57fa-3-\u785d\u57fa\u5421\u5576", "en_name": ["2-Chloro-4-methyl-3-nitropyridine", "Pyridine, 2-chloro-4-methyl-3-nitro-", "4-Picoline, 2-chloro-3-nitro-", "2-Chloro-4-methyl-3-nitropyridine", "2-Chloro-3-nitro-4-methylpyridine", "NSC 402977"], "SMILES": "N(=O)(=O)C=1C(C)=CC=NC1Cl", "physical_data": {"Molecular Weight": "172.57", "Molecular Formula": "C6H5ClN2O2", "Melting Point": "52-52.9 \u00b0C"}}