{"cas_no": "2305-05-7", "cn_name": "\u03b3-\u5341\u4e8c\u5185\u916f", "en_name": ["\u03b3-Dodecalactone", "2(3H)-Furanone, dihydro-5-octyl-", "Dodecanoic acid, 4-hydroxy-, \u03b3-lactone", "Dihydro-5-octyl-2(3H)-furanone", "\u03b3-Dodecalactone", "4-Dodecanolide", "\u03b3-Octyl-\u03b3-butyrolactone", "4-Hydroxydodecanoic acid lactone", "\u03b3-Dodecanolactone", "4-Hydroxydodecanoic acid \u03b3-lactone", "5-Octyltetrahydro-2-furanone", "(\u00b1)-4-n-Octylbutyrolactone", "(RS)-\u03b3-Dodecalactone", "(\u00b1)-\u03b3-Dodecalactone", "NSC 26511", "\u03b3-Laurolactone", "5-Octyldihydrofuran-2(3H)-one"], "SMILES": "C(CCCCCCC)C1OC(=O)CC1", "physical_data": {"Molecular Weight": "198.30", "Molecular Formula": "C12H22O2", "Boiling Point": "130 \u00b0C @ Press: 0.51 Torr", "Melting Point": "17-18 \u00b0C", "Density": "0.9383 g/cm\u00b3 @ Temp: 20 \u00b0C"}}