{"cas_no": "2306-88-9", "cn_name": "\u8f9b\u9178\u8f9b\u916f", "en_name": ["Octyl caprylate", "Octanoic acid, octyl ester", "Caprylic acid, octyl ester", "Octyl caprylate", "Octyl octanoate", "n-Octyl caprylate", "1-Octyl octanoate", "1-Octanol octanoate", "n-Octyl n-octanoate", "Estol 1540EHC", "NSC 23957", "Octyl octanathioate", "Cetiol 88"], "SMILES": "C(OCCCCCCCC)(CCCCCCC)=O", "physical_data": {"Molecular Weight": "256.42", "Molecular Formula": "C16H32O2", "Boiling Point": "306.8 \u00b0C", "Melting Point": "-18.1 \u00b0C"}}