{"cas_no": "230615-70-0", "cn_name": "7,8,9,10-\u56db\u6c22-8-(\u4e09\u6c1f\u4e59\u9170\u57fa)-6,10-\u7532\u6865-6H-\u5421\u55ea\u5e76[2,3-H][3]\u82ef\u5e76\u6c2e\u6742\u5353", "en_name": ["2,2,2-Trifluoro-1-(6,7,9,10-tetrahydro-6,10-methano-8H-pyrazino[2,3-h][3]benzazepin-8-yl)ethanone", "Ethanone, 2,2,2-trifluoro-1-(6,7,9,10-tetrahydro-6,10-methano-8H-pyrazino[2,3-h][3]benzazepin-8-yl)-", "6,10-Methano-6H-pyrazino[2,3-h][3]benzazepine, 7,8,9,10-tetrahydro-8-(trifluoroacetyl)-", "2,2,2-Trifluoro-1-(6,7,9,10-tetrahydro-6,10-methano-8H-pyrazino[2,3-h][3]benzazepin-8-yl)ethanone", "1-(9,10-Dihydro-6H-6,10-methanoazepino[4,5-g]quinoxalin-8(7H)-yl)-2,2,2-trifluoroethanone"], "SMILES": "C(C(F)(F)F)(=O)N1CC2C=3C(C(C2)C1)=CC=4C(C3)=NC=CN4", "physical_data": {"Molecular Weight": "307.27", "Molecular Formula": "C15H12F3N3O", "Melting Point": "164-166 \u00b0C"}}