{"cas_no": "23062-06-8", "cn_name": "4,16-ANDROSTADIEN-3-BETA-OL", "en_name": ["Androsta-4,16-dien-3\u03b2-ol", "Androsta-4,16-dien-3-ol, (3\u03b2)-", "Androsta-4,16-dien-3\u03b2-ol", "(3\u03b2)-Androsta-4,16-dien-3-ol", "Fasedienol", "PH94B", "PH 94B"], "SMILES": "CC12C3C(C4C(C)(CC3)C=CC4)CCC1=CC(O)CC2", "physical_data": {"Molecular Weight": "272.42", "Molecular Formula": "C19H28O", "Melting Point": "114-117 \u00b0C"}}