{"cas_no": "23068-44-2", "cn_name": "2,5-\u4e8c\u7532\u57fa\u82ef\u4e59\u80fa", "en_name": ["2,5-Dimethylbenzeneethanamine", "Benzeneethanamine, 2,5-dimethyl-", "Phenethylamine, 2,5-dimethyl-", "2,5-Dimethylbenzeneethanamine", "2,5-Dimethylphenethylamine", "2-(2,5-Dimethylphenyl)ethanamine", "2-(2,5-Dimethylphenyl)ethylamine", "2-(2,5-Dimethylphenyl)ethan-1-amine"], "SMILES": "C(CN)C1=C(C)C=CC(C)=C1", "physical_data": {"Molecular Weight": "149.23", "Molecular Formula": "C10H15N", "Boiling Point": "110-112 \u00b0C @ Press: 13 Torr"}}