{"cas_no": "23062-24-0", "cn_name": "\u4e1c\u9769\u5185\u916f", "en_name": ["Eurycomalactone", "2,5-Methanonaphth[1,2-d]oxepin-4,6,10(2H)-trione, 1,5,5a,7,7a,11,11a,11b-octahydro-1,11-dihydroxy-5a,8,11a,12-tetramethyl-, (1R,2R,5S,5aR,7aS,11S,11aS,11bR,12R)-", "Eurycomalactone", "2,5-Methanonaphth[1,2-d]oxepin-4,6,10(2H)-trione, 1,5,5a,7,7a,11,11a,11b-octahydro-1,11-dihydroxy-5a,8,11a,12-tetramethyl-, [1R-(1\u03b1,2\u03b1,5\u03b1,5a\u03b1,7a\u03b2,11\u03b1,11a\u03b1,11b\u03b2,12R*)]-", "(1R,2R,5S,5aR,7aS,11S,11aS,11bR,12R)-1,5,5a,7,7a,11,11a,11b-Octahydro-1,11-dihydroxy-5a,8,11a,12-tetramethyl-2,5-methanonaphth[1,2-d]oxepin-4,6,10(2H)-trione"], "SMILES": "CC12C(C3(C)C(CC1=O)C(C)=CC(=O)C3O)C(O)C4C(C)C2C(=O)O4", "physical_data": {"Molecular Weight": "348.39", "Molecular Formula": "C19H24O6", "Melting Point": "268-270 \u00b0C"}}