{"cas_no": "2306-27-6", "cn_name": "5,6,7,3',4'-\u4e94\u7532\u6c27\u57fa\u9ec4\u916e", "en_name": ["Sinensetin", "4H-1-Benzopyran-4-one, 2-(3,4-dimethoxyphenyl)-5,6,7-trimethoxy-", "Flavone, 3\u2032,4\u2032,5,6,7-pentamethoxy-", "Sinensetin", "2-(3,4-Dimethoxyphenyl)-5,6,7-trimethoxy-4H-1-benzopyran-4-one", "5,6,7,3\u2032,4\u2032-Pentamethoxyflavone", "3\u2032,4\u2032,5,6,7-Pentamethoxyflavone", "Pedalitin permethyl ether", "5,6,7,3\u2032,4\u2032-Pentamethoxyl flavone", "2-(3,4-Dimethoxyphenyl)-5,6,7-trimethoxy-4H-chromen-4-one", "2-(3,4-Dimethoxyphenyl)-5,6,7-trimethoxychromen-4-one"], "SMILES": "O(C)C1=C2C(OC(=CC2=O)C3=CC(OC)=C(OC)C=C3)=CC(OC)=C1OC", "physical_data": {"Molecular Weight": "372.37", "Molecular Formula": "C20H20O7", "Melting Point": "174.5 \u00b0C"}}