{"cas_no": "2307-68-8", "cn_name": "\u852c\u8349\u706d", "en_name": ["Pentanochlor", "Pentanamide, N-(3-chloro-4-methylphenyl)-2-methyl-", "p-Valerotoluidide, 3\u2032-chloro-2-methyl-", "N-(3-Chloro-4-methylphenyl)-2-methylpentanamide", "3\u2032-Chloro-2-methyl-p-valerotoluidide", "Dutom", "Niagara 4512", "Solan", "CMMP", "Chlorpentan", "Hortox", "Solan (herbicide)", "Solane", "Pentanochlor", "CMA", "3\u2032-Chloro-2,4\u2032-dimethylvaleranilide", "CMMP (herbicide)", "2-Methyl-pentanoic acid (3-chloro-4-methyl-phenyl)-amide"], "SMILES": "N(C(C(CCC)C)=O)C1=CC(Cl)=C(C)C=C1", "physical_data": {"Molecular Weight": "239.74", "Molecular Formula": "C13H18ClNO", "Melting Point": "85 \u00b0C"}}