{"cas_no": "23074-10-4", "cn_name": "5-\u4e59\u57fa-2-\u7ce0\u919b", "en_name": ["5-Ethyl-2-furaldehyde", "2-Furancarboxaldehyde, 5-ethyl-", "2-Furaldehyde, 5-ethyl-", "5-Ethyl-2-furancarboxaldehyde", "5-Ethylfurfural", "5-Ethyl-2-furaldehyde", "5-Ethyl-2-furfural"], "SMILES": "C(C)C=1OC(C=O)=CC1", "physical_data": {"Molecular Weight": "124.14", "Molecular Formula": "C7H8O2", "Boiling Point": "79-81 \u00b0C @ Press: 12 Torr"}}