{"cas_no": "23077-44-3", "cn_name": "6-\u6c1f-\u5432\u54da-3-\u7fa7\u9178", "en_name": ["6-Fluoro-1H-indole-3-carboxylic acid", "1H-Indole-3-carboxylic acid, 6-fluoro-", "Indole-3-carboxylic acid, 6-fluoro-", "6-Fluoro-1H-indole-3-carboxylic acid", "6-Fluoroindole-3-carboxylic acid"], "SMILES": "C(O)(=O)C=1C=2C(NC1)=CC(F)=CC2", "physical_data": {"Molecular Weight": "179.15", "Molecular Formula": "C9H6FNO2", "Melting Point": "242-244 \u00b0C (decomp)"}}