{"cas_no": "2307-10-0", "cn_name": "\u786b\u4ee3\u4e59\u9178\u4e19\u916f", "en_name": ["S-Propyl thioacetate", "Ethanethioic acid, S-propyl ester", "Acetic acid, thio-, S-propyl ester", "S-Propyl thioacetate", "Propyl thiolacetate", "1-(Propylsulfanyl)ethan-1-one"], "SMILES": "S(C(C)=O)CCC", "physical_data": {"Molecular Weight": "118.20", "Molecular Formula": "C5H10OS", "Boiling Point": "135 \u00b0C @ Press: 750 Torr", "Density": "0.9688 g/cm\u00b3 @ Temp: 25 \u00b0C"}}