{"cas_no": "2307-69-9", "cn_name": "\u5bf9\u7532\u82ef\u78fa\u9178\u5f02\u4e19\u916f", "en_name": ["Isopropyl tosylate", "Benzenesulfonic acid, 4-methyl-, 1-methylethyl ester", "p-Toluenesulfonic acid, isopropyl ester", "Isopropyl tosylate", "Isopropyl p-toluenesulfonate", "2-Propyl tosylate", "Isopropyl p-tosylate", "Isopropyl p-methylbenzenesulfonate", "4-Methylbenzenesulfonic acid 1-methylethyl ester", "Toluene-4-sulfonic acid isopropyl ester", "Isopropyl 4-methylbenzenesulfonate"], "SMILES": "S(OC(C)C)(=O)(=O)C1=CC=C(C)C=C1", "physical_data": {"Molecular Weight": "214.28", "Molecular Formula": "C10H14O3S", "Boiling Point": "107-109 \u00b0C @ Press: 0.4 Torr", "Melting Point": "20 \u00b0C"}}