{"cas_no": "23074-42-2", "cn_name": "1-\u6c30\u57fa\u91d1\u521a\u70f7", "en_name": ["1-Cyanoadamantane", "Tricyclo[3.3.1.13,7]decane-1-carbonitrile", "1-Adamantanecarbonitrile", "1-Adamantylnitrile", "1-Cyanoadamantane", "1-Adamantyl cyanide", "1-Adamantane carboxylic acid nitrile", "NSC 137842"], "SMILES": "C(#N)C12CC3CC(C1)CC(C2)C3", "physical_data": {"Molecular Weight": "161.24", "Molecular Formula": "C11H15N", "Melting Point": "184-187 \u00b0C"}}