{"cas_no": "23074-59-1", "cn_name": "3-\u5f02\u4e01\u6c27\u57fa-2-\u73af\u5df1\u70ef\u916e", "en_name": ["3-(2-Methylpropoxy)-2-cyclohexen-1-one", "2-Cyclohexen-1-one, 3-(2-methylpropoxy)-", "2-Cyclohexen-1-one, 3-isobutoxy-", "3-(2-Methylpropoxy)-2-cyclohexen-1-one", "3-Isobutoxy-2-cyclohexenone", "3-Isobutoxy-2-cyclohexen-1-one", "3-iso-Butoxy-2-cyclohexenone"], "SMILES": "O(CC(C)C)C1=CC(=O)CCC1", "physical_data": {"Molecular Weight": "168.23", "Molecular Formula": "C10H16O2", "Boiling Point": "110-120 \u00b0C @ Press: 0.6 Torr"}}