{"cas_no": "23077-43-2", "cn_name": "5-\u6c1f\u5432\u54da-3-\u7532\u9178", "en_name": ["5-Fluoro-1H-indole-3-carboxylic acid", "1H-Indole-3-carboxylic acid, 5-fluoro-", "Indole-3-carboxylic acid, 5-fluoro-", "5-Fluoro-1H-indole-3-carboxylic acid", "5-Fluoroindole-3-carboxylic acid"], "SMILES": "C(O)(=O)C=1C=2C(NC1)=CC=C(F)C2", "physical_data": {"Molecular Weight": "179.15", "Molecular Formula": "C9H6FNO2", "Melting Point": "234-236 \u00b0C (decomp)"}}