{"cas_no": "23074-36-4", "cn_name": "2-\u6eb4-1-\u4e01\u70ef", "en_name": ["2-Bromo-1-butene", "1-Butene, 2-bromo-", "2-Bromo-1-butene", "2-Bromobutene"], "SMILES": "C(CC)(Br)=C", "physical_data": {"Molecular Weight": "135.00", "Molecular Formula": "C4H7Br", "Boiling Point": "88 \u00b0C", "Melting Point": "-133.4 \u00b0C", "Density": "1.333 g/cm\u00b3 @ Temp: 20 \u00b0C"}}