{"cas_no": "23084-35-7", "cn_name": "6-\u7532\u6c27\u57fa\u5432\u54da-3-\u4e59\u8148", "en_name": ["6-Methoxy-1H-indole-3-acetonitrile", "1H-Indole-3-acetonitrile, 6-methoxy-", "Indole-3-acetonitrile, 6-methoxy-", "6-Methoxy-1H-indole-3-acetonitrile", "2-(6-Methoxy-1H-indol-3-yl)acetonitrile"], "SMILES": "C(C#N)C=1C=2C(=CC(OC)=CC2)NC1", "physical_data": {"Molecular Weight": "186.21", "Molecular Formula": "C11H10N2O", "Melting Point": "111-112 \u00b0C"}}