{"cas_no": "2308-85-2", "cn_name": "\u0392-\u8c37\u753e\u9187\u68d5\u6988\u9178\u916f", "en_name": ["Sitosterol palmitate", "Stigmast-5-en-3-ol, 3-hexadecanoate, (3\u03b2)-", "\u03b2-Sitosterol palmitate", "Stigmast-5-en-3\u03b2-ol, palmitate", "Stigmast-5-en-3-ol, hexadecanoate, (3\u03b2)-", "Palmitic acid, stigmast-5-en-3\u03b2-yl ester", "Palmitic acid, \u03b2-sitosteryl ester", "Sitosteryl palmitate", "Sitosterol palmitate", "\u03b2-Sitosteryl palmitate", "\u03b2-Sitosterol hexadecanoate", "\u03b2-Rosasterol palmitate"], "SMILES": "CC12C3C(C4C(C)(CC3)C(C(CCC(C(C)C)CC)C)CC4)CC=C1CC(OC(CCCCCCCCCCCCCCC)=O)CC2", "physical_data": {"Molecular Weight": "653.12", "Molecular Formula": "C45H80O2", "Melting Point": "88-88.5 \u00b0C"}}