{"cas_no": "23089-26-1", "cn_name": "\u6ca1\u836f\u9187", "en_name": ["(-)-\u03b1-Bisabolol", "3-Cyclohexene-1-methanol, \u03b1,4-dimethyl-\u03b1-(4-methyl-3-penten-1-yl)-, (\u03b1S,1S)-", "5-Hepten-2-ol, 6-methyl-2-(4-methyl-3-cyclohexen-1-yl)-, (-)-", "3-Cyclohexene-1-methanol, \u03b1,4-dimethyl-\u03b1-(4-methyl-3-pentenyl)-, [S-(R*,R*)]-", "3-Cyclohexene-1-methanol, \u03b1,4-dimethyl-\u03b1-(4-methyl-3-pentenyl)-, (\u03b1S,1S)-", "(\u03b1S,1S)-\u03b1,4-Dimethyl-\u03b1-(4-methyl-3-penten-1-yl)-3-cyclohexene-1-methanol", "(-)-\u03b1-Bisabolol", "Levomenol", "l-\u03b1-Bisabolol", "\u03b1-Bisabolol, (-)-", "(-)-(1\u2032S,2S)-\u03b1-Bisabolol", "\u03b1-(-)-Bisabolol", "(-)-(4S,8S)-\u03b1-Bisabolol", "Kamillosan"], "SMILES": "C(CCC=C(C)C)(C)(O)C1CCC(C)=CC1", "physical_data": {"Molecular Weight": "222.37", "Molecular Formula": "C15H26O", "Boiling Point": "153 \u00b0C @ Press: 12 Torr", "Density": "0.9211 g/cm\u00b3 @ Temp: 20 \u00b0C"}}