{"cas_no": "23081-86-9", "cn_name": "1-\u4e01\u57fa-4-\u54cc\u5576\u916e", "en_name": ["1-Butyl-4-piperidinone", "4-Piperidinone, 1-butyl-", "4-Piperidone, 1-butyl-", "1-Butyl-4-piperidinone", "N-Butyl-4-piperidone", "1-Butyl-4-piperidone", "1-n-Butyl-4-piperidone", "N-Butyl-4-piperidinone"], "SMILES": "C(CCC)N1CCC(=O)CC1", "physical_data": {"Molecular Weight": "155.24", "Molecular Formula": "C9H17NO", "Boiling Point": "66 \u00b0C @ Press: 1 Torr"}}