{"cas_no": "23082-50-0", "cn_name": "2-\u6c2f-5-\u785d\u57fa\u82ef\u4e59\u916e", "en_name": ["2\u2032-Chloro-5\u2032-nitroacetophenone", "Ethanone, 1-(2-chloro-5-nitrophenyl)-", "Acetophenone, 2\u2032-chloro-5\u2032-nitro-", "1-(2-Chloro-5-nitrophenyl)ethanone", "2\u2032-Chloro-5\u2032-nitroacetophenone", "2-Chloro-5-nitroacetophenone", "1-(2-Chloro-5-nitrophenyl)-ethan-1-one"], "SMILES": "C(C)(=O)C1=CC(N(=O)=O)=CC=C1Cl", "physical_data": {"Molecular Weight": "199.59", "Molecular Formula": "C8H6ClNO3", "Melting Point": "62 \u00b0C"}}