{"cas_no": "2308-18-1", "cn_name": "\u4e59\u9170\u4e59\u9178\u5f02\u620a\u916f", "en_name": ["3-Methylbutyl 3-oxobutanoate", "Butanoic acid, 3-oxo-, 3-methylbutyl ester", "Acetoacetic acid, isopentyl ester", "Isopentyl alcohol, acetoacetate", "3-Methylbutyl 3-oxobutanoate", "Isoamyl acetoacetate", "Isopentyl acetoacetate", "Isoamyl acetylacetate", "Isoamyl 3-oxo-butanoate", "3-Methyl-1-butyl 3-oxobutanoate"], "SMILES": "C(OCCC(C)C)(CC(C)=O)=O", "physical_data": {"Molecular Weight": "172.22", "Molecular Formula": "C9H16O3", "Boiling Point": "90-97 \u00b0C @ Press: 8 Torr"}}