{"cas_no": "23095-31-0", "cn_name": "3\uff0c4-\u4e8c\u7532\u6c27\u57fa\u82ef\u78fa\u9170\u6c2f", "en_name": ["3,4-Dimethoxybenzenesulfonyl chloride", "Benzenesulfonyl chloride, 3,4-dimethoxy-", "3,4-Dimethoxybenzenesulfonyl chloride", "3,4-Dimethoxyphenylsulfonyl chloride", "3,4-Dimethoxybenzene-1-sulfonyl chloride", "3,4-Bis(methoxy)benzenesulfonyl chloride"], "SMILES": "O(C)C1=C(OC)C=CC(S(Cl)(=O)=O)=C1", "physical_data": {"Molecular Weight": "236.67", "Molecular Formula": "C8H9ClO4S", "Melting Point": "63-66 \u00b0C"}}