{"cas_no": "2309-49-1", "cn_name": "\u56db\u7532\u5c3f\u9178", "en_name": ["Theacrine", "1H-Purine-2,6,8(3H)-trione, 7,9-dihydro-1,3,7,9-tetramethyl-", "Uric acid, 1,3,7,9-tetramethyl-", "7,9-Dihydro-1,3,7,9-tetramethyl-1H-purine-2,6,8(3H)-trione", "Tetramethyluric acid", "Temorine", "Ba 2750", "1,3,7,9-Tetramethyluric acid", "Temurin", "Theacrine", "NSC 8809", "TeaCrine", "1,3,7,9-Tetramethylpurine-2,6,8-trione"], "SMILES": "CN1C2=C(N(C)C1=O)N(C)C(=O)N(C)C2=O", "physical_data": {"Molecular Weight": "224.22", "Molecular Formula": "C9H12N4O3", "Melting Point": "226 \u00b0C"}}