{"cas_no": "2309-07-1", "cn_name": "\u963f\u9b4f\u9178\u7532\u916f", "en_name": ["Methyl ferulate", "2-Propenoic acid, 3-(4-hydroxy-3-methoxyphenyl)-, methyl ester", "Cinnamic acid, 4-hydroxy-3-methoxy-, methyl ester", "Methyl ferulate", "Ferulic acid methyl ester", "NSC 74548", "Methyl 4\u2032-hydroxy-3\u2032-methoxycinnamate", "3-(4-Hydroxy-3-methoxyphenyl)-2-propenoic acid methyl ester"], "SMILES": "C(=CC(OC)=O)C1=CC(OC)=C(O)C=C1", "physical_data": {"Molecular Weight": "208.21", "Molecular Formula": "C11H12O4", "Boiling Point": "163 \u00b0C @ Press: 1 Torr", "Melting Point": "65 \u00b0C"}}