{"cas_no": "23094-71-5", "cn_name": "\u8bc3\u5b50\u97a3\u9178", "en_name": ["Chebulagic acid", "\u03b2-D-Glucopyranose, cyclic 3,6-[(1R)-4,4\u2032,5,5\u2032,6,6\u2032-hexahydroxy[1,1\u2032-biphenyl]-2,2\u2032-dicarboxylate] 1-(3,4,5-trihydroxybenzoate), cyclic 2\u21922:4\u21921-ester with (2S)-2-[(3S,4S)-5-carboxy-3,4-dihydro-3,7,8-trihydroxy-2-oxo-2H-1-benzopyran-4-yl]butanedioic acid", "\u03b2-D-Glucopyranose, cyclic 3,6-[(1R)-4,4\u2032,5,5\u2032,6,6\u2032-hexahydroxy[1,1\u2032-biphenyl]-2,2\u2032-dicarboxylate] 1-(3,4,5-trihydroxybenzoate), cyclic 2\u21925:4\u21921-ester with (2S)-[(3S,4S)-5-carboxy-3,4-dihydro-3,7,8-trihydroxy-2-oxo-2H-1-benzopyran-4-yl]butanedioic acid", "Chebulagic acid", "\u03b2-D-Glucopyranose, cyclic 3,6-[(1R)-4,4\u2032,5,5\u2032,6,6\u2032-hexahydroxy[1,1\u2032-biphenyl]-2,2\u2032-dicarboxylate] 1-(3,4,5-trihydroxybenzoate), cyclic 2\u21922:4\u21921-ester with (2S)-[(3S,4S)-5-carboxy-3,4-dihydro-3,7,8-trihydroxy-2-oxo-2H-1-benzopyran-4-yl]butanedioic acid", "10,24-(Epoxymethano)-11H-dibenzo[8,9:10,11][1,6]dioxacyclododecino[2,3-d]pyrano[4,3,2-ij][2,6]benzodioxacycloundecin, \u03b2-D-glucopyranose deriv."], "SMILES": "C(C(O)=O)C1C2C=3C(C(=O)OC4C5C(OC1=O)C(OC4OC(=O)C6=CC(O)=C(O)C(O)=C6)COC(=O)C=7C(C=8C(C(=O)O5)=CC(O)=C(O)C8O)=C(O)C(O)=C(O)C7)=CC(O)=C(O)C3OC(=O)C2O", "physical_data": {"Molecular Weight": "954.66", "Molecular Formula": "C41H30O27", "Melting Point": "&gt;300 \u00b0C"}}