{"cas_no": "23099-21-0", "cn_name": "3-\u6c28\u7532\u57fa\u54cc\u5576", "en_name": ["3-(Aminomethyl)piperidine", "3-Piperidinemethanamine", "Piperidine, 3-(aminomethyl)-", "3-(Aminomethyl)piperidine", "(3-Piperidinylmethyl)amine", "1-(Piperidin-3-yl)methanamine", "(Piperidin-3-yl)methanamine"], "SMILES": "C(N)C1CCCNC1", "physical_data": {"Molecular Weight": "114.19", "Molecular Formula": "C6H14N2", "Boiling Point": "89 \u00b0C @ Press: 18 Torr"}}