{"cas_no": "23094-69-1", "cn_name": "\u67ef\u91cc\u62c9\u4eac", "en_name": ["Corilagin", "\u03b2-D-Glucopyranose, cyclic 3,6-[(1R)-4,4\u2032,5,5\u2032,6,6\u2032-hexahydroxy[1,1\u2032-biphenyl]-2,2\u2032-dicarboxylate] 1-(3,4,5-trihydroxybenzoate)", "Glucopyranose, cyclic 3,6-(4,4\u2032,5,5\u2032,6,6\u2032-hexahydroxydiphenate) 1-gallate, \u03b2-D-", "Corilagin", "\u03b2-D-Glucopyranose, cyclic 3,6-(4,4\u2032,5,5\u2032,6,6\u2032-hexahydroxy[1,1\u2032-biphenyl]-2,2\u2032-dicarboxylate) 1-(3,4,5-trihydroxybenzoate), (R)-", "8,12-Methano-10H-dibenzo[j,l][1,4,8]trioxacyclotetradecin, \u03b2-D-glucopyranose deriv.", "Corillagin"], "SMILES": "OC1=C2C=3C(=CC(O)=C(O)C3O)C(=O)OCC4C(O)C(OC(=O)C2=CC(O)=C1O)C(O)C(OC(=O)C5=CC(O)=C(O)C(O)=C5)O4", "physical_data": {"Molecular Weight": "634.45", "Molecular Formula": "C27H22O18", "Melting Point": "206-207 \u00b0C"}}