{"cas_no": "2309-94-6", "cn_name": "\u5206\u6563\u5170 183", "en_name": ["Disperse Blue 183", "Propanamide, N-[2-[2-(2-bromo-6-cyano-4-nitrophenyl)diazenyl]-5-(diethylamino)phenyl]-", "Propionanilide, 2\u2032-[(2-bromo-6-cyano-4-nitrophenyl)azo]-5\u2032-(diethylamino)-", "Propanamide, N-[2-[(2-bromo-6-cyano-4-nitrophenyl)azo]-5-(diethylamino)phenyl]-", "N-[2-[2-(2-Bromo-6-cyano-4-nitrophenyl)diazenyl]-5-(diethylamino)phenyl]propanamide", "C.I. Disperse Blue 183", "Foron Blue SE 2R", "Tulasteron Fast Blue 2RC-N", "Foron Blue SE 2RI", "Rathilene Blue F 2R", "Disperse Blue SE 2R", "EX 236", "Synten Blue P 2R", "Disperse Blue 183", "Lonsperse Disperse Blue RSE", "Disperse Blue RSE", "C.I. 11078", "Terasil Blue P 2BR"], "SMILES": "N(C(CC)=O)C1=C(N=NC2=C(C#N)C=C(N(=O)=O)C=C2Br)C=CC(N(CC)CC)=C1", "physical_data": {"Molecular Weight": "473.32", "Molecular Formula": "C20H21BrN6O3", "Melting Point": "183 \u00b0C"}}