{"cas_no": "23103-98-2", "cn_name": "\u6297\u869c\u5a01", "en_name": ["Pirimicarb", "Carbamic acid, N,N-dimethyl-, 2-(dimethylamino)-5,6-dimethyl-4-pyrimidinyl ester", "Carbamic acid, dimethyl-, 2-(dimethylamino)-5,6-dimethyl-4-pyrimidinyl ester", "4-Pyrimidinol, 2-(dimethylamino)-5,6-dimethyl-, dimethylcarbamate (ester)", "Pirimicarb", "PP 062", "5,6-Dimethyl-2-dimethylamino-4-dimethylcarbamoyloxypyrimidine", "Pirimor", "2-Dimethylamino-5,6-dimethyl-4-pyrimidinyl dimethylcarbamate", "2-Dimethylamino-5,6-dimethylpyrimidin-4-yl N,N-dimethylcarbamate", "Fernos", "Pyrimor", "Pirimor G", "Pirimor Granulate", "Aphox", "Pirimix", "Aphox DG", "Aficida", "Patton Flow"], "SMILES": "O(C(N(C)C)=O)C1=NC(N(C)C)=NC(C)=C1C", "physical_data": {"Molecular Weight": "238.29", "Molecular Formula": "C11H18N4O2", "Melting Point": "90.5 \u00b0C", "Density": "1.21 g/cm\u00b3"}}