{"cas_no": "2310-17-0", "cn_name": "\u4f0f\u6740\u78f7", "en_name": ["Phosalone", "Phosphorodithioic acid, S-[(6-chloro-2-oxo-3(2H)-benzoxazolyl)methyl] O,O-diethyl ester", "Phosphorodithioic acid, O,O-diethyl ester, S-ester with 6-chloro-3-(mercaptomethyl)-2-benzoxazolinone", "NIA 9241", "RP 11974", "O,O-Diethyl S-[6-chloro-3-(mercaptomethyl)-2-benzoxazolinone]phosphorodithioate", "Phosalone", "Phosalon", "Zolone PM", "Zolone", "Zolone 35EC", "Phosphorodithioic acid O,O-diethyl S-[(6-chloro-2-oxobenzoxazolin-3-yl)methyl] ester", "Chipman 11974", "Benzophosphate", "S-[6-Chloro-3-(mercaptomethyl)-2-benzoxazolinone] O,O-diethyl phosphorodithioate", "3-(O,O-Diethyldithiophosphorylmethyl)-6-chlorobenzoxazolinone", "6-Chloro-3-(O,O-diethyldithiophosphorylmethyl)benzoxazolone", "S-(6-Chloro-2-oxobenzoxazolin-3-yl)methyl diethyl phosphorothiolothionate", "Rubitox", "Agria 1060", "Zolone Flo", "Fosalon", "KB insectes", "Fozolone", "Zolone 3EC"], "SMILES": "C(SP(OCC)(OCC)=S)N1C=2C(OC1=O)=CC(Cl)=CC2", "physical_data": {"Molecular Weight": "367.81", "Molecular Formula": "C12H15ClNO4PS2", "Melting Point": "47.5-48 \u00b0C", "Density": "1.39 g/cm\u00b3"}}