{"cas_no": "23110-15-8", "cn_name": "\u70df\u66f2\u9709\u7d20", "en_name": ["Fumagillin", "2,4,6,8-Decatetraenedioic acid, 1-[(3R,4S,5S,6R)-5-methoxy-4-[(2R,3R)-2-methyl-3-(3-methyl-2-buten-1-yl)-2-oxiranyl]-1-oxaspiro[2.5]oct-6-yl] ester, (2E,4E,6E,8E)-", "2,4,6,8-Decatetraenedioic acid, mono[4-(1,2-epoxy-1,5-dimethyl-4-hexenyl)-5-methoxy-1-oxaspiro[2.5]oct-6-yl] ester", "2,4,6,8-Decatetraenedioic acid, mono[5-methoxy-4-[2-methyl-3-(3-methyl-2-butenyl)oxiranyl]-1-oxaspiro[2.5]oct-6-yl] ester, [3R-[3\u03b1,4\u03b1(2R*,3R*),5\u03b2,6\u03b2(2E,4E,6E,8E)]]-", "2,4,6,8-Decatetraenedioic acid 4-(1,2-epoxy-1,5-dimethyl-4-hexenyl)-5-methoxy-1-oxaspiro[2.5]oct-6-yl ester", "2,4,6,8-Decatetraenedioic acid, mono[(3R,4S,5S,6R)-5-methoxy-4-[(2R,3R)-2-methyl-3-(3-methyl-2-butenyl)oxiranyl]-1-oxaspiro[2.5]oct-6-yl] ester, (2E,4E,6E,8E)-", "1-Oxaspiro[2.5]octane, 2,4,6,8-decatetraenedioic acid deriv.", "Fumidil", "Fumagillin", "Fumagillin DCH", "Amebacilin", "Fugillin", "Fumadil B", "(-)-Fumagillin", "NSC 9168", "ZGN 201"], "SMILES": "CC1(C2C3(CO3)CCC(OC(C=CC=CC=CC=CC(O)=O)=O)C2OC)C(CC=C(C)C)O1", "physical_data": {"Molecular Weight": "458.54", "Molecular Formula": "C26H34O7", "Melting Point": "194.5 \u00b0C", "Density": "1.172 g/cm\u00b3"}}