{"cas_no": "2311-46-8", "cn_name": "\u5df1\u9178\u5f02\u4e19\u916f", "en_name": ["Isopropyl hexanoate", "Hexanoic acid, 1-methylethyl ester", "Hexanoic acid, isopropyl ester", "Isopropyl hexanoate", "Isopropyl caproate", "Isopropyl n-hexanoate", "Isopropyl capronate", "1-Methylethyl hexanoate"], "SMILES": "C(C(OC(C)C)=O)CCCC", "physical_data": {"Molecular Weight": "158.24", "Molecular Formula": "C9H18O2", "Boiling Point": "168 \u00b0C @ Press: 760 Torr"}}