{"cas_no": "23128-74-7", "cn_name": "\u6297\u6c27\u52421098", "en_name": ["Antioxidant 1098", "Benzenepropanamide, N,N\u2032-1,6-hexanediylbis[3,5-bis(1,1-dimethylethyl)-4-hydroxy-", "Hydrocinnamamide, N,N\u2032-hexamethylenebis[3,5-di-tert-butyl-4-hydroxy-", "N,N\u2032-1,6-Hexanediylbis[3,5-bis(1,1-dimethylethyl)-4-hydroxybenzenepropanamide", "1,6-Bis[3-(3,5-di-tert-butyl-4-hydroxyphenyl)propionamido]hexane", "1,6-Bis[3-(3,5-di-tert-butyl-4-hydroxyphenyl)propionylamino]hexane", "N,N\u2032-Hexamethylenebis[3-(3,5-di-tert-butyl-4-hydroxyphenyl)propionamide]", "1,6-Bis[3-(3,5-di-tert-butyl-4-hydroxyphenyl)propylamido]hexane", "Irganox 1098", "N,N\u2032-Hexamethylenebis(3,5-di-tert-butyl-4-hydroxyhydrocinnamamide)", "1,6-Bis(3,5-di-tert-butyl-4-hydroxyhydrocinnamido)hexane", "IX 1098", "N,N\u2032-Hexamethylenebis(3,5-di-tert-butyl-4-hydroxyhydrocinnamide)", "N,N\u2032-Bis[3-(3,5-di-tert-butyl-4-hydroxyphenyl)propionyl]hexamethylenediamine", "Antioxidant 1098", "N,N\u2032-Hexane-1,6-diylbis[3-(3,5-di-tert-butyl-4-hydroxyphenyl)propionamide]", "Irganox 1090", "Lowinox HD 98", "Irg 1098", "N,N\u2032-Bis[3-(3\u2032,5\u2032-di-tert-butyl-4\u2032-hydroxyphenyl)propionyl]hexamethylenediamine", "TTAD", "GX 2921", "N,N\u2032-1,6-Hexamethylenebis[3-(3,5-di-tert-butyl-4-hydroxyphenyl)propionamide", "N,N\u2032-Bis[3-(3,5-tert-butyl-4-hydroxyphenyl)propionyl]hexamethylenediamine", "HD 98", "Irganox 98", "N,N\u2032-Hexamethylenebis(3,5-di-tert-butyl-4-hydroxybenzenepropionamide)", "3,3\u2032-Bis(3,5-di-tert-butyl-4-hydroxyphenyl)-N,N\u2032-hexamethylenedipropionamide", "Chemnox 1098", "Irganox B 1096", "Antioxidant 1096", "KY 1098", "N,N\u2032-Hexane-1,6-diylbis[3,5-ditert-butyl-4-hydroxyphenylpropionamide)]", "Heat stabilizer 1096", "N,N\u2032-Hexane-1,6-diyl-bis(3-(3,5-di-tert-butyl-4-hydroxyphenylpropionamide))", "N,N\u2032-1,6-Hexamethylenebis-3-(3,5-tert-butyl-4-hydroxyphenyl)propionamide", "N,N\u2032-Bis(3-(3,5-di-tert-butyl-4-hydroxyphenyl)propionyl)hexanediamine", "Rianox 1098", "GC Thanox 1098", "Songnox 1098", "Chinox 1098", "N,N\u2032-Hexamethylenebis[3-(3,5-di-tert-butyl-4-hydroxyphenyl)propionamide]", "AO 1098", "N,N\u2032-Hexamethylenebis(3,5-di-tert-butyl-4-hydroxyhydrocinnamide)", "HP 1098", "Antage HP 300", "A 01098"], "SMILES": "C(CC(NCCCCCCNC(CCC1=CC(C(C)(C)C)=C(O)C(C(C)(C)C)=C1)=O)=O)C2=CC(C(C)(C)C)=C(O)C(C(C)(C)C)=C2", "physical_data": {"Molecular Weight": "636.95", "Molecular Formula": "C40H64N2O4", "Melting Point": "158-159 \u00b0C"}}