{"cas_no": "231291-22-8", "cn_name": "6-\u4e09\u6c1f\u7532\u57fa\u70df\u9178", "en_name": ["6-Trifluoromethylnicotinic acid", "3-Pyridinecarboxylic acid, 6-(trifluoromethyl)-", "6-(Trifluoromethyl)-3-pyridinecarboxylic acid", "6-Trifluoromethylnicotinic acid", "2-Trifluoromethyl-5-pyridinecarboxylic acid"], "SMILES": "C(F)(F)(F)C1=CC=C(C(O)=O)C=N1", "physical_data": {"Molecular Weight": "191.11", "Molecular Formula": "C7H4F3NO2", "Melting Point": "188-189 \u00b0C"}}