{"cas_no": "2312-23-4", "cn_name": "3-\u6c2f\u82ef\u80bc\u76d0\u9178\u76d0", "en_name": ["Hydrazine, (3-chlorophenyl)-, hydrochloride (1:1)", "Hydrazine, (3-chlorophenyl)-, hydrochloride (1:1)", "Hydrazine, (m-chlorophenyl)-, hydrochloride", "Hydrazine, (3-chlorophenyl)-, monohydrochloride", "3-Chlorophenylhydrazine hydrochloride", "m-Chlorophenylhydrazine hydrochloride", "N-(3-Chlorophenyl)hydrazine hydrochloride", "(3-Chlorophenyl)hydrazine monohydrochloride", "2-(3-Chlorophenyl)hydrazinium chloride"], "SMILES": "N(N)C1=CC(Cl)=CC=C1.Cl", "physical_data": {"Molecular Weight": "", "Molecular Formula": "C6H7ClN2.ClH", "Melting Point": "234-235 \u00b0C (decomp)"}}