{"cas_no": "2312-35-8", "cn_name": "\u7094\u87a8\u7279", "en_name": ["Propargite", "Sulfurous acid, 2-[4-(1,1-dimethylethyl)phenoxy]cyclohexyl 2-propyn-1-yl ester", "Sulfurous acid, 2-(p-tert-butylphenoxy)cyclohexyl 2-propynyl ester", "Sulfurous acid, 2-[4-(1,1-dimethylethyl)phenoxy]cyclohexyl 2-propynyl ester", "2-(p-tert-Butylphenoxy)cyclohexyl 2-propynyl sulfite", "Omite", "Naugatuck D 014", "D 014", "Omite 85E", "Propargil", "Propargite", "Comite", "Omite 57E", "2-(p-tert-Butylphenoxy)cyclohexyl propargyl sulfite", "Cyclosulfyne", "BPPS", "Kelaran", "D 014 (ester)", "Comite II", "Acarit 720EC", "2-(4-(tert-Butyl)phenoxy)cyclohexyl prop-2-yn-1-yl sulfite"], "SMILES": "O(C1C(OS(OCC#C)=O)CCCC1)C2=CC=C(C(C)(C)C)C=C2", "physical_data": {"Molecular Weight": "350.47", "Molecular Formula": "C19H26O4S", "Melting Point": "&lt;25 \u00b0C"}}