{"cas_no": "2312-15-4", "cn_name": "4-\u5341\u4e8c\u70f7\u6c27\u57fa\u82ef\u7532\u9178", "en_name": ["4-(Dodecyloxy)benzoic acid", "Benzoic acid, 4-(dodecyloxy)-", "Benzoic acid, p-(dodecyloxy)-", "4-(Dodecyloxy)benzoic acid", "p-(Dodecyloxy)benzoic acid", "4-(n-Dodecyloxy)benzoic acid", "NSC 411", "p-n-Dodecyloxybenzoic acid"], "SMILES": "O(CCCCCCCCCCCC)C1=CC=C(C(O)=O)C=C1", "physical_data": {"Molecular Weight": "306.44", "Molecular Formula": "C19H30O3", "Melting Point": "95 \u00b0C"}}