{"cas_no": "231277-92-2", "cn_name": "\u62c9\u5e15\u66ff\u5c3c", "en_name": ["Lapatinib", "4-Quinazolinamine, N-[3-chloro-4-[(3-fluorophenyl)methoxy]phenyl]-6-[5-[[[2-(methylsulfonyl)ethyl]amino]methyl]-2-furanyl]-", "N-[3-Chloro-4-[(3-fluorophenyl)methoxy]phenyl]-6-[5-[[[2-(methylsulfonyl)ethyl]amino]methyl]-2-furanyl]-4-quinazolinamine", "GW 572016", "Lapatinib", "4-[[3-Chloro-4-(3-fluorobenzyloxy)phenyl]amino]-6-[5-[[(2-methanesulfonylethyl)amino]methyl]furan-2-yl]quinazoline", "GSK 572016", "N-[3-Chloro-4-[(3-fluorobenzyl)oxy]phenyl]-6-[5-[[[2-(methylsulfonyl)ethyl]amino]methyl]-2-furyl]-4-quinazolinamine", "GW 572016X", "N-[3-Chloro-4-[(3-fluorobenzyl)oxy]phenyl]-6-[5-[[[2-(methanesulfonyl)ethyl]amino]methyl]-2-furyl]-4-quinazolinamine", "Tyverb", "N-[3-Chloro-4-[(3-fluorophenyl)methoxy]phenyl]-6-[5-[(2-methylsulfonylethylamino)methyl]furan-2-yl]quinazolin-4-amine", "N-[4-(3-Fluorobenzyloxy)-3-chlorophenyl]-6-[5-[[2-(methylsulfonyl)ethylamino]methyl]furan-2-yl]quinazolin-4-amine", "GD 2016", "Tycerb"], "SMILES": "N(C=1C2=C(C=CC(=C2)C=3OC(CNCCS(C)(=O)=O)=CC3)N=CN1)C4=CC(Cl)=C(OCC5=CC(F)=CC=C5)C=C4", "physical_data": {"Molecular Weight": "581.06", "Molecular Formula": "C29H26ClFN4O4S", "Melting Point": "95-98 \u00b0C"}}