{"cas_no": "2312-73-4", "cn_name": "N-\u82c4\u57fa-9-(\u56db\u6c22-2H-\u5421\u5583-2-\u57fa)\u817a\u560c\u5464", "en_name": ["N-(Phenylmethyl)-9-(tetrahydro-2H-pyran-2-yl)-9H-purin-6-amine", "9H-Purin-6-amine, N-(phenylmethyl)-9-(tetrahydro-2H-pyran-2-yl)-", "Adenine, N-benzyl-9-(tetrahydro-2H-pyran-2-yl)-", "Adenine, N-benzyl-9-(tetrahydropyran-2-yl)-", "N-(Phenylmethyl)-9-(tetrahydro-2H-pyran-2-yl)-9H-purin-6-amine", "SD 8339", "6-(Benzylamino)-9-(2-tetrahydropyranyl)-9H-purine", "N6-Benzyl-9-(tetrahydropyranyl)adenine", "6-(Benzylamino)-9-(2-tetrahydropyranyl)purine", "PBA", "BPA", "6-(Benzylamine)-9-(2-tetrahydropyranyl)-9H-purine", "PBA (growth stimulant)", "ABG 3039", "N6-Benzyl-9-(2-tetrahydropyranyl)adenine", "Acell"], "SMILES": "N(CC1=CC=CC=C1)C2=C3C(N(C=N3)C4CCCCO4)=NC=N2", "physical_data": {"Molecular Weight": "309.37", "Molecular Formula": "C17H19N5O", "Melting Point": "108-110 \u00b0C", "Density": "1.272 g/cm\u00b3"}}