{"cas_no": "23135-22-0", "cn_name": "\u6740\u7ebf\u5a01", "en_name": ["Oxamyl", "Ethanimidothioic acid, 2-(dimethylamino)-N-[[(methylamino)carbonyl]oxy]-2-oxo-, methyl ester", "Oxamimidic acid, N\u2032,N\u2032-dimethyl-N-[(methylcarbamoyl)oxy]-1-thio-, methyl ester", "Carbamic acid, methyl-, O-[[[(dimethylcarbamoyl)methylthio]methylene]amino] deriv.", "Du Pont 1410", "DPX 1410", "Vydate", "Oxamyl", "Oxamyl (pesticide)", "Thioxamyl", "DPX 1410L", "Vydate L", "Vydate G", "Vydate CLV", "NSC 379588", "Methyl 2-(dimethylamino)-N-[(methylcarbamoyl)oxy]-2-oxoethanimidothioate"], "SMILES": "C(C(N(C)C)=O)(=NOC(NC)=O)SC", "physical_data": {"Molecular Weight": "219.26", "Molecular Formula": "C7H13N3O3S", "Melting Point": "101 \u00b0C", "Density": "0.97 g/cm\u00b3 @ Temp: 25 \u00b0C"}}