{"cas_no": "23138-55-8", "cn_name": "3-\u6eb4\u82ef\u57fa\u5f02\u6c30\u9178\u916f", "en_name": ["3-Bromophenyl isocyanate", "Benzene, 1-bromo-3-isocyanato-", "Isocyanic acid, m-bromophenyl ester", "1-Bromo-3-isocyanatobenzene", "3-Bromophenyl isocyanate", "m-Bromophenyl isocyanate", "1-Isocyanato-3-bromobenzene", "3-Isocyanatobromobenzene"], "SMILES": "N(=C=O)C1=CC(Br)=CC=C1", "physical_data": {"Molecular Weight": "198.02", "Molecular Formula": "C7H4BrNO", "Boiling Point": "73.5 \u00b0C @ Press: 6 Torr"}}