{"cas_no": "23138-58-1", "cn_name": "3-\u4e59\u57fa\u5f02\u6c30\u9178\u82ef\u916f", "en_name": ["3-Ethylphenyl isocyanate", "Benzene, 1-ethyl-3-isocyanato-", "Isocyanic acid, m-ethylphenyl ester", "1-Ethyl-3-isocyanatobenzene", "3-Ethylphenyl isocyanate", "m-Ethylphenyl isocyanate", "3-Ethyl-1-isocyanatobenzene"], "SMILES": "N(=C=O)C1=CC(CC)=CC=C1", "physical_data": {"Molecular Weight": "147.17", "Molecular Formula": "C9H9NO", "Boiling Point": "88 \u00b0C @ Press: 33 Torr"}}