{"cas_no": "23132-52-7", "cn_name": "\u95f4\u53d4\u4e01\u57fa\u785d\u57fa\u82ef", "en_name": ["1-(1,1-Dimethylethyl)-3-nitrobenzene", "Benzene, 1-(1,1-dimethylethyl)-3-nitro-", "Benzene, 1-tert-butyl-3-nitro-", "1-(1,1-Dimethylethyl)-3-nitrobenzene", "m-tert-Butylnitrobenzene", "1-tert-Butyl-3-nitrobenzene", "m-Nitro-tert-butylbenzene"], "SMILES": "C(C)(C)(C)C1=CC(N(=O)=O)=CC=C1", "physical_data": {"Molecular Weight": "179.22", "Molecular Formula": "C10H13NO2", "Boiling Point": "254 \u00b0C", "Melting Point": "2 \u00b0C", "Density": "1.0645 g/cm\u00b3 @ Temp: 25 \u00b0C"}}