{"cas_no": "23138-50-3", "cn_name": "4-\u4e59\u57fa\u82ef\u57fa\u5f02\u6c30\u9178\u916f", "en_name": ["1-Ethyl-4-isocyanatobenzene", "Benzene, 1-ethyl-4-isocyanato-", "Isocyanic acid, p-ethylphenyl ester", "1-Ethyl-4-isocyanatobenzene", "p-Ethylphenyl isocyanate", "4-Ethylphenyl isocyanate"], "SMILES": "N(=C=O)C1=CC=C(CC)C=C1", "physical_data": {"Molecular Weight": "147.17", "Molecular Formula": "C9H9NO", "Boiling Point": "101-102 \u00b0C @ Press: 27 Torr"}}