{"cas_no": "23133-37-1", "cn_name": "N-\u4e19\u57fa-4-\u54cc\u5576\u916e", "en_name": ["1-Propyl-4-piperidone", "4-Piperidinone, 1-propyl-", "4-Piperidone, 1-propyl-", "1-Propyl-4-piperidinone", "1-Propyl-4-piperidone", "1-n-Propyl-4-piperidone", "N-Propyl-4-piperidinone", "N-Propyl-4-piperidone"], "SMILES": "C(CC)N1CCC(=O)CC1", "physical_data": {"Molecular Weight": "141.21", "Molecular Formula": "C8H15NO", "Boiling Point": "56 \u00b0C @ Press: 1 Torr"}}