{"cas_no": "2314-48-9", "cn_name": "\u4e09\u786b\u4ee3\u78b3\u9178\u4e8c\u7532\u916f", "en_name": ["Dimethyl trithiocarbonate", "Carbonotrithioic acid, dimethyl ester", "Carbonic acid, trithio-, dimethyl ester", "Dimethyl trithiocarbonate"], "SMILES": "C(SC)(SC)=S", "physical_data": {"Molecular Weight": "138.27", "Molecular Formula": "C3H6S3", "Boiling Point": "63-65 \u00b0C @ Press: 0.1 Torr", "Melting Point": "219-220 \u00b0C"}}