{"cas_no": "23142-01-0", "cn_name": "\u67b8\u6a7c\u9178\u55b7\u6258\u7ef4\u6797", "en_name": ["Carbetapentane citrate", "Cyclopentanecarboxylic acid, 1-phenyl-, 2-[2-(diethylamino)ethoxy]ethyl ester, 2-hydroxy-1,2,3-propanetricarboxylate (1:1)", "Cyclopentanecarboxylic acid, 1-phenyl-, 2-[2-(diethylamino)ethoxy]ethyl ester citrate (1:1)", "Toclase", "Carbetapentane citrate", "Sedotussin", "Pentoxyverine citrate", "Tosnore", "Calnathal", "Antees", "Tuclase", "Fustpentane", "Pencal", "Carbetane", "Germapect", "Cossym", "UCB 2543", "2-(2-(Diethylamino)ethoxy)ethyl 1-phenylcyclopentanecarboxylate 2-hydroxypropane-1,2,3-tricarboxylate"], "SMILES": "C(OCCOCCN(CC)CC)(=O)C1(CCCC1)C2=CC=CC=C2.C(CC(O)=O)(CC(O)=O)(C(O)=O)O", "physical_data": {"Molecular Weight": "", "Molecular Formula": "C20H31NO3.C6H8O7", "Melting Point": "93 \u00b0C"}}