{"cas_no": "2314-97-8", "cn_name": "\u4e09\u6c1f\u7898\u7532\u70f7", "en_name": ["Trifluoroiodomethane", "Methane, trifluoroiodo-", "Trifluoroiodomethane", "Iodotrifluoromethane", "Perfluoromethyl iodide", "Trifluoromethyl iodide", "Freon 13I1", "Monoiodotrifluoromethane", "R 13I1"], "SMILES": "C(F)(F)(F)I", "physical_data": {"Molecular Weight": "195.91", "Molecular Formula": "CF3I", "Boiling Point": "-22.5 \u00b0C"}}