{"cas_no": "23141-27-7", "cn_name": "\u559c\u679c\u82f7", "en_name": ["Vincoside lactam", "Oxayohimban-21-one, 19,20-didehydro-16-ethenyl-17-(\u03b2-D-glucopyranosyloxy)-, (3\u03b2,15\u03b2,16\u03b1,17\u03b2)-", "Vincoside lactam", "5H-Indolo[2,3-a]pyrano[3,4-g]quinolizine, oxayohimban-21-one deriv.", "(3\u03b2,15\u03b2,16\u03b1,17\u03b2)-19,20-Didehydro-16-ethenyl-17-(\u03b2-D-glucopyranosyloxy)oxayohimban-21-one", "Vincosamide", "3-epi-Strictosamide"], "SMILES": "O=C1N2C(C3=C(C=4C(N3)=CC=CC4)CC2)CC5C1=COC(OC6OC(CO)C(O)C(O)C6O)C5C=C", "physical_data": {"Molecular Weight": "498.52", "Molecular Formula": "C26H30N2O8", "Melting Point": "194-196 \u00b0C"}}