{"cas_no": "2314-09-2", "cn_name": "9-\u7f9f\u57fa\u82b4-9-\u7fa7\u9178\u4e01\u916f", "en_name": ["Flurenol-butyl", "9H-Fluorene-9-carboxylic acid, 9-hydroxy-, butyl ester", "Fluorene-9-carboxylic acid, 9-hydroxy-, butyl ester", "IT 3233", "Butyl morphactin", "Butyl 9-hydroxyfluorene-9-carboxylate", "TH 407-H", "Morphactin IT 3233", "Flurecol-butyl", "9-Hydroxyfluorene-9-carboxylic acid butyl ester", "9-Hydroxy-9H-fluorene-9-carboxylic acid butyl ester", "Butyl 9-hydroxyfluorenyl-9-carboxylate", "EMD 7311W", "Flurenol butyl ester", "Flurenol ester", "Butyl flurenol", "EMD IT 3233", "Flurenol-butyl"], "SMILES": "C(OCCCC)(=O)C1(O)C=2C(C=3C1=CC=CC3)=CC=CC2", "physical_data": {"Molecular Weight": "282.33", "Molecular Formula": "C18H18O3", "Melting Point": "71 \u00b0C"}}