{"cas_no": "23141-61-9", "cn_name": "6-\u7532\u57fa-5-\u785d\u57fa\u55b9\u5549", "en_name": ["6-Methyl-5-nitroquinoline", "Quinoline, 6-methyl-5-nitro-", "6-Methyl-5-nitroquinoline", "5-Nitro-6-methylquinoline", "NSC 162892"], "SMILES": "N(=O)(=O)C=1C2=C(C=CC1C)N=CC=C2", "physical_data": {"Molecular Weight": "188.18", "Molecular Formula": "C10H8N2O2", "Melting Point": "116-117 \u00b0C"}}