{"cas_no": "2314-37-6", "cn_name": "3-IODO-4-METHOXYBENZALDEHYDE", "en_name": ["3-Iodo-4-methoxybenzaldehyde", "Benzaldehyde, 3-iodo-4-methoxy-", "p-Anisaldehyde, 3-iodo-", "3-Iodo-4-methoxybenzaldehyde"], "SMILES": "C(=O)C1=CC(I)=C(OC)C=C1", "physical_data": {"Molecular Weight": "262.04", "Molecular Formula": "C8H7IO2", "Melting Point": "104-106 \u00b0C"}}