{"cas_no": "23144-52-7", "cn_name": "8-\u6c2f-1-\u8f9b\u9187", "en_name": ["8-Chloro-1-octanol", "1-Octanol, 8-chloro-", "8-Chloro-1-octanol", "8-Chlorooctan-1-ol", "1-Chlorooctan-8-ol", "NSC 5514", "8-Chlorooctanol"], "SMILES": "C(CCCCO)CCCCl", "physical_data": {"Molecular Weight": "164.67", "Molecular Formula": "C8H17ClO", "Boiling Point": "125-140 \u00b0C @ Press: 18 Torr"}}