{"cas_no": "23141-25-5", "cn_name": "STRICTOSAMIDE", "en_name": ["Strictosamide", "5H-Indolo[2,3-a]pyrano[3,4-g]quinolizin-5-one, 1-ethenyl-2-(\u03b2-D-glucopyranosyloxy)-1,2,7,8,13,13b,14,14a-octahydro-, (1R,2S,13bS,14aS)-", "Strictosamide", "Oxayohimban-21-one, 19,20-didehydro-16-ethenyl-17-(\u03b2-D-glucopyranosyloxy)-, (15\u03b2,16\u03b1,17\u03b2)-", "5H-Indolo[2,3-a]pyrano[3,4-g]quinolizine, oxayohimban-21-one deriv.", "(1R,2S,13bS,14aS)-1-Ethenyl-2-(\u03b2-D-glucopyranosyloxy)-1,2,7,8,13,13b,14,14a-octahydro-5H-indolo[2,3-a]pyrano[3,4-g]quinolizin-5-one", "Isovincoside lactam", "Strictosidine lactam", "3-epi-Vincosamide", "(-)-Strictosamide"], "SMILES": "O=C1N2C(C3=C(C=4C(N3)=CC=CC4)CC2)CC5C1=COC(OC6OC(CO)C(O)C(O)C6O)C5C=C", "physical_data": {"Molecular Weight": "498.52", "Molecular Formula": "C26H30N2O8", "Melting Point": "176-177 \u00b0C"}}