{"cas_no": "2314-78-5", "cn_name": "N-\u4e59\u57fa\u7425\u73c0\u9170\u4e9a\u80fa", "en_name": ["N-Ethylsuccinimide", "2,5-Pyrrolidinedione, 1-ethyl-", "Succinimide, N-ethyl-", "1-Ethyl-2,5-pyrrolidinedione", "N-Ethylsuccinimide", "NSC 38693"], "SMILES": "C(C)N1C(=O)CCC1=O", "physical_data": {"Molecular Weight": "127.14", "Molecular Formula": "C6H9NO2", "Boiling Point": "236 \u00b0C", "Melting Point": "26 \u00b0C"}}