{"cas_no": "2315-68-6", "cn_name": "\u82ef\u7532\u9178\u4e19\u916f", "en_name": ["Propyl benzoate", "Benzoic acid, propyl ester", "Propyl benzoate", "n-Propyl benzoate", "NSC 229333"], "SMILES": "C(OCCC)(=O)C1=CC=CC=C1", "physical_data": {"Molecular Weight": "164.20", "Molecular Formula": "C10H12O2", "Boiling Point": "211 \u00b0C", "Melting Point": "-51.6 \u00b0C", "Density": "1.03606 g/cm\u00b3 @ Temp: 5.00 \u00b0C"}}