{"cas_no": "2315-20-0", "cn_name": "\u785d\u544b\u70ef\u8159\u76d0\u9178\u76d0", "en_name": ["Hydrazinecarboximidamide, 2-[3-(5-nitro-2-furanyl)-1-[2-(5-nitro-2-furanyl)ethenyl]-2-propen-1-ylidene]-, hydrochloride (1:1)", "Hydrazinecarboximidamide, 2-[3-(5-nitro-2-furanyl)-1-[2-(5-nitro-2-furanyl)ethenyl]-2-propen-1-ylidene]-, hydrochloride (1:1)", "Guanidine, [[3-(5-nitro-2-furyl)-1-[2-(5-nitro-2-furyl)vinyl]allylidene]amino]-, monohydrochloride", "Hydrazinecarboximidamide, 2-[3-(5-nitro-2-furanyl)-1-[2-(5-nitro-2-furanyl)ethenyl]-2-propenylidene]-, monohydrochloride", "Payzone", "1,5-Bis(5-nitro-2-furyl)penta-1,4-dien-3-one amidinohydrazone hydrochloride", "Panazon", "IF 326", "Payzone 250"], "SMILES": "C(=CC(C=CC=1OC(N(=O)=O)=CC1)=NNC(=N)N)C=2OC(N(=O)=O)=CC2.Cl", "physical_data": {"Molecular Weight": "", "Molecular Formula": "C14H12N6O6.ClH", "Melting Point": "280 \u00b0C (decomp)"}}