{"cas_no": "2315-36-8", "cn_name": "N,N-\u4e8c\u4e59\u57fa-2-\u6c2f\u4e59\u9170\u80fa", "en_name": ["Chloro-N,N-diethylacetamide", "Acetamide, 2-chloro-N,N-diethyl-", "2-Chloro-N,N-diethylacetamide", "\u03b1-Chloro-N,N-diethylacetamide", "N-(Chloroacetyl)diethylamine", "N,N-Diethyl-2-chloroacetamide", "N,N-Diethylchloroacetamide", "Chloro-N,N-diethylacetamide", "2-(Diethylamino)-2-oxoethyl chloride", "CDEA", "NSC 1726", "N-(2-Chloroacetyl)diethylamine"], "SMILES": "N(C(CCl)=O)(CC)CC", "physical_data": {"Molecular Weight": "149.62", "Molecular Formula": "C6H12ClNO", "Boiling Point": "148-150 \u00b0C", "Melting Point": "58 \u00b0C", "Density": "1.0733 g/cm\u00b3 @ Temp: 20 \u00b0C"}}