{"cas_no": "2315-86-8", "cn_name": "3-\u6eb4-4-\u7f9f\u57fa\u6c30\u82ef", "en_name": ["3-Bromo-4-hydroxybenzonitrile", "Benzonitrile, 3-bromo-4-hydroxy-", "3-Bromo-4-hydroxybenzonitrile", "2-Bromo-4-cyanophenol"], "SMILES": "C(#N)C1=CC(Br)=C(O)C=C1", "physical_data": {"Molecular Weight": "198.02", "Molecular Formula": "C7H4BrNO", "Melting Point": "153-154 \u00b0C"}}