{"cas_no": "23159-07-1", "cn_name": "1-(3-\u6c28\u57fa\u4e19\u57fa)\u5421\u54af\u70f7", "en_name": ["1-Pyrrolidinepropanamine", "1-Pyrrolidinepropanamine", "Pyrrolidine, 1-(3-aminopropyl)-", "1-(3-Aminopropyl)pyrrolidine", "3-Pyrrolidinopropylamine", "3-(1-Pyrrolidinyl)propylamine", "N-(3-Aminopropyl)pyrrolidine", "NSC 345670", "3-Pyrrolidin-1-ylpropan-1-amine", "3-Pyrrolidinopropanamine"], "SMILES": "C(CCN)N1CCCC1", "physical_data": {"Molecular Weight": "128.22", "Molecular Formula": "C7H16N2", "Boiling Point": "85-87 \u00b0C @ Press: 26 Torr", "Melting Point": "215-217 \u00b0C"}}