{"cas_no": "2315-02-8", "cn_name": "\u76d0\u9178\u7f9f\u7532\u5511\u5549", "en_name": ["Oxymetazoline hydrochloride", "Phenol, 3-[(4,5-dihydro-1H-imidazol-2-yl)methyl]-6-(1,1-dimethylethyl)-2,4-dimethyl-, hydrochloride (1:1)", "Phenol, 6-tert-butyl-3-(2-imidazolin-2-ylmethyl)-2,4-dimethyl-, monohydrochloride", "Phenol, 3-[(4,5-dihydro-1H-imidazol-2-yl)methyl]-6-(1,1-dimethylethyl)-2,4-dimethyl-, monohydrochloride", "Phenol, 6-tert-butyl-3-(2-imidazolin-2-ylmethyl)-2,4-dimethyl-, hydrochloride", "H 990", "Afrin", "Afrin hydrochloride", "2-(4-tert-Butyl-2,6-dimethyl-3-hydroxybenzyl)-2-imidazolinium chloride", "6-tert-Butyl-3-(2-imidazolin-2-ylmethyl)-2,4-dimethylphenol hydrochloride", "2,6-Dimethyl-4-tertiarybutyl-3-hydroxyphenyl)methylimidazoline hydrochloride", "Nasivin", "Oxymetazoline chloride", "Oxymetazoline hydrochloride", "Duration 12 Hour Nasal Spray", "4-Way Nasal Spray", "Nostrilla", "Neo-Synephrine 12 Hour NTZ", "Dristan Long-Lasting Nasal Mist", "Allerest 12 Hour Nasal Spray", "Ocuclear", "Neo-Synephrine 12 Hour", "Iliadin", "Nafrine", "Sch 9384", "Afrazine", "Oxilin", "Duration", "4-Way Nasal 12 Hour Spray", "Respir"], "SMILES": "C(C1=C(C)C(O)=C(C(C)(C)C)C=C1C)C=2NCCN2.Cl", "physical_data": {"Molecular Weight": "", "Molecular Formula": "C16H24N2O.ClH", "Melting Point": "300-303 \u00b0C (decomp)"}}