{"cas_no": "23155-02-4", "cn_name": "\u78f7\u9709\u7d20", "en_name": ["Fosfomycin", "Phosphonic acid, P-[(2R,3S)-3-methyl-2-oxiranyl]-", "Phosphonic acid, (1,2-epoxypropyl)-, (1R,2S)-(-)-", "Phosphonic acid, (3-methyloxiranyl)-, (2R-cis)-", "Phosphonic acid, [(2R,3S)-3-methyloxiranyl]-", "P-[(2R,3S)-3-Methyl-2-oxiranyl]phosphonic acid", "Phosphonomycin", "Antibiotic 833A", "Fosfomycin", "(-)-(cis-1,2-Epoxypropyl)phosphonic acid", "(2R-cis)-(3-Methyloxiranyl)phosphonic acid", "(-)-(1R,2S)-(1,2-Epoxypropyl)phosphonic acid", "Fosfonomycin", "Fosfocina", "Phosphomycin", "MK 0955", "Fosfomicin", "Levo-phosphonomycin", "(-)-Phosphonomycin", "[(2R,3S)-3-Methyloxiranyl]phosphonic acid", "Infectophos", "ZTI 01", "MeSH ID: D005578"], "SMILES": "P(=O)(O)(O)C1C(C)O1", "physical_data": {"Molecular Weight": "138.06", "Molecular Formula": "C3H7O4P", "Melting Point": "94 \u00b0C"}}