{"cas_no": "2315-67-5", "cn_name": "\u8f9b\u57fa\u915a\u805a\u919a-3", "en_name": ["4-Octylphenol monoethoxylate", "Ethanol, 2-[4-(1,1,3,3-tetramethylbutyl)phenoxy]-", "Ethanol, 2-[p-(1,1,3,3-tetramethylbutyl)phenoxy]-", "2-[4-(1,1,3,3-Tetramethylbutyl)phenoxy]ethanol", "2-(4-tert-Octylphenoxy)ethanol", "NSC 5259", "p-tert-Octylphenyl (2-hydroxyethyl) ether", "4-Octylphenol monoethoxylate", "Ethylene glycol p-octylphenyl ether", "2-(p-Octylphenoxy)ethanol", "2-[4-(2,4,4-Trimethylpentan-2-yl)phenoxy]ethanol", "2-[4-(2,4,4-Trimethylpentan-2-yl)phenoxy]ethan-1-ol"], "SMILES": "C(CC(C)(C)C)(C)(C)C1=CC=C(OCCO)C=C1", "physical_data": {"Molecular Weight": "250.38", "Molecular Formula": "C16H26O2", "Boiling Point": "192-193 \u00b0C @ Press: 2.4 kPa", "Density": "0.980-0.990 g/cm\u00b3 @ Temp: 25 \u00b0C"}}