{"cas_no": "23150-65-4", "cn_name": "L-\u8c37\u6c28\u9178\u4e8c\u7532\u916f\u76d0\u9178\u76d0", "en_name": ["L-Glutamic acid, 1,5-dimethyl ester, hydrochloride (1:1)", "L-Glutamic acid, 1,5-dimethyl ester, hydrochloride (1:1)", "Glutamic acid, dimethyl ester, hydrochloride, L-", "L-Glutamic acid, dimethyl ester, hydrochloride", "Dimethyl L-glutamate hydrochloride", "Glutamic acid dimethyl ester hydrochloride", "Dimethyl glutamate hydrochloride", "NSC 83254", "Dimethyl (S)-2-aminopentanedioate hydrochloride", "L-Glu(OMe)OMe hydrochloride", "1,5-Dimethyl (2S)-2-aminopentanedioate hydrochloride"], "SMILES": "C(CCC(OC)=O)(C(OC)=O)N.Cl", "physical_data": {"Molecular Weight": "", "Molecular Formula": "C7H13NO4.ClH", "Melting Point": "149 \u00b0C"}}