{"cas_no": "2315-97-1", "cn_name": "N,N\u4e8c\u7532\u57fa\u4e8c\u5416\u5576\u785d\u9178\u76d0", "en_name": ["Lucigenin", "9,9\u2032-Biacridinium, 10,10\u2032-dimethyl-, nitrate (1:2)", "9,9\u2032-Biacridinium, 10,10\u2032-dimethyl-, dinitrate", "10,10\u2032-Dimethyl-9,9\u2032-biacridinium dinitrate", "Lucigenin", "Lucigenin nitrate", "Lucigenine", "N,N\u2032-Dimethyl-9,9\u2032-biacridinium dinitrate", "NSC 151912", "L 6868"], "SMILES": "N(=O)(=O)[O-].C[N+]=1C2=C(C(=C3C1C=CC=C3)C=4C5=C([N+](C)=C6C4C=CC=C6)C=CC=C5)C=CC=C2", "physical_data": {"Molecular Weight": "", "Molecular Formula": "C28H22N2.2NO3", "Melting Point": "&gt;330 \u00b0C"}}