{"cas_no": "23165-60-8", "cn_name": "4-\u7532\u6c27\u57fa-2-\u785d\u82ef\u57fa\u5f02\u6c30\u9178\u916f", "en_name": ["Benzene, 1-isothiocyanato-4-methoxy-2-nitro-", "Benzene, 1-isothiocyanato-4-methoxy-2-nitro-", "Isothiocyanic acid, 4-methoxy-2-nitrophenyl ester", "4-Methoxy-2-nitrophenyl isothiocyanate", "1-Isothiocyanato-4-methoxy-2-nitrobenzene", "1-Isothiocyanato-4-methoxy-2-nitro-benzene"], "SMILES": "N(=O)(=O)C1=C(N=C=S)C=CC(OC)=C1", "physical_data": {"Molecular Weight": "210.21", "Molecular Formula": "C8H6N2O3S", "Melting Point": "90 \u00b0C"}}