{"cas_no": "2316-26-9", "cn_name": "3,4-\u4e8c\u7532\u6c27\u57fa\u8089\u6842\u9178", "en_name": ["3\u2032,4\u2032-Dimethoxycinnamic acid", "2-Propenoic acid, 3-(3,4-dimethoxyphenyl)-", "Cinnamic acid, 3,4-dimethoxy-", "3-(3,4-Dimethoxyphenyl)-2-propenoic acid", "3,4-Dimethoxycinnamic acid", "Caffeic acid dimethyl ether", "3,4-Dimethoxyphenyl-2-propenoic acid", "Methylferulic acid", "O,O-Dimethylcaffeic acid", "O-Methylferulic acid", "3,4-Di-O-methylcaffeic acid", "3\u2032,4\u2032-Dimethoxycinnamic acid", "NSC 4323", "NSC 43569", "3-(3,4-Dimethoxyphenyl)acrylic acid"], "SMILES": "O(C)C1=C(OC)C=CC(C=CC(O)=O)=C1", "physical_data": {"Molecular Weight": "208.21", "Molecular Formula": "C11H12O4", "Melting Point": "181-183 \u00b0C"}}