{"cas_no": "2316-64-5", "cn_name": "5-\u6eb4-2-\u7f9f\u57fa\u82ef\u7532\u9187", "en_name": ["5-Bromo-2-hydroxybenzyl alcohol", "Benzenemethanol, 5-bromo-2-hydroxy-", "Benzyl alcohol, 5-bromo-2-hydroxy-", "5-Bromo-2-hydroxybenzenemethanol", "5-Bromosalicyl alcohol", "5-Bromosaligenin", "Bromsalizol", "5-Bromo-2-hydroxybenzyl alcohol", "Bromosaligenin", "2-Hydroxy-5-bromobenzyl alcohol", "2-Hydroxymethyl-4-bromophenol", "4-Bromo-2-(hydroxymethyl)phenol", "NSC 13010"], "SMILES": "C(O)C1=C(O)C=CC(Br)=C1", "physical_data": {"Molecular Weight": "203.03", "Molecular Formula": "C7H7BrO2", "Melting Point": "113 \u00b0C"}}