{"cas_no": "23165-44-8", "cn_name": "4-\u6b63\u4e01\u57fa\u82ef\u915a\u5f02\u786b\u6c30\u9178\u916f", "en_name": ["1-Butyl-4-isothiocyanatobenzene", "Benzene, 1-butyl-4-isothiocyanato-", "Isothiocyanic acid, p-butylphenyl ester", "1-Butyl-4-isothiocyanatobenzene", "4-Butylphenyl isothiocyanate", "4-n-Butylphenyl isothiocyanate"], "SMILES": "C(CCC)C1=CC=C(N=C=S)C=C1", "physical_data": {"Molecular Weight": "191.29", "Molecular Formula": "C11H13NS", "Boiling Point": "165-168 \u00b0C @ Press: 17 Torr"}}