{"cas_no": "23163-86-2", "cn_name": "4-\u6c2f-3-\u4e09\u6c1f\u7532\u57fa\u786b\u6c30\u9178\u82ef\u916f", "en_name": ["1-Chloro-4-isothiocyanato-2-(trifluoromethyl)benzene", "Benzene, 1-chloro-4-isothiocyanato-2-(trifluoromethyl)-", "Isothiocyanic acid, 4-chloro-\u03b1,\u03b1,\u03b1-trifluoro-m-tolyl ester", "1-Chloro-4-isothiocyanato-2-(trifluoromethyl)benzene", "4-Chloro-3-(trifluoromethyl)phenyl isothiocyanate"], "SMILES": "C(F)(F)(F)C1=CC(N=C=S)=CC=C1Cl", "physical_data": {"Molecular Weight": "237.63", "Molecular Formula": "C8H3ClF3NS", "Boiling Point": "115 \u00b0C @ Press: 12 Torr"}}