{"cas_no": "23165-46-0", "cn_name": "2,4,5-\u4e09\u6c2f\u5f02\u786b\u6c30\u9178\u82ef\u916f", "en_name": ["1,2,4-Trichloro-5-isothiocyanatobenzene", "Benzene, 1,2,4-trichloro-5-isothiocyanato-", "Isothiocyanic acid, 2,4,5-trichlorophenyl ester", "1,2,4-Trichloro-5-isothiocyanatobenzene", "2,4,5-Trichlorophenyl isothiocyanate"], "SMILES": "N(=C=S)C1=C(Cl)C=C(Cl)C(Cl)=C1", "physical_data": {"Molecular Weight": "238.52", "Molecular Formula": "C7H2Cl3NS", "Boiling Point": "280 \u00b0C", "Melting Point": "47-49 \u00b0C"}}