{"cas_no": "23165-53-9", "cn_name": "4-\u6c2f-2-\u7532\u57fa\u82ef\u57fa\u5f02\u786b\u6c30\u9178\u916f", "en_name": ["4-Chloro-1-isothiocyanato-2-methylbenzene", "Benzene, 4-chloro-1-isothiocyanato-2-methyl-", "Isothiocyanic acid, 4-chloro-o-tolyl ester", "4-Chloro-1-isothiocyanato-2-methylbenzene", "4-Chloro-2-methylphenyl isothiocyanate", "4-Chloro-o-tolyl isothiocyanate", "2-Methyl-4-chlorophenyl isothiocyanate"], "SMILES": "N(=C=S)C1=C(C)C=C(Cl)C=C1", "physical_data": {"Molecular Weight": "183.66", "Molecular Formula": "C8H6ClNS", "Boiling Point": "136 \u00b0C @ Press: 13 Torr", "Melting Point": "37-38 \u00b0C"}}