{"cas_no": "2317-91-1", "cn_name": "1-\u6c2f-1-\u6c1f\u4e59\u70ef", "en_name": ["Ethene, 1-chloro-1-fluoro-", "Ethene, 1-chloro-1-fluoro-", "Ethylene, 1-chloro-1-fluoro-", "1-Chloro-1-fluoroethylene", "1-Chloro-1-fluoroethene", "1-Fluoro-1-chloroethylene", "F 1131a", "HCFC 1131a", "R 1131a", "HCFO 1131a", "HFO 1131a"], "SMILES": "C(=C)(Cl)F", "physical_data": {"Molecular Weight": "80.49", "Molecular Formula": "C2H2ClF", "Boiling Point": "-12-10 \u00b0C", "Density": "2.618 g/cm\u00b3"}}