{"cas_no": "23184-66-9", "cn_name": "\u4e01\u8349\u80fa", "en_name": ["Butachlor", "Acetamide, N-(butoxymethyl)-2-chloro-N-(2,6-diethylphenyl)-", "Acetanilide, N-(butoxymethyl)-2-chloro-2\u2032,6\u2032-diethyl-", "N-(Butoxymethyl)-2-chloro-N-(2,6-diethylphenyl)acetamide", "CP 53619", "2\u2032,6\u2032-Diethyl-N-butoxymethyl-2-chloroacetanilide", "2\u2032,6\u2032-Diethyl-N-butoxymethyl-\u03b1-chloroacetanilide", "2-Chloro-2\u2032,6\u2032-diethyl-N-(butoxymethyl)acetanilide", "Butachlor", "Machete", "Machete (herbicide)", "N-(Butoxymethyl)-2-chloro-2\u2032,6\u2032-diethylacetanilide", "Machette", "2-Chloro-2\u2032,6\u2032-diethyl-N-(butoxymethyl)acetoanilide", "Butaclor", "Hiltachlor", "Delchlor", "Delchlor 5G", "Bilchlor", "NSC 221683", "Machet", "Dingcaoan"], "SMILES": "N(COCCCC)(C(CCl)=O)C1=C(CC)C=CC=C1CC", "physical_data": {"Molecular Weight": "311.85", "Molecular Formula": "C17H26ClNO2", "Boiling Point": "156 \u00b0C @ Press: 0.5 Torr", "Melting Point": "&lt;-5 \u00b0C", "Density": "1.070 g/cm\u00b3 @ Temp: 25 \u00b0C"}}