{"cas_no": "2318-25-4", "cn_name": "\u6210\u8272\u5242N-201", "en_name": ["Ethyl 3-ethoxy-3-iminopropanoate hydrochloride", "Propanoic acid, 3-ethoxy-3-imino-, ethyl ester, hydrochloride (1:1)", "Acetic acid, (1-ethoxyformimidoyl)-, ethyl ester, hydrochloride", "Propanoic acid, 3-ethoxy-3-imino-, ethyl ester, hydrochloride", "Ethyl carbethoxyacetimidate hydrochloride", "Ethyl \u03b2-ethoxy-\u03b2-iminopropionate hydrochloride", "Ethyl 3-ethoxy-3-iminopropionate hydrochloride", "Ethyl (ethoxycarbonyl)acetimidate hydrochloride", "Ethyl 3-ethoxy-3-iminopropanoate hydrochloride", "Ethyl 2-(ethoxycarbonyl)acetimidate hydrochloride", "\u03b2-Ethoxy-\u03b2-iminopropionic acid ethyl ester hydrochloride", "3-Ethoxy-3-iminopropanoic acid ethyl ester hydrochloride", "2-(Ethoxycarbonyl)acetimidic acid ethyl ester hydrochloride", "3-Ethoxy-3-oxo-1-ethoxypropan-1-imine hydrochloride", "3-Ethoxy-3-iminopropionic acid ethyl ester hydrochloride"], "SMILES": "C(CC(OCC)=O)(OCC)=N.Cl", "physical_data": {"Molecular Weight": "", "Molecular Formula": "C7H13NO3.ClH", "Melting Point": "111-113 \u00b0C (decomp)"}}