{"cas_no": "2318-18-5", "cn_name": "\u6c27\u5316\u82e6\u53c2\u78b1\u53c8\u540d\u82e6\u53c2\u7d20", "en_name": ["Senkirkine", "2,9-Dioxa-14-azabicyclo[9.5.1]heptadec-11-ene-3,8,17-trione, 4-ethylidene-7-hydroxy-6,7,14-trimethyl-, (1R,4Z,6R,7R)-", "4,8-Secosenecionan-8,11,16-trione, 12-hydroxy-4-methyl-", "2,3,5,7a-Tetrahydro-1,7a-dihydroxy-7-(hydroxymethyl)-4-methyl-1H-pyrrolizinium hydroxide, inner salt, cyclic diester with senecic acid", "(1R,4Z,6R,7R)-4-Ethylidene-7-hydroxy-6,7,14-trimethyl-2,9-dioxa-14-azabicyclo[9.5.1]heptadec-11-ene-3,8,17-trione", "Renardine (neutral)", "2,9-Dioxa-14-azabicyclo[9.5.1]heptadec-11-ene-3,8,17-trione, 4-ethylidene-7-hydroxy-6,7,14-trimethyl-, [1R-(1R*,4Z,6R*,7R*)]-", "Senkirkine (neutral)", "Senkirkine", "Renardine", "Renardin", "Senkirkin", "NSC 89945"], "SMILES": "O=C1C2OC(=O)C(=CC)CC(C)C(C)(O)C(=O)OCC1=CCN(C)CC2", "physical_data": {"Molecular Weight": "365.42", "Molecular Formula": "C19H27NO6", "Melting Point": "198 \u00b0C"}}