{"cas_no": "2319-29-1", "cn_name": "\u7678\u70f7\u9170\u80fa", "en_name": ["Decanamide", "Decanamide", "n-Decanamide", "Decanoic acid amide", "Capramide", "Decylamide", "Armid 10", "NSC 57564", "Capric acid amide"], "SMILES": "C(CCCCCC)CCC(N)=O", "physical_data": {"Molecular Weight": "171.28", "Molecular Formula": "C10H21NO", "Melting Point": "108 \u00b0C"}}