{"cas_no": "23199-56-6", "cn_name": "2,2,2-\u4e09\u6c1f\u4e59\u57fa", "en_name": ["Methanesulfonic acid, 1,1,1-trichloro-, 2,2,2-trifluoroethyl ester", "Methanesulfonic acid, 1,1,1-trichloro-, 2,2,2-trifluoroethyl ester", "Methanesulfonic acid, trichloro-, 2,2,2-trifluoroethyl ester", "Ethanol, 2,2,2-trifluoro-, trichloromethanesulfonate", "2,2,2-Trifluoroethyl trichloromethanesulfonate", "2,2,2-Trifluoroethyl trichloromethanesulphonat"], "SMILES": "S(C(Cl)(Cl)Cl)(OCC(F)(F)F)(=O)=O", "physical_data": {"Molecular Weight": "281.47", "Molecular Formula": "C3H2Cl3F3O3S", "Boiling Point": "84-86.8 \u00b0C @ Press: 20 Torr"}}