{"cas_no": "23202-81-5", "cn_name": "\u7532\u57fa-5-\u8131\u6c27-2,3-O-\u5f02\u4e9a\u4e19\u57fa-beta-D-\u544b\u5583\u6838\u7cd6\u82f7", "en_name": ["Methyl 5-deoxy-2,3-O-(1-methylethylidene)-\u03b2-D-ribofuranoside", "\u03b2-D-Ribofuranoside, methyl 5-deoxy-2,3-O-(1-methylethylidene)-", "Ribofuranoside, methyl 5-deoxy-2,3-O-isopropylidene-, \u03b2-D-", "Furo[3,4-d]-1,3-dioxole, \u03b2-D-ribofuranoside deriv.", "Methyl 5-deoxy-2,3-O-(1-methylethylidene)-\u03b2-D-ribofuranoside", "Methyl 5-deoxy-2,3-O-isopropylidene-\u03b2-D-ribofuranoside"], "SMILES": "O(C)C1C2C(OC(C)(C)O2)C(C)O1", "physical_data": {"Molecular Weight": "188.22", "Molecular Formula": "C9H16O4", "Boiling Point": "150-155 \u00b0C @ Press: 80 Torr"}}