{"cas_no": "23202-85-9", "cn_name": "\u7f57\u6c49\u677e\u8102\u82f7", "en_name": ["Matairesinoside", "2(3H)-Furanone, 3-[[4-(\u03b2-D-glucopyranosyloxy)-3-methoxyphenyl]methyl]dihydro-4-[(4-hydroxy-3-methoxyphenyl)methyl]-, (3R,4R)-", "2(3H)-Furanone, 3-[[4-(\u03b2-D-glucopyranosyloxy)-3-methoxyphenyl]methyl]dihydro-4-[(4-hydroxy-3-methoxyphenyl)methyl]-, (3R-trans)-", "Matairesinoside", "(3R,4R)-3-[[4-(\u03b2-D-Glucopyranosyloxy)-3-methoxyphenyl]methyl]dihydro-4-[(4-hydroxy-3-methoxyphenyl)methyl]-2(3H)-furanone", "(-)-Matairesinol 4-O-glucoside"], "SMILES": "C(C1C(CC2=CC(OC)=C(OC3OC(CO)C(O)C(O)C3O)C=C2)C(=O)OC1)C4=CC(OC)=C(O)C=C4", "physical_data": {"Molecular Weight": "520.53", "Molecular Formula": "C26H32O11", "Melting Point": "93-96 \u00b0C"}}