{"cas_no": "23214-92-8", "cn_name": "\u963f\u9709\u7d20", "en_name": ["Doxorubicin", "5,12-Naphthacenedione, 10-[(3-amino-2,3,6-trideoxy-\u03b1-L-lyxo-hexopyranosyl)oxy]-7,8,9,10-tetrahydro-6,8,11-trihydroxy-8-(2-hydroxyacetyl)-1-methoxy-, (8S,10S)-", "5,12-Naphthacenedione, 10-[(3-amino-2,3,6-trideoxy-\u03b1-L-lyxo-hexopyranosyl)oxy]-7,8,9,10-tetrahydro-6,8,11-trihydroxy-8-(hydroxyacetyl)-1-methoxy-, (8S-cis)-", "5,12-Naphthacenedione, 10-[(3-amino-2,3,6-trideoxy-\u03b1-L-lyxo-hexopyranosyl)oxy]-7,8,9,10-tetrahydro-6,8,11-trihydroxy-8-(hydroxyacetyl)-1-methoxy-, (8S,10S)-", "(8S,10S)-10-[(3-Amino-2,3,6-trideoxy-\u03b1-L-lyxo-hexopyranosyl)oxy]-7,8,9,10-tetrahydro-6,8,11-trihydroxy-8-(2-hydroxyacetyl)-1-methoxy-5,12-naphthacenedione", "14-Hydroxydaunomycin", "Doxorubicin", "NSC 123127", "Doxil", "Caelyx", "Evacet", "PK 2", "Biotransdox", "Rubex", "Hydroxydaunomycin", "Hydroxydaunorubicin", "Rubidox", "(7S,9S)-7-[(2R,4S,5S,6S)-4-Amino-5-hydroxy-6-methyloxan-2-yl]oxy-6,9,1 1-trihydroxy-9-(2-hydroxyacetyl)-4-methoxy-8,10-dihydro-7H-tetracene-5,12-dione", "Liporubicin", "Oncodox", "Caelix", "Livatag", "Ameisu", "Thermodox", "MeSH ID: D004317"], "SMILES": "OC=1C2=C(C(OC3CC(N)C(O)C(C)O3)CC(C(CO)=O)(O)C2)C(O)=C4C1C(=O)C=5C(C4=O)=C(OC)C=CC5", "physical_data": {"Molecular Weight": "543.52", "Molecular Formula": "C27H29NO11", "Melting Point": "204 \u00b0C"}}