{"cas_no": "2321-07-5", "cn_name": "\u8367\u5149\u7d20", "en_name": ["Fluorescein", "Spiro[isobenzofuran-1(3H),9\u2032-[9H]xanthen]-3-one, 3\u2032,6\u2032-dihydroxy-", "Fluorescein", "3\u2032,6\u2032-Dihydroxyspiro[isobenzofuran-1(3H),9\u2032-[9H]xanthen]-3-one", "Resorcinolphthalein", "3\u2032,6\u2032-Fluorandiol", "3,6-Dihydroxyspiro[xanthene-9,3\u2032-phthalide]", "Fluorescein acid", "D and C Yellow No. 7", "3\u2032,6\u2032-Dihydroxyfluoran", "9-(o-Carboxyphenyl)-6-hydroxy-3-isoxanthenone", "Benzoic acid, 2-(6-hydroxy-3-oxo-3H-xanthen-9-yl)-", "C.I. 45350:1", "Japan Yellow 201", "Japan Yellow No. 201", "Yellow fluorescein", "C.I. Solvent Yellow 94", "Solvent Yellow 94", "D&", "C Yellow No. 7", "NSC 667256", "D&", "C Yellow 7", "Yellow No. 201", "3\u2032,6\u2032-Dihydroxyspiro[2-benzofuran-3,9\u2032-xanthene]-1-one", "F 0095", "MeSH ID: D019793"], "SMILES": "O=C1OC2(C=3C1=CC=CC3)C=4C(OC=5C2=CC=C(O)C5)=CC(O)=CC4", "physical_data": {"Molecular Weight": "332.31", "Molecular Formula": "C20H12O5", "Melting Point": "315 \u00b0C (decomp)"}}