{"cas_no": "23210-58-4", "cn_name": "\u9152\u77f3\u9178\u827e\u82ac\u5730\u5c14", "en_name": ["Ifenprodil tartrate", "1-Piperidineethanol, \u03b1-(4-hydroxyphenyl)-\u03b2-methyl-4-(phenylmethyl)-, (2R,3R)-2,3-dihydroxybutanedioate (2:1)", "1-Piperidineethanol, 4-benzyl-\u03b1-(p-hydroxyphenyl)-\u03b2-methyl-, tartrate (salt)", "1-Piperidineethanol, \u03b1-(4-hydroxyphenyl)-\u03b2-methyl-4-(phenylmethyl)-, [R-(R*,R*)]-2,3-dihydroxybutanedioate (2:1) (salt)", "1-Piperidineethanol, \u03b1-(4-hydroxyphenyl)-\u03b2-methyl-4-(phenylmethyl)-, (2R,3R)-2,3-dihydroxybutanedioate (2:1) (salt)", "Ifenprodil tartrate", "Ifenprodil L-(+)-tartrate"], "SMILES": "C(C(C(O)=O)O)(C(O)=O)O.C(C1CCN(C(C(O)C2=CC=C(O)C=C2)C)CC1)C3=CC=CC=C3", "physical_data": {"Molecular Weight": "", "Molecular Formula": "C21H27NO2.<sup>1</sup>/2C4H6O6", "Melting Point": "178-180 \u00b0C"}}