{"cas_no": "23210-56-2", "cn_name": "\u827e\u82ac\u5730\u5c14", "en_name": ["Ifenprodil", "1-Piperidineethanol, \u03b1-(4-hydroxyphenyl)-\u03b2-methyl-4-(phenylmethyl)-", "1-Piperidineethanol, 4-benzyl-\u03b1-(p-hydroxyphenyl)-\u03b2-methyl-", "\u03b1-(4-Hydroxyphenyl)-\u03b2-methyl-4-(phenylmethyl)-1-piperidineethanol", "Ifenprodil", "2-(4-Benzylpiperidino)-1-(1-hydroxyphenyl)-1-propanol", "1-Methyl-2-hydroxy-2-(4-hydroxyphenyl)ethyl-1-(4-benzylpiperidine)", "RC 61-91", "(\u00b1)-Ifenprodil", "NP 120", "Cerocal"], "SMILES": "C(C1CCN(C(C(O)C2=CC=C(O)C=C2)C)CC1)C3=CC=CC=C3", "physical_data": {"Molecular Weight": "325.44", "Molecular Formula": "C21H27NO2", "Melting Point": "114 \u00b0C"}}