{"cas_no": "23220-52-2", "cn_name": "2,3-\u4e8c\u6c28\u57fa\u4e01\u4e8c\u9178", "en_name": ["meso-2,3-Diaminosuccinic acid", "D-Aspartic acid, 3-amino-, (3S)-rel-", "Succinic acid, 2,3-diamino-, meso-", "Aspartic acid, 3-amino-, erythro-", "rel-(3S)-3-Amino-D-aspartic acid", "meso-Diaminosuccinic acid", "meso-2,3-Diaminosuccinic acid"], "SMILES": "C(C(C(O)=O)N)(C(O)=O)N", "physical_data": {"Molecular Weight": "148.12", "Molecular Formula": "C4H8N2O4", "Melting Point": "304 \u00b0C"}}