{"cas_no": "23222-97-1", "cn_name": "2-\u785d\u57fa\u5bf9\u82ef\u4e8c\u7532\u9187", "en_name": ["2-Nitro-1,4-benzenedimethanol", "1,4-Benzenedimethanol, 2-nitro-", "p-Xylene-\u03b1,\u03b1\u2032-diol, 2-nitro-", "2-Nitro-1,4-benzenedimethanol", "[4-(Hydroxymethyl)-2-nitrophenyl]methanol", "(2-Nitro-1,4-phenylene)dimethanol", "(2-Nitrobenzene-1,4-diyl)dimethanol"], "SMILES": "N(=O)(=O)C1=C(CO)C=CC(CO)=C1", "physical_data": {"Molecular Weight": "183.16", "Molecular Formula": "C8H9NO4", "Melting Point": "92 \u00b0C"}}