{"cas_no": "2322-77-2", "cn_name": "\u6c83\u6c0f\u7269", "en_name": ["13-Ethyl-3-methoxygona-2,5(10)-dien-17-one", "Gona-2,5(10)-dien-17-one, 13-ethyl-3-methoxy-", "13-Ethyl-3-methoxygona-2,5(10)-dien-17-one", "13-\u03b2-Ethyl-3-methoxy-gona-2,5(10)-dien-17-one"], "SMILES": "C(C)C12C(C3C(CC1)C4=C(CC3)CC(OC)=CC4)CCC2=O", "physical_data": {"Molecular Weight": "300.44", "Molecular Formula": "C20H28O2", "Melting Point": "122-124 \u00b0C"}}