{"cas_no": "23239-36-3", "cn_name": "\u5730\u7279\u8bfa\u76d0\u9178\u76d0", "en_name": ["Benzenemethanol, 4-hydroxy-\u03b1-[[(1-methylethyl)amino]methyl]-, hydrochloride (1:1)", "Benzenemethanol, 4-hydroxy-\u03b1-[[(1-methylethyl)amino]methyl]-, hydrochloride (1:1)", "Benzyl alcohol, p-hydroxy-\u03b1-[(isopropylamino)methyl]-, hydrochloride, (\u00b1)-", "Benzenemethanol, 4-hydroxy-\u03b1-[[(1-methylethyl)amino]methyl]-, hydrochloride, (\u00b1)-", "Benzenemethanol, 4-hydroxy-\u03b1-[[(1-methylethyl)amino]methyl]-, hydrochloride", "dl-1-(4-Hydroxyphenyl)-2-(isopropylamino)ethanol hydrochloride", "(\u00b1)-1-(4-Hydroxyphenyl)-2-isopropylaminoethanol hydrochloride", "Deterenol hydrochloride", "Detenerol hydrochloride"], "SMILES": "C(CNC(C)C)(O)C1=CC=C(O)C=C1.Cl", "physical_data": {"Molecular Weight": "", "Molecular Formula": "C11H17NO2.ClH", "Melting Point": "155-157 \u00b0C"}}