{"cas_no": "23239-51-2", "cn_name": "\u76d0\u9178\u5229\u6258\u541b", "en_name": ["Ritodrine hydrochloride", "Benzenemethanol, 4-hydroxy-\u03b1-[(1R)-1-[[2-(4-hydroxyphenyl)ethyl]amino]ethyl]-, hydrochloride (1:1), (\u03b1S)-rel-", "Benzyl alcohol, p-hydroxy-\u03b1-[1-[(p-hydroxyphenethyl)amino]ethyl]-, hydrochloride, erythro-", "Benzenemethanol, 4-hydroxy-\u03b1-[1-[[2-(4-hydroxyphenyl)ethyl]amino]ethyl]-, hydrochloride, (R*,S*)-", "Benzenemethanol, 4-hydroxy-\u03b1-[(1R)-1-[[2-(4-hydroxyphenyl)ethyl]amino]ethyl]-, hydrochloride, (\u03b1S)-rel-", "Ritodrine hydrochloride", "DU 21220", "Yutopar", "Pre-Par", "(\u00b1)-Ritodrine hydrochloride", "Miolene", "Prempar", "Utemerin", "Utopar", "NSC 291565"], "SMILES": "C(C(NCCC1=CC=C(O)C=C1)C)(O)C2=CC=C(O)C=C2.Cl", "physical_data": {"Molecular Weight": "", "Molecular Formula": "C17H21NO3.ClH", "Melting Point": "193-195 \u00b0C (decomp)"}}