{"cas_no": "23239-35-2", "cn_name": "2-\u7532\u57fa-L-\u82ef\u4e19\u6c28\u9178\u4e00\u6c34\u7269", "en_name": ["\u03b1-Methyl-L-phenylalanine", "L-Phenylalanine, \u03b1-methyl-", "Alanine, 2-methyl-3-phenyl-, L-", "\u03b1-Methyl-L-phenylalanine", "(S)-2-Methyl-3-phenylalanine", "(S)-\u03b1-Methylphenylalanine", "L-\u03b1-Methylphenylalanine", "(S)-2-Methylphenylalanine", "(2S)-2-Amino-2-methyl-3-phenylpropanoic acid", "(S)-2-Amino-2-methyl-3-phenylpropanoicacid", "(2S)-2-Amino-2-methyl-3-phenylpropanoic acid"], "SMILES": "C(C(C(O)=O)(C)N)C1=CC=CC=C1", "physical_data": {"Molecular Weight": "179.22", "Molecular Formula": "C10H13NO2", "Melting Point": "278-280 \u00b0C"}}