{"cas_no": "23235-61-2", "cn_name": "\u53cc(\u4e09\u7f9f\u7532\u57fa)\u4e19\u70f7", "en_name": ["Ditrimethylolpropane", "1,3-Propanediol, 2,2\u2032-[oxybis(methylene)]bis[2-ethyl-", "1,3-Propanediol, 2,2\u2032-(oxydimethylene)bis[2-ethyl-", "2,2\u2032-[Oxybis(methylene)]bis[2-ethyl-1,3-propanediol]", "Ditrimethylolpropane", "Bis(1,1-dimethylolpropyl)dimethyl ether", "2,2\u2032-(Oxydimethylene)bis(2-ethyl-1,3-propanediol)", "Bistrimethylolpropane", "3,3,7,7-Tetrakis(hydroxymethyl)-5-oxanonane", "Di-TMP", "2,2-Bis(dimethylol)dibutyl ether"], "SMILES": "C(COCC(CC)(CO)CO)(CC)(CO)CO", "physical_data": {"Molecular Weight": "250.33", "Molecular Formula": "C12H26O5", "Boiling Point": "215 \u00b0C", "Melting Point": "109.5 \u00b0C"}}