{"cas_no": "23239-88-5", "cn_name": "\u76d0\u9178\u82ef\u4f50\u5361\u56e0", "en_name": ["Benzocaine hydrochloride", "Benzoic acid, 4-amino-, ethyl ester, hydrochloride (1:1)", "Benzoic acid, p-amino-, ethyl ester, hydrochloride", "Benzoic acid, 4-amino-, ethyl ester, hydrochloride", "Benzocaine hydrochloride", "Amben ethyl ester hydrochloride", "Ethyl p-aminobenzoate hydrochloride", "4-(Ethoxycarbonyl)anilinium chloride"], "SMILES": "C(OCC)(=O)C1=CC=C(N)C=C1.Cl", "physical_data": {"Molecular Weight": "", "Molecular Formula": "C9H11NO2.ClH", "Boiling Point": "118-119 \u00b0C @ Press: 0.8 Torr", "Melting Point": "291-292 \u00b0C"}}