{"cas_no": "23233-33-2", "cn_name": "3-\u6eb4-4-\u6c1f\u82ef\u7532\u9178\u4e59\u916f", "en_name": ["Benzoic acid, 3-bromo-4-fluoro-, ethyl ester", "Benzoic acid, 3-bromo-4-fluoro-, ethyl ester", "3-Bromo-4-fluorobenzoic acid ethyl ester", "Ethyl 3-bromo-4-fluorobenzoate"], "SMILES": "C(OCC)(=O)C1=CC(Br)=C(F)C=C1", "physical_data": {"Molecular Weight": "247.06", "Molecular Formula": "C9H8BrFO2", "Melting Point": "44-45 \u00b0C"}}