{"cas_no": "2324-98-3", "cn_name": "2,3,5,6-\u56db\u6c1f\u8334\u9999\u919a", "en_name": ["2,3,5,6-Tetrafluoroanisole", "Benzene, 1,2,4,5-tetrafluoro-3-methoxy-", "Anisole, 2,3,5,6-tetrafluoro-", "1,2,4,5-Tetrafluoro-3-methoxybenzene", "2,3,5,6-Tetrafluoroanisole", "NSC 96891", "3-Methoxy-1,2,4,5-tetrafluorobenzene"], "SMILES": "O(C)C1=C(F)C(F)=CC(F)=C1F", "physical_data": {"Molecular Weight": "180.10", "Molecular Formula": "C7H4F4O", "Boiling Point": "138 \u00b0C"}}