{"cas_no": "23243-68-7", "cn_name": "3,6-\u4e8c\u6c27\u6742\u8f9b\u4e8c\u9178", "en_name": ["2,2\u2032-[1,2-Ethanediylbis(oxy)]bis[acetic acid]", "Acetic acid, 2,2\u2032-[1,2-ethanediylbis(oxy)]bis-", "Acetic acid, (ethylenedioxy)di-", "2,2\u2032-[1,2-Ethanediylbis(oxy)]bis[acetic acid]", "1,2-Bis(carboxymethoxy)ethane", "(Ethylenedioxy)diacetic acid", "2,5-Dioxa-1,6-hexanedicarboxylic acid", "3,6-Dioxaoctanedioic acid", "Triglycolic acid", "Ethylene bis(glycolic acid)", "3,6-Dioxaoctane-1,8-dioic acid", "[2-(Carboxymethoxy)ethoxy]acetic acid", "NSC 8854", "3,6-Dioxasuberic acid", "PEG2-(CH2CO2H)2", "2-[2-(Carboxymethoxy)ethoxy]acetic acid"], "SMILES": "O(CC(O)=O)CCOCC(O)=O", "physical_data": {"Molecular Weight": "178.14", "Molecular Formula": "C6H10O6", "Melting Point": "68-71 \u00b0C"}}