{"cas_no": "23244-88-4", "cn_name": "6-\u7f9f\u57fa\u5432\u5511", "en_name": ["1H-Indazol-6-ol", "1H-Indazol-6-ol", "6-Hydroxyindazole", "NSC 92744", "Indazol-6-ol", "6-Hydroxy-1H-indazole", "2H-Indazol-6-ol"], "SMILES": "OC=1C=C2C(=CC1)C=NN2", "physical_data": {"Molecular Weight": "134.14", "Molecular Formula": "C7H6N2O", "Melting Point": "215 \u00b0C"}}