{"cas_no": "23249-97-0", "cn_name": "\u4e19\u8003\u8fbe\u5511", "en_name": ["1H-Benzimidazole-2-propanoic acid", "1H-Benzimidazole-2-propanoic acid", "2-Benzimidazolepropionic acid", "2-(2-Carboxyethyl)benzimidazole", "(2-Benzimidazolyl)propionic acid", "Propazol", "Procodazol", "Procodazole", "3-(2-Benzimidazolyl)propionic acid", "AL 1241", "Estimulocel", "NSC 35790", "3-(1H-Benzimidazol-2-yl)propionic acid", "3-(1H-Benzimidazol-2-yl)propanoic acid"], "SMILES": "C(CC(O)=O)C=1NC=2C(N1)=CC=CC2", "physical_data": {"Molecular Weight": "190.20", "Molecular Formula": "C10H10N2O2", "Melting Point": "228 \u00b0C (decomp)"}}