{"cas_no": "23244-58-8", "cn_name": "\u4e34\u82ef\u4e8c\u7532\u9170\u4e9a\u80fa\u7518\u6c28\u9178\u7532\u916f", "en_name": ["Methyl 1,3-dihydro-1,3-dioxo-2H-isoindole-2-acetate", "2H-Isoindole-2-acetic acid, 1,3-dihydro-1,3-dioxo-, methyl ester", "2-Isoindolineacetic acid, 1,3-dioxo-, methyl ester", "Methyl 1,3-dihydro-1,3-dioxo-2H-isoindole-2-acetate", "Phthaloylglycine methyl ester", "NSC 126803", "Methyl N-phthaloylglycinate", "(1,3-Dioxo-1,3-dihydroisoindol-2-yl)acetic acid methyl ester", "Methyl phthalimidoacetate"], "SMILES": "O=C1C=2C(C(=O)N1CC(OC)=O)=CC=CC2", "physical_data": {"Molecular Weight": "219.19", "Molecular Formula": "C11H9NO4", "Melting Point": "113 \u00b0C"}}