{"cas_no": "2325-17-9", "cn_name": "\u7518\u6c28\u9170-DL-\u6b63\u9889\u6c28\u9178", "en_name": ["Glycyl-DL-valine", "Valine, glycyl-", "Valine, N-glycyl-, DL-", "DL-Valine, N-glycyl-", "Glycylvaline", "Glycyl-DL-valine", "NSC 122051", "2-(2-Aminoacetamido)-3-methylbutanoic acid", "2-(2-Aminoacetamido)-3-methylbutanoicacid"], "SMILES": "C(NC(CN)=O)(C(C)C)C(O)=O", "physical_data": {"Molecular Weight": "174.20", "Molecular Formula": "C7H14N2O3", "Melting Point": "173-174 \u00b0C"}}