{"cas_no": "23250-03-5", "cn_name": "(2-\u7f9f\u4e59\u57fa)\u6c2f\u5316\u4e09\u82ef", "en_name": ["Hydroxyethyltriphenylphosphonium chloride", "Phosphonium, (2-hydroxyethyl)triphenyl-, chloride (1:1)", "Phosphonium, (2-hydroxyethyl)triphenyl-, chloride", "(2-Hydroxyethyl)triphenylphosphonium chloride", "Hydroxyethyltriphenylphosphonium chloride", "2-(Triphenylphosphonium)ethanol chloride"], "SMILES": "[P+](CCO)(C1=CC=CC=C1)(C2=CC=CC=C2)C3=CC=CC=C3.[Cl-]", "physical_data": {"Molecular Weight": "", "Molecular Formula": "C20H20OP.Cl", "Melting Point": "233 \u00b0C"}}