{"cas_no": "23256-30-6", "cn_name": "\u785d\u544b\u66ff\u83ab", "en_name": ["(\u00b1)-Nifurtimox", "4-Thiomorpholinamine, 3-methyl-N-[(5-nitro-2-furanyl)methylene]-, 1,1-dioxide", "Thiomorpholine, 3-methyl-4-[(5-nitrofurfurylidene)amino]-, 1,1-dioxide", "3-Methyl-4-(5-nitrofurfurylideneamino)tetrahydro-1,4-thiazine-1,1-dioxide", "BAY 2502", "Bayer 2502", "Tetrahydro-3-methyl-4-[(5-nitrofurfurylidene)amino]-4H-1,4-thiazine 1,1-dioxide", "Nifurtimox", "Lampit", "4-(5-Nitrofurfurylideneamino)-3-methylthiomorpholine 1,1-dioxide", "(\u00b1)-Nifurtimox", "BAY-A 2502"], "SMILES": "N(=CC=1OC(N(=O)=O)=CC1)N2C(C)CS(=O)(=O)CC2", "physical_data": {"Molecular Weight": "287.29", "Molecular Formula": "C10H13N3O5S", "Melting Point": "181 \u00b0C"}}