{"cas_no": "23256-50-0", "cn_name": "4-\u54aa\u5511\u4e59\u9178\u76d0\u9178\u76d0", "en_name": ["Guanabenz acetate", "Hydrazinecarboximidamide, 2-[(2,6-dichlorophenyl)methylene]-, acetate (1:1)", "Guanidine, [(2,6-dichlorobenzylidene)amino]-, monoacetate", "Hydrazinecarboximidamide, 2-[(2,6-dichlorophenyl)methylene]-, monoacetate", "[(2,6-Dichlorobenzylidene)amino]guanidine acetate", "Wy 8678 acetate", "1-(2,6-Dichlorobenzylideneamino)guanidine acetate", "BR 750", "Guanabenz acetate", "Wytensin", "Guanabenz monoacetate", "Rexitene", "Tenelid", "Wytens"], "SMILES": "C(C)(O)=O.C(=NNC(=N)N)C1=C(Cl)C=CC=C1Cl", "physical_data": {"Molecular Weight": "", "Molecular Formula": "C8H8Cl2N4.C2H4O2", "Melting Point": "227-229 \u00b0C (decomp)"}}