{"cas_no": "23256-23-7", "cn_name": "\u78fa\u80fa\u66f2\u6c99\u5511", "en_name": ["Sulfatroxazole", "Benzenesulfonamide, 4-amino-N-(4,5-dimethyl-3-isoxazolyl)-", "Sulfanilamide, N1-(4,5-dimethyl-3-isoxazolyl)-", "4-Amino-N-(4,5-dimethyl-3-isoxazolyl)benzenesulfonamide", "N1-(4,5-Dimethyl-3-isoxazolyl)sulfanilamide", "Isosulfafurazole", "4,5-Dimethyl-3-sulfanilamidoisoxazole", "Sulfatroxazole"], "SMILES": "S(NC=1C(C)=C(C)ON1)(=O)(=O)C2=CC=C(N)C=C2", "physical_data": {"Molecular Weight": "267.30", "Molecular Formula": "C11H13N3O3S", "Melting Point": "193-195.5 \u00b0C"}}