{"cas_no": "23261-20-3", "cn_name": "1,2:5,6-\u4e8c\u8131\u6c34\u534a\u4e73\u7cd6\u9187", "en_name": ["Dianhydrogalactitol", "Galactitol, 1,2:5,6-dianhydro-", "1,2:5,6-Dianhydrogalactitol", "1,2:5,6-Dianhydrodulcitol", "1,2:5,6-Diepoxydulcitol", "Dulcitol diepoxide", "NSC 132313", "Dianhydrodulcitol", "Dianhydrogalactitol", "VAL 083"], "SMILES": "C(C(O)C1CO1)(O)C2CO2", "physical_data": {"Molecular Weight": "146.14", "Molecular Formula": "C6H10O4", "Melting Point": "96.5-98.5 \u00b0C"}}