{"cas_no": "23268-00-0", "cn_name": "\u80bc\u4e8c\u6c22\u6eb4\u9178\u76d0", "en_name": ["Hydrazine, hydrobromide (1:2)", "Hydrazine, hydrobromide (1:2)", "Hydrazine, dihydrobromide"], "SMILES": "NN.Br", "physical_data": {"Molecular Weight": "", "Molecular Formula": "BrH.<sup>1</sup>/2H4N2", "Melting Point": "199 \u00b0C (decomp)"}}