{"cas_no": "2327-02-8", "cn_name": "N-(3,4-\u4e8c\u6c2f\u82ef\u57fa)\u8132", "en_name": ["N-(3,4-Dichlorophenyl)urea", "Urea, N-(3,4-dichlorophenyl)-", "Urea, (3,4-dichlorophenyl)-", "N-(3,4-Dichlorophenyl)urea", "1-(3,4-Dichlorophenyl)urea", "3,4-Dichlorophenylurea", "3,4-DCPU", "DCPU", "Didemethyldiuron", "Monouron", "Diuron-desdimethyl"], "SMILES": "N(C(N)=O)C1=CC(Cl)=C(Cl)C=C1", "physical_data": {"Molecular Weight": "205.04", "Molecular Formula": "C7H6Cl2N2O", "Melting Point": "155.6-156.3 \u00b0C"}}