{"cas_no": "23277-00-1", "cn_name": "(1-\u8418\u7532\u57fa)\u4e09\u82ef\u57fa\u6c2f\u5316\u78f7", "en_name": ["Phosphonium, (1-naphthalenylmethyl)triphenyl-, chloride (1:1)", "Phosphonium, (1-naphthalenylmethyl)triphenyl-, chloride (1:1)", "Phosphonium, (1-naphthylmethyl)triphenyl-, chloride", "Phosphonium, (1-naphthalenylmethyl)triphenyl-, chloride", "1-Naphthylmethyltriphenylphosphonium chloride", "FS 1", "FS 1 (vulcanization accelerator)", "(1-Naphthalenemethyl)triphenylphosphonium chloride"], "SMILES": "[P+](CC=1C2=C(C=CC1)C=CC=C2)(C3=CC=CC=C3)(C4=CC=CC=C4)C5=CC=CC=C5.[Cl-]", "physical_data": {"Molecular Weight": "", "Molecular Formula": "C29H24P.Cl", "Melting Point": "290-291.5 \u00b0C"}}