{"cas_no": "23284-18-6", "cn_name": "3-\u963f\u62c9\u4f2f\u7cd6\u8461\u7cd6\u57fa\u69f2\u76ae\u7d20", "en_name": ["Peltatoside", "4H-1-Benzopyran-4-one, 3-[(6-O-\u03b1-L-arabinopyranosyl-\u03b2-D-glucopyranosyl)oxy]-2-(3,4-dihydroxyphenyl)-5,7-dihydroxy-", "Flavone, 3,3\u2032,4\u2032,5,7-pentahydroxy-, 3-(6-O-\u03b1-L-arabinopyranosyl-\u03b2-D-glucopyranoside)", "3-[(6-O-\u03b1-L-Arabinopyranosyl-\u03b2-D-glucopyranosyl)oxy]-2-(3,4-dihydroxyphenyl)-5,7-dihydroxy-4H-1-benzopyran-4-one", "Peltatoside", "3-Arabinoglucosylquercetin", "Quercetin 3-vicianoside", "Quercetin 3-O-\u03b1-arabinopyranosyl-(1\u21926)-\u03b2-glucopyranoside"], "SMILES": "O(C1=C(OC=2C(C1=O)=C(O)C=C(O)C2)C3=CC(O)=C(O)C=C3)C4OC(COC5C(O)C(O)C(O)CO5)C(O)C(O)C4O", "physical_data": {"Molecular Weight": "596.49", "Molecular Formula": "C26H28O16", "Melting Point": "210 \u00b0C"}}