{"cas_no": "23283-97-8", "cn_name": "D-\u5f02\u8584\u8377\u9187", "en_name": ["(+)-Isomenthol", "Cyclohexanol, 5-methyl-2-(1-methylethyl)-, (1S,2R,5R)-", "Menthol, (1R,3S,4R)-(+)-", "Cyclohexanol, 5-methyl-2-(1-methylethyl)-, [1S-(1\u03b1,2\u03b2,5\u03b2)]-", "(1S,2R,5R)-5-Methyl-2-(1-methylethyl)cyclohexanol", "(+)-Isomenthol", "d-Isomenthol", "(1S,2R,5R)-(+)-Isomenthol"], "SMILES": "C(C)(C)C1C(O)CC(C)CC1", "physical_data": {"Molecular Weight": "156.27", "Molecular Formula": "C10H20O", "Melting Point": "79.5 \u00b0C"}}