{"cas_no": "2328-12-3", "cn_name": "6,7-\u4e8c\u7532\u6c27\u57fa-1,2,3,4-\u56db\u6c22\u5f02\u55b9\u5549\u76d0\u9178\u76d0", "en_name": ["6,7-Dimethoxy-1,2,3,4-tetrahydroisoquinoline hydrochloride", "Isoquinoline, 1,2,3,4-tetrahydro-6,7-dimethoxy-, hydrochloride (1:1)", "Isoquinoline, 1,2,3,4-tetrahydro-6,7-dimethoxy-, hydrochloride", "Heliamine hydrochloride", "1,2,3,4-Tetrahydro-6,7-dimethoxyisoquinoline hydrochloride", "6,7-Dimethoxy-1,2,3,4-tetrahydroisoquinoline hydrochloride", "6,7-Dimethoxy-3,4-dihydro-2(1H)-isoquinoline hydrochloride", "6,7-Dimethoxy-1,2,3,4-tetrahydroisoquinoline monohydrochloride", "6,7-Bis(methyloxy)-1,2,3,4-tetrahydroisoquinoline hydrochloride"], "SMILES": "O(C)C=1C=C2C(=CC1OC)CNCC2.Cl", "physical_data": {"Molecular Weight": "", "Molecular Formula": "C11H15NO2.ClH", "Melting Point": "263 \u00b0C"}}