{"cas_no": "23282-20-4", "cn_name": "\u74dc\u840e\u9570\u83cc\u9187", "en_name": ["Nivalenol", "Trichothec-9-en-8-one, 12,13-epoxy-3,4,7,15-tetrahydroxy-, (3\u03b1,4\u03b2,7\u03b1)-", "Trichothec-9-en-8-one, 12,13-epoxy-3\u03b1,4\u03b2,7\u03b1,15-tetrahydroxy-", "Spiro[2,5-methano-1-benzoxepin-10,2\u2032-oxirane], trichothec-9-en-8-one deriv.", "(3\u03b1,4\u03b2,7\u03b1)-12,13-Epoxy-3,4,7,15-tetrahydroxytrichothec-9-en-8-one", "12,13-Epoxy-3\u03b1,4\u03b2,7\u03b1,15-tetrahydroxytrichothec-9-en-8-one", "3\u03b1,4\u03b2,7\u03b1,15-Tetrahydroxyscrip-9-en-8-one", "Nivalenol", "NSC 269143"], "SMILES": "CC12C3(C(OC4C1(CO)C(O)C(=O)C(C)=C4)C(O)C2O)CO3", "physical_data": {"Molecular Weight": "312.32", "Molecular Formula": "C15H20O7", "Melting Point": "222-223 \u00b0C (decomp)"}}