{"cas_no": "23288-49-5", "cn_name": "\u666e\u7f57\u5e03\u8003", "en_name": ["Probucol", "Phenol, 4,4\u2032-[(1-methylethylidene)bis(thio)]bis[2,6-bis(1,1-dimethylethyl)-", "Acetone, bis(3,5-di-tert-butyl-4-hydroxyphenyl) mercaptole", "Phenol, 4,4\u2032-(isopropylidenedithio)bis[2,6-di-tert-butyl-", "4,4\u2032-[(1-Methylethylidene)bis(thio)]bis[2,6-bis(1,1-dimethylethyl)phenol", "DH 581", "Probucol", "4,4\u2032-(Isopropylidenedithio)bis[2,6-di-tert-butylphenol]", "Biphenabid", "Bisbid", "Bisphenabid", "Lorelco", "Lurselle", "Lipomal", "Phenbutol", "Panavir", "Sinlestal", "NSC 652160", "NSC 86225", "2,6-Di-tert-butyl-4-([2-[(3,5-di-tert-butyl-4-hydroxyphenyl)sulfanyl]propan-2-yl]sulfanyl)phenol", "2,6-Di-tert-butyl-4-([2-[(3,5-di-tert-butyl-4-hydroxyphenyl)sulfanyl]propane-2-yl] sulfanyl) phenol", "MeSH ID: D011341"], "SMILES": "C(C)(C)(C)C1=C(O)C(C(C)(C)C)=CC(SC(SC2=CC(C(C)(C)C)=C(O)C(C(C)(C)C)=C2)(C)C)=C1", "physical_data": {"Molecular Weight": "516.84", "Molecular Formula": "C31H48O2S2", "Melting Point": "125 \u00b0C"}}