{"cas_no": "23287-26-5", "cn_name": "2-\u7f9f\u57fa-3-\u7532\u57fa\u82ef\u7532\u9178\u7532\u916f", "en_name": ["Benzoic acid, 2-hydroxy-3-methyl-, methyl ester", "Benzoic acid, 2-hydroxy-3-methyl-, methyl ester", "2,3-Cresotic acid, methyl ester", "Methyl o-cresotinate", "2-Hydroxy-3-methylbenzoic acid methyl ester", "Methyl 3-methylsalicylate", "Methyl 2-hydroxy-3-methylbenzoate", "Levegal PT", "NSC 165638"], "SMILES": "C(OC)(=O)C1=C(O)C(C)=CC=C1", "physical_data": {"Molecular Weight": "166.17", "Molecular Formula": "C9H10O3", "Boiling Point": "235 \u00b0C", "Melting Point": "29 \u00b0C", "Density": "1.1683 g/cm\u00b3 @ Temp: 0 \u00b0C"}}