{"cas_no": "23294-41-9", "cn_name": "(R,R)-\u53cc-(1-\u82ef\u57fa\u4e59\u57fa)\u80fa", "en_name": ["Bis[(R)-1-phenylethyl]amine", "Benzenemethanamine, \u03b1-methyl-N-[(1R)-1-phenylethyl]-, (\u03b1R)-", "Dibenzylamine, \u03b1,\u03b1\u2032-dimethyl-, (+)-", "Benzenemethanamine, \u03b1-methyl-N-(1-phenylethyl)-, [R-(R*,R*)]-", "(\u03b1R)-\u03b1-Methyl-N-[(1R)-1-phenylethyl]benzenemethanamine", "(R,R)-Bis(1-phenylethyl)amine", "(+)-Bis[(R)-1-phenylethyl]amine", "Bis[(R)-\u03b1-methylbenzyl]amine", "(R,R)-Bis(\u03b1-methylbenzyl)amine", "(\u03b1R)-\u03b1-methyl-N-[(1R)-1-phenylethyl]benzenemethanamine", "Bis((1R)-1-phenylethyl)amine", "(R,R)-Whitesell amine", "Bis[(R)-1-phenylethyl]amine", "(+)-Bis[(R)-1-phenylethyl]amine", "Bis((R)-1-phenylethyl)amine"], "SMILES": "C(NC(C)C1=CC=CC=C1)(C)C2=CC=CC=C2", "physical_data": {"Molecular Weight": "225.33", "Molecular Formula": "C16H19N", "Boiling Point": "86-96 \u00b0C @ Press: 0.05 Torr", "Melting Point": "265-268 \u00b0C"}}