{"cas_no": "23308-82-9", "cn_name": "1-(3-\u7532\u6c27\u57fa\u82ef\u57fa)\u4e59\u9187", "en_name": ["(\u00b1)-1-(3-Methoxyphenyl)ethanol", "Benzenemethanol, 3-methoxy-\u03b1-methyl-", "Benzyl alcohol, m-methoxy-\u03b1-methyl-", "3-Methoxy-\u03b1-methylbenzenemethanol", "\u03b1-(m-Methoxyphenyl)ethanol", "1-(3\u2032-Methoxyphenyl)ethanol", "3-Methoxy-\u03b1-methylbenzyl alcohol", "1-(3-Methoxyphenyl)ethanol", "\u03b1-(3-Methoxyphenyl)ethanol", "1-(1-Hydroxyethyl)-3-methoxybenzene", "(\u00b1)-1-(3-Methoxyphenyl)ethanol", "NSC 143364", "1-(3-Methoxyphenyl)ethan-1-ol"], "SMILES": "C(C)(O)C1=CC(OC)=CC=C1", "physical_data": {"Molecular Weight": "152.19", "Molecular Formula": "C9H12O2", "Boiling Point": "133 \u00b0C @ Press: 14.5 Torr"}}