{"cas_no": "23313-21-5", "cn_name": "\u5927\u9ec4\u7d20-8-\u0392-D-\u5421\u5583\u8461\u8404\u7cd6\u82f7", "en_name": ["Emodin 8-O-\u03b2-D-glucopyranoside", "9,10-Anthracenedione, 1-(\u03b2-D-glucopyranosyloxy)-3,8-dihydroxy-6-methyl-", "Glucopyranoside, 3,8-dihydroxy-6-methyl-1-anthraquinonyl, \u03b2-D-", "1-(\u03b2-D-Glucopyranosyloxy)-3,8-dihydroxy-6-methyl-9,10-anthracenedione", "Emodin glucoside B", "Emodin 8-\u03b2-D-glucoside", "Emodin 8-O-\u03b2-D-glucoside", "8-O-\u03b2-D-Glucopyranosylemodin", "Anthraglycoside B", "Emodin 8-O-\u03b2-D-glucopyranoside", "NSC 257449", "Emodin 8-\u03b2-D-glucopyranoside", "Emodin 8-O-glucoside", "Emodin 8-O-\u03b2-glucoside", "Emodin-8-O-(6\u2032-O-acetyl)-\u03b2-D-glucoside"], "SMILES": "O(C1=C2C(C(=O)C=3C(C2=O)=C(O)C=C(C)C3)=CC(O)=C1)C4OC(CO)C(O)C(O)C4O", "physical_data": {"Molecular Weight": "432.38", "Molecular Formula": "C21H20O10", "Melting Point": "219-220 \u00b0C"}}