{"cas_no": "23313-68-0", "cn_name": "\u7ef4\u62c9\u5e15\u7c73\u76d0\u9178\u76d0", "en_name": ["Verapamil hydrochloride", "Benzeneacetonitrile, \u03b1-[3-[[2-(3,4-dimethoxyphenyl)ethyl]methylamino]propyl]-3,4-dimethoxy-\u03b1-(1-methylethyl)-, hydrochloride (1:1)", "Valeronitrile, 5-[(3,4-dimethoxyphenethyl)methylamino]-2-(3,4-dimethoxyphenyl)-2-isopropyl-, monohydrochloride", "Benzeneacetonitrile, \u03b1-[3-[[2-(3,4-dimethoxyphenyl)ethyl]methylamino]propyl]-3,4-dimethoxy-\u03b1-(1-methylethyl)-, monohydrochloride", "Valeronitrile, 5-[(3,4-dimethoxyphenethyl)methylamino]-2-(3,4-dimethoxyphenyl)-2-isopropyl-, hydrochloride", "Iproveratril hydrochloride", "Isoptin, hydrochloride", "Verapamil hydrochloride", "Izoptin hydrochloride", "Manidon", "Finoptin", "LU 20175", "Calan", "dl-Verapamil hydrochloride", "(\u00b1)-Verapamil hydrochloride", "Verogalid ER", "Lekoptin Retard", "NSC 657799", "Calan SR", "Covera HS", "Isoptin SR", "Verelan", "Ravamil SR", "Verahexal", "Civicor Retard", "Veraloc", "Civicor", "Iso-Card SR", "Verelan SR", "Ikapress", "Calaptin", "Hexasoptin Retard", "Berkatens", "Vasopten", "Veramex", "Veracaps SR", "Azupamil", "Apoacor", "Apo-Verap", "Vasomil", "Cordilox SR", "Verdilac", "Coraver", "Dilacoran HTA", "Vetrimil", "Akilen", "Cordilox", "Verapin", "Caveril", "Calaptin 240SR", "Ikacor", "Securon", "Veramil", "Cardiabeltin", "Flamon", "Corpamil", "Manidon Retard", "Verpal", "Hexasoptin", "Isoptin Retard", "Geangin", "Veracor", "Anpec", "Novo-Veramil", "Isoptine", "Dilacoran", "Univer", "Vasolan", "Isoptin", "Isoptino", "Verapress 240SR", "Cardibeltin", "Drosteakard", "Veraptin", "Verexamil", "Arapamyl", "Cardiagutt", "Veracim", "Quasar", "Dignover", "NSC 272366", "Calaptin 80", "2-(3,4-Dimethoxyphenyl)-5-[[2-(3,4-dimethoxyphenyl)ethyl](methyl)amino]-2-(propan-2-yl)pentanenitrile hydrochloride"], "SMILES": "C(CCCN(CCC1=CC(OC)=C(OC)C=C1)C)(C(C)C)(C#N)C2=CC(OC)=C(OC)C=C2.Cl", "physical_data": {"Molecular Weight": "", "Molecular Formula": "C27H38N2O4.ClH", "Melting Point": "131-133 \u00b0C"}}