{"cas_no": "23323-37-7", "cn_name": "N-\u6b63\u8f9b\u57fa-D-\u8461\u8404\u7cd6\u80fa", "en_name": ["N-Octylglucamine", "D-Glucitol, 1-deoxy-1-(octylamino)-", "Glucitol, 1-deoxy-1-(octylamino)-, D-", "1-Deoxy-1-(octylamino)-D-glucitol", "N-Octylglucamine", "1-(Octylamino)-1-deoxy-D-glucitol", "N-Octyl-1-amino-1-deoxy-D-glucitol", "N-Octyl-D-glucamine"], "SMILES": "C(C(CNCCCCCCCC)O)(C(C(CO)O)O)O", "physical_data": {"Molecular Weight": "293.40", "Molecular Formula": "C14H31NO5", "Melting Point": "121-123 \u00b0C"}}