{"cas_no": "23328-88-3", "cn_name": "2-\u6eb4-4-\u7532\u57fa-1H-\u54aa\u5511", "en_name": ["2-Bromo-4-methylimidazole", "1H-Imidazole, 2-bromo-5-methyl-", "Imidazole, 2-bromo-4-methyl-", "1H-Imidazole, 2-bromo-4-methyl-", "2-Bromo-5-methyl-1H-imidazole", "2-Bromo-4-methylimidazole", "2-Bromo-4-methyl-1H-imidazole"], "SMILES": "CC=1NC(Br)=NC1", "physical_data": {"Molecular Weight": "161.00", "Molecular Formula": "C4H5BrN2", "Melting Point": "124-125 \u00b0C"}}