{"cas_no": "23328-87-2", "cn_name": "2-\u5341\u4e03\u70f7\u57fa\u54aa\u5511", "en_name": ["2-Heptadecylimidazole", "1H-Imidazole, 2-heptadecyl-", "Imidazole, 2-heptadecyl-", "2-Heptadecyl-1H-imidazole", "2-Heptadecylimidazole", "2-n-Heptadecylimidazole", "Curezol C 17Z", "C 17Z", "FRX 1020"], "SMILES": "C(CCCCCCCCCCCCCCCC)C=1NC=CN1", "physical_data": {"Molecular Weight": "306.53", "Molecular Formula": "C20H38N2", "Melting Point": "88 \u00b0C"}}