{"cas_no": "23328-62-3", "cn_name": "2-\u7532\u786b\u57fa\u4e59\u919b", "en_name": ["(Methylthio)acetaldehyde", "Acetaldehyde, 2-(methylthio)-", "Acetaldehyde, (methylthio)-", "2-(Methylthio)acetaldehyde", "2-(Methylmercapto)acetaldehyde", "(Methylthio)acetaldehyde", "2-(Methylsulfanyl)acetaldehyde"], "SMILES": "C(C=O)SC", "physical_data": {"Molecular Weight": "90.14", "Molecular Formula": "C3H6OS", "Boiling Point": "125-138 \u00b0C", "Density": "1.0591 g/cm\u00b3 @ Temp: 20 \u00b0C"}}