{"cas_no": "23327-57-3", "cn_name": "\u76d0\u9178\u5948\u798f\u6cee", "en_name": ["(\u00b1)-Nefopam hydrochloride", "1H-2,5-Benzoxazocine, 3,4,5,6-tetrahydro-5-methyl-1-phenyl-, hydrochloride (1:1)", "1H-2,5-Benzoxazocine, 3,4,5,6-tetrahydro-5-methyl-1-phenyl-, hydrochloride", "Fenazoxine", "Fenazoxine hydrochloride", "Nefopam hydrochloride", "R 738", "Ajan", "Acupan", "(\u00b1)-Nefopam hydrochloride"], "SMILES": "CN1CC=2C(C(OCC1)C3=CC=CC=C3)=CC=CC2.Cl", "physical_data": {"Molecular Weight": "", "Molecular Formula": "C17H19NO.ClH", "Melting Point": "238-242 \u00b0C"}}