{"cas_no": "23356-96-9", "cn_name": "L-\u812f\u6c28\u9187", "en_name": ["L-Prolinol", "2-Pyrrolidinemethanol, (2S)-", "2-Pyrrolidinemethanol, (S)-(+)-", "2-Pyrrolidinemethanol, (S)-", "(2S)-2-Pyrrolidinemethanol", "L-(+)-2-Pyrrolidinylmethanol", "L-2-(Hydroxymethyl)pyrrolidine", "L-Prolinol", "(S)-(+)-Prolinol", "(S)-(+)-2-(Hydroxymethyl)pyrrolidine", "(S)-Prolinol", "(+)-2-Pyrrolidinemethanol", "(2S)-2-(Hydroxymethyl)pyrrolidine", "(S)-2-Pyrrolidinemethanol", "(S)-(+)-2-Pyrrolidinemethanol", "(S)-(+)-Pyrrolidin-2-ylmethanol", "(S)-2-(Hydroxymethyl)pyrrolidine", "L-(+)-Prolinol", "(S)-1-(Pyrrolidin-2-yl)methanol", "2-(S)-(Hydroxymethyl)pyrrolidine", "[(S)-Pyrrolidin-2-yl]methanol", "[(2S)-Pyrrolidin-2-yl]methanol", "(2S)-Pyrrolidin-2-ylmethanol", "(2S)-2-Pyrrolidinemethanol", "(2S)-2-(Hydroxymethyl)pyrrolidine"], "SMILES": "C(O)C1CCCN1", "physical_data": {"Molecular Weight": "101.15", "Molecular Formula": "C5H11NO", "Boiling Point": "100-105 \u00b0C @ Press: 9 Torr", "Melting Point": "73-76 \u00b0C", "Density": "1.025 g/cm\u00b3"}}