{"cas_no": "23357-52-0", "cn_name": "(S)-1,2,3,4-\u56db\u6c22-1-\u8418\u80fa", "en_name": ["(+)-1,2,3,4-Tetrahydro-1-naphthylamine", "1-Naphthalenamine, 1,2,3,4-tetrahydro-, (1S)-", "1-Naphthylamine, 1,2,3,4-tetrahydro-, (S)-(+)-", "1-Naphthalenamine, 1,2,3,4-tetrahydro-, (S)-", "(1S)-1,2,3,4-Tetrahydro-1-naphthalenamine", "(S)-(+)-1,2,3,4-Tetrahydro-1-aminonaphthalene", "(+)-1,2,3,4-Tetrahydro-1-naphthylamine", "(S)-(+)-1,2,3,4-Tetrahydro-1-naphthylamine", "(S)-(+)-1-Aminotetralin", "(S)-1,2,3,4-Tetrahydro-1-naphthylamine", "(S)-1-Aminotetralin", "(+)-1-Aminotetralin", "S-(+)-1-Amino-1,2,3,4-tetrahydronaphthalene", "(S)-1,2,3,4-Tetrahydro-1-naphthalenamine", "(1S)-1,2,3,4-Tetrahydro-1-naphthalenylamine", "(1S)-1,2,3,4-Tetrahydronaphthalen-1-amine", "(S)-1,2,3,4-Tetrahydronaphthalen-1-ylamine", "(1S)-1,2,3,4-Tetrahydronaphthalen-1-amine", "(S)-1-Amino-1,2,3,4-tetrahydronaphthalene", "(1S)-Tetralin-1-amine"], "SMILES": "NC1C=2C(CCC1)=CC=CC2", "physical_data": {"Molecular Weight": "147.22", "Molecular Formula": "C10H13N", "Melting Point": "95-97 \u00b0C"}}