{"cas_no": "23351-91-9", "cn_name": "5-\u6eb4\u57fa\u5f02\u8418\u9178", "en_name": ["5-Bromo-1,3-benzenedicarboxylic acid", "1,3-Benzenedicarboxylic acid, 5-bromo-", "Isophthalic acid, 5-bromo-", "5-Bromo-1,3-benzenedicarboxylic acid", "5-Bromoisophthalic acid", "5-Bromo-1,3-benzenedicarboxyic acid"], "SMILES": "C(O)(=O)C1=CC(C(O)=O)=CC(Br)=C1", "physical_data": {"Molecular Weight": "245.03", "Molecular Formula": "C8H5BrO4", "Melting Point": "275-277 \u00b0C"}}