{"cas_no": "23350-58-5", "cn_name": "\u5df4\u8c46\u9170\u80fa", "en_name": ["2-Butenamide", "2-Butenamide", "Crotonamide", "But-2-enoic acid amide"], "SMILES": "C(C(N)=O)=CC", "physical_data": {"Molecular Weight": "85.10", "Molecular Formula": "C4H7NO", "Melting Point": "159.5-160.0 \u00b0C"}}