{"cas_no": "23359-08-2", "cn_name": "4-\u7532\u9170\u8089\u6842\u9178", "en_name": ["3-(4-Formylphenyl)-2-propenoic acid", "2-Propenoic acid, 3-(4-formylphenyl)-", "Cinnamic acid, p-formyl-", "3-(4-Formylphenyl)-2-propenoic acid", "p-Formylcinnamic acid", "4-Formylcinnamic acid", "3-(4-Formylphenyl)acrylic acid", "NSC 74480"], "SMILES": "C(=CC(O)=O)C1=CC=C(C=O)C=C1", "physical_data": {"Molecular Weight": "176.17", "Molecular Formula": "C10H8O3", "Melting Point": "&gt;250 \u00b0C"}}