{"cas_no": "23357-46-2", "cn_name": "(R)-(-)-1,2,3,4-\u56db\u6c22-1-\u8418\u80fa", "en_name": ["(-)-1,2,3,4-Tetrahydro-1-naphthylamine", "1-Naphthalenamine, 1,2,3,4-tetrahydro-, (1R)-", "1-Naphthylamine, 1,2,3,4-tetrahydro-, (R)-(-)-", "1-Naphthalenamine, 1,2,3,4-tetrahydro-, (R)-", "(1R)-1,2,3,4-Tetrahydro-1-naphthalenamine", "(R)-(-)-1-Aminotetralin", "(-)-1,2,3,4-Tetrahydro-1-naphthylamine", "(R)-(-)-1,2,3,4-Tetrahydro-1-naphthylamine", "(R)-(-)-1,2,3,4-Tetrahydro-1-aminonaphthalene", "(-)-1,2,3,4-Tetrahydro-1-naphthalenamine", "(R)-1,2,3,4-Tetrahydro-1-naphthylamine", "(R)-1-Aminotetralin", "(-)-1-Aminotetralin", "(R)-(-)-1-Amino-1,2,3,4-tetrahydronaphthalene", "(1R)-1,2,3,4-Tetrahydro-1-naphthalenamine", "(R)-1,2,3,4-Tetrahydro-1-naphthalenamine", "(1R)-1-Aminotetralin", "(R)-1,2,3,4-Tetrahydronaphthalen-1-amine", "(R)-1-Amino-1,2,3,4-tetrahydronaphthalene", "(R)-1,2,3,4-Tetrahydro-1-naphthylamine", "(R)-(-)-1,2,3,4-Tetrahydro-1-naphthylamine", "(1R)-Tetralin-1-amine"], "SMILES": "NC1C=2C(CCC1)=CC=CC2", "physical_data": {"Molecular Weight": "147.22", "Molecular Formula": "C10H13N", "Melting Point": "116-119 \u00b0C"}}