{"cas_no": "23363-88-4", "cn_name": "\u5bf9\u4e59\u9170\u6c28\u57fa\u73af\u5df1\u9187", "en_name": ["N-(4-Hydroxycyclohexyl)acetamide", "Acetamide, N-(4-hydroxycyclohexyl)-", "N-(4-Hydroxycyclohexyl)acetamide", "4-Acetamidocyclohexanol", "NSC 130812"], "SMILES": "N(C(C)=O)C1CCC(O)CC1", "physical_data": {"Molecular Weight": "157.21", "Molecular Formula": "C8H15NO2", "Melting Point": "135 \u00b0C"}}