{"cas_no": "23363-35-1", "cn_name": "4'-\u53bb\u7532\u57fa\u8868\u9b3c\u81fc\u6bd2\u7d20-\u0392-D-\u8461\u8404\u7cd6\u7519", "en_name": ["4-Demethylepipodophyllotoxin 7\u2032-O-\u03b2-D-glucopyranoside", "Furo[3\u2032,4\u2032:6,7]naphtho[2,3-d]-1,3-dioxol-6(5aH)-one, 9-(\u03b2-D-glucopyranosyloxy)-5,8,8a,9-tetrahydro-5-(4-hydroxy-3,5-dimethoxyphenyl)-, (5R,5aR,8aR,9S)-", "Epipodophyllotoxin, 4\u2032-demethyl-, 9-\u03b2-D-glucopyranoside", "Furo[3\u2032,4\u2032:6,7]naphtho[2,3-d]-1,3-dioxol-6(5aH)-one, 9-(\u03b2-D-glucopyranosyloxy)-5,8,8a,9-tetrahydro-5-(4-hydroxy-3,5-dimethoxyphenyl)-, [5R-(5\u03b1,5a\u03b2,8a\u03b1,9\u03b2)]-", "Glucopyranoside, 4\u2032-demethylepipodophyllotoxin, \u03b2-D-", "(5R,5aR,8aR,9S)-9-(\u03b2-D-Glucopyranosyloxy)-5,8,8a,9-tetrahydro-5-(4-hydroxy-3,5-dimethoxyphenyl)furo[3\u2032,4\u2032:6,7]naphtho[2,3-d]-1,3-dioxol-6(5aH)-one", "4\u2032-Demethylepipodophyllotoxin glucoside", "4\u2032-Demethylepipodophyllotoxin \u03b2-D-glucopyranoside", "Lignan P", "Pptoxin II", "4-Demethylepipodophyllotoxin 7\u2032-O-\u03b2-D-glucopyranoside"], "SMILES": "O=C1C2C(C=3C(C(OC4OC(CO)C(O)C(O)C4O)C2CO1)=CC5=C(C3)OCO5)C6=CC(OC)=C(O)C(OC)=C6", "physical_data": {"Molecular Weight": "562.52", "Molecular Formula": "C27H30O13", "Melting Point": "222-230 \u00b0C"}}