{"cas_no": "23360-92-1", "cn_name": "\u957f\u6625\u7d20", "en_name": ["Leurosine", "Vincaleukoblastine, 4\u2032-deoxy-3\u2032,4\u2032-epoxy-, (3\u2032\u03b1,4\u2032\u03b1)-", "Leurosine", "1H-Indolizino[8,1-cd]carbazole, vincaleukoblastine deriv.", "2H-3,13-Methanooxireno[9,10]azacycloundecino[5,4-b]indole, vincaleukoblastine deriv.", "(3\u2032\u03b1,4\u2032\u03b1)-4\u2032-Deoxy-3\u2032,4\u2032-epoxyvincaleukoblastine", "Vinleurosine", "NSC 528004"], "SMILES": "C(C)C12C3C4(C(C(C(OC)=O)(O)C1OC(C)=O)N(C)C=5C4=CC(=C(OC)C5)C6(C(OC)=O)C7=C(C=8C(N7)=CC=CC8)CCN9CC(C6)C%10C(CC)(O%10)C9)CCN3CC=C2", "physical_data": {"Molecular Weight": "808.96", "Molecular Formula": "C46H56N4O9", "Melting Point": "202-205 \u00b0C (decomp)"}}