{"cas_no": "23378-88-3", "cn_name": "3,5-\u4e8c\u6c2f-2-\u7f9f\u57fa\u82ef\u78fa\u9170\u6c2f", "en_name": ["3,5-Dichloro-2-hydroxybenzenesulfonyl chloride", "Benzenesulfonyl chloride, 3,5-dichloro-2-hydroxy-", "3,5-Dichloro-2-hydroxybenzenesulfonyl chloride", "2-Hydroxy-3,5-dichlorophenylsulfonyl chloride", "2-Hydroxy-3,5-dichlorobenzenesulfonyl chloride", "3,5-Dichloro-2-hydroxyphenylsulfonyl chloride", "3,5-Dichloro-6-hydroxybenzenesulfonyl chloride", "3,5-Dichloro-2-hydroxybenzene-1-sulfonyl chloride"], "SMILES": "S(Cl)(=O)(=O)C1=C(O)C(Cl)=CC(Cl)=C1", "physical_data": {"Molecular Weight": "261.51", "Molecular Formula": "C6H3Cl3O3S", "Melting Point": "107.4 \u00b0C"}}