{"cas_no": "23389-75-5", "cn_name": "1-(4-\u5421\u5576\u57fa)\u4e59\u9187", "en_name": ["\u03b1-Methyl-4-pyridinemethanol", "4-Pyridinemethanol, \u03b1-methyl-", "\u03b1-Methyl-4-pyridinemethanol", "1-(4-Pyridyl)ethyl alcohol", "4-(1-Hydroxyethyl)pyridine", "1-(4-Pyridyl)ethanol", "(\u00b1)-1-(4-Pyridyl)ethanol", "1-(4-Pyridinyl)ethanol", "1-(4-Pyridin-4-yl)ethanol", "1-(Pyridin-4-yl)ethan-1-ol", "(\u00b1)-\u03b1-Methyl-4-pyridinemethanol", "4-(1-Hydroxy-1-ethyl)pyridine"], "SMILES": "C(C)(O)C=1C=CN=CC1", "physical_data": {"Molecular Weight": "123.15", "Molecular Formula": "C7H9NO", "Boiling Point": "138-140 \u00b0C @ Press: 30 Torr", "Melting Point": "54 \u00b0C"}}