{"cas_no": "2338-54-7", "cn_name": "4-\u6c1f-3-\u7532\u57fa\u82ef\u7532\u919a", "en_name": ["1-Fluoro-4-methoxy-2-methylbenzene", "Benzene, 1-fluoro-4-methoxy-2-methyl-", "Anisole, 4-fluoro-3-methyl-", "1-Fluoro-4-methoxy-2-methylbenzene", "2-Fluoro-5-methoxytoluene", "4-Fluoro-3-methylanisole"], "SMILES": "O(C)C1=CC(C)=C(F)C=C1", "physical_data": {"Molecular Weight": "140.15", "Molecular Formula": "C8H9FO", "Boiling Point": "174-175 \u00b0C @ Press: 762 Torr"}}