{"cas_no": "2338-76-3", "cn_name": "\u95f4\u4e09\u6c1f\u7532\u57fa\u82ef\u4e59\u8148", "en_name": ["[3-(Trifluoromethyl)phenyl]acetonitrile", "Benzeneacetonitrile, 3-(trifluoromethyl)-", "Acetonitrile, (\u03b1,\u03b1,\u03b1-trifluoro-m-tolyl)-", "3-(Trifluoromethyl)benzeneacetonitrile", "(\u03b1,\u03b1,\u03b1-Trifluoro-m-tolyl)acetonitrile", "m-Trifluoromethylphenylacetonitrile", "3-(Trifluoromethyl)benzyl cyanide", "[3-(Trifluoromethyl)phenyl]acetonitrile", "m-Trifluoromethylbenzyl cyanide", "1-[3-(Trifluoromethyl)phenyl]acetonitrile", "2-[3-(Trifluoromethyl)phenyl]acetonitrile"], "SMILES": "C(F)(F)(F)C1=CC(CC#N)=CC=C1", "physical_data": {"Molecular Weight": "185.15", "Molecular Formula": "C9H6F3N", "Boiling Point": "92-93 \u00b0C @ Press: 4 Torr"}}