{"cas_no": "2338-20-7", "cn_name": "3,4,5-\u4e09\u7898\u82ef\u7532\u9178", "en_name": ["3,4,5-Triiodobenzoic acid", "Benzoic acid, 3,4,5-triiodo-", "3,4,5-Triiodobenzoic acid", "NSC 11811"], "SMILES": "C(O)(=O)C1=CC(I)=C(I)C(I)=C1", "physical_data": {"Molecular Weight": "499.81", "Molecular Formula": "C7H3I3O2", "Melting Point": "288 \u00b0C"}}