{"cas_no": "2338-75-2", "cn_name": "\u5bf9\u4e09\u6c1f\u7532\u57fa\u82ef\u4e59\u8148", "en_name": ["4-(Trifluoromethyl)benzeneacetonitrile", "Benzeneacetonitrile, 4-(trifluoromethyl)-", "Acetonitrile, (\u03b1,\u03b1,\u03b1-trifluoro-p-tolyl)-", "4-(Trifluoromethyl)benzeneacetonitrile", "(\u03b1,\u03b1,\u03b1-Trifluoro-p-tolyl)acetonitrile", "p-(Trifluoromethyl)phenylacetonitrile", "4-(Trifluoromethyl)phenylacetonitrile", "4-Trifluoromethylbenzeneacetonitrile", "4-Trifluoromethylbenzyl cyanide", "p-Trifluoromethylbenzyl cyanide", "2-[4-(Trifluoromethyl)phenyl]acetonitrile"], "SMILES": "C(F)(F)(F)C1=CC=C(CC#N)C=C1", "physical_data": {"Molecular Weight": "185.15", "Molecular Formula": "C9H6F3N", "Boiling Point": "131.5 \u00b0C", "Melting Point": "48 \u00b0C"}}