{"cas_no": "23384-72-7", "cn_name": "3,4-\u4e8c\u6c1f\u82ef\u4e19\u916e", "en_name": ["1-(3,4-Difluorophenyl)-1-propanone", "1-Propanone, 1-(3,4-difluorophenyl)-", "Propiophenone, 3\u2032,4\u2032-difluoro-", "1-(3,4-Difluorophenyl)-1-propanone"], "SMILES": "C(CC)(=O)C1=CC(F)=C(F)C=C1", "physical_data": {"Molecular Weight": "170.16", "Molecular Formula": "C9H8F2O", "Boiling Point": "98 \u00b0C @ Press: 15 Torr"}}