{"cas_no": "23386-41-6", "cn_name": "3-\u6c27\u4ee3\u5f02\u5432\u54da\u5549-5-\u7fa7\u9178", "en_name": ["2,3-Dihydro-3-oxo-1H-isoindole-5-carboxylic acid", "1H-Isoindole-5-carboxylic acid, 2,3-dihydro-3-oxo-", "5-Isoindolinecarboxylic acid, 3-oxo-", "2,3-Dihydro-3-oxo-1H-isoindole-5-carboxylic acid", "1-Oxo-2,3-dihydro-1H-isoindole-6-carboxylic acid", "3-Oxoisoindoline-5-carboxylic acid", "3-Oxo-2,3-dihydro-1H-isoindole-5-carboxylic acid"], "SMILES": "O=C1C=2C(=CC=C(C(O)=O)C2)CN1", "physical_data": {"Molecular Weight": "177.16", "Molecular Formula": "C9H7NO3", "Melting Point": "351.2-353.1 \u00b0C"}}