{"cas_no": "2338-12-7", "cn_name": "5-\u785d\u57fa\u82ef\u5e76\u4e09\u5511", "en_name": ["5-Nitrobenzotriazole", "1H-Benzotriazole, 6-nitro-", "1H-Benzotriazole, 5-nitro-", "Benzotriazole, 5-nitro-", "6-Nitro-1H-benzotriazole", "6-Nitrobenzotriazole", "5-Nitrobenzotriazole", "5-Nitro-1H-benzotriazole", "NSC 3132", "NSC 66476", "Verzone N-BTA", "5-Nitro-1H-benzo[d][1,2,3]triazole"], "SMILES": "N(=O)(=O)C=1C=C2C(=CC1)N=NN2", "physical_data": {"Molecular Weight": "164.12", "Molecular Formula": "C6H4N4O2", "Melting Point": "217 \u00b0C"}}