{"cas_no": "2338-18-3", "cn_name": "2-\u6c28\u57fa\u831a\u6ee1\u76d0\u9178\u76d0", "en_name": ["2-Aminoindan hydrochloride", "1H-Inden-2-amine, 2,3-dihydro-, hydrochloride (1:1)", "2-Indanamine, hydrochloride", "1H-Inden-2-amine, 2,3-dihydro-, hydrochloride", "SU 8629 hydrochloride", "2-Aminoindan hydrochloride", "2-Amino-2,3-dihydro-1H-indene hydrochloride", "Indan-2-ylamine hydrochloride", "2-Aminoindan monohydrochloride", "(2,3-Dihydro-1H-inden-2-yl)amine hydrochloride", "2,3-Dihydro-1H-inden-2-amine hydrochloride", "2,3-dihydro-1H-inden-2-amine hydrochloride (1:1)", "2,3-Dihydro-1H-inden-2-aminium chloride"], "SMILES": "NC1CC=2C(C1)=CC=CC2.Cl", "physical_data": {"Molecular Weight": "", "Molecular Formula": "C9H11N.ClH", "Melting Point": "240 \u00b0C"}}