{"cas_no": "2339-78-8", "cn_name": "1,2-\u4e8c\u6c2f-4-\u6c1f-5-\u785d\u57fa\u82ef", "en_name": ["1,2-Dichloro-4-fluoro-5-nitrobenzene", "Benzene, 1,2-dichloro-4-fluoro-5-nitro-", "1,2-Dichloro-4-fluoro-5-nitrobenzene", "2-Fluoro-4,5-dichloronitrobenzene", "4,5-Dichloro-2-fluoronitrobenzene", "3,4-Dichloro-6-fluoro-1-nitrobenzene", "4,5-Dichloro-2-fluoro-1-nitrobenzene", "4,5-Dichloro-1-fluoro-2-nitrobenzene", "2-Fluoro-4,5-dichloro-1-nitrobenzene"], "SMILES": "N(=O)(=O)C1=C(F)C=C(Cl)C(Cl)=C1", "physical_data": {"Molecular Weight": "209.99", "Molecular Formula": "C6H2Cl2FNO2", "Boiling Point": "247 \u00b0C", "Melting Point": "17 \u00b0C"}}