{"cas_no": "23391-99-3", "cn_name": "4,4'-\u4e8c\u73af\u5df1\u916e", "en_name": ["[1,1\u2032-Bicyclohexyl]-4,4\u2032-dione", "[1,1\u2032-Bicyclohexyl]-4,4\u2032-dione", "[Bicyclohexyl]-4,4\u2032-dione", "4,4\u2032-Bis(cyclohexanone)", "4,4\u2032-Dioxo-2,2\u2032,3,3\u2032,5,5\u2032,6,6\u2032-octahydro-1,1\u2032-biphenyl", "4,4\u2032-Bi[cyclohexanone]", "Bis(4-oxocyclohexyl)", "Bis(4-cyclohexanone)", "NSC 100201", "1,1\u2032-Bicyclohexane-4,4\u2032-dione"], "SMILES": "O=C1CCC(CC1)C2CCC(=O)CC2", "physical_data": {"Molecular Weight": "194.27", "Molecular Formula": "C12H18O2", "Melting Point": "118-119 \u00b0C"}}