{"cas_no": "23414-72-4", "cn_name": "\u8fc7\u9530\u9178\u950c", "en_name": ["Zinc permanganate", "Permanganic acid (HMnO4), zinc salt (2:1)", "Permanganic acid (HMnO4), zinc salt", "Zinc permanganate", "Zinc manganate [Zn(MnO4)2]"], "SMILES": "[Mn](O)(=O)(=O)=O.[Zn]", "physical_data": {"Molecular Weight": "", "Molecular Formula": "HMnO4.<sup>1</sup>/2Zn", "Melting Point": "90-105 \u00b0C (decomp)", "Density": "2.45 g/cm\u00b3"}}