{"cas_no": "2341-22-2", "cn_name": "5-\u6c1f\u80de\u5627\u5576\u6838\u82f7", "en_name": ["5-Fluorocytidine", "Cytidine, 5-fluoro-", "5-Fluorocytidine"], "SMILES": "OC1C(OC(CO)C1O)N2C(=O)N=C(N)C(F)=C2", "physical_data": {"Molecular Weight": "261.21", "Molecular Formula": "C9H12FN3O5", "Melting Point": "190-200 \u00b0C"}}