{"cas_no": "23410-40-4", "cn_name": "\u6c28\u57fa\u4e59\u57fa\u6c28\u57fa\u5f02\u4e01\u57fa\u7532\u57fa\u4e8c\u7532\u6c27\u57fa\u7845\u70f7", "en_name": ["N1-[3-(Dimethoxymethylsilyl)-2-methylpropyl]-1,2-ethanediamine", "1,2-Ethanediamine, N1-[3-(dimethoxymethylsilyl)-2-methylpropyl]-", "Ethylenediamine, N-[3-(dimethoxymethylsilyl)-2-methylpropyl]-", "1,2-Ethanediamine, N-[3-(dimethoxymethylsilyl)-2-methylpropyl]-", "N1-[3-(Dimethoxymethylsilyl)-2-methylpropyl]-1,2-ethanediamine", "N-[3-(Dimethoxymethylsilyl)-2-methylpropyl]ethylenediamine", "N1-[3-[Dimethoxy(methyl)silyl]-2-methylpropyl]ethane-1,2-diamine", "DB 604", "[3-(2-Aminoethyl)aminoisobutyl]dimethoxysilane"], "SMILES": "[Si](CC(CNCCN)C)(OC)(OC)C", "physical_data": {"Molecular Weight": "220.38", "Molecular Formula": "C9H24N2O2Si", "Boiling Point": "131 \u00b0C @ Press: 15 Torr", "Density": "0.960 g/cm\u00b3"}}