{"cas_no": "2341-25-5", "cn_name": "6-\u6c1f\u5432\u54da-3-\u4e59\u8148", "en_name": ["6-Fluoro-1H-indole-3-acetonitrile", "1H-Indole-3-acetonitrile, 6-fluoro-", "Indole-3-acetonitrile, 6-fluoro-", "6-Fluoro-1H-indole-3-acetonitrile", "2-(6-Fluoro-1H-indol-3-yl)acetonitrile"], "SMILES": "C(C#N)C=1C=2C(=CC(F)=CC2)NC1", "physical_data": {"Molecular Weight": "174.17", "Molecular Formula": "C10H7FN2", "Melting Point": "51-52 \u00b0C (sublm)"}}