{"cas_no": "23418-85-1", "cn_name": "\u5bf9\u7532\u82ef\u78fa\u9178 3-\u4e01\u7094\u916f", "en_name": ["3-Butynyl p-toluenesulfonate", "3-Butyn-1-ol, 1-(4-methylbenzenesulfonate)", "3-Butyn-1-ol, p-toluenesulfonate", "3-Butyn-1-ol, 4-methylbenzenesulfonate", "4-p-Tolylsulfonyloxy-1-butyne", "3-Butyn-1-yl p-toluenesulfonate", "3-Butyn-1-yl p-tosylate", "3-Butynyl tosylate", "3-Butynyl 4-methylbenzenesulfonate", "3-Butyn-1-ol tosylate", "3-Butynyl p-toluenesulfonate", "4-Methylbenzenesulfonic acid 3-butynyl ester", "Toluene-4-sulfonic acid but-3-ynyl ester", "NSC 116062", "4-(Tosyloxy)-1-butyne", "3-Butyn-1-yl tosylate", "3-Butynyl 4-toluenesulfonate", "Homopropargyl tosylate", "3-Butyn-1-yl 4-methylbenzenesulfonate", "1-(3-Butyn-1-yl) 4-methylbenzenesulfonate"], "SMILES": "S(OCCC#C)(=O)(=O)C1=CC=C(C)C=C1", "physical_data": {"Molecular Weight": "224.28", "Molecular Formula": "C11H12O3S", "Boiling Point": "90 \u00b0C @ Press: 10-14 Torr"}}