{"cas_no": "23418-38-4", "cn_name": "4-\u7532\u57fa-4-\u58ec\u9187", "en_name": ["4-Methyl-4-nonanol", "4-Nonanol, 4-methyl-", "4-Methyl-4-nonanol", "1-Methyl-1-propylhexanol", "NSC 103159"], "SMILES": "C(CCCCC)(CCC)(C)O", "physical_data": {"Molecular Weight": "158.28", "Molecular Formula": "C10H22O", "Boiling Point": "92-93 \u00b0C @ Press: 15 Torr", "Density": "0.8245 g/cm\u00b3 @ Temp: 25 \u00b0C"}}