{"cas_no": "23426-63-3", "cn_name": "2-\u6eb4\u4ee3\u5f02\u4e01\u9178\u7532\u916f", "en_name": ["Methyl 2-bromo-2-methylpropanoate", "Propanoic acid, 2-bromo-2-methyl-, methyl ester", "Propionic acid, 2-bromo-2-methyl-, methyl ester", "Methyl 2-bromo-2-methylpropanoate", "\u03b1-Bromoisobutyric acid methyl ester", "Methyl 2-bromo-2-methylpropionate", "Methyl 2-bromoisobutyrate", "Methyl \u03b1-bromo-\u03b1-methylpropionate", "Methyl \u03b1-bromoisobutyrate", "2-Bromo-2-methylpropanoic acid methyl ester", "2-Bromoisobutyric acid methyl ester", "NSC 406890", "Methyl 2-bromoisobutanoate", "2-Bromo-2-methylpropionic acid methyl ester", "2-Bromomethyl methacrylate", "Methyl \u03b1,\u03b1-dimethylbromoacetate", "Methyl 2-bromoisobutylate", "Methyl bromodimethylacetate"], "SMILES": "C(C(Br)(C)C)(OC)=O", "physical_data": {"Molecular Weight": "181.03", "Molecular Formula": "C5H9BrO2", "Boiling Point": "52 \u00b0C @ Press: 19 Torr", "Density": "1.331 g/cm\u00b3 @ Temp: 20 \u00b0C"}}