{"cas_no": "2343-89-7", "cn_name": "2-\u6c1f\u4e19\u70ef\u9178\u7532\u916f", "en_name": ["Methyl 2-fluoro-2-propenoate", "2-Propenoic acid, 2-fluoro-, methyl ester", "Acrylic acid, 2-fluoro-, methyl ester", "Methyl 2-fluoro-2-propenoate", "\u03b1-Fluoroacrylic acid methyl ester", "Methyl 2-fluoroacrylate", "Methyl \u03b1-fluoroacrylate", "2-Fluoroacrylic acid methyl ester", "Methyl 2-fluoroprop-2-enoate", "H 61343"], "SMILES": "C(C(=C)F)(OC)=O", "physical_data": {"Molecular Weight": "104.08", "Molecular Formula": "C4H5FO2", "Boiling Point": "91 \u00b0C @ Press: 750 Torr", "Density": "1.1140 g/cm\u00b3 @ Temp: 20 \u00b0C"}}