{"cas_no": "23432-42-0", "cn_name": "4-\u7f9f\u57fa-6-\u785d\u57fa\u55b9\u5549", "en_name": ["6-Nitro-4-quinolinol", "4-Quinolinol, 6-nitro-", "6-Nitro-4-quinolinol", "6-Nitro-4-hydroxyquinoline", "NSC 78445"], "SMILES": "OC=1C2=C(C=CC(N(=O)=O)=C2)N=CC1", "physical_data": {"Molecular Weight": "190.16", "Molecular Formula": "C9H6N2O3", "Melting Point": "325 \u00b0C"}}