{"cas_no": "23434-88-0", "cn_name": "\u56db\u6c22\u80e1\u6912\u78b1", "en_name": ["Tetrahydropiperine", "1-Pentanone, 5-(1,3-benzodioxol-5-yl)-1-(1-piperidinyl)-", "Piperidine, 1-[5-[3,4-(methylenedioxy)phenyl]valeryl]-", "Piperidine, 1-[5-(1,3-benzodioxol-5-yl)-1-oxopentyl]-", "5-(1,3-Benzodioxol-5-yl)-1-(1-piperidinyl)-1-pentanone", "Tetrahydropiperine", "Cosmoperine", "Tetrahydropiperidine"], "SMILES": "C(CCCC(=O)N1CCCCC1)C=2C=C3C(=CC2)OCO3", "physical_data": {"Molecular Weight": "289.37", "Molecular Formula": "C17H23NO3", "Boiling Point": "261 \u00b0C @ Press: 14 Torr"}}