{"cas_no": "23432-40-8", "cn_name": "4-\u7f9f\u57fa-6-\u7532\u57fa\u55b9\u5549", "en_name": ["6-Methyl-4-quinolinol", "4-Quinolinol, 6-methyl-", "6-Methyl-4-quinolinol", "6-Methyl-4-hydroxyquinoline", "NSC 82351", "4-Hydroxy-6-methylquinoline"], "SMILES": "OC=1C2=C(C=CC(C)=C2)N=CC1", "physical_data": {"Molecular Weight": "159.18", "Molecular Formula": "C10H9NO", "Melting Point": "271-272 \u00b0C"}}