{"cas_no": "2344-70-9", "cn_name": "4-\u82ef\u57fa-2-\u4e01\u9187", "en_name": ["4-Phenyl-2-butanol", "Benzenepropanol, \u03b1-methyl-", "2-Butanol, 4-phenyl-", "\u03b1-Methylbenzenepropanol", "4-Phenyl-2-butanol", "1-Phenyl-3-butanol", "1-Methyl-3-phenyl-1-propanol", "2-Hydroxy-4-phenylbutane", "(\u00b1)-4-Phenylbutan-2-ol", "NSC 69076", "(\u00b1)-3-Phenyl-1-methylpropanol", "(3-Hydroxybutyl)benzene"], "SMILES": "C(CC(C)O)C1=CC=CC=C1", "physical_data": {"Molecular Weight": "150.22", "Molecular Formula": "C10H14O", "Boiling Point": "239 \u00b0C", "Melting Point": "61 \u00b0C", "Density": "0.9899 g/cm\u00b3 @ Temp: 1 \u00b0C"}}