{"cas_no": "2344-83-4", "cn_name": "3-\u6c2f\u4e19\u57fa\u4e09\u7532\u57fa\u7845\u70f7", "en_name": ["(3-Chloropropyl)trimethylsilane", "Silane, (3-chloropropyl)trimethyl-", "(3-Chloropropyl)trimethylsilane", "3-Trimethylsilylpropyl chloride", "\u03b3-Chloropropyltrimethylsilane", "1-Chloro-3-(trimethylsilyl)propane", "LS 1180"], "SMILES": "C([Si](C)(C)C)CCCl", "physical_data": {"Molecular Weight": "150.72", "Molecular Formula": "C6H15ClSi", "Boiling Point": "151 \u00b0C", "Density": "0.879 g/cm\u00b3"}}