{"cas_no": "23445-00-3", "cn_name": "\u5f53\u836f\u9187\u7519", "en_name": ["Swertianolin", "9H-Xanthen-9-one, 8-(\u03b2-D-glucopyranosyloxy)-1,5-dihydroxy-3-methoxy-", "Swertianolin", "8-(\u03b2-D-Glucopyranosyloxy)-1,5-dihydroxy-3-methoxy-9H-xanthen-9-one", "Bellidifolin 8-O-\u03b2-D-glucopyranoside", "Bellidifolin-8-O-glucoside"], "SMILES": "O(C1=C2C(OC=3C(C2=O)=C(O)C=C(OC)C3)=C(O)C=C1)C4OC(CO)C(O)C(O)C4O", "physical_data": {"Molecular Weight": "436.37", "Molecular Formula": "C20H20O11", "Melting Point": "198-200 \u00b0C"}}