{"cas_no": "2344-80-1", "cn_name": "\u6c2f\u7532\u57fa\u4e09\u7532\u57fa\u7845\u70f7", "en_name": ["(Chloromethyl)trimethylsilane", "Silane, (chloromethyl)trimethyl-", "(Chloromethyl)trimethylsilane", "Trimethyl(chloromethyl)silane", "(Trimethylsilyl)methyl chloride", "Chloro(trimethylsilyl)methane"], "SMILES": "[Si](CCl)(C)(C)C", "physical_data": {"Molecular Weight": "122.67", "Molecular Formula": "C4H11ClSi", "Boiling Point": "98.5 \u00b0C", "Density": "0.886 g/cm\u00b3"}}