{"cas_no": "2345-28-0", "cn_name": "2-\u5341\u4e94\u70f7\u916e", "en_name": ["2-Pentadecanone", "2-Pentadecanone", "Methyl tridecyl ketone", "2-Oxopentadecane", "Tridecyl methyl ketone"], "SMILES": "C(CCCCCCCC)CCCCC(C)=O", "physical_data": {"Molecular Weight": "226.40", "Molecular Formula": "C15H30O", "Boiling Point": "294 \u00b0C", "Melting Point": "39.5 \u00b0C"}}