{"cas_no": "2345-32-6", "cn_name": "4,4,4-\u4e09\u6c2f\u4e01\u9178", "en_name": ["4,4,4-Trichlorobutanoic acid", "Butanoic acid, 4,4,4-trichloro-", "Butyric acid, 4,4,4-trichloro-", "4,4,4-Trichlorobutanoic acid"], "SMILES": "C(C(Cl)(Cl)Cl)CC(O)=O", "physical_data": {"Molecular Weight": "191.44", "Molecular Formula": "C4H5Cl3O2", "Melting Point": "51-52 \u00b0C"}}