{"cas_no": "2345-38-2", "cn_name": "\u4e59\u9178\u4e09\u7532\u57fa\u7845(\u9187)\u916f", "en_name": ["(Trimethylsilyl)acetic acid", "Acetic acid, 2-(trimethylsilyl)-", "Acetic acid, (trimethylsilyl)-", "2-(Trimethylsilyl)acetic acid", "(Trimethylsilyl)acetic acid"], "SMILES": "C([Si](C)(C)C)C(O)=O", "physical_data": {"Molecular Weight": "132.23", "Molecular Formula": "C5H12O2Si", "Boiling Point": "90-905 \u00b0C @ Press: 10 Torr", "Melting Point": "40-42 \u00b0C"}}