{"cas_no": "23451-01-6", "cn_name": "\u5927\u9ec4\u7d20\u7532\u919a-8-O-\u0392-D-\u8461\u8404\u7cd6\u82f7", "en_name": ["Physcion 8-O-\u03b2-D-glucopyranoside", "9,10-Anthracenedione, 1-(\u03b2-D-glucopyranosyloxy)-8-hydroxy-3-methoxy-6-methyl-", "Glucopyranoside, 8-hydroxy-3-methoxy-6-methyl-1-anthraquinonyl, \u03b2-D-", "1-(\u03b2-D-Glucopyranosyloxy)-8-hydroxy-3-methoxy-6-methyl-9,10-anthracenedione", "Physcion 8-\u03b2-D-glucopyranoside", "Physcion 8-O-\u03b2-D-glucoside", "Anthraglycoside A", "Physcion-8-\u03b2-D-monoglucoside", "Physcion 8-O-\u03b2-D-glucopyranoside"], "SMILES": "O(C1=C2C(C(=O)C=3C(C2=O)=C(O)C=C(C)C3)=CC(OC)=C1)C4OC(CO)C(O)C(O)C4O", "physical_data": {"Molecular Weight": "446.40", "Molecular Formula": "C22H22O10", "Melting Point": "235 \u00b0C"}}