{"cas_no": "2345-27-9", "cn_name": "2-\u5341\u56db\u916e", "en_name": ["2-Tetradecanone", "2-Tetradecanone", "Dodecyl methyl ketone", "Methyl dodecyl ketone", "Lauryl methyl ketone"], "SMILES": "C(CCCCCCCCC)CCC(C)=O", "physical_data": {"Molecular Weight": "212.37", "Molecular Formula": "C14H28O", "Boiling Point": "134 \u00b0C @ Press: 14 Torr", "Melting Point": "33.5 \u00b0C"}}