{"cas_no": "2345-51-9", "cn_name": "3-\u4e01\u7094\u9178", "en_name": ["3-Butynoic acid", "3-Butynoic acid", "2-Ethynylacetic acid"], "SMILES": "C(C(O)=O)C#C", "physical_data": {"Molecular Weight": "84.07", "Molecular Formula": "C4H4O2", "Melting Point": "83 \u00b0C", "Density": "1.32 g/cm\u00b3"}}