{"cas_no": "2345-56-4", "cn_name": "\u4e19\u91af\u80fa\u9178", "en_name": ["3-Amino-3-oxopropanoic acid", "Propanoic acid, 3-amino-3-oxo-", "Malonamic acid", "3-Amino-3-oxopropanoic acid", "Acetic acid, carbamoyl-", "\u03b2-Alanine, 3-oxo-", "Malonic acid monoamide", "Malonamidic acid", "Carbamoylacetic acid", "Malonomonoamide", "3-Oxo-3-aminopropionic acid", "NSC 1812", "2-Carbamoylacetic acid"], "SMILES": "C(C(N)=O)C(O)=O", "physical_data": {"Molecular Weight": "103.08", "Molecular Formula": "C3H5NO3", "Melting Point": "121 \u00b0C"}}