{"cas_no": "2345-61-1", "cn_name": "\u53cd-3-\u6c2f\u4e19\u70ef\u9178", "en_name": ["(2E)-3-Chloro-2-propenoic acid", "2-Propenoic acid, 3-chloro-, (2E)-", "Acrylic acid, 3-chloro-, (E)-", "2-Propenoic acid, 3-chloro-, (E)-", "(2E)-3-Chloro-2-propenoic acid", "trans-3-Chloroacrylic acid", "trans-\u03b2-Chloroacrylic acid", "(E)-3-Chloroacrylic acid", "(E)-\u03b2-Chloroacrylic acid", "(E)-3-Chloroacrylic acid"], "SMILES": "C(C(O)=O)=CCl", "physical_data": {"Molecular Weight": "106.51", "Molecular Formula": "C3H3ClO2", "Boiling Point": "88.5 \u00b0C @ Press: 17 Torr", "Melting Point": "85.5-86 \u00b0C"}}