{"cas_no": "23454-33-3", "cn_name": "\u7fa4\u52c3\u9f99\u73af\u5df1\u7532\u57fa\u78b3\u9178\u916f", "en_name": ["(17\u03b2)-17-[[(Cyclohexylmethoxy)carbonyl]oxy]estra-4,9,11-trien-3-one", "Estra-4,9,11-trien-3-one, 17-[[(cyclohexylmethoxy)carbonyl]oxy]-, (17\u03b2)-", "Estra-4,9,11-trien-3-one, 17\u03b2-hydroxy-, cyclohexylmethyl carbonate", "Carbonic acid, cyclohexylmethyl ester, ester with 17\u03b2-hydroxyestra-4,9,11-trien-3-one", "Cyclohexanemethanol, hydrogen carbonate, ester with 17\u03b2-hydroxyestra-4,9,11-trien-3-one", "(17\u03b2)-17-[[(Cyclohexylmethoxy)carbonyl]oxy]estra-4,9,11-trien-3-one", "RU 2580", "Trenbolone hexahydrobenzyl carbonate", "Trenbolone cyclohexylmethyl carbonate", "Parabolan"], "SMILES": "CC12C(C3C(=C4C(CC3)=CC(=O)CC4)C=C1)CCC2OC(OCC5CCCCC5)=O", "physical_data": {"Molecular Weight": "410.55", "Molecular Formula": "C26H34O4", "Melting Point": "90-95 \u00b0C"}}