{"cas_no": "2345-34-8", "cn_name": "4-\u4e59\u9170\u6c27\u57fa\u82ef\u7532\u9178", "en_name": ["p-Acetoxybenzoic acid", "Benzoic acid, 4-(acetyloxy)-", "Benzoic acid, p-hydroxy-, acetate", "4-(Acetyloxy)benzoic acid", "p-Carboxyphenyl acetate", "p-Acetoxybenzoic acid", "p-Hydroxybenzoic acid acetate", "p-Acetyloxybenzoic acid", "4-Carboxyphenyl acetate", "4-Acetoxybenzoic acid", "NSC 11340"], "SMILES": "O(C(C)=O)C1=CC=C(C(O)=O)C=C1", "physical_data": {"Molecular Weight": "180.16", "Molecular Formula": "C9H8O4", "Boiling Point": "100-120 \u00b0C @ Press: 45 Torr", "Melting Point": "191-194 \u00b0C"}}