{"cas_no": "23452-05-3", "cn_name": "\u4ea4\u94fe\u5b62\u9709\u7532\u57fa\u919a", "en_name": ["Djalonensone", "6H-Dibenzo[b,d]pyran-6-one, 3,7-dihydroxy-9-methoxy-1-methyl-", "2-Biphenylcarboxylic acid, 2\u2032,3,4\u2032-trihydroxy-5-methoxy-6\u2032-methyl-, \u03b4-lactone", "3,7-Dihydroxy-9-methoxy-1-methyl-6H-dibenzo[b,d]pyran-6-one", "AME", "Alternariol 9-methyl ether", "Alternariol monomethyl ether", "Djalonensone", "NSC 638262", "Alternariol-5-O-methyl ether", "Alternariol 9-O-methyl ether", "Alternariol 4-O-methyl ether", "3,7-Dihydroxy-9-methoxy-1-methylbenzo[c]chromen-6-one"], "SMILES": "CC1=C2C=3C(C(=O)OC2=CC(O)=C1)=C(O)C=C(OC)C3", "physical_data": {"Molecular Weight": "272.25", "Molecular Formula": "C15H12O5", "Melting Point": "277-279 \u00b0C"}}