{"cas_no": "2345-17-7", "cn_name": "\u5c3c\u6cca\u5c14\u9e22\u5c3e\u5f02\u9ec4\u916e", "en_name": ["Irisolidone", "4H-1-Benzopyran-4-one, 5,7-dihydroxy-6-methoxy-3-(4-methoxyphenyl)-", "Isoflavone, 5,7-dihydroxy-4\u2032,6-dimethoxy-", "5,7-Dihydroxy-6-methoxy-3-(4-methoxyphenyl)-4H-1-benzopyran-4-one", "Irisolidone", "4\u2032-Methoxytectorigenin", "4\u2032-O-Methyltectorigenin"], "SMILES": "O=C1C=2C(OC=C1C3=CC=C(OC)C=C3)=CC(O)=C(OC)C2O", "physical_data": {"Molecular Weight": "314.29", "Molecular Formula": "C17H14O6", "Melting Point": "190-191 \u00b0C"}}