{"cas_no": "23458-02-8", "cn_name": "\u65e5\u672c\u524d\u80e1\u9187", "en_name": ["(+)-Decursinol", "2H,6H-Benzo[1,2-b:5,4-b\u2032]dipyran-2-one, 7,8-dihydro-7-hydroxy-8,8-dimethyl-, (7S)-", "2H,6H-Benzo[1,2-b:5,4-b\u2032]dipyran-2-one, 7,8-dihydro-7-hydroxy-8,8-dimethyl-, (S)-(+)-", "2H,6H-Benzo[1,2-b:5,4-b\u2032]dipyran-2-one, 7,8-dihydro-7-hydroxy-8,8-dimethyl-, (S)-", "(7S)-7,8-Dihydro-7-hydroxy-8,8-dimethyl-2H,6H-benzo[1,2-b:5,4-b\u2032]dipyran-2-one", "Decursinol", "(+)-Decursinol", "Smyrinol", "Smirinol", "(3S)-3-Hydroxy-2,2-dimethyl-3,4-dihydropyrano[3,2-g]chromen-8-one"], "SMILES": "OC1CC=2C(=CC3=C(C2)C=CC(=O)O3)OC1(C)C", "physical_data": {"Molecular Weight": "246.26", "Molecular Formula": "C14H14O4", "Melting Point": "178 \u00b0C"}}