{"cas_no": "2346-00-1", "cn_name": "2-\u7532\u57fa-2-\u567b\u5511\u5549", "en_name": ["2-Methyl-2-thiazoline", "Thiazole, 4,5-dihydro-2-methyl-", "2-Thiazoline, 2-methyl-", "4,5-Dihydro-2-methylthiazole", "2-Methyl-\u03942-thiazoline", "2-Methylthiazoline", "2-Methyl-2-thiazoline", "2-Methyl-4,5-dihydro-1,3-thiazole"], "SMILES": "CC1=NCCS1", "physical_data": {"Molecular Weight": "101.17", "Molecular Formula": "C4H7NS", "Boiling Point": "145 \u00b0C", "Melting Point": "-101 \u00b0C"}}