{"cas_no": "23466-27-5", "cn_name": "1-\u7532\u57fa-1H-\u5421\u54af-2-\u7532\u9178\u4e59\u916f", "en_name": ["Ethyl 1-methyl-1H-pyrrole-2-carboxylate", "1H-Pyrrole-2-carboxylic acid, 1-methyl-, ethyl ester", "Pyrrole-2-carboxylic acid, 1-methyl-, ethyl ester", "Ethyl 1-methyl-1H-pyrrole-2-carboxylate", "Ethyl N-methyl-2-pyrrolecarboxylate", "Ethyl 1-methyl-2-pyrrolecarboxylate"], "SMILES": "C(OCC)(=O)C=1N(C)C=CC1", "physical_data": {"Molecular Weight": "153.18", "Molecular Formula": "C8H11NO2", "Boiling Point": "94 \u00b0C @ Press: 18 Torr"}}