{"cas_no": "23465-76-1", "cn_name": "\u5361\u7f57\u7ef4\u6797", "en_name": ["Caroverine", "2(1H)-Quinoxalinone, 1-[2-(diethylamino)ethyl]-3-[(4-methoxyphenyl)methyl]-", "2(1H)-Quinoxalinone, 1-[2-(diethylamino)ethyl]-3-(p-methoxybenzyl)-", "1-[2-(Diethylamino)ethyl]-3-[(4-methoxyphenyl)methyl]-2(1H)-quinoxalinone", "1-[2-(Diethylamino)ethyl]-3-(p-methoxybenzyl)-2-quinoxalone", "Spasmium", "Spadon", "Caroverine", "1-[2-(Diethylamino)ethyl]-3-[(4-methoxyphenyl)methyl]quinoxalin-2-one"], "SMILES": "C(CN(CC)CC)N1C=2C(N=C(CC3=CC=C(OC)C=C3)C1=O)=CC=CC2", "physical_data": {"Molecular Weight": "365.47", "Molecular Formula": "C22H27N3O2", "Boiling Point": "202 \u00b0C @ Press: 0.01 Torr", "Melting Point": "69 \u00b0C"}}