{"cas_no": "2346-26-1", "cn_name": "2,4-\u6076\u5511\u70f7\u4e8c\u916e", "en_name": ["2,4-Oxazolidinedione", "2,4-Oxazolidinedione", "Glycoloylcarbamic acid \u03b3-lactone", "2,4(3H,5H)-Oxazoledione", "Carbamic acid, (hydroxyacetyl)-, \u03b3-lactone", "1,3-Oxazolidine-2,4-dione", "NSC 120350", "1,3-Oxazolidin-2,4-dione", "2-Hydroxy-4,5-dihydro-1,3-oxazol-4-one"], "SMILES": "O=C1NC(=O)OC1", "physical_data": {"Molecular Weight": "101.06", "Molecular Formula": "C3H3NO3", "Boiling Point": "173 \u00b0C @ Press: 11 Torr", "Melting Point": "89-90 \u00b0C"}}