{"cas_no": "2346-81-8", "cn_name": "3-\u6c2f(\u6b63)\u5df1\u70f7", "en_name": ["3-Chlorohexane", "Hexane, 3-chloro-", "3-Chlorohexane", "3(RS)-Chlorohexane", "(\u00b1)-3-Chlorohexane"], "SMILES": "C(CCC)(CC)Cl", "physical_data": {"Molecular Weight": "120.62", "Molecular Formula": "C6H13Cl", "Boiling Point": "123 \u00b0C", "Density": "0.870 g/cm\u00b3 @ Temp: 20 \u00b0C"}}