{"cas_no": "23468-31-7", "cn_name": "6-\u6c2f\u80e1\u6912\u6c2f", "en_name": ["5-Chloro-6-(chloromethyl)-1,3-benzodioxole", "1,3-Benzodioxole, 5-chloro-6-(chloromethyl)-", "Toluene, \u03b1,2-dichloro-4,5-(methylenedioxy)-", "5-Chloro-6-(chloromethyl)-1,3-benzodioxole", "6-Chloropiperonyl chloride", "5-Chloro-6-(chloromethyl)benzodioxole", "NSC 31302", "5-Chloro-6-(chloromethyl)benzo[d][1,3]dioxole"], "SMILES": "C(Cl)C=1C=C2C(=CC1Cl)OCO2", "physical_data": {"Molecular Weight": "205.04", "Molecular Formula": "C8H6Cl2O2", "Melting Point": "65 \u00b0C"}}