{"cas_no": "23470-00-0", "cn_name": "2-(1,3-\u4e8c\u7f9f\u57fa\u4e19-2-\u57fa)\u5341\u516d\u9178 \u590d\u5408\u7269 1,3-\u4e8c\u7f9f\u57fa\u4e19-2-\u57fa \u68d5\u6988\u9178\u916f (1:1)", "en_name": ["2-Palmitoylglycerol", "Hexadecanoic acid, 2-hydroxy-1-(hydroxymethyl)ethyl ester", "Palmitin, 2-mono-", "2-Hexadecanoyl glycerol", "2-Monopalmitin", "2-Monopalmitoyl-sn-glycerol", "Palmitic acid \u03b2-monoglyceride", "2-Palmitoylglycerol", "2-Monopalmitoylglycerol", "\u03b2-Monopalmitin", "2-Monohexadecanoylglycerol", "Glycerol-\u03b2-palmitate", "1,3-Dihydroxypropan-2-yl palmitate", "2-Palmitoyl-rac-glycerol", "2-Glyceryl palmitate"], "SMILES": "O(C(CO)CO)C(CCCCCCCCCCCCCCC)=O", "physical_data": {"Molecular Weight": "330.50", "Molecular Formula": "C19H38O4", "Melting Point": "74 \u00b0C"}}