{"cas_no": "2348-82-5", "cn_name": "2-\u7532\u6c27\u57fa-1,4-\u8418\u5e76\u918c", "en_name": ["2-Methoxy-1,4-naphthoquinone", "1,4-Naphthalenedione, 2-methoxy-", "1,4-Naphthoquinone, 2-methoxy-", "2-Methoxy-1,4-naphthalenedione", "2-Methoxy-1,4-naphthoquinone", "2-Methoxy-p-naphthoquinone", "2-Methoxynaphthoquinone", "NSC 31530", "Lawsone methyl ether", "O-Methyllawsone", "2-Methoxy-1,4-dihydronaphthalene-1,4-dione"], "SMILES": "O=C1C=2C(C(=O)C=C1OC)=CC=CC2", "physical_data": {"Molecular Weight": "188.18", "Molecular Formula": "C11H8O3", "Melting Point": "184-185 \u00b0C"}}