{"cas_no": "23488-38-2", "cn_name": "2,3,5,6-\u56db\u6eb4\u5bf9\u4e8c\u7532\u82ef", "en_name": ["2,3,5,6-Tetrabromo-p-xylene", "Benzene, 1,2,4,5-tetrabromo-3,6-dimethyl-", "p-Xylene, 2,3,5,6-tetrabromo-", "1,2,4,5-Tetrabromo-3,6-dimethylbenzene", "2,3,5,6-Tetrabromo-p-xylene", "1,4-Dimethyltetrabromobenzene", "2,3,5,6-Tetrabromo-1,4-dimethylbenzene"], "SMILES": "BrC1=C(Br)C(C)=C(Br)C(Br)=C1C", "physical_data": {"Molecular Weight": "421.75", "Molecular Formula": "C8H6Br4", "Melting Point": "246-248 \u00b0C"}}