{"cas_no": "23495-12-7", "cn_name": "\u4e19\u9178-2-\u82ef\u6c27\u57fa\u4e59\u916f", "en_name": ["Phenoxyethyl propionate", "Ethanol, 2-phenoxy-, 1-propanoate", "Ethanol, 2-phenoxy-, propionate", "Ethanol, 2-phenoxy-, propanoate", "2-Phenoxyethyl propionate", "Phenoxyethyl propionate", "Ethylene glycol monophenyl ether propionate", "NSC 6707", "2-Phenoxyethyl propanoate"], "SMILES": "O(CCOC(CC)=O)C1=CC=CC=C1", "physical_data": {"Molecular Weight": "194.23", "Molecular Formula": "C11H14O3", "Boiling Point": "121 \u00b0C @ Press: 4 Torr"}}