{"cas_no": "2349-07-7", "cn_name": "\u5f02\u4e01\u9178\u5df1\u916f", "en_name": ["Hexyl isobutyrate", "Propanoic acid, 2-methyl-, hexyl ester", "Isobutyric acid, hexyl ester", "Hexyl isobutyrate", "n-Hexyl isobutyrate", "1-Hexyl isobutyrate", "Hexyl isobutanoate", "n-Hexyl iso-butyrate", "Hexyl 2-methylpropionate", "Hexyl 2-methylpropanoate", "NSC 46108"], "SMILES": "O(C(C(C)C)=O)CCCCCC", "physical_data": {"Molecular Weight": "172.26", "Molecular Formula": "C10H20O2", "Boiling Point": "199 \u00b0C @ Press: 760 Torr", "Density": "0.8700 g/cm\u00b3 @ Temp: 20 \u00b0C"}}