{"cas_no": "23496-41-5", "cn_name": "\u8d1d\u6bcd\u7532\u7d20", "en_name": ["Peimine", "Cevane-3,6,20-triol, (3\u03b2,5\u03b1,6\u03b1)-", "5\u03b1-Cevane-3\u03b2,6\u03b1,20-triol", "Verticine", "(3\u03b2,5\u03b1,6\u03b1)-Cevane-3,6,20-triol", "Dihydroisoimperialine", "Peimine"], "SMILES": "CC12C3C(C4C(C3)C5C(CC4)C(C)(O)C6N(C5)CC(C)CC6)CC(O)C1CC(O)CC2", "physical_data": {"Molecular Weight": "431.65", "Molecular Formula": "C27H45NO3", "Melting Point": "223 \u00b0C"}}