{"cas_no": "2349-67-9", "cn_name": "2-\u6c28\u57fa-5-\u5def\u57fa-1,3,4-\u567b\u4e8c\u5511", "en_name": ["2-Amino-5-mercapto-1,3,4-thiadiazole", "1,3,4-Thiadiazole-2(3H)-thione, 5-amino-", "1,3,4-Thiadiazole-2-thiol, 5-amino-", "\u03942-1,3,4-Thiadiazoline-2-thiol, 5-imino-", "5-Amino-1,3,4-thiadiazole-2(3H)-thione", "2-Mercapto-5-amino-1,3,4-thiadiazole", "5-Amino-1,3,4-thiadiazole-2-thiol", "2-Thiol-5-amino-1,3,4-thiadiazole", "2-Amino-\u03942-1,3,4-thiadiazoline-5-thione", "2-Amino-1,3,4-thiadiazole-5-thiol", "5-Amino-1,3,4-thiadiazoline-2-thione", "5-Amino-2-mercapto-1,3,4-thiadiazole", "2-Amino-1,3,4-thiadiazol-5-thiol", "2-Amino-1,3,4-thiadiazole-5-mercaptan", "2-Amino-5-mercapto-1,3,4-thiadiazole", "WR 180", "5-Amino-3H-1,3,4-thiadiazole-2-thione", "2-Amino-5-mercaptothiadiazole", "ATT", "NSC 209061", "NSC 21402", "5-Amino-1,3,4-thiadiazole-2-thione", "5-Thio-2-amino-[1,3,4]thiadiazole", "5-Amino-1,3,4-thidiazole-2-thiol", "5-Thiol-2-amino-1,3,4-thiadiazole", "2-Mercapto-5-aminothiadiazole", "5-Amino-1,3,4-thiadiazole-5-thiol", "2-Amino-5-sulfhydryl-1,3,4-thiadiazole", "5-Amino-2-sulfhydryl-1,3,4-thiadiazole", "2-Amino-5-sulfanyl-1,3,4-thiadiazole", "5-Amino-1,3,4-thiadiazole-2-mercaptan"], "SMILES": "NC=1SC(=S)NN1", "physical_data": {"Molecular Weight": "133.20", "Molecular Formula": "C2H3N3S2", "Melting Point": "235 \u00b0C"}}