{"cas_no": "2349-58-8", "cn_name": "4,5-\u4e8c\u82ef\u57fa-2-\u54aa\u5511\u786b\u9187", "en_name": ["4,5-Diphenyl-2-imidazolethiol", "2H-Imidazole-2-thione, 1,3-dihydro-4,5-diphenyl-", "Imidazole-2-thiol, 4,5-diphenyl-", "4-Imidazoline-2-thione, 4,5-diphenyl-", "1,3-Dihydro-4,5-diphenyl-2H-imidazole-2-thione", "4,5-Diphenyl-2-mercaptoimidazole", "4,5-Diphenylmercaptoimidazole", "2-Mercapto-4,5-diphenylimidazole", "4,5-Diphenylimidazoline-2-thione", "4,5-Diphenyl-4-imidazoline-2-thione", "4,5-Diphenyl-2-imidazolethiol", "4,5-Diphenyl-1H-imidazole-2-thiol", "4,5-Diphenyl-1,3-dihydroimidazole-2-thione", "4,5-Diphenyl-2-imidazolethione"], "SMILES": "S=C1NC(=C(N1)C2=CC=CC=C2)C3=CC=CC=C3", "physical_data": {"Molecular Weight": "252.33", "Molecular Formula": "C15H12N2S", "Melting Point": "316 \u00b0C"}}