{"cas_no": "2349-70-4", "cn_name": "2-\u4e59\u57fa\u82ef-1,4-\u4e8c\u9187", "en_name": ["2-Ethyl-1,4-benzenediol", "1,4-Benzenediol, 2-ethyl-", "Hydroquinone, ethyl-", "2-Ethyl-1,4-benzenediol", "Ethylhydroquinone", "2-Ethylhydroquinone", "Ethyl-1,4-hydroquinone", "2-Ethyl-1,4-dihydroxybenzene"], "SMILES": "C(C)C1=C(O)C=CC(O)=C1", "physical_data": {"Molecular Weight": "138.16", "Molecular Formula": "C8H10O2", "Melting Point": "112 \u00b0C"}}