{"cas_no": "23500-10-9", "cn_name": "(S)-1-(2-\u6c2f\u4e59\u9170\u57fa)-2-\u7fa7\u57fa\u5421\u54af", "en_name": ["1-(2-Chloroacetyl)-L-proline", "L-Proline, 1-(2-chloroacetyl)-", "Proline, 1-(chloroacetyl)-, L-", "L-Proline, 1-(chloroacetyl)-", "1-(2-Chloroacetyl)-L-proline", "N-\u03b1-Chloroacetyl-L-proline", "(S)-1-(2-Chloroacetyl)pyrrolidine-2-carboxylic acid", "1-(2-ChloroacetyL)proline", "(2S)-1-(2-Chloroacetyl)pyrrolidine-2-carboxylic acid"], "SMILES": "C(CCl)(=O)N1C(C(O)=O)CCC1", "physical_data": {"Molecular Weight": "191.61", "Molecular Formula": "C7H10ClNO3", "Melting Point": "112-113 \u00b0C"}}