{"cas_no": "23504-03-2", "cn_name": "4-\u5f02\u4e19\u57fa\u82ef-1,3-\u4e8c\u9187", "en_name": ["4-Isopropylresorcinol", "1,3-Benzenediol, 4-(1-methylethyl)-", "Resorcinol, 4-isopropyl-", "4-(1-Methylethyl)-1,3-benzenediol", "4-Isopropyl-1,3-benzenediol", "4-Isopropylresorcinol", "2,4-Dihydroxy-1-isopropylbenzene"], "SMILES": "C(C)(C)C1=C(O)C=C(O)C=C1", "physical_data": {"Molecular Weight": "152.19", "Molecular Formula": "C9H12O2", "Boiling Point": "114 \u00b0C @ Press: 0.2 Torr", "Melting Point": "105 \u00b0C"}}