{"cas_no": "23505-41-1", "cn_name": "\u4e59\u57fa\u5627\u5576\u78f7", "en_name": ["Pirimiphos ethyl", "Phosphorothioic acid, O-[2-(diethylamino)-6-methyl-4-pyrimidinyl] O,O-diethyl ester", "R 42211", "PP 211", "O-(2-Diethylamino-4-methyl-6-pyrimidyl) O,O-diethyl phosphorothioate", "O,O-Diethyl O-(2-diethylamino-6-methyl-4-pyrimidinyl)phosphorothioate", "O-[2-(Diethylamino)-6-methyl-4-pyrimidinyl] O,O-diethyl phosphorothioate", "Primicid", "Pirimiphos ethyl", "2-Diethylamino-6-methyl-pyrimidin-4-yl-diethylphosphorothionate", "Fernex", "SolGard", "Ethyl pirimiphos", "Pirimiphos A"], "SMILES": "O(P(OCC)(OCC)=S)C1=NC(N(CC)CC)=NC(C)=C1", "physical_data": {"Molecular Weight": "333.39", "Molecular Formula": "C13H24N3O3PS", "Melting Point": "15-18 \u00b0C", "Density": "1.14 g/cm\u00b3 @ Temp: 20 \u00b0C"}}