{"cas_no": "23503-68-6", "cn_name": "2-(\u7532\u57fa\u78fa\u9170\u57fa)-10H-\u5429\u567b\u55ea", "en_name": ["2-(Methylsulfonyl)-10H-phenothiazine", "10H-Phenothiazine, 2-(methylsulfonyl)-", "Phenothiazine, 2-(methylsulfonyl)-", "2-(Methylsulfonyl)-10H-phenothiazine"], "SMILES": "S(C)(=O)(=O)C=1C=C2C(SC=3C(N2)=CC=CC3)=CC1", "physical_data": {"Molecular Weight": "277.36", "Molecular Formula": "C13H11NO2S2", "Melting Point": "156.5-158.0 \u00b0C"}}