{"cas_no": "23500-04-1", "cn_name": "(S)-2-\u4e59\u9170\u80fa\u57fa-6-((\u53d4\u4e01\u6c27\u7fb0\u57fa)\u6c28\u57fa)\u5df1\u9178", "en_name": ["N2-Acetyl-N6-[(1,1-dimethylethoxy)carbonyl]-L-lysine", "L-Lysine, N2-acetyl-N6-[(1,1-dimethylethoxy)carbonyl]-", "Lysine, N2-acetyl-N6-carboxy-, N6-tert-butyl ester, L-", "N2-Acetyl-N6-[(1,1-dimethylethoxy)carbonyl]-L-lysine", "\u03b1-N-Acetyl-\u03b5-N-Boc-L-lysine", "(2S)-2-Acetamido-6-[(2-methylpropan-2-yl)oxycarbonylamino]hexanoic acid", "(S)-2-Acetamido-6-((tert-butoxycarbonyl)amino)hexanoicacid"], "SMILES": "C(CCCCNC(OC(C)(C)C)=O)(NC(C)=O)C(O)=O", "physical_data": {"Molecular Weight": "288.34", "Molecular Formula": "C13H24N2O5", "Melting Point": "128 \u00b0C"}}