{"cas_no": "2350-89-2", "cn_name": "4-\u4e59\u70ef\u57fa\u8054\u82ef", "en_name": ["4-Ethenyl-1,1\u2032-biphenyl", "1,1\u2032-Biphenyl, 4-ethenyl-", "Biphenyl, 4-vinyl-", "4-Ethenyl-1,1\u2032-biphenyl", "4-Vinylbiphenyl", "4-Phenylstyrene", "4-Vinyldiphenyl", "p-Phenylstyrene", "p-Vinylbiphenyl", "4-Ethenylbiphenyl", "NSC 58060", "4-Vinyl-1,1\u2032-biphenyl", "(Biphenyl-4-yl)ethene", "1-Ethenyl-4-phenylbenzene", "Poly-p-phenylstyrene"], "SMILES": "C(=C)C1=CC=C(C=C1)C2=CC=CC=C2", "physical_data": {"Molecular Weight": "180.25", "Molecular Formula": "C14H12", "Boiling Point": "136-138 \u00b0C @ Press: 6 Torr", "Melting Point": "119 \u00b0C"}}