{"cas_no": "2351-33-9", "cn_name": "1\uff0c1-\u4e8c\u6c2f\u7845\u57fa\u73af\u4e01\u70f7", "en_name": ["1,1-Dichlorosilacyclobutane", "Silacyclobutane, 1,1-dichloro-", "1,1-Dichlorosilacyclobutane", "1,1-Dichloro-1-silacyclobutane", "Cyclotrimethylenedichlorosilane", "1,1-Dichlorosiletane"], "SMILES": "Cl[Si]1(Cl)CCC1", "physical_data": {"Molecular Weight": "141.07", "Molecular Formula": "C3H6Cl2Si", "Boiling Point": "113-114 \u00b0C", "Density": "1.201 g/cm\u00b3"}}