{"cas_no": "23516-79-2", "cn_name": "1-(4-\u6c28\u57fa\u82ef\u57fa)-2,2,2-\u4e09\u6c1f\u4ee3\u4e59\u70f7-1-\u916e", "en_name": ["1-(4-Aminophenyl)-2,2,2-trifluoroethanone", "Ethanone, 1-(4-aminophenyl)-2,2,2-trifluoro-", "Acetophenone, 4\u2032-amino-2,2,2-trifluoro-", "1-(4-Aminophenyl)-2,2,2-trifluoroethanone", "4\u2032-Amino-2,2,2-trifluoroacetophenone", "p-(Trifluoroacetyl)aniline", "4-Trifluoroacetylaniline", "4-Aminophenyl trifluoromethyl ketone", "1-(4-Aminophenyl)-2,2,2-trifluoroethan-1-one", "1-(4-Aminophenyl)-2,2,2-trifluoro-1-ethanone"], "SMILES": "C(C(F)(F)F)(=O)C1=CC=C(N)C=C1", "physical_data": {"Molecular Weight": "189.13", "Molecular Formula": "C8H6F3NO", "Melting Point": "87 \u00b0C"}}