{"cas_no": "2351-37-3", "cn_name": "4\uff0c4\u2018-\u8054\u82ef\u57fa\u4e59\u9170\u6c2f", "en_name": ["4,4\u2032-Biphenyldicarbonyl chloride", "[1,1\u2032-Biphenyl]-4,4\u2032-dicarbonyl dichloride", "4,4\u2032-Biphenyldicarbonyl chloride", "p-Biphenylenedicarbonyl chloride", "4,4\u2032-Bis(chloroformyl)biphenyl", "Diphenyl-4,4\u2032-dicarboxylic acid chloride", "4,4\u2032-Bibenzoyl chloride", "p,p\u2032-Bis(chlorocarbonyl)biphenyl", "4,4\u2032-Biphenyldicarbonyl dichloride", "4,4\u2032-Biphenyldicarboxyl chloride", "4,4\u2032-Bis(chlorocarbonyl)-1,1\u2032-biphenyl", "4,4\u2032-Biphenyldicarboxylic dichloride", "4,4\u2032-Dibenzoyl chloride", "4BPAC", "4,4\u2032-Diphenyldicarboxylic acid dichloride"], "SMILES": "C(Cl)(=O)C1=CC=C(C=C1)C2=CC=C(C(Cl)=O)C=C2", "physical_data": {"Molecular Weight": "279.12", "Molecular Formula": "C14H8Cl2O2", "Melting Point": "181-182 \u00b0C"}}