{"cas_no": "23513-14-6", "cn_name": "6-\u59dc\u915a", "en_name": ["[6]-Gingerol", "3-Decanone, 5-hydroxy-1-(4-hydroxy-3-methoxyphenyl)-, (5S)-", "3-Decanone, 5-hydroxy-1-(4-hydroxy-3-methoxyphenyl)-, (S)-(+)-", "3-Decanone, 5-hydroxy-1-(4-hydroxy-3-methoxyphenyl)-, (S)-", "(5S)-5-Hydroxy-1-(4-hydroxy-3-methoxyphenyl)-3-decanone", "(+)-[6]-Gingerol", "[6]-Gingerol", "(+)-5-Hydroxy-1-(4-hydroxy-3-methoxyphenyl)-3-decanone", "(S)-(+)-[6]Gingerol", "(S)-[6]Gingerol", "(5S)-[6]-Gingerol", "(5S)-5-Hydroxy-1-(4-hydroxy-3-methoxyphenyl)decan-3-one", "3-Decanone 5-hydroxy-1-(4-hydroxy-3-methoxyphenyl)-, (5S)-"], "SMILES": "C(CC(CC(CCCCC)O)=O)C1=CC(OC)=C(O)C=C1", "physical_data": {"Molecular Weight": "294.39", "Molecular Formula": "C17H26O4", "Melting Point": "31 \u00b0C"}}