{"cas_no": "2351-36-2", "cn_name": "2,6-\u8418\u4e8c\u7532\u9170\u6c2f", "en_name": ["2,6-Naphthalenedicarbonyl dichloride", "2,6-Naphthalenedicarbonyl dichloride", "2,6-Naphthalenedicarbonyl chloride", "2,6-Naphthalenedicarboxylic chloride", "2,6-Naphthoyl chloride", "2,6-Naphthalenedicarboxylic dichloride", "2,6-Naphthalenedicarboxylic acid dichloride", "2,6-Naphthaloyl dichloride", "26NADOC"], "SMILES": "C(Cl)(=O)C1=CC2=C(C=C(C(Cl)=O)C=C2)C=C1", "physical_data": {"Molecular Weight": "253.08", "Molecular Formula": "C12H6Cl2O2", "Melting Point": "185-185.5 \u00b0C"}}