{"cas_no": "23513-15-7", "cn_name": "10-\u59dc\u916e\u9187", "en_name": ["[10]-Gingerol", "3-Tetradecanone, 5-hydroxy-1-(4-hydroxy-3-methoxyphenyl)-, (5S)-", "3-Tetradecanone, 5-hydroxy-1-(4-hydroxy-3-methoxyphenyl)-, (S)-", "(5S)-5-Hydroxy-1-(4-hydroxy-3-methoxyphenyl)-3-tetradecanone", "[10]-Gingerol", "(+)-(S)-[10]-Gingerol", "(5S)-[10]-Gingerol", "(S)-[10]-Gingerol", "(5S)-5-Hydroxy-1-(4-hydroxy-3-methoxyphenyl)tetradecan-3-one"], "SMILES": "C(CC(CC(CCCCCCCCC)O)=O)C1=CC(OC)=C(O)C=C1", "physical_data": {"Molecular Weight": "350.49", "Molecular Formula": "C21H34O4", "Melting Point": "56-58 \u00b0C"}}