{"cas_no": "23519-77-9", "cn_name": "\u6b63\u4e19\u9187\u9506", "en_name": ["Zirconium n-propoxide", "1-Propanol, zirconium(4+) salt (4:1)", "Propyl alcohol, zirconium(4+) salt", "1-Propanol, zirconium(4+) salt", "Zirconium propoxide", "Zirconium tetrapropoxide", "Tetrapropoxyzirconium", "Zirconium tetrapropylate", "Tetrapropyl zirconate", "Propyl zirconate", "Zirconic acid propyl ester", "Tetrapropyl zirconate (Zr(OC3H7)4)", "Zirconium n-propoxide", "Zirconium(4+) propoxide", "Zirconium(4+) propanolate", "Zirconium(IV) n-propoxide", "Tilcom NPZ", "Orgatix ZA 40", "Zirconium tetrakis(1-propoxide)", "Zirconium(IV) propoxide", "Tetra-n-propyl zirconate", "Tetra-n-propoxyzirconium", "Vertec NPZ", "Zirconium tetrapropanolate", "Tyzor NPZ", "Zirconium propoxide (Zr(OPr)4)", "Z 0017", "Orgatix ZA 45", "Zr 801", "DN 801", "ZA 45", "1-Propyl zirconate", "KBR 33", "Hydrogen zirconium carbide hydroxide (H24ZrC12(OH)4)"], "SMILES": "C(CO)C.[Zr]", "physical_data": {"Molecular Weight": "", "Molecular Formula": "C3H8O.<sup>1</sup>/4Zr", "Boiling Point": "208 \u00b0C @ Press: 0.1 Torr", "Density": "1.050 g/cm\u00b3"}}