{"cas_no": "23521-49-5", "cn_name": "\u987a-1-\u6eb4-2-\u4e59\u6c27\u57fa\u4e59\u70ef", "en_name": ["(1Z)-1-Bromo-2-ethoxyethene", "Ethene, 1-bromo-2-ethoxy-, (1Z)-", "Ether, 2-bromovinyl ethyl, (Z)-", "Ethene, 1-bromo-2-ethoxy-, (Z)-", "(1Z)-1-Bromo-2-ethoxyethene", "(Z)-1-Bromo-2-ethoxyethylene", "cis-1-Bromo-2-ethoxyethylene", "cis-1-Bromo-2-ethoxyethene", "(Z)-1-Bromo-2-ethoxyethene", "(Z)-2-Ethoxy-1-bromoethene", "(Z)-1-Bromo-2-ethoxyethene", "(Z)-2-Bromo-1-ethoxyethene"], "SMILES": "C(OCC)=CBr", "physical_data": {"Molecular Weight": "151.00", "Molecular Formula": "C4H7BrO", "Boiling Point": "134-137 \u00b0C", "Density": "1.4302 g/cm\u00b3 @ Temp: 20 \u00b0C"}}