{"cas_no": "23526-45-6", "cn_name": "\u5410\u53f6\u9187", "en_name": ["(+)-Vomifoliol", "2-Cyclohexen-1-one, 4-hydroxy-4-[(1E,3R)-3-hydroxy-1-buten-1-yl]-3,5,5-trimethyl-, (4S)-", "2-Cyclohexen-1-one, 4-hydroxy-4-(3-hydroxy-1-butenyl)-3,5,5-trimethyl-, (+)-", "2-Cyclohexen-1-one, 4-hydroxy-4-(3-hydroxy-1-butenyl)-3,5,5-trimethyl-, [S-[R*,S*-(E)]]-", "2-Cyclohexen-1-one, 4-hydroxy-4-[(1E,3R)-3-hydroxy-1-butenyl]-3,5,5-trimethyl-, (4S)-", "(4S)-4-Hydroxy-4-[(1E,3R)-3-hydroxy-1-buten-1-yl]-3,5,5-trimethyl-2-cyclohexen-1-one", "Vomifoliol", "Blumenol A", "(+)-Vomifoliol", "(+)-Blumenol A", "(6S,7E,9R)-6,9-Dihydroxy-4,7-megastigmadien-3-one", "Roseoside aglycon", "(6S,9R)-Vomifoliol", "(6S,9R)-6-Hydroxy-3-oxo-\u03b1-ionol"], "SMILES": "C(=CC(C)O)C1(O)C(C)(C)CC(=O)C=C1C", "physical_data": {"Molecular Weight": "224.30", "Molecular Formula": "C13H20O3", "Melting Point": "115 \u00b0C"}}