{"cas_no": "2353-33-5", "cn_name": "\u5730\u897f\u4ed6\u6ee8", "en_name": ["5-Aza-2\u2032-deoxycytidine", "1,3,5-Triazin-2(1H)-one, 4-amino-1-(2-deoxy-\u03b2-D-erythro-pentofuranosyl)-", "s-Triazin-2(1H)-one, 4-amino-1-(2-deoxy-\u03b2-D-erythro-pentofuranosyl)-", "4-Amino-1-(2-deoxy-\u03b2-D-erythro-pentofuranosyl)-1,3,5-triazin-2(1H)-one", "5-Aza-2\u2032-deoxycytidine", "5-Azadeoxycytidine", "2-Desoxy-5-azacytidine", "2\u2032-Deoxy-5-azacytidine", "Decitabine", "NSC 127716", "DAC", "Dacogen", "\u03b2-Decitabine", "5-Aza-2-deoxycytidine", "4-Amino-1-(2-deoxy-\u03b2-D-ribofuranosyl)-1,3,5-triazin-2(1H)-one", "A 2232", "NSC127716"], "SMILES": "O=C1N(C2OC(CO)C(O)C2)C=NC(N)=N1", "physical_data": {"Molecular Weight": "228.21", "Molecular Formula": "C8H12N4O4", "Melting Point": "198-199 \u00b0C (decomp)"}}