{"cas_no": "2353-44-8", "cn_name": "3-\u6c28\u57fa-2,6-\u54cc\u5576\u4e8c\u916e", "en_name": ["3-Amino-2,6-piperidinedione", "2,6-Piperidinedione, 3-amino-", "Glutarimide, 2-amino-", "3-Amino-2,6-piperidinedione", "Glutamimide", "3-Amino-2,6-dioxopiperidine", "\u03b1-Aminoglutarimide", "3-Aminopiperidine-2,6-dione", "3-Aminoglutarimide"], "SMILES": "O=C1C(N)CCC(=O)N1", "physical_data": {"Molecular Weight": "128.13", "Molecular Formula": "C5H8N2O2", "Melting Point": "142-143 \u00b0C"}}