{"cas_no": "23541-50-6", "cn_name": "\u76d0\u9178\u67d4\u7ea2\u9709\u7d20", "en_name": ["Daunorubicin hydrochloride", "5,12-Naphthacenedione, 8-acetyl-10-[(3-amino-2,3,6-trideoxy-\u03b1-L-lyxo-hexopyranosyl)oxy]-7,8,9,10-tetrahydro-6,8,11-trihydroxy-1-methoxy-, hydrochloride (1:1), (8S,10S)-", "Daunomycin, hydrochloride", "5,12-Naphthacenedione, 8-acetyl-10-[(3-amino-2,3,6-trideoxy-\u03b1-L-lyxo-hexopyranosyl)oxy]-7,8,9,10-tetrahydro-6,8,11-trihydroxy-1-methoxy-, hydrochloride, (8S-cis)-", "5,12-Naphthacenedione, 8-acetyl-10-[(3-amino-2,3,6-trideoxy-\u03b1-L-lyxo-hexopyranosyl)oxy]-7,8,9,10-tetrahydro-6,8,11-trihydroxy-1-methoxy-, hydrochloride, (8S,10S)-", "Daunorubicin hydrochloride", "Daunomycin chlorohydrate", "Daunoblastin", "Ondena", "Cerubidine", "Rubidomycin hydrochloride", "NDC 0082-4155", "RP 13057 hydrochloride"], "SMILES": "OC=1C2=C(C(OC3CC(N)C(O)C(C)O3)CC(C(C)=O)(O)C2)C(O)=C4C1C(=O)C=5C(C4=O)=C(OC)C=CC5.Cl", "physical_data": {"Molecular Weight": "", "Molecular Formula": "C27H29NO10.ClH", "Melting Point": "188-190 \u00b0C (decomp)"}}