{"cas_no": "23550-40-5", "cn_name": "4-\u7532\u786b\u57fa-4-\u7532\u57fa-2-\u620a\u916e", "en_name": ["4-(Methylthio)-4-methyl-2-pentanone", "2-Pentanone, 4-methyl-4-(methylthio)-", "4-Methyl-4-(methylthio)-2-pentanone", "4-Methylmercapto-4-methylpentan-2-one", "4-(Methylthio)-4-methyl-2-pentanone"], "SMILES": "C(C(SC)(C)C)C(C)=O", "physical_data": {"Molecular Weight": "146.25", "Molecular Formula": "C7H14OS", "Boiling Point": "84 \u00b0C @ Press: 12 Torr"}}