{"cas_no": "23563-26-0", "cn_name": "4-\u4e01\u6c27\u57fa\u4e59\u9170\u82ef\u80fa", "en_name": ["N-(4-Butoxyphenyl)acetamide", "Acetamide, N-(4-butoxyphenyl)-", "Acetanilide, 4\u2032-butoxy-", "N-(4-Butoxyphenyl)acetamide", "4\u2032-Butoxyacetanilide", "4-Butoxyacetanilide"], "SMILES": "N(C(C)=O)C1=CC=C(OCCCC)C=C1", "physical_data": {"Molecular Weight": "207.27", "Molecular Formula": "C12H17NO2", "Melting Point": "112 \u00b0C"}}