{"cas_no": "23560-59-0", "cn_name": "\u5e9a\u70ef\u78f7", "en_name": ["Heptenophos", "Phosphoric acid, 7-chlorobicyclo[3.2.0]hepta-2,6-dien-6-yl dimethyl ester", "Bicyclo[3.2.0]heptane, phosphoric acid deriv.", "4-(O,O-Dimethylphosphoryl)-5-chlorobicyclo[3.2.0]hepta-1,4-diene", "Heptenophos", "Hostaquick", "XOE 2982", "Ragadan", "Heptenofos"], "SMILES": "O(P(OC)(OC)=O)C=1C2C(C1Cl)C=CC2", "physical_data": {"Molecular Weight": "250.62", "Molecular Formula": "C9H12ClO4P", "Boiling Point": "64 \u00b0C @ Press: 0.075 Torr", "Melting Point": "&lt;25 \u00b0C", "Density": "1.28 g/cm\u00b3 @ Temp: 20 \u00b0C"}}