{"cas_no": "23564-06-9", "cn_name": "\u786b\u83cc\u7075\u3001\u6258\u5e03\u6d25, \u7edf\u6251\u51c0,", "en_name": ["Thiophanate", "Carbamic acid, N,N\u2032-[1,2-phenylenebis(iminocarbonothioyl)]bis-, C,C\u2032-diethyl ester", "Allophanic acid, 4,4\u2032-o-phenylenebis[3-thio-, diethyl ester", "Carbamic acid, [1,2-phenylenebis(iminocarbonothioyl)]bis-, diethyl ester", "Thiofanate", "1,2-Bis(3-ethoxycarbonyl-2-thioureido)benzene", "Thiophanate", "Ethyl thiophanate", "BAS 3220", "Enovit", "Topsin", "Cercobin", "NF 35", "NF 35 (fungicide)", "Topsin NF 35", "Thiophanate ethyl", "Thiophanat", "1,2-Bis[3-(ethoxycarbonyl)thioureido]benzene", "NBF 35", "Topsin E", "NSC 170810", "Quali-Pro TM 85WDG", "Systec 1998WDG", "MeSH ID: D013875"], "SMILES": "N(C(NC(OCC)=O)=S)C1=C(NC(NC(OCC)=O)=S)C=CC=C1", "physical_data": {"Molecular Weight": "370.45", "Molecular Formula": "C14H18N4O4S2", "Melting Point": "194 \u00b0C (decomp)"}}