{"cas_no": "23564-05-8", "cn_name": "\u7532\u57fa\u786b\u83cc\u7075", "en_name": ["Thiophanate methyl", "Carbamic acid, N,N\u2032-[1,2-phenylenebis(iminocarbonothioyl)]bis-, C,C\u2032-dimethyl ester", "Allophanic acid, 4,4\u2032-o-phenylenebis[3-thio-, dimethyl ester", "Carbamic acid, [1,2-phenylenebis(iminocarbonothioyl)]bis-, dimethyl ester", "Methylthiophanate", "Thiophanate methyl", "Dimethyl 4,4\u2032-o-phenylenebis(3-thioallophanate)", "Methylthiofanate", "o-Bis(3-methoxycarbonyl-2-thioureido)benzene", "NF 44", "TD 1771", "Topsin M", "Topsin NF 44", "Thiophanate M", "Cercobin M", "1,2-Bis[3-(methoxycarbonyl)-2-thioureido]benzene", "Methyl topsin", "Enovit M", "1,2-Bis(methoxycarbonylthioureido)benzene", "Pelt 14", "BAS 32500F", "Cercobin methyl", "Pelt 44", "Neotopsin", "Topsin Methyl", "Fungo", "Enovit Super", "Easout", "F 6385", "Enovit-methyl", "Mildothane", "PEI 190", "Caligran", "Metoben", "Enovit M 70", "Cercobin M 70", "Cycosin", "Topsin M 70", "Thiopan", "Topsin MD", "Tops", "Rilon", "NSC 170811", "Roko", "Cleary's 3336", "3336G", "Topsin 500SC", "Sunphanate", "Topsin WP", "Topsin M 70WP", "Topsin M 500SC", "Senator", "Senator 70W", "Senator (carbamate)", "Cercobin FL", "Pelt", "Pelt (pesticide)", "Cercobin", "Topgin M"], "SMILES": "N(C(NC(OC)=O)=S)C1=C(NC(NC(OC)=O)=S)C=CC=C1", "physical_data": {"Molecular Weight": "342.39", "Molecular Formula": "C12H14N4O4S2", "Melting Point": "172 \u00b0C (decomp)", "Density": "1.552 g/cm\u00b3"}}