{"cas_no": "235789-75-0", "cn_name": "1-\u4e59\u57fa-3-\u7532\u57fa\u54aa\u5511\u53cc\uff08\u6c1f\u78fa\u9170\uff09\u4e9a\u80fa\u76d0", "en_name": ["1H-Imidazolium, 3-ethyl-1-methyl-, salt with imidodisulfuryl fluoride (1:1)", "1H-Imidazolium, 3-ethyl-1-methyl-, salt with imidodisulfuryl fluoride (1:1)", "1H-Imidazolium, 1-ethyl-3-methyl-, salt with imidodisulfuryl fluoride (1:1)", "Imidodisulfuryl fluoride, ion(1-), 1-ethyl-3-methyl-1H-imidazolium", "Elexcel IL 110", "1-Ethyl-3-methylimidazolium bis(fluorosulfonyl)imide", "Methylethylimidazolium bis(fluorosulfonyl)imide", "IL 110", "EMIm bis(fluorosulfonyl)amide", "Elexcel AS 110", "EMIFSI", "1-Ethyl-3-methylimidazolium bis(fluorosulfonyl)amide", "AS 210", "AS 110", "1-Ethyl-3-methyl-1H-imidazol-3-ium", "bis(fluorosulfonyl)azanide"], "SMILES": "[N-](S(F)(=O)=O)S(F)(=O)=O.C(C)[N+]1=CN(C)C=C1", "physical_data": {"Molecular Weight": "", "Molecular Formula": "C6H11N2.F2NO4S2", "Melting Point": "-18 \u00b0C"}}