{"cas_no": "2357-52-0", "cn_name": "4-\u6eb4-2-\u6c1f\u82ef\u7532\u919a", "en_name": ["4-Bromo-2-fluoroanisole", "Benzene, 4-bromo-2-fluoro-1-methoxy-", "Anisole, 4-bromo-2-fluoro-", "4-Bromo-2-fluoro-1-methoxybenzene", "4-Bromo-2-fluoroanisole", "2-Fluoro-4-bromoanisole", "3-Fluoro-4-methoxybromobenzene", "1-Bromo-3-fluoro-4-methoxybenzene", "NSC 10329", "4-Bromo-2-fluoro-1-(methyloxy)benzene", "4-Methoxy-3-fluoro-1-bromobenzene", "2-Fluoro-4-Bromo Anisol"], "SMILES": "O(C)C1=C(F)C=C(Br)C=C1", "physical_data": {"Molecular Weight": "205.02", "Molecular Formula": "C7H6BrFO", "Boiling Point": "96-96.5 \u00b0C", "Melting Point": "16 \u00b0C"}}