{"cas_no": "23576-42-3", "cn_name": "L-\u82ef\u4e19\u6c28\u9170\u7518\u6c28\u9170\u7518\u6c28\u9178", "en_name": ["Phenylalanylglycylglycine", "Glycine, L-phenylalanylglycyl-", "Glycine, N-[N-(3-phenyl-L-alanyl)glycyl]-", "Glycine, N-(N-L-phenylalanylglycyl)-", "L-Phenylalanylglycylglycine", "Phenylalanylglycylglycine", "136: PN: WO2007046818 PAGE: 60 claimed protein", "10: PN: WO2008098569 SEQID: 10 claimed protein", "10: PN: DE102007008596 SEQID: 10 unclaimed protein", "Phenylalanine-glycine-glycine", "18: PN: WO2016105375 SEQID: 18 claimed protein", "2-[[2-[[(2S)-2-Azaniumyl-3-phenylpropanoyl]amino]acetyl]amino]acetate", "2-[2-[(2S)-2-Amino-3-phenylpropanamido]acetamido]acetic acid"], "SMILES": "C(C(C(NCC(NCC(O)=O)=O)=O)N)C1=CC=CC=C1", "physical_data": {"Molecular Weight": "279.29", "Molecular Formula": "C13H17N3O4", "Melting Point": "235-236 \u00b0C (decomp)"}}