{"cas_no": "23578-51-0", "cn_name": "2,7-\u8f9b\u4e8c\u70ef-1-\u9187", "en_name": ["2,7-Octadien-1-ol", "2,7-Octadien-1-ol", "1-Hydroxy-2,7-octadiene", "2,7-Octadienyl-1-ol"], "SMILES": "C(CCC=C)C=CCO", "physical_data": {"Molecular Weight": "126.20", "Molecular Formula": "C8H14O", "Boiling Point": "75-76 \u00b0C @ Press: 4 Torr"}}