{"cas_no": "23579-92-2", "cn_name": "2-\u7532\u6c27\u57fa\u7532\u57fa\u5421\u5576", "en_name": ["2-(Methoxymethyl)pyridine", "Pyridine, 2-(methoxymethyl)-", "2-(Methoxymethyl)pyridine", "NSC 75841"], "SMILES": "C(OC)C1=CC=CC=N1", "physical_data": {"Molecular Weight": "123.15", "Molecular Formula": "C7H9NO", "Boiling Point": "241-250 \u00b0C @ Press: 10 Torr"}}