{"cas_no": "2358-29-4", "cn_name": "2,3,6-\u4e09\u6c1f\u82ef\u7532\u9178", "en_name": ["2,3,6-Trifluorobenzoic acid", "Benzoic acid, 2,3,6-trifluoro-", "2,3,6-Trifluorobenzoic acid", "2,5,6-Trifluorobenzoic acid"], "SMILES": "C(O)(=O)C1=C(F)C(F)=CC=C1F", "physical_data": {"Molecular Weight": "176.09", "Molecular Formula": "C7H3F3O2", "Melting Point": "130.5 \u00b0C"}}