{"cas_no": "23583-21-3", "cn_name": "3-(\u82c4\u57fa\u6c28\u57fa)\u4e19\u9178\u4e59\u916f", "en_name": ["N-(Phenylmethyl)-\u03b2-alanine ethyl ester", "\u03b2-Alanine, N-(phenylmethyl)-, ethyl ester", "\u03b2-Alanine, N-benzyl-, ethyl ester", "N-(Phenylmethyl)-\u03b2-alanine ethyl ester", "Ethyl 3-(benzylamino)propionate", "Ethyl N-benzyl-\u03b2-alaninate", "N-Benzyl-3-aminopropionic acid ethyl ester", "NSC 74954", "3-Benzylaminopropionic acid ethyl ester", "Ethyl 3-(benzylamino)propanoate", "3-(Benzylamino)propanoic acid ethyl ester", "N-Benzyl-\u03b2-alanine ethyl ester"], "SMILES": "C(NCCC(OCC)=O)C1=CC=CC=C1", "physical_data": {"Molecular Weight": "207.27", "Molecular Formula": "C12H17NO2", "Boiling Point": "132-134 \u00b0C @ Press: 2 Torr", "Density": "1.9126 g/cm\u00b3 @ Temp: 20 \u00b0C"}}