{"cas_no": "23582-03-8", "cn_name": "\u4e09[2-(\u4e8c\u82ef\u57fa\u78f7)\u4e59\u57fa]\u78f7", "en_name": ["Tris[2-(diphenylphosphino)ethyl]phosphine", "Phosphine, tris[2-(diphenylphosphino)ethyl]-", "Tris[2-(diphenylphosphino)ethyl]phosphine", "Tris(2-diphenylphosphinoethyl)phosphine", "Tris(diphenylphosphinoethyl)phosphine", "Tetraphos", "NSC 164875"], "SMILES": "P(CCP(CCP(C1=CC=CC=C1)C2=CC=CC=C2)CCP(C3=CC=CC=C3)C4=CC=CC=C4)(C5=CC=CC=C5)C6=CC=CC=C6", "physical_data": {"Molecular Weight": "670.68", "Molecular Formula": "C42H42P4", "Melting Point": "102 \u00b0C"}}