{"cas_no": "2358-84-1", "cn_name": "\u4e8c\u4e59\u4e8c\u9187\u4e8c\u7532\u57fa\u4e19\u70ef\u9178\u916f", "en_name": ["Diethylene glycol, dimethacrylate", "2-Propenoic acid, 2-methyl-, 1,1\u2032-(oxydi-2,1-ethanediyl) ester", "Methacrylic acid, oxydiethylene ester", "2-Propenoic acid, 2-methyl-, oxydi-2,1-ethanediyl ester", "Methacrylic acid, diester with diethylene glycol", "Diethylene glycol, dimethacrylate", "Diethylene glycol bis(methacrylate)", "Oxydiethylene methacrylate", "DGM 2", "TGM 2", "NK Ester 2G", "Blemmer PDE 100", "2,2\u2032-Oxybisethanol dimethacrylate", "2,2\u2032-Oxydiethyl dimethacrylate", "SR 231", "2G", "Light Ester 2EG", "PDE 100", "SR 231E", "Sartomer SR 231", "EM 329", "Bisomer DEGDMA HI", "2-[2-(2-Methylprop-2-enoyloxy)ethoxy]ethyl 2-methylprop-2-enoate", "Diethylene glycol dimethacylate"], "SMILES": "O(C(C(C)=C)=O)CCOCCOC(C(C)=C)=O", "physical_data": {"Molecular Weight": "242.27", "Molecular Formula": "C12H18O5", "Boiling Point": "120-125 \u00b0C @ Press: 2.0 Torr", "Melting Point": "&lt;25 \u00b0C", "Density": "1.056 g/cm\u00b3 @ Temp: 20 \u00b0C"}}