{"cas_no": "23582-02-7", "cn_name": "\u53cc(2-\u4e8c\u82ef\u57fa\u81a6\u4e59\u57fa)\u82ef\u57fa\u78f7", "en_name": ["Triphos", "Phosphine, bis[2-(diphenylphosphino)ethyl]phenyl-", "Phosphine, [(phenylphosphinidene)diethylene]bis[diphenyl-", "Bis[2-(diphenylphosphino)ethyl]phenylphosphine", "Triphos", "Phenylbis(diphenylphosphinoethyl)phosphine", "NSC 164873", "NSC 635021", "((Phenylphosphinediyl)bis(ethane-2,1-diyl))bis(diphenylphosphine)"], "SMILES": "P(CCP(CCP(C1=CC=CC=C1)C2=CC=CC=C2)C3=CC=CC=C3)(C4=CC=CC=C4)C5=CC=CC=C5", "physical_data": {"Molecular Weight": "534.55", "Molecular Formula": "C34H33P3", "Melting Point": "131-132 \u00b0C"}}