{"cas_no": "23598-72-3", "cn_name": "3-(2-\u6c2f\u82ef\u57fa)-5-\u7532\u57fa-4-\u5f02\u6076\u5511\u7fa7\u9178", "en_name": ["3-(2-Chlorophenyl)-5-methyl-4-isoxazolecarboxylic acid", "4-Isoxazolecarboxylic acid, 3-(2-chlorophenyl)-5-methyl-", "4-Isoxazolecarboxylic acid, 3-(o-chlorophenyl)-5-methyl-", "3-(2-Chlorophenyl)-5-methyl-4-isoxazolecarboxylic acid", "NSC 81238"], "SMILES": "C(O)(=O)C=1C(=NOC1C)C2=C(Cl)C=CC=C2", "physical_data": {"Molecular Weight": "237.64", "Molecular Formula": "C11H8ClNO3", "Melting Point": "193-196 \u00b0C"}}