{"cas_no": "23593-75-1", "cn_name": "\u514b\u9709\u5511", "en_name": ["Clotrimazole", "1H-Imidazole, 1-[(2-chlorophenyl)diphenylmethyl]-", "Imidazole, 1-(o-chloro-\u03b1,\u03b1-diphenylbenzyl)-", "1-[(2-Chlorophenyl)diphenylmethyl]-1H-imidazole", "1-(o-Chlorotrityl)imidazole", "Clotrimazole", "Diphenyl(2-chlorophenyl)(1-imidazolyl)methane", "1-(o-Chlorophenyldiphenylmethyl)imidazole", "BAY 5097", "Canesten", "Mycosporin", "BAY-B 5097", "Empecid", "Lotrimin", "Desamix F", "Mycelex", "Gyne-Lotrimin", "Canifug", "Lotrimin AF Solution", "Veltrim", "Femcare", "Mycelex OTC", "Mycelex Troche", "Lotrimin Jock-Itch Cream", "Trimysten", "Rimazole", "Mycelex 7", "Mycofug", "Mycelex G", "Monobaycuten", "Lotrimin AF Cream", "Tibatin", "Lotrimin Jock-Itch Lotion", "Pedisafe", "BAY 5907", "NSC 257473", "Gyne-Lotrimin 7", "Plimycol", "Locasten", "Agisten", "Clotrimazol", "MeSH ID: D003022"], "SMILES": "C(C1=C(Cl)C=CC=C1)(N2C=CN=C2)(C3=CC=CC=C3)C4=CC=CC=C4", "physical_data": {"Molecular Weight": "344.84", "Molecular Formula": "C22H17ClN2", "Melting Point": "147-149 \u00b0C"}}