{"cas_no": "23599-69-1", "cn_name": "\u53bb\u7532\u5f02\u6ce2\u5c14\u5b9a", "en_name": ["(+)-Norisoboldine", "4H-Dibenzo[de,g]quinoline-1,9-diol, 5,6,6a,7-tetrahydro-2,10-dimethoxy-, (6aS)-", "Laurelliptine", "6a\u03b1-Noraporphine-1,9-diol, 2,10-dimethoxy-", "4H-Dibenzo[de,g]quinoline-1,9-diol, 5,6,6a,7-tetrahydro-2,10-dimethoxy-, (S)-", "(6aS)-5,6,6a,7-Tetrahydro-2,10-dimethoxy-4H-dibenzo[de,g]quinoline-1,9-diol", "Norisoboldine", "(+)-N-Norisoboldine", "(+)-Laurelliptine", "(S)-(+)-Laurelliptine", "(+)-Norisoboldine", "(6AS)-2,10-dimethoxy-5,6,6a,7-tetrahydro-4H-dibenzo[de,g]quinoline-1,9-diol"], "SMILES": "OC1=C2C=3C(CC=4C2=CC(OC)=C(O)C4)NCCC3C=C1OC", "physical_data": {"Molecular Weight": "313.35", "Molecular Formula": "C18H19NO4", "Melting Point": "191 \u00b0C"}}