{"cas_no": "2359-15-1", "cn_name": "N,N'-\u4e9a\u7532\u57fa\u53cc\u7532\u57fa\u4e19\u70ef\u80fa", "en_name": ["Methylenebismethacrylamide", "2-Propenamide, N,N\u2032-methylenebis[2-methyl-", "Acrylamide, N,N\u2032-methylenebis[2-methyl-", "N,N\u2032-Methylenebis[2-methyl-2-propenamide]", "Methylenebismethacrylamide", "N,N\u2032-Methylenebismethacrylamide", "NSC 2685", "N,N-Methylenebismethacrylamide", "2-Methyl-N-[(2-methylprop-2-enoylamino)methyl]prop-2-enamide", "2-Methyl-N-[(2-methylprop-2-enamido)methyl]prop-2-enamide", "M 0930"], "SMILES": "C(C(C)=C)(NCNC(C(C)=C)=O)=O", "physical_data": {"Molecular Weight": "182.22", "Molecular Formula": "C9H14N2O2", "Melting Point": "160-161 \u00b0C"}}