{"cas_no": "2359-09-3", "cn_name": "5-\u53d4\u4e01\u57fa-1,3-\u82ef\u4e8c\u7fa7\u9178", "en_name": ["5-tert-Butylisophthalic acid", "1,3-Benzenedicarboxylic acid, 5-(1,1-dimethylethyl)-", "Isophthalic acid, 5-tert-butyl-", "5-(1,1-Dimethylethyl)-1,3-benzenedicarboxylic acid", "5-tert-Butylisophthalic acid", "5-tert-Butyl-1,3-benzenedicarboxylic acid", "5-tert-Butyl-m-phthalic acid"], "SMILES": "C(C)(C)(C)C1=CC(C(O)=O)=CC(C(O)=O)=C1", "physical_data": {"Molecular Weight": "222.24", "Molecular Formula": "C12H14O4", "Melting Point": "343 \u00b0C"}}