{"cas_no": "23597-82-2", "cn_name": "\u70df\u9178\u5df1\u916f", "en_name": ["Hexyl nicotinate", "3-Pyridinecarboxylic acid, hexyl ester", "Nicotinic acid, hexyl ester", "Hexyl nicotinate", "Nicotherm", "Hexyl 3-pyridinecarboxylate", "n-Hexyl nicotinate", "Nicotinic acid n-hexyl ester", "NSC 72758"], "SMILES": "C(OCCCCCC)(=O)C=1C=CC=NC1", "physical_data": {"Molecular Weight": "207.27", "Molecular Formula": "C12H17NO2", "Boiling Point": "147 \u00b0C", "Density": "1.0133 g/cm\u00b3 @ Temp: 25 \u00b0C"}}