{"cas_no": "23605-74-5", "cn_name": "\u5df1\u4e8c\u80fa\u56db\u7532\u53c9\u81a6\u9178", "en_name": ["Hexanediaminetetra(methylenephosphonic acid)", "Phosphonic acid, P,P\u2032,P\u2032\u2032,P\u2032\u2032\u2032-[1,6-hexanediylbis[nitrilobis(methylene)]]tetrakis-", "Phosphonic acid, [hexamethylenebis(nitrilodimethylene)]tetra-", "Phosphonic acid, [1,6-hexanediylbis[nitrilobis(methylene)]]tetrakis-", "P,P\u2032,P\u2032\u2032,P\u2032\u2032\u2032-[1,6-Hexanediylbis[nitrilobis(methylene)]]tetrakis[phosphonic acid]", "N,N,N\u2032,N\u2032-Hexamethylenediaminetetra(methylenephosphonic acid)", "(Hexamethylenedinitrilo)tetrakis[methylenephosphonic acid]", "1,6-Hexanediaminetetrakis(methylene phosphonic acid)", "Dequest 2051", "HDTMP", "N,N,N\u2032,N\u2032-1,6-Hexamethylenediaminetetrakis(methylenephosphonic acid)", "Briquest 462", "Hexanediaminetetra(methylenephosphonic acid)", "Hexamethylenedinitrilotetrakis(methylphosphonic acid)", "HDTMPA"], "SMILES": "N(CP(=O)(O)O)(CP(=O)(O)O)CCCCCCN(CP(=O)(O)O)CP(=O)(O)O", "physical_data": {"Molecular Weight": "492.23", "Molecular Formula": "C10H28N2O12P4", "Melting Point": "242 \u00b0C"}}