{"cas_no": "23601-40-3", "cn_name": "\u516d\u4e59\u4e8c\u9187\u5355\u7532\u919a", "en_name": ["3,6,9,12,15,18-Hexaoxanonadecan-1-ol", "3,6,9,12,15,18-Hexaoxanonadecan-1-ol", "2,5,8,11,14,17-Hexaoxanonadecan-19-ol", "Hexaethylene glycol, monomethyl ether", "Hexaethylene glycol methyl ether", "Methoxyhexaethylene glycol", "2-[2-[2-[2-[2-(2-Methoxyethoxy)ethoxy]ethoxy]ethoxy]ethoxy]ethanol"], "SMILES": "C(OCCOCCOCCO)COCCOCCOC", "physical_data": {"Molecular Weight": "296.36", "Molecular Formula": "C13H28O7", "Boiling Point": "205 \u00b0C @ Press: 0.25 Torr"}}