{"cas_no": "2360-45-4", "cn_name": "\u82ef\u7532\u9178,2-(1-\u6c27\u4ee3\u4e19\u57fa)-", "en_name": ["2-Propionylbenzoic acid", "Benzoic acid, 2-(1-oxopropyl)-", "Benzoic acid, o-propionyl-", "2-(1-Oxopropyl)benzoic acid", "2-Propionylbenzoic acid", "Propiophenone-2-carboxylic acid", "2-(1-Oxopropyl)-1-benzoic acid", "2-Propanoylbenzoic acid"], "SMILES": "C(CC)(=O)C1=C(C(O)=O)C=CC=C1", "physical_data": {"Molecular Weight": "178.18", "Molecular Formula": "C10H10O3", "Melting Point": "93 \u00b0C", "Density": "1.1402 g/cm\u00b3 @ Temp: 99.1 \u00b0C"}}