{"cas_no": "2360-20-5", "cn_name": "3,4-\u4e8c\u6c28\u57fa\u82ef\u78fa\u9170\u80fa", "en_name": ["3,4-Diaminobenzenesulfonamide", "Benzenesulfonamide, 3,4-diamino-", "3,4-Diaminobenzenesulfonamide", "3,4-Diaminobenzene-1-sulfonamide", "3,4-Diamino-benzenesulfonic acid amide"], "SMILES": "S(N)(=O)(=O)C1=CC(N)=C(N)C=C1", "physical_data": {"Molecular Weight": "187.22", "Molecular Formula": "C6H9N3O2S", "Melting Point": "174-175 \u00b0C"}}