{"cas_no": "23602-64-4", "cn_name": "3-\u7898\u6c34\u6768\u919b", "en_name": ["2-Hydroxy-3-iodobenzaldehyde", "Benzaldehyde, 2-hydroxy-3-iodo-", "Salicylaldehyde, 3-iodo-", "2-Hydroxy-3-iodobenzaldehyde", "3-Iodosalicylaldehyde", "3-Iodo-2-hydroxybenzaldehyde"], "SMILES": "C(=O)C1=C(O)C(I)=CC=C1", "physical_data": {"Molecular Weight": "248.02", "Molecular Formula": "C7H5IO2", "Melting Point": "69-71 \u00b0C"}}