{"cas_no": "23616-79-7", "cn_name": "\u82c4\u57fa\u4e09\u4e01\u57fa\u6c2f\u5316\u94f5", "en_name": ["Benzyltributylammonium chloride", "Benzenemethanaminium, N,N,N-tributyl-, chloride (1:1)", "Ammonium, benzyltributyl-, chloride", "Benzenemethanaminium, N,N,N-tributyl-, chloride", "Tributylbenzylammonium chloride", "Benzyltributylammonium chloride", "Tri-n-butylbenzylammonium chloride", "Benzyltrin-butylammonium chloride", "N,N,N-Tributyl-N-benzylammonium chloride", "QBA 444", "BTBAC 50"], "SMILES": "[N+](CC1=CC=CC=C1)(CCCC)(CCCC)CCCC.[Cl-]", "physical_data": {"Molecular Weight": "", "Molecular Formula": "C19H34N.Cl", "Melting Point": "157 \u00b0C"}}