{"cas_no": "2361-96-8", "cn_name": "N-\u4e59\u9170-L-\u82ef\u4e19\u6c28\u9178\u4e59\u916f", "en_name": ["Acetyl-L-phenylalanine ethyl ester", "L-Phenylalanine, N-acetyl-, ethyl ester", "Alanine, N-acetyl-3-phenyl-, ethyl ester, L-", "Acetyl-L-phenylalanine ethyl ester", "N-Acetyl-L-phenylalanine ethyl ester", "N-Acetylphenylalanine ethyl ester", "Acetylphenylalanine ethyl ester", "Ethyl N-acetyl-L-phenylalaninate", "L-N-Acetylphenylalanine ethyl ester", "APEE"], "SMILES": "C(CC1=CC=CC=C1)(C(OCC)=O)NC(C)=O", "physical_data": {"Molecular Weight": "235.28", "Molecular Formula": "C13H17NO3", "Melting Point": "66-67 \u00b0C"}}