{"cas_no": "23616-32-2", "cn_name": "5-\u6c2f-[1,6]\u8418\u5576", "en_name": ["5-Chloro-1,6-naphthyridine", "1,6-Naphthyridine, 5-chloro-", "5-Chloro-1,6-naphthyridine"], "SMILES": "ClC=1C2=C(C=CN1)N=CC=C2", "physical_data": {"Molecular Weight": "164.59", "Molecular Formula": "C8H5ClN2", "Melting Point": "104-105 \u00b0C"}}