{"cas_no": "2361-27-5", "cn_name": "2-\u567b\u5429\u7532\u9170\u80bc", "en_name": ["Thiophene-2-carbohydrazide", "2-Thiophenecarboxylic acid, hydrazide", "2-Thiophenecarbohydrazonic acid", "2-Thienylcarboxylic acid hydrazide", "2-Thenoylhydrazine", "2-Thienoylhydrazine", "Thiophene-2-carbohydrazide", "2-Thiophenecarbonyl hydrazide", "NSC 653", "2-Thiophenecarboxylic hydrazide", "2-Thienyl hydrazide"], "SMILES": "C(NN)(=O)C1=CC=CS1", "physical_data": {"Molecular Weight": "142.18", "Molecular Formula": "C5H6N2OS", "Melting Point": "141-142 \u00b0C"}}