{"cas_no": "2362-64-3", "cn_name": "4-\u7532\u6c27\u57fa\u786b\u4ee3\u82ef\u7532\u80fa", "en_name": ["4-Methoxybenzenecarbothioamide", "Benzenecarbothioamide, 4-methoxy-", "p-Anisamide, thio-", "4-Methoxybenzenecarbothioamide", "p-Methoxythiobenzamide", "4-Methoxythiobenzamide", "p-Methoxybenzothiamide", "Thio-p-anisamide", "4-Methoxybenzothioamide"], "SMILES": "C(N)(=S)C1=CC=C(OC)C=C1", "physical_data": {"Molecular Weight": "167.23", "Molecular Formula": "C8H9NOS", "Melting Point": "154 \u00b0C"}}