{"cas_no": "2362-10-9", "cn_name": "1,3-\u4e8c(\u6c2f\u7532\u57fa)-1,1,3,3-\u56db\u7532\u57fa\u4e8c\u7845\u6c27\u70f7", "en_name": ["1,3-Bis(chloromethyl)-1,1,3,3-tetramethyldisiloxane", "Disiloxane, 1,3-bis(chloromethyl)-1,1,3,3-tetramethyl-", "1,3-Bis(chloromethyl)-1,1,3,3-tetramethyldisiloxane", "Tetramethyl-1,3-bis(chloromethyl)disiloxane", "1,3-Bis(chloromethyl)tetramethyldisiloxane", "1,3-Di(chloromethyl)-1,1,3,3-tetramethyldisiloxane", "NSC 103492", "NSC 96793", "1,1,3,3-Tetramethyl-1,3-bis(chloromethyl)disiloxane", "(Chloromethyl)([[(chloromethyl)dimethylsilyl]oxy])dimethylsilane", "1,1,3,3-Tetramethyl-1,3-di(chloromethyl)disiloxane"], "SMILES": "O([Si](CCl)(C)C)[Si](CCl)(C)C", "physical_data": {"Molecular Weight": "231.27", "Molecular Formula": "C6H16Cl2OSi2", "Boiling Point": "204-205 \u00b0C", "Melting Point": "-90 \u00b0C", "Density": "1.050 g/cm\u00b3"}}