{"cas_no": "23627-87-4", "cn_name": "\u4e09\u53f6\u8c46\u82f7", "en_name": ["Kaempferol 3-O-galactoside", "4H-1-Benzopyran-4-one, 3-(\u03b2-D-galactopyranosyloxy)-5,7-dihydroxy-2-(4-hydroxyphenyl)-", "Trifolin", "Kaempferol 3-galactoside", "3-(\u03b2-D-Galactopyranosyloxy)-5,7-dihydroxy-2-(4-hydroxyphenyl)-4H-1-benzopyran-4-one", "Kaempferol 3-\u03b2-D-galactopyranoside", "Kaempferol 3-O-\u03b2-D-galactopyranoside", "Trifolin (glycoside)", "Trifoliin", "Kaempferol 3-\u03b2-D-galactoside", "Kaempferol 3-O-galactoside", "Kaempferol 3-O-D-galactoside", "Kaempferol 3-O-\u03b2-galactoside", "Kaempferol 3-O-galactopyranoside", "Kaempferol-3-O-D-galactopyranoside"], "SMILES": "O=C1C=2C(OC(=C1OC3OC(CO)C(O)C(O)C3O)C4=CC=C(O)C=C4)=CC(O)=CC2O", "physical_data": {"Molecular Weight": "448.38", "Molecular Formula": "C21H20O11", "Melting Point": "236 \u00b0C"}}