{"cas_no": "2362-63-2", "cn_name": "3-\u7532\u82ef\u57fa\u786b\u4ee3\u7532\u9170\u80fa", "en_name": ["3-Methylbenzenecarbothioamide", "Benzenecarbothioamide, 3-methyl-", "m-Toluamide, thio-", "3-Methylbenzenecarbothioamide", "m-Methylthiobenzamide", "m-Toluthioamide", "3-Methylthiobenzamide", "3-Methylbenzothioamide", "3-Methylbenzene-1-carbothioamide"], "SMILES": "C(N)(=S)C1=CC(C)=CC=C1", "physical_data": {"Molecular Weight": "151.23", "Molecular Formula": "C8H9NS", "Melting Point": "89-90 \u00b0C"}}