{"cas_no": "2362-14-3", "cn_name": "1,1'-\u53cc(4-\u7f9f\u57fa-3-\u7532\u57fa\u82ef\u57fa)\u73af\u5df1\u70f7", "en_name": ["1,1-Bis(4-hydroxy-3-methylphenyl)cyclohexane", "Phenol, 4,4\u2032-cyclohexylidenebis[2-methyl-", "o-Cresol, 4,4\u2032-cyclohexylidenedi-", "4,4\u2032-Cyclohexylidenebis[2-methylphenol]", "1,1-Bis(4-hydroxy-3-methylphenyl)cyclohexane", "4,4\u2032-Cyclohexylidenedi-o-cresol", "Bis-OC-Z", "1,1-Bis(3-methyl-4-hydroxyphenyl)cyclohexane", "NSC 73731", "4,4\u2032-Cyclohexane-1,1-diylbis[2-methylphenol]", "Bisphenol CZ", "1,1-Bis(4-hydroxy-3-methylphenyl)-3,3,5-cyclohexane", "BPOCTMC", "1,1-Bis(3-methyl-4-hydroxyphenyl)-3,3,5-cyclohexane", "Bis(4-hydroxy-3-methylphenyl)cyclohexane"], "SMILES": "CC=1C=C(C2(CCCCC2)C3=CC(C)=C(O)C=C3)C=CC1O", "physical_data": {"Molecular Weight": "296.40", "Molecular Formula": "C20H24O2", "Melting Point": "186 \u00b0C"}}