{"cas_no": "2362-62-1", "cn_name": "3-\u7532\u82ef\u57fa\u786b\u4ee3\u7532\u9170\u80fa", "en_name": ["4-Methylbenzenecarbothioamide", "Benzenecarbothioamide, 4-methyl-", "p-Toluamide, thio-", "4-Methylbenzenecarbothioamide", "p-Methylthiobenzamide", "p-Methylthiobenzoylamide", "4-Methylthiobenzamide", "p-Methylbenzothiamide", "Thio-p-toluamide", "p-Methylbenzenecarbothioamide", "4-Methylbenzothioamide"], "SMILES": "C(N)(=S)C1=CC=C(C)C=C1", "physical_data": {"Molecular Weight": "151.23", "Molecular Formula": "C8H9NS", "Melting Point": "172 \u00b0C"}}