{"cas_no": "2362-12-1", "cn_name": "4-\u6eb4-2-\u7532\u57fa\u82ef\u915a", "en_name": ["4-Bromo-2-methylphenol", "Phenol, 4-bromo-2-methyl-", "o-Cresol, 4-bromo-", "4-Bromo-2-methylphenol", "4-Bromo-o-cresol", "3-Bromo-6-hydroxytoluene", "2-Methyl-4-bromophenol"], "SMILES": "CC1=C(O)C=CC(Br)=C1", "physical_data": {"Molecular Weight": "187.03", "Molecular Formula": "C7H7BrO", "Boiling Point": "235 \u00b0C", "Melting Point": "64.7 \u00b0C"}}