{"cas_no": "2362-61-0", "cn_name": "\u53cd\u5f0f-2-\u82ef\u57fa-1-\u73af\u5df2\u9187", "en_name": ["rel-(1R,2S)-2-Phenylcyclohexanol", "Cyclohexanol, 2-phenyl-, (1R,2S)-rel-", "Cyclohexanol, 2-phenyl-, trans-", "rel-(1R,2S)-2-Phenylcyclohexanol", "trans-2-Phenylcyclohexanol", "trans-2-Phenyl-1-cyclohexanol", "(\u00b1)-trans-2-Phenylcyclohexanol", "(\u00b1)-trans-2-Phenyl-1-cyclohexanol", "(1S*,2R*)-2-Phenylcyclohexanol"], "SMILES": "OC1C(C2=CC=CC=C2)CCCC1", "physical_data": {"Molecular Weight": "176.25", "Molecular Formula": "C12H16O", "Boiling Point": "152-155 \u00b0C", "Melting Point": "56-57 \u00b0C"}}