{"cas_no": "2363-71-5", "cn_name": "\u4e8c\u5341\u4e00\u78b3\u9178", "en_name": ["Heneicosanoic acid", "Heneicosanoic acid", "n-Heneicosanoic acid", "Heneicosylic acid"], "SMILES": "C(CCCCCCCCCCCCC)CCCCCCC(O)=O", "physical_data": {"Molecular Weight": "326.56", "Molecular Formula": "C21H42O2", "Boiling Point": "168-171 \u00b0C @ Press: 2 Torr", "Melting Point": "75-76 \u00b0C"}}