{"cas_no": "23632-66-8", "cn_name": "(S)-(+)-3-(\u82c4\u6c27\u7fb0\u57fa)-5-\u6c27\u4ee3-4-\u6076\u5511\u5549\u4e59\u9178", "en_name": ["(4S)-5-Oxo-3-[(phenylmethoxy)carbonyl]-4-oxazolidineacetic acid", "4-Oxazolidineacetic acid, 5-oxo-3-[(phenylmethoxy)carbonyl]-, (4S)-", "4-Oxazolidineacetic acid, 3-carboxy-5-oxo-, 3-benzyl ester, (S)-", "4-Oxazolidineacetic acid, 5-oxo-3-[(phenylmethoxy)carbonyl]-, (S)-", "(4S)-5-Oxo-3-[(phenylmethoxy)carbonyl]-4-oxazolidineacetic acid", "(4S)-N-Carbobenzyloxy-5-oxo-4-oxazolidineacetic acid", "(S)-2-[3-[(Benzyloxy)carbonyl]-5-oxooxazolidin-4-yl]acetic acid", "(S)-(+)-3-(Benzyloxycarbonyl)-5-oxo-4-oxazolidineacetic acid", "2-[(4S)-3-[(Benzyloxy)carbonyl]-5-oxo-1,3-oxazolidin-4-yl]acetic acid"], "SMILES": "C(OCC1=CC=CC=C1)(=O)N2C(CC(O)=O)C(=O)OC2", "physical_data": {"Molecular Weight": "279.25", "Molecular Formula": "C13H13NO6", "Melting Point": "82-84 \u00b0C"}}