{"cas_no": "2363-89-5", "cn_name": "2-\u8f9b\u70ef\u919b", "en_name": ["2-Octenal", "2-Octenal", "2-Octen-1-al"], "SMILES": "C(CCCC)C=CC=O", "physical_data": {"Molecular Weight": "126.20", "Molecular Formula": "C8H14O", "Boiling Point": "83 \u00b0C"}}