{"cas_no": "236395-14-5", "cn_name": "\u827e\u53f8\u5229\u5361\u897f\u5e73\u918b\u9178\u916f", "en_name": ["Eslicarbazepine acetate", "5H-Dibenz[b,f]azepine-5-carboxamide, 10-(acetyloxy)-10,11-dihydro-, (10S)-", "(10S)-10-(Acetyloxy)-10,11-dihydro-5H-dibenz[b,f]azepine-5-carboxamide", "BIA 2-093", "(S)-(-)-10-Acetoxy-10,11-dihydro-5H-dibenz[b,f]azepine-5-carboxamide", "(S)-10-Acetoxy-10,11-dihydro-5H-dibenz[b,f]azepine-5-carboxamide", "Eslicarbazepine acetate", "Sep 0002093", "Exelief", "(S)-(-)-10-Acetoxy-10,11-dihydro-5H-dibenzo[b,f]azepine-5-carboxamide", "Aptiom", "(S)-5-Carbamoyl-10,11-dihydro-5H-dibenzo[b,f]azepin-10-yl acetate", "Zebinix", "Exalief"], "SMILES": "O(C(C)=O)C1C=2C(N(C(N)=O)C=3C(C1)=CC=CC3)=CC=CC2", "physical_data": {"Molecular Weight": "296.32", "Molecular Formula": "C17H16N2O3", "Melting Point": "186-187 \u00b0C"}}