{"cas_no": "2363-59-9", "cn_name": "17-\u4e59\u9178\u52c3\u5730\u916e", "en_name": ["17\u03b2-Acetoxyandrosta-1,4-dien-3-one", "Androsta-1,4-dien-3-one, 17-(acetyloxy)-, (17\u03b2)-", "Androsta-1,4-dien-3-one, 17\u03b2-hydroxy-, acetate", "(17\u03b2)-17-(Acetyloxy)androsta-1,4-dien-3-one", "1-Dehydrotestosterone acetate", "1,2-Didehydrotestosterone 17-O-acetate", "17\u03b2-Acetoxyandrosta-1,4-dien-3-one", "Boldenone acetate"], "SMILES": "CC12C3C(C4C(C)(CC3)C(OC(C)=O)CC4)CCC1=CC(=O)C=C2", "physical_data": {"Molecular Weight": "328.45", "Molecular Formula": "C21H28O3", "Melting Point": "149-151 \u00b0C"}}