{"cas_no": "2363-88-4", "cn_name": "\u53cd\u5f0f-2,4-\u7678\u4e8c\u70ef\u919b", "en_name": ["2,4-Decadienal", "2,4-Decadienal", "2,4-Decadien-1-al"], "SMILES": "C(CCCCC)=CC=CC=O", "physical_data": {"Molecular Weight": "152.23", "Molecular Formula": "C10H16O", "Boiling Point": "64-65 \u00b0C"}}