{"cas_no": "23642-66-2", "cn_name": "\u76d0\u9178\u82ef\u6c1f\u96f7\u53f8", "en_name": ["Benfluorex hydrochloride", "Ethanol, 2-[[1-methyl-2-[3-(trifluoromethyl)phenyl]ethyl]amino]-, 1-benzoate, hydrochloride (1:1)", "Ethanol, 2-[[\u03b1-methyl-m-(trifluoromethyl)phenethyl]amino]-, benzoate (ester), hydrochloride", "Ethanol, 2-[[1-methyl-2-[3-(trifluoromethyl)phenyl]ethyl]amino]-, benzoate (ester), hydrochloride", "Mediator", "Benfluorex hydrochloride", "(\u00b1)-N-(2-Benzoyloxyethyl)norfenfluramine hydrochloride", "Mediaxal", "JP 992", "S 992"], "SMILES": "C(C(NCCOC(=O)C1=CC=CC=C1)C)C2=CC(C(F)(F)F)=CC=C2.Cl", "physical_data": {"Molecular Weight": "", "Molecular Formula": "C19H20F3NO2.ClH", "Melting Point": "161-162 \u00b0C"}}