{"cas_no": "2364-75-2", "cn_name": "2-\u4e59\u57fa-6-\u7532\u57fa-3-\u7f9f\u57fa\u5421\u5576", "en_name": ["Emoxipin", "3-Pyridinol, 2-ethyl-6-methyl-", "2-Ethyl-6-methyl-3-pyridinol", "6-Methyl-2-ethyl-3-hydroxypyridine", "2-Ethyl-6-methyl-3-hydroxypyridine", "2-Ethyl-3-hydroxy-6-methylpyridine", "Epygid", "Epigid", "Emoxypine", "Emoxipine", "Emoxipin", "Emoxypin", "Emoxibel"], "SMILES": "C(C)C1=C(O)C=CC(C)=N1", "physical_data": {"Molecular Weight": "137.18", "Molecular Formula": "C8H11NO", "Melting Point": "169-170 \u00b0C"}}