{"cas_no": "2364-54-7", "cn_name": "6-\u4e9e\u785d\u745e\u9999[\u8349]\u915a", "en_name": ["5-Methyl-2-(1-methylethyl)-4-nitrosophenol", "Phenol, 5-methyl-2-(1-methylethyl)-4-nitroso-", "Thymol, 6-nitroso-", "5-Methyl-2-(1-methylethyl)-4-nitrosophenol", "6-Nitrosothymol", "p-Nitrosothymol", "5-Methyl-2-isopropyl-4-nitrosophenol", "2-Isopropyl-5-methyl-4-nitrosophenol", "Nitrosothymol", "4-Nitrosothymol", "NSC 32670", "NSC 406196", "NSC 5054"], "SMILES": "C(C)(C)C1=C(O)C=C(C)C(N=O)=C1", "physical_data": {"Molecular Weight": "179.22", "Molecular Formula": "C10H13NO2", "Melting Point": "175 \u00b0C"}}