{"cas_no": "23659-87-2", "cn_name": "4,6-\u4e8c\u7532\u6c27\u57fa\u5432\u54da", "en_name": ["4,6-Dimethoxy-1H-indole", "1H-Indole, 4,6-dimethoxy-", "Indole, 4,6-dimethoxy-", "4,6-Dimethoxy-1H-indole", "4,6-Dimethoxyindole"], "SMILES": "O(C)C1=C2C(=CC(OC)=C1)NC=C2", "physical_data": {"Molecular Weight": "177.20", "Molecular Formula": "C10H11NO2", "Melting Point": "118-120 \u00b0C"}}