{"cas_no": "23651-95-8", "cn_name": "\u5c48\u897f\u591a\u5df4", "en_name": ["Droxidopa", "L-Tyrosine, \u03b2,3-dihydroxy-, (\u03b2R)-", "Serine, 3-(3,4-dihydroxyphenyl)-, L-threo-", "L-Tyrosine, \u03b2,3-dihydroxy-, threo-", "(\u03b2R)-\u03b2,3-Dihydroxy-L-tyrosine", "L-threo-3,4-Dihydroxyphenylserine", "threo-Dopaserine", "(-)-threo-3,4-Dihydroxyphenylserine", "L-threo-3-(3,4-Dihydroxyphenyl)serine", "L-Threodops", "Droxidopa", "L-threo-\u03b2-(3,4-Dihydroxyphenyl)serine", "L-DOPS", "SM 5688", "L-threo-DOPS", "DOPS", "(2S,3R)-3-(3,4-Dihydroxyphenyl)-2-amino-3-hydroxypropanoic acid", "threo-3-(3,4-Dihydroxyphenyl)-L-serine", "Northera", "Dops OD", "MeSH ID: D015103"], "SMILES": "C(C(C(O)=O)N)(O)C1=CC(O)=C(O)C=C1", "physical_data": {"Molecular Weight": "213.19", "Molecular Formula": "C9H11NO5", "Melting Point": "232-235 \u00b0C"}}