{"cas_no": "2365-26-6", "cn_name": "", "en_name": ["1-Formylisoquinoline thiosemicarbazone", "Hydrazinecarbothioamide, 2-(1-isoquinolinylmethylene)-", "Isoquinaldaldehyde, thiosemicarbazone", "2-(1-Isoquinolinylmethylene)hydrazinecarbothioamide", "IQ 1", "1-Formylisoquinoline thiosemicarbazone", "1-Isoquinolinecarboxaldehyde, thiosemicarbazone", "NSC 92188"], "SMILES": "C(=NNC(N)=S)C=1C2=C(C=CN1)C=CC=C2", "physical_data": {"Molecular Weight": "230.29", "Molecular Formula": "C11H10N4S", "Melting Point": "224-226 \u00b0C (decomp)"}}