{"cas_no": "2365-48-2", "cn_name": "\u5def\u57fa\u4e59\u9178\u7532\u916f", "en_name": ["Methyl thioglycolate", "Acetic acid, 2-mercapto-, methyl ester", "Acetic acid, mercapto-, methyl ester", "Methyl mercaptoacetate", "Methyl thioglycolate", "Thioglycolic acid methyl ester", "Methyl 2-mercaptoacetate", "Mercaptoacetic acid methyl ester", "Methyl \u03b1-mercaptoacetate", "NSC 75117", "2-Mercaptoacetic acid methyl ester", "Methyl sulfanylacetate", "Methyl 2-sulfanylacetate"], "SMILES": "C(CS)(OC)=O", "physical_data": {"Molecular Weight": "106.14", "Molecular Formula": "C3H6O2S", "Boiling Point": "148 \u00b0C"}}