{"cas_no": "2365-40-4", "cn_name": "N6-\u5f02\u620a\u70ef\u57fa\u817a\u560c\u5464", "en_name": ["Isopentenyladenine", "9H-Purin-6-amine, N-(3-methyl-2-buten-1-yl)-", "Adenine, N-(3-methyl-2-butenyl)-", "1H-Purin-6-amine, N-(3-methyl-2-butenyl)-", "N-(3-Methyl-2-buten-1-yl)-9H-purin-6-amine", "6-(\u03b3,\u03b3-Dimethylallylamino)purine", "6-N-(3-Methylbut-2-enylamino)purine", "N-(\u03b3,\u03b3-Dimethylallyl)adenine", "N6-Isopentenyladenine", "N6-(2-Isopentenyl)adenine", "N6-(3-Methyl-2-butenyl)adenine", "2ip", "N6-(\u03942-Isopentenyl)adenine", "Isopentenyladenine", "6-(3-Methyl-2-buten-1-ylamino)purine", "N-(3-Methyl-2-butenyl)adenine", "6-[(3-Methyl-2-butenyl)amino]purine", "N6-(\u03942-Isopentenyl)aminopurine", "6-(\u03942-Isopentenylamino)purine", "N6-(\u03b3,\u03b3-Dimethylallyl)aminopurine", "6-Isopentenyladenine", "N-(3-Methyl-2-butenyl)-1H-purin-6-amine", "IPA", "Bryokinin", "DMAA", "NSC 106958", "Enadenine", "N6-Isopentenyladenine", "N6-(Delta2-isopentenyl)adenine"], "SMILES": "N(CC=C(C)C)C1=C2C(N=CN2)=NC=N1", "physical_data": {"Molecular Weight": "203.24", "Molecular Formula": "C10H13N5", "Melting Point": "218-220 \u00b0C"}}