{"cas_no": "2365-85-7", "cn_name": "3-\u6c28\u57fa-4-\u6c1f\u82ef\u7532\u9178", "en_name": ["3-Amino-4-fluorobenzoic acid", "Benzoic acid, 3-amino-4-fluoro-", "3-Amino-4-fluorobenzoic acid", "4-Fluoro-3-aminobenzoic acid", "NSC 127014"], "SMILES": "C(O)(=O)C1=CC(N)=C(F)C=C1", "physical_data": {"Molecular Weight": "155.13", "Molecular Formula": "C7H6FNO2", "Melting Point": "182-183 \u00b0C (decomp)"}}