{"cas_no": "2366-56-5", "cn_name": "2-\u6c1f\u4e19\u9178\u7532\u916f", "en_name": ["Propanoic acid, 2-fluoro-, methyl ester", "Propanoic acid, 2-fluoro-, methyl ester", "Propionic acid, 2-fluoro-, methyl ester", "Methyl 2-fluoropropionate", "Methyl 2-fluoropropanoate", "2-Fluoropropanoic acid methyl ester"], "SMILES": "C(C(C)F)(OC)=O", "physical_data": {"Molecular Weight": "106.10", "Molecular Formula": "C4H7FO2", "Boiling Point": "107.0-108.0 \u00b0C", "Density": "1.0806 g/cm\u00b3 @ Temp: 20 \u00b0C"}}