{"cas_no": "23666-13-9", "cn_name": "\u7ef4\u91c7\u5b81-2", "en_name": ["Vicenin 2", "4H-1-Benzopyran-4-one, 6,8-di-\u03b2-D-glucopyranosyl-5,7-dihydroxy-2-(4-hydroxyphenyl)-", "Vicenin", "6,8-Di-\u03b2-D-glucopyranosyl-5,7-dihydroxy-2-(4-hydroxyphenyl)-4H-1-benzopyran-4-one", "Vicenin 2", "Apigenin 6,8-bis(C-\u03b2-D-glucopyranoside)", "Apigenin 6,8-di-C-D-glucoside", "6,8-Di-C-glucosylapigenin", "6,8-Di-C-\u03b2-glucosylapigenin", "Vicenin II", "Violantin", "6,8-Di-C-\u03b2-D-glucopyranosylapigenin", "Apigenin 6,8-di-C-\u03b2-D-glucoside", "Apigenin 6,8-di-C-glucoside", "Apigenin 6,8-di-glucopyranoside", "Apigenin 6,8-di-C-glucopyranoside", "Apigenin 6,8-C-di-\u03b2-D-glucopyranoside", "6,8-Di-C-glucopyranosylapigenin"], "SMILES": "OC=1C(=C2C(=C(O)C1C3OC(CO)C(O)C(O)C3O)C(=O)C=C(O2)C4=CC=C(O)C=C4)C5OC(CO)C(O)C(O)C5O", "physical_data": {"Molecular Weight": "594.52", "Molecular Formula": "C27H30O15", "Melting Point": "&gt;250 \u00b0C (decomp)"}}