{"cas_no": "23669-79-6", "cn_name": "\u4fdd\u62a4-2'-\u8131\u6c27\u5c3f\u82f7", "en_name": ["5\u2032-O-[Bis(4-methoxyphenyl)phenylmethyl]-2\u2032-deoxyuridine", "Uridine, 5\u2032-O-[bis(4-methoxyphenyl)phenylmethyl]-2\u2032-deoxy-", "Uridine, 5\u2032-O-[\u03b1,\u03b1-bis(p-methoxyphenyl)benzyl]-2\u2032-deoxy-", "5\u2032-O-[Bis(4-methoxyphenyl)phenylmethyl]-2\u2032-deoxyuridine", "5\u2032-O-(Dimethoxytrityl)-2\u2032-deoxyuridine"], "SMILES": "C(OCC1OC(CC1O)N2C(=O)NC(=O)C=C2)(C3=CC=C(OC)C=C3)(C4=CC=C(OC)C=C4)C5=CC=CC=C5", "physical_data": {"Molecular Weight": "530.57", "Molecular Formula": "C30H30N2O7", "Melting Point": "120 \u00b0C"}}