{"cas_no": "2366-52-1", "cn_name": "\u6c1f\u5316\u4e01\u57fa", "en_name": ["1-Fluorobutane", "Butane, 1-fluoro-", "1-Fluorobutane"], "SMILES": "C(CC)CF", "physical_data": {"Molecular Weight": "76.11", "Molecular Formula": "C4H9F", "Boiling Point": "32.5 \u00b0C", "Melting Point": "-134 \u00b0C", "Density": "0.7761 g/cm\u00b3 @ Temp: 20 \u00b0C"}}