{"cas_no": "2367-82-0", "cn_name": "1,2,3,5-\u56db\u6c1f\u82ef", "en_name": ["1,2,3,5-Tetrafluorobenzene", "Benzene, 1,2,3,5-tetrafluoro-", "1,2,3,5-Tetrafluorobenzene", "1,2,4,6-Tetrafluorobenzene", "1,3,4,5-Tetrafluorobenzene", "m-Tetrafluorobenzene"], "SMILES": "FC1=C(F)C=C(F)C=C1F", "physical_data": {"Molecular Weight": "150.07", "Molecular Formula": "C6H2F4", "Boiling Point": "84.4 \u00b0C", "Melting Point": "-48 \u00b0C", "Density": "1.393 g/cm\u00b3 @ Temp: 20 \u00b0C"}}