{"cas_no": "23676-08-6", "cn_name": "\u5bf9\u4e59\u6c27\u57fa\u82ef\u7532\u9178\u7532\u916f", "en_name": ["Methyl 4-ethoxybenzoate", "Benzoic acid, 4-ethoxy-, methyl ester", "Benzoic acid, p-ethoxy-, methyl ester", "Methyl 4-ethoxybenzoate", "Methyl p-ethoxybenzoate", "NSC 8378", "Methyl 4-ethyloxybenzoate"], "SMILES": "C(OC)(=O)C1=CC=C(OCC)C=C1", "physical_data": {"Molecular Weight": "180.20", "Molecular Formula": "C10H12O3", "Boiling Point": "260 \u00b0C", "Melting Point": "37.5-38.0 \u00b0C"}}