{"cas_no": "236739-03-0", "cn_name": "1,4-\u4e8c\u6c1f-2-\u7532\u781c\u57fa\u82ef", "en_name": ["1,4-Difluoro-2-(methylsulfonyl)benzene", "Benzene, 1,4-difluoro-2-(methylsulfonyl)-", "1,4-Difluoro-2-(methylsulfonyl)benzene", "2,5-Difluorophenyl methyl sulfone", "1,4-Difluoro-2-methanesulfonylbenzene"], "SMILES": "S(C)(=O)(=O)C1=C(F)C=CC(F)=C1", "physical_data": {"Molecular Weight": "192.18", "Molecular Formula": "C7H6F2O2S", "Melting Point": "56-57 \u00b0C"}}