{"cas_no": "23676-09-7", "cn_name": "\u5bf9\u4e59\u6c27\u57fa\u82ef\u7532\u9178\u4e59\u916f", "en_name": ["Ethyl 4-ethoxybenzoate", "Benzoic acid, 4-ethoxy-, ethyl ester", "Benzoic acid, p-ethoxy-, ethyl ester", "Ethyl 4-ethoxybenzoate", "Ethyl p-ethoxybenzoate", "p-Ethoxyethyl benzoate", "4-Ethoxybenzoic acid ethyl ester", "NSC 405367", "4-Ethoxy ethylbenzoate"], "SMILES": "C(OCC)(=O)C1=CC=C(OCC)C=C1", "physical_data": {"Molecular Weight": "194.23", "Molecular Formula": "C11H14O3", "Boiling Point": "275 \u00b0C"}}