{"cas_no": "23674-86-4", "cn_name": "\u4e8c\u6c1f\u5b55\u753e\u4e01\u916f", "en_name": ["Epitopic", "Pregna-1,4-diene-3,20-dione, 21-(acetyloxy)-6,9-difluoro-11-hydroxy-17-(1-oxobutoxy)-, (6\u03b1,11\u03b2)-", "Pregna-1,4-diene-3,20-dione, 6\u03b1,9-difluoro-11\u03b2,17,21-trihydroxy-, 21-acetate 17-butyrate", "Butyric acid, 17-ester with 6\u03b1,9-difluoro-11\u03b2,17,21-trihydroxypregna-1,4-diene-3,20-dione 21-acetate", "(6\u03b1,11\u03b2)-21-(Acetyloxy)-6,9-difluoro-11-hydroxy-17-(1-oxobutoxy)pregna-1,4-diene-3,20-dione", "Difluprednate", "6\u03b1,9\u03b1-Difluoroprednisolone 21-acetate 17-butyrate", "6a,9-Difluoro-11\u03b2,17,21-trihydroxypregna-1,4-diene-3,20-dione 21-acetate 17-butyrate", "W 6309", "6\u03b1,9-Difluoroprednisolone 21-acetate 17-butyrate", "Myser", "Epitopic", "CM 9155", "Durezol", "6-Alpha,9\u03b1-difluoroprednisolone 21-acetate 17-butyrate"], "SMILES": "C(COC(C)=O)(=O)C1(OC(CCC)=O)C2(C)C(CC1)C3C(F)(C(O)C2)C4(C)C(C(F)C3)=CC(=O)C=C4", "physical_data": {"Molecular Weight": "508.55", "Molecular Formula": "C27H34F2O7", "Melting Point": "191-194 \u00b0C"}}