{"cas_no": "23670-94-2", "cn_name": "\u8c46\u753e-4-\u70ef-3,6-\u4e8c\u916e", "en_name": ["Stigmast-4-ene-3,6-dione", "Stigmast-4-ene-3,6-dione", "Stigmast-4-en-3,6-dione", "\u03944-Sitosterol-3,6-dione", "(24R)-24-Ethylcholest-4-ene-3,6-dione"], "SMILES": "CC12C3C(C4C(C)(CC3)C(C(CCC(C(C)C)CC)C)CC4)CC(=O)C1=CC(=O)CC2", "physical_data": {"Molecular Weight": "426.67", "Molecular Formula": "C29H46O2", "Melting Point": "166 \u00b0C"}}