{"cas_no": "2367-80-8", "cn_name": "1,3-\u4e8c\u6c2f-2,5-\u4e8c\u6c1f\u82ef", "en_name": ["1,3-Dichloro-2,5-difluorobenzene", "Benzene, 1,3-dichloro-2,5-difluoro-", "1,3-Dichloro-2,5-difluorobenzene", "2,6-Dichloro-1,4-difluorobenzene"], "SMILES": "FC1=C(Cl)C=C(F)C=C1Cl", "physical_data": {"Molecular Weight": "182.98", "Molecular Formula": "C6H2Cl2F2", "Boiling Point": "65-66 \u00b0C @ Press: 20 Torr", "Melting Point": "-10-3.5 \u00b0C"}}