{"cas_no": "23672-07-3", "cn_name": "\u5de6\u65cb\u8212\u5fc5\u5229", "en_name": ["Levosulpiride", "Benzamide, 5-(aminosulfonyl)-N-[[(2S)-1-ethyl-2-pyrrolidinyl]methyl]-2-methoxy-", "o-Anisamide, N-[(1-ethyl-2-pyrrolidinyl)methyl]-5-sulfamoyl-, (-)-", "Benzamide, 5-(aminosulfonyl)-N-[(1-ethyl-2-pyrrolidinyl)methyl]-2-methoxy-, (S)-", "5-(Aminosulfonyl)-N-[[(2S)-1-ethyl-2-pyrrolidinyl]methyl]-2-methoxybenzamide", "l-Sulpiride", "(-)-Sulpiride", "L-Sulpiride", "S-(-)-Sulpiride", "S-Sulpiride", "Levosulpiride", "Levobren", "Levopraid", "sulpid", "levopride", "Lesuride"], "SMILES": "C(NCC1N(CC)CCC1)(=O)C2=C(OC)C=CC(S(N)(=O)=O)=C2", "physical_data": {"Molecular Weight": "341.43", "Molecular Formula": "C15H23N3O4S", "Melting Point": "185-187 \u00b0C"}}