{"cas_no": "23680-84-4", "cn_name": "2-\u6c2f-4-\u6c28\u57fa-6,7-\u4e8c\u7532\u6c27\u57fa\u55b9\u5511\u5549", "en_name": ["4-Amino-2-chloro-6,7-dimethoxyquinazoline", "4-Quinazolinamine, 2-chloro-6,7-dimethoxy-", "Quinazoline, 4-amino-2-chloro-6,7-dimethoxy-", "2-Chloro-6,7-dimethoxy-4-quinazolinamine", "4-Amino-2-chloro-6,7-dimethoxyquinazoline", "2-Chloro-4-amino-6,7-dimethoxyquinazoline", "2-Chloro-6,7-dimethoxy-quinazolin-4-ylamine"], "SMILES": "NC=1C2=C(C=C(OC)C(OC)=C2)N=C(Cl)N1", "physical_data": {"Molecular Weight": "239.66", "Molecular Formula": "C10H10ClN3O2", "Melting Point": "300 \u00b0C (decomp)"}}