{"cas_no": "2368-53-8", "cn_name": "1,3-\u4e8c\u6c2f-2,4,6-\u4e09\u6c1f\u82ef", "en_name": ["2,4-Dichloro-1,3,5-trifluorobenzene", "Benzene, 2,4-dichloro-1,3,5-trifluoro-", "2,4-Dichloro-1,3,5-trifluorobenzene", "1,3,5-Trifluoro-2,4-dichlorobenzene", "1,3-Dichloro-2,4,6-trifluorobenzene"], "SMILES": "ClC1=C(F)C(Cl)=C(F)C=C1F", "physical_data": {"Molecular Weight": "200.97", "Molecular Formula": "C6HCl2F3", "Boiling Point": "161-162 \u00b0C", "Melting Point": "-11--10 \u00b0C", "Density": "1.599 g/cm\u00b3 @ Temp: 20 \u00b0C"}}