{"cas_no": "23680-31-1", "cn_name": "N-BOC-O-\u82c4\u57fa-L-\u4e1d\u6c28\u9178", "en_name": ["N-tert-Butoxycarbonyl-O-benzylserine", "L-Serine, N-[(1,1-dimethylethoxy)carbonyl]-O-(phenylmethyl)-", "Alanine, 3-(benzyloxy)-N-carboxy-, N-tert-butyl ester, L-", "N-[(1,1-Dimethylethoxy)carbonyl]-O-(phenylmethyl)-L-serine", "O-Benzyl-N-tert-butoxycarbonyl-L-serine", "tert-Butoxycarbonyl-O-benzyl-L-serine", "O-Benzyl-N-(tert-butyloxycarbonyl)serine", "N-tert-Butoxycarbonyl-O-benzylserine", "N-tert-Butoxycarbonyl-O-benzyl-L-serine", "tert-Butoxycarbonyl-O-benzylserine", "N-tert-Butyloxycarbonyl-O-benzyl-L-serine", "N-(tert-Butoxycarbonyl)serine benzyl ether", "BOC-O-benzylserine", "NSC 334364", "(2S)-3-(Benzyloxy)-2-[(tert-butoxycarbonyl)amino]propanoic acid", "(S)-3-[(Benzyl)oxy]-2-[(tert-butoxycarbonyl)amino]propionic acid", "(S)-3-(Benzyloxy)-2-(tert-butoxycarbonylamino)propanoic acid", "O-Benzyl-N-(tert-butoxycarbonyl)-L-serine", "Boc-L-Ser(Bn)OH", "(2S)-3-(Benzyloxy)-2-[[(tert-butoxy)carbonyl]amino]propanoic acid", "(2S)-2-[(2-Methylpropan-2-yl)oxycarbonylamino]-3-phenylmethoxypropanoic acid", "(2S)-3-Benzyloxy-2-(tert-butoxycarbonylamino)propanoic acid"], "SMILES": "C(OCC(NC(OC(C)(C)C)=O)C(O)=O)C1=CC=CC=C1", "physical_data": {"Molecular Weight": "295.33", "Molecular Formula": "C15H21NO5", "Melting Point": "79 \u00b0C"}}