{"cas_no": "23687-27-6", "cn_name": "8-\u6c28\u57fa\u5f02\u55b9\u5549", "en_name": ["8-Isoquinolinamine", "8-Isoquinolinamine", "Isoquinoline, 8-amino-", "8-Aminoisoquinoline"], "SMILES": "NC=1C2=C(C=CC1)C=CN=C2", "physical_data": {"Molecular Weight": "144.17", "Molecular Formula": "C9H8N2", "Melting Point": "174 \u00b0C"}}