{"cas_no": "23687-25-4", "cn_name": "4-\u6c28\u57fa\u5f02\u55b9\u5549", "en_name": ["4-Isoquinolinamine", "4-Isoquinolinamine", "Isoquinoline, 4-amino-", "4-Aminoisoquinoline", "NSC 170840"], "SMILES": "NC=1C2=C(C=NC1)C=CC=C2", "physical_data": {"Molecular Weight": "144.17", "Molecular Formula": "C9H8N2", "Melting Point": "108 \u00b0C"}}