{"cas_no": "2368-80-1", "cn_name": "2-\u6c1f\u82ef\u80bc", "en_name": ["(2-Fluorophenyl)hydrazine", "Hydrazine, (2-fluorophenyl)-", "Hydrazine, (o-fluorophenyl)-", "(2-Fluorophenyl)hydrazine", "(o-Fluorophenyl)hydrazine", "2-Fluorophenylhydrazine", "1-(2-Fluorophenyl)hydrazine", "N-(2-Fluorophenyl)hydrazine"], "SMILES": "N(N)C1=C(F)C=CC=C1", "physical_data": {"Molecular Weight": "126.13", "Molecular Formula": "C6H7FN2", "Boiling Point": "95-96 \u00b0C @ Press: 9 Torr", "Melting Point": "45-47 \u00b0C"}}