{"cas_no": "23696-28-8", "cn_name": "\u5965\u62c9\u591a\u53f8", "en_name": ["Olaquindox", "2-Quinoxalinecarboxamide, N-(2-hydroxyethyl)-3-methyl-, 1,4-dioxide", "Olaquindox", "BayoNox", "Bayernox", "Bisergon", "2-[N-(2-Hydroxyethyl)carboxamide]-3-methylquinoxaline 1,4-dioxide", "NSC 634933", "2-((2-Hydroxyethyl)carbamoyl)-3-methylquinoxaline1,4-dioxide"], "SMILES": "O=N=1C2=C(N(=O)=C(C)C1C(NCCO)=O)C=CC=C2", "physical_data": {"Molecular Weight": "263.25", "Molecular Formula": "C12H13N3O4", "Melting Point": "209 \u00b0C"}}