{"cas_no": "2369-37-1", "cn_name": "1,2-\u4e8c\u6eb4-4-\u6c1f\u82ef", "en_name": ["1,2-Dibromo-4-fluorobenzene", "Benzene, 1,2-dibromo-4-fluoro-", "1,2-Dibromo-4-fluorobenzene", "3,4-Dibromofluorobenzene", "3,4-Dibromo-1-fluorobenzene"], "SMILES": "BrC1=C(Br)C=CC(F)=C1", "physical_data": {"Molecular Weight": "253.89", "Molecular Formula": "C6H3Br2F", "Boiling Point": "87 \u00b0C @ Press: 13 Torr", "Melting Point": "69 \u00b0C"}}