{"cas_no": "23694-17-9", "cn_name": "\u76d0\u9178\u8212\u6258\u5fc5\u5229", "en_name": ["Benzamide, N-[(1-ethyl-2-pyrrolidinyl)methyl]-5-(ethylsulfonyl)-2-methoxy-, hydrochloride (1:1)", "Benzamide, N-[(1-ethyl-2-pyrrolidinyl)methyl]-5-(ethylsulfonyl)-2-methoxy-, hydrochloride (1:1)", "o-Anisamide, N-[(1-ethyl-2-pyrrolidinyl)methyl]-5-(ethylsulfonyl)-, monohydrochloride", "Benzamide, N-[(1-ethyl-2-pyrrolidinyl)methyl]-5-(ethylsulfonyl)-2-methoxy-, monohydrochloride", "N-(1-Ethyl-2-pyrrolidinylmethyl)-2-methoxy-5-(ethylsulfonyl)benzamide hydrochloride", "N-(1-Ethyl-2-pyrrolidinylmethyl)-5-ethylsulfonyl-2-methoxybenzamide hydrochloride", "Barnotil"], "SMILES": "C(NCC1N(CC)CCC1)(=O)C2=C(OC)C=CC(S(CC)(=O)=O)=C2.Cl", "physical_data": {"Molecular Weight": "", "Molecular Formula": "C17H26N2O4S.ClH", "Melting Point": "181-182 \u00b0C"}}