{"cas_no": "2369-18-8", "cn_name": "2-\u6c1f-3-\u7532\u57fa\u5421\u5576", "en_name": ["2-Fluoro-3-methylpyridine", "Pyridine, 2-fluoro-3-methyl-", "3-Picoline, 2-fluoro-", "2-Fluoro-3-methylpyridine", "NSC 51591", "2-Fluoro-3-picoline"], "SMILES": "CC1=C(F)N=CC=C1", "physical_data": {"Molecular Weight": "111.12", "Molecular Formula": "C6H6FN", "Boiling Point": "150.5-151 \u00b0C @ Press: 757 Torr"}}