{"cas_no": "2369-11-1", "cn_name": "5-\u6c1f-2-\u785d\u57fa\u82ef\u80fa", "en_name": ["5-Fluoro-2-nitrobenzenamine", "Benzenamine, 5-fluoro-2-nitro-", "Aniline, 5-fluoro-2-nitro-", "5-Fluoro-2-nitrobenzenamine", "5-Fluoro-2-nitroaniline", "5-Fluoro-2-nitrophenylamine", "NSC 10292", "3-Fluoro-6-nitroaniline"], "SMILES": "N(=O)(=O)C1=C(N)C=C(F)C=C1", "physical_data": {"Molecular Weight": "156.11", "Molecular Formula": "C6H5FN2O2", "Melting Point": "97 \u00b0C"}}