{"cas_no": "2369-19-9", "cn_name": "2-\u6c1f-5-\u7532\u57fa\u5421\u5576", "en_name": ["2-Fluoro-5-methylpyridine", "Pyridine, 2-fluoro-5-methyl-", "3-Picoline, 6-fluoro-", "2-Fluoro-5-methylpyridine", "5-Methyl-2-fluoropyridine"], "SMILES": "CC=1C=CC(F)=NC1", "physical_data": {"Molecular Weight": "111.12", "Molecular Formula": "C6H6FN", "Boiling Point": "155-156 \u00b0C @ Press: 752 Torr"}}