{"cas_no": "2369-13-3", "cn_name": "3-\u6c1f-4-\u785d\u57fa\u82ef\u80fa", "en_name": ["3-Fluoro-4-nitrobenzenamine", "Benzenamine, 3-fluoro-4-nitro-", "Aniline, 3-fluoro-4-nitro-", "3-Fluoro-4-nitrobenzenamine", "3-Fluoro-4-nitroaniline", "NSC 402983", "4-Nitro-3-fluoroaniline"], "SMILES": "N(=O)(=O)C1=C(F)C=C(N)C=C1", "physical_data": {"Molecular Weight": "156.11", "Molecular Formula": "C6H5FN2O2", "Melting Point": "252-253 \u00b0C"}}