{"cas_no": "2369-12-2", "cn_name": "5-\u6c1f-3-\u785d\u57fa\u82ef\u80fa", "en_name": ["3-Fluoro-5-nitrobenzenamine", "Benzenamine, 3-fluoro-5-nitro-", "Aniline, 3-fluoro-5-nitro-", "3-Fluoro-5-nitrobenzenamine", "5-Fluoro-3-nitroaniline", "3-Fluoro-5-nitroaniline", "3-Nitro-5-fluoroaniline"], "SMILES": "N(=O)(=O)C1=CC(F)=CC(N)=C1", "physical_data": {"Molecular Weight": "156.11", "Molecular Formula": "C6H5FN2O2", "Melting Point": "115-116 \u00b0C"}}