{"cas_no": "2370-88-9", "cn_name": "1\uff0c3\uff0c5\uff0c7-\u56db\u7532\u57fa\u73af\u56db\u7845\u6c27\u70f7", "en_name": ["1,3,5,7-Tetramethylcyclotetrasiloxane", "Cyclotetrasiloxane, 2,4,6,8-tetramethyl-", "2,4,6,8-Tetramethylcyclotetrasiloxane", "Tetramethylcyclotetrasiloxane", "1,3,5,7-Tetramethylcyclotetrasiloxane", "LS 8600", "KF 9902", "Hydrosilox", "SIT 7530.0", "1,3,5,7-Tetrahydrogen-1,3,5,7-tetramethylcyclotetrasiloxane", "1,3,5,7-Cyclotetra(methylsiloxane)", "D 4H", "D4H", "2,4,6,8-Tetramethyl-1,3,5,7,2,4,6,8-tetraoxatetrasilocane", "LA 6N"], "SMILES": "C[SiH]1O[SiH](C)O[SiH](C)O[SiH](C)O1", "physical_data": {"Molecular Weight": "240.51", "Molecular Formula": "C4H16O4Si4", "Boiling Point": "134.5 \u00b0C", "Melting Point": "-65 \u00b0C", "Density": "0.991 g/cm\u00b3"}}