{"cas_no": "23708-56-7", "cn_name": "6-\u5341\u4e00\u70f7\u9187", "en_name": ["6-Undecanol", "6-Undecanol", "NSC 158434", "6-Hydroxyundecane", "1-Pentylhexanol"], "SMILES": "C(C(CCCCC)O)CCCC", "physical_data": {"Molecular Weight": "172.31", "Molecular Formula": "C11H24O", "Boiling Point": "228 \u00b0C", "Melting Point": "25 \u00b0C", "Density": "0.8272 g/cm\u00b3 @ Temp: 21.8 \u00b0C"}}