{"cas_no": "2370-63-0", "cn_name": "\u7532\u57fa\u4e19\u70ef\u9178-2-\u4e59\u6c27\u57fa\u4e59\u916f", "en_name": ["Ethoxyethyl methacrylate", "2-Propenoic acid, 2-methyl-, 2-ethoxyethyl ester", "Methacrylic acid, 2-ethoxyethyl ester", "Ethanol, 2-ethoxy-, methacrylate", "2-Ethoxyethyl methacrylate", "Ethoxyethyl methacrylate", "\u03b2-Ethoxyethyl methacrylate", "NSC 24162", "Acryester ET", "2-Ethoxyethyl 2-methylprop-2-enoate", "Ethylmonoglycol (meth)acrylate"], "SMILES": "C(OCCOCC)(C(C)=C)=O", "physical_data": {"Molecular Weight": "158.20", "Molecular Formula": "C8H14O3", "Boiling Point": "70 \u00b0C @ Press: 22 Torr", "Melting Point": "&lt;25 \u00b0C"}}