{"cas_no": "2370-61-8", "cn_name": "DL-O-\u7edc\u6c28\u9178", "en_name": ["(\u00b1)-o-Tyrosine", "Phenylalanine, 2-hydroxy-", "o-Tyrosine, DL-", "DL-Phenylalanine, 2-hydroxy-", "2-Hydroxyphenylalanine", "o-DL-Tyrosine", "DL-2-Hydroxyphenylalanine", "o-Tyrosine", "DL-o-Tyrosine", "(\u00b1)-o-Tyrosine", "NSC 72345", "Ortho-tyrosine", "2-Azaniumyl-3-(2-hydroxyphenyl)propanoate", "2-Amino-3-(2-hydroxyphenyl)propanoic acid"], "SMILES": "C(C(C(O)=O)N)C1=C(O)C=CC=C1", "physical_data": {"Molecular Weight": "181.19", "Molecular Formula": "C9H11NO3", "Melting Point": "247-250 \u00b0C (decomp)"}}