{"cas_no": "2370-71-0", "cn_name": "(Z)-\u9a6c\u6765\u9178\u5355(2-\u4e59\u57fa\u5df1\u57fa)\u916f", "en_name": ["Monooctyl maleate", "2-Butenedioic acid (2Z)-, 1-octyl ester", "Maleic acid, monooctyl ester", "2-Butenedioic acid (Z)-, monooctyl ester", "Maleic acid, octyl ester", "2-Butenedioic acid (2Z)-, monooctyl ester", "Monooctyl maleate"], "SMILES": "O(C(C=CC(O)=O)=O)CCCCCCCC", "physical_data": {"Molecular Weight": "228.28", "Molecular Formula": "C12H20O4", "Melting Point": "32-32.5 \u00b0C"}}