{"cas_no": "2371-42-8", "cn_name": "2-\u7532\u57fa\u5f02\u51b0\u7247", "en_name": ["2-Methylisoborneol", "Bicyclo[2.2.1]heptan-2-ol, 1,2,7,7-tetramethyl-, (1R,2R,4R)-rel-", "2-Norbornanol, 1,2,7,7-tetramethyl-, exo-", "Bicyclo[2.2.1]heptan-2-ol, 1,2,7,7-tetramethyl-, exo-", "2-Norbornanol, 1,2,7,7-tetramethyl-", "rel-(1R,2R,4R)-1,2,7,7-Tetramethylbicyclo[2.2.1]heptan-2-ol", "2-endo-Methyl-2-exo-bornanol", "2-Methylisoborneol", "exo-1,2,7,7-Tetramethylbicyclo[2.2.1]heptan-2-ol"], "SMILES": "CC12C(C)(C)C(CC1(C)O)CC2", "physical_data": {"Molecular Weight": "168.28", "Molecular Formula": "C11H20O", "Melting Point": "168 \u00b0C"}}