{"cas_no": "2372-82-9", "cn_name": "\u6708\u6842\u80fa\u4e8c\u4e9a\u4e19\u57fa\u4e8c\u80fa", "en_name": ["N,N-Bis(3-aminopropyl)dodecylamine", "1,3-Propanediamine, N1-(3-aminopropyl)-N1-dodecyl-", "Dodecylamine, N,N-bis(3-aminopropyl)-", "1,3-Propanediamine, N-(3-aminopropyl)-N-dodecyl-", "N1-(3-Aminopropyl)-N1-dodecyl-1,3-propanediamine", "RC 5637", "N,N-Bis(3-aminopropyl)laurylamine", "Lonzabac 12", "Lonzabac 1230", "Triameen Y 12", "Lonzabac 12.100", "N,N-Bis(3-aminopropyl)dodecylamine", "Triameen Y 12D", "Triamine Y 12D", "Mistral", "Lonzabac 12.30", "Grotan BA 21", "Bis(3-aminopropyl)dodecylamine", "Lauryl imino-bis-propylamine"], "SMILES": "N(CCCCCCCCCCCC)(CCCN)CCCN", "physical_data": {"Molecular Weight": "299.54", "Molecular Formula": "C18H41N3", "Boiling Point": "182-184 \u00b0C @ Press: 1 Torr"}}