{"cas_no": "2372-45-4", "cn_name": "\u6b63\u4e01\u9187\u94a0", "en_name": ["Sodium butoxide", "1-Butanol, sodium salt (1:1)", "Butyl alcohol, sodium salt", "Sodium butoxide", "1-Butanol, sodium salt", "Sodium butylate", "Sodium 1-butoxide", "Sodium n-butylate", "Sodium n-butoxide", "Sodium butanolate"], "SMILES": "C(CC)CO.[Na]", "physical_data": {"Molecular Weight": "", "Molecular Formula": "C4H10O.Na", "Melting Point": "-21 \u00b0C", "Density": "0.861 g/cm\u00b3"}}