{"cas_no": "23726-91-2", "cn_name": "\u5927\u9a6c\u916e", "en_name": ["\u03b2-Damascone", "2-Buten-1-one, 1-(2,6,6-trimethyl-1-cyclohexen-1-yl)-, (2E)-", "2-Buten-1-one, 1-(2,6,6-trimethyl-1-cyclohexen-1-yl)-, (E)-", "(2E)-1-(2,6,6-Trimethyl-1-cyclohexen-1-yl)-2-buten-1-one", "\u03b2-Damascone, trans-", "\u03b2-Damascone", "trans-2,6,6-Trimethyl-1-crotonylcyclohex-1-ene", "trans-\u03b2-Damascone", "(E)-\u03b2-Damascone", "Damascone beta", "(E)-1-(2,6,6-Trimethyl-1-cyclohexen-1-yl)-2-buten-1-one"], "SMILES": "C(C=CC)(=O)C=1C(C)(C)CCCC1C", "physical_data": {"Molecular Weight": "192.30", "Molecular Formula": "C13H20O", "Boiling Point": "97 \u00b0C @ Press: 3 Torr"}}