{"cas_no": "23720-80-1", "cn_name": "\u7518\u677e\u65b0\u916e", "en_name": ["Nardosinone", "5H-Naphtho[2,1-c][1,2]dioxol-5-one, 1,3a,4,7,8,9,9a,9b-octahydro-1,1,9,9a-tetramethyl-, (3aR,9R,9aR,9bS)-", "5H-Naphtho[2,1-c][1,2]dioxol-5-one, 1,3a,4,7,8,9,9a,9b-octahydro-1,1,9,9a-tetramethyl-, [3aR-(3a\u03b1,9\u03b1,9a\u03b1,9b\u03b1)]-", "(3aR,9R,9aR,9bS)-1,3a,4,7,8,9,9a,9b-Octahydro-1,1,9,9a-tetramethyl-5H-naphtho[2,1-c][1,2]dioxol-5-one", "Nardosinone", "Nardosinon"], "SMILES": "CC12C3C(CC(=O)C1=CCCC2C)OOC3(C)C", "physical_data": {"Molecular Weight": "250.33", "Molecular Formula": "C15H22O3", "Melting Point": "108-110 \u00b0C"}}