{"cas_no": "2373-80-0", "cn_name": "3,4-(\u4e9a\u7532\u4e8c\u6c27)\u8089\u6842\u9178", "en_name": ["3\u2032,4\u2032-Methylenedioxycinnamic acid", "2-Propenoic acid, 3-(1,3-benzodioxol-5-yl)-", "Cinnamic acid, 3,4-(methylenedioxy)-", "3-(1,3-Benzodioxol-5-yl)-2-propenoic acid", "3,4-(Methylenedioxy)benzene-3-acrylic acid", "Cinnamic acid, 3,4-[methylenebis(oxy)]-", "3,4-(Methylenedioxy)cinnamic acid", "3-(3,4-Methylenedioxyphenyl)propenoic acid", "Piperonylideneacetic acid", "3\u2032,4\u2032-Methylenedioxycinnamic acid", "NSC 5953", "3-(1,3-Benzodioxol-5-yl)acrylic acid", "3-(Benzodioxol-5-yl)acrylic acid"], "SMILES": "C(=CC(O)=O)C=1C=C2C(=CC1)OCO2", "physical_data": {"Molecular Weight": "192.17", "Molecular Formula": "C10H8O4", "Melting Point": "243 \u00b0C (decomp)"}}