{"cas_no": "2373-31-1", "cn_name": "6-\u7f9f\u57fa-4-\u7532\u57fa\u9999\u8c46\u7d20", "en_name": ["6-Hydroxy-4-methylcoumarin", "2H-1-Benzopyran-2-one, 6-hydroxy-4-methyl-", "Coumarin, 6-hydroxy-4-methyl-", "6-Hydroxy-4-methyl-2H-1-benzopyran-2-one", "4-Methyl-6-hydroxycoumarin", "6-Hydroxy-4-methylcoumarin", "6-Hydroxy-4-methylcumarin", "6-Hydroxy-4-methyl-2H-chromen-2-one", "6-Hydroxy-4-methylchromen-2-one"], "SMILES": "CC=1C=2C(OC(=O)C1)=CC=C(O)C2", "physical_data": {"Molecular Weight": "176.17", "Molecular Formula": "C10H8O3", "Melting Point": "243 \u00b0C"}}