{"cas_no": "2373-51-5", "cn_name": "\u6c2f\u7532\u57fa\u7532\u786b\u919a", "en_name": ["Chloromethyl methyl sulfide", "Methane, chloro(methylthio)-", "Sulfide, chloromethyl methyl", "Chloro(methylthio)methane", "Monochlorodimethyl sulfide", "Chloromethyl methyl sulfide", "(Methylthio)methyl chloride", "\u03b1-Chlorodimethyl sulfide", "Chlorodimethyl thioether", "Chloromethyl methyl thioether", "Chlorodimethyl sulfide", "Methyl chloromethyl sulfide", "NSC 63205", "Chloromethylsulfanylmethane", "(Chloromethyl)(methyl)sulfane"], "SMILES": "C(SC)Cl", "physical_data": {"Molecular Weight": "96.58", "Molecular Formula": "C2H5ClS", "Boiling Point": "105 \u00b0C"}}