{"cas_no": "23731-38-6", "cn_name": "\u6c18\u4ee3\u7532\u9178\u7532\u916f", "en_name": ["Formic-d acid, methyl ester", "Formic-d acid, methyl ester", "Methyl deuterioformate"], "SMILES": "C(OC)(=O)[2H]", "physical_data": {"Molecular Weight": "", "Molecular Formula": "C2H3DO2", "Boiling Point": "31 \u00b0C @ Press: 720 Torr"}}