{"cas_no": "2373-76-4", "cn_name": "2-\u7532\u57fa\u8089\u6842\u9178", "en_name": ["2-Methylcinnamic acid", "2-Propenoic acid, 3-(2-methylphenyl)-", "Cinnamic acid, o-methyl-", "3-(2-Methylphenyl)-2-propenoic acid", "o-Methylcinnamic acid", "2-Methylcinnamic acid", "NSC 99069", "3-(2-Methylphenyl)acrylic acid"], "SMILES": "C(=CC(O)=O)C1=C(C)C=CC=C1", "physical_data": {"Molecular Weight": "162.19", "Molecular Formula": "C10H10O2", "Melting Point": "175-176 \u00b0C"}}