{"cas_no": "23739-88-0", "cn_name": "\u4e09\u4e59\u9170\u57fa-\u0392-\u73af\u7cca\u7cbe", "en_name": ["Peracetylated \u03b2-cyclodextrin", "\u03b2-Cyclodextrin, 2A,2B,2C,2D,2E,2F,2G,3A,3B,3C,3D,3E,3F,3G,6A,6B,6C,6D,6E,6F,6G-heneicosaacetate", "\u03b2-Cyclodextrin, heneicosaacetate", "2,4,7,9,12,14,17,19,22,24,27,29,32,34-Tetradecaoxaoctacyclo[31.2.2.23,6.28,11.213,16.218,21.223,26.228,31]nonatetracontane, \u03b2-cyclodextrin deriv.", "Peracetylated \u03b2-cyclodextrin", "\u03b2-Cyclodextrin peracetate", "2,3,6-Triacetyl-\u03b2-cyclodextrin", "Beta W 7 TA 3.0", "Heptakis(2,3,6-tri-O-acetyl)-\u03b2-cyclodextrin", "Cavasol W7TA"], "SMILES": "O(C(C)=O)C1C2C(COC(C)=O)OC(C1OC(C)=O)OC3C(OC(C)=O)C(OC(C)=O)C(OC3COC(C)=O)OC4C(OC(C)=O)C(OC(C)=O)C(OC4COC(C)=O)OC5C(OC(C)=O)C(OC(C)=O)C(OC6C(OC(C)=O)C(OC(C)=O)C(OC7C(OC(C)=O)C(OC(C)=O)C(OC8C(OC(C)=O)C(OC(C)=O)C(O2)OC8COC(C)=O)OC7COC(C)=O)OC6COC(C)=O)OC5COC(C)=O", "physical_data": {"Molecular Weight": "2017.75", "Molecular Formula": "C84H112O56", "Melting Point": "195-197 \u00b0C"}}