{"cas_no": "2373-98-0", "cn_name": "3,3'-\u4e8c\u7f9f\u57fa\u8054\u82ef\u80fa", "en_name": ["3,3\u2032-Dihydroxy-4,4\u2032-diaminobiphenyl", "[1,1\u2032-Biphenyl]-3,3\u2032-diol, 4,4\u2032-diamino-", "3,3\u2032-Biphenyldiol, 4,4\u2032-diamino-", "m,m\u2032-Biphenol, 6,6\u2032-diamino-", "4,4\u2032-Diamino[1,1\u2032-biphenyl]-3,3\u2032-diol", "3,3\u2032-Dihydroxybenzidine", "[1,1\u2032-Biphenyl]-4,4\u2032-diamine, 3,3\u2032-dihydroxy-", "3,3\u2032-Dihydroxy-4,4\u2032-diaminobiphenyl", "HAB (diol)", "4,4\u2032-Diamino-3,3\u2032-dihydroxybiphenyl", "4,4\u2032-Diaminobiphenyl-3,3\u2032-diol", "2-Amino-5-(4-amino-3-hydroxyphenyl)phenol"], "SMILES": "OC=1C=C(C=CC1N)C2=CC(O)=C(N)C=C2", "physical_data": {"Molecular Weight": "216.24", "Molecular Formula": "C12H12N2O2", "Melting Point": "225 \u00b0C (decomp)"}}