{"cas_no": "2373-89-9", "cn_name": "4,4'-\u4e8c\u7532\u6c27\u57fa\u67e5\u8033\u916e", "en_name": ["4,4\u2032-Dimethoxychalcone", "2-Propen-1-one, 1,3-bis(4-methoxyphenyl)-", "Chalcone, 4,4\u2032-dimethoxy-", "1,3-Bis(4-methoxyphenyl)-2-propen-1-one", "4,4\u2032-Dimethoxychalcone", "p, p\u2032-Dimethoxychalcone", "NSC 87339", "1,3-Bis(4-methoxyphenyl)propenone"], "SMILES": "C(C=CC1=CC=C(OC)C=C1)(=O)C2=CC=C(OC)C=C2", "physical_data": {"Molecular Weight": "268.31", "Molecular Formula": "C17H16O3", "Melting Point": "101-102 \u00b0C"}}