{"cas_no": "23747-48-0", "cn_name": "5-\u7532\u57fa-6,7-\u4e8c\u6c22-5H-\u73af\u620a\u5e76\u5421\u55ea", "en_name": ["5-Methyl-6,7-dihydro-5H-cyclopentapyrazine", "5H-Cyclopentapyrazine, 6,7-dihydro-5-methyl-", "6,7-Dihydro-5-methyl-5H-cyclopentapyrazine", "5-Methyl-6,7-dihydro-5H-cyclopentapyrazine", "5-Methyl-6,7-dihydro-5H-cyclopentylpyrazine", "5-Methyl-6,7-dihydro-5H-cyclopenta(b)pyrazine"], "SMILES": "CC1C=2C(=NC=CN2)CC1", "physical_data": {"Molecular Weight": "134.18", "Molecular Formula": "C8H10N2", "Boiling Point": "66 \u00b0C @ Press: 2 Torr", "Melting Point": "121-123 \u00b0C"}}