{"cas_no": "2374-05-2", "cn_name": "4-\u6eb4-2,6-\u4e8c\u7532\u57fa\u82ef\u915a", "en_name": ["4-Bromo-2,6-dimethylphenol", "Phenol, 4-bromo-2,6-dimethyl-", "2,6-Xylenol, 4-bromo-", "4-Bromo-2,6-dimethylphenol", "4-Bromo-2,6-xylenol", "2,6-Dimethyl-4-bromophenol", "NSC 63922"], "SMILES": "OC1=C(C)C=C(Br)C=C1C", "physical_data": {"Molecular Weight": "201.06", "Molecular Formula": "C8H9BrO", "Melting Point": "79.5 \u00b0C"}}