{"cas_no": "23745-86-0", "cn_name": "\u6c1f\u4e59\u9178\u94be", "en_name": ["Acetic acid, fluoro-, potassium salt", "Acetic acid, fluoro-, potassium salt", "Potassium fluoroacetate"], "SMILES": "C(CF)(O)=O.[K]", "physical_data": {"Molecular Weight": "", "Molecular Formula": "C2H3FO2.K", "Melting Point": "189 \u00b0C (decomp)"}}