{"cas_no": "23749-58-8", "cn_name": "7H-\u82ef\u5e76\u54aa\u5511\u5e76[2,1-A]\u82ef\u5e76[DE]\u5f02\u55b9\u5549-7-\u916e", "en_name": ["7H-Benzimidazo[2,1-a]benz[de]isoquinolin-7-one", "7H-Benzimidazo[2,1-a]benz[de]isoquinolin-7-one", "Naphthoylenebenzimidazole", "1,8-Naphthoylene-1\u2032,2\u2032-benzimidazole", "Benzimidazole, 1,2-(1\u2032,8\u2032-naphthoylene)-", "1,2-(1,8-Naphthoylene)benzimidazole", "1,2-Naphthoylenebenzimidazole", "Luminophor 2", "Luminofor Yellow-Green 490RT", "Yellow-Green 490RT", "Luminor 490RT", "Luminor Yellow Green 490RT", "Luminor 2", "Lum 15", "Solvent Yellow 184", "C.I. Solvent Yellow 184", "C.I. 71090", "NSC 159457", "1,8-Naphthalenebenzimidazole"], "SMILES": "O=C1N2C(C3=C4C1=CC=CC4=CC=C3)=NC=5C2=CC=CC5", "physical_data": {"Molecular Weight": "270.28", "Molecular Formula": "C18H10N2O", "Melting Point": "189 \u00b0C"}}