{"cas_no": "2374-14-3", "cn_name": "\u4e09\u6c1f\u4e19\u57fa\u7532\u57fa\u73af\u4e09\u7845\u6c27\u70f7", "en_name": ["2,4,6-Trimethyl-2,4,6-tris(3,3,3-trifluoropropyl)cyclotrisiloxane", "Cyclotrisiloxane, 2,4,6-trimethyl-2,4,6-tris(3,3,3-trifluoropropyl)-", "2,4,6-Trimethyl-2,4,6-tris(3,3,3-trifluoropropyl)cyclotrisiloxane", "1,3,5-Tris(3,3,3-trifluoropropyl)-1,3,5-trimethylcyclotrisiloxane", "Tris-3,3,3-trifluoropropyltrimethylcyclotrisiloxane", "1,3,5-Trimethyl-1,3,5-tris(3,3,3-trifluoropropyl)cyclotrisiloxane", "(3,3,3-Trifluoropropyl)methylsiloxane cyclic trimer", "LS 8220", "D 3F", "2,4,6-Trimethyl-2,4,6-tris(3,3,3-trifluoropropyl)-1,3,5,2,4,6-trioxatrisilinane"], "SMILES": "C(CC(F)(F)F)[Si]1(C)O[Si](CCC(F)(F)F)(C)O[Si](CCC(F)(F)F)(C)O1", "physical_data": {"Molecular Weight": "468.54", "Molecular Formula": "C12H21F9O3Si3", "Boiling Point": "95 \u00b0C @ Press: 3 Torr", "Melting Point": "35.2 \u00b0C", "Density": "1.241 g/cm\u00b3 @ Temp: 26 \u00b0C"}}