{"cas_no": "23747-45-7", "cn_name": "3-\u7532\u57fa\u786b\u4ee3\u4e01\u9178 S-\u7532\u916f", "en_name": ["S-Methyl 3-methylbutanethioate", "Butanethioic acid, 3-methyl-, S-methyl ester", "Butyric acid, 3-methylthio-, S-methyl ester", "S-Methyl 3-methylbutanethioate"], "SMILES": "C(CC(C)C)(SC)=O", "physical_data": {"Molecular Weight": "132.22", "Molecular Formula": "C6H12OS", "Boiling Point": "50 \u00b0C @ Press: 20 Torr"}}