{"cas_no": "23743-26-2", "cn_name": "1,2-\u53cc(\u4e8c\u73af\u5df1\u57fa\u78f7\u57fa)-\u4e59\u70f7", "en_name": ["1,2-Bis(dicyclohexylphosphino)ethane", "Phosphine, 1,1\u2032-(1,2-ethanediyl)bis[1,1-dicyclohexyl-", "Phosphine, ethylenebis[dicyclohexyl-", "Phosphine, 1,2-ethanediylbis[dicyclohexyl-", "1,1\u2032-(1,2-Ethanediyl)bis[1,1-dicyclohexylphosphine]", "Ethylenebis(dicyclohexylphosphine)", "1,2-Bis(dicyclohexylphosphino)ethane", "1,2-Bis(dicyclohexylphosphanyl)ethane", "Dcype"], "SMILES": "P(CCP(C1CCCCC1)C2CCCCC2)(C3CCCCC3)C4CCCCC4", "physical_data": {"Molecular Weight": "422.61", "Molecular Formula": "C26H48P2", "Melting Point": "96-97 \u00b0C"}}