{"cas_no": "237430-03-4", "cn_name": "\u963f\u7279\u6ce2\u9f99", "en_name": ["Alsterpaullone", "Indolo[3,2-d][1]benzazepin-6(5H)-one, 7,12-dihydro-9-nitro-", "7,12-Dihydro-9-nitroindolo[3,2-d][1]benzazepin-6(5H)-one", "Alsterpaullone", "9-Nitropaullone", "NSC 705701", "9-Nitro-7,12-dihydroindolo-(3,2-d)(1)benzazepin-6(5H)-one"], "SMILES": "O=C1CC2=C(C=3C(N1)=CC=CC3)NC=4C2=CC(N(=O)=O)=CC4", "physical_data": {"Molecular Weight": "293.28", "Molecular Formula": "C16H11N3O3", "Melting Point": "&gt;330 \u00b0C"}}