{"cas_no": "23761-24-2", "cn_name": "3-\u6eb4\u73af\u4e01\u70f7\u916e", "en_name": ["3-Bromocyclobutanone", "Cyclobutanone, 3-bromo-", "3-Bromocyclobutanone", "3-Bromocyclobutan-1-one"], "SMILES": "BrC1CC(=O)C1", "physical_data": {"Molecular Weight": "148.99", "Molecular Formula": "C4H5BrO", "Boiling Point": "29 \u00b0C @ Press: 1.8 Torr"}}