{"cas_no": "23764-31-0", "cn_name": "N-\u4e19\u57fa-1,3-\u4e19\u4e8c\u80fa", "en_name": ["N-Propyl-1,3-propanediamine", "1,3-Propanediamine, N1-propyl-", "1,3-Propanediamine, N-propyl-", "N1-Propyl-1,3-propanediamine", "1-Amino-3-(propylamino)propane", "N-Propyl-1,3-propanediamine", "N-Propyl-1,3-diaminopropane", "1,5-Diazaoctane", "N-Propyltrimethylenediamine", "NSC 166318", "N-Propylpropylenediamine", "(3-Aminopropyl)(propyl)amine"], "SMILES": "C(NCCC)CCN", "physical_data": {"Molecular Weight": "116.20", "Molecular Formula": "C6H16N2", "Boiling Point": "169-174 \u00b0C", "Density": "0.8437 g/cm\u00b3 @ Temp: 20 \u00b0C"}}