{"cas_no": "23779-95-5", "cn_name": "4-\u7f9f\u57fa-8-\u4e09\u6c1f\u7532\u57fa\u55b9\u5549-3-\u7532\u9178", "en_name": ["4-Hydroxy-8-(trifluoromethyl)-3-quinolinecarboxylic acid", "3-Quinolinecarboxylic acid, 4-hydroxy-8-(trifluoromethyl)-", "4-Hydroxy-8-(trifluoromethyl)-3-quinolinecarboxylic acid", "NSC 102792", "4-Hydroxy-8-trifluoromethylquinoline-3-carboxylic acid"], "SMILES": "C(F)(F)(F)C=1C2=C(C(O)=C(C(O)=O)C=N2)C=CC1", "physical_data": {"Molecular Weight": "257.17", "Molecular Formula": "C11H6F3NO3", "Melting Point": "292 \u00b0C"}}