{"cas_no": "23779-97-7", "cn_name": "4-\u6c2f-8-(\u4e09\u6c1f\u7532\u57fa)\u55b9\u5549", "en_name": ["4-Chloro-8-(trifluoromethyl)quinoline", "Quinoline, 4-chloro-8-(trifluoromethyl)-", "4-Chloro-8-(trifluoromethyl)quinoline"], "SMILES": "C(F)(F)(F)C=1C2=C(C(Cl)=CC=N2)C=CC1", "physical_data": {"Molecular Weight": "231.60", "Molecular Formula": "C10H5ClF3N", "Melting Point": "78 \u00b0C"}}