{"cas_no": "23779-32-0", "cn_name": "\u03b3-\u8132\u4e19\u57fa\u4e09\u4e59\u6c27\u57fa\u7845\u70f7", "en_name": ["Ureidopropyltriethoxysilane", "Urea, N-[3-(triethoxysilyl)propyl]-", "Urea, [3-(triethoxysilyl)propyl]-", "N-[3-(Triethoxysilyl)propyl]urea", "Y 5650", "Triethoxy(\u03b3-ureidopropyl)silane", "A 1160", "(\u03b3-Ureidopropyl)triethoxysilane", "Ureidopropyltriethoxysilane", "N-(Triethoxysilylpropyl)urea", "AY 43-031", "KBE 585", "NUC-A 1160", "[3-(Triethoxysilyl)propyl]urea", "SIU 9055.0", "NUC Silicone A 1160", "3-Ureidopropyltriethoxysilane", "Z 6676", "Dynasylan 2201EQ", "1-[3-(Triethoxysilyl)propyl]urea", "Silquest A 1160", "UCT 801", "LT 1160", "Z 6675", "KH 1161", "KBE 585A", "Z 6119"], "SMILES": "[Si](CCCNC(N)=O)(OCC)(OCC)OCC", "physical_data": {"Molecular Weight": "264.39", "Molecular Formula": "C10H24N2O4Si", "Melting Point": "-97 \u00b0C", "Density": "0.920 g/cm\u00b3"}}