{"cas_no": "23778-52-1", "cn_name": "2,5,8,11,14-\u4e94\u6c27\u6742-16-\u5341\u516d\u70f7\u9187", "en_name": ["2,5,8,11,14-Pentaoxahexadecan-16-ol", "3,6,9,12,15-Pentaoxahexadecan-1-ol", "2,5,8,11,14-Pentaoxahexadecan-16-ol", "Ethanol, 2-[2-[2-[2-(2-methoxyethoxy)ethoxy]ethoxy]ethoxy]-", "Pentaethylene glycol, monomethyl ether", "3,6,9,12,15-Pentaoxahexadecanol", "Pentaethylene glycol methyl ether", "Methoxypentaethylene glycol", "2-[2-[2-[2-(2-Methoxyethoxy)ethoxy]ethoxy]ethoxy]ethanol"], "SMILES": "C(COCCOCCO)OCCOCCOC", "physical_data": {"Molecular Weight": "252.30", "Molecular Formula": "C11H24O6", "Boiling Point": "110 \u00b0C @ Press: 0.01 Torr"}}