{"cas_no": "23787-80-6", "cn_name": "2-\u4e59\u9170\u57fa-3-\u7532\u57fa\u5421\u55ea", "en_name": ["2-Acetyl-3-methylpyrazine", "Ethanone, 1-(3-methyl-2-pyrazinyl)-", "Ketone, methyl 3-methylpyrazinyl", "Ethanone, 1-(3-methylpyrazinyl)-", "1-(3-Methyl-2-pyrazinyl)ethanone", "2-Acetyl-3-methylpyrazine", "3-Acetyl-2-methylpyrazine", "1-(3-Methylpyrazin-2-yl)ethanone", "1-(3-Methylpyrazin-2-yl)ethan-1-one"], "SMILES": "C(C)(=O)C=1C(C)=NC=CN1", "physical_data": {"Molecular Weight": "136.15", "Molecular Formula": "C7H8N2O", "Boiling Point": "71 \u00b0C @ Press: 6 Torr"}}