{"cas_no": "2378-86-1", "cn_name": "(4-\u7532\u57fa\u82c4\u57fa)\u4e09\u82ef\u57fa\u6eb4\u5316\u81a6", "en_name": ["Phosphonium, [(4-methylphenyl)methyl]triphenyl-, bromide (1:1)", "Phosphonium, [(4-methylphenyl)methyl]triphenyl-, bromide (1:1)", "Phosphonium, (p-methylbenzyl)triphenyl-, bromide", "Phosphonium, [(4-methylphenyl)methyl]triphenyl-, bromide", "(p-Methylbenzyl)triphenylphosphonium bromide", "4-Methylbenzyltriphenylphosphonium bromide", "NSC 77141"], "SMILES": "[P+](CC1=CC=C(C)C=C1)(C2=CC=CC=C2)(C3=CC=CC=C3)C4=CC=CC=C4.[Br-]", "physical_data": {"Molecular Weight": "", "Molecular Formula": "C26H24P.Br", "Melting Point": "267 \u00b0C"}}