{"cas_no": "23784-96-5", "cn_name": "2-\u6c2f-5-\u6c2f\u7532\u57fa\u567b\u5429", "en_name": ["2-Chloro-5-(chloromethyl)thiophene", "Thiophene, 2-chloro-5-(chloromethyl)-", "2-Chloro-5-(chloromethyl)thiophene", "5-Chloro-2-(chloromethyl)thiophene", "2-(Chloromethyl)-5-chlorothiophene"], "SMILES": "C(Cl)C=1SC(Cl)=CC1", "physical_data": {"Molecular Weight": "167.06", "Molecular Formula": "C5H4Cl2S", "Boiling Point": "67-68 \u00b0C @ Press: 1 Torr", "Density": "1.385 g/cm\u00b3 @ Temp: 25 \u00b0C"}}