{"cas_no": "2378-02-1", "cn_name": "\u9ad8\u6c1f\u53d4\u4e01\u9187", "en_name": ["Perfluoro-tert-butanol", "2-Propanol, 1,1,1,3,3,3-hexafluoro-2-(trifluoromethyl)-", "1,1,1,3,3,3-Hexafluoro-2-(trifluoromethyl)-2-propanol", "Perfluoro-tert-butanol", "Perfluoro-tert-butyl alcohol", "2-(Trifluoromethyl)-1,1,1,3,3,3-hexafluoro-2-propanol", "Nonafluoro-tert-butanol", "Nonafluoro-tert-butyl alcohol", "2,2,2-Trifluoro-1,1-bis(trifluoromethyl)ethanol", "Perfluoro(2-methyl-2-propanol)", "Perfluoro-t-butanol", "Tris(trifluoromethyl)methanol", "TBOL", "1,1-Bis(trifluoromethyl)-2,2,2-trifluoroethanol", "1,1-Di(trifluoromethyl)-2,2,2-trifluoroethanol"], "SMILES": "C(C(F)(F)F)(C(F)(F)F)(C(F)(F)F)O", "physical_data": {"Molecular Weight": "236.04", "Molecular Formula": "C4HF9O", "Boiling Point": "45 \u00b0C", "Melting Point": "-15 \u00b0C", "Density": "1.693 g/cm\u00b3 @ Temp: 20 \u00b0C"}}