{"cas_no": "23786-14-3", "cn_name": "4-\u7532\u6c27\u57fa\u82ef\u4e59\u9178\u7532\u916f", "en_name": ["Methyl 4-methoxybenzeneacetate", "Benzeneacetic acid, 4-methoxy-, methyl ester", "Acetic acid, (p-methoxyphenyl)-, methyl ester", "Methyl 4-methoxybenzeneacetate", "Methyl (4-methoxyphenyl)acetate", "Methyl (p-methoxyphenyl)acetate", "Methyl 2-(p-methoxyphenyl)acetate", "(4-Methoxyphenyl)acetic acid methyl ester", "Methyl 4-anisoleacetate", "4-Methoxybenzeneacetic acid methyl ester", "Methyl 2-(4-methoxyphenyl)acetate"], "SMILES": "C(C(OC)=O)C1=CC=C(OC)C=C1", "physical_data": {"Molecular Weight": "180.20", "Molecular Formula": "C10H12O3", "Boiling Point": "158 \u00b0C @ Press: 19 Torr"}}