{"cas_no": "23786-13-2", "cn_name": "\u5bf9\u7532\u82ef\u57fa\u4e59\u9178\u7532\u916f", "en_name": ["Benzeneacetic acid, 4-methyl-, methyl ester", "Benzeneacetic acid, 4-methyl-, methyl ester", "Acetic acid, p-tolyl-, methyl ester", "p-Tolylacetic acid methyl ester", "Methyl 4-methylbenzeneacetate", "Methyl (p-methylphenyl)acetate", "Methyl p-tolylacetate", "(4-Methylphenyl)acetic acid methyl ester", "Methyl (4-methylphenyl)acetate", "Methyl 2-(4-methylphenyl)acetate"], "SMILES": "C(C(OC)=O)C1=CC=C(C)C=C1", "physical_data": {"Molecular Weight": "164.20", "Molecular Formula": "C10H12O2", "Boiling Point": "76-78 \u00b0C @ Press: 0.3 Torr", "Melting Point": "60-60.5 \u00b0C"}}