{"cas_no": "23783-42-8", "cn_name": "\u56db\u4e59\u57fa\u4e59\u4e8c\u9187\u5355\u7532\u916f", "en_name": ["Tetraethylene glycol monomethyl ether", "3,6,9,12-Tetraoxatridecan-1-ol", "2,5,8,11-Tetraoxatridecan-13-ol", "Ethanol, 2-[2-[2-(2-methoxyethoxy)ethoxy]ethoxy]-", "Tetraethylene glycol monomethyl ether", "Methoxytetraethylene glycol", "3,6,9,12-Tetraoxatridecanol", "Tetraethylene glycol methyl ether", "NSC 345692", "Tetrakis(ethylene glycol) monomethyl ether", "2-(2-[2-(2-Methoxyethoxy)ethoxy]ethoxy)ethanol", "2,5,8,11-Tetraoxatridecan-13-o1"], "SMILES": "C(OCCOCCO)COCCOC", "physical_data": {"Molecular Weight": "208.25", "Molecular Formula": "C9H20O5", "Boiling Point": "128-130 \u00b0C @ Press: 0.7 Torr", "Density": "1.0659 g/cm\u00b3 @ Temp: 20 \u00b0C"}}