{"cas_no": "2378-95-2", "cn_name": "\u5bf9\u7532\u6c28\u57fa\u82ef\u7532\u9170\u8c37\u6c28\u9178\u4e8c\u4e59\u916f", "en_name": ["1,5-Diethyl N-[4-(methylamino)benzoyl]-L-glutamate", "L-Glutamic acid, N-[4-(methylamino)benzoyl]-, 1,5-diethyl ester", "Glutamic acid, N-[p-(methylamino)benzoyl]-, diethyl ester, L-", "L-Glutamic acid, N-[4-(methylamino)benzoyl]-, diethyl ester", "Glutamic acid, N-[p-(methylamino)benzoyl]-, diethyl ester", "1,5-Diethyl N-[4-(methylamino)benzoyl]-L-glutamate", "N-(p-Methylaminobenzoyl)glutamic acid diethyl ester", "Diethyl N-(p-N-methylaminobenzoyl)glutamate", "Diethyl N-[4-(methylamino)benzoyl]-L-glutamate", "(S)-Diethyl 2-(4-(methylamino)benzamido)pentanedioate"], "SMILES": "C(NC(=O)C1=CC=C(NC)C=C1)(CCC(OCC)=O)C(OCC)=O", "physical_data": {"Molecular Weight": "336.38", "Molecular Formula": "C17H24N2O5", "Melting Point": "88-89 \u00b0C"}}