{"cas_no": "2379-55-7", "cn_name": "2,3-\u4e8c\u7532\u57fa\u55b9\u620a\u5549", "en_name": ["2,3-Dimethylquinoxaline", "Quinoxaline, 2,3-dimethyl-", "2,3-Dimethylquinoxaline", "NSC 1789"], "SMILES": "CC1=NC2=C(N=C1C)C=CC=C2", "physical_data": {"Molecular Weight": "158.20", "Molecular Formula": "C10H10N2", "Melting Point": "104-106 \u00b0C"}}