{"cas_no": "2379-57-9", "cn_name": "\u4e8c\u785d\u57fa\u55b9\u916e", "en_name": ["DNQX", "2,3-Quinoxalinedione, 1,4-dihydro-6,7-dinitro-", "2,3-Quinoxalinediol, 6,7-dinitro-", "1,4-Dihydro-6,7-dinitro-2,3-quinoxalinedione", "6,7-Dinitro-2,3-dihydroxyquinoxaline", "FG 9041", "DNQX", "6,7-Dinitroquinoxaline-2,3-(1H,4H)-dione"], "SMILES": "N(=O)(=O)C1=C(N(=O)=O)C=C2C(=C1)NC(=O)C(=O)N2", "physical_data": {"Molecular Weight": "252.14", "Molecular Formula": "C8H4N4O6", "Melting Point": "&gt;360 \u00b0C"}}