{"cas_no": "238-84-6", "cn_name": "1,2-\u82ef\u5e76\u82b4", "en_name": ["11H-Benzo[a]fluorene", "11H-Benzo[a]fluorene", "Chrysofluorene", "1,2-Benzofluorene", "Benzo[a]fluorene", "NSC 89262"], "SMILES": "C1=2C(C=3C(C1)=CC=CC3)=CC=C4C2C=CC=C4", "physical_data": {"Molecular Weight": "216.28", "Molecular Formula": "C17H12", "Boiling Point": "399 \u00b0C", "Melting Point": "189 \u00b0C"}}