{"cas_no": "2380-91-8", "cn_name": "1-(4-\u7f9f\u57fa\u82ef)\u4e59\u9187", "en_name": ["1-(4-Hydroxyphenyl)ethanol", "Benzenemethanol, 4-hydroxy-\u03b1-methyl-", "Benzyl alcohol, p-hydroxy-\u03b1-methyl-", "4-Hydroxy-\u03b1-methylbenzenemethanol", "1-(4-Hydroxyphenyl)ethyl alcohol", "p-Hydroxy-\u03b1-methylbenzyl alcohol", "1-(4-Hydroxyphenyl)-1-ethanol", "1-(4-Hydroxyphenyl)ethanol", "p-(1-Hydroxyethyl)phenol", "(RS)-1-(4-Hydroxyphenyl)ethanol", "4-Hydroxyphenylmethylcarbinol", "4-(1-Hydroxyethyl)phenol", "1-(p-Hydroxyphenyl)ethanol", "\u03b1-Methyl(4-hydroxy)benzyl alcohol"], "SMILES": "C(C)(O)C1=CC=C(O)C=C1", "physical_data": {"Molecular Weight": "138.16", "Molecular Formula": "C8H10O2", "Melting Point": "132-133 \u00b0C"}}