{"cas_no": "2380-78-1", "cn_name": "4-\u7f9f\u57fa-3-\u7532\u6c27\u57fa\u82ef\u4e59\u9187", "en_name": ["Homovanillyl alcohol", "Benzeneethanol, 4-hydroxy-3-methoxy-", "Phenethyl alcohol, 4-hydroxy-3-methoxy-", "4-Hydroxy-3-methoxybenzeneethanol", "3-Methoxy-4-hydroxyphenethanol", "Ba 2772", "Homovanillyl alcohol", "Vanillylmethanol", "4-Hydroxy-3-methoxyphenylethanol", "2-(3-Methoxy-4-hydroxyphenyl)ethanol", "2-(4-Hydroxy-3-methoxyphenyl)ethanol", "4-(2-Hydroxyethyl)guaiacol", "Homovanillic alcohol", "4-Hydroxy-3-methoxyphenethyl alcohol", "3-Methoxy-4-hydroxyphenethyl alcohol", "4-(2-Hydroxyethyl)-2-methoxyphenol", "2-(4\u2032-Hydroxy-3\u2032-methoxyphenyl)ethanol"], "SMILES": "O(C)C1=CC(CCO)=CC=C1O", "physical_data": {"Molecular Weight": "168.19", "Molecular Formula": "C9H12O3", "Melting Point": "40-42 \u00b0C"}}