{"cas_no": "2380-86-1", "cn_name": "6-\u7f9f\u57fa\u5432\u54da", "en_name": ["6-Hydroxyindole", "1H-Indol-6-ol", "Indol-6-ol", "6-Hydroxyindole"], "SMILES": "OC=1C=C2C(=CC1)C=CN2", "physical_data": {"Molecular Weight": "133.15", "Molecular Formula": "C8H7NO", "Melting Point": "125.5 \u00b0C"}}