{"cas_no": "2380-63-4", "cn_name": "4-\u6c28\u57fa\u5421\u5511\u5e76[3,4-d]\u5627\u5576", "en_name": ["1H-Pyrazolo[3,4-d]pyrimidin-4-amine", "1H-Pyrazolo[3,4-d]pyrimidin-4-amine", "1H-Pyrazolo[3,4-d]pyrimidine, 4-amino-", "4-Aminopyrazolo[3,4-d]pyrimidine", "4-Amino-1H-pyrazolo[3,4-d]pyrimidine", "8-Aza-7-deazaadenine", "1H-Pyrazolo[3,4-d]pyrimidin-4-ylamine", "NSC 1393", "7-Deaza-8-azaadenine", "7-Deaza-8-aza-adenine"], "SMILES": "NC1=C2C(=NC=N1)NN=C2", "physical_data": {"Molecular Weight": "135.13", "Molecular Formula": "C5H5N5", "Melting Point": "353-356 \u00b0C"}}