{"cas_no": "2380-36-1", "cn_name": "3,5-\u4e8c\u53d4\u4e01\u57fa\u82ef\u80fa", "en_name": ["3,5-Bis(1,1-dimethylethyl)benzenamine", "Benzenamine, 3,5-bis(1,1-dimethylethyl)-", "Aniline, 3,5-di-tert-butyl-", "3,5-Bis(1,1-dimethylethyl)benzenamine", "3,5-Di-tert-butylaniline", "(3,5-Di-tert-butylphenyl)amine", "3,5-Bis-tert-butylbenzeneamine", "3,5-Di(1,1-dimethylethyl)aniline", "3,5-Ditert-butylaniline"], "SMILES": "C(C)(C)(C)C1=CC(C(C)(C)C)=CC(N)=C1", "physical_data": {"Molecular Weight": "205.34", "Molecular Formula": "C14H23N", "Melting Point": "56 \u00b0C"}}