{"cas_no": "23806-24-8", "cn_name": "3-\u7532\u57fa\u567b\u5429-2-\u7fa7\u9178", "en_name": ["3-Methyl-2-thiophenecarboxylic acid", "2-Thiophenecarboxylic acid, 3-methyl-", "3-Methyl-2-thiophenecarboxylic acid", "2-Carboxy-3-methylthiophene"], "SMILES": "C(O)(=O)C1=C(C)C=CS1", "physical_data": {"Molecular Weight": "142.18", "Molecular Formula": "C6H6O2S", "Melting Point": "144 \u00b0C"}}