{"cas_no": "2380-94-1", "cn_name": "4-\u7f9f\u57fa\u5432\u54da", "en_name": ["1H-Indol-4-ol", "1H-Indol-4-ol", "Indol-4-ol", "4-Hydroxyindole", "4-Hydroxy-1H-indole"], "SMILES": "OC1=C2C(=CC=C1)NC=C2", "physical_data": {"Molecular Weight": "133.15", "Molecular Formula": "C8H7NO", "Boiling Point": "100 \u00b0C @ Press: 0.01 Torr", "Melting Point": "100 \u00b0C"}}