{"cas_no": "2381-85-3", "cn_name": "\u5c3c\u7f57\u5170", "en_name": ["Nile Blue", "Benzo[a]phenoxazin-7-ium, 5-amino-9-(diethylamino)-, chloride (1:1)", "Nile Blue", "C.I. Basic Blue 12", "Benzo[a]phenoxazin-7-ium, 5-amino-9-(diethylamino)-, chloride", "C.I. 51180", "Nile blue base", "Nile blue chloride", "Nile Blue AX", "Cresol Fast Violet", "Cresyl Fast Violet", "Nile Blue BX", "LC 6900", "9-N,N-Diethylamino-5-iminobenzo[a]phenoxazine monohydrochloride", "TG 18"], "SMILES": "NC1=C2C(=C3C([O+]=C4C(=N3)C=CC(N(CC)CC)=C4)=C1)C=CC=C2.[Cl-]", "physical_data": {"Molecular Weight": "", "Molecular Formula": "C20H20N3O.Cl", "Melting Point": "&gt;300 \u00b0C"}}