{"cas_no": "2381-21-7", "cn_name": "1-\u7532\u57fa\u8298", "en_name": ["1-Methylpyrene", "Pyrene, 1-methyl-", "1-Methylpyrene", "3-Methylpyrene", "NSC 90776"], "SMILES": "CC1=C2C3=C4C(C=C2)=CC=CC4=CC=C3C=C1", "physical_data": {"Molecular Weight": "216.28", "Molecular Formula": "C17H12", "Melting Point": "70-71 \u00b0C"}}