{"cas_no": "23811-08-7", "cn_name": "\u8305\u82cd\u672f\u9187", "en_name": ["Hinesol", "Spiro[4.5]dec-6-ene-2-methanol, \u03b1,\u03b1,6,10-tetramethyl-, (2R,5S,10S)-", "Hinesol", "Spiro[4.5]dec-6-ene-2-methanol, \u03b1,\u03b1,6,10-tetramethyl-, [2R-[2\u03b1,5\u03b1(S*)]]-", "(2R,5S,10S)-\u03b1,\u03b1,6,10-Tetramethylspiro[4.5]dec-6-ene-2-methanol", "(-)-Hinesol"], "SMILES": "CC1C2(CC(C(C)(C)O)CC2)C(C)=CCC1", "physical_data": {"Molecular Weight": "222.37", "Molecular Formula": "C15H26O", "Boiling Point": "129 \u00b0C @ Press: 4 Torr", "Melting Point": "59-60 \u00b0C", "Density": "0.972 g/cm\u00b3 @ Temp: 4 \u00b0C"}}