{"cas_no": "2382-96-9", "cn_name": "2-\u5def\u57fa\u82ef\u5e76\u6076\u5511", "en_name": ["2-Mercaptobenzoxazole", "2(3H)-Benzoxazolethione", "2-Benzoxazolethiol", "2-Benzoxazolinethione", "Benzoxazole, 2-mercapto-", "2-Mercaptobenzoxazole", "Benzoxazolinethione", "2-Mercapto-1,3-benzoxazole", "2-Benzoxazolethione", "2-Benzoxazolylthiol", "2,3-Dihydrobenzoxazole-2-thione", "1,3-Benzoxazole-2(3H)-thione", "1,3-Benzoxazoline-2-thione", "NSC 209084", "NSC 2128", "1,3-Benzoxazole-2-thiol", "MBO", "3H-Benzoxazole-2-thione", "Benzo[d]oxazole-2-thiol", "2,3-Dihydro-1,3-benzoxazole-2-thione", "2-Mercaptobenzo[d]oxazole"], "SMILES": "S=C1NC=2C(O1)=CC=CC2", "physical_data": {"Molecular Weight": "151.19", "Molecular Formula": "C7H5NOS", "Melting Point": "196 \u00b0C"}}