{"cas_no": "2382-43-6", "cn_name": "2-\u7f9f\u4e19\u57fa\u4e09\u7532\u57fa\u6c2f\u5316\u94f5", "en_name": ["(2-Hydroxypropyl)trimethylammonium chloride", "1-Propanaminium, 2-hydroxy-N,N,N-trimethyl-, chloride (1:1)", "Ammonium, (2-hydroxypropyl)trimethyl-, chloride", "1-Propanaminium, 2-hydroxy-N,N,N-trimethyl-, chloride", "(2-Hydroxypropyl)trimethylammonium chloride", "\u03b2-Methylcholine chloride", "\u03b2-Hydroxypropyltrimethylammonium chloride"], "SMILES": "C([N+](C)(C)C)C(C)O.[Cl-]", "physical_data": {"Molecular Weight": "", "Molecular Formula": "C6H16NO.Cl", "Melting Point": "165 \u00b0C"}}