{"cas_no": "23828-92-4", "cn_name": "\u76d0\u9178\u6c28\u6eb4\u7d22", "en_name": ["Ambroxol hydrochloride", "Cyclohexanol, 4-[[(2-amino-3,5-dibromophenyl)methyl]amino]-, hydrochloride (1:1), trans-", "Cyclohexanol, 4-[(2-amino-3,5-dibromobenzyl)amino]-, hydrochloride, trans-", "Cyclohexanol, 4-[[(2-amino-3,5-dibromophenyl)methyl]amino]-, monohydrochloride, trans-", "trans-4-[(2-Amino-3,5-dibromobenzyl)amino]cyclohexanol hydrochloride", "N-(trans-4-Hydroxycyclohexyl)-2-amino-3,5-dibromobenzylamine hydrochloride", "Ambroxol hydrochloride", "Mucolear", "Mucosolvan", "Surbronc", "Mucolin", "Ambril", "Lindoxyl", "Muco-Burg", "Mucovent", "Stas-Hustenloser", "Mucofar", "Abramen", "Solvolan", "Mucasan", "Surfactal", "Fluibron", "Motosol", "Pect", "Frenopect", "Duramucal", "Mucoclear", "Fluixol", "Bronchopront", "Coughnol", "Ambron", "Ambrodil", "Mucolite", "Mucosal", "Ambrolite", "Ambroterol"], "SMILES": "C(NC1CCC(O)CC1)C2=C(N)C(Br)=CC(Br)=C2.Cl", "physical_data": {"Molecular Weight": "", "Molecular Formula": "C13H18Br2N2O.ClH", "Melting Point": "233-234.5 \u00b0C (decomp)"}}