{"cas_no": "2382-79-8", "cn_name": "N-\u4e59\u9170\u57fa-L-\u8272\u6c28\u9178\u80fa", "en_name": ["N-Acetyl-L-tryptophanamide", "1H-Indole-3-propanamide, \u03b1-(acetylamino)-, (\u03b1S)-", "Indole-3-propionamide, \u03b1-acetamido-, L-", "1H-Indole-3-propanamide, \u03b1-(acetylamino)-, (S)-", "(\u03b1S)-\u03b1-(Acetylamino)-1H-indole-3-propanamide", "Acetyltryptophanamide", "(+)-2-Acetamido-3-(indol-3-yl)propionamide", "N-L-Acetyltryptophanamide", "N-Acetyl-L-tryptophanamide", "NAWA", "(\u03b1S)-N-Acetyl-tryptophan amide", "(2S)-2-Acetamido-3-(1H-indol-3-yl)propanamide"], "SMILES": "C(C(NC(C)=O)C(N)=O)C=1C=2C(NC1)=CC=CC2", "physical_data": {"Molecular Weight": "245.28", "Molecular Formula": "C13H15N3O2", "Melting Point": "193-194 \u00b0C"}}