{"cas_no": "2382-80-1", "cn_name": "N-\u4e59\u9170-L-\u8272\u6c28\u9178\u4e59\u916f", "en_name": ["N-Acetyl-L-tryptophan ethyl ester", "L-Tryptophan, N-acetyl-, ethyl ester", "Tryptophan, N-acetyl-, ethyl ester, L-", "N-Acetyl-L-tryptophan ethyl ester", "Acetyl-L-tryptophan ethyl ester", "N-Acetyltryptophan ethyl ester", "N\u03b1-Acetyl-L-tryptophan ethyl ester", "N-Acetyltryptophan O-ethyl ester", "Ac-Trp-OEt"], "SMILES": "C(C(C(OCC)=O)NC(C)=O)C=1C=2C(NC1)=CC=CC2", "physical_data": {"Molecular Weight": "274.32", "Molecular Formula": "C15H18N2O3", "Melting Point": "106 \u00b0C"}}