{"cas_no": "23834-14-2", "cn_name": "7-\u6c2f-4-\u80bc\u57fa\u55b9\u5549", "en_name": ["7-Chloro-4-hydrazinylquinoline", "Quinoline, 7-chloro-4-hydrazinyl-", "Quinoline, 7-chloro-4-hydrazino-", "7-Chloro-4-hydrazinylquinoline", "4-Hydrazino-7-chloroquinoline", "7-Chloro-4-hydrazinoquinoline", "NSC 10802", "(7-Chloroquinolin-4-yl)hydrazine"], "SMILES": "N(N)C=1C2=C(C=C(Cl)C=C2)N=CC1", "physical_data": {"Molecular Weight": "193.63", "Molecular Formula": "C9H8ClN3", "Melting Point": "220-221 \u00b0C"}}