{"cas_no": "23843-64-3", "cn_name": "3-\u8132\u4e19\u57fa\u4e09\u7532\u6c27\u57fa\u7845\u70f7", "en_name": ["Ureidopropyltrimethoxysilane", "Urea, N-[3-(trimethoxysilyl)propyl]-", "Urea, [3-(trimethoxysilyl)propyl]-", "N-[3-(Trimethoxysilyl)propyl]urea", "\u03b3-Ureidopropyltrimethoxysilane", "Ureidopropyltrimethoxysilane", "3-Ureidopropyltrimethoxysilane", "Y 11542", "Silquest Y 11542", "Unisil 17", "A 1524", "Silquest A 1524", "U 17 (silane)", "U 17", "A 11542", "1-[3-(Trimethoxysilyl)propyl]urea", "Geniosil GF 98", "Dynasylan 2201", "SIU 9058.0", "KBM 585", "KH 596", "3-Trimethoxysilylpropylurea", "Y 11468", "SCA-U 60M", "KH 593", "KH 152", "CG-A 116"], "SMILES": "[Si](CCCNC(N)=O)(OC)(OC)OC", "physical_data": {"Molecular Weight": "222.31", "Molecular Formula": "C7H18N2O4Si", "Boiling Point": "217-225 \u00b0C", "Density": "1.150 g/cm\u00b3"}}