{"cas_no": "23853-10-3", "cn_name": "1-\u54cc\u5576\u4e59\u9178\u4e59\u916f", "en_name": ["1-Piperidineacetic acid, ethyl ester", "1-Piperidineacetic acid, ethyl ester", "Ethyl N-piperidinylacetate", "Ethyl piperidinoacetate", "Ethyl 1-piperidineacetate", "Piperidin-1-ylacetic acid ethyl ester", "Ethyl 2-(piperidin-1-yl)acetate"], "SMILES": "C(C(OCC)=O)N1CCCCC1", "physical_data": {"Molecular Weight": "171.24", "Molecular Formula": "C9H17NO2", "Boiling Point": "103 \u00b0C @ Press: 12 Torr"}}