{"cas_no": "2385-85-5", "cn_name": "\u706d\u8681\u7075", "en_name": ["Mirex", "1,3,4-Metheno-1H-cyclobuta[cd]pentalene, 1,1a,2,2,3,3a,4,5,5,5a,5b,6-dodecachlorooctahydro-", "1,3,4-Metheno-1H-cyclobuta[cd]pentalene, dodecachlorooctahydro-", "1,1a,2,2,3,3a,4,5,5,5a,5b,6-Dodecachlorooctahydro-1,3,4-metheno-1H-cyclobuta[cd]pentalene", "GC 1283", "ENT 25719", "Mirex", "Perchloropentacyclo[5.2.1.02,6.03,9.05,8]decane", "1,3-Cyclopentadiene, 1,2,3,4,5,5-hexachloro-, dimer", "Dechlorane", "Hexachlorocyclopentadiene dimer", "Perchloropentacyclodecane", "Perchlorodihomocubane", "Dodecachlorooctahydro-1,3,4-metheno-2H-cyclobuta[cd]pentalene", "Dechlorane 4070", "Paramex", "Dodecachlor", "Dodecaclor", "Perchloropentacyclo[5.3.0.02,6.03,9.04,8]decane", "NSC 124102", "NSC 26107", "NSC 37656", "Perchlorodecone", "MeSH ID: D008917"], "SMILES": "ClC12C3(Cl)C4(Cl)C(Cl)(Cl)C1(Cl)C5(Cl)C2(Cl)C(Cl)(Cl)C3(Cl)C45Cl", "physical_data": {"Molecular Weight": "545.54", "Molecular Formula": "C10Cl12", "Melting Point": "485 \u00b0C"}}