{"cas_no": "2385-77-5", "cn_name": "-(+)-\u9999\u8305\u919b", "en_name": ["(R)-Citronellal", "6-Octenal, 3,7-dimethyl-, (3R)-", "6-Octenal, 3,7-dimethyl-, (R)-", "(3R)-3,7-Dimethyl-6-octenal", "(+)-Citronellal", "d-Citronellal", "(R)-(+)-Citronellal", "(R)-Citronellal", "(R)-3,7-Dimethyl-6-octenal", "D-Citronellal", "Citronellal CP", "(3R)-3,7-Dimethyloct-6-enal", "(R)-(+)-Citronellal"], "SMILES": "C(CCC=C(C)C)(CC=O)C", "physical_data": {"Molecular Weight": "154.25", "Molecular Formula": "C10H18O", "Boiling Point": "207 \u00b0C", "Melting Point": "&lt;25 \u00b0C", "Density": "1.0124 g/cm\u00b3 @ Temp: 25.00 \u00b0C"}}