{"cas_no": "23856-21-5", "cn_name": "1-\u82c4\u57fa-1H-\u5432\u5511-5-\u80fa", "en_name": ["1-(Phenylmethyl)-1H-indazol-5-amine", "1H-Indazol-5-amine, 1-(phenylmethyl)-", "1H-Indazole, 5-amino-1-benzyl-", "1-(Phenylmethyl)-1H-indazol-5-amine", "5-Amino-1-benzyl-1H-indazole", "1-Benzyl-1H-indazol-5-ylamine", "5-Amino-1-benzylindazole", "1-Benzyl-1H-indazol-5-amine", "1-Benzylindazol-5-amine", "1-Benzyl-5-amino-1H-Indazole"], "SMILES": "C(N1C=2C(C=N1)=CC(N)=CC2)C3=CC=CC=C3", "physical_data": {"Molecular Weight": "223.27", "Molecular Formula": "C14H13N3", "Melting Point": "147-148 \u00b0C"}}