{"cas_no": "23851-84-5", "cn_name": "4-\u7f9f\u57fa-8-\u4e09\u6c1f\u7532\u57fa\u55b9\u5549-3-\u7532\u9178\u4e59\u916f", "en_name": ["3-Quinolinecarboxylic acid, 4-hydroxy-8-(trifluoromethyl)-, ethyl ester", "3-Quinolinecarboxylic acid, 4-hydroxy-8-(trifluoromethyl)-, ethyl ester", "Ethyl 4-hydroxy-8-(trifluoromethyl)-3-quinolinecarboxylate", "NSC 103777", "4-Hydroxy-8-(trifluoromethyl)-3-quinolinecarboxylic Acid Ethyl Ester"], "SMILES": "C(F)(F)(F)C=1C2=C(C(O)=C(C(OCC)=O)C=N2)C=CC1", "physical_data": {"Molecular Weight": "285.22", "Molecular Formula": "C13H10F3NO3", "Melting Point": "216 \u00b0C"}}