{"cas_no": "2386-60-9", "cn_name": "1-\u4e01\u57fa\u78fa\u9170\u6c2f", "en_name": ["Butanesulfonyl chloride", "1-Butanesulfonyl chloride", "Butanesulfonyl chloride", "Butylsulfonyl chloride", "1-Butylsulfonyl chloride", "n-Butanesulfonyl chloride", "n-Butylsulfonyl chloride", "NSC 8027"], "SMILES": "C(S(Cl)(=O)=O)CCC", "physical_data": {"Molecular Weight": "156.63", "Molecular Formula": "C4H9ClO2S", "Boiling Point": "90 \u00b0C", "Melting Point": "-29 \u00b0C", "Density": "1.2404 g/cm\u00b3 @ Temp: 0 \u00b0C"}}