{"cas_no": "2386-26-7", "cn_name": "3-\u4e59\u9170-2,4-\u4e8c\u7532\u57fa-5\u4e59\u6c27\u7fb0\u57fa\u5421\u54af", "en_name": ["1H-Pyrrole-2-carboxylic acid, 4-acetyl-3,5-dimethyl-, ethyl ester", "1H-Pyrrole-2-carboxylic acid, 4-acetyl-3,5-dimethyl-, ethyl ester", "Pyrrole-2-carboxylic acid, 4-acetyl-3,5-dimethyl-, ethyl ester", "Ethyl-4-acetyl-3,5-dimethylpyrrole-2-carboxylate", "NSC 10765", "Ethyl 4-acetyl-3,5-dimethyl-1H-pyrrole-2-carboxylate", "3-Acetyl-2,4-dimethyl-5-carbethoxypyrrole"], "SMILES": "C(OCC)(=O)C1=C(C)C(C(C)=O)=C(C)N1", "physical_data": {"Molecular Weight": "209.24", "Molecular Formula": "C11H15NO3", "Melting Point": "143 \u00b0C"}}