{"cas_no": "2386-25-6", "cn_name": "2,4-\u4e8c\u7532\u57fa-3-\u4e59\u9170\u57fa\u5421\u54af", "en_name": ["1-(2,4-Dimethyl-1H-pyrrol-3-yl)ethanone", "Ethanone, 1-(2,4-dimethyl-1H-pyrrol-3-yl)-", "Ketone, 2,4-dimethylpyrrol-3-yl methyl", "1-(2,4-Dimethyl-1H-pyrrol-3-yl)ethanone", "2,4-Dimethyl-3-acetylpyrrole", "3-Acetyl-2,4-dimethylpyrrole", "2,4-Dimethylpyrrol-3-yl methyl ketone", "NSC 10759", "1-(2,4-Dimethyl-1-hydro-pyrrol-3-yl)ethanone", "3-Acetyl-2,4-dimethyl-1H-pyrrole", "1-(2,4-Dimethyl-1H-pyrrol-3-yl)ethan-1-one"], "SMILES": "C(C)(=O)C=1C(C)=CNC1C", "physical_data": {"Molecular Weight": "137.18", "Molecular Formula": "C8H11NO", "Boiling Point": "170-173 \u00b0C @ Press: 12 Torr", "Melting Point": "139 \u00b0C"}}