{"cas_no": "2386-33-6", "cn_name": "4-\u4e59\u9170\u57fa-3,5-\u4e8c\u7532\u57fa-2-\u5421\u54af\u7fa7\u9178", "en_name": ["3-Acetyl-4,5-dimethyl-1H-pyrrole-2-carboxylic acid", "1H-Pyrrole-2-carboxylic acid, 3-acetyl-4,5-dimethyl-", "Pyrrole-2-carboxylic acid, 3-acetyl-4,5-dimethyl-", "3-Acetyl-4,5-dimethyl-1H-pyrrole-2-carboxylic acid"], "SMILES": "C(C)(=O)C1=C(C(O)=O)NC(C)=C1C", "physical_data": {"Molecular Weight": "181.19", "Molecular Formula": "C9H11NO3", "Melting Point": "204 \u00b0C"}}