{"cas_no": "2386-56-3", "cn_name": "\u7532\u57fa\u78fa\u9178\u94be", "en_name": ["Potassium methanesulfonate", "Methanesulfonic acid, potassium salt (1:1)", "Methanesulfonic acid, potassium salt", "Potassium methanesulfonate", "Potassium methylsulfonate", "Potassium mesylate"], "SMILES": "S(C)(=O)(=O)O.[K]", "physical_data": {"Molecular Weight": "", "Molecular Formula": "CH4O3S.K", "Melting Point": "&gt;360 \u00b0C"}}