{"cas_no": "2386-64-3", "cn_name": "\u4e59\u57fa\u6c2f\u5316\u9541", "en_name": ["Ethylmagnesium chloride", "Magnesium, chloroethyl-", "Ethylmagnesium chloride", "Chloroethylmagnesium"], "SMILES": "C([Mg]Cl)C", "physical_data": {"Molecular Weight": "", "Molecular Formula": "C2H5ClMg", "Boiling Point": "136-138 \u00b0C @ Press: 13 Torr"}}