{"cas_no": "2386-52-9", "cn_name": "\u7532\u70f7\u78fa\u9178\u94f6", "en_name": ["Silver methanesulfonate", "Methanesulfonic acid, silver(1+) salt (1:1)", "Methanesulfonic acid, silver(1+) salt", "Silver methylsulfonate", "Silver methanesulfonate", "Silver(I) methanesulfonate", "Silver mesylate", "Dain Silver MEC"], "SMILES": "S(C)(=O)(=O)O.[Ag]", "physical_data": {"Molecular Weight": "", "Molecular Formula": "CH4O3S.Ag", "Melting Point": "263 \u00b0C"}}