{"cas_no": "2386-47-2", "cn_name": "1-\u4e01\u78fa\u9178", "en_name": ["Butanesulfonic acid", "1-Butanesulfonic acid", "Butanesulfonic acid"], "SMILES": "C(S(=O)(=O)O)CCC", "physical_data": {"Molecular Weight": "138.19", "Molecular Formula": "C4H10O3S", "Boiling Point": "147 \u00b0C", "Melting Point": "-15.2 \u00b0C", "Density": "1.227 g/cm\u00b3 @ Temp: 25 \u00b0C"}}