{"cas_no": "2386-53-0", "cn_name": "\u5341\u4e8c\u70f7\u57fa\u78fa\u9178\u94a0", "en_name": ["Sodium dodecylsulfonate", "1-Dodecanesulfonic acid, sodium salt (1:1)", "1-Dodecanesulfonic acid, sodium salt", "Dodecanesulfonic acid, sodium salt", "Sodium laurylsulfonate", "Sodium dodecylsulfonate", "Sodium dodecanesulfonate", "Perlan Alb", "Sodium 1-dodecanesulfonate", "Dodecyl sodium sulfonate", "Laurylsulfonic acid sodium salt", "Sodium n-dodecylsulfonate", "Dodecylsulfonic acid sodium salt", "n-Dodecylsulfonic acid sodium salt", "Calsoft SLS 30", "Acme SLS", "AS", "Emal 2FG", "P 30 (surfactant)", "P 30", "Stepanol PCK", "CP 20", "CP 20 (emulsifier)", "DSS", "H 95"], "SMILES": "C(CCCCCCCCC)CCS(=O)(=O)O.[Na]", "physical_data": {"Molecular Weight": "", "Molecular Formula": "C12H26O3S.Na", "Melting Point": "&gt;300 \u00b0C"}}