{"cas_no": "2386-57-4", "cn_name": "\u7532\u57fa\u78fa\u9178\u94a0", "en_name": ["Sodium methanesulfonate", "Methanesulfonic acid, sodium salt (1:1)", "Methanesulfonic acid, sodium salt", "Sodium methanesulfonate", "Sodium methylsulfonate", "Sodium mesylate"], "SMILES": "S(C)(=O)(=O)O.[Na]", "physical_data": {"Molecular Weight": "", "Molecular Formula": "CH4O3S.Na", "Melting Point": "345 \u00b0C"}}