{"cas_no": "2387-23-7", "cn_name": "N,N-\u4e8c\u73af\u5df1\u8132", "en_name": ["N,N\u2032-Dicyclohexylurea", "Urea, N,N\u2032-dicyclohexyl-", "Urea, 1,3-dicyclohexyl-", "N,N\u2032-Dicyclohexylurea", "1,3-Dicyclohexylurea", "Dicyclohexylcarbodiamide", "NSC 17013", "NSC 30023", "DCU"], "SMILES": "N(C(NC1CCCCC1)=O)C2CCCCC2", "physical_data": {"Molecular Weight": "224.34", "Molecular Formula": "C13H24N2O", "Melting Point": "229-230 \u00b0C"}}