{"cas_no": "2387-20-4", "cn_name": "1-(2-\u6c2f\u4e59\u57fa)-2-\u54aa\u5511\u5549\u916e", "en_name": ["1-(2-Chloroethyl)-2-imidazolidinone", "2-Imidazolidinone, 1-(2-chloroethyl)-", "1-(2-Chloroethyl)-2-imidazolidinone", "N-(\u03b2-Chloroethyl)-N,N\u2032-ethyleneurea", "N-(2-Chloroethyl)imidazolidinone", "1-(2-Chloroethyl)imidazolidine-2-one", "NSC 76791"], "SMILES": "C(CCl)N1C(=O)NCC1", "physical_data": {"Molecular Weight": "148.59", "Molecular Formula": "C5H9ClN2O", "Melting Point": "85 \u00b0C"}}