{"cas_no": "23876-15-5", "cn_name": "2-\u7532\u57fa-3-\u785d\u57fa\u82ef\u4e59\u9178", "en_name": ["2-Methyl-3-nitrobenzeneacetic acid", "Benzeneacetic acid, 2-methyl-3-nitro-", "Acetic acid, (3-nitro-o-tolyl)-", "2-Methyl-3-nitrobenzeneacetic acid", "2-(2-Methyl-3-nitrophenyl)acetic acid", "2-Methyl-3-nitrophenylacetic acid"], "SMILES": "N(=O)(=O)C1=C(C)C(CC(O)=O)=CC=C1", "physical_data": {"Molecular Weight": "195.17", "Molecular Formula": "C9H9NO4", "Melting Point": "118 \u00b0C"}}