{"cas_no": "23877-12-5", "cn_name": "2-\u6eb4\u4ee3\u5f02\u4e01\u9178\u53d4\u4e01\u916f", "en_name": ["1,1-Dimethylethyl 2-bromo-2-methylpropanoate", "Propanoic acid, 2-bromo-2-methyl-, 1,1-dimethylethyl ester", "Propionic acid, 2-bromo-2-methyl-, tert-butyl ester", "1,1-Dimethylethyl 2-bromo-2-methylpropanoate", "tert-Butyl \u03b1-bromoisobutyrate", "tert-Butyl 2-bromo-2-methylpropionate", "tert-Butyl 2-bromoisobutyrate", "2-Bromo-2-methylpropionic acid tert-butyl ester", "2-Bromo-2-methylpropanoic acid tert-butyl ester", "2-Bromoisobutyric acid tert-butyl ester", "2-Bromo-2-methylpropanoic acid tert-butyl ester", "tert-Butyl 2-bromo-2-methylpropanoate", "tert-Butyl 2-bromo-2,2-dimethylacetate", "2-Bromoisobutyric acid tert-butyl ester"], "SMILES": "C(OC(C)(C)C)(C(Br)(C)C)=O", "physical_data": {"Molecular Weight": "223.11", "Molecular Formula": "C8H15BrO2", "Boiling Point": "35-37 \u00b0C @ Press: 1.0 Torr"}}