{"cas_no": "23873-81-6", "cn_name": "\u4e8c\u8054\u82ef\u4e59\u4e8c\u919b\u809f", "en_name": ["Diphenylglyoxime", "1,2-Ethanedione, 1,2-diphenyl-, 1,2-dioxime", "Benzil, dioxime", "Ethanedione, diphenyl-, dioxime", "Glyoxime, diphenyl-", "Benzil oxime", "Diphenylglyoxime", "Dibenzoyl dioxime", "NSC 4042"], "SMILES": "C(C(=NO)C1=CC=CC=C1)(=NO)C2=CC=CC=C2", "physical_data": {"Molecular Weight": "240.26", "Molecular Formula": "C14H12N2O2", "Melting Point": "240 \u00b0C"}}