{"cas_no": "23876-13-3", "cn_name": "2-\u7532\u57fa-3-\u785d\u57fa\u82ef\u7532\u9187", "en_name": ["2-Methyl-3-nitrobenzenemethanol", "Benzenemethanol, 2-methyl-3-nitro-", "Benzyl alcohol, 2-methyl-3-nitro-", "2-Methyl-3-nitrobenzenemethanol", "2-Methyl-3-nitrobenzyl alcohol", "3-Hydroxymethyl-2-methyl-1-nitrobenzene", "(2-Methyl-3-nitrophenyl)methanol"], "SMILES": "N(=O)(=O)C1=C(C)C(CO)=CC=C1", "physical_data": {"Molecular Weight": "167.16", "Molecular Formula": "C8H9NO3", "Melting Point": "66-68 \u00b0C"}}