{"cas_no": "23885-43-0", "cn_name": "ZAPOTERIN", "en_name": ["(1S,3aS,4aR,4bR,6aR,11aR,11bR,12S,13aS)-1-(3-Furanyl)-1,6a,7,11a,11b,12,13,13a-octahydro-12-hydroxy-4b,7,7,11a,13a-pentamethyloxireno[4,4a]-2-benzopyrano[6,5-g][2]benzoxepin-3,5,9(3aH,4bH,6H)-trione", "Oxireno[4,4a]-2-benzopyrano[6,5-g][2]benzoxepin-3,5,9(3aH,4bH,6H)-trione, 1-(3-furanyl)-1,6a,7,11a,11b,12,13,13a-octahydro-12-hydroxy-4b,7,7,11a,13a-pentamethyl-, (1S,3aS,4aR,4bR,6aR,11aR,11bR,12S,13aS)-", "Oxireno[4,4a]-2-benzopyrano[6,5-g][2]benzoxepin-3,5,9(3a\u03b1H,4bH,6H)-trione, 1\u03b1-(3-furyl)-1,6a\u03b1,7,11a,11b\u03b1,12,13,13a-octahydro-12\u03b2-hydroxy-4b\u03b2,7,7,11a\u03b2,13a\u03b1-pentamethyl-", "Obacunoic acid, 11-hydroxy-, 3,4-lactone, (11\u03b2)-", "(1S,3aS,4aR,4bR,6aR,11aR,11bR,12S,13aS)-1-(3-Furanyl)-1,6a,7,11a,11b,12,13,13a-octahydro-12-hydroxy-4b,7,7,11a,13a-pentamethyloxireno[4,4a]-2-benzopyrano[6,5-g][2]benzoxepin-3,5,9(3aH,4bH,6H)-trione", "Zapoterin", "Oxireno[4,4a]-2-benzopyrano[6,5-g][2]benzoxepin-3,5,9(3aH,4bH,6H)-trione, 1-(3-furanyl)-1,6a,7,11a,11b,12,13,13a-octahydro-12-hydroxy-4b,7,7,11a,13a-pentamethyl-, [1R-(1\u03b1,3a\u03b1,4aR*,4b\u03b2,6a\u03b1,11a\u03b2,11b\u03b1,12\u03b2,13a\u03b1)]-", "11\u03b2-Hydroxyobacunone"], "SMILES": "CC12C34C(O3)C(=O)OC(C4(C)CC(O)C1C5(C)C(CC2=O)C(C)(C)OC(=O)C=C5)C=6C=COC6", "physical_data": {"Molecular Weight": "470.51", "Molecular Formula": "C26H30O8", "Melting Point": "257-259 \u00b0C"}}