{"cas_no": "2388-32-1", "cn_name": "2-\u6c2f\u55b9\u5549-4-\u7532\u9170\u6c2f", "en_name": ["2-Chloro-4-quinolinecarbonyl chloride", "4-Quinolinecarbonyl chloride, 2-chloro-", "Cinchoninoyl chloride, 2-chloro-", "2-Chloro-4-quinolinecarbonyl chloride"], "SMILES": "C(Cl)(=O)C=1C2=C(N=C(Cl)C1)C=CC=C2", "physical_data": {"Molecular Weight": "226.06", "Molecular Formula": "C10H5Cl2NO", "Boiling Point": "170 \u00b0C @ Press: 1.0 Torr", "Melting Point": "89 \u00b0C"}}