{"cas_no": "2388-74-1", "cn_name": "3-\u7532\u6c27\u57fa\u8334\u9999\u786b\u919a", "en_name": ["3-Methoxythioanisole", "Benzene, 1-methoxy-3-(methylthio)-", "Anisole, m-(methylthio)-", "1-Methoxy-3-(methylthio)benzene", "m-Anisyl methyl sulfide", "3-(Methylthio)anisole", "m-Methoxyphenyl methyl sulfide", "3-Methoxythioanisole", "3-(Methylthio)-1-methoxybenzene", "Methyl m-methoxyphenyl sulfide", "3-Methoxyphenyl methyl sulfide", "Methyl 3-methoxyphenyl sulfide", "NSC 133794", "1-Methoxy-3-methylsulfanylbenzene", "1-Methoxy-3-(methylsulfanyl)benzene", "1-Methoxy-3-methylsulfanyl-benzene", "(3-Methoxyphenyl)(methyl)sulfane"], "SMILES": "O(C)C1=CC(SC)=CC=C1", "physical_data": {"Molecular Weight": "154.23", "Molecular Formula": "C8H10OS", "Boiling Point": "116 \u00b0C @ Press: 15 Torr"}}