{"cas_no": "23886-71-7", "cn_name": "4-\u7532\u6c27\u57fa-4'-\u7532\u57fa\u4e8c\u82ef\u7532\u916e", "en_name": ["4-Methoxy-4\u2032-methylbenzophenone", "Methanone, (4-methoxyphenyl)(4-methylphenyl)-", "Benzophenone, 4-methoxy-4\u2032-methyl-", "(4-Methoxyphenyl)(4-methylphenyl)methanone", "4-Methoxy-4\u2032-methylbenzophenone", "4-Methyl-4\u2032-methoxybenzophenone", "4-Methoxyphenyl 4-methylphenyl ketone", "(4-Methoxyphenyl)(4-tolyl)methanone", "NSC 163357", "(4-Methoxyphenyl)(p-tolyl)methanone"], "SMILES": "C(=O)(C1=CC=C(OC)C=C1)C2=CC=C(C)C=C2", "physical_data": {"Molecular Weight": "226.27", "Molecular Formula": "C15H14O2", "Melting Point": "92 \u00b0C"}}