{"cas_no": "2389-48-2", "cn_name": "N-Boc-L-\u8d56\u6c28\u9178\u7532\u916f\u76d0\u9178\u76d0", "en_name": ["L-Lysine, N6-[(1,1-dimethylethoxy)carbonyl]-, methyl ester, hydrochloride (1:1)", "L-Lysine, N6-[(1,1-dimethylethoxy)carbonyl]-, methyl ester, hydrochloride (1:1)", "Lysine, N6-carboxy-, N-tert-butyl methyl ester, monohydrochloride, L-", "L-Lysine, N6-[(1,1-dimethylethoxy)carbonyl]-, methyl ester, monohydrochloride", "N\u03b5-tert-Butoxycarbonyllysine methyl ester hydrochloride", "N\u03b5-BOC-L-lysine methyl ester hydrochloride", "Methyl (2S)-2-amino-6-[(tert-butoxycarbonyl)amino]hexanoate hydrochloride"], "SMILES": "C(NCCCCC(C(OC)=O)N)(OC(C)(C)C)=O.Cl", "physical_data": {"Molecular Weight": "", "Molecular Formula": "C12H24N2O4.ClH", "Melting Point": "158-159 \u00b0C"}}