{"cas_no": "2389-46-0", "cn_name": "BOC-LYS(Z)-\u916eP", "en_name": ["N2-[(1,1-Dimethylethoxy)carbonyl]-N6-[(phenylmethoxy)carbonyl]-L-lysine 4-nitrophenyl ester", "L-Lysine, N2-[(1,1-dimethylethoxy)carbonyl]-N6-[(phenylmethoxy)carbonyl]-, 4-nitrophenyl ester", "Lysine, N2,N6-dicarboxy-, N6-benzyl N2-tert-butyl p-nitrophenyl ester, L-", "N2-[(1,1-Dimethylethoxy)carbonyl]-N6-[(phenylmethoxy)carbonyl]-L-lysine 4-nitrophenyl ester", "N6-Benzyloxycarbonyl-N2-tert-butyloxycarbonyl-L-lysine p-nitrophenyl ester", "NSC 164051", "(4-Nitrophenyl) (2S)-2-[(2-methylpropan-2-yl)oxycarbonylamino]-6-(phenylmethoxycarbonylamino)hexanoate"], "SMILES": "O(C(C(NC(OC(C)(C)C)=O)CCCCNC(OCC1=CC=CC=C1)=O)=O)C2=CC=C(N(=O)=O)C=C2", "physical_data": {"Molecular Weight": "501.53", "Molecular Formula": "C25H31N3O8", "Melting Point": "89 \u00b0C"}}