{"cas_no": "23894-12-4", "cn_name": "6-\u6c28\u57fa-1-\u8418\u915a", "en_name": ["6-Amino-1-naphthalenol", "1-Naphthalenol, 6-amino-", "1-Naphthol, 6-amino-", "6-Amino-1-naphthalenol", "2-Amino-5-naphthol", "2-Amino-5-hydroxynaphthalene", "6-Amino-1-naphthol"], "SMILES": "OC=1C2=C(C=C(N)C=C2)C=CC1", "physical_data": {"Molecular Weight": "159.18", "Molecular Formula": "C10H9NO", "Melting Point": "190.6 \u00b0C"}}