{"cas_no": "239-35-0", "cn_name": "\u5730\u6258\u54aa\u5b9a", "en_name": ["Benzo[b]naphtho[2,1-d]thiophene", "Benzo[b]naphtho[2,1-d]thiophene", "1,2-Benzo-9-thiafluorene", "Naphtho[1,2-b]thianaphthene", "NSC 89259"], "SMILES": "C1=2C(C=3C(S1)=CC=CC3)=CC=C4C2C=CC=C4", "physical_data": {"Molecular Weight": "234.32", "Molecular Formula": "C16H10S", "Melting Point": "189 \u00b0C"}}