{"cas_no": "239-01-0", "cn_name": "11H-\u82ef\u5e76[C]\u5494\u5511", "en_name": ["Benzo[a]carbazole", "11H-Benzo[a]carbazole", "11-Azachrysofluorene", "1,2-Benzocarbazole", "Benzo[a]carbazole", "NSC 403640", "NSC 60421"], "SMILES": "C1=2C(C=3C(N1)=CC=CC3)=CC=C4C2C=CC=C4", "physical_data": {"Molecular Weight": "217.27", "Molecular Formula": "C16H11N", "Melting Point": "228 \u00b0C"}}