{"cas_no": "2390-63-8", "cn_name": "\u78b1\u6027\u7ea2 11", "en_name": ["Rhodamine 3B", "Xanthylium, 3,6-bis(diethylamino)-9-[2-(ethoxycarbonyl)phenyl]-, chloride (1:1)", "Rhodamine 3B", "Ammonium, [9-(o-carboxyphenyl)-6-(diethylamino)-3H-xanthen-3-ylidene]diethyl-, chloride, ethyl ester", "Ethanaminium, N-[6-(diethylamino)-9-[2-(ethoxycarbonyl)phenyl]-3H-xanthen-3-ylidene]-N-ethyl-, chloride", "Xanthylium, 3,6-bis(diethylamino)-9-[2-(ethoxycarbonyl)phenyl]-, chloride", "[9-(o-Carboxyphenyl)-6-(diethylamino)-3H-xanthen-3-ylidene]diethylammonium chloride, ethyl ester", "C.I. 45175", "C.I. Basic Violet 11", "Rhodamine F 3B", "C.I. Basic Red 19", "Ethylrhodamine B", "Basic Violet 11", "Aizen Cathilon Brilliant Pink CD-BH", "Basonyl Red NB 560", "Rhodamine B ethyl ester"], "SMILES": "C(OCC)(=O)C1=C(C=2C3=C([O+]=C4C2C=CC(N(CC)CC)=C4)C=C(N(CC)CC)C=C3)C=CC=C1.[Cl-]", "physical_data": {"Molecular Weight": "", "Molecular Formula": "C30H35N2O3.Cl", "Melting Point": "124-127 \u00b0C"}}