{"cas_no": "2390-54-7", "cn_name": "\u786b\u9ec4\u7d20 T", "en_name": ["Thioflavin", "Benzothiazolium, 2-[4-(dimethylamino)phenyl]-3,6-dimethyl-, chloride (1:1)", "Thioflavine T", "Benzothiazolium, 2-[p-(dimethylamino)phenyl]-3,6-dimethyl-, chloride", "Benzothiazolium, 2-[4-(dimethylamino)phenyl]-3,6-dimethyl-, chloride", "2-[p-(Dimethylamino)phenyl]-3,6-dimethylbenzothiazolium chloride", "C.I. 49005", "Acronol Lake Yellow T", "Acronol Lake Yellow TC", "Acronol Yellow T", "Acronol Yellow TC", "Basic Yellow T", "Brilliant Flavine T", "Citroflavine 8G", "C.I. Basic Yellow 1", "Kansai Basic Flavine 8GO", "Methylene Yellow N", "Methylene Yellow NI", "Nankai Basic Flavine 8G", "Primoflavine 8G", "Setoflavine T", "Tannoflavine T", "Thioflavine", "Thioflavine TCN", "Thioflavine TCND", "Thioflavine TG", "Thioflavin T", "Acronol Yellow TC 180", "Setoflavin T", "3,6-Dimethyl-2-dimethylaminophenylbenzothiazolium chloride", "Rhoduline Yellow", "Purimofurabin 8G", "Basic yellow 1", "Thioflavin TCN extra", "Thioflavin TCN", "Basic Flavine 8G", "Thioflavin", "Th-T", "19: PN: US20130338076 SEQID: 187 claimed sequence", "2-(4-(Dimethylamino)phenyl)-3,6-dimethylbenzo[d]thiazol-3-ium chloride"], "SMILES": "C[N+]1=C(SC=2C1=CC=C(C)C2)C3=CC=C(N(C)C)C=C3.[Cl-]", "physical_data": {"Molecular Weight": "", "Molecular Formula": "C17H19N2S.Cl", "Melting Point": "211-212 \u00b0C (decomp)"}}