{"cas_no": "23906-97-0", "cn_name": "\u56db\u8f9b\u57fa\u6eb4\u5316\u81a6", "en_name": ["Phosphonium, tetraoctyl-, bromide (1:1)", "Phosphonium, tetraoctyl-, bromide (1:1)", "Phosphonium, tetraoctyl-, bromide", "Tetraoctylphosphonium bromide", "Cyphos IL 166", "Cyphos 166"], "SMILES": "[P+](CCCCCCCC)(CCCCCCCC)(CCCCCCCC)CCCCCCCC.[Br-]", "physical_data": {"Molecular Weight": "", "Molecular Formula": "C32H68P.Br", "Melting Point": "42.0 \u00b0C"}}