{"cas_no": "2390-09-2", "cn_name": "\u987a-11-\u4e8c\u5341\u70ef\u9178\u7532\u916f", "en_name": ["cis-11-Eicosenoic acid methyl ester", "11-Eicosenoic acid, methyl ester, (11Z)-", "11-Eicosenoic acid, methyl ester, (Z)-", "Methyl (Z)-11-eicosenoate", "Methyl 11-cis-eicosenoate", "Methyl 11(Z)-eicosenoate", "cis-11-Eicosenoic acid methyl ester"], "SMILES": "C(CCCCCC=CCCCCCCCC)CCCC(OC)=O", "physical_data": {"Molecular Weight": "324.54", "Molecular Formula": "C21H40O2", "Melting Point": "-34.0 \u00b0C"}}