{"cas_no": "2390-68-3", "cn_name": "\u53cc\u5341\u70f7\u57fa\u4e8c\u7532\u57fa\u6eb4\u5316\u94f5", "en_name": ["Didecyl dimethyl ammonium bromide", "1-Decanaminium, N-decyl-N,N-dimethyl-, bromide (1:1)", "Ammonium, didecyldimethyl-, bromide", "Didecyl dimethyl ammonium bromide", "1-Decanaminium, N-decyl-N,N-dimethyl-, bromide", "Deciquam", "DDAB", "Deciquam 222", "Bromosept", "N-Decyl-N,N-dimethyldecan-1-aminium bromide", "Bestaquam-S"], "SMILES": "C([N+](CCCCCCCCCC)(C)C)CCCCCCCCC.[Br-]", "physical_data": {"Molecular Weight": "", "Molecular Formula": "C22H48N.Br", "Melting Point": "70-74 \u00b0C"}}