{"cas_no": "23918-98-1", "cn_name": "4-(6-\u6c28\u57fa-9H-\u560c\u5464-9-\u57fa)-4-\u8131\u6c27-D-\u8d64\u916e\u9178", "en_name": ["Eritadenine", "9H-Purine-9-butanoic acid, 6-amino-\u03b1,\u03b2-dihydroxy-, (\u03b1R,\u03b2R)-", "9H-Purine-9-butanoic acid, 6-amino-\u03b1,\u03b2-dihydroxy-, [R-(R*,R*)]-", "Erythronic acid, 4-(6-amino-9H-purin-9-yl)-4-deoxy-, D-", "(\u03b1R,\u03b2R)-6-Amino-\u03b1,\u03b2-dihydroxy-9H-purine-9-butanoic acid", "Lentinacin", "Lentysine", "Eritadenine", "4-(6-Aminopurin-9-yl)-4-deoxy-D-erythronic acid", "4-(6-Amino-9H-purin-9-yl)-4-deoxy-D-erythronic acid", "4-(9-Adenyl)-D-erythro-2,3-dihydroxybutyric acid", "D-Eritadenine"], "SMILES": "C(C(C(C(O)=O)O)O)N1C=2C(N=C1)=C(N)N=CN2", "physical_data": {"Molecular Weight": "253.21", "Molecular Formula": "C9H11N5O4", "Melting Point": "279 \u00b0C"}}