{"cas_no": "23911-26-4", "cn_name": "\u4e8c\u4e9a\u4e59\u57fa\u4e09\u80fa\u4e94\u4e59\u9178\u4e8c\u9150", "en_name": ["DTPA dianhydride", "Glycine, N,N-bis[2-(2,6-dioxo-4-morpholinyl)ethyl]-", "Glycine, N,N-bis[2-(2,6-dioxomorpholino)ethyl]-", "2,6-Morpholinedione, 4,4\u2032-[[(carboxymethyl)imino]diethylene]di-", "N,N-Bis[2-(2,6-dioxo-4-morpholinyl)ethyl]glycine", "Diethylenetriaminepentaacetic dianhydride", "1,5-Bis(2,6-dioxomorpholino)-3-azapentane-3-acetic acid", "Cyclic DTPA anhydride", "DTPA anhydride", "Diethylenetriaminepentaacetic acid dianhydride", "DTPA cyclic anhydride", "Diethylenetriaminepentaacetic bisanhydride", "DTPA dianhydride", "Diethylenetriamine-N,N,N\u2032,N\u2032\u2032,N\u2032\u2032-pentaacetic acid N,N\u2032\u2032-dianhydride", "NSC 379317", "DTPAA", "Diethylenetriamine-N,N,N\u2032,N\u2032\u2032,N\u2032\u2032-pentacetic dianhydride", "2-[Bis[2-(2,6-dioxomorpholino)ethyl]amino]acetic acid", "2-[Bis[2-(2,6-dioxomorpholin-4-yl)ethyl]azaniumyl]acetate", "DTPABA"], "SMILES": "C(CN(CCN1CC(=O)OC(=O)C1)CC(O)=O)N2CC(=O)OC(=O)C2", "physical_data": {"Molecular Weight": "357.32", "Molecular Formula": "C14H19N3O8", "Melting Point": "209-211 \u00b0C"}}