{"cas_no": "2391-03-9", "cn_name": "\u53f3\u65cb\u6eb4\u82ef\u90a3\u654f\u9a6c\u6765\u9178\u76d0", "en_name": ["(+)-Brompheniramine maleate", "2-Pyridinepropanamine, \u03b3-(4-bromophenyl)-N,N-dimethyl-, (\u03b3S)-, (2Z)-2-butenedioate (1:1)", "2-Pyridinepropanamine, \u03b3-(4-bromophenyl)-N,N-dimethyl-, (S)-, (Z)-2-butenedioate (1:1)", "Pyridine, 2-[p-bromo-\u03b1-[2-(dimethylamino)ethyl]benzyl]-, maleate (1:1), (S)-", "d-2-[p-Bromo-\u03b1-(2-dimethylaminoethyl)benzyl]pyridine maleate", "1-(p-Bromophenyl)-1-(2-pyridyl)-3-dimethylamine propane maleate", "Dexbrompheniramine maleate", "Disomer maleate", "Dimegan", "Drixoral", "Disomer", "(+)-Brompheniramine maleate", "(S)-3-(4-Bromophenyl)-N,N-dimethyl-3-(pyridin-2-yl)propan-1-amine maleate"], "SMILES": "C(=CC(O)=O)C(O)=O.C(CCN(C)C)(C1=CC=C(Br)C=C1)C2=CC=CC=N2", "physical_data": {"Molecular Weight": "", "Molecular Formula": "C16H19BrN2.C4H4O4", "Melting Point": "132-134 \u00b0C"}}