{"cas_no": "2392-68-9", "cn_name": "3-\u6c2f\u5f02\u786b\u6c30\u9178\u82ef\u916f", "en_name": ["3-Chlorophenyl isothiocyanate", "Benzene, 1-chloro-3-isothiocyanato-", "Isothiocyanic acid, m-chlorophenyl ester", "1-Chloro-3-isothiocyanatobenzene", "m-Chlorophenyl isothiocyanate", "3-Chlorophenyl isothiocyanate", "NSC 132371"], "SMILES": "N(=C=S)C1=CC(Cl)=CC=C1", "physical_data": {"Molecular Weight": "169.63", "Molecular Formula": "C7H4ClNS", "Boiling Point": "249.5 \u00b0C", "Density": "1.115 g/cm\u00b3"}}