{"cas_no": "23936-60-9", "cn_name": "1,2-\u53cc(\u4e8c\u7532\u57fa\u77b5)\u4e59\u70f7", "en_name": ["1,2-Bis(dimethylphosphino)ethane", "Phosphine, 1,1\u2032-(1,2-ethanediyl)bis[1,1-dimethyl-", "Phosphine, ethylenebis[dimethyl-", "Phosphine, 1,2-ethanediylbis[dimethyl-", "1,1\u2032-(1,2-Ethanediyl)bis[1,1-dimethylphosphine]", "Dimethyl-2-(dimethylphosphino)ethylphosphine", "Ethylenebis(dimethylphosphine)", "1,2-Bis(dimethylphosphino)ethane", "DMPE", "1,2-DMPE", "[2-(Dimethylphosphanyl)ethyl]dimethylphosphane", "2-Dimethylphosphanylethyl(dimethyl)phosphane"], "SMILES": "C(CP(C)C)P(C)C", "physical_data": {"Molecular Weight": "150.14", "Molecular Formula": "C6H16P2", "Boiling Point": "26 \u00b0C @ Press: 1 Torr", "Melting Point": "0 \u00b0C"}}