{"cas_no": "23930-19-0", "cn_name": "\u963f\u6cd5\u6c99\u9f99", "en_name": ["Alphaxalone", "Pregnane-11,20-dione, 3-hydroxy-, (3\u03b1,5\u03b1)-", "5\u03b1-Pregnane-11,20-dione, 3\u03b1-hydroxy-", "(3\u03b1,5\u03b1)-3-Hydroxypregnane-11,20-dione", "3\u03b1-Hydroxy-5\u03b1-pregnane-11,20-dione", "5\u03b1-Pregnane-3\u03b1-ol-11,20-dione", "Alphaxalone", "Alfaxalone", "GR 2/234", "5\u03b1-Pregnan-3\u03b1-ol-11,20-dione", "5\u03b1-Alphaxalone", "Alfadione"], "SMILES": "CC12C3C(C4C(C)(CC3=O)C(C(C)=O)CC4)CCC1CC(O)CC2", "physical_data": {"Molecular Weight": "332.48", "Molecular Formula": "C21H32O3", "Melting Point": "172-174 \u00b0C"}}