{"cas_no": "2393-59-1", "cn_name": "\u0392-\u9f20\u80c6\u9178", "en_name": ["\u03b2-Muricholic acid", "Cholan-24-oic acid, 3,6,7-trihydroxy-, (3\u03b1,5\u03b2,6\u03b2,7\u03b2)-", "\u03b2-Muricholic acid", "5\u03b2-Cholan-24-oic acid, 3\u03b1,6\u03b2,7\u03b2-trihydroxy-", "5\u03b2-Cholanic acid, 3\u03b1,6\u03b2,7\u03b2-trihydroxy-", "(3\u03b1,5\u03b2,6\u03b2,7\u03b2)-3,6,7-Trihydroxycholan-24-oic acid", "5\u03b2-Cholanic acid-3\u03b1,6\u03b2,7\u03b2-triol", "3\u03b1,6\u03b2,7\u03b2-Trihydroxy-5\u03b2-cholan-24-oic acid"], "SMILES": "CC12C3C(C4C(C)(CC3)C(C(CCC(O)=O)C)CC4)C(O)C(O)C1CC(O)CC2", "physical_data": {"Molecular Weight": "408.57", "Molecular Formula": "C24H40O5", "Melting Point": "226 \u00b0C"}}