{"cas_no": "2393-17-1", "cn_name": "3-(4-\u6c28\u57fa\u82ef\u57fa)\u4e19\u9178", "en_name": ["3-(4-Aminophenyl)propionic acid", "Benzenepropanoic acid, 4-amino-", "Hydrocinnamic acid, p-amino-", "4-Aminobenzenepropanoic acid", "\u03b2-(4-Aminophenyl)propionic acid", "4-Aminohydrocinnamic acid", "3-(p-Aminophenyl)propionic acid", "3-(4-Aminophenyl)propionic acid", "p-Aminohydrocinnamic acid", "NSC 25083", "3-(4-Aminophenyl)propanoic acid", "3-(p-Aminophenyl)propanoic acid"], "SMILES": "C(CC(O)=O)C1=CC=C(N)C=C1", "physical_data": {"Molecular Weight": "165.19", "Molecular Formula": "C9H11NO2", "Melting Point": "131 \u00b0C"}}