{"cas_no": "2393-18-2", "cn_name": "\u80fa\u6842\u76ae\u9178", "en_name": ["3-(4-Aminophenyl)-2-propenoic acid", "2-Propenoic acid, 3-(4-aminophenyl)-", "Cinnamic acid, p-amino-", "3-(4-Aminophenyl)-2-propenoic acid", "4-Aminocinnamic acid", "p-Aminocinnamic acid", "NSC 1780"], "SMILES": "C(=CC(O)=O)C1=CC=C(N)C=C1", "physical_data": {"Molecular Weight": "163.17", "Molecular Formula": "C9H9NO2", "Melting Point": "155-160 \u00b0C (decomp)"}}