{"cas_no": "2393-23-9", "cn_name": "4-\u7532\u6c27\u57fa\u82c4\u80fa", "en_name": ["4-Methoxybenzylamine", "Benzenemethanamine, 4-methoxy-", "Benzylamine, p-methoxy-", "4-Methoxybenzenemethanamine", "p-Methoxybenzylamine", "4-Methoxybenzylamine", "Anisylamine", "para-Methoxybenzylamine", "4-Methoxyphenylmethylamine", "(4-Methoxyphenyl)methanamine", "NSC 9269", "4-Methyloxybenzylamine", "1-Aminomethyl-4-methoxybenzene", "1-(4-Methoxyphenyl)methanamine", "[[4-(Methyloxy)phenyl]methyl]amine", "(p-Methoxyphenyl)methanamine"], "SMILES": "C(N)C1=CC=C(OC)C=C1", "physical_data": {"Molecular Weight": "137.18", "Molecular Formula": "C8H11NO", "Boiling Point": "236.5 \u00b0C", "Melting Point": "181 \u00b0C", "Density": "1.050 g/cm\u00b3 @ Temp: 15 \u00b0C"}}