{"cas_no": "2393-58-0", "cn_name": "(3a,5b,6b,7a)-3,6,7-trihydroxy-Cholan-24-oic acid", "en_name": ["\u03b1-Muricholic acid", "Cholan-24-oic acid, 3,6,7-trihydroxy-, (3\u03b1,5\u03b2,6\u03b2,7\u03b1)-", "\u03b1-Muricholic acid", "5\u03b2-Cholan-24-oic acid, 3\u03b1,6\u03b2,7\u03b1-trihydroxy-", "5\u03b2-Cholanic acid, 3\u03b1,6\u03b2,7\u03b1-trihydroxy-", "(3\u03b1,5\u03b2,6\u03b2,7\u03b1)-3,6,7-Trihydroxycholan-24-oic acid", "5\u03b2-Cholanic acid-3\u03b1,6\u03b2,7\u03b1-triol", "3\u03b1,6\u03b2,7\u03b1-Trihydroxy-5\u03b2-cholan-24-oic acid"], "SMILES": "CC12C3C(C4C(C)(CC3)C(C(CCC(O)=O)C)CC4)C(O)C(O)C1CC(O)CC2", "physical_data": {"Molecular Weight": "408.57", "Molecular Formula": "C24H40O5", "Melting Point": "200-202 \u00b0C"}}