{"cas_no": "2393-92-2", "cn_name": "\u79bb\u5b50\u4ea4\u6362\u6811\u8102", "en_name": ["Thiamphenicol glycinate", "Glycine, (2R,3R)-2-[(2,2-dichloroacetyl)amino]-3-hydroxy-3-[4-(methylsulfonyl)phenyl]propyl ester", "Glycine, \u03b1-ester with D-threo-(+)-2,2-dichloro-N-[\u03b2-hydroxy-\u03b1-(hydroxymethyl)-p-(methylsulfonyl)phenethyl]acetamide", "Glycine, 2-[(dichloroacetyl)amino]-3-hydroxy-3-[4-(methylsulfonyl)phenyl]propyl ester, [R-(R*,R*)]-", "Glycine, (2R,3R)-2-[(dichloroacetyl)amino]-3-hydroxy-3-[4-(methylsulfonyl)phenyl]propyl ester", "Acetamide, 2,2-dichloro-N-[\u03b2-hydroxy-\u03b1-(hydroxymethyl)-p-(methylsulfonyl)phenethyl]-, \u03b1-ester with glycine, D-threo-(+)-", "Thiamphenicol glycinate", "Thiophenicol glycinate", "Urfamicin", "Thiamphenicol glycine ester"], "SMILES": "C(C(O)C1=CC=C(S(C)(=O)=O)C=C1)(NC(C(Cl)Cl)=O)COC(CN)=O", "physical_data": {"Molecular Weight": "413.27", "Molecular Formula": "C14H18Cl2N2O6S", "Melting Point": "111-112 \u00b0C"}}