{"cas_no": "23947-60-6", "cn_name": "\u4e59\u5627\u915a", "en_name": ["Ethirimol", "4(3H)-Pyrimidinone, 5-butyl-2-(ethylamino)-6-methyl-", "4(1H)-Pyrimidinone, 5-butyl-2-(ethylamino)-6-methyl-", "5-Butyl-2-(ethylamino)-6-methyl-4(3H)-pyrimidinone", "Milstem", "PP 149", "Ethirimol", "Milgo", "5-Butyl-2-ethylamino-6-hydroxy-4-methylpyrimidine", "Milgo E", "Milstem Seed Dressing", "ETH 560", "NSC 263491"], "SMILES": "C(CCC)C1=C(C)NC(NCC)=NC1=O", "physical_data": {"Molecular Weight": "209.29", "Molecular Formula": "C11H19N3O", "Melting Point": "160 \u00b0C"}}