{"cas_no": "23945-50-8", "cn_name": "4-\u7f9f\u57fa-2-\u5def\u57fa-5-\u5627\u5576\u7532\u9178", "en_name": ["5-Carboxy-2-thiouracil", "5-Pyrimidinecarboxylic acid, 1,2,3,4-tetrahydro-4-oxo-2-thioxo-", "5-Pyrimidinecarboxylic acid, 4-hydroxy-2-mercapto-", "1,2,3,4-Tetrahydro-4-oxo-2-thioxo-5-pyrimidinecarboxylic acid", "4-Hydroxy-2-mercapto-5-pyrimidinecarboxylic acid", "2-Thiouracil-5-carboxylic acid", "5-Uracilcarboxylic acid, 2-thio-", "2-Mercapto-4-hydroxypyrimidine-5-carboxylic acid", "2-Mercapto-5-carboxyuracil", "5-Carboxy-2-thiouracil", "4-Oxo-1,2,3,4-tetrahydro-2-(thioxo)pyrimidine-5-carboxylic acid"], "SMILES": "C(O)(=O)C=1C(=O)NC(=S)NC1", "physical_data": {"Molecular Weight": "172.16", "Molecular Formula": "C5H4N2O3S", "Melting Point": "246-247 \u00b0C (decomp)"}}