{"cas_no": "23945-44-0", "cn_name": "\u8132\u5627\u5576-5-\u7fa7\u9178", "en_name": ["1,2,3,4-Tetrahydro-2,4-dioxo-5-pyrimidinecarboxylic acid", "5-Pyrimidinecarboxylic acid, 1,2,3,4-tetrahydro-2,4-dioxo-", "5-Pyrimidinecarboxylic acid, 2,4-dihydroxy-", "1,2,3,4-Tetrahydro-2,4-dioxo-5-pyrimidinecarboxylic acid", "2,4-Dihydroxy-5-pyrimidinecarboxylic acid", "5-Uracilcarboxylic acid", "Isoorotic acid", "5-Carboxyuracil", "5-Carboxy-2,4-dihydroxypyrimidine", "2,4-Dioxo-1,2,3,4-tetrahydropyrimidine-5-carboxylic acid", "NSC 1589", "NSC 79561", "2,4-Dioxo-1H-pyrimidine-5-carboxylic acid"], "SMILES": "C(O)(=O)C=1C(=O)NC(=O)NC1", "physical_data": {"Molecular Weight": "156.10", "Molecular Formula": "C5H4N2O4", "Melting Point": "283 \u00b0C"}}