{"cas_no": "23949-66-8", "cn_name": "\u7d2b\u5916\u7ebf\u5438\u6536\u5242 VSU", "en_name": ["VSU", "Ethanediamide, N1-(2-ethoxyphenyl)-N2-(2-ethylphenyl)-", "Oxanilide, 2\u2032-ethoxy-2\u2032\u2032-ethyl-", "Ethanediamide, N-(2-ethoxyphenyl)-N\u2032-(2-ethylphenyl)-", "N1-(2-Ethoxyphenyl)-N2-(2-ethylphenyl)ethanediamide", "Sanduvor VSU", "2\u2032-Ethoxy-2\u2032\u2032-ethyloxanilide", "Tinuvin 312", "2-Ethoxy-2\u2032-ethyloxalic acid bisanilide", "2-Ethoxy-2\u2032-ethyloxanilide", "2-Ethyl-2\u2032-ethoxyoxalanilide", "Hostavin VSU", "VSU", "UV 312", "Songsorb 3120", "Revonox 420", "N\u2032-(2-Ethoxyphenyl)-N-(2-ethylphenyl)oxamide", "Sabostab UV 312", "Chiguard 1033", "Hostavin 3206LIQ"], "SMILES": "N(C(C(NC1=C(CC)C=CC=C1)=O)=O)C2=C(OCC)C=CC=C2", "physical_data": {"Molecular Weight": "312.36", "Molecular Formula": "C18H20N2O3", "Boiling Point": "&gt;400 \u00b0C"}}