{"cas_no": "23950-58-5", "cn_name": "\u620a\u7094\u8349\u80fa", "en_name": ["Propyzamide", "Benzamide, 3,5-dichloro-N-(1,1-dimethyl-2-propyn-1-yl)-", "Benzamide, 3,5-dichloro-N-(1,1-dimethyl-2-propynyl)-", "3,5-Dichloro-N-(1,1-dimethyl-2-propyn-1-yl)benzamide", "N-(1,1-Dimethylpropynyl)-3,5-dichlorobenzamide", "Pronamide", "3,5-Dichloro-N-(1,1-dimethyl-2-propynyl)benzamide", "RH 315", "Kerb", "Propyzamide", "Kerb 50W", "3,5-Dichloro-N-(1,1-dimethylpropynyl)benzamide", "Kerb Flo", "Kerb Flo 500", "3,5-Dichloro-N-(2-methylbut-3-yn-2-yl)benzamide"], "SMILES": "C(NC(C#C)(C)C)(=O)C1=CC(Cl)=CC(Cl)=C1", "physical_data": {"Molecular Weight": "256.13", "Molecular Formula": "C12H11Cl2NO", "Melting Point": "155-156 \u00b0C"}}