{"cas_no": "2396-68-1", "cn_name": "4-\u53d4\u4e01\u57fa\u82ef\u786b\u915a", "en_name": ["4-tert-Butylthiophenol", "Benzenethiol, 4-(1,1-dimethylethyl)-", "Benzenethiol, p-tert-butyl-", "4-(1,1-Dimethylethyl)benzenethiol", "4-tert-Butylthiophenol", "p-tert-Butylbenzenethiol", "4-tert-Butylbenzenethiol", "p-tert-Butylthiophenol", "p-tert-Butylphenyl mercaptan", "p-tert-Butylphenylthiol", "NSC 229514", "NSC 26804", "NSC 57807", "4-Tertbutylbenzenethiol", "4-tert-Butylbenzenthiol"], "SMILES": "C(C)(C)(C)C1=CC=C(S)C=C1", "physical_data": {"Molecular Weight": "166.28", "Molecular Formula": "C10H14S", "Boiling Point": "109-110 \u00b0C @ Press: 13 Torr"}}