{"cas_no": "23964-57-0", "cn_name": "\u76d0\u9178\u963f\u66ff\u5361\u56e0", "en_name": ["Articaine hydrochloride", "2-Thiophenecarboxylic acid, 4-methyl-3-[[1-oxo-2-(propylamino)propyl]amino]-, methyl ester, hydrochloride (1:1)", "2-Thiophenecarboxylic acid, 4-methyl-3-[2-(propylamino)propionamido]-, methyl ester, monohydrochloride", "2-Thiophenecarboxylic acid, 4-methyl-3-[[1-oxo-2-(propylamino)propyl]amino]-, methyl ester, monohydrochloride", "Methyl 4-methyl-3-[[1-oxo-2-(propylamino)propyl]amino]-2-thiophenecarboxylate hydrochloride", "Carticaine hydrochloride", "Ultracaine", "Ultracain", "HOE 045", "Carticain", "Articaine hydrochloride", "Septanest", "HOE 40045", "Ultacain", "Carticaine chlorhydrate", "Ubistesine"], "SMILES": "N(C(C(NCCC)C)=O)C1=C(C(OC)=O)SC=C1C.Cl", "physical_data": {"Molecular Weight": "", "Molecular Formula": "C13H20N2O3S.ClH", "Melting Point": "177-178 \u00b0C"}}