{"cas_no": "2396-80-7", "cn_name": "5-\u5df2\u9178\u7532\u916f", "en_name": ["Methyl 5-hexenoate", "5-Hexenoic acid, methyl ester", "Methyl 5-hexenoate"], "SMILES": "C(CCCC=C)(OC)=O", "physical_data": {"Molecular Weight": "128.17", "Molecular Formula": "C7H12O2", "Boiling Point": "175 \u00b0C @ Press: 760 Torr", "Density": "0.9114 g/cm\u00b3"}}