{"cas_no": "23964-58-1", "cn_name": "\u963f\u66ff\u5361\u56e0", "en_name": ["Articaine", "2-Thiophenecarboxylic acid, 4-methyl-3-[[1-oxo-2-(propylamino)propyl]amino]-, methyl ester", "2-Thiophenecarboxylic acid, 4-methyl-3-[2-(propylamino)propionamido]-, methyl ester", "Carticaine", "Articaine"], "SMILES": "N(C(C(NCCC)C)=O)C1=C(C(OC)=O)SC=C1C", "physical_data": {"Molecular Weight": "284.37", "Molecular Formula": "C13H20N2O3S", "Boiling Point": "162-167 \u00b0C @ Press: 0.3 Torr", "Melting Point": "175-176 \u00b0C"}}