{"cas_no": "2396-77-2", "cn_name": "2-\u5df1\u70ef\u9178\u7532\u916f", "en_name": ["Methyl 2-hexenoate", "2-Hexenoic acid, methyl ester", "Methyl 2-hexenoate", "3-Propylacrylic acid methyl ester", "Methyl 3-propylacrylate"], "SMILES": "C(C=CCCC)(OC)=O", "physical_data": {"Molecular Weight": "128.17", "Molecular Formula": "C7H12O2", "Boiling Point": "56-58 \u00b0C @ Press: 13 Torr", "Melting Point": "32 \u00b0C"}}