{"cas_no": "2396-84-1", "cn_name": "\u5c71\u68a8\u9178\u4e59\u916f", "en_name": ["Ethyl sorbate", "2,4-Hexadienoic acid, ethyl ester, (2E,4E)-", "Sorbic acid, ethyl ester", "2,4-Hexadienoic acid, ethyl ester, (E,E)-", "Ethyl 2,4-hexadienoate", "Ethyl sorbate", "(E,E)-Ethyl 2,4-hexadienoate", "NSC 8874", "Ethyl (2E,4E)-hexa-2,4-dienoate"], "SMILES": "C(C(OCC)=O)=CC=CC", "physical_data": {"Molecular Weight": "140.18", "Molecular Formula": "C8H12O2", "Boiling Point": "195.5 \u00b0C", "Melting Point": "95-98 \u00b0C", "Density": "0.9405 g/cm\u00b3 @ Temp: 15.3 \u00b0C"}}