{"cas_no": "2396-63-6", "cn_name": "1,6-\u5e9a\u4e8c\u7094", "en_name": ["1,6-Heptadiyne", "1,6-Heptadiyne", "NSC 353895"], "SMILES": "C(CC#C)CC#C", "physical_data": {"Molecular Weight": "92.14", "Molecular Formula": "C7H8", "Boiling Point": "112 \u00b0C", "Melting Point": "-85 \u00b0C", "Density": "0.8164 g/cm\u00b3 @ Temp: 17 \u00b0C"}}