{"cas_no": "2396-83-0", "cn_name": "3-\u5df1\u70ef\u9178\u4e59\u916f", "en_name": ["Ethyl 3-hexenoate", "3-Hexenoic acid, ethyl ester", "Hydrosorbic acid, ethyl ester", "Ethyl 3-hexenoate"], "SMILES": "C(C(OCC)=O)C=CCC", "physical_data": {"Molecular Weight": "142.20", "Molecular Formula": "C8H14O2", "Boiling Point": "166.5 \u00b0C"}}