{"cas_no": "2396-60-3", "cn_name": "4-\u7532\u6c27\u57fa\u5076\u6c2e\u82ef", "en_name": ["4-Methoxyazobenzene", "Diazene, 1-(4-methoxyphenyl)-2-phenyl-", "Azobenzene, 4-methoxy-", "Diazene, (4-methoxyphenyl)phenyl-", "Anisole, p-(phenylazo)-", "1-(4-Methoxyphenyl)-2-phenyldiazene", "p-Methoxyazobenzene", "4-Methoxyazobenzene", "4-(Phenylazo)anisole", "NSC 16044", "(4-Methoxyphenyl)-phenyldiazene"], "SMILES": "N(=NC1=CC=CC=C1)C2=CC=C(OC)C=C2", "physical_data": {"Molecular Weight": "212.25", "Molecular Formula": "C13H12N2O", "Boiling Point": "340 \u00b0C", "Melting Point": "56 \u00b0C"}}