{"cas_no": "2396-65-8", "cn_name": "1,8-\u58ec\u4e8c\u7094", "en_name": ["1,8-Nonadiyne", "1,8-Nonadiyne", "NSC 35136"], "SMILES": "C(CCC#C)CCC#C", "physical_data": {"Molecular Weight": "120.19", "Molecular Formula": "C9H12", "Boiling Point": "162 \u00b0C", "Melting Point": "-27.3 \u00b0C", "Density": "0.8158 g/cm\u00b3 @ Temp: 20 \u00b0C"}}