{"cas_no": "23978-55-4", "cn_name": "\u4e8c\u6c2e\u674218-\u51a0\u919a-6", "en_name": ["Diaza-18-crown-6", "1,4,10,13-Tetraoxa-7,16-diazacyclooctadecane", "1,7,10,16-Tetraoxa-4,13-diazacyclooctadecane", "Kryptofix[2.2]", "Kryptand[2.2]", "Kryptofix 22", "Cryptand 22", "1,10-Diaza-4,7,13,16-tetraoxa-18-crown-6", "1,10-Diaza-18-crown-6", "1,10-Diaza-4,7,13,16-tetraoxacyclooctadecane", "4,13-Diaza-18-crown-6", "7,16-Diaza-1,4,10,13-tetraoxacyclooctadecane", "2,2\u2032-Kryptofix", "Diaza crown ether 22", "Crytand[2,2]", "7,16-Diaza-18-crown-6", "1,10-Diaza-18-crown ether", "Cryptand(2.2)", "Diaza-18-crown-6", "NSC 339325", "4,7,13,16-Tetraoxa-1,10-diazacyclooctadecane", "4,13-Diaza-18-crown-6-ether", "1,10-Diaza-4,7,13,16,24,24-hexaoxabicyclo[8.8.8]hexacontane"], "SMILES": "C1COCCOCCNCCOCCOCCN1", "physical_data": {"Molecular Weight": "262.35", "Molecular Formula": "C12H26N2O4", "Melting Point": "115-116 \u00b0C", "Density": "1.11 g/cm\u00b3"}}