{"cas_no": "23972-41-0", "cn_name": "\u4e8c\u82ef\u57fa\u5417\u5549", "en_name": ["2-Phenylmorpholine", "Morpholine, 2-phenyl-", "2-Phenylmorpholine", "1448CERM"], "SMILES": "C1(=CC=CC=C1)C2CNCCO2", "physical_data": {"Molecular Weight": "163.22", "Molecular Formula": "C10H13NO", "Boiling Point": "145 \u00b0C @ Press: 14 Torr"}}