{"cas_no": "2397-76-4", "cn_name": "2-\u4e19\u70ef\u9178,2-\u7532\u57fa-, 2,2-\u4e8c\u7532\u57fa\u4e19\u57fa\u916f", "en_name": ["Neopentyl methacrylate", "2-Propenoic acid, 2-methyl-, 2,2-dimethylpropyl ester", "Methacrylic acid, neopentyl ester", "Neopentyl methacrylate", "2,2-Dimethylpropyl methacrylate", "2,2-Dimethylpropyl 2-methylprop-2-enoate"], "SMILES": "O(C(C(C)=C)=O)CC(C)(C)C", "physical_data": {"Molecular Weight": "156.22", "Molecular Formula": "C9H16O2", "Boiling Point": "65 \u00b0C @ Press: 19.5 Torr", "Density": "0.8697 g/cm\u00b3 @ Temp: 26 \u00b0C"}}