{"cas_no": "23979-41-1", "cn_name": "(R)-\u8418\u666e\u751f", "en_name": ["(R)-Naproxen", "2-Naphthaleneacetic acid, 6-methoxy-\u03b1-methyl-, (\u03b1R)-", "2-Naphthaleneacetic acid, 6-methoxy-\u03b1-methyl-, (R)-", "(\u03b1R)-6-Methoxy-\u03b1-methyl-2-naphthaleneacetic acid", "(-)-6-Methoxy-\u03b1-methyl-2-naphthaleneacetic acid", "l-Naproxen", "(R)-2-(6-Methoxy-2-naphthyl)propionic acid", "(-)-Naproxen", "(R)-Naproxen", "(R)-(-)-Naproxen", "(-)-2-(6-Methoxy-2-naphthyl)propionic acid", "(R)-(-)-Naproxen", "(R)-2-(6-Methoxynaphthalen-2-yl)propanoic acid", "(-)-(R)-2-(6-Methoxy-2-naphthyl)propionic acid", "(R)-2-(6-Methoxynaphthalen-2-yl)propanoic acid", "2-Naphthaleneacetic acid 6-methoxy-\u03b1-methyl-, (\u03b1R)-", "(R)-(-)-2-(6-Methoxy-2-naphthyl)propionic acid"], "SMILES": "C(C(O)=O)(C)C1=CC2=C(C=C(OC)C=C2)C=C1", "physical_data": {"Molecular Weight": "230.26", "Molecular Formula": "C14H14O3", "Melting Point": "156-157 \u00b0C"}}