{"cas_no": "23981-47-7", "cn_name": "6-\u7532\u57fa\u8418\u4e59\u9178", "en_name": ["6-Methoxy-2-naphthylacetic acid", "2-Naphthaleneacetic acid, 6-methoxy-", "6-Methoxy-2-naphthaleneacetic acid", "6-Methoxy-2-naphthylacetic acid", "2-(6-Methoxy-2-naphthyl)acetic acid", "BRL 10720", "2-(2-Methoxynaphthalen-6-yl)acetic acid", "2-(6-Methoxynaphthalen-2-yl)acetic acid", "2-(6-Methoxynaphthalen-2-yl)aceticacid"], "SMILES": "C(C(O)=O)C1=CC2=C(C=C(OC)C=C2)C=C1", "physical_data": {"Molecular Weight": "216.23", "Molecular Formula": "C13H12O3", "Melting Point": "203-205 \u00b0C"}}