{"cas_no": "23983-43-9", "cn_name": "\u666e\u62c9\u96c4\u916e\u5e9a\u9178\u916f", "en_name": ["Dehydroepiandrosterone enanthate", "Androst-5-en-17-one, 3-[(1-oxoheptyl)oxy]-, (3\u03b2)-", "Androst-5-en-17-one, 3\u03b2-hydroxy-, heptanoate", "Heptanoic acid, ester with 3\u03b2-hydroxyandrost-5-en-17-one", "(3\u03b2)-3-[(1-Oxoheptyl)oxy]androst-5-en-17-one", "Dehydroepiandrosterone enanthate", "3\u03b2-Heptanoyloxy-5-androsten-17-one", "Dehydroepiandrosterone oenanthate", "Prasterone enanthate"], "SMILES": "CC12C3C(C4C(C)(CC3)C(=O)CC4)CC=C1CC(OC(CCCCCC)=O)CC2", "physical_data": {"Molecular Weight": "400.59", "Molecular Formula": "C26H40O3", "Melting Point": "69-70 \u00b0C"}}