{"cas_no": "2398-96-1", "cn_name": "\u6258\u8418\u916f", "en_name": ["2-Naphthyl N-methyl-N-(3-tolyl)thiocarbamate", "Carbamothioic acid, N-methyl-N-(3-methylphenyl)-, O-2-naphthalenyl ester", "Carbanilic acid, m,N-dimethylthio-, O-2-naphthyl ester", "Carbamothioic acid, methyl(3-methylphenyl)-, O-2-naphthalenyl ester", "Naphthiomate T", "O-2-Naphthyl m,N-dimethylthiocarbanilate", "2-Naphthyl N-methyl-N-(3-tolyl)thionocarbamate", "Tinactin", "Tolnaftate", "2-Naphthyl N-methyl-N-m-tolylthiocarbamate", "2-Naphthyl N-methyl-N-(3-tolyl)thiocarbamate", "Tonoftal", "Dermoxin", "Focusan", "Pitrex", "Sporiline", "Tinaderm", "Tolsanil", "Tolnaphthate", "Phytoderm", "Timoped", "Hi-Alarzin", "Dr. Scholl's Athlete's Foot Spray", "Dungistop", "Tniaderm", "Sch 10144", "Tritin", "Aftate", "Chinofungin", "NSC 233648", "Tineacure"], "SMILES": "O(C(N(C)C1=CC(C)=CC=C1)=S)C2=CC3=C(C=C2)C=CC=C3", "physical_data": {"Molecular Weight": "307.41", "Molecular Formula": "C19H17NOS", "Melting Point": "111 \u00b0C"}}