{"cas_no": "2398-37-0", "cn_name": "\u95f4\u6eb4\u82ef\u7532\u919a", "en_name": ["3-Bromoanisole", "Benzene, 1-bromo-3-methoxy-", "Anisole, m-bromo-", "1-Bromo-3-methoxybenzene", "m-Bromophenyl methyl ether", "3-Bromoanisole", "3-Methoxy-1-bromobenzene", "m-Bromoanisole", "3-Methoxybromobenzene", "m-Bromomethoxybenzene", "m-Methoxybromobenzene", "m-Anisyl bromide", "3-Methoxyphenyl bromide", "m-Methoxyphenyl bromide", "m-Bromoanisole", "NSC 82293", "3-Bromobenzene methyl ether"], "SMILES": "O(C)C1=CC(Br)=CC=C1", "physical_data": {"Molecular Weight": "187.03", "Molecular Formula": "C7H7BrO", "Boiling Point": "211 \u00b0C", "Melting Point": "106.7 \u00b0C"}}