{"cas_no": "2398-81-4", "cn_name": "\u6c27\u70df\u9178", "en_name": ["Nicotinic acid N-oxide", "3-Pyridinecarboxylic acid, 1-oxide", "Nicotinic acid, 1-oxide", "Nicotinic acid N-oxide", "N-Hydroxynicotinic acid", "Pyridine-3-carboxylic acid N-oxide", "Oxiniacic acid", "Nicotinic acid oxide", "3-Carboxypyridine N-oxide", "3-Pyridinecarboxylic acid oxide", "NSC 93890", "3-Carboxypyridine 1-oxide", "1-Oxidopyridin-1-ium-3-carboxylic acid", "3-Carboxypyridin-1-ium-1-olate"], "SMILES": "C(O)(=O)C1=CN(=O)=CC=C1", "physical_data": {"Molecular Weight": "139.11", "Molecular Formula": "C6H5NO3", "Melting Point": "254.5 \u00b0C (decomp)"}}