{"cas_no": "23981-80-8", "cn_name": "2-(6-\u7532\u6c27\u57fa-2-\u8418\u57fa)\u4e19\u9178", "en_name": ["(\u00b1)-Naproxen", "2-Naphthaleneacetic acid, 6-methoxy-\u03b1-methyl-", "6-Methoxy-\u03b1-methyl-2-naphthaleneacetic acid", "2-(6-Methoxy-2-naphthyl)propionic acid", "6-Methoxy-2-naphthyl-\u03b1-methylacetic acid", "2-(6-Methoxy-2-naphthyl)propanoic acid", "\u03b1-(6-Methoxy-2-naphthyl)propionic acid", "(\u00b1)-Naproxen", "DL-2-(6-Methoxy-2-naphthyl)propionic acid", "(\u00b1)-2-(6-Methoxy-2-naphthalenyl)propionic acid", "DL-Naproxen", "(\u00b1)-6-Methoxy-\u03b1-methyl-2-naphthaleneacetic acid", "(\u00b1)-2-(6-Methoxy-2-naphthyl)propionic acid", "(RS)-Naproxen", "Racemic naproxen", "2-(6-Methoxynaphthalen-2-yl)propionic acid", "2-(6-Methoxynaphthalen-2-yl)propanoic acid"], "SMILES": "C(C(O)=O)(C)C1=CC2=C(C=C(OC)C=C2)C=C1", "physical_data": {"Molecular Weight": "230.26", "Molecular Formula": "C14H14O3", "Melting Point": "156-157 \u00b0C"}}