{"cas_no": "23996-12-5", "cn_name": "1-\u6c30\u4e59\u57fa-2-\u82ef\u57fa\u54aa\u5511", "en_name": ["2PZ-CN", "1H-Imidazole-1-propanenitrile, 2-phenyl-", "Imidazole-1-propionitrile, 2-phenyl-", "2-Phenyl-1H-imidazole-1-propanenitrile", "1-(2-Cyanoethyl)-2-phenylimidazole", "1-(Cyanoethyl)-2-phenylimidazole", "1-(Cyanoethyl)-2-phenyl-1H-imidazole", "Curezol 2PZ-CN", "2PZ-CN"], "SMILES": "C(CC#N)N1C(=NC=C1)C2=CC=CC=C2", "physical_data": {"Molecular Weight": "197.24", "Molecular Formula": "C12H11N3", "Melting Point": "107-108 \u00b0C"}}