{"cas_no": "23995-88-2", "cn_name": "1-(1-\u7532\u57fa\u54cc\u5576-4-\u57fa)\u54cc\u55ea", "en_name": ["1-(1-Methyl-4-piperidinyl)piperazine", "Piperazine, 1-(1-methyl-4-piperidinyl)-", "Piperazine, 1-(1-methyl-4-piperidyl)-", "1-(1-Methyl-4-piperidinyl)piperazine", "1-(N-Methylpiperidin-4-yl)piperazine"], "SMILES": "CN1CCC(CC1)N2CCNCC2", "physical_data": {"Molecular Weight": "183.29", "Molecular Formula": "C10H21N3", "Boiling Point": "102-110 \u00b0C @ Press: 0.1 Torr"}}