{"cas_no": "23996-55-6", "cn_name": "1-\u6c30\u4e59\u57fa-2-\u7532\u57fa\u54aa\u5511", "en_name": ["1-Cyanoethyl-2-methylimidazole", "1H-Imidazole-1-propanenitrile, 2-methyl-", "Imidazole-1-propionitrile, 2-methyl-", "2-Methyl-1H-imidazole-1-propanenitrile", "1-(2-Cyanoethyl)-2-methylimidazole", "1-(\u03b2-Cyanoethyl)-2-methylimidazole", "2-Methyl-1-imidazolepropanenitrile", "Kalpur PAC", "1-Cyanoethyl-2-methylimidazole", "2MZ-CN", "Curezol 2MZ-CN", "CN 25", "CN 25 (vulcanizing agent)", "Curezol 2PN-ON", "Curezol 2PN-CN", "1-(2-Cynnoethyl)-2-methyl imidazole"], "SMILES": "C(CC#N)N1C(C)=NC=C1", "physical_data": {"Molecular Weight": "135.17", "Molecular Formula": "C7H9N3", "Melting Point": "55-56.5 \u00b0C"}}