{"cas_no": "23997-94-6", "cn_name": "5-\u7f9f\u57fa-2-\u7532\u57fa\u82ef\u5e76\u6076\u5511", "en_name": ["5-Hydroxy-2-methylbenzoxazole", "5-Benzoxazolol, 2-methyl-", "2-Methyl-5-benzoxazolol", "5-Hydroxy-2-methylbenzoxazole", "2-Methyl-5-hydroxybenzoxazole", "2-Methyl-1,3-benzoxazol-5-ol", "2-Methylbenzoxazol-5-ol", "2-Methylbenzo[d]oxazol-5-ol"], "SMILES": "CC=1OC=2C(N1)=CC(O)=CC2", "physical_data": {"Molecular Weight": "149.15", "Molecular Formula": "C8H7NO2", "Melting Point": "164-165 \u00b0C"}}