{"cas_no": "2399-48-6", "cn_name": "\u4e19\u70ef\u9178\u56db\u6c22\u7ce0\u57fa\u916f", "en_name": ["Tetrahydrofurfuryl acrylate", "2-Propenoic acid, (tetrahydro-2-furanyl)methyl ester", "Acrylic acid, tetrahydrofurfuryl ester", "Furfuryl alcohol, tetrahydro-, acrylate", "Tetrahydrofurfuryl acrylate", "SR 285", "Kayarad TC 101", "Light Acrylate THF-A", "Viscoat 150", "THF-A", "Sartomer 302", "Sartomer 285", "NSC 32627", "Sartomer SR 285", "Viscoat THFA", "FA-THFA", "TC 101", "Viscoat V 150", "EM 214", "Miramer M 150", "Fancryl FA-THFA", "(Tetrahydrofuran-2-yl)methyl acrylate", "M 150", "EM 214C", "A 27596"], "SMILES": "C(OC(C=C)=O)C1CCCO1", "physical_data": {"Molecular Weight": "156.18", "Molecular Formula": "C8H12O3", "Boiling Point": "87 \u00b0C @ Press: 9 Torr", "Density": "1.0643 g/cm\u00b3 @ Temp: 20 \u00b0C"}}