{"cas_no": "23996-53-4", "cn_name": "N-(2-\u6c30\u4e59\u57fa)\u54aa\u5511", "en_name": ["1H-Imidazole-1-propanenitrile", "1H-Imidazole-1-propanenitrile", "Imidazole-1-propionitrile", "1-Cyanoethylimidazole", "1-(2-Cyanoethyl)imidazole", "3-(Imidazol-1-yl)propionitrile", "3-Imidazol-1-ylpropanenitrile"], "SMILES": "C(CC#N)N1C=CN=C1", "physical_data": {"Molecular Weight": "121.14", "Molecular Formula": "C6H7N3", "Boiling Point": "145 \u00b0C @ Press: 0.5 Torr", "Melting Point": "35-36 \u00b0C"}}