{"cas_no": "24003-67-6", "cn_name": "\u5df1\u9170\u7518\u6c28\u9178", "en_name": ["Hexanoylglycine", "Glycine, N-(1-oxohexyl)-", "Glycine, N-hexanoyl-", "N-(1-Oxohexyl)glycine", "N-Caproylglycine", "n-Hexanoylglycine", "Hexanoylglycine", "Caproylglycine", "NSC 224460", "2-Hexanamidoacetic acid"], "SMILES": "C(NCC(O)=O)(CCCCC)=O", "physical_data": {"Molecular Weight": "173.21", "Molecular Formula": "C8H15NO3", "Melting Point": "93-94 \u00b0C"}}