{"cas_no": "2400-66-0", "cn_name": "\u4e8c\u5341\u70f7\u919b", "en_name": ["Eicosanal", "Eicosanal", "n-Eicosanal", "Eicosyl aldehyde", "1-Eicosanal"], "SMILES": "C(CCCCCCCCCC)CCCCCCCCC=O", "physical_data": {"Molecular Weight": "296.53", "Molecular Formula": "C20H40O", "Melting Point": "77-79 \u00b0C"}}