{"cas_no": "24008-63-7", "cn_name": "(S)-\u6241\u6843\u9170\u80fa", "en_name": ["(S)-Mandelamide", "Benzeneacetamide, \u03b1-hydroxy-, (\u03b1S)-", "Mandelamide, L-", "Benzeneacetamide, \u03b1-hydroxy-, (S)-", "(\u03b1S)-\u03b1-Hydroxybenzeneacetamide", "L-Mandelamide", "L-(+)-Mandelamide", "(S)-(+)-Mandelamide", "(S)-Mandelamide", "(+)-Mandelamide"], "SMILES": "C(C(N)=O)(O)C1=CC=CC=C1", "physical_data": {"Molecular Weight": "151.16", "Molecular Formula": "C8H9NO2", "Melting Point": "122-122.5 \u00b0C"}}