{"cas_no": "2401-24-3", "cn_name": "2-\u6c2f-5-\u7532\u6c27\u57fa\u82ef\u80fa", "en_name": ["2-Chloro-5-methoxybenzenamine", "Benzenamine, 2-chloro-5-methoxy-", "m-Anisidine, 6-chloro-", "2-Chloro-5-methoxybenzenamine", "3-Amino-4-chloroanisole", "6-Chloro-m-anisidine", "2-Chloro-5-methoxyaniline", "1-Amino-2-chloro-5-methoxybenzene", "2-Chloro-5-(methyloxy)aniline", "2-Chloro-5-methoxyphenylamine"], "SMILES": "O(C)C1=CC(N)=C(Cl)C=C1", "physical_data": {"Molecular Weight": "157.60", "Molecular Formula": "C7H8ClNO", "Boiling Point": "136-137 \u00b0C @ Press: 10 Torr", "Melting Point": "27 \u00b0C"}}