{"cas_no": "2401-73-2", "cn_name": "1,3-\u4e8c\u6c2f-1,1,3,3,-\u56db\u7532\u57fa\u4e8c\u7845\u6c27\u70f7", "en_name": ["1,3-Dichloro-1,1,3,3-tetramethyldisiloxane", "Disiloxane, 1,3-dichloro-1,1,3,3-tetramethyl-", "1,3-Dichloro-1,1,3,3-tetramethyldisiloxane", "1,3-Dichlorotetramethyldisiloxane", "1,1,3,3-Tetramethyl-1,3-dichlorodisiloxane", "Bis(chlorodimethylsilyl) ether", "Tetramethyl-1,3-dichlorodisiloxane", "Bis(chlorodimethylsilyl) oxide", "Dichlorotetramethyldisiloxane"], "SMILES": "O([Si](C)(C)Cl)[Si](C)(C)Cl", "physical_data": {"Molecular Weight": "203.21", "Molecular Formula": "C4H12Cl2OSi2", "Boiling Point": "138 \u00b0C", "Melting Point": "-37.5 \u00b0C", "Density": "1.039 g/cm\u00b3"}}