{"cas_no": "24017-47-8", "cn_name": "\u4e09\u5511\u78f7", "en_name": ["Triazophos", "Phosphorothioic acid, O,O-diethyl O-(1-phenyl-1H-1,2,4-triazol-3-yl) ester", "1H-1,2,4-Triazol-3-ol, 1-phenyl-, O-ester with O,O-diethyl phosphorothioate", "1-Phenyl-3-(O,O-diethylthionophosphoryl)-1,2,4-triazole", "Triazophos", "HOE 2960", "Hostathion", "Hostation", "Triazofos", "Hostathion 40EC"], "SMILES": "O(P(OCC)(OCC)=S)C1=NN(C=N1)C2=CC=CC=C2", "physical_data": {"Molecular Weight": "313.31", "Molecular Formula": "C12H16N3O3PS", "Melting Point": "2-5 \u00b0C", "Density": "1.247 g/cm\u00b3 @ Temp: 20 \u00b0C"}}