{"cas_no": "24016-03-3", "cn_name": "2-\u6c28\u57fa-3-\u82c4\u6c27\u57fa\u5421\u5576", "en_name": ["2-Amino-3-benzyloxypyridine", "2-Pyridinamine, 3-(phenylmethoxy)-", "Pyridine, 2-amino-3-(benzyloxy)-", "3-(Phenylmethoxy)-2-pyridinamine", "2-Amino-3-benzyloxypyridine", "3-Benzyloxy-2-aminopyridine", "[(3-(Benzyloxy)pyridin-2-yl])amine", "3-Benzyloxypyridin-2-amine", "NSC 298538", "2-Amino-3-(benzoxy)pyridine"], "SMILES": "O(CC1=CC=CC=C1)C2=C(N)N=CC=C2", "physical_data": {"Molecular Weight": "200.24", "Molecular Formula": "C12H12N2O", "Melting Point": "89-91 \u00b0C"}}