{"cas_no": "2402-95-1", "cn_name": "2-\u6c2f\u5421\u5576-N-\u6c27\u5316\u7269", "en_name": ["2-Chloropyridine N-oxide", "Pyridine, 2-chloro-, 1-oxide", "Pyridine, 2-chloro-, oxide", "2-Chloropyridine N-oxide", "2-Chloropyridine oxide", "2-Chloropyridine 1-oxide", "2-Chloro-1-oxidopyridin-1-ium", "2-Chloropyridin-1-ium-1-olate"], "SMILES": "ClC=1N(=O)=CC=CC1", "physical_data": {"Molecular Weight": "129.54", "Molecular Formula": "C5H4ClNO", "Melting Point": "66-68 \u00b0C"}}