{"cas_no": "2402-83-7", "cn_name": "3,3-\u53cc(\u6eb4\u7532\u57fa)\u6c27\u6742\u73af\u4e01\u70f7", "en_name": ["3,3-Bis(bromomethyl)oxetane", "Oxetane, 3,3-bis(bromomethyl)-", "3,3-Bis(bromomethyl)oxetane", "BBMO", "NSC 281665", "Cyclobutene, 3,3-bis(bromomethyl)-"], "SMILES": "C(Br)C1(CBr)COC1", "physical_data": {"Molecular Weight": "243.92", "Molecular Formula": "C5H8Br2O", "Boiling Point": "121 \u00b0C @ Press: 1.8 Torr", "Melting Point": "25 \u00b0C", "Density": "1.83 g/cm\u00b3 @ Temp: 25 \u00b0C"}}