{"cas_no": "2402-78-0", "cn_name": "2,6-\u4e8c\u6c2f\u5421\u5576", "en_name": ["2,6-Dichloropyridine", "Pyridine, 2,6-dichloro-", "2,6-Dichloropyridine", "NSC 76606"], "SMILES": "ClC=1N=C(Cl)C=CC1", "physical_data": {"Molecular Weight": "147.99", "Molecular Formula": "C5H3Cl2N", "Boiling Point": "211 \u00b0C", "Melting Point": "88 \u00b0C"}}