{"cas_no": "2402-79-1", "cn_name": "2,3,5,6-\u56db\u6c2f\u5421\u5576", "en_name": ["2,3,5,6-Tetrachloropyridine", "Pyridine, 2,3,5,6-tetrachloro-", "2,3,5,6-Tetrachloropyridine", "NSC 2009"], "SMILES": "ClC1=C(Cl)N=C(Cl)C(Cl)=C1", "physical_data": {"Molecular Weight": "216.88", "Molecular Formula": "C5HCl4N", "Boiling Point": "250.5 \u00b0C", "Melting Point": "90.5 \u00b0C"}}