{"cas_no": "2402-99-5", "cn_name": "3,5-\u4e8c\u6eb4\u5421\u5576\u6c2e\u6c27\u5316\u7269-1", "en_name": ["Pyridine, 3,5-dibromo-, 1-oxide", "Pyridine, 3,5-dibromo-, 1-oxide", "3,5-Dibromopyridine 1-oxide", "3,5-Dibromopyridine N-oxide", "3,5-Dibromo-1-oxidopyridin-1-ium", "3,5-Dibromopyridin-1-ium-1-olate"], "SMILES": "BrC=1C=C(Br)C=N(=O)C1", "physical_data": {"Molecular Weight": "252.89", "Molecular Formula": "C5H3Br2NO", "Melting Point": "143.5-144.5 \u00b0C"}}