{"cas_no": "2402-77-9", "cn_name": "2,3-\u4e8c\u6c2f\u5421\u5576", "en_name": ["2,3-Dichloropyridine", "Pyridine, 2,3-dichloro-", "2,3-Dichloropyridine", "NSC 298535"], "SMILES": "ClC1=C(Cl)N=CC=C1", "physical_data": {"Molecular Weight": "147.99", "Molecular Formula": "C5H3Cl2N", "Melting Point": "65-67 \u00b0C"}}