{"cas_no": "2402-97-3", "cn_name": "3-\u6eb4\u5421\u5576-N-\u6c27\u5316\u7269", "en_name": ["Pyridine, 3-bromo-, 1-oxide", "Pyridine, 3-bromo-, 1-oxide", "3-Bromopyridine N-oxide", "3-Bromopyridine 1-oxide", "3-Bromopyridine oxide", "3-Bromo-1-oxidopyridin-1-ium", "3-Bromopyridin-1-ium-1-olate"], "SMILES": "BrC1=CN(=O)=CC=C1", "physical_data": {"Molecular Weight": "174.00", "Molecular Formula": "C5H4BrNO", "Boiling Point": "122-125 \u00b0C @ Press: 5 Torr", "Melting Point": "110-112 \u00b0C"}}