{"cas_no": "2403-89-6", "cn_name": "\u4e94\u7532\u57fa\u54cc\u5576\u9187", "en_name": ["1,2,2,6,6-Pentamethyl-4-piperidinol", "4-Piperidinol, 1,2,2,6,6-pentamethyl-", "1,2,2,6,6-Pentamethyl-4-piperidinol", "1,2,2,6,6-Pentamethyl-4-hydroxypiperidine", "4-Hydroxy-1,2,2,6,6-pentamethylpiperidine", "HOPEMP", "NSC 364075", "N-Methyl-4-hydroxy-2,2,6,6-tetramethylpiperidine"], "SMILES": "CN1C(C)(C)CC(O)CC1(C)C", "physical_data": {"Molecular Weight": "171.28", "Molecular Formula": "C10H21NO", "Boiling Point": "122-125 \u00b0C @ Press: 12 Torr", "Melting Point": "70-72 \u00b0C"}}