{"cas_no": "24034-73-9", "cn_name": "\u9999\u53f6\u57fa\u9999\u53f6\u9187", "en_name": ["Geranylgeraniol", "2,6,10,14-Hexadecatetraen-1-ol, 3,7,11,15-tetramethyl-, (2E,6E,10E)-", "2,6,10,14-Hexadecatetraen-1-ol, 3,7,11,15-tetramethyl-, (E,E,E)-", "(2E,6E,10E)-3,7,11,15-Tetramethyl-2,6,10,14-hexadecatetraen-1-ol", "Geranylgeraniol", "trans-Geranylgeraniol", "All-trans-Geranylgeraniol", "trans,trans,trans-Geranylgeraniol", "(E,E,E)-Geranylgeraniol", "Geranylgeranyl alcohol", "(E,E,E)-Geranylgeranyl alcohol"], "SMILES": "C(CCC=C(CCC=C(C)C)C)(=CCCC(=CCO)C)C", "physical_data": {"Molecular Weight": "290.48", "Molecular Formula": "C20H34O", "Boiling Point": "152-153 \u00b0C @ Press: 0.07 Torr", "Density": "0.8930 g/cm\u00b3 @ Temp: 18 \u00b0C"}}