{"cas_no": "2403-54-5", "cn_name": "2-(4-\u6c2f\u82ef\u57fa)-1,3-\u4e8c\u6c27\u620a\u73af", "en_name": ["2-(4-Chlorophenyl)-1,3-dioxolane", "1,3-Dioxolane, 2-(4-chlorophenyl)-", "1,3-Dioxolane, 2-(p-chlorophenyl)-", "2-(4-Chlorophenyl)-1,3-dioxolane", "2-(p-Chlorophenyl)-1,3-dioxolane", "p-Chlorobenzaldehyde cyclic ethylene acetal", "p-Chlorobenzaldehyde ethylene acetal", "4-Chlorobenzaldehyde ethylene glycol acetal", "4-Chlorobenzaldehyde ethylene acetal", "NSC 202824", "2-(4-Chlorophenyl)dioxolane"], "SMILES": "ClC1=CC=C(C=C1)C2OCCO2", "physical_data": {"Molecular Weight": "184.62", "Molecular Formula": "C9H9ClO2", "Boiling Point": "136-139 \u00b0C @ Press: 13 Torr"}}