{"cas_no": "2403-22-7", "cn_name": "N-\u4e01\u57fa\u82c4\u80fa", "en_name": ["N-Butylbenzylamine", "Benzenemethanamine, N-butyl-", "Benzylamine, N-butyl-", "N-Butylbenzenemethanamine", "N-Benzylbutylamine", "N-Butylbenzylamine", "Benzylbutylamine", "Butylbenzylamine", "N-Benzyl-1-butanamine", "N-Benzyl-N-butylamine", "N-Benzyl-1-butylamine", "NSC 15681", "NSC 32386"], "SMILES": "C(NCCCC)C1=CC=CC=C1", "physical_data": {"Molecular Weight": "163.26", "Molecular Formula": "C11H17N", "Boiling Point": "87-89 \u00b0C", "Melting Point": "54-56 \u00b0C"}}