{"cas_no": "2403-66-9", "cn_name": "2-(3-\u7f9f\u57fa\u4e19\u57fa)\u82ef\u5e76\u54aa\u5511", "en_name": ["1H-Benzimidazole-2-propanol", "1H-Benzimidazole-2-propanol", "2-Benzimidazolepropanol", "2-(\u03b3-Hydroxypropyl)benzimidazole", "3-(1H-Benzimidazol-2-yl)propan-1-ol", "NSC 62090", "2-(3\u2032-Hydroxypropyl)benzimidazole", "2-(3-Hydroxypropyl)benzimidazole", "3-(Benzimidazol-2-yl)propan-1-ol"], "SMILES": "C(CCO)C=1NC=2C(N1)=CC=CC2", "physical_data": {"Molecular Weight": "176.22", "Molecular Formula": "C10H12N2O", "Melting Point": "163 \u00b0C"}}