{"cas_no": "2403-88-5", "cn_name": "\u56db\u7532\u57fa\u54cc\u5576\u9187", "en_name": ["4-Hydroxy-2,2,6,6-tetramethylpiperidine", "4-Piperidinol, 2,2,6,6-tetramethyl-", "2,2,6,6-Tetramethyl-4-piperidinol", "4-Hydroxy-2,2,6,6-tetramethylpiperidine", "2,2,6,6-Tetramethyl-4-hydroxypiperidine", "Lastar A", "DN 10", "HOTEMP", "NSC 16575", "DN 10 (UV absorber)", "HTMP", "AHA 7002"], "SMILES": "CC1(C)NC(C)(C)CC(O)C1", "physical_data": {"Molecular Weight": "157.25", "Molecular Formula": "C9H19NO", "Melting Point": "128-129 \u00b0C"}}