{"cas_no": "2403-61-4", "cn_name": "4-\u6c2f\u4ee3\u82ef\u7532\u919b\u7f29\u4e8c\u4e59\u9187", "en_name": ["1-Chloro-4-(diethoxymethyl)benzene", "Benzene, 1-chloro-4-(diethoxymethyl)-", "Benzaldehyde, p-chloro-, diethyl acetal", "1-Chloro-4-(diethoxymethyl)benzene", "4-Chlorobenzaldehyde diethyl acetal", "p-Chlorobenzaldehyde diethyl acetal", "p-(Diethoxymethyl)chlorobenzene", "NSC 296500"], "SMILES": "C(OCC)(OCC)C1=CC=C(Cl)C=C1", "physical_data": {"Molecular Weight": "214.69", "Molecular Formula": "C11H15ClO2", "Boiling Point": "92-93 \u00b0C"}}