{"cas_no": "24041-60-9", "cn_name": "(1S,2S,3S,5R)-(+)-\u5f02\u677e\u848e\u9187", "en_name": ["(+)-Isopinocampheol", "Bicyclo[3.1.1]heptan-3-ol, 2,6,6-trimethyl-, (1S,2S,3S,5R)-", "3-Pinanol, (1S,2S,3S,5R)-(+)-", "Bicyclo[3.1.1]heptan-3-ol, 2,6,6-trimethyl-, [1S-(1\u03b1,2\u03b2,3\u03b1,5\u03b1)]-", "(1S,2S,3S,5R)-2,6,6-Trimethylbicyclo[3.1.1]heptan-3-ol", "(+)-Isopinocampheol", "(1S,2S,3S,5R)-Isopinocampheol", "(1S,2S,3S,5R)-(+)-Isopinocampheol", "(1S,2S,3S,5R)-2,6,6-Trimethylbicyclo[3.1.1]heptan-3-ol", "(1S,2S,3S,5R)-(+)-Isopinocampheol"], "SMILES": "CC1(C)C2CC1CC(O)C2C", "physical_data": {"Molecular Weight": "154.25", "Molecular Formula": "C10H18O", "Melting Point": "57 \u00b0C", "Density": "0.862 g/cm\u00b3 @ Temp: 15 \u00b0C"}}