{"cas_no": "2404-35-5", "cn_name": "\u6eb4\u4ee3\u73af\u5e9a\u70f7", "en_name": ["Bromocycloheptane", "Cycloheptane, bromo-", "Bromocycloheptane", "Cycloheptyl bromide", "NSC 9472"], "SMILES": "BrC1CCCCCC1", "physical_data": {"Molecular Weight": "177.08", "Molecular Formula": "C7H13Br", "Boiling Point": "62.5 \u00b0C @ Press: 6 Torr", "Density": "1.2599 g/cm\u00b3 @ Temp: 15.7 \u00b0C"}}