{"cas_no": "2404-44-6", "cn_name": "1,2-\u4e8c\u7532\u57fa\u4e01\u7094\u916f", "en_name": ["1,2-Epoxydecane", "Oxirane, 2-octyl-", "Decane, 1,2-epoxy-", "Oxirane, octyl-", "2-Octyloxirane", "1,2-Decene epoxide", "1,2-Decylene oxide", "Octyloxirane", "1-Decene oxide", "1-Decene epoxide", "Vikolox 10", "1,2-Decene oxide", "1,2-Epoxydecane", "NSC 16197", "Octylepoxyethane"], "SMILES": "C(CCCCCCC)C1CO1", "physical_data": {"Molecular Weight": "156.27", "Molecular Formula": "C10H20O", "Boiling Point": "94 \u00b0C @ Press: 15 Torr", "Density": "0.8401 g/cm\u00b3 @ Temp: 20 \u00b0C"}}