{"cas_no": "240417-00-9", "cn_name": "2-\u4e8c\u82ef\u57fa\u78f7-2'-(N,N-\u4e8c\u7532\u6c28\u57fa)\u8054\u82ef", "en_name": ["2-(Diphenylphosphino)-2\u2032-(N,N-dimethylamino)biphenyl", "[1,1\u2032-Biphenyl]-2-amine, 2\u2032-(diphenylphosphino)-N,N-dimethyl-", "2\u2032-(Diphenylphosphino)-N,N-dimethyl[1,1\u2032-biphenyl]-2-amine", "2-(Dimethylamino)-2\u2032-(diphenylphosphino)biphenyl", "2\u2032-(Diphenylphosphino)-N,N\u2032-dimethyl(1,1\u2032-biphenyl)-2-amine", "2-(Diphenylphosphino)-2\u2032-(N,N-dimethylamino)biphenyl", "PhDavePhos", "2-(Dimethylamino)-2\u2032-(diphenylphosphino)-[1,1\u2032-biphenyl]", "2-(2-Diphenylphosphanylphenyl)-N,N-dimethylaniline"], "SMILES": "P(C1=C(C=CC=C1)C2=C(N(C)C)C=CC=C2)(C3=CC=CC=C3)C4=CC=CC=C4", "physical_data": {"Molecular Weight": "381.45", "Molecular Formula": "C26H24NP", "Melting Point": "124-126 \u00b0C"}}