{"cas_no": "2404-87-7", "cn_name": "3-\u82ef\u57fa\u567b\u5429", "en_name": ["3-Phenylthiophene", "Thiophene, 3-phenyl-", "3-Phenylthiophene", "NSC 229334"], "SMILES": "C=1(C=CSC1)C2=CC=CC=C2", "physical_data": {"Molecular Weight": "160.24", "Molecular Formula": "C10H8S", "Boiling Point": "115-126 \u00b0C @ Press: 2 Torr", "Melting Point": "91-92 \u00b0C"}}