{"cas_no": "24050-16-6", "cn_name": "2-\u7532\u57fa\u567b\u5511\u70f7", "en_name": ["2-Methylthiazolidine", "Thiazolidine, 2-methyl-", "2-Methylthiazolidine", "2-Methyl-1,3-thiazolidine", "2-Methyltetrahydrothiazole"], "SMILES": "CC1NCCS1", "physical_data": {"Molecular Weight": "103.19", "Molecular Formula": "C4H9NS", "Boiling Point": "76-77 \u00b0C @ Press: 36 Torr"}}