{"cas_no": "24056-34-6", "cn_name": "4-\u7f9f\u57fa\u73af\u5df1\u70f7\u7532\u8148", "en_name": ["4-Hydroxycyclohexanecarbonitrile", "Cyclohexanecarbonitrile, 4-hydroxy-", "4-Hydroxycyclohexanecarbonitrile"], "SMILES": "C(#N)C1CCC(O)CC1", "physical_data": {"Molecular Weight": "125.17", "Molecular Formula": "C7H11NO", "Boiling Point": "153-154 \u00b0C @ Press: 12 Torr"}}