{"cas_no": "24057-28-1", "cn_name": "4-\u7532\u57fa\u82ef\u78fa\u9178\u5421\u5576", "en_name": ["Pyridinium p-toluenesulfonate", "Benzenesulfonic acid, 4-methyl-, compd. with pyridine (1:1)", "Pyridine, p-toluenesulfonate", "Pyridine, 4-methylbenzenesulfonate", "Pyridinium p-toluenesulfonate", "Pyridinium tosylate", "Pyridinium 4-toluenesulfonate", "PPTS", "Pyridinium p-tosylate", "4-Methylbenzenesulfonic acid pyridinium salt", "Pyridinum p-toluenesulfonate", "Pyridinium p-toluensulfonate"], "SMILES": "S(=O)(=O)(O)C1=CC=C(C)C=C1.C=1C=CN=CC1", "physical_data": {"Molecular Weight": "", "Molecular Formula": "C7H8O3S.C5H5N", "Melting Point": "113-115 \u00b0C"}}