{"cas_no": "24065-33-6", "cn_name": "2-\u6c2f\u567b\u5429-5-\u7532\u9178", "en_name": ["5-Chloro-2-thiophenecarboxylic acid", "2-Thiophenecarboxylic acid, 5-chloro-", "5-Chloro-2-thiophenecarboxylic acid", "2-Chloro-5-carboxythiophene", "NSC 14776", "5-Chlorothiophen-2-carboxylic acid", "2-Chloro-5-thiophenecarboxylic acid"], "SMILES": "C(O)(=O)C=1SC(Cl)=CC1", "physical_data": {"Molecular Weight": "162.59", "Molecular Formula": "C5H3ClO2S", "Melting Point": "146-147 \u00b0C"}}