{"cas_no": "2406-34-0", "cn_name": "1,1-\u4e8c\u6c2f\u7845\u6742\u73af\u5df1\u70f7", "en_name": ["1,1-Dichlorosilacyclohexane", "Silacyclohexane, 1,1-dichloro-", "1,1-Dichlorosilacyclohexane", "Cyclopentamethylenedichlorosilane", "1,1-Dichloro-1-silacyclohexane", "NSC 139832", "1,1-Dichlorosilinane"], "SMILES": "Cl[Si]1(Cl)CCCCC1", "physical_data": {"Molecular Weight": "169.12", "Molecular Formula": "C5H10Cl2Si", "Boiling Point": "169.5-170.5 \u00b0C @ Press: 751 Torr", "Density": "1.1668 g/cm\u00b3 @ Temp: 10.1 \u00b0C"}}