{"cas_no": "24066-82-8", "cn_name": "\u5f02\u786b\u6c30\u57fa\u4e59\u9178\u4e59\u916f", "en_name": ["Ethyl 2-isothiocyanatoacetate", "Acetic acid, 2-isothiocyanato-, ethyl ester", "Acetic acid, isothiocyanato-, ethyl ester", "Ethyl 2-isothiocyanatoacetate", "Carbethoxymethyl isothiocyanate", "Carboethoxymethyl isothiocyanate", "Ethyl isothiocyanatoacetate", "Ethoxycarbonylmethyl isothiocyanate", "Isothiocyanatoacetic acid ethyl ester"], "SMILES": "C(CN=C=S)(OCC)=O", "physical_data": {"Molecular Weight": "145.18", "Molecular Formula": "C5H7NO2S", "Boiling Point": "215 \u00b0C", "Density": "1.1710 g/cm\u00b3 @ Temp: 20 \u00b0C"}}