{"cas_no": "24063-71-6", "cn_name": "\u5f02\u83aa\u672f\u70ef\u9187", "en_name": ["Isocurcumenol", "6H-3a,6-Epoxyazulen-6-ol, octahydro-3-methyl-8-methylene-5-(1-methylethylidene)-, (3S,3aS,6R,8aS)-", "5\u03b2-Guaia-7(11),10(14)-dien-8\u03b1-ol, 5,8-epoxy-, (+)-", "6H-3a,6-Epoxyazulen-6-ol, octahydro-3-methyl-8-methylene-5-(1-methylethylidene)-, [3S-(3\u03b1,3a\u03b1,6\u03b1,8a\u03b2)]-", "(3S,3aS,6R,8aS)-Octahydro-3-methyl-8-methylene-5-(1-methylethylidene)-6H-3a,6-epoxyazulen-6-ol", "(+)-Isocurcumenol", "Isocurcumenol", "Isocurcumenol, (+)-"], "SMILES": "CC1C23C(C(=C)CC(O)(O2)C(=C(C)C)C3)CC1", "physical_data": {"Molecular Weight": "234.33", "Molecular Formula": "C15H22O2", "Melting Point": "142-143 \u00b0C"}}