{"cas_no": "2406-33-9", "cn_name": "\u7845\u6742\u73af\u620a\u70f7,1,1-\u4e8c\u6c2f-", "en_name": ["1,1-Dichlorosilacyclopentane", "Silacyclopentane, 1,1-dichloro-", "1,1-Dichlorosilacyclopentane", "1,1-Dichloro-1-silacyclopentane", "NSC 252157", "Cyclotetramethylenedichlorosilane", "1,1-Dichlorosilolane"], "SMILES": "Cl[Si]1(Cl)CCCC1", "physical_data": {"Molecular Weight": "155.10", "Molecular Formula": "C4H8Cl2Si", "Boiling Point": "142-143 \u00b0C", "Melting Point": "139-141 \u00b0C", "Density": "1.185 g/cm\u00b3"}}