{"cas_no": "24078-21-5", "cn_name": "3-\u7532\u57fa-4-\u785d\u57fa\u82ef\u7532\u9178\u7532\u916f", "en_name": ["Benzoic acid, 3-methyl-4-nitro-, methyl ester", "Benzoic acid, 3-methyl-4-nitro-, methyl ester", "m-Toluic acid, 4-nitro-, methyl ester", "Methyl 3-methyl-4-nitrobenzoate", "NSC 92763", "3-Methyl-4-nitrobenzoic acid methyl ester"], "SMILES": "C(OC)(=O)C1=CC(C)=C(N(=O)=O)C=C1", "physical_data": {"Molecular Weight": "195.17", "Molecular Formula": "C9H9NO4", "Melting Point": "78-79 \u00b0C"}}