{"cas_no": "2407-11-6", "cn_name": "2-\u6c2f-6-\u785d\u57fa\u82ef\u5e76\u567b\u5511", "en_name": ["2-Chloro-6-nitrobenzothiazole", "Benzothiazole, 2-chloro-6-nitro-", "2-Chloro-6-nitrobenzothiazole", "6-Nitro-2-chlorobenzothiazole", "NSC 503418", "2-Chloro-6-nitro-1,3-benzothiazole", "2-Chloro-6-nitrobenzo[d]thiazole"], "SMILES": "N(=O)(=O)C=1C=C2C(=CC1)N=C(Cl)S2", "physical_data": {"Molecular Weight": "214.63", "Molecular Formula": "C7H3ClN2O2S", "Melting Point": "192 \u00b0C"}}