{"cas_no": "2407-68-3", "cn_name": "3-(\u4e8c\u7532\u57fa\u6c28)\u4e19\u70ef\u8148", "en_name": ["3-(Dimethylamino)acrylonitrile", "2-Propenenitrile, 3-(dimethylamino)-", "Acrylonitrile, 3-(dimethylamino)-", "3-(Dimethylamino)-2-propenenitrile", "3-(Dimethylamino)acrylonitrile", "\u03b2-(Dimethylamino)acrylonitrile", "NSC 127942", "3-Dimethylaminoprop-2-enenitrile", "N,N-Dimethylaminoacrylonitrile"], "SMILES": "C(N(C)C)=CC#N", "physical_data": {"Molecular Weight": "96.13", "Molecular Formula": "C5H8N2", "Boiling Point": "85 \u00b0C @ Press: 12 Torr", "Density": "0.9488 g/cm\u00b3 @ Temp: 20 \u00b0C"}}