{"cas_no": "24072-75-1", "cn_name": "2-\u6c28\u57fa-5,6-\u4e8c\u6c2f\u82ef\u5e76\u567b\u5511", "en_name": ["2-Amino-5,6-dichlorobenzothiazole", "2-Benzothiazolamine, 5,6-dichloro-", "Benzothiazole, 2-amino-5,6-dichloro-", "5,6-Dichloro-2-benzothiazolamine", "2-Amino-5,6-dichlorobenzothiazole", "5,6-Dichloro-2-aminobenzothiazole", "5,6-Dichloro-1,3-benzothiazol-2-ylamine"], "SMILES": "ClC=1C=C2C(=CC1Cl)SC(N)=N2", "physical_data": {"Molecular Weight": "219.09", "Molecular Formula": "C7H4Cl2N2S", "Melting Point": "218-219 \u00b0C"}}