{"cas_no": "24085-05-0", "cn_name": "3'-\u6c2f\u7532\u57fa-4'-\u7f9f\u57fa\u82ef\u4e59\u916e", "en_name": ["1-[3-(Chloromethyl)-4-hydroxyphenyl]ethanone", "Ethanone, 1-[3-(chloromethyl)-4-hydroxyphenyl]-", "Acetophenone, 3\u2032-(chloromethyl)-4\u2032-hydroxy-", "1-[3-(Chloromethyl)-4-hydroxyphenyl]ethanone", "3-(Chloromethyl)-4-hydroxyacetophenone", "3\u2032-Chloromethyl-4\u2032-hydroxyacetophenone", "3-Chloromethyl-4-hydroxyphenyl methyl ketone", "1-[3-(Chloromethyl)-4-hydroxyphenyl]ethan-1-one"], "SMILES": "C(Cl)C1=CC(C(C)=O)=CC=C1O", "physical_data": {"Molecular Weight": "184.62", "Molecular Formula": "C9H9ClO2", "Melting Point": "160 \u00b0C (decomp)"}}