{"cas_no": "2408-20-0", "cn_name": "\u4e19\u9178-2-\u4e19\u70ef\u916f", "en_name": ["Allyl propionate", "Propanoic acid, 2-propen-1-yl ester", "Propionic acid, allyl ester", "Propanoic acid, 2-propenyl ester", "Allyl propionate", "2-Propenyl propanoate", "Allyl propanoate", "NSC 7620", "Propanoic acid 2-propen-1-yl ester"], "SMILES": "C(OCC=C)(CC)=O", "physical_data": {"Molecular Weight": "114.14", "Molecular Formula": "C6H10O2", "Boiling Point": "124 \u00b0C", "Density": "0.9245 g/cm\u00b3 @ Temp: 20 \u00b0C"}}