{"cas_no": "24085-06-1", "cn_name": "4-\u7f9f\u57fa-3-\u7f9f\u7532\u57fa\u82ef\u4e59\u916e\u4e8c\u4e59\u9178\u916f", "en_name": ["1-[4-(Acetyloxy)-3-[(acetyloxy)methyl]phenyl]ethanone", "Ethanone, 1-[4-(acetyloxy)-3-[(acetyloxy)methyl]phenyl]-", "Acetophenone, 4\u2032-hydroxy-3\u2032-(hydroxymethyl)-, diacetate", "1-[4-(Acetyloxy)-3-[(acetyloxy)methyl]phenyl]ethanone", "4-Acetoxy-3-((acetoxy)methyl)acetophenone", "2-Acetoxy-5-acetylbenzyl acetate", "[5-Acetyl-2-(acetyloxy)phenyl]methyl acetate"], "SMILES": "C(OC(C)=O)C1=C(OC(C)=O)C=CC(C(C)=O)=C1", "physical_data": {"Molecular Weight": "250.25", "Molecular Formula": "C13H14O5", "Boiling Point": "150-160 \u00b0C @ Press: 0.3 Torr"}}