{"cas_no": "2408-70-0", "cn_name": "2,4,6-\u4e09\u6eb4\u5421\u5576", "en_name": ["2,4,6-Tribromopyridine", "Pyridine, 2,4,6-tribromo-", "2,4,6-Tribromopyridine"], "SMILES": "BrC=1C=C(Br)N=C(Br)C1", "physical_data": {"Molecular Weight": "315.79", "Molecular Formula": "C5H2Br3N", "Melting Point": "107 \u00b0C"}}