{"cas_no": "24083-13-4", "cn_name": "4-\u8f9b\u6c27\u57fa\u82ef\u7532\u919b", "en_name": ["4-(Octyloxy)benzaldehyde", "Benzaldehyde, 4-(octyloxy)-", "Benzaldehyde, p-(octyloxy)-", "4-(Octyloxy)benzaldehyde", "p-(Octyloxy)benzaldehyde", "4-(n-Octyloxy)benzaldehyde"], "SMILES": "O(CCCCCCCC)C1=CC=C(C=O)C=C1", "physical_data": {"Molecular Weight": "234.33", "Molecular Formula": "C15H22O2", "Boiling Point": "162-163 \u00b0C"}}