{"cas_no": "2408-37-9", "cn_name": "2,2,6-\u4e09\u7532\u57fa\u73af\u5e9a\u70f7", "en_name": ["2,2,6-Trimethylcyclohexanone", "Cyclohexanone, 2,2,6-trimethyl-", "2,2,6-Trimethylcyclohexanone", "1,1,3-Trimethyl-2-cyclohexanone", "2,6,6-Trimethylcyclohexanone", "2,2,6-Trimethylcyclohexan-1-one", "NSC 401659"], "SMILES": "O=C1C(C)(C)CCCC1C", "physical_data": {"Molecular Weight": "140.22", "Molecular Formula": "C9H16O", "Boiling Point": "178.5 \u00b0C", "Melting Point": "-31.8 \u00b0C", "Density": "0.922 g/cm\u00b3 @ Temp: 0 \u00b0C"}}