{"cas_no": "2409-52-1", "cn_name": "\u8863\u5eb7\u9178\u4e8c\u4e59\u916f(\u542b\u7a33\u5b9a\u5242TBC)", "en_name": ["1,4-Diethyl 2-methylenebutanedioate", "Butanedioic acid, 2-methylene-, 1,4-diethyl ester", "Succinic acid, methylene-, diethyl ester", "Butanedioic acid, methylene-, diethyl ester", "Itaconic acid, diethyl ester", "1,4-Diethyl 2-methylenebutanedioate", "Diethyl itaconate", "Ethyl itaconate", "Diethyl methylenesuccinate", "NSC 1794", "NSC 67389", "(Methylene)butanedioic acid diethyl ester", "1,4-Diethyl 2-methylidenebutanedioate", "Biolift 22AR"], "SMILES": "C(C(C(OCC)=O)=C)C(OCC)=O", "physical_data": {"Molecular Weight": "186.21", "Molecular Formula": "C9H14O4", "Boiling Point": "228 \u00b0C", "Melting Point": "58.5 \u00b0C", "Density": "1.0459 g/cm\u00b3"}}