{"cas_no": "2409-61-2", "cn_name": "\u53cc(\u5bf9\u7532\u57fa\u82ef\u57fa)\u6c27\u5316\u81a6", "en_name": ["Bis(4-methylphenyl)phosphine oxide", "Phosphine oxide, bis(4-methylphenyl)-", "Phosphine oxide, di-p-tolyl-", "Bis(4-methylphenyl)phosphine oxide", "Bis-p-tolylphosphine oxide", "Di-p-tolylphosphine oxide", "Di(4-methylphenyl)phosphinous acid", "Bis(4-tolyl)phosphine oxide", "Di(para-tolyl)phosphine oxide", "1-Methyl-4-[(4-methylphenyl)-oxidophosphaniumyl]benzene"], "SMILES": "P(=O)(C1=CC=C(C)C=C1)C2=CC=C(C)C=C2", "physical_data": {"Molecular Weight": "230.24", "Molecular Formula": "C14H15OP", "Melting Point": "119-121 \u00b0C"}}