{"cas_no": "2409-55-4", "cn_name": "2-\u53d4\u4e01\u57fa\u5bf9\u7532\u82ef\u915a", "en_name": ["2-tert-Butyl-4-methylphenol", "Phenol, 2-(1,1-dimethylethyl)-4-methyl-", "p-Cresol, 2-tert-butyl-", "2-(1,1-Dimethylethyl)-4-methylphenol", "4-Methyl-2-tert-butylphenol", "2-tert-Butyl-4-methylphenol", "2-tert-Butyl-p-cresol", "o-tert-Butyl-p-cresol", "4-Methyl-2-(1,1-dimethylethyl)phenol", "4-Methyl-6-tert-butylphenol", "2-tert-Butyl-4-cresol", "NSC 60301", "6-tert-Butyl-4-methylphenol"], "SMILES": "C(C)(C)(C)C1=C(O)C=CC(C)=C1", "physical_data": {"Molecular Weight": "164.24", "Molecular Formula": "C11H16O", "Boiling Point": "237 \u00b0C", "Melting Point": "55 \u00b0C", "Density": "0.9247 g/cm\u00b3 @ Temp: 75 \u00b0C"}}