{"cas_no": "24100-18-3", "cn_name": "2-\u6eb4-3-\u7532\u6c27\u57fa\u5421\u5576", "en_name": ["2-Bromo-3-methoxypyridine", "Pyridine, 2-bromo-3-methoxy-", "2-Bromo-3-methoxypyridine"], "SMILES": "O(C)C1=C(Br)N=CC=C1", "physical_data": {"Molecular Weight": "188.02", "Molecular Formula": "C6H6BrNO", "Melting Point": "40-43 \u00b0C"}}