{"cas_no": "24106-05-6", "cn_name": "4'-\u6eb4-2'-\u7532\u57fa\u4e59\u9170\u82ef\u80fa", "en_name": ["N-(4-Bromo-2-methylphenyl)acetamide", "Acetamide, N-(4-bromo-2-methylphenyl)-", "o-Acetotoluidide, 4\u2032-bromo-", "N-(4-Bromo-2-methylphenyl)acetamide", "4-Bromo-2-methylacetanilide", "NSC 8062", "4-Acetamido-3-methyl-1-bromobenzene"], "SMILES": "N(C(C)=O)C1=C(C)C=C(Br)C=C1", "physical_data": {"Molecular Weight": "228.09", "Molecular Formula": "C9H10BrNO", "Melting Point": "156 \u00b0C"}}