{"cas_no": "2411-83-8", "cn_name": "2,3-\u4e8c\u7f9f\u57fa\u82ef\u7532\u9178\u7532\u916f", "en_name": ["Methyl 2,3-dihydroxybenzoate", "Benzoic acid, 2,3-dihydroxy-, methyl ester", "o-Pyrocatechuic acid, methyl ester", "Methyl 2,3-dihydroxybenzoate", "2,3-Dihydroxybenzoic acid methyl ester", "NSC 174147"], "SMILES": "C(OC)(=O)C1=C(O)C(O)=CC=C1", "physical_data": {"Molecular Weight": "168.15", "Molecular Formula": "C8H8O4", "Melting Point": "79-80 \u00b0C"}}