{"cas_no": "2411-36-1", "cn_name": "\u4e09\u5e9a\u80fa", "en_name": ["Triheptylamine", "1-Heptanamine, N,N-diheptyl-", "Triheptylamine", "N,N-Diheptyl-1-heptanamine", "Tri-n-heptylamine"], "SMILES": "N(CCCCCCC)(CCCCCCC)CCCCCCC", "physical_data": {"Molecular Weight": "311.59", "Molecular Formula": "C21H45N", "Boiling Point": "330 \u00b0C"}}