{"cas_no": "24123-14-6", "cn_name": "N-(2-\u6c28\u4e59\u57fa)\u7518\u6c28\u9178", "en_name": ["N-(2-Aminoethyl)glycine", "Glycine, N-(2-aminoethyl)-", "N-(2-Aminoethyl)glycine", "Ethylenediaminemonoacetic acid", "Ethylenediamine-N-acetic acid", "3,6-Diazahexanoic acid", "N-(\u03b2-Aminoethyl)glycine", "2-(2-Aminoethylamino)acetic acid", "2-(2-Azaniumylethylamino)acetate"], "SMILES": "C(NCCN)C(O)=O", "physical_data": {"Molecular Weight": "118.13", "Molecular Formula": "C4H10N2O2", "Melting Point": "159-161 \u00b0C"}}