{"cas_no": "24134-26-7", "cn_name": "2,3-\u4e8c\u6c22-1H-\u82ef\u5e76[D]\u54aa\u5511\u5e76[1,2-A]\u54aa\u5511", "en_name": ["2,9-Dihydro-3H-imidazo[1,2-a]benzimidazole", "3H-Imidazo[1,2-a]benzimidazole, 2,9-dihydro-", "1H-Imidazo[1,2-a]benzimidazole, 2,3-dihydro-", "2,9-Dihydro-3H-imidazo[1,2-a]benzimidazole", "2,8-Dihydro-3H-1,3a,8-triaza-cyclopenta[a]indene", "2,3-Dihydro-1H-benzo[d]imidazo[1,2-a]imidazole", "2,4-Dihydro-1H-imidazo[1,2-a]benzimidazole"], "SMILES": "N12C=3C(NC1=NCC2)=CC=CC3", "physical_data": {"Molecular Weight": "159.19", "Molecular Formula": "C9H9N3", "Melting Point": "198-200 \u00b0C"}}