{"cas_no": "2413-38-9", "cn_name": "\u76d0\u9178\u6c1f\u54cc\u567b\u5428", "en_name": ["Flupentixol dihydrochloride", "1-Piperazineethanol, 4-[3-[2-(trifluoromethyl)-9H-thioxanthen-9-ylidene]propyl]-, hydrochloride (1:2)", "1-Piperazineethanol, 4-[3-[2-(trifluoromethyl)thioxanthen-9-ylidene]propyl]-, dihydrochloride", "1-Piperazineethanol, 4-[3-[2-(trifluoromethyl)-9H-thioxanthen-9-ylidene]propyl]-, dihydrochloride", "FX 703", "Flupentixol dihydrochloride", "Flupentixol hydrochloride", "Emergil", "Siplarol", "Metamin"], "SMILES": "C(CCN1CCN(CCO)CC1)=C2C=3C(SC=4C2=CC=CC4)=CC=C(C(F)(F)F)C3.Cl", "physical_data": {"Molecular Weight": "", "Molecular Formula": "C23H25F3N2OS.2ClH", "Melting Point": "237-239 \u00b0C"}}