{"cas_no": "2414-98-4", "cn_name": "\u4e59\u9187\u9541", "en_name": ["Magnesium ethoxide", "Ethanol, magnesium salt (2:1)", "Ethyl alcohol, magnesium salt", "Magnesium ethoxide", "Ethanol, magnesium salt", "Diethoxymagnesium", "Magnesium diethoxide", "Magnesium ethanolate", "Magnesium ethylate", "Magnesium ethoxide Mg(OC2H5)2", "Magnesium ethanoate", "Catylene 102"], "SMILES": "C(C)O.[Mg]", "physical_data": {"Molecular Weight": "", "Molecular Formula": "C2H6O.<sup>1</sup>/2Mg", "Melting Point": "270 \u00b0C (decomp)", "Density": "1.010 g/cm\u00b3"}}