{"cas_no": "24144-92-1", "cn_name": "2,3',4,5'-\u56db\u7532\u6c27\u57fa\u4e8c\u82ef\u4e59\u70ef", "en_name": ["1-[(1E)-2-(3,5-Dimethoxyphenyl)ethenyl]-2,4-dimethoxybenzene", "Benzene, 1-[(1E)-2-(3,5-dimethoxyphenyl)ethenyl]-2,4-dimethoxy-", "Stilbene, 2,3\u2032,4,5\u2032-tetramethoxy-, (E)-", "Benzene, 1-[2-(3,5-dimethoxyphenyl)ethenyl]-2,4-dimethoxy-, (E)-", "1-[(1E)-2-(3,5-Dimethoxyphenyl)ethenyl]-2,4-dimethoxybenzene", "SMB 00388"], "SMILES": "C(=CC1=C(OC)C=C(OC)C=C1)C2=CC(OC)=CC(OC)=C2", "physical_data": {"Molecular Weight": "300.35", "Molecular Formula": "C18H20O4", "Melting Point": "78-79 \u00b0C"}}