{"cas_no": "24155-42-8", "cn_name": "\u54aa\u5511\u4e59\u9187", "en_name": ["(\u00b1)-\u03b1-(2,4-Dichlorophenyl)-1H-imidazole-1-ethanol", "1H-Imidazole-1-ethanol, \u03b1-(2,4-dichlorophenyl)-", "Imidazole-1-ethanol, \u03b1-(2,4-dichlorophenyl)-", "\u03b1-(2,4-Dichlorophenyl)-1H-imidazole-1-ethanol", "1-(2,4-Dichlorophenyl)-2-(1-imidazolyl)ethanol", "T 824", "1-(2,4-Dichlorophenyl)-2-(1H-imidazol-1-yl)ethanol", "R 14821", "FI 7001", "UK 11147", "(\u00b1)-\u03b1-(2,4-Dichlorophenyl)-1H-imidazole-1-ethanol", "1-(2,4-Dichlorophenyl)-2-(1H-imidazol-1-yl)ethan-1-ol"], "SMILES": "C(CN1C=CN=C1)(O)C2=C(Cl)C=C(Cl)C=C2", "physical_data": {"Molecular Weight": "257.12", "Molecular Formula": "C11H10Cl2N2O", "Melting Point": "134 \u00b0C"}}