{"cas_no": "24151-93-7", "cn_name": "\u54cc\u8349\u78f7", "en_name": ["Piperophos", "Phosphorodithioic acid, S-[2-(2-methyl-1-piperidinyl)-2-oxoethyl] O,O-dipropyl ester", "Phosphorodithioic acid, O,O-dipropyl ester, S-ester with 1-(mercaptoacetyl)-2-pipecoline", "2-Pipecoline, 1-(mercaptoacetyl)-, S-ester with O,O-dipropyl phosphorodithioate", "C 19490", "N-(O,O-Dipropyl-dithiophosphorylacetyl)-2-methylpiperidine", "S-(2-Methyl-1-piperidylcarbonylmethyl) O,O-dipropyl phosphorodithioate", "Piperophos"], "SMILES": "C(CSP(OCCC)(OCCC)=S)(=O)N1C(C)CCCC1", "physical_data": {"Molecular Weight": "353.48", "Molecular Formula": "C14H28NO3PS2", "Boiling Point": "&gt;250 \u00b0C", "Melting Point": "&lt;25 \u00b0C"}}