{"cas_no": "24152-96-3", "cn_name": "2-\u6c28\u57fa-1-\u5417\u5549-4-\u57fa-\u4e59\u916e.\u76d0\u9178", "en_name": ["Ethanone, 2-amino-1-(4-morpholinyl)-, hydrochloride (1:1)", "Ethanone, 2-amino-1-(4-morpholinyl)-, hydrochloride (1:1)", "Morpholine, 4-glycyl-, monohydrochloride", "Morpholine, 4-(aminoacetyl)-, monohydrochloride", "Morpholine, 4-glycyl-, hydrochloride", "2-Amino-1-(morpholin-4-yl)ethanone hydrochloride", "2-Amino-1-morpholinoethanone hydrochloride", "2-Amino-1-(morpholin-4-yl)ethan-1-one hydrochloride"], "SMILES": "C(CN)(=O)N1CCOCC1.Cl", "physical_data": {"Molecular Weight": "", "Molecular Formula": "C6H12N2O2.ClH", "Melting Point": "238 \u00b0C"}}