{"cas_no": "24158-88-1", "cn_name": "\u8212\u5df4\u5766\u76f8\u5173\u7269\u8d28F", "en_name": ["(2S,5R)-6,6-Dibromo-3,3-dimethyl-7-oxo-4-thia-1-azabicyclo[3.2.0]heptane-2-carboxylic acid", "4-Thia-1-azabicyclo[3.2.0]heptane-2-carboxylic acid, 6,6-dibromo-3,3-dimethyl-7-oxo-, (2S,5R)-", "4-Thia-1-azabicyclo[3.2.0]heptane-2-carboxylic acid, 6,6-dibromo-3,3-dimethyl-7-oxo-, (2S-cis)-", "(2S,5R)-6,6-Dibromo-3,3-dimethyl-7-oxo-4-thia-1-azabicyclo[3.2.0]heptane-2-carboxylic acid", "6,6-Dibromopenicillanic acid"], "SMILES": "C(O)(=O)C1N2C(C(Br)(Br)C2=O)SC1(C)C", "physical_data": {"Molecular Weight": "359.04", "Molecular Formula": "C8H9Br2NO3S", "Melting Point": "142-145 \u00b0C"}}