{"cas_no": "2415-24-9", "cn_name": "\u6893\u9187", "en_name": ["Catalpol", "\u03b2-D-Glucopyranoside, (1aS,1bS,2S,5aR,6S,6aS)-1a,1b,2,5a,6,6a-hexahydro-6-hydroxy-1a-(hydroxymethyl)oxireno[4,5]cyclopenta[1,2-c]pyran-2-yl", "Catalpol", "\u03b2-D-Glucopyranoside, 1a,1b,2,5a,6,6a-hexahydro-6-hydroxy-1a-(hydroxymethyl)oxireno[4,5]cyclopenta[1,2-c]pyran-2-yl, [1aS-(1a\u03b1,1b\u03b2,2\u03b2,5a\u03b2,6\u03b2,6a\u03b1)]-", "(1aS,1bS,2S,5aR,6S,6aS)-1a,1b,2,5a,6,6a-Hexahydro-6-hydroxy-1a-(hydroxymethyl)oxireno[4,5]cyclopenta[1,2-c]pyran-2-yl \u03b2-D-glucopyranoside", "Catalpinoside", "De(p-hydroxybenzoyl)catalposide", "Catapol", "Aucubin 7,8-epoxide", "7,8-Epoxyaucubin"], "SMILES": "C(O)C12C3C(C(O)C1O2)C=COC3OC4OC(CO)C(O)C(O)C4O", "physical_data": {"Molecular Weight": "362.33", "Molecular Formula": "C15H22O10", "Melting Point": "207 \u00b0C"}}