{"cas_no": "24157-81-1", "cn_name": "2,6-\u4e8c\u5f02\u4e19\u57fa\u8418", "en_name": ["2,6-Diisopropylnaphthalene", "Naphthalene, 2,6-bis(1-methylethyl)-", "Naphthalene, 2,6-diisopropyl-", "2,6-Bis(1-methylethyl)naphthalene", "2,6-Diisopropylnaphthalene", "NSC 166467", "2,6-Di(propan-2-yl)naphthalene"], "SMILES": "C(C)(C)C1=CC2=C(C=C(C(C)C)C=C2)C=C1", "physical_data": {"Molecular Weight": "212.33", "Molecular Formula": "C16H20", "Melting Point": "66.8 \u00b0C"}}