{"cas_no": "24159-07-7", "cn_name": "\u5e38\u5c71\u4e59\u7d20", "en_name": ["3-[3-[(2R,3S)-3-Hydroxy-2-piperidinyl]-2-oxopropyl]-4(3H)-quinazolinone", "4(3H)-Quinazolinone, 3-[3-[(2R,3S)-3-hydroxy-2-piperidinyl]-2-oxopropyl]-", "Febrifugine", "3-[3-[(2R,3S)-3-Hydroxy-2-piperidinyl]-2-oxopropyl]-4(3H)-quinazolinone", "\u03b2-Dichroine", "Dichroin B", "\u03b2-Dichroin", "(+)-Febrifugine", "NSC 315535", "trans-(+)-Febrifugine"], "SMILES": "O=C1C=2C(N=CN1CC(CC3C(O)CCCN3)=O)=CC=CC2", "physical_data": {"Molecular Weight": "301.34", "Molecular Formula": "C16H19N3O3", "Melting Point": "145 \u00b0C"}}