{"cas_no": "2415-80-7", "cn_name": "(2,2-\u4e8c\u6c2f\u73af\u4e19\u57fa)\u82ef", "en_name": ["1,1-Dichloro-2-phenylcyclopropane", "Benzene, (2,2-dichlorocyclopropyl)-", "(2,2-Dichlorocyclopropyl)benzene", "1,1-Dichloro-2-phenylcyclopropane", "2,2-Dichloro-1-phenylcyclopropane", "2-Phenyl-1,1-dichlorocyclopropane", "(\u00b1)-(2,2-Dichlorocyclopropyl)benzene", "NSC 3003"], "SMILES": "ClC1(Cl)C(C1)C2=CC=CC=C2", "physical_data": {"Molecular Weight": "187.07", "Molecular Formula": "C9H8Cl2", "Boiling Point": "114 \u00b0C @ Press: 13 Torr", "Density": "1.2263 g/cm\u00b3 @ Temp: 20 \u00b0C"}}