{"cas_no": "2415-85-2", "cn_name": "4'-\u7532\u57fa\u4e59\u9170\u4e59\u9170\u82ef\u80fa", "en_name": ["N-(4-Methylphenyl)-3-oxobutanamide", "Butanamide, N-(4-methylphenyl)-3-oxo-", "p-Acetoacetotoluidide", "N-(4-Methylphenyl)-3-oxobutanamide", "Acetoacet-p-toluidide", "4\u2032-Methylacetoacetanilide", "Acetoacetic acid p-toluidide", "p-Methylacetoacetanilide", "NSC 50631", "1-(4-Methylphenylamino)buta-1,3-dione", "N-(4-Methylphenyl)acetylacetamide", "N-(p-Methylphenyl)-2-acetylacetamide", "3-Oxo-N-(p-tolyl)butanamide"], "SMILES": "N(C(CC(C)=O)=O)C1=CC=C(C)C=C1", "physical_data": {"Molecular Weight": "191.23", "Molecular Formula": "C11H13NO2", "Melting Point": "94-95 \u00b0C"}}