{"cas_no": "24168-96-5", "cn_name": "\u785d\u9178\u5f02\u5eb7\u5511", "en_name": ["Isoconazole nitrate", "1H-Imidazole, 1-[2-(2,4-dichlorophenyl)-2-[(2,6-dichlorophenyl)methoxy]ethyl]-, nitrate (1:1)", "Imidazole, 1-[2,4-dichloro-\u03b2-[(2,6-dichlorobenzyl)oxy]phenethyl]-, mononitrate", "1H-Imidazole, 1-[2-(2,4-dichlorophenyl)-2-[(2,6-dichlorophenyl)methoxy]ethyl]-, mononitrate", "Isoconazole nitrate", "Adestan G 100", "Gyno-Travogen", "Fazol", "Travogen", "R 15454", "Travogyn"], "SMILES": "N(=O)(=O)O.C(CN1C=CN=C1)(OCC2=C(Cl)C=CC=C2Cl)C3=C(Cl)C=C(Cl)C=C3", "physical_data": {"Molecular Weight": "", "Molecular Formula": "C18H14Cl4N2O.HNO3", "Melting Point": "182-183 \u00b0C"}}