{"cas_no": "24160-53-0", "cn_name": "2,4,5-\u4e09\u7532\u6c27\u57fa\u8089\u6842\u9178", "en_name": ["3-(2,4,5-Trimethoxyphenyl)-2-propenoic acid", "2-Propenoic acid, 3-(2,4,5-trimethoxyphenyl)-", "Cinnamic acid, 2,4,5-trimethoxy-", "3-(2,4,5-Trimethoxyphenyl)-2-propenoic acid", "2,4,5-Trimethoxycinnamic acid", "NSC 89300"], "SMILES": "C(=CC(O)=O)C1=C(OC)C=C(OC)C(OC)=C1", "physical_data": {"Molecular Weight": "238.24", "Molecular Formula": "C12H14O5", "Melting Point": "163-165 \u00b0C"}}