{"cas_no": "2416-94-6", "cn_name": "2,3,6-\u4e09\u7532\u57fa\u82ef\u915a", "en_name": ["2,3,6-Trimethylphenol", "Phenol, 2,3,6-trimethyl-", "2,3,6-Trimethylphenol", "3-Hydroxypseudocumene", "NSC 91509"], "SMILES": "CC1=C(O)C(C)=CC=C1C", "physical_data": {"Molecular Weight": "136.19", "Molecular Formula": "C9H12O", "Boiling Point": "226 \u00b0C", "Melting Point": "58 \u00b0C"}}