{"cas_no": "24160-36-9", "cn_name": "3-\u7f9f\u57fa\u7f8a\u6bdb\u753e-8,24-\u4e8c\u70ef-21-\u9178", "en_name": ["Trametenolic acid", "Lanosta-8,24-dien-21-oic acid, 3-hydroxy-, (3\u03b2)-", "Lanosta-8,24-dien-21-oic acid, 3\u03b2-hydroxy-", "5\u03b1-Lanosta-8,24-dien-21-oic acid, 3\u03b2-hydroxy-", "(3\u03b2)-3-Hydroxylanosta-8,24-dien-21-oic acid", "3\u03b2-Hydroxylanosta-8,24-dien-21-oic acid", "Trametenolic acid", "Trametenolic acid B", "(+)-Trametenolic acid B", "3\u03b2-Hydroxy-5\u03b1-lanosta-8,24-dien-21-oic acid", "3\u03b2-Hydroxylanosta-8,24-dien-21-acid"], "SMILES": "CC12C3=C(C4(C)C(CC3)C(C)(C)C(O)CC4)CCC1(C)C(C(CCC=C(C)C)C(O)=O)CC2", "physical_data": {"Molecular Weight": "456.70", "Molecular Formula": "C30H48O3", "Melting Point": "259-261 \u00b0C"}}