{"cas_no": "24167-56-4", "cn_name": "N,N-\u4e8c\u7532\u57fa-4-\u6c1f\u82ef\u7532\u9170\u80fa", "en_name": ["4-Fluoro-N,N-dimethylbenzamide", "Benzamide, 4-fluoro-N,N-dimethyl-", "Benzamide, p-fluoro-N,N-dimethyl-", "4-Fluoro-N,N-dimethylbenzamide", "p-Fluoro-N,N-dimethylbenzamide", "N,N-Dimethyl-4-fluorobenzamide"], "SMILES": "C(N(C)C)(=O)C1=CC=C(F)C=C1", "physical_data": {"Molecular Weight": "167.18", "Molecular Formula": "C9H10FNO", "Melting Point": "64 \u00b0C"}}