{"cas_no": "2417-77-8", "cn_name": "9-\u6eb4\u7532\u57fa\u84bd", "en_name": ["9-(Bromomethyl)anthracene", "Anthracene, 9-(bromomethyl)-", "9-(Bromomethyl)anthracene"], "SMILES": "C(Br)C=1C2=C(C=C3C1C=CC=C3)C=CC=C2", "physical_data": {"Molecular Weight": "271.15", "Molecular Formula": "C15H11Br", "Melting Point": "136-136.5 \u00b0C"}}