{"cas_no": "24173-71-5", "cn_name": "KOBUSONE", "en_name": ["(-)-Kobusone", "5-Oxatricyclo[8.2.0.04,6]dodecan-9-one, 4,12,12-trimethyl-, (1R,4R,6R,10S)-", "5-Oxatricyclo[8.2.0.04,6]dodecan-9-one, 4,12,12-trimethyl-, (1R,4R,6R,10S)-(-)-", "5-Oxatricyclo[8.2.0.04,6]dodecan-9-one, 4,12,12-trimethyl-, [1R-(1R*,4R*,6R*,10S*)]-", "(1R,4R,6R,10S)-4,12,12-Trimethyl-5-oxatricyclo[8.2.0.04,6]dodecan-9-one", "Kobusone, (-)-", "6,7-Epoxy-12-norcaryophyllan-3-one", "(-)-Kobusone", "Kobusone"], "SMILES": "CC12C(O1)CCC(=O)C3C(CC2)C(C)(C)C3", "physical_data": {"Molecular Weight": "222.32", "Molecular Formula": "C14H22O2", "Melting Point": "50-52 \u00b0C"}}