{"cas_no": "2417-10-9", "cn_name": "2-\u7f9f\u57fa\u4e8c\u82ef\u919a", "en_name": ["2-Hydroxydiphenyl ether", "Phenol, 2-phenoxy-", "Phenol, o-phenoxy-", "2-Phenoxyphenol", "2-Hydroxydiphenyl ether", "o-Phenoxyphenol", "2-Hydroxyphenyl phenyl ether"], "SMILES": "O(C1=C(O)C=CC=C1)C2=CC=CC=C2", "physical_data": {"Molecular Weight": "186.21", "Molecular Formula": "C12H10O2", "Boiling Point": "151-155 \u00b0C @ Press: 11 Torr", "Melting Point": "106-107 \u00b0C", "Density": "1.0655 g/cm\u00b3 @ Temp: 25 \u00b0C"}}