{"cas_no": "2417-90-5", "cn_name": "3-\u6eb4\u4e19\u8148", "en_name": ["3-Bromopropionitrile", "Propanenitrile, 3-bromo-", "Propionitrile, 3-bromo-", "3-Bromopropanenitrile", "\u03b2-Bromopropionitrile", "3-Bromopropionitrile", "1-Bromo-2-cyanoethane", "2-Bromoethyl cyanide", "2-Cyanoethyl bromide", "NSC 8021"], "SMILES": "C(CBr)C#N", "physical_data": {"Molecular Weight": "133.97", "Molecular Formula": "C3H4BrN", "Boiling Point": "92 \u00b0C @ Press: 25 Torr", "Density": "1.6152 g/cm\u00b3 @ Temp: 20 \u00b0C"}}