{"cas_no": "24171-89-9", "cn_name": "\u4e09(2-\u567b\u5429\u57fa)\u81a6", "en_name": ["Tris(2-thienyl)phosphine", "Phosphine, tri-2-thienyl-", "Tri-2-thienylphosphine", "Tris(2-thienyl)phosphine"], "SMILES": "P(C1=CC=CS1)(C2=CC=CS2)C3=CC=CS3", "physical_data": {"Molecular Weight": "280.37", "Molecular Formula": "C12H9PS3", "Boiling Point": "178-179 \u00b0C @ Press: 0.02 Torr"}}