{"cas_no": "2417-04-1", "cn_name": "3,5,3',5'-\u56db\u7532\u57fa-4,4'-\u4e8c\u7f9f\u57fa\u8054\u82ef", "en_name": ["3,3\u2032,5,5\u2032-Tetramethyl[1,1\u2032-biphenyl]-4,4\u2032-diol", "[1,1\u2032-Biphenyl]-4,4\u2032-diol, 3,3\u2032,5,5\u2032-tetramethyl-", "4,4\u2032-Biphenyldiol, 3,3\u2032,5,5\u2032-tetramethyl-", "4,4\u2032-Bi-2,6-xylenol", "3,3\u2032,5,5\u2032-Tetramethyl[1,1\u2032-biphenyl]-4,4\u2032-diol", "3,3\u2032,5,5\u2032-Tetramethylbisphenol", "2,2\u2032,6,6\u2032-Tetramethyl-p,p\u2032-biphenol", "3,3\u2032,5,5\u2032-Tetramethyl-4,4\u2032-dihydroxybiphenyl", "4,4\u2032-Dihydroxy-3,3\u2032,5,5\u2032-tetramethylbiphenyl", "2,2\u2032,6,6\u2032-Tetramethylbiphenol", "TM-BPL", "NSC 128399", "NSC 93821", "4,4\u2032-Dihydroxy-3,3\u2032,5,5\u2032-tetramethyl bisphenol", "3,5,3\u2032,5\u2032-Tetramethylbiphenyl-4,4\u2032-diol", "TMBP"], "SMILES": "CC=1C=C(C=C(C)C1O)C2=CC(C)=C(O)C(C)=C2", "physical_data": {"Molecular Weight": "242.31", "Molecular Formula": "C16H18O2", "Melting Point": "221.8 \u00b0C"}}