{"cas_no": "2417-72-3", "cn_name": "4-\u6eb4\u7532\u57fa\u82ef\u7532\u9178\u7532\u916f", "en_name": ["Methyl 4-(bromomethyl)benzoate", "Benzoic acid, 4-(bromomethyl)-, methyl ester", "p-Toluic acid, \u03b1-bromo-, methyl ester", "Methyl p-(bromomethyl)benzoate", "p-(Bromomethyl)benzoic acid methyl ester", "p-(Carbomethoxy)benzyl bromide", "Methyl \u03b1-bromo-p-toluate", "p-(Methoxycarbonyl)benzyl bromide", "4-(Carbomethoxy)benzyl bromide", "\u03b1-Bromo-p-toluic acid methyl ester", "4-(Bromomethyl)benzoic acid methyl ester", "4-(Methoxycarbonyl)benzyl bromide", "Methyl 4-(bromomethyl)benzoate", "NSC 83959"], "SMILES": "C(OC)(=O)C1=CC=C(CBr)C=C1", "physical_data": {"Molecular Weight": "229.07", "Molecular Formula": "C9H9BrO2", "Boiling Point": "115-117 \u00b0C @ Press: 3 Torr", "Melting Point": "54-55 \u00b0C"}}