{"cas_no": "2418-14-6", "cn_name": "2,3-\u4e8c\u5def\u57fa\u4e01\u4e8c\u9178", "en_name": ["Dimercaptosuccinic acid", "Butanedioic acid, 2,3-dimercapto-", "Succinic acid, 2,3-dimercapto-", "2,3-Dimercaptobutanedioic acid", "Dimercaptosuccinic acid", "\u03b1,\u03b2-Dimercaptosuccinic acid", "2,3-Dimercaptosuccinic acid", "Asta 7512", "DMSA", "NSC 259951", "2,3-Disulfanylbutanedioic acid"], "SMILES": "C(C(C(O)=O)S)(C(O)=O)S", "physical_data": {"Molecular Weight": "182.22", "Molecular Formula": "C4H6O4S2", "Melting Point": "167-168 \u00b0C"}}