{"cas_no": "2418-52-2", "cn_name": "D-\u82cf\u7cd6\u9187", "en_name": ["D-Threitol", "1,2,3,4-Butanetetrol, (2R,3R)-", "Threitol, D-", "1,2,3,4-Butanetetrol, [R-(R*,R*)]-", "(2R,3R)-1,2,3,4-Butanetetrol", "D-Threitol"], "SMILES": "C(C(CO)O)(CO)O", "physical_data": {"Molecular Weight": "122.12", "Molecular Formula": "C4H10O4", "Melting Point": "89-91 \u00b0C"}}