{"cas_no": "24188-74-7", "cn_name": "7-\u6c2f-1-\u7f9f\u57fa\u5f02\u55b9\u5549", "en_name": ["7-Chloro-1(2H)-isoquinolinone", "1(2H)-Isoquinolinone, 7-chloro-", "Isocarbostyril, 7-chloro-", "7-Chloro-1(2H)-isoquinolinone", "7-Chloro-1(2H)-isoquinolone", "7-Chloro-1,2-dihydroisoquinolin-1-one", "7-Chloroisoquinolin-1-ol"], "SMILES": "O=C1C=2C(=CC=C(Cl)C2)C=CN1", "physical_data": {"Molecular Weight": "179.60", "Molecular Formula": "C9H6ClNO", "Melting Point": "245-247 \u00b0C"}}