{"cas_no": "24197-95-3", "cn_name": "4-[2-(\u4e8c\u7532\u57fa\u6c28\u57fa)\u4e59\u6c27\u57fa]\u82ef\u8148", "en_name": ["4-[2-(Dimethylamino)ethoxy]benzonitrile", "Benzonitrile, 4-[2-(dimethylamino)ethoxy]-", "Benzonitrile, p-[2-(dimethylamino)ethoxy]-", "4-[2-(Dimethylamino)ethoxy]benzonitrile"], "SMILES": "O(CCN(C)C)C1=CC=C(C#N)C=C1", "physical_data": {"Molecular Weight": "190.24", "Molecular Formula": "C11H14N2O", "Boiling Point": "135-150 \u00b0C @ Press: 1.0-1.5 Torr"}}