{"cas_no": "24198-97-8", "cn_name": "\u7d2b\u6749\u53f6\u7d20", "en_name": ["rel-(2R,3R)-2-(3,4-Dihydroxyphenyl)-2,3-dihydro-3,5,7-trihydroxy-4H-1-benzopyran-4-one", "4H-1-Benzopyran-4-one, 2-(3,4-dihydroxyphenyl)-2,3-dihydro-3,5,7-trihydroxy-, (2R,3R)-rel-", "4H-1-Benzopyran-4-one, 2-(3,4-dihydroxyphenyl)-2,3-dihydro-3,5,7-trihydroxy-, trans-(\u00b1)-", "rel-(2R,3R)-2-(3,4-Dihydroxyphenyl)-2,3-dihydro-3,5,7-trihydroxy-4H-1-benzopyran-4-one", "(\u00b1)-Taxifolin", "(\u00b1)-Dihydroquercetin"], "SMILES": "O=C1C=2C(OC(C1O)C3=CC(O)=C(O)C=C3)=CC(O)=CC2O", "physical_data": {"Molecular Weight": "304.25", "Molecular Formula": "C15H12O7", "Melting Point": "239-240 \u00b0C"}}