{"cas_no": "24195-07-1", "cn_name": "2-(\u7532\u6c27\u57fa\u7fb0\u9170)\u70df\u9178", "en_name": ["2-Methyl 2,3-pyridinedicarboxylate", "2,3-Pyridinedicarboxylic acid, 2-methyl ester", "2-Methyl 2,3-pyridinedicarboxylate", "2-(Methoxycarbonyl)pyridine-3-carboxylic acid", "Methyl 3-carboxypyridine-2-carboxylate", "Quinolinic acid \u03b1-methyl ester", "2-Carbomethoxynicotinic acid", "Quinolinic acid 2-methyl ester", "NSC 154834", "2-(Methoxycarbonyl)nicotinic acid"], "SMILES": "C(OC)(=O)C1=C(C(O)=O)C=CC=N1", "physical_data": {"Molecular Weight": "181.15", "Molecular Formula": "C8H7NO4", "Melting Point": "54-55 \u00b0C"}}