{"cas_no": "2419-73-0", "cn_name": "DL-1,4-\u4e8c\u6c2f-2,3-\u4e01\u4e8c\u9187", "en_name": ["1,4-Dichloro-2,3-butanediol", "2,3-Butanediol, 1,4-dichloro-", "1,4-Dichloro-2,3-butanediol"], "SMILES": "C(C(CCl)O)(CCl)O", "physical_data": {"Molecular Weight": "159.01", "Molecular Formula": "C4H8Cl2O2", "Boiling Point": "113-118 \u00b0C @ Press: 4 Torr", "Melting Point": "126.5 \u00b0C"}}