{"cas_no": "2419-56-9", "cn_name": "L-\u8c37\u6c28\u9178-5-\u53d4\u4e01\u57fa\u916f", "en_name": ["5-(1,1-Dimethylethyl) hydrogen L-glutamate", "L-Glutamic acid, 5-(1,1-dimethylethyl) ester", "Glutamic acid, 5-tert-butyl ester, L-", "Glutamic acid, 5-tert-butyl ester", "5-(1,1-Dimethylethyl) hydrogen L-glutamate", "L-Glutamic acid 5-tert-butyl ester", "Glutamic acid \u03b3-tert-butyl ester", "\u03b3-tert-Butyl glutamate", "L-Glutamic acid \u03b3-tert-butyl ester", "H-Glu(OtBu)-OH", "L-Glu(O-tBu)-OH", "\u03b3-tert-Butyl L-glutamic acid", "(2S)-2-Amino-5-[(2-methylpropan-2-yl)oxy]-5-oxopentanoic acid", "(2S)-2-Amino-5-(tert-butoxy)-5-oxopentanoic acid", "(2S)-2-Amino-5-tert-butoxy-5-oxopentanoic acid"], "SMILES": "C(CCC(C(O)=O)N)(OC(C)(C)C)=O", "physical_data": {"Molecular Weight": "203.24", "Molecular Formula": "C9H17NO4", "Boiling Point": "110 \u00b0C @ Press: 0.05 Torr", "Melting Point": "168-169 \u00b0C", "Density": "0.992 g/cm\u00b3 @ Temp: 20 \u00b0C"}}