{"cas_no": "2419-74-1", "cn_name": "1,4-\u4e8c\u6c2f-2-\u4e01\u9187", "en_name": ["1,4-Dichloro-2-butanol", "2-Butanol, 1,4-dichloro-", "1,4-Dichloro-2-butanol"], "SMILES": "C(CCCl)(CCl)O", "physical_data": {"Molecular Weight": "143.01", "Molecular Formula": "C4H8Cl2O", "Boiling Point": "90-95 \u00b0C @ Press: 18 Torr", "Density": "1.2922 g/cm\u00b3 @ Temp: 20 \u00b0C"}}