{"cas_no": "24197-34-0", "cn_name": "\u53cc(4-\u7f9f\u57fa-3-\u7532\u82ef\u57fa)\u786b\u919a", "en_name": ["4,4\u2032-Thiobis[2-methylphenol]", "Phenol, 4,4\u2032-thiobis[2-methyl-", "o-Cresol, 4,4\u2032-thiodi-", "4,4\u2032-Thiobis[2-methylphenol]", "2,2\u2032-Dimethyl-4,4\u2032-thiodiphenol", "Bis(4-hydroxy-3-methylphenyl) sulfide", "4,4\u2032-Thiodi-o-cresol", "Bis(3-methyl-4-hydroxyphenyl) sulfide"], "SMILES": "S(C1=CC(C)=C(O)C=C1)C2=CC(C)=C(O)C=C2", "physical_data": {"Molecular Weight": "246.32", "Molecular Formula": "C14H14O2S", "Melting Point": "120-121 \u00b0C"}}