{"cas_no": "2419-38-7", "cn_name": "PHTHALOYL-L-LEUCINE", "en_name": ["N-Phthaloyl-L-leucine", "2H-Isoindole-2-acetic acid, 1,3-dihydro-\u03b1-(2-methylpropyl)-1,3-dioxo-, (\u03b1S)-", "2-Isoindolineacetic acid, \u03b1-isobutyl-1,3-dioxo-, L-", "2H-Isoindole-2-acetic acid, 1,3-dihydro-\u03b1-(2-methylpropyl)-1,3-dioxo-, (S)-", "(\u03b1S)-1,3-Dihydro-\u03b1-(2-methylpropyl)-1,3-dioxo-2H-isoindole-2-acetic acid", "N-Phthaloyl-L-leucine", "Phthaloyl-L-leucine", "N-Phthaloyl-(S)-leucine", "Phthalimidoleucine", "L-N-Phthaloyl-Leucine", "(2S)-2-(1,3-Dioxoisoindolin-2-yl)-4-methyl-pentanoic acid", "(2S)-2-(1,3-Dioxo-2,3-dihydro-1H-isoindol-2-yl)-4-methylpentanoic acid", "2H-Isoindole-2-acetic acid 1,3-dihydro-\u03b1-(2-methylpropyl)-1,3-dioxo-, (\u03b1S)-", "(S)-2-(1,3-Dioxoisoindolin-2-yl)-4-methylpentanoic acid"], "SMILES": "C(CC(C)C)(C(O)=O)N1C(=O)C=2C(C1=O)=CC=CC2", "physical_data": {"Molecular Weight": "261.27", "Molecular Formula": "C14H15NO4", "Melting Point": "118-119 \u00b0C"}}