{"cas_no": "2420-87-3", "cn_name": "3,3',4,4'-\u8054\u82ef\u56db\u7fa7\u9178\u4e8c\u9150", "en_name": ["3,3\u2032,4,4\u2032-Biphenyltetracarboxylic dianhydride", "[5,5\u2032-Biisobenzofuran]-1,1\u2032,3,3\u2032-tetrone", "3,3\u2032,4,4\u2032-Biphenyltetracarboxylic 3,4:3\u2032,4\u2032-dianhydride", "[1,1\u2032-Biphenyl]-3,3\u2032,4,4\u2032-tetracarboxylic 3,4:3\u2032,4\u2032-dianhydride", "4,4\u2032-Biphthalic anhydride", "3,3\u2032,4,4\u2032-Biphenyltetracarboxylic dianhydride", "3,3\u2032,4,4\u2032-Biphenyltetracarboxylic acid anhydride", "3,3\u2032,4,4\u2032-Biphenyltetracarboxylic acid dianhydride", "3,3\u2032,4,4\u2032-Biphenyltetracarboxylic anhydride", "3,4,3\u2032,4\u2032-Biphenyltetracarboxylic dianhydride", "3,4,3\u2032,4\u2032-Biphenyltetracarboxylic acid dianhydride", "BPDA", "4,4\u2032-Biphthalic dianhydride", "B 1326", "1,1\u2032-Biphenyl-3,3\u2032,4,4\u2032-tetracarboxylic acid dianhydride", "s-BPDA", "1,1\u2032-Biphenyl-3,3\u2032,4,4\u2032-tetracarboxylic dianhydride", "3,3\u2032,4,4\u2032-Diphenyltetracarboxylic dianhydride", "3,3\u2032,4,4\u2032-Biphenyltetracarbocylic dianhydride", "[5,5\u2032]Biisobenzofuranyl-1,3,1\u2032,3\u2032-tetraone", "4,4\u2032-Biphenyltetracarboxylic dianhydride"], "SMILES": "O=C1C=2C(C(=O)O1)=CC=C(C2)C=3C=C4C(=CC3)C(=O)OC4=O", "physical_data": {"Molecular Weight": "294.22", "Molecular Formula": "C16H6O6", "Melting Point": "299-301 \u00b0C"}}