{"cas_no": "24209-38-9", "cn_name": "7-TMCA", "en_name": ["(6R,7R)-7-Amino-3-[[(1-methyl-1H-tetrazol-5-yl)thio]methyl]-8-oxo-5-thia-1-azabicyclo[4.2.0]oct-2-ene-2-carboxylic acid", "5-Thia-1-azabicyclo[4.2.0]oct-2-ene-2-carboxylic acid, 7-amino-3-[[(1-methyl-1H-tetrazol-5-yl)thio]methyl]-8-oxo-, (6R,7R)-", "5-Thia-1-azabicyclo[4.2.0]oct-2-ene-2-carboxylic acid, 7-amino-3-[[(1-methyl-1H-tetrazol-5-yl)thio]methyl]-8-oxo-", "5-Thia-1-azabicyclo[4.2.0]oct-2-ene-2-carboxylic acid, 7-amino-3-[[(1-methyl-1H-tetrazol-5-yl)thio]methyl]-8-oxo-, (6R-trans)-", "(6R,7R)-7-Amino-3-[[(1-methyl-1H-tetrazol-5-yl)thio]methyl]-8-oxo-5-thia-1-azabicyclo[4.2.0]oct-2-ene-2-carboxylic acid", "7-Amino-3-(1-methyl-5-tetrazolylthio)methyl-3-cephem-4-carboxylic acid", "3-(1-Methyltetrazol-5-ylthiomethyl)-7-amino-3-cephem-4-carboxylic acid", "7-Amino-3-[[(1-methyl-1H-tetrazol-5-yl)thio]methyl]-3-cephem-4-carboxylic acid", "7-AMTCA", "7-TMCA"], "SMILES": "C(O)(=O)C=1N2C(C(N)C2=O)SCC1CSC=3N(C)N=NN3", "physical_data": {"Molecular Weight": "328.37", "Molecular Formula": "C10H12N6O3S2", "Melting Point": "224-226 \u00b0C"}}