{"cas_no": "2420-16-8", "cn_name": "3-\u6c2f-4-\u7f9f\u57fa\u82ef\u7532\u919b", "en_name": ["3-Chloro-4-hydroxybenzaldehyde", "Benzaldehyde, 3-chloro-4-hydroxy-", "3-Chloro-4-hydroxybenzaldehyde", "4-Hydroxy-3-chlorobenzaldehyde", "4-Hydroxy-5-chlorobenzaldehyde", "NSC 85482"], "SMILES": "C(=O)C1=CC(Cl)=C(O)C=C1", "physical_data": {"Molecular Weight": "156.57", "Molecular Formula": "C7H5ClO2", "Melting Point": "139 \u00b0C"}}