{"cas_no": "24207-41-8", "cn_name": "2,4-\u4e8c\u7f9f\u57fa-N-(2-\u7f9f\u4e59\u57fa)\u82ef\u7532\u9170\u80fa", "en_name": ["2,4-Dihydroxy-N-(2-hydroxyethyl)benzamide", "Benzamide, 2,4-dihydroxy-N-(2-hydroxyethyl)-", "\u03b2-Resorcylamide, N-(2-hydroxyethyl)-", "2,4-Dihydroxy-N-(2-hydroxyethyl)benzamide", "N-(\u03b2-Hydroxyethyl)-\u03b2-resorcylamide", "2,4-Resorcylic acid ethanolamide", "\u03b2-Resorcylic ethanolamide", "Coupler RX", "NSC 379528"], "SMILES": "C(NCCO)(=O)C1=C(O)C=C(O)C=C1", "physical_data": {"Molecular Weight": "197.19", "Molecular Formula": "C9H11NO4", "Melting Point": "167 \u00b0C"}}