{"cas_no": "2420-94-2", "cn_name": "\u7532\u57fa\u4e19\u70ef\u9178 2-\u6c28\u57fa\u4e59\u57fa\u916f\u76d0\u9178\u76d0", "en_name": ["2-Aminoethyl methacrylate hydrochloride", "2-Propenoic acid, 2-methyl-, 2-aminoethyl ester, hydrochloride (1:1)", "Methacrylic acid, 2-aminoethyl ester, hydrochloride", "2-Propenoic acid, 2-methyl-, 2-aminoethyl ester, hydrochloride", "Ethanol, 2-amino-, methacrylate (ester), hydrochloride", "2-Aminoethyl methacrylate hydrochloride", "2-Aminoethyl 2-methylacrylate hydrochloride", "2-Aminoethyl 2-methylacrylate hydrochloride (1:1)"], "SMILES": "C(C(C)=C)(OCCN)=O.Cl", "physical_data": {"Molecular Weight": "", "Molecular Formula": "C6H11NO2.ClH", "Melting Point": "113.6-115.2 \u00b0C"}}