{"cas_no": "2421-28-5", "cn_name": "3,3',4,4'-\u4e8c\u82ef\u7532\u916e\u56db\u7532\u9178\u4e8c\u9150", "en_name": ["Benzophenonetetracarboxylic dianhydride", "1,3-Isobenzofurandione, 5,5\u2032-carbonylbis-", "Phthalic anhydride, 4,4\u2032-carbonyldi-", "5,5\u2032-Carbonylbis[1,3-isobenzofurandione]", "Benzophenonetetracarboxylic acid dianhydride", "3,4,3\u2032,4\u2032-Benzophenonetetracarboxylic acid anhydride", "3,3\u2032,4,4\u2032-Tetracarboxybenzophenone dianhydride", "Benzophenonetetracarboxylic dianhydride", "4,4\u2032-Carbonylbis(phthalic anhydride)", "3,4,3\u2032,4\u2032-Benzophenonetetracarboxylic dianhydride", "4,4\u2032-Carbonyldiphthalic anhydride", "4,4\u2032-Diphthalic anhydride ketone", "3,3\u2032,4,4\u2032-Benzophenonetetracarboxylic acid dianhydride", "BTDA", "3,3\u2032,4,4\u2032-Benzophenonetetracarboxylic dianhydride", "Benzophenone-3,3\u2032,4,4\u2032-tetracarboxylic acid anhydride", "NSC 78480", "3,3\u2032,4,4\u2032-Benzophenonetetracarboxylic anhydride", "BTDA-PF", "BTDA-UP", "4,4-Carbonyldiphthalic anhydride"], "SMILES": "O=C1C=2C(C(=O)O1)=CC=C(C(=O)C=3C=C4C(=CC3)C(=O)OC4=O)C2", "physical_data": {"Molecular Weight": "322.23", "Molecular Formula": "C17H6O7", "Melting Point": "225-226.5 \u00b0C"}}