{"cas_no": "24211-30-1", "cn_name": "\u675c\u9e43\u7d20", "en_name": ["(-)-Farrerol", "4H-1-Benzopyran-4-one, 2,3-dihydro-5,7-dihydroxy-2-(4-hydroxyphenyl)-6,8-dimethyl-, (2S)-", "Flavanone, 4\u2032,5,7-trihydroxy-6,8-dimethyl-, (-)-", "Farrerol", "4H-1-Benzopyran-4-one, 2,3-dihydro-5,7-dihydroxy-2-(4-hydroxyphenyl)-6,8-dimethyl-, (S)-", "(2S)-2,3-Dihydro-5,7-dihydroxy-2-(4-hydroxyphenyl)-6,8-dimethyl-4H-1-benzopyran-4-one", "(-)-Farrerol", "(2S)-5,7-Dihydroxy-2-(4-hydroxyphenyl)-6,8-dimethyl-2,3-dihydrochromen-4-one"], "SMILES": "CC1=C2C(C(=O)CC(O2)C3=CC=C(O)C=C3)=C(O)C(C)=C1O", "physical_data": {"Molecular Weight": "300.31", "Molecular Formula": "C17H16O5", "Melting Point": "212-220 \u00b0C"}}