{"cas_no": "24214-72-0", "cn_name": "\u73af\u620a\u80bc\u76d0\u9178\u76d0", "en_name": ["Cyclopentylhydrazine hydrochloride", "Hydrazine, cyclopentyl-, hydrochloride (1:1)", "Hydrazine, cyclopentyl-, monohydrochloride", "Cyclopentylhydrazine hydrochloride"], "SMILES": "N(N)C1CCCC1.Cl", "physical_data": {"Molecular Weight": "", "Molecular Formula": "C5H12N2.ClH", "Melting Point": "131-132 \u00b0C"}}