{"cas_no": "24221-86-1", "cn_name": "\u76d0\u9178\u53f3\u65cb\u9ebb\u9ec4\u78b1", "en_name": ["(+)-Ephedrine hydrochloride", "Benzenemethanol, \u03b1-[(1R)-1-(methylamino)ethyl]-, hydrochloride (1:1), (\u03b1S)-", "Ephedrine, hydrochloride, (+)-", "Benzenemethanol, \u03b1-[1-(methylamino)ethyl]-, hydrochloride, [S-(R*,S*)]-", "Benzenemethanol, \u03b1-[(1R)-1-(methylamino)ethyl]-, hydrochloride, (\u03b1S)-", "D-(+)-Ephedrine hydrochloride", "d-Ephedrine hydrochloride", "(+)-Ephedrine hydrochloride", "(1S,2R)-(+)-2-(Methylamino)-1-phenylpropan-1-ol hydrochloride", "CPDD 0048", "(1S,2R)-(+)-Ephedrine hydrochloride", "(1S,2R)-Ephedrine hydrochloride", "(1S,2R)-(+)-Ephedrine hydrochloride", "(1S,2R)-(+)-Ephedrinium hydrochloride", "(+)-(1S,2R)-Ephedrine hydrochloride"], "SMILES": "C(C(NC)C)(O)C1=CC=CC=C1.Cl", "physical_data": {"Molecular Weight": "", "Molecular Formula": "C10H15NO.ClH", "Melting Point": "181-182 \u00b0C"}}