{"cas_no": "2422-91-5", "cn_name": "\u4e09\u82ef\u57fa\u7532\u70f7\u4e09\u5f02\u6c30\u9178\u916f", "en_name": ["4,4\u2032,4\u2032\u2032-Triphenylmethane triisocyanate", "Benzene, 1,1\u2032,1\u2032\u2032-methylidynetris[4-isocyanato-", "Isocyanic acid, methylidynetri-p-phenylene ester", "Methane, tris(p-isocyanatophenyl)-", "1,1\u2032,1\u2032\u2032-Methylidynetris[4-isocyanatobenzene]", "4,4\u2032,4\u2032\u2032-Triphenylmethane triisocyanate", "Tris(4-isocyanatophenyl)methane", "Tris(p-isocyanatophenyl)methane", "4,4\u2032,4\u2032\u2032-Triisocyanatotriphenylmethane", "Methylidynetri-p-phenylene isocyanate", "Triphenylmethane-4,4\u2032,4\u2032\u2032-triyl triisocyanate", "TTI", "JQ 1", "1-[Bis(4-isocyanatophenyl)methyl]-4-isocyanatobenzene"], "SMILES": "C(C1=CC=C(N=C=O)C=C1)(C2=CC=C(N=C=O)C=C2)C3=CC=C(N=C=O)C=C3", "physical_data": {"Molecular Weight": "367.36", "Molecular Formula": "C22H13N3O3", "Boiling Point": "265 \u00b0C @ Press: 1.0-1.2 Torr"}}