{"cas_no": "2423-73-6", "cn_name": "4-\u785d\u57fa-2,6-\u4e8c\u82ef\u57fa\u82ef\u915a", "en_name": ["4-Nitro-2,6-diphenylphenol", "[1,1\u2032:3\u2032,1\u2032\u2032-Terphenyl]-2\u2032-ol, 5\u2032-nitro-", "Phenol, 4-nitro-2,6-diphenyl-", "5\u2032-Nitro[1,1\u2032:3\u2032,1\u2032\u2032-terphenyl]-2\u2032-ol", "4-Nitro-2,6-diphenylphenol", "2,6-Diphenyl-4-nitrophenol"], "SMILES": "OC1=C(C=C(N(=O)=O)C=C1C2=CC=CC=C2)C3=CC=CC=C3", "physical_data": {"Molecular Weight": "291.30", "Molecular Formula": "C18H13NO3", "Melting Point": "136 \u00b0C"}}