{"cas_no": "2423-71-4", "cn_name": "2,6-\u4e8c\u7532\u57fa-4-\u785d\u57fa\u82ef\u915a", "en_name": ["2,6-Dimethyl-4-nitrophenol", "Phenol, 2,6-dimethyl-4-nitro-", "2,6-Xylenol, 4-nitro-", "2,6-Dimethyl-4-nitrophenol", "4-Nitro-2,6-dimethylphenol", "4-Nitro-2,6-xylenol", "NSC 2990"], "SMILES": "N(=O)(=O)C1=CC(C)=C(O)C(C)=C1", "physical_data": {"Molecular Weight": "167.16", "Molecular Formula": "C8H9NO3", "Melting Point": "168 \u00b0C (decomp)"}}