{"cas_no": "24237-54-5", "cn_name": "\u66ff\u8bfa\u7acb\u5b9a", "en_name": ["Tinoridine", "Thieno[2,3-c]pyridine-3-carboxylic acid, 2-amino-4,5,6,7-tetrahydro-6-(phenylmethyl)-, ethyl ester", "Thieno[2,3-c]pyridine-3-carboxylic acid, 2-amino-6-benzyl-4,5,6,7-tetrahydro-, ethyl ester", "2-Amino-3-ethoxycarbonyl-6-benzyl-4,5,6,7-tetrahydrothieno[2,3-c]pyridine", "2-Amino-3-ethoxycarboxyl-6-benzyl-4,5,6,7-tetrahydrothieno[2,3-c]pyridine", "2-Amino-3-ethoxycarbonyl-6-benzyl-4,5,6,4-tetrahydrothieno[2,3-c]pyridine", "Y 3642", "Tinoridine", "NSC 158555", "2-Amino-6-benzyl-4,5,6,7-tetrahydro-thieno[2,3-c]pyridine-3-carboxylic acid ethyl ester"], "SMILES": "C(OCC)(=O)C=1C2=C(CN(CC3=CC=CC=C3)CC2)SC1N", "physical_data": {"Molecular Weight": "316.42", "Molecular Formula": "C17H20N2O2S", "Melting Point": "112.5 \u00b0C"}}