{"cas_no": "2424-90-0", "cn_name": "\u5341\u4e03\u70f7\u4e8c\u9178", "en_name": ["Heptadecanedioic acid", "Heptadecanedioic acid", "1,15-Pentadecanedicarboxylic acid", "1,17-Heptadecanedioic acid", "Pentadecanedicarboxylic acid", "\u03c9-Carboxypalmitic acid"], "SMILES": "C(CC(O)=O)CCCCCCCCCCCCCC(O)=O", "physical_data": {"Molecular Weight": "300.43", "Molecular Formula": "C17H32O4", "Boiling Point": "170-190 \u00b0C @ Press: 0.3 Torr", "Melting Point": "116-117 \u00b0C"}}