{"cas_no": "24242-20-4", "cn_name": "5-\u6c28\u57fa-2-\u5421\u5576\u7fa7\u9178", "en_name": ["5-Aminopicolinic acid", "2-Pyridinecarboxylic acid, 5-amino-", "Picolinic acid, 5-amino-", "5-Amino-2-pyridinecarboxylic acid", "5-Aminopicolinic acid", "5-Aminopyridine-2-carboxylic acid"], "SMILES": "C(O)(=O)C1=CC=C(N)C=N1", "physical_data": {"Molecular Weight": "138.12", "Molecular Formula": "C6H6N2O2", "Melting Point": "218-219 \u00b0C"}}