{"cas_no": "24248-69-9", "cn_name": "2-\u6c28\u57fa-6-\u7532\u57fa-4,5,6,7-\u56db\u6c22\u786b\u4ee3[2,3-C]\u5421\u5576-3-\u7532\u80fa", "en_name": ["2-Amino-4,5,6,7-tetrahydro-6-methylthieno[2,3-c]pyridine-3-carboxamide", "Thieno[2,3-c]pyridine-3-carboxamide, 2-amino-4,5,6,7-tetrahydro-6-methyl-", "2-Amino-4,5,6,7-tetrahydro-6-methylthieno[2,3-c]pyridine-3-carboxamide", "2-Amino-6-methyl-4H,5H,6H,7H-thieno[2,3-c]pyridine-3-carboxamide", "2-Amino-6-methyl-5,7-dihydro-4H-thieno[2,3-c]pyridine-3-carboxamide", "2-Amino-6-methyl-4,5,6,7-tetrahydro-thieno[2,3-c]-pyridine-3-carboxylic acid amide", "2-Amino-6-methyl-4,5,6,7-tetrahydrothieno[2,3-c]pyridine-3-carboxamide"], "SMILES": "C(N)(=O)C=1C2=C(SC1N)CN(C)CC2", "physical_data": {"Molecular Weight": "211.28", "Molecular Formula": "C9H13N3OS", "Melting Point": "180 \u00b0C"}}