{"cas_no": "2424-92-2", "cn_name": "\u4e8c\u5341\u70f7\u4e8c\u9178", "en_name": ["Eicosanedioic acid", "Eicosanedioic acid", "1,18-Octadecanedicarboxylic acid", "1,20-Eicosanedioic acid", "SL 20-90", "SL 20-93", "SL 20-99", "Octadecamethylenedicarboxylic acid", "C 20", "C 20 fatty acid", "Eicosan-1,20-dioic acid", "Icosanedioic acid"], "SMILES": "C(CC(O)=O)CCCCCCCCCCCCCCCCC(O)=O", "physical_data": {"Molecular Weight": "342.51", "Molecular Formula": "C20H38O4", "Melting Point": "125.5 \u00b0C"}}