{"cas_no": "2424-01-3", "cn_name": "N-\u7532\u57fa\u4e8c\u70ef\u4e19\u57fa\u80fa", "en_name": ["Diallylmethylamine", "2-Propen-1-amine, N-methyl-N-2-propen-1-yl-", "Diallylamine, N-methyl-", "2-Propen-1-amine, N-methyl-N-2-propenyl-", "N-Methyl-N-2-propen-1-yl-2-propen-1-amine", "Diallylmethylamine", "N-Methyldiallylamine", "Methyldiallylamine", "N,N-Diallyl methylamine"], "SMILES": "N(CC=C)(CC=C)C", "physical_data": {"Molecular Weight": "111.18", "Molecular Formula": "C7H13N", "Boiling Point": "112 \u00b0C", "Density": "0.771 g/cm\u00b3 @ Temp: 18 \u00b0C"}}