{"cas_no": "2424-62-6", "cn_name": "Z-2-\u4e01\u70ef\u4e8c\u9178\u5355\u5341\u516b\u916f", "en_name": ["1-Octadecyl (2Z)-2-butenedioate", "2-Butenedioic acid (2Z)-, 1-octadecyl ester", "Maleic acid, monooctadecyl ester", "2-Butenedioic acid (Z)-, monooctadecyl ester", "Maleic acid, octadecyl ester", "2-Butenedioic acid (2Z)-, monooctadecyl ester", "1-Octadecyl (2Z)-2-butenedioate", "Monostearyl maleate", "Octadecyl hydrogen maleate", "Monooctadecyl maleate"], "SMILES": "C(COC(C=CC(O)=O)=O)CCCCCCCCCCCCCCCC", "physical_data": {"Molecular Weight": "368.55", "Molecular Formula": "C22H40O4", "Melting Point": "78 \u00b0C"}}