{"cas_no": "2425-41-4", "cn_name": "5,5-\u53cc(\u7f9f\u7532\u57fa)-2-\u82ef\u57fa-1,3-\u4e8c\u6c27\u6742\u73af\u5df1\u70f7", "en_name": ["2-Phenyl-1,3-dioxane-5,5-dimethanol", "1,3-Dioxane-5,5-dimethanol, 2-phenyl-", "m-Dioxane-5,5-dimethanol, 2-phenyl-", "2-Phenyl-1,3-dioxane-5,5-dimethanol", "Benzaldehyde monopentaerythritol acetal", "5,5-Bis(hydroxymethyl)-2-phenyl-1,3-dioxane", "NSC 48280", "(5-Hydroxymethyl-2-phenyl-[1,3]dioxan-5-yl)methanol", "Mono-O-benzylidinepentaerythritol", "(2-Phenyl-1,3-dioxane-5,5-diyl)dimethanol"], "SMILES": "C(O)C1(CO)COC(OC1)C2=CC=CC=C2", "physical_data": {"Molecular Weight": "224.25", "Molecular Formula": "C12H16O4", "Melting Point": "133 \u00b0C"}}