{"cas_no": "2425-77-6", "cn_name": "2-\u5df1\u57fa-1-\u7678\u9187", "en_name": ["2-Hexyl-1-decanol", "1-Decanol, 2-hexyl-", "2-Hexyl-1-decanol", "2-Hexyldecanol", "2-Hexyldecyl alcohol", "NJCOL 160BR", "Rilanit G 16", "Exxal 16", "Jarcol I 16", "NJCOL 160BRA", "Isofol 16", "Guerbitol 16", "Guerbet hexadecanol", "NSC 2399", "Guerbet C16", "NJCOL 160B", "Risonol 16SP", "Hexyldecanol", "Hexyldecyl alcohol", "2-Octyl-1-octanol"], "SMILES": "C(CCCCCCCC)(CCCCCC)CO", "physical_data": {"Molecular Weight": "242.44", "Molecular Formula": "C16H34O", "Boiling Point": "170-180 \u00b0C @ Press: 24 Torr", "Melting Point": "16 \u00b0C", "Density": "0.838 g/cm\u00b3 @ Temp: 20 \u00b0C"}}