{"cas_no": "2425-79-8", "cn_name": "1,4-\u4e01\u4e8c\u9187\u4e8c\u7f29\u6c34\u7518\u6cb9\u919a", "en_name": ["1,4-Butanediol diglycidyl ether", "Oxirane, 2,2\u2032-[1,4-butanediylbis(oxymethylene)]bis-", "Butane, 1,4-bis(2,3-epoxypropoxy)-", "2,2\u2032-[1,4-Butanediylbis(oxymethylene)]bis[oxirane]", "1,4-Butanediol diglycidyl ether", "1,4-Bis(2,3-epoxypropoxy)butane", "Tetramethylene glycol diglycidyl ether", "1,4-Bis(glycidyloxy)butane", "[Tetramethylenebis(oxymethylene)]dioxirane", "1,4-Bis(2,3-epoxypropyloxy)butane", "1,4-Diglycidyloxybutane", "1,4-Butylene glycol diglycidyl ether", "NSC 24834", "BDDGE", "1,4-Bis(oxiran-2-ylmethoxy)butane", "Diluent 600", "2-[4-(Oxiran-2-ylmethoxy)butoxymethyl]oxirane", "BDDE", "Xingchen 3622", "BG 622"], "SMILES": "C(OCCCCOCC1CO1)C2CO2", "physical_data": {"Molecular Weight": "202.25", "Molecular Formula": "C10H18O4", "Boiling Point": "266 \u00b0C", "Density": "1.1 g/cm\u00b3 @ Temp: 25 \u00b0C"}}