{"cas_no": "24254-01-1", "cn_name": "20-\u7532\u9170\u57fa\u5b55\u753e-4-\u70ef-3-\u916e", "en_name": ["3-Oxopregn-4-ene-20-carboxaldehyde", "Pregn-4-ene-20-carboxaldehyde, 3-oxo-", "3-Oxopregn-4-ene-20-carboxaldehyde", "3-Oxopregnen-4-ene-20-carboxaldehyde", "(20RS)-20-Methyl-3-oxopregn-4-en-21-al"], "SMILES": "CC12C(C3C(C4(C)C(CC3)=CC(=O)CC4)CC1)CCC2C(C=O)C", "physical_data": {"Molecular Weight": "328.49", "Molecular Formula": "C22H32O2", "Melting Point": "156-158 \u00b0C"}}