{"cas_no": "2425-28-7", "cn_name": "(S)-(+)-2-\u6eb4-1-\u82ef\u57fa\u4e59\u9187", "en_name": ["\u03b1-(Bromomethyl)benzenemethanol", "Benzenemethanol, \u03b1-(bromomethyl)-", "Benzyl alcohol, \u03b1-(bromomethyl)-", "\u03b1-(Bromomethyl)benzenemethanol", "Styrene \u03b2-bromohydrin", "2-Bromo-1-phenylethanol", "Styrene bromohydrin", "(2-Bromo-1-hydroxyethyl)benzene", "2-Bromo-1-phenyl-1-ethanol", "(\u00b1)-2-Bromo-1-phenylethanol", "\u03b1-(bromomethyl)benzenemethanol"], "SMILES": "C(CBr)(O)C1=CC=CC=C1", "physical_data": {"Molecular Weight": "201.06", "Molecular Formula": "C8H9BrO", "Boiling Point": "109-110 \u00b0C @ Press: 2 Torr", "Melting Point": "110-111 \u00b0C", "Density": "1.4994 g/cm\u00b3 @ Temp: 20 \u00b0C"}}