{"cas_no": "2425-74-3", "cn_name": "N-\u53d4\u4e01\u57fa\u7532\u80fa", "en_name": ["N-(1,1-Dimethylethyl)formamide", "Formamide, N-(1,1-dimethylethyl)-", "Formamide, N-tert-butyl-", "N-(1,1-Dimethylethyl)formamide", "N-tert-Butylformamide", "tert-Butylformamide", "NSC 7082", "N-Formyl-tert-butylamine"], "SMILES": "N(C(C)(C)C)C=O", "physical_data": {"Molecular Weight": "101.15", "Molecular Formula": "C5H11NO", "Boiling Point": "202 \u00b0C", "Melting Point": "16 \u00b0C"}}