{"cas_no": "2425-10-7", "cn_name": "\u706d\u6740\u5a01", "en_name": ["Xylylcarb", "Phenol, 3,4-dimethyl-, 1-(N-methylcarbamate)", "Carbamic acid, methyl-, 3,4-xylyl ester", "Phenol, 3,4-dimethyl-, methylcarbamate", "3,4-Xylenol, methylcarbamate", "V 17004", "Meobal", "3,4-Dimethylphenyl N-methylcarbamate", "3,4-Xylyl N-methylcarbamate", "3,4-Dimethylphenyl methylcarbamate", "MPMC", "3,4-Xylyl methylcarbamate", "S 1042", "Xylylcarb"], "SMILES": "O(C(NC)=O)C1=CC(C)=C(C)C=C1", "physical_data": {"Molecular Weight": "179.22", "Molecular Formula": "C10H13NO2", "Boiling Point": "126 \u00b0C", "Melting Point": "79.5 \u00b0C"}}