{"cas_no": "2425-54-9", "cn_name": "\u6c2f\u4ee3\u5341\u56db\u70f7", "en_name": ["1-Chlorotetradecane", "Tetradecane, 1-chloro-", "1-Chlorotetradecane", "Tetradecyl chloride", "Myristyl chloride"], "SMILES": "C(CCCCCCC)CCCCCCCl", "physical_data": {"Molecular Weight": "232.83", "Molecular Formula": "C14H29Cl", "Boiling Point": "292 \u00b0C", "Melting Point": "4.9 \u00b0C", "Density": "0.8268 g/cm\u00b3 @ Temp: 20 \u00b0C"}}