{"cas_no": "2425-06-1", "cn_name": "\u654c\u83cc\u4e39", "en_name": ["Captafol", "1H-Isoindole-1,3(2H)-dione, 3a,4,7,7a-tetrahydro-2-[(1,1,2,2-tetrachloroethyl)thio]-", "4-Cyclohexene-1,2-dicarboximide, N-[(1,1,2,2-tetrachloroethyl)thio]-", "3a,4,7,7a-Tetrahydro-2-[(1,1,2,2-tetrachloroethyl)thio]-1H-isoindole-1,3(2H)-dione", "Ortho 5865", "N-1,1,2,2-Tetrachloroethylmercapto-4-cyclohexene-1,2-dicarboximide", "N-(1,1,2,2-Tetrachloroethylthio)-4-cyclohexene-1,2-dicarboximide", "Captafol", "CS 5623", "Tetrachloroethylthiotetrahydrophthalimide", "N-(1,1,2,2-Tetrachloroethylthio)-4-cyclohexene-1,2-dicarboxyimide", "N-(Tetrachloroethylthio)tetrahydrophthalimide", "Folcid", "Difolatan", "Difolatan 4F1", "Haipen 50", "Alfloc 7020", "Nalco 7046", "Proxel EF", "Alfloc 7046", "N-(1,1,2,2-Tetrachloroethylthio)-\u03944-tetrahydrophthalimide", "Terrazol", "Difolatan 4F", "Arborseal", "Difolatan BOW", "Foltaf", "Santar SM", "Merpafol", "Difolatan 80W", "Sanspor"], "SMILES": "O=C1C2C(C(=O)N1SC(C(Cl)Cl)(Cl)Cl)CC=CC2", "physical_data": {"Molecular Weight": "349.06", "Molecular Formula": "C10H9Cl4NO2S", "Melting Point": "160-161 \u00b0C"}}