{"cas_no": "2425-95-8", "cn_name": "2,5-\u4e8c(4-\u6c28\u57fa\u82ef\u57fa)\u5641\u4e8c\u5511", "en_name": ["2,5-Bis(4-aminophenyl)-1,3,4-oxadiazole", "Benzenamine, 4,4\u2032-(1,3,4-oxadiazole-2,5-diyl)bis-", "1,3,4-Oxadiazole, 2,5-bis(p-aminophenyl)-", "4,4\u2032-(1,3,4-Oxadiazole-2,5-diyl)bis[benzenamine]", "2,5-Bis(p-aminophenyl)-1,3,4-oxadiazole", "2,5-Di(p-aminophenyl)-1,3,4-oxadiazole", "2,5-Bis(4-aminophenyl)-1,3,4-oxadiazole", "2,5-Bis(4\u2032-aminophenyl)-1,3,4-oxadiazole"], "SMILES": "NC1=CC=C(C=2OC(=NN2)C3=CC=C(N)C=C3)C=C1", "physical_data": {"Molecular Weight": "252.27", "Molecular Formula": "C14H12N4O", "Melting Point": "254-255 \u00b0C"}}