{"cas_no": "24259-59-4", "cn_name": "L-\u6838\u7cd6", "en_name": ["L-Ribose", "L-Ribose", "Ribose, L-", "L-(+)-Ribose"], "SMILES": "C(C(CO)O)(C(C=O)O)O", "physical_data": {"Molecular Weight": "150.13", "Molecular Formula": "C5H10O5", "Melting Point": "87 \u00b0C"}}