{"cas_no": "2426-08-6", "cn_name": "\u6b63\u4e01\u57fa\u7f29\u6c34\u7518\u6cb9\u919a", "en_name": ["Butyl glycidyl ether", "Oxirane, 2-(butoxymethyl)-", "Propane, 1-butoxy-2,3-epoxy-", "Oxirane, (butoxymethyl)-", "2-(Butoxymethyl)oxirane", "Butyl glycidyl ether", "2,3-Epoxypropyl butyl ether", "Glycidyl butyl ether", "1-Butoxy-2,3-epoxypropane", "3-Butoxy-1,2-epoxypropane", "ERL 0810", "n-Butyl glycidyl ether", "(Butoxymethyl)oxirane", "Glycidyl n-butyl ether", "Epi-Rez 501", "1-Butyl glycidyl ether", "Butyl 2,3-epoxypropyl ether", "BGE", "(\u00b1)-Butyl glycidyl ether", "DY-BP", "BGE-R", "Epodil 741", "BGE-C", "NSC 83413", "DY-BP (epoxide)", "N 10 (ether)", "N 10", "Epodil 741HP", "Epiol B 4", "660A", "Epogosey BA", "Laproxid 201B", "Epoxide 660", "SM 660A", "XY 501", "O-Butylglycidol", "NPEK 041", "XY 501P", "BGE 501", "Erisys GE 5", "501B", "Diluent 501", "Diluent 660", "Y 501", "Y 501 (epoxide)", "DGE 501", "Xinyuan 501A", "501A", "3-Butoxy-1,2-propylene oxide", "Epothin 1014", "Heloxy 61", "DGE 5101", "LS-501A", "n-Butyl 2,3-epoxypropyl ether"], "SMILES": "C(OCCCC)C1CO1", "physical_data": {"Molecular Weight": "130.18", "Molecular Formula": "C7H14O2", "Boiling Point": "164 \u00b0C", "Melting Point": "59 \u00b0C", "Density": "0.908 g/cm\u00b3 @ Temp: 25 \u00b0C"}}