{"cas_no": "24262-38-2", "cn_name": "\u53f3\u65cb-3-\u6eb4\u6a1f\u8111-10-\u78fa\u9178\u6c34\u5408\u7269", "en_name": ["3-Bromo-7,7-dimethyl-2-oxobicyclo[2.2.1]heptane-1-methanesulfonic acid", "Bicyclo[2.2.1]heptane-1-methanesulfonic acid, 3-bromo-7,7-dimethyl-2-oxo-", "10-Bornanesulfonic acid, 3-bromo-2-oxo-", "10-Camphorsulfonic acid, 3-bromo-", "3-Bromo-7,7-dimethyl-2-oxobicyclo[2.2.1]heptane-1-methanesulfonic acid", "3-Bromo-10-camphorsulfonic acid"], "SMILES": "C(S(=O)(=O)O)C12C(C)(C)C(C(Br)C1=O)CC2", "physical_data": {"Molecular Weight": "311.19", "Molecular Formula": "C10H15BrO4S", "Melting Point": "182-183 \u00b0C"}}