{"cas_no": "24262-66-6", "cn_name": "4-\u4e59\u9170\u6c27\u57fa\u82ef\u7532\u9178\u7532\u916f", "en_name": ["Methyl 4-acetoxybenzoate", "Benzoic acid, 4-(acetyloxy)-, methyl ester", "Benzoic acid, p-hydroxy-, methyl ester, acetate", "Methyl p-acetoxybenzoate", "p-(Methoxycarbonyl)phenyl acetate", "Methyl 4-acetoxybenzoate", "4-(Methoxycarbonyl)phenyl acetate", "4-Acetoxybenzoic acid methyl ester"], "SMILES": "O(C(C)=O)C1=CC=C(C(OC)=O)C=C1", "physical_data": {"Molecular Weight": "194.18", "Molecular Formula": "C10H10O4", "Melting Point": "79-81 \u00b0C"}}