{"cas_no": "2426-07-5", "cn_name": "1\uff0c2\uff0c7\uff0c8-\u4e8c\u73af\u6c27\u916e", "en_name": ["1,2:7,8-Diepoxyoctane", "Oxirane, 2,2\u2032-(1,4-butanediyl)bis-", "Octane, 1,2:7,8-diepoxy-", "2,2\u2032-(1,4-Butanediyl)bis[oxirane]", "1,2:7,8-Diepoxyoctane", "1,7-Octadiene diepoxide", "2,2\u2032-Tetramethylenebis[oxirane]", "1,7-Octadiene bisoxide", "NSC 269058", "1,4-Di(oxiran-2-yl)butane", "2-[4-(Oxiran-2-yl)butyl]oxirane", "1,2,7,8-Octanediepoxide"], "SMILES": "C(CCCC1CO1)C2CO2", "physical_data": {"Molecular Weight": "142.20", "Molecular Formula": "C8H14O2", "Boiling Point": "120 \u00b0C @ Press: 28 Torr"}}