{"cas_no": "2426-02-0", "cn_name": "3,4,5,6-\u56db\u6c22\u82ef\u9150", "en_name": ["3,4,5,6-Tetrahydrophthalic anhydride", "1,3-Isobenzofurandione, 4,5,6,7-tetrahydro-", "1-Cyclohexene-1,2-dicarboxylic anhydride", "4,5,6,7-Tetrahydro-1,3-isobenzofurandione", "3,4,5,6-Tetrahydrophthalic anhydride", "3,4,5,6-Tetrahydrophthalic acid anhydride", "\u03b41-Tetrahydrophthalic anhydride", "1-Cyclohexene-1,2-dicarboxylic acid anhydride", "Tetrahydrophthalic anhydride", "NSC 11211", "NSC 61333", "Rikacid HT 1A", "4,5,6,7-Tetrahydro-isobenzofuran-1,3-dione", "1,3,4,5,6,7-Hexahydro-2-benzofuran-1,3-dione"], "SMILES": "O=C1C2=C(C(=O)O1)CCCC2", "physical_data": {"Molecular Weight": "152.15", "Molecular Formula": "C8H8O3", "Boiling Point": "145-155 \u00b0C @ Press: 4-5 Torr", "Melting Point": "74 \u00b0C"}}