{"cas_no": "2426-54-2", "cn_name": "\u4e19\u70ef\u9178 N,N-\u4e8c\u4e59\u57fa\u6c28\u57fa\u4e59\u916f", "en_name": ["(Diethylamino)ethyl acrylate", "2-Propenoic acid, 2-(diethylamino)ethyl ester", "Acrylic acid, 2-(diethylamino)ethyl ester", "(Diethylamino)ethyl acrylate", "2-(Diethylamino)ethyl acrylate", "\u03b2-(Diethylamino)ethyl acrylate", "2-(N,N-Diethylamino)ethyl acrylate", "Agriflex", "(N,N-Diethylamino)ethyl acrylate", "NSC 3118", "[2-(Acryloyloxy)ethyl]diethylamine"], "SMILES": "N(CCOC(C=C)=O)(CC)CC", "physical_data": {"Molecular Weight": "171.24", "Molecular Formula": "C9H17NO2", "Boiling Point": "70 \u00b0C @ Press: 5.0 Torr", "Melting Point": "&lt;-60 \u00b0C", "Density": "1.4425 g/cm\u00b3 @ Temp: 20 \u00b0C"}}