{"cas_no": "24268-41-5", "cn_name": "\u83aa\u672f\u544b\u5583\u4e8c\u70ef\u916e", "en_name": ["Furanodienone", "Cyclodeca[b]furan-4(7H)-one, 8,11-dihydro-3,6,10-trimethyl-, (5E,9E)-", "Germacra-1(10),4,7,11-tetraen-6-one, 8,12-epoxy-, (E,E)-", "Cyclodeca[b]furan-4(7H)-one, 8,11-dihydro-3,6,10-trimethyl-, (E,E)-", "(5E,9E)-8,11-Dihydro-3,6,10-trimethylcyclodeca[b]furan-4(7H)-one", "Furanodienone", "Furanodienon", "(1(10)E,4E)-8,12-Epoxygermacra-1(10),4,7,11-tetraen-6-one", "(1E,4E)-8,12-Epoxygermacra-1(10),4,7,11-tetraen-6-one"], "SMILES": "O=C1C2=C(OC=C2C)CC(C)=CCCC(C)=C1", "physical_data": {"Molecular Weight": "230.30", "Molecular Formula": "C15H18O2", "Boiling Point": "89.5-90.5 \u00b0C", "Melting Point": "83-84 \u00b0C"}}