{"cas_no": "2426-87-1", "cn_name": "4-\u82c4\u6c27\u57fa-3-\u7532\u6c27\u57fa\u82ef\u7532\u919b", "en_name": ["4-(Benzyloxy)-3-methoxybenzaldehyde", "Benzaldehyde, 3-methoxy-4-(phenylmethoxy)-", "Benzaldehyde, 4-(benzyloxy)-3-methoxy-", "3-Methoxy-4-(phenylmethoxy)benzaldehyde", "Vanillin benzyl ether", "4-(Benzyloxy)-3-methoxybenzaldehyde", "O-Benzylvanillin", "4-O-Benzylvanillin", "3-Methoxy-4-(benzyloxy)benzaldehyde", "Benzylvanillin", "NSC 208757", "NSC 22599", "NSC 44876"], "SMILES": "O(CC1=CC=CC=C1)C2=C(OC)C=C(C=O)C=C2", "physical_data": {"Molecular Weight": "242.27", "Molecular Formula": "C15H14O3", "Boiling Point": "185 \u00b0C @ Press: 2 Torr", "Melting Point": "67 \u00b0C"}}