{"cas_no": "24271-12-3", "cn_name": "\u4e8c\u5341\u4e8c\u70f7\u9178\u5341\u516b\u70f7\u916f", "en_name": ["Stearyl behenate", "Docosanoic acid, octadecyl ester", "Octadecyl behenate", "Stearyl behenate", "Stearyl docosanoate", "Behenic acid stearyl ester", "Purester 40"], "SMILES": "C(C(OCCCCCCCCCCCCCCCCCC)=O)CCCCCCCCCCCCCCCCCCCC", "physical_data": {"Molecular Weight": "593.06", "Molecular Formula": "C40H80O2", "Melting Point": "68-69 \u00b0C"}}