{"cas_no": "24279-39-8", "cn_name": "2,6-\u4e8c\u6c2f-4-\u4e09\u6c1f\u7532\u57fa\u82ef\u80fa", "en_name": ["2,6-Dichloro-4-trifluoromethylaniline", "Benzenamine, 2,6-dichloro-4-(trifluoromethyl)-", "p-Toluidine, 2,6-dichloro-\u03b1,\u03b1,\u03b1-trifluoro-", "2,6-Dichloro-4-(trifluoromethyl)benzenamine", "2,6-Dichloro-4-trifluoromethylaniline", "4-Amino-3,5-dichlorobenzotrifluoride"], "SMILES": "C(F)(F)(F)C1=CC(Cl)=C(N)C(Cl)=C1", "physical_data": {"Molecular Weight": "230.01", "Molecular Formula": "C7H4Cl2F3N", "Boiling Point": "88-89 \u00b0C @ Press: 3 Torr", "Melting Point": "32-35 \u00b0C"}}