{"cas_no": "24277-39-2", "cn_name": "Boc-L-\u8c37\u6c28\u9178-1-\u53d4\u4e01\u916f", "en_name": ["N-(tert-Butoxycarbonyl)-L-glutamic acid 1-tert-butyl ester", "L-Glutamic acid, N-[(1,1-dimethylethoxy)carbonyl]-, 1-(1,1-dimethylethyl) ester", "Glutamic acid, N-carboxy-, N,1-di-tert-butyl ester, L-", "N-tert-Butoxycarbonylglutamic acid \u03b1-tert-butyl ester", "NSC 164659", "N-(tert-Butoxycarbonyl)-L-glutamic acid 1-tert-butyl ester", "639: PN: WO2006034056 TABLE: 10 claimed protein", "(4S)-5-tert-Butoxy-4-[(tert-butoxycarbonyl)amino]-5-oxopentanoic acid", "BOC-L-glutamic acid tert-butyl ester", "N-\u03b1-tert-Butoxycarbonyl-L-glutamic acid \u03b1-tert butyl ester", "(S)-5-tert-Butoxy-4-(tert-butoxycarbonylamino)-5-oxopentanoic acid", "N-Boc-glutamic acid tert-butyl ester", "(S)-2-[(tert-Butoxycarbonyl)amino]pentanedioic acid 1-tert-butyl ester", "Boc-L-glutamic acid 1-tert-butyl ester", "(4S)-5-(tert-Butoxy)-4-[[(tert-butoxy)carbonyl]amino]-5-oxopentanoic acid", "(4S)-5-[(2-Methylpropan-2-yl)oxy]-4-[(2-methylpropan-2-yl)oxycarbonylamino]-5-oxopentanoic acid"], "SMILES": "C(NC(OC(C)(C)C)=O)(C(OC(C)(C)C)=O)CCC(O)=O", "physical_data": {"Molecular Weight": "303.35", "Molecular Formula": "C14H25NO6", "Melting Point": "103.3-105.5 \u00b0C"}}