{"cas_no": "2427-71-6", "cn_name": "2-\u7f9f\u57fa-6-\u6c2f\u55b9\u5594\u5549", "en_name": ["6-Chloro-2(1H)-quinoxalinone", "2(1H)-Quinoxalinone, 6-chloro-", "2-Quinoxalinol, 6-chloro-", "6-Chloro-2(1H)-quinoxalinone", "6-Chloro-2-hydroxyquinoxaline", "6-Chloro-2-quinoxalinol", "6-Chloroquinoxalone", "6-Chloroquinoxalin-2-one", "6-Chloro-1,2-dihydroquinoxalin-2-one", "2-Hydroxy-6-chloroquinoxaline"], "SMILES": "ClC=1C=C2C(NC(=O)C=N2)=CC1", "physical_data": {"Molecular Weight": "180.59", "Molecular Formula": "C8H5ClN2O", "Boiling Point": "160-170 \u00b0C @ Press: 10 Torr", "Melting Point": "305 \u00b0C"}}