{"cas_no": "24277-44-9", "cn_name": "(R)-(-)-1-\u82ef\u4e59\u57fa\u4e59\u786b\u6c30\u9178\u916f", "en_name": ["(R)-1-Phenylethyl isothiocyanate", "Benzene, [(1R)-1-isothiocyanatoethyl]-", "Isothiocyanic acid, \u03b1-methylbenzyl ester, (R)-(-)-", "Benzene, (1-isothiocyanatoethyl)-, (R)-", "[(1R)-1-Isothiocyanatoethyl]benzene", "(R)-1-Phenylethyl isothiocyanate", "(R)-\u03b1-Methylbenzyl isothiocyanate", "(R)-(1-Isothiocyanatoethyl)benzene"], "SMILES": "C(N=C=S)(C)C1=CC=CC=C1", "physical_data": {"Molecular Weight": "163.24", "Molecular Formula": "C9H9NS", "Boiling Point": "121 \u00b0C @ Press: 10 Torr"}}