{"cas_no": "24280-93-1", "cn_name": "\u9709\u915a\u9178", "en_name": ["Mycophenolic acid", "4-Hexenoic acid, 6-(1,3-dihydro-4-hydroxy-6-methoxy-7-methyl-3-oxo-5-isobenzofuranyl)-4-methyl-, (4E)-", "4-Hexenoic acid, 6-(4-hydroxy-6-methoxy-7-methyl-3-oxo-5-phthalanyl)-4-methyl-, (E)-", "4-Hexenoic acid, 6-(1,3-dihydro-4-hydroxy-6-methoxy-7-methyl-3-oxo-5-isobenzofuranyl)-4-methyl-, (E)-", "(4E)-6-(1,3-Dihydro-4-hydroxy-6-methoxy-7-methyl-3-oxo-5-isobenzofuranyl)-4-methyl-4-hexenoic acid", "Mycophenolic acid", "NSC 129185", "Lilly 68618", "MPA", "Melbex", "(E)-6-(4-Hydroxy-6-methoxy-7-methyl-3-oxo-1,3-dihydroisobenzofuran-5-yl)-4-methylhex-4-enoic acid", "MeSH ID: D009173"], "SMILES": "CC1=C2C(=C(O)C(CC=C(CCC(O)=O)C)=C1OC)C(=O)OC2", "physical_data": {"Molecular Weight": "320.34", "Molecular Formula": "C17H20O6", "Melting Point": "141 \u00b0C", "Density": "1.33 g/cm\u00b3"}}