{"cas_no": "2428-06-0", "cn_name": "2-\u6c2f-5,5-\u4e8c\u7532\u57fa-1,3,2-\u4e8c\u6c27\u78f7\u6742\u73af\u5df1\u70f7", "en_name": ["2-Chloro-5,5-dimethyl-1,3,2-dioxaphosphorinane", "1,3,2-Dioxaphosphorinane, 2-chloro-5,5-dimethyl-", "Phosphorochloridous acid, cyclic 2,2-dimethyltrimethylene ester", "1,3-Propanediol, 2,2-dimethyl-, cyclic phosphorochloridite", "2-Chloro-5,5-dimethyl-1,3,2-dioxaphosphorinane", "Cyclic 2,2-dimethyltrimethylene phosphorochloridite", "2,2-Dimethyl-1,3-propylene chlorophosphite", "Neopentyl glycol chlorophosphite", "Neopentylene phosphorochloridite", "2-Chloro-5,5-dimethyl-[1,3,2]dioxaphosphinane", "5,5-Dimethyl-2-chloro-1,3,2-dioxaphosphorinane"], "SMILES": "CC1(C)COP(Cl)OC1", "physical_data": {"Molecular Weight": "168.56", "Molecular Formula": "C5H10ClO2P", "Boiling Point": "66 \u00b0C @ Press: 13 Torr"}}