{"cas_no": "24287-95-4", "cn_name": "2-\u6eb4-3-\u567b\u5429\u7532\u9178", "en_name": ["2-Bromo-3-thiophenecarboxylic acid", "3-Thiophenecarboxylic acid, 2-bromo-", "2-Bromo-3-thiophenecarboxylic acid", "Thiophene-2-bromo-3-carboxylic acid"], "SMILES": "C(O)(=O)C1=C(Br)SC=C1", "physical_data": {"Molecular Weight": "207.05", "Molecular Formula": "C5H3BrO2S", "Melting Point": "178-179 \u00b0C"}}