{"cas_no": "24295-03-2", "cn_name": "2-\u4e59\u9170\u57fa\u567b\u5511", "en_name": ["2-Acetylthiazole", "Ethanone, 1-(2-thiazolyl)-", "Ketone, methyl 2-thiazolyl", "1-(2-Thiazolyl)ethanone", "2-Acetylthiazole", "2-Acetyl-1,3-thiazole", "1-(Thiazol-2-yl)ethanone", "1-(1,3-Thiazol-2-yl)ethanone", "1-(1,3-Thiazol-2-yl)ethan-1-one"], "SMILES": "C(C)(=O)C1=NC=CS1", "physical_data": {"Molecular Weight": "127.16", "Molecular Formula": "C5H5NOS", "Boiling Point": "95-105 \u00b0C @ Press: 15 Torr"}}