{"cas_no": "24297-59-4", "cn_name": "\u5432\u54da-1-\u4e59\u9178", "en_name": ["1H-Indole-1-acetic acid", "1H-Indole-1-acetic acid", "Indole-1-acetic acid", "Indole-N-acetic acid", "N-Indolylacetic acid", "NSC 75866", "(Indole-1-yl)acetic acid", "2-(1H-Indol-1-yl)acetic acid", "2-Indol-1-ylacetic acid"], "SMILES": "C(C(O)=O)N1C=2C(C=C1)=CC=CC2", "physical_data": {"Molecular Weight": "175.18", "Molecular Formula": "C10H9NO2", "Melting Point": "178.4-179.4 \u00b0C"}}