{"cas_no": "243-28-7", "cn_name": "2,3-\u82ef\u5e76\u5494\u5511", "en_name": ["5H-Benzo[b]carbazole", "5H-Benzo[b]carbazole", "2,3-Benzocarbazole", "2,3-Benzcarbazole", "NSC 59788", "Benzofuro[3,2-b]carbazole"], "SMILES": "C1=2C=3C(NC1=CC=4C(C2)=CC=CC4)=CC=CC3", "physical_data": {"Molecular Weight": "217.27", "Molecular Formula": "C16H11N", "Melting Point": "330-331 \u00b0C"}}