{"cas_no": "243-17-4", "cn_name": "\u56db\u7532\u57fa\u831a", "en_name": ["11H-Benzo[b]fluorene", "11H-Benzo[b]fluorene", "Benzo[b]fluorene", "2,3-Benzofluorene", "NSC 89263"], "SMILES": "C1=2C=3C(CC1=CC=4C(C2)=CC=CC4)=CC=CC3", "physical_data": {"Molecular Weight": "216.28", "Molecular Formula": "C17H12", "Boiling Point": "401-402 \u00b0C", "Melting Point": "212 \u00b0C"}}