{"cas_no": "24304-50-5", "cn_name": "\u53cc\u4e59\u9170\u4e59\u9170-2,5-\u4e8c\u7532\u57fa\u5bf9\u82ef\u4e8c\u80fa", "en_name": ["N,N\u2032-(2,5-Dimethyl-1,4-phenylene)bis[3-oxobutanamide]", "Butanamide, N,N\u2032-(2,5-dimethyl-1,4-phenylene)bis[3-oxo-", "Acetoacetamide, N,N\u2032-(2,5-dimethyl-p-phenylene)bis-", "N,N\u2032-(2,5-Dimethyl-1,4-phenylene)bis[3-oxobutanamide]", "2,5-Bis(acetoacetamido)-1,4-xylene", "N,N\u2032-(2,5-Dimethyl-1,4-phenylene)bis(acetoacetamide)", "N,N\u2032-(2,5-Dimethyl-p-phenylene)bis(acetoacetamide)", "NSC 165884"], "SMILES": "N(C(CC(C)=O)=O)C1=C(C)C=C(NC(CC(C)=O)=O)C(C)=C1", "physical_data": {"Molecular Weight": "304.34", "Molecular Formula": "C16H20N2O4", "Melting Point": "239-241 \u00b0C"}}