{"cas_no": "2430-27-5", "cn_name": "\u4e19\u620a\u9170\u80fa", "en_name": ["Valpromide", "Pentanamide, 2-propyl-", "Valeramide, 2-propyl-", "2-Propylpentanamide", "Depamide", "2-Propylvaleramide", "\u03b1-Propylvaleramide", "2-Propylpentamide", "Depamid", "Dipropylacetamide", "Di-n-propylacetamide", "Valpromide"], "SMILES": "C(CCC)(CCC)C(N)=O", "physical_data": {"Molecular Weight": "143.23", "Molecular Formula": "C8H17NO", "Melting Point": "125 \u00b0C"}}