{"cas_no": "24305-56-4", "cn_name": "4-\u5341\u4e8c\u70f7\u57fa\u95f4\u82ef\u4e8c\u915a", "en_name": ["4-Dodecylresorcinol", "1,3-Benzenediol, 4-dodecyl-", "Resorcinol, 4-dodecyl-", "4-Dodecyl-1,3-benzenediol", "4-Dodecylresorcinol", "NKO 15", "4-Laurylresorcinol"], "SMILES": "C(CCCCCCCCCCC)C1=C(O)C=C(O)C=C1", "physical_data": {"Molecular Weight": "278.43", "Molecular Formula": "C18H30O2", "Melting Point": "78 \u00b0C"}}