{"cas_no": "24304-00-5", "cn_name": "\u6c2e\u5316\u94dd", "en_name": ["Aluminum nitride", "Aluminum nitride (AlN)", "Aluminum nitride", "Aluminum mononitride", "21RAlN", "AS 10 (nitride)", "AS 10", "A 100S", "AGN 1 (nitride)", "AGN 2 (nitride)", "AGN 1", "AGN 2", "Toyalnite FS", "MAN 10", "HR 10", "Toyalnite UC", "Pyrofine A 4", "A 200", "A 200 (nitride)", "MAN 2", "A 100WR", "XUS 35548", "A 500FXWR", "SCAN 70", "Alnel A 100", "FX 50WRS", "UM", "AlN 2", "R 15", "R 15 (nitride)", "XUS 35560", "SH 30", "AP 50", "AP 50 (nitride)", "UM 53E9", "Shinno GP 1000", "A 500 (nitride)", "A 500", "WRSX 2A100", "MAN 20", "R 15S", "MAN 2A", "UMS", "XUS 35569", "XUR-YM 2002-97923", "WR 100", "Shapal F", "AP 10 (nitride)", "AP 10", "R 15KS", "Shapal SH 15", "SH 15", "Shapal SH 04", "SH 02SW10 Type I", "Toyalnite FLA", "Toyalnite FLG", "Denka AN Plate", "AN 215", "Toyalnite US", "FAN-F 30", "FAN-F 05", "FLA", "Shapal E", "Toyalnite FLX", "Shapal SH 30", "Toyalnite FLD", "FAN-f 05J-A-TY", "FAN-f 30A-TY", "JC", "FAN-f 80", "FAN-f 50J-A", "Toyalnite Super FL", "Aluminum nitride (Al0.5N0.5)", "AlN 7", "Toyalnite Super JA", "Shapal G", "Shapal I", "Toyalnite Super JC", "FAN-f 30TY", "Aluminum nitride (AlNx)", "FLZ 1", "FAN 200", "FAN 30", "FAN 50", "FAN 05", "YN", "YN (nitride)", "Toyalnite UM", "FAN-f 50J", "Shapal H", "AlN-H", "DK 331", "CW-AIN-P", "AIN 120", "ZF-KQ 50", "HR 10 (nitride)", "FAN-F 80D", "ST 100AIN", "FAN 80", "FAN-f 50", "ToH", "M 80", "J 50J", "PHW 1307", "AlN 200AF", "AlN 100AF", "Toyo Aluminum JC", "M 30", "ALN 300SF", "TFZ-A 10P", "TFZ-A 02P", "H 05", "HF 05", "HF 05 (nitride)", "HF 01", "HF 01A", "ALN 100BF", "H 01", "TFG-N 40P", "AlN 200SF", "HFS 30", "AB 253753", "AlN 050AF", "TFZ-N 01P", "TFZ-N 30P", "TFZ-N 60P", "Toyalnite JC", "TFZ-A 15P", "S 50", "S 50 (nitride)", "TFZ-N 10P", "TFZ-N 15P", "ST-N 001-1", "ANF-S", "ANF-S 30", "AIN-E", "YT-BY 01-1", "CW AlN 002", "TFZ-N 05P", "ALN 300AF", "ANF-A 01F", "CW-AlN 001", "TFZ-S 30P", "Toyal Tec TFZ-A 02P", "Toyal Tec TFZ-A 10P", "Toyal Tec TFZ-A 15P", "AN 30", "AN 30 (nitride)", "ALN 500RF", "ALN 300RF", "A 05P", "A 10P", "XHMT 011", "AlN 30O", "AN-HF 70LG-HT", "TA 1", "AlN 32", "AN-HF 70LG-HTZ", "AlN 3001", "TFZ-S 20P", "ANF-S 80ST204", "ANF S 30ST204", "FS-P 10S", "AN-HF 50LG-HT", "AN-HF 60LG-HT", "XT-ALN 05", "AlN 0201", "MG-A 1N40", "HF 01D", "HF 10", "S 30", "KL 800789", "AlN 010S", "XH-AlN 30", "AlN 020AF", "HF 100 (nitride)", "AlN 050SF", "HF 20 (nitride)", "HF 20"], "SMILES": "[Al]#N", "physical_data": {"Molecular Weight": "", "Molecular Formula": "AlN", "Melting Point": "&gt;2727 \u00b0C", "Density": "3.203 g/cm\u00b3 @ Temp: 15 \u00b0C"}}