{"cas_no": "24304-84-5", "cn_name": "2-(2-\u6c28\u4e59\u57fa)\u786b\u4ee3\u4e59\u916e", "en_name": ["2-[(2-Aminoethyl)thio]ethanol", "Ethanol, 2-[(2-aminoethyl)thio]-", "Ethanol, 2-(2-aminoethylmercapto)-", "2-[(2-Aminoethyl)thio]ethanol", "2-Hydroxyethyl 2-aminoethyl sulfide", "2-\u03b2-Hydroxyethylthioethylamine", "2-Hydroxyethylthioethylamine", "5-Hydroxy-3-thiapentylamine", "2-Aminoethyl 2-hydroxyethyl sulfide", "5-Amino-3-thia-1-pentanol", "2-(2-Aminoethylthio)ethanol", "2-Aminoethyl 2\u2032-hydroxyethyl sulfide", "[2-[(2-Hydroxyethyl)thio]ethyl]amine", "NSC 333199", "2-(2-Aminoethylsulfanyl)ethanol", "2-[(2-Aminoethyl)sulfanyl]ethan-1-ol", "2-[(2-Aminoethyl)thio]ethan-1-ol"], "SMILES": "S(CCN)CCO", "physical_data": {"Molecular Weight": "121.20", "Molecular Formula": "C4H11NOS", "Boiling Point": "105-108 \u00b0C @ Press: 0.15 Torr"}}