{"cas_no": "24309-97-5", "cn_name": "N-(2-\u7f9f\u57fa\u4e59\u57fa)-3-\u6c27\u4ee3\u4e01\u9170\u80fa", "en_name": ["N-(2-Hydroxyethyl)-3-oxobutanamide", "Butanamide, N-(2-hydroxyethyl)-3-oxo-", "Acetoacetamide, N-(2-hydroxyethyl)-", "N-(2-Hydroxyethyl)-3-oxobutanamide", "N-(2-Hydroxyethyl)acetoacetamide", "\u03b2-(N-Acetoacetylamino)ethanol"], "SMILES": "C(C(NCCO)=O)C(C)=O", "physical_data": {"Molecular Weight": "145.16", "Molecular Formula": "C6H11NO3", "Melting Point": "104-106 \u00b0C"}}