{"cas_no": "2430-22-0", "cn_name": "\u5f02\u58ec\u9187", "en_name": ["7-Methyl-1-octanol", "1-Octanol, 7-methyl-", "7-Methyl-1-octanol"], "SMILES": "C(CCCCO)CC(C)C", "physical_data": {"Molecular Weight": "144.25", "Molecular Formula": "C9H20O", "Boiling Point": "206 \u00b0C", "Melting Point": "64.5 \u00b0C", "Density": "7 g/cm\u00b3 @ Temp: 26 \u00b0C"}}