{"cas_no": "24307-26-4", "cn_name": "\u7f29\u8282\u80fa", "en_name": ["Mepiquat chloride", "Piperidinium, 1,1-dimethyl-, chloride (1:1)", "Piperidinium, 1,1-dimethyl-, chloride", "1,1-Dimethylpiperidinium chloride", "N,N-Dimethylpiperidinium chloride", "BAS 85559X", "BAS 083", "Pix", "Mepiquat chloride", "BAS 08301W", "CDP", "Dimethylpiperidinium chloride", "Pix Ultra", "Megahix", "Mepichlor", "Mepex"], "SMILES": "C[N+]1(C)CCCCC1.[Cl-]", "physical_data": {"Molecular Weight": "", "Molecular Formula": "C7H16N.Cl", "Boiling Point": "106 \u00b0C", "Melting Point": "223 \u00b0C"}}