{"cas_no": "24313-88-0", "cn_name": "3,4,5-\u4e09\u7532\u6c27\u57fa\u82ef\u80fa", "en_name": ["3,4,5-Trimethoxyaniline", "Benzenamine, 3,4,5-trimethoxy-", "Aniline, 3,4,5-trimethoxy-", "3,4,5-Trimethoxybenzenamine", "3,4,5-Trimethoxyaniline", "3,4,5-Trimethoxyphenylamine", "NSC 37006", "[3,4,5-Tris(methyloxy)phenyl]amine", "3,4,5-Tris(methyloxy)aniline", "1-(3,4,5-Trimethoxyphenyl)aniline"], "SMILES": "O(C)C1=C(OC)C=C(N)C=C1OC", "physical_data": {"Molecular Weight": "183.20", "Molecular Formula": "C9H13NO3", "Boiling Point": "130-140 \u00b0C @ Press: 1 Torr", "Melting Point": "113-114 \u00b0C"}}