{"cas_no": "24316-19-6", "cn_name": "\u4e09\u5c16\u6749\u78b1", "en_name": ["Cephalotaxine", "Cephalotaxine", "4H-Cyclopenta[a][1,3]dioxolo[4,5-h]pyrrolo[2,1-b][3]benzazepin-1-ol, 1,5,6,8,9,14b-hexahydro-2-methoxy-, [1S-(1\u03b1,3aS*,14b\u03b2)]-", "[1S-(1\u03b1,3aS*,14b\u03b2)]-1,5,6,8,9,14b-Hexahydro-2-methoxy-4H-cyclopenta[a][1,3]dioxolo[4,5-h]pyrrolo[2,1-b][3]benzazepin-1-ol", "(-)-Cephalotaxine", "NSC 128487", "NSC 245454", "ZINC 19795976"], "SMILES": "OC1C2C3(N(CCC=4C2=CC5=C(C4)OCO5)CCC3)C=C1OC", "physical_data": {"Molecular Weight": "315.36", "Molecular Formula": "C18H21NO4", "Melting Point": "131-132 \u00b0C"}}