{"cas_no": "243128-37-2", "cn_name": "4-\u6c1f-3-\u7532\u6c27\u57fa\u82ef\u8148", "en_name": ["4-Fluoro-3-methoxybenzonitrile", "Benzonitrile, 4-fluoro-3-methoxy-", "4-Fluoro-3-methoxybenzonitrile", "3-Methoxy-4-fluorobenzonitrile"], "SMILES": "O(C)C1=CC(C#N)=CC=C1F", "physical_data": {"Molecular Weight": "151.14", "Molecular Formula": "C8H6FNO", "Melting Point": "108-110 \u00b0C"}}