{"cas_no": "2431-96-1", "cn_name": "N,N-\u4e8c\u4e59\u57fa\u82ef\u4e59\u9170\u80fa", "en_name": ["N,N-Diethyl-2-phenylacetamide", "Benzeneacetamide, N,N-diethyl-", "Acetamide, N,N-diethyl-2-phenyl-", "N,N-Diethylbenzeneacetamide", "Phenyl-N,N-diethylacetamide", "N,N-Diethyl phenylacetamide", "NSC 8245", "N,N-Diethyl-2-phenylacetamide"], "SMILES": "C(C(N(CC)CC)=O)C1=CC=CC=C1", "physical_data": {"Molecular Weight": "191.27", "Molecular Formula": "C12H17NO", "Boiling Point": "169-171 \u00b0C", "Melting Point": "84-86 \u00b0C", "Density": "1.007-1.014 g/cm\u00b3 @ Temp: 25 \u00b0C"}}