{"cas_no": "24317-94-0", "cn_name": "2-\u620a\u57fa\u4e59\u9170\u4e59\u9178\u4e59\u916f", "en_name": ["Heptanoic acid, 2-acetyl-, ethyl ester", "Heptanoic acid, 2-acetyl-, ethyl ester", "Enanthic acid, \u03b1-acetyl-, ethyl ester", "Ethyl \u03b1-n-amylacetoacetate", "Ethyl 2-pentylacetoacetate", "Ethyl \u03b1-amylacetoacetate", "Ethyl \u03b1-pentylacetoacetate", "Ethyl 2-acetylheptanoate", "NSC 67887"], "SMILES": "C(C(OCC)=O)(CCCCC)C(C)=O", "physical_data": {"Molecular Weight": "200.27", "Molecular Formula": "C11H20O3", "Boiling Point": "160-180 \u00b0C @ Press: 20 Torr", "Density": "0.9232 g/cm\u00b3 @ Temp: 30 \u00b0C"}}