{"cas_no": "2432-63-5", "cn_name": "\u9a6c\u6765\u9178\u4e8c\u6b63\u4e19\u916f", "en_name": ["1,4-Dipropyl (2Z)-2-butenedioate", "2-Butenedioic acid (2Z)-, 1,4-dipropyl ester", "Maleic acid, dipropyl ester", "2-Butenedioic acid (Z)-, dipropyl ester", "2-Butenedioic acid (2Z)-, dipropyl ester", "1,4-Dipropyl (2Z)-2-butenedioate", "Dipropyl maleate", "Di-n-propyl maleate"], "SMILES": "C(C=CC(OCCC)=O)(OCCC)=O", "physical_data": {"Molecular Weight": "200.23", "Molecular Formula": "C10H16O4", "Boiling Point": "71 \u00b0C @ Press: 0.25 Torr", "Density": "1.0271 g/cm\u00b3 @ Temp: 16.0 \u00b0C"}}