{"cas_no": "24327-08-0", "cn_name": "\u53cc\u73af[2.2.2]O\u8f9b-5-\u70ef-2,3-\u4e8c\u7532\u9178\u9150", "en_name": ["rel-(3aR,4S,7R,7aS)-3a,4,7,7a-Tetrahydro-4,7-ethanoisobenzofuran-1,3-dione", "4,7-Ethanoisobenzofuran-1,3-dione, 3a,4,7,7a-tetrahydro-, (3aR,4S,7R,7aS)-rel-", "Bicyclo[2.2.2]oct-5-ene-2,3-dicarboxylic anhydride, cis-endo-", "4,7-Ethanoisobenzofuran-1,3-dione, 3a,4,7,7a-tetrahydro-, (3a\u03b1,4\u03b1,7\u03b1,7a\u03b1)-", "rel-(3aR,4S,7R,7aS)-3a,4,7,7a-Tetrahydro-4,7-ethanoisobenzofuran-1,3-dione", "Bicyclo[2.2.2]octene-2,3-endo-dicarboxylic anhydride", "endo-Bicyclo[2.2.2]octenedicarboxylic acid anhydride", "endo-Bicyclo[2.2.2]oct-5-ene-2,3-dicarboxylic anhydride", "NSC 238003", "cis-endo-[2.2.2]Oct-5-ene-2,3-dicarboxylic anhydride"], "SMILES": "O=C1C2C(C3C=CC2CC3)C(=O)O1", "physical_data": {"Molecular Weight": "178.18", "Molecular Formula": "C10H10O3", "Melting Point": "146 \u00b0C"}}