{"cas_no": "2432-14-6", "cn_name": "2,6-\u4e8c\u6eb4-4-\u7532\u57fa\u82ef\u915a", "en_name": ["2,6-Dibromo-4-methylphenol", "Phenol, 2,6-dibromo-4-methyl-", "p-Cresol, 2,6-dibromo-", "2,6-Dibromo-4-methylphenol", "2,6-Dibromo-p-cresol", "Dibromocresol", "2,6-Dibromo-4-cresol", "NSC 76596"], "SMILES": "OC1=C(Br)C=C(C)C=C1Br", "physical_data": {"Molecular Weight": "265.93", "Molecular Formula": "C7H6Br2O", "Boiling Point": "280-286 \u00b0C @ Press: 97 Torr", "Melting Point": "49-51 \u00b0C"}}