{"cas_no": "2432-12-4", "cn_name": "2,6-\u4e8c\u6c2f\u5bf9\u7532\u915a", "en_name": ["2,6-Dichloro-4-methylphenol", "Phenol, 2,6-dichloro-4-methyl-", "p-Cresol, 2,6-dichloro-", "2,6-Dichloro-4-methylphenol", "4-Methyl-2,6-dichlorophenol", "2,6-Dichloro-p-cresol", "NSC 407750"], "SMILES": "OC1=C(Cl)C=C(C)C=C1Cl", "physical_data": {"Molecular Weight": "177.03", "Molecular Formula": "C7H6Cl2O", "Boiling Point": "231 \u00b0C", "Melting Point": "39 \u00b0C"}}