{"cas_no": "2432-11-3", "cn_name": "2,6-\u4e8c\u82ef\u57fa\u82ef\u915a", "en_name": ["2,6-Diphenylphenol", "[1,1\u2032:3\u2032,1\u2032\u2032-Terphenyl]-2\u2032-ol", "[m-Terphenyl]-2\u2032-ol", "Phenol, 2,6-diphenyl-", "2,6-Diphenylphenol", "2\u2032-Hydroxy-m-terphenyl"], "SMILES": "OC1=C(C=CC=C1C2=CC=CC=C2)C3=CC=CC=C3", "physical_data": {"Molecular Weight": "246.30", "Molecular Formula": "C18H14O", "Boiling Point": "230-235 \u00b0C @ Press: 14 Torr", "Melting Point": "101 \u00b0C"}}