{"cas_no": "2432-90-8", "cn_name": "\u90bb\u82ef\u4e8c\u7532\u9178\u53cc\u5341\u4e8c\u916f", "en_name": ["Didodecyl phthalate", "1,2-Benzenedicarboxylic acid, 1,2-didodecyl ester", "Phthalic acid, didodecyl ester", "1,2-Benzenedicarboxylic acid, didodecyl ester", "Dilauryl phthalate", "Didodecyl phthalate", "Di-n-dodecyl phthalate", "Vinycizer 126", "NSC 68022", "Bis-didecyl phthalate"], "SMILES": "C(OCCCCCCCCCCCC)(=O)C1=C(C(OCCCCCCCCCCCC)=O)C=CC=C1", "physical_data": {"Molecular Weight": "502.77", "Molecular Formula": "C32H54O4", "Boiling Point": "271-275 \u00b0C @ Press: 1 Torr", "Density": "0.9389 g/cm\u00b3 @ Temp: 30 \u00b0C"}}