{"cas_no": "24324-17-2", "cn_name": "9-\u82b4\u7532\u9187", "en_name": ["Fluorene-9-methanol", "9H-Fluorene-9-methanol", "Fluorene-9-methanol", "9-Fluorenylmethanol", "9-(Hydroxymethyl)fluorene", "9-Fluorenylmethyl alcohol", "(9H-Fluoren-9-yl)methanol"], "SMILES": "C(O)C1C=2C(C=3C1=CC=CC3)=CC=CC2", "physical_data": {"Molecular Weight": "196.24", "Molecular Formula": "C14H12O", "Boiling Point": "325.4 \u00b0C", "Melting Point": "105-107 \u00b0C"}}