{"cas_no": "2432-99-7", "cn_name": "11-\u6c28\u57fa\u5341\u4e00\u9178", "en_name": ["Aminoundecanoic acid", "Undecanoic acid, 11-amino-", "11-Aminoundecanoic acid", "NSC 240503", "NSC 662428", "Aminoundecanoic acid"], "SMILES": "C(CCCCCCCN)CCC(O)=O", "physical_data": {"Molecular Weight": "201.31", "Molecular Formula": "C11H23NO2", "Melting Point": "191 \u00b0C"}}