{"cas_no": "2432-74-8", "cn_name": "6-\u80fa\u5df1\u8148", "en_name": ["6-Aminohexanenitrile", "Hexanenitrile, 6-amino-", "6-Aminohexanenitrile", "\u03c9-Aminocapronitrile", "6-Aminocapronitrile", "6-Aminohexanonitrile", "\u03b5-Aminocapronitrile", "NSC 510", "5-Cyanopentylamine"], "SMILES": "C(CCC#N)CCN", "physical_data": {"Molecular Weight": "112.17", "Molecular Formula": "C6H12N2", "Boiling Point": "235.5 \u00b0C", "Melting Point": "-31.4 \u00b0C"}}