{"cas_no": "2432-42-0", "cn_name": "\u786b\u4ee3\u4e19\u9178S-\u4e59\u916f", "en_name": ["S-Ethyl propanethioate", "Propanethioic acid, S-ethyl ester", "Propionic acid, thio-, S-ethyl ester", "S-Ethyl thiopropanoate", "S-Ethyl propanethioate", "NSC 159051", "S-Ethyl thiopropionate", "1-(Ethylsulfanyl)propan-1-one"], "SMILES": "C(SCC)(CC)=O", "physical_data": {"Molecular Weight": "118.20", "Molecular Formula": "C5H10OS", "Boiling Point": "130-132 \u00b0C", "Melting Point": "-95 \u00b0C", "Density": "0.9639 g/cm\u00b3 @ Temp: 0 \u00b0C"}}