{"cas_no": "2433-14-9", "cn_name": "4-\u73af\u5df2\u57fa\u73af\u5df2\u9187", "en_name": ["[Bicyclohexyl]-4-ol", "[1,1\u2032-Bicyclohexyl]-4-ol", "[Bicyclohexyl]-4-ol", "Cyclohexanol, 4-cyclohexyl-", "4-Cyclohexylcyclohexanol", "NSC 4177", "[1,1\u2032-Bi(cyclohexan)]-4-ol"], "SMILES": "OC1CCC(CC1)C2CCCCC2", "physical_data": {"Molecular Weight": "182.30", "Molecular Formula": "C12H22O", "Boiling Point": "105-110 \u00b0C @ Press: 0.5 Torr", "Melting Point": "94-98 \u00b0C"}}