{"cas_no": "2433-97-8", "cn_name": "\u4e8c\u5341\u4e09\u9178\u7532\u916f", "en_name": ["Methyl tricosanoate", "Tricosanoic acid, methyl ester", "Methyl tricosanoate"], "SMILES": "C(CCCCCCCCCCCCCCCCC)CCCCC(OC)=O", "physical_data": {"Molecular Weight": "368.64", "Molecular Formula": "C24H48O2", "Melting Point": "54 \u00b0C"}}