{"cas_no": "24338-53-2", "cn_name": "NAGILACTONE C", "en_name": ["Nagilactone C", "3H,8H-Furo[2\u2032,3\u2032,4\u2032:4,5]oxireno[7,8]naphtho[2,1-c]pyran-3,8-dione, 1a,2,2a,4a,4b,5,9b,9c-octahydro-2,5-dihydroxy-2a,9b-dimethyl-6-(1-methylethyl)-, (1aR,2R,2aR,4aS,4bR,5R,9bS,9cS)-", "3H,8H-Furo[2\u2032,3\u2032,4\u2032:4,5]oxireno[7,8]naphtho[2,1-c]pyran-3,8-dione, 1a\u03b1,2,2a,4a\u03b2,4b\u03b2,5,9b,9c\u03b1-octahydro-2\u03b1,5\u03b1-dihydroxy-6-isopropyl-2a\u03b2,9b\u03b1-dimethyl-", "Podolactone B, 7,8-deepoxy-8,14-didehydro-15,16-dideoxy-7-hydroxy-, (1\u03b1,2\u03b1,7\u03b2)-", "(1aR,2R,2aR,4aS,4bR,5R,9bS,9cS)-1a,2,2a,4a,4b,5,9b,9c-Octahydro-2,5-dihydroxy-2a,9b-dimethyl-6-(1-methylethyl)-3H,8H-furo[2\u2032,3\u2032,4\u2032:4,5]oxireno[7,8]naphtho[2,1-c]pyran-3,8-dione", "Nagilactone C", "3H,8H-Furo[2\u2032,3\u2032,4\u2032:4,5]oxireno[7,8]naphtho[2,1-c]pyran-3,8-dione, 1a,2,2a,4a,4b,5,9b,9c-octahydro-2,5-dihydroxy-2a,9b-dimethyl-6-(1-methylethyl)-, [1aR-(1a\u03b1,2\u03b2,2a\u03b1,4a\u03b1,4b\u03b1,5\u03b2,9b\u03b2,9c\u03b1)]-", "NSC 117884", "NSC 211500"], "SMILES": "CC12C3C(C)(C(O)C4C1O4)C(=O)OC3C(O)C=5C2=CC(=O)OC5C(C)C", "physical_data": {"Molecular Weight": "362.37", "Molecular Formula": "C19H22O7", "Melting Point": "290 \u00b0C"}}