{"cas_no": "24331-94-0", "cn_name": "1,4-\u4e8c\u6c22-3(2H)-\u5f02\u55b9\u5549\u916e", "en_name": ["1,4-Dihydro-3(2H)-isoquinolinone", "3(2H)-Isoquinolinone, 1,4-dihydro-", "3(2H)-Isoquinolone, 1,4-dihydro-", "1,4-Dihydro-3(2H)-isoquinolinone", "1,4-Dihydro-3(2H)-isoquinolone", "o-(Aminomethyl)phenylacetic acid lactam", "NSC 134509", "2,4-Dihydro-1H-isoquinolin-3-one"], "SMILES": "O=C1CC=2C(CN1)=CC=CC2", "physical_data": {"Molecular Weight": "147.17", "Molecular Formula": "C9H9NO", "Melting Point": "146-148 \u00b0C"}}