{"cas_no": "2433-96-7", "cn_name": "\u4e8c\u5341\u4e09\u70f7\u9178", "en_name": ["Tricosanoic acid", "Tricosanoic acid", "n-Tricosanoic acid", "22FA", "Tricosylic acid"], "SMILES": "C(CCCCCCCCCCCCCC)CCCCCCCC(O)=O", "physical_data": {"Molecular Weight": "354.61", "Molecular Formula": "C23H46O2", "Melting Point": "80-81 \u00b0C"}}