{"cas_no": "24332-20-5", "cn_name": "1,1,2-\u4e09\u7532\u6c27\u57fa\u4e59\u70f7", "en_name": ["1,1,2-Trimethoxyethane", "Ethane, 1,1,2-trimethoxy-", "Acetaldehyde, methoxy-, dimethyl acetal", "1,1,2-Trimethoxyethane", "Methoxyacetaldehyde dimethyl acetal", "1,1,2-Tris(methoxy)ethane", "2-Methoxyacetaldehyde dimethyl acetal"], "SMILES": "C(COC)(OC)OC", "physical_data": {"Molecular Weight": "120.15", "Molecular Formula": "C5H12O3", "Boiling Point": "56-59 \u00b0C @ Press: 56 Torr"}}