{"cas_no": "24345-02-6", "cn_name": "4-\u7532\u57fa\u82ef\u4e9a\u78fa\u9178\u950c\u76d0", "en_name": ["Benzenesulfinic acid, 4-methyl-, zinc salt (2:1)", "Benzenesulfinic acid, 4-methyl-, zinc salt (2:1)", "p-Toluenesulfinic acid, zinc salt", "Benzenesulfinic acid, 4-methyl-, zinc salt", "Zinc p-toluenesulfinate", "Unicell TM", "Cellpaste P", "Zinc 4-methylbenzenesulfinate"], "SMILES": "S(=O)(O)C1=CC=C(C)C=C1.[Zn]", "physical_data": {"Molecular Weight": "", "Molecular Formula": "C7H8O2S.<sup>1</sup>/2Zn", "Melting Point": "251 \u00b0C (decomp)"}}