{"cas_no": "2434-49-3", "cn_name": "\u4e8c\u6c22-6-\u7532\u57fa-2,4-\u4e8c\u5627\u5576\u916e", "en_name": ["Dihydro-6-methyl-2,4(1H,3H)-pyrimidinedione", "2,4(1H,3H)-Pyrimidinedione, dihydro-6-methyl-", "Hydrouracil, 6-methyl-", "Dihydro-6-methyl-2,4(1H,3H)-pyrimidinedione", "Dihydro-6-methyluracil", "6-Methyldihydrouracil", "6-Methyl-5,6-dihydrouracil", "5,6-Dihydro-6-methyluracil", "4-Methyldihydrouracil", "NSC 44127", "6-Methyldihydropyrimidine-2,4(1H,3H)-dione"], "SMILES": "CC1CC(=O)NC(=O)N1", "physical_data": {"Molecular Weight": "128.13", "Molecular Formula": "C5H8N2O2", "Melting Point": "218 \u00b0C"}}