{"cas_no": "24347-58-8", "cn_name": "(2R,3R)-(-)-2,3-\u4e01\u4e8c\u9187", "en_name": ["(2R,3R)-Butanediol", "2,3-Butanediol, (2R,3R)-", "2,3-Butanediol, (2R,3R)-(-)-", "2,3-Butanediol, [R-(R*,R*)]-", "(2R,3R)-2,3-Butanediol", "levo-2,3-Butanediol", "(-)-2,3-Butanediol", "(R,R)-(-)-2,3-Butanediol", "(-)-(2R,3R)-2,3-Butanediol", "D-(-)-2,3-Butanediol", "(-)-(2R,3R)-Butanediol", "D-2,3-Butanediol", "(2R,3R)-(-)-2,3-Butanediol", "(R,R)-2,3-Butanediol", "(2R,3R)-Butanediol"], "SMILES": "C(C(C)O)(C)O", "physical_data": {"Molecular Weight": "90.12", "Molecular Formula": "C4H10O2", "Boiling Point": "77.5-77.6 \u00b0C @ Press: 10 Torr", "Melting Point": "19.4-19.7 \u00b0C", "Density": "0.9869 g/cm\u00b3 @ Temp: 25 \u00b0C"}}