{"cas_no": "24341-76-2", "cn_name": "3,5-\u4e8c\u785d\u57fa-2-\u7532\u57fa\u82ef\u57fa\u787c\u9178", "en_name": ["B-(2-Methyl-3,5-dinitrophenyl)boronic acid", "Boronic acid, B-(2-methyl-3,5-dinitrophenyl)-", "o-Tolueneboronic acid, 3,5-dinitro-", "Boronic acid, (2-methyl-3,5-dinitrophenyl)-", "B-(2-Methyl-3,5-dinitrophenyl)boronic acid", "(2-Methyl-3,5-dinitrophenyl)boronic acid"], "SMILES": "B(O)(O)C1=C(C)C(N(=O)=O)=CC(N(=O)=O)=C1", "physical_data": {"Molecular Weight": "225.95", "Molecular Formula": "C7H7BN2O6", "Melting Point": "142 \u00b0C"}}