{"cas_no": "24340-76-9", "cn_name": "3-\u7532\u57fa\u5f02\u567b\u5511-5-\u80fa", "en_name": ["5-Amino-3-methylisothiazole", "5-Isothiazolamine, 3-methyl-", "Isothiazole, 5-amino-3-methyl-", "3-Methyl-5-isothiazolamine", "5-Amino-3-methylisothiazole", "3-Methyl-5-isothiazolylamine", "5-Amino-2-methylisothiazole", "3-Methyl-5-aminoisothiazole", "3-Methylisothiazol-5-amine", "3-Methyl-1,2-thiazol-5-amine"], "SMILES": "CC=1C=C(N)SN1", "physical_data": {"Molecular Weight": "114.17", "Molecular Formula": "C4H6N2S", "Boiling Point": "190-192 \u00b0C @ Press: 0.1 Torr", "Melting Point": "52-53 \u00b0C", "Density": "1.66 g/cm\u00b3"}}