{"cas_no": "2434-53-9", "cn_name": "6-\u6c28\u57fa-1-\u7532\u57fa\u8132\u5627\u5576", "en_name": ["6-Amino-1-methyluracil", "2,4(1H,3H)-Pyrimidinedione, 6-amino-1-methyl-", "Uracil, 6-amino-1-methyl-", "6-Amino-1-methyl-2,4(1H,3H)-pyrimidinedione", "1-Methyl-6-aminouracil", "6-Amino-1-methyluracil", "6-Amino-1-methyl-1H-pyrimidine-2,4-dione", "NSC 7369"], "SMILES": "CN1C(N)=CC(=O)NC1=O", "physical_data": {"Molecular Weight": "141.13", "Molecular Formula": "C5H7N3O2", "Melting Point": "306-307 \u00b0C"}}