{"cas_no": "2435-53-2", "cn_name": "\u90bb\u56db\u6c2f\u82ef\u918c", "en_name": ["o-Chloranil", "3,5-Cyclohexadiene-1,2-dione, 3,4,5,6-tetrachloro-", "o-Benzoquinone, 3,4,5,6-tetrachloro-", "o-Benzoquinone, tetrachloro-", "3,4,5,6-Tetrachloro-3,5-cyclohexadiene-1,2-dione", "o-Chloranil", "Isochloranil", "3,4,5,6-Tetrachloro-1,2-benzoquinone", "Tetrachloro-o-benzoquinone", "Tetrachloro-1,2-benzoquinone", "3,4,5,6-Tetrachloro-o-benzoquinone", "Tetrachloro-o-quinone", "3,4,5,6-Tetrachlorocyclohexadiene-1,2-dione", "Tetrachloro-ortho-benzoquinone", "Tetrachloroorthobenzoquinone", "NSC 403503", "3,4,5,6-Tetrachlorobenzoquinone", "2,3,5,6-Tetrachloro-1,2-benzoquinone"], "SMILES": "ClC=1C(Cl)=C(Cl)C(=O)C(=O)C1Cl", "physical_data": {"Molecular Weight": "245.88", "Molecular Formula": "C6Cl4O2", "Melting Point": "131-132 \u00b0C"}}