{"cas_no": "24356-94-3", "cn_name": "\u82ef\u7532\u5b55\u916e", "en_name": ["Algestone acetophenide", "Pregn-4-ene-3,20-dione, 16,17-[[(1R)-1-phenylethylidene]bis(oxy)]-, (16\u03b1)-", "Pregn-4-ene-3,20-dione, 16\u03b1,17-dihydroxy-, cyclic acetal with acetophenone, (R)-", "Pregn-4-ene-3,20-dione, 16,17-[(1-phenylethylidene)bis(oxy)]-, [16\u03b1(R)]-", "2H-Naphth[1\u2032,2\u2032:6,7]indeno[1,2-d][1,3]dioxole, pregn-4-ene-3,20-dione deriv.", "(16\u03b1)-16,17-[[(1R)-1-Phenylethylidene]bis(oxy)]pregn-4-ene-3,20-dione", "Algestone acetophenide", "Alphasone acetophenide", "P-DHP", "Deladroxone", "Droxone", "Dihydroxyprogesterone acetophenide", "ZK 9349", "Neolutin Depositum"], "SMILES": "C(C)(=O)C12C3(C)C(CC1OC(C)(O2)C4=CC=CC=C4)C5C(CC3)C6(C)C(CC5)=CC(=O)CC6", "physical_data": {"Molecular Weight": "448.59", "Molecular Formula": "C29H36O4", "Melting Point": "150.5 \u00b0C"}}