{"cas_no": "24353-61-5", "cn_name": "\u6c34\u80fa\u786b\u78f7", "en_name": ["Isocarbophos", "Benzoic acid, 2-[(aminomethoxyphosphinothioyl)oxy]-, 1-methylethyl ester", "Salicylic acid, isopropyl ester, O-ester with O-methyl phosphoramidothioate", "Phosphoramidothioic acid, O-methyl ester, O-ester with isopropyl salicylate", "BAY 93820", "Optunal", "Isocarbophos", "Isocarbofos", "Isopropyl O-(methoxyaminothiophosphoryl) salicylate"], "SMILES": "O(P(OC)(N)=S)C1=C(C(OC(C)C)=O)C=CC=C1", "physical_data": {"Molecular Weight": "289.29", "Molecular Formula": "C11H16NO4PS", "Melting Point": "44 \u00b0C"}}