{"cas_no": "24358-84-7", "cn_name": "\u5730\u6614\u5361\u56e0", "en_name": ["(+)-Mepivacaine", "2-Piperidinecarboxamide, N-(2,6-dimethylphenyl)-1-methyl-, (2S)-", "2\u2032,6\u2032-Pipecoloxylidide, 1-methyl-, (+)-", "2-Piperidinecarboxamide, N-(2,6-dimethylphenyl)-1-methyl-, (S)-", "(2S)-N-(2,6-Dimethylphenyl)-1-methyl-2-piperidinecarboxamide", "Dexivacaine", "(+)-1-Methyl-2\u2032,6\u2032-pipecoloxylidide", "(+)-Mepivacaine", "L-(+)-Mepivacaine", "(S)-Mepivacaine", "(S)-Mepavacaine"], "SMILES": "N(C(=O)C1N(C)CCCC1)C2=C(C)C=CC=C2C", "physical_data": {"Molecular Weight": "246.35", "Molecular Formula": "C15H22N2O", "Melting Point": "148-150 \u00b0C"}}