{"cas_no": "24358-43-8", "cn_name": "1-(3-\u6c2f\u82ef\u57fa)\u4e59\u80fa", "en_name": ["3-Chloro-\u03b1-methylbenzenemethanamine", "Benzenemethanamine, 3-chloro-\u03b1-methyl-", "Benzylamine, m-chloro-\u03b1-methyl-", "3-Chloro-\u03b1-methylbenzenemethanamine", "1-(3-Chlorophenyl)ethanamine", "1-(3-Chlorophenyl)-1-ethanamine", "1-(3-Chlorophenyl)ethylamine"], "SMILES": "C(C)(N)C1=CC(Cl)=CC=C1", "physical_data": {"Molecular Weight": "155.62", "Molecular Formula": "C8H10ClN", "Boiling Point": "95-97 \u00b0C @ Press: 8 Torr"}}