{"cas_no": "2435-47-4", "cn_name": "3,6-DIMETHYLPYRAZINE-2-CARBONITRILE", "en_name": ["3,6-Dimethyl-2-pyrazinecarbonitrile", "2-Pyrazinecarbonitrile, 3,6-dimethyl-", "Pyrazinecarbonitrile, 3,6-dimethyl-", "3,6-Dimethyl-2-pyrazinecarbonitrile"], "SMILES": "C(#N)C=1C(C)=NC=C(C)N1", "physical_data": {"Molecular Weight": "133.15", "Molecular Formula": "C7H7N3", "Melting Point": "49-50 \u00b0C"}}