{"cas_no": "24358-62-1", "cn_name": "4-\u6eb4-alpha-\u82ef\u4e59\u80fa", "en_name": ["1-(4-Bromophenyl)ethylamine", "Benzenemethanamine, 4-bromo-\u03b1-methyl-", "Benzylamine, p-bromo-\u03b1-methyl-", "4-Bromo-\u03b1-methylbenzenemethanamine", "1-(4\u2032-Bromophenyl)ethylamine", "1-(p-Bromophenyl)ethylamine", "1-(4-Bromophenyl)ethylamine", "(\u00b1)-p-Bromo-\u03b1-methylbenzylamine", "(RS)-1-(p-Bromophenyl)ethylamine", "\u03b1-(p-Bromophenyl)ethylamine", "\u03b1-Methyl-4-bromobenzenemethanamine", "4-(1-Aminoethyl)-1-bromobenzene", "(\u00b1)-1-(4-Bromophenyl)ethylamine", "4-Bromo-1-(1-aminoethyl)benzene", "(4-Bromo-\u03b1-methylbenzyl)amine", "1-(4-Bromophenyl)ethanamine", "\u03b1-Methyl-p-bromobenzylamine", "1-(4-Bromophenyl)ethaneamine", "1-(4-Bromophenyl)ethan-1-amine"], "SMILES": "C(C)(N)C1=CC=C(Br)C=C1", "physical_data": {"Molecular Weight": "200.08", "Molecular Formula": "C8H10BrN", "Boiling Point": "95 \u00b0C @ Press: 4 Torr"}}