{"cas_no": "2436-29-5", "cn_name": "3-\u90bb\u82ef\u4e8c\u7532\u9170\u4e9a\u80fa\u4e19\u919b", "en_name": ["3-Phthalimidopropionaldehyde", "2H-Isoindole-2-propanal, 1,3-dihydro-1,3-dioxo-", "Phthalimide, N-(2-formylethyl)-", "1,3-Dihydro-1,3-dioxo-2H-isoindole-2-propanal", "\u03b2-Phthalimidopropionaldehyde", "3-Phthalimidopropionaldehyde", "N-(2-Formylethyl)phthalimide", "3-(1,3-Dioxo-1,3-dihydroisoindol-2-yl)propionaldehyde", "NSC 166600", "3-(1,3-Dioxo-1,3-dihydro-2H-isoindol-2-yl)propionaldehyde", "2-(3-Oxopropyl)isoindole-1,3-dione", "3-(1,3-Dioxo-1,3-dihydro-2H-isoindol-2-yl)propanal", "N-(3-Oxopropyl)phthalimide", "3-Phthalimidopropanal", "3-(1,3-Dioxoisoindolin-2-yl)propanal", "3-(1,3-Dioxo-2,3-dihydro-1H-isoindol-2-yl)propanal", "3-(1,3-Dioxoisoindol-2-yl)propanal"], "SMILES": "O=C1C=2C(C(=O)N1CCC=O)=CC=CC2", "physical_data": {"Molecular Weight": "203.19", "Molecular Formula": "C11H9NO3", "Melting Point": "119-120 \u00b0C"}}