{"cas_no": "2436-85-3", "cn_name": "N,N-\u4e8c\u7532\u57fa-2-\u8418\u80fa", "en_name": ["N,N-Dimethyl-2-naphthalenamine", "2-Naphthalenamine, N,N-dimethyl-", "2-Naphthylamine, N,N-dimethyl-", "N,N-Dimethyl-2-naphthalenamine", "N,N-Dimethyl-2-naphthylamine", "N,N-Dimethyl-\u03b2-naphthylamine", "2-Dimethylaminonaphthalene"], "SMILES": "N(C)(C)C1=CC2=C(C=C1)C=CC=C2", "physical_data": {"Molecular Weight": "171.24", "Molecular Formula": "C12H13N", "Boiling Point": "305 \u00b0C", "Melting Point": "52.5 \u00b0C"}}