{"cas_no": "2436-90-0", "cn_name": "\u4e8c\u6c22\u6708\u6842\u70ef", "en_name": ["3,7-Dimethyl-1,6-octadiene", "1,6-Octadiene, 3,7-dimethyl-", "3,7-Dimethyl-1,6-octadiene", "Dihydromyrcene", "Citronellene", "\u03b2-Citronellene"], "SMILES": "C(CCC=C(C)C)(C=C)C", "physical_data": {"Molecular Weight": "138.25", "Molecular Formula": "C10H18", "Boiling Point": "165-167 \u00b0C @ Press: 750 Torr", "Density": "0.7811 g/cm\u00b3 @ Temp: 14.4 \u00b0C"}}