{"cas_no": "2436-96-6", "cn_name": "2,2'-\u4e8c\u785d\u57fa\u8054\u82ef", "en_name": ["2,2\u2032-Dinitrobiphenyl", "1,1\u2032-Biphenyl, 2,2\u2032-dinitro-", "Biphenyl, 2,2\u2032-dinitro-", "2,2\u2032-Dinitro-1,1\u2032-biphenyl", "2,2\u2032-Dinitrobiphenyl", "NSC 13356", "1-Nitro-2-(2-nitrophenyl)benzene"], "SMILES": "N(=O)(=O)C1=C(C=CC=C1)C2=C(N(=O)=O)C=CC=C2", "physical_data": {"Molecular Weight": "244.20", "Molecular Formula": "C12H8N2O4", "Boiling Point": "305 \u00b0C", "Melting Point": "126 \u00b0C", "Density": "1.50 g/cm\u00b3"}}