{"cas_no": "2436-79-5", "cn_name": "2,4-\u4e8c\u7532\u57fa\u5421\u54af-3,5-\u4e8c\u7fa7\u9178\u4e8c\u4e59\u916f", "en_name": ["1H-Pyrrole-2,4-dicarboxylic acid, 3,5-dimethyl-, 2,4-diethyl ester", "1H-Pyrrole-2,4-dicarboxylic acid, 3,5-dimethyl-, 2,4-diethyl ester", "Pyrrole-2,4-dicarboxylic acid, 3,5-dimethyl-, diethyl ester", "1H-Pyrrole-2,4-dicarboxylic acid, 3,5-dimethyl-, diethyl ester", "2,4-Dimethyl-3,5-dicarbethoxypyrrole", "Diethyl 3,5-dimethylpyrrole-2,4-dicarboxylate", "Knorr's pyrrole", "Diethyl 2,4-dimethylpyrrole-3,5-dicarboxylate", "NSC 2046", "NSC 5685", "3,5-Dimethyl-1H-pyrrole-2,4-dicarboxylic acid diethyl ester", "2,4-Diethoxycarbonyl-3,5-dimethylpyrrole", "3,5-Bis(ethoxycarbonyl)-2,4-dimethyl-1(H)-pyrrole", "2,4-Diethyl 3,5-dimethyl-1H-pyrrole-2,4-dicarboxylate", "Diethyl 3,5-dimethyl-1H-pyrrole-2,4-dicarboxylate"], "SMILES": "C(OCC)(=O)C1=C(C)C(C(OCC)=O)=C(C)N1", "physical_data": {"Molecular Weight": "239.27", "Molecular Formula": "C12H17NO4", "Boiling Point": "140-142 \u00b0C @ Press: 7 Torr", "Melting Point": "126-130 \u00b0C", "Density": "1.051 g/cm\u00b3 @ Temp: 25 \u00b0C"}}