{"cas_no": "2436-73-9", "cn_name": "2-\u7532-4-\u6c2f\u82ef\u6c27\u57fa\u4e59\u9178\u7532\u916f", "en_name": ["MCPA methyl ester", "Acetic acid, 2-(4-chloro-2-methylphenoxy)-, methyl ester", "Acetic acid, [(4-chloro-o-tolyl)oxy]-, methyl ester", "Acetic acid, (4-chloro-2-methylphenoxy)-, methyl ester", "Methyl 4-chloro-2-methylphenoxyacetate", "2-Methyl-4-chlorophenoxyacetic acid methyl ester", "MCPA methyl ester", "(4-Chloro-2-methylphenoxy)acetic acid methyl ester"], "SMILES": "O(CC(OC)=O)C1=C(C)C=C(Cl)C=C1", "physical_data": {"Molecular Weight": "214.65", "Molecular Formula": "C10H11ClO3", "Boiling Point": "127 \u00b0C @ Press: 7 Torr"}}