{"cas_no": "24372-49-4", "cn_name": "5-\u5417\u5549-4-\u567b\u5429-2-\u7532\u919b", "en_name": ["5-(4-Morpholinyl)-2-thiophenecarboxaldehyde", "2-Thiophenecarboxaldehyde, 5-(4-morpholinyl)-", "2-Thiophenecarboxaldehyde, 5-morpholino-", "5-(4-Morpholinyl)-2-thiophenecarboxaldehyde", "5-Morpholino-2-thiophenecarboxaldehyde"], "SMILES": "C(=O)C=1SC(=CC1)N2CCOCC2", "physical_data": {"Molecular Weight": "197.25", "Molecular Formula": "C9H11NO2S", "Melting Point": "127 \u00b0C"}}