{"cas_no": "2437-17-4", "cn_name": "6-\u7f9f\u57fa-1-\u8418\u7532\u9178", "en_name": ["6-Hydroxy-1-naphthoic acid", "1-Naphthalenecarboxylic acid, 6-hydroxy-", "1-Naphthoic acid, 6-hydroxy-", "6-Hydroxy-1-naphthalenecarboxylic acid", "6-Hydroxy-1-naphthoic acid", "2-Hydroxy-5-naphthoic acid"], "SMILES": "C(O)(=O)C=1C2=C(C=C(O)C=C2)C=CC1", "physical_data": {"Molecular Weight": "188.18", "Molecular Formula": "C11H8O3", "Melting Point": "208-209 \u00b0C"}}