{"cas_no": "2437-56-1", "cn_name": "1-\u5341\u4e09\u70ef", "en_name": ["1-Tridecene", "1-Tridecene", "n-Tridec-1-ene", "\u03b1-Tridecene", "NSC 78473"], "SMILES": "C(CCCCCC)CCCCC=C", "physical_data": {"Molecular Weight": "182.35", "Molecular Formula": "C13H26", "Boiling Point": "232.8 \u00b0C", "Melting Point": "-13 \u00b0C", "Density": "0.7658 g/cm\u00b3 @ Temp: 20 \u00b0C"}}