{"cas_no": "2437-49-2", "cn_name": "2,4,6-\u4e09\u6eb4\u95f4\u82ef\u4e8c\u915a", "en_name": ["2,4,6-Tribromoresorcinol", "1,3-Benzenediol, 2,4,6-tribromo-", "Resorcinol, 2,4,6-tribromo-", "2,4,6-Tribromo-1,3-benzenediol", "2,4,6-Tribromoresorcinol", "2,4,6-Tribromo-3-hydroxyphenol", "1,3,5-Tribromo-2,4-dihydroxybenzene", "NSC 10857", "1,3,5-Tribromo-2,6-dihydroxybenzene"], "SMILES": "OC1=C(Br)C(O)=C(Br)C=C1Br", "physical_data": {"Molecular Weight": "346.80", "Molecular Formula": "C6H3Br3O2", "Melting Point": "114-116 \u00b0C"}}