{"cas_no": "2437-29-8", "cn_name": "\u78b1\u6027\u7eff 4", "en_name": ["Malachite green oxalate", "Methanaminium, N-[4-[[4-(dimethylamino)phenyl]phenylmethylene]-2,5-cyclohexadien-1-ylidene]-N-methyl-, ethanedioate, ethanedioate (2:2:1)", "Malachite green oxalate", "Ammonium, [4-[p-(dimethylamino)-\u03b1-phenylbenzylidene]-2,5-cyclohexadien-1-ylidene]dimethyl-, oxalate (1:1), oxalate (1:1)", "Ethanedioic acid, ion(1-), N-[4-[[4-(dimethylamino)phenyl]phenylmethylene]-2,5-cyclohexadien-1-ylidene]-N-methylmethanaminium, ethanedioate (2:1)", "Malachite green oxalate salt", "C. I. Basic Green"], "SMILES": "C(C(O)=O)(O)=O.C(C(O)=O)([O-])=O.C(C1=CC=C(N(C)C)C=C1)(=C2C=CC(=[N+](C)C)C=C2)C3=CC=CC=C3", "physical_data": {"Molecular Weight": "", "Molecular Formula": "C23H25N2.<sup>1</sup>/2C2H2O4.C2HO4", "Melting Point": "137-139 \u00b0C"}}