{"cas_no": "2437-25-4", "cn_name": "\u5341\u4e8c\u8148", "en_name": ["Dodecanenitrile", "Dodecanenitrile", "Lauronitrile", "Dodecanonitrile", "Decylacetonitrile", "Lauric nitrile", "Undecyl cyanide", "Lauric acid nitrile", "n-Dodecanonitrile", "1-Cyanoundecane", "NSC 1804", "Arneel 12", "Lauryl nitrile"], "SMILES": "C(CCCCCC)CCCCC#N", "physical_data": {"Molecular Weight": "181.32", "Molecular Formula": "C12H23N", "Boiling Point": "277 \u00b0C", "Melting Point": "4 \u00b0C"}}