{"cas_no": "2437-79-8", "cn_name": "2,2',4,4'-\u56db\u6c2f\u8054\u82ef", "en_name": ["PCB 47", "1,1\u2032-Biphenyl, 2,2\u2032,4,4\u2032-tetrachloro-", "Biphenyl, 2,2\u2032,4,4\u2032-tetrachloro-", "2,2\u2032,4,4\u2032-Tetrachloro-1,1\u2032-biphenyl", "2,2\u2032,4,4\u2032-Tetrachlorobiphenyl", "2,2\u2032,4,4\u2032-Tetrachlorodiphenyl", "PCB 47", "CB 47"], "SMILES": "ClC1=C(C=CC(Cl)=C1)C2=C(Cl)C=C(Cl)C=C2", "physical_data": {"Molecular Weight": "291.99", "Molecular Formula": "C12H6Cl4", "Boiling Point": "146 \u00b0C @ Press: 2 Torr"}}