{"cas_no": "2438-40-6", "cn_name": "\u7518\u6cb9\u4e09\u5341\u4e03\u70f7\u9178\u916f", "en_name": ["Triheptadecanoin", "Heptadecanoic acid, 1,1\u2032,1\u2032\u2032-(1,2,3-propanetriyl) ester", "Heptadecanoin, tri-", "Intarvin", "Heptadecanoic acid, 1,2,3-propanetriyl ester", "Glyceryl margarate", "Heptadecanoic acid triglyceride", "Triheptadecanoin", "Trimargarine", "Trimargaroylglycerol", "Glycerol triheptadecanoate", "Trimargarin", "Triglyceride HdHdHd", "Palmitic acid triglyderide", "1,2,3-Propanetriyltris(heptadecanoate)"], "SMILES": "C(OC(CCCCCCCCCCCCCCCC)=O)(COC(CCCCCCCCCCCCCCCC)=O)COC(CCCCCCCCCCCCCCCC)=O", "physical_data": {"Molecular Weight": "849.40", "Molecular Formula": "C54H104O6", "Melting Point": "59.5-60 \u00b0C"}}