{"cas_no": "2438-32-6", "cn_name": "S-(+)-\u9a6c\u6765\u9178\u6c2f\u82ef\u90a3\u654f", "en_name": ["Dexchlorpheniramine maleate", "2-Pyridinepropanamine, \u03b3-(4-chlorophenyl)-N,N-dimethyl-, (\u03b3S)-, (2Z)-2-butenedioate (1:1)", "2-Pyridinepropanamine, \u03b3-(4-chlorophenyl)-N,N-dimethyl-, (S)-, (Z)-2-butenedioate (1:1)", "Pyridine, 2-[p-chloro-\u03b1-[2-(dimethylamino)ethyl]benzyl]-, maleate (1:1), (S)-", "d-2-[p-Chloro-\u03b1-(2-dimethylaminoethyl)benzyl]pyridine bimaleate", "d-Chlorpheniramine maleate", "Dexchlorpheniramine maleate", "Polaramine", "(+)-Chlorpheniramine maleate", "S-(+)-Chlorpheniramine maleate", "Dexchlorpheniramine hydrogen maleate", "Dextrochlorpheniramine maleate", "Polaramin", "Dexchloropheniramine maleate", "d-Chlorpheniramine maleate", "Polaronil", "Phenamin", "Fortamine", "Phendextro", "Isomerine", "Polamin", "Sensidyn", "S-Chlorpheniramine maleate", "(S)-3-(4-Chlorophenyl)-N,N-dimethyl-3-(pyridin-2-yl)propan-1-amine maleate"], "SMILES": "C(=CC(O)=O)C(O)=O.C(CCN(C)C)(C1=CC=C(Cl)C=C1)C2=CC=CC=N2", "physical_data": {"Molecular Weight": "", "Molecular Formula": "C16H19ClN2.C4H4O4", "Melting Point": "113-115 \u00b0C"}}