{"cas_no": "2438-05-3", "cn_name": "4-\u4e19\u57fa\u82ef\u7532\u9178", "en_name": ["4-Propylbenzoic acid", "Benzoic acid, 4-propyl-", "Benzoic acid, p-propyl-", "4-Propylbenzoic acid", "p-Propylbenzoic acid", "4-n-Propylbenzoic acid", "NSC 168993"], "SMILES": "C(O)(=O)C1=CC=C(CCC)C=C1", "physical_data": {"Molecular Weight": "164.20", "Molecular Formula": "C10H12O2", "Melting Point": "142-144 \u00b0C"}}