{"cas_no": "2438-80-4", "cn_name": "L(-)\u5ca9\u85fb\u7cd6", "en_name": ["Fucose", "L-Galactose, 6-deoxy-", "Fucose, L-", "6-Deoxy-L-galactose", "Fucose", "L-Fucose", "L-Galactomethylose", "6-Desoxygalactose", "L-(-)-Fucose", "(-)-Fucose", "46: PN: US20220380460 SEQID: 47 claimed sequence", "L-Galactopyranose, 6-deoxy-", "Fucopyranose, L-", "NSC 1219", "6-Deoxy-L-galactopyranose"], "SMILES": "C(C(C(C)O)O)(C(C=O)O)O", "physical_data": {"Molecular Weight": "164.16", "Molecular Formula": "C6H12O5", "Melting Point": "140 \u00b0C"}}