{"cas_no": "24386-93-4", "cn_name": "5-\u7898\u4ee3\u6740\u7ed3\u6838\u83cc\u7d20", "en_name": ["5-Iodotubercidin", "7H-Pyrrolo[2,3-d]pyrimidin-4-amine, 5-iodo-7-\u03b2-D-ribofuranosyl-", "7H-Pyrrolo[2,3-d]pyrimidine, 4-amino-5-iodo-7-\u03b2-D-ribofuranosyl-", "5-Iodo-7-\u03b2-D-ribofuranosyl-7H-pyrrolo[2,3-d]pyrimidin-4-amine", "4-Amino-5-iodo-7-\u03b2-D-ribofuranosyl-7H-pyrrolo[2,3-d]pyrimidine", "NSC 113939", "4-Amino-5-iodo-7-\u03b2-D-ribofuranosylpyrrolo[2,3-d]pyrimidine", "5-Iodotubercidin", "7-Iodotubercidin", "7-Iodo-7-deazaadenosine", "NQZ-020"], "SMILES": "OC1C(N2C=3C(C(I)=C2)=C(N)N=CN3)OC(CO)C1O", "physical_data": {"Molecular Weight": "392.15", "Molecular Formula": "C11H13IN4O4", "Melting Point": "215 \u00b0C"}}