{"cas_no": "2439-77-2", "cn_name": "2-\u7532\u6c27\u57fa\u82ef\u7532\u9170\u80fa", "en_name": ["2-Methoxybenzamide", "Benzamide, 2-methoxy-", "o-Anisamide", "Benzamide, o-methoxy-", "2-Methoxybenzamide", "o-Methoxybenzamide", "Orthopramide", "NSC 84232"], "SMILES": "O(C)C1=C(C(N)=O)C=CC=C1", "physical_data": {"Molecular Weight": "151.16", "Molecular Formula": "C8H9NO2", "Boiling Point": "147-149 \u00b0C @ Press: 24 Torr", "Melting Point": "127.5 \u00b0C"}}