{"cas_no": "2439-55-6", "cn_name": "N-\u7532\u57fa-1-\u5341\u516b\u80fa", "en_name": ["Methyloctadecylamine", "1-Octadecanamine, N-methyl-", "Octadecylamine, N-methyl-", "N-Methyl-1-octadecanamine", "N-Methylstearylamine", "N-Methyloctadecylamine", "N-Methyl-N-octadecylamine", "N-Methyl-N-stearylamine", "Methylstearylamine", "Octadecylmethylamine", "N-Stearyl-N-methylamine", "Methyloctadecylamine", "N-Methyloctadecanamine", "NSC 66468", "n-Octadecylmethylamine"], "SMILES": "C(CCCCCCCCNC)CCCCCCCCC", "physical_data": {"Molecular Weight": "283.54", "Molecular Formula": "C19H41N", "Boiling Point": "155 \u00b0C @ Press: 0.5 Torr"}}