{"cas_no": "24393-56-4", "cn_name": "\u5bf9\u7532\u6c27\u57fa\u8089\u6842\u9178\u4e59\u916f", "en_name": ["Ethyl (E)-4-methoxycinnamate", "2-Propenoic acid, 3-(4-methoxyphenyl)-, ethyl ester, (2E)-", "2-Propenoic acid, 3-(4-methoxyphenyl)-, ethyl ester, (E)-", "Ethyl (E)-p-methoxycinnamate", "Ethyl trans-p-methoxycinnamate", "Ethyl (E)-3-(p-methoxyphenyl)-2-propenoate", "Ethyl (E)-3-(4-methoxyphenyl)-2-propenoate", "(E)-Ethyl 4-methoxycinnamate", "Ethyl (E)-4-methoxycinnamate", "Ethyl trans-4-methoxycinnamate", "Solaboost SPF", "(2E)-3-(4-Methoxyphenyl)-2-propenoic acid ethyl ester", "trans-p-Methoxycinnamic acid ethyl ester", "(E)-Ethyl 3-(4-methoxyphenyl)acrylate", "Ethyl 4-methoxy-trans-cinnamate", "(E)-Ethyl 3-(4-methoxyphenyl)acrylate", "Ethyl (E)-3-(4-methoxyphenyl)acrylate"], "SMILES": "C(=CC(OCC)=O)C1=CC=C(OC)C=C1", "physical_data": {"Molecular Weight": "206.24", "Molecular Formula": "C12H14O3", "Boiling Point": "120 \u00b0C @ Press: 0.3 Torr", "Melting Point": "49.5-51 \u00b0C"}}