{"cas_no": "243984-11-4", "cn_name": "\u745e\u6c99\u6258\u7ef4", "en_name": ["Resatorvid", "1-Cyclohexene-1-carboxylic acid, 6-[[(2-chloro-4-fluorophenyl)amino]sulfonyl]-, ethyl ester, (6R)-", "TAK 242", "Resatorvid"], "SMILES": "S(NC1=C(Cl)C=C(F)C=C1)(=O)(=O)C2C(C(OCC)=O)=CCCC2", "physical_data": {"Molecular Weight": "361.82", "Molecular Formula": "C15H17ClFNO4S", "Melting Point": "54-55 \u00b0C"}}