{"cas_no": "2439-01-2", "cn_name": "\u706d\u87a8\u731b", "en_name": ["Chinomethionat", "1,3-Dithiolo[4,5-b]quinoxalin-2-one, 6-methyl-", "Carbonic acid, dithio-, cyclic S,S-(6-methyl-2,3-quinoxalinediyl) ester", "Carbonic acid, dithio-, cyclic S,S-ester with 6-methyl-2,3-quinoxalinedithiol", "6-Methyl-1,3-dithiolo[4,5-b]quinoxalin-2-one", "Bayer 4964", "Bayer 36205", "Chinomethionat", "Forstan", "Morestan", "Oxythioquinox", "Quinomethionate", "Morestane", "MQD", "BAY 36205", "6-Methyl-2,3-quinoxalinedithiol cyclic S,S-dithiocarbonate", "6-Methyl-2-oxo-1,3-dithio[4,5-b]quinoxaline", "Morestan 2", "Cetactaelate", "Daisonet XL 21", "NSC 379587", "Daisonet XL 21S", "XL 21S", "Oxythroquinox", "XL 21", "BFL-K 01"], "SMILES": "O=C1SC=2C(=NC=3C(N2)=CC(C)=CC3)S1", "physical_data": {"Molecular Weight": "234.30", "Molecular Formula": "C10H6N2OS2", "Melting Point": "172 \u00b0C"}}