{"cas_no": "2439-54-5", "cn_name": "N-\u7532\u57fa\u8f9b\u80fa", "en_name": ["N-Methyloctylamine", "1-Octanamine, N-methyl-", "Octylamine, N-methyl-", "N-Methyl-1-octanamine", "Octylmethylamine", "N-Methyl-n-octylamine", "N-Methyloctylamine", "Methyloctylamine", "N-Octyl-N-methylamine", "N-Methyl-N-n-octylamine"], "SMILES": "C(CCCNC)CCCC", "physical_data": {"Molecular Weight": "143.27", "Molecular Formula": "C9H21N", "Boiling Point": "78-79 \u00b0C"}}