{"cas_no": "2439-04-5", "cn_name": "5-\u7f9f\u57fa\u5f02\u55b9\u5549", "en_name": ["5-Hydroxyisoquinoline", "5-Isoquinolinol", "5-Hydroxyisoquinoline", "NSC 51787"], "SMILES": "OC=1C2=C(C=CC1)C=NC=C2", "physical_data": {"Molecular Weight": "145.16", "Molecular Formula": "C9H7NO", "Melting Point": "231-233 \u00b0C"}}