{"cas_no": "243977-23-3", "cn_name": "4-(\u4e09\u6c1f\u7532\u786b\u57fa)\u82ef\u4e59\u9178", "en_name": ["4-[(Trifluoromethyl)thio]benzeneacetic acid", "Benzeneacetic acid, 4-[(trifluoromethyl)thio]-", "4-[(Trifluoromethyl)thio]benzeneacetic acid", "4-(Trifluoromethylthio)phenylacetic acid", "4-(Trifluoromethylsulfanyl)phenylacetic acid", "2-[4-(Trifluoromethylthio)phenyl]acetic acid", "2-[4-[(Trifluoromethyl)sulfanyl]phenyl]acetic acid"], "SMILES": "S(C(F)(F)F)C1=CC=C(CC(O)=O)C=C1", "physical_data": {"Molecular Weight": "236.21", "Molecular Formula": "C9H7F3O2S", "Melting Point": "116-117.5 \u00b0C"}}