{"cas_no": "24393-53-1", "cn_name": "\u53cd\u5f0f-4-\u6eb4\u8089\u6842\u9178\u4e59\u916f", "en_name": ["2-Propenoic acid, 3-(4-bromophenyl)-, ethyl ester, (2E)-", "2-Propenoic acid, 3-(4-bromophenyl)-, ethyl ester, (2E)-", "Cinnamic acid, p-bromo-, ethyl ester, (E)-", "2-Propenoic acid, 3-(4-bromophenyl)-, ethyl ester, (E)-", "trans-p-Bromocinnamic acid ethyl ester", "Ethyl (E)-4-bromocinnamate", "Ethyl trans-4-bromocinnamate", "(E)-3-(4-Bromophenyl)acrylic acid ethyl ester", "(E)-3-(4-Bromophenyl)-2-propenoic acid ethyl ester", "Ethyl (2E)-3-(4-bromophenyl)-2-propenoate", "(E)-Ethyl 3-(4-bromophenyl)acrylate", "Ethyl (E)-3-(4-bromophenyl)-2-propenoate", "(E)-Ethyl 3-(4-bromophenyl)acrylate", "Ethyl (2E)-3-(4-bromophenyl)prop-2-enoate", "Ethyl (E)-3-(4-Bromophenyl)acrylate"], "SMILES": "C(=CC(OCC)=O)C1=CC=C(Br)C=C1", "physical_data": {"Molecular Weight": "255.11", "Molecular Formula": "C11H11BrO2", "Boiling Point": "158 \u00b0C @ Press: 1.5 Torr"}}