{"cas_no": "2439-10-3", "cn_name": "\u591a\u679c\u5b9a", "en_name": ["Dodine", "Guanidine, N-dodecyl-, acetate (1:1)", "Guanidine, dodecyl-, monoacetate", "Guanidine, dodecyl-, acetate", "Cyprex 65W", "American Cyanamid 5,223", "Cyprex", "Dodecylguanidine acetate", "n-Dodecylguanidine acetate", "Dodin", "Dodine", "Doguadine", "Laurylguanidine acetate", "Melprex", "Melprex 65W", "Syllit", "AC 5223", "Karpen", "Melprex 65", "Aadodin", "Dodecylguanidinium acetate", "Syllit 65", "Carpene", "Dodine gorsac", "Melprex Liquid Dodine", "Radspor", "Dodex", "Dodex (pesticide)", "Comet", "Dodine 400", "Dodine 544SC", "Dodine 600SC", "Elast", "Cytrex"], "SMILES": "C(C)(O)=O.C(CCCCCCCC)CCCNC(=N)N", "physical_data": {"Molecular Weight": "", "Molecular Formula": "C13H29N3.C2H4O2", "Melting Point": "136 \u00b0C"}}