{"cas_no": "2439-99-8", "cn_name": "\u589e\u7518\u81a6", "en_name": ["Polaris", "Glycine, N,N-bis(phosphonomethyl)-", "N,N-Bis(phosphonomethyl)glycine", "Nitrilomonoacetic acid dimethylenephosphonic acid", "CP 41845", "Polaris", "Glyphosine", "MON-O45", "Glycine-N,N-bis(methylenephosphonic acid)", "MON 845", "Nitrilomonomethylcarbonyldimethylphosphonic acid", "Glycinedimethanephosphonic acid", "C 9552", "N,N-Bis(phosphonomethyl)aminoacetic acid", "Polaris (ripening agent)", "N,N-Di(phosphonomethyl)glycine", "NSC 18468", "N,N-Bis(phosphonomethyl)aminoacetic", "GDMP", "2-[Bis(phosphonomethyl)amino]acetic acid", "Glycine dimethylene phosphonic acid", "(((Carboxymethyl)imino)dimethylene)bisphosphonic acid", "Glycine, anhydride with dimethyl phosphate"], "SMILES": "C(N(CP(=O)(O)O)CC(O)=O)P(=O)(O)O", "physical_data": {"Molecular Weight": "263.08", "Molecular Formula": "C4H11NO8P2", "Melting Point": "205 \u00b0C"}}