{"cas_no": "243990-54-7", "cn_name": "3-(BENZYLOXY)-4-METHOXYPHENYLBORONIC ACID", "en_name": ["B-[4-Methoxy-3-(phenylmethoxy)phenyl]boronic acid", "Boronic acid, B-[4-methoxy-3-(phenylmethoxy)phenyl]-", "Boronic acid, [4-methoxy-3-(phenylmethoxy)phenyl]-", "B-[4-Methoxy-3-(phenylmethoxy)phenyl]boronic acid", "3-Benzyloxy-4-methoxyphenylboronic acid"], "SMILES": "O(CC1=CC=CC=C1)C2=C(OC)C=CC(B(O)O)=C2", "physical_data": {"Molecular Weight": "258.08", "Molecular Formula": "C14H15BO4", "Melting Point": "135-155 \u00b0C"}}