{"cas_no": "2439-56-7", "cn_name": "\u73af\u620a\u57fa\u7532\u57fa\u80fa", "en_name": ["Cyclopentylmethylamine", "Cyclopentanamine, N-methyl-", "Cyclopentylamine, N-methyl-", "N-Methylcyclopentanamine", "N-Methylcyclopentylamine", "Cyclopentylmethylamine", "N-Cyclopentyl-N-methylamine", "(Methylamino)cyclopentane", "Methyl(cyclopentyl)amine"], "SMILES": "N(C)C1CCCC1", "physical_data": {"Molecular Weight": "99.17", "Molecular Formula": "C6H13N", "Boiling Point": "124 \u00b0C", "Density": "0.840 g/cm\u00b3 @ Temp: 25 \u00b0C"}}