{"cas_no": "2439-35-2", "cn_name": "\u4e19\u70ef\u9178\u4e8c\u7532\u80fa\u57fa\u4e59\u916f", "en_name": ["Dimethylaminoethyl acrylate", "2-Propenoic acid, 2-(dimethylamino)ethyl ester", "Acrylic acid, 2-(dimethylamino)ethyl ester", "Dimethylaminoethyl acrylate", "2-(Dimethylamino)ethyl acrylate", "N,N-Dimethylaminoethyl acrylate", "DMAEA", "NSC 20952", "Acryloyloxyethyldimethylamine", "[2-(Acryloyloxy)ethyl]dimethylamine", "Norsocryl ADAME", "ADAME", "Aron DA", "2-(Dimethylamino)ethyl prop-2-enoate"], "SMILES": "C(OCCN(C)C)(C=C)=O", "physical_data": {"Molecular Weight": "143.18", "Molecular Formula": "C7H13NO2", "Boiling Point": "59.5-61.5 \u00b0C @ Press: 11 Torr"}}