{"cas_no": "24393-52-0", "cn_name": "\u5bf9\u6c2f\u8089\u6842\u9178\u4e59\u916f", "en_name": ["Ethyl (2E)-3-(4-chlorophenyl)-2-propenoate", "2-Propenoic acid, 3-(4-chlorophenyl)-, ethyl ester, (2E)-", "Cinnamic acid, p-chloro-, ethyl ester, (E)-", "2-Propenoic acid, 3-(4-chlorophenyl)-, ethyl ester, (E)-", "Ethyl (2E)-3-(4-chlorophenyl)-2-propenoate", "Ethyl (E)-3-(4-chlorophenyl)-2-propenoate", "Ethyl (E)-p-chlorocinnamate", "Ethyl (E)-3-(p-chlorophenyl)-2-propenoate", "(E)-Ethyl 4-chlorocinnamate", "(2E)-3-(4-Chlorophenyl)-2-propenoic acid ethyl ester", "Ethyl (2E)-3-(4-chlorophenyl)prop-2-enoate", "Ethyl trans-4-chlorocinnamate"], "SMILES": "C(=CC(OCC)=O)C1=CC=C(Cl)C=C1", "physical_data": {"Molecular Weight": "210.66", "Molecular Formula": "C11H11ClO2", "Boiling Point": "136-137 \u00b0C @ Press: 0.8 Torr", "Melting Point": "49-51 \u00b0C"}}