{"cas_no": "24398-88-7", "cn_name": "3-\u6eb4\u82ef\u7532\u9178\u4e59\u916f", "en_name": ["Ethyl 3-bromobenzoate", "Benzoic acid, 3-bromo-, ethyl ester", "Benzoic acid, m-bromo-, ethyl ester", "Ethyl 3-bromobenzoate", "Ethyl m-bromobenzoate", "3-(Ethoxycarbonyl)phenyl bromide", "3-Bromobenzoic acid ethyl ester"], "SMILES": "C(OCC)(=O)C1=CC(Br)=CC=C1", "physical_data": {"Molecular Weight": "229.07", "Molecular Formula": "C9H9BrO2", "Boiling Point": "261 \u00b0C", "Melting Point": "26-30 \u00b0C"}}