{"cas_no": "2439-85-2", "cn_name": "N-\u6eb4\u915e\u4e9a\u80fa", "en_name": ["N-Bromophthalimide", "1H-Isoindole-1,3(2H)-dione, 2-bromo-", "Phthalimide, N-bromo-", "2-Bromo-1H-isoindole-1,3(2H)-dione", "N-Bromophthalimide", "NSC 3525", "2-Bromoisoindole-1,3-dione", "2-Bromoisoindoline-1,3-dione", "2-Bromo-2,3-dihydro-1H-isoindole-1,3-dione"], "SMILES": "O=C1C=2C(C(=O)N1Br)=CC=CC2", "physical_data": {"Molecular Weight": "226.03", "Molecular Formula": "C8H4BrNO2", "Melting Point": "199-201 \u00b0C"}}