{"cas_no": "244-76-8", "cn_name": "9H-\u5421\u5576\u5e76[2,3-B]\u5432\u54da", "en_name": ["9H-Pyrido[2,3-b]indole", "9H-Pyrido[2,3-b]indole", "1H-Pyrido[2,3-b]indole", "1,9-Diazafluorene", "\u03b1-Carboline", "1-Azacarbazole", "9H-1,9-Diazafluorene", "NSC 67064", "N-\u03b1-Carboline"], "SMILES": "C1=2C=3C(NC1=CC=CC2)=NC=CC3", "physical_data": {"Molecular Weight": "168.19", "Molecular Formula": "C11H8N2", "Melting Point": "210 \u00b0C"}}