{"cas_no": "244-63-3", "cn_name": "9H-\u5421\u5576[3,4-b]\u5432\u54da", "en_name": ["\u03b2-Carboline", "9H-Pyrido[3,4-b]indole", "Carbazoline", "\u03b2-Carboline", "2,9-Diazafluorene", "Norharman", "Norharmane", "2-Azacarbazole", "NSC 84417"], "SMILES": "C1=2C=3C(NC1=CC=CC2)=CN=CC3", "physical_data": {"Molecular Weight": "168.19", "Molecular Formula": "C11H8N2", "Melting Point": "199 \u00b0C"}}