{"cas_no": "24407-32-7", "cn_name": "\u56db\u6eb4\u90bb\u82ef\u4e8c\u7532\u9170\u4e9a\u80fa", "en_name": ["3,4,5,6-Tetrabromophthalimide", "1H-Isoindole-1,3(2H)-dione, 4,5,6,7-tetrabromo-", "Phthalimide, 3,4,5,6-tetrabromo-", "4,5,6,7-Tetrabromo-1H-isoindole-1,3(2H)-dione", "3,4,5,6-Tetrabromophthalimide", "NSC 93908"], "SMILES": "BrC1=C2C(=C(Br)C(Br)=C1Br)C(=O)NC2=O", "physical_data": {"Molecular Weight": "462.71", "Molecular Formula": "C8HBr4NO2", "Melting Point": "&gt;300 \u00b0C"}}