{"cas_no": "2440-22-4", "cn_name": "\u7d2b\u5916\u7ebf\u5438\u6536\u5242 UV-P", "en_name": ["Drometrizole", "Phenol, 2-(2H-benzotriazol-2-yl)-4-methyl-", "p-Cresol, 2-(2H-benzotriazol-2-yl)-", "2-(2H-Benzotriazol-2-yl)-4-methylphenol", "2-(2-Hydroxy-5-methylphenyl)benzotriazole", "Tinuvin P", "2-(2\u2032-Hydroxy-5\u2032-methylphenyl)benzotriazole", "Benazol P", "2-(2-Hydroxy-5-methylphenyl)-2H-benzotriazole", "UV Absorber 1", "2-(2H-Benzotriazol-2-yl)-p-cresol", "Drometrizole", "Seikalizer AZ", "Benazol II", "Sumisorb 200", "Mark LA 32", "2-Benzotriazol-2-yl-4-methylphenol", "2-(5-Methyl-2-hydroxyphenyl)benzotriazole", "Viosorb 520", "UVA-P", "ADK Stab LA 32", "LA 32", "Seesorb 701", "JF 77", "ADK-ARKLS DN 13", "2-(5\u2032-Methyl-2\u2032-hydroxyphenyl)benzotriazole", "NSC 91885", "Uvasorb SV", "Lowilite 55", "Eversorb 71", "JF 77P", "BT 1 (light stabilizer)", "BT 1", "Uvinul 3033P", "UV-P", "Kemisorb 71", "UV-P (UV stabilizer)", "Dainsorb T 1", "JF 77T", "2-(2-Hydroxy-5-methyl)benzotriazole", "JCK-W-UA", "4-Methyl-2-(2H-benzotriazol-2-yl)phenol", "Tinuvin UV-P", "Solartex UVP", "Chisorb P", "Tinuvin PED", "UV 71", "Songsorb 1000", "2-(2H-Benzo[d][1,2,3]triazol-2-yl)-4-methylphenol", "2-(2\u2032-Hydroxy-5\u2032-methylphenyl)-2H-benzotriazole", "Seesorb 701B", "3033P", "Adeka Stab LA 32"], "SMILES": "OC1=C(N2N=C3C(=N2)C=CC=C3)C=C(C)C=C1", "physical_data": {"Molecular Weight": "225.25", "Molecular Formula": "C13H11N3O", "Boiling Point": "225 \u00b0C @ Press: 10 Torr", "Melting Point": "131-133 \u00b0C"}}