{"cas_no": "24404-50-0", "cn_name": "\u8868\u677e\u8102\u915a", "en_name": ["(+)-Epipinoresinol", "Phenol, 4,4\u2032-[(1R,3aR,4S,6aR)-tetrahydro-1H,3H-furo[3,4-c]furan-1,4-diyl]bis[2-methoxy-", "Epipinoresinol", "Phenol, 4,4\u2032-(3a\u03b2,4,6,6a\u03b2-tetrahydro-1H,3H-furo[3,4-c]furan-1\u03b1,4\u03b2-diyl)bis[2-methoxy-", "Phenol, 4,4\u2032-(tetrahydro-1H,3H-furo[3,4-c]furan-1,4-diyl)bis[2-methoxy-, [1S-(1\u03b1,3a\u03b1,4\u03b2,6a\u03b1)]-", "1H,3H-Furo[3,4-c]furan, phenol deriv.", "4,4\u2032-[(1R,3aR,4S,6aR)-Tetrahydro-1H,3H-furo[3,4-c]furan-1,4-diyl]bis[2-methoxyphenol]", "epi-Pinoresinol", "(+)-Epipinoresinol"], "SMILES": "O(C)C=1C=C(C2C3C(C(OC3)C4=CC(OC)=C(O)C=C4)CO2)C=CC1O", "physical_data": {"Molecular Weight": "358.39", "Molecular Formula": "C20H22O6", "Melting Point": "137-138 \u00b0C"}}