{"cas_no": "24413-04-5", "cn_name": "4-(\u6c2f\u7532\u57fa)\u82ef\u57fa\u4e09\u7532\u6c27\u57fa\u7845\u70f7", "en_name": ["[p-(Chloromethyl)phenyl]trimethoxysilane", "Benzene, 1-(chloromethyl)-4-(trimethoxysilyl)-", "Silane, [4-(chloromethyl)phenyl]trimethoxy-", "1-(Chloromethyl)-4-(trimethoxysilyl)benzene", "[p-(Chloromethyl)phenyl]trimethoxysilane", "[4-(Chloromethyl)phenyl]trimethoxysilane", "p-(Trimethoxysilyl)benzyl chloride", "SIC 2296.2"], "SMILES": "[Si](OC)(OC)(OC)C1=CC=C(CCl)C=C1", "physical_data": {"Molecular Weight": "246.76", "Molecular Formula": "C10H15ClO3Si", "Boiling Point": "134-143 \u00b0C @ Press: 10 Torr", "Density": "1.14 g/cm\u00b3"}}