{"cas_no": "2441-97-6", "cn_name": "3-\u6c2f\u73af\u5df1\u70ef", "en_name": ["3-Chlorocyclohexene", "Cyclohexene, 3-chloro-", "3-Chlorocyclohexene", "3-Chloro-1-cyclohexene", "3-Cyclohexenyl chloride", "2-Cyclohexenyl chloride", "1-Chloro-2-cyclohexene"], "SMILES": "ClC1CCCC=C1", "physical_data": {"Molecular Weight": "116.59", "Molecular Formula": "C6H9Cl", "Boiling Point": "62 \u00b0C @ Press: 35 Torr", "Density": "1.030 g/cm\u00b3 @ Temp: 20 \u00b0C"}}