{"cas_no": "2441-41-0", "cn_name": "\u68d5\u6988\u9170\u7518\u6c28\u9178", "en_name": ["N-Palmitoylglycine", "Glycine, N-(1-oxohexadecyl)-", "Glycine, N-palmitoyl-", "N-(1-Oxohexadecyl)glycine", "Palmitylglycine", "N-Palmitoylglycine", "N-Hexadecanoyl-glycine", "2-(Hexadecanoylamino)acetic acid"], "SMILES": "C(CCCCCCCCCCCCCC)C(NCC(O)=O)=O", "physical_data": {"Molecular Weight": "313.48", "Molecular Formula": "C18H35NO3", "Melting Point": "121 \u00b0C"}}