{"cas_no": "2442-49-1", "cn_name": "\u6728\u8721\u9178\u7532\u916f", "en_name": ["Methyl tetracosanoate", "Tetracosanoic acid, methyl ester", "Methyl lignocerate", "Methyl tetracosanoate", "Lignoceric acid methyl ester", "C24:0 FAME"], "SMILES": "C(CCCCCCCCCCCCCCCCC)CCCCCC(OC)=O", "physical_data": {"Molecular Weight": "382.66", "Molecular Formula": "C25H50O2", "Boiling Point": "177-179 \u00b0C @ Press: 0.08 Torr", "Melting Point": "57.1-57.7 \u00b0C"}}