{"cas_no": "24425-40-9", "cn_name": "5-\u6c28\u57fa\u831a\u65e6", "en_name": ["5-Aminoindan", "1H-Inden-5-amine, 2,3-dihydro-", "5-Indanamine", "2,3-Dihydro-1H-inden-5-amine", "5-Aminoindan", "5-Aminoindane", "5-Indanylamine", "6-Aminoindan", "(2,3-Dihydro-1H-inden-5-yl)amine", "5-Amino-2,3-dihydro-1H-indene"], "SMILES": "NC=1C=C2C(=CC1)CCC2", "physical_data": {"Molecular Weight": "133.19", "Molecular Formula": "C9H11N", "Boiling Point": "248 \u00b0C", "Melting Point": "37.5 \u00b0C"}}