{"cas_no": "2442-10-6", "cn_name": "1-\u8f9b\u70ef-3-\u9187\u4e59\u9178\u916f", "en_name": ["1-Octen-3-yl acetate", "1-Octen-3-ol, 3-acetate", "1-Octen-3-ol, acetate", "1-Octen-3-yl acetate", "1-Pentylallyl acetate", "Amylvinylcarbinol acetate", "3-Acetoxy-1-octene", "1-Octenyl-3-yl acetate"], "SMILES": "C(CCCCC)(OC(C)=O)C=C", "physical_data": {"Molecular Weight": "170.25", "Molecular Formula": "C10H18O2", "Boiling Point": "79-80 \u00b0C @ Press: 12 Torr", "Density": "0.8733 g/cm\u00b3 @ Temp: 20 \u00b0C"}}