{"cas_no": "24425-13-6", "cn_name": "2-\u53d4\u4e01\u57fa\u82ef\u54aa\u5511", "en_name": ["2-(1,1-Dimethylethyl)-1H-benzimidazole", "1H-Benzimidazole, 2-(1,1-dimethylethyl)-", "Benzimidazole, 2-tert-butyl-", "2-(1,1-Dimethylethyl)-1H-benzimidazole", "2-tert-Butylbenzimidazole", "NSC 34830", "2-tert-Butyl-1H-benzimidazole", "2-tert-Butyl-1H-1,3-benzodiazole"], "SMILES": "C(C)(C)(C)C=1NC=2C(N1)=CC=CC2", "physical_data": {"Molecular Weight": "174.24", "Molecular Formula": "C11H14N2", "Melting Point": "&gt;300 \u00b0C"}}