{"cas_no": "24424-99-5", "cn_name": "\u4e8c\u78b3\u9178\u4e8c\u53d4\u4e01\u916f", "en_name": ["Di-tert-butyl dicarbonate", "Dicarbonic acid, 1,3-bis(1,1-dimethylethyl) ester", "Formic acid, oxydi-, di-tert-butyl ester", "Dicarbonic acid, bis(1,1-dimethylethyl) ester", "Pyrocarbonic acid di-tert-butyl ester", "Di-tert-butyl pyrocarbonate", "Di-tert-butyl dicarbonate", "Bis(1,1-dimethylethyl) dicarbonate", "Di-tert-butyl oxydiformate", "BOC-anhydride", "(Boc)2O", "tert-Butyl dicarbonate", "tert-Butoxycarbonyl anhydride", "Bis(tert-butyl) dicarbonate", "Bis(tert-butoxycarbonyl) ether", "tert-Butoxycarbonyl tert-butyl carbonate", "di-tert-butyl dicarbonate", "tert-Butoxycarboxylic anhydride", "Boc2O", "Dineopentyl dicarbonate", "Di-tert-butyl-dicarbonate"], "SMILES": "O(C(C)(C)C)C(OC(OC(C)(C)C)=O)=O", "physical_data": {"Molecular Weight": "218.25", "Molecular Formula": "C10H18O5", "Boiling Point": "64-67 \u00b0C @ Press: 1 Torr"}}