{"cas_no": "24426-16-2", "cn_name": "N,N-\u4e8c\u4e59\u57fa\u4e8c\u4e59\u70ef\u57fa\u4e09\u80fa", "en_name": ["N,N-Diethyldiethylenetriamine", "1,2-Ethanediamine, N2-(2-aminoethyl)-N1,N1-diethyl-", "Diethylenetriamine, 1,1-diethyl-", "1,2-Ethanediamine, N\u2032-(2-aminoethyl)-N,N-diethyl-", "N2-(2-Aminoethyl)-N1,N1-diethyl-1,2-ethanediamine", "N,N-Diethyldiethylenetriamine", "NSC 166316", "N\u2032-(2-Diethylaminoethyl)ethane-1,2-diamine", "N-(2-Diethylaminoethyl)ethane-1,2-diamine", "N-(2-Diethylaminoethyl)ethylenediamine", "(2-Aminoethyl)[2-(diethylamino)ethyl]amine", "[2-[(2-Aminoethyl)amino]ethyl]diethylamine"], "SMILES": "N(CCNCCN)(CC)CC", "physical_data": {"Molecular Weight": "159.27", "Molecular Formula": "C8H21N3", "Boiling Point": "112-114 \u00b0C @ Press: 24 Torr", "Density": "0.8761 g/cm\u00b3 @ Temp: 20 \u00b0C"}}