{"cas_no": "24431-27-4", "cn_name": "4-\u4e59\u57fa\u82ef\u6c27\u57fa\u4e59\u9178", "en_name": ["2-(4-Ethylphenoxy)acetic acid", "Acetic acid, 2-(4-ethylphenoxy)-", "Acetic acid, (p-ethylphenoxy)-", "Acetic acid, (4-ethylphenoxy)-", "2-(4-Ethylphenoxy)acetic acid", "4-Ethylphenoxyacetic acid", "2-(p-Ethylphenoxy)acetic acid"], "SMILES": "O(CC(O)=O)C1=CC=C(CC)C=C1", "physical_data": {"Molecular Weight": "180.20", "Molecular Formula": "C10H12O3", "Melting Point": "96 \u00b0C"}}