{"cas_no": "2443-66-5", "cn_name": "\u9a6c\u6765\u9178\u9170\u80bc", "en_name": ["Hydroxy(phenyl)acetic acid hydrazide", "Benzeneacetic acid, \u03b1-hydroxy-, hydrazide", "Mandelic acid, hydrazide", "Mandelohydrazide", "DL-Hydroxy(phenyl)acetic acid hydrazide", "Hydroxy(phenyl)acetohydrazide", "Hydroxy(phenyl)acetic acid hydrazide", "INHd 34", "2-Hydroxy-2-phenylacetohydrazide"], "SMILES": "C(C(NN)=O)(O)C1=CC=CC=C1", "physical_data": {"Molecular Weight": "166.18", "Molecular Formula": "C8H10N2O2", "Melting Point": "132-133 \u00b0C"}}