{"cas_no": "24437-41-0", "cn_name": "(1-\u7532\u57fa-2-\u5421\u54af\u57fa)\u4e59\u8148", "en_name": ["1-Methyl-1H-pyrrole-2-acetonitrile", "1H-Pyrrole-2-acetonitrile, 1-methyl-", "Pyrrole-2-acetonitrile, 1-methyl-", "1-Methyl-1H-pyrrole-2-acetonitrile", "1-Methylpyrrole-2-acetonitrile", "2-(1-Methyl-pyrrol-2-yl)acetonitrile", "2-(1-Methyl-1H-pyrrol-2-yl)acetonitrile"], "SMILES": "C(C#N)C=1N(C)C=CC1", "physical_data": {"Molecular Weight": "120.15", "Molecular Formula": "C7H8N2", "Boiling Point": "90-92 \u00b0C @ Press: 1 Torr", "Melting Point": "28-29 \u00b0C"}}