{"cas_no": "2443-58-5", "cn_name": "2-\u7f9f\u57fa\u82b4", "en_name": ["2-Hydroxyfluorene", "9H-Fluoren-2-ol", "Fluoren-2-ol", "2-Hydroxyfluorene", "2-Hydroxy-9H-fluorene", "NSC 26316", "NSC 31248"], "SMILES": "OC=1C=C2C(C=3C(C2)=CC=CC3)=CC1", "physical_data": {"Molecular Weight": "182.22", "Molecular Formula": "C13H10O", "Boiling Point": "266.3 \u00b0C", "Melting Point": "168 \u00b0C", "Density": "0.9982 g/cm\u00b3 @ Temp: 20 \u00b0C"}}