{"cas_no": "2444-36-2", "cn_name": "\u90bb\u6c2f\u82ef\u4e59\u9178", "en_name": ["(2-Chlorophenyl)acetic acid", "Benzeneacetic acid, 2-chloro-", "Acetic acid, (o-chlorophenyl)-", "2-Chlorobenzeneacetic acid", "(2-Chlorophenyl)acetic acid", "(o-Chlorophenyl)acetic acid", "2-(o-Chlorophenyl)ethanoic acid", "NSC 4613", "o-Chlorobenzeneacetic acid"], "SMILES": "C(C(O)=O)C1=C(Cl)C=CC=C1", "physical_data": {"Molecular Weight": "170.59", "Molecular Formula": "C8H7ClO2", "Melting Point": "93-94 \u00b0C"}}