{"cas_no": "24448-20-2", "cn_name": "\u4e59\u6c27\u57fa\u5316\u53cc\u915a A \u4e8c\u7532\u57fa\u4e19\u70ef\u9178\u916f", "en_name": ["Diacryl", "2-Propenoic acid, 2-methyl-, 1,1\u2032-[(1-methylethylidene)bis(4,1-phenyleneoxy-2,1-ethanediyl)] ester", "Methacrylic acid, isopropylidenebis(p-phenyleneoxyethylene) ester", "2-Propenoic acid, 2-methyl-, (1-methylethylidene)bis(4,1-phenyleneoxy-2,1-ethanediyl) ester", "Ethanol, 2,2\u2032-[isopropylidenebis(p-phenyleneoxy)]di-, dimethacrylate", "Bisphenol A bis(methacryloyloxyethyl) ether", "2,2-Bis(p-hydroxyethoxyphenyl)propane dimethacrylate", "Diacryl", "Diacryl 101", "Diacryl 101P", "Bisphenol A bis(2-methacrylatoethyl) ether", "Bisphenol A bis(2-hydroxyethyl ether) dimethacrylate", "2,2-Bis[4-(2-methacryloyloxyethoxy)phenyl]propane", "Bis(2-hydroxyethyl)bisphenol-A dimethacrylate", "SR 348", "Polybisacryl", "DEBPADMA", "Diacryl 103", "Al-co-cure EBDMA", "NK Ester BPE 100", "Sartomer 348", "Photomer 2028", "BPE 100", "Sartomer SR 348", "Nouryset 110", "SR 348L", "Sartomer 348L", "SR 348L-NS", "EBPADMA", "Bisphenol A-ethylene oxide 1:2 adduct dimethacrylate"], "SMILES": "C(C)(C)(C1=CC=C(OCCOC(C(C)=C)=O)C=C1)C2=CC=C(OCCOC(C(C)=C)=O)C=C2", "physical_data": {"Molecular Weight": "452.54", "Molecular Formula": "C27H32O6", "Melting Point": "44-45 \u00b0C"}}