{"cas_no": "2444-46-4", "cn_name": "\u8fa3\u6912\u7d20", "en_name": ["Nonivamide", "Nonanamide, N-[(4-hydroxy-3-methoxyphenyl)methyl]-", "Nonanamide, N-vanillyl-", "N-[(4-Hydroxy-3-methoxyphenyl)methyl]nonanamide", "Nonanoic acid vanillylamide", "Pelargonic acid vanillylamide", "N-Vanillylnonanamide", "N-Vanillylpelargonamide", "Vanillyl n-nonylamide", "Vanillyl pelargonic amide", "N-Vanillylnonamide", "Nonylic acid vanillylamide", "Nonylic vanillylamide", "Nonivamide", "AH 23491X", "Pseudocapsaicin", "N-(4-Hydroxy-3-methoxybenzyl)nonamide", "Nonanoylvanillyl amide", "8-Nordihydrocapsaicin", "NSC 172795"], "SMILES": "C(NC(CCCCCCCC)=O)C1=CC(OC)=C(O)C=C1", "physical_data": {"Molecular Weight": "293.40", "Molecular Formula": "C17H27NO3", "Boiling Point": "200-210 \u00b0C @ Press: 0.05 Torr", "Melting Point": "57-59 \u00b0C"}}