{"cas_no": "2444-68-0", "cn_name": "9-\u4e59\u70ef\u57fa\u84bd", "en_name": ["9-Vinylanthracene", "Anthracene, 9-ethenyl-", "Anthracene, 9-vinyl-", "9-Ethenylanthracene", "9-Vinylanthracene", "NSC 91571"], "SMILES": "C(=C)C=1C2=C(C=C3C1C=CC=C3)C=CC=C2", "physical_data": {"Molecular Weight": "204.27", "Molecular Formula": "C16H12", "Boiling Point": "154 \u00b0C @ Press: 0.5 Torr", "Melting Point": "64.5-65.5 \u00b0C"}}