{"cas_no": "2444-19-1", "cn_name": "4-\u7f9f\u57fa\u82ef\u57fa\u5b89\u606f\u9999\u9178", "en_name": ["1,4-Benzenediol, 1-benzoate", "1,4-Benzenediol, 1-benzoate", "Hydroquinone, monobenzoate", "1,4-Benzenediol, monobenzoate", "Hydroquinone, benzoate", "Hydroquinone, benzoate (mono-)", "p-Hydroxyphenyl benzoate", "4-(Benzoyloxy)phenol", "4-Hydroxyphenyl benzoate", "NSC 48470", "p-Hydroquinone monobenzoate"], "SMILES": "C(OC1=CC=C(O)C=C1)(=O)C2=CC=CC=C2", "physical_data": {"Molecular Weight": "214.22", "Molecular Formula": "C13H10O3", "Melting Point": "163-164 \u00b0C"}}