{"cas_no": "2444-37-3", "cn_name": "\u7532\u57fa\u786b\u4ee3\u4e59\u9178", "en_name": ["(Methylthio)acetic acid", "Acetic acid, 2-(methylthio)-", "Acetic acid, (methylthio)-", "2-(Methylthio)acetic acid", "S-Methylthioglycolic acid", "(Methylmercapto)acetic acid", "2-(Methylthio)ethanoic acid", "\u03b1-(Methylthio)acetic acid", "(Methylsulfenyl)acetic acid", "(Methylthio)acetic acid", "Methylsulfanylacetic acid", "NSC 263480", "2-Methylmercaptoacetic acid", "2-Methylsulfanylacetic acid", "2-(Methylsulfanyl)acetic acid"], "SMILES": "C(C(O)=O)SC", "physical_data": {"Molecular Weight": "106.14", "Molecular Formula": "C3H6O2S", "Boiling Point": "107 \u00b0C @ Press: 9.5 Torr", "Density": "1.227 g/cm\u00b3 @ Temp: 20 \u00b0C"}}