{"cas_no": "2445-76-3", "cn_name": "\u4e19\u9178\u5df1\u916f", "en_name": ["Hexyl propanoate", "Propanoic acid, hexyl ester", "Propionic acid, hexyl ester", "Hexyl propionate", "n-Hexyl propionate", "Hexyl propanoate", "1-Hexyl propionate", "1-Hexyl propanoate"], "SMILES": "C(OC(CC)=O)CCCCC", "physical_data": {"Molecular Weight": "158.24", "Molecular Formula": "C9H18O2", "Boiling Point": "190 \u00b0C", "Melting Point": "-57.5 \u00b0C"}}