{"cas_no": "2445-78-5", "cn_name": "2-\u7532\u57fa\u4e01\u9178 2-\u7532\u57fa\u4e01\u916f", "en_name": ["2-Methylbutyl 2-methylbutanoate", "Butanoic acid, 2-methyl-, 2-methylbutyl ester", "Butyric acid, 2-methyl-, 2-methylbutyl ester", "2-Methylbutyl 2-methylbutyrate", "2-Methylbutyl 2-methylbutanoate", "2-Methylbutanoic acid 2-methylbutyl ester", "2-Methyl-1-butyl 2-methylbutanoate"], "SMILES": "C(OCC(CC)C)(C(CC)C)=O", "physical_data": {"Molecular Weight": "172.26", "Molecular Formula": "C10H20O2", "Boiling Point": "184-187 \u00b0C"}}