{"cas_no": "2445-72-9", "cn_name": "\u5f02\u4e01\u9178\u620a\u916f", "en_name": ["Amyl isobutyrate", "Propanoic acid, 2-methyl-, pentyl ester", "Isobutyric acid, pentyl ester", "Amyl isobutyrate", "Pentyl isobutyrate", "Pentyl 2-methylpropionate", "2-Methylpropionic acid pentyl ester", "Pentyl 2-methylpropanoate", "n-Pentyl 2-methylpropanoate", "Pentyl isobutanoate"], "SMILES": "C(OCCCCC)(C(C)C)=O", "physical_data": {"Molecular Weight": "158.24", "Molecular Formula": "C9H18O2", "Boiling Point": "108-113 \u00b0C @ Press: 11 Torr"}}