{"cas_no": "2445-83-2", "cn_name": "7-\u7532\u57fa\u9999\u8c46\u7d20", "en_name": ["7-Methylcoumarin", "2H-1-Benzopyran-2-one, 7-methyl-", "Coumarin, 7-methyl-", "7-Methyl-2H-1-benzopyran-2-one", "7-Methylcoumarin", "NSC 19511", "7-Methylchromen-2-one", "7-Methyl-2H-chromen-2-one"], "SMILES": "CC=1C=C2C(C=CC(=O)O2)=CC1", "physical_data": {"Molecular Weight": "160.17", "Molecular Formula": "C10H8O2", "Melting Point": "128 \u00b0C"}}