{"cas_no": "2445-80-9", "cn_name": "7,8-\u4e8c\u7532\u6c27\u57fa\u9999\u8c46\u7d20", "en_name": ["7,8-Dimethoxycoumarin", "2H-1-Benzopyran-2-one, 7,8-dimethoxy-", "Coumarin, 7,8-dimethoxy-", "7,8-Dimethoxy-2H-1-benzopyran-2-one", "Daphnetin dimethyl ether", "7,8-Dimethoxycoumarin"], "SMILES": "O(C)C1=C2C(=CC=C1OC)C=CC(=O)O2", "physical_data": {"Molecular Weight": "206.19", "Molecular Formula": "C11H10O4", "Melting Point": "118-119 \u00b0C"}}