{"cas_no": "2445-53-6", "cn_name": "\u7532\u57fa\u7845\u70f7\u4e09\u9187", "en_name": ["Methylsilanetriol", "Silanetriol, 1-methyl-", "Silanetriol, methyl-", "1-Methylsilanetriol", "Methaneorthosiliconic acid", "Methylsilanetriol", "Trihydroxy(methyl)silane", "Methyltrihydroxysilane", "Tris(hydroxy)methylsilane"], "SMILES": "[Si](C)(O)(O)O", "physical_data": {"Molecular Weight": "94.14", "Molecular Formula": "CH6O3Si", "Boiling Point": "142-145 \u00b0C @ Press: 9 Torr", "Density": "0.8785 g/cm\u00b3 @ Temp: 30 \u00b0C"}}