{"cas_no": "2445-82-1", "cn_name": "3-\u7532\u57fa\u6c27\u6742\u8418\u90bb\u916e", "en_name": ["3-Methyl-2H-1-benzopyran-2-one", "2H-1-Benzopyran-2-one, 3-methyl-", "Coumarin, 3-methyl-", "3-Methyl-2H-1-benzopyran-2-one", "3-Methylcoumarin", "NSC 65664", "3-Methyl-2H-chromen-2-one"], "SMILES": "CC1=CC=2C(OC1=O)=CC=CC2", "physical_data": {"Molecular Weight": "160.17", "Molecular Formula": "C10H8O2", "Boiling Point": "292.5 \u00b0C", "Melting Point": "91 \u00b0C"}}