{"cas_no": "2445-07-0", "cn_name": "\u53cc\u4e8c\u7532\u57fa\u4e8c\u786b\u4ee3\u6c28\u57fa\u7532\u9178\u7532\u80c2", "en_name": ["Bis(dimethylthiocarbamylthio)methyl arsine", "Carbamodithioic acid, N,N-dimethyl-, C,C\u2032-bis(anhydrosulfide) with As-methylarsonodithious acid", "Carbamic acid, dimethyldithio-, bis(anhydrosulfide) with dithiomethanearsonous acid", "Carbamodithioic acid, dimethyl-, bis(anhydrosulfide) with methylarsonodithious acid", "Bis(dimethylthiocarbamylthio)methyl arsine", "Methyl arsine-bis(dimethyldithiocarbamate)", "Methylbis(dimethylthiocarbamoylthio)arsine", "Urbacid", "Urbacide"], "SMILES": "[As](SC(N(C)C)=S)(SC(N(C)C)=S)C", "physical_data": {"Molecular Weight": "330.39", "Molecular Formula": "C7H15AsN2S4", "Melting Point": "144 \u00b0C"}}