{"cas_no": "24460-74-0", "cn_name": "\u6c2f\u7532\u9178\u5341\u4e8c\u70f7\u57fa\u916f", "en_name": ["Carbonochloridic acid, dodecyl ester", "Carbonochloridic acid, dodecyl ester", "Formic acid, chloro-, dodecyl ester", "Lauryl chloroformate", "Dodecyl chloroformate", "n-Dodecyl chloroformate", "Dodecyloxycarbonyl chloride", "Dodecyl carbonochloridate"], "SMILES": "C(CCCCCCCC)CCCOC(Cl)=O", "physical_data": {"Molecular Weight": "248.79", "Molecular Formula": "C13H25ClO2", "Boiling Point": "176-178 \u00b0C @ Press: 1.5 Torr"}}