{"cas_no": "2446-83-5", "cn_name": "\u5076\u6c2e\u4e8c\u7532\u9178\u4e8c\u5f02\u4e19\u916f", "en_name": ["Diisopropyl azodicarboxylate", "1,2-Diazenedicarboxylic acid, 1,2-bis(1-methylethyl) ester", "Formic acid, azodi-, diisopropyl ester", "Diazenedicarboxylic acid, bis(1-methylethyl) ester", "Diisopropyl azodiformate", "Diisopropyl azodicarboxylate", "Diisopropyl diazodicarboxylate", "DIAD", "Azodicarboxylic acid diisopropyl ester", "Diisopropyl diazene-1,2-dicarboxylate"], "SMILES": "C(N=NC(OC(C)C)=O)(OC(C)C)=O", "physical_data": {"Molecular Weight": "202.21", "Molecular Formula": "C8H14N2O4", "Boiling Point": "75.5 \u00b0C @ Press: 0.25 Torr"}}