{"cas_no": "2446-69-7", "cn_name": "4-\u5df2\u57fa\u82ef\u915a", "en_name": ["4-n-Hexylphenol", "Phenol, 4-hexyl-", "Phenol, p-hexyl-", "4-Hexylphenol", "p-Hexylphenol", "4-n-Hexylphenol", "p-n-Hexylphenol", "p-Hydroxy-n-hexylbenzene"], "SMILES": "C(CCCCC)C1=CC=C(O)C=C1", "physical_data": {"Molecular Weight": "178.27", "Molecular Formula": "C12H18O", "Boiling Point": "155 \u00b0C", "Melting Point": "29 \u00b0C", "Density": "0.9628 g/cm\u00b3 @ Temp: 20 \u00b0C"}}