{"cas_no": "24468-13-1", "cn_name": "\u6c2f\u7532\u9178-2-\u4e59\u57fa\u5df1\u916f", "en_name": ["2-Ethylhexyl chloroformate", "Carbonochloridic acid, 2-ethylhexyl ester", "Formic acid, chloro-, 2-ethylhexyl ester", "Chloroformic acid 2-ethylhexyl ester", "2-Ethylhexyl chloroformate", "2-Ethylhexyl chlorocarbonate", "2-Ethylhexyl carbonochloridate"], "SMILES": "C(COC(Cl)=O)(CCCC)CC", "physical_data": {"Molecular Weight": "192.68", "Molecular Formula": "C9H17ClO2", "Boiling Point": "207 \u00b0C"}}