{"cas_no": "2446-23-3", "cn_name": "4-\u6c2f\u53bb\u6c22\u7532\u57fa\u777e\u916e", "en_name": ["Oral-Turinabol", "Androsta-1,4-dien-3-one, 4-chloro-17-hydroxy-17-methyl-, (17\u03b2)-", "Androsta-1,4-dien-3-one, 4-chloro-17\u03b2-hydroxy-17-methyl-", "(17\u03b2)-4-Chloro-17-hydroxy-17-methylandrosta-1,4-dien-3-one", "4-Chloro-1-dehydromethyltestosterone", "4-Chloro-17\u03b1-methyl-17\u03b2-hydroxyandrosta-1,4-dien-3-one", "4-Chloro-1-dehydro-17-methyltestosterone", "1-Dehydro-4-chloro-17\u03b1-methyltestosterone", "Oral-Turinabol", "4-Chlorodianabol", "1-Dehydro-4-chloro-17-methyltestosterone", "4-Chloromethandienone", "4-Chloro-1,2-dehydro-17\u03b1-methyltestosterone", "4-Chloro-17\u03b2-hydroxy-17\u03b1-methyl-5\u03b1-androsta-1,4-dien-3-one", "4-Chlordehydromethyltestosterone", "Dehydrochloromethyltestosterone", "Turinabol", "1,4-Androstadiene-4-chloro-17\u03b1-methyl-17\u03b2-ol-3-one"], "SMILES": "CC12C3C(C4C(C)(CC3)C(C)(O)CC4)CCC1=C(Cl)C(=O)C=C2", "physical_data": {"Molecular Weight": "334.88", "Molecular Formula": "C20H27ClO2", "Melting Point": "149-151 \u00b0C"}}