{"cas_no": "24463-15-8", "cn_name": "1-\u8298\u7532\u9187", "en_name": ["1-Pyrenemethanol", "1-Pyrenemethanol", "1-(1-Hydroxymethyl)pyrene", "1-Hydroxymethylpyrene"], "SMILES": "C(O)C1=C2C3=C4C(C=C2)=CC=CC4=CC=C3C=C1", "physical_data": {"Molecular Weight": "232.28", "Molecular Formula": "C17H12O", "Melting Point": "123-124 \u00b0C"}}