{"cas_no": "2447-57-6", "cn_name": "\u5468\u6548\u78fa\u80fa", "en_name": ["Sulfadoxine", "Benzenesulfonamide, 4-amino-N-(5,6-dimethoxy-4-pyrimidinyl)-", "Sulfanilamide, N1-(5,6-dimethoxy-4-pyrimidinyl)-", "4-Amino-N-(5,6-dimethoxy-4-pyrimidinyl)benzenesulfonamide", "Ro 4-4393", "N1-5,6-Dimethoxy-4-pyrimidinylsulfanilamide", "4,5-Dimethoxy-6-sulfanilamidopyrimidine", "Fanasil", "4-Sulfanilamido-5,6-dimethoxypyrimidine", "Sulformetoxine", "Sulforthodimethoxine", "Sulforthomidine", "WR 4073", "Sulfadoxine", "Sulformethoxine", "Sanasil", "Sulfadoxin", "Sulformetoxin", "Fanasulf", "Orthosulfin", "4-Amino-N-(5,6-dimethoxy-4-pyrimidinyl)benzensulfonamide", "Sulfadimoxine", "MeSH ID: D013413"], "SMILES": "N(S(=O)(=O)C1=CC=C(N)C=C1)C=2C(OC)=C(OC)N=CN2", "physical_data": {"Molecular Weight": "310.33", "Molecular Formula": "C12H14N4O4S", "Melting Point": "190-194 \u00b0C"}}