{"cas_no": "24470-78-8", "cn_name": "\u7898\u5316\u5f02\u4e19\u57fa\u4e09\u82ef\u93fb", "en_name": ["Isopropyltriphenylphosphonium iodide", "Phosphonium, (1-methylethyl)triphenyl-, iodide (1:1)", "Phosphonium, isopropyltriphenyl-, iodide", "Phosphonium, (1-methylethyl)triphenyl-, iodide", "Isopropyltriphenylphosphonium iodide", "Triphenylisopropylphosphonium iodide", "NSC 140615", "(1-Methylethyl)triphenylphosphonium iodide"], "SMILES": "[P+](C(C)C)(C1=CC=CC=C1)(C2=CC=CC=C2)C3=CC=CC=C3.[I-]", "physical_data": {"Molecular Weight": "", "Molecular Formula": "C21H22P.I", "Melting Point": "195-196 \u00b0C"}}