{"cas_no": "2447-54-3", "cn_name": "\u8840\u6839\u78b1", "en_name": ["Sanguinarine", "[1,3]Benzodioxolo[5,6-c]-1,3-dioxolo[4,5-i]phenanthridinium, 13-methyl-", "Sanguinarine", "13-Methyl[1,3]benzodioxolo[5,6-c]-1,3-dioxolo[4,5-i]phenanthridinium", "Pseudochelerythrine", "Sanguinarin", "Sanguinarium", "Sangrovit", "UI5"], "SMILES": "C[N+]=1C2=C(C=3C(C1)=C4C(=CC3)OCO4)C=CC=5C2=CC6=C(C5)OCO6", "physical_data": {"Molecular Weight": "", "Molecular Formula": "C20H14NO4", "Melting Point": "266 \u00b0C"}}