{"cas_no": "24476-55-9", "cn_name": "4-\u6c30\u57fa-4-\u82ef\u57fa-1-\u5bf9\u7532\u82ef\u78fa\u9170\u57fa\u54cc\u5576", "en_name": ["1-[(4-Methylphenyl)sulfonyl]-4-phenyl-4-piperidinecarbonitrile", "4-Piperidinecarbonitrile, 1-[(4-methylphenyl)sulfonyl]-4-phenyl-", "Isonipecotonitrile, 4-phenyl-1-(p-tolylsulfonyl)-", "1-[(4-Methylphenyl)sulfonyl]-4-phenyl-4-piperidinecarbonitrile", "4-Phenyl-1-(4-tolylsulfonyl)piperidine-4-carbonitrile", "1-(4-Methylbenzenesulfonyl)-4-phenylpiperidine-4-carbonitrile"], "SMILES": "C(#N)C1(CCN(S(=O)(=O)C2=CC=C(C)C=C2)CC1)C3=CC=CC=C3", "physical_data": {"Molecular Weight": "340.44", "Molecular Formula": "C19H20N2O2S", "Melting Point": "200-201 \u00b0C"}}