{"cas_no": "244768-32-9", "cn_name": "4-N[2(4-\u6c2f\u5421\u5576\u57fa)]-\u6c28\u57fa\u82ef\u8148", "en_name": ["4-[(4-Chloro-2-pyrimidinyl)amino]benzonitrile", "Benzonitrile, 4-[(4-chloro-2-pyrimidinyl)amino]-", "4-[(4-Chloro-2-pyrimidinyl)amino]benzonitrile"], "SMILES": "N(C1=CC=C(C#N)C=C1)C=2N=C(Cl)C=CN2", "physical_data": {"Molecular Weight": "230.65", "Molecular Formula": "C11H7ClN4", "Melting Point": "200.8-201.2 \u00b0C"}}