{"cas_no": "2447-79-2", "cn_name": "2,4-\u4e8c\u6c2f\u82ef\u7532\u9170\u80fa", "en_name": ["2,4-Dichlorobenzamide", "Benzamide, 2,4-dichloro-", "2,4-Dichlorobenzamide", "NSC 39528", "2,4-Chlorobenzamide"], "SMILES": "C(N)(=O)C1=C(Cl)C=C(Cl)C=C1", "physical_data": {"Molecular Weight": "190.03", "Molecular Formula": "C7H5Cl2NO", "Melting Point": "193-194 \u00b0C"}}