{"cas_no": "2448-45-5", "cn_name": "N-\u82c4\u6c27\u7fb0\u57fa-D-\u82ef\u4e19\u6c28\u9178", "en_name": ["N-(Benzyloxycarbonyl)-D-phenylalanine", "D-Phenylalanine, N-[(phenylmethoxy)carbonyl]-", "Alanine, N-carboxy-3-phenyl-, N-benzyl ester, D-", "N-[(Phenylmethoxy)carbonyl]-D-phenylalanine", "N-Carbobenzoxy-D-phenylalanine", "N-(Benzyloxycarbonyl)-D-phenylalanine", "Carbobenzoxy-D-phenylalanine", "N-Benzyloxycarbonyl-(R)-phenylalanine", "D-(Carbobenzoxy)phenylalanine", "Benzyloxycarbonyl-D-phenylalanine", "Carbobenzyloxy-D-phenylalanine", "(R)-N-(Benzyloxycarbonyl)phenylalanine", "D-(Carbobenzyloxy)phenylalanine", "N-Carbobenzyloxy-D-phenylalanine", "CBZ-D-Phenylalanine", "NSC 522449", "N-CBZ-D-phenylalanine", "(R)-2-(Benzyloxycarbonylamino)-3-phenylpropanoic acid", "N-Cbz-D-Phenylalanine", "(2R)-3-Phenyl-2-(phenylmethoxycarbonylamino)propanoic acid"], "SMILES": "C(CC1=CC=CC=C1)(NC(OCC2=CC=CC=C2)=O)C(O)=O", "physical_data": {"Molecular Weight": "299.32", "Molecular Formula": "C17H17NO4", "Melting Point": "85-88 \u00b0C"}}