{"cas_no": "24480-45-3", "cn_name": "\u6cfb\u6839\u9187\u9178", "en_name": ["Bryonolic acid", "26-Norolean-8-en-29-oic acid, 3-hydroxy-13-methyl-, (3\u03b2,13\u03b1,14\u03b2,20\u03b2)-", "Bryonolic acid", "D:C-Friedoolean-8-en-29-oic acid, 3\u03b2-hydroxy-", "D:C-Friedoolean-8-en-29-oic acid, 3-hydroxy-, (3\u03b2,20\u03b2)-", "(3\u03b2,13\u03b1,14\u03b2,20\u03b2)-3-Hydroxy-13-methyl-26-norolean-8-en-29-oic acid", "[2S-(2\u03b1,4a\u03b1,6a\u03b1,8a\u03b2,10\u03b1,12a\u03b1,14a\u03b2,14b\u03b1)]-1,2,3,4,4a,5,6,6a,7,8,8a,9,10,11,12,12a,13,14,14a,14b-Eicosahydro-10-hydroxy-2,4a,6a,9,9,12a,14a-heptamethyl-2-picenecarboxylic acid", "2-Picenecarboxylic acid, 1,2,3,4,4a,5,6,6a,7,8,8a,9,10,11,12,12a,13,14,14a,14b-eicosahydro-10-hydroxy-2,4a,6a,9,9,12a,14a-heptamethyl-, (2S,4aS,6aS,8aR,10S,12aS,14aS,14bR)-"], "SMILES": "CC12C(C)(C3C(C)(CC1)CCC(C(O)=O)(C)C3)CCC4=C2CCC5C4(C)CCC(O)C5(C)C", "physical_data": {"Molecular Weight": "456.70", "Molecular Formula": "C30H48O3", "Melting Point": "303.5 \u00b0C"}}