{"cas_no": "24484-22-8", "cn_name": "5-(4'-\u6c1f\u82ef\u57fa)\u620a\u9178", "en_name": ["4-Fluorobenzenepentanoic acid", "Benzenepentanoic acid, 4-fluoro-", "Valeric acid, 5-(p-fluorophenyl)-", "4-Fluorobenzenepentanoic acid", "5-(4-Fluorophenyl)pentanoic acid"], "SMILES": "C(CCCC(O)=O)C1=CC=C(F)C=C1", "physical_data": {"Molecular Weight": "196.22", "Molecular Formula": "C11H13FO2", "Melting Point": "75-77 \u00b0C"}}