{"cas_no": "2449-05-0", "cn_name": "\u5076\u6c2e\u4e8c\u7532\u9178\u4e8c\u82c4\u916f", "en_name": ["1,2-Bis(phenylmethyl) 1,2-diazenedicarboxylate", "1,2-Diazenedicarboxylic acid, 1,2-bis(phenylmethyl) ester", "Formic acid, azodi-, dibenzyl ester", "Diazenedicarboxylic acid, bis(phenylmethyl) ester", "1,2-Bis(phenylmethyl) 1,2-diazenedicarboxylate", "Dibenzyl azodicarboxylate", "NSC 620564", "Azodicarboxylic acid dibenzyl ester"], "SMILES": "C(OC(N=NC(OCC1=CC=CC=C1)=O)=O)C2=CC=CC=C2", "physical_data": {"Molecular Weight": "298.29", "Molecular Formula": "C16H14N2O4", "Melting Point": "46.5-47 \u00b0C"}}