{"cas_no": "2450-27-3", "cn_name": "4-(\u82c4\u6c27\u57fa)-3-\u7532\u6c27\u57fa-2-\u785d\u57fa\u82ef\u7532\u919b", "en_name": ["4-(Benzyloxy)-3-methoxy-2-nitrobenzaldehyde", "Benzaldehyde, 3-methoxy-2-nitro-4-(phenylmethoxy)-", "Benzaldehyde, 4-(benzyloxy)-3-methoxy-2-nitro-", "m-Anisaldehyde, 4-(benzyloxy)-2-nitro-", "3-Methoxy-2-nitro-4-(phenylmethoxy)benzaldehyde", "4-(Benzyloxy)-3-methoxy-2-nitrobenzaldehyde"], "SMILES": "O(C)C1=C(N(=O)=O)C(C=O)=CC=C1OCC2=CC=CC=C2", "physical_data": {"Molecular Weight": "287.27", "Molecular Formula": "C15H13NO5", "Melting Point": "111.5-112.5 \u00b0C"}}