{"cas_no": "2450-71-7", "cn_name": "\u7094\u4e19\u80fa", "en_name": ["Propargylamine", "2-Propyn-1-amine", "2-Propynylamine", "Propargylamine", "3-Aminopropyne", "3-Aminoprop-1-yne", "NSC 80642", "N-(2-Propyn-1-yl)amine", "(2-Propyn-1-yl)amine"], "SMILES": "C(CN)#C", "physical_data": {"Molecular Weight": "55.08", "Molecular Formula": "C3H5N", "Boiling Point": "83 \u00b0C", "Melting Point": "174-175 \u00b0C", "Density": "0.867 g/cm\u00b3 @ Temp: 16 \u00b0C"}}