{"cas_no": "24502-78-1", "cn_name": "\u4e59\u9170\u7d2b\u8349\u7d20", "en_name": ["Acetylshikonin", "1,4-Naphthalenedione, 2-[(1R)-1-(acetyloxy)-4-methyl-3-penten-1-yl]-5,8-dihydroxy-", "1,4-Naphthoquinone, 5,8-dihydroxy-2-(1-hydroxy-4-methyl-3-pentenyl)-, 2-acetate, (+)-", "1,4-Naphthalenedione, 2-[1-(acetyloxy)-4-methyl-3-pentenyl]-5,8-dihydroxy-, (R)-", "1,4-Naphthalenedione, 2-[(1R)-1-(acetyloxy)-4-methyl-3-pentenyl]-5,8-dihydroxy-", "2-[(1R)-1-(Acetyloxy)-4-methyl-3-penten-1-yl]-5,8-dihydroxy-1,4-naphthalenedione", "Acetylshikonin", "NSC 110199", "(R)-1-(5,8-Dihydroxy-1,4-dioxo-1,4-dihydronaphthalen-2-yl)-4-methylpent-3-en-1-yl acetate"], "SMILES": "O=C1C=2C(C(=O)C=C1C(CC=C(C)C)OC(C)=O)=C(O)C=CC2O", "physical_data": {"Molecular Weight": "330.33", "Molecular Formula": "C18H18O6", "Melting Point": "85-86 \u00b0C"}}