{"cas_no": "24512-63-8", "cn_name": "\u6800\u5b50\u82f7", "en_name": ["Geniposide", "Cyclopenta[c]pyran-4-carboxylic acid, 1-(\u03b2-D-glucopyranosyloxy)-1,4a,5,7a-tetrahydro-7-(hydroxymethyl)-, methyl ester, (1S,4aS,7aS)-", "Geniposide", "Cyclopenta[c]pyran-4-carboxylic acid, 1-(\u03b2-D-glucopyranosyloxy)-1,4a,5,7a-tetrahydro-7-(hydroxymethyl)-, methyl ester, [1S-(1\u03b1,4a\u03b1,7a\u03b1)]-", "Methyl (1S,4aS,7aS)-1-(\u03b2-D-glucopyranoside)-7-hydroxymethyl-1,4a,5,7a-tetrahydrocydopenta[c]pyran-4-carboxylate"], "SMILES": "O(C1C2C(C(C(OC)=O)=CO1)CC=C2CO)C3OC(CO)C(O)C(O)C3O", "physical_data": {"Molecular Weight": "388.37", "Molecular Formula": "C17H24O10", "Melting Point": "163-164 \u00b0C"}}