{"cas_no": "2451-62-9", "cn_name": "1,3,5-\u4e09\u7f29\u6c34\u7518\u6cb9-S-\u4e09\u55ea\u4e09\u916e", "en_name": ["Triglycidyl isocyanurate", "1,3,5-Triazine-2,4,6(1H,3H,5H)-trione, 1,3,5-tris(2-oxiranylmethyl)-", "s-Triazine-2,4,6(1H,3H,5H)-trione, 1,3,5-tris(2,3-epoxypropyl)-", "1,3,5-Triazine-2,4,6(1H,3H,5H)-trione, 1,3,5-tris(oxiranylmethyl)-", "s-Triazine-2,4,6(1H,3H,5H)-trione, tris(2,3-epoxypropyl)-", "1,3,5-Tris(2-oxiranylmethyl)-1,3,5-triazine-2,4,6(1H,3H,5H)-trione", "Tris(epoxypropyl) isocyanurate", "1,3,5-Triglycidyl isocyanurate", "Triglycidyl isocyanurate", "1,3,5-Triglycidylisocyanuric acid", "Tris(2,3-epoxypropyl) isocyanurate", "1,3,5-Triglycidylhexahydro-1,3,5-triazine-2,4,6-trione", "1,3,5-Triglycidyl-s-triazine-2,4,6-trione", "Glycidyl isocyanurate", "N,N\u2032,N\u2032\u2032-Triglycidyl isocyanurate", "TGT", "NSC 269934", "1,3,5-Tris(oxiranylmethyl)-1,3,5-triazine-2,4,6-trione", "1,3,5-Tris(2,3-epoxypropyl) isocyanurate", "PTGIC", "1,3,5-Tris(oxiran-2-ylmethyl)-1,3,5-triazine-2,4,6-trione", "HT 702", "1,3,5-Tris(oxiran-2-ylmethyl)-1,3,5-triazinane-2,4,6-trione", "1,3,5-Tris(oxiranylmethyl)-1,3,5-triazine-2,4,6(1H,3H,5H)trione", "HT 708"], "SMILES": "C(N1C(=O)N(CC2CO2)C(=O)N(CC3CO3)C1=O)C4CO4", "physical_data": {"Molecular Weight": "297.26", "Molecular Formula": "C12H15N3O6", "Boiling Point": "210 \u00b0C @ Press: 0.2 Torr", "Melting Point": "95 \u00b0C", "Density": "1.33 g/cm\u00b3"}}