{"cas_no": "2451-01-6", "cn_name": "\u841c\u54c1(\u6c34\u5408\u7ed3\u6676)", "en_name": ["Terpin hydrate", "Cyclohexanemethanol, 4-hydroxy-\u03b1,\u03b1,4-trimethyl-, hydrate (1:1), cis-", "p-Menthane-1,8-diol, monohydrate", "Cyclohexanemethanol, 4-hydroxy-\u03b1,\u03b1,4-trimethyl-, monohydrate, cis-", "Terpin hydrate", "Terpin monohydrate", "Terpinol hydrate", "cis-p-Menthane-1,8-diol monohydrate", "cis-Terpin hydrate", "Terpinene hydrate"], "SMILES": "C(C)(C)(O)C1CCC(C)(O)CC1.O", "physical_data": {"Molecular Weight": "", "Molecular Formula": "C10H20O2.H2O", "Melting Point": "116 \u00b0C"}}