{"cas_no": "2451-84-5", "cn_name": "\u5df1\u4e8c\u9178\u4e8c\u82c4\u916f", "en_name": ["Dibenzyl adipate", "Hexanedioic acid, 1,6-bis(phenylmethyl) ester", "Adipic acid, dibenzyl ester", "Hexanedioic acid, bis(phenylmethyl) ester", "Dibenzyl adipate"], "SMILES": "C(OC(CCCCC(OCC1=CC=CC=C1)=O)=O)C2=CC=CC=C2", "physical_data": {"Molecular Weight": "326.39", "Molecular Formula": "C20H22O4", "Boiling Point": "202-208 \u00b0C @ Press: 0.3 Torr", "Melting Point": "38.5-39.5 \u00b0C", "Density": "1.0903 g/cm\u00b3 @ Temp: 20 \u00b0C"}}