{"cas_no": "2452-99-5", "cn_name": "1\uff0c2-\u4e8c\u7532\u57fa\u73af\u620a\u70f7", "en_name": ["1,2-Dimethylcyclopentane", "Cyclopentane, 1,2-dimethyl-", "1,2-Dimethylcyclopentane"], "SMILES": "CC1C(C)CCC1", "physical_data": {"Molecular Weight": "98.19", "Molecular Formula": "C7H14", "Boiling Point": "92-96 \u00b0C @ Press: 758 Torr", "Melting Point": "-119.1 \u00b0C", "Density": "0.7629 g/cm\u00b3 @ Temp: 20 \u00b0C"}}