{"cas_no": "2452-01-9", "cn_name": "\u6708\u6842\u9178\u950c", "en_name": ["Zinc laurate", "Dodecanoic acid, zinc salt (2:1)", "Zinc laurate", "Lauric acid, zinc salt", "Dodecanoic acid, zinc salt", "Zinc dilaurate", "Zinc dodecanoate", "Z 12", "Zinc bis(dodecanoate)", "Z 12 (salt)", "LZ-P", "Zinc Laurate GP", "ZS 3", "Powder Base L", "EZ 303", "ZN 3"], "SMILES": "C(CCCCCCCC)CCC(O)=O.[Zn]", "physical_data": {"Molecular Weight": "", "Molecular Formula": "C12H24O2.<sup>1</sup>/2Zn", "Melting Point": "130 \u00b0C", "Density": "1.09 g/cm\u00b3"}}