{"cas_no": "24521-76-4", "cn_name": "4-\u7f9f\u57fa-6-\u5def\u57fa\u5421\u5511(3,4-D)\u5627\u5576", "en_name": ["1,5,6,7-Tetrahydro-6-thioxo-4H-pyrazolo[3,4-d]pyrimidin-4-one", "4H-Pyrazolo[3,4-d]pyrimidin-4-one, 1,5,6,7-tetrahydro-6-thioxo-", "1H-Pyrazolo[3,4-d]pyrimidin-4-ol, 6-mercapto-", "1,5,6,7-Tetrahydro-6-thioxo-4H-pyrazolo[3,4-d]pyrimidin-4-one", "1H-Pyrazolo[3,4-d]pyrimidine-4,6(5H,7H)-dione, 6-thio-", "4-Hydroxy-6-mercaptopyrazolo[3,4-d]pyrimidine", "B 103U", "NSC 1391", "6-Mercapto-1H-pyrazolo[3,4-d]pyrimidin-4-ol"], "SMILES": "O=C1C2=C(NC(=S)N1)NN=C2", "physical_data": {"Molecular Weight": "168.18", "Molecular Formula": "C5H4N4OS", "Melting Point": "277-279 \u00b0C"}}