{"cas_no": "24522-30-3", "cn_name": "\u6c30\u57fa\u4e59\u9170\u5bf9\u4e09\u6c1f\u7532\u57fa\u82ef\u80fa", "en_name": ["2-Cyano-N-[4-(trifluoromethyl)phenyl]acetamide", "Acetamide, 2-cyano-N-[4-(trifluoromethyl)phenyl]-", "p-Acetotoluidide, 2-cyano-\u03b1,\u03b1,\u03b1-trifluoro-", "2-Cyano-N-[4-(trifluoromethyl)phenyl]acetamide"], "SMILES": "C(F)(F)(F)C1=CC=C(NC(CC#N)=O)C=C1", "physical_data": {"Molecular Weight": "228.17", "Molecular Formula": "C10H7F3N2O", "Melting Point": "145-147 \u00b0C"}}