{"cas_no": "24526-64-5", "cn_name": "\u8bfa\u7c73\u82ac\u8f9b", "en_name": ["Nomifensine", "8-Isoquinolinamine, 1,2,3,4-tetrahydro-2-methyl-4-phenyl-", "Isoquinoline, 8-amino-1,2,3,4-tetrahydro-2-methyl-4-phenyl-", "1,2,3,4-Tetrahydro-2-methyl-4-phenyl-8-isoquinolinamine", "Nomifensin", "Nomifensine", "Linamiphen", "(\u00b1)-Nomifensine", "(\u00b1)-Nomifensin", "2-Methyl-4-phenyl-1,2,3,4-tetrahydroisoquinolin-8-ylamine", "2-Methyl-4-phenyl-3,4-dihydro-1H-isoquinolin-8-amine", "2-Methyl-4-phenyl-1,2,3,4-tetrahydroisoquinolin-8-amine", "MeSH ID: D009627"], "SMILES": "NC1=C2C(C(CN(C)C2)C3=CC=CC=C3)=CC=C1", "physical_data": {"Molecular Weight": "238.33", "Molecular Formula": "C16H18N2", "Melting Point": "180 \u00b0C"}}