{"cas_no": "2453-03-4", "cn_name": "1,3-\u4e8c\u6c27\u6742\u73af\u5df1\u70f7-2-\u916e", "en_name": ["Trimethylene carbonate", "1,3-Dioxan-2-one", "Carbonic acid, cyclic trimethylene ester", "Carbonic acid, trimethylene ester", "1,3-Propanediol, cyclic carbonate", "m-Dioxan-2-one", "Trimethylene carbonate", "1,3-Propylene carbonate", "Cyclic trimethylene carbonate", "1,3-Carbonyldioxypropane", "2-Oxo-1,3-dioxane", "Cyclo(trimethylene carbonate)", "m-Dioxanone"], "SMILES": "O=C1OCCCO1", "physical_data": {"Molecular Weight": "102.09", "Molecular Formula": "C4H6O3", "Boiling Point": "160-165 \u00b0C", "Melting Point": "47-48 \u00b0C"}}