{"cas_no": "24533-72-0", "cn_name": "\u7126\u8131\u9541\u53f6\u7eff\u9178-ALPHA", "en_name": ["Pyropheophorbide a", "3-Phorbinepropanoic acid, 9-ethenyl-14-ethyl-4,8,13,18-tetramethyl-20-oxo-, (3S,4S)-", "Pyropheophorbide a", "3-Phorbinepropanoic acid, 9-ethenyl-14-ethyl-4,8,13,18-tetramethyl-20-oxo-, (3S-trans)-", "(3S,4S)-9-Ethenyl-14-ethyl-4,8,13,18-tetramethyl-20-oxo-3-phorbinepropanoic acid", "Pyrophaeophorbid A"], "SMILES": "CC=1C2=C3C(=C4C(CCC(O)=O)C(C)C(=N4)C=C5NC(=CC6=NC(=CC1N3)C(CC)=C6C)C(C=C)=C5C)CC2=O", "physical_data": {"Molecular Weight": "534.65", "Molecular Formula": "C33H34N4O3", "Melting Point": "226-227 \u00b0C"}}