{"cas_no": "2454-37-7", "cn_name": "3-(1-\u7f9f\u4e59\u57fa\uff09\u82ef\u80fa", "en_name": ["3-(1-Hydroxyethyl)aniline", "Benzenemethanol, 3-amino-\u03b1-methyl-", "Benzyl alcohol, m-amino-\u03b1-methyl-", "3-Amino-\u03b1-methylbenzenemethanol", "3-Amino-\u03b1-methylbenzyl alcohol", "m-(1-Hydroxyethyl)aniline", "m-Amino-\u03b1-methylbenzyl alcohol", "3-(1-Hydroxyethyl)aniline", "\u03b1-(m-Aminophenyl)ethanol", "(RS)-3-(1-Hydroxyethyl)aniline", "NSC 62018", "NSC 8392", "[3-(1-Hydroxyethyl)phenyl]amine", "1-(3-Aminophenyl)ethanol", "1-(3-Aminophenyl)ethan-1-ol"], "SMILES": "C(C)(O)C1=CC(N)=CC=C1", "physical_data": {"Molecular Weight": "137.18", "Molecular Formula": "C8H11NO", "Boiling Point": "167-169 \u00b0C @ Press: 15 Torr", "Melting Point": "63-64 \u00b0C"}}