{"cas_no": "2454-39-9", "cn_name": "2-\u6c28\u57fa\u786b\u4ee3\u82ef\u7532\u9170\u80fa", "en_name": ["2-Aminobenzenecarbothioamide", "Benzenecarbothioamide, 2-amino-", "Benzamide, o-aminothio-", "2-Aminobenzenecarbothioamide", "Thioanthranilamide", "o-Aminothiobenzamide", "2-Aminothiobenzamide", "2-Aminobenzenethioamide", "2-Aminobenzothioamide", "2-Aminobenzene-1-carbothioamide"], "SMILES": "C(N)(=S)C1=C(N)C=CC=C1", "physical_data": {"Molecular Weight": "152.22", "Molecular Formula": "C7H8N2S", "Melting Point": "121.5 \u00b0C"}}