{"cas_no": "24544-08-9", "cn_name": "2,6-\u4e8c\u4e59\u57fa-4-\u7532\u57fa\u82ef\u80fa", "en_name": ["2,6-Diethyl-4-methylbenzenamine", "Benzenamine, 2,6-diethyl-4-methyl-", "p-Toluidine, 2,6-diethyl-", "2,6-Diethyl-4-methylbenzenamine", "2,6-Diethyl-4-methylaniline", "2,6-Diethyl-p-toluidine", "4-Methyl-2,6-diethylaniline", "NSC 203033"], "SMILES": "C(C)C1=C(N)C(CC)=CC(C)=C1", "physical_data": {"Molecular Weight": "163.26", "Molecular Formula": "C11H17N", "Boiling Point": "113-115 \u00b0C @ Press: 4.5 Torr"}}