{"cas_no": "24544-04-5", "cn_name": "2,6-\u4e8c\u5f02\u4e19\u57fa\u82ef\u80fa", "en_name": ["2,6-Diisopropylaniline", "Benzenamine, 2,6-bis(1-methylethyl)-", "Aniline, 2,6-diisopropyl-", "2,6-Bis(1-methylethyl)benzenamine", "2,6-Diisopropylaniline", "2,6-Diisopropylphenylamine", "2,6-Bis(1-methylethyl)aniline", "N-(2,6-Diisopropylphenyl)amine", "2,6-Di(propan-2-yl)aniline", "2,6-Bis(propan-2-yl)aniline", "2,6-Diisopropylamine"], "SMILES": "C(C)(C)C1=C(N)C(C(C)C)=CC=C1", "physical_data": {"Molecular Weight": "177.29", "Molecular Formula": "C12H19N", "Boiling Point": "257 \u00b0C", "Melting Point": "-45 \u00b0C"}}