{"cas_no": "2454-35-5", "cn_name": "3-\u4e59\u9170\u6c27\u57fa\u82ef\u4e59\u916e", "en_name": ["1-[3-(Acetyloxy)phenyl]ethanone", "Ethanone, 1-[3-(acetyloxy)phenyl]-", "Acetophenone, 3\u2032-hydroxy-, acetate", "1-[3-(Acetyloxy)phenyl]ethanone", "m-Acetylphenyl acetate", "3\u2032-Acetoxyacetophenone", "3-Acetylphenyl acetate", "NSC 174054"], "SMILES": "O(C(C)=O)C1=CC(C(C)=O)=CC=C1", "physical_data": {"Molecular Weight": "178.18", "Molecular Formula": "C10H10O3", "Boiling Point": "147 \u00b0C @ Press: 9 Torr", "Melting Point": "44-44.5 \u00b0C"}}