{"cas_no": "24549-06-2", "cn_name": "2-\u7532\u57fa-6-\u4e59\u57fa\u82ef\u80fa", "en_name": ["2-Ethyl-6-methylaniline", "Benzenamine, 2-ethyl-6-methyl-", "o-Toluidine, 6-ethyl-", "2-Ethyl-6-methylbenzenamine", "2-Methyl-6-ethylaniline", "2-Ethyl-6-methylaniline", "6-Ethyl-o-toluidine", "6-Ethyl-2-methylaniline", "C 25702", "(2-Ethyl-6-methylphenyl)amine"], "SMILES": "C(C)C1=C(N)C(C)=CC=C1", "physical_data": {"Molecular Weight": "135.21", "Molecular Formula": "C9H13N", "Boiling Point": "231 \u00b0C", "Melting Point": "-33 \u00b0C"}}