{"cas_no": "2455-14-3", "cn_name": "3,3',5,5'-\u56db\u53d4\u4e01\u57fa-4,4'-\u8054\u82ef\u918c", "en_name": ["4-[3,5-Bis(1,1-dimethylethyl)-4-oxo-2,5-cyclohexadien-1-ylidene]-2,6-bis(1,1-dimethylethyl)-2,5-cyclohexadien-1-one", "2,5-Cyclohexadien-1-one, 4-[3,5-bis(1,1-dimethylethyl)-4-oxo-2,5-cyclohexadien-1-ylidene]-2,6-bis(1,1-dimethylethyl)-", "[Bi-2,5-cyclohexadien-1-ylidene]-4,4\u2032-dione, 3,3\u2032,5,5\u2032-tetra-tert-butyl-", "Diphenoquinone, 3,3\u2032,5,5\u2032-tetra-tert-butyl-", "4-[3,5-Bis(1,1-dimethylethyl)-4-oxo-2,5-cyclohexadien-1-ylidene]-2,6-bis(1,1-dimethylethyl)-2,5-cyclohexadien-1-one", "3,3\u2032,5,5\u2032-Tetra-tert-butyl-4,4\u2032-diphenoquinone", "3,3\u2032,5,5\u2032-Tetra-tert-butyldiphenoquinone", "Tetra-tert-butyldiphenoquinone", "NSC 14478", "3,5,3\u2032,5\u2032-Tetra-tert-butyldiphenoquinone", "3,3\u2032,5,5\u2032-Tetra-tert-butyl-4,4\u2032-diphenoquinone", "2,6-Ditert-butyl-4-(3,5-ditert-butyl-4-oxocyclohexa-2,5-dien-1-ylidene)cyclohexa-2,5-dien-1-one"], "SMILES": "C(C)(C)(C)C=1C(=O)C(C(C)(C)C)=CC(C1)=C2C=C(C(C)(C)C)C(=O)C(C(C)(C)C)=C2", "physical_data": {"Molecular Weight": "408.62", "Molecular Formula": "C28H40O2", "Melting Point": "240 \u00b0C"}}