{"cas_no": "2455-24-5", "cn_name": "\u7532\u57fa\u4e19\u70ef\u9178\u56db\u6c22\u544b\u5583\u916f", "en_name": ["Tetrahydrofurfuryl methacrylate", "2-Propenoic acid, 2-methyl-, (tetrahydro-2-furanyl)methyl ester", "Methacrylic acid, tetrahydrofurfuryl ester", "Furfuryl alcohol, tetrahydro-, methacrylate", "Sartomer SR 203", "Tetrahydrofurfuryl methacrylate", "SR 203", "Acryester THF", "NSC 32634", "THFMA", "FA-THFM", "Sarbio 6100", "(Tetrahydrofuran-2-yl)methyl methacrylate", "(Oxolan-2-yl)methyl 2-methylprop-2-enoate", "M 151", "THF 1000", "Light Ester THF", "Visiomer THFMA"], "SMILES": "C(OC(C(C)=C)=O)C1CCCO1", "physical_data": {"Molecular Weight": "170.21", "Molecular Formula": "C9H14O3", "Boiling Point": "59-62 \u00b0C @ Press: 0.60 Torr"}}