{"cas_no": "245653-52-5", "cn_name": "7-(4-\u53d4\u4e01\u57fa\u82ef\u57fa)-2-\u7532\u57fa-1H-\u831a", "en_name": ["2-Methyl-7-(4-tert-butylphenyl)-1H-indene", "1H-Indene, 7-[4-(1,1-dimethylethyl)phenyl]-2-methyl-", "7-[4-(1,1-Dimethylethyl)phenyl]-2-methyl-1H-indene", "2-Methyl-7-(4-tert-butylphenyl)-1H-indene"], "SMILES": "CC=1CC2=C(C=CC=C2C1)C3=CC=C(C(C)(C)C)C=C3", "physical_data": {"Molecular Weight": "262.39", "Molecular Formula": "C20H22", "Melting Point": "66-68 \u00b0C"}}