{"cas_no": "2456-28-2", "cn_name": "\u7678\u919a", "en_name": ["Decyl ether", "Decane, 1,1\u2032-oxybis-", "Decyl ether", "1,1\u2032-Oxybis[decane]", "Capric ether", "Didecyl ether", "n-Decyl ether", "Dicapryl ether", "NSC 83605", "1-Decoxydecane"], "SMILES": "O(CCCCCCCCCC)CCCCCCCCCC", "physical_data": {"Molecular Weight": "298.55", "Molecular Formula": "C20H42O", "Boiling Point": "196 \u00b0C @ Press: 15.5 Torr", "Melting Point": "16 \u00b0C", "Density": "0.8187 g/cm\u00b3 @ Temp: 20 \u00b0C"}}