{"cas_no": "24566-81-2", "cn_name": "4-\u6eb4-1-\u4e01\u80fa\u6c22\u6eb4\u9178", "en_name": ["1-Butanamine, 4-bromo-, hydrobromide (1:1)", "1-Butanamine, 4-bromo-, hydrobromide (1:1)", "Butylamine, 4-bromo-, hydrobromide", "1-Butanamine, 4-bromo-, hydrobromide", "4-Bromobutylamine hydrobromide", "4-Bromobutan-1-amine hydrobromide"], "SMILES": "C(CCN)CBr.Br", "physical_data": {"Molecular Weight": "", "Molecular Formula": "C4H10BrN.BrH", "Melting Point": "151-154 \u00b0C"}}