{"cas_no": "2456-81-7", "cn_name": "4-\u5421\u54af\u70f7\u57fa\u5421\u5576", "en_name": ["4-Pyrrolidinopyridine", "Pyridine, 4-(1-pyrrolidinyl)-", "4-(1-Pyrrolidinyl)pyridine", "4-Pyrrolidinopyridine", "4-(1-Pyrrolidino)pyridine", "4-(N-Pyrrolidinyl)pyridine"], "SMILES": "N1(CCCC1)C=2C=CN=CC2", "physical_data": {"Molecular Weight": "148.21", "Molecular Formula": "C9H12N2", "Boiling Point": "170-171 \u00b0C @ Press: 12 Torr", "Melting Point": "55-56 \u00b0C"}}