{"cas_no": "24566-95-8", "cn_name": "1-(3-\u6c28\u57fa\u4e19\u57fa)\u6c2e\u6742\u73af\u5e9a\u70f7-2-\u916e", "en_name": ["N-(3-Aminopropyl)caprolactam", "2H-Azepin-2-one, 1-(3-aminopropyl)hexahydro-", "1-(3-Aminopropyl)hexahydro-2H-azepin-2-one", "N-(3-Aminopropyl)-\u03b5-caprolactam", "N-(\u03b3-Aminopropyl)-\u03b5-caprolactam", "N-(3-Aminopropyl)caprolactam", "1-(3-Aminopropyl)azepan-2-one"], "SMILES": "C(CCN)N1C(=O)CCCCC1", "physical_data": {"Molecular Weight": "170.25", "Molecular Formula": "C9H18N2O", "Boiling Point": "90-95 \u00b0C @ Press: 1 x 10<sup>-3</sup> Torr"}}