{"cas_no": "2457-80-9", "cn_name": "5-\u8131\u6c27-5-\u7532\u786b\u817a\u82f7", "en_name": ["5\u2032-(Methylthio)adenosine", "Adenosine, 5\u2032-S-methyl-5\u2032-thio-", "5\u2032-S-Methyl-5\u2032-thioadenosine", "5\u2032-(Methylthio)-5\u2032-deoxyadenosine", "5\u2032-(Methylthio)adenosine", "\u03b2-D-Ribofuranose, 1-(6-amino-9H-purin-9-yl)-1-deoxy-5-S-methyl-5-thio-", "5\u2032-Deoxy-5\u2032-(methylthio)adenosine", "5\u2032-S-Methylthioadenosine", "Vitamin L2", "5\u2032-Deoxy(methylthio)adenosine", "NSC 335422", "5-Deoxy-5-methylthioadenosine"], "SMILES": "OC1C(N2C=3C(N=C2)=C(N)N=CN3)OC(CSC)C1O", "physical_data": {"Molecular Weight": "297.33", "Molecular Formula": "C11H15N5O3S", "Melting Point": "205 \u00b0C"}}