{"cas_no": "2457-47-8", "cn_name": "3,5-\u4e8c\u6c2f\u5421\u5576", "en_name": ["3,5-Dichloropyridine", "Pyridine, 3,5-dichloro-", "3,5-Dichloropyridine", "NSC 60546"], "SMILES": "ClC=1C=C(Cl)C=NC1", "physical_data": {"Molecular Weight": "147.99", "Molecular Formula": "C5H3Cl2N", "Melting Point": "65-67 \u00b0C"}}