{"cas_no": "2457-76-3", "cn_name": "4-\u6c28\u57fa-2-\u6c2f\u82ef\u7532\u9178", "en_name": ["4-Amino-2-chlorobenzoic acid", "Benzoic acid, 4-amino-2-chloro-", "4-Amino-2-chlorobenzoic acid", "2-Chloro-p-aminobenzoic acid", "2-Chloro-4-aminobenzoic acid", "o-Chloro-p-aminobenzoic acid", "NSC 33944", "NSC 53160", "NSC 64328"], "SMILES": "C(O)(=O)C1=C(Cl)C=C(N)C=C1", "physical_data": {"Molecular Weight": "171.58", "Molecular Formula": "C7H6ClNO2", "Melting Point": "211 \u00b0C (decomp)"}}