{"cas_no": "24577-90-0", "cn_name": "\u7ea2\u94fe\u9709\u7d20-\u9f99\u80c6\u4e8c\u7cd6\u82f7", "en_name": ["Rubrofusarin gentiobioside", "4H-Naphtho[2,3-b]pyran-4-one, 6-[(6-O-\u03b2-D-glucopyranosyl-\u03b2-D-glucopyranosyl)oxy]-5-hydroxy-8-methoxy-2-methyl-", "Glucopyranoside, 5-hydroxy-8-methoxy-2-methyl-4-oxo-4H-naphtho[2,3-b]pyran-6-yl 6-O-\u03b2-D-glucopyranosyl-, \u03b2-D-", "6-[(6-O-\u03b2-D-Glucopyranosyl-\u03b2-D-glucopyranosyl)oxy]-5-hydroxy-8-methoxy-2-methyl-4H-naphtho[2,3-b]pyran-4-one", "Rubrofusarin gentiobioside", "Rubrofusarin 6-O-\u03b2-D-gentiobioside", "Rubrofusarin 6-O-gentiobioside", "Rubrofusarin-6-O-gentiobioside"], "SMILES": "O(C=1C2=C(C=C3C(=C2O)C(=O)C=C(C)O3)C=C(OC)C1)C4OC(COC5OC(CO)C(O)C(O)C5O)C(O)C(O)C4O", "physical_data": {"Molecular Weight": "596.53", "Molecular Formula": "C27H32O15", "Melting Point": "252.5-254 \u00b0C"}}