{"cas_no": "24587-49-3", "cn_name": "4-\u7f9f\u57fa\u5df4\u8c46\u9178", "en_name": ["trans-4-Hydroxycrotonic acid", "2-Butenoic acid, 4-hydroxy-, (2E)-", "Crotonic acid, 4-hydroxy-, (E)-", "2-Butenoic acid, 4-hydroxy-, (E)-", "(2E)-4-Hydroxy-2-butenoic acid", "trans-4-Hydroxycrotonic acid", "trans-\u03b3-Hydroxycrotonic acid", "(E)-4-Hydroxycrotonic acid", "(E)-4-Hydroxybut-2-enoic acid"], "SMILES": "C(C(O)=O)=CCO", "physical_data": {"Molecular Weight": "102.09", "Molecular Formula": "C4H6O3", "Melting Point": "107.5-108.5 \u00b0C"}}