{"cas_no": "24589-99-9", "cn_name": "3-\u919b\u57fa-4-\u7f9f\u57fa\u82ef\u7532\u9178\u7532\u916f", "en_name": ["Benzoic acid, 3-formyl-4-hydroxy-, methyl ester", "Benzoic acid, 3-formyl-4-hydroxy-, methyl ester", "Isophthalaldehydic acid, 4-hydroxy-, methyl ester", "5-Carbomethoxysalicylaldehyde", "Methyl 3-formyl-4-hydroxybenzoate", "5-(Methoxycarbonyl)salicylaldehyde", "3-Formyl-4-hydroxybenzoic acid methyl ester", "Methyl-3-formyl-4-hydroxybenzoic acid"], "SMILES": "C(OC)(=O)C1=CC(C=O)=C(O)C=C1", "physical_data": {"Molecular Weight": "180.16", "Molecular Formula": "C9H8O4", "Melting Point": "78-80 \u00b0C"}}