{"cas_no": "2458-12-0", "cn_name": "3-\u6c28\u57fa-4-\u7532\u57fa\u82ef\u7532\u9178", "en_name": ["3-Amino-4-methylbenzoic acid", "Benzoic acid, 3-amino-4-methyl-", "p-Toluic acid, 3-amino-", "3-Amino-4-methylbenzoic acid", "2-Toluidine-4-carboxylic acid", "4-Methyl-3-aminobenzoic acid", "NSC 127033", "NSC 597"], "SMILES": "C(O)(=O)C1=CC(N)=C(C)C=C1", "physical_data": {"Molecular Weight": "151.16", "Molecular Formula": "C8H9NO2", "Melting Point": "162 \u00b0C"}}