{"cas_no": "24584-09-6", "cn_name": "\u53f3\u96f7\u4f50\u751f", "en_name": ["Dexrazoxane", "2,6-Piperazinedione, 4,4\u2032-[(1S)-1-methyl-1,2-ethanediyl]bis-", "2,6-Piperazinedione, 4,4\u2032-propylenedi-, (+)-", "2,6-Piperazinedione, 4,4\u2032-(1-methyl-1,2-ethanediyl)bis-, (S)-", "4,4\u2032-[(1S)-1-Methyl-1,2-ethanediyl]bis[2,6-piperazinedione]", "(+)-1,2-Bis(3,5-dioxopiperazin-1-yl)propane", "ICRF 187", "NSC 169780", "(S)-(+)-1,2-Bis(3,5-dioxopiperazin-1-yl)propane", "Dexrazoxane", "ADR 529", "(S)-4,4\u2032-(Propane-1,2-diyl)bis(piperazine-2,6-dione)", "MeSH ID: D064730"], "SMILES": "C(C(C)N1CC(=O)NC(=O)C1)N2CC(=O)NC(=O)C2", "physical_data": {"Molecular Weight": "268.27", "Molecular Formula": "C11H16N4O4", "Melting Point": "193 \u00b0C"}}