{"cas_no": "24589-77-3", "cn_name": "4-\u7fa7\u57fa\u82ef\u80bc\u76d0\u9178\u76d0", "en_name": ["Benzoic acid, 4-hydrazinyl-, hydrochloride (1:1)", "Benzoic acid, 4-hydrazinyl-, hydrochloride (1:1)", "Benzoic acid, p-hydrazino-, monohydrochloride", "Benzoic acid, 4-hydrazino-, monohydrochloride", "Benzoic acid, p-hydrazino-, hydrochloride", "4-Carboxyphenylhydrazinium chloride", "p-Carboxyphenylhydrazine hydrochloride", "4-Carboxyphenylhydrazine hydrochloride", "p-Hydrazinobenzoic acid hydrochloride", "4-Hydrazinobenzoic acid hydrochloride", "(4-Carboxyphenyl)hydrazine monohydrochloride", "4-Hydrazinylbenzoic acid hydrochloride"], "SMILES": "C(O)(=O)C1=CC=C(NN)C=C1.Cl", "physical_data": {"Molecular Weight": "", "Molecular Formula": "C7H8N2O2.ClH", "Melting Point": "235-236 \u00b0C"}}