{"cas_no": "24589-78-4", "cn_name": "N-\u7532\u57fa-N-(\u4e09\u7532\u57fa\u7845\u70f7\u57fa)\u4e09\u6c1f\u4e59\u9170\u80fa", "en_name": ["N-Methyl-N-(trimethylsilyl)trifluoroacetamide", "Acetamide, 2,2,2-trifluoro-N-methyl-N-(trimethylsilyl)-", "2,2,2-Trifluoro-N-methyl-N-(trimethylsilyl)acetamide", "N-Methyl-N-(trimethylsilyl)trifluoroacetamide", "MSTFA", "N-Methyl-N-trimethylsilyltrifluoracetamide", "NSC 339701", "N-Methyl-N(trimethylsilyl) trifluoroacetamide"], "SMILES": "C(N([Si](C)(C)C)C)(C(F)(F)F)=O", "physical_data": {"Molecular Weight": "199.25", "Molecular Formula": "C6H12F3NOSi", "Boiling Point": "131-132 \u00b0C", "Density": "1.074 g/cm\u00b3"}}