{"cas_no": "2458-26-6", "cn_name": "3-\u82ef\u57fa\u5421\u5511", "en_name": ["3-Phenylpyrazole", "1H-Pyrazole, 3-phenyl-", "Pyrazole, 3-phenyl-", "Pyrazole, 3(or 5)-phenyl-", "3-Phenyl-1H-pyrazole", "3-Phenylpyrazole", "5-Phenyl-1H-pyrazole", "5-Phenylpyrazole"], "SMILES": "C=1(C=CNN1)C2=CC=CC=C2", "physical_data": {"Molecular Weight": "144.17", "Molecular Formula": "C9H8N2", "Boiling Point": "189-196 \u00b0C @ Press: 20 Torr", "Melting Point": "78 \u00b0C", "Density": "1.1037 g/cm\u00b3 @ Temp: 18.9 \u00b0C"}}