{"cas_no": "2459-25-8", "cn_name": "2-\u8418\u7532\u9178\u7532\u916f", "en_name": ["Methyl 2-naphthoate", "2-Naphthalenecarboxylic acid, methyl ester", "2-Naphthoic acid, methyl ester", "Methyl 2-naphthoate", "Methyl 2-naphthalenecarboxylate", "2-Carbomethoxynaphthalene", "NSC 17493", "Methyl 2-naphthylcarboxylate"], "SMILES": "C(OC)(=O)C1=CC2=C(C=C1)C=CC=C2", "physical_data": {"Molecular Weight": "186.21", "Molecular Formula": "C12H10O2", "Boiling Point": "290 \u00b0C", "Melting Point": "77 \u00b0C"}}