{"cas_no": "2459-05-4", "cn_name": "\u5bcc\u9a6c\u9178\u5355\u4e59\u916f", "en_name": ["Monoethyl fumarate", "2-Butenedioic acid (2E)-, 1-ethyl ester", "Fumaric acid, monoethyl ester", "2-Butenedioic acid (E)-, monoethyl ester", "Fumaric acid, ethyl ester", "2-Butenedioic acid (2E)-, monoethyl ester", "Ethyl hydrogen fumarate", "Monoethyl fumarate", "Monoethyl trans-2-butenedioate", "(E)-4-Ethoxy-4-oxo-2-butenoic acid", "(E)-4-Ethoxy-4-oxobut-2-enoic acid"], "SMILES": "C(C=CC(O)=O)(OCC)=O", "physical_data": {"Molecular Weight": "144.13", "Molecular Formula": "C6H8O4", "Boiling Point": "146-149 \u00b0C @ Press: 18 Torr", "Melting Point": "70 \u00b0C", "Density": "1.43818 g/cm\u00b3 @ Temp: 87.0 \u00b0C"}}