{"cas_no": "2459-10-1", "cn_name": "1,2,4-\u82ef\u4e09\u7fa7\u9178\u4e09\u7532\u916f", "en_name": ["Trimethyl trimellitate", "1,2,4-Benzenetricarboxylic acid, 1,2,4-trimethyl ester", "1,2,4-Benzenetricarboxylic acid, trimethyl ester", "Trimellitic acid trimethyl ester", "Trimethyl trimellitate", "Trimethyl 1,2,4-benzenetricarboxylate", "Methyl trimellitate", "1,2,4-Tris(methoxycarbonyl)benzene", "TMTM"], "SMILES": "C(OC)(=O)C1=C(C(OC)=O)C=CC(C(OC)=O)=C1", "physical_data": {"Molecular Weight": "252.22", "Molecular Formula": "C12H12O6", "Boiling Point": "194 \u00b0C @ Press: 12 Torr", "Melting Point": "-13 \u00b0C", "Density": "1.261 g/cm\u00b3"}}