{"cas_no": "2459-09-8", "cn_name": "\u5f02\u70df\u9178\u7532\u916f", "en_name": ["Methyl isonicotinate", "4-Pyridinecarboxylic acid, methyl ester", "Isonicotinic acid, methyl ester", "Methyl isonicotinate", "Methyl 4-pyridinecarboxylate", "4-Methoxycarbonylpyridine", "4-Carbomethoxypyridine", "NSC 18257"], "SMILES": "C(OC)(=O)C=1C=CN=CC1", "physical_data": {"Molecular Weight": "137.14", "Molecular Formula": "C7H7NO2", "Boiling Point": "208 \u00b0C", "Melting Point": "16.1 \u00b0C"}}