{"cas_no": "24599-58-4", "cn_name": "2,5-\u4e8c\u7532\u6c27\u57fa\u7532\u82ef", "en_name": ["2,5-Dimethoxytoluene", "Benzene, 1,4-dimethoxy-2-methyl-", "Toluene, 2,5-dimethoxy-", "1,4-Dimethoxy-2-methylbenzene", "Methylhydroquinone dimethyl ether", "2,5-Dimethoxytoluene", "2-Methylhydroquinone dimethyl ether", "2-Methyl-1,4-dimethoxybenzene", "NSC 149950", "2-Methyl-1,4-bis(methyloxy)benzene", "1-Methyl-2,5-dimethoxybenzene"], "SMILES": "O(C)C1=CC(C)=C(OC)C=C1", "physical_data": {"Molecular Weight": "152.19", "Molecular Formula": "C9H12O2", "Boiling Point": "214-218 \u00b0C", "Melting Point": "40-40.5 \u00b0C"}}