{"cas_no": "24596-19-8", "cn_name": "4-\u6eb4-2,6-\u4e8c\u7532\u57fa\u82ef\u80fa", "en_name": ["4-Bromo-2,6-dimethylbenzenamine", "Benzenamine, 4-bromo-2,6-dimethyl-", "2,6-Xylidine, 4-bromo-", "4-Bromo-2,6-dimethylbenzenamine", "4-Bromo-2,6-dimethylaniline", "2,6-Dimethyl-4-bromoaniline", "4-Bromo-2,6-xylidine", "NSC 227944", "4-Bromo-2,6-dimethylphenylamine"], "SMILES": "NC1=C(C)C=C(Br)C=C1C", "physical_data": {"Molecular Weight": "200.08", "Molecular Formula": "C8H10BrN", "Boiling Point": "120 \u00b0C @ Press: 0.22 Torr", "Melting Point": "47 \u00b0C"}}