{"cas_no": "2459-07-6", "cn_name": "2-\u5421\u5576\u7532\u9178\u7532\u916f", "en_name": ["2-Pyridinecarboxylic acid, methyl ester", "2-Pyridinecarboxylic acid, methyl ester", "Picolinic acid, methyl ester", "Methyl picolinate", "Methyl 2-pyridinecarboxylate", "2-Carbomethoxypyridine", "2-(Methoxycarbonyl)pyridine", "NSC 1459", "2-Picolinic acid methyl ester"], "SMILES": "C(OC)(=O)C1=CC=CC=N1", "physical_data": {"Molecular Weight": "137.14", "Molecular Formula": "C7H7NO2", "Boiling Point": "112 \u00b0C @ Press: 13 Torr", "Melting Point": "18.7 \u00b0C"}}