{"cas_no": "24601-74-9", "cn_name": "(S)-4-\u5f02\u4e19\u57fa\u6076\u5511-2,5-\u4e8c\u916e", "en_name": ["Valine N-carboxyanhydride", "2,5-Oxazolidinedione, 4-(1-methylethyl)-, (4S)-", "2,5-Oxazolidinedione, 4-isopropyl-, L-", "2,5-Oxazolidinedione, 4-(1-methylethyl)-, (S)-", "(4S)-4-(1-Methylethyl)-2,5-oxazolidinedione", "L-Valine-N-carboxy anhydride", "Valine N-carboxyanhydride", "N-Carboxy-L-valine anhydride", "L-Valine N-carboxyanhydride", "L-Valine-NCA"], "SMILES": "C(C)(C)C1NC(=O)OC1=O", "physical_data": {"Molecular Weight": "143.14", "Molecular Formula": "C6H9NO3", "Melting Point": "62-63 \u00b0C (decomp)"}}