{"cas_no": "2460-58-4", "cn_name": "2-\u7f9f\u57fa-4-\u785d\u57fa\u82ef\u7532\u919b", "en_name": ["2-Hydroxy-4-nitrobenzaldehyde", "Benzaldehyde, 2-hydroxy-4-nitro-", "Salicylaldehyde, 4-nitro-", "2-Hydroxy-4-nitrobenzaldehyde", "4-Nitrosalicylaldehyde", "NSC 82622"], "SMILES": "N(=O)(=O)C1=CC(O)=C(C=O)C=C1", "physical_data": {"Molecular Weight": "167.12", "Molecular Formula": "C7H5NO4", "Melting Point": "133-134 \u00b0C"}}