{"cas_no": "2460-77-7", "cn_name": "2,5-\u4e8c\u53d4\u4e01\u57fa-1,4-\u82ef\u918c", "en_name": ["2,5-Di-tert-butyl-1,4-benzoquinone", "2,5-Cyclohexadiene-1,4-dione, 2,5-bis(1,1-dimethylethyl)-", "p-Benzoquinone, 2,5-di-tert-butyl-", "2,5-Bis(1,1-dimethylethyl)-2,5-cyclohexadiene-1,4-dione", "2,5-Di-tert-butyl-p-benzoquinone", "2,5-Di-tert-butyl-1,4-benzoquinone", "2,5-Di-tert-butylbenzoquinone", "2,5-Di-tert-butyl-2,5-cyclohexadiene-1,4-dione", "NSC 43579", "NSC 7489", "2,5-Ditert-butylcyclohexa-2,5-diene-1,4-dione"], "SMILES": "C(C)(C)(C)C=1C(=O)C=C(C(C)(C)C)C(=O)C1", "physical_data": {"Molecular Weight": "220.31", "Molecular Formula": "C14H20O2", "Melting Point": "152.5 \u00b0C"}}