{"cas_no": "2460-59-5", "cn_name": "3,5-\u4e8c\u785d\u57fa-2-\u7f9f\u57fa\u82ef\u7532\u919b", "en_name": ["3,5-Dinitrosalicylaldehyde", "Benzaldehyde, 2-hydroxy-3,5-dinitro-", "Salicylaldehyde, 3,5-dinitro-", "2-Hydroxy-3,5-dinitrobenzaldehyde", "3,5-Dinitrosalicylaldehyde", "3,5-Dinitro-2-hydroxybenzaldehyde"], "SMILES": "N(=O)(=O)C1=C(O)C(C=O)=CC(N(=O)=O)=C1", "physical_data": {"Molecular Weight": "212.12", "Molecular Formula": "C7H4N2O6", "Melting Point": "58-60 \u00b0C"}}