{"cas_no": "24602-86-6", "cn_name": "\u5341\u4e09\u5417\u5549", "en_name": ["2,6-Dimethyl-4-tridecylmorpholine", "Morpholine, 2,6-dimethyl-4-tridecyl-", "2,6-Dimethyl-4-tridecylmorpholine", "N-Tridecyl-2,6-dimethylmorpholine", "NSC 232676"], "SMILES": "C(CCCCCCCCCCCC)N1CC(C)OC(C)C1", "physical_data": {"Molecular Weight": "297.52", "Molecular Formula": "C19H39NO", "Boiling Point": "140 \u00b0C", "Melting Point": "&lt;25 \u00b0C"}}