{"cas_no": "2461-42-9", "cn_name": "3-(1-\u8418\u6c27\u57fa)-1,2-\u73af\u6c27\u4e19\u70f7", "en_name": ["2-[(1-Naphthalenyloxy)methyl]oxirane", "Oxirane, 2-[(1-naphthalenyloxy)methyl]-", "Naphthalene, 1-(2,3-epoxypropoxy)-", "Oxirane, [(1-naphthalenyloxy)methyl]-", "Propane, 1,2-epoxy-3-(1-naphthyloxy)-", "2-[(1-Naphthalenyloxy)methyl]oxirane", "1-(2,3-Epoxypropoxy)naphthalene", "1-(1-Naphthyloxy)-2,3-epoxypropane", "1-(1-Naphthoxy)-2,3-epoxypropane", "1-(\u03b1-Naphthoxy)-2,3-epoxypropane", "1,2-Epoxy-3-(\u03b1-naphthoxy)propane", "Glycidyl 1-naphthyl ether", "1-(Glycidyloxy)naphthalene", "Glycidyl \u03b1-naphthyl ether", "1,2-Epoxy-3-(1-naphthoxy)propane", "\u03b1-Naphthyl glycidyl ether", "1-Naphthyl glycidyl ether", "2,3-Epoxypropyl 1-naphthyl ether", "3-(1-Naphthyloxy)-1,2-epoxypropane", "(1-Naphthoxymethyl)oxirane", "(\u00b1)-1-(1-Naphthyloxy)-2,3-epoxypropane", "(1-Naphthyloxymethyl)oxirane", "2-(1-Naphthyloxymethyl)oxirane", "3-(1-Naphthyloxy)propylene oxide", "NSC 632", "1-Naphthalenyloxymethyloxirane", "2-[[(Naphthalen-1-yl)oxy]methyl]oxirane", "1-Naphthol glycidyl ether", "3-(1-Naphthoxy)-1,2-epoxypropane"], "SMILES": "O(CC1CO1)C=2C3=C(C=CC2)C=CC=C3", "physical_data": {"Molecular Weight": "200.23", "Molecular Formula": "C13H12O2", "Boiling Point": "203-203.5 \u00b0C @ Press: 18 Torr", "Melting Point": "95 \u00b0C"}}