{"cas_no": "2461-18-9", "cn_name": "\u5341\u4e8c\u70f7\u57fa\u7f29\u6c34\u7518\u6cb9\u919a", "en_name": ["Dodecyl glycidyl ether", "Oxirane, 2-[(dodecyloxy)methyl]-", "Propane, 1-(dodecyloxy)-2,3-epoxy-", "Oxirane, [(dodecyloxy)methyl]-", "2-[(Dodecyloxy)methyl]oxirane", "Ether, dodecyl 2,3-epoxypropyl", "Dodecyl glycidyl ether", "Lauryl glycidyl ether", "n-Dodecyl glycidyl ether", "[(Dodecyloxy)methyl]oxirane", "Dodecyl 2,3-epoxypropyl ether", "Glycidyl lauryl ether", "Glycidyl dodecyl ether", "1,2-Epoxy-3-(dodecyloxy)propane", "Dodecyl alcohol glycidyl ether", "Glycidyl n-dodecyl ether", "Denacol EX 192", "LA-EP", "Epogosey LA-EP", "2-(Dodecoxymethyl)oxirane", "Ipox RD 24", "Epogosey LA(D)"], "SMILES": "C(OCCCCCCCCCCCC)C1CO1", "physical_data": {"Molecular Weight": "242.40", "Molecular Formula": "C15H30O2", "Boiling Point": "132-135 \u00b0C @ Press: 1-2 Torr", "Melting Point": "11.8-12.3 \u00b0C", "Density": "0.8688 g/cm\u00b3 @ Temp: 30 \u00b0C"}}