{"cas_no": "2461-15-6", "cn_name": "\u8f9b\u57fa\u7f29\u6c34\u7518\u6cb9\u919a", "en_name": ["2-Ethylhexyl glycidyl ether", "Oxirane, 2-[[(2-ethylhexyl)oxy]methyl]-", "Propane, 1,2-epoxy-3-[(2-ethylhexyl)oxy]-", "Oxirane, [[(2-ethylhexyl)oxy]methyl]-", "2-[[(2-Ethylhexyl)oxy]methyl]oxirane", "2-Ethylhexyl glycidyl ether", "Glycidyl 2-ethylhexyl ether", "[[(2-Ethylhexyl)oxy]methyl]oxirane", "Heloxy MK 116", "Denacol EX 12", "1-(2-Ethylhexyloxy)-2,3-epoxypropane", "Epodil 746", "Heloxy 116", "Epiol EH", "Denacol EX 121", "Adeka Glycilol ED 518", "ED 518", "Grilonit 1807-41", "NSC 252154", "Adeka Glycilol ED 518S", "Laproxid 301", "JX 014", "Epodil 747", "2-(2-Ethylhexyloxymethyl)oxirane", "Laproxid 301G", "Epogosey 2EH", "DY-A", "Erisys GE 6", "EX 121", "ED 518S", "Epiol EH-N", "GE 6", "RD 17", "2-Ethyl hexyleneglycidyl ether", "Sensiva ST 50JP", "DER 728", "YED 188", "2-(2-Ethylhexoxymethyl)oxirane", "Xinyuan 746", "Ipox RD 17", "Catana Epox 2015"], "SMILES": "C(OCC(CCCC)CC)C1CO1", "physical_data": {"Molecular Weight": "186.29", "Molecular Formula": "C11H22O2", "Boiling Point": "89.5-90.5 \u00b0C @ Press: 2 Torr", "Density": "0.8862 g/cm\u00b3 @ Temp: 30 \u00b0C"}}