{"cas_no": "2462-31-9", "cn_name": "\u7518\u6c28\u9178\u82c4\u916f\u76d0\u9178\u76d0", "en_name": ["Glycine, phenylmethyl ester, hydrochloride (1:1)", "Glycine, phenylmethyl ester, hydrochloride (1:1)", "Glycine, benzyl ester, hydrochloride", "Glycine, phenylmethyl ester, hydrochloride", "Benzyl glycinate hydrochloride", "Glycine benzyl ester monohydrochloride", "Benzyl 2-aminoacetate hydrochloride", "Aminoacetic acid benzyl ester hydrochloride", "2-(Benzyloxy)-2-oxoethanaminium chloride"], "SMILES": "C(OC(CN)=O)C1=CC=CC=C1.Cl", "physical_data": {"Molecular Weight": "", "Molecular Formula": "C9H11NO2.ClH", "Melting Point": "139-140 \u00b0C"}}