{"cas_no": "24621-73-6", "cn_name": "4-\u6c2f-2-\u7532\u9178", "en_name": ["4-Chloro-1H-indole-2-carboxylic acid", "1H-Indole-2-carboxylic acid, 4-chloro-", "Indole-2-carboxylic acid, 4-chloro-", "4-Chloro-1H-indole-2-carboxylic acid", "4-Chloroindole-2-carboxylic acid", "NSC 148347"], "SMILES": "ClC1=C2C(NC(C(O)=O)=C2)=CC=C1", "physical_data": {"Molecular Weight": "195.60", "Molecular Formula": "C9H6ClNO2", "Melting Point": "259-260 \u00b0C"}}