{"cas_no": "2462-35-3", "cn_name": "L-\u4eae\u6c28\u9178\u82c4\u916f\u76d0\u9178\u76d0", "en_name": ["L-Leucine, phenylmethyl ester, hydrochloride (1:1)", "L-Leucine, phenylmethyl ester, hydrochloride (1:1)", "Leucine, benzyl ester, hydrochloride, L-", "L-Leucine, phenylmethyl ester, hydrochloride", "Leucine benzyl ester hydrochloride", "L-Leucine benzyl ester hydrochloride", "Benzyl L-leucinate hydrochloride", "(S)-Benzyl 2-amino-4-methylpentanoate hydrochloride"], "SMILES": "C(OC(C(CC(C)C)N)=O)C1=CC=CC=C1.Cl", "physical_data": {"Molecular Weight": "", "Molecular Formula": "C13H19NO2.ClH", "Melting Point": "129 \u00b0C"}}