{"cas_no": "24623-25-4", "cn_name": "4-\u785d\u57fa-1-\u831a\u916e", "en_name": ["4-Nitro-1-indanone", "1H-Inden-1-one, 2,3-dihydro-4-nitro-", "1-Indanone, 4-nitro-", "2,3-Dihydro-4-nitro-1H-inden-1-one", "4-Nitro-1-indanone", "4-Nitroindanone", "NSC 225091", "4-Nitro-2,3-dihydro-1H-inden-1-one"], "SMILES": "N(=O)(=O)C1=C2C(C(=O)CC2)=CC=C1", "physical_data": {"Molecular Weight": "177.16", "Molecular Formula": "C9H7NO3", "Melting Point": "104-105 \u00b0C"}}