{"cas_no": "2462-32-0", "cn_name": "L-\u82ef\u4e19\u6c28\u9178\u82c4\u916f\u76d0\u9178\u76d0", "en_name": ["L-Phenylalanine, phenylmethyl ester, hydrochloride (1:1)", "L-Phenylalanine, phenylmethyl ester, hydrochloride (1:1)", "Alanine, phenyl-, benzyl ester, hydrochloride, L-", "L-Phenylalanine, phenylmethyl ester, hydrochloride", "Alanine, phenyl-, benzyl ester, hydrochloride", "Phenylalanine benzyl ester hydrochloride", "L-Phenylalanine benzyl ester hydrochloride", "Benzyl L-phenylalaninate hydrochloride", "Benzyl phenylalaninate hydrochloride", "NSC 522226", "Benzyl (S)-2-amino-3-phenylpropanoate hydrochloride"], "SMILES": "C(C(C(OCC1=CC=CC=C1)=O)N)C2=CC=CC=C2.Cl", "physical_data": {"Molecular Weight": "", "Molecular Formula": "C16H17NO2.ClH", "Melting Point": "202 \u00b0C"}}