{"cas_no": "24629-25-2", "cn_name": "L-\u5f02\u4eae\u6c28\u9187", "en_name": ["(2S,3S)-2-Amino-3-methyl-1-pentanol", "1-Pentanol, 2-amino-3-methyl-, (2S,3S)-", "1-Pentanol, 2-amino-3-methyl-, L-erythro-", "1-Pentanol, 2-amino-3-methyl-, [S-(R*,R*)]-", "(2S,3S)-2-Amino-3-methyl-1-pentanol", "L-Isoleucinol", "(S)-Isoleucinol", "(S)-sec-Leucinol", "(2S,3S)-2-Amino-3-methylpentan-1-ol", "[(S,S)-1-(Hydroxymethyl)-2-methylbutyl]amine", "(2S,3S)-Isoleucinol", "[(1S,2S)-1-(Hydroxymethyl)-2-methylbutyl]amine", "[(2S,3S)-1-Hydroxy-3-methylpentan-2-yl]amine"], "SMILES": "C(C(CO)N)(CC)C", "physical_data": {"Molecular Weight": "117.19", "Molecular Formula": "C6H15NO", "Boiling Point": "87-89 \u00b0C @ Press: 10 Torr", "Melting Point": "32.5-37.3 \u00b0C"}}