{"cas_no": "24623-24-3", "cn_name": "6-\u785d\u57fa-1-\u831a\u6ee1\u916e", "en_name": ["6-Nitroindanone", "1H-Inden-1-one, 2,3-dihydro-6-nitro-", "1-Indanone, 6-nitro-", "2,3-Dihydro-6-nitro-1H-inden-1-one", "6-Nitroindan-1-one", "6-Nitroindanone", "1-Oxo-6-nitroindane", "NSC 225094", "6-Nitro-2,3-dihydro-1H-inden-1-one"], "SMILES": "O=C1C=2C(=CC=C(N(=O)=O)C2)CC1", "physical_data": {"Molecular Weight": "177.16", "Molecular Formula": "C9H7NO3", "Melting Point": "71-73 \u00b0C"}}