{"cas_no": "2462-84-2", "cn_name": "\u53cd\u6cb9\u9178\u7532\u916f", "en_name": ["Methyl 9-octadecenoate", "9-Octadecenoic acid, methyl ester", "Methyl 9-octadecenoate"], "SMILES": "C(CCC=CCCCCCCCC)CCCCC(OC)=O", "physical_data": {"Molecular Weight": "296.49", "Molecular Formula": "C19H36O2", "Boiling Point": "145.5-147 \u00b0C @ Press: 1 Torr", "Density": "0.8743 g/cm\u00b3 @ Temp: 20 \u00b0C"}}