{"cas_no": "24634-61-5", "cn_name": "\u5c71\u68a8\u9178\u94be", "en_name": ["Potassium sorbate", "2,4-Hexadienoic acid, potassium salt (1:1), (2E,4E)-", "Sorbic acid, potassium salt", "2,4-Hexadienoic acid, potassium salt, (E,E)-", "2,4-Hexadienoic acid, potassium salt, (2E,4E)-", "Potassium sorbate", "E 202", "Potassium (E,E)-hexa-2,4-dienoate", "E 202 (preservative)", "K 60/95", "PO 300"], "SMILES": "C(=CC=CC)C(O)=O.[K]", "physical_data": {"Molecular Weight": "", "Molecular Formula": "C6H8O2.K", "Melting Point": "&gt;270 \u00b0C (decomp)"}}