{"cas_no": "2463-53-8", "cn_name": "2-\u58ec\u70ef\u919b", "en_name": ["2-Nonenal", "2-Nonenal", "2-Nonen-1-al", "NSC 20746"], "SMILES": "C(CC=CC=O)CCCC", "physical_data": {"Molecular Weight": "140.22", "Molecular Formula": "C9H16O", "Boiling Point": "115-117 \u00b0C @ Press: 35 Torr", "Density": "0.898 g/cm\u00b3 @ Temp: 21 \u00b0C"}}