{"cas_no": "2463-84-5", "cn_name": "\u5f02\u6c2f\u78f7", "en_name": ["Dicapthon", "Phosphorothioic acid, O-(2-chloro-4-nitrophenyl) O,O-dimethyl ester", "OMS 214", "ENT 17,035", "American Cyanamid 4124", "O-(2-Chloro-4-nitrophenyl) O,O-dimethyl phosphorothioate", "Di-Captan", "Dicapthon", "O,O-Dimethyl O-2-chloro-4-nitrophenyl phosphorothioate", "Experimental Insecticide 4124", "Isochlorthion", "p-Nitro-o-chlorophenyl dimethyl thionophosphate", "BAY 14981", "ENT 17035", "Dicapthion", "Insecticide ACC 4124"], "SMILES": "O(P(OC)(OC)=S)C1=C(Cl)C=C(N(=O)=O)C=C1", "physical_data": {"Molecular Weight": "297.65", "Molecular Formula": "C8H9ClNO5PS", "Melting Point": "53 \u00b0C"}}