{"cas_no": "24636-31-5", "cn_name": "\u7532\u57fa\u4e19\u70ef\u9170\u57fa\u4e19\u57fa\u4e8c\u7532\u57fa\u6c2f\u7845\u70f7", "en_name": ["(Methacryloxypropyl)dimethylchlorosilane", "2-Propenoic acid, 2-methyl-, 3-(chlorodimethylsilyl)propyl ester", "Methacrylic acid, 3-(chlorodimethylsilyl)propyl ester", "1-Propanol, 3-(chlorodimethylsilyl)-, methacrylate", "[3-(Methacryloyloxy)propyl]dimethylchlorosilane", "(Methacryloxypropyl)dimethylchlorosilane", "Chloro[3-(methacryloyloxy)propyl]dimethylsilane", "[3-(Methacryloxy)propyl]dimethylchlorosilane", "(Methacryloxypropyl)dimethylsilyl chloride", "\u03b3-Methacryloxypropyldimethylchlorosilane", "3-(Dimethylchlorosilyl)propyl methacrylate", "3-[Chlorodimethylsilyl]propyl methacrylate"], "SMILES": "O(CCC[Si](C)(C)Cl)C(C(C)=C)=O", "physical_data": {"Molecular Weight": "220.77", "Molecular Formula": "C9H17ClO2Si", "Boiling Point": "78 \u00b0C @ Press: 1 Torr", "Density": "1.012 g/cm\u00b3"}}