{"cas_no": "2463-77-6", "cn_name": "2-\u5341\u4e00\u70ef\u919b", "en_name": ["2-Undecenal", "2-Undecenal", "3-Octylacrolein"], "SMILES": "C(CCC=CC=O)CCCCC", "physical_data": {"Molecular Weight": "168.28", "Molecular Formula": "C11H20O", "Boiling Point": "115-117 \u00b0C @ Press: 10 Torr"}}