{"cas_no": "2464-37-1", "cn_name": "\u6c2f\u82b4\u7d20", "en_name": ["Chlorflurenol", "9H-Fluorene-9-carboxylic acid, 2-chloro-9-hydroxy-", "Fluorene-9-carboxylic acid, 2-chloro-9-hydroxy-", "2-Chloro-9-hydroxy-9H-fluorene-9-carboxylic acid", "2-Chloro-9-hydroxyfluorene-9-carboxylic acid", "IT 3299", "Chlorflurenol", "Chlorflurecol", "CME 73170P", "NSC 102385"], "SMILES": "C(O)(=O)C1(O)C=2C(C=3C1=CC=CC3)=CC=C(Cl)C2", "physical_data": {"Molecular Weight": "260.67", "Molecular Formula": "C14H9ClO3", "Melting Point": "152 \u00b0C"}}