{"cas_no": "2464-18-8", "cn_name": "\u522b\u80c6\u9178", "en_name": ["Allocholic acid", "Cholan-24-oic acid, 3,7,12-trihydroxy-, (3\u03b1,5\u03b1,7\u03b1,12\u03b1)-", "5\u03b1-Cholan-24-oic acid, 3\u03b1,7\u03b1,12\u03b1-trihydroxy-", "5\u03b1-Cholanic acid, 3\u03b1,7\u03b1,12\u03b1-trihydroxy-", "(3\u03b1,5\u03b1,7\u03b1,12\u03b1)-3,7,12-Trihydroxycholan-24-oic acid", "Allocholic acid", "3\u03b1,7\u03b1,12\u03b1-Trihydroxy-5\u03b1-cholanoic acid", "5\u03b1-Cholic acid", "5\u03b1-Allocholic acid", "NPLC 0115"], "SMILES": "OC1C2C3C(C)(C(C(CCC(O)=O)C)CC3)C(O)CC2C4(C)C(C1)CC(O)CC4", "physical_data": {"Molecular Weight": "408.57", "Molecular Formula": "C24H40O5", "Melting Point": "238-240 \u00b0C"}}