{"cas_no": "24650-42-8", "cn_name": "\u5b89\u606f\u9999\u53cc\u7532\u919a", "en_name": ["2,2-Dimethoxy-2-phenylacetophenone", "Ethanone, 2,2-dimethoxy-1,2-diphenyl-", "Benzil dimethyl acetal", "2,2-Dimethoxy-1,2-diphenylethanone", "Benzil mono(dimethyl ketal)", "Benzil mono(dimethyl acetal)", "Irgacure 651", "\u03b1,\u03b1-Dimethoxy-\u03b1-phenylacetophenone", "Irgacure E 651", "1,2-Diphenyl-2,2-dimethoxyethanone", "2-Phenyl-2,2-dimethoxyacetophenone", "2,2-Dimethoxy-1,2-diphenyl-1-ethanone", "Benzil dimethyl ketal", "Lucirin BDK", "\u03c9,\u03c9-Dimethoxy-\u03c9-phenylacetophenone", "Irgacure 951", "\u03b1,\u03b1-Dimethoxydeoxybenzoin", "2,2-Dimethoxy-2-phenylacetophenone", "Esacure KB 1", "Irgacure 641", "Irgacure I 651", "DMPA", "KB 1", "2,2-Dimethoxyphenylacetophenone", "Kayacure BDMK", "Irgacure 621", "IRG 651", "I 651", "IR 651", "Photomer 51", "Aronix C 101", "Quantacure BDK", "C 101", "Irgacure 654", "Irgacure 671", "Benzoin dimethyl ether", "BDK", "Micure BK 6", "Photocure 51", "Omnirad BDK", "Chemcure BDK", "Photoinitiator 651", "Speedcure BKL", "2,2-Dimethoxy-1,2-diphenylethan-1-one", "PIBDK", "Ciba 651", "Photoinitiator 6512", "UV 651", "IC 127", "Doublecure BDK", "Omnirad 651", "Photoinitiator BDK", "C 61", "SB-PI 751", "Runtecure 1065", "2,2-Dimethoxy-2-diphenylacetophenone", "Gencure BDK", "BK 6", "2,2-Dimethyloxy-2-phenyl acetophenone", "D 1702", "KV 1 (photoinitiator)", "KV 1", "Acetocure BDK", "Irgacure 659", "Genocure BDK", "Omnirad 659"], "SMILES": "C(C(=O)C1=CC=CC=C1)(OC)(OC)C2=CC=CC=C2", "physical_data": {"Molecular Weight": "256.30", "Molecular Formula": "C16H16O3", "Boiling Point": "100-110 \u00b0C @ Press: 1 x 10<sup>-3</sup> Torr", "Melting Point": "63-64 \u00b0C"}}