{"cas_no": "2465-27-2", "cn_name": "\u91d1\u80fa", "en_name": ["C.I. Basic Yellow 2", "Benzenamine, 4,4\u2032-carbonimidoylbis[N,N-dimethyl-, hydrochloride (1:1)", "C.I. Basic Yellow 2, monohydrochloride", "Benzenamine, 4,4\u2032-carbonimidoylbis[N,N-dimethyl-, monohydrochloride", "C.I. Basic Yellow 2", "C.I. 41000", "ADC Auramine O", "Aizen Auramine", "Aizen Auramine conc.SFA", "Aizen Auramine OH", "Auramine A1", "Auramine N", "Auramine O", "Auramine Extra", "Auramine Extra Conc. A", "Auramine O Extra Conc. A Export", "Auramine FA", "Auramine hydrochloride", "Auramine II", "Auramine Lake Yellow O", "Auramine ON", "Auramine OO", "Auramine OOO", "Auramine OS", "Auramine Pure", "Auramine SP", "Auramine Yellow", "Calcozine Yellow OX", "Mitsui Auramine O", "Auramine", "Auramine FWA", "Auramine 0-100", "Basic Yellow 2", "Auramine chloride", "Auramin", "Basonyl Yellow 120", "Arazine Yellow", "Flexo Yellow 110", "Aizen Auramine OW 100", "Basic Light Yellow", "Auramine Extra 0-125", "Auramine Extra 0-100", "Basic Flavine Yellow O", "Basic Light Yellow O", "Basic yellow O"], "SMILES": "C(=N)(C1=CC=C(N(C)C)C=C1)C2=CC=C(N(C)C)C=C2.Cl", "physical_data": {"Molecular Weight": "", "Molecular Formula": "C17H21N3.ClH", "Melting Point": "&gt;250 \u00b0C (decomp)"}}