{"cas_no": "2465-32-9", "cn_name": "\u4e8c\u6cb9\u7cbe", "en_name": ["1,3-Diolein", "9-Octadecenoic acid (9Z)-, 1,1\u2032-(2-hydroxy-1,3-propanediyl) ester", "Olein, 1,3-di-", "9-Octadecenoic acid (Z)-, 2-hydroxy-1,3-propanediyl ester", "9-Octadecenoic acid (9Z)-, 2-hydroxy-1,3-propanediyl ester", "1,3-Diolein", "(Z,Z)-1,3-Dioctadecenoyl glycerol", "Glycerol 1,3-dioleate", "1,3-Dioleoylglycerol", "sn-1,3-Dioleoylglycerol", "1,3-Glyceryl dioleate", "2-Hydroxypropane-1,3-diyl dioleate"], "SMILES": "C(C(COC(CCCCCCCC=CCCCCCCCC)=O)O)OC(CCCCCCCC=CCCCCCCCC)=O", "physical_data": {"Molecular Weight": "620.99", "Molecular Formula": "C39H72O5", "Melting Point": "21.5-22 \u00b0C", "Density": "0.9128 g/cm\u00b3 @ Temp: 35 \u00b0C"}}