{"cas_no": "2465-59-0", "cn_name": "\u7f9f\u57fa\u560c\u5464", "en_name": ["Oxypurinol", "1H-Pyrazolo[3,4-d]pyrimidine-4,6(5H,7H)-dione", "4H-Pyrazolo[3,4-d]pyrimidine-4,6(5H)-dione, 1,7-dihydro-", "Alloxanthine", "Oxipurinol", "Oxypurinol", "4,6-Dihydroxypyrazolo[3,4-d]pyrimidine", "Oxoallopurinol", "1H-Pyrazolo[3,4-d]pyrimidin-4,6-diol", "BW 55-5", "1H,3H,9H-Alloxanthine", "4,6-Dioxopyrazolo[3,4-d]pyrimidine", "NSC 76239", "Oxyprim", "1H,4H,5H,6H,7H-Pyrazolo[3,4-d]pyrimidine-4,6-dione", "MeSH ID: D010117"], "SMILES": "O=C1C2=C(NC(=O)N1)NN=C2", "physical_data": {"Molecular Weight": "152.11", "Molecular Formula": "C5H4N4O2", "Melting Point": "&gt;300 \u00b0C"}}