{"cas_no": "24654-55-5", "cn_name": "\u5bf9\u6c1f\u8089\u6842\u919b", "en_name": ["3-(4-Fluorophenyl)-2-propenal", "2-Propenal, 3-(4-fluorophenyl)-", "Cinnamaldehyde, p-fluoro-", "3-(4-Fluorophenyl)-2-propenal", "4-Fluorocinnamaldehyde", "p-Fluorocinnamaldehyde", "3-(4-Fluorophenyl)acrolein"], "SMILES": "C(=CC=O)C1=CC=C(F)C=C1", "physical_data": {"Molecular Weight": "150.15", "Molecular Formula": "C9H7FO", "Boiling Point": "80-95 \u00b0C @ Press: 2 Torr"}}