{"cas_no": "2465-11-4", "cn_name": "\u661f\u9c7c\u753e\u9187", "en_name": ["Stellasterol", "Ergosta-7,22-dien-3-ol, (3\u03b2,5\u03b1,22E)-", "5\u03b1-Ergosta-7,22-dien-3\u03b2-ol", "Stellasterol", "(3\u03b2,5\u03b1,22E)-Ergosta-7,22-dien-3-ol", "(24S)-24-Methyl-5\u03b1-cholesta-7,22-dien-3\u03b2-ol", "Stellasterin", "Ergosta-7,22-dienol", "Ergosterol, \u03b1-dihydro-", "\u03b1-Dihydroergosterol", "5-Dihydroergosterin", "24-Methyl-5\u03b1-cholesta-7,22-dien-3\u03b2-ol", "(22E,24R)-Ergosta-7,22-dien-3\u03b2-ol", "(22E)-Ergosta-7,22-dien-3\u03b2-ol"], "SMILES": "CC12C(C=3C(C4(C)C(CC3)CC(O)CC4)CC1)CCC2C(C=CC(C(C)C)C)C", "physical_data": {"Molecular Weight": "398.66", "Molecular Formula": "C28H46O", "Melting Point": "149-150 \u00b0C"}}