{"cas_no": "2465-93-2", "cn_name": "1,2,3-\u4e09(2-\u6c30\u6c27\u57fa)\u4e19\u70f7", "en_name": ["3,3\u2032,3\u2032\u2032-[1,2,3-Propanetriyltris(oxy)]tris[propanenitrile]", "Propanenitrile, 3,3\u2032,3\u2032\u2032-[1,2,3-propanetriyltris(oxy)]tris-", "Propionitrile, 3,3\u2032,3\u2032\u2032-(1,2,3-propanetriyltrioxy)tri-", "3,3\u2032,3\u2032\u2032-[1,2,3-Propanetriyltris(oxy)]tris[propanenitrile]", "1,2,3-Tris(2-cyanoethoxy)propane", "1,2,3-Tris(\u03b2-cyanoethoxy)propane", "Tris(\u03b2-cyanoethoxy)propane", "1,2,3-Tris(\u03b2-cyanethoxy)propane", "Tris(cyanoethoxy)propane", "TCEP", "NSC 105812", "3-[[1,3-Bis(2-cyanoethoxy)propan-2-yl]oxy]propanenitrile", "3,3\u2032,3\u2032\u2032-Propane-1,2,3-triyltrioxytripropiononitrile"], "SMILES": "C(COCCC#N)(COCCC#N)OCCC#N", "physical_data": {"Molecular Weight": "251.28", "Molecular Formula": "C12H17N3O3", "Boiling Point": "250-260 \u00b0C @ Press: 1-2 Torr"}}