{"cas_no": "2466-09-3", "cn_name": "\u7126\u78f7\u9178", "en_name": ["Pyrophosphoric acid", "Diphosphoric acid", "Pyrophosphoric acid", "Diphosphoric acid (H4P2O7)"], "SMILES": "O(P(=O)(O)O)P(=O)(O)O", "physical_data": {"Molecular Weight": "177.98", "Molecular Formula": "H4O7P2", "Melting Point": "61 \u00b0C"}}