{"cas_no": "2466-42-4", "cn_name": "NEOLITSINE", "en_name": ["(+)-Neolitsine", "5H-Bis[1,3]benzodioxolo[6,5,4-de:5\u2032,6\u2032-g]quinoline, 6,7,7a,8-tetrahydro-7-methyl-, (7aS)-", "6a\u03b1-Aporphine, 1,2:9,10-bis(methylenedioxy)-", "5H-Bis[1,3]benzodioxolo[6,5,4-de:5\u2032,6\u2032-g]quinoline, 6,7,7a,8-tetrahydro-7-methyl-, (S)-", "(7aS)-6,7,7a,8-Tetrahydro-7-methyl-5H-bis[1,3]benzodioxolo[6,5,4-de:5\u2032,6\u2032-g]quinoline", "Neolitsine", "Neolitsin", "(+)-Neolitsine"], "SMILES": "CN1C2C=3C(C=4C(C2)=CC5=C(C4)OCO5)=C6C(=CC3CC1)OCO6", "physical_data": {"Molecular Weight": "323.34", "Molecular Formula": "C19H17NO4", "Melting Point": "149-150 \u00b0C"}}