{"cas_no": "2466-76-4", "cn_name": "1-\u4e59\u9170\u57fa\u54aa\u5511", "en_name": ["1-(1H-Imidazol-1-yl)ethanone", "Ethanone, 1-(1H-imidazol-1-yl)-", "Imidazole, 1-acetyl-", "1H-Imidazole, 1-acetyl-", "1-(1H-Imidazol-1-yl)ethanone", "Acetylimidazole", "N-Acetylimidazole", "1-Acetylimidazole", "1-Acetyl-1H-imidazole", "1-(1H-Imidazol-1-yl)ethan-1-one"], "SMILES": "C(C)(=O)N1C=CN=C1", "physical_data": {"Molecular Weight": "110.11", "Molecular Formula": "C5H6N2O", "Melting Point": "99-105 \u00b0C"}}