{"cas_no": "2467-03-0", "cn_name": "2,4'-\u4e8c\u7f9f\u57fa\u4e8c\u82ef\u7532\u70f7", "en_name": ["2,4\u2032-Dihydroxydiphenylmethane", "Phenol, 2-[(4-hydroxyphenyl)methyl]-", "Phenol, 2,4\u2032-methylenedi-", "2-[(4-Hydroxyphenyl)methyl]phenol", "2,4\u2032-Methylenediphenol", "2,4\u2032-Dihydroxydiphenylmethane", "o-(p-Hydroxybenzyl)phenol", "(2-Hydroxyphenyl)(4-hydroxyphenyl)methane", "2,4\u2032-Bis(hydroxyphenyl)methane", "o,p\u2032-Bis(hydroxyphenyl)methane", "NSC 36395", "2,4\u2032-Methylenebisphenol", "2-(4-Hydroxybenzyl)phenol"], "SMILES": "C(C1=C(O)C=CC=C1)C2=CC=C(O)C=C2", "physical_data": {"Molecular Weight": "200.23", "Molecular Formula": "C13H12O2", "Boiling Point": "204-208 \u00b0C @ Press: 6 Torr", "Melting Point": "117-118 \u00b0C"}}