{"cas_no": "2467-02-9", "cn_name": "2,2\u2019-\u4e9a\u7532\u57fa\u53cc\u82ef\u915a", "en_name": ["Bis(2-hydroxyphenyl)methane", "Phenol, 2,2\u2032-methylenebis-", "Phenol, 2,2\u2032-methylenedi-", "2,2\u2032-Methylenebis[phenol]", "2,2\u2032-Methylenediphenol", "Bis(2-hydroxyphenyl)methane", "2,2\u2032-Dihydroxydiphenylmethane", "o-(o-Hydroxybenzyl)phenol", "Bisphenol F", "2,2\u2032-Bis(hydroxyphenyl)methane", "o,o\u2032-Bis(hydroxyphenyl)methane", "NSC 402103", "2-[(2-Hydroxyphenyl)methyl]phenol"], "SMILES": "C(C1=C(O)C=CC=C1)C2=C(O)C=CC=C2", "physical_data": {"Molecular Weight": "200.23", "Molecular Formula": "C13H12O2", "Boiling Point": "228-230 \u00b0C @ Press: 15 Torr", "Melting Point": "118-119 \u00b0C"}}