{"cas_no": "24677-78-9", "cn_name": "2,3-\u4e8c\u7f9f\u57fa\u82ef\u7532\u919b", "en_name": ["2,3-Dihydroxybenzaldehyde", "Benzaldehyde, 2,3-dihydroxy-", "o-Pyrocatechualdehyde", "2,3-Dihydroxybenzaldehyde", "5,6-Dihydroxybenzaldehyde", "3-Hydroxysalicylaldehyde", "1,2-Dihydroxy-3-formylbenzene", "3-Formyl-1,2-benzenediol", "NSC 146456"], "SMILES": "C(=O)C1=C(O)C(O)=CC=C1", "physical_data": {"Molecular Weight": "138.12", "Molecular Formula": "C7H6O3", "Boiling Point": "235 \u00b0C", "Melting Point": "108 \u00b0C"}}