{"cas_no": "2467-12-1", "cn_name": "\u787c\u9178\u4e09\u8f9b\u916f", "en_name": ["Trioctyl borate", "Boric acid (H3BO3), trioctyl ester", "Octyl borate", "Trioctyl borate", "Trioctyloxyborane", "Borester 5", "Boron octylate", "NSC 783"], "SMILES": "B(OCCCCCCCC)(OCCCCCCCC)OCCCCCCCC", "physical_data": {"Molecular Weight": "398.47", "Molecular Formula": "C24H51BO3", "Boiling Point": "174 \u00b0C @ Press: 0.4 Torr"}}