{"cas_no": "2468-56-6", "cn_name": "6-\u7898-1-\u5df1\u7094", "en_name": ["6-Iodo-1-hexyne", "1-Hexyne, 6-iodo-", "6-Iodo-1-hexyne", "1-Iodo-5-hexyne"], "SMILES": "C(CC#C)CCI", "physical_data": {"Molecular Weight": "208.04", "Molecular Formula": "C6H9I", "Boiling Point": "94-95 \u00b0C @ Press: 35 Torr", "Melting Point": "187 \u00b0C", "Density": "1.576 g/cm\u00b3 @ Temp: 20 \u00b0C"}}