{"cas_no": "24683-20-3", "cn_name": "2-(1,1-\u4e8c\u6c27-3-\u6c27\u4ee3\u82ef\u5e76[D]\u5f02\u567b\u5511-2(3H)-\u57fa)\u4e59\u9178\u4e59\u916f", "en_name": ["1,2-Benzisothiazole-2(3H)-acetic acid, 3-oxo-, ethyl ester, 1,1-dioxide", "1,2-Benzisothiazole-2(3H)-acetic acid, 3-oxo-, ethyl ester, 1,1-dioxide", "1,2-Benzisothiazoline-2-acetic acid, 3-oxo-, ethyl ester, 1,1-dioxide", "(1,1,3-Trioxo-1,3-dihydro-1\u03bb*6*-benzo[d]isothiazol-2-yl)-acetic acid ethyl ester"], "SMILES": "O=S1(=O)C=2C(C(=O)N1CC(OCC)=O)=CC=CC2", "physical_data": {"Molecular Weight": "269.27", "Molecular Formula": "C11H11NO5S", "Melting Point": "104-105 \u00b0C"}}