{"cas_no": "24685-89-0", "cn_name": "\u56db[2-(2-\u7532\u6c27\u4e59\u6c27\u57fa)\u4e59\u57fa]\u7845\u9178\u916f", "en_name": ["Silicic acid (H4SiO4) tetrakis[2-(2-methoxyethoxy)ethyl] ester", "Silicic acid (H4SiO4), tetrakis[2-(2-methoxyethoxy)ethyl] ester", "Ethanol, 2-(2-methoxyethoxy)-, tetraester with silicic acid (H4SiO4)", "Silicic acid (H4SiO4) tetrakis[2-(2-methoxyethoxy)ethyl] ester", "C 4-2117", "Tetrakis[2-(2-methoxyethoxy)ethyl] silicate"], "SMILES": "[Si](OCCOCCOC)(OCCOCCOC)(OCCOCCOC)OCCOCCOC", "physical_data": {"Molecular Weight": "504.64", "Molecular Formula": "C20H44O12Si", "Boiling Point": "245 \u00b0C @ Press: 1 Torr", "Density": "1.090 g/cm\u00b3"}}