{"cas_no": "24683-26-9", "cn_name": "4-\u7f9f\u57fa-2-\u7532\u57fa-2H-1,2-\u82ef\u5e76\u567b\u55ea-3-\u7532\u9178\u4e59\u916f 1,1-\u4e8c\u6c27\u5316\u7269", "en_name": ["4-Hydroxy-2-methyl-2H-1,2-benzothiazine-3-carboxylic acid ethyl ester 1,1-dioxide", "2H-1,2-Benzothiazine-3-carboxylic acid, 4-hydroxy-2-methyl-, ethyl ester, 1,1-dioxide", "4-Hydroxy-2-methyl-2H-1,2-benzothiazine-3-carboxylic acid ethyl ester 1,1-dioxide", "Ethyl 4-hydroxy-2-methyl-2H-1,2-benzothiazine-3-carboxylate 1,1-dioxide"], "SMILES": "OC=1C=2C(S(=O)(=O)N(C)C1C(OCC)=O)=CC=CC2", "physical_data": {"Molecular Weight": "283.30", "Molecular Formula": "C12H13NO5S", "Melting Point": "138-139 \u00b0C"}}