{"cas_no": "24686-78-0", "cn_name": "1-\u82ef\u9170\u57fa-4-\u54cc\u5576\u916e", "en_name": ["1-Benzoyl-4-piperidone", "4-Piperidinone, 1-benzoyl-", "4-Piperidone, 1-benzoyl-", "1-Benzoyl-4-piperidinone", "N-Benzoyl-4-piperidone", "1-Benzoyl-4-piperidone", "1-Benzoyl-4-oxopiperidine", "NSC 97564"], "SMILES": "C(=O)(N1CCC(=O)CC1)C2=CC=CC=C2", "physical_data": {"Molecular Weight": "203.24", "Molecular Formula": "C12H13NO2", "Boiling Point": "158-160 \u00b0C @ Press: 0.2 Torr", "Melting Point": "49-52 \u00b0C"}}