{"cas_no": "24680-50-0", "cn_name": "\u53cd-4-\u7532\u6c27\u57fa\u4e19\u70ef\u9178\u916f", "en_name": ["trans-4-Methoxycinnamaldehyde", "2-Propenal, 3-(4-methoxyphenyl)-, (2E)-", "Cinnamaldehyde, p-methoxy-, (E)-", "2-Propenal, 3-(4-methoxyphenyl)-, (E)-", "(2E)-3-(4-Methoxyphenyl)-2-propenal", "(E)-p-Methoxycinnamaldehyde", "(E)-4\u2032-Methoxycinnamaldehyde", "trans-p-Methoxycinnamaldehyde", "trans-4-Methoxycinnamaldehyde", "(E)-3-(4-Methoxyphenyl)-2-propenal", "(E)-4-Methoxycinnamaldehyde", "NSC 134287", "(E)-3-(4-Methoxyphenyl)propenal", "trans-3-(4-Methoxyphenyl)acrolein", "E-3-(4-Methoxyphenyl)acrylaldehyde", "trans-3-(4-Methoxyphenyl)prop-2-enal", "(E)-3-(4-Methoxyphenyl)acrylaldehyde", "(E)-3-(4-methoxyphenyl)acrylaldehyde", "(E)-3-(4-Methoxyphenyl)acrolein", "PPC 007", "(E)-4-Methoxycinnamaldehyde", "(E)-3-(4-Methoxyphenyl)-2-propenal"], "SMILES": "C(=CC=O)C1=CC=C(OC)C=C1", "physical_data": {"Molecular Weight": "162.19", "Molecular Formula": "C10H10O2", "Boiling Point": "115-116 \u00b0C @ Press: 1 Torr", "Melting Point": "57-58 \u00b0C"}}