{"cas_no": "2468-21-5", "cn_name": "\u957f\u6625\u8d28\u78b1", "en_name": ["(+)-Catharanthine", "Ibogamine-18-carboxylic acid, 3,4-didehydro-, methyl ester, (2\u03b1,5\u03b2,6\u03b1,18\u03b2)-", "Catharanthine", "6,9-Methano-5H-pyrido[1\u2032,2\u2032:1,2]azepino[4,5-b]indole, ibogamine-18-carboxylic acid deriv.", "(+)-Catharanthine", "Catharanthine, (+)-", "Catharanthin", "(+)-3,4-Didehydrocoronaridine", "TCM 5458190"], "SMILES": "C(OC)(=O)C12C3N(CC(C1)C=C3CC)CCC4=C2NC=5C4=CC=CC5", "physical_data": {"Molecular Weight": "336.43", "Molecular Formula": "C21H24N2O2", "Melting Point": "126-128 \u00b0C"}}