{"cas_no": "24683-21-4", "cn_name": "\u5421\u7f57\u6614\u5eb7\u6742\u8d28 H", "en_name": ["2H-1,2-Benzothiazine-3-carboxylic acid, 4-hydroxy-, ethyl ester, 1,1-dioxide", "2H-1,2-Benzothiazine-3-carboxylic acid, 4-hydroxy-, ethyl ester, 1,1-dioxide"], "SMILES": "OC=1C=2C(S(=O)(=O)NC1C(OCC)=O)=CC=CC2", "physical_data": {"Molecular Weight": "269.27", "Molecular Formula": "C11H11NO5S", "Melting Point": "139.5-141.5 \u00b0C"}}