{"cas_no": "2469-34-3", "cn_name": "\u8fdc\u5fd7\u7682\u82f7\u5143", "en_name": ["Senegenin", "27-Norolean-13-ene-23,28-dioic acid, 12-(chloromethyl)-2,3-dihydroxy-, (2\u03b2,3\u03b2,4\u03b1,12\u03b1)-", "27-Norolean-13-ene-23,28-dioic acid, 12-(chloromethyl)-2\u03b2,3\u03b2-dihydroxy-", "Senegenin", "(2\u03b2,3\u03b2,4\u03b1,12\u03b1)-12-(Chloromethyl)-2,3-dihydroxy-27-norolean-13-ene-23,28-dioic acid", "12-(Chloromethyl)-2\u03b2,3\u03b2-dihydroxy-27-norolean-13-ene-23,28-dioic acid", "Tenuigenin"], "SMILES": "CC12C3C(C)(C4=C(C(CCl)C3)C5C(C(O)=O)(CC4)CCC(C)(C)C5)CCC1C(C(O)=O)(C)C(O)C(O)C2", "physical_data": {"Molecular Weight": "537.13", "Molecular Formula": "C30H45ClO6", "Melting Point": "290-292 \u00b0C"}}