{"cas_no": "24697-74-3", "cn_name": "\u76d0\u9178\u76ca\u6bcd\u8349\u78b1", "en_name": ["Leonurine", "Benzoic acid, 4-hydroxy-3,5-dimethoxy-, 4-[(aminoiminomethyl)amino]butyl ester", "Benzoic acid, 4-hydroxy-3,5-dimethoxy-, ester with (4-hydroxybutyl)guanidine", "Leonurine", "Guanidine, (4-hydroxybutyl)-, 4-hydroxy-3,5-dimethoxybenzoate (ester)", "Guanidine, (4-hydroxybutyl)-, 4-hydroxy-3,5-dimethoxybenzoate", "4-Hydroxy-3,5-dimethoxybenzoic acid \u03b4-guanidinobutyl ester", "Syringic acid \u03b4-guanidinobutyl ester", "[4-(4-Hydroxy-3,5-dimethoxybenzoyloxy)butyl]guanidine", "4-Guanidino-1-butanol syringate", "Leonurin", "SCM 198"], "SMILES": "C(OCCCCNC(=N)N)(=O)C1=CC(OC)=C(O)C(OC)=C1", "physical_data": {"Molecular Weight": "311.33", "Molecular Formula": "C14H21N3O5", "Melting Point": "238 \u00b0C"}}