{"cas_no": "2469-45-6", "cn_name": "\u6b63\u5341\u4e8c\u70f7\u57fa\u786b\u919a", "en_name": ["Dodecyl sulfide", "Dodecane, 1,1\u2032-thiobis-", "Dodecyl sulfide", "1,1\u2032-Thiobis[dodecane]", "Didodecyl sulfide", "Dilauryl sulfide", "n-Dodecyl sulfide", "Bis(n-dodecyl) sulfide", "Bis(dodecyl) sulfide", "Di-n-dodecyl sulfide", "NSC 12039", "1-Dodecylsulfanyldodecane"], "SMILES": "S(CCCCCCCCCCCC)CCCCCCCCCCCC", "physical_data": {"Molecular Weight": "370.72", "Molecular Formula": "C24H50S", "Melting Point": "40 \u00b0C"}}