{"cas_no": "24691-76-7", "cn_name": "\u5421\u5583\u7075", "en_name": ["Pyracarbolid", "2H-Pyran-5-carboxamide, 3,4-dihydro-6-methyl-N-phenyl-", "2H-Pyran-5-carboxanilide, 3,4-dihydro-6-methyl-", "3,4-Dihydro-6-methyl-N-phenyl-2H-pyran-5-carboxamide", "2-Methyl-5,6-dihydro-4H-pyran-3-carboxylic acid anilide", "2-Methyl-[5,6-dihydro-4H-pyran]-3-carboxanilide", "Pyracarbolid", "HOE 6053", "HOE 6052", "Sicarol", "HOE 2989", "Pirocarbolid", "Sicarol 50PM"], "SMILES": "C(NC1=CC=CC=C1)(=O)C2=C(C)OCCC2", "physical_data": {"Molecular Weight": "217.26", "Molecular Formula": "C13H15NO2", "Melting Point": "110.5 \u00b0C"}}