{"cas_no": "2469-55-8", "cn_name": "1,3-\u53cc(3-\u6c28\u57fa\u4e19\u57fa)-1,1,3,3-\u56db\u7532\u57fa\u4e8c\u7845\u6c27\u70f7", "en_name": ["3,3\u2032-(1,1,3,3-Tetramethyl-1,3-disiloxanediyl)bis[1-propanamine]", "1-Propanamine, 3,3\u2032-(1,1,3,3-tetramethyl-1,3-disiloxanediyl)bis-", "5-Oxa-4,6-disilanonane-1,9-diamine, 4,4,6,6-tetramethyl-", "3,3\u2032-(1,1,3,3-Tetramethyl-1,3-disiloxanediyl)bis[1-propanamine]", "1,3-Bis(3-aminopropyl)-1,1,3,3-tetramethyl-1,3-disiloxane", "1,3-Bis(3-aminopropyl)-1,1,3,3-tetramethyldisiloxane", "1,3-Bis(3-aminopropyl)tetramethyldisiloxane", "B 1710", "1,3-Bis(aminopropyl)-1,1,3,3-tetramethyldisiloxane", "H-PAM", "1,3-Bis(\u03b3-aminopropyl)tetramethyldisiloxane", "TSL 9306", "BY 16-871EG", "PAM-E (siloxane)", "PAM-E", "1,3-Di(3-aminopropyl)-1,1,3,3-tetramethyldisiloxane", "Bisaminopropyltetramethyldisiloxane", "GP 967", "1,9-Diamino-4,4,6,6-tetramethyl-5-oxa-4,6-disilanonane", "3,3\u2032-(1,1,3,3-Tetramethyl disiloxan-1,3-diyl) bis (propan-1-amine)", "1,3-Bis(3\u2032-aminopropyl)-1,1,3,3-tetramethyldisiloxane", "3,3\u2032-(1,1,3,3-Tetramethyldisiloxane-1,3-diyl)bis(propan-1-amine)", "3-[[3-Aminopropyl(dimethyl)silyl]oxy-dimethylsilyl]propan-1-amine", "Bis(3-aminopropyl)-1,1\u2032,3,3\u2032-tetramethyldisiloxane", "UC 603", "PC 9410", "SiDA"], "SMILES": "[Si](O[Si](CCCN)(C)C)(CCCN)(C)C", "physical_data": {"Molecular Weight": "248.51", "Molecular Formula": "C10H28N2OSi2", "Boiling Point": "132-139 \u00b0C @ Press: 11 Torr", "Density": "0.897 g/cm\u00b3 @ Temp: 25 \u00b0C"}}