{"cas_no": "24691-80-3", "cn_name": "\u7532\u544b\u9170\u80fa", "en_name": ["Fenfuram", "3-Furancarboxamide, 2-methyl-N-phenyl-", "3-Furanilide, 2-methyl-", "2-Methyl-N-phenyl-3-furancarboxamide", "Pano-ram", "Fenfuram", "Fenuram", "2-Methyl-furan-3-carboxanilide", "2-Methyl-furan-3-carboxylic acid phenylamide"], "SMILES": "C(NC1=CC=CC=C1)(=O)C2=C(C)OC=C2", "physical_data": {"Molecular Weight": "201.22", "Molecular Formula": "C12H11NO2", "Melting Point": "109.5 \u00b0C"}}