{"cas_no": "24696-26-2", "cn_name": "N-\u68d5\u6988\u9170\u795e\u7ecf\u9798\u6c28\u9187", "en_name": ["C16-Ceramide", "Hexadecanamide, N-[(1S,2R,3E)-2-hydroxy-1-(hydroxymethyl)-3-heptadecen-1-yl]-", "Hexadecanamide, N-[2-hydroxy-1-(hydroxymethyl)-3-heptadecenyl]-, [R-[R*,S*-(E)]]-", "Hexadecanamide, N-[(1S,2R,3E)-2-hydroxy-1-(hydroxymethyl)-3-heptadecenyl]-", "N-[(1S,2R,3E)-2-Hydroxy-1-(hydroxymethyl)-3-heptadecen-1-yl]hexadecanamide", "N-Palmitoylsphingosine", "N-Palmitoyl 4-sphingenine", "D-erythro-C16-Ceramide", "D-erythro-\u03944-Ceramide", "N-Palmitoyl-D-sphingosine", "(2S,3R,4E)-2-N-Palmitoyloctadecasphinga-4-ene", "N-Hexadecanoylsphingosine", "D-erythro-N-Palmitoylsphingosine", "C16-Ceramide", "D-erythro-N-Hexadecanoylsphingenine", "N-Palmitoyl-D-erythro-sphingosine", "C16-Ceramide", "N-Hexadecanoyl-D-erythro-ceramide", "C16:0-Ceramide", "N-Palmitoyl ceramide", "Ceramide 16", "Ceramide (d18:1,C16:0)", "Ceramide d18:1/16:0", "Cer(d18:1/16:0)"], "SMILES": "C(NC(CCCCCCCCCCCCCCC)=O)(C(C=CCCCCCCCCCCCCC)O)CO", "physical_data": {"Molecular Weight": "537.90", "Molecular Formula": "C34H67NO3", "Melting Point": "96.5-97.4 \u00b0C"}}