{"cas_no": "2469-99-0", "cn_name": "\u6c30\u57fa\u4e19\u916e", "en_name": ["3-Oxobutanenitrile", "Butanenitrile, 3-oxo-", "Acetoacetonitrile", "3-Oxobutanenitrile", "Cyanoacetone", "Acetylacetonitrile", "3-Oxobutyronitrile", "\u03b1-Cyanoacetone"], "SMILES": "C(C(C)=O)C#N", "physical_data": {"Molecular Weight": "83.09", "Molecular Formula": "C4H5NO", "Boiling Point": "92-94 \u00b0C @ Press: 10 Torr"}}