{"cas_no": "247092-10-0", "cn_name": "2-\u6c2f-5-\u7f9f\u57fa\u82ef\u7532\u9178\u7532\u916f", "en_name": ["Benzoic acid, 2-chloro-5-hydroxy-, methyl ester", "Benzoic acid, 2-chloro-5-hydroxy-, methyl ester", "2-Chloro-5-hydroxybenzoic acid methyl ester", "Methyl 2-chloro-5-hydroxybenzoate"], "SMILES": "C(OC)(=O)C1=C(Cl)C=CC(O)=C1", "physical_data": {"Molecular Weight": "186.59", "Molecular Formula": "C8H7ClO3", "Melting Point": "96-97 \u00b0C"}}