{"cas_no": "2470-68-0", "cn_name": "\u4e8c\u6b63\u5e9a\u80fa", "en_name": ["Diheptylamine", "1-Heptanamine, N-heptyl-", "Diheptylamine", "N-Heptyl-1-heptanamine", "NSC 79264"], "SMILES": "N(CCCCCCC)CCCCCCC", "physical_data": {"Molecular Weight": "213.40", "Molecular Formula": "C14H31N", "Boiling Point": "271 \u00b0C", "Melting Point": "31.5 \u00b0C", "Density": "0.7940 g/cm\u00b3 @ Temp: 20 \u00b0C"}}