{"cas_no": "24706-50-1", "cn_name": "3-(\u82ef\u57fa\u6c28\u57fa)\u73af\u5df1-2-\u70ef-1-\u916e", "en_name": ["3-(Phenylamino)-2-cyclohexen-1-one", "2-Cyclohexen-1-one, 3-(phenylamino)-", "2-Cyclohexen-1-one, 3-anilino-", "3-(Phenylamino)-2-cyclohexen-1-one", "3-Anilino-2-cyclohexen-1-one", "3-Phenylamino-2-cyclohexenone", "NSC 166087"], "SMILES": "N(C1=CC(=O)CCC1)C2=CC=CC=C2", "physical_data": {"Molecular Weight": "187.24", "Molecular Formula": "C12H13NO", "Melting Point": "173-174 \u00b0C"}}