{"cas_no": "24717-85-9", "cn_name": "\u60d5\u5404\u9178\u9999\u8305\u916f", "en_name": ["Citronellyl tiglate", "2-Butenoic acid, 2-methyl-, 3,7-dimethyl-6-octen-1-yl ester, (2E)-", "Crotonic acid, 2-methyl-, 3,7-dimethyl-6-octenyl ester, (E)-", "2-Butenoic acid, 2-methyl-, 3,7-dimethyl-6-octenyl ester, (E)-", "2-Butenoic acid, 2-methyl-, 3,7-dimethyl-6-octenyl ester, (2E)-", "6-Octen-1-ol, 3,7-dimethyl-, 2-methylcrotonate, (E)-", "Citronellyl tiglate", "Tiglic acid citronellyl ester"], "SMILES": "O(CCC(CCC=C(C)C)C)C(C(=CC)C)=O", "physical_data": {"Molecular Weight": "238.37", "Molecular Formula": "C15H26O2", "Boiling Point": "144-145 \u00b0C @ Press: 7 Torr", "Density": "0.9090 g/cm\u00b3 @ Temp: 15 \u00b0C"}}