{"cas_no": "247129-85-7", "cn_name": "(2-\u6eb4\u4e59\u57fa)\u4e8c\u82ef\u57fa\u950d\u4e09\u6c1f\u7532\u70f7\u78fa\u9178\u76d0", "en_name": ["Sulfonium, (2-bromoethyl)diphenyl-, 1,1,1-trifluoromethanesulfonate (1:1)", "Sulfonium, (2-bromoethyl)diphenyl-, 1,1,1-trifluoromethanesulfonate (1:1)", "Sulfonium, (2-bromoethyl)diphenyl-, salt with trifluoromethanesulfonic acid (1:1)", "(2-Bromoethyl)diphenylsulfonium trifluoromethanesulfonate", "(2-Bromoethyl)diphenylsulfonium triflate"], "SMILES": "C(S(=O)(=O)[O-])(F)(F)F.[S+](CCBr)(C1=CC=CC=C1)C2=CC=CC=C2", "physical_data": {"Molecular Weight": "", "Molecular Formula": "C14H14BrS.CF3O3S", "Melting Point": "88.5-89.5 \u00b0C"}}