{"cas_no": "2471-70-7", "cn_name": "6-\u7532\u6c27\u57fa-2-\u8418\u7532\u9178", "en_name": ["6-Methoxy-2-naphthoic acid", "2-Naphthalenecarboxylic acid, 6-methoxy-", "2-Naphthoic acid, 6-methoxy-", "6-Methoxy-2-naphthalenecarboxylic acid", "6-Methoxy-2-naphthoic acid", "2-Methoxy-6-naphthalenecarboxylic acid", "NSC 408786", "6-Methoxynaphthalen-2-carboxylic acid", "6-Methoxy-2-naphthalenic acid"], "SMILES": "C(O)(=O)C1=CC2=C(C=C(OC)C=C2)C=C1", "physical_data": {"Molecular Weight": "202.21", "Molecular Formula": "C12H10O3", "Melting Point": "209 \u00b0C"}}