{"cas_no": "2472-22-2", "cn_name": "6-\u7532\u6c27\u57fa-3,4-\u4e8c\u6c22-1H-2-\u8418\u916e", "en_name": ["6-Methoxy-2-tetralone", "2(1H)-Naphthalenone, 3,4-dihydro-6-methoxy-", "3,4-Dihydro-6-methoxy-2(1H)-naphthalenone", "3,4-Dihydro-6-methoxynaphthalen-2(1H)-one", "6-Methoxy-3,4-dihydro-2(1H)-naphthalenone", "6-Methoxy-\u03b2-tetralone", "6-Methoxy-2-tetralone", "6-Methoxy-3,4-dihydro-1H-naphthalen-2-one", "6-Methoxytetralin-2-one"], "SMILES": "O(C)C=1C=C2C(CC(=O)CC2)=CC1", "physical_data": {"Molecular Weight": "176.21", "Molecular Formula": "C11H12O2", "Boiling Point": "135 \u00b0C @ Press: 0.8 Torr", "Melting Point": "34-35 \u00b0C"}}