{"cas_no": "24730-10-7", "cn_name": "\u7532\u78fa\u9178\u53cc\u6c22\u9ea6\u89d2\u6c40", "en_name": ["Dihydroergocristine methanesulfonate", "Ergotaman-3\u2032,6\u2032,18-trione, 9,10-dihydro-12\u2032-hydroxy-2\u2032-(1-methylethyl)-5\u2032-(phenylmethyl)-, (5\u2032\u03b1,10\u03b1)-, methanesulfonate (1:1)", "Ergocristine, 9,10-dihydro-, monomethanesulfonate (salt)", "Ergotaman-3\u2032,6\u2032,18-trione, 9,10-dihydro-12\u2032-hydroxy-2\u2032-(1-methylethyl)-5\u2032-(phenylmethyl)-, (5\u2032\u03b1,10\u03b1)-, monomethanesulfonate (salt)", "Ergocristine, dihydro-, methanesulfonate", "Dihydroergocristine methanesulfonate", "Dihydroergocristine mesylate", "9,10-Dihydroergocristine methanesulfonate", "GNF Pf 3462"], "SMILES": "S(C)(=O)(=O)O.OC12N(C(CC3=CC=CC=C3)C(=O)N4C1CCC4)C(=O)C(NC(=O)C5CC6C=7C=8C(CC6N(C)C5)=CNC8C=CC7)(C(C)C)O2", "physical_data": {"Molecular Weight": "", "Molecular Formula": "C35H41N5O5.CH4O3S", "Melting Point": "210 \u00b0C"}}