{"cas_no": "24731-17-7", "cn_name": "2-\u73af\u5df1\u916e\u4e59\u9178\u4e59\u916f", "en_name": ["Cyclohexaneacetic acid, 2-oxo-, ethyl ester", "Cyclohexaneacetic acid, 2-oxo-, ethyl ester", "Ethyl 2-oxocyclohexaneacetate", "Ethyl 2-oxocyclohexylacetate", "Ethyl 2-cyclohexanoneacetate", "Ethyl 2-cyclohexenoneacetate", "Ethyl (\u00b1)-2-oxocyclohexane-1-acetate", "NSC 62116", "Ethyl 2-(2-oxocyclohexyl)acetate", "(2-Oxocyclohexyl)acetic acid ethyl ester"], "SMILES": "C(C(OCC)=O)C1C(=O)CCCC1", "physical_data": {"Molecular Weight": "184.23", "Molecular Formula": "C10H16O3", "Boiling Point": "131-133 \u00b0C @ Press: 9.8 Torr"}}