{"cas_no": "2473-03-2", "cn_name": "1-\u6c2f\u5341\u4e00\u70f7", "en_name": ["1-Chloroundecane", "Undecane, 1-chloro-", "1-Chloroundecane", "Undecyl chloride", "n-Undecyl chloride", "NSC 70016"], "SMILES": "C(CCCCCCl)CCCCC", "physical_data": {"Molecular Weight": "190.75", "Molecular Formula": "C11H23Cl", "Boiling Point": "117 \u00b0C @ Press: 16 Torr", "Density": "0.8570 g/cm\u00b3 @ Temp: 21.5 \u00b0C"}}