{"cas_no": "24731-73-5", "cn_name": "\u53cc\u4e59\u9170\u4e59\u9170\u5bf9\u82ef\u4e8c\u80fa", "en_name": ["N,N\u2032-1,4-Phenylenebis[3-oxobutanamide]", "Butanamide, N,N\u2032-1,4-phenylenebis[3-oxo-", "Acetoacetamide, N,N\u2032-p-phenylenebis-", "N,N\u2032-1,4-Phenylenebis[3-oxobutanamide]", "1,4-Bis(acetoacetylamino)benzene", "1,4-Bis(acetoacetamido)benzene", "NSC 87597", "N,N\u2032-(1,4-Phenylene)bis(acetoacetamide)", "3-Oxo-N-[4-(3-oxobutanoylamino)phenyl]butanamide"], "SMILES": "N(C(CC(C)=O)=O)C1=CC=C(NC(CC(C)=O)=O)C=C1", "physical_data": {"Molecular Weight": "276.29", "Molecular Formula": "C14H16N2O4", "Melting Point": "355 \u00b0C (decomp)"}}