{"cas_no": "2473-01-0", "cn_name": "1-\u6c2f\u4ee3\u58ec\u70f7", "en_name": ["1-Chlorononane", "Nonane, 1-chloro-", "1-Chlorononane", "Nonyl chloride", "n-Nonyl chloride"], "SMILES": "C(CCCCCl)CCCC", "physical_data": {"Molecular Weight": "162.70", "Molecular Formula": "C9H19Cl", "Boiling Point": "203.5 \u00b0C", "Melting Point": "-39.4 \u00b0C", "Density": "0.8679 g/cm\u00b3 @ Temp: 20 \u00b0C"}}