{"cas_no": "24743-14-4", "cn_name": "3-(3-\u7532\u6c27\u57fa\u82ef\u57fa)-1-\u4e19\u70ef", "en_name": ["1-Methoxy-3-(2-propen-1-yl)benzene", "Benzene, 1-methoxy-3-(2-propen-1-yl)-", "Anisole, m-allyl-", "Benzene, 1-methoxy-3-(2-propenyl)-", "1-Methoxy-3-(2-propen-1-yl)benzene", "3-Allylanisole", "m-Allylanisole", "3-(m-Methoxyphenyl)propene", "1-Allyl-3-methoxybenzene", "m-Estragole", "1-Methoxy-3-prop-2-enylbenzene"], "SMILES": "C(C=C)C1=CC(OC)=CC=C1", "physical_data": {"Molecular Weight": "148.20", "Molecular Formula": "C10H12O", "Boiling Point": "70-71 \u00b0C @ Press: 2 Torr", "Melting Point": "124-126 \u00b0C", "Density": "0.978 g/cm\u00b3 @ Temp: 20 \u00b0C"}}