{"cas_no": "2474-02-4", "cn_name": "1,7-\u4e8c\u6c2f\u516b\u7532\u57fa\u56db\u7845\u6c27\u70f7", "en_name": ["1,7-Dichlorooctamethyltetrasiloxane", "Tetrasiloxane, 1,7-dichloro-1,1,3,3,5,5,7,7-octamethyl-", "1,7-Dichloro-1,1,3,3,5,5,7,7-octamethyltetrasiloxane", "\u03b1,\u03c9-Dichlorooctamethyltetrasiloxane", "DRI-film SC 87", "SC 87", "1,7-Dichlorooctamethyltetrasiloxane", "Surfrasil", "1,1,3,3,5,5,7,7-Octamethyl-1,7-dichlorotetrasiloxane", "1,7-Dichloroctamethyltetrasiloxane", "1,3-Bis(chlorodimethylsiloxy)-1,1,3,3-tetramethyldisiloxane"], "SMILES": "O([Si](O[Si](C)(C)Cl)(C)C)[Si](O[Si](C)(C)Cl)(C)C", "physical_data": {"Molecular Weight": "351.52", "Molecular Formula": "C8H24Cl2O3Si4", "Boiling Point": "222 \u00b0C", "Melting Point": "-62 \u00b0C", "Density": "1.011 g/cm\u00b3"}}