{"cas_no": "2475-44-7", "cn_name": "\u5206\u6563\u84dd 14", "en_name": ["Disperse Blue 14", "9,10-Anthracenedione, 1,4-bis(methylamino)-", "Anthraquinone, 1,4-bis(methylamino)-", "1,4-Bis(methylamino)-9,10-anthracenedione", "C.I. 61500", "Acetate Blue B", "Artisil Blue BRP", "1,4-Bis(methylamino)anthraquinone", "Celliton Fast Blue B", "Cibacet Blue BR", "Cilla Fast Blue B", "C.I. Disperse Blue 14", "Duranol Brilliant Blue G", "Serisol Brilliant Blue G", "Supracet Fast Blue 2G", "Disperse Blue 14", "C.I. Disperse Blue 110", "Setacyl Blue BS", "1,4-Bis-N-methylamino-9,10-anthraquinone", "Resiren Blue TB", "C.I. Disperse Blue 78", "1,4-Bis(methylamino)-9,10-anthraquinone", "Macrolex Blue FR", "C.I. Solvent Blue 93", "C.I. Solvent Blue 78", "Solvent Blue 93", "Disperse Blue 78", "Disperse Blue 110", "Solvent Blue 78", "Diaresin Blue K", "Sumiplast Blue GP", "Plast Blue 8516", "Intratherm Blue P 1404", "NSC 86161", "Disperse Blue B", "KP Plast Blue G"], "SMILES": "O=C1C=2C(C(=O)C=3C1=CC=CC3)=C(NC)C=CC2NC", "physical_data": {"Molecular Weight": "266.29", "Molecular Formula": "C16H14N2O2", "Melting Point": "220 \u00b0C"}}