{"cas_no": "24758-49-4", "cn_name": "4-\u5417\u5549\u4e8c\u82ef\u7532\u916e", "en_name": ["4-Morpholinobenzophenone", "Methanone, [4-(4-morpholinyl)phenyl]phenyl-", "Benzophenone, 4-morpholino-", "[4-(4-Morpholinyl)phenyl]phenylmethanone", "4-Morpholinobenzophenone", "NSC 111168", "AMA 57", "N-(4-Benzoylphenyl)morpholine", "(4-Morpholinophenyl)(phenyl)methanone"], "SMILES": "C(=O)(C1=CC=C(C=C1)N2CCOCC2)C3=CC=CC=C3", "physical_data": {"Molecular Weight": "267.32", "Molecular Formula": "C17H17NO2", "Melting Point": "137-138 \u00b0C"}}