{"cas_no": "2475-45-8", "cn_name": "\u5206\u6563\u51701", "en_name": ["Disperse Blue 1", "9,10-Anthracenedione, 1,4,5,8-tetraamino-", "Duranol Brilliant Blue CB", "Anthraquinone, 1,4,5,8-tetraamino-", "1,4,5,8-Tetraamino-9,10-anthracenedione", "C.I. 64500", "Acetate Blue G", "Acetoquinone Blue R", "Acetylon Fast Blue G", "Amacel Blue GG", "Amacel Pure Blue B", "Artisil Blue SAP", "Brasilazet Blue GR", "Celanthrene Pure Blue BRS", "Celliton Blue G", "Celliton Blue BB-CF", "Celliton Blue Extra", "Celliton Blue GA-CF", "Cibacet Sapphire Blue G", "Cilla Blue Extra", "C.I. Disperse Blue 1", "C.I. Solvent Blue 18", "Diacelliton Fast Blue R", "Fenacet Blue G", "Grasol Blue 2GS", "Kayalon Fast Blue BR", "Microsetile Blue EB", "Miketon Fast Blue", "Miketon Fast Blue B", "Nacelan Blue G", "Neosetile Blue EB", "Nyloquinone Blue 2J", "Oracet Sapphire Blue G", "Perliton Blue B", "Serinyl Blue 2G", "Serinyl Blue 3G", "Serinyl Blue 3GN", "Setacyl Blue 2GS", "Setacyl Blue 2GS II", "Supracet Brilliant Blue 2GN", "Supracet Deep Blue R", "1,4,5,8-Tetraaminoanthraquinone", "Acetoquinone blue L", "Disperse Blue 1", "Artisil Blue SAP Conc", "1,4,5,8-Tetraamino-9,10-anthraquinone", "NSC 39936", "Akasperse Blue R", "Solvent Blue 18"], "SMILES": "O=C1C=2C(C(=O)C=3C1=C(N)C=CC3N)=C(N)C=CC2N", "physical_data": {"Molecular Weight": "268.27", "Molecular Formula": "C14H12N4O2", "Melting Point": "332 \u00b0C"}}