{"cas_no": "2476-35-9", "cn_name": "5-\u6eb4-2-\u7532\u6c27\u57fa\u82ef\u7532\u9178", "en_name": ["5-Bromo-2-methoxybenzoic acid", "Benzoic acid, 5-bromo-2-methoxy-", "o-Anisic acid, 5-bromo-", "5-Bromo-2-methoxybenzoic acid", "5-Bromo-o-anisic acid", "2-Methoxy-5-bromobenzoic acid", "Benzoic acid, 3-(bromocarbonyl)-4-methoxy-"], "SMILES": "C(O)(=O)C1=C(OC)C=CC(Br)=C1", "physical_data": {"Molecular Weight": "231.04", "Molecular Formula": "C8H7BrO3", "Melting Point": "121 \u00b0C"}}