{"cas_no": "2476-37-1", "cn_name": "2,5-\u4e8c\u6c2f\u82ef\u4e59\u916e", "en_name": ["1-(2,5-Dichlorophenyl)ethanone", "Ethanone, 1-(2,5-dichlorophenyl)-", "Acetophenone, 2\u2032,5\u2032-dichloro-", "1-(2,5-Dichlorophenyl)ethanone", "2\u2032,5\u2032-Dichloroacetophenone", "NSC 6308", "2,5-Chloroacetophenone", "1-(2,5-Dichlorophenyl)ethan-1-one"], "SMILES": "C(C)(=O)C1=C(Cl)C=CC(Cl)=C1", "physical_data": {"Molecular Weight": "189.04", "Molecular Formula": "C8H6Cl2O", "Boiling Point": "102-104 \u00b0C @ Press: 3 Torr", "Melting Point": "12 \u00b0C", "Density": "1.352 g/cm\u00b3 @ Temp: 17.54 \u00b0C"}}