{"cas_no": "24774-58-1", "cn_name": "2,5-\u4e8c\u6eb4\u5df1\u70f7", "en_name": ["2,5-Dibromohexane", "Hexane, 2,5-dibromo-", "2,5-Dibromohexane"], "SMILES": "C(CC(Br)C)C(Br)C", "physical_data": {"Molecular Weight": "243.97", "Molecular Formula": "C6H12Br2", "Boiling Point": "205-211 \u00b0C", "Melting Point": "39.1-39.4 \u00b0C"}}