{"cas_no": "24787-89-1", "cn_name": "Z-VAL-ALA-OH", "en_name": ["N-[(Phenylmethoxy)carbonyl]-L-valyl-L-alanine", "L-Alanine, N-[(phenylmethoxy)carbonyl]-L-valyl-", "Alanine, N-(N-carboxy-L-valyl)-, N-benzyl ester, L-", "L-Alanine, N-[N-[(phenylmethoxy)carbonyl]-L-valyl]-", "Alanine, N-(N-carboxy-L-valyl)-, N-benzyl ester", "N-[(Phenylmethoxy)carbonyl]-L-valyl-L-alanine", "N-(Benzyloxycarbonyl)-L-valyl-L-alanine", "Carbobenzoxy-L-valyl-L-alanine"], "SMILES": "C(C(NC(C(O)=O)C)=O)(NC(OCC1=CC=CC=C1)=O)C(C)C", "physical_data": {"Molecular Weight": "322.36", "Molecular Formula": "C16H22N2O5", "Melting Point": "165 \u00b0C"}}