{"cas_no": "24787-87-9", "cn_name": "Z-SER-ALA-OH", "en_name": ["L-Alanine, N-[(phenylmethoxy)carbonyl]-L-seryl-", "L-Alanine, N-[(phenylmethoxy)carbonyl]-L-seryl-", "Alanine, N-(N-carboxy-L-seryl)-, N-benzyl ester, L-", "L-Alanine, N-[N-[(phenylmethoxy)carbonyl]-L-seryl]-", "NSC 333744"], "SMILES": "C(C(NC(C(O)=O)C)=O)(NC(OCC1=CC=CC=C1)=O)CO", "physical_data": {"Molecular Weight": "310.30", "Molecular Formula": "C14H18N2O6", "Melting Point": "161-162 \u00b0C"}}