{"cas_no": "2478-38-8", "cn_name": "\u4e59\u9170\u4e01\u9999\u916e", "en_name": ["Acetosyringone", "Ethanone, 1-(4-hydroxy-3,5-dimethoxyphenyl)-", "Acetophenone, 4\u2032-hydroxy-3\u2032,5\u2032-dimethoxy-", "1-(4-Hydroxy-3,5-dimethoxyphenyl)ethanone", "Acetosyringone", "4\u2032-Hydroxy-3\u2032,5\u2032-dimethoxyacetophenone", "2,6-Dimethoxy-4-acetylphenol", "4-Acetyl-2,6-dimethoxyphenol", "Syringylethanone", "2,6-Dimethoxy-4-acetophenol", "3\u2032,5\u2032-Dimethoxy-4\u2032-hydroxyacetophenone", "Syringone", "4-Acetylsyringol", "4-Hydroxy-3,5-dimethoxyphenylethanone", "Acetosyringenin", "1-(4-Hydroxy-3,5-dimethoxyphenyl)ethan-1-one"], "SMILES": "O(C)C1=C(O)C(OC)=CC(C(C)=O)=C1", "physical_data": {"Molecular Weight": "196.20", "Molecular Formula": "C10H12O4", "Melting Point": "117 \u00b0C"}}