{"cas_no": "2479-47-2", "cn_name": "2,2-\u53cc(4-\u6c28\u57fa\u82ef\u57fa)\u4e19\u70f7", "en_name": ["4,4\u2032-(1-Methylethylidene)bis[benzenamine]", "Benzenamine, 4,4\u2032-(1-methylethylidene)bis-", "Aniline, 4,4\u2032-isopropylidenedi-", "4,4\u2032-(1-Methylethylidene)bis[benzenamine]", "2,2-Bis(p-aminophenyl)propane", "2,2-Bis(4-aminophenyl)propane", "4,4\u2032-Isopropylidenedianiline", "p,p\u2032-Isopropylidenedianiline", "2,2-Di(4-aminophenyl)propane", "NSC 33421", "4,4\u2032-(1-Methylethylidene)dianiline", "2,2\u2032-Bis(4-aminophenyl)propane", "4,4\u2032-(Propane-2,2-diyl)dianiline"], "SMILES": "C(C)(C)(C1=CC=C(N)C=C1)C2=CC=C(N)C=C2", "physical_data": {"Molecular Weight": "226.32", "Molecular Formula": "C15H18N2", "Boiling Point": "200-231 \u00b0C @ Press: 5.5 Torr", "Melting Point": "128.2-129.6 \u00b0C"}}