{"cas_no": "2479-46-1", "cn_name": "1,3-\u53cc(4'-\u6c28\u57fa\u82ef\u6c27\u57fa)\u82ef", "en_name": ["1,3-Bis(4-aminophenoxy)benzene", "Benzenamine, 4,4\u2032-[1,3-phenylenebis(oxy)]bis-", "Aniline, 4,4\u2032-(m-phenylenedioxy)di-", "4,4\u2032-[1,3-Phenylenebis(oxy)]bis[benzenamine]", "1,3-Phenylene bis(p-aminophenyl) ether", "1,3-Bis(4-aminophenoxy)benzene", "m-Bis(p-aminophenoxy)benzene", "4,4\u2032-(m-Phenylenedioxy)dianiline", "TPE-R", "RODA", "4,4\u2032-[1,3-Phenylenebis(oxy)]dianiline", "1,3-Bis(p-aminophenoxy)benzene", "4,4\u2032-(1,3-Phenylenedioxy)dianiline", "1,3-Bis(4\u2032-aminophenoxy)benzene", "[4-[3-(4-Aminophenoxy)phenoxy]phenyl]amine", "APB 134"], "SMILES": "O(C1=CC(OC2=CC=C(N)C=C2)=CC=C1)C3=CC=C(N)C=C3", "physical_data": {"Molecular Weight": "292.33", "Molecular Formula": "C18H16N2O2", "Melting Point": "114-116 \u00b0C"}}