{"cas_no": "24796-94-9", "cn_name": "\u6076\u55ea-1", "en_name": ["Phenoxazin-5-ium, 3,7-bis(diethylamino)-, perchlorate (1:1)", "Phenoxazin-5-ium, 3,7-bis(diethylamino)-, perchlorate (1:1)", "Phenoxazin-5-ium, 3,7-bis(diethylamino)-, perchlorate", "Oxazine 1 perchlorate", "7-(Diethylamino)-3-(ethylimino)-3H-phenoxazine ethoperchlorate", "Oxazine 725P", "Oxazine 725", "Oxazine I", "OX 725"], "SMILES": "Cl(=O)(=O)(=O)[O-].N(CC)(CC)C1=CC2=C(N=C3C(=[O+]2)C=C(N(CC)CC)C=C3)C=C1", "physical_data": {"Molecular Weight": "", "Molecular Formula": "C20H26N3O.ClO4", "Melting Point": "228-230 \u00b0C"}}