{"cas_no": "247940-06-3", "cn_name": "2-(\u4e8c\u73af\u5df1\u57fa\u81a6\u57fa)\u8054\u82ef", "en_name": ["2-(Dicyclohexylphosphino)biphenyl", "Phosphine, [1,1\u2032-biphenyl]-2-yldicyclohexyl-", "[1,1\u2032-Biphenyl]-2-yldicyclohexylphosphine", "o-(Dicyclohexylphosphino)biphenyl", "2-(Dicyclohexylphosphino)biphenyl", "Dicyclohexyl(o-biphenyl)phosphine", "(1,1\u2032-Biphenyl-2-yl)dicyclohexylphosphine", "2-(Dicyclohexylphosphino)-1,1\u2032-biphenyl", "Biphenyl-2-yldicyclohexylphosphine", "(2-Biphenyl)dicyclohexylphosphine", "Cy-JohnPhos"], "SMILES": "P(C1=C(C=CC=C1)C2=CC=CC=C2)(C3CCCCC3)C4CCCCC4", "physical_data": {"Molecular Weight": "350.48", "Molecular Formula": "C24H31P", "Melting Point": "68.9-80.9 \u00b0C"}}