{"cas_no": "2479-49-4", "cn_name": "3,3',4,4'-\u56db\u7532\u9178\u4e8c\u82ef\u7532\u916e", "en_name": ["Benzophenonetetracarboxylic acid", "1,2-Benzenedicarboxylic acid, 4,4\u2032-carbonylbis-", "Phthalic acid, 4,4\u2032-carbonyldi-", "4,4\u2032-Carbonylbis[1,2-benzenedicarboxylic acid]", "3,3\u2032,4,4\u2032-Benzophenonetetracarboxylic acid", "4,4\u2032-Carbonyldiphthalic acid", "3,3\u2032,4,4\u2032-Tetracarboxybenzophenone", "Benzophenonetetracarboxylic acid"], "SMILES": "C(=O)(C1=CC(C(O)=O)=C(C(O)=O)C=C1)C2=CC(C(O)=O)=C(C(O)=O)C=C2", "physical_data": {"Molecular Weight": "358.26", "Molecular Formula": "C17H10O9", "Melting Point": "224 \u00b0C"}}