{"cas_no": "2480-86-6", "cn_name": "4-\u7f9f\u57fa-3-\u7532\u6c27\u57fa-\u0391-\u7532\u57fa\u82ef\u7532\u9187", "en_name": ["4-Hydroxy-3-methoxy-\u03b1-methylbenzenemethanol", "Benzenemethanol, 4-hydroxy-3-methoxy-\u03b1-methyl-", "Vanillyl alcohol, \u03b1-methyl-", "4-Hydroxy-3-methoxy-\u03b1-methylbenzenemethanol", "Apocynol", "1-(4-Hydroxy-3-methoxyphenyl)ethanol", "\u03b1-Methylvanillyl alcohol", "1-(4-Hydroxy-3-methoxyphenyl)ethyl alcohol", "1-Guaiacylethanol", "4-(1-Hydroxyethyl)-2-methoxyphenol", "NSC 47035", "4-Hydroxy-3-methoxy-\u03b1-methylbenzyl alcohol"], "SMILES": "O(C)C1=CC(C(C)O)=CC=C1O", "physical_data": {"Molecular Weight": "168.19", "Molecular Formula": "C9H12O3", "Melting Point": "101 \u00b0C"}}