{"cas_no": "24807-55-4", "cn_name": "3-\u785d\u57fa-1,2,4-\u4e09\u6c2e\u5511", "en_name": ["3-Nitro-1,2,4-triazole", "1H-1,2,4-Triazole, 5-nitro-", "s-Triazole, 3-nitro-", "1H-1,2,4-Triazole, 3-nitro-", "5-Nitro-1H-1,2,4-triazole", "3-Nitro-1,2,4-triazole", "3-Nitro-1H-1,2,4-triazole", "NSC 133107", "N 0477", "3-Nitro-4H-1,2,4-triazole"], "SMILES": "N(=O)(=O)C=1NC=NN1", "physical_data": {"Molecular Weight": "114.06", "Molecular Formula": "C2H2N4O2", "Melting Point": "210 \u00b0C", "Density": "1.65 g/cm\u00b3 @ Temp: 20 \u00b0C"}}