{"cas_no": "2480-23-1", "cn_name": "N-\u7532\u57faL-\u7f2c\u6c28\u9178", "en_name": ["N-Methyl-L-valine", "L-Valine, N-methyl-", "Valine, N-methyl-, L-", "N-Methyl-L-valine", "NSC 89800", "(S)-3-Methyl-2-(methylamino)butyric acid", "(2S)-3-Methyl-2-(methylamino)butanoic acid", "(2S)-3-Methyl-2-(methylamino)butanoic acid"], "SMILES": "C(C(C)C)(C(O)=O)NC", "physical_data": {"Molecular Weight": "131.17", "Molecular Formula": "C6H13NO2", "Melting Point": "290 \u00b0C"}}