{"cas_no": "24808-04-6", "cn_name": "(-)-\u8868\u963f\u592b\u513f\u8336\u7cbe", "en_name": ["(-)-Epiafzelechin", "2H-1-Benzopyran-3,5,7-triol, 3,4-dihydro-2-(4-hydroxyphenyl)-, (2R,3R)-", "3,4\u2032,5,7-Flavantetrol, (-)-", "2H-1-Benzopyran-3,5,7-triol, 3,4-dihydro-2-(4-hydroxyphenyl)-, (2R-cis)-", "(2R,3R)-3,4-Dihydro-2-(4-hydroxyphenyl)-2H-1-benzopyran-3,5,7-triol", "Epiafzelechin, (-)-", "(-)-Epiafzelechin", "epi-Afzelechin", "(-)-epi-Afzelechin"], "SMILES": "OC1=C2C(OC(C(O)C2)C3=CC=C(O)C=C3)=CC(O)=C1", "physical_data": {"Molecular Weight": "274.27", "Molecular Formula": "C15H14O5", "Melting Point": "241 \u00b0C (decomp)"}}