{"cas_no": "24801-88-5", "cn_name": "\u5f02\u6c30\u9178\u4e19\u57fa\u4e09\u4e59\u6c27\u57fa\u7845\u70f7", "en_name": ["(3-Isocyanatopropyl)triethoxysilane", "Silane, triethoxy(3-isocyanatopropyl)-", "Isocyanic acid, 3-(triethoxysilyl)propyl ester", "Triethoxy(3-isocyanatopropyl)silane", "(\u03b3-Isocyanatopropyl)triethoxysilane", "3-(Triethoxysilyl)propyl isocyanate", "Y 9030", "\u03b3-(Triethoxysilyl)propyl isocyanate", "I 7840", "YH 9030", "KBE 9007", "1-(Triethoxysilyl)-3-isocyanatopropane", "(3-Isocyanatopropyl)triethoxysilane", "Triethoxy(\u03b3-isocyanatopropyl)silane", "Silquest A 1310", "Silane A 1310", "A 1310", "KBM 9003", "Dynasylan A 1310", "UCTI 7840KG", "Silquest A-Link 25", "UCT 7840KG", "NUC-A 1310", "KBM 9007", "A-Link 25", "3-(Isocyanopropyl)triethoxysilane", "LS 3415", "Isocyanatopropyltriethoxysilane", "Triethoxysilylpropyl isocyanate", "3-Isocyanatopropyltriethoxysilane", "SII 6455", "IPTEOS", "DB 907", "B 0062", "KH 907", "CG 907", "CG 907 (coupling agent)", "SII 6455.0", "KBE 9007A", "KBE 9007N", "USi-SL 25", "T 13", "Hongtu T 13", "T 13 (silane)", "IC 302", "Silong 9907E"], "SMILES": "[Si](CCCN=C=O)(OCC)(OCC)OCC", "physical_data": {"Molecular Weight": "247.36", "Molecular Formula": "C10H21NO4Si", "Boiling Point": "130 \u00b0C @ Press: 20 Torr", "Density": "0.990 g/cm\u00b3"}}