{"cas_no": "24800-44-0", "cn_name": "\u4e09\u4e19\u4e8c\u9187", "en_name": ["Tripropylene glycol", "Propanol, [(1-methyl-1,2-ethanediyl)bis(oxy)]bis-", "Tripropylene glycol", "[(1-Methyl-1,2-ethanediyl)bis(oxy)]bispropanol", "T 0651", "TPG-H"], "SMILES": "", "physical_data": {"Molecular Weight": "", "Molecular Formula": "C9H20O4", "Boiling Point": "271 \u00b0C", "Melting Point": "&lt;-30 \u00b0C", "Density": "1.019 g/cm\u00b3 @ Temp: 20 \u00b0C"}}