{"cas_no": "2480-26-4", "cn_name": "N-\u7532\u57fa-L-\u4e1d\u6c28\u9178", "en_name": ["N-Methyl-L-serine", "L-Serine, N-methyl-", "Serine, N-methyl-, L-", "N-Methyl-L-serine", "N-Methylserine", "N-Methyl-(S)-serine", "(S)-3-Hydroxy-2-methylaminopropionic acid", "(S)-3-Hydroxy-2(methylamino)propanoic acid", "(2S)-3-Hydroxy-2-(methylamino)propanoic acid"], "SMILES": "C(C(O)=O)(CO)NC", "physical_data": {"Molecular Weight": "119.12", "Molecular Formula": "C4H9NO3", "Melting Point": "203-204 \u00b0C (decomp)"}}