{"cas_no": "2480-96-8", "cn_name": "(2S)-2-\u6c28\u57fa-5-[(\u53d4\u4e01\u6c27\u7fb0\u57fa)\u6c28\u57fa]\u620a\u9178\u7532\u916f\u76d0\u9178\u76d0", "en_name": ["L-Ornithine, N5-[(1,1-dimethylethoxy)carbonyl]-, methyl ester, hydrochloride (1:1)", "L-Ornithine, N5-[(1,1-dimethylethoxy)carbonyl]-, methyl ester, hydrochloride (1:1)", "Ornithine, N5-carboxy-, N-tert-butyl methyl ester, hydrochloride", "Ornithine, N5-carboxy-, N-tert-butyl methyl ester, hydrochloride", "L-Ornithine, N5-[(1,1-dimethylethoxy)carbonyl]-, methyl ester, monohydrochloride", "(2S)-2-Amino-5-[(tert-butoxycarbonyl)amino]pentanoic acid methyl ester hydrochloride", "Methyl (2S)-2-amino-5-[(tert-butoxycarbonyl)amino]pentanoate hydrochloride", "N5-(tert-Butoxycarbonyl)-L-ornithine methyl ester hydrochloride"], "SMILES": "C(NCCCC(C(OC)=O)N)(OC(C)(C)C)=O.Cl", "physical_data": {"Molecular Weight": "", "Molecular Formula": "C11H22N2O4.ClH", "Melting Point": "154-155 \u00b0C"}}