{"cas_no": "24807-56-5", "cn_name": "3-\u6eb4-5-\u785d\u57fa-1,2,4-\u4e09\u5511", "en_name": ["5-Bromo-3-nitro-1H-1,2,4-triazole", "1H-1,2,4-Triazole, 5-bromo-3-nitro-", "s-Triazole, 3-bromo-5-nitro-", "1H-1,2,4-Triazole, 3-bromo-5-nitro-", "5-Bromo-3-nitro-1H-1,2,4-triazole", "3-Bromo-5-nitro-1,2,4-triazole", "5-Bromo-3-nitro-1,2,4-triazole", "3-Nitro-5-bromo-1,2,4-triazole", "NSC 370385", "3-Bromo-5-nitro-4H-1,2,4-triazole"], "SMILES": "N(=O)(=O)C=1NC(Br)=NN1", "physical_data": {"Molecular Weight": "192.96", "Molecular Formula": "C2HBrN4O2", "Melting Point": "153-154 \u00b0C"}}