{"cas_no": "24812-90-6", "cn_name": "3-\u6c28\u57fa-4-\u7532\u6c27\u57fa\u82ef\u7532\u9178\u7532\u916f", "en_name": ["Benzoic acid, 3-amino-4-methoxy-, methyl ester", "Benzoic acid, 3-amino-4-methoxy-, methyl ester", "p-Anisic acid, 3-amino-, methyl ester", "Methyl 3-amino-4-methoxybenzoate", "3-Amino-4-methoxybenzoic acid methyl ester", "Methyl 4-methoxy-3-aminobenzoate", "2-Methoxy-5-methoxycarbonylaniline"], "SMILES": "C(OC)(=O)C1=CC(N)=C(OC)C=C1", "physical_data": {"Molecular Weight": "181.19", "Molecular Formula": "C9H11NO3", "Melting Point": "83-85 \u00b0C"}}