{"cas_no": "2481-09-6", "cn_name": "S-\u53d4\u4e01\u57fa-L-\u534a\u80f1\u6c28\u9178\u76d0\u9178\u76d0", "en_name": ["L-Cysteine, S-(1,1-dimethylethyl)-, hydrochloride (1:1)", "L-Cysteine, S-(1,1-dimethylethyl)-, hydrochloride (1:1)", "Alanine, 3-(tert-butylthio)-, hydrochloride, L-", "L-Cysteine, S-(1,1-dimethylethyl)-, hydrochloride", "Alanine, 3-(tert-butylthio)-, hydrochloride", "S-tert-Butyl-L-cysteine hydrochloride", "(2R)-2-Amino-3-(tert-butylsulfanyl)propanoic acid hydrochloride"], "SMILES": "C(C(C(O)=O)N)SC(C)(C)C.Cl", "physical_data": {"Molecular Weight": "", "Molecular Formula": "C7H15NO2S.ClH", "Melting Point": "203-204 \u00b0C"}}