{"cas_no": "2481-94-9", "cn_name": "\u6eb6\u5242\u9ec4 56", "en_name": ["Solvent Yellow 56", "Benzenamine, N,N-diethyl-4-(2-phenyldiazenyl)-", "C.I. Solvent Yellow 56", "Benzenamine, N,N-diethyl-4-(phenylazo)-", "Aniline, N,N-diethyl-p-(phenylazo)-", "N,N-Diethyl-4-(2-phenyldiazenyl)benzenamine", "C.I. 11021", "Ceres Yellow GGN", "Diethyl yellow", "Oil Yellow 2635", "Oil Yellow DE", "Oil Yellow DEA", "Oil Yellow ENC", "Oil Yellow GA", "Oil Yellow NB", "Sudan Yellow GGN", "Waxoline Yellow ED", "4-(Diethylamino)azobenzene", "4-(Phenylazo)-N,N-diethylaniline", "p-(Diethylamino)azobenzene", "N,N-Diethyl-4-(phenylazo)aniline", "N,N-Diethyl-4-aminoazobenzene", "4-(N,N-Diethylamino)azobenzene", "Fat Yellow GGN", "Fast Oil Yellow 64403", "Orient Oil Yellow GGS", "Sico Fat Yellow P", "Sudan Yellow 150", "Solvent Yellow 56", "Aizen SOT Yellow 1", "SOT Yellow 1", "Orient Oil Yellow 56", "Akrodye Oil Yellow 6", "Oilsol Yellow DEA", "Oil Yellow SS Special", "NSC 102374", "Oil Yellow GE"], "SMILES": "N(CC)(CC)C1=CC=C(N=NC2=CC=CC=C2)C=C1", "physical_data": {"Molecular Weight": "253.34", "Molecular Formula": "C16H19N3", "Melting Point": "97-98 \u00b0C"}}