{"cas_no": "24815-24-5", "cn_name": "\u5229\u8840\u90a3\u660e", "en_name": ["Rescinnamine", "Yohimban-16-carboxylic acid, 11,17-dimethoxy-18-[[(2E)-1-oxo-3-(3,4,5-trimethoxyphenyl)-2-propen-1-yl]oxy]-, methyl ester, (3\u03b2,16\u03b2,17\u03b1,18\u03b2,20\u03b1)-", "Rescinnamine", "3\u03b2,20\u03b1-Yohimban-16\u03b2-carboxylic acid, 18\u03b2-hydroxy-11,17\u03b1-dimethoxy-, methyl ester, 3,4,5-trimethoxycinnamate (ester)", "Yohimban-16-carboxylic acid, 11,17-dimethoxy-18-[[(2E)-1-oxo-3-(3,4,5-trimethoxyphenyl)-2-propenyl]oxy]-, methyl ester, (3\u03b2,16\u03b2,17\u03b1,18\u03b2,20\u03b1)-", "Benz[g]indolo[2,3-a]quinolizine, yohimban-16-carboxylic acid deriv.", "Methyl trimethoxycinnamoylreserpate", "Reserpinine (C35 alkaloid)", "3,4,5-Trimethoxycinnamoyl methyl reserpate", "Anaprel", "Scinnamina", "Apoterin", "Cartric", "Cinnaloid", "Resealoid", "Rescisan", "Moderil", "Rescinnamin", "Reserpinine", "Reserpic acid methyl ester 3,4,5-trimethoxycinnamate", "O-(3,4,5-Trimethoxy-trans-cinnamoyl) methyl reserpate", "Apoterin S", "NSC 15628", "Methyl (1S,2R,3R,4aS,13bR,14aS)-2,11-dimethoxy-3-[[(E)-3-(3,4,5-trimethoxyphenyl)acryloyl]oxy]-1,2,3,4,4a,5,7,8,13,13b,14,14a-dodecahydroindolo[2\u2032,3\u2032:3,4]pyrido[1,2-b]isoquinoline-1-carboxylate"], "SMILES": "C(OC)(=O)C1C2CC3C4=C(C=5C(N4)=CC(OC)=CC5)CCN3CC2CC(OC(C=CC6=CC(OC)=C(OC)C(OC)=C6)=O)C1OC", "physical_data": {"Molecular Weight": "634.72", "Molecular Formula": "C35H42N2O9", "Melting Point": "238.5 \u00b0C"}}