{"cas_no": "2482-57-7", "cn_name": "\u6eb4\u4e01\u9187", "en_name": ["1-Bromo-2-butanol", "2-Butanol, 1-bromo-", "1-Bromo-2-butanol", "1-Bromo-2-hydroxybutane", "(\u00b1)-1-Bromo-2-butanol"], "SMILES": "C(CBr)(CC)O", "physical_data": {"Molecular Weight": "153.02", "Molecular Formula": "C4H9BrO", "Boiling Point": "56-58 \u00b0C @ Press: 11 Torr"}}