{"cas_no": "24823-81-2", "cn_name": "\u539f\u4e19\u9178\u4e09\u7532\u916f", "en_name": ["1,1,1-Trimethoxypropane", "Propane, 1,1,1-trimethoxy-", "Orthopropionic acid, trimethyl ester", "1,1,1-Trimethoxypropane", "Trimethyl orthopropionate", "Trimethyl orthopropanoate"], "SMILES": "C(CC)(OC)(OC)OC", "physical_data": {"Molecular Weight": "134.17", "Molecular Formula": "C6H14O3", "Boiling Point": "85 \u00b0C @ Press: 23 Torr"}}