{"cas_no": "2482-25-9", "cn_name": "4-\u7f9f\u57fa\u9a6c\u5c3f\u9178", "en_name": ["4-Hydroxyhippuric acid", "Glycine, N-(4-hydroxybenzoyl)-", "Hippuric acid, p-hydroxy-", "N-(4-Hydroxybenzoyl)glycine", "p-Hydroxyhippuric acid", "4-Hydroxyhippuric acid", "N-(p-Hydroxybenzoyl)glycine", "4-Hydroxybenzoylglycine", "4\u2032-Hydroxyhippuric acid", "2-[(4-Hydroxyphenyl)formamido]acetic acid", "2-[(4-Hydroxybenzoyl)amino]acetic acid", "2-(4-Hydroxybenzamido)aceticacid"], "SMILES": "C(NCC(O)=O)(=O)C1=CC=C(O)C=C1", "physical_data": {"Molecular Weight": "195.17", "Molecular Formula": "C9H9NO4", "Melting Point": "240 \u00b0C (decomp)"}}