{"cas_no": "2483-49-0", "cn_name": "N-\u53d4\u4e01\u6c27\u7fb0\u57fa-L-\u4e19\u6c28\u9178 4-\u785d\u57fa\u82ef\u916f", "en_name": ["N-[(1,1-Dimethylethoxy)carbonyl]-L-alanine 4-nitrophenyl ester", "L-Alanine, N-[(1,1-dimethylethoxy)carbonyl]-, 4-nitrophenyl ester", "Alanine, N-carboxy-, N-tert-butyl p-nitrophenyl ester, L-", "Alanine, N-carboxy-, N-tert-butyl p-nitrophenyl ester", "N-[(1,1-Dimethylethoxy)carbonyl]-L-alanine 4-nitrophenyl ester", "p-Nitrophenyl tert-butoxycarbonyl-L-alaninate", "p-Nitrophenyl N-tert-butoxycarbonyl-L-alaninate", "N-(tert-Butyloxycarbonyl)-L-alanine p-nitrophenyl ester", "p-Nitrophenyl N-tert-butyloxycarbonyl-L-alaninate", "tert-Butyloxycarbonyl-L-alanine p-nitrophenyl ester", "N-tert-Butoxycarbonyl-L-alanine p-nitrophenyl ester", "BOC-L-Alanine p-nitrophenyl ester", "(4-Nitrophenyl) (2S)-2-[(2-methylpropan-2-yl)oxycarbonylamino]propanoate"], "SMILES": "O(C(C(NC(OC(C)(C)C)=O)C)=O)C1=CC=C(N(=O)=O)C=C1", "physical_data": {"Molecular Weight": "310.30", "Molecular Formula": "C14H18N2O6", "Melting Point": "78 \u00b0C"}}