{"cas_no": "2483-57-0", "cn_name": "\u785d\u57fa\u4e59\u9178\u7532\u916f", "en_name": ["Methyl 2-nitroacetate", "Acetic acid, 2-nitro-, methyl ester", "Acetic acid, nitro-, methyl ester", "Methyl 2-nitroacetate", "Methyl nitroacetate", "Nitroacetic acid methyl ester", "Methyl \u03b1-nitroacetate", "NSC 16153"], "SMILES": "C(CN(=O)=O)(OC)=O", "physical_data": {"Molecular Weight": "119.08", "Molecular Formula": "C3H5NO4", "Boiling Point": "68 \u00b0C @ Press: 2.0 Torr", "Density": "1.3072 g/cm\u00b3 @ Temp: 20 \u00b0C"}}