{"cas_no": "2483-51-4", "cn_name": "Z-ALA-ALA-OME", "en_name": ["N-[(Phenylmethoxy)carbonyl]-L-alanyl-L-alanine methyl ester", "L-Alanine, N-[(phenylmethoxy)carbonyl]-L-alanyl-, methyl ester", "Alanine, N-(N-carboxy-L-alanyl)-, N-benzyl methyl ester, L-", "L-Alanine, N-[N-[(phenylmethoxy)carbonyl]-L-alanyl]-, methyl ester", "Alanine, N-(N-carboxy-L-alanyl)-, N-benzyl methyl ester", "N-[(Phenylmethoxy)carbonyl]-L-alanyl-L-alanine methyl ester", "N-(Benzyloxycarbonyl)-L-alanyl-L-alanine methyl ester", "Carbobenzoxy-L-alanyl-L-alanine methyl ester", "N-(Benzyloxycarbonyl)alanylalanine methyl ester", "Z-L-Ala-L-ala-OMe", "178: PN: WO2004005270 PAGE: 28-29 claimed protein"], "SMILES": "C(OC(NC(C(NC(C(OC)=O)C)=O)C)=O)C1=CC=CC=C1", "physical_data": {"Molecular Weight": "", "Molecular Formula": "C15H20N2O5", "Melting Point": "93-94 \u00b0C"}}