{"cas_no": "24830-94-2", "cn_name": "D-\u522b\u82cf\u6c28\u9178", "en_name": ["D-Allothreonine", "D-Allothreonine", "Allothreonine, D-", "D-allo-Threonine", "(R)-Allothreonine", "(R)-allo-Threonine", "(2R,3R)-Allothreonine", "NSC 206267", "(2R,3R)-3-Hydroxy-2-aminobutanoic acid", "(2R,3R)-2-Amino-3-hydroxybutanoic acid"], "SMILES": "C(C(C)O)(C(O)=O)N", "physical_data": {"Molecular Weight": "119.12", "Molecular Formula": "C4H9NO3", "Melting Point": "272-272.5 \u00b0C (decomp)"}}