{"cas_no": "2485-71-4", "cn_name": "13-\u7532\u57fa\u5341\u56db\u70f7\u9178", "en_name": ["13-Methyltetradecanoic acid", "Tetradecanoic acid, 13-methyl-", "13-Methyltetradecanoic acid", "Subtilopentadecanoic acid", "Isopentadecanoic acid", "13-Methylmyristic acid"], "SMILES": "C(CC(C)C)CCCCCCCCCC(O)=O", "physical_data": {"Molecular Weight": "242.40", "Molecular Formula": "C15H30O2", "Boiling Point": "189 \u00b0C @ Press: 12 Torr", "Melting Point": "50.2 \u00b0C"}}