{"cas_no": "24854-43-1", "cn_name": "4-\u7532\u57fa-4H-3-\u5def\u57fa-1,2,4-\u4e09\u6c2e\u5511", "en_name": ["4-Methyl-4H-1,2,4-triazole-3-thiol", "3H-1,2,4-Triazole-3-thione, 2,4-dihydro-4-methyl-", "\u03942-1,2,4-Triazoline-5-thione, 4-methyl-", "4H-1,2,4-Triazole-3-thiol, 4-methyl-", "2,4-Dihydro-4-methyl-3H-1,2,4-triazole-3-thione", "2-Mercapto-1-methyl-1,3,4-triazole", "4-Methyl-4H-1,2,4-triazole-3-thiol", "3-Mercapto-4-methyl-1,2,4-triazole", "3-Mercapto-4-methyl-4H-1,2,4-triazole", "4-Methyl-3-mercapto-1,2,4-triazole", "4-Methyl-1,2,4-triazole-3-thiol", "4-Methyl-3-mercapto-4H-1,2,4-triazole", "1-Methyl-2-mercapto-1H-1,3,4-triazole", "2-Mercapto-1-methyl-1H-[1,3,4]triazole", "4-Methyl-1,2,4-triazolethione"], "SMILES": "S=C1N(C)C=NN1", "physical_data": {"Molecular Weight": "115.16", "Molecular Formula": "C3H5N3S", "Melting Point": "163-165 \u00b0C"}}