{"cas_no": "24850-33-7", "cn_name": "\u70ef\u4e19\u57fa\u4e09\u4e01\u57fa\u9521", "en_name": ["Allyltributyltin", "Stannane, tributyl-2-propen-1-yl-", "Stannane, allyltributyl-", "Stannane, tributyl-2-propenyl-", "Tin, allyltributyl-", "Tributyl-2-propen-1-ylstannane", "Allyltributyltin", "Allyltributylstannane", "Tributylallylstannane", "Tributylallyltin", "3-Tributylstannyl-1-propene", "Allyltri-n-butylstannane", "Allyltri-n-butyltin", "3-(Tributyltin)-1-propene", "Tributyl(2-propenyl)stannane", "2-Propenyltributylstannane", "(Propen-2-yl)tributyltin", "Tri(n-butyl)allylstannane"], "SMILES": "[Sn](CCCC)(CCCC)(CCCC)CC=C", "physical_data": {"Molecular Weight": "331.12", "Molecular Formula": "C15H32Sn", "Boiling Point": "88-92 \u00b0C @ Press: 0.2 Torr", "Melting Point": "134-135 \u00b0C", "Density": "1.068 g/cm\u00b3"}}