{"cas_no": "24856-58-4", "cn_name": "4-\u6eb4\u82ef\u7532\u919b\u4e8c\u7532\u57fa\u7f29\u919b", "en_name": ["4-Bromobenzaldehyde dimethyl acetal", "Benzene, 1-bromo-4-(dimethoxymethyl)-", "Benzaldehyde, p-bromo-, dimethyl acetal", "1-Bromo-4-(dimethoxymethyl)benzene", "p-Bromobenzaldehyde dimethyl acetal", "4-Bromobenzaldehyde dimethyl acetal"], "SMILES": "C(OC)(OC)C1=CC=C(Br)C=C1", "physical_data": {"Molecular Weight": "231.09", "Molecular Formula": "C9H11BrO2", "Boiling Point": "98 \u00b0C @ Press: 10 Torr"}}