{"cas_no": "24860-40-0", "cn_name": "2,4-\u4e8c\u6c28\u57fa-6-\u5f02\u4e19\u6c27\u57fa-1,3,5-\u4e09\u55ea", "en_name": ["6-(1-Methylethoxy)-1,3,5-triazine-2,4-diamine", "1,3,5-Triazine-2,4-diamine, 6-(1-methylethoxy)-", "s-Triazine, 2,4-diamino-6-isopropoxy-", "6-(1-Methylethoxy)-1,3,5-triazine-2,4-diamine", "2-Isopropoxy-4,6-diamino-s-triazine", "2,4-Diamino-6-isopropoxy-s-triazine", "2,4-Diamino-6-isopropoxy-1,3,5-triazine"], "SMILES": "O(C(C)C)C=1N=C(N)N=C(N)N1", "physical_data": {"Molecular Weight": "169.18", "Molecular Formula": "C6H11N5O", "Melting Point": "172 \u00b0C"}}