{"cas_no": "2486-02-4", "cn_name": "\u6ca1\u98df\u5b50\u9178\u5f02\u620a\u916f", "en_name": ["Isoamyl gallate", "Benzoic acid, 3,4,5-trihydroxy-, 3-methylbutyl ester", "Gallic acid, isopentyl ester", "Isopentyl alcohol, gallate", "Isoamyl gallate", "Gallic acid, isoamyl ester", "Isopentyl gallate", "3-Methylbutyl 3,4,5-trihydroxybenzoate", "Isopentyl 3,4,5-trihydroxybenzoate"], "SMILES": "C(OCCC(C)C)(=O)C1=CC(O)=C(O)C(O)=C1", "physical_data": {"Molecular Weight": "240.25", "Molecular Formula": "C12H16O5", "Melting Point": "145-146 \u00b0C"}}