{"cas_no": "2486-71-7", "cn_name": "3-\u6c2f-4-\u6c28\u57fa\u82ef\u7532\u9178", "en_name": ["4-Amino-3-chlorobenzoic acid", "Benzoic acid, 4-amino-3-chloro-", "4-Amino-3-chlorobenzoic acid", "3-Chloro-4-aminobenzoic acid", "NSC 212132"], "SMILES": "C(O)(=O)C1=CC(Cl)=C(N)C=C1", "physical_data": {"Molecular Weight": "171.58", "Molecular Formula": "C7H6ClNO2", "Melting Point": "225.5-227.0 \u00b0C"}}