{"cas_no": "2486-80-8", "cn_name": "4-\u6c28\u57fa-2-\u7532\u6c27\u57fa\u82ef\u7532\u9178", "en_name": ["4-Amino-2-methoxybenzoic acid", "Benzoic acid, 4-amino-2-methoxy-", "o-Anisic acid, 4-amino-", "4-Amino-2-methoxybenzoic acid", "2-Methoxy-4-aminobenzoic acid", "NSC 208766"], "SMILES": "O(C)C1=C(C(O)=O)C=CC(N)=C1", "physical_data": {"Molecular Weight": "167.16", "Molecular Formula": "C8H9NO3", "Melting Point": "217-218 \u00b0C"}}