{"cas_no": "2486-75-1", "cn_name": "4-\u6c28\u57fa-2-\u7532\u57fa\u82ef\u7532\u9178", "en_name": ["4-Amino-2-methylbenzoic acid", "Benzoic acid, 4-amino-2-methyl-", "o-Toluic acid, 4-amino-", "4-Amino-2-methylbenzoic acid", "2-Methyl-4-aminobenzoic acid", "2-Methyl-p-aminobenzoic acid", "NSC 49299"], "SMILES": "C(O)(=O)C1=C(C)C=C(N)C=C1", "physical_data": {"Molecular Weight": "151.16", "Molecular Formula": "C8H9NO2", "Melting Point": "158-164 \u00b0C (decomp)"}}