{"cas_no": "2486-70-6", "cn_name": "4-\u6c28\u57fa-3-\u7532\u57fa\u82ef\u7532\u9178", "en_name": ["4-Amino-3-methylbenzoic acid", "Benzoic acid, 4-amino-3-methyl-", "m-Toluic acid, 4-amino-", "4-Amino-3-methylbenzoic acid", "3-Methyl-4-aminobenzoic acid", "NSC 227945", "BTS 28369", "4-Amino-5-methylbenzoic acid"], "SMILES": "C(O)(=O)C1=CC(C)=C(N)C=C1", "physical_data": {"Molecular Weight": "151.16", "Molecular Formula": "C8H9NO2", "Melting Point": "169-170 \u00b0C"}}