{"cas_no": "2487-90-3", "cn_name": "\u4e09\u7532\u6c27\u57fa\u7845\u70f7", "en_name": ["Trimethoxysilane", "Silane, trimethoxy-", "Trimethoxysilane", "LS 330", "LMD 930", "SY 2012", "LT 160", "03MS"], "SMILES": "[SiH](OC)(OC)OC", "physical_data": {"Molecular Weight": "122.20", "Molecular Formula": "C3H10O3Si", "Boiling Point": "86-87 \u00b0C @ Press: 760 Torr", "Melting Point": "-115 \u00b0C", "Density": "0.860 g/cm\u00b3"}}