{"cas_no": "2487-40-3", "cn_name": "2-\u5def\u57fa-6-\u7f9f\u57fa\u560c\u5464", "en_name": ["2-Thioxanthine", "6H-Purin-6-one, 1,2,3,9-tetrahydro-2-thioxo-", "Xanthine, 2-thio-", "6H-Purin-6-one, 1,2,3,7-tetrahydro-2-thioxo-", "1,2,3,9-Tetrahydro-2-thioxo-6H-purin-6-one", "6-Hydroxy-2-mercaptopurine", "2-Mercapto-6-hydroxypurine", "6-Hydroxypurine-2-thiol", "2-Thioxanthine", "2-Thio-6-hydroxypurine", "2-Mercaptohypoxanthine", "2,3-Dihydro-2-thioxo-9H-purin-6(1H)-one", "NSC 36822", "NSC 680828", "2-Sulfanylidene-2,3,6,7-tetrahydro-1H-purin-6-one", "2-Thioxo-2,3-dihydro-1H-purin-6(7H)-one", "2-Sulfanyl-7H-purin-6-ol", "2-Thioxo-1,2,3,7-tetrahydro-6H-purin-6-one", "2-Mercapto-1,9-dihydro-purin-6-one", "2-Sulfanyl-1H-purin-6-ol", "2-Sulfanyl-6,7-dihydro-1H-purin-6-one", "2-Sulfanylidene-3,7-dihydropurin-6-one", "2-Sulfanyl-6,9-dihydro-1H-purin-6-one"], "SMILES": "O=C1C2=C(NC(=S)N1)N=CN2", "physical_data": {"Molecular Weight": "168.18", "Molecular Formula": "C5H4N4OS", "Melting Point": "&gt;360 \u00b0C"}}