{"cas_no": "2487-48-1", "cn_name": "\u96c4\u753e-5-\u70ef-3BETA,7BETA-\u4e8c\u9187-17-\u916e", "en_name": ["7\u03b2-Hydroxy-DHEA", "Androst-5-en-17-one, 3,7-dihydroxy-, (3\u03b2,7\u03b2)-", "Androst-5-en-17-one, 3\u03b2,7\u03b2-dihydroxy-", "(3\u03b2,7\u03b2)-3,7-Dihydroxyandrost-5-en-17-one", "Androst-5-ene-3\u03b2,7\u03b2-diol-17-one", "7\u03b2-Hydroxydehydroepiandrosterone", "3\u03b2,7\u03b2-Dihydroxy-5-androsten-17-one", "3\u03b1,7\u03b2-Hydroxyandrost-5-en-17-one", "3\u03b2,7\u03b2-Dihydroxy-5-androstene-17-one", "7-\u03b2-OH-DHEA", "7\u03b2-Hydroxy-DHEA", "Androst-5-ene-17-one-3\u03b2,7\u03b2-diol", "Androst-5-en-17-one-3\u03b2,7\u03b2-diol"], "SMILES": "CC12C3C(C4C(C)(CC3)C(=O)CC4)C(O)C=C1CC(O)CC2", "physical_data": {"Molecular Weight": "304.42", "Molecular Formula": "C19H28O3", "Melting Point": "214-216 \u00b0C"}}