{"cas_no": "2488-95-1", "cn_name": "\u0392-\u7f9f\u4e59\u57fa\u4e59\u4e8c\u80fa", "en_name": ["2,2\u2032-(1,2-Hydrazinediyl)bis[ethanol]", "Ethanol, 2,2\u2032-(1,2-hydrazinediyl)bis-", "Ethanol, 2,2\u2032-hydrazodi-", "Ethanol, 2,2\u2032-hydrazobis-", "2,2\u2032-(1,2-Hydrazinediyl)bis[ethanol]", "1,2-Bis(2-hydroxyethyl)hydrazine", "2,2\u2032-Hydrazodiethanol", "2,2\u2032-Hydrazobis[ethanol]", "NSC 38256", "2,2\u2032-(Hydrazine-1,2-diyl)diethanol", "2-[2-(2-Hydroxyethyl)hydrazinyl]ethanol", "2-[2-(2-Hydroxyethyl)hydrazin-1-yl]ethan-1-ol"], "SMILES": "N(NCCO)CCO", "physical_data": {"Molecular Weight": "120.15", "Molecular Formula": "C4H12N2O2", "Boiling Point": "171 \u00b0C", "Melting Point": "58-60 \u00b0C"}}