{"cas_no": "2488-01-9", "cn_name": "1,4-\u4e8c(\u4e8c\u7532\u57fa\u7845\u70f7\u57fa)\u82ef", "en_name": ["1,4-Bis(dimethylsilyl)benzene", "Benzene, 1,4-bis(dimethylsilyl)-", "Silane, p-phenylenebis[dimethyl-", "Silane, 1,4-phenylenebis[dimethyl-", "1,4-Bis(dimethylsilyl)benzene", "p-Phenylenebis[dimethylsilane]", "p-Bis(dimethylsilyl)benzene", "1,4-Bis(dimethylhydrogensilyl)benzene", "LS 7310", "Silphenylene C", "(4-Dimethylsilylphenyl)-dimethylsilane"], "SMILES": "[SiH](C)(C)C1=CC=C([SiH](C)C)C=C1", "physical_data": {"Molecular Weight": "194.42", "Molecular Formula": "C10H18Si2", "Boiling Point": "118 \u00b0C @ Press: 35 Torr", "Melting Point": "115 \u00b0C", "Density": "0.872 g/cm\u00b3"}}