{"cas_no": "24880-43-1", "cn_name": "\u677e\u53f6\u83ca\u78b1", "en_name": ["Mesembrine", "6H-Indol-6-one, 3a-(3,4-dimethoxyphenyl)octahydro-1-methyl-, (3aS,7aS)-", "4\u03b1,9\u03b1-Mesembrine", "6H-Indol-6-one, 3a-(3,4-dimethoxyphenyl)octahydro-1-methyl-, (3aS-cis)-", "(3aS,7aS)-3a-(3,4-Dimethoxyphenyl)octahydro-1-methyl-6H-indol-6-one", "Mesembrine", "Mesembrine, (-)-", "(-)-Mesembrine", "Mesembrin", "(-)-Mesembranone", "Mesembranone"], "SMILES": "CN1C2C(CC1)(CCC(=O)C2)C3=CC(OC)=C(OC)C=C3", "physical_data": {"Molecular Weight": "289.37", "Molecular Formula": "C17H23NO3", "Boiling Point": "186-190 \u00b0C @ Press: 0.3 Torr"}}