{"cas_no": "2489-13-6", "cn_name": "H-GLY-HIS-OH", "en_name": ["Glycyl-L-histidine", "L-Histidine, glycyl-", "Histidine, N-glycyl-, L-", "L-Histidine, N-glycyl-", "Histidine, N-glycyl-", "Glycyl-L-histidine", "Glycylhistidine", "N-Glycylhistidine", "50: PN: WO03052099 PAGE: 85 claimed protein", "141: PN: WO2011146121 PAGE: 116 claimed sequence", "(2S)-2-[(2-Aminoacetyl)amino]-3-(1H-imidazol-5-yl)propanoic acid", "(2S)-2-(2-Aminoacetamido)-3-(1H-imidazol-4-yl)propanoic acid", "5: PN: WO2020009548 SEQID: 5 claimed protein"], "SMILES": "C(CC1=CN=CN1)(NC(CN)=O)C(O)=O", "physical_data": {"Molecular Weight": "212.21", "Molecular Formula": "C8H12N4O3", "Melting Point": "130-155 \u00b0C"}}