{"cas_no": "2489-86-3", "cn_name": "1-\u70ef\u4e19\u57fa\u8418", "en_name": ["1-(2-Propen-1-yl)naphthalene", "Naphthalene, 1-(2-propen-1-yl)-", "Naphthalene, 1-allyl-", "Naphthalene, 1-(2-propenyl)-", "1-(2-Propen-1-yl)naphthalene", "\u03b1-Allylnaphthalene", "1-Allylnaphthalene", "3-(1-Naphthyl)-1-propene", "1-(Propen-2-yl)naphthalene", "1-Prop-2-enylnaphthalene"], "SMILES": "C(C=C)C=1C2=C(C=CC1)C=CC=C2", "physical_data": {"Molecular Weight": "168.23", "Molecular Formula": "C13H12", "Boiling Point": "266 \u00b0C", "Density": "1.0228 g/cm\u00b3 @ Temp: 20 \u00b0C"}}