{"cas_no": "2489-77-2", "cn_name": "\u4e09\u7532\u57fa\u786b\u8132", "en_name": ["Trimethylthiourea", "Thiourea, N,N,N\u2032-trimethyl-", "Urea, 1,1,3-trimethyl-2-thio-", "Thiourea, trimethyl-", "N,N,N\u2032-Trimethylthiourea", "Trimethylthiourea", "1,1,3-Trimethylthiourea", "1,3,3-Trimethylthiourea", "Thiate E", "Nocceler TMU", "Sanceler TMU", "NSC 153385", "Thiate EF 2"], "SMILES": "C(N(C)C)(NC)=S", "physical_data": {"Molecular Weight": "118.20", "Molecular Formula": "C4H10N2S", "Melting Point": "87-88 \u00b0C"}}