{"cas_no": "2490-97-3", "cn_name": "\u4e59\u9170\u8c37\u9170\u80fa", "en_name": ["Aceglutamide", "L-Glutamine, N2-acetyl-", "Glutamine, N2-acetyl-, L-", "N2-Acetyl-L-glutamine", "Acetylglutamine", "\u03b1-N-Acetyl-L-glutamine", "Aceglutamide", "Aceglutamid", "N2-Acetylglutamine", "Acutil S", "NSC 186896", "(2S)-2-Acetamido-5-amino-5-oxopentanoic acid", "(2S)-4-Carbamoyl-2-acetamidobutanoic acid"], "SMILES": "C(CCC(N)=O)(NC(C)=O)C(O)=O", "physical_data": {"Molecular Weight": "188.18", "Molecular Formula": "C7H12N2O4", "Melting Point": "197 \u00b0C", "Density": "1.382 g/cm\u00b3"}}