{"cas_no": "24909-72-6", "cn_name": "\u6cb9\u9178\u9150", "en_name": ["Oleic anhydride", "9-Octadecenoic acid (9Z)-, 1,1\u2032-anhydride", "9-Octadecenoic acid (Z)-, anhydride", "Oleic anhydride", "9-Octadecenoic acid (9Z)-, anhydride", "Oleic acid anhydride", "Oleoyl anhydride"], "SMILES": "O(C(CCCCCCCC=CCCCCCCCC)=O)C(CCCCCCCC=CCCCCCCCC)=O", "physical_data": {"Molecular Weight": "546.91", "Molecular Formula": "C36H66O3", "Melting Point": "22.2 \u00b0C"}}