{"cas_no": "24909-68-0", "cn_name": "\u4e9a\u6cb9\u9178\u9150", "en_name": ["Linoleic anhydride", "9,12-Octadecadienoic acid (9Z,12Z)-, 1,1\u2032-anhydride", "9,12-Octadecadienoic acid (Z,Z)-, anhydride", "Linoleic anhydride", "9,12-Octadecadienoic acid (9Z,12Z)-, anhydride", "Linoleic acid anhydride"], "SMILES": "O(C(CCCCCCCC=CCC=CCCCCC)=O)C(CCCCCCCC=CCC=CCCCCC)=O", "physical_data": {"Molecular Weight": "542.88", "Molecular Formula": "C36H62O3", "Melting Point": "-3--1 \u00b0C"}}