{"cas_no": "24900-79-6", "cn_name": "3-\u6c2f-4-(4-\u6c2f\u82ef\u6c27\u57fa)\u82ef\u80fa", "en_name": ["4-Amino-2,4\u2032-dichlorodiphenyl ether", "Benzenamine, 3-chloro-4-(4-chlorophenoxy)-", "Aniline, 3-chloro-4-(p-chlorophenoxy)-", "3-Chloro-4-(4-chlorophenoxy)benzenamine", "3-Chloro-4-p-chlorophenoxyaniline", "3-Chloro-4-(p-chlorophenoxy)phenylamine", "4-Amino-2-chlorophenyl p-chlorophenyl ether", "4-Amino-2,4\u2032-dichlorodiphenyl ether", "3-Chloro-4-(4-chlorophenoxy)aniline", "4-Amino-2-chlorophenyl 4-chlorophenyl ether", "2,4\u2032-Dichloro-4-aminodiphenyl ether", "NSC 14501", "NSC 151251", "[3-Chloro-4-(4-chlorophenoxy)phenyl]amine"], "SMILES": "O(C1=C(Cl)C=C(N)C=C1)C2=CC=C(Cl)C=C2", "physical_data": {"Molecular Weight": "254.11", "Molecular Formula": "C12H9Cl2NO", "Melting Point": "72-74 \u00b0C"}}