{"cas_no": "24905-87-1", "cn_name": "2-(4-\u6c28\u57fa-3-\u785d\u57fa\u82ef\u80fa)\u4e59\u9187", "en_name": ["HC Red 7", "Ethanol, 2-[(4-amino-3-nitrophenyl)amino]-", "Ethanol, 2-(4-amino-3-nitroanilino)-", "2-[(4-Amino-3-nitrophenyl)amino]ethanol", "2-Amino-5-(N-\u03b2-hydroxyethylamino)nitrobenzene", "2-Nitro-4-(\u03b2-hydroxyethylamino)aniline", "2-Amino-5-(2-hydroxyethylamino)nitrobenzene", "HC Red No. 7", "HC Red 7", "2-(4-Amino-3-nitroanilino)ethanol", "2-[(4-Amino-3-nitrophenyl)amino]ethan-1-ol"], "SMILES": "N(=O)(=O)C1=CC(NCCO)=CC=C1N", "physical_data": {"Molecular Weight": "197.19", "Molecular Formula": "C8H11N3O3", "Melting Point": "98 \u00b0C"}}