{"cas_no": "2491-38-5", "cn_name": "2-\u6eb4-4'-\u7f9f\u57fa\u82ef\u4e59\u916e", "en_name": ["2-Bromo-1-(4-hydroxyphenyl)ethanone", "Ethanone, 2-bromo-1-(4-hydroxyphenyl)-", "Acetophenone, 2-bromo-4\u2032-hydroxy-", "2-Bromo-1-(4-hydroxyphenyl)ethanone", "2-Bromo-4\u2032-hydroxyacetophenone", "Busan 90", "p-Hydroxyphenacyl bromide", "4\u2032-Hydroxy-2-bromoacetophenone", "4-Hydroxyphenacyl bromide", "\u03b1-Bromo-4\u2032-hydroxyacetophenone", "\u03b1-Bromo-p-hydroxyacetophenone", "\u03c9-Bromo-p-hydroxyacetophenone", "1-(4-Hydroxyphenyl)-2-bromoethanone", "Busan 1130", "2-Bromo-1-(4-hydroxyphenyl)ethan-1-one", "Butrol 1130"], "SMILES": "C(CBr)(=O)C1=CC=C(O)C=C1", "physical_data": {"Molecular Weight": "215.04", "Molecular Formula": "C8H7BrO2", "Melting Point": "130 \u00b0C"}}