{"cas_no": "24916-90-3", "cn_name": "\u5730\u585e\u7c73\u677e9,11-\u73af\u6c27", "en_name": ["Dexamethasone 9,11-epoxide", "Pregna-1,4-diene-3,20-dione, 9,11-epoxy-17,21-dihydroxy-16-methyl-, (9\u03b2,11\u03b2,16\u03b1)-", "9\u03b2-Pregna-1,4-diene-3,20-dione, 9,11\u03b2-epoxy-17,21-dihydroxy-16\u03b1-methyl-", "(9\u03b2,11\u03b2,16\u03b1)-9,11-Epoxy-17,21-dihydroxy-16-methylpregna-1,4-diene-3,20-dione", "Dexamethasone 9,11-epoxide", "(9b,11b,16a)-9,11-Epoxy-17,21-dihydroxy-16-methyl-pregna-1,4-diene-3,20-dione"], "SMILES": "CC12C34C(C5C(C)(CC3O4)C(C(CO)=O)(O)C(C)C5)CCC1=CC(=O)C=C2", "physical_data": {"Molecular Weight": "372.45", "Molecular Formula": "C22H28O5", "Melting Point": "238-239.5 \u00b0C"}}