{"cas_no": "2491-17-0", "cn_name": "4-(2-((\u73af\u5df1\u57fa\u4e9a\u80fa\u7532\u9170\u57fa)\u6c28\u57fa)\u4e59\u57fa)-4-\u7532\u57fa\u5417\u5549\u9393\u5bf9\u7532\u82ef\u78fa\u9178\u76d0", "en_name": ["1-Cyclohexyl-3-(2-morpholinoethyl)carbodiimide metho-p-toluenesulfonate", "Morpholinium, 4-[2-[(cyclohexylcarbonimidoyl)amino]ethyl]-4-methyl-, 4-methylbenzenesulfonate (1:1)", "Morpholinium, 4-[2-[(cyclohexylimidocarbonyl)amino]ethyl]-4-methyl-, p-toluenesulfonate", "Morpholinium, 4-[2-[(cyclohexylcarbonimidoyl)amino]ethyl]-4-methyl-, salt with 4-methylbenzenesulfonic acid (1:1)", "4-[2-[[(Cyclohexylimino)methylene]amino]ethyl]-4-methylmorpholinium p-toluenesulfonate", "N-Cyclohexyl-N\u2032-\u03b2-(4-methylmorpholinium)ethylcarbodiimide p-toluenesulfonate", "N-Cyclohexyl-N\u2032-[(N-methylmorpholinio)ethyl]carbodiimide p-toluenesulfonate", "CME-carbodiimide", "1-Cyclohexyl-3-(2-morpholinoethyl)carbodiimide metho-p-toluenesulfonate", "N-Cyclohexyl-N\u2032-[\u03b2-(4-methylmorpholinio)ethyl]carbodiimide p-toluenesulfonate", "1-Cyclohexyl-3-(2-morpholinyl-(4)-ethyl)carbodiimide metho-p-toluenesulfonate", "N-Cyclohexyl-N\u2032-\u03b2-(4-methylmorpholinium)ethylcarbodiimide p-toluenesulfonate salt", "1-Cyclohexyl-3-(2-morpholinoethyl)carbodiimide methyl-p-toluenesulfonate", "1-Cyclohexyl-3-(2-morpholinoethyl)carbodiimide metho-p-toluenesulphonate", "N-Cyclohexyl-N-[\u03b2-(4-methylmorpholinium)ethyl] carbodiimide p-toluenesulfonate", "N-Cyclohexyl-N\u2032-[\u03b2-(4-methylmorpholino)ethyl]carbodiimide p-toluenesulfonate", "1-Cyclohexyl-3-(2-morpholinethyl)carbodiimide metho-p-toluenesulfonate", "CHM", "N-Cyclohexyl-N\u2032-2-morpholinyl(4)ethylcarbodiimide methyl p-toluenesulfonate", "CMCT", "NSC 231596", "N-Cyclohexyl-N\u2032-(2-morpholinoethyl)carbodiimide methyl p-toluenesulfonate"], "SMILES": "S(=O)(=O)([O-])C1=CC=C(C)C=C1.C(CN=C=NC1CCCCC1)[N+]2(C)CCOCC2", "physical_data": {"Molecular Weight": "", "Molecular Formula": "C14H26N3O.C7H7O3S", "Melting Point": "113-115 \u00b0C"}}