{"cas_no": "2491-20-5", "cn_name": "\u4e19\u6c28\u9178\u7532\u916f\u76d0\u9178\u76d0", "en_name": ["Alanine methyl ester hydrochloride", "L-Alanine, methyl ester, hydrochloride (1:1)", "Alanine, methyl ester, hydrochloride, L-", "L-Alanine, methyl ester, hydrochloride", "Alanine methyl ester hydrochloride", "Methyl L-alaninate hydrochloride", "(S)-Alanine methyl ester hydrochloride", "Methyl alaninate hydrochloride", "L-Alanine methyl ester hydrochloride salt", "(S)-2-Aminopropionic acid methyl ester hydrochloride", "NSC 29729", "Methyl (S)-2-aminopropanoate hydrochloride", "(L)-Ala-OMe hydrochloride", "L-Alanine methyl ester hydrogen chloride", "Methyl (2S)-2-aminopropanoate hydrochloric acid", "L-Ala-OMe\u00b7HCl"], "SMILES": "C(C(C)N)(OC)=O.Cl", "physical_data": {"Molecular Weight": "", "Molecular Formula": "C4H9NO2.ClH", "Melting Point": "108 \u00b0C"}}