{"cas_no": "2491-15-8", "cn_name": "N-\u7532\u9170\u7518\u6c28\u9178", "en_name": ["Formylglycine", "Glycine, N-formyl-", "N-Formylglycine", "Formylglycine", "(Formylamino)acetic acid", "NSC 15826", "2-Formamidoacetic acid", "2-[(Hydroxymethylidene)amino]acetic acid"], "SMILES": "C(C(O)=O)NC=O", "physical_data": {"Molecular Weight": "103.08", "Molecular Formula": "C3H5NO3", "Boiling Point": "94 \u00b0C @ Press: 10 Torr", "Melting Point": "91 \u00b0C"}}