{"cas_no": "2491-36-3", "cn_name": "2-\u6eb4-2'-\u7f9f\u57fa\u82ef\u4e59\u916e", "en_name": ["2-Bromo-1-(2-hydroxyphenyl)ethanone", "Ethanone, 2-bromo-1-(2-hydroxyphenyl)-", "Acetophenone, 2-bromo-2\u2032-hydroxy-", "2-Bromo-1-(2-hydroxyphenyl)ethanone", "2-Bromo-2\u2032-hydroxyacetophenone", "\u03c9-Bromo-o-hydroxyacetophenone", "\u03b1-Bromo-2-hydroxyacetophenone", "2\u2032-Hydroxy-2-bromoacetophenone", "2-Hydroxyphenacyl bromide", "Bromomethyl 2-hydroxyphenyl ketone", "2-Bromo-1-(2-hydroxyphenyl)ethan-1-one"], "SMILES": "C(CBr)(=O)C1=C(O)C=CC=C1", "physical_data": {"Molecular Weight": "215.04", "Molecular Formula": "C8H7BrO2", "Boiling Point": "152-158 \u00b0C @ Press: 18 Torr", "Melting Point": "70-71 \u00b0C"}}