{"cas_no": "24916-51-6", "cn_name": "\u4e59\u9170\u87ba\u65cb\u9709\u7d20", "en_name": ["Spiramycin II", "Leucomycin V, 9-O-[(2R,5S,6R)-5-(dimethylamino)tetrahydro-6-methyl-2H-pyran-2-yl]-, 3-acetate", "Spiramycin B", "Leucomycin V, 9-O-[5-(dimethylamino)tetrahydro-6-methyl-2H-pyran-2-yl]-, 3-acetate, [9(2R,5S,6R)]-", "Spiramycin II", "Oxacyclohexadecane, leucomycin V deriv.", "Acetylspiramycin", "Foromacidine B", "Foromacidin B", "Spiramycin 2"], "SMILES": "O(C1C(OC)C(OC(C)=O)CC(=O)OC(C)CC=CC=CC(OC2OC(C)C(N(C)C)CC2)C(C)CC1CC=O)C3C(O)C(N(C)C)C(OC4CC(C)(O)C(O)C(C)O4)C(C)O3", "physical_data": {"Molecular Weight": "885.09", "Molecular Formula": "C45H76N2O15", "Melting Point": "130-133 \u00b0C"}}