{"cas_no": "24916-50-5", "cn_name": "\u87ba\u65cb\u9709\u7d20I", "en_name": ["Spiramycin I", "Leucomycin V, 9-O-[(2R,5S,6R)-5-(dimethylamino)tetrahydro-6-methyl-2H-pyran-2-yl]-", "Spiramycin A", "Leucomycin V, 9-O-[5-(dimethylamino)tetrahydro-6-methyl-2H-pyran-2-yl]-, [9(2R,5S,6R)]-", "Foromacidin A", "Oxacyclohexadecane, leucomycin V deriv.", "9-O-[(2R,5S,6R)-5-(Dimethylamino)tetrahydro-6-methyl-2H-pyran-2-yl]leucomycin V", "Spiramycin I", "Foromacidine A"], "SMILES": "O(C1C(CC=O)CC(C)C(OC2OC(C)C(N(C)C)CC2)C=CC=CCC(C)OC(=O)CC(O)C1OC)C3C(O)C(N(C)C)C(OC4CC(C)(O)C(O)C(C)O4)C(C)O3", "physical_data": {"Molecular Weight": "843.05", "Molecular Formula": "C43H74N2O14", "Melting Point": "134-137 \u00b0C"}}