{"cas_no": "2491-18-1", "cn_name": "L-\u86cb\u6c28\u9178\u7532\u916f\u76d0\u9178\u76d0", "en_name": ["L-Methionine, methyl ester, hydrochloride", "L-Methionine, methyl ester, hydrochloride (1:1)", "L-Methionine, methyl ester, hydrochloride", "Methionine, methyl ester, hydrochloride, L-", "Methionine methyl ester hydrochloride", "Methyl (S)-methioninate hydrochloride", "(S)-Methionine methyl ester hydrochloride", "Methyl L-methioninate hydrochloride", "NSC 522231", "(S)-2-Amino-4-methylsulfanylbutanoic acid methyl ester hydrochloride", "L-Met-OMe\u00b7HCl"], "SMILES": "C(C(OC)=O)(CCSC)N.Cl", "physical_data": {"Molecular Weight": "", "Molecular Formula": "C6H13NO2S.ClH", "Melting Point": "159-161 \u00b0C"}}