{"cas_no": "2491-32-9", "cn_name": "\u82c4\u57fa-4-\u7f9f\u57fa\u82ef\u916e", "en_name": ["1-(4-Hydroxyphenyl)-2-phenylethanone", "Ethanone, 1-(4-hydroxyphenyl)-2-phenyl-", "Acetophenone, 4\u2032-hydroxy-2-phenyl-", "1-(4-Hydroxyphenyl)-2-phenylethanone", "4-Hydroxydeoxybenzoin", "p-(Phenylacetyl)phenol", "Benzyl p-hydroxyphenyl ketone", "4\u2032-Hydroxy-2-phenylacetophenone", "Benzyl 4-hydroxyphenyl ketone", "4-Hydroxyphenyl benzyl ketone", "4-(Benzylcarbonyl)phenol", "NSC 60474", "1-(4-Hydroxyphenyl)-2-phenylethan-1-one", "BTB 12517"], "SMILES": "C(CC1=CC=CC=C1)(=O)C2=CC=C(O)C=C2", "physical_data": {"Molecular Weight": "212.24", "Molecular Formula": "C14H12O2", "Melting Point": "151 \u00b0C"}}