{"cas_no": "2491-71-6", "cn_name": "4-[(4-\u6c28\u57fa\u82ef\u57fa)\u5076\u6c2e]\u82ef\u78fa\u9178\u5355\u94a0\u76d0", "en_name": ["Benzenesulfonic acid, 4-[2-(4-aminophenyl)diazenyl]-, sodium salt (1:1)", "Benzenesulfonic acid, 4-[2-(4-aminophenyl)diazenyl]-, sodium salt (1:1)", "C.I. Food Yellow 6", "C.I. Food Yellow 6, monosodium salt", "Benzenesulfonic acid, 4-[(4-aminophenyl)azo]-, monosodium salt", "Benzenesulfonic acid, p-(p-aminophenylazo)-, sodium salt", "C.I. 13011", "Acid Yellow FWA", "Hexacol Yellow RFS", "New Yellow GMF", "11648 Yellow", "Yellow RFS", "Yellow R.I.S.", "Sodium 4\u2032-aminoazobenzene-4-sulfonate", "Sodium p-(p-aminophenylazo)benzenesulfonate", "Sodium 4-(4-aminophenylazo)benzenesulfonate", "C.I. 13010", "Food Yellow 6"], "SMILES": "N(=NC1=CC=C(N)C=C1)C2=CC=C(S(=O)(=O)O)C=C2.[Na]", "physical_data": {"Molecular Weight": "", "Molecular Formula": "C12H11N3O3S.Na", "Melting Point": "&gt;250 \u00b0C"}}