{"cas_no": "24916-52-7", "cn_name": "SPIRAMYCIN III", "en_name": ["Spiramycin III", "Leucomycin V, 9-O-[(2R,5S,6R)-5-(dimethylamino)tetrahydro-6-methyl-2H-pyran-2-yl]-, 3-propanoate", "Spiramycin C", "Leucomycin V, 9-O-[5-(dimethylamino)tetrahydro-6-methyl-2H-pyran-2-yl]-, 3-propanoate, [9(2R,5S,6R)]-", "Spiramycin III", "Oxacyclohexadecane, leucomycin V deriv.", "Foromacidine C", "Foromacidin C", "Spiramycin 3"], "SMILES": "O(C1C(OC)C(OC(CC)=O)CC(=O)OC(C)CC=CC=CC(OC2OC(C)C(N(C)C)CC2)C(C)CC1CC=O)C3C(O)C(N(C)C)C(OC4CC(C)(O)C(O)C(C)O4)C(C)O3", "physical_data": {"Molecular Weight": "899.12", "Molecular Formula": "C46H78N2O15", "Melting Point": "128-131 \u00b0C"}}