{"cas_no": "2491-74-9", "cn_name": "4'-\u785d\u57fa-4-\u4e8c\u7532\u6c28\u57fa\u5076\u6c2e\u82ef", "en_name": ["N,N-Dimethyl-4-[2-(4-nitrophenyl)diazenyl]benzenamine", "Benzenamine, N,N-dimethyl-4-[2-(4-nitrophenyl)diazenyl]-", "Aniline, N,N-dimethyl-p-[(p-nitrophenyl)azo]-", "Benzenamine, N,N-dimethyl-4-[(4-nitrophenyl)azo]-", "N,N-Dimethyl-4-[2-(4-nitrophenyl)diazenyl]benzenamine", "4\u2032-Nitro-N,N-dimethyl-4-aminoazobenzene", "p-Dimethylamino-p\u2032-nitroazobenzene", "4-(Dimethylamino)-4\u2032-nitroazobenzene", "4-Nitro-4\u2032-(dimethylamino)azobenzene", "N,N-Dimethyl-4-[(4-nitrophenyl)azo]aniline", "p-Nitrobenzeneazodimethylaniline", "4\u2032-Nitro-4-dimethylaminoazobenzene", "DAN-AB", "4-(N,N-Dimethylamino)-4\u2032-nitroazobenzene", "Disperse Orange G", "Disperse Orange SE 2FL"], "SMILES": "N(C)(C)C1=CC=C(N=NC2=CC=C(N(=O)=O)C=C2)C=C1", "physical_data": {"Molecular Weight": "270.29", "Molecular Formula": "C14H14N4O2", "Melting Point": "236 \u00b0C"}}