{"cas_no": "2491-37-4", "cn_name": "3-(2-\u6eb4\u4e59\u9170\u57fa)\u82ef\u915a", "en_name": ["2-Bromo-1-(3-hydroxyphenyl)ethanone", "Ethanone, 2-bromo-1-(3-hydroxyphenyl)-", "2-Bromo-1-(3-hydroxyphenyl)ethanone", "m-Bromoacetylphenol", "\u03c9-Bromo-m-hydroxyacetophenone", "3-Hydroxyphenacyl bromide", "2-Bromo-3\u2032-hydroxyacetophenone", "\u03b1-Bromo-3-hydroxyacetophenone", "2-Bromo-1-(3-hydroxyphenyl)ethan-1-one"], "SMILES": "C(CBr)(=O)C1=CC(O)=CC=C1", "physical_data": {"Molecular Weight": "215.04", "Molecular Formula": "C8H7BrO2", "Melting Point": "70-72 \u00b0C"}}