{"cas_no": "2491-06-7", "cn_name": "N,N-\u4e8c\u7532\u57fa\u7518\u6c28\u9178\u76d0\u9178\u76d0", "en_name": ["Dimethylglycine hydrochloride", "Glycine, N,N-dimethyl-, hydrochloride (1:1)", "Glycine, N,N-dimethyl-, hydrochloride", "N,N-Dimethylglycine hydrochloride", "(Dimethylamino)acetic acid hydrochloride", "Dimethylglycine hydrochloride", "N,N-Dimethylaminoacetic acid hydrochloric acid", "2-(Dimethylamino)acetic acid hydrochloride", "N,N-Dimethylglycine monohydrochloride", "(Carboxymethyl)dimethylazanium chloride"], "SMILES": "C(C(O)=O)N(C)C.Cl", "physical_data": {"Molecular Weight": "", "Molecular Formula": "C4H9NO2.ClH", "Melting Point": "189-190 \u00b0C"}}