{"cas_no": "24922-02-9", "cn_name": "3-\u73af\u4e19\u57fa-3-\u7fb0\u57fa-\u4e19\u9178\u4e59\u916f", "en_name": ["Ethyl 3-cyclopropyl-3-oxopropanoate", "Cyclopropanepropanoic acid, \u03b2-oxo-, ethyl ester", "Cyclopropanepropionic acid, \u03b2-oxo-, ethyl ester", "Carbethoxymethyl cyclopropyl ketone", "Ethyl 3-cyclopropyl-3-oxopropionate", "Ethyl \u03b2-cyclopropyl-\u03b2-ketopropionate", "Ethyl 3-cyclopropyl-3-oxopropanoate", "NSC 97121"], "SMILES": "C(CC(OCC)=O)(=O)C1CC1", "physical_data": {"Molecular Weight": "156.18", "Molecular Formula": "C8H12O3", "Boiling Point": "99-101 \u00b0C @ Press: 11 Torr"}}