{"cas_no": "2492-23-1", "cn_name": "(2,4-\u4e8c\u6c2f\u82c4\u57fa)\u4e09\u82ef\u57fa\u6c2f\u5316\u81a6", "en_name": ["Phosphonium, [(2,4-dichlorophenyl)methyl]triphenyl-, chloride (1:1)", "Phosphonium, [(2,4-dichlorophenyl)methyl]triphenyl-, chloride (1:1)", "Phosphonium, (2,4-dichlorobenzyl)triphenyl-, chloride", "Phosphonium, [(2,4-dichlorophenyl)methyl]triphenyl-, chloride", "(2,4-Dichlorobenzyl)triphenylphosphonium chloride", "NSC 124000"], "SMILES": "[P+](CC1=C(Cl)C=C(Cl)C=C1)(C2=CC=CC=C2)(C3=CC=CC=C3)C4=CC=CC=C4.[Cl-]", "physical_data": {"Molecular Weight": "", "Molecular Formula": "C25H20Cl2P.Cl", "Melting Point": "246-249 \u00b0C"}}