{"cas_no": "2492-26-4", "cn_name": "\u5def\u57fa\u82ef\u5e76\u567b\u5511\u94a0", "en_name": ["2-Mercaptobenzothiazole sodium salt", "2(3H)-Benzothiazolethione, sodium salt (1:1)", "2(3H)-Benzothiazolethione, sodium salt", "Sodium, (2-benzothiazolylthio)-", "Benzothiazole, 2-mercapto-, sodium deriv.", "Duodex", "2-Mercaptobenzothiazole sodium salt", "Sodium 2-mercaptobenzothiazole", "Sodium 2-benzothiazolethiolate", "Nacap", "Sodium 2-benzothiazolethioate", "Sodium 2-mercaptobenzothiazolate", "2-Benzothiazolethiol sodium salt", "Sodium MBT", "Sanbit N-G", "Sodium 2-benzothiazolylthiolate", "Norust GL 50", "Sodium 2(3H)-benzothiazolethione", "1,3-Benzothiazol-2-ylsulfanylsodium", "Sodium 2-mercaptobenzothiolate"], "SMILES": "S=C1NC=2C(S1)=CC=CC2.[Na]", "physical_data": {"Molecular Weight": "", "Molecular Formula": "C7H5NS2.Na", "Melting Point": "&gt;300 \u00b0C"}}