{"cas_no": "249296-44-4", "cn_name": "\u4f10\u4f26\u514b\u6797", "en_name": ["Varenicline", "6,10-Methano-6H-pyrazino[2,3-h][3]benzazepine, 7,8,9,10-tetrahydro-", "7,8,9,10-Tetrahydro-6,10-methano-6H-pyrazino[2,3-h][3]benzazepine", "CP 526555", "Varenicline", "Chantix", "Champix", "MeSH ID: D000068580"], "SMILES": "C1=2C(C3CC1CNC3)=CC=4C(C2)=NC=CN4", "physical_data": {"Molecular Weight": "211.26", "Molecular Formula": "C13H13N3", "Melting Point": "138.5 \u00b0C"}}