{"cas_no": "2492-87-7", "cn_name": "4-\u785d\u57fa\u82ef-\u0392-D-\u5421\u5583\u8461\u8404\u7cd6\u82f7", "en_name": ["p-Nitrophenyl \u03b2-D-glucopyranoside", "\u03b2-D-Glucopyranoside, 4-nitrophenyl", "Glucopyranoside, p-nitrophenyl, \u03b2-D-", "4-Nitrophenyl \u03b2-D-glucopyranoside", "p-Nitrophenyl \u03b2-glucoside", "4-Nitrophenyl \u03b2-D-glucoside", "p-Nitrophenol \u03b2-D-glucoside", "p-Nitrophenyl glucopyranoside", "p-Nitrophenyl \u03b2-D-glucopyranoside", "PNPG", "p-Nitrophenyl \u03b2-D-glucoside"], "SMILES": "O(C1C(O)C(O)C(O)C(CO)O1)C2=CC=C(N(=O)=O)C=C2", "physical_data": {"Molecular Weight": "301.25", "Molecular Formula": "C12H15NO8", "Melting Point": "165-168 \u00b0C"}}