{"cas_no": "2493-04-1", "cn_name": "5-\u785d\u57fa\u7ce0\u9187", "en_name": ["5-Nitrofurfuryl alcohol", "2-Furanmethanol, 5-nitro-", "Furfuryl alcohol, 5-nitro-", "5-Nitro-2-furanmethanol", "5-Nitrofurfuryl alcohol", "2-(Hydroxymethyl)-5-nitrofuran", "NSC 6454", "(5-Nitrofuran-2-yl)methanol"], "SMILES": "N(=O)(=O)C=1OC(CO)=CC1", "physical_data": {"Molecular Weight": "143.10", "Molecular Formula": "C5H5NO4", "Melting Point": "30-32 \u00b0C"}}