{"cas_no": "2493-84-7", "cn_name": "4-(\u8f9b\u6c27\u57fa)\u82ef\u7532\u9178", "en_name": ["Octyloxybenzoic acid", "Benzoic acid, 4-(octyloxy)-", "Benzoic acid, p-(octyloxy)-", "4-(Octyloxy)benzoic acid", "p-(n-Octyloxy)benzoic acid", "p-(Octyloxy)benzoic acid", "p-Octoxybenzoic acid", "4-n-Octyloxybenzoic acid", "p-(n-Octoxy)benzoic acid", "Octyloxybenzoic acid", "NSC 142138"], "SMILES": "O(CCCCCCCC)C1=CC=C(C(O)=O)C=C1", "physical_data": {"Molecular Weight": "250.33", "Molecular Formula": "C15H22O3", "Melting Point": "100.9 \u00b0C"}}