{"cas_no": "24939-16-0", "cn_name": "\u53cc\u53bb\u7532\u6c27\u57fa\u59dc\u9ec4\u7d20", "en_name": ["Bis(4-hydroxycinnamoyl)methane", "1,6-Heptadiene-3,5-dione, 1,7-bis(4-hydroxyphenyl)-", "1,6-Heptadiene-3,5-dione, 1,7-bis(p-hydroxyphenyl)-", "1,7-Bis(4-hydroxyphenyl)-1,6-heptadiene-3,5-dione", "p,p\u2032-Dihydroxydicinnamoylmethane", "Bis(4-hydroxycinnamoyl)methane", "Bisdemethoxycucurmin"], "SMILES": "C(=CC(CC(C=CC1=CC=C(O)C=C1)=O)=O)C2=CC=C(O)C=C2", "physical_data": {"Molecular Weight": "308.33", "Molecular Formula": "C19H16O4", "Melting Point": "218-220 \u00b0C (decomp)"}}