{"cas_no": "24935-08-8", "cn_name": "1-(2-\u6c28\u57fa-\u4e59\u57fa)-\u5421\u54af\u70f7-2-\u916e", "en_name": ["1-(2-Aminoethyl)-2-pyrrolidinone", "2-Pyrrolidinone, 1-(2-aminoethyl)-", "1-(2-Aminoethyl)-2-pyrrolidinone", "N-(\u03b2-Aminoethyl)-2-pyrrolidinone", "N-(2-Aminoethyl)-2-pyrrolidone", "N-(2-Aminoethyl)pyrrolidin-2-one", "1-(2-Aminoethyl)pyrrolidin-2-one", "[2-(2-Oxopyrrolidin-1-yl)ethyl]amine"], "SMILES": "C(CN)N1C(=O)CCC1", "physical_data": {"Molecular Weight": "128.17", "Molecular Formula": "C6H12N2O", "Boiling Point": "125-130 \u00b0C @ Press: 0.5 Torr"}}