{"cas_no": "24934-91-6", "cn_name": "\u6c2f\u7532\u78f7", "en_name": ["Chlormephos", "Phosphorodithioic acid, S-(chloromethyl) O,O-diethyl ester", "S-Chloromethyl O,O-diethyl phosphorothiolothionate", "MC 2188", "O,O-Diethyl S-(chloromethyl) dithiophosphate", "Chlormephos", "Chlormethylfos", "Dotan", "Chlormephos-ethyl"], "SMILES": "P(OCC)(OCC)(SCCl)=S", "physical_data": {"Molecular Weight": "234.70", "Molecular Formula": "C5H12ClO2PS2", "Boiling Point": "81-85 \u00b0C @ Press: 0.1 Torr", "Melting Point": "&lt;25 \u00b0C", "Density": "1.260 g/cm\u00b3 @ Temp: 20 \u00b0C"}}