{"cas_no": "24938-37-2", "cn_name": "\u805a\u4e59\u70ef\u5df1\u4e8c\u9178  \u5206\u5b50\u91cf1,000", "en_name": ["Adipic acid-ethylene glycol copolymer", "Hexanedioic acid, polymer with 1,2-ethanediol", "Adipic acid, polyester with ethylene glycol", "Ethylene glycol, ester (poly-), with adipic acid", "Ethylene glycol, polyester with adipic acid", "1,2-Ethanediol, polymer with hexanedioic acid", "Ethylene glycol-adipic acid polyester", "Adipic acid-ethylene glycol polyester", "Poly(ethylene glycol adipate)", "Ethylene glycol-adipic acid copolymer", "Adipic acid-ethylene glycol polymer", "Ethylene glycol-adipic acid polymer", "Adipic acid-ethylene glycol copolymer", "Ethylene glycol adipate polymer", "Poly(ethylene adipate)", "Ethylene glycol-hexanedioic acid copolymer", "PEGA", "Ethylene glycol-1,4-butanedicarboxylic acid copolymer", "Hexanedioic acid-ethylene glycol copolymer", "1,2-Ethanediol-adipic acid copolymer", "Adipic acid-1,2-ethanediol copolymer"], "SMILES": "C(CO)O.C(CCC(O)=O)CC(O)=O", "physical_data": {"Molecular Weight": "", "Molecular Formula": "(C6H10O4.C2H6O2)x", "Melting Point": "48 \u00b0C"}}