{"cas_no": "2493-02-9", "cn_name": "4-\u6eb4\u5f02\u6c30\u9178\u82ef\u916f", "en_name": ["4-Bromophenyl isocyanate", "Benzene, 1-bromo-4-isocyanato-", "Isocyanic acid, p-bromophenyl ester", "1-Bromo-4-isocyanatobenzene", "p-Bromocarbanil", "4-Bromophenyl isocyanate", "p-Bromophenyl isocyanate", "NSC 8037"], "SMILES": "N(=C=O)C1=CC=C(Br)C=C1", "physical_data": {"Molecular Weight": "198.02", "Molecular Formula": "C7H4BrNO", "Boiling Point": "226 \u00b0C", "Melting Point": "37-41 \u00b0C"}}