{"cas_no": "2494-56-6", "cn_name": "N-\u6b63\u4e01\u9170\u57fa\u7898\u5316\u80c6\u78b1", "en_name": ["Butyrylcholine iodide", "Ethanaminium, N,N,N-trimethyl-2-(1-oxobutoxy)-, iodide (1:1)", "Choline, iodide, butyrate", "Ethanaminium, N,N,N-trimethyl-2-(1-oxobutoxy)-, iodide", "Butyric acid, ester with choline iodide", "Butyrylcholine iodide", "Butyrocholine iodide"], "SMILES": "C([N+](C)(C)C)COC(CCC)=O.[I-]", "physical_data": {"Molecular Weight": "", "Molecular Formula": "C9H20NO2.I", "Melting Point": "89-90 \u00b0C"}}