{"cas_no": "2494-79-3", "cn_name": "4-\u6c2f-3-\u6c2f\u78fa\u9170\u57fa\u82ef\u7532\u9178", "en_name": ["4-Chloro-3-(chlorosulfonyl)benzoic acid", "Benzoic acid, 4-chloro-3-(chlorosulfonyl)-", "4-Chloro-3-(chlorosulfonyl)benzoic acid", "3-(Chlorosulfonyl)-4-chlorobenzoic acid", "3-Carboxy-6-chlorobenzenesulfonyl chloride"], "SMILES": "S(Cl)(=O)(=O)C1=CC(C(O)=O)=CC=C1Cl", "physical_data": {"Molecular Weight": "255.08", "Molecular Formula": "C7H4Cl2O4S", "Melting Point": "170-172 \u00b0C"}}