{"cas_no": "2495-35-4", "cn_name": "\u4e19\u70ef\u9178\u82c4\u916f", "en_name": ["Benzyl acrylate", "2-Propenoic acid, phenylmethyl ester", "Acrylic acid, benzyl ester", "Benzyl acrylate", "Sartomer SR 432", "SR 432", "Benzyl 2-propenoate", "NSC 20964", "Viscoat 160", "V 160", "FA-BZA", "Fancryl FA-BZA", "V 180", "A-BZ", "M 1182", "Miramer M 1182", "EM 75", "Miramer M 1182HP", "Komerate A 003"], "SMILES": "C(OC(C=C)=O)C1=CC=CC=C1", "physical_data": {"Molecular Weight": "162.19", "Molecular Formula": "C10H10O2", "Boiling Point": "94 \u00b0C @ Press: 6 Torr", "Melting Point": "214-216 \u00b0C", "Density": "1.053 g/cm\u00b3 @ Temp: 20 \u00b0C"}}