{"cas_no": "24958-42-7", "cn_name": "2-\u6eb4-5-\u82c4\u6c27\u57fa-4-\u7532\u6c27\u57fa\u82ef\u7532\u9178", "en_name": ["2-Bromo-4-methoxy-5-(phenylmethoxy)benzoic acid", "Benzoic acid, 2-bromo-4-methoxy-5-(phenylmethoxy)-", "Benzoic acid, 5-(benzyloxy)-2-bromo-4-methoxy-", "2-Bromo-4-methoxy-5-(phenylmethoxy)benzoic acid", "2-Bromo-5-benzyloxy-4-methoxybenzoic acid", "5-(Benzyloxy)-2-bromo-4-methoxybenzoic acid", "2-Bromo-4-methoxy-5-(benzyloxy)benzoic acid"], "SMILES": "O(CC1=CC=CC=C1)C2=C(OC)C=C(Br)C(C(O)=O)=C2", "physical_data": {"Molecular Weight": "337.17", "Molecular Formula": "C15H13BrO4", "Melting Point": "185 \u00b0C"}}