{"cas_no": "2495-37-6", "cn_name": "\u7532\u57fa\u4e19\u70ef\u9178\u82c4\u57fa\u916f", "en_name": ["Benzyl methacrylate", "2-Propenoic acid, 2-methyl-, phenylmethyl ester", "Methacrylic acid, benzyl ester", "Benzyl methacrylate", "Benzyl 2-methylacrylate", "Light Ester BZ", "Benzyl 2-methyl-2-propenoate", "Acryester BZ", "NSC 20970", "BzMA", "Phenylmethyl 2-methyl-2-propenoate", "Fancryl FA-BZM", "FZ-BZA", "FA-BZM", "Benzyl \u03b1-methylacrylate", "Miramer M 1183", "A 003M"], "SMILES": "C(OC(C(C)=C)=O)C1=CC=CC=C1", "physical_data": {"Molecular Weight": "176.21", "Molecular Formula": "C11H12O2", "Boiling Point": "104-106 \u00b0C @ Press: 6 Torr", "Melting Point": "&lt;25 \u00b0C", "Density": "1.0399 g/cm\u00b3 @ Temp: 204 \u00b0C"}}