{"cas_no": "2495-27-4", "cn_name": "2-\u7532\u57fa-2-\u4e19\u70ef\u9178\u5341\u516d\u70f7\u57fa\u916f", "en_name": ["Hexadecyl methacrylate", "2-Propenoic acid, 2-methyl-, hexadecyl ester", "Methacrylic acid, hexadecyl ester", "1-Hexadecanol, methacrylate", "Cetyl methacrylate", "Hexadecyl methacrylate", "Hexadecyl 2-methyl-2-propenoate", "Blemmer CMA", "Palmityl methacrylate", "n-Hexadecyl methacrylate"], "SMILES": "C(CCCCCCCCCCCCCC)COC(C(C)=C)=O", "physical_data": {"Molecular Weight": "310.51", "Molecular Formula": "C20H38O2", "Boiling Point": "190-191 \u00b0C @ Press: 5 Torr", "Density": "0.8612 g/cm\u00b3 @ Temp: 20 \u00b0C"}}