{"cas_no": "2495-39-8", "cn_name": "\u70ef\u4e19\u57fa\u78fa\u9178\u94a0", "en_name": ["Sodium allylsulfonate", "2-Propene-1-sulfonic acid, sodium salt (1:1)", "2-Propene-1-sulfonic acid, sodium salt", "Sodium allylsulfonate", "Sodium 2-propene-1-sulfonate", "Sodium 1-propene-3-sulfonate", "Allylsulfonic acid, sodium salt"], "SMILES": "C(S(=O)(=O)O)C=C.[Na]", "physical_data": {"Molecular Weight": "", "Molecular Formula": "C3H6O3S.Na", "Melting Point": "242 \u00b0C (decomp)"}}