{"cas_no": "2495-25-2", "cn_name": "2-\u7532\u57fa-2-\u4e19\u70ef\u9178\u5341\u4e09\u70f7\u57fa\u916f", "en_name": ["Tridecyl methacrylate", "2-Propenoic acid, 2-methyl-, tridecyl ester", "Methacrylic acid, tridecyl ester", "1-Tridecanol, methacrylate", "Tridecyl methacrylate", "1-Tridecyl methacrylate", "SR 493", "Light Ester TD", "SR 493D", "Acryester TD", "C 13MA", "Sarbio 6101"], "SMILES": "C(CCCCCCCCCCCC)OC(C(C)=C)=O", "physical_data": {"Molecular Weight": "268.43", "Molecular Formula": "C17H32O2", "Boiling Point": "118 \u00b0C @ Press: 1 Torr", "Density": "0.8740 g/cm\u00b3 @ Temp: 20 \u00b0C"}}