{"cas_no": "24969-06-0", "cn_name": "\u73af\u6c27\u6811\u8102", "en_name": ["Poly(epichlorohydrin)", "Oxirane, 2-(chloromethyl)-, homopolymer", "Propane, 1-chloro-2,3-epoxy-, polymers", "Oxirane, (chloromethyl)-, homopolymer", "Poly[(chloromethyl)ethylene oxide]", "Poly(epichlorohydrin)", "SD 2000", "Epichlorohydrin homopolymer", "Poly(1-chloro-2,3-epoxypropane)", "HX 102", "Sumirez KF 1D", "Sumirez Resin KF 1D", "Laproxid E 181", "E 181", "Epoxychloropropane homopolymer", "DP 5245"], "SMILES": "C(Cl)C1CO1", "physical_data": {"Molecular Weight": "", "Molecular Formula": "(C3H5ClO)x", "Melting Point": "115-120 \u00b0C", "Density": "1.315 g/cm\u00b3 @ Temp: 25 \u00b0C"}}