{"cas_no": "24964-64-5", "cn_name": "3-\u6c30\u57fa\u82ef\u7532\u919b", "en_name": ["3-Cyanobenzaldehyde", "Benzonitrile, 3-formyl-", "Isophthalaldehydonitrile", "Benzaldehyde, m-cyano-", "3-Formylbenzonitrile", "3-Cyanobenzaldehyde", "m-Cyanobenzaldehyde"], "SMILES": "C(#N)C1=CC(C=O)=CC=C1", "physical_data": {"Molecular Weight": "131.13", "Molecular Formula": "C8H5NO", "Boiling Point": "210 \u00b0C", "Melting Point": "76.5 \u00b0C"}}