{"cas_no": "24966-39-0", "cn_name": "2,6-\u4e8c\u6c2f\u82ef\u786b\u915a", "en_name": ["2,6-Dichlorobenzenethiol", "Benzenethiol, 2,6-dichloro-", "2,6-Dichlorobenzenethiol", "2,6-Dichlorothiophenol", "2,6-Dichlorophenylthiol", "2,6-Dichlorobenzene-1-thiol"], "SMILES": "SC1=C(Cl)C=CC=C1Cl", "physical_data": {"Molecular Weight": "179.07", "Molecular Formula": "C6H4Cl2S", "Melting Point": "166-168 \u00b0C"}}