{"cas_no": "24963-28-8", "cn_name": "3-\u4e59\u9170\u57fa-2-\u82ef\u5e76\u6076\u5511\u916e", "en_name": ["3-Acetyl-2(3H)-benzoxazolone", "2(3H)-Benzoxazolone, 3-acetyl-", "2-Benzoxazolinone, 3-acetyl-", "3-Acetyl-2(3H)-benzoxazolone", "3-Acetyl-2-benzoxazolinone", "3-Acetyl-3H-benzooxazol-2-one", "3-Acetyl-1,3-benzoxazol-2-one", "3-Acetylbenzo[d]oxazol-2(3H)-one", "3-Acetyl-2,3-dihydro-1,3-benzoxazol-2-one"], "SMILES": "C(C)(=O)N1C=2C(OC1=O)=CC=CC2", "physical_data": {"Molecular Weight": "177.16", "Molecular Formula": "C9H7NO3", "Melting Point": "95 \u00b0C"}}