{"cas_no": "24967-27-9", "cn_name": "N-\u4e59\u9170-2,3-\u4e8c\u8131\u6c22-2-\u8131\u6c27\u795e\u7ecf\u6c28\u9178", "en_name": ["2-Deoxy-2,3-dehydro-N-acetylneuraminic acid", "D-glycero-D-galacto-Non-2-enonic acid, 5-(acetylamino)-2,6-anhydro-3,5-dideoxy-", "D-glycero-D-galacto-Non-2-enonic acid, 5-acetamido-2,6-anhydro-3,5-dideoxy-", "5-(Acetylamino)-2,6-anhydro-3,5-dideoxy-D-glycero-D-galacto-non-2-enonic acid", "2-Deoxy-2,3-dehydro-N-acetylneuraminic acid", "Neuraminic acid, N-acetyl-2,3-didehydro-2-deoxy-", "2-Deoxy-2,3-didehydro-N-acetylneuraminic acid", "2,3-Dehydro-2-deoxy-N-acetylneuraminic acid", "DANA", "5-Acetamido-2,6-anhydro-3,5-dideoxy-D-glycero-D-galactonon-2-enonic Acid"], "SMILES": "C(C(CO)O)(O)C1C(NC(C)=O)C(O)C=C(C(O)=O)O1", "physical_data": {"Molecular Weight": "291.25", "Molecular Formula": "C11H17NO8", "Melting Point": "137.2-139.7 \u00b0C"}}