{"cas_no": "24962-75-2", "cn_name": "N-N-\u4e8c\u7532\u57fa-3-\u6c28\u57fa-4-\u7f9f\u57fa-1-\u82ef\u78fa\u9170\u80fa", "en_name": ["3-Amino-4-hydroxy-N,N-dimethylbenzenesulfonamide", "Benzenesulfonamide, 3-amino-4-hydroxy-N,N-dimethyl-", "Metanilamide, 4-hydroxy-N1,N1-dimethyl-", "1-Phenol-4-sulfonamide, 2-amino-N,N-dimethyl-", "3-Amino-4-hydroxy-N,N-dimethylbenzenesulfonamide", "3-Amino-4-hydroxy-N,N-dimethylbenzenesulphonamide", "3-Amino-4-hydroxy-N,N-dimethylbenzene-1-sulfonamide"], "SMILES": "S(N(C)C)(=O)(=O)C1=CC(N)=C(O)C=C1", "physical_data": {"Molecular Weight": "216.26", "Molecular Formula": "C8H12N2O3S", "Melting Point": "156-160 \u00b0C"}}