{"cas_no": "2497-21-4", "cn_name": "4-\u5df1\u70ef-3-\u916e", "en_name": ["4-Hexen-3-one", "4-Hexen-3-one", "2-Hexen-4-one", "Ethyl 1-propenyl ketone", "NSC 245483"], "SMILES": "C(C=CC)(CC)=O", "physical_data": {"Molecular Weight": "98.14", "Molecular Formula": "C6H10O", "Boiling Point": "138.5 \u00b0C", "Density": "0.8838 g/cm\u00b3 @ Temp: 14 \u00b0C"}}