{"cas_no": "24979-97-3", "cn_name": "\u805a\u56db\u6c22\u544b\u5583", "en_name": ["Poly(tetrahydrofuran)", "Furan, tetrahydro-, homopolymer", "Furan, tetrahydro-, polymers", "Poly(tetrahydrofuran)", "Poly(tetramethylene oxide)", "Tetramethylene oxide oligomer", "Tetrahydrofuran homopolymer", "THF homopolymer", "Poly(THF)", "Polytetramethylene glycol, MB"], "SMILES": "C1CCOC1", "physical_data": {"Molecular Weight": "", "Molecular Formula": "(C4H8O)x", "Melting Point": "38.3 \u00b0C"}}