{"cas_no": "2497-91-8", "cn_name": "2-\u6c2f-3,5-\u4e8c\u785d\u57fa\u82ef\u7532\u9178", "en_name": ["2-Chloro-3,5-dinitrobenzoic acid", "Benzoic acid, 2-chloro-3,5-dinitro-", "2-Chloro-3,5-dinitrobenzoic acid", "3,5-Dinitro-2-chlorobenzoic acid", "NSC 4538"], "SMILES": "C(O)(=O)C1=C(Cl)C(N(=O)=O)=CC(N(=O)=O)=C1", "physical_data": {"Molecular Weight": "246.56", "Molecular Formula": "C7H3ClN2O6", "Melting Point": "55 \u00b0C"}}