{"cas_no": "2497-38-3", "cn_name": "4'-\u7f9f\u57fa\u82ef\u5076\u6c2e\u57fa-4-\u7fa7\u9178\u6c34\u5408\u7269", "en_name": ["4-[(4-Hydroxyphenyl)azo]benzoic acid", "Benzoic acid, 4-[2-(4-hydroxyphenyl)diazenyl]-", "Benzoic acid, p-[(p-hydroxyphenyl)azo]-", "Benzoic acid, 4-[(4-hydroxyphenyl)azo]-", "4-[2-(4-Hydroxyphenyl)diazenyl]benzoic acid", "p-(p-Hydroxyphenylazo)benzoic acid", "4\u2032-Hydroxy-4-azobenzenecarboxylic acid", "4-Carboxy-4\u2032-hydroxyazobenzene", "p-Hydroxyazobenzene-p\u2032-carboxylic acid", "4-(p-Hydroxyphenylazo)benzoic Acid", "4-(4\u2032-Carboxyphenylazo)phenol", "4-[(4-Hydroxyphenyl)azo]benzoic acid"], "SMILES": "N(=NC1=CC=C(O)C=C1)C2=CC=C(C(O)=O)C=C2", "physical_data": {"Molecular Weight": "242.23", "Molecular Formula": "C13H10N2O3", "Melting Point": "266 \u00b0C (decomp)"}}