{"cas_no": "24974-73-0", "cn_name": "(3-\u6c2f\u82ef\u57fa)\u7532\u57fa\u78fa\u9170\u6c2f", "en_name": ["3-Chlorobenzylsulfonyl chloride", "Benzenemethanesulfonyl chloride, 3-chloro-", "\u03b1-Toluenesulfonyl chloride, m-chloro-", "3-Chlorobenzenemethanesulfonyl chloride", "m-Chlorobenzylsulfonyl chloride", "(m-Chlorophenyl)methanesulfonyl chloride", "(3-Chlorophenyl)methanesulfonyl chloride", "3-Chlorobenzylsulfonyl chloride", "(3-Chlorophenyl)methanesulfonic acid chloride"], "SMILES": "C(S(Cl)(=O)=O)C1=CC(Cl)=CC=C1", "physical_data": {"Molecular Weight": "225.09", "Molecular Formula": "C7H6Cl2O2S", "Melting Point": "72-73 \u00b0C"}}