{"cas_no": "2497-02-1", "cn_name": "N-\u4e59\u9170-L-\u7ec4\u6c28\u9178", "en_name": ["N-Acetyl-L-histidine", "L-Histidine, N-acetyl-", "Histidine, N-acetyl-, L-", "Histidine, N-acetyl-", "N-Acetyl-L-histidine", "N-Acetylhistidine", "\u03b1-N-Acetyl-L-histidine", "N2-Acetylhistidine", "WR 177589A", "N\u03b1-Acetyl-L-histidine", "N-\u03b1-Acetyl-L-histidine", "N\u03b1-Acetylhistidine", "N\u03b1-Acetyl-L-histidine", "(2S)-2-Acetamido-3-(1H-imidazol-5-yl)propanoic acid", "(S)-2-Acetamido-3-(1H-imidazol-4-yl)propanoicacid"], "SMILES": "C(CC1=CN=CN1)(NC(C)=O)C(O)=O", "physical_data": {"Molecular Weight": "197.19", "Molecular Formula": "C8H11N3O3", "Melting Point": "164-165 \u00b0C (decomp)"}}