{"cas_no": "24974-72-9", "cn_name": "3-\u6c1f\u82ef\u57fa\u7532\u70f7\u78fa\u9170\u6c2f", "en_name": ["3-Fluorobenzenemethanesulfonyl chloride", "Benzenemethanesulfonyl chloride, 3-fluoro-", "\u03b1-Toluenesulfonyl chloride, m-fluoro-", "3-Fluorobenzenemethanesulfonyl chloride", "(3-Fluorophenyl)methanesulfonyl chloride"], "SMILES": "C(S(Cl)(=O)=O)C1=CC(F)=CC=C1", "physical_data": {"Molecular Weight": "208.64", "Molecular Formula": "C7H6ClFO2S", "Melting Point": "36-38 \u00b0C"}}