{"cas_no": "2497-18-9", "cn_name": "\u4e59\u9178\u53cd-2-\u5df1\u70ef\u916f", "en_name": ["trans-2-Hexenyl acetate", "2-Hexen-1-ol, 1-acetate, (2E)-", "2-Hexen-1-ol, acetate, (E)-", "2-Hexen-1-ol, acetate, (2E)-", "trans-2-Hexenyl acetate", "(E)-2-Hexenyl acetate", "(E)-2-Hexen-1-yl acetate", "(2E)-Hexenyl acetate", "(E)-1-Acetoxy-2-hexene", "(E)-2-Hexen-1-ol acetate", "Acetic acid (E)-2-hexenyl ester"], "SMILES": "C(C=CCCC)OC(C)=O", "physical_data": {"Molecular Weight": "142.20", "Molecular Formula": "C8H14O2", "Boiling Point": "166 \u00b0C"}}