{"cas_no": "24974-74-1", "cn_name": "2-\u6eb4\u82c4\u78fa\u9170\u6c2f", "en_name": ["2-Bromobenzenemethanesulfonyl chloride", "Benzenemethanesulfonyl chloride, 2-bromo-", "\u03b1-Toluenesulfonyl chloride, o-bromo-", "2-Bromobenzenemethanesulfonyl chloride", "(2-Bromophenyl)methanesulfonyl chloride", "2-Bromobenzylsulfonyl chloride"], "SMILES": "C(S(Cl)(=O)=O)C1=C(Br)C=CC=C1", "physical_data": {"Molecular Weight": "269.54", "Molecular Formula": "C7H6BrClO2S", "Melting Point": "78-79 \u00b0C"}}