{"cas_no": "24973-59-9", "cn_name": "2,4,6-\u4e09\u53d4\u4e01\u82e5\u4e9a\u785d\u57fa\u82ef", "en_name": ["2,4,6-Tri-tert-butylnitrosobenzene", "Benzene, 1,3,5-tris(1,1-dimethylethyl)-2-nitroso-", "Benzene, 1,3,5-tri-tert-butyl-2-nitroso-", "1,3,5-Tris(1,1-dimethylethyl)-2-nitrosobenzene", "2,4,6-Tri-tert-butylnitrosobenzene", "2,4,6-Tri-tert-butyl-1-nitrosobenzene", "1,3,5-Tri-tert-butyl-2-nitrosobenzene", "1-Nitroso-2,4,6-tri-t-butylbenzene", "NSC 677542", "1,3,5-Tritert-butyl-2-nitrosobenzene"], "SMILES": "N(=O)C1=C(C(C)(C)C)C=C(C(C)(C)C)C=C1C(C)(C)C", "physical_data": {"Molecular Weight": "275.43", "Molecular Formula": "C18H29NO", "Melting Point": "167-168 \u00b0C"}}