{"cas_no": "2497-06-5", "cn_name": "\u4e59\u62cc\u78f7\u781c", "en_name": ["Disulfoton sulfone", "Phosphorodithioic acid, O,O-diethyl S-[2-(ethylsulfonyl)ethyl] ester", "O,O-Diethyl S-(2-ethylsulfonylethyl) phosphorodithioate", "Disyston sulfone", "Disulfoton sulfone", "Disulfoton dioxide", "Sulfondisulfoton"], "SMILES": "P(SCCS(CC)(=O)=O)(OCC)(OCC)=S", "physical_data": {"Molecular Weight": "306.40", "Molecular Formula": "C8H19O4PS3", "Boiling Point": "108 \u00b0C @ Press: 0.01 Torr"}}