{"cas_no": "24979-70-2", "cn_name": "\u805a\uff084-\u4e59\u57fa\u82ef\u915a\uff09", "en_name": ["Poly(4-vinylphenol)", "Phenol, 4-ethenyl-, homopolymer", "Phenol, p-vinyl-, polymers", "Poly(4-vinylphenol)", "4-Vinylphenol polymer", "Poly(p-hydroxystyrene)", "Poly(p-vinylphenol)", "p-Vinylphenol polymer", "p-Hydroxystyrene polymer", "Maruzen M", "4-Hydroxystyrene polymer", "Resin M", "Maruzen resin M", "PVP 7324", "4-Vinylphenol homopolymer", "PHP 6829", "p-Vinylphenol homopolymer", "Maruka Lyncur M", "MS 2", "MS 3", "Maruka Lyncur M-S 4", "Poly(4-hydroxyvinylbenzene)", "Poly(4-hydroxystyrene)", "Maruka Lyncur PHM-C", "Maruka Lyncur M-S 1", "SN 5773", "SN 7549", "SN 7548", "p-Hydroxystyrene homopolymer", "Maruka Lyncur M-S 3", "Maruka Lyncur M-S 2", "Maruka Lyncur M-S 2P", "Maruka Lyncur M-H 2P", "Maruka Lyncur M-S 1P", "4-Hydroxystyrene homopolymer", "Maruka Lyncur M-H 2", "PHS-PG", "PHS-NG", "VP 5000", "VP 8000", "VP 15000", "PHS 4", "Maruka Lyncur M-S 4P", "Poly(p-hydroxyvinylbenzene)", "VP 2500", "Maruka Lyncur S 1P", "Maruka Lyncur S 2P", "Maruka Lyncur PIIM-C", "Maruka Lyncur H 2P", "PHS 15E01", "VP 1500", "Maruka Lyncur S 4P", "S 4P", "Maruka Lyncur H", "Maruka Lyncur S 1", "P 8ND", "P 25ED", "PB 5E", "S 2P", "PHS 8E01", "HPS-H 10K"], "SMILES": "C(=C)C1=CC=C(O)C=C1", "physical_data": {"Molecular Weight": "", "Molecular Formula": "(C8H8O)x", "Melting Point": "170 \u00b0C", "Density": "1.16 g/cm\u00b3"}}