{"cas_no": "24973-22-6", "cn_name": "3-\u7532\u6c27\u57fa-4-\u7532\u57fa\u82ef\u7532\u919b", "en_name": ["3-Methoxy-4-methylbenzaldehyde", "Benzaldehyde, 3-methoxy-4-methyl-", "m-Anisaldehyde, 4-methyl-", "3-Methoxy-4-methylbenzaldehyde", "3-Methoxy-p-tolualdehyde"], "SMILES": "O(C)C1=CC(C=O)=CC=C1C", "physical_data": {"Molecular Weight": "150.17", "Molecular Formula": "C9H10O2", "Melting Point": "45-46 \u00b0C"}}