{"cas_no": "24985-85-1", "cn_name": "5-\u7f9f\u57fa\u5432\u54da-2-\u7532\u9178\u4e59\u916f", "en_name": ["Ethyl 5-hydroxy-1H-indole-2-carboxylate", "1H-Indole-2-carboxylic acid, 5-hydroxy-, ethyl ester", "Indole-2-carboxylic acid, 5-hydroxy-, ethyl ester", "Ethyl 5-hydroxy-1H-indole-2-carboxylate", "5-Hydroxyindole-2-carboxylic acid ethyl ester", "Ethyl 5-hydroxyindole-2-carboxylate", "5-Hydroxy-1H-indole-2-carboxylic acid ethyl ester"], "SMILES": "C(OCC)(=O)C1=CC=2C(N1)=CC=C(O)C2", "physical_data": {"Molecular Weight": "205.21", "Molecular Formula": "C11H11NO3", "Melting Point": "146-148 \u00b0C"}}