{"cas_no": "24980-41-4", "cn_name": "\u805a\u5df1\u5185\u916f", "en_name": ["Polycaprolactone", "2-Oxepanone, homopolymer", "2-Oxepanone, polyesters", "Poly(\u03b5-caprolactone)", "\u03b5-Caprolactone polyester", "Caprolactone polymer", "\u03b5-Caprolactone polymer", "\u03b5-Caprolactone polymers", "Caprolactone oligomer", "Caprolactone homopolymer", "\u03b5-Caprolactone homopolymer", "Poly(\u03b5-caprolactone), monomer-based", "Polycaprolactone", "6-Hexanolide homopolymer", "Poly-carprolactone", "Poly(\u03b5-caprolactone) diol", "PURAC PC-12 Corbion PCL", "Purasorb PC 17"], "SMILES": "O=C1CCCCCO1", "physical_data": {"Molecular Weight": "", "Molecular Formula": "(C6H10O2)x", "Melting Point": "50-100 \u00b0C", "Density": "1.2 g/cm\u00b3"}}