{"cas_no": "2498-66-0", "cn_name": "\u82ef\u5e76\u84bd-7,12-\u4e8c\u916e", "en_name": ["Benz[a]anthracene-7,12-dione", "Benz[a]anthracene-7,12-dione", "C.I. 59000", "1,2-Benzanthraquinone", "1,2-Benzoanthraquinone", "Sirius Yellow G", "Benzanthracene-7,12-dione", "Benz[a]anthra-7,12-quinone", "Benzanthraquinone", "Benz[a]anthracene-7,12-quinone", "1,2-Benzo-9,10-anthraquinone", "NSC 7961", "Benzo[a]anthracene-7,12-dione", "Tetraphene-7,12-dione"], "SMILES": "O=C1C2=C(C(=O)C=3C1=CC=CC3)C=CC=4C2=CC=CC4", "physical_data": {"Molecular Weight": "258.27", "Molecular Formula": "C18H10O2", "Boiling Point": "135-155 \u00b0C @ Press: 1 Torr", "Melting Point": "169-171 \u00b0C", "Density": "1.398 g/cm\u00b3"}}