{"cas_no": "2498-50-2", "cn_name": "4-\u6c28\u57fa\u82ef\u7532\u8112\u4e8c\u76d0\u9178\u76d0", "en_name": ["Benzenecarboximidamide, 4-amino-, hydrochloride (1:2)", "Benzenecarboximidamide, 4-amino-, hydrochloride (1:2)", "Benzenecarboximidamide, 4-amino-, dihydrochloride", "Benzamidine, p-amino-, dihydrochloride", "p-Aminobenzamidine dihydrochloride", "4-Aminobenzamidine dihydrochloride", "4-Amidinoaniline dihydrochloride", "SC 67235"], "SMILES": "C(=N)(N)C1=CC=C(N)C=C1.Cl", "physical_data": {"Molecular Weight": "", "Molecular Formula": "C7H9N3.2ClH", "Melting Point": "&gt;300 \u00b0C"}}