{"cas_no": "24988-36-1", "cn_name": "1,3-\u4e8c\u6eb4-4,6-\u4e8c\u7532\u6c27\u57fa\u82ef", "en_name": ["1,5-Dibromo-2,4-dimethoxybenzene", "Benzene, 1,5-dibromo-2,4-dimethoxy-", "1,5-Dibromo-2,4-dimethoxybenzene", "4,6-Dibromo-1,3-dimethoxybenzene", "1,3-Dibromo-4,6-dimethoxybenzene", "2,4-Dibromo-5-methoxyanisole"], "SMILES": "O(C)C1=CC(OC)=C(Br)C=C1Br", "physical_data": {"Molecular Weight": "295.96", "Molecular Formula": "C8H8Br2O2", "Melting Point": "141.5 \u00b0C"}}