{"cas_no": "2499-59-4", "cn_name": "\u4e19\u70ef\u9178\u6b63\u8f9b\u916f", "en_name": ["Octyl acrylate", "2-Propenoic acid, octyl ester", "Acrylic acid, octyl ester", "Octyl acrylate", "ENT 3827", "n-Octyl acrylate", "1-Octyl acrylate", "Octyl 2-propenoate", "NSC 5177", "NOAA"], "SMILES": "O(CCCCCCCC)C(C=C)=O", "physical_data": {"Molecular Weight": "184.28", "Molecular Formula": "C11H20O2", "Boiling Point": "57 \u00b0C @ Press: 0.05 Torr", "Melting Point": "81-83 \u00b0C", "Density": "0.8810 g/cm\u00b3 @ Temp: 20 \u00b0C"}}