{"cas_no": "24991-55-7", "cn_name": "\u805a\u4e59\u4e8c\u9187\u4e8c\u7532\u919a", "en_name": ["Polyethylene glycol dimethyl ether", "Poly(oxy-1,2-ethanediyl), \u03b1-methyl-\u03c9-methoxy-", "Glycols, polyethylene, dimethyl ether", "Selexol", "Polyethylene glycol dimethyl ether", "Glyme 23", "Polyoxyethylene dimethyl ether", "\u03b1-Methyl-\u03c9-methoxypolyoxyethylene", "\u03b1,\u03c9-Methoxypoly(ethylene oxide)", "Dimethoxy polyethylene glycol", "CLE 400", "U-Nox DM 1000", "U-Nox DM 200", "Nissan Unisafe MM 1000", "Nissan Unisafe MM 400", "Genosorb 300", "Varonic DM 55", "Sanfine DM 200", "Sanfine DM 1000", "Sanfine DM 400", "PEG-DME 2000", "Genosorb 175", "Carpol CLE 1000", "Carpol CLE 400", "Uniox MM 500", "MM 500", "Nissan Uniox MM 500", "Poly(ethylene oxide) dimethyl ether", "PolyDME 250", "Uniox MM 1000", "Uniox MM 2000", "Uniox MM 800", "Nissan Uniox MM 1000", "Nissan Uniox MM 2000", "Nissan Uniox MM 800", "PEG-DME", "DM 400", "MM 1000", "NHD", "NHD (solvent)", "Adeka Carpol CLE 400", "Polyglycol DME 500", "Polyglycol DME 250", "Hisolve MPM", "Genosorb 1753", "Polyglyme", "Uniox MM 550", "Nissan Uniox MM 550", "B 19504", "Uniox MM 400", "MM 400"], "SMILES": "C(COC)OC", "physical_data": {"Molecular Weight": "", "Molecular Formula": "(C2H4O)nC2H6O", "Melting Point": "53 \u00b0C"}}