{"cas_no": "2499-95-8", "cn_name": "\u4e19\u916f\u9178\u5df1\u916f", "en_name": ["Hexyl acrylate", "2-Propenoic acid, hexyl ester", "Acrylic acid, hexyl ester", "Hexyl acrylate", "n-Hexyl acrylate", "Hexyl 2-propenoate", "NSC 11786"], "SMILES": "C(OC(C=C)=O)CCCCC", "physical_data": {"Molecular Weight": "156.22", "Molecular Formula": "C9H16O2", "Boiling Point": "40 \u00b0C @ Press: 1.1 Torr", "Melting Point": "-45 \u00b0C", "Density": "0.8882 g/cm\u00b3 @ Temp: 20 \u00b0C"}}