{"cas_no": "24994-04-5", "cn_name": "5-\u5bf9\u7532\u82ef\u57fa-1H-\u56db\u6c2e\u5511", "en_name": ["5-(4-Methylphenyl)-2H-tetrazole", "2H-Tetrazole, 5-(4-methylphenyl)-", "1H-Tetrazole, 5-p-tolyl-", "1H-Tetrazole, 5-(4-methylphenyl)-", "5-(4-Methylphenyl)-2H-tetrazole", "5-p-Tolyltetrazole", "5-(p-Methylphenyl)tetrazole", "p-(Tetrazol-5-yl)toluene", "5-(4-Methylphenyl)-1H-tetrazole", "5-(4-Tolyl)-1H-tetrazole", "NSC 141938", "5-(4-Methylphenyl)tetrazole", "5-(4-Methylphenyl)-1,2,3,4-tetrazole", "5-p-Tolyl-1H-tetrazole", "5-(4\u2032-Methylphenyl)-1H-tetrazole", "5-(p-Tolyl)-2H-tetrazole"], "SMILES": "CC1=CC=C(C=C1)C=2NN=NN2", "physical_data": {"Molecular Weight": "160.18", "Molecular Formula": "C8H8N4", "Boiling Point": "40-60 \u00b0C", "Melting Point": "248 \u00b0C"}}