{"cas_no": "250-84-0", "cn_name": "\u567b\u5429[2,3-B]\u567b\u5429", "en_name": ["Thieno[2,3-b]thiophene", "Thieno[2,3-b]thiophene", "Thiophthene", "1,6-Thiophthene"], "SMILES": "C12=C(SC=C1)SC=C2", "physical_data": {"Molecular Weight": "140.23", "Molecular Formula": "C6H4S2", "Boiling Point": "102 \u00b0C @ Press: 16 Torr"}}