{"cas_no": "2500-88-1", "cn_name": "\u4e8c(\u5341\u516b\u70f7\u57fa)\u4e8c\u786b\u5316\u7269", "en_name": ["Dioctadecyl disulfide", "Disulfide, dioctadecyl", "Octadecyl disulfide", "Dioctadecyl disulfide", "Di-n-octadecyl disulfide", "Hostanox SE 10", "Bis(1-octadecyl) disulfide", "TMSE 10", "Distearyl disulfide", "NSC 12046", "1-(Octadecyldisulfanyl)octadecane"], "SMILES": "S(SCCCCCCCCCCCCCCCCCC)CCCCCCCCCCCCCCCCCC", "physical_data": {"Molecular Weight": "571.10", "Molecular Formula": "C36H74S2", "Melting Point": "~60 \u00b0C (approx)"}}