{"cas_no": "25016-12-0", "cn_name": "1,3-\u4e8c\u7532\u57fa\u5421\u5511-4-\u7532\u919b", "en_name": ["1,3-Dimethyl-1H-pyrazole-4-carboxaldehyde", "1H-Pyrazole-4-carboxaldehyde, 1,3-dimethyl-", "Pyrazole-4-carboxaldehyde, 1,3-dimethyl-", "1,3-Dimethyl-1H-pyrazole-4-carboxaldehyde", "1,3-Dimethyl-4-formylpyrazole", "1,3-Dimethylpyrazole-4-carboxaldehyde", "1,3-Dimethyl-1H-pyrazole-4-carbaldehyde", "1,3-Dimethylpyrazole-4-carbaldehyde"], "SMILES": "C(=O)C=1C(C)=NN(C)C1", "physical_data": {"Molecular Weight": "124.14", "Molecular Formula": "C6H8N2O", "Boiling Point": "98-100 \u00b0C @ Press: 760 Torr", "Melting Point": "50 \u00b0C"}}