{"cas_no": "25013-15-4", "cn_name": "\u4e59\u70ef\u57fa\u7532\u82ef", "en_name": ["Vinyltoluene", "Benzene, ethenylmethyl-", "Styrene, ar-methyl-", "Ethenylmethylbenzene", "Vinyltoluene", "Methylstyrene", "Tolylethylene", "Methyl vinyl benzene"], "SMILES": "", "physical_data": {"Molecular Weight": "", "Molecular Formula": "C9H10", "Boiling Point": "168 \u00b0C", "Melting Point": "-77 \u00b0C", "Density": "0.90-0.92 g/cm\u00b3"}}