{"cas_no": "25016-11-9", "cn_name": "1-\u7532\u57fa-1H-\u5421\u5511-4-\u7532\u919b", "en_name": ["1-Methyl-1H-pyrazole-4-carboxaldehyde", "1H-Pyrazole-4-carboxaldehyde, 1-methyl-", "Pyrazole-4-carboxaldehyde, 1-methyl-", "1-Methyl-1H-pyrazole-4-carboxaldehyde", "4-Formyl-1-methylpyrazole", "1-Methyl-4-pyrazolecarboxaldehyde", "1-Methyl-4-formylpyrazole", "1-Methyl-1H-pyrazole-4-carbaldehyde", "1-Methyl-1H-pyrazol-4-carboxaldehyde", "1-Methylpyrazole-4-carbaldehyde"], "SMILES": "C(=O)C1=CN(C)N=C1", "physical_data": {"Molecular Weight": "110.11", "Molecular Formula": "C5H6N2O", "Boiling Point": "106-108 \u00b0C @ Press: 20 Torr", "Melting Point": "27-28 \u00b0C"}}