{"cas_no": "25016-01-7", "cn_name": "5-\u6eb4-2-\u7532\u6c27\u57fa\u82ef\u7532\u919b", "en_name": ["5-Bromo-2-methoxybenzaldehyde", "Benzaldehyde, 5-bromo-2-methoxy-", "o-Anisaldehyde, 5-bromo-", "5-Bromo-2-methoxybenzaldehyde", "2-Methoxy-5-bromobenzaldehyde", "5-Bromo-o-anisaldehyde", "5-Bromo-2-anisaldehyde", "3-Bromo-6-methoxybenzaldehyde", "NSC 41186"], "SMILES": "O(C)C1=C(C=O)C=C(Br)C=C1", "physical_data": {"Molecular Weight": "215.04", "Molecular Formula": "C8H7BrO2", "Melting Point": "114.5 \u00b0C"}}