{"cas_no": "25015-63-8", "cn_name": "\u9891\u90a3\u9187\u787c\u70f7", "en_name": ["Pinacolborane", "1,3,2-Dioxaborolane, 4,4,5,5-tetramethyl-", "2,3-Butanediol, 2,3-dimethyl-, cyclic ester with boronic acid", "4,4,5,5-Tetramethyl-1,3,2-dioxaborolane", "Pinacolborane", "Pinacolatoborane", "HBpin"], "SMILES": "CC1(C)C(C)(C)OBO1", "physical_data": {"Molecular Weight": "127.98", "Molecular Formula": "C6H13BO2", "Boiling Point": "36 \u00b0C @ Press: 42 Torr"}}