{"cas_no": "25014-31-7", "cn_name": "\u805a(ALFA-\u7532\u57fa\u82ef\u4e59\u70ef)", "en_name": ["Poly(\u03b1-methylstyrene)", "Benzene, (1-methylethenyl)-, homopolymer", "Styrene, \u03b1-methyl-, polymers", "Styrene, \u03b1-methyl-, homopolymer", "Poly(\u03b1-methylstyrene)", "276V2", "\u03b1-Methylstyrene polymer", "\u03b1-Methylstyrene oligomer", "Amoco 18-240", "AMS 10", "Amoco AMS 10", "Dow 276V2", "Amoco 18", "Piccolastic E 50", "Amoco 18-290", "Amoco 18-210", "DR 276", "Escorez 1402", "\u03b1-Methylstyrene homopolymer", "HS 400", "Amoflow 18-240", "Tacolyn 1070", "Norsolene W 110", "FTR 0140", "F 100", "ATL 95", "AMS 10 (polymer)", "Poly-alpha-methylstyrene", "AMS 130", "V 276", "Norsolene W 80", "AMS", "1-(Methylethenyl)benzene homopolymer", "PAMS 100", "AMS 85", "AMS 100", "AMS 120", "WL 20", "Cleartack W 100", "Norsolene W 100", "W 100"], "SMILES": "C(C)(=C)C1=CC=CC=C1", "physical_data": {"Molecular Weight": "", "Molecular Formula": "(C9H10)x", "Melting Point": "185-215 \u00b0C", "Density": "0.28 g/cm\u00b3"}}