{"cas_no": "25013-16-5", "cn_name": "\u53d4\u4e01\u57fa-4-\u7f9f\u57fa\u82ef\u7532\u919a", "en_name": ["tert-Butylhydroxyanisole", "Phenol, (1,1-dimethylethyl)-4-methoxy-", "Phenol, tert-butyl-4-methoxy-", "(1,1-Dimethylethyl)-4-methoxyphenol", "Butylated hydroxyanisole", "BHA", "Butylhydroxyanisole", "tert-Butylhydroxyanisole", "tert-Butyl-4-hydroxyanisole", "Antioxyne B", "Embanox", "Protex", "tert-Butyl-p-hydroxyanisole", "Sustane 1F", "tert-Butyl-4-methoxyphenol", "2(3)-tert-Butyl-4-hydroxyanisole", "Tenox BHA", "BOA (antioxidant)", "BOA", "BHA (antioxidant)", "E 320", "Grindox BHA", "tert-Butyl-p-Hydroxyanisol", "MeSH ID: D002083"], "SMILES": "", "physical_data": {"Molecular Weight": "", "Molecular Formula": "C11H16O2", "Boiling Point": "264-270 \u00b0C @ Press: 733 Torr", "Melting Point": "48-55 \u00b0C"}}