{"cas_no": "25017-08-7", "cn_name": "4-\u6c2f\u82ef\u620a\u916e", "en_name": ["1-(4-Chlorophenyl)-1-pentanone", "1-Pentanone, 1-(4-chlorophenyl)-", "Valerophenone, 4\u2032-chloro-", "1-(4-Chlorophenyl)-1-pentanone", "p-Chlorovalerophenone", "4\u2032-Chlorovalerophenone", "4-Chlorophenyl butyl ketone", "NSC 76591", "1-(4-Chlorophenyl)pentan-1-one"], "SMILES": "C(CCCC)(=O)C1=CC=C(Cl)C=C1", "physical_data": {"Molecular Weight": "196.67", "Molecular Formula": "C11H13ClO", "Boiling Point": "140 \u00b0C @ Press: 12 Torr", "Melting Point": "32-32.5 \u00b0C"}}