{"cas_no": "25016-02-8", "cn_name": "2-\u7532\u6c27\u57fa-5-\u785d\u57fa\u82ef\u7532\u919b", "en_name": ["2-Methoxy-5-nitrobenzaldehyde", "Benzaldehyde, 2-methoxy-5-nitro-", "o-Anisaldehyde, 5-nitro-", "2-Methoxy-5-nitrobenzaldehyde", "5-Nitro-2-methoxybenzaldehyde", "3-Nitro-6-methoxybenzaldehyde"], "SMILES": "C(=O)C1=C(OC)C=CC(N(=O)=O)=C1", "physical_data": {"Molecular Weight": "181.15", "Molecular Formula": "C8H7NO4", "Melting Point": "89 \u00b0C"}}