{"cas_no": "25025-59-6", "cn_name": "\u6eb4\u4ee3\u786b\u4ee3\u4e59\u9170\u80c6\u78b1", "en_name": ["Ethanaminium, 2-(acetylthio)-N,N,N-trimethyl-, bromide (1:1)", "Ethanaminium, 2-(acetylthio)-N,N,N-trimethyl-, bromide (1:1)", "Ammonium, (2-mercaptoethyl)trimethyl-, bromide, acetate", "Ethanaminium, 2-(acetylthio)-N,N,N-trimethyl-, bromide", "(2-Mercaptoethyl)trimethylammonium bromide, acetate", "Acetic acid, thio-, S-ester with (2-mercaptoethyl)trimethylammonium bromide", "Acetylthiocholine bromide", "2-(Acetylthio)-N,N,N-trimethylethanaminium bromide"], "SMILES": "C(CSC(C)=O)[N+](C)(C)C.[Br-]", "physical_data": {"Molecular Weight": "", "Molecular Formula": "C7H16NOS.Br", "Melting Point": "227 \u00b0C"}}