{"cas_no": "25021-08-3", "cn_name": "2-\u9a6c\u6765\u9170\u4e9a\u80fa\u57fa\u4e59\u9178", "en_name": ["2,5-Dihydro-2,5-dioxo-1H-pyrrole-1-acetic acid", "1H-Pyrrole-1-acetic acid, 2,5-dihydro-2,5-dioxo-", "3-Pyrroline-1-acetic acid, 2,5-dioxo-", "2,5-Dihydro-2,5-dioxo-1H-pyrrole-1-acetic acid", "Acetic acid, maleimido-", "N-(Carboxymethyl)maleimide", "Maleimidoacetic acid", "N-Maleimidoglycine", "N-Maleoylglycine", "NSC 266055", "N-Glycinylmaleimide", "2-(2,5-Dioxo-2,5-dihydro-1H-pyrrol-1-yl)acetic acid", "2,5-Dihydro-2,5-dioxopyrrol-1-ylacetic acid", "(2,5-Dioxo-2,5-dihydro-1H-pyrrol-1-yl)acetic acid", "2-Maleimidoacetic acid", "2-Maleimido acetic acid", "2-(2,5-Dioxopyrrol-1-yl)acetic acid"], "SMILES": "C(C(O)=O)N1C(=O)C=CC1=O", "physical_data": {"Molecular Weight": "155.11", "Molecular Formula": "C6H5NO4", "Melting Point": "114 \u00b0C"}}