{"cas_no": "25026-34-0", "cn_name": "\u5bf9\u6c2f\u82ef\u4e59\u9170\u6c2f", "en_name": ["4-Chlorobenzeneacetyl chloride", "Benzeneacetyl chloride, 4-chloro-", "Acetyl chloride, (p-chlorophenyl)-", "4-Chlorobenzeneacetyl chloride", "(p-Chlorophenyl)acetyl chloride", "(4-Chlorophenyl)acetyl chloride", "2-(4-Chlorophenyl)acetyl chloride"], "SMILES": "C(C(Cl)=O)C1=CC=C(Cl)C=C1", "physical_data": {"Molecular Weight": "189.04", "Molecular Formula": "C8H6Cl2O", "Boiling Point": "115 \u00b0C @ Press: 16 Torr"}}