{"cas_no": "25023-01-2", "cn_name": "9,9-\u4e8c\u6c2f\u82b4", "en_name": ["9,9-Dichlorofluorene", "9H-Fluorene, 9,9-dichloro-", "Fluorene, 9,9-dichloro-", "9,9-Dichloro-9H-fluorene", "9,9-Dichlorofluorene", "NSC 111101"], "SMILES": "ClC1(Cl)C=2C(C=3C1=CC=CC3)=CC=CC2", "physical_data": {"Molecular Weight": "235.11", "Molecular Formula": "C13H8Cl2", "Boiling Point": "98 \u00b0C @ Press: 5 Torr", "Melting Point": "99 \u00b0C"}}