{"cas_no": "25033-19-6", "cn_name": "1-\u73af\u4e19\u57fa\u8418", "en_name": ["1-Cyclopropylnaphthalene", "Naphthalene, 1-cyclopropyl-", "1-Cyclopropylnaphthalene", "1-Naphthylcyclopropane"], "SMILES": "C=1(C2=C(C=CC1)C=CC=C2)C3CC3", "physical_data": {"Molecular Weight": "168.23", "Molecular Formula": "C13H12", "Boiling Point": "152-154 \u00b0C @ Press: 18 Torr", "Density": "1.0515 g/cm\u00b3 @ Temp: 20 \u00b0C"}}