{"cas_no": "25035-71-6", "cn_name": "\u5bf9\u7532\u82ef\u78fa\u9170\u80fa\u7532\u919b\u6811\u8102", "en_name": ["Formaldehyde-p-toluenesulfonamide copolymer", "Benzenesulfonamide, 4-methyl-, polymer with formaldehyde", "p-Toluenesulfonamide, polymer with formaldehyde", "Formaldehyde, polymer with 4-methylbenzenesulfonamide", "p-Toluenesulfonamide-formaldehyde resin", "Formaldehyde-p-toluenesulfonamide resin", "Santolite MHP", "Formaldehyde-p-toluenesulfonamide polymer", "p-Toluenesulfonamide-formaldehyde copolymer", "Formaldehyde-p-toluenesulfonamide copolymer", "Formalin-p-toluenesulfonic acid amide copolymer", "Santolite MS 80", "Sulfonex EST 100", "Santolite MS", "Ketjenflex MH", "Ultralac", "Topler", "Resimpol 80", "Formaldehyde-tosylamide copolymer", "Rit-O-Lite MHP"], "SMILES": "C=O.S(N)(=O)(=O)C1=CC=C(C)C=C1", "physical_data": {"Molecular Weight": "", "Molecular Formula": "(C7H9NO2S.CH2O)x", "Melting Point": "82 \u00b0C"}}