{"cas_no": "25035-04-5", "cn_name": "\u5c3c\u9f99-11", "en_name": ["11-Aminoundecanoic acid homopolymer, SRU", "Poly[imino(1-oxo-1,11-undecanediyl)]", "Poly(iminocarbonyldecamethylene)", "Poly(11-aminoundecanoic acid)", "Nylon 11", "Poly-\u03c9-undecanamide", "Rilsan BECV", "BCI 1200", "Rilsan BMNO-P 40", "Rilsan KESNO", "Poly(\u03c9-aminoundecanoic acid)", "11-Aminoundecanoic acid polymer", "Rilsan BESN", "Poly(\u03c9-undecanolactam) SRU", "Platilon E", "BCI 1157", "Besno P 40", "Kesno A", "Rilsan BMN", "BMN 00", "RDK 100", "Besno", "Rilsan RDP 21", "Platamid H 105P", "H 105P", "Platamid H 103P", "French Naturelle ES", "Grei 49", "Polymer H 0050/80", "Naturelle Fine", "Natural ES", "Besno TL", "RDG 68", "Rilsan Fine 26", "Poly(undecylamide)", "Besno 40TL", "Rilsan BESNO 40TL", "NCA 77", "Orgasol 35020", "Rilsan BESNO", "Ribon B-ATO", "Rilsan D 20", "Besno P 20TL", "11-Aminoundecanoic acid homopolymer, SRU", "Poly(\u03c9-aminoundecanoic acid), sru", "Rilsan BMNOP 40TL", "Plasmaloi 811F", "Polyundecanamide, sru", "Poly(11-aminoundecanoic acid), SRU", "FP 840", "Rilsan BESHVO", "BESNO-P 40TL", "Rilsan BESNO-P 40TL", "Rilsan BESNO-TL", "Rilsan BESNO-P 20TL", "Rilsan BHURX", "Rilsan B", "BMNO", "BESVO", "BESHVO", "Rilsan BESVO", "Rilsan BMNO", "Rilsan ES", "PA 11 (polyamide)", "PA 11", "Rilsan BMV", "Nyclad", "Rilsan BMNO-D", "Rilsan ES Natural", "Laserite LNF 5000", "LNF 5000", "Rilsan D 50", "BMFO", "Rilsan BMNO-TL", "D 30", "Orgasol 2002EXG", "Rilsan BESN-BK-P 20TL", "Rilsan BESN-BK-P 40TL", "11 Polyamides", "P 40", "Castoplast 31200W", "Nylotube", "Rilsan Fine Powder W 1482", "Rilsan W 1482", "Rilsan BESVOA-FDA", "Rilsan BESNO-P 40", "Rilsan D 30", "BESNO-ERP 20TL", "Rilsan MB 3610", "BMNO-D", "Rilsan BMFO", "Rilsan BESNO-P 40TLO", "Rilsan 7050", "T 7280", "PT 7280", "Rilsan 1452MAC", "Rilsan 3751", "Rilsan D 80", "Rilsan BMN-P 40", "Rilsan BESN-TL", "BESN-P 40TL", "Rilsan T Gray 3362MAC", "Rilsan BESNO 24TL-CC", "Rilsan 11B", "Rilsan BESN-NOIR-P 20TL", "French Natural ES", "Rilsan Natural 2PFB", "Rilsan Natural BHV 2FB", "Rilsan BESN-P 20", "Rilsan BESN-P 20TL", "Rilsan BM 140", "Rilsan BMF", "Rilsan RB", "T Gris 7452", "Rilsan B-OTL 10415", "Rilsan RDG 238", "Rilsan PA 11", "Rilsan BESVOA", "Rilsan D 60", "BESN-TL", "Rilsan Fine Powder Black 7450AC-FB", "Rilsan Fine Powder Black 7174MAC-FB", "BMNO-TLD", "Rilsan B-BMNO", "Rilsan D 30 Nat", "Rilsan Fine Powder D 30 Nat", "Rilsan B-BESNO", "RDG 231", "Rilsan RDG 231", "Rilsan BESN Noir P 40TL", "Rilsan BESN Black P 40TL", "PA 5105", "Rilsan BECN-O-TL", "Rilsan KNO", "Rilsan BMNO-TLD", "Morton 78-1001", "Corvel White", "Corvel Black", "Morton 78-7001", "Rilsan BMV-P 20", "Rilsan Active ES 7580SA", "Rilsan Active T 7547SA", "Rilsan LMNO", "Rilsan BZM 300TL", "Rilsan KMVO", "Rilsan A-BMN-BK-TLD", "F 254", "Rilsan 11", "Rilsan BECN", "Rilsan ES Naturelle", "Rilsan PCG-LV-RND", "BECN-O-TL", "Rilsan B-BMNO-TLD", "MB 3000", "Rilsan T Naturelle BHV 2", "Rilsan T Natural BHV 2", "Rilsan BESN-P 212CTL", "Rilsan 11ES Naturelle", "Rilsan BESN-P 40BLK-TL", "Rilsan BESN 0TL", "PA 11BESHV0", "D 60", "Rilsan D 40", "Rilsan Powder D", "Rilsan BESN-P 40", "BMV", "D 40 Natural", "Rilsan Invent Natural", "Natural D 40", "PA11 KNO", "Rilsan BESN-P 40TL", "Roto 11", "Rilsan HT-CMNO", "BMV-O-TLD", "Rilsan Fine Powder ES Natural", "Rilsan B-KNO", "Rilsan B-BESN-O-F 15TLX", "Rilsan BESNO-P 40TLX", "Rilsan BESNO-T 7500", "Rilsan P 20", "EHL 22-003", "Rilsan T Black 7239", "Rilsan BESVO P 40", "Windform SP", "Rilsan PM 11LMFO", "Adsint PA 11", "Rilsan PA 11G-BESNO-TL", "Rilsan Roto 11", "Rilsan BESNO-P 20", "PA 1101", "Rilsan 8020", "FR 106 (polyamide)", "FR 106", "Rilsan P 40TL", "Rilsan PCG-LV", "DuraForm EX Natural", "BSR 30", "Rilsan Clear G 820", "Rilsan Clear G 850Rnew", "Rislan BMNO", "Rilsan P 20TLD", "Rilsan FMNO", "Rilsan 7452", "Rilsan BECN-P 20TL", "BECN-P 20TL"], "SMILES": "C(CCC(N*)=O)CCCCCCC*", "physical_data": {"Molecular Weight": "", "Molecular Formula": "(C11H21NO)n", "Melting Point": "186 \u00b0C", "Density": "1.04 g/cm\u00b3"}}