{"cas_no": "25037-45-0", "cn_name": "\u805a\u78b3\u9178\u916f", "en_name": ["Bisphenol A-carbonic acid copolymer", "Carbonic acid, polymer with 4,4\u2032-(1-methylethylidene)bis[phenol]", "Carbonic acid, polyester with 4,4\u2032-isopropylidenediphenol", "Phenol, 4,4\u2032-isopropylidenedi-, polyester with carbonic acid", "Phenol, 4,4\u2032-(1-methylethylidene)bis-, polymer with carbonic acid", "Bisphenol A polycarbonate", "Poly(dian carbonate)", "4,4\u2032-Dihydroxydiphenyl-2,2-propane carbonate polymer", "Poly(bisphenol A carbonate)", "Carbonic acid-2,2\u2032-bis(p-hydroxyphenyl)propane copolymer", "Bisphenol A-carbonic acid copolymer", "Bisphenol A carbonate polymer", "Bisphenol A-carbonic acid polymer", "Carbonic acid-isopropylidenediphenol polymer", "Carbonic acid-4,4\u2032-isopropylidenediphenol polymer", "Poly[2,2-bis(4-hydroxyphenyl)propane carbonate]", "Carbonic acid-bisphenol A polymer", "Carbonic acid-2,2-bis(4-hydroxyphenyl)propane polymer", "2,2-Bis(4-hydroxyphenyl)propane-carbonic acid polymer", "Carbonic acid-diphenylolpropane copolymer", "2,2-Bis(4-hydroxyphenyl)propane-carbonic acid copolymer", "Carbonic acid-bisphenol A copolymer", "Carbonic acid-4,4\u2032-dihydroxydiphenyl-2,2-propane copolymer", "Bisphenol A polycarbonate, monomer-based", "Makrofol DE, monomer-based", "Carbonic acid-4,4\u2032-(1-methylethylidene)bis[phenol] copolymer", "Bisphenol A carbonate homopolymer", "SC 1100", "Carbonic acid-2,2-di(4-hydroxyphenyl)propane copolymer", "Carbonic acid-2,2-bis-(4-hydroxyphenyl)propane copolymer"], "SMILES": "C(C)(C)(C1=CC=C(O)C=C1)C2=CC=C(O)C=C2.C(=O)(O)O", "physical_data": {"Molecular Weight": "", "Molecular Formula": "(C15H16O2.CH2O3)x", "Melting Point": "197.7 \u00b0C", "Density": "1.20 g/cm\u00b3"}}