{"cas_no": "2503-44-8", "cn_name": "3,4-\u4e8c\u7f9f\u57fa\u82ef\u57fa-2-\u4e19\u916e", "en_name": ["1-(3,4-Dihydroxyphenyl)-2-propanone", "2-Propanone, 1-(3,4-dihydroxyphenyl)-", "2-Propanone, (3,4-dihydroxyphenyl)-", "1-(3,4-Dihydroxyphenyl)-2-propanone", "3,4-Dihydroxyphenylacetone", "1-(3\u2032,4\u2032-Dihydroxyphenyl)-2-propanone"], "SMILES": "C(C(C)=O)C1=CC(O)=C(O)C=C1", "physical_data": {"Molecular Weight": "166.17", "Molecular Formula": "C9H10O3", "Boiling Point": "170-173 \u00b0C @ Press: 0.3 Torr", "Melting Point": "-30 \u00b0C (decomp)"}}