{"cas_no": "2503-56-2", "cn_name": "7-\u7f9f\u57fa-5-\u7532\u57fa-1,3,4-\u4e09\u6c2e\u5432\u54da\u5229\u55ea", "en_name": ["4-Hydroxy-6-methyl-1,3,3a,7-tetraazaindene", "[1,2,4]Triazolo[1,5-a]pyrimidin-7-ol, 5-methyl-", "s-Triazolo[1,5-a]pyrimidin-7-ol, 5-methyl-", "5-Methyl[1,2,4]triazolo[1,5-a]pyrimidin-7-ol", "5-Methyl-s-triazolo[1,5-a]pyrimidin-7-ol", "1,3,7-Triaza-4-hydroxy-6-methylindolizine", "5-Methyl-7-hydroxy-1,3,4-triazaindolizine", "7-Hydroxy-5-methyl-1,3,4-triazaindolizine", "5-Methyl-7-hydroxy-1,2,4-triazolo[1,5-a]pyrimidine", "7-Hydroxy-5-methyl-s-triazolo[1,5-a]pyrimidine", "4-Hydroxy-6-methyl-1,2,4-triazolo[2,3-a]pyrimidine", "5-Methyl-7-hydroxy-s-triazolo[1,5-a]pyrimidine", "6-Methyl-4-hydroxy-1,3,3a,7-tetraazaindene", "TAI (sensitizer)", "TAI", "4-Hydroxy-6-methyl-1,3,3a,7-tetraazaindene", "4-Hydroxy-6-methyl-1,3,3a,7-tetrazaindene", "Stabilizer 583", "5-Methyl-[1,2,4]triazolo[1,5-a]pyrimidin-7-ol", "NSC 32071", "NSC 511493", "5-Methyl-1,2,4-triazolo-(1,5-a) pyrimidine-7-ol"], "SMILES": "OC=1N2C(N=C(C)C1)=NC=N2", "physical_data": {"Molecular Weight": "150.14", "Molecular Formula": "C6H6N4O", "Melting Point": "227-229 \u00b0C"}}