{"cas_no": "25038-32-8", "cn_name": "\u82ef\u4e59\u70ef\u4e0e2-\u7532\u57fa-1,3-\u4e01\u4e8c\u70ef\u7684\u805a\u5408\u7269", "en_name": ["Isoprene-styrene copolymer", "Benzene, ethenyl-, polymer with 2-methyl-1,3-butadiene", "Styrene, polymer with isoprene", "Isoprene, polymer with styrene", "1,3-Butadiene, 2-methyl-, polymer with ethenylbenzene", "Isoprene-styrene copolymer", "Isoprene-styrene polymer", "XD 3709.08", "Poly(styrene-isoprene)", "2-Methyl-1,3-butadiene-styrene copolymer", "M 3062", "Styrene-isoprene copolymer", "Kraton D 116", "Isopentadiene-styrene copolymer", "Infineum SV 150", "T 2650", "Shellvis SV 201"], "SMILES": "C(C=C)(C)=C.C(=C)C1=CC=CC=C1", "physical_data": {"Molecular Weight": "", "Molecular Formula": "(C8H8.C5H8)x", "Melting Point": "95 \u00b0C"}}