{"cas_no": "2503-46-0", "cn_name": "4-\u7f9f\u57fa-3-\u7532\u6c27\u57fa\u82ef\u4e19\u916e", "en_name": ["Guaiacylacetone", "2-Propanone, 1-(4-hydroxy-3-methoxyphenyl)-", "2-Propanone, (4-hydroxy-3-methoxyphenyl)-", "1-(4-Hydroxy-3-methoxyphenyl)-2-propanone", "Guaiacylacetone", "Vanillyl methyl ketone", "(4-Hydroxy-3-methoxyphenyl)acetone", "Methyl vanillyl ketone", "2-Propiovanillone", "NSC 16690", "4-Hydroxy-3-methoxyphenyl-2-propanone"], "SMILES": "C(C(C)=O)C1=CC(OC)=C(O)C=C1", "physical_data": {"Molecular Weight": "180.20", "Molecular Formula": "C10H12O3", "Boiling Point": "115 \u00b0C @ Press: 0.15 Torr"}}