{"cas_no": "2504-64-5", "cn_name": "1,2-\u4e8c(\u4e09\u6c2f\u7532\u7845\u57fa)\u4e59\u70f7", "en_name": ["1,1\u2032-(1,2-Ethanediyl)bis[1,1,1-trichlorosilane]", "Silane, 1,1\u2032-(1,2-ethanediyl)bis[1,1,1-trichloro-", "1,4-Disilabutane, 1,1,1,4,4,4-hexachloro-", "Silane, 1,2-ethanediylbis[trichloro-", "1,1\u2032-(1,2-Ethanediyl)bis[1,1,1-trichlorosilane]", "1,2-Bis(trichlorosilyl)ethane", "Ethylenebis(trichlorosilane)", "1,2-Ethanediylbis(trichlorosilane)", "1,1,1,4,4,4-Hexachloro-1,4-disilabutane", "Trichloro(2-trichlorosilylethyl)silane"], "SMILES": "C(C[Si](Cl)(Cl)Cl)[Si](Cl)(Cl)Cl", "physical_data": {"Molecular Weight": "296.94", "Molecular Formula": "C2H4Cl6Si2", "Boiling Point": "201 \u00b0C", "Melting Point": "24-25 \u00b0C", "Density": "1.482 g/cm\u00b3"}}