{"cas_no": "2504-55-4", "cn_name": "3-\u6c28\u57fa-D-\u817a\u82f7\u9178", "en_name": ["3\u2032-Amino-3\u2032-deoxyadenosine", "Adenosine, 3\u2032-amino-3\u2032-deoxy-", "3\u2032-Amino-3\u2032-deoxyadenosine", "NSC 18192", "2: PN: WO2005024018 PAGE: 53 claimed sequence"], "SMILES": "OC1C(N2C=3C(N=C2)=C(N)N=CN3)OC(CO)C1N", "physical_data": {"Molecular Weight": "266.26", "Molecular Formula": "C10H14N6O3", "Melting Point": "260-261 \u00b0C"}}