{"cas_no": "25059-80-7", "cn_name": "\u8349\u9664\u7075", "en_name": ["Benazolin-ethyl", "3(2H)-Benzothiazoleacetic acid, 4-chloro-2-oxo-, ethyl ester", "3-Benzothiazolineacetic acid, 4-chloro-2-oxo-, ethyl ester", "4-Chloro-2-oxobenzothiazolin-3-ylacetic acid ethyl ester", "Benazolin ethyl ester", "Benazolin-ethyl", "Galtak", "Ethyl 2-(4-chloro-2-oxo-2,3-dihydro-1,3-benzothiazol-3-yl)acetate"], "SMILES": "C(C(OCC)=O)N1C=2C(SC1=O)=CC=CC2Cl", "physical_data": {"Molecular Weight": "271.72", "Molecular Formula": "C11H10ClNO3S", "Melting Point": "79.2 \u00b0C"}}