{"cas_no": "25054-06-2", "cn_name": "\u73af\u5df1\u916e\u4e0e\u7532\u919b\u7684\u805a\u5408\u7269", "en_name": ["Cyclohexanone-formaldehyde copolymer", "Formaldehyde, polymer with cyclohexanone", "Cyclohexanone, polymer with formaldehyde", "ChS-Keto 95", "Formaldehyde-cyclohexanone resin", "Cyclohexanone-formaldehyde resin", "Formaldehyde-cyclohexanone copolymer", "Cyclohexanone-formaldehyde copolymer", "Cyclohexanone-formaldehyde polymer", "Bakelite Polyketone Resin 250", "Cyclohexanone-formaldehyde condensate", "Ketone A", "Polyketone A", "MR 85", "MR 85D", "MR 85H", "Krumbhaar K 1717B", "MR 60", "L2 Resin", "L 2", "L 2 (formaldehyde polymer)", "K 90 (ketone resin)", "K 90", "Ketone Resin K 90", "Resin N", "Ketone resin N", "K 211", "Laropal K 80", "Hilac 111", "MR 60 (polymer)", "K 1717B", "KR 80F", "KR 120", "KR 120W", "KR 130", "Hairakku 111", "Cyclohexanone-formaldehyde condensation polymer", "KTR 100"], "SMILES": "C=O.O=C1CCCCC1", "physical_data": {"Molecular Weight": "", "Molecular Formula": "(C6H10O.CH2O)x", "Melting Point": "105 \u00b0C"}}