{"cas_no": "25057-89-0", "cn_name": "\u706d\u8349\u677e", "en_name": ["Bentazon", "1H-2,1,3-Benzothiadiazin-4(3H)-one, 3-(1-methylethyl)-, 2,2-dioxide", "1H-2,1,3-Benzothiadiazin-4(3H)-one, 3-isopropyl-, 2,2-dioxide", "3-Isopropyl-2,1,3-benzothiadiazin-4-one 2,2-dioxide", "3-Isopropyl-4-oxo-2,1,3-benzothiadiazine 2,2-dioxide", "BAS 3510H", "Basagran", "Bentazon", "BAS 351H", "BAS 3510", "BAS 3512H", "3-Isopropyl-2,1,3-benzothiadiazine-4-one 2,2-dioxide", "3,4-Dihydro-3-isopropyl-1H-2,1,3-benzothiadiazin-4-one 2,2-dioxide", "3-Isopropyl-2,1,3-benzothiadiazinon-(4)-2,2-dioxide", "3,4-Dihydro-3-isopropyl-4-oxo-1H-2,1,3-benzothiadiazine 2,2-dioxide", "3-Isopropyl-1H-2,1,3-benzothiadiazin-4(3H)-one S,S-dioxide", "3-Isopropyl-1H-2,1,3-benzothiadiazin-4(3H)-one 2,2-dioxide", "3-Isopropyl-1H-2,1,3-benzothiadiazine-4(3H)-one 2,2-dioxide", "3-Isopropyl-2,1,3-benzothiodiazin-4-one 2,2-dioxide", "Bentazone", "BAS 351-07H", "BAS 3517H", "Bendioxide", "Basagran 480", "Leader", "Corsar", "Basamais", "Bazargan", "Basagran 480SL", "Miecaosong"], "SMILES": "O=C1C=2C(NS(=O)(=O)N1C(C)C)=CC=CC2", "physical_data": {"Molecular Weight": "240.28", "Molecular Formula": "C10H12N2O3S", "Melting Point": "139.4-141 \u00b0C", "Density": "1.41 g/cm\u00b3 @ Temp: 20 \u00b0C"}}