{"cas_no": "25067-59-8", "cn_name": "\u805a(9-\u4e59\u70ef\u5494\u5511)", "en_name": ["Poly(N-vinylcarbazole)", "9H-Carbazole, 9-ethenyl-, homopolymer", "Carbazole, 9-vinyl-, polymers", "Carbazole, 9-vinyl-, homopolymer", "Carbazole, 9-vinyl-, polymer", "Poly(N-vinylcarbazole)", "Poly(9-vinylcarbazole)", "Poly(vinylcarbazole)", "N-Vinylcarbazole polymer", "Vinylcarbazole polymer", "9-Vinylcarbazole polymer", "Luvican M 150", "9-Vinylcarbazole homopolymer", "Luvican M 170", "Tuvical 210", "N-Vinylcarbazole homopolymer", "DH 700", "PVK", "GH 17", "GH 17 (vinyl polymer)", "PVCz", "9-Vinyl-9H-carbazole homopolymer", "PVCz 8K"], "SMILES": "C(=C)N1C=2C(C=3C1=CC=CC3)=CC=CC2", "physical_data": {"Molecular Weight": "", "Molecular Formula": "(C14H11N)x", "Melting Point": "220-225 \u00b0C", "Density": "1.2 g/cm\u00b3"}}