{"cas_no": "25068-38-6", "cn_name": "4,4\u2019-(1-\u7532\u57fa\u4e9a\u4e59\u57fa)\u53cc\u82ef\u915a\u4e0e(\u6c2f\u7532\u57fa)\u73af\u6c27\u4e59\u70f7\u7684\u805a\u5408\u7269", "en_name": ["Bisphenol A epoxy resin", "Phenol, 4,4\u2032-(1-methylethylidene)bis-, polymer with 2-(chloromethyl)oxirane", "Phenol, 4,4\u2032-isopropylidenedi-, polymer with 1-chloro-2,3-epoxypropane", "Phenol, 4,4\u2032-(1-methylethylidene)bis-, polymer with (chloromethyl)oxirane", "Propane, 1-chloro-2,3-epoxy-, polymer with 4,4\u2032-isopropylidenediphenol", "Oxirane, (chloromethyl)-, polymer with 4,4\u2032-(1-methylethylidene)bis[phenol]", "2,2-Bis(p-hydroxyphenyl)propane-epichlorohydrin condensate", "Epon 828", "Bisphenol A-epichlorohydrin copolymer", "Epichlorohydrin-bisphenol A epoxy resin", "Epichlorohydrin-bisphenol A resin", "Bisphenol A-epichlorohydrin resin", "Epichlorohydrin-bisphenol A copolymer", "Bisphenol A-epichlorohydrin epoxy resin", "ED 5", "Bisphenol A-epichlorohydrin condensate", "Epon 836", "Bis(p-hydroxyphenyl)dimethylmethane-epichlorohydrin copolymer", "Bakelite PKDA", "Epi-Rez 510", "ERL 2795", "Diphenylolpropane-epichlorohydrin copolymer", "Phenoxy PKHH", "Epichlorohydrin-4,4\u2032-dihydroxydiphenylpropane copolymer", "Epoxy 7071", "Epon 1004", "Araldite 6084", "Epikote 828", "Araldite 6010", "Diphenylolpropane-epichlorohydrin polymer", "ED-L", "Epikote 1004", "Epikote 1007", "Epon 1001", "Epon 1002", "Epon 826", "Epotuf 37-139", "1-Chloro-2,3-epoxypropane-4,4\u2032-isopropylidenebisphenol polymers", "1-Chloro-2,3-epoxypropane-4,4\u2032-isopropylidenediphenol polymer", "2,2-Bis(4-hydroxyphenyl)propane-epichlorohydrin polymer", "4,4\u2032-Dihydroxydiphenylpropane-epichlorohydrin polymer", "4,4\u2032-Isopropylidenediphenol-1-chloro-2,3-epoxypropane polymer", "Casting Resin F", "2,2-Bis(p-hydroxyphenyl)propane-epichlorohydrin copolymer", "Epichlorohydrin-2,2-bis(4-hydroxyphenyl)propane copolymer", "ERL 2774", "Epon Resin 828", "Araldite GY 280", "Epon 834", "E 40 (epoxy resin)", "Epikote 834", "Araldite GY 250", "Araldite GY 260", "Araldite 6005", "Bakelite PAHJ", "ChS 110", "CY 205", "DER 321", "DER 331", "Dian-epichlorohydrin polymer", "EKR 2002", "Epichlorohydrin-diphenylolpropane polymer", "Epichlorohydrin-2,2-bis(4-hydroxyphenyl)propane polymer", "Epichlorohydrin-4,4\u2032-isopropylidenediphenol polymer", "Epikote OL 53L32", "Epikote 1001", "Epikote 1009", "Epikote 1010", "Epi-Rez 508", "Epon 1009", "Epon 830", "Epon 840", "Eponol 53B40", "Eponol 53L32", "Eponol 55B40", "Eponol 55L32", "Grilonit WLT 4305", "GY 250", "Phenoxy 8500", "PRNA 8000", "2,2-Bis(p-hydroxyphenyl)propane-epichlorohydrin polymer", "2,2-Diphenylolpropane-epichlorohydrin polymer", "Epon 1001X80", "Araldite 471X75", "PKHH", "Epikote DX 231", "Epon 1007", "Beckopox EP 301", "4,4\u2032-Isopropylidenediphenol-epichlorohydrin polymer", "Araldite 527", "DER 330", "GY 280", "Araldite 7065", "Araldite AY 103", "AY 103", "EP 301", "EP 302", "EP 304", "Beckopox EP 307", "Epiterm", "MY 740", "Epikote 830", "Epikote 836", "Epikote 840", "Epikote 1002", "Genepoxide", "EKPA 8424", "Araldite 6020", "Araldite MY 750", "SD 636", "Epi-Rez 530", "Eponol 55", "Epon 825", "DER 622", "Phenoxy PAHJ", "ChS 15", "ChS Epoxy 15", "Araldite CY 205", "ChS 1/33", "Epichlorohydrin-bisphenol A polymer", "Epocast 221-40", "2,2-Bis(4-hydroxyphenyl)propane-epichlorohydrin copolymer", "Rutapox 0180E", "Thixon AB 1244", "Epoxy 15", "Grilonit G 16.05", "Bakelite PRDA 8060", "DER 661", "Epikote DX 210", "Araldite MY 740", "X 102", "Epiterm 1", "Epikote 1055", "Epikote DX 57", "Epiterm W 5", "Epiterm W 20", "Epiterm W 30", "Epiterm W 40", "DER 488N40", "Araldite 684EK40", "Araldite AW 116A", "Araldite CY 206", "Araldite 6004", "Epon 201", "Thixon XAB 894", "PRDA 8080", "DER 684", "PAHJ", "Sumiepoxy ELA 115CA", "Epikote 828 resin", "ChS 15 (epoxy resin)", "Bakelite PKHH", "2,2-Bis(hydroxyphenyl)propane-epichlorohydrin copolymer", "684EK40", "SD 289", "ED 20", "ED 22", "Bakelite ERL 2774", "Epon 1010", "Epon 384", "Epon 820", "Epon 829", "Epiterm W", "Beckopox EP 304", "Eurepox 110", "Epomik A 3", "Lopox R 200", "Araldite LY 556", "LY 556", "ChS Epoxy 110", "Ciba Geigy MY 750", "GenEpoxy 205", "TSX 679", "Epidian 1", "Vanoxy 128", "Epidian 3", "Epidian 4", "DER 671", "Epidian 5", "Epidian 2", "Epidian 12", "Epidian 14", "Dinox 040", "E 44 (resin)", "ED 24", "ED-NSP", "ED 8", "164SV", "Gromalit K 300", "E 44", "Epo Tohto YD 128", "Eurepox 7004", "Eurepox 716", "Yuka E 102", "Yuka E 803", "Epon DRH 201", "Epi-Rez 510C", "Araldite 6099", "Sumiepoxy ELA 128", "UP 503A", "Araldite 6071", "DER 66", "Shodine 428", "AER 331", "Epi-Rez 520C", "DRH 302", "EP 420", "Araldite 6097", "Stycast 2850FT", "Araldite XU 167", "AER 661", "Araldite 7072", "Epomik R 130", "STER", "Lopox 200", "Epomik R 144", "Eponol 55BQ20", "E 49 (polymer)", "Bisphenol A-Epon 829 copolymer", "EP 1001", "E 41 (resin)", "Shell 826", "PKHC", "Bakelite ERL 2744", "Bakelite PKHC", "Araldite EP 828", "EP 302 (polymer)", "EP 5196N", "EP 5196V", "Epotuf 37-301", "Beckopox 37-140", "EP 828", "Bakelite PKHJ", "E 41", "Aicarpox BS 001SS", "Aicarpox BS 001OG", "Aicarpox BS 001", "Aicarpox BS 004S", "Aicarpox BS 004", "Aicarpox BL 100", "Aicarpox BS", "Aicarpox BL", "Lekutherm X 18", "Araldite 7071", "XB 301", "Bakelite PKHH 8500", "ChS 1003", "Dian-epichlorohydrin copolymer", "DER 331-DER 332 copolymer", "SB 20", "SB 20 (epoxy resin)", "Araldite GT 7004", "Levepox 4020", "Sumiepoxy ESA 011", "Sumiepoxy ESA 014", "Beckopox 37139", "Epiclon H 353", "AER 337", "Bakelite PKDA 8500", "AER 664", "Arnox 3110", "Epiclon 850", "Epon 2001", "AER 667", "AER 669", "Pheno Tohto YP 50CS25B", "Araldite MY 6100", "Araldite MY 6200", "Araldite MY 6400", "Araldite 6100", "DX 57", "DX 231", "CE 10", "E 15", "Epidian 51", "Sumiepoxy ESA 001", "Beckopox VEP 2354", "Bakelite 164", "Varcum 27-109", "Epon 9302", "AER 664P", "Epon 1104", "E 828", "UP 5-207", "Araldite GT 6071", "Araldite GT 7071", "Epikote 100", "PKHH 8500", "Araldite CY 225", "Araldite CW 226", "EP 825", "Araldite GT 6084", "DX 210", "Epikote 829", "Epi-Rez 828", "Araldite GT 7097", "Araldite GT 6099", "Epikote 834X90", "Epikote 834X80", "Eurepox 710", "DER 383", "Epidian 6", "Epomik R 140", "Epikote 2057", "Eponol 53", "Epon 9102", "Epikote 255", "PKHJ", "Epoxy 270", "Epidian 202", "E 40", "Adeka EP 4300", "Epon 1004F", "EP 420 (polymer)", "Epon 1009F", "E 49", "AER 661x-75", "Epon 1001B80", "Shell 828", "Epon 828LS", "Epon 1001X75", "CB 4 (epoxy resin)", "Epon 834X90", "CB 4", "Epiclon 1051-75M", "YD 128", "A 39", "Adeka EP 5100-75X", "Epon 1001F", "LC 81-0920", "ChS 12", "Epomik R 364", "Araldite GY 6010", "GY 260", "Epon 1007F", "Epikote 1100L", "ELA 128", "Phenoxy PKHJ", "Phenoxy PKHA", "Bakelite PKHA", "Epiclon EXA", "DER 668E", "Bisphenol A epoxy resin", "GT 7004", "Denacast EM 103", "Denacast EM 101", "Epon 2004", "Epoxa AP 2", "Bisphenol A-(chloromethyl)oxirane copolymer", "AP 2", "E 05m", "H 353", "Pheno Tohto YP 50", "YP 50", "Novepox 380", "Ucar PKHC", "ESA 001", "EP 1004", "Epikote EP 1004", "Epiclon 9055", "Epiclon 4050", "Epiclon 840", "Epiclon 1050", "Epiclon 7050", "Lopox 440", "Epiclon 9155", "E 6101", "Epoxy 6101", "DER 361", "PKCH", "Epiol E 001", "Epiol E 034", "AD 301", "Ucar PKHH", "Bakelite PKHH 4240", "E 1004", "Araldite GT 7013", "Epiclon 9056", "E 39", "Diepoxa 600", "Diepox 600", "X 2317", "Adeka Optomer KRM 2410", "KRM 2510", "Araldite GY 6071", "Araldite GY 6084", "Araldite GY 6097", "GY 6084", "FE 6026A", "Adbond 5300A", "ED 16", "Ucar Phenoxy PKHH", "Epoxy 1200L", "Epiclon 4055", "Epiclon 7055", "Epikote 3003", "Epikote EP 1007", "Epikote 828X90", "EP 1007", "Adeka EP 5900", "Adeka EP 5700", "A 39 (polymer)", "Epikote E 1001", "E 1001", "DER 668", "Araldite GT 7072", "Araldite GT 7203", "DER 669", "EP 5900", "DER 684EK40", "Cardolite NC 1307", "Araldite GT 6100", "Epomik R 307", "Epomik R 309", "R 309", "Dow 331", "Epiclon 1050-70", "XAC 5020", "E 31 (epoxy resin)", "E 31", "Epon 2002", "Epon 827", "Epon 287", "CYD 128", "Epo Tohto YD 014", "YD 014", "Araldite XB 3083", "Epikote 828 homopolymer", "EP 1002", "Epon 291", "CY 225", "Oshikadain TE 54", "Epotuf 92-737", "EP 1009", "YD 7011R", "Epomik R 140C", "Araldite PZ 3961", "Araldite GZ 7071X75", "Bisphenol A-epichlorohydrin polymer", "Epomik R 367", "Epon 880", "Araldite GT 7099", "Araldite GZ 488N40", "Epotuf 38-525", "Epi-Rez 3540WY55", "AA 2662", "R 367", "N 4002-5", "Epo Tohto YD 927", "EDSV 95", "Eposir 7020", "Eurepox 730", "ED 8 (epoxy resin)", "Paphen PKHH", "Paphen 301", "UCAR Phenoxy Resin PKHJ", "EX 1548", "Epo Tohto YD 7020", "YD 7020", "Epikote 1003F", "Nelco N 4002-5", "Epon 828RS", "Bakelite PRDA 8080", "Bisphenol A-glycidyl chloride copolymer", "Epon DPS 2014", "Epon DPS 2012", "Epiclon HM 091", "Araldite XB 3010", "ARC-R 12D15", "Epiclon 860", "ZX 1519", "Paphen PKHJ", "Epon 2042", "Epikote E 5048", "Epichlorohydrin-4,4\u2032-isopropylidenediphenol copolymer", "GZ 9625W90", "DER 333N", "E 001-75X", "Epiclon 1121-75M", "Epi-Rez 3540", "Epo Tohto YD 011-75X", "ED 6", "ED 6 (epoxy resin)", "ED 5-ED 6 mixt.", "Epikote 828US", "Araldite GY 257", "AER 2603", "KRM 2410", "Araldite AER 2603", "BE 502", "TH 4000 (epoxy resin)", "Epoxy 828", "4,4\u2032-Isopropylidenediphenol-epichlorohydrin copolymer", "MY 750", "RE 310", "EE 190", "EPO 1451-310", "ZX 1449-8", "XZ 92500", "Epikote 545", "Waterpoxy 1455", "EH 82", "EP 850", "Epikote R 140", "Epiclon E 850", "E 850", "EP 116", "EP 116 (epoxy resin)", "Epikote 828CD", "ED 14", "Epikote 1001X50", "Arsonpol 825/2", "E 20", "E 20 (Chinese resin)", "Diaplast", "Pri-epoh PE 10", "Araldite GT 6703", "NSC 11096", "Bisphenol A-p-cumylphenol-epichlorohydrin copolymer", "Paphen PKHS", "KD 242G", "Stycast Blue 2850FT", "Stycast Black 2850FT", "Vantico LY 556", "R 140", "Epon Resin 826", "GT 6071", "Curezol 2E4MZ-EP 828 copolymer", "DER 331J", "Araldite CY 219", "Dicfine EN 0270", "EN 0270", "Epikote E 1004", "Paphen PKHB", "EP 5100-75P", "Adeka Resin EP 5100-75P", "Epiclon AM 040P", "E 001-75B", "Specifix 20", "02Y040", "Epi-Rez 3551WY43", "ED 5 (epoxy resin)", "Araldite GZ 7071X75CH", "Epiclon 900IM", "PY 3483", "RSW 3861", "RSW 3860", "RSW 3822", "Ropoxide 500", "EDT 69MR", "PKHB", "JER 828", "Araldite PY 3483", "GT 7071", "Epilox A 50-02", "Epon 834X80", "Araldite GT 6063ES", "Epidian 16", "Bisphenol A-Epikote 828 copolymer", "Pheno Tohto YP 50S", "YP 50S", "Uvicure P 1000", "JER 1001B80", "JER 1007", "Easy Cast", "JER 1002", "Epotec YD 126", "Epotec YD 128", "JER 834", "JER 1055", "JER 828US", "PKHA", "Reploxy 467", "Bisphenol A-Epiclon 850 copolymer", "Shell 1009", "YLH 1302L", "YLH 1302", "YD 128SM", "BPA 348", "PKHP 80", "JER-E 1256", "Epikote E 1256", "E 1256", "JER 1010", "EP 3 (epoxy resin)", "EP 3", "EP 4", "EP 4 (epoxy resin)", "GY 6010", "Epikote 1009F", "JER 1009F", "Kukdo KD 242G", "Epikote 1001X75", "JER 1001X75", "Bisphenol A-epichlorohydrin-Epikote 1001X75 copolymer", "EK 1001", "Epo-Tek OG 142-17", "Epikote EP 1009", "Epiclon AM 020P", "Epokukdo YD 128", "JER 834X90", "YL 7620", "Hexion 1002", "Hexion 1001", "Araldite G 277071X75", "Eponol 53BH35", "YN 1828", "Epicoat 828-2-phenyl-4-methylimidazole copolymer", "AB-EP 51", "Y 128", "Epothin 20-8140-032", "Bisphenol A-DER 331 copolymer", "Araldite GY 6010CSR", "L 930HT", "AER 6084", "Paphen PKFE", "UCAR PKFE", "PKFE", "InChemRez Phenoxy PKFE", "Phenoxy PKFE", "XZ 92533.0", "EP 4500A", "YD 126", "EEW 230-257", "AD 502SR", "828US", "HM 091", "Araldite GZ 7-7071X75", "1001X75", "E 44 epoxy resin", "SM 601", "EP 828-YP 50 copolymer", "Stycast FT 2850", "XR 6310B", "Biresin CR 120", "RA 928", "Epox MK-R 151HF", "YD 128-YP 50 copolymer", "JER 828-YP 50 copolymer", "Araldite DY-E/BD", "CHS 141 (epoxy resin)", "SM 601 (epoxy resin)", "Epoxy Ester 600A", "(Chloromethyl)oxirane-4,4\u2032-(1-methylethylidene)bisphenol copolymer", "DER 667E", "Epoxy 826", "Epi-Rez 3546WH53", "YN 1826", "R 307", "Baxxores ER 2200", "Bisphenol A-DER 331J copolymer", "UniBond 5 Minute Epoxy", "UniBond Repair 5 Minute", "UniBond Repair 5 Minute Epoxy", "BBT 7892", "E 834", "Sanmu 601", "DT 206", "DER 6330A10", "DER 317", "DER 6224", "DER 6155", "RenLam CY 219", "Epiclon EP 1050-70X", "Bisphenol A-2-(chloromethyl)oxirane copolymer", "Bisphenol A-epichlorohydrine copolymer", "JER 1255HX30", "JER 1004K", "Epikote 1004K", "Epidian 6D", "JER-W 2801", "Epokukdo YD 128K", "EXA 840", "ChemRes 628", "KER 828", "TH 4000", "Amosil 4R", "GT 7072", "Epoxylite 3750LV", "Epon 828-Epikure 3253 copolymer", "Epoxy 1001", "Epocyl NC-E 128-02", "JER 1003F", "Euderm Fix GA-I", "ER 828", "YD 535LV", "Epotec YD 535LV", "WSR 6101", "Dow 661", "EXE 313", "Huntsman PZ 3961", "Epoxy 3961", "GELR 28E", "G 703A", "GZ 7-7071X75", "KB 500", "E 1451-310", "Bisphenol a-epichlorohydrin-benzyl alcohol copolymer", "Bisphenol a-epichlorohydrin-dibenzylamine copolymer", "E 838", "WAR 618", "Epoxy 1200", "ChS 1200", "CHS Epoxy 1200", "Epikote 04976", "Araldite FCI", "Aradur 22962-Araldite LY 556 copolymer", "GY 257", "Araldite LY 3585", "HW 828", "CHS-Epoxy G 530", "EnviPOXY 530", "CHS-G 530", "HDE 8179WB", "CY 219", "Epon 28", "Biresin CR 82", "Epoxy L 385", "DER 31", "EDK-R 05", "Bontepone 1030", "PKHB+ XLV", "Duratek DTE 1710", "Araldite LY 556CS", "CYD 144", "Epon 828-HY 9601 copolymer", "Epiran 06FL", "YT-CC 301", "JER 5045", "E 834-85X", "E 128 (epoxy resin)", "E 128", "WEP 353", "JER 1002W", "Epotec YDL 670", "Epilok 60-600G", "Epon Resin 830", "Epon Resin 834", "Adeka resin EP 4300", "Epoxy 1828", "Adeka Resin EP 4700", "YPE 011P", "CHS-Epoxy 324", "CHS-Epoxy 525", "Razeen LR 1110", "Hongchang 128", "Changchun 188", "YD 126SP", "Stantone 25-04", "CHS-Epoxy 582", "AM 8927A", "E 16 (epoxy resin)", "E 16", "EPR 174", "WS 615", "EM 0425C", "Vipel F 013AAB00", "SM 6101", "Norfox 828", "Epon 2003", "WRS 6101", "Epo Tohto YD 128D", "YL 7852BT40", "EP 3162EMG", "XW 6640-1", "G 277071X75", "Ecopond SEW 47S"], "SMILES": "C(C)(C)(C1=CC=C(O)C=C1)C2=CC=C(O)C=C2.C(Cl)C1CO1", "physical_data": {"Molecular Weight": "", "Molecular Formula": "(C15H16O2.C3H5ClO)x", "Boiling Point": "114-118 \u00b0C", "Melting Point": "64-74 \u00b0C", "Density": "1.159 g/cm\u00b3"}}