{"cas_no": "25069-40-3", "cn_name": "4-\u4e8c\u82ef\u80fa\u57fa\u82ef\u7532\u9187", "en_name": ["4-(Diphenylamino)benzenemethanol", "Benzenemethanol, 4-(diphenylamino)-", "Benzyl alcohol, p-(diphenylamino)-", "4-(Diphenylamino)benzenemethanol", "4-(Hydroxymethyl)triphenylamine", "p-(Diphenylamino)benzyl alcohol", "4-(Diphenylamino)benzyl alcohol", "[4-(N-Phenylanilino)phenyl]methanol", "(4-(Diphenylamino)phenyl)methanol"], "SMILES": "N(C1=CC=C(CO)C=C1)(C2=CC=CC=C2)C3=CC=CC=C3", "physical_data": {"Molecular Weight": "275.34", "Molecular Formula": "C19H17NO", "Melting Point": "93-94 \u00b0C"}}