{"cas_no": "2506-41-4", "cn_name": "2-(\u6c2f\u7532\u57fa)\u8418", "en_name": ["2-(Chloromethyl)naphthalene", "Naphthalene, 2-(chloromethyl)-", "2-(Chloromethyl)naphthalene", "2-Menaphthyl chloride", "2-Naphthylmethyl chloride", "\u03b2-Chloromethylnaphthalene", "\u03b2-Naphthylmethyl chloride", "NSC 408896", "Naphthalen-2-ylmethyl chloride"], "SMILES": "C(Cl)C1=CC2=C(C=C1)C=CC=C2", "physical_data": {"Molecular Weight": "176.64", "Molecular Formula": "C11H9Cl", "Boiling Point": "162 \u00b0C @ Press: 15 Torr", "Melting Point": "48.5 \u00b0C"}}