{"cas_no": "2507-55-3", "cn_name": "2-\u7f9f\u57fa\u5341\u56db\u70f7\u9178", "en_name": ["2-Hydroxytetradecanoic acid", "Tetradecanoic acid, 2-hydroxy-", "2-Hydroxytetradecanoic acid", "\u03b1-Hydroxymyristic acid", "2-Hydroxymyristic acid", "\u03b1-Hydroxytetradecanoic acid", "(\u00b1)-\u03b1-Hydroxymyristic acid", "DL-2-Hydroxymyristic acid", "DL-2-Hydroxytetradecanoic acid", "(\u00b1)-2-Hydroxytetradecanoic acid", "NSC 18938"], "SMILES": "C(CCCCCCCCCCC)C(C(O)=O)O", "physical_data": {"Molecular Weight": "244.37", "Molecular Formula": "C14H28O3", "Melting Point": "88.2 \u00b0C"}}