{"cas_no": "250726-93-3", "cn_name": "2-(2,3-\u4e8c\u6c22\u567b\u5429\u5e76[3,4-B][1,4]\u4e8c\u5641\u82f1-5-\u57fa)-4,4,5,5-\u56db\u7532\u57fa-1,3,2-\u4e8c\u5641\u787c\u70f7", "en_name": ["2,3-Dihydro-5-(4,4,5,5-tetramethyl-1,3,2-dioxaborolan-2-yl)thieno[3,4-b]-1,4-dioxin", "Thieno[3,4-b]-1,4-dioxin, 2,3-dihydro-5-(4,4,5,5-tetramethyl-1,3,2-dioxaborolan-2-yl)-", "2,3-Dihydro-5-(4,4,5,5-tetramethyl-1,3,2-dioxaborolan-2-yl)thieno[3,4-b]-1,4-dioxin", "5-(4,4,5,5-Tetramethyl-1,3,2-dioxaborolan-2-yl)-2,3-dihydrothieno[3,4-b][1,4]dioxine", "2-(2,3-Dihydrothieno[3,4-b][1,4]dioxin-5-yl)-4,4,5,5-tetramethyl-1,3,2-dioxaborolane"], "SMILES": "CC1(C)OB(C2=C3C(=CS2)OCCO3)OC1(C)C", "physical_data": {"Molecular Weight": "268.14", "Molecular Formula": "C12H17BO4S", "Melting Point": "92 \u00b0C"}}