{"cas_no": "25087-26-7", "cn_name": "2-\u7532\u57fa-2-\u4e19\u70ef\u9178\u7684\u5747\u805a\u7269", "en_name": ["Poly(methacrylic acid)", "2-Propenoic acid, 2-methyl-, homopolymer", "Methacrylic acid, polymers", "Poly(methacrylic acid)", "Methacrylic acid polymer", "Acryloid AT 101", "Darex 41", "Methacrylic acid homopolymer", "Acrysol 60", "Versicol K-II", "90TV", "Taicrin P", "Versicol K 13", "Jurymer AC 30H", "PMA", "Accelar 20", "SLPI 400", "AC 30H", "Daxad 34", "PMAA", "FX 668F", "TP 941", "Light Ester A homopolymer", "T 602HB", "2-Methyl-2-propenoic acid homopolymer", "XX 2851Z", "Aquatreat AR 235", "ME 3498DR", "MeSH ID: D011109"], "SMILES": "C(C(O)=O)(C)=C", "physical_data": {"Molecular Weight": "", "Molecular Formula": "(C4H6O2)x", "Melting Point": "260-270 \u00b0C (decomp)", "Density": "1.0 g/cm\u00b3"}}