{"cas_no": "25084-14-4", "cn_name": "5-\u785d\u57fa-2-\u7ce0\u9170\u6c2f", "en_name": ["5-Nitro-2-furoyl chloride", "2-Furancarbonyl chloride, 5-nitro-", "2-Furoyl chloride, 5-nitro-", "5-Nitro-2-furancarbonyl chloride", "2-(Chlorocarbonyl)-5-nitrofuran", "5-Nitrofuroyl chloride", "5-Nitro-2-furoyl chloride", "NSC 74620"], "SMILES": "C(Cl)(=O)C=1OC(N(=O)=O)=CC1", "physical_data": {"Molecular Weight": "175.53", "Molecular Formula": "C5H2ClNO4", "Boiling Point": "137 \u00b0C @ Press: 15 Torr", "Melting Point": "38 \u00b0C"}}