{"cas_no": "2508-72-7", "cn_name": "\u76d0\u9178\u5b89\u4ed6\u5511\u5549", "en_name": ["Antazoline hydrochloride", "1H-Imidazole-2-methanamine, 4,5-dihydro-N-phenyl-N-(phenylmethyl)-, hydrochloride (1:1)", "1H-Imidazole-2-methanamine, 4,5-dihydro-N-phenyl-N-(phenylmethyl)-, monohydrochloride", "2-Imidazoline, 2-[(N-benzylanilino)methyl]-, monohydrochloride", "Antazoline hydrochloride", "Antistine hydrochloride", "2-(N-Benzylanilinomethyl)-2-imidazoline hydrochloride", "Phenazoline hydrochloride", "Antazoline chloride", "Antistina", "Antistin", "Antastan", "Histostab", "Antihistal", "Imidamine", "Azalone", "Antasten", "Dibistin", "5512M", "Fenazolina", "Histazine", "Ben-a-hist"], "SMILES": "N(CC1=CC=CC=C1)(CC=2NCCN2)C3=CC=CC=C3.Cl", "physical_data": {"Molecular Weight": "", "Molecular Formula": "C17H19N3.ClH", "Melting Point": "237-241 \u00b0C"}}