{"cas_no": "25085-50-1", "cn_name": "\u4e8c\u786b\u5316\u70f7\u57fa\u915a", "en_name": ["p-tert-Butylphenol-formaldehyde copolymer", "Formaldehyde, polymer with 4-(1,1-dimethylethyl)phenol", "Phenol, p-tert-butyl-, polymer with formaldehyde", "Phenol, 4-(1,1-dimethylethyl)-, polymer with formaldehyde", "Formaldehyde-p-tert-butylphenol resin", "Fenofor B", "Paraformaldehyde-p-tert-butylphenol copolymer", "p-tert-Butylphenol-formaldehyde resin", "p-tert-Butylphenol-formaldehyde polymer", "p-tert-Butylphenol-formaldehyde copolymers", "Varcum 921", "p-tert-Butylphenol-formaldehyde resol", "Resin 101K", "Formaldehyde-p-tert-butylphenol polymer", "4-tert-Butylphenol-formaldehyde polymer", "101K", "Balrezit 75", "Formaldehyde-p-tert-butylphenol copolymer", "Bakelite CKM 1634", "Bakelite CKM 1834", "p-t-Butylphenol-formaldehyde polymer", "Balresin", "Durez 26799", "101L", "Resin 1001", "Bakelite CKR 1634", "Formaldehyde-4-tert-butylphenol copolymer", "CKM 1634", "CKM 2103", "Alresen PA 101", "Alresen PA 104", "Hitanol 2181SL", "Hitanol 2353N", "F 60", "PP 3121", "Hitanol 2181", "Hitanol 1140", "Resinox P 97", "Viaphen PA 101", "101LK", "p-tert-Butylphenol-paraformaldehyde copolymer", "Bakelite 92370", "FFO 101", "Tamanol 521", "Tamanol 510", "Super Beckacite G 1050", "PR 1140", "75TBE", "Bakelite CKM", "Bakelite CKM 2432", "Resitop PS 2657", "PS 2657", "PR 50483", "Sumilit PR 50483", "CKR 1634", "TKB 140", "Hitanol 1154", "F 60 (polymer)", "CKM 2432", "101L (phenolic resin)", "Advorez 989", "H 2181", "Shonol CKM 2103", "Ribetak R 7522", "4-tert-Butylphenol-formaldehyde copolymer", "p-tert-Butylphenol-formaldehyde copolymer", "6572LB", "6204K", "Biolac 1071", "PAPS-PTBPN 01", "Durez 32333", "Hitanol H 2181", "SFC 112-65", "4-Tert-butylphenol-formaldehyde copolymer", "Formaldehyde-p-t-butylphenol copolymer", "Resin 204", "Jinghe 204", "Poly[[(1,1-dimethylethyl)hydroxyphenylene]methylene]", "Paraformaldehyde-p-tert-butylphenol copolymer", "p-tert-Butylphenol-Formalin copolymer", "Hexion 0751LA", "SL 1401", "PF 7001", "SC 204", "SC 204 (phenolic resin)", "SL 1400", "TDN 204 resin"], "SMILES": "C=O.C(C)(C)(C)C1=CC=C(O)C=C1", "physical_data": {"Molecular Weight": "", "Molecular Formula": "(C10H14O.CH2O)x", "Melting Point": "80 \u00b0C"}}