{"cas_no": "2508-29-4", "cn_name": "5-\u6c28\u57fa-1-\u620a\u9187", "en_name": ["5-Amino-1-pentanol", "1-Pentanol, 5-amino-", "5-Amino-1-pentanol", "5-Aminopentanol", "5-Hydroxypentylamine", "1-Amino-5-pentanol", "Pentanolamine", "5-Hydroxy-1-pentanamine", "1-Amino-5-hydroxypentane", "5-Aminopentan-1-ol"], "SMILES": "C(CCN)CCO", "physical_data": {"Molecular Weight": "103.16", "Molecular Formula": "C5H13NO", "Boiling Point": "221.5 \u00b0C", "Melting Point": "38.5 \u00b0C", "Density": "0.9488 g/cm\u00b3 @ Temp: 17 \u00b0C"}}