{"cas_no": "25086-18-4", "cn_name": "\u8272\u8c31\u8f7d\u4f53", "en_name": ["Isotactic polystyrene", "Benzene, ethenyl-, homopolymer, isotactic", "Styrene, polymers, isotactic", "Isotactic polystyrene", "EP 1340-128", "Isotactic styrene polymer"], "SMILES": "C(=C)C1=CC=CC=C1", "physical_data": {"Molecular Weight": "", "Molecular Formula": "(C8H8)x", "Melting Point": "222.9 \u00b0C", "Density": "1.058 g/cm\u00b3"}}