{"cas_no": "2509-26-4", "cn_name": "4,4'-\u4e8c(\u7532\u6c27\u57fa\u7532\u57fa)\u4e8c\u82ef\u919a", "en_name": ["1,1\u2032-Oxybis[4-(methoxymethyl)benzene]", "Benzene, 1,1\u2032-oxybis[4-(methoxymethyl)-", "Ether, bis(\u03b1-methoxy-p-tolyl)", "1,1\u2032-Oxybis[4-(methoxymethyl)benzene]", "4,4\u2032-Bis(methoxymethyl)diphenyl ether", "4,4\u2032-Dimethoxymethyldiphenyl ether", "1-(Methoxymethyl)-4-[4-(methoxymethyl)phenoxy]benzene"], "SMILES": "O(C1=CC=C(COC)C=C1)C2=CC=C(COC)C=C2", "physical_data": {"Molecular Weight": "258.31", "Molecular Formula": "C16H18O3", "Boiling Point": "158-161 \u00b0C @ Press: 2 Torr", "Density": "1.1015 g/cm\u00b3 @ Temp: 20 \u00b0C"}}