{"cas_no": "25109-28-8", "cn_name": "1-\u6eb4-4-\u73af\u5df1\u57fa\u82ef", "en_name": ["1-Bromo-4-cyclohexylbenzene", "Benzene, 1-bromo-4-cyclohexyl-", "Cyclohexane, (p-bromophenyl)-", "1-Bromo-4-cyclohexylbenzene", "4-Cyclohexylbromobenzene", "4-Bromocyclohexylbenzene", "p-Bromocyclohexylbenzene", "NSC 67355", "(4-Bromophenyl)cyclohexane"], "SMILES": "BrC1=CC=C(C=C1)C2CCCCC2", "physical_data": {"Molecular Weight": "239.15", "Molecular Formula": "C12H15Br", "Boiling Point": "153-155 \u00b0C @ Press: 9 Torr", "Density": "1.288 g/cm\u00b3 @ Temp: 18 \u00b0C"}}