{"cas_no": "25100-12-3", "cn_name": "N-\u73af\u5df1\u57fa\u7f9f\u57fa\u80fa\u76d0\u9178\u76d0", "en_name": ["Cyclohexanamine, N-hydroxy-, hydrochloride (1:1)", "Cyclohexanamine, N-hydroxy-, hydrochloride (1:1)", "Hydroxylamine, N-cyclohexyl-, hydrochloride", "Cyclohexanamine, N-hydroxy-, hydrochloride", "N-Cyclohexylhydroxylamine hydrochloride", "Cyclohexylhydroxylammonium chloride", "Cyclohexylhydroxyamine hydrochloride", "N-Hydroxycyclohexanamine hydrochloride", "Cyclohexylhydroxylamine hydrochloride"], "SMILES": "N(O)C1CCCCC1.Cl", "physical_data": {"Molecular Weight": "", "Molecular Formula": "C6H13NO.ClH", "Melting Point": "142 \u00b0C"}}