{"cas_no": "251085-87-7", "cn_name": "2-\u6c2f-5-\u6eb4\u82ef\u7532\u9178\u7532\u916f", "en_name": ["Methyl 5-bromo-2-chlorobenzoate", "Benzoic acid, 5-bromo-2-chloro-, methyl ester", "Methyl 5-bromo-2-chlorobenzoate", "5-Bromo-2-chlorobenzoic acid methyl ester", "2-Chloro-5-bromobenzoic acid methyl ester"], "SMILES": "C(OC)(=O)C1=C(Cl)C=CC(Br)=C1", "physical_data": {"Molecular Weight": "249.49", "Molecular Formula": "C8H6BrClO2", "Melting Point": "43-44 \u00b0C"}}