{"cas_no": "25103-58-6", "cn_name": "\u53d4\u5341\u4e8c\u70f7\u57fa\u786b\u9187", "en_name": ["tert-Dodecyl mercaptan", "tert-Dodecanethiol", "tert-Dodecyl mercaptan", "tert-Dodecyl thiol", "Sulfole 120", "t-DDM", "tert-Lauryl mercaptan", "TDM"], "SMILES": "", "physical_data": {"Molecular Weight": "", "Molecular Formula": "C12H26S", "Boiling Point": "160-193 \u00b0C", "Density": "0.855 g/cm\u00b3"}}