{"cas_no": "2510-23-8", "cn_name": "3-\u4e59\u7094\u57fa\u5421\u5576", "en_name": ["3-Ethynylpyridine", "Pyridine, 3-ethynyl-", "3-Ethynylpyridine", "3-Pyridylacetylene", "3-Pyridylethyne", "3-Pyridinylacetylene", "3-Pyridinylethyne"], "SMILES": "C(#C)C=1C=CC=NC1", "physical_data": {"Molecular Weight": "103.12", "Molecular Formula": "C7H5N", "Boiling Point": "87 \u00b0C @ Press: 30 Torr", "Melting Point": "34-35 \u00b0C"}}