{"cas_no": "25103-09-7", "cn_name": "\u5def\u57fa\u4e59\u9178\u5f02\u8f9b\u916f", "en_name": ["Isooctyl mercaptoacetate", "Acetic acid, 2-mercapto-, isooctyl ester", "Acetic acid, mercapto-, isooctyl ester", "Isooctyl alcohol, mercaptoacetate", "Isooctyl mercaptoacetate", "Isooctyl thioglycolate", "Isooctyl 2-mercaptoacetate"], "SMILES": "", "physical_data": {"Molecular Weight": "", "Molecular Formula": "C10H20O2S", "Boiling Point": "125 \u00b0C @ Press: 17 Torr", "Density": "0.9736 g/cm\u00b3 @ Temp: 25 \u00b0C"}}