{"cas_no": "2510-27-2", "cn_name": "(3,5-\u4e8c\u7532\u57fa\u5f02\u6076\u5511-4-\u57fa)\u4e59\u9178", "en_name": ["(3,5-Dimethylisoxazol-4-yl)acetic acid", "4-Isoxazoleacetic acid, 3,5-dimethyl-", "3,5-Dimethyl-4-isoxazoleacetic acid", "3,5-Dimethylisoxazole-4-acetic acid", "(3,5-Dimethylisoxazol-4-yl)acetic acid", "2-(3,5-Dimethylisoxazol-4-yl)acetic acid", "2-(3,5-Dimethyl-1,2-oxazol-4-yl)acetic acid", "2-(Dimethyl-1,2-oxazol-4-yl)acetic acid"], "SMILES": "C(C(O)=O)C=1C(C)=NOC1C", "physical_data": {"Molecular Weight": "155.15", "Molecular Formula": "C7H9NO3", "Melting Point": "120-121 \u00b0C"}}