{"cas_no": "2510-95-4", "cn_name": "\u0391-\u82ef\u57fa\u8089\u6842\u8148", "en_name": ["\u03b1-Cyanostilbene", "Benzeneacetonitrile, \u03b1-(phenylmethylene)-", "Acrylonitrile, 2,3-diphenyl-", "Acrylonitrile, \u03b1,\u03b2-diphenyl-", "\u03b1-(Phenylmethylene)benzeneacetonitrile", "\u03b1-Stilbenecarbonitrile", "\u03b1-Cyanostilbene", "Benzylidene(phenyl)acetonitrile", "\u03b1-Phenylcinnamonitrile", "2,3-Diphenylacrylonitrile", "1-Cyano-1,2-diphenylethene", "2,3-Diphenylpropenonitrile", "NSC 12489", "NSC 2018"], "SMILES": "C(=CC1=CC=CC=C1)(C#N)C2=CC=CC=C2", "physical_data": {"Molecular Weight": "205.25", "Molecular Formula": "C15H11N", "Boiling Point": "120-125 \u00b0C @ Press: 0.5 Torr", "Melting Point": "86 \u00b0C"}}