{"cas_no": "2510-36-3", "cn_name": "3,5-\u4e8c\u7532\u57fa\u5f02\u5641\u5511-4-\u7fa7\u9178", "en_name": ["3,5-Dimethyl-4-isoxazolecarboxylic acid", "4-Isoxazolecarboxylic acid, 3,5-dimethyl-", "3,5-Dimethyl-4-isoxazolecarboxylic acid", "4-Carboxy-3,5-dimethylisoxazole", "3,5-Dimethyl-1,2-oxazole-4-carboxylic acid"], "SMILES": "C(O)(=O)C=1C(C)=NOC1C", "physical_data": {"Molecular Weight": "141.12", "Molecular Formula": "C6H7NO3", "Melting Point": "42-43 \u00b0C"}}