{"cas_no": "25109-57-3", "cn_name": "1\uff0c2-\u4e8c\u6eb4-3-\u4e01\u916e", "en_name": ["3,4-Dibromo-2-butanone", "2-Butanone, 3,4-dibromo-", "3,4-Dibromo-2-butanone", "1,2-Dibromoethyl methyl ketone"], "SMILES": "C(C(C)=O)(CBr)Br", "physical_data": {"Molecular Weight": "229.90", "Molecular Formula": "C4H6Br2O", "Boiling Point": "97 \u00b0C @ Press: 15 Torr", "Density": "1.9594 g/cm\u00b3 @ Temp: 20 \u00b0C"}}