{"cas_no": "2510-99-8", "cn_name": "2-\u82ef\u57fa\u4e19\u9178\u4e59\u916f", "en_name": ["Ethyl 2-phenylpropionate", "Benzeneacetic acid, \u03b1-methyl-, ethyl ester", "Hydratropic acid, ethyl ester", "Ethyl 2-phenylpropionate", "Ethyl hydrotropate", "Ethyl 2-phenylpropanoate", "Ethyl \u03b1-phenylpropionate", "\u03b1-Methylbenzeneacetic acid ethyl ester", "NSC 254979", "2-Phenylpropionic acid ethyl ester"], "SMILES": "C(C(OCC)=O)(C)C1=CC=CC=C1", "physical_data": {"Molecular Weight": "178.23", "Molecular Formula": "C11H14O2", "Boiling Point": "229-230 \u00b0C"}}