{"cas_no": "25103-87-1", "cn_name": "\u805a(1,4-\u4e01\u70ef\u5df1\u4e8c\u9178\u916f)", "en_name": ["Adipic acid-1,4-butanediol copolymer", "Hexanedioic acid, polymer with 1,4-butanediol", "Adipic acid, polyester with 1,4-butanediol", "Adipic acid, esters (poly-) with 1,4-butanediol", "1,4-Butanediol, polyester with adipic acid", "1,4-Butanediol, polymer with hexanedioic acid", "Poly(tetramethylene adipate)", "Poly(1,4-butylene adipate)", "Poly(butylene adipate)", "Adipic acid-1,4-butanediol copolymer", "Poly(1,4-butanediol adipate)", "Adipic acid-butanediol polymer", "Adipic acid-1,4-butanediol polymer", "Butylene adipate polymer", "Butylene glycol-adipic acid copolymer", "PBAG", "Adipic acid-1,4-butylene glycol polymer", "Adipic acid-tetramethylene glycol polymer", "Adipic acid-1,4-butanediol polyester", "Adipic acid-butylene glycol polymer", "Adipic acid-tetramethylene glycol copolymer", "Adipic acid-1,4-butanediol copolymers", "Adipic acid-butylene glycol copolymer", "Adipic acid-butanediol copolymer", "Adipic acid-1,4-butylene glycol copolymer", "1,4-Butanediol-hexanedioic acid copolymer", "S 102250", "1,4-Butanediol-adipic acid copolymer", "Polybutylene adipate glycol copolymer", "1,4-Butylene-adipate glycol copolymer", "1,4-Butanediol-1,6-hexanedioic acid copolymer", "Butanediol-adipic acid copolymer"], "SMILES": "C(CCO)CO.C(CCC(O)=O)CC(O)=O", "physical_data": {"Molecular Weight": "", "Molecular Formula": "(C6H10O4.C4H10O2)x", "Melting Point": "58 \u00b0C"}}