{"cas_no": "2510-55-6", "cn_name": "9-\u8148\u83f2", "en_name": ["9-Phenanthrenecarbonitrile", "9-Phenanthrenecarbonitrile", "9-Cyanophenanthrene", "9-Phenanthronitrile", "9-Phenanthrenenitrile", "NSC 59773"], "SMILES": "C(#N)C1=C2C(=C3C(=C1)C=CC=C3)C=CC=C2", "physical_data": {"Molecular Weight": "203.24", "Molecular Formula": "C15H9N", "Boiling Point": "255-280 \u00b0C @ Press: 30 Torr", "Melting Point": "111-111.3 \u00b0C"}}