{"cas_no": "25103-12-2", "cn_name": "\u4e09\u5f02\u8f9b\u57fa\u4e9a\u78f7\u9178\u916f", "en_name": ["Phosphorous acid, triisooctyl ester", "Phosphorous acid, triisooctyl ester", "Isooctyl phosphite", "Triisooctyl phosphite", "Isooctyl phosphite ((C8H17O)3P)"], "SMILES": "", "physical_data": {"Molecular Weight": "", "Molecular Formula": "C24H51O3P", "Boiling Point": "120 \u00b0C @ Press: 4 Torr", "Density": "0.891 g/cm\u00b3"}}