{"cas_no": "2511-09-3", "cn_name": "\u82ef\u57fa\u81a6\u9178\u4e59\u916f", "en_name": ["Ethyl phenylphosphinate", "Phosphinic acid, P-phenyl-, ethyl ester", "Phosphinic acid, phenyl-, ethyl ester", "Ethyl phenylphosphinate", "O-Ethyl phenylphosphinate", "Ethoxyphenylphosphine oxide", "Ethyl benzenephosphinite", "Phenylphosphinic acid ethyl ester", "NSC 300841"], "SMILES": "P(OCC)(=O)C1=CC=CC=C1", "physical_data": {"Molecular Weight": "170.15", "Molecular Formula": "C8H11O2P", "Boiling Point": "116-117 \u00b0C @ Press: 4 Torr"}}