{"cas_no": "2511-22-0", "cn_name": "3,5-\u4e8c\u53d4\u4e01\u57fa-4-\u7f9f\u57fa\u82ef\u7532\u9178\u7532\u916f", "en_name": ["Methyl 3,5-bis(1,1-dimethylethyl)-4-hydroxybenzoate", "Benzoic acid, 3,5-bis(1,1-dimethylethyl)-4-hydroxy-, methyl ester", "Benzoic acid, 3,5-di-tert-butyl-4-hydroxy-, methyl ester", "Methyl 3,5-bis(1,1-dimethylethyl)-4-hydroxybenzoate", "Methyl 3,5-Di-tert-butyl-4-hydroxybenzoate", "3,5-Di-tert-butyl-4-hydroxybenzoic acid methyl ester", "4-(Methoxycarbonyl)-2,6-di-tert-butylphenol", "2,6-Di-tert-butyl-4-methoxycarbonylphenol"], "SMILES": "C(C)(C)(C)C1=C(O)C(C(C)(C)C)=CC(C(OC)=O)=C1", "physical_data": {"Molecular Weight": "264.36", "Molecular Formula": "C16H24O3", "Melting Point": "87-88 \u00b0C"}}