{"cas_no": "25115-74-6", "cn_name": "4-\u6c30\u57fa-4-\u82ef\u57fa\u73af\u5df1\u916e", "en_name": ["4-Oxo-1-phenylcyclohexanecarbonitrile", "Cyclohexanecarbonitrile, 4-oxo-1-phenyl-", "4-Oxo-1-phenylcyclohexanecarbonitrile", "4-Cyano-4-phenylcyclohexanone", "4-Phenyl-4-cyanocyclohexanone", "4-Phenyl-4-cyanocyclohexan-1-one", "4-Oxo-1-phenylcyclohexane-1-carbonitrile"], "SMILES": "C(#N)C1(CCC(=O)CC1)C2=CC=CC=C2", "physical_data": {"Molecular Weight": "199.25", "Molecular Formula": "C13H13NO", "Boiling Point": "148-150 \u00b0C @ Press: 0.4 Torr", "Melting Point": "114-115 \u00b0C"}}