{"cas_no": "25117-75-3", "cn_name": "3-\u4e59\u6c27\u57fa\u82ef\u7532\u8148", "en_name": ["3-Ethoxybenzonitrile", "Benzonitrile, 3-ethoxy-", "Benzonitrile, m-ethoxy-", "3-Ethoxybenzonitrile", "m-Ethoxybenzonitrile", "3-(Ethyloxy)benzonitrile"], "SMILES": "O(CC)C1=CC(C#N)=CC=C1", "physical_data": {"Molecular Weight": "147.17", "Molecular Formula": "C9H9NO", "Boiling Point": "241-244 \u00b0C"}}