{"cas_no": "25122-46-7", "cn_name": "\u4e19\u9178\u6c2f\u500d\u4ed6\u7d22", "en_name": ["Clobetasol propionate", "Pregna-1,4-diene-3,20-dione, 21-chloro-9-fluoro-11-hydroxy-16-methyl-17-(1-oxopropoxy)-, (11\u03b2,16\u03b2)-", "Pregna-1,4-diene-3,20-dione, 21-chloro-9-fluoro-11\u03b2,17-dihydroxy-16\u03b2-methyl-, 17-propionate", "(11\u03b2,16\u03b2)-21-Chloro-9-fluoro-11-hydroxy-16-methyl-17-(1-oxopropoxy)pregna-1,4-diene-3,20-dione", "21-Chloro-21-deoxybetamethasone 17-propionate", "Dermovate", "Clobetasol propionate", "Clobetasol 17-propionate", "CGP 9555", "Clobesol", "Temovate", "Clobederm", "GR 2/925", "Dermoxin", "Dermoxinale", "Dermoval", "CCl 4725", "Karison", "Clobex", "Olux", "Skin Cap", "Olux-E", "Tenovate"], "SMILES": "O(C(CC)=O)C1(C(CCl)=O)C2(C)C(CC1C)C3C(F)(C(O)C2)C4(C)C(CC3)=CC(=O)C=C4", "physical_data": {"Molecular Weight": "466.97", "Molecular Formula": "C25H32ClFO5", "Melting Point": "195.5-197 \u00b0C"}}