{"cas_no": "2512-24-5", "cn_name": "N-\u53d4\u4e01\u57fa\u82ef\u78fa\u9170\u80fa", "en_name": ["N-(1,1-Dimethylethyl)benzenesulfonamide", "Benzenesulfonamide, N-(1,1-dimethylethyl)-", "Benzenesulfonamide, N-tert-butyl-", "N-(1,1-Dimethylethyl)benzenesulfonamide", "N-tert-Butylbenzenesulfonamide", "tert-Butyl(phenylsulfonyl)amine", "tert-Butylaminosulfonylbenzene", "NSC 230371"], "SMILES": "S(NC(C)(C)C)(=O)(=O)C1=CC=CC=C1", "physical_data": {"Molecular Weight": "213.30", "Molecular Formula": "C10H15NO2S", "Melting Point": "77-78 \u00b0C"}}