{"cas_no": "25122-57-0", "cn_name": "\u4e01\u9178\u6c2f\u500d\u4ed6\u677e", "en_name": ["Clobetasone butyrate", "Pregna-1,4-diene-3,11,20-trione, 21-chloro-9-fluoro-16-methyl-17-(1-oxobutoxy)-, (16\u03b2)-", "Pregna-1,4-diene-3,11,20-trione, 21-chloro-9-fluoro-17-hydroxy-16\u03b2-methyl-, butyrate", "Butyric acid, ester with 21-chloro-9-fluoro-17-hydroxy-16\u03b2-methylpregna-1,4-diene-3,11,20-trione", "(16\u03b2)-21-Chloro-9-fluoro-16-methyl-17-(1-oxobutoxy)pregna-1,4-diene-3,11,20-trione", "Clobetasone butyrate", "Clobetasone 17-butyrate", "Molivate", "Eumovate", "SN 203", "Kindavate", "Emovate", "GR 2/1214", "CCl 5537"], "SMILES": "O(C(CCC)=O)C1(C(CCl)=O)C2(C)C(CC1C)C3C(F)(C(=O)C2)C4(C)C(CC3)=CC(=O)C=C4", "physical_data": {"Molecular Weight": "478.98", "Molecular Formula": "C26H32ClFO5", "Melting Point": "90-100 \u00b0C"}}