{"cas_no": "25122-41-2", "cn_name": "\u6c2f\u500d\u4ed6\u7d22", "en_name": ["Clobetasol", "Pregna-1,4-diene-3,20-dione, 21-chloro-9-fluoro-11,17-dihydroxy-16-methyl-, (11\u03b2,16\u03b2)-", "Pregna-1,4-diene-3,20-dione, 21-chloro-9-fluoro-11\u03b2,17-dihydroxy-16\u03b2-methyl-", "(11\u03b2,16\u03b2)-21-Chloro-9-fluoro-11,17-dihydroxy-16-methylpregna-1,4-diene-3,20-dione", "Clobetasol", "21-Chloro-9-fluoro-11\u03b2,17-dihydroxy-16\u03b2-methylpregna-1,4-diene-3,20-dione", "Dovate"], "SMILES": "FC12C(C3C(C)(CC1O)C(C(CCl)=O)(O)C(C)C3)CCC=4C2(C)C=CC(=O)C4", "physical_data": {"Molecular Weight": "410.91", "Molecular Formula": "C22H28ClFO4", "Melting Point": "195.5-197 \u00b0C"}}