{"cas_no": "25127-29-1", "cn_name": "\u514b\u73ed\u5b81", "en_name": ["Crebanine", "5H-Benzo[g]-1,3-benzodioxolo[6,5,4-de]quinoline, 6,7,7a,8-tetrahydro-9,10-dimethoxy-7-methyl-, (7R)-", "Aporphine, 8,9-dimethoxy-1,2-(methylenedioxy)-", "Crebanine", "5H-Benzo[g]-1,3-benzodioxolo[6,5,4-de]quinoline, 6,7,7a,8-tetrahydro-9,10-dimethoxy-7-methyl-, (R)-", "(7R)-6,7,7a,8-Tetrahydro-9,10-dimethoxy-7-methyl-5H-benzo[g]-1,3-benzodioxolo[6,5,4-de]quinoline", "Crebanin", "(-)-Crebanine", "(R)-9,10-Dimethoxy-7-methyl-6,7,7a,8-tetrahydro-5H-[1,3]dioxolo[4\u2032,5\u2032:4,5]benzo[1,2,3-de]benzo[g]quinoline"], "SMILES": "CN1C2C=3C(C=4C(C2)=C(OC)C(OC)=CC4)=C5C(=CC3CC1)OCO5", "physical_data": {"Molecular Weight": "339.39", "Molecular Formula": "C20H21NO4", "Melting Point": "126 \u00b0C"}}