{"cas_no": "251320-86-2", "cn_name": "2-\u4e8c\u73af\u5df1\u57fa\u78f7-2'-\u7532\u57fa\u8054\u82ef", "en_name": ["2-(Dicyclohexylphosphino)-2\u2032-methylbiphenyl", "Phosphine, dicyclohexyl(2\u2032-methyl[1,1\u2032-biphenyl]-2-yl)-", "Dicyclohexyl(2\u2032-methyl[1,1\u2032-biphenyl]-2-yl)phosphine", "2-(Dicyclohexylphosphino)-2\u2032-methylbiphenyl", "MePhos"], "SMILES": "P(C1=C(C=CC=C1)C2=C(C)C=CC=C2)(C3CCCCC3)C4CCCCC4", "physical_data": {"Molecular Weight": "364.50", "Molecular Formula": "C25H33P", "Melting Point": "109-111 \u00b0C"}}