{"cas_no": "25134-15-0", "cn_name": "\u73af\u620a\u4e8c\u7094\u4e09\u7532\u57fa\u7845\u70f7", "en_name": ["Trimethylsilylcyclopentadiene", "1,3-Cyclopentadiene, (trimethylsilyl)-", "Silane, cyclopentadienyltrimethyl-", "(Trimethylsilyl)-1,3-cyclopentadiene", "Cyclopentadienyltrimethylsilane", "Trimethylcyclopentadienylsilane", "Trimethylsilylcyclopentadiene"], "SMILES": "", "physical_data": {"Molecular Weight": "", "Molecular Formula": "C8H14Si", "Boiling Point": "138-140 \u00b0C", "Density": "0.833 g/cm\u00b3"}}