{"cas_no": "25135-51-7", "cn_name": "\u805a\u781c\u6811\u8102", "en_name": ["Bisphenol A polysulfone", "Poly[oxy-1,4-phenylenesulfonyl-1,4-phenyleneoxy-1,4-phenylene(1-methylethylidene)-1,4-phenylene]", "Poly(oxy-p-phenylenesulfonyl-p-phenyleneoxy-p-phenyleneisopropylidene-p-phenylene)", "Poly(sulfonyl-p-phenyleneoxy-p-phenyleneisopropylidene-p-phenyleneoxy-p-phenylene)", "Polymer 360", "Polysulfone P 1700", "Poly(oxy-1,4-phenylenesulfonyl-1,4-phenyleneoxy-1,4-phenyleneisopropylidene-1,4-phenylene)", "Bisphenol A polysulfone", "Polysulfone P 3500", "Poly(oxy-p-phenyleneisopropylidene-p-phenyleneoxy-p-phenylenesulfonyl-p-phenylene)", "Bisphenol A-bis(p-chlorophenyl) sulfone polymer, SRU", "Bisphenol A-4,4\u2032-sulfonyldiphenol polymer, SRU", "Bis(p-fluorophenyl) sulfone-bisphenol A polymer, SRU", "Udel P 1720", "PSF 1700", "P 1700", "Udel P 1700", "Bis(4-chlorophenyl) sulfone-2,2-bis(4-hydroxyphenyl)propane copolymer, SRU", "Bisphenol A-4,4\u2032-dichlorodiphenyl sulfone polymer, SRU", "Bisphenol A-bis(4-chlorophenyl) sulfone copolymer, SRU", "Bisphenol A-4,4\u2032-difluorodiphenyl sulfone copolymer, SRU", "Bisphenol A-p-chlorophenyl sulfone copolymer, SRU", "4,4\u2032-Dichlorodiphenyl sulfone-diphenylolpropane polymer, SRU", "PSF 3500", "Bisphenol A-4,4\u2032-dihydroxydiphenyl sulfone polymer, SRU", "Kimfone", "Dian-4,4\u2032-difluorodiphenyl sulfone copolymer, SRU", "Union Carbide P 1700", "P 1720", "Udel P 3500", "Polysulfone A", "Poly[oxy-1,4-phenylene(1-methylethylidene)-1,4-phenyleneoxy-1,4-phenylenesulfonyl-1,4-phenylene]", "4,4\u2032-Dichlorodiphenylsulfone-diphenylolpropane copolymer, sru", "P 3500", "Udel P 1700NT11", "Bisphenol A disodium salt-4,4\u2032-dichlorodiphenyl sulfone copolymer, SRU", "S 100", "Ultrason S", "Thermalux", "Udel P 1700NT", "Udel P 1800", "Udel 1700", "Radel 5000", "Bisphenol A-4,4\u2032-dichlorodiphenyl sulfone copolymer, SRU", "Reigning", "Reigning Resin", "Udel P 3703", "Bis(4-chlorophenyl) sulfone-bisphenol A copolymer, SRU", "Bisphenol A-p,p\u2032-dichlorodiphenyl sulfone copolymer, SRU", "Poly[sulfonyl-1,4-phenyleneoxy-1,4-phenylene(1-methylethylidene)-1,4-phenyleneoxy-1,4-phenylene]", "Ultrason S 2000", "Ultrason S 2000G2", "Ultrason S 2000G4", "Ultrason S 2000G6", "PSF-N", "Udel PI 1700", "P 1700NT", "Udel PS-U 3500", "S 100 (polyethersulfone)", "Udel P 3900", "Victrex P 1700", "PSF", "PS-N", "PS-N (polysulfone)", "P 3703", "Desal E 100", "PSK 1", "PSK 1 (polysulfone)", "Udel Polysulfone P 1700", "PSF-P 1800", "Polysulfone 1700", "Udel GF 130", "PS 1700", "PS 3500", "Udel P 1800NT", "PEESF", "Bisphenol A-p-dichlorodiphenylsulfone copolymer, SRU", "Udel PSF", "P 1800NT", "Ultrason S 2010", "Amicon Diaflo PM 30", "PM 30", "Diaflo PM 30", "Amicon PM 30", "Ultrason S 3010", "Bisphenol A-4,4\u2032-dihydroxydiphenyl sulfone copolymer, sru", "IRIS 3026", "SG 90", "UCC 80", "SG 90 (polysulfone)", "4,4\u2032-Dichlorodiphenyl sulfone-diphenylolpropane disodium salt copolymer, sru", "Ultrason S 1010", "P 1700NT11", "Udel P 1835NT11", "Amoco P 3500", "P 1800", "Sumilit FS 1200", "FS 1200", "Udel RP 1700", "4,4\u2032-Bisfluorophenyl sulfone-bisphenol A copolymer, SRU", "P 1700BK937", "Udel P 3703NT", "Gafone S 1500", "S 1500", "Udel P 1700NT-LCD", "S 2010", "Gafone S 1500P", "B 10 (polyethersulfone)", "B 10", "OASO 10D", "Udel P 3703NT11", "Udel bisphenol A-polysulfone", "PSTP", "Ultrason 56010", "Thermalux P 1700NT11", "Ultrason S 6010", "Ultrason S 6010 Natural", "Udel 3500PSF", "Udel P 3700", "YMERSP 3001", "Udel P 3500LCD-MB8", "P 3500LCD-MB8", "Gafone 3200P", "Gafone PES 3200P", "Thermalux P 1700", "Udel P 3500LCD-MB7", "P 3500LCD-MB7", "S 3010", "Bisphenol A-bis(4-fluorophenyl) sulfone copolymer, SRU", "Lasulf", "Ultrason S 2010 Natural", "Udel 3500P", "Udel 1700NT", "Tris(2,4,6-trimethoxyphenyl) polysulfone methylene quaternary phosphonium hydroxide", "P 1001A", "3200P", "Lasulf Natural 0030", "Ultrason S 3010NA", "CPM 1", "S 6010", "Udel P 3500MB7", "P 1800NT11", "Udel P 1800NT11", "Solvay P 3500L", "Udel 1700NT-LCD", "PSF 150", "PSF 150 (polysulfone)", "Ultrason 6010P"], "SMILES": "S(=O)(=O)(C1=CC=C(OC2=CC=C(C(C)(C)C3=CC=C(*)C=C3)C=C2)C=C1)C4=CC=C(O*)C=C4", "physical_data": {"Molecular Weight": "", "Molecular Formula": "(C27H22O4S)n", "Melting Point": "185 \u00b0C", "Density": "1.240 g/cm\u00b3"}}