{"cas_no": "25134-01-4", "cn_name": "2,6-\u4e8c\u7532\u57fa\u5bf9\u805a\u82ef\u6c27", "en_name": ["2,6-Xylenol homopolymer", "Phenol, 2,6-dimethyl-, homopolymer", "2,6-Xylenol, polymers", "Poly(2,6-xylenol)", "2,6-Dimethylphenol polymer", "2,6-Xylenol polymer", "2,6-Dimethylphenylene oxide polymer", "Poly(2,6-dimethyl-1,4-phenylene oxide)", "2,6-Dimethylphenol homopolymer", "Sorfix", "Poly(2,6-dimethylphenol)", "2,6-Xylenol homopolymer", "2,6-Dimethyl-1,4-phenylene oxide homopolymer", "2,6-Dimethyl-1,4-phenylene ether homopolymer", "P 101M", "Poly(2,6-dimethylphenylene oxide)", "Polymer 20 mb"], "SMILES": "OC1=C(C)C=CC=C1C", "physical_data": {"Molecular Weight": "", "Molecular Formula": "(C8H10O)x", "Melting Point": "258-261 \u00b0C", "Density": "1.069 g/cm\u00b3"}}