{"cas_no": "25137-00-2", "cn_name": "(R)-(-)-\u54cc\u5576-3-\u7532\u9178", "en_name": ["(-)-Nipecotic acid", "3-Piperidinecarboxylic acid, (3R)-", "Nipecotic acid, (R)-(-)-", "3-Piperidinecarboxylic acid, (R)-", "(3R)-3-Piperidinecarboxylic acid", "(-)-Nipecotic acid", "R-(-)-Nipecotic acid", "(R)-Nipecotic acid", "L-Nipecotic acid", "L-(-)-Nipecotic acid", "(R)-3-Piperidinecarboxylic acid", "(3R)-Piperidine-3-carboxylic acid", "(R)-(-)-Nipecotic acid"], "SMILES": "C(O)(=O)C1CCCNC1", "physical_data": {"Molecular Weight": "129.16", "Molecular Formula": "C6H11NO2", "Melting Point": "259-260 \u00b0C"}}