{"cas_no": "25140-86-7", "cn_name": "2-(2-\u6c2f\u82ef\u6c27\u57fa)\u4e19\u9178", "en_name": ["2-(2-Chlorophenoxy)propionic acid", "Propanoic acid, 2-(2-chlorophenoxy)-", "Propionic acid, 2-(o-chlorophenoxy)-", "2-(2-Chlorophenoxy)propanoic acid", "2-(o-Chlorophenoxy)propionic acid", "2-(2-Chlorophenoxy)propionic acid", "(\u00b1)-2-(2-Chlorophenoxy)propionic acid", "(RS)-2-(2-Chlorophenoxy)propionic acid", "(\u00b1)-2-(2-Chlorophenoxy)propanoic acid"], "SMILES": "O(C(C(O)=O)C)C1=C(Cl)C=CC=C1", "physical_data": {"Molecular Weight": "200.62", "Molecular Formula": "C9H9ClO3", "Melting Point": "114-115 \u00b0C"}}