{"cas_no": "25150-27-0", "cn_name": "2-\u6c28\u57fa-5,6-\u4e8c\u6c2f\u82ef\u5e76\u567b\u5511", "en_name": ["6,7-Dichloro-2-benzothiazolamine", "2-Benzothiazolamine, 6,7-dichloro-", "Benzothiazole, 2-amino-6,7-dichloro-", "6,7-Dichloro-2-benzothiazolamine", "2-Amino-6,7-dichlorobenzothiazole"], "SMILES": "ClC1=C2C(N=C(N)S2)=CC=C1Cl", "physical_data": {"Molecular Weight": "219.09", "Molecular Formula": "C7H4Cl2N2S", "Melting Point": "240-242 \u00b0C"}}