{"cas_no": "25155-18-4", "cn_name": "\u6c2f\u5316\u82c4\u4e59\u6c27\u94f5", "en_name": ["Methylbenzethonium chloride", "Benzenemethanaminium, N,N-dimethyl-N-[2-[2-[methyl-4-(1,1,3,3-tetramethylbutyl)phenoxy]ethoxy]ethyl]-, chloride (1:1)", "Ammonium, benzyldimethyl[2-[2-[[4-(1,1,3,3-tetramethylbutyl)tolyl]oxy]ethoxy]ethyl]-, chloride", "Methylbenzethonium chloride", "Benzenemethanaminium, N,N-dimethyl-N-[2-[2-[methyl-4-(1,1,3,3-tetramethylbutyl)phenoxy]ethoxy]ethyl]-, chloride", "Benzyldimethyl[2-[2-[[4-(1,1,3,3-tetramethylbutyl)tolyl]oxy]ethoxy]ethyl]ammonium chloride", "Hyamine 10X", "Diaparene chloride", "2-(2-(p-(Diisobutyl)cresoxy)ethoxy)ethyldimethylbenzylammonium chloride", "Hyamina 10"], "SMILES": "", "physical_data": {"Molecular Weight": "", "Molecular Formula": "C28H44NO2.Cl", "Melting Point": "161-163 \u00b0C"}}