{"cas_no": "25155-23-1", "cn_name": "\u78f7\u9178\u4e09(\u4e8c\u7532\u82ef)\u916f", "en_name": ["Trixylenyl phosphate", "Phenol, dimethyl-, 1,1\u2032,1\u2032\u2032-phosphate", "Xylenol, phosphate (3:1)", "Phenol, dimethyl-, phosphate (3:1)", "Xylyl phosphate", "Xylyl phosphate ((C8H9O)3PO)", "Trixylenyl phosphate", "Trixylyl phosphate", "Coalite NTP", "Phosphoric acid trixylyl ester", "Phosflex 179", "TXP", "Durad 220X", "Antiblaze 524", "Antiblaze TXP", "Durad TXP", "Fyrquel L", "WSFR-TXP"], "SMILES": "", "physical_data": {"Molecular Weight": "", "Molecular Formula": "C24H27O4P", "Boiling Point": "243-265 \u00b0C @ Press: 10 Torr", "Density": "1.155 g/cm\u00b3"}}