{"cas_no": "25154-52-3", "cn_name": "\u58ec\u57fa\u915a", "en_name": ["Nonylphenol", "Phenol, nonyl-", "Nonylphenol", "n-Nonylphenol", "Monononylphenol"], "SMILES": "", "physical_data": {"Molecular Weight": "", "Molecular Formula": "C15H24O", "Boiling Point": "293-297 \u00b0C", "Melting Point": "2 \u00b0C", "Density": "0.950 g/cm\u00b3 @ Temp: 20 \u00b0C"}}