{"cas_no": "2516-96-3", "cn_name": "2-\u6c2f-5-\u785d\u57fa\u82ef\u7532\u9178", "en_name": ["2-Chloro-5-nitrobenzoic acid", "Benzoic acid, 2-chloro-5-nitro-", "2-Chloro-5-nitrobenzoic acid", "6-Chloro-3-nitrobenzoic acid", "4-Chloro-3-carboxynitrobenzene", "5-Nitro-2-chlorobenzoic acid", "NSC 8441"], "SMILES": "C(O)(=O)C1=CC(N(=O)=O)=CC=C1Cl", "physical_data": {"Molecular Weight": "201.56", "Molecular Formula": "C7H4ClNO4", "Melting Point": "166.5 \u00b0C", "Density": "1.678 g/cm\u00b3"}}