{"cas_no": "25161-41-5", "cn_name": "\u918b\u620a\u66f2\u916f", "en_name": ["Acevaltrate", "Butanoic acid, 3-(acetyloxy)-3-methyl-, (1S,2\u2032R,6S,7aS)-4-[(acetyloxy)methyl]-6,7a-dihydro-1-(3-methyl-1-oxobutoxy)spiro[cyclopenta[c]pyran-7(1H),2\u2032-oxiran]-6-yl ester", "Butanoic acid, 3-(acetyloxy)-3-methyl-, 4-[(acetyloxy)methyl]-6,7a-dihydro-1-(3-methyl-1-oxobutoxy)spiro[cyclopenta[c]pyran-7(1H),2\u2032-oxiran]-6-yl ester, [1S-(1\u03b1,6\u03b1,7\u03b2,7a\u03b1)]-", "Spiro[cyclopenta[c]pyran-7(1H),2\u2032-oxirane], butanoic acid deriv.", "Acevaltrate", "Acevaltratum", "(Acetyloxy)valepotriate", "Acetoxyvaltrate", "Acetovaltrate"], "SMILES": "O(C(CC(OC(C)=O)(C)C)=O)C1C2(C3C(=C1)C(COC(C)=O)=COC3OC(CC(C)C)=O)CO2", "physical_data": {"Molecular Weight": "480.50", "Molecular Formula": "C24H32O10", "Melting Point": "80-81 \u00b0C"}}