{"cas_no": "251647-50-4", "cn_name": "5'-O-[\u4e8c(4-\u7532\u6c27\u57fa\u82ef\u57fa)\u82ef\u57fa\u7532\u57fa]-2'-O-(2-\u7532\u6c27\u57fa\u4e59\u57fa)-N-(2-\u7532\u57fa-1-\u6c27\u4ee3\u4e19\u57fa)\u9e1f\u82f7", "en_name": ["5\u2032-O-[Bis(4-methoxyphenyl)phenylmethyl]-2\u2032-O-(2-methoxyethyl)-N-(2-methyl-1-oxopropyl)guanosine", "Guanosine, 5\u2032-O-[bis(4-methoxyphenyl)phenylmethyl]-2\u2032-O-(2-methoxyethyl)-N-(2-methyl-1-oxopropyl)-", "5\u2032-O-[Bis(4-methoxyphenyl)phenylmethyl]-2\u2032-O-(2-methoxyethyl)-N-(2-methyl-1-oxopropyl)guanosine", "23: PN: US20030198965 PAGE: 20 claimed sequence", "19: PN: US20030211606 PAGE: 20 claimed sequence", "26: PN: WO03106645 PAGE: 74 claimed sequence", "25: PN: US20040014699 PAGE: 21 claimed sequence", "24: PN: US20040014051 PAGE: 23 claimed sequence", "23: PN: US20040014050 PAGE: 21 claimed sequence", "22: PN: US20040014049 PAGE: 21 claimed sequence", "23: PN: US20040014048 PAGE: 21 claimed sequence", "22: PN: US20040014047 PAGE: 21 claimed sequence", "22: PN: US20040006030 PAGE: 23 claimed sequence", "26: PN: US20040006029 PAGE: 23 claimed sequence", "97: PN: US20040005707 PAGE: 21 claimed sequence", "23: PN: US20040005570 PAGE: 21 claimed sequence", "20: PN: US20040005569 PAGE: 22 claimed sequence", "24: PN: US20040005565 PAGE: 17-22 claimed sequence", "5\u2032-O-(4,4\u2032-Dimethoxytrityl)-N-isobutyryl-2\u2032-O-(2-methoxyethyl)guanosine"], "SMILES": "C(OCC1OC(C(OCCOC)C1O)N2C3=C(N=C2)C(=O)N=C(NC(C(C)C)=O)N3)(C4=CC=C(OC)C=C4)(C5=CC=C(OC)C=C5)C6=CC=CC=C6", "physical_data": {"Molecular Weight": "713.78", "Molecular Formula": "C38H43N5O9", "Melting Point": "112.5-126.6 \u00b0C"}}