{"cas_no": "2516-34-9", "cn_name": "\u73af\u4e01\u57fa\u80fa", "en_name": ["Cyclobutylamine", "Cyclobutanamine", "Cyclobutylamine", "Aminocyclobutane", "1-Aminocyclobutane"], "SMILES": "NC1CCC1", "physical_data": {"Molecular Weight": "71.12", "Molecular Formula": "C4H9N", "Boiling Point": "82 \u00b0C"}}