{"cas_no": "2516-33-8", "cn_name": "\u7f9f\u7532\u57fa\u73af\u4e19\u70f7", "en_name": ["Cyclopropanemethanol", "Cyclopropanemethanol", "Cyclopropylcarbinol", "Cyclopropylmethanol", "Cyclopropylcarbinyl alcohol", "Cyclopropylmethyl alcohol", "Cyclopropanemethyl alcohol", "(Hydroxymethyl)cyclopropane", "NSC 85925"], "SMILES": "C(O)C1CC1", "physical_data": {"Molecular Weight": "72.11", "Molecular Formula": "C4H8O", "Boiling Point": "123 \u00b0C", "Density": "0.911 g/cm\u00b3 @ Temp: 425 \u00b0C"}}