{"cas_no": "25163-98-8", "cn_name": "4-\u5f02\u4e01\u57fa-2-\u82ef\u57fa-5(4H)-\u916e", "en_name": ["4-Isobutyl-2-phenyl-2-oxazolin-5-one", "5(4H)-Oxazolone, 4-(2-methylpropyl)-2-phenyl-", "2-Oxazolin-5-one, 4-isobutyl-2-phenyl-, DL-", "5(4H)-Oxazolone, 4-(2-methylpropyl)-2-phenyl-, (\u00b1)-", "4-(2-Methylpropyl)-2-phenyl-5(4H)-oxazolone", "4-Isobutyl-2-phenyl-2-oxazolin-5-one"], "SMILES": "C(C(C)C)C1N=C(OC1=O)C2=CC=CC=C2", "physical_data": {"Molecular Weight": "217.26", "Molecular Formula": "C13H15NO2", "Melting Point": "54-56 \u00b0C"}}