{"cas_no": "25167-70-8", "cn_name": "\u4e8c\u5f02\u4e01\u70ef", "en_name": ["Diisobutylene", "Pentene, 2,4,4-trimethyl-", "2,4,4-Trimethylpentene", "Diisobutene", "Diisobutylene", "2,2,4-Trimethylpentene"], "SMILES": "", "physical_data": {"Molecular Weight": "", "Molecular Formula": "C8H16", "Boiling Point": "101 \u00b0C", "Density": "0.7175 g/cm\u00b3 @ Temp: 20 \u00b0C"}}