{"cas_no": "2516-97-4", "cn_name": "\u7532\u78fa\u9170\u4e59\u9178", "en_name": ["(Methylsulfonyl)acetic acid", "Acetic acid, 2-(methylsulfonyl)-", "Acetic acid, (methylsulfonyl)-", "2-(Methylsulfonyl)acetic acid", "Mesylacetic acid", "(Methylsulfonyl)acetic acid", "Methanesulfonylacetic acid", "2-Methanesulfonylacetic acid"], "SMILES": "C(S(C)(=O)=O)C(O)=O", "physical_data": {"Molecular Weight": "138.14", "Molecular Formula": "C3H6O4S", "Melting Point": "115 \u00b0C"}}