{"cas_no": "2516-95-2", "cn_name": "5-\u6c2f-2-\u785d\u57fa\u82ef\u7532\u9178", "en_name": ["5-Chloro-2-nitrobenzoic acid", "Benzoic acid, 5-chloro-2-nitro-", "5-Chloro-2-nitrobenzoic acid", "2-Nitro-5-chlorobenzoic acid", "3-Chloro-6-nitrobenzoic acid", "6-Nitro-3-chlorobenzoic acid", "NSC 59735"], "SMILES": "N(=O)(=O)C1=C(C(O)=O)C=C(Cl)C=C1", "physical_data": {"Molecular Weight": "201.56", "Molecular Formula": "C7H4ClNO4", "Melting Point": "138-140 \u00b0C"}}