{"cas_no": "251647-48-0", "cn_name": "N-\u82ef\u7532\u9170\u57fa-5'-O-[\u53cc(4-\u7532\u6c27\u57fa\u82ef\u57fa)\u82ef\u57fa\u7532\u57fa]-2'-O-(2-\u7532\u6c27\u57fa\u4e59\u57fa)\u817a\u82f7", "en_name": ["N-Benzoyl-5\u2032-O-[bis(4-methoxyphenyl)phenylmethyl]-2\u2032-O-(2-methoxyethyl)adenosine", "Adenosine, N-benzoyl-5\u2032-O-[bis(4-methoxyphenyl)phenylmethyl]-2\u2032-O-(2-methoxyethyl)-", "N-Benzoyl-5\u2032-O-[bis(4-methoxyphenyl)phenylmethyl]-2\u2032-O-(2-methoxyethyl)adenosine", "17: PN: US20030211606 PAGE: 19 claimed sequence", "24: PN: WO03106645 PAGE: 73 claimed sequence", "23: PN: US20040014699 PAGE: 20 claimed sequence", "22: PN: US20040014051 PAGE: 23 claimed sequence", "21: PN: US20040014050 PAGE: 20 claimed sequence", "20: PN: US20040014049 PAGE: 21 claimed sequence", "21: PN: US20040014048 PAGE: 21 claimed sequence", "20: PN: US20040014047 PAGE: 21 claimed sequence", "20: PN: US20040006030 PAGE: 23 claimed sequence", "24: PN: US20040006029 PAGE: 23 claimed sequence", "95: PN: US20040005707 PAGE: 20 claimed sequence", "21: PN: US20040005570 PAGE: 20 claimed sequence", "18: PN: US20040005569 PAGE: 22 claimed sequence", "22: PN: US20040005565 PAGE: 17-22 claimed sequence", "5\u2032-Dimethoxytrityl-2\u2032-O-(2-Methoxyethyl)-N6-benzoyl adenosine"], "SMILES": "C(OCC1OC(C(OCCOC)C1O)N2C=3C(N=C2)=C(NC(=O)C4=CC=CC=C4)N=CN3)(C5=CC=C(OC)C=C5)(C6=CC=C(OC)C=C6)C7=CC=CC=C7", "physical_data": {"Molecular Weight": "731.79", "Molecular Formula": "C41H41N5O8", "Melting Point": "119-121 \u00b0C"}}