{"cas_no": "2516-40-7", "cn_name": "2-\u6eb4\u82ef\u5e76\u567b\u5511", "en_name": ["2-Bromobenzothiazole", "Benzothiazole, 2-bromo-", "2-Bromobenzothiazole", "2-Bromo-1,3-benzothiazole", "2-Bromobenzo[d]thiazole"], "SMILES": "BrC1=NC=2C(S1)=CC=CC2", "physical_data": {"Molecular Weight": "214.08", "Molecular Formula": "C7H4BrNS", "Melting Point": "95 \u00b0C (decomp)"}}