{"cas_no": "2516-93-0", "cn_name": "2-\u4e01\u6c27\u57fa\u4e59\u9178", "en_name": ["Butoxyacetic acid", "Acetic acid, 2-butoxy-", "Acetic acid, butoxy-", "2-Butoxyacetic acid", "Butoxyacetic acid", "NSC 10980", "Butyloxyacetic acid", "2-(n-Butoxy)acetic acid"], "SMILES": "O(CC(O)=O)CCCC", "physical_data": {"Molecular Weight": "132.16", "Molecular Formula": "C6H12O3", "Boiling Point": "165.2-165.4 \u00b0C @ Press: 759.5 Torr", "Density": "0.9897 g/cm\u00b3 @ Temp: 15 \u00b0C"}}