{"cas_no": "2516-47-4", "cn_name": "\u73af\u4e19\u57fa\u7532\u57fa\u80fa", "en_name": ["Cyclopropanemethanamine", "Cyclopropanemethanamine", "Cyclopropanemethylamine", "(Cyclopropylmethyl)amine", "Aminomethylcyclopropane", "Cyclopropylmethanamine", "C-Cyclopropylmethylamine", "N-(Cyclopropylmethyl)amine", "1-Cyclopropylmethanamine"], "SMILES": "C(N)C1CC1", "physical_data": {"Molecular Weight": "71.12", "Molecular Formula": "C4H9N", "Boiling Point": "83.5 \u00b0C"}}