{"cas_no": "25167-20-8", "cn_name": "1,1,2,2-\u56db\u6eb4\u4e59\u70f7", "en_name": ["Tetrabromoethane", "Ethane, tetrabromo-", "Tetrabromoethane"], "SMILES": "", "physical_data": {"Molecular Weight": "", "Molecular Formula": "C2H2Br4", "Boiling Point": "112.5 \u00b0C @ Press: 18 Torr", "Density": "2.9529 g/cm\u00b3 @ Temp: 25 \u00b0C"}}