{"cas_no": "25168-26-7", "cn_name": "2,4-D\u5f02\u8f9b\u916f", "en_name": ["2,4-D isooctyl ester", "Acetic acid, 2-(2,4-dichlorophenoxy)-, isooctyl ester", "Acetic acid, (2,4-dichlorophenoxy)-, isooctyl ester", "Isooctyl alcohol, (2,4-dichlorophenoxy)acetate", "2,4-D isooctyl ester", "2,4-Dichlorophenoxyacetic acid isooctyl ester", "Isooctyl 2,4-dichlorophenoxyacetate", "Silvapron D", "Agroxone 5", "2,4-D ester", "Agro-D-Ester", "Esteron"], "SMILES": "", "physical_data": {"Molecular Weight": "", "Molecular Formula": "C16H22Cl2O3", "Boiling Point": "317 \u00b0C", "Melting Point": "12 \u00b0C", "Density": "1.14-1.17 g/cm\u00b3 @ Temp: 20 \u00b0C"}}