{"cas_no": "25168-73-4", "cn_name": "\u8517\u7cd6\u786c\u8102\u9178\u916f", "en_name": ["Sucrose monooctadecanoate", "\u03b1-D-Glucopyranoside, \u03b2-D-fructofuranosyl, monooctadecanoate", "Sucrose, monostearate", "Stearic acid, monoester with sucrose", "Saccharose monostearate", "Saccharose stearate", "Stearic acid sucrose ester", "Sucrose monostearic acid ester", "Sucrapan S", "Ryoto Sugar Ester S 1670", "Ryoto Sugar Ester MO-C 18", "S 1670", "Sucrose monooctadecanoate", "NSC 192745", "Sugar Ester S 1670", "Surfhope SE Pharma J-1809", "Ryoto S 1670"], "SMILES": "", "physical_data": {"Molecular Weight": "", "Molecular Formula": "C30H56O12", "Melting Point": "67-71 \u00b0C"}}