{"cas_no": "25173-72-2", "cn_name": "3-(3,4,5-\u4e09\u7532\u6c27\u57fa\u82ef\u57fa)\u4e19\u9178", "en_name": ["3-(3,4,5-Trimethoxyphenyl)propionic acid", "Benzenepropanoic acid, 3,4,5-trimethoxy-", "Hydrocinnamic acid, 3,4,5-trimethoxy-", "3,4,5-Trimethoxybenzenepropanoic acid", "3,4,5-Trimethoxy-\u03b2-phenylpropionic acid", "3,4,5-Trimethoxyphenylpropionic acid", "3-(3,4,5-Trimethoxyphenyl)propanoic acid", "3,4,5-Trimethoxyhydrocinnamic acid", "3-(3,4,5-Trimethoxyphenyl)propionic acid", "NSC 169988"], "SMILES": "O(C)C1=C(OC)C(OC)=CC(CCC(O)=O)=C1", "physical_data": {"Molecular Weight": "240.25", "Molecular Formula": "C12H16O5", "Melting Point": "98 \u00b0C"}}