{"cas_no": "2517-43-3", "cn_name": "3-\u7532\u6c27\u57fa\u4e01\u9187", "en_name": ["3-Methoxybutanol", "1-Butanol, 3-methoxy-", "3-Methoxy-1-butanol", "3-Methoxybutanol", "NSC 65580", "1,3-Butylene glycol 3-monomethyl ether", "3-Methoxybutyl alcohol"], "SMILES": "C(CCO)(OC)C", "physical_data": {"Molecular Weight": "104.15", "Molecular Formula": "C5H12O2", "Boiling Point": "160 \u00b0C", "Melting Point": "-85 \u00b0C", "Density": "0.92 g/cm\u00b3"}}