{"cas_no": "2517-04-6", "cn_name": "L-\u94c3\u5170\u6c28\u9178", "en_name": ["(\u00b1)-2-Azetidinecarboxylic acid", "2-Azetidinecarboxylic acid", "DL-2-Azetidinecarboxylic acid", "(\u00b1)-2-Azetidinecarboxylic acid"], "SMILES": "C(O)(=O)C1CCN1", "physical_data": {"Molecular Weight": "101.10", "Molecular Formula": "C4H7NO2", "Melting Point": "217 \u00b0C (decomp)"}}