{"cas_no": "25186-43-0", "cn_name": "N-\u5f02\u4e19\u57fa-4-\u785d\u57fa\u82ef\u80fa", "en_name": ["N-(1-Methylethyl)-4-nitrobenzenamine", "Benzenamine, N-(1-methylethyl)-4-nitro-", "Aniline, N-isopropyl-p-nitro-", "N-(1-Methylethyl)-4-nitrobenzenamine", "N-Isopropyl-4-nitroaniline", "N-Isopropyl-p-nitroaniline", "p-Nitro-N-isopropylaniline"], "SMILES": "N(C(C)C)C1=CC=C(N(=O)=O)C=C1", "physical_data": {"Molecular Weight": "180.20", "Molecular Formula": "C9H12N2O2", "Melting Point": "81-82 \u00b0C"}}