{"cas_no": "25186-47-4", "cn_name": "3,5-\u4e8c\u6c2f\u7532\u82ef", "en_name": ["1,3-Dichloro-5-methylbenzene", "Benzene, 1,3-dichloro-5-methyl-", "Toluene, 3,5-dichloro-", "1,3-Dichloro-5-methylbenzene", "3,5-Dichlorotoluene"], "SMILES": "CC1=CC(Cl)=CC(Cl)=C1", "physical_data": {"Molecular Weight": "161.03", "Molecular Formula": "C7H6Cl2", "Boiling Point": "201.5 \u00b0C", "Melting Point": "26 \u00b0C"}}