{"cas_no": "2518-24-3", "cn_name": "3-\u6c28\u57fa\u90bb\u82ef\u4e8c\u7532\u9170\u4e9a\u80fa", "en_name": ["3-Aminophthalimide", "1H-Isoindole-1,3(2H)-dione, 4-amino-", "Phthalimide, 3-amino-", "4-Amino-1H-isoindole-1,3(2H)-dione", "3-Aminophthalimide", "4-Amino-1,3-dioxo-2,3-dihydro-1H-isoindole", "4-Amino-1H-isoindole-1,3(2H)-dione", "4-Aminoisoindoline-1,3-dione"], "SMILES": "NC1=C2C(C(=O)NC2=O)=CC=C1", "physical_data": {"Molecular Weight": "162.15", "Molecular Formula": "C8H6N2O2", "Melting Point": "268-269 \u00b0C"}}