{"cas_no": "25189-55-3", "cn_name": "\u805a(N-\u5f02\u4e19\u57fa\u4e19\u70ef\u9170\u80fa)", "en_name": ["Poly(N-isopropylacrylamide)", "2-Propenamide, N-(1-methylethyl)-, homopolymer", "Acrylamide, N-isopropyl-, polymers", "Acrylamide, N-isopropyl-, homopolymer", "Poly(N-isopropylacrylamide)", "Poly(isopropylacrylamide)", "N-Isopropylacrylamide polymer", "N-Isopropylacrylamide homopolymer", "Thermogel 250", "P 2991", "P 604", "P 1239", "P 604 (acrylic resin)", "PolyNIPAAm", "NIPAM homopolymer", "PNIPAM", "Isopropylacrylamide homopolymer"], "SMILES": "C(NC(C)C)(C=C)=O", "physical_data": {"Molecular Weight": "", "Molecular Formula": "(C6H11NO)x", "Melting Point": "64 \u00b0C", "Density": "1.386 g/cm\u00b3"}}