{"cas_no": "2519-61-1", "cn_name": "4-\u6c2f\u5432\u54da-3-\u4e59\u9178", "en_name": ["4-Chloroindole-3-acetic acid", "1H-Indole-3-acetic acid, 4-chloro-", "Indole-3-acetic acid, 4-chloro-", "4-Chloro-1H-indole-3-acetic acid", "4-Chloroindole-3-acetic acid", "4-Chloroindolyl-3-acetic acid", "4-Chloro-IAA", "4-Chloroindoleacetic acid", "NSC 295294", "2-(4-Chloro-1H-indol-3-yl)acetic acid"], "SMILES": "C(C(O)=O)C=1C=2C(NC1)=CC=CC2Cl", "physical_data": {"Molecular Weight": "209.63", "Molecular Formula": "C10H8ClNO2", "Melting Point": "184-187 \u00b0C (decomp)"}}