{"cas_no": "25199-84-2", "cn_name": "4-\u4e09\u6c1f\u7532\u57fa-2-\u7f9f\u57fa\u55b9\u5549", "en_name": ["4-(Trifluoromethyl)-2(1H)-quinolinone", "2(1H)-Quinolinone, 4-(trifluoromethyl)-", "Carbostyril, 4-(trifluoromethyl)-", "4-(Trifluoromethyl)-2(1H)-quinolinone", "2-Hydroxy-4-(trifluoromethyl)quinoline", "4-Trifluoromethyl-1H-quinolin-2-one", "4-(Trifluoromethyl)quinolin-2-ol"], "SMILES": "C(F)(F)(F)C=1C=2C(NC(=O)C1)=CC=CC2", "physical_data": {"Molecular Weight": "213.16", "Molecular Formula": "C10H6F3NO", "Melting Point": "246-247 \u00b0C"}}