{"cas_no": "25194-67-6", "cn_name": "6-\u82ef\u6c27\u57fa-3-\u5421\u5576\u80fa", "en_name": ["6-Phenoxy-3-pyridinamine", "3-Pyridinamine, 6-phenoxy-", "Pyridine, 5-amino-2-phenoxy-", "6-Phenoxy-3-pyridinamine", "2-Phenoxy-5-aminopyridine", "5-Amino-2-phenoxypyridine", "3-Amino-6-phenoxypyridine"], "SMILES": "O(C1=CC=C(N)C=N1)C2=CC=CC=C2", "physical_data": {"Molecular Weight": "186.21", "Molecular Formula": "C11H10N2O", "Melting Point": "71 \u00b0C"}}