{"cas_no": "25197-99-3", "cn_name": "L-5-\u6eb4\u8272\u6c28\u9178", "en_name": ["5-Bromo-L-tryptophan", "L-Tryptophan, 5-bromo-", "Tryptophan, 5-bromo-, L-", "5-Bromo-L-tryptophan", "L-5-Bromotryptophan", "(S)-2-Amino-3-(5-bromo-1H-indol-3-yl)propanoicacid", "(S)-2-Amino-3-(5-bromo-1H-indol-3-yl)propanoic acid", "(2S)-2-Amino-3-(5-bromo-1H-indol-3-yl)propanoic acid"], "SMILES": "C(C(C(O)=O)N)C=1C=2C(NC1)=CC=C(Br)C2", "physical_data": {"Molecular Weight": "283.12", "Molecular Formula": "C11H11BrN2O2", "Melting Point": "251 \u00b0C"}}