{"cas_no": "25193-95-7", "cn_name": "5-\u5627\u5576\u7532\u9187", "en_name": ["5-Pyrimidinemethanol", "5-Pyrimidinemethanol", "5-(Hydroxymethyl)pyrimidine", "Pyrimidin-5-ylmethanol"], "SMILES": "C(O)C=1C=NC=NC1", "physical_data": {"Molecular Weight": "110.11", "Molecular Formula": "C5H6N2O", "Melting Point": "51-52 \u00b0C"}}