{"cas_no": "25194-52-9", "cn_name": "6-\u6eb4\u5421\u5576\u7532\u9170\u80fa", "en_name": ["6-Bromo-2-pyridinecarboxamide", "2-Pyridinecarboxamide, 6-bromo-", "Picolinamide, 6-bromo-", "6-Bromo-2-pyridinecarboxamide", "6-Bromopicolinamide"], "SMILES": "C(N)(=O)C=1N=C(Br)C=CC1", "physical_data": {"Molecular Weight": "201.02", "Molecular Formula": "C6H5BrN2O", "Melting Point": "122-124 \u00b0C"}}