{"cas_no": "252049-08-4", "cn_name": "N-\u82b4\u7532\u6c27\u7fb0\u57fa-N'-\u82c4\u6c27\u7fb0\u57fa-L-2,4-\u4e8c\u6c28\u57fa\u4e01\u9178", "en_name": ["(2S)-2-[[(9H-Fluoren-9-ylmethoxy)carbonyl]amino]-4-[[(phenylmethoxy)carbonyl]amino]butanoic acid", "Butanoic acid, 2-[[(9H-fluoren-9-ylmethoxy)carbonyl]amino]-4-[[(phenylmethoxy)carbonyl]amino]-, (2S)-", "(2S)-2-[[(9H-Fluoren-9-ylmethoxy)carbonyl]amino]-4-[[(phenylmethoxy)carbonyl]amino]butanoic acid", "(S)-2-((((9H-Fluoren-9-yl)methoxy)carbonyl)amino)-4-(((benzyloxy)carbonyl)amino)butanoic acid"], "SMILES": "C(OC(NC(CCNC(OCC1=CC=CC=C1)=O)C(O)=O)=O)C2C=3C(C=4C2=CC=CC4)=CC=CC3", "physical_data": {"Molecular Weight": "474.51", "Molecular Formula": "C27H26N2O6", "Melting Point": "118 \u00b0C"}}