{"cas_no": "25217-43-0", "cn_name": "3,5-\u4e8c\u6c2f\u82ef\u57fa\u80fa\u57fa\u7532\u9178\u7532\u916f", "en_name": ["Carbamic acid, (3,5-dichlorophenyl)-, methyl ester", "Carbamic acid, (3,5-dichlorophenyl)-, methyl ester", "Carbanilic acid, 3,5-dichloro-, methyl ester", "Methyl 3,5-dichlorophenylcarbamate", "MDPC"], "SMILES": "N(C(OC)=O)C1=CC(Cl)=CC(Cl)=C1", "physical_data": {"Molecular Weight": "220.05", "Molecular Formula": "C8H7Cl2NO2", "Melting Point": "114-116 \u00b0C"}}