{"cas_no": "25229-97-4", "cn_name": "2-\u6c30\u57fa-3-\u5417\u5549\u4e19\u9170\u80fa", "en_name": ["2-Cyano-3-(4-morpholinyl)-2-propenamide", "2-Propenamide, 2-cyano-3-(4-morpholinyl)-", "4-Morpholineacrylamide, \u03b1-cyano-", "2-Cyano-3-(4-morpholinyl)-2-propenamide", "3-Morpholino-2-cyanoacrylamide", "2-Cyano-3-morpholinoacrylamide"], "SMILES": "C(=C(C(N)=O)C#N)N1CCOCC1", "physical_data": {"Molecular Weight": "181.19", "Molecular Formula": "C8H11N3O2", "Melting Point": "169-173 \u00b0C"}}