{"cas_no": "2523-55-9", "cn_name": "\u53cd\u5f0f 4-\u7532\u57fa\u73af\u5df1\u80fa", "en_name": ["trans-4-Methylcyclohexylamine", "Cyclohexanamine, 4-methyl-, trans-", "Cyclohexylamine, 4-methyl-, trans-", "trans-4-Methylcyclohexanamine", "trans-4-Methylcyclohexylamine", "trans-4-Methyl-1-cyclohexylamine", "trans-1-Amino-4-methylcyclohexane", "4-trans-Methylcyclohexylamine", "trans-4-Methyl-1-cyclohexanamine"], "SMILES": "CC1CCC(N)CC1", "physical_data": {"Molecular Weight": "113.20", "Molecular Formula": "C7H15N", "Boiling Point": "72-73 \u00b0C @ Press: 50 Torr"}}