{"cas_no": "2523-42-4", "cn_name": "2-\u7898\u82b4", "en_name": ["2-Iodo-9H-fluorene", "9H-Fluorene, 2-iodo-", "Fluorene, 2-iodo-", "2-Iodo-9H-fluorene", "2-Iodofluorene", "NSC 12354"], "SMILES": "IC=1C=C2C(C=3C(C2)=CC=CC3)=CC1", "physical_data": {"Molecular Weight": "292.11", "Molecular Formula": "C13H9I", "Melting Point": "128 \u00b0C"}}