{"cas_no": "2523-37-7", "cn_name": "9-\u7532\u57fa-9H-\u82b4", "en_name": ["9-Methylfluorene", "9H-Fluorene, 9-methyl-", "Fluorene, 9-methyl-", "9-Methyl-9H-fluorene", "9-Methylfluorene", "NSC 10161"], "SMILES": "CC1C=2C(C=3C1=CC=CC3)=CC=CC2", "physical_data": {"Molecular Weight": "180.25", "Molecular Formula": "C14H12", "Boiling Point": "154-156 \u00b0C", "Melting Point": "46.5 \u00b0C"}}