{"cas_no": "25235-85-2", "cn_name": "4-\u6c2f\u5432\u54da", "en_name": ["4-Chloroindole", "1H-Indole, 4-chloro-", "Indole, 4-chloro-", "4-Chloro-1H-indole", "4-Chloroindole", "NSC 88141"], "SMILES": "ClC1=C2C(=CC=C1)NC=C2", "physical_data": {"Molecular Weight": "151.59", "Molecular Formula": "C8H6ClN", "Boiling Point": "143 \u00b0C @ Press: 10 Torr", "Density": "1.2485 g/cm\u00b3 @ Temp: 20 \u00b0C"}}