{"cas_no": "25233-30-1", "cn_name": "\u805a\u82ef\u80fa", "en_name": ["Polyaniline", "Benzenamine, homopolymer", "Aniline, polymers", "Aniline homopolymer", "Polyaniline", "Aniline polymer", "Polyphenyleneamine", "Polyemeraldine", "Versicon", "Ormecon", "Anirido", "Corrpassiv 4900", "Corrpassiv 4901", "Skippers Corrpassiv", "XICP O501", "PASS 01", "P 4000W", "D 1002W", "D 1500W", "Anilide SB 50", "Kemipol", "Panipol W", "Aniline acetate homopolymer", "JGT ES 1", "ZP-ES 1", "JGT-EB 1", "NS 09/205W", "PANT", "XZ-BA 02", "XZ-BAY 03", "AS 8526", "PA-N 35S"], "SMILES": "NC1=CC=CC=C1", "physical_data": {"Molecular Weight": "", "Molecular Formula": "(C6H7N)x", "Melting Point": "745 \u00b0C", "Density": "1.1-1.3 g/cm\u00b3"}}