{"cas_no": "25236-64-0", "cn_name": "2,2,2-\u4e09\u6c1f\u4e59\u57fa\u7532\u78fa\u9178\u916f", "en_name": ["Ethanol, 2,2,2-trifluoro-, 1-methanesulfonate", "Ethanol, 2,2,2-trifluoro-, 1-methanesulfonate", "Ethanol, 2,2,2-trifluoro-, methanesulfonate", "2,2,2-Trifluoroethyl methanesulfonate", "2,2,2-Trifluoroethyl methylsulfonate", "2,2,2-Trifluoroethyl mesylate", "Methanesulfonic acid 2,2,2-trifluoroethyl ester"], "SMILES": "C(OS(C)(=O)=O)C(F)(F)F", "physical_data": {"Molecular Weight": "178.13", "Molecular Formula": "C3H5F3O3S", "Boiling Point": "54-55 \u00b0C"}}