{"cas_no": "2523-56-0", "cn_name": "\u987a\u5f0f-4-\u7532\u57fa\u73af\u5df1\u80fa", "en_name": ["cis-4-Methylcyclohexanamine", "Cyclohexanamine, 4-methyl-, cis-", "Cyclohexylamine, 4-methyl-, cis-", "cis-4-Methylcyclohexanamine", "cis-4-Methylcyclohexylamine", "4-cis-Methylcyclohexanamine", "cis-1-Amino-4-methylcyclohexane", "4-cis-Methylcyclohexylamine", "cis-4-Methyl-1-cyclohexanamine"], "SMILES": "CC1CCC(N)CC1", "physical_data": {"Molecular Weight": "113.20", "Molecular Formula": "C7H15N", "Boiling Point": "152-153 \u00b0C", "Density": "0.858 g/cm\u00b3 @ Temp: 20 \u00b0C"}}