{"cas_no": "2523-44-6", "cn_name": "2-\u6c2f\u82b4", "en_name": ["2-Chloro-9H-fluorene", "9H-Fluorene, 2-chloro-", "Fluorene, 2-chloro-", "2-Chloro-9H-fluorene", "2-Chlorofluorene", "NSC 97412"], "SMILES": "ClC=1C=C2C(C=3C(C2)=CC=CC3)=CC1", "physical_data": {"Molecular Weight": "200.66", "Molecular Formula": "C13H9Cl", "Melting Point": "96-97 \u00b0C"}}