{"cas_no": "25245-34-5", "cn_name": "1-\u6eb4-2,5-\u4e8c\u7532\u6c27\u57fa\u82ef", "en_name": ["1-Bromo-2,5-dimethoxybenzene", "Benzene, 2-bromo-1,4-dimethoxy-", "2-Bromo-1,4-dimethoxybenzene", "2,5-Dimethoxyphenyl bromide", "1-Bromo-2,5-dimethoxybenzene", "2,5-Dimethoxybromobenzene", "2-Bromo-4-methoxyanisole", "NSC 159052"], "SMILES": "O(C)C1=CC(Br)=C(OC)C=C1", "physical_data": {"Molecular Weight": "217.06", "Molecular Formula": "C8H9BrO2", "Boiling Point": "252-258 \u00b0C", "Melting Point": "108-110 \u00b0C"}}