{"cas_no": "2524-52-9", "cn_name": "2-\u5421\u5576\u7532\u9178\u4e59\u916f", "en_name": ["Ethyl 2-pyridinecarboxylate", "2-Pyridinecarboxylic acid, ethyl ester", "Picolinic acid, ethyl ester", "Ethyl 2-pyridinecarboxylate", "Ethyl picolinate", "2-(Ethoxycarbonyl)pyridine", "Ethyl 2-picolinate", "NSC 31651", "NSC 959", "Ethyl pyridine-2-carboxylate"], "SMILES": "C(OCC)(=O)C1=CC=CC=N1", "physical_data": {"Molecular Weight": "151.16", "Molecular Formula": "C8H9NO2", "Boiling Point": "243 \u00b0C", "Melting Point": "1 \u00b0C", "Density": "1.5123 g/cm\u00b3 @ Temp: 20 \u00b0C"}}