{"cas_no": "2524-76-7", "cn_name": "3-\u785d\u57fa\u8334\u9999\u786b\u919a", "en_name": ["1-(Methylthio)-3-nitrobenzene", "Benzene, 1-(methylthio)-3-nitro-", "Sulfide, methyl m-nitrophenyl", "1-(Methylthio)-3-nitrobenzene", "Methyl m-nitrophenyl sulfide", "m-Nitrothioanisole", "m-Nitrophenyl methyl sulfide", "Methyl 3-nitrophenyl sulfide", "NSC 53644", "1-(Methylsulfanyl)-3-nitrobenzene", "3-Nitrothioanisole"], "SMILES": "N(=O)(=O)C1=CC(SC)=CC=C1", "physical_data": {"Molecular Weight": "169.20", "Molecular Formula": "C7H7NO2S", "Boiling Point": "133-134 \u00b0C @ Press: 4 Torr", "Melting Point": "14.5 \u00b0C"}}