{"cas_no": "25245-33-4", "cn_name": "1-\u5432\u54da-2,3-\u4e8c\u7532\u6c27\u57fa\u82ef", "en_name": ["1-Iodo-2,3-dimethoxybenzene", "Benzene, 1-iodo-2,3-dimethoxy-", "1-Iodo-2,3-dimethoxybenzene", "3-Iodoveratrole", "2,3-Dimethoxy-1-iodobenzene", "2,3-Dimethoxyiodobenzene"], "SMILES": "O(C)C1=C(OC)C(I)=CC=C1", "physical_data": {"Molecular Weight": "264.06", "Molecular Formula": "C8H9IO2", "Boiling Point": "124-125 \u00b0C @ Press: 4 Torr", "Melting Point": "45-46 \u00b0C", "Density": "1.7831 g/cm\u00b3 @ Temp: 20 \u00b0C"}}