{"cas_no": "2524-67-6", "cn_name": "4-(4-\u5417\u5549\u57fa)\u82ef\u80fa", "en_name": ["4-Morpholinoaniline", "Benzenamine, 4-(4-morpholinyl)-", "Morpholine, 4-(p-aminophenyl)-", "4-(4-Morpholinyl)benzenamine", "4-Morpholinoaniline", "p-Morpholinoaniline", "N-(4-Aminophenyl)morpholine", "N-(4\u2032-Aminophenyl)morpholine", "4-N-Morpholinoaniline", "4-(4-Aminophenyl)morpholine", "4-(4-Morpholinyl)aniline", "4-(Morpholin-4-yl)phenylamine", "4-Morpholinobenzenamine", "(4-(Morpholino)phenyl)amine", "NSC 26334"], "SMILES": "NC1=CC=C(C=C1)N2CCOCC2", "physical_data": {"Molecular Weight": "178.23", "Molecular Formula": "C10H14N2O", "Melting Point": "129.5-130.5 \u00b0C"}}