{"cas_no": "2524-64-3", "cn_name": "\u6c2f\u78f7\u9178\u4e8c\u82ef\u916f", "en_name": ["Diphenyl chlorophosphate", "Phosphorochloridic acid, diphenyl ester", "Phenyl phosphorochloridite", "Diphenyl phosphorochloridate", "Phenyl phosphorochloridate ((PhO)2ClPO)", "Diphenyl phosphochloridate", "Diphenyl chlorophosphate", "Diphenoxychlorophosphine oxide", "Chlorodiphenoxyphosphine oxide", "Diphenylphosphoric acid monochloride", "Phosphoric acid chloride diphenyl ester", "O,O-Diphenyl chlorophosphate", "DPPC", "Chlorophosphonic acid diphenyl ester", "Diphenyl phosphorochlorate", "Diphenylphosphoryl chloride", "DPC", "DPC (flame retardant)", "NSC 43771", "Diphenyl chlorophosphonate", "Diphenyl phosphate chloride", "[Chloro(phenoxy)phosphoryl]oxybenzene"], "SMILES": "O(P(OC1=CC=CC=C1)(Cl)=O)C2=CC=CC=C2", "physical_data": {"Molecular Weight": "268.63", "Molecular Formula": "C12H10ClO3P", "Boiling Point": "150-153 \u00b0C @ Press: 1 Torr", "Density": "1.2957 g/cm\u00b3 @ Temp: 20 \u00b0C"}}