{"cas_no": "2524-04-1", "cn_name": "\u4e8c\u4e59\u57fa\u786b\u4ee3\u78f7\u9170\u6c2f", "en_name": ["O,O-Diethyl phosphorochloridothioate", "Phosphorochloridothioic acid, O,O-diethyl ester", "Ethyl phosphorochloridothioate ((EtO)2ClPS)", "Diethyl chlorothiophosphate", "O,O-Diethyl phosphorochloridothioate", "O,O-Diethyl phosphorochlorothioate", "Diethyl phosphorochloridothioate", "Diethyl phosphorochlorothioate", "Diethyl thiophosphoryl chloride", "O,O-Diethyl chlorothiophosphate", "O,O-Diethyl chlorothiophosphonate", "O,O-Diethyl phosphorothionochloridate", "O,O-Diethyl thiophosphoryl chloride", "Diethyl phosphorothiochloridate", "O,O-Diethyl chlorothionophosphate", "O,O-Diethyl thionophosphoric chloride", "O,O-Diethyl thionophosphoryl chloride", "O,O-Diethyl thiophosphorochloridate", "O,O-Diethyl chloridothionophosphate", "O,O-Diethyl phosphorothiochloridate", "O,O-Diethyl thionophosphorochloridate", "O,O-Diethyl chloridophosphorothioate", "Diethoxythiophosphoryl chloride", "Diethyl phosphorothionochloridate", "O,O-Diethyl thiophosphoric acid chloride", "(Chlorodiethoxy)phosphine sulfide", "O,O-Diethyl chlorophosphorothioate", "NSC 43776"], "SMILES": "P(OCC)(OCC)(Cl)=S", "physical_data": {"Molecular Weight": "188.61", "Molecular Formula": "C4H10ClO2PS", "Boiling Point": "110 \u00b0C", "Melting Point": "-75 \u00b0C", "Density": "1.196 g/cm\u00b3 @ Temp: 25 \u00b0C"}}