{"cas_no": "2524-37-0", "cn_name": "2,4-\u4e8c\u7f9f\u57fa-6-\u7532\u57fa\u7532\u9178\u4e59\u916f", "en_name": ["Ethyl orsellinate", "Benzoic acid, 2,4-dihydroxy-6-methyl-, ethyl ester", "\u03b2-Resorcylic acid, 6-methyl-, ethyl ester", "Ethyl orsellinate", "Ethyl 2,4-dihydroxy-6-methylbenzoate", "NSC 149781", "2,4-Dihydroxy-6-methylbenzoic acid ethyl ester"], "SMILES": "C(OCC)(=O)C1=C(C)C=C(O)C=C1O", "physical_data": {"Molecular Weight": "196.20", "Molecular Formula": "C10H12O4", "Melting Point": "132 \u00b0C"}}