{"cas_no": "25245-35-6", "cn_name": "2-\u7898-1,4-\u4e8c\u7532\u6c27\u57fa\u82ef", "en_name": ["2-Iodo-1,4-dimethoxybenzene", "Benzene, 2-iodo-1,4-dimethoxy-", "2-Iodo-1,4-dimethoxybenzene", "1-Iodo-2,5-dimethoxybenzene", "1,4-Dimethoxy-2-iodobenzene", "2,5-Dimethoxyiodobenzene", "2,5-Dimethoxy-1-iodobenzene"], "SMILES": "O(C)C1=CC(I)=C(OC)C=C1", "physical_data": {"Molecular Weight": "264.06", "Molecular Formula": "C8H9IO2", "Boiling Point": "118-120 \u00b0C @ Press: 3-4 Torr", "Melting Point": "&lt;50 \u00b0C"}}