{"cas_no": "2524-03-0", "cn_name": "\u4e8c\u7532\u57fa\u786b\u4ee3\u78f7\u9170\u6c2f", "en_name": ["Dimethyl chlorothiophosphate", "Phosphorochloridothioic acid, O,O-dimethyl ester", "Methyl phosphorochloridothioate ((MeO)2ClPS)", "Dimethyl chlorothiophosphate", "Chlorodimethoxyphosphine sulfide", "Dimethyl chlorothionophosphate", "Dimethyl thiophosphorochloridate", "O,O-Dimethyl phosphorochloridothioate", "O,O-Dimethyl chlorothiophosphate", "O,O-Dimethyl phosphorothionochloridate", "O,O-Dimethyl thiophosphoric acid chloride", "Dimethoxy thiophosphonyl chloride", "O,O-Dimethylthionophosphoryl chloride", "Dimethyl thionophosphorochloridate", "O,O-Dimethyl thiophosphoryl chloride", "O,O-Dimethyl chlorothionophosphate", "O,O-Dimethyl thionophosphorochloridate", "O,O-Dimethyl phosphorochlorothioate", "Dimethyl chlorophosphorothioate", "O,O-Dimethyl chlorophosphorothioate", "NSC 132984"], "SMILES": "P(OC)(OC)(Cl)=S", "physical_data": {"Molecular Weight": "160.56", "Molecular Formula": "C2H6ClO2PS", "Boiling Point": "66-67 \u00b0C @ Press: 16 Torr"}}