{"cas_no": "2525-62-4", "cn_name": "\u5f02\u6c30\u9178\u5df1\u916f", "en_name": ["Hexyl isocyanate", "Hexane, 1-isocyanato-", "Isocyanic acid, hexyl ester", "1-Isocyanatohexane", "Hexyl isocyanate", "1-Hexyl isocyanate", "n-Hexyl isocyanate"], "SMILES": "C(CCCC)CN=C=O", "physical_data": {"Molecular Weight": "127.18", "Molecular Formula": "C7H13NO", "Boiling Point": "162.5-164 \u00b0C"}}