{"cas_no": "2525-16-8", "cn_name": "3,4,5,6-\u56db\u6c22-7-\u7532\u6c27\u57fa-2H-\u6c2e\u6742\u5353", "en_name": ["1-Aza-2-methoxy-1-cycloheptene", "2H-Azepine, 3,4,5,6-tetrahydro-7-methoxy-", "3,4,5,6-Tetrahydro-7-methoxy-2H-azepine", "O-Methylcaprolactim", "Caprolactim O-methyl ether", "2-Methoxy-1-azacycloheptene", "4,5,6,7-Tetrahydro-2-methoxy-3H-azepine", "O-Methyl-\u03b5-caprolactim", "\u03b5-Caprolactim methyl ether", "Caprolactim methyl ether", "7-Methoxy-3,4,5,6-tetrahydro-2H-azepine", "1-Aza-2-methoxy-1-cycloheptene", "2-Methoxy-4,5,6,7-tetrahydro-3H-azepine", "NSC 31263", "NSC 523095"], "SMILES": "O(C)C=1CCCCCN1", "physical_data": {"Molecular Weight": "127.18", "Molecular Formula": "C7H13NO", "Boiling Point": "65-67 \u00b0C @ Press: 24 Torr", "Density": "0.9632 g/cm\u00b3 @ Temp: 25 \u00b0C"}}