{"cas_no": "2526-64-9", "cn_name": "\u4e09\u82ef\u57fa\u4e8c\u6c2f\u5316\u81a6", "en_name": ["Dichlorotriphenylphosphorane", "Phosphorane, dichlorotriphenyl-", "Dichlorotriphenylphosphorane", "Triphenylphosphine dichloride", "Triphenyldichlorophosphorane", "Triphenylphosphorus dichloride", "Triphenylphosphorane dichloride", "NSC 91701"], "SMILES": "P(Cl)(Cl)(C1=CC=CC=C1)(C2=CC=CC=C2)C3=CC=CC=C3", "physical_data": {"Molecular Weight": "333.19", "Molecular Formula": "C18H15Cl2P", "Melting Point": "176 \u00b0C"}}