{"cas_no": "25263-97-2", "cn_name": "\u8089\u8c46\u853b\u9178\u5f02\u4e01\u916f", "en_name": ["Isobutyl myristate", "Tetradecanoic acid, 2-methylpropyl ester", "Myristic acid, isobutyl ester", "Isobutyl myristate", "NSC 44525", "2-Methylpropyl tetradecanoate"], "SMILES": "C(CCCCCCCCCCCCC)(OCC(C)C)=O", "physical_data": {"Molecular Weight": "284.48", "Molecular Formula": "C18H36O2", "Boiling Point": "227-229 \u00b0C"}}