{"cas_no": "25265-71-8", "cn_name": "\u4e00\u7f29\u4e8c\u4e19\u4e8c\u9187", "en_name": ["Dipropylene glycol", "Propanol, oxybis-", "Dipropylene glycol", "Oxybispropanol", "ADK DPG-RF", "DPG-FC", "DPG-RF", "Dowanol DPG", "Diisopropylene glycol", "A 33"], "SMILES": "", "physical_data": {"Molecular Weight": "", "Molecular Formula": "C6H14O3", "Boiling Point": "231.9 \u00b0C @ Press: 760 Torr", "Density": "1.0252 g/cm\u00b3 @ Temp: 20 \u00b0C"}}