{"cas_no": "25265-77-4", "cn_name": "\u5341\u4e8c\u78b3\u9187\u916f", "en_name": ["Texanol", "Propanoic acid, 2-methyl-, monoester with 2,2,4-trimethyl-1,3-pentanediol", "Isobutyric acid, ester with 2,2,4-trimethyl-1,3-pentanediol", "Texanol", "2,2,4-Trimethyl-1,3-pentanediol monoisobutyrate", "Isobutyraldehyde Tishchenko trimer", "CS 12", "Chissocizer CS 12", "Ucar Filmer IBT", "NX 795", "Ester 12", "Texanol Ester Alcohol", "Alcohol ester 12", "2,2,4-Trimethyl-1,3-pentanediol monoisobutylate", "Nexcoat NX 795", "C 12", "2,2,4-Trimethyl-1,3-pentanediol mono(2-methylpropanoate)", "XS 12", "GRSHY 1800", "DN 12", "LD 506", "Ruanta C 12", "AD 82", "Texanol AD 82", "Haltanol", "G 12", "J 1902", "2,2,4-Trimethyl-1,3-pentanediol 2-methylpropanoic acid monoester", "RTC 12"], "SMILES": "", "physical_data": {"Molecular Weight": "", "Molecular Formula": "C12H24O3", "Boiling Point": "255-260 \u00b0C", "Melting Point": "-50 \u00b0C", "Density": "0.95 g/cm\u00b3"}}