{"cas_no": "2526-62-7", "cn_name": "(2-\u6c30\u57fa\u4e59\u57fa)\u4e09\u7532\u6c27\u57fa\u7845\u70f7", "en_name": ["Cyanoethyltrimethoxysilane", "Propanenitrile, 3-(trimethoxysilyl)-", "Propionitrile, 3-(trimethoxysilyl)-", "3-(Trimethoxysilyl)propanenitrile", "2-Cyanoethyltrimethoxysilane", "Cyanoethyltrimethoxysilane", "3-(Trimethoxysilyl)propionitrile", "SIC 2445.0"], "SMILES": "[Si](CCC#N)(OC)(OC)OC", "physical_data": {"Molecular Weight": "175.26", "Molecular Formula": "C6H13NO3Si", "Boiling Point": "112 \u00b0C @ Press: 15 Torr", "Density": "1.079 g/cm\u00b3"}}