{"cas_no": "25260-60-0", "cn_name": "cis-1,4-\u4e8c\u4e59\u9170\u6c27\u57fa-2-\u4e01\u70ef", "en_name": ["2-Butene-1,4-diol, 1,4-diacetate, (2Z)-", "2-Butene-1,4-diol, 1,4-diacetate, (2Z)-", "2-Butene-1,4-diol, diacetate, (Z)-", "2-Butene-1,4-diol, diacetate, (2Z)-", "cis-1,4-Diacetoxy-2-butene", "cis-2-Butene-1,4-diol diacetate", "(Z)-1,4-Diacetoxybut-2-ene", "(Z)-4-(Acetyloxy)-2-butenyl acetate", "(Z)-2-Butene-1,4-diyl diacetate", "(Z)-1,4-Bis(acetoxy)but-2-ene", "(Z)-But-2-en-1,4-diyl diacetate", "(Z)-1,4-Diacetoxy-but-2-ene"], "SMILES": "C(OC(C)=O)C=CCOC(C)=O", "physical_data": {"Molecular Weight": "172.18", "Molecular Formula": "C8H12O4", "Boiling Point": "120-121 \u00b0C @ Press: 18 Torr"}}