{"cas_no": "25276-70-4", "cn_name": "N-\u5341\u4e94\u70f7\u57fa\u786b\u9187", "en_name": ["Pentadecanethiol", "1-Pentadecanethiol", "Pentadecanethiol"], "SMILES": "C(CCCCCCCS)CCCCCCC", "physical_data": {"Molecular Weight": "244.48", "Molecular Formula": "C15H32S", "Boiling Point": "173-174 \u00b0C @ Press: 16 Torr"}}