{"cas_no": "2527-58-4", "cn_name": "\u4e9a\u4e8c\u786b\u57fa\u4e8c(\u82ef\u7532\u9170\u7532\u80fa)", "en_name": ["Densil P", "Benzamide, 2,2\u2032-dithiobis[N-methyl-", "2,2\u2032-Dithiobis[N-methylbenzamide]", "Dithio-2,2\u2032-bis(N-methylbenzamide)", "Densil P"], "SMILES": "S(SC1=C(C(NC)=O)C=CC=C1)C2=C(C(NC)=O)C=CC=C2", "physical_data": {"Molecular Weight": "332.44", "Molecular Formula": "C16H16N2O2S2", "Melting Point": "216.5 \u00b0C"}}