{"cas_no": "2527-96-0", "cn_name": "5-\u7532\u57fa-2-\u544b\u5583\u7532\u9178\u7532\u916f", "en_name": ["Methyl 5-methyl-2-furancarboxylate", "2-Furancarboxylic acid, 5-methyl-, methyl ester", "2-Furoic acid, 5-methyl-, methyl ester", "Methyl 5-methyl-2-furancarboxylate", "Methyl 5-methyl-2-furoate", "5-Methyl-2-furoic acid methyl ester"], "SMILES": "C(OC)(=O)C=1OC(C)=CC1", "physical_data": {"Molecular Weight": "140.14", "Molecular Formula": "C7H8O3", "Boiling Point": "205 \u00b0C @ Press: 760 Torr"}}