{"cas_no": "25288-76-0", "cn_name": "3-\u4e8c\u82ef\u5e76\u567b\u5429\u80fa", "en_name": ["3-Dibenzothiophenamine", "3-Dibenzothiophenamine", "3-Aminodibenzothiophene", "NSC 170579", "Dibenzo[b,d]thiophen-3-amine"], "SMILES": "NC=1C=C2C(C=3C(S2)=CC=CC3)=CC1", "physical_data": {"Molecular Weight": "199.27", "Molecular Formula": "C12H9NS", "Melting Point": "121.5-122 \u00b0C"}}