{"cas_no": "2528-39-4", "cn_name": "\u78f7\u9178\u4e09\u5df1\u57fa\u916f", "en_name": ["Trihexyl phosphate", "Phosphoric acid, trihexyl ester", "Hexyl phosphate ((C6H13O)3PO)", "Trihexyl phosphate", "Tri(n-hexyl) phosphate", "Tri-N-hexyl phosphate"], "SMILES": "P(OCCCCCC)(OCCCCCC)(OCCCCCC)=O", "physical_data": {"Molecular Weight": "350.47", "Molecular Formula": "C18H39O4P", "Boiling Point": "183.5-184.5 \u00b0C @ Press: 2.5 Torr", "Density": "0.9205 g/cm\u00b3 @ Temp: 020 \u00b0C"}}