{"cas_no": "2528-61-2", "cn_name": "\u5e9a\u9170\u6c2f", "en_name": ["Heptanoyl chloride", "Heptanoyl chloride", "Enanthoyl chloride", "n-Heptanoyl chloride", "Enanthyl chloride", "Heptanoic acid chloride"], "SMILES": "C(CC(Cl)=O)CCCC", "physical_data": {"Molecular Weight": "148.63", "Molecular Formula": "C7H13ClO", "Boiling Point": "145 \u00b0C", "Melting Point": "-83.8 \u00b0C", "Density": "0.96645 g/cm\u00b3 @ Temp: 15 \u00b0C"}}