{"cas_no": "2528-16-7", "cn_name": "\u90bb\u82ef\u4e8c\u7532\u9178\u5355\u82c4\u916f", "en_name": ["Monobenzyl phthalate", "1,2-Benzenedicarboxylic acid, 1-(phenylmethyl) ester", "Phthalic acid, benzyl ester", "1,2-Benzenedicarboxylic acid, mono(phenylmethyl) ester", "Monobenzyl phthalate", "2-[(Benzyloxy)carbonyl]benzoic acid", "Benzyl hydrogen phthalate", "NSC 402008", "2-Phenylmethoxycarbonylbenzoic acid"], "SMILES": "C(OCC1=CC=CC=C1)(=O)C2=C(C(O)=O)C=CC=C2", "physical_data": {"Molecular Weight": "256.25", "Molecular Formula": "C15H12O4", "Melting Point": "104-105.5 \u00b0C"}}