{"cas_no": "2528-38-3", "cn_name": "\u78f7\u9178\u4e09\u6b63\u620a\u916f", "en_name": ["Tripentyl phosphate", "Phosphoric acid, tripentyl ester", "Pentyl phosphate ((C5H11O)3PO)", "Tripentyl phosphate", "Tri-n-amyl phosphate", "Triamyl phosphate", "Tri-n-pentyl phosphate", "1-Pentanol, phosphate (3:1)", "NSC 202805"], "SMILES": "P(OCCCCC)(OCCCCC)(OCCCCC)=O", "physical_data": {"Molecular Weight": "308.39", "Molecular Formula": "C15H33O4P", "Boiling Point": "143.5 \u00b0C @ Press: 2.5 Torr", "Density": "0.9373 g/cm\u00b3 @ Temp: 40 \u00b0C"}}