{"cas_no": "25291-17-2", "cn_name": "\u5168\u6c1f\u5df1\u57fa\u4e59\u70ef", "en_name": ["(Perfluorohexyl)ethylene", "1-Octene, 3,3,4,4,5,5,6,6,7,7,8,8,8-tridecafluoro-", "3,3,4,4,5,5,6,6,7,7,8,8,8-Tridecafluoro-1-octene", "1,1,2-Trihydroperfluoro-1-octene", "(Perfluorohexyl)ethene", "1H,1H,2H-Tridecafluoro-1-octene", "1H,1H,2H-Perfluoro-1-octene", "(Perfluorohexyl)ethylene", "ET 600 (fluorocompound)", "ET 600", "Cheminox PFHE", "F 1620", "1H,1H,2H,2H-Perfluorooct-1-ene", "C 60LF", "TE 6"], "SMILES": "C(C(C(C(F)(F)F)(F)F)(F)F)(C(C(C=C)(F)F)(F)F)(F)F", "physical_data": {"Molecular Weight": "346.09", "Molecular Formula": "C8H3F13", "Boiling Point": "104 \u00b0C"}}