{"cas_no": "252916-29-3", "cn_name": "orantinib", "en_name": ["Orantinib", "1H-Pyrrole-3-propanoic acid, 5-[(1,2-dihydro-2-oxo-3H-indol-3-ylidene)methyl]-2,4-dimethyl-", "5-[(1,2-Dihydro-2-oxo-3H-indol-3-ylidene)methyl]-2,4-dimethyl-1H-pyrrole-3-propanoic acid", "SU 6668", "3-[2,4-Dimethyl-5-[(2-oxo-1,2-dihydro-3H-indol-3-ylidene)methyl]-1H-pyrrol-3-yl]propionic acid", "TSU 68", "3-[4-(2-Carboxyethyl)-3,5-dimethylpyrrol-2-methylidenyl]-2-indolinone", "NSC 702827", "3-[2,4-Dimethyl-5-(2-oxo-1,2-dihydroindol-3-ylidenemethyl)-1H-pyrrol-3-yl]propionic acid", "Orantinib"], "SMILES": "C(=C1C=2C(NC1=O)=CC=CC2)C3=C(C)C(CCC(O)=O)=C(C)N3", "physical_data": {"Molecular Weight": "310.35", "Molecular Formula": "C18H18N2O3", "Melting Point": "252-254 \u00b0C"}}