{"cas_no": "2529-45-5", "cn_name": "\u6c1f\u5b55\u916e\u918b\u9178\u916f", "en_name": ["Fluorogestone acetate", "Pregn-4-ene-3,20-dione, 17-(acetyloxy)-9-fluoro-11-hydroxy-, (11\u03b2)-", "Pregn-4-ene-3,20-dione, 9-fluoro-11\u03b2,17-dihydroxy-, 17-acetate", "Progesterone, 9-fluoro-11\u03b2,17-dihydroxy-, 17-acetate", "(11\u03b2)-17-(Acetyloxy)-9-fluoro-11-hydroxypregn-4-ene-3,20-dione", "SC 9880", "17\u03b1-Acetoxy-9\u03b1-fluoro-11\u03b2-hydroxy-pregn-4-ene-3,20-dione", "Cronolone", "9\u03b1-Fluoro-11\u03b2-hydroxy-17\u03b1-acetoxypregn-4-ene-3,20-dione", "Flurogestone acetate", "Fluorogestone acetate", "17\u03b1-Acetoxy-9\u03b1-fluoro-11\u03b2-hydroxyprogesterone", "Gyncro-Mate", "FGA", "Chronogest", "Syncro-Mate", "Flugestone acetate", "Synchronate", "NSC 65411"], "SMILES": "CC12C(OC(C)=O)(C(C)=O)CCC1C3C(F)(C(O)C2)C4(C)C(CC3)=CC(=O)CC4", "physical_data": {"Molecular Weight": "406.49", "Molecular Formula": "C23H31FO5", "Melting Point": "267.5 \u00b0C"}}