{"cas_no": "253-82-7", "cn_name": "\u55b9\u5511\u5549", "en_name": ["Quinazoline", "Quinazoline", "1,3-Benzodiazine", "5,6-Benzopyrimidine", "1,3-Diazanaphthalene", "Phenmiazine", "NSC 72372"], "SMILES": "C12=C(C=CC=C1)N=CN=C2", "physical_data": {"Molecular Weight": "130.15", "Molecular Formula": "C8H6N2", "Boiling Point": "241 \u00b0C", "Melting Point": "48 \u00b0C"}}