{"cas_no": "253-52-1", "cn_name": "2,3-\u4e8c\u6c2e\u6742\u8418", "en_name": ["Phthalazine", "Phthalazine", "2,3-Benzodiazine", "Benzo[d]pyridazine", "2,3-Diazanaphthalene", "\u03b2-Phenodiazine", "NSC 62484", "NSC 63241"], "SMILES": "C12=C(C=NN=C1)C=CC=C2", "physical_data": {"Molecular Weight": "130.15", "Molecular Formula": "C8H6N2", "Boiling Point": "316 \u00b0C", "Melting Point": "90.5 \u00b0C"}}