{"cas_no": "253-72-5", "cn_name": "1,6-\u4e8c\u6c2e\u8418", "en_name": ["1,6-Naphthyridine", "1,6-Naphthyridine", "1,6-Diazanaphthalene", "1,6-Pyridopyridine"], "SMILES": "C12=C(C=CN=C1)N=CC=C2", "physical_data": {"Molecular Weight": "130.15", "Molecular Formula": "C8H6N2", "Melting Point": "31.5 \u00b0C"}}