{"cas_no": "2530-87-2", "cn_name": "3-\u6c2f\u4e19\u57fa\u4e09\u7532\u6c27\u57fa\u7845\u70f7", "en_name": ["3-(Trimethoxysilyl)propyl chloride", "Silane, (3-chloropropyl)trimethoxy-", "(3-Chloropropyl)trimethoxysilane", "\u03b4-Chloropropyltrimethoxysilane", "(\u03b3-Chloropropyl)trimethoxysilane", "Z 6076", "A 143", "Trimethoxy(3-chloropropyl)silane", "3-(Trimethoxysilyl)propyl chloride", "SH 6076", "CPS-M", "Sila-Ace S 620", "KBM 703", "LS 1260", "TSL 8320", "Silquest A 1430", "C 3300", "NSC 83878", "TSL 8326", "Unisilan 311", "Silquest A 143", "Dynasylan CPTMO", "KH 300", "KH 231", "DB 231", "SIC 2410", "Silane A 1430", "Xiameter OFS 6076", "3-Chloropropyltrimethoxysilan", "SIC 2410.0", "UP 121"], "SMILES": "[Si](CCCCl)(OC)(OC)OC", "physical_data": {"Molecular Weight": "198.72", "Molecular Formula": "C6H15ClO3Si", "Boiling Point": "100 \u00b0C @ Press: 40 Torr", "Density": "1.077 g/cm\u00b3 @ Temp: 25 \u00b0C"}}