{"cas_no": "2530-86-1", "cn_name": "(N,N-\u4e8c\u7532\u57fa-3-\u6c28\u4e19\u57fa)\u4e09\u7532\u6c27\u57fa\u7845\u70f7", "en_name": ["(Dimethylaminopropyl)trimethoxysilane", "1-Propanamine, N,N-dimethyl-3-(trimethoxysilyl)-", "Propylamine, N,N-dimethyl-3-(trimethoxysilyl)-", "N,N-Dimethyl-3-(trimethoxysilyl)-1-propanamine", "[3-(Dimethylamino)propyl]trimethoxysilane", "N,N-Dimethyl-3-(trimethoxysilyl)propylamine", "(N,N-Dimethyl-3-aminopropyl)trimethoxysilane", "N,N-Dimethyl-3-(trimethoxysilyl)-1-propylamine", "Dimethyl[3-(trimethoxysilyl)propyl]amine", "N,N-Dimethylaminopropyltrimethoxysilane", "(Dimethylaminopropyl)trimethoxysilane", "3-(N,N-Dimethylamino)propyltrimethoxysilane", "SID 3547.0", "SID 3547"], "SMILES": "[Si](CCCN(C)C)(OC)(OC)OC", "physical_data": {"Molecular Weight": "207.34", "Molecular Formula": "C8H21NO3Si", "Boiling Point": "106 \u00b0C @ Press: 30 Torr", "Density": "0.948 g/cm\u00b3 @ Temp: 25 \u00b0C"}}