{"cas_no": "25309-64-2", "cn_name": "1-\u4e59\u57fa-4-\u7898\u82ef", "en_name": ["1-Ethyl-4-iodobenzene", "Benzene, 1-ethyl-4-iodo-", "1-Ethyl-4-iodobenzene", "p-Ethyliodobenzene", "p-Iodoethylbenzene", "4-Ethylphenyl iodide", "4-Ethyliodobenzene", "4-Iodo-1-ethylbenzene", "4-Ethyl-1-iodobenzene", "1-Iodo-4-ethylbenzene"], "SMILES": "C(C)C1=CC=C(I)C=C1", "physical_data": {"Molecular Weight": "232.06", "Molecular Formula": "C8H9I", "Boiling Point": "230 \u00b0C", "Melting Point": "-11 \u00b0C", "Density": "1.6095 g/cm\u00b3 @ Temp: 16 \u00b0C"}}