{"cas_no": "25304-14-7", "cn_name": "\u836f\u8349\u916e", "en_name": ["1-(3,3-Dimethylcyclohexyl)ethanone", "Ethanone, 1-(3,3-dimethylcyclohexyl)-", "Ketone, 3,3-dimethylcyclohexyl methyl", "1-(3,3-Dimethylcyclohexyl)ethanone", "3,3-Dimethylcyclohexyl methyl ketone", "1-Acetyl-3,3-dimethylcyclohexane", "Herbac", "1-(3,3-Dimethylcyclohexyl)ethan-1-one"], "SMILES": "C(C)(=O)C1CC(C)(C)CCC1", "physical_data": {"Molecular Weight": "154.25", "Molecular Formula": "C10H18O", "Boiling Point": "89 \u00b0C @ Press: 14 Torr"}}