{"cas_no": "2530-83-8", "cn_name": "3-(2,3-\u73af\u6c27\u4e19\u6c27)\u4e19\u57fa\u4e09\u7532\u6c27\u57fa\u7845\u70f7", "en_name": ["Glycidoxypropyltrimethoxysilane", "Oxirane, 2-[[3-(trimethoxysilyl)propoxy]methyl]-", "Silane, [3-(2,3-epoxypropoxy)propyl]trimethoxy-", "Silane, trimethoxy[3-(oxiranylmethoxy)propyl]-", "2-[[3-(Trimethoxysilyl)propoxy]methyl]oxirane", "1-(Glycidyloxy)-3-(trimethoxysilyl)propane", "Glycidyloxypropyltrimethoxysilane", "[\u03b3-(Glycidyloxy)propyl]trimethoxysilane", "[3-(2,3-Epoxypropoxy)propyl]trimethoxysilane", "3-(Trimethoxysilyl)propyl glycidyl ether", "Z 6040", "Silane A 187", "A 187", "[[3-(Trimethoxysilyl)propoxy]methyl]oxirane", "KBM 403", "[3-(Glycidyloxy)propyl]trimethoxysilane", "Silane Z 6040", "Glycidyl 3-(trimethoxysilyl)propyl ether", "DZ 6040", "Y 4087", "NUCA 187", "SH 6040", "KH 560", "Petlark G 6720", "Glycidyl \u03b3-(trimethoxysilyl)propyl ether", "Toray Silicon SH 6040", "GPS-M", "G 6720", "Sila-Ace S 510", "Dynasylan GLYMO", "S 510", "SF 6040", "Prosil 5136", "GLYMO", "Ucarsil TC 100", "X 6146", "TSL 8350", "TC 100", "Hysol EA 9203", "(\u03b3-Glycidoxypropyl)trimethoxysilane", "(3-Glycidoxypropyl)trimethoxysilane", "Silquest A 187", "MSEP 2", "LS 2940", "Saivinol M 806", "SZ 6040", "Dynasylan GLYMO G 6720", "Glycidoxypropyltrimethoxysilane", "SK 81149", "3-(Glycidyloxy)propyltrimethoxylsilane", "Trimethoxy-\u03b3-glycidoxypropylsilane", "Trimethoxy(3-glycidoxypropyl)silane", "NSC 93590", "Degussa-Silan GLYMO", "Sigma G 1535", "Z 60400", "Gap 4 (oxirane)", "Gap 11 (oxirane)", "Gransil 51", "HS 2926", "KH 60", "SIG 5840", "GF 80", "GF 80 (coupling agent)", "Geniosil GF 80", "JH 0187", "ZQ 560", "KBM 430", "KBM 403E", "KBM 408", "SG 6720", "GPTMS", "Z 6040N", "Sila-Ace 510", "HG 560", "\u03b3-(2,3-Epoxypropoxy)propyltrimethoxysilane", "HK 560", "SCA 403", "TSL 8650", "DB 560", "Epoxirane", "G 0210", "Silquest SiG 5840.0", "2-((3-(Trimethoxysilyl)propyloxy)methyl)oxirane", "Dow Corning 6040", "GC 560", "Silquest 187", "SIG 5840.1", "Sila-Ace 501", "LT 560", "Xiameter OFS 6040", "OFS 6040", "WD 60", "Dynasylan HS 2926", "\u03b3-Glycidyl ether propyltrimethoxysilane", "\u03b3-Triglycidoxypropyltrimethoxysilane", "Deolink Epoxy TM 100", "Epoxypropoxypropyltrimethoxysilane", "BY 24-846B", "SG-Si 187", "SIG 5840.0", "Silanil 258", "Silane coupling agent KH-560", "GPTS", "WD 60 (coupling agent)", "Trimethoxy(3-(oxiran-2-ylmethoxy)propyl)silane", "USI 2301", "Andisil 187", "MP 200", "CoatOSil MP 200", "Trimethoxy(3-glycidyloxypropyl)silane", "DC 6040", "EPTMS", "SG 007", "Glycidoxyproyltrimethoxysilane", "Dowsil Z 6040", "Haichuan 306", "Trimethoxy-[3-(oxiranylmethoxy)propyl]silane", "SCA-E 87M", "AD 124", "DCZ 6040", "CG-O 187", "KH 1771", "3-Glycidoxypropyltrimethoxysilane"], "SMILES": "[Si](CCCOCC1CO1)(OC)(OC)OC", "physical_data": {"Molecular Weight": "236.34", "Molecular Formula": "C9H20O5Si", "Boiling Point": "120 \u00b0C @ Press: 2 Torr", "Melting Point": "&lt;-70 \u00b0C", "Density": "1.070 g/cm\u00b3"}}