{"cas_no": "2530-85-0", "cn_name": "3-(\u7532\u57fa\u4e19\u70ef\u9170\u6c27)\u4e19\u57fa\u4e09\u7532\u6c27\u57fa\u7845\u70f7", "en_name": ["3-(Trimethoxysilyl)propyl methacrylate", "2-Propenoic acid, 2-methyl-, 3-(trimethoxysilyl)propyl ester", "Methacrylic acid, 3-(trimethoxysilyl)propyl ester", "1-Propanol, 3-(trimethoxysilyl)-, methacrylate", "3-(Trimethoxysilyl)propyl methacrylate", "[\u03b3-(Methacryloyloxy)propyl]trimethoxysilane", "(\u03b3-Methacryloxypropyl)trimethoxysilane", "A 174", "3-Methacryloyloxypropyltrimethoxysilane", "Z 6030", "(3-Methacryloxypropyl)trimethoxysilane", "KBM 503", "Q 174", "NUCA 174", "Dynasylan MEMO", "MOPS-M", "Silane A 174", "SH 6030", "Prosil 248", "KH 570", "M 8550", "TSL 8370", "TMSPM", "SZ 6030", "GF 31", "Sila-Ace S 710", "LS 3380", "Silquest A 174", "Dynasylan MEMO-E", "Unisilan 511", "SS 1560", "AZ 6167", "KBM 503P", "S 710", "M 8550KG", "MEMO", "Silquest A 174NT", "U 151", "Trimethoxy(3-methacryloxypropyl)silane", "MPS", "NSC 93591", "2-Methyl-2-propenoic acid 3-(trimethoxysilyl)propyl ester", "A 174 (coupling agent)", "JH 70", "Trimethoxy(3-methacryloyloxypropyl)silane", "U 511", "KH 70", "TSL 8730", "SB 570", "SB 570 (coupling agent)", "Geniosil GF 31", "Z 6530", "MPTMS", "SCA 989", "Silwet A 174", "KBM 508", "DB 570", "YDH 570", "3MPA-SCA 989", "SIM 6487.4", "OFS 6030", "3-(Methylacryloxy)propyltrimethoxysilane", "SZ 6043", "HD 70", "KBM 5130", "Xiameter OFS 6030", "Dow Corning 6030", "3-Methacryloxypropyltrimethoxisilane", "PC 4100", "Methacryloyloxypropyltrimethoxysilane", "Dynasylan 6030", "A 174NT", "3-(Trimethyoxysilyl)propyl methacrylate", "LD 570", "\u03b3-Methacryloxy propyl trimethoxyl silane", "Silane coupling agent KH-570", "S 15", "S 15 (coupling agent)", "JH-O 174", "KBM 305", "KH 750", "Xiameter OFS 6030 Silane", "BY 24-846C", "Dynasylan SIVO 250", "SCA-L", "Coupling Agent 6030", "3-Trimethoxysilylpropyl 2-methylprop-2-enoate", "SIM 6487", "KH 570BR", "G 570", "CG 571", "3-(Trimethoxylsilyl)propyl methacrylate", "AC 63", "O 174E", "CG-O 174E", "CG 570", "CG 0174", "LA-A 03"], "SMILES": "[Si](CCCOC(C(C)=C)=O)(OC)(OC)OC", "physical_data": {"Molecular Weight": "248.35", "Molecular Formula": "C10H20O5Si", "Boiling Point": "190 \u00b0C", "Density": "1.045 g/cm\u00b3 @ Temp: 25 \u00b0C"}}