{"cas_no": "2530-10-1", "cn_name": "2,5-\u4e8c\u7532\u57fa-3-\u4e59\u9170\u57fa\u567b\u5429", "en_name": ["3-Acetyl-2,5-dimethylthiophene", "Ethanone, 1-(2,5-dimethyl-3-thienyl)-", "Ketone, 2,5-dimethyl-3-thienyl methyl", "1-(2,5-Dimethyl-3-thienyl)ethanone", "3-Acetyl-2,5-dimethylthiophene", "2,5-Dimethyl-3-acetylthiophene", "1-(2,5-Dimethylthiophen-3-yl)ethanone", "1-(2,5-Dimethylthiophen-3-yl)ethan-1-one"], "SMILES": "C(C)(=O)C=1C=C(C)SC1C", "physical_data": {"Molecular Weight": "154.23", "Molecular Formula": "C8H10OS", "Boiling Point": "126 \u00b0C @ Press: 28 Torr"}}