{"cas_no": "25309-65-3", "cn_name": "4-\u4e59\u57fa\u82ef\u7532\u8148", "en_name": ["4-Ethylbenzonitrile", "Benzonitrile, 4-ethyl-", "Benzonitrile, p-ethyl-", "4-Ethylbenzonitrile", "4-Cyanoethylbenzene", "p-Ethylbenzonitrile", "\u03b1-Methyl-p-toluonitrile", "1-Cyano-4-ethylbenzene"], "SMILES": "C(C)C1=CC=C(C#N)C=C1", "physical_data": {"Molecular Weight": "131.17", "Molecular Formula": "C9H9N", "Boiling Point": "~121 \u00b0C (approx) @ Press: 24 Torr", "Melting Point": "-24.2 \u00b0C", "Density": "0.9716 g/cm\u00b3 @ Temp: 20 \u00b0C"}}