{"cas_no": "25312-34-9", "cn_name": "alpha-\u7d2b\u7f57\u5170\u9187", "en_name": ["\u03b1-Ionol", "3-Buten-2-ol, 4-(2,6,6-trimethyl-2-cyclohexen-1-yl)-, (3E)-", "3-Buten-2-ol, 4-(2,6,6-trimethyl-2-cyclohexen-1-yl)-", "(3E)-4-(2,6,6-Trimethyl-2-cyclohexen-1-yl)-3-buten-2-ol", "\u03b1-Ionol", "(3E)-4-(2,6,6-Trimethyl-2-cyclohexenyl)-3-buten-2-ol", "Latilure", "4-(2,6,6-Trimethyl-2-cyclohexenyl)but-3-en-2-ol"], "SMILES": "C(=CC(C)O)C1C(C)(C)CCC=C1C", "physical_data": {"Molecular Weight": "194.31", "Molecular Formula": "C13H22O", "Boiling Point": "103 \u00b0C @ Press: 3 Torr", "Density": "0.9181 g/cm\u00b3 @ Temp: 21 \u00b0C"}}