{"cas_no": "2531-80-8", "cn_name": "2-\u785d\u57fa\u4e19\u9178\u4e59\u916f", "en_name": ["Propanoic acid, 2-nitro-, ethyl ester", "Propanoic acid, 2-nitro-, ethyl ester", "Propionic acid, 2-nitro-, ethyl ester", "Ethyl 2-nitropropionate", "Ethyl \u03b1-nitropropionate", "2-Nitropropionic acid ethyl ester", "Ethyl 2-nitropropanoate", "NSC 63896"], "SMILES": "C(C(OCC)=O)(N(=O)=O)C", "physical_data": {"Molecular Weight": "147.13", "Molecular Formula": "C5H9NO4", "Boiling Point": "190.5 \u00b0C", "Density": "1.1385 g/cm\u00b3 @ Temp: 20 \u00b0C"}}