{"cas_no": "25319-90-8", "cn_name": "\u915a\u786b\u6740\u6807\u51c6\u54c1", "en_name": ["MCPA-thioethyl", "Ethanethioic acid, 2-(4-chloro-2-methylphenoxy)-, S-ethyl ester", "Acetic acid, [(4-chloro-o-tolyl)oxy]thio-, S-ethyl ester", "Ethanethioic acid, (4-chloro-2-methylphenoxy)-, S-ethyl ester", "S-Ethyl-2-methyl-4-chlorophenoxythioacetate", "HOK 7501", "2-Methyl-4-chlorophenoxymonothioacetic acid S-ethyl ester", "S-Ethyl (4-chloro-2-methylphenoxy)thioacetate", "Phenothiol", "Tripion CB", "Herbit", "MCPA-thioethyl", "Fenothiol"], "SMILES": "O(CC(SCC)=O)C1=C(C)C=C(Cl)C=C1", "physical_data": {"Molecular Weight": "244.74", "Molecular Formula": "C11H13ClO2S", "Boiling Point": "165 \u00b0C", "Melting Point": "41.5 \u00b0C"}}