{"cas_no": "25316-40-9", "cn_name": "\u76d0\u9178\u591a\u67d4\u6bd4\u661f", "en_name": ["Doxorubicin hydrochloride", "5,12-Naphthacenedione, 10-[(3-amino-2,3,6-trideoxy-\u03b1-L-lyxo-hexopyranosyl)oxy]-7,8,9,10-tetrahydro-6,8,11-trihydroxy-8-(2-hydroxyacetyl)-1-methoxy-, hydrochloride (1:1), (8S,10S)-", "Adriamycin, hydrochloride", "5,12-Naphthacenedione, 10-[(3-amino-2,3,6-trideoxy-\u03b1-L-lyxo-hexopyranosyl)oxy]-7,8,9,10-tetrahydro-6,8,11-trihydroxy-8-(hydroxyacetyl)-1-methoxy-, hydrochloride, (8S-cis)-", "5,12-Naphthacenedione, 10-[(3-amino-2,3,6-trideoxy-\u03b1-L-lyxo-hexopyranosyl)oxy]-7,8,9,10-tetrahydro-6,8,11-trihydroxy-8-(hydroxyacetyl)-1-methoxy-, hydrochloride, (8S,10S)-", "Doxorubicin hydrochloride", "Adriamycin", "Adriacin", "Adriblastina RD", "Adriblastina", "Adriblastin", "ADR", "DOX HCl", "FI 6804", "ADM hydrochloride", "Hydroxydaunorubicin hydrochloride", "FI 106", "Adriablastina CS", "Lipo-Dox", "Adrosal", "Ameisu hydrochloride", "Myocet liposomal", "Doxolipad", "Caelyx pegylated liposomal", "Doxorubicin-TEVA", "Doxorubicin-LANS", "2B 3-101", "Doxotin", "Caelyx", "PEGylated liposomal DOX"], "SMILES": "OC=1C2=C(C(OC3CC(N)C(O)C(C)O3)CC(C(CO)=O)(O)C2)C(O)=C4C1C(=O)C=5C(C4=O)=C(OC)C=CC5.Cl", "physical_data": {"Molecular Weight": "", "Molecular Formula": "C27H29NO11.ClH", "Melting Point": "204-205 \u00b0C"}}