{"cas_no": "25316-59-0", "cn_name": "\u82c4\u57fa\u4e09\u4e01\u57fa\u6eb4\u5316\u94f5", "en_name": ["Benzyltributylammonium bromide", "Benzenemethanaminium, N,N,N-tributyl-, bromide (1:1)", "Ammonium, benzyltributyl-, bromide", "Benzenemethanaminium, N,N,N-tributyl-, bromide", "Benzyltributylammonium bromide", "Tributylbenzylammonium bromide", "Benzyltri-n-butylammonium bromide"], "SMILES": "[N+](CC1=CC=CC=C1)(CCCC)(CCCC)CCCC.[Br-]", "physical_data": {"Molecular Weight": "", "Molecular Formula": "C19H34N.Br", "Melting Point": "174.5-175 \u00b0C"}}