{"cas_no": "25311-71-1", "cn_name": "\u5f02\u67f3\u78f7", "en_name": ["Isofenphos", "Benzoic acid, 2-[[ethoxy[(1-methylethyl)amino]phosphinothioyl]oxy]-, 1-methylethyl ester", "Salicylic acid, isopropyl ester, O-ester with O-ethyl isopropylphosphoramidothioate", "Phosphoramidothioic acid, isopropyl-, O-ethyl ester, O-ester with isopropyl salicylate", "BAY 92114", "Isophenphos", "Isofenphos", "SRA 12869", "Oftanol", "Bayer 92114", "Amaze", "Pryfon 6", "Pyfron 6"], "SMILES": "C(OC(C)C)(=O)C1=C(OP(NC(C)C)(OCC)=S)C=CC=C1", "physical_data": {"Molecular Weight": "345.39", "Molecular Formula": "C15H24NO4PS", "Boiling Point": "120 \u00b0C @ Press: 0.01 Torr", "Melting Point": "&lt;-12 \u00b0C", "Density": "1.131 g/cm\u00b3 @ Temp: 20 \u00b0C"}}