{"cas_no": "2531-84-2", "cn_name": "2-\u7532\u57fa\u83f2", "en_name": ["2-Methylphenanthrene", "Phenanthrene, 2-methyl-", "2-Methylphenanthrene", "NSC 89276"], "SMILES": "CC1=CC=2C(=C3C(=CC2)C=CC=C3)C=C1", "physical_data": {"Molecular Weight": "192.26", "Molecular Formula": "C15H12", "Boiling Point": "155-160 \u00b0C", "Melting Point": "57-59 \u00b0C"}}