{"cas_no": "2532-58-3", "cn_name": "\u987a-1,3-\u4e8c\u7532\u57fa\u73af\u620a\u70f7", "en_name": ["cis-1,3-Dimethylcyclopentane", "Cyclopentane, 1,3-dimethyl-, (1R,3S)-rel-", "Cyclopentane, 1,3-dimethyl-, cis-", "rel-(1R,3S)-1,3-Dimethylcyclopentane", "cis-1,3-Dimethylcyclopentane", "1-cis-3-Dimethylcyclopentane", "(Z)-1,3-Dimethylcyclopentane"], "SMILES": "CC1CC(C)CC1", "physical_data": {"Molecular Weight": "98.19", "Molecular Formula": "C7H14", "Boiling Point": "90.8 \u00b0C", "Melting Point": "-133.7 \u00b0C", "Density": "0.759 g/cm\u00b3 @ Temp: 25 \u00b0C"}}