{"cas_no": "25327-89-3", "cn_name": "\u56db\u6eb4\u53cc\u915a A \u53cc\u70ef\u4e19\u57fa\u919a", "en_name": ["Tetrabromobisphenol A diallyl ether", "Benzene, 1,1\u2032-(1-methylethylidene)bis[3,5-dibromo-4-(2-propen-1-yloxy)-", "Propane, 2,2-bis[4-(allyloxy)-3,5-dibromophenyl]-", "Benzene, 1,1\u2032-(1-methylethylidene)bis[3,5-dibromo-4-(2-propenyloxy)-", "1,1\u2032-(1-Methylethylidene)bis[3,5-dibromo-4-(2-propen-1-yloxy)benzene]", "2,2-Bis(4-allyloxy-3,5-dibromophenyl)propane", "2,2-Bis(3,5-dibromo-4-allyloxyphenyl)propane", "Tetrabromobisphenol A diallyl ether", "1,1\u2032-Isopropylidenebis[4-(allyloxy)-3,5-dibromobenzene]", "SR 319", "Tetrabromobisphenol A bis(allyl ether)", "Pyroguard SR 319", "Tetrabromobisphenol A allyl ether", "FG 3200", "Flame Cut 122K", "BE 51", "Fire Guard 3200", "TBBPA-DE", "1,3-Dibromo-5-[2-(3,5-dibromo-4-prop-2-enoxyphenyl)propan-2-yl]-2-prop-2-enoxybenzene", "P 510 (allyl ether)", "P 510"], "SMILES": "C(C)(C)(C1=CC(Br)=C(OCC=C)C(Br)=C1)C2=CC(Br)=C(OCC=C)C(Br)=C2", "physical_data": {"Molecular Weight": "624.00", "Molecular Formula": "C21H20Br4O2", "Melting Point": "118-120 \u00b0C"}}