{"cas_no": "25323-89-1", "cn_name": "\u4e09\u6c2f\u4e59\u70f7", "en_name": ["Trichloroethane", "Ethane, trichloro-", "Trichloroethane"], "SMILES": "", "physical_data": {"Molecular Weight": "", "Molecular Formula": "C2H3Cl3", "Boiling Point": "113.8 \u00b0C @ Press: 760 Torr", "Melting Point": "-36.6 \u00b0C", "Density": "1.4416 g/cm\u00b3 @ Temp: 20 \u00b0C"}}