{"cas_no": "25321-09-9", "cn_name": "\u4e8c\u5f02\u4e19\u82ef", "en_name": ["Bis(1-methylethyl)benzene", "Benzene, bis(1-methylethyl)-", "Benzene, diisopropyl-", "Bis(1-methylethyl)benzene", "Diisopropylbenzene", "Bis(isopropyl)benzene"], "SMILES": "", "physical_data": {"Molecular Weight": "", "Molecular Formula": "C12H18", "Boiling Point": "205 \u00b0C", "Melting Point": "-40 \u00b0C"}}