{"cas_no": "25322-68-3", "cn_name": "\u805a\u4e59\u4e8c\u9187", "en_name": ["Polyethylene glycol", "Poly(oxy-1,2-ethanediyl), \u03b1-hydro-\u03c9-hydroxy-", "Glycols, polyethylene", "Ethylene oxide, homopolymer", "Oxide Wax AN", "Oxide Wax A", "Polyox WSR 301", "Polyethylene glycol", "Bradsyn PEG", "Carbowax 6000", "Polyethylene oxide", "Poly(ethylene ether) glycol", "DD 3002", "Carbowax 4000", "Polyox (polyglycol)", "Poly-G 600", "Poly(oxyethylene) glycol", "Polyox", "Carbowax 100", "Carbowax 600", "Ethylene glycol polymer", "Ethylene oxide polymer", "Gafanol E 200", "Gafanol E 300", "PEG", "PEG 6000", "Postonal", "WSR 35", "PEO 18", "WSR 205", "Emkapol 4200", "Carbowax E 9000", "Carbowax 1540", "Carbowax 200", "Carbowax 300", "Ethylene glycol homopolymer", "Macrogol", "Oxyethylene polymer", "PEG 400", "PEO 10", "PEO 16", "Polyox WSR 205", "\u03b1-Hydro-\u03c9-hydroxypoly(oxyethylene)", "\u03b1-Hydro-\u03c9-hydroxypoly(oxy-1,2-ethanediyl)", "WSR 301", "Polyox WSR 31", "Carbowax 1000", "PEG 600", "Polyox WSR-N 80", "Polydiol 200", "Polyox FRA", "Nycoline", "Solbase", "Polyox 30", "Polyox WSR-N 750", "Polyglycol 6000", "Polyglycol 12000", "Macrogol 6000", "Ethylene polyoxide", "Polyglycol 600", "Carbowax 1500", "Polyox WSR", "PEG 1000", "Polyglycol 4000", "WSR-N 3000", "Polyox WSR 1105", "Polyox Coagulant", "Emkapol 150", "Emkapol 200", "PEG 20000", "Polyox WSR-N 60", "Polyox 100", "Modopeg", "Polyox WSR-N 10", "Polyox WSR-N 3000", "Aquaffin", "Swasconol D 60", "Swasconol D 80", "HM 500", "Plastigen PR 8086", "Deactivator H", "Polyox 1", "PEG 4", "PEG 75", "Poly(vinyl oxide)", "PEG 2M", "PEG 6", "Ucar 4C", "Oxirane, homopolymer", "Polyox WSR 35", "Nosilen", "Polyoxyethylenediol", "WSR-N 10", "Pluriol E 200", "Pluriol E 300", "Pluriol E 400", "Pluriol E 800", "Pluriol E 4000", "Pluriol E 9000", "Pluriol E", "Polyox WSR-FRA", "Oxirane polymer", "Carbowax 20", "WSR-N Coag", "WSR-N 750", "M 9000", "Polyhydroxyethylene", "Teisan Z 75", "\u03b1,\u03c9-Hydroxypoly(ethylene oxide)", "ENT 1000", "PEG 35", "Laprol 402", "E 1000", "E 1000 (polyglycol)", "Lineartop P", "Modopeg 4000", "Chemiox E 20(C)", "Superox 4", "Macrogol 400", "Superox", "Superox 5", "Superox 0.1", "Superox 0.6", "Polywax 6000", "Lutrol 9", "PEO 100", "Alkox", "Polikol 1500", "Polikol 3T", "PEG 115", "Viterra 2 Hydrogel", "Carbowax 14000", "PEG (polyglycol)", "PEO", "Polywax 12000", "Lutrol E 400", "Polydiol 400", "Nopcofloc 310", "Oxide A", "Polikol 400", "Polikol 600", "Laprol 1001", "Polikol 300", "ST 836", "E 6000", "E 200", "Tenzilin 200", "Tenzilin 300", "Tenzilin 400", "PEG 4000", "Genoplast 200", "Polyox WSR-N 301", "Carbowax 3350", "E 200 (polyglycol)", "Polikol", "Polyox WSR 80", "GPE 400", "GPE 1000", "Carbowax 8000", "Carbowax", "PEO 3", "Breox 4000", "Rexol P 2002", "Pluriol E 600", "Pluriol E 6000", "E 400", "PEG 300", "Breox 550", "Macrogol 1500", "Breox 20M", "Lutrol E 4000", "Badimol", "PEOPO-A", "Aquacide III", "Pluracol E 8000", "Alcox R 400", "E 3350", "E 4500", "E 8000", "1,2-Ethanediol, homopolymer", "Carbowax 400", "Polydiol 1550", "Alkox E 30", "Carbowax 1350", "Zusoplast 9002", "Pluriol E 1500", "PEG 3350", "Macrogol 600", "Macrogol 1540", "Macrogol 200", "Macrogol 300", "Macrogol 4000", "G 3350", "U 100 (polyglycol)", "U 100", "Polyglycol 300", "FPR", "PEO 8", "R 400", "Polyox WSR-N 80-1001C", "E 400NF", "DB-WAX", "Polyox WSR 700", "Carbowax 4500", "PEG 6000S", "PEG 2000", "Breox PEG 300", "Pluriol E 1000", "Macrogol 1000", "Alkox R 1000", "Alkox E 60", "Polyox N 12K", "E 1450NF", "E 4500 (polymer)", "PEG 8000", "Alkox R 400", "PEG 5000", "Alkox R 150", "Alkox E 75", "IW (dispersant)", "IW", "Pluriol 9000", "Polyox OF 50", "Polyoxyalkylenes, polyethylene glycol", "Polyox WSR-N 3333", "Polywax 20000", "P 300 (polyoxyalkylene)", "P 300", "PEG 12000", "CBP 20", "Pluracol E 400", "Polyox WRPA 3154", "OEG 300", "OEG 100", "OEG 600", "OEG 1000", "OEG 2000", "OEG", "Ucarfloc", "PEO 15", "Polyox WRN 3000", "PEG 11000", "PEO 1", "1660S", "1660O", "Carbowax 20000", "Polygol", "Carbowax 4600", "Polyox WSR-N 12K", "Polyox WSR-N 60K", "Polyox WSR Coagulant", "Polyox Ucarfloc 309", "Polyox N 750", "Gligogum 4000", "Pluracol E 4000", "PEO 5000", "Polikol 1600", "Pluracol E 300", "Alkox E 160", "Pluracol E 600", "Alkox E 240", "Alkox R 15", "Alkox E 130", "Alkox E 45", "Alkox E 100", "PE 4000", "Macrogol 400R", "Voranol E 400", "Decuflux RM 33", "Pluracol E 4600", "Polyox 309", "Polyox WSR-N 205", "E 600", "Ultrafloc 309", "Polyox 303", "SS 70", "Polyox N 78", "Polyox N 80", "PT-C 300ZT", "PT-T 8-200DL", "PEG 200", "Polyoxydin", "Desmophen L 1208", "Polyosm", "BDH 301", "Breox 2000", "PEO 400", "Cerasol 250A", "Polyox N 3000", "Polyox N 10", "Polyox WSR 303", "Polyox WSR-N 303", "Carbowax 25000", "Polyox WSR-N 78", "Polyox 600K", "PEG 4000N", "CAFO 154", "Antarox E 4000", "PE 68", "PE 68 (polyol)", "Microsolv PEG 100", "PEG 4600", "Polyox N 60K", "Polydiol 300", "Macol E 300", "Polyglycol 400", "Pluriol E 900", "Pluriol E 2000", "PEG 1500", "Lutrol E 6000", "KleanPrep", "Carbowax PEG 300", "Rhodasurf E 400", "Rhodasurf E 600", "Rhodasurf E 1000", "Fomrez PEG 1000L", "Polyox WSR 3O1", "Lipoxol 3000", "Lipoxol 6000", "Lipoxol 12000", "PE 1 (polyether)", "PE 2 (polyether)", "PE 1", "PE 2", "Ucarfloc 304", "Alkox SR", "E 30", "Polyox WSR-N 1105", "KPEG 6000", "PEO 27", "PEG 15000", "Ucarfloc WSR 303", "Ucarfloc 309", "SL 300", "Ulbon HR 20M", "PEG 1450", "PMF 100", "PEG 6000P", "Sed-Fix", "Cartaretin E", "Floc 999", "PEG 7M", "Pegol 300", "E 240", "R 1000", "Feltmaster 15LF", "WRS-N 80", "PEO 750N", "Polyox WSR 308", "Polyox 301", "PEG 100", "PEG 10000", "Forlax", "Meisei 4000", "Polyox WSR 12K", "PEG 1540", "Polyox WSR 301B658", "Polyox WSR Coag", "Macrogol 600P", "PEO 2", "PEG 4000S", "Polyglycol 200", "Polyox WSR-N 80NF", "N 80NF", "P 20000", "Polyglycol E", "400DAB8", "Polyglycol 1500", "Ucarfloc Polymer 304", "PEG 6000J", "Polyox WSR 750", "PEG 2000P", "PEO 1K1L", "PEO 1Z", "PEO 3Z", "Carbowax 1450", "Carbowax PEG 1450", "Pluracol 20K", "PEO 8Z", "Polyetox", "Carbowax Sentry NF", "Polyox WSR N 3000H", "PEG 3400", "Polyox WSR 10", "PER (glycol)", "PEB (glycol)", "PEB", "PER", "PEG 24", "Polyox 308", "Lipoxol 4000", "PDF 181001", "Sunbright DKH 50H", "PEG 3000", "Netbond FRA", "PEG 5950", "PEG 3130", "PEG-T 500", "Nongeru R 431", "SE 8", "SE 30", "HM 500 (polyoxyalkylene)", "SE 8 (polyoxyalkylene)", "SE 30 (polyoxyalkylene)", "Slovasol 600", "Alkox R 100", "Alkox E 30G", "Lipoxol 400MED", "MN 300", "PEG 20000P", "KPEG 6000LA", "Protachem 400", "XG 1300", "PEG 6000M", "FPR (polyether)", "Polyox WSR 101", "Pluracol E 1450", "H 22 (polyether)", "H 22", "Pluriol 4000", "PEO 18P", "PEO 8P", "Newfrontier PEM 300", "Polyglycol E 400", "Polyglycol 35000S", "E 45", "Alkox SW", "Priowax 1000", "PEG 13000", "PEO 18Z", "PEG 90M", "PEO-PF", "MiraLax", "PEO 27P", "Carbowax E 300", "Polyglycol E 8000", "Polyglycol 10000", "Polyglycol 8000PF", "Macrogol 800", "Alkox LE", "OPE 4", "Aqua Calk TWB-P", "Carbowax Sentry 300", "Macrogol 20000", "PF 127", "Sunbright DKH 04HB", "PEG 3300", "PEG 400K", "PEG 300K", "PEG 200K", "PEG 600K", "HPEO 4250", "Polyox WSR 750NF", "PEG 600NF", "PEG 400NF", "Polyox WSR-N 60KCG", "SN 4X5526", "SN 4X5527", "SN 4X5406", "SN 4X5528", "Monopol PEG 200", "Polyethox", "Slovapeg", "Pluriol 1500", "PEG 600S", "Polywax 1550", "Polyglycol 8000", "XG 60", "XG 300", "Sunbright DKH 20T", "Polyglycol E 200", "Lutrol 75", "Polyglycol 4000S", "WSR-N 80", "Sentry Polyox WSR 301", "Sentry Polyox WSR Coagulant", "Sentry Polyox WSR 303", "Polyglycol 8000S", "Maxifloc 998", "Polyglycol 8000P", "Lutrol 400", "U 601", "U 101", "Alkox E 300", "R 150", "Lanogene C", "PEG 35000", "Newpol PEG 600", "Polyox N 301", "Carbowax Sentry PEG 8000", "Polyox W 750", "W 750", "L 300", "Polyox WSR 303NF", "Maxifloc 999", "Polyox 60K", "PEO 1NF", "Pluracol E 400NF", "XG 13000L60", "PEG 400-600", "E 300", "Ucarfloc 300", "Pluriol E 8000", "Pluriol E 1010", "L 6", "L 6 (polyoxyalkylene)", "PEG 35000S", "Duraseal", "M 3686B", "DuraSeal (tissue sealant)", "Alkox L 6", "Lumulse PEG 200", "PEO 10K", "Lutrol 300", "PE 8", "XG 3000", "PE 8 (polyether)", "YB 5181", "Yukol 3553", "M 2000H", "GlycoLax", "Alcox L 11", "Carbowax PEG 1000", "Carbowax PEG 3350", "Carbowax E 1000", "Ucarflock 302", "Laprol 2502", "Pluracol E 6000", "M-LE 1013", "PEG 9000", "PEO 4", "Polyglycol 6000S", "Polyglykol 6000S", "Witconol PEG 400", "PEG 750", "Polyglycol E 6000", "PEG 1000T", "WSR-N 60K", "WSR Coagulant", "WSR-N 12K", "PEG 100U", "Toho Polyethylene Glycol 1000", "Toho Polyethylene Glycol 400", "Thorcopeg 200", "Colonsoft", "Pegorion", "PEG 4000F", "Lipoxol 600", "Macrogol PEG 400", "P 6608EG2OH", "P 5376EG2OH", "Cerasol 200A", "Alkox L 11", "Carbowax PEG 600", "B 22181", "Polyox WSR 301NF", "Polyethylene glycol 20000", "Toho Polyethylene Glycol 1540", "Toho Polyethylene Glycol 4000", "Toho Polyethylene Glycol 6000", "POGOL 600", "PEK 35 (polyether)", "PEK 35", "Beraid 3540", "Lixopol 600", "CO 1006", "Polyox WSR-N 12NF", "Polyglycol 2000S", "Polyox NF", "PEG 1700", "PEG 800", "Lipoxol 1500", "Flocc 999", "Pluriol E 8005", "Alkox L 8", "Optima Wax", "Alkox 8400", "PEG-diol", "Lutrol E 300", "Kollisolv PEG 300", "Kollisolv PEG 400", "Lutrol E 1500", "Polyox N 10NF", "POGOL 300", "X 55K", "PEO 29", "Lipoxol 300", "Lipoxol 200", "Isocolan", "Sunbright DKH 10H", "PEG 900", "Poly(ethylene oxide)", "SpaceOAR", "Pluracare E 1500", "PW 56", "Polyglycol 35000", "SK 45T", "Polyglycol E 600", "PEO-PFZ", "HR 20M", "Polyox WSR 301LEO-NF", "PEO 15Z", "PEG-(OH)2", "PEG-E 400", "Macrogol 3000", "Carbowax PEG Plus", "Muvinlax", "PEG 18947-2", "Polyox WSR 303N", "Alkox E 75G", "PEO WSR-N 12K", "PEO WSR Coagulant", "PEG 136", "Polyoxy N 80", "Lumulse 1450", "P 20", "PEO 1P", "Polyox WSR 201", "PEO 5", "Polyox WSR-N 3000LS", "GaviLyte C", "Macrogol 6000P", "PEO-N 10", "Canapeg 300", "Blaunon PEG 400", "Renex PEG 1500", "Renex PEG 1500FL", "Renex PEG 1500FL-CQ", "Tonen E 30", "PW 110", "PEG 2000U", "PEG 700", "Lipoxol 3350", "Polyox 1105", "Polyox N 1105", "PEG 20H", "Alkox L 100", "PEO 3P", "PEO 15P", "Alkox E 60G", "Sibfloc 718", "Polyethylene ether glycol", "Aqua Cork TWB-P", "PEO 6", "Zusoplast G 72", "Polyethylene Glycol 90M", "PEO 18F", "Kopex PEG 400", "TT 1200", "Emulan PS 700", "ADwet 90", "M 6000", "Toho Polyethylene Glycol 600", "Alcox L 6", "Kollisolve PEG E 400", "Alcox CPA 2H", "Polypan 4000", "Polypan 6000", "Pluracol 2000", "Pluriol E 600NF", "Rhodasurf E 1500", "Polyoxyethylene cocco ether", "Polyox 205", "Polyox WSR 1105LEO", "Polyox WSR 303LEO", "Macrogol 400EF", "Polyox N 740", "PEG 14M", "Oligoethylene glycol", "Polyglycol 12000S", "Polyglycol 20000S", "Pluriol FT-E 400", "WSR 308", "Polyglycol 20000SRU", "Polyglykol 20000SRU", "Zalta MF 3000", "Isoxal H", "F 3015", "BioUltra 87333", "BioUltra 81188", "BioUltra 81255", "PEG 1000L60", "DEG 4000", "Polyglykol 400", "Macrogol 3350", "Polyox N 303", "N 303", "Polyox N 60", "Kieralon MRZ", "Renex PEG 6000", "Carbowax Sentry PEG 400", "PEG 0810", "PG 600", "PG 600 (polyoxyalkylene)", "PF 920", "Loxanol PL 5814", "Polyglykol 12000S", "BioUltra 2000", "P 103719", "P 101344", "PEG 220", "A 316", "Polyglykol 300", "A 316 (polyoxyalkylene)", "PEO-PFZR", "Polyglykol 20000S", "PEG 210", "A 35872", "Polyglykol 3350S", "Polyglycol 3350S", "Carbowax PEG 4000", "Emprove Essential DAB 8", "Emprove Essential Ph Eur", "Supracare 430", "Supelco 81206", "SD 2003", "PEG 1000-60L", "Wanol PEG 6000", "Wanol PEG 4000", "PEO 4k", "PEO 6k", "PEO 20k", "Pluriol 400E", "Lipoxol 400", "NL 20", "NL 20 (polyoxyalkylene)", "polyethylene oxide 1L", "ICPSEB", "PEO 1L", "Foamysense 308", "PEG 500", "Polyglykol 600PU", "A 524", "YL 405", "BioUltra 10000", "Sabopeg 600", "Pluracare E 600", "Pluracare E 600NF", "Jeechem 600", "Sympatens PEG 1500G", "Jeechem 1450", "Sabopeg 1500", "Pluracare E 1450N-NF", "PEG 055", "Polyglykol 3500S", "PEG 6000T", "S 49769", "Pluriol 1010E", "PEO 1500", "P 815611", "P 815609", "PEG 13000L60", "Ryoji 600", "PEG 8", "Carbowax PEG 400DE", "M 1000 (polyoxyakylene)", "M 1000", "Kopex PEG 1000", "WSR 303", "PEG 1900", "Macrogol 8000", "CHPEG 2500", "WSR 303NF", "Endofalk", "PEO 100K", "PEO 300K", "MeSH ID: D011092", "Polyglycol 4000PF"], "SMILES": "C(CO[H])O", "physical_data": {"Molecular Weight": "", "Molecular Formula": "(C2H4O)nH2O", "Boiling Point": "&gt;325 \u00b0C", "Melting Point": "57.5 \u00b0C", "Density": "1.127 g/cm\u00b3 @ Temp: 20 \u00b0C"}}