{"cas_no": "25332-39-2", "cn_name": "\u76d0\u9178\u66f2\u5511\u916e", "en_name": ["Trazodone hydrochloride", "1,2,4-Triazolo[4,3-a]pyridin-3(2H)-one, 2-[3-[4-(3-chlorophenyl)-1-piperazinyl]propyl]-, hydrochloride (1:1)", "s-Triazolo[4,3-a]pyridin-3(2H)-one, 2-[3-[4-(m-chlorophenyl)-1-piperazinyl]propyl]-, monohydrochloride", "1,2,4-Triazolo[4,3-a]pyridin-3(2H)-one, 2-[3-[4-(3-chlorophenyl)-1-piperazinyl]propyl]-, monohydrochloride", "Trazodone hydrochloride", "AF 1161", "Desyrel", "Molipaxin", "KB 831", "Pragmazone", "Thombran", "Trazolan", "Tombran", "Trittico", "Bimaran", "Mesyrel", "2-(3-(4-(3-Chlorophenyl)piperazin-1-yl)propyl)-[1,2,4]triazolo[4,3-a]pyridin-3(2H)-one hydrochloride", "2-[3-[4-(3-Chlorophenyl)piperazin-1-yl]propyl]-2H,3H-[1,2,4]triazolo[4,3-a]pyridin-3-one hydrochloride", "Desyrel dividose", "Oleptro", "Oleptro ER"], "SMILES": "O=C1N2C(=NN1CCCN3CCN(CC3)C4=CC(Cl)=CC=C4)C=CC=C2.Cl", "physical_data": {"Molecular Weight": "", "Molecular Formula": "C19H22ClN5O.ClH", "Melting Point": "223 \u00b0C"}}