{"cas_no": "25333-42-0", "cn_name": "(R)-(-)-3-\u594e\u5b81\u9187", "en_name": ["(R)-3-Quinuclidinol", "1-Azabicyclo[2.2.2]octan-3-ol, (3R)-", "3-Quinuclidinol, (-)-", "1-Azabicyclo[2.2.2]octan-3-ol, (R)-", "(3R)-1-Azabicyclo[2.2.2]octan-3-ol", "l-3-Quinuclidinol", "(R)-(-)-3-Quinuclidinol", "(R)-3-Quinuclidinol", "(R)-1-Azabicyclo[2.2.2]octan-3-ol", "(-)-3-Quinuclidinol", "(3R)-Quinuclidin-3-ol", "(3R)-3-Quinuclidinol", "(R)-3-Hydroxyquinuclidine", "(R)-3-Quinuclidol", "(R)-(-)-1-Azabicyclo[2.2.2]octan-3-ol", "R-Quinuclidin-3-ol", "(-)-(R)-3-Quinuclidinol", "(3R)-Quinuclidinol", "(3R)-1-Azabicyclo[2.2.2]octan-3-ol"], "SMILES": "OC1C2CCN(C1)CC2", "physical_data": {"Molecular Weight": "127.18", "Molecular Formula": "C7H13NO", "Melting Point": "219 \u00b0C"}}