{"cas_no": "2533-69-9", "cn_name": "2,2,2-\u4e09\u6c2f\u4e59\u9170\u4e9a\u80fa\u9178\u7532\u916f", "en_name": ["Ethanimidic acid, 2,2,2-trichloro-, methyl ester", "Ethanimidic acid, 2,2,2-trichloro-, methyl ester", "Acetimidic acid, 2,2,2-trichloro-, methyl ester", "Methyl trichloroacetimidate", "Methyl 2,2,2-trichloroacetimidate", "Trichloroacetimidic acid methyl ester", "NSC 306728", "2,2,2-Trichloroacetimidic acid methyl ester", "Methyl 2,2,2-trichloroethanimidate"], "SMILES": "C(C(Cl)(Cl)Cl)(OC)=N", "physical_data": {"Molecular Weight": "176.43", "Molecular Formula": "C3H4Cl3NO", "Boiling Point": "148-149 \u00b0C", "Melting Point": "-30 \u00b0C"}}