{"cas_no": "25339-17-7", "cn_name": "\u5f02\u7678\u9187", "en_name": ["Isodecanol", "Isodecanol", "Isodecyl alcohol", "Exxal 10"], "SMILES": "", "physical_data": {"Molecular Weight": "", "Molecular Formula": "C10H22O", "Boiling Point": "220 \u00b0C @ Press: 800 Torr", "Melting Point": "7 \u00b0C", "Density": "0.841 g/cm\u00b3 @ Temp: 20 \u00b0C"}}