{"cas_no": "2534-66-9", "cn_name": "1-\u8f9b\u57fa\u5421\u5576\u6eb4\u76d0", "en_name": ["Octylpyridinium bromide", "Pyridinium, 1-octyl-, bromide (1:1)", "Pyridinium, 1-octyl-, bromide", "1-Octylpyridinium bromide", "N-Octylpyridinium bromide", "Octylpyridinium bromide"], "SMILES": "C(CCCCCCC)[N+]=1C=CC=CC1.[Br-]", "physical_data": {"Molecular Weight": "", "Molecular Formula": "C13H22N.Br", "Melting Point": "28-30 \u00b0C"}}