{"cas_no": "25340-17-4", "cn_name": "\u4e8c\u4e59\u57fa\u82ef", "en_name": ["Diethylbenzene", "Benzene, diethyl-", "Diethylbenzene"], "SMILES": "", "physical_data": {"Molecular Weight": "", "Molecular Formula": "C10H14", "Boiling Point": "184 \u00b0C", "Melting Point": "-31 \u00b0C", "Density": "0.86 g/cm\u00b3"}}