{"cas_no": "25346-31-0", "cn_name": "3-\u6eb43-\u7532\u57fa\u620a\u70f7", "en_name": ["3-Bromo-3-methylpentane", "Pentane, 3-bromo-3-methyl-", "3-Bromo-3-methylpentane"], "SMILES": "C(CC)(CC)(Br)C", "physical_data": {"Molecular Weight": "165.07", "Molecular Formula": "C6H13Br", "Boiling Point": "130 \u00b0C", "Density": "1.2066 g/cm\u00b3 @ Temp: 0 \u00b0C"}}