{"cas_no": "2534-77-2", "cn_name": "EXO-2-\u6eb4\u964d\u83b0\u70f7", "en_name": ["exo-2-Bromonorbornane", "Bicyclo[2.2.1]heptane, 2-bromo-, (1R,2R,4S)-rel-", "Norbornane, 2-bromo-, exo-", "Bicyclo[2.2.1]heptane, 2-bromo-, exo-", "rel-(1R,2R,4S)-2-Bromobicyclo[2.2.1]heptane", "exo-2-Bromonorbornane", "exo-2-Norbornyl bromide", "exo-Norbornyl bromide", "(\u00b1)-exo-2-Bromonorbornane", "2-exo-Bromonorbornane", "NSC 91496", "exo-2-Bromobicyclo[2.2.1]heptane"], "SMILES": "BrC1C2CC(C1)CC2", "physical_data": {"Molecular Weight": "175.07", "Molecular Formula": "C7H11Br", "Boiling Point": "82 \u00b0C", "Density": "1.3808 g/cm\u00b3 @ Temp: 25 \u00b0C"}}