{"cas_no": "25354-97-6", "cn_name": "2-\u5df2\u57fa\u5341\u4e00\u9178", "en_name": ["2-Hexyldecanoic acid", "Decanoic acid, 2-hexyl-", "2-Hexyldecanoic acid", "C16 Guerbet fatty acid", "Isocarb 16", "2-n-Hexyldecanoic acid", "Isopalmitic acid", "Fine Oxocol Isopalmitic Acid"], "SMILES": "C(CCCCCCCC)(CCCCCC)C(O)=O", "physical_data": {"Molecular Weight": "256.42", "Molecular Formula": "C16H32O2", "Boiling Point": "145 \u00b0C", "Melting Point": "&lt;25 \u00b0C", "Density": "0.8817 g/cm\u00b3 @ Temp: 20 \u00b0C"}}