{"cas_no": "25357-81-7", "cn_name": "\u4e19\u6c28\u57fa\u4e09(\u4e09\u7532\u57fa\u7845\u6c27\u57fa)\u7845\u70f7", "en_name": ["3-Aminopropyltris(trimethylsiloxy)silane", "1-Propanamine, 3-[3,3,3-trimethyl-1,1-bis[(trimethylsilyl)oxy]-1-disiloxanyl]-", "Propylamine, 3-[3,3,3-trimethyl-1,1-bis(trimethylsiloxy)disiloxanyl]-", "1-Propanamine, 3-[3,3,3-trimethyl-1,1-bis[(trimethylsilyl)oxy]disiloxanyl]-", "3-[3,3,3-Trimethyl-1,1-bis[(trimethylsilyl)oxy]-1-disiloxanyl]-1-propanamine", "Tris(trimethylsiloxy)(3-aminopropyl)silane", "3-Tris[(trimethylsilyl)oxy]silyl]propylamine", "3-Aminopropyltris(trimethylsiloxy)silane", "A 0805", "3-Tris(trimethylsilyloxy)silylpropan-1-amine", "3-(1,1,1,5,5,5-Hexamethyl-3-((trimethylsilyl)oxy)trisiloxan-3-yl)propan-1-amine"], "SMILES": "[Si](O[Si](C)(C)C)(O[Si](C)(C)C)(O[Si](C)(C)C)CCCN", "physical_data": {"Molecular Weight": "353.75", "Molecular Formula": "C12H35NO3Si4", "Boiling Point": "152 \u00b0C @ Press: 47 Torr", "Density": "0.891 g/cm\u00b3 @ Temp: 25 \u00b0C"}}