{"cas_no": "25360-10-5", "cn_name": "\u53d4\u58ec\u57fa\u786b\u9187", "en_name": ["tert-Nonyl mercaptan", "tert-Nonanethiol", "tert-Nonyl mercaptan", "Sulfole 90"], "SMILES": "", "physical_data": {"Molecular Weight": "", "Molecular Formula": "C9H20S", "Boiling Point": "120-150 \u00b0C @ Press: 40 Torr", "Density": "0.849 g/cm\u00b3 @ Temp: 20 \u00b0C"}}