{"cas_no": "25369-33-9", "cn_name": "7-\u6c2f\u6c27\u5316\u5432\u54da", "en_name": ["7-Chloro-1,3-dihydro-2H-indol-2-one", "2H-Indol-2-one, 7-chloro-1,3-dihydro-", "2-Indolinone, 7-chloro-", "7-Chloro-1,3-dihydro-2H-indol-2-one", "7-Chloro-2-oxoindoline", "7-Chlorooxindole", "7-Chloro-1,3-dihydroindol-2-one", "7-Chloroindolin-2-one", "7-Chloro-2-oxindole"], "SMILES": "ClC1=C2C(CC(=O)N2)=CC=C1", "physical_data": {"Molecular Weight": "167.59", "Molecular Formula": "C8H6ClNO", "Melting Point": "215 \u00b0C"}}