{"cas_no": "25366-22-7", "cn_name": "N2-\u7532\u57fa-5-(\u4e09\u6c1f\u7532\u57fa)-1,3,4-\u567b\u4e8c\u5511-2-\u80fa", "en_name": ["N-Methyl-5-(trifluoromethyl)-1,3,4-thiadiazol-2-amine", "1,3,4-Thiadiazol-2-amine, N-methyl-5-(trifluoromethyl)-", "1,3,4-Thiadiazole, 2-(methylamino)-5-(trifluoromethyl)-", "N-Methyl-5-(trifluoromethyl)-1,3,4-thiadiazol-2-amine", "2-Methylimino-5-trifluoromethyl-\u03944-1,3,4-thiadiazoline", "2-Methylamino-5-(trifluoromethyl)-1,3,4-thiadiazole", "2-Methylammonia-(5-trifluoromethyl)-1,3,4-thiadiazole"], "SMILES": "C(F)(F)(F)C=1SC(NC)=NN1", "physical_data": {"Molecular Weight": "183.15", "Molecular Formula": "C4H4F3N3S", "Melting Point": "115-116 \u00b0C"}}