{"cas_no": "2536-31-4", "cn_name": "\u6574\u5f62\u7d20", "en_name": ["Chlorflurenol methyl", "9H-Fluorene-9-carboxylic acid, 2-chloro-9-hydroxy-, methyl ester", "Fluorene-9-carboxylic acid, 2-chloro-9-hydroxy-, methyl ester", "IT 3456", "2-Chloro-9-fluorenol-9-carboxylic acid methyl ester", "Methyl 2-chloro-9-fluorenol-9-carboxylate", "Methyl 2-chloro-9-hydroxyfluorene-9-carboxylate", "Methyl morphactin", "Methyl-2-chloro-9-hydroxyfluorene-9-carboxylic acid", "Morphactin IT 3456", "TH 417-H", "Chlorflurecol-methyl", "2-Chloro-9-hydroxyfluorene-9-carboxylic acid methyl ester", "Chlorfluorenolmethyl", "Maintain", "Maintain A", "Chlorfluorenol IT 3456", "2-Chloro-9-hydroxy-9H-fluorene-9-carboxylic acid methyl ester", "Chloroflurenol methyl ester", "EMD 7301", "EMD 7301W", "Chlorflurenol methyl", "EMD-IT 3456", "CME 74050", "Chlorflurenol methyl ester", "CF 125", "CME 74050P", "Chlorflurecol methyl ester"], "SMILES": "C(OC)(=O)C1(O)C=2C(C=3C1=CC=CC3)=CC=C(Cl)C2", "physical_data": {"Molecular Weight": "274.70", "Molecular Formula": "C15H11ClO3", "Melting Point": "136-142 \u00b0C"}}