{"cas_no": "2536-91-6", "cn_name": "2-\u6c28\u57fa-6-\u7532\u57fa\u82ef\u5e76\u567b\u5511", "en_name": ["2-Amino-6-methylbenzothiazole", "2-Benzothiazolamine, 6-methyl-", "Benzothiazole, 2-amino-6-methyl-", "Benzothiazole, 1-amino-5-methyl-", "6-Methyl-2-benzothiazolamine", "2-Amino-6-methylbenzothiazole", "6-Methyl-2-benzothiazolylamine", "6-Methyl-2-aminobenzothiazole", "6-Methyl-1,3-benzothiazol-2-ylamine", "NSC 118944", "NSC 12760", "6-Methyl-1,3-benzothiazol-2-amine", "6-Methylbenzo[d]thiazol-2-amine", "2-Amino-6-methyl-1,3-benzothiazole", "2-Methylbenzothiazole-6-amine"], "SMILES": "NC1=NC=2C(S1)=CC(C)=CC2", "physical_data": {"Molecular Weight": "164.23", "Molecular Formula": "C8H8N2S", "Melting Point": "136 \u00b0C"}}