{"cas_no": "25369-78-2", "cn_name": "5-\u6c2f\u82ef\u5e76\u54aa\u5511-2-\u786b\u9187", "en_name": ["5-Chloro-2-mercaptobenzimidazole", "2H-Benzimidazole-2-thione, 5-chloro-1,3-dihydro-", "2-Benzimidazolethiol, 5-chloro-", "2-Benzimidazolethiol, 5(or 6)-chloro-", "5-Chloro-1,3-dihydro-2H-benzimidazole-2-thione", "5-Chloro-2-mercaptobenzimidazole", "5-Chlorobenzimidazole-2-thiol", "5-Chloro-2-mercapto-1H-benzimidazole", "NSC 35063", "NSC 45283", "5-Chloro-1H-benzoimidazole-2-thione", "5-Chloro-1H-benzo[d]imidazole-2-thiol", "6-Chloro-1H-1,3-benzodiazole-2-thiol"], "SMILES": "S=C1NC=2C(N1)=CC(Cl)=CC2", "physical_data": {"Molecular Weight": "184.65", "Molecular Formula": "C7H5ClN2S", "Melting Point": "305 \u00b0C (decomp)"}}