{"cas_no": "25374-10-1", "cn_name": "\u4e8c(\u4e8c\u7532\u6c28\u57fa)\u7532\u57fa\u4e59\u70ef\u57fa\u7845\u70f7", "en_name": ["1-Chloro-N,N,N\u2032,N\u2032-tetramethyl-1-phenylsilanediamine", "Silanediamine, 1-chloro-N,N,N\u2032,N\u2032-tetramethyl-1-phenyl-", "1-Chloro-N,N,N\u2032,N\u2032-tetramethyl-1-phenylsilanediamine", "Chlorobis(dimethylamino)phenylsilane", "[Chloro(dimethylamino)phenylsilyl]dimethylamine"], "SMILES": "[Si](N(C)C)(N(C)C)(Cl)C1=CC=CC=C1", "physical_data": {"Molecular Weight": "228.79", "Molecular Formula": "C10H17ClN2Si", "Boiling Point": "127-129 \u00b0C @ Press: 23 Torr"}}