{"cas_no": "25377-73-5", "cn_name": "2-\u5341\u4e8c\u70ef\u57fa-\u4e01\u4e8c\u9178\u9150", "en_name": ["Dodecenylsuccinic anhydride", "2,5-Furandione, 3-(dodecen-1-yl)dihydro-", "2,5-Furandione, 3-(dodecenyl)dihydro-", "Succinic anhydride, dodecenyl-", "3-(Dodecen-1-yl)dihydro-2,5-furandione", "Dodecenylsuccinic anhydride", "Dodecenylsuccinic acid anhydride", "2-(Dodecenyl)succinic anhydride", "DDSA", "Rikacid DDSA", "K 12", "K 12 (anhydride)", "3-Dodecenyl succinic anhydride"], "SMILES": "", "physical_data": {"Molecular Weight": "", "Molecular Formula": "C16H26O3", "Boiling Point": "100-110 \u00b0C @ Press: 1 Torr", "Melting Point": "139-142 \u00b0C"}}