{"cas_no": "25372-07-0", "cn_name": "\u4e8c\u54aa\u5511\u57fa\u82ef", "en_name": ["1,1\u2032-(1,4-Phenylene)bis[1H-imidazole]", "1H-Imidazole, 1,1\u2032-(1,4-phenylene)bis-", "Imidazole, 1,1\u2032-p-phenylenedi-", "1,1\u2032-(1,4-Phenylene)bis[1H-imidazole]", "1-[4-(1-Imidazolyl)phenyl]imidazole", "1,4-Bis(1-imidazolyl)benzene", "1,4-Di(1H-imidazol-1-yl)benzene", "1,4-Di(imidazol-1-yl)benzene", "1,4-Bis(1H-imidazol-1-yl)benzene"], "SMILES": "C1(=CC=C(C=C1)N2C=CN=C2)N3C=CN=C3", "physical_data": {"Molecular Weight": "210.23", "Molecular Formula": "C12H10N4", "Melting Point": "216-217 \u00b0C"}}