{"cas_no": "25373-56-2", "cn_name": "(2-\u54aa\u5511-1-\u82ef\u57fa)\u7532\u9187", "en_name": ["2-(1H-Imidazol-1-yl)benzenemethanol", "Benzenemethanol, 2-(1H-imidazol-1-yl)-", "Benzyl alcohol, o-imidazol-1-yl-", "2-(1H-Imidazol-1-yl)benzenemethanol", "[2-(1H-Imidazol-1-yl)phenyl]methanol", "(2-Imidazol-1-ylphenyl)methanol"], "SMILES": "C(O)C1=C(C=CC=C1)N2C=CN=C2", "physical_data": {"Molecular Weight": "174.20", "Molecular Formula": "C10H10N2O", "Melting Point": "102-104 \u00b0C"}}