{"cas_no": "2537-36-2", "cn_name": "\u9ad8\u6c2f\u9178\u56db\u7532\u57fa\u94f5", "en_name": ["Tetramethylammonium perchlorate", "Methanaminium, N,N,N-trimethyl-, perchlorate (1:1)", "Ammonium, tetramethyl-, perchlorate", "Methanaminium, N,N,N-trimethyl-, perchlorate", "Tetramethylammonium perchlorate", "NSC 245090"], "SMILES": "[N+](C)(C)(C)C.Cl(=O)(=O)(=O)[O-]", "physical_data": {"Molecular Weight": "", "Molecular Formula": "C4H12N.ClO4", "Melting Point": "300 \u00b0C"}}