{"cas_no": "2537-48-6", "cn_name": "\u6c30\u7532\u57fa\u78f7\u9178\u4e8c\u4e59\u916f", "en_name": ["Diethyl P-(cyanomethyl)phosphonate", "Phosphonic acid, P-(cyanomethyl)-, diethyl ester", "Phosphonic acid, (cyanomethyl)-, diethyl ester", "Cyanomethanephosphonic acid, diethyl ester", "Diethyl P-(cyanomethyl)phosphonate", "(Diethylphosphono)acetonitrile", "(Cyanomethyl)diethoxyphosphine oxide", "2-(Diethylphosphonyl)acetonitrile", "Diethyl (cyanomethyl)phosphonate", "(Diethoxyphosphono)acetonitrile", "O,O-Diethyl (cyanomethyl)phosphonate", "(Diethoxyphosphinyl)acetonitrile", "Diethyl cyanomethanephosphonate", "NSC 407826", "(Cyanomethyl)phosphonic acid diethyl ester", "Diethyl cyanomethylphosphonoacetate", "2-Diethoxyphosphorylacetonitrile"], "SMILES": "P(CC#N)(OCC)(OCC)=O", "physical_data": {"Molecular Weight": "177.14", "Molecular Formula": "C6H12NO3P", "Boiling Point": "127-131 \u00b0C @ Press: 3 Torr", "Density": "1.1264 g/cm\u00b3 @ Temp: 20 \u00b0C"}}