{"cas_no": "2538-87-6", "cn_name": "3-(4-\u7f9f\u57fa\u82ef\u57fa)\u4e19\u70ef\u919b", "en_name": ["p-Hydroxycinnamaldehyde", "2-Propenal, 3-(4-hydroxyphenyl)-", "Cinnamaldehyde, p-hydroxy-", "3-(4-Hydroxyphenyl)-2-propenal", "p-Coumaroyl aldehyde", "p-Coumaraldehyde", "4-Hydroxycinnamaldehyde", "p-Hydroxycinnamaldehyde"], "SMILES": "C(=CC=O)C1=CC=C(O)C=C1", "physical_data": {"Molecular Weight": "148.16", "Molecular Formula": "C9H8O2", "Melting Point": "134 \u00b0C"}}