{"cas_no": "2538-68-3", "cn_name": "\u5429\u55ea-1-\u7fa7\u9178", "en_name": ["1-Phenazinecarboxylic acid", "1-Phenazinecarboxylic acid", "Phenazinecarboxylic acid", "Phenazine-\u03b1-carboxylic acid", "Tubermycin B", "NSC 15851", "Shenqinmycin"], "SMILES": "C(O)(=O)C=1C2=C(N=C3C(=N2)C=CC=C3)C=CC1", "physical_data": {"Molecular Weight": "224.21", "Molecular Formula": "C13H8N2O2", "Melting Point": "238-239 \u00b0C"}}