{"cas_no": "253870-02-9", "cn_name": "2,4-\u4e8c\u7532\u57fa-5-\u919b\u57fa-1H-\u5421\u54af-3-\u7fa7\u9178", "en_name": ["5-Formyl-2,4-dimethyl-1H-pyrrole-3-carboxylic acid", "1H-Pyrrole-3-carboxylic acid, 5-formyl-2,4-dimethyl-", "5-Formyl-2,4-dimethyl-1H-pyrrole-3-carboxylic acid", "5-Formyl-2,4-dimethylpyrrole-3-carboxylic acid", "2,4-Dimethyl-5-formyl-1H-pyrrole-3-carboxylic acid", "2,4-Dimethyl-5-formylpyrrole-3-carboxylic acid"], "SMILES": "C(O)(=O)C=1C(C)=C(C=O)NC1C", "physical_data": {"Molecular Weight": "167.16", "Molecular Formula": "C8H9NO3", "Melting Point": "286 \u00b0C (decomp)"}}