{"cas_no": "25384-14-9", "cn_name": "2'-\u6c28\u57fa\u82ef\u4e59\u916e\u76d0\u9178\u76d0", "en_name": ["Ethanone, 1-(2-aminophenyl)-, hydrochloride (1:1)", "Ethanone, 1-(2-aminophenyl)-, hydrochloride (1:1)", "Acetophenone, 2\u2032-amino-, hydrochloride", "Ethanone, 1-(2-aminophenyl)-, hydrochloride", "o-Aminoacetophenone hydrochloride", "2\u2032-Aminoacetophenone hydrochloride", "1-(2-Aminophenyl)ethanone hydrochloride"], "SMILES": "C(C)(=O)C1=C(N)C=CC=C1.Cl", "physical_data": {"Molecular Weight": "", "Molecular Formula": "C8H9NO.ClH", "Melting Point": "264-265 \u00b0C"}}