{"cas_no": "2538-98-9", "cn_name": "3-\u7532\u6c27\u57fa-4-\u4e19-2-\u6c27\u57fa-\u82ef\u7532\u919b", "en_name": ["4-Isopropoxy-3-methoxybenzaldehyde", "Benzaldehyde, 3-methoxy-4-(1-methylethoxy)-", "Benzaldehyde, 4-isopropoxy-3-methoxy-", "3-Methoxy-4-(1-methylethoxy)benzaldehyde", "4-Isopropoxy-3-methoxybenzaldehyde", "3-Methoxy-4-isopropoxybenzaldehyde", "3-Methoxy-4-(propan-2-yloxy)benzaldehyde", "3-Methoxy-4-propan-2-yloxybenzaldehyde"], "SMILES": "O(C(C)C)C1=C(OC)C=C(C=O)C=C1", "physical_data": {"Molecular Weight": "194.23", "Molecular Formula": "C11H14O3", "Boiling Point": "150-152 \u00b0C @ Press: 13 Torr", "Melting Point": "121.5-123.0 \u00b0C"}}