{"cas_no": "25395-31-7", "cn_name": "\u4e8c\u4e59\u9178\u7518\u6cb9\u916f", "en_name": ["Glycerol diacetate", "1,2,3-Propanetriol, diacetate", "Acetin, di-", "Diacetin", "Glycerol diacetate", "Glyceryl diacetate", "Diacetylglycerol", "Glycerine diacetate", "Glycerin diacetate", "Estol 1583", "Estol 1582", "Diacetain glycerol"], "SMILES": "", "physical_data": {"Molecular Weight": "", "Molecular Formula": "C7H12O5", "Boiling Point": "259 \u00b0C"}}