{"cas_no": "25391-56-4", "cn_name": "2-\u6c28\u57fa-3-\u7898-5-\u785d\u57fa\u5421\u5576", "en_name": ["3-Iodo-5-nitro-2-pyridinamine", "2-Pyridinamine, 3-iodo-5-nitro-", "Pyridine, 2-amino-3-iodo-5-nitro-", "3-Iodo-5-nitro-2-pyridinamine", "2-Amino-3-iodo-5-nitropyridine", "3-Iodo-5-nitro-1,2-dihydropyridin-2-imine"], "SMILES": "N(=O)(=O)C=1C=C(I)C(N)=NC1", "physical_data": {"Molecular Weight": "265.01", "Molecular Formula": "C5H4IN3O2", "Melting Point": "237 \u00b0C"}}