{"cas_no": "25391-58-6", "cn_name": "3-\u7898-2-\u7f9f\u57fa-5-\u785d\u57fa\u5421\u5576", "en_name": ["3-Iodo-5-nitro-2(1H)-pyridinone", "2(1H)-Pyridinone, 3-iodo-5-nitro-", "2-Pyridinol, 3-iodo-5-nitro-", "3-Iodo-5-nitro-2(1H)-pyridinone", "3-Iodo-5-nitropyridin-2-ol", "2-Hydroxy-3-iodo-5-nitropyridine", "3-Iodo-5-nitro-1H-pyridin-2-one", "3-Iodo-5-nitro-1,2-dihydropyridin-2-one"], "SMILES": "N(=O)(=O)C=1C=C(I)C(=O)NC1", "physical_data": {"Molecular Weight": "265.99", "Molecular Formula": "C5H3IN2O3", "Melting Point": "203 \u00b0C"}}