{"cas_no": "25393-98-0", "cn_name": "1,4-\u4e8c(1,2-\u4e8c\u6eb4\u4e59\u57fa)\u82ef", "en_name": ["1,4-Bis(1,2-dibromoethyl)benzene", "Benzene, 1,4-bis(1,2-dibromoethyl)-", "Benzene, p-bis(1,2-dibromoethyl)-", "1,4-Bis(1,2-dibromoethyl)benzene", "1,4-Bis(\u03b1,\u03b2-dibromoethyl)benzene", "p-Bis(1,2-dibromoethyl)benzene", "\u03b1,\u03b1\u2032,\u03b2,\u03b2\u2032-Tetrabromo-1,4-diethylbenzene", "NSC 96981", "1,4-(1,2-Dibromoethyl)benzene"], "SMILES": "C(CBr)(Br)C1=CC=C(C(CBr)Br)C=C1", "physical_data": {"Molecular Weight": "449.80", "Molecular Formula": "C10H10Br4", "Melting Point": "157.5 \u00b0C"}}