{"cas_no": "25395-22-6", "cn_name": "2-\u6c28\u57fa\u7532\u9170\u82ef\u6c27\u4e59\u9178", "en_name": ["Salicylamide O-acetic acid", "Acetic acid, 2-[2-(aminocarbonyl)phenoxy]-", "Acetic acid, (o-carbamoylphenoxy)-", "Acetic acid, [2-(aminocarbonyl)phenoxy]-", "2-[2-(Aminocarbonyl)phenoxy]acetic acid", "(o-Carbamoylphenoxy)acetic acid", "o-Carboxyamidophenoxyacetic acid", "Salicylamide O-acetic acid", "2-(Carboxymethoxy)benzamide", "(2-Carbamoylphenoxy)acetic acid", "[2-(Aminocarbonyl)phenoxy]acetic acid", "NSC 65589", "2-(2-Carbamoylphenoxy)acetic acid", "2-(2-Carbamoylphenoxy)aceticacid"], "SMILES": "O(CC(O)=O)C1=C(C(N)=O)C=CC=C1", "physical_data": {"Molecular Weight": "195.17", "Molecular Formula": "C9H9NO4", "Melting Point": "221 \u00b0C"}}