{"cas_no": "2539-53-9", "cn_name": "4-\u4e59\u6c27\u57fa-3-\u7f9f\u57fa\u82ef\u7532\u919b", "en_name": ["4-Ethoxy-3-hydroxybenzaldehyde", "Benzaldehyde, 4-ethoxy-3-hydroxy-", "4-Ethoxy-3-hydroxybenzaldehyde", "Isoethylvanillin", "3-Hydroxy-4-ethoxybenzaldehyde"], "SMILES": "O(CC)C1=C(O)C=C(C=O)C=C1", "physical_data": {"Molecular Weight": "166.17", "Molecular Formula": "C9H10O3", "Melting Point": "125 \u00b0C"}}