{"cas_no": "25394-57-4", "cn_name": "\u82b1\u83ca\u7d20", "en_name": ["Spilanthol", "2,6,8-Decatrienamide, N-(2-methylpropyl)-, (2E,6Z,8E)-", "2,6,8-Decatrienamide, N-isobutyl-, (E,E,Z)-", "Affinin", "2,6,8-Decatrienamide, N-(2-methylpropyl)-, (E,E,Z)-", "(2E,6Z,8E)-N-(2-Methylpropyl)-2,6,8-decatrienamide", "Spilanthol", "N-Isobutyldeca-trans-2,cis-6,trans-8-trienamide", "2E,6Z,8E-Decatrienoic acid N-isobutylamide"], "SMILES": "C(C(NCC(C)C)=O)=CCCC=CC=CC", "physical_data": {"Molecular Weight": "221.34", "Molecular Formula": "C14H23NO", "Boiling Point": "157 \u00b0C @ Press: 0.26 Torr", "Melting Point": "23 \u00b0C"}}