{"cas_no": "25391-57-5", "cn_name": "2-\u6c28\u57fa-5-\u7898-3-\u785d\u57fa\u5421\u5576", "en_name": ["5-Iodo-3-nitro-2-pyridinamine", "2-Pyridinamine, 5-iodo-3-nitro-", "Pyridine, 2-amino-5-iodo-3-nitro-", "5-Iodo-3-nitro-2-pyridinamine", "5-Iodo-3-nitropyridin-2-amine", "2-Amino-5-iodo-3-nitropyridine"], "SMILES": "N(=O)(=O)C1=C(N)N=CC(I)=C1", "physical_data": {"Molecular Weight": "265.01", "Molecular Formula": "C5H4IN3O2", "Melting Point": "220 \u00b0C"}}