{"cas_no": "25390-17-4", "cn_name": "\u7fa7\u7532\u53f8\u5766", "en_name": ["S-(Carboxymethyl)cysteine", "Cysteine, S-(carboxymethyl)-", "Alanine, 3-[(carboxymethyl)thio]-, DL-", "DL-Cysteine, S-(carboxymethyl)-", "S-(Carboxymethyl)cysteine", "DL-3-(Carboxymethylthio)alanine", "S-(Carboxymethyl)-(RS)-cysteine", "S-(Carboxymethyl)-DL-cysteine", "5-Amino-3-thiadihexanoic acid", "NSC 68427", "1-Carboxy-2-carboxymethylmercaptoethyl amine", "2-Amino-3-[(carboxymethyl)sulfanyl]propanoic acid", "2-Amino-3-carboxymethylsulfanyl-propionic acid", "2-Amino-3-((carboxymethyl)thio)propanoic acid"], "SMILES": "C(C(C(O)=O)N)SCC(O)=O", "physical_data": {"Molecular Weight": "179.19", "Molecular Formula": "C5H9NO4S", "Melting Point": "175-176 \u00b0C"}}