{"cas_no": "25391-60-0", "cn_name": "2-\u6c2f-3-\u7898-5-\u785d\u57fa\u5421\u5576", "en_name": ["2-Chloro-3-iodo-5-nitropyridine", "Pyridine, 2-chloro-3-iodo-5-nitro-", "2-Chloro-3-iodo-5-nitropyridine"], "SMILES": "N(=O)(=O)C=1C=C(I)C(Cl)=NC1", "physical_data": {"Molecular Weight": "284.44", "Molecular Formula": "C5H2ClIN2O2", "Melting Point": "104-105 \u00b0C"}}