{"cas_no": "254-79-5", "cn_name": "1,5-\u8418\u5576", "en_name": ["1,5-Naphthyridine", "1,5-Naphthyridine", "1,5-Diazanaphthalene", "1,5-Pyridopyridine", "NSC 87514"], "SMILES": "C12=C(C=CC=N1)N=CC=C2", "physical_data": {"Molecular Weight": "130.15", "Molecular Formula": "C8H6N2", "Boiling Point": "112 \u00b0C @ Press: 12 Torr", "Melting Point": "75 \u00b0C"}}