{"cas_no": "254-60-4", "cn_name": "1,8-\u8418\u5576", "en_name": ["1,8-Naphthyridine", "1,8-Naphthyridine", "1,8-Diazanaphthalene", "1,8-Pyridopyridine"], "SMILES": "C12=C(N=CC=C1)N=CC=C2", "physical_data": {"Molecular Weight": "130.15", "Molecular Formula": "C8H6N2", "Melting Point": "98-99 \u00b0C"}}