{"cas_no": "2540-82-1", "cn_name": "\u5b89\u679c(\u5b89\u786b\u78f7)", "en_name": ["Formothion", "Phosphorodithioic acid, S-[2-(formylmethylamino)-2-oxoethyl] O,O-dimethyl ester", "Phosphorodithioic acid, O,O-dimethyl ester, S-ester with N-formyl-2-mercapto-N-methylacetamide", "ENT 27257", "CP 53926", "O,O-Dimethyl dithiophosphorylacetic acid N-methyl-N-formylamide", "O,O-Dimethyl S-(N-formyl-N-methylcarbamoylmethyl) phosphorodithioate", "O,O-Dimethyl phosphorodithioate N-formyl-2-mercapto-N-methylacetamide S-ester", "Formothion", "S-(N-Formyl-N-methylcarbamoylmethyl) O,O-dimethyl phosphorodithioate", "S 6900", "Anthio", "Anthio 25", "Aflix", "Toprose", "Anthio 33", "S 6900 (insecticide)"], "SMILES": "P(SCC(N(C=O)C)=O)(OC)(OC)=S", "physical_data": {"Molecular Weight": "257.27", "Molecular Formula": "C6H12NO4PS2", "Melting Point": "25-26 \u00b0C", "Density": "1.361 g/cm\u00b3 @ Temp: 20 \u00b0C"}}