{"cas_no": "2540-99-0", "cn_name": "3,3,4,4-\u4e8c\u82ef\u57fa\u781c\u56db\u7fa7\u9178\u4e8c\u9178\u9150", "en_name": ["3,3\u2032,4,4\u2032-Diphenyl sulfone tetracarboxylic dianhydride", "1,3-Isobenzofurandione, 5,5\u2032-sulfonylbis-", "Phthalic anhydride, 4,4\u2032-sulfonyldi-", "5,5\u2032-Sulfonylbis[1,3-isobenzofurandione]", "3,3\u2032,4,4\u2032-Tetracarboxydiphenyl sulfone dianhydride", "4,4\u2032-Sulfonylbis(phthalic anhydride)", "3,3\u2032,4,4\u2032-Diphenyl sulfone tetracarboxylic anhydride", "4,4\u2032-Diphthalic anhydride sulfone", "4,4\u2032-Sulfonyldiphthalic anhydride", "4,4\u2032-Sulfonyldiphthalic acid dianhydride", "3,3\u2032,4,4\u2032-Diphenyl sulfone tetracarboxylic dianhydride", "NSC 689416", "Rikacid DSDA", "Bis(3,4-dicarboxyphenyl) sulfone dianhydride", "3,3\u2032,4,4\u2032-Diphenyl sulfone tetracarboxylic acid dianhydride", "DSDA", "Diphenyl sulfone-3,4,3\u2032,4\u2032-tetracarboxylic dianhydride", "3,3\u2032,4,4\u2032-Biphenylsulfone tetracarboxylic dianhydride", "Diphenylsulfone-3,4,3\u2032,4\u2032-tetracarboxylic acid dianhydride", "5,5\u2032-sulfonylbis(isobenzofuran-1,3-dione)"], "SMILES": "O=C1C=2C(=CC=C(S(=O)(=O)C=3C=C4C(=CC3)C(=O)OC4=O)C2)C(=O)O1", "physical_data": {"Molecular Weight": "358.28", "Molecular Formula": "C16H6O8S", "Melting Point": "275-278 \u00b0C"}}