{"cas_no": "25414-22-6", "cn_name": "2-\u7532\u6c27\u57fa\u544b\u5583", "en_name": ["2-Methoxyfuran", "Furan, 2-methoxy-", "2-Methoxyfuran", "2-Furyl methyl ether"], "SMILES": "O(C)C1=CC=CO1", "physical_data": {"Molecular Weight": "98.10", "Molecular Formula": "C5H6O2", "Boiling Point": "110.5 \u00b0C", "Melting Point": "136-138 \u00b0C", "Density": "1.0646 g/cm\u00b3 @ Temp: 25 \u00b0C"}}