{"cas_no": "25419-06-1", "cn_name": "N-\u7532\u57fa\u6b63\u620a\u80fa", "en_name": ["N-Methylpentylamine", "1-Pentanamine, N-methyl-", "Pentylamine, N-methyl-", "N-Methyl-1-pentanamine", "Methylamylamine", "N-Methylamylamine", "N-Methylpentylamine", "N-Amyl-N-methylamine", "N-Methylpentanamine", "N-Pentyl-N-methylamine", "N-Methyl-N-pentylamine", "N-Methylpentan-1-amine", "N-Methyl-1-pentylamine"], "SMILES": "C(CCC)CNC", "physical_data": {"Molecular Weight": "101.19", "Molecular Formula": "C6H15N", "Boiling Point": "116-118 \u00b0C", "Density": "0.738 g/cm\u00b3 @ Temp: 15 \u00b0C"}}