{"cas_no": "25415-62-7", "cn_name": "3-\u7532\u57fa\u4e01\u9178\u620a\u916f", "en_name": ["Amyl isovalerate", "Butanoic acid, 3-methyl-, pentyl ester", "Isovaleric acid, pentyl ester", "Pentyl 3-methylbutyrate", "Amyl isovalerate", "1-Pentyl isovalerate", "Pentyl 3-methylbutanoate", "Amyl 3-methylbutanoate", "Pentyl isovalerate", "Pentyl isopentanoate", "NSC 46107"], "SMILES": "O(C(CC(C)C)=O)CCCCC", "physical_data": {"Molecular Weight": "172.26", "Molecular Formula": "C10H20O2", "Melting Point": "190-195 \u00b0C"}}