{"cas_no": "2541-69-7", "cn_name": "\u7532\u82ef\u57fa\u84bd", "en_name": ["7-Methylbenz[a]anthracene", "Benz[a]anthracene, 7-methyl-", "7-Methylbenz[a]anthracene", "10-Methyl-1,2-benzanthracene", "3,4-Benz-9-methylanthracene", "7-Monomethylbenz[a]anthracene", "NSC 30974"], "SMILES": "CC=1C=2C(=C3C(=CC2)C=CC=C3)C=C4C1C=CC=C4", "physical_data": {"Molecular Weight": "242.31", "Molecular Formula": "C19H14", "Melting Point": "141 \u00b0C"}}