{"cas_no": "25415-84-3", "cn_name": "\u4e01\u9178(2-\u4e59\u57fa\u5df1\u57fa)\u916f", "en_name": ["2-Ethylhexyl butyrate", "Butanoic acid, 2-ethylhexyl ester", "Butyric acid, 2-ethylhexyl ester", "Ethylhexyl butyrate", "2-Ethylhexyl butyrate", "2-Ethyl-1-hexanol butyrate", "2-Ethylhexyl butanoate"], "SMILES": "C(COC(CCC)=O)(CCCC)CC", "physical_data": {"Molecular Weight": "200.32", "Molecular Formula": "C12H24O2", "Boiling Point": "215 \u00b0C"}}