{"cas_no": "25415-67-2", "cn_name": "\u5f02\u5df1\u9178\u4e59\u916f", "en_name": ["Ethyl 4-methylpentanoate", "Pentanoic acid, 4-methyl-, ethyl ester", "Valeric acid, 4-methyl-, ethyl ester", "Ethyl 4-methylpentanoate", "Ethyl isocaproate", "Ethyl 4-methylvalerate", "Ethyl isohexanoate"], "SMILES": "C(CCC(C)C)(OCC)=O", "physical_data": {"Molecular Weight": "144.21", "Molecular Formula": "C8H16O2", "Boiling Point": "163 \u00b0C", "Density": "0.8700 g/cm\u00b3 @ Temp: 420 \u00b0C"}}