{"cas_no": "25429-29-2", "cn_name": "1\uff0c2\uff0c3\uff0c4\uff0c5\u2014\u4e94\u6c2f\u8054\u82ef", "en_name": ["Pentachlorobiphenyl", "1,1\u2032-Biphenyl, pentachloro-", "Biphenyl, pentachloro-", "Pentachloro-1,1\u2032-biphenyl", "Pentachlorodiphenyl", "Pentachlorobiphenyl", "Pyralene 1476", "Kanekrol 500", "Diphenyl pentachloride", "Apirolio 1476C", "Pyroclor 5", "DP 5"], "SMILES": "", "physical_data": {"Molecular Weight": "", "Molecular Formula": "C12H5Cl5", "Boiling Point": "168-175 \u00b0C @ Press: 1 Torr"}}