{"cas_no": "25425-12-1", "cn_name": "\u9ec4\u7eff\u9752\u9709\u7d20", "en_name": ["Citreoviridin", "D-Iditol, 2,5-anhydro-1,6-dideoxy-2-C-[(1E,3E,5E,7E)-8-(4-methoxy-5-methyl-2-oxo-2H-pyran-6-yl)-2-methyl-1,3,5,7-octatetraen-1-yl]-4-C-methyl-", "2H-Pyran-2-one, 4-methoxy-5-methyl-6-[7-methyl-8-(tetrahydro-3,4-dihydroxy-2,4,5-trimethyl-2-furyl)-1,3,5,7-octatetraenyl]-", "2H-Pyran-2-one, 4-methoxy-5-methyl-6-[7-methyl-8-(tetrahydro-3,4-dihydroxy-2,4,5-trimethyl-2-furanyl)-1,3,5,7-octatetraenyl]-, [2S-[2\u03b1(1E,3E,5E,7E),3\u03b2,4\u03b1,5\u03b1]]-", "2,4,6,8,10,12-Tridecahexaenoic acid, 5-hydroxy-3-methoxy-4,12-dimethyl-13-(tetrahydro-3,4-dihydroxy-2,4,5-trimethyl-2-furyl)-, \u03b4-lactone", "D-Iditol, 2,5-anhydro-1,6-dideoxy-2-C-[(1E,3E,5E,7E)-8-(4-methoxy-5-methyl-2-oxo-2H-pyran-6-yl)-2-methyl-1,3,5,7-octatetraenyl]-4-C-methyl-", "2,5-Anhydro-1,6-dideoxy-2-C-[(1E,3E,5E,7E)-8-(4-methoxy-5-methyl-2-oxo-2H-pyran-6-yl)-2-methyl-1,3,5,7-octatetraen-1-yl]-4-C-methyl-D-iditol", "Citreoviridin A", "Citreoviridine A", "Citreoviridin", "Citreoviridine"], "SMILES": "C(=C(C=CC=CC=CC1=C(C)C(OC)=CC(=O)O1)C)C2(C)C(O)C(C)(O)C(C)O2", "physical_data": {"Molecular Weight": "402.48", "Molecular Formula": "C23H30O6", "Melting Point": "107-111 \u00b0C"}}