{"cas_no": "25423-56-7", "cn_name": "\u56db\u786b\u73af\u5341\u4e8c\u70f7", "en_name": ["1,4,7,10-Tetrathiacyclododecane", "1,4,7,10-Tetrathiacyclododecane", "Thio-12-crown-4", "12-Thiacrown-4", "NSC 295589", "Tetrathia-12-crown-4"], "SMILES": "C1CSCCSCCSCCS1", "physical_data": {"Molecular Weight": "240.47", "Molecular Formula": "C8H16S4", "Melting Point": "214-216 \u00b0C"}}