{"cas_no": "2543-94-4", "cn_name": "\u73ca\u745a\u83dc\u7d20", "en_name": ["Phellopterin", "7H-Furo[3,2-g][1]benzopyran-7-one, 4-methoxy-9-[(3-methyl-2-buten-1-yl)oxy]-", "7H-Furo[3,2-g][1]benzopyran-7-one, 4-methoxy-9-[(3-methyl-2-butenyl)oxy]-", "5-Benzofuranacrylic acid, 6-hydroxy-4-methoxy-7-[(3-methyl-2-butenyl)oxy]-, \u03b4-lactone", "4-Methoxy-9-[(3-methyl-2-buten-1-yl)oxy]-7H-furo[3,2-g][1]benzopyran-7-one", "(5-Methoxy-8)-\u03b3,\u03b3-dimethylallyloxy(2\u2032,3\u2032,6,7-furanocoumarin)", "Phellopterin", "NSC 152469"], "SMILES": "O(CC=C(C)C)C=1C2=C(C(OC)=C3C1OC=C3)C=CC(=O)O2", "physical_data": {"Molecular Weight": "300.31", "Molecular Formula": "C17H16O5", "Melting Point": "102 \u00b0C"}}