{"cas_no": "25436-07-1", "cn_name": "\u4e09\u7532\u57fa\u7845\u57fa\u4e09\u6c2f\u4e59\u9178", "en_name": ["Acetic acid, 2,2,2-trichloro-, trimethylsilyl ester", "Acetic acid, 2,2,2-trichloro-, trimethylsilyl ester", "Acetic acid, trichloro-, trimethylsilyl ester", "Silanol, trimethyl-, trichloroacetate", "Trimethylsilyl trichloroacetate"], "SMILES": "C(O[Si](C)(C)C)(C(Cl)(Cl)Cl)=O", "physical_data": {"Molecular Weight": "235.57", "Molecular Formula": "C5H9Cl3O2Si", "Boiling Point": "70-73 \u00b0C @ Press: 12 Torr", "Density": "1.237 g/cm\u00b3"}}