{"cas_no": "25442-42-6", "cn_name": "5'-\u4e09\u82ef\u7532\u57fa-2'-\u8131\u6c27-2,3'-\u53cc\u8131\u6c22\u80f8\u82f7", "en_name": ["(2R,3R,5R)-2,3-Dihydro-8-methyl-3-[(triphenylmethoxy)methyl]-2,5-methano-5H,9H-pyrimido[2,1-b][1,5,3]dioxazepin-9-one", "2,5-Methano-5H,9H-pyrimido[2,1-b][1,5,3]dioxazepin-9-one, 2,3-dihydro-8-methyl-3-[(triphenylmethoxy)methyl]-, (2R,3R,5R)-", "2,5-Methano-5H,9H-pyrimido[2,1-b][1,5,3]dioxazepin-9-one, 2,3-dihydro-8-methyl-3-[(trityloxy)methyl]-", "2,5-Methano-5H,9H-pyrimido[2,1-b][1,5,3]dioxazepin-9-one, 2,3-dihydro-8-methyl-3-[(triphenylmethoxy)methyl]-, [2R-(2\u03b1,3\u03b2,5\u03b1)]-", "Thymine, 2,3\u2032-anhydro-1-(2-deoxy-5-O-trityl-\u03b2-D-threo-pentofuranosyl)-", "(2R,3R,5R)-2,3-Dihydro-8-methyl-3-[(triphenylmethoxy)methyl]-2,5-methano-5H,9H-pyrimido[2,1-b][1,5,3]dioxazepin-9-one"], "SMILES": "C(OCC1C2CC(O1)N3C(O2)=NC(=O)C(C)=C3)(C4=CC=CC=C4)(C5=CC=CC=C5)C6=CC=CC=C6", "physical_data": {"Molecular Weight": "466.53", "Molecular Formula": "C29H26N2O4", "Melting Point": "229-230 \u00b0C"}}