{"cas_no": "2544-13-0", "cn_name": "L-3-(3,4-\u4e8c\u7532\u6c27\u57fa\u82ef\u57fa)-2-\u6c28\u57fa-2-\u7532\u57fa\u4e19\u8148\u76d0\u9178\u76d0", "en_name": ["Benzenepropanenitrile, \u03b1-amino-3,4-dimethoxy-\u03b1-methyl-, hydrochloride (1:1), (\u03b1S)-", "Benzenepropanenitrile, \u03b1-amino-3,4-dimethoxy-\u03b1-methyl-, hydrochloride (1:1), (\u03b1S)-", "Hydrocinnamonitrile, \u03b1-amino-3,4-dimethoxy-\u03b1-methyl-hydrochloride, L-(+)-", "Benzenepropanenitrile, \u03b1-amino-3,4-dimethoxy-\u03b1-methyl-, monohydrochloride, (S)-"], "SMILES": "O(C)C1=C(OC)C=CC(CC(C#N)(C)N)=C1.Cl", "physical_data": {"Molecular Weight": "", "Molecular Formula": "C12H16N2O2.ClH", "Melting Point": "153-155 \u00b0C"}}