{"cas_no": "2545-00-8", "cn_name": "\u963f\u592b\u513f\u8336\u7cbe", "en_name": ["Afzelechin", "2H-1-Benzopyran-3,5,7-triol, 3,4-dihydro-2-(4-hydroxyphenyl)-, (2R,3S)-", "3,4\u2032,5,7-Flavantetrol, (+)-", "2H-1-Benzopyran-3,5,7-triol, 3,4-dihydro-2-(4-hydroxyphenyl)-, (2R-trans)-", "(2R,3S)-3,4-Dihydro-2-(4-hydroxyphenyl)-2H-1-benzopyran-3,5,7-triol", "Afzelechin", "(+)-Afzelechin", "NSC 135065"], "SMILES": "OC1=C2C(OC(C(O)C2)C3=CC=C(O)C=C3)=CC(O)=C1", "physical_data": {"Molecular Weight": "274.27", "Molecular Formula": "C15H14O5", "Melting Point": "252-254 \u00b0C (decomp)"}}