{"cas_no": "25451-15-4", "cn_name": "\u975e\u6c28\u916f", "en_name": ["Felbamate", "1,3-Propanediol, 2-phenyl-, 1,3-dicarbamate", "1,3-Propanediol, 2-phenyl-, dicarbamate", "Carbamic acid, 2-phenyltrimethylene ester", "W 554", "Felbamate", "Felbatol", "Felbamyl", "Taloxa", "ADD 03055", "1,3-Bis(carbamoyloxy)-2-phenylpropane", "2-Phenyl-1,3-propanediol dicarbamate"], "SMILES": "C(COC(N)=O)(COC(N)=O)C1=CC=CC=C1", "physical_data": {"Molecular Weight": "238.24", "Molecular Formula": "C11H14N2O4", "Melting Point": "151.5 \u00b0C"}}