{"cas_no": "2545-59-7", "cn_name": "2,4,5-\u6d95\u9178\u4e01\u6c27\u4e59\u916f", "en_name": ["2,4,5-T Butoxyethyl ester", "Acetic acid, 2-(2,4,5-trichlorophenoxy)-, 2-butoxyethyl ester", "Acetic acid, (2,4,5-trichlorophenoxy)-, 2-butoxyethyl ester", "Ethanol, 2-butoxy-, (2,4,5-trichlorophenoxy)acetate", "Butoxyethyl 2,4,5-T", "2,4,5-Trichlorophenoxyacetic acid butoxyethyl ester", "Trinoxol", "(2,4,5-Trichlorophenoxy)acetic acid butoxyethanol ester", "Butoxyethyl 2,4,5-trichlorophenoxyacetate", "2,4,5-T Butoxyethanol ester", "2,4,5-T Butoxyethyl ester", "Hormoslyr 500T", "Bladex H", "Weedone 2,4,5-T", "2,4,5-T 2-butoxyethyl ester", "2-Butoxyethyl 2-(2,4,5-trichlorophenoxy)acetate", "2,4,5-T-Butotyl"], "SMILES": "O(CC(OCCOCCCC)=O)C1=C(Cl)C=C(Cl)C(Cl)=C1", "physical_data": {"Molecular Weight": "355.64", "Molecular Formula": "C14H17Cl3O4", "Boiling Point": "163-166 \u00b0C", "Density": "1.280 g/cm\u00b3 @ Temp: 20 \u00b0C"}}