{"cas_no": "25458-45-1", "cn_name": "1-\u6eb4-4-(\u7532\u6c27\u57fa\u7532\u6c27\u57fa)\u82ef", "en_name": ["1-Bromo-4-(methoxymethoxy)benzene", "Benzene, 1-bromo-4-(methoxymethoxy)-", "Methane, (p-bromophenoxy)methoxy-", "1-Bromo-4-(methoxymethoxy)benzene", "p-(Methoxymethoxy)bromobenzene", "4-(Methoxymethoxy)bromobenzene", "p-Bromophenyl methoxymethyl ether", "4-Methoxymethoxyphenyl bromide", "Bromo-4-(methoxymethoxy)benzene"], "SMILES": "O(COC)C1=CC=C(Br)C=C1", "physical_data": {"Molecular Weight": "217.06", "Molecular Formula": "C8H9BrO2", "Boiling Point": "102-103 \u00b0C @ Press: 6 Torr"}}