{"cas_no": "25456-85-3", "cn_name": "Z-L-\u5929\u51ac\u9170\u80fa\u53d4\u4e01\u916f", "en_name": ["N2-[(Phenylmethoxy)carbonyl]-L-asparagine 1,1-dimethylethyl ester", "L-Asparagine, N2-[(phenylmethoxy)carbonyl]-, 1,1-dimethylethyl ester", "Asparagine, N2-carboxy-, N2-benzyl tert-butyl ester, L-", "N2-[(Phenylmethoxy)carbonyl]-L-asparagine 1,1-dimethylethyl ester"], "SMILES": "C(NC(OCC1=CC=CC=C1)=O)(C(OC(C)(C)C)=O)CC(N)=O", "physical_data": {"Molecular Weight": "322.36", "Molecular Formula": "C16H22N2O5", "Melting Point": "105-106 \u00b0C"}}