{"cas_no": "25456-86-4", "cn_name": "L-\u5929\u51ac\u9170\u80fa\u53d4\u4e01\u916f", "en_name": ["L-Asparagine, 1,1-dimethylethyl ester", "L-Asparagine, 1,1-dimethylethyl ester", "Asparagine, tert-butyl ester, L-", "L-Asparagine tert-butyl ester", "Asparagine tert-butyl ester", "NSC 186917", "tert-Butyl (S)-2,4-diamino-4-oxobutanoate", "L-Asn-OtBu"], "SMILES": "C(C(CC(N)=O)N)(OC(C)(C)C)=O", "physical_data": {"Molecular Weight": "188.22", "Molecular Formula": "C8H16N2O3", "Melting Point": "72-74 \u00b0C"}}