{"cas_no": "25465-65-0", "cn_name": "(-)-\u5f02\u677e\u848e\u9187", "en_name": ["rel-(1R,2R,3S,5S)-2,6,6-Trimethylbicyclo[3.1.1]heptan-3-ol", "Bicyclo[3.1.1]heptan-3-ol, 2,6,6-trimethyl-, (1R,2R,3S,5S)-rel-", "Bicyclo[3.1.1]heptan-3-ol, 2,6,6-trimethyl-, (1\u03b1,2\u03b2,3\u03b2,5\u03b1)-", "3-Pinanol, stereoisomer", "rel-(1R,2R,3S,5S)-2,6,6-Trimethylbicyclo[3.1.1]heptan-3-ol", "Neoisopinocampheol", "neo-Isopinocampheol"], "SMILES": "CC1(C)C2CC1CC(O)C2C", "physical_data": {"Molecular Weight": "154.25", "Molecular Formula": "C10H18O", "Boiling Point": "217 \u00b0C", "Melting Point": "36 \u00b0C", "Density": "0.977 g/cm\u00b3 @ Temp: 15 \u00b0C"}}