{"cas_no": "25462-23-1", "cn_name": "2-\u6b63\u620a\u4e19\u70f7-1,3-\u4e8c\u9187", "en_name": ["2-Pentyl-1,3-propanediol", "1,3-Propanediol, 2-pentyl-", "2-Pentyl-1,3-propanediol", "2-n-Pentyl-1,3-propanediol"], "SMILES": "C(CCCCC)(CO)CO", "physical_data": {"Molecular Weight": "146.23", "Molecular Formula": "C8H18O2", "Boiling Point": "100-106 \u00b0C @ Press: 0.2 Torr"}}