{"cas_no": "25462-17-3", "cn_name": "2-\u7532\u57fa-2-\u4e19\u57fa-1,3-\u4e19\u4e8c\u9187\u5f02\u4e19\u57fa\u6c28\u57fa\u7532\u9178\u5355\u916f", "en_name": ["2-(Hydroxymethyl)-2-methylpentyl N-(1-methylethyl)carbamate", "Carbamic acid, N-(1-methylethyl)-, 2-(hydroxymethyl)-2-methylpentyl ester", "Carbamic acid, isopropyl-, 2-(hydroxymethyl)-2-methylpentyl ester", "Carbamic acid, (1-methylethyl)-, 2-(hydroxymethyl)-2-methylpentyl ester", "1,3-Propanediol, 2-methyl-2-propyl-, mono(isopropylcarbamate)", "2-(Hydroxymethyl)-2-methylpentyl N-(1-methylethyl)carbamate", "3-Hydroxy-2-methyl-2-propylpropyl N-(propan-2-yl)carbamate", "2-(Hydroxymethyl)-2-methylpentyl isopropyl-carbamate", "2-(Hydroxymethyl)-2-methylpentyl isopropylcarbamate"], "SMILES": "C(COC(NC(C)C)=O)(CCC)(CO)C", "physical_data": {"Molecular Weight": "217.31", "Molecular Formula": "C11H23NO3", "Boiling Point": "120-122 \u00b0C @ Press: 0.4 Torr"}}