{"cas_no": "2547-66-2", "cn_name": "1,3,5-\u4e09\u82c4\u57fa\u516d\u6c22-S-\u4e09\u55ea", "en_name": ["Hexahydro-1,3,5-tris(phenylmethyl)-1,3,5-triazine", "1,3,5-Triazine, hexahydro-1,3,5-tris(phenylmethyl)-", "s-Triazine, 1,3,5-tribenzylhexahydro-", "Hexahydro-1,3,5-tris(phenylmethyl)-1,3,5-triazine", "1,3,5-Tribenzylhexahydro-s-triazine", "1,3,5-Tribenzylhexahydro-1,3,5-triazine", "Tribenzylhexahydro-sym-triazine", "TTT", "1,3,5-Tris(phenylmethyl)hexahydro-1,3,5-triazine", "Tri-N-benzyl-1,3,5-triazacyclohexane", "1,3,5-Tribenzyl-1,3,5-triazacyclohexane", "Hexahydro-1,3,5-tribenzyl-s-triazine", "NSC 169717", "1,3,5-Tribenzyl-1,3,5-triazinane", "1,3,5-Tris(benzyl)-1,3,5-triazinane"], "SMILES": "C(N1CN(CC2=CC=CC=C2)CN(CC3=CC=CC=C3)C1)C4=CC=CC=C4", "physical_data": {"Molecular Weight": "357.49", "Molecular Formula": "C24H27N3", "Boiling Point": "150-160 \u00b0C @ Press: 0.1 Torr", "Melting Point": "41-43 \u00b0C"}}