{"cas_no": "2547-61-7", "cn_name": "\u4e09\u6c2f\u7532\u57fa\u78fa\u9170\u6c2f", "en_name": ["Trichloromethanesulfonyl chloride", "Methanesulfonyl chloride, trichloro-", "Trichloromethanesulfonyl chloride", "Trichloromethylsulfonyl chloride", "Trichloromesyl chloride", "NSC 59663"], "SMILES": "C(S(Cl)(=O)=O)(Cl)(Cl)Cl", "physical_data": {"Molecular Weight": "217.89", "Molecular Formula": "CCl4O2S", "Boiling Point": "170 \u00b0C", "Melting Point": "140.5 \u00b0C"}}