{"cas_no": "25487-66-5", "cn_name": "3-\u7fa7\u57fa\u82ef\u787c\u9178", "en_name": ["3-Carboxyphenylboronic acid", "Benzoic acid, 3-borono-", "Benzoic acid, m-borono-", "3-Boronobenzoic acid", "m-Carboxyphenylboronic acid", "3-Carboxybenzeneboronic acid", "3-Carboxyphenylboronic acid", "3-(Dihydroxyboryl)benzoic acid", "3-(Dihydroxyborane)benzoic acid", "3-(Dihydroxyboranyl)benzoic acid"], "SMILES": "B(O)(O)C1=CC(C(O)=O)=CC=C1", "physical_data": {"Molecular Weight": "165.94", "Molecular Formula": "C7H7BO4", "Melting Point": "245-247 \u00b0C (decomp)"}}