{"cas_no": "2548-87-0", "cn_name": "\u53cd-2-\u8f9b\u70ef\u919b", "en_name": ["(E)-2-Octenal", "2-Octenal, (2E)-", "2-Octenal, (E)-", "(2E)-2-Octenal", "trans-2-Octenal", "trans-Oct-2-en-1-al", "(E)-2-Octenal", "(E)-2-Octen-1-al", "(2E)-Octenal", "(E)-Octen-2-enal", "2-(E)-Octenal"], "SMILES": "C(CCCC)C=CC=O", "physical_data": {"Molecular Weight": "126.20", "Molecular Formula": "C8H14O", "Boiling Point": "75-78 \u00b0C @ Press: 13 Torr"}}