{"cas_no": "25496-72-4", "cn_name": "\u5355\u6cb9\u9178\u7518\u6cb9\u916f", "en_name": ["Monoolein", "9-Octadecenoic acid (9Z)-, monoester with 1,2,3-propanetriol", "Olein, mono-", "9-Octadecenoic acid (Z)-, monoester with 1,2,3-propanetriol", "Monoolein", "Glycerol monooleate", "Oleylmonoglyceride", "S 1096", "S 1096R", "S 1097", "Emcol O", "Glycerol oleate", "Glyceryl monooleate", "Glyceryl oleate", "Olicine", "Supeol", "Oleic acid monoglyceride", "Glycerin monooleate", "Sinnoester OGC", "Monooleoylglycerol", "Oleic acid glycerol monoester", "Sunsoft O 30B", "Glycerine monooleate", "Loxiol G 10", "Harowax L 9", "Emrite 6009", "Aldo MO-FG", "Rikemal OL 100", "Dur-Em 204", "Aldo 40", "Adchem GMO", "Ajax GMO", "GMO 8903", "Monoglyceryl oleate", "Nikkol MGO", "Glyceromonooleate", "Atmer 1007", "Dimodan LSQK", "Excel O 95R", "Rheodol MO 60", "Excel O 95N", "Emalsy MO", "Oleic monoglyceride", "Emalsy OL", "XU 61518.10", "Mazol GMO", "Dur-Em 114", "Alkamuls GMO 45LG", "Arlacel 129", "Kemester 2000", "Emerest 2421", "Emasol MO 50", "Glycolube 100", "Priolube 1407", "Excel O 95F", "Emuldan RYLO-MG 90", "OL 100", "Radiasurf 7150", "Polybatch AF 1085", "Emerest 2400", "Dimodan GMO 90", "Kessco GMO", "Edenor GMO", "Sunsoft 8070", "Canamex Glicepol 182", "Monomuls 90O18", "Aldo MO", "Emalsy OL 100", "Esterol 272", "Rikemal OL 100E", "EAR 300", "GMOrphic 80", "Monomuls 90-018", "Agnique GMO", "Rylo MG 19 Pharma", "Radiasurf 7149", "Emasol MO", "Capmul GMO 50", "Lumulse GMO", "A 300 (ester)", "A 300", "Rheodol MO 50", "Atsurf 595", "Emalsy OL 100H", "Crossential GMO", "Loxiol G 10V", "Tegin OV", "Sunsoft 8070V", "Dremulse", "Synative ES-GMO", "Rikemal XO 100", "Monegyl 0100", "Sunsoft O 30S", "GMO 800", "Synative ES 2421", "MAG-18:1", "Dimodan MO 90", "Emaster 510P", "Hitec 7133", "Rylo MG 20", "XO 100", "Sunsoft O 30S-C", "Poem OL 100H", "OL 100E", "Capmul 90EP/NF", "Maisine CC", "Cithrol GMO"], "SMILES": "", "physical_data": {"Molecular Weight": "", "Molecular Formula": "C21H40O4", "Boiling Point": "238-240 \u00b0C @ Press: 3 Torr", "Melting Point": "36 \u00b0C", "Density": "0.9420 g/cm\u00b3 @ Temp: 20 \u00b0C"}}