{"cas_no": "2549-93-1", "cn_name": "1,4-\u73af\u5df1\u70f7\u4e8c\u7532\u80fa", "en_name": ["1,4-Cyclohexanedimethanamine", "1,4-Cyclohexanedimethanamine", "1,4-Cyclohexanebis(methylamine)", "1,4-Bis(aminomethyl)cyclohexane", "1,4-Di(aminomethyl)cyclohexane", "Hexahydro-p-xylylenediamine", "1,4-Cyclohexanedimethylamine", "1,4-Cyclohexylenebis(methylamine)", "p-Bis(aminomethyl)cyclohexane", "[[4-(Aminomethyl)cyclohexyl]methyl]amine", "XTA 808", "XTA 801", "[4-(Aminomethyl)cyclohexyl]methanamine"], "SMILES": "C(N)C1CCC(CN)CC1", "physical_data": {"Molecular Weight": "142.24", "Molecular Formula": "C8H18N2", "Boiling Point": "113-115 \u00b0C", "Melting Point": "-9 \u00b0C"}}