{"cas_no": "2549-53-3", "cn_name": "\u7532\u57fa\u4e19\u70ef\u9178\u5341\u56db\u916f", "en_name": ["Tetradecyl methacrylate", "2-Propenoic acid, 2-methyl-, tetradecyl ester", "Methacrylic acid, tetradecyl ester", "1-Tetradecanol, methacrylate", "Myristyl methacrylate", "Tetradecyl methacrylate", "n-Tetradecyl methacrylate"], "SMILES": "C(COC(C(C)=C)=O)CCCCCCCCCCCC", "physical_data": {"Molecular Weight": "282.46", "Molecular Formula": "C18H34O2", "Boiling Point": "147-154 \u00b0C @ Press: 0.70 Torr"}}