{"cas_no": "25499-90-5", "cn_name": "3-\u8868\u9f50\u58a9\u679c\u9178", "en_name": ["epi-Oleanolic acid", "Olean-12-en-28-oic acid, 3-hydroxy-, (3\u03b1)-", "Olean-12-en-28-oic acid, 3\u03b1-hydroxy-", "(3\u03b1)-3-Hydroxyolean-12-en-28-oic acid", "Epioleanolic acid", "3-Epioleanolic acid", "3-epi-Oleanolic acid", "3\u03b1-Hydroxyolean-12-en-28-oic acid", "epi-Oleanolic acid"], "SMILES": "CC12C3(C)C(C4C(C(O)=O)(CC3)CCC(C)(C)C4)=CCC1C5(C)C(CC2)C(C)(C)C(O)CC5", "physical_data": {"Molecular Weight": "456.70", "Molecular Formula": "C30H48O3", "Melting Point": "297-299 \u00b0C"}}