{"cas_no": "2549-87-3", "cn_name": "4-\u4e19\u70ef\u6c27\u57fa-2-\u7f9f\u57fa\u4e8c\u82ef\u7532\u916e", "en_name": ["4-(Allyloxy)-2-hydroxybenzophenone", "Methanone, [2-hydroxy-4-(2-propen-1-yloxy)phenyl]phenyl-", "Benzophenone, 4-(allyloxy)-2-hydroxy-", "Methanone, [2-hydroxy-4-(2-propenyloxy)phenyl]phenyl-", "[2-Hydroxy-4-(2-propen-1-yloxy)phenyl]phenylmethanone", "4-(Allyloxy)-2-hydroxybenzophenone", "2-Hydroxy-4-allyloxybenzophenone", "(4-Allyloxy-2-hydroxy-phenyl)-phenyl-methanone", "(2-Hydroxy-4-prop-2-enoxyphenyl)-phenylmethanone", "(4-(Allyloxy)-2-hydroxyphenyl)(phenyl)methanone", "2-Benzoyl-5-(prop-2-en-1-yloxy)phenol"], "SMILES": "C(=O)(C1=C(O)C=C(OCC=C)C=C1)C2=CC=CC=C2", "physical_data": {"Molecular Weight": "254.28", "Molecular Formula": "C16H14O3", "Boiling Point": "166-178 \u00b0C @ Press: 1 Torr", "Melting Point": "67.5-68.5 \u00b0C"}}