{"cas_no": "2549-51-1", "cn_name": "\u6c2f\u4e59\u9178\u4e59\u70ef\u916f", "en_name": ["Ethenyl 2-chloroacetate", "Acetic acid, 2-chloro-, ethenyl ester", "Acetic acid, chloro-, vinyl ester", "Acetic acid, chloro-, ethenyl ester", "Ethenyl 2-chloroacetate", "Vinyl chloroacetate", "Vinyl monochloroacetate", "Vinyl 2-chloroacetate"], "SMILES": "C(OC=C)(CCl)=O", "physical_data": {"Molecular Weight": "120.53", "Molecular Formula": "C4H5ClO2", "Boiling Point": "63-70 \u00b0C @ Press: 55 Torr", "Density": "1.187 g/cm\u00b3 @ Temp: 24 \u00b0C"}}