{"cas_no": "2549-99-7", "cn_name": "\u82c4\u57fa\u4e09\u4e59\u6c27\u57fa\u7845\u70f7", "en_name": ["Benzyltriethoxysilane", "Benzene, [(triethoxysilyl)methyl]-", "Silane, benzyltriethoxy-", "Silane, triethoxy(phenylmethyl)-", "[(Triethoxysilyl)methyl]benzene", "Benzyltriethoxysilane"], "SMILES": "[Si](CC1=CC=CC=C1)(OCC)(OCC)OCC", "physical_data": {"Molecular Weight": "254.40", "Molecular Formula": "C13H22O3Si", "Boiling Point": "148 \u00b0C @ Press: 26 Torr", "Density": "0.986 g/cm\u00b3"}}