{"cas_no": "2549-14-6", "cn_name": "(R)-(+)-2-\u82ef\u7518\u6c28\u9187", "en_name": ["(-)-Phenylethanolamine", "Benzenemethanol, \u03b1-(aminomethyl)-, (\u03b1R)-", "Benzyl alcohol, \u03b1-(aminomethyl)-, (R)-(-)-", "Benzenemethanol, \u03b1-(aminomethyl)-, (R)-", "(\u03b1R)-\u03b1-(Aminomethyl)benzenemethanol", "D-(-)-\u03b2-Phenylethanolamine", "(-)-\u03b2-Hydroxyphenethylamine", "(-)-\u03b1-(Aminomethyl)benzenemethanol", "(-)-2-Amino-1-phenylethanol", "(R)-2-Amino-1-phenylethanol", "(R)-\u03b1-(Aminomethyl)benzenemethanol", "(R)-(-)-1-Phenyl-2-aminoethanol", "(-)-(R)-2-Amino-1-phenylethanol", "(R)-1-Phenyl-2-aminoethanol", "(R)-\u03b1-(Aminomethyl)benzenemethanol", "(R)-(-)-2-Amino-1-phenylethanol", "((R)-2-Hydroxy-2-phenylethyl)amine", "(-)-Phenylethanolamine", "(1R)-2-Amino-1-phenylethanol"], "SMILES": "C(CN)(O)C1=CC=CC=C1", "physical_data": {"Molecular Weight": "137.18", "Molecular Formula": "C8H11NO", "Melting Point": "58-62 \u00b0C"}}