{"cas_no": "2549-19-1", "cn_name": "2-\u7532\u57fa\u54aa\u5511\u5e76[1,2-A]\u5421\u5576-3-\u7fa7\u9178\u4e59\u916f", "en_name": ["2-Methylimidazo[1,2-a]pyridine-3-carboxylic acid ethyl ester", "Imidazo[1,2-a]pyridine-3-carboxylic acid, 2-methyl-, ethyl ester", "2-Methylimidazo[1,2-a]pyridine-3-carboxylic acid ethyl ester"], "SMILES": "C(OCC)(=O)C=1N2C(=NC1C)C=CC=C2", "physical_data": {"Molecular Weight": "204.23", "Molecular Formula": "C11H12N2O2", "Melting Point": "64-65 \u00b0C"}}