{"cas_no": "25503-90-6", "cn_name": "1-\u4e59\u9170\u57fa-4-\u54cc\u5576\u7532\u9178", "en_name": ["1-Acetyl-4-piperidinecarboxylic acid", "4-Piperidinecarboxylic acid, 1-acetyl-", "Isonipecotic acid, 1-acetyl-", "1-Acetyl-4-piperidinecarboxylic acid", "1-Acetylisonipecotic acid", "N-Acetylisonipecotic acid", "N-Acetylisonipecotinic acid", "N-Acetylpiperidine-4-carboxylic acid", "4-Acetylpiperidine-1-carboxylic acid"], "SMILES": "C(O)(=O)C1CCN(C(C)=O)CC1", "physical_data": {"Molecular Weight": "171.19", "Molecular Formula": "C8H13NO3", "Melting Point": "163-178 \u00b0C"}}