{"cas_no": "2550-75-6", "cn_name": "\u51b0\u7247\u4e39", "en_name": ["Chlorbicyclen", "Bicyclo[2.2.1]hept-2-ene, 1,2,3,4,7,7-hexachloro-5,6-bis(chloromethyl)-", "2-Norbornene, 1,2,3,4,7,7-hexachloro-5,6-bis(chloromethyl)-", "1,2,3,4,7,7-Hexachloro-5,6-bis(chloromethyl)bicyclo[2.2.1]hept-2-ene", "Alodan", "Chlorbicyclen", "Cyclodan", "1,2,3,4,7,7-Hexachloro-5,6-di(chloromethyl)[2.2.1]bicyclohept-2-ene", "AC 12402", "Hercules 12402", "1,2,3,4,7,7-Hexachloro-5,6-bis(chloromethyl)-2-norbornene", "Hercules 426", "Alodan (pesticide)", "NSC 41891"], "SMILES": "ClC12C(Cl)(Cl)C(Cl)(C(CCl)C1CCl)C(Cl)=C2Cl", "physical_data": {"Molecular Weight": "397.77", "Molecular Formula": "C9H6Cl8", "Boiling Point": "174 \u00b0C", "Melting Point": "105 \u00b0C"}}