{"cas_no": "2550-06-3", "cn_name": "3-\u6c2f\u4e19\u57fa\u4e09\u6c2f\u7845\u70f7", "en_name": ["(3-Chloropropyl)trichlorosilane", "Silane, trichloro(3-chloropropyl)-", "Trichloro(3-chloropropyl)silane", "(\u03b3-Chloropropyl)trichlorosilane", "(3-Chloropropyl)trichlorosilane", "NSC 139831", "1-Chloro-3-(trichlorosilyl)propane"], "SMILES": "C([Si](Cl)(Cl)Cl)CCCl", "physical_data": {"Molecular Weight": "211.98", "Molecular Formula": "C3H6Cl4Si", "Boiling Point": "181.5 \u00b0C", "Density": "1.359 g/cm\u00b3"}}