{"cas_no": "2550-04-1", "cn_name": "\u70ef\u4e19\u57fa\u4e09\u4e59\u6c27\u57fa\u7845\u70f7", "en_name": ["Allyltriethoxysilane", "Silane, triethoxy-2-propen-1-yl-", "Silane, allyltriethoxy-", "Silane, triethoxy-2-propenyl-", "Triethoxy-2-propen-1-ylsilane", "Allyltriethoxysilane", "Triethoxyallylsilane", "A 0564 (coupling agent)", "A 0564", "3-(Triethoxysilyl)propene", "2-Propenyltriethoxysilane", "NSC 89735", "LS 2920", "SIA 0525.0"], "SMILES": "[Si](CC=C)(OCC)(OCC)OCC", "physical_data": {"Molecular Weight": "204.34", "Molecular Formula": "C9H20O3Si", "Boiling Point": "176 \u00b0C", "Density": "0.903 g/cm\u00b3"}}