{"cas_no": "2550-73-4", "cn_name": "\u5747\u82ef\u56db\u7532\u9178\u4e8c\u80fa", "en_name": ["Benzo[1,2-c:4,5-c\u2032]dipyrrole-1,3,5,7(2H,6H)-tetrone", "Benzo[1,2-c:4,5-c\u2032]dipyrrole-1,3,5,7(2H,6H)-tetrone", "1,2,4,5-Benzenetetracarboxylic 1,2:4,5-diimide", "Pyromellitimide", "Pyromellitic diimide", "Pyromellitic acid diimide", "1,2,4,5-Benzenetetracarboxylic acid diimide", "NSC 55160"], "SMILES": "O=C1C=2C(=CC3=C(C2)C(=O)NC3=O)C(=O)N1", "physical_data": {"Molecular Weight": "216.15", "Molecular Formula": "C10H4N2O4", "Melting Point": "440 \u00b0C (decomp)", "Density": "1.64 g/cm\u00b3"}}