{"cas_no": "2550-27-8", "cn_name": "3-\u7532\u57fa-4-\u82ef\u57fa-2-\u4e01\u916e", "en_name": ["3-Methyl-4-phenyl-2-butanone", "2-Butanone, 3-methyl-4-phenyl-", "3-Methyl-4-phenyl-2-butanone"], "SMILES": "C(C(C(C)=O)C)C1=CC=CC=C1", "physical_data": {"Molecular Weight": "162.23", "Molecular Formula": "C11H14O", "Boiling Point": "118-120 \u00b0C @ Press: 14 Torr", "Melting Point": "104-105 \u00b0C", "Density": "0.974 g/cm\u00b3 @ Temp: 18 \u00b0C"}}