{"cas_no": "2550-02-9", "cn_name": "\u4e19\u57fa\u4e09\u4e59\u6c27\u57fa\u7845\u70f7", "en_name": ["Propyltriethoxysilane", "Silane, triethoxypropyl-", "Triethoxypropylsilane", "n-Propyltriethoxysilane", "Silar 1249", "Propyltriethoxysilane", "Si 203", "Dynasylan PTEO", "VP-Si 203", "KBE 3033", "DB 8331", "ZQ 701", "PTS", "KH 303"], "SMILES": "[Si](CCC)(OCC)(OCC)OCC", "physical_data": {"Molecular Weight": "206.35", "Molecular Formula": "C9H22O3Si", "Boiling Point": "179-180 \u00b0C", "Density": "0.891 g/cm\u00b3"}}