{"cas_no": "2550-40-5", "cn_name": "\u4e8c\u73af\u5df1\u57fa\u4e8c\u786b\u5316\u7269", "en_name": ["Dicyclohexyl disulfide", "Disulfide, dicyclohexyl", "Cyclohexyl disulfide", "Dicyclohexyl disulfide", "Bis(cyclohexyl) disulfide", "(Cyclohexyldisulfanyl)cyclohexane", "1,2-Dicyclohexyldisulfane"], "SMILES": "S(SC1CCCCC1)C2CCCCC2", "physical_data": {"Molecular Weight": "230.43", "Molecular Formula": "C12H22S2", "Boiling Point": "100 \u00b0C @ Press: 1 x 10<sup>-3</sup> Torr", "Melting Point": "127-130 \u00b0C", "Density": "1.0457 g/cm\u00b3 @ Temp: 20 \u00b0C"}}