{"cas_no": "2550-21-2", "cn_name": "3-\u7532\u57fa-2-\u5df1\u916e", "en_name": ["3-Methyl-2-hexanone", "2-Hexanone, 3-methyl-", "3-Methyl-2-hexanone"], "SMILES": "C(CCC)(C(C)=O)C", "physical_data": {"Molecular Weight": "114.19", "Molecular Formula": "C7H14O", "Boiling Point": "143.5 \u00b0C", "Density": "0.828 g/cm\u00b3 @ Temp: 25 \u00b0C"}}