{"cas_no": "2550-11-0", "cn_name": "4,7-\u4e8c\u7532\u57fa-6-\u8f9b\u70ef-3-\u916e", "en_name": ["4,7-Dimethyl-6-octen-3-one", "6-Octen-3-one, 4,7-dimethyl-", "4,7-Dimethyl-6-octen-3-one"], "SMILES": "C(CC=C(C)C)(C(CC)=O)C", "physical_data": {"Molecular Weight": "154.25", "Molecular Formula": "C10H18O", "Boiling Point": "47-50 \u00b0C @ Press: 2.3-2.7 Torr"}}