{"cas_no": "2550-26-7", "cn_name": "\u82c4\u57fa\u4e19\u916e", "en_name": ["4-Phenyl-2-butanone", "2-Butanone, 4-phenyl-", "4-Phenyl-2-butanone", "Benzylacetone", "1-Phenyl-3-butanone", "Methyl phenethyl ketone", "Methyl 2-phenylethyl ketone", "Phenethyl methyl ketone", "2-Phenylethyl methyl ketone", "NSC 44829", "NSC 813"], "SMILES": "C(CC(C)=O)C1=CC=CC=C1", "physical_data": {"Molecular Weight": "148.20", "Molecular Formula": "C10H12O", "Boiling Point": "233.5 \u00b0C", "Melting Point": "-13 \u00b0C", "Density": "0.9877 g/cm\u00b3 @ Temp: 40 \u00b0C"}}