{"cas_no": "2551-62-4", "cn_name": "\u516d\u6c1f\u5316\u786b", "en_name": ["Sulfur hexafluoride", "Sulfur fluoride (SF6), (OC-6-11)-", "Sulfur fluoride (SF6)", "Sulfur hexafluoride", "Elegas", "Sulphur hexafluoride", "Hexafluorosulfur", "Sulfur fluoride", "R 7146", "SonoVue", "BRI", "Lumason", "MeSH ID: D013459"], "SMILES": "S(F)(F)(F)(F)(F)F", "physical_data": {"Molecular Weight": "146.06", "Molecular Formula": "F6S", "Boiling Point": "-64 \u00b0C", "Melting Point": "-50.8 \u00b0C", "Density": "6.602 x 10<sup>-3</sup> g/cm\u00b3"}}