{"cas_no": "2551-83-9", "cn_name": "\u70ef\u4e19\u57fa\u4e09\u7532\u6c27\u57fa\u7845\u70f7", "en_name": ["Allyltrimethoxysilane", "Silane, trimethoxy-2-propen-1-yl-", "Silane, allyltrimethoxy-", "Silane, trimethoxy-2-propenyl-", "Trimethoxy-2-propen-1-ylsilane", "Allyltrimethoxysilane", "Z 6825", "A 1504", "SIA 0540.0", "SP 3", "SP 3 (silane)"], "SMILES": "[Si](CC=C)(OC)(OC)OC", "physical_data": {"Molecular Weight": "162.26", "Molecular Formula": "C6H14O3Si", "Boiling Point": "146-148 \u00b0C", "Density": "0.963 g/cm\u00b3 @ Temp: 25 \u00b0C"}}