{"cas_no": "2552-55-8", "cn_name": "\u9e45\u818f\u6c28\u9178", "en_name": ["(\u00b1)-Ibotenic acid", "5-Isoxazoleacetic acid, \u03b1-amino-2,3-dihydro-3-oxo-", "4-Isoxazoline-5-acetic acid, \u03b1-amino-3-oxo-", "5-Isoxazoleacetic acid, \u03b1-amino-3-hydroxy-", "\u03b1-Amino-2,3-dihydro-3-oxo-5-isoxazoleacetic acid", "Ibotenic acid", "DL-Ibotenic acid", "(RS)-Ibotenic acid", "(\u00b1)-Ibotenic acid", "NSC 204850", "2-Amino-2-(3-oxo-2,3-dihydro-1,2-oxazol-5-yl)acetic acid", "2-Amino-2-(3-hydroxyisoxazol-5-yl)acetic acid", "2-Amino-2-(3-hydroxy-1,2-oxazol-5-yl)acetic acid", "MeSH ID: D007051"], "SMILES": "C(C(O)=O)(N)C=1ONC(=O)C1", "physical_data": {"Molecular Weight": "158.11", "Molecular Formula": "C5H6N2O4", "Melting Point": "151-152 \u00b0C (decomp)"}}