{"cas_no": "25522-33-2", "cn_name": "\u53cd\u5f0f\u5f02\u963f\u9b4f\u9178", "en_name": ["trans-Isoferulic acid", "2-Propenoic acid, 3-(3-hydroxy-4-methoxyphenyl)-, (2E)-", "Cinnamic acid, 3-hydroxy-4-methoxy-, (E)-", "2-Propenoic acid, 3-(3-hydroxy-4-methoxyphenyl)-, (E)-", "(2E)-3-(3-Hydroxy-4-methoxyphenyl)-2-propenoic acid", "trans-Isoferulic acid", "trans-3-Hydroxy-4-methoxycinnamic acid", "(E)-3-Hydroxy-4-methoxycinnamic acid"], "SMILES": "C(=CC(O)=O)C1=CC(O)=C(OC)C=C1", "physical_data": {"Molecular Weight": "194.18", "Molecular Formula": "C10H10O4", "Melting Point": "230-232 \u00b0C"}}