{"cas_no": "25526-93-6", "cn_name": "3'-\u8131\u6c27-3-\u6c1f\u80f8\u82f7", "en_name": ["3\u2032-Fluorothymidine", "Thymidine, 3\u2032-deoxy-3\u2032-fluoro-", "3\u2032-Deoxy-3\u2032-fluorothymidine", "1-(3\u2032-Deoxy-3\u2032-fluoro-\u03b2-D-pentofuranosyl)thymine", "3\u2032-Fluorodeoxythymidine", "3\u2032-Fluorothymidine", "3\u2032-Fluoro-3\u2032-deoxythymidine", "FLT (deoxy fluorothymidine)", "Alovudine", "CL 184824", "NSC 140025", "MIV 310", "3\u2032-Fluoro-2\u2032,3\u2032-dideoxythymidine"], "SMILES": "O=C1N(C2OC(CO)C(F)C2)C=C(C)C(=O)N1", "physical_data": {"Molecular Weight": "244.22", "Molecular Formula": "C10H13FN2O4", "Melting Point": "176-178 \u00b0C"}}