{"cas_no": "2553-04-0", "cn_name": "2-\u7532\u6c27\u57fa\u82ef\u7532\u916e", "en_name": ["2-Methoxybenzophenone", "Methanone, (2-methoxyphenyl)phenyl-", "Benzophenone, 2-methoxy-", "Benzophenone, o-methoxy-", "(2-Methoxyphenyl)phenylmethanone", "2-Methoxybenzophenone", "o-Methoxybenzophenone", "(2-Methoxyphenyl)phenyl methanone", "2-Benzoylanisole", "NSC 408008", "Phenyl 2-methoxyphenyl ketone"], "SMILES": "C(=O)(C1=C(OC)C=CC=C1)C2=CC=CC=C2", "physical_data": {"Molecular Weight": "212.24", "Molecular Formula": "C14H12O2", "Boiling Point": "210 \u00b0C @ Press: 27 Torr", "Melting Point": "41 \u00b0C"}}