{"cas_no": "2553-19-7", "cn_name": "\u4e8c\u82ef\u57fa\u4e8c\u4e59\u6c27\u57fa\u7845\u70f7", "en_name": ["Diphenyldiethoxysilane", "Benzene, 1,1\u2032-(diethoxysilylene)bis-", "Silane, diethoxydiphenyl-", "1,1\u2032-(Diethoxysilylene)bis[benzene]", "Diphenyldiethoxysilane", "Diethoxydiphenylsilane", "KBM 202LS5990", "TSL 8177", "NSC 77127", "KEB 202", "LS 5990", "KBE 202"], "SMILES": "[Si](OCC)(OCC)(C1=CC=CC=C1)C2=CC=CC=C2", "physical_data": {"Molecular Weight": "272.41", "Molecular Formula": "C16H20O2Si", "Boiling Point": "302-304 \u00b0C @ Press: 767 Torr", "Density": "1.032 g/cm\u00b3"}}