{"cas_no": "25532-45-0", "cn_name": "MAYUMBINE", "en_name": ["19-Epiajmalicine", "Oxayohimban-16-carboxylic acid, 16,17-didehydro-19-methyl-, methyl ester, (19\u03b2)-", "19-Epiajmalicine", "Mayumbine", "19-epi-Ajmalicine", "(+)-19-epi-Ajmalicine", "(+)-19-Epiajmalicine"], "SMILES": "C(OC)(=O)C=1C2CC3C4=C(C=5C(N4)=CC=CC5)CCN3CC2C(C)OC1", "physical_data": {"Molecular Weight": "352.43", "Molecular Formula": "C21H24N2O3", "Melting Point": "216 \u00b0C"}}