{"cas_no": "2554-06-5", "cn_name": "\u56db\u7532\u57fa\u56db\u4e59\u70ef\u57fa\u73af\u56db\u7845\u6c27\u70f7", "en_name": ["1,3,5,7-Tetramethyl-1,3,5,7-tetravinylcyclotetrasiloxane", "Cyclotetrasiloxane, 2,4,6,8-tetraethenyl-2,4,6,8-tetramethyl-", "Cyclotetrasiloxane, 2,4,6,8-tetramethyl-2,4,6,8-tetravinyl-", "2,4,6,8-Tetraethenyl-2,4,6,8-tetramethylcyclotetrasiloxane", "1,3,5,7-Tetramethyl-1,3,5,7-tetravinylcyclotetrasiloxane", "s-Tetramethyltetravinylcyclotetrasiloxane", "Tetramethyltetravinylcyclotetrasiloxane", "2,4,6,8-Tetramethyl-2,4,6,8-tetravinylcyclotetrasiloxane", "1,3,5,7-Tetramethyltetravinylcyclotetrasiloxane", "2,4,6,8-Tetravinyl-2,4,6,8-tetramethylcyclotetrasiloxane", "PS 925", "LS 8670", "SIT 7900", "1,3,5,7-Tetravinyl-1,3,5,7-tetramethylcyclotetrasiloxane", "VMC", "2,4,6,8-Tetramethyl-2,4,6,8-tetravinylcycloterasiloxane", "VM 20", "MVS-H", "Vinyl D 4", "PS 925 (siloxane)", "D 4Vi", "VMS 005", "H 50614", "Fluka 87927", "2,4,6,8-Tetramethyl-2,4,6,8-tetravinyl-1,3,5,7,2,4,6,8-tetraoxatetrasilocane", "2,4,6,8-Tetrakis(ethenyl)-2,4,6,8-tetramethyl-1,3,5,7,2,4,6,8-tetraoxatetrasilocane", "Andisil MVC", "CB 802V", "V 4", "USi 06414", "Dowsil 1-2287", "Dowsil 1-2287 Intermediate", "SIT 7900.0", "SIT 900.0", "DowsilDowsil 1-687"], "SMILES": "C(=C)[Si]1(C)O[Si](C=C)(C)O[Si](C=C)(C)O[Si](C=C)(C)O1", "physical_data": {"Molecular Weight": "344.66", "Molecular Formula": "C12H24O4Si4", "Boiling Point": "224 \u00b0C", "Melting Point": "-43.5 \u00b0C", "Density": "0.998 g/cm\u00b3"}}