{"cas_no": "2554-75-8", "cn_name": "N,N-\u4e8c\u7532\u57fa-5-\u785d\u57fa\u5421\u5576-2-\u80fa", "en_name": ["N,N-Dimethyl-5-nitro-2-pyridinamine", "2-Pyridinamine, N,N-dimethyl-5-nitro-", "Pyridine, 2-(dimethylamino)-5-nitro-", "N,N-Dimethyl-5-nitro-2-pyridinamine", "2-(Dimethylamino)-5-nitropyridine", "NSC 93901", "N,N-Dimethyl-N-(5-nitropyridin-2-yl)amine"], "SMILES": "N(=O)(=O)C=1C=CC(N(C)C)=NC1", "physical_data": {"Molecular Weight": "167.17", "Molecular Formula": "C7H9N3O2", "Melting Point": "154-155 \u00b0C"}}