{"cas_no": "25542-62-5", "cn_name": "6-\u6eb4\u5df1\u9178\u4e59\u916f", "en_name": ["Ethyl 6-bromohexanoate", "Hexanoic acid, 6-bromo-, ethyl ester", "Ethyl 6-bromohexanoate", "Ethyl 6-bromocaproate", "6-Bromohexanoic acid ethyl ester", "5-Carbethoxypentyl bromide"], "SMILES": "C(CCCCCBr)(OCC)=O", "physical_data": {"Molecular Weight": "223.11", "Molecular Formula": "C8H15BrO2", "Boiling Point": "128-130 \u00b0C @ Press: 16 Torr", "Melting Point": "33 \u00b0C", "Density": "1.241 g/cm\u00b3 @ Temp: 23 \u00b0C"}}