{"cas_no": "2555-05-7", "cn_name": "3-\u7532\u57fa-2-\u5421\u54af\u70f7\u916e", "en_name": ["3-Methyl-2-pyrrolidinone", "2-Pyrrolidinone, 3-methyl-", "3-Methyl-2-pyrrolidinone", "3-Methyl-2-pyrrolidone"], "SMILES": "CC1C(=O)NCC1", "physical_data": {"Molecular Weight": "99.13", "Molecular Formula": "C5H9NO", "Boiling Point": "118-120 \u00b0C @ Press: 10 Torr", "Melting Point": "58-59.5 \u00b0C"}}