{"cas_no": "2555-28-4", "cn_name": "7-\u7532\u6c27\u57fa-4-\u7532\u57fa\u9999\u8c46\u7d20", "en_name": ["7-Methoxy-4-methylcoumarin", "2H-1-Benzopyran-2-one, 7-methoxy-4-methyl-", "Coumarin, 7-methoxy-4-methyl-", "Herniarin, 4-methyl-", "7-Methoxy-4-methyl-2H-1-benzopyran-2-one", "7-Methoxy-4-methylcoumarin", "4-Methyl-7-methoxycoumarin", "4-Methylherniarin", "4-Methylumbelliferone methyl ether", "NSC 688805", "7-Methoxy-4-methyl-2H-chromen-2-one", "7-Methyloxy-4-methylcoumarin", "7-Methoxy-4-methyl-chromen-2-one"], "SMILES": "CC=1C=2C(=CC(OC)=CC2)OC(=O)C1", "physical_data": {"Molecular Weight": "190.20", "Molecular Formula": "C11H10O3", "Melting Point": "159 \u00b0C"}}