{"cas_no": "25550-14-5", "cn_name": "\u5bf9-\u7532\u4e59\u82ef", "en_name": ["Ethyltoluene", "Benzene, ethylmethyl-", "Toluene, ar-ethyl-", "Toluene, ethyl-", "Ethylmethylbenzene", "Ethyltoluene", "Methylethylbenzene", "\u03b1-Methylxylene", "m-Methylethylbenzene-p-methylethylbenzene mixt."], "SMILES": "", "physical_data": {"Molecular Weight": "", "Molecular Formula": "C9H12", "Boiling Point": "159-160 \u00b0C", "Melting Point": "165 \u00b0C"}}