{"cas_no": "2555-49-9", "cn_name": "\u82ef\u6c27\u4e59\u9178\u4e59\u916f", "en_name": ["Ethyl 2-phenoxyacetate", "Acetic acid, 2-phenoxy-, ethyl ester", "Acetic acid, phenoxy-, ethyl ester", "Ethyl 2-phenoxyacetate", "Ethyl phenoxyacetate", "Phenoxyacetic acid ethyl ester"], "SMILES": "O(CC(OCC)=O)C1=CC=CC=C1", "physical_data": {"Molecular Weight": "180.20", "Molecular Formula": "C10H12O3", "Boiling Point": "99-100 \u00b0C @ Press: 1.5 Torr", "Melting Point": "80-82 \u00b0C", "Density": "1.1029 g/cm\u00b3 @ Temp: 20 \u00b0C"}}