{"cas_no": "2555-29-5", "cn_name": "8-\u4e59\u9170\u57fa-7-\u7f9f\u57fa-4-\u7532\u57fa-2H-1-\u82ef\u5e76\u5421\u5583-2-\u916e", "en_name": ["8-Acetyl-7-hydroxy-4-methylcoumarin", "2H-1-Benzopyran-2-one, 8-acetyl-7-hydroxy-4-methyl-", "Coumarin, 8-acetyl-7-hydroxy-4-methyl-", "Umbelliferone, 8-acetyl-4-methyl-", "8-Acetyl-7-hydroxy-4-methyl-2H-1-benzopyran-2-one", "4-Methyl-7-hydroxy-8-acetylcoumarin", "7-Hydroxy-8-acetyl-4-methylcoumarin", "8-Acetyl-7-hydroxy-4-methylcoumarin", "4-Methyl-7-hydroxy-8-acetocoumarin", "8-Acetyl-4-methylumbelliferone", "NSC 19027", "8-Acetyl-4-methyl-7-hydroxycoumarin"], "SMILES": "C(C)(=O)C1=C2C(C(C)=CC(=O)O2)=CC=C1O", "physical_data": {"Molecular Weight": "218.21", "Molecular Formula": "C12H10O4", "Melting Point": "168 \u00b0C"}}