{"cas_no": "25550-52-1", "cn_name": "2,4-\u4e8c\u7532\u57fa\u5def\u57fa\u82ef\u915a", "en_name": ["Dimethylbenzenethiol", "Benzenethiol, dimethyl-", "Xylenethiol", "ar-Xylenethiol", "Dimethylbenzenethiol", "Xylyl mercaptan", "RPA 3"], "SMILES": "", "physical_data": {"Molecular Weight": "", "Molecular Formula": "C8H10S", "Boiling Point": "210-220 \u00b0C", "Density": "1.026 g/cm\u00b3 @ Temp: 25 \u00b0C"}}