{"cas_no": "2556-36-7", "cn_name": "\u73af\u5df1\u70f7-1,4-\u4e8c\u5f02\u6c30\u9178\u916f", "en_name": ["1,4-Cyclohexane diisocyanate", "Cyclohexane, 1,4-diisocyanato-", "Isocyanic acid, 1,4-cyclohexylene ester", "1,4-Diisocyanatocyclohexane", "1,4-Cyclohexylene diisocyanate", "1,4-Cyclohexane diisocyanate", "1,4-Cyclohexylene isocyanate", "1,4-Bis(isocyanato)cyclohexane", "Hexahydrophenylene-1,4-diisocyanate", "1,4-Cyclohexyl diisocyanate", "Cyclohexane-1,4-diisocyanate", "Hexahydro-1,4-phenyldiisocyanate"], "SMILES": "N(=C=O)C1CCC(N=C=O)CC1", "physical_data": {"Molecular Weight": "166.18", "Molecular Formula": "C8H10N2O2", "Boiling Point": "136 \u00b0C @ Press: 15 Torr", "Melting Point": "55 \u00b0C"}}