{"cas_no": "2556-73-2", "cn_name": "N-\u7532\u57fa\u5df1\u5185\u9170\u80fa", "en_name": ["N-Methylcaprolactam", "2H-Azepin-2-one, hexahydro-1-methyl-", "Hexamethylenimine, 1-methyl-2-oxo-", "Hexahydro-1-methyl-2H-azepin-2-one", "N-Methylcaprolactam", "N-Methyl-\u03b5-caprolactam", "1-Methylcaprolactam", "1-Methylhexahydro-2H-azepin-2-one", "1-Methylazacycloheptan-2-one", "N-Methyl-6-caprolactam", "NSC 68794", "Hexahydro-1-methyl-2H-azepin-2-one", "1-Methylazepan-2-one", "1-Methyl-2-azepanone"], "SMILES": "O=C1N(C)CCCCC1", "physical_data": {"Molecular Weight": "127.18", "Molecular Formula": "C7H13NO", "Boiling Point": "104-106 \u00b0C @ Press: 11 Torr"}}