{"cas_no": "25561-30-2", "cn_name": "N,O-\u53cc(\u4e09\u7532\u57fa\u7845\u70f7\u57fa)\u4e09\u6c1f\u4e59\u9170\u80fa", "en_name": ["Bis(trimethylsilyl)trifluoroacetamide", "Ethanimidic acid, 2,2,2-trifluoro-N-(trimethylsilyl)-, trimethylsilyl ester", "Acetimidic acid, 2,2,2-trifluoro-N-(trimethylsilyl)-, trimethylsilyl ester", "Silanol, trimethyl-, 2,2,2-trifluoro-N-(trimethylsilyl)acetimidate", "N,O-Bis(trimethylsilyl)trifluoroacetamide", "Trifluoro-N,O-bis(trimethylsilyl)acetamide", "2,2,2-Trifluoro-N,O-bis(trimethylsilyl)acetamide", "N,O-Bis(trimethylsilyl)trifluoracetamide", "BSTFA", "Bis(trimethylsilyl)trifluoroacetamide", "NSC 379423"], "SMILES": "C(=N[Si](C)(C)C)(O[Si](C)(C)C)C(F)(F)F", "physical_data": {"Molecular Weight": "257.40", "Molecular Formula": "C8H18F3NOSi2", "Boiling Point": "45-50 \u00b0C @ Press: 15 Torr", "Melting Point": "-10 \u00b0C", "Density": "0.969 g/cm\u00b3"}}