{"cas_no": "2556-10-7", "cn_name": "\u98ce\u4fe1\u5b50\u7d20", "en_name": ["[2-(1-Ethoxyethoxy)ethyl]benzene", "Benzene, [2-(1-ethoxyethoxy)ethyl]-", "Acetaldehyde, ethyl phenethyl acetal", "Ethane, 1-ethoxy-1-(phenethyloxy)-", "[2-(1-Ethoxyethoxy)ethyl]benzene", "Acetaldehyde ethyl 2-phenylethyl acetal", "1-Ethoxy-1-(2\u2032-phenylethoxy)ethane", "Efetaal", "1-(2-((1-(Ethyloxy)ethyl)oxy)ethyl)benzene"], "SMILES": "C(COC(OCC)C)C1=CC=CC=C1", "physical_data": {"Molecular Weight": "194.27", "Molecular Formula": "C12H18O2", "Boiling Point": "67-70 \u00b0C @ Press: 7 Torr"}}