{"cas_no": "2556-53-8", "cn_name": "\u7532\u9187\u9499", "en_name": ["Calcium methoxide", "Methanol, calcium salt (2:1)", "Methanol, calcium salt", "Calcium methoxide", "Calcium dimethoxide", "AKC 165", "Dimethoxycalcium"], "SMILES": "CO.[Ca]", "physical_data": {"Molecular Weight": "", "Molecular Formula": "CH4O.<sup>1</sup>/2Ca", "Melting Point": "&gt;170 \u00b0C (decomp)"}}