{"cas_no": "25560-00-3", "cn_name": "1-(3-\u6c28\u4e19\u57fa)-2-\u7532\u57fa\u54cc\u5576", "en_name": ["1-(3-Aminopropyl)-2-pipecoline", "1-Piperidinepropanamine, 2-methyl-", "2-Pipecoline, 1-(3-aminopropyl)-", "2-Methyl-1-piperidinepropanamine", "3-(2-Methylpiperidino)propylamine", "1-(3-Aminopropyl)-2-methylpiperidine", "1-(3-Aminopropyl)-2-pipecoline", "1-(3-Aminopropyl)-2-methylhexahydropyridine", "3-(2-Methylpiperidin-1-yl)propylamine", "3-(2-Methyl-1-piperidinyl)-1-propanamine", "N-(3-Aminopropyl)-2-methylpiperidine"], "SMILES": "C(CCN)N1C(C)CCCC1", "physical_data": {"Molecular Weight": "156.27", "Molecular Formula": "C9H20N2", "Boiling Point": "163-170 \u00b0C @ Press: 755 Torr"}}