{"cas_no": "25569-53-3", "cn_name": "\u805a\u4e01\u4e8c\u9178\u4e59\u4e8c\u9187\u916f(DEGS)", "en_name": ["Ethylene glycol-succinic acid copolymer", "Butanedioic acid, polymer with 1,2-ethanediol", "Succinic acid, polyester with ethylene glycol", "Ethylene glycol, polyester with succinic acid", "1,2-Ethanediol, polymer with butanedioic acid", "Ethylene glycol-succinic acid polymer", "Poly(ethylene succinate)", "Ethylene glycol-succinic acid copolymer", "Butanedioic acid-ethylene glycol copolymer", "Succinic acid-ethylene glycol copolymer", "Poly(ethylene succinate) monomer based", "1,2-Ethanediol-succinic acid copolymer", "Ethylene glycol-1,4-butanedioic acid copolymer", "1,4-Butanedioic acid-ethylene glycol copolymer"], "SMILES": "C(CO)O.C(CC(O)=O)C(O)=O", "physical_data": {"Molecular Weight": "", "Molecular Formula": "(C4H6O4.C2H6O2)x", "Melting Point": "103.9 \u00b0C"}}