{"cas_no": "25564-22-1", "cn_name": "2-\u620a\u57fa-2-\u73af\u620a\u70ef-1-\u916e", "en_name": ["2-Pentyl-2-cyclopenten-1-one", "2-Cyclopenten-1-one, 2-pentyl-", "2-Cyclopenten-1-one, 2-amyl-", "2-Pentyl-2-cyclopenten-1-one", "2-Pentyl-2-cyclopentenone", "2-Pentyl-1-cyclopenten-3-one", "3-Oxo-2-pentyl-1-cyclopentene", "2-(1-Pentyl)-2-cyclopenten-1-one"], "SMILES": "C(CCCC)C=1C(=O)CCC1", "physical_data": {"Molecular Weight": "152.23", "Molecular Formula": "C10H16O", "Boiling Point": "108 \u00b0C @ Press: 10 Torr", "Density": "0.921 g/cm\u00b3 @ Temp: 20 \u00b0C"}}