{"cas_no": "25570-02-9", "cn_name": "3,3',5,5'-\u56db\u7532\u57fa\u8054\u82ef", "en_name": ["3,3\u2032,5,5\u2032-Tetramethyl-1,1\u2032-biphenyl", "1,1\u2032-Biphenyl, 3,3\u2032,5,5\u2032-tetramethyl-", "Biphenyl, 3,3\u2032,5,5\u2032-tetramethyl-", "3,3\u2032,5,5\u2032-Tetramethyl-1,1\u2032-biphenyl", "3,3\u2032,5,5\u2032-Tetramethylbiphenyl", "3,5,3\u2032,5\u2032-Tetramethylbiphenyl", "3,5,3\u2032,5\u2032-Tetramethyl-1,1\u2032-biphenyl", "1-(3,5-Dimethylphenyl)-3,5-dimethylbenzene", "3,3\u2032,5\u2032,5\u2032-Tetraethynylbiphenyl"], "SMILES": "CC=1C=C(C=C(C)C1)C2=CC(C)=CC(C)=C2", "physical_data": {"Molecular Weight": "210.31", "Molecular Formula": "C16H18", "Boiling Point": "110 \u00b0C @ Press: 0.4 Torr", "Melting Point": "48.6-49 \u00b0C"}}