{"cas_no": "2557-78-0", "cn_name": "2-\u6c1f\u82ef\u786b\u915a", "en_name": ["2-Fluorothiophenol", "Benzenethiol, 2-fluoro-", "Benzenethiol, o-fluoro-", "2-Fluorobenzenethiol", "2-Fluorothiophenol", "o-Fluorobenzenethiol", "(2-Fluorophenyl)thiol", "o-Fluorothiophenol", "2-Fluorobenzene-1-thiol"], "SMILES": "FC1=C(S)C=CC=C1", "physical_data": {"Molecular Weight": "128.17", "Molecular Formula": "C6H5FS", "Boiling Point": "72-73 \u00b0C @ Press: 35 Torr"}}