{"cas_no": "2557-13-3", "cn_name": "3-\u4e09\u6c1f\u7532\u57fa\u82ef\u7532\u9178\u7532\u916f", "en_name": ["Benzoic acid, 3-(trifluoromethyl)-, methyl ester", "Benzoic acid, 3-(trifluoromethyl)-, methyl ester", "m-Toluic acid, \u03b1,\u03b1,\u03b1-trifluoro-, methyl ester", "Methyl 3-trifluoromethylbenzoate", "Methyl m-trifluoromethylbenzoate", "3-Trifluoromethylbenzoic acid methyl ester"], "SMILES": "C(OC)(=O)C1=CC(C(F)(F)F)=CC=C1", "physical_data": {"Molecular Weight": "204.15", "Molecular Formula": "C9H7F3O2", "Boiling Point": "93.5-94.5 \u00b0C"}}