{"cas_no": "2557-77-9", "cn_name": "3-\u6c1f\u82ef\u786b\u915a", "en_name": ["3-Fluorothiophenol", "Benzenethiol, 3-fluoro-", "Benzenethiol, m-fluoro-", "3-Fluorobenzenethiol", "m-Fluorobenzenethiol", "3-Fluorothiophenol", "(3-Fluorophenyl)thiol", "3-Fluorobenzene-1-thiol"], "SMILES": "FC1=CC(S)=CC=C1", "physical_data": {"Molecular Weight": "128.17", "Molecular Formula": "C6H5FS", "Boiling Point": "156 \u00b0C"}}