{"cas_no": "2557-81-5", "cn_name": "\u4e94\u6c1f\u5316(\u82ef\u57fa)\u786b", "en_name": ["(OC-6-21)-Pentafluorophenylsulfur", "Sulfur, pentafluorophenyl-, (OC-6-21)-", "Sulfur, pentafluorophenyl-", "Phenylsulfur pentafluoride", "(OC-6-21)-Pentafluorophenylsulfur", "Phenylsulfapentafluoride", "Pentafluoro(phenyl)sulfur", "Pentafluorothiobenzene", "1-(Pentafluorosulfanyl)benzene", "(Pentafluoro-\u03bb6-sulfanyl)benzene"], "SMILES": "S(F)(F)(F)(F)(F)C1=CC=CC=C1", "physical_data": {"Molecular Weight": "204.16", "Molecular Formula": "C6H5F5S", "Boiling Point": "70-71 \u00b0C @ Press: 120 mmHg"}}