{"cas_no": "25584-83-2", "cn_name": "\u4e19\u70ef\u9178\u7f9f\u4e19\u916f", "en_name": ["Hydroxypropyl acrylate", "2-Propenoic acid, monoester with 1,2-propanediol", "Acrylic acid, monoester with 1,2-propanediol", "1,2-Propanediol, monoacrylate", "Hydroxypropyl acrylate", "Propylene glycol acrylate", "Viscoat HPA", "1,2-Propylene glycol acrylate", "JBEM 213"], "SMILES": "", "physical_data": {"Molecular Weight": "", "Molecular Formula": "C6H10O3", "Boiling Point": "77 \u00b0C @ Press: 5 Torr", "Melting Point": "-30 \u00b0C", "Density": "105 g/cm\u00b3 @ Temp: 25 \u00b0C"}}