{"cas_no": "255837-19-5", "cn_name": "2-\u4e8c-\u53d4\u4e01\u57fa\u78f7-2'-\u7532\u57fa\u8054\u82ef", "en_name": ["2-(Di-tert-butylphosphino)-2\u2032-methyl-1,1\u2032-biphenyl", "Phosphine, bis(1,1-dimethylethyl)(2\u2032-methyl[1,1\u2032-biphenyl]-2-yl)-", "Bis(1,1-dimethylethyl)(2\u2032-methyl[1,1\u2032-biphenyl]-2-yl)phosphine", "2-(Di-tert-butylphosphino)-2\u2032-methyl-1,1\u2032-biphenyl", "2-Di-t-butylphosphino-2\u2032-methylbiphenyl", "t-BuMePhos", "t-BuMePhos"], "SMILES": "P(C(C)(C)C)(C(C)(C)C)C1=C(C=CC=C1)C2=C(C)C=CC=C2", "physical_data": {"Molecular Weight": "312.43", "Molecular Formula": "C21H29P", "Melting Point": "91-92 \u00b0C"}}