{"cas_no": "25594-62-1", "cn_name": "2-\u4e59\u9170\u55b9\u5594\u5549", "en_name": ["1-(2-Quinoxalinyl)ethanone", "Ethanone, 1-(2-quinoxalinyl)-", "Ketone, methyl 2-quinoxalinyl", "1-(2-Quinoxalinyl)ethanone", "2-Acetylquinoxaline", "1-(Quinoxalin-2-yl)ethan-1-one"], "SMILES": "C(C)(=O)C1=NC2=C(N=C1)C=CC=C2", "physical_data": {"Molecular Weight": "172.18", "Molecular Formula": "C10H8N2O", "Melting Point": "77 \u00b0C"}}