{"cas_no": "25597-16-4", "cn_name": "4,4,4-\u4e09\u6c1f\u5df4\u8c46\u9178\u4e59\u916f", "en_name": ["Ethyl (2E)-4,4,4-trifluoro-2-butenoate", "2-Butenoic acid, 4,4,4-trifluoro-, ethyl ester, (2E)-", "2-Butenoic acid, 4,4,4-trifluoro-, ethyl ester, (E)-", "Ethyl (2E)-4,4,4-trifluoro-2-butenoate", "(E)-Ethyl 4,4,4-trifluorobut-2-enoate", "Ethyl (E)-4,4,4-trifluorocrotonate", "Ethyl trans-4,4,4-trifluorocrotonate", "Ethyl trans-4,4,4-trifluoro-2-butenoate"], "SMILES": "C(C=CC(F)(F)F)(OCC)=O", "physical_data": {"Molecular Weight": "168.11", "Molecular Formula": "C6H7F3O2", "Boiling Point": "113-117 \u00b0C"}}