{"cas_no": "256-81-5", "cn_name": "\u4e8c\u82ef\u5e76\u73af\u5e9a\u70ef", "en_name": ["5H-Dibenzo[a,d]cycloheptene", "5H-Dibenzo[a,d]cycloheptene", "Dibenzo[a,e]cycloheptatriene", "Suberene", "2,3:6,7-Dibenzo-4-suberene", "1,2:5,6-Dibenzotropilidene", "2,3:6,7-Dibenzocycloheptatriene", "Dibenzo[a,d]cycloheptatriene", "1,2:5,6-Dibenzocycloheptatriene"], "SMILES": "C1=2C(C=CC=3C(C1)=CC=CC3)=CC=CC2", "physical_data": {"Molecular Weight": "192.26", "Molecular Formula": "C15H12", "Boiling Point": "175-195 \u00b0C @ Press: 20 Torr", "Melting Point": "131 \u00b0C"}}