{"cas_no": "256-96-2", "cn_name": "\u4e9a\u6c28\u57fa\u82aa", "en_name": ["Dibenz[b,f]azepine", "5H-Dibenz[b,f]azepine", "5-Azadibenzo[a,e]cycloheptatriene", "2,2\u2032-Iminostilbene", "Stilbene, 2,2\u2032-imino-", "Iminostilbene", "Dibenzazepine", "Dibenz[b,f]azepine", "5H-Dibenzo[b,f]azepine", "RP 9989", "NSC 123458"], "SMILES": "C1=2C(C=CC=3C(N1)=CC=CC3)=CC=CC2", "physical_data": {"Molecular Weight": "193.24", "Molecular Formula": "C14H11N", "Boiling Point": "150-180 \u00b0C @ Press: 0.1 Torr", "Melting Point": "198 \u00b0C"}}