{"cas_no": "25606-41-1", "cn_name": "\u767e\u7ef4\u5a01", "en_name": ["Propamocarb hydrochloride", "Carbamic acid, N-[3-(dimethylamino)propyl]-, propyl ester, hydrochloride (1:1)", "Carbamic acid, [3-(dimethylamino)propyl]-, propyl ester, monohydrochloride", "SN 66752", "Propamocarb hydrochloride", "Previcur N", "Propyl 3-(dimethylamino)propylcarbamate monohydrochloride", "Previcur Flex", "Gentracur"], "SMILES": "N(C(OCCC)=O)CCCN(C)C.Cl", "physical_data": {"Molecular Weight": "", "Molecular Formula": "C9H20N2O2.ClH", "Melting Point": "50 \u00b0C"}}