{"cas_no": "25601-41-6", "cn_name": "9-DECENOIC ACID METHYL ESTER", "en_name": ["Methyl 9-decenoate", "9-Decenoic acid, methyl ester", "Methyl 9-decenoate"], "SMILES": "C(CCCCCCC=C)C(OC)=O", "physical_data": {"Molecular Weight": "184.28", "Molecular Formula": "C11H20O2", "Boiling Point": "123 \u00b0C @ Press: 21 Torr"}}