{"cas_no": "25608-40-6", "cn_name": "\u805a\u5929\u51ac\u6c28\u9178", "en_name": ["Poly(L-aspartic acid)", "L-Aspartic acid, homopolymer", "Aspartic acid, L-, peptides", "Poly(\u03b2-L-aspartic acid)", "Poly(aspartic acid)", "L-Aspartic acid polymer", "\u03b1,\u03b2-Poly(L-aspartic acid)", "Poly(L-aspartic acid)", "Poly-\u03b2-aspartic acid", "Poly(L-\u03b1-aspartate)", "Poly-L-aspartate", "Aspartic acid homopolymer", "Carpramid", "Amisorb", "SAP 73", "L-Asparaginic acid homopolymer", "S 12-21", "Polyaspartic acid", "GLN 1100"], "SMILES": "C(CC(O)=O)(C(O)=O)N", "physical_data": {"Molecular Weight": "", "Molecular Formula": "(C4H7NO4)x", "Melting Point": "140 \u00b0C (decomp)"}}