{"cas_no": "25611-78-3", "cn_name": "1,2-\u4e8c\u82ef\u57fa\u4e59\u80fa", "en_name": ["1,2-Diphenylethylamine", "Benzeneethanamine, \u03b1-phenyl-", "Ethylamine, 1,2-diphenyl-", "\u03b1-Phenylbenzeneethanamine", "Ethanamine, 1,2-diphenyl-", "1,2-Diphenylethylamine", "\u03b1-Benzylbenzylamine", "1-Amino-1,2-diphenylethane", "(\u00b1)-\u03b1-Phenylphenethylamine", "dl-\u03b1-Benzylbenzylamine", "(\u00b1)-\u03b1,\u03b2-Diphenylethylamine", "DL-1,2-Diphenylethylamine", "(\u00b1)-1,2-Diphenylethylamine", "1,2-Diphenethylamine", "1,2-Diphenylethanamine", "1,2-Diphenylethan-1-amine"], "SMILES": "C(CC1=CC=CC=C1)(N)C2=CC=CC=C2", "physical_data": {"Molecular Weight": "197.28", "Molecular Formula": "C14H15N", "Boiling Point": "311 \u00b0C", "Melting Point": "248-250 \u00b0C"}}