{"cas_no": "25617-97-4", "cn_name": "\u6c2e\u5316\u9553", "en_name": ["Gallium nitride", "Gallium nitride (GaN)", "Gallium mononitride", "Gallium mononitride (GaN)", "Gallium nitride"], "SMILES": "[Ga]#N", "physical_data": {"Molecular Weight": "", "Molecular Formula": "GaN", "Melting Point": "&gt;1427 \u00b0C", "Density": "6.1 g/cm\u00b3"}}