{"cas_no": "25614-03-3", "cn_name": "\u6eb4\u9690\u4ead", "en_name": ["(+)-Bromocriptine", "Ergotaman-3\u2032,6\u2032,18-trione, 2-bromo-12\u2032-hydroxy-2\u2032-(1-methylethyl)-5\u2032-(2-methylpropyl)-, (5\u2032\u03b1)-", "Ergocryptine, 2-bromo-", "Indolo[4,3-fg]quinoline, ergotaman-3\u2032,6\u2032,18-trione deriv.", "8H-Oxazolo[3,2-a]pyrrolo[2,1-c]pyrazine, ergotaman-3\u2032,6\u2032,18-trione deriv.", "(5\u2032\u03b1)-2-Bromo-12\u2032-hydroxy-2\u2032-(1-methylethyl)-5\u2032-(2-methylpropyl)ergotaman-3\u2032,6\u2032,18-trione", "2-Bromo-\u03b1-ergocryptine", "2-Bromo-\u03b1-ergokryptine", "2-Bromoergocryptine", "Bromergocryptine", "Bromocryptine", "Bromocriptine", "Bromocriptin", "\u03b1-Bromoergocryptine", "\u03b1-Bromocryptine", "Bromoergocryptine", "2-Bromoergocriptine", "SAN 15-754", "Sandoz 15-754", "(+)-Bromocriptine", "\u03b1-Ergolactin", "Ergolactin", "MeSH ID: D001971"], "SMILES": "OC12N(C(=O)C(NC(=O)C3C=C4C=5C=6C(CC4N(C)C3)=C(Br)NC6C=CC5)(C(C)C)O1)C(CC(C)C)C(=O)N7C2CCC7", "physical_data": {"Molecular Weight": "654.59", "Molecular Formula": "C32H40BrN5O5", "Melting Point": "215-218 \u00b0C (decomp)"}}