{"cas_no": "2561-85-5", "cn_name": "N-\u5341\u4e8c\u70f7\u57fa\u7425\u73c0\u9178\u9150", "en_name": ["Dodecylsuccinic anhydride", "2,5-Furandione, 3-dodecyldihydro-", "Succinic anhydride, dodecyl-", "3-Dodecyldihydro-2,5-furandione", "Dodecylsuccinic anhydride", "1,2-Tetradecanedicarboxylic anhydride", "n-Dodecylsuccinic anhydride", "Dodecylsuccinic acid anhydride", "NSC 77128", "3-Dodecyloxolane-2,5-dione"], "SMILES": "C(CCCCCCCCCCC)C1CC(=O)OC1=O", "physical_data": {"Molecular Weight": "268.39", "Molecular Formula": "C16H28O3", "Melting Point": "72-74 \u00b0C"}}