{"cas_no": "2562-38-1", "cn_name": "\u785d\u57fa\u73af\u620a\u70f7", "en_name": ["Nitrocyclopentane", "Cyclopentane, nitro-", "Nitrocyclopentane"], "SMILES": "N(=O)(=O)C1CCCC1", "physical_data": {"Molecular Weight": "115.13", "Molecular Formula": "C5H9NO2", "Boiling Point": "76 \u00b0C @ Press: 21 Torr", "Melting Point": "143-144 \u00b0C", "Density": "1.086 g/cm\u00b3 @ Temp: 25 \u00b0C"}}