{"cas_no": "2562-37-0", "cn_name": "1-\u785d\u57fa\u73af\u5df1\u70ef", "en_name": ["1-Nitrocyclohexene", "Cyclohexene, 1-nitro-", "1-Nitrocyclohexene", "1-Nitrocyclohex-1-ene"], "SMILES": "N(=O)(=O)C=1CCCCC1", "physical_data": {"Molecular Weight": "127.14", "Molecular Formula": "C6H9NO2", "Boiling Point": "66.5-68.0 \u00b0C @ Press: 1.5 Torr", "Density": "1.1267 g/cm\u00b3 @ Temp: 20 \u00b0C"}}