{"cas_no": "25637-84-7", "cn_name": "\u4e8c\u6cb9\u9178\u7518\u6cb9\u916f 9C 18:1", "en_name": ["Diolein", "9-Octadecenoic acid (9Z)-, diester with 1,2,3-propanetriol", "Olein, di-", "9-Octadecenoic acid (Z)-, diester with 1,2,3-propanetriol", "Diolein", "Glycerol dioleate", "Glyceryl dioleate", "Oleic acid diglyceride", "Dioleoylglycerol", "DGO 8", "Nikkol DGO 80", "Glycerin dioleate", "Emulsifier TS-PH 008", "Ligalub 12GE", "DAG-18:1/18:1"], "SMILES": "", "physical_data": {"Molecular Weight": "", "Molecular Formula": "C39H72O5", "Melting Point": "12 \u00b0C", "Density": "0.89-0.92 g/cm\u00b3 @ Temp: 50 \u00b0C"}}