{"cas_no": "2563-07-7", "cn_name": "2-\u4e59\u6c27\u57fa-4-\u7532\u57fa\u82ef\u915a", "en_name": ["2-Ethoxy-4-methylphenol", "Phenol, 2-ethoxy-4-methyl-", "p-Cresol, 2-ethoxy-", "2-Ethoxy-4-methylphenol", "2-Ethoxy-p-cresol", "4-Methyl-2-ethoxyphenol", "Ultravanil"], "SMILES": "O(CC)C1=C(O)C=CC(C)=C1", "physical_data": {"Molecular Weight": "152.19", "Molecular Formula": "C9H12O2", "Boiling Point": "107-110 \u00b0C @ Press: 14 Torr", "Melting Point": "34-35 \u00b0C"}}