{"cas_no": "25639-21-8", "cn_name": "\u805a(\u7532\u57fa\u4e19\u70ef\u9178\u5341\u516b\u9178\u916f)", "en_name": ["Poly(octadecyl methacrylate)", "2-Propenoic acid, 2-methyl-, octadecyl ester, homopolymer", "Methacrylic acid, octadecyl ester, polymers", "Poly(n-octadecyl methacrylate)", "Poly(octadecyl methacrylate)", "Poly(stearyl methacrylate)", "Octadecyl methacrylate polymer", "Stearyl methacrylate homopolymer", "Octadecyl methacrylate homopolymer", "Light Ester S homopolymer", "n-Octadecyl methacrylate homopolymer"], "SMILES": "C(CCCCCCCCCCCCCCCC)COC(C(C)=C)=O", "physical_data": {"Molecular Weight": "", "Molecular Formula": "(C22H42O2)x", "Melting Point": "36 \u00b0C"}}