{"cas_no": "25637-99-4", "cn_name": "\u516d\u6eb4\u73af\u5341\u4e8c\u70f7", "en_name": ["Hexabromocyclododecane", "Cyclododecane, hexabromo-", "Hexabromocyclododecane", "Bromkal 73-6CD", "Pyrovatex 3887", "Pyroguard SR 103", "Pyroguard F 800", "Pyroguard SR 103A", "Saytex HBCD", "CD 75", "Saytex HBCD-SF", "CD 75P", "Nicca Fi-None CG 1", "Nicca Fi-None TS 1", "HBCD-LMS", "Saytex HBCD-LM", "HBCD-LM", "YM 88", "Saytex HP 900", "SR 103", "Nicca Fi-None TS 3", "Myflam 11645", "BRE 5300", "Safron 5261", "Pyroguard SR 103HR", "FR 104", "FR 104 (fireproofing agent)", "FR 1206ILM", "HBCD-SP 75", "Saytex HP 900G", "FR-CD", "HP 900G", "SP 75", "Nicca Fi-None TS 88", "HP 900", "FR 1010", "HBCD", "YB 74PS"], "SMILES": "", "physical_data": {"Molecular Weight": "", "Molecular Formula": "C12H18Br6", "Melting Point": "178-183 \u00b0C", "Density": "1.05 g/cm\u00b3"}}