{"cas_no": "25639-42-3", "cn_name": "\u7532\u57fa\u73af\u5df1\u9187", "en_name": ["Methylcyclohexanol", "Cyclohexanol, methyl-", "Methylcyclohexanol", "Hexahydrocresol", "Hexahydromethylphenol", "Methylhexalin"], "SMILES": "", "physical_data": {"Molecular Weight": "", "Molecular Formula": "C7H14O", "Boiling Point": "155-180 \u00b0C", "Melting Point": "-50 \u00b0C", "Density": "0.918-0.925 g/cm\u00b3 @ Temp: 20 \u00b0C"}}