{"cas_no": "2564-06-9", "cn_name": "N-\u82c4\u57fa-2-\u6c2f\u4e59\u9170\u80fa", "en_name": ["N-Benzyl-2-chloroacetamide", "Acetamide, 2-chloro-N-(phenylmethyl)-", "Acetamide, N-benzyl-2-chloro-", "2-Chloro-N-(phenylmethyl)acetamide", "N-Benzylchloroacetamide", "2-Chloro-N-benzylacetamide", "N-Benzyl-2-chloroacetamide", "N-(Chloroacetyl)benzylamine", "NSC 60743", "N-Benzyl-\u03b1-chloroacetamide"], "SMILES": "C(NC(CCl)=O)C1=CC=CC=C1", "physical_data": {"Molecular Weight": "183.63", "Molecular Formula": "C9H10ClNO", "Melting Point": "93.5-94.5 \u00b0C", "Density": "1.1505 g/cm\u00b3 @ Temp: 20 \u00b0C"}}