{"cas_no": "2564-95-6", "cn_name": "N,N-\u4e8c\u7532\u57fa\u7425\u73c0\u9170\u80fa\u9178", "en_name": ["N,N-Dimethylsuccinamic acid", "Butanoic acid, 4-(dimethylamino)-4-oxo-", "Succinamic acid, N,N-dimethyl-", "4-(Dimethylamino)-4-oxobutanoic acid", "N,N-Dimethylsuccinic acid monoamide", "N,N-Dimethylsuccinamic acid", "NSC 46778"], "SMILES": "C(CCC(O)=O)(N(C)C)=O", "physical_data": {"Molecular Weight": "145.16", "Molecular Formula": "C6H11NO3", "Melting Point": "81.6-82.6 \u00b0C"}}