{"cas_no": "2564-02-5", "cn_name": "4-\u6eb4-2-\u6c2f\u4e59\u9170\u82ef\u80fa", "en_name": ["N-(4-Bromophenyl)-2-chloroacetamide", "Acetamide, N-(4-bromophenyl)-2-chloro-", "Acetanilide, 4\u2032-bromo-2-chloro-", "N-(4-Bromophenyl)-2-chloroacetamide", "N-Chloroacetyl-p-bromoaniline", "p-Bromo-2-chloroacetanilide", "2-Chloro-N-(p-bromophenyl)acetamide", "2-Chloro-4\u2032-bromoacetanilide", "N-(4-Bromophenyl)chloroacetamide", "N-(Chloroacetyl)-4-bromoaniline", "NSC 220248", "2-Chloro-N-(4-bromophenyl)acetamide"], "SMILES": "N(C(CCl)=O)C1=CC=C(Br)C=C1", "physical_data": {"Molecular Weight": "248.50", "Molecular Formula": "C8H7BrClNO", "Melting Point": "179-182 \u00b0C"}}