{"cas_no": "256445-66-6", "cn_name": "7BETA-\u7532\u6c27\u57fa\u8c46\u753e-5-\u70ef-3BETA-\u9187", "en_name": ["(3\u03b2,7\u03b2)-7-Methoxystigmast-5-en-3-ol", "Stigmast-5-en-3-ol, 7-methoxy-, (3\u03b2,7\u03b2)-", "(3\u03b2,7\u03b2)-7-Methoxystigmast-5-en-3-ol", "Schleicheol 1", "7\u03b2-Methoxystigmast-5-en-3\u03b2-ol"], "SMILES": "O(C)C1C2C(C3(C)C(=C1)CC(O)CC3)CCC4(C)C2CCC4C(CCC(C(C)C)CC)C", "physical_data": {"Molecular Weight": "444.73", "Molecular Formula": "C30H52O2", "Melting Point": "82-88 \u00b0C"}}