{"cas_no": "2564-83-2", "cn_name": "2,2,6,6-\u56db\u7532\u57fa\u54cc\u5576\u6c27\u5316\u7269", "en_name": ["Tempo", "1-Piperidinyloxy, 2,2,6,6-tetramethyl-", "Piperidinooxy, 2,2,6,6-tetramethyl-", "2,2,6,6-Tetramethyl-1-piperidinyloxy", "1,1,5,5-Tetramethylpentamethylene nitroxide", "2,2,6,6-Tetramethylpiperidinooxy", "2,2,6,6-Tetramethylpiperidine-1-oxyl", "2,2,6,6-Tetramethylpiperidine N-oxyl", "2,2,6,6-Tetramethylpiperidin-1-oxy", "2,2,6,6-Tetramethylpiperidinooxy radical", "2,2,6,6-Tetramethylpiperidinoxyl radical", "Tanane", "Tanan", "2,2,6,6-Tetramethylpiperidine N-oxide radical", "2,2,6,6-Tetramethylpiperidine N-oxyl radical", "2,2,6,6-Tetramethylpiperidinoxyl", "2,2,6,6-Tetramethyl-1-piperadoxyl", "2,2,6,6-Tetramethylpiperidoxyl", "2,2,6,6-Tetramethylpiperidinyloxy", "2,2,6,6-Tetramethylpiperidinyl-N-oxy", "1-Oxyl-2,2,6,6-tetramethylpiperidine", "2,2,6,6-Tetramethyl-1-piperidinoxyl", "2,2,6,6-Tetramethyl-1-oxylpiperidine", "2,2,6,6-Tetramethylpiperidinooxyl", "2,2,6,6-Tetramethylpiperidinyl-1-oxyl", "2,2,6,6-Tetramethylpiperidine nitroxide", "2,2,6,6-Tetramethyl-1-piperidyloxy", "2,2,6,6-Tetramethylpiperidine nitroxide radical", "Tempo", "2,2,6,6-Tetramethylpiperidinyl 1-oxide", "2,2,6,6-Tetramethylpiperidin-1-oxyl radical", "HO 6", "2,2,6,6-Tetramethylpiperidino-1-oxy", "2,2,6,6-Tetramethylpiperidin-N-oxyl", "2,2,6,6-Tetramethylpiperidine N-oxy", "2,2,6,6-Tetramethylpiperidine N-oxide", "2,2,6,6-Tetramethylpiperidine oxide", "TMPO", "2,2,6,6-Tetramethyl-1-piperidine-N-oxyl", "2,2,6,6-Tetramethylpiperidinoxy", "T 3751"], "SMILES": "[O]N1C(C)(C)CCCC1(C)C", "physical_data": {"Molecular Weight": "", "Molecular Formula": "C9H18NO", "Melting Point": "35 \u00b0C"}}