{"cas_no": "25641-99-0", "cn_name": "\u0391,\u0391,\u0391',\u0391'-\u56db\u6c2f\u90bb\u4e8c\u7532\u82ef", "en_name": ["1,2-Bis(dichloromethyl)benzene", "Benzene, 1,2-bis(dichloromethyl)-", "o-Xylene, \u03b1,\u03b1,\u03b1\u2032,\u03b1\u2032-tetrachloro-", "1,2-Bis(dichloromethyl)benzene", "\u03b1,\u03b1,\u03b1\u2032,\u03b1\u2032-Tetrachloro-o-xylene"], "SMILES": "C(Cl)(Cl)C1=C(C(Cl)Cl)C=CC=C1", "physical_data": {"Molecular Weight": "243.95", "Molecular Formula": "C8H6Cl4", "Melting Point": "90 \u00b0C"}}