{"cas_no": "256431-72-8", "cn_name": "(E)-3-[2-\u73af\u4e19\u57fa-4-(4-\u6c1f\u82ef\u57fa)-3-\u55b9\u5549\u57fa]-2-\u4e19\u70ef\u8148", "en_name": ["(2E)-3-[2-Cyclopropyl-4-(4-fluorophenyl)-3-quinolinyl]-2-propenenitrile", "2-Propenenitrile, 3-[2-cyclopropyl-4-(4-fluorophenyl)-3-quinolinyl]-, (2E)-", "(2E)-3-[2-Cyclopropyl-4-(4-fluorophenyl)-3-quinolinyl]-2-propenenitrile"], "SMILES": "C(=CC#N)C1=C(C2=C(N=C1C3CC3)C=CC=C2)C4=CC=C(F)C=C4", "physical_data": {"Molecular Weight": "314.36", "Molecular Formula": "C21H15FN2", "Melting Point": "169-172 \u00b0C"}}