{"cas_no": "25658-80-4", "cn_name": "5-\u6c2f\u5432\u54da\u5549", "en_name": ["5-Chloroindoline", "1H-Indole, 5-chloro-2,3-dihydro-", "Indoline, 5-chloro-", "5-Chloro-2,3-dihydro-1H-indole", "5-Chloroindoline", "5-Chloro-2,3-dihydroindole"], "SMILES": "ClC=1C=C2C(=CC1)NCC2", "physical_data": {"Molecular Weight": "153.61", "Molecular Formula": "C8H8ClN", "Boiling Point": "132-135 \u00b0C @ Press: 20 Torr"}}