{"cas_no": "25655-42-9", "cn_name": "BETA-\u73af\u7cca\u7cbe-\u73af\u6c27\u6c2f\u4e19\u70f7\u5171\u805a\u7269", "en_name": ["\u03b2-Cyclodextrin-epichlorohydrin copolymer", "\u03b2-Cyclodextrin, polymer with 2-(chloromethyl)oxirane", "\u03b2-Cyclodextrin, polymer with 1-chloro-2,3-epoxypropane", "\u03b2-Cyclodextrin, polymer with (chloromethyl)oxirane", "Propane, 1-chloro-2,3-epoxy-, polymer with \u03b2-cyclodextrin", "Oxirane, (chloromethyl)-, polymer with \u03b2-cyclodextrin", "2,4,7,9,12,14,17,19,22,24,27,29,32,34-Tetradecaoxaoctacyclo[31.2.2.23,6.28,11.213,16.218,21.223,26.228,31]nonatetracontane, \u03b2-cyclodextrin deriv.", "\u03b2-Cyclodextrin-epichlorohydrin copolymer", "Epichlorohydrin-\u03b2-cyclodextrin copolymer", "CY 2009", "Poly Ringdex B", "\u03b2-Cyclodextrin-epichlorohydrin polymer", "Poly(\u03b2-cyclodextrin-epichlorohydrin)", "\u03b2-Cyclodextrin-chloromethyloxirane copolymer", "\u03b2-Cyclodextrin-epoxy chloropropane copolymer"], "SMILES": "C(Cl)C1CO1.C(O)C1C2C(O)C(O)C(O1)OC3C(CO)OC(C(O)C3O)OC4C(CO)OC(C(O)C4O)OC5C(CO)OC(OC6C(O)C(O)C(OC7C(O)C(O)C(OC8C(O)C(O)C(O2)OC8CO)OC7CO)OC6CO)C(O)C5O", "physical_data": {"Molecular Weight": "", "Molecular Formula": "(C42H70O35.C3H5ClO)x", "Melting Point": "240 \u00b0C (decomp)"}}