{"cas_no": "2565-47-1", "cn_name": "1-\u7532\u57fa\u5df4\u6bd4\u59a5\u9178", "en_name": ["1-Methyl-2,4,6(1H,3H,5H)-pyrimidinetrione", "2,4,6(1H,3H,5H)-Pyrimidinetrione, 1-methyl-", "Barbituric acid, 1-methyl-", "1-Methyl-2,4,6(1H,3H,5H)-pyrimidinetrione", "1-Methylbarbituric acid", "3-Methylbarbituric acid", "N-Methylbarbituric acid", "1-Methylpyrimidine-2,4,6(1H,3H,5H)-trione", "NSC 81440", "1-Methyl-2,4,6-trioxo-hexahydro-pyrimidine", "1-Methyl-pyrimidine-2,4,6-trione", "1-Methyl-1,3-diazinane-2,4,6-trione"], "SMILES": "CN1C(=O)CC(=O)NC1=O", "physical_data": {"Molecular Weight": "142.11", "Molecular Formula": "C5H6N2O3", "Melting Point": "132 \u00b0C"}}