{"cas_no": "25654-31-3", "cn_name": "\u5927\u9ebb\u841c\u915a", "en_name": ["Cannabigerol", "1,3-Benzenediol, 2-[(2E)-3,7-dimethyl-2,6-octadien-1-yl]-5-pentyl-", "Resorcinol, 2-(3,7-dimethyl-2,6-octadienyl)-5-pentyl-, (E)-", "1,3-Benzenediol, 2-(3,7-dimethyl-2,6-octadienyl)-5-pentyl-, (E)-", "Cannabigerol", "1,3-Benzenediol, 2-[(2E)-3,7-dimethyl-2,6-octadienyl]-5-pentyl-", "2-[(2E)-3,7-Dimethyl-2,6-octadien-1-yl]-5-pentyl-1,3-benzenediol", "CBG", "2-((2E)-3,7-Dimethylocta-2,6-dienyl)-5-pentylbenzene-1,3-diol", "(E)-2-(3,7-Dimethylocta-2,6-dien-1-yl)-5-pentylbenzene-1,3-diol", "(E)-2-(3,7-Dimethylocta-2,6-dien-1-yl)-5-pentylbenzene-1,3-diol", "EHP 102"], "SMILES": "C(CCCC)C1=CC(O)=C(CC=C(CCC=C(C)C)C)C(O)=C1", "physical_data": {"Molecular Weight": "316.48", "Molecular Formula": "C21H32O2", "Melting Point": "49-50 \u00b0C"}}