{"cas_no": "2565-58-4", "cn_name": "\u6c2f\u7532\u57fa\u78f7\u9178", "en_name": ["P-(Chloromethyl)phosphonic acid", "Phosphonic acid, P-(chloromethyl)-", "Phosphonic acid, (chloromethyl)-", "P-(Chloromethyl)phosphonic acid", "(Chloromethyl)phosphonate", "(Chloromethyl)phosphonic acid", "Chloromethanephosphonic acid", "Phosphonomethyl chloride", "NSC 30691"], "SMILES": "P(CCl)(=O)(O)O", "physical_data": {"Molecular Weight": "130.47", "Molecular Formula": "CH4ClO3P", "Melting Point": "92 \u00b0C", "Density": "1.467 g/cm\u00b3"}}