{"cas_no": "2566-32-7", "cn_name": "N-\u7532\u57fa\u7f2c\u6c28\u9178", "en_name": ["N-Methylvaline", "Valine, N-methyl-", "DL-Valine, N-methyl-", "N-Methylvaline", "N-Methyl-DL-valine", "3-Methyl-2-(methylamino)butanoic acid"], "SMILES": "C(C(C)C)(C(O)=O)NC", "physical_data": {"Molecular Weight": "131.17", "Molecular Formula": "C6H13NO2", "Melting Point": "300 \u00b0C"}}