{"cas_no": "2566-30-5", "cn_name": "N-\u7532\u57fa-L-\u82ef\u4e19\u6c28\u9178", "en_name": ["N-Methyl-L-phenylalanine", "L-Phenylalanine, N-methyl-", "Alanine, N-methyl-3-phenyl-, L-", "N-Methyl-L-phenylalanine", "N-Methylphenylalanine", "L-N-Methylphenylalanine", "(S)-N-Methylphenylalanine", "N\u03b1-Methyl-L-phenylalanine", "(2S)-2-(Methylamino)-3-phenylpropanoate", "(S)-2-Methylamino-3-phenylpropionic acid", "(S)-2-(Methylamino)-3-phenylpropanoic acid"], "SMILES": "C(C(C(O)=O)NC)C1=CC=CC=C1", "physical_data": {"Molecular Weight": "179.22", "Molecular Formula": "C10H13NO2", "Melting Point": "254-256 \u00b0C"}}