{"cas_no": "2566-20-3", "cn_name": "Z-GLY-GLY-GLY-OH", "en_name": ["N-[(Phenylmethoxy)carbonyl]glycylglycylglycine", "Glycine, N-[(phenylmethoxy)carbonyl]glycylglycyl-", "Glycine, N-[N-(N-carboxyglycyl)glycyl]-, N-benzyl ester", "Glycine, N-[N-[N-[(phenylmethoxy)carbonyl]glycyl]glycyl]-", "N-[(Phenylmethoxy)carbonyl]glycylglycylglycine", "(Benzyloxycarbonyl)glycylglycylglycine", "N-(Carbobenzoxy)glycylglycylglycine", "N-(Benzyloxycarbonyl)triglycine", "Z-Gly-Gly-Gly-OH", "NSC 169175", "NPD 5606", "3,6,9-Trioxo-1-phenyl-2-oxa-4,7,10-triazadodecan-12-oicacid", "2-[[2-[[2-(Phenylmethoxycarbonylamino)acetyl]amino]acetyl]amino]acetic acid"], "SMILES": "C(OC(NCC(NCC(NCC(O)=O)=O)=O)=O)C1=CC=CC=C1", "physical_data": {"Molecular Weight": "323.30", "Molecular Formula": "C14H17N3O6", "Melting Point": "198 \u00b0C"}}