{"cas_no": "2566-23-6", "cn_name": "N-\u82ef\u7532\u9170-L-\u916a\u6c28\u9178", "en_name": ["N-Benzoyl-L-tyrosine", "L-Tyrosine, N-benzoyl-", "Tyrosine, N-benzoyl-, L-", "Tyrosine, N-benzoyl-", "N-Benzoyl-L-tyrosine", "Benzoyltyrosine", "N-Benzoyltyrosine", "(2S)-3-(4-Hydroxyphenyl)-2-(phenylformamido)propanoic acid"], "SMILES": "C(C(NC(=O)C1=CC=CC=C1)C(O)=O)C2=CC=C(O)C=C2", "physical_data": {"Molecular Weight": "285.29", "Molecular Formula": "C16H15NO4", "Melting Point": "164 \u00b0C"}}