{"cas_no": "25660-70-2", "cn_name": "2-\u6c28\u57fa-5-\u4e59\u786b\u57fa1,3,4-\u567b\u4e8c\u5511", "en_name": ["5-(Ethylthio)-1,3,4-thiadiazol-2-amine", "1,3,4-Thiadiazol-2-amine, 5-(ethylthio)-", "1,3,4-Thiadiazole, 2-amino-5-(ethylthio)-", "5-(Ethylthio)-1,3,4-thiadiazol-2-amine", "2-Amino-5-ethylthio-1,3,4-thiadiazole", "5-Amino-2-(ethylthio)-1,3,4-thiadiazole", "NSC 522480", "2-Amino-5-ethylsulfanyl-1,3,4-thiadiazole"], "SMILES": "S(CC)C=1SC(N)=NN1", "physical_data": {"Molecular Weight": "161.25", "Molecular Formula": "C4H7N3S2", "Melting Point": "136-137 \u00b0C"}}