{"cas_no": "2566-44-1", "cn_name": "\u73af\u4e19\u4e59\u9187", "en_name": ["2-Cyclopropylethanol", "Cyclopropaneethanol", "2-Cyclopropylethanol", "(2-Hydroxyethyl)cyclopropane", "NSC 250975", "2-Cyclopropylethan-1-ol"], "SMILES": "C(CO)C1CC1", "physical_data": {"Molecular Weight": "86.13", "Molecular Formula": "C5H10O", "Boiling Point": "135 \u00b0C"}}