{"cas_no": "2566-39-4", "cn_name": "N-L-gamma-\u8c37\u6c28\u9170-L-\u4eae\u6c28\u9178", "en_name": ["\u03b3-Glutamylleucine", "L-Leucine, L-\u03b3-glutamyl-", "Leucine, N-L-\u03b3-glutamyl-, L-", "L-Leucine, N-L-\u03b3-glutamyl-", "Leucine, N-L-\u03b3-glutamyl-", "L-\u03b3-Glutamyl-L-leucine", "\u03b3-Glutamylleucine", "\u03b3-L-Glutamyl-L-leucine", "N-\u03b3-L-Glutamylleucine", "4: PN: WO2011158590 PAGE: 34 claimed sequence", "26: PN: CN107114752 PAGE: 2 claimed sequence"], "SMILES": "C(NC(CCC(C(O)=O)N)=O)(CC(C)C)C(O)=O", "physical_data": {"Molecular Weight": "260.29", "Molecular Formula": "C11H20N2O5", "Melting Point": "185 \u00b0C"}}