{"cas_no": "25660-71-3", "cn_name": "2-\u82c4\u57fa\u786b\u4ee3-5-\u6c28\u57fa-1,3,4-\u567b\u4e8c\u5511", "en_name": ["5-[(Phenylmethyl)thio]-1,3,4-thiadiazol-2-amine", "1,3,4-Thiadiazol-2-amine, 5-[(phenylmethyl)thio]-", "1,3,4-Thiadiazole, 2-amino-5-(benzylthio)-", "5-[(Phenylmethyl)thio]-1,3,4-thiadiazol-2-amine", "2-Amino-5-benzylthio-1,3,4-thiadiazole", "2-Amino-5-benzylthio-1,2,4-thiadiazol", "2-Amino-5-benzylmercapto-1,3,4-thiadiazole", "NSC 204491", "5-Benzylsulfanyl-2-amino-1,3,4-thiadiazole", "5-Amino-2-(benzylthio)-1,3,4-thiadiazole"], "SMILES": "S(CC1=CC=CC=C1)C2=NN=C(N)S2", "physical_data": {"Molecular Weight": "223.32", "Molecular Formula": "C9H9N3S2", "Melting Point": "158 \u00b0C"}}