{"cas_no": "2566-34-9", "cn_name": "2-\u7532\u6c28\u57fa\u5f02\u4e01\u9178", "en_name": ["\u03b1-(Methylamino)isobutyric acid", "Alanine, N,2-dimethyl-", "N,2-Dimethylalanine", "N-Methyl-\u03b1-aminoisobutyric acid", "\u03b1-(Methylamino)isobutyric acid", "2-(N-Methylamino)isobutyric acid", "N-Methyl-2-amino-isobutyric acid", "N-Methyl-2-methylalanine", "2-(Methylamino)isobutyric acid", "2-Methyl-2-(methylamino)propanoic acid"], "SMILES": "C(C(O)=O)(NC)(C)C", "physical_data": {"Molecular Weight": "117.15", "Molecular Formula": "C5H11NO2", "Melting Point": "272 \u00b0C (sublm)"}}