{"cas_no": "2566-22-5", "cn_name": "N-\u82ef\u7532\u9170-L-\u82ef\u4e19\u6c28\u9178", "en_name": ["Benzoyl-L-phenylalanine", "L-Phenylalanine, N-benzoyl-", "Alanine, N-benzoyl-3-phenyl-, L-", "L-Alanine, N-benzoyl-3-phenyl-", "N-Benzoyl-L-phenylalanine", "N-Benzoylphenylalanine", "Benzoyl-L-phenylalanine", "(S)-\u03b1-(Phenylmethyl)hippuric acid", "(S)-N-Benzoylphenylalanine", "(+)-N-Benzoylphenylalanine", "N-Benzoyl-3-phenylalanine", "(S)-2-Benzoylamino-3-phenylpropanoic acid", "L-Bz-Phenylalanine", "NSC 167264", "(2S)-2-(Benzoylamino)-3-phenylpropanoic acid", "(2S)-2-Benzamido-3-phenylpropanoic acid", "(2S)-3-Phenyl-2-(phenylformamido)propanoic acid", "Bz-L-phe-oh"], "SMILES": "C(NC(=O)C1=CC=CC=C1)(CC2=CC=CC=C2)C(O)=O", "physical_data": {"Molecular Weight": "269.30", "Molecular Formula": "C16H15NO3", "Melting Point": "184 \u00b0C (decomp)"}}