{"cas_no": "2566-89-4", "cn_name": "\u82b1\u751f\u56db\u70ef\u9178\u7532\u916f", "en_name": ["Methyl arachidonate", "5,8,11,14-Eicosatetraenoic acid, methyl ester, (5Z,8Z,11Z,14Z)-", "5,8,11,14-Eicosatetraenoic acid, methyl ester, (all-Z)-", "Arachidonic acid, methyl ester", "Methyl all-cis-5,8,11,14-eicosatetraenoate", "Methyl arachidonate", "Methyl cis,cis,cis,cis-eicosa-5,8,11,14-tetraenoate", "Methyl 5Z,8Z,11Z,14Z-eicosatetraenoate"], "SMILES": "C(=CCC=CCC=CCC=CCCCCC)CCCC(OC)=O", "physical_data": {"Molecular Weight": "318.49", "Molecular Formula": "C21H34O2", "Boiling Point": "200-205 \u00b0C @ Press: 1-2 Torr", "Density": "0.9168 g/cm\u00b3 @ Temp: 20 \u00b0C"}}