{"cas_no": "2567-14-8", "cn_name": "1,1,3-\u4e09\u6c2f\u4e19\u70ef", "en_name": ["1,1,3-Trichloro-1-propene", "1-Propene, 1,1,3-trichloro-", "Propene, 1,1,3-trichloro-", "1,1,3-Trichloro-1-propene", "1,1,3-Trichloropropene", "1,3,3-Trichloro-2-propene", "3,3-Dichloroallyl chloride", "HCC 1240za", "HCC-1240za", "HCO-1240za"], "SMILES": "C(=C(Cl)Cl)CCl", "physical_data": {"Molecular Weight": "145.41", "Molecular Formula": "C3H3Cl3", "Boiling Point": "131.5 \u00b0C", "Density": "1.401 g/cm\u00b3 @ Temp: 18 \u00b0C"}}