{"cas_no": "2567-83-1", "cn_name": "\u9ad8\u6c2f\u9178\u56db\u4e59\u57fa\u94f5", "en_name": ["Tetraethylammonium perchlorate", "Ethanaminium, N,N,N-triethyl-, perchlorate (1:1)", "Ammonium, tetraethyl-, perchlorate", "Tetraethylammonium perchlorate", "Ethanaminium, N,N,N-triethyl-, perchlorate", "NSC 220061", "TEAP"], "SMILES": "[N+](CC)(CC)(CC)CC.Cl(=O)(=O)(=O)[O-]", "physical_data": {"Molecular Weight": "", "Molecular Formula": "C8H20N.ClO4", "Melting Point": "&gt;300 \u00b0C"}}