{"cas_no": "2568-90-3", "cn_name": "1,1\u2019-[\u4e9a\u7532\u57fa\u53cc(\u6c27)]\u53cc\u4e01\u70f7", "en_name": ["Dibutoxymethane", "Butane, 1,1\u2032-[methylenebis(oxy)]bis-", "Methane, dibutoxy-", "1,1\u2032-[Methylenebis(oxy)]bis[butane]", "Butylal", "Dibutyl formal", "Formaldehyde dibutyl acetal", "Dibutoxymethane", "NSC 241", "Solvon K 4", "1-(Butoxymethoxy)butane"], "SMILES": "C(OCCCC)OCCCC", "physical_data": {"Molecular Weight": "160.25", "Molecular Formula": "C9H20O2", "Boiling Point": "179.2 \u00b0C", "Melting Point": "-58.1 \u00b0C", "Density": "0.8340 g/cm\u00b3 @ Temp: 20 \u00b0C"}}