{"cas_no": "2568-33-4", "cn_name": "\u5f02\u620a\u4e8c\u9187", "en_name": ["3-Methyl-1,3-butanediol", "1,3-Butanediol, 3-methyl-", "3-Methyl-1,3-butanediol", "2-Methyl-2,4-butanediol", "1,1-Dimethyl-1,3-propanediol", "3-Methyl-1,3-butylene glycol", "3,3-Dimethyl-1,3-propanediol", "Isoprene glycol", "3-Hydroxy-3-methylbutanol", "1,3-Dihydroxy-3-methylbutane", "NSC 62084", "3-Hydroxy-3-methylbutan-1-ol", "Isopentyl diol", "3-Methyl-3-hydroxy-1-butyl alcohol"], "SMILES": "C(C(C)(C)O)CO", "physical_data": {"Molecular Weight": "104.15", "Molecular Formula": "C5H12O2", "Boiling Point": "202.5 \u00b0C", "Density": "0.9867 g/cm\u00b3 @ Temp: 20 \u00b0C"}}