{"cas_no": "25683-07-2", "cn_name": "\u85e4\u9ec4\u7eff\u83cc\u7d20", "en_name": ["Pyoluteorin", "Methanone, (4,5-dichloro-1H-pyrrol-2-yl)(2,6-dihydroxyphenyl)-", "Ketone, 4,5-dichloropyrrol-2-yl 2,6-dihydroxyphenyl", "Pyoluteorin", "(4,5-Dichloro-1H-pyrrol-2-yl)(2,6-dihydroxyphenyl)methanone", "NSC 143092"], "SMILES": "C(=O)(C1=C(O)C=CC=C1O)C2=CC(Cl)=C(Cl)N2", "physical_data": {"Molecular Weight": "272.08", "Molecular Formula": "C11H7Cl2NO3", "Melting Point": "174-175 \u00b0C (decomp)"}}