{"cas_no": "2568-30-1", "cn_name": "\u6c2f\u4e59\u919b\u7f29\u4e59\u4e8c\u9187", "en_name": ["2-(Chloromethyl)-1,3-dioxolane", "1,3-Dioxolane, 2-(chloromethyl)-", "2-(Chloromethyl)-1,3-dioxolane", "2-Chloromethyldioxolane", "Chloroacetaldehyde ethylene glycol", "NSC 319115"], "SMILES": "C(Cl)C1OCCO1", "physical_data": {"Molecular Weight": "122.55", "Molecular Formula": "C4H7ClO2", "Boiling Point": "158 \u00b0C"}}