{"cas_no": "25683-71-0", "cn_name": "\u7279\u7acb\u9f50\u916e", "en_name": ["4,4\u2032-[1,4-Phenylenebis(methylidynenitrilo)]bis[3-isoxazolidinone]", "3-Isoxazolidinone, 4,4\u2032-[1,4-phenylenebis(methylidynenitrilo)]bis-", "3-Isoxazolidinone, 4,4\u2032-[p-phenylenebis(methylidynenitrilo)]di-", "4,4\u2032-[1,4-Phenylenebis(methylidynenitrilo)]bis[3-isoxazolidinone]", "Terizidone", "Terizidon", "B 2360", "Terivalidin"], "SMILES": "N(=CC1=CC=C(C=NC2C(=O)NOC2)C=C1)C3C(=O)NOC3", "physical_data": {"Molecular Weight": "302.29", "Molecular Formula": "C14H14N4O4", "Melting Point": "204-205 \u00b0C"}}