{"cas_no": "2568-25-4", "cn_name": "\u82ef\u7532\u919b\u4e19\u4e8c\u9187\u7f29\u919b", "en_name": ["4-Methyl-2-phenyl-1,3-dioxolane", "1,3-Dioxolane, 4-methyl-2-phenyl-", "4-Methyl-2-phenyl-1,3-dioxolane", "Benzaldehyde propylene glycol acetal", "2-Phenyl-4-methyl-1,3-dioxolane"], "SMILES": "CC1OC(OC1)C2=CC=CC=C2", "physical_data": {"Molecular Weight": "164.20", "Molecular Formula": "C10H12O2", "Boiling Point": "114-116 \u00b0C @ Press: 16 Torr"}}