{"cas_no": "2568-34-5", "cn_name": "N-\u7532\u57fa\u9a6c\u5c3f\u9178", "en_name": ["N-Benzoyl-N-methylglycine", "Glycine, N-benzoyl-N-methyl-", "Hippuric acid, \u03b2-methyl-", "N-Benzoyl-N-methylglycine", "N-Benzoylsarcosine", "Benzoylsarcosine", "N-Methylhippuric acid", "Benzoylmethylglycine", "NSC 122438", "2-[(Benzoyl)(methyl)amino]ethanoic acid", "2-(N-Methylbenzoylamino)acetic acid", "2-[Benzoyl(methyl)amino]acetic acid", "2-(N-Methyl-1-phenylformamido)acetic acid"], "SMILES": "C(N(CC(O)=O)C)(=O)C1=CC=CC=C1", "physical_data": {"Molecular Weight": "193.20", "Molecular Formula": "C10H11NO3", "Melting Point": "103.5-104 \u00b0C (decomp)"}}