{"cas_no": "25700-11-2", "cn_name": "2-(1-\u5421\u5511\u57fa)\u5421\u5576", "en_name": ["2-(1H-Pyrazol-1-yl)pyridine", "Pyridine, 2-(1H-pyrazol-1-yl)-", "Pyridine, 2-pyrazol-1-yl-", "2-(1H-Pyrazol-1-yl)pyridine", "2-(Pyrazol-1-yl)pyridine", "1-(2-Pyridyl)-1H-pyrazole", "1-(Pyridin-2-yl)-1H-pyrazole", "1-(2-Pyridyl)pyrazole"], "SMILES": "N1(C=CC=N1)C2=CC=CC=N2", "physical_data": {"Molecular Weight": "145.16", "Molecular Formula": "C8H7N3", "Melting Point": "&lt;50 \u00b0C"}}