{"cas_no": "2570-26-5", "cn_name": "\u6b63\u5341\u4e94\u80fa", "en_name": ["Pentadecylamine", "1-Pentadecanamine", "Pentadecylamine", "n-Pentadecylamine", "1-Pentadecylamine", "Monopentadecylamine", "1-Aminopentadecane"], "SMILES": "C(CCCCCCCN)CCCCCCC", "physical_data": {"Molecular Weight": "227.43", "Molecular Formula": "C15H33N", "Boiling Point": "307.6 \u00b0C", "Melting Point": "37.3 \u00b0C"}}