{"cas_no": "2571-88-2", "cn_name": "N,N-\u4e8c\u7532\u57fa\u5341\u516b\u70f7\u57fa-N-\u6c27\u5316\u80fa", "en_name": ["Octadecyldimethylamine oxide", "1-Octadecanamine, N,N-dimethyl-, N-oxide", "Octadecylamine, N,N-dimethyl-, N-oxide", "DONO", "N,N-Dimethylstearylamine oxide", "Conco XA 2S", "Dimethylstearylamine oxide", "Ammonyx SO", "N-Stearyldimethylamine N-oxide", "Barlox 18S", "Stearyldimethylamine oxide", "N,N-Dimethyloctadecylamine oxide", "Dimethyloctadecylamine oxide", "N,N-Dimethyl-1-octadecanamine oxide", "Schercamox DMS", "Octadecyldimethylamine oxide", "N,N-Dimethyl-N-octadecylamine oxide", "Octadecyldimethylamine N-oxide", "Admox 18", "Barlox 18", "Admox SC 1885", "Unisafe A-SM", "Nissan Unisafe A-SM", "Aromox DM 18D-M"], "SMILES": "C(CCCCCCCCCCCCCCC)CCN(C)(C)=O", "physical_data": {"Molecular Weight": "313.56", "Molecular Formula": "C20H43NO", "Melting Point": "132-151 \u00b0C"}}