{"cas_no": "2571-54-2", "cn_name": "2,4,6-\u4e09\u7532\u6c27\u57fa\u82ef\u7532\u8148", "en_name": ["2,4,6-Trimethoxybenzonitrile", "Benzonitrile, 2,4,6-trimethoxy-", "2,4,6-Trimethoxybenzonitrile"], "SMILES": "C(#N)C1=C(OC)C=C(OC)C=C1OC", "physical_data": {"Molecular Weight": "193.20", "Molecular Formula": "C10H11NO3", "Melting Point": "142-144 \u00b0C"}}