{"cas_no": "25717-80-0", "cn_name": "\u5417\u591a\u660e", "en_name": ["Molsidomine", "1,2,3-Oxadiazolium, 5-[(ethoxycarbonyl)amino]-3-(4-morpholinyl)-, inner salt", "Sydnone imine, N-carboxy-3-morpholino-, ethyl ester", "Sydnone imine, N-(ethoxycarbonyl)-3-(4-morpholinyl)-", "N-Ethoxycarbonyl-3-morpholinosydnonimine", "N-(Ethoxycarbonyl)-3-morpholinosydnone imine", "Molsidomine", "Morial", "Corvaton", "SIN 10", "SIN 10 (pharmaceutical)", "Sydnopharm", "Corraton", "Morsydomine", "Corvasal", "Molsidolat", "CAS 276", "Motazomin", "Coruno", "Molsicor"], "SMILES": "[N-](C(OCC)=O)C1=C[N+](=NO1)N2CCOCC2", "physical_data": {"Molecular Weight": "", "Molecular Formula": "C9H14N4O4", "Melting Point": "140.5 \u00b0C"}}