{"cas_no": "25713-60-4", "cn_name": "\u4e09(\u4e09\u6eb4\u82ef\u6c27\u57fa)\u4e09\u55ea", "en_name": ["2,4,6-Tris(2,4,6-tribromophenoxy)-1,3,5-triazine", "1,3,5-Triazine, 2,4,6-tris(2,4,6-tribromophenoxy)-", "s-Triazine, 2,4,6-tris(2,4,6-tribromophenoxy)-", "2,4,6-Tris(2,4,6-tribromophenoxy)-1,3,5-triazine", "Tris(2,4,6-tribromophenoxy)-s-triazine", "GX 6145", "Pyroguard SR 245", "SR 245", "FR 245", "FR 245 (flame retardant)", "FR 368", "FR 235", "2,4,6-Tri(2,4,6-tribromophenoxy)-1,3,5-triazine", "BTAC 245", "SR 103"], "SMILES": "O(C1=C(Br)C=C(Br)C=C1Br)C=2N=C(OC3=C(Br)C=C(Br)C=C3Br)N=C(OC4=C(Br)C=C(Br)C=C4Br)N2", "physical_data": {"Molecular Weight": "1067.43", "Molecular Formula": "C21H6Br9N3O3", "Melting Point": "225-235 \u00b0C"}}