{"cas_no": "25712-33-8", "cn_name": "\u53cd-1,2-\u73af\u5df1\u70f7\u4e8c\u7532\u9187", "en_name": ["rel-(1R,2R)-1,2-Cyclohexanedimethanol", "1,2-Cyclohexanedimethanol, (1R,2R)-rel-", "1,2-Cyclohexanedimethanol, trans-", "rel-(1R,2R)-1,2-Cyclohexanedimethanol", "trans-1,2-Cyclohexanedimethanol", "trans-1,2-Bis(hydroxymethyl)cyclohexane", "(1R,2R)-rel-1,2-Cyclohexanedimethanol", "(trans-Cyclohexane-1,2-diyl)dimethanol"], "SMILES": "C(O)C1C(CO)CCCC1", "physical_data": {"Molecular Weight": "144.21", "Molecular Formula": "C8H16O2", "Boiling Point": "130-131 \u00b0C @ Press: 0.5 Torr", "Melting Point": "57 \u00b0C"}}