{"cas_no": "2571-39-3", "cn_name": "3,4-\u4e8c\u7532\u57fa\u4e8c\u82ef\u7532\u916e", "en_name": ["3,4-Dimethylbenzophenone", "Methanone, (3,4-dimethylphenyl)phenyl-", "Benzophenone, 3,4-dimethyl-", "(3,4-Dimethylphenyl)phenylmethanone", "3,4-Dimethylbenzophenone", "NSC 10172"], "SMILES": "C(=O)(C1=CC(C)=C(C)C=C1)C2=CC=CC=C2", "physical_data": {"Molecular Weight": "210.27", "Molecular Formula": "C15H14O", "Boiling Point": "341 \u00b0C", "Melting Point": "47.5 \u00b0C"}}