{"cas_no": "25721-92-0", "cn_name": "\u4e59\u9178\u9567\u6c34\u5408\u7269", "en_name": ["Acetic acid, lanthanum(3+) salt, hydrate (2:3)", "Acetic acid, lanthanum(3+) salt, hydrate (2:3)", "Acetic acid, lanthanum(3+) salt, sesquihydrate", "Lanthanum acetate, sesquihydrate", "Lanthanum triacetate sesquihydrate"], "SMILES": "C(C)(O)=O.[La].O", "physical_data": {"Molecular Weight": "", "Molecular Formula": "C2H4O2.<sup>1</sup>/2H2O.<sup>1</sup>/3La", "Melting Point": "110 \u00b0C (decomp)", "Density": "1.640 g/cm\u00b3"}}