{"cas_no": "25739-41-7", "cn_name": "\u6be1\u6bdb\u7f8e\u6d32\u8336\u7d20", "en_name": ["Velutin", "4H-1-Benzopyran-4-one, 5-hydroxy-2-(4-hydroxy-3-methoxyphenyl)-7-methoxy-", "Flavone, 4\u2032,5-dihydroxy-3\u2032,7-dimethoxy-", "5-Hydroxy-2-(4-hydroxy-3-methoxyphenyl)-7-methoxy-4H-1-benzopyran-4-one", "Flavoyadorigenin B", "Velutin", "4\u2032,5-Dihydroxy-3\u2032,7-dimethoxyflavone", "Luteolin 7,3\u2032-dimethyl ether", "Chrysoeriol 7-methyl ether", "3\u2032,7-Dimethylluteolin", "5,4\u2032-Dihydroxy-7,3\u2032-dimethoxyflavone", "Luteolin 3\u2032,7-dimethyl ether", "7,3\u2032-Di-O-methylluteoline", "DR 9606128", "3\u2032,7-Dimethoxy-4\u2032,5-dihydroxyflavone"], "SMILES": "O=C1C=2C(OC(=C1)C3=CC(OC)=C(O)C=C3)=CC(OC)=CC2O", "physical_data": {"Molecular Weight": "314.29", "Molecular Formula": "C17H14O6", "Melting Point": "298 \u00b0C"}}