{"cas_no": "2574-78-9", "cn_name": "\u963f\u5361\u660e", "en_name": ["Orazamide", "4-Pyrimidinecarboxylic acid, 1,2,3,6-tetrahydro-2,6-dioxo-, compd. with 5-amino-1H-imidazole-4-carboxamide (1:1)", "Orotic acid, compd. with 5-aminoimidazole-4-carboxamide (1:1)", "Orotic acid, compd. with 5(or 4)-aminoimidazole-4(or 5)-carboxamide", "1H-Imidazole-4-carboxamide, 5-amino-, mono(1,2,3,6-tetrahydro-2,6-dioxo-4-pyrimidinecarboxylate)", "4-Amino-5-imidazolecarboxamide orotate", "AICA orotate", "Ba 2757", "Orazamide", "AICA-hepat", "Aicamin", "Orazamid", "Orazamide orotate", "5-Aminoimidazole-4-carboxamide orotate", "Aicorat"], "SMILES": "C(O)(=O)C1=CC(=O)NC(=O)N1.C(N)(=O)C1=C(N)N=CN1", "physical_data": {"Molecular Weight": "", "Molecular Formula": "C5H4N2O4.C4H6N4O", "Melting Point": "284-285 \u00b0C (decomp)"}}