{"cas_no": "2574-25-6", "cn_name": "\u6c2f\u78f7\u9178\u4e8c\u5f02\u4e19\u916f", "en_name": ["Bis(1-methylethyl) phosphorochloridate", "Phosphorochloridic acid, bis(1-methylethyl) ester", "Phosphorochloridic acid, diisopropyl ester", "Isopropyl phosphorochloridate", "Bis(1-methylethyl) phosphorochloridate", "Diisopropyl phosphorochloridate", "Isopropyl phosphorochloridate ((C3H7O)2ClPO)", "Diisopropyl chlorophosphate", "(Chlorodiisopropoxy)phosphine oxide", "Diisopropyl phosphoryl chloride", "2-[Chloro(propan-2-yloxy)phosphoryl]oxypropane"], "SMILES": "O(P(OC(C)C)(Cl)=O)C(C)C", "physical_data": {"Molecular Weight": "200.60", "Molecular Formula": "C6H14ClO3P", "Boiling Point": "95 \u00b0C @ Press: 14 Torr"}}