{"cas_no": "25747-41-5", "cn_name": "4-\u7f9f\u57fa-2-\u5421\u54af\u70f7\u916e", "en_name": ["4-Hydroxy-2-pyrrolidinone", "2-Pyrrolidinone, 4-hydroxy-", "4-Hydroxy-2-pyrrolidinone", "\u03b3-Amino-\u03b2-hydroxybutyric lactam", "\u03b2-Hydroxy-\u03b3-aminobutyrolactam", "4-Hydroxy-2-pyrrolidone", "DL-2-Oxo-4-hydroxypyrrolidine", "(\u00b1)-4-Hydroxypyrrolidone"], "SMILES": "OC1CC(=O)NC1", "physical_data": {"Molecular Weight": "101.10", "Molecular Formula": "C4H7NO2", "Boiling Point": "130-150 \u00b0C @ Press: 0.05-0.1 Torr", "Melting Point": "116-118 \u00b0C"}}