{"cas_no": "2576-47-8", "cn_name": "2-\u6eb4\u4e59\u80fa\u6c22\u6eb4\u9178\u76d0", "en_name": ["2-Bromoethylamine hydrobromide", "Ethanamine, 2-bromo-, hydrobromide (1:1)", "Ethylamine, 2-bromo-, hydrobromide", "Ethanamine, 2-bromo-, hydrobromide", "2-Bromoethylamine hydrobromide", "\u03b2-Bromoethylamine hydrobromide", "2-Aminoethyl bromide hydrobromide", "2-Bromoethylammonium bromide", "1-Amino-2-bromoethane hydrobromide", "2-Bromoethanamine hydrobromide", "2-Bromoethan-1-amine hydrobromide", "2-Bromoethan-1-aminium bromide"], "SMILES": "C(CN)Br.Br", "physical_data": {"Molecular Weight": "", "Molecular Formula": "C2H6BrN.BrH", "Melting Point": "168 \u00b0C"}}