{"cas_no": "2577-46-0", "cn_name": "L-\u5f02\u4eae\u6c28\u9178\u7532\u916f", "en_name": ["L-Isoleucine, methyl ester", "L-Isoleucine, methyl ester", "Isoleucine, methyl ester, L-", "Isoleucine methyl ester", "Methyl L-isoleucinate"], "SMILES": "C(C(CC)C)(C(OC)=O)N", "physical_data": {"Molecular Weight": "145.20", "Molecular Formula": "C7H15NO2", "Boiling Point": "74 \u00b0C @ Press: 11 Torr"}}