{"cas_no": "25775-90-0", "cn_name": "(Z)-\u8fa3\u6912\u7d20", "en_name": ["Zucapsaicin", "6-Nonenamide, N-[(4-hydroxy-3-methoxyphenyl)methyl]-8-methyl-, (6Z)-", "6-Nonenamide, 8-methyl-N-vanillyl-, (Z)-", "6-Nonenamide, N-[(4-hydroxy-3-methoxyphenyl)methyl]-8-methyl-, (Z)-", "(6Z)-N-[(4-Hydroxy-3-methoxyphenyl)methyl]-8-methyl-6-nonenamide", "cis-Capsaicin", "Capsaicin, cis-", "Zucapsaicin", "(Z)-8-Methyl-N-vanillyl-6-nonenamide", "Civamide", "(Z)-Capsaicin"], "SMILES": "C(NC(CCCCC=CC(C)C)=O)C1=CC(OC)=C(O)C=C1", "physical_data": {"Molecular Weight": "305.41", "Molecular Formula": "C18H27NO3", "Melting Point": "70 \u00b0C"}}