{"cas_no": "25777-14-4", "cn_name": "\u805a\u4e01\u4e8c\u9178\u4e59\u4e8c\u9187\u916f", "en_name": ["Butanedioic acid, polymer with 1,4-butanediol", "Butanedioic acid, polymer with 1,4-butanediol", "Succinic acid, polyester with 1,4-butanediol", "1,4-Butanediol, polyester with succinic acid", "1,4-Butanediol, polymer with butanedioic acid", "Poly(tetramethylene succinate)", "1,4-Butanediol-succinic acid polymer", "1,4-Butanediol-succinic acid copolymer", "1,4-Butylene glycol-succinic acid copolymer", "Butylene glycol-succinic acid copolymer", "Succinic acid-1,4-butanediol copolymer", "Butanedioic acid-1,4-butanediol copolymer", "1,4-Butanedioic acid-1,4-butanediol copolymer", "Succinic acid-butylene glycol copolymer", "1,4-Butanediol-1,4-butanedioic acid copolymer"], "SMILES": "C(CC(O)=O)C(O)=O.C(CCO)CO", "physical_data": {"Molecular Weight": "", "Molecular Formula": "(C4H10O2.C4H6O4)x", "Melting Point": "110-115 \u00b0C"}}