{"cas_no": "2577-48-2", "cn_name": "METHYL L-PROLINATE", "en_name": ["(-)-L-Proline methyl ester", "L-Proline, methyl ester", "Proline, methyl ester, L-", "(-)-L-Proline methyl ester", "Methyl (S)-pyrrolidine-2-carboxylate", "Methyl L-prolinate", "(S)-Proline methyl ester", "Methyl (S)-prolinate", "Methyl prolinate", "Methyl (2S)-2-pyrrolidinecarboxylate", "(S)-Pyrrolidine-2-carboxylic acid methyl ester", "Methyl (2S)-pyrrolidine-2-carboxylate"], "SMILES": "C(OC)(=O)C1CCCN1", "physical_data": {"Molecular Weight": "129.16", "Molecular Formula": "C6H11NO2", "Boiling Point": "70 \u00b0C @ Press: 10 Torr", "Melting Point": "151-152 \u00b0C"}}