{"cas_no": "2577-90-4", "cn_name": "L-\u82ef\u4e19\u6c28\u9178\u7532\u916f", "en_name": ["L-Phenylalanine, methyl ester", "L-Phenylalanine, methyl ester", "Alanine, phenyl-, methyl ester, L-", "Phenylalanine methyl ester", "L-\u03b2-Phenyl-\u03b1-alanine methyl ester", "(+)-L-Phenylalanine methyl ester", "Methyl phenylalaninate", "Methyl L-phenylalaninate", "(S)-Phenylalanine methyl ester", "Methyl (S)-phenylalaninate", "O-Methyl-L-phenylalanine", "(S)-Methyl 2-amino-3-phenylpropanoate", "Methyl L-2-amino-3-phenylpropanoate", "Methyl 2-amino-3-phenylpropanoate", "(S)-2-Amino-3-phenylpropionic acid methyl ester", "L-Phenylalanine methyl ester", "Methyl (2S)-2-amino-3-phenylpropanoate"], "SMILES": "C(C(C(OC)=O)N)C1=CC=CC=C1", "physical_data": {"Molecular Weight": "179.22", "Molecular Formula": "C10H13NO2", "Boiling Point": "84 \u00b0C @ Press: 0.25 Torr", "Melting Point": "131-133 \u00b0C"}}