{"cas_no": "2577-40-4", "cn_name": "L-\u82ef\u4e19\u6c28\u9178-L-\u82ef\u4e19\u6c28\u9178", "en_name": ["L-Phenylalanyl-L-phenylalanine", "L-Phenylalanine, L-phenylalanyl-", "Alanine, 3-phenyl-N-(3-phenyl-L-alanyl)-, L-", "L-Phenylalanine, N-L-phenylalanyl-", "Alanine, 3-phenyl-N-3-phenyl-L-alanyl-", "L-Phenylalanyl-L-phenylalanine", "(Phenylalanyl)phenylalanine", "NSC 524136", "21: PN: US20050069551 PAGE: 16 claimed protein", "10: PN: WO2010004535 PAGE: 31 claimed protein", "110: PN: EP2161028 PAGE: 10 claimed protein", "L-Phe-L-Phe-OH", "101: PN: WO2014145242 PAGE: 31 claimed protein", "L,L-Diphenylalanine", "Diphenylalanine", "1: PN: WO2019190333 SEQID: 1 claimed protein", "10: PN: CN112794917 SEQID: 10 claimed protein", "1: PN: CN113005166 PAGE: 2 claimed sequence", "2: PN: CN113105560 SEQID: 2 claimed sequence"], "SMILES": "C(C(NC(C(CC1=CC=CC=C1)N)=O)C(O)=O)C2=CC=CC=C2", "physical_data": {"Molecular Weight": "312.36", "Molecular Formula": "C18H20N2O3", "Melting Point": "131-133 \u00b0C"}}