{"cas_no": "25784-83-2", "cn_name": "(4-\u6c2f\u82ef\u57fa\u786b)\u4e19-2-\u916e", "en_name": ["1-[(4-Chlorophenyl)thio]-2-propanone", "2-Propanone, 1-[(4-chlorophenyl)thio]-", "2-Propanone, 1-[(p-chlorophenyl)thio]-", "2-Propanone, (p-chlorophenylthio)-", "1-[(4-Chlorophenyl)thio]-2-propanone", "p-Chlorophenylthioacetone", "1-(4-Chlorophenylthio)-2-propanone", "(4-Chlorophenylthio)acetone", "NSC 274960", "1-[(4-Chlorophenyl)thio]acetone", "1-(4-Chlorophenyl)sulfanylpropan-2-one", "1-[(4-Chlorophenyl)sulfanyl]propan-2-one"], "SMILES": "S(CC(C)=O)C1=CC=C(Cl)C=C1", "physical_data": {"Molecular Weight": "200.69", "Molecular Formula": "C9H9ClOS", "Boiling Point": "170-173 \u00b0C @ Press: 13 Torr", "Melting Point": "31 \u00b0C"}}