{"cas_no": "2578-33-8", "cn_name": "D-\u8c37\u6c28\u9178-5-\u82c4\u916f", "en_name": ["5-(Phenylmethyl) hydrogen D-glutamate", "D-Glutamic acid, 5-(phenylmethyl) ester", "Glutamic acid, 5-benzyl ester, D-", "5-(Phenylmethyl) hydrogen D-glutamate", "\u03b3-Benzyl D-glutamate", "D-Glutamic acid \u03b3-benzyl ester", "D-Glutamic acid 5-benzyl ester", "(2R)-2-Amino-5-oxo-5-phenylmethoxypentanoic acid"], "SMILES": "C(OC(CCC(C(O)=O)N)=O)C1=CC=CC=C1", "physical_data": {"Molecular Weight": "237.25", "Molecular Formula": "C12H15NO4", "Melting Point": "147-148 \u00b0C"}}