{"cas_no": "25781-92-4", "cn_name": "5-\u6c2f-2-\u785d\u57fa\u8054\u82ef\u80fa", "en_name": ["5-Chloro-2-nitro-N-phenylbenzenamine", "Benzenamine, 5-chloro-2-nitro-N-phenyl-", "Diphenylamine, 5-chloro-2-nitro-", "5-Chloro-2-nitro-N-phenylbenzenamine", "2-Nitro-5-chlorodiphenylamine", "5-Chloro-2-nitrodiphenylamine", "N-(5-Chloro-2-nitrophenyl)phenylamine"], "SMILES": "N(C1=C(N(=O)=O)C=CC(Cl)=C1)C2=CC=CC=C2", "physical_data": {"Molecular Weight": "248.67", "Molecular Formula": "C12H9ClN2O2", "Melting Point": "186-187 \u00b0C"}}