{"cas_no": "2578-58-7", "cn_name": "L-\u7ec4\u6c28\u9170\u7518\u6c28\u9178", "en_name": ["Histidylglycine", "Glycine, L-histidyl-", "Glycine, N-L-histidyl-", "L-Histidylglycine", "Histidylglycine", "N-(L-Histidyl)glycine", "NSC 522626", "153: PN: EP2161028 PAGE: 10 claimed protein", "13: PN: WO2014018423 PAGE: 215 claimed sequence", "7: PN: EP2878667 TABLE: 5 claimed sequence", "(S)-2-(2-Amino-3-(1H-imidazol-4-yl)propanamido)acetic acid", "(S)-2-(2-Amino-3-(1H-imidazol-4-yl)propanamido)aceticacid", "18: PN: WO2021026336 PAGE: 101 claimed sequence", "131: PN: WO2022105914 SEQID: 137 claimed protein"], "SMILES": "C(C(C(NCC(O)=O)=O)N)C1=CN=CN1", "physical_data": {"Molecular Weight": "212.21", "Molecular Formula": "C8H12N4O3", "Melting Point": "167-170 \u00b0C (decomp)"}}