{"cas_no": "2578-84-9", "cn_name": "N-\u82c4\u6c27\u7fb0\u57fa-L-\u82ef\u4e19\u6c28\u9178\u5bf9\u785d\u57fa\u82ef\u916f", "en_name": ["N-[(Phenylmethoxy)carbonyl]-L-phenylalanine 4-nitrophenyl ester", "L-Phenylalanine, N-[(phenylmethoxy)carbonyl]-, 4-nitrophenyl ester", "Alanine, N-carboxy-3-phenyl-, N-benzyl p-nitrophenyl ester, L-", "N-[(Phenylmethoxy)carbonyl]-L-phenylalanine 4-nitrophenyl ester", "p-Nitrophenyl N-carbobenzoxy-L-phenylalaninate", "p-Nitrophenyl N-(benzyloxycarbonyl)-L-2-amino-3-phenylpropionate", "N-(Benzyloxycarbonyl)-L-phenylalanine p-nitrophenyl ester", "N-Carbobenzoxy-L-phenylalanine p-nitrophenyl ester", "N-(Carbobenzoxy)phenylalanine p-nitrophenyl ester", "N-\u03b1-Carbobenzoxy-L-phenylalanine p-nitrophenyl ester", "N-(Benzyloxycarbonyl)phenylalanine 4-nitrophenyl ester", "N-(Benzyloxycarbonyl)phenylalanine p-nitrophenyl ester", "(4-Nitrophenyl) (2S)-3-phenyl-2-(phenylmethoxycarbonylamino)propanoate"], "SMILES": "C(CC1=CC=CC=C1)(C(OC2=CC=C(N(=O)=O)C=C2)=O)NC(OCC3=CC=CC=C3)=O", "physical_data": {"Molecular Weight": "420.41", "Molecular Formula": "C23H20N2O6", "Melting Point": "126-126.5 \u00b0C"}}