{"cas_no": "2578-85-0", "cn_name": "Z-D-PHE-ONP", "en_name": ["N-[(Phenylmethoxy)carbonyl]-D-phenylalanine 4-nitrophenyl ester", "D-Phenylalanine, N-[(phenylmethoxy)carbonyl]-, 4-nitrophenyl ester", "Alanine, N-carboxy-3-phenyl-, N-benzyl p-nitrophenyl ester, D-", "N-[(Phenylmethoxy)carbonyl]-D-phenylalanine 4-nitrophenyl ester", "N-(Benzyloxycarbonyl)-D-phenylalanine p-nitrophenyl ester", "N-(Benzyloxycarbonyl)-D-phenylalanine 4-nitrophenyl ester", "(4-Nitrophenyl) (2R)-3-phenyl-2-(phenylmethoxycarbonylamino)propanoate"], "SMILES": "C(CC1=CC=CC=C1)(C(OC2=CC=C(N(=O)=O)C=C2)=O)NC(OCC3=CC=CC=C3)=O", "physical_data": {"Molecular Weight": "420.41", "Molecular Formula": "C23H20N2O6", "Melting Point": "119-121 \u00b0C"}}