{"cas_no": "2578-45-2", "cn_name": "2-\u6c2f-3,5-\u4e8c\u785d\u57fa\u5421\u5576", "en_name": ["2-Chloro-3,5-dinitropyridine", "Pyridine, 2-chloro-3,5-dinitro-", "2-Chloro-3,5-dinitropyridine", "3,5-Dinitro-2-chloropyridine"], "SMILES": "N(=O)(=O)C=1C=C(N(=O)=O)C=NC1Cl", "physical_data": {"Molecular Weight": "203.54", "Molecular Formula": "C5H2ClN3O4", "Melting Point": "64.5 \u00b0C"}}