{"cas_no": "25784-91-2", "cn_name": "2-\u6c2f-5-\u785d\u57fa\u82ef\u7532\u9170\u6c2f", "en_name": ["2-Chloro-5-nitrobenzoyl chloride", "Benzoyl chloride, 2-chloro-5-nitro-", "2-Chloro-5-nitrobenzoyl chloride"], "SMILES": "C(Cl)(=O)C1=CC(N(=O)=O)=CC=C1Cl", "physical_data": {"Molecular Weight": "220.01", "Molecular Formula": "C7H3Cl2NO3", "Melting Point": "60-61 \u00b0C"}}