{"cas_no": "2578-57-6", "cn_name": "H-PRO-GLY-OH", "en_name": ["L-Prolylglycine", "Glycine, L-prolyl-", "Glycine, N-L-prolyl-", "L-Prolylglycine", "45: PN: WO03052099 PAGE: 84 claimed protein", "NSC 89175", "103: PN: EP2161028 PAGE: 10 claimed protein", "1: PN: KR20100018632 PAGE: 3 claimed protein", "2: PN: WO2010117786 PAGE: 166 claimed protein", "6: PN: WO2014063098 TABLE: 5 claimed protein", "42: PN: US20130123467 SEQID: 47 claimed protein", "19: PN: WO2015153838 PAGE: 89 claimed sequence", "84: PN: WO2017078631 PAGE: 50 claimed protein", "3: PN: US20180142240 PAGE: 82 claimed sequence", "2: PN: CN108148117 PAGE: 2 claimed sequence", "8: PN: JP2019112401 FIGURE: 2 claimed sequence", "2-[[(2S)-Pyrrolidin-1-ium-2-carbonyl]amino]acetate", "2-[(2S)-Pyrrolidin-2-ylformamido]acetic acid"], "SMILES": "C(NCC(O)=O)(=O)C1CCCN1", "physical_data": {"Molecular Weight": "172.18", "Molecular Formula": "C7H12N2O3", "Melting Point": "236 \u00b0C"}}