{"cas_no": "2579-20-6", "cn_name": "1,3-\u73af\u5df1\u4e8c\u7532\u80fa", "en_name": ["1,3-Bis(aminomethyl)cyclohexane", "1,3-Cyclohexanedimethanamine", "1,3-Cyclohexanebis(methylamine)", "1,3-Di(aminomethyl)cyclohexane", "1,3-Bis(aminomethyl)cyclohexane", "m-Bis(aminomethyl)cyclohexane", "[[3-(Aminomethyl)cyclohexyl]methyl]amine", "1,3-Bis(methylamine)cyclohexane", "1,3-BAC", "B 2413", "Baxxodur EC 2120", "Hydrogenated m-xylylenediamine", "[3-(Aminomethyl)cyclohexyl]methanamine", "1,3-Cyclohexanedimethylamine", "Daitocurar B 2413", "Hydrogenated m-XDA"], "SMILES": "C(N)C1CC(CN)CCC1", "physical_data": {"Molecular Weight": "142.24", "Molecular Formula": "C8H18N2", "Boiling Point": "220 \u00b0C", "Melting Point": "&lt;-70 \u00b0C"}}