{"cas_no": "2579-22-8", "cn_name": "\u82ef\u4e19\u7094\u919b", "en_name": ["Phenylpropynal", "2-Propynal, 3-phenyl-", "Propiolaldehyde, phenyl-", "3-Phenyl-2-propynal", "Benzenepropiolaldehyde", "Phenylpropargylaldehyde", "Phenylpropynal", "3-Phenylpropynal", "Phenylpropiolaldehyde", "Phenylacetylenecarboxaldehyde", "Formylphenylacetylene", "3-Phenyl-2-propyn-1-al", "NSC 47568", "3-Phenyl-2-propiolaldehyde", "3-Phenylpropiolaldehyde"], "SMILES": "C(#CC=O)C1=CC=CC=C1", "physical_data": {"Molecular Weight": "130.14", "Molecular Formula": "C9H6O", "Boiling Point": "114-117 \u00b0C @ Press: 17 Torr", "Melting Point": "139-140 \u00b0C (decomp)", "Density": "1.0622 g/cm\u00b3 @ Temp: 20 \u00b0C"}}