{"cas_no": "25791-20-2", "cn_name": "\u6b63\u5341\u56db\u70f7\u57fa\u4e09\u82ef\u57fa\u6eb4\u5316\u81a6", "en_name": ["Tetradecyltriphenylphosphonium bromide", "Phosphonium, triphenyltetradecyl-, bromide (1:1)", "Phosphonium, triphenyltetradecyl-, bromide", "Triphenyltetradecylphosphonium bromide", "Tetradecyltriphenylphosphonium bromide", "TDTPPB", "Myristyltriphenyl phosphonium bromide"], "SMILES": "[P+](CCCCCCCCCCCCCC)(C1=CC=CC=C1)(C2=CC=CC=C2)C3=CC=CC=C3.[Br-]", "physical_data": {"Molecular Weight": "", "Molecular Formula": "C32H44P.Br", "Melting Point": "97 \u00b0C"}}