{"cas_no": "25790-35-6", "cn_name": "1-(2-\u7ce0\u9170)-1,3-\u4e01\u4e8c\u916e", "en_name": ["1-(2-Furanyl)-1,3-butanedione", "1,3-Butanedione, 1-(2-furanyl)-", "1,3-Butanedione, 1-(2-furyl)-", "1-(2-Furanyl)-1,3-butanedione", "2-Furoylacetone", "1-(2-Furyl)-1,3-butanedione", "2-(1,3-Dioxobutyl)furan", "1-(Furan-2-yl)-1,3-dioxobutane"], "SMILES": "C(CC(C)=O)(=O)C1=CC=CO1", "physical_data": {"Molecular Weight": "152.15", "Molecular Formula": "C8H8O3", "Boiling Point": "110-115 \u00b0C @ Press: 15 Torr"}}