{"cas_no": "2580-77-0", "cn_name": "2,2\u2019-\u78fa\u9170\u57fa\u53cc\u4e59\u9187", "en_name": ["\u03b2-Hydroxyethyl sulfone", "Ethanol, 2,2\u2032-sulfonylbis-", "Ethanol, 2,2\u2032-sulfonyldi-", "2,2\u2032-Sulfonylbis[ethanol]", "Bis(2-hydroxyethyl) sulfone", "\u03b2,\u03b2\u2032-Dihydroxyethyl sulfone", "Bis(\u03b2-hydroxyethyl) sulfone", "\u03b2-Hydroxyethyl sulfone", "2,2\u2032-Sulfonyldi[ethanol]", "BHES 50", "Thiodiglycol sulfone", "NSC 32716", "NSC 50845", "2-(2-Hydroxyethylsulfonyl)ethanol", "2-(2-Hydroxyethanesulfonyl)ethan-1-ol"], "SMILES": "S(CCO)(CCO)(=O)=O", "physical_data": {"Molecular Weight": "154.18", "Molecular Formula": "C4H10O4S", "Melting Point": "58.1 \u00b0C"}}