{"cas_no": "25804-49-3", "cn_name": "4-\u7f9f\u57fa\u82ef\u7532\u9178\u53d4\u4e01\u916f", "en_name": ["1,1-Dimethylethyl 4-hydroxybenzoate", "Benzoic acid, 4-hydroxy-, 1,1-dimethylethyl ester", "Benzoic acid, p-hydroxy-, tert-butyl ester", "1,1-Dimethylethyl 4-hydroxybenzoate", "tert-Butyl 4-hydroxybenzoate", "p-Hydroxybenzoic acid tert-butyl ester", "4-(tert-Butoxycarbonyl)phenol", "tert-Butyl p-hydroxybenzoate", "4-Hydroxybenzoic acid tert-butyl ester"], "SMILES": "C(OC(C)(C)C)(=O)C1=CC=C(O)C=C1", "physical_data": {"Molecular Weight": "194.23", "Molecular Formula": "C11H14O3", "Melting Point": "130-132 \u00b0C"}}