{"cas_no": "25808-30-4", "cn_name": "\u7532\u6c28\u57fa\u4e59\u8148\u76d0\u9178\u76d0", "en_name": ["Acetonitrile, 2-(methylamino)-, hydrochloride (1:1)", "Acetonitrile, 2-(methylamino)-, hydrochloride (1:1)", "Acetonitrile, (methylamino)-, monohydrochloride", "N-Methylaminoacetonitrile hydrochloride", "(Methylamino)acetonitrile hydrochloride", "(Methylamino)acetonitrile monohydrochloride", "2-(Methylamino)acetonitrile hydrochloride"], "SMILES": "C(C#N)NC.Cl", "physical_data": {"Molecular Weight": "", "Molecular Formula": "C3H6N2.ClH", "Melting Point": "104 \u00b0C"}}