{"cas_no": "2581-69-3", "cn_name": "\u5206\u6563\u6a591", "en_name": ["Disperse Orange 1", "Benzenamine, 4-[2-(4-nitrophenyl)diazenyl]-N-phenyl-", "C.I. Disperse Orange 1", "Benzenamine, 4-[(4-nitrophenyl)azo]-N-phenyl-", "4-[2-(4-Nitrophenyl)diazenyl]-N-phenylbenzenamine", "C.I. 11080", "Acetate Orange 5R", "Acetoquinone Light Orange 4RL", "Celliton Discharge Orange 5RL", "Celliton Fast Orange 5R", "Cilla Fast Orange 5R", "Diacelliton Fast Orange R", "Disperse Orange 5R", "Dispersol Fast Orange A", "Dispersol Orange A", "Dispersol Printing Orange A", "Miketon Fast Orange 5R", "Miketon Polyester Orange 5R", "Palanil Orange 5R", "Reliton Orange 5R", "Resolin Orange 5R", "Serisol Orange 5R", "Setacyl Scarlet P 2G", "Setacyl Scarlet 2GN", "Supracet Scarlet 2G", "Vonteryl Red 4G", "Disperse Orange 1", "4-Anilino-4\u2032-nitroazobenzene", "4-(p-Nitrophenylazo)diphenylamine", "Navilene Orange 5R", "Diacelliton Fast Orange RM/D", "Serilene Orange 5R300", "Dispersol Orange B-A", "Serilene Orange 5R", "4-(4-Nitrophenylazo)diphenylamine", "4-Nitro-4\u2032-(phenylamino)azobenzene", "Akasperse Transfer Orange"], "SMILES": "N(C1=CC=C(N=NC2=CC=C(N(=O)=O)C=C2)C=C1)C3=CC=CC=C3", "physical_data": {"Molecular Weight": "318.33", "Molecular Formula": "C18H14N4O2", "Melting Point": "157.5-158.0 \u00b0C"}}