{"cas_no": "2581-34-2", "cn_name": "4-\u785d\u57fa\u95f4\u7532\u82ef\u915a", "en_name": ["3-Methyl-4-nitrophenol", "Phenol, 3-methyl-4-nitro-", "m-Cresol, 4-nitro-", "3-Methyl-4-nitrophenol", "p-Nitro-m-cresol", "4-Nitro-m-cresol", "2-Nitro-5-hydroxytoluene", "5-Hydroxy-2-nitrotoluene", "4-Nitro-3-methylphenol", "4-Nitro-5-methylphenol", "5-Methyl-4-nitrophenol", "p-Nitro-m-methylphenol", "NSC 69190"], "SMILES": "N(=O)(=O)C1=C(C)C=C(O)C=C1", "physical_data": {"Molecular Weight": "153.14", "Molecular Formula": "C7H7NO3", "Melting Point": "127-129 \u00b0C"}}