{"cas_no": "25813-25-6", "cn_name": "4-\u7f9f\u57fa-3,5-\u4e8c\u6eb4\u5421\u5576", "en_name": ["3,5-Dibromo-4-pyridinol", "4-Pyridinol, 3,5-dibromo-", "3,5-Dibromo-4-pyridinol", "3,5-Dibromo-4-hydroxypyridine", "NSC 203048"], "SMILES": "OC=1C(Br)=CN=CC1Br", "physical_data": {"Molecular Weight": "252.89", "Molecular Formula": "C5H3Br2NO", "Melting Point": "370 \u00b0C (decomp)"}}