{"cas_no": "25812-30-0", "cn_name": "\u5409\u975e\u7f57\u9f50", "en_name": ["Gemfibrozil", "Pentanoic acid, 5-(2,5-dimethylphenoxy)-2,2-dimethyl-", "Valeric acid, 2,2-dimethyl-5-(2,5-xylyloxy)-", "5-(2,5-Dimethylphenoxy)-2,2-dimethylpentanoic acid", "2,2-Dimethyl-5-(2,5-xylyloxy)valeric acid", "Gemfibrozil", "CI 719", "Lopid", "Trialmin 900", "Gevilon", "Decrelip", "Lopizid", "Lipur", "Genlip", "5-[(2,5-Dimethylphenyl)oxy]-2,2-dimethylpentanoic acid", "2,2-Dimethyl-5-(2,5-dimethylphenoxy)pentanoic acid", "MeSH ID: D015248"], "SMILES": "O(CCCC(C(O)=O)(C)C)C1=C(C)C=CC(C)=C1", "physical_data": {"Molecular Weight": "250.33", "Molecular Formula": "C15H22O3", "Boiling Point": "158.5 \u00b0C", "Melting Point": "62 \u00b0C"}}