{"cas_no": "2582-30-1", "cn_name": "\u6c28\u57fa\u80cd\u78b3\u9178\u76d0", "en_name": ["Aminoguanidine bicarbonate", "Carbonic acid, compd. with hydrazinecarboximidamide (1:1)", "Carbonic acid, compd. with aminoguanidine (1:1)", "Guanidine, amino-, hydrogen carbonate", "Guanidine, amino-, bicarbonate", "Guanidine, amino-, carbonate (1:1)", "Hydrazinecarboximidamide, carbonate (1:1)", "Aminoguanidine bicarbonate", "Ba 51-090222", "Aminoguanidinium bicarbonate", "Aminoguanidine hydrogen carbonate", "N1-Aminoguanidine carbonate (1:1)", "Aminoguanidine carbonate (1:1)", "1-Aminoguanidine bicarbonate", "Aminoguanidinium hydrogen carbonate", "NSC 7887", "Aminoguanidinium carbonate", "1-Aminoguanidine hydrogen carbonate"], "SMILES": "C(NN)(=N)N.C(=O)(O)O", "physical_data": {"Molecular Weight": "", "Molecular Formula": "CH6N4.CH2O3", "Melting Point": "171.5-172.5 \u00b0C"}}