{"cas_no": "2583-25-7", "cn_name": "\u70ef\u4e19\u57fa\u4e19\u4e8c\u9178", "en_name": ["2-(2-Propen-1-yl)propanedioic acid", "Propanedioic acid, 2-(2-propen-1-yl)-", "Malonic acid, allyl-", "Propanedioic acid, 2-propenyl-", "2-(2-Propen-1-yl)propanedioic acid", "3-Butene-1,1-dicarboxylic acid", "Allylmalonic acid", "NSC 46718", "2-Allylmalonic acid"], "SMILES": "C(CC=C)(C(O)=O)C(O)=O", "physical_data": {"Molecular Weight": "144.13", "Molecular Formula": "C6H8O4", "Melting Point": "105 \u00b0C"}}