{"cas_no": "25830-77-7", "cn_name": "N-\u90bb\u82ef\u4e8c\u7532\u9170-L-\u8c37\u6c28\u9178\u9150", "en_name": ["N-Phthaloyl-L-glutamic anhydride", "1H-Isoindole-1,3(2H)-dione, 2-[(3S)-tetrahydro-2,6-dioxo-2H-pyran-3-yl]-", "Glutaric anhydride, 2-phthalimido-, L-(-)-", "1H-Isoindole-1,3(2H)-dione, 2-(tetrahydro-2,6-dioxo-2H-pyran-3-yl)-, (S)-", "Glutaric anhydride, 2-phthalimido-, L-", "2-[(3S)-Tetrahydro-2,6-dioxo-2H-pyran-3-yl]-1H-isoindole-1,3(2H)-dione", "L-N-Phthalylglutamic anhydride", "N-Phthaloyl-L-glutamoyl anhydride", "N-Phthaloyl-L-glutamic anhydride", "N-Phthalyl-L-glutamic anhydride", "N-Phthaloyl-L-glutamic acid anhydride", "1H-Isoindole-1,3(2H)-dione 2-[(3S)-tetrahydro-2,6-dioxo-2H-pyran-3-yl]-", "2-[(3S)-2,6-Dioxooxan-3-yl]-2,3-dihydro-1H-isoindole-1,3-dione", "2-[(3S)-2,6-Dioxooxan-3-yl]isoindole-1,3-dione"], "SMILES": "O=C1N(C(=O)C=2C1=CC=CC2)C3C(=O)OC(=O)CC3", "physical_data": {"Molecular Weight": "259.21", "Molecular Formula": "C13H9NO5", "Melting Point": "195-200 \u00b0C"}}