{"cas_no": "25843-45-2", "cn_name": "\u5076\u6c2e\u7532\u70f7", "en_name": ["Diazene, dimethyl-, 1-oxide", "Diazene, dimethyl-, 1-oxide", "Azoxymethane", "NSC 171779"], "SMILES": "N(=NC)(C)=O", "physical_data": {"Molecular Weight": "74.08", "Molecular Formula": "C2H6N2O", "Boiling Point": "98 \u00b0C"}}