{"cas_no": "2584-71-6", "cn_name": "\u987a\u5f0f-4-\u7f9f\u57fa-D-\u812f\u6c28\u9178", "en_name": ["cis-4-Hydroxy-D-proline", "D-Proline, 4-hydroxy-, (4R)-", "Proline, 4-allo-hydroxy-, D-", "D-Proline, 4-hydroxy-, cis-", "(4R)-4-Hydroxy-D-proline", "4-allo-Hydroxy-D-proline", "D-allo-Hydroxyproline", "4-Hydroxy-D-alloproline", "D-allo-4-Hydroxyproline", "(R)-allo-Hydroxyproline", "D-cis-4-Hydroxyproline", "cis-4-Hydroxy-D-proline", "NSC 524341", "(2R,4R)-4-Hydroxypyrrolidine-2-carboxylic acid", "4-(R)-Hydroxypyrrolidine-2-(R)-carboxylic acid", "(2R,4R)-4-Hydroxypyrrolidine-2-carboxylic acid", "(2R,4R)-4-Hydroxyproline"], "SMILES": "C(O)(=O)C1CC(O)CN1", "physical_data": {"Molecular Weight": "131.13", "Molecular Formula": "C5H9NO3", "Melting Point": "240 \u00b0C"}}