{"cas_no": "258506-68-2", "cn_name": "3-\u6c2f-6-\u4e09\u6c1f\u7532\u57fa\u54d2\u55ea", "en_name": ["3-Chloro-6-(trifluoromethyl)pyridazine", "Pyridazine, 3-chloro-6-(trifluoromethyl)-", "3-Chloro-6-(trifluoromethyl)pyridazine"], "SMILES": "C(F)(F)(F)C1=CC=C(Cl)N=N1", "physical_data": {"Molecular Weight": "182.53", "Molecular Formula": "C5H2ClF3N2", "Melting Point": "92-96 \u00b0C"}}