{"cas_no": "2586-96-1", "cn_name": "\u83b2\u5fc3\u78b1", "en_name": ["Liensinine", "Phenol, 4-[[(1R)-1,2,3,4-tetrahydro-6,7-dimethoxy-2-methyl-1-isoquinolinyl]methyl]-2-[[(1R)-1,2,3,4-tetrahydro-1-[(4-hydroxyphenyl)methyl]-6-methoxy-2-methyl-7-isoquinolinyl]oxy]-", "Liensinine", "Phenol, 4-[(1,2,3,4-tetrahydro-6,7-dimethoxy-2-methyl-1-isoquinolinyl)methyl]-2-[[1,2,3,4-tetrahydro-1-[(4-hydroxyphenyl)methyl]-6-methoxy-2-methyl-7-isoquinolinyl]oxy]-, [R-(R*,R*)]-", "4-[[(1R)-1,2,3,4-Tetrahydro-6,7-dimethoxy-2-methyl-1-isoquinolinyl]methyl]-2-[[(1R)-1,2,3,4-tetrahydro-1-[(4-hydroxyphenyl)methyl]-6-methoxy-2-methyl-7-isoquinolinyl]oxy]phenol"], "SMILES": "C(C1C=2C(=CC(OC)=C(OC3=CC(CC4C=5C(=CC(OC)=C(OC)C5)CCN4C)=CC=C3O)C2)CCN1C)C6=CC=C(O)C=C6", "physical_data": {"Molecular Weight": "610.74", "Molecular Formula": "C37H42N2O6", "Melting Point": "95-99 \u00b0C"}}