{"cas_no": "2586-62-1", "cn_name": "1-\u6eb4-2-\u7532\u57fa\u8418", "en_name": ["1-Bromo-2-methylnaphthalene", "Naphthalene, 1-bromo-2-methyl-", "1-Bromo-2-methylnaphthalene", "\u03b2-Methyl-\u03b1-bromonaphthalene", "2-Methyl-1-bromonaphthalene", "NSC 36286"], "SMILES": "BrC=1C2=C(C=CC1C)C=CC=C2", "physical_data": {"Molecular Weight": "221.09", "Molecular Formula": "C11H9Br", "Boiling Point": "165-170 \u00b0C @ Press: 13 Torr"}}