{"cas_no": "2586-89-2", "cn_name": "3-\u5e9a\u7094", "en_name": ["3-Heptyne", "3-Heptyne", "1-Ethyl-2-propylacetylene"], "SMILES": "C(CCC)#CCC", "physical_data": {"Molecular Weight": "96.17", "Molecular Formula": "C7H12", "Boiling Point": "107.2 \u00b0C", "Melting Point": "-130.5 \u00b0C", "Density": "0.7527 g/cm\u00b3 @ Temp: 20 \u00b0C"}}