{"cas_no": "25876-10-2", "cn_name": "\u5e86\u5927\u9709\u7d20C1\u4e94\u4e59\u9178\u916f\u76d0", "en_name": ["Gentamicin C1", "D-Streptamine, O-2-amino-2,3,4,6,7-pentadeoxy-6-(methylamino)-\u03b1-D-ribo-heptopyranosyl-(1\u21924)-O-[3-deoxy-4-C-methyl-3-(methylamino)-\u03b2-L-arabinopyranosyl-(1\u21926)]-2-deoxy-", "Gentamicin C1", "O-2-Amino-2,3,4,6,7-pentadeoxy-6-(methylamino)-\u03b1-D-ribo-heptopyranosyl-(1\u21924)-O-[3-deoxy-4-C-methyl-3-(methylamino)-\u03b2-L-arabinopyranosyl-(1\u21926)]-2-deoxy-D-streptamine"], "SMILES": "O(C1C(O)C(OC2OC(C(NC)C)CCC2N)C(N)CC1N)C3C(O)C(NC)C(C)(O)CO3", "physical_data": {"Molecular Weight": "477.60", "Molecular Formula": "C21H43N5O7", "Melting Point": "94-100 \u00b0C"}}