{"cas_no": "25875-51-8", "cn_name": "1,3-\u53cc(\u5bf9\u6c2f\u82ef\u53c9\u6c28\u57fa)\u80cd\u76d0\u9178\u76d0", "en_name": ["Robenidine", "Carbonimidic dihydrazide, 2,2\u2032-bis[(4-chlorophenyl)methylene]-", "Guanidine, 1,3-bis[(p-chlorobenzylidene)amino]-", "Carbonimidic dihydrazide, bis[(4-chlorophenyl)methylene]-", "Benzaldehyde, p-chloro-, dihydrazone with 1,3-diaminoguanidine", "2,2\u2032-Bis[(4-chlorophenyl)methylene]carbonimidic dihydrazide", "1,3-Bis(p-chlorobenzylideneamino)guanidine", "1,3-Bis(4-chlorobenzylideneamino)guanidine", "Robenidine", "Khimcoccid", "Chimcoccid"], "SMILES": "C(=NNC(NN=CC1=CC=C(Cl)C=C1)=N)C2=CC=C(Cl)C=C2", "physical_data": {"Molecular Weight": "334.20", "Molecular Formula": "C15H13Cl2N5", "Melting Point": "187-188 \u00b0C"}}