{"cas_no": "2587-76-0", "cn_name": "\u4e09\u8f9b\u57fa\u6c2f\u5316\u9521", "en_name": ["Trioctyltin chloride", "Stannane, chlorotrioctyl-", "Trioctyltin chloride", "Tin, chlorotrioctyl-", "Chlorotrioctylstannane", "Chlorotrioctyltin", "Tri-n-octyltin chloride", "NSC 65479", "Trioctylchlorostannane"], "SMILES": "[Sn](CCCCCCCC)(CCCCCCCC)(CCCCCCCC)Cl", "physical_data": {"Molecular Weight": "493.82", "Molecular Formula": "C24H51ClSn", "Boiling Point": "193-198 \u00b0C @ Press: 0.1 Torr"}}