{"cas_no": "25870-62-6", "cn_name": "1-\u82ef\u57fa-2-\u5df1\u916e", "en_name": ["1-Phenyl-2-hexanone", "2-Hexanone, 1-phenyl-", "1-Phenyl-2-hexanone", "Benzyl butyl ketone", "Butyl benzyl ketone", "NSC 15336"], "SMILES": "C(C(CCCC)=O)C1=CC=CC=C1", "physical_data": {"Molecular Weight": "176.25", "Molecular Formula": "C12H16O", "Boiling Point": "130-131 \u00b0C @ Press: 12 Torr", "Density": "0.9630 g/cm\u00b3 @ Temp: 20 \u00b0C"}}