{"cas_no": "25875-50-7", "cn_name": "\u76d0\u9178\u6c2f\u82ef\u80cd", "en_name": ["Robenidine hydrochloride", "Carbonimidic dihydrazide, 2,2\u2032-bis[(4-chlorophenyl)methylene]-, hydrochloride (1:1)", "Guanidine, 1,3-bis[(p-chlorobenzylidene)amino]-, monohydrochloride", "Carbonimidic dihydrazide, bis[(4-chlorophenyl)methylene]-, monohydrochloride", "Robenzidene", "Robenidine hydrochloride", "1,3-Bis[(p-chlorobenzylidene)amino]guanidine monohydrochloride", "Cycostat", "NCL 812", "2,2\u2032-Bis[(4-chlorophenyl)methylene]carbonimidic dihydrazide hydrochloride"], "SMILES": "C(=NNC(NN=CC1=CC=C(Cl)C=C1)=N)C2=CC=C(Cl)C=C2.Cl", "physical_data": {"Molecular Weight": "", "Molecular Formula": "C15H13Cl2N5.ClH", "Melting Point": "289-290 \u00b0C"}}