{"cas_no": "2587-42-0", "cn_name": "4,4'-\u53cc(N-\u5df1\u6c27\u57fa)\u6c27\u5316\u5076\u6c2e\u672c", "en_name": ["Diazene, 1,2-bis[4-(hexyloxy)phenyl]-, 1-oxide", "Diazene, 1,2-bis[4-(hexyloxy)phenyl]-, 1-oxide", "Azoxybenzene, 4,4\u2032-bis(hexyloxy)-", "Diazene, bis[4-(hexyloxy)phenyl]-, 1-oxide", "p,p\u2032-Bis(hexyloxy)azoxybenzene", "p,p\u2032-Dihexyloxyazoxybenzene", "4,4\u2032-Di-n-hexyloxyazoxybenzene", "4,4\u2032-Bis(hexyloxy)azoxybenzene", "4,4\u2032-Dihexyloxyazoxybenzene", "p,p\u2032-Bis(n-hexyloxy)azoxybenzene", "4,4\u2032-Dihexoxyazoxybenzene", "4,4\u2032-Bis(n-hexyloxy)azoxybenzene", "HEXOAB", "NSC 127558"], "SMILES": "N(=N(=O)C1=CC=C(OCCCCCC)C=C1)C2=CC=C(OCCCCCC)C=C2", "physical_data": {"Molecular Weight": "398.54", "Molecular Formula": "C24H34N2O3", "Melting Point": "81 \u00b0C"}}