{"cas_no": "2588-05-8", "cn_name": "\u4e9a\u80fa\u786b\u78f7", "en_name": ["Phorate oxon sulfoxide", "Phosphorothioic acid, O,O-diethyl S-[(ethylsulfinyl)methyl] ester", "Methanethiol, (ethylsulfinyl)-, S-ester with O,O-diethyl phosphorothioate", "Phoratoxon sulfoxide", "Phorate oxon sulfoxide"], "SMILES": "P(SCS(CC)=O)(OCC)(OCC)=O", "physical_data": {"Molecular Weight": "260.31", "Molecular Formula": "C7H17O4PS2", "Boiling Point": "150 \u00b0C @ Press: 0.2 Torr"}}