{"cas_no": "2588-04-7", "cn_name": "\u7532\u62cc\u78f7\u781c", "en_name": ["Phorate sulfone", "Phosphorodithioic acid, O,O-diethyl S-[(ethylsulfonyl)methyl] ester", "Phosphorodithioic acid, O,O-diethyl (ethylsulfonyl)methyl ester", "Methanethiol, (ethylsulfonyl)-, S-ester with O,O-diethyl phosphorodithioate", "O,O-Diethyl S-ethylsulfonylmethyl phosphorodithioate", "O,O-Diethyl S-ethylsulfonylmethyl thionophosphate", "Phorate sulfone"], "SMILES": "P(SCS(CC)(=O)=O)(OCC)(OCC)=S", "physical_data": {"Molecular Weight": "292.38", "Molecular Formula": "C7H17O4PS3", "Boiling Point": "150 \u00b0C @ Press: 0.1 Torr"}}