{"cas_no": "2589-72-2", "cn_name": "4'-\u7f9f\u57fa\u82ef\u5df1\u916e", "en_name": ["1-(4-Hydroxyphenyl)-1-hexanone", "1-Hexanone, 1-(4-hydroxyphenyl)-", "Hexanophenone, 4\u2032-hydroxy-", "Caprophenone, p-hydroxy-", "1-(4-Hydroxyphenyl)-1-hexanone", "4-Hexanoylphenol", "4\u2032-Hydroxyhexanophenone", "4-Caproylphenol", "NSC 402440", "4-Hydroxyphenyl pentyl ketone"], "SMILES": "C(CCCCC)(=O)C1=CC=C(O)C=C1", "physical_data": {"Molecular Weight": "192.25", "Molecular Formula": "C12H16O2", "Boiling Point": "207-208 \u00b0C @ Press: 10 Torr", "Melting Point": "63-64 \u00b0C"}}