{"cas_no": "25895-60-7", "cn_name": "\u6c30\u57fa\u787c\u6c22\u5316\u94a0", "en_name": ["Sodium cyanoborohydride", "Borate(1-), (cyano-\u03baC)trihydro-, sodium (1:1), (T-4)-", "Borate(1-), cyanotrihydro-, sodium", "Borate(1-), (cyano-C)trihydro-, sodium, (T-4)-", "Borate(1-), (cyano-\u03baC)trihydro-, sodium, (T-4)-", "Sodium cyanoborohydride", "Sodium borocyanohydride", "Sodium cyanotrihydroborate", "Sodium cyanotrihydroborate(1-)", "Sodium cyanoboronhydride", "Sodium cyanoboranuide"], "SMILES": "[B+3]([C-]#N)([H-])([H-])[H-].[Na+]", "physical_data": {"Molecular Weight": "", "Molecular Formula": "CH3BN.Na", "Melting Point": "185 \u00b0C"}}