{"cas_no": "2589-57-3", "cn_name": "\u5076\u6c2e\u4e8c\u5f02\u4e01\u9178\u4e8c\u7532\u916f", "en_name": ["1,1\u2032-Dimethyl 2,2\u2032-(1,2-diazenediyl)bis[2-methylpropanoate]", "Propanoic acid, 2,2\u2032-(1,2-diazenediyl)bis[2-methyl-, 1,1\u2032-dimethyl ester", "Propionic acid, 2,2\u2032-azobis[2-methyl-, dimethyl ester", "Propanoic acid, 2,2\u2032-azobis[2-methyl-, dimethyl ester", "1,1\u2032-Dimethyl 2,2\u2032-(1,2-diazenediyl)bis[2-methylpropanoate]", "Dimethyl 2,2\u2032-azobis(isobutyrate)", "Dimethyl azobis(isobutyrate)", "2,2\u2032-Azobis(methyl isobutyrate)", "Dimethyl azodiisobutyrate", "Dimethyl 2,2\u2032-azobis(2-methylpropanoate)", "Dimethyl 2,2\u2032-azodiisobutyrate", "Dimethyl \u03b1,\u03b1\u2032-azo(bisisobutyrate)", "V 601", "Wako 601", "Dimethyl 2,2\u2032-azobis(2-methylpropionate)", "MAIB", "AIBMe", "V 601HP", "Azobis(isobutyric acid) dimethyl ester", "Di-Me 2,2\u2032-azobis(2-methylpropionate)", "2,2\u2032-Azobis(2-methylpropionic acid) dimethyl ester", "V 602", "Dimethyl azobis(2-methylpropionate)"], "SMILES": "C(N=NC(C(OC)=O)(C)C)(C(OC)=O)(C)C", "physical_data": {"Molecular Weight": "230.26", "Molecular Formula": "C10H18N2O4", "Melting Point": "29-31 \u00b0C"}}