{"cas_no": "2589-71-1", "cn_name": "4-\u7f9f\u57fa\u82ef\u620a\u916e", "en_name": ["1-(4-Hydroxyphenyl)-1-pentanone", "1-Pentanone, 1-(4-hydroxyphenyl)-", "Valerophenone, 4\u2032-hydroxy-", "1-(4-Hydroxyphenyl)-1-pentanone", "4-Valerylphenol", "p-Hydroxyvalerophenone", "NSC 49186", "NSC 49321", "4\u2032-Hydroxyvalerophenone"], "SMILES": "C(CCCC)(=O)C1=CC=C(O)C=C1", "physical_data": {"Molecular Weight": "178.23", "Molecular Formula": "C11H14O2", "Boiling Point": "210 \u00b0C @ Press: 15 Torr", "Melting Point": "62-63 \u00b0C"}}