{"cas_no": "259-79-0", "cn_name": "\u8054\u82ef\u70ef", "en_name": ["Biphenylene", "Biphenylene", "Cyclobutadibenzene", "Diphenylene", "Dibenzocyclobutadiene", "NSC 101862"], "SMILES": "C12=C3C(=C1C=CC=C2)C=CC=C3", "physical_data": {"Molecular Weight": "152.19", "Molecular Formula": "C12H8", "Boiling Point": "263.1 \u00b0C", "Melting Point": "110 \u00b0C"}}