{"cas_no": "25905-77-5", "cn_name": "\u7c73\u90a3\u535c\u6797", "en_name": ["Minaprine", "4-Morpholineethanamine, N-(4-methyl-6-phenyl-3-pyridazinyl)-", "N-(4-Methyl-6-phenyl-3-pyridazinyl)-4-morpholineethanamine", "Minaprine", "Mineprine"], "SMILES": "CC=1C=C(N=NC1NCCN2CCOCC2)C3=CC=CC=C3", "physical_data": {"Molecular Weight": "298.38", "Molecular Formula": "C17H22N4O", "Melting Point": "122 \u00b0C"}}