{"cas_no": "25905-14-0", "cn_name": "5-\u7532\u57fa-2-(1-\u7532\u57fa\u4e59\u70ef\u57fa)-4-\u5df1\u70ef-1-\u9187\u4e59\u9178\u916f", "en_name": ["5-Methyl-2-(1-methylethenyl)-4-hexen-1-yl acetate", "4-Hexen-1-ol, 5-methyl-2-(1-methylethenyl)-, 1-acetate", "4-Hexen-1-ol, 2-isopropenyl-5-methyl-, acetate", "4-Hexen-1-ol, 5-methyl-2-(1-methylethenyl)-, acetate", "5-Methyl-2-(1-methylethenyl)-4-hexen-1-yl acetate", "3-Acetoxymethyl-2,6-dimethyl-1,5-heptadiene", "(\u00b1)-Lavandulol acetate", "(\u00b1)-Lavandulyl acetate", "5-Methyl-2-(1-methylethenyl)-4-hexylene-1-ol acetate", "(\u00b1)-2-Isopropenyl-5-methyl-4-hexen-1-yl acetate", "2-Isopropenyl-5-methyl-4-hexen-1-yl acetate"], "SMILES": "C(CC=C(C)C)(COC(C)=O)C(C)=C", "physical_data": {"Molecular Weight": "196.29", "Molecular Formula": "C12H20O2", "Boiling Point": "106-107 \u00b0C @ Press: 13 Torr", "Density": "0.9122 g/cm\u00b3 @ Temp: 17 \u00b0C"}}