{"cas_no": "25906-66-5", "cn_name": "\u5bf9\u5def\u57fa\u5bf9\u82ef\u4e8c\u7532\u9178", "en_name": ["2,5-Dimercapto-1,4-benzenedicarboxylic acid", "1,4-Benzenedicarboxylic acid, 2,5-dimercapto-", "Terephthalic acid, 2,5-dimercapto-", "2,5-Dimercapto-1,4-benzenedicarboxylic acid", "2,5-Dimercaptoterephthalic acid"], "SMILES": "C(O)(=O)C1=C(S)C=C(C(O)=O)C(S)=C1", "physical_data": {"Molecular Weight": "230.26", "Molecular Formula": "C8H6O4S2", "Melting Point": "&gt;387 \u00b0C (decomp)"}}