{"cas_no": "25913-34-2", "cn_name": "\u76d0\u9178\u66ff\u8bfa\u7acb\u5b9a", "en_name": ["Tinoridine hydrochloride", "Thieno[2,3-c]pyridine-3-carboxylic acid, 2-amino-4,5,6,7-tetrahydro-6-(phenylmethyl)-, ethyl ester, hydrochloride (1:1)", "Thieno[2,3-c]pyridine-3-carboxylic acid, 2-amino-6-benzyl-4,5,6,7-tetrahydro-, ethyl ester, monohydrochloride", "Thieno[2,3-c]pyridine-3-carboxylic acid, 2-amino-4,5,6,7-tetrahydro-6-(phenylmethyl)-, ethyl ester, monohydrochloride", "Y-3642 HCl", "2-Amino-3-ethoxycarbonyl-6-benzyl-4,5,6,7-tetrahydrothieno[2,3-c]pyridine hydrochloride", "Tinoridine hydrochloride"], "SMILES": "C(OCC)(=O)C=1C2=C(CN(CC3=CC=CC=C3)CC2)SC1N.Cl", "physical_data": {"Molecular Weight": "", "Molecular Formula": "C17H20N2O2S.ClH", "Melting Point": "234-235 \u00b0C (decomp)"}}