{"cas_no": "2591-76-6", "cn_name": "N,N-\u4e8c\u5f02\u4e01\u57fa\u7532\u9170\u80fa", "en_name": ["N,N-Bis(2-methylpropyl)formamide", "Formamide, N,N-bis(2-methylpropyl)-", "Formamide, N,N-diisobutyl-", "N,N-Bis(2-methylpropyl)formamide", "N,N-Diisobutylformamide"], "SMILES": "N(CC(C)C)(CC(C)C)C=O", "physical_data": {"Molecular Weight": "157.25", "Molecular Formula": "C9H19NO", "Boiling Point": "120 \u00b0C @ Press: 20 Torr"}}