{"cas_no": "2591-86-8", "cn_name": "\u54cc\u5576-1-\u7532\u919b", "en_name": ["1-Piperidinecarboxaldehyde", "1-Piperidinecarboxaldehyde", "Piperidine, 1-formyl-", "N-Formylpiperidine", "Formylpiperidine", "1-Formylpiperidine", "Piperidinoformamide", "NFP", "Formylpiperidide", "N-Piperidinecarboxaldehyde", "NSC 1066", "NSC 404158", "N-Carbaldehyde piperidine", "N,N-Formylpiperidine"], "SMILES": "C(=O)N1CCCCC1", "physical_data": {"Molecular Weight": "113.16", "Molecular Formula": "C6H11NO", "Boiling Point": "222.5 \u00b0C", "Melting Point": "-30.8 \u00b0C", "Density": "1.0198 g/cm\u00b3 @ Temp: 20 \u00b0C"}}