{"cas_no": "25913-05-7", "cn_name": "4-\u6c1f-4'-\u7f9f\u57fa\u4e8c\u82ef\u7532\u916e", "en_name": ["4-Fluoro-4\u2032-hydroxybenzophenone", "Methanone, (4-fluorophenyl)(4-hydroxyphenyl)-", "(4-Fluorophenyl)(4-hydroxyphenyl)methanone", "p-(4-Fluorobenzoyl)phenol", "4-Fluoro-4\u2032-hydroxybenzophenone", "4-(p-Fluorobenzoyl)phenol", "1-(4-Fluorophenyl)-1-(4-hydroxyphenyl)methanone"], "SMILES": "C(=O)(C1=CC=C(F)C=C1)C2=CC=C(O)C=C2", "physical_data": {"Molecular Weight": "216.21", "Molecular Formula": "C13H9FO2", "Melting Point": "168-171 \u00b0C"}}