{"cas_no": "2591-98-2", "cn_name": "\u5432\u54da-3-\u4e59\u919b", "en_name": ["Indole-3-acetaldehyde", "1H-Indole-3-acetaldehyde", "Indole-3-acetaldehyde", "Tryptaldehyde", "Indol-3-ylacetaldehyde", "2-(3-Indolyl)acetaldehyde", "2-(1H-Indol-3-yl)acetaldehyde"], "SMILES": "C(C=O)C=1C=2C(NC1)=CC=CC2", "physical_data": {"Molecular Weight": "159.18", "Molecular Formula": "C10H9NO", "Boiling Point": "120 \u00b0C @ Press: 10-15 Torr"}}