{"cas_no": "25910-85-4", "cn_name": "6-\u4e59\u6c27\u57fa-1-\u7532\u57fa-2-(3-\u785d\u57fa\u82ef\u4e59\u70ef\u57fa)\u55b9\u5549\u786b\u9178\u7532\u916f\u76d0", "en_name": ["Quinolinium, 6-ethoxy-1-methyl-2-[2-(3-nitrophenyl)ethenyl]-, methyl sulfate (1:1)", "Quinolinium, 6-ethoxy-1-methyl-2-[2-(3-nitrophenyl)ethenyl]-, methyl sulfate (1:1)", "Quinolinium, 6-ethoxy-1-methyl-2-(m-nitrostyryl)-, methyl sulfate", "Quinolinium, 6-ethoxy-1-methyl-2-[2-(3-nitrophenyl)ethenyl]-, methyl sulfate", "AF 901"], "SMILES": "S(OC)(=O)(=O)[O-].C[N+]=1C2=C(C=C(OCC)C=C2)C=CC1C=CC3=CC(N(=O)=O)=CC=C3", "physical_data": {"Molecular Weight": "", "Molecular Formula": "C20H19N2O3.CH3O4S", "Melting Point": "259-260 \u00b0C"}}