{"cas_no": "2592-05-4", "cn_name": "\u5432\u54da-3-\u7532\u919b\u809f", "en_name": ["1H-Indole-3-carboxaldehyde, oxime", "1H-Indole-3-carboxaldehyde, oxime", "Indole-3-carboxaldehyde, oxime", "3-Indolaldehyde oxime", "NSC 525800"], "SMILES": "C(=NO)C=1C=2C(NC1)=CC=CC2", "physical_data": {"Molecular Weight": "160.17", "Molecular Formula": "C9H8N2O", "Melting Point": "197-200 \u00b0C"}}