{"cas_no": "2592-95-2", "cn_name": "1-\u7f9f\u57fa\u82ef\u5e76\u4e09\u5511(HOBT)", "en_name": ["1-Hydroxybenzotriazole", "1H-Benzotriazole, 1-hydroxy-", "1-Hydroxy-1H-benzotriazole", "Benzazimidol", "1-Hydroxybenzotriazole", "1-Hydroxy-1,2,3-benzotriazole", "1H-Benzotriazol-1-ol", "N-Hydroxybenzotriazole", "N-Hydroxy-1,2,3-benzotriazole", "1-Benzotriazolol", "HOBt", "1H-Benzo[d][1,2,3]triazol-1-ol", "1-Hydroxy-1H-1,2,3-benzotriazole", "1H-1,2,3-Benzotriazol-1-ol"], "SMILES": "ON1C=2C(=CC=CC2)N=N1", "physical_data": {"Molecular Weight": "135.12", "Molecular Formula": "C6H5N3O", "Melting Point": "110 \u00b0C"}}