{"cas_no": "25922-41-2", "cn_name": "2,6-\u4e8c\u6c2f-3-(\u4e09\u6c1f\u7532\u57fa)\u82ef\u7532\u9178", "en_name": ["2,6-Dichloro-3-(trifluoromethyl)benzoic acid", "Benzoic acid, 2,6-dichloro-3-(trifluoromethyl)-", "m-Toluic acid, 2,6-dichloro-\u03b1,\u03b1,\u03b1-trifluoro-", "2,6-Dichloro-3-(trifluoromethyl)benzoic acid", "2,6-Dichloro-3-trifluoromethylbenzoic acid"], "SMILES": "ClC1=C(C(O)=O)C(Cl)=CC=C1C(F)(F)F", "physical_data": {"Molecular Weight": "259.01", "Molecular Formula": "C8H3Cl2F3O2", "Melting Point": "90-92 \u00b0C"}}