{"cas_no": "2592-18-9", "cn_name": "Boc-L-\u82cf\u6c28\u9178", "en_name": ["N-tert-Butoxycarbonyl-L-threonine", "L-Threonine, N-[(1,1-dimethylethoxy)carbonyl]-", "Threonine, N-carboxy-, N-tert-butyl ester, L-", "Threonine, N-carboxy-, N-tert-butyl ester", "N-[(1,1-Dimethylethoxy)carbonyl]-L-threonine", "N-tert-Butoxycarbonyl-L-threonine", "N-tert-Butyloxycarbonyl-L-threonine", "L-N-(tert-Butoxycarbonyl)threonine", "N-(tert-Butoxycarbonyl)threonine", "N-\u03b1-tert-Butoxycarbonyl-L-threonine", "N-\u03b1-tert-Butoxycarbonylthreonine", "NSC 334305", "N-BOC-L-Threonine", "(2S,3R)-2-(tert-Butoxycarbonylamino)-3-hydroxybutanoic acid", "(2S,3R)-2-tert-Butoxycarbonylamino-3-hydroxybutyric acid", "Boc-L-threonine"], "SMILES": "C(NC(OC(C)(C)C)=O)(C(C)O)C(O)=O", "physical_data": {"Molecular Weight": "219.24", "Molecular Formula": "C9H17NO5", "Melting Point": "79-81 \u00b0C"}}