{"cas_no": "2593-15-9", "cn_name": "\u4e8c\u7532\u57fa\u82ef\u57fa\u4e19\u70ef\u916f", "en_name": ["Etridiazole", "1,2,4-Thiadiazole, 5-ethoxy-3-(trichloromethyl)-", "5-Ethoxy-3-(trichloromethyl)-1,2,4-thiadiazole", "Terrazole", "3-(Trichloromethyl)-5-ethoxy-1,2,4-thiadiazole", "Koban", "Truban", "ETMT", "Aaterra", "Echlomezol", "Echlomezole", "Ethazol", "Etridiazole", "Ethazole (fungicide)", "OM 2424", "Pansoil", "Planvate", "Ethazole", "Estridiazol", "Estridiazole", "Dwell", "Sanyard", "NSC 524929", "Truban 25 EC"], "SMILES": "C(Cl)(Cl)(Cl)C=1N=C(OCC)SN1", "physical_data": {"Molecular Weight": "247.53", "Molecular Formula": "C5H5Cl3N2OS", "Boiling Point": "95 \u00b0C @ Press: 1 Torr", "Melting Point": "19.9 \u00b0C", "Density": "1.503 g/cm\u00b3 @ Temp: 25 \u00b0C"}}