{"cas_no": "25948-11-2", "cn_name": "5-\u785d\u57fa-2-(\u6b63\u4e19\u6c28\u57fa)-\u5421\u5576", "en_name": ["5-Nitro-N-propyl-2-pyridinamine", "2-Pyridinamine, 5-nitro-N-propyl-", "Pyridine, 5-nitro-2-(propylamino)-", "5-Nitro-N-propyl-2-pyridinamine", "2-Propylamino-5-nitropyridine", "5-Nitro-2-(n-propylamino)pyridine"], "SMILES": "N(=O)(=O)C=1C=CC(NCCC)=NC1", "physical_data": {"Molecular Weight": "181.19", "Molecular Formula": "C8H11N3O2", "Melting Point": "97 \u00b0C"}}