{"cas_no": "2595-97-3", "cn_name": "\u963f\u6d1b\u7cd6", "en_name": ["D-Allose", "D-Allose", "Allose, D-", "(2R,3R,4R,5R)-2,3,4,5,6-Pentahydroxyhexanal"], "SMILES": "C(C(C(C=O)O)O)(C(CO)O)O", "physical_data": {"Molecular Weight": "180.16", "Molecular Formula": "C6H12O6", "Melting Point": "128 \u00b0C"}}