{"cas_no": "2595-54-2", "cn_name": "\u82ef\u567b\u8349\u80fa", "en_name": ["Mecarbam", "7-Oxa-5-thia-2-aza-6-phosphanonanoic acid, 6-ethoxy-2-methyl-3-oxo-, ethyl ester, 6-sulfide", "Carbamic acid, (mercaptoacetyl)methyl-, ethyl ester, S-ester with O,O-diethyl phosphorodithioate", "Carbamic acid, (mercaptoacetyl)methyl-, ethyl ester, O,O-diethyl phosphorodithioate", "MS 1053", "MS 1143", "O,O-Diethyl S-(N-ethoxycarbonyl-N-methylcarbamoylmethyl) phosphorodithioate", "O,O-Diethyl S-(N-ethoxycarbonyl-N-methylcarbamoylmethyl) phosphorothiolothionate", "Mecarbam", "Pestan", "Murfotox", "TD 72", "Pennsalt TD 72", "Criotox"], "SMILES": "P(SCC(N(C(OCC)=O)C)=O)(OCC)(OCC)=S", "physical_data": {"Molecular Weight": "329.37", "Molecular Formula": "C10H20NO5PS2", "Boiling Point": "144 \u00b0C @ Press: 0.02 Torr", "Melting Point": "&lt;25 \u00b0C", "Density": "1.222 g/cm\u00b3 @ Temp: 20 \u00b0C"}}