{"cas_no": "25955-51-5", "cn_name": "\u4e59\u9170\u4e19\u916e\u94ca(I)", "en_name": ["Thallium, (2,4-pentanedionato-\u03baO,\u03baO\u2032)-", "Thallium, (2,4-pentanedionato-\u03baO,\u03baO\u2032)-", "Thallium, (2,4-pentanedionato)-", "Thallium, (2,4-pentanedionato-O,O\u2032)-", "Thallium acetoacetonate", "Thallium acetylacetonate", "(Acetylacetonato)thallium", "(2,4-Pentanedionato)thallium", "Thallous acetylacetonate", "Thallium(I) acetylacetonate", "(Acetylacetonato)thallium(I)", "Thallium(1+) acetylacetonate", "NSC 127940"], "SMILES": "CC=1[CH-]C(C)=O[Tl+]O1", "physical_data": {"Molecular Weight": "", "Molecular Formula": "C5H7O2Tl", "Melting Point": "160 \u00b0C (decomp)"}}