{"cas_no": "2595-05-3", "cn_name": "1,2:5,6-\u4e8c\u5f02\u4e9a\u4e19\u57fa-alpha-D-\u5f02\u544b\u5583\u7cd6", "en_name": ["1,2:5,6-Bis-O-(1-methylethylidene)-\u03b1-D-allofuranose", "\u03b1-D-Allofuranose, 1,2:5,6-bis-O-(1-methylethylidene)-", "Allofuranose, 1,2:5,6-di-O-isopropylidene-, \u03b1-D-", "Furo[2,3-d]-1,3-dioxole, \u03b1-D-allofuranose deriv.", "1,2:5,6-Bis-O-(1-methylethylidene)-\u03b1-D-allofuranose", "1,2:5,6-Di-O-isopropylidene-\u03b1-D-allofuranose", "Diacetone-D-allofuranose", "1,2:5,6-Diacetone-D-allofuranose"], "SMILES": "OC1C2C(OC1C3COC(C)(C)O3)OC(C)(C)O2", "physical_data": {"Molecular Weight": "260.28", "Molecular Formula": "C12H20O6", "Melting Point": "75-76 \u00b0C"}}