{"cas_no": "25954-44-3", "cn_name": "\u9f99\u80c6\u4e09\u7cd6", "en_name": ["Gentianose", "\u03b1-D-Glucopyranoside, \u03b2-D-fructofuranosyl O-\u03b2-D-glucopyranosyl-(1\u21926)-", "Gentianose", "\u03b2-D-Fructofuranosyl O-\u03b2-D-glucopyranosyl-(1\u21926)-\u03b1-D-glucopyranoside"], "SMILES": "O(C1(CO)OC(CO)C(O)C1O)C2OC(COC3OC(CO)C(O)C(O)C3O)C(O)C(O)C2O", "physical_data": {"Molecular Weight": "504.44", "Molecular Formula": "C18H32O16", "Melting Point": "207-209 \u00b0C"}}