{"cas_no": "2595-98-4", "cn_name": "D-(+)-\u5854\u6d1b\u7cd6", "en_name": ["D(+)-Talose", "D-Talose", "Talose, D-", "D(+)-Talose", "NSC 224293"], "SMILES": "C(C(C(C=O)O)O)(C(CO)O)O", "physical_data": {"Molecular Weight": "180.16", "Molecular Formula": "C6H12O6", "Melting Point": "128-130 \u00b0C"}}