{"cas_no": "25953-19-9", "cn_name": "\u5934\u5b62\u5511\u5549", "en_name": ["Cefazolin", "5-Thia-1-azabicyclo[4.2.0]oct-2-ene-2-carboxylic acid, 3-[[(5-methyl-1,3,4-thiadiazol-2-yl)thio]methyl]-8-oxo-7-[[2-(1H-tetrazol-1-yl)acetyl]amino]-, (6R,7R)-", "5-Thia-1-azabicyclo[4.2.0]oct-2-ene-2-carboxylic acid, 3-[[(5-methyl-1,3,4-thiadiazol-2-yl)thio]methyl]-8-oxo-7-[2-(1H-tetrazol-1-yl)acetamido]-", "5-Thia-1-azabicyclo[4.2.0]oct-2-ene-2-carboxylic acid, 3-[[(5-methyl-1,3,4-thiadiazol-2-yl)thio]methyl]-8-oxo-7-[(1H-tetrazol-1-ylacetyl)amino]-, (6R-trans)-", "5-Thia-1-azabicyclo[4.2.0]oct-2-ene-2-carboxylic acid, 3-[[(5-methyl-1,3,4-thiadiazol-2-yl)thio]methyl]-8-oxo-7-[(1H-tetrazol-1-ylacetyl)amino]-, (6R,7R)-", "(6R,7R)-3-[[(5-Methyl-1,3,4-thiadiazol-2-yl)thio]methyl]-8-oxo-7-[[2-(1H-tetrazol-1-yl)acetyl]amino]-5-thia-1-azabicyclo[4.2.0]oct-2-ene-2-carboxylic acid", "Cefazolin", "Cephazolin", "7-(1-(1H)-Tetrazolylacetamido)-3-[2-(5-methyl-1,3,4-thiadiazolyl)thiomethyl]-\u03943-cephem-4-carboxylic acid", "CEZ", "7-(1H-Tetrazol-1-ylacetamido)-3-(5-methyl-1,3,4-thiadiazol-2-yl)thiomethyl-3-cephem-4-carboxylic acid", "Cephazoline", "Elzogram", "Cefazoline", "Cephamezine", "Cefamezin", "Cefaprim", "Zinol", "Sefazol", "MeSH ID: D002437"], "SMILES": "C(O)(=O)C=1N2C(C(NC(CN3C=NN=N3)=O)C2=O)SCC1CSC=4SC(C)=NN4", "physical_data": {"Molecular Weight": "454.51", "Molecular Formula": "C14H14N8O4S3", "Melting Point": "198-200 \u00b0C (decomp)"}}