{"cas_no": "2596-47-6", "cn_name": "4-\u4e59\u9170\u6c27\u57fa-3-\u7532\u6c27\u57fa\u8089\u6842\u9178", "en_name": ["3-[4-(Acetyloxy)-3-methoxyphenyl]-2-propenoic acid", "2-Propenoic acid, 3-[4-(acetyloxy)-3-methoxyphenyl]-", "Cinnamic acid, 4-hydroxy-3-methoxy-, acetate", "3-[4-(Acetyloxy)-3-methoxyphenyl]-2-propenoic acid", "3-Methoxy-4-acetoxycinnamic acid", "Acetylferulic acid", "4-Acetoxy-3-methoxycinnamic acid", "Ferulic acid acetate", "4-Acetyloxy-3-methoxycinnamic acid", "3-(4-Acetoxy-3-methoxyphenyl)-2-propenoic acid", "O-Acetylferulic acid", "NSC 16957"], "SMILES": "O(C(C)=O)C1=C(OC)C=C(C=CC(O)=O)C=C1", "physical_data": {"Molecular Weight": "236.22", "Molecular Formula": "C12H12O5", "Melting Point": "196-198 \u00b0C"}}