{"cas_no": "25961-11-9", "cn_name": "3-\u6c2f-5-\u4e59\u9170\u57fa-10,11-\u4e8c\u6c22-5H-\u4e8c\u82ef\u5e76[b,f]\u6c2e\u6742\u5353", "en_name": ["1-(3-Chloro-10,11-dihydro-5H-dibenz[b,f]azepin-5-yl)ethanone", "Ethanone, 1-(3-chloro-10,11-dihydro-5H-dibenz[b,f]azepin-5-yl)-", "5H-Dibenz[b,f]azepine, 5-acetyl-3-chloro-10,11-dihydro-", "1-(3-Chloro-10,11-dihydro-5H-dibenz[b,f]azepin-5-yl)ethanone", "5-Acetyl-3-chloroiminodibenzyl", "5-Acetyl-3-chloro-10,11-dihydro-5H-dibenz[b,f]azepine", "1-(3-Chloro-10,11-dihydrodibenzo[b,f]azepin-5-yl)ethanone", "5-Acetyl-3-chloro-10,11-dihydro-5H-dibenzo[b,f]azepine"], "SMILES": "C(C)(=O)N1C=2C(CCC=3C1=CC=CC3)=CC=C(Cl)C2", "physical_data": {"Molecular Weight": "271.74", "Molecular Formula": "C16H14ClNO", "Melting Point": "126 \u00b0C"}}