{"cas_no": "2597-56-0", "cn_name": "2-\u7532\u6c27\u57fa-4-\u785d\u57fa\u82ef\u7532\u9178", "en_name": ["2-Methoxy-4-nitrobenzoic acid", "Benzoic acid, 2-methoxy-4-nitro-", "o-Anisic acid, 4-nitro-", "2-Methoxy-4-nitrobenzoic acid", "4-Nitro-o-anisic acid", "4-Nitro-2-methoxybenzoic acid", "NSC 229300"], "SMILES": "O(C)C1=C(C(O)=O)C=CC(N(=O)=O)=C1", "physical_data": {"Molecular Weight": "197.14", "Molecular Formula": "C8H7NO5", "Melting Point": "147 \u00b0C"}}