{"cas_no": "25973-55-1", "cn_name": "\u7d2b\u5916\u7ebf\u5438\u6536\u5242 THUV-328", "en_name": ["UV 328", "Phenol, 2-(2H-benzotriazol-2-yl)-4,6-bis(1,1-dimethylpropyl)-", "Phenol, 2-(2H-benzotriazol-2-yl)-4,6-di-tert-pentyl-", "2-(2H-Benzotriazol-2-yl)-4,6-bis(1,1-dimethylpropyl)phenol", "2-(2-Hydroxy-3,5-di-tert-amylphenyl)benzotriazole", "Tinuvin 328", "2-(2-Hydroxy-3,5-di-tert-pentylphenyl)benzotriazole", "2-(2H-Benzotriazol-2-yl)-4,6-di-tert-pentylphenol", "2-(3,5-Di-tert-amyl-2-hydroxyphenyl)benzotriazole", "2-(3\u2032,5\u2032-Di-tert-amyl-2\u2032-hydroxyphenyl)benzotriazole", "2-(2-Hydroxy-3,5-di-tert-amylphenyl)-2H-benzotriazole", "2-(3,5-Di-tert-amyl-2-hydroxyphenyl)-2H-benzotriazole", "Sumisorb 350", "Viosorb 591", "Seesorb 704", "2-(2\u2032-Hydroxy-3\u2032,5\u2032-di-tert-amylphenyl)benzotriazole", "Cyasorb UV 2337", "2-(3,5-Di-tert-pentyl-2-hydroxyphenyl)-2H-benzotriazole", "Kemisorb 74", "Tin 328", "Lowilite 28", "UV 328", "2-(3,5-Di-tert-pentyl-2-hydroxyphenyl)benzotriazole", "Chisorb 328", "UV 74", "Eversorb 74", "UV 2337", "THUV 328", "2-[2-Hydroxy-3,5-bis(1,1-dimethylpropyl)phenyl]-2H-benzotriazole", "Light Stabilizer 328", "Tinuvin PA 238", "2-(Benzotriazol-2-yl)-4,6-bis-(2-methylbutan-2-yl)phenol", "2-(Benzotriazol-2-yl)-4,6-bis-(1,1-dimethyl-propyl)phenol", "EV 74", "Hostavin 3310", "BLS 99-2", "2-(2H-Benzotriazol-2-yl)-4,6-di-tert-amylphenol", "2-(2H-Benzotriazol-2-yl)-4,6-ditertpentylphenol", "2-(2\u2032-Hydroxy-3\u2032,5\u2032-di-tert-amylphenyl)-2H-benzotriazole", "2-(2\u2032-Hydroxy-3\u2032,5\u2032-tert-amylphenyl) benzotriazole", "Chiguard 328", "Chemsorb 328"], "SMILES": "OC1=C(N2N=C3C(=N2)C=CC=C3)C=C(C(CC)(C)C)C=C1C(CC)(C)C", "physical_data": {"Molecular Weight": "351.49", "Molecular Formula": "C22H29N3O", "Melting Point": "86.5-88.0 \u00b0C"}}