{"cas_no": "25979-07-1", "cn_name": "\u53d4\u4e01\u57fa\u4e8c\u6c2f\u5316\u81a6", "en_name": ["tert-Butyldichlorophosphine", "Phosphonous dichloride, P-(1,1-dimethylethyl)-", "Phosphonous dichloride, tert-butyl-", "Phosphonous dichloride, (1,1-dimethylethyl)-", "P-(1,1-Dimethylethyl)phosphonous dichloride", "tert-Butyldichlorophosphine", "tert-Butylphosphonous dichloride", "Dichloro-tert-butylphosphine", "tert-Butylphosphine dichloride", "t-BuPCl2"], "SMILES": "C(P(Cl)Cl)(C)(C)C", "physical_data": {"Molecular Weight": "158.99", "Molecular Formula": "C4H9Cl2P", "Boiling Point": "146-148 \u00b0C", "Melting Point": "44-49 \u00b0C"}}