{"cas_no": "2597-03-7", "cn_name": "\u7a3b\u4e30\u6563", "en_name": ["Phenthoate", "Benzeneacetic acid, \u03b1-[(dimethoxyphosphinothioyl)thio]-, ethyl ester", "Acetic acid, mercaptophenyl-, ethyl ester, S-ester with O,O-dimethyl phosphorodithioate", "Acetic acid, mercaptophenyl-, ethyl ester, S-ester with O,O-dimethyl phosphorodithioate", "Acetic acid, mercaptophenyl-, ethyl ester O,O-dimethyl phosphorodithioate", "Phosphorodithioic acid, O,O-dimethyl ester, S-ester with ethyl mercaptophenylacetate", "Bayer 18,510", "ENT 23438", "Cidial", "Dimephenthoate", "O,O-Dimethyl S-\u03b1-ethoxycarbonylbenzyl phosphorodithioate", "Elsan", "S-\u03b1-Ethoxycarbonylbenzyl dimethyl phosphorothiolothionate", "Papthion", "Phenthoate", "Tsidial", "L 561", "BAY 33051", "S-[\u03b1-(ethoxycarbonyl)benzyl] O,O-dimethyl phosphorodithioate", "Montecatini L 561", "Fenthoate", "Pap", "ENT 27386GC", "Phendal", "Cidemul", "Bayer 18510", "Tagson", "Dhanusan 50", "Shaluosong"], "SMILES": "C(SP(OC)(OC)=S)(C(OCC)=O)C1=CC=CC=C1", "physical_data": {"Molecular Weight": "320.36", "Molecular Formula": "C12H17O4PS2", "Boiling Point": "70-80 \u00b0C @ Press: 5 x 10<sup>-5</sup>-2 Torr", "Melting Point": "17-18 \u00b0C", "Density": "1.226 g/cm\u00b3 @ Temp: 20 \u00b0C"}}