{"cas_no": "25985-57-3", "cn_name": "2-\u8112\u57fa\u786b\u4e59\u78fa\u9178", "en_name": ["2-[(Aminoiminomethyl)thio]ethanesulfonic acid", "Ethanesulfonic acid, 2-[(aminoiminomethyl)thio]-", "Ethanesulfonic acid, 2-(amidinothio)-", "Pseudourea, 2-(2-sulfoethyl)-", "2-[(Aminoiminomethyl)thio]ethanesulfonic acid", "Carbamimidothioic acid, 2-sulfoethyl ester", "2-S-Thiuronium ethanesulfonate", "2-S-Thiuronium ethanesulfonate", "2-(Carbamimidoylthio)ethanesulfonic acid"], "SMILES": "C(CSC(=N)N)S(=O)(=O)O", "physical_data": {"Molecular Weight": "184.24", "Molecular Formula": "C3H8N2O3S2", "Melting Point": "209-270 \u00b0C"}}