{"cas_no": "2598-31-4", "cn_name": "1-(8-\u7f9f\u57fa-5-\u55b9\u5549)\u4e59\u916e", "en_name": ["Quinacetol", "Ethanone, 1-(8-hydroxy-5-quinolinyl)-", "Ketone, 8-hydroxy-5-quinolyl methyl", "1-(8-Hydroxy-5-quinolinyl)ethanone", "5-Acetyloxine", "5-Acetyl-8-hydroxyquinoline", "5-Acetyl-8-quinolinol", "Quinacetol", "NSC 40901", "NSC 523017", "NSC 68447", "1-(8-Hydroxyquinolin-5-yl)ethan-1-one"], "SMILES": "C(C)(=O)C=1C2=C(C(O)=CC1)N=CC=C2", "physical_data": {"Molecular Weight": "187.19", "Molecular Formula": "C11H9NO2", "Melting Point": "113-114 \u00b0C"}}