{"cas_no": "259807-95-9", "cn_name": "2-\u7532\u57fa-6-(\u4e09\u6b63\u4e01\u57fa\u9521)\u5421\u5576", "en_name": ["2-Methyl-6-(tributylstannyl)pyridine", "Pyridine, 2-methyl-6-(tributylstannyl)-", "2-Methyl-6-(tributylstannyl)pyridine", "6-Methylpyridin-2-yltributylstannane", "6-Methyl-2-(tributylstannyl)pyridine", "2-Methyl-6-(tributylstannanyl)pyridine", "2-(Tributylstannyl)-6-methylpyridine", "(6-Methylpyridin-2-yl)tributyltin"], "SMILES": "[Sn](CCCC)(CCCC)(CCCC)C=1N=C(C)C=CC1", "physical_data": {"Molecular Weight": "382.17", "Molecular Formula": "C18H33NSn", "Boiling Point": "145 \u00b0C @ Press: 0.4 mmHg"}}