{"cas_no": "2598-99-4", "cn_name": "\u5341\u516d(\u70f7)\u9178\u5341\u516b(\u70f7)\u916f", "en_name": ["Stearyl palmitate", "Hexadecanoic acid, octadecyl ester", "Palmitic acid, octadecyl ester", "Stearyl palmitate", "Octadecyl hexadecanoate", "Octadecyl palmitate", "Purester 34"], "SMILES": "C(OCCCCCCCCCCCCCCCCCC)(CCCCCCCCCCCCCCC)=O", "physical_data": {"Molecular Weight": "508.90", "Molecular Formula": "C34H68O2", "Melting Point": "59 \u00b0C"}}