{"cas_no": "2598-29-0", "cn_name": "8-\u4e59\u9170\u6c27\u57fa\u55b9\u5549", "en_name": ["8-Acetoxyquinoline", "8-Quinolinol, 8-acetate", "8-Quinolinol, acetate (ester)", "8-Acetoxyquinoline", "O-Acetyl-8-hydroxyquinoline", "8-Quinolyl acetate", "8-Acetyloxyquinoline", "8-Quinolinol acetate", "NSC 508813"], "SMILES": "O(C(C)=O)C=1C2=C(C=CC1)C=CC=N2", "physical_data": {"Molecular Weight": "187.19", "Molecular Formula": "C11H9NO2", "Melting Point": "55.5-56.5 \u00b0C"}}