{"cas_no": "259809-49-9", "cn_name": "6-(\u53d4\u4e01\u6c27\u57fa\u7fb0\u57fa)-5,6,7,8-\u56db\u6c22-1,6-\u8418\u5576-2-\u7fa7\u9178", "en_name": ["6-(1,1-Dimethylethyl) 7,8-dihydro-1,6-naphthyridine-2,6(5H)-dicarboxylate", "1,6-Naphthyridine-2,6(5H)-dicarboxylic acid, 7,8-dihydro-, 6-(1,1-dimethylethyl) ester", "6-(1,1-Dimethylethyl) 7,8-dihydro-1,6-naphthyridine-2,6(5H)-dicarboxylate", "6-(tert-Butoxycarbonyl)-5,6,7,8-tetrahydro-1,6-naphthyridine-2-carboxylic acid"], "SMILES": "C(OC(C)(C)C)(=O)N1CC=2C(=NC(C(O)=O)=CC2)CC1", "physical_data": {"Molecular Weight": "278.30", "Molecular Formula": "C14H18N2O4", "Melting Point": "181-185 \u00b0C"}}