{"cas_no": "25999-31-9", "cn_name": "\u90a3\u585e\u7f57", "en_name": ["Lasalocid A", "Benzoic acid, 6-[(3R,4S,5S,7R)-7-[(2S,3S,5S)-5-ethyl-5-[(2R,5R,6S)-5-ethyltetrahydro-5-hydroxy-6-methyl-2H-pyran-2-yl]tetrahydro-3-methyl-2-furanyl]-4-hydroxy-3,5-dimethyl-6-oxononyl]-2-hydroxy-3-methyl-", "Benzoic acid, 6-[7-[5-ethyl-5-(5-ethyltetrahydro-5-hydroxy-6-methyl-2H-pyran-2-yl)tetrahydro-3-methyl-2-furanyl]-4-hydroxy-3,5-dimethyl-6-oxononyl]-2-hydroxy-3-methyl-, [2R-[2\u03b1[2S*(3R*,4S*,5S*,7R*),3S*,5S*],5\u03b1,6\u03b2]]-", "2,3-Cresotic acid, 6-[7-[5-ethyl-5-(5-ethyltetrahydro-5-hydroxy-6-methyl-2H-pyran-2-yl)tetrahydro-3-methyl-2-furyl]-4-hydroxy-3,5-dimethyl-6-oxononyl]-, (-)-", "6-[(3R,4S,5S,7R)-7-[(2S,3S,5S)-5-Ethyl-5-[(2R,5R,6S)-5-ethyltetrahydro-5-hydroxy-6-methyl-2H-pyran-2-yl]tetrahydro-3-methyl-2-furanyl]-4-hydroxy-3,5-dimethyl-6-oxononyl]-2-hydroxy-3-methylbenzoic acid", "X 537A", "Antibiotic X 537A", "Lasalocid A", "Ionophore X 537A", "Lasalocide A", "Lasalocid", "Lasalocid acid", "CID 5360807"], "SMILES": "C(C)C1(OC(C(C(C(C(C(CCC2=C(C(O)=O)C(O)=C(C)C=C2)C)O)C)=O)CC)C(C)C1)C3OC(C)C(CC)(O)CC3", "physical_data": {"Molecular Weight": "590.79", "Molecular Formula": "C34H54O8", "Melting Point": "110-114 \u00b0C"}}