{"cas_no": "2599-01-1", "cn_name": "\u5341\u56db\u70f7\u9178\u5341\u516d\u70f7\u57fa\u916f", "en_name": ["Cetyl myristate", "Tetradecanoic acid, hexadecyl ester", "Myristic acid, hexadecyl ester", "1-Hexadecanol, myristate", "Hexadecyl tetradecanoate", "Cetyl myristate", "Hexadecyl myristate", "Palmityl myristate", "n-Hexadecyl n-tetradecanoate", "Myristic acid cetyl ester"], "SMILES": "C(OCCCCCCCCCCCCCCCC)(CCCCCCCCCCCCC)=O", "physical_data": {"Molecular Weight": "452.80", "Molecular Formula": "C30H60O2", "Melting Point": "47-48 \u00b0C"}}