{"cas_no": "25990-96-9", "cn_name": "\u516b\u805a\u4e59\u4e8c\u9187\u4e00\u7532\u919a", "en_name": ["3,6,9,12,15,18,21,24-Octaoxapentacosan-1-ol", "3,6,9,12,15,18,21,24-Octaoxapentacosan-1-ol", "2,5,8,11,14,17,20,23-Octaoxapentacosan-25-ol", "Octaethylene glycol, monomethyl ether", "Methoxyoctaethylene glycol", "3,6,10,13,16,19,22,25-Octaoxahexacosan-1-ol", "2-[2-[2-[2-[2-[2-[2-(2-Methoxyethoxy)ethoxy]ethoxy]ethoxy]ethoxy]ethoxy]ethoxy]ethanol"], "SMILES": "C(OCCOCCOCCOCCO)COCCOCCOCCOC", "physical_data": {"Molecular Weight": "384.46", "Molecular Formula": "C17H36O9", "Boiling Point": "165 \u00b0C @ Press: 5 x 10<sup>-3</sup> Torr"}}