{"cas_no": "25999-20-6", "cn_name": "\u62c9\u6c99\u91cc\u83cc\u7d20", "en_name": ["Lasalocid sodium", "Benzoic acid, 6-[(3R,4S,5S,7R)-7-[(2S,3S,5S)-5-ethyl-5-[(2R,5R,6S)-5-ethyltetrahydro-5-hydroxy-6-methyl-2H-pyran-2-yl]tetrahydro-3-methyl-2-furanyl]-4-hydroxy-3,5-dimethyl-6-oxononyl]-2-hydroxy-3-methyl-, sodium salt (1:1)", "2,3-Cresotic acid, 6-[7-[5-ethyl-5-(5-ethyltetrahydro-5-hydroxy-6-methyl-2H-pyran-2-yl)tetrahydro-3-methyl-2-furyl]-4-hydroxy-3,5-dimethyl-6-oxononyl]-, monosodium salt, (-)-", "Benzoic acid, 6-[7-[5-ethyl-5-(5-ethyltetrahydro-5-hydroxy-6-methyl-2H-pyran-2-yl)tetrahydro-3-methyl-2-furanyl]-4-hydroxy-3,5-dimethyl-6-oxononyl]-2-hydroxy-3-methyl-, monosodium salt, [2R-[2\u03b1[2S*(3R*,4S*,5S*,7R*),3S*,5S*],5\u03b1,6\u03b2]]-", "Benzoic acid, 6-[(3R,4S,5S,7R)-7-[(2S,3S,5S)-5-ethyl-5-[(2R,5R,6S)-5-ethyltetrahydro-5-hydroxy-6-methyl-2H-pyran-2-yl]tetrahydro-3-methyl-2-furanyl]-4-hydroxy-3,5-dimethyl-6-oxononyl]-2-hydroxy-3-methyl-, monosodium salt", "Lasalocid sodium", "Ro 2-2985", "Sodium lasalocid A", "Avatec", "Sodium lasalocid", "Lasalocid sodium salt", "Bovatec", "MT 2007", "NSC 243046"], "SMILES": "C(C)C1(OC(C(C(C(C(C(CCC2=C(C(O)=O)C(O)=C(C)C=C2)C)O)C)=O)CC)C(C)C1)C3OC(C)C(CC)(O)CC3.[Na]", "physical_data": {"Molecular Weight": "", "Molecular Formula": "C34H54O8.Na", "Melting Point": "168-171 \u00b0C"}}