{"cas_no": "25990-37-8", "cn_name": "\u5370\u82e6\u695d\u5185\u916f", "en_name": ["Nimbolide", "2H,5H-Cyclopenta[d\u2032]naphtho[1,8-bc:2,3-b\u2032]difuran-6-acetic acid, 8-(3-furanyl)-2a,5a,6,6a,8,9,9a,10a,10b,10c-decahydro-2a,5a,6a,7-tetramethyl-2,5-dioxo-, methyl ester, (2aR,5aR,6S,6aR,8R,9aR,10aS,10bR,10cR)-", "2H,5H-Cyclopenta[d\u2032]naphtho[1,8-bc:2,3-b\u2032]difuran-6-acetic acid, 8\u03b1-(3-furyl)-2a,5a,6,6a,8,9,9a,10a,10b,10c-decahydro-2a,5a,6a,7-tetramethyl-2,5-dioxo-, methyl ester", "18,24-Dinor-11,12-secochola-2,13,20,22-tetraene-4,11-dicarboxylic acid, 7,15:21,23-diepoxy-6-hydroxy-4,8-dimethyl-1-oxo-, \u03b3-lactone, methyl ester, (4\u03b1,5\u03b1,6\u03b1,7\u03b1,15\u03b2,17\u03b1)-", "2H,5H-Cyclopenta[d\u2032]naphtho[1,8-bc:2,3-b\u2032]difuran, 18,24-dinor-11,12-secochola-2,13,20,22-tetraene-4,11-dicarboxylic acid deriv.", "Nimbolide", "NSC 309909"], "SMILES": "CC12C3C(C4C(C)(C1CC(OC)=O)C=5C(O4)CC(C5C)C=6C=COC6)OC(=O)C3(C)C=CC2=O", "physical_data": {"Molecular Weight": "466.52", "Molecular Formula": "C27H30O7", "Melting Point": "245-247 \u00b0C"}}