{"cas_no": "260-94-6", "cn_name": "\u5416\u5576", "en_name": ["Acridine", "Acridine", "10-Azaanthracene", "Benzo[b]quinoline", "Dibenzo[b,e]pyridine", "9-Azaanthracene", "2,3-Benzoquinoline", "NSC 3408"], "SMILES": "C12=C(N=C3C(=C1)C=CC=C3)C=CC=C2", "physical_data": {"Molecular Weight": "179.22", "Molecular Formula": "C13H9N", "Boiling Point": "345.5 \u00b0C @ Press: 760 Torr", "Melting Point": "108 \u00b0C", "Density": "1.005 g/cm\u00b3 @ Temp: 20 \u00b0C"}}