{"cas_no": "26001-38-7", "cn_name": "8-\u5def\u57fa\u9e1f\u82f7", "en_name": ["8-Mercaptoguanosine", "Guanosine, 7,8-dihydro-8-thioxo-", "Guanosine, 8-mercapto-", "7,8-Dihydro-8-thioxoguanosine", "8-Thioguanosine", "8-Mercaptoguanosine", "SQ 12760", "NSC 79216"], "SMILES": "S=C1N(C2=C(N1)C(=O)N=C(N)N2)C3OC(CO)C(O)C3O", "physical_data": {"Molecular Weight": "315.31", "Molecular Formula": "C10H13N5O5S", "Melting Point": "&gt;220 \u00b0C"}}