{"cas_no": "26002-80-2", "cn_name": "\u82ef\u919a\u83ca\u916f", "en_name": ["Phenothrin", "Cyclopropanecarboxylic acid, 2,2-dimethyl-3-(2-methyl-1-propen-1-yl)-, (3-phenoxyphenyl)methyl ester", "Cyclopropanecarboxylic acid, 2,2-dimethyl-3-(2-methylpropenyl)-, m-phenoxybenzyl ester", "Cyclopropanecarboxylic acid, 2,2-dimethyl-3-(2-methyl-1-propenyl)-, (3-phenoxyphenyl)methyl ester", "Benzyl alcohol, m-phenoxy-, 2,2-dimethyl-3-(2-methylpropenyl)cyclopropanecarboxylate", "Phenothrin", "S 2539", "m-Phenoxybenzyl 2,2-dimethyl-3-(2-methylpropenyl)cyclopropanecarboxylate", "Phenoxythrin", "OMS 1809", "OMS 1810", "3-Phenoxybenzyl chrysanthemate", "Pibutin", "Multicide 2154", "PT 515", "S 2539 (pesticide)", "Duet", "Anchimanaito 20S", "Phenothrin II"], "SMILES": "C(=C(C)C)C1C(C(OCC2=CC(OC3=CC=CC=C3)=CC=C2)=O)C1(C)C", "physical_data": {"Molecular Weight": "350.45", "Molecular Formula": "C23H26O3", "Boiling Point": "&gt;290 \u00b0C", "Melting Point": "&lt;25 \u00b0C", "Density": "1.06 g/cm\u00b3 @ Temp: 20 \u00b0C"}}