{"cas_no": "2601-89-0", "cn_name": "2,3-\u4e8c\u6c2f\u4e19\u8148", "en_name": ["2,3-Dichloropropanenitrile", "Propanenitrile, 2,3-dichloro-", "Propionitrile, 2,3-dichloro-", "2,3-Dichloropropanenitrile", "2,3-Dichloropropionitrile", "\u03b1,\u03b2-Dichloropropionitrile", "NSC 38447"], "SMILES": "C(CCl)(C#N)Cl", "physical_data": {"Molecular Weight": "123.97", "Molecular Formula": "C3H3Cl2N", "Boiling Point": "86-87 \u00b0C @ Press: 36 Torr", "Melting Point": "243 \u00b0C (decomp)", "Density": "1.338 g/cm\u00b3 @ Temp: 20 \u00b0C"}}