{"cas_no": "2601-90-3", "cn_name": "N-OLEOYLGLYCINE", "en_name": ["N-Oleoylglycine", "Glycine, N-[(9Z)-1-oxo-9-octadecen-1-yl]-", "Glycine, N-oleoyl-", "Glycine, N-(1-oxo-9-octadecenyl)-, (Z)-", "Glycine, N-[(9Z)-1-oxo-9-octadecenyl]-", "N-[(9Z)-1-Oxo-9-octadecen-1-yl]glycine", "N-Oleoylglycine", "2-Oleamidoacetic acid"], "SMILES": "C(CC(NCC(O)=O)=O)CCCCCC=CCCCCCCCC", "physical_data": {"Molecular Weight": "339.51", "Molecular Formula": "C20H37NO3", "Melting Point": "77-78 \u00b0C"}}