{"cas_no": "26018-73-5", "cn_name": "6-\u6c2f\u82ef\u5e76[B]\u567b\u5429-2-\u7fa7\u9178", "en_name": ["6-Chlorobenzo[b]thiophene-2-carboxylic acid", "Benzo[b]thiophene-2-carboxylic acid, 6-chloro-", "6-Chlorobenzo[b]thiophene-2-carboxylic acid", "2-Carboxy-6-chlorobenzo[b]thiophene", "6-Chlorobenzothiophene-2-carboxylic acid"], "SMILES": "C(O)(=O)C1=CC=2C(S1)=CC(Cl)=CC2", "physical_data": {"Molecular Weight": "212.65", "Molecular Formula": "C9H5ClO2S", "Melting Point": "283 \u00b0C"}}