{"cas_no": "26020-14-4", "cn_name": "\u91d1\u76cf\u82b1\u82f7E", "en_name": ["Calenduloside E", "\u03b2-D-Glucopyranosiduronic acid, (3\u03b2)-17-carboxy-28-norolean-12-en-3-yl", "Olean-12-en-28-oic acid, 3\u03b2-(\u03b2-D-glucopyranuronosyloxy)-", "Glucopyranosiduronic acid, 3\u03b2-hydroxyolean-12-en-28-oic acid, \u03b2-D-", "28-Noroleanane, \u03b2-D-glucopyranosiduronic acid deriv.", "(3\u03b2)-17-Carboxy-28-norolean-12-en-3-yl \u03b2-D-glucopyranosiduronic acid", "Calenduloside E", "Oleanolic acid 3-O-\u03b2-D-glucuronopyranoside", "Silphioside F", "Polysciasaponin P7", "Momordin Ib", "Oleanolic acid 3-O-glucuronide", "3-O-(\u03b2-D-Glucopyranuronosyl)oleanolic acid", "Glycoside St-E", "28-Desglucosylchikusetsusaponin IVa", "3\u03b2-Hydroxyolean-12-en-28-oic acid 3-O-\u03b2-D-glucuronide", "Scheffleraside I", "3-O-\u03b2-D-Glucuronopyranosyloleanolic acid"], "SMILES": "CC12C3(C)C(C4C(C(O)=O)(CC3)CCC(C)(C)C4)=CCC1C5(C)C(CC2)C(C)(C)C(OC6OC(C(O)=O)C(O)C(O)C6O)CC5", "physical_data": {"Molecular Weight": "632.82", "Molecular Formula": "C36H56O9", "Melting Point": "243-245 \u00b0C (decomp)"}}