{"cas_no": "2602-34-8", "cn_name": "3-\u7f29\u6c34\u7518\u6cb9\u919a\u6c27\u57fa\u4e19\u57fa\u4e09\u4e59\u6c27\u57fa\u7845\u70f7", "en_name": ["\u03b3-Glycidoxypropyltriethoxysilane", "Oxirane, 2-[[3-(triethoxysilyl)propoxy]methyl]-", "Silane, [3-(2,3-epoxypropoxy)propyl]triethoxy-", "Silane, triethoxy[3-(oxiranylmethoxy)propyl]-", "2-[[3-(Triethoxysilyl)propoxy]methyl]oxirane", "3-(2,3-Epoxypropoxy)propyltriethoxysilane", "NV 1115", "3-(Triethoxysilyl)propyl glycidyl ether", "\u03b3-Glycidoxypropyltriethoxysilane", "\u03b3-(Glycidyloxypropyl)triethoxysilane", "[3-(Glycidoxy)propyl]triethoxysilane", "3-(Glycidyloxypropyl)triethoxysilane", "[[3-(Triethoxysilyl)propoxy]methyl]oxirane", "Glycidyl 3-(triethoxysilyl)propyl ether", "NB 1115", "[3-(Glycidyloxy)propyl]triethoxysilane", "KBE 403", "SLM 50-882", "Silan GF 82", "Dynasylan GLYEO", "3-GPTES", "Z 6041", "\u03b3-Glycydoxypropyltriethoxysilane", "GF 82", "Triethoxy(3-glycidoxypropyl)silane", "AZ 6173", "GOPTS", "Silquest A 15589", "Silquest A 1871", "Silquest Y 15589", "Geniosil GF 82", "3-Glycydoxylpropyltriethoxysilane", "SCA 413", "Triethoxy[3-(2-oxiranylmethoxy)propyl]silane", "HD 561", "KBE 403E", "KH 561", "A 1871", "DB 563", "T 2675", "Epoxypropoxypropyltriethoxysilane", "Deolink Epoxy TE", "CB 660E", "LS 4668", "\u03b3-(2,3-Epoxypropoxy)propyltriethoxysilane", "KMB 403", "3-(2,3-Epoxypropyloxy) propyl triethoxy silane", "UP 561", "Deolink TE 100", "A 187L", "T 162295", "K 8-860"], "SMILES": "[Si](CCCOCC1CO1)(OCC)(OCC)OCC", "physical_data": {"Molecular Weight": "278.42", "Molecular Formula": "C12H26O5Si", "Boiling Point": "124 \u00b0C @ Press: 3 Torr", "Density": "1 g/cm\u00b3"}}