{"cas_no": "26027-38-3", "cn_name": "\u58ec\u57fa\u915a\u805a\u6c27\u4e59\u70ef\u919a", "en_name": ["Polyethylene glycol mono(4-nonylphenyl) ether", "Poly(oxy-1,2-ethanediyl), \u03b1-(4-nonylphenyl)-\u03c9-hydroxy-", "Glycols, polyethylene, mono(p-nonylphenyl) ether", "Phenol, p-nonyl-, monoether with polyethylene glycol", "\u03b1-(p-Nonylphenyl)-\u03c9-hydroxypoly(oxyethylene)", "Polyethylene glycol p-nonylphenyl ether", "Polyethylene glycol mono(p-nonylphenyl) ether", "Tetra(oxyethylene), \u03b1-(4-nonylphenyl)-\u03c9-hydroxy-", "p-Nonylphenol-polyethylene glycol adduct", "Ethoxylated p-nonyl phenol", "Polyethylene glycol mono(4-nonylphenyl) ether", "Nonoxynol", "p-Nonylphenol polyethylene glycol ether", "Rokafenol NX 8", "Nonoxynol 13", "Nonoxynol 6", "Nonoxynol 14", "Nonoxynol 10", "Rokafenol N 25", "Rokafenol N", "Rokafenol N 10", "Rokafenol N 8", "Rokafenol N 4", "Rokafenol N 5", "Rokafenol N 14", "Rokafenol N 6", "Rexol 25/6", "Polyethylene glycol 4-nonylphenyl monoether", "Newcol 565", "Bion NE 9", "Nonoxynol 9", "Rokafenol N 2", "Rokafenol N 45", "Delfen", "Conceptrol", "Encare oval", "NOP 8", "NOP 17", "Egyptol", "Koromex", "Prevocell W-ON 100", "Rokafenol N 3", "Praewozell W-ON 100", "N 100", "Polyoxyethylene p-nonylphenyl ether", "Gynol II", "Iconol NP 100", "Akyporox NP 150", "Liponox NCY", "PEG p-nonylphenyl ether", "W-ON 100", "Polyethylene glycol-10 p-nonylphenol ether", "p-Nonylphenyl polyoxyethylene ether", "Pannox 16", "Pannox 18", "Pannox 110", "Pannox 111", "Pannox 116", "Pannox 140", "Pannox 150", "NP 8.5", "Polyoxyethylene mono-p-nonylphenyl ether", "Poly(oxyethylene)-4-nonylphenyl ether", "Nonoxynol 8.5", "Imbetin N 7A", "APSA 80", "Amway All Purpose Spray Adjuvant", "Amway APSA 80", "Hyoxyd X 400", "Nonoxynol 15", "Monopol NP 1013", "Monopol NP 1060", "p-Nonylphenol decaethylene glycol ether", "Decaethylene glycol mono(p-nonylphenyl) ether", "4-Nonylphenol decaglycol ether", "Decaethylene glycol p-nonylphenyl ether", "Advantage 24", "PONPE 7.5", "Rexol 25/1", "Prevocell N 9", "PONPE 10", "PONPE 15", "PONPE 20", "Cremophor NP 10", "Cremophor NP 14", "Polyethylene glycol p-nonylphenyl monoether", "Emulan 30", "Emulan 40", "Rokafenol N 705", "Hyoxyd X 200", "Hyoxyd X 100", "K-Y Plus", "Nonoxynol 100", "Nonoxynol 12", "C-Film", "Intercept", "Today Sponge", "Semicid", "Staycept", "Conco NI 90", "Neutronyx 611", "Encare", "Findet 9Q21.5", "COL 1492", "Nonal 204", "Nonal 202", "Nonal 106", "Rokafenol N 9", "Emulsogen ELN", "Rokafenol N 7", "4-Nonylphenol polyethoxylate", "Rokafenol N 22", "NP 1060", "Polyoxyethylene mono(4-nonylphenyl) ether", "IKD", "Advantage S (spermicide)", "Advantage S", "Tergitol NP 50", "Coulter Dispersant IC", "Sympatens NP 090", "NP 40", "APEO 7", "APEO 10"], "SMILES": "C(CCCCCCCC)C1=CC=C(OCCO)C=C1", "physical_data": {"Molecular Weight": "", "Molecular Formula": "(C2H4O)nC15H24O", "Boiling Point": "30 \u00b0C"}}