{"cas_no": "26028-65-9", "cn_name": "5-(4-CHLOROPHENYL)-4H-1,2,4-TRIAZOLE-3-THIOL", "en_name": ["5-(4-Chlorophenyl)-1,2-dihydro-3H-1,2,4-triazole-3-thione", "3H-1,2,4-Triazole-3-thione, 5-(4-chlorophenyl)-1,2-dihydro-", "s-Triazole-3-thiol, 5-(p-chlorophenyl)-", "5-(4-Chlorophenyl)-1,2-dihydro-3H-1,2,4-triazole-3-thione", "5-(p-Chlorophenyl)-1,2,4-triazole-3-thiol", "3-(4-Chlorophenyl)-1,2,4-triazole-5-thiol"], "SMILES": "S=C1NC(C2=CC=C(Cl)C=C2)=NN1", "physical_data": {"Molecular Weight": "211.67", "Molecular Formula": "C8H6ClN3S", "Melting Point": "298 \u00b0C"}}