{"cas_no": "2603-10-3", "cn_name": "N-\u82ef\u57fa\u9999\u8c46\u7532\u916f", "en_name": ["Carbamic acid, N-phenyl-, methyl ester", "Carbamic acid, N-phenyl-, methyl ester", "Carbanilic acid, methyl ester", "Carbamic acid, phenyl-, methyl ester", "Methyl carbanilate", "Methyl N-phenylurethane", "Methyl phenylurethane", "Methyl N-phenylcarbamate", "Methyl phenylcarbamate", "N-Phenyl-O-methylurethane", "Phenylcarbamic acid methyl ester", "Methanol carbanilate", "N-(Methoxycarbonyl)aniline", "N-Phenylcarbamic acid methyl ester", "O-Methyl N-phenylcarbamate", "NSC 36208"], "SMILES": "N(C(OC)=O)C1=CC=CC=C1", "physical_data": {"Molecular Weight": "151.16", "Molecular Formula": "C8H9NO2", "Boiling Point": "102-107 \u00b0C @ Press: 3.5 Torr", "Melting Point": "47 \u00b0C"}}