{"cas_no": "26049-94-5", "cn_name": "N-\u82ef\u6c27\u57fa\u78b3-L-\u82ef\u4e19\u6c28\u9170\u7532\u57fa\u6c2f\u916e", "en_name": ["(3S)-3-Benzyloxycarbonylamino-1-chloro-4-phenyl-2-butanone", "Carbamic acid, N-[(1S)-3-chloro-2-oxo-1-(phenylmethyl)propyl]-, phenylmethyl ester", "Carbamic acid, [\u03b1-(chloroacetyl)phenethyl]-, benzyl ester, L-", "Carbamic acid, [3-chloro-2-oxo-1-(phenylmethyl)propyl]-, phenylmethyl ester, (S)-", "Carbamic acid, [(1S)-3-chloro-2-oxo-1-(phenylmethyl)propyl]-, phenylmethyl ester", "[N\u03b1-(Benzyloxycarbonyl)phenylalanyl]chloromethane", "(3S)-3-Benzyloxycarbonylamino-1-chloro-4-phenyl-2-butanone", "NSC 251810"], "SMILES": "C(CC1=CC=CC=C1)(NC(OCC2=CC=CC=C2)=O)C(CCl)=O", "physical_data": {"Molecular Weight": "331.79", "Molecular Formula": "C18H18ClNO3", "Melting Point": "109-111 \u00b0C"}}