{"cas_no": "260443-89-8", "cn_name": "4-(5-\u6c1f-1,3-\u82ef\u5e76\u567b\u5511-2-\u57fa)-2-\u7532\u57fa\u82ef\u80fa", "en_name": ["4-(5-Fluoro-2-benzothiazolyl)-2-methylbenzenamine", "Benzenamine, 4-(5-fluoro-2-benzothiazolyl)-2-methyl-", "4-(5-Fluoro-2-benzothiazolyl)-2-methylbenzenamine", "NSC 703786", "5F203", "NCS 703786"], "SMILES": "CC=1C=C(C=2SC=3C(N2)=CC(F)=CC3)C=CC1N", "physical_data": {"Molecular Weight": "258.31", "Molecular Formula": "C14H11FN2S", "Melting Point": "195-196 \u00b0C"}}