{"cas_no": "2605-14-3", "cn_name": "2-\u6c2f-6-\u7532\u6c27\u57fa\u82ef\u5e76\u567b\u5511", "en_name": ["2-Chloro-6-methoxybenzothiazole", "Benzothiazole, 2-chloro-6-methoxy-", "2-Chloro-6-methoxybenzothiazole", "6-Methoxy-2-chlorobenzothiazole", "NSC 118120", "2-Chloro-6-methoxybenzo[d]thiazole", "2-Chloro-6-methoxy-1,3-benzothiazole", "2-Chloro-6-(methyloxy)-1,3-benzothiazole"], "SMILES": "ClC1=NC=2C(=CC(OC)=CC2)S1", "physical_data": {"Molecular Weight": "199.66", "Molecular Formula": "C8H6ClNOS", "Boiling Point": "130-133 \u00b0C @ Press: 7 Torr", "Melting Point": "43-44 \u00b0C"}}