{"cas_no": "260558-15-4", "cn_name": "4-\u6eb4-2-\u7898\u7532\u82ef", "en_name": ["4-Bromo-2-iodo-1-methylbenzene", "Benzene, 4-bromo-2-iodo-1-methyl-", "4-Bromo-2-iodo-1-methylbenzene", "4-Bromo-2-iodotoluene"], "SMILES": "IC1=C(C)C=CC(Br)=C1", "physical_data": {"Molecular Weight": "296.93", "Molecular Formula": "C7H6BrI", "Melting Point": "262-267 \u00b0C"}}