{"cas_no": "2605-67-6", "cn_name": "\u7532\u6c27\u7532\u9170\u57fa\u4e9a\u7532\u57fa\u4e09\u82ef\u57fa\u81a6", "en_name": ["Methyl (triphenylphosphoranylidene)acetate", "Acetic acid, 2-(triphenylphosphoranylidene)-, methyl ester", "Acetic acid, (triphenylphosphoranylidene)-, methyl ester", "(Carbomethoxymethylene)triphenylphosphorane", "Triphenyl(carbomethoxymethylene)phosphorane", "[(Methoxycarbonyl)methylene]triphenylphosphorane", "(Triphenylphosphoranylidene)acetic acid methyl ester", "Methyl (triphenylphosphoranylidene)ethanoate", "Methyl (triphenylphosphoranylidene)acetate", "(Carbomethoxymethylene)triphenylphosphine", "(Triphenylphosphoranylidene) methyl acetate", "(2-Methoxy-2-oxoethylidene)triphenylphosphorane", "Methyl triphenylphosphorylideneacetate", "NSC 117573", "NSC 407395", "Methyl 2-(triphenylphosphoranylidene)acetate", "(Carbomethoxymethylidene)triphenylphosphorane", "Methyl triphenylphosphonoacetate", "2-(Triphenylphosphoranylidene)acetic acid methyl ester", "Methyl triphenylphosphoranylideneacetate", "Methyl 2-(triphenyl-\u03bb5-phosphaneylidene)acetate", "Methyl (triphenylphosphoranyl)acetate", "Methyl triphenylphosphanylideneacetate", "Methyl 2-(triphenyl-\u03bb5-phosphanylidene)acetate", "Methyl2-(triphenylphosphanylidene)acetate"], "SMILES": "P(=CC(OC)=O)(C1=CC=CC=C1)(C2=CC=CC=C2)C3=CC=CC=C3", "physical_data": {"Molecular Weight": "334.35", "Molecular Formula": "C21H19O2P", "Melting Point": "164 \u00b0C"}}