{"cas_no": "26062-94-2", "cn_name": "\u805a\u5bf9\u82ef\u4e8c\u7532\u9178\u4e9a\u4e01\u916f", "en_name": ["Butanediol-terephthalic acid copolymer", "1,4-Benzenedicarboxylic acid, polymer with 1,4-butanediol", "Terephthalic acid, polyester with 1,4-butanediol", "1,4-Butanediol, polyester with terephthalic acid", "1,4-Butanediol, polymer with 1,4-benzenedicarboxylic acid", "Poly(1,4-butanediol terephthalate)", "1,4-Butylene glycol-terephthalic acid copolymer", "Tetramethylene glycol-terephthalic acid polymer", "1,4-Butanediol-terephthalic acid polymer", "1,4-Butylene glycol-terephthalic acid polymer", "1,4-Butanediol-terephthalic acid copolymer", "Terephthalic acid-1,4-butanediol polymer", "Terephthalic acid-tetramethylene glycol polymer", "Poly(tetramethylene terephthalate)", "Poly(butylene terephthalate)", "Poly(1,4-butylene terephthalate)", "Tetramethylenediol-terephthalic acid polymer", "Butylene glycol-terephthalic acid polymer", "Butylene glycol-terephthalic acid copolymer", "Terephthalic acid-tetramethylene glycol copolymer", "Butanediol-terephthalic acid copolymer", "Tetramethylene glycol-terephthalic acid copolymer", "1,4-Butanediol-terephthalate copolymer", "PBT, monomer-based", "Terephthalic acid-1,4-butanediol copolymer", "Ultradur 4550, monomer-based", "1,4-Benzenedicarboxylic acid-1,4-butanediol copolymer", "Terephthalic acid-butanediol copolymer"], "SMILES": "C(O)(=O)C1=CC=C(C(O)=O)C=C1.C(CCO)CO", "physical_data": {"Molecular Weight": "", "Molecular Formula": "(C8H6O4.C4H10O2)x", "Melting Point": "226 \u00b0C", "Density": "1.310 g/cm\u00b3 @ Temp: 20 \u00b0C"}}