{"cas_no": "26063-96-7", "cn_name": "3,4-\u4e8c\u6c22-5,9-\u4e8c\u7f9f\u57fa-11-(3-\u7f9f\u57fa-3-\u7532\u57fa\u4e01\u57fa)-10-\u7532\u6c27\u57fa-2,2-\u4e8c\u7532\u57fa-2H,12H-\u5421\u5583\u5e76[2,3-A]\u6c27\u6742\u84bd-12-\u916e", "en_name": ["3,4-Dihydro-5,9-dihydroxy-7-(3-hydroxy-3-methylbutyl)-8-methoxy-2,2-dimethyl-2H,6H-pyrano[3,2-b]xanthen-6-one", "2H,6H-Pyrano[3,2-b]xanthen-6-one, 3,4-dihydro-5,9-dihydroxy-7-(3-hydroxy-3-methylbutyl)-8-methoxy-2,2-dimethyl-", "3,4-Dihydro-5,9-dihydroxy-7-(3-hydroxy-3-methylbutyl)-8-methoxy-2,2-dimethyl-2H,6H-pyrano[3,2-b]xanthen-6-one"], "SMILES": "C(CC(C)(C)O)C1=C2C(OC=3C(C2=O)=C(O)C4=C(C3)OC(C)(C)CC4)=CC(O)=C1OC", "physical_data": {"Molecular Weight": "428.47", "Molecular Formula": "C24H28O7", "Melting Point": "179-180 \u00b0C"}}