{"cas_no": "26073-09-6", "cn_name": "4-\u7532\u57fa-2-\u6c27\u4ee3\u620a\u9178\u4e59\u916f", "en_name": ["Ethyl 4-methyl-2-oxopentanoate", "Pentanoic acid, 4-methyl-2-oxo-, ethyl ester", "Valeric acid, 4-methyl-2-oxo-, ethyl ester", "Ethyl \u03b1-ketoisocaproate", "Ethyl 4-methyl-2-oxopentanoate", "Ethyl 4-methyl-2-oxovalerate", "Ethyl 2-oxo-4-methylpentanoate"], "SMILES": "C(C(OCC)=O)(CC(C)C)=O", "physical_data": {"Molecular Weight": "158.20", "Molecular Formula": "C8H14O3", "Boiling Point": "123 \u00b0C @ Press: 6 Torr", "Density": "0.9715 g/cm\u00b3 @ Temp: 20 \u00b0C"}}