{"cas_no": "2607-06-9", "cn_name": "\u53cc\u6c1f\u53ef\u9f99", "en_name": ["Diflucortolone", "Pregna-1,4-diene-3,20-dione, 6,9-difluoro-11,21-dihydroxy-16-methyl-, (6\u03b1,11\u03b2,16\u03b1)-", "Pregna-1,4-diene-3,20-dione, 6\u03b1,9-difluoro-11\u03b2,21-dihydroxy-16\u03b1-methyl-", "(6\u03b1,11\u03b2,16\u03b1)-6,9-Difluoro-11,21-dihydroxy-16-methylpregna-1,4-diene-3,20-dione", "6\u03b1,9-Difluoro-11\u03b2,21-dihydroxy-16\u03b1-methylpregna-1,4-diene-3,20-dione", "Diflucortolone", "Difluocortolone"], "SMILES": "FC12C(C3C(C)(CC1O)C(C(CO)=O)C(C)C3)CC(F)C=4C2(C)C=CC(=O)C4", "physical_data": {"Molecular Weight": "394.45", "Molecular Formula": "C22H28F2O4", "Melting Point": "242 \u00b0C"}}