{"cas_no": "26074-52-2", "cn_name": "2-\u6eb4\u4e01\u9170\u6eb4", "en_name": ["2-Bromobutanoyl bromide", "Butanoyl bromide, 2-bromo-", "Butyryl bromide, 2-bromo-", "2-Bromobutanoyl bromide", "2-Bromobutyryl bromide", "\u03b1-Bromobutyryl bromide"], "SMILES": "C(C(Br)=O)(CC)Br", "physical_data": {"Molecular Weight": "229.90", "Molecular Formula": "C4H6Br2O", "Boiling Point": "57-60 \u00b0C @ Press: 10 Torr"}}