{"cas_no": "26087-47-8", "cn_name": "\u5f02\u7a3b\u761f\u51c0", "en_name": ["Iprobenfos", "Phosphorothioic acid, O,O-bis(1-methylethyl) S-(phenylmethyl) ester", "Phosphorothioic acid, S-benzyl O,O-diisopropyl ester", "Kitazin P", "S-Benzyl O,O-diisopropyl phosphorothiolate", "S-Benzyl O,O-diisopropyl phosphorothioate", "O,O-Diisopropyl S-benzyl thiophosphate", "IBP", "O,O-Diisopropyl S-benzyl phosphorothioate", "S-Benzyl O,O-diisopropyl thiophosphate", "O,O-Diisopropyl S-benzyl phosphorothiolate", "Kitazin L", "Ricid II", "Ricid P", "Iprobenfos", "Isokitazine", "Kitazin 17", "Tagkit"], "SMILES": "P(SCC1=CC=CC=C1)(OC(C)C)(OC(C)C)=O", "physical_data": {"Molecular Weight": "288.34", "Molecular Formula": "C13H21O3PS", "Boiling Point": "126 \u00b0C", "Melting Point": "&lt;25 \u00b0C", "Density": "1.1001 g/cm\u00b3 @ Temp: 20 \u00b0C"}}