{"cas_no": "26088-79-9", "cn_name": "2-(4-\u4e59\u9170\u6c28\u57fa\u82ef\u4e9a\u7532\u57fa)\u4e19\u4e8c\u8148", "en_name": ["N-[4-(2,2-Dicyanoethenyl)phenyl]acetamide", "Acetamide, N-[4-(2,2-dicyanoethenyl)phenyl]-", "Malononitrile, (p-acetamidobenzylidene)-", "Acetanilide, 4\u2032-(2,2-dicyanovinyl)-", "N-[4-(2,2-Dicyanoethenyl)phenyl]acetamide", "NSC 56077", "N-[4-(2,2-Dicyanovinyl)phenyl]acetamide"], "SMILES": "C(=C(C#N)C#N)C1=CC=C(NC(C)=O)C=C1", "physical_data": {"Molecular Weight": "211.22", "Molecular Formula": "C12H9N3O", "Melting Point": "236 \u00b0C"}}