{"cas_no": "26081-07-2", "cn_name": "3-\u6c28\u57fa\u516d\u6c22-2H-\u6c2e\u6742\u5353-2-\u916e\u76d0\u9178\u76d0", "en_name": ["L-\u03b1-Amino-\u03b5-caprolactam hydrochloride", "2H-Azepin-2-one, 3-aminohexahydro-, hydrochloride (1:1), (3S)-", "2H-Azepin-2-one, 3-aminohexahydro-, monohydrochloride, L-", "2H-Azepin-2-one, 3-aminohexahydro-, monohydrochloride, (S)-", "2H-Azepin-2-one, 3-aminohexahydro-, monohydrochloride, (3S)-", "L-\u03b1-Aminocaprolactam monohydrochloride", "L-\u03b1-Amino-\u03b5-caprolactam hydrochloride", "L-\u03b1-Amino-\u03b5-caprolactam, monohydrochloride", "(S)-3-Aminoazepan-2-one hydrochloride"], "SMILES": "NC1C(=O)NCCCC1.Cl", "physical_data": {"Molecular Weight": "", "Molecular Formula": "C6H12N2O.ClH", "Melting Point": "&gt;270 \u00b0C"}}