{"cas_no": "2608-21-1", "cn_name": "\u82cf\u94c1\u53cc\u9ec4\u916e", "en_name": ["8-[5-(5,7-Dihydroxy-4-oxo-4H-1-benzopyran-2-yl)-2-hydroxyphenyl]-5-hydroxy-2-(4-hydroxyphenyl)-7-methoxy-4H-1-benzopyran-4-one", "4H-1-Benzopyran-4-one, 8-[5-(5,7-dihydroxy-4-oxo-4H-1-benzopyran-2-yl)-2-hydroxyphenyl]-5-hydroxy-2-(4-hydroxyphenyl)-7-methoxy-", "Sotetsuflavone", "3\u2032\u2032\u2032,8-Biflavone, 4\u2032,4\u2032\u2032\u2032,5,5\u2032\u2032,7\u2032\u2032-pentahydroxy-7-methoxy-", "8-[5-(5,7-Dihydroxy-4-oxo-4H-1-benzopyran-2-yl)-2-hydroxyphenyl]-5-hydroxy-2-(4-hydroxyphenyl)-7-methoxy-4H-1-benzopyran-4-one", "Sotetsuflavon"], "SMILES": "O(C)C=1C(=C2C(C(=O)C=C(O2)C3=CC=C(O)C=C3)=C(O)C1)C4=CC(=CC=C4O)C=5OC=6C(C(=O)C5)=C(O)C=C(O)C6", "physical_data": {"Molecular Weight": "552.48", "Molecular Formula": "C31H20O10", "Melting Point": "263-264 \u00b0C (decomp)"}}