{"cas_no": "26093-31-2", "cn_name": "7-\u6c28\u57fa-4-\u7532\u57fa\u9999\u8c46\u7d20", "en_name": ["7-Amino-4-methylcoumarin", "2H-1-Benzopyran-2-one, 7-amino-4-methyl-", "Coumarin, 7-amino-4-methyl-", "7-Amino-4-methyl-2H-1-benzopyran-2-one", "7-Amino-4-methylcoumarin", "4-Methyl-7-aminocoumarin", "Coumarin 120", "C 120", "Coumarin 440", "7-Amino-4-methyl-2H-chromen-2-one", "NSC 45796", "7-AMC", "(4-Methyl-2-oxo-2H-chromen-7-yl)amine", "1: PN: JP2013135660 PAGE: 3 claimed sequence", "7-Amino-4-methyl-chromen-2-one", "4-Methyl-2-oxo-2H-chromen-7-amine", "7-Amino-2-methylcoumarin"], "SMILES": "CC=1C=2C(OC(=O)C1)=CC(N)=CC2", "physical_data": {"Molecular Weight": "175.18", "Molecular Formula": "C10H9NO2", "Melting Point": "226 \u00b0C"}}