{"cas_no": "26097-80-3", "cn_name": "\u574e\u82ef\u8fbe\u5511", "en_name": ["Cambendazole", "Carbamic acid, N-[2-(4-thiazolyl)-1H-benzimidazol-6-yl]-, 1-methylethyl ester", "5-Benzimidazolecarbamic acid, 2-(4-thiazolyl)-, isopropyl ester", "Carbamic acid, [2-(4-thiazolyl)-1H-benzimidazol-5-yl]-, 1-methylethyl ester", "Cambendazole", "Isopropyl 2-(4-thiazolyl)-5-benzimidazolecarbamate", "2-(4-Thiazolyl)-5-isopropoxycarbonylaminobenzimidazole", "Bonlam", "Cambenzole", "Novazole", "Noviben", "MK 905", "NSC 377071"], "SMILES": "N(C(OC(C)C)=O)C=1C=C2C(NC(=N2)C3=CSC=N3)=CC1", "physical_data": {"Molecular Weight": "302.35", "Molecular Formula": "C14H14N4O2S", "Melting Point": "212-214 \u00b0C"}}