{"cas_no": "26091-79-2", "cn_name": "\u767d\u5f53\u5f52\u8111", "en_name": ["Byakangelicol", "7H-Furo[3,2-g][1]benzopyran-7-one, 9-[[(2R)-3,3-dimethyl-2-oxiranyl]methoxy]-4-methoxy-", "7H-Furo[3,2-g][1]benzopyran-7-one, 9-(2,3-epoxy-3-methylbutoxy)-4-methoxy-, (R)-(+)-", "7H-Furo[3,2-g][1]benzopyran-7-one, 9-[(3,3-dimethyloxiranyl)methoxy]-4-methoxy-, (R)-", "7H-Furo[3,2-g][1]benzopyran-7-one, 9-[[(2R)-3,3-dimethyloxiranyl]methoxy]-4-methoxy-", "9-[[(2R)-3,3-Dimethyl-2-oxiranyl]methoxy]-4-methoxy-7H-furo[3,2-g][1]benzopyran-7-one", "Biacangelicol", "Byakangelicol"], "SMILES": "O(CC1C(C)(C)O1)C=2C3=C(C(OC)=C4C2OC=C4)C=CC(=O)O3", "physical_data": {"Molecular Weight": "316.31", "Molecular Formula": "C17H16O6", "Melting Point": "106 \u00b0C"}}