{"cas_no": "2609-46-3", "cn_name": "\u8112\u6c2f\u55ea", "en_name": ["Amiloride", "2-Pyrazinecarboxamide, 3,5-diamino-N-(aminoiminomethyl)-6-chloro-", "Pyrazinecarboxamide, N-amidino-3,5-diamino-6-chloro-", "Pyrazinecarboxamide, 3,5-diamino-N-(aminoiminomethyl)-6-chloro-", "3,5-Diamino-N-(aminoiminomethyl)-6-chloro-2-pyrazinecarboxamide", "N-Amidino-3,5-diamino-6-chloropyrazinecarboxamide", "Amiloride", "MK 870", "(3,5-Diamino-6-chloropyrazinoyl)guanidine", "Guanamprazine", "Amipramidin", "Hydikal", "3,5-Diamino-6-chloro-N-(diaminomethylidene)pyrazine-2-carboxamide", "3,5-Diamino-N-carbamimidoyl-6-chloropyrazine-2-carboxamide", "MeSH ID: D000584"], "SMILES": "C(NC(=N)N)(=O)C=1C(N)=NC(N)=C(Cl)N1", "physical_data": {"Molecular Weight": "229.63", "Molecular Formula": "C6H8ClN7O", "Melting Point": "241 \u00b0C"}}