{"cas_no": "26098-04-4", "cn_name": "\u5e86\u5927\u9709\u7d20C1A\u6eb6\u6db2,1000PPM", "en_name": ["Gentamicin C1a", "D-Streptamine, O-3-deoxy-4-C-methyl-3-(methylamino)-\u03b2-L-arabinopyranosyl-(1\u21926)-O-[2,6-diamino-2,3,4,6-tetradeoxy-\u03b1-D-erythro-hexopyranosyl-(1\u21924)]-2-deoxy-", "Gentamycin C1a", "O-3-Deoxy-4-C-methyl-3-(methylamino)-\u03b2-L-arabinopyranosyl-(1\u21926)-O-[2,6-diamino-2,3,4,6-tetradeoxy-\u03b1-D-erythro-hexopyranosyl-(1\u21924)]-2-deoxy-D-streptamine", "Gentamicin C1a", "Gentamicin C3", "Geneticin C1a"], "SMILES": "O(C1C(O)C(OC2OC(CN)CCC2N)C(N)CC1N)C3C(O)C(NC)C(C)(O)CO3", "physical_data": {"Molecular Weight": "449.54", "Molecular Formula": "C19H39N5O7", "Melting Point": "107-124 \u00b0C"}}