{"cas_no": "261-31-4", "cn_name": "\u963f\u5947\u9709\u7d20\u6742\u8d28B", "en_name": ["Thioxanthene", "9H-Thioxanthene", "Thioxanthene", "Dibenzothiapyran", "Thiaxanthene", "Thioxanthen"], "SMILES": "C1=2C(SC=3C(C1)=CC=CC3)=CC=CC2", "physical_data": {"Molecular Weight": "198.28", "Molecular Formula": "C13H10S", "Boiling Point": "341 \u00b0C", "Melting Point": "128.5 \u00b0C"}}