{"cas_no": "261-96-1", "cn_name": "\u6c2e\u6742\u82ef\u915a\u567b\u55ea", "en_name": ["10H-Pyrido[3,2-b][1,4]benzothiazine", "10H-Pyrido[3,2-b][1,4]benzothiazine", "1H-Pyrido[3,2-b][1,4]benzothiazine", "1-Azaphenothiazine", "NSC 277720"], "SMILES": "C1=2C(SC=3C(N1)=NC=CC3)=CC=CC2", "physical_data": {"Molecular Weight": "200.26", "Molecular Formula": "C11H8N2S", "Boiling Point": "178-184 \u00b0C @ Press: 3 Torr", "Melting Point": "115 \u00b0C"}}