{"cas_no": "26106-63-8", "cn_name": "\u56db\u6c22\u544b\u5583-2,3,4,5-\u56db\u7fa7\u9178", "en_name": ["Tetrahydrofuran-2,3,4,5-tetracarboxylic acid", "2,3,4,5-Furantetracarboxylic acid, tetrahydro-", "Furantetracarboxylic acid, tetrahydro-", "Tetrahydro-2,3,4,5-furantetracarboxylic acid", "Tetrahydrofuran-2,3,4,5-tetracarboxylic acid", "Tetrahydrofurantetracarboxylic acid", "2,3,4,5-Tetracarboxytetrahydrofuran", "NSC 122277"], "SMILES": "C(O)(=O)C1C(C(O)=O)C(C(O)=O)OC1C(O)=O", "physical_data": {"Molecular Weight": "248.14", "Molecular Formula": "C8H8O9", "Melting Point": "208 \u00b0C (decomp)"}}