{"cas_no": "26100-51-6", "cn_name": "\u805a\u4e73\u9178\uff08PLA\uff09", "en_name": ["(\u00b1)-Poly(lactic acid)", "Propanoic acid, 2-hydroxy-, homopolymer", "Lactic acid, polymers", "Lactic acid, polyesters", "Poly(lactic acid)", "Lactic acid polymer", "Lactic acid homopolymer", "(\u00b1)-Lactic acid homopolymer", "(\u00b1)-2-Hydroxypropanoic acid homopolymer", "Poly(DL-lactic acid)", "Poly(dl-lactate)", "(\u00b1)-Poly(lactic acid)", "DL-Polylactic acid", "Poly(dl-lactic acid)", "DL-Lactic acid polymer", "DL-Lactic acid homopolymer", "Polylactic acid", "NeoOrtho", "D,L-polylactic acid", "2-Hydroxypropanoic acid homopolymer", "Polylactate", "Lactates, polylactates", "Polylactates", "PLA"], "SMILES": "C(C(O)=O)(C)O", "physical_data": {"Molecular Weight": "", "Molecular Formula": "(C3H6O3)x", "Melting Point": "173 \u00b0C", "Density": "1.21 g/cm\u00b3"}}