{"cas_no": "2611-00-9", "cn_name": "3-\u73af\u5df1\u70ef-1-\u7fa7\u9178-3-\u73af\u5df1\u70ef-1-\u57fa\u7532\u916f", "en_name": ["3-Cyclohexene-1-carboxylic acid, 3-cyclohexen-1-ylmethyl ester", "3-Cyclohexene-1-carboxylic acid, 3-cyclohexen-1-ylmethyl ester", "3-Cyclohexenylmethyl 3-cyclohexenecarboxylate", "Diene 221", "3-Cyclohexen-1-ylmethyl 3-cyclohexenecarboxylate", "1,2,5,6-Tetrahydrobenzyl 1,2,5,6-tetrahydrobenzoate", "NSC 49615", "3-Cyclohexenylmethyl 3\u2032-cyclohexene-1-carboxylate", "3-Cyclohexenylmethyl 3-cyclohexene-1-carboxylate", "3-Cyclohexene-1-carboxylic acid 3-cyclohexenylmethyl ester", "(Cyclohex-3-en-1-yl)methyl cyclohex-3-ene-1-carboxylate"], "SMILES": "C(OCC1CCC=CC1)(=O)C2CCC=CC2", "physical_data": {"Molecular Weight": "220.31", "Molecular Formula": "C14H20O2", "Boiling Point": "152-153 \u00b0C @ Press: 7 Torr"}}