{"cas_no": "26118-67-2", "cn_name": "\u5f02\u4e19\u57fa\u6c28\u57fa\u78fa\u9170\u6c2f", "en_name": ["N-(1-Methylethyl)sulfamoyl chloride", "Sulfamoyl chloride, N-(1-methylethyl)-", "Sulfamoyl chloride, isopropyl-", "Sulfamoyl chloride, (1-methylethyl)-", "N-(1-Methylethyl)sulfamoyl chloride", "Isopropylsulfamoyl chloride", "Isopropylaminosulfonyl chloride", "Isopropylaminosulfonic acid", "Isopropylamidosulfonyl chloride", "N-Isopropylsulfamoyl chloride", "N-Isopropylchlorosulfonamide"], "SMILES": "N(S(Cl)(=O)=O)C(C)C", "physical_data": {"Molecular Weight": "157.62", "Molecular Formula": "C3H8ClNO2S", "Boiling Point": "59-60 \u00b0C @ Press: 0.33 Torr"}}