{"cas_no": "2611-61-2", "cn_name": "\u7532\u781c\u9709\u7d20\u7518\u6c28\u9178\u916f\u76d0\u9178\u76d0", "en_name": ["Thiamphenicol glycinate hydrochloride", "Glycine, (2R,3R)-2-[(2,2-dichloroacetyl)amino]-3-hydroxy-3-[4-(methylsulfonyl)phenyl]propyl ester, hydrochloride (1:1)", "Glycine, \u03b1-ester with 2,2-dichloro-N-[\u03b2-hydroxy-\u03b1-(hydroxymethyl)-p-(methylsulfonyl)phenethyl]acetamide, monohydrochloride, D-threo-(+)-", "Glycine, 2-[(dichloroacetyl)amino]-3-hydroxy-3-[4-(methylsulfonyl)phenyl]propyl ester, monohydrochloride, [R-(R*,R*)]-", "Glycine, (2R,3R)-2-[(dichloroacetyl)amino]-3-hydroxy-3-[4-(methylsulfonyl)phenyl]propyl ester, monohydrochloride", "Thiamphenicol glycinate hydrochloride", "Glycine, \u03b1-ester with D-threo-(+)-2,2-dichloro-N-[\u03b2-hydroxy-\u03b1-(hydroxymethyl)-p-(methylsulfonyl)phenethyl]acetamide, monohydrochloride", "Thiophenicol glycinate", "Neomyson G"], "SMILES": "C(C(O)C1=CC=C(S(C)(=O)=O)C=C1)(NC(C(Cl)Cl)=O)COC(CN)=O.Cl", "physical_data": {"Molecular Weight": "", "Molecular Formula": "C14H18Cl2N2O6S.ClH", "Melting Point": "184-185 \u00b0C"}}