{"cas_no": "26116-56-3", "cn_name": "(9S)-\u7ea2\u9709\u80fa", "en_name": ["Erythromycylamine", "Erythromycin, 9-amino-9-deoxo-, (9S)-", "Erythromycin, 9-amino-9-deoxo-, stereoisomer", "Oxacyclotetradecane, erythromycin deriv.", "(9S)-9-Amino-9-deoxoerythromycin", "Erythromycylamine", "9(S)-Erythromycylamine", "(9S)-Erythromycylamine A", "(9S)-9-Deoxy-9-aminoerythromycin A", "LY 024410", "BRL 42852ER"], "SMILES": "O(C1C(C)C(OC2CC(OC)(C)C(O)C(C)O2)C(C)C(=O)OC(CC)C(C)(O)C(O)C(C)C(N)C(C)CC1(C)O)C3C(O)C(N(C)C)CC(C)O3", "physical_data": {"Molecular Weight": "734.96", "Molecular Formula": "C37H70N2O12", "Melting Point": "114-116 \u00b0C"}}