{"cas_no": "2611-67-8", "cn_name": "\u77e2\u8f66\u83ca\u7d20\u53cc\u8461\u7cd6\u82f7", "en_name": ["Cyanidin 3,5-diglucoside", "1-Benzopyrylium, 2-(3,4-dihydroxyphenyl)-3,5-bis(\u03b2-D-glucopyranosyloxy)-7-hydroxy-, chloride (1:1)", "Cyanin", "1-Benzopyrylium, 2-(3,4-dihydroxyphenyl)-3,5-bis(\u03b2-D-glucopyranosyloxy)-7-hydroxy-, chloride", "Cyanin chloride", "Cyanidol 3,5-diglucoside chloride", "Cyanidin 3,5-diglucoside", "3,5-Bis(glucosyloxy)-3\u2032,4\u2032,7-trihydroxyflavylium chloride", "NSC 81163"], "SMILES": "O(C=1C2=C([O+]=C(C(OC3OC(CO)C(O)C(O)C3O)=C2)C4=CC(O)=C(O)C=C4)C=C(O)C1)C5OC(CO)C(O)C(O)C5O.[Cl-]", "physical_data": {"Molecular Weight": "", "Molecular Formula": "C27H31O16.Cl", "Melting Point": "203-204 \u00b0C"}}