{"cas_no": "26110-32-7", "cn_name": "alpha-\u7279\u620a\u9170\u57fa-N-[2-\u6c2f-5-[4-(2,4-\u4e8c\u7279\u620a\u57fa\u82ef\u6c27\u57fa)\u6b63\u4e01\u9170\u80fa\u57fa]]\u4e59\u9170\u82ef\u80fa", "en_name": ["N-[5-[[4-[2,4-Bis(1,1-dimethylpropyl)phenoxy]-1-oxobutyl]amino]-2-chlorophenyl]-4,4-dimethyl-3-oxopentanamide", "Pentanamide, N-[5-[[4-[2,4-bis(1,1-dimethylpropyl)phenoxy]-1-oxobutyl]amino]-2-chlorophenyl]-4,4-dimethyl-3-oxo-", "Valeranilide, 2\u2032-chloro-5\u2032-[4-(2,4-di-tert-pentylphenoxy)butyramido]-4,4-dimethyl-3-oxo-", "N-[5-[[4-[2,4-Bis(1,1-dimethylpropyl)phenoxy]-1-oxobutyl]amino]-2-chlorophenyl]-4,4-dimethyl-3-oxopentanamide", "\u03b1-Pivalyl-2-chloro-5-[\u03b3-(2,4-di-tert-amylphenoxy)butyramido]acetanilide", "2\u2032-Chloro-5\u2032-[4-(2,4-di-tert-pentylphenoxy)butyrylamino]-4,4-dimethyl-3-oxopentananilide"], "SMILES": "O(CCCC(NC1=CC(NC(CC(C(C)(C)C)=O)=O)=C(Cl)C=C1)=O)C2=C(C(CC)(C)C)C=C(C(CC)(C)C)C=C2", "physical_data": {"Molecular Weight": "571.19", "Molecular Formula": "C33H47ClN2O4", "Melting Point": "55-60 \u00b0C"}}