{"cas_no": "26116-12-1", "cn_name": "N-\u4e59\u57fa-2-\u6c28\u7532\u57fa\u5421\u54af\u70f7", "en_name": ["2-(Aminomethyl)-1-ethylpyrrolidine", "2-Pyrrolidinemethanamine, 1-ethyl-", "Pyrrolidine, 2-(aminomethyl)-1-ethyl-", "1-Ethyl-2-pyrrolidinemethanamine", "2-(Aminomethyl)-1-ethylpyrrolidine", "1-Ethyl-2-(aminomethyl)pyrrolidine", "N-Ethyl-\u03b1-aminomethylpyrrolidine", "N-Ethyl-2-(aminomethyl)pyrrolidine", "2-(Aminomethyl)-N-ethylpyrrolidine", "1-Ethyl-2-pyrrolidinemethylamine", "(1-Ethyl-2-pyrrolidinyl)methylamine", "(\u00b1)-2-(Aminomethyl)-1-ethylpyrrolidine", "1-(1-Ethylpyrrolidin-2-yl)methanamine", "(1-Ethylpyrrolidin-2-yl)methanamine", "N-[(1-Ethylpyrrolidin-2-yl)methyl]amine", "N-Ethyl-2-aminomethyltetrahydropyrrolidine"], "SMILES": "C(N)C1N(CC)CCC1", "physical_data": {"Molecular Weight": "128.22", "Molecular Formula": "C7H16N2", "Boiling Point": "77-78 \u00b0C @ Press: 10 Torr", "Density": "0.897 g/cm\u00b3 @ Temp: 20 \u00b0C"}}