{"cas_no": "26121-56-2", "cn_name": "PICRASIN B", "en_name": ["(2\u03b1)-2-Hydroxy-12-methoxypicras-12-ene-1,11,16-trione", "Picras-12-ene-1,11,16-trione, 2-hydroxy-12-methoxy-, (2\u03b1)-", "Phenanthro[10,1-bc]pyran-1,5,11(4H)-trione, 3a\u03b2,6a\u03b2,7,7a\u03b1,8,9,10,11a,11b\u03b1,11c-decahydro-10\u03b1-hydroxy-2-methoxy-3,8\u03b1,11a\u03b2,11c\u03b2-tetramethyl-", "(2\u03b1)-2-Hydroxy-12-methoxypicras-12-ene-1,11,16-trione", "Picrasin B", "Nigakilactone I", "Simalikalactone B", "(+)-Picrasin B"], "SMILES": "CC12C3C4(C)C(CC1OC(=O)CC2C(C)=C(OC)C3=O)C(C)CC(O)C4=O", "physical_data": {"Molecular Weight": "376.44", "Molecular Formula": "C21H28O6", "Melting Point": "255-257 \u00b0C"}}