{"cas_no": "2612-57-9", "cn_name": "2,4-\u4e8c\u6c2f\u82ef\u57fa\u5f02\u6c30\u9178\u916f", "en_name": ["2,4-Dichlorophenyl isocyanate", "Benzene, 2,4-dichloro-1-isocyanato-", "Isocyanic acid, 2,4-dichlorophenyl ester", "2,4-Dichloro-1-isocyanatobenzene", "2,4-Dichlorophenyl isocyanate"], "SMILES": "N(=C=O)C1=C(Cl)C=C(Cl)C=C1", "physical_data": {"Molecular Weight": "188.01", "Molecular Formula": "C7H3Cl2NO", "Melting Point": "61 \u00b0C"}}