{"cas_no": "2612-29-5", "cn_name": "2-\u4e59\u57fa-1,3-\u4e19\u4e8c\u9187", "en_name": ["2-Ethyl-1,3-propanediol", "1,3-Propanediol, 2-ethyl-", "2-Ethyl-1,3-propanediol", "1,1-Dimethylolpropane", "2-Ethylpropan-1,3-diol"], "SMILES": "C(CC)(CO)CO", "physical_data": {"Molecular Weight": "104.15", "Molecular Formula": "C5H12O2", "Boiling Point": "86-87 \u00b0C @ Press: 0.5 Torr"}}