{"cas_no": "26124-68-5", "cn_name": "\u805a\u4e59\u4ea4\u916fPGA", "en_name": ["Glycolic acid polymer", "Acetic acid, 2-hydroxy-, homopolymer", "Glycolic acid, polyesters", "Acetic acid, hydroxy-, homopolymer", "Poly(glycolic acid)", "Glycolic acid polymer", "Hydroxyacetic acid polymer", "Dexon", "Dexon (polyester)", "Glycolic acid homopolymer", "Hydroxyacetic acid homopolymer", "Poly(L-glycolic acid)", "Poly(\u03b1-hydroxyacetic acid)", "Glypure 70 homopolymer"], "SMILES": "C(CO)(O)=O", "physical_data": {"Molecular Weight": "", "Molecular Formula": "(C2H4O3)x", "Melting Point": "200-220 \u00b0C"}}