{"cas_no": "2612-02-4", "cn_name": "5-\u7532\u6c27\u57fa\u6c34\u6768\u9178", "en_name": ["5-Methoxysalicylic acid", "Benzoic acid, 2-hydroxy-5-methoxy-", "m-Anisic acid, 6-hydroxy-", "2-Hydroxy-5-methoxybenzoic acid", "5-Methoxy-2-hydroxybenzoic acid", "5-Methoxysalicylic acid", "6-Methoxy-m-anisic acid", "NSC 2579", "5-Methoxy-2-hydroxybenzenecarboxylic acid"], "SMILES": "C(O)(=O)C1=CC(OC)=CC=C1O", "physical_data": {"Molecular Weight": "168.15", "Molecular Formula": "C8H8O4", "Melting Point": "145-146 \u00b0C"}}