{"cas_no": "2612-28-4", "cn_name": "2-\u6b63\u4e19\u57fa\u4e19\u70f7-1,3-\u4e8c\u9187", "en_name": ["2-Propyl-1,3-propanediol", "1,3-Propanediol, 2-propyl-", "2-Propyl-1,3-propanediol"], "SMILES": "C(CCC)(CO)CO", "physical_data": {"Molecular Weight": "118.17", "Molecular Formula": "C6H14O2", "Boiling Point": "95-108 \u00b0C @ Press: 0.05 Torr", "Density": "0.9659 g/cm\u00b3 @ Temp: 20 \u00b0C"}}