{"cas_no": "2613-27-6", "cn_name": "\u4e94\u6c1f\u5316(4-\u785d\u57fa\u82ef\u57fa)\u786b", "en_name": ["(OC-6-21)-Pentafluoro(4-nitrophenyl)sulfur", "Sulfur, pentafluoro(4-nitrophenyl)-, (OC-6-21)-", "(p-Nitrophenyl)sulfur pentafluoride", "Sulfur, pentafluoro(p-nitrophenyl)-", "(OC-6-21)-Pentafluoro(4-nitrophenyl)sulfur", "4-Nitrophenylsulfur pentafluoride", "4-Nitrobenzenesulfur pentafluoride", "Pentafluoro(4-nitrophenyl)sulfur", "4-Nitro(pentafluorosulfanyl)benzene", "4-(Pentafluorosulfanyl)-1-nitrobenzene", "1-Nitro-4-(pentafluorosulfanyl)benzene"], "SMILES": "S(F)(F)(F)(F)(F)C1=CC=C(N(=O)=O)C=C1", "physical_data": {"Molecular Weight": "249.16", "Molecular Formula": "C6H4F5NO2S", "Boiling Point": "89.2 \u00b0C @ Press: 3.8 Torr", "Melting Point": "37-38 \u00b0C"}}