{"cas_no": "26134-62-3", "cn_name": "\u6c2e\u5316\u9502", "en_name": ["Lithium nitride", "Lithium nitride (Li3N)", "Trilithium nitride (Li3N)", "Trilithium nitride", "Lithium nitride"], "SMILES": "N([Li])([Li])[Li]", "physical_data": {"Molecular Weight": "", "Molecular Formula": "Li3N", "Melting Point": "813 \u00b0C"}}