{"cas_no": "2613-89-0", "cn_name": "\u82ef\u4e19\u4e8c\u9178", "en_name": ["Phenylmalonic acid", "Propanedioic acid, 2-phenyl-", "Malonic acid, phenyl-", "Propanedioic acid, phenyl-", "2-Phenylpropanedioic acid", "Phenylmalonic acid", "Toluene-\u03b1,\u03b1-dicarboxylic acid", "2-Phenylmalonic acid", "\u03b1-Carboxyphenylacetic acid", "\u03b1-Phenylmalonic acid", "NSC 27164", "NSC 41697"], "SMILES": "C(C(O)=O)(C(O)=O)C1=CC=CC=C1", "physical_data": {"Molecular Weight": "180.16", "Molecular Formula": "C9H8O4", "Melting Point": "152 \u00b0C (decomp)"}}