{"cas_no": "2613-26-5", "cn_name": "\u4e94\u6c1f\u5316(3-\u785d\u57fa\u82ef\u57fa)\u786b", "en_name": ["(OC-6-21)-Pentafluoro(3-nitrophenyl)sulfur", "Sulfur, pentafluoro(3-nitrophenyl)-, (OC-6-21)-", "Sulfur, pentafluoro(m-nitrophenyl)-", "(m-Nitrophenyl)sulfur pentafluoride", "(OC-6-21)-Pentafluoro(3-nitrophenyl)sulfur", "(3-Nitrophenyl)sulfur pentafluoride", "3-(Pentafluorosulfanyl)nitrobenzene", "1-Nitro-3-(pentafluorosulfanyl)benzene", "3-(Pentafluorosulfanyl)-1-nitrobenzene"], "SMILES": "S(F)(F)(F)(F)(F)C1=CC(N(=O)=O)=CC=C1", "physical_data": {"Molecular Weight": "249.16", "Molecular Formula": "C6H4F5NO2S", "Boiling Point": "85.5 \u00b0C @ Press: 2.6 Torr", "Melting Point": "0 \u00b0C"}}