{"cas_no": "26146-27-0", "cn_name": "\u4e4c\u836f\u9187", "en_name": ["Lindenenol", "Cycloprop[2,3]indeno[5,6-b]furan-4-ol, 4,4a,5,5a,6,6a,6b,7-octahydro-3,6b-dimethyl-5-methylene-, (4R,4aS,5aS,6aR,6bS)-", "Cycloprop[2,3]indeno[5,6-b]furan-4-ol, 4\u03b2,4a\u03b1,5,5a\u03b1,6,6a\u03b1,6b,7-octahydro-3,6b\u03b2-dimethyl-5-methylene-", "Cycloprop[2,3]indeno[5,6-b]furan-4-ol, 4,4a,5,5a,6,6a,6b,7-octahydro-3,6b-dimethyl-5-methylene-, [4R-(4\u03b1,4a\u03b1,5a\u03b1,6a\u03b1,6b\u03b2)]-", "(4R,4aS,5aS,6aR,6bS)-4,4a,5,5a,6,6a,6b,7-Octahydro-3,6b-dimethyl-5-methylenecycloprop[2,3]indeno[5,6-b]furan-4-ol", "Lindenenol", "Linderene"], "SMILES": "CC12C(C(O)C3=C(C1)OC=C3C)C(=C)C4C2C4", "physical_data": {"Molecular Weight": "230.30", "Molecular Formula": "C15H18O2", "Melting Point": "145 \u00b0C"}}