{"cas_no": "26148-68-5", "cn_name": "2-\u6c28\u57fa-9H-\u5421\u5576[2,3-b]\u5432\u54da", "en_name": ["2-Amino-9H-pyrido[2,3-b]indole", "9H-Pyrido[2,3-b]indol-2-amine", "9H-Pyrido[2,3-b]indole, 2-amino-", "1H-Pyrido[2,3-b]indol-2-amine", "2-Amino-9H-pyrido[2,3-b]indole", "9H-1,9-Diazafluoren-2-amine", "2-Amino-\u03b1-carboline", "AaC", "A\u03b1C"], "SMILES": "NC=1N=C2C(C=3C(N2)=CC=CC3)=CC1", "physical_data": {"Molecular Weight": "183.21", "Molecular Formula": "C11H9N3", "Melting Point": "202 \u00b0C"}}