{"cas_no": "26153-38-8", "cn_name": "3,5-\u4e8c\u7f9f\u57fa\u82ef\u7532\u919b", "en_name": ["3,5-Dihydroxybenzaldehyde", "Benzaldehyde, 3,5-dihydroxy-", "\u03b1-Resorcylaldehyde", "3,5-Dihydroxybenzaldehyde"], "SMILES": "C(=O)C1=CC(O)=CC(O)=C1", "physical_data": {"Molecular Weight": "138.12", "Molecular Formula": "C7H6O3", "Melting Point": "145-146 \u00b0C"}}