{"cas_no": "2615-15-8", "cn_name": "\u516d\u7518\u9187", "en_name": ["Hexaethylene glycol", "3,6,9,12,15-Pentaoxaheptadecane-1,17-diol", "Hexaethylene glycol", "Hexaoxyethylene glycol", "Ethanol, 2,2\u2032-[oxybis(oxy-2,1-ethanediyloxy-2,1-ethanediyloxy)]bis-", "Hexagol", "NSC 201209", "2-[2-[2-[2-[2-(2-Hydroxyethoxy)ethoxy]ethoxy]ethoxy]ethoxy]ethanol"], "SMILES": "O(CCOCCOCCO)CCOCCOCCO", "physical_data": {"Molecular Weight": "282.33", "Molecular Formula": "C12H26O7", "Boiling Point": "217 \u00b0C", "Melting Point": "5-7 \u00b0C", "Density": "1.0948 g/cm\u00b3 @ Temp: 60 \u00b0C"}}