{"cas_no": "26156-51-4", "cn_name": "2-\u7532\u6c27\u57fa\u5f02\u70df\u9178\u7532\u916f", "en_name": ["4-Pyridinecarboxylic acid, 2-methoxy-, methyl ester", "4-Pyridinecarboxylic acid, 2-methoxy-, methyl ester", "Isonicotinic acid, 2-methoxy-, methyl ester", "Methyl 2-methoxy-4-pyridinecarboxylate", "Methyl 2-methoxyisonicotinate", "2-Methoxyisonicotinic acid methyl ester"], "SMILES": "C(OC)(=O)C=1C=C(OC)N=CC1", "physical_data": {"Molecular Weight": "167.16", "Molecular Formula": "C8H9NO3", "Boiling Point": "120 \u00b0C @ Press: 1 Torr", "Melting Point": "33-35 \u00b0C"}}