{"cas_no": "26159-35-3", "cn_name": "\u8418\u666e\u751f\u6742\u8d28E", "en_name": ["(+)-Naproxen methyl ester", "2-Naphthaleneacetic acid, 6-methoxy-\u03b1-methyl-, methyl ester, (\u03b1S)-", "2-Naphthaleneacetic acid, 6-methoxy-\u03b1-methyl-, methyl ester, (S)-", "Naproxen methyl ester", "(S)-Naproxen methyl ester", "(+)-Naproxen methyl ester", "Methyl (S)-2-(6-methoxynaphthalen-2-yl)propanoate", "2-Naphthaleneacetic acid 6-methoxy-\u03b1-methyl-, methyl ester (\u03b1S)-"], "SMILES": "C(C(OC)=O)(C)C1=CC2=C(C=C(OC)C=C2)C=C1", "physical_data": {"Molecular Weight": "244.29", "Molecular Formula": "C15H16O3", "Melting Point": "87 \u00b0C"}}