{"cas_no": "2615-25-0", "cn_name": "\u53cd\u5f0f-1,4-\u73af\u5df1\u4e8c\u80fa", "en_name": ["trans-1,4-Diaminocyclohexane", "1,4-Cyclohexanediamine, trans-", "trans-1,4-Cyclohexanediamine", "trans-1,4-Diaminocyclohexane", "trans-1,4-Bisaminocyclohexane", "1,4-trans-Diaminocyclohexane"], "SMILES": "NC1CCC(N)CC1", "physical_data": {"Molecular Weight": "114.19", "Molecular Formula": "C6H14N2", "Melting Point": "258-260 \u00b0C"}}