{"cas_no": "2615-11-4", "cn_name": "4,4'-\u5bf9\u4e8c\u4e59\u9170\u57fa\u4e8c\u82ef\u919a", "en_name": ["1,1\u2032-(Oxydi-4,1-phenylene)bis[ethanone]", "Ethanone, 1,1\u2032-(oxydi-4,1-phenylene)bis-", "Acetophenone, 4\u2032,4\u2032\u2032\u2032-oxydi-", "1,1\u2032-(Oxydi-4,1-phenylene)bis[ethanone]", "4,4\u2032-Diacetyldiphenyl oxide", "p,p\u2032-Diacetyldiphenyl ether", "Bis(p-acetylphenyl) ether", "Bis(4-acetylphenyl) ether", "4,4\u2032-Diacetyldiphenyl ether", "4,4\u2032-Oxydiacetophenone", "4,4\u2032-Oxybis(acetophenone)", "NSC 214", "1-[4-(4-Acetylphenoxy)phenyl]ethanone", "1-[4-(4-Acetylphenoxy)phenyl]ethan-1-one"], "SMILES": "O(C1=CC=C(C(C)=O)C=C1)C2=CC=C(C(C)=O)C=C2", "physical_data": {"Molecular Weight": "254.28", "Molecular Formula": "C16H14O3", "Boiling Point": "213-217 \u00b0C @ Press: 0.3-0.5 Torr", "Melting Point": "100-101 \u00b0C"}}