{"cas_no": "26159-34-2", "cn_name": "\u8418\u666e\u751f\u94a0", "en_name": ["Naproxen sodium", "2-Naphthaleneacetic acid, 6-methoxy-\u03b1-methyl-, sodium salt (1:1), (\u03b1S)-", "2-Naphthaleneacetic acid, 6-methoxy-\u03b1-methyl-, sodium salt, L-(-)-", "2-Naphthaleneacetic acid, 6-methoxy-\u03b1-methyl-, sodium salt, (S)-", "2-Naphthaleneacetic acid, 6-methoxy-\u03b1-methyl-, sodium salt, (\u03b1S)-", "Naproxen sodium", "Sodium naproxen", "Naprosyn sodium", "Sodium naprosyn", "Sodium (+)-6-methoxy-2-naphthalenepropionate", "Sodium d-2-(6-methoxy-2-naphthyl)propionate", "Apranax", "Aleve", "Xenobid", "Anaprox", "Anaprox DS", "Naprelan", "Flanax Forte", "Naprogesic", "Apraxin", "Uniflam", "Lefaine", "Sutolin", "Duk-F", "Agilxen", "Synflex", "Apronax", "Licorax", "Flanax", "Anax", "Dafloxen", "Narocin", "Gynestrel", "Axer", "Miranax", "RS 3560", "Primeral", "(2S)-2-(6-Methoxy-2-naphthyl)propanoic acid sodium salt", "Aflaxen", "Synflex Forte", "Sunprox", "(+)-(S)-Naproxen sodium salt"], "SMILES": "C(C(O)=O)(C)C1=CC2=C(C=C(OC)C=C2)C=C1.[Na]", "physical_data": {"Molecular Weight": "", "Molecular Formula": "C14H14O3.Na", "Melting Point": "244-246 \u00b0C"}}