{"cas_no": "26165-45-7", "cn_name": "3-(1-\u5421\u54af\u57fa)\u4e19\u8148", "en_name": ["1-Pyrrolidinepropanenitrile", "1-Pyrrolidinepropanenitrile", "1-Pyrrolidinepropionitrile", "\u03b2-Pyrrolidinopropionitrile", "N-(\u03b2-Cyanoethyl)pyrrolidine", "N-(2-Cyanoethyl)pyrrolidine", "3-(1-Pyrrolidinyl)propionitrile", "3-(Pyrrolidin-1-yl)propanenitrile"], "SMILES": "C(CC#N)N1CCCC1", "physical_data": {"Molecular Weight": "124.18", "Molecular Formula": "C7H12N2", "Boiling Point": "110-112 \u00b0C @ Press: 28 Torr"}}