{"cas_no": "26164-26-1", "cn_name": "(S)-(+)-alpha-\u7532\u6c27\u57fa\u82ef\u4e59\u9178", "en_name": ["(+)-Methoxyphenylacetic acid", "Benzeneacetic acid, \u03b1-methoxy-, (\u03b1S)-", "Acetic acid, methoxyphenyl-, (S)-", "Benzeneacetic acid, \u03b1-methoxy-, (S)-", "(\u03b1S)-\u03b1-Methoxybenzeneacetic acid", "(S)-O-Methylmandelic acid", "(S)-Methoxyphenylacetic acid", "(S)-\u03b1-Methoxyphenylacetic acid", "(S)-2-Methoxy-2-phenylacetic acid", "(2S)-O-Methylmandelic acid", "(S)-(+)-O-Methylmandelic acid", "L-\u03b1-Methoxyphenylacetic acid", "(+)-2-Methoxyphenylacetic acid", "(S)-\u03b1-Methoxy-\u03b1-phenylacetic acid", "(+)-\u03b1-Methoxyphenylacetic acid", "(S)-(+)-\u03b1-Methoxyphenylacetic acid", "(S)-(+)-2-Methoxy-2-phenylacetic acid", "(S)-\u03b1-Methoxybenzeneacetic acid", "(+)-Methoxyphenylacetic acid", "(+)-2-Methoxy-2-phenylacetic acid", "(S)-\u03b1-Methoxybenzeneethanoic acid", "(S)-(+)-Methoxyphenylacetic acid", "(S)-2-Methoxy-2-(phenyl)ethanoic acid", "(S)-2-Methoxyphenylacetic acid", "(2S)-Methoxy(phenyl)ethanoic acid"], "SMILES": "C(C(O)=O)(OC)C1=CC=CC=C1", "physical_data": {"Molecular Weight": "166.17", "Molecular Formula": "C9H10O3", "Melting Point": "65-66 \u00b0C"}}