{"cas_no": "26166-37-0", "cn_name": "\u5149\u7fe0\u96c0\u78b1", "en_name": ["Denudatine", "8,10a-Ethano-11,3,6a-ethanylylidene-8H-indeno[2,1-b]azocine-7,10-diol, 1-ethyldodecahydro-3-methyl-9-methylene-, (3R,6aS,6bS,7S,8R,10R,10aS,11R,11aR,13R)-", "Denudatine", "7,20-Cycloatidane-11,15-diol, 16,17-didehydro-21-ethyl-4-methyl-, (11\u03b2,15\u03b2)-", "(3R,6aS,6bS,7S,8R,10R,10aS,11R,11aR,13R)-1-Ethyldodecahydro-3-methyl-9-methylene-8,10a-ethano-11,3,6a-ethanylylidene-8H-indeno[2,1-b]azocine-7,10-diol", "8,10a-Ethano-11,3,6a-ethanylylidene-8H-indeno[2,1-b]azocine-7,10-diol, 1-ethyldodecahydro-3-methyl-9-methylene-, [3R-(3\u03b1,6a\u03b1,6b\u03b1,7\u03b1,8\u03b2,10\u03b1,10a\u03b2,11\u03b1,11a\u03b2,13R*)]-"], "SMILES": "OC1C2C34C5C(C26C(O)C(=C)C1CC6)CC3C(C)(CN5CC)CCC4", "physical_data": {"Molecular Weight": "343.50", "Molecular Formula": "C22H33NO2", "Melting Point": "248-249 \u00b0C"}}