{"cas_no": "26171-83-5", "cn_name": "1,2-\u4e01\u4e8c\u9187", "en_name": ["1,2-Butanediol", "1,2-Butanediol", "1,2-Butylene glycol", "1,2-Dihydroxybutane", "DL-1,2-Butanediol", "(\u00b1)-Butane-1,2-diol", "NSC 24242"], "SMILES": "C(CC)(CO)O", "physical_data": {"Molecular Weight": "90.12", "Molecular Formula": "C4H10O2", "Boiling Point": "195-196.9 \u00b0C", "Melting Point": "-50 \u00b0C", "Density": "1.0023 g/cm\u00b3 @ Temp: 20 \u00b0C"}}