{"cas_no": "26170-87-6", "cn_name": "4-\u82ef\u57fa-2-\u567b\u5429\u82ef\u7532\u919b", "en_name": ["4-Phenyl-2-thiophenecarboxaldehyde", "2-Thiophenecarboxaldehyde, 4-phenyl-", "4-Phenyl-2-thiophenecarboxaldehyde", "4-Phenylthiophene-2-aldehyde"], "SMILES": "C(=O)C1=CC(=CS1)C2=CC=CC=C2", "physical_data": {"Molecular Weight": "188.25", "Molecular Formula": "C11H8OS", "Boiling Point": "80 \u00b0C @ Press: 0.1 Torr", "Melting Point": "56-57 \u00b0C"}}