{"cas_no": "26172-55-4", "cn_name": "\u5f02\u567b\u5511\u5549\u916e", "en_name": ["5-Chloro-2-methyl-4-isothiazolin-3-one", "3(2H)-Isothiazolone, 5-chloro-2-methyl-", "4-Isothiazolin-3-one, 5-chloro-2-methyl-", "5-Chloro-2-methyl-3(2H)-isothiazolone", "5-Chloro-N-methylisothiazolin-3-one", "5-Chloro-2-methyl-3-isothiazolone", "N-Methyl-5-chloroisothiazolin-3-one", "2-Methyl-5-chloro-3-isothiazolone", "Kathon CG 5243", "5-Chloro-2-methyl-4-isothiazolin-3-one", "2-Methyl-5-chloroisothiazolin-3-one", "5-Chloro-2-methylisothiazolin-3-one", "5-Chloro-2-methyl-2H-isothiazol-3-one", "5-Chloro-N-methylisothiazolone", "N-Methyl-5-chloroisothiazolone", "Methylchloroisothiazolinone", "Kathon IXE", "HS 818", "HS 818 (antiseptic)", "A 33", "A 33 (bactericide)", "Bioace", "T 360", "CIT", "CMIT", "5-Chloro-2-methyl-3(2H)-isothiazolinone", "5-Chloro-2-methyl-2H-isothiazolin-3-one", "5-Chloro-2-methyl-4-isothiazoline-3-ketone", "XL 2", "XL 2 (bactericide)", "Acticide C 1", "Kathon CJ 1", "Acticide MV 1"], "SMILES": "O=C1N(C)SC(Cl)=C1", "physical_data": {"Molecular Weight": "149.60", "Molecular Formula": "C4H4ClNOS", "Melting Point": "52 \u00b0C"}}