{"cas_no": "2617-79-0", "cn_name": "N-(4-\u6c2f\u82ef)\u7532\u9170\u80fa", "en_name": ["N-(4-Chlorophenyl)formamide", "Formamide, N-(4-chlorophenyl)-", "Formanilide, 4\u2032-chloro-", "N-(4-Chlorophenyl)formamide", "p-Chloroformanilide", "4\u2032-Chloroformanilide", "N-(p-Chlorophenyl)formamide", "N-Formyl-p-chloroaniline", "NSC 26266"], "SMILES": "N(C=O)C1=CC=C(Cl)C=C1", "physical_data": {"Molecular Weight": "155.58", "Molecular Formula": "C7H6ClNO", "Melting Point": "104 \u00b0C"}}