{"cas_no": "26177-44-6", "cn_name": "4-\u6eb4\u82c4\u80fa\u76d0\u9178\u76d0", "en_name": ["4-Bromobenzylamine hydrochloride", "Benzenemethanamine, 4-bromo-, hydrochloride (1:1)", "Benzylamine, p-bromo-, hydrochloride", "Benzenemethanamine, 4-bromo-, hydrochloride", "4-Bromobenzylammonium chloride", "p-Bromobenzylamine hydrochloride", "4-Bromobenzylamine hydrochloride", "4-Bromobenzylamine monohydrochloride", "(4-Bromophenyl)methanamine hydrochloride", "(4-Bromophenyl)methanaminium chloride"], "SMILES": "C(N)C1=CC=C(Br)C=C1.Cl", "physical_data": {"Molecular Weight": "", "Molecular Formula": "C7H8BrN.ClH", "Melting Point": "267-270 \u00b0C"}}