{"cas_no": "26171-23-3", "cn_name": "\u6258\u9ea6\u6c40", "en_name": ["Tolmetin", "1H-Pyrrole-2-acetic acid, 1-methyl-5-(4-methylbenzoyl)-", "Pyrrole-2-acetic acid, 1-methyl-5-p-toluoyl-", "1-Methyl-5-(4-methylbenzoyl)-1H-pyrrole-2-acetic acid", "Tolmetin", "1-Methyl-5-p-toluoylpyrrole-2-acetic acid", "McN 2559", "5-[(p-Tolyl)carbonyl]-1-methylpyrrole-2-acetic acid", "Tolmetine", "2-[1-Methyl-5-(4-methylbenzoyl)-1H-pyrrol-2-yl]acetic acid", "MeSH ID: D014046"], "SMILES": "C(=O)(C=1N(C)C(CC(O)=O)=CC1)C2=CC=C(C)C=C2", "physical_data": {"Molecular Weight": "257.28", "Molecular Formula": "C15H15NO3", "Melting Point": "155-157 \u00b0C (decomp)"}}