{"cas_no": "26177-43-5", "cn_name": "3-\u785d\u57fa\u82c4\u80fa\u76d0\u9178\u76d0", "en_name": ["Benzenemethanamine, 3-nitro-, hydrochloride (1:1)", "Benzenemethanamine, 3-nitro-, hydrochloride (1:1)", "Benzylamine, m-nitro-, monohydrochloride", "Benzenemethanamine, 3-nitro-, monohydrochloride", "Benzylamine, m-nitro-, hydrochloride", "3-Nitrobenzylamine monohydrochloride", "3-Nitrobenzylamine hydrochloride", "m-Nitrobenzylamine hydrochloride", "3-Nitrobenzylammonium chloride", "3-Nitrobenzenemethanamine hydrochloride", "(3-Nitrophenyl)methanamine hydrochloride"], "SMILES": "N(=O)(=O)C1=CC(CN)=CC=C1.Cl", "physical_data": {"Molecular Weight": "", "Molecular Formula": "C7H8N2O2.ClH", "Melting Point": "225-227 \u00b0C"}}