{"cas_no": "26186-00-5", "cn_name": "1-\u5341\u4e03\u7094", "en_name": ["1-Heptadecyne", "1-Heptadecyne"], "SMILES": "C(CCCCCCCC)CCCCCCC#C", "physical_data": {"Molecular Weight": "236.44", "Molecular Formula": "C17H32", "Boiling Point": "171 \u00b0C @ Press: 17 Torr", "Melting Point": "26 \u00b0C"}}