{"cas_no": "2618-96-4", "cn_name": "\u53cc\u82ef\u78fa\u9170\u4e9a\u80fa", "en_name": ["N-(Phenylsulfonyl)benzenesulfonamide", "Benzenesulfonamide, N-(phenylsulfonyl)-", "Dibenzenesulfonamide", "N-(Phenylsulfonyl)benzenesulfonamide", "Dibenzolsulfimide", "Dibenzolsulfimid", "Dibenzenesulfimide", "Dibenzenesulfonic acid imide", "Bis(phenylsulfonyl)amine", "Dibenzenesulfonimide", "Di(benzenesulfonyl)amine", "Bis(phenylsulfonyl)imine", "Bis(benzenesulfonyl)imide"], "SMILES": "S(NS(=O)(=O)C1=CC=CC=C1)(=O)(=O)C2=CC=CC=C2", "physical_data": {"Molecular Weight": "297.35", "Molecular Formula": "C12H11NO4S2", "Melting Point": "188 \u00b0C"}}