{"cas_no": "26186-02-7", "cn_name": "1-\u5341\u4e09\u7094", "en_name": ["1-Tridecyne", "1-Tridecyne", "1-Tridecylene"], "SMILES": "C(CCCCCC)CCCCC#C", "physical_data": {"Molecular Weight": "180.33", "Molecular Formula": "C13H24", "Boiling Point": "130 \u00b0C @ Press: 30 Torr", "Melting Point": "2.5 \u00b0C"}}