{"cas_no": "26184-62-3", "cn_name": "(S)-(+)-2-\u620a\u9187", "en_name": ["(+)-2-Pentanol", "2-Pentanol, (2S)-", "2-Pentanol, (S)-", "(2S)-2-Pentanol", "d-2-Pentanol", "(S)-Pentan-2-ol", "(2S)-(+)-Pentanol", "(+)-2-Pentanol", "(2S)-Pentan-2-ol", "(S)-(+)-2-Pentanol"], "SMILES": "C(C(C)O)CC", "physical_data": {"Molecular Weight": "88.15", "Molecular Formula": "C5H12O", "Boiling Point": "116-118 \u00b0C @ Press: 747 Torr"}}