{"cas_no": "26191-64-0", "cn_name": "4-(4-\u7532\u57fa\u82ef\u57fa)\u82ef\u915a", "en_name": ["4\u2032-Methyl[1,1\u2032-biphenyl]-4-ol", "[1,1\u2032-Biphenyl]-4-ol, 4\u2032-methyl-", "4-Biphenylol, 4\u2032-methyl-", "Phenol, p-(p-tolyl)-", "4\u2032-Methyl[1,1\u2032-biphenyl]-4-ol", "4\u2032-Methyl-4-biphenylol", "4-Hydroxy-4\u2032-methylbiphenyl", "4\u2032-Methyl-4-hydroxybiphenyl", "4-(4\u2032-Methylphenyl)phenol", "4-Hydroxy-4\u2032-methyl-1,1\u2032-biphenyl", "4-(4-Methylphenyl)phenol", "4\u2032-Methyl-1,1\u2032-biphenyl-4-ol"], "SMILES": "CC1=CC=C(C=C1)C2=CC=C(O)C=C2", "physical_data": {"Molecular Weight": "184.23", "Molecular Formula": "C13H12O", "Melting Point": "152-153 \u00b0C"}}