{"cas_no": "26196-45-2", "cn_name": "2-\u6c2f-5-\u785d\u57fa-1,4-\u82ef\u4e8c\u80fa", "en_name": ["2-Chloro-5-nitro-1,4-benzenediamine", "1,4-Benzenediamine, 2-chloro-5-nitro-", "p-Phenylenediamine, 2-chloro-5-nitro-", "2-Chloro-5-nitro-1,4-benzenediamine", "1,4-Diamino-2-nitro-5-chlorobenzene", "2-Chloro-4-amino-5-nitroaniline", "2,5-Diamino-4-chloronitrobenzene", "1,4-Diamino-5-chloro-2-nitrobenzene", "5-Chloro-2-nitro-1,4-phenylenediamine", "2-Chloro-5-nitro-p-phenylenediamine", "1-Amino-2-nitro-5-chloro-4-aminobenzene"], "SMILES": "N(=O)(=O)C1=C(N)C=C(Cl)C(N)=C1", "physical_data": {"Molecular Weight": "187.58", "Molecular Formula": "C6H6ClN3O2", "Melting Point": "156-157 \u00b0C"}}