{"cas_no": "261953-36-0", "cn_name": "6-\u7898-1H-\u5432\u5511", "en_name": ["6-Iodo-1H-indazole", "1H-Indazole, 6-iodo-", "6-Iodo-1H-indazole"], "SMILES": "IC=1C=C2C(=CC1)C=NN2", "physical_data": {"Molecular Weight": "244.03", "Molecular Formula": "C7H5IN2", "Melting Point": "204 \u00b0C"}}