{"cas_no": "262-12-4", "cn_name": "\u4e8c\u82ef\u5e76-\u5bf9-\u4e8c\u6076\u82f1", "en_name": ["Dibenzo[b,e][1,4]dioxin", "Dibenzo[b,e][1,4]dioxin", "Dibenzo-p-dioxin", "Diphenylene dioxide", "Oxanthrene", "Dibenzo[1,4]dioxin", "Phenodioxin", "1: PN: KR20200105122 SEQID: 1 claimed sequence"], "SMILES": "C1=2C(OC=3C(O1)=CC=CC3)=CC=CC2", "physical_data": {"Molecular Weight": "184.19", "Molecular Formula": "C12H8O2", "Melting Point": "119 \u00b0C"}}