{"cas_no": "262-20-4", "cn_name": "\u5429\u6076\u567b", "en_name": ["Phenoxathiin", "Phenoxathiin", "Dibenzothioxin", "Phenothioxin", "Phenoxthin", "Phenoxathiane", "NSC 464", "RJC 03297"], "SMILES": "C1=2C(SC=3C(O1)=CC=CC3)=CC=CC2", "physical_data": {"Molecular Weight": "200.26", "Molecular Formula": "C12H8OS", "Boiling Point": "120-121 \u00b0C @ Press: 1 Torr", "Melting Point": "57.5-58 \u00b0C"}}