{"cas_no": "2620-63-5", "cn_name": "\u918b\u8c37\u80fa", "en_name": ["N-Acetylglycinamide", "Acetamide, N-(2-amino-2-oxoethyl)-", "Acetamide, 2-acetamido-", "N-(2-Amino-2-oxoethyl)acetamide", "N,2\u2032-Biacetamide", "Aceturamide", "N-Acetylglycinamide", "N-Acetyl glycine amide", "NSC 514773", "2-Acetamidoacetamide", "Aglyam"], "SMILES": "C(NC(C)=O)C(N)=O", "physical_data": {"Molecular Weight": "116.12", "Molecular Formula": "C4H8N2O2", "Melting Point": "140-143 \u00b0C"}}