{"cas_no": "2620-50-0", "cn_name": "3,4-\u4e9a\u7532\u4e8c\u6c27\u57fa\u82c4\u80fa", "en_name": ["1,3-Benzodioxole-5-methanamine", "1,3-Benzodioxole-5-methanamine", "Piperonylamine", "1-(Aminomethyl)-3,4-(methylenedioxy)benzene", "3,4-(Methylenedioxy)benzylamine", "1,3-Benzodioxol-5-ylmethylamine", "3,4-Methylenedioxyphenylmethylamine", "1,3-Benzodioxol-5-ylmethanamine", "[(Benzodioxol-5-yl)methyl]amine", "NSC 75851", "5-Aminomethyl-1,3-benzodioxole", "1-(1,3-Benzodioxol-5-yl)methanamine", "(Benzo[d][1,3]dioxol-5-yl)methanamine", "[(Benzo[d][1,3]dioxol-5-yl)methyl]amine", "3\u2032,4\u2032-(Methylenedioxy)benzylamine", "C-(Benzo[1,3]dioxol-5-yl)methylamine", "(1,3-Dioxaindan-5-yl)methanamine", "2H-1,3-Benzodioxol-5-ylmethanamine", "1,3-Benzodioxole-5-methylamine"], "SMILES": "C(N)C=1C=C2C(=CC1)OCO2", "physical_data": {"Molecular Weight": "151.16", "Molecular Formula": "C8H9NO2", "Boiling Point": "137-140 \u00b0C @ Press: 13 Torr"}}