{"cas_no": "2620-05-5", "cn_name": "2-\u6c2f-N-\u7532\u57fa-N-\u82ef\u57fa\u4e59\u9170\u80fa", "en_name": ["2-Chloro-N-methyl-N-phenylacetamide", "Acetamide, 2-chloro-N-methyl-N-phenyl-", "Acetanilide, 2-chloro-N-methyl-", "2-Chloro-N-methyl-N-phenylacetamide", "N-Chloroacetyl-N-methylaniline", "2-Chloro-N-methylacetanilide", "N-Methylchloroacetanilide", "\u03b1-Chloro-N-methylacetanilide", "Chloroacetic acid N-methylanilide", "NSC 8283", "N-Methyl-N-phenylchloracetamide", "N-Methyl-N-phenylchloroacetamide", "[N-Methyl-N-(phenyl)aminocarbonylmethyl]chloride"], "SMILES": "N(C(CCl)=O)(C)C1=CC=CC=C1", "physical_data": {"Molecular Weight": "183.63", "Molecular Formula": "C9H10ClNO", "Boiling Point": "126-132 \u00b0C @ Press: 6 Torr", "Melting Point": "70 \u00b0C"}}