{"cas_no": "2620-62-4", "cn_name": "N6,N6-\u4e8c\u7532\u57fa\u817a\u82f7", "en_name": ["N6-Dimethyladenosine", "Adenosine, N,N-dimethyl-", "N,N-Dimethyladenosine", "6-(Dimethylamino)purine riboside", "6-(Dimethylamino)purine ribonucleoside", "6-Dimethylaminopurine D-riboside", "6-Dimethylamino-9-(\u03b2-D-ribofuranosyl)purine", "N6-Dimethyladenosine", "N6,N6-Dimethyladenosine"], "SMILES": "OC1C(N2C=3C(N=C2)=C(N(C)C)N=CN3)OC(CO)C1O", "physical_data": {"Molecular Weight": "295.29", "Molecular Formula": "C12H17N5O4", "Melting Point": "183-184 \u00b0C"}}