{"cas_no": "2620-44-2", "cn_name": "1,2-\u4e9a\u7532\u57fa\u53cc\u6c27-4-\u785d\u57fa\u82ef", "en_name": ["6-Nitro-1,3-benzodioxole", "1,3-Benzodioxole, 5-nitro-", "Benzene, 1,2-(methylenedioxy)-4-nitro-", "5-Nitro-1,3-benzodioxole", "3,4-(Methylenedioxy)-1-nitrobenzene", "5-Nitrobenzodioxole", "1,2-(Methylenedioxy)-4-nitrobenzene", "3,4-Methylenedioxynitrobenzene", "4-Nitro-1,2-methylenedioxybenzene", "1-Nitro-3,4-methylenedioxybenzene", "NSC 5562", "6-Nitro-1,3-benzodioxole", "5-Nitrobenzo[d][1,3]dioxole"], "SMILES": "N(=O)(=O)C=1C=C2C(=CC1)OCO2", "physical_data": {"Molecular Weight": "167.12", "Molecular Formula": "C7H5NO4", "Melting Point": "145 \u00b0C"}}