{"cas_no": "26218-75-7", "cn_name": "6-\u6eb4-2-\u5421\u5576\u7532\u9178\u7532\u916f", "en_name": ["Methyl 6-bromo-2-pyridinecarboxylate", "2-Pyridinecarboxylic acid, 6-bromo-, methyl ester", "Picolinic acid, 6-bromo-, methyl ester", "Methyl 6-bromo-2-pyridinecarboxylate", "Methyl 2-bromopyridine-6-carboxylate", "Methyl 6-bromopicolinate", "6-Bromopyridine-2-carboxylic acid methyl ester", "Methyl 6-bromopyridine-2-carboxylate", "6-Bromopicolinic acid methyl ester"], "SMILES": "C(OC)(=O)C=1N=C(Br)C=CC1", "physical_data": {"Molecular Weight": "216.03", "Molecular Formula": "C7H6BrNO2", "Melting Point": "93-94 \u00b0C"}}