{"cas_no": "2621-79-6", "cn_name": "N-\u7532\u57fa-N-\u82ef\u57fa\u4e4c\u62c9\u5766", "en_name": ["Ethyl N-methyl-N-phenylcarbamate", "Carbamic acid, N-methyl-N-phenyl-, ethyl ester", "Carbanilic acid, N-methyl-, ethyl ester", "Carbamic acid, methylphenyl-, ethyl ester", "Ethyl N-methyl-N-phenylcarbamate", "Ethyl methylphenylcarbamate", "Ethyl N-methylcarbanilate", "NSC 65608"], "SMILES": "N(C(OCC)=O)(C)C1=CC=CC=C1", "physical_data": {"Molecular Weight": "179.22", "Molecular Formula": "C10H13NO2", "Boiling Point": "116 \u00b0C @ Press: 8 Torr", "Melting Point": "242-244 \u00b0C"}}