{"cas_no": "2621-62-7", "cn_name": "N-(2,5-\u4e8c\u6c2f\u82ef\u57fa\u4e59\u9170\u80fa)", "en_name": ["N-(2,5-Dichlorophenyl)acetamide", "Acetamide, N-(2,5-dichlorophenyl)-", "Acetanilide, 2\u2032,5\u2032-dichloro-", "N-(2,5-Dichlorophenyl)acetamide", "2\u2032,5\u2032-Dichloroacetanilide", "N-Acetyl-2,5-dichloroaniline", "NSC 28454"], "SMILES": "N(C(C)=O)C1=C(Cl)C=CC(Cl)=C1", "physical_data": {"Molecular Weight": "204.05", "Molecular Formula": "C8H7Cl2NO", "Melting Point": "133 \u00b0C"}}