{"cas_no": "26218-80-4", "cn_name": "6-\u7532\u6c27\u57fa\u70df\u9178\u7532\u916f", "en_name": ["3-Pyridinecarboxylic acid, 6-methoxy-, methyl ester", "3-Pyridinecarboxylic acid, 6-methoxy-, methyl ester", "Nicotinic acid, 6-methoxy-, methyl ester", "Methyl 6-Methoxynicotinate", "6-Methoxynicotinic acid methyl ester", "Methyl 6-methoxypyridine-3-carboxylate", "Methyl 2-methoxypyridine-5-carboxylate"], "SMILES": "C(OC)(=O)C=1C=CC(OC)=NC1", "physical_data": {"Molecular Weight": "167.16", "Molecular Formula": "C8H9NO3", "Boiling Point": "93 \u00b0C @ Press: 3 Torr", "Melting Point": "48-49 \u00b0C"}}