{"cas_no": "2621-99-0", "cn_name": "N-[4-(\u78fa\u9170\u80fa)\u82ef\u57fa]\u4e19\u70ef\u9170\u80fa", "en_name": ["N-[4-(Aminosulfonyl)phenyl]-2-propenamide", "2-Propenamide, N-[4-(aminosulfonyl)phenyl]-", "Acrylanilide, 4\u2032-sulfamoyl-", "N-[4-(Aminosulfonyl)phenyl]-2-propenamide", "4\u2032-Sulfamoylacrylanilide", "N-(p-Aminosulfonylphenyl)acrylamide", "NSC 506350", "N-(4-Sulfamoylphenyl)acrylamide"], "SMILES": "S(N)(=O)(=O)C1=CC=C(NC(C=C)=O)C=C1", "physical_data": {"Molecular Weight": "226.25", "Molecular Formula": "C9H10N2O3S", "Melting Point": "215 \u00b0C"}}