{"cas_no": "2621-80-9", "cn_name": "(4-\u6c2f\u82ef\u57fa)\u6c28\u57fa\u7532\u9178\u4e59\u916f", "en_name": ["Carbamic acid, N-(4-chlorophenyl)-, ethyl ester", "Carbamic acid, N-(4-chlorophenyl)-, ethyl ester", "Carbanilic acid, p-chloro-, ethyl ester", "Carbamic acid, (4-chlorophenyl)-, ethyl ester", "Ethyl N-(p-chlorophenyl)carbamate", "p-Chlorophenylurethane", "N-(4-Chlorophenyl)ethylurethane", "Ethyl p-chlorocarbanilate", "Ethyl N-(4-chlorophenyl)carbamate", "Ethyl 4-chlorocarbanilate", "Ethyl (p-chlorophenyl)carbamate", "Ethyl 4-chlorophenylcarbamate", "NSC 26960"], "SMILES": "N(C(OCC)=O)C1=CC=C(Cl)C=C1", "physical_data": {"Molecular Weight": "199.63", "Molecular Formula": "C9H10ClNO2", "Boiling Point": "66-68 \u00b0C", "Melting Point": "69 \u00b0C"}}