{"cas_no": "26225-79-6", "cn_name": "\u4e59\u6c27\u544b\u8349\u9ec4", "en_name": ["Ethofumesate", "5-Benzofuranol, 2-ethoxy-2,3-dihydro-3,3-dimethyl-, 5-methanesulfonate", "5-Benzofuranol, 2-ethoxy-2,3-dihydro-3,3-dimethyl-, methanesulfonate, (\u00b1)-", "5-Benzofuranol, 2-ethoxy-2,3-dihydro-3,3-dimethyl-, methanesulfonate", "NC 8438", "(\u00b1)-2-Ethoxy-2,3-dihydro-3,3-dimethyl-5-benzofuranyl methanesulfonate", "(\u00b1)-2,3-Dihydro-3,3-dimethyl-2-ethoxy-5-benzofuranyl methanesulfonate", "Ethofumesate", "Nortron (new)", "Tramat", "Nortron", "CR 14658", "Nortron 20EC", "Stemat", "Kemiron Plus", "Kemiron Plus FL", "Ethosat", "Tramat 500", "Tramat Flo", "Burakosat", "Prograss"], "SMILES": "CC1(C)C=2C(OC1OCC)=CC=C(OS(C)(=O)=O)C2", "physical_data": {"Molecular Weight": "286.34", "Molecular Formula": "C13H18O5S", "Melting Point": "71 \u00b0C"}}