{"cas_no": "2622-14-2", "cn_name": "\u4e09\u73af\u5df1\u57fa\u81a6", "en_name": ["Tricyclohexylphosphine", "Phosphine, tricyclohexyl-", "Tricyclohexylphosphine", "Tris(cyclohexyl)phosphine", "NSC 158657"], "SMILES": "P(C1CCCCC1)(C2CCCCC2)C3CCCCC3", "physical_data": {"Molecular Weight": "280.43", "Molecular Formula": "C18H33P", "Melting Point": "76-78 \u00b0C"}}