{"cas_no": "2622-08-4", "cn_name": "\u4e9a\u78f7\u9178\u4e09\u90bb\u7532\u82ef\u916f", "en_name": ["Phosphorous acid, tris(2-methylphenyl) ester", "Phosphorous acid, tris(2-methylphenyl) ester", "Phosphorous acid, tri-o-tolyl ester", "o-Tolyl phosphite ((C7H7O)3P)", "o-Tolyl phosphite", "Tri-o-cresyl phosphite", "Tris(o-tolyloxy)phosphine", "Tris(2-methylphenyl) phosphite", "Tri-o-tolyl phosphite", "Tris(o-methylphenyl) phosphite", "Tris(2-methylphenoxy)phosphine"], "SMILES": "P(OC1=C(C)C=CC=C1)(OC2=C(C)C=CC=C2)OC3=C(C)C=CC=C3", "physical_data": {"Molecular Weight": "352.36", "Molecular Formula": "C21H21O3P", "Boiling Point": "248 \u00b0C @ Press: 11 Torr", "Density": "1.1423 g/cm\u00b3 @ Temp: 20 \u00b0C"}}