{"cas_no": "2622-26-6", "cn_name": "\u6c30\u567b\u55ea", "en_name": ["Periciazine", "10H-Phenothiazine-2-carbonitrile, 10-[3-(4-hydroxy-1-piperidinyl)propyl]-", "Phenothiazine-2-carbonitrile, 10-[3-(4-hydroxypiperidino)propyl]-", "10-[3-(4-Hydroxy-1-piperidinyl)propyl]-10H-phenothiazine-2-carbonitrile", "FI 6145", "RP 8909", "2-Cyano-10-[3-(4-hydroxy-1-piperidyl)propyl]phenothiazine", "10-[3-(4-Hydroxypiperidino)propyl]phenothiazine-2-carbonitrile", "Neulactil", "Neuleptil", "Periciazine", "Pericyazine", "Propericiazine", "2-Cyano-10-[3-(4-hydroxypiperidino)propyl]phenothiazine", "Aolept", "Periciazinum", "Bayer 1409", "Nemactil", "Properciazine", "Nelactil", "SKF 20716", "Propericyazine"], "SMILES": "C(CCN1CCC(O)CC1)N2C=3C(SC=4C2=CC=CC4)=CC=C(C#N)C3", "physical_data": {"Molecular Weight": "365.49", "Molecular Formula": "C21H23N3OS", "Melting Point": "116-117 \u00b0C"}}