{"cas_no": "26227-54-3", "cn_name": "\u73af\u5df1\u80fa\u6c22\u6eb4\u9178\u76d0", "en_name": ["Cyclohexanamine, hydrobromide (1:1)", "Cyclohexanamine, hydrobromide (1:1)", "Cyclohexylamine, hydrobromide", "Cyclohexanamine, hydrobromide", "Cyclohexylammonium bromide", "NSC 613661"], "SMILES": "NC1CCCCC1.Br", "physical_data": {"Molecular Weight": "", "Molecular Formula": "C6H13N.BrH", "Melting Point": "196-197 \u00b0C"}}