{"cas_no": "2622-05-1", "cn_name": "\u6c2f\u4e19\u70ef\u9541", "en_name": ["Allylmagnesium chloride", "Magnesium, chloro-2-propen-1-yl-", "Magnesium, allylchloro-", "Magnesium, chloro-2-propenyl-", "Allylmagnesium chloride", "Chloro-2-propen-1-ylmagnesium", "Allylchloromagnesium"], "SMILES": "C(C=C)[Mg]Cl", "physical_data": {"Molecular Weight": "", "Molecular Formula": "C3H5ClMg", "Boiling Point": "143-145 \u00b0C @ Press: 14 Torr", "Melting Point": "350 \u00b0C (decomp)"}}