{"cas_no": "262298-02-2", "cn_name": "4-\u7532\u6c27\u57fa-2-\u7532\u57fa\u82ef\u4e59\u8148", "en_name": ["4-Methoxy-2-methylbenzeneacetonitrile", "Benzeneacetonitrile, 4-methoxy-2-methyl-", "4-Methoxy-2-methylbenzeneacetonitrile", "2-Methyl-4-methoxyphenylacetonitrile", "(4-Methoxy-2-methylphenyl)acetonitrile", "2-(4-Methoxy-2-methylphenyl)acetonitrile"], "SMILES": "C(C#N)C1=C(C)C=C(OC)C=C1", "physical_data": {"Molecular Weight": "161.20", "Molecular Formula": "C10H11NO", "Melting Point": "50-52 \u00b0C"}}