{"cas_no": "262353-34-4", "cn_name": "2,4-\u4e8c\u7898\u5627\u5576", "en_name": ["2,4-Diiodopyrimidine", "Pyrimidine, 2,4-diiodo-", "2,4-Diiodopyrimidine"], "SMILES": "IC1=NC(I)=NC=C1", "physical_data": {"Molecular Weight": "331.88", "Molecular Formula": "C4H2I2N2", "Melting Point": "125-126 \u00b0C"}}