{"cas_no": "2623-91-8", "cn_name": "D-2-\u6c28\u57fa\u4e01\u9178", "en_name": ["D-\u03b1-Aminobutyric acid", "Butanoic acid, 2-amino-, (2R)-", "Butyric acid, 2-amino-, D-", "Butanoic acid, 2-amino-, (R)-", "(2R)-2-Aminobutanoic acid", "D-\u03b1-Aminobutyric acid", "D-\u03b1-Amino-n-butyric acid", "D-Butyrine", "D-2-Aminobutyric acid", "(R)-(-)-\u03b1-Aminobutyric acid", "D-2-Amino-n-butyric acid", "(R)-2-Aminobutyric acid", "D-Ethylglycine", "D-2-Aminobutanoic acid", "(-)-2-Aminobutyric acid", "(R)-\u03b1-Aminobutyric acid", "(-)-\u03b1-Aminobutyric acid", "(R)-2-Aminobutanoic acid", "(-)-2-Aminobutanoic acid", "(2R)-2-Aminobutyric acid", "(R)-2-Aminobutyric acid"], "SMILES": "C(C(O)=O)(CC)N", "physical_data": {"Molecular Weight": "103.12", "Molecular Formula": "C4H9NO2", "Melting Point": "288-290 \u00b0C (decomp)"}}