{"cas_no": "2623-33-8", "cn_name": "4-\u4e59\u9170\u6c27\u57fa\u4e59\u9170\u82ef\u80fa", "en_name": ["p-Acetoxyacetanilide", "Acetamide, N-[4-(acetyloxy)phenyl]-", "Acetanilide, 4\u2032-hydroxy-, acetate (ester)", "Acetanilide, 4\u2032-hydroxy-, acetate", "N-[4-(Acetyloxy)phenyl]acetamide", "4-Acetamidophenyl acetate", "Acetaminophen acetate", "p-Acetoxyacetanilide", "Diacetamate", "4\u2032-Acetoxyacetanilide", "N-Acetyl-4-aminophenyl acetate", "p-Acetamidophenyl acetate", "NSC 33893", "NSC 6083", "N-(4-Acetoxyphenyl)acetamide", "O-Acetylparacetamol", "4-Acetylaminophenyl acetate"], "SMILES": "N(C(C)=O)C1=CC=C(OC(C)=O)C=C1", "physical_data": {"Molecular Weight": "193.20", "Molecular Formula": "C10H11NO3", "Melting Point": "151.5-152.5 \u00b0C"}}