{"cas_no": "2623-82-7", "cn_name": "2-\u6eb4\u6b63\u8f9b\u9178", "en_name": ["2-Bromooctanoic acid", "Octanoic acid, 2-bromo-", "2-Bromooctanoic acid", "\u03b1-Bromooctanoic acid", "(\u00b1)-2-Bromooctanoic acid", "(\u00b1)-\u03b1-Bromooctanoic acid", "2-Bromocaprylic acid"], "SMILES": "C(CCCCCC)(C(O)=O)Br", "physical_data": {"Molecular Weight": "223.11", "Molecular Formula": "C8H15BrO2", "Boiling Point": "118-121 \u00b0C @ Press: 0.6 Torr"}}