{"cas_no": "2623-36-1", "cn_name": "4-\u7f9f\u57fa\u5076\u6c2e\u82ef-4'-\u78fa\u9170\u94a0\u76d0", "en_name": ["Benzenesulfonic acid, 4-[2-(4-hydroxyphenyl)diazenyl]-, sodium salt (1:1)", "Benzenesulfonic acid, 4-[2-(4-hydroxyphenyl)diazenyl]-, sodium salt (1:1)", "Benzenesulfonic acid, p-[(p-hydroxyphenyl)azo]-, monosodium salt", "Benzenesulfonic acid, 4-[(4-hydroxyphenyl)azo]-, monosodium salt", "Benzenesulfonic acid, p-[(p-hydroxyphenyl)azo]-, sodium salt", "Sodium p-(p-hydroxyphenylazo)benzenesulfonate", "Sodium 4-(4-hydroxyphenylazo)benzenesulfonate", "Tropaeolin Y"], "SMILES": "N(=NC1=CC=C(O)C=C1)C2=CC=C(S(=O)(=O)O)C=C2.[Na]", "physical_data": {"Molecular Weight": "", "Molecular Formula": "C12H10N2O4S.Na", "Melting Point": "220 \u00b0C"}}