{"cas_no": "2623-87-2", "cn_name": "4-\u6eb4\u4e01\u9178", "en_name": ["4-Bromobutanoic acid", "Butanoic acid, 4-bromo-", "Butyric acid, 4-bromo-", "4-Bromobutanoic acid", "4-Bromobutyric acid", "\u03b3-Bromobutyric acid", "Carboxypropyl bromide", "NSC 99322"], "SMILES": "C(C(O)=O)CCBr", "physical_data": {"Molecular Weight": "167.00", "Molecular Formula": "C4H7BrO2", "Boiling Point": "163-165 \u00b0C @ Press: 2 Torr", "Melting Point": "42-42.5 \u00b0C"}}