{"cas_no": "2623-22-5", "cn_name": "15-\u4e59\u9170\u57fa\u85e8\u9570\u5200\u83cc\u70ef\u9187", "en_name": ["15-Acetoxyscirpenol", "Trichothec-9-ene-3,4,15-triol, 12,13-epoxy-, 15-acetate, (3\u03b1,4\u03b2)-", "Trichothec-9-ene-3\u03b1,4\u03b2,15-triol, 12,13-epoxy-, 15-acetate", "Scirp-9-ene-3\u03b1,4\u03b2,15-triol, 12,13-epoxy-, 15-acetate", "15-Acetoxyscirpen-3,4-diol", "4-Deacetylanguidin", "NSC 267030", "15-Acetoxyscirpenol", "15-Monoacetoxyscirpenol", "15-Mono-O-acetylscirpenol", "15-O-Acetylscirpenetriol", "15-Acetylscirpenetriol", "Monoacetoxyscirpenol", "Acetoxyscirpenediol"], "SMILES": "CC12C3(C(C(O)C1O)OC4C2(COC(C)=O)CCC(C)=C4)CO3", "physical_data": {"Molecular Weight": "324.37", "Molecular Formula": "C17H24O6", "Melting Point": "170-172 \u00b0C"}}