{"cas_no": "262352-17-0", "cn_name": "\u6258\u5f7b\u666e", "en_name": ["Torcetrapib", "1(2H)-Quinolinecarboxylic acid, 4-[[[3,5-bis(trifluoromethyl)phenyl]methyl](methoxycarbonyl)amino]-2-ethyl-3,4-dihydro-6-(trifluoromethyl)-, ethyl ester, (2R,4S)-", "CP 529414", "Torcetrapib", "(2R,4S)-4-[(3,5-Bis-trifluoromethylbenzyl)methoxycarbonylamino]-2-ethyl-6-trifluoromethyl-3,4-dihydro-2H-quinoline-1-carboxylic acid ethyl ester", "(2R,4S)-4-[[3,5-Bis(trifluoromethyl)benzyl]methoxycarbonylamino]-2-ethyl-6-trifluoromethyl-3,4-dihydro-2H-quinoline-1-carboxylic acid ethyl ester", "(-)-Torcetrapib"], "SMILES": "N(CC1=CC(C(F)(F)F)=CC(C(F)(F)F)=C1)(C(OC)=O)C2C=3C(N(C(OCC)=O)C(CC)C2)=CC=C(C(F)(F)F)C3", "physical_data": {"Molecular Weight": "600.47", "Molecular Formula": "C26H25F9N2O4", "Melting Point": "54-58 \u00b0C"}}