{"cas_no": "2623-23-6", "cn_name": "\u4e59\u9178-L-\u5b5f\u916f", "en_name": ["(-)-Menthyl acetate", "Cyclohexanol, 5-methyl-2-(1-methylethyl)-, 1-acetate, (1R,2S,5R)-", "Menthol, acetate, (1R,3R,4S)-(-)-", "Cyclohexanol, 5-methyl-2-(1-methylethyl)-, acetate, [1R-(1\u03b1,2\u03b2,5\u03b1)]-", "Cyclohexanol, 5-methyl-2-(1-methylethyl)-, acetate, (1R,2S,5R)-", "(-)-Menthyl acetate", "L-Menthyl acetate", "l-Menthyl acetate", "l-Menthol acetate", "l-(-)-Menthyl acetate", "(1R,2S,5R)-5-Methyl-2-(1-methylethyl)cyclohexanol acetate", "(-)-Menthol acetate", "NSC 3722", "NSC 52970", "(-)-p-Menthyl acetate", "Acetic acid (R)-menthyl ester"], "SMILES": "C(C)(C)C1C(OC(C)=O)CC(C)CC1", "physical_data": {"Molecular Weight": "198.30", "Molecular Formula": "C12H22O2", "Boiling Point": "229.5 \u00b0C", "Melting Point": "&lt;25 \u00b0C"}}