{"cas_no": "2623-86-1", "cn_name": "3-\u6eb4\u4e01\u9178", "en_name": ["3-Bromobutanoic acid", "Butanoic acid, 3-bromo-", "Butyric acid, 3-bromo-", "3-Bromobutanoic acid", "3-Bromobutyric acid", "\u03b2-Bromobutyric acid", "(\u00b1)-3-Bromobutyric acid"], "SMILES": "C(C(Br)C)C(O)=O", "physical_data": {"Molecular Weight": "167.00", "Molecular Formula": "C4H7BrO2", "Boiling Point": "110-111 \u00b0C @ Press: 9-10 Torr", "Melting Point": "44 \u00b0C"}}