{"cas_no": "26248-42-0", "cn_name": "\u5341\u4e09\u70f7\u9187", "en_name": ["Tridecanol", "Tridecanol"], "SMILES": "", "physical_data": {"Molecular Weight": "", "Molecular Formula": "C13H28O", "Boiling Point": "152 \u00b0C @ Press: 14 Torr", "Melting Point": "30.5 \u00b0C"}}