{"cas_no": "2624-48-8", "cn_name": "\u4e8c\u9152\u77f3\u9178\u70df\u78b1", "en_name": ["(-)-Nicotine hydrogen (+)-tartrate", "Pyridine, 3-[(2S)-1-methyl-2-pyrrolidinyl]-, (2R,3R)-2,3-dihydroxybutanedioate (1:2)", "Nicotine, tartrate (1:2)", "Pyridine, 3-(1-methyl-2-pyrrolidinyl)-, (S)-, [R-(R*,R*)]-2,3-dihydroxybutanedioate (1:2)", "Nicotine acid tartrate", "Nicotine bitartrate", "Nicotine hydrogen tartrate", "Nicotine tartrate", "(-)-Nicotine hydrogen (+)-tartrate", "Nicotine hydrogen (+)-tartrate", "S-(-)-Nicotine hydrogen-(+)-tartrate", "NSC 97238", "(-)-Nicotine ditartrate", "NP002"], "SMILES": "CN1C(CCC1)C=2C=CC=NC2.C(C(C(O)=O)O)(C(O)=O)O", "physical_data": {"Molecular Weight": "", "Molecular Formula": "C10H14N2.2C4H6O6", "Melting Point": "89 \u00b0C"}}