{"cas_no": "2624-43-3", "cn_name": "\u73af\u82ac\u5c3c", "en_name": ["Cyclofenil", "Phenol, 4,4\u2032-(cyclohexylidenemethylene)bis-, 1,1\u2032-diacetate", "p-Cresol, \u03b1-cyclohexylidene-\u03b1-(p-hydroxyphenyl)-, diacetate", "Phenol, 4-[[4-(acetyloxy)phenyl]cyclohexylidenemethyl]-, acetate", "Phenol, 4,4\u2032-(cyclohexylidenemethylene)bis-, diacetate", "4,4\u2032-(Cyclohexylidenemethylene)diphenol diacetate ester", "Bis(p-acetoxyphenyl)cyclohexylidenemethane", "F 6066", "Cyclofenyl", "Cyclopenil", "Sexovid", "Cyclofenil", "Bis(p-hydroxyphenyl)cyclohexyldienemethane diacetate", "\u03b1-Cyclohexylidene-\u03b1-(p-hydroxyphenyl)-p-cresol diacetate", "Cyclophenyl", "\u03b1-(p-Hydroxyphenyl)-\u03b1-cyclohexylidene-p-cresol diacetate", "Sanocrisin", "Ondogyne", "H 3452", "Ondonid", "Fertodur", "ICI 48213", "Oginex", "Sexadieno", "Sexovar", "Cyclophenil", "Neoclym", "Rehibin", "NSC 86464", "(Cyclohexylidenemethylene)bis(4,1-phenylene) diacetate"], "SMILES": "C(C1=CC=C(OC(C)=O)C=C1)(C2=CC=C(OC(C)=O)C=C2)=C3CCCCC3", "physical_data": {"Molecular Weight": "364.43", "Molecular Formula": "C23H24O4", "Melting Point": "135.5 \u00b0C"}}