{"cas_no": "262450-65-7", "cn_name": "3-\u6eb4-5-\u7532\u6c27\u57fa\u82ef\u7532\u919b", "en_name": ["3-Bromo-5-methoxybenzaldehyde", "Benzaldehyde, 3-bromo-5-methoxy-", "3-Bromo-5-methoxybenzaldehyde", "5-Bromo-3-methoxybenzaldehyde"], "SMILES": "C(=O)C1=CC(OC)=CC(Br)=C1", "physical_data": {"Molecular Weight": "215.04", "Molecular Formula": "C8H7BrO2", "Melting Point": "45-46 \u00b0C"}}