{"cas_no": "2624-44-4", "cn_name": "\u915a\u78fa\u4e59\u80fa", "en_name": ["Etamsylate", "Benzenesulfonic acid, 2,5-dihydroxy-, compd. with N-ethylethanamine (1:1)", "Benzenesulfonic acid, 2,5-dihydroxy-, compd. with diethylamine (1:1)", "Benzenesulfonic acid, 2,5-dihydroxy-, compd. with Et2NH", "Diethylamine, 2,5-dihydroxybenzenesulfonate", "Ethanamine, N-ethyl-, 2,5-dihydroxybenzenesulfonate", "141 MD", "Dicynene", "Dicynone", "Diethylammonium 2,5-dihydroxybenzenesulfonate", "Ethamsylate", "Cyclonamine", "Eselin", "Aglumin", "Altodor", "Etamsylate", "2,5-Dihydroxybenzenesulfonic acid diethylamine salt", "Dicinone", "Biosinon", "MD 141", "E 141", "K-Stat", "Hemsyl", "Sylate"], "SMILES": "S(=O)(=O)(O)C1=C(O)C=CC(O)=C1.N(CC)CC", "physical_data": {"Molecular Weight": "", "Molecular Formula": "C6H6O5S.C4H11N", "Melting Point": "125 \u00b0C"}}