{"cas_no": "262429-49-2", "cn_name": "(R)-3-\u6c28\u57fa-3-(3-\u6c2f\u82ef\u57fa)-\u4e19\u9178", "en_name": ["(R)-3-Amino-3-(3-chlorophenyl)propanoic acid", "Benzenepropanoic acid, \u03b2-amino-3-chloro-, (\u03b2R)-", "(\u03b2R)-\u03b2-Amino-3-chlorobenzenepropanoic acid", "(R)-3-Amino-3-(3-chlorophenyl)propanoic acid", "(R)-3-Amino-3-(3-chlorophenyl)propionic acid", "(r)-3-(3-Chlorophenyl)-\u03b2-alanine", "(3R)-3-Amino-3-(3-chlorophenyl)propanoic acid"], "SMILES": "C(CC(O)=O)(N)C1=CC(Cl)=CC=C1", "physical_data": {"Molecular Weight": "199.63", "Molecular Formula": "C9H10ClNO2", "Melting Point": "230-233 \u00b0C"}}