{"cas_no": "26250-90-8", "cn_name": "(R)-2-\u82c4\u57fa-3-\u53d4\u4e01\u6c27\u7fb0\u57fa\u6c28\u57fa\u4e19\u9178", "en_name": ["\u03b1-[[[(1,1-Dimethylethoxy)carbonyl]amino]methyl]benzenepropanoic acid", "Benzenepropanoic acid, \u03b1-[[[(1,1-dimethylethoxy)carbonyl]amino]methyl]-", "Hydrocinnamic acid, \u03b1-[(carboxyamino)methyl]-, N-tert-butyl ester, DL-", "\u03b1-[[[(1,1-Dimethylethoxy)carbonyl]amino]methyl]benzenepropanoic acid", "2-Benzyl-3-[(tert-butoxycarbonyl)amino]propanoic acid", "3-[[[(1,1-Dimethylethyl)oxy]carbonyl]amino]-2-(phenylmethyl)propanoic acid"], "SMILES": "C(C(CNC(OC(C)(C)C)=O)C(O)=O)C1=CC=CC=C1", "physical_data": {"Molecular Weight": "279.33", "Molecular Formula": "C15H21NO4", "Melting Point": "74 \u00b0C"}}