{"cas_no": "26259-45-0", "cn_name": "\u4ef2\u4e01\u901a", "en_name": ["Secbumeton", "1,3,5-Triazine-2,4-diamine, N2-ethyl-6-methoxy-N4-(1-methylpropyl)-", "s-Triazine, 2-(sec-butylamino)-4-(ethylamino)-6-methoxy-", "1,3,5-Triazine-2,4-diamine, N-ethyl-6-methoxy-N\u2032-(1-methylpropyl)-", "N2-Ethyl-6-methoxy-N4-(1-methylpropyl)-1,3,5-triazine-2,4-diamine", "2-Methoxy-4-ethylamino-6-sec-butylamino-s-triazine", "Geigy GS 14254", "2-(sec-Butylamino)-4-ethylamino-6-methoxy-s-triazine", "Ezitan", "GS 14254", "2-Methoxy-4-ethylamino-6-sec-butylamino-1,3,5-triazine", "Sumitol", "Sumitol 80W", "Secbumeton", "Etazine", "Etazin", "sec-Bumeton", "sec-Bumetone", "2-N-(Butan-2-yl)-4-N-ethyl-6-methoxy-1,3,5-triazine-2,4-diamine"], "SMILES": "N(C(CC)C)C=1N=C(NCC)N=C(OC)N1", "physical_data": {"Molecular Weight": "225.29", "Molecular Formula": "C10H19N5O", "Melting Point": "87 \u00b0C"}}