{"cas_no": "26260-02-6", "cn_name": "2-\u7898\u82ef\u7532\u919b", "en_name": ["2-Iodobenzaldehyde", "Benzaldehyde, 2-iodo-", "Benzaldehyde, o-iodo-", "2-Iodobenzaldehyde", "o-Iodobenzaldehyde", "2-Iodobenzenealdehyde"], "SMILES": "C(=O)C1=C(I)C=CC=C1", "physical_data": {"Molecular Weight": "232.02", "Molecular Formula": "C7H5IO", "Boiling Point": "129 \u00b0C @ Press: 14 Torr", "Melting Point": "33-39 \u00b0C"}}