{"cas_no": "26274-35-1", "cn_name": "2,4-\u4e8c\u82ef\u57fa\u5421\u5576", "en_name": ["2,4-Diphenylpyridine", "Pyridine, 2,4-diphenyl-", "2,4-Diphenylpyridine"], "SMILES": "C=1(C=C(N=CC1)C2=CC=CC=C2)C3=CC=CC=C3", "physical_data": {"Molecular Weight": "231.29", "Molecular Formula": "C17H13N", "Melting Point": "68 \u00b0C"}}