{"cas_no": "2627-27-2", "cn_name": "3-\u82ef\u57fa\u4e19\u57fa\u5f02\u786b\u6c30\u9178\u916f", "en_name": ["3-Phenylpropyl isothiocyanate", "Benzene, (3-isothiocyanatopropyl)-", "Isothiocyanic acid, 3-phenylpropyl ester", "(3-Isothiocyanatopropyl)benzene", "Phenylpropyl mustard oil", "3-Phenylpropyl isothiocyanate"], "SMILES": "C(CCN=C=S)C1=CC=CC=C1", "physical_data": {"Molecular Weight": "177.27", "Molecular Formula": "C10H11NS", "Boiling Point": "130 \u00b0C @ Press: 2 Torr"}}