{"cas_no": "2627-97-6", "cn_name": "1,3-\u4e8c\u4e59\u70ef\u57fa-1,3-\u4e8c\u7532\u57fa-1,3-\u4e8c\u82ef\u57fa\u4e8c\u7845\u6c27\u70f7", "en_name": ["1,3-Diethenyl-1,3-dimethyl-1,3-diphenyldisiloxane", "Disiloxane, 1,3-diethenyl-1,3-dimethyl-1,3-diphenyl-", "Disiloxane, 1,3-dimethyl-1,3-diphenyl-1,3-divinyl-", "1,3-Diethenyl-1,3-dimethyl-1,3-diphenyldisiloxane", "1,3-Divinyl-1,3-diphenyl-1,3-dimethyldisiloxane", "1,3-Divinyl-1,3-diphenyldimethyldisiloxane", "1,3-Dimethyl-1,3-diphenyl-1,3-divinyldisiloxane", "1,3-Divinyl-1,3-dimethyl-1,3-diphenyldisiloxane"], "SMILES": "[Si](O[Si](C=C)(C)C1=CC=CC=C1)(C=C)(C)C2=CC=CC=C2", "physical_data": {"Molecular Weight": "310.54", "Molecular Formula": "C18H22OSi2", "Boiling Point": "160 \u00b0C @ Press: 6 Torr", "Density": "0.995 g/cm\u00b3 @ Temp: 25 \u00b0C"}}