{"cas_no": "2627-86-3", "cn_name": "S-1-\u82ef\u4e59\u80fa", "en_name": ["(S)-1-Phenylethylamine", "Benzenemethanamine, \u03b1-methyl-, (\u03b1S)-", "Benzylamine, \u03b1-methyl-, (S)-(-)-", "Benzenemethanamine, \u03b1-methyl-, (S)-", "Benzylamine, \u03b1-methyl-, (-)-", "(\u03b1S)-\u03b1-Methylbenzenemethanamine", "D-(-)-(\u03b1-Phenylethyl)amine", "(-)-1-Phenylethylamine", "L-(-)-\u03b1-Methylbenzylamine", "(-)-\u03b1-Methylbenzylamine", "L-(-)-\u03b1-Phenylethylamine", "(S)-(-)-\u03b1-Phenylethylamine", "(S)-\u03b1-Phenethylamine", "(S)-(-)-\u03b1-Methylbenzylamine", "(S)-(-)-\u03b1-Phenethylamine", "(-)-\u03b1-Phenylethylamine", "S-\u03b1-Methylbenzylamine", "L-(-)-1-Phenylethylamine", "L-\u03b1-Phenylethylamine", "(-)-\u03b1-Phenethylamine", "(S)-(-)-Phenethylamine", "(S)-\u03b1-Phenylethylamine", "(S)-Phenethylamine", "(S)-1-Phenylethanamine", "(S)-\u03b1-Methylbenzenemethanamine", "L-Phenethylamine", "(1S)-Phenylethylamine", "(1S)-(-)-1-Phenylethylamine", "(S)-1-Phenethylamine", "(-)-1-Phenethylamine", "(S)-(-)-1-Phenethylamine", "(S)-(-)-1-Phenylethylamine", "(S)-1-Phenylethylamine", "(-)-Phenylethylamine", "(-)-1-Amino-1-phenylethane", "(S)-1-Amino-1-phenylethane", "(S)-Methylbenzylamine", "L-\u03b1-Methylbenzylamine", "(-)-\u03b1-Methylbenzenemethanamine", "(aS)-\u03b1-Methylbenzenemethanamine", "(S)-Phenylethylamine", "L-1-Amino-ethylbenzene", "1-(S)-Phenylethylamine", "(1S)-1-Phenylethylamine", "(S)-1-Phenyl-1-aminoethane", "(S)-1-Aminoethylbenzene", "(1S)-1-Phenylethanamine", "(S)-1-Phenyl-1-ethanamine", "(1S)-1-Phenylethanamine", "(-)-((S)-\u03b1-Methylbenzyl)amine", "(S)-(-)-Phenylethylamine", "L-1-Phenylethylamine", "(1S)-1-Phenylethan-1-amine"], "SMILES": "C(C)(N)C1=CC=CC=C1", "physical_data": {"Molecular Weight": "121.18", "Molecular Formula": "C8H11N", "Boiling Point": "184-186 \u00b0C", "Melting Point": "168-169 \u00b0C", "Density": "0.952 g/cm\u00b3 @ Temp: 21 \u00b0C"}}