{"cas_no": "2627-95-4", "cn_name": "\u56db\u7532\u57fa\u4e8c\u4e59\u70ef\u57fa\u4e8c\u7845\u6c27\u70f7", "en_name": ["1,3-Divinyltetramethyldisiloxane", "Disiloxane, 1,3-diethenyl-1,1,3,3-tetramethyl-", "Disiloxane, 1,1,3,3-tetramethyl-1,3-divinyl-", "1,3-Diethenyl-1,1,3,3-tetramethyldisiloxane", "1,3-Divinyltetramethyldisiloxane", "1,3-Divinyl-1,1,3,3-tetramethyldisiloxane", "1,1,3,3-Tetramethyl-1,3-divinyldisiloxane", "1,1\u2032-Divinyltetramethyldisiloxane", "sym-Tetramethyldivinyldisiloxane", "Tetramethyl-1,3-divinyldisiloxane", "sym-Divinyltetramethyldisiloxane", "Bis(ethenyldimethylsilyl) ether", "LS 7250", "Vinyldimethylsilyl ether", "DP 162", "SID 4613.0", "PLY 70", "Andisil 2827-186L", "Lullaby DJ 030", "IOTA 1002", "Dowsil 4-2776"], "SMILES": "O([Si](C=C)(C)C)[Si](C=C)(C)C", "physical_data": {"Molecular Weight": "186.40", "Molecular Formula": "C8H18OSi2", "Boiling Point": "139 \u00b0C", "Melting Point": "-99.7 \u00b0C", "Density": "0.811 g/cm\u00b3"}}