{"cas_no": "26278-79-5", "cn_name": "2-\u6c28\u57fa-6-\u7f9f\u57fa\u82ef\u5e76\u567b\u5511", "en_name": ["2-Amino-6-benzothiazolol", "6-Benzothiazolol, 2-amino-", "2-Amino-6-benzothiazolol", "6-Hydroxybenzothiazol-2-amine", "2-Amino-1,3-benzothiazol-6-ol", "2-Amino-6-hydroxybenzothiazole", "6-Hydroxy-2-aminobenzothiazole", "2-Aminobenzo[d]thiazol-6-ol"], "SMILES": "NC1=NC=2C(S1)=CC(O)=CC2", "physical_data": {"Molecular Weight": "166.20", "Molecular Formula": "C7H6N2OS", "Melting Point": "247 \u00b0C"}}