{"cas_no": "2627-69-2", "cn_name": "\u963f\u5361\u5730\u65b0", "en_name": ["AICAr", "1H-Imidazole-4-carboxamide, 5-amino-1-\u03b2-D-ribofuranosyl-", "Imidazole-4-carboxamide, 5-amino-1-\u03b2-D-ribofuranosyl-", "5-Amino-1-\u03b2-D-ribofuranosyl-1H-imidazole-4-carboxamide", "5-Amino-1-ribosyl-4-imidazolecarboxamide", "5-Amino-4-imidazolecarboxamide ribofuranoside", "1-\u03b2-D-Ribofuranosyl-5-amino-4-imidazolecarboxamide", "5-Amino-4-imidazolecarboxamide riboside", "5-Amino-1-\u03b2-D-ribofuranosylimidazole-4-carboxamide", "1-Ribosyl-4-carboxamido-5-aminoimidazole", "AICA-Riboside", "AIC-Riboside", "AICAr", "Acadesine", "Arasine", "GP 1-110", "5-Aminoimidazole-4-carboxamide 1-(\u03b2-D-ribofuranoside)", "NSC 105823", "Acadra", "5-Aminoimidazole-4-carboxamid-1-\u03b2-D-ribofuranoside"], "SMILES": "OC1C(OC(CO)C1O)N2C(N)=C(C(N)=O)N=C2", "physical_data": {"Molecular Weight": "258.23", "Molecular Formula": "C9H14N4O5", "Melting Point": "213 \u00b0C (decomp)"}}