{"cas_no": "2627-35-2", "cn_name": "\u5341\u4e8c\u70f7\u57fa\u78f7\u9178\u4e8c\u6c22\u76d0", "en_name": ["Monolauryl phosphate", "Phosphoric acid, monododecyl ester", "Dodecyl phosphate ((C12H25O)(HO)2PO)", "Dodecyl acid phosphate", "Monolauryl phosphate", "Monododecyl phosphate", "Dihydrogen monolauryl phosphate", "Dodecyl dihydrogen phosphate", "Phosphoric acid monolauryl ester", "Mono-n-dodecyl phosphate", "n-Dodecyl phosphate", "Lauryl dihydrogen phosphate", "LauP", "n-Dodecanyl phosphate", "Miphos ML", "NSC 41919", "Ethfac 102", "Nikkol Phosten HLP", "Phosten HLP", "FAP 12"], "SMILES": "C(CCCCCCCCCC)COP(=O)(O)O", "physical_data": {"Molecular Weight": "266.31", "Molecular Formula": "C12H27O4P", "Melting Point": "68-70 \u00b0C"}}