{"cas_no": "2628-16-2", "cn_name": "4-\u4e59\u9170\u6c27\u57fa\u82ef\u4e59\u70ef", "en_name": ["4-Acetoxystyrene", "Phenol, 4-ethenyl-, 1-acetate", "Phenol, p-vinyl-, acetate", "Phenol, 4-ethenyl-, acetate", "p-Acetoxystyrene", "4-Acetoxystyrene", "4-Vinylphenyl acetate", "4-Ethenylphenol acetate", "PACS", "(4-Ethenylphenyl) acetate", "4-Acetoxy-1-ethenylbenzene", "Acetic acid 4-vinylphenyl ester"], "SMILES": "O(C(C)=O)C1=CC=C(C=C)C=C1", "physical_data": {"Molecular Weight": "162.19", "Molecular Formula": "C10H10O2", "Boiling Point": "80 \u00b0C @ Press: 1.5 Torr", "Melting Point": "7-8 \u00b0C", "Density": "1.0548 g/cm\u00b3 @ Temp: 25 \u00b0C"}}