{"cas_no": "2628-17-3", "cn_name": "4-\u7f9f\u57fa\u82ef\u4e59\u70ef", "en_name": ["4-Vinylphenol", "Phenol, 4-ethenyl-", "Phenol, p-vinyl-", "4-Ethenylphenol", "4-Hydroxystyrene", "p-Hydroxystyrene", "p-Vinylphenol", "4-Vinylphenol"], "SMILES": "C(=C)C1=CC=C(O)C=C1", "physical_data": {"Molecular Weight": "120.15", "Molecular Formula": "C8H8O", "Boiling Point": "145-152 \u00b0C @ Press: 20 Torr", "Melting Point": "73.5 \u00b0C"}}