{"cas_no": "2629-59-6", "cn_name": "S-\u4e59\u57fa-L-\u534a\u80f1\u6c28\u9178", "en_name": ["S-Ethyl-L-cysteine", "L-Cysteine, S-ethyl-", "Alanine, 3-(ethylthio)-, L-", "S-Ethyl-L-cysteine", "S-Ethylcysteine", "NSC 49244", "(2R)-2-Amino-3-(ethylsulfanyl)propanoic acid"], "SMILES": "C(C(O)=O)(CSCC)N", "physical_data": {"Molecular Weight": "149.21", "Molecular Formula": "C5H11NO2S", "Melting Point": "260 \u00b0C"}}