{"cas_no": "26296-54-8", "cn_name": "\u5927\u9ec4\u7d20\u7532\u919a-1-O-BETA-D-\u8461\u8404\u7cd6\u82f7", "en_name": ["Physcion 1-O-\u03b2-D-glucoside", "9,10-Anthracenedione, 1-(\u03b2-D-glucopyranosyloxy)-8-hydroxy-6-methoxy-3-methyl-", "Physcionin", "1-(\u03b2-D-Glucopyranosyloxy)-8-hydroxy-6-methoxy-3-methyl-9,10-anthracenedione", "Physcion 1-\u03b2-D-glucopyranoside", "3-Methyl-6-methoxy-1,8-dihydroxyanthraquinone 1-glucoside", "Physcion 1-O-\u03b2-D-glucoside", "Physcion 1-O-\u03b2-D-glucopyranoside"], "SMILES": "O(C1=C2C(C(=O)C=3C(C2=O)=C(O)C=C(OC)C3)=CC(C)=C1)C4OC(CO)C(O)C(O)C4O", "physical_data": {"Molecular Weight": "446.40", "Molecular Formula": "C22H22O10", "Melting Point": "235 \u00b0C"}}