{"cas_no": "2629-55-2", "cn_name": "2-\u6c1f-DL-\u82ef\u4e19\u6c28\u9178", "en_name": ["DL-2-Fluorophenylalanine", "Phenylalanine, 2-fluoro-", "Alanine, 3-(o-fluorophenyl)-, DL-", "DL-Phenylalanine, 2-fluoro-", "2-Fluorophenylalanine", "DL-o-Fluorophenylalanine", "DL-2-Fluorophenylalanine", "(\u00b1)-2-Fluorophenylalanine", "2-Fluoro-DL-phenylalanine", "3-(2-Fluorophenyl)-DL-alanine", "3-(o-Fluorophenyl)alanine", "o-Fluoro-DL-phenylalanine", "o-Fluorophenylalanine", "2-Amino-3-(2-fluorophenyl)propanoic acid"], "SMILES": "C(C(C(O)=O)N)C1=C(F)C=CC=C1", "physical_data": {"Molecular Weight": "183.18", "Molecular Formula": "C9H10FNO2", "Melting Point": "258.5-259 \u00b0C"}}