{"cas_no": "2629-68-7", "cn_name": "1,4-\u53cc(\u6c2f\u4e8c\u6c1f\u7532\u57fa)\u82ef", "en_name": ["1,4-Bis(chlorodifluoromethyl)benzene", "Benzene, 1,4-bis(chlorodifluoromethyl)-", "p-Xylene, \u03b1,\u03b1\u2032-dichloro-\u03b1,\u03b1,\u03b1\u2032,\u03b1\u2032-tetrafluoro-", "1,4-Bis(chlorodifluoromethyl)benzene", "\u03b1,\u03b1\u2032-Dichloro-\u03b1,\u03b1,\u03b1\u2032,\u03b1\u2032-tetrafluoro-p-xylene", "p-Bis(chlorodifluoromethyl)benzene", "1,4-Bis-(difluorochloromethyl)-benzene"], "SMILES": "C(Cl)(F)(F)C1=CC=C(C(Cl)(F)F)C=C1", "physical_data": {"Molecular Weight": "247.02", "Molecular Formula": "C8H4Cl2F4", "Boiling Point": "86-90 \u00b0C @ Press: 34 Torr"}}