{"cas_no": "2629-72-3", "cn_name": "4-\u5421\u5576\u4e19\u9187", "en_name": ["4-Pyridinepropanol", "4-Pyridinepropanol", "4-(3-Hydroxypropyl)pyridine", "3-(4-Pyridyl)propanol", "3-(\u03b3-Pyridyl)propanol", "3-(4-Pyridyl)-1-propanol", "3-Pyridin-4-ylpropanol", "NSC 3720", "NSC 66565", "3-Pyridin-4-ylpropan-1-ol"], "SMILES": "C(CCO)C=1C=CN=CC1", "physical_data": {"Molecular Weight": "137.18", "Molecular Formula": "C8H11NO", "Boiling Point": "289 \u00b0C", "Melting Point": "37 \u00b0C"}}