{"cas_no": "26305-13-5", "cn_name": "2,4-\u4e8c\u7f9f\u57fa-5,6-", "en_name": ["5,6-Dimethyluracil", "2,4(1H,3H)-Pyrimidinedione, 5,6-dimethyl-", "Uracil, 5,6-dimethyl-", "5,6-Dimethyl-2,4(1H,3H)-pyrimidinedione", "5,6-Dimethyluracil", "6-Methylthymine", "NSC 163903", "NSC 49017", "2,4-Dihydroxy-5,6-dimethylpyrimidine"], "SMILES": "CC1=C(C)NC(=O)NC1=O", "physical_data": {"Molecular Weight": "140.14", "Molecular Formula": "C6H8N2O2", "Melting Point": "294-296 \u00b0C"}}