{"cas_no": "26301-79-1", "cn_name": "D-\u7518\u9732\u7cd6-1,4-\u5185\u916f", "en_name": ["D-Mannono-1,4-lactone", "D-Mannonic acid, \u03b3-lactone", "Mannonic acid, \u03b3-lactone, D-", "D-Mannono-\u03b3-lactone", "Mannonic acid 1,4-lactone", "D-Mannono-1,4-lactone", "NSC 1971"], "SMILES": "C(CO)(O)C1C(O)C(O)C(=O)O1", "physical_data": {"Molecular Weight": "178.14", "Molecular Formula": "C6H10O6", "Melting Point": "120 \u00b0C"}}