{"cas_no": "26306-64-9", "cn_name": "2-(2,4-\u4e8c\u6c2f\u82ef\u6c27\u57fa)\u82ef\u80fa", "en_name": ["2-(2,4-Dichlorophenoxy)aniline", "Benzenamine, 2-(2,4-dichlorophenoxy)-", "Aniline, o-(2,4-dichlorophenoxy)-", "2-(2,4-Dichlorophenoxy)benzenamine", "2-(2,4-Dichlorophenoxy)aniline", "2-Amino-2\u2032,4\u2032-dichlorodiphenyl ether", "NSC 89753", "2-(2,4-Dichlorophenoxy)phenylamine"], "SMILES": "O(C1=C(Cl)C=C(Cl)C=C1)C2=C(N)C=CC=C2", "physical_data": {"Molecular Weight": "254.11", "Molecular Formula": "C12H9Cl2NO", "Boiling Point": "133-138 \u00b0C @ Press: 0.1 Torr"}}