{"cas_no": "2631-77-8", "cn_name": "3,5-\u4e8c\u7898\u90bb\u7f9f\u57fa\u82ef\u919b", "en_name": ["3,5-Diiodosalicylaldehyde", "Benzaldehyde, 2-hydroxy-3,5-diiodo-", "Salicylaldehyde, 3,5-diiodo-", "2-Hydroxy-3,5-diiodobenzaldehyde", "3,5-Diiodosalicylaldehyde", "3,5-Diiodo-2-hydroxybenzaldehyde", "3,5-Iodosalicylaldehyde"], "SMILES": "C(=O)C1=C(O)C(I)=CC(I)=C1", "physical_data": {"Molecular Weight": "373.91", "Molecular Formula": "C7H4I2O2", "Melting Point": "108 \u00b0C"}}