{"cas_no": "26315-61-7", "cn_name": "\u4e59\u919b\u9178\u8584\u8377\u916f", "en_name": ["(-)-Menthyl glyoxylate", "Acetic acid, 2-oxo-, (1R,2S,5R)-5-methyl-2-(1-methylethyl)cyclohexyl ester", "Acetic acid, oxo-, 5-methyl-2-(1-methylethyl)cyclohexyl ester, [1R-(1\u03b1,2\u03b2,5\u03b1)]-", "Glyoxylic acid, p-menth-3-yl ester, (1R,3R,4S)-(-)-", "Acetic acid, oxo-, (1R,2S,5R)-5-methyl-2-(1-methylethyl)cyclohexyl ester", "(R)-(-)-Menthyl glyoxylate", "(-)-Menthyl glyoxylate", "l-Menthyl glyoxylate", "(-)-Menthyl glyoxalate", "l-(-)-Menthyl glyoxylate", "(1R,2S,5R)-Menthyl glyoxylate", "(1R,2S,5R)-2-Isopropyl-5-methylcyclohexyl 2-oxoacetate"], "SMILES": "O(C(C=O)=O)C1C(C(C)C)CCC(C)C1", "physical_data": {"Molecular Weight": "212.29", "Molecular Formula": "C12H20O3", "Boiling Point": "160 \u00b0C @ Press: 1 x 10<sup>-4</sup> Torr"}}