{"cas_no": "26311-45-5", "cn_name": "4-\u6b63\u620a\u57fa\u82ef\u7532\u9178", "en_name": ["4-Pentylbenzoic acid", "Benzoic acid, 4-pentyl-", "Benzoic acid, p-pentyl-", "4-Pentylbenzoic acid", "p-Pentylbenzoic acid", "p-Amylbenzoic acid", "4-n-Pentylbenzoic acid", "4-Amylbenzoic acid", "NSC 169024"], "SMILES": "C(CCCC)C1=CC=C(C(O)=O)C=C1", "physical_data": {"Molecular Weight": "192.25", "Molecular Formula": "C12H16O2", "Melting Point": "88 \u00b0C"}}