{"cas_no": "2631-72-3", "cn_name": "2-\u6eb4-2',4'-\u4e8c\u6c2f\u82ef\u4e59\u916e", "en_name": ["2,4-Dichlorophenacyl bromide", "Ethanone, 2-bromo-1-(2,4-dichlorophenyl)-", "Acetophenone, 2-bromo-2\u2032,4\u2032-dichloro-", "2-Bromo-1-(2,4-dichlorophenyl)ethanone", "2-Bromo-2\u2032,4\u2032-dichloroacetophenone", "2,4-Dichlorophenacyl bromide", "\u03c9-Bromo-2,4-dichloroacetophenone", "2\u2032,4\u2032-Dichloro-2-bromoacetophenone", "\u03b1-Bromo-2,4-dichloroacetophenone", "2-Bromo-1-(2,4-dichlorophenyl)ethan-1-one", "2,4-Dichlorophenyl bromomethyl ketone", "Bromomethyl 2,4-dichlorophenyl ketone", "\u03b1-Bromo-2\u2032,4\u2032-dichloroacetophenone"], "SMILES": "C(CBr)(=O)C1=C(Cl)C=C(Cl)C=C1", "physical_data": {"Molecular Weight": "267.93", "Molecular Formula": "C8H5BrCl2O", "Boiling Point": "103-106 \u00b0C @ Press: 0.4 Torr", "Melting Point": "30-32 \u00b0C"}}