{"cas_no": "2631-37-0", "cn_name": "\u731b\u6740\u5a01", "en_name": ["Promecarb", "Phenol, 3-methyl-5-(1-methylethyl)-, 1-(N-methylcarbamate)", "Carbamic acid, methyl-, m-cym-5-yl ester", "Phenol, 3-methyl-5-(1-methylethyl)-, methylcarbamate", "EP 316", "Schering 34615", "m-Cym-5-yl methylcarbamate", "Minacide", "Morton EP-316", "ITC", "Sch 34615", "3-Methyl-5-isopropylphenyl methylcarbamate", "Promecarb", "Carbamult", "3-Methyl-5-isopropylphenyl N-methylcarbamate", "3-Isopropyl-5-methylphenyl N-methylcarbamate", "3-Isopropyl-5-methylphenyl methylcarbamate", "NSC 35378", "3-Methyl-5-i-propylphenyl N-methylcarbamate"], "SMILES": "O(C(NC)=O)C1=CC(C(C)C)=CC(C)=C1", "physical_data": {"Molecular Weight": "207.27", "Molecular Formula": "C12H17NO2", "Boiling Point": "117 \u00b0C @ Press: 0.1 Torr", "Melting Point": "87-87.5 \u00b0C"}}