{"cas_no": "2631-40-5", "cn_name": "\u5f02\u4e19\u5a01", "en_name": ["Isoprocarb", "Phenol, 2-(1-methylethyl)-, 1-(N-methylcarbamate)", "Carbamic acid, methyl-, o-cumenyl ester", "Phenol, 2-(1-methylethyl)-, methylcarbamate", "PPC 3", "OMS 32", "Bayer 39,731", "o-Isopropylphenol methylcarbamate", "o-Isopropylphenyl N-methylcarbamate", "2-Isopropylphenyl N-methylcarbamate", "BAY 39731", "Ro 7-5050", "o-Cumenyl N-methylcarbamate", "Mipcin", "2-Isopropylphenyl methylcarbamate", "o-Cumenyl methylcarbamate", "o-Isopropylphenyl methylcarbamate", "Mipcine", "MIPC", "Isoprocarb", "ENT 25670", "Etrofolan", "NSC 191479", "Mobucin", "2-(Propan-2-yl)phenyl N-methylcarbamate"], "SMILES": "C(C)(C)C1=C(OC(NC)=O)C=CC=C1", "physical_data": {"Molecular Weight": "193.24", "Molecular Formula": "C11H15NO2", "Boiling Point": "273.6 \u00b0C", "Melting Point": "94 \u00b0C"}}