{"cas_no": "26328-04-1", "cn_name": "\u9a6c\u6765\u9178\u6842\u54cc\u9f50\u7279", "en_name": ["Cinepazide maleate", "2-Propen-1-one, 1-[4-[2-oxo-2-(1-pyrrolidinyl)ethyl]-1-piperazinyl]-3-(3,4,5-trimethoxyphenyl)-, (2Z)-2-butenedioate (1:1)", "Piperazine, 1-[(1-pyrrolidinylcarbonyl)methyl]-4-(3,4,5-trimethoxycinnamoyl)-, maleate (1:1)", "Piperazine, 1-[2-oxo-2-(1-pyrrolidinyl)ethyl]-4-[1-oxo-3-(3,4,5-trimethoxyphenyl)-2-propenyl]-, (Z)-2-butenedioate (1:1)", "Piperazine, 1-[2-oxo-2-(1-pyrrolidinyl)ethyl]-4-[1-oxo-3-(3,4,5-trimethoxyphenyl)-2-propenyl]-, (2Z)-2-butenedioate (1:1)", "Cinepazide maleate", "Brendil", "Vasodistal", "MD 67350", "NSC 291562"], "SMILES": "C(=CC(O)=O)C(O)=O.O(C)C1=C(OC)C(OC)=CC(C=CC(=O)N2CCN(CC(=O)N3CCCC3)CC2)=C1", "physical_data": {"Molecular Weight": "", "Molecular Formula": "C22H31N3O5.C4H4O4", "Melting Point": "135 \u00b0C"}}