{"cas_no": "2632-13-5", "cn_name": "alpha-\u6eb4-4-\u7532\u6c27\u57fa\u82ef\u4e59\u916e", "en_name": ["4-Methoxyphenacyl bromide", "Ethanone, 2-bromo-1-(4-methoxyphenyl)-", "Acetophenone, 2-bromo-4\u2032-methoxy-", "2-Bromo-1-(4-methoxyphenyl)ethanone", "4-Methoxyphenacyl bromide", "2-Bromo-4\u2032-methoxyacetophenone", "p-Methoxyphenacyl bromide", "2-Bromo-p-methoxyacetophenone", "4\u2032-Methoxy-2-bromoacetophenone", "\u03c9-Bromo-4\u2032-methoxyacetophenone", "\u03b1-Bromo-p-methoxyacetophenone", "4\u2032-Methoxyphenacyl bromide", "\u03b1-Bromo-4\u2032-methoxyacetophenone", "Bromomethyl p-anisyl ketone", "2-Bromo-1-(4-methoxyphenyl)-1-ethanone", "2-(4-Methoxyphenyl)-2-oxoethyl bromide", "\u03c9-Bromo-p-methoxyacetophenone", "Bromomethyl p-methoxyphenyl ketone", "\u03b1-Bromo-4-methoxyacetophenone", "Bromomethyl 4-methoxyphenyl ketone", "4-Methoxy-2\u2032-bromoacetophenone", "NSC 129010", "2-Bromo-1-[4-(methyloxy)phenyl]ethanone", "1-(Bromoacetyl)-4-methoxybenzene", "p-Methoxy-2-bromoacetophenone", "2-Bromo-(4-methoxyphenyl)ethan-1-one"], "SMILES": "C(CBr)(=O)C1=CC=C(OC)C=C1", "physical_data": {"Molecular Weight": "229.07", "Molecular Formula": "C9H9BrO2", "Melting Point": "72-73 \u00b0C"}}