{"cas_no": "26328-11-0", "cn_name": "S-\u5432\u54da\u6d1b\u5c14", "en_name": ["(-)-Pindolol", "2-Propanol, 1-(1H-indol-4-yloxy)-3-[(1-methylethyl)amino]-, (2S)-", "2-Propanol, 1-(indol-4-yloxy)-3-(isopropylamino)-, (-)-", "2-Propanol, 1-(1H-indol-4-yloxy)-3-[(1-methylethyl)amino]-, (S)-", "(2S)-1-(1H-Indol-4-yloxy)-3-[(1-methylethyl)amino]-2-propanol", "l-Pindolol", "(-)-Pindolol", "S-Pindolol", "(S)-(-)-Pindolol", "2-Propanol 1-(1H-indol-4-yloxy)-3-[(1-methylethyl)amino]-, (2S)-"], "SMILES": "O(CC(CNC(C)C)O)C1=C2C(NC=C2)=CC=C1", "physical_data": {"Molecular Weight": "248.32", "Molecular Formula": "C14H20N2O2", "Melting Point": "138-173 \u00b0C"}}