{"cas_no": "26326-05-6", "cn_name": "1-\u4e01\u70ef-2,3,4-\u4e09\u7fa7\u9178", "en_name": ["3-Butene-1,2,3-tricarboxylic acid", "3-Butene-1,2,3-tricarboxylic acid", "1-Butene-2,3,4-tricarboxylic acid", "Butene-2,3,4-tricarboxylic acid", "1-Methylidenepropane-1,2,3-tricarboxylic acid"], "SMILES": "C(C(C(O)=O)=C)(CC(O)=O)C(O)=O", "physical_data": {"Molecular Weight": "188.13", "Molecular Formula": "C7H8O6", "Boiling Point": "101 \u00b0C @ Press: 3 x 10<sup>-3</sup> Torr"}}