{"cas_no": "26322-14-5", "cn_name": "\u8fc7\u6c27\u5316\u4e8c(\u5341\u516d\u70f7\u57fa)\u4e8c\u78b3\u9178\u916f", "en_name": ["Dicetyl peroxydicarbonate", "Peroxydicarbonic acid, C,C\u2032-dihexadecyl ester", "Peroxydicarbonic acid, dihexadecyl ester", "Dicetyl peroxydicarbonate", "Dihexadecyl peroxydicarbonate", "Perkadox 24W40", "Lupersol 216", "Perkadox 24", "Liladox", "Liladox 33W", "Liladox 90P", "Perkadox 24FL", "Perkadox 24L", "Cetyl peroxy dicarbonate", "Acetic acid, dianhydride with peroxydicarbonic acid"], "SMILES": "C(OOC(OCCCCCCCCCCCCCCCC)=O)(OCCCCCCCCCCCCCCCC)=O", "physical_data": {"Molecular Weight": "570.88", "Molecular Formula": "C34H66O6", "Melting Point": "52 \u00b0C"}}