{"cas_no": "2633-67-2", "cn_name": "\u5bf9-\u82ef\u4e59\u70ef\u78fa\u9170\u6c2f", "en_name": ["p-Styrenesulfonyl chloride", "Benzenesulfonyl chloride, 4-ethenyl-", "Benzenesulfonyl chloride, p-vinyl-", "4-Ethenylbenzenesulfonyl chloride", "p-Vinylbenzenesulfonyl chloride", "p-Styrenesulfonyl chloride", "4-Styrenesulfonyl chloride", "4-Vinylbenzenesulfonyl chloride", "4-(Chlorosulfonyl)styrene", "4-Vinylbenzene-1-sulfonyl chloride", "p-Vinylphenylsulfonyl chloride"], "SMILES": "S(Cl)(=O)(=O)C1=CC=C(C=C)C=C1", "physical_data": {"Molecular Weight": "202.66", "Molecular Formula": "C8H7ClO2S", "Boiling Point": "128-130 \u00b0C @ Press: 4 Torr", "Melting Point": "86 \u00b0C", "Density": "1.3060 g/cm\u00b3 @ Temp: 20 \u00b0C"}}