{"cas_no": "26348-70-9", "cn_name": "L-\u8d56\u6c28\u9178\u7532\u916f\u76d0\u9178\u76d0", "en_name": ["L-Lysine, methyl ester, hydrochloride (1:2)", "L-Lysine, methyl ester, hydrochloride (1:2)", "Lysine, methyl ester, dihydrochloride, L-", "L-Lysine, methyl ester, dihydrochloride", "Methyl L-lysinate dihydrochloride", "Lysine methyl ester dihydrochloride", "NSC 83256", "L-Lysine dihydrochloride methyl ester"], "SMILES": "C(CCCCN)(C(OC)=O)N.Cl", "physical_data": {"Molecular Weight": "", "Molecular Formula": "C7H16N2O2.2ClH", "Melting Point": "211-212 \u00b0C"}}