{"cas_no": "26348-61-8", "cn_name": "L-\u4e1d\u6c28\u9178\u4e59\u916f\u76d0\u9178\u76d0", "en_name": ["L-Serine, ethyl ester, hydrochloride (1:1)", "L-Serine, ethyl ester, hydrochloride (1:1)", "Serine, ethyl ester, hydrochloride, L-", "L-Serine, ethyl ester, hydrochloride", "Serine, ethyl ester, hydrochloride", "L-Seryl ethyl ester hydrochloride", "Ethyl L-serinate hydrochloride", "Ethyl serinate hydrochloride"], "SMILES": "C(C(CO)N)(OCC)=O.Cl", "physical_data": {"Molecular Weight": "", "Molecular Formula": "C5H11NO3.ClH", "Melting Point": "130 \u00b0C"}}