{"cas_no": "2634-33-5", "cn_name": "1,2-\u82ef\u5e76\u5f02\u567b\u5511-3-\u916e", "en_name": ["1,2-Benzisothiazol-3(2H)-one", "1,2-Benzisothiazol-3(2H)-one", "1,2-Benzisothiazolin-3-one", "1,2-Benzisothiazolone", "3-Hydroxy-1,2-benzisothiazole", "Proxel PL", "Proxel Press Paste", "Proxel XL 2", "Proxel AB", "Proxel GXL", "Topcide 600", "San-aibac AP", "Proxel BDN", "Proxel BD 20", "1,2-Benzoisothiazol-3-one", "XBINX", "Proxel BD", "Benzisothiazolone", "Proxel CF", "1,2-Benzisothiazol-3-one", "Proxel TN", "Bestcide 200K", "Parmetol B 70", "BIT", "Proxel LV-S", "Proxel Press Paste D", "Apizas AP-DS", "Proxel HL 2", "Benzocil", "Denicide BIT", "SD 202", "Nuosept 495", "Nipacide BIT 20", "Nuosept 491", "Nipacide BIT", "Canguard BIT", "Nuosept 485", "SD 202 (bactericide)", "Benzo[d]isothiazol-3(2H)-one", "Denicide BIT 20N", "Acticide BIT", "Benzoisothiazol-3-one", "Bioban BIT 20DPG", "Canguard BIT 20DPG", "Proxel Ultra 5", "Parmetol D 11", "Canguard Ultra BIT 20LE", "Koralone B 119", "2,3-Dihydrobenzisothiazol-3-one", "Benzisothiazolin-3-one", "GXL", "Preventol BIT 20D", "Troysan 1050", "Acticide BW 20", "BIT 20", "Nipacide BIT 10W", "BIT 10W", "Proxel XL", "AQ", "AQ (antibacterial)", "Proxel GXL(S)", "Canguard BIT 20AS-E", "Acticide B 20N", "Bioban Ultra Bit", "Rocima 640", "Proxel LV", "Proxel AQ", "Benzisothiazolinone", "Mergal 753", "Cation BIT 20", "1,2-benzothiazoline-3-one", "1,2-benzothiazolin-3-one", "Acticide B 20", "B 20", "Bioban Ultra BIT 20", "Microcave BIT", "Nuosept BIT Technical", "Promex 20D", "Colipa P 96", "BIT 20LE", "2,3-Dihydro-1,2-benzothiazol-3-one", "Proxel XL-II", "Proxel XL 11", "Biox P 520W", "Nuosept 498G", "P 520W", "BIT 521", "BIT 665", "XL 2", "Acticide BIT 20N", "Preventol BIT 20N", "AZVIII 40A", "Nipacide BIT 40", "Lamfix SK", "San-ai Bac R 30", "Proxel GLX", "Mergal K 20", "BT 550", "Proxel", "Bitetrol T 20", "LD 85", "Proxel GL", "Skybio B 20"], "SMILES": "O=C1C=2C(=CC=CC2)SN1", "physical_data": {"Molecular Weight": "151.19", "Molecular Formula": "C7H5NOS", "Melting Point": "157-158 \u00b0C"}}