{"cas_no": "263400-88-0", "cn_name": "\u5bf9\u7532\u82ef\u78fa\u9178-3-\u7532\u78fa\u9170\u57fa\u4e19\u916f", "en_name": ["1-Propanol, 3-(methylsulfonyl)-, 1-(4-methylbenzenesulfonate)", "1-Propanol, 3-(methylsulfonyl)-, 1-(4-methylbenzenesulfonate)", "1-Propanol, 3-(methylsulfonyl)-, 4-methylbenzenesulfonate", "3-(Methylsulfonyl)propyl 4-methylbenzenesulfonate", "3-(Methylsulfonyl)propyl tosylate"], "SMILES": "S(OCCCS(C)(=O)=O)(=O)(=O)C1=CC=C(C)C=C1", "physical_data": {"Molecular Weight": "292.37", "Molecular Formula": "C11H16O5S2", "Melting Point": "88-89 \u00b0C"}}