{"cas_no": "26342-66-5", "cn_name": "\u95f9\u7f8a\u82b1\u6bd2\u7d20III", "en_name": ["Rhodojaponin III", "Grayanotoxane-5,6,10,14,16-pentol, 2,3-epoxy-, (2\u03b2,3\u03b2,6\u03b2,14R)-", "7,9a-Methano-9a\u03b1H-cyclopenta[b]heptalene-4,8,11,11a\u03b2,12(1H)-pentol, 2\u03b2,3\u03b2-epoxy-2,3,3a\u03b2,4,4a\u03b2,5,6,7\u03b2,8,9,10,11\u03b1-dodecahydro-1,1,4\u03b2,8\u03b2-tetramethyl-", "5,7a-Methano-7aH-cyclohept[6,7]azuleno[1,2-b]oxirene, grayanotoxane-5,6,10,14,16-pentol deriv.", "(2\u03b2,3\u03b2,6\u03b2,14R)-2,3-Epoxygrayanotoxane-5,6,10,14,16-pentol", "Rhodojaponin III"], "SMILES": "OC1C23C(C(C)(O)C4C(O)(C(O)C2)C(C)(C)C5C4O5)CCC1C(C)(O)C3", "physical_data": {"Molecular Weight": "368.46", "Molecular Formula": "C20H32O6", "Melting Point": "285-287 \u00b0C"}}