{"cas_no": "263400-68-6", "cn_name": "4- \u6c2f-6-\u7532\u6c27\u57fa\u55b9\u5511\u5549-7-\u9187", "en_name": ["4-Chloro-7-hydroxy-6-methoxyquinazoline", "7-Quinazolinol, 4-chloro-6-methoxy-", "4-Chloro-6-methoxy-7-quinazolinol", "4-Chloro-6-methoxyquinazolin-7-ol", "4-Chloro-7-hydroxy-6-methoxyquinazoline"], "SMILES": "ClC=1C2=C(C=C(O)C(OC)=C2)N=CN1", "physical_data": {"Molecular Weight": "210.62", "Molecular Formula": "C9H7ClN2O2", "Melting Point": "207-209 \u00b0C"}}