{"cas_no": "26340-89-6", "cn_name": "L-\u7cbe\u6c28\u9178\u7532\u916f\u4e8c\u76d0\u9178\u76d0", "en_name": ["L-Arginine, methyl ester, hydrochloride (1:2)", "L-Arginine, methyl ester, hydrochloride (1:2)", "Arginine, methyl ester, dihydrochloride, L-", "L-Arginine, methyl ester, dihydrochloride", "Arginine methyl ester dihydrochloride"], "SMILES": "C(CCCNC(=N)N)(C(OC)=O)N.Cl", "physical_data": {"Molecular Weight": "", "Molecular Formula": "C7H16N4O2.2ClH", "Melting Point": "192-194 \u00b0C"}}