{"cas_no": "2635-84-9", "cn_name": "4-\u785d\u57fa\u82ef\u4e01\u9178\u916f", "en_name": ["p-Nitrophenyl butyrate", "Butanoic acid, 4-nitrophenyl ester", "Butyric acid, p-nitrophenyl ester", "p-Nitrophenol butyrate", "p-Nitrophenyl butyrate", "4-Nitrophenyl butyrate", "p-Nitrophenyl butanoate", "4-Nitrophenyl butanoate", "NSC 6867"], "SMILES": "O(C(CCC)=O)C1=CC=C(N(=O)=O)C=C1", "physical_data": {"Molecular Weight": "209.20", "Molecular Formula": "C10H11NO4", "Boiling Point": "184-185 \u00b0C @ Press: 760 Torr"}}