{"cas_no": "2635-13-4", "cn_name": "4-\u6eb4-1,2-\u4e9a\u7532\u4e8c\u6c27\u57fa\u82ef", "en_name": ["5-Bromo-1,3-benzodioxole", "1,3-Benzodioxole, 5-bromo-", "Benzene, 4-bromo-1,2-(methylenedioxy)-", "5-Bromo-1,3-benzodioxole", "3,4-Methylenedioxybromobenzene", "1-Bromo-3,4-(methylenedioxy)benzene", "4-Bromo-1,2-(methylenedioxy)benzene", "3,4-Methylenedioxyphenyl bromide", "5-Bromo-1,3-benzodioxolane", "Benzodioxol-5-yl bromide", "5-Bromobenzo[d][1,3]dioxole", "1,2-(Methylenedioxy)-4-bromobenzene", "5-Bromo-2H-1,3-benzodioxole"], "SMILES": "BrC=1C=C2C(=CC1)OCO2", "physical_data": {"Molecular Weight": "201.02", "Molecular Formula": "C7H5BrO2", "Boiling Point": "85-86 \u00b0C @ Press: 1 Torr"}}