{"cas_no": "26364-65-8", "cn_name": "2-\u6c30\u57fa\u4e9a\u80fa\u57fa-1,3-\u567b\u5511\u70f7", "en_name": ["N-(4,5-Dihydro-2-thiazolyl)cyanamide", "Cyanamide, N-(4,5-dihydro-2-thiazolyl)-", "\u03942,N-Thiazolidinecarbamonitrile", "Cyanamide, (4,5-dihydro-2-thiazolyl)-", "N-(4,5-Dihydro-2-thiazolyl)cyanamide", "2-Thiazolidinylidenecyanamide", "2-(Cyanoimino)thiazolidine", "2-Cyanoimino-1,3-thiazolidine", "N-Cyanoiminothiazolidine", "[(4,5-Dihydro-1,3-thiazol-2-yl)amino]formonitrile"], "SMILES": "N(C#N)C1=NCCS1", "physical_data": {"Molecular Weight": "127.17", "Molecular Formula": "C4H5N3S", "Melting Point": "156-157 \u00b0C"}}