{"cas_no": "2636-26-2", "cn_name": "\u6740\u879f\u8148", "en_name": ["Cyanophos", "Phosphorothioic acid, O-(4-cyanophenyl) O,O-dimethyl ester", "Phosphorothioic acid, O,O-dimethyl ester, O-ester with p-hydroxybenzonitrile", "Phosphorothioic acid, O-p-cyanophenyl O,O-dimethyl ester", "S 4084", "BAY 34727", "Cyanox", "O,O-Dimethyl O-(4-cyanophenyl) phosphorothioate", "O,O-Dimethyl O-(p-cyanophenyl) phosphorothioate", "Sumitomo S 4084", "Cyanophos", "Ciafos", "CYAP", "Cyanofos", "Falcolan"], "SMILES": "P(OC1=CC=C(C#N)C=C1)(OC)(OC)=S", "physical_data": {"Molecular Weight": "243.22", "Molecular Formula": "C9H10NO3PS", "Boiling Point": "119-120 \u00b0C", "Melting Point": "14-15 \u00b0C", "Density": "1.255-1.265 g/cm\u00b3 @ Temp: 25 \u00b0C"}}