{"cas_no": "2637-37-8", "cn_name": "2-\u786b\u4ee3\u55b9\u5549", "en_name": ["2(1H)-Quinolinethione", "2(1H)-Quinolinethione", "Carbostyril, thio-", "2-Quinolinethiol", "2-Mercaptoquinoline", "Thiocarbostyril", "2-Thioquinolone", "2-Quinolinethione", "NSC 408468", "NSC 43642", "2-Thioquinoline", "1H-Quinoline-2-thione", "1,2-Dihydroquinoline-2-thione"], "SMILES": "S=C1NC=2C(C=C1)=CC=CC2", "physical_data": {"Molecular Weight": "161.22", "Molecular Formula": "C9H7NS", "Boiling Point": "178 \u00b0C @ Press: 0.5 Torr", "Melting Point": "187 \u00b0C"}}