{"cas_no": "26377-17-3", "cn_name": "\u5f02\u70df\u9170\u4e59\u9178\u4e59\u916f", "en_name": ["4-Pyridinepropanoic acid, \u03b2-oxo-, ethyl ester", "4-Pyridinepropanoic acid, \u03b2-oxo-, ethyl ester", "4-Pyridinepropionic acid, \u03b2-oxo-, ethyl ester", "Ethyl 3-(4-pyridyl)-3-oxopropionate", "Isonicotinoylacetic acid ethyl ester", "Ethyl isonicotinoylacetate", "3-Oxo-3-pyridin-4-ylpropionic acid ethyl ester", "Ethyl 3-oxo-3-(4-pyridyl)propionate", "Ethyl \u03b2-oxo-4-pyridinepropanoate", "Ethyl 3-oxo-3-(4-pyridinyl)propanoate", "Ethyl 3-(pyridin-4-yl)-3-oxopropionate", "3-Oxo-3-(pyridin-4-yl)propanoic acid ethyl ester", "Ethyl 3-(pyridin-4-yl)-3-oxopropanoate", "Ethyl 3-oxo-3-(4-pyridyl)propanoate"], "SMILES": "C(CC(OCC)=O)(=O)C=1C=CN=CC1", "physical_data": {"Molecular Weight": "193.20", "Molecular Formula": "C10H11NO3", "Boiling Point": "80-82 \u00b0C @ Press: 0.03 Torr", "Melting Point": "60 \u00b0C"}}