{"cas_no": "2637-34-5", "cn_name": "2-\u5421\u5576\u786b\u916e", "en_name": ["2-Mercaptopyridine", "2(1H)-Pyridinethione", "2-Mercaptopyridine", "2-Thiopyridine", "2-Pyridinethiol", "2-Pyridinethione", "2-Thiopyridone", "2-Pyridyl mercaptan", "WR 608", "2-Pyridylthiol", "2-Sulfanylpyridine", "1H-Pyridine-2-thione", "NSC 41337", "Alrithiol-2", "1,2-Dihydropyridine-2-thione", "2-Pyridothione"], "SMILES": "S=C1C=CC=CN1", "physical_data": {"Molecular Weight": "111.16", "Molecular Formula": "C5H5NS", "Melting Point": "128-130 \u00b0C"}}