{"cas_no": "263717-53-9", "cn_name": "PPT", "en_name": ["Propyl pyrazole triol", "Phenol, 4,4\u2032,4\u2032\u2032-(4-propyl-1H-pyrazole-1,3,5-triyl)tris-", "4,4\u2032,4\u2032\u2032-(4-Propyl-1H-pyrazole-1,3,5-triyl)tris[phenol]", "PPT", "Propyl pyrazole triol"], "SMILES": "C(CC)C1=C(N(N=C1C2=CC=C(O)C=C2)C3=CC=C(O)C=C3)C4=CC=C(O)C=C4", "physical_data": {"Molecular Weight": "386.44", "Molecular Formula": "C24H22N2O3", "Melting Point": "230 \u00b0C (decomp)"}}