{"cas_no": "26371-07-3", "cn_name": "1-\u54cc\u5576\u4e19\u9178", "en_name": ["1-Piperidinepropanoic acid", "1-Piperidinepropanoic acid", "1-Piperidinepropionic acid", "3-Piperidinopropionic acid", "3-Piperidin-1-ylpropionic acid", "3-(1-Piperidinyl)propanoic acid", "3-Piperidinopropanoic acid", "3-Piperidin-1-ium-1-ylpropanoate"], "SMILES": "C(CC(O)=O)N1CCCCC1", "physical_data": {"Molecular Weight": "157.21", "Molecular Formula": "C8H15NO2", "Boiling Point": "105-108 \u00b0C @ Press: 0.5 Torr", "Melting Point": "82-83 \u00b0C"}}