{"cas_no": "2637-76-5", "cn_name": "1-\u4e59\u9170\u57fa-3-\u54cc\u5576\u7532\u9178", "en_name": ["1-Acetyl-3-piperidinecarboxylic acid", "3-Piperidinecarboxylic acid, 1-acetyl-", "Nipecotic acid, 1-acetyl-", "1-Acetyl-3-piperidinecarboxylic acid", "N-Acetylnipecotic acid"], "SMILES": "C(O)(=O)C1CN(C(C)=O)CCC1", "physical_data": {"Molecular Weight": "171.19", "Molecular Formula": "C8H13NO3", "Melting Point": "130.5-131.5 \u00b0C"}}