{"cas_no": "2638-94-0", "cn_name": "4,4'-\u5076\u6c2e\u53cc(4-\u6c30\u57fa\u620a\u9178)", "en_name": ["4,4-Azobis(4-cyanovaleric acid)", "Pentanoic acid, 4,4\u2032-(1,2-diazenediyl)bis[4-cyano-", "Valeric acid, 4,4\u2032-azobis[4-cyano-", "Pentanoic acid, 4,4\u2032-azobis[4-cyano-", "4,4\u2032-(1,2-Diazenediyl)bis[4-cyanopentanoic acid]", "4,4\u2032-Azobis[4-cyanopentanoic acid]", "Azobis(cyanovaleric acid)", "4,4\u2032-Azobis[4-cyanovaleric acid]", "V 501", "4,4\u2032-Azobis(cyanovaleric acid)", "4,4\u2032-Azobis(4-cyanopentanecarboxylic acid)", "ACV-A", "NSC 114466", "ABCVA", "VA 501", "Vazo 68WSP", "Vazo 68", "NC 25", "NC 25 (catalyst)", "ABCPA", "Vazo V 501", "4,4-Azobis(4-cyanovaleric acid)", "4,4\u2032-Azobiscyanopentanoic acid", "ACA"], "SMILES": "C(N=NC(CCC(O)=O)(C#N)C)(CCC(O)=O)(C#N)C", "physical_data": {"Molecular Weight": "280.28", "Molecular Formula": "C12H16N4O4", "Melting Point": "120-123 \u00b0C (decomp)"}}