{"cas_no": "26386-88-9", "cn_name": "\u53e0\u6c2e\u78f7\u9178\u4e8c\u82ef\u916f", "en_name": ["Diphenylphosphoryl azide", "Phosphorazidic acid, diphenyl ester", "Diphenylphosphoryl azide", "Diphenyl phosphorazidate", "Diphenylphosphorazide", "O,O-Diphenylphosphoryl azide", "Diphenyl azidophosphate", "DPPA", "Azidodiphenoxyoxophosphorane", "Phosphoric acid diphenyl ester azide", "[Azido(phenoxy)phosphoryl]oxybenzene", "Diphenyl phosphoroazidate"], "SMILES": "P(OC1=CC=CC=C1)(OC2=CC=CC=C2)(N=[N+]=[N-])=O", "physical_data": {"Molecular Weight": "", "Molecular Formula": "C12H10N3O3P", "Boiling Point": "157 \u00b0C @ Press: 0.17 Torr", "Density": "1.277 g/cm\u00b3"}}