{"cas_no": "26385-07-9", "cn_name": "N-(2-\u6c2f\u4e59\u57fa)\u82ef\u7532\u9170\u80fa", "en_name": ["N-(2-Chloroethyl)benzamide", "Benzamide, N-(2-chloroethyl)-", "N-(2-Chloroethyl)benzamide", "NSC 520281"], "SMILES": "C(NCCCl)(=O)C1=CC=CC=C1", "physical_data": {"Molecular Weight": "183.63", "Molecular Formula": "C9H10ClNO", "Melting Point": "105 \u00b0C"}}