{"cas_no": "26399-36-0", "cn_name": "\u73af\u4e19\u6c1f\u7075", "en_name": ["Profluralin", "Benzenamine, N-(cyclopropylmethyl)-2,6-dinitro-N-propyl-4-(trifluoromethyl)-", "p-Toluidine, N-(cyclopropylmethyl)-\u03b1,\u03b1,\u03b1-trifluoro-2,6-dinitro-N-propyl-", "N-(Cyclopropylmethyl)-2,6-dinitro-N-propyl-4-(trifluoromethyl)benzenamine", "CGA 10832", "N-Cyclopropylmethyl-N-propyl-4-trifluoromethyl-2,6-dinitroaniline", "CG 10832", "ER 5461", "Profluralin", "Tolban", "SGA 10832", "B 4576", "Pregard"], "SMILES": "N(CC1CC1)(CCC)C2=C(N(=O)=O)C=C(C(F)(F)F)C=C2N(=O)=O", "physical_data": {"Molecular Weight": "347.29", "Molecular Formula": "C14H16F3N3O4", "Melting Point": "33-36 \u00b0C"}}