{"cas_no": "2639-63-6", "cn_name": "\u4e01\u9178\u5df1\u916f", "en_name": ["Hexyl butyrate", "Butanoic acid, hexyl ester", "Butyric acid, hexyl ester", "Hexyl butanoate", "Hexyl butyrate", "n-Hexyl butanoate", "n-Hexyl n-butyrate", "n-Hexyl butyrate", "1-Hexyl butyrate"], "SMILES": "C(OCCCCCC)(CCC)=O", "physical_data": {"Molecular Weight": "172.26", "Molecular Formula": "C10H20O2", "Boiling Point": "208 \u00b0C", "Melting Point": "-78 \u00b0C", "Density": "0.8825 g/cm\u00b3 @ Temp: 0 \u00b0C"}}