{"cas_no": "26391-06-0", "cn_name": "N,N-\u4e8c\u4e59\u57fa\u6c30\u4e59\u9170\u80fa", "en_name": ["2-Cyano-N,N-diethylacetamide", "Acetamide, 2-cyano-N,N-diethyl-", "2-Cyano-N,N-diethylacetamide", "N,N-Diethylcyanoacetamide", "N,N-Diethyl-2-cyanoacetamide"], "SMILES": "N(C(CC#N)=O)(CC)CC", "physical_data": {"Molecular Weight": "140.18", "Molecular Formula": "C7H12N2O", "Boiling Point": "105-114 \u00b0C @ Press: 4 Torr", "Melting Point": "121 \u00b0C"}}