{"cas_no": "26395-26-6", "cn_name": "3-\u7532\u6c27\u57fa-2-\u7532\u57fa\u5421\u5576", "en_name": ["3-Methoxy-2-methylpyridine", "Pyridine, 3-methoxy-2-methyl-", "2-Picoline, 3-methoxy-", "3-Methoxy-2-methylpyridine", "3-Methoxy-2-picoline"], "SMILES": "O(C)C1=C(C)N=CC=C1", "physical_data": {"Molecular Weight": "123.15", "Molecular Formula": "C7H9NO", "Boiling Point": "84-86 \u00b0C @ Press: 15 Torr"}}