{"cas_no": "26402-22-2", "cn_name": "\u4e00\u7678\u9178\u7518\u6cb9\u916f", "en_name": ["Monocaprin", "Decanoic acid, monoester with 1,2,3-propanetriol", "Decanoin, mono-", "Glyceryl monocaprate", "Monocaprin", "Capric acid monoglyceride", "Glycerol monocaprate", "Decanoic acid monoglyceride", "Sunsoft 767", "Poem M 200", "Glycerin monodecanoate", "Monodecanoin", "Glycerin monocaprate", "Sunsoft 760", "Monocaprinoylglycerin", "Glyceryl monocaprinate", "Capmul MCM-C 10", "Glyceryl monodecanoate", "Monodecanoyl glycerol", "Sunsoft 760H", "Glycerol monodecanoate", "Capric monoglyceride", "Sunsoft 760C"], "SMILES": "", "physical_data": {"Molecular Weight": "", "Molecular Formula": "C13H26O4", "Melting Point": "47 \u00b0C"}}