{"cas_no": "26402-26-6", "cn_name": "\u5355\u8f9b\u9178\u7518\u6cb9\u916f", "en_name": ["Glyceryl monocaprylate", "Octanoic acid, monoester with 1,2,3-propanetriol", "Octanoin, mono-", "Drewmulse CA", "Glycerol monocaprylate", "Monocaprylin", "Monooctanoin", "Caprylic acid monoglyceride", "Glycerin monocaprylate", "Glyceryl monocaprylate", "Sunsoft 700p2", "Monocapryl glyceride", "Sefsol 318", "Poem M 100", "Imwitor 308", "Capmul MCM-C 8", "Sunsoft 700P", "Glycerol monooctanoate", "Sunsoft 700H", "Glyceryl monooctanoate", "Homotex PT", "Capmul MCM-L 8", "Lexgard GMCY", "Glycerin monooctanoate", "MG 80", "Poem FB 28", "Sunsoft 700P2C", "Jolee 7097", "Almax 1150", "Dermosoft GMCY-MB", "SymLite G8", "Capmul 808G"], "SMILES": "", "physical_data": {"Molecular Weight": "", "Molecular Formula": "C11H22O4", "Melting Point": "32 \u00b0C"}}