{"cas_no": "2641-89-6", "cn_name": "\u56db\u6eb4\u4ee3\u6c22\u918c", "en_name": ["2,3,5,6-Tetrabromo-1,4-benzenediol", "1,4-Benzenediol, 2,3,5,6-tetrabromo-", "Hydroquinone, tetrabromo-", "2,3,5,6-Tetrabromo-1,4-benzenediol", "Tetrabromohydroquinone", "2,3,5,6-Tetrabromohydroquinone", "Tetrabromo-p-hydroquinone", "Hydrobromanil", "NSC 508878", "Tetrabromo-1,4-hydroquinone", "2,3,5,6-Tetrabromo-1,4-hydroquinone", "1,4-Dihydroxy-2,3,5,6-tetrabromobenzene"], "SMILES": "BrC1=C(Br)C(O)=C(Br)C(Br)=C1O", "physical_data": {"Molecular Weight": "425.69", "Molecular Formula": "C6H2Br4O2", "Melting Point": "244 \u00b0C"}}