{"cas_no": "2641-34-1", "cn_name": "2,5-\u53cc(\u4e09\u6c1f\u7532\u57fa)-3,6-\u4e8c\u6c27\u6742\u5341\u4e00\u6c1f\u4ee3\u58ec\u9170\u6c1f", "en_name": ["2,3,3,3-Tetrafluoro-2-[1,1,2,3,3,3-hexafluoro-2-(1,1,2,2,3,3,3-heptafluoropropoxy)propoxy]propanoyl fluoride", "Propanoyl fluoride, 2,3,3,3-tetrafluoro-2-[1,1,2,3,3,3-hexafluoro-2-(1,1,2,2,3,3,3-heptafluoropropoxy)propoxy]-", "Propionyl fluoride, tetrafluoro-2-[hexafluoro-2-(heptafluoropropoxy)propoxy]-", "Propanoyl fluoride, 2,3,3,3-tetrafluoro-2-[1,1,2,3,3,3-hexafluoro-2-(heptafluoropropoxy)propoxy]-", "Propionyl fluoride, 2,3,3,3-tetrafluoro-2-[1,1,2,3,3,3-hexafluoro-2-(heptafluoropropoxy)propoxy]-", "2,3,3,3-Tetrafluoro-2-[1,1,2,3,3,3-hexafluoro-2-(1,1,2,2,3,3,3-heptafluoropropoxy)propoxy]propanoyl fluoride", "Hexafluoropropene oxide trimer", "2,3,3,3-Tetrafluoro-2-[1,1,2,3,3,3-hexafluoro-2-(perfluoropropoxy)propoxy]propanoyl fluoride", "Perfluoro-2,5-dimethyl-3,6-dioxanonanoyl fluoride", "Perfluoro-2,5-dimethyl-3,6-dioxanonanoic acid fluoride", "Perfluoro-2,5-dimethyl-3,6-dioxa-nonanoic acid fluoride", "Cheminox PO 3AF"], "SMILES": "C(C(OC(C(F)(F)F)(C(F)=O)F)(F)F)(OC(C(C(F)(F)F)(F)F)(F)F)(C(F)(F)F)F", "physical_data": {"Molecular Weight": "498.07", "Molecular Formula": "C9F18O3", "Boiling Point": "114-116 \u00b0C @ Press: 760 Torr"}}