{"cas_no": "2642-63-9", "cn_name": "3,4-\u4e8c\u6c2f\u82ef\u4e59\u916e", "en_name": ["3\u2032,4\u2032-Dichloroacetophenone", "Ethanone, 1-(3,4-dichlorophenyl)-", "Acetophenone, 3\u2032,4\u2032-dichloro-", "1-(3,4-Dichlorophenyl)ethanone", "3\u2032,4\u2032-Dichloroacetophenone", "NSC 403673", "3\u2032,4\u2032-Dichlorohypnone", "1-(3,4-Dichlorophenyl)ethan-1-one"], "SMILES": "C(C)(=O)C1=CC(Cl)=C(Cl)C=C1", "physical_data": {"Molecular Weight": "189.04", "Molecular Formula": "C8H6Cl2O", "Boiling Point": "135 \u00b0C @ Press: 12 Torr", "Melting Point": "76 \u00b0C"}}