{"cas_no": "2642-71-9", "cn_name": "\u8c37\u786b\u78f7\u4e59\u916f", "en_name": ["Azinphos-ethyl", "Phosphorodithioic acid, O,O-diethyl S-[(4-oxo-1,2,3-benzotriazin-3(4H)-yl)methyl] ester", "Phosphorodithioic acid, O,O-diethyl ester, S-ester with 3-(mercaptomethyl)-1,2,3-benzotriazin-4(3H)-one", "1,2,3-Benzotriazine, phosphorodithioic acid deriv.", "R 1513", "Bayer 16259", "O,O-Diethyl S-(4-oxo-3H-1,2,3-benzotriazine-3-methyl) phosphorodithioate", "O,O-Diethyl S-(4-oxobenzotriazino-3-methyl) phosphorodithioate", "O,O-Diethyl S-[4-oxo-1,2,3-benzotriazin-3(4H)-ylmethyl] phosphorodithioate", "O,O-Diethyl phosphorodithioate S-ester with 3-(mercaptomethyl)-1,2,3-benzotriazin-4-(3H)-one", "S-(3,4-Dihydro-4-oxo-1,2,3-benzotriazin-3-ylmethyl) O,O-diethyl phosphorodithioate", "Ethyl Guthion", "Azinphos-ethyl", "Gusathion A", "Gusathion ethyl", "Ethyl azinphos", "S-(3,4-Dihydro-4-oxobenzo[d]-1,2,3-triazin-3-ylmethyl)diethyl phosphorothiolothionate", "Guthion ethyl", "Ethyl Gusathion", "Gusathion H", "Gusathion K", "Cotnion-ethyl", "Gusathion K forte", "Azinphos A", "Triazothion"], "SMILES": "O=C1C=2C(N=NN1CSP(OCC)(OCC)=S)=CC=CC2", "physical_data": {"Molecular Weight": "345.38", "Molecular Formula": "C12H16N3O3PS2", "Boiling Point": "111 \u00b0C @ Press: 1 x 10<sup>-3</sup> Torr", "Melting Point": "53 \u00b0C", "Density": "1.284 g/cm\u00b3 @ Temp: 20 \u00b0C"}}