{"cas_no": "2642-98-0", "cn_name": "7-\u80fa\u57fa\u53bb\u4e59\u9170\u6c27\u57fa\u5934\u80de\u70f7\u9178", "en_name": ["6-Aminochrysene", "6-Chrysenamine", "6-Aminochrysene", "Chrysenex", "Chrysonex", "NSC 80186"], "SMILES": "NC1=CC2=C(C=3C1=CC=CC3)C=CC=4C2=CC=CC4", "physical_data": {"Molecular Weight": "243.30", "Molecular Formula": "C18H13N", "Melting Point": "210.5 \u00b0C"}}