{"cas_no": "2643-85-8", "cn_name": "\u6c34\u5408\u6c27\u5316\u524d\u80e1\u7d20", "en_name": ["(+)-Oxypeucedanin hydrate", "7H-Furo[3,2-g][1]benzopyran-7-one, 4-[(2R)-2,3-dihydroxy-3-methylbutoxy]-", "Oxypeucedanin hydrate", "7H-Furo[3,2-g][1]benzopyran-7-one, 4-(2,3-dihydroxy-3-methylbutoxy)-, (R)-(+)-", "7H-Furo[3,2-g][1]benzopyran-7-one, 4-(2,3-dihydroxy-3-methylbutoxy)-, (R)-", "4-[(2R)-2,3-Dihydroxy-3-methylbutoxy]-7H-furo[3,2-g][1]benzopyran-7-one", "Prangol", "Prangolarin hydrate", "Hydroxypeucedanin hydrate", "(+)-Oxypeucedanin hydrate", "(+)-Aviprin", "(R)-(+)-Oxypeucedan hydrate", "Aviprin", "(R)-(+)-Oxypeucedanin hydrate"], "SMILES": "O(CC(C(C)(C)O)O)C=1C2=C(C=C3C1C=CO3)OC(=O)C=C2", "physical_data": {"Molecular Weight": "304.29", "Molecular Formula": "C16H16O6", "Melting Point": "136 \u00b0C"}}