{"cas_no": "2643-07-4", "cn_name": "N-\u4e59\u57fa-N-\u6c2f\u4e59\u57fa-4-\u6c28\u57fa\u82ef\u7532\u919b", "en_name": ["4-[(2-Chloroethyl)ethylamino]benzaldehyde", "Benzaldehyde, 4-[(2-chloroethyl)ethylamino]-", "Benzaldehyde, p-[(2-chloroethyl)ethylamino]-", "4-[(2-Chloroethyl)ethylamino]benzaldehyde", "NSC 73020"], "SMILES": "N(CCCl)(CC)C1=CC=C(C=O)C=C1", "physical_data": {"Molecular Weight": "211.69", "Molecular Formula": "C11H14ClNO", "Boiling Point": "162 \u00b0C @ Press: 0.02 Torr"}}