{"cas_no": "26444-49-5", "cn_name": "\u78f7\u9178\u7532\u82ef\u4e8c\u82ef\u916f", "en_name": ["Cresyl diphenyl phosphate", "Phosphoric acid, methylphenyl diphenyl ester", "Phosphoric acid, diphenyl tolyl ester", "Phenyl tolyl phosphate ((PhO)2(C7H7)PO)", "Phenyl tolyl phosphate ((PhO)2(C7H7O)PO)", "Cresyl diphenyl phosphate", "Cresol diphenyl phosphate", "Diphenyl cresyl phosphate", "Diphenyl cresol phosphate", "Phosphoric acid, cresyl diphenyl ester", "Diphenyl tolyl phosphate", "Tolyl diphenyl phosphate", "Monocresyl diphenyl phosphate", "Methylphenyl diphenyl phosphate", "Disflamoll DPK", "Phosflex 112", "CDP", "Cresyl DPP", "Kronitex CDP", "Phosflex CDP", "Durad CDP", "WSFR-CDP"], "SMILES": "", "physical_data": {"Molecular Weight": "", "Molecular Formula": "C19H17O4P", "Boiling Point": "390 \u00b0C @ Press: 760 Torr", "Density": "1.208 g/cm\u00b3 @ Temp: 25 \u00b0C"}}