{"cas_no": "2644-64-6", "cn_name": "1,2-DIHEXADECANOYL-RAC-GLYCERO-3-PHOSPHOCHOLINE", "en_name": ["1,2-Dipalmitoylphosphatidylcholine", "3,5,9-Trioxa-4-phosphapentacosan-1-aminium, 4-hydroxy-N,N,N-trimethyl-10-oxo-7-[(1-oxohexadecyl)oxy]-, inner salt, 4-oxide", "Choline, hydroxide, dihydrogen phosphate, inner salt, ester with 1,2-dipalmitin", "3,5,9-Trioxa-4-phosphapentacosan-1-aminium, 4-hydroxy-N,N,N-trimethyl-10-oxo-7-[(1-oxohexadecyl)oxy]-, hydroxide, inner salt, 4-oxide", "Choline, phosphate, ester with 1,2-dipalmitin", "1,2-Dipalmitoylglycerol-3-phosphorylcholine", "Dipalmitoyllecithin", "1,2-Dipalmitoyl-3-phosphatidylcholine", "\u03b1-Glycerophosphorylcholine, \u03b2,\u03b3-palmitoyl-", "1,2-Dipalmitoyllecithin", "Dipalmitoyl glycerophosphorylcholine", "Dipalmitoylphosphatidylcholine", "1,2-Dipalmitoylphosphatidylcholine", "1,2-Dihexadecanoyl phosphatidylcholine", "1,2-Dipalmitoylglycerophosphorylcholine", "1,2-Dipalmitoyl-\u03b1-phosphatidylcholine", "\u03b2,\u03b3-Dipalmitoyllecithin", "\u03b1,\u03b2-Dipalmitoylphosphatidylcholine", "Dihexadecanoyl phosphatidylcholine", "DPPC", "1-Palmitoyl-2-palmitoylphosphatidylcholine", "Dipalmitoylglycerophosphocholine", "DPPC (phosphatide)", "Dipalmitoylphosphocholine", "(\u00b1)-\u03b2,\u03b3-Dipalmitoyl-\u03b1-lecithin", "\u03b2,\u03b3-Dipalmitoyl-DL-phosphatidylcholine", "DL-Dipalmitoyl-\u03b1-lecithin", "DL-Dipalmitoylphosphatidylcholine", "\u03b2,\u03b3-Dipalmitoyl-DL-\u03b1-lecithin", "Dipalmitoyl-dl-\u03b1-lecithin", "dl-1,2-Dipalmitoyl-3-phosphatidylcholine", "1,2-Dipalmitoyl-DL-phosphatidylcholine", "\u03b2,\u03b3-Dipalmitoyl-DL-\u03b1-glycerylphosphorylcholine", "\u03b2,\u03b3-Dipalmitoyl-DL-\u03b1-phosphatidylcholine", "DL-Dipalmitoyl-\u03b1-phosphatidylcholine", "Dipalmitoyl-DL-\u03b1-phosphatidylcholine", "rac-1,2-Dipalmitoylglycerol-3-phosphorylcholine", "1,2-Dipalmitoyl-DL-\u03b1-phosphatidylcholine", "DL-Dipalmitoyllecithin", "DL-\u03b2,\u03b3-Dipalmitoyl-\u03b1-phosphatidylcholine", "1,2-Dihexadecanoyl-rac-glycerol-3-phosphorylcholine", "DL-3-Dipalmitoylphosphatidylcholine", "rac-1,2-Dipalmitoylphosphatidylcholine", "DL-\u03b1-DPPC", "DL-\u03b2,\u03b3-Dipalmitoyl-\u03b1-lecithin", "1,2-Dipalmitoyl-3-phosphatidyl choline"], "SMILES": "C(OC(CCCCCCCCCCCCCCC)=O)(COP(OCC[N+](C)(C)C)(=O)[O-])COC(CCCCCCCCCCCCCCC)=O", "physical_data": {"Molecular Weight": "", "Molecular Formula": "C40H80NO8P", "Melting Point": "190 \u00b0C (decomp)"}}