{"cas_no": "26446-35-5", "cn_name": "\u7518\u6cb9\u5355\u4e59\u9178\u916f", "en_name": ["Monoacetin", "1,2,3-Propanetriol, monoacetate", "Acetin, mono-", "Acetin", "Glyceryl acetate", "Glyceryl monoacetate", "Glycerol monoacetate", "Glycerol acetate", "Monoacetin", "Glycerin monoacetate", "Glycerine monoacetate", "Eastman 9-45"], "SMILES": "", "physical_data": {"Molecular Weight": "", "Molecular Formula": "C5H10O4", "Boiling Point": "129-131 \u00b0C @ Press: 3 Torr", "Melting Point": "-78 \u00b0C", "Density": "1.206 g/cm\u00b3 @ Temp: 20 \u00b0C"}}