{"cas_no": "2644-70-4", "cn_name": "\u76d0\u9178\u80bc", "en_name": ["Hydrazinium chloride", "Hydrazine, hydrochloride (1:1)", "Hydrazine, monohydrochloride", "Hydrazine monochloride", "Hydrazinium chloride", "Hydrazinium monochloride"], "SMILES": "NN.Cl", "physical_data": {"Molecular Weight": "", "Molecular Formula": "ClH.H4N2", "Melting Point": "87-89 \u00b0C"}}