{"cas_no": "26452-81-3", "cn_name": "4-\u6c2f-6-\u7532\u6c27\u57fa\u5627\u5576", "en_name": ["4-Chloro-6-methoxypyrimidine", "Pyrimidine, 4-chloro-6-methoxy-", "4-Chloro-6-methoxypyrimidine"], "SMILES": "O(C)C=1C=C(Cl)N=CN1", "physical_data": {"Molecular Weight": "144.56", "Molecular Formula": "C5H5ClN2O", "Boiling Point": "80 \u00b0C @ Press: 18 Torr", "Melting Point": "34.5-35.0 \u00b0C"}}