{"cas_no": "2645-08-1", "cn_name": "N-\u82ef\u7532\u9170\u57fa-L-\u7cbe\u6c28\u9178\u4e59\u916f\u76d0\u9178\u76d0", "en_name": ["N-Benzoyl-L-arginine ethyl ester hydrochloride", "L-Arginine, N2-benzoyl-, ethyl ester, hydrochloride (1:1)", "Arginine, N2-benzoyl-, ethyl ester, monohydrochloride, L-", "L-Arginine, N2-benzoyl-, ethyl ester, monohydrochloride", "N-Benzoyl-L-arginine ethyl ester hydrochloride", "\u03b1-N-Benzoyl-L-arginine ethyl ester hydrochloride", "Ethyl N-benzoyl-\u03b1-arginine hydrochloride", "N-\u03b1-Benzoyl-L-arginine ethyl ester hydrochloride", "NSC 86159"], "SMILES": "C(NC(=O)C1=CC=CC=C1)(C(OCC)=O)CCCNC(=N)N.Cl", "physical_data": {"Molecular Weight": "", "Molecular Formula": "C15H22N4O3.ClH", "Melting Point": "121-123 \u00b0C"}}