{"cas_no": "2645-22-9", "cn_name": "4,4'-\u8054\u5421\u5576\u4e8c\u786b\u919a", "en_name": ["4,4\u2032-Dithiodipyridine", "Pyridine, 4,4\u2032-dithiobis-", "Pyridine, 4,4\u2032-dithiodi-", "4,4\u2032-Dithiobis[pyridine]", "4,4\u2032-Dithiodipyridine", "4,4\u2032-Dipyridine disulfide", "Di(4-Pyridyl) disulfide", "4,4\u2032-Dipyridyl disulfide", "4,4\u2032-Dithiopyridine", "4-Pyridyl disulfide", "Bis(4-pyridyl) disulfide", "Aldrithiol 4", "Bis(4-pyridinyl) disulfide", "4,4\u2032-Bipyridyl disulfide", "NSC 367080", "4-(Pyridin-4-yldisulfanyl)pyridine"], "SMILES": "S(SC=1C=CN=CC1)C=2C=CN=CC2", "physical_data": {"Molecular Weight": "220.31", "Molecular Formula": "C10H8N2S2", "Melting Point": "155 \u00b0C"}}