{"cas_no": "26452-97-1", "cn_name": "2,3-\u4e8c\u6c22-1H-\u831a-1-\u7532\u8148", "en_name": ["2,3-Dihydro-1H-indene-1-carbonitrile", "1H-Indene-1-carbonitrile, 2,3-dihydro-", "1-Indancarbonitrile", "2,3-Dihydro-1H-indene-1-carbonitrile", "1-Cyanoindan"], "SMILES": "C(#N)C1C=2C(CC1)=CC=CC2", "physical_data": {"Molecular Weight": "143.19", "Molecular Formula": "C10H9N", "Boiling Point": "108-109 \u00b0C @ Press: 0.7 Torr"}}