{"cas_no": "2645-07-0", "cn_name": "4-\u785d\u57fa\u9a6c\u5c3f\u9178", "en_name": ["4-Nitrohippuric acid", "Glycine, N-(4-nitrobenzoyl)-", "Glycine, N-(p-nitrobenzoyl)-", "Hippuric acid, p-nitro-", "N-(4-Nitrobenzoyl)glycine", "p-Nitrohippuric acid", "4-Nitrohippuric acid", "N-(p-Nitrobenzoyl)glycine", "4-Nitrobenzoylglycine", "NSC 33334", "(4-Nitrobenzoylamino)acetic acid", "2-[(4-Nitrobenzoyl)amino]acetic acid", "2-(4-Nitrobenzamido)acetic acid", "2-[(4-Nitrophenyl)formamido]acetic acid"], "SMILES": "C(NCC(O)=O)(=O)C1=CC=C(N(=O)=O)C=C1", "physical_data": {"Molecular Weight": "224.17", "Molecular Formula": "C9H8N2O5", "Melting Point": "130-132 \u00b0C"}}