{"cas_no": "26452-80-2", "cn_name": "2,4-\u4e8c\u6c2f\u5421\u5576", "en_name": ["2,4-Dichloropyridine", "Pyridine, 2,4-dichloro-", "2,4-Dichloropyridine"], "SMILES": "ClC=1C=C(Cl)N=CC1", "physical_data": {"Molecular Weight": "147.99", "Molecular Formula": "C5H3Cl2N", "Boiling Point": "184 \u00b0C", "Melting Point": "0 \u00b0C"}}