{"cas_no": "2646-17-5", "cn_name": "\u6eb6\u5242\u6a59 2", "en_name": ["Orange OT", "2-Naphthalenol, 1-[2-(2-methylphenyl)diazenyl]-", "C.I. Solvent Orange 2", "Oil Orange SS", "2-Naphthalenol, 1-[(2-methylphenyl)azo]-", "1-[2-(2-Methylphenyl)diazenyl]-2-naphthalenol", "C.I. 12100", "Dolkwal Orange SS", "Fat Orange II", "Fat Orange RR", "FD and C Orange No. 2", "Hexacol Oil Orange SS", "Lacquer Orange V", "Oil Orange OPEL", "Oil Orange TX", "A.F. Orange No. 2", "Orange SS", "Organol Orange 2R", "1-o-Tolylazo-2-naphthol", "Orange OT", "Ext D and C Orange No. 4", "1-o-Tolueneazo-2-naphthol", "1-[(2-Methylphenyl)azo]-2-naphthol", "Oil Orange 204", "Japan Orange 403", "Orange TX", "Solvent Orange 2", "NSC 58044", "T 0553"], "SMILES": "N(=NC1=C(C)C=CC=C1)C=2C3=C(C=CC2O)C=CC=C3", "physical_data": {"Molecular Weight": "262.31", "Molecular Formula": "C17H14N2O", "Melting Point": "131 \u00b0C"}}