{"cas_no": "2646-30-2", "cn_name": "1-(4-\u6eb4\u82ef\u57fa)-2-\u786b\u4ee3\u8132", "en_name": ["N-(4-Bromophenyl)thiourea", "Thiourea, N-(4-bromophenyl)-", "Urea, 1-(p-bromophenyl)-2-thio-", "Thiourea, (4-bromophenyl)-", "N-(4-Bromophenyl)thiourea", "p-Bromophenylthiourea", "N-p-Bromophenylthiourea", "4-Bromophenylthiourea", "1-(4-Bromophenyl)thiourea", "NSC 3404", "NSC 72167", "1-(4-Bromophenyl)-2-thiourea"], "SMILES": "N(C(N)=S)C1=CC=C(Br)C=C1", "physical_data": {"Molecular Weight": "231.11", "Molecular Formula": "C7H7BrN2S", "Melting Point": "223 \u00b0C"}}