{"cas_no": "26464-05-1", "cn_name": "2-\u6eb4-3-\u7532\u57fa\u4e01\u9170\u6eb4", "en_name": ["2-Bromo-3-methylbutanoyl bromide", "Butanoyl bromide, 2-bromo-3-methyl-", "Butyryl bromide, 2-bromo-3-methyl-", "2-Bromo-3-methylbutanoyl bromide", "\u03b1-Bromoisovaleryl bromide", "2-Bromo-3-methylbutyryl bromide"], "SMILES": "C(C(Br)=O)(C(C)C)Br", "physical_data": {"Molecular Weight": "243.92", "Molecular Formula": "C5H8Br2O", "Boiling Point": "65-70 \u00b0C @ Press: 10 Torr"}}