{"cas_no": "2646-91-5", "cn_name": "2,3-\u4e8c\u6c1f\u82ef\u7532\u919b", "en_name": ["2,3-Difluorobenzaldehyde", "Benzaldehyde, 2,3-difluoro-", "2,3-Difluorobenzaldehyde"], "SMILES": "C(=O)C1=C(F)C(F)=CC=C1", "physical_data": {"Molecular Weight": "142.10", "Molecular Formula": "C7H4F2O", "Boiling Point": "69-73 \u00b0C @ Press: 15 Torr", "Melting Point": "64-65 \u00b0C"}}