{"cas_no": "264624-38-6", "cn_name": "\u8131\u6c27\u5347\u9ebb\u70c3", "en_name": ["26-Deoxyactein", "\u03b2-D-Xylopyranoside, (3\u03b2,12\u03b2,16\u03b2,23S,24R,25R)-12-(acetyloxy)-16,23:23,26:24,25-triepoxy-9,19-cyclolanostan-3-yl", "(3\u03b2,12\u03b2,16\u03b2,23S,24R,25R)-12-(Acetyloxy)-16,23:23,26:24,25-triepoxy-9,19-cyclolanostan-3-yl \u03b2-D-xylopyranoside", "27-Deoxyactein", "26-Deoxyactein"], "SMILES": "CC12C3C4(C5(C4)C(C(C)(C)C(OC6C(O)C(O)C(O)CO6)CC5)CC3)CC(OC(C)=O)C1(C)C7C(C2)OC8(CC7C)C9C(C)(O9)CO8", "physical_data": {"Molecular Weight": "660.83", "Molecular Formula": "C37H56O10", "Melting Point": "258-260 \u00b0C"}}