{"cas_no": "26473-47-2", "cn_name": "3-\u5def\u57fa\u5f02\u4e01\u9178", "en_name": ["3-Mercaptoisobutyric acid", "Propanoic acid, 3-mercapto-2-methyl-", "Propionic acid, 3-mercapto-2-methyl-", "Isobutyric acid, \u03b2-mercapto-", "3-Mercapto-2-methylpropanoic acid", "3-Mercapto-2-methylpropionic acid", "3-Mercaptoisobutyric acid"], "SMILES": "C(C(O)=O)(CS)C", "physical_data": {"Molecular Weight": "120.17", "Molecular Formula": "C4H8O2S", "Boiling Point": "120-122 \u00b0C @ Press: 12 Torr"}}