{"cas_no": "26472-41-3", "cn_name": "\u5f8b\u8349\u916e", "en_name": ["Humulone", "2,4-Cyclohexadien-1-one, 3,5,6-trihydroxy-4,6-bis(3-methyl-2-buten-1-yl)-2-(3-methyl-1-oxobutyl)-, (6R)-", "2,4-Cyclohexadien-1-one, 3,5,6-trihydroxy-2-isovaleryl-4,6-bis(3-methyl-2-butenyl)-, (R)-(-)-", "2,4-Cyclohexadien-1-one, 3,5,6-trihydroxy-4,6-bis(3-methyl-2-butenyl)-2-(3-methyl-1-oxobutyl)-, (R)-", "2,4-Cyclohexadien-1-one, 3,5,6-trihydroxy-4,6-bis(3-methyl-2-butenyl)-2-(3-methyl-1-oxobutyl)-, (6R)-", "(6R)-3,5,6-Trihydroxy-4,6-bis(3-methyl-2-buten-1-yl)-2-(3-methyl-1-oxobutyl)-2,4-cyclohexadien-1-one", "Humulone", "Humulon", "(-)-(R)-Humulone", "(-)-Humulone", "Humulone \u03b1-acid", "\u03b1-Acid", "\u03b1-Lupulic acid", "(6R)-3,5,6-Trihydroxy-2-(3-methylbutanoyl)-4,6-bis(3-methylbut-2-enyl)cyclohexa-2,4-dien-1-one"], "SMILES": "C(C=C(C)C)C1(O)C(=O)C(C(CC(C)C)=O)=C(O)C(CC=C(C)C)=C1O", "physical_data": {"Molecular Weight": "362.46", "Molecular Formula": "C21H30O5", "Melting Point": "65-66.5 \u00b0C"}}