{"cas_no": "26471-62-5", "cn_name": "\u7532\u82ef\u4e8c\u5f02\u6c30\u9178\u916f", "en_name": ["Toluene diisocyanate", "Benzene, 1,3-diisocyanatomethyl-", "Isocyanic acid, methyl-m-phenylene ester", "1,3-Diisocyanatomethylbenzene", "TDI", "Toluene diisocyanate", "Tolylene diisocyanate", "Methylphenylene isocyanate", "Methyl-m-phenylene isocyanate", "Tolylene isocyanate", "Diisocyanatotoluene", "TDI 80/20", "TDI 80", "TDI 65", "T 65", "Isocyanic acid, methylphenylene ester", "TDI 50", "TDI 60", "TDI T 80", "TDI T 65", "Lupranate TDI", "DN 53S6"], "SMILES": "", "physical_data": {"Molecular Weight": "", "Molecular Formula": "C9H6N2O2", "Boiling Point": "251 \u00b0C", "Melting Point": "20 \u00b0C", "Density": "1.22 g/cm\u00b3 @ Temp: 25 \u00b0C"}}