{"cas_no": "26489-01-0", "cn_name": "\u9999\u8305\u9187", "en_name": ["Citronellol", "6-Octen-1-ol, 3,7-dimethyl-", "3,7-Dimethyl-6-octen-1-ol", "Citronellol", "Rodinol", "\u03b2-Citronellol", "2,6-Dimethyl-2-octen-8-ol", "Cephrol", "2,3-Dihydrogeraniol", "(\u00b1)-3,7-Dimethyl-6-octen-1-ol", "(\u00b1)-Citronellol", "dl-Citronellol", "(\u00b1)-\u03b2-Citronellol", "DL-Citronellol", "Dihydrogeraniol", "Citronellol 950", "NSC 8779", "Citronellol AJ", "1-Hydroxy-3,7-dimethyl-6-octene", "NCCF 3000"], "SMILES": "C(CCC=C(C)C)(CCO)C", "physical_data": {"Molecular Weight": "156.27", "Molecular Formula": "C10H20O", "Boiling Point": "224.5 \u00b0C", "Melting Point": "&lt;25 \u00b0C", "Density": "0.867-0.869 g/cm\u00b3 @ Temp: 10 \u00b0C"}}