{"cas_no": "26487-67-2", "cn_name": "2-(\u73af\u5df1\u4e9a\u6c28\u57fa)\u4e59\u57fa\u6c2f", "en_name": ["1H-Azepine, 1-(2-chloroethyl)hexahydro-, hydrochloride (1:1)", "1H-Azepine, 1-(2-chloroethyl)hexahydro-, hydrochloride (1:1)", "1H-Azepine, 1-(2-chloroethyl)hexahydro-, hydrochloride", "Hexamethylenimine, 1-(2-chloroethyl)-, hydrochloride", "\u03b2-(Hexahydro-1H-azepin-1-yl)ethyl chloride hydrochloride", "1-(2-Chloroethyl)hexahydro-1H-azepine hydrochloride", "2-(Hexamethyleneimino)ethyl chloride hydrochloride", "1-(2-Chloroethyl)hexamethyleneimine hydrochloride", "1-(2-Chloroethyl)azepane hydrochloride", "1-(2-Chloroethyl)-azacycloheptane hydrochloride", "N-(2-Chloroethyl)hexahydro-1H-azepine hydrochloride"], "SMILES": "C(CCl)N1CCCCCC1.Cl", "physical_data": {"Molecular Weight": "", "Molecular Formula": "C8H16ClN.ClH", "Melting Point": "208 \u00b0C (decomp)"}}