{"cas_no": "2648-61-5", "cn_name": "2,2-\u4e8c\u6c2f\u82ef\u4e59\u916e", "en_name": ["2,2-Dichloroacetophenone", "Ethanone, 2,2-dichloro-1-phenyl-", "Acetophenone, 2,2-dichloro-", "2,2-Dichloro-1-phenylethanone", "\u03c9,\u03c9-Dichloroacetophenone", "\u03b1,\u03b1-Dichloroacetophenone", "2,2-Dichloroacetophenone", "Phenacylidene dichloride", "NSC 53617", "2,2-Dichloro-1-phenylethan-1-one"], "SMILES": "C(C(Cl)Cl)(=O)C1=CC=CC=C1", "physical_data": {"Molecular Weight": "189.04", "Molecular Formula": "C8H6Cl2O", "Boiling Point": "249 \u00b0C", "Melting Point": "20.5 \u00b0C", "Density": "1.3392 g/cm\u00b3 @ Temp: 20 \u00b0C"}}