{"cas_no": "26482-00-8", "cn_name": "1-[2-\u6c27-2-(2-\u5421\u5576\u57fa)\u4e59\u57fa]\u7898\u5316\u5421\u5576", "en_name": ["Pyridinium, 1-[2-oxo-2-(2-pyridinyl)ethyl]-, iodide (1:1)", "Pyridinium, 1-[2-oxo-2-(2-pyridinyl)ethyl]-, iodide (1:1)", "Pyridinium, 1-(picolinoylmethyl)-, iodide", "Pyridinium, 1-[2-oxo-2-(2-pyridinyl)ethyl]-, iodide", "1-Picolinoylmethylpyridinium iodide", "1-[2-(2-Pyridinyl)-2-oxoethyl]pyridinium iodide", "N-[2-(2-Pyridyl)-2-oxoethyl]pyridinium iodide", "1-[2-(2-Pyridyl)-2-oxoethyl]pyridinium iodide", "N-[2-Oxo-2-(2-pyridyl)ethyl]pyridinium iodide", "1-(2-Pyridylcarbonylmethyl)pyridinium iodide", "2-(2-Pyridyl)-2-oxoethylpyridinium iodide", "1-(2-Pyridacyl)pyridinium iodide", "1-[2-Oxo-2-(2-pyridinyl)ethyl]pyridinium iodide", "Pyridacylpyridinium iodide", "1-[2-Oxo-2-(pyridin-2-yl)ethyl]pyridin-1-ium iodide"], "SMILES": "C(C[N+]=1C=CC=CC1)(=O)C2=CC=CC=N2.[I-]", "physical_data": {"Molecular Weight": "", "Molecular Formula": "C12H11N2O.I", "Melting Point": "&gt;300 \u00b0C"}}