{"cas_no": "2649-64-1", "cn_name": "CLOVANEDIOL", "en_name": ["Clovanediol", "3a,7-Methano-3aH-cyclopentacyclooctene-3,6-diol, decahydro-1,1,7-trimethyl-, (3S,3aS,6R,7R,9aS)-", "Clovanediol", "3a,7-Methano-3aH-cyclopentacyclooctene-3,6-diol, 1,2,3\u03b1,4,5,6\u03b2,7,8,9,9a-decahydro-1,1,7\u03b2-trimethyl-", "3a,7-Methano-3aH-cyclopentacyclooctene-3,6-diol, decahydro-1,1,7-trimethyl-, [3S-(3\u03b1,3a\u03b2,6\u03b2,7\u03b2,9a\u03b1)]-", "(3S,3aS,6R,7R,9aS)-Decahydro-1,1,7-trimethyl-3a,7-methano-3aH-cyclopentacyclooctene-3,6-diol", "2\u03b2,9\u03b1-Dihydroxyclovane", "Clovane-2\u03b2,9\u03b1-diol", "2\u03b2,9\u03b1-Clovanediol", "(1S,2S,5S,8R,9R)-Clovane-2,9-diol"], "SMILES": "OC1C23C(C(C)(C)C1)CCC(C)(C2)C(O)CC3", "physical_data": {"Molecular Weight": "238.37", "Molecular Formula": "C15H26O2", "Melting Point": "159 \u00b0C"}}