{"cas_no": "26496-94-6", "cn_name": "4-(\u6eb4\u7532\u57fa)\u82ef\u7532\u9178\u4e59\u916f", "en_name": ["Ethyl 4-bromomethylbenzoate", "Benzoic acid, 4-(bromomethyl)-, ethyl ester", "p-Toluic acid, \u03b1-bromo-, ethyl ester", "4-Carbethoxybenzyl bromide", "Ethyl 4-bromomethylbenzoate", "p-Ethoxycarbonylbenzyl bromide", "\u03b1-Bromo-p-toluic acid ethyl ester", "4-(Bromomethyl)benzoic acid ethyl ester"], "SMILES": "C(OCC)(=O)C1=CC=C(CBr)C=C1", "physical_data": {"Molecular Weight": "243.10", "Molecular Formula": "C10H11BrO2", "Boiling Point": "165 \u00b0C @ Press: 15 Torr", "Melting Point": "35-36 \u00b0C"}}