{"cas_no": "26495-91-0", "cn_name": "\u73af\u5df1\u80fa\u57fa\u7532\u57fa\u4e09\u4e59\u6c27\u57fa\u7845\u70f7", "en_name": ["N-[(Triethoxysilyl)methyl]cyclohexanamine", "Cyclohexanamine, N-[(triethoxysilyl)methyl]-", "Cyclohexylamine, N-[(triethoxysilyl)methyl]-", "N-[(Triethoxysilyl)methyl]cyclohexanamine", "N-Cyclohexyl(aminomethyl)triethoxysilane", "[(Cyclohexylamino)methyl]triethoxysilane", "N-[(Triethoxysilyl)methyl]cyclohexylamine", "Geniosil XL 926", "SIC 2464.2"], "SMILES": "[Si](CNC1CCCCC1)(OCC)(OCC)OCC", "physical_data": {"Molecular Weight": "275.46", "Molecular Formula": "C13H29NO3Si", "Boiling Point": "236 \u00b0C", "Density": "0.95 g/cm\u00b3"}}