{"cas_no": "26504-29-0", "cn_name": "\u4e09\u786b\u4ee3\u78b3\u9178\u4e8c\u82c4\u916f", "en_name": ["Dibenzyltrithiocarbonate", "Carbonotrithioic acid, bis(phenylmethyl) ester", "Carbonic acid, trithio-, dibenzyl ester", "Dibenzyltrithiocarbonate", "NSC 33081", "Dibenzyl carbonotrithioate", "BM 1361", "S,S\u2032-Dibenzyl trithiocarbonate", "DBTTC"], "SMILES": "C(SC(SCC1=CC=CC=C1)=S)C2=CC=CC=C2", "physical_data": {"Molecular Weight": "290.47", "Molecular Formula": "C15H14S3", "Boiling Point": "140-150 \u00b0C @ Press: 0.06 Torr", "Melting Point": "28 \u00b0C"}}