{"cas_no": "2650-53-5", "cn_name": "\u6b63\u5df1\u57fa\u4e09\u7532\u57fa\u6eb4\u5316\u94f5", "en_name": ["Hexyltrimethylammonium bromide", "1-Hexanaminium, N,N,N-trimethyl-, bromide (1:1)", "Ammonium, hexyltrimethyl-, bromide", "Hexyltrimethylammonium bromide", "1-Hexanaminium, N,N,N-trimethyl-, bromide", "n-Hexyltrimethylammonium bromide", "N,N,N-Trimethylhexylammonium bromide"], "SMILES": "C(C[N+](C)(C)C)CCCC.[Br-]", "physical_data": {"Molecular Weight": "", "Molecular Formula": "C9H22N.Br", "Melting Point": "174-478 \u00b0C"}}