{"cas_no": "2650-65-9", "cn_name": "H-GLN-GLY-OH", "en_name": ["L-Glutaminylglycine", "Glycine, L-glutaminyl-", "Glycine, N-L-glutaminyl-", "L-Glutaminylglycine", "NSC 350592", "60: PN: US20070191366 TABLE: 5 claimed protein", "41: PN: WO2014063098 TABLE: 5 claimed sequence", "156: PN: US20130123467 SEQID: 187 claimed protein", "6: PN: US20150203546 PAGE: 78 claimed sequence", "(S)-2-(2,5-Diamino-5-oxopentamido)acetic acid", "(S)-2-(2,5-Diamino-5-oxopentanamido)acetic acid"], "SMILES": "C(C(NCC(O)=O)=O)(CCC(N)=O)N", "physical_data": {"Molecular Weight": "203.20", "Molecular Formula": "C7H13N3O4", "Melting Point": "163-165 \u00b0C"}}