{"cas_no": "2650-50-2", "cn_name": "\u4e09\u7532\u57fa\u4e19\u57fa\u6eb4\u5316\u94f5", "en_name": ["1-Propanaminium, N,N,N-trimethyl-, bromide (1:1)", "1-Propanaminium, N,N,N-trimethyl-, bromide (1:1)", "Ammonium, trimethylpropyl-, bromide", "1-Propanaminium, N,N,N-trimethyl-, bromide", "Trimethylpropylammonium bromide", "Propyltrimethylammonium bromide", "N,N,N-Trimethyl-N-propylammonium bromide"], "SMILES": "C([N+](C)(C)C)CC.[Br-]", "physical_data": {"Molecular Weight": "", "Molecular Formula": "C6H16N.Br", "Melting Point": "242.5-243 \u00b0C"}}