{"cas_no": "2650-64-8", "cn_name": "N-\u82c4\u6c27\u7fb0\u57fa-L-\u8c37\u6c28\u9170\u80fa", "en_name": ["N2-[(Phenylmethoxy)carbonyl]-L-glutamine", "L-Glutamine, N2-[(phenylmethoxy)carbonyl]-", "Glutamine, N2-carboxy-, N2-benzyl ester, L-", "Glutamine, N2-carboxy-, N-benzyl ester", "N2-[(Phenylmethoxy)carbonyl]-L-glutamine", "Carbobenzoxy-L-glutamine", "Benzyloxycarbonyl-L-glutamine", "N\u03b1-Benzyloxycarbonyl-L-glutamine", "N2-Carbobenzoxy-L-glutamine", "N-Carbobenzoxy-L-glutamine", "N-(Benzyloxycarbonyl)-L-glutamine", "N2-Benzyloxycarbonyl-L-glutamine", "N2-Benzoxycarbonyl-L-glutamine", "NSC 186903", "Cbz-L-glutamine", "(2S)-5-Amino-5-oxo-2-(phenylmethoxycarbonylamino)pentanoic acid", "(2S)-2-[[(Benzyloxy)carbonyl]amino]-4-carbamoylbutanoic acid"], "SMILES": "C(OC(NC(CCC(N)=O)C(O)=O)=O)C1=CC=CC=C1", "physical_data": {"Molecular Weight": "280.28", "Molecular Formula": "C13H16N2O5", "Melting Point": "136-137 \u00b0C"}}