{"cas_no": "2651-46-9", "cn_name": "4-\u6c2f\u4e01\u57fa\u82ef\u57fa\u919a", "en_name": ["(4-Chlorobutoxy)benzene", "Benzene, (4-chlorobutoxy)-", "Ether, 4-chlorobutyl phenyl", "(4-Chlorobutoxy)benzene", "4-Phenoxybutyl chloride", "1-Chloro-4-phenoxybutane", "NSC 78903", "4-Phenoxy-1-chlorobutane"], "SMILES": "O(CCCCCl)C1=CC=CC=C1", "physical_data": {"Molecular Weight": "184.66", "Molecular Formula": "C10H13ClO", "Boiling Point": "135-138 \u00b0C @ Press: 12 Torr"}}