{"cas_no": "26510-95-2", "cn_name": "3-(4-\u6eb4\u82ef\u57fa)-3-\u6c27\u4ee3\u4e19\u9178\u4e59\u916f", "en_name": ["Ethyl 4-bromo-\u03b2-oxobenzenepropanoate", "Benzenepropanoic acid, 4-bromo-\u03b2-oxo-, ethyl ester", "Acetic acid, (p-bromobenzoyl)-, ethyl ester", "Ethyl 4-bromo-\u03b2-oxobenzenepropanoate", "Ethyl (4-bromobenzoyl)acetate", "Ethyl (p-bromobenzoyl)acetate", "Ethyl 3-(4-bromophenyl)-3-oxo-propanoate", "Ethyl 2-(4-bromobenzoyl)acetate", "3-(4-Bromophenyl)-3-oxopropanoic acid ethyl ester", "(4-Bromobenzoyl)acetic acid ethyl ester", "Ethyl 3-oxo-3-(4-bromophenyl)propanoate"], "SMILES": "C(CC(OCC)=O)(=O)C1=CC=C(Br)C=C1", "physical_data": {"Molecular Weight": "271.11", "Molecular Formula": "C11H11BrO3", "Boiling Point": "129-131 \u00b0C @ Press: 0.6 Torr"}}