{"cas_no": "26519-91-5", "cn_name": "\u7532\u57fa-1,3-\u73af\u620a\u4e8c\u70ef", "en_name": ["Methylcyclopentadiene", "1,3-Cyclopentadiene, methyl-", "Cyclopentadiene, methyl-", "Methyl-1,3-cyclopentadiene", "Methylcyclopentadiene", "Monomethylcyclopentadiene"], "SMILES": "", "physical_data": {"Molecular Weight": "", "Molecular Formula": "C6H8", "Boiling Point": "70-73 \u00b0C", "Density": "0.804 g/cm\u00b3 @ Temp: 20 \u00b0C"}}