{"cas_no": "2652-77-9", "cn_name": "1,2-\u4e8c\u82ef\u57fa-3,5-\u5421\u54af\u70f7\u916e", "en_name": ["1,2-Diphenyl-3,5-pyrazolidinedione", "3,5-Pyrazolidinedione, 1,2-diphenyl-", "1,2-Diphenyl-3,5-pyrazolidinedione", "1,2-Diphenyl-3,5-dioxopyrazolidine"], "SMILES": "O=C1N(N(C(=O)C1)C2=CC=CC=C2)C3=CC=CC=C3", "physical_data": {"Molecular Weight": "252.27", "Molecular Formula": "C15H12N2O2", "Melting Point": "178 \u00b0C"}}