{"cas_no": "2653-16-9", "cn_name": "2-\u6c2f-N-\u7532\u57fa-N-(4-\u785d\u57fa\u82ef\u57fa)\u4e59\u9170\u80fa", "en_name": ["2-Chloro-N-methyl-N-(4-nitrophenyl)acetamide", "Acetamide, 2-chloro-N-methyl-N-(4-nitrophenyl)-", "Acetanilide, 2-chloro-N-methyl-4\u2032-nitro-", "2-Chloro-N-methyl-N-(4-nitrophenyl)acetamide", "\u03b1-Chloro-N-methyl-p-nitroacetanilide"], "SMILES": "N(C(CCl)=O)(C)C1=CC=C(N(=O)=O)C=C1", "physical_data": {"Molecular Weight": "228.63", "Molecular Formula": "C9H9ClN2O3", "Melting Point": "109.5-110 \u00b0C"}}