{"cas_no": "26530-20-1", "cn_name": "2-\u8f9b\u57fa-4-\u5f02\u567b\u5511\u5549-3-\u916e", "en_name": ["2-n-Octyl-4-isothiazolin-3-one", "3(2H)-Isothiazolone, 2-octyl-", "4-Isothiazolin-3-one, 2-octyl-", "2-Octyl-3(2H)-isothiazolone", "2-n-Octyl-4-isothiozolin-3-one", "2-n-Octyl-3-isothiazolone", "2-Octyl-3-isothiazolinone", "Kathon LP Preservative", "2-Octyl-3-isothiazolone", "2-n-Octyl-4-isothiazolin-3-one", "2-Octyl-4-isothiazolin-3-one", "Skane M 8", "RH 893", "2-Octyl-4-isothiazoline-3-one", "Octhilinone", "Pancil", "Micro-Chek 11", "Micro-Chek 11D", "Kathon SP 70", "Kathon 893", "Kathon LM", "Skane 8", "Pancil T", "2-Octyl-4-isothiazolinone", "Kathon 4200", "2-n-Octylisothiazolin-3-one", "Vinyzene IT 3000DIDP", "Kathon 893F", "Kathon 893T", "A-DW", "Ecoplast PA 20", "Ultra-Fresh DM 25", "Zonen 0/100", "SD 888", "4-Octylisothiazolin-3-one", "Acticide 45", "Acticide OTW", "Microban LB 6", "Zonen O 100", "Rosima 243", "Levanax BS 50", "Biocut TR 120", "OIT", "Acticide WB 909", "Acticide OTW 16", "OTA 20", "n-Octylisothiazolinone", "M 8", "Biotin T", "OIT 99", "Acticide OTA 20", "OTW", "Octylisothiazolinone", "Acticide CSP", "Skane M 8-2000", "2-Octyl-2H-isothiazol-3-one", "Mycomex M 210", "Bitetrol T 40"], "SMILES": "C(CCCCCCC)N1C(=O)C=CS1", "physical_data": {"Molecular Weight": "213.34", "Molecular Formula": "C11H19NOS", "Boiling Point": "120 \u00b0C", "Melting Point": "&lt;25 \u00b0C"}}