{"cas_no": "26533-34-6", "cn_name": "2-\u7532\u57fa-3-\u8f9b\u9187", "en_name": ["2-Methyl-3-octanol", "3-Octanol, 2-methyl-", "2-Methyl-3-octanol", "NSC 139738"], "SMILES": "C(CCCCC)(C(C)C)O", "physical_data": {"Molecular Weight": "144.25", "Molecular Formula": "C9H20O", "Boiling Point": "180-183 \u00b0C @ Press: 690 Torr"}}