{"cas_no": "26537-19-9", "cn_name": "\u5bf9\u53d4\u4e01\u57fa\u82ef\u7532\u9178\u7532\u916f", "en_name": ["Methyl 4-tert-butylbenzoate", "Benzoic acid, 4-(1,1-dimethylethyl)-, methyl ester", "Benzoic acid, p-tert-butyl-, methyl ester", "Methyl p-tert-butylbenzoate", "Methyl 4-tert-butylbenzoate", "Methyl 4-(1,1-dimethylethyl)benzoate", "p-tert-Butylbenzoic acid methyl ester", "4-(1,1-Dimethylethyl)benzoic acid methyl ester", "NSC 122690"], "SMILES": "C(C)(C)(C)C1=CC=C(C(OC)=O)C=C1", "physical_data": {"Molecular Weight": "192.25", "Molecular Formula": "C12H16O2", "Boiling Point": "110-112 \u00b0C @ Press: 5 Torr"}}