{"cas_no": "2653-64-7", "cn_name": "C. I. \u989c\u6599\u7ea2 40", "en_name": ["1-[2-(1-Naphthalenyl)diazenyl]-2-naphthalenol", "2-Naphthalenol, 1-[2-(1-naphthalenyl)diazenyl]-", "C.I. Solvent Red 4", "2-Naphthalenol, 1-(1-naphthalenylazo)-", "2-Naphthol, 1-(1-naphthylazo)-", "1-[2-(1-Naphthalenyl)diazenyl]-2-naphthalenol", "C.I. 12170", "Autol Red RLP", "Bordeaux P 51N", "Bordeaux P 51R", "C.I. Pigment Red 40", "Dainichi Naphthylamine Bordeaux 5B", "Fat Bordeaux", "Fat Bordeaux R", "Grasal Red", "Lutetia Bordeaux B", "Oil Dark Red", "Oil Red", "Oil Red 2R", "Oil Red IIR", "Organol Mahogany TJ", "Pigment Bordeaux N", "Pigment Red RLP", "Somalia Bordeaux R", "Sudan Red 2R", "Waxoline Red BN", "Red 2R", "1-(1-Naphthylazo)-2-naphthol", "Pigment Bordeaux", "Fat Scarlet 2R", "2-Hydroxy-1,1\u2032-azonaphthalene", "1-(2-Hydroxynaphthyl)-1\u2032-azonaphthalene", "NSC 45575", "NSC 47713", "Solvent Red 4", "Pigment Red 40"], "SMILES": "N(=NC=1C2=C(C=CC1)C=CC=C2)C=3C4=C(C=CC3O)C=CC=C4", "physical_data": {"Molecular Weight": "298.34", "Molecular Formula": "C20H14N2O", "Melting Point": "230 \u00b0C"}}