{"cas_no": "26538-44-3", "cn_name": "\u6298\u4ed1\u8bfa", "en_name": ["Zeranol", "1H-2-Benzoxacyclotetradecin-1-one, 3,4,5,6,7,8,9,10,11,12-decahydro-7,14,16-trihydroxy-3-methyl-, (3S,7R)-", "Zearalanol", "1H-2-Benzoxacyclotetradecin-1-one, 3,4,5,6,7,8,9,10,11,12-decahydro-7,14,16-trihydroxy-3-methyl-, [3S-(3R*,7S*)]-", "1H-2-Benzoxacyclotetradecin-1-one, 3,4,5,6,7,8,9,10,11,12-decahydro-7,14,16-trihydroxy-3-methyl-, (3S,7R)-(+)-", "(3S,7R)-3,4,5,6,7,8,9,10,11,12-Decahydro-7,14,16-trihydroxy-3-methyl-1H-2-benzoxacyclotetradecin-1-one", "Zeranol", "Ralgro", "6-(6,10-Dihydroxyundecyl)-\u03b2-resorcylic acid-\u03bc-lactone", "P 1496", "MK 188", "Frideron", "Ralone", "\u03b1-Zearalanol", "Zearanol", "Ralabol", "\u03b1-Zeranol", "(-)-\u03b1-Zearalanol", "MeSH ID: D015029"], "SMILES": "OC1=C2C(=CC(O)=C1)CCCCCC(O)CCCC(C)OC2=O", "physical_data": {"Molecular Weight": "322.40", "Molecular Formula": "C18H26O5", "Melting Point": "146-148 \u00b0C"}}