{"cas_no": "2654-57-1", "cn_name": "1-\u82ef\u57fa-4-\u7532\u57fa-3-\u5421\u5511\u70f7\u916e", "en_name": ["4-Methyl-1-phenyl-3-pyrazolidone", "3-Pyrazolidinone, 4-methyl-1-phenyl-", "4-Methyl-1-phenyl-3-pyrazolidinone", "Phenidone B", "1-Phenyl-4-methyl-3-pyrazolidone", "1-Phenyl-4-methyl-3-oxopyrazolidine", "1-Phenyl-4-methyl-3-pyrazolidinone", "4-Methyl-1-phenyl-3-pyrazolidone", "NSC 96628", "4-Methyl-1-phenyl-4,5-dihydro-1H-pyrazol-3-ol"], "SMILES": "CC1CN(NC1=O)C2=CC=CC=C2", "physical_data": {"Molecular Weight": "176.22", "Molecular Formula": "C10H12N2O", "Melting Point": "142.5-143 \u00b0C"}}