{"cas_no": "26544-34-3", "cn_name": "\u82b9\u83dc\u7519", "en_name": ["Apiin", "4H-1-Benzopyran-4-one, 7-[(2-O-D-apio-\u03b2-D-furanosyl-\u03b2-D-glucopyranosyl)oxy]-5-hydroxy-2-(4-hydroxyphenyl)-", "Apiin", "7-[(2-O-D-Apio-\u03b2-D-furanosyl-\u03b2-D-glucopyranosyl)oxy]-5-hydroxy-2-(4-hydroxyphenyl)-4H-1-benzopyran-4-one", "Apigenin 7-O-\u03b2-D-apiofuranosyl(1\u21922)-\u03b2-D-glucopyranoside"], "SMILES": "O=C1C=2C(OC(=C1)C3=CC=C(O)C=C3)=CC(OC4C(OC5C(O)C(CO)(O)CO5)C(O)C(O)C(CO)O4)=CC2O", "physical_data": {"Molecular Weight": "564.49", "Molecular Formula": "C26H28O14", "Melting Point": "232-233 \u00b0C"}}