{"cas_no": "26547-51-3", "cn_name": "8-\u82ef\u57fa\u8f9b\u9178", "en_name": ["8-Phenyloctanoic acid", "Benzeneoctanoic acid", "Octanoic acid, 8-phenyl-", "8-Phenyloctanoic acid", "\u03c9-Phenyloctanoic acid", "8-Phenylcaprylic acid"], "SMILES": "C(CCCCCCC(O)=O)C1=CC=CC=C1", "physical_data": {"Molecular Weight": "220.31", "Molecular Formula": "C14H20O2", "Boiling Point": "204-206 \u00b0C @ Press: 11 Torr", "Melting Point": "24-25 \u00b0C"}}