{"cas_no": "26549-21-3", "cn_name": "(S,S)-(+)-2,3-\u4e8c\u7532\u6c27\u57fa-1,4-\u53cc(\u4e8c\u7532\u6c28\u57fa)\u4e01\u70f7", "en_name": ["(2S,3S)-2,3-Dimethoxy-N1,N1,N4,N4-tetramethyl-1,4-butanediamine", "1,4-Butanediamine, 2,3-dimethoxy-N1,N1,N4,N4-tetramethyl-, (2S,3S)-", "1,4-Butanediamine, 2,3-dimethoxy-N,N,N\u2032,N\u2032-tetramethyl-, (S,S)-(+)-", "1,4-Butanediamine, 2,3-dimethoxy-N,N,N\u2032,N\u2032-tetramethyl-, [S-(R*,R*)]-", "(2S,3S)-2,3-Dimethoxy-N1,N1,N4,N4-tetramethyl-1,4-butanediamine", "(S,S)-(+)-N,N,N\u2032,N\u2032-Tetramethyl-2,3-dimethoxy-1,4-butanediamine", "(+)-(2S,3S)-Dimethoxy-1,4-bis(dimethylamino)butane", "(+)-2,3-Dimethoxy-N,N,N\u2032,N\u2032-tetramethyl-1,4-butanediamine", "(+)-2,3-Dimethoxy-1,4-bis(dimethylamino)butane", "S,S-(+)-2,3-Dimethoxy-1,4-bis(dimethylamino)butane", "(S,S)-1,4-Bis(dimethylamino)-2,3-dimethoxybutane"], "SMILES": "C(C(CN(C)C)OC)(CN(C)C)OC", "physical_data": {"Molecular Weight": "204.31", "Molecular Formula": "C10H24N2O2", "Boiling Point": "62-64 \u00b0C @ Press: 3 Torr", "Density": "0.896 g/cm\u00b3 @ Temp: 20 \u00b0C"}}