{"cas_no": "26544-17-2", "cn_name": "\u58ec\u4e8c\u9178\u4e8c\u5f02\u8f9b\u916f", "en_name": ["Diisooctyl azelate", "Nonanedioic acid, 1,9-diisooctyl ester", "Azelaic acid, diisooctyl ester", "Nonanedioic acid, diisooctyl ester", "Isooctyl alcohol, azelaate (2:1)", "Isooctyl alcohol, azelate (2:1)", "Diisooctyl azelate", "Reomol DiOZ", "Diisooctyl nonanedioate"], "SMILES": "", "physical_data": {"Molecular Weight": "", "Molecular Formula": "C25H48O4", "Melting Point": "55-65 \u00b0C"}}