{"cas_no": "2655-15-4", "cn_name": "2,3,5-\u4e09\u7532\u57fa\u82ef\u57faN-\u7532\u57fa\u6c28\u57fa\u7532\u9178\u916f", "en_name": ["2,3,5-Trimethacarb", "Phenol, 2,3,5-trimethyl-, 1-(N-methylcarbamate)", "Carbamic acid, methyl-, 2,3,5-trimethylphenyl ester", "Phenol, 2,3,5-trimethyl-, methylcarbamate", "2,3,5-Trimethylphenyl methylcarbamate", "SD 8786", "2,3,5-Landrin", "Landrin B", "2,3,5-Trimethacarb", "2,3,5-Trimethylphenyl N-methylcarbamate"], "SMILES": "O(C(NC)=O)C1=C(C)C(C)=CC(C)=C1", "physical_data": {"Molecular Weight": "193.24", "Molecular Formula": "C11H15NO2", "Melting Point": "123-124 \u00b0C"}}