{"cas_no": "2655-27-8", "cn_name": "N-\u6b63\u620a\u57fa\u82ef\u80fa", "en_name": ["N-Pentylbenzenamine", "Benzenamine, N-pentyl-", "Aniline, N-pentyl-", "N-Pentylbenzenamine", "N-Amylaniline", "N-Pentylaniline", "N-n-Amylaniline"], "SMILES": "N(CCCCC)C1=CC=CC=C1", "physical_data": {"Molecular Weight": "163.26", "Molecular Formula": "C11H17N", "Boiling Point": "260-262 \u00b0C"}}