{"cas_no": "26555-40-8", "cn_name": "\u6c2f\u5316\u7532\u6c27\u7fb0\u57fa\u786b", "en_name": ["Carbonothioic acid, anhydrosulfide with thiohypochlorous acid (1:1), methyl ester", "Carbonothioic acid, anhydrosulfide with thiohypochlorous acid (1:1), methyl ester", "Carbonic acid, thio-, anhydrosulfide with thiohypochlorous acid, methyl ester", "Carbonothioic acid, anhydrosulfide with thiohypochlorous acid, O-methyl ester", "Thiohypochlorous acid, anhydrosulfide with O-methyl thiocarbonate", "Methoxycarbonylsulfenyl chloride", "Carbomethoxysulfenyl chloride", "Methyl (chlorosulfenyl)formate", "(Chlorothio)(methoxy)oxomethane", "(Chlorosulfanyl)(methoxy)methanone"], "SMILES": "C(OC)(SCl)=O", "physical_data": {"Molecular Weight": "126.56", "Molecular Formula": "C2H3ClO2S", "Boiling Point": "67-69 \u00b0C @ Press: 75 Torr"}}