{"cas_no": "2655-14-3", "cn_name": "\u706d\u9664\u5a01", "en_name": ["3,5-Xylyl methylcarbamate", "Phenol, 3,5-dimethyl-, 1-(N-methylcarbamate)", "Carbamic acid, methyl-, 3,5-xylyl ester", "Phenol, 3,5-dimethyl-, methylcarbamate", "3,5-Xylenol, methylcarbamate", "DRC 3340", "3,5-Dimethylphenyl N-methylcarbamate", "Cosban", "3,5-Xylyl N-methylcarbamate", "3,5-Xylyl methylcarbamate", "Macbal", "3,5-Dimethylphenyl methylcarbamate", "XMC (pesticide)", "XMC", "S 1041", "NSC 35375", "Miechuwei"], "SMILES": "O(C(NC)=O)C1=CC(C)=CC(C)=C1", "physical_data": {"Molecular Weight": "179.22", "Molecular Formula": "C10H13NO2", "Melting Point": "99 \u00b0C", "Density": "0.54 g/cm\u00b3"}}