{"cas_no": "26563-68-8", "cn_name": "3-\u8868\u5c71\u6942\u9178", "en_name": ["3-Epimaslinic acid", "Olean-12-en-28-oic acid, 2,3-dihydroxy-, (2\u03b1,3\u03b1)-", "Olean-12-en-28-oic acid, 2\u03b1,3\u03b1-dihydroxy-", "(2\u03b1,3\u03b1)-2,3-Dihydroxyolean-12-en-28-oic acid", "2\u03b1,3\u03b1-Dihydroxyolean-12-en-28-oic acid", "3-Epimaslinic acid", "3-epi-Maslinic acid"], "SMILES": "CC12C3(C)C(C4C(C(O)=O)(CC3)CCC(C)(C)C4)=CCC1C5(C)C(CC2)C(C)(C)C(O)C(O)C5", "physical_data": {"Molecular Weight": "472.70", "Molecular Formula": "C30H48O4", "Melting Point": "295-297 \u00b0C"}}