{"cas_no": "265652-39-9", "cn_name": "4-\u6eb4-3-\u7532\u57fa\u567b\u5429\u7fa7\u9178", "en_name": ["4-Bromo-3-methyl-2-thiophenecarboxylic acid", "2-Thiophenecarboxylic acid, 4-bromo-3-methyl-", "4-Bromo-3-methyl-2-thiophenecarboxylic acid", "4-Bromo-3-methylthiophene-2-carboxylic acid"], "SMILES": "C(O)(=O)C1=C(C)C(Br)=CS1", "physical_data": {"Molecular Weight": "221.07", "Molecular Formula": "C6H5BrO2S", "Melting Point": "187.5-188.5 \u00b0C"}}