{"cas_no": "2657-87-6", "cn_name": "3,4'-\u4e8c\u6c28\u57fa\u4e8c\u82ef\u919a", "en_name": ["3,4\u2032-Diaminodiphenyl ether", "Benzenamine, 3-(4-aminophenoxy)-", "3-(4-Aminophenoxy)benzenamine", "4,3\u2032-Diaminodiphenyl oxide", "3,4\u2032-Diaminodiphenyl ether", "3,4\u2032-Oxydianiline", "3-Aminophenyl 4-aminophenyl ether", "3,4\u2032-DAPE", "3,4\u2032-Oxydiphenylamine", "CLP 5050", "3-Amino-4\u2032-aminodiphenyl ether", "3,4\u2032-DPE", "3-(4-Aminophenoxy)aniline", "3,4\u2032-ODA"], "SMILES": "O(C1=CC(N)=CC=C1)C2=CC=C(N)C=C2", "physical_data": {"Molecular Weight": "200.24", "Molecular Formula": "C12H12N2O", "Melting Point": "72 \u00b0C"}}