{"cas_no": "26576-46-5", "cn_name": "5\uff0d\u4e59\u9170\u4e59\u9170\u6c28\u57fa\u82ef\u5e76\u54aa\u5511\u916e", "en_name": ["N-(2,3-Dihydro-2-oxo-1H-benzimidazol-5-yl)-3-oxobutanamide", "Butanamide, N-(2,3-dihydro-2-oxo-1H-benzimidazol-5-yl)-3-oxo-", "N-(2,3-Dihydro-2-oxo-1H-benzimidazol-5-yl)-3-oxobutanamide", "5-(Acetylacetamido)benzimidazolone", "5-Acetoacetamido-2-benzimidazolinone", "5-(Acetoacetylamino)benzimidazolone", "5-(Acetoacetylamino)benzimidazolinone", "5-(Acetoacetamido)benzimidazolone", "5-Acetoacetamido-2-benzimidazolone", "5-(Acetoacetylamino)benzimidazol-2-one", "AA-BI", "3-Oxo-N-(2-oxo-2,3-dihydro-1H-1,3-benzodiazol-5-yl)butanamide", "3-Oxo-N-(2-oxo-1,3-dihydrobenzimidazol-5-yl)butanamide"], "SMILES": "N(C(CC(C)=O)=O)C=1C=C2C(=CC1)NC(=O)N2", "physical_data": {"Molecular Weight": "233.22", "Molecular Formula": "C11H11N3O3", "Melting Point": "350-352 \u00b0C"}}