{"cas_no": "2657-25-2", "cn_name": "4-\u7f9f\u57fa\u67e5\u8033\u916e", "en_name": ["4\u2032-Hydroxychalcone", "2-Propen-1-one, 1-(4-hydroxyphenyl)-3-phenyl-", "Chalcone, 4\u2032-hydroxy-", "1-(4-Hydroxyphenyl)-3-phenyl-2-propen-1-one", "4\u2032-Hydroxychalcone", "p-Cinnamoylphenol", "4-Hydroxyphenyl styryl ketone", "NSC 242264", "1-(4-Hydroxyphenyl)-3-phenylpropenone"], "SMILES": "C(C=CC1=CC=CC=C1)(=O)C2=CC=C(O)C=C2", "physical_data": {"Molecular Weight": "224.25", "Molecular Formula": "C15H12O2", "Melting Point": "171-172 \u00b0C"}}