{"cas_no": "26583-60-8", "cn_name": "2-(2-\u7532\u57fa\u82ef\u6c27\u57fa)\u4e59\u80fa", "en_name": ["2-(2-Methylphenoxy)ethanamine", "Ethanamine, 2-(2-methylphenoxy)-", "Ethylamine, 2-(o-tolyloxy)-", "2-(2-Methylphenoxy)ethanamine", "2-(2-Methylphenoxy)ethylamine", "2-o-Tolyloxy-ethylamine", "2-(2-Methylphenoxy)ethan-1-amine"], "SMILES": "O(CCN)C1=C(C)C=CC=C1", "physical_data": {"Molecular Weight": "151.21", "Molecular Formula": "C9H13NO", "Boiling Point": "128 \u00b0C @ Press: 19 Torr"}}