{"cas_no": "26585-14-8", "cn_name": "CRENATINE", "en_name": ["1-Ethyl-4-methoxy-9H-pyrido[3,4-b]indole", "9H-Pyrido[3,4-b]indole, 1-ethyl-4-methoxy-", "1-Ethyl-4-methoxy-9H-pyrido[3,4-b]indole", "Crenatine", "Crenatin", "1-Ethyl-4-methoxy-\u03b2-carboline"], "SMILES": "O(C)C1=C2C(=C(CC)N=C1)NC=3C2=CC=CC3", "physical_data": {"Molecular Weight": "226.27", "Molecular Formula": "C14H14N2O", "Melting Point": "168 \u00b0C"}}