{"cas_no": "26586-55-0", "cn_name": "1-[4-(4-\u7532\u57fa\u54cc\u55ea)\u82ef\u57fa]-1-\u82ef\u4e59\u916e", "en_name": ["1-[4-(4-Methyl-1-piperazinyl)phenyl]ethanone", "Ethanone, 1-[4-(4-methyl-1-piperazinyl)phenyl]-", "1-[4-(4-Methyl-1-piperazinyl)phenyl]ethanone", "4-(4-Methyl-1-piperazinyl)acetophenone", "NSC 102840", "1-[4-(4-Methylpiperazino)phenyl]-1-ethanone", "1-[4-(4-Methylpiperazin-1-yl)phenyl]ethanone", "1-(4-(4-Methylpiperazin-1-yl)phenyl)ethan-1-one"], "SMILES": "C(C)(=O)C1=CC=C(C=C1)N2CCN(C)CC2", "physical_data": {"Molecular Weight": "218.29", "Molecular Formula": "C13H18N2O", "Melting Point": "81-84 \u00b0C"}}