{"cas_no": "26582-86-5", "cn_name": "Z-SER-NHNH2", "en_name": ["N-[(Phenylmethoxy)carbonyl]-L-serine hydrazide", "L-Serine, N-[(phenylmethoxy)carbonyl]-, hydrazide", "Serine, N-carboxy-, N-benzyl ester, hydrazide, L-", "L-Serine, N-carboxy-, hydrazide, N-benzyl ester", "N-[(Phenylmethoxy)carbonyl]-L-serine hydrazide", "N-Benzyloxycarbonyl-L-serine hydrazide", "N-Benzyloxycarbonylserine hydrazide", "Cbz-Ser-NHNH2", "(S)-Benzyl (1-hydrazinyl-3-hydroxy-1-oxopropan-2-yl)carbamate"], "SMILES": "C(OC(NC(C(NN)=O)CO)=O)C1=CC=CC=C1", "physical_data": {"Molecular Weight": "253.25", "Molecular Formula": "C11H15N3O4", "Melting Point": "181 \u00b0C"}}