{"cas_no": "26590-20-5", "cn_name": "3-\u7532\u57fa\u56db\u6c22\u82ef\u4e8c\u7532\u9178\u9150", "en_name": ["Methyltetrahydrophthalic anhydride", "1,3-Isobenzofurandione, 3a,4,7,7a-tetrahydromethyl-", "4-Cyclohexene-1,2-dicarboxylic anhydride, methyl-", "3a,4,7,7a-Tetrahydromethyl-1,3-isobenzofurandione", "Methyltetrahydrophthalic anhydride", "Methyl-1,2,3,6-tetrahydrophthalic anhydride", "Tetrahydromethylphthalic anhydride", "Vandride 4", "Methyl-\u03944-tetrahydrophthalic anhydride", "B 570", "Araldite Hardener HY 917", "Isomethyltetrahydrophthalic anhydride", "Epiclon B 570", "Quinhard 200", "HN 2200R", "DX 126", "QH 100 (crosslinking agent)", "QH 100", "Zu Yu D 0016", "Rikacid MH 700A", "AC-Methyl", "Araldite MY 917", "Araldite HY 917", "Rikacid MT 500", "Lindride 12", "ECA 100", "Epichor B 570", "HK 021", "Pentahard 5000", "MT 500", "Araldite HY 918", "Araldite HY 905", "HY 905", "Epicure YH 300", "Epicure DX 126", "JHY 906", "JHY 904", "JHY 904A", "JHY 908", "JHY 910", "QH 200", "HN 2000", "Adeka EH 700", "Adeka Hardener EH 700", "Lindride 6", "LHY 906", "KRM 291-5", "AH 2 (hardener)", "AH 2", "AC 220J", "AC 220E", "YH 300", "JHB 590", "Aradur HY 917", "NH 2200", "NH 2200 (crosslinking agent)", "Epikure YH 300", "Adeka EH 3327", "Adeka Hardener EH 3326", "Adeka EH 3326", "HY 918", "SHB 590", "Aradur HY 918", "LHY 908", "LHY 807", "H 316", "Lindride 46QC", "ECA 100NC", "JER-YH 300", "SHY 9603", "JC 02B", "HM 2000", "Aradur 917", "MTHPA", "HY 2918", "Aradur HY 2918", "AMT 120", "HY 917", "Lindride 6K", "Epikure 3601", "HJ 2200M", "Lindride 36K", "Voraforce TW 152", "SMS 01", "Hardener XN 1045", "XN 1045", "XNH 5002G", "Aradur HY 918-1", "KBH 1089", "HKR 0719", "WNY 1008", "Epikure MGS-RIMH 145", "MGS-RIMH 145", "GH 9303", "Epikure RIMH 145", "EDK-C 05", "Aradur HY 917CH", "F 0705", "JHB 591A", "Aradur HY 905"], "SMILES": "", "physical_data": {"Molecular Weight": "", "Molecular Formula": "C9H10O3", "Melting Point": "63-64 \u00b0C"}}