{"cas_no": "26607-15-8", "cn_name": "H-LEU-ARG-OH", "en_name": ["L-Leucyl-L-arginine", "L-Arginine, L-leucyl-", "Arginine, N2-L-leucyl-, L-", "L-Arginine, N2-L-leucyl-", "L-Leucyl-L-arginine", "78: PN: US20070066537 PAGE: 17 claimed protein", "1707: PN: WO2007124090 PAGE: 83 claimed protein", "182: PN: WO2009114815 SEQID: 194 unclaimed protein", "124: PN: WO2009132287 SEQID: 194 claimed protein", "26: PN: EP2161028 PAGE: 10 claimed protein", "44: PN: WO2010045512 SEQID: 43 unclaimed protein", "205: PN: WO2010059829 SEQID: 223 unclaimed protein", "522: PN: WO2010124259 SEQID: 551 claimed protein", "525: PN: WO2010124262 SEQID: 551 claimed protein", "175: PN: WO2011032181 SEQID: 194 unclaimed protein", "35: PN: EP2301956 PAGE: 31 claimed sequence", "4: PN: WO2011050471 SEQID: 4 claimed sequence", "13: PN: WO2011146121 PAGE: 113 claimed sequence", "389: PN: WO2022056313 SEQID: 400 claimed protein", "241: PN: US20220128567 SEQID: 400 claimed protein", "241: PN: US20220178935 SEQID: 400 claimed protein"], "SMILES": "C(NC(C(CC(C)C)N)=O)(CCCNC(=N)N)C(O)=O", "physical_data": {"Molecular Weight": "287.36", "Molecular Formula": "C12H25N5O3", "Melting Point": "118-120 \u00b0C"}}