{"cas_no": "26615-21-4", "cn_name": "\u4f50\u66ff\u5e73", "en_name": ["Zotepine", "Ethanamine, 2-[(8-chlorodibenzo[b,f]thiepin-10-yl)oxy]-N,N-dimethyl-", "Ethylamine, 2-[(8-chlorodibenzo[b,f]thiepin-10-yl)oxy]-N,N-dimethyl-", "Dibenzo[b,f]thiepin, ethanamine deriv.", "2-[(8-Chlorodibenzo[b,f]thiepin-10-yl)oxy]-N,N-dimethylethanamine", "Zotepine", "Lodopin", "Nipolept", "Setous", "Losizopilon", "Zoleptil"], "SMILES": "O(CCN(C)C)C=1C=2C(SC=3C(C1)=CC=CC3)=CC=C(Cl)C2", "physical_data": {"Molecular Weight": "331.86", "Molecular Formula": "C18H18ClNOS", "Melting Point": "90-91 \u00b0C"}}