{"cas_no": "26616-35-3", "cn_name": "\u82c4\u4e59\u57fa\u4e09\u7532\u57fa\u6c2f\u5316\u94f5", "en_name": ["(Vinylbenzyl)trimethylammonium chloride", "Benzenemethanaminium, ar-ethenyl-N,N,N-trimethyl-, chloride (1:1)", "Ammonium, trimethyl(ar-vinylbenzyl)-, chloride", "Benzenemethanaminium, ar-ethenyl-N,N,N-trimethyl-, chloride", "Trimethyl(ar-vinylbenzyl)ammonium chloride", "(Vinylbenzyl)trimethylammonium chloride", "QBm"], "SMILES": "", "physical_data": {"Molecular Weight": "", "Molecular Formula": "C12H18N.Cl", "Melting Point": "147-150 \u00b0C"}}