{"cas_no": "26628-22-8", "cn_name": "\u53e0\u6c2e\u5316\u94a0", "en_name": ["Sodium azide", "Sodium azide (Na(N3))", "Sodium azide", "Hydrazoic acid, sodium salt", "Nemazyd", "NSC 3072", "SEP 100", "Agrizide", "Micro-O-Protect", "MeSH ID: D019810"], "SMILES": "[N+](=N[Na])=[N-]", "physical_data": {"Molecular Weight": "", "Molecular Formula": "N3Na", "Melting Point": "275 \u00b0C (decomp)", "Density": "1.846 g/cm\u00b3 @ Temp: 20 \u00b0C"}}