{"cas_no": "26628-47-7", "cn_name": "9-(\u4e8c\u4e59\u6c28\u57fa)\u87ba[12H-\u82ef\u5e76[A]\u5360\u5428-12,1\u2019(3\u2019H)-\u5f02\u82ef\u5e76\u544b\u5583]-3\u2019-\u916e", "en_name": ["9-(Diethylamino)spiro[12H-benzo[a]xanthene-12,1\u2032(3\u2032H)-isobenzofuran]-3\u2032-one", "Spiro[12H-benzo[a]xanthene-12,1\u2032(3\u2032H)-isobenzofuran]-3\u2032-one, 9-(diethylamino)-", "Spiro[12H-benzo[a]xanthene-12,1\u2032-phthalan]-3\u2032-one, 9-(diethylamino)-", "9-(Diethylamino)spiro[12H-benzo[a]xanthene-12,1\u2032(3\u2032H)-isobenzofuran]-3\u2032-one", "9-(Diethylamino)spiro[12H-benzo[a]xanthene-12,1\u2032-phthalide]", "3-(Diethylamino)-7,8-benzofluoran", "PSD-P", "Color Former Red 3", "Copikem 747", "6-Diethylamino-1,2-benzofluoran", "1,2-Benz-6-diethylaminofluorane", "Yamamoto Red 3", "1,2-Benzo-6-diethylaminofluorane", "Red DCF", "3-Diethylamino-7,8-benzo[\u03b1]fluoran"], "SMILES": "O=C1OC2(C3=C(OC=4C2=CC=C(N(CC)CC)C4)C=CC=5C3=CC=CC5)C=6C1=CC=CC6", "physical_data": {"Molecular Weight": "421.49", "Molecular Formula": "C28H23NO3", "Melting Point": "218-220 \u00b0C"}}