{"cas_no": "26638-43-7", "cn_name": "2-(\u6c2f\u78fa\u9170\u57fa)\u82ef\u7532\u9178\u7532\u916f", "en_name": ["Benzoic acid, 2-(chlorosulfonyl)-, methyl ester", "Benzoic acid, 2-(chlorosulfonyl)-, methyl ester", "Benzoic acid, o-(chlorosulfonyl)-, methyl ester", "o-(Methoxycarbonyl)benzenesulfonyl chloride", "o-(Carbomethoxy)benzenesulfonyl chloride", "Methyl o-(chlorosulfonyl)benzoate", "2-(Methoxycarbonyl)benzenesulfonyl chloride", "Methyl 2-(chlorosulfonyl)benzoate", "2-(Carbomethoxy)benzenesulfonyl chloride", "2-Chlorosulfonylbenzoic acid methyl ester"], "SMILES": "C(OC)(=O)C1=C(S(Cl)(=O)=O)C=CC=C1", "physical_data": {"Molecular Weight": "234.66", "Molecular Formula": "C8H7ClO4S", "Melting Point": "118-120 \u00b0C"}}