{"cas_no": "266359-83-5", "cn_name": "REPERTAXIN", "en_name": ["Repertaxin", "Benzeneacetamide, \u03b1-methyl-4-(2-methylpropyl)-N-(methylsulfonyl)-, (\u03b1R)-", "(\u03b1R)-\u03b1-Methyl-4-(2-methylpropyl)-N-(methylsulfonyl)benzeneacetamide", "Reparixin", "Repertaxin", "DF 1681Y", "(R)-(-)-N-2-[(4-Isobutylphenyl)propionyl]methanesulfonamide", "(2R)-2-[4-(2-Methylpropyl)phenyl]-N-methylsulfonylpropanamide"], "SMILES": "C(C(NS(C)(=O)=O)=O)(C)C1=CC=C(CC(C)C)C=C1", "physical_data": {"Molecular Weight": "283.39", "Molecular Formula": "C14H21NO3S", "Melting Point": "103-105 \u00b0C"}}