{"cas_no": "2664-63-3", "cn_name": "4,4'-\u4e8c\u7f9f\u57fa\u4e8c\u82ef\u786b\u919a", "en_name": ["4,4\u2032-Thiodiphenol", "Phenol, 4,4\u2032-thiobis-", "Phenol, 4,4\u2032-thiodi-", "Phenol, p,p\u2032-thiodi-", "Phenol, p,p\u2032-thiobis-", "4,4\u2032-Thiobis[phenol]", "4,4\u2032-Thiodiphenol", "p,p\u2032-Dihydroxydiphenyl sulfide", "Bis(4-hydroxyphenyl) sulfide", "4,4\u2032-Dihydroxydiphenyl sulfide", "Thiobisphenol", "Bis(p-hydroxyphenyl) sulfide", "Bisphenol sulfide", "4-(4-Hydroxyphenylthio)phenol", "NSC 203030", "Bis(p-hydroxyphenyl)thioether", "Bisphenol T", "4-(4-Hydroxyphenyl)sulfanylphenol", "4,4\u2032-Thiodbisphenol", "BTB 10184"], "SMILES": "S(C1=CC=C(O)C=C1)C2=CC=C(O)C=C2", "physical_data": {"Molecular Weight": "218.27", "Molecular Formula": "C12H10O2S", "Boiling Point": "178-180 \u00b0C @ Press: 1.5 Torr", "Melting Point": "154-156 \u00b0C"}}