{"cas_no": "2664-60-0", "cn_name": "\u5c3c\u6cca\u91d1\u5341\u4e8c\u916f", "en_name": ["Dodecyl 4-hydroxybenzoate", "Benzoic acid, 4-hydroxy-, dodecyl ester", "Benzoic acid, p-hydroxy-, dodecyl ester", "Dodecyl 4-hydroxybenzoate", "Dodecyl p-hydroxybenzoate", "Lauryl p-hydroxybenzoate", "n-Dodecyl p-hydroxybenzoate", "Lauryl 4-hydroxybenzoate", "p-Hydroxybenzoic acid dodecyl ester", "NSC 309822", "POB-C 12"], "SMILES": "C(OCCCCCCCCCCCC)(=O)C1=CC=C(O)C=C1", "physical_data": {"Molecular Weight": "306.44", "Molecular Formula": "C19H30O3", "Melting Point": "39-41 \u00b0C"}}