{"cas_no": "26643-91-4", "cn_name": "\u03b1-(2-\u7532\u57fa\u4e9a\u4e19\u57fa)\u82ef\u4e59\u919b", "en_name": ["4-Methyl-2-phenyl-2-pentenal", "Benzeneacetaldehyde, \u03b1-(2-methylpropylidene)-", "2-Pentenal, 4-methyl-2-phenyl-", "\u03b1-(2-Methylpropylidene)benzeneacetaldehyde", "4-Methyl-2-phenyl-2-pentenal", "2-Phenyl-4-methylpent-2-enal"], "SMILES": "C(=CC(C)C)(C=O)C1=CC=CC=C1", "physical_data": {"Molecular Weight": "174.24", "Molecular Formula": "C12H14O", "Boiling Point": "82-87 \u00b0C @ Press: 0.7 Torr"}}