{"cas_no": "26644-46-2", "cn_name": "\u55ea\u6c28\u7075", "en_name": ["Triforine", "Formamide, N,N\u2032-[1,4-piperazinediylbis(2,2,2-trichloroethylidene)]bis-", "N,N\u2032-[1,4-Piperazinediylbis(2,2,2-trichloroethylidene)]bis[formamide]", "N,N\u2032-Bis(1-formamido-2,2,2-trichloroethyl)piperazine", "Triforine", "CELA-W 524", "1,4-Bis(1-formamido-2,2,2-trichloroethyl)piperazine", "Triforin", "W 524", "Funginex", "Saprol", "Biformylchlorazin", "CA 70203", "CELA 50", "Asepta Funginex", "NSC 263493"], "SMILES": "C(C(Cl)(Cl)Cl)(NC=O)N1CCN(C(C(Cl)(Cl)Cl)NC=O)CC1", "physical_data": {"Molecular Weight": "434.96", "Molecular Formula": "C10H14Cl6N4O2", "Melting Point": "155 \u00b0C (decomp)", "Density": "1.554 g/cm\u00b3 @ Temp: 20 \u00b0C"}}