{"cas_no": "2664-61-1", "cn_name": "3,3',3'-\u6b21\u6c2e\u57fa\u4e09\u4e19\u9170\u80fa", "en_name": ["3,3\u2032,3\u2032\u2032-Nitrilotris[propanamide]", "Propanamide, 3,3\u2032,3\u2032\u2032-nitrilotris-", "Propionamide, 3,3\u2032,3\u2032\u2032-nitrilotris-", "3,3\u2032,3\u2032\u2032-Nitrilotris[propanamide]", "\u03b2,\u03b2\u2032,\u03b2\u2032\u2032-Nitrilotripropionamide", "\u03b2,\u03b2\u2032,\u03b2\u2032\u2032-Nitrilotris(propionamide)", "3,3\u2032,3\u2032\u2032-Nitrilotrispropionamide", "Nitrilotripropionamide", "Tris(2-carbamoylethyl)amine", "3,3\u2032,3\u2032\u2032-Nitrilotripropionamide", "NSC 2512", "NSC 680473", "3,3\u2032,3\u2032\u2032-Nitrilotripropanamide"], "SMILES": "N(CCC(N)=O)(CCC(N)=O)CCC(N)=O", "physical_data": {"Molecular Weight": "230.26", "Molecular Formula": "C9H18N4O3", "Melting Point": "176-179 \u00b0C", "Density": "1.36 g/cm\u00b3"}}