{"cas_no": "26646-63-9", "cn_name": "\u5361\u7ef4\u5730\u6d1b\u6742\u8d28", "en_name": ["2-[2-(2-Methoxyphenoxy)ethyl]-1H-isoindole-1,3(2H)-dione", "1H-Isoindole-1,3(2H)-dione, 2-[2-(2-methoxyphenoxy)ethyl]-", "Phthalimide, N-[2-(o-methoxyphenoxy)ethyl]-", "2-[2-(2-Methoxyphenoxy)ethyl]-1H-isoindole-1,3(2H)-dione", "2-[2-(2-Methoxy-phenoxy)-ethyl]-isoindole-1,3-dione", "2-[2-(2-Methoxyphenoxy)ethyl]-2,3-dihydro-1H-isoindole-1,3-dione"], "SMILES": "O=C1C=2C(C(=O)N1CCOC3=C(OC)C=CC=C3)=CC=CC2", "physical_data": {"Molecular Weight": "297.31", "Molecular Formula": "C17H15NO4", "Melting Point": "102-108 \u00b0C"}}