{"cas_no": "26657-95-4", "cn_name": "\u4e8c\u68d5\u6988\u9178\u7518\u6cb9\u916f", "en_name": ["Dipalmitin", "Hexadecanoic acid, diester with 1,2,3-propanetriol", "Palmitin, di-", "Dipalmitin", "Glyceryl dipalmitate", "Glycerol dipalmitate", "Dipalmitoylglycerol", "Glycerin dipalmitate", "Diacylglycerol(C16:0/C16:0)"], "SMILES": "", "physical_data": {"Molecular Weight": "", "Molecular Formula": "C35H68O5", "Melting Point": "71.8 \u00b0C"}}