{"cas_no": "26654-39-7", "cn_name": "4,4-\u4e8c\u7532\u57fa\u6076\u5511-2-\u916e", "en_name": ["4,4-Dimethyl-2-oxazolidinone", "2-Oxazolidinone, 4,4-dimethyl-", "4,4-Dimethyl-2-oxazolidinone", "NSC 48911", "4,4-Dimethyl-1,3-oxazolidin-2-one"], "SMILES": "CC1(C)NC(=O)OC1", "physical_data": {"Molecular Weight": "115.13", "Molecular Formula": "C5H9NO2", "Boiling Point": "152-154 \u00b0C @ Press: 10 Torr", "Melting Point": "55-56 \u00b0C"}}