{"cas_no": "26652-09-5", "cn_name": "\u76d0\u9178\u5229\u6258\u83cc", "en_name": ["Ritodrine", "Benzenemethanol, 4-hydroxy-\u03b1-[(1R)-1-[[2-(4-hydroxyphenyl)ethyl]amino]ethyl]-, (\u03b1S)-rel-", "Benzenemethanol, 4-hydroxy-\u03b1-[1-[[2-(4-hydroxyphenyl)ethyl]amino]ethyl]-, (R*,S*)-", "Benzyl alcohol, p-hydroxy-\u03b1-[1-[(p-hydroxyphenethyl)amino]ethyl]-, erythro-", "rel-(\u03b1S)-4-Hydroxy-\u03b1-[(1R)-1-[[2-(4-hydroxyphenyl)ethyl]amino]ethyl]benzenemethanol", "Ritodrine", "(\u00b1)-Ritodrine", "Lavopa", "MeSH ID: D012312"], "SMILES": "C(C(NCCC1=CC=C(O)C=C1)C)(O)C2=CC=C(O)C=C2", "physical_data": {"Molecular Weight": "287.35", "Molecular Formula": "C17H21NO3", "Melting Point": "88-90 \u00b0C"}}