{"cas_no": "2665-12-5", "cn_name": "\u4e09\u90bb\u7532\u82ef\u57fa\u787c\u9178\u916f", "en_name": ["Tris(2-methylphenyl) borate", "Boric acid, tris(2-methylphenyl) ester", "Boric acid (H3BO3), tri-o-tolyl ester", "Boric acid (H3BO3), tris(2-methylphenyl) ester", "o-Tolyl borate", "Tris(2-methylphenyl) borate", "Tri-o-cresyl borate", "Tris(o-methylphenyl) borate", "Tri-o-tolyl borate", "NSC 807"], "SMILES": "B(OC1=C(C)C=CC=C1)(OC2=C(C)C=CC=C2)OC3=C(C)C=CC=C3", "physical_data": {"Molecular Weight": "332.20", "Molecular Formula": "C21H21BO3", "Boiling Point": "218 \u00b0C @ Press: 6 Torr"}}