{"cas_no": "26661-13-2", "cn_name": "N4-\u82ef\u7532\u9170\u57fa\u80de\u5627\u5576", "en_name": ["N4-Benzoylcytosine", "Benzamide, N-(2,3-dihydro-2-oxo-4-pyrimidinyl)-", "Benzamide, N-(1,2-dihydro-2-oxo-4-pyrimidinyl)-", "Cytosine, N-benzoyl-", "N-(2,3-Dihydro-2-oxo-4-pyrimidinyl)benzamide", "2(1H)-Pyrimidinone, 4-(benzoylamino)-", "N-Benzoylcytosine", "2-Hydroxy-4-benzamidopyrimidine", "N4-Benzoylcytosine", "NSC 211617", "4-n-Benzoylcytosine"], "SMILES": "C(NC=1NC(=O)N=CC1)(=O)C2=CC=CC=C2", "physical_data": {"Molecular Weight": "215.21", "Molecular Formula": "C11H9N3O2", "Melting Point": "&gt;350 \u00b0C"}}