{"cas_no": "26673-31-4", "cn_name": "6-\u6c2f-3,4-\u4e8c\u6c22-2H-1-\u8418\u916e", "en_name": ["6-Chloro-1-tetralone", "1(2H)-Naphthalenone, 6-chloro-3,4-dihydro-", "6-Chloro-3,4-dihydro-1(2H)-naphthalenone", "6-Chloro-1-tetralone", "6-Chloro-\u03b1-tetralone", "6-Chloro-3,4-dihydro-2H-naphthalen-1-one", "6-Chloro-1,2,3,4-tetrahydronaphthalen-1-one"], "SMILES": "O=C1C=2C(=CC(Cl)=CC2)CCC1", "physical_data": {"Molecular Weight": "180.63", "Molecular Formula": "C10H9ClO", "Boiling Point": "167-169 \u00b0C @ Press: 18 Torr", "Melting Point": "53 \u00b0C"}}