{"cas_no": "26673-32-5", "cn_name": "7-\u6c2f-3,4-\u4e8c\u6c22-2H-1-\u8418\u916e", "en_name": ["7-Chloro-3,4-dihydro-1(2H)-naphthalenone", "1(2H)-Naphthalenone, 7-chloro-3,4-dihydro-", "7-Chloro-3,4-dihydro-1(2H)-naphthalenone", "7-Chloro-\u03b1-tetralone", "7-Chloro-1-tetralone", "7-Chloro-3,4-dihydro-2H-naphthalen-1-one", "NSC 83813", "7-Chloro-1,2,3,4-tetrahydro-1-oxonaphthalene", "7-Chlorotetralin-1-one"], "SMILES": "O=C1C=2C(=CC=C(Cl)C2)CCC1", "physical_data": {"Molecular Weight": "180.63", "Molecular Formula": "C10H9ClO", "Melting Point": "98-99.5 \u00b0C"}}