{"cas_no": "26675-46-7", "cn_name": "\u5f02\u6c1f\u919a", "en_name": ["Isoflurane", "Ethane, 2-chloro-2-(difluoromethoxy)-1,1,1-trifluoro-", "Ether, 1-chloro-2,2,2-trifluoroethyl difluoromethyl", "2-Chloro-2-(difluoromethoxy)-1,1,1-trifluoroethane", "Forane", "Difluoromethyl 1-chloro-2,2,2-trifluoroethyl ether", "1-Chloro-2,2,2-trifluoroethyl difluoromethyl ether", "Isoflurane", "R-E 235da1", "(\u00b1)-Isoflurane", "HCFE 235da2", "Forene", "Aerrane", "Compound 469", "IsoFlo", "IsoFlo (anesthetic)", "Isoforine", "Attane", "Isorrane", "Isoba", "Isofor", "Escain", "MeSH ID: D007530"], "SMILES": "C(OC(F)F)(C(F)(F)F)Cl", "physical_data": {"Molecular Weight": "184.49", "Molecular Formula": "C3H2ClF5O", "Boiling Point": "48.5 \u00b0C", "Density": "1.5 g/cm\u00b3"}}