{"cas_no": "26677-99-6", "cn_name": "\u9a6c\u6765\u9178-\u4e19\u70ef\u9178\u5171\u805a\u7269 MA-AA", "en_name": ["Acrylic acid-maleic anhydride copolymer", "2-Propenoic acid, polymer with 2,5-furandione", "Maleic anhydride, polymer with acrylic acid", "Acrylic acid, polymer with maleic anhydride", "2,5-Furandione, polymer with 2-propenoic acid", "Maleic anhydride-acrylic acid copolymer", "Acrylic acid-maleic anhydride copolymer", "Acrylic acid-maleic anhydride polymer", "EMH 138", "NSC 124031", "Acrylic acid-2,5-furandione copolymer", "Acrodur 958D", "B 52 (acrylic polymer)", "B 52", "Maleic acid anhydride-acrylic acid copolymer", "Chinatan TM", "2-Propenoic acid-2,5-furandione diblock copolymer"], "SMILES": "C(C=C)(O)=O.O=C1OC(=O)C=C1", "physical_data": {"Molecular Weight": "", "Molecular Formula": "(C4H2O3.C3H4O2)x", "Melting Point": "115-117 \u00b0C"}}