{"cas_no": "2667-89-2", "cn_name": "\u4e8c\u82ef\u7532\u9170\u4e8c\u786b\u5316\u786b\u80fa", "en_name": ["Bisbentiamine", "Formamide, N-[(4-amino-2-methyl-5-pyrimidinyl)methyl]-N-[2-[[2-[[(4-amino-2-methyl-5-pyrimidinyl)methyl]formylamino]-1-[2-(benzoyloxy)ethyl]-1-propen-1-yl]dithio]-4-(benzoyloxy)-1-methyl-1-buten-1-yl]-", "Formamide, N,N\u2032-[dithiobis[2-(2-hydroxyethyl)-1-methylvinylene]]bis[N-[(4-amino-2-methyl-5-pyrimidinyl)methyl]-, dibenzoate (ester)", "Formamide, N,N\u2032-[dithiobis[2-[2-(benzoyloxy)ethyl]-1-methyl-2,1-ethenediyl]]bis[N-[(4-amino-2-methyl-5-pyrimidinyl)methyl]-", "N-[(4-Amino-2-methyl-5-pyrimidinyl)methyl]-N-[2-[[2-[[(4-amino-2-methyl-5-pyrimidinyl)methyl]formylamino]-1-[2-(benzoyloxy)ethyl]-1-propen-1-yl]dithio]-4-(benzoyloxy)-1-methyl-1-buten-1-yl]formamide", "Benzoylthiamine disulfide", "O-Benzoylthiamine disulfide", "BTDS", "Bis(O-benzoylthiamine) disulfide", "Bisbentiamine", "Beprocin", "Beston"], "SMILES": "C(N(C(=C(SSC(=C(N(CC=1C(N)=NC(C)=NC1)C=O)C)CCOC(=O)C2=CC=CC=C2)CCOC(=O)C3=CC=CC=C3)C)C=O)C=4C(N)=NC(C)=NC4", "physical_data": {"Molecular Weight": "770.92", "Molecular Formula": "C38H42N8O6S2", "Melting Point": "146.5 \u00b0C", "Density": "1.38 g/cm\u00b3"}}