{"cas_no": "26685-83-6", "cn_name": "(1R,2R)-2-\u6c28\u57fa\u73af\u5df1\u7532\u9178", "en_name": ["(1R,2R)-2-Aminocyclohexanecarboxylic acid", "Cyclohexanecarboxylic acid, 2-amino-, (1R,2R)-", "Cyclohexanecarboxylic acid, 2-amino-, (1R,2R)-(-)-", "Cyclohexanecarboxylic acid, 2-amino-, (1R-trans)-", "(1R,2R)-2-Aminocyclohexanecarboxylic acid", "trans-(1R,2R)-2-Aminocyclohexane-1-carboxylic acid", "trans-(1R,2R)-2-Aminocyclohexanecarboxylic acid", "(1R,2R)-2-Aminocyclohexanecarboxylic acid"], "SMILES": "C(O)(=O)C1C(N)CCCC1", "physical_data": {"Molecular Weight": "143.18", "Molecular Formula": "C7H13NO2", "Melting Point": "234-235 \u00b0C"}}