{"cas_no": "2668-66-8", "cn_name": "6A-\u7532\u57fa-11B-\u7f9f\u5b55\u916e", "en_name": ["Medrysone", "Pregn-4-ene-3,20-dione, 11-hydroxy-6-methyl-, (6\u03b1,11\u03b2)-", "Pregn-4-ene-3,20-dione, 11\u03b2-hydroxy-6\u03b1-methyl-", "(6\u03b1,11\u03b2)-11-Hydroxy-6-methylpregn-4-ene-3,20-dione", "U 8471", "HMS", "11\u03b2-Hydroxy-6\u03b1-methylpregn-4-ene-3,20-dione", "6\u03b1-Methyl-\u03944-pregnene-11\u03b2-hydroxy-3,20-dione", "Medrysone", "11\u03b2-Hydroxy-6\u03b1-methylprogesterone", "Hydroxymesterone", "Medrifar", "Visudrisone", "Medrocort", "Ophtocortin", "Spectamedryn", "NSC 63278", "11\u03b2-Hydroxylmedroxyprogesterone"], "SMILES": "CC12C3C(C4C(C)(CC3O)C(C(C)=O)CC4)CC(C)C1=CC(=O)CC2", "physical_data": {"Molecular Weight": "344.49", "Molecular Formula": "C22H32O3", "Melting Point": "156.5 \u00b0C"}}