{"cas_no": "267-48-1", "cn_name": "5,6-\u4e9a\u7532\u57fa\u4e8c\u6c27\u57fa\u5432\u54da", "en_name": ["5H-1,3-Dioxolo[4,5-f]indole", "5H-1,3-Dioxolo[4,5-f]indole", "5,6-(Methylenedioxy)indole", "1H-Indole, 5,6-[methylenebis(oxy)]-", "NSC 92516", "5,6-Methylenedioxy-1H-indole", "2H,5H-[1,3]Dioxolo[4,5-f]indole"], "SMILES": "C=12C(=CC3=C(C1)OCO3)NC=C2", "physical_data": {"Molecular Weight": "161.16", "Molecular Formula": "C9H7NO2", "Melting Point": "110 \u00b0C"}}