{"cas_no": "26717-67-9", "cn_name": "\u4e59\u57fa\u4e19\u4e8c\u9178\u4e8c\u7532\u916f", "en_name": ["1,3-Dimethyl 2-ethylpropanedioate", "Propanedioic acid, 2-ethyl-, 1,3-dimethyl ester", "Malonic acid, ethyl-, dimethyl ester", "Propanedioic acid, ethyl-, dimethyl ester", "1,3-Dimethyl 2-ethylpropanedioate", "Dimethyl ethylmalonate", "Dimethyl 2-ethylmalonate"], "SMILES": "C(C(OC)=O)(C(OC)=O)CC", "physical_data": {"Molecular Weight": "160.17", "Molecular Formula": "C7H12O4", "Boiling Point": "178-179 \u00b0C", "Density": "1.104 g/cm\u00b3"}}