{"cas_no": "2672-58-4", "cn_name": "\u4e09\u7532\u57fa1,3,5-\u82ef\u4e09\u7f9f\u9178\u916f(1,3,5-\u4e09\u7532\u57fa\u82ef)", "en_name": ["Trimethyl 1,3,5-benzenetricarboxylate", "1,3,5-Benzenetricarboxylic acid, 1,3,5-trimethyl ester", "1,3,5-Benzenetricarboxylic acid, trimethyl ester", "Trimesic acid trimethyl ester", "Trimethyl trimesate", "Trimethyl 1,3,5-benzenetricarboxylate", "1,3,5-Tris(methoxycarbonyl)benzene", "1,3,5-Tricarbomethoxybenzene", "NSC 61883", "1,3,5-Tri(methoxycarbonyl)benzene", "1,3,5-Trimethyl benzene-1,3,5-tricarboxylate"], "SMILES": "C(OC)(=O)C1=CC(C(OC)=O)=CC(C(OC)=O)=C1", "physical_data": {"Molecular Weight": "252.22", "Molecular Formula": "C12H12O6", "Melting Point": "143-144 \u00b0C"}}