{"cas_no": "26725-51-9", "cn_name": "4-\u7f9f\u57fa\u82ef\u5e76\u4e09\u5511", "en_name": ["4-Hydroxybenzotriazole", "1H-Benzotriazol-7-ol", "1H-Benzotriazol-4-ol", "Benzotriazol-4-ol", "4-Hydroxybenzotriazole", "4-Hydroxy-1H-benzotriazole", "1H-1,2,3-Benzotriazol-4-ol", "1H-1,2,3-Benzotriazol-7-ol", "2H-1,2,3-Benzotriazol-4-ol"], "SMILES": "OC1=C2C(=CC=C1)N=NN2", "physical_data": {"Molecular Weight": "135.12", "Molecular Formula": "C6H5N3O", "Melting Point": "215.5-217.5 \u00b0C"}}