{"cas_no": "26734-09-8", "cn_name": "3-\u6c28\u57fa-2\uff0c2-\u4e8c\u7532\u57fa-1-\u4e19\u9187", "en_name": ["3-Amino-2,2-dimethyl-1-propanol", "1-Propanol, 3-amino-2,2-dimethyl-", "3-Amino-2,2-dimethyl-1-propanol", "2,2-Dimethyl-3-aminopropanol", "Neopentanolamine", "3-Hydroxy-2,2-dimethylpropylamine", "3-Amino-2,2-dimethylpropanol", "2,2-Dimethyl-3-amino-1-propanol", "1-Amino-2,2-dimethyl-3-propanol", "2,2-Dimethyl-3-hydroxypropanamine", "2,2-Dimethyl-3-hydroxypropylamine", "3-Hydroxy-2,2-dimethylpropanamine"], "SMILES": "C(CN)(CO)(C)C", "physical_data": {"Molecular Weight": "103.16", "Molecular Formula": "C5H13NO", "Boiling Point": "95-105 \u00b0C @ Press: 35 Torr", "Melting Point": "98-100 \u00b0C"}}