{"cas_no": "2673-40-7", "cn_name": "\u6d3e\u5229\u6587\u78b1", "en_name": ["Perivine", "Vobasan-17-oic acid, 4-demethyl-3-oxo-, methyl ester", "Perivine", "2,6-Methano-1H-azecino[5,4-b]indole-14-carboxylic acid, 5-ethylidene-2,3,4,5,6,7,8,9-octahydro-8-oxo-, methyl ester", "Perivin"], "SMILES": "C(OC)(=O)C1C2C(=CC)CNC1CC3=C(C(=O)C2)NC=4C3=CC=CC4", "physical_data": {"Molecular Weight": "338.40", "Molecular Formula": "C20H22N2O3", "Melting Point": "180-181 \u00b0C"}}