{"cas_no": "26741-53-7", "cn_name": "\u6297\u6c27\u5316\u5242626", "en_name": ["Bis(2,4-di-tert-butylphenyl) pentaerythritol diphosphite", "2,4,8,10-Tetraoxa-3,9-diphosphaspiro[5.5]undecane, 3,9-bis[2,4-bis(1,1-dimethylethyl)phenoxy]-", "Phosphorous acid, cyclic neopentanetetrayl bis(2,4-di-tert-butylphenyl) ester", "Phenol, 2,4-di-tert-butyl-, dihydrogen phosphite cyclic neopentanetetrayl ester", "2,4,8,10-Tetraoxa-3,9-diphosphaspiro[5.5]undecane, 3,9-bis(2,4-di-tert-butylphenoxy)-", "3,9-Bis[2,4-bis(1,1-dimethylethyl)phenoxy]-2,4,8,10-tetraoxa-3,9-diphosphaspiro[5.5]undecane", "Pentaerythritol bis(2,4-di-tert-butylphenyl phosphite)", "Weston MDW 626", "Bis(2,4-di-tert-butylphenyl) pentaerythritol diphosphite", "Ultranox 624", "Weston 626", "Ultranox 626", "Weston 624", "Mark PEP 24", "Alkanox P 24", "Mark PEP 24G", "Phos 5", "Ultranox 626A", "ADK Stab PEP 24G", "ADK Stab PEP 24", "PEP 24G", "Ultranox 2879A", "Cyclic neopentanetetrayl bis(2,4-di-tert-butylphenyl phosphite)", "Doverphos S 9432", "Irgafos 126", "PEP 24", "Di(2,4-di-tert-butylphenyl)pentaerythritol diphosphite", "Irgafos 126FF", "Ultranox 640", "AT 626", "PEP 24Q", "Antioxidant 626", "Songnox 6260", "KY 626", "Pentaerythritol bis(2,4-di-tert-butylphenyl) diphosphite", "Antioxidant 242", "Magnafloc 6260", "PL 34", "Antioxidant 6260", "Ultranox 626GE", "Irganox 242", "UV 242", "Antioxidant TH 24", "Yiphos 3026", "Songnox 6260PW", "Bis(2,4-di-tert-butylphenyl)pentraerythritol diphosphite", "Antioxidant 126", "Ultranox 627AV", "Sonox 626", "Bis(2,4-di-t-butylphenyl)pentaerythritol diphosphite", "Pentaerythritol bis(2,4-di-tert-butylbenzyl) diphosphite", "Antioxidant 3026", "Irgafos 626", "RC 626", "H 175", "Bruggolen H 175", "Antioxidant 24", "THP 24", "3,9-Bis(2,4-di-tert-butylphenoxy)-2,4,8,10-tetraoxa-3,9-diphosphaspiro[5.5]undecane", "Antioxidant 627A", "Songnox 6260FF", "3,9-Bis(2,4-ditert-butylphenoxy)-2,4,8,10-tetraoxa-3,9-diphosphaspiro[5.5]undecane", "Richfos 626", "Sonox 627", "AO 626", "Chemfos 626", "Rianox 626"], "SMILES": "O(P1OCC2(COP(OC3=C(C(C)(C)C)C=C(C(C)(C)C)C=C3)OC2)CO1)C4=C(C(C)(C)C)C=C(C(C)(C)C)C=C4", "physical_data": {"Molecular Weight": "604.69", "Molecular Formula": "C33H50O6P2", "Melting Point": "178 \u00b0C"}}