{"cas_no": "2675-94-7", "cn_name": "N,N-\u4e8c\u4e59\u57fa-2-\u4e19\u70ef\u9170\u80fa", "en_name": ["N,N-Diethylacrylamide", "2-Propenamide, N,N-diethyl-", "Acrylamide, N,N-diethyl-", "N,N-Diethyl-2-propenamide", "N,N-Diethylacrylamide", "Acrylic acid diethylamide", "NSC 20951", "DEAA", "3-(N,N-Diethyl)-1-acrylamide", "Kohshylmer DEAA"], "SMILES": "N(C(C=C)=O)(CC)CC", "physical_data": {"Molecular Weight": "127.18", "Molecular Formula": "C7H13NO", "Boiling Point": "101-107 \u00b0C", "Density": "0.9256 g/cm\u00b3 @ Temp: 20 \u00b0C"}}