{"cas_no": "26759-46-6", "cn_name": "2-\u6c28\u57fa-4,5-\u4e8c\u7532\u6c27\u57fa\u82ef\u7532\u9178\u7532\u916f", "en_name": ["Benzoic acid, 2-amino-4,5-dimethoxy-, methyl ester", "Benzoic acid, 2-amino-4,5-dimethoxy-, methyl ester", "Veratric acid, 6-amino-, methyl ester", "Methyl 6-amino-3,4-dimethoxybenzoate", "Methyl 4,5-dimethoxyanthranilate", "Methyl 2-amino-4,5-dimethoxybenzoate", "2-Amino-4,5-dimethoxybenzoic acid methyl ester", "Methyl 6-aminoveratrate", "4,5-Dimethoxyanthranilic acid methyl ester", "2-Methoxycarbonyl-4,5-methoxyaniline"], "SMILES": "C(OC)(=O)C1=CC(OC)=C(OC)C=C1N", "physical_data": {"Molecular Weight": "211.21", "Molecular Formula": "C10H13NO4", "Melting Point": "130 \u00b0C"}}