{"cas_no": "2675-79-8", "cn_name": "1-\u6eb4-3,4,5-\u4e09\u7532\u6c27\u57fa\u82ef", "en_name": ["1-Bromo-3,4,5-trimethoxybenzene", "Benzene, 5-bromo-1,2,3-trimethoxy-", "5-Bromo-1,2,3-trimethoxybenzene", "5-Bromopyrogallol trimethyl ether", "3,4,5-Trimethoxybromobenzene", "3,4,5-Trimethoxyphenyl bromide", "1-Bromo-3,4,5-trimethoxybenzene", "3,4,5-Trimethoxy-1-bromobenzene", "1,2,3-Trimethoxy-5-bromobenzene"], "SMILES": "O(C)C1=C(OC)C=C(Br)C=C1OC", "physical_data": {"Molecular Weight": "247.09", "Molecular Formula": "C9H11BrO3", "Melting Point": "78-79 \u00b0C"}}