{"cas_no": "2675-77-6", "cn_name": "\u5730\u8302\u6563", "en_name": ["1,4-Dichloro-2,5-dimethoxybenzene", "Benzene, 1,4-dichloro-2,5-dimethoxy-", "1,4-Dichloro-2,5-dimethoxybenzene", "Soil Fungicide 1823", "Chloroneb", "Demosan 65W", "Demosan", "2,5-Dichloro-1,4-dimethoxybenzene", "FloPro D", "NSC 151546"], "SMILES": "O(C)C1=C(Cl)C=C(OC)C(Cl)=C1", "physical_data": {"Molecular Weight": "207.05", "Molecular Formula": "C8H8Cl2O2", "Boiling Point": "268 \u00b0C", "Melting Point": "133-135 \u00b0C", "Density": "1.66 g/cm\u00b3"}}