{"cas_no": "2675-89-0", "cn_name": "2-\u6c2f-N,N-\u4e8c\u7532\u57fa\u4e59\u9170\u80fa", "en_name": ["2-Chloro-N,N-dimethylacetamide", "Acetamide, 2-chloro-N,N-dimethyl-", "2-Chloro-N,N-dimethylacetamide", "\u03b1-Chloro-N,N-dimethylacetamide", "N,N-Dimethylchloroacetamide", "N,N-Dimethyl-2-chloroacetamide", "N,N-Dimethyl-\u03b1-chloroacetamide", "2-Chloro-N,N\u2032-dimethylacetamide", "2-Chlorodimethylacetamide", "NSC 1193"], "SMILES": "C(N(C)C)(CCl)=O", "physical_data": {"Molecular Weight": "121.57", "Molecular Formula": "C4H8ClNO", "Boiling Point": "99-101 \u00b0C @ Press: 12 Torr", "Melting Point": "15-16 \u00b0C"}}