{"cas_no": "26750-81-2", "cn_name": "\u963f\u5229\u82ef\u591a", "en_name": ["Alibendol", "Benzamide, 2-hydroxy-N-(2-hydroxyethyl)-3-methoxy-5-(2-propen-1-yl)-", "m-Anisamide, 5-allyl-2-hydroxy-N-(2-hydroxyethyl)-", "Benzamide, 2-hydroxy-N-(2-hydroxyethyl)-3-methoxy-5-(2-propenyl)-", "2-Hydroxy-N-(2-hydroxyethyl)-3-methoxy-5-(2-propen-1-yl)benzamide", "5-Allyl-2-hydroxy-3-methoxy-N-(\u03b2-hydroxyethyl)benzamide", "2-Hydroxy-3-methoxy-5-allyl-N-(\u03b2-hydroxyethyl)benzamide", "Alibendol", "FC 54", "EB 1856", "Cebera", "H 3774", "2-Hydroxy-N-(2-hydroxyethyl)-3-methoxy-5-prop-2-enylbenzamide"], "SMILES": "C(NCCO)(=O)C1=C(O)C(OC)=CC(CC=C)=C1", "physical_data": {"Molecular Weight": "251.28", "Molecular Formula": "C13H17NO4", "Melting Point": "95 \u00b0C"}}