{"cas_no": "26750-50-5", "cn_name": "\u53cc(\u4e59\u70ef\u781c\u7532\u57fa)\u919a", "en_name": ["1,1\u2032-[Oxybis(methylenesulfonyl)]bis[ethene]", "Ethene, 1,1\u2032-[oxybis(methylenesulfonyl)]bis-", "Ether, bis[(vinylsulfonyl)methyl]", "1,1\u2032-[Oxybis(methylenesulfonyl)]bis[ethene]", "Bis(vinylsulfonylmethyl) ether"], "SMILES": "S(COCS(C=C)(=O)=O)(C=C)(=O)=O", "physical_data": {"Molecular Weight": "226.27", "Molecular Formula": "C6H10O5S2", "Melting Point": "41.5-42.5 \u00b0C"}}