{"cas_no": "26761-40-0", "cn_name": "\u90bb\u82ef\u4e8c\u7532\u9178\u4e8c\u5f02\u7678\u916f", "en_name": ["Diisodecyl phthalate", "1,2-Benzenedicarboxylic acid, 1,2-diisodecyl ester", "Phthalic acid, diisodecyl ester", "1,2-Benzenedicarboxylic acid, diisodecyl ester", "Isodecyl alcohol, phthalate (2:1)", "PX 120", "Diisodecyl phthalate", "Sicol 184", "Bis(isodecyl) phthalate", "Palatinol Z", "Vestinol DZ", "DIDP", "Isodecyl phthalate", "Plasthall DIDP", "Hexaplas DIDP", "Jayflex DIDP", "Reomol DiDP", "Sansocizer DIDP", "Emkarate 1020", "Palatinol DIDP"], "SMILES": "", "physical_data": {"Molecular Weight": "", "Molecular Formula": "C28H46O4", "Boiling Point": "250-257 \u00b0C @ Press: 4 Torr", "Melting Point": "-50 \u00b0C", "Density": "0.966 g/cm\u00b3 @ Temp: 20 \u00b0C"}}