{"cas_no": "26786-32-3", "cn_name": "\u76d0\u9178\u6d1b\u975e\u5e15\u660e", "en_name": ["Ethanone, 1-(4-chlorophenyl)-2-[[3-(10,11-dihydro-5H-dibenz[b,f]azepin-5-yl)propyl]methylamino]-, hydrochloride (1:1)", "Ethanone, 1-(4-chlorophenyl)-2-[[3-(10,11-dihydro-5H-dibenz[b,f]azepin-5-yl)propyl]methylamino]-, hydrochloride (1:1)", "Acetophenone, 4\u2032-chloro-2-[[3-(10,11-dihydro-5H-dibenz[b,f]azepin-5-yl)propyl]methylamino]-, monohydrochloride", "Ethanone, 1-(4-chlorophenyl)-2-[[3-(10,11-dihydro-5H-dibenz[b,f]azepin-5-yl)propyl]methylamino]-, monohydrochloride", "Lopramine hydrochloride", "Leo 640 hydrochloride", "Lofepramine hydrochloride", "Gamonil", "Tymelyt", "WHR 2908A", "Timelit", "Gamanil"], "SMILES": "C(CCN(CC(=O)C1=CC=C(Cl)C=C1)C)N2C=3C(CCC=4C2=CC=CC4)=CC=CC3.Cl", "physical_data": {"Molecular Weight": "", "Molecular Formula": "C26H27ClN2O.ClH", "Melting Point": "152-154 \u00b0C"}}