{"cas_no": "26780-96-1", "cn_name": "2,2,4-\u4e09\u7532\u57fa-1,2-\u4e8c\u6c22\u55b9\u5549\u805a\u5408\u7269", "en_name": ["2,2,4-Trimethyl-1,2-dihydroquinoline polymer", "Quinoline, 1,2-dihydro-2,2,4-trimethyl-, homopolymer", "Quinoline, 1,2-dihydro-2,2,4-trimethyl-, polymers", "Poly(1,2-dihydro-2,2,4-trimethylquinoline)", "1,2-Dihydro-2,2,4-trimethylquinoline polymer", "Poly(2,2,4-trimethyl-1,2-dihydroquinoline)", "Flectol H", "Trimethyldihydroquinoline polymer", "Permanax 45", "Nonflex RD", "Antigene RDF", "Acetonanil", "AgeRite Resin D", "Antioxidant HS", "HS (antioxidant)", "Flectol Flakes", "AgeRite MA", "HSL", "Polnoks R", "Antioxidant HSL", "Nocrac 224", "Anox HB", "Vulkanox HS", "Permanax TQ", "Ryphosan S", "Naugard Q", "Ultranox 254", "Antigene RD", "Antage RD", "Nocrac 224S", "Vulkanox HS-LG", "Nonflex QS", "Forte RD", "HS", "Lowinox ACP", "Vanlube RD", "Poly(2,2,4-trimethyl-1,2-dihydroquinone)", "Antigene RD-G", "1,2-Dihydro-2,2,4-trimethylquinoline homopolymer", "Naugard Super Q", "Flectol TMQ", "AgeRite D", "Nonflex RD-S", "Anox HPG", "2,2,4-Trimethyl-1,2-dihydroquinoline polymer", "Acetonanil R", "RD", "HSL antioxidant", "AgeRite TMQ", "Banox H", "Naugard TMQ", "Acetone anil P", "Antioxidant RD", "Matoflex TMA", "Acetonanil N", "Orox PK", "Additin RC 7010", "Vulkanox HSL", "TMQ", "Antage RD-G", "Aquanox TMQ", "Nocrac RD", "Antioxidant FR", "Antioxidant 224", "RD Antioxidant", "TMDQ", "Antioxidant TMQ", "Antioxidant HPG", "Antioxidant 212", "Luvomaxx TMQ", "RD Antiaging Agent", "S-TMQ", "P 824729", "A 93", "RD (additive)", "Acetonanil H", "TMQ-RD", "Antioxidant TQ", "Vulkanox HS/LG", "Stangard TMQ"], "SMILES": "CC=1C=2C(NC(C)(C)C1)=CC=CC2", "physical_data": {"Molecular Weight": "", "Molecular Formula": "(C12H15N)x", "Melting Point": "87-97 \u00b0C"}}