{"cas_no": "26782-74-1", "cn_name": "(S)-2-\u6c2f-3-\u7532\u57fa\u4e01\u9178", "en_name": ["(2S)-2-Chloro-3-methylbutanoic acid", "Butanoic acid, 2-chloro-3-methyl-, (2S)-", "Butyric acid, 2-chloro-3-methyl-, (S)-", "Butanoic acid, 2-chloro-3-methyl-, (S)-", "(2S)-2-Chloro-3-methylbutanoic acid", "(S)-2-Chloro-3-methylbutanoic acid", "(S)-2-Chloro-3-methylbutyric acid", "(S)-(+)-2-Chloro-3-methylbutanoic acid", "(2S)-2-Chloro-3-methylbutanoic acid"], "SMILES": "C(C(C)C)(C(O)=O)Cl", "physical_data": {"Molecular Weight": "136.58", "Molecular Formula": "C5H9ClO2", "Boiling Point": "98 \u00b0C @ Press: 16 Torr"}}