{"cas_no": "26787-78-0", "cn_name": "\u963f\u83ab\u897f\u6797", "en_name": ["Amoxicillin", "4-Thia-1-azabicyclo[3.2.0]heptane-2-carboxylic acid, 6-[[(2R)-2-amino-2-(4-hydroxyphenyl)acetyl]amino]-3,3-dimethyl-7-oxo-, (2S,5R,6R)-", "4-Thia-1-azabicyclo[3.2.0]heptane-2-carboxylic acid, 6-[[amino(4-hydroxyphenyl)acetyl]amino]-3,3-dimethyl-7-oxo-, [2S-[2\u03b1,5\u03b1,6\u03b2(S*)]]-", "4-Thia-1-azabicyclo[3.2.0]heptane-2-carboxylic acid, 6-[2-amino-2-(p-hydroxyphenyl)acetamido]-3,3-dimethyl-7-oxo-, D-", "4-Thia-1-azabicyclo[3.2.0]heptane-2-carboxylic acid, 6-[[(2R)-amino(4-hydroxyphenyl)acetyl]amino]-3,3-dimethyl-7-oxo-, (2S,5R,6R)-", "(2S,5R,6R)-6-[[(2R)-2-Amino-2-(4-hydroxyphenyl)acetyl]amino]-3,3-dimethyl-7-oxo-4-thia-1-azabicyclo[3.2.0]heptane-2-carboxylic acid", "6-[D(-)-\u03b1-Amino-p-hydroxyphenylacetamido]penicillanic acid", "Amoxicillin", "Amoxycillin", "BRL 2333", "6-[D-(-)-2-Amino-2-(p-hydroxyphenyl)acetamido]-3,3-dimethyl-7-oxo-4-thia-1-azabicyclo[3.2.0]heptane-2-carboxylic acid", "D-(-)-\u03b1-Amino-p-hydroxybenzyl penicillin", "D-(\u03b1-Amino-p-hydroxybenzyl)penicillin", "p-Hydroxyampicillin", "Histocillin", "Amoxil", "6-[D-(-)-p-Hydroxy-\u03b1-aminobenzyl]penicillin", "D-2-Amino-2-(4-hydroxyphenyl)acetamidopenicillanic acid", "Clamoxyl", "BLP 1410", "6-[D-\u03b1-Amino-\u03b1-(4-hydroxyphenyl)acetamido]penicillanic acid", "Imacillin", "D-Amoxicillin", "Amopen", "Sawacillin", "Amoclen", "Cemoxin", "Amoxipen", "Anemolin", "Bristamox", "Delacillin", "Aspenil", "Ibiamox", "Piramox", "Sumox", "Amopenixin", "Ampy-Penyl", "Amoxi", "Efpenix", "Amolin", "Amoxi-Mast", "Metifarma capsules", "Metafarma capsules", "Hiconcil", "Amoxivet", "Vetramox", "Suramox PM", "Flemoxin", "Acimox", "Abdimox", "Agerpen", "Actimoxi", "Adbiotin", "Almodan", "Alphamox", "AM 73", "Amagesen Solutab", "Amcill", "A-Gram", "Alfamox", "Amoflux", "Amosine", "Amox", "Amoxa", "Amoxal", "Amoxapen", "Amoxaren", "Amoxcillin", "Amoxi-basan", "Amoxibiotic", "Amoxicilina", "Amoxidal", "Amoxiden", "Amodex", "Amo-flamsian", "Amoxillin", "Amoxin", "Amoxipenil", "Amoxisol", "Amoxivan", "Amoxtrex", "Amoxy", "Amoxy-diolan", "Amoxypen", "Ampidroxyl", "Anemol", "Apitart", "Apo-Amoxi", "Audumic", "Azillin", "Bactamox", "Bimox", "Bintamox", "Biomox", "Bioxidona", "Bioxyllin", "Bridopen", "Cabermox", "Cilamox", "Clamox", "Coamoxin", "Comoxyl", "Damoxicil", "Amoxidin", "Amoxihexal", "Eupen", "Excillin", "Efpinex", "Fisamox", "Foxolin", "Farconcil", "Gemox", "Gimalxina", "Gomcillin", "Grinsul", "Grunamox", "Hidramox", "Fullcilina", "Draximox", "Ikamoxil", "Imaxilin", "Imox", "Imoxil", "Intermox", "Isimoxin", "Izoltil", "Jerramcil", "Kamoxin", "Lamoxy", "Larocilin", "Larotid", "Limox", "Hipen", "Hosboral", "Maxcil", "Medimox", "Meixil", "Mopen", "Morgenxil", "Mox", "Moxacin", "Moxaline", "Moxarin", "Moxcil", "Moxilen", "Moxlin", "Moxylin", "Moxypen", "Moxyvit", "Novabritine", "Novamoxin", "Novenzymin", "Optium", "Ospamox", "Pamocil", "Pamoxicillin", "Pasetocin", "Penamox", "Penbiosyn", "Pensyn", "Polymox", "Posmox", "Protexillin", "Majorpen", "Matasedrin", "Ranmoxy", "Rancil", "Rhamoxilina", "Robamox", "Ronemox", "Saltermox", "Ranoxyl", "Reloxyl", "Sawamezin", "Senox", "Sia-mox", "Sigmopen", "Sil-A-mox", "Simoxil", "Simplamox", "Specillin", "Superpeni", "Suprapen", "Teramoxyl", "Tolodina", "Triafamox", "Triamoxil", "Trilaxin", "Trimox", "Twicyl", "Unicillin", "Velamox", "Virgoxillin", "Widecillin", "Winmox", "Wymox", "Yisulon", "Zamocillin", "Zamox", "Zamoxil", "Zerrsox", "Zimox", "Samosillin", "Samthongcillin", "Rocillin", "Ardine", "Ardine (pharmaceutical)", "Penimox", "Amoxicillin Chewable Tablets", "Helvamox", "Betamox", "Grinsil", "Utimox", "Amocilline", "Amoram", "NSC 277174", "Eupensol", "Gramidil", "Suramox 50", "Vetomoxin", "Bactox", "Novamox", "Suramox", "Blumox", "Moxatag", "DisperMox", "MeSH ID: D000658"], "SMILES": "C(O)(=O)C1N2C(C(NC(C(N)C3=CC=C(O)C=C3)=O)C2=O)SC1(C)C", "physical_data": {"Molecular Weight": "365.40", "Molecular Formula": "C16H19N3O5S", "Melting Point": "140 \u00b0C"}}