{"cas_no": "26791-93-5", "cn_name": "6-\u785d\u57fa\u85dc\u82a6\u9178\u7532\u916f", "en_name": ["Benzoic acid, 4,5-dimethoxy-2-nitro-, methyl ester", "Benzoic acid, 4,5-dimethoxy-2-nitro-, methyl ester", "Veratric acid, 6-nitro-, methyl ester", "Methyl 3,4-dimethoxy-6-nitrobenzoate", "Methyl 4,5-dimethoxy-2-nitrobenzoate", "Methyl 6-nitro-3,4-dimethoxybenzoate", "Methyl 6-nitroveratrate", "2-Nitro-4,5-dimethoxybenzoic acid methyl ester", "4,5-Dimethoxy-2-nitrobenzoic acid methyl ester"], "SMILES": "C(OC)(=O)C1=C(N(=O)=O)C=C(OC)C(OC)=C1", "physical_data": {"Molecular Weight": "241.20", "Molecular Formula": "C10H11NO6", "Melting Point": "143-144 \u00b0C"}}