{"cas_no": "2679-87-0", "cn_name": "2-\u4e59\u6c27\u57fa\u4e01\u70f7", "en_name": ["sec-Butyl ethyl ether", "Butane, 2-ethoxy-", "Ether, sec-butyl ethyl", "2-Ethoxybutane", "Ethyl sec-butyl ether", "sec-Butyl ethyl ether"], "SMILES": "C(OCC)(CC)C", "physical_data": {"Molecular Weight": "102.17", "Molecular Formula": "C6H14O", "Boiling Point": "81 \u00b0C", "Density": "0.745 g/cm\u00b3 @ Temp: 20 \u00b0C"}}