{"cas_no": "26791-73-1", "cn_name": "\u82cd\u8033\u4ead", "en_name": ["(-)-Xanthatin", "2H-Cyclohepta[b]furan-2-one, 3,3a,4,7,8,8a-hexahydro-7-methyl-3-methylene-6-[(1E)-3-oxo-1-buten-1-yl]-, (3aR,7S,8aS)-", "2H-Cyclohepta[b]furan-2-one, 3,3a,4,7,8,8a-hexahydro-7-methyl-3-methylene-6-(3-oxo-1-butenyl)-, [3aR-(3a\u03b1,7\u03b2,8a\u03b2)]-", "Xanthatin", "3-Cycloheptene-1-acetic acid, 7-hydroxy-5-methyl-\u03b1-methylene-4-(3-oxo-1-butenyl)-, \u03b3-lactone", "2H-Cyclohepta[b]furan-2-one, 3,3a,4,7,8,8a-hexahydro-7-methyl-3-methylene-6-[(1E)-3-oxo-1-butenyl]-, (3aR,7S,8aS)-", "(3aR,7S,8aS)-3,3a,4,7,8,8a-Hexahydro-7-methyl-3-methylene-6-[(1E)-3-oxo-1-buten-1-yl]-2H-cyclohepta[b]furan-2-one", "(-)-Xanthatin"], "SMILES": "C=C1C2C(CC(C)C(C=CC(C)=O)=CC2)OC1=O", "physical_data": {"Molecular Weight": "246.30", "Molecular Formula": "C15H18O3", "Melting Point": "111-112 \u00b0C"}}