{"cas_no": "2679-14-3", "cn_name": "3-\u7532\u6c28\u57fa\u4e19\u9178", "en_name": ["N-Methyl-\u03b2-alanine", "\u03b2-Alanine, N-methyl-", "N-Methyl-\u03b2-alanine", "N-Methyl-\u03b2-aminopropionic acid", "3-(Methylamino)propionic acid", "3-(Methylamino)propanoic acid"], "SMILES": "C(C(O)=O)CNC", "physical_data": {"Molecular Weight": "103.12", "Molecular Formula": "C4H9NO2", "Boiling Point": "65 \u00b0C @ Press: 15 Torr"}}