{"cas_no": "26807-65-8", "cn_name": "\u5432\u8fbe\u5e15\u80fa", "en_name": ["Indapamide", "Benzamide, 3-(aminosulfonyl)-4-chloro-N-(2,3-dihydro-2-methyl-1H-indol-1-yl)-", "Benzamide, 4-chloro-N-(2-methyl-1-indolinyl)-3-sulfamoyl-", "3-(Aminosulfonyl)-4-chloro-N-(2,3-dihydro-2-methyl-1H-indol-1-yl)benzamide", "Indapamide", "SE 1520", "S 1520", "Lozol", "Tertensif", "(\u00b1)-Indapamide", "Racemic indapamide", "Fludin", "Fludex", "Flupamid", "Flubest", "Indamide", "Natrilix", "Veroxil", "Damide", "Ipamix", "Tandix", "Indaflex", "Bajaten", "Indamol", "Noranat", "Arifon", "Lorvas", "KYD 041", "Natrix", "MeSH ID: D007190"], "SMILES": "N(C(=O)C1=CC(S(N)(=O)=O)=C(Cl)C=C1)N2C=3C(CC2C)=CC=CC3", "physical_data": {"Molecular Weight": "365.83", "Molecular Formula": "C16H16ClN3O3S", "Melting Point": "161 \u00b0C"}}