{"cas_no": "2680-03-7", "cn_name": "N,N-\u4e8c\u7532\u57fa\u4e19\u70ef\u9170\u80fa", "en_name": ["N,N-Dimethylacrylamide", "2-Propenamide, N,N-dimethyl-", "Acrylamide, N,N-dimethyl-", "N,N-Dimethyl-2-propenamide", "N,N-Dimethylacrylamide", "DMAC", "N,N-Dimethylpropenamide", "DMAA", "NSC 32613", "NSC 35191", "N,N\u2032-Dimethylacrylamide", "N 828383", "DMAAm", "Kohshylmer DMAA"], "SMILES": "C(N(C)C)(C=C)=O", "physical_data": {"Molecular Weight": "99.13", "Molecular Formula": "C5H9NO", "Boiling Point": "89-91 \u00b0C @ Press: 32 Torr"}}