{"cas_no": "2681-55-2", "cn_name": "\u96c4\u753e-3-\u916e-4-\u70ef-17bata-\u7fa7\u9178\u7532\u916f", "en_name": ["Methyl (17\u03b2)-3-oxoandrost-4-ene-17-carboxylate", "Androst-4-ene-17-carboxylic acid, 3-oxo-, methyl ester, (17\u03b2)-", "Androst-4-ene-17\u03b2-carboxylic acid, 3-oxo-, methyl ester", "Methyl (17\u03b2)-3-oxoandrost-4-ene-17-carboxylate", "Methyl 4-androsten-3-one 17\u03b2-carboxylate", "4-Androsten-3-one 17\u03b2-carboxylic acid methyl ester", "L 589.170", "Methyl 3-oxo-4-androstene-17\u03b2-carboxylate", "Org 7329-0", "Methyl 3-oxoandrost-4-ene-17\u03b2-carboxylate"], "SMILES": "CC12C(C3C(C4(C)C(CC3)=CC(=O)CC4)CC1)CCC2C(OC)=O", "physical_data": {"Molecular Weight": "330.46", "Molecular Formula": "C21H30O3", "Melting Point": "130-131 \u00b0C"}}