{"cas_no": "2682-49-7", "cn_name": "1,3-\u567b\u5511\u70f7-2-\u916e", "en_name": ["2-Thiazolidinone", "2-Thiazolidinone", "2-Oxothiazolidine", "1,3-Thiazolidin-2-one", "NSC 122613"], "SMILES": "O=C1NCCS1", "physical_data": {"Molecular Weight": "103.14", "Molecular Formula": "C3H5NOS", "Boiling Point": "160 \u00b0C @ Press: 20 Torr", "Melting Point": "54 \u00b0C"}}