{"cas_no": "2682-20-4", "cn_name": "\u7532\u57fa\u5f02\u567b\u5511\u5549\u916e", "en_name": ["Methylisothiazolinone", "3(2H)-Isothiazolone, 2-methyl-", "4-Isothiazolin-3-one, 2-methyl-", "2-Methyl-3(2H)-isothiazolone", "2-Methyl-3-isothiazolone", "2-Methyl-4-isothiazolin-3-one", "N-Methylisothiazolin-3-one", "Kathon CG 243", "2-Methyl-4-isothiazoline-3-one", "N-Methylisothiazolone", "MIT", "Methylisothiazolinone", "Kordek 50", "Neolone", "Neolone M 50", "Neolone M 10", "Kordek 50C", "2-Methyl-2H-isothiazol-3-one", "ProClin 950", "Kordek MLX", "Neolone 950", "Neolone PE", "Zonen MT", "KB 838", "Neolone CapG", "Optiphen MIT", "SPX", "ZONEN-MT 10", "Kordek 573F", "Microcare MT", "2-Methyl-4-isothiazoline-3-ketone", "MIT (biocide)", "ProClin 5000", "MT 10", "Bestcide 600", "2-Methyl-3(2H)-isothiazolinone", "MIT 950", "2-Methyl-2H-isothiazolin-3-one", "Acticide M 10", "Acticide M 20", "Kordek LX 5000", "MIT 10", "M 20", "S 1206", "2-Methyl-1,2-thiazol-3(2H)-one", "2-Methyl-2,3-dihydro-1,2-thiazol-3-one", "2-Methyl-1,2-thiazol-3-one", "Isocil MI 10", "Lonza MI 10", "LA-S 1", "Acticide ICB 6"], "SMILES": "O=C1N(C)SC=C1", "physical_data": {"Molecular Weight": "115.15", "Molecular Formula": "C4H5NOS", "Boiling Point": "85 \u00b0C @ Press: 1.0 Torr", "Melting Point": "50-51 \u00b0C"}}