{"cas_no": "26820-62-2", "cn_name": "2-\u5417\u5549\u57fa-5-\u785d\u57fa\u5421\u5576", "en_name": ["2-Morpholino-5-nitropyridine", "Morpholine, 4-(5-nitro-2-pyridinyl)-", "Morpholine, 4-(5-nitro-2-pyridyl)-", "4-(5-Nitro-2-pyridinyl)morpholine", "2-Morpholino-5-nitropyridine", "N-(5-Nitro-2-pyridyl)morpholine", "NSC 91094", "4-(5-Nitropyridin-2-yl)morpholine"], "SMILES": "N(=O)(=O)C1=CC=C(N=C1)N2CCOCC2", "physical_data": {"Molecular Weight": "209.20", "Molecular Formula": "C9H11N3O3", "Melting Point": "142.3-143.3 \u00b0C"}}