{"cas_no": "26825-94-5", "cn_name": "10-\u6eb4\u4ee3\u7678\u9178\u7532\u916f", "en_name": ["Decanoic acid, 10-bromo-, methyl ester", "Decanoic acid, 10-bromo-, methyl ester", "Capric acid, \u03b9-bromo-, methyl ester", "Methyl 10-bromodecanoate", "10-Bromodecanoic acid methyl ester"], "SMILES": "C(CCC(OC)=O)CCCCCCBr", "physical_data": {"Molecular Weight": "265.19", "Molecular Formula": "C11H21BrO2", "Boiling Point": "165 \u00b0C @ Press: 12 Torr", "Melting Point": "-8.3 \u00b0C"}}