{"cas_no": "26825-95-6", "cn_name": "12-\u6eb4\u5341\u4e8c\u9178\u7532\u916f", "en_name": ["Dodecanoic acid, 12-bromo-, methyl ester", "Dodecanoic acid, 12-bromo-, methyl ester", "12-Bromododecanoic acid methyl ester", "Methyl 12-bromododecanoate"], "SMILES": "C(CCC(OC)=O)CCCCCCCCBr", "physical_data": {"Molecular Weight": "293.24", "Molecular Formula": "C13H25BrO2", "Boiling Point": "130 \u00b0C @ Press: 0.5 Torr", "Melting Point": "7 \u00b0C"}}