{"cas_no": "2682-45-3", "cn_name": "2-\u7532\u57fa-beta-\u8418\u5e76\u567b\u5511", "en_name": ["2-Methylnaphtho[1,2-d]thiazole", "Naphtho[1,2-d]thiazole, 2-methyl-", "2-Methylnaphtho[1,2-d]thiazole", "2-Methyl-\u03b2-naphthothiazole", "2-Methyl-\u03b2-naphthiazole", "NSC 332548", "2-Methyl-\u03b1-naphthothiazole", "2-Methylnaphtho[1,2-d][1,3]thiazole"], "SMILES": "CC1=NC=2C=3C(C=CC2S1)=CC=CC3", "physical_data": {"Molecular Weight": "199.27", "Molecular Formula": "C12H9NS", "Boiling Point": "165-168 \u00b0C @ Press: 5.5 Torr", "Melting Point": "95-97 \u00b0C"}}