{"cas_no": "268214-51-3", "cn_name": "CORONALOLIDE", "en_name": ["(3R,3aR,5aS,6aR,6bR,9aR,10aS,10bS)-3-[(1R,4E)-1,5-Dimethyl-6-oxo-4-hexen-1-yl]tetradecahydro-3a,10b-dimethyl-7-methylene-8-oxo-6aH-cyclopenta[7,8]cyclopropa[4,4a]naphtho[2,3-b]furan-6a-propanoic acid", "6aH-Cyclopenta[7,8]cyclopropa[4,4a]naphtho[2,3-b]furan-6a-propanoic acid, 3-[(1R,4E)-1,5-dimethyl-6-oxo-4-hexen-1-yl]tetradecahydro-3a,10b-dimethyl-7-methylene-8-oxo-, (3R,3aR,5aS,6aR,6bR,9aR,10aS,10bS)-", "10bH-Cyclopenta[7,8]cyclopropa[4,4a]naphtho[2,3-b]furan-10b-propanoic acid, 4-[(1R,4E)-1,5-dimethyl-6-oxo-4-hexenyl]tetradecahydro-3a,6a-dimethyl-10-methylene-9-oxo-, (1aS,3aR,4R,6aS,6bS,7aR,10aR,10bR)-", "(3R,3aR,5aS,6aR,6bR,9aR,10aS,10bS)-3-[(1R,4E)-1,5-Dimethyl-6-oxo-4-hexen-1-yl]tetradecahydro-3a,10b-dimethyl-7-methylene-8-oxo-6aH-cyclopenta[7,8]cyclopropa[4,4a]naphtho[2,3-b]furan-6a-propanoic acid", "Coronalolide"], "SMILES": "C(CC(O)=O)C12C3(C(C4(C)C(C)(CC3)C(C(CCC=C(C=O)C)C)CC4)CC5C1C(=C)C(=O)O5)C2", "physical_data": {"Molecular Weight": "482.65", "Molecular Formula": "C30H42O5", "Melting Point": "82.2-83.1 \u00b0C"}}