{"cas_no": "26833-85-2", "cn_name": "\u4e09\u5c16\u6749\u916f\u78b1", "en_name": ["Harringtonine", "Cephalotaxine, 3-[4-methyl (2R)-2-hydroxy-2-(3-hydroxy-3-methylbutyl)butanedioate]", "Harringtonine", "Cephalotaxine, 4-methyl 2-hydroxy-2-(3-hydroxy-3-methylbutyl)butanedioate (ester), [3(R)]-", "Cephalotaxine, 4-methyl (2R)-2-hydroxy-2-(3-hydroxy-3-methylbutyl)butanedioate (ester)", "4H-Cyclopenta[a][1,3]dioxolo[4,5-h]pyrrolo[2,1-b][3]benzazepine, cephalotaxine deriv.", "Harringtonin", "2\u2032R-Harringtonine", "NSC 124147"], "SMILES": "O(C(C(CCC(C)(C)O)(CC(OC)=O)O)=O)C1C2C3(N(CCC=4C2=CC5=C(C4)OCO5)CCC3)C=C1OC", "physical_data": {"Molecular Weight": "531.59", "Molecular Formula": "C28H37NO9", "Melting Point": "68-69 \u00b0C"}}