{"cas_no": "26830-96-6", "cn_name": "2-\u6c28\u57fa-4-\u7532\u57fa\u82ef\u7532\u8148", "en_name": ["2-Amino-4-methylbenzonitrile", "Benzonitrile, 2-amino-4-methyl-", "p-Tolunitrile, 2-amino-", "2-Amino-4-methylbenzonitrile", "2-Amino-p-toluonitrile", "4-Methylanthranilonitrile", "2-Cyano-5-methylaniline", "4-Methyl-2-aminobenzonitrile"], "SMILES": "C(#N)C1=C(N)C=C(C)C=C1", "physical_data": {"Molecular Weight": "132.16", "Molecular Formula": "C8H8N2", "Boiling Point": "150-152 \u00b0C @ Press: 15 Torr", "Melting Point": "59-60 \u00b0C"}}