{"cas_no": "26830-95-5", "cn_name": "4-\u7532\u57fa-2-\u785d\u57fa\u82ef\u8148", "en_name": ["4-Methyl-2-nitrobenzonitrile", "Benzonitrile, 4-methyl-2-nitro-", "p-Tolunitrile, 2-nitro-", "4-Methyl-2-nitrobenzonitrile", "4-Cyano-3-nitrotoluene", "NSC 60828"], "SMILES": "N(=O)(=O)C1=C(C#N)C=CC(C)=C1", "physical_data": {"Molecular Weight": "162.15", "Molecular Formula": "C8H6N2O2", "Boiling Point": "134-137 \u00b0C", "Melting Point": "96 \u00b0C"}}