{"cas_no": "2683-82-1", "cn_name": "\u516b\u4e59\u57fa\u535f\u5429", "en_name": ["Octaethylporphyrin", "21H,23H-Porphine, 2,3,7,8,12,13,17,18-octaethyl-", "Porphine, 2,3,7,8,12,13,17,18-octaethyl-", "Porphine, 1,2,3,4,5,6,7,8-octaethyl-", "2,3,7,8,12,13,17,18-Octaethyl-21H,23H-porphine", "Octaethylporphyrin", "1,2,3,4,5,6,7,8-Octaethylporphyrin", "Octaethylporphine", "2,3,7,8,12,13,17,18-Octaethylporphyrin", "2,3,7,8,12,13,17,18-Octaetioporphyrin"], "SMILES": "C(C)C=1C(CC)=C2NC1C=C3C(CC)=C(CC)C(=N3)C=C4C(CC)=C(CC)C(=CC5=NC(=C2)C(CC)=C5CC)N4", "physical_data": {"Molecular Weight": "534.78", "Molecular Formula": "C36H46N4", "Melting Point": "&gt;300 \u00b0C"}}