{"cas_no": "2683-43-4", "cn_name": "2,4-\u4e8c\u6c2f-6-\u785d\u57fa\u82ef\u80fa", "en_name": ["2,4-Dichloro-6-nitroaniline", "Benzenamine, 2,4-dichloro-6-nitro-", "Aniline, 2,4-dichloro-6-nitro-", "2,4-Dichloro-6-nitrobenzenamine", "2,4-Dichloro-6-nitroaniline", "4,6-Dichloro-2-nitroaniline", "2-Nitro-4,6-dichloroaniline", "NSC 28582", "1-Nitro-2-amine-3,5-dichlorobenzene", "2,4-Dichloro-6-nitro-phenylamine"], "SMILES": "N(=O)(=O)C1=C(N)C(Cl)=CC(Cl)=C1", "physical_data": {"Molecular Weight": "207.01", "Molecular Formula": "C6H4Cl2N2O2", "Melting Point": "102 \u00b0C"}}