{"cas_no": "26833-87-4", "cn_name": "\u9ad8\u4e09\u5c16\u6749\u916f\u78b1", "en_name": ["Homoharringtonine", "Cephalotaxine, 3-[4-methyl (2R)-2-hydroxy-2-(4-hydroxy-4-methylpentyl)butanedioate]", "Homoharringtonine", "Cephalotaxine, 4-methyl (2R)-2-hydroxy-2-(4-hydroxy-4-methylpentyl)butanedioate (ester)", "NSC 141633", "Ceflatonin", "Myelostat", "Omacetaxine mepesuccinate", "CGX 635", "Synribo", "(-)-Homoharringtonine", "Omacetaxine"], "SMILES": "O(C(C(CCCC(C)(C)O)(CC(OC)=O)O)=O)C1C2C3(N(CCC=4C2=CC5=C(C4)OCO5)CCC3)C=C1OC", "physical_data": {"Molecular Weight": "545.62", "Molecular Formula": "C29H39NO9", "Melting Point": "141-142 \u00b0C"}}