{"cas_no": "26839-75-8", "cn_name": "\u567b\u5417\u6d1b\u5c14", "en_name": ["Timolol", "2-Propanol, 1-[(1,1-dimethylethyl)amino]-3-[[4-(4-morpholinyl)-1,2,5-thiadiazol-3-yl]oxy]-, (2S)-", "2-Propanol, 1-(tert-butylamino)-3-[(4-morpholino-1,2,5-thiadiazol-3-yl)oxy]-, (S)-(-)-", "2-Propanol, 1-[(1,1-dimethylethyl)amino]-3-[[4-(4-morpholinyl)-1,2,5-thiadiazol-3-yl]oxy]-, (S)-", "1,2,5-Thiadiazole, 2-propanol deriv.", "(2S)-1-[(1,1-Dimethylethyl)amino]-3-[[4-(4-morpholinyl)-1,2,5-thiadiazol-3-yl]oxy]-2-propanol", "Timolol", "(-)-Timolol", "l-Timolol", "(S)-Timolol", "L-Timolol", "(-)-S-Timolol", "Oftensin", "Arutimol", "(2S)-1-(tert-Butylamino)-3-[(4-morpholin-4-yl-1,2,5-thiadiazol-3-yl)oxy]propan-2-ol", "(2S)-1-(tert-Butylamino)-3-[(4-morpholino-1,2,5-thiadiazol-3-yl)oxy]propan-2-ol", "MeSH ID: D013999"], "SMILES": "O(CC(CNC(C)(C)C)O)C=1C(=NSN1)N2CCOCC2", "physical_data": {"Molecular Weight": "316.42", "Molecular Formula": "C13H24N4O3S", "Melting Point": "71.5-72.5 \u00b0C"}}