{"cas_no": "2683-90-1", "cn_name": "\u963f\u624e\u6b21\u9ec4\u560c\u5464", "en_name": ["3,6-Dihydro-7H-1,2,3-triazolo[4,5-d]pyrimidin-7-one", "7H-1,2,3-Triazolo[4,5-d]pyrimidin-7-one, 3,6-dihydro-", "7H-v-Triazolo[4,5-d]pyrimidin-7-one, 1,6-dihydro-", "7H-1,2,3-Triazolo[4,5-d]pyrimidin-7-one, 1,4-dihydro-", "3,6-Dihydro-7H-1,2,3-triazolo[4,5-d]pyrimidin-7-one", "8-Azahypoxanthine", "1H-v-Triazolo[4,5-d]pyrimidin-7-ol", "1H-1,2,3-Triazolo[4,5-d]pyrimidin-7-ol", "7-Hydroxy-v-triazolo[d]pyrimidine", "7-Hydroxy-1,2,3,4,6-pentaazaindene", "NSC 22709", "1H,4H,7H-[1,2,3]Triazolo[4,5-d]pyrimidin-7-one", "2,3-Dihydrotriazolo[4,5-d]pyrimidin-7-one"], "SMILES": "O=C1C2=C(NC=N1)N=NN2", "physical_data": {"Molecular Weight": "137.10", "Molecular Formula": "C4H3N5O", "Melting Point": "332 \u00b0C (decomp)"}}