{"cas_no": "26830-40-0", "cn_name": "2-\u6c28\u57fa-6-\u5f02\u4e19\u57fa-4,5,6,7-\u56db\u6c22\u567b\u5429[2,3-C]\u5421\u5576-3-\u8148", "en_name": ["2-Amino-4,5,6,7-tetrahydro-6-(1-methylethyl)thieno[2,3-c]pyridine-3-carbonitrile", "Thieno[2,3-c]pyridine-3-carbonitrile, 2-amino-4,5,6,7-tetrahydro-6-(1-methylethyl)-", "Thieno[2,3-c]pyridine-3-carbonitrile, 2-amino-4,5,6,7-tetrahydro-6-isopropyl-", "2-Amino-4,5,6,7-tetrahydro-6-(1-methylethyl)thieno[2,3-c]pyridine-3-carbonitrile", "2-Amino-6-isopropyl-4,5,6,7-tetrahydrothieno[2,3-C]pyridine-3-carbonitrile", "2-Amino-6-isopropyl-4,5,6,7-tetrahydro-thieno[2,3-c]pyridine-3-carbonitrile", "2-Amino-6-propan-2-yl-5,7-dihydro-4H-thieno[2,3-c]pyridine-3-carbonitrile", "2-Amino-6-(propan-2-yl)-4H,5H,6H,7H-thieno[2,3-c]pyridine-3-carbonitrile"], "SMILES": "C(#N)C=1C2=C(CN(C(C)C)CC2)SC1N", "physical_data": {"Molecular Weight": "221.32", "Molecular Formula": "C11H15N3S", "Melting Point": "168-169 \u00b0C"}}