{"cas_no": "2683-56-9", "cn_name": "(N,N-\u4e8c\u4e59\u57fa)-4- \u6c28\u57fa-1-\u4e01\u9187", "en_name": ["4-(Diethylamino)-1-butanol", "1-Butanol, 4-(diethylamino)-", "4-(Diethylamino)-1-butanol", "4-(Diethylamino)butanol", "NSC 16254", "2-(2-Diethylaminoethyl)ethanol"], "SMILES": "N(CCCCO)(CC)CC", "physical_data": {"Molecular Weight": "145.24", "Molecular Formula": "C8H19NO", "Boiling Point": "92-97 \u00b0C @ Press: 11 Torr", "Density": "0.9103 g/cm\u00b3 @ Temp: 14 \u00b0C"}}