{"cas_no": "26847-01-8", "cn_name": "2-\u6c2f-4-\u7532\u57fa\u567b\u5511", "en_name": ["2-Chloro-4-methylthiazole", "Thiazole, 2-chloro-4-methyl-", "2-Chloro-4-methylthiazole", "4-Methyl-2-chlorothiazole", "2-Chloro-4-methyl-1,3-thiazole", "2-Chloro-4-methyl-1,3-thiazol"], "SMILES": "CC=1N=C(Cl)SC1", "physical_data": {"Molecular Weight": "133.60", "Molecular Formula": "C4H4ClNS", "Boiling Point": "69 \u00b0C @ Press: 14 Torr", "Density": "1.2992 g/cm\u00b3 @ Temp: 15 \u00b0C"}}