{"cas_no": "26848-40-8", "cn_name": "5-(2'-\u7f9f\u57fa-3'-\u8418\u7532\u9170\u80fa\u57fa)-2-\u82ef\u5e76\u54aa\u5511\u916e", "en_name": ["N-(2,3-Dihydro-2-oxo-1H-benzimidazol-5-yl)-3-hydroxy-2-naphthalenecarboxamide", "2-Naphthalenecarboxamide, N-(2,3-dihydro-2-oxo-1H-benzimidazol-5-yl)-3-hydroxy-", "N-(2,3-Dihydro-2-oxo-1H-benzimidazol-5-yl)-3-hydroxy-2-naphthalenecarboxamide", "5-(3-Hydroxy-2-naphthoylamino)benzimidazolin-2-one", "5-(2-Hydroxy-3-naphthoylamino)benzimidazol-2-one", "N-(2-Benzimidazolon-5-yl)-3-hydroxy-2-naphthalenecarboxamide", "Naphthol AS-BI", "N-[(2,3-Dihydro-2-oxo-1H-benzimidazol)-5-yl]-3-hydroxy-2-naphthalenecarbamide", "N-[(2,3-Dihydro-2-oxo-1H-benzimidazol)-5-yl]-3-hydroxy-2-naphthalenecarboxamide", "3-Hydroxy-N-(2-oxo-1,3-dihydrobenzimidazol-5-yl)naphthalene-2-carboxamide", "3-Hydroxy-N-(2-oxo-2,3-dihydro-1H-benzo[d]imidazol-5-yl)-2-naphthamide", "3-Hydroxy-N-(2-oxo-1,3-dihydrobenzoimidazol-5-yl)naphthalene-2-carboxamide"], "SMILES": "N(C(=O)C1=CC2=C(C=C1O)C=CC=C2)C=3C=C4C(=CC3)NC(=O)N4", "physical_data": {"Molecular Weight": "319.31", "Molecular Formula": "C18H13N3O3", "Melting Point": "360 \u00b0C"}}