{"cas_no": "26853-31-6", "cn_name": "2-\u6cb9\u9170-1-\u68d5\u6988\u9521\u7518\u6cb9-3-\u78f7\u9178\u80c6\u78b1", "en_name": ["1-Palmitoyl-2-oleoyl-sn-glycero-3-phosphocholine", "3,5,8-Trioxa-4-phosphahexacos-17-en-1-aminium, 4-hydroxy-N,N,N-trimethyl-9-oxo-7-[[(1-oxohexadecyl)oxy]methyl]-, inner salt, 4-oxide, (7R,17Z)-", "Choline, hydroxide, dihydrogen phosphate, inner salt, ester with 1-palmito-2-olein, L-", "3,5,8-Trioxa-4-phosphahexacos-17-en-1-aminium, 4-hydroxy-N,N,N-trimethyl-9-oxo-7-[[(1-oxohexadecyl)oxy]methyl]-, hydroxide, inner salt, 4-oxide, [R-(Z)]-", "1-Palmitoyl-2-oleoyl-sn-glycero-3-phosphorylcholine", "1-Palmitoyl-2-oleoyl-sn-glyceryl-3-phosphorylcholine", "L-\u03b1-1-Palmitoyl-2-oleoylphosphatidylcholine", "1-Palmitoyl-2-oleoyl-sn-glycero-3-phosphocholine", "1-Palmitoyl-2-oleyl-3-sn-phosphatidylcholine", "1-Palmitoyl-2-oleoyl-L-\u03b1-lecithin", "1-Palmitoyl-2-oleoyl-L-\u03b1-phosphatidylcholine", "1-Palmitoyl-2-oleoyl-3-sn-phosphatidylcholine", "\u03b2-Oleoyl-\u03b3-palmitoyl-L-\u03b1-phosphatidylcholine", "1-Palmitoyl-2-oleoylphosphatidylcholine", "1-Palmitoyl-2-oleoyl-sn-3-phosphocholine", "POPC", "Palmitoyloleoylphosphatidylcholine", "3,5,8-Trioxa-4-phosphahexacos-17-en-1-aminium, 4-hydroxy-N,N,N-trimethyl-9-oxo-7-[[(1-oxohexadecyl)oxy]methyl]-, inner salt, 4-oxide, [R-(Z)]-", "1-Palmitoyl-2-oleoyl-sn-glycero-3-phosphatidylcholine", "1-Palmitoyl-2-oleoyl-sn-glycerol-3-phosphatidylcholine", "1-Palmitoyl-2-oleoyl-sn-glycero-phosphatidylcholine", "1-Palmitoyl-2-oleoyl-sn-glycero-3-phosphocholine", "1-Palmitoyl-2-oleoyl-sn-glycero-phosphocholine", "2-Oleoyl-1-palmitoyl-sn-glycero-3-phosphocholine", "1-Palmitoyl-2-oleoyl-sn-glycero-3-phosphatidylcholine", "1-Palmitoyl-2-oleoyl-sn-glycerol-3-phosphocholine", "1-Hexadecanoyl-2-(9Z-octadecenoyl)-sn-glycero-3-phosphocholine", "1-Palmitoyl-2-oleoyl-3-sn-phosphatidylcholine", "L-Palmitoyloleoylphosphatidylcholine", "L-1-Palmitoyl-2-oleoylphosphatidylcholine", "1-Palmitoyl-2-oleoyl-phosphocholine", "1-Palmitoyl-2-oleoyl-sn-glycero-3-phosphocholine", "1-Palmitoy-2-oleoyl-sn-glycero-3-phosphocholine", "1-Paimitoyl-2-oleoyl-sn-glycero-3-phosphocholine"], "SMILES": "C(OC(CCCCCCCC=CCCCCCCCC)=O)(COP(OCC[N+](C)(C)C)(=O)[O-])COC(CCCCCCCCCCCCCCC)=O", "physical_data": {"Molecular Weight": "", "Molecular Formula": "C42H82NO8P", "Melting Point": "-3 \u00b0C"}}