{"cas_no": "26864-56-2", "cn_name": "\u4e94\u6c1f\u5229\u591a", "en_name": ["Penfluridol", "4-Piperidinol, 1-[4,4-bis(4-fluorophenyl)butyl]-4-[4-chloro-3-(trifluoromethyl)phenyl]-", "4-Piperidinol, 1-[4,4-bis(p-fluorophenyl)butyl]-4-(4-chloro-\u03b1,\u03b1,\u03b1-trifluoro-m-tolyl)-", "1-[4,4-Bis(4-fluorophenyl)butyl]-4-[4-chloro-3-(trifluoromethyl)phenyl]-4-piperidinol", "Penfluridol", "1-[4,4-Bis(p-fluorophenyl)butyl]-4-(4-chloro-\u03b1,\u03b1,\u03b1-trifluoro-m-tolyl)-4-piperidinol", "R 16341", "McN-JR 16341", "Semap"], "SMILES": "OC1(C2=CC(C(F)(F)F)=C(Cl)C=C2)CCN(CCCC(C3=CC=C(F)C=C3)C4=CC=C(F)C=C4)CC1", "physical_data": {"Molecular Weight": "523.97", "Molecular Formula": "C28H27ClF5NO", "Melting Point": "106 \u00b0C"}}