{"cas_no": "2686-99-9", "cn_name": "3,4,5-\u4e09\u7532\u5a01", "en_name": ["3,4,5-Trimethacarb", "Phenol, 3,4,5-trimethyl-, 1-(N-methylcarbamate)", "Carbamic acid, methyl-, 3,4,5-trimethylphenyl ester", "Phenol, 3,4,5-trimethyl-, methylcarbamate", "SD 8530", "Shell 8530", "Shell SD 8530", "3,4,5-Trimethylphenyl methylcarbamate", "3,4,5-Trimethylphenyl N-methylcarbamate", "3,4,5-Landrin", "Landrin A", "3,4,5-Trimethacarb", "Landrin 1"], "SMILES": "O(C(NC)=O)C1=CC(C)=C(C)C(C)=C1", "physical_data": {"Molecular Weight": "193.24", "Molecular Formula": "C11H15NO2", "Melting Point": "109 \u00b0C"}}