{"cas_no": "2687-12-9", "cn_name": "\u8089\u6842\u57fa\u6c2f", "en_name": ["Cinnamyl chloride", "Benzene, (3-chloro-1-propen-1-yl)-", "Benzene, (3-chloropropenyl)-", "Benzene, (3-chloro-1-propenyl)-", "Benzene, (\u03b3-chloropropenyl)-", "(3-Chloro-1-propen-1-yl)benzene", "Cinnamyl chloride", "1-Propene, 3-chloro-1-phenyl-", "1-Chloro-3-phenyl-2-propene", "3-Chloro-1-phenylpropene", "3-Phenyl-2-propenyl chloride", "\u03b2-Chloromethylstyrene", "3-Phenyl-2-propen-1-yl chloride", "(3-Chloro-1-propenyl)benzene", "3-Chloro-1-phenyl-1-propene", "3-Phenylallyl chloride", "NSC 5599", "3-Chloroprop-1-en-1-ylbenzene"], "SMILES": "C(=CCCl)C1=CC=CC=C1", "physical_data": {"Molecular Weight": "152.62", "Molecular Formula": "C9H9Cl", "Boiling Point": "121-122 \u00b0C @ Press: 14 Torr", "Melting Point": "35 \u00b0C"}}