{"cas_no": "2687-25-4", "cn_name": "2,3-\u4e8c\u6c28\u57fa\u7532\u82ef", "en_name": ["2,3-Diaminotoluene", "1,2-Benzenediamine, 3-methyl-", "Toluene-2,3-diamine", "3-Methyl-1,2-benzenediamine", "2,3-Diaminotoluene", "2,3-Tolylenediamine", "3-Methyl-o-phenylenediamine", "3-Methyl-1,2-phenylenediamine", "1,2-Diamino-3-methylbenzene", "2,3-Toluylenediamine", "1-Methyl-2,3-phenylenediamine", "2-Amino-3-methylaniline", "3-Methyl-1,2-diaminobenzene", "2-Methyl-1,6-benzenediamine"], "SMILES": "NC1=C(C)C=CC=C1N", "physical_data": {"Molecular Weight": "122.17", "Molecular Formula": "C7H10N2", "Boiling Point": "255 \u00b0C", "Melting Point": "63-64 \u00b0C"}}