{"cas_no": "2687-96-9", "cn_name": "N-\u5341\u4e8c\u70f7\u57fa\u5421\u54af\u70f7\u916e", "en_name": ["N-Dodecyl-2-pyrrolidone", "2-Pyrrolidinone, 1-dodecyl-", "1-Dodecyl-2-pyrrolidinone", "N-Dodecyl-2-pyrrolidinone", "N-Lauryl-2-pyrrolidinone", "1-Dodecyl-2-pyrrolidone", "N-Dodecyl-2-pyrrolidone", "N-Lauryl-2-pyrrolidone", "1-Dodecylpyrrolidone", "N-Dodecylpyrrolidone", "Surfadone LP 300", "1-Lauryl-2-pyrrolidone", "N-Dodecylpyrrolidinone", "AgsolEx 12", "Laurylpyrrolidone", "Flexidone 300"], "SMILES": "C(CCCCCCCCCCC)N1C(=O)CCC1", "physical_data": {"Molecular Weight": "253.42", "Molecular Formula": "C16H31NO", "Boiling Point": "202-205 \u00b0C", "Melting Point": "&lt;4 \u00b0C"}}