{"cas_no": "2687-43-6", "cn_name": "\u82c4\u6c27\u57fa\u80fa\u76d0\u9178\u76d0", "en_name": ["O-Benzylhydroxylamine hydrochloride", "Hydroxylamine, O-(phenylmethyl)-, hydrochloride (1:1)", "Hydroxylamine, O-benzyl-, hydrochloride", "Hydroxylamine, O-(phenylmethyl)-, hydrochloride", "Benzyloxyamine, hydrochloride", "O-Benzylhydroxylamine hydrochloride", "Benzyloxyammonium chloride", "O-(Phenylmethyl)hydroxylamine hydrochloride", "Phenylmethoxyamine hydrochloride", "Hydroxylamine O-benzyl ether hydrochloride", "[(Aminooxy)methyl]benzene hydrochloride"], "SMILES": "C(ON)C1=CC=CC=C1.Cl", "physical_data": {"Molecular Weight": "", "Molecular Formula": "C7H9NO.ClH", "Melting Point": "230-235 \u00b0C"}}