{"cas_no": "2687-91-4", "cn_name": "N-\u4e59\u57fa-2-\u5421\u54af\u70f7\u916e", "en_name": ["N-Ethyl-2-pyrrolidone", "2-Pyrrolidinone, 1-ethyl-", "1-Ethyl-2-pyrrolidinone", "1-Ethyl-2-pyrrolidone", "N-Ethyl-2-pyrrolidone", "N-Ethylpyrrolidone", "N-Ethyl-2-pyrrolidinone", "N-Ethylpyrrolidinone", "N-Ethyl-\u03b1-pyrrolidinone", "1-Ethylazacyclopentan-2-one", "N-Ethylbutyrolactam", "N-Ethyl-\u03b3-butyrolactam", "NEP", "NEP 100", "E 0358"], "SMILES": "C(C)N1C(=O)CCC1", "physical_data": {"Molecular Weight": "113.16", "Molecular Formula": "C6H11NO", "Boiling Point": "211-214 \u00b0C", "Melting Point": "87.5-88.5 \u00b0C"}}