{"cas_no": "2687-94-7", "cn_name": "N-\u8f9b\u57fa\u5421\u54af\u70f7\u916e", "en_name": ["N-Octylpyrrolidone", "2-Pyrrolidinone, 1-octyl-", "1-Octyl-2-pyrrolidinone", "N-Octylpyrrolidone", "N-Octyl-2-pyrrolidone", "Surfadone LP 100", "N-Octylpyrrolidinone", "N-Octyl-2-pyrrolidinone", "AgsolEx 8", "N-Octylbutyrolactam", "1-Octyl-2-pyrrolidone", "ISP-LP 100", "N-n-Octyl-\u03b1-pyrrolidone", "LP 100", "N-n-Octyl-2-pyrrolidone", "Flexidone 100"], "SMILES": "C(CCCCCCC)N1C(=O)CCC1", "physical_data": {"Molecular Weight": "197.32", "Molecular Formula": "C12H23NO", "Boiling Point": "170-172 \u00b0C @ Press: 15 Torr", "Melting Point": "-25 \u00b0C", "Density": "0.92 g/cm\u00b3"}}