{"cas_no": "2687-27-6", "cn_name": "1,3-\u53cc[2-(4-\u6c28\u57fa\u82ef\u57fa)-2-\u4e19\u57fa]\u82ef", "en_name": ["4,4\u2032-[1,3-Phenylenebis(1-methylethylidene)]bis[benzenamine]", "Benzenamine, 4,4\u2032-[1,3-phenylenebis(1-methylethylidene)]bis-", "Cumidine, \u03b1,\u03b1\u2032-m-phenylenedi-", "4,4\u2032-[1,3-Phenylenebis(1-methylethylidene)]bis[benzenamine]", "1,3-Bis(p-aminocumyl)benzene", "1,3-Bis[2-(4-aminophenyl)-2-propyl]benzene", "1,3-Bis[1-(4-aminophenyl)-1-methylethyl]benzene", "Bis A-M", "4,4\u2032-[1,3-Phenylenebis(1-methylethylidene)bisaniline]", "4,4\u2032-(1,3-Phenylenediisopropylidene)bisaniline", "4,4\u2032-(m-Phenylenediisopropylidene)bisaniline", "\u03b1,\u03b1\u2032-Bis(4-aminophenyl)-1,3-diisopropylbenzene", "4,4\u2032-(1,3-Phenylenebis(propane-2,2-diyl))dianiline", "Bisaniline M", "4,4\u2032-(1,3-Phenylenediisopropylidene)diphenylamine", "1,3-Bis[2-(4-aminophenyl)propan-2-yl]benzene"], "SMILES": "C(C)(C)(C1=CC(C(C)(C)C2=CC=C(N)C=C2)=CC=C1)C3=CC=C(N)C=C3", "physical_data": {"Molecular Weight": "344.49", "Molecular Formula": "C24H28N2", "Melting Point": "108-110 \u00b0C"}}