{"cas_no": "2688-84-8", "cn_name": "2-\u6c28\u57fa\u4e8c\u82ef\u919a", "en_name": ["2-Phenoxyaniline", "Benzenamine, 2-phenoxy-", "Aniline, o-phenoxy-", "2-Phenoxybenzenamine", "2-Aminodiphenyl ether", "o-Phenoxyaniline", "o-Aminophenyl phenyl ether", "2-Phenoxyaniline", "o-Aminodiphenyl ether", "NSC 39655", "2-Phenoxyphenylamine", "2-Aminophenyl phenyl ether", "2-Phenoxylaniline", "2-Phenoxaniline"], "SMILES": "O(C1=C(N)C=CC=C1)C2=CC=CC=C2", "physical_data": {"Molecular Weight": "185.22", "Molecular Formula": "C12H11NO", "Boiling Point": "308 \u00b0C", "Melting Point": "45.8 \u00b0C"}}