{"cas_no": "2688-48-4", "cn_name": "2,5-\u4e8c\u7f9f\u57fa\u82ef\u57fa\u4e59\u9178GAMMA\u5185\u916f", "en_name": ["Homogentisic acid lactone", "2(3H)-Benzofuranone, 5-hydroxy-", "Acetic acid, (2,5-dihydroxyphenyl)-, \u03b3-lactone", "5-Hydroxy-2(3H)-benzofuranone", "Homogentisic acid lactone", "Homogentisic lactone", "2,5-Dihydroxyphenylacetic acid lactone", "5-Hydroxy-2-coumaranone", "2,5-Dihydroxyphenylacetic acid \u03b3-lactone", "NSC 61996", "5-Hydroxy-3H-benzofuran-2-one", "Homogentisic acid \u03b3-lactone"], "SMILES": "O=C1OC=2C(C1)=CC(O)=CC2", "physical_data": {"Molecular Weight": "150.13", "Molecular Formula": "C8H6O3", "Melting Point": "189-190 \u00b0C"}}