{"cas_no": "2689-68-1", "cn_name": "4-\u6c27\u56db\u6c22\u567b\u915a-3-\u7fa7\u9178\u7532\u916f", "en_name": ["3-Thiophenecarboxylic acid, tetrahydro-4-oxo-, methyl ester", "3-Thiophenecarboxylic acid, tetrahydro-4-oxo-, methyl ester", "4-Carbomethoxy-3-thiophanone", "Methyl tetrahydro-4-oxo-3-thiophenecarboxylate", "Methyl 4-oxo-2,3,4,5-tetrahydrothiophene-3-carboxylate", "Tetrahydro-4-oxo-3-thiophenecarboxylic acid methyl ester", "4-Carbomethoxy-2,3,4,5-tetrahydro-3-thiophenone", "Methyl 4-oxotetrahydrothiophene-3-carboxylate", "Methyl 4-oxotetrahydrothienyl-3-carboxylate", "NSC 127560", "4-Oxotetrahydrothiophene-3-carboxylic acid methyl ester"], "SMILES": "C(OC)(=O)C1C(=O)CSC1", "physical_data": {"Molecular Weight": "160.19", "Molecular Formula": "C6H8O3S", "Boiling Point": "128.5-129.5 \u00b0C @ Press: 20 Torr", "Melting Point": "37-38 \u00b0C"}}