{"cas_no": "2689-69-2", "cn_name": "3-\u6c27\u57fa\u56db\u6c22\u567b\u5429-2-\u7fa7\u9178\u7532\u916f", "en_name": ["2-Thiophenecarboxylic acid, tetrahydro-3-oxo-, methyl ester", "2-Thiophenecarboxylic acid, tetrahydro-3-oxo-, methyl ester", "Methyl tetrahydro-3-oxo-2-thiophenecarboxylate", "Methyl 3-oxo-2,3,4,5-tetrahydrothiophene-2-carboxylate", "Methyl 3-oxotetrahydrothiophene-2-carboxylate"], "SMILES": "C(OC)(=O)C1C(=O)CCS1", "physical_data": {"Molecular Weight": "160.19", "Molecular Formula": "C6H8O3S", "Boiling Point": "122-124 \u00b0C @ Press: 2.4 Torr"}}