{"cas_no": "2689-39-6", "cn_name": "4-(2-\u6c1f-4-\u785d\u57fa\u82ef\u57fa)\u5417\u5549", "en_name": ["4-(2-Fluoro-4-nitrophenyl)morpholine", "Morpholine, 4-(2-fluoro-4-nitrophenyl)-", "4-(2-Fluoro-4-nitrophenyl)morpholine", "N-(2-Fluoro-4-nitrophenyl)morpholine", "3-Fluoro-4-morpholine-4-yl-nitrobenzene", "3-Fluoro-4-morpholinonitrobenzene", "3-Fluoro-4-morpholin-4-yl-1-nitrobenzene"], "SMILES": "FC1=C(C=CC(N(=O)=O)=C1)N2CCOCC2", "physical_data": {"Molecular Weight": "226.20", "Molecular Formula": "C10H11FN2O3", "Melting Point": "112-113 \u00b0C"}}