{"cas_no": "2689-63-6", "cn_name": "2-(\u4e09\u82ef\u57fa\u78f7\ue24d\u57fa)\u82ef\u4e19\u916e\u6eb4", "en_name": ["Phosphonium, (1-methyl-2-oxo-2-phenylethyl)triphenyl-, bromide (1:1)", "Phosphonium, (1-methyl-2-oxo-2-phenylethyl)triphenyl-, bromide (1:1)", "Phosphonium, (\u03b1-methylphenacyl)triphenyl-, bromide", "Phosphonium, (1-methyl-2-oxo-2-phenylethyl)triphenyl-, bromide", "(\u03b1-Methylphenacyl)triphenylphosphonium bromide"], "SMILES": "[P+](C(C(=O)C1=CC=CC=C1)C)(C2=CC=CC=C2)(C3=CC=CC=C3)C4=CC=CC=C4.[Br-]", "physical_data": {"Molecular Weight": "", "Molecular Formula": "C27H24OP.Br", "Melting Point": "245-245.5 \u00b0C"}}