{"cas_no": "26893-72-1", "cn_name": "6-\u4e59\u9170\u6c28\u57fa\u5421\u5576\u7fa7\u9178", "en_name": ["6-Acetamidopicolinic acid", "2-Pyridinecarboxylic acid, 6-(acetylamino)-", "Picolinic acid, 6-acetamido-", "6-(Acetylamino)-2-pyridinecarboxylic acid", "6-Acetamido-2-pyridinecarboxylic acid", "6-Acetamidopicolinic acid", "6-(Acetylamino)pyridine-2-carboxylic acid", "2-(Acetylamino)-pyridine-6-carboxylic acid"], "SMILES": "N(C(C)=O)C=1N=C(C(O)=O)C=CC1", "physical_data": {"Molecular Weight": "180.16", "Molecular Formula": "C8H8N2O3", "Melting Point": "227-229 \u00b0C"}}