{"cas_no": "26898-17-9", "cn_name": "\u4e8c(\u82ef\u57fa\u7532\u57fa)\u7532\u82ef", "en_name": ["Methylbis(phenylmethyl)benzene", "Benzene, methylbis(phenylmethyl)-", "Toluene, ar,ar-dibenzyl-", "Methylbis(phenylmethyl)benzene", "Bisbenzyltoluene", "Dibenzyltoluene", "Methyldibenzylbenzene", "Neo-SK Oil 1400", "Marlotherm S", "Jarylec EXP 3", "Therm-S 1000", "Barrel Therm 400"], "SMILES": "", "physical_data": {"Molecular Weight": "", "Molecular Formula": "C21H20", "Boiling Point": "225-230 \u00b0C @ Press: 10 Torr", "Density": "1.0482 g/cm\u00b3 @ Temp: 20 \u00b0C"}}