{"cas_no": "269078-75-3", "cn_name": "FMOC-(R)-4-\u6c28\u57fa-6-\u7532\u57fa\u5e9a\u9178", "en_name": ["(4R)-4-[[(9H-Fluoren-9-ylmethoxy)carbonyl]amino]-6-methylheptanoic acid", "Heptanoic acid, 4-[[(9H-fluoren-9-ylmethoxy)carbonyl]amino]-6-methyl-, (4R)-", "(4R)-4-[[(9H-Fluoren-9-ylmethoxy)carbonyl]amino]-6-methylheptanoic acid", "(R)-4-((((9H-Fluoren-9-yl)methoxy)carbonyl)amino)-6-methylheptanoic acid"], "SMILES": "C(OC(NC(CCC(O)=O)CC(C)C)=O)C1C=2C(C=3C1=CC=CC3)=CC=CC2", "physical_data": {"Molecular Weight": "381.46", "Molecular Formula": "C23H27NO4", "Melting Point": "130-132 \u00b0C"}}