{"cas_no": "2690-08-6", "cn_name": "1,1\u2019-\u786b\u4ee3\u4e8c\u8f9b\u70f7", "en_name": ["Dioctyl sulfide", "Octane, 1,1\u2032-thiobis-", "Octyl sulfide", "1,1\u2032-Thiobis[octane]", "Dioctyl sulfide", "Dioctyl thioether", "Di-n-octyl sulfide", "Bis(1-octyl) sulfide", "Di-n-octyl thioether", "1-(1-Octylthio)octane", "NSC 65459", "1-Octylsulfanyloctane"], "SMILES": "S(CCCCCCCC)CCCCCCCC", "physical_data": {"Molecular Weight": "258.51", "Molecular Formula": "C16H34S", "Boiling Point": "180 \u00b0C @ Press: 10 Torr", "Density": "0.8442 g/cm\u00b3 @ Temp: 20 \u00b0C"}}