{"cas_no": "269055-15-4", "cn_name": "\u4f9d\u66f2\u97e6\u6797", "en_name": ["Etravirine", "Benzonitrile, 4-[[6-amino-5-bromo-2-[(4-cyanophenyl)amino]-4-pyrimidinyl]oxy]-3,5-dimethyl-", "4-[[6-Amino-5-bromo-2-[(4-cyanophenyl)amino]-4-pyrimidinyl]oxy]-3,5-dimethylbenzonitrile", "TMC 125", "Etravirine", "R 165335", "Intelence"], "SMILES": "O(C1=NC(NC2=CC=C(C#N)C=C2)=NC(N)=C1Br)C3=C(C)C=C(C#N)C=C3C", "physical_data": {"Molecular Weight": "435.28", "Molecular Formula": "C20H15BrN6O", "Melting Point": "255-257 \u00b0C", "Density": "1.439 g/cm\u00b3"}}