{"cas_no": "2691-41-0", "cn_name": "\u5965\u514b\u6258\u4eca", "en_name": ["Octogen", "1,3,5,7-Tetrazocine, octahydro-1,3,5,7-tetranitro-", "Octahydro-1,3,5,7-tetranitro-1,3,5,7-tetrazocine", "Cyclotetramethylenetetranitramine", "HMX", "\u03b2-HMX", "\u03b3-Octahydro-1,3,5,7-tetranitro-1,3,5,7-tetraazocine", "Octogen", "1,3,5,7-Tetranitro-1,3,5,7-tetraazacyclooctane", "Tetramethylenetetranitramine", "Octahydro-1,3,5,7-tetranitro-s-tetrazocine", "Oktogen", "LX 14-0", "HW 4", "Homocyclonite", "1,3,5,7-Tetranitro-1,3,5,7-tetrazocane", "HMX 2", "PBXK-C 1203", "IRX 21", "SW 21", "JO 9159", "PBXN 9", "PBXW 11", "PBXC 121", "PBXC 126", "PBXC 129", "ORA 86B", "Rowanex 2000", "PBXW 128", "PBXN 110", "PBXW 113", "PBXN 101", "PBXN 5", "JO-X", "Renowex 1001", "Rowanex 3000", "LX 14", "Okfol", "Oktoflen", "Octagen", "PBXN 112", "EDC 24", "PBXC 119", "1,3,5,7-Tetranitroperhydro-1,3,5,7-tetrazocine", "OF 8", "JO 11C"], "SMILES": "N(=O)(=O)N1CN(N(=O)=O)CN(N(=O)=O)CN(N(=O)=O)C1", "physical_data": {"Molecular Weight": "296.16", "Molecular Formula": "C4H8N8O8", "Melting Point": "278 \u00b0C", "Density": "1.78 g/cm\u00b3"}}