{"cas_no": "26921-17-5", "cn_name": "(S)-\u9a6c\u6765\u9178\u567b\u5417\u6d1b\u5c14", "en_name": ["Timolol maleate", "2-Propanol, 1-[(1,1-dimethylethyl)amino]-3-[[4-(4-morpholinyl)-1,2,5-thiadiazol-3-yl]oxy]-, (2S)-, (2Z)-2-butenedioate (1:1)", "2-Propanol, 1-(tert-butylamino)-3-[(4-morpholino-1,2,5-thiadiazol-3-yl)oxy]-, (-)-, maleate (1:1) (salt)", "2-Propanol, 1-[(1,1-dimethylethyl)amino]-3-[[4-(4-morpholinyl)-1,2,5-thiadiazol-3-yl]oxy]-, (S)-, (Z)-2-butenedioate (1:1) (salt)", "2-Propanol, 1-[(1,1-dimethylethyl)amino]-3-[[4-(4-morpholinyl)-1,2,5-thiadiazol-3-yl]oxy]-, (2S)-, (2Z)-2-butenedioate (1:1) (salt)", "1,2,5-Thiadiazole, 2-propanol deriv.", "MK 950", "Timolol maleate", "l-Timolol maleate", "Timoptol", "Timacor", "Timolol hydrogen maleate", "Timoptic", "(-)-Timolol maleate", "Betime", "(S)-Timolol hydrogen maleate", "(S)-(-)-Timolol maleate", "L-Timolol maleate", "Optimol", "Timorom", "Rysmon TG", "WP 934", "Blocadren", "Blocanol", "Aquanil", "Tenopt", "Proflax", "Betim", "Temserin", "Timacar", "Timoptol XE", "Istalol", "Timolol LA", "Timabak", "Timomann", "Timolet", "(S)-Timolol maleate", "Apimol", "Ophtamolol", "Timohexal", "Ocumol", "Timoftol", "Timoptol-LA", "Isralol", "Timolast"], "SMILES": "C(=CC(O)=O)C(O)=O.O(CC(CNC(C)(C)C)O)C=1C(=NSN1)N2CCOCC2", "physical_data": {"Molecular Weight": "", "Molecular Formula": "C13H24N4O3S.C4H4O4", "Melting Point": "201.5-202.5 \u00b0C"}}