{"cas_no": "2693-46-1", "cn_name": "3-\u6c28\u57fa\u8367\u84bd", "en_name": ["3-Aminofluoranthene", "3-Fluoranthenamine", "3-Aminofluoranthene", "4-Aminofluoranthene", "4-Fluoranthenamine", "NSC 57469"], "SMILES": "NC1=C2C3=C(C=4C(C3=CC=C2)=CC=CC4)C=C1", "physical_data": {"Molecular Weight": "217.27", "Molecular Formula": "C16H11N", "Boiling Point": "280-290 \u00b0C @ Press: 10 Torr", "Melting Point": "115-117 \u00b0C"}}