{"cas_no": "2694-54-4", "cn_name": "1,2,4-\u82ef\u4e09\u7532\u9178\u4e09\u70ef\u4e19\u916f", "en_name": ["Triallyl trimellitate", "1,2,4-Benzenetricarboxylic acid, 1,2,4-tri-2-propen-1-yl ester", "1,2,4-Benzenetricarboxylic acid, triallyl ester", "1,2,4-Benzenetricarboxylic acid, tri-2-propenyl ester", "Triallyl trimellitate", "Trimellitic acid triallyl ester", "TRIAM 705", "1,2,4-Triallyl trimellitate", "TRIAM 750", "Triallyl 1,2,4-benzenetricarboxylate"], "SMILES": "C(OCC=C)(=O)C1=C(C(OCC=C)=O)C=CC(C(OCC=C)=O)=C1", "physical_data": {"Molecular Weight": "330.33", "Molecular Formula": "C18H18O6", "Boiling Point": "109-116 \u00b0C @ Press: 4.5 Torr", "Density": "1.1531 g/cm\u00b3 @ Temp: 20 \u00b0C"}}