{"cas_no": "269410-24-4", "cn_name": "5-\u5432\u54da\u787c\u9178\u9891\u54ea\u9187\u916f", "en_name": ["5-(4,4,5,5-Tetramethyl-1,3,2-dioxaborolan-2-yl)-1H-indole", "1H-Indole, 5-(4,4,5,5-tetramethyl-1,3,2-dioxaborolan-2-yl)-", "5-(4,4,5,5-Tetramethyl-1,3,2-dioxaborolan-2-yl)-1H-indole", "5-(4,4,5,5-Tetramethyl-1,3,2-dioxaborolan-2-yl)indole", "2-(1H-Indol-5-yl)-4,4,5,5-tetramethyl-1,3,2-dioxaborolane", "5-Indolylboronic acid pinacol ester", "Indole-5-boronic acid pinacol ester"], "SMILES": "CC1(C)OB(OC1(C)C)C=2C=C3C(=CC2)NC=C3", "physical_data": {"Molecular Weight": "243.11", "Molecular Formula": "C14H18BNO2", "Melting Point": "91-92 \u00b0C"}}