{"cas_no": "269411-71-4", "cn_name": "3-\u6c28\u57fa-5-\u7532\u6c27\u57fa\u82ef\u8148", "en_name": ["3-Amino-5-methoxybenzonitrile", "Benzonitrile, 3-amino-5-methoxy-", "3-Amino-5-methoxybenzonitrile", "3-Cyano-5-methoxyaniline"], "SMILES": "C(#N)C1=CC(OC)=CC(N)=C1", "physical_data": {"Molecular Weight": "148.16", "Molecular Formula": "C8H8N2O", "Melting Point": "81-85 \u00b0C"}}