{"cas_no": "26944-48-9", "cn_name": "\u683c\u5217\u6ce2\u8132", "en_name": ["Glibornuride", "Benzenesulfonamide, N-[[[(1S,2S,3R,4R)-3-hydroxy-4,7,7-trimethylbicyclo[2.2.1]hept-2-yl]amino]carbonyl]-4-methyl-", "Urea, 1-(2-hydroxy-3-bornyl)-3-(p-tolylsulfonyl)-, (1R,2R,3S,4S)-", "Benzenesulfonamide, N-[[(3-hydroxy-4,7,7-trimethylbicyclo[2.2.1]hept-2-yl)amino]carbonyl]-4-methyl-, [1S-(endo,endo)]-", "N-[[[(1S,2S,3R,4R)-3-Hydroxy-4,7,7-trimethylbicyclo[2.2.1]hept-2-yl]amino]carbonyl]-4-methylbenzenesulfonamide", "Glibornuride", "endo, endo-1-[(1R)-(2-Hydroxy-3-bornyl)]-3-(p-tolylsulfonyl)urea", "Ro 6-4563", "Ro 6-4563/8", "endo,endo-1-(2-Hydroxy-3-bornyl)-3-(p-tolylsulfonyl)urea", "Glutril", "Gluboride"], "SMILES": "CC12C(C)(C)C(C(NC(NS(=O)(=O)C3=CC=C(C)C=C3)=O)C1O)CC2", "physical_data": {"Molecular Weight": "366.48", "Molecular Formula": "C18H26N2O4S", "Melting Point": "192-195 \u00b0C"}}