{"cas_no": "269410-07-3", "cn_name": "1,2-\u53cc\u82ef\u4e8c\u787c\u9178\u9891\u90a3\u9187\u916f", "en_name": ["2,2\u2032-(1,2-Phenylene)bis[4,4,5,5-tetramethyl-1,3,2-dioxaborolane]", "1,3,2-Dioxaborolane, 2,2\u2032-(1,2-phenylene)bis[4,4,5,5-tetramethyl-", "2,2\u2032-(1,2-Phenylene)bis[4,4,5,5-tetramethyl-1,3,2-dioxaborolane]", "1,2-Bis(4,4,5,5-tetramethyl-1,3,2-dioxaborolan-2-yl)benzene"], "SMILES": "CC1(C)OB(OC1(C)C)C2=C(C=CC=C2)B3OC(C)(C)C(C)(C)O3", "physical_data": {"Molecular Weight": "330.03", "Molecular Formula": "C18H28B2O4", "Melting Point": "107.1-107.6 \u00b0C"}}