{"cas_no": "269410-10-8", "cn_name": "2-\u7532\u6c27\u57fa-5-\u7532\u6c27\u7fb0\u57fa\u82ef\u787c\u9178\u9891\u90a3\u9187\u916f", "en_name": ["Methyl 4-methoxy-3-(4,4,5,5-tetramethyl-1,3,2-dioxaborolan-2-yl)benzoate", "Benzoic acid, 4-methoxy-3-(4,4,5,5-tetramethyl-1,3,2-dioxaborolan-2-yl)-, methyl ester", "Methyl 4-methoxy-3-(4,4,5,5-tetramethyl-1,3,2-dioxaborolan-2-yl)benzoate"], "SMILES": "O(C)C1=C(B2OC(C)(C)C(C)(C)O2)C=C(C(OC)=O)C=C1", "physical_data": {"Molecular Weight": "292.14", "Molecular Formula": "C15H21BO5", "Melting Point": "143-144 \u00b0C"}}