{"cas_no": "2695-48-9", "cn_name": "8-\u6eb4-1-\u8f9b\u70ef", "en_name": ["8-Bromo-1-octene", "1-Octene, 8-bromo-", "Octene, 8-bromo-", "8-Bromo-1-octene", "7-Octen-1-yl bromide", "1-Bromo-7-octene", "7-Octenyl bromide", "8-Bromooctene"], "SMILES": "C(CCCBr)CCC=C", "physical_data": {"Molecular Weight": "191.11", "Molecular Formula": "C8H15Br", "Boiling Point": "94-97 \u00b0C"}}