{"cas_no": "2695-37-6", "cn_name": "\u82ef\u4e59\u70ef\u78fa\u9178\u94a0", "en_name": ["Sodium 4-styrenesulfonate", "Benzenesulfonic acid, 4-ethenyl-, sodium salt (1:1)", "Benzenesulfonic acid, p-vinyl-, sodium salt", "Benzenesulfonic acid, 4-ethenyl-, sodium salt", "Sodium p-styrenesulfonate", "Sodium 4-vinylbenzenesulfonate", "Sodium 4-styrenesulfonate", "Spinomar NaSS", "Styrene-4-sulfonic acid sodium salt", "Sodium p-vinylbenzenesulfonate", "UNASS", "p-Vinylphenylsulfonic acid sodium salt", "MS 88", "p-Vinylbenzene sulfonic sodium salt", "p-Styrenesulfonic acid sodium salt", "Sodium (4-vinylphenyl)sulfonate"], "SMILES": "S(=O)(=O)(O)C1=CC=C(C=C)C=C1.[Na]", "physical_data": {"Molecular Weight": "", "Molecular Formula": "C8H8O3S.Na", "Melting Point": "300 \u00b0C"}}