{"cas_no": "2695-47-8", "cn_name": "6-\u6eb4-1-\u5df1\u70ef", "en_name": ["6-Bromo-1-hexene", "1-Hexene, 6-bromo-", "6-Bromo-1-hexene", "1-Bromo-5-hexene", "5-Hexenyl bromide", "6-Bromohexene", "5-Hexen-1-yl bromide"], "SMILES": "C(CCBr)CC=C", "physical_data": {"Molecular Weight": "163.06", "Molecular Formula": "C6H11Br", "Boiling Point": "151 \u00b0C @ Press: 712 Torr", "Density": "1.2169 g/cm\u00b3 @ Temp: 20 \u00b0C"}}