{"cas_no": "26952-21-6", "cn_name": "\u5f02\u8f9b\u9187", "en_name": ["Isooctanol", "Isooctanol", "Isooctyl alcohol", "Exxal 8"], "SMILES": "", "physical_data": {"Molecular Weight": "", "Molecular Formula": "C8H18O", "Boiling Point": "186 \u00b0C @ Press: 800 Torr", "Melting Point": "&lt;100 \u00b0C", "Density": "0.832 g/cm\u00b3 @ Temp: 20 \u00b0C"}}