{"cas_no": "26964-24-9", "cn_name": "5-\u7532\u6c27\u57fa\u9ec4\u916e", "en_name": ["6-Methoxyflavone", "4H-1-Benzopyran-4-one, 6-methoxy-2-phenyl-", "Flavone, 6-methoxy-", "6-Methoxy-2-phenyl-4H-1-benzopyran-4-one", "6-Methoxyflavone", "6-Methoxy-2-phenylchromone", "6-Methoxy-2-phenyl-4H-chromen-4-one"], "SMILES": "O=C1C=2C(OC(=C1)C3=CC=CC=C3)=CC=C(OC)C2", "physical_data": {"Molecular Weight": "252.26", "Molecular Formula": "C16H12O3", "Melting Point": "154 \u00b0C"}}