{"cas_no": "2696-84-6", "cn_name": "\u5bf9\u4e19\u57fa\u82ef\u80fa", "en_name": ["4-Propylaniline", "Benzenamine, 4-propyl-", "Aniline, p-propyl-", "4-Propylbenzenamine", "p-n-Propylaniline", "p-Propylaniline", "4-n-Propylaniline", "4-Propylaniline", "p-Aminopropylbenzene", "p-Propylaminobenzene", "(4-Propylphenyl)amine", "NSC 13208"], "SMILES": "C(CC)C1=CC=C(N)C=C1", "physical_data": {"Molecular Weight": "135.21", "Molecular Formula": "C9H13N", "Boiling Point": "225 \u00b0C", "Melting Point": "114.0-114.5 \u00b0C", "Density": "0.940 g/cm\u00b3 @ Temp: 20 \u00b0C"}}