{"cas_no": "26961-27-3", "cn_name": "2-\u6c28\u57fa-4,5-\u4e8c\u7532\u6c27\u57fa\u82ef\u8148", "en_name": ["2-Amino-4,5-dimethoxybenzonitrile", "Benzonitrile, 2-amino-4,5-dimethoxy-", "Veratronitrile, 6-amino-", "2-Amino-4,5-dimethoxybenzonitrile", "6-Aminoveratronitrile", "6-Amino-3,4-dimethoxybenzonitrile", "2-Cyano-4,5-dimethoxyaniline", "4,5-Dimethoxyanthranilonitrile", "3,4-Dimethoxy-6-cyanoaniline", "4,5-Dimethoxy-2-aminobenzonitrile"], "SMILES": "O(C)C1=C(OC)C=C(N)C(C#N)=C1", "physical_data": {"Molecular Weight": "178.19", "Molecular Formula": "C9H10N2O2", "Melting Point": "92-93.5 \u00b0C"}}