{"cas_no": "2696-92-6", "cn_name": "\u4e9a\u785d\u9170\u6c2f", "en_name": ["Nitrosyl chloride", "Nitrosyl chloride ((NO)Cl)", "Nitrosyl chloride", "Nitrogen oxychloride", "Nitrogen oxide chloride (NOCl)", "Nitrogen oxychloride (NOCl)", "Nitrosonium chloride", "Nitrosochloride", "Chlorine nitride oxide (ClNO)", "Nitrogen chloride oxide (NClO)"], "SMILES": "N(Cl)=O", "physical_data": {"Molecular Weight": "65.46", "Molecular Formula": "ClNO", "Boiling Point": "-5.5 \u00b0C", "Melting Point": "-64.5 \u00b0C"}}