{"cas_no": "26967-76-0", "cn_name": "\u4e09\u5f02\u4e19\u82ef\u57fa\u78f7\u9178\u916f", "en_name": ["Tris(isopropylphenyl) phosphate", "Phenol, (1-methylethyl)-, phosphate (3:1)", "Tris(isopropylphenyl) phosphate", "Tri(isopropylphenyl) phosphate", "Reofos 95", "Triisopropyl benzene phosphate"], "SMILES": "", "physical_data": {"Molecular Weight": "", "Molecular Formula": "C27H33O4P", "Boiling Point": "220-270 \u00b0C @ Press: 4.0 Torr", "Melting Point": "-25 \u00b0C", "Density": "1.159 g/cm\u00b3 @ Temp: 20 \u00b0C"}}