{"cas_no": "2696-85-7", "cn_name": "2-N-\u4e01\u57fa\u82ef\u80fa", "en_name": ["2-Butylaniline", "Benzenamine, 2-butyl-", "Aniline, o-butyl-", "2-Butylbenzenamine", "2-Butylaniline", "o-Aminobutylbenzene"], "SMILES": "C(CCC)C1=C(N)C=CC=C1", "physical_data": {"Molecular Weight": "149.23", "Molecular Formula": "C10H15N", "Boiling Point": "122-125 \u00b0C @ Press: 12 Torr", "Density": "0.953 g/cm\u00b3 @ Temp: 20 \u00b0C"}}