{"cas_no": "26978-65-4", "cn_name": "2-\u6eb4\u4e59\u57fa\u78fa\u9178", "en_name": ["Bromoethanesulfonic acid", "Ethanesulfonic acid, 2-bromo-", "2-Bromoethanesulfonic acid", "Bromoethanesulfonic acid", "2-Bromoethane-1-sulfonic acid", "2-Bromo-1-ethanesulfonic acid"], "SMILES": "C(S(=O)(=O)O)CBr", "physical_data": {"Molecular Weight": "189.03", "Molecular Formula": "C2H5BrO3S", "Boiling Point": "160-162 \u00b0C @ Press: 2 Torr"}}