{"cas_no": "26973-24-0", "cn_name": "\u5934\u5b62\u66ff\u5511", "en_name": ["Ceftezole", "5-Thia-1-azabicyclo[4.2.0]oct-2-ene-2-carboxylic acid, 8-oxo-7-[[2-(1H-tetrazol-1-yl)acetyl]amino]-3-[(1,3,4-thiadiazol-2-ylthio)methyl]-, (6R,7R)-", "5-Thia-1-azabicyclo[4.2.0]oct-2-ene-2-carboxylic acid, 8-oxo-7-[2-(1H-tetrazol-1-yl)acetamido]-3-[(1,3,4-thiadiazol-2-ylthio)methyl]-", "5-Thia-1-azabicyclo[4.2.0]oct-2-ene-2-carboxylic acid, 8-oxo-7-[(1H-tetrazol-1-ylacetyl)amino]-3-[(1,3,4-thiadiazol-2-ylthio)methyl]-, (6R-trans)-", "5-Thia-1-azabicyclo[4.2.0]oct-2-ene-2-carboxylic acid, 8-oxo-7-[(1H-tetrazol-1-ylacetyl)amino]-3-[(1,3,4-thiadiazol-2-ylthio)methyl]-, (6R,7R)-", "(6R,7R)-8-Oxo-7-[[2-(1H-tetrazol-1-yl)acetyl]amino]-3-[(1,3,4-thiadiazol-2-ylthio)methyl]-5-thia-1-azabicyclo[4.2.0]oct-2-ene-2-carboxylic acid", "FR 10123", "Ceftezole", "Ceftezol", "CG-B 3Q", "CTZ"], "SMILES": "C(O)(=O)C=1N2C(C(NC(CN3C=NN=N3)=O)C2=O)SCC1CSC4=NN=CS4", "physical_data": {"Molecular Weight": "440.48", "Molecular Formula": "C13H12N8O4S3", "Melting Point": "155 \u00b0C (decomp)"}}