{"cas_no": "2698-41-1", "cn_name": "\u90bb\u6c2f\u82c4\u53c9\u7f29\u4e19\u4e8c\u8148", "en_name": ["2-Chlorobenzylidenemalononitrile", "Propanedinitrile, 2-[(2-chlorophenyl)methylene]-", "Malononitrile, (o-chlorobenzylidene)-", "Propanedinitrile, [(2-chlorophenyl)methylene]-", "2-[(2-Chlorophenyl)methylene]propanedinitrile", "2-Chlorobenzylidenemalononitrile", "\u03b2,\u03b2-Dicyano-o-chlorostyrene", "2-Chlorobenzalmalononitrile", "(o-Chlorobenzal)malononitrile", "(o-Chlorobenzylidene)malononitrile", "CS (lacrimator)", "o-Chlorobenzylidenemalonic nitrile", "CS", "CS(lacrimitor)", "2-(o-Chlorophenyl)-1,1-dicyanoethylene", "2-Chlorobenzylidenemalonodinitrile", "NSC 542", "NSC 637336", "1-Chloro-2-(2,2-dicyanoethenyl)benzene", "2-[(2-Chlorophenyl)methylene]malononitrile", "2-(2-Chlorobenzylidene)malononitrile", "[(2-Chlorophenyl)methylene]malononitrile", "2-[(2-Chlorophenyl)methylidene]propanedinitrile"], "SMILES": "C(=C(C#N)C#N)C1=C(Cl)C=CC=C1", "physical_data": {"Molecular Weight": "188.61", "Molecular Formula": "C10H5ClN2", "Boiling Point": "310-315 \u00b0C", "Melting Point": "95-96 \u00b0C"}}