{"cas_no": "26993-30-6", "cn_name": "D-\u82cf\u5f0f-\u9798\u80fa\u9187-1-\u78f7\u9178", "en_name": ["Sphingosine-1-phosphate", "4-Octadecene-1,3-diol, 2-amino-, 1-(dihydrogen phosphate), (2S,3R,4E)-", "4-Octadecene-1,3-diol, 2-amino-, 1-(dihydrogen phosphate), (E)-D-erythro-", "4-Octadecene-1,3-diol, 2-amino-, 1-(dihydrogen phosphate), [R-[R*,S*-(E)]]-", "Sphingosine 1-phosphate", "D-erythro-Sphingosine-1-phosphate", "C18-Sphingosine 1-phosphate", "Sphingosine-1-phosphate", "S1P", "Proteins, S1P", "S1P protein"], "SMILES": "C(C(C=CCCCCCCCCCCCCC)O)(COP(=O)(O)O)N", "physical_data": {"Molecular Weight": "379.47", "Molecular Formula": "C18H38NO5P", "Melting Point": "&gt;200 \u00b0C"}}