{"cas_no": "2699-79-8", "cn_name": "\u786b\u9170\u6c1f", "en_name": ["Sulfonyl fluoride", "Sulfuryl fluoride", "Sulfuric oxyfluoride", "Vikane", "Sulfur fluoride oxide (SO2F2)", "Sulfonyl fluoride", "Sulfur dioxide difluoride", "Sulfur difluoride dioxide", "Sulfur oxide fluoride (SF2O2)", "Sulfur oxyfluoride (SO2F2)", "Sulfur fluoride oxide (SF2O2)", "Vikane Gas Fumigant", "Sulfonyl difluoride", "Sulfuryl difluoride", "ProFume"], "SMILES": "S(F)(F)(=O)=O", "physical_data": {"Molecular Weight": "102.06", "Molecular Formula": "F2O2S", "Boiling Point": "-55.38 \u00b0C", "Melting Point": "-135.82 \u00b0C", "Density": "3.72 x 10<sup>-3</sup> g/cm\u00b3"}}