{"cas_no": "2700-47-2", "cn_name": "2-\u7532\u6c27\u57fa-6-\u4e19\u9170\u57fa\u8418", "en_name": ["1-(6-Methoxy-2-naphthalenyl)-1-propanone", "1-Propanone, 1-(6-methoxy-2-naphthalenyl)-", "2\u2032-Propionaphthone, 6\u2032-methoxy-", "1-(6-Methoxy-2-naphthalenyl)-1-propanone", "6-Methoxy-2-propionylnaphthalene", "1-(6-Methoxy-2-naphthyl)-1-propanone", "2-Methoxy-6-propionylnaphthalene", "6\u2032-Methoxy-2\u2032-propionaphthone", "2-Propionyl-6-methoxynaphthalene", "Promen", "Ethyl 6-methoxy-2-naphthyl ketone", "6-Methoxynaphth-2-yl ethyl ketone"], "SMILES": "C(CC)(=O)C1=CC2=C(C=C(OC)C=C2)C=C1", "physical_data": {"Molecular Weight": "214.26", "Molecular Formula": "C14H14O2", "Boiling Point": "180-185 \u00b0C @ Press: 0.3 Torr", "Melting Point": "109 \u00b0C"}}