{"cas_no": "2700-30-3", "cn_name": "N,N-\u4e8c\u5f02\u4e19\u57fa\u7532\u9170\u80fa", "en_name": ["Diisopropylformamide", "Formamide, N,N-bis(1-methylethyl)-", "Formamide, N,N-diisopropyl-", "N,N-Bis(1-methylethyl)formamide", "N,N-Diisopropylformamide", "Diisopropylformamide", "NSC 404524", "N-Formyldiisopropylamine"], "SMILES": "N(C(C)C)(C(C)C)C=O", "physical_data": {"Molecular Weight": "129.20", "Molecular Formula": "C7H15NO", "Boiling Point": "103 \u00b0C @ Press: 12 Torr", "Density": "0.89 g/cm\u00b3 @ Temp: 20 \u00b0C"}}