{"cas_no": "2700-22-3", "cn_name": "\u82c4\u70ef\u4e19\u4e8c\u8148", "en_name": ["Benzylidenemalononitrile", "Propanedinitrile, 2-(phenylmethylene)-", "Malononitrile, benzylidene-", "Propanedinitrile, (phenylmethylene)-", "2-(Phenylmethylene)propanedinitrile", "2-Phenyl-1,1-dicyanoethylene", "\u03b1-Cyanocinnamonitrile", "Benzalmalononitrile", "2,2-Dicyano-1-phenylethylene", "Benzylidenemalonodinitrile", "\u03b2,\u03b2-Dicyanostyrene", "1,1-Dicyano-2-phenylethene", "1,1-Dicyano-2-phenylethylene", "Benzylidenemalononitrile", "2-Cyano-3-phenylacrylonitrile", "2-Phenyl-1,1-dicyanoethene", "2-Cyano-3-phenylpropenenitrile", "2-Benzylidenemalononitrile", "(Phenylmethylene)propanedinitrile", "(Phenylmethylene)malononitrile", "1-Cyanocinnamonitrile", "NSC 490", "2-(Phenylmethylene)malononitrile", "Benzylidenepropanedinitrile", "2-Benzylidenepropanedinitrile", "2-(Phenylmethylidene)propanedinitrile"], "SMILES": "C(=C(C#N)C#N)C1=CC=CC=C1", "physical_data": {"Molecular Weight": "154.17", "Molecular Formula": "C10H6N2", "Boiling Point": "120-128 \u00b0C @ Press: 0.06 Torr", "Melting Point": "83-85 \u00b0C"}}