{"cas_no": "270062-91-4", "cn_name": "(S)-N-\u82b4\u7532\u6c27\u7fb0\u57fa-3-\u6c28\u57fa-4-(2-\u7532\u57fa\u82ef\u57fa)\u4e01\u9178", "en_name": ["(\u03b2S)-\u03b2-[[(9H-Fluoren-9-ylmethoxy)carbonyl]amino]-2-methylbenzenebutanoic acid", "Benzenebutanoic acid, \u03b2-[[(9H-fluoren-9-ylmethoxy)carbonyl]amino]-2-methyl-, (\u03b2S)-", "(\u03b2S)-\u03b2-[[(9H-Fluoren-9-ylmethoxy)carbonyl]amino]-2-methylbenzenebutanoic acid"], "SMILES": "C(OC(NC(CC1=C(C)C=CC=C1)CC(O)=O)=O)C2C=3C(C=4C2=CC=CC4)=CC=CC3", "physical_data": {"Molecular Weight": "415.48", "Molecular Formula": "C26H25NO4", "Melting Point": "161-162 \u00b0C"}}