{"cas_no": "2700-16-5", "cn_name": "\u7532\u57fa\u4e09\u4e59\u57fa\u6eb4\u5316\u94f5", "en_name": ["Ethanaminium, N,N-diethyl-N-methyl-, bromide (1:1)", "Ethanaminium, N,N-diethyl-N-methyl-, bromide (1:1)", "Ammonium, triethylmethyl-, bromide", "Ethanaminium, N,N-diethyl-N-methyl-, bromide", "Triethylmethylammonium bromide", "Methyltriethylammonium bromide"], "SMILES": "[N+](CC)(CC)(CC)C.[Br-]", "physical_data": {"Molecular Weight": "", "Molecular Formula": "C7H18N.Br", "Melting Point": "295-296 \u00b0C"}}