{"cas_no": "270062-86-7", "cn_name": "FMOC-(S)-3-\u6c28\u57fa-4-(4-\u6eb4\u82ef\u57fa)-\u4e01\u9178", "en_name": ["(\u03b2S)-4-Bromo-\u03b2-[[(9H-fluoren-9-ylmethoxy)carbonyl]amino]benzenebutanoic acid", "Benzenebutanoic acid, 4-bromo-\u03b2-[[(9H-fluoren-9-ylmethoxy)carbonyl]amino]-, (\u03b2S)-", "(\u03b2S)-4-Bromo-\u03b2-[[(9H-fluoren-9-ylmethoxy)carbonyl]amino]benzenebutanoic acid", "(3S)-4-(4-Bromophenyl)-3-([[(9H-fluoren-9-yl)methoxy]carbonyl]amino)butanoic acid"], "SMILES": "C(OC(NC(CC1=CC=C(Br)C=C1)CC(O)=O)=O)C2C=3C(C=4C2=CC=CC4)=CC=CC3", "physical_data": {"Molecular Weight": "480.35", "Molecular Formula": "C25H22BrNO4", "Melting Point": "177-178 \u00b0C"}}