{"cas_no": "27018-76-4", "cn_name": "1-\u82c4\u57fa\u5432\u54da-3-\u7532\u9178", "en_name": ["1-(Phenylmethyl)-1H-indole-3-carboxylic acid", "1H-Indole-3-carboxylic acid, 1-(phenylmethyl)-", "Indole-3-carboxylic acid, 1-benzyl-", "1-(Phenylmethyl)-1H-indole-3-carboxylic acid", "1-Benzylindole-3-carboxylic acid", "1-Benzyl-1H-indole-3-carboxylic acid"], "SMILES": "C(N1C=2C(C(C(O)=O)=C1)=CC=CC2)C3=CC=CC=C3", "physical_data": {"Molecular Weight": "251.28", "Molecular Formula": "C16H13NO2", "Melting Point": "195-196 \u00b0C"}}