{"cas_no": "2701-50-0", "cn_name": "17-\u7f9f\u57fa-1A,2A-\u4e9a\u7532\u57fa\u5b55-4,6-\u4e8c\u70ef-3,20-\u4e8c\u916e\u918b\u9178\u916f", "en_name": ["(1\u03b2,2\u03b2)-17-(Acetyloxy)-1,2-dihydro-3\u2032H-cyclopropa[1,2]pregna-1,4,6-triene-3,20-dione", "3\u2032H-Cyclopropa[1,2]pregna-1,4,6-triene-3,20-dione, 17-(acetyloxy)-1,2-dihydro-, (1\u03b2,2\u03b2)-", "3\u2032H-Cyclopropa[1,2]pregna-1,4,6-triene-3,20-dione, 1\u03b2,2\u03b2-dihydro-17-hydroxy-, acetate", "Pregna-4,6-diene-3,20-dione, 17-hydroxy-1\u03b1,2\u03b1-methylene-, acetate", "Cyclopropa[1,2]cyclopenta[a]phenanthrene, 3\u2032H-cyclopropa[1,2]pregna-1,4,6-triene-3,20-dione deriv.", "(1\u03b2,2\u03b2)-17-(Acetyloxy)-1,2-dihydro-3\u2032H-cyclopropa[1,2]pregna-1,4,6-triene-3,20-dione", "17-Hydroxy-1\u03b1,2\u03b1-methylenepregna-4,6-diene-3,20-dione acetate"], "SMILES": "CC12C3C(C4C(C)(CC3)C(OC(C)=O)(C(C)=O)CC4)C=CC1=CC(=O)C5C2C5", "physical_data": {"Molecular Weight": "382.49", "Molecular Formula": "C24H30O4", "Melting Point": "280-281 \u00b0C"}}