{"cas_no": "27017-66-9", "cn_name": "2,6-\u4e8c\u6c2f-1,5-\u8418\u5576", "en_name": ["2,6-Dichloro-1,5-naphthyridine", "1,5-Naphthyridine, 2,6-dichloro-", "2,6-Dichloro-1,5-naphthyridine"], "SMILES": "ClC1=NC2=C(N=C(Cl)C=C2)C=C1", "physical_data": {"Molecular Weight": "199.04", "Molecular Formula": "C8H4Cl2N2", "Melting Point": "236-238 \u00b0C"}}