{"cas_no": "27012-22-2", "cn_name": "5-\u7532\u57fa-2-\u82ef\u57fa\u5421\u5576", "en_name": ["5-Methyl-2-phenylpyridine", "Pyridine, 5-methyl-2-phenyl-", "3-Picoline, 6-phenyl-", "5-Methyl-2-phenylpyridine", "2-Phenyl-5-methylpyridine", "6-Phenyl-3-picoline"], "SMILES": "CC1=CC=C(N=C1)C2=CC=CC=C2", "physical_data": {"Molecular Weight": "169.22", "Molecular Formula": "C12H11N", "Boiling Point": "241-245 \u00b0C @ Press: 2.0 Torr", "Melting Point": "280 \u00b0C (decomp)"}}