{"cas_no": "2702-72-9", "cn_name": "2,4-\u4e8c\u6c2f\u82ef\u6c27\u4e59\u9178\u94a0", "en_name": ["Sodium (2,4-dichlorophenoxy)acetate", "Acetic acid, 2-(2,4-dichlorophenoxy)-, sodium salt (1:1)", "Acetic acid, (2,4-dichlorophenoxy)-, sodium salt", "Dikonirt", "Hormit", "Pielik E", "Sodium 2,4-D", "2,4-D Sodium salt", "Spritz-hormit", "Agrion", "Fernoxone", "2,4-Dichlorophenoxyacetic acid sodium salt", "Spray-Hormite", "Sodium (2,4-dichlorophenoxy)acetate", "Diconirt", "Diconirt D", "Dikonirt D", "Agrion (pesticide)", "U 46D", "Dichlordon sodium", "Sodium diclordon", "Kar D", "Taficide", "Tornado DF", "2,4-Dichlorophenoxyacetic acid sodium"], "SMILES": "O(CC(O)=O)C1=C(Cl)C=C(Cl)C=C1.[Na]", "physical_data": {"Molecular Weight": "", "Molecular Formula": "C8H6Cl2O3.Na", "Melting Point": "160-167 \u00b0C"}}