{"cas_no": "27025-25-8", "cn_name": "D-\u8c37\u6c28\u9178\u4e8c\u7532\u916f\u76d0\u9178\u76d0", "en_name": ["D-Glutamic acid, 1,5-dimethyl ester, hydrochloride (1:1)", "D-Glutamic acid, 1,5-dimethyl ester, hydrochloride (1:1)", "Glutamic acid, dimethyl ester, hydrochloride, D-", "D-Glutamic acid, dimethyl ester, hydrochloride", "Dimethyl D-glutamate hydrochloride", "1,5-Dimethyl (2R)-2-aminopentanedioate hydrochloride"], "SMILES": "C(CCC(OC)=O)(C(OC)=O)N.Cl", "physical_data": {"Molecular Weight": "", "Molecular Formula": "C7H13NO4.ClH", "Melting Point": "91 \u00b0C"}}