{"cas_no": "2702-58-1", "cn_name": "3,5-\u4e8c\u785d\u57fa\u82ef\u7532\u9178\u7532\u916f", "en_name": ["Methyl 3,5-dinitrobenzoate", "Benzoic acid, 3,5-dinitro-, methyl ester", "Methyl 3,5-dinitrobenzoate", "3,5-Dinitrobenzoic acid methyl ester", "NSC 7317"], "SMILES": "C(OC)(=O)C1=CC(N(=O)=O)=CC(N(=O)=O)=C1", "physical_data": {"Molecular Weight": "226.14", "Molecular Formula": "C8H6N2O6", "Melting Point": "107-109 \u00b0C"}}