{"cas_no": "270263-01-9", "cn_name": "FMOC-(S)-3-\u6c28\u57fa-4-(3-\u567b\u5429\u57fa)-\u4e01\u9178", "en_name": ["(\u03b2S)-\u03b2-[[(9H-Fluoren-9-ylmethoxy)carbonyl]amino]-3-thiophenebutanoic acid", "3-Thiophenebutanoic acid, \u03b2-[[(9H-fluoren-9-ylmethoxy)carbonyl]amino]-, (\u03b2S)-", "(\u03b2S)-\u03b2-[[(9H-Fluoren-9-ylmethoxy)carbonyl]amino]-3-thiophenebutanoic acid"], "SMILES": "C(OC(NC(CC=1C=CSC1)CC(O)=O)=O)C2C=3C(C=4C2=CC=CC4)=CC=CC3", "physical_data": {"Molecular Weight": "407.48", "Molecular Formula": "C23H21NO4S", "Melting Point": "157-158 \u00b0C"}}