{"cas_no": "27043-05-6", "cn_name": "2-\u4e59\u57fa-3,5-\u4e8c\u7532\u57fa\u5421\u55ea", "en_name": ["2-Ethyl-3,?-dimethylpyrazine", "Pyrazine, 2-ethyl-3,?-dimethyl-", "2-Ethyl-3,?-dimethylpyrazine", "2-Ethyl-3,(5 or 6)-dimethylpyrazine", "2-Ethyl-3,5(6)-dimethylpyrazine"], "SMILES": "", "physical_data": {"Molecular Weight": "", "Molecular Formula": "C8H12N2", "Boiling Point": "180-181 \u00b0C"}}