{"cas_no": "270596-37-7", "cn_name": "FMOC-(S)-3-\u6c28\u57fa-4-(2-\u6c2f\u82ef\u57fa)-\u4e01\u9178", "en_name": ["(\u03b2S)-2-Chloro-\u03b2-[[(9H-fluoren-9-ylmethoxy)carbonyl]amino]benzenebutanoic acid", "Benzenebutanoic acid, 2-chloro-\u03b2-[[(9H-fluoren-9-ylmethoxy)carbonyl]amino]-, (\u03b2S)-", "(\u03b2S)-2-Chloro-\u03b2-[[(9H-fluoren-9-ylmethoxy)carbonyl]amino]benzenebutanoic acid"], "SMILES": "C(OC(NC(CC1=C(Cl)C=CC=C1)CC(O)=O)=O)C2C=3C(C=4C2=CC=CC4)=CC=CC3", "physical_data": {"Molecular Weight": "435.90", "Molecular Formula": "C25H22ClNO4", "Melting Point": "142-143 \u00b0C"}}