{"cas_no": "27063-98-5", "cn_name": "3,4-\u4e8c\u7532\u57fa-5-\u6eb4\u5421\u5576", "en_name": ["3-Bromo-4,5-dimethylpyridine", "Pyridine, 3-bromo-4,5-dimethyl-", "3,4-Lutidine, 5-bromo-", "3-Bromo-4,5-dimethylpyridine", "5-Bromo-3,4-dimethylpyridine"], "SMILES": "CC=1C(Br)=CN=CC1C", "physical_data": {"Molecular Weight": "186.05", "Molecular Formula": "C7H8BrN", "Boiling Point": "38 \u00b0C @ Press: 40 Torr", "Melting Point": "33-34 \u00b0C"}}