{"cas_no": "27060-75-9", "cn_name": "2-\u6eb4-5-\u7532\u6c27\u57fa\u7532\u82ef", "en_name": ["4-Bromo-3-methylanisole", "Benzene, 1-bromo-4-methoxy-2-methyl-", "Anisole, 4-bromo-3-methyl-", "1-Bromo-4-methoxy-2-methylbenzene", "2-Bromo-5-methoxytoluene", "4-Bromo-3-methylanisole", "3-Methyl-4-bromoanisole", "1-Bromo-2-methyl-4-methoxybenzene"], "SMILES": "O(C)C1=CC(C)=C(Br)C=C1", "physical_data": {"Molecular Weight": "201.06", "Molecular Formula": "C8H9BrO", "Boiling Point": "108.5 \u00b0C @ Press: 12 Torr", "Melting Point": "16.5 \u00b0C", "Density": "0.919 g/cm\u00b3 @ Temp: 20 \u00b0C"}}