{"cas_no": "2706-90-3", "cn_name": "\u4e5d\u6c1f\u620a\u9178", "en_name": ["Perfluoropentanoic acid", "Pentanoic acid, 2,2,3,3,4,4,5,5,5-nonafluoro-", "Valeric acid, nonafluoro-", "Pentanoic acid, nonafluoro-", "2,2,3,3,4,4,5,5,5-Nonafluoropentanoic acid", "Perfluorovaleric acid", "Nonafluoropentanoic acid", "Perfluoropentanoic acid", "Nonafluorovaleric acid", "NSC 18404", "PFPeA"], "SMILES": "C(C(C(F)(F)F)(F)F)(C(C(O)=O)(F)F)(F)F", "physical_data": {"Molecular Weight": "264.05", "Molecular Formula": "C5HF9O2", "Boiling Point": "139 \u00b0C @ Press: 749 Torr", "Density": "1.713 g/cm\u00b3 @ Temp: 20 \u00b0C"}}