{"cas_no": "27063-93-0", "cn_name": "3-\u6eb4-2,4-\u4e8c\u7532\u57fa\u54cc\u5576", "en_name": ["3-Bromo-2,4-dimethylpyridine", "Pyridine, 3-bromo-2,4-dimethyl-", "2,4-Lutidine, 3-bromo-", "3-Bromo-2,4-dimethylpyridine", "3-Bromo-2,4-lutidine"], "SMILES": "BrC=1C(C)=CC=NC1C", "physical_data": {"Molecular Weight": "186.05", "Molecular Formula": "C7H8BrN", "Boiling Point": "28-29 \u00b0C @ Press: 40 Torr"}}