{"cas_no": "2706-56-1", "cn_name": "2-(2-\u6c28\u4e59\u57fa)\u5421\u5576", "en_name": ["2-Pyridineethanamine", "2-Pyridineethanamine", "Pyridine, 2-(2-aminoethyl)-", "\u03b1-Pyridylethylamine", "2-(2\u2032-Aminoethyl)pyridine", "2-(2-Pyridyl)ethylamine", "Demethylbetahistine", "\u03b1-(2-Aminoethyl)pyridine", "2-(\u03b2-Aminoethyl)pyridine", "2-Pyridylethylamine", "2-(2\u2032-Pyridyl)ethylamine", "2-(\u03b1-Pyridyl)ethylamine", "2-(2-Aminoethyl)pyridine", "2-(2-Pyridinyl)ethanamine", "2-Aminoethylpyridine", "2-(2-Pyridinyl)ethylamine", "2\u2032-Aminoethyl-2-pyridine", "NSC 71989", "N-[2-(2-Pyridinyl)ethyl]amine", "2-(Pyridin-2-yl)ethan-1-amine", "2-(2-Pyridyl)ethanamine"], "SMILES": "C(CN)C1=CC=CC=N1", "physical_data": {"Molecular Weight": "122.17", "Molecular Formula": "C7H10N2", "Boiling Point": "131.5 \u00b0C", "Melting Point": "198-200 \u00b0C"}}