{"cas_no": "27063-48-5", "cn_name": "5-\u964d\u51b0\u7247\u70ef-2-\u9170\u6c2f", "en_name": ["Bicyclo[2.2.1]hept-5-ene-2-carbonyl chloride", "Bicyclo[2.2.1]hept-5-ene-2-carbonyl chloride", "5-Norbornene-2-carbonyl chloride", "2-Norbornene-5-carbonyl chloride", "5-Chloroformylbicyclo[2.2.1]hept-2-ene", "5-Chloroformylnorbornene", "2-Norbornene-5-carboxylic acid chloride", "NSC 91503", "(5-Bicyclo[2.2.1]hept-5-en-2-yl)carbonyl chloride", "5-Norbornene-2-formyl chloride"], "SMILES": "C(Cl)(=O)C1C2CC(C1)C=C2", "physical_data": {"Molecular Weight": "156.61", "Molecular Formula": "C8H9ClO", "Boiling Point": "79-81 \u00b0C @ Press: 12 Torr"}}