{"cas_no": "2706-38-9", "cn_name": "Z-LEU-GLY-OH", "en_name": ["N-[(Phenylmethoxy)carbonyl]-L-leucylglycine", "Glycine, N-[(phenylmethoxy)carbonyl]-L-leucyl-", "Glycine, N-(N-carboxy-L-leucyl)-, N-benzyl ester", "Glycine, N-[N-[(phenylmethoxy)carbonyl]-L-leucyl]-", "N-[(Phenylmethoxy)carbonyl]-L-leucylglycine", "Benzyloxycarbonylleucylglycine", "N-(Benzyloxycarbonyl)leucylglycine", "N-Benzyloxycarbonyl-L-leucylglycine", "NSC 333759", "2-[[(2S)-4-Methyl-2-(phenylmethoxycarbonylamino)pentanoyl]amino]acetic acid"], "SMILES": "C(C(NCC(O)=O)=O)(NC(OCC1=CC=CC=C1)=O)CC(C)C", "physical_data": {"Molecular Weight": "322.36", "Molecular Formula": "C16H22N2O5", "Melting Point": "115 \u00b0C"}}