{"cas_no": "27064-94-4", "cn_name": "\u6c2f\u4ee3\u53cc(4-\u6c1f\u82ef\u57fa\u7532\u70f7)", "en_name": ["4,4\u2032-Difluorobenzhydryl chloride", "Benzene, 1,1\u2032-(chloromethylene)bis[4-fluoro-", "Methane, chlorobis(p-fluorophenyl)-", "1,1\u2032-(Chloromethylene)bis[4-fluorobenzene]", "Bis(p-fluorophenyl)methyl chloride", "4,4\u2032-Difluorobenzhydryl chloride", "Bis(4-fluorophenyl)methyl chloride", "Chlorobis(p-fluorophenyl)methane", "4,4\u2032-Difluorodiphenylmethyl chloride", "Chlorobis(4-fluorophenyl)methane", "1-[Chloro-(4-fluorophenyl)methyl]-4-fluorobenzene", "4,4\u2032-(Chloromethylene)bis(fluorobenzene)"], "SMILES": "C(Cl)(C1=CC=C(F)C=C1)C2=CC=C(F)C=C2", "physical_data": {"Molecular Weight": "238.66", "Molecular Formula": "C13H9ClF2", "Boiling Point": "129-130 \u00b0C @ Press: 2 Torr"}}