{"cas_no": "27072-45-3", "cn_name": "\u5f02\u786b\u6c30\u9178\u8367\u5149\u7d20", "en_name": ["Fluorescein isothiocyanate", "Spiro[isobenzofuran-1(3H),9\u2032-[9H]xanthen]-3-one, 3\u2032,6\u2032-dihydroxy-5(or 6)-isothiocyanato-", "Fluorescein, isothiocyanato-", "3\u2032,6\u2032-Dihydroxy-5(or 6)-isothiocyanatospiro[isobenzofuran-1(3H),9\u2032-[9H]xanthen]-3-one", "FITC", "Fluorescein isothiocyanate", "71: PN: WO2016072662 SEQID: 71 claimed sequence"], "SMILES": "", "physical_data": {"Molecular Weight": "", "Molecular Formula": "C21H11NO5S", "Melting Point": "109-111 \u00b0C"}}