{"cas_no": "27074-03-9", "cn_name": "1,4-\u4e8c\u7532\u57fa-3-\u6c30\u57fa-6-\u7f9f\u57fa-2-\u5421\u5576\u916e", "en_name": ["1,2-Dihydro-6-hydroxy-1,4-dimethyl-2-oxo-3-pyridinecarbonitrile", "3-Pyridinecarbonitrile, 1,2-dihydro-6-hydroxy-1,4-dimethyl-2-oxo-", "Nicotinonitrile, 1,2-dihydro-6-hydroxy-1,4-dimethyl-2-oxo-", "1,2-Dihydro-6-hydroxy-1,4-dimethyl-2-oxo-3-pyridinecarbonitrile", "1,4-Dimethyl-3-cyano-6-hydroxypyridone", "1,4-Dimethyl-3-cyano-6-hydroxy-2-pyridone", "3-Cyano-6-hydroxy-1,4-dimethyl-2-pyridone", "3-Cyano-1,4-dimethyl-6-hydroxy-2-pyridone", "2-Hydroxy-1,4-dimethyl-5-cyano-6-pyridinone", "1,4-Dimethyl-6-hydroxy-3-cyano-2-pyridone", "N-Methyl-3-cyano-6-hydroxy-4-methyl-2-pyridone"], "SMILES": "C(#N)C=1C(=O)N(C)C(O)=CC1C", "physical_data": {"Molecular Weight": "164.16", "Molecular Formula": "C8H8N2O2", "Melting Point": "275-277 \u00b0C"}}