{"cas_no": "2708-97-6", "cn_name": "1,2-\u4e8c\u7898\u56db\u6c1f\u82ef", "en_name": ["1,2,3,4-Tetrafluoro-5,6-diiodobenzene", "Benzene, 1,2,3,4-tetrafluoro-5,6-diiodo-", "Benzene, tetrafluoro-1,2-diiodo-", "1,2,3,4-Tetrafluoro-5,6-diiodobenzene", "1,2-Diiodotetrafluorobenzene", "o-Diiodoperfluorobenzene", "5,6-Diiodo-1,2,3,4-tetrafluorobenzene", "NSC 21629"], "SMILES": "FC1=C(F)C(F)=C(I)C(I)=C1F", "physical_data": {"Molecular Weight": "401.87", "Molecular Formula": "C6F4I2", "Melting Point": "50.5 \u00b0C"}}