{"cas_no": "27081-10-3", "cn_name": "\u56db\u6c1f\u787c\u9178\u5353", "en_name": ["Cycloheptatrienylium, tetrafluoroborate(1-) (1:1)", "Cycloheptatrienylium, tetrafluoroborate(1-) (1:1)", "Cycloheptatrienylium, tetrafluoroborate(1-)", "Cycloheptatrienylium tetrafluoroborate", "Cycloheptatrienocarbonium fluoborate", "Borate(1-), tetrafluoro-, cycloheptatrienylium", "Tropylium fluoroborate", "Tropylium tetrafluoroborate", "Tropylium tetrafluoroborate(1-)", "Cycloheptatrienyl tetrafluoroborate", "2,4,6-Cycloheptatrienium, tetrafluoroborate(1-) (1:1)"], "SMILES": "", "physical_data": {"Molecular Weight": "", "Molecular Formula": "C7H7.BF4", "Melting Point": "242 \u00b0C (decomp)"}}