{"cas_no": "2708-77-2", "cn_name": "4-\u6c1f-DL-\u8c37\u6c28\u9178", "en_name": ["4-Fluoroglutamic acid", "Glutamic acid, 4-fluoro-", "4-Fluoroglutamic acid", "DL-4-Fluoroglutamic acid", "4-Fluoro-D,L-glutamic acid", "2-Amino-4-fluoropentanedioic acid"], "SMILES": "C(CC(C(O)=O)N)(C(O)=O)F", "physical_data": {"Molecular Weight": "165.12", "Molecular Formula": "C5H8FNO4", "Melting Point": "185 \u00b0C (decomp)"}}