{"cas_no": "271-63-6", "cn_name": "7-\u6c2e\u6742\u5432\u54da", "en_name": ["1H-Pyrrolo[2,3-b]pyridine", "1H-Pyrrolo[2,3-b]pyridine", "7-Aza-1-pyrindine", "1,7-Diazaindene", "7-Azaindole", "7H-Pyrrolo[2,3-b]pyridine", "1,7-Dideazapurine", "NSC 67063", "NSC 77951", "1H-Pyrrole[2,3-b]pyridine"], "SMILES": "C1=2C(NC=C1)=NC=CC2", "physical_data": {"Molecular Weight": "118.14", "Molecular Formula": "C7H6N2", "Boiling Point": "270 \u00b0C @ Press: 755 Torr", "Melting Point": "107 \u00b0C"}}