{"cas_no": "271-95-4", "cn_name": "1,2-\u82ef\u5f02\u5511", "en_name": ["1,2-Benzisoxazole", "1,2-Benzisoxazole", "Indoxazene", "1-Oxa-2-azaindene", "1-Oxa-2-aza-1H-indene", "Benzo[d]isoxazole", "Benzo[1,2-d]isoxazole", "1,2-Benzoxazole"], "SMILES": "C1=2C(ON=C1)=CC=CC2", "physical_data": {"Molecular Weight": "119.12", "Molecular Formula": "C7H5NO", "Boiling Point": "100 \u00b0C", "Melting Point": "139 \u00b0C", "Density": "1.1729 g/cm\u00b3 @ Temp: 20.4 \u00b0C"}}