{"cas_no": "271-89-6", "cn_name": "2,3-\u82ef\u5e76\u544b\u5583", "en_name": ["Benzofuran", "Benzofuran", "2,3-Benzofuran", "Coumarone", "1-Oxindene", "Benzofurfuran", "Benzo[b]furan", "R 7204", "AT 33852", "NSC 1255", "1-Benzofuran"], "SMILES": "C1=2C(OC=C1)=CC=CC2", "physical_data": {"Molecular Weight": "118.13", "Molecular Formula": "C8H6O", "Boiling Point": "174 \u00b0C @ Press: 760 Torr", "Melting Point": "&lt;-18 \u00b0C", "Density": "1.0913 g/cm\u00b3 @ Temp: 25 \u00b0C"}}