{"cas_no": "271-58-9", "cn_name": "2,1-\u82ef\u5e76\u5f02\u6076\u5511", "en_name": ["2,1-Benzisoxazole", "2,1-Benzisoxazole", "Anthranil", "NSC 99331", "Benz[a]isoxazole"], "SMILES": "C=12C(=NOC1)C=CC=C2", "physical_data": {"Molecular Weight": "119.12", "Molecular Formula": "C7H5NO", "Boiling Point": "215 \u00b0C", "Melting Point": "&lt;-18 \u00b0C"}}