{"cas_no": "271-44-3", "cn_name": "\u5432\u5511", "en_name": ["Indazole", "1H-Indazole", "Indazole", "Isoindazole", "2-Azaindole", "1,2-Diazaindene", "1H-Benzopyrazole", "NSC 26336", "NSC 90357"], "SMILES": "C1=2C(NN=C1)=CC=CC2", "physical_data": {"Molecular Weight": "118.14", "Molecular Formula": "C7H6N2", "Boiling Point": "269 \u00b0C", "Melting Point": "148 \u00b0C"}}