{"cas_no": "271-34-1", "cn_name": "5-\u6c2e\u6742\u5432\u54da", "en_name": ["1H-Pyrrolo[3,2-c]pyridine", "1H-Pyrrolo[3,2-c]pyridine", "1,5-Diazaindene", "5-Azaindole", "3,7-Dideazapurine"], "SMILES": "C1=2C(NC=C1)=CC=NC2", "physical_data": {"Molecular Weight": "118.14", "Molecular Formula": "C7H6N2", "Boiling Point": "97 \u00b0C @ Press: 0.5 Torr", "Melting Point": "112 \u00b0C"}}