{"cas_no": "271-80-7", "cn_name": "1H-\u5421\u5511\u5e76[3,4-D]\u5627\u5576", "en_name": ["1H-Pyrazolo[3,4-d]pyrimidine", "1H-Pyrazolo[3,4-d]pyrimidine", "5H-Pyrazolo[3,4-d]pyrimidine", "NSC 82206", "5,7-Diaza-1H-indazole", "7-Deaza-8-azapurine"], "SMILES": "C1=2C(NN=C1)=NC=NC2", "physical_data": {"Molecular Weight": "120.11", "Molecular Formula": "C5H4N4", "Melting Point": "213-214 \u00b0C"}}