{"cas_no": "271-29-4", "cn_name": "6-\u6c2e\u6742\u5432\u54da", "en_name": ["1H-Pyrrolo[2,3-c]pyridine", "1H-Pyrrolo[2,3-c]pyridine", "6-Azaindole", "1,6-Diazaindene", "Harmyrine"], "SMILES": "C1=2C(NC=C1)=CN=CC2", "physical_data": {"Molecular Weight": "118.14", "Molecular Formula": "C7H6N2", "Melting Point": "137 \u00b0C"}}