{"cas_no": "27104-73-0", "cn_name": "\u5f02\u55b9\u5549-3-\u7532\u9178\u7532\u916f", "en_name": ["Methyl 3-isoquinolinecarboxylate", "3-Isoquinolinecarboxylic acid, methyl ester", "Methyl 3-isoquinolinecarboxylate", "3-(Methoxycarbonyl)isoquinoline"], "SMILES": "C(OC)(=O)C1=CC2=C(C=N1)C=CC=C2", "physical_data": {"Molecular Weight": "187.19", "Molecular Formula": "C11H9NO2", "Melting Point": "88-89 \u00b0C"}}