{"cas_no": "27106-51-0", "cn_name": "1-(\u7532\u82ef-4-\u78fa\u9170\u57fa)\u54cc\u55ea", "en_name": ["1-[(4-Methylphenyl)sulfonyl]piperazine", "Piperazine, 1-[(4-methylphenyl)sulfonyl]-", "Piperazine, 1-(p-tolylsulfonyl)-", "1-[(4-Methylphenyl)sulfonyl]piperazine", "N-Toluenesulfonylpiperazine", "N-(p-Toluenesulfonyl)piperazine", "N-(p-Tolylsulfonyl)piperazine", "1-(p-Tolylsulfonyl)piperazine", "1-(p-Tosyl)piperazine", "1-Tosylpiperazine", "1-(4-Methylphenyl)sulfonyl-2,3,5,6-tetrahydropyrazine", "1-(Toluene-4-sulfonyl)-piperazine", "4-Tosylpiperazine"], "SMILES": "S(=O)(=O)(C1=CC=C(C)C=C1)N2CCNCC2", "physical_data": {"Molecular Weight": "240.32", "Molecular Formula": "C11H16N2O2S", "Melting Point": "110 \u00b0C"}}