{"cas_no": "27115-74-8", "cn_name": "2-\u6c28\u57fa-5-\u5f02\u4e19\u57fa-1,3,4-\u567b\u4e8c\u5511", "en_name": ["5-(1-Methylethyl)-1,3,4-thiadiazol-2-amine", "1,3,4-Thiadiazol-2-amine, 5-(1-methylethyl)-", "1,3,4-Thiadiazole, 2-amino-5-isopropyl-", "Thiadiazole, 2-amino-5-isopropyl-", "5-(1-Methylethyl)-1,3,4-thiadiazol-2-amine", "2-Amino-5-isopropyl-1,3,4-thiadiazole", "5-Isopropyl-2-amino-1,3,4-thiadiazole", "5-Amino-2-isopropyl-1,3,4-thiadiazole", "(5-Isopropyl-[1,3,4]thiadiazol-2-yl)amine", "5-Isopropyl-1,3,4-thiadiazol-2-amine"], "SMILES": "C(C)(C)C=1SC(N)=NN1", "physical_data": {"Molecular Weight": "143.21", "Molecular Formula": "C5H9N3S", "Melting Point": "186-187 \u00b0C"}}