{"cas_no": "2711-58-2", "cn_name": "5-\u6c1f\u8272\u80fa\u76d0\u9178\u76d0", "en_name": ["1H-Indole-3-ethanamine, 5-fluoro-, hydrochloride (1:1)", "1H-Indole-3-ethanamine, 5-fluoro-, hydrochloride (1:1)", "Indole, 3-(2-aminoethyl)-5-fluoro-, hydrochloride", "1H-Indole-3-ethanamine, 5-fluoro-, monohydrochloride", "5-Fluorotryptamine hydrochloride", "2-(5-Fluoro-1H-indol-3-yl)ethan-1-amine hydrochloride", "2-(5-Fluoro-1H-indol-3-yl)-ethylamine", "hydrochloride", "2-(5-Fluoro-1H-indol-3-yl)ethanamine hydrochloride", "5-fluorotryptammonium chloride"], "SMILES": "C(CN)C=1C=2C(NC1)=CC=C(F)C2.Cl", "physical_data": {"Molecular Weight": "", "Molecular Formula": "C10H11FN2.ClH", "Melting Point": "282 \u00b0C"}}