{"cas_no": "27115-50-0", "cn_name": "4-\u7532\u57fa\u9a6c\u5c3f\u9178", "en_name": ["p-Methylhippuric acid", "Glycine, N-(4-methylbenzoyl)-", "Hippuric acid, p-methyl-", "N-(4-Methylbenzoyl)glycine", "p-Methylhippuric acid", "p-Toluric acid", "4-Methylhippuric acid", "N-(p-Methylbenzoyl)glycine", "NSC 126814", "[[(4-Methylphenyl)carbonyl]amino]acetic acid", "(4-Methylbenzoylamino)acetic acid", "2-[(4-Methylbenzoyl)amino]acetic acid", "2-[(4-Methylphenyl)formamido]acetic acid"], "SMILES": "C(NCC(O)=O)(=O)C1=CC=C(C)C=C1", "physical_data": {"Molecular Weight": "193.20", "Molecular Formula": "C10H11NO3", "Melting Point": "161-162 \u00b0C"}}