{"cas_no": "27126-76-7", "cn_name": "\u7f9f\u57fa\u7532\u82ef\u78fa\u9170\u7898\u82ef", "en_name": ["[Hydroxy(tosyloxy)iodo]benzene", "Iodine, hydroxy(4-methylbenzenesulfonato-\u03baO)phenyl-", "Benzene, [hydroxy[(p-tolylsulfonyl)oxy]iodo]-", "Iodine, hydroxy(4-methylbenzenesulfonato-O)phenyl-", "Benzenesulfonic acid, 4-methyl-, iodine complex", "Hydroxy(4-methylbenzenesulfonato-\u03baO)phenyliodine", "Phenyliodoso hydroxide tosylate", "[Hydroxy(tosyloxy)iodo]benzene", "Hydroxy(4-methylbenzenesulfonato-O)phenyliodine", "Phenyliodosyl hydroxide tosylate", "HTIB", "Koser's reagent", "[Hydroxy(4-toluenesulfonato)iodo]benzene", "Reagents, Koser's", "Hydroxy(phenyl)iodo tosylate", "NSC 294176"], "SMILES": "S(OI(O)C1=CC=CC=C1)(=O)(=O)C2=CC=C(C)C=C2", "physical_data": {"Molecular Weight": "392.21", "Molecular Formula": "C13H13IO4S", "Melting Point": "134-136 \u00b0C"}}