{"cas_no": "27126-93-8", "cn_name": "3,5-\u53cc\u4e09\u6c1f\u7532\u57fa\u82ef\u8148", "en_name": ["3,5-Bis(trifluoromethyl)benzonitrile", "Benzonitrile, 3,5-bis(trifluoromethyl)-", "3,5-Bis(trifluoromethyl)benzonitrile", "NSC 88316", "3,5-Bis(trifluoromethyl)-1-cyanobenzene", "2-Cyano-3,5-bis(trifluoromethyl)benzene"], "SMILES": "C(F)(F)(F)C1=CC(C(F)(F)F)=CC(C#N)=C1", "physical_data": {"Molecular Weight": "239.12", "Molecular Formula": "C9H3F6N", "Melting Point": "16-17 \u00b0C"}}