{"cas_no": "27129-87-9", "cn_name": "3,5-\u4e8c\u7532\u57fa\u82ef\u7532\u9187", "en_name": ["3,5-Dimethylbenzyl alcohol", "Benzenemethanol, 3,5-dimethyl-", "Benzyl alcohol, 3,5-dimethyl-", "3,5-Dimethylbenzenemethanol", "3,5-Dimethylbenzyl alcohol", "(3,5-Dimethylphenyl)methanol", "1-(Hydroxymethyl)-3,5-dimethylbenzene"], "SMILES": "C(O)C1=CC(C)=CC(C)=C1", "physical_data": {"Molecular Weight": "136.19", "Molecular Formula": "C9H12O", "Boiling Point": "219.5 \u00b0C"}}