{"cas_no": "2712-78-9", "cn_name": "[\u53cc(\u4e09\u6c1f\u4e59\u9170\u6c27\u57fa)\u7898]\u82ef", "en_name": ["Bis(trifluoroacetoxy)iodobenzene", "Iodine, phenylbis(2,2,2-trifluoroacetato-\u03baO)-", "Benzene, [bis(trifluoroacetoxy)iodo]-", "Iodine, phenylbis(trifluoroacetato-O)-", "Iodine, phenylbis(trifluoroacetato-\u03baO)-", "Acetic acid, trifluoro-, iodine complex", "Phenylbis(2,2,2-trifluoroacetato-\u03baO)iodine", "Iodobenzene bis(trifluoroacetate)", "Phenyliodine bis(trifluoroacetate)", "Phenyliodoso bis(trifluoroacetate)", "Phenyliodine(III) bis(trifluoroacetate)", "Bis(trifluoroacetoxy)iodobenzene", "Bis(trifluoroacetato)phenyl iodide", "Bis(trifluoroacetato)(phenyl)iodine", "I,I-Bis(trifluoroacetoxy)iodobenzene", "Iodobenzene di(trifluoroacetate)", "PIFA", "Phenylbis(trifluoroacetato-\u03baO)iodine", "BTIB", "Bis(trifluoroacetoxy)iodobenzne", "Phenylbis(trifluoroacetyloxy)iodine"], "SMILES": "I(OC(C(F)(F)F)=O)(OC(C(F)(F)F)=O)C1=CC=CC=C1", "physical_data": {"Molecular Weight": "430.04", "Molecular Formula": "C10H5F6IO4", "Melting Point": "122-124 \u00b0C"}}