{"cas_no": "27137-85-5", "cn_name": "\u4e8c\u6c2f\u82ef\u57fa\u4e09\u6c2f\u7845\u70f7", "en_name": ["Trichloro(dichlorophenyl)silane", "Benzene, dichloro(trichlorosilyl)-", "Silane, trichloro(dichlorophenyl)-", "Dichloro(trichlorosilyl)benzene", "(Dichlorophenyl)trichlorosilane", "Trichloro(dichlorophenyl)silane"], "SMILES": "", "physical_data": {"Molecular Weight": "", "Molecular Formula": "C6H3Cl5Si", "Boiling Point": "260 \u00b0C", "Density": "1.562 g/cm\u00b3"}}