{"cas_no": "2713-34-0", "cn_name": "3,5-\u4e8c\u6c1f\u82ef\u915a", "en_name": ["3,5-Difluorophenol", "Phenol, 3,5-difluoro-", "3,5-Difluorophenol"], "SMILES": "FC1=CC(F)=CC(O)=C1", "physical_data": {"Molecular Weight": "130.09", "Molecular Formula": "C6H4F2O", "Boiling Point": "80 \u00b0C @ Press: 15 mmHg", "Melting Point": "54.97 \u00b0C"}}