{"cas_no": "2713-31-7", "cn_name": "2,5-\u4e8c\u6c1f\u82ef\u915a", "en_name": ["2,5-Difluorophenol", "Phenol, 2,5-difluoro-", "2,5-Difluorophenol", "NSC 10288"], "SMILES": "OC1=C(F)C=CC(F)=C1", "physical_data": {"Molecular Weight": "130.09", "Molecular Formula": "C6H4F2O", "Melting Point": "41-42.5 \u00b0C"}}