{"cas_no": "27139-97-5", "cn_name": "2-\u6eb4-4-\u6c2f\u7532\u82ef", "en_name": ["2-Bromo-4-chloro-1-methylbenzene", "Benzene, 2-bromo-4-chloro-1-methyl-", "Toluene, 2-bromo-4-chloro-", "2-Bromo-4-chloro-1-methylbenzene", "2-Bromo-4-chlorotoluene"], "SMILES": "BrC1=C(C)C=CC(Cl)=C1", "physical_data": {"Molecular Weight": "205.48", "Molecular Formula": "C7H6BrCl", "Boiling Point": "80-100 \u00b0C @ Press: 2 Torr"}}