{"cas_no": "27138-31-4", "cn_name": "\u4e8c\u82ef\u7532\u9178\u4e8c\u805a\u4e19\u4e8c\u9187\u916f", "en_name": ["Benzoflex 9-88", "Propanol, oxybis-, dibenzoate", "Dipropylene glycol, dibenzoate", "Benzoflex 9-88", "PPG 2 dibenzoate", "Oxybispropanol dibenzoate", "Finsolv PG 22", "K-Flex DP", "PN 6120", "Benzoflex 9-88SG", "Benzoflex 9-98", "Benzoflex 9088", "ADK Cizer PN 6120", "Santicizer ER 9100", "LS-E 97", "Benzoflex 988SG", "Synegis 9100", "988SG", "BF 9-88"], "SMILES": "", "physical_data": {"Molecular Weight": "", "Molecular Formula": "C20H22O5", "Boiling Point": "235 \u00b0C @ Press: 5 Torr", "Density": "1.1245 g/cm\u00b3 @ Temp: 20 \u00b0C"}}