{"cas_no": "27147-71-3", "cn_name": "2-\u7532\u57fa\u5341\u516d\u70f7\u9178", "en_name": ["2-Methylhexadecanoic acid", "Hexadecanoic acid, 2-methyl-", "2-Methylhexadecanoic acid", "\u03b1-Methylpalmitic acid", "2-Methylpalmitic acid", "(dl)-2-Methylhexadecanoic acid"], "SMILES": "C(CCCCCCCCCCCC)CC(C(O)=O)C", "physical_data": {"Molecular Weight": "270.45", "Molecular Formula": "C17H34O2", "Boiling Point": "160 \u00b0C @ Press: 0.5 Torr", "Melting Point": "54 \u00b0C"}}