{"cas_no": "27143-07-3", "cn_name": "[(4-\u7532\u6c27\u57fa\u82ef\u57fa)\u80bc\u57fa]\u6c2f\u4e59\u9178\u4e59\u916f", "en_name": ["Ethyl 2-chloro-2-[2-(4-methoxyphenyl)hydrazono]acetate", "Acetic acid, 2-chloro-2-[2-(4-methoxyphenyl)hydrazinylidene]-, ethyl ester", "Glyoxylic acid, chloro-, ethyl ester, 2-[(p-methoxyphenyl)hydrazone]", "Acetic acid, chloro[(4-methoxyphenyl)hydrazono]-, ethyl ester", "Chloro[(4-methoxyphenyl)hydrazono]acetic acid ethyl ester", "Ethyl chloro[(4-methoxyphenyl)hydrazono]acetate", "Ethyl 2-chloro-2-[2-(4-methoxyphenyl)hydrazono]acetate", "Ethyl 2-chloro-2-[(4-methoxyphenyl)hydrazinylidene]acetate"], "SMILES": "N(N=C(C(OCC)=O)Cl)C1=CC=C(OC)C=C1", "physical_data": {"Molecular Weight": "256.69", "Molecular Formula": "C11H13ClN2O3", "Melting Point": "94 \u00b0C"}}