{"cas_no": "27159-32-6", "cn_name": "1-\u82c4\u6c28\u57fa-2-\u4e19\u9187", "en_name": ["1-[(Phenylmethyl)amino]-2-propanol", "2-Propanol, 1-[(phenylmethyl)amino]-", "2-Propanol, 1-(benzylamino)-", "1-[(Phenylmethyl)amino]-2-propanol", "1-(Benzylamino)-2-propanol", "NSC 32409", "NSC 34079", "3-Benzylaminopropan-2-ol"], "SMILES": "C(NCC(C)O)C1=CC=CC=C1", "physical_data": {"Molecular Weight": "165.23", "Molecular Formula": "C10H15NO", "Boiling Point": "142 \u00b0C @ Press: 12 Torr", "Density": "1.0250 g/cm\u00b3 @ Temp: 20 \u00b0C"}}