{"cas_no": "2716-10-1", "cn_name": "\u0391,\u0391'-\u4e8c(4-\u6c28\u57fa\u82ef\u57fa)-1,4-\u4e8c\u5f02\u4e19\u57fa\u82ef", "en_name": ["4,4\u2032-[1,4-Phenylenebis(1-methylethylidene)]bis[benzenamine]", "Benzenamine, 4,4\u2032-[1,4-phenylenebis(1-methylethylidene)]bis-", "Cumidine, \u03b1,\u03b1\u2032-p-phenylenedi-", "4,4\u2032-[1,4-Phenylenebis(1-methylethylidene)]bis[benzenamine]", "4,4\u2032-(p-Phenylenediisopropylidene)dianiline", "Epon HPT 1061", "1,4-Bis(p-aminocumyl)benzene", "Epon HPT 1062M", "Bis A-P", "1,4-Bis[1-(4-aminophenyl)-1-methylethyl]benzene", "Bisaniline P", "1,4-Bis(4-aminophenylisopropylidene)benzene", "4,4\u2032-(p-Phenylenediisopropylidene)bisaniline", "4,4\u2032-(1,4-Phenylenediisopropylidene)bisaniline", "4,4\u2032-(1,4-Phenylenediisopropylidene)diphenylamine", "1,4-Bis[2-(4-aminophenyl)propan-2-yl]benzene", "4,4\u2032-[1,4-Phenylenebis(1-methylethylidene)]bisaniline", "2,2\u2032-Bis(4-aminophenyl)-p-diisopropylbenzene", "1,4-Bis[2-(4-aminophenyl)-2-propyl]benzene", "1,4-Bis(4-amino-\u03b1,\u03b1-dimethylbenzyl)benzene", "Curing agent 1061"], "SMILES": "C(C)(C)(C1=CC=C(C(C)(C)C2=CC=C(N)C=C2)C=C1)C3=CC=C(N)C=C3", "physical_data": {"Molecular Weight": "344.49", "Molecular Formula": "C24H28N2", "Boiling Point": "230 \u00b0C @ Press: 0.1 Torr", "Melting Point": "163 \u00b0C"}}