{"cas_no": "27176-87-0", "cn_name": "\u5341\u4e8c\u70f7\u57fa\u82ef\u78fa\u9178", "en_name": ["Dodecylbenzenesulfonic acid", "Benzenesulfonic acid, dodecyl-", "Dodecylbenzenesulfonic acid", "Laurylbenzenesulfonic acid", "n-Dodecylbenzenesulfonic acid", "E 7256", "Nacconol 98SA", "Nansa SSA", "Elfan WA Sulfonic Acid", "Calsoft LAS 99", "Sulframin Acid 1298", "Sulframin 1298", "Richonic Acid B", "Marlon AS 3", "Nansa 1042P", "Bio-Soft S 100", "LAS 99", "DBS", "P 3 Vetralat", "Polystep A 13", "Cycat 600", "Nacure 5076", "Catalyst 6000", "Cat 6000", "Sulfosoft", "ABS 100", "Nacure 5074", "Catalyst 600", "Bio-Soft S 126", "Nansa 1042", "Witco 1298", "Pelex F 25", "Lipon LH 500", "Soft Osen 5S", "Ufacid K", "S 100", "Witco 1298 Soft Acid", "Witco 1298 Acid Soft", "Ambicat LE 4476", "Maranil DBS", "Neopelex FS", "Taycapower L 122", "Taycacure AC 430", "Bio-Soft S 101", "Neopelex GS", "Rhodacal SSA/A", "Dobanic acid", "Taycapower L 120D", "A 40S", "Taycapower L 121", "B 121", "Witconic 1298 Hard Acid", "Neopelex GS-P", "Witconic 1298 Soft Acid", "Statsafe 6000", "LABS", "LABS (detergent)", "Taycatox 120", "Witconic 1298H", "Bio-Soft LA acid", "Vanwet acid 98", "LE 4476", "CATA CFC 5019KC", "Taycapower B 121", "Taycacure AC 450", "Nacure 5525", "XP 221", "Lunan A 98", "A 98", "83X822", "Taycacure AC 400S", "DBSA", "DDBSA", "Nacure XP 221"], "SMILES": "", "physical_data": {"Molecular Weight": "", "Molecular Formula": "C18H30O3S", "Melting Point": "10 \u00b0C", "Density": "1 g/cm\u00b3 @ Temp: 25 \u00b0C"}}