{"cas_no": "2718-25-4", "cn_name": "\u4e3d\u6625\u82b1\u78b1", "en_name": ["(5bR,13bR,15S)-5b,6,7,8,13b,15-Hexahydro-15-methoxy-6-methyl[1,3]dioxolo[4,5-h]-1,3-dioxolo[7,8][2]benzopyrano[3,4-a][3]benzazepine", "[1,3]Dioxolo[4,5-h]-1,3-dioxolo[7,8][2]benzopyrano[3,4-a][3]benzazepine, 5b,6,7,8,13b,15-hexahydro-15-methoxy-6-methyl-, (5bR,13bR,15S)-", "Rheadine", "Rhoeadine", "Rheadan, 8-methoxy-16-methyl-2,3:10,11-bis[methylenebis(oxy)]-, (8\u03b2)-", "(5bR,13bR,15S)-5b,6,7,8,13b,15-Hexahydro-15-methoxy-6-methyl[1,3]dioxolo[4,5-h]-1,3-dioxolo[7,8][2]benzopyrano[3,4-a][3]benzazepine", "Rhoeadin", "[1,3]Dioxolo[4,5-h]-1,3-dioxolo[7,8][2]benzopyrano[3,4-a][3]benzazepine, 5b,6,7,8,13b,15-hexahydro-15-methoxy-6-methyl-, [5bR-(5b\u03b1,13b\u03b1,15\u03b1)]-"], "SMILES": "CN1C2C(C=3C(=CC4=C(C3)OCO4)CC1)OC(OC)C=5C2=CC=C6C5OCO6", "physical_data": {"Molecular Weight": "383.39", "Molecular Formula": "C21H21NO6", "Melting Point": "256-257.5 \u00b0C"}}