{"cas_no": "27187-13-9", "cn_name": "5-\u6c2f-[1,2,4]\u4e09\u5511\u5e76[4,3-A]\u5421\u5576", "en_name": ["5-Chloro-1,2,4-triazolo[4,3-a]pyridine", "1,2,4-Triazolo[4,3-a]pyridine, 5-chloro-", "s-Triazolo[4,3-a]pyridine, 5-chloro-", "5-Chloro-1,2,4-triazolo[4,3-a]pyridine", "NSC 289808", "5-Chloro-[1,2,4]triazolo[4,3-a]pyridine"], "SMILES": "ClC=1N2C(C=CC1)=NN=C2", "physical_data": {"Molecular Weight": "153.57", "Molecular Formula": "C6H4ClN3", "Melting Point": "87-89 \u00b0C"}}