{"cas_no": "2719-52-0", "cn_name": "2-\u82ef\u57fa\u620a\u70f7", "en_name": ["2-Phenylpentane", "Benzene, (1-methylbutyl)-", "(1-Methylbutyl)benzene", "2-Phenylpentane", "1-Phenyl-1-methylbutane", "(2-Amyl)benzene", "(\u00b1)-(1-Methylbutyl)benzene", "(Pentan-2-yl)benzene"], "SMILES": "C(CCC)(C)C1=CC=CC=C1", "physical_data": {"Molecular Weight": "148.24", "Molecular Formula": "C11H16", "Boiling Point": "199 \u00b0C", "Density": "0.903 g/cm\u00b3 @ Temp: 13 \u00b0C"}}