{"cas_no": "2719-27-9", "cn_name": "\u73af\u5df1\u7532\u9170\u6c2f", "en_name": ["Cyclohexanecarbonyl chloride", "Cyclohexanecarbonyl chloride", "Cyclohexylcarbonyl chloride", "(Chlorocarbonyl)cyclohexane", "Hexahydrobenzoyl chloride", "Cyclohexanecarboxylic acid chloride", "Cyclohexanoyl chloride", "NSC 85181", "Cyclohexanoic acid chloride"], "SMILES": "C(Cl)(=O)C1CCCCC1", "physical_data": {"Molecular Weight": "146.61", "Molecular Formula": "C7H11ClO", "Boiling Point": "180 \u00b0C"}}