{"cas_no": "2719-08-6", "cn_name": "2-\u4e59\u9170\u82ef\u7532\u9178\u7532\u916f", "en_name": ["Methyl N-acetylanthranilate", "Benzoic acid, 2-(acetylamino)-, methyl ester", "Anthranilic acid, N-acetyl-, methyl ester", "Methyl N-acetylanthranilate", "Methyl N-acetoanthranilate", "o-Acetamidobenzoic acid methyl ester", "Methyl 2-acetamidobenzoate", "Methyl 2-(acetylamino)benzoate", "o-(Methoxycarbonyl)acetanilide", "NSC 45919", "N-(2-(Methoxycarbonyl)phenyl) acetamide", "2-(Acetylamino)benzoic acid methyl ester"], "SMILES": "N(C(C)=O)C1=C(C(OC)=O)C=CC=C1", "physical_data": {"Molecular Weight": "193.20", "Molecular Formula": "C10H11NO3", "Melting Point": "99-100 \u00b0C"}}