{"cas_no": "2719-23-5", "cn_name": "2-\u4e59\u9170\u80fa\u57fa\u567b\u5511", "en_name": ["N-2-Thiazolylacetamide", "Acetamide, N-2-thiazolyl-", "Thiazole, 2-acetamido-", "N-2-Thiazolylacetamide", "2-Acetamidothiazole", "2-Acetamido-1,3-thiazole", "2-Acetylaminothiazole", "NSC 18750", "NSC 44844", "N-(1,3-Thiazol-2-yl)acetamide", "2-(Methylcarbonylamino)thiazole"], "SMILES": "N(C(C)=O)C1=NC=CS1", "physical_data": {"Molecular Weight": "142.18", "Molecular Formula": "C5H6N2OS", "Melting Point": "208 \u00b0C"}}