{"cas_no": "27193-28-8", "cn_name": "\u8f9b\u57fa\u82ef\u915a", "en_name": ["Octylphenol", "Phenol, (1,1,3,3-tetramethylbutyl)-", "Phenol, octyl-", "(1,1,3,3-Tetramethylbutyl)phenol", "Octylphenol", "tert-Octylphenol"], "SMILES": "", "physical_data": {"Molecular Weight": "", "Molecular Formula": "C14H22O", "Boiling Point": "305-309 \u00b0C", "Melting Point": "44-44.5 \u00b0C", "Density": "0.9392 g/cm\u00b3 @ Temp: 20 \u00b0C"}}