{"cas_no": "2719-14-4", "cn_name": "N-(4 - \u7532\u57fa-3 - \u785d\u57fa\u82ef\u57fa)\u4e59\u9170\u80fa", "en_name": ["N-(4-Methyl-3-nitrophenyl)acetamide", "Acetamide, N-(4-methyl-3-nitrophenyl)-", "p-Acetotoluidide, 3\u2032-nitro-", "N-(4-Methyl-3-nitrophenyl)acetamide", "2-Nitro-4-acetamidotoluene", "4-(N-Acetylamino)-2-nitrotoluene", "2-Nitro-4-(acetylamino)toluene", "3\u2032-Nitro-p-acetotoluidide", "4\u2032-Methyl-3\u2032-nitroacetanilide", "4-Acetamido-2-nitrotoluene", "4-Acetylamino-2-nitrotoluene", "NSC 202380", "NSC 86673"], "SMILES": "N(C(C)=O)C1=CC(N(=O)=O)=C(C)C=C1", "physical_data": {"Molecular Weight": "194.19", "Molecular Formula": "C9H10N2O3", "Melting Point": "148.5 \u00b0C"}}