{"cas_no": "27193-86-8", "cn_name": "\u5341\u4e8c\u70f7\u57fa\u915a", "en_name": ["Dodecylphenol", "Phenol, dodecyl-", "Dodecylphenol", "ADX 100", "n-Dodecylphenol"], "SMILES": "", "physical_data": {"Molecular Weight": "", "Molecular Formula": "C18H30O", "Boiling Point": "314-334 \u00b0C", "Density": "0.94 g/cm\u00b3 @ Temp: 20 \u00b0C"}}