{"cas_no": "2719-32-6", "cn_name": "4-\u6c30\u57fa\u82ef\u57fa\u5f02\u786b\u6c30\u9178\u916f", "en_name": ["4-Cyanophenyl isothiocyanate", "Benzonitrile, 4-isothiocyanato-", "Isothiocyanic acid, p-cyanophenyl ester", "4-Isothiocyanatobenzonitrile", "p-Cyanophenyl isothiocyanate", "4-Cyanophenyl isothiocyanate"], "SMILES": "N(=C=S)C1=CC=C(C#N)C=C1", "physical_data": {"Molecular Weight": "160.20", "Molecular Formula": "C8H4N2S", "Melting Point": "121 \u00b0C"}}