{"cas_no": "2719-40-6", "cn_name": "3-\u6c2f-4-\u7532\u57fa\u6c2f\u82c4", "en_name": ["2-Chloro-4-(chloromethyl)-1-methylbenzene", "Benzene, 2-chloro-4-(chloromethyl)-1-methyl-", "p-Xylene, \u03b14,2-dichloro-", "2-Chloro-4-(chloromethyl)-1-methylbenzene", "3-Chloro-4-methylbenzyl chloride", "3-Chloro-1-(chloromethyl)-4-methylbenzene", "\u03b14,2-Dichloro-p-xylene", "1-Methyl-2-chloro-4-chloromethylbenzene"], "SMILES": "C(Cl)C1=CC(Cl)=C(C)C=C1", "physical_data": {"Molecular Weight": "175.06", "Molecular Formula": "C8H8Cl2", "Boiling Point": "124 \u00b0C @ Press: 20 Torr"}}