{"cas_no": "2719-21-3", "cn_name": "4-\u4e59\u9170\u80fa\u57fa\u82ef\u4e59\u916e", "en_name": ["N-(4-Acetylphenyl)acetamide", "Acetamide, N-(4-acetylphenyl)-", "Acetanilide, 4\u2032-acetyl-", "N-(4-Acetylphenyl)acetamide", "4-Acetamidoacetophenone", "4\u2032-Acetylacetanilide", "p-Acetamidoacetophenone", "4\u2032-Acetamidoacetophenone", "p-Acetylaminoacetophenone", "4\u2032-(Acetylamino)acetophenone", "4-(Acetylamino)phenyl methyl ketone", "NSC 39449", "p-Acetylacetanilide"], "SMILES": "N(C(C)=O)C1=CC=C(C(C)=O)C=C1", "physical_data": {"Molecular Weight": "177.20", "Molecular Formula": "C10H11NO2", "Melting Point": "171 \u00b0C"}}