{"cas_no": "2719-15-5", "cn_name": "2-\u7532\u57fa-4-\u785d\u57fa\u4e59\u9170\u82ef\u80fa", "en_name": ["N-(2-Methyl-4-nitrophenyl)acetamide", "Acetamide, N-(2-methyl-4-nitrophenyl)-", "o-Acetotoluidide, 4\u2032-nitro-", "N-(2-Methyl-4-nitrophenyl)acetamide", "2\u2032-Methyl-4\u2032-nitroacetanilide", "Acetyl-p-nitro-o-toluidine", "5-Nitro-2-acetamidotoluene", "NSC 29042"], "SMILES": "N(C(C)=O)C1=C(C)C=C(N(=O)=O)C=C1", "physical_data": {"Molecular Weight": "194.19", "Molecular Formula": "C9H10N2O3", "Melting Point": "150-151 \u00b0C"}}