{"cas_no": "272-67-3", "cn_name": "\u567b\u5429[3,2-B]\u5421\u5576", "en_name": ["Thieno[3,2-b]pyridine", "Thieno[3,2-b]pyridine"], "SMILES": "C1=2C(SC=C1)=CC=CN2", "physical_data": {"Molecular Weight": "135.19", "Molecular Formula": "C7H5NS", "Boiling Point": "107-108 \u00b0C @ Press: 10 Torr"}}