{"cas_no": "272-12-8", "cn_name": "\u567b\u5429[2,3-C]\u5e76\u5421\u5576", "en_name": ["Thieno[2,3-c]pyridine", "Thieno[2,3-c]pyridine", "6-Azabenzo[b]thiophene", "6-Azathianaphthene", "NSC 152396"], "SMILES": "C1=2C(SC=C1)=CN=CC2", "physical_data": {"Molecular Weight": "135.19", "Molecular Formula": "C7H5NS", "Boiling Point": "68 \u00b0C @ Press: 0.5 Torr", "Melting Point": "54-55 \u00b0C"}}