{"cas_no": "272-14-0", "cn_name": "\u567b\u5429[3,2-C]\u5e76\u5421\u5576", "en_name": ["Thieno[3,2-c]pyridine", "Thieno[3,2-c]pyridine", "5-Azathianaphthene"], "SMILES": "C1=2C(SC=C1)=CC=NC2", "physical_data": {"Molecular Weight": "135.19", "Molecular Formula": "C7H5NS", "Melting Point": "42-43 \u00b0C"}}