{"cas_no": "272-49-1", "cn_name": "4-\u6c2e\u6742\u5432\u54da", "en_name": ["1H-Pyrrolo[3,2-b]pyridine", "1H-Pyrrolo[3,2-b]pyridine", "1,4-Diazaindene", "4-Azaindole"], "SMILES": "C1=2C(NC=C1)=CC=CN2", "physical_data": {"Molecular Weight": "118.14", "Molecular Formula": "C7H6N2", "Melting Point": "127-128 \u00b0C"}}