{"cas_no": "272-62-8", "cn_name": "FURO{3,2-B}\u5421\u5576", "en_name": ["Furo[3,2-b]pyridine", "Furo[3,2-b]pyridine"], "SMILES": "C1=2C(OC=C1)=CC=CN2", "physical_data": {"Molecular Weight": "119.12", "Molecular Formula": "C7H5NO", "Boiling Point": "79-80 \u00b0C @ Press: 12 Torr"}}