{"cas_no": "27208-37-3", "cn_name": "\u73af\u620a\u70ef(C,D)\u8298", "en_name": ["Cyclopenta[cd]pyrene", "Cyclopenta[cd]pyrene", "Acepyrene", "Acepyrylene", "Cyclopenta[c,d]pyrene"], "SMILES": "C12=C3C4=CC=5C1=C(C=CC2=CC=C3C=C4)C=CC5", "physical_data": {"Molecular Weight": "226.27", "Molecular Formula": "C18H10", "Melting Point": "174-176 \u00b0C"}}