{"cas_no": "27208-80-6", "cn_name": "\u864e\u6756\u7519", "en_name": ["Polydatin", "\u03b2-D-Glucopyranoside, 3-hydroxy-5-[(1E)-2-(4-hydroxyphenyl)ethenyl]phenyl", "Piceid", "\u03b2-D-Glucopyranoside, 3-hydroxy-5-[2-(4-hydroxyphenyl)ethenyl]phenyl, (E)-", "3-Hydroxy-5-[(1E)-2-(4-hydroxyphenyl)ethenyl]phenyl \u03b2-D-glucopyranoside", "Polydatin", "(E)-Polydatin", "trans-Piceid", "trans-Polydatin", "3-Hydroxy-5-(p-hydroxystyryl)phenyl \u03b2-D-glucoside", "(E)-Piceid", "Resveratrol 3-O-\u03b2-glucopyranoside", "(E)-Resveratrol 3-O-\u03b2-D-glucopyranoside", "Pieceid", "Polydotin peceid", "Resveratrol 3-O-\u03b2-D-glucoside", "(-)-trans-Resveratrol 13-O-\u03b2-D-glucopyranoside", "trans-Resveratrol 3-glucoside", "Resveratrol glucoside", "Resveratrol \u03b2-D-glucoside", "Resveratrol \u03b2-glucoside", "3-O-Glucosyl-resveratrol", "Resveratrol 3-O-glucoside"], "SMILES": "O(C1OC(CO)C(O)C(O)C1O)C2=CC(C=CC3=CC=C(O)C=C3)=CC(O)=C2", "physical_data": {"Molecular Weight": "390.38", "Molecular Formula": "C20H22O8", "Melting Point": "225-226 \u00b0C"}}