{"cas_no": "2720-73-2", "cn_name": "\u6b63\u620a\u57fa\u9ec4\u539f\u9178\u94be", "en_name": ["Potassium amylxanthate", "Carbonodithioic acid, O-pentyl ester, potassium salt (1:1)", "Carbonic acid, dithio-, O-pentyl ester, potassium salt", "Carbonodithioic acid, O-pentyl ester, potassium salt", "Xanthic acid, pentyl-, potassium salt", "Potassium n-amylxanthogenate", "Potassium amylxanthate", "Potassium pentyl xanthate", "Potassium amylxanthogenate", "Potassium pentyl xanthogenate", "Aeroxanthate 350", "Amyl potassium xanthate", "Z 6", "Z 6 (flotation agent)", "Cyanamic A 350"], "SMILES": "C(OC(=S)S)CCCC.[K]", "physical_data": {"Molecular Weight": "", "Molecular Formula": "C6H12OS2.K", "Melting Point": "235-237 \u00b0C"}}