{"cas_no": "27200-12-0", "cn_name": "\u4e8c\u6c22\u6768\u6885\u7d20", "en_name": ["(+)-Dihydromyricetin", "4H-1-Benzopyran-4-one, 2,3-dihydro-3,5,7-trihydroxy-2-(3,4,5-trihydroxyphenyl)-, (2R,3R)-", "Flavanone, 3,3\u2032,4\u2032,5,5\u2032,7-hexahydroxy-", "4H-1-Benzopyran-4-one, 2,3-dihydro-3,5,7-trihydroxy-2-(3,4,5-trihydroxyphenyl)-, (2R-trans)-", "Ampelopsin", "(2R,3R)-2,3-Dihydro-3,5,7-trihydroxy-2-(3,4,5-trihydroxyphenyl)-4H-1-benzopyran-4-one", "Dihydromyricetin", "Ampelopsin (flavanol)", "Ampeloptin", "(+)-Dihydromyricetin", "(+)-Ampelopsin", "REL-Eqyms 98"], "SMILES": "O=C1C=2C(OC(C1O)C3=CC(O)=C(O)C(O)=C3)=CC(O)=CC2O", "physical_data": {"Molecular Weight": "320.25", "Molecular Formula": "C15H12O8", "Melting Point": "239-241 \u00b0C"}}