{"cas_no": "27205-03-4", "cn_name": "\u4e8c[4-(2-\u7f9f\u57fa\u4e59\u6c27\u57fa)\u82ef\u57fa]\u781c", "en_name": ["2,2\u2032-[Sulfonylbis(4,1-phenyleneoxy)]bis[ethanol]", "Ethanol, 2,2\u2032-[sulfonylbis(4,1-phenyleneoxy)]bis-", "Ethanol, 2,2\u2032-[sulfonylbis(p-phenyleneoxy)]di-", "2,2\u2032-[Sulfonylbis(4,1-phenyleneoxy)]bis[ethanol]", "Bis[4-(2-hydroxyethoxy)phenyl] sulfone", "SEO 2", "Bis[4-(\u03b2-hydroxyethoxy)phenyl] sulfone", "SE 2", "SE 2 (sulfone)", "Bisphenol S bis(2-hydroxyethyl) ether", "NSC 15880", "Bisphenol S-ethylene oxide 1:2 adduct", "2,2\u2032-((Sulfonylbis(4,1-phenylene))bis(oxy))diethanol", "2-[4-[4-(2-Hydroxyethoxy)phenyl]sulfonylphenoxy]ethanol"], "SMILES": "S(=O)(=O)(C1=CC=C(OCCO)C=C1)C2=CC=C(OCCO)C=C2", "physical_data": {"Molecular Weight": "338.38", "Molecular Formula": "C16H18O6S", "Melting Point": "184 \u00b0C"}}