{"cas_no": "2720-67-4", "cn_name": "\u4e19\u78fa\u539f\u9178\u94be\u76d0", "en_name": ["Potassium propyl xanthate", "Carbonodithioic acid, O-propyl ester, potassium salt (1:1)", "Carbonic acid, dithio-, O-propyl ester, potassium salt", "Carbonodithioic acid, O-propyl ester, potassium salt", "Xanthic acid, propyl-, potassium salt", "Potassium O-propyl xanthate", "Propyl potassium xanthate", "Potassium propyl xanthogenate", "Potassium n-propyl xanthate", "Potassium propyl xanthate", "Potassium O-propyl dithiocarbonate", "Potassium propyl dithiocarbonate"], "SMILES": "O(C(=S)S)CCC.[K]", "physical_data": {"Molecular Weight": "", "Molecular Formula": "C4H8OS2.K", "Melting Point": "228-230 \u00b0C"}}