{"cas_no": "2721-22-4", "cn_name": "\u4e01\u4f4d\u5341\u56db\u5185\u916f", "en_name": ["\u03b4-Tetradecalactone", "2H-Pyran-2-one, tetrahydro-6-nonyl-", "Tetradecanoic acid, 5-hydroxy-, \u03b4-lactone", "Tetrahydro-6-nonyl-2H-pyran-2-one", "5-Hydroxytetradecanoic acid \u03b4-lactone", "\u03b4-Tetradecalactone", "Tetradecanoic acid \u03b4-lactone", "\u03b4-Nonyl-\u03b4-valerolactone", "\u03b4-Tetradecane lactone", "5-Tetradecanolide", "\u03b4-Tetradecanolactone", "6-Nonyltetrahydro-2H-pyran-2-one"], "SMILES": "C(CCCCCCCC)C1OC(=O)CCC1", "physical_data": {"Molecular Weight": "226.35", "Molecular Formula": "C14H26O2", "Boiling Point": "290 \u00b0C"}}