{"cas_no": "27215-14-1", "cn_name": "\u65b0\u7a7f\u5fc3\u83b2\u5185\u916f", "en_name": ["Neoandrographolide", "2(5H)-Furanone, 3-[2-[(1R,4aS,5R,8aS)-5-[(\u03b2-D-glucopyranosyloxy)methyl]decahydro-5,8a-dimethyl-2-methylene-1-naphthalenyl]ethyl]-", "5\u03b2,9\u03b2H,10\u03b1-Labda-8(20),13-dien-16-oic acid, 18-(glucosyloxy)-15-hydroxy-, \u03b3-lactone", "2(5H)-Furanone, 3-[2-[5-[(\u03b2-D-glucopyranosyloxy)methyl]decahydro-5,8a-dimethyl-2-methylene-1-naphthalenyl]ethyl]-, [1R-(1\u03b1,4a\u03b2,5\u03b1,8a\u03b1)]-", "3-[2-[(1R,4aS,5R,8aS)-5-[(\u03b2-D-Glucopyranosyloxy)methyl]decahydro-5,8a-dimethyl-2-methylene-1-naphthalenyl]ethyl]-2(5H)-furanone", "Neoandrographolide", "Neoandrographiside"], "SMILES": "CC12C(C(COC3OC(CO)C(O)C(O)C3O)(C)CCC1)CCC(=C)C2CCC=4C(=O)OCC4", "physical_data": {"Molecular Weight": "480.59", "Molecular Formula": "C26H40O8", "Melting Point": "174.0-174.5 \u00b0C"}}