{"cas_no": "27210-57-7", "cn_name": "\u4e39\u53c2\u65b0\u916e", "en_name": ["Miltirone", "3,4-Phenanthrenedione, 5,6,7,8-tetrahydro-8,8-dimethyl-2-(1-methylethyl)-", "3,4-Phenanthrenedione, 5,6,7,8-tetrahydro-2-isopropyl-8,8-dimethyl-", "5,6,7,8-Tetrahydro-8,8-dimethyl-2-(1-methylethyl)-3,4-phenanthrenedione", "Miltirone", "Miltiron", "Rosmariquinone", "NSC 639662"], "SMILES": "O=C1C=2C3=C(C=CC2C=C(C(C)C)C1=O)C(C)(C)CCC3", "physical_data": {"Molecular Weight": "282.38", "Molecular Formula": "C19H22O2", "Melting Point": "97-99 \u00b0C"}}