{"cas_no": "27215-38-9", "cn_name": "\u7518\u6cb9\u5355\u6708\u6842\u9178\u916f", "en_name": ["Monolaurin", "Dodecanoic acid, monoester with 1,2,3-propanetriol", "Laurin, mono-", "Monolaurin", "Monoglycerol laurate", "Lauric acid monoglyceride", "Monododecanoyl glycerol", "Glycerol monolaurate", "Glycerol laurate", "Aldo MLD", "Glycerin monolaurate", "Monomuls L 90", "Lauric monoglyceride", "Monomuls 90L12", "Grindtek ML 90", "Lauricidin R", "Sunsoft 757", "Glycerol monododecanoate", "Poem M 300", "Lauricidin 802", "Lauricidin 812", "Sunsoft 750", "Monolauroylglycerin", "Glyceryl monolaurate", "Tegin L 90", "Cithrol GML", "Aldo MLD-K-FG", "Dimodan ML 90", "M 300", "Glycerox L 8", "Imwitor 312", "Rikemal M 300", "Lauracidin", "Rylo-MG 12", "NSC 4837", "Monolauroyl glycerol", "Denon 2659", "ML-G 0081", "Monomuls 90-45", "Sunsoft 750H", "Electrostripper TS 14B", "Monomuls 90L2", "Glycerin lauric acid monoester", "TS 14B", "Poem M 300PNA", "Radiamuls 2549", "Sunsoft 750C", "Durosoft GML", "Colonial Monolaurin"], "SMILES": "", "physical_data": {"Molecular Weight": "", "Molecular Formula": "C15H30O4", "Melting Point": "50 \u00b0C"}}