{"cas_no": "2722-36-3", "cn_name": "3-\u82ef\u57fa\u4e01\u9187", "en_name": ["\u03b3-Methylbenzenepropanol", "Benzenepropanol, \u03b3-methyl-", "1-Butanol, 3-phenyl-", "\u03b3-Methylbenzenepropanol", "ENT 11558", "3-Phenylbutanol", "3-Methyl-3-phenyl-1-propanol", "3-Phenyl-1-butanol", "3-Phenylbutyl alcohol", "(\u00b1)-3-Phenyl-1-butanol"], "SMILES": "C(CCO)(C)C1=CC=CC=C1", "physical_data": {"Molecular Weight": "150.22", "Molecular Formula": "C10H14O", "Boiling Point": "128-129 \u00b0C @ Press: 16 Torr", "Density": "0.9826 g/cm\u00b3 @ Temp: 20 \u00b0C"}}