{"cas_no": "27220-47-9", "cn_name": "\u76ca\u5eb7\u5511", "en_name": ["Econazole", "1H-Imidazole, 1-[2-[(4-chlorophenyl)methoxy]-2-(2,4-dichlorophenyl)ethyl]-", "Imidazole, 1-[2,4-dichloro-\u03b2-[(p-chlorobenzyl)oxy]phenethyl]-", "1-[2-[(4-Chlorophenyl)methoxy]-2-(2,4-dichlorophenyl)ethyl]-1H-imidazole", "Econazole", "1-[2,4-Dichloro-\u03b2-[(p-chlorobenzyl)oxy]phenethyl]imidazole", "(\u00b1)-Econazole", "NSC 187789", "1-[2-[(4-Chlorophenyl)methoxy]-2-(2,4-dichlorophenyl)ethyl]imidazole", "MeSH ID: D004464"], "SMILES": "C(CN1C=CN=C1)(OCC2=CC=C(Cl)C=C2)C3=C(Cl)C=C(Cl)C=C3", "physical_data": {"Molecular Weight": "381.68", "Molecular Formula": "C18H15Cl3N2O", "Melting Point": "86.8 \u00b0C"}}