{"cas_no": "27231-36-3", "cn_name": "2-\u5def\u57fa-5-\u7532\u57fa\u82ef\u5e76\u54aa\u5511", "en_name": ["2-Mercapto-5-methylbenzimidazole", "2H-Benzimidazole-2-thione, 1,3-dihydro-5-methyl-", "2-Benzimidazolinethione, 5-methyl-", "2-Benzimidazolethiol, 5(or 6)-methyl-", "1,3-Dihydro-5-methyl-2H-benzimidazole-2-thione", "2-Mercapto-5-methylbenzimidazole", "5-Methyl-2-mercaptobenzimidazole", "5-Methylbenzimidazole-2-thiol", "5-Methylbenzimidazoline-2-thione", "2-Mercapto-5-methyl-1H-benzimidazole", "NSC 231400", "5-Methyl-2-mercapto-1H-benzimidazole", "5-Methyl-1H-benzimidazole-2-thiol", "2-Mercapto-5-methylbenzimidaole", "5-Methyl-1,3-dihydro-2H-benzimidazole-2-thione"], "SMILES": "S=C1NC=2C(N1)=CC(C)=CC2", "physical_data": {"Molecular Weight": "164.23", "Molecular Formula": "C8H8N2S", "Melting Point": "290-292 \u00b0C"}}