{"cas_no": "2724-58-5", "cn_name": "\u5f02\u786c\u8102\u9178", "en_name": ["Isostearic acid", "Heptadecanoic acid, 16-methyl-", "16-Methylheptadecanoic acid", "Isooctadecanoic acid", "Isostearic acid", "Emersol 873", "Prisorine 3509", "Ar Prisorine 3505", "16-Methylmargaric acid"], "SMILES": "C(CC(C)C)CCCCCCCCCCCCC(O)=O", "physical_data": {"Molecular Weight": "284.48", "Molecular Formula": "C18H36O2", "Melting Point": "67.8-68.5 \u00b0C"}}