{"cas_no": "272451-65-7", "cn_name": "\u6c1f\u866b\u53cc\u9170\u80fa", "en_name": ["Flubendiamide", "1,2-Benzenedicarboxamide, N2-[1,1-dimethyl-2-(methylsulfonyl)ethyl]-3-iodo-N1-[2-methyl-4-[1,2,2,2-tetrafluoro-1-(trifluoromethyl)ethyl]phenyl]-", "N2-[1,1-Dimethyl-2-(methylsulfonyl)ethyl]-3-iodo-N1-[2-methyl-4-[1,2,2,2-tetrafluoro-1-(trifluoromethyl)ethyl]phenyl]-1,2-benzenedicarboxamide", "Flubendiamide", "RIL 038", "NNI 0001", "Belt", "Synapse", "Synapse (insecticide)", "Takumi", "Fame (insecticide)", "Fame", "Phoenix", "Phoenix (diamide insecticide)", "Takumi (insecticide)", "Belt 480SC", "Fenos", "3-Iodo-N2-(2-methyl-1-(methylsulfonyl)propan-2-yl)-N1-(2-methyl-4-(perfluoropropan-2-yl)phenyl)phthalamide"], "SMILES": "C(C(F)(F)F)(C(F)(F)F)(F)C1=CC(C)=C(NC(=O)C2=C(C(NC(CS(C)(=O)=O)(C)C)=O)C(I)=CC=C2)C=C1", "physical_data": {"Molecular Weight": "682.39", "Molecular Formula": "C23H22F7IN2O4S", "Melting Point": "217.5-220.7 \u00b0C"}}