{"cas_no": "2724-69-8", "cn_name": "1-\u7532\u57fa-3-\u82ef\u57fa\u786b\u8132", "en_name": ["N-Methyl-N\u2032-phenylthiourea", "Thiourea, N-methyl-N\u2032-phenyl-", "Urea, 1-methyl-3-phenyl-2-thio-", "N-Methyl-N\u2032-phenylthiourea", "1-Methyl-3-phenyl-2-thiourea", "1-Methyl-3-phenylthiourea", "1-Methyl-3-phenylthiocarbamide", "1-Phenyl-3-methylthiourea", "N-Phenyl-N\u2032-methylthiourea", "N1-Methyl-N2-phenylthiourea", "NSC 3736", "3-Methyl-1-phenylthiourea"], "SMILES": "N(C(NC)=S)C1=CC=CC=C1", "physical_data": {"Molecular Weight": "166.24", "Molecular Formula": "C8H10N2S", "Melting Point": "111-113 \u00b0C"}}