{"cas_no": "27246-81-7", "cn_name": "3-\u6eb4\u82ef\u80bc\u76d0\u9178\u76d0", "en_name": ["3-Bromophenylhydrazine hydrochloride", "Hydrazine, (3-bromophenyl)-, hydrochloride (1:1)", "Hydrazine, (m-bromophenyl)-, monohydrochloride", "Hydrazine, (3-bromophenyl)-, monohydrochloride", "Hydrazine, (m-bromophenyl)-, hydrochloride", "m-Bromphenylhydrazine hydrochloride", "3-Bromophenylhydrazine hydrochloride", "1-(3-Bromophenyl)hydrazine hydrochloride"], "SMILES": "N(N)C1=CC(Br)=CC=C1.Cl", "physical_data": {"Molecular Weight": "", "Molecular Formula": "C6H7BrN2.ClH", "Melting Point": "228-230 \u00b0C"}}