{"cas_no": "27241-31-2", "cn_name": "1-(2,4,6-\u4e09\u6c2f\u82ef\u57fa)-3-\u6c28\u57fa-5-\u5421\u5511\u916e", "en_name": ["1-(2,4,6-Trichlorophenyl)-3-amino-5-pyrazolone", "3H-Pyrazol-3-one, 5-amino-2,4-dihydro-2-(2,4,6-trichlorophenyl)-", "2-Pyrazolin-5-one, 3-amino-1-(2,4,6-trichlorophenyl)-", "5-Amino-2,4-dihydro-2-(2,4,6-trichlorophenyl)-3H-pyrazol-3-one", "1-(2,4,6-Trichlorophenyl)-3-anilinopyrazolone", "1-(2,4,6-Trichlorophenyl)-3-amino-2-pyrazoline-5-one", "1-(2,4,6-Trichlorophenyl)-3-amino-5-pyrazolone", "NSC 113482", "3-Amino-1-(2,4,6-trichlorophenyl)-4,5-dihydro-1H-pyrazol-5-one", "3-Amino-1-(2,4,6-trichlorophenyl)-2-pyrazolin-5-one"], "SMILES": "ClC1=C(C(Cl)=CC(Cl)=C1)N2N=C(N)CC2=O", "physical_data": {"Molecular Weight": "278.52", "Molecular Formula": "C9H6Cl3N3O", "Melting Point": "222-224 \u00b0C"}}