{"cas_no": "2725-82-8", "cn_name": "1-\u6eb4-3-\u4e59\u57fa\u82ef", "en_name": ["1-Bromo-3-ethylbenzene", "Benzene, 1-bromo-3-ethyl-", "1-Bromo-3-ethylbenzene", "m-Bromoethylbenzene", "m-Ethylbromobenzene", "3-Ethylbromobenzene", "3-Bromo-1-ethylbenzene", "(3-Ethylphenyl)bromide", "1-Ethyl-3-bromobenzene"], "SMILES": "C(C)C1=CC(Br)=CC=C1", "physical_data": {"Molecular Weight": "185.06", "Molecular Formula": "C8H9Br", "Boiling Point": "200-208 \u00b0C", "Density": "1.3493 g/cm\u00b3 @ Temp: 20 \u00b0C"}}