{"cas_no": "2725-81-7", "cn_name": "6-\u785d\u57fa\u9999\u8c46\u7d20", "en_name": ["6-Nitrocoumarin", "2H-1-Benzopyran-2-one, 6-nitro-", "Coumarin, 6-nitro-", "6-Nitro-2H-1-benzopyran-2-one", "6-Nitrocoumarin", "NSC 46626", "6-Nitro-2H-chromen-2-one"], "SMILES": "N(=O)(=O)C=1C=C2C(OC(=O)C=C2)=CC1", "physical_data": {"Molecular Weight": "191.14", "Molecular Formula": "C9H5NO4", "Melting Point": "173 \u00b0C"}}