{"cas_no": "2725-22-6", "cn_name": "\u7d2b\u5916\u5438\u6536\u5242 UV-1164", "en_name": ["2-[4,6-Bis(2,4-dimethylphenyl)-1,3,5-triazin-2-yl]-5-(octyloxy)phenol", "Phenol, 2-[4,6-bis(2,4-dimethylphenyl)-1,3,5-triazin-2-yl]-5-(octyloxy)-", "Phenol, 2-(4,6-di-2,4-xylyl-s-triazin-2-yl)-5-(octyloxy)-", "2-[4,6-Bis(2,4-dimethylphenyl)-1,3,5-triazin-2-yl]-5-(octyloxy)phenol", "Cyasorb 1164", "Cyasorb UV 1164", "UV 1164", "2,4-Bis(2,4-dimethylphenyl)-6-(2-hydroxy-4-octyloxyphenyl)-1,3,5-triazine", "Tinuvin 1545", "2,4-Bis(2,4-dimethylphenyl)-6-(2-hydroxy-4-octyloxyphenyl)-s-triazine", "2-(4,6-Bis(2,4-dimethylphenyl)-1,3,5-triazine-2-yl)-5-octyloxyphenol", "Cytec UV 1164", "Cyagard UV 1164", "2,6-Bis(2,4-dimethylphenyl)-4-(2-hydroxy-4-octyloxyphenyl)-s-triazine", "2,4-Bis(2,4-dimethylphenyl)-6-(2-hydroxy-4-n-octyloxyphenyl)-1,3,5-triazine", "2-(2-Hydroxy-4-octyloxyphenyl)-4,6-bis(2,4-dimethylphenyl)-1,3,5-triazine", "Chiguard 1064", "Triazine 425", "UV 164", "Eusorb UV 164", "Kemisorb 102", "Riasorb UV 1164"], "SMILES": "OC1=C(C=2N=C(N=C(N2)C3=C(C)C=C(C)C=C3)C4=C(C)C=C(C)C=C4)C=CC(OCCCCCCCC)=C1", "physical_data": {"Molecular Weight": "509.68", "Molecular Formula": "C33H39N3O2", "Melting Point": "83.5-84.0 \u00b0C"}}