{"cas_no": "27262-48-2", "cn_name": "\u76d0\u9178\u5de6\u5e03\u6bd4\u5361\u56e0", "en_name": ["2-Piperidinecarboxamide, 1-butyl-N-(2,6-dimethylphenyl)-, hydrochloride (1:1), (2S)-", "2-Piperidinecarboxamide, 1-butyl-N-(2,6-dimethylphenyl)-, hydrochloride (1:1), (2S)-", "2\u2032,6\u2032-Pipecoloxylidide, 1-butyl-, monohydrochloride, (-)-", "2-Piperidinecarboxamide, 1-butyl-N-(2,6-dimethylphenyl)-, monohydrochloride, (S)-", "2-Piperidinecarboxamide, 1-butyl-N-(2,6-dimethylphenyl)-, monohydrochloride, (2S)-", "(-)-Bupivacaine monohydrochloride", "(S)-(-)-Bupivacaine monohydrochloride", "Chirocaine", "Levobupivacaine hydrochloride", "Popscaine"], "SMILES": "C(NC1=C(C)C=CC=C1C)(=O)C2N(CCCC)CCCC2.Cl", "physical_data": {"Molecular Weight": "", "Molecular Formula": "C18H28N2O.ClH", "Melting Point": "261.4 \u00b0C"}}