{"cas_no": "2726-73-0", "cn_name": "1,12-\u5341\u516b\u70f7\u4e8c\u9187", "en_name": ["1,12-Octadecanediol", "1,12-Octadecanediol", "12-Hydroxystearyl alcohol", "Alfol A", "Loxanol", "NSC 8551", "Sovermol 912", "1,12-Dihydroxyoctadecane"], "SMILES": "C(CCCCCCCCCCCO)(CCCCCC)O", "physical_data": {"Molecular Weight": "286.49", "Molecular Formula": "C18H38O2", "Boiling Point": "180-182 \u00b0C @ Press: 0.5 Torr", "Melting Point": "66-67 \u00b0C"}}