{"cas_no": "27262-47-1", "cn_name": "\u5de6\u5e03\u6bd4\u5361\u56e0", "en_name": ["(-)-Bupivacaine", "2-Piperidinecarboxamide, 1-butyl-N-(2,6-dimethylphenyl)-, (2S)-", "2\u2032,6\u2032-Pipecoloxylidide, 1-butyl-, (-)-", "2-Piperidinecarboxamide, 1-butyl-N-(2,6-dimethylphenyl)-, (S)-", "(2S)-1-Butyl-N-(2,6-dimethylphenyl)-2-piperidinecarboxamide", "(-)-Bupivacaine", "L-(-)-Bupivacaine", "(S)-Bupivacaine", "(S)-(-)-Bupivacaine", "Levobupivacaine", "(-)-(S)-Bupivacaine", "Chirocain", "(2S)-1-Butyl-N-(2,6-dimethylphenyl)piperidine-2-carboxamide"], "SMILES": "C(NC1=C(C)C=CC=C1C)(=O)C2N(CCCC)CCCC2", "physical_data": {"Molecular Weight": "288.43", "Molecular Formula": "C18H28N2O", "Melting Point": "135-137 \u00b0C"}}