{"cas_no": "27298-99-3", "cn_name": "(R)-(+)-1-(4-\u6c2f\u82ef\u57fa)\u4e59\u80fa", "en_name": ["(+)-1-(4-Chlorophenyl)ethylamine", "Benzenemethanamine, 4-chloro-\u03b1-methyl-, (\u03b1R)-", "Benzylamine, p-chloro-\u03b1-methyl-, (R)-(+)-", "Benzenemethanamine, 4-chloro-\u03b1-methyl-, (R)-", "(\u03b1R)-4-Chloro-\u03b1-methylbenzenemethanamine", "(R)-1-(4-Chlorophenyl)ethylamine", "(R)-4-Chloro-\u03b1-methylbenzenemethanamine", "(+)-\u03b1-(p-Chlorophenyl)ethylamine", "(+)-1-(4-Chlorophenyl)ethylamine", "(1R)-1-(4-Chlorophenyl)ethanamine", "(R)-1-(4-Chlorophenyl)ethanamine", "(R)-(+)-1-(4-Chlorophenyl)ethylamine", "(R)-4-Chloro-\u03b1-methylbenzylamine", "(R)-(+)-4-Chloro-\u03b1-methylbenzylamine", "(R)-1-(4-Chlorophenyl)ethan-1-amine", "(R)-(+)-1-(4-Chlorophenyl)ethylamine", "(1R)-1-(4-Chlorophenyl)ethanamine", "(1R)-1-(4-Chlorophenyl)ethan-1-amine"], "SMILES": "C(C)(N)C1=CC=C(Cl)C=C1", "physical_data": {"Molecular Weight": "155.62", "Molecular Formula": "C8H10ClN", "Melting Point": "222-224 \u00b0C", "Density": "1.10688 g/cm\u00b3 @ Temp: 25.00 \u00b0C"}}