{"cas_no": "27298-98-2", "cn_name": "(S)-1-(4-\u7532\u57fa\u82ef\u57fa)\u4e59\u80fa", "en_name": ["(-)-1-(4-Methylphenyl)ethylamine", "Benzenemethanamine, \u03b1,4-dimethyl-, (\u03b1S)-", "Benzylamine, p,\u03b1-dimethyl-, (S)-(-)-", "Benzenemethanamine, \u03b1,4-dimethyl-, (S)-", "(\u03b1S)-\u03b1,4-Dimethylbenzenemethanamine", "(-)-1-(p-Tolyl)ethylamine", "(S)-(-)-p,\u03b1-Dimethylbenzylamine", "(S)-\u03b1,4-Dimethylbenzylamine", "(-)-p-Methyl-\u03b1-phenylethylamine", "(S)-1-(p-Tolyl)ethylamine", "(S)-1-(4-Methylphenyl)ethylamine", "(S)-1-(p-Methylphenyl)ethylamine", "(S)-(-)-1-(4-Methylphenyl)ethylamine", "(1S)-(p-Tolyl)ethylamine", "(-)-1-(4-Methylphenyl)ethylamine", "(1S)-1-(4-Methylphenyl)ethanamine", "N-[(1S)-1-(4-Methylphenyl)ethyl]amine", "(S)-1-(p-Tolyl)ethanamine", "(S)-(-)-4-Methyl-\u03b1-methylbenzylamine", "(1S)-1-(4-Methylphenyl)ethanamine"], "SMILES": "C(C)(N)C1=CC=C(C)C=C1", "physical_data": {"Molecular Weight": "135.21", "Molecular Formula": "C9H13N", "Boiling Point": "85-86 \u00b0C @ Press: 30 Torr"}}