{"cas_no": "27299-12-3", "cn_name": "1,4 -\u8131\u6c34-D -\u5c71\u68a8\u9187", "en_name": ["1,4-Sorbitan", "D-Glucitol, 1,4-anhydro-", "Glucitol, 1,4-anhydro-, D-", "Arlitan", "1,4-Anhydro-D-glucitol", "1,4-Sorbitan", "1,4-Anhydroglucitol", "1,4-Anhydro-D-sorbitol"], "SMILES": "C(CO)(O)C1C(O)C(O)CO1", "physical_data": {"Molecular Weight": "164.16", "Molecular Formula": "C6H12O5", "Melting Point": "115-116 \u00b0C"}}