{"cas_no": "27298-97-1", "cn_name": "(S)-(-)-1-(4-\u6eb4\u82ef)\u4e59\u80fa", "en_name": ["(\u03b1S)-4-Bromo-\u03b1-methylbenzenemethanamine", "Benzenemethanamine, 4-bromo-\u03b1-methyl-, (\u03b1S)-", "Benzylamine, p-bromo-\u03b1-methyl-, (S)-(-)-", "Benzenemethanamine, 4-bromo-\u03b1-methyl-, (S)-", "(\u03b1S)-4-Bromo-\u03b1-methylbenzenemethanamine", "(-)-p-Bromo-\u03b1-phenethylamine", "S-(-)-\u03b1-Methyl-p-bromobenzylamine", "(-)-1-(4-Bromophenyl)ethylamine", "(S)-1-(4-Bromophenyl)ethylamine", "(-)-1-(p-Bromophenyl)ethylamine", "(S)-4-Bromo-\u03b1-methylbenzylamine", "(S)-(4-Bromophenyl)ethylamine", "(-)-(S)-1-(4-Bromophenyl)ethylamine", "[(1S)-1-(4-Bromophenyl)ethyl]amine", "[(S)-(-)-1-(4-Bromophenyl)ethyl]amine", "(S)-1-(4-Bromophenyl)ethanamine", "(1S)-1-(4-Bromophenyl)ethanamine", "(1S)-1-(4-Bromophenyl)ethan-1-amine", "(S)-1-(4-Bromophenyl)ethan-1-amine", "(1S)-1-(4-Bromophenyl)ethanamine"], "SMILES": "C(C)(N)C1=CC=C(Br)C=C1", "physical_data": {"Molecular Weight": "200.08", "Molecular Formula": "C8H10BrN", "Boiling Point": "60-62 \u00b0C @ Press: 0.3 Torr", "Melting Point": "171.5-172.5 \u00b0C"}}