{"cas_no": "273-21-2", "cn_name": "4-\u6c2e\u6742\u82ef\u5e76\u54aa\u5511", "en_name": ["Imidazo[4,5-b]pyridine", "3H-Imidazo[4,5-b]pyridine", "1H-Imidazo[4,5-b]pyridine", "Imidazo[4,5-b]pyridine", "4-Azabenzimidazole", "1-Deazapurine", "3,4-Diazaindole", "1-Deaza-9H-purine", "7-Azabenzimidazole", "1,3,4-Triaza-3H-indene", "4-Aza-3H-benzimidazole", "7-Aza-1H-benzimidazole", "4-Azabenzodiazole", "NSC 403091", "4-Aza-1H-benzimidazole", "1,3,4-Triaza-1H-indene"], "SMILES": "C1=2C(N=CN1)=NC=CC2", "physical_data": {"Molecular Weight": "119.12", "Molecular Formula": "C6H5N3", "Melting Point": "149.5 \u00b0C"}}