{"cas_no": "273-13-2", "cn_name": "2,1,3-\u82ef\u5e76\u567b\u4e8c\u5511", "en_name": ["2,1,3-Benzothiadiazole", "2,1,3-Benzothiadiazole", "Benzisothiadiazole", "Piazthiole", "2-Thia-1,3-diaza-2H-isoindene", "3,4-Benzo-1,2,5-thiadiazole", "NSC 43636", "NSC 679", "Benzo[1,2,5]thiadiazole", "Benzo[c]-1,2,5-thiadiazole"], "SMILES": "C=12C(=NSN1)C=CC=C2", "physical_data": {"Molecular Weight": "136.17", "Molecular Formula": "C6H4N2S", "Boiling Point": "203 \u00b0C", "Melting Point": "43 \u00b0C"}}