{"cas_no": "273-09-6", "cn_name": "\u82ef\u5e76\u544b\u5583", "en_name": ["2,1,3-Benzoxadiazole", "2,1,3-Benzoxadiazole", "Benzofurazan", "2-Oxa-1,3-diaza-2H-isoindene", "Benzo-2,1,3-oxadiazole", "Benzo[c][1,2,5]oxadiazole"], "SMILES": "C=12C(=NON1)C=CC=C2", "physical_data": {"Molecular Weight": "120.11", "Molecular Formula": "C6H4N2O", "Melting Point": "53 \u00b0C", "Density": "1.1550 g/cm\u00b3 @ Temp: 65 \u00b0C"}}