{"cas_no": "273-77-8", "cn_name": "1,2,3-BENZOTHIADIAZOLE", "en_name": ["1,2,3-Benzothiadiazole", "1,2,3-Benzothiadiazole", "NSC 111919"], "SMILES": "C1=2C(SN=N1)=CC=CC2", "physical_data": {"Molecular Weight": "136.17", "Molecular Formula": "C6H4N2S", "Melting Point": "36-37 \u00b0C"}}