{"cas_no": "273-53-0", "cn_name": "\u82ef\u5e76\u6076\u5511", "en_name": ["Benzoxazole", "Benzoxazole", "1-Oxa-3-azaindene", "1-Oxa-3-aza-1H-indene", "NSC 3982", "Benzo[d]oxazole", "1,3-Benzoxazole"], "SMILES": "C1=2C(OC=N1)=CC=CC2", "physical_data": {"Molecular Weight": "119.12", "Molecular Formula": "C7H5NO", "Boiling Point": "182.5 \u00b0C", "Melting Point": "31 \u00b0C"}}