{"cas_no": "273-15-4", "cn_name": "2,1,3-\u82ef\u5e76\u7852\u4e8c\u5511", "en_name": ["2,1,3-Benzoselenadiazole", "2,1,3-Benzoselenadiazole", "Phenylpiazselenole", "Piaselenole", "Piazselenol", "Piazselenole", "2-Selena-1,3-diaza-2H-isoindene", "3,4-Benzo-1,2,5-selenadiazole", "NSC 408467"], "SMILES": "C=12C(=N[Se]N1)C=CC=C2", "physical_data": {"Molecular Weight": "183.07", "Molecular Formula": "C6H4N2Se", "Melting Point": "75 \u00b0C"}}