{"cas_no": "2730-62-3", "cn_name": "2-\u6c2f-3,3,3-\u4e09\u6c1f\u4e19\u70ef", "en_name": ["1233xf", "1-Propene, 2-chloro-3,3,3-trifluoro-", "Propene, 2-chloro-3,3,3-trifluoro-", "2-Chloro-3,3,3-trifluoro-1-propene", "2-Chloro-3,3,3-trifluoropropene", "HFCO 1233xf", "HCFO 1233xf", "HCFC 1233xf", "1233xf", "R 1233xf", "HCO 1233xf", "2-Chloro-1,1,1-trifluoro-2-propene", "3,3,3-Trifluoro-2-chloropropene", "HFO 1233xf", "2-Chloro-3,3,3-trifluoropropylene"], "SMILES": "C(C(=C)Cl)(F)(F)F", "physical_data": {"Molecular Weight": "130.50", "Molecular Formula": "C3H2ClF3", "Boiling Point": "14-15 \u00b0C"}}