{"cas_no": "27304-13-8", "cn_name": "\u6c27\u5316\u6c2f\u4e39", "en_name": ["Oxychlordane", "2,5-Methano-2H-indeno[1,2-b]oxirene, 2,3,4,5,6,6a,7,7-octachloro-1a,1b,5,5a,6,6a-hexahydro-, (1aR,1bS,2R,5S,5aR,6S,6aS)-rel-", "4,7-Methanoindan, 1,2,4,5,6,7,8,8-octachloro-2,3-epoxy-3a,4,7,7a-tetrahydro-, exo,endo-", "2,5-Methano-2H-indeno[1,2-b]oxirene, 2,3,4,5,6,6a,7,7-octachloro-1a,1b,5,5a,6,6a-hexahydro-, (1a\u03b1,1b\u03b2,2\u03b1,5\u03b1,5a\u03b2,6\u03b2,6a\u03b1)-", "rel-(1aR,1bS,2R,5S,5aR,6S,6aS)-2,3,4,5,6,6a,7,7-Octachloro-1a,1b,5,5a,6,6a-hexahydro-2,5-methano-2H-indeno[1,2-b]oxirene", "Octachlor epoxide", "Oxychlordane", "Oxychlordan", "(\u00b1)-Oxychlordane"], "SMILES": "ClC12C3C(C(Cl)(C1(Cl)Cl)C(Cl)=C2Cl)C(Cl)C4(Cl)C3O4", "physical_data": {"Molecular Weight": "423.76", "Molecular Formula": "C10H4Cl8O", "Boiling Point": "353 \u00b0C", "Melting Point": "144 \u00b0C"}}