{"cas_no": "27306-78-1", "cn_name": "\u4e8c\u7532\u57fa-3-\u7f9f\u4e19\u57fa\u7532\u57fa(\u7845\u6c27\u70f7\u4e0e\u805a\u7845\u6c27\u70f7)\u3001\u805a\u4e59\u4e8c\u9187\u5355\u7532\u919a\u7684\u919a\u5316\u7269", "en_name": ["Polyethylene glycol monomethyl ether mono[3-[methylbis(trimethylsiloxy)silyl]propyl] ether", "Poly(oxy-1,2-ethanediyl), \u03b1-methyl-\u03c9-[3-[1,3,3,3-tetramethyl-1-[(trimethylsilyl)oxy]-1-disiloxanyl]propoxy]-", "Glycols, polyethylene, methyl 3-[1,3,3,3-tetramethyl-1-(trimethylsiloxy)disiloxanyl]propyl ether", "Poly(oxy-1,2-ethanediyl), \u03b1-methyl-\u03c9-[3-[1,3,3,3-tetramethyl-1-[(trimethylsilyl)oxy]disiloxanyl]propoxy]-", "3-Oxa-2,4-disilaheptan-1-ol, 2,2,4-trimethyl-4-(trimethylsiloxy)-, monoether with polyethylene glycol", "Silwet L 77", "Pentra-Bark", "Polyethylene glycol monomethyl ether mono[3-[methylbis(trimethylsiloxy)silyl]propyl] ether", "Silwet L 77J", "N 380", "L 77", "KP 110 (polymer)", "KP 110", "Silwet L 077", "CoatOSil 77", "CoatOsil 77"], "SMILES": "[Si](O[Si](C)(C)C)(O[Si](C)(C)C)(CCCOCCOC)C", "physical_data": {"Molecular Weight": "", "Molecular Formula": "(C2H4O)nC11H30O3Si3", "Boiling Point": "100 \u00b0C @ Press: &lt;1 Torr"}}