{"cas_no": "2730-43-0", "cn_name": "1-\u6c2f-3,3,3-\u4e09\u6c1f\u4e19\u70ef", "en_name": ["1-Chloro-3,3,3-trifluoropropene", "1-Propene, 1-chloro-3,3,3-trifluoro-", "Propene, 1-chloro-3,3,3-trifluoro-", "1-Chloro-3,3,3-trifluoro-1-propene", "3,3,3-Trifluoro-1-chloro-1-propene", "3-Chloro-1,1,1-trifluoro-2-propene", "1-Chloro-3,3,3-trifluoropropene", "HFCO 1233zd", "1,1,1-Trifluoro-3-chloro-2-propene", "HCFC 1233zd", "HCFO 1233zd", "HFO 1233zd", "R 1233zd", "HCFO-LBA 2", "3,3,3-Trifluoro-1-chloropropene", "HCFE 1233zd"], "SMILES": "C(C(F)(F)F)=CCl", "physical_data": {"Molecular Weight": "130.50", "Molecular Formula": "C3H2ClF3", "Boiling Point": "21 \u00b0C"}}