{"cas_no": "2730-71-4", "cn_name": "\u786b\u4ee3\u79cb\u6c34\u4ed9\u78b1", "en_name": ["Thiocolchicine", "Acetamide, N-[(7S)-5,6,7,9-tetrahydro-1,2,3-trimethoxy-10-(methylthio)-9-oxobenzo[a]heptalen-7-yl]-", "Colchicine, 10-thio-", "Acetamide, N-[5,6,7,9-tetrahydro-1,2,3-trimethoxy-10-(methylthio)-9-oxobenzo[a]heptalen-7-yl]-, (S)-", "Colchicine, thio-", "Benzo[a]heptalene, acetamide deriv.", "N-[(7S)-5,6,7,9-Tetrahydro-1,2,3-trimethoxy-10-(methylthio)-9-oxobenzo[a]heptalen-7-yl]acetamide", "Thiocolchicine", "10-Demethoxy-10-(methylthio)colchicine", "NSC 186301", "SML 0954"], "SMILES": "O(C)C1=C2C=3C(C(NC(C)=O)CCC2=CC(OC)=C1OC)=CC(=O)C(SC)=CC3", "physical_data": {"Molecular Weight": "415.50", "Molecular Formula": "C22H25NO5S", "Melting Point": "193 \u00b0C"}}