{"cas_no": "27314-97-2", "cn_name": "\u66ff\u62c9\u624e\u660e", "en_name": ["Tirapazamine", "1,2,4-Benzotriazin-3-amine, 1,4-dioxide", "1,2,4-Benzotriazine, 3-amino-, 1,4-dioxide", "3-Amino-1,2,4-benzotriazine 1,4-dioxide", "SR 4233", "Tirapazamine", "Win 59075", "Tirazone", "SR 259075", "SML 0552", "SR259075"], "SMILES": "O=N=1C2=C(N(=O)=NC1N)C=CC=C2", "physical_data": {"Molecular Weight": "178.15", "Molecular Formula": "C7H6N4O2", "Melting Point": "222-224 \u00b0C"}}