{"cas_no": "27311-52-0", "cn_name": "\u4e8c(5-\u6c28\u57fa-2-\u7f9f\u57fa\u82ef\u57fa)\u7532\u70f7\u76d0\u9178\u76d0", "en_name": ["Phenol, 2,2\u2032-methylenebis[4-amino-, hydrochloride (1:2)", "Phenol, 2,2\u2032-methylenebis[4-amino-, hydrochloride (1:2)", "Phenol, 2,2\u2032-methylenebis[4-amino-, dihydrochloride"], "SMILES": "C(C1=C(O)C=CC(N)=C1)C2=C(O)C=CC(N)=C2.Cl", "physical_data": {"Molecular Weight": "", "Molecular Formula": "C13H14N2O2.2ClH", "Melting Point": "&gt;300 \u00b0C"}}