{"cas_no": "2731-73-9", "cn_name": "3-\u6c2f-L-\u4e19\u6c28\u9178", "en_name": ["3-Chloro-L-alanine", "L-Alanine, 3-chloro-", "Alanine, 3-chloro-, L-", "3-Chloro-L-alanine", "\u03b2-Chloro-L-alanine", "L-\u03b2-Chloroalanine", "(2R)-\u03b2-Chloroalanine", "L-3-Chloroalanine", "(R)-2-Amino-3-chloropropanoic acid"], "SMILES": "C(C(O)=O)(CCl)N", "physical_data": {"Molecular Weight": "123.54", "Molecular Formula": "C3H6ClNO2", "Melting Point": "166-167 \u00b0C (decomp)"}}