{"cas_no": "27314-13-2", "cn_name": "\u8fbe\u8349\u544b", "en_name": ["Norflurazon", "3(2H)-Pyridazinone, 4-chloro-5-(methylamino)-2-[3-(trifluoromethyl)phenyl]-", "3(2H)-Pyridazinone, 4-chloro-5-(methylamino)-2-(\u03b1,\u03b1,\u03b1-trifluoro-m-tolyl)-", "4-Chloro-5-(methylamino)-2-[3-(trifluoromethyl)phenyl]-3(2H)-pyridazinone", "4-Chloro-5-(methylamino)-2-(\u03b1,\u03b1,\u03b1-trifluoro-m-tolyl)-3(2H)-pyridazinone", "SAN 9789", "1-(3-Trifluoromethylphenyl)-4-methylamino-5-chloro-6-pyridazone", "4-Chloro-5-methylamino-2-(M-trifluoromethylphenyl)-3(2H)pyridazinone", "Norflurazon", "Zorial", "Sandoz 9789", "H 9789", "Solicam", "Predict", "SAN 978938", "Orfurazon"], "SMILES": "O=C1N(N=CC(NC)=C1Cl)C2=CC(C(F)(F)F)=CC=C2", "physical_data": {"Molecular Weight": "303.67", "Molecular Formula": "C12H9ClF3N3O", "Melting Point": "117 \u00b0C"}}