{"cas_no": "27317-69-7", "cn_name": "BOC-ALA-ALA-OH", "en_name": ["N-[(1,1-Dimethylethoxy)carbonyl]-L-alanyl-L-alanine", "L-Alanine, N-[(1,1-dimethylethoxy)carbonyl]-L-alanyl-", "Alanine, N-(N-carboxy-L-alanyl)-, N-tert-butyl ester, L-", "L-Alanine, N-[N-[(1,1-dimethylethoxy)carbonyl]-L-alanyl]-", "N-[(1,1-Dimethylethoxy)carbonyl]-L-alanyl-L-alanine", "tert-Butoxycarbonyl-L-alanyl-L-alanine", "N-tert-Butoxycarbonylalanylalanine", "N-tert-Butoxycarbonyl-L-alanyl-L-alanine", "NSC 334362", "N-Boc-L-alanyl-L-alanine"], "SMILES": "N(C(C(NC(C(O)=O)C)=O)C)C(OC(C)(C)C)=O", "physical_data": {"Molecular Weight": "260.29", "Molecular Formula": "C11H20N2O5", "Melting Point": "132-133 \u00b0C"}}