{"cas_no": "2731-06-8", "cn_name": "2-\u7532\u57fa\u5432\u54da-3-\u4e59\u80fa", "en_name": ["2-Methyltryptamine", "1H-Indole-3-ethanamine, 2-methyl-", "Indole, 3-(2-aminoethyl)-2-methyl-", "2-Methyl-1H-indole-3-ethanamine", "2-Methyltryptamine", "2-(2-Methyl-1H-indol-3-yl)ethanamine", "2-(2-Methyl-1H-indol-3-yl)ethan-1-amine", "2-Methylindole-3-ethylamine"], "SMILES": "C(CN)C=1C=2C(NC1C)=CC=CC2", "physical_data": {"Molecular Weight": "174.24", "Molecular Formula": "C11H14N2", "Boiling Point": "196-200 \u00b0C", "Melting Point": "87 \u00b0C"}}