{"cas_no": "2732-80-1", "cn_name": "3-\u6eb4-4-\u6c2f\u82ef\u7532\u919a", "en_name": ["3-Bromo-4-chloroanisole", "Benzene, 2-bromo-1-chloro-4-methoxy-", "Anisole, 3-bromo-4-chloro-", "2-Bromo-1-chloro-4-methoxybenzene", "3-Bromo-4-chloroanisole", "1-Bromo-2-chloro-5-methoxybenzene", "2-Bromo-4-methoxy-1-chlorobenzene"], "SMILES": "O(C)C1=CC(Br)=C(Cl)C=C1", "physical_data": {"Molecular Weight": "221.48", "Molecular Formula": "C7H6BrClO", "Boiling Point": "91-93 \u00b0C @ Press: 2 Torr"}}