{"cas_no": "2732-28-7", "cn_name": "4-\u4e59\u9170\u57fa-2-\u7532\u57fa\u5421\u5576", "en_name": ["1-(2-Methyl-4-pyridinyl)ethanone", "Ethanone, 1-(2-methyl-4-pyridinyl)-", "Ketone, methyl 2-methyl-4-pyridyl", "1-(2-Methyl-4-pyridinyl)ethanone", "4-Acetyl-2-methylpyridine", "2-Methyl-4-acetylpyridine", "1-(2-Methylpyridin-4-yl)ethan-1-one"], "SMILES": "C(C)(=O)C=1C=C(C)N=CC1", "physical_data": {"Molecular Weight": "135.16", "Molecular Formula": "C8H9NO", "Boiling Point": "130 \u00b0C @ Press: 4 Torr", "Melting Point": "149 \u00b0C"}}