{"cas_no": "273222-06-3", "cn_name": "(2S,4R)-1-(((9H-\u82b4-9-\u57fa)\u7532\u6c27\u57fa)\u7fb0\u57fa)-4-((\u53d4\u4e01\u6c27\u57fa\u7fb0\u57fa)\u6c28\u57fa)\u5421\u54af\u70f7-2-\u7fa7\u9178", "en_name": ["1-(9H-Fluoren-9-ylmethyl) (2S,4R)-4-[[(1,1-dimethylethoxy)carbonyl]amino]-1,2-pyrrolidinedicarboxylate", "1,2-Pyrrolidinedicarboxylic acid, 4-[[(1,1-dimethylethoxy)carbonyl]amino]-, 1-(9H-fluoren-9-ylmethyl) ester, (2S,4R)-", "1-(9H-Fluoren-9-ylmethyl) (2S,4R)-4-[[(1,1-dimethylethoxy)carbonyl]amino]-1,2-pyrrolidinedicarboxylate"], "SMILES": "C(OC(=O)N1C(C(O)=O)CC(NC(OC(C)(C)C)=O)C1)C2C=3C(C=4C2=CC=CC4)=CC=CC3", "physical_data": {"Molecular Weight": "452.50", "Molecular Formula": "C25H28N2O6", "Melting Point": "85-87 \u00b0C"}}