{"cas_no": "273399-95-4", "cn_name": "1-(6-\u6c2f-1H-\u82ef\u5e76\u54aa\u5511-2-\u57fa)\u7532\u80fa", "en_name": ["6-Chloro-1H-benzimidazole-2-methanamine", "1H-Benzimidazole-2-methanamine, 6-chloro-", "1H-Benzimidazole-2-methanamine, 5-chloro-", "6-Chloro-1H-benzimidazole-2-methanamine", "[(6-Chloro-1H-benzimidazol-2-yl)methyl]amine", "(5-Chloro-1H-benzimidazol-2-yl)aminomethane", "2-(Aminomethyl)-5-chlorobenzimidazole", "(5-Chloro-1H-benzimidazol-2-yl)methylamine", "(5-Chloro-1H-1,3-benzodiazol-2-yl)methanamine", "(6-Chloro-1H-1,3-benzodiazol-2-yl)methanamine"], "SMILES": "C(N)C=1NC=2C(N1)=CC(Cl)=CC2", "physical_data": {"Molecular Weight": "181.62", "Molecular Formula": "C8H8ClN3", "Melting Point": "252-254 \u00b0C"}}