{"cas_no": "2733-88-2", "cn_name": "cis-15-\u5341\u56db\u9178\u7532\u916f", "en_name": ["Nervonic acid methyl ester", "15-Tetracosenoic acid, methyl ester, (15Z)-", "15-Tetracosenoic acid, methyl ester, (Z)-", "Methyl nervonate", "Methyl cis-tetracos-15-enoate", "Nervonic acid methyl ester", "Methyl cis-15-tetracosenoate"], "SMILES": "C(CCCCCCCC=CCCCCCCCC)CCCCCC(OC)=O", "physical_data": {"Molecular Weight": "380.65", "Molecular Formula": "C25H48O2", "Boiling Point": "186-202 \u00b0C", "Melting Point": "14-15 \u00b0C"}}