{"cas_no": "27336-23-8", "cn_name": "1,1-\u4e8c\u6eb4\u56db\u6c1f\u4e59\u70f7", "en_name": ["1,1-Dibromo-1,2,2,2-tetrafluoroethane", "Ethane, 1,1-dibromo-1,2,2,2-tetrafluoro-", "Ethane, 1,1-dibromotetrafluoro-", "1,1-Dibromo-1,2,2,2-tetrafluoroethane", "1,1-Dibromotetrafluoroethane", "1,1,1,2-Tetrafluoro-2,2-dibromoethane"], "SMILES": "C(C(F)(F)F)(Br)(Br)F", "physical_data": {"Molecular Weight": "259.82", "Molecular Formula": "C2Br2F4", "Boiling Point": "47.5 \u00b0C", "Melting Point": "-111.7 \u00b0C", "Density": "2.75 g/cm\u00b3 @ Temp: -192 \u00b0C"}}