{"cas_no": "27333-47-7", "cn_name": "1,3,3-\u4e09\u7532\u57fa\u5432\u54da-\u5948\u8c14\u55ea", "en_name": ["1,3-Dihydro-1,3,3-trimethylspiro[2H-indole-2,3\u2032-[3H]naphth[2,1-b][1,4]oxazine]", "Spiro[2H-indole-2,3\u2032-[3H]naphth[2,1-b][1,4]oxazine], 1,3-dihydro-1,3,3-trimethyl-", "Spiro[indoline-2,3\u2032-[3H]naphth[2,1-b][1,4]oxazine], 1,3,3-trimethyl-", "1,3-Dihydro-1,3,3-trimethylspiro[2H-indole-2,3\u2032-[3H]naphth[2,1-b][1,4]oxazine]", "1,3,3-Trimethylspiro[indoline-2,3\u2032-[3H]naphth[2,1-b][1,4]oxazine]", "Variacrol Blue A", "Photorom I", "Photorome I", "1,3-Dihydro-1,3,3-trimethylspiro[2H-indole-2,3\u2032-[3H]naphth[2,1-h][1,4]oxazine]", "T 1259", "1,3,3-Trimethylindolinonaphthospirooxazine", "1,3,3-Trimethylindolinospironaphthooxazine", "1,3,3-Trimethylindolinonaphthospiroxazine", "Photopia AQ Ink Blue", "1\u2032,3\u2032,3\u2032-Trimethylspiro[benzo[f][1,4]benzoxazine-3,2\u2032-indole]", "1,3,3-Trimethyl-1,3-dihydrospiro[indole-2,3\u2032-naphtho[2,1-b][1,4]oxazine]"], "SMILES": "CC1(C)C2(N(C)C=3C1=CC=CC3)OC=4C(N=C2)=C5C(=CC4)C=CC=C5", "physical_data": {"Molecular Weight": "328.41", "Molecular Formula": "C22H20N2O", "Melting Point": "128 \u00b0C"}}