{"cas_no": "2734-48-7", "cn_name": "3-(1-\u5421\u5511\u57fa)-L-\u4e19\u6c28\u9178", "en_name": ["(\u03b1S)-\u03b1-Amino-1H-pyrazole-1-propanoic acid", "1H-Pyrazole-1-propanoic acid, \u03b1-amino-, (\u03b1S)-", "Pyrazole-1-propionic acid, \u03b1-amino-, L-", "1H-Pyrazole-1-propanoic acid, \u03b1-amino-, (S)-", "(\u03b1S)-\u03b1-Amino-1H-pyrazole-1-propanoic acid", "\u03b2-Pyrazolyl-L-alanine", "L-\u03b2-(1-Pyrazolyl)alanine", "\u03b2-(Pyrazol-1-yl)-L-alanine", "(s)-2-Amino-3-pyrazol-1-yl-propionic acid", "(2S)-2-Amino-3-(1H-pyrazol-1-yl)propanoic acid"], "SMILES": "C(C(C(O)=O)N)N1C=CC=N1", "physical_data": {"Molecular Weight": "155.15", "Molecular Formula": "C6H9N3O2", "Melting Point": "243-244 \u00b0C (decomp)"}}