{"cas_no": "27354-18-3", "cn_name": "\u6eb6\u5242\u7ea2169", "en_name": ["Solvent Red 169", "9,10-Anthracenedione, 1-[(1-methylethyl)amino]-", "Anthraquinone, 1-(isopropylamino)-", "1-[(1-Methylethyl)amino]-9,10-anthracenedione", "1-(Isopropylamino)anthraquinone", "1-Isopropylamino-9,10-anthracenedione", "Solvent Red 169", "C.I. 605060", "C.I. Solvent Red 169", "Amaplast Red PC"], "SMILES": "N(C(C)C)C1=C2C(C(=O)C=3C(C2=O)=CC=CC3)=CC=C1", "physical_data": {"Molecular Weight": "265.31", "Molecular Formula": "C17H15NO2", "Melting Point": "187-189 \u00b0C"}}