{"cas_no": "27355-22-2", "cn_name": "\u56db\u6c2f\u82ef\u915e", "en_name": ["Phthalide", "1(3H)-Isobenzofuranone, 4,5,6,7-tetrachloro-", "Phthalide, 4,5,6,7-tetrachloro-", "4,5,6,7-Tetrachloro-1(3H)-isobenzofuranone", "4,5,6,7-Tetrachlorophthalide", "Rabcide", "Tetrachlorophthalide", "Fthalide", "Phthalide"], "SMILES": "ClC1=C2C(=C(Cl)C(Cl)=C1Cl)COC2=O", "physical_data": {"Molecular Weight": "271.91", "Molecular Formula": "C8H2Cl4O2", "Melting Point": "209.5 \u00b0C"}}