{"cas_no": "2735-04-8", "cn_name": "2,4-\u4e8c\u7532\u6c27\u57fa\u82ef\u80fa", "en_name": ["2,4-Dimethoxyaniline", "Benzenamine, 2,4-dimethoxy-", "Aniline, 2,4-dimethoxy-", "2,4-Dimethoxybenzenamine", "2,4-Dimethoxyaniline", "2,4-Dimethoxyphenylamine", "1-Amino-2,4-dimethoxybenzene", "NSC 62019"], "SMILES": "O(C)C1=CC(OC)=CC=C1N", "physical_data": {"Molecular Weight": "153.18", "Molecular Formula": "C8H11NO2", "Boiling Point": "144 \u00b0C @ Press: 20 Torr", "Melting Point": "33.5 \u00b0C"}}