{"cas_no": "2735-62-8", "cn_name": "1-\u7532\u57fa-2-\u82ef\u5e76\u54aa\u5511\u4e59\u8148", "en_name": ["1-Methyl-1H-benzimidazole-2-acetonitrile", "1H-Benzimidazole-2-acetonitrile, 1-methyl-", "2-Benzimidazoleacetonitrile, 1-methyl-", "1-Methyl-1H-benzimidazole-2-acetonitrile", "1-Methyl-2-benzimidazoleacetonitrile", "1-Methyl-2-benzimidazolylacetonitrile", "2-(Cyanomethyl)-1-methylbenzimidazole", "1-Methyl-2-(cyanomethyl)benzimidazole", "2-(1-Methyl-1H-benzo[d]imidazol-2-yl)acetonitrile", "2-(1-Methyl-1H-1,3-benzodiazol-2-yl)acetonitrile", "2-(1-Methylbenzimidazol-2-yl)acetonitrile"], "SMILES": "CN1C=2C(N=C1CC#N)=CC=CC2", "physical_data": {"Molecular Weight": "171.20", "Molecular Formula": "C10H9N3", "Melting Point": "132-134 \u00b0C"}}