{"cas_no": "27361-16-6", "cn_name": "2-\u6b63\u4e01\u6c27\u57fa\u5421\u5576", "en_name": ["2-Butoxypyridine", "Pyridine, 2-butoxy-", "2-Butoxypyridine", "NSC 30253"], "SMILES": "O(CCCC)C1=CC=CC=N1", "physical_data": {"Molecular Weight": "151.21", "Molecular Formula": "C9H13NO", "Boiling Point": "80-82 \u00b0C @ Press: 10 Torr", "Density": "0.9702 g/cm\u00b3 @ Temp: 20 \u00b0C"}}