{"cas_no": "2736-40-5", "cn_name": "2-\u4e59\u57fa\u4e01\u9170\u6c2f", "en_name": ["2-Ethylbutyryl chloride", "Butanoyl chloride, 2-ethyl-", "Butyryl chloride, 2-ethyl-", "2-Ethylbutanoyl chloride", "2-Ethylbutyryl chloride", "Diethylacetyl chloride", "\u03b1-Ethylbutyryl chloride", "NSC 8757"], "SMILES": "C(C(Cl)=O)(CC)CC", "physical_data": {"Molecular Weight": "134.60", "Molecular Formula": "C6H11ClO", "Boiling Point": "140 \u00b0C", "Density": "0.957 g/cm\u00b3 @ Temp: 29 \u00b0C"}}