{"cas_no": "2736-23-4", "cn_name": "2,4-\u4e8c\u6c2f-5-\u78fa\u9170\u80fa\u57fa\u82ef\u7532\u9178", "en_name": ["5-(Aminosulfonyl)-2,4-dichlorobenzoic acid", "Benzoic acid, 5-(aminosulfonyl)-2,4-dichloro-", "Benzoic acid, 2,4-dichloro-5-sulfamoyl-", "5-(Aminosulfonyl)-2,4-dichlorobenzoic acid", "2,4-Dichloro-5-sulfamoylbenzoic acid", "3-Sulfamoyl-4,6-dichlorobenzoic acid", "5-Carboxy-2,4-dichlorobenzenesulfonamide", "5-Aminosulfonyl-2,4-dichlorobenzoic acid"], "SMILES": "S(N)(=O)(=O)C1=CC(C(O)=O)=C(Cl)C=C1Cl", "physical_data": {"Molecular Weight": "270.09", "Molecular Formula": "C7H5Cl2NO4S", "Melting Point": "233-235 \u00b0C"}}