{"cas_no": "2737-22-6", "cn_name": "3-\u7f9f\u57fa-2,4,6-\u4e09\u6eb4\u82ef\u7532\u919b", "en_name": ["2,4,6-Tribromo-3-hydroxybenzaldehyde", "Benzaldehyde, 2,4,6-tribromo-3-hydroxy-", "2,4,6-Tribromo-3-hydroxybenzaldehyde"], "SMILES": "C(=O)C1=C(Br)C(O)=C(Br)C=C1Br", "physical_data": {"Molecular Weight": "358.81", "Molecular Formula": "C7H3Br3O2", "Melting Point": "119.5 \u00b0C"}}