{"cas_no": "27383-92-2", "cn_name": "5-\u6c2f-2-\u82ef\u5e76\u6076\u5511\u7fa7\u9178\u7532\u916f", "en_name": ["2-Benzoxazolecarboxylic acid, 5-chloro-, methyl ester", "2-Benzoxazolecarboxylic acid, 5-chloro-, methyl ester", "Methyl 5-chloro-2-benzoxazolecarboxylate"], "SMILES": "C(OC)(=O)C=1OC=2C(N1)=CC(Cl)=CC2", "physical_data": {"Molecular Weight": "211.60", "Molecular Formula": "C9H6ClNO3", "Melting Point": "124 \u00b0C"}}