{"cas_no": "27387-31-1", "cn_name": "1,2,3,4-\u56db\u6c22-9-\u7532\u57fa-4H-\u5494\u5511\u916e", "en_name": ["1,2,3,9-Tetrahydro-9-methyl-4H-carbazol-4-one", "4H-Carbazol-4-one, 1,2,3,9-tetrahydro-9-methyl-", "Carbazol-4(1H)-one, 2,3-dihydro-9-methyl-", "1,2,3,9-Tetrahydro-9-methyl-4H-carbazol-4-one", "1,2,3,9-Tetrahydro-9-methyl-4H-carbazole-4-one"], "SMILES": "O=C1C=2C=3C(N(C)C2CCC1)=CC=CC3", "physical_data": {"Molecular Weight": "199.25", "Molecular Formula": "C13H13NO", "Melting Point": "195 \u00b0C"}}