{"cas_no": "2739-99-3", "cn_name": "2-\u54cc\u5576\u4e59\u9178\u4e59\u916f", "en_name": ["2-Piperidineacetic acid, ethyl ester", "2-Piperidineacetic acid, ethyl ester", "Ethyl 2-piperidineacetate", "(\u00b1)-Ethyl 2-piperidineacetate", "Ethyl 2-piperidinylacetate"], "SMILES": "C(C(OCC)=O)C1CCCCN1", "physical_data": {"Molecular Weight": "171.24", "Molecular Formula": "C9H17NO2", "Boiling Point": "105 \u00b0C @ Press: 14 Torr", "Melting Point": "125 \u00b0C"}}