{"cas_no": "2739-97-1", "cn_name": "2-\u5421\u5576\u4e59\u8148", "en_name": ["2-Pyridineacetonitrile", "2-Pyridineacetonitrile", "2-Pyridylacetonitrile", "2-(2-Pyridyl)acetonitrile", "2-(Cyanomethyl)pyridine", "(2-Pyridinyl)acetonitrile", "(Pyridyl-2-yl)acetonitrile", "2-(Pyridin-2-yl)acetonitrile"], "SMILES": "C(C#N)C1=CC=CC=N1", "physical_data": {"Molecular Weight": "118.14", "Molecular Formula": "C7H6N2", "Boiling Point": "80-85 \u00b0C @ Press: 0.5 Torr", "Melting Point": "23.0-25.5 \u00b0C"}}