{"cas_no": "2739-98-2", "cn_name": "2-\u5421\u5576\u4e59\u9178\u4e59\u916f", "en_name": ["Ethyl 2-pyridylacetate", "2-Pyridineacetic acid, ethyl ester", "Ethyl 2-(\u03b1-pyridyl)acetate", "Ethyl 2-pyridineacetate", "Ethyl 2-pyridylacetate", "Ethyl 2-(2-pyridyl)acetate", "Ethyl 2-pyridinylacetate", "2-(2-Pyridyl)acetic acid ethyl ester", "NSC 82347", "Ethyl 2-(pyridin-2-yl)acetate", "(2-Pyridinyl)acetic acid ethyl ester", "2-Pyridylacetic acid ethyl ester"], "SMILES": "C(C(OCC)=O)C1=CC=CC=N1", "physical_data": {"Molecular Weight": "165.19", "Molecular Formula": "C9H11NO2", "Boiling Point": "134-135 \u00b0C @ Press: 21 Torr", "Melting Point": "136-137 \u00b0C"}}