{"cas_no": "274-79-3", "cn_name": "\u5432\u54da[1,2-A]\u5421\u55ea", "en_name": ["Imidazo[1,2-a]pyrazine", "Imidazo[1,2-a]pyrazine", "1,7-Diazaindolizine", "1,3a,6-Triazaindene"], "SMILES": "C=12N(C=CN1)C=CN=C2", "physical_data": {"Molecular Weight": "119.12", "Molecular Formula": "C6H5N3", "Melting Point": "83-85 \u00b0C"}}