{"cas_no": "274-80-6", "cn_name": "[1,2,4]\u4e09\u5511\u5e76[4,3-A]\u5421\u5576", "en_name": ["1,2,4-Triazolo[4,3-a]pyridine", "1,2,4-Triazolo[4,3-a]pyridine", "s-Triazolo[4,3-a]pyridine", "1,2-Diazaindolizine", "Pyrido[2,1-c]-s-triazole", "1,2,3a-Triazaindene", "Pyrido[2,1-c]-1,2,4-triazole", "NSC 68457"], "SMILES": "C=12N(C=NN1)C=CC=C2", "physical_data": {"Molecular Weight": "119.12", "Molecular Formula": "C6H5N3", "Boiling Point": "218 \u00b0C @ Press: 6 Torr", "Melting Point": "36-38 \u00b0C"}}