{"cas_no": "274-40-8", "cn_name": "\u5432\u55ea", "en_name": ["Indolizine", "Indolizine", "Pyrrocoline", "Pyrrolo[1,2-a]pyridine", "4-Azaindene", "Pyrrocolin", "Indolizin"], "SMILES": "C=12N(C=CC1)C=CC=C2", "physical_data": {"Molecular Weight": "117.15", "Molecular Formula": "C8H7N", "Boiling Point": "205 \u00b0C", "Melting Point": "75 \u00b0C"}}