{"cas_no": "274-07-7", "cn_name": "\u513f\u8418\u915a\u787c\u70f7", "en_name": ["Catecholborane", "1,3,2-Benzodioxaborole", "Catecholborane", "CB", "Pyrocatecholborane", "Benzcatechinborane", "Catecholatoborane", "Benzo[d][1,3,2]dioxaborole"], "SMILES": "C1=2C(OBO1)=CC=CC2", "physical_data": {"Molecular Weight": "119.91", "Molecular Formula": "C6H5BO2", "Boiling Point": "76 \u00b0C @ Press: 100 Torr", "Melting Point": "12 \u00b0C"}}