{"cas_no": "274-71-5", "cn_name": "\u5421\u5511[1,5-A]\u5627\u5576", "en_name": ["Pyrazolo[1,5-a]pyrimidine", "Pyrazolo[1,5-a]pyrimidine", "1,4,7a-Triazaindene"], "SMILES": "C=12N(N=CC1)C=CC=N2", "physical_data": {"Molecular Weight": "119.12", "Molecular Formula": "C6H5N3", "Melting Point": "105 \u00b0C"}}