{"cas_no": "274-47-5", "cn_name": "\u54aa\u5511[1,5-A]\u5421\u5576", "en_name": ["Imidazo[1,5-a]pyridine", "Imidazo[1,5-a]pyridine", "2-Azaindolizine", "2,3a-Diazaindene", "NSC 119858"], "SMILES": "C=12N(C=NC1)C=CC=C2", "physical_data": {"Molecular Weight": "118.14", "Molecular Formula": "C7H6N2", "Boiling Point": "120-125 \u00b0C @ Press: 3 Torr", "Melting Point": "54-55 \u00b0C"}}