{"cas_no": "274-45-3", "cn_name": "\u5421\u54af\u5e76[1,2-A]\u5421\u55ea", "en_name": ["Pyrrolo[1,2-a]pyrazine", "Pyrrolo[1,2-a]pyrazine", "7-Azaindolizine"], "SMILES": "C=12N(C=CC1)C=CN=C2", "physical_data": {"Molecular Weight": "118.14", "Molecular Formula": "C7H6N2", "Boiling Point": "71 \u00b0C @ Press: 2 Torr"}}