{"cas_no": "274-09-9", "cn_name": "\u80e1\u6912\u73af", "en_name": ["1,3-Benzodioxole", "1,3-Benzodioxole", "Benzene, 1,2-(methylenedioxy)-", "1,3-Dioxaindan", "1,3-Dioxindan", "Benzene, 1,2-[methylenebis(oxy)]-", "o-(Methylenedioxy)benzene", "(Methylenedioxy)benzene", "1,2-(Methylenedioxy)benzene", "2H-1,3-Benzodioxole", "NSC 30095", "2H-Benzo[d]-1,3-dioxolane", "Benzo[d]-1,3-dioxole"], "SMILES": "C1=2C(OCO1)=CC=CC2", "physical_data": {"Molecular Weight": "122.12", "Molecular Formula": "C7H6O2", "Boiling Point": "172.5 \u00b0C", "Melting Point": "-18 \u00b0C", "Density": "1.185 g/cm\u00b3 @ Temp: 20 \u00b0C"}}