{"cas_no": "2740-94-5", "cn_name": "1-BENZYL-3-METHYL-2-THIOUREA", "en_name": ["1-Benzyl-3-methyl-2-thiourea", "Thiourea, N-methyl-N\u2032-(phenylmethyl)-", "Urea, 1-benzyl-3-methyl-2-thio-", "N-Methyl-N\u2032-(phenylmethyl)thiourea", "1-Benzyl-3-methylthiourea", "N-Benzyl-N\u2032-methylthiourea", "1-Benzyl-3-methyl-2-thiourea", "N-Methyl-N\u2032-benzylthiourea", "1-Methyl-3-benzyl thiourea"], "SMILES": "C(NC(NC)=S)C1=CC=CC=C1", "physical_data": {"Molecular Weight": "180.27", "Molecular Formula": "C9H12N2S", "Melting Point": "74-76 \u00b0C"}}