{"cas_no": "27402-68-2", "cn_name": "5-\u785d\u57fa\u8367\u5149\u7d20", "en_name": ["3\u2032,6\u2032-Dihydroxy-6-nitrospiro[isobenzofuran-1(3H),9\u2032-[9H]xanthen]-3-one", "Spiro[isobenzofuran-1(3H),9\u2032-[9H]xanthen]-3-one, 3\u2032,6\u2032-dihydroxy-6-nitro-", "Fluorescein, 6-nitro-", "3\u2032,6\u2032-Dihydroxy-6-nitrospiro[isobenzofuran-1(3H),9\u2032-[9H]xanthen]-3-one", "6-Nitrofluorescein", "3\u2032,6\u2032-Dihydroxy-5-nitrospiro[2-benzofuran-3,9\u2032-xanthene]-1-one"], "SMILES": "O=C1OC2(C=3C1=CC=C(N(=O)=O)C3)C=4C(OC=5C2=CC=C(O)C5)=CC(O)=CC4", "physical_data": {"Molecular Weight": "377.30", "Molecular Formula": "C20H11NO7", "Melting Point": "&gt;250 \u00b0C (decomp)"}}