{"cas_no": "2740-83-2", "cn_name": "3-(\u4e09\u6c1f\u7532\u57fa)\u82ef\u7532\u80fa", "en_name": ["3-(Trifluoromethyl)benzylamine", "Benzenemethanamine, 3-(trifluoromethyl)-", "Benzylamine, m-(trifluoromethyl)-", "3-(Trifluoromethyl)benzenemethanamine", "3-(Trifluoromethyl)benzylamine", "m-(Trifluoromethyl)benzylamine", "[3-(Trifluoromethyl)phenyl]methanamine", "((3-(Trifluoromethyl)phenyl)methyl)amine", "Meta-trifluoromethylbenzylamine", "3-Triflouromethyl-1-benzylamine", "1-[3-(Trifluoromethyl)phenyl]methanamine"], "SMILES": "C(F)(F)(F)C1=CC(CN)=CC=C1", "physical_data": {"Molecular Weight": "175.15", "Molecular Formula": "C8H8F3N", "Boiling Point": "95-97 \u00b0C @ Press: 40 Torr", "Melting Point": "176.5-178.5 \u00b0C"}}