{"cas_no": "2740-88-7", "cn_name": "4-\u6c1f\u82c4\u57fa\u786b\u6c30\u9178\u916f", "en_name": ["1-Fluoro-4-(isothiocyanatomethyl)benzene", "Benzene, 1-fluoro-4-(isothiocyanatomethyl)-", "Isothiocyanic acid, p-fluorobenzyl ester", "1-Fluoro-4-(isothiocyanatomethyl)benzene", "p-Fluorobenzyl isothiocyanate", "4-Fluorobenzyl isothiocyanate", "1-(Isothiocyanatomethyl)-4-fluorobenzene"], "SMILES": "C(N=C=S)C1=CC=C(F)C=C1", "physical_data": {"Molecular Weight": "167.20", "Molecular Formula": "C8H6FNS", "Boiling Point": "122-124 \u00b0C @ Press: 8 Torr"}}