{"cas_no": "27417-40-9", "cn_name": "\u6a61\u80f6\u9632\u8001\u5242DTPD", "en_name": ["DMPD", "1,4-Benzenediamine, N1,N4-bis(methylphenyl)-", "p-Phenylenediamine, N,N\u2032-ditolyl-", "1,4-Benzenediamine, N,N\u2032-bis(methylphenyl)-", "N1,N4-Bis(methylphenyl)-1,4-benzenediamine", "N,N\u2032-Ditolyl-p-phenylenediamine", "N,N\u2032-Ditolyl-1,4-phenylenediamine", "N,N\u2032-Bis(methylphenyl)-p-phenylenediamine", "DMPD", "N,N\u2032-Di(monomethylphenyl)-p-phenylenediamine", "N,N\u2032-Bis(methylphenyl)-1,4-benzenediamine", "DTPD"], "SMILES": "", "physical_data": {"Molecular Weight": "", "Molecular Formula": "C20H20N2", "Melting Point": "183.5-185.5 \u00b0C"}}