{"cas_no": "2741-57-3", "cn_name": "\u7a3b\u53f6\u9752", "en_name": ["1-(Dichloromethyl)-2-(trichloromethyl)benzene", "Benzene, 1-(dichloromethyl)-2-(trichloromethyl)-", "o-Xylene, \u03b1,\u03b1,\u03b1,\u03b1\u2032,\u03b1\u2032-pentachloro-", "1-(Dichloromethyl)-2-(trichloromethyl)benzene", "\u03b1,\u03b1,\u03b1,\u03b1\u2032,\u03b1\u2032-Pentachloro-o-xylene", "NSC 155825"], "SMILES": "C(Cl)(Cl)(Cl)C1=C(C(Cl)Cl)C=CC=C1", "physical_data": {"Molecular Weight": "278.39", "Molecular Formula": "C8H5Cl5", "Melting Point": "48 \u00b0C"}}