{"cas_no": "2741-16-4", "cn_name": "1-\u5f02\u4e19\u6c27\u57fa\u82ef", "en_name": ["(1-Methylethoxy)benzene", "Benzene, (1-methylethoxy)-", "Ether, isopropyl phenyl", "(1-Methylethoxy)benzene", "Isopropyl phenyl ether", "Phenyl isopropyl ether", "Isopropoxybenzene", "2-Phenoxypropane", "(Propan-2-yloxy)benzene", "1-Isopropoxybenzene"], "SMILES": "O(C(C)C)C1=CC=CC=C1", "physical_data": {"Molecular Weight": "136.19", "Molecular Formula": "C9H12O", "Boiling Point": "176.8 \u00b0C", "Melting Point": "-33 \u00b0C", "Density": "0.943 g/cm\u00b3 @ Temp: 17.5 \u00b0C"}}