{"cas_no": "27431-62-5", "cn_name": "N,N-\u4e8c\u4e59\u57fa\u4e01\u70f7-1,4-\u4e8c\u80fa", "en_name": ["N,N-Diethyl-1,4-butanediamine", "1,4-Butanediamine, N1,N1-diethyl-", "1,4-Butanediamine, N,N-diethyl-", "N1,N1-Diethyl-1,4-butanediamine", "N,N-Diethyl-1,4-butanediamine", "N,N-Diethyltetramethylenediamine", "4-(Diethylamino)butylamine", "N,N-Diethyl-1,4-diaminobutane", "4-(N,N-Diethylamino)butylamine", "Diethylaminobutylamine", "(4-Aminobutyl)diethylamine", "N-(4-Aminobutyl)diethylamine", "1,4-Butanediamine N1,N1-diethyl-"], "SMILES": "N(CCCCN)(CC)CC", "physical_data": {"Molecular Weight": "144.26", "Molecular Formula": "C8H20N2", "Boiling Point": "85-86 \u00b0C @ Press: 16 Torr", "Melting Point": "156-158 \u00b0C", "Density": "0.8331 g/cm\u00b3"}}