{"cas_no": "2743-40-0", "cn_name": "L-\u4eae\u6c28\u9178\u4e59\u916f\u76d0\u9178\u76d0", "en_name": ["L-Leucine, ethyl ester, hydrochloride (1:1)", "L-Leucine, ethyl ester, hydrochloride (1:1)", "Leucine, ethyl ester, hydrochloride, L-", "L-Leucine, ethyl ester, hydrochloride", "Leucine ethyl ester hydrochloride", "Ethyl L-leucinate hydrochloride", "(S)-Leucine ethyl ester hydrochloride", "(S)-Ethyl 2-amino-4-methylpentanoate hydrochloride"], "SMILES": "C(C(OCC)=O)(CC(C)C)N.Cl", "physical_data": {"Molecular Weight": "", "Molecular Formula": "C8H17NO2.ClH", "Melting Point": "119 \u00b0C"}}