{"cas_no": "2745-22-4", "cn_name": "2-\u6c28\u57fa-1-\u544b\u5583-2-\u4e59\u9187", "en_name": ["\u03b1-(Aminomethyl)-2-furanmethanol", "2-Furanmethanol, \u03b1-(aminomethyl)-", "Furfuryl alcohol, \u03b1-(aminomethyl)-", "\u03b1-(Aminomethyl)-2-furanmethanol", "2-Amino-1-(2-furyl)ethanol", "2-Amino-1-(furan-2-yl)ethan-1-ol", "2-(1-Hydroxy-2-aminoethyl)-furan", "2-Amino-1-(furan-2-yl)ethanol"], "SMILES": "C(CN)(O)C1=CC=CO1", "physical_data": {"Molecular Weight": "127.14", "Molecular Formula": "C6H9NO2", "Boiling Point": "108 \u00b0C @ Press: 1 Torr", "Melting Point": "87 \u00b0C"}}