{"cas_no": "2745-26-8", "cn_name": "2-\u544b\u5583\u4e59\u9178", "en_name": ["2-Furanacetic acid", "2-Furanacetic acid", "2-Furylacetic acid", "2-(2-Furyl)acetic acid", "2-Furanylacetic acid", "2-(Furan-2-yl)acetic acid"], "SMILES": "C(C(O)=O)C1=CC=CO1", "physical_data": {"Molecular Weight": "126.11", "Molecular Formula": "C6H6O3", "Melting Point": "68.5 \u00b0C"}}