{"cas_no": "2745-49-5", "cn_name": "2,5-\u4e8c\u6c2f\u82c4\u57fa\u6c2f", "en_name": ["2,5-Dichlorobenzyl chloride", "Benzene, 1,4-dichloro-2-(chloromethyl)-", "Toluene, \u03b1,2,5-trichloro-", "1,4-Dichloro-2-(chloromethyl)benzene", "2,5-Dichlorobenzyl chloride", "(2,5-Dichlorophenyl)methyl chloride"], "SMILES": "C(Cl)C1=C(Cl)C=CC(Cl)=C1", "physical_data": {"Molecular Weight": "195.47", "Molecular Formula": "C7H5Cl3", "Boiling Point": "102 \u00b0C @ Press: 10 Torr", "Density": "1.3048 g/cm\u00b3 @ Temp: 20 \u00b0C"}}