{"cas_no": "2745-54-2", "cn_name": "3,5-\u4e8c\u7532\u57fa\u82c4\u57fa\u6c2f", "en_name": ["3,5-Dimethylbenzyl chloride", "Benzene, 1-(chloromethyl)-3,5-dimethyl-", "Mesitylene, \u03b1-chloro-", "1-(Chloromethyl)-3,5-dimethylbenzene", "\u03b1-Chloromesitylene", "3,5-Dimethylbenzyl chloride", "1,3-Dimethyl-5-chloromethylbenzene", "3,5-Dimethyl(chloromethyl)benzene"], "SMILES": "C(Cl)C1=CC(C)=CC(C)=C1", "physical_data": {"Molecular Weight": "154.64", "Molecular Formula": "C9H11Cl", "Boiling Point": "250 \u00b0C @ Press: 750 Torr"}}