{"cas_no": "27458-94-2", "cn_name": "\u5f02\u58ec\u9187", "en_name": ["Isononanol", "Isononanol", "Isononyl alcohol", "Exxsol 9", "Neoflex 9", "Exxal 9", "Oxocol 900", "Exxal 9S", "Nonanol N"], "SMILES": "", "physical_data": {"Molecular Weight": "", "Molecular Formula": "C9H20O", "Boiling Point": "100 \u00b0C @ Press: 13 Torr", "Melting Point": "64-65 \u00b0C"}}