{"cas_no": "27464-82-0", "cn_name": "2,5-\u4e8c\u7532\u57fa\u567b\u4e8c\u5511", "en_name": ["2,5-Dimethyl-1,3,4-thiadiazole", "1,3,4-Thiadiazole, 2,5-dimethyl-", "2,5-Dimethyl-1,3,4-thiadiazole", "NSC 93787"], "SMILES": "CC=1SC(C)=NN1", "physical_data": {"Molecular Weight": "114.17", "Molecular Formula": "C4H6N2S", "Boiling Point": "202.5 \u00b0C", "Melting Point": "65 \u00b0C"}}