{"cas_no": "27469-60-9", "cn_name": "4,4'-\u4e8c\u6c1f\u82ef\u7532\u54cc\u55ea", "en_name": ["1-[Bis(4-fluorophenyl)methyl]piperazine", "Piperazine, 1-[bis(4-fluorophenyl)methyl]-", "Piperazine, 1-[bis(p-fluorophenyl)methyl]-", "1-[Bis(4-fluorophenyl)methyl]piperazine", "1-(Di-p-fluorobenzhydryl)piperazine", "R 19352", "T 841", "N-(4,4\u2032-Difluorobenzhydryl)piperazine", "N-(Bis(4-fluorophenyl)methyl)piperazine", "4-[Bis(4-fluorophenyl)methyl]piperazine", "4,4\u2032-Difluorobenzhydrylpiperazine"], "SMILES": "C(C1=CC=C(F)C=C1)(C2=CC=C(F)C=C2)N3CCNCC3", "physical_data": {"Molecular Weight": "288.33", "Molecular Formula": "C17H18F2N2", "Melting Point": "88-91 \u00b0C"}}