{"cas_no": "27469-53-0", "cn_name": "\u70ef\u4e19\u54cc\u4e09\u55ea", "en_name": ["Almitrine", "1,3,5-Triazine-2,4-diamine, 6-[4-[bis(4-fluorophenyl)methyl]-1-piperazinyl]-N2,N4-di-2-propen-1-yl-", "s-Triazine, 2,4-bis(allylamino)-6-[4-[bis(p-fluorophenyl)methyl]-1-piperazinyl]-", "1,3,5-Triazine-2,4-diamine, 6-[4-[bis(4-fluorophenyl)methyl]-1-piperazinyl]-N,N\u2032-di-2-propenyl-", "6-[4-[Bis(4-fluorophenyl)methyl]-1-piperazinyl]-N2,N4-di-2-propen-1-yl-1,3,5-triazine-2,4-diamine", "1-(4,6-Bis(allylamino)-2-s-triazinyl)-4-(4,4\u2032-difluorobenzhydryl)piperazine", "S 2620", "Almitrine"], "SMILES": "C(N1CCN(CC1)C=2N=C(NCC=C)N=C(NCC=C)N2)(C3=CC=C(F)C=C3)C4=CC=C(F)C=C4", "physical_data": {"Molecular Weight": "477.55", "Molecular Formula": "C26H29F2N7", "Melting Point": "181 \u00b0C"}}