{"cas_no": "2746-25-0", "cn_name": "4-\u7532\u6c27\u57fa\u6eb4\u82c4", "en_name": ["4-Methoxybenzyl bromide", "Benzene, 1-(bromomethyl)-4-methoxy-", "Anisole, p-(bromomethyl)-", "1-(Bromomethyl)-4-methoxybenzene", "p-Methoxybenzyl bromide", "(4-Methoxyphenyl)methyl bromide", "p-(Bromomethyl)anisole", "4-(Bromomethyl)anisole", "4-Methoxybenzyl bromide", "4-Methoxy-1-(bromomethyl)benzene", "1,4-Methoxybromomethylbenzene", "(4-Bromomethylphenoxy)methane", "Methyl p-Bromomethylphenyl ether"], "SMILES": "C(Br)C1=CC=C(OC)C=C1", "physical_data": {"Molecular Weight": "201.06", "Molecular Formula": "C8H9BrO", "Boiling Point": "129 \u00b0C @ Press: 6 Torr", "Melting Point": "240 \u00b0C", "Density": "1.395 g/cm\u00b3 @ Temp: 19 \u00b0C"}}