{"cas_no": "27460-02-2", "cn_name": "\u70f7\u57fa\u4e8c\u82ef\u78f7\u9178\u916f", "en_name": ["Phosphoric acid, dodecyl diphenyl ester", "Phosphoric acid, dodecyl diphenyl ester", "Dodecyl diphenyl phosphate", "Diphenyl lauryl phosphate"], "SMILES": "P(OC1=CC=CC=C1)(OC2=CC=CC=C2)(OCCCCCCCCCCCC)=O", "physical_data": {"Molecular Weight": "418.51", "Molecular Formula": "C24H35O4P", "Melting Point": "&lt;-30 \u00b0C", "Density": "1.038 g/cm\u00b3 @ Temp: 26.5 \u00b0C"}}