{"cas_no": "2746-19-2", "cn_name": "\u987a-5-\u964d\u51b0\u7247\u70ef-\u5916-2,3-\u4e8c\u7fa7\u9178\u9150", "en_name": ["Himic anhydride", "4,7-Methanoisobenzofuran-1,3-dione, 3a,4,7,7a-tetrahydro-, (3aR,4R,7S,7aS)-rel-", "5-Norbornene-2,3-dicarboxylic anhydride, cis-exo-", "4,7-Methanoisobenzofuran-1,3-dione, 3a,4,7,7a-tetrahydro-, (3a\u03b1,4\u03b2,7\u03b2,7a\u03b1)-", "rel-(3aR,4R,7S,7aS)-3a,4,7,7a-Tetrahydro-4,7-methanoisobenzofuran-1,3-dione", "exo-cis-3,6-endo-Methylene-\u03944-tetrahydrophthalic anhydride", "exo-3,6-Methylene-1,2,3,6-tetrahydrophthalic anhydride", "exo-3,6-Methylene-4-cyclohexene-1,2-dicarboxylic anhydride", "exo-5-Norbornene-2,3-dicarboxylic anhydride", "Himic anhydride", "exo-cis-5-Norbornene-2,3-dicarboxylic anhydride", "Bicyclo[2.2.1]hept-5-ene-2,3-dicarboxylic acid exo-anhydride", "exo-5-Norbornene-1,2-dicarboxylic anhydride", "exo-Nadic anhydride", "cis-Norbornene-exo-2,3-dicarboxylic anhydride", "NSC 110659", "cis-5-Norbornene-exo-2,3-dicarboxylic anhydride", "exo-2,3-Norbornenedicarboxylic acid anhydride", "exo-Carbic anhydride", "exo,exo-2,3-Norborn-5-enedicarboxylic anhydride", "cis-5-Norbornene-exo-anhydride", "NAH", "cis-5-Norbornene-exo-2,3-dicarboxylic anhydride", "exo-Norbornene dicarboxylic anhydride", "Cis 5-Norbornene-exo-2,3-dicarboxylic acid anhydride"], "SMILES": "O=C1C2C(C3CC2C=C3)C(=O)O1", "physical_data": {"Molecular Weight": "164.16", "Molecular Formula": "C9H8O3", "Melting Point": "143 \u00b0C"}}