{"cas_no": "27472-21-5", "cn_name": "3,4-\u4e8c\u4e59\u6c27\u57fa\u82ef\u4e59\u8148", "en_name": ["3,4-Diethoxybenzeneacetonitrile", "Benzeneacetonitrile, 3,4-diethoxy-", "Acetonitrile, (3,4-diethoxyphenyl)-", "3,4-Diethoxybenzeneacetonitrile", "3,4-Diethoxyphenylacetonitrile", "3,4-Diethoxybenzyl cyanide", "2-(3,4-Diethoxyphenyl)acetonitrile"], "SMILES": "O(CC)C1=C(OCC)C=CC(CC#N)=C1", "physical_data": {"Molecular Weight": "205.25", "Molecular Formula": "C12H15NO2", "Boiling Point": "175-180 \u00b0C", "Melting Point": "37 \u00b0C"}}