{"cas_no": "27470-51-5", "cn_name": "\u7425\u5e03\u5b97", "en_name": ["Suxibuzone", "Butanedioic acid, 1-[(4-butyl-3,5-dioxo-1,2-diphenyl-4-pyrazolidinyl)methyl] ester", "Succinic acid, monoester with 4-butyl-4-(hydroxymethyl)-1,2-diphenyl-3,5-pyrazolidinedione", "Butanedioic acid, mono[(4-butyl-3,5-dioxo-1,2-diphenyl-4-pyrazolidinyl)methyl] ester", "3,5-Pyrazolidinedione, 4-butyl-4-(hydroxymethyl)-1,2-diphenyl-, hydrogen succinate (ester)", "4-Hydroxymethylbutazolidine hemisuccinate", "Suxibuzone", "AE 17", "Flogos", "Solurol", "Calibene", "Danilon", "Suxibutazone"], "SMILES": "C(OC(CCC(O)=O)=O)C1(CCCC)C(=O)N(N(C1=O)C2=CC=CC=C2)C3=CC=CC=C3", "physical_data": {"Molecular Weight": "438.47", "Molecular Formula": "C24H26N2O6", "Melting Point": "126-127 \u00b0C"}}