{"cas_no": "2747-05-9", "cn_name": "7-\u4e59\u9170\u6c27\u57fa-4-\u7532\u57fa\u9999\u8c46\u7d20", "en_name": ["4-Methylumbelliferyl acetate", "2H-1-Benzopyran-2-one, 7-(acetyloxy)-4-methyl-", "Coumarin, 7-hydroxy-4-methyl-, acetate", "Umbelliferone, 4-methyl-, acetate", "7-(Acetyloxy)-4-methyl-2H-1-benzopyran-2-one", "4-Methylumbelliferone acetate", "7-Acetoxy-4-methylcoumarin", "\u03b2-Methylumbelliferone acetate", "7-Hydroxy-4-methylcoumarin acetate", "4-Methyl-7-acetoxycoumarin", "4-Methylumbelliferone 7-acetate", "7-(Acetyloxy)-4-methylcoumarin", "4-Methylumbelliferyl acetate", "NSC 1059", "NSC 31658", "NSC 44763", "NSC 688806", "(4-Methyl-2-oxochromen-7-yl) acetate"], "SMILES": "CC=1C=2C(=CC(OC(C)=O)=CC2)OC(=O)C1", "physical_data": {"Molecular Weight": "218.21", "Molecular Formula": "C12H10O4", "Melting Point": "150 \u00b0C"}}