{"cas_no": "27489-60-7", "cn_name": "\u53cd-4-\u4e59\u9170\u6c28\u57fa\u73af\u5df1\u9187", "en_name": ["N-(trans-4-Hydroxycyclohexyl)acetamide", "Acetamide, N-(trans-4-hydroxycyclohexyl)-", "Acetamide, N-(4-hydroxycyclohexyl)-, trans-", "N-(trans-4-Hydroxycyclohexyl)acetamide", "trans-4-Acetamidocyclohexanol", "trans-N-Acetyl-4-hydroxycyclohexylamine"], "SMILES": "N(C(C)=O)C1CCC(O)CC1", "physical_data": {"Molecular Weight": "157.21", "Molecular Formula": "C8H15NO2", "Melting Point": "165-167 \u00b0C"}}