{"cas_no": "27492-84-8", "cn_name": "2-\u7532\u6c27\u57fa-4-\u6c28\u57fa\u82ef\u7532\u9178\u7532\u916f", "en_name": ["Methyl 4-amino-2-methoxybenzoate", "Benzoic acid, 4-amino-2-methoxy-, methyl ester", "o-Anisic acid, 4-amino-, methyl ester", "Methyl 4-amino-2-methoxybenzoate", "4-Amino-2-methoxybenzoic acid methyl ester", "Methyl p-amino-o-methoxybenzoate", "2-Methoxy-4-aminobenzoic acid methyl ester", "3-Methoxy-4-(methoxycarbonyl)aniline", "Methyl 2-methoxy-4-aminobenzoate", "AMG 2520765"], "SMILES": "C(OC)(=O)C1=C(OC)C=C(N)C=C1", "physical_data": {"Molecular Weight": "181.19", "Molecular Formula": "C9H11NO3", "Melting Point": "159 \u00b0C"}}