{"cas_no": "27496-82-8", "cn_name": "5,5'-\u4e9a\u7532\u57fa\u53cc\u6c34\u6768\u9178", "en_name": ["Methylenebis[2-hydroxybenzoic acid]", "Benzoic acid, methylenebis[2-hydroxy-", "Salicylic acid, methylenedi-", "Methylenebis[2-hydroxybenzoic acid]", "Methylenedisalicylic acid"], "SMILES": "", "physical_data": {"Molecular Weight": "", "Molecular Formula": "C15H12O6", "Melting Point": "243-244 \u00b0C"}}