{"cas_no": "2749-59-9", "cn_name": "1,3-\u4e8c\u7532\u57fa-5-\u5421\u5511\u916e", "en_name": ["1,3-Dimethyl-5-pyrazolone", "3H-Pyrazol-3-one, 2,4-dihydro-2,5-dimethyl-", "2-Pyrazolin-5-one, 1,3-dimethyl-", "2,4-Dihydro-2,5-dimethyl-3H-pyrazol-3-one", "1,3-Dimethyl-5-pyrazolone", "1,3-Dimethyl-5-pyrazolinone", "1,3-Dimethyl-2-pyrazolin-5-one", "NSC 304", "2,5-Dimethyl-2,4-dihydro-pyrazol-3-one", "1,3-Dimethyl-4,5-dihydro-1H-pyrazol-5-one", "2,5-Dimethyl-4H-pyrazol-3-one", "1,3-Dimethyl-1H-pyrazol-5(4H)-one"], "SMILES": "O=C1N(C)N=C(C)C1", "physical_data": {"Molecular Weight": "112.13", "Molecular Formula": "C5H8N2O", "Boiling Point": "88-89 \u00b0C @ Press: 10 Torr", "Melting Point": "122 \u00b0C"}}