{"cas_no": "27490-33-1", "cn_name": "(\u4e09\u4e01\u57fa\u9521)\u7532\u9187", "en_name": ["1-(Tributylstannyl)methanol", "Methanol, 1-(tributylstannyl)-", "Methanol, (tributylstannyl)-", "1-(Tributylstannyl)methanol", "(Tributylstannyl)methanol", "Tributyl(hydroxymethyl)stannane", "(Hydroxymethyl)tributyltin", "Hydroxymethyl tributylstannane"], "SMILES": "[Sn](CCCC)(CCCC)(CCCC)CO", "physical_data": {"Molecular Weight": "321.09", "Molecular Formula": "C13H30OSn", "Boiling Point": "110 \u00b0C @ Press: 0.01 Torr"}}