{"cas_no": "274901-16-5", "cn_name": "\u7ef4\u8fbe\u5217\u6c40", "en_name": ["Vildagliptin", "2-Pyrrolidinecarbonitrile, 1-[2-[(3-hydroxytricyclo[3.3.1.13,7]dec-1-yl)amino]acetyl]-, (2S)-", "2-Pyrrolidinecarbonitrile, 1-[[(3-hydroxytricyclo[3.3.1.13,7]dec-1-yl)amino]acetyl]-, (2S)-", "(2S)-1-[2-[(3-Hydroxytricyclo[3.3.1.13,7]dec-1-yl)amino]acetyl]-2-pyrrolidinecarbonitrile", "Vildagliptin", "LAF 237", "NVP-LAF 237", "Galvus", "Equa", "DSP 7238", "(S)-1-[2-[(3-Hydroxyadamant-1-yl)amino]acetyl]pyrrolidine-2-carbonitrile", "(2S)-1-[2-[(3-Hydroxy-1-adamantyl)amino]acetyl]pyrrolidine-2-carbonitrile", "Xiliarx", "Jalra", "(2S)-1-[[(3-Hydroxytricyclo[3.3.1.13,7]dec-1-yl)amino]acetyl]-pyrrolidine-2-carbonitrile"], "SMILES": "N(CC(=O)N1C(C#N)CCC1)C23CC4(O)CC(C2)CC(C3)C4", "physical_data": {"Molecular Weight": "303.40", "Molecular Formula": "C17H25N3O2", "Melting Point": "148-150 \u00b0C"}}