{"cas_no": "27490-70-6", "cn_name": "\u6c2f\u5316\u4e8c\u7532\u57fa\u5f02\u4e01\u57fa\u7845\u70f7", "en_name": ["Chlorodimethyl(2-methylpropyl)silane", "Silane, chlorodimethyl(2-methylpropyl)-", "Silane, chloroisobutyldimethyl-", "Chlorodimethyl(2-methylpropyl)silane", "Isobutyldimethylsilyl chloride", "Dimethylisobutylchlorosilane", "Isobutyldimethylchlorosilane"], "SMILES": "C([Si](C)(C)Cl)C(C)C", "physical_data": {"Molecular Weight": "150.72", "Molecular Formula": "C6H15ClSi", "Boiling Point": "131-133 \u00b0C"}}