{"cas_no": "2749-11-3", "cn_name": "L-\u6c28\u57fa\u4e19\u9187", "en_name": ["L-Alaninol", "1-Propanol, 2-amino-, (2S)-", "1-Propanol, 2-amino-, L-", "1-Propanol, 2-amino-, (S)-", "(2S)-2-Amino-1-propanol", "L-Alaninol", "L-2-Aminopropanol", "L-(+)-Alaninol", "L-2-Amino-1-propanol", "S-(+)-Alaninol", "(S)-Alaninol", "(S)-2-Aminopropanol", "(S)-2-Amino-1-propanol", "(+)-2-Amino-1-propanol", "S-(+)-2-Amino-1-propanol", "(+)-Alaninol", "(+)-2-Aminopropanol", "((S)-2-Hydroxy-1-methylethyl)amine", "(2S)-(+)-2-Aminopropan-1-ol", "[(S)-1-(Hydroxymethyl)ethyl]amine", "(2S)-2-Aminopropan-1-ol", "2-(S)-Amino-propan-1-ol", "(S)-2-Amino-1-propanol", "2S-Aminopropanol", "(2S)-(+)-2-Aminopropan-1-ol"], "SMILES": "C(CO)(C)N", "physical_data": {"Molecular Weight": "75.11", "Molecular Formula": "C3H9NO", "Boiling Point": "72-73 \u00b0C @ Press: 11 Torr", "Melting Point": "174-175 \u00b0C", "Density": "0.965 g/cm\u00b3 @ Temp: 20 \u00b0C"}}