{"cas_no": "275-02-5", "cn_name": "1,2,4-\u567b\u5511[1,5-A]\u5627\u5576", "en_name": ["[1,2,4]Triazolo[1,5-a]pyrimidine", "[1,2,4]Triazolo[1,5-a]pyrimidine", "s-Triazolo[1,5-a]pyrimidine", "1,3,3a,7-Tetraazaindene", "1,3,3a,7-Tetrazaindene", "1,3,4-Triazaindolizine", "s-Triazolo[2,3-a]pyrimidine", "[1,2,4]Triazolo[2,3-a]pyrimidine", "2,3-Triazolo-\u03b1-pyrimidine", "1-Deaza-5-azapurine", "1,2,4-Triazolo[1,5-a]pyrimidine"], "SMILES": "C=12N(N=CN1)C=CC=N2", "physical_data": {"Molecular Weight": "120.11", "Molecular Formula": "C5H4N4", "Melting Point": "141-143 \u00b0C"}}