{"cas_no": "275-51-4", "cn_name": "\u5965\u82f7\u83ca\u73af", "en_name": ["Azulene", "Azulene", "Bicyclo[5.3.0]decapentaene", "Cyclopentacycloheptene", "NSC 89248"], "SMILES": "C1=2C(=CC=C1)C=CC=CC2", "physical_data": {"Molecular Weight": "128.17", "Molecular Formula": "C10H8", "Boiling Point": "135.6 \u00b0C @ Press: 1.10000061035156 Torr", "Melting Point": "99 \u00b0C", "Density": "0.98771 g/cm\u00b3 @ Temp: 25 \u00b0C"}}