{"cas_no": "27514-08-5", "cn_name": "\u5bf9\u4e59\u9170\u6c28\u57fa\u73af\u5df1\u916e", "en_name": ["4-Acetamidocyclohexanone", "Acetamide, N-(4-oxocyclohexyl)-", "N-(4-Oxocyclohexyl)acetamide", "4-Acetamidocyclohexanone", "4-(Acetylamino)cyclohexanone"], "SMILES": "N(C(C)=O)C1CCC(=O)CC1", "physical_data": {"Molecular Weight": "155.19", "Molecular Formula": "C8H13NO2", "Melting Point": "134-135 \u00b0C"}}