{"cas_no": "2751-09-9", "cn_name": "\u7af9\u6843\u9709\u7d20\u4e09\u4e59\u9178\u916f", "en_name": ["Troleandomycin", "Oleandomycin, 2\u2032\u2032,4\u2032,11-triacetate", "Oleandomycin triacetate", "Oleandomycin, triacetate (ester)", "Oxiraneheptanoic acid, 2-(3,5-dihydroxy-2,4-dimethylhexanoyl)-\u03b4-[[4-(dimethylamino)tetrahydro-3-hydroxy-6-methylpyran-2-yl]oxy]-\u03b1,\u03b3,\u03b5-trimethyl-\u03b2-[(tetrahydro-5-hydroxy-4-methoxy-6-methylpyran-2-yl)oxy]-, \u03bc-lactone, triacetate", "1,9-Dioxaspiro[2.13]hexadecane, oleandomycin deriv.", "Wy 651", "Cyclamycin", "Evramicina", "Oleandomycin triacetyl ester", "TAO", "Triacetyloleandomycin", "Troleandomycin", "TAO (pharmaceutical)", "Triocetin", "Wytrion", "Evramycin", "NSC 108166", "Oleomycin", "Acetyloleandomycin", "Tekmisin", "MeSH ID: D014217"], "SMILES": "O=C1C2(CO2)CC(C)C(OC3C(OC(C)=O)C(N(C)C)CC(C)O3)C(C)C(OC4CC(OC)C(OC(C)=O)C(C)O4)C(C)C(=O)OC(C)C(C)C(OC(C)=O)C1C", "physical_data": {"Molecular Weight": "813.97", "Molecular Formula": "C41H67NO15", "Melting Point": "170 \u00b0C"}}