{"cas_no": "27519-02-4", "cn_name": "\u987a\u5f0f-9-\u4e8c\u5341\u4e09\u70ef", "en_name": ["(Z)-9-Tricosene", "9-Tricosene, (9Z)-", "9-Tricosene, (Z)-", "(9Z)-9-Tricosene", "cis-9-Tricosene", "Muscalure", "(Z)-9-Tricosene", "9Z-Tricosene", "Muscamone"], "SMILES": "C(CCCCCCCCCCC)CC=CCCCCCCCC", "physical_data": {"Molecular Weight": "322.61", "Molecular Formula": "C23H46", "Boiling Point": "378 \u00b0C", "Melting Point": "&lt;0 \u00b0C"}}