{"cas_no": "27512-72-7", "cn_name": "\u5432\u719f\u916f", "en_name": ["Ethychlozate", "1H-Indazole-3-acetic acid, 5-chloro-, ethyl ester", "J 455", "IZAA", "Etychlozate", "Ethychlozate", "Figaron", "Ethyl 5-chloro-1H-indazole-3-acetate", "Figarin", "Ethylchlozate"], "SMILES": "C(C(OCC)=O)C=1C=2C(NN1)=CC=C(Cl)C2", "physical_data": {"Molecular Weight": "238.67", "Molecular Formula": "C11H11ClN2O2", "Melting Point": "77 \u00b0C"}}