{"cas_no": "2751-90-8", "cn_name": "\u56db\u82ef\u57fa\u6eb4\u5316\u81a6", "en_name": ["Tetraphenylphosphonium bromide", "Phosphonium, tetraphenyl-, bromide (1:1)", "Phosphonium, tetraphenyl-, bromide", "Tetraphenylphosphonium bromide", "Tetraphenylphosphorus bromide", "TPP-PB", "TTP-PB", "Bromotetraphenylphosphorane", "T 1069"], "SMILES": "[P+](C1=CC=CC=C1)(C2=CC=CC=C2)(C3=CC=CC=C3)C4=CC=CC=C4.[Br-]", "physical_data": {"Molecular Weight": "", "Molecular Formula": "C24H20P.Br", "Melting Point": "286-288 \u00b0C"}}