{"cas_no": "27511-79-1", "cn_name": "3-\u6c28\u57fa-4-\u7532\u9170\u80fa\u57fa\u5421\u5511\u534a\u786b\u9178\u76d0", "en_name": ["3-Amino-1H-pyrazole-4-carboxamide sulfate (2:1)", "1H-Pyrazole-4-carboxamide, 3-amino-, sulfate (2:1)", "Pyrazole-4-carboxamide, 3-amino-, sulfate (2:1)", "3-Amino-1H-pyrazole-4-carboxamide sulfate (2:1)", "3-Amino-1H-pyrazole-4-carboxamide hemisulfate", "3-Amino-4-pyrazolecarboxamide hemisulfate salt"], "SMILES": "C(N)(=O)C=1C(N)=NNC1.S(=O)(=O)(O)O", "physical_data": {"Molecular Weight": "", "Molecular Formula": "C4H6N4O.<sup>1</sup>/2H2O4S", "Melting Point": "222-225 \u00b0C"}}