{"cas_no": "2752-99-0", "cn_name": "\u4e09\u82a5\u7cbe", "en_name": ["1,1\u2032,1\u2032\u2032-(1,2,3-Propanetriyl) tri-(13Z)-13-docosenoate", "13-Docosenoic acid, 1,1\u2032,1\u2032\u2032-(1,2,3-propanetriyl) ester, (13Z,13\u2032Z,13\u2032\u2032Z)-", "13-Docosenoin, tri-, (Z,Z,Z)-", "13-Docosenoic acid, 1,2,3-propanetriyl ester, (Z,Z,Z)-", "Erucin, tri-", "13-Docosenoic acid, 1,2,3-propanetriyl ester, (13Z,13\u2032Z,13\u2032\u2032Z)-", "1,1\u2032,1\u2032\u2032-(1,2,3-Propanetriyl) tri-(13Z)-13-docosenoate", "Trierucin", "Glyceryl trierucate", "Erucic acid triglyceride", "Lorenzo oil", "Lorenzo's oil", "Glycerol trierucate", "(Z)-13-Docosenoic acid triglyceride", "Tri(Z-13-docosenoyl)glycerol"], "SMILES": "C(OC(CCCCCCCCCCCC=CCCCCCCCC)=O)(COC(CCCCCCCCCCCC=CCCCCCCCC)=O)COC(CCCCCCCCCCCC=CCCCCCCCC)=O", "physical_data": {"Molecular Weight": "1053.75", "Molecular Formula": "C69H128O6", "Melting Point": "31.5-32 \u00b0C"}}