{"cas_no": "2752-65-0", "cn_name": "\u85e4\u9ec4\u9178 A", "en_name": ["Gambogic acid", "2-Butenoic acid, 2-methyl-4-[(1R,3aS,5S,11R,14aS)-3a,4,5,7-tetrahydro-8-hydroxy-3,3,11-trimethyl-13-(3-methyl-2-buten-1-yl)-11-(4-methyl-3-penten-1-yl)-7,15-dioxo-1,5-methano-1H,3H,11H-furo[3,4-g]pyrano[3,2-b]xanthen-1-yl]-, (2Z)-", "1,5-Methano-1H,3H,11H-furo[3,4-g]pyrano[3,2-b]xanthene-1-crotonic acid, 3a,4,5,7-tetrahydro-8-hydroxy-\u03b1,3,3,11-tetramethyl-13-(3-methyl-2-butenyl)-11-(4-methyl-3-pentenyl)-7,15-dioxo-, (Z)-", "Gambogic acid", "2-Butenoic acid, 2-methyl-4-[3a,4,5,7-tetrahydro-8-hydroxy-3,3,11-trimethyl-13-(3-methyl-2-butenyl)-11-(4-methyl-3-pentenyl)-7,15-dioxo-1,5-methano-1H,3H,11H-furo[3,4-g]pyrano[3,2-b]xanthen-1-yl]-, [1R-[1\u03b1,1(Z),3a\u03b2,5\u03b1,11\u03b2,14aS*]]-", "2-Butenoic acid, 2-methyl-4-[(1R,3aS,5S,11R,14aS)-3a,4,5,7-tetrahydro-8-hydroxy-3,3,11-trimethyl-13-(3-methyl-2-butenyl)-11-(4-methyl-3-pentenyl)-7,15-dioxo-1,5-methano-1H,3H,11H-furo[3,4-g]pyrano[3,2-b]xanthen-1-yl]-, (2Z)-", "(2Z)-2-Methyl-4-[(1R,3aS,5S,11R,14aS)-3a,4,5,7-tetrahydro-8-hydroxy-3,3,11-trimethyl-13-(3-methyl-2-buten-1-yl)-11-(4-methyl-3-penten-1-yl)-7,15-dioxo-1,5-methano-1H,3H,11H-furo[3,4-g]pyrano[3,2-b]xanthen-1-yl]-2-butenoic acid", "\u03b2-Guttiferin", "R-Gambogic acid", "(-)-Gambogic acid", "UI1907"], "SMILES": "C(C=C(C(O)=O)C)C12C34C(C(=O)C=5C(O3)=C(CC=C(C)C)C6=C(C5O)C=CC(CCC=C(C)C)(C)O6)=CC(C1=O)CC4C(C)(C)O2", "physical_data": {"Molecular Weight": "628.75", "Molecular Formula": "C38H44O8", "Melting Point": "78-90 \u00b0C"}}