{"cas_no": "2752-64-9", "cn_name": "\u4e2d\u4e4c\u5934\u78b1", "en_name": ["Mesaconitine", "Aconitane-3,8,13,14,15-pentol, 1,6,16-trimethoxy-4-(methoxymethyl)-20-methyl-, 8-acetate 14-benzoate, (1\u03b1,3\u03b1,6\u03b1,14\u03b1,15\u03b1,16\u03b2)-", "Mesaconitine", "2H-12,3,6a-Ethanylylidene-7,9-methanonaphth[2,3-b]azocine, aconitane-3,8,13,14,15-pentol deriv.", "NSC 77210"], "SMILES": "O(C)C1C23C4C(COC)(CN(C)C2C(C4OC)C5(OC(C)=O)C6C3CC(O)(C6OC(=O)C7=CC=CC=C7)C(OC)C5O)C(O)C1", "physical_data": {"Molecular Weight": "631.71", "Molecular Formula": "C33H45NO11", "Melting Point": "208-209 \u00b0C"}}