{"cas_no": "2752-17-2", "cn_name": "2,2'-\u6c27\u53cc(\u4e59\u80fa)", "en_name": ["2-Aminoethyl ether", "Ethanamine, 2,2\u2032-oxybis-", "Ethylamine, 2,2\u2032-oxybis-", "2,2\u2032-Oxybis[ethanamine]", "Bis(2-aminoethyl) ether", "1,5-Diamino-3-oxapentane", "2-Aminoethyl ether", "3-Oxa-1,5-diaminopentane", "2,2\u2032-Oxybis(ethylamine)", "2,2\u2032-Oxydi[ethanamine]", "Jeffamine EDR 104", "3-Oxa-1,5-pentanediamine", "2-(2-Aminoethoxy)ethylamine", "1,5-Diamine-3-oxapentane", "2-(2-Aminoethoxy)ethanamine", "EDR 104", "2-(2-Aminoethoxy)ethan-1-amine"], "SMILES": "O(CCN)CCN", "physical_data": {"Molecular Weight": "104.15", "Molecular Formula": "C4H12N2O", "Boiling Point": "183-184 \u00b0C"}}