{"cas_no": "2753-30-2", "cn_name": "\u845b\u675c\u5b81", "en_name": ["Gedunin", "Oxireno[c]phenanthro[1,2-d]pyran-3,8(3aH,4bH)-dione, 5-(acetyloxy)-1-(3-furanyl)-1,5,6,6a,7,10a,10b,11,12,12a-decahydro-4b,7,7,10a,12a-pentamethyl-, (1S,3aS,4aR,4bS,5R,6aR,10aR,10bR,12aS)-", "Gedunin", "16,17-Seco-24-nor-5\u03b1,13\u03b1,14\u03b2,17\u03b1-chola-1,20,22-trien-16-oic acid, 14,15\u03b2:21,23-diepoxy-7\u03b1,17-dihydroxy-4,4,8-trimethyl-3-oxo-, 16,17-lactone, acetate", "D-Homo-24-nor-17-oxachola-1,20,22-triene-3,16-dione, 7-(acetyloxy)-14,15:21,23-diepoxy-4,4,8-trimethyl-, (5\u03b1,7\u03b1,13\u03b1,14\u03b2,15\u03b2,17a\u03b1)-", "(1S,3aS,4aR,4bS,5R,6aR,10aR,10bR,12aS)-5-(Acetyloxy)-1-(3-furanyl)-1,5,6,6a,7,10a,10b,11,12,12a-decahydro-4b,7,7,10a,12a-pentamethyloxireno[c]phenanthro[1,2-d]pyran-3,8(3aH,4bH)-dione", "Gedunine", "NSC 113497"], "SMILES": "CC12C34C(C)(C(OC(=O)C3O4)C=5C=COC5)CCC1C6(C)C(CC2OC(C)=O)C(C)(C)C(=O)C=C6", "physical_data": {"Molecular Weight": "482.57", "Molecular Formula": "C28H34O7", "Melting Point": "218 \u00b0C"}}