{"cas_no": "27532-96-3", "cn_name": "\u7518\u6c28\u9178\u53d4\u4e01\u916f\u76d0\u9178\u76d0", "en_name": ["Glycine tert-butyl ester hydrochloride", "Glycine, 1,1-dimethylethyl ester, hydrochloride (1:1)", "Glycine, 1,1-dimethylethyl ester, hydrochloride", "Glycine, tert-butyl ester, hydrochloride", "tert-Butylglycinate hydrochloride", "Glycine tert-butyl ester hydrochloride", "2-Aminoacetic acid tert-butyl ester hydrochloride", "1,1-Dimethylethyl glycinate hydrochloride", "Glycine tert-butyl ester monohydrochloride", "tert-Butyl 2-aminoacetate hydrochloride", "tert-Butyl glycine hydrochloride", "2-(tert-Butoxy)-2-oxoethan-1-aminium chloride", "O-tert-Butyl glycine hydrochloride", "Gly-OtBu\u00b7HCl"], "SMILES": "O(C(C)(C)C)C(CN)=O.Cl", "physical_data": {"Molecular Weight": "", "Molecular Formula": "C6H13NO2.ClH", "Melting Point": "140-141 \u00b0C"}}