{"cas_no": "27530-80-9", "cn_name": "\u78f7\u9178\u57fa\u82cf\u6c28\u9178", "en_name": ["O-Phosphonothreonine", "Threonine, O-phosphono-", "Threonine, dihydrogen phosphate (ester), DL-", "Threonine, dihydrogen phosphate (ester)", "DL-Threonine, dihydrogen phosphate (ester)", "O-Phosphonothreonine", "dl-O-Phosphothreonine", "DL-Threonine phosphate", "DL-Threonine O-phosphate", "O-Phospho-DL-threonine", "Phospho-DL-threonine", "O-Phosphoryl-DL-threonine", "DL-Phosphothreonine", "NSC 89296"], "SMILES": "C(C(C(O)=O)N)(OP(=O)(O)O)C", "physical_data": {"Molecular Weight": "199.10", "Molecular Formula": "C4H10NO6P", "Melting Point": "184 \u00b0C"}}