{"cas_no": "27538-10-9", "cn_name": "2-\u4e59\u57fa-4-\u7f9f\u57fa-5-\u7532\u57fa-3(2H)-\u544b\u5583\u916e", "en_name": ["Homofuraneol", "3(2H)-Furanone, 2-ethyl-4-hydroxy-5-methyl-", "2-Ethyl-4-hydroxy-5-methyl-3(2H)-furanone", "4-Hydroxy-2-ethyl-5-methyl-2,3-dihydrofuran-3-one", "2-Methyl-5-ethyl-4,5-dihydrofuran-3-ol-4-one", "4-Hydroxy-5-methyl-2-ethyl-2,3-dihydrofuran-3-one", "4-Hydroxy-2-ethyl-5-methyl-3(2H)-furanone", "2-Methyl-3-hydroxy-5-ethylfuran-4-one", "Homofuraneol", "HEMF", "2-Ethyl-4-hydroxy-5-methylfuran-3-one"], "SMILES": "C(C)C1C(=O)C(O)=C(C)O1", "physical_data": {"Molecular Weight": "142.15", "Molecular Formula": "C7H10O3", "Boiling Point": "103 \u00b0C @ Press: 15 Torr"}}