{"cas_no": "2753-45-9", "cn_name": "\u76d0\u9178\u9ea6\u76ae\u51e1\u6797", "en_name": ["Mebeverine hydrochloride", "Benzoic acid, 3,4-dimethoxy-, 4-[ethyl[2-(4-methoxyphenyl)-1-methylethyl]amino]butyl ester, hydrochloride (1:1)", "Veratric acid, 4-[ethyl(p-methoxy-\u03b1-methylphenethyl)amino]-, butyl ester, hydrochloride", "Benzoic acid, 3,4-dimethoxy-, 4-[ethyl[2-(4-methoxyphenyl)-1-methylethyl]amino]butyl ester, hydrochloride", "1-Butanol, 4-[ethyl(p-methoxy-\u03b1-methylphenethyl)amino]-, veratrate, hydrochloride", "CSAG 144", "4-[Ethyl(p-methoxy-\u03b1-methylphenethyl)amino]butyl veratrate hydrochloride", "4\u2032-[N-Ethyl-1\u2032\u2032-methyl-2\u2032\u2032-(4\u2032\u2032\u2032-methoxyphenyl)ethylamino]butyl 3,4-dimethoxybenzoate hydrochloride", "Mebeverine hydrochloride", "Duspatalin", "Colofac", "Duspatal", "NSC 169101", "Colospasmin", "Mebaspa", "Colaspa", "Spasmotaline", "Duspataline", "Coloverine", "Colospasmine fort"], "SMILES": "C(OCCCCN(C(CC1=CC=C(OC)C=C1)C)CC)(=O)C2=CC(OC)=C(OC)C=C2.Cl", "physical_data": {"Molecular Weight": "", "Molecular Formula": "C25H35NO5.ClH", "Melting Point": "125-127 \u00b0C"}}