{"cas_no": "2754-27-0", "cn_name": "\u4e09\u7532\u57fa\u7845\u4e59\u9178\u916f", "en_name": ["Trimethylsilyl acetate", "Silanol, 1,1,1-trimethyl-, 1-acetate", "Silanol, trimethyl-, acetate", "Trimethylacetoxysilane", "Acetoxytrimethylsilane", "Trimethylsilyl acetate", "(Acetato)trimethylsilane", "Acetyloxytrimethylsilane", "NSC 96780", "Trimethyl-1-acetoxysilane"], "SMILES": "O([Si](C)(C)C)C(C)=O", "physical_data": {"Molecular Weight": "132.23", "Molecular Formula": "C5H12O2Si", "Boiling Point": "103-104 \u00b0C", "Melting Point": "-32 \u00b0C", "Density": "0.891 g/cm\u00b3"}}