{"cas_no": "2754-32-7", "cn_name": "1,4-\u53cc(\u4e8c\u7532\u57fa\u7f9f\u57fa\u7845\u57fa)\u82ef", "en_name": ["1,1\u2032-(1,4-Phenylene)bis[1,1-dimethylsilanol]", "Silanol, 1,1\u2032-(1,4-phenylene)bis[1,1-dimethyl-", "Silanol, p-phenylenebis[dimethyl-", "Silanol, 1,4-phenylenebis[dimethyl-", "1,1\u2032-(1,4-Phenylene)bis[1,1-dimethylsilanol]", "p-Bis(dimethylhydroxysilyl)benzene", "1,4-Bis(dimethylhydroxysilyl)benzene", "1,4-Bis(hydroxydimethylsilyl)benzene", "p-Phenylenebis(dimethylsilanol)", "p-Bis(hydroxydimethylsilyl)benzene", "1,4-Di(dimethylhydroxysilyl)benzene", "NSC 83943", "1,4-Phenylenebis(dimethylsilanol)"], "SMILES": "[Si](C)(C)(O)C1=CC=C([Si](C)(C)O)C=C1", "physical_data": {"Molecular Weight": "226.42", "Molecular Formula": "C10H18O2Si2", "Melting Point": "135 \u00b0C"}}