{"cas_no": "27548-93-2", "cn_name": "\u5df4\u5361\u4e01 III", "en_name": ["Baccatin III", "7,11-Methano-5H-cyclodeca[3,4]benz[1,2-b]oxet-5-one, 6,12b-bis(acetyloxy)-12-(benzoyloxy)-1,2a,3,4,4a,6,9,10,11,12,12a,12b-dodecahydro-4,9,11-trihydroxy-4a,8,13,13-tetramethyl-, (2aR,4S,4aS,6R,9S,11S,12S,12aR,12bS)-", "7,11-Methano-5H-cyclodeca[3,4]benz[1,2-b]oxet-5-one, 6,12b-bis(acetyloxy)-12-(benzoyloxy)-1,2a,3,4,4a,6,9,10,11,12,12a,12b-dodecahydro-4,9,11-trihydroxy-4a,8,13,13-tetramethyl-, [2aR-(2a\u03b1,4\u03b2,4a\u03b2,6\u03b2,9\u03b1,11\u03b1,12\u03b1,12a\u03b1,12b\u03b1)]-", "(2aR,4S,4aS,6R,9S,11S,12S,12aR,12bS)-6,12b-Bis(acetyloxy)-12-(benzoyloxy)-1,2a,3,4,4a,6,9,10,11,12,12a,12b-dodecahydro-4,9,11-trihydroxy-4a,8,13,13-tetramethyl-7,11-methano-5H-cyclodeca[3,4]benz[1,2-b]oxet-5-one", "Baccatin III", "NSC 330753"], "SMILES": "O(C(C)=O)C12C3C(OC(=O)C4=CC=CC=C4)C5(O)C(C)(C)C(C(OC(C)=O)C(=O)C3(C)C(O)CC1OC2)=C(C)C(O)C5", "physical_data": {"Molecular Weight": "586.63", "Molecular Formula": "C31H38O11", "Melting Point": "243-245 \u00b0C"}}