{"cas_no": "27554-26-3", "cn_name": "\u90bb\u82ef\u4e8c\u7532\u9178\u4e8c\u5f02\u8f9b\u916f", "en_name": ["Diisooctyl phthalate", "1,2-Benzenedicarboxylic acid, 1,2-diisooctyl ester", "1,2-Benzenedicarboxylic acid, diisooctyl ester", "Phthalic acid, diisooctyl ester", "Hexaplas M/O", "Corflex 880", "Unem 5005", "Hexaplas DIOP", "Jayflex DIOP", "Diisooctyl phthalate", "Diisooctyl 1,2-benzenedicarboxylate", "Diisooctyl o-phthalate"], "SMILES": "", "physical_data": {"Molecular Weight": "", "Molecular Formula": "C24H38O4", "Boiling Point": "370 \u00b0C", "Melting Point": "-4 \u00b0C", "Density": "0.984 g/cm\u00b3 @ Temp: 20 \u00b0C"}}