{"cas_no": "27563-65-1", "cn_name": "3-\u6c2f\u90bb\u82ef\u4e8c\u7532\u9178", "en_name": ["3-Chlorophthalic acid", "1,2-Benzenedicarboxylic acid, 3-chloro-", "Phthalic acid, 3-chloro-", "3-Chloro-1,2-benzenedicarboxylic acid", "3-Chlorophthalic acid", "NSC 62536"], "SMILES": "C(O)(=O)C1=C(C(O)=O)C=CC=C1Cl", "physical_data": {"Molecular Weight": "200.58", "Molecular Formula": "C8H5ClO4", "Melting Point": "186-187 \u00b0C"}}