{"cas_no": "27568-05-4", "cn_name": "4-\u6c2f-8-\u7532\u6c27\u57fa\u55b9\u5549-3-\u7532\u9178\u4e59\u916f", "en_name": ["3-Quinolinecarboxylic acid, 4-chloro-8-methoxy-, ethyl ester", "3-Quinolinecarboxylic acid, 4-chloro-8-methoxy-, ethyl ester", "Ethyl 4-chloro-8-methoxy-3-quinolinecarboxylate", "4-Chloro-8-methoxy-3-quinolinecarboxylic acid ethyl ester", "NSC 196906"], "SMILES": "O(C)C=1C2=C(C(Cl)=C(C(OCC)=O)C=N2)C=CC1", "physical_data": {"Molecular Weight": "265.69", "Molecular Formula": "C13H12ClNO3", "Melting Point": "77-78 \u00b0C"}}