{"cas_no": "2756-87-8", "cn_name": "\u5bcc\u9a6c\u9178\u5355\u7532\u916f", "en_name": ["Monomethyl fumarate", "2-Butenedioic acid (2E)-, 1-methyl ester", "Fumaric acid, monomethyl ester", "Fumaric acid, methyl ester", "2-Butenedioic acid (E)-, monomethyl ester", "2-Butenedioic acid (2E)-, monomethyl ester", "Monomethyl fumarate", "Methyl hydrogen fumarate", "(E)-4-Methoxy-4-oxobut-2-enoic acid", "(E)-4-Methoxy-4-oxo-but-2-enoic acid", "Bafiertam"], "SMILES": "C(C=CC(O)=O)(OC)=O", "physical_data": {"Molecular Weight": "130.10", "Molecular Formula": "C5H6O4", "Melting Point": "143 \u00b0C", "Density": "1.37 g/cm\u00b3 @ Temp: 20 \u00b0C"}}