{"cas_no": "27561-51-9", "cn_name": "3-\u7532\u57fa-4-\u6eb4\u82c4\u6eb4", "en_name": ["1-Bromo-4-(bromomethyl)-2-methylbenzene", "Benzene, 1-bromo-4-(bromomethyl)-2-methyl-", "m-Xylene, \u03b11,4-dibromo-", "1-Bromo-4-(bromomethyl)-2-methylbenzene", "4-Bromo-3-methylbenzyl bromide"], "SMILES": "C(Br)C1=CC(C)=C(Br)C=C1", "physical_data": {"Molecular Weight": "263.96", "Molecular Formula": "C8H8Br2", "Melting Point": "26-27 \u00b0C"}}