{"cas_no": "27563-67-3", "cn_name": "N-\u7532\u57fa\u5341\u4e8c\u80fa", "en_name": ["N-Methyldodecanamide", "Dodecanamide, N-methyl-", "N-Methyldodecanamide", "N-Methyllauramide", "N-Methyllaurylamide"], "SMILES": "C(CCC(NC)=O)CCCCCCCC", "physical_data": {"Molecular Weight": "213.36", "Molecular Formula": "C13H27NO", "Melting Point": "110 \u00b0C"}}