{"cas_no": "2756-85-6", "cn_name": "1-\u6c28\u57fa-1-\u73af\u5df1\u57fa\u7532\u9178", "en_name": ["1-Aminocyclohexanecarboxylic acid", "Cyclohexanecarboxylic acid, 1-amino-", "1-Aminocyclohexanecarboxylic acid", "\u03b1-Aminocyclohexanecarboxylic acid", "Homocycloleucine", "1-Aminocyclohexane-1-carboxylic acid", "NSC 9059"], "SMILES": "C(O)(=O)C1(N)CCCCC1", "physical_data": {"Molecular Weight": "143.18", "Molecular Formula": "C7H13NO2", "Melting Point": "350 \u00b0C (decomp)"}}