{"cas_no": "27565-41-9", "cn_name": "\u4e8c\u786b\u4ee3\u82cf\u7cd6\u9187", "en_name": ["Dithiothreitol", "2,3-Butanediol, 1,4-dimercapto-, (2R,3R)-rel-", "Threitol, 1,4-dithio-", "2,3-Butanediol, 1,4-dimercapto-, (R*,R*)-", "rel-(2R,3R)-1,4-Dimercapto-2,3-butanediol", "1,4-Dithiothreitol", "Dithiothreitol", "threo-2,3-Dihydroxy-1,4-butanedithiol", "Cleland's reagent", "Sputolysin", "DTT", "threo-1,4-Dimercapto-2,3-butanediol", "WR 34678", "DL-Dithiothreitol", "rac-Dithiothreitol", "DL-1,4-Dithiothreitol", "(\u00b1)-Dithiothreitol", "1,4-Dithio-DL-threitol", "DL-1,4-Dimercapto-2,3-dihydroxybutane", "(\u00b1)-1,4-Dimercapto-2,3-butanediol", "Reagents, Cleland's", "DTT (threitol derivative)", "threo-2,3-Dihydroxy-1,4-dithiolbutane", "Mucolyse", "MeSH ID: D004229"], "SMILES": "C(C(CS)O)(CS)O", "physical_data": {"Molecular Weight": "154.25", "Molecular Formula": "C4H10O2S2", "Boiling Point": "127.5 \u00b0C", "Melting Point": "42.5 \u00b0C"}}