{"cas_no": "27578-60-5", "cn_name": "1-(2-\u6c28\u4e59\u57fa)\u54cc\u5576", "en_name": ["1-Piperidineethanamine", "1-Piperidineethanamine", "Piperidine, 1-(2-aminoethyl)-", "1-(2-Aminoethyl)piperidine", "2-Piperidinoethylamine", "N-Aminoethylpiperidine", "2-(1-Piperidinyl)ethylamine", "N-(2-Aminoethyl)piperidine", "Piperidinoethylamine", "2-Piperidino-1-ethanamine", "NSC 54993", "2-Piperidin-1-ylethanamine", "N-(2-Aminethyl)piperidine", "2-(1-Piperidyl)ethanamine", "2-(Piperidin-1-yl)ethan-1-amine"], "SMILES": "C(CN)N1CCCCC1", "physical_data": {"Molecular Weight": "128.22", "Molecular Formula": "C7H16N2", "Boiling Point": "65-70 \u00b0C @ Press: 10 Torr", "Melting Point": "67-70 \u00b0C"}}