{"cas_no": "2757-23-5", "cn_name": "\u6c2f\u7fb0\u57fa\u4e9a\u78fa\u9170\u6c2f", "en_name": ["(Chlorocarbonyl)sulfenyl chloride", "Carbonochloridothioic acid, anhydrosulfide with thiohypochlorous acid", "Formyl thiohypochlorite, chloro-", "Formyl chloride, (chlorothio)-", "Sulfenyl chloride, (chloroformyl)-", "(Chlorothio)formyl chloride", "(Chloroformyl)sulfur chloride", "Chloroformylsulfenyl chloride", "(Chlorocarbonyl)sulfenyl chloride", "1-(Chlorothio)formyl chloride", "Chlorosulfenylcarbonyl chloride", "Carbonochloridic hypochlorous thioanhydride", "Chlorocarboynylsulfenyl chloride", "Chloro(chlorosulfanyl)methanone"], "SMILES": "C(SCl)(Cl)=O", "physical_data": {"Molecular Weight": "130.98", "Molecular Formula": "CCl2OS", "Boiling Point": "98 \u00b0C @ Press: 760 Torr", "Density": "1.569 g/cm\u00b3 @ Temp: 22 \u00b0C"}}