{"cas_no": "2758-18-1", "cn_name": "3-\u7532\u57fa-2-\u73af\u620a\u70ef-1-\u916e", "en_name": ["3-Methyl-2-cyclopenten-1-one", "2-Cyclopenten-1-one, 3-methyl-", "3-Methyl-2-cyclopenten-1-one", "3-Methyl-2-cyclopentenone", "3-Methyl-2-cyclopentene-1-one", "Nussol", "3-Methylcyclopenten-2-one"], "SMILES": "CC1=CC(=O)CC1", "physical_data": {"Molecular Weight": "96.13", "Molecular Formula": "C6H8O", "Boiling Point": "157.5 \u00b0C", "Melting Point": "76-77 \u00b0C", "Density": "0.9467 g/cm\u00b3 @ Temp: 15 \u00b0C"}}