{"cas_no": "27582-14-5", "cn_name": "2-\u7532\u57fa-3-\u785d\u57fa\u5421\u5576-4-\u80fa", "en_name": ["2-Methyl-3-nitro-4-pyridinamine", "4-Pyridinamine, 2-methyl-3-nitro-", "2-Picoline, 4-amino-3-nitro-", "2-Methyl-3-nitro-4-pyridinamine", "2-Methyl-3-nitropyridin-4-amine"], "SMILES": "N(=O)(=O)C=1C(N)=CC=NC1C", "physical_data": {"Molecular Weight": "153.14", "Molecular Formula": "C6H7N3O2", "Melting Point": "175 \u00b0C"}}