{"cas_no": "27589-33-9", "cn_name": "\u963f\u4f50\u9170\u80fa", "en_name": ["Azosemide", "Benzenesulfonamide, 2-chloro-5-(2H-tetrazol-5-yl)-4-[(2-thienylmethyl)amino]-", "Sulfanilamide, 2-chloro-5-(1H-tetrazol-5-yl)-N4-2-thenyl-", "Benzenesulfonamide, 2-chloro-5-(1H-tetrazol-5-yl)-4-[(2-thienylmethyl)amino]-", "2-Chloro-5-(2H-tetrazol-5-yl)-4-[(2-thienylmethyl)amino]benzenesulfonamide", "5-(4-Chloro-5-sulfamoyl-2-thenylaminophenyl)tetrazole", "Ple 1053", "Azosemide", "2-Chloro-5-(1H-tetrazol-5-yl)-4-[(2-thienylmethyl)amino]benzenesulfonamide", "SK 110 (pharmaceutical)", "SK 110", "Luret", "Diart", "Diurapid", "2-Chloro-5-(2H-tetrazol-5-yl)-4-(thiophen-2-ylmethylamino)benzenesulfonamide"], "SMILES": "N(CC1=CC=CS1)C2=C(C=C(S(N)(=O)=O)C(Cl)=C2)C=3NN=NN3", "physical_data": {"Molecular Weight": "370.84", "Molecular Formula": "C12H11ClN6O2S2", "Melting Point": "219.5 \u00b0C"}}