{"cas_no": "275826-46-5", "cn_name": "(S)-3-\u6c28\u57fa-3-(1-\u8418\u57fa)-\u4e19\u9178", "en_name": ["(\u03b2S)-\u03b2-Amino-1-naphthalenepropanoic acid", "1-Naphthalenepropanoic acid, \u03b2-amino-, (\u03b2S)-", "(\u03b2S)-\u03b2-Amino-1-naphthalenepropanoic acid", "(S)-3-Amino-3-(1-naphthyl)propanoic acid", "(S)-3-Amino-3-(1-naphthyl)propionic acid", "(S)-3-Amino-3-(naphthalen-1-yl)propanoic acid", "(3S)-3-Amino-3-(naphthalen-1-yl)propanoic acid", "(S)-3-Amino-3-(naphthalen-1-yl)propanoicacid"], "SMILES": "C(CC(O)=O)(N)C=1C2=C(C=CC1)C=CC=C2", "physical_data": {"Molecular Weight": "215.25", "Molecular Formula": "C13H13NO2", "Melting Point": "227-229 \u00b0C"}}