{"cas_no": "2758-06-7", "cn_name": "(2-\u6eb4\u4e59\u57fa)\u4e09\u7532\u57fa\u6eb4\u5316\u94f5", "en_name": ["(2-Bromoethyl)trimethylammonium bromide", "Ethanaminium, 2-bromo-N,N,N-trimethyl-, bromide (1:1)", "Ammonium, (2-bromoethyl)trimethyl-, bromide", "Ethanaminium, 2-bromo-N,N,N-trimethyl-, bromide", "(2-Bromoethyl)trimethylammonium bromide", "Bromocholine bromide", "BCB", "BTAB", "Trimethyl \u03b2-bromoethylammonium bromide", "Bromcholin", "Hypercyl", "Kathesin", "BCB (onium compound)", "2-Bromo-N,N,N-trimethylethanaminium bromide"], "SMILES": "C([N+](C)(C)C)CBr.[Br-]", "physical_data": {"Molecular Weight": "", "Molecular Formula": "C5H13BrN.Br", "Melting Point": "245-246 \u00b0C (decomp)"}}