{"cas_no": "2759-28-6", "cn_name": "1-\u82c4\u57fa\u54cc\u55ea", "en_name": ["1-Benzylpiperazine", "Piperazine, 1-(phenylmethyl)-", "Piperazine, 1-benzyl-", "1-(Phenylmethyl)piperazine", "1-Benzylpiperazine", "4-Benzylpiperazine", "Benzylpiperazine", "N-Benzylpiperazine", "N-(Phenylmethyl)piperazine", "NSC 40889", "NSC 44502", "4-(Phenylmethyl)piperazine"], "SMILES": "C(C1=CC=CC=C1)N2CCNCC2", "physical_data": {"Molecular Weight": "176.26", "Molecular Formula": "C11H16N2", "Boiling Point": "128-135 \u00b0C @ Press: 6 Torr", "Melting Point": "236-237 \u00b0C"}}