{"cas_no": "27593-23-3", "cn_name": "6-\u620a\u57fa-2H-\u5421\u5583-2-\u916e", "en_name": ["6-Pentyl-2H-pyran-2-one", "2H-Pyran-2-one, 6-pentyl-", "6-Pentyl-2H-pyran-2-one", "6-Pentyl-\u03b1-pyrone", "6-n-Pentyl-\u03b1-pyrone", "6-Pentyl-2-pyrone", "6-(1-Pentyl)-2H-pyran-2-one", "6-n-Pentyl-2H-pyran-2-one", "6-Pentylpyran-2-one"], "SMILES": "C(CCCC)C=1OC(=O)C=CC1", "physical_data": {"Molecular Weight": "166.22", "Molecular Formula": "C10H14O2", "Boiling Point": "92 \u00b0C @ Press: 0.5 Torr"}}