{"cas_no": "27591-69-1", "cn_name": "\u76d0\u9178\u66ff\u6d1b\u9686", "en_name": ["Tilorone hydrochloride", "9H-Fluoren-9-one, 2,7-bis[2-(diethylamino)ethoxy]-, hydrochloride (1:2)", "Fluoren-9-one, 2,7-bis[2-(diethylamino)ethoxy]-, dihydrochloride", "9H-Fluoren-9-one, 2,7-bis[2-(diethylamino)ethoxy]-, dihydrochloride", "Tilorone dihydrochloride", "Tilorone hydrochloride", "DEAE-F", "RMI 10008DA", "RMI 10028DA", "Amyxin", "NSC 143969", "Amixinum"], "SMILES": "O=C1C=2C(C=3C1=CC(OCCN(CC)CC)=CC3)=CC=C(OCCN(CC)CC)C2.Cl", "physical_data": {"Molecular Weight": "", "Molecular Formula": "C25H34N2O3.2ClH", "Melting Point": "235-237 \u00b0C"}}