{"cas_no": "27603-25-4", "cn_name": "2-\u7532\u781c\u57fa-5-\u4e09\u6c1f\u7532\u57fa-1,3,4-\u567b\u4e8c\u5511", "en_name": ["2-(Methylsulfonyl)-5-(trifluoromethyl)-1,3,4-thiadiazole", "1,3,4-Thiadiazole, 2-(methylsulfonyl)-5-(trifluoromethyl)-", "2-(Methylsulfonyl)-5-(trifluoromethyl)-1,3,4-thiadiazole", "2-Methanesulfonyl-5-(trifluoromethyl)-1,3,4-thiadiazole"], "SMILES": "C(F)(F)(F)C=1SC(S(C)(=O)=O)=NN1", "physical_data": {"Molecular Weight": "232.20", "Molecular Formula": "C4H3F3N2O2S2", "Melting Point": "86 \u00b0C"}}