{"cas_no": "27607-77-8", "cn_name": "\u4e09\u6c1f\u7532\u78fa\u9178\u4e09\u7532\u57fa\u7845\u916f", "en_name": ["Trimethylsilyl triflate", "Methanesulfonic acid, 1,1,1-trifluoro-, trimethylsilyl ester", "Methanesulfonic acid, trifluoro-, trimethylsilyl ester", "Silanol, trimethyl-, trifluoromethanesulfonate", "Trimethylsilyl trifluoromethanesulfonate", "Trimethylsilyl trifluoromethylsulfonate", "Trimethylsilyl triflate", "Trimethylsilanol trifluoromethanesulfonate", "Trifluoromethanesulfonic acid trimethylsilyl ester", "Trimethylsilyl trfluoromethanesulfonate", "TMSOTf", "F-CP 74"], "SMILES": "S(O[Si](C)(C)C)(C(F)(F)F)(=O)=O", "physical_data": {"Molecular Weight": "222.26", "Molecular Formula": "C4H9F3O3SSi", "Boiling Point": "140 \u00b0C", "Melting Point": "&lt;25 \u00b0C", "Density": "1.225 g/cm\u00b3"}}