{"cas_no": "2760-98-7", "cn_name": "\u95f4\u82ef\u4e8c\u7532\u9170\u80bc", "en_name": ["Isophthalic dihydrazide", "1,3-Benzenedicarboxylic acid, 1,3-dihydrazide", "Isophthalic acid, dihydrazide", "1,3-Benzenedicarboxylic acid, dihydrazide", "417", "Isophthalic acid hydrazide", "Isophthalic dihydrazide", "Isophthalyl dihydrazide", "1,3-Phenylenebiscarbohydrazide", "Isophthalic hydrazide", "Isophthaloyl hydrazide", "Isophthaloyl dihydrazide", "NSC 75606", "IDH-S", "IDH", "Technicure IDH-J"], "SMILES": "C(NN)(=O)C1=CC(C(NN)=O)=CC=C1", "physical_data": {"Molecular Weight": "194.19", "Molecular Formula": "C8H10N4O2", "Melting Point": "226-230 \u00b0C"}}