{"cas_no": "27605-76-1", "cn_name": "\u70ef\u4e19\u82ef\u567b\u5511", "en_name": ["Probenazole", "1,2-Benzisothiazole, 3-(2-propen-1-yloxy)-, 1,1-dioxide", "1,2-Benzisothiazole, 3-(allyloxy)-, 1,1-dioxide", "1,2-Benzisothiazole, 3-(2-propenyloxy)-, 1,1-dioxide", "Oryzaemate", "3-Allyloxy-1,2-benzisothiazole 1,1-dioxide", "Probenazole", "PO 20", "3-Allyloxy-1,2-benzisothiazol-1,1-dioxide", "Oryzemate", "PO 20 (pharmaceutical)", "3-Allyloxy-1,2-benzisothiazole-1,1-oxide"], "SMILES": "O(CC=C)C=1C=2C(S(=O)(=O)N1)=CC=CC2", "physical_data": {"Molecular Weight": "223.25", "Molecular Formula": "C10H9NO3S", "Melting Point": "138.5 \u00b0C"}}