{"cas_no": "27610-92-0", "cn_name": "2-\u4e01\u57fa\u8f9b\u9178", "en_name": ["2-Butyloctanoic acid", "Octanoic acid, 2-butyl-", "2-Butyloctanoic acid", "\u03b1-Butylcaprylic acid", "Isocarb 12", "Jaric I 12", "2-Butyl-caprylic acid"], "SMILES": "C(CCCCCC)(CCCC)C(O)=O", "physical_data": {"Molecular Weight": "200.32", "Molecular Formula": "C12H24O2", "Boiling Point": "114-116 \u00b0C @ Press: 2.5 Torr", "Density": "0.8923 g/cm\u00b3 @ Temp: 20 \u00b0C"}}