{"cas_no": "2761-77-5", "cn_name": "\u6e7f\u5730\u677e\u9178", "en_name": ["Communic acid", "1-Naphthalenecarboxylic acid, decahydro-1,4a-dimethyl-6-methylene-5-(3-methyl-2,4-pentadienyl)-, (1S,4aR,5S,8aR)-", "Labda-8(20),12,14-trien-19-oic acid", "1-Naphthalenecarboxylic acid, decahydro-1,4a-dimethyl-6-methylene-5-(3-methyl-2,4-pentadienyl)-, [1S-(1\u03b1,4a\u03b1,5\u03b1,8a\u03b2)]-", "(1S,4aR,5S,8aR)-Decahydro-1,4a-dimethyl-6-methylene-5-(3-methyl-2,4-pentadienyl)-1-naphthalenecarboxylic acid", "Communic acid", "(+)-Communic acid"], "SMILES": "CC12C(C(C(O)=O)(C)CCC1)CCC(=C)C2CC=C(C=C)C", "physical_data": {"Molecular Weight": "302.45", "Molecular Formula": "C20H30O2", "Melting Point": "121 \u00b0C"}}