{"cas_no": "27618-25-3", "cn_name": "N-\u6c30\u4e59\u57fa\u95f4\u7532\u82ef\u80fa", "en_name": ["3-[(3-Methylphenyl)amino]propanenitrile", "Propanenitrile, 3-[(3-methylphenyl)amino]-", "Propionitrile, 3-m-toluidino-", "3-[(3-Methylphenyl)amino]propanenitrile", "N-(\u03b2-Cyanoethyl)-m-toluidine", "N-(2-Cyanoethyl)-3-methylaniline"], "SMILES": "N(CCC#N)C1=CC(C)=CC=C1", "physical_data": {"Molecular Weight": "160.22", "Molecular Formula": "C10H12N2", "Melting Point": "47.5-48.5 \u00b0C"}}