{"cas_no": "2761-24-2", "cn_name": "\u4e09\u4e59\u6c27\u57fa\u620a\u57fa\u7845\u70f7", "en_name": ["Pentyltriethoxysilane", "Silane, triethoxypentyl-", "Triethoxypentylsilane", "Amyltriethoxysilane", "A 16", "Pentyltriethoxysilane", "LS 4230", "A 16 (silane derivative)", "n-Pentyltriethoxysilane"], "SMILES": "[Si](CCCCC)(OCC)(OCC)OCC", "physical_data": {"Molecular Weight": "234.41", "Molecular Formula": "C11H26O3Si", "Boiling Point": "95-96 \u00b0C @ Press: 1.3 Torr", "Density": "0.895 g/cm\u00b3"}}