{"cas_no": "27610-45-3", "cn_name": "\u786b\u5316\u94a0\u6c34\u5408\u7269", "en_name": ["Sodium sulfide hydrate", "Sodium sulfide (Na2S), hydrate", "Sodium sulfide hydrate"], "SMILES": "S([Na])[Na].O", "physical_data": {"Molecular Weight": "", "Molecular Formula": "H2O.xNa2S", "Melting Point": "183-185 \u00b0C"}}