{"cas_no": "27639-98-1", "cn_name": "\u5168\u6c1f-2,5,8-\u4e09\u7532\u57fa-3,6,9-\u4e09\u6c27\u6742\u5341\u4e8c\u9170\u6c1f", "en_name": ["2,3,3,3-Tetrafluoro-2-[1,1,2,3,3,3-hexafluoro-2-[1,1,2,3,3,3-hexafluoro-2-(1,1,2,2,3,3,3-heptafluoropropoxy)propoxy]propoxy]propanoyl fluoride", "Propanoyl fluoride, 2,3,3,3-tetrafluoro-2-[1,1,2,3,3,3-hexafluoro-2-[1,1,2,3,3,3-hexafluoro-2-(1,1,2,2,3,3,3-heptafluoropropoxy)propoxy]propoxy]-", "Propionyl fluoride, tetrafluoro-2-[hexafluoro-2-[hexafluoro-2-(heptafluoropropoxy)propoxy]propoxy]-", "Propanoyl fluoride, 2,3,3,3-tetrafluoro-2-[1,1,2,3,3,3-hexafluoro-2-[1,1,2,3,3,3-hexafluoro-2-(heptafluoropropoxy)propoxy]propoxy]-", "2,3,3,3-Tetrafluoro-2-[1,1,2,3,3,3-hexafluoro-2-[1,1,2,3,3,3-hexafluoro-2-(1,1,2,2,3,3,3-heptafluoropropoxy)propoxy]propoxy]propanoyl fluoride", "Perfluoro(2,5,8-trimethyl-3,6,9-trioxadodecanoyl) fluoride", "Perfluoro-2,5,8-trimethyl-3,6,9-trioxolauroyl fluoride"], "SMILES": "C(C(OC(C(OC(C(F)(F)F)(C(F)=O)F)(F)F)(C(F)(F)F)F)(F)F)(OC(C(C(F)(F)F)(F)F)(F)F)(C(F)(F)F)F", "physical_data": {"Molecular Weight": "664.09", "Molecular Formula": "C12F24O4", "Boiling Point": "114-116 \u00b0C @ Press: 760 Torr"}}