{"cas_no": "27631-29-4", "cn_name": "2,4-\u4e8c\u6c2f-6,7-\u4e8c\u7532\u6c27\u57fa\u55b9\u5511\u5549", "en_name": ["2,4-Dichloro-6,7-dimethoxyquinazoline", "Quinazoline, 2,4-dichloro-6,7-dimethoxy-", "2,4-Dichloro-6,7-dimethoxyquinazoline", "2-Chloro-6,7-dimethoxyquinazolin-4-yl chloride"], "SMILES": "ClC=1C2=C(C=C(OC)C(OC)=C2)N=C(Cl)N1", "physical_data": {"Molecular Weight": "259.09", "Molecular Formula": "C10H8Cl2N2O2", "Melting Point": "158 \u00b0C"}}