{"cas_no": "27638-00-2", "cn_name": "\u6708\u6842\u9178\u4e8c\u7518\u6cb9\u916f", "en_name": ["Glyceryl dilaurate", "Dodecanoic acid, diester with 1,2,3-propanetriol", "Laurin, di-", "Dilaurin", "Glycerol dilaurate", "Didodecanoyl glyceride", "Glycerine dilaurate", "Dilauroyl glyceride", "Glyceryl dilaurate", "Emulsynt GDL", "Lexemul GDL", "Glycerin dilaurate"], "SMILES": "", "physical_data": {"Molecular Weight": "", "Molecular Formula": "C27H52O5", "Melting Point": "57.8 \u00b0C"}}