{"cas_no": "27655-41-0", "cn_name": "5-\u6c30\u57fa\u5f02\u55b9\u5549", "en_name": ["5-Isoquinolinecarbonitrile", "5-Isoquinolinecarbonitrile", "5-Cyanoisoquinoline"], "SMILES": "C(#N)C=1C2=C(C=CC1)C=NC=C2", "physical_data": {"Molecular Weight": "154.17", "Molecular Formula": "C10H6N2", "Melting Point": "138 \u00b0C"}}