{"cas_no": "2765-11-9", "cn_name": "\u5341\u4e94\u919b", "en_name": ["Pentadecanal", "Pentadecanal", "Pentadecaldehyde", "n-Pentadecanal", "1-Pentadecanal"], "SMILES": "C(CCCCCCC=O)CCCCCCC", "physical_data": {"Molecular Weight": "226.40", "Molecular Formula": "C15H30O", "Boiling Point": "172-176 \u00b0C @ Press: 15 Torr", "Melting Point": "24.5 \u00b0C"}}