{"cas_no": "27652-89-7", "cn_name": "ALPHA-(4-\u6c2f\u82ef\u57fa)\u5421\u5576-2-\u7532\u9187", "en_name": ["\u03b1-(4-Chlorophenyl)-2-pyridinemethanol", "2-Pyridinemethanol, \u03b1-(4-chlorophenyl)-", "2-Pyridinemethanol, \u03b1-(p-chlorophenyl)-", "\u03b1-(4-Chlorophenyl)-2-pyridinemethanol", "NSC 31264", "NSC 47970", "(p-Chlorophenyl)(2-pyridinyl)methanol", "(4-Chlorophenyl)(pyridin-2-yl)methanol"], "SMILES": "C(O)(C1=CC=C(Cl)C=C1)C2=CC=CC=N2", "physical_data": {"Molecular Weight": "219.67", "Molecular Formula": "C12H10ClNO", "Melting Point": "80-81 \u00b0C"}}