{"cas_no": "2766-18-9", "cn_name": "Z-PRO-GLY-OH", "en_name": ["1-[(Phenylmethoxy)carbonyl]-L-prolylglycine", "Glycine, 1-[(phenylmethoxy)carbonyl]-L-prolyl-", "1-Pyrrolidinecarboxylic acid, 2-[(carboxymethyl)carbamoyl]-, 1-benzyl ester, L-", "Glycine, N-[1-[(phenylmethoxy)carbonyl]-L-prolyl]-", "1-Pyrrolidinecarboxylic acid, L-2-[(carboxymethyl)carbamoyl]-, 1-benzyl ester", "1-[(Phenylmethoxy)carbonyl]-L-prolylglycine", "N-Benzyloxycarbonyl-L-prolylglycine", "NSC 334028", "2-[[(2S)-1-Phenylmethoxycarbonylpyrrolidine-2-carbonyl]amino]acetic acid"], "SMILES": "C(OCC1=CC=CC=C1)(=O)N2C(C(NCC(O)=O)=O)CCC2", "physical_data": {"Molecular Weight": "306.31", "Molecular Formula": "C15H18N2O5", "Melting Point": "196 \u00b0C"}}