{"cas_no": "27665-39-0", "cn_name": "1,4-\u4e01\u4e8c\u78fa\u9178", "en_name": ["1,4-Butanedisulfonic acid", "1,4-Butanedisulfonic acid", "1,4-Disulfobutane"], "SMILES": "C(S(=O)(=O)O)CCCS(=O)(=O)O", "physical_data": {"Molecular Weight": "218.25", "Molecular Formula": "C4H10O6S2", "Melting Point": "84 \u00b0C"}}