{"cas_no": "2766-74-7", "cn_name": "5-\u6c2f\u567b\u5429-2-\u78fa\u9170\u6c2f", "en_name": ["5-Chloro-2-thiophenesulfonyl chloride", "2-Thiophenesulfonyl chloride, 5-chloro-", "5-Chloro-2-thiophenesulfonyl chloride", "5-Chloro-2-thienylsulfonyl chloride", "2-Chlorothiophene-5-sulfonyl chloride", "2-Chloro-5-chlorosulfonylthiophene"], "SMILES": "S(Cl)(=O)(=O)C=1SC(Cl)=CC1", "physical_data": {"Molecular Weight": "217.09", "Molecular Formula": "C4H2Cl2O2S2", "Boiling Point": "74-76 \u00b0C", "Melting Point": "26-28 \u00b0C"}}