{"cas_no": "2767-70-6", "cn_name": "(4-\u785d\u57fa\u82c4\u57fa)\u4e09\u82ef\u57fa\u6eb4\u5316\u78f7", "en_name": ["(4-Nitrobenzyl)triphenylphosphonium bromide", "Phosphonium, [(4-nitrophenyl)methyl]triphenyl-, bromide (1:1)", "Phosphonium, (p-nitrobenzyl)triphenyl-, bromide", "Phosphonium, [(4-nitrophenyl)methyl]triphenyl-, bromide", "(p-Nitrobenzyl)triphenylphosphonium bromide", "(4-Nitrobenzyl)triphenylphosphonium bromide", "Triphenyl(p-nitrobenzyl)phosphonium bromide", "NSC 104840", "NSC 617038", "Bromo[(4-nitrophenyl)methyl]triphenylphosphorane"], "SMILES": "[P+](CC1=CC=C(N(=O)=O)C=C1)(C2=CC=CC=C2)(C3=CC=CC=C3)C4=CC=CC=C4.[Br-]", "physical_data": {"Molecular Weight": "", "Molecular Formula": "C25H21NO2P.Br", "Melting Point": "261 \u00b0C (decomp)"}}