{"cas_no": "2767-54-6", "cn_name": "\u4e09\u4e59\u57fa\u6eb4\u5316\u9521", "en_name": ["Triethyltin bromide", "Stannane, bromotriethyl-", "Triethyltin bromide", "Tin, bromotriethyl-", "Bromotriethylstannane", "Triethylstannyl bromide", "Bromotriethyltin"], "SMILES": "[Sn](CC)(CC)(CC)Br", "physical_data": {"Molecular Weight": "285.80", "Molecular Formula": "C6H15BrSn", "Boiling Point": "223 \u00b0C", "Melting Point": "-14 \u00b0C", "Density": "1.63 g/cm\u00b3"}}