{"cas_no": "2767-91-1", "cn_name": "4-\u5417\u5549\u5421\u5576", "en_name": ["4-Morpholinopyridine", "Morpholine, 4-(4-pyridinyl)-", "Morpholine, 4-(4-pyridyl)-", "4-(4-Pyridinyl)morpholine", "4-(4-Morpholinyl)pyridine", "4-Morpholinopyridine", "N-(4-Pyridinyl)morpholine"], "SMILES": "C=1(C=CN=CC1)N2CCOCC2", "physical_data": {"Molecular Weight": "164.20", "Molecular Formula": "C9H12N2O", "Melting Point": "101-104 \u00b0C"}}