{"cas_no": "2767-84-2", "cn_name": "1,7,7-\u4e09\u7532\u57fa\u87ba[2.2.1]\u5e9a\u4e8c\u916e", "en_name": ["(+)-Camphorquinone", "Bicyclo[2.2.1]heptane-2,3-dione, 1,7,7-trimethyl-, (1S,4R)-", "2,3-Bornanedione, (1S,4R)-(+)-", "Bicyclo[2.2.1]heptane-2,3-dione, 1,7,7-trimethyl-, (1S)-", "(1S,4R)-1,7,7-Trimethylbicyclo[2.2.1]heptane-2,3-dione", "d-Camphorquinone", "(+)-Camphorquinone", "D(+)-Camphorquinone", "(1S)-(+)-Camphorquinone", "(1S)-Camphorquinone", "(+)-(1S)-Camphorquinone", "(1S,4R)-1,7,7-Trimethylbicyclo[2.2.1]heptan-2,3-dione"], "SMILES": "CC12C(C)(C)C(C(=O)C1=O)CC2", "physical_data": {"Molecular Weight": "166.22", "Molecular Formula": "C10H14O2", "Melting Point": "200-202 \u00b0C"}}