{"cas_no": "27673-48-9", "cn_name": "5,8-\u4e8c\u6c22\u8418\u915a", "en_name": ["5,8-Dihydro-1-naphthol", "1-Naphthalenol, 5,8-dihydro-", "1-Naphthol, 5,8-dihydro-", "5,8-Dihydro-1-naphthalenol", "5,8-Dihydro-1-naphthol", "NSC 125584", "5-Hydroxy-1,4-dihydronaphthalene", "5,8-Dihydronaphthalen-1-ol"], "SMILES": "OC1=C2C(=CC=C1)CC=CC2", "physical_data": {"Molecular Weight": "146.19", "Molecular Formula": "C10H10O", "Boiling Point": "120 \u00b0C @ Press: 1 Torr", "Melting Point": "75 \u00b0C"}}