{"cas_no": "2767-90-0", "cn_name": "1-\u5421\u5576-4-\u54cc\u5576", "en_name": ["4-Piperidinopyridine", "Pyridine, 4-(1-piperidinyl)-", "Piperidine, 1-(4-pyridyl)-", "4-(1-Piperidinyl)pyridine", "4-Piperidinopyridine", "1-(4-Pyridyl)piperidine"], "SMILES": "C=1(C=CN=CC1)N2CCCCC2", "physical_data": {"Molecular Weight": "162.23", "Molecular Formula": "C10H14N2", "Boiling Point": "164 \u00b0C @ Press: 13 Torr", "Melting Point": "80 \u00b0C"}}