{"cas_no": "2767-80-8", "cn_name": "\u4e09(\u7f9f\u57fa\u7532\u57fa)\u78f7\u5316\u6c22", "en_name": ["Tris(hydroxymethyl)phosphine", "Methanol, 1,1\u2032,1\u2032\u2032-phosphinidynetris-", "Methanol, phosphinidynetri-", "Methanol, phosphinidynetris-", "1,1\u2032,1\u2032\u2032-Phosphinidynetris[methanol]", "Phosphine, tris(hydroxymethyl)-", "Tris(hydroxymethyl)phosphine", "Trimethylolphosphine", "Tris(methanol)phosphine", "[Bis(hydroxymethyl)phosphanyl]methanol"], "SMILES": "P(CO)(CO)CO", "physical_data": {"Molecular Weight": "124.08", "Molecular Formula": "C3H9O3P", "Boiling Point": "110-114 \u00b0C @ Press: 2.5 Torr", "Melting Point": "51-53 \u00b0C", "Density": "1.161 g/cm\u00b3 @ Temp: 20 \u00b0C"}}