{"cas_no": "27685-90-1", "cn_name": "2-\u6c27\u4ee3-2,3-\u4e8c\u6c22\u82ef\u5e76\u6076\u5511-6-\u78fa\u9170\u6c2f", "en_name": ["2-Oxo-2,3-dihydrobenzo[d]oxazole-6-sulfonyl chloride", "6-Benzoxazolesulfonyl chloride, 2,3-dihydro-2-oxo-", "6-Benzoxazolinesulfonyl chloride, 2-oxo-", "2,3-Dihydro-2-oxo-6-benzoxazolesulfonyl chloride", "2-Oxo-2,3-dihydro-1,3-benzoxazole-6-sulfonyl Chloride", "2-Oxo-2,3-dihydrobenzoxazole-6-sulfonyl chloride", "2-Oxo-2,3-dihydrobenzo[d]oxazole-6-sulfonyl chloride", "2-Oxo-3H-1,3-benzoxazole-6-sulfonyl chloride", "2-Hydroxy-1,3-benzoxazole-6-sulfonyl chloride"], "SMILES": "S(Cl)(=O)(=O)C=1C=C2C(=CC1)NC(=O)O2", "physical_data": {"Molecular Weight": "233.63", "Molecular Formula": "C7H4ClNO4S", "Melting Point": "186-187 \u00b0C"}}