{"cas_no": "2768-90-3", "cn_name": "\u6c2f\u5316\u9891\u54ea\u6c30\u9187", "en_name": ["Pinacyanol chloride", "Quinolinium, 1-ethyl-2-[3-(1-ethyl-2(1H)-quinolinylidene)-1-propen-1-yl]-, chloride (1:1)", "Quinolinium, 1-ethyl-2-[3-(1-ethyl-2(1H)-quinolylidene)propenyl]-, chloride", "Quinolinium, 1-ethyl-2-[3-(1-ethyl-2(1H)-quinolinylidene)-1-propenyl]-, chloride", "1-Ethyl-2-[3-(1-ethyl-2(1H)-quinolylidene)propenyl]quinolinium chloride", "Quinaldine blue", "Vernitest reagent", "Pinacyanol chloride", "1,1\u2032-Diethyl-2,2\u2032-carbocyanine chloride", "1,1\u2032-Diethyl-2,2\u2032-quinocarbocyanine chloride", "Vernitest"], "SMILES": "C(C)N1C=2C(C=CC1=CC=CC3=[N+](CC)C4=C(C=C3)C=CC=C4)=CC=CC2.[Cl-]", "physical_data": {"Molecular Weight": "", "Molecular Formula": "C25H25N2.Cl", "Melting Point": "263 \u00b0C (decomp)"}}