{"cas_no": "27685-94-5", "cn_name": "4-\u6c2f\u567b\u5429\u5e76[3,2-c]\u5421\u5576", "en_name": ["4-Chlorothieno[3,2-c]pyridine", "Thieno[3,2-c]pyridine, 4-chloro-", "4-Chlorothieno[3,2-c]pyridine"], "SMILES": "ClC1=C2C(=CC=N1)SC=C2", "physical_data": {"Molecular Weight": "169.63", "Molecular Formula": "C7H4ClNS", "Melting Point": "96 \u00b0C"}}