{"cas_no": "2768-53-8", "cn_name": "Z-ALA-PHE-OH", "en_name": ["N-[(Phenylmethoxy)carbonyl]-L-alanyl-L-phenylalanine", "L-Phenylalanine, N-[(phenylmethoxy)carbonyl]-L-alanyl-", "Alanine, N-(N-carboxy-L-alanyl)-3-phenyl-, N-benzyl ester, L-", "L-Phenylalanine, N-[N-[(phenylmethoxy)carbonyl]-L-alanyl]-", "Alanine, N-(N-carboxyalanyl)-3-phenyl-, N-benzyl ester", "N-[(Phenylmethoxy)carbonyl]-L-alanyl-L-phenylalanine", "N-(Benzyloxycarbonyl)-L-alanyl-L-phenylalanine", "N-Carbobenzyloxy-L-alanyl-L-phenylalanine", "Carbobenzoxy-L-alanyl-L-phenylalanine", "NSC 87854"], "SMILES": "C(C(NC(C(NC(OCC1=CC=CC=C1)=O)C)=O)C(O)=O)C2=CC=CC=C2", "physical_data": {"Molecular Weight": "370.40", "Molecular Formula": "C20H22N2O5", "Melting Point": "130-132 \u00b0C"}}