{"cas_no": "2768-56-1", "cn_name": "Cbz-DL-\u4e1d\u6c28\u9178", "en_name": ["N-Benzyloxycarbonyl-DL-serine", "Serine, N-[(phenylmethoxy)carbonyl]-", "Serine, N-carboxy-, N-benzyl ester, DL-", "DL-Serine, N-carboxy-, N-benzyl ester", "N-[(Phenylmethoxy)carbonyl]serine", "N-Carbobenzoxy-DL-serine", "N-Benzyloxycarbonyl-DL-serine", "N-Carbobenzyloxy-DL-serine", "NSC 118530", "NSC 22029", "3-Hydroxy-2-(phenylmethoxycarbonylamino)propanoic acid", "2-[[(Benzyloxy)carbonyl]amino]-3-hydroxypropanoic acid", "2-Benzyloxycarbonylamino-3-hydroxy-propionic acid", "Cbz-x-Ser-oh"], "SMILES": "C(OC(NC(C(O)=O)CO)=O)C1=CC=CC=C1", "physical_data": {"Molecular Weight": "239.22", "Molecular Formula": "C11H13NO5", "Melting Point": "125 \u00b0C"}}