{"cas_no": "2768-02-7", "cn_name": "\u4e59\u70ef\u57fa\u4e09\u7532\u6c27\u57fa\u7845\u70f7", "en_name": ["Vinyltrimethoxysilane", "Silane, ethenyltrimethoxy-", "Silane, trimethoxyvinyl-", "Ethenyltrimethoxysilane", "Vinyltrimethoxysilane", "Trimethoxyvinylsilane", "Y 4302", "(Trimethoxysilyl)ethene", "A 171", "SZ 6300", "VTS-M", "KBM 1003", "V 4917", "SH 6300", "S 210", "Sila-Ace S 210", "SB 6301", "Silquest A 171", "NUC-Y 9818", "Dynasylan Silfin", "TSL 8310", "SL 815", "KH 921", "CV 4917", "Dynasylan VTMO", "VTMO", "Silox VS 911", "XL 10", "U 611", "LS 815", "XL 10 (silane)", "Z 6300", "Sigma T 5051", "Geniosil XL 10", "Silfin 22", "Q 9-6300", "V 0042", "SIV 9220.0", "DB 171", "KH 171", "VTMS", "Penta 1002", "Dynasylan Si 108", "EMI 1833", "Silfin 13", "Dynasylan Silfin 24", "Silfin 24", "SCA 1603", "YGO 1202", "UN 1993", "Geniosil X 10GS", "Sila-Ace 210", "Silane A 171", "KBM 3100", "DL 171", "Dow Corning 6300", "AC 71", "LMD 171", "A 101", "A 101 (silane)", "YDH 171", "Silaplane S 210", "UP 171", "Silfin 59", "WD 21", "LT 171", "Xiameter OFS 6300", "V 06", "V 06 (coupling agent)", "KHA 171", "Silopren TP 3625", "GX 171", "SG-Si 171", "Silane V Trimethoxy", "NUC Silicone A 171", "(Vinyl)trimethoxylsilane", "JH-V 171", "SV 002", "LKS 015", "WM 171", "YHD 171", "V 171", "AP Silane 21", "CoatOSil VX 193", "Si 171", "AH 171", "YS-A 151", "LJ 171", "SCA-V 71M", "VV 6770000", "V 162969", "Silquest Y 9818"], "SMILES": "[Si](C=C)(OC)(OC)OC", "physical_data": {"Molecular Weight": "148.23", "Molecular Formula": "C5H12O3Si", "Boiling Point": "123 \u00b0C", "Density": "0.970 g/cm\u00b3"}}