{"cas_no": "2769-71-3", "cn_name": "2,6-\u4e8c\u7532\u57fa\u82ef\u57fa\u5f02\u8148", "en_name": ["2,6-Dimethylphenyl isocyanide", "Benzene, 2-isocyano-1,3-dimethyl-", "2,6-Xylyl isocyanide", "2-Isocyano-1,3-dimethylbenzene", "2,6-Dimethylphenyl isocyanide", "2,6-Dimethylphenylisonitrile", "2,6-Xylene isonitrile", "2-m-Xylyl isocyanide", "1-Isocyano-2,6-dimethylbenzene", "2,6-Dimethylisocyanobenzene", "2,6-Xylyl isonitrile", "NSC 141690"], "SMILES": "[N+](#[C-])C1=C(C)C=CC=C1C", "physical_data": {"Molecular Weight": "", "Molecular Formula": "C9H9N", "Boiling Point": "50-53 \u00b0C @ Press: 0.01 Torr", "Melting Point": "72.5-74 \u00b0C"}}