{"cas_no": "2769-64-4", "cn_name": "\u5f02\u8148\u57fa\u6b63\u4e01\u70f7", "en_name": ["Butyl isocyanide", "Butane, 1-isocyano-", "Butyl isocyanide", "1-Isocyanobutane", "n-Butyl isocyanide", "Butyl isonitrile", "n-Butyl isonitrile", "1-Butylisonitrile"], "SMILES": "C(C[N+]#[C-])CC", "physical_data": {"Molecular Weight": "", "Molecular Formula": "C5H9N", "Boiling Point": "120 \u00b0C"}}