{"cas_no": "2770-11-8", "cn_name": "2-(4-\u6c2f\u82ef\u6c27\u57fa)\u82ef\u80fa", "en_name": ["2-(4-Chlorophenoxy)benzenamine", "Benzenamine, 2-(4-chlorophenoxy)-", "Aniline, o-(p-chlorophenoxy)-", "2-(4-Chlorophenoxy)benzenamine", "2-(p-Chlorophenoxy)aniline", "2-(4-Chlorophenoxy)aniline", "2-Amino-4\u2032-chlorodiphenyl ether", "2-(4-Chlorophenoxy)phenylamine"], "SMILES": "O(C1=C(N)C=CC=C1)C2=CC=C(Cl)C=C2", "physical_data": {"Molecular Weight": "219.67", "Molecular Formula": "C12H10ClNO", "Boiling Point": "202 \u00b0C @ Press: 13 Torr"}}