{"cas_no": "2772-45-4", "cn_name": "2,4-\u4e8c(\u03b1,\u03b1-\u4e8c\u7532\u57fa\u82ef\u7532\u57fa)\u82ef\u915a", "en_name": ["2,4-Dicumylphenol", "Phenol, 2,4-bis(1-methyl-1-phenylethyl)-", "Phenol, 2,4-bis(\u03b1,\u03b1-dimethylbenzyl)-", "2,4-Bis(1-methyl-1-phenylethyl)phenol", "2,4-Bis(\u03b1,\u03b1-dimethylbenzyl)phenol", "2,4-Dicumylphenol", "2,4-(\u03b1,\u03b1-Dimethylbenzyl)phenol", "4,6-Bis(\u03b1,\u03b1-dimethylbenzyl)phenol", "2,4-Bis(2-phenylpropan-2-yl)phenol"], "SMILES": "C(C)(C)(C1=CC(C(C)(C)C2=CC=CC=C2)=CC=C1O)C3=CC=CC=C3", "physical_data": {"Molecular Weight": "330.46", "Molecular Formula": "C24H26O", "Boiling Point": "330 \u00b0C", "Melting Point": "65.5-67 \u00b0C", "Density": "1.063 g/cm\u00b3 @ Temp: 20 \u00b0C"}}