{"cas_no": "27724-96-5", "cn_name": "\u76d0\u9178\u897f\u66f2\u9178\u916f", "en_name": ["Cetraxate hydrochloride", "Benzenepropanoic acid, 4-[[[trans-4-(aminomethyl)cyclohexyl]carbonyl]oxy]-, hydrochloride (1:1)", "Hydrocinnamic acid, p-hydroxy-, 4-(aminomethyl)cyclohexanecarboxylate hydrochloride, trans-", "Benzenepropanoic acid, 4-[[[4-(aminomethyl)cyclohexyl]carbonyl]oxy]-, hydrochloride, trans-", "Benzenepropanoic acid, 4-[[[trans-4-(aminomethyl)cyclohexyl]carbonyl]oxy]-, hydrochloride", "Cyclohexanecarboxylic acid, 4-(aminomethyl)-, ester with p-hydroxyhydrocinnamic acid, hydrochloride, trans-", "4-(2-Carboxyethyl)phenyl trans-4-aminomethylcyclohexanecarboxylate hydrochloride", "DV 1006", "Cetraxate hydrochloride", "Neuer S", "Neuer"], "SMILES": "C(OC1=CC=C(CCC(O)=O)C=C1)(=O)C2CCC(CN)CC2.Cl", "physical_data": {"Molecular Weight": "", "Molecular Formula": "C17H23NO4.ClH", "Melting Point": "238-240 \u00b0C"}}