{"cas_no": "27737-55-9", "cn_name": "2-\u4e59\u9178\u57fa-4-\u82c4\u6c27\u57fa\u5432\u54da", "en_name": ["Ethyl 4-(phenylmethoxy)-1H-indole-2-carboxylate", "1H-Indole-2-carboxylic acid, 4-(phenylmethoxy)-, ethyl ester", "Indole-2-carboxylic acid, 4-(benzyloxy)-, ethyl ester", "Ethyl 4-(phenylmethoxy)-1H-indole-2-carboxylate", "Ethyl 4-benzyloxyindole-2-carboxylate", "4-Benzyloxy-1H-indole-2-carboxylic acid ethyl ester", "2-Carbethoxy-4-benzyloxyindole"], "SMILES": "O(CC1=CC=CC=C1)C2=C3C(NC(C(OCC)=O)=C3)=CC=C2", "physical_data": {"Molecular Weight": "295.33", "Molecular Formula": "C18H17NO3", "Melting Point": "170-172 \u00b0C"}}