{"cas_no": "27738-96-1", "cn_name": "N-(\u6c2f\u7532\u9170)\u5f02\u6c30\u9178\u916f", "en_name": ["Carbonisocyanatidic chloride", "Carbonisocyanatidic chloride", "Formic acid, chloro-, anhydride with isocyanic acid", "Isocyanic acid, anhydride with chloroformic acid", "Chlorocarbonyl isocyanate", "Carbonic chloride isocyanate", "Isocyanatocarbonyl chloride", "Chloroformyl isocyanate"], "SMILES": "N(C(Cl)=O)=C=O", "physical_data": {"Molecular Weight": "105.48", "Molecular Formula": "C2ClNO2", "Boiling Point": "64 \u00b0C @ Press: 760 Torr", "Melting Point": "64 \u00b0C"}}