{"cas_no": "27741-01-1", "cn_name": "\u4eac\u5c3c\u5e73\u82f7\u9178", "en_name": ["Geniposidic acid", "Cyclopenta[c]pyran-4-carboxylic acid, 1-(\u03b2-D-glucopyranosyloxy)-1,4a,5,7a-tetrahydro-7-(hydroxymethyl)-, (1S,4aS,7aS)-", "Cyclopenta[c]pyran-4-carboxylic acid, 1\u03b1-(\u03b2-D-glucopyranosyloxy)-1,4a\u03b1,5,7a\u03b1-tetrahydro-7-(hydroxymethyl)-", "Cyclopenta[c]pyran-4-carboxylic acid, 1-(\u03b2-D-glucopyranosyloxy)-1,4a,5,7a-tetrahydro-7-(hydroxymethyl)-, [1S-(1\u03b1,4a\u03b1,7a\u03b1)]-", "(1S,4aS,7aS)-1-(\u03b2-D-Glucopyranosyloxy)-1,4a,5,7a-tetrahydro-7-(hydroxymethyl)cyclopenta[c]pyran-4-carboxylic acid", "Geniposidic acid"], "SMILES": "O(C1C2C(C(C(O)=O)=CO1)CC=C2CO)C3OC(CO)C(O)C(O)C3O", "physical_data": {"Molecular Weight": "374.34", "Molecular Formula": "C16H22O10", "Melting Point": "138-140 \u00b0C"}}