{"cas_no": "2774-84-7", "cn_name": "10-\u5341\u4e00\u7094\u9187", "en_name": ["10-Undecyn-1-ol", "10-Undecyn-1-ol", "1-Undecyn-11-ol", "11-Hydroxy-1-undecyne"], "SMILES": "C(CCCCCO)CCCC#C", "physical_data": {"Molecular Weight": "168.28", "Molecular Formula": "C11H20O", "Boiling Point": "124 \u00b0C @ Press: 4 Torr", "Density": "0.8733 g/cm\u00b3 @ Temp: 20 \u00b0C"}}