{"cas_no": "27740-01-8", "cn_name": "\u91ce\u9ec4\u82a9\u82f7", "en_name": ["Scutellarin", "\u03b2-D-Glucopyranosiduronic acid, 5,6-dihydroxy-2-(4-hydroxyphenyl)-4-oxo-4H-1-benzopyran-7-yl", "Glucopyranosiduronic acid, 5,6-dihydroxy-2-(p-hydroxyphenyl)-4-oxo-4H-1-benzopyran-7-yl, \u03b2-D-", "Scutellarin", "Flavone, 4\u2032,5,6,7-tetrahydroxy-, 7-\u03b2-D-glucopyranuronoside", "5,6-Dihydroxy-2-(4-hydroxyphenyl)-4-oxo-4H-1-benzopyran-7-yl \u03b2-D-glucopyranosiduronic acid", "Scutellarein 7-\u03b2-D-glucuronoside", "Scutellarein 7-glucuronide", "Scutellarein 7-\u03b2-D-glucuronide", "Scutellarein 7-O-\u03b2-D-glucuronide", "Scutellarin B", "Scutellarein 7-O-\u03b2-glucuronide"], "SMILES": "O=C1C=2C(OC(=C1)C3=CC=C(O)C=C3)=CC(OC4OC(C(O)=O)C(O)C(O)C4O)=C(O)C2O", "physical_data": {"Molecular Weight": "462.36", "Molecular Formula": "C21H18O12", "Melting Point": "205-206 \u00b0C"}}