{"cas_no": "27740-43-8", "cn_name": "\u523a\u6850\u7279\u7075\u78b1", "en_name": ["Erysotrine", "Erythrinan, 1,2,6,7-tetradehydro-3,15,16-trimethoxy-, (3\u03b2)-", "Erysotrine", "1H-Indolo[7a,1-a]isoquinoline, erythrinan deriv.", "(3\u03b2)-1,2,6,7-Tetradehydro-3,15,16-trimethoxyerythrinan", "Erysotrin", "(+)-Erysotrine"], "SMILES": "O(C)C1CC23C=4C(=CC(OC)=C(OC)C4)CCN2CC=C3C=C1", "physical_data": {"Molecular Weight": "313.39", "Molecular Formula": "C19H23NO3", "Melting Point": "97-98 \u00b0C"}}