{"cas_no": "27757-85-3", "cn_name": "2-\u567b\u5429\u7532\u80fa", "en_name": ["2-Thiophenemethanamine", "2-Thiophenemethanamine", "2-Thenylamine", "2-Thiophenemethylamine", "2-Aminomethylthiophene", "2-Thienylmethylamine", "(Thiophen-2-ylmethyl)amine", "N-(Thien-2-ylmethyl)amine", "1-(Thien-2-yl)methanamine", "Thiophen-2-ylmethanamine", "1-(Thiophen-2-yl)methanamine", "(Thien-2-yl)methanamine"], "SMILES": "C(N)C1=CC=CS1", "physical_data": {"Molecular Weight": "113.18", "Molecular Formula": "C5H7NS", "Boiling Point": "77 \u00b0C", "Density": "1.1370 g/cm\u00b3 @ Temp: 15 \u00b0C"}}