{"cas_no": "27779-29-9", "cn_name": "(1R,2R,3R,5S)-2,6,6-\u4e09\u7532\u57fa\u53cc\u73af[3.1.1]\u5e9a-3-\u9187", "en_name": ["Isopinocampheol", "Bicyclo[3.1.1]heptan-3-ol, 2,6,6-trimethyl-, (1R,2R,3R,5S)-rel-", "3-Pinanol, stereoisomer", "Bicyclo[3.1.1]heptan-3-ol, 2,6,6-trimethyl-, (1\u03b1,2\u03b2,3\u03b1,5\u03b1)-", "rel-(1R,2R,3R,5S)-2,6,6-Trimethylbicyclo[3.1.1]heptan-3-ol", "Isopinocampheol", "(\u00b1)-Isopinocampheol", "rac-Isopinocampheol", "NSC 167499"], "SMILES": "CC1(C)C2CC1CC(O)C2C", "physical_data": {"Molecular Weight": "154.25", "Molecular Formula": "C10H18O", "Melting Point": "54-56 \u00b0C (sublm)"}}