{"cas_no": "27773-65-5", "cn_name": "(3ALPHA,16ALPHA)-\u57c3\u90a3\u7f8e\u5b81-14-\u7fa7\u9178", "en_name": ["(+)-Apovincaminic acid", "1H-Indolo[3,2,1-de]pyrido[3,2,1-ij][1,5]naphthyridine-12-carboxylic acid, 13a-ethyl-2,3,5,6,13a,13b-hexahydro-, (13aS,13bS)-", "Apovincamin-22-oic acid", "Eburnamenine-14-carboxylic acid, (3\u03b1,16\u03b1)-", "1H-Indolo[3,2,1-de]pyrido[3,2,1-ij][1,5]naphthyridine, eburnamenine-14-carboxylic acid deriv.", "(13aS,13bS)-13a-Ethyl-2,3,5,6,13a,13b-hexahydro-1H-indolo[3,2,1-de]pyrido[3,2,1-ij][1,5]naphthyridine-12-carboxylic acid", "Apovincaminic acid", "(+)-cis-Apovincaminic acid", "cis-Apovincaminic acid", "(3\u03b1,16\u03b1)-Eburnamenine-14-carboxylic acid", "(+)-Apovincaminic acid", "Apovincamine acid"], "SMILES": "C(C)C12C3C=4N(C=5C(C4CCN3CCC1)=CC=CC5)C(C(O)=O)=C2", "physical_data": {"Molecular Weight": "322.40", "Molecular Formula": "C20H22N2O2", "Melting Point": "126-129 \u00b0C"}}