{"cas_no": "27773-39-3", "cn_name": "ERVAMYCINE", "en_name": ["Aspidospermidine-3-carboxylic acid, 2,3,6,7-tetradehydro-16-methoxy-, methyl ester, (5\u03b1,12R,19\u03b1)-", "Aspidospermidine-3-carboxylic acid, 2,3,6,7-tetradehydro-16-methoxy-, methyl ester, (5\u03b1,12R,19\u03b1)-", "Aspidospermidine-3-carboxylic acid, 2,3,6,7-tetradehydro-16-methoxy-, methyl ester, (5\u03b1,12\u03b2,19\u03b1)-", "Ervamycine", "16-Methoxytabersonine", "11-Methoxytabersonine", "(-)-11-Methoxytabersonine"], "SMILES": "C(C)C12C3C4(C(=C(C(OC)=O)C1)NC=5C4=CC=C(OC)C5)CCN3CC=C2", "physical_data": {"Molecular Weight": "366.45", "Molecular Formula": "C22H26N2O3", "Melting Point": "71-73 \u00b0C"}}