{"cas_no": "2777-65-3", "cn_name": "10-\u5341\u4e00\u78b3\u7094\u9178", "en_name": ["10-Undecynoic acid", "10-Undecynoic acid", "10-Hendecynoic acid"], "SMILES": "C(CCCCC#C)CCCC(O)=O", "physical_data": {"Molecular Weight": "182.26", "Molecular Formula": "C11H18O2", "Boiling Point": "129-131 \u00b0C", "Melting Point": "42 \u00b0C"}}