{"cas_no": "2777-58-4", "cn_name": "\u987a\u5f0f-\u5341\u516b\u70f7\u9178\u7532\u916f", "en_name": ["Methyl petroselinate", "6-Octadecenoic acid, methyl ester, (6Z)-", "6-Octadecenoic acid, methyl ester, (Z)-", "Petroselinic acid, methyl ester", "Methyl petroselinate", "Methyl cis-6-octadecenoate", "Methyl 6(Z)-octadecenoate", "Petroselenic acid methyl ester", "cis-6-Octadecenoic acid methyl ester"], "SMILES": "C(=CCCCCCCCCCCC)CCCCC(OC)=O", "physical_data": {"Molecular Weight": "296.49", "Molecular Formula": "C19H36O2", "Boiling Point": "208-210 \u00b0C @ Press: 10 Torr", "Density": "0.8767 g/cm\u00b3 @ Temp: 20 \u00b0C"}}