{"cas_no": "2778-96-3", "cn_name": "\u786c\u8102\u9178\u5341\u516b\u9187\u8102", "en_name": ["Stearyl stearate", "Octadecanoic acid, octadecyl ester", "Stearic acid, octadecyl ester", "Octadecyl octadecanoate", "Stearyl stearate", "Octadecyl stearate", "FE 78-18", "Cyclochem SS", "Loxiol G 30", "Cosmol 1000", "Rikaflow SS 50", "Rikemal SL 900", "Lexol SS", "Unister M 9676", "Nissan Unister M 9676", "NJLUB SS", "Rikemal SL 800", "1-Octadecyl octadecanoate", "Exceparl SS", "Nissan Unister 9676M", "G 32", "Brian DPS 60", "M 9676", "Rikemal 900A", "Emalex CC 18", "Amreps SS", "Ligalub 36FE", "Amleps SS", "Radia 7501", "VSSE", "Nissan Electol WEP 2", "WEP 2", "Unister M 9796", "Nissan Unister M 9796"], "SMILES": "O(C(CCCCCCCCCCCCCCCCC)=O)CCCCCCCCCCCCCCCCCC", "physical_data": {"Molecular Weight": "536.96", "Molecular Formula": "C36H72O2", "Melting Point": "62 \u00b0C"}}