{"cas_no": "2778-42-9", "cn_name": "1,3-\u53cc(1-\u5f02\u6c30\u9178\u6839-1-\u7532\u57fa\u4e59\u57fa)\u82ef", "en_name": ["1,3-Bis(1-isocyanato-1-methylethyl)benzene", "Benzene, 1,3-bis(1-isocyanato-1-methylethyl)-", "Isocyanic acid, \u03b1,\u03b1,\u03b1\u2032,\u03b1\u2032-tetramethyl-m-xylylene ester", "Isocyanic acid, m-phenylenediisopropylidene ester", "1,3-Bis(1-isocyanato-1-methylethyl)benzene", "\u03b1,\u03b1,\u03b1\u2032,\u03b1\u2032-Tetramethyl-m-phenylenedimethylene diisocyanate", "1,3-Bis(\u03b1-isocyanatoisopropyl)benzene", "m-TMXDI", "m-Bis(1-isocyanato-1-methylethyl)benzene", "\u03b1,\u03b1,\u03b1\u2032,\u03b1\u2032-Tetramethyl-m-xylylene diisocyanate", "Tetramethyl-m-xylylene diisocyanate", "\u03b1,\u03b1,\u03b1\u2032,\u03b1\u2032-Tetramethyl-1,3-xylylene diisocyanate", "m-Tetramethylxylene diisocyanate", "\u03b1,\u03b1,\u03b1\u2032,\u03b1\u2032-Tetramethyl-m-xylene diisocyanate", "Tetramethyl-1,3-xylylene diisocyanate", "1,3-Bis(1-isocyanatolmethylethyl)benzene", "1,3-Bis(2-isocyanato-prop-2-yl)benzene", "\u03b1,\u03b1,\u03b1\u2032,\u03b1\u2032-Tetramethyl-1,3-xylylen diisocyanate", "1,3-Bis(2-isocyanatopropan-2-yl)benzene", "1,3-Bis(1-methyl-1-isocyanatoethyl)benzene", "\u03b1,\u03b1,\u03b1\u2032,\u03b1\u2032-Tetramethyl-1,3-xylene diisocyanate"], "SMILES": "C(N=C=O)(C)(C)C1=CC(C(N=C=O)(C)C)=CC=C1", "physical_data": {"Molecular Weight": "244.29", "Molecular Formula": "C14H16N2O2", "Boiling Point": "106 \u00b0C"}}