{"cas_no": "2779-81-9", "cn_name": "3,6-\u4e8c\u6c2f\u54d2\u55ea-4-\u9187", "en_name": ["3,6-Dichloro-4-pyridazinol", "4-Pyridazinol, 3,6-dichloro-", "3,6-Dichloro-4-pyridazinol", "3,6-Dichloro-4-hydroxypyridazine"], "SMILES": "OC1=C(Cl)N=NC(Cl)=C1", "physical_data": {"Molecular Weight": "164.98", "Molecular Formula": "C4H2Cl2N2O", "Melting Point": "199-200 \u00b0C"}}