{"cas_no": "27798-60-3", "cn_name": "2-\u7532\u6c27\u57fa\u82ef\u57fa\u4e59\u9178\u7532\u916f", "en_name": ["Methyl 2-methoxybenzeneacetate", "Benzeneacetic acid, 2-methoxy-, methyl ester", "Acetic acid, (o-methoxyphenyl)-, methyl ester", "Methyl 2-methoxybenzeneacetate", "Methyl o-methoxyphenylacetate", "Methyl (2-methoxyphenyl)acetate", "NSC 245109", "2-Methoxyphenylacetic acid methyl ester"], "SMILES": "C(C(OC)=O)C1=C(OC)C=CC=C1", "physical_data": {"Molecular Weight": "180.20", "Molecular Formula": "C10H12O3", "Melting Point": "70.3-71.0 \u00b0C"}}