{"cas_no": "27794-03-2", "cn_name": "5-\uff084-\u7532\u6c27\u57fa\u82ef\u57fa\uff09-2-\u6c2f\u5627\u5576", "en_name": ["2-Chloro-5-(4-methoxyphenyl)pyrimidine", "Pyrimidine, 2-chloro-5-(4-methoxyphenyl)-", "Pyrimidine, 2-chloro-5-(p-methoxyphenyl)-", "2-Chloro-5-(4-methoxyphenyl)pyrimidine"], "SMILES": "O(C)C1=CC=C(C=C1)C=2C=NC(Cl)=NC2", "physical_data": {"Molecular Weight": "220.65", "Molecular Formula": "C11H9ClN2O", "Melting Point": "129-131 \u00b0C"}}