{"cas_no": "278-74-0", "cn_name": "2,3-\u73af\u6c27\u4e19\u57fa\u964d\u83b0\u70f7", "en_name": ["3-Oxatricyclo[3.2.1.02,4]octane", "3-Oxatricyclo[3.2.1.02,4]octane", "Norbornane, 2,3-epoxy-", "2,3-Epoxybicyclo[2.2.1]heptane", "Norbornene epoxide", "2,3-Epoxynorbornene", "2,3-Epoxynorbornane", "Norbornene oxide", "Norbornane epoxide"], "SMILES": "C12C(O1)C3CC2CC3", "physical_data": {"Molecular Weight": "110.15", "Molecular Formula": "C7H10O", "Melting Point": "118-119 \u00b0C"}}