{"cas_no": "27807-84-7", "cn_name": "4-\u6c2f-3-\u6c27\u4ee3\u4e01\u9178", "en_name": ["4-Chloro-3-oxobutanoic acid", "Butanoic acid, 4-chloro-3-oxo-", "Acetoacetic acid, 4-chloro-", "4-Chloro-3-oxobutanoic acid", "4-Chloro-3-oxobutyric acid", "\u03b3-Chloroacetoacetic acid", "4-Chloroacetoacetic acid", "4-Chloro-3-oxobutaneoate"], "SMILES": "C(CC(O)=O)(CCl)=O", "physical_data": {"Molecular Weight": "136.53", "Molecular Formula": "C4H5ClO3", "Melting Point": "67-69 \u00b0C"}}