{"cas_no": "2781-11-5", "cn_name": "\u963b\u71c3\u5242 FRC-6", "en_name": ["Diethyl P-[[bis(2-hydroxyethyl)amino]methyl]phosphonate", "Phosphonic acid, P-[[bis(2-hydroxyethyl)amino]methyl]-, diethyl ester", "Phosphonic acid, [[bis(2-hydroxyethyl)amino]methyl]-, diethyl ester", "Diethyl P-[[bis(2-hydroxyethyl)amino]methyl]phosphonate", "Fyrol 6", "Diethyl [[N,N-bis(2-hydroxyethyl)amino]methyl]phosphonate", "Diethyl [(diethanolamino)methyl]phosphonate", "Diethyl [[bis(2-hydroxyethyl)amino]methyl]phosphonate", "Diethyl [N,N-bis(2-hydroxyethyl)amino]methanephosphonate", "Adeka FC 450", "FC 450", "Levagard 4090", "NSC 82342", "Levagard 4090N", "FRC 6", "N,N-Bis(2-hydroxyethyl)aminomethylphosphonic acid diethyl ester", "Diethyl N,N\u2032-bis(2-hydroxyethyl)aminomethylphosphonate", "WSFR 6", "2-[Diethoxyphosphorylmethyl(2-hydroxyethyl)amino]ethanol"], "SMILES": "P(CN(CCO)CCO)(OCC)(OCC)=O", "physical_data": {"Molecular Weight": "255.25", "Molecular Formula": "C9H22NO5P", "Boiling Point": "150 \u00b0C @ Press: 0.1 Torr"}}