{"cas_no": "27817-67-0", "cn_name": "\u70ef\u4e19\u57fa\u4e8c\u786b\u5316\u7269", "en_name": ["3-(Propylthio)-1-propene", "1-Propene, 3-(propylthio)-", "Sulfide, allyl propyl", "3-(Propylthio)-1-propene", "Allyl propyl sulfide", "Propyl allyl sulfide", "2-Propenyl propyl sulfide", "Allyl n-propyl sulfide", "NSC 164926", "1-Prop-2-enylsulfanylpropane"], "SMILES": "S(CCC)CC=C", "physical_data": {"Molecular Weight": "116.22", "Molecular Formula": "C6H12S", "Boiling Point": "66-69 \u00b0C @ Press: 16 Torr", "Density": "0.8642 g/cm\u00b3 @ Temp: 20 \u00b0C"}}