{"cas_no": "27813-02-1", "cn_name": "\u7532\u57fa\u4e19\u70ef\u9178\u7f9f\u4e19\u916f", "en_name": ["Hydroxypropyl methacrylate", "2-Propenoic acid, 2-methyl-, monoester with 1,2-propanediol", "Methacrylic acid, monoester with 1,2-propanediol", "Methacrylic acid, ester with 1,2-propanediol", "1,2-Propanediol, monomethacrylate", "Hydroxypropyl methacrylate", "Rocryl 410", "Propylene glycol monomethacrylate", "HPMA 98", "Bisomer HPMA", "HPMA 97", "1,2-Propylene glycol methacrylate", "Propylene glycol methacrylate", "Visiomer HPMA 98", "Visiomer MPMA 98"], "SMILES": "", "physical_data": {"Molecular Weight": "", "Molecular Formula": "C7H12O3", "Boiling Point": "96 \u00b0C", "Melting Point": "-89 \u00b0C", "Density": "1.066 g/cm\u00b3 @ Temp: 25 \u00b0C"}}