{"cas_no": "27816-36-0", "cn_name": "2-\u6c2f\u4e19\u9170\u80fa", "en_name": ["2-Chloropropanamide", "Propanamide, 2-chloro-", "Propionamide, 2-chloro-", "2-Chloropropanamide", "\u03b1-Chloropropionamide", "2-Chloropropionamide", "NSC 401803", "2-Chloropropionic acid amide"], "SMILES": "C(C(N)=O)(C)Cl", "physical_data": {"Molecular Weight": "107.54", "Molecular Formula": "C3H6ClNO", "Melting Point": "82 \u00b0C"}}