{"cas_no": "2781-10-4", "cn_name": "\u4e8c\u4e01\u57fa\u4e8c\u5f02\u8f9b\u9178\u9521", "en_name": ["1,1\u2032-(Dibutylstannylene) bis(2-ethylhexanoate)", "Hexanoic acid, 2-ethyl-, 1,1\u2032-(dibutylstannylene) ester", "Stannane, dibutylbis[(2-ethylhexanoyl)oxy]-", "Dibutyltin bis(2-ethylhexanoate)", "Stannane, dibutylbis[(2-ethyl-1-oxohexyl)oxy]-", "Tin, dibutylbis[(2-ethylhexanoyl)oxy]-", "Hexanoic acid, 2-ethyl-, dibutylstannylene deriv.", "1,1\u2032-(Dibutylstannylene) bis(2-ethylhexanoate)", "Dibutyltin bis(\u03b1-ethylhexanoate)", "Dibutyltin di(2-ethylhexoate)", "Dibutyltin di(2-ethylhexanoate)", "Dibutylbis(2-ethyl-1-oxohexyloxy)stannane", "Fascat 4208", "Neostann U 8", "NSC 73733"], "SMILES": "[Sn](OC(C(CCCC)CC)=O)(OC(C(CCCC)CC)=O)(CCCC)CCCC", "physical_data": {"Molecular Weight": "519.35", "Molecular Formula": "C24H48O4Sn", "Boiling Point": "217 \u00b0C", "Melting Point": "57 \u00b0C"}}