{"cas_no": "27825-21-4", "cn_name": "3-\u6c2f-2-\u5421\u55ea\u7532\u9178\u7532\u916f", "en_name": ["2-Pyrazinecarboxylic acid, 3-chloro-, methyl ester", "2-Pyrazinecarboxylic acid, 3-chloro-, methyl ester", "Pyrazinecarboxylic acid, 3-chloro-, methyl ester", "Pyrazinoic acid, 3-chloro-, methyl ester", "Methyl 3-chloropyrazine-2-carboxylate", "3-Chloro-2-pyrazinecarboxylic acid methyl ester"], "SMILES": "C(OC)(=O)C=1C(Cl)=NC=CN1", "physical_data": {"Molecular Weight": "172.57", "Molecular Formula": "C6H5ClN2O2", "Melting Point": "31-32 \u00b0C"}}