{"cas_no": "2782-91-4", "cn_name": "\u56db\u7532\u57fa\u786b\u8132", "en_name": ["Tetramethylthiourea", "Thiourea, N,N,N\u2032,N\u2032-tetramethyl-", "Urea, 1,1,3,3-tetramethyl-2-thio-", "Thiourea, tetramethyl-", "N,N,N\u2032,N\u2032-Tetramethylthiourea", "Tetramethylthiourea", "1,1,3,3-Tetramethyl-2-thiourea", "Basthioryl", "NSC 102499", "NA 101"], "SMILES": "C(N(C)C)(N(C)C)=S", "physical_data": {"Molecular Weight": "132.23", "Molecular Formula": "C5H12N2S", "Boiling Point": "245 \u00b0C", "Melting Point": "9-78 \u00b0C"}}