{"cas_no": "27829-72-7", "cn_name": "\u53cd\u5f0f-2-\u5df1\u70ef\u9178\u4e59\u916f", "en_name": ["Ethyl trans-2-hexenoate", "2-Hexenoic acid, ethyl ester, (2E)-", "2-Hexenoic acid, ethyl ester, (E)-", "(E)-Ethyl 2-hexenoate", "Ethyl (E)-2-hexenoate", "Ethyl trans-2-hexenoate", "Ethyl (2E)-hex-2-enoate"], "SMILES": "C(C(OCC)=O)=CCCC", "physical_data": {"Molecular Weight": "142.20", "Molecular Formula": "C8H14O2", "Boiling Point": "61 \u00b0C @ Press: 17 Torr"}}