{"cas_no": "27828-71-3", "cn_name": "5-\u7f9f\u57fa\u70df\u9178", "en_name": ["5-Hydroxynicotinic acid", "3-Pyridinecarboxylic acid, 5-hydroxy-", "Nicotinic acid, 5-hydroxy-", "5-Hydroxy-3-pyridinecarboxylic acid", "5-Hydroxynicotinic acid", "5-Hydroxypyridine-3-carboxylic acid", "NSC 606891", "3-Hydroxypyridin-5-ylcarboxylic acid"], "SMILES": "C(O)(=O)C=1C=C(O)C=NC1", "physical_data": {"Molecular Weight": "139.11", "Molecular Formula": "C6H5NO3", "Melting Point": "299 \u00b0C (decomp)"}}