{"cas_no": "2782-57-2", "cn_name": "\u4e8c\u6c2f\u5f02\u6c30\u5c3f\u9178\u94a0", "en_name": ["Dichloroisocyanurate", "1,3,5-Triazine-2,4,6(1H,3H,5H)-trione, 1,3-dichloro-", "s-Triazine-2,4,6(1H,3H,5H)-trione, 1,3-dichloro-", "s-Triazine-2,4,6(1H,3H,5H)-trione, dichloro-", "1,3-Dichloro-1,3,5-triazine-2,4,6(1H,3H,5H)-trione", "ACL 70", "Dichlorocyanuric acid", "Dichloroisocyanuric acid", "1,3-Dichloro-s-triazine-2,4,6-trione", "Troclosene", "Isocyanuric dichloride", "Fi Clor 71", "CDB 60", "Hilite 60", "Orced", "Dichloroisocyanurate", "Neochlor 60", "Dichlor", "DCCA"], "SMILES": "ClN1C(=O)N(Cl)C(=O)NC1=O", "physical_data": {"Molecular Weight": "197.96", "Molecular Formula": "C3HCl2N3O3", "Melting Point": "226.4-226.7 \u00b0C"}}