{"cas_no": "2782-07-2", "cn_name": "\u534a\u4e73\u7cd6\u9178\u5167\u916f", "en_name": ["D-Galactono-1,4-lactone", "D-Galactonic acid, \u03b3-lactone", "Galactonic acid, \u03b3-lactone, D-", "D-Galactono-\u03b3-lactone", "D-Galactono-1,4-lactone", "\u03b3-D-Galactonolactone", "1,4-D-Galactonolactone", "D-Galactonic acid 1,4-lactone", "NSC 102762"], "SMILES": "C(CO)(O)C1C(O)C(O)C(=O)O1", "physical_data": {"Molecular Weight": "178.14", "Molecular Formula": "C6H10O6", "Melting Point": "133-134 \u00b0C"}}