{"cas_no": "2783-17-7", "cn_name": "1,12-\u4e8c\u6c28\u57fa\u5341\u4e8c\u70f7", "en_name": ["1,12-Dodecanediamine", "1,12-Dodecanediamine", "1,12-Dodecamethylenediamine", "1,12-Diaminododecane", "Dodecamethylenediamine", "1,12-Dodecylenediamine", "1,12-n-Dodecanediamine", "1,12-Diamino-n-dodecane", "NSC 55050", "NSC 59861"], "SMILES": "C(CCCCCCN)CCCCCN", "physical_data": {"Molecular Weight": "200.36", "Molecular Formula": "C12H28N2", "Boiling Point": "187 \u00b0C", "Melting Point": "66-67 \u00b0C"}}