{"cas_no": "2784-27-2", "cn_name": "5-(4-\u7f9f\u57fa\u82ef\u57fa)-5-\u82ef\u57fa\u6d77\u56e0", "en_name": ["5-(4-Hydroxyphenyl)-5-phenylhydantoin", "2,4-Imidazolidinedione, 5-(4-hydroxyphenyl)-5-phenyl-", "Hydantoin, 5-(p-hydroxyphenyl)-5-phenyl-", "5-(4-Hydroxyphenyl)-5-phenyl-2,4-imidazolidinedione", "5-(p-Hydroxyphenyl)-5-phenylhydantoin", "Hydroxydiphenylhydantoin", "p-Hydroxydiphenylhydantoin", "(p-Hydroxyphenyl)phenylhydantoin", "4-Hydroxydiphenylhydantoin", "5-(4-Hydroxyphenyl)-5-phenylhydantoin", "4-Hydroxyphenytoin", "p-Hydroxyphenytoin", "5-Phenyl-5-p-hydroxyphenylhydantoin", "5-(4\u2032-Hydroxyphenyl)-5-phenylhydantoin", "dl-5-(p-Hydroxyphenyl-5-phenylhydantoin", "(\u00b1)-5-(4-Hydroxyphenyl-5-phenylhydantoin", "NSC 156081"], "SMILES": "O=C1C(NC(=O)N1)(C2=CC=C(O)C=C2)C3=CC=CC=C3", "physical_data": {"Molecular Weight": "268.27", "Molecular Formula": "C15H12N2O3", "Melting Point": "311 \u00b0C (decomp)"}}