{"cas_no": "27848-84-6", "cn_name": "\u5c3c\u9ea6\u89d2\u6797", "en_name": ["Nicergoline", "Ergoline-8-methanol, 10-methoxy-1,6-dimethyl-, 8-(5-bromo-3-pyridinecarboxylate), (8\u03b2)-", "Ergoline-8\u03b2-methanol, 10-methoxy-1,6-dimethyl-, 5-bromonicotinate (ester)", "Ergoline-8-methanol, 10-methoxy-1,6-dimethyl-, 5-bromo-3-pyridinecarboxylate (ester), (8\u03b2)-", "Nicotinic acid, 5-bromo-, (10-methoxy-1,6-dimethylergolin-8\u03b2-yl)methyl ester", "Indolo[4,3-fg]quinoline, ergoline-8-methanol deriv.", "MNE", "Nicotergoline", "1,6-Dimethyl-8\u03b2-(5-bromonicotinoyloxymethyl)-10\u03b1-methoxyergoline", "Nicergoline", "Sermion", "TA 079", "Ergotop", "Ergobel", "Cergodum", "Circo-Maren", "Duracebrol", "Vasospan", "Memoq", "Nicergolent", "FI 6714", "Dilasenil", "NSC 150531"], "SMILES": "O(C)C12C=3C=4C(CC1N(C)CC(COC(=O)C=5C=C(Br)C=NC5)C2)=CN(C)C4C=CC3", "physical_data": {"Molecular Weight": "484.39", "Molecular Formula": "C24H26BrN3O3", "Melting Point": "136-138 \u00b0C"}}