{"cas_no": "2784-89-6", "cn_name": "2-\u785d\u57fa-4-\u6c28\u57fa\u4e8c\u82ef\u80fa", "en_name": ["HC Red 1", "1,4-Benzenediamine, 2-nitro-N1-phenyl-", "p-Phenylenediamine, 2-nitro-N1-phenyl-", "2-Nitro-N1-phenyl-1,4-benzenediamine", "2-Nitro-4-amino-N-phenylaniline", "1-Anilino-4-amino-2-nitrobenzene", "4-Amino-2-nitrodiphenylamine", "HC Red No. 1", "HC Red 1", "2-Nitro-1-N-phenylbenzene-1,4-diamine"], "SMILES": "N(C1=C(N(=O)=O)C=C(N)C=C1)C2=CC=CC=C2", "physical_data": {"Molecular Weight": "229.23", "Molecular Formula": "C12H11N3O2", "Melting Point": "228-231 \u00b0C"}}