{"cas_no": "2785-54-8", "cn_name": "\u5341\u56db\u70f7\u57fa\u6c2f\u5316\u5421\u5576", "en_name": ["Tetradecylpyridinium chloride", "Pyridinium, 1-tetradecyl-, chloride (1:1)", "Pyridinium, 1-tetradecyl-, chloride", "1-Tetradecylpyridinium chloride", "Tetradecylpyridinium chloride", "Myristylpyridinium chloride", "N-Tetradecylpyridinium chloride", "1-n-Tetradecanepyridinium chloride", "TPC", "TPC (onium compound)"], "SMILES": "C(CCCCCCCCCCCCC)[N+]=1C=CC=CC1.[Cl-]", "physical_data": {"Molecular Weight": "", "Molecular Formula": "C19H34N.Cl", "Melting Point": "77 \u00b0C"}}