{"cas_no": "2785-87-7", "cn_name": "2-\u7532\u6c27\u57fa-4-\u4e19\u57fa-\u82ef\u915a", "en_name": ["4-Propylguaiacol", "Phenol, 2-methoxy-4-propyl-", "Guaiacol, 4-propyl-", "2-Methoxy-4-propylphenol", "4-Hydroxy-3-methoxypropylbenzene", "4-Propylguaiacol", "(4-Hydroxy-3-methoxyphenyl)propane", "Dihydroeugenol", "p-Propylguaiacol", "Guaiacylpropane", "4-Propyl-2-methoxyphenol", "Cerulignol", "Coerulignol", "1-(4-Hydroxy-3-methoxyphenyl)propane", "p-n-Propylguaiacol", "Euganol", "1-(3-Methoxy-4-hydroxyphenyl)propane", "NSC 53043"], "SMILES": "O(C)C1=CC(CCC)=CC=C1O", "physical_data": {"Molecular Weight": "166.22", "Molecular Formula": "C10H14O2", "Boiling Point": "124 \u00b0C @ Press: 15 Torr", "Density": "0.9567 g/cm\u00b3 @ Temp: 20 \u00b0C"}}