{"cas_no": "2785-98-0", "cn_name": "2,5-\u4e8c\u7532\u6c27\u57fa\u82ef\u7532\u9178", "en_name": ["2,5-Dimethoxybenzoic acid", "Benzoic acid, 2,5-dimethoxy-", "2,5-Dimethoxybenzoic acid", "NSC 44887"], "SMILES": "C(O)(=O)C1=C(OC)C=CC(OC)=C1", "physical_data": {"Molecular Weight": "182.17", "Molecular Formula": "C9H10O4", "Melting Point": "80 \u00b0C"}}