{"cas_no": "2785-89-9", "cn_name": "4-\u4e59\u57fa-2-\u7532\u6c27\u57fa\u82ef\u915a", "en_name": ["4-Ethylguaiacol", "Phenol, 4-ethyl-2-methoxy-", "Guaiacol, 4-ethyl-", "4-Ethyl-2-methoxyphenol", "p-Ethylguaiacol", "4-Ethylguaiacol", "4-Hydroxy-3-methoxyethylbenzene", "2-Methoxy-4-ethylphenol", "Guaiacyl ethane", "4-Hydroxy-3-methoxyphenylethane", "NSC 82313"], "SMILES": "O(C)C1=CC(CC)=CC=C1O", "physical_data": {"Molecular Weight": "152.19", "Molecular Formula": "C9H12O2", "Boiling Point": "236.5 \u00b0C", "Melting Point": "-7 \u00b0C"}}