{"cas_no": "2786-31-4", "cn_name": "3-\u7532\u57fa\u82ef\u5e76\u567b\u5511\u7fc1\u7898\u5316\u7269", "en_name": ["Benzothiazolium, 3-methyl-, iodide (1:1)", "Benzothiazolium, 3-methyl-, iodide (1:1)", "Benzothiazolium, 3-methyl-, iodide", "3-Methylbenzothiazolium iodide", "Methylbenzothiazolium iodide", "Benzothiazole methiodide", "2-Methylbenzothiazolium iodide"], "SMILES": "C[N+]=1C=2C(=CC=CC2)SC1.[I-]", "physical_data": {"Molecular Weight": "", "Molecular Formula": "C8H8NS.I", "Melting Point": "220 \u00b0C"}}