{"cas_no": "27876-24-0", "cn_name": "4-\u5df1\u57fa\u5421\u5576", "en_name": ["4-Hexylpyridine", "Pyridine, 4-hexyl-", "4-Hexylpyridine", "1-(4-Pyridyl)hexane"], "SMILES": "C(CCCCC)C=1C=CN=CC1", "physical_data": {"Molecular Weight": "163.26", "Molecular Formula": "C11H17N", "Boiling Point": "140 \u00b0C @ Press: 18 Torr"}}