{"cas_no": "278779-30-9", "cn_name": "3-(2,6-\u4e8c\u6c2f\u82ef\u57fa)-4-(3'-\u7fa7\u57fa-2-\u6c2f\u4e8c\u82ef\u4e59\u70ef-4-\u57fa)\u6c27\u7532\u57fa-5-\u5f02\u4e19\u57fa\u5f02\u6076\u5511", "en_name": ["3-[2-[2-Chloro-4-[[3-(2,6-dichlorophenyl)-5-(1-methylethyl)-4-isoxazolyl]methoxy]phenyl]ethenyl]benzoic acid", "Benzoic acid, 3-[2-[2-chloro-4-[[3-(2,6-dichlorophenyl)-5-(1-methylethyl)-4-isoxazolyl]methoxy]phenyl]ethenyl]-", "3-[2-[2-Chloro-4-[[3-(2,6-dichlorophenyl)-5-(1-methylethyl)-4-isoxazolyl]methoxy]phenyl]ethenyl]benzoic acid", "GW 4064"], "SMILES": "C(OC1=CC(Cl)=C(C=CC2=CC(C(O)=O)=CC=C2)C=C1)C=3C(=NOC3C(C)C)C4=C(Cl)C=CC=C4Cl", "physical_data": {"Molecular Weight": "542.84", "Molecular Formula": "C28H22Cl3NO4", "Melting Point": "164-167 \u00b0C"}}