{"cas_no": "27876-94-4", "cn_name": "\u8543\u7d05[\u82b1]\u9178", "en_name": ["Crocetin", "2,4,6,8,10,12,14-Hexadecaheptaenedioic acid, 2,6,11,15-tetramethyl-, (2E,4E,6E,8E,10E,12E,14E)-", "2,4,6,8,10,12,14-Hexadecaheptaenedioic acid, 2,6,11,15-tetramethyl-, (all-E)-", "8,8\u2032-Diapo-\u03c8,\u03c8-carotenedioic acid", "Crocetin", "(2E,4E,6E,8E,10E,12E,14E)-2,6,11,15-Tetramethyl-2,4,6,8,10,12,14-hexadecaheptaenedioic acid", "\u03b1-Crocetin", "Crocetin (stable)", "trans-Crocetin", "Stable crocetin", "NSC 407300", "Transcrocetin", "Apocarotenic acid", "Crobit P", "LEAF-4L6715", "LEAF 4L 6715"], "SMILES": "C(=C(C(O)=O)C)C=CC(=CC=CC=C(C=CC=C(C(O)=O)C)C)C", "physical_data": {"Molecular Weight": "328.40", "Molecular Formula": "C20H24O4", "Melting Point": "286 \u00b0C"}}