{"cas_no": "2788-28-5", "cn_name": "L-\u5361\u5185\u8148", "en_name": ["1-Propanaminium, 3-cyano-2-hydroxy-N,N,N-trimethyl-, chloride (1:1), (2R)-", "1-Propanaminium, 3-cyano-2-hydroxy-N,N,N-trimethyl-, chloride (1:1), (2R)-", "1-Propanaminium, 3-cyano-2-hydroxy-N,N,N-trimethyl-, chloride, (R)-", "Ammonium, (3-cyano-2-hydroxypropyl)trimethyl-, chloride, (-)-", "1-Propanaminium, 3-cyano-2-hydroxy-N,N,N-trimethyl-, chloride, (2R)-", "Ammonium, (3-cyano-2-hydroxypropyl)trimethyl-, chloride, L-", "[(2R)-3-Cyano-2-hydroxypropyl]trimethylazanium chloride", "(2R)-(-)-3-Cyano-2-hydroxypropyltrimethylammonium chloride"], "SMILES": "C(C[N+](C)(C)C)(CC#N)O.[Cl-]", "physical_data": {"Molecular Weight": "", "Molecular Formula": "C7H15N2O.Cl", "Melting Point": "246.7-247.9 \u00b0C"}}