{"cas_no": "2788-86-5", "cn_name": "(\u00b1)-4-\u6c2f\u82ef\u4e59\u70ef\u73af\u6c27\u5316\u7269", "en_name": ["4-Chlorostyrene oxide", "Oxirane, 2-(4-chlorophenyl)-", "Benzene, 1-chloro-4-(epoxyethyl)-", "Oxirane, (4-chlorophenyl)-", "2-(4-Chlorophenyl)oxirane", "p-Chlorostyrene oxide", "4-Chlorostyrene oxide", "(p-Chlorophenyl)oxirane", "(\u00b1)-(4-Chlorophenyl)oxirane", "4-Chlorophenyloxirane", "4-Chlorostyrene epoxide"], "SMILES": "ClC1=CC=C(C2CO2)C=C1", "physical_data": {"Molecular Weight": "154.59", "Molecular Formula": "C8H7ClO", "Boiling Point": "108 \u00b0C @ Press: 13 Torr", "Density": "1.2169 g/cm\u00b3 @ Temp: 20 \u00b0C"}}