{"cas_no": "27894-50-4", "cn_name": "CBZ-L-\u8d56\u6c28\u9178\u7532\u916f\u76d0\u9178\u76d0", "en_name": ["L-Lysine, N6-[(phenylmethoxy)carbonyl]-, methyl ester, hydrochloride (1:1)", "L-Lysine, N6-[(phenylmethoxy)carbonyl]-, methyl ester, hydrochloride (1:1)", "Lysine, N6-carboxy-, N6-benzyl methyl ester, monohydrochloride, L-", "L-Lysine, N6-[(phenylmethoxy)carbonyl]-, methyl ester, monohydrochloride", "Lysine, N6-carboxy-, N6-benzyl methyl ester, hydrochloride, L-", "L-Lysine, N6-carboxy-, N-benzyl methyl ester, hydrochloride", "\u03b5-(N-Benzyloxycarbonyl)-L-lysine methyl ester hydrochloride", "\u03b5-(N-Benzyloxycarbonyl)lysine methyl ester hydrochloride", "N2-Carboxy-L-lysine N-benzyl methyl ester hydrochloride", "N\u03b5-Benzyloxycarbonyl-L-lysine methyl ester hydrochloride", "NSC 83263", "N\u03b5-CbZ-L-Lysine methyl ester hydrochloride", "H-Lys(Z)-OMe hydrochloride"], "SMILES": "C(OC(NCCCCC(C(OC)=O)N)=O)C1=CC=CC=C1.Cl", "physical_data": {"Molecular Weight": "", "Molecular Formula": "C15H22N2O4.ClH", "Melting Point": "75-77 \u00b0C"}}