{"cas_no": "27896-84-0", "cn_name": "5-\u785d\u57fa\u82ef\u5e76\u54aa\u5511\u785d\u9178\u76d0", "en_name": ["1H-Benzimidazole, 6-nitro-, nitrate (1:1)", "1H-Benzimidazole, 6-nitro-, nitrate (1:1)", "Benzimidazole, 5-nitro-, mononitrate", "1H-Benzimidazole, 5-nitro-, mononitrate", "6-Nitrobenzimidazole nitrate", "5-Nitrobenzimidazole mononitrate"], "SMILES": "N(=O)(=O)C=1C=C2C(=CC1)N=CN2.N(=O)(=O)O", "physical_data": {"Molecular Weight": "", "Molecular Formula": "C7H5N3O2.HNO3", "Melting Point": "204 \u00b0C (decomp)"}}