{"cas_no": "27893-41-0", "cn_name": "4-\u6b63\u5e9a\u6c27\u57fa\u82ef\u80fa\u7532\u919b", "en_name": ["4-(Heptyloxy)benzaldehyde", "Benzaldehyde, 4-(heptyloxy)-", "Benzaldehyde, p-(heptyloxy)-", "4-(Heptyloxy)benzaldehyde", "p-(Heptyloxy)benzaldehyde", "p-(n-Heptyloxy)benzaldehyde", "4-(n-Heptyloxy)benzaldehyde", "4-Heptoxybenzaldehyde"], "SMILES": "O(CCCCCCC)C1=CC=C(C=O)C=C1", "physical_data": {"Molecular Weight": "220.31", "Molecular Formula": "C14H20O2", "Boiling Point": "162-164 \u00b0C"}}