{"cas_no": "2789-92-6", "cn_name": "2-\u6c28\u57fa-3,5-\u4e8c\u6c2f\u82ef\u7532\u9178", "en_name": ["3,5-Dichloroanthranilic acid", "Benzoic acid, 2-amino-3,5-dichloro-", "Anthranilic acid, 3,5-dichloro-", "2-Amino-3,5-dichlorobenzoic acid", "3,5-Dichloroanthranilic acid", "3,5-Dichloro-2-aminobenzoic acid", "NSC 1116"], "SMILES": "C(O)(=O)C1=C(N)C(Cl)=CC(Cl)=C1", "physical_data": {"Molecular Weight": "206.03", "Molecular Formula": "C7H5Cl2NO2", "Melting Point": "223 \u00b0C"}}