{"cas_no": "279-49-2", "cn_name": "1,4-\u73af\u6c27\u73af\u5df1\u70f7", "en_name": ["7-Oxabicyclo[2.2.1]heptane", "7-Oxabicyclo[2.2.1]heptane", "3,6-Endoxocyclohexane", "Cyclohexane, 1,4-epoxy-", "Cyclohexane, 3,6-endoxo-", "1,4-Epoxycyclohexane", "3,6-Endooxycyclohexane", "7-Oxanorbornane", "1,4-Oxycyclohexane", "NSC 54357"], "SMILES": "C12OC(CC1)CC2", "physical_data": {"Molecular Weight": "98.14", "Molecular Formula": "C6H10O", "Boiling Point": "120.1 \u00b0C @ Press: 760 Torr", "Density": "0.9707 g/cm\u00b3 @ Temp: 20 \u00b0C"}}