{"cas_no": "279-23-2", "cn_name": "\u964d\u83b0\u70f7", "en_name": ["Norbornane", "Bicyclo[2.2.1]heptane", "Norbornane", "Cyclohexane, 1,4-endo-methylene-", "Norbornylane", "Norcamphane", "Norfenchane", "Norsantane", "1,4-Endomethylenecyclohexane", "NSC 91457"], "SMILES": "C12CC(CC1)CC2", "physical_data": {"Molecular Weight": "96.17", "Molecular Formula": "C7H12", "Boiling Point": "105.3 \u00b0C", "Melting Point": "87.5 \u00b0C"}}