{"cas_no": "27908-75-4", "cn_name": "\u6eb6\u5242\u9ec4157", "en_name": ["4,5,6,7-Tetrachloro-2-(2-quinolinyl)-1H-indene-1,3(2H)-dione", "1H-Indene-1,3(2H)-dione, 4,5,6,7-tetrachloro-2-(2-quinolinyl)-", "1,3-Indandione, 4,5,6,7-tetrachloro-2-(2-quinolyl)-", "4,5,6,7-Tetrachloro-2-(2-quinolinyl)-1H-indene-1,3(2H)-dione"], "SMILES": "O=C1C=2C(C(=O)C1C3=NC4=C(C=C3)C=CC=C4)=C(Cl)C(Cl)=C(Cl)C2Cl", "physical_data": {"Molecular Weight": "411.07", "Molecular Formula": "C18H7Cl4NO2", "Melting Point": "&gt;350 \u00b0C"}}