{"cas_no": "27918-14-5", "cn_name": "2-\u6c28\u57fa\u5416\u5576\u916e", "en_name": ["2-Aminoacridone", "9(10H)-Acridinone, 2-amino-", "9-Acridanone, 2-amino-", "2-Amino-9(10H)-acridinone", "2-Aminoacridone", "2-Amino-9-acridone", "2-Amino-9,10-dihydroacridin-9-one", "2-Amino-10H-acridin-9-one"], "SMILES": "O=C1C=2C(NC=3C1=CC=CC3)=CC=C(N)C2", "physical_data": {"Molecular Weight": "210.23", "Molecular Formula": "C13H10N2O", "Melting Point": "301-303 \u00b0C"}}