{"cas_no": "27912-14-7", "cn_name": "\u76d0\u9178\u5de6\u5e03\u8bfa\u6d1b\u5c14", "en_name": ["Levobunolol hydrochloride", "1(2H)-Naphthalenone, 5-[(2S)-3-[(1,1-dimethylethyl)amino]-2-hydroxypropoxy]-3,4-dihydro-, hydrochloride (1:1)", "1(2H)-Naphthalenone, 5-[3-(tert-butylamino)-2-hydroxypropoxy]-3,4-dihydro-, hydrochloride, (-)-", "1(2H)-Naphthalenone, 5-[3-[(1,1-dimethylethyl)amino]-2-hydroxypropoxy]-3,4-dihydro-, hydrochloride, (S)-", "1(2H)-Naphthalenone, 5-[(2S)-3-[(1,1-dimethylethyl)amino]-2-hydroxypropoxy]-3,4-dihydro-, hydrochloride", "l-Bunolol hydrochloride", "Levobunolol hydrochloride", "W 7000A", "Betagan", "AG 901", "Gotensin", "Vitagan", "(S)-5-(3-(tert-Butylamino)-2-hydroxypropoxy)-3,4-dihydronaphthalen-1(2H)-one hydrochloride"], "SMILES": "O(CC(CNC(C)(C)C)O)C1=C2C(=CC=C1)C(=O)CCC2.Cl", "physical_data": {"Molecular Weight": "", "Molecular Formula": "C17H25NO3.ClH", "Melting Point": "209-211 \u00b0C"}}