{"cas_no": "2791-84-6", "cn_name": "L-\u8c37\u6c28\u9178\u53cc\u82c4\u916f\u5bf9\u7532\u82ef\u78fa\u9178\u76d0", "en_name": ["L-Glutamic acid, 1,5-bis(phenylmethyl) ester, 4-methylbenzenesulfonate (1:1)", "L-Glutamic acid, 1,5-bis(phenylmethyl) ester, 4-methylbenzenesulfonate (1:1)", "L-Glutamic acid, bis(phenylmethyl) ester, 4-methylbenzenesulfonate", "Glutamic acid, dibenzyl ester, p-toluenesulfonate, L-", "Glutamic acid, dibenzyl ester, p-toluenesulfonate", "L-Glutamic acid dibenzyl ester p-toluenesulfonate", "Dibenzyl L-glutamate tosylate", "L-Glutamic acid dibenzyl ester tosylate", "Dibenzyl L-glutamate p-toluenesulfonate", "H-L-Glu(Obzl)-Obzl tosylate salt"], "SMILES": "S(=O)(=O)(O)C1=CC=C(C)C=C1.C(OC(C(CCC(OCC1=CC=CC=C1)=O)N)=O)C2=CC=CC=C2", "physical_data": {"Molecular Weight": "", "Molecular Formula": "C19H21NO4.C7H8O3S", "Melting Point": "142 \u00b0C"}}