{"cas_no": "27918-31-6", "cn_name": "\u4e94\u6c1f\u82ef\u78fa\u9170\u6c2f", "en_name": ["2,3,4,5,6-Pentafluorobenzenesulfenyl chloride", "Benzenesulfenyl chloride, 2,3,4,5,6-pentafluoro-", "Benzenesulfenyl chloride, pentafluoro-", "2,3,4,5,6-Pentafluorobenzenesulfenyl chloride", "Pentafluorobenzenesulfenyl chloride", "Pentafluorophenylsulfenyl chloride", "(Chlorothio)pentafluorobenzene", "[(Pentafluorophenyl)sulfanyl]chlorane"], "SMILES": "S(Cl)C1=C(F)C(F)=C(F)C(F)=C1F", "physical_data": {"Molecular Weight": "234.57", "Molecular Formula": "C6ClF5S", "Boiling Point": "19-24 \u00b0C @ Press: 0.02 Torr"}}