{"cas_no": "27913-99-1", "cn_name": "4-(4-\u7532\u57fa\u54cc\u55ea)\u82ef\u7532\u919b", "en_name": ["4-(4-Methyl-1-piperazinyl)benzaldehyde", "Benzaldehyde, 4-(4-methyl-1-piperazinyl)-", "Benzaldehyde, p-(4-methyl-1-piperazinyl)-", "4-(4-Methyl-1-piperazinyl)benzaldehyde", "4-(4-Methylpiperazino)benzaldehyde", "4-(4-Methylpiperazin-1-yl)benzenecarboxaldehyde", "1-(4-Formylphenyl)-4-methylpiperazine"], "SMILES": "C(=O)C1=CC=C(C=C1)N2CCN(C)CC2", "physical_data": {"Molecular Weight": "204.27", "Molecular Formula": "C12H16N2O", "Melting Point": "58-60 \u00b0C"}}