{"cas_no": "27918-19-0", "cn_name": "4-\u78fa\u9170\u80fa\u57fa\u82ef\u80bc\u76d0\u9178\u76d0", "en_name": ["Benzenesulfonamide, 4-hydrazinyl-, hydrochloride (1:?)", "Benzenesulfonamide, 4-hydrazinyl-, hydrochloride (1:?)", "Benzenesulfonamide, p-hydrazino-, hydrochloride", "Benzenesulfonamide, 4-hydrazino-, hydrochloride", "Phenylhydrazine-4-sulfonamide hydrochloride", "4-Sulfonamidophenylhydrazine hydrochloride", "(4-Sulfamylphenyl)hydrazine hydrochloride", "4-Hydrazinobenzenesulfonamide hydrochloride"], "SMILES": "S(N)(=O)(=O)C1=CC=C(NN)C=C1.Cl", "physical_data": {"Molecular Weight": "", "Molecular Formula": "C6H9N3O2S.xClH", "Melting Point": "205-211 \u00b0C (decomp)"}}