{"cas_no": "2794-60-7", "cn_name": "\u94a1\u4e09\u6c1f\u7532\u70f7\u78fa\u9178\u76d0", "en_name": ["Methanesulfonic acid, 1,1,1-trifluoro-, barium salt (2:1)", "Methanesulfonic acid, 1,1,1-trifluoro-, barium salt (2:1)", "Methanesulfonic acid, trifluoro-, barium salt", "Barium bis(trifluoromethanesulfonate)", "Barium trifluoromethanesulfonate", "Barium triflate (Ba(CF3SO3)2)", "Barium triflate"], "SMILES": "C(S(=O)(=O)O)(F)(F)F.[Ba]", "physical_data": {"Molecular Weight": "", "Molecular Formula": "CHF3O3S.<sup>1</sup>/2Ba", "Melting Point": "&gt;300 \u00b0C (decomp)"}}