{"cas_no": "27958-77-6", "cn_name": "3-\u6c28\u57fa-N,N-\u4e8c\u7532\u57fa\u82c4\u80fa", "en_name": ["3-Amino-N,N-dimethylbenzenemethanamine", "Benzenemethanamine, 3-amino-N,N-dimethyl-", "Toluene-\u03b1,3-diamine, N\u03b1,N\u03b1-dimethyl-", "3-Amino-N,N-dimethylbenzenemethanamine", "3-(Dimethylaminomethyl)aniline", "[3-[(Dimethylamino)methyl]phenyl]amine", "NSC 207809"], "SMILES": "C(N(C)C)C1=CC(N)=CC=C1", "physical_data": {"Molecular Weight": "150.22", "Molecular Formula": "C9H14N2", "Boiling Point": "130 \u00b0C @ Press: 0.1 Torr", "Melting Point": "44-46 \u00b0C"}}