{"cas_no": "2795-39-3", "cn_name": "\u5168\u6c1f\u8f9b\u57fa\u78fa\u9178\u94be", "en_name": ["Potassium perfluorooctanesulfonate", "1-Octanesulfonic acid, 1,1,2,2,3,3,4,4,5,5,6,6,7,7,8,8,8-heptadecafluoro-, potassium salt (1:1)", "1-Octanesulfonic acid, 1,1,2,2,3,3,4,4,5,5,6,6,7,7,8,8,8-heptadecafluoro-, potassium salt", "1-Octanesulfonic acid, heptadecafluoro-, potassium salt", "Potassium perfluorooctanesulfonate", "Heptadecafluorooctanesulfonic acid potassium salt", "Potassium heptadecafluorooctane-1-sulfonate", "FC 95", "Fluorad FC 95", "Potassium perfluorooctylsulfonate", "Megafac F 110", "Perfluorooctanesulfonic acid potassium salt", "Megafac F 116", "F 110", "Fluortensid FT 800", "Eftop EF 102", "F 116", "Fluorad 95", "EF 102", "Potassium heptadecafluorooctanesulfonate", "LE 003", "Potassium heptadecafluorooctan-1-sulfonate", "FC 80", "FC 95 surfactant", "YF 95"], "SMILES": "C(C(C(C(C(F)(F)F)(F)F)(F)F)(F)F)(C(C(C(S(=O)(=O)O)(F)F)(F)F)(F)F)(F)F.[K]", "physical_data": {"Molecular Weight": "", "Molecular Formula": "C8HF17O3S.K", "Melting Point": "277-280 \u00b0C"}}