{"cas_no": "2797-51-5", "cn_name": "2-\u6c28\u57fa-3-\u6c2f-1,4-\u8418\u918c", "en_name": ["Quinoclamine", "1,4-Naphthalenedione, 2-amino-3-chloro-", "1,4-Naphthoquinone, 2-amino-3-chloro-", "2-Amino-3-chloro-1,4-naphthalenedione", "06K", "06K50W", "2-Amino-3-chloro-1,4-naphthoquinone", "2-Chloro-3-amino-1,4-naphthoquinone", "06K-Quinone", "ACNQ", "2-Amino-3-chloronaphthoquinone", "ACN", "3-Chloro-2-amino-1,4-naphthoquinone", "Mogeton", "Quinoclamine", "NSC 3910", "NSC 642009", "2-Amino-3-chloro-1,4-dihydronaphthalene-1,4-dione"], "SMILES": "O=C1C=2C(C(=O)C(N)=C1Cl)=CC=CC2", "physical_data": {"Molecular Weight": "207.61", "Molecular Formula": "C10H6ClNO2", "Melting Point": "199 \u00b0C"}}