{"cas_no": "27975-19-5", "cn_name": "\u5f02\u751c\u83ca\u9187", "en_name": ["Isosteviol", "17-Norkauran-18-oic acid, 13-methyl-16-oxo-, (4\u03b1,8\u03b2,13\u03b2)-", "17-Nor-8\u03b2,13\u03b2-kauran-18-oic acid, 13-methyl-16-oxo-", "Isosteviol", "(4\u03b1,8\u03b2,13\u03b2)-13-Methyl-16-oxo-17-norkauran-18-oic acid", "iso-Steviol", "Ketoisostevic acid", "(-)-Isosteviol", "NSC 231875", "1H-2,10a-Ethanophenanthrene-8-carboxylic acid, dodecahydro-2,4b,8-trimethyl-12-oxo-, (2S,4aR,4bS,8R,8aS,10aR)-"], "SMILES": "CC12C3C4(CC(C)(CC3)C(=O)C4)CCC1C(C(O)=O)(C)CCC2", "physical_data": {"Molecular Weight": "318.45", "Molecular Formula": "C20H30O3", "Melting Point": "228-230 \u00b0C"}}