{"cas_no": "2798-25-6", "cn_name": "\u96cf\u83ca\u53f6\u9f99\u80c6\u916e", "en_name": ["Bellidifolin", "9H-Xanthen-9-one, 1,5,8-trihydroxy-3-methoxy-", "Xanthen-9-one, 1,5,8-trihydroxy-3-methoxy-", "1,5,8-Trihydroxy-3-methoxy-9H-xanthen-9-one", "Bellidifolin", "Bellidifolium", "Bellidifoline", "1,5,8-Trihydroxy-3-methoxyxanthone", "Bellidifodin", "1,5,8-Trihydroxy-3-methoxyxanthen-9-one"], "SMILES": "O=C1C=2C(OC=3C1=C(O)C=CC3O)=CC(OC)=CC2O", "physical_data": {"Molecular Weight": "274.23", "Molecular Formula": "C14H10O6", "Melting Point": "270 \u00b0C"}}