{"cas_no": "2798-20-1", "cn_name": "\u6800\u5b50\u9ec4\u7d20B", "en_name": ["Gardenin B", "4H-1-Benzopyran-4-one, 5-hydroxy-6,7,8-trimethoxy-2-(4-methoxyphenyl)-", "Flavone, 5-hydroxy-4\u2032,6,7,8-tetramethoxy-", "5-Hydroxy-6,7,8-trimethoxy-2-(4-methoxyphenyl)-4H-1-benzopyran-4-one", "Gardenin B", "5-Hydroxy-4\u2032,6,7,8-tetramethoxyflavone", "Demethyltangeretin", "5-Hydroxy-6,7,8,4\u2032-tetramethoxyflavone", "5-Demethyltangeretin", "NSC 618926", "NSC 79093", "5-O-Desmethyltangeretin", "5-Desmethyltangeretin"], "SMILES": "OC1=C2C(=C(OC)C(OC)=C1OC)OC(=CC2=O)C3=CC=C(OC)C=C3", "physical_data": {"Molecular Weight": "358.34", "Molecular Formula": "C19H18O7", "Melting Point": "176-177 \u00b0C"}}