{"cas_no": "27996-87-8", "cn_name": "2-\u6c1f-5-\u785d\u57fa\u82ef\u7532\u919b", "en_name": ["2-Fluoro-5-nitrobenzaldehyde", "Benzaldehyde, 2-fluoro-5-nitro-", "2-Fluoro-5-nitrobenzaldehyde"], "SMILES": "C(=O)C1=CC(N(=O)=O)=CC=C1F", "physical_data": {"Molecular Weight": "169.11", "Molecular Formula": "C7H4FNO3", "Melting Point": "58-59 \u00b0C"}}