{"cas_no": "27992-32-1", "cn_name": "2-\u6eb4-6-\u7f9f\u57fa\u5421\u5576", "en_name": ["6-Bromo-2(1H)-pyridinone", "2(1H)-Pyridinone, 6-bromo-", "2(1H)-Pyridone, 6-bromo-", "6-Bromo-2(1H)-pyridinone", "6-Bromo-2-pyridone", "6-Bromo-2-pyridinol", "2-Hydroxy-6-bromopyridine", "6-Bromo-2-hydroxypyridine", "6-Bromo-1,2-dihydropyridin-2-one", "2-Bromo-6-hydroxypyridine", "6-Bromo-1H-pyridin-2-one"], "SMILES": "BrC=1NC(=O)C=CC1", "physical_data": {"Molecular Weight": "174.00", "Molecular Formula": "C5H4BrNO", "Melting Point": "123 \u00b0C"}}