{"cas_no": "2799-21-5", "cn_name": "(R)-3-\u5421\u54af\u70f7\u9187", "en_name": ["(-)-3-Pyrrolidinol", "3-Pyrrolidinol, (3R)-", "3-Pyrrolidinol, (R)-", "(3R)-3-Pyrrolidinol", "(R)-3-Pyrrolidinol", "(R)-3-Hydroxypyrrolidine", "3-(R)-Pyrrolidinol", "(3R)-3-Hydroxypyrrolidine", "3-(R)-Hydroxypyrrolidine", "(3R)-Pyrrolidin-3-ol", "(3R)-3-Pyrrolidinol", "(R)-(-)-3-Pyrrolidinol", "(-)-3-Pyrrolidinol"], "SMILES": "OC1CCNC1", "physical_data": {"Molecular Weight": "87.12", "Molecular Formula": "C4H9NO", "Boiling Point": "108-110 \u00b0C @ Press: 8 Torr"}}