{"cas_no": "2799-07-7", "cn_name": "S-\u4e09\u82ef\u7532\u57fa-L-\u534a\u80f1\u6c28\u9178", "en_name": ["S-Trityl-L-cysteine", "L-Cysteine, S-(triphenylmethyl)-", "Alanine, 3-(tritylthio)-, L-", "S-(Triphenylmethyl)-L-cysteine", "S-Trityl-L-cysteine", "NSC 83265", "3-Tritylthio-L-alanine", "Tritylthioalanine", "S-Tritylcysteine", "S-Trityl-(R)-cysteine", "(2R)-2-Amino-3-[(triphenylmethyl)thio]propanoic acid", "(2R)-2-Azaniumyl-3-tritylsulfanylpropanoate", "(2R)-2-Amino-3-[(triphenylmethyl)sulfanyl]propanoic acid"], "SMILES": "C(SCC(C(O)=O)N)(C1=CC=CC=C1)(C2=CC=CC=C2)C3=CC=CC=C3", "physical_data": {"Molecular Weight": "363.47", "Molecular Formula": "C22H21NO2S", "Melting Point": "182 \u00b0C (decomp)"}}