{"cas_no": "280-64-8", "cn_name": "9-\u787c\u53cc\u73af[3.3.1]\u58ec\u70f7", "en_name": ["9-Borabicyclo[3.3.1]nonane", "9-Borabicyclo[3.3.1]nonane", "9-BBN", "9-Borylbicyclo[3.3.1]nonane", "9-Borabicyclononane"], "SMILES": "C12BC(CCC1)CCC2", "physical_data": {"Molecular Weight": "122.02", "Molecular Formula": "C8H15B", "Melting Point": "140-142 \u00b0C"}}