{"cas_no": "280-57-9", "cn_name": "\u4e09\u4e59\u70ef\u4e8c\u80fa", "en_name": ["Dabco", "1,4-Diazabicyclo[2.2.2]octane", "Bicyclo[2.2.2]-1,4-diazaoctane", "N,N\u2032-endo-Ethylenepiperazine", "Triethylenediamine", "Dabco", "1,4-Ethylenepiperazine", "Dabco 33LV", "D 33LV", "Thancat TD 33", "TED", "TEDA", "Texacat TD 100", "L 33", "Niax A 33", "Tegamine 33", "Thancat TD 33A", "Texacat TD 33", "A 33", "Dabco L 1202", "Minico L 1020", "Dabco S 25", "TEDA L 33", "LC 96003", "Toral SM 2", "Dabco Crystalline", "Toyocat L 33", "Dabco 3LV", "PC CAT TD 33", "NSC 56362", "Polycat 33LV", "Tego Amine", "Jeffcat TD 100", "TD 100", "Toyocat TEDA L 33", "L 33E", "33LV", "Activator 105E", "Dabco Crystal", "LV 33", "Kaolizer 31", "PC-TD", "AE 33", "Tegoamin 33", "S 25", "TEDA-L 33B", "Dabco A 33", "PT 301", "PT 301 (catalyst)", "A 33LV", "Catalyst A 33", "TEDA 33P", "33LSI", "Lupragen N 201", "Dabco H 1010", "Amicure TEDA", "S 33", "Dabco D 0134", "Dabco 33", "PUR 812", "Dabco 33S", "TEDA-L 25B", "TEDA 33", "Dabco LV 33", "A 98 (amine)", "A 98", "A 300 (diamine)", "Dabco 33LX", "33LX"], "SMILES": "N12CCN(CC1)CC2", "physical_data": {"Molecular Weight": "112.17", "Molecular Formula": "C6H12N2", "Boiling Point": "174 \u00b0C", "Melting Point": "158 \u00b0C", "Density": "1.14 g/cm\u00b3 @ Temp: 28 \u00b0C"}}