{"cas_no": "2800-96-6", "cn_name": "\u918b\u9178\u9521", "en_name": ["Tin tetraacetate", "Acetic acid, tin(4+) salt", "Tin acetate (Sn(OAc)4)", "Tin acetate", "Tin(IV) acetate", "Tin tetraacetate", "Stannic acetate"], "SMILES": "C(C)(O)=O.[Sn]", "physical_data": {"Molecular Weight": "", "Molecular Formula": "C2H4O2.<sup>1</sup>/4Sn", "Melting Point": "232-233 \u00b0C"}}