{"cas_no": "28004-62-8", "cn_name": "2-\u6c28\u57fa-5-(4-\u6c2f\u82ef\u57fa)-1,3,4-\u567b\u4e8c\u5511", "en_name": ["5-(4-Chlorophenyl)-1,3,4-thiadiazol-2-amine", "1,3,4-Thiadiazol-2-amine, 5-(4-chlorophenyl)-", "1,3,4-Thiadiazole, 2-amino-5-(p-chlorophenyl)-", "5-(4-Chlorophenyl)-1,3,4-thiadiazol-2-amine", "2-(p-Chlorophenyl)-5-amino-1,3,4-thiadiazole", "2-Amino-5-(4-chlorophenyl)-1,3,4-thiadiazole"], "SMILES": "NC=1SC(C2=CC=C(Cl)C=C2)=NN1", "physical_data": {"Molecular Weight": "211.67", "Molecular Formula": "C8H6ClN3S", "Melting Point": "230 \u00b0C (decomp)"}}