{"cas_no": "28004-63-9", "cn_name": "2-\u6c28\u57fa-5-(2,4-\u4e8c\u6c2f\u82ef\u57fa)-1,3,4-\u567b\u4e8c\u5511", "en_name": ["5-(2,4-Dichlorophenyl)-1,3,4-thiadiazol-2-amine", "1,3,4-Thiadiazol-2-amine, 5-(2,4-dichlorophenyl)-", "1,3,4-Thiadiazole, 2-amino-5-(2,4-dichlorophenyl)-", "5-(2,4-Dichlorophenyl)-1,3,4-thiadiazol-2-amine", "2-Amino-5-(2,4-dichlorophenyl)-(1,3,4)-thiadiazole"], "SMILES": "ClC1=C(C=CC(Cl)=C1)C=2SC(N)=NN2", "physical_data": {"Molecular Weight": "246.12", "Molecular Formula": "C8H5Cl2N3S", "Melting Point": "240-242 \u00b0C"}}