{"cas_no": "2800-80-8", "cn_name": "\u6eb4\u915a\u7ea2", "en_name": ["Bromophenol red", "Phenol, 4,4\u2032-(1,1-dioxido-3H-2,1-benzoxathiol-3-ylidene)bis[2-bromo-", "Phenol, 4,4\u2032-(3H-2,1-benzoxathiol-3-ylidene)bis[2-bromo-, S,S-dioxide", "Bromophenol red", "o-Toluenesulfonic acid, \u03b1,\u03b1-bis(3-bromo-4-hydroxyphenyl)-\u03b1-hydroxy-, \u03b3-sultone", "3H-2,1-Benzoxathiole, phenol deriv.", "4,4\u2032-(1,1-Dioxido-3H-2,1-benzoxathiol-3-ylidene)bis[2-bromophenol]", "Bromphenol red"], "SMILES": "O=S1(=O)OC(C=2C1=CC=CC2)(C3=CC(Br)=C(O)C=C3)C4=CC(Br)=C(O)C=C4", "physical_data": {"Molecular Weight": "512.17", "Molecular Formula": "C19H12Br2O5S", "Melting Point": "230 \u00b0C"}}