{"cas_no": "2801-29-8", "cn_name": "4-\u7532\u57fa-5-\u785d\u57fa\u55b9\u5549 4-\u7532\u57fa-8-\u785d\u57fa\u55b9\u5549", "en_name": ["4-Methyl-8-nitroquinoline", "Quinoline, 4-methyl-8-nitro-", "Lepidine, 8-nitro-", "4-Methyl-8-nitroquinoline", "8-Nitrolepidine", "NSC 120755"], "SMILES": "N(=O)(=O)C=1C2=C(C(C)=CC=N2)C=CC1", "physical_data": {"Molecular Weight": "188.18", "Molecular Formula": "C10H8N2O2", "Melting Point": "125-126 \u00b0C"}}