{"cas_no": "28027-17-0", "cn_name": "4-\u7f9f\u57fa-7-\u7532\u6c27\u57fa\u55b9\u5549-3-\u7fa7\u57fa \u9178", "en_name": ["4-Hydroxy-7-methoxy-3-quinolinecarboxylic acid", "3-Quinolinecarboxylic acid, 4-hydroxy-7-methoxy-", "4-Hydroxy-7-methoxy-3-quinolinecarboxylic acid", "7-Methoxy-4-hydroxyquinoline-3-carboxylic acid", "NSC 86135"], "SMILES": "OC=1C2=C(C=C(OC)C=C2)N=CC1C(O)=O", "physical_data": {"Molecular Weight": "219.19", "Molecular Formula": "C11H9NO4", "Melting Point": "257-260 \u00b0C"}}