{"cas_no": "28024-69-3", "cn_name": "DL-\u73af\u4e01\u57fa\u7518\u6c28\u9178", "en_name": ["\u03b1-Aminocyclobutaneacetic acid", "Cyclobutaneacetic acid, \u03b1-amino-", "Cyclobutaneacetic acid, \u03b1-amino-, (\u00b1)-", "\u03b1-Aminocyclobutaneacetic acid", "DL-\u03b1-Cyclobutylglycine", "DL-Cyclobutaneglycine", "\u03b1-Cyclobutylglycine", "2-Amino-2-cyclobutylacetic acid"], "SMILES": "C(C(O)=O)(N)C1CCC1", "physical_data": {"Molecular Weight": "129.16", "Molecular Formula": "C6H11NO2", "Melting Point": "240 \u00b0C (decomp)"}}