{"cas_no": "28026-96-2", "cn_name": "3,5-\u4e8c\u7f9f\u57fa-4-\u7532\u57fa\u82ef\u7532\u9178", "en_name": ["3,5-Dihydroxy-4-methylbenzoic acid", "Benzoic acid, 3,5-dihydroxy-4-methyl-", "\u03b1-Resorcylic acid, 4-methyl-", "3,5-Dihydroxy-4-methylbenzoic acid", "2-Methyl-5-carboxyresorcinol", "3,5-Dihydroxy-p-toluic acid", "4-Methyl-3,5-dihydroxybenzoic acid"], "SMILES": "C(O)(=O)C1=CC(O)=C(C)C(O)=C1", "physical_data": {"Molecular Weight": "168.15", "Molecular Formula": "C8H8O4", "Melting Point": "262 \u00b0C"}}