{"cas_no": "28034-99-3", "cn_name": "4-\u6c2f\u8054\u82ef\u57fa-4-\u9187", "en_name": ["4\u2032-Chloro-4-biphenylol", "[1,1\u2032-Biphenyl]-4-ol, 4\u2032-chloro-", "4-Biphenylol, 4\u2032-chloro-", "Phenol, p-(p-chlorophenyl)-", "4\u2032-Chloro[1,1\u2032-biphenyl]-4-ol", "p-Chloro-p\u2032-hydroxybiphenyl", "4-(4-Chlorophenyl)phenol", "4-Chloro-4\u2032-hydroxybiphenyl", "4\u2032-Chloro-4-biphenylol", "4\u2032-Hydroxy-4-chlorobiphenyl", "4-Hydroxy-4\u2032-chlorobiphenyl", "4-(4\u2032-Chlorophenyl)phenol", "4-Chloro-4\u2032-biphenylol"], "SMILES": "ClC1=CC=C(C=C1)C2=CC=C(O)C=C2", "physical_data": {"Molecular Weight": "204.65", "Molecular Formula": "C12H9ClO", "Melting Point": "146-147 \u00b0C"}}