{"cas_no": "28049-61-8", "cn_name": "1-(4-\u6c2f\u82ef\u57fa)-1-\u6c30\u57fa\u73af\u4e01\u70f7", "en_name": ["1-(4-Chlorophenyl)cyclobutanecarbonitrile", "Cyclobutanecarbonitrile, 1-(4-chlorophenyl)-", "Cyclobutanecarbonitrile, 1-(p-chlorophenyl)-", "1-(4-Chlorophenyl)cyclobutanecarbonitrile", "1-(p-Chlorophenyl)cyclobutanecarbonitrile", "NSC 154613", "1-(4-Chlorophenyl)cyclobutane-1-carbonitrile", "1-(4-Chlorophenyl)-1-cyclobutanecarbonitrile"], "SMILES": "C(#N)C1(CCC1)C2=CC=C(Cl)C=C2", "physical_data": {"Molecular Weight": "191.66", "Molecular Formula": "C11H10ClN", "Boiling Point": "110-112 \u00b0C @ Press: 0.5 Torr"}}