{"cas_no": "28047-15-6", "cn_name": "2 - [[2 - (4 -\u7f9f\u57fa\u82ef\u57fa)\u4e59\u9170\u57fa]\u6c28\u57fa]\u620a\u4e8c\u9178", "en_name": ["Phenylacetylglutamine", "L-Glutamine, N2-(2-phenylacetyl)-", "Glutamine, N2-(phenylacetyl)-, L-", "L-Glutamine, N2-(phenylacetyl)-", "N2-(2-Phenylacetyl)-L-glutamine", "Phenylacetylglutamine", "Phenylacetyl-L-glutamine", "N-Phenylacetylglutamine", "N2-(Phenylacetyl)-L-glutamine", "NSC 203800", "(S)-5-Amino-5-oxo-2-(2-phenylacetamido)pentanoicacid", "(S)-5-Amino-5-oxo-2-(2-phenylacetamido)pentanoic acid", "(2S)-4-Carbamoyl-2-(2-phenylacetamido)butanoic acid"], "SMILES": "C(NC(CC1=CC=CC=C1)=O)(CCC(N)=O)C(O)=O", "physical_data": {"Molecular Weight": "264.28", "Molecular Formula": "C13H16N2O4", "Melting Point": "100 \u00b0C"}}