{"cas_no": "2804-50-4", "cn_name": "2-CHLOROPENTAFLUOROPROPENE", "en_name": ["2-Chloro-1,1,3,3,3-pentafluoropropene", "1-Propene, 2-chloro-1,1,3,3,3-pentafluoro-", "Propene, 2-chloropentafluoro-", "Propene, 2-chloro-1,1,3,3,3-pentafluoro-", "2-Chloro-1,1,3,3,3-pentafluoro-1-propene", "2-Chloropentafluoro-1-propene", "2-Chloropentafluoropropene", "2-Chloroperfluoropropene", "2-Chloro-1,1,3,3,3-pentafluoropropene", "CFC 1215xc"], "SMILES": "C(C(F)(F)F)(=C(F)F)Cl", "physical_data": {"Molecular Weight": "166.48", "Molecular Formula": "C3ClF5", "Boiling Point": "6.8 \u00b0C", "Melting Point": "-130 \u00b0C"}}