{"cas_no": "28052-84-8", "cn_name": "DL-5-\u7532\u6c27\u57fa\u8272\u6c28\u9178", "en_name": ["5-Methoxy-DL-tryptophan", "Tryptophan, 5-methoxy-", "Tryptophan, 5-methoxy-, DL-", "DL-Tryptophan, 5-methoxy-", "5-Methoxytryptophan", "dl-5-Methoxytryptophan", "5-Methoxy-DL-tryptophan", "DL-5-Methoxytryptophan", "2-Amino-3-(5-methoxy-1H-indol-3-yl)propanoicacid", "2-Azaniumyl-3-(5-methoxy-1H-indol-3-yl)propanoate", "2-Amino-3-(5-methoxy-1H-indol-3-yl)propanoic acid"], "SMILES": "C(C(C(O)=O)N)C=1C=2C(NC1)=CC=C(OC)C2", "physical_data": {"Molecular Weight": "234.25", "Molecular Formula": "C12H14N2O3", "Melting Point": "238-240 \u00b0C (decomp)"}}