{"cas_no": "28059-64-5", "cn_name": "\u90bb\u82c4\u57fa\u82ef\u80fa", "en_name": ["2-Benzylaniline", "Benzenamine, 2-(phenylmethyl)-", "o-Toluidine, \u03b1-phenyl-", "2-(Phenylmethyl)benzenamine", "o-Benzylaniline", "o-Aminodiphenylmethane", "2-Benzylaniline", "(2-Aminophenyl)phenylmethane", "2-Benzylbenzenamine"], "SMILES": "C(C1=C(N)C=CC=C1)C2=CC=CC=C2", "physical_data": {"Molecular Weight": "183.25", "Molecular Formula": "C13H13N", "Boiling Point": "190-191 \u00b0C @ Press: 22 Torr", "Melting Point": "52 \u00b0C"}}