{"cas_no": "280582-25-4", "cn_name": "2,4-\u4e8c\u6c2f-5-\u4e59\u6c27\u57fa\u5627\u5576", "en_name": ["2,4-Dichloro-5-ethoxypyrimidine", "Pyrimidine, 2,4-dichloro-5-ethoxy-", "2,4-Dichloro-5-ethoxypyrimidine"], "SMILES": "O(CC)C=1C(Cl)=NC(Cl)=NC1", "physical_data": {"Molecular Weight": "193.03", "Molecular Formula": "C6H6Cl2N2O", "Melting Point": "41-42 \u00b0C"}}