{"cas_no": "28075-29-8", "cn_name": "N-\u7532\u57fa-3,3-\u4e8c\u82ef\u57fa\u4e19\u80fa", "en_name": ["N-Methyl-\u03b3-phenylbenzenepropanamine", "Benzenepropanamine, N-methyl-\u03b3-phenyl-", "Propylamine, N-methyl-3,3-diphenyl-", "N-Methyl-\u03b3-phenylbenzenepropanamine", "N-Methyl-3,3-diphenylpropylamine", "(3,3-Diphenylpropyl)methylamine"], "SMILES": "C(CCNC)(C1=CC=CC=C1)C2=CC=CC=C2", "physical_data": {"Molecular Weight": "225.33", "Molecular Formula": "C16H19N", "Boiling Point": "178 \u00b0C @ Press: 10 Torr"}}