{"cas_no": "28079-04-1", "cn_name": "\u68a8\u5c0f\u98df\u5fc3\u866b\u4fe1\u606f\u7d20", "en_name": ["(Z)-8-Dodecenyl acetate", "8-Dodecen-1-ol, 1-acetate, (8Z)-", "8-Dodecen-1-ol, acetate, (Z)-", "8-Dodecen-1-ol, acetate, (8Z)-", "cis-8-Dodecenyl acetate", "cis-8-Dodecen-1-yl acetate", "Orfamone", "(Z)-8-Dodecen-1-ol acetate", "Funemone", "(Z)-8-Dodecen-1-yl acetate", "GM", "Denacil", "(Z)-8-Dodecenyl acetate", "(Z)-8-Dodecen-1-yl acetate", "(8Z)-Dodec-8-en-1-ol acetate", "(Z)-8-Dodecenyl acetate"], "SMILES": "C(CCCC=CCCC)CCCOC(C)=O", "physical_data": {"Molecular Weight": "226.35", "Molecular Formula": "C14H26O2", "Boiling Point": "102-103 \u00b0C @ Press: 2 Torr"}}