{"cas_no": "280773-16-2", "cn_name": "N-(5-\u6c2f-2-\u5421\u5576\u57fa)-5-\u7532\u6c27\u57fa-2-\u785d\u57fa\u82ef\u7532\u9170\u80fa", "en_name": ["N-(5-Chloro-2-pyridinyl)-5-methoxy-2-nitrobenzamide", "Benzamide, N-(5-chloro-2-pyridinyl)-5-methoxy-2-nitro-", "N-(5-Chloro-2-pyridinyl)-5-methoxy-2-nitrobenzamide"], "SMILES": "C(NC1=CC=C(Cl)C=N1)(=O)C2=C(N(=O)=O)C=CC(OC)=C2", "physical_data": {"Molecular Weight": "307.69", "Molecular Formula": "C13H10ClN3O4", "Melting Point": "155-158 \u00b0C"}}