{"cas_no": "2807-30-9", "cn_name": "\u4e59\u4e8c\u9187\u5355\u6b63\u4e19\u919a", "en_name": ["Glycol monopropyl ether", "Ethanol, 2-propoxy-", "2-Propoxyethanol", "Ethylene glycol monopropyl ether", "Ethylene glycol mono-n-propyl ether", "Propyl cellosolve", "Propoxyethanol", "Propyl glycol", "2-(Propyloxy)ethanol", "Ethylene glycol propyl ether", "Ektasolve EP", "2-Propoxy-1-ethanol", "Glycol monopropyl ether", "2-Hydroxyethyl propyl ether"], "SMILES": "O(CCC)CCO", "physical_data": {"Molecular Weight": "104.15", "Molecular Formula": "C5H12O2", "Boiling Point": "150-152 \u00b0C @ Press: 760 Torr", "Melting Point": "-90 \u00b0C", "Density": "0.9112 g/cm\u00b3 @ Temp: 20 \u00b0C"}}