{"cas_no": "280773-17-3", "cn_name": "N-(5-\u6c2f-2-\u5421\u5576)-5-\u7532\u6c27\u57fa-2-\u6c28\u57fa\u82ef\u7532\u9170\u80fa", "en_name": ["2-Amino-N-(5-chloro-2-pyridinyl)-5-methoxybenzamide", "Benzamide, 2-amino-N-(5-chloro-2-pyridinyl)-5-methoxy-", "2-Amino-N-(5-chloro-2-pyridinyl)-5-methoxybenzamide"], "SMILES": "C(NC1=CC=C(Cl)C=N1)(=O)C2=CC(OC)=CC=C2N", "physical_data": {"Molecular Weight": "277.71", "Molecular Formula": "C13H12ClN3O2", "Melting Point": "69-71 \u00b0C"}}