{"cas_no": "280744-09-4", "cn_name": "SB216763", "en_name": ["3-(2,4-Dichlorophenyl)-4-(1-methyl-1H-indol-3-yl)-1H-pyrrole-2,5-dione", "1H-Pyrrole-2,5-dione, 3-(2,4-dichlorophenyl)-4-(1-methyl-1H-indol-3-yl)-", "3-(2,4-Dichlorophenyl)-4-(1-methyl-1H-indol-3-yl)-1H-pyrrole-2,5-dione", "SB 216763"], "SMILES": "O=C1C(C=2C=3C(N(C)C2)=CC=CC3)=C(C(=O)N1)C4=C(Cl)C=C(Cl)C=C4", "physical_data": {"Molecular Weight": "371.22", "Molecular Formula": "C19H12Cl2N2O2", "Melting Point": "102-104 \u00b0C"}}