{"cas_no": "2808-86-8", "cn_name": "2,3,4 ,5-\u56db\u6c2f\u5421\u5576", "en_name": ["2,3,4,5-Tetrachloropyridine", "Pyridine, 2,3,4,5-tetrachloro-", "2,3,4,5-Tetrachloropyridine"], "SMILES": "ClC=1C(Cl)=C(Cl)N=CC1Cl", "physical_data": {"Molecular Weight": "216.88", "Molecular Formula": "C5HCl4N", "Boiling Point": "98-100 \u00b0C @ Press: 6 Torr", "Melting Point": "20-22 \u00b0C (sublm)"}}