{"cas_no": "28084-48-2", "cn_name": "4-\u7f9f\u82ef\u7532\u9178-4-\u7f9f\u57fa\u82ef\u916f", "en_name": ["Benzoic acid, 4-hydroxy-, 4-hydroxyphenyl ester", "Benzoic acid, 4-hydroxy-, 4-hydroxyphenyl ester", "Benzoic acid, p-hydroxy-, p-hydroxyphenyl ester", "Hydroquinone, mono(p-hydroxybenzoate)", "4-Hydroxyphenyl 4-hydroxybenzoate", "4-Hydroxyphenyl p-hydroxybenzoate"], "SMILES": "C(OC1=CC=C(O)C=C1)(=O)C2=CC=C(O)C=C2", "physical_data": {"Molecular Weight": "230.22", "Molecular Formula": "C13H10O4", "Melting Point": "245-247 \u00b0C"}}