{"cas_no": "2809-67-8", "cn_name": "2-\u8f9b\u7094", "en_name": ["2-Octyne", "2-Octyne", "Methylpentylacetylene"], "SMILES": "C(CC#CC)CCC", "physical_data": {"Molecular Weight": "110.20", "Molecular Formula": "C8H14", "Boiling Point": "137.6 \u00b0C", "Melting Point": "-61.6 \u00b0C", "Density": "0.7596 g/cm\u00b3 @ Temp: 20 \u00b0C"}}