{"cas_no": "2809-69-0", "cn_name": "2,4-\u5df1\u4e8c\u7094", "en_name": ["2,4-Hexadiyne", "2,4-Hexadiyne", "Dimethyldiacetylene", "Dimethylbutadiyne"], "SMILES": "C(C#CC)#CC", "physical_data": {"Molecular Weight": "78.11", "Molecular Formula": "C6H6", "Boiling Point": "129.5 \u00b0C", "Melting Point": "67.8 \u00b0C"}}