{"cas_no": "281-23-2", "cn_name": "\u91d1\u521a\u70f7", "en_name": ["Adamantane", "Tricyclo[3.3.1.13,7]decane", "Adamantane", "NSC 527913", "A 0696", "MeSH ID: D000218"], "SMILES": "C12CC3CC(C1)CC(C2)C3", "physical_data": {"Molecular Weight": "136.23", "Molecular Formula": "C10H16", "Melting Point": "205 \u00b0C", "Density": "1.07 g/cm\u00b3"}}