{"cas_no": "28108-99-8", "cn_name": "\u78f7\u9178\u5f02\u4e19\u57fa\u82ef\u4e8c\u82ef\u916f", "en_name": ["Isopropylphenyl diphenyl phosphate", "Phosphoric acid, (1-methylethyl)phenyl diphenyl ester", "Isopropylphenyl diphenyl phosphate", "Diphenyl isopropylphenyl phosphate", "Phosflex 31L", "IPPP", "Monoisopropyltriphenyl phosphate", "Cumyl diphenyl phosphate", "mITP"], "SMILES": "", "physical_data": {"Molecular Weight": "", "Molecular Formula": "C21H21O4P", "Boiling Point": "220-230 \u00b0C"}}