{"cas_no": "2810-04-0", "cn_name": "2-\u567b\u5429\u7fa7\u9178\u4e59\u916f", "en_name": ["Ethyl 2-thiophenecarboxylate", "2-Thiophenecarboxylic acid, ethyl ester", "Ethyl 2-thiophenecarboxylate", "Ethyl 2-thenoate", "2-(Ethoxycarbonyl)thiophene", "2-Thienylcarboxylic acid ethyl ester", "NSC 39455", "Ethyl thiophen-2-carboxylate"], "SMILES": "C(OCC)(=O)C1=CC=CS1", "physical_data": {"Molecular Weight": "156.20", "Molecular Formula": "C7H8O2S", "Boiling Point": "218 \u00b0C"}}