{"cas_no": "2812-32-0", "cn_name": "N,N-\u4e8c\u7532\u57fa-L-\u7f2c\u6c28\u9178", "en_name": ["N,N-Dimethyl-L-valine", "L-Valine, N,N-dimethyl-", "Valine, N,N-dimethyl-, L-", "Valine, N,N-dimethyl-", "N,N-Dimethyl-L-valine", "(2S)-2-(Dimethylazaniumyl)-3-methylbutanoate", "(2S)-2-(Dimethylamino)-3-methylbutanoic acid"], "SMILES": "C(C(C)C)(C(O)=O)N(C)C", "physical_data": {"Molecular Weight": "145.20", "Molecular Formula": "C7H15NO2", "Melting Point": "154 \u00b0C"}}