{"cas_no": "28123-73-1", "cn_name": "5-(4-\u785d\u57fa\u82ef\u57fa)-2-\u544b\u5583\u9178", "en_name": ["5-(4-Nitrophenyl)-2-furancarboxylic acid", "2-Furancarboxylic acid, 5-(4-nitrophenyl)-", "2-Furoic acid, 5-(p-nitrophenyl)-", "5-(4-Nitrophenyl)-2-furancarboxylic acid", "5-(p-Nitrophenyl)-2-furancarboxylic acid", "5-(p-Nitrophenyl)-2-furoic acid", "5-(4-Nitrophenyl)-2-furoic acid"], "SMILES": "C(O)(=O)C=1OC(=CC1)C2=CC=C(N(=O)=O)C=C2", "physical_data": {"Molecular Weight": "233.18", "Molecular Formula": "C11H7NO5", "Melting Point": "246-247 \u00b0C"}}