{"cas_no": "2813-95-8", "cn_name": "\u918b\u9178-2-\u53e6\u4e01\u57fa-4\uff0c6-\u4e8c\u785d\u57fa\u82ef\u916f", "en_name": ["Dinoseb acetate", "Phenol, 2-(1-methylpropyl)-4,6-dinitro-, 1-acetate", "Phenol, 2-sec-butyl-4,6-dinitro-, acetate (ester)", "Phenol, 2-(1-methylpropyl)-4,6-dinitro-, acetate (ester)", "Phenol, 2-sec-butyl-4,6-dinitro-, acetate", "4,6-Dinitro-2-sec-butylphenyl acetate", "2-(1-Methylpropyl)-4,6-dinitrophenyl acetate", "Aretit", "Dinoseb acetate", "4,6-Dinitro-2-sec-butyl-phenolacetate", "2,4-Dinitro-6-sec-butylphenyl acetate", "2-sec-Butyl-4,6-dinitrophenyl acetate", "Ivosit"], "SMILES": "O(C(C)=O)C1=C(C(CC)C)C=C(N(=O)=O)C=C1N(=O)=O", "physical_data": {"Molecular Weight": "282.25", "Molecular Formula": "C12H14N2O6", "Boiling Point": "170 \u00b0C @ Press: 4.0 Torr", "Melting Point": "26 \u00b0C"}}