{"cas_no": "28140-60-5", "cn_name": "\u76d0\u9178-N-(3-\u82ef\u6c28\u57fa-2-\u4e19\u70ef\u4e9a\u57fa)\u82ef\u80fa", "en_name": ["Benzenamine, N-[3-(phenylamino)-2-propen-1-ylidene]-, hydrochloride (1:1)", "Benzenamine, N-[3-(phenylamino)-2-propen-1-ylidene]-, hydrochloride (1:1)", "Aniline, N,N\u2032-1-propen-1-yl-3-ylidenedi-, monohydrochloride", "Benzenamine, N-[3-(phenylamino)-2-propenylidene]-, monohydrochloride", "Aniline, N,N\u2032-1-propen-1-yl-3-ylidenedi-, hydrochloride", "\u03b2-Anilinoacrolein anil monohydrochloride", "N-(3-Anilino-2-propenylidene)aniline monohydrochloride", "Malonaldehyde dianylide hydrochloride"], "SMILES": "N(C=CC=NC1=CC=CC=C1)C2=CC=CC=C2.Cl", "physical_data": {"Molecular Weight": "", "Molecular Formula": "C15H14N2.ClH", "Melting Point": "210 \u00b0C"}}