{"cas_no": "2814-20-2", "cn_name": "2-\u5f02\u4e19\u57fa-6-\u7532\u57fa-4-\u5421\u5576\u9187", "en_name": ["2-Isopropyl-6-methyl-4-pyrimidinol", "4(3H)-Pyrimidinone, 6-methyl-2-(1-methylethyl)-", "4(1H)-Pyrimidinone, 6-methyl-2-(1-methylethyl)-", "4(1H)-Pyrimidinone, 2-isopropyl-6-methyl-", "4-Pyrimidinol, 2-isopropyl-6-methyl-", "6-Methyl-2-(1-methylethyl)-4(3H)-pyrimidinone", "IMHP", "2-Isopropyl-4-methyl-6-hydroxypyrimidine", "2-Isopropyl-4-methylpyrimidin-6-ol", "2-Isopropyl-6-methyl-4-hydroxypyrimidine", "G 27550", "2-Isopropyl-6-methyl-4(3H)-pyrimidone", "2-Isopropyl-6-methyl-4-pyrimidinol", "2-Isopropyl-6-methyl-4-pyrimidone", "Pyrimidinol", "4-Hydroxy-2-isopropyl-6-methylpyrimidine", "2-Isopropyl-4-methyl-6-pyrimidinone", "2-Isopropyl-4-hydroxy-6-methylpyrimidine"], "SMILES": "C(C)(C)C=1NC(C)=CC(=O)N1", "physical_data": {"Molecular Weight": "152.19", "Molecular Formula": "C8H12N2O", "Melting Point": "170-172 \u00b0C"}}