{"cas_no": "2815-95-4", "cn_name": "3-[3,4-(\u4e9a\u7532\u4e8c\u6c27\u57fa)\u82ef\u57fa]\u4e19\u9178", "en_name": ["1,3-Benzodioxole-5-propanoic acid", "1,3-Benzodioxole-5-propanoic acid", "Hydrocinnamic acid, 3,4-(methylenedioxy)-", "3-(3,4-Methylenedioxyphenyl)propionic acid", "3,4-(Methylenedioxy)hydrocinnamic acid", "1,3-Benzodioxole-5-propionic acid", "NSC 55524", "3,4-Methylenedioxydihydrocinnamic acid", "3-[Benzo[1,3]dioxol-5-yl]propionic acid", "3-(Benzodioxol-5-yl)propionic acid", "3-(Benzo[d][1,3]dioxol-5-yl)propanoic acid", "3-(1,3-Benzodioxol-5-yl)propanoic acid", "3-(1,3-Dioxaindan-5-yl)propanoic acid", "trans-3-(1,3-Benzodioxol-5-yl)propanoic acid"], "SMILES": "C(CC(O)=O)C=1C=C2C(=CC1)OCO2", "physical_data": {"Molecular Weight": "194.18", "Molecular Formula": "C10H10O4", "Melting Point": "81-85 \u00b0C"}}