{"cas_no": "28165-50-6", "cn_name": "2-\u6c28\u57fa-6-\u6eb4\u82ef\u915a", "en_name": ["2-Amino-6-bromophenol", "Phenol, 2-amino-6-bromo-", "2-Amino-6-bromophenol", "2-Bromo-6-aminophenol"], "SMILES": "OC1=C(Br)C=CC=C1N", "physical_data": {"Molecular Weight": "188.02", "Molecular Formula": "C6H6BrNO", "Melting Point": "84-86 \u00b0C"}}