{"cas_no": "28169-46-2", "cn_name": "3,5-\u4e8c\u785d\u57fa-2-\u7532\u57fa\u82ef\u7532\u9178", "en_name": ["2-Methyl-3,5-dinitrobenzoic acid", "Benzoic acid, 2-methyl-3,5-dinitro-", "o-Toluic acid, 3,5-dinitro-", "2-Methyl-3,5-dinitrobenzoic acid", "3,5-Dinitro-o-toluic acid", "NSC 168527", "3,5-Dinitro-2-methylbenzoic acid"], "SMILES": "C(O)(=O)C1=C(C)C(N(=O)=O)=CC(N(=O)=O)=C1", "physical_data": {"Molecular Weight": "226.14", "Molecular Formula": "C8H6N2O6", "Melting Point": "205-206 \u00b0C"}}