{"cas_no": "28162-32-5", "cn_name": "(2-\u567b\u5429\u4e9a\u7532\u57fa)\u7532\u70f7-1,1-\u4e8c\u7532\u8148", "en_name": ["2-(2-Thienylmethylene)propanedinitrile", "Propanedinitrile, 2-(2-thienylmethylene)-", "Malononitrile, (2-thenylidene)-", "Propanedinitrile, (2-thienylmethylene)-", "Thiophene, 2-(2,2-dicyanovinyl)-", "2-(2-Thienylmethylene)propanedinitrile", "(2-Thienylmethylene)propanedinitrile", "NSC 506471", "NSC 659144", "1,1-Dicyano-2-(thien-2-yl)ethene", "2-[(Thiophen-2-yl)methylene]malononitrile", "(2-Thienylmethylene)malononitrile", "2-(Thiophen-2-yl)malononitrile", "2-[(2-Thienyl)methylene]malononitrile", "(2-Thienylmethylene)methane-1,1-dicarbonitrile", "2-[(Thiophen-2-yl)methylidene]propanedinitrile", "2-(Thiophen-2-ylmethylidene)propanedinitrile"], "SMILES": "C(=C(C#N)C#N)C1=CC=CS1", "physical_data": {"Molecular Weight": "160.20", "Molecular Formula": "C8H4N2S", "Melting Point": "86 \u00b0C"}}