{"cas_no": "28166-41-8", "cn_name": "2-\u6c30\u57fa-4-\u7f9f\u57fa", "en_name": ["\u03b1-Cyano-4-hydroxycinnamic acid", "2-Propenoic acid, 2-cyano-3-(4-hydroxyphenyl)-", "Cinnamic acid, \u03b1-cyano-p-hydroxy-", "2-Cyano-3-(4-hydroxyphenyl)-2-propenoic acid", "\u03b1-Cyano-4-hydroxycinnamic acid", "4-Hydroxy-\u03b1-cyanocinnamic acid", "NSC 173138"], "SMILES": "C(=C(C(O)=O)C#N)C1=CC=C(O)C=C1", "physical_data": {"Molecular Weight": "189.17", "Molecular Formula": "C10H7NO3", "Melting Point": "244 \u00b0C"}}