{"cas_no": "2816-24-2", "cn_name": "2-\u785d\u57fa\u82ef\u57fa-BETA-D-\u8461\u8404\u7cd6\u82f7", "en_name": ["2-Nitrophenyl \u03b2-D-glucopyranoside", "\u03b2-D-Glucopyranoside, 2-nitrophenyl", "Glucopyranoside, o-nitrophenyl, \u03b2-D-", "2-Nitrophenyl \u03b2-D-glucopyranoside", "o-Nitrophenyl \u03b2-glucoside", "o-Nitrophenyl \u03b2-D-glucopyranoside", "2-Nitrophenyl \u03b2-D-glucoside", "o-Nitrophenyl \u03b2-D-glucoside", "NSC 1947"], "SMILES": "O(C1OC(CO)C(O)C(O)C1O)C2=C(N(=O)=O)C=CC=C2", "physical_data": {"Molecular Weight": "301.25", "Molecular Formula": "C12H15NO8", "Melting Point": "140-141 \u00b0C"}}