{"cas_no": "2816-43-5", "cn_name": "\u4e09\u82ef\u57fa\u6c22\u5316\u9517", "en_name": ["Triphenylgermane", "Germane, triphenyl-", "Triphenylgermane", "Triphenylgermanium hydride", "Triphenylgermanyl hydride", "NSC 170049"], "SMILES": "[GeH](C1=CC=CC=C1)(C2=CC=CC=C2)C3=CC=CC=C3", "physical_data": {"Molecular Weight": "304.96", "Molecular Formula": "C18H16Ge", "Boiling Point": "128-129 \u00b0C @ Press: 0.03 Torr", "Melting Point": "41-43 \u00b0C"}}