{"cas_no": "2816-12-8", "cn_name": "4-\u5f02\u4e19\u57fa\u5641\u5511\u70f7-2,5-\u4e8c\u916e", "en_name": ["DL-Valine N-carboxy anhydride", "2,5-Oxazolidinedione, 4-(1-methylethyl)-", "2,5-Oxazolidinedione, 4-isopropyl-", "4-(1-Methylethyl)-2,5-oxazolidinedione", "Valine, N-carboxy-, cyclic anhydride", "DL-Valine N-carboxy anhydride"], "SMILES": "C(C)(C)C1NC(=O)OC1=O", "physical_data": {"Molecular Weight": "143.14", "Molecular Formula": "C6H9NO3", "Melting Point": "79 \u00b0C"}}