{"cas_no": "2816-57-1", "cn_name": "\u4e8c\u7532\u57fa\u73af\u5df2\u916e", "en_name": ["2,6-Dimethylcyclohexanone", "Cyclohexanone, 2,6-dimethyl-", "2,6-Dimethylcyclohexanone", "2,6-Dimethyl-1-cyclohexanone", "NSC 5291"], "SMILES": "O=C1C(C)CCCC1C", "physical_data": {"Molecular Weight": "126.20", "Molecular Formula": "C8H14O", "Boiling Point": "175 \u00b0C", "Melting Point": "171 \u00b0C", "Density": "0.9140 g/cm\u00b3 @ Temp: 20 \u00b0C"}}