{"cas_no": "28177-48-2", "cn_name": "2,6-\u4e8c\u6c1f\u82ef\u915a", "en_name": ["2,6-Difluorophenol", "Phenol, 2,6-difluoro-", "2,6-Difluorophenol"], "SMILES": "OC1=C(F)C=CC=C1F", "physical_data": {"Molecular Weight": "130.09", "Molecular Formula": "C6H4F2O", "Boiling Point": "59-61 \u00b0C", "Melting Point": "38-41 \u00b0C"}}