{"cas_no": "28177-69-7", "cn_name": "2-\u7f9f\u57fa-3-\u785d\u57fa\u82ef\u4e59\u916e", "en_name": ["2\u2032-Hydroxy-3\u2032-nitroacetophenone", "Ethanone, 1-(2-hydroxy-3-nitrophenyl)-", "Acetophenone, 2\u2032-hydroxy-3\u2032-nitro-", "1-(2-Hydroxy-3-nitrophenyl)ethanone", "3\u2032-Nitro-2\u2032-hydroxyacetophenone", "2\u2032-Hydroxy-3\u2032-nitroacetophenone", "2-Acetyl-6-nitrophenol", "NSC 111935", "1-(2-Hydroxy-3-nitrophenyl)ethan-1-one"], "SMILES": "C(C)(=O)C1=C(O)C(N(=O)=O)=CC=C1", "physical_data": {"Molecular Weight": "181.15", "Molecular Formula": "C8H7NO4", "Melting Point": "98.5-99.5 \u00b0C"}}