{"cas_no": "28179-47-7", "cn_name": "5-\u6c28\u57fa\u5f02\u915e\u9178\u5355\u7532\u916f", "en_name": ["1-Methyl 5-amino-1,3-benzenedicarboxylate", "1,3-Benzenedicarboxylic acid, 5-amino-, 1-methyl ester", "Isophthalic acid, 5-amino-, monomethyl ester", "1,3-Benzenedicarboxylic acid, 5-amino-, monomethyl ester", "1-Methyl 5-amino-1,3-benzenedicarboxylate", "3-Amino-5-methoxycarbonylbenzoic acid", "3-Carbomethoxy-5-aminobenzoic acid", "5-Aminobenzene-1,3-dicarboxylic acid monomethyl ester", "Monomethyl 5-aminoisophthalate"], "SMILES": "C(OC)(=O)C1=CC(C(O)=O)=CC(N)=C1", "physical_data": {"Molecular Weight": "195.17", "Molecular Formula": "C9H9NO4", "Melting Point": "210-214 \u00b0C"}}