{"cas_no": "28170-07-2", "cn_name": "\u78b3\u9178\u82c4\u57fa\u82ef\u916f", "en_name": ["Phenyl phenylmethyl carbonate", "Carbonic acid, phenyl phenylmethyl ester", "Carbonic acid, benzyl phenyl ester", "Phenyl phenylmethyl carbonate", "Phenyl benzyl carbonate", "Benzyl phenyl carbonate"], "SMILES": "O(C(OCC1=CC=CC=C1)=O)C2=CC=CC=C2", "physical_data": {"Molecular Weight": "228.24", "Molecular Formula": "C14H12O3", "Boiling Point": "127-131 \u00b0C @ Press: 0.1 Torr"}}