{"cas_no": "2817-13-2", "cn_name": "Z-LEU-ALA-OH", "en_name": ["N-[(Phenylmethoxy)carbonyl]-L-leucyl-L-alanine", "L-Alanine, N-[(phenylmethoxy)carbonyl]-L-leucyl-", "Alanine, N-(N-carboxy-L-leucyl)-, N-benzyl ester, L-", "L-Alanine, N-[N-[(phenylmethoxy)carbonyl]-L-leucyl]-", "N-[(Phenylmethoxy)carbonyl]-L-leucyl-L-alanine", "N-Benzoxycarbonyl-L-leucyl-L-alanine", "N-(Benzyloxycarbonyl)-L-leucyl-L-alanine", "N-(Benzyloxycarbonyl)leucylalanine", "NSC 333758"], "SMILES": "C(C(NC(C(O)=O)C)=O)(NC(OCC1=CC=CC=C1)=O)CC(C)C", "physical_data": {"Molecular Weight": "336.38", "Molecular Formula": "C17H24N2O5", "Melting Point": "152-153 \u00b0C"}}