{"cas_no": "2818-70-4", "cn_name": "6-\u7898-2-\u7532\u57fa-1H-\u82ef\u5e76\u54aa\u5511", "en_name": ["6-Iodo-2-methyl-1H-benzimidazole", "1H-Benzimidazole, 6-iodo-2-methyl-", "Benzimidazole, 5-iodo-2-methyl-", "Benzimidazole, 5(or 6)-iodo-2-methyl-", "1H-Benzimidazole, 5-iodo-2-methyl-", "6-Iodo-2-methyl-1H-benzimidazole"], "SMILES": "CC=1NC=2C(N1)=CC(I)=CC2", "physical_data": {"Molecular Weight": "258.06", "Molecular Formula": "C8H7IN2", "Melting Point": "220 \u00b0C"}}