{"cas_no": "28188-41-2", "cn_name": "3-\u6c30\u57fa\u82c4\u57fa\u6eb4", "en_name": ["3-Cyanobenzyl bromide", "Benzonitrile, 3-(bromomethyl)-", "m-Tolunitrile, \u03b1-bromo-", "3-(Bromomethyl)benzonitrile", "m-Cyanobenzyl bromide", "3-Cyanobenzyl bromide", "m-(Bromomethyl)benzonitrile", "\u03b1-Bromo-m-tolunitrile", "m-Cyano-\u03b1-bromotoluene", "NSC 108298", "1-Bromomethyl-3-cyanobenzene"], "SMILES": "C(Br)C1=CC(C#N)=CC=C1", "physical_data": {"Molecular Weight": "196.04", "Molecular Formula": "C8H6BrN", "Boiling Point": "130 \u00b0C @ Press: 4 Torr", "Melting Point": "93 \u00b0C"}}