{"cas_no": "2818-58-8", "cn_name": "\u82ef\u57fa-beta-D-\u5421\u5583\u534a\u4e73\u7cd6\u82f7", "en_name": ["Phenyl \u03b2-D-galactopyranoside", "\u03b2-D-Galactopyranoside, phenyl", "Galactopyranoside, phenyl, \u03b2-D-", "Galactopyranoside, phenyl", "Phenyl \u03b2-D-galactopyranoside", "Phenyl \u03b2-galactoside", "Phenyl \u03b2-D-galactoside"], "SMILES": "O(C1C(O)C(O)C(O)C(CO)O1)C2=CC=CC=C2", "physical_data": {"Molecular Weight": "256.25", "Molecular Formula": "C12H16O6", "Melting Point": "153-155 \u00b0C"}}