{"cas_no": "2818-88-4", "cn_name": "2-\u7532\u57fa-\u7852\u6c2e\u831a", "en_name": ["2-Methylbenzoselenazole", "Benzoselenazole, 2-methyl-", "2-Methylbenzoselenazole", "NSC 379483", "2-Methyl-1,3-benzoselenazole"], "SMILES": "CC1=NC=2C([Se]1)=CC=CC2", "physical_data": {"Molecular Weight": "196.11", "Molecular Formula": "C8H7NSe", "Boiling Point": "140 \u00b0C @ Press: 51 Torr", "Melting Point": "32-33 \u00b0C"}}