{"cas_no": "2818-66-8", "cn_name": "5-\u6c28\u57fa-2-\u5def\u57fa\u82ef\u5e76\u54aa\u5511", "en_name": ["5-Amino-2-mercaptobenzimidazole", "2H-Benzimidazole-2-thione, 5-amino-1,3-dihydro-", "2-Benzimidazolethiol, 5-amino-", "2-Benzimidazolethiol, 5(or 6)-amino-", "5-Amino-1,3-dihydro-2H-benzimidazole-2-thione", "5-Amino-2-mercaptobenzimidazole", "5-Amino-2-benzimidazolethiol", "6-Amino-2-mercaptobenzimidazole", "NSC 3984", "2-Mercapto-1H-benzo[d]imidazol-5-amine", "5-Amino-1H-benzo[d]imidazole-2-thiol", "2-Mercapto-5-aminobenzimidazole", "2-Mercapto-1H-benzimidazol-5-amine"], "SMILES": "S=C1NC=2C(N1)=CC(N)=CC2", "physical_data": {"Molecular Weight": "165.22", "Molecular Formula": "C7H7N3S", "Melting Point": "280 \u00b0C (decomp)"}}