{"cas_no": "2818-69-1", "cn_name": "2-\u7532\u57fa-5-\u6c2f\u82ef\u5e76\u54aa\u5511", "en_name": ["5-Chloro-2-methylbenzimidazole", "1H-Benzimidazole, 6-chloro-2-methyl-", "Benzimidazole, 5-chloro-2-methyl-", "1H-Benzimidazole, 5-chloro-2-methyl-", "Benzimidazole, 5(or 6)-chloro-2-methyl-", "6-Chloro-2-methyl-1H-benzimidazole", "2-Methyl-5-chlorobenzimidazole", "5-Chloro-2-methylbenzimidazole", "Rosalin", "Rozalin", "5-Chloro-2-methyl-1H-benzimidazole", "6-Chloro-2-methylbenzimidazole", "NSC 60139", "5-Chloro-2-methyl-1H-benzoimidazole"], "SMILES": "CC=1NC=2C(N1)=CC(Cl)=CC2", "physical_data": {"Molecular Weight": "166.61", "Molecular Formula": "C8H7ClN2", "Melting Point": "215-218 \u00b0C"}}