{"cas_no": "28197-66-2", "cn_name": "\u918b\u4e01\u6d1b\u5c14\u6742\u8d28A", "en_name": ["N-[3-Acetyl-4-(2-oxiranylmethoxy)phenyl]butanamide", "Butanamide, N-[3-acetyl-4-(2-oxiranylmethoxy)phenyl]-", "Butyranilide, 3\u2032-acetyl-4\u2032-(2,3-epoxypropoxy)-", "Butanamide, N-[3-acetyl-4-(oxiranylmethoxy)phenyl]-", "N-[3-Acetyl-4-(2-oxiranylmethoxy)phenyl]butanamide"], "SMILES": "O(CC1CO1)C2=C(C(C)=O)C=C(NC(CCC)=O)C=C2", "physical_data": {"Molecular Weight": "277.32", "Molecular Formula": "C15H19NO4", "Melting Point": "126-128 \u00b0C"}}