{"cas_no": "2820-37-3", "cn_name": "3,4-\u4e8c\u7532\u57fa\u5421\u5511", "en_name": ["3,4-Dimethylpyrazole", "1H-Pyrazole, 3,4-dimethyl-", "Pyrazole, 3,4-dimethyl-", "Pyrazole, 3,4(or 4,5)-dimethyl-", "3,4-Dimethyl-1H-pyrazole", "3,4-Dimethylpyrazole", "4,5-Dimethylpyrazole"], "SMILES": "CC=1C(C)=NNC1", "physical_data": {"Molecular Weight": "96.13", "Molecular Formula": "C5H8N2", "Boiling Point": "106-107 \u00b0C @ Press: 11 Torr", "Melting Point": "56 \u00b0C"}}