{"cas_no": "282109-83-5", "cn_name": "1,3-\u53cc(2,6-\u4e8c\u5f02\u4e19\u82ef\u57fa)-4,5-\u4e8c\u6c22\u54aa\u5511 \u56db\u6c1f\u787c\u9178\u76d0", "en_name": ["1H-Imidazolium, 1,3-bis[2,6-bis(1-methylethyl)phenyl]-4,5-dihydro-, tetrafluoroborate(1-) (1:1)", "1H-Imidazolium, 1,3-bis[2,6-bis(1-methylethyl)phenyl]-4,5-dihydro-, tetrafluoroborate(1-) (1:1)", "1H-Imidazolium, 1,3-bis[2,6-bis(1-methylethyl)phenyl]-4,5-dihydro-, tetrafluoroborate(1-)", "4,5-Dihydro-1,3-bis(2,6-diisopropylphenyl)imidazolium tetrafluoroborate", "1,3-Bis(2,6-diisopropylphenyl)-4,5-dihydroimidazolium tetrafluoroborate", "N,N\u2032-Bis(2,6-diisopropylphenyl)dihydroimidazolium tetrafluoroborate", "1,3-Bis(2,6-diisopropylphenyl)-4,5-dihydro-3H-imidazol-1-ium tetrafluoroborate"], "SMILES": "[B+3]([F-])([F-])([F-])[F-].C(C)(C)C1=C(C(C(C)C)=CC=C1)[N+]2=CN(CC2)C3=C(C(C)C)C=CC=C3C(C)C", "physical_data": {"Molecular Weight": "", "Molecular Formula": "C27H39N2.BF4", "Melting Point": "&gt;300 \u00b0C"}}