{"cas_no": "28217-60-9", "cn_name": "PHLORIN", "en_name": ["3,5-Dihydroxyphenyl \u03b2-D-glucopyranoside", "\u03b2-D-Glucopyranoside, 3,5-dihydroxyphenyl", "Glucopyranoside, 3,5-dihydroxyphenyl, \u03b2-D-", "Phlorin", "3,5-Dihydroxyphenyl \u03b2-D-glucopyranoside", "3,5-Dihydroxyphenyl \u03b2-D-glucoside", "Phloroglucinol 1-O-\u03b2-D-glucopyranoside", "Phloroglucinol 1-O-\u03b2-D-glucoside"], "SMILES": "O(C1C(O)C(O)C(O)C(CO)O1)C2=CC(O)=CC(O)=C2", "physical_data": {"Molecular Weight": "288.25", "Molecular Formula": "C12H16O8", "Melting Point": "236-238 \u00b0C"}}