{"cas_no": "28211-04-3", "cn_name": "\u03b5-\u805a\u8d56\u6c28\u9178", "en_name": ["\u03b5-Poly-L-lysine", "Poly[imino[(2S)-2-amino-1-oxo-1,6-hexanediyl]]", "Poly[imino(2-amino-1-oxo-1,6-hexanediyl)], (S)-", "Poly(\u03b5-lysine), SRU", "\u03b5-Polylysine", "Poly[iminocarbonyl(1-aminopentamethylene)]", "Poly[imino(2-amino-1-oxo-1,6-hexanediyl)]", "Poly[imino(5-amino-6-oxo-1,6-hexanediyl)]", "\u03b5-Poly-L-lysine", "\u03b5-L-Polylysine", "Sankeeper 381", "Poly\u03b5-lysine"], "SMILES": "C(CCCC*)(C(N*)=O)N", "physical_data": {"Molecular Weight": "", "Molecular Formula": "(C6H12N2O)n", "Melting Point": "172 \u00b0C"}}