{"cas_no": "28224-73-9", "cn_name": "1,3:4,6-\u4e8c-O-\u82c4\u70ef-D-\u7518\u9732\u9187", "en_name": ["1,3:4,6-Di-O-benzylidene-D-mannitol", "D-Mannitol, 1,3:4,6-bis-O-(phenylmethylene)-", "Mannitol, 1,3:4,6-di-O-benzylidene-, D-", "1,3:4,6-Bis-O-(phenylmethylene)-D-mannitol", "1,3:4,6-Di-O-benzylidene-D-mannitol"], "SMILES": "OC1C(OC(OC1)C2=CC=CC=C2)C3OC(OCC3O)C4=CC=CC=C4", "physical_data": {"Molecular Weight": "358.39", "Molecular Formula": "C20H22O6", "Melting Point": "146-149 \u00b0C"}}