{"cas_no": "28226-22-4", "cn_name": "6-\u785d\u57fa-3,4-\u4e8c\u6c22-2H-1,4-\u82ef\u5e76\u6076\u55ea", "en_name": ["6-Nitro-3,4-dihydro-2H-benzo[1,4]oxazine", "2H-1,4-Benzoxazine, 3,4-dihydro-6-nitro-", "3,4-Dihydro-6-nitro-2H-1,4-benzoxazine", "6-Nitro-2,3-dihydrobenz-1,4-oxazine", "6-Nitro-3,4-dihydro-2H-benzo[1,4]oxazine", "6-Nitro-3,4-dihydro-2H-benzo[b][1,4]oxazine"], "SMILES": "N(=O)(=O)C=1C=C2C(=CC1)OCCN2", "physical_data": {"Molecular Weight": "180.16", "Molecular Formula": "C8H8N2O3", "Melting Point": "100-107 \u00b0C"}}