{"cas_no": "2823-42-9", "cn_name": "\u53cc\u6c1f\u7f8e\u677e\u918b\u9178\u916f", "en_name": ["(6\u03b1,11\u03b2,16\u03b1)-21-(Acetyloxy)-6,9-difluoro-11,17-dihydroxy-16-methylpregna-1,4-diene-3,20-dione", "Pregna-1,4-diene-3,20-dione, 21-(acetyloxy)-6,9-difluoro-11,17-dihydroxy-16-methyl-, (6\u03b1,11\u03b2,16\u03b1)-", "Pregna-1,4-diene-3,20-dione, 6\u03b1,9-difluoro-11\u03b2,17,21-trihydroxy-16\u03b1-methyl-, 21-acetate", "(6\u03b1,11\u03b2,16\u03b1)-21-(Acetyloxy)-6,9-difluoro-11,17-dihydroxy-16-methylpregna-1,4-diene-3,20-dione", "Flumethasone acetate", "6\u03b1-Fluorodexamethasone 21-acetate", "Flumethasone 21-acetate", "Flumetasone 21-acetate"], "SMILES": "CC12C(C3C(F)(C4(C)C(C(F)C3)=CC(=O)C=C4)C(O)C1)CC(C)C2(C(COC(C)=O)=O)O", "physical_data": {"Molecular Weight": "452.49", "Molecular Formula": "C24H30F2O6", "Melting Point": "260-264 \u00b0C"}}