{"cas_no": "28231-03-0", "cn_name": "\u67cf\u6728\u70ef\u9187", "en_name": ["Cedrenol", "1H-3a,7-Methanoazulen-5-ol, octahydro-3,8,8-trimethyl-6-methylene-", "Cedr-8(15)-en-9-ol", "Cedrenol", "Octahydro-3,8,8-trimethyl-6-methylene-1H-3a,7-methanoazulen-5-ol"], "SMILES": "CC1C23C(C(C)(C)C(C2)C(=C)C(O)C3)CC1", "physical_data": {"Molecular Weight": "220.35", "Molecular Formula": "C15H24O", "Boiling Point": "166-169 \u00b0C @ Press: 9.5 Torr", "Melting Point": "103-104 \u00b0C", "Density": "1.0083 g/cm\u00b3 @ Temp: 20 \u00b0C"}}