{"cas_no": "2823-44-1", "cn_name": "2,3,4,6-\u56db-O-\u4e59\u9170\u57fa-\u0391-D-\u5421\u5583\u8461\u8404\u7cd6\u9170\u6c1f", "en_name": ["\u03b1-D-Mannopyranosyl fluoride, 2,3,4,6-tetraacetate", "\u03b1-D-Mannopyranosyl fluoride, 2,3,4,6-tetraacetate", "Mannopyranosyl fluoride, tetraacetate, \u03b1-D-", "\u03b1-D-Mannopyranosyl fluoride, tetraacetate", "Tetra-O-acetyl-\u03b1-D-mannopyranosyl fluoride"], "SMILES": "O(C(C)=O)C1C(OC(C)=O)C(COC(C)=O)OC(F)C1OC(C)=O", "physical_data": {"Molecular Weight": "350.29", "Molecular Formula": "C14H19FO9", "Melting Point": "68-69 \u00b0C"}}