{"cas_no": "28230-32-2", "cn_name": "3,4-\u4e8c\u6c22-3-\u7f9f\u57fa-4-OXO-1,2,3-\u82ef\u5e76\u4e09\u55ea", "en_name": ["3,4-Dihydro-3-hydroxy-4-oxo-1,2,3-benzotriazine", "1,2,3-Benzotriazin-4(3H)-one, 3-hydroxy-", "3-Hydroxy-1,2,3-benzotriazin-4(3H)-one", "3-Hydroxy-4-oxo-3,4-dihydro-1,2,3-benzotriazine", "3-Hydroxy-1,2,3-benzotriazin-4-one", "3,4-Dihydro-3-hydroxy-4-oxo-1,2,3-benzotriazine", "3-Hydroxy-3,4-dihydro-4-oxo-1,2,3-benzotriazine", "HODhbt", "3-Hydroxy-1,2,3-benzotriazine-4(3H)-one", "DhbtOH", "NSC 279266", "HOOBt", "3-Hydroxy-3,4-dihydro-1,2,3-benzotriazin-4-one", "4-Dihydro-3-hydroxy-4-oxo-1,2,3-benzotriazine"], "SMILES": "O=C1C=2C(N=NN1O)=CC=CC2", "physical_data": {"Molecular Weight": "163.13", "Molecular Formula": "C7H5N3O2", "Melting Point": "186-187 \u00b0C (decomp)"}}