{"cas_no": "28240-69-9", "cn_name": "1,2-\u53cc(\u4e8c\u6c2f\u78f7\u57fa)-\u4e59\u70f7", "en_name": ["1,2-Bis(dichlorophosphino)ethane", "Phosphonous dichloride, P,P\u2032-1,2-ethanediylbis-", "Phosphonous dichloride, ethylenedi-", "Phosphonous dichloride, 1,2-ethanediylbis-", "P,P\u2032-1,2-Ethanediylbis[phosphonous dichloride]", "1,2-Bis(dichlorophosphino)ethane", "Ethylenebis(dichlorophosphine)", "1,2-Ethanediylbis[phosphonous dichloride]", "P,P\u2032-(1,2-Ethanediyl)bis(dichlorophosphane)"], "SMILES": "C(CP(Cl)Cl)P(Cl)Cl", "physical_data": {"Molecular Weight": "231.81", "Molecular Formula": "C2H4Cl4P2", "Boiling Point": "68 \u00b0C @ Press: 1 Torr", "Melting Point": "118-120 \u00b0C"}}