{"cas_no": "28249-77-6", "cn_name": "\u6740\u8349\u4e39", "en_name": ["Thiobencarb", "Carbamothioic acid, N,N-diethyl-, S-[(4-chlorophenyl)methyl] ester", "Carbamic acid, diethylthio-, S-(p-chlorobenzyl) ester", "Carbamothioic acid, diethyl-, S-[(4-chlorophenyl)methyl] ester", "\u03b1-Toluenethiol, p-chloro-, diethylcarbamate", "Saturn (pesticide)", "IMC 3950", "S-(p-Chlorobenzyl) N,N-diethylthiocarbamate", "S-(4-Chlorobenzyl) N,N-diethylthiocarbamate", "Saturn", "Benthiocarb", "S-p-Chlorobenzyl diethylthiocarbamate", "S-(p-Chlorobenzyl) N,N-diethylthiolocarbamate", "p-Chlorobenzyl N,N-diethylthiolcarbamate", "p-Chlorobenzyl diethylthiolcarbamate", "B 3015", "S-(4-Chlorobenzyl) diethylthiolcarbamate", "Thiobencarb", "S-4-Chlorobenzyl N,N-diethylthiolcarbamate", "S-(4-Chlorobenzyl) diethylthiocarbamate", "Bolero", "Bolero 8EC", "Sadan", "B 3015 (pesticide)", "Bencarb"], "SMILES": "C(SC(N(CC)CC)=O)C1=CC=C(Cl)C=C1", "physical_data": {"Molecular Weight": "257.78", "Molecular Formula": "C12H16ClNOS", "Boiling Point": "126-129 \u00b0C @ Press: 8 x 10<sup>-3</sup> Torr", "Melting Point": "3.3 \u00b0C", "Density": "1.145-1.180 g/cm\u00b3 @ Temp: 20 \u00b0C"}}