{"cas_no": "2825-83-4", "cn_name": "\u56db\u6c22\u4e8c\u73af\u620a\u4e8c\u70ef", "en_name": ["endo-Tetrahydrodicyclopentadiene", "4,7-Methano-1H-indene, octahydro-, (3aR,4R,7S,7aS)-rel-", "4,7-Methanoindan, hexahydro-, endo-", "4,7-Methano-1H-indene, octahydro-, (3a\u03b1,4\u03b1,7\u03b1,7a\u03b1)-", "rel-(3aR,4R,7S,7aS)-Octahydro-4,7-methano-1H-indene", "endo-Tetrahydrodicyclopentadiene", "endo-Tetrahydrobicyclopentadiene", "endo-Trimethylenenorbornane", "endo-Tricyclo[5.2.1.02,6]decane"], "SMILES": "C12C(C3CC1CC3)CCC2", "physical_data": {"Molecular Weight": "136.23", "Molecular Formula": "C10H16", "Boiling Point": "188-190 \u00b0C", "Melting Point": "77 \u00b0C"}}