{"cas_no": "2825-00-5", "cn_name": "\u91d1\u94fe\u83cc\u7d20", "en_name": ["Aureothin", "4H-Pyran-4-one, 2-methoxy-3,5-dimethyl-6-[(2R,4Z)-tetrahydro-4-[(2E)-2-methyl-3-(4-nitrophenyl)-2-propen-1-ylidene]-2-furanyl]-", "4H-Pyran-4-one, 2-methoxy-3,5-dimethyl-6-[tetrahydro-4-[2-methyl-3-(4-nitrophenyl)-2-propenylidene]-2-furanyl]-, [R-(Z,E)]-", "4H-Pyran-4-one, 2-methoxy-3,5-dimethyl-6-[tetrahydro-4-(\u03b2-methyl-p-nitrocinnamylidene)-2-furyl]-", "4H-Pyran-4-one, 2-methoxy-3,5-dimethyl-6-[(2R,4Z)-tetrahydro-4-[(2E)-2-methyl-3-(4-nitrophenyl)-2-propenylidene]-2-furanyl]-", "2-Methoxy-3,5-dimethyl-6-[(2R,4Z)-tetrahydro-4-[(2E)-2-methyl-3-(4-nitrophenyl)-2-propen-1-ylidene]-2-furanyl]-4H-pyran-4-one", "Aureothin", "Mycolutein", "Strain 58 substance", "(+)-Aureothin", "(+)-(R)-Aureothin"], "SMILES": "CC1=C(OC(OC)=C(C)C1=O)C2CC(=CC(=CC3=CC=C(N(=O)=O)C=C3)C)CO2", "physical_data": {"Molecular Weight": "397.42", "Molecular Formula": "C22H23NO6", "Melting Point": "157-158 \u00b0C"}}