{"cas_no": "2825-82-3", "cn_name": "\u56db\u6c22\u53cc\u73af\u620a\u4e8c\u70ef", "en_name": ["exo-Tetrahydrodicyclopentadiene", "4,7-Methano-1H-indene, octahydro-, (3aR,4S,7R,7aS)-rel-", "4,7-Methanoindan, hexahydro-, exo-", "4,7-Methano-1H-indene, octahydro-, (3a\u03b1,4\u03b2,7\u03b2,7a\u03b1)-", "rel-(3aR,4S,7R,7aS)-Octahydro-4,7-methano-1H-indene", "exo-3,4,8,9-Tetrahydrodicyclopentadiene", "exo-Tricyclo[5.2.1.02,6]decane", "exo-Tetrahydrodicyclopentadiene", "exo-Tetrahydrobicyclopentadiene", "exo-5,6-Trimethylenenorbornane", "exo-Trimethylenenorbornane", "exo-Octahydro-4,7-methano-1H-indene", "JP 10"], "SMILES": "C12C(C3CC1CC3)CCC2", "physical_data": {"Molecular Weight": "136.23", "Molecular Formula": "C10H16", "Boiling Point": "185 \u00b0C", "Density": "0.9314 g/cm\u00b3 @ Temp: 25.00 \u00b0C"}}