{"cas_no": "28254-53-7", "cn_name": "\u5598\u8bfa\u6728\u70ef\u5185\u916f", "en_name": ["Reynosin", "Naphtho[1,2-b]furan-2(3H)-one, decahydro-6-hydroxy-5a-methyl-3,9-bis(methylene)-, (3aS,5aR,6R,9aS,9bS)-", "Eudesma-4(14),11(13)-dien-12-oic acid, 1\u03b2,6\u03b1-dihydroxy-, \u03b3-lactone", "Naphtho[1,2-b]furan-2(3H)-one, decahydro-6-hydroxy-5a-methyl-3,9-bis(methylene)-, [3aS-(3a\u03b1,5a\u03b2,6\u03b2,9a\u03b1,9b\u03b2)]-", "(3aS,5aR,6R,9aS,9bS)-Decahydro-6-hydroxy-5a-methyl-3,9-bis(methylene)naphtho[1,2-b]furan-2(3H)-one", "Reynosin", "Reinosin", "(+)-Reynosin", "NSC 155623"], "SMILES": "CC12C(C3C(CC1)C(=C)C(=O)O3)C(=C)CCC2O", "physical_data": {"Molecular Weight": "248.32", "Molecular Formula": "C15H20O3", "Melting Point": "145-146.5 \u00b0C"}}