{"cas_no": "28267-29-0", "cn_name": "\u5341\u4e09\u9178\u4e59\u916f", "en_name": ["Ethyl tridecanoate", "Tridecanoic acid, ethyl ester", "Ethyl tridecanoate", "Ethyl n-tridecanoate"], "SMILES": "C(CCCCCCCCCC)CC(OCC)=O", "physical_data": {"Molecular Weight": "242.40", "Molecular Formula": "C15H30O2", "Boiling Point": "133-134 \u00b0C @ Press: 4 Torr"}}