{"cas_no": "28279-49-4", "cn_name": "6-\u6eb4-3H-\u54aa\u5511\u5e76[4,5-B]\u5421\u5576", "en_name": ["6-Bromo-3H-imidazo[4,5-b]pyridine", "3H-Imidazo[4,5-b]pyridine, 6-bromo-", "1H-Imidazo[4,5-b]pyridine, 6-bromo-", "Imidazo[4,5-b]pyridine, 6-bromo-", "6-Bromo-3H-imidazo[4,5-b]pyridine", "6-Bromo-4-azabenzimidazole", "6-Bromo-1H-imidazo[4,5-b]pyridine"], "SMILES": "BrC=1C=C2C(=NC1)N=CN2", "physical_data": {"Molecular Weight": "198.02", "Molecular Formula": "C6H4BrN3", "Melting Point": "227-228 \u00b0C"}}