{"cas_no": "2827-45-4", "cn_name": "2,4-\u6c28\u57fa-6-\u7532\u6c27\u57fa-1,3,5-\u4e09\u55ea", "en_name": ["2,4-Diamino-6-methoxy-1,3,5-triazine", "1,3,5-Triazine-2,4-diamine, 6-methoxy-", "s-Triazine, 2,4-diamino-6-methoxy-", "6-Methoxy-1,3,5-triazine-2,4-diamine", "2,4-Diamino-6-methoxy-s-triazine", "2-Methoxy-4,6-diamino-s-triazine", "2,4-Diamino-6-methoxy-1,3,5-triazine", "NSC 70448", "6-Methoxyguanamine"], "SMILES": "O(C)C=1N=C(N)N=C(N)N1", "physical_data": {"Molecular Weight": "141.13", "Molecular Formula": "C4H7N5O", "Melting Point": "229-230 \u00b0C"}}