{"cas_no": "2827-56-7", "cn_name": "1-\u6c28\u57fa\u6d77\u56e0\u76d0\u9178\u76d0", "en_name": ["1-Aminohydantoin hydrochloride", "2,4-Imidazolidinedione, 1-amino-, hydrochloride (1:1)", "Hydantoin, 1-amino-, hydrochloride", "2,4-Imidazolidinedione, 1-amino-, monohydrochloride", "1-Aminohydantoin hydrochloride", "1-Amino-2,4-imidazolidinedione monohydrochloride", "1-Aminoimidazolidine-2,4-dione hydrochloride"], "SMILES": "O=C1N(N)CC(=O)N1.Cl", "physical_data": {"Molecular Weight": "", "Molecular Formula": "C3H5N3O2.ClH", "Melting Point": "202-203 \u00b0C"}}