{"cas_no": "28282-25-9", "cn_name": "BETA-\u5c9a\u9999\u916e\u9178", "en_name": ["Elemonic acid", "Lanosta-8,24-dien-21-oic acid, 3-oxo-, (13\u03b1,14\u03b2,17\u03b1,20S)-", "13\u03b1,14\u03b2,17\u03b2H-Lanosta-8,24-dien-21-oic acid, 3-oxo-, (20S)-", "(13\u03b1,14\u03b2,17\u03b1,20S)-3-Oxolanosta-8,24-dien-21-oic acid", "Elemadienonic acid", "Elemonic acid", "\u03b2-Elemonic acid", "3-Oxotirucallic acid", "3-Ketotirucalla-8,24-dien-21-oic acid", "3-Oxotirucalla-8,24-dien-21-oic acid", "3-Oxotirucallenoic acid", "3-Oxo-8,24-tirucalledien-21-oic acid"], "SMILES": "CC12C3=C(C4(C)C(CC3)C(C)(C)C(=O)CC4)CCC1(C)C(C(CCC=C(C)C)C(O)=O)CC2", "physical_data": {"Molecular Weight": "454.68", "Molecular Formula": "C30H46O3", "Melting Point": "274 \u00b0C"}}