{"cas_no": "28289-54-5", "cn_name": "1-\u7532\u57fa-4-\u82ef\u57fa-1,2,3,6-\u56db\u6c22\u5421\u5576", "en_name": ["1-Methyl-4-phenyl-1,2,3,6-tetrahydropyridine", "Pyridine, 1,2,3,6-tetrahydro-1-methyl-4-phenyl-", "1,2,3,6-Tetrahydro-1-methyl-4-phenylpyridine", "1-Methyl-4-phenyl-1,2,3,6-tetrahydropyridine", "N-Methyl-4-phenyl-1,2,3,6-tetrahydropyridine", "1-Methyl-4-phenyl-1,2,5,6-tetrahydropyridine", "N-Methyl-4-phenyl-1,2,5,6-tetrahydropyridine", "MPTP", "NSC 139654", "1-Methyl-4-phenyl-3,6-dihydro-2H-pyridine", "MeSH ID: D015632"], "SMILES": "CN1CCC(=CC1)C2=CC=CC=C2", "physical_data": {"Molecular Weight": "173.25", "Molecular Formula": "C12H15N", "Boiling Point": "85-90 \u00b0C @ Press: 0.8 Torr", "Melting Point": "40-42 \u00b0C"}}