{"cas_no": "28286-88-6", "cn_name": "2,6-\u4e8c\u7532\u57fa-4-\u5421\u5583\u4e9a\u57fa\u4e19\u4e8c\u8148", "en_name": ["4-Dicyanomethylene-2,6-dimethyl-4H-pyran", "Propanedinitrile, 2-(2,6-dimethyl-4H-pyran-4-ylidene)-", "4H-Pyran-\u03944,\u03b1-malononitrile, 2,6-dimethyl-", "Propanedinitrile, (2,6-dimethyl-4H-pyran-4-ylidene)-", "2-(2,6-Dimethyl-4H-pyran-4-ylidene)propanedinitrile", "2,6-Dimethyl-4H-pyran-\u03944,\u03b1-malononitrile", "4-Dicyanomethylene-2,6-dimethyl-4H-pyran", "2,6-Dimethyl-4-dicyanomethylene-4H-pyran", "(2,6-Dimethyl-4H-pyran-4-ylidene)propanedinitrile", "(2,6-Dimethyl-pyran-4-ylidene)propanedinitrile", "2-(2,6-Dimethyl-4H-pyran-4-ylidene)malononitrile", "(2,6-Dimethyl-4H-pyran-4-ylidene)malononitrile", "2-(2,6-Dimethylpyran-4-ylidene)propanedinitrile", "2-(2,6-Dimethyl-pyran-4-ylidene)-malononitrile"], "SMILES": "C(C#N)(C#N)=C1C=C(C)OC(C)=C1", "physical_data": {"Molecular Weight": "172.18", "Molecular Formula": "C10H8N2O", "Melting Point": "198-199 \u00b0C"}}