{"cas_no": "28286-86-4", "cn_name": "2\uff0c4-\u4e8c\u6c2f-5-\u7532\u57fa\u6c1f\u82ef\u78fa\u9170\u6c2f", "en_name": ["2,4-Dichloro-5-methylbenzenesulfonyl chloride", "Benzenesulfonyl chloride, 2,4-dichloro-5-methyl-", "m-Toluenesulfonyl chloride, 4,6-dichloro-", "2,4-Dichloro-5-methylbenzenesulfonyl chloride", "2,4-Dichlorotoluene-5-sulfochloride", "2,4-Dichloro-5-methylbenzene-1-sulfonyl chloride"], "SMILES": "S(Cl)(=O)(=O)C1=C(Cl)C=C(Cl)C(C)=C1", "physical_data": {"Molecular Weight": "259.54", "Molecular Formula": "C7H5Cl3O2S", "Melting Point": "71 \u00b0C"}}