{"cas_no": "28281-49-4", "cn_name": "3,4-(\u4e9a\u7532\u57fa\u4e8c\u6c27)\u82ef\u4e19\u916e", "en_name": ["3\u2032,4\u2032-(Methylenedioxy)propiophenone", "1-Propanone, 1-(1,3-benzodioxol-5-yl)-", "Propiophenone, 3\u2032,4\u2032-(methylenedioxy)-", "1-(1,3-Benzodioxol-5-yl)-1-propanone", "3\u2032,4\u2032-(Methylenedioxy)propiophenone", "3,4-Methylenedioxyphenyl ethyl ketone", "3,4-Methylenedioxypropiophenone", "5-Propanoyl-1,3-benzodioxole", "NSC 29484", "1-(Benz[d][1,3]dioxol-5-yl)propan-1-one", "1-(Benzo[d][1,3]dioxol-5-yl)propan-1-one", "1-(2H-1,3-Benzodioxol-5-yl)propan-1-one"], "SMILES": "C(CC)(=O)C=1C=C2C(=CC1)OCO2", "physical_data": {"Molecular Weight": "178.18", "Molecular Formula": "C10H10O3", "Boiling Point": "128 \u00b0C", "Melting Point": "38-39 \u00b0C"}}