{"cas_no": "28281-76-7", "cn_name": "5-\u7532\u6c27\u57fa-\u5f02\u82ef\u5e76\u544b\u5583-1,3-\u4e8c\u916e", "en_name": ["4-Methoxyphthalic anhydride", "1,3-Isobenzofurandione, 5-methoxy-", "Phthalic anhydride, 4-methoxy-", "5-Methoxy-1,3-isobenzofurandione", "4-Methoxyphthalic anhydride", "5-Methoxyphthalic anhydride", "5-Methoxyisobenzofuran-1,3-dione", "4-Methoxyphthalic acid anhydride"], "SMILES": "O=C1C=2C(C(=O)O1)=CC=C(OC)C2", "physical_data": {"Molecular Weight": "178.14", "Molecular Formula": "C9H6O4", "Melting Point": "98-99 \u00b0C"}}