{"cas_no": "28292-43-5", "cn_name": "2-\u6c28\u57fa-5-\u7532\u57fa\u5df1\u70f7", "en_name": ["1,4-Dimethylpentylamine", "2-Hexanamine, 5-methyl-", "Pentylamine, 1,4-dimethyl-", "5-Methyl-2-hexanamine", "1,4-Dimethylpentylamine", "2-Amino-5-methylhexane", "5-Methyl-2-hexylamine", "(\u00b1)-2-Amino-5-methylhexane", "dl-2-Amino-5-methylhexane", "NSC 73708"], "SMILES": "C(CC(C)N)C(C)C", "physical_data": {"Molecular Weight": "115.22", "Molecular Formula": "C7H17N", "Boiling Point": "131-133 \u00b0C"}}