{"cas_no": "283-56-7", "cn_name": "\u4e09\u4e59\u9187\u80fa\u787c\u9178\u76d0", "en_name": ["Triethanolamine borate", "2,8,9-Trioxa-5-aza-1-borabicyclo[3.3.3]undecane", "Ethanol, 2,2\u2032,2\u2032\u2032-nitrilotri-, cyclic ester with boric acid (H3BO3) (1:1)", "Ethanol, 2,2\u2032,2\u2032\u2032-nitrilotri-, cyclic borate", "Ethanol, 2,2\u2032,2\u2032\u2032-nitrilotri-, borate", "Boratran", "Triethanolamine borate", "Boratrane", "Boron, [[2,2\u2032,2\u2032\u2032-nitrilotris[ethanolato]](3-)]-", "Ethanol, 2,2\u2032,2\u2032\u2032-nitrilotris-, cyclic ester with boric acid (H3BO3) (1:1)", "Atracor T", "NSC 5220", "Arborite Binder 75", "DX 6215"], "SMILES": "B12OCCN(CCO1)CCO2", "physical_data": {"Molecular Weight": "156.98", "Molecular Formula": "C6H12BNO3", "Melting Point": "245-247 \u00b0C"}}