{"cas_no": "283173-84-2", "cn_name": "181239", "en_name": ["4-(8-Fluoro-3,4,5,6-tetrahydro-6-oxo-1H-pyrrolo[4,3,2-ef][2]benzazepin-2-yl)benzaldehyde", "Benzaldehyde, 4-(8-fluoro-3,4,5,6-tetrahydro-6-oxo-1H-pyrrolo[4,3,2-ef][2]benzazepin-2-yl)-", "Benzaldehyde, 4-(8-fluoro-3,4,5,6-tetrahydro-6-oxo-1H-azepino[5,4,3-cd]indol-2-yl)-", "4-(8-Fluoro-3,4,5,6-tetrahydro-6-oxo-1H-pyrrolo[4,3,2-ef][2]benzazepin-2-yl)benzaldehyde", "4-(8-Fluoro-6-oxo-3,4,5,6-tetrahydro-1H-azepino[5,4,3-cd]indol-2-yl)benzaldehyde"], "SMILES": "O=C1C2=C3C(=C(NC3=CC(F)=C2)C4=CC=C(C=O)C=C4)CCN1", "physical_data": {"Molecular Weight": "308.31", "Molecular Formula": "C18H13FN2O2", "Melting Point": "219 \u00b0C (decomp)"}}