{"cas_no": "28319-77-9", "cn_name": "\u7518\u6cb9\u78f7\u9170\u80c6\u78b1", "en_name": ["sn-glycero-3-Phosphocholine", "Ethanaminium, 2-[[[(2R)-2,3-dihydroxypropoxy]hydroxyphosphinyl]oxy]-N,N,N-trimethyl-, inner salt", "Choline, hydroxide, 2,3-dihydroxypropyl hydrogen phosphate, inner salt, D-", "Ethanaminium, 2-[[(2,3-dihydroxypropoxy)hydroxyphosphinyl]oxy]-N,N,N-trimethyl-, hydroxide, inner salt, (R)-", "O-(sn-glycero-3-Phosphoryl)-choline", "Glycerophosphorylcholine", "sn-glycero-3-Phosphorylcholine", "sn-glycero-3-Phosphorylcholine", "L-\u03b1-Glycerophosphorylcholine", "L-\u03b1-Glycerylphosphorylcholine", "Glycerophosphocholine", "L-\u03b1-Glycerophosphocholine", "Choline alfoscerate", "Ethanaminium, 2-[[(2,3-dihydroxypropoxy)hydroxyphosphinyl]oxy]-N,N,N-trimethyl-, inner salt, (R)-", "Gliatilin", "Delecit", "Brezal", "L-\u03b1-GPC", "Glycerol 3-phosphocholine", "Glycerol 3-phosphorylcholine", "Glycerophosphoric acid choline ester", "\u03b1-Glycerophosphorylcholine", "Glycerylphosphocholine", "\u03b1-Glycerylphosphorylcholine", "Glyceryl 3-phosphorylcholine", "Glycerylphosphorylcholine", "sn-glycero-3-Phosphocholine", "Cholitiline", "Cholicerin", "Cereton", "Choline alphoscerate", "Glycerol phosphorylcholine", "Nichiyu GPC 85R"], "SMILES": "P(OCC(CO)O)(OCC[N+](C)(C)C)(=O)[O-]", "physical_data": {"Molecular Weight": "", "Molecular Formula": "C8H20NO6P", "Melting Point": "142.5 \u00b0C"}}