{"cas_no": "28314-81-0", "cn_name": "3-\u6eb4-2,6-\u4e8c\u6c1f\u82ef\u7532\u9178", "en_name": ["3-Bromo-2,6-difluorobenzoic acid", "Benzoic acid, 3-bromo-2,6-difluoro-", "3-Bromo-2,6-difluorobenzoic acid"], "SMILES": "C(O)(=O)C1=C(F)C(Br)=CC=C1F", "physical_data": {"Molecular Weight": "237.00", "Molecular Formula": "C7H3BrF2O2", "Melting Point": "137-139 \u00b0C"}}