{"cas_no": "28314-80-9", "cn_name": "2,4,6-\u4e09\u6c1f\u82ef\u7532\u9178", "en_name": ["2,4,6-Trifluorobenzoic acid", "Benzoic acid, 2,4,6-trifluoro-", "2,4,6-Trifluorobenzoic acid"], "SMILES": "C(O)(=O)C1=C(F)C=C(F)C=C1F", "physical_data": {"Molecular Weight": "176.09", "Molecular Formula": "C7H3F3O2", "Melting Point": "143 \u00b0C"}}