{"cas_no": "28315-93-7", "cn_name": "5-\u7f9f\u57fa-1-\u56db\u6c22\u8418\u916e", "en_name": ["5-Hydroxy-1-tetralone", "1(2H)-Naphthalenone, 3,4-dihydro-5-hydroxy-", "3,4-Dihydro-5-hydroxy-1(2H)-naphthalenone", "5-Hydroxy-1-tetralone", "5-Hydroxytetralone", "5-Hydroxy-\u03b1-tetralone", "5-Hydroxy-3,4-dihydro-1(2H)-naphthalenone", "1,2,3,4-Tetrahydro-1-oxo-5-hydroxynaphthalene", "5-Hydroxy-3,4-dihydro-2H-naphthalen-1-one", "5-Hydroxy-1,2,3,4-tetrahydronaphthalen-1-one", "1,2,3,4-Tetrahydro-5-hydroxynaphthyl-1-one"], "SMILES": "O=C1C=2C(=C(O)C=CC2)CCC1", "physical_data": {"Molecular Weight": "162.19", "Molecular Formula": "C10H10O2", "Melting Point": "210-211.5 \u00b0C"}}