{"cas_no": "283173-50-2", "cn_name": "\u9c81\u5361\u5e15\u5c3c", "en_name": ["Rucaparib", "6H-Pyrrolo[4,3,2-ef][2]benzazepin-6-one, 8-fluoro-1,3,4,5-tetrahydro-2-[4-[(methylamino)methyl]phenyl]-", "6H-Azepino[5,4,3-cd]indol-6-one, 8-fluoro-1,3,4,5-tetrahydro-2-[4-[(methylamino)methyl]phenyl]-", "8-Fluoro-1,3,4,5-tetrahydro-2-[4-[(methylamino)methyl]phenyl]-6H-pyrrolo[4,3,2-ef][2]benzazepin-6-one", "8-Fluoro-2-[4-[(methylamino)methyl]phenyl]-1,3,4,5-tetrahydro-6H-azepino[5,4,3-cd]indol-6-one", "Rucaparib", "Rubraca", "8-Fluoro-5-(4-((methylamino)methyl)phenyl)-2,3,4,6-tetrahydro-1H-azepino[5,4,3-cd]indol-1-one"], "SMILES": "O=C1C2=C3C(=C(NC3=CC(F)=C2)C4=CC=C(CNC)C=C4)CCN1", "physical_data": {"Molecular Weight": "323.36", "Molecular Formula": "C19H18FN3O", "Melting Point": "220 \u00b0C"}}