{"cas_no": "2831-66-5", "cn_name": "2,4-\u4e8c\u6c2f-1,3,5-\u4e09\u55ea", "en_name": ["Dichloro-s-triazine", "1,3,5-Triazine, 2,4-dichloro-", "s-Triazine, 2,4-dichloro-", "2,4-Dichloro-1,3,5-triazine", "Dichloro-s-triazine", "2,4-Dichloro-sym-triazine", "4,6-Dichloro-s-triazine", "2,6-Dichloro-1,3,5-triazine", "2,4-Dichloro-s-triazine", "2,4-Dichlorotriazine", "Eco-Ever 6", "Ekoeba 6"], "SMILES": "ClC=1N=C(Cl)N=CN1", "physical_data": {"Molecular Weight": "149.97", "Molecular Formula": "C3HCl2N3", "Boiling Point": "80-90 \u00b0C @ Press: 40 Torr", "Melting Point": "50-52 \u00b0C"}}