{"cas_no": "2831-60-9", "cn_name": "2-(2,4-\u4e8c\u785d\u57fa\u82ef\u6c27\u57fa)\u4e59\u9187", "en_name": ["2-(2,4-Dinitrophenoxy)ethanol", "Ethanol, 2-(2,4-dinitrophenoxy)-", "2-(2,4-Dinitrophenoxy)ethanol", "\u03b2-Hydroxyethyl 2,4-dinitrophenyl ether", "1-(2-Hydroxyethoxy)-2,4-dinitrobenzene", "1-(\u03b2-Hydroxyethoxy)-2,4-dinitrobenzene", "NSC 28669", "2-(2,4-Dinitrophenoxy)ethan-1-ol"], "SMILES": "N(=O)(=O)C1=C(OCCO)C=CC(N(=O)=O)=C1", "physical_data": {"Molecular Weight": "228.16", "Molecular Formula": "C8H8N2O6", "Melting Point": "109 \u00b0C"}}