{"cas_no": "28314-83-2", "cn_name": "5-\u6eb4-2,4-\u4e8c\u6c1f\u82ef\u7532\u9178", "en_name": ["5-Bromo-2,4-difluorobenzoic acid", "Benzoic acid, 5-bromo-2,4-difluoro-", "5-Bromo-2,4-difluorobenzoic acid", "3-Bromo-4,6-difluorobenzoic acid"], "SMILES": "C(O)(=O)C1=C(F)C=C(F)C(Br)=C1", "physical_data": {"Molecular Weight": "237.00", "Molecular Formula": "C7H3BrF2O2", "Melting Point": "148-150 \u00b0C"}}