{"cas_no": "2832-40-8", "cn_name": "\u5206\u6563\u9ec4 3", "en_name": ["Disperse Yellow 3", "Acetamide, N-[4-[2-(2-hydroxy-5-methylphenyl)diazenyl]phenyl]-", "C.I. Disperse Yellow 3", "Acetamide, N-[4-[(2-hydroxy-5-methylphenyl)azo]phenyl]-", "Acetanilide, 4\u2032-(6-hydroxy-m-tolylazo)-", "N-[4-[2-(2-Hydroxy-5-methylphenyl)diazenyl]phenyl]acetamide", "C.I. 11855", "Acetamine Yellow CG", "Acetate Fast Yellow G", "Acetoquinone Light Yellow 4JLZ", "Amacel Yellow G", "Artisil Yellow 2GN", "Atrisil Direct Yellow G", "Calcosyn Yellow GC", "Celliton Discharge Yellow GL", "Celliton Fast Yellow G", "Celliton Fast Yellow GA-CF", "Celutate Yellow GH", "Cibacete Yellow GBA", "Cibacet Yellow 2GC", "Cibacet Yellow GBA", "Cilla Fast Yellow G", "Diacelliton Fast Yellow G", "Disperse Yellow G", "Disperse Yellow 3", "Dispersol Fast Yellow G", "Dispersol Printing Yellow G", "Durgacet Yellow G", "Eastone Yellow GN", "Esteroquinone Light Yellow 4JL", "Fenacet Fast Yellow G", "Interchem Acetate Yellow G", "Interchem Hisperse Yellow GH", "Kayalon Fast Yellow G", "KCA Acetate Fast Yellow G", "Microsetile Yellow GR", "Miketon Fast Yellow G", "Nacelan Fast Yellow CG", "Novalon Yellow 2GN", "Nyloquinone Yellow 4J", "Palanil Yellow G", "Perliton Yellow G", "Reliton Yellow C", "Safaritone yellow G", "Serinyl Hosiery Yellow GD", "Serisol Fast Yellow GD", "Setacyl Yellow G", "Setacyl Yellow 2GN", "Silotras Yellow TSG", "Supracet Fast Yellow G", "Terasil Yellow 2GC", "Terasil Yellow GBA Extra", "Vonteryl Yellow G", "Yellow Reliton G", "Yellow Z", "Disperse Yellow Z", "Setacyl Yellow P 2GL", "Synten Yellow 2G", "4\u2032-[(2-Hydroxy-5-methylphenyl)azo]acetanilide", "C.I. Solvent Yellow 77", "Seriplas Yellow GD", "Dispersol Yellow A-G", "Intrasperse Yellow GBA Extra", "Kayaset Yellow G", "Resiren Yellow TG", "Celliton Yellow G", "Transetile Yellow P-GR", "C.I. Solvent Yellow 99", "C.I. Solvent Yellow 92", "Ostacet Yellow P 2G", "4-Acetamido-2\u2032-hydroxy-5\u2032-methylazobenzene", "Sumiplast Yellow FC", "Lurafix Yellow 142", "Waxoline Yellow RP-FW", "Tulasteron Fast Yellow 2G-B", "Oplas Yellow 130", "DTNW 11", "Akasperse Yellow G", "Cibacet Yellow 2GC150", "Intrasperse Yellow GBA", "Kiwalon Polyester Fast Yellow G", "P 2G"], "SMILES": "N(=NC1=CC=C(NC(C)=O)C=C1)C2=C(O)C=CC(C)=C2", "physical_data": {"Molecular Weight": "269.30", "Molecular Formula": "C15H15N3O2", "Melting Point": "195 \u00b0C"}}