{"cas_no": "2832-49-7", "cn_name": "N-\u4e09\u7f9f\u7532\u57fa\u7532\u57fa-2-\u6c28\u57fa\u4e59\u78fa\u9178", "en_name": ["N,N,N\u2032,N\u2032-Tetraethylsulfamide", "Sulfamide, N,N,N\u2032,N\u2032-tetraethyl-", "Sulfamide, tetraethyl-", "N,N,N\u2032,N\u2032-Tetraethylsulfamide", "Ethanamine, N,N\u2032-sulfonylbis[N-ethyl-", "Tetraethylsulfamide", "(Diethylsulfamoyl)diethylamine"], "SMILES": "S(N(CC)CC)(N(CC)CC)(=O)=O", "physical_data": {"Molecular Weight": "208.32", "Molecular Formula": "C8H20N2O2S", "Boiling Point": "92 \u00b0C @ Press: 1 Torr", "Density": "1.037 g/cm\u00b3 @ Temp: 25 \u00b0C"}}