{"cas_no": "28320-32-3", "cn_name": "2,7-\u4e8c\u6eb4-9,9-\u4e8c\u7532\u57fa\u82b4", "en_name": ["2,7-Dibromo-9,9-dimethylfluorene", "9H-Fluorene, 2,7-dibromo-9,9-dimethyl-", "Fluorene, 2,7-dibromo-9,9-dimethyl-", "2,7-Dibromo-9,9-dimethyl-9H-fluorene", "2,7-Dibromo-9,9-dimethylfluorene", "2,7-Dibromo-9,9\u2032-dimethyl-9H-fluorene"], "SMILES": "CC1(C)C=2C(C=3C1=CC(Br)=CC3)=CC=C(Br)C2", "physical_data": {"Molecular Weight": "352.06", "Molecular Formula": "C15H12Br2", "Melting Point": "170-172 \u00b0C"}}