{"cas_no": "28322-02-3", "cn_name": "4-\u4e59\u9170\u6c28\u57fa\u82b4", "en_name": ["4-Acetylaminofluorene", "Acetamide, N-9H-fluoren-4-yl-", "Acetamide, N-fluoren-4-yl-", "N-9H-Fluoren-4-ylacetamide", "4-Acetylaminofluorene", "N-4-Fluorenylacetamide", "4-Fluorenylacetamide", "NSC 9866"], "SMILES": "N(C(C)=O)C1=C2C=3C(CC2=CC=C1)=CC=CC3", "physical_data": {"Molecular Weight": "223.27", "Molecular Formula": "C15H13NO", "Melting Point": "199-200 \u00b0C"}}