{"cas_no": "2832-19-1", "cn_name": "\u6c2f\u4e59\u9170\u80fa-N-\u7532\u9187", "en_name": ["N-Methylol-\u03b1-chloroacetamide", "Acetamide, 2-chloro-N-(hydroxymethyl)-", "Acetamide, \u03b1-chloro-N-(hydroxymethyl)-", "2-Chloro-N-(hydroxymethyl)acetamide", "N-Methylol-2-chloroacetamide", "N-Methylolchloracetamide", "N-(Hydroxymethyl)-2-chloracetamide", "\u03b1-Chloro-N-(hydroxymethyl)acetamide", "N-(Hydroxymethyl)chloroacetamide", "Chloro-N-(hydroxymethyl)acetamide", "N-(Hydroxymethyl)-2-chloroacetamide", "N-Methylol-\u03b1-chloroacetamide", "N-Methylolchloroacetamide", "N-Methylol-\u03b1-chloracetamide", "NSC 9963"], "SMILES": "C(NCO)(CCl)=O", "physical_data": {"Molecular Weight": "123.54", "Molecular Formula": "C3H6ClNO2", "Melting Point": "102 \u00b0C"}}