{"cas_no": "28322-40-9", "cn_name": "\u6eb4\u5316\u5f02\u620a\u57fa\u4e09\u82ef\u57fa\u78f7", "en_name": ["Phosphonium, (3-methylbutyl)triphenyl-, bromide (1:1)", "Phosphonium, (3-methylbutyl)triphenyl-, bromide (1:1)", "Phosphonium, isopentyltriphenyl-, bromide", "Phosphonium, (3-methylbutyl)triphenyl-, bromide", "Isopentyltriphenylphosphonium bromide", "(3-Methylbutyl)triphenylphosphonium bromide", "Isoamyltriphenylphosphonium bromide", "(3-Methylbutyl)triphenylphosphanium bromide"], "SMILES": "[P+](CCC(C)C)(C1=CC=CC=C1)(C2=CC=CC=C2)C3=CC=CC=C3.[Br-]", "physical_data": {"Molecular Weight": "", "Molecular Formula": "C23H26P.Br", "Melting Point": "152-153 \u00b0C"}}