{"cas_no": "2832-10-2", "cn_name": "4-\u4e59\u9170\u57fa-5-\u6c27\u5df1\u9178\u4e59\u916f", "en_name": ["Hexanoic acid, 4-acetyl-5-oxo-, ethyl ester", "Hexanoic acid, 4-acetyl-5-oxo-, ethyl ester", "Ethyl 4-acetyl-5-oxohexanoate"], "SMILES": "C(CCC(OCC)=O)(C(C)=O)C(C)=O", "physical_data": {"Molecular Weight": "200.23", "Molecular Formula": "C10H16O4", "Boiling Point": "182 \u00b0C @ Press: 48 Torr", "Density": "1.0668 g/cm\u00b3 @ Temp: 16 \u00b0C"}}