{"cas_no": "2834-79-9", "cn_name": "2-\u6c28\u57fa-4-(4-\u8054\u82ef\u57fa)\u567b\u5511", "en_name": ["4-[1,1\u2032-Biphenyl]-4-yl-2-thiazolamine", "2-Thiazolamine, 4-[1,1\u2032-biphenyl]-4-yl-", "Thiazole, 2-amino-4-(4-biphenylyl)-", "4-[1,1\u2032-Biphenyl]-4-yl-2-thiazolamine", "4-(1,1\u2032-Biphenyl-4-yl)-2-amino-1,3-thiazole", "4-(4-Phenylphenyl)thiazol-2-amine"], "SMILES": "NC1=NC(=CS1)C2=CC=C(C=C2)C3=CC=CC=C3", "physical_data": {"Molecular Weight": "252.33", "Molecular Formula": "C15H12N2S", "Melting Point": "207-208 \u00b0C"}}