{"cas_no": "2834-05-1", "cn_name": "11-\u6eb4\u5341\u4e00\u9178", "en_name": ["11-Bromoundecanoic acid", "Undecanoic acid, 11-bromo-", "11-Bromoundecanoic acid", "\u03c9-Bromoundecanoic acid", "NSC 14781"], "SMILES": "C(CCCCCCCBr)CCC(O)=O", "physical_data": {"Molecular Weight": "265.19", "Molecular Formula": "C11H21BrO2", "Boiling Point": "173-174 \u00b0C @ Press: 2 Torr", "Melting Point": "57 \u00b0C"}}