{"cas_no": "28342-33-8", "cn_name": "\u6c27\u57fa\u767d\u5c48\u83dc\u5b63\u94f5\u78b1", "en_name": ["Oxychelerythrine", "[1,3]Benzodioxolo[5,6-c]phenanthridin-13(12H)-one, 1,2-dimethoxy-12-methyl-", "Chelerythrine, 12,13-dihydro-13-oxo-", "1,2-Dimethoxy-12-methyl[1,3]benzodioxolo[5,6-c]phenanthridin-13(12H)-one", "Oxychelerythrine", "Dihydrooxochelerythrine"], "SMILES": "CN1C2=C(C=3C(C1=O)=C(OC)C(OC)=CC3)C=CC=4C2=CC5=C(C4)OCO5", "physical_data": {"Molecular Weight": "363.36", "Molecular Formula": "C21H17NO5", "Melting Point": "194-197 \u00b0C"}}