{"cas_no": "2834-92-6", "cn_name": "1-\u6c28\u57fa-2-\u8418\u915a", "en_name": ["1-Amino-2-naphthol", "2-Naphthalenol, 1-amino-", "2-Naphthol, 1-amino-", "1-Amino-2-naphthalenol", "1-Amino-2-naphthol", "2-Hydroxy-1-aminonaphthalene", "1-Amino-2-hydroxynaphthalene", "\u03b1-Amino-\u03b2-naphthol", "2-Hydroxy-1-naphthylamine", "NSC 7938"], "SMILES": "NC=1C2=C(C=CC1O)C=CC=C2", "physical_data": {"Molecular Weight": "159.18", "Molecular Formula": "C10H9NO", "Melting Point": "203-203.5 \u00b0C"}}