{"cas_no": "2835-81-6", "cn_name": "DL-2-\u6c28\u57fa\u4e01\u9178", "en_name": ["\u03b1-Aminobutyric acid", "Butanoic acid, 2-amino-", "Butyric acid, 2-amino-, DL-", "Butanoic acid, 2-amino-, (\u00b1)-", "Butyric acid, \u03b1-amino-", "Butyric acid, 2-amino-, dl-", "2-Aminobutanoic acid", "DL-\u03b1-Aminobutyric acid", "dl-\u03b1-Amino-n-butyric acid", "DL-2-Aminobutyric acid", "DL-2-Amino-n-butyric acid", "DL-2-Aminobutanoic acid", "DL-\u03b1-Aminobutanoic acid", "(\u00b1)-\u03b1-Aminobutyric acid", "DL-\u03b1-Amino-n-butyric acid", "DL-Butyrine", "DL-Ethylglycine", "AABA", "\u03b1-Aminobutyric acid", "Butyrine", "\u03b1-Amino-n-butyric acid", "2-Aminobutyric acid", "2-Amino-n-butyric acid", "Homoalanine", "(\u00b1)-2-Aminobutyric acid", "NSC 3251", "(\u00b1)-2-Aminobutanoic acid", "17: PN: US20130338076 SEQID: 185 claimed sequence", "\u03b1-Aminobutanoic acid", "2-Amino-butyric acid", "2-Azaniumylbutanoate"], "SMILES": "C(C(O)=O)(CC)N", "physical_data": {"Molecular Weight": "103.12", "Molecular Formula": "C4H9NO2", "Melting Point": "305 \u00b0C (decomp)"}}