{"cas_no": "2835-77-0", "cn_name": "2-\u6c28\u57fa\u4e8c\u82ef\u7532\u916e", "en_name": ["2-Aminobenzophenone", "Methanone, (2-aminophenyl)phenyl-", "Benzophenone, 2-amino-", "(2-Aminophenyl)phenylmethanone", "2-Aminobenzophenone", "o-Benzoylaniline", "o-Aminobenzophenone", "2-Benzoylaniline", "2-Benzoylbenzenamine", "o-Aminophenyl phenyl ketone", "NSC 9422", "2-(Phenylcarbonyl)aniline", "2-Aminophenyl phenyl ketone"], "SMILES": "C(=O)(C1=C(N)C=CC=C1)C2=CC=CC=C2", "physical_data": {"Molecular Weight": "197.23", "Molecular Formula": "C13H11NO", "Melting Point": "110-111 \u00b0C"}}