{"cas_no": "2835-82-7", "cn_name": "3-\u6c28\u57fa\u4e01\u9178", "en_name": ["\u03b2-Aminobutyric acid", "Butanoic acid, 3-amino-", "Butyric acid, 3-amino-", "Butyric acid, \u03b2-amino-", "3-Aminobutanoic acid", "\u03b2-Aminobutyric acid", "\u03b2-Amino-n-butyric acid", "3-Aminobutyric acid", "\u03b2-Aminobutanoic acid", "\u03b2-Methyl-\u03b2-alanine", "Carbocreatine", "3-Methyl-\u03b2-alanine", "DL-3-Aminobutyric acid", "DL-\u03b2-Aminobutyric acid", "(\u00b1)-3-Aminobutanoic acid", "(\u00b1)-\u03b2-Aminobutyric acid", "DL-3-Aminobutanoic acid", "(\u00b1)-3-Amino-n-butyric acid", "(RS)-3-Aminobutanoic acid", "(\u00b1)-3-Aminobutyric acid", "NSC 77380", "BABA", "3-Azaniumylbutanoate"], "SMILES": "C(C(C)N)C(O)=O", "physical_data": {"Molecular Weight": "103.12", "Molecular Formula": "C4H9NO2", "Melting Point": "193 \u00b0C"}}