{"cas_no": "2835-97-4", "cn_name": "2-\u6c28\u57fa-3-\u7532\u57fa\u82ef\u915a", "en_name": ["2-Amino-3-methylphenol", "Phenol, 2-amino-3-methyl-", "m-Cresol, 2-amino-", "2-Amino-3-methylphenol", "3-Methyl-2-aminophenol", "2-Hydroxy-6-methylaniline", "2-Amino-m-cresol", "2-Amino-3-hydroxytoluene", "2-Amino-3-cresol"], "SMILES": "NC1=C(C)C=CC=C1O", "physical_data": {"Molecular Weight": "123.15", "Molecular Formula": "C7H9NO", "Melting Point": "157-159 \u00b0C"}}