{"cas_no": "2835-78-1", "cn_name": "3-\u6c28\u57fa\u82ef\u57fa\u82ef\u7532\u916e", "en_name": ["3-Aminobenzophenone", "Methanone, (3-aminophenyl)phenyl-", "Benzophenone, 3-amino-", "(3-Aminophenyl)phenylmethanone", "m-Aminobenzophenone", "3-Benzoylaniline", "3-Aminobenzophenone", "NSC 86511", "3-Phenylcarbonylaniline"], "SMILES": "C(=O)(C1=CC(N)=CC=C1)C2=CC=CC=C2", "physical_data": {"Molecular Weight": "197.23", "Molecular Formula": "C13H11NO", "Melting Point": "86 \u00b0C"}}