{"cas_no": "2835-68-9", "cn_name": "\u5bf9\u6c28\u57fa\u82ef\u7532\u9170\u80fa", "en_name": ["4-Aminobenzamide", "Benzamide, 4-amino-", "Benzamide, p-amino-", "4-Aminobenzamide", "p-Aminobenzamide", "p-Carbamoylaniline", "4-Carbamoylaniline", "SR 4329", "p-Aminobenzenecarboxamide", "(4-Aminophenyl)carboxamide", "4-Aminobenzenecarboxamide", "(4-(Aminocarbonyl)phenyl)amine", "NSC 233920", "NSC 36963", "4-Carboxamidoaniline", "4-(Aminocarbonyl)aniline", "p-Aminocarbonylaniline"], "SMILES": "C(N)(=O)C1=CC=C(N)C=C1", "physical_data": {"Molecular Weight": "136.15", "Molecular Formula": "C7H8N2O", "Melting Point": "181-183 \u00b0C"}}