{"cas_no": "28356-58-3", "cn_name": "4-\u5421\u5576\u4e59\u9178", "en_name": ["4-Pyridineacetic acid", "4-Pyridineacetic acid", "4-Pyridylacetic acid", "4-Carboxymethylpyridine", "(4-Pyridinyl)acetic acid", "2-(Pyridin-4-yl)acetic acid"], "SMILES": "C(C(O)=O)C=1C=CN=CC1", "physical_data": {"Molecular Weight": "137.14", "Molecular Formula": "C7H7NO2", "Melting Point": "141 \u00b0C (decomp)"}}