{"cas_no": "2835-99-6", "cn_name": "4-\u6c28\u57fa-3-\u7532\u57fa\u82ef\u915a", "en_name": ["4-Amino-3-methylphenol", "Phenol, 4-amino-3-methyl-", "m-Cresol, 4-amino-", "4-Amino-3-methylphenol", "2-Methyl-4-hydroxyaniline", "p-Amino-m-cresol", "p-Hydroxy-o-toluidine", "4-Amino-m-cresol", "4-Hydroxy-2-methylaniline", "3-Methyl-4-aminophenol", "4-Hydroxy-o-toluidine", "m-Methyl-p-aminophenol", "3-Methyl-p-aminophenol", "4-Amino-m-cresol", "NSC 72170", "4-Amino-3-cresol"], "SMILES": "CC1=C(N)C=CC(O)=C1", "physical_data": {"Molecular Weight": "123.15", "Molecular Formula": "C7H9NO", "Melting Point": "173-176 \u00b0C (decomp)"}}