{"cas_no": "2835-06-5", "cn_name": "2-\u6c28\u57fa-2-\u82ef\u57fa\u4e59\u9178", "en_name": ["DL-Phenylglycine", "Benzeneacetic acid, \u03b1-amino-", "Glycine, 2-phenyl-, DL-", "Benzeneacetic acid, \u03b1-amino-, (\u00b1)-", "\u03b1-Aminobenzeneacetic acid", "DL-\u03b1-Aminophenylacetic acid", "DL-2-Phenylglycine", "DL-\u03b1-Phenylglycine", "(\u00b1)-\u03b1-Phenylglycine", "(\u00b1)-Phenylglycine", "(RS)-2-Phenylglycine", "DL-Phenylglycine", "\u03b1-Aminophenylacetic acid", "\u03b1-Phenylglycine", "2-Phenylglycine", "2-Amino-2-phenylacetic acid", "C-Phenylglycine", "2-Amino-2-phenylethanoic acid", "NSC 24619", "NSC 32070", "NSC 7928"], "SMILES": "C(C(O)=O)(N)C1=CC=CC=C1", "physical_data": {"Molecular Weight": "151.16", "Molecular Formula": "C8H9NO2", "Melting Point": "290 \u00b0C"}}