{"cas_no": "2835-39-4", "cn_name": "\u7570\u620a\u9178\u70ef\u4e19\u916f", "en_name": ["Allyl isovalerate", "Butanoic acid, 3-methyl-, 2-propen-1-yl ester", "Isovaleric acid, allyl ester", "Butanoic acid, 3-methyl-, 2-propenyl ester", "Allyl isovalerate", "Allyl isopentanoate", "NSC 18606", "Allyl 3-methylbutanoate"], "SMILES": "C(C(OCC=C)=O)C(C)C", "physical_data": {"Molecular Weight": "142.20", "Molecular Formula": "C8H14O2", "Boiling Point": "89-90 \u00b0C"}}