{"cas_no": "2835-95-2", "cn_name": "2-\u7532\u57fa-5-\u6c28\u57fa\u82ef\u915a", "en_name": ["5-Amino-2-methylphenol", "Phenol, 5-amino-2-methyl-", "o-Cresol, 5-amino-", "5-Amino-2-methylphenol", "3-Hydroxy-4-methylaniline", "3-Amino-6-methylphenol", "4-Amino-2-hydroxytoluene", "2-Methyl-5-aminophenol", "3-Hydroxy-p-toluidine", "5-Amino-o-cresol", "1-Methyl-2-hydroxy-4-aminobenzene", "2-Hydroxy-4-aminotoluene", "6-Methyl-3-aminophenol", "5-Amino-2-cresol"], "SMILES": "OC1=C(C)C=CC(N)=C1", "physical_data": {"Molecular Weight": "123.15", "Molecular Formula": "C7H9NO", "Melting Point": "161 \u00b0C"}}