{"cas_no": "2835-98-5", "cn_name": "6-\u6c28\u57fa\u95f4\u7532\u915a", "en_name": ["2-Amino-5-methylphenol", "Phenol, 2-amino-5-methyl-", "m-Cresol, 6-amino-", "2-Amino-5-methylphenol", "6-Amino-m-cresol", "2-Hydroxy-p-toluidine", "6-Amino-3-methylphenol", "6-Amino-3-cresol", "5-Methyl-2-aminophenol", "2-Hydroxy-4-methylaniline", "NSC 322874"], "SMILES": "OC1=C(N)C=CC(C)=C1", "physical_data": {"Molecular Weight": "123.15", "Molecular Formula": "C7H9NO", "Melting Point": "162 \u00b0C (decomp)"}}