{"cas_no": "2835-96-3", "cn_name": "2-\u7532\u57fa-4-\u6c28\u57fa\u82ef\u915a", "en_name": ["4-Amino-2-methylphenol", "Phenol, 4-amino-2-methyl-", "o-Cresol, 4-amino-", "4-Amino-2-methylphenol", "3-Methyl-4-hydroxyaniline", "2-Methyl-4-aminophenol", "4-Hydroxy-3-methylaniline", "5-Amino-2-hydroxytoluene", "3-Amino-6-hydroxytoluene", "4-Amino-o-cresol", "p-Amino-o-cresol", "2-Methyl-p-aminophenol", "4-Amino-2-cresol"], "SMILES": "CC1=C(O)C=CC(N)=C1", "physical_data": {"Molecular Weight": "123.15", "Molecular Formula": "C7H9NO", "Melting Point": "176.5 \u00b0C"}}