{"cas_no": "2836-03-5", "cn_name": "N,N-\u4e8c\u7532\u57fa\u90bb\u82ef\u4e8c\u80fa", "en_name": ["N1,N1-Dimethyl-1,2-benzenediamine", "1,2-Benzenediamine, N1,N1-dimethyl-", "o-Phenylenediamine, N,N-dimethyl-", "1,2-Benzenediamine, N,N-dimethyl-", "N1,N1-Dimethyl-1,2-benzenediamine", "o-(Dimethylamino)aniline", "N,N-Dimethyl-1,2-benzenediamine", "2-(Dimethylamino)aniline", "N,N-Dimethyl-o-phenylenediamine", "2-Amino-N,N-dimethylaniline", "1-Amino-2-(dimethylamino)benzene", "2-(N,N-Dimethylamino)aniline", "1-N,1-N-Dimethylbenzene-1,2-diamine", "2-N,2-N-Dimethylbenzene-1,2-diamine"], "SMILES": "N(C)(C)C1=C(N)C=CC=C1", "physical_data": {"Molecular Weight": "136.19", "Molecular Formula": "C8H12N2", "Boiling Point": "218 \u00b0C", "Density": "1.0749 g/cm\u00b3 @ Temp: 25 \u00b0C"}}