{"cas_no": "2836-82-0", "cn_name": "2-\u6c1f\u82ef\u57fa\u4e19\u916e", "en_name": ["1-(2-Fluorophenyl)-2-propanone", "2-Propanone, 1-(2-fluorophenyl)-", "2-Propanone, 1-(o-fluorophenyl)-", "2-Propanone, (o-fluorophenyl)-", "1-(2-Fluorophenyl)-2-propanone", "1-(o-Fluorophenyl)-2-propanone", "3-(2-Fluorophenyl)-2-propanone", "1-(2-Fluorophenyl)propan-2-one", "1-(2-Fluorophenyl)acetone", "(o-Fluorophenyl)acetone", "2-Fluorophenylacetone"], "SMILES": "C(C(C)=O)C1=C(F)C=CC=C1", "physical_data": {"Molecular Weight": "152.17", "Molecular Formula": "C9H9FO", "Boiling Point": "47 \u00b0C @ Press: 0.05 Torr"}}