{"cas_no": "2836-04-6", "cn_name": "N,N-\u4e8c\u7532\u57fa\u95f4\u82ef\u4e8c\u80fa", "en_name": ["N,N-Dimethyl-m-phenylenediamine", "1,3-Benzenediamine, N1,N1-dimethyl-", "m-Phenylenediamine, N,N-dimethyl-", "1,3-Benzenediamine, N,N-dimethyl-", "N1,N1-Dimethyl-1,3-benzenediamine", "m-Amino-N,N-dimethylaniline", "N,N-Dimethyl-m-phenylenediamine", "3-Amino-N,N-dimethylaniline", "3-(Dimethylamino)aniline", "N,N-Dimethyl-1,3-benzenediamine", "m-Dimethylaminoaniline", "3-(Dimethylamino)phenylamine", "N,N-Dimethyl-1,3-phenylenediamine", "3-Dimethylaminobenzenamine", "1-(Dimethylamino)benzen-3-amine", "(3-Aminophenyl)dimethylamine", "1-N,1-N-Dimethylbenzene-1,3-diamine", "3-N,3-N-Dimethylbenzene-1,3-diamine"], "SMILES": "N(C)(C)C1=CC(N)=CC=C1", "physical_data": {"Molecular Weight": "136.19", "Molecular Formula": "C8H12N2", "Boiling Point": "270 \u00b0C", "Melting Point": "&lt;-20 \u00b0C"}}