{"cas_no": "2836-00-2", "cn_name": "3-\u6c28\u57fa-4-\u7532\u57fa\u82ef\u915a", "en_name": ["3-Amino-4-methylphenol", "Phenol, 3-amino-4-methyl-", "p-Cresol, 3-amino-", "3-Amino-4-methylphenol", "2-Amino-4-hydroxytoluene", "4-Methyl-3-aminophenol", "5-Hydroxy-2-methylaniline", "3-Hydroxy-6-methylaniline", "3-Amino-4-cresol"], "SMILES": "NC1=C(C)C=CC(O)=C1", "physical_data": {"Molecular Weight": "123.15", "Molecular Formula": "C7H9NO", "Melting Point": "157.8 \u00b0C"}}