{"cas_no": "2836-32-0", "cn_name": "\u4e59\u9187\u9178\u94a0", "en_name": ["Sodium glycolate", "Acetic acid, 2-hydroxy-, sodium salt (1:1)", "Glycolic acid, monosodium salt", "Acetic acid, hydroxy-, monosodium salt", "Sodium glycolate", "Sodium \u03b1-hydroxyacetate", "Sodium hydroxyacetate", "Hydroxyacetic acid sodium salt", "Glycolic acid sodium salt"], "SMILES": "C(CO)(O)=O.[Na]", "physical_data": {"Molecular Weight": "", "Molecular Formula": "C2H4O3.Na", "Melting Point": "151 \u00b0C"}}