{"cas_no": "2837-89-0", "cn_name": "1,1,1,2-\u56db\u6c1f-2-\u6c2f\u4e59\u70f7", "en_name": ["HCFC 124", "Ethane, 2-chloro-1,1,1,2-tetrafluoro-", "2-Chloro-1,1,1,2-tetrafluoroethane", "Freon 124", "1-Chloro-1,2,2,2-tetrafluoroethane", "R 124", "1,1,1,2-Tetrafluorochloroethane", "FC 124", "1,1,1,2-Tetrafluoro-2-chloroethane", "HCFC 124", "CFC 124", "Fron 124", "F 124", "Khladon 124", "F 124 (halocarbon)"], "SMILES": "C(C(Cl)F)(F)(F)F", "physical_data": {"Molecular Weight": "136.48", "Molecular Formula": "C2HClF4", "Boiling Point": "-12 \u00b0C", "Melting Point": "-199 \u00b0C", "Density": "1.364 g/cm\u00b3 @ Temp: 25 \u00b0C"}}