{"cas_no": "28380-24-7", "cn_name": "\u5c3c\u65e5\u5229\u4e9a\u83cc\u7d20", "en_name": ["Nigericin", "Nigericin", "1,6-Dioxaspiro[4.5]decane, nigericin deriv.", "Polyetherin A", "X 464", "Azalomycin M", "Antibiotic X 464", "Antibiotic K 178", "Helixin C", "Stereoisomer of tetrahydro-6-[[9-methoxy-2,4,10-trimethyl-2-[octahydro-2,3\u2032-dimethyl-5\u2032-[tetrahydro-6-hydroxy-6-(hydroxymethyl)-3,5-dimethyl-2H-pyran-2-yl][2,2\u2032-bifuran]-5-yl]-1,6-dioxaspiro[4.5]dec-7-yl]methyl]-\u03b1,3-dimethyl-2H-pyran-2-acetic acid", "Antibiotic M 2", "MeSH ID: D009550"], "SMILES": "CC1C2(OC(C)(C1)C3OC(C)(CC3)C4OC(CC4C)C5OC(CO)(O)C(C)CC5C)OC(CC6OC(C(C(O)=O)C)C(C)CC6)CC(OC)C2C", "physical_data": {"Molecular Weight": "724.96", "Molecular Formula": "C40H68O11", "Melting Point": "183-185 \u00b0C"}}