{"cas_no": "28395-03-1", "cn_name": "\u5e03\u7f8e\u4ed6\u5c3c", "en_name": ["Bumetanide", "Benzoic acid, 3-(aminosulfonyl)-5-(butylamino)-4-phenoxy-", "Benzoic acid, 3-(butylamino)-4-phenoxy-5-sulfamoyl-", "3-(Aminosulfonyl)-5-(butylamino)-4-phenoxybenzoic acid", "3-n-Butylamino-4-phenoxy-5-sulfamoylbenzoic acid", "Bumetanide", "3-(Butylamino)-4-phenoxy-5-sulfamoylbenzoic acid", "Burinex", "Lunetoron", "Bufenox", "Fordiuran", "Bumethanide", "PF 1593", "Bumex", "Lixil", "Fontego", "Ro 10-6338", "Edemex", "MeSH ID: D002034"], "SMILES": "O(C1=C(NCCCC)C=C(C(O)=O)C=C1S(N)(=O)=O)C2=CC=CC=C2", "physical_data": {"Molecular Weight": "364.42", "Molecular Formula": "C17H20N2O5S", "Melting Point": "230.5 \u00b0C"}}