{"cas_no": "2839-37-4", "cn_name": "1-\u6c1f-2,3,5-\u4e09\u6eb4\u82ef", "en_name": ["1,2,5-Tribromo-3-fluorobenzene", "Benzene, 1,2,5-tribromo-3-fluoro-", "1,2,5-Tribromo-3-fluorobenzene"], "SMILES": "BrC1=C(Br)C=C(Br)C=C1F", "physical_data": {"Molecular Weight": "332.79", "Molecular Formula": "C6H2Br3F", "Melting Point": "41 \u00b0C"}}