{"cas_no": "2840-00-8", "cn_name": "4-\u6c28\u57fa-3,5-\u4e8c\u6c2f-2,6-\u4e8c\u6c1f\u5421\u5576", "en_name": ["3,5-Dichloro-2,6-difluoro-4-pyridinamine", "4-Pyridinamine, 3,5-dichloro-2,6-difluoro-", "Pyridine, 4-amino-3,5-dichloro-2,6-difluoro-", "3,5-Dichloro-2,6-difluoro-4-pyridinamine", "4-Amino-3,5-dichloro-2,6-difluoropyridine", "4-Amino-3,5-dichlorodifluoropyridine", "3,5-Dichloro-2,6-difluoropyrid-4-ylamine", "2,6-Difluoro-3,5-dichloro-4-aminopyridine", "(3,5-Dichloro-2,6-difluoropyridin-4-yl)amine"], "SMILES": "ClC=1C(N)=C(Cl)C(F)=NC1F", "physical_data": {"Molecular Weight": "198.99", "Molecular Formula": "C5H2Cl2F2N2", "Melting Point": "112-113 \u00b0C"}}