{"cas_no": "2840-29-1", "cn_name": "3-\u6c28\u57fa-4-\u6eb4\u82ef\u7532\u9178", "en_name": ["3-Amino-4-bromobenzoic acid", "Benzoic acid, 3-amino-4-bromo-", "3-Amino-4-bromobenzoic acid"], "SMILES": "C(O)(=O)C1=CC(N)=C(Br)C=C1", "physical_data": {"Molecular Weight": "216.03", "Molecular Formula": "C7H6BrNO2", "Melting Point": "206-210 \u00b0C"}}