{"cas_no": "2840-28-0", "cn_name": "3-\u6c28\u57fa-4-\u6c2f\u82ef\u7532\u9178", "en_name": ["3-Amino-4-chlorobenzoic acid", "Benzoic acid, 3-amino-4-chloro-", "3-Amino-4-chlorobenzoic acid", "4-Chloro-3-aminobenzoic acid", "NSC 211572", "4-Chloro-5-aminobenzoic acid"], "SMILES": "C(O)(=O)C1=CC(N)=C(Cl)C=C1", "physical_data": {"Molecular Weight": "171.58", "Molecular Formula": "C7H6ClNO2", "Melting Point": "214 \u00b0C"}}