{"cas_no": "2840-04-2", "cn_name": "5-\u6c28\u57fa-2-\u7532\u57fa\u82ef\u7532\u9178", "en_name": ["5-Amino-2-methylbenzoic acid", "Benzoic acid, 5-amino-2-methyl-", "o-Toluic acid, 5-amino-", "5-Amino-2-methylbenzoic acid", "3-Amino-6-methylbenzoic acid"], "SMILES": "C(O)(=O)C1=C(C)C=CC(N)=C1", "physical_data": {"Molecular Weight": "151.16", "Molecular Formula": "C8H9NO2", "Melting Point": "196 \u00b0C"}}