{"cas_no": "28418-88-4", "cn_name": "4-\u7898\u5f02\u82ef\u5e76\u544b\u5583-1,3-\u4e8c\u916e", "en_name": ["3-Iodophthalic anhydride", "1,3-Isobenzofurandione, 4-iodo-", "Phthalic anhydride, 3-iodo-", "4-Iodo-1,3-isobenzofurandione", "3-Iodophthalic anhydride", "NSC 135150", "4-Iodo-2-benzofuran-1,3-dione", "3-Iodophthalic acid anhydride", "4-Iodoisobenzofuran-1,3-dione"], "SMILES": "IC1=C2C(C(=O)OC2=O)=CC=C1", "physical_data": {"Molecular Weight": "274.01", "Molecular Formula": "C8H3IO3", "Melting Point": "159-161 \u00b0C"}}