{"cas_no": "2842-44-6", "cn_name": "N-\u7532\u57fa-N-\u7f9f\u4e59\u57fa-\u5bf9\u7532\u82ef\u80fa", "en_name": ["N-Methyl-N-(2-hydroxyethyl)-p-toluidine", "Ethanol, 2-[methyl(4-methylphenyl)amino]-", "Ethanol, 2-(N-methyl-p-toluidino)-", "2-[Methyl(4-methylphenyl)amino]ethanol", "2-(N-Methyl-N-4-tolylamino)ethanol", "N-(2-Hydroxyethyl)-N-methyl-p-toluidine", "FirstCure MHPT", "N-Methyl-N-(2-hydroxyethyl)-p-toluidine", "2-[Methyl(4-methylphenyl)amino]ethan-1-ol", "2-(Methyl-p-tolylamino)ethanol", "2-(N,4-Dimethylanilino)ethanol", "2-(Methyl(p-tolyl)amino)ethanol"], "SMILES": "N(CCO)(C)C1=CC=C(C)C=C1", "physical_data": {"Molecular Weight": "165.23", "Molecular Formula": "C10H15NO", "Boiling Point": "152-154 \u00b0C @ Press: 10 Torr"}}