{"cas_no": "2842-38-8", "cn_name": "N-\u73af\u5df1\u57fa\u5355\u4e59\u9187\u80fa", "en_name": ["2-(Cyclohexylamino)ethanol", "Ethanol, 2-(cyclohexylamino)-", "2-(Cyclohexylamino)ethanol", "N-(2-Hydroxyethyl)cyclohexylamine", "N-Cyclohexylaminoethanol", "N-Cyclohexylethanolamine", "N-Cyclohexyl-1-aminoethan-2-ol", "N-(2-Hydroxyethyl)-N-cyclohexylamine", "N-Cyclohexyl-2-hydroxyethylamine", "2-(N-Cyclohexylamino)ethanol", "Cyclohexyl(2-hydroxyethyl)amine", "NSC 1505", "2-(Cyclohexylamino)ethan-1-ol"], "SMILES": "N(CCO)C1CCCCC1", "physical_data": {"Molecular Weight": "143.23", "Molecular Formula": "C8H17NO", "Boiling Point": "234-236 \u00b0C @ Press: 762 Torr", "Melting Point": "40-41 \u00b0C", "Density": "0.9811 g/cm\u00b3 @ Temp: 25 \u00b0C"}}