{"cas_no": "28434-01-7", "cn_name": "\u751f\u7269\u82c4\u544b\u83ca\u916f", "en_name": ["Bioresmethrin", "Cyclopropanecarboxylic acid, 2,2-dimethyl-3-(2-methyl-1-propen-1-yl)-, [5-(phenylmethyl)-3-furanyl]methyl ester, (1R,3R)-", "Cyclopropanecarboxylic acid, 2,2-dimethyl-3-(2-methylpropenyl)-, (5-benzyl-3-furyl)methyl ester, trans-(+)-", "Cyclopropanecarboxylic acid, 2,2-dimethyl-3-(2-methyl-1-propenyl)-, [5-(phenylmethyl)-3-furanyl]methyl ester, (1R-trans)-", "Cyclopropanecarboxylic acid, 2,2-dimethyl-3-(2-methyl-1-propenyl)-, [5-(phenylmethyl)-3-furanyl]methyl ester, (1R,3R)-", "3-Furanmethanol, 5-benzyl-, 2,2-dimethyl-3-(2-methylpropenyl)cyclopropanecarboxylate, trans-(+)-", "5-Benzyl-3-furylmethyl (+)-trans-chrysanthemate", "Pyrethroid NRDC 107", "NRDC 107", "Penick 1390", "Bioresmethrin", "d-trans-[(5-Benzyl-3-furyl)methyl] chrysanthemumate", "SBP 1390", "d-trans-Chrysron", "d-trans-Resmethrin", "d-trans-(5-Benzyl-3-furyl)methyl chrysanthemate", "NIA 18739", "RU 11484", "(+)-trans-Resmethrin", "AI 3-27662", "1R-trans-Resemethrin", "(+)-trans-Bioresmethrin", "Isathrine", "FMC 18739", "Isatrin", "Resbuthrin"], "SMILES": "C(=C(C)C)C1C(C(OCC=2C=C(CC3=CC=CC=C3)OC2)=O)C1(C)C", "physical_data": {"Molecular Weight": "338.44", "Molecular Formula": "C22H26O3", "Melting Point": "30-35 \u00b0C", "Density": "1.05 g/cm\u00b3"}}