{"cas_no": "284461-73-0", "cn_name": "\u7d22\u62c9\u975e\u5c3c", "en_name": ["Sorafenib", "2-Pyridinecarboxamide, 4-[4-[[[[4-chloro-3-(trifluoromethyl)phenyl]amino]carbonyl]amino]phenoxy]-N-methyl-", "4-[4-[[[[4-Chloro-3-(trifluoromethyl)phenyl]amino]carbonyl]amino]phenoxy]-N-methyl-2-pyridinecarboxamide", "BAY 43-9006", "Sorafenib", "N-[4-Chloro-3-(trifluoromethyl)phenyl]-N\u2032-[4-[2-(N-methylcarbamoyl)-4-pyridyloxy]phenyl]urea", "Nevaxar"], "SMILES": "O(C=1C=C(C(NC)=O)N=CC1)C2=CC=C(NC(NC3=CC(C(F)(F)F)=C(Cl)C=C3)=O)C=C2", "physical_data": {"Molecular Weight": "464.82", "Molecular Formula": "C21H16ClF3N4O3", "Melting Point": "215 \u00b0C"}}