{"cas_no": "28447-39-4", "cn_name": "6-O-BETA-D-\u534a\u4e73\u7cd6\u57fa-D-\u8461\u8404\u7cd6", "en_name": ["\u03b2-D-Galactopyranosyl (1\u21926)-D-glucose", "D-Glucose, 6-O-\u03b2-D-galactopyranosyl-", "Allolactose", "6-O-\u03b2-D-Galactopyranosyl-D-glucose", "\u03b2-D-Galactopyranosyl (1\u21926)-D-glucose"], "SMILES": "O(CC(C(C(C(C=O)O)O)O)O)C1OC(CO)C(O)C(O)C1O", "physical_data": {"Molecular Weight": "342.30", "Molecular Formula": "C12H22O11", "Melting Point": "165 \u00b0C"}}