{"cas_no": "28447-20-3", "cn_name": "3-\u4e59\u70ef\u57fa\u82ef\u7532\u9178", "en_name": ["3-Ethenylbenzoic acid", "Benzoic acid, 3-ethenyl-", "Benzoic acid, m-vinyl-", "3-Ethenylbenzoic acid", "m-Vinylbenzoic acid", "m-Carboxystyrene", "3-Carboxystyrene", "3-Vinylbenzoic acid"], "SMILES": "C(O)(=O)C1=CC(C=C)=CC=C1", "physical_data": {"Molecular Weight": "148.16", "Molecular Formula": "C9H8O2", "Melting Point": "96 \u00b0C"}}