{"cas_no": "28443-50-7", "cn_name": "2-\u6c28\u57fa-5-\u6c2f\u82ef\u915a", "en_name": ["2-Amino-5-chlorophenol", "Phenol, 2-amino-5-chloro-", "2-Amino-5-chlorophenol", "4-Chloro-2-hydroxyaniline", "5-Chloro-2-aminophenol", "3-Chloro-6-aminophenol"], "SMILES": "OC1=C(N)C=CC(Cl)=C1", "physical_data": {"Molecular Weight": "143.57", "Molecular Formula": "C6H6ClNO", "Melting Point": "153-154 \u00b0C"}}