{"cas_no": "284493-59-0", "cn_name": "3-(BOC-\u6c28\u57fa)-3-(3-\u6c1f\u82ef\u57fa)\u4e19\u9178", "en_name": ["\u03b2-[[(1,1-Dimethylethoxy)carbonyl]amino]-3-fluorobenzenepropanoic acid", "Benzenepropanoic acid, \u03b2-[[(1,1-dimethylethoxy)carbonyl]amino]-3-fluoro-", "\u03b2-[[(1,1-Dimethylethoxy)carbonyl]amino]-3-fluorobenzenepropanoic acid", "3-tert-Butoxycarbonylamino-3-(3-fluoro-phenyl)-propionic acid", "3-[[(tert-Butoxy)carbonyl]amino]-3-(3-fluorophenyl)propanoic acid"], "SMILES": "C(NC(OC(C)(C)C)=O)(CC(O)=O)C1=CC(F)=CC=C1", "physical_data": {"Molecular Weight": "283.30", "Molecular Formula": "C14H18FNO4", "Melting Point": "111.5-114.2 \u00b0C"}}