{"cas_no": "28442-78-6", "cn_name": "2-\u6c2f-1,3-\u4e8c\u6c30\u57fa\u82ef", "en_name": ["2-Chloro-1,3-benzenedicarbonitrile", "1,3-Benzenedicarbonitrile, 2-chloro-", "Isophthalonitrile, 2-chloro-", "2-Chloro-1,3-benzenedicarbonitrile", "2-Chloroisophthalonitrile", "2-Chloro-1,3-dicyanobenzene"], "SMILES": "C(#N)C1=C(Cl)C(C#N)=CC=C1", "physical_data": {"Molecular Weight": "162.58", "Molecular Formula": "C8H3ClN2", "Melting Point": "154-156 \u00b0C"}}