{"cas_no": "28448-85-3", "cn_name": "\u8865\u9aa8\u8102\u67e5\u8033\u916e", "en_name": ["Bavachalcone", "2-Propen-1-one, 1-[2,4-dihydroxy-5-(3-methyl-2-buten-1-yl)phenyl]-3-(4-hydroxyphenyl)-, (2E)-", "2-Propen-1-one, 1-[2,4-dihydroxy-5-(3-methyl-2-butenyl)phenyl]-3-(4-hydroxyphenyl)-, (E)-", "Chalcone, 2\u2032,4,4\u2032-trihydroxy-5\u2032-(3-methyl-2-butenyl)-, (E)-", "2-Propen-1-one, 1-[2,4-dihydroxy-5-(3-methyl-2-butenyl)phenyl]-3-(4-hydroxyphenyl)-, (2E)-", "(2E)-1-[2,4-Dihydroxy-5-(3-methyl-2-buten-1-yl)phenyl]-3-(4-hydroxyphenyl)-2-propen-1-one", "Bavachalcone", "Broussochalcone B"], "SMILES": "C(C=CC1=CC=C(O)C=C1)(=O)C2=CC(CC=C(C)C)=C(O)C=C2O", "physical_data": {"Molecular Weight": "324.37", "Molecular Formula": "C20H20O4", "Melting Point": "168-169 \u00b0C"}}