{"cas_no": "28446-68-6", "cn_name": "4-\u7532\u6c27\u57fa\u8089\u6842\u8148", "en_name": ["4-Methoxycinnamonitrile", "2-Propenenitrile, 3-(4-methoxyphenyl)-", "Cinnamonitrile, p-methoxy-", "3-(4-Methoxyphenyl)-2-propenenitrile", "4-Methoxycinnamonitrile", "3-(p-Anisyl)acrylonitrile", "p-Methoxycinnamonitrile", "\u03b2-(4-Methoxyphenyl)acrylonitrile", "NSC 379284", "3-(4-Methoxyphenyl)acrylonitrile"], "SMILES": "C(=CC#N)C1=CC=C(OC)C=C1", "physical_data": {"Molecular Weight": "159.18", "Molecular Formula": "C10H9NO", "Melting Point": "61-62 \u00b0C"}}