{"cas_no": "2845-62-7", "cn_name": "\u5f02\u6c30\u9178\u82ef\u78fa\u9170\u916f", "en_name": ["Benzenesulfonyl isocyanate", "Benzenesulfonyl isocyanate", "Benzenesulfonic acid, anhydride with isocyanic acid", "Sulfone, isocyanato phenyl", "Isocyanic acid, anhydride with benzenesulfonic acid", "Phenylsulfonyl isocyanate"], "SMILES": "S(N=C=O)(=O)(=O)C1=CC=CC=C1", "physical_data": {"Molecular Weight": "183.18", "Molecular Formula": "C7H5NO3S", "Boiling Point": "79-83 \u00b0C @ Press: 0.7 Torr"}}