{"cas_no": "28456-54-4", "cn_name": "5,6-\u4e8c\u7532\u57fa--2-\u786b\u8132\u5627\u5576", "en_name": ["5,6-Dimethyl-2-thiouracil", "4(1H)-Pyrimidinone, 2,3-dihydro-5,6-dimethyl-2-thioxo-", "Uracil, 5,6-dimethyl-2-thio-", "2,3-Dihydro-5,6-dimethyl-2-thioxo-4(1H)-pyrimidinone", "5,6-Dimethylthiouracil", "NSC 60687", "5,6-Dimethyl-2-thioxo-2,3-dihydropyrimidin-4(1H)-one", "5,6-Dimethyl-2-thiouracil", "2-Mercapto-5,6-dimethyl-pyrimidin-4-ol"], "SMILES": "CC1=C(C)NC(=S)NC1=O", "physical_data": {"Molecular Weight": "156.21", "Molecular Formula": "C6H8N2OS", "Melting Point": "&gt;255 \u00b0C"}}