{"cas_no": "2845-89-8", "cn_name": "3-\u6c2f\u82ef\u7532\u919a", "en_name": ["3-Chloroanisole", "Benzene, 1-chloro-3-methoxy-", "Anisole, m-chloro-", "1-Chloro-3-methoxybenzene", "m-Chlorophenyl methyl ether", "3-Chloroanisole", "m-Chloroanisole", "m-Chloromethoxybenzene", "3-Chloromethoxybenzene", "3-Methoxychlorobenzene", "3-Chloroanisol", "3-Methoxyphenyl chloride", "4-Chloro-2-methoxybenzene"], "SMILES": "O(C)C1=CC(Cl)=CC=C1", "physical_data": {"Molecular Weight": "142.58", "Molecular Formula": "C7H7ClO", "Boiling Point": "193.5 \u00b0C", "Melting Point": "&lt;25 \u00b0C"}}