{"cas_no": "28460-01-7", "cn_name": "\u786b\u4ee3\u7532\u6c27\u57fa\u78f7\u9178\u4e8c\u4e59\u916f", "en_name": ["Diethyl P-[(methylthio)methyl]phosphonate", "Phosphonic acid, P-[(methylthio)methyl]-, diethyl ester", "Phosphonic acid, [(methylthio)methyl]-, diethyl ester", "Diethyl P-[(methylthio)methyl]phosphonate", "Diethyl [(methylthio)methyl]phosphonate", "Diethyl (methylthio)methanephosphonate", "[(Methylthio)methyl]phosphonic acid diethyl ester", "1-[Ethoxy(methylsulfanylmethyl)phosphoryl]oxyethane"], "SMILES": "P(CSC)(OCC)(OCC)=O", "physical_data": {"Molecular Weight": "198.22", "Molecular Formula": "C6H15O3PS", "Boiling Point": "119-120 \u00b0C @ Press: 10 Torr", "Density": "1.13232 g/cm\u00b3 @ Temp: 20 \u00b0C"}}