{"cas_no": "28469-92-3", "cn_name": "2\uff0c6-\u4e8c\u6c2f\u82ef\u4e59\u70ef", "en_name": ["2,6-Dichlorostyrene", "Benzene, 1,3-dichloro-2-ethenyl-", "Styrene, 2,6-dichloro-", "1,3-Dichloro-2-ethenylbenzene", "2,6-Dichlorostyrene", "1,3-Dichloro-2-vinylbenzene", "NSC 89716"], "SMILES": "C(=C)C1=C(Cl)C=CC=C1Cl", "physical_data": {"Molecular Weight": "173.04", "Molecular Formula": "C8H6Cl2", "Boiling Point": "57-60 \u00b0C @ Press: 3.0 Torr", "Melting Point": "89 \u00b0C", "Density": "1.28 g/cm\u00b3 @ Temp: 25 \u00b0C"}}