{"cas_no": "28466-26-4", "cn_name": "4-\u6c28\u57fa\u5421\u5511", "en_name": ["1H-Pyrazol-4-amine", "1H-Pyrazol-4-amine", "Pyrazole, 4-amino-", "4-Aminopyrazole", "4-Amino-1H-pyrazole", "1H-Pyrazol-4-ylamine", "1H-Pyrazole-4-amine"], "SMILES": "NC=1C=NNC1", "physical_data": {"Molecular Weight": "83.09", "Molecular Formula": "C3H5N3", "Melting Point": "81 \u00b0C"}}