{"cas_no": "2846-89-1", "cn_name": "4,5-\u4e8c\u6c28\u57fa-6-\u5def\u57fa\u5627\u5576", "en_name": ["5,6-Diamino-4(3H)-pyrimidinethione", "4(3H)-Pyrimidinethione, 5,6-diamino-", "4-Pyrimidinethiol, 5,6-diamino-", "4(1H)-Pyrimidinethione, 5,6-diamino-", "5,6-Diamino-4(3H)-pyrimidinethione", "4,5-Diamino-6-mercaptopyrimidine", "5,6-Diamino-4-pyrimidinethiol", "4,5-Diaminopyrimidine-6(1H)-thione", "NSC 30021"], "SMILES": "NC1=C(N)NC=NC1=S", "physical_data": {"Molecular Weight": "142.18", "Molecular Formula": "C4H6N4S", "Melting Point": "257 \u00b0C (decomp)"}}