{"cas_no": "28466-21-9", "cn_name": "1,3,5-\u4e09\u7532\u57fa-\u5421\u5511-4-\u80fa", "en_name": ["1,3,5-Trimethyl-1H-pyrazol-4-amine", "1H-Pyrazol-4-amine, 1,3,5-trimethyl-", "Pyrazole, 4-amino-1,3,5-trimethyl-", "1,3,5-Trimethyl-1H-pyrazol-4-amine", "4-Amino-1,3,5-trimethylpyrazole", "1,3,5-Trimethyl-4-pyrazolamine", "(1,3,5-Trimethyl-1H-pyrazol-4-yl)amine", "4-Amino-2,3,5-trimethyl-2H-pyrazole", "4-Amino-1,3,5-trimethyl-1H-pyrazole"], "SMILES": "NC1=C(C)N(C)N=C1C", "physical_data": {"Molecular Weight": "125.17", "Molecular Formula": "C6H11N3", "Melting Point": "103-105 \u00b0C"}}