{"cas_no": "2847-00-9", "cn_name": "1,2:5,6-\u4e8c-O-\u5f02\u4e9a\u4e19\u57fa-\u0391-D-3-\u544b\u5583\u6838\u916e\u7cd6", "en_name": ["1,2:5,6-Bis-O-(1-methylethylidene)-\u03b1-D-ribo-hexofuranos-3-ulose", "\u03b1-D-ribo-Hexofuranos-3-ulose, 1,2:5,6-bis-O-(1-methylethylidene)-", "D-ribo-Hexofuranos-3-ulose, 1,2:5,6-di-O-isopropylidene-, \u03b1-", "D-ribo-Hexofuranos-3-ulose, 1,2:5,6-di-O-isopropylidene-", "Furo[2,3-d]-1,3-dioxole, \u03b1-D-ribo-hexofuranos-3-ulose deriv.", "1,2:5,6-Bis-O-(1-methylethylidene)-\u03b1-D-ribo-hexofuranos-3-ulose", "1,2:5,6-Di-O-isopropylidene-\u03b1-D-ribo-hexofuranos-3-ulose", "1,2:5,6-Di-O-isopropylidene-\u03b1-D-ribohexofuran-3-ulose"], "SMILES": "O=C1C2C(OC1C3COC(C)(C)O3)OC(C)(C)O2", "physical_data": {"Molecular Weight": "258.27", "Molecular Formula": "C12H18O6", "Boiling Point": "97 \u00b0C @ Press: 0.01 Torr", "Melting Point": "37-40 \u00b0C"}}