{"cas_no": "2847-30-5", "cn_name": "2-\u7532\u6c27\u57fa-3-\u7532\u57fa\u5421\u55ea", "en_name": ["2-Methoxy-3-methylpyrazine", "Pyrazine, 2-methoxy-3-methyl-", "2-Methoxy-3-methylpyrazine", "2-Methyl-3-methoxypyrazine", "3-Methoxy-2-methylpyrazine"], "SMILES": "O(C)C=1C(C)=NC=CN1", "physical_data": {"Molecular Weight": "124.14", "Molecular Formula": "C6H8N2O", "Boiling Point": "48-50 \u00b0C @ Press: 13 Torr"}}