{"cas_no": "28479-19-8", "cn_name": "3-(\u7532\u57fa\u786b\u4ee3)\u5f02\u6c30\u9178\u82ef\u916f", "en_name": ["3-(Methylthio)phenyl isocyanate", "Benzene, 1-isocyanato-3-(methylthio)-", "Isocyanic acid, m-(methylthio)phenyl ester", "1-Isocyanato-3-(methylthio)benzene", "m-(Methylthio)phenyl isocyanate", "3-(Methylthio)phenyl isocyanate", "3-(Methylmercapto)phenyl isocyanate", "1-Isocyanato-3-(methylsulfanyl)benzene", "3-(Methylsulfanyl)phenylisocyanate"], "SMILES": "N(=C=O)C1=CC(SC)=CC=C1", "physical_data": {"Molecular Weight": "165.21", "Molecular Formula": "C8H7NOS", "Boiling Point": "120-121.5 \u00b0C @ Press: 10 Torr"}}