{"cas_no": "28478-46-8", "cn_name": "4-\u7f9f\u57fa-2-\u7532\u57fa\u6c27\u82ef\u7532\u9178\u7532\u916f", "en_name": ["Benzoic acid, 4-hydroxy-2-methoxy-, methyl ester", "Benzoic acid, 4-hydroxy-2-methoxy-, methyl ester", "o-Anisic acid, 4-hydroxy-, methyl ester", "4-Hydroxy-2-methoxybenzoic acid methyl ester", "Methyl 4-hydroxy-2-methoxybenzoate", "Methyl 4-hydroxy-o-anisate"], "SMILES": "C(OC)(=O)C1=C(OC)C=C(O)C=C1", "physical_data": {"Molecular Weight": "182.17", "Molecular Formula": "C9H10O4", "Melting Point": "110 \u00b0C"}}