{"cas_no": "28485-17-8", "cn_name": "5-\u5c3f\u5627\u5576\u7532\u9178\u4e59\u916f", "en_name": ["Ethyl 1,2,3,4-tetrahydro-2,4-dioxo-5-pyrimidinecarboxylate", "5-Pyrimidinecarboxylic acid, 1,2,3,4-tetrahydro-2,4-dioxo-, ethyl ester", "Ethyl 1,2,3,4-tetrahydro-2,4-dioxo-5-pyrimidinecarboxylate", "Uracil-5-carboxylic acid ethyl ester", "5-Carbethoxyuracil", "5-Ethoxycarbonyluracil", "NSC 513173", "Ethyl 2,4-dioxo-1,2,3,4-tetrahydropyrimidine-5-carboxylate", "2,4-Dihydroxypyrimidine-5-carboxylic acid ethyl ester"], "SMILES": "C(OCC)(=O)C=1C(=O)NC(=O)NC1", "physical_data": {"Molecular Weight": "184.15", "Molecular Formula": "C7H8N2O4", "Melting Point": "236-237 \u00b0C"}}