{"cas_no": "2848-96-6", "cn_name": "7-\u6c2f-5-(2-\u6c2f\u82ef\u57fa)-1,3-\u4e8c\u6c22-2-\u6c27\u4ee3-2H-1,4-\u82ef\u5e76\u4e8c\u6c2e\u6742\u5353-3-\u57fa\u4e59\u9178\u916f", "en_name": ["Lorazepam acetate", "2H-1,4-Benzodiazepin-2-one, 3-(acetyloxy)-7-chloro-5-(2-chlorophenyl)-1,3-dihydro-", "2H-1,4-Benzodiazepin-2-one, 7-chloro-5-(o-chlorophenyl)-1,3-dihydro-3-hydroxy-, acetate (ester)", "2H-1,4-Benzodiazepin-2-one, 7-chloro-5-(o-chlorophenyl)-1,3-dihydro-3-hydroxy-, acetate", "3-(Acetyloxy)-7-chloro-5-(2-chlorophenyl)-1,3-dihydro-2H-1,4-benzodiazepin-2-one", "Ro 7-8407", "Lorazepam acetate", "3-Acetoxy-7-chloro-5-(o-chlorophenyl)-1,3-dihydro-2H-1,4-benzodiazepin-2-one", "(\u00b1)-Lorazepam acetate"], "SMILES": "ClC1=C(C=2C=3C(NC(=O)C(OC(C)=O)N2)=CC=C(Cl)C3)C=CC=C1", "physical_data": {"Molecular Weight": "363.19", "Molecular Formula": "C17H12Cl2N2O3", "Melting Point": "243-245 \u00b0C"}}