{"cas_no": "28484-49-3", "cn_name": "5-\u0394-\u6eb4\u4e01\u57fa\u4e59\u5185\u9170\u80fa", "en_name": ["5-(4-Bromobutyl)-2,4-imidazolidinedione", "2,4-Imidazolidinedione, 5-(4-bromobutyl)-", "Hydantoin, 5-(4-bromobutyl)-", "5-(4-Bromobutyl)-2,4-imidazolidinedione", "5-(4-Bromobutyl)hydantoin"], "SMILES": "C(CCCBr)C1NC(=O)NC1=O", "physical_data": {"Molecular Weight": "235.08", "Molecular Formula": "C7H11BrN2O2", "Melting Point": "129-131 \u00b0C"}}