{"cas_no": "28491-52-3", "cn_name": "5-\u6c28\u57fa-1H\u5421\u5511-3-\u916e", "en_name": ["3-Amino-5-hydroxypyrazole", "3H-Pyrazol-3-one, 5-amino-1,2-dihydro-", "Pyrazol-3-ol, 5-amino-", "3-Pyrazolin-5-one, 3-amino-", "5-Amino-1,2-dihydro-3H-pyrazol-3-one", "3-Amino-3-pyrazolin-5-one", "5-Amino-3-pyrazolone", "NSC 408479", "5-Amino-1H-pyrazol-3-ol", "3-Amino-5-hydroxypyrazole", "3-Amino-1H-pyrazol-5-ol", "5-Aminopyrazol-3-ol", "NSC 60188", "5-Amino-3-hydroxy-1H-pyrazole", "5-Amino-1H-pyrazol-3(2H)-one"], "SMILES": "NC1=CC(=O)NN1", "physical_data": {"Molecular Weight": "99.09", "Molecular Formula": "C3H5N3O", "Melting Point": "204 \u00b0C"}}