{"cas_no": "2849-93-6", "cn_name": "1H-\u82ef\u5e76\u54aa\u5511-2-\u7532\u9178", "en_name": ["1H-Benzimidazole-2-carboxylic acid", "1H-Benzimidazole-2-carboxylic acid", "2-Benzimidazolecarboxylic acid", "2-Carboxybenzimidazole", "NSC 31597", "NSC 68183", "Benzo[d]imidazole-2-carboxylic acid", "1H-Benzo[d]imidazole-2-carboxylic acid", "1H-1,3-Benzodiazole-2-carboxylic acid"], "SMILES": "C(O)(=O)C=1NC=2C(N1)=CC=CC2", "physical_data": {"Molecular Weight": "162.15", "Molecular Formula": "C8H6N2O2", "Melting Point": "174 \u00b0C (decomp)"}}