{"cas_no": "285-67-6", "cn_name": "1,2-\u73af\u6c27\u73af\u620a\u70f7", "en_name": ["Cyclopentene, oxide", "6-Oxabicyclo[3.1.0]hexane", "Cyclopentane, 1,2-epoxy-", "Cyclopentene oxide", "Epoxycyclopentane", "Cyclopentene, oxide", "Cyclopentene epoxide", "Cyclopentane oxide", "1,2-Epoxycyclopentane", "cis-1,2-Epoxycyclopentane", "(\u00b1)-6-Oxabicyclo[3.1.0]hexane", "NSC 148216", "NSC 196230"], "SMILES": "C12C(O1)CCC2", "physical_data": {"Molecular Weight": "84.12", "Molecular Formula": "C5H8O", "Boiling Point": "102 \u00b0C", "Density": "0.9670 g/cm\u00b3 @ Temp: 23 \u00b0C"}}