{"cas_no": "285-69-8", "cn_name": "3,4-\u73af\u6c27\u56db\u6c22\u544b\u5583", "en_name": ["3,6-Dioxabicyclo[3.1.0]hexane", "3,6-Dioxabicyclo[3.1.0]hexane", "Furan, 3,4-epoxytetrahydro-", "3,4-Epoxytetrahydrofuran", "NSC 196231"], "SMILES": "C12C(O1)COC2", "physical_data": {"Molecular Weight": "86.09", "Molecular Formula": "C4H6O2", "Boiling Point": "143-144 \u00b0C"}}