{"cas_no": "28523-86-6", "cn_name": "\u4e03\u6c1f\u70f7", "en_name": ["Sevoflurane", "Propane, 1,1,1,3,3,3-hexafluoro-2-(fluoromethoxy)-", "Ether, fluoromethyl 2,2,2-trifluoro-1-(trifluoromethyl)ethyl", "1,1,1,3,3,3-Hexafluoro-2-(fluoromethoxy)propane", "Sevoflurane", "Fluoromethyl 2,2,2-trifluoro-1-(trifluoromethyl)ethyl ether", "Fluoromethyl 1,1,1,3,3,3-hexafluoro-2-propyl ether", "R-E 347", "347mmzE\u03b2\u03b3", "Sevofluran", "Sevofrane", "MR 6S4", "Ultane", "Sevorane", "Sevoflo", "Sevocris", "Fluoromethyl 1,1,1,3,3,3-hexafluoroisopropyl ether", "Sevohale"], "SMILES": "C(C(F)(F)F)(C(F)(F)F)OCF", "physical_data": {"Molecular Weight": "200.05", "Molecular Formula": "C4H3F7O", "Boiling Point": "58.5 \u00b0C", "Melting Point": "&lt;25 \u00b0C"}}