{"cas_no": "28537-70-4", "cn_name": "1,4-\u53cc(\u9a6c\u6765\u9170\u4e9a\u80fa\u57fa)\u4e01\u70f7", "en_name": ["1,4-Bis(maleimido)butane", "1H-Pyrrole-2,5-dione, 1,1\u2032-(1,4-butanediyl)bis-", "Maleimide, N,N\u2032-tetramethylenedi-", "1,1\u2032-(1,4-Butanediyl)bis[1H-pyrrole-2,5-dione]", "N,N\u2032-Tetramethylenebis[maleimide]", "Tetramethylenebismaleimide", "Tetramethylenedimaleimide", "1,4-Bis(maleimido)butane", "N,N\u2032-Tetramethylenedimaleimide", "N,N\u2032-1,4-Butylenebismaleimide", "NSC 44747", "BMB Crosslinker", "1,4-Di(maleimido)butane", "1,4-Bis(maleimide)butane", "1-[4-(2,5-Dioxopyrrol-1-yl)butyl]pyrrole-2,5-dione"], "SMILES": "C(CCCN1C(=O)C=CC1=O)N2C(=O)C=CC2=O", "physical_data": {"Molecular Weight": "248.23", "Molecular Formula": "C12H12N2O4", "Melting Point": "206 \u00b0C"}}