{"cas_no": "2854-16-2", "cn_name": "1-\u6c28\u57fa-2-\u7532\u57fa-2-\u4e19\u9187", "en_name": ["1-Amino-2-methyl-2-propanol", "2-Propanol, 1-amino-2-methyl-", "1-Amino-2-methyl-2-propanol", "3-Amino-2-methyl-2-propanol", "2-Amino-\u03b1,\u03b1-dimethylethanol", "2-Hydroxyisobutylamine", "2-Hydroxy-2-methyl-1-propylamine", "2-Methyl-2-hydroxypropylamine", "NSC 17697", "1,1-Dimethylethanolamine", "2-Hydroxy-2-methylpropan-1-amine", "2-Hydroxy-2-methylpropanamine", "tert-Butanolamine", "1-Amino-2-methylpropan-2-ol"], "SMILES": "C(CN)(C)(C)O", "physical_data": {"Molecular Weight": "89.14", "Molecular Formula": "C4H11NO", "Boiling Point": "150-150.5 \u00b0C"}}