{"cas_no": "28541-83-5", "cn_name": "4-\u7532\u57fa\u4f1e\u5f62\u916e\u57fa-\u0391-D-\u5421\u5583\u7518\u9732\u7cd6\u82f7", "en_name": ["4-Methylumbelliferyl \u03b1-D-mannopyranoside", "2H-1-Benzopyran-2-one, 7-(\u03b1-D-mannopyranosyloxy)-4-methyl-", "Mannopyranoside, 4-methyl-2-oxo-2H-1-benzopyran-7-yl, \u03b1-D-", "7-(\u03b1-D-Mannopyranosyloxy)-4-methyl-2H-1-benzopyran-2-one", "4-Methylumbelliferyl \u03b1-D-mannopyranoside", "4-Methylumbelliferyl \u03b1-D-mannoside", "4\u2032-Methylumbelliferyl \u03b1-D-mannopyranoside", "4-Methylumbelliferyl \u03b1-mannopyranoside"], "SMILES": "CC=1C=2C(=CC(OC3OC(CO)C(O)C(O)C3O)=CC2)OC(=O)C1", "physical_data": {"Molecular Weight": "338.31", "Molecular Formula": "C16H18O8", "Melting Point": "132-134 \u00b0C"}}