{"cas_no": "2854-32-2", "cn_name": "2-[1-(4-\u6c2f\u82ef\u7532\u9170\u57fa)-5-\u7532\u6c27\u57fa-2-\u7532\u57fa-1H-\u5432\u54da-3-\u57fa]-1-(4-\u5417\u5549\u57fa)\u4e59\u916e", "en_name": ["2-[1-(4-Chlorobenzoyl)-5-methoxy-2-methyl-1H-indol-3-yl]-1-(4-morpholinyl)ethanone", "Ethanone, 2-[1-(4-chlorobenzoyl)-5-methoxy-2-methyl-1H-indol-3-yl]-1-(4-morpholinyl)-", "Indole, 1-(p-chlorobenzoyl)-5-methoxy-2-methyl-3-[(morpholinocarbonyl)methyl]-", "1H-Indole, 1-(4-chlorobenzoyl)-5-methoxy-2-methyl-3-[2-(4-morpholinyl)-2-oxoethyl]-", "2-[1-(4-Chlorobenzoyl)-5-methoxy-2-methyl-1H-indol-3-yl]-1-(4-morpholinyl)ethanone", "BML 190", "LM-4131", "2-(1-(4-Chlorobenzoyl)-5-methoxy-2-methyl-1H-indol-3-yl)-1-morpholinoethanone", "2-[1-(4-Chlorobenzoyl)-5-methoxy-2-methyl-1H-indol-3-yl]-1-(morpholin-4-yl)ethan-1-one", "2-[1-(4-Chlorobenzoyl)-5-methoxy-2-methylindol-3-yl]-1-morpholin-4-ylethanone"], "SMILES": "C(=O)(N1C=2C(C(CC(=O)N3CCOCC3)=C1C)=CC(OC)=CC2)C4=CC=C(Cl)C=C4", "physical_data": {"Molecular Weight": "426.89", "Molecular Formula": "C23H23ClN2O4", "Melting Point": "162.0-163.5 \u00b0C"}}