{"cas_no": "2854-09-3", "cn_name": "\u58ec\u57fa\u915a\u805a\u6c27\u4e59\u70ef\u919aNP-10", "en_name": ["1-(2-Hydroxyethyl)-5-nitro-1H-pyrrole-2-carboxamide", "1H-Pyrrole-2-carboxamide, 1-(2-hydroxyethyl)-5-nitro-", "Pyrrole-2-carboxamide, 1-(2-hydroxyethyl)-5-nitro-", "1-(2-Hydroxyethyl)-5-nitro-1H-pyrrole-2-carboxamide", "15960RP", "1-(2-Hydroxyethyl)-2-carbamoyl-5-nitropyrrole", "NP 10", "NP 10 (pharmaceutical)", "1-(2-Hydroxyethyl)-5-nitropyrrole-2-carboxamide"], "SMILES": "C(CO)N1C(C(N)=O)=CC=C1N(=O)=O", "physical_data": {"Molecular Weight": "199.16", "Molecular Formula": "C7H9N3O4", "Melting Point": "175-176 \u00b0C"}}