{"cas_no": "28553-12-0", "cn_name": "\u90bb\u82ef\u4e8c\u7532\u9178\u4e8c\u5f02\u58ec\u916f", "en_name": ["Diisononyl phthalate", "1,2-Benzenedicarboxylic acid, 1,2-diisononyl ester", "Phthalic acid, diisononyl ester", "1,2-Benzenedicarboxylic acid, diisononyl ester", "Isononyl alcohol, phthalate (2:1)", "Diisononyl phthalate", "Palatinol DN", "Vestinol NN", "Witamol 150", "ENJ 2065", "DINP", "Sansocizer DINP", "Phthalisocizer DINP", "Palatinol N", "Jayflex DINP", "Baylectrol 4200", "Vinycizer 90", "Palatinol DINP", "Vestinol 9", "JAY-DINP", "Diacizer DINP", "Monocizer DINP", "Plastomoll DINP", "Jayflex DINP-S"], "SMILES": "", "physical_data": {"Molecular Weight": "", "Molecular Formula": "C26H42O4", "Boiling Point": "244-252 \u00b0C @ Press: 5 Torr", "Melting Point": "-43 \u00b0C", "Density": "1 x 10<sup>-6</sup> g/cm\u00b3 @ Temp: 20 \u00b0C"}}