{"cas_no": "2855-13-2", "cn_name": "\u5f02\u4f5b\u5c14\u916e\u4e8c\u80fa", "en_name": ["Isophorone diamine", "Cyclohexanemethanamine, 5-amino-1,3,3-trimethyl-", "Cyclohexanemethylamine, 5-amino-1,3,3-trimethyl-", "5-Amino-1,3,3-trimethylcyclohexanemethanamine", "3-Aminomethyl-3,5,5-trimethylcyclohexylamine", "1-Amino-3-(aminomethyl)-3,5,5-trimethylcyclohexane", "Isophorone diamine", "1-Amino-3,3,5-trimethyl-5-aminomethylcyclohexane", "5-Amino-1,3,3-trimethylcyclohexanemethylamine", "1,3,3-Trimethyl-1-aminomethyl-5-aminocyclohexane", "3,3,5-Trimethyl-5-aminomethylcyclohexylamine", "IPD", "Araldite HY 5083", "Vestamin IPD", "Chemammina CA 17", "Luxam IPD", "Polypox IPD", "IPDA", "Rutadur SG", "HY 3484", "Epilox IPD", "LH 281", "Araldite HY 5161", "HY 5161", "3-Aminomethyl-3,5,5-trimethyl-1-cyclohexylamine", "Rutapox H 550L", "Vestamine IPDA", "RIM 137", "D 230", "CeTePox 1314NFN", "Epikure 943", "3-Amino-1,5,5-trimethyl-1-cyclohexanemathanamine", "Vestanat IPD", "Baxxodur EC 201", "EPH 943", "Epikure 3300", "Epicure 3300", "3-(Aminomethyl)-3,5,5-trimethylcyclohexanamine", "Vestamid IPD", "Chemcure 331", "Aradur 42", "Isophorondiamine", "Aradur 42BD", "1-Aminomethyl-5-amino-1,3,3-trimethyl cyclohexane", "Nitoprime 25 Hardener", "Wanamine IPDA", "KH 816", "ER 2943", "Surf Clear SCD", "Docure KH 816", "Hardener 200B", "Cyclohexanemethanamine, 4-amino-2,2,6-trimethyl-", "ED 46"], "SMILES": "C(N)C1(C)CC(C)(C)CC(N)C1", "physical_data": {"Molecular Weight": "170.30", "Molecular Formula": "C10H22N2", "Boiling Point": "247 \u00b0C", "Melting Point": "10 \u00b0C", "Density": "0.922 g/cm\u00b3"}}