{"cas_no": "2855-08-5", "cn_name": "3,3-\u4e8c\u7532\u57fa-1-\u6c2f\u4e01\u70f7", "en_name": ["1-Chloro-3,3-dimethylbutane", "Butane, 1-chloro-3,3-dimethyl-", "1-Chloro-3,3-dimethylbutane", "Neohexyl chloride", "3,3-Dimethylbutyl chloride", "4-Chloro-2,2-dimethylbutane", "NSC 76580"], "SMILES": "C(C(C)(C)C)CCl", "physical_data": {"Molecular Weight": "120.62", "Molecular Formula": "C6H13Cl", "Boiling Point": "115 \u00b0C", "Density": "0.8670 g/cm\u00b3 @ Temp: 20 \u00b0C"}}