{"cas_no": "28556-81-2", "cn_name": "2,6-\u4e8c\u7532\u82ef\u57fa\u5f02\u6c30\u9178\u916f", "en_name": ["2,6-Dimethylphenyl isocyanate", "Benzene, 2-isocyanato-1,3-dimethyl-", "Isocyanic acid, 2,6-xylyl ester", "2-Isocyanato-1,3-dimethylbenzene", "2,6-Xylyl isocyanate", "2,6-Dimethylphenyl isocyanate", "NSC 165602", "2,6-Dimethylphenyleneisocyanate"], "SMILES": "N(=C=O)C1=C(C)C=CC=C1C", "physical_data": {"Molecular Weight": "147.17", "Molecular Formula": "C9H9NO", "Boiling Point": "87-89 \u00b0C @ Press: 12 Torr"}}