{"cas_no": "2855-27-8", "cn_name": "1,2,4-\u4e09\u4e59\u57fa\u73af\u5df1\u70f7", "en_name": ["1,2,4-Trivinylcyclohexane", "Cyclohexane, 1,2,4-triethenyl-", "Cyclohexane, 1,2,4-trivinyl-", "1,2,4-Triethenylcyclohexane", "1,2,4-Trivinylcyclohexane", "NSC 78467", "1,2,4-Tris(ethenyl)cyclohexane"], "SMILES": "C(=C)C1C(C=C)CCC(C=C)C1", "physical_data": {"Molecular Weight": "162.27", "Molecular Formula": "C12H18", "Boiling Point": "90 \u00b0C @ Press: 11 Torr"}}