{"cas_no": "2855-19-8", "cn_name": "1,2-\u73af\u6c27\u5341\u4e8c\u70f7", "en_name": ["1,2-Epoxydodecane", "Oxirane, 2-decyl-", "Dodecane, 1,2-epoxy-", "Oxirane, decyl-", "2-Decyloxirane", "1,2-Dodecene oxide", "1,2-Epoxy-n-dodecane", "1,2-Epoxydodecane", "Nedox 1200", "1-Dodecene oxide", "\u03b1-Dodecene oxide", "Decyloxirane", "Vikolox 12", "1,2-Dodecylene oxide", "1-Dodecene epoxide", "(\u00b1)-1,2-Epoxydodecane", "(\u00b1)-Decyloxirane", "1,2-Dodecene epoxide", "NSC 6785", "2-n-Decyloxirane", "Dodecylene oxide"], "SMILES": "C(CCCCCCCCC)C1CO1", "physical_data": {"Molecular Weight": "184.32", "Molecular Formula": "C12H24O", "Boiling Point": "124-125 \u00b0C @ Press: 15 Torr", "Density": "0.8402 g/cm\u00b3 @ Temp: 22 \u00b0C"}}