{"cas_no": "2856-63-5", "cn_name": "\u90bb\u6c2f\u82ef\u4e59\u8148", "en_name": ["(2-Chlorophenyl)acetonitrile", "Benzeneacetonitrile, 2-chloro-", "Acetonitrile, (o-chlorophenyl)-", "2-Chlorobenzeneacetonitrile", "o-Chlorobenzyl cyanide", "2-Chlorobenzyl cyanide", "(2-Chlorophenyl)acetonitrile", "o-Chlorophenylacetonitrile", "o-Chlorobenzyl nitrile", "NSC 39462", "2-(2-Chlorophenyl)acetonitrile"], "SMILES": "C(C#N)C1=C(Cl)C=CC=C1", "physical_data": {"Molecular Weight": "151.59", "Molecular Formula": "C8H6ClN", "Boiling Point": "251 \u00b0C", "Melting Point": "24 \u00b0C"}}