{"cas_no": "2857-97-8", "cn_name": "\u4e09\u7532\u57fa\u6eb4\u7845\u70f7", "en_name": ["Bromotrimethylsilane", "Silane, bromotrimethyl-", "Bromotrimethylsilane", "Trimethylsilyl bromide", "Trimethylbromosilane", "Trimethylsilicon bromide", "NSC 139857", "TMSBr"], "SMILES": "[Si](Br)(C)(C)C", "physical_data": {"Molecular Weight": "153.09", "Molecular Formula": "C3H9BrSi", "Boiling Point": "80 \u00b0C", "Melting Point": "-44 \u00b0C", "Density": "1.172 g/cm\u00b3"}}