{"cas_no": "2859-68-9", "cn_name": "2-\u4e19\u9187\u5421\u5576", "en_name": ["2-Pyridinepropanol", "2-Pyridinepropanol", "3-(2-Pyridyl)-1-propanol", "2-Pyridylpropanol", "3-(2-Pyridyl)propanol", "2-(3-Hydroxypropyl)pyridine", "3-(\u03b1-Pyridyl)propanol", "2-(\u03b3-Hydroxypropyl)pyridine", "3-Pyridin-2-ylpropanol", "3-Pyridin-2-ylpropan-1-ol", "NSC 2243", "Pyripropanol"], "SMILES": "C(CCO)C1=CC=CC=N1", "physical_data": {"Molecular Weight": "137.18", "Molecular Formula": "C8H11NO", "Boiling Point": "260.2 \u00b0C", "Melting Point": "34 \u00b0C"}}