{"cas_no": "28590-40-1", "cn_name": "7,4'-\u4e8c-O-\u7532\u57fa\u5723\u8349\u915a", "en_name": ["Persicogenin", "4H-1-Benzopyran-4-one, 2,3-dihydro-5-hydroxy-2-(3-hydroxy-4-methoxyphenyl)-7-methoxy-, (2S)-", "4H-1-Benzopyran-4-one, 2,3-dihydro-5-hydroxy-2-(3-hydroxy-4-methoxyphenyl)-7-methoxy-, (S)-", "(2S)-2,3-Dihydro-5-hydroxy-2-(3-hydroxy-4-methoxyphenyl)-7-methoxy-4H-1-benzopyran-4-one", "Persicogenin", "Eriodictyol-4\u2032,7-dimethyl ether", "Eriodictyol 7,4\u2032-dimethyl ether", "Hesperetin 7-methyl ether", "NSC 266222"], "SMILES": "O=C1C=2C(OC(C1)C3=CC(O)=C(OC)C=C3)=CC(OC)=CC2O", "physical_data": {"Molecular Weight": "316.31", "Molecular Formula": "C17H16O6", "Melting Point": "165-167 \u00b0C"}}