{"cas_no": "2859-67-8", "cn_name": "3-\u5421\u5576\u4e19\u9187", "en_name": ["3-Pyridinepropanol", "3-Pyridinepropanol", "3-(3-Hydroxypropyl)pyridine", "3-(3-Pyridyl)propanol", "3-(3-Pyridyl)-1-propanol", "3-(\u03b2-Pyridyl)propanol", "3-(3-Pyridinyl)-1-propanol", "NSC 66564", "3-(Pyridin-3-yl)propanol"], "SMILES": "C(CCO)C=1C=CC=NC1", "physical_data": {"Molecular Weight": "137.18", "Molecular Formula": "C8H11NO", "Boiling Point": "284 \u00b0C"}}