{"cas_no": "2859-78-1", "cn_name": "4-\u6eb4\u9ece\u82a6\u919a", "en_name": ["Bromoveratrole", "Benzene, 4-bromo-1,2-dimethoxy-", "Veratrole, 4-bromo-", "4-Bromo-1,2-dimethoxybenzene", "1-Bromo-3,4-dimethoxybenzene", "4-Bromoveratrole", "3,4-Dimethoxyphenyl bromide", "3,4-Dimethoxybromobenzene", "Bromoveratrole", "4-Bromo-2-methoxyanisole", "3,4-Dimethoxy-1-bromobenzene", "NSC 36284", "1,2-Dimethoxy-4-bromobenzene"], "SMILES": "O(C)C1=C(OC)C=C(Br)C=C1", "physical_data": {"Molecular Weight": "217.06", "Molecular Formula": "C8H9BrO2", "Boiling Point": "254.5 \u00b0C", "Melting Point": "123 \u00b0C", "Density": "1.5068 g/cm\u00b3 @ Temp: 20 \u00b0C"}}