{"cas_no": "285986-31-4", "cn_name": "STAT5 Inhibitor", "en_name": ["3-Pyridinecarboxylic acid 2-[(4-oxo-4H-1-benzopyran-3-yl)methylene]hydrazide", "3-Pyridinecarboxylic acid, 2-[(4-oxo-4H-1-benzopyran-3-yl)methylene]hydrazide", "3-Pyridinecarboxylic acid, [(4-oxo-4H-1-benzopyran-3-yl)methylene]hydrazide", "3-Pyridinecarboxylic acid 2-[(4-oxo-4H-1-benzopyran-3-yl)methylene]hydrazide", "SC 355979", "STAT 5-IN-1"], "SMILES": "O=C1C=2C(OC=C1C=NNC(=O)C=3C=CC=NC3)=CC=CC2", "physical_data": {"Molecular Weight": "293.28", "Molecular Formula": "C16H11N3O3", "Melting Point": "214-216 \u00b0C"}}