{"cas_no": "285983-48-4", "cn_name": "1-[2-(4-\u7532\u57fa\u82ef\u57fa)-5-\u53d4\u4e01\u57fa\u5421\u5511-3-\u57fa]-3-[4-(2-\u5417\u5549-4-\u57fa\u4e59\u6c27\u57fa)\u8418-1-\u57fa]\u8132", "en_name": ["Doramapimod", "Urea, N-[3-(1,1-dimethylethyl)-1-(4-methylphenyl)-1H-pyrazol-5-yl]-N\u2032-[4-[2-(4-morpholinyl)ethoxy]-1-naphthalenyl]-", "N-[3-(1,1-Dimethylethyl)-1-(4-methylphenyl)-1H-pyrazol-5-yl]-N\u2032-[4-[2-(4-morpholinyl)ethoxy]-1-naphthalenyl]urea", "Birb 796", "Doramapimod", "BIRB 796BS", "1-[5-tert-butyl-2-(4-methylphenyl)pyrazol-3-yl]-3-[4-(2-morpholin-4-ylethoxy)naphthalen-1-yl]urea", "BRB 796", "1-[5-tert-Butyl-2-(4-methylphenyl)pyrazol-3-yl]-3-[4-(2-morpholin-4-ylethoxy)naphthalen-1-yl]urea", "UNC 10225354", "UNC10225354"], "SMILES": "N(C(NC=1C2=C(C(OCCN3CCOCC3)=CC1)C=CC=C2)=O)C=4N(N=C(C(C)(C)C)C4)C5=CC=C(C)C=C5", "physical_data": {"Molecular Weight": "527.66", "Molecular Formula": "C31H37N5O3", "Melting Point": "142-143 \u00b0C"}}