{"cas_no": "28598-81-4", "cn_name": "9-\u6eb4\u58ec\u9178\u4e59\u916f", "en_name": ["Nonanoic acid, 9-bromo-, ethyl ester", "Nonanoic acid, 9-bromo-, ethyl ester", "Ethyl 9-bromononanoate"], "SMILES": "C(CCCCCCCBr)C(OCC)=O", "physical_data": {"Molecular Weight": "265.19", "Molecular Formula": "C11H21BrO2", "Boiling Point": "150-154 \u00b0C @ Press: 10 Torr"}}