{"cas_no": "286-20-4", "cn_name": "\u6c27\u5316\u73af\u5df1\u70ef", "en_name": ["Cyclohexene oxide", "7-Oxabicyclo[4.1.0]heptane", "Cyclohexane, 1,2-epoxy-", "1,2-Epoxycyclohexane", "1,2-Cyclohexene oxide", "Cyclohexene epoxide", "Cyclohexylene oxide", "Tetramethyleneoxirane", "Cyclohexane oxide", "cis-1,2-Epoxycyclohexane", "2,3-Tetramethyleneoxirane", "cis-7-Oxabicyclo[4.1.0]heptane", "cis-Cyclohexene oxide", "NSC 128074", "NSC 5218", "Cyclohexene oxide"], "SMILES": "C12C(O1)CCCC2", "physical_data": {"Molecular Weight": "98.14", "Molecular Formula": "C6H10O", "Boiling Point": "129-130 \u00b0C", "Melting Point": "&gt;-10 \u00b0C", "Density": "0.967 g/cm\u00b3 @ Temp: 25 \u00b0C"}}