{"cas_no": "286-62-4", "cn_name": "1,2-\u73af\u6c27\u73af\u8f9b\u70f7", "en_name": ["Cyclooctene oxide", "9-Oxabicyclo[6.1.0]nonane", "Cyclooctane, 1,2-epoxy-", "Epoxycyclooctane", "1,2-Epoxycyclooctane", "Cyclooctene epoxide", "NSC 59878", "Cyclooctane oxide", "Cyclooctene oxide"], "SMILES": "C12C(O1)CCCCCC2", "physical_data": {"Molecular Weight": "126.20", "Molecular Formula": "C8H14O", "Boiling Point": "189-190 \u00b0C", "Melting Point": "45 \u00b0C"}}