{"cas_no": "286-99-7", "cn_name": "\u73af\u6c27\u5341\u4e8c\u70f7", "en_name": ["13-Oxabicyclo[10.1.0]tridecane", "13-Oxabicyclo[10.1.0]tridecane", "Cyclododecane, 1,2-epoxy-", "Cyclododecene epoxide", "Epoxycyclododecane", "1,2-Epoxycyclododecane", "Cyclododecene oxide", "NSC 521077"], "SMILES": "C12C(O1)CCCCCCCCCC2", "physical_data": {"Molecular Weight": "182.30", "Molecular Formula": "C12H22O", "Boiling Point": "113-114 \u00b0C @ Press: 5 Torr"}}