{"cas_no": "286-28-2", "cn_name": "\u73af\u5df1\u786b\u919a", "en_name": ["7-Thiabicyclo[4.1.0]heptane", "7-Thiabicyclo[4.1.0]heptane", "Cyclohexane, 1,2-epithio-", "1,2-Cyclohexylene sulfide", "Cyclohexene episulfide", "Cyclohexene, sulfide", "NSC 59716"], "SMILES": "C12C(S1)CCCC2", "physical_data": {"Molecular Weight": "114.21", "Molecular Formula": "C6H10S", "Boiling Point": "67-68 \u00b0C @ Press: 16 Torr"}}