{"cas_no": "28608-75-5", "cn_name": "\u836d\u8349\u82f7", "en_name": ["Orientin", "4H-1-Benzopyran-4-one, 2-(3,4-dihydroxyphenyl)-8-\u03b2-D-glucopyranosyl-5,7-dihydroxy-", "Orientin", "2-(3,4-Dihydroxyphenyl)-8-\u03b2-D-glucopyranosyl-5,7-dihydroxy-4H-1-benzopyran-4-one", "Luteolin 8-C-\u03b2-D-glucopyranoside", "Luteolin 8-C-glucoside", "Lutexin", "Orientin (flavone)", "8-\u03b2-D-Glucopyranosyl-3\u2032,4\u2032,5,7-tetrahydroxyflavone", "Luteolin-8-glucoside", "Luteolin 8-C-\u03b2-glucopyranoside", "Luteolin-8-C-glucoside", "Luteolin 8-C-glucoside"], "SMILES": "OC=1C(=C2C(C(=O)C=C(O2)C3=CC(O)=C(O)C=C3)=C(O)C1)C4OC(CO)C(O)C(O)C4O", "physical_data": {"Molecular Weight": "448.38", "Molecular Formula": "C21H20O11", "Melting Point": "283 \u00b0C (decomp)"}}