{"cas_no": "28611-39-4", "cn_name": "4-\u4e8c\u7532\u57fa\u6c28\u57fa\u82ef\u787c\u9178\u76d0", "en_name": ["4-(Dimethylamino)phenylboronic acid", "Boronic acid, B-[4-(dimethylamino)phenyl]-", "Benzeneboronic acid, p-(dimethylamino)-", "Boronic acid, [4-(dimethylamino)phenyl]-", "B-[4-(Dimethylamino)phenyl]boronic acid", "4-(Dimethylamino)phenylboronic acid", "[4-(Dimethylamino)phenyl]boric acid", "4-(N,N-Dimethylamino)phenylboronic acid", "4-N,N-Dimethylaminobenzeneboronic acid", "4-Dimethylaminobenzeneboronic acid", "4-N,N-Dimethylphenylboronic acid", "[4-(Dimethylamino)phenyl-1-yl]boronic acid"], "SMILES": "B(O)(O)C1=CC=C(N(C)C)C=C1", "physical_data": {"Molecular Weight": "165.00", "Molecular Formula": "C8H12BNO2", "Melting Point": "243-245 \u00b0C (decomp)"}}