{"cas_no": "28610-31-3", "cn_name": "8-\u5f02\u620a\u70ef\u57fa\u5c71\u5948\u915a", "en_name": ["Desmethylicaritin", "4H-1-Benzopyran-4-one, 3,5,7-trihydroxy-2-(4-hydroxyphenyl)-8-(3-methyl-2-buten-1-yl)-", "Flavone, 3,4\u2032,5,7-tetrahydroxy-8-(3-methyl-2-butenyl)-", "4H-1-Benzopyran-4-one, 3,5,7-trihydroxy-2-(4-hydroxyphenyl)-8-(3-methyl-2-butenyl)-", "3,5,7-Trihydroxy-2-(4-hydroxyphenyl)-8-(3-methyl-2-buten-1-yl)-4H-1-benzopyran-4-one", "Noranhydroicaritin", "De-O-methylanhydroicaritin", "8-Prenylkaempferol", "Desmethylicaritin", "4\u2032-Desmethylicaritin", "8-C-Prenylkaempferol", "Desmethylanhydroicaritin", "3,5,7-Trihydroxy-2-(4-hydroxyphenyl)-8-(3-methylbut-2-enyl)chromen-4-one"], "SMILES": "C(C=C(C)C)C1=C2C(C(=O)C(O)=C(O2)C3=CC=C(O)C=C3)=C(O)C=C1O", "physical_data": {"Molecular Weight": "354.35", "Molecular Formula": "C20H18O6", "Melting Point": "226 \u00b0C"}}