{"cas_no": "2861-28-1", "cn_name": "\u80e1\u6912\u4e59\u9178", "en_name": ["1,3-Benzodioxole-5-acetic acid", "1,3-Benzodioxole-5-acetic acid", "Acetic acid, [3,4-(methylenedioxy)phenyl]-", "Homopiperonylic acid", "3,4-(Methylenedioxy)benzene-1-acetic acid", "Piperonylacetic acid", "(3,4-Methylenedioxy)phenylacetic acid", "(1,3-Benzodioxol-5-yl)acetic acid", "2-(1,3-Benzodioxol-5-yl)acetic acid", "2-(3,4-Methylenedioxyphenyl)acetic acid", "NSC 119057", "NSC 14364", "(Benzodioxol-5-yl)acetic acid", "2-(Benzo[d][1,3]dioxol-5-yl)acetic acid", "2-(Benzodioxol-5-yl)acetic acid", "2-(1,3-Dioxaindan-5-yl)acetic acid", "2-(2H-1,3-Benzodioxol-5-yl)acetic acid"], "SMILES": "C(C(O)=O)C=1C=C2C(=CC1)OCO2", "physical_data": {"Molecular Weight": "180.16", "Molecular Formula": "C9H8O4", "Boiling Point": "87 \u00b0C @ Press: 0.05 Torr", "Melting Point": "128 \u00b0C"}}