{"cas_no": "2862-51-3", "cn_name": "CYCLO(-PHE-PHE)", "en_name": ["Cyclo(phenylalanylphenylalanine)", "2,5-Piperazinedione, 3,6-bis(phenylmethyl)-, (3S,6S)-", "2,5-Piperazinedione, 3,6-dibenzyl-, (3S,6S)-", "2,5-Piperazinedione, 3,6-bis(phenylmethyl)-, (3S-cis)-", "Cyclo(L-phenylalanyl-L-phenylalanyl)", "(3S,6S)-3,6-Bis(phenylmethyl)-2,5-piperazinedione", "Cyclo-L-phenylalanyl-L-phenylalanine", "Cyclo(phenylalanylphenylalanine)", "Phenylalanylphenylalanyldiketopiperazine", "(3S,6S)-3,6-Dibenzylpiperazine-2,5-dione", "Cyclo-(L-Phe-L-Phe)", "(3S,6S)-3,6-Dibenzylpiperazin-2,5-dione"], "SMILES": "C(C1C(=O)NC(CC2=CC=CC=C2)C(=O)N1)C3=CC=CC=C3", "physical_data": {"Molecular Weight": "294.35", "Molecular Formula": "C18H18N2O2", "Melting Point": "315-316 \u00b0C"}}