{"cas_no": "2862-39-7", "cn_name": "N,N-\u4e8c\u7532\u80fa\u57fa\u6eb4\u4e59\u70f7\u6c22\u6eb4\u9178\u76d0", "en_name": ["(2-Bromoethyl)dimethylamine hydrobromide", "Ethanamine, 2-bromo-N,N-dimethyl-, hydrobromide (1:1)", "Ethylamine, 2-bromo-N,N-dimethyl-, hydrobromide", "Ethanamine, 2-bromo-N,N-dimethyl-, hydrobromide", "2-Dimethylamino-1-bromoethane hydrobromide", "\u03b2-Dimethylaminoethyl bromide hydrobromide", "(2-Bromoethyl)dimethylamine hydrobromide", "2-(Dimethylamino)ethyl bromide hydrobromide", "2-(N,N-Dimethylamino)ethyl bromide hydrobromide", "N-(2-Bromoethyl)dimethylamine hydrobromide", "2-Bromo-N,N-dimethylethan-1-amine hydrobromide", "2-Bromo-N,N-dimethylethanamine hydrobromide", "2-bromo-N,N-dimethylethan-1-amine hydrobromide (1:1)"], "SMILES": "C(N(C)C)CBr.Br", "physical_data": {"Molecular Weight": "", "Molecular Formula": "C4H10BrN.BrH", "Melting Point": "188.5-188.9 \u00b0C"}}