{"cas_no": "286371-64-0", "cn_name": "6-\u82c4\u6c27\u57fa-7-\u7532\u6c27\u57fa\u55b9\u5511\u5549-4-\u916e", "en_name": ["7-Methoxy-6-(phenylmethoxy)-4(3H)-quinazolinone", "4(3H)-Quinazolinone, 7-methoxy-6-(phenylmethoxy)-", "4(1H)-Quinazolinone, 7-methoxy-6-(phenylmethoxy)-", "7-Methoxy-6-(phenylmethoxy)-4(3H)-quinazolinone", "6-(Benzyloxy)-7-methoxyquinazolin-4(3H)-one"], "SMILES": "O=C1C=2C(=CC(OC)=C(OCC3=CC=CC=C3)C2)NC=N1", "physical_data": {"Molecular Weight": "282.29", "Molecular Formula": "C16H14N2O3", "Melting Point": "252 \u00b0C"}}