{"cas_no": "2863-98-1", "cn_name": "4-\u6c30\u57fa\u82ef\u80bc\u76d0\u9178\u76d0", "en_name": ["Benzonitrile, 4-hydrazinyl-, hydrochloride (1:1)", "Benzonitrile, 4-hydrazinyl-, hydrochloride (1:1)", "Benzonitrile, p-hydrazino-, monohydrochloride", "Benzonitrile, 4-hydrazino-, monohydrochloride", "Benzonitrile, p-hydrazino-, hydrochloride", "(4-Cyanophenyl)hydrazine hydrochloride", "4-Hydrazinobenzonitrile monohydrochloride", "4-(Hydrazino)benzonitrile hydrochloride", "p-Cyanophenylhydrazine hydrochloride", "4-Hydrazinylbenzonitrile hydrochloride"], "SMILES": "C(#N)C1=CC=C(NN)C=C1.Cl", "physical_data": {"Molecular Weight": "", "Molecular Formula": "C7H7N3.ClH", "Melting Point": "240 \u00b0C"}}