{"cas_no": "28645-51-4", "cn_name": "(Z)-\u6c27\u4ee3\u73af\u5341\u4e03\u78b3-8-\u70ef-2-\u916e", "en_name": ["Oxacycloheptadec-10-en-2-one", "Oxacycloheptadec-10-en-2-one", "9-Hexadecenoic acid, 16-hydroxy-, \u03bf-lactone", "\u03949-Isoambrettolic acid, lactone", "Isoambrettolide", "NSC 31697"], "SMILES": "O=C1CCCCCCCC=CCCCCCCO1", "physical_data": {"Molecular Weight": "252.39", "Molecular Formula": "C16H28O2", "Boiling Point": "135-136 \u00b0C @ Press: 0.1 Torr"}}