{"cas_no": "28657-75-2", "cn_name": "6-\u6c28\u57fa-3,4-\u4e9a\u7532\u4e8c\u6c27\u57fa\u82ef\u4e59\u916e", "en_name": ["1-(6-Amino-1,3-benzodioxol-5-yl)ethanone", "Ethanone, 1-(6-amino-1,3-benzodioxol-5-yl)-", "Acetophenone, 2\u2032-amino-4\u2032,5\u2032-(methylenedioxy)-", "1-(6-Amino-1,3-benzodioxol-5-yl)ethanone", "4,5-(Methylenedioxy)-2-aminoacetophenone", "2-Amino-4,5-(methylenedioxy)acetophenone", "2\u2032-Amino-4\u2032,5\u2032-methylenedioxyacetophenone", "6-Amino-3,4-methylenedioxyacetophenone", "5-Acetyl-6-amino-1,3-benzodioxolane", "1-(6-Amino-1,3-dioxaindan-5-yl)ethan-1-one", "1-(6-Amino-2H-1,3-benzodioxol-5-yl)ethan-1-one", "1-(6-Aminobenzo[d][1,3]dioxol-5-yl)ethanone", "5-Acetyl-6-amino-1,3-benzodioxole"], "SMILES": "C(C)(=O)C=1C=C2C(=CC1N)OCO2", "physical_data": {"Molecular Weight": "179.17", "Molecular Formula": "C9H9NO3", "Melting Point": "170-171 \u00b0C"}}