{"cas_no": "28657-80-9", "cn_name": "\u897f\u8bfa\u6c99\u661f", "en_name": ["Cinoxacin", "[1,3]Dioxolo[4,5-g]cinnoline-3-carboxylic acid, 1-ethyl-1,4-dihydro-4-oxo-", "1-Ethyl-1,4-dihydro-4-oxo[1,3]dioxolo[4,5-g]cinnoline-3-carboxylic acid", "Compound 64716", "Cinoxacin", "Cinobac", "1-Ethyl-3-carboxy-6,7-methylenedioxy-4-cinnolone", "Uronorm", "Noxigram", "NSC 304467", "Cinobactin", "1-Ethyl-4-oxo-1H,4H,7H-[1,3]dioxolo[4,5-g]cinnoline-3-carboxylic acid", "1-Ethyl-4-oxo-1,4-dihydro-[1,3]dioxolo[4,5-g]cinnoline-3-carboxylic acid", "MeSH ID: D002937"], "SMILES": "C(C)N1C2=C(C=C3C(=C2)OCO3)C(=O)C(C(O)=O)=N1", "physical_data": {"Molecular Weight": "262.22", "Molecular Formula": "C12H10N2O5", "Melting Point": "261 \u00b0C (decomp)"}}