{"cas_no": "28664-35-9", "cn_name": "\u846b\u82a6\u5df4\u5185\u916f", "en_name": ["Sotolone", "2(5H)-Furanone, 3-hydroxy-4,5-dimethyl-", "3-Hydroxy-4,5-dimethyl-2(5H)-furanone", "3,4-Dimethyl-2-hydroxy-2-butan-1,4-olide", "Sotolone", "4,5-Dimethyl-3-hydroxy-2(5H)-furanone", "Sautalone", "4,5-Dimethyl-3-hydroxy-2,5-dihydrofuran-2-one", "Sotolon"], "SMILES": "CC1=C(O)C(=O)OC1C", "physical_data": {"Molecular Weight": "128.13", "Molecular Formula": "C6H8O3", "Boiling Point": "82-84 \u00b0C @ Press: 0.02 Torr"}}