{"cas_no": "2866-43-5", "cn_name": "\u8367\u5149\u589e\u767d\u5242 185", "en_name": ["2,5-Bis(2-benzoxazolyl)thiophene", "Benzoxazole, 2,2\u2032-(2,5-thiophenediyl)bis-", "2,2\u2032-(2,5-Thiophenediyl)bis[benzoxazole]", "2,5-Bis(2-benzoxazolyl)thiophene", "Thiophenebis(benzoxazolyl)", "2,5-Di(benzoxazol-2-yl)thiophene", "SOF", "SOF (fluorescent brightener)", "Uvitex EBF", "C.I. 515240", "Fluorescent Brightener 190", "C.I. Fluorescent Brightening Agent 190", "C.I. Fluorescent Brightener 190", "C.I. Fluorescent Brightener 172", "Tinopal SOP", "C.I. Fluorescent Brightening Agent 185", "C.I. Fluorescent Brightener 185", "Uvitex SOF", "Uvitex EBV", "Fluorescent Brightener 185", "Fluorescent Brightener 172", "Unitex OB", "EBF", "Fluorescent Agent EBF", "Fluorescent Brightener PB", "2-[5-(1,3-Benzoxazol-2-yl)thiophen-2-yl]-1,3-benzoxazole"], "SMILES": "C1(=NC=2C(O1)=CC=CC2)C=3SC(=CC3)C4=NC=5C(O4)=CC=CC5", "physical_data": {"Molecular Weight": "318.35", "Molecular Formula": "C18H10N2O2S", "Melting Point": "219 \u00b0C"}}