{"cas_no": "28672-54-0", "cn_name": "2-(2-\u4e59\u6c27\u57fa\u4e59\u57fa)\u5421\u5576", "en_name": ["2-(2-Ethoxyethyl)pyridine", "Pyridine, 2-(2-ethoxyethyl)-", "2-(2-Ethoxyethyl)pyridine", "NSC 163912"], "SMILES": "C(COCC)C1=CC=CC=N1", "physical_data": {"Molecular Weight": "151.21", "Molecular Formula": "C9H13NO", "Boiling Point": "74-75 \u00b0C @ Press: 3 Torr", "Density": "0.9611 g/cm\u00b3 @ Temp: 20 \u00b0C"}}