{"cas_no": "2867-20-1", "cn_name": "DL-\u4e19\u6c28\u9170-DL-\u6c28\u57fa\u4e19\u9178", "en_name": ["DL-Alanyl-DL-alanine", "Alanine, alanyl-", "Alanine, N-DL-alanyl-, DL-", "Alanine, N-alanyl-", "Alanylalanine", "DL-Alanyl-DL-alanine", "DL-\u03b1-Alanine-DL-\u03b1-alanine", "N-DL-Alanyl-DL-alanine", "DL-\u03b1-Alanyl-DL-\u03b1-alanine", "NSC 89654", "2-(2-Aminopropanamido)propanoic acid", "2-(2-Aminopropanoylamino)propanoic acid"], "SMILES": "C(NC(C(C)N)=O)(C(O)=O)C", "physical_data": {"Molecular Weight": "160.17", "Molecular Formula": "C6H12N2O3", "Melting Point": "265 \u00b0C"}}