{"cas_no": "2867-47-2", "cn_name": "\u7532\u57fa\u4e19\u70ef\u9178\u4e8c\u7532\u6c28\u4e59\u916f", "en_name": ["(Dimethylamino)ethyl methacrylate", "2-Propenoic acid, 2-methyl-, 2-(dimethylamino)ethyl ester", "Methacrylic acid, 2-(dimethylamino)ethyl ester", "N,N-Dimethylaminoethyl methacrylate", "\u03b2-Dimethylaminoethyl methacrylate", "2-(Dimethylamino)ethyl methacrylate", "(Dimethylamino)ethyl methacrylate", "2-(N,N-Dimethylamino)ethyl methacrylate", "\u03b2-(N,N-Dimethylamino)ethyl methacrylate", "N,N-Dimethylethanolamine methacrylate", "DM (methacrylate)", "DM", "Light Ester DM", "Acryester DM", "Ageflex FA 1", "Mhoromer BM 601", "(2-Methacryloyloxyethyl)dimethylamine", "Methacryl Ester DM", "NSC 20959", "Ageflex FM 1", "Ageflex FM 2", "Methacryloyloxyethyldimethylamine", "MADAM", "GE 720", "Dimethyl[2-(methacryloyloxy)ethyl]amine", "DMAEMA", "DMA 200", "Methacrylate DMA", "N,N\u2032-Dimethylamino-2-ethyl methacrylate", "2-(Dimethylamino)ethyl 2-methylprop-2-enoate", "2-Dimethylaminoethyl 2-methylprop-2-enoate", "CY-D 2 (monomethacrylate)", "CY-D 2"], "SMILES": "O(C(C(C)=C)=O)CCN(C)C", "physical_data": {"Molecular Weight": "157.21", "Molecular Formula": "C8H15NO2", "Boiling Point": "182-190 \u00b0C", "Melting Point": "-30 \u00b0C", "Density": "0.933 g/cm\u00b3 @ Temp: 25 \u00b0C"}}