{"cas_no": "2867-59-6", "cn_name": "3-\u6c28\u57fa\u6b63\u4e01\u9187", "en_name": ["3-Amino-1-butanol", "1-Butanol, 3-amino-", "3-Amino-1-butanol", "3-Aminobutanol", "2-Amino-4-hydroxybutane", "3-Amino-3-methylpropan-1-ol"], "SMILES": "C(C(C)N)CO", "physical_data": {"Molecular Weight": "89.14", "Molecular Formula": "C4H11NO", "Boiling Point": "81-82 \u00b0C @ Press: 19 Torr", "Melting Point": "160 \u00b0C"}}