{"cas_no": "2867-63-2", "cn_name": "2-\u82c4\u57fa\u73af\u620a\u916e", "en_name": ["2-Benzylcyclopentanone", "Cyclopentanone, 2-(phenylmethyl)-", "Cyclopentanone, 2-benzyl-", "2-(Phenylmethyl)cyclopentanone", "2-Benzylcyclopentanone", "2-Benzylcyclopentan-1-one"], "SMILES": "C(C1C(=O)CCC1)C2=CC=CC=C2", "physical_data": {"Molecular Weight": "174.24", "Molecular Formula": "C12H14O", "Boiling Point": "144-146 \u00b0C @ Press: 16 Torr", "Melting Point": "195-196 \u00b0C", "Density": "1.038 g/cm\u00b3"}}