{"cas_no": "2868-48-6", "cn_name": "\u732a\u53bb\u6c27\u80c6\u9178\u7532\u916f", "en_name": ["Methyl (3\u03b1,5\u03b2,6\u03b1)-3,6-dihydroxycholan-24-oate", "Cholan-24-oic acid, 3,6-dihydroxy-, methyl ester, (3\u03b1,5\u03b2,6\u03b1)-", "5\u03b2-Cholan-24-oic acid, 3\u03b1,6\u03b1-dihydroxy-, methyl ester", "5\u03b2-Cholanic acid, 3\u03b1,6\u03b1-dihydroxy-, methyl ester", "Methyl (3\u03b1,5\u03b2,6\u03b1)-3,6-dihydroxycholan-24-oate", "Methyl 3\u03b1,6\u03b1-dihydroxy-5\u03b2-cholanate", "Methyl 3\u03b1,6\u03b1-dihydroxy-5\u03b2-cholanoate", "Methyl hyodeoxycholate", "Methyl 3\u03b1,6\u03b1-dihydroxy-5\u03b2-cholan-24-oate", "\u03b1-Hyodeoxycholic acid methyl ester", "Hyodeoxycholic acid methyl ester", "Methyl hyodeoxycholanate"], "SMILES": "CC12C3C(C4C(C)(CC3)C(C(CCC(OC)=O)C)CC4)CC(O)C1CC(O)CC2", "physical_data": {"Molecular Weight": "406.60", "Molecular Formula": "C25H42O4", "Melting Point": "86 \u00b0C"}}