{"cas_no": "2868-37-3", "cn_name": "\u73af\u4e19\u7532\u9178\u7532\u916f", "en_name": ["Methyl cyclopropanecarboxylate", "Cyclopropanecarboxylic acid, methyl ester", "Methyl cyclopropanecarboxylate", "Methyl cyclopropylcarboxylate", "Cyclopropanoic acid methyl ester", "Methyl cyclopropanoate"], "SMILES": "C(OC)(=O)C1CC1", "physical_data": {"Molecular Weight": "100.12", "Molecular Formula": "C5H8O2", "Boiling Point": "114.9 \u00b0C"}}