{"cas_no": "28697-53-2", "cn_name": "D-\u963f\u62c9\u4f2f\u5421\u5583\u7cd6", "en_name": ["D-Arabinopyranose", "D-Arabinopyranose", "Arabinopyranose, D-"], "SMILES": "OC1C(O)C(O)OCC1O", "physical_data": {"Molecular Weight": "150.13", "Molecular Formula": "C5H10O5", "Melting Point": "211-212 \u00b0C"}}