{"cas_no": "2869-34-3", "cn_name": "\u6b63\u5341\u4e09\u70f7\u80fa", "en_name": ["Tridecanamine", "1-Tridecanamine", "Tridecylamine", "n-Tridecylamine", "1-Tridecylamine", "Tridecanamine", "Monotridecylamine", "1-Aminotridecane"], "SMILES": "C(CCCCCCN)CCCCCC", "physical_data": {"Molecular Weight": "199.38", "Molecular Formula": "C13H29N", "Boiling Point": "275.8 \u00b0C", "Melting Point": "27.4 \u00b0C"}}