{"cas_no": "286930-03-8", "cn_name": "\u5bcc\u9a6c\u9178\u975e\u7d22\u7f57\u5b9a", "en_name": ["Fesoterodine fumarate", "Propanoic acid, 2-methyl-, 2-[(1R)-3-[bis(1-methylethyl)amino]-1-phenylpropyl]-4-(hydroxymethyl)phenyl ester, (2E)-2-butenedioate (1:1)", "Propanoic acid, 2-methyl-, 2-[(1R)-3-[bis(1-methylethyl)amino]-1-phenylpropyl]-4-(hydroxymethyl)phenyl ester, (2E)-2-butenedioate (1:1) (salt)", "Fesoterodine fumarate", "SMP 8272", "SPM 907", "Toviaz"], "SMILES": "C(=CC(O)=O)C(O)=O.C(CCN(C(C)C)C(C)C)(C1=C(OC(C(C)C)=O)C=CC(CO)=C1)C2=CC=CC=C2", "physical_data": {"Molecular Weight": "", "Molecular Formula": "C26H37NO3.C4H4O4", "Melting Point": "103.5 \u00b0C"}}