{"cas_no": "28691-47-6", "cn_name": "\u82ef\u5e76[D]\u5f02\u6076\u5511-3-\u7532\u9178", "en_name": ["1,2-Benzisoxazole-3-carboxylic acid", "1,2-Benzisoxazole-3-carboxylic acid", "3-Carboxy-1,2-benzisoxazole", "Benzo[d]isoxazole-3-carboxylic acid", "3-Benzo[d]isoxazolecarboxylic acid", "1,2-Benzoxazole-3-carboxylic acid"], "SMILES": "C(O)(=O)C=1C=2C(ON1)=CC=CC2", "physical_data": {"Molecular Weight": "163.13", "Molecular Formula": "C8H5NO3", "Melting Point": "145-146 \u00b0C"}}