{"cas_no": "287-92-3", "cn_name": "\u73af\u620a\u70f7", "en_name": ["Cyclopentane", "Cyclopentane", "Pentamethylene", "Zeonsolv HP", "Exxsol Cyclopentane S", "NSC 60213", "Exxsol HP 95", "Marukazol FH", "H&", "N", "IP 85", "CP", "CP 95", "CP 95 (hydrocarbon)", "Marukasol FH"], "SMILES": "C1CCCC1", "physical_data": {"Molecular Weight": "70.13", "Molecular Formula": "C5H10", "Boiling Point": "49.2 \u00b0C @ Press: 760 Torr", "Melting Point": "-93.9 \u00b0C", "Density": "0.7457 g/cm\u00b3 @ Temp: 20 \u00b0C"}}