{"cas_no": "287-27-4", "cn_name": "\u786b\u5316\u73af\u4e19\u70f7", "en_name": ["Thietane", "Thietane", "Trimethylene sulfide", "Propane, 1,3-epithio-", "Thiacyclobutane", "NSC 56443"], "SMILES": "C1CSC1", "physical_data": {"Molecular Weight": "74.14", "Molecular Formula": "C3H6S", "Boiling Point": "95 \u00b0C", "Melting Point": "-73.2 \u00b0C", "Density": "1.0284 g/cm\u00b3 @ Temp: 23 \u00b0C"}}