{"cas_no": "2870-71-5", "cn_name": "\u6eb4\u4ee3\u7532\u57fa\u963f\u6258\u54c1", "en_name": ["Atropine methyl bromide", "8-Azoniabicyclo[3.2.1]octane, 3-(3-hydroxy-1-oxo-2-phenylpropoxy)-8,8-dimethyl-, bromide (1:1), (3-endo)-", "8-Methylatropinium bromide", "1\u03b1H,5\u03b1H-Tropanium, 3\u03b1-hydroxy-8-methyl-, bromide, (\u00b1)-tropate", "8-Azoniabicyclo[3.2.1]octane, 3-(3-hydroxy-1-oxo-2-phenylpropoxy)-8,8-dimethyl-, bromide, endo-(\u00b1)-", "8-Azoniabicyclo[3.2.1]octane, 3-(3-hydroxy-1-oxo-2-phenylpropoxy)-8,8-dimethyl-, bromide, (3-endo)-", "Atropine methobromide", "Hyoscyamine methyl bromide", "Methylatropine bromide", "Atropine methyl bromide", "Methylatropinium bromide", "N-Methylatropine bromide", "Mintussin", "Mydriasin", "Tropin", "N-Methylatropinium bromide", "8-Azoniabicyclo[3.2.1]octane, 3-(3-hydroxy-1-oxo-2-phenylpropoxy)-8,8-dimethyl-, bromide, endo-", "NSC 61810"], "SMILES": "C[N+]1(C)C2CC(OC(C(CO)C3=CC=CC=C3)=O)CC1CC2.[Br-]", "physical_data": {"Molecular Weight": "", "Molecular Formula": "C18H26NO3.Br", "Melting Point": "222-223 \u00b0C"}}