{"cas_no": "28705-46-6", "cn_name": "7-(\u4e8c\u4e59\u6c28\u57fa)\u9999\u8c46\u7d20-3-\u7532\u9178\u4e59\u916f", "en_name": ["Ethyl 7-diethylaminocoumarin-3-carboxylate", "2H-1-Benzopyran-3-carboxylic acid, 7-(diethylamino)-2-oxo-, ethyl ester", "3-Carbethoxy-7-(diethylamino)coumarin", "3-(Carboxyethyl)-7-diethylamino coumarin", "Ethyl 7-diethylaminocoumarin-3-carboxylate", "NKX 1253", "S 0679", "Ethyl 7-N,N-Dimethylamino-2-oxo-2H-3-coumarate", "Ethyl 7-(diethylamino)-2-oxo-2H-chromene-3-carboxylate"], "SMILES": "N(CC)(CC)C=1C=C2C(C=C(C(OCC)=O)C(=O)O2)=CC1", "physical_data": {"Molecular Weight": "289.33", "Molecular Formula": "C16H19NO4", "Melting Point": "87 \u00b0C"}}