{"cas_no": "28708-32-9", "cn_name": "\u56db\u4e59\u9170\u6838\u7cd6", "en_name": ["D-Ribofuranose, 1,2,3,5-tetraacetate", "D-Ribofuranose, 1,2,3,5-tetraacetate", "Ribofuranose, tetraacetate, D-", "D-Ribofuranose, tetraacetate", "Ribofuranose, tetraacetate", "1,2,3,5-Tetra-O-acetyl-D-ribose", "Tetra-O-acetylribofuranose", "1,2,3,5-Tetra-O-acetylribofuranose", "1,2,3,5-Tetra-O-acetyl-D-ribofuranose", "1,2,3,4-Tetra-O-acetyl-D-ribofuranose", "Tetra-O-acetyl-D-ribofuranose"], "SMILES": "O(C(C)=O)C1C(OC(C)=O)C(OC(C)=O)OC1COC(C)=O", "physical_data": {"Molecular Weight": "318.28", "Molecular Formula": "C13H18O9", "Melting Point": "82 \u00b0C"}}