{"cas_no": "2871-01-4", "cn_name": "2-(4-\u6c28\u57fa-2-\u785d\u57fa\u82ef\u80fa\u57fa)\u4e59\u9187", "en_name": ["HC Red 3", "Ethanol, 2-[(4-amino-2-nitrophenyl)amino]-", "Ethanol, 2-(4-amino-2-nitroanilino)-", "2-[(4-Amino-2-nitrophenyl)amino]ethanol", "N1-(2-Hydroxyethyl)-2-nitro-p-phenylenediamine", "N-(2-Hydroxyethyl)-2-nitro-p-phenylenediamine", "N1-(2\u2032-Hydroxyethyl)-2-nitro-p-phenylenediamine", "HC Red No. 3", "4-(2-Hydroxyethyl)amino-3-nitroaniline", "HC Red 3", "HC Red Number 3", "2-Nitro-4-amino-1-(2-hydroxyethylamino)benzene", "Red No. 3", "1-[(2-Hydroxyethyl)amino]-2-nitro-4-aminobenzene", "2-(4-Amino-2-nitroanilino)ethanol", "2-[(4-Amino-2-nitrophenyl)amino]ethan-1-ol"], "SMILES": "N(CCO)C1=C(N(=O)=O)C=C(N)C=C1", "physical_data": {"Molecular Weight": "197.19", "Molecular Formula": "C8H11N3O3", "Melting Point": "127 \u00b0C"}}