{"cas_no": "287193-07-1", "cn_name": "4-\u6c27\u4ee3\u56db\u6c22\u5421\u5583-2-\u7532\u9178\u4e59\u916f", "en_name": ["Ethyl tetrahydro-4-oxo-2H-pyran-2-carboxylate", "2H-Pyran-2-carboxylic acid, tetrahydro-4-oxo-, ethyl ester", "Ethyl tetrahydro-4-oxo-2H-pyran-2-carboxylate", "4-Oxotetrahydro-2H-pyran-2-carboxylic acid ethyl ester"], "SMILES": "C(OCC)(=O)C1CC(=O)CCO1", "physical_data": {"Molecular Weight": "172.18", "Molecular Formula": "C8H12O4", "Boiling Point": "84 \u00b0C @ Press: 0.04 Torr"}}