{"cas_no": "287118-97-2", "cn_name": "2-(ACETYLOXY)-4-[(NITROOXY)METHYL]PHENYL ESTER, BENZOIC ACID", "en_name": ["4-[(Nitrooxy)methyl]phenyl 2-(acetyloxy)benzoate", "Benzoic acid, 2-(acetyloxy)-, 4-[(nitrooxy)methyl]phenyl ester", "4-[(Nitrooxy)methyl]phenyl 2-(acetyloxy)benzoate", "NO-aspirin", "NCX 4040", "2-(Acetyloxy)benzoic acid 4-(nitroxymethyl)phenyl ester"], "SMILES": "C(OC1=CC=C(CON(=O)=O)C=C1)(=O)C2=C(OC(C)=O)C=CC=C2", "physical_data": {"Molecular Weight": "331.28", "Molecular Formula": "C16H13NO7", "Melting Point": "84.6-86.0 \u00b0C"}}