{"cas_no": "28715-21-1", "cn_name": "3-\u7f9f\u57fa\u8089\u8c46\u853b\u9178", "en_name": ["(R)-3-Hydroxytetradecanoic acid", "Tetradecanoic acid, 3-hydroxy-, (3R)-", "Tetradecanoic acid, 3-hydroxy-, D-(-)-", "Tetradecanoic acid, 3-hydroxy-, (R)-", "(3R)-3-Hydroxytetradecanoic acid", "D-(-)-\u03b2-Hydroxymyristic acid", "(R)-(-)-3-Hydroxytetradecanoic acid", "(R)-3-Hydroxytetradecanoic acid", "(R)-3-Hydroxymyristic acid", "D-3-Hydroxytetradecanoic acid", "(R)-3-Hydroxymyristic acid"], "SMILES": "C(CCCCCCCCCC)C(CC(O)=O)O", "physical_data": {"Molecular Weight": "244.37", "Molecular Formula": "C14H28O3", "Melting Point": "73-74 \u00b0C"}}