{"cas_no": "2872-48-2", "cn_name": "\u5206\u6563\u7ea2 11", "en_name": ["Disperse Red 11", "9,10-Anthracenedione, 1,4-diamino-2-methoxy-", "Anthraquinone, 1,4-diamino-2-methoxy-", "1,4-Diamino-2-methoxy-9,10-anthracenedione", "C.I. 62015", "Acetate Fast Pink 3B", "Amacel Cerise B", "Artisil Brilliant Rose 5BP", "Celanthrene Fast Pink 3B", "Celliton Fast Pink FF 3B", "Celliton Fast Pink FF 3BA-CF", "Celliton Rose FF 3B", "Cibacet Brilliant Pink 4BN", "Cilla Fast Pink FF 3B", "C.I. Solvent Violet 26", "Fenacet Fast Pink 3BE", "Interchem Acetate Pink 3B", "Miketon Fast Pink FF 3B", "Nacelan Pink 3B", "Palanil Violet 6R", "Perliton Red Violet FFB", "Samaron Red Violet F 3B", "Seriplas Red X 3B", "Setacyl Red P 3B", "Supracet Fast Pink 3B", "Terasil Brilliant Pink 4BN", "C.I. Disperse Red 11", "Duranol Red X 3B", "1,4-Diamino-2-methoxyanthraquinone", "Disperse Brilliant Pink", "Serisol Brilliant Red X 3B", "1,4-Diamino-2-methoxyanthroquinone", "Disperse Red 11", "Solvent Violet 26", "Dispersol Red B 3B", "Disperse Brilliant Rose", "Celliton Pink FF 3B", "Navilene Violet 6R", "Serisol Brilliant Red X 3B200", "Foron Brilliant Pink E 5BPW", "NSC 81266", "Akasperse Pink 5B", "1,4-Diamino-2-methoxy-9,10-dihydroanthracene-9,10-dione"], "SMILES": "O=C1C=2C(C(=O)C=3C1=CC=CC3)=C(N)C=C(OC)C2N", "physical_data": {"Molecular Weight": "268.27", "Molecular Formula": "C15H12N2O3", "Melting Point": "242 \u00b0C"}}