{"cas_no": "28721-07-5", "cn_name": "\u5965\u5361\u897f\u5e73", "en_name": ["Oxcarbazepine", "5H-Dibenz[b,f]azepine-5-carboxamide, 10,11-dihydro-10-oxo-", "10,11-Dihydro-10-oxo-5H-dibenz[b,f]azepine-5-carboxamide", "GP 47680", "Oxcarbazepine", "Trileptal", "Oxacarbazepine", "Oxecarb", "Oxetol", "Aurene", "Tolep", "Timox", "Oxtellar", "10-Oxo-10,11-dihydro-5H-dibenzo[b,f]azepine-5-carboxamide", "10-Oxo-10,11-dihydro-dibenzo[b,f]azepine-5-carboxylic acid amide"], "SMILES": "C(N)(=O)N1C=2C(C(=O)CC=3C1=CC=CC3)=CC=CC2", "physical_data": {"Molecular Weight": "252.27", "Molecular Formula": "C15H12N2O2", "Melting Point": "215.5 \u00b0C"}}