{"cas_no": "2872-52-8", "cn_name": "\u5206\u6563\u7ea2 1", "en_name": ["Disperse Red 1", "Ethanol, 2-[ethyl[4-[2-(4-nitrophenyl)diazenyl]phenyl]amino]-", "Celliton Scarlet B", "C.I. Disperse Red 1", "Ethanol, 2-[ethyl[4-[(4-nitrophenyl)azo]phenyl]amino]-", "2-[Ethyl[4-[2-(4-nitrophenyl)diazenyl]phenyl]amino]ethanol", "C.I. 11110", "Acetamine Scarlet B", "Acetate Fast Scarlet B", "Acetoquinone Light Scarlet BLZ", "Amacel Scarlet GB", "Calcosyn Brilliant Scarlet BN", "Celliton Discharge Scarlet B", "Celliton Scarlet BA-CF", "Celutate Scarlet BH", "Cibacet Scarlet BRN", "Cibacet Scarlet 2B", "Cibacet Scarlet BS", "Cilla Scarlet B", "Diacelliton Scarlet B", "Disperse Scarlet B", "Dispersol Fast Scarlet B", "Durgacet Scarlet B", "Eastone Scarlet BG", "Eniacyl Scarlet B", "N-Ethyl-N-[p-(p-nitrophenylazo)phenyl]ethanolamine", "Fenacet Scarlet B", "Interchem Acetate Scarlet B", "Interchem Hisperse Scarlet BH", "Kayalon Fast Scarlet B", "Microsetile Scarlet B", "Miketon Fast Scarlet B", "Monocel Scarlet B", "Nacelan Scarlet CSB", "Neosetile Scarlet B", "4-Nitro-4\u2032-[N-ethyl-N-(\u03b2-hydroxyethyl)amino]azobenzene", "Nyloquinone Red N", "Reliton Scarlet BA", "Safaritone Scarlet B", "Scarlet Reliton BA", "Serinyl Hoisery Scarlet BD", "Serisol Fast Scarlet BD", "Setacyl Scarlet B", "Setacyl Scarlet 2BD", "Setacyl Scarlet RNA", "Silotras Scarlet TSR", "Supracet Fast Scarlet B", "Tertranese Scarlet N-B", "Disperse Red 1", "Disperse Scarlet Zh", "4-Nitro-4\u2032-[ethyl(2-hydroxyethyl)amino]azobenzene", "Disperse Red Zh", "N-Ethyl-N-(2-hydroxyethyl)-4-[(p-nitrophenyl)azo]aniline", "4-[N-Ethyl-N-(2-hydroxyethyl)amino]-4\u2032-nitroazobenzene", "Dispersive ruby Zh", "Dispersol Scarlet B", "C.I. Solvent Red 14", "WO 4", "4-[Ethyl(2-hydroxyethyl)amino]-4\u2032-nitroazobenzene", "Diacelliton Fast Scarlet B", "Serisol Fast Scarlet BD 200", "4-[(2-Hydroxyethyl)ethylamino]-4\u2032-nitroazobenzene", "1-[N-Ethyl-N-(2-hydroxyethyl)amino]-4-(4-nitrophenylazo)benzene", "4-[4-(Nitrophenyl)azo]-N-ethyl-N-(2-hydroxyethyl)aniline", "Intrasperse Scarlet BRN", "NSC 57019", "N-Ethyl-N-(2-hydroxyethyl)-4-(4-nitrophenylazo)aniline", "4-[N-(2-Hydroxyethyl)-N-ethylamino]-4\u2032-nitroazobenzene", "Fluka Disperse Red", "D 3284"], "SMILES": "N(CCO)(CC)C1=CC=C(N=NC2=CC=C(N(=O)=O)C=C2)C=C1", "physical_data": {"Molecular Weight": "314.34", "Molecular Formula": "C16H18N4O3", "Melting Point": "161 \u00b0C"}}