{"cas_no": "2873-74-7", "cn_name": "\u620a\u4e8c\u9170\u57fa\u4e8c\u6c2f", "en_name": ["Glutaryl dichloride", "Pentanedioyl dichloride", "Glutaryl chloride", "Glutaric acid dichloride", "Glutaroyl chloride", "Glutaryl dichloride", "1,3-Bis(Chlorocarbonyl)propane", "Glutaroyl dichloride", "NSC 519867", "5-Chloro-5-oxopentanoyl chloride", "1,5-Pentanedioyl chloride"], "SMILES": "C(CC(Cl)=O)CC(Cl)=O", "physical_data": {"Molecular Weight": "169.01", "Molecular Formula": "C5H6Cl2O2", "Boiling Point": "217 \u00b0C", "Density": "1.4730 g/cm\u00b3 @ Temp: 20 \u00b0C"}}