{"cas_no": "28733-43-9", "cn_name": "5-\u6eb4\u70df\u9170\u80fa", "en_name": ["5-Bromonicotinamide", "3-Pyridinecarboxamide, 5-bromo-", "Nicotinamide, 5-bromo-", "5-Bromo-3-pyridinecarboxamide", "5-Bromonicotinamide"], "SMILES": "C(N)(=O)C=1C=C(Br)C=NC1", "physical_data": {"Molecular Weight": "201.02", "Molecular Formula": "C6H5BrN2O", "Melting Point": "218-219 \u00b0C"}}