{"cas_no": "2873-97-4", "cn_name": "\u53cc\u4e19\u916e\u4e19\u70ef\u9170\u80fa", "en_name": ["N-(1,1-Dimethyl-3-oxobutyl)-2-propenamide", "2-Propenamide, N-(1,1-dimethyl-3-oxobutyl)-", "Acrylamide, N-(1,1-dimethyl-3-oxobutyl)-", "N-(1,1-Dimethyl-3-oxobutyl)-2-propenamide", "N-(1,1-Dimethyl-3-oxobutyl)acrylamide", "Diacetone acrylamide", "NSC 130565", "Diacetonylacrylamide", "Kohsylmer DAAM"], "SMILES": "C(NC(C=C)=O)(CC(C)=O)(C)C", "physical_data": {"Molecular Weight": "169.22", "Molecular Formula": "C9H15NO2", "Boiling Point": "120 \u00b0C @ Press: 8 Torr", "Melting Point": "57-58 \u00b0C"}}