{"cas_no": "28737-32-8", "cn_name": "3-\u6c2f-2-\u5432\u54da\u7532\u9178", "en_name": ["3-Chloro-1H-indole-2-carboxylic acid", "1H-Indole-2-carboxylic acid, 3-chloro-", "Indole-2-carboxylic acid, 3-chloro-", "3-Chloro-1H-indole-2-carboxylic acid", "3-Chloroindole-2-carboxylic acid"], "SMILES": "ClC=1C=2C(NC1C(O)=O)=CC=CC2", "physical_data": {"Molecular Weight": "195.60", "Molecular Formula": "C9H6ClNO2", "Melting Point": "192-194 \u00b0C"}}