{"cas_no": "2873-18-9", "cn_name": "2-\u6eb4-5-\u6c2f\u567b\u5429", "en_name": ["2-Bromo-5-chlorothiophene", "Thiophene, 2-bromo-5-chloro-", "2-Bromo-5-chlorothiophene", "5-Bromo-2-chlorothiophene", "2-Chloro-5-bromothiophene"], "SMILES": "BrC=1SC(Cl)=CC1", "physical_data": {"Molecular Weight": "197.48", "Molecular Formula": "C4H2BrClS", "Boiling Point": "69.5-70.0 \u00b0C @ Press: 18 Torr", "Melting Point": "-20 \u00b0C", "Density": "1.803 g/cm\u00b3 @ Temp: 25 \u00b0C"}}