{"cas_no": "2873-29-2", "cn_name": "\u4e59\u9170\u5316\u8461\u8404\u70ef\u7cd6", "en_name": ["Tri-O-acetyl-D-glucal", "D-arabino-Hex-1-enitol, 1,5-anhydro-2-deoxy-, 3,4,6-triacetate", "D-arabino-Hex-1-enopyranose, 1,2-dideoxy-, triacetate", "D-arabino-Hex-1-enitol, 1,5-anhydro-2-deoxy-, triacetate", "3,4,6-Tri-O-acetyl-D-glucal", "3,4,6-Tri-O-acetyl-1,2-dideoxy-D-arabino-hex-1-enopyranose", "D-Glucal triacetate", "Tri-O-acetyl-D-glucal", "Triacetyl-D-glucal", "Tri-O-acetylglucal", "3,4,6-Tri-O-acetylglucal", "3,4,6-Tris-O-acetyl-D-glucal"], "SMILES": "O(C(C)=O)C1C(OC(C)=O)C=COC1COC(C)=O", "physical_data": {"Molecular Weight": "272.25", "Molecular Formula": "C12H16O7", "Boiling Point": "115-125 \u00b0C @ Press: 0.01 Torr", "Melting Point": "54-55 \u00b0C"}}