{"cas_no": "2873-90-7", "cn_name": "4-\u4e8c\u4e59\u57fa\u6c28\u57fa\u82ef\u7532\u8148", "en_name": ["4-(Diethylamino)benzonitrile", "Benzonitrile, 4-(diethylamino)-", "Benzonitrile, p-(diethylamino)-", "4-(Diethylamino)benzonitrile", "4-(Diethylamino)benzenecarbonitrile", "N,N-Diethyl-p-cyanoaniline", "p-Cyano-N,N-diethylaniline", "p-(Diethylamino)benzonitrile", "4-(N,N-Diethylamino)benzonitrile", "4-(Diethylamino)benzenenitrile", "NSC 32450"], "SMILES": "N(CC)(CC)C1=CC=C(C#N)C=C1", "physical_data": {"Molecular Weight": "174.24", "Molecular Formula": "C11H14N2", "Melting Point": "66-67 \u00b0C"}}