{"cas_no": "28741-08-4", "cn_name": "1-\u8f9b\u57fa\u787c\u9178", "en_name": ["B-Octylboronic acid", "Boronic acid, B-octyl-", "1-Octaneboronic acid", "Boronic acid, octyl-", "B-Octylboronic acid", "Octylboronic acid", "1-Octylboronic acid"], "SMILES": "C(CCCCC)CCB(O)O", "physical_data": {"Molecular Weight": "158.05", "Molecular Formula": "C8H19BO2", "Melting Point": "79 \u00b0C"}}