{"cas_no": "28752-82-1", "cn_name": "\u90bb\u4e19\u70ef\u57fa\u6c27\u57fa\u82ef\u7532\u919b", "en_name": ["2-(Allyloxy)benzaldehyde", "Benzaldehyde, 2-(2-propen-1-yloxy)-", "Benzaldehyde, o-(allyloxy)-", "Benzaldehyde, 2-(2-propenyloxy)-", "2-(2-Propen-1-yloxy)benzaldehyde", "2-(Allyloxy)benzaldehyde", "o-(Allyloxy)benzaldehyde", "2-(2-Propenyloxy)benzaldehyde", "O-Allylsalicylaldehyde", "NSC 406724", "Allyl o-formylphenyl ether", "2-Prop-2-enoxybenzaldehyde"], "SMILES": "O(CC=C)C1=C(C=O)C=CC=C1", "physical_data": {"Molecular Weight": "162.19", "Molecular Formula": "C10H10O2", "Boiling Point": "130 \u00b0C @ Press: 10 Torr", "Density": "1.0938 g/cm\u00b3 @ Temp: 20 \u00b0C"}}