{"cas_no": "2875-18-5", "cn_name": "2,3,5,6-\u56db\u6c1f\u5421\u5576", "en_name": ["2,3,5,6-Tetrafluoropyridine", "Pyridine, 2,3,5,6-tetrafluoro-", "2,3,5,6-Tetrafluoropyridine"], "SMILES": "FC1=C(F)N=C(F)C(F)=C1", "physical_data": {"Molecular Weight": "151.06", "Molecular Formula": "C5HF4N", "Boiling Point": "102 \u00b0C"}}