{"cas_no": "2876-71-3", "cn_name": "BETA-\u8418\u4e59\u9178\u7532\u916f", "en_name": ["Methyl 2-naphthaleneacetate", "2-Naphthaleneacetic acid, methyl ester", "Methyl 2-naphthaleneacetate", "Methyl \u03b2-naphthylacetate", "Methyl (2-naphthyl)acetate", "Methyl 2-(naphthalen-2-yl)acetate", "Methyl 2-(2-naphthyl)acetate"], "SMILES": "C(C(OC)=O)C1=CC2=C(C=C1)C=CC=C2", "physical_data": {"Molecular Weight": "200.23", "Molecular Formula": "C13H12O2", "Boiling Point": "136 \u00b0C", "Melting Point": "51-53 \u00b0C"}}