{"cas_no": "2876-78-0", "cn_name": "1-\u8418\u4e59\u9178\u7532\u916f", "en_name": ["Methyl 1-naphthylacetate", "1-Naphthaleneacetic acid, methyl ester", "Methyl \u03b1-naphthylacetate", "Methyl 1-naphthylacetate", "Hormonit", "Methyl 1-naphthaleneacetate", "Kartofin", "\u03b1-Naphthaleneacetic acid methyl ester", "\u03b1-Naphthylacetic acid methyl ester", "M 1 (growth regulator)", "M 1", "Methyl \u03b1-naphthaleneacetate", "NSC 122030", "Methyl 1-naphthalenylacetate"], "SMILES": "C(C(OC)=O)C=1C2=C(C=CC1)C=CC=C2", "physical_data": {"Molecular Weight": "200.23", "Molecular Formula": "C13H12O2", "Boiling Point": "103 \u00b0C @ Press: 2 Torr", "Melting Point": "143-144 \u00b0C", "Density": "1.1459 g/cm\u00b3 @ Temp: 20 \u00b0C"}}