{"cas_no": "28767-75-1", "cn_name": "N1-(2,4-\u785d\u57fa\u82ef\u57fa)-1,2-\u4e59\u4e8c\u80fa", "en_name": ["(2,4-Dinitrophenyl)ethylenediamine", "1,2-Ethanediamine, N1-(2,4-dinitrophenyl)-", "Ethylenediamine, N-(2,4-dinitrophenyl)-", "1,2-Ethanediamine, N-(2,4-dinitrophenyl)-", "N1-(2,4-Dinitrophenyl)-1,2-ethanediamine", "N-(2-Aminoethyl)-2,4-dinitroaniline", "(2,4-Dinitrophenyl)ethylenediamine", "N-(2,4-Dinitrophenyl)ethylenediamine"], "SMILES": "N(=O)(=O)C1=C(NCCN)C=CC(N(=O)=O)=C1", "physical_data": {"Molecular Weight": "226.19", "Molecular Formula": "C8H10N4O4", "Melting Point": "84-85 \u00b0C"}}