{"cas_no": "287714-41-4", "cn_name": "\u7f57\u4f10\u4ed6\u6c40", "en_name": ["Rosuvastatin", "6-Heptenoic acid, 7-[4-(4-fluorophenyl)-6-(1-methylethyl)-2-[methyl(methylsulfonyl)amino]-5-pyrimidinyl]-3,5-dihydroxy-, (3R,5S,6E)-", "(3R,5S,6E)-7-[4-(4-Fluorophenyl)-6-(1-methylethyl)-2-[methyl(methylsulfonyl)amino]-5-pyrimidinyl]-3,5-dihydroxy-6-heptenoic acid", "Rosuvastatin", "ZD 4522", "(E)-(3R,5S)-7-[4-(4-Fluorophenyl)-6-isopropyl-2-[(methylsulfonyl)(methyl)amino]pyrimidin-5-yl]-3,5-dihydroxyhept-6-enoic acid", "X-Plended", "(3R,5S,6E)-7-[4-(4-Fluorophenyl)-6-isopropyl-2-[methyl(methylsulfonyl)amino]pyrimidin-5-yl]-3,5-dihydroxy-6-heptenoic acid", "AZD-4522", "AZD4522", "AZD 4522"], "SMILES": "C(=CC(CC(CC(O)=O)O)O)C=1C(=NC(N(S(C)(=O)=O)C)=NC1C(C)C)C2=CC=C(F)C=C2", "physical_data": {"Molecular Weight": "481.54", "Molecular Formula": "C22H28FN3O6S", "Melting Point": "161.9 \u00b0C"}}