{"cas_no": "28772-56-7", "cn_name": "\u6eb4\u654c\u9686", "en_name": ["2H-1-Benzopyran-2-one, 3-[3-(4\u2032-bromo[1,1\u2032-biphenyl]-4-yl)-3-hydroxy-1-phenylpropyl]-4-hydroxy-", "2H-1-Benzopyran-2-one, 3-[3-(4\u2032-bromo[1,1\u2032-biphenyl]-4-yl)-3-hydroxy-1-phenylpropyl]-4-hydroxy-", "Coumarin, 3-[\u03b1-[p-(p-bromophenyl)-\u03b2-hydroxyphenethyl]benzyl]-4-hydroxy-", "3-[3-(4\u2032-Bromo[1,1\u2032-biphenyl]-4-yl)-3-hydroxy-1-phenylpropyl]-4-hydroxy-2H-1-benzopyran-2-one", "Bromadiolone", "Maki", "Roban", "Hemus AB", "Ratonil", "3-[3-(4\u2032-Bromo[1,1\u2032-biphenyl]-4-yl)-3-hydroxy-1-phenylpropyl]-4-hydroxy-2H-1-benzopyran-2-one"], "SMILES": "C(CC(O)C1=CC=C(C=C1)C2=CC=C(Br)C=C2)(C3=C(O)C=4C(OC3=O)=CC=CC4)C5=CC=CC=C5", "physical_data": {"Molecular Weight": "527.41", "Molecular Formula": "C30H23BrO4", "Melting Point": "205 \u00b0C"}}