{"cas_no": "2877-26-1", "cn_name": "\u5341\u516b\u70f7\u57fa\u5f02\u6c30\u9178\u916f", "en_name": ["1-Isothiocyanatooctadecane", "Octadecane, 1-isothiocyanato-", "Isothiocyanic acid, octadecyl ester", "1-Isothiocyanatooctadecane", "Octadecyl isothiocyanate"], "SMILES": "C(CCCCCCCCCC)CCCCCCCN=C=S", "physical_data": {"Molecular Weight": "311.57", "Molecular Formula": "C19H37NS", "Boiling Point": "140-142 \u00b0C @ Press: 3 x 10<sup>-3</sup> Torr", "Density": "0.8854 g/cm\u00b3 @ Temp: 20 \u00b0C"}}