{"cas_no": "28784-98-7", "cn_name": "(E)-3-(4-\u4e59\u57fa\u82ef\u57fa)\u4e19\u70ef\u9178", "en_name": ["3-(4-Ethylphenyl)-2-propenoic acid", "2-Propenoic acid, 3-(4-ethylphenyl)-", "Cinnamic acid, p-ethyl-", "3-(4-Ethylphenyl)-2-propenoic acid", "p-Ethylcinnamic acid", "4-Ethylcinnamic acid"], "SMILES": "C(=CC(O)=O)C1=CC=C(CC)C=C1", "physical_data": {"Molecular Weight": "176.21", "Molecular Formula": "C11H12O2", "Melting Point": "143 \u00b0C"}}