{"cas_no": "28788-62-7", "cn_name": "4-\u4e01\u57fa\u82c4\u6c2f", "en_name": ["4-Butylbenzoyl chloride", "Benzoyl chloride, 4-butyl-", "Benzoyl chloride, p-butyl-", "4-Butylbenzoyl chloride", "p-Butylbenzoyl chloride", "4-n-Butylbenzoyl chloride", "p-n-Butylbenzoyl chloride"], "SMILES": "C(Cl)(=O)C1=CC=C(CCCC)C=C1", "physical_data": {"Molecular Weight": "196.67", "Molecular Formula": "C11H13ClO", "Boiling Point": "155-156 \u00b0C @ Press: 26 Torr"}}