{"cas_no": "28782-78-7", "cn_name": "\u53d4\u4e01\u6c27\u7fb0\u57fa-\u4e19\u6c28\u9178-\u7518\u6c28\u9178", "en_name": ["N-[(1,1-Dimethylethoxy)carbonyl]-L-alanylglycine", "Glycine, N-[(1,1-dimethylethoxy)carbonyl]-L-alanyl-", "Glycine, N-(N-carboxy-L-alanyl)-, N-tert-butyl ester", "Glycine, N-[N-[(1,1-dimethylethoxy)carbonyl]-L-alanyl]-", "N-[(1,1-Dimethylethoxy)carbonyl]-L-alanylglycine", "t-Butoxycarbonyl-L-alanylglycine", "N-tert-Butoxycarbonylalanylglycine", "N-(tert-Butoxycarbonyl)-L-alanylglycine", "2-[(2S)-2-[[(tert-Butoxy)carbonyl]amino]propanamido]acetic acid"], "SMILES": "N(C(C(NCC(O)=O)=O)C)C(OC(C)(C)C)=O", "physical_data": {"Molecular Weight": "246.26", "Molecular Formula": "C10H18N2O5", "Melting Point": "104-105 \u00b0C"}}