{"cas_no": "28785-06-0", "cn_name": "4-N-\u4e19\u57fa\u82ef\u7532\u919b", "en_name": ["4-Propylbenzaldehyde", "Benzaldehyde, 4-propyl-", "Benzaldehyde, p-propyl-", "4-Propylbenzaldehyde", "p-Propylbenzaldehyde", "4-(n-Propyl)benzaldehyde", "[4-Propylphenyl]methanone"], "SMILES": "C(CC)C1=CC=C(C=O)C=C1", "physical_data": {"Molecular Weight": "148.20", "Molecular Formula": "C10H12O", "Boiling Point": "95 \u00b0C @ Press: 6 Torr", "Melting Point": "19 \u00b0C"}}