{"cas_no": "28783-41-7", "cn_name": "4,5,6,7-\u56db\u6c22\u567b\u5429[3,2-c]\u5421\u5576\u76d0\u9178\u76d0", "en_name": ["Thieno[3,2-c]pyridine, 4,5,6,7-tetrahydro-, hydrochloride (1:1)", "Thieno[3,2-c]pyridine, 4,5,6,7-tetrahydro-, hydrochloride (1:1)", "Thieno[3,2-c]pyridine, 4,5,6,7-tetrahydro-, hydrochloride", "4,5,6,7-Tetrahydrothieno[3,2-c]pyridine hydrochloride"], "SMILES": "C12=C(SC=C1)CCNC2.Cl", "physical_data": {"Molecular Weight": "", "Molecular Formula": "C7H9NS.ClH", "Melting Point": "220-230 \u00b0C"}}