{"cas_no": "2878-14-0", "cn_name": "2-\u7532\u57fa\u70ef\u4e19\u57fa\u80fa", "en_name": ["2-Methylallylamine", "2-Propen-1-amine, 2-methyl-", "Allylamine, 2-methyl-", "Methallylamine", "2-Methylallylamine", "\u03b2-Methallylamine", "1-Amino-2-methyl-2-propene", "3-Amino-2-methyl-1-propene", "2-Methyl-2-propenylamine", "NSC 32610", "2-Methyl-2-propen-1-amine", "2-Methylallylamin", "2-Methylprop-2-en-amine"], "SMILES": "C(CN)(C)=C", "physical_data": {"Molecular Weight": "71.12", "Molecular Formula": "C4H9N", "Boiling Point": "76.7-77.7 \u00b0C @ Press: 746 Torr"}}