{"cas_no": "2879-20-1", "cn_name": "6-\u4e59\u9170\u57fa-1,4-\u82ef\u5e76\u4e8c\u6c27\u6742\u73af", "en_name": ["1-(2,3-Dihydro-1,4-benzodioxin-6-yl)ethanone", "Ethanone, 1-(2,3-dihydro-1,4-benzodioxin-6-yl)-", "Ketone, 1,4-benzodioxan-6-yl methyl", "1,4-Benzodioxin, ethanone deriv.", "1-(2,3-Dihydro-1,4-benzodioxin-6-yl)ethanone", "6-Acetyl-1,4-benzodioxan", "6-Acetyl-1,4-benzodioxane", "6-Acetylbenzodioxane", "1-(2,3-Dihydrobenzo[1,4]dioxin-6-yl)ethanone", "3,4-Ethylenedioxyacetophenone", "1-(Benzodioxan-6-yl)ethanone", "3\u2032,4\u2032-Ethylenedioxyacetophenone", "1-(2,3-Dihydro-1,4-benzodioxin-6-yl)ethan-1-one", "6-Acetyl-2,3-dihydro-1,4-benzodioxin", "1-(2,3-Dihydrobenzo[b][1,4]dioxin-6-yl)ethan-1-one"], "SMILES": "C(C)(=O)C=1C=C2C(=CC1)OCCO2", "physical_data": {"Molecular Weight": "178.18", "Molecular Formula": "C10H10O3", "Melting Point": "84-85 \u00b0C"}}