{"cas_no": "2879-15-4", "cn_name": "8-\u82c4\u57fa\u8336\u78b1", "en_name": ["3,9-Dihydro-1,3-dimethyl-8-(phenylmethyl)-1H-purine-2,6-dione", "1H-Purine-2,6-dione, 3,9-dihydro-1,3-dimethyl-8-(phenylmethyl)-", "Theophylline, 8-benzyl-", "1H-Purine-2,6-dione, 3,7-dihydro-1,3-dimethyl-8-(phenylmethyl)-", "3,9-Dihydro-1,3-dimethyl-8-(phenylmethyl)-1H-purine-2,6-dione", "8-Benzyltheophylline", "NSC 14131", "8-Benzyltheophyline", "8-Benzyl-1,3-dimethyl-2,3,6,7-tetrahydro-1H-purine-2,6-dione"], "SMILES": "O=C1C2=C(N(C)C(=O)N1C)N=C(CC3=CC=CC=C3)N2", "physical_data": {"Molecular Weight": "270.29", "Molecular Formula": "C14H14N4O2", "Melting Point": "286-287 \u00b0C"}}