{"cas_no": "2879-60-9", "cn_name": "\u4e09\u6c2f\u4e59\u9178\u4e94\u6c2f\u82ef\u916f[\u7528\u4e8e\u80bd\u5408\u6210]", "en_name": ["Acetic acid, 2,2,2-trichloro-, 2,3,4,5,6-pentachlorophenyl ester", "Acetic acid, 2,2,2-trichloro-, 2,3,4,5,6-pentachlorophenyl ester", "Acetic acid, trichloro-, pentachlorophenyl ester", "Phenol, pentachloro-, trichloroacetate", "Pentachlorophenyl trichloroacetate", "(2,3,4,5,6-Pentachlorophenyl) 2,2,2-trichloroacetate"], "SMILES": "O(C(C(Cl)(Cl)Cl)=O)C1=C(Cl)C(Cl)=C(Cl)C(Cl)=C1Cl", "physical_data": {"Molecular Weight": "411.71", "Molecular Formula": "C8Cl8O2", "Melting Point": "130-130.5 \u00b0C"}}