{"cas_no": "287930-77-2", "cn_name": "\u5b5f\u9c81\u53f8\u7279\u94a0\u6742\u8d28", "en_name": ["2-[2-[3(S)-[3-(7-Chloro-2-quinolinyl)ethenyl]phenyl]-3-hydroxypropyl]phenyl-2-propanol", "Benzenepropanol, \u03b1-[3-[(1E)-2-(7-chloro-2-quinolinyl)ethenyl]phenyl]-2-(1-hydroxy-1-methylethyl)-, (\u03b1S)-", "(\u03b1S)-\u03b1-[3-[(1E)-2-(7-Chloro-2-quinolinyl)ethenyl]phenyl]-2-(1-hydroxy-1-methylethyl)benzenepropanol", "(S)-1-[3-[(E)-2-(7-Chloro-2-quinolinyl)ethenyl]phenyl]-3-[2-(1-hydroxy-1-methylethyl)phenyl]-1-propanol", "2-[2-[3(S)-[3-(7-Chloro-2-quinolinyl)ethenyl]phenyl]-3-hydroxypropyl]phenyl-2-propanol"], "SMILES": "C(=CC1=CC(C(CCC2=C(C(C)(C)O)C=CC=C2)O)=CC=C1)C3=NC4=C(C=C3)C=CC(Cl)=C4", "physical_data": {"Molecular Weight": "457.99", "Molecular Formula": "C29H28ClNO2", "Melting Point": "119-120 \u00b0C"}}