{"cas_no": "28797-48-0", "cn_name": "5,11-\u4e8c\u6c22-11-\u6c2f\u4e59\u9170\u57fa-6H-\u5421\u5576\u5e76[2.3-b][1,4]\u82ef\u5e76\u4e8c\u6c2e\u5353-6-\u916e", "en_name": ["11-(2-Chloroacetyl)-5,11-dihydro-6H-pyrido[2,3-b][1,4]benzodiazepin-6-one", "6H-Pyrido[2,3-b][1,4]benzodiazepin-6-one, 11-(2-chloroacetyl)-5,11-dihydro-", "6H-Pyrido[2,3-b][1,4]benzodiazepin-6-one, 11-(chloroacetyl)-5,11-dihydro-", "11-(2-Chloroacetyl)-5,11-dihydro-6H-pyrido[2,3-b][1,4]benzodiazepin-6-one", "11-(2-Chloroacetyl)-5H-pyrido[2,3-b][1,4]benzodiazepin-6-one", "11-(Chloroacetyl)-5,11-dihydro-6H-pyrido[2,3-b][1,4]benzodiazepin-6-one", "2-Chloro-1-(6-hydroxy-11H-pyrido[2,3-b][1,4]benzodiazepin-11-yl)ethanone"], "SMILES": "C(CCl)(=O)N1C=2C(C(=O)NC=3C1=NC=CC3)=CC=CC2", "physical_data": {"Molecular Weight": "287.70", "Molecular Formula": "C14H10ClN3O2", "Melting Point": "212 \u00b0C"}}