{"cas_no": "288-88-0", "cn_name": "1,2,4-\u4e09\u6c2e\u5511", "en_name": ["1H-1,2,4-Triazole", "1H-1,2,4-Triazole", "s-Triazole", "4H-1,2,4-Triazole", "NSC 83128", "3,4-Diazapyrrole"], "SMILES": "C=1NC=NN1", "physical_data": {"Molecular Weight": "69.07", "Molecular Formula": "C2H3N3", "Boiling Point": "270-280 \u00b0C", "Melting Point": "120 \u00b0C", "Density": "1.1 g/cm\u00b3"}}