{"cas_no": "288-32-4", "cn_name": "\u54aa\u5511", "en_name": ["Imidazole", "1H-Imidazole", "Imidazole", "1,3-Diaza-2,4-cyclopentadiene", "1,3-Diazole", "Glyoxalin", "Glyoxaline", "Imidazol", "Imutex", "Miazole", "Methanimidamide, N,N\u2032-1,2-ethenediyl-", "NSC 60522", "3-Azapyrrole", "Curezol SIZ"], "SMILES": "C1=CN=CN1", "physical_data": {"Molecular Weight": "68.08", "Molecular Formula": "C3H4N2", "Boiling Point": "257 \u00b0C", "Melting Point": "90.5 \u00b0C", "Density": "1.036 g/cm\u00b3 @ Temp: 95.0 \u00b0C"}}