{"cas_no": "288-42-6", "cn_name": "\u6076\u5511", "en_name": ["Oxazole", "Oxazole", "1,3-Oxazole", "3-Azafuran"], "SMILES": "C1=COC=N1", "physical_data": {"Molecular Weight": "69.06", "Molecular Formula": "C3H3NO", "Boiling Point": "69.5 \u00b0C", "Melting Point": "76-78 \u00b0C"}}