{"cas_no": "288-14-2", "cn_name": "\u5f02\u6076\u5511", "en_name": ["Isoxazole", "Isoxazole", "1-Oxa-2-azacyclopentadiene", "1,2-Oxazole", "NSC 137774", "2-Azafuran"], "SMILES": "C=1C=NOC1", "physical_data": {"Molecular Weight": "69.06", "Molecular Formula": "C3H3NO", "Boiling Point": "95 \u00b0C", "Density": "1.078 g/cm\u00b3 @ Temp: 20 \u00b0C"}}