{"cas_no": "288-05-1", "cn_name": "\u7852\u915a", "en_name": ["Selenophene", "Selenophene", "Selenacyclopentadiene", "Selenofuran"], "SMILES": "C=1C=C[Se]C1", "physical_data": {"Molecular Weight": "131.03", "Molecular Formula": "C4H4Se", "Boiling Point": "109.9-110.1 \u00b0C @ Press: 752.1 Torr", "Density": "1.5232 g/cm\u00b3 @ Temp: 20 \u00b0C"}}