{"cas_no": "288-36-8", "cn_name": "1,2,3-\u4e09\u6c2e\u5511", "en_name": ["1H-1,2,3-Triazole", "1H-1,2,3-Triazole", "v-Triazole", "Pyrrodiazole", "Triazacyclopentadiene", "Osotriazole", "1,2,3-Triazole", "2H-1,2,3-Triazole", "2,3-Diazapyrrole"], "SMILES": "C1=CN=NN1", "physical_data": {"Molecular Weight": "69.07", "Molecular Formula": "C2H3N3", "Boiling Point": "204 \u00b0C", "Melting Point": "23 \u00b0C"}}