{"cas_no": "288-47-1", "cn_name": "\u567b\u5511", "en_name": ["Thiazole", "Thiazole", "3-Azathiophene"], "SMILES": "C1=CSC=N1", "physical_data": {"Molecular Weight": "85.13", "Molecular Formula": "C3H3NS", "Boiling Point": "118 \u00b0C", "Density": "1.2002 g/cm\u00b3 @ Temp: 20 \u00b0C"}}