{"cas_no": "288-13-1", "cn_name": "\u5421\u5511", "en_name": ["Pyrazole", "1H-Pyrazole", "Pyrazole", "1,2-Diazole", "NSC 45410", "2-Azapyrrole"], "SMILES": "C=1C=NNC1", "physical_data": {"Molecular Weight": "68.08", "Molecular Formula": "C3H4N2", "Boiling Point": "187 \u00b0C", "Melting Point": "68 \u00b0C", "Density": "0.952 g/cm\u00b3 @ Temp: 155.0 \u00b0C"}}