{"cas_no": "288-16-4", "cn_name": "\u5f02\u567b\u5511", "en_name": ["Isothiazole", "Isothiazole", "1,2-Thiazole", "2-Azathiophene"], "SMILES": "C=1C=NSC1", "physical_data": {"Molecular Weight": "85.13", "Molecular Formula": "C3H3NS", "Boiling Point": "113 \u00b0C @ Press: 770 Torr", "Melting Point": "176 \u00b0C (decomp)", "Density": "1.1706 g/cm\u00b3 @ Temp: 20 \u00b0C"}}