{"cas_no": "288-94-8", "cn_name": "\u56db\u6c2e\u5511", "en_name": ["1H-Tetrazole", "2H-Tetrazole", "1H-Tetrazole", "Tetraazacyclopentadiene", "NSC 36712", "2,3,4-Triazapyrrole", "1H-TZ"], "SMILES": "C=1NN=NN1", "physical_data": {"Molecular Weight": "70.05", "Molecular Formula": "CH2N4", "Melting Point": "157 \u00b0C"}}