{"cas_no": "28804-88-8", "cn_name": "\u4e8c\u7532\u57fa\u8418", "en_name": ["Dimethylnaphthalene", "Naphthalene, dimethyl-", "Dimethylnaphthalene"], "SMILES": "", "physical_data": {"Molecular Weight": "", "Molecular Formula": "C12H12", "Boiling Point": "265 \u00b0C", "Density": "1.0052 g/cm\u00b3 @ Temp: 20 \u00b0C"}}