{"cas_no": "28808-62-0", "cn_name": "\u68a3\u916e", "en_name": ["Fraxinellone", "1(3H)-Isobenzofuranone, 3-(3-furanyl)-3a,4,5,6-tetrahydro-3a,7-dimethyl-, (3R,3aR)-", "Phthalide, 3-(3-furyl)-3a,4,5,6-tetrahydro-3a,7-dimethyl-", "1(3H)-Isobenzofuranone, 3-(3-furanyl)-3a,4,5,6-tetrahydro-3a,7-dimethyl-, (3R-cis)-", "(3R,3aR)-3-(3-Furanyl)-3a,4,5,6-tetrahydro-3a,7-dimethyl-1(3H)-isobenzofuranone", "Fraxinellone"], "SMILES": "CC12C(OC(=O)C1=C(C)CCC2)C=3C=COC3", "physical_data": {"Molecular Weight": "232.27", "Molecular Formula": "C14H16O3", "Melting Point": "117 \u00b0C"}}