{"cas_no": "2880-49-1", "cn_name": "\u72ec\u6d3b\u7d20", "en_name": ["(+)-Heraclenin", "7H-Furo[3,2-g][1]benzopyran-7-one, 9-[[(2R)-3,3-dimethyl-2-oxiranyl]methoxy]-", "7H-Furo[3,2-g][1]benzopyran-7-one, 9-(2,3-epoxy-3-methylbutoxy)-, (R)-(+)-", "7H-Furo[3,2-g][1]benzopyran-7-one, 9-[(3,3-dimethyloxiranyl)methoxy]-, (R)-", "Heraclenin", "7H-Furo[3,2-g][1]benzopyran-7-one, 9-[[(2R)-3,3-dimethyloxiranyl]methoxy]-", "9-[[(2R)-3,3-Dimethyl-2-oxiranyl]methoxy]-7H-furo[3,2-g][1]benzopyran-7-one", "Prangenin", "(+)-Heraclenin"], "SMILES": "O(CC1C(C)(C)O1)C=2C3=C(C=C4C2OC=C4)C=CC(=O)O3", "physical_data": {"Molecular Weight": "286.28", "Molecular Formula": "C16H14O5", "Melting Point": "97 \u00b0C"}}