{"cas_no": "2880-58-2", "cn_name": "\u7532\u6c27\u82ef\u918c", "en_name": ["2-Methoxy-1,4-benzoquinone", "2,5-Cyclohexadiene-1,4-dione, 2-methoxy-", "p-Benzoquinone, 2-methoxy-", "p-Benzoquinone, methoxy-", "2-Methoxy-2,5-cyclohexadiene-1,4-dione", "Methoxy-p-benzoquinone", "Methoxy-1,4-benzoquinone", "2-Methoxyquinone", "2-Methoxy-1,4-benzoquinone", "Methoxy-p-quinone", "2-Methoxybenzoquinone", "2-Methoxy-p-benzoquinone", "NSC 508876"], "SMILES": "O(C)C=1C(=O)C=CC(=O)C1", "physical_data": {"Molecular Weight": "138.12", "Molecular Formula": "C7H6O3", "Melting Point": "139 \u00b0C"}}