{"cas_no": "2881-83-6", "cn_name": "3-(4-\u7532\u6c27\u82ef\u57fa)-3-\u6c27\u4ee3\u4e19\u9178\u4e59\u916f", "en_name": ["Ethyl 3-(4-methoxyphenyl)-3-oxopropanoate", "Benzenepropanoic acid, 4-methoxy-\u03b2-oxo-, ethyl ester", "Acetic acid, p-anisoyl-, ethyl ester", "Ethyl p-anisoylacetate", "2-(p-Methoxybenzoyl)acetic acid ethyl ester", "Ethyl (4-methoxybenzoyl)acetate", "Ethyl (p-methoxybenzoyl)acetate", "Ethyl 3-(4-methoxyphenyl)-3-oxopropanoate", "NSC 69701", "4-Methoxy-\u03b2-oxobenzenepropanoic acid ethyl ester", "Ethyl 2-(4-methoxybenzoyl)acetate", "Ethyl 3-(4-methoxyphenyl)-3-oxopropionate", "3-(4-Methoxyphenyl)-3-oxo-propionic acid ethyl ester", "(4-Methoxybenzoyl)acetic acid ethyl ester", "3-(4-Methoxyphenyl)-3-oxopropanoic acid ethyl ester", "3-Oxo-3-(4-methoxyphenyl)propanoic acid ethyl ester"], "SMILES": "C(CC(OCC)=O)(=O)C1=CC=C(OC)C=C1", "physical_data": {"Molecular Weight": "222.24", "Molecular Formula": "C12H14O4", "Boiling Point": "180-190 \u00b0C @ Press: 10-12 Torr", "Density": "1.1753 g/cm\u00b3 @ Temp: 0 \u00b0C"}}