{"cas_no": "2882-20-4", "cn_name": "2-\u7532\u57fa-3-(\u7532\u786b\u57fa)\u5421\u55ea", "en_name": ["2-Methyl-3-(methylthio)pyrazine", "Pyrazine, 2-methyl-3-(methylthio)-", "2-Methyl-3-(methylthio)pyrazine", "2-Methyl-3-methylmercaptopyrazine", "2-Methylthio-3-methylpyrazine", "3-Methyl-2-methylthiopyrazine", "2-Methylmercapto-3-methylpyrazine", "NSC 222757", "2-Methyl-3-methylsulfanylpyrazine", "2-Methyl-3-(methylsulfanyl)pyrazine"], "SMILES": "S(C)C=1C(C)=NC=CN1", "physical_data": {"Molecular Weight": "140.21", "Molecular Formula": "C6H8N2S", "Boiling Point": "84-88 \u00b0C @ Press: 10 Torr"}}