{"cas_no": "2882-21-5", "cn_name": "2-\u7532\u6c27\u57fa-6-\u7532\u57fa\u5421\u55ea", "en_name": ["2-Methoxy-6-methylpyrazine", "Pyrazine, 2-methoxy-6-methyl-", "2-Methoxy-6-methylpyrazine", "2-Methyl-6-methoxypyrazine"], "SMILES": "O(C)C1=NC(C)=CN=C1", "physical_data": {"Molecular Weight": "124.14", "Molecular Formula": "C6H8N2O", "Boiling Point": "48-50 \u00b0C @ Press: 15 Torr"}}