{"cas_no": "28822-73-3", "cn_name": "DL-3,4-\u4e8c\u7f9f\u57fa\u82ef\u57fa\u4e8c\u9187", "en_name": ["(\u00b1)-3,4-Dihydroxyphenylglycol", "1,2-Benzenediol, 4-(1,2-dihydroxyethyl)-", "1,2-Ethanediol, 1-(3,4-dihydroxyphenyl)-, (\u00b1)-", "1,2-Benzenediol, 4-(1,2-dihydroxyethyl)-, (\u00b1)-", "4-(1,2-Dihydroxyethyl)-1,2-benzenediol", "DL-3,4-Dihydroxyphenylglycol", "(\u00b1)-3,4-Dihydroxyphenylglycol", "3,4-Dihydroxyphenethyl glycol", "(3,4-Dihydroxyphenyl)ethylene glycol", "Ba 2775", "1-(3,4-Dihydroxyphenyl)-1,2-ethanediol", "3,4-Dihydroxyphenylethyl glycol", "DOPEG", "DHPG", "NSC 92532", "3,4-Dihydroxyphenylglycol"], "SMILES": "C(CO)(O)C1=CC(O)=C(O)C=C1", "physical_data": {"Molecular Weight": "170.16", "Molecular Formula": "C8H10O4", "Melting Point": "128-129 \u00b0C"}}