{"cas_no": "2882-19-1", "cn_name": "\u03b1-\u6eb4\u82ef\u4e59\u9178\u4e59\u916f", "en_name": ["Ethyl \u03b1-bromobenzeneacetate", "Benzeneacetic acid, \u03b1-bromo-, ethyl ester", "Acetic acid, bromophenyl-, ethyl ester", "Ethyl \u03b1-bromobenzeneacetate", "\u03b1-Bromophenylacetic acid ethyl ester", "Ethyl \u03b1-bromophenylacetate", "Ethyl bromophenylacetate", "Ethyl 2-bromo-2-phenylacetate", "Ethyl 2-bromophenylacetate", "Ethyl \u03b1-bromo-\u03b1-phenylacetate", "DL-\u03b1-Bromophenylacetic acid ethyl ester", "Ethyl (\u00b1)-\u03b1-bromophenylacetate", "Ethyl (\u00b1)-\u03b1-bromobenzeneacetate", "2-Bromo-2-phenylacetic acid ethyl ester", "\u03b1-Bromobenzeneacetic acid ethyl ester", "NSC 38807"], "SMILES": "C(C(OCC)=O)(Br)C1=CC=CC=C1", "physical_data": {"Molecular Weight": "243.10", "Molecular Formula": "C10H11BrO2", "Boiling Point": "145 \u00b0C @ Press: 15 Torr", "Density": "1.386 g/cm\u00b3 @ Temp: 20 \u00b0C"}}