{"cas_no": "28822-58-4", "cn_name": "3-\u5f02\u4e01\u57fa-1-\u7532\u57fa\u9ec4\u560c\u5464", "en_name": ["3-Isobutyl-1-methylxanthine", "1H-Purine-2,6-dione, 3,9-dihydro-1-methyl-3-(2-methylpropyl)-", "Xanthine, 3-isobutyl-1-methyl-", "1H-Purine-2,6-dione, 3,7-dihydro-1-methyl-3-(2-methylpropyl)-", "3,9-Dihydro-1-methyl-3-(2-methylpropyl)-1H-purine-2,6-dione", "1-Methyl-3-isobutylxanthine", "3-Isobutyl-1-methylxanthine", "Isobutylmethylxanthine", "SC 2964", "IBMX", "Methylisobutylxanthine", "IMX", "NSC 165960", "1-Methyl-3-(2-methylpropyl)-2,3,6,9-tetrahydro-1H-purine-2,6-dione", "3-Isobutyl-1-methyl-1H-purine-2,6(3H,7H)-dione", "3-Isobutyl-1-methyl-3,7-dihydro-1H-purine-2,6-dione", "MeSH ID: D015056"], "SMILES": "C(C(C)C)N1C2=C(C(=O)N(C)C1=O)NC=N2", "physical_data": {"Molecular Weight": "222.24", "Molecular Formula": "C10H14N4O2", "Melting Point": "200-201 \u00b0C"}}