{"cas_no": "2882-15-7", "cn_name": "5-\u7532\u6c27\u57fa-2-\u7532\u57fa-3-\u5432\u54da\u4e59\u9178", "en_name": ["5-Methoxy-2-methylindole-3-acetic acid", "1H-Indole-3-acetic acid, 5-methoxy-2-methyl-", "Indole-3-acetic acid, 5-methoxy-2-methyl-", "5-Methoxy-2-methyl-1H-indole-3-acetic acid", "De(chlorobenzoyl)indomethacin", "5-Methoxy-2-methylindole-3-acetic acid", "2-Methyl-5-methoxy-3-indolylacetic acid", "5-Methoxy-2-methylindol-3-acetic acid", "2-Methyl-5-methoxyindole-3-acetic acid", "N-Des(4-chlorobenzoyl)indomethacin", "5-Methoxy-2-methyl-3-indolylacetic acid", "2-(5-Methoxy-2-methyl-1H-indol-3-yl)acetic acid", "NSC 97026", "(5-Methoxy-2-methyl-1H-indol-3-yl)acetic acid", "2-(5-Methoxy-2-methylindol-3-yl)acetic acid"], "SMILES": "C(C(O)=O)C=1C=2C(NC1C)=CC=C(OC)C2", "physical_data": {"Molecular Weight": "219.24", "Molecular Formula": "C12H13NO3", "Melting Point": "161-162 \u00b0C"}}