{"cas_no": "2883-45-6", "cn_name": "1,6-\u5e9a\u4e8c\u70ef-4-\u9187", "en_name": ["1,6-Heptadien-4-ol", "1,6-Heptadien-4-ol", "4-Hydroxy-1,6-heptadiene", "NSC 97509", "Diallylmethanol"], "SMILES": "C(CC=C)(CC=C)O", "physical_data": {"Molecular Weight": "112.17", "Molecular Formula": "C7H12O", "Boiling Point": "151 \u00b0C", "Density": "0.8644 g/cm\u00b3 @ Temp: 20 \u00b0C"}}