{"cas_no": "2883-02-5", "cn_name": "\u6b63\u58ec\u57fa\u73af\u5df2\u70f7", "en_name": ["Nonylcyclohexane", "Cyclohexane, nonyl-", "Nonane, 1-cyclohexyl-", "Nonylcyclohexane", "n-Nonylcyclohexane", "1-Cyclohexylnonane"], "SMILES": "C(CCCCCCCC)C1CCCCC1", "physical_data": {"Molecular Weight": "210.40", "Molecular Formula": "C15H30", "Boiling Point": "282 \u00b0C", "Melting Point": "-10 \u00b0C", "Density": "0.8172 g/cm\u00b3 @ Temp: 20 \u00b0C"}}