{"cas_no": "28831-65-4", "cn_name": "\u7d2b\u8349\u9178", "en_name": ["(+)-Lithospermic acid", "3-Benzofurancarboxylic acid, 4-[(1E)-3-[(1R)-1-carboxy-2-(3,4-dihydroxyphenyl)ethoxy]-3-oxo-1-propen-1-yl]-2-(3,4-dihydroxyphenyl)-2,3-dihydro-7-hydroxy-, (2S,3S)-", "Lithospermic acid", "3-Benzofurancarboxylic acid, 4-[(1E)-3-[(1R)-1-carboxy-2-(3,4-dihydroxyphenyl)ethoxy]-3-oxo-1-propenyl]-2-(3,4-dihydroxyphenyl)-2,3-dihydro-7-hydroxy-, (2S,3S)-", "(2S,3S)-4-[(1E)-3-[(1R)-1-Carboxy-2-(3,4-dihydroxyphenyl)ethoxy]-3-oxo-1-propen-1-yl]-2-(3,4-dihydroxyphenyl)-2,3-dihydro-7-hydroxy-3-benzofurancarboxylic acid", "Lithospermic acid A", "(+)-Lithospermic acid"], "SMILES": "C(O)(=O)C1C=2C(OC1C3=CC(O)=C(O)C=C3)=C(O)C=CC2C=CC(OC(CC4=CC(O)=C(O)C=C4)C(O)=O)=O", "physical_data": {"Molecular Weight": "538.46", "Molecular Formula": "C27H22O12", "Melting Point": "183-188 \u00b0C"}}