{"cas_no": "2883-98-9", "cn_name": "\u03b1-\u7ec6\u8f9b\u8111", "en_name": ["Asarone", "Benzene, 1,2,4-trimethoxy-5-(1E)-1-propen-1-yl-", "Benzene, 1,2,4-trimethoxy-5-propenyl-, (E)-", "Benzene, 1,2,4-trimethoxy-5-(1-propenyl)-, (E)-", "Isoasaron", "Benzene, 1,2,4-trimethoxy-5-(1E)-1-propenyl-", "1,2,4-Trimethoxy-5-(1E)-1-propen-1-ylbenzene", "Asaron", "trans-Asarone", "Asarum camphor", "Asarone", "\u03b1-Asarone", "trans-Isoasaron", "trans-Isoasarone", "(E)-Asarone", "\u03b1-Asaron", "(E)-1,2,4-Trimethoxy-5-(prop-1-en-1-yl)benzene", "1,2,4-Trimethoxy-5[(1E)-1-propenyl]benzene"], "SMILES": "C(=CC)C1=C(OC)C=C(OC)C(OC)=C1", "physical_data": {"Molecular Weight": "208.25", "Molecular Formula": "C12H16O3", "Boiling Point": "296 \u00b0C @ Press: 760 Torr", "Melting Point": "62-63 \u00b0C"}}