{"cas_no": "2884-51-7", "cn_name": "\u5730\u585e\u7c73\u677e\u918b\u9178\u76d0EP\u6742\u8d28F", "en_name": ["(9\u03b2,11\u03b2,16\u03b1)-21-(Acetyloxy)-9,11-epoxy-17-hydroxy-16-methylpregna-1,4-diene-3,20-dione", "Pregna-1,4-diene-3,20-dione, 21-(acetyloxy)-9,11-epoxy-17-hydroxy-16-methyl-, (9\u03b2,11\u03b2,16\u03b1)-", "9\u03b2-Pregna-1,4-diene-3,20-dione, 9,11\u03b2-epoxy-17,21-dihydroxy-16\u03b1-methyl-, 21-acetate", "(9\u03b2,11\u03b2,16\u03b1)-21-(Acetyloxy)-9,11-epoxy-17-hydroxy-16-methylpregna-1,4-diene-3,20-dione"], "SMILES": "CC12C34C(C5C(C)(CC3O4)C(C(COC(C)=O)=O)(O)C(C)C5)CCC1=CC(=O)C=C2", "physical_data": {"Molecular Weight": "414.49", "Molecular Formula": "C24H30O6", "Melting Point": "198-200 \u00b0C"}}