{"cas_no": "2885-00-9", "cn_name": "\u5341\u516b\u786b\u9187", "en_name": ["1-Octadecanethiol", "1-Octadecanethiol", "Octadecyl mercaptan", "Stearyl mercaptan", "n-Octadecyl mercaptan", "Octadecanethiol", "1-Mercaptooctadecane", "1-Octadecyl mercaptan", "Octadecylthiol", "n-Octadecanethiol", "NSC 5545", "n-Octadecyl thiolate", "1-Octadecylthiol"], "SMILES": "C(CCCCCCCCC)CCCCCCCCS", "physical_data": {"Molecular Weight": "286.56", "Molecular Formula": "C18H38S", "Boiling Point": "360 \u00b0C", "Melting Point": "30 \u00b0C"}}