{"cas_no": "28860-95-9", "cn_name": "\u5361\u522b\u591a\u5df4", "en_name": ["Carbidopa", "Benzenepropanoic acid, \u03b1-hydrazinyl-3,4-dihydroxy-\u03b1-methyl-, (\u03b1S)-", "Hydrocinnamic acid, \u03b1-hydrazino-3,4-dihydroxy-\u03b1-methyl-, L-", "Benzenepropanoic acid, \u03b1-hydrazino-3,4-dihydroxy-\u03b1-methyl-, (S)-", "Benzenepropanoic acid, \u03b1-hydrazino-3,4-dihydroxy-\u03b1-methyl-, (\u03b1S)-", "(\u03b1S)-\u03b1-Hydrazinyl-3,4-dihydroxy-\u03b1-methylbenzenepropanoic acid", "L-\u03b1-Hydrazino-\u03b1-methyl-\u03b2-(3,4-dihydroxyphenyl)propionic acid", "MK 486", "L-3-(3,4-Dihydroxyphenyl)-2-methyl-2-hydrazinopropionic acid", "L-\u03b1-Methyl-\u03b1-hydrazino-\u03b2-(3,4-dihydroxyphenyl)propionic acid", "L-\u03b1-Methyl-\u03b2-(3,4-dihydroxyphenyl)-\u03b1-hydrazinopropionic acid", "L-\u03b1-Methyldopahydrazine", "Carbidopa", "(-)-L-\u03b1-Hydrazino-3,4-dihydroxy-\u03b1-methylhydrocinnamic acid monohydrate", "L-\u03b1-(3,4-Dihydroxybenzyl)-\u03b1-hydrazinopropionic acid", "1-\u03b1-(3,4-Dihydroxybenzyl)-\u03b1-hydrazinopropionic acid", "(-)-L-\u03b1-Hydrazino-3,4-dihydroxy-\u03b1-methylhydrocinamic acid", "\u03b1-Hydrazino-\u03b1-methyl-\u03b2-(3,4-dihydroxyphenyl)propionic acid", "\u03b1-Methyldopahydrazine", "Hydrazino-\u03b1-methyldopa", "L-\u03b1-Hydrazino-\u03b1-methyl-3,4-dihydroxyphenylpropionic acid", "L-\u03b1-Methyl-\u03b1-hydrazino-3,4-dihydroxyphenylpropionic acid", "N-Aminomethyldopa", "L-\u03b1-Hydrazino-3,4-dihydroxy-\u03b1-methylbenzenepropanoic acid", "Lodosyn", "HMD", "Lodosin", "(S)-Carbidopa", "L-Carbidopa", "(2S)-2-(Aminoazaniumyl)-3-(3,4-dihydroxyphenyl)-2-methylpropanoate", "(2S)-3-(3,4-Dihydroxyphenyl)-2-hydrazinyl-2-methylpropanoic acid", "Cabidopa", "MeSH ID: D002230"], "SMILES": "C(CC1=CC(O)=C(O)C=C1)(C(O)=O)(NN)C", "physical_data": {"Molecular Weight": "226.23", "Molecular Formula": "C10H14N2O4", "Melting Point": "208 \u00b0C"}}