{"cas_no": "28862-80-8", "cn_name": "N-\u82c4\u6c27\u7fb0\u57fa-D-\u86cb\u6c28\u9178", "en_name": ["CBZ-D-Methionine", "D-Methionine, N-[(phenylmethoxy)carbonyl]-", "Methionine, N-carboxy-, N-benzyl ester, D-", "N-[(Phenylmethoxy)carbonyl]-D-methionine", "N-(Benzyloxycarbonyl)-D-methionine", "D-(Carbobenzyloxy)methionine", "CBZ-D-Methionine", "N-Carbobenzyloxy-D-methionine", "(R)-2-(Benzyloxycarbonylamino)-4-(methylthio)butanoic acid", "(2R)-4-Methylsulfanyl-2-(phenylmethoxycarbonylamino)butanoic acid"], "SMILES": "C(OC(NC(CCSC)C(O)=O)=O)C1=CC=CC=C1", "physical_data": {"Molecular Weight": "283.34", "Molecular Formula": "C13H17NO4S", "Melting Point": "62-63 \u00b0C"}}