{"cas_no": "288628-05-7", "cn_name": "6-oxo-6,7,8,9,10,11-hexahydrocyclohepta[c][1]benzopyran-3-yl sulfaMate", "en_name": ["6,7,8,9,10,11-Hexahydro-6-oxobenzo[b]cyclohepta[d]pyran-3-yl sulfamate", "Sulfamic acid, 6,7,8,9,10,11-hexahydro-6-oxobenzo[b]cyclohepta[d]pyran-3-yl ester", "6,7,8,9,10,11-Hexahydro-6-oxobenzo[b]cyclohepta[d]pyran-3-yl sulfamate", "667-Coumate", "BN 83495", "STX 64", "Irosustat"], "SMILES": "O=C1C2=C(C=3C(=CC(OS(N)(=O)=O)=CC3)O1)CCCCC2", "physical_data": {"Molecular Weight": "309.34", "Molecular Formula": "C14H15NO5S", "Melting Point": "170.1-173.4 \u00b0C"}}