{"cas_no": "2886-65-9", "cn_name": "7-\u6c2f-5-(2-\u6c1f\u82ef\u57fa)-1,3-\u4e8c\u6c22-2H-1,4-\u82ef\u5e76\u4e8c\u6c2e\u6742\u5353-2-\u916e", "en_name": ["Desalkylflurazepam", "2H-1,4-Benzodiazepin-2-one, 7-chloro-5-(2-fluorophenyl)-1,3-dihydro-", "2H-1,4-Benzodiazepin-2-one, 7-chloro-5-(o-fluorophenyl)-1,3-dihydro-", "7-Chloro-5-(2-fluorophenyl)-1,3-dihydro-2H-1,4-benzodiazepin-2-one", "N-1-Desalkylflurazepam", "7-Chloro-5-(o-fluorophenyl)-1,3-dihydro-1,4-benzodiazepin-2-one", "7-Chloro-5-(o-fluorophenyl)-1,3-dihydro-2H-1,4-benzodiazepine-2-one", "7-Chloro-5-(2\u2032-fluorophenyl)-1,3-dihydro-2H-1,4-benzodiazepin-2-one", "Ro 5-3367", "Norfludiazepam", "CM 7116", "N-Desalkylflutoprazepam", "N-Desalkyl-2-oxoquazepam", "Dealkylflurazepam", "Desalkylflurazepam", "Descarbethoxyloflazepate", "Sch 17514", "Norflutoprazepam", "7-Chloro-1,3-dihydro-5-(2\u2032-fluorophenyl)-2H-1,4-benzodiazapin-2-one", "Norflurazepam"], "SMILES": "ClC=1C=C2C(=NCC(=O)NC2=CC1)C3=C(F)C=CC=C3", "physical_data": {"Molecular Weight": "288.70", "Molecular Formula": "C15H10ClFN2O", "Melting Point": "205-206 \u00b0C"}}