{"cas_no": "2887-72-1", "cn_name": "3',5'-\u4e8c\u6eb4-4'-\u7f9f\u57fa\u82ef\u4e59\u916e", "en_name": ["3\u2032,5\u2032-Dibromo-4\u2032-hydroxyacetophenone", "Ethanone, 1-(3,5-dibromo-4-hydroxyphenyl)-", "Acetophenone, 3\u2032,5\u2032-dibromo-4\u2032-hydroxy-", "1-(3,5-Dibromo-4-hydroxyphenyl)ethanone", "3\u2032,5\u2032-Dibromo-4\u2032-hydroxyacetophenone", "NSC 41698", "1-(3,5-Dibromo-4-hydroxyphenyl)ethan-1-one"], "SMILES": "C(C)(=O)C1=CC(Br)=C(O)C(Br)=C1", "physical_data": {"Molecular Weight": "293.94", "Molecular Formula": "C8H6Br2O2", "Melting Point": "181 \u00b0C"}}