{"cas_no": "2887-61-8", "cn_name": "2'-\u7f9f\u57fa\u82ef\u4e01\u916e", "en_name": ["2-Hydroxybutyrophenone", "1-Butanone, 1-(2-hydroxyphenyl)-", "Butyrophenone, 2\u2032-hydroxy-", "1-(2-Hydroxyphenyl)-1-butanone", "2-Butyrylphenol", "o-Hydroxybutyrophenone", "2-Hydroxybutyrophenone", "2\u2032-Hydroxybutyrophenone", "Propyl 2-hydroxyphenyl ketone", "Fenjuntong"], "SMILES": "C(CCC)(=O)C1=C(O)C=CC=C1", "physical_data": {"Molecular Weight": "164.20", "Molecular Formula": "C10H12O2", "Boiling Point": "124-126 \u00b0C @ Press: 14 Torr", "Melting Point": "10 \u00b0C", "Density": "1.0683 g/cm\u00b3 @ Temp: 24 \u00b0C"}}