{"cas_no": "28874-51-3", "cn_name": "L-\u5421\u54af\u70f7\u916e-5-\u7fa7\u9178\u94a0", "en_name": ["Sodium pyroglutamate", "L-Proline, 5-oxo-, sodium salt (1:1)", "Proline, 5-oxo-, monosodium salt, L-", "L-Proline, 5-oxo-, monosodium salt", "2-Pyrrolidinone-5-carboxylic acid sodium salt", "Sodium 2-pyrrolidinone-5-carboxylate", "Sodium 2-oxo-5-pyrrolidinecarboxylate", "5-Carboxy-2-pyrrolidone sodium salt", "Sodium 2-pyrrolidone-5-carboxylate", "Sodium L-pyroglutamate", "2-Pyrrolidone-5-carboxylic acid sodium salt", "Sodium pyrrolidone-5-carboxylate", "Sodium L-pyrrolidonecarboxylate", "Sodium pidolate", "Sodium pyroglutamate", "Ajidew NL 50", "PDSI 101", "Prodew 300", "Monosodium L-pyroglutamate", "NL 50"], "SMILES": "C(O)(=O)C1NC(=O)CC1.[Na]", "physical_data": {"Molecular Weight": "", "Molecular Formula": "C5H7NO3.Na", "Melting Point": "42 \u00b0C"}}