{"cas_no": "28874-58-0", "cn_name": "\u5eff\u4e8c\u78b3\u56db\u70ef\u9178", "en_name": ["7Z,10Z,13Z,16Z-Docosatetraenoic acid", "7,10,13,16-Docosatetraenoic acid, (7Z,10Z,13Z,16Z)-", "7,10,13,16-Docosatetraenoic acid, (all-Z)-", "(7Z,10Z,13Z,16Z)-7,10,13,16-Docosatetraenoic acid", "all-cis-7,10,13,16-Docosatetraenoic acid", "(all-Z)-7,10,13,16-Docosatetraenoic acid", "\u03947,10,13,16-Docosatetraenoic acid", "7Z,10Z,13Z,16Z-Docosatetraenoic acid", "(7Z,10Z,13Z,16Z)-7,10,13,16-Docosatetraenoic acid", "Adrenic acid"], "SMILES": "C(CC=CCC=CCC=CCCCCC)=CCCCCCC(O)=O", "physical_data": {"Molecular Weight": "332.52", "Molecular Formula": "C22H36O2", "Boiling Point": "161-164.5 \u00b0C @ Press: 0.07 Torr", "Density": "0.9220 g/cm\u00b3 @ Temp: 20 \u00b0C"}}