{"cas_no": "2888-06-4", "cn_name": "3-\u6c2f\u82ef\u78fa\u9170\u6c2f", "en_name": ["3-Chlorobenzenesulfonyl chloride", "Benzenesulfonyl chloride, 3-chloro-", "Benzenesulfonyl chloride, m-chloro-", "3-Chlorobenzenesulfonyl chloride", "m-Chlorobenzenesulfonyl chloride", "3-Chlorophenylsulfonyl chloride", "3-Chlorobenzene-1-sulfonyl chloride"], "SMILES": "S(Cl)(=O)(=O)C1=CC(Cl)=CC=C1", "physical_data": {"Molecular Weight": "211.07", "Molecular Formula": "C6H4Cl2O2S", "Boiling Point": "142-145 \u00b0C @ Press: 16 Torr"}}