{"cas_no": "28888-44-0", "cn_name": "6,7-\u4e8c\u7532\u6c27\u57fa-2,4-\u55b9\u5511\u5549\u4e8c\u916e", "en_name": ["6,7-Dimethoxy-2,4(1H,3H)-quinazolinedione", "2,4(1H,3H)-Quinazolinedione, 6,7-dimethoxy-", "6,7-Dimethoxy-2,4(1H,3H)-quinazolinedione", "6,7-Dimethoxyquinazoline-2,4-dione", "2,5-Dihydroxy-6,7-dimethoxyquinazoline", "6,7-Dimethoxy-1H-quinazoline-2,4-dione", "6,7-Dimethoxyquinazoline-2,4-diol", "6,7-Dimethoxyquinazolin-2,4(1H,3H)-dione"], "SMILES": "O=C1C=2C(=CC(OC)=C(OC)C2)NC(=O)N1", "physical_data": {"Molecular Weight": "222.20", "Molecular Formula": "C10H10N2O4", "Melting Point": "320-324 \u00b0C"}}