{"cas_no": "28897-58-7", "cn_name": "2-\u7532\u57fa-2-\u5df1\u70ef\u9178", "en_name": ["2-Methyl-2-hexenoic acid", "2-Hexenoic acid, 2-methyl-", "2-Methyl-2-hexenoic acid"], "SMILES": "C(C(O)=O)(=CCCC)C", "physical_data": {"Molecular Weight": "128.17", "Molecular Formula": "C7H12O2", "Boiling Point": "113.5 \u00b0C @ Press: 15 Torr", "Density": "0.9477 g/cm\u00b3 @ Temp: 13.45 \u00b0C"}}