{"cas_no": "28896-49-3", "cn_name": "4-\u7898\u4e8c\u82ef\u57fa\u919a", "en_name": ["1,1\u2032-Oxybis[4-iodobenzene]", "Benzene, 1,1\u2032-oxybis[4-iodo-", "Ether, bis(p-iodophenyl)", "1,1\u2032-Oxybis[4-iodobenzene]", "Bis(p-iodophenyl) ether", "4,4\u2032-Diiododiphenyl ether", "p,p\u2032-Iododiphenyl ether", "Bis(4-iodophenyl)ether", "NSC 45097", "4,4\u2032-Diiodophenyl ether", "1-Iodo-4-(4-iodophenoxy)benzene", "4,4\u2032-Oxybis(iodobenzene)"], "SMILES": "O(C1=CC=C(I)C=C1)C2=CC=C(I)C=C2", "physical_data": {"Molecular Weight": "422.00", "Molecular Formula": "C12H8I2O", "Melting Point": "139 \u00b0C"}}