{"cas_no": "289-95-2", "cn_name": "\u5627\u5576", "en_name": ["Pyrimidine", "Pyrimidine", "1,3-Diazabenzene", "m-Diazine", "1,3-Diazine", "Metadiazine", "Miazine", "NSC 89305"], "SMILES": "C=1C=NC=NC1", "physical_data": {"Molecular Weight": "80.09", "Molecular Formula": "C4H4N2", "Boiling Point": "123.8 \u00b0C", "Melting Point": "22 \u00b0C"}}