{"cas_no": "289-80-5", "cn_name": "\u54d2\u55ea", "en_name": ["Pyridazine", "Pyridazine", "1,2-Diazabenzene", "1,2-Diazine", "o-Diazine", "NSC 90792"], "SMILES": "C=1C=CN=NC1", "physical_data": {"Molecular Weight": "80.09", "Molecular Formula": "C4H4N2", "Boiling Point": "208 \u00b0C", "Melting Point": "-8 \u00b0C", "Density": "1.10535 g/cm\u00b3 @ Temp: 20 \u00b0C"}}