{"cas_no": "289042-11-1", "cn_name": "4-(4-\u6c1f\u82ef\u57fa)-6-\u5f02\u4e19\u57fa-2-[(N-\u7532\u57fa-N-\u7532\u78fa\u9170)\u6c28\u57fa]\u5627\u5576-5-\u7fa7\u9178\u7532\u916f", "en_name": ["Methyl 4-(4-fluorophenyl)-6-(1-methylethyl)-2-[methyl(methylsulfonyl)amino]-5-pyrimidinecarboxylate", "5-Pyrimidinecarboxylic acid, 4-(4-fluorophenyl)-6-(1-methylethyl)-2-[methyl(methylsulfonyl)amino]-, methyl ester", "Methyl 4-(4-fluorophenyl)-6-(1-methylethyl)-2-[methyl(methylsulfonyl)amino]-5-pyrimidinecarboxylate", "4-(4-Fluorophenyl)-6-isopropyl-2-[(methanesulfonyl)methylamino]pyrimidine-5-carboxylic acid methyl ester", "Methyl 4-(4-fluorophenyl)-6-isopropyl-2-[N-methyl-N-(methylsulfonyl)amino]pyrimidine-5-carboxylate"], "SMILES": "C(OC)(=O)C=1C(=NC(N(S(C)(=O)=O)C)=NC1C(C)C)C2=CC=C(F)C=C2", "physical_data": {"Molecular Weight": "381.42", "Molecular Formula": "C17H20FN3O4S", "Melting Point": "132.1-132.7 \u00b0C"}}