{"cas_no": "28905-12-6", "cn_name": "BETA-\u8461\u8404\u7cd6", "en_name": ["\u03b2-D-Glucose", "\u03b2-D-Glucopyranose", "Glucopyranose, \u03b2-D-", "\u03b2-D-Glucose", "\u03b2-Dextrose", "\u03b2-Glucose"], "SMILES": "C(O)C1C(O)C(O)C(O)C(O)O1", "physical_data": {"Molecular Weight": "180.16", "Molecular Formula": "C6H12O6", "Melting Point": "148-150 \u00b0C"}}