{"cas_no": "289039-85-6", "cn_name": "3-\u6c2f-5-\u7898\u82ef\u7532\u9178\u7532\u916f", "en_name": ["Benzoic acid, 3-chloro-5-iodo-, methyl ester", "Benzoic acid, 3-chloro-5-iodo-, methyl ester", "Methyl 3-chloro-5-iodobenzoate"], "SMILES": "C(OC)(=O)C1=CC(Cl)=CC(I)=C1", "physical_data": {"Molecular Weight": "296.49", "Molecular Formula": "C8H6ClIO2", "Melting Point": "43-44 \u00b0C"}}