{"cas_no": "289038-14-8", "cn_name": "2-\u6eb4-4-\u6c1f\u82c4\u57fa\u80fa \u76d0\u9178\u76d0", "en_name": ["Benzenemethanamine, 2-bromo-4-fluoro-, hydrochloride (1:1)", "Benzenemethanamine, 2-bromo-4-fluoro-, hydrochloride (1:1)", "Benzenemethanamine, 2-bromo-4-fluoro-, hydrochloride", "[(2-Bromo-4-fluorophenyl)methyl]amine hydrochloride", "2-Bromo-4-fluorobenzylamine hydrochloride", "(2-Bromo-4-fluorophenyl)methanamine hydrochloride"], "SMILES": "C(N)C1=C(Br)C=C(F)C=C1.Cl", "physical_data": {"Molecular Weight": "", "Molecular Formula": "C7H7BrFN.ClH", "Melting Point": "251 \u00b0C"}}