{"cas_no": "289039-25-4", "cn_name": "3-\u6c2f-5-\u7898\u82ef\u7532\u9178", "en_name": ["3-Chloro-5-iodobenzoic acid", "Benzoic acid, 3-chloro-5-iodo-", "3-Chloro-5-iodobenzoic acid"], "SMILES": "C(O)(=O)C1=CC(Cl)=CC(I)=C1", "physical_data": {"Molecular Weight": "282.46", "Molecular Formula": "C7H4ClIO2", "Melting Point": "190-191 \u00b0C"}}