{"cas_no": "28911-01-5", "cn_name": "\u4e09\u5511\u4ed1", "en_name": ["Triazolam", "4H-[1,2,4]Triazolo[4,3-a][1,4]benzodiazepine, 8-chloro-6-(2-chlorophenyl)-1-methyl-", "4H-s-Triazolo[4,3-a][1,4]benzodiazepine, 8-chloro-6-(o-chlorophenyl)-1-methyl-", "8-Chloro-6-(2-chlorophenyl)-1-methyl-4H-[1,2,4]triazolo[4,3-a][1,4]benzodiazepine", "8-Chloro-1-methyl-6-(o-chlorophenyl)-4H-s-triazolo[4,3-a][1,4]benzodiazepine", "Triazolam", "U 33030", "Halcion", "D II-18-2", "Novodorm", "Songar", "MeSH ID: D014229"], "SMILES": "CC=1N2C=3C(C(=NCC2=NN1)C4=C(Cl)C=CC=C4)=CC(Cl)=CC3", "physical_data": {"Molecular Weight": "343.21", "Molecular Formula": "C17H12Cl2N4", "Melting Point": "233-235 \u00b0C"}}