{"cas_no": "28910-89-6", "cn_name": "2-(2-\u4e59\u9170\u80bc\u57fa)-7-\u6c2f-5-\u82ef\u57fa-2H-1,4-\u82ef\u5e76\u4e8c\u6c2e\u6742\u5353", "en_name": ["2-(2-Acetylhydrazino)-7-chloro-5-phenyl-3H-1,4-benzodiazepine", "Acetic acid, 2-(7-chloro-5-phenyl-3H-1,4-benzodiazepin-2-yl)hydrazide", "3H-1,4-Benzodiazepine, acetic acid deriv.", "2-(2-Acetylhydrazino)-7-chloro-5-phenyl-3H-1,4-benzodiazepine"], "SMILES": "ClC=1C=C2C(=NCC(NNC(C)=O)=NC2=CC1)C3=CC=CC=C3", "physical_data": {"Molecular Weight": "326.78", "Molecular Formula": "C17H15ClN4O", "Melting Point": "209-210 \u00b0C"}}