{"cas_no": "28917-43-3", "cn_name": "3,5-\u4e8c\u82c4\u6c27\u57fa\u82ef\u7532\u9178", "en_name": ["3,5-Bis(phenylmethoxy)benzoic acid", "Benzoic acid, 3,5-bis(phenylmethoxy)-", "Benzoic acid, 3,5-bis(benzyloxy)-", "3,5-Bis(phenylmethoxy)benzoic acid", "3,5-Dibenzyloxybenzoic acid", "NSC 210283", "3,5-Benzyloxybenzoic acid"], "SMILES": "O(CC1=CC=CC=C1)C2=CC(OCC3=CC=CC=C3)=CC(C(O)=O)=C2", "physical_data": {"Molecular Weight": "334.37", "Molecular Formula": "C21H18O4", "Melting Point": "209-211 \u00b0C"}}