{"cas_no": "2892-62-8", "cn_name": "\u65b9\u9178\u4e8c\u6b63\u4e01\u916f", "en_name": ["Dibutyl squarate", "3-Cyclobutene-1,2-dione, 3,4-dibutoxy-", "Cyclobutenedione, dibutoxy-", "3,4-Dibutoxy-3-cyclobutene-1,2-dione", "1,2-Dibutoxy-1-cyclobutene-3,4-dione", "1,2-Dibutoxycyclobutene-3,4-dione", "Dibutyl squarate", "Squaric acid dibutyl ether", "Dibutylquadratate", "Squaric acid dibutyl ester", "3,4-Dibutoxycyclobut-3-ene-1,2-dione", "NSC 113489", "Dibutoxy-3-cyclobutene-1,2-dione", "Pentanoic acid, 2,3-dioxo-4-[(1-oxopentyl)oxy]cyclobutyl ester"], "SMILES": "O(CCCC)C1=C(OCCCC)C(=O)C1=O", "physical_data": {"Molecular Weight": "226.27", "Molecular Formula": "C12H18O4", "Boiling Point": "139 \u00b0C @ Press: 0.5 Torr"}}