{"cas_no": "28920-43-6", "cn_name": "\u6c2f\u7532\u9178-9-\u82b4\u57fa\u7532\u916f", "en_name": ["9-Fluorenylmethyl chloroformate", "Carbonochloridic acid, 9H-fluoren-9-ylmethyl ester", "Formic acid, chloro-, fluoren-9-ylmethyl ester", "Fluorene-9-methanol, chloroformate", "9-Fluorenylmethoxycarbonyl chloride", "9-Fluorenylmethyl chloroformate", "AminoTag", "9-Fluorenylmethyl chlorocarbonate", "9H-Fluoren-9-ylmethyl chloroformate", "FMOC chloride", "Fluorenylmethyl chloroformate", "FmocCl", "(9H-Fluoren-9-ylmethoxy)carbonyl chloride", "9H-Fluoren-9-ylmethyl carbonochloridate", "Chloroformic acid 9-fluorenylmethyl ester"], "SMILES": "C(OC(Cl)=O)C1C=2C(C=3C1=CC=CC3)=CC=CC2", "physical_data": {"Molecular Weight": "258.70", "Molecular Formula": "C15H11ClO2", "Melting Point": "62-63 \u00b0C"}}