{"cas_no": "2892-51-5", "cn_name": "\u65b9\u9178", "en_name": ["Squaric acid", "3-Cyclobutene-1,2-dione, 3,4-dihydroxy-", "Cyclobutenedione, dihydroxy-", "3,4-Dihydroxy-3-cyclobutene-1,2-dione", "Quadratic acid", "Squaric acid", "1,2-Diketo-3,4-dihydroxycyclobutene", "1,2-Dihydroxycyclobutene-3,4-dione", "3,4-Dihydroxycyclobutene-1,2-dione", "1,2-Dihydroxy-1-cyclobutene-3,4-dione", "NSC 125692", "NSC 624671", "3,4-Dioxocyclobut-1-ene-1,2-diol", "1,2-Cyclobutanedione, 3,4-dihydroxy-", "3,4-Dihydroxy-1,2-cyclobutanedione"], "SMILES": "O=C1C(=O)C(O)=C1O", "physical_data": {"Molecular Weight": "114.06", "Molecular Formula": "C4H2O4", "Melting Point": "300 \u00b0C (decomp)"}}