{"cas_no": "28924-21-2", "cn_name": "3,5-\u4e8c\u82c4\u6c27\u57fa\u82ef\u4e59\u916e", "en_name": ["1-[3,5-Bis(phenylmethoxy)phenyl]ethanone", "Ethanone, 1-[3,5-bis(phenylmethoxy)phenyl]-", "Acetophenone, 3\u2032,5\u2032-bis(benzyloxy)-", "1-[3,5-Bis(phenylmethoxy)phenyl]ethanone", "3\u2032,5\u2032-Bis(benzyloxy)acetophenone", "3\u2032,5\u2032-Dibenzyloxyacetophenone", "1-[3,5-Bis(benzyloxy)phenyl]ethanone"], "SMILES": "O(CC1=CC=CC=C1)C2=CC(OCC3=CC=CC=C3)=CC(C(C)=O)=C2", "physical_data": {"Molecular Weight": "332.39", "Molecular Formula": "C22H20O3", "Melting Point": "62 \u00b0C"}}