{"cas_no": "2892-29-7", "cn_name": "3'-\u6c2f-4'-\u7f9f\u57fa\u82ef\u4e59\u916e", "en_name": ["1-(3-Chloro-4-hydroxyphenyl)ethanone", "Ethanone, 1-(3-chloro-4-hydroxyphenyl)-", "Acetophenone, 3\u2032-chloro-4\u2032-hydroxy-", "1-(3-Chloro-4-hydroxyphenyl)ethanone", "3\u2032-Chloro-4\u2032-hydroxyacetophenone", "1-(3-Chloro-4-hydroxyphenyl)-1-ethanone"], "SMILES": "C(C)(=O)C1=CC(Cl)=C(O)C=C1", "physical_data": {"Molecular Weight": "170.59", "Molecular Formula": "C8H7ClO2", "Melting Point": "95 \u00b0C"}}