{"cas_no": "2893-33-6", "cn_name": "2,6-\u5421\u5576\u4e8c\u7532\u8148", "en_name": ["2,6-Pyridinedicarbonitrile", "2,6-Pyridinedicarbonitrile", "2,6-Dicyanopyridine"], "SMILES": "C(#N)C=1N=C(C#N)C=CC1", "physical_data": {"Molecular Weight": "129.12", "Molecular Formula": "C7H3N3", "Melting Point": "123 \u00b0C"}}