{"cas_no": "28936-94-9", "cn_name": "8-\u82c4\u57fa-2,4-\u4e8c\u6c27\u4ee3-1,3,8-\u4e09\u6c2e\u6742\u87ba[4,5]\u7678\u70f7", "en_name": ["8-(Phenylmethyl)-1,3,8-triazaspiro[4.5]decane-2,4-dione", "1,3,8-Triazaspiro[4.5]decane-2,4-dione, 8-(phenylmethyl)-", "1,3,8-Triazaspiro[4.5]decane-2,4-dione, 8-benzyl-", "8-(Phenylmethyl)-1,3,8-triazaspiro[4.5]decane-2,4-dione", "8-Benzyl-1,3,8-triazaspiro[4.5]decane-2,4-dione", "NSC 167706", "8-Benzyl-1,3,8-triazaspiro[4.5]decan-2,4-dione"], "SMILES": "O=C1C2(CCN(CC3=CC=CC=C3)CC2)NC(=O)N1", "physical_data": {"Molecular Weight": "259.30", "Molecular Formula": "C14H17N3O2", "Melting Point": "259-261 \u00b0C"}}