{"cas_no": "2893-49-4", "cn_name": "2-\u4e19\u6c27\u57fa\u82ef\u7532\u919b", "en_name": ["N-Isopropyl-N-methylethanolamine", "Ethanol, 2-[methyl(1-methylethyl)amino]-", "Ethanol, 2-(isopropylmethylamino)-", "2-[Methyl(1-methylethyl)amino]ethanol", "N-Isopropyl-N-methylethanolamine", "NSC 45488", "2-(Isopropyl(methyl)amino)ethanol", "2-(N-Methyl-N-isopropylamino)ethanol", "2-[Methyl(propan-2-yl)amino]ethan-1-ol", "2-[Methyl(propan-2-yl)amino]ethanol"], "SMILES": "N(CCO)(C(C)C)C", "physical_data": {"Molecular Weight": "117.19", "Molecular Formula": "C6H15NO", "Boiling Point": "67-70 \u00b0C @ Press: 13-14 Torr"}}