{"cas_no": "2893-05-2", "cn_name": "3-\u7532\u57fa-1-\u82ef\u57fa-2-\u4e01\u916e", "en_name": ["3-Methyl-1-phenyl-2-butanone", "2-Butanone, 3-methyl-1-phenyl-", "3-Methyl-1-phenyl-2-butanone", "Isopropylbenzyl ketone", "Benzyl isopropyl ketone", "1-Phenyl-3-methyl-2-butanone", "NSC 406926"], "SMILES": "C(C(C(C)C)=O)C1=CC=CC=C1", "physical_data": {"Molecular Weight": "162.23", "Molecular Formula": "C11H14O", "Boiling Point": "237 \u00b0C @ Press: 760 Torr", "Density": "0.985 g/cm\u00b3 @ Temp: 40 \u00b0C"}}