{"cas_no": "28948-61-0", "cn_name": "2-\u6eb4-4-\u6c2f\u567b\u5429\u5e76[3,2-C]\u5421\u5576", "en_name": ["2-Bromo-4-chlorothieno[3,2-c]pyridine", "Thieno[3,2-c]pyridine, 2-bromo-4-chloro-", "2-Bromo-4-chlorothieno[3,2-c]pyridine", "2-Bromo-4-chloro-5-azabenzothiophene"], "SMILES": "ClC1=C2C(SC(Br)=C2)=CC=N1", "physical_data": {"Molecular Weight": "248.53", "Molecular Formula": "C7H3BrClNS", "Melting Point": "119 \u00b0C"}}