{"cas_no": "2894-67-9", "cn_name": "\u5730\u6d1b\u897f\u6cee", "en_name": ["Delorazepam", "2H-1,4-Benzodiazepin-2-one, 7-chloro-5-(2-chlorophenyl)-1,3-dihydro-", "2H-1,4-Benzodiazepin-2-one, 7-chloro-5-(o-chlorophenyl)-1,3-dihydro-", "7-Chloro-5-(2-chlorophenyl)-1,3-dihydro-2H-1,4-benzodiazepin-2-one", "Ro 5-3027", "7-Chloro-5-(2-chlorophenyl)-3H-1,4-benzodiazepin-2(1H)-one", "7-Chloro-1,3-dihydro-5-(2\u2032-chlorophenyl)-2H-1,4-benzodiazepin-2-one", "7-Chloro-5-(o-chlorophenyl)-1,3-dihydro-2H-1,4-benzodiazepin-2-one", "Chlordemethyldiazepam", "7-Chloro-1,3-dihydro-5-(2-chlorophenyl)-2H-1,4-benzodiazepin-2-one", "2\u2032-Chloronordiazepam", "Chlordesmethyldiazepam", "Delorazepam", "RV 12165", "Chlorodesmethyldiazepam", "NSC 169895", "7-Chloro-5-(2-chlorophenyl)-1H-1,4-benzodiazepin-2(3H)-one"], "SMILES": "ClC=1C=C2C(=NCC(=O)NC2=CC1)C3=C(Cl)C=CC=C3", "physical_data": {"Molecular Weight": "305.16", "Molecular Formula": "C15H10Cl2N2O", "Melting Point": "199-201 \u00b0C"}}