{"cas_no": "28940-11-6", "cn_name": "\u897f\u74dc\u916e", "en_name": ["7-Methyl-2H-1,5-benzodioxepin-3(4H)-one", "2H-1,5-Benzodioxepin-3(4H)-one, 7-methyl-", "7-Methyl-2H-1,5-benzodioxepin-3(4H)-one", "Calone 1951", "Watermelon ketone", "Calone", "7-Methyl-2H-benzo[b][1,4]dioxepin-3(4H)-one"], "SMILES": "CC=1C=C2C(=CC1)OCC(=O)CO2", "physical_data": {"Molecular Weight": "178.18", "Molecular Formula": "C10H10O3", "Boiling Point": "71-82 \u00b0C @ Press: 0.01 Torr", "Melting Point": "38-39 \u00b0C"}}