{"cas_no": "2894-68-0", "cn_name": "7-\u6c2f-5-(2-\u6c2f\u82ef\u57fa)-1,3-\u4e8c\u6c22-1-\u7532\u57fa-2H-1,4-\u82ef\u5e76\u4e8c\u6c2e\u6742\u5353-2-\u916e", "en_name": ["Chlorodiazepam", "2H-1,4-Benzodiazepin-2-one, 7-chloro-5-(2-chlorophenyl)-1,3-dihydro-1-methyl-", "2H-1,4-Benzodiazepin-2-one, 7-chloro-5-(o-chlorophenyl)-1,3-dihydro-1-methyl-", "7-Chloro-5-(2-chlorophenyl)-1,3-dihydro-1-methyl-2H-1,4-benzodiazepin-2-one", "Ro 5-3448", "2\u2032-Chlorodiazepam", "Chlorodiazepam", "Diclazepam"], "SMILES": "ClC1=C(C=2C=3C(N(C)C(=O)CN2)=CC=C(Cl)C3)C=CC=C1", "physical_data": {"Molecular Weight": "319.19", "Molecular Formula": "C16H12Cl2N2O", "Melting Point": "168-171 \u00b0C"}}