{"cas_no": "2894-51-1", "cn_name": "2-\u6c28\u57fa-4'-\u6c2f\u4e8c\u82ef\u7532\u916e", "en_name": ["2-Amino-4\u2032-chlorobenzophenone", "Methanone, (2-aminophenyl)(4-chlorophenyl)-", "Benzophenone, 2-amino-4\u2032-chloro-", "(2-Aminophenyl)(4-chlorophenyl)methanone", "2-Amino-4\u2032-chlorobenzophenone", "2-(4-Chlorobenzoyl)aniline"], "SMILES": "C(=O)(C1=C(N)C=CC=C1)C2=CC=C(Cl)C=C2", "physical_data": {"Molecular Weight": "231.68", "Molecular Formula": "C13H10ClNO", "Melting Point": "102 \u00b0C"}}