{"cas_no": "2895-21-8", "cn_name": "N-\u5f02\u4e19\u57fa\u6c2f\u4e59\u9170\u6c28", "en_name": ["2-Chloro-N-(1-methylethyl)acetamide", "Acetamide, 2-chloro-N-(1-methylethyl)-", "Acetamide, 2-chloro-N-isopropyl-", "2-Chloro-N-(1-methylethyl)acetamide", "\u03b1-Chloro-N-isopropylacetamide", "2-Chloro-N-isopropylacetamide", "N-Isopropylchloroacetamide", "N-Isopropyl-2-chloroacetamide", "NSC 165658", "N-(Chloroacetyl)isopropylamine", "2-Chloro-N-(propan-2-yl)acetamide"], "SMILES": "C(NC(C)C)(CCl)=O", "physical_data": {"Molecular Weight": "135.59", "Molecular Formula": "C5H10ClNO", "Melting Point": "62 \u00b0C"}}