{"cas_no": "28957-72-4", "cn_name": "N-\u82c4\u57fa\u6258\u54c1\u916e", "en_name": ["8-Benzyl-8-azabicyclo[3.2.1]octan-3-one", "8-Azabicyclo[3.2.1]octan-3-one, 8-(phenylmethyl)-", "1\u03b1H,5\u03b1H-Tropan-3-one, 9-phenyl-", "3-Nortropanone, 8-benzyl-", "8-(Phenylmethyl)-8-azabicyclo[3.2.1]octan-3-one", "8-Benzyl-1\u03b1H,5\u03b1H-nortropan-3-one", "8-Benzyl-3-nortropanone", "N-Benzylnortropinone", "8-Benzyl-8-azabicyclo[3.2.1]octan-3-one", "N-Benzyl-3-tropinone", "N-Benzyltropinone", "8-Benzyltropinone", "8-Benzylbicyclo[3.2.1]octan-3-one"], "SMILES": "C(N1C2CC(=O)CC1CC2)C3=CC=CC=C3", "physical_data": {"Molecular Weight": "215.29", "Molecular Formula": "C14H17NO", "Boiling Point": "161-168 \u00b0C @ Press: 0.25 Torr", "Melting Point": "110-111.5 \u00b0C"}}