{"cas_no": "28954-12-3", "cn_name": "L-\u522b\u82cf\u6c28\u9178", "en_name": ["L-Allothreonine", "L-Allothreonine", "Allothreonine, L-", "Butanoic acid, 2-amino-3-hydroxy-, [S-(R*,R*)]-", "allo-L-Threonine", "L-allo-Threonine", "[S-(R*,R*)]-2-Amino-3-hydroxybutanoic acid", "(S)-allo-Threonine", "(S)-Allothreonine", "NSC 206283", "(2S,3S)-2-Amino-3-hydroxybutanoic acid"], "SMILES": "C(C(C)O)(C(O)=O)N", "physical_data": {"Molecular Weight": "119.12", "Molecular Formula": "C4H9NO3", "Melting Point": "273.5-275.0 \u00b0C (decomp)"}}