{"cas_no": "2895-07-0", "cn_name": "1,1,1,3,3,5,5-\u4e03\u7532\u57fa\u4e09\u7845\u6c27\u70f7", "en_name": ["1,1,1,3,3,5,5-Heptamethyltrisiloxane", "Trisiloxane, 1,1,1,3,3,5,5-heptamethyl-", "1,1,1,3,3,5,5-Heptamethyltrisiloxane", "Heptamethyltrisiloxane", "1,1,3,3,5,5,5-Heptamethyltrisiloxane"], "SMILES": "O([Si](O[SiH](C)C)(C)C)[Si](C)(C)C", "physical_data": {"Molecular Weight": "222.50", "Molecular Formula": "C7H22O2Si3", "Boiling Point": "134-135 \u00b0C", "Density": "0.820 g/cm\u00b3"}}