{"cas_no": "28955-30-8", "cn_name": "CASSIACHROMONE", "en_name": ["5-Acetonyl-7-hydroxy-2-methylchromone", "4H-1-Benzopyran-4-one, 7-hydroxy-2-methyl-5-(2-oxopropyl)-", "Chromone, 5-acetonyl-7-hydroxy-2-methyl-", "7-Hydroxy-2-methyl-5-(2-oxopropyl)-4H-1-benzopyran-4-one", "5-Acetylmethyl-7-hydroxy-2-methylchromone", "Cassiachromone", "5-Acetonyl-7-hydroxy-2-methylchromone"], "SMILES": "C(C(C)=O)C1=C2C(OC(C)=CC2=O)=CC(O)=C1", "physical_data": {"Molecular Weight": "232.23", "Molecular Formula": "C13H12O4", "Melting Point": "224-225 \u00b0C"}}