{"cas_no": "28957-08-6", "cn_name": "\u6bdb\u6832\u5229\u7d20", "en_name": ["Lasiokaurin", "Kaur-16-en-15-one, 1-(acetyloxy)-7,20-epoxy-6,7,14-trihydroxy-, (1\u03b1,6\u03b2,7\u03b1,14R)-", "Kaur-16-en-15-one, 7\u03b1,20-epoxy-1\u03b1,6\u03b2,7,14-tetrahydroxy-, 1-acetate, (14R)-", "6,11b-(Epoxymethano)-6a,9-methano-1H-cyclohepta[a]naphthalene, kaur-16-en-15-one deriv.", "(1\u03b1,6\u03b2,7\u03b1,14R)-1-(Acetyloxy)-7,20-epoxy-6,7,14-trihydroxykaur-16-en-15-one", "Lasiokaurin", "Lasiodin", "NSC 250683", "Oridonin 1-acetate"], "SMILES": "OC12C34C(C5(C(C1O)C(C)(C)CCC5OC(C)=O)CO2)CCC(C3O)C(=C)C4=O", "physical_data": {"Molecular Weight": "406.47", "Molecular Formula": "C22H30O7", "Melting Point": "238-239 \u00b0C"}}