{"cas_no": "28957-04-2", "cn_name": "\u51ac\u51cc\u8349\u7532\u7d20", "en_name": ["Oridonin", "Kaur-16-en-15-one, 7,20-epoxy-1,6,7,14-tetrahydroxy-, (1\u03b1,6\u03b2,7\u03b1,14R)-", "Kaur-16-en-15-one, 7\u03b1,20-epoxy-1\u03b1,6\u03b2,7,14-tetrahydroxy-, (14R)-", "Oridonin", "6,11b-(Epoxymethano)-6a,9-methano-1H-cyclohepta[a]naphthalene, kaur-16-en-15-one deriv.", "(1\u03b1,6\u03b2,7\u03b1,14R)-7,20-Epoxy-1,6,7,14-tetrahydroxykaur-16-en-15-one", "Isodonol", "NSC 250682", "Oridonine", "(-)-Oridonin", "(1S,4AR,5S,6S,6aR,9S,11aS,11bS,14R)-1,5,6,14-Tetrahydroxy-4,4-dimethyl-8-methylenedecahydro-1H-6,11b-(epoxymethano)-6a,9-methanocyclohepta[a]naphthalen-7(8H)-one"], "SMILES": "OC12C34C(C5(C(C1O)C(C)(C)CCC5O)CO2)CCC(C3O)C(=C)C4=O", "physical_data": {"Molecular Weight": "364.43", "Molecular Formula": "C20H28O6", "Melting Point": "248-250 \u00b0C"}}