{"cas_no": "2896-67-5", "cn_name": "2-\u7532\u6c27\u57fa-6-\u7532\u57fa\u82ef\u915a", "en_name": ["2-Methoxy-6-methylphenol", "Phenol, 2-methoxy-6-methyl-", "o-Cresol, 6-methoxy-", "Guaiacol, 6-methyl-", "2-Methoxy-6-methylphenol", "2-Hydroxy-3-methoxytoluene", "6-Methylguaiacol", "6-Methoxy-o-cresol", "NSC 7374", "2-Methyl-6-methoxyphenol"], "SMILES": "O(C)C1=C(O)C(C)=CC=C1", "physical_data": {"Molecular Weight": "138.16", "Molecular Formula": "C8H10O2", "Boiling Point": "164-165 \u00b0C @ Press: 20 Torr", "Melting Point": "41-42 \u00b0C"}}