{"cas_no": "2896-60-8", "cn_name": "4-\u4e59\u57fa\u95f4\u82ef\u4e8c\u915a", "en_name": ["4-Ethylresorcinol", "1,3-Benzenediol, 4-ethyl-", "Resorcinol, 4-ethyl-", "4-Ethyl-1,3-benzenediol", "4-Ethylresorcinol", "6-Ethylresorcinol", "1,3-Dihydroxy-4-ethylbenzene", "NKO 11", "NSC 62013", "4-Ethylresorcin", "1-Ethyl-2,4-dihydroxybenzene"], "SMILES": "C(C)C1=C(O)C=C(O)C=C1", "physical_data": {"Molecular Weight": "138.16", "Molecular Formula": "C8H10O2", "Melting Point": "98.5 \u00b0C"}}