{"cas_no": "2896-70-0", "cn_name": "4-\u6c27-2,2,6,6-\u56db\u7532\u57fa\u54cc\u5576-1-\u6c27\u81ea\u7531\u57fa", "en_name": ["Tempone", "1-Piperidinyloxy, 2,2,6,6-tetramethyl-4-oxo-", "Piperidinooxy, 2,2,6,6-tetramethyl-4-oxo-", "2,2,6,6-Tetramethyl-4-oxo-1-piperidinyloxy", "Tetramethyl-2,2,6,6-aza-1-cyclohexanone-4-oxide-1", "2,2,6,6-Tetramethyl-4-piperidone nitroxide", "2,2,6,6-Tetramethyl-4-piperidone 1-nitroxide", "Triacetoneamine N-oxyl", "TAN (radical)", "Triacetoneamine nitroxide", "2,2,6,6-Tetramethylpiperid-4-one-1-oxyl", "2,2,6,6-Tetramethyl-4-piperidone N-oxide", "2,2,6,6-Tetramethyl-4-piperidone-N-oxy", "Tanone", "Tanone radical", "2,2,6,6-Tetramethyl-4-oxopiperidinooxy", "2,2,6,6-Tetramethyl-4-piperidone-N-oxyl", "2,2,6,6-Tetramethyl-4-oxopiperidin-1-oxyl", "2,2,6,6-Tetramethyl-4-oxo-1-piperidinooxy", "2,2,6,6-Tetramethyl-4-oxopiperidine-1-oxyl", "2,2,6,6-Tetramethyl-4-oxopiperidin-1-oxyl radical", "2,2,6,6-Tetramethyl-4-oxo-1-piperidinyloxyl", "Tempone", "4-Oxo-2,2,6,6-tetramethylpiperidinooxy", "2,2\u2032,6,6\u2032-Tetramethyl-4-oxopiperidine-1-oxyl", "1-Oxyl-2,2,6,6-tetramethyl-4-piperidone", "TANO", "4-Oxo-2,2,6,6-tetramethylpiperidinooxyl", "2,2,6,6-Tetramethyl-4-oxypiperidin-1-oxyl", "4-Oxo-2,2,6,6-tetramethylpiperidino-N-oxyl", "4-Oxo-2,2,6,6-tetramethylpiperidine-1-oxyl", "4-Oxo-2,2,6,6-tetramethyl-1-piperidinoxyl", "4-Oxo-2,2,6,6-tetramethylpiperidinyl-1-oxy", "OTEMPO", "2,2,6,6-Tetramethyl-4-oxopiperidine-1-oxyl radical", "4-Oxo-2,2,6,6-tetramethylpiperidinoxyl", "2,2,6,6-Tetramethyl-4-piperidinone-1-oxyl", "2,2,6,6-Tetramethyl-4-piperidon-1-oxyl", "4-Oxo-2,2,6,6-tetramethylpiperidino-1-oxy", "4-Oxo-2,2,6,6-tetramethylpiperidine-N-oxyl", "4-Oxo-TEMPO", "2,2,6,6-Tetramethyl-4-oxo-piperydin-1-oxyl", "4-Oxo-2,2,6,6-tetramethylpiperidinyloxy", "TAN", "1-Oxyl-2,2,6,6-tetramethylpiperidin-4-one", "2,2,6,6-Tetramethyl-4-piperidinone oxide", "1-Oxyl-2,2,6,6-tetramethyl-4-oxopiperidine", "Nitroxyl 1", "4-Oxo-2,2,6,6-tetramethylpiperidin-1-yl oxide", "702"], "SMILES": "[O]N1C(C)(C)CC(=O)CC1(C)C", "physical_data": {"Molecular Weight": "", "Molecular Formula": "C9H16NO2", "Melting Point": "36 \u00b0C"}}