{"cas_no": "289656-45-7", "cn_name": "4-\u6c1f-A-(4-\u6c1f\u82ef\u57fa)-A-\u82ef\u57fa-\u82ef\u7532\u9170\u80fa", "en_name": ["Senicapoc", "Benzeneacetamide, 4-fluoro-\u03b1-(4-fluorophenyl)-\u03b1-phenyl-", "4-Fluoro-\u03b1-(4-fluorophenyl)-\u03b1-phenylbenzeneacetamide", "ICA 17043", "Senicapoc", "2,2-Bis(4-fluorophenyl)-2-phenylacetamide"], "SMILES": "C(C(N)=O)(C1=CC=C(F)C=C1)(C2=CC=C(F)C=C2)C3=CC=CC=C3", "physical_data": {"Molecular Weight": "323.34", "Molecular Formula": "C20H15F2NO", "Melting Point": "180-181 \u00b0C"}}