{"cas_no": "2897-60-1", "cn_name": "3-\u7f29\u6c34\u7518\u6cb9\u919a\u6c27\u57fa\u4e19\u57fa\u7532\u57fa\u4e8c\u4e59\u6c27\u57fa\u7845\u70f7", "en_name": ["\u03b3-Glycidoxypropylmethyldiethoxysilane", "Oxirane, 2-[[3-(diethoxymethylsilyl)propoxy]methyl]-", "Silane, [3-(2,3-epoxypropoxy)propyl]diethoxymethyl-", "Silane, diethoxymethyl[3-(oxiranylmethoxy)propyl]-", "2-[[3-(Diethoxymethylsilyl)propoxy]methyl]oxirane", "3-(Methyldiethoxysilyl)propyl glycidyl ether", "Diethoxy[3-(glycidyloxy)propyl]methylsilane", "3-(Glycidoxy)propyldiethoxymethylsilane", "\u03b3-Glycidyloxypropylmethyldiethoxysilane", "\u03b3-Glycidoxypropylmethyldiethoxysilane", "Diethoxy-3-glycidoxypropylmethylsilane", "KBE 402", "SS 1390", "G 6710", "[3-(Glycidyloxy)propyl]methyldiethoxysilane", "Silquest Y 11012", "\u03b3-Glycidoxypropylmethyldiethoxsilane", "Z 6042", "3-GPMDES", "Silquest Wetlink 78", "Silquest Y 15078", "NSC 252159", "Wetlink 78", "3-(Glycidoxypropyl)methyldiethoxysilane", "Geniosil GF 84", "(3-Glycidyloxy)propyldiethoxymethylsilane", "CoatOSil A 2287", "KH 578", "Deolink Epoxy DE 100", "KH 563", "Si 563", "KH 7180", "DB 562", "CoatOSil 2287", "CoatOSil C 2287", "Link 78", "KH 613", "Glycidoxypropyl methyl diethoxy silane", "B 92"], "SMILES": "[Si](CCCOCC1CO1)(OCC)(OCC)C", "physical_data": {"Molecular Weight": "248.39", "Molecular Formula": "C11H24O4Si", "Boiling Point": "122-126 \u00b0C @ Press: 5 Torr", "Density": "0.978 g/cm\u00b3 @ Temp: 25 \u00b0C"}}