{"cas_no": "28978-03-2", "cn_name": "\u6843\u82f7", "en_name": ["(2S)-5-(\u03b2-D-Glucopyranosyloxy)-2,3-dihydro-2-(3-hydroxy-4-methoxyphenyl)-7-methoxy-4H-1-benzopyran-4-one", "4H-1-Benzopyran-4-one, 5-(\u03b2-D-glucopyranosyloxy)-2,3-dihydro-2-(3-hydroxy-4-methoxyphenyl)-7-methoxy-, (2S)-", "Persicoside", "4H-1-Benzopyran-4-one, 5-(\u03b2-D-glucopyranosyloxy)-2,3-dihydro-2-(3-hydroxy-4-methoxyphenyl)-7-methoxy-, (S)-", "(2S)-5-(\u03b2-D-Glucopyranosyloxy)-2,3-dihydro-2-(3-hydroxy-4-methoxyphenyl)-7-methoxy-4H-1-benzopyran-4-one", "Persicogenin 5-\u03b2-D-glucopyranoside", "Persicogenin-5-\u03b2-D-glucoside", "Persiconin", "Persicogenin-5-\u03b2-glucoside"], "SMILES": "O(C1=C2C(OC(CC2=O)C3=CC(O)=C(OC)C=C3)=CC(OC)=C1)C4OC(CO)C(O)C(O)C4O", "physical_data": {"Molecular Weight": "478.45", "Molecular Formula": "C23H26O11", "Melting Point": "258-260 \u00b0C"}}