{"cas_no": "28983-37-1", "cn_name": "\u53d4\u5341\u56db\u70f7\u57fa\u786b\u9187(\u5f02\u6784\u4f53\u7684\u6df7\u5408\u7269)", "en_name": ["tert-Tetradecanethiol", "tert-Tetradecanethiol", "tert-Tetradecyl mercaptan"], "SMILES": "", "physical_data": {"Molecular Weight": "", "Molecular Formula": "C14H30S", "Boiling Point": "204-232 \u00b0C"}}