{"cas_no": "28981-97-7", "cn_name": "\u963f\u666e\u5511\u4ed1", "en_name": ["Alprazolam", "4H-[1,2,4]Triazolo[4,3-a][1,4]benzodiazepine, 8-chloro-1-methyl-6-phenyl-", "4H-s-Triazolo[4,3-a][1,4]benzodiazepine, 8-chloro-1-methyl-6-phenyl-", "8-Chloro-1-methyl-6-phenyl-4H-[1,2,4]triazolo[4,3-a][1,4]benzodiazepine", "D 65MT", "U 31889", "8-Chloro-1-methyl-6-phenyl-4H-s-triazolo[4,3-a][1,4]benzodiazepine", "Alprazolam", "Xanax", "TUS 1", "Solanax", "Alprozolam", "Trankimazin", "Valeans", "Panix", "Tafil", "Prinox", "Alzolam", "Alpralid", "Zopax", "Zolarem", "Alplax", "Alpaz", "Altraxic", "Restyl", "Ansiopax", "Tafil D", "Anpress", "Zopic", "Zoldac", "Tricalma", "Zotran", "Kalma", "Xanax TS", "Apo-Alpraz", "Alprazolam Intensol", "Xanor", "Xanolam", "Tensivan", "Alprax", "Constan", "Pharnax", "Azor", "Alpram", "Alzam", "Ralozam", "Frontal", "Relaxol", "Cassadan", "Tranquinal", "Xanagis", "Alcelam", "Zolam", "8-Chloro-1-methyl-6-phenyl-4H-2,3,5,10b-tetraazabenzo[e]azulene", "Nerum", "Azolam", "Paxal", "Niravam", "MeSH ID: D000525"], "SMILES": "CC=1N2C=3C(C(=NCC2=NN1)C4=CC=CC=C4)=CC(Cl)=CC3", "physical_data": {"Molecular Weight": "308.76", "Molecular Formula": "C17H13ClN4", "Melting Point": "228-228.5 \u00b0C"}}