{"cas_no": "2898-08-0", "cn_name": "1,3-\u4e8c\u6c22-5-\u82ef\u57fa-1,4-\u82ef\u5e76\u4e8c\u6c2e\u6742\u5353-2-\u916e", "en_name": ["1,3-Dihydro-5-phenyl-2H-1,4-benzodiazepin-2-one", "2H-1,4-Benzodiazepin-2-one, 1,3-dihydro-5-phenyl-", "1,3-Dihydro-5-phenyl-2H-1,4-benzodiazepin-2-one", "Dechlorodemethyldiazepam", "1,3-Dihydro-5-phenyl-1,4-benzodiazepin-2-one", "Ro 05-2921", "Desmethyldechlorodiazepam", "Ro 5-2921", "1,2-Dihydro-5-phenyl-3H-1,4-benzodiazepin-2-one", "5-Phenyl-1,3-dihydrobenzo[e][1,4]diazepin-2-one", "NSC 656624", "5-Phenyl-1H-benzo[e][1,4]diazepin-2(3H)-one", "5-Phenyl-2,3-dihydro-1H-1,4-benzodiazepin-2-one"], "SMILES": "O=C1CN=C(C=2C(N1)=CC=CC2)C3=CC=CC=C3", "physical_data": {"Molecular Weight": "236.27", "Molecular Formula": "C15H12N2O", "Melting Point": "170-180 \u00b0C"}}