{"cas_no": "28984-20-5", "cn_name": "(SP-4-1)-\u53cc[1,2-\u4e8c\u82ef\u57fa-1,2-\u4e59\u70ef\u4e8c\u786b\u9187\u6839\u5408(2-)-\u03baS,\u03baS\u2019]\u954d", "en_name": ["(SP-4-1)-Bis[1,2-diphenyl-1,2-ethenedithiolato(2-)-\u03baS1,\u03baS2]nickel", "Nickel, bis[1,2-diphenyl-1,2-ethenedithiolato(2-)-\u03baS1,\u03baS2]-, (SP-4-1)-", "Nickel, bis[\u03b1,\u03b1\u2032-stilbenedithiolato(2-)]-", "Nickel, bis[1,2-diphenyl-1,2-ethenedithiolato(2-)-S,S\u2032]-, (SP-4-1)-", "Nickel, bis[1,2-diphenyl-1,2-ethenedithiolato(2-)-\u03baS,\u03baS\u2032]-, (SP-4-1)-", "1,2-Ethenedithiol, 1,2-diphenyl-, nickel complex", "(SP-4-1)-Bis[1,2-diphenyl-1,2-ethenedithiolato(2-)-\u03baS1,\u03baS2]nickel", "Dithiobenzilnickel(II)", "Bis(1,2-diphenylethane-1,2-dithiolato(2-)]nickel", "Bis(stilbene-1,2-dithiolato)nickel", "NKX 113", "Bis(1,2-diphenyl-1,2-ethylenedithiolato)nickel", "Bis(1,2-diphenylethylenedithiolato)nickel", "MIR 101", "Bis(dithiobenzil)nickel", "Bis(dithiobenzil)nickel(II)", "Bis(1,2-diphenylethene-1,2-dithiolato)nickel", "Bis(diphenylethenedithiolato)nickel", "B 1350"], "SMILES": "[Ni]12(SC(=C(S1)C3=CC=CC=C3)C4=CC=CC=C4)SC(=C(S2)C5=CC=CC=C5)C6=CC=CC=C6", "physical_data": {"Molecular Weight": "", "Molecular Formula": "C28H20NiS4", "Melting Point": "260 \u00b0C", "Density": "1.44 g/cm\u00b3"}}