{"cas_no": "2898-76-2", "cn_name": "BENZAMIL HYDROCHLORIDE", "en_name": ["Benzamil", "2-Pyrazinecarboxamide, 3,5-diamino-6-chloro-N-[imino[(phenylmethyl)amino]methyl]-", "Pyrazinecarboxamide, 3,5-diamino-N-(benzylamidino)-6-chloro-", "Pyrazinecarboxamide, 3,5-diamino-6-chloro-N-[imino[(phenylmethyl)amino]methyl]-", "3,5-Diamino-6-chloro-N-[imino[(phenylmethyl)amino]methyl]-2-pyrazinecarboxamide", "Benzamil", "Benzylamiloride"], "SMILES": "C(NC(NCC1=CC=CC=C1)=N)(=O)C=2C(N)=NC(N)=C(Cl)N2", "physical_data": {"Molecular Weight": "319.75", "Molecular Formula": "C13H14ClN7O", "Melting Point": "215-216 \u00b0C (decomp)"}}