{"cas_no": "2899-36-7", "cn_name": "L-\u86cb\u6c28\u9178\u4e59\u916f\u76d0\u9178\u76d0", "en_name": ["L-Methionine, ethyl ester, hydrochloride (1:1)", "L-Methionine, ethyl ester, hydrochloride (1:1)", "L-Methionine, ethyl ester, hydrochloride", "Methionine, ethyl ester, hydrochloride, L-", "L-Methionine O-ethyl ester hydrochloride", "Methionine ethyl ester hydrochloride", "S-Methionine ethyl ester hydrochloride", "Ethyl methioninate hydrochloride", "Ethyl L-methioninate hydrochloride"], "SMILES": "C(C(OCC)=O)(CCSC)N.Cl", "physical_data": {"Molecular Weight": "", "Molecular Formula": "C7H15NO2S.ClH", "Melting Point": "85-88 \u00b0C"}}