{"cas_no": "2899-60-7", "cn_name": "Z-GLY-OSU", "en_name": ["Glycine, N-[(phenylmethoxy)carbonyl]-, 2,5-dioxo-1-pyrrolidinyl ester", "Glycine, N-[(phenylmethoxy)carbonyl]-, 2,5-dioxo-1-pyrrolidinyl ester", "Succinimide, N-[(N-carboxyglycyl)oxy]-, benzyl ester", "Carbamic acid, [2-[(2,5-dioxo-1-pyrrolidinyl)oxy]-2-oxoethyl]-, phenylmethyl ester", "Glycine, N-carboxy-, N-benzyl ester, O-succinimido deriv.", "Carbobenzoxyglycine N-hydroxysuccinimide ester", "N-Carbobenzoxyglycine N-hydroxysuccinimide ester", "N-(Benzyloxycarbonyl)glycine N-hydroxysuccinimide ester", "2,5-Pyrrolidinedione, 1-[[[[(phenylmethoxy)carbonyl]amino]acetyl]oxy]-", "N-(Benzyloxycarbonyl)glycine N-hydroxysuccinimidyl ester", "N-Benzyloxycarbonyl-glycyl-N-hydroxysuccinimide ester", "2,5-Dioxopyrrolidin-1-yl 2-[[(benzyloxy)carbonyl]amino]acetate", "(2,5-Dioxopyrrolidin-1-yl) 2-(phenylmethoxycarbonylamino)acetate"], "SMILES": "O(C(CNC(OCC1=CC=CC=C1)=O)=O)N2C(=O)CCC2=O", "physical_data": {"Molecular Weight": "306.27", "Molecular Formula": "C14H14N2O6", "Melting Point": "113-114 \u00b0C"}}