{"cas_no": "2899-29-8", "cn_name": "L-\u8272\u6c28\u9187", "en_name": ["L-Tryptophanol", "1H-Indole-3-propanol, \u03b2-amino-, (\u03b2S)-", "Indole-3-propanol, \u03b2-amino-, L-", "1H-Indole-3-propanol, \u03b2-amino-, (S)-", "(\u03b2S)-\u03b2-Amino-1H-indole-3-propanol", "L-Tryptophanol", "[(S)-2-Hydroxy-1-[(1H-indol-3-yl)methyl]ethyl]amine", "(S)-2-Amino-3-(1H-indol-3-yl)propan-1-ol", "(2S)-2-Amino-3-(1H-indol-3-yl)propan-1-ol", "(S)-Tryptophanol", "1H-Indole-3-propanol \u03b2-amino-, (\u03b2S)-"], "SMILES": "C(C(CO)N)C=1C=2C(NC1)=CC=CC2", "physical_data": {"Molecular Weight": "190.24", "Molecular Formula": "C11H14N2O", "Melting Point": "288-290 \u00b0C"}}