{"cas_no": "2899-28-7", "cn_name": "L-\u8272\u6c28\u9178\u4e59\u916f\u76d0\u9178\u76d0", "en_name": ["L-Tryptophan, ethyl ester, hydrochloride (1:1)", "L-Tryptophan, ethyl ester, hydrochloride (1:1)", "Tryptophan, ethyl ester, monohydrochloride, L-", "L-Tryptophan, ethyl ester, monohydrochloride", "(S)-Tryptophan ethyl ester hydrochloride", "H-Trp-OEt\u00b7HCl", "L-Tryptophan ethyl ester hydrochloride"], "SMILES": "C(C(C(OCC)=O)N)C=1C=2C(NC1)=CC=CC2.Cl", "physical_data": {"Molecular Weight": "", "Molecular Formula": "C13H16N2O2.ClH", "Melting Point": "222-224 \u00b0C"}}