{"cas_no": "2899-66-3", "cn_name": "3-(\u82c4\u786b\u57fa)\u4e19\u9178", "en_name": ["3-[(Phenylmethyl)thio]propanoic acid", "Propanoic acid, 3-[(phenylmethyl)thio]-", "Propionic acid, 3-(benzylthio)-", "3-[(Phenylmethyl)thio]propanoic acid", "\u03b2-(Benzylthio)propionic acid", "3-(Benzylthio)propionic acid", "S-Benzyl-\u03b2-mercaptopropionic acid", "3-(Benzylthio)propanoic acid", "NSC 5996", "NSC 8528", "3-(Benzylsulfanyl)propanoic acid"], "SMILES": "C(SCCC(O)=O)C1=CC=CC=C1", "physical_data": {"Molecular Weight": "196.27", "Molecular Formula": "C10H12O2S", "Boiling Point": "147 \u00b0C @ Press: 0.5 Torr", "Melting Point": "81-81.5 \u00b0C"}}