{"cas_no": "28995-89-3", "cn_name": "\u56db\u785d\u57fa\u8418", "en_name": ["1,3,6,8-Tetranitronaphthalene", "Naphthalene, 1,3,6,8-tetranitro-", "1,3,6,8-Tetranitronaphthalene"], "SMILES": "N(=O)(=O)C=1C2=C(C=C(N(=O)=O)C=C2N(=O)=O)C=C(N(=O)=O)C1", "physical_data": {"Molecular Weight": "308.16", "Molecular Formula": "C10H4N4O8", "Melting Point": "207 \u00b0C"}}