{"cas_no": "2899-37-8", "cn_name": "L-(-)-\u86cb\u6c28\u9187", "en_name": ["L-Methioninol", "1-Butanol, 2-amino-4-(methylthio)-, (2S)-", "1-Butanol, 2-amino-4-(methylthio)-, L-", "1-Butanol, 2-amino-4-(methylthio)-, (S)-", "(2S)-2-Amino-4-(methylthio)-1-butanol", "L-Methioninol", "(S)-2-Amino-4-methylthio-1-butanol", "((S)-1-(Hydroxymethyl)-3-(methylthio)propyl)amine", "(2S)-2-Amino-4-methylthio-1-butanol", "(2S)-2-Amino-4-(methylsulfanyl)butan-1-ol"], "SMILES": "C(CCSC)(CO)N", "physical_data": {"Molecular Weight": "135.23", "Molecular Formula": "C5H13NOS", "Boiling Point": "120 \u00b0C @ Press: 3 Torr", "Melting Point": "33-34 \u00b0C"}}