{"cas_no": "28994-41-4", "cn_name": "2-\u82c4\u57fa\u82ef\u915a", "en_name": ["2-Benzylphenol", "Phenol, 2-(phenylmethyl)-", "o-Cresol, \u03b1-phenyl-", "2-(Phenylmethyl)phenol", "o-Benzylphenol", "(2-Hydroxydiphenyl)methane", "\u03b1-Phenyl-o-cresol", "Delegol T", "o-Hydroxydiphenylmethane", "2-Benzylphenol"], "SMILES": "C(C1=C(O)C=CC=C1)C2=CC=CC=C2", "physical_data": {"Molecular Weight": "184.23", "Molecular Formula": "C13H12O", "Boiling Point": "312 \u00b0C", "Melting Point": "21 \u00b0C", "Density": "1.1102 g/cm\u00b3 @ Temp: 20 \u00b0C"}}