{"cas_no": "290-37-9", "cn_name": "\u5421\u55ea", "en_name": ["Pyrazine", "Pyrazine", "1,4-Diazabenzene", "1,4-Diazine", "Paradiazine", "Piazine", "p-Diazine", "NSC 400221"], "SMILES": "C=1C=NC=CN1", "physical_data": {"Molecular Weight": "80.09", "Molecular Formula": "C4H4N2", "Boiling Point": "115 \u00b0C", "Melting Point": "55 \u00b0C"}}