{"cas_no": "290-87-9", "cn_name": "1,3,5-\u4e09\u55ea", "en_name": ["1,3,5-Triazine", "1,3,5-Triazine", "s-Triazine", "Cyanidine", "Triazine", "sym-Triazine", "Vedita 250", "NSC 56189"], "SMILES": "C=1N=CN=CN1", "physical_data": {"Molecular Weight": "81.08", "Molecular Formula": "C3H3N3", "Boiling Point": "114 \u00b0C", "Melting Point": "86 \u00b0C", "Density": "0.9418 g/cm\u00b3 @ Temp: 20 \u00b0C"}}