{"cas_no": "29006-02-8", "cn_name": "4-\u7532\u6c27\u57fa\u4e01\u9178", "en_name": ["4-Methoxybutanoic acid", "Butanoic acid, 4-methoxy-", "Butyric acid, 4-methoxy-", "4-Methoxybutanoic acid", "4-Methoxybutyric acid"], "SMILES": "C(CCOC)C(O)=O", "physical_data": {"Molecular Weight": "118.13", "Molecular Formula": "C5H10O3", "Boiling Point": "146-147 \u00b0C @ Press: 767 Torr", "Density": "1.0057 g/cm\u00b3"}}