{"cas_no": "2900-63-2", "cn_name": "3,5-\u4e8c\u785d\u57fa\u82ef\u7532\u9170\u80bc", "en_name": ["3,5-Dinitrobenzoic acid hydrazide", "Benzoic acid, 3,5-dinitro-, hydrazide", "3,5-Dinitrobenzhydrazide", "3,5-Dinitrobenzoic acid hydrazide", "3,5-Dinitrobenzoylhydrazine", "3,5-Dinitrobenzenecarboxylic acid hydrazide", "3,5-Dinitrobenzoyl hydrazide", "NSC 87798", "3,5-Dinitrobenzohydrazide"], "SMILES": "C(NN)(=O)C1=CC(N(=O)=O)=CC(N(=O)=O)=C1", "physical_data": {"Molecular Weight": "226.15", "Molecular Formula": "C7H6N4O5", "Melting Point": "158 \u00b0C"}}