{"cas_no": "29006-01-7", "cn_name": "4-\u7532\u6c27\u57fa\u4e01\u9178\u7532\u916f", "en_name": ["Butanoic acid, 4-methoxy-, methyl ester", "Butanoic acid, 4-methoxy-, methyl ester", "Butyric acid, 4-methoxy-, methyl ester", "Methyl 4-methoxybutyrate", "Methyl 4-methoxybutanoate", "4-Methoxybutyric acid methyl ester"], "SMILES": "C(CCCOC)(OC)=O", "physical_data": {"Molecular Weight": "132.16", "Molecular Formula": "C6H12O3", "Boiling Point": "162.5-163.5 \u00b0C @ Press: 767 Torr", "Density": "0.9879 g/cm\u00b3"}}