{"cas_no": "2901-13-5", "cn_name": "2,2-\u4e8c\u7532\u57fa\u82ef\u4e59\u9178\u4e59\u916f", "en_name": ["Benzeneacetic acid, \u03b1,\u03b1-dimethyl-, ethyl ester", "Benzeneacetic acid, \u03b1,\u03b1-dimethyl-, ethyl ester", "Hydratropic acid, \u03b1-methyl-, ethyl ester", "Ethyl 2-phenylisobutyrate", "Ethyl dimethylphenylacetate", "Ethyl \u03b1,\u03b1-dimethylbenzeneacetate", "Ethyl \u03b1,\u03b1-dimethylphenylacetate", "NSC 29060", "Ethyl 2-methyl-2-phenylpropanoate", "Ethyl 2-methyl-2-phenylpropionate"], "SMILES": "C(C(OCC)=O)(C)(C)C1=CC=CC=C1", "physical_data": {"Molecular Weight": "192.25", "Molecular Formula": "C12H16O2", "Boiling Point": "68-71 \u00b0C @ Press: 0.5-0.6 Torr", "Density": "1.0039 g/cm\u00b3 @ Temp: 20 \u00b0C"}}