{"cas_no": "2901-75-9", "cn_name": "N-\u4e59\u9170-DL-\u82ef\u4e19\u6c28\u9178", "en_name": ["N-Acetyl-DL-phenylalanine", "Phenylalanine, N-acetyl-", "Alanine, N-acetyl-3-phenyl-, DL-", "DL-Phenylalanine, N-acetyl-", "N-Acetylphenylalanine", "N-Acetyl-3-phenyl-DL-alanine", "N-Acetyl-DL-phenylalanine", "DL-2-Acetamido-3-phenylpropionic acid", "DL-N-Acetyl-3-phenylalanine", "DL-N-Acetylphenylalanine", "(\u00b1)-N-Acetylphenylalanine", "Afalanine", "NSC 43242", "2-Acetamido-3-phenylpropanoic acid", "Phenylalanine, N-(1,2-dioxopropyl)-", "2-Acetylamino-3-phenyl-propionic acid", "MR 708"], "SMILES": "C(CC1=CC=CC=C1)(NC(C)=O)C(O)=O", "physical_data": {"Molecular Weight": "207.23", "Molecular Formula": "C11H13NO3", "Melting Point": "146 \u00b0C"}}