{"cas_no": "2901-77-1", "cn_name": "N-\u4e59\u9170-DL-\u916a\u6c28\u9178", "en_name": ["N-Acetyl-DL-tyrosine", "Tyrosine, N-acetyl-", "Tyrosine, N-acetyl-, DL-", "DL-Tyrosine, N-acetyl-", "N-Acetyltyrosine", "N-Acetyl-DL-tyrosine", "2-Acetamido-3-(4-hydroxyphenyl)propanoic acid"], "SMILES": "C(C(NC(C)=O)C(O)=O)C1=CC=C(O)C=C1", "physical_data": {"Molecular Weight": "223.23", "Molecular Formula": "C11H13NO4", "Melting Point": "90 \u00b0C"}}