{"cas_no": "2901-66-8", "cn_name": "\u5229\u8840\u5e73\u9178\u7532\u916f", "en_name": ["Methyl (3\u03b2,16\u03b2,17\u03b1,18\u03b2,20\u03b1)-18-hydroxy-11,17-dimethoxyyohimban-16-carboxylate", "Yohimban-16-carboxylic acid, 18-hydroxy-11,17-dimethoxy-, methyl ester, (3\u03b2,16\u03b2,17\u03b1,18\u03b2,20\u03b1)-", "3\u03b2,20\u03b1-Yohimban-16\u03b2-carboxylic acid, 18\u03b2-hydroxy-11,17\u03b1-dimethoxy-, methyl ester", "Reserpic acid, methyl ester", "Methyl (3\u03b2,16\u03b2,17\u03b1,18\u03b2,20\u03b1)-18-hydroxy-11,17-dimethoxyyohimban-16-carboxylate", "Methyl reserpate", "Methyl reserpinolate", "NSC 81464", "Methyl (1S,2R,3R,4aS,13bR,14aS)-3-hydroxy-2,11-dimethoxy-1,2,3,4,4a,5,7,8,13,13b,14,14a-dodecahydroindolo[2\u2032,3\u2032:3,4]pyrido[1,2-b]isoquinoline-1-carboxylate"], "SMILES": "C(OC)(=O)C1C2C(CN3C(C2)C4=C(CC3)C=5C(N4)=CC(OC)=CC5)CC(O)C1OC", "physical_data": {"Molecular Weight": "414.49", "Molecular Formula": "C23H30N2O5", "Melting Point": "235-240 \u00b0C"}}