{"cas_no": "2901-76-0", "cn_name": "\u82ef\u7532\u9170\u57fa-DL-\u82ef\u4e19\u6c28\u9178", "en_name": ["N-Benzoyl-DL-phenylalanine", "Phenylalanine, N-benzoyl-", "DL-Phenylalanine, N-benzoyl-", "Alanine, N-benzoyl-3-phenyl-, DL-", "N-Benzoylphenylalanine", "N-Benzoyl-DL-phenylalanine", "DL-2-Benzamido-3-phenylpropionic acid", "DL-N-Benzoylphenylalanine", "DL-Bz-Phenylalanine", "NSC 96354", "2-Benzamido-3-phenylpropanoicacid", "3-Phenyl-2-(phenylformamido)propanoic acid", "2-Benzamido-3-phenylpropanoic acid"], "SMILES": "C(NC(=O)C1=CC=CC=C1)(CC2=CC=CC=C2)C(O)=O", "physical_data": {"Molecular Weight": "269.30", "Molecular Formula": "C16H15NO3", "Melting Point": "187 \u00b0C"}}