{"cas_no": "2902-98-9", "cn_name": "2-\u6c2f-2,2-\u4e8c\u82ef\u57fa\u4e59\u9170\u6c2f", "en_name": ["\u03b1-Chloro-\u03b1-phenylbenzeneacetyl chloride", "Benzeneacetyl chloride, \u03b1-chloro-\u03b1-phenyl-", "Acetyl chloride, chlorodiphenyl-", "\u03b1-Chloro-\u03b1-phenylbenzeneacetyl chloride", "Diphenylchloroacetylchloride", "Chlorodiphenylacetyl chloride", "\u03b1-Chloro-\u03b1,\u03b1-diphenylacetyl chloride", "2-Chloro-2,2-diphenylacetyl chloride", "\u03b1,\u03b1-Diphenyl-\u03b1-chloroacetyl chloride", "\u03b1-Chlorodiphenylacetyl chloride", "NSC 400463"], "SMILES": "C(C(Cl)=O)(Cl)(C1=CC=CC=C1)C2=CC=CC=C2", "physical_data": {"Molecular Weight": "265.13", "Molecular Formula": "C14H10Cl2O", "Boiling Point": "180 \u00b0C @ Press: 14 Torr", "Melting Point": "49-50 \u00b0C"}}