{"cas_no": "29027-17-6", "cn_name": "2-Chloro-m-toluidine.", "en_name": ["2-Chloro-3-methylbenzenamine", "Benzenamine, 2-chloro-3-methyl-", "m-Toluidine, 2-chloro-", "2-Chloro-3-methylbenzenamine", "2-Chloro-3-methylaniline", "2-Chloro-3-aminotoluene", "(2-Chloro-3-methylphenyl)amine"], "SMILES": "ClC1=C(C)C=CC=C1N", "physical_data": {"Molecular Weight": "141.60", "Molecular Formula": "C7H8ClN", "Melting Point": "6.6 \u00b0C"}}