{"cas_no": "290297-26-6", "cn_name": "\u5948\u59a5\u5421\u5766", "en_name": ["Netupitant", "Benzeneacetamide, N,\u03b1,\u03b1-trimethyl-N-[4-(2-methylphenyl)-6-(4-methyl-1-piperazinyl)-3-pyridinyl]-3,5-bis(trifluoromethyl)-", "N,\u03b1,\u03b1-Trimethyl-N-[4-(2-methylphenyl)-6-(4-methyl-1-piperazinyl)-3-pyridinyl]-3,5-bis(trifluoromethyl)benzeneacetamide", "Netupitant", "Ro 67-31898/000", "2-[3,5-Bis(trifluoromethyl)phenyl]-N-[6-(4-methylpiperazin-1-yl)-4-o-tolylpyridin-3-yl]-N-methylisobutyramide", "2-[3,5-Bis(trifluoromethyl)phenyl]-N,2-dimethyl-N-[4-(2-methylphenyl)-6-(4-methylpiperazin-1-yl)pyridin-3-yl]propanamide"], "SMILES": "N(C(C(C)(C)C1=CC(C(F)(F)F)=CC(C(F)(F)F)=C1)=O)(C)C=2C(=CC(=NC2)N3CCN(C)CC3)C4=C(C)C=CC=C4", "physical_data": {"Molecular Weight": "578.59", "Molecular Formula": "C30H32F6N4O", "Melting Point": "156.2-160.0 \u00b0C"}}