{"cas_no": "2902-96-7", "cn_name": "2-\u785d\u57fa-1-\u4e19\u9187", "en_name": ["2-Nitro-1-propanol", "1-Propanol, 2-nitro-", "2-Nitro-1-propanol", "2-Nitropropanol", "Ba 51-084789", "1-Hydroxy-2-nitropropane", "(\u00b1)-2-Nitro-1-propanol", "NSC 16159"], "SMILES": "C(N(=O)=O)(CO)C", "physical_data": {"Molecular Weight": "105.09", "Molecular Formula": "C3H7NO3", "Boiling Point": "99 \u00b0C", "Density": "1.1841 g/cm\u00b3 @ Temp: 25 \u00b0C"}}