{"cas_no": "29022-11-5", "cn_name": "Fmoc-\u7518\u6c28\u9178", "en_name": ["Fmoc-Gly-OH", "Glycine, N-[(9H-fluoren-9-ylmethoxy)carbonyl]-", "Glycine, N-carboxy-, N-(fluoren-9-ylmethyl) ester", "Fluorene-9-methanol, N-ester with N-carboxyglycine", "N-[(9H-Fluoren-9-ylmethoxy)carbonyl]glycine", "N-(9-Fluorenylmethoxycarbonyl)glycine", "Fmoc-Gly-OH", "N-Fluorenylmethoxycarbonylglycine", "NPC 14692", "Fmoc glycine", "NSC 334288", "[[[(9H-Fluoren-9-yl)methoxy]carbonyl]amino]acetic acid", "2-[[[(9H-Fluoren-9-yl)methoxy]carbonyl]amino]ethanoic acid", "2-[[[(9H-Fluoren-9-yl)methoxy]carbonyl]amino]acetic acid"], "SMILES": "C(OC(NCC(O)=O)=O)C1C=2C(C=3C1=CC=CC3)=CC=CC2", "physical_data": {"Molecular Weight": "297.31", "Molecular Formula": "C17H15NO4", "Melting Point": "174-176 \u00b0C"}}