{"cas_no": "29026-74-2", "cn_name": "2-(1-\u7532\u57fa\u4e59\u6c27\u57fa)\u82ef\u80fa", "en_name": ["2-(1-Methylethoxy)benzenamine", "Benzenamine, 2-(1-methylethoxy)-", "Aniline, o-isopropoxy-", "2-(1-Methylethoxy)benzenamine", "o-Isopropoxyaniline", "2-Isopropoxyaniline", "2-(1-Methylethoxy)aniline", "2-Propan-2-yloxyaniline", "2-(Propan-2-yloxy)aniline", "2-Isopropoxy-phenylamine"], "SMILES": "O(C(C)C)C1=C(N)C=CC=C1", "physical_data": {"Molecular Weight": "151.21", "Molecular Formula": "C9H13NO", "Boiling Point": "107-110 \u00b0C @ Press: 10 mmHg", "Melting Point": "139-141 \u00b0C"}}