{"cas_no": "29031-19-4", "cn_name": "\u6c28\u57fa\u8461\u8404\u7cd6\u786b\u9178\u76d0", "en_name": ["Glucosamine sulfate", "D-Glucose, 2-amino-2-deoxy-, sulfate (1:?)", "D-Glucose, 2-amino-2-deoxy-, sulfate (salt)", "Glucosamine sulfate", "D-Glucosamine sulfate", "DONA", "Glucosamine sulfate salt", "Cevolox", "Arthro", "Vita GS complex", "Dinaflex", "Flexsa"], "SMILES": "C(C(C(CO)O)O)(C(C=O)N)O.S(=O)(=O)(O)O", "physical_data": {"Molecular Weight": "", "Molecular Formula": "C6H13NO5.xH2O4S", "Melting Point": "116 \u00b0C"}}