{"cas_no": "2903-34-6", "cn_name": "N-(4-\u6c2f\u82ef\u57fa)-4-\u7532\u57fa\u82ef\u78fa\u9170\u80fa", "en_name": ["N-(4-Chlorophenyl)-4-methylbenzenesulfonamide", "Benzenesulfonamide, N-(4-chlorophenyl)-4-methyl-", "p-Toluenesulfonanilide, 4\u2032-chloro-", "N-(4-Chlorophenyl)-4-methylbenzenesulfonamide", "N-Tosyl-p-chloroaniline", "NSC 74681", "N-(4-Chlorophenyl)-p-toluenesulfonamide", "4-Methylbenzenesulfonamido-N-(4-chlorobenzene)"], "SMILES": "S(NC1=CC=C(Cl)C=C1)(=O)(=O)C2=CC=C(C)C=C2", "physical_data": {"Molecular Weight": "281.76", "Molecular Formula": "C13H12ClNO2S", "Melting Point": "118-119 \u00b0C"}}