{"cas_no": "2904-41-8", "cn_name": "2,4,6-\u4e09\u6c27\u4ee3-1,3,5-\u4e09\u55ea-1,3,5(2H,4H,6H)-\u4e09\u4e19\u9178", "en_name": ["2,4,6-Trioxo-1,3,5-triazine-1,3,5(2H,4H,6H)-tripropanoic acid", "1,3,5-Triazine-1,3,5(2H,4H,6H)-tripropanoic acid, 2,4,6-trioxo-", "s-Triazine-1,3,5(2H,4H,6H)-tripropionic acid, 2,4,6-trioxo-", "2,4,6-Trioxo-1,3,5-triazine-1,3,5(2H,4H,6H)-tripropanoic acid", "Hexahydro-2,4,6-trioxo-s-triazine-1,3,5-tripropionic acid", "Tris(2-carboxyethyl) isocyanurate", "1,3,5-Tris(2-carboxyethyl)isocyanuric acid", "Tris(carboxyethyl) isocyanurate", "1,3,5-Tris(carboxyethyl) isocyanurate", "1,3,5-Tris(2-carboxyethyl) isocyanurate", "NSC 11694", "CIC Acid"], "SMILES": "C(CC(O)=O)N1C(=O)N(CCC(O)=O)C(=O)N(CCC(O)=O)C1=O", "physical_data": {"Molecular Weight": "345.26", "Molecular Formula": "C12H15N3O9", "Melting Point": "226-227 \u00b0C"}}