{"cas_no": "2905-23-9", "cn_name": "2-\u6c2f\u82ef\u78fa\u9170\u6c2f", "en_name": ["2-Chlorobenzenesulfonyl chloride", "Benzenesulfonyl chloride, 2-chloro-", "Benzenesulfonyl chloride, o-chloro-", "2-Chlorobenzenesulfonyl chloride", "o-Chlorobenzenesulfonyl chloride", "2-Chlorophenylsulfonyl chloride", "NSC 151229", "2-Chlorobenzene-1-sulfonyl chloride"], "SMILES": "S(Cl)(=O)(=O)C1=C(Cl)C=CC=C1", "physical_data": {"Molecular Weight": "211.07", "Molecular Formula": "C6H4Cl2O2S", "Boiling Point": "144-146 \u00b0C @ Press: 12 Torr", "Melting Point": "27.4 \u00b0C"}}