{"cas_no": "2905-62-6", "cn_name": "3,5-\u4e8c\u6c2f\u82ef\u7532\u9170\u6c2f", "en_name": ["3,5-Dichlorobenzoyl chloride", "Benzoyl chloride, 3,5-dichloro-", "3,5-Dichlorobenzoyl chloride"], "SMILES": "C(Cl)(=O)C1=CC(Cl)=CC(Cl)=C1", "physical_data": {"Molecular Weight": "209.46", "Molecular Formula": "C7H3Cl3O", "Boiling Point": "71-75 \u00b0C @ Press: 1 Torr"}}