{"cas_no": "2905-56-8", "cn_name": "1-\u82c4\u57fa\u54cc\u5576", "en_name": ["1-Benzylpiperidine", "Piperidine, 1-(phenylmethyl)-", "Piperidine, 1-benzyl-", "1-(Phenylmethyl)piperidine", "N-Benzylpiperidine", "1-Benzylpiperidine"], "SMILES": "C(C1=CC=CC=C1)N2CCCCC2", "physical_data": {"Molecular Weight": "175.27", "Molecular Formula": "C12H17N", "Boiling Point": "245 \u00b0C", "Melting Point": "178-179 \u00b0C"}}