{"cas_no": "2905-69-3", "cn_name": "2,5-\u4e8c\u6c2f\u82ef\u7532\u9178\u7532\u916f", "en_name": ["Methyl 2,5-dichlorobenzoate", "Benzoic acid, 2,5-dichloro-, methyl ester", "Methyl 2,5-dichlorobenzoate", "2,5-Dichlorobenzoic acid methyl ester"], "SMILES": "C(OC)(=O)C1=C(Cl)C=CC(Cl)=C1", "physical_data": {"Molecular Weight": "205.04", "Molecular Formula": "C8H6Cl2O2", "Melting Point": "37-40 \u00b0C"}}