{"cas_no": "2905-26-2", "cn_name": "3-\u53d4-\u4e01\u57fa\u82ef\u78fa\u9170\u6c2f", "en_name": ["3-(1,1-Dimethylethyl)benzenesulfonyl chloride", "Benzenesulfonyl chloride, 3-(1,1-dimethylethyl)-", "Benzenesulfonyl chloride, m-tert-butyl-", "3-(1,1-Dimethylethyl)benzenesulfonyl chloride", "3-tert-Butylphenylsulfonyl chloride", "3-tert-Butylbenzenesulfonyl chloride", "3-tert-Butylbenzene-1-sulfonyl chloride"], "SMILES": "C(C)(C)(C)C1=CC(S(Cl)(=O)=O)=CC=C1", "physical_data": {"Molecular Weight": "232.73", "Molecular Formula": "C10H13ClO2S", "Boiling Point": "93-94 \u00b0C @ Press: 0.6 Torr"}}