{"cas_no": "2905-27-3", "cn_name": "3,5-\u4e8c\u7532\u57fa\u82ef\u78fa\u9170\u57fa\u6c2f", "en_name": ["3,5-Dimethylbenzenesulfonyl chloride", "Benzenesulfonyl chloride, 3,5-dimethyl-", "3,5-Xylenesulfonyl chloride", "3,5-Dimethylbenzenesulfonyl chloride", "3,5-Dimethylbenzene-1-sulfonyl chloride"], "SMILES": "S(Cl)(=O)(=O)C1=CC(C)=CC(C)=C1", "physical_data": {"Molecular Weight": "204.67", "Molecular Formula": "C8H9ClO2S", "Boiling Point": "89-90 \u00b0C @ Press: 0.2 Torr", "Melting Point": "128-130 \u00b0C"}}