{"cas_no": "2905-30-8", "cn_name": "\u4e8c\u7532\u57fa\u8054\u82ef", "en_name": ["3,4-Dimethylbenzenesulfonyl chloride", "Benzenesulfonyl chloride, 3,4-dimethyl-", "3,4-Xylenesulfonyl chloride", "3,4-Dimethylbenzenesulfonyl chloride", "4-(Chlorosulfonyl)-1,2-dimethylbenzene", "3,4-Dimethylbenzene-1-sulfonyl chloride", "3,4-Dimethylbenzenesulphonyl chloride"], "SMILES": "S(Cl)(=O)(=O)C1=CC(C)=C(C)C=C1", "physical_data": {"Molecular Weight": "204.67", "Molecular Formula": "C8H9ClO2S", "Boiling Point": "160-162 \u00b0C @ Press: 12 Torr", "Melting Point": "52 \u00b0C"}}