{"cas_no": "2905-60-4", "cn_name": "2,3\uff0d\u4e8c\u6c2f\u82ef\u7532\u9170\u6c2f", "en_name": ["2,3-Dichlorobenzoyl chloride", "Benzoyl chloride, 2,3-dichloro-", "2,3-Dichlorobenzoyl chloride"], "SMILES": "C(Cl)(=O)C1=C(Cl)C(Cl)=CC=C1", "physical_data": {"Molecular Weight": "209.46", "Molecular Formula": "C7H3Cl3O", "Boiling Point": "55-58 \u00b0C @ Press: 0.32 Torr"}}