{"cas_no": "2905-65-9", "cn_name": "\u95f4\u6c2f\u82ef\u7532\u9178\u7532\u916f", "en_name": ["Benzoic acid, 3-chloro-, methyl ester", "Benzoic acid, 3-chloro-, methyl ester", "Benzoic acid, m-chloro-, methyl ester", "m-Chlorobenzoic acid methyl ester", "Methyl m-chlorobenzoate", "Methyl 3-chlorobenzoate", "3-Chlorobenzoic acid methyl ester", "3-(Methoxycarbonyl)phenyl chloride"], "SMILES": "C(OC)(=O)C1=CC(Cl)=CC=C1", "physical_data": {"Molecular Weight": "170.59", "Molecular Formula": "C8H7ClO2", "Boiling Point": "231 \u00b0C", "Melting Point": "21 \u00b0C"}}