{"cas_no": "2905-61-5", "cn_name": "2,5-\u4e8c\u6c2f\u82ef\u7532\u9170\u6c2f", "en_name": ["2,5-Dichlorobenzoyl chloride", "Benzoyl chloride, 2,5-dichloro-", "2,5-Dichlorobenzoyl chloride", "NSC 41887", "2,5-Dichlorobenzoic acid chloride"], "SMILES": "C(Cl)(=O)C1=C(Cl)C=CC(Cl)=C1", "physical_data": {"Molecular Weight": "209.46", "Molecular Formula": "C7H3Cl3O", "Boiling Point": "126-130 \u00b0C @ Press: 14 Torr"}}