{"cas_no": "29051-44-3", "cn_name": "6-\u82ef\u57fa\u70df\u9178", "en_name": ["6-Phenylnicotinic acid", "3-Pyridinecarboxylic acid, 6-phenyl-", "Nicotinic acid, 6-phenyl-", "6-Phenyl-3-pyridinecarboxylic acid", "2-Phenyl-5-pyridinecarboxylic acid", "6-Phenylnicotinic acid", "6-Phenylpyridine-3-carboxylic acid"], "SMILES": "C(O)(=O)C1=CC=C(N=C1)C2=CC=CC=C2", "physical_data": {"Molecular Weight": "199.21", "Molecular Formula": "C12H9NO2", "Melting Point": "232-233 \u00b0C"}}