{"cas_no": "29066-34-0", "cn_name": "\u4e59\u9178\u8584\u8377\u916f", "en_name": ["(\u00b1)-Menthyl acetate", "Cyclohexanol, 5-methyl-2-(1-methylethyl)-, 1-acetate, (1R,2S,5R)-rel-", "Menthol, acetate, cis-1,3,trans-1,4-", "Cyclohexanol, 5-methyl-2-(1-methylethyl)-, acetate, (1\u03b1,2\u03b2,5\u03b1)-", "Cyclohexanol, 5-methyl-2-(1-methylethyl)-, acetate, (1R,2S,5R)-rel-", "Menthyl acetate", "dl-Menthyl acetate", "(\u00b1)-Menthol acetate", "(\u00b1)-Menthyl acetate"], "SMILES": "C(C)(C)C1C(OC(C)=O)CC(C)CC1", "physical_data": {"Molecular Weight": "198.30", "Molecular Formula": "C12H22O2", "Boiling Point": "227 \u00b0C", "Melting Point": "&lt;25 \u00b0C"}}