{"cas_no": "2906-12-9", "cn_name": "3-\u5f02\u4e19\u6c27\u57fa\u4e19\u80fa", "en_name": ["3-Isopropoxypropylamine", "1-Propanamine, 3-(1-methylethoxy)-", "Propylamine, 3-isopropoxy-", "3-(1-Methylethoxy)-1-propanamine", "3-Isopropoxypropylamine", "3-Isopropoxy-1-propylamine", "3-Aminopropyl isopropyl ether", "3-Isopropoxy-1-propanamine", "NSC 815", "[3-[(1-Methylethyl)oxy]propyl]amine", "3-(1-Methylethoxy)propan-1-amine", "3-(Propan-2-yloxy)propan-1-amine", "3-Propan-2-yloxypropan-1-amine"], "SMILES": "O(CCCN)C(C)C", "physical_data": {"Molecular Weight": "117.19", "Molecular Formula": "C6H15NO", "Boiling Point": "85-86 \u00b0C @ Press: 102 Torr", "Density": "0.8450 g/cm\u00b3 @ Temp: 20 \u00b0C"}}