{"cas_no": "2906-60-7", "cn_name": "3-\u7fa7\u4e19\u57fa\u4e8c\u786b\u5316\u7269", "en_name": ["4,4\u2032-Dithiodibutyric acid", "Butanoic acid, 4,4\u2032-dithiobis-", "Butyric acid, 4,4\u2032-dithiodi-", "4,4\u2032-Dithiobis[butanoic acid]", "\u03b3,\u03b3\u2032-Dithiodibutyric acid", "4,4\u2032-Dithiodibutyric acid", "3-Carboxypropyl disulfide", "4,4\u2032-Dithiodibutanoic acid", "Bis(3-carboxypropyl) disulfide", "4,4-Disulfanylbutyric acid", "4,4\u2032-(Disulfanediyl)dibutanoic acid"], "SMILES": "C(CC(O)=O)CSSCCCC(O)=O", "physical_data": {"Molecular Weight": "238.32", "Molecular Formula": "C8H14O4S2", "Melting Point": "109-110 \u00b0C"}}