{"cas_no": "29079-00-3", "cn_name": "4-\u4e59\u7094\u8054\u82ef", "en_name": ["4-Ethynyl-1,1\u2032-biphenyl", "1,1\u2032-Biphenyl, 4-ethynyl-", "Biphenyl, 4-ethynyl-", "4-Ethynyl-1,1\u2032-biphenyl", "4-Ethynylbiphenyl", "4-Biphenylylacetylene", "p-Biphenylacetylene", "4-Biphenylacetylene", "LY 81979", "(p-Phenyl)phenylacetylene", "(4-Phenylphenyl)ethyne", "(1,1\u2032-Biphenyl-4-yl)acetylene", "1-Phenyl-4-ethynylbenzene", "p-Phenylethynylbenzene", "1-Ethynyl-4-phenylbenzene", "(4-Phenylphenyl)acetylene", "4-Phenylphenylacetylene", "(1,1\u2032-Biphenyl-4-yl)ethyne"], "SMILES": "C(#C)C1=CC=C(C=C1)C2=CC=CC=C2", "physical_data": {"Molecular Weight": "178.23", "Molecular Formula": "C14H10", "Boiling Point": "137 \u00b0C @ Press: 3 Torr", "Melting Point": "86.0-88.0 \u00b0C"}}