{"cas_no": "29070-92-6", "cn_name": "\u832f\u82d3\u9178", "en_name": ["Pachymic acid", "Lanost-8-en-21-oic acid, 3-(acetyloxy)-16-hydroxy-24-methylene-, (3\u03b2,16\u03b1)-", "Lanost-8-en-21-oic acid, 3\u03b2,16\u03b1-dihydroxy-24-methylene-, 3-acetate", "Eburica-8,24(28)-dien-21-oic acid, 3\u03b2,16\u03b1-dihydroxy-, 3-acetate", "(3\u03b2,16\u03b1)-3-(Acetyloxy)-16-hydroxy-24-methylenelanost-8-en-21-oic acid", "Pachymic acid", "3-O-Acetyltumulosic acid", "NSC 244427"], "SMILES": "CC12C(C)(C(C(CCC(C(C)C)=C)C(O)=O)C(O)C1)CCC3=C2CCC4C3(C)CCC(OC(C)=O)C4(C)C", "physical_data": {"Molecular Weight": "528.76", "Molecular Formula": "C33H52O5", "Melting Point": "300 \u00b0C"}}