{"cas_no": "29086-41-7", "cn_name": "1,1-\u53cc-\u6eb4\u7532\u57fa\u73af\u4e19\u70f7", "en_name": ["1,1-Bis(bromomethyl)cyclopropane", "Cyclopropane, 1,1-bis(bromomethyl)-", "1,1-Bis(bromomethyl)cyclopropane", "1,1-Di(bromomethyl)cyclopropane"], "SMILES": "C(Br)C1(CBr)CC1", "physical_data": {"Molecular Weight": "227.93", "Molecular Formula": "C5H8Br2", "Boiling Point": "63.7-64.0 \u00b0C @ Press: 5.1 Torr"}}