{"cas_no": "29082-92-6", "cn_name": "5-\u7532\u6c27\u57fa\u5421\u5576-2-\u7fa7\u9178", "en_name": ["5-Methoxypicolinic acid", "2-Pyridinecarboxylic acid, 5-methoxy-", "Picolinic acid, 5-methoxy-", "5-Methoxy-2-pyridinecarboxylic acid", "5-Methoxypicolinic acid"], "SMILES": "C(O)(=O)C1=CC=C(OC)C=N1", "physical_data": {"Molecular Weight": "153.14", "Molecular Formula": "C7H7NO3", "Melting Point": "172-174 \u00b0C"}}