{"cas_no": "29082-74-4", "cn_name": "\u516b\u6c2f\u82ef\u4e59\u70ef", "en_name": ["Octachlorostyrene", "Benzene, 1,2,3,4,5-pentachloro-6-(1,2,2-trichloroethenyl)-", "Benzene, pentachloro(trichloroethenyl)-", "Styrene, octachloro-", "1,2,3,4,5-Pentachloro-6-(1,2,2-trichloroethenyl)benzene", "Perchlorostyrene", "Trichlorovinylpentachlorobenzene", "Octachlorostyrene", "OCS", "Octachlorostyrol", "1,2,3,4,5-Pentachloro-6-(trichloroethenyl)benzene", "DTXSID2021074"], "SMILES": "C(=C(Cl)Cl)(Cl)C1=C(Cl)C(Cl)=C(Cl)C(Cl)=C1Cl", "physical_data": {"Molecular Weight": "379.71", "Molecular Formula": "C8Cl8", "Melting Point": "92.5-96.5 \u00b0C"}}