{"cas_no": "29091-21-2", "cn_name": "\u6c28\u57fa\u4e19\u6c1f\u7075", "en_name": ["Prodiamine", "1,3-Benzenediamine, 2,6-dinitro-N1,N1-dipropyl-4-(trifluoromethyl)-", "Toluene-2,4-diamine, \u03b1,\u03b1,\u03b1-trifluoro-3,5-dinitro-N4,N4-dipropyl-", "2,6-Dinitro-N1,N1-dipropyl-4-(trifluoromethyl)-1,3-benzenediamine", "N3,N3-Dipropyl-2,4-dinitro-6-trifluoromethyl-1,3-phenylenediamine", "Prodiamine", "Endurance", "Barricade", "Barricade (herbicide)", "Kusablock", "Factor", "Endurance (herbicide)"], "SMILES": "N(CCC)(CCC)C1=C(N(=O)=O)C(N)=C(C(F)(F)F)C=C1N(=O)=O", "physical_data": {"Molecular Weight": "350.29", "Molecular Formula": "C13H17F3N4O4", "Melting Point": "124 \u00b0C"}}