{"cas_no": "2909-79-7", "cn_name": "4-\u53d4\u4e01\u57fa-N,N-\u4e8c\u7532\u57fa\u82ef\u80fa", "en_name": ["4-(1,1-Dimethylethyl)-N,N-dimethylbenzenamine", "Benzenamine, 4-(1,1-dimethylethyl)-N,N-dimethyl-", "Aniline, p-tert-butyl-N,N-dimethyl-", "4-(1,1-Dimethylethyl)-N,N-dimethylbenzenamine", "N,N-Dimethyl-p-tert-butylaniline", "p-tert-Butyl-N,N-dimethylaniline", "4-tert-Butyl-N,N-dimethylaniline", "4-(1,1-Dimethylethyl)-N,N-Dimethylaniline", "N,N-Dimethyl-4-tert-butylaniline"], "SMILES": "C(C)(C)(C)C1=CC=C(N(C)C)C=C1", "physical_data": {"Molecular Weight": "177.29", "Molecular Formula": "C12H19N", "Boiling Point": "124-126 \u00b0C @ Press: 16 Torr"}}