{"cas_no": "2909-38-8", "cn_name": "\u95f4\u6c2f\u82ef\u5f02\u6c30\u9178\u916f", "en_name": ["3-Chlorophenyl isocyanate", "Benzene, 1-chloro-3-isocyanato-", "Isocyanic acid, m-chlorophenyl ester", "1-Chloro-3-isocyanatobenzene", "m-Chlorophenyl isocyanate", "3-Chlorophenyl isocyanate", "3-Chloroisocyanatobenzene", "NSC 76588", "1-Isocyanato-3-chlorobenzene", "3-Chloro-1-isocyanatobenzene"], "SMILES": "N(=C=O)C1=CC(Cl)=CC=C1", "physical_data": {"Molecular Weight": "153.57", "Molecular Formula": "C7H4ClNO", "Boiling Point": "83-86 \u00b0C @ Press: 10.5 Torr", "Melting Point": "-4 \u00b0C"}}