{"cas_no": "29094-61-9", "cn_name": "\u683c\u5217\u5421\u55ea", "en_name": ["Glipizide", "2-Pyrazinecarboxamide, N-[2-[4-[[[(cyclohexylamino)carbonyl]amino]sulfonyl]phenyl]ethyl]-5-methyl-", "Urea, 1-cyclohexyl-3-[[p-[2-(5-methylpyrazinecarboxamido)ethyl]phenyl]sulfonyl]-", "Pyrazinecarboxamide, N-[2-[4-[[[(cyclohexylamino)carbonyl]amino]sulfonyl]phenyl]ethyl]-5-methyl-", "N-[2-[4-[[[(Cyclohexylamino)carbonyl]amino]sulfonyl]phenyl]ethyl]-5-methyl-2-pyrazinecarboxamide", "N-(4-[\u03b2-(5-Methylpyrazine-2-carboxamido)ethyl]benzenesulfonyl)-N\u2032-cyclohexylurea", "Glydiazinamide", "K 4024", "Glipizide", "TK 1320", "Minidiab", "Sucrazide", "Glipid", "Napizide", "Mindiab", "Glidiab", "Glyde", "Glupitel", "Minodiab", "Gluco-Rite", "Glucotrol Xl", "Ozidia", "Dipazide", "Melizide", "Glynase", "Glucotrol", "Minidab", "Glupizide", "Aldiab", "Digrin", "Glucozide", "Glibetin", "Glucolip", "Glibenese", "Glican", "CP 28720", "Glipizid", "Semiglynase", "N-(2-(4-(N-(Cyclohexylcarbamoyl)sulfamoyl)phenyl)ethyl)-5-methylpyrazine-2-carboxamide", "Samarium(III) ionophore I", "MeSH ID: D005913"], "SMILES": "S(NC(NC1CCCCC1)=O)(=O)(=O)C2=CC=C(CCNC(=O)C=3C=NC(C)=CN3)C=C2", "physical_data": {"Molecular Weight": "445.54", "Molecular Formula": "C21H27N5O4S", "Melting Point": "208-209 \u00b0C"}}