{"cas_no": "2909-77-5", "cn_name": "\u4e8c\u5f02\u4e19\u57fa-\u4e8c\u7532\u57fa\u82ef\u80fa", "en_name": ["N,N-Dimethyl-2,6-bis(1-methylethyl)benzenamine", "Benzenamine, N,N-dimethyl-2,6-bis(1-methylethyl)-", "Aniline, 2,6-diisopropyl-N,N-dimethyl-", "N,N-Dimethyl-2,6-bis(1-methylethyl)benzenamine", "2,6-Diisopropyl-N,N-dimethylaniline", "N,N-Dimethyl-2,6-diisopropylaniline", "DIDMA"], "SMILES": "N(C)(C)C1=C(C(C)C)C=CC=C1C(C)C", "physical_data": {"Molecular Weight": "205.34", "Molecular Formula": "C14H23N", "Boiling Point": "86 \u00b0C @ Press: 2.5 Torr"}}