{"cas_no": "29096-60-4", "cn_name": "3-\u4e59\u9170\u57fa-2-\u7532\u57fa\u54aa\u5511[1,2-A]\u5421\u5576", "en_name": ["1-(2-Methylimidazo[1,2-a]pyridin-3-yl)ethanone", "Ethanone, 1-(2-methylimidazo[1,2-a]pyridin-3-yl)-", "Ketone, methyl 2-methylimidazo[1,2-a]pyridin-3-yl", "Imidazo[1,2-a]pyridine, ethanone deriv.", "1-(2-Methylimidazo[1,2-a]pyridin-3-yl)ethanone", "2-Methyl-3-acetylimidazo[1,2-a]pyridine", "3-Acetyl-2-methylimidazo[1,2-a]pyridine", "1-(2-Methylimidazo[1,2-a]pyridin-3-yl)-1-ethanone", "1-(2-Methylimidazo[1,2-a]pyridin-3-yl)acetyl"], "SMILES": "C(C)(=O)C=1N2C(=NC1C)C=CC=C2", "physical_data": {"Molecular Weight": "174.20", "Molecular Formula": "C10H10N2O", "Melting Point": "105-106 \u00b0C"}}