{"cas_no": "29096-64-8", "cn_name": "1-(\u54aa\u5511\u5e76[1,2-A]\u5421\u5576-3-\u57fa)\u4e59\u916e", "en_name": ["3-Acetylimidazo[1,2-a]pyridine", "Ethanone, 1-imidazo[1,2-a]pyridin-3-yl-", "Ketone, imidazo[1,2-a]pyridin-3-yl methyl", "Imidazo[1,2-a]pyridine, ethanone deriv.", "1-Imidazo[1,2-a]pyridin-3-ylethanone", "3-Acetylimidazo[1,2-a]pyridine", "1-(Imidazo[1,2-a]pyridin-3-yl)ethanone", "1-[Imidazo[1,2-a]pyridin-3-yl]ethan-1-one"], "SMILES": "C(C)(=O)C=1N2C(=NC1)C=CC=C2", "physical_data": {"Molecular Weight": "160.17", "Molecular Formula": "C9H8N2O", "Melting Point": "98-99 \u00b0C"}}