{"cas_no": "29096-75-1", "cn_name": "2-\u6c28\u57fa-5,6-\u4e8c\u7532\u57fa\u82ef\u5e76\u54aa\u5511", "en_name": ["2-Amino-5,6-dimethylbenzimidazole", "1H-Benzimidazol-2-amine, 5,6-dimethyl-", "Benzimidazole, 2-amino-5,6-dimethyl-", "5,6-Dimethyl-1H-benzimidazol-2-amine", "5,6-Dimethyl-2-aminobenzimidazole", "2-Amino-5,6-dimethylbenzimidazole", "NSC 208659", "5,6-Dimethyl-1H-benzo[d]imidazol-2-amine"], "SMILES": "CC=1C=C2C(=CC1C)N=C(N)N2", "physical_data": {"Molecular Weight": "161.20", "Molecular Formula": "C9H11N3", "Melting Point": "195-199 \u00b0C"}}