{"cas_no": "2909-52-6", "cn_name": "\u4e09\u6eb4\u7532\u70f7-D", "en_name": ["Bromoform-d", "Methane-d, tribromo-", "Bromoform-d", "Deuterotribromomethane", "Tribromomethane-d", "Tribromodeuteromethane", "Tribromodeuteriomethane", "Deuteriotribromomethane", "Deuterobromoform", "Deuteriobromoform", "Bromoform-d1"], "SMILES": "C(Br)(Br)(Br)[2H]", "physical_data": {"Molecular Weight": "", "Molecular Formula": "CBr3D", "Boiling Point": "136.5 \u00b0C"}}