{"cas_no": "29091-05-2", "cn_name": "\u654c\u4e50\u80fa", "en_name": ["Dinitramine", "1,3-Benzenediamine, N1,N1-diethyl-2,6-dinitro-4-(trifluoromethyl)-", "Toluene-2,4-diamine, N4,N4-diethyl-\u03b1,\u03b1,\u03b1-trifluoro-3,5-dinitro-", "N1,N1-Diethyl-2,6-dinitro-4-(trifluoromethyl)-1,3-benzenediamine", "USB 3584", "N3,N3-Diethyl-2,4-dinitro-6-(trifluoromethyl)-1,3-phenylenediamine", "Dinitramine", "N3,N3-Diethyl-2,4-dinitro-6-(trifluoromethyl)-m-phenylenediamine", "Cobex", "Cobex (herbicide)", "Kobex"], "SMILES": "N(CC)(CC)C1=C(N(=O)=O)C(N)=C(C(F)(F)F)C=C1N(=O)=O", "physical_data": {"Molecular Weight": "322.24", "Molecular Formula": "C11H13F3N4O4", "Melting Point": "98.0-99.0 \u00b0C", "Density": "1.5 g/cm\u00b3 @ Temp: 25 \u00b0C"}}