{"cas_no": "291-64-5", "cn_name": "\u73af\u5e9a\u70f7", "en_name": ["Cycloheptane", "Cycloheptane", "NSC 5164"], "SMILES": "C1CCCCCC1", "physical_data": {"Molecular Weight": "98.19", "Molecular Formula": "C7H14", "Boiling Point": "118.48 \u00b0C @ Press: 760 Torr", "Melting Point": "-12 \u00b0C", "Density": "0.8098 g/cm\u00b3 @ Temp: 20 \u00b0C"}}