{"cas_no": "291-21-4", "cn_name": "S-\u4e09\u805a\u786b\u4ee3\u7532", "en_name": ["1,3,5-Trithiane", "1,3,5-Trithiane", "s-Trithiane", "Formaldehyde, thio-, trimer", "Trimethylene trisulfide", "1,3,5-Trithiacyclohexane", "Trithioformaldehyde", "Thioform", "Thioformaldehyde trimer", "NSC 1937"], "SMILES": "C1SCSCS1", "physical_data": {"Molecular Weight": "138.27", "Molecular Formula": "C3H6S3", "Boiling Point": "148-149 \u00b0C @ Press: 11-12 Torr", "Melting Point": "220 \u00b0C"}}