{"cas_no": "29106-36-3", "cn_name": "\u677e\u8102\u7d20\u4e8c\u7532\u919a", "en_name": ["(+)-Eudesmin", "1H,3H-Furo[3,4-c]furan, 1,4-bis(3,4-dimethoxyphenyl)tetrahydro-, (1S,3aR,4S,6aR)-", "1H,3H-Furo[3,4-c]furan, 1\u03b1,4\u03b1-bis(3,4-dimethoxyphenyl)-3a\u03b1,4,6,6a\u03b1-tetrahydro-", "1H,3H-Furo[3,4-c]furan, 1,4-bis(3,4-dimethoxyphenyl)tetrahydro-, [1S-(1\u03b1,3a\u03b1,4\u03b1,6a\u03b1)]-", "(1S,3aR,4S,6aR)-1,4-Bis(3,4-dimethoxyphenyl)tetrahydro-1H,3H-furo[3,4-c]furan", "(+)-Pinoresinol dimethyl ether", "Pinoresinol, O,O-dimethyl-", "O,O-Dimethylpinoresinol", "(+)-Eudesmin", "Pinoresinol dimethyl ether"], "SMILES": "O(C)C=1C=C(C2C3C(C(OC3)C4=CC(OC)=C(OC)C=C4)CO2)C=CC1OC", "physical_data": {"Molecular Weight": "386.44", "Molecular Formula": "C22H26O6", "Melting Point": "107-108 \u00b0C"}}