{"cas_no": "29106-51-2", "cn_name": "\u539f\u82b1\u9752\u7d20B4", "en_name": ["Procyanidin B4", "[4,8\u2032-Bi-2H-1-benzopyran]-3,3\u2032,5,5\u2032,7,7\u2032-hexol, 2,2\u2032-bis(3,4-dihydroxyphenyl)-3,3\u2032,4,4\u2032-tetrahydro-, (2R,2\u2032R,3S,3\u2032R,4S)-", "[4,8\u2032\u2032-Biflavan]-3,3\u2032,3\u2032\u2032,3\u2032\u2032\u2032,4\u2032,4\u2032\u2032\u2032,5,5\u2032\u2032,7,7\u2032\u2032-decol, stereoisomer", "[4,8\u2032-Bi-2H-1-benzopyran]-3,3\u2032,5,5\u2032,7,7\u2032-hexol, 2,2\u2032-bis(3,4-dihydroxyphenyl)-3,3\u2032,4,4\u2032-tetrahydro-, [2R-[2\u03b1,3\u03b2,4\u03b1(2\u2032R*,3\u2032R*)]]-", "(2R,2\u2032R,3S,3\u2032R,4S)-2,2\u2032-Bis(3,4-dihydroxyphenyl)-3,3\u2032,4,4\u2032-tetrahydro[4,8\u2032-bi-2H-1-benzopyran]-3,3\u2032,5,5\u2032,7,7\u2032-hexol", "Procyanidin B4", "Procyanidol B4", "(+)-Catechin-(4\u03b1\u21928)-(-)-epicatechin", "Catechin-(4\u03b1\u21928)-epicatechin", "(-)-Procyanidin B4"], "SMILES": "OC1C(C=2C(OC1C3=CC(O)=C(O)C=C3)=CC(O)=CC2O)C4=C5C(CC(O)C(O5)C6=CC(O)=C(O)C=C6)=C(O)C=C4O", "physical_data": {"Molecular Weight": "578.52", "Molecular Formula": "C30H26O12", "Melting Point": "178-180 \u00b0C (decomp)"}}