{"cas_no": "29104-30-1", "cn_name": "\u82ef\u87a8\u7279", "en_name": ["Benzoximate", "Benzoic acid, anhydride with 3-chloro-N-ethoxy-2,6-dimethoxybenzenecarboximidic acid", "Benzoic acid, anhydride with 3-chloro-N-ethoxy-2,6-dimethoxybenzimidic acid", "Benzimidic acid, 3-chloro-N-ethoxy-2,6-dimethoxy-, anhydride with benzoic acid", "Ethyl O-benzoyl-3-chloro-2,6-dimethoxybenzohydroxamate", "Benzomate", "Citrazon", "Benzoximate", "Aazomate"], "SMILES": "C(OC(=O)C1=CC=CC=C1)(=NOCC)C2=C(OC)C(Cl)=CC=C2OC", "physical_data": {"Molecular Weight": "363.79", "Molecular Formula": "C18H18ClNO5", "Melting Point": "73 \u00b0C"}}