{"cas_no": "29110-48-3", "cn_name": "\u76d0\u9178\u80cd\u6cd5\u8f9b", "en_name": ["Guanfacine hydrochloride", "Benzeneacetamide, N-(aminoiminomethyl)-2,6-dichloro-, hydrochloride (1:1)", "Benzeneacetamide, N-(aminoiminomethyl)-2,6-dichloro-, monohydrochloride", "[(2,6-Dichlorophenyl)acetyl]guanidine monohydrochloride", "2,6-Dichlorophenylacetylguanidine hydrochloride", "BS 100-141", "LON 798", "N-Amidino-2-(2,6-dichlorophenyl)acetamide hydrochloride", "Guanfacine hydrochloride", "Estulic", "Tenex", "Tenex (pharmaceutical)", "SPD 503", "INTUNIV"], "SMILES": "C(C(NC(=N)N)=O)C1=C(Cl)C=CC=C1Cl.Cl", "physical_data": {"Molecular Weight": "", "Molecular Formula": "C9H9Cl2N3O.ClH", "Melting Point": "213-216 \u00b0C"}}