{"cas_no": "29110-74-5", "cn_name": "3-\u6c2f-\u5432\u5511", "en_name": ["3-Chloroindazole", "1H-Indazole, 3-chloro-", "3-Chloro-1H-indazole", "3-Chloroindazole", "NSC 42179", "NSC 44503"], "SMILES": "ClC=1C=2C(=CC=CC2)NN1", "physical_data": {"Molecular Weight": "152.58", "Molecular Formula": "C7H5ClN2", "Melting Point": "149 \u00b0C"}}