{"cas_no": "29110-47-2", "cn_name": "\u6c2f\u9170\u80cd", "en_name": ["Guanfacine", "Benzeneacetamide, N-(aminoiminomethyl)-2,6-dichloro-", "Acetamide, N-amidino-2-(2,6-dichlorophenyl)-", "N-(Aminoiminomethyl)-2,6-dichlorobenzeneacetamide", "[(2,6-Dichlorophenyl)acetyl]guanidine", "N-Amidino-2-(2,6-dichlorophenyl)acetamide", "Guanfacine", "Guanfascine", "Guarfacine", "Guanfacin", "MeSH ID: D016316"], "SMILES": "C(C(NC(=N)N)=O)C1=C(Cl)C=CC=C1Cl", "physical_data": {"Molecular Weight": "246.09", "Molecular Formula": "C9H9Cl2N3O", "Melting Point": "226 \u00b0C"}}