{"cas_no": "29118-70-5", "cn_name": "\u987a,\u53cd-5,9-\u73af\u5341\u4e8c\u70f7\u4e8c\u70ef-\u987a-1,2-\u4e8c\u9187", "en_name": ["rel-(1R,2S,5E,9Z)-5,9-Cyclododecadiene-1,2-diol", "5,9-Cyclododecadiene-1,2-diol, (1R,2S,5E,9Z)-rel-", "5,9-Cyclododecadiene-1,2-diol, (E,Z)-cis-", "5,9-Cyclododecadiene-1,2-diol, (1R*,2S*,5Z,9E)-", "rel-(1R,2S,5E,9Z)-5,9-Cyclododecadiene-1,2-diol"], "SMILES": "OC1C(O)CCC=CCCC=CCC1", "physical_data": {"Molecular Weight": "196.29", "Molecular Formula": "C12H20O2", "Melting Point": "168-169 \u00b0C"}}