{"cas_no": "29113-34-6", "cn_name": "4-\u6c27\u4ee3-3,4\u4e8c\u6c22\u55b9\u5511\u5549- 2 -\u7fa7\u9178", "en_name": ["3,4-Dihydro-4-oxo-2-quinazolinecarboxylic acid", "2-Quinazolinecarboxylic acid, 3,4-dihydro-4-oxo-", "2-Quinazolinecarboxylic acid, 1,4-dihydro-4-oxo-", "3,4-Dihydro-4-oxo-2-quinazolinecarboxylic acid", "3,4-Dihydro-4-oxoquinazoline-2-carboxylic acid", "NSC 159703", "4-Oxo-3,4-dihydroquinazoline-2-carboxylic acid"], "SMILES": "O=C1C=2C(NC(C(O)=O)=N1)=CC=CC2", "physical_data": {"Molecular Weight": "190.16", "Molecular Formula": "C9H6N2O3", "Melting Point": "215-216 \u00b0C (decomp)"}}