{"cas_no": "29122-68-7", "cn_name": "\u963f\u66ff\u6d1b\u5c14", "en_name": ["Atenolol", "Benzeneacetamide, 4-[2-hydroxy-3-[(1-methylethyl)amino]propoxy]-", "Acetamide, 2-[p-[2-hydroxy-3-(isopropylamino)propoxy]phenyl]-", "4-[2-Hydroxy-3-[(1-methylethyl)amino]propoxy]benzeneacetamide", "Tenormine", "ICI 66082", "Atenolol", "Tenormin", "Duraatenolol", "(\u00b1)-Atenolol", "DL-Atenolol", "dl-Atenolol", "(RS)-Atenolol", "Altol", "Alinor", "Apo-Atenolol", "Anselol", "Antipressan", "AteHexal", "Atelol", "Atenblock", "Atendol", "Atenet", "Atcardil", "Atecard", "Atenol", "Atereal", "Aterol", "Atolmin", "Betablok", "Betacard", "Blokium", "B-Vasc", "Catenol", "Coratol", "Corotenol", "Evitocor", "Farnormin", "Ateni", "Atenil", "Hipres", "Internolol", "Lo-ten", "Lotenal", "Myocord", "Normalol", "Normiten", "Noten", "Oraday", "Premorine", "Prenolol", "Seles", "Serten", "Stermin", "Tenidon", "Tenoblock", "Tenolin", "Tenolol", "Tenoprin", "Tensig", "Tensimin", "Tredol", "Urosin", "Vascoten", "Vericordin", "Wesipin", "Xaten", "Felo-Bits", "Hypoten", "Cuxanorm", "Seles Beta", "Teno-basan", "Prenormine", "Selobloc", "Ibinolo", "Uniloc", "Ternomin", "Aten", "Telol", "Tenordin", "Ateno", "Novaten", "Catenolol", "Juvental", "(R,S)-Atenolol", "RS-alprenolol", "2-(4-[2-Hydroxy-3-[(propan-2-yl)amino]propoxy]phenyl)acetamide", "2-[4-(2-Hydroxy-3-isopropylamino-propoxy)-phenyl]-acetamide", "2-(4-(2-Hydroxy-3-(isopropylamino)propoxy)phenyl)acetamide", "2-[4-[2-Hydroxy-3-(propan-2-ylamino)propoxy]phenyl]acetamide", "Tenormin I.V.", "MeSH ID: D001262"], "SMILES": "O(CC(CNC(C)C)O)C1=CC=C(CC(N)=O)C=C1", "physical_data": {"Molecular Weight": "266.34", "Molecular Formula": "C14H22N2O3", "Melting Point": "146-148 \u00b0C"}}