{"cas_no": "2912-62-1", "cn_name": "DL-2-\u6c2f-2-\u82ef\u57fa\u4e59\u9170\u6c2f", "en_name": ["\u03b1-Chlorobenzeneacetyl chloride", "Benzeneacetyl chloride, \u03b1-chloro-", "Acetyl chloride, chlorophenyl-", "\u03b1-Chlorobenzeneacetyl chloride", "2-Chloro-2-phenylacetyl chloride", "Chlorophenylacetyl chloride", "\u03b1-Chlorophenylacetyl chloride", "\u03b1-Chloro-\u03b1-phenylacetyl chloride", "Phenyl(chloro)acetyl chloride", "(\u00b1)-2-Chloro-2-phenylacetyl chloride", "2-Phenyl-2-chloroacetyl chloride"], "SMILES": "C(C(Cl)=O)(Cl)C1=CC=CC=C1", "physical_data": {"Molecular Weight": "189.04", "Molecular Formula": "C8H6Cl2O", "Boiling Point": "118 \u00b0C @ Press: 24 Torr", "Melting Point": "285 \u00b0C"}}