{"cas_no": "29125-80-2", "cn_name": "\u69f2\u76ae\u7d20 3,4'-\u4e8c\u8461\u7cd6\u7519", "en_name": ["Quercetin 3,4\u2032-diglucoside", "4H-1-Benzopyran-4-one, 3-(\u03b2-D-glucopyranosyloxy)-2-[4-(\u03b2-D-glucopyranosyloxy)-3-hydroxyphenyl]-5,7-dihydroxy-", "Flavone, 3,3\u2032,4\u2032,5,7-pentahydroxy-, 3,4\u2032-di-\u03b2-D-glucopyranoside", "3-(\u03b2-D-Glucopyranosyloxy)-2-[4-(\u03b2-D-glucopyranosyloxy)-3-hydroxyphenyl]-5,7-dihydroxy-4H-1-benzopyran-4-one", "Quercetin 3,4\u2032-diglucoside", "Quercetin 3,4\u2032-O-\u03b2-diglucopyranoside", "Quercetin 3,4\u2032-di-O-\u03b2-D-glucopyranoside", "Quercetin 3,4\u2032-O-\u03b2-diglucoside", "Quercetin 3,4\u2032-di-O-glucoside"], "SMILES": "O(C1=C(OC=2C(C1=O)=C(O)C=C(O)C2)C3=CC(O)=C(OC4OC(CO)C(O)C(O)C4O)C=C3)C5OC(CO)C(O)C(O)C5O", "physical_data": {"Molecular Weight": "626.52", "Molecular Formula": "C27H30O17", "Melting Point": "185-189 \u00b0C"}}