{"cas_no": "29124-57-0", "cn_name": "2-\u6c28\u57fa-5-\u6eb4\u82ef\u7532\u919b", "en_name": ["2-Amino-5-bromobenzaldehyde", "Benzaldehyde, 2-amino-5-bromo-", "Anthranilaldehyde, 5-bromo-", "2-Amino-5-bromobenzaldehyde", "4-Bromo-2-formylaniline"], "SMILES": "C(=O)C1=C(N)C=CC(Br)=C1", "physical_data": {"Molecular Weight": "200.03", "Molecular Formula": "C7H6BrNO", "Melting Point": "74-76 \u00b0C"}}