{"cas_no": "29122-69-8", "cn_name": "4-(\u73af\u6c27\u4e59\u57fa\u7532\u6c27\u57fa)\u82ef\u4e59\u9170\u80fa", "en_name": ["Benzeneacetamide, 4-(oxiranylmethoxy)-", "Benzeneacetamide, 4-(2-oxiranylmethoxy)-", "Acetamide, 2-[p-(2,3-epoxypropoxy)phenyl]-", "Benzeneacetamide, 4-(oxiranylmethoxy)-", "4-(2-Oxiranylmethoxy)benzeneacetamide", "4-(2,3-Oxidopropoxy)phenylacetamide", "4-(2,3-Epoxypropoxy)phenylacetamide", "1-(p-Carbamoylmethylphenoxy)-2,3-epoxypropane", "2-[4-(Oxiran-2-ylmethoxy)phenyl]acetamide"], "SMILES": "O(CC1CO1)C2=CC=C(CC(N)=O)C=C2", "physical_data": {"Molecular Weight": "207.23", "Molecular Formula": "C11H13NO3", "Melting Point": "172-173 \u00b0C"}}