{"cas_no": "29134-29-0", "cn_name": "(1-\u5421\u54af)\u4e59\u8148", "en_name": ["1-Pyrrolidineacetonitrile", "1-Pyrrolidineacetonitrile", "N-Pyrrolidinoacetonitrile", "Pyrrolidinoacetonitrile", "1-Cyanomethylpyrrolidine", "Pyrrolidin-1-ylacetonitrile", "NSC 26714", "N-Cyanomethylpyrrolidine", "2-Pyrrolidin-1-ylacetonitrile", "2-(Pyrrolidin-1-yl)acetonitrile"], "SMILES": "C(C#N)N1CCCC1", "physical_data": {"Molecular Weight": "110.16", "Molecular Formula": "C6H10N2", "Boiling Point": "86 \u00b0C @ Press: 22 Torr"}}