{"cas_no": "2913-97-5", "cn_name": "N-(2-\u4e59\u919b\u57fa)\u90bb\u82ef\u4e8c\u7532\u9170\u4e9a\u80fa", "en_name": ["1,3-Dihydro-1,3-dioxo-2H-isoindole-2-acetaldehyde", "2H-Isoindole-2-acetaldehyde, 1,3-dihydro-1,3-dioxo-", "Phthalimide, N-(formylmethyl)-", "1,3-Dihydro-1,3-dioxo-2H-isoindole-2-acetaldehyde", "Phthalimidoacetaldehyde", "1,3-Dioxo-2-isoindolineacetaldehyde", "Phthalylglycine aldehyde", "2-Phthalimidoacetaldehyde", "N-(Formylmethyl)phthalimide", "N-(2-Oxoethyl)phthalimide", "(1,3-Dioxo-1,3-dihydroisoindol-2-yl)acetaldehyde", "NSC 30242", "2-(1,3-Dioxo-1,3-dihydro-2H-isoindol-2-yl)acetaldehyde", "2-(1,3-Dioxoisoindolin-2-yl)acetaldehyde", "2-(1,3-Dioxo-1,3-dihydroisoindol-2-yl)acetaldehyde", "2-(1,3-Dioxoisoindol-2-yl)acetaldehyde", "2-(1,3-Dioxo-2,3-dihydro-1H-isoindol-2-yl)acetaldehyde"], "SMILES": "O=C1C=2C(C(=O)N1CC=O)=CC=CC2", "physical_data": {"Molecular Weight": "189.17", "Molecular Formula": "C10H7NO3", "Melting Point": "114.5 \u00b0C"}}