{"cas_no": "29136-19-4", "cn_name": "\u5341\u4e5d\u70f7\u57fa\u82ef", "en_name": ["Nonadecylbenzene", "Benzene, nonadecyl-", "Nonadecane, 1-phenyl-", "Nonadecylbenzene", "n-Nonadecylbenzene", "1-Phenylnonadecane"], "SMILES": "C(CCCCCCCCCCCCCCCCCC)C1=CC=CC=C1", "physical_data": {"Molecular Weight": "344.62", "Molecular Formula": "C25H44", "Boiling Point": "419 \u00b0C", "Melting Point": "40 \u00b0C"}}