{"cas_no": "2914-69-4", "cn_name": "(S)-(-)-3-\u4e01\u7094-2-\u9187", "en_name": ["3-Butyn-2-ol, (2S)-", "3-Butyn-2-ol, (2S)-", "3-Butyn-2-ol, (-)-", "3-Butyn-2-ol, (S)-", "(S)-(-)-1-Butyn-3-ol", "(-)-3-Butyn-2-ol", "(S)-3-Butyn-2-ol", "(S)-(-)-3-Butyn-2-ol", "(S)-1-Butyn-3-ol", "(2S)-But-3-yn-2-ol", "(2S)-3-Butyn-2-ol", "(2S)-But-3-yn-2-ol"], "SMILES": "C(C#C)(C)O", "physical_data": {"Molecular Weight": "70.09", "Molecular Formula": "C4H6O", "Boiling Point": "100 \u00b0C @ Press: 130 mmHg"}}