{"cas_no": "2915-72-2", "cn_name": "\u82ef\u7532\u9178\u5341\u4e8c\u70f7\u916f", "en_name": ["Dodecyl benzoate", "Benzoic acid, dodecyl ester", "Dodecyl benzoate", "Lauryl benzoate", "Dodecyl alcohol, benzoate", "n-Dodecyl benzoate"], "SMILES": "C(OCCCCCCCCCCCC)(=O)C1=CC=CC=C1", "physical_data": {"Molecular Weight": "290.44", "Molecular Formula": "C19H30O2", "Boiling Point": "167-170 \u00b0C @ Press: 2 Torr", "Density": "0.9347 g/cm\u00b3 @ Temp: 20 \u00b0C"}}