{"cas_no": "2915-90-4", "cn_name": "N,N-\u4e8c\u5341\u4e8c\u70f7\u57fa\u7532\u57fa\u80fa", "en_name": ["N-Dodecyl-N-methyl-1-dodecanamine", "1-Dodecanamine, N-dodecyl-N-methyl-", "Didodecylamine, N-methyl-", "N-Dodecyl-N-methyl-1-dodecanamine", "Methyldidodecylamine", "Didodecylmethylamine", "N,N-Didodecylmethylamine", "N-Methyldidodecylamine", "Dilaurylmethylamine", "N-Methyl-N,N-didodecylamine", "Farmin M2 20", "Dilaurylmonomethylamine", "Farmin M 2-2095", "N,N-Didodecyl-N-methylamine", "N-Dodecyl-N-methyldodecan-1-amine"], "SMILES": "N(CCCCCCCCCCCC)(CCCCCCCCCCCC)C", "physical_data": {"Molecular Weight": "367.70", "Molecular Formula": "C25H53N", "Boiling Point": "201 \u00b0C", "Melting Point": "15-16 \u00b0C"}}