{"cas_no": "29166-72-1", "cn_name": "2-\u53d4\u4e01\u57fa-1,1,3,3-\u56db\u7532\u57fa\u80cd", "en_name": ["2-tert-Butyl-1,1,3,3-tetramethylguanidine", "Guanidine, N\u2032\u2032-(1,1-dimethylethyl)-N,N,N\u2032,N\u2032-tetramethyl-", "Guanidine, 2-tert-butyl-1,1,3,3-tetramethyl-", "N\u2032\u2032-(1,1-Dimethylethyl)-N,N,N\u2032,N\u2032-tetramethylguanidine", "Tetramethyl-2-tert-butylguanidine", "N-tert-Butyl-N\u2032,N\u2032,N\u2032\u2032,N\u2032\u2032-tetramethylguanidine", "2-tert-Butyl-1,1,3,3-tetramethylguanidine", "Barton base", "Barton's base"], "SMILES": "C(=NC(C)(C)C)(N(C)C)N(C)C", "physical_data": {"Molecular Weight": "171.28", "Molecular Formula": "C9H21N3", "Boiling Point": "80-82 \u00b0C @ Press: 20 Torr"}}