{"cas_no": "2916-31-6", "cn_name": "2,2-\u4e8c\u7532\u57fa-1,3-\u4e8c\u6c27\u73af\u620a\u70f7", "en_name": ["2,2-Dimethyl-1,3-dioxolane", "1,3-Dioxolane, 2,2-dimethyl-", "2,2-Dimethyl-1,3-dioxolane", "Acetone, cyclic ethylene acetal", "Acetone ethylene ketal", "Acetone ethylene acetal", "NSC 86111", "2,2-Dimethyldioxolane"], "SMILES": "CC1(C)OCCO1", "physical_data": {"Molecular Weight": "102.13", "Molecular Formula": "C5H10O2", "Boiling Point": "92.5 \u00b0C", "Melting Point": "89-91 \u00b0C", "Density": "0.9460 g/cm\u00b3 @ Temp: 15 \u00b0C"}}