{"cas_no": "2916-76-9", "cn_name": "(\u4e09\u7532\u57fa\u7845\u57fa)\u4e59\u9178\u7532\u916f", "en_name": ["Acetic acid, 2-(trimethylsilyl)-, methyl ester", "Acetic acid, 2-(trimethylsilyl)-, methyl ester", "Acetic acid, (trimethylsilyl)-, methyl ester", "Methyl trimethylsilylacetate", "NSC 601813", "Methyl 2-(trimethylsilyl)acetate"], "SMILES": "C([Si](C)(C)C)C(OC)=O", "physical_data": {"Molecular Weight": "146.26", "Molecular Formula": "C6H14O2Si", "Boiling Point": "62-64 \u00b0C @ Press: 50 Torr", "Density": "0.890 g/cm\u00b3"}}