{"cas_no": "2916-68-9", "cn_name": "2-(\u4e09\u7532\u7845\u57fa)\u4e59\u9187", "en_name": ["2-(Trimethylsilyl)ethanol", "Ethanol, 2-(trimethylsilyl)-", "2-(Trimethylsilyl)ethanol", "\u03b2-(Trimethylsilyl)ethanol", "2-(Trimethylsilyl)ethyl alcohol", "(2-Hydroxyethyl)trimethylsilane", "NSC 96784", "2-(Trimethylsilanyl)ethanol", "2-(Trimethylsilyl)ethan-1-ol"], "SMILES": "C([Si](C)(C)C)CO", "physical_data": {"Molecular Weight": "118.25", "Molecular Formula": "C5H14OSi", "Boiling Point": "53-55 \u00b0C @ Press: 11 Torr", "Density": "0.945 g/cm\u00b3"}}