{"cas_no": "2916-14-5", "cn_name": "\u6c2f\u4e59\u9178\u4e19\u70ef\u916f", "en_name": ["2-Propen-1-yl 2-chloroacetate", "Acetic acid, 2-chloro-, 2-propen-1-yl ester", "Acetic acid, chloro-, allyl ester", "Acetic acid, chloro-, 2-propenyl ester", "2-Propen-1-yl 2-chloroacetate", "Allyl chloroacetate", "NSC 44997", "Chloroacetic acid allyl ester"], "SMILES": "C(OCC=C)(CCl)=O", "physical_data": {"Molecular Weight": "134.56", "Molecular Formula": "C5H7ClO2", "Boiling Point": "68-69 \u00b0C @ Press: 20 Torr", "Density": "1.1469 g/cm\u00b3 @ Temp: 20 \u00b0C"}}