{"cas_no": "29176-55-4", "cn_name": "2,9-\u4e8c\u6c2f-1,10-\u83f2\u7f57\u5549", "en_name": ["2,9-Dichloro-1,10-phenanthroline", "1,10-Phenanthroline, 2,9-dichloro-", "2,9-Dichloro-1,10-phenanthroline", "2,9-Dichloro-o-phenanthroline", "VUF 7732", "NSC 608430"], "SMILES": "ClC1=NC2=C3C(=CC=C2C=C1)C=CC(Cl)=N3", "physical_data": {"Molecular Weight": "249.10", "Molecular Formula": "C12H6Cl2N2", "Melting Point": "238-240 \u00b0C"}}