{"cas_no": "2917-65-9", "cn_name": "\u4e59\u9178\u4e09\u7532\u57fa\u7845\u7532\u57fa\u916f", "en_name": ["Methanol, 1-(trimethylsilyl)-, 1-acetate", "Methanol, 1-(trimethylsilyl)-, 1-acetate", "Methanol, (trimethylsilyl)-, acetate", "(Trimethylsilyl)methyl acetate", "Trimethyl(acetoxymethyl)silane", "(Acetoxymethyl)(trimethyl)silane"], "SMILES": "C([Si](C)(C)C)OC(C)=O", "physical_data": {"Molecular Weight": "146.26", "Molecular Formula": "C6H14O2Si", "Boiling Point": "136-137 \u00b0C", "Density": "0.867 g/cm\u00b3 @ Temp: 25 \u00b0C"}}