{"cas_no": "2917-47-7", "cn_name": "3-(\u4e09\u7532\u7845\u57fa)-1-\u4e19\u9187", "en_name": ["3-(Trimethylsilyl)-1-propanol", "1-Propanol, 3-(trimethylsilyl)-", "3-(Trimethylsilyl)-1-propanol", "3-(Trimethylsilyl)propanol", "3-Hydroxypropyltrimethylsilane", "3-(Trimethylsilyl)propyl alcohol", "1-(Trimethylsilyl)-3-propanol", "NSC 96794"], "SMILES": "C([Si](C)(C)C)CCO", "physical_data": {"Molecular Weight": "132.28", "Molecular Formula": "C6H16OSi", "Boiling Point": "141 \u00b0C", "Density": "0.0832 g/cm\u00b3"}}