{"cas_no": "2917-73-9", "cn_name": "\u58ec\u4e8c\u9178\u4e8c\u4e01\u916f", "en_name": ["Dibutyl azelate", "Nonanedioic acid, 1,9-dibutyl ester", "Azelaic acid, dibutyl ester", "Nonanedioic acid, dibutyl ester", "Dibutyl azelate", "Ergoplast AzDB", "NSC 93294"], "SMILES": "C(C(OCCCC)=O)CCCCCCC(OCCCC)=O", "physical_data": {"Molecular Weight": "300.43", "Molecular Formula": "C17H32O4", "Boiling Point": "336 \u00b0C"}}