{"cas_no": "29170-08-9", "cn_name": "4-\u7898-4'-\u785d\u57fa\u8054\u82ef", "en_name": ["4-Iodo-4\u2032-nitro-1,1\u2032-biphenyl", "1,1\u2032-Biphenyl, 4-iodo-4\u2032-nitro-", "Biphenyl, 4-iodo-4\u2032-nitro-", "4-Iodo-4\u2032-nitro-1,1\u2032-biphenyl", "4-Iodo-4\u2032-nitrobiphenyl", "4\u2032-Iodo-4-nitro-1,1\u2032-biphenyl", "4-Iodo-4\u2032-nitro-[1,1\u2032-biphenyl]-", "1-(4-Iodophenyl)-4-nitrobenzene"], "SMILES": "N(=O)(=O)C1=CC=C(C=C1)C2=CC=C(I)C=C2", "physical_data": {"Molecular Weight": "325.10", "Molecular Formula": "C12H8INO2", "Melting Point": "204 \u00b0C"}}