{"cas_no": "29171-20-8", "cn_name": "3,7-\u4e8c\u7532\u57fa-6-\u8f9b\u70ef-1-\u7094\u57fa-3-\u9187", "en_name": ["Dehydrolinalool", "6-Octen-1-yn-3-ol, 3,7-dimethyl-", "Linalool, dehydro-", "3,7-Dimethyl-6-octen-1-yn-3-ol", "\u03b2-Linalool, dehydro-", "3,7-Dimethyl-3-hydroxy-6-octen-1-yne", "Dehydrolinalool", "2,6-Dimethyl-2-octen-7-yn-6-ol", "Dehydro-\u03b2-linalool", "3-Hydroxy-3,7-dimethyl-oct-6-en-1-yne"], "SMILES": "C(CCC=C(C)C)(C#C)(C)O", "physical_data": {"Molecular Weight": "152.23", "Molecular Formula": "C10H16O", "Boiling Point": "91-93 \u00b0C @ Press: 12 Torr", "Density": "0.8861 g/cm\u00b3 @ Temp: 20 \u00b0C"}}