{"cas_no": "291775-59-2", "cn_name": "(1R,3S,4S)-N-\u53d4\u4e01\u6c27\u7fb0\u57fa-2-\u6c2e\u6742\u53cc\u73af[2.2.1]\u5e9a\u70f7-3-\u7fa7\u9178", "en_name": ["2-(1,1-Dimethylethyl) (1R,3S,4S)-2-azabicyclo[2.2.1]heptane-2,3-dicarboxylate", "2-Azabicyclo[2.2.1]heptane-2,3-dicarboxylic acid, 2-(1,1-dimethylethyl) ester, (1R,3S,4S)-", "2-(1,1-Dimethylethyl) (1R,3S,4S)-2-azabicyclo[2.2.1]heptane-2,3-dicarboxylate", "(1R,3S,4S)-2-(tert-Butoxycarbonyl)-2-azabicyclo[2.2.1]heptane-3-carboxylic acid"], "SMILES": "C(OC(C)(C)C)(=O)N1C2CC(C1C(O)=O)CC2", "physical_data": {"Molecular Weight": "241.28", "Molecular Formula": "C12H19NO4", "Melting Point": "147-150 \u00b0C"}}