{"cas_no": "2917-26-2", "cn_name": "1-\u5341\u516d\u70f7\u786b\u9187", "en_name": ["Hexadecanethiol", "1-Hexadecanethiol", "Hexadecanethiol", "Cetyl mercaptan", "n-Hexadecyl mercaptan", "Hexadecyl mercaptan", "n-Hexadecanethiol", "n-Hexadecylthiol", "Hexadecylthiol", "1-Mercaptohexadecane", "NSC 229611", "NSC 57866", "n-Hexadecyl thiolate", "1-Hexadecylthiol", "Hexadecane-1-thiol"], "SMILES": "C(CCCCCCCC)CCCCCCCS", "physical_data": {"Molecular Weight": "258.51", "Molecular Formula": "C16H34S", "Boiling Point": "334 \u00b0C", "Melting Point": "18 \u00b0C", "Density": "0.84 g/cm\u00b3"}}