{"cas_no": "2917-46-6", "cn_name": "\u53cc\u4e8c\u6c2f\u7532\u57fa\u4e8c\u7532\u57fa\u7845\u70f7", "en_name": ["Bis(chloromethyl)dimethylsilane", "Silane, bis(chloromethyl)dimethyl-", "Bis(chloromethyl)dimethylsilane"], "SMILES": "[Si](CCl)(CCl)(C)C", "physical_data": {"Molecular Weight": "157.11", "Molecular Formula": "C4H10Cl2Si", "Boiling Point": "163-164 \u00b0C", "Density": "1.075 g/cm\u00b3"}}