{"cas_no": "29181-50-8", "cn_name": "\u5421\u5576-2,4-\u4e8c\u8148", "en_name": ["2,4-Pyridinedicarbonitrile", "2,4-Pyridinedicarbonitrile", "2,4-Dicyanopyridine"], "SMILES": "C(#N)C=1C=C(C#N)N=CC1", "physical_data": {"Molecular Weight": "129.12", "Molecular Formula": "C7H3N3", "Melting Point": "88-91 \u00b0C"}}