{"cas_no": "2919-66-6", "cn_name": "\u918b\u9178\u7f8e\u4f26\u5b55\u916e", "en_name": ["Melengestrol acetate", "Pregna-4,6-diene-3,20-dione, 17-(acetyloxy)-6-methyl-16-methylene-", "Pregna-4,6-diene-3,20-dione, 17-hydroxy-6-methyl-16-methylene-, acetate", "17-(Acetyloxy)-6-methyl-16-methylenepregna-4,6-diene-3,20-dione", "BDH 1921", "5373", "NSC-70968", "17\u03b1-Acetoxy-6-methyl-16-methylenepregna-4,6-diene-3,20-dione", "6-Dehydro-16-methylene-17\u03b1-hydroxy-6\u03b1-methylprogesterone acetate", "17-Hydroxy-6-methyl-16-methylenepregna-4,6-diene-3,20-dione acetate", "Melengestrol acetate", "MGA", "6-Methyl-16-methylene-17\u03b1-hydroxy-4,6-pregnadiene-3,20-dione 17-acetate", "17-Acetoxy-6-methyl-16-methylenepregna-4,6-diene-3,20-dione", "MGA 100 (steroid)", "MGA 100", "Heifermax 500", "MGA 264"], "SMILES": "O(C(C)=O)C1(C(C)=O)C2(C)C(CC1=C)C3C(CC2)C4(C)C(C(C)=C3)=CC(=O)CC4", "physical_data": {"Molecular Weight": "396.52", "Molecular Formula": "C25H32O4", "Melting Point": "224-226 \u00b0C"}}