{"cas_no": "2919-23-5", "cn_name": "\u73af\u4e01\u9187", "en_name": ["Cyclobutanol", "Cyclobutanol", "Cyclobutyl hydroxide", "Hydroxycyclobutane", "Cyclobutyl alcohol"], "SMILES": "OC1CCC1", "physical_data": {"Molecular Weight": "72.11", "Molecular Formula": "C4H8O", "Boiling Point": "124 \u00b0C", "Density": "0.8995 g/cm\u00b3 @ Temp: 17.5 \u00b0C"}}