{"cas_no": "292-46-6", "cn_name": "\u9999\u83c7\u7d20", "en_name": ["Lenthionine", "1,2,3,5,6-Pentathiepane", "Lenthionine", "Lenthionin", "NSC 291119"], "SMILES": "C1SSCSSS1", "physical_data": {"Molecular Weight": "188.38", "Molecular Formula": "C2H4S5", "Melting Point": "60.5 \u00b0C"}}