{"cas_no": "292-64-8", "cn_name": "\u73af\u8f9b\u70f7", "en_name": ["Cyclooctane", "Cyclooctane", "NSC 72426"], "SMILES": "C1CCCCCCC1", "physical_data": {"Molecular Weight": "112.21", "Molecular Formula": "C8H16", "Boiling Point": "149 \u00b0C", "Melting Point": "14.8 \u00b0C", "Density": "0.891 g/cm\u00b3 @ Temp: 20 \u00b0C"}}