{"cas_no": "2920-86-7", "cn_name": "\u6cfc\u5c3c\u677e\u9f99\u534a\u7425\u73c0\u9178\u916f", "en_name": ["Prednisolone 21-hemisuccinate", "Pregna-1,4-diene-3,20-dione, 21-(3-carboxy-1-oxopropoxy)-11,17-dihydroxy-, (11\u03b2)-", "Pregna-1,4-diene-3,20-dione, 11\u03b2,17,21-trihydroxy-, 21-(hydrogen succinate)", "(11\u03b2)-21-(3-Carboxy-1-oxopropoxy)-11,17-dihydroxypregna-1,4-diene-3,20-dione", "\u03941-Hydrocortisone 21-hemisuccinate", "Prednisolone hemisuccinate", "Prednisolone 21-hemisuccinate", "Prednisolone succinate", "Prednisolone bisuccinate", "Prednisolone 21-succinate", "Prednisolut", "Prednisolone 21-O-\u03b2-carbonylpropionic acid"], "SMILES": "CC12C(C3C(C(O)C1)C4(C)C(CC3)=CC(=O)C=C4)CCC2(C(COC(CCC(O)=O)=O)=O)O", "physical_data": {"Molecular Weight": "460.52", "Molecular Formula": "C25H32O8", "Melting Point": "206.5-209.5 \u00b0C"}}