{"cas_no": "2920-38-9", "cn_name": "4-\u6c30\u57fa\u8054\u82ef", "en_name": ["4-Cyanobiphenyl", "[1,1\u2032-Biphenyl]-4-carbonitrile", "4-Biphenylcarbonitrile", "4-Cyanobiphenyl", "p-Cyanobiphenyl", "p-Phenylbenzonitrile", "4-Phenylbenzonitrile", "4-Cyanodiphenyl", "4-Biphenylnitrile", "1,1\u2032-Biphenyl-4-yl cyanide", "NSC 176013", "4-Cyano-1,1\u2032-biphenyl", "p-Cyanophenyl benzene", "1,1\u2032-Biphenyl-4-ylcarbonitrile", "4-Phenylphenyl isocyanide"], "SMILES": "C(#N)C1=CC=C(C=C1)C2=CC=CC=C2", "physical_data": {"Molecular Weight": "179.22", "Molecular Formula": "C13H9N", "Melting Point": "85-86 \u00b0C"}}