{"cas_no": "2921-88-2", "cn_name": "\u6bd2\u6b7b\u8731", "en_name": ["Chlorpyrifos", "Phosphorothioic acid, O,O-diethyl O-(3,5,6-trichloro-2-pyridinyl) ester", "Phosphorothioic acid, O,O-diethyl O-(3,5,6-trichloro-2-pyridyl) ester", "ENT 27311", "O,O-Diethyl O-(3,5,6-trichloro-2-pyridyl) phosphorothioate", "Dursban", "Dowco 179", "Dursban 4E", "O,O-Diethyl-O-3,5,6-trichloro-2-pyridylphosphorothionate", "Chlorpyrifos", "Chlorpyriphos", "Chloropyrifos", "Lorsban", "Chloropyriphos", "Killmaster", "O,O-Diethyl O-(3,5,6-trichloro-2-pyridinyl)phosphorothioate", "Dursban 10CR", "suSCon", "Lorsban 50SL", "Coroban", "Chlorpyrifos-ethyl", "Dhanusban", "Pyrinex", "Terial 40L", "Terial", "Danusban", "Dursban R", "Durmet", "Dursban TC", "Spannit", "suSCon Blue", "O,O-Diethyl O-(3,5,6-trichloro-2-pyridyl) thiophosphate", "XRM 5160", "Equity", "XRM 429", "Ethyl chlorpyriphos", "Radar (fungicide)", "Lentrek", "Lock-On", "Radar", "suScon Green", "Bonidel", "Grofo", "FE", "Geodinfos", "Tafaban", "Empire 20", "Chloropyrifos-ethyl", "Clorpiran", "Cyfos", "Dursband 48", "Dursband", "Clorpirifos", "Chlora", "Chlora (insecticide)", "Stipend", "Pyrifos", "Xinnongba", "Dursban Pro", "Sabre", "Emperor", "Gigant", "Chloroban", "suSCon Plus", "Saurus", "Chlorpyrifos E", "EF 1315", "Nufos 4E", "LAF 1", "Grub Guard", "Termicot", "Nufos", "GF 2153", "Flower Power", "Lorsban 15G", "Pyrical", "Lorsban Advanced", "Spinter", "Dursban L.O.", "Pestban", "Lorsban 48E", "Pyriban", "Pirfos Glex", "Pyrinex 480EC", "Pyrinex 480", "Dursban 20 EC", "Dursban 75WG", "Termifos", "Hilban", "CPF Zamba", "Warhawk", "Chlorofet", "Dursban 48EC", "Klorpan", "Klorpan 480 EC", "Megaban 20EC", "Megaban", "Megaban 25WP", "Megaban Super", "Sunpyrifos", "MeSH ID: D004390"], "SMILES": "P(OC1=C(Cl)C=C(Cl)C(Cl)=N1)(OCC)(OCC)=S", "physical_data": {"Molecular Weight": "350.59", "Molecular Formula": "C9H11Cl3NO3PS", "Melting Point": "41-42 \u00b0C", "Density": "1.398 g/cm\u00b3 @ Temp: 43.5 \u00b0C"}}