{"cas_no": "29218-27-7", "cn_name": "\u6d9b\u6d1b\u897f\u916e", "en_name": ["Toloxatone", "2-Oxazolidinone, 5-(hydroxymethyl)-3-(3-methylphenyl)-", "2-Oxazolidinone, 5-(hydroxymethyl)-3-m-tolyl-", "5-(Hydroxymethyl)-3-(3-methylphenyl)-2-oxazolidinone", "3-(3-Methylphenyl)-5-hydroxymethyl-2-oxazolidinone", "69276MD", "Toloxatone", "Delalande 69276", "MD 69276", "Humoryl", "Perenum", "Taloxotone"], "SMILES": "O=C1N(CC(CO)O1)C2=CC(C)=CC=C2", "physical_data": {"Molecular Weight": "207.23", "Molecular Formula": "C11H13NO3", "Melting Point": "76 \u00b0C"}}