{"cas_no": "29214-60-6", "cn_name": "2-\u4e59\u9170\u57fa\u8f9b\u9178\u4e59\u916f", "en_name": ["Ethyl 2-acetyloctanoate", "Octanoic acid, 2-acetyl-, ethyl ester", "Ethyl 2-acetyloctanoate", "Ethyl \u03b1-hexylacetoacetate", "Ethyl 2-acetylcaprylate", "Ethyl 2-n-hexyl-2-acetoacetate", "Gelsone", "2-Acetyloctanoic acid ethyl ester"], "SMILES": "C(C(OCC)=O)(CCCCCC)C(C)=O", "physical_data": {"Molecular Weight": "214.30", "Molecular Formula": "C12H22O3", "Boiling Point": "148-149 \u00b0C @ Press: 25 Torr"}}