{"cas_no": "2921-14-4", "cn_name": "\u7fa7\u7532\u57fa\u7f9f\u80fa\u534a\u76d0\u9178\u76d0", "en_name": ["Carboxymethoxylamine hemihydrochloride", "Acetic acid, 2-(aminooxy)-, hydrochloride (2:1)", "Acetic acid, (aminooxy)-, hydrochloride (2:1)", "Acetic acid, (aminooxy)-, hemihydrochloride", "Aminooxyacetic acid hemihydrochloride", "Carboxymethoxyamine hemihydrochloride", "O-Carboxymethylhydroxylamine hemihydrochloride", "Carboxymethoxylamine hemihydrochloride", "Aminooxyacetic acid hemichloride"], "SMILES": "C(C(O)=O)ON.Cl", "physical_data": {"Molecular Weight": "", "Molecular Formula": "C2H5NO3.<sup>1</sup>/2ClH", "Melting Point": "150-151 \u00b0C (decomp)"}}