{"cas_no": "2921-20-2", "cn_name": "\u5341\u56db\u70f7\u57fa\u786b\u4ee3\u4e59\u9178", "en_name": ["Tetradecylthioacetic acid", "Acetic acid, 2-(tetradecylthio)-", "Acetic acid, (tetradecylthio)-", "2-(Tetradecylthio)acetic acid", "Tetradecylthioacetic acid", "1-Mono(carboxymethylthio)tetradecane"], "SMILES": "C(CCCCCCCCCCC)CCSCC(O)=O", "physical_data": {"Molecular Weight": "288.49", "Molecular Formula": "C16H32O2S", "Melting Point": "64-66 \u00b0C"}}