{"cas_no": "29216-28-2", "cn_name": "\u7f8e\u55b9\u4ed6\u55ea", "en_name": ["Mequitazine", "10H-Phenothiazine, 10-(1-azabicyclo[2.2.2]oct-3-ylmethyl)-", "Phenothiazine, 10-(3-quinuclidinylmethyl)-", "10-(1-Azabicyclo[2.2.2]oct-3-ylmethyl)-10H-phenothiazine", "LM 209", "Mequitazine", "Nipolazin", "Mircol", "Metaplexan", "Zesulan", "Primalan", "Butix", "NSC 303612", "Quitadrill", "10-(1-Azabicyclo[2.2.2]octan-3-ylmethyl)phenothiazine", "10-(Quinuclidin-3-ylmethyl)phenothiazine"], "SMILES": "C(N1C=2C(SC=3C1=CC=CC3)=CC=CC2)C4C5CCN(C4)CC5", "physical_data": {"Molecular Weight": "322.47", "Molecular Formula": "C20H22N2S", "Melting Point": "130.5 \u00b0C"}}