{"cas_no": "292150-20-0", "cn_name": "FMOC-ALPHA-\u8c37\u6c28\u9178\u76d0", "en_name": ["(4R)-5-Amino-4-[[(9H-fluoren-9-ylmethoxy)carbonyl]amino]-5-oxopentanoic acid", "Pentanoic acid, 5-amino-4-[[(9H-fluoren-9-ylmethoxy)carbonyl]amino]-5-oxo-, (4R)-", "(4R)-5-Amino-4-[[(9H-fluoren-9-ylmethoxy)carbonyl]amino]-5-oxopentanoic acid"], "SMILES": "C(OC(NC(CCC(O)=O)C(N)=O)=O)C1C=2C(C=3C1=CC=CC3)=CC=CC2", "physical_data": {"Molecular Weight": "368.38", "Molecular Formula": "C20H20N2O5", "Melting Point": "204.3-205.4 \u00b0C"}}