{"cas_no": "2922-41-0", "cn_name": "4-\u6c28\u57fa-DL-\u82ef\u4e19\u6c28\u9178", "en_name": ["4-Amino-DL-phenylalanine", "Phenylalanine, 4-amino-", "Alanine, 3-(p-aminophenyl)-, DL-", "DL-Phenylalanine, 4-amino-", "4-Aminophenylalanine", "DL-p-Aminophenylalanine", "DL-4-Aminophenylalanine", "4-Amino-DL-phenylalanine", "p-Amino-DL-phenylalanine", "NSC 21918", "NSC 29446", "2-Amino-3-(4-aminophenyl)propanoic acid", "2-Amino-3-(4-aminophenyl)propanoicacid"], "SMILES": "C(C(C(O)=O)N)C1=CC=C(N)C=C1", "physical_data": {"Molecular Weight": "180.20", "Molecular Formula": "C9H12N2O2", "Melting Point": "242-245 \u00b0C"}}