{"cas_no": "2922-83-0", "cn_name": "L-\u72ac\u5c3f\u6c28\u9178", "en_name": ["L-Kynurenine", "Benzenebutanoic acid, \u03b1,2-diamino-\u03b3-oxo-, (\u03b1S)-", "Alanine, 3-anthraniloyl-, L-", "Benzenebutanoic acid, \u03b1,2-diamino-\u03b3-oxo-, (S)-", "(\u03b1S)-\u03b1,2-Diamino-\u03b3-oxobenzenebutanoic acid", "L-Kynurenine", "L-3-(o-Aminobenzoyl)alanine", "Kynurenine", "Kynurenin", "3-Anthraniloylalanine", "(2S)-4-(2-Aminophenyl)-2-azaniumyl-4-oxobutanoate", "Benzenebutanoic acid, \u03b1,2-diamino-\u03b3-oxo-"], "SMILES": "C(CC(C(O)=O)N)(=O)C1=C(N)C=CC=C1", "physical_data": {"Molecular Weight": "208.21", "Molecular Formula": "C10H12N2O3", "Melting Point": "219 \u00b0C (decomp)"}}