{"cas_no": "2922-40-9", "cn_name": "4-\u785d\u57fa-DL-\u82ef\u4e19\u6c28\u9178", "en_name": ["4-Nitro-DL-phenylalanine", "Phenylalanine, 4-nitro-", "Alanine, 3-(p-nitrophenyl)-, DL-", "DL-Phenylalanine, 4-nitro-", "4-Nitrophenylalanine", "DL-p-Nitrophenylalanine", "DL-4-Nitrophenylalanine", "4-Nitro-DL-phenylalanine", "NSC 14786", "NSC 148865", "\u03b1-Amino-4-nitrobenzenepropanoic acid", "2-Amino-3-(4-nitrophenyl)propanoic acid"], "SMILES": "C(C(C(O)=O)N)C1=CC=C(N(=O)=O)C=C1", "physical_data": {"Molecular Weight": "210.19", "Molecular Formula": "C9H10N2O4", "Melting Point": "233-236 \u00b0C"}}