{"cas_no": "2922-42-1", "cn_name": "(-)-3-\u8131\u6c22\u8349\u9178", "en_name": ["(-)-3-Dehydroshikimic acid", "1-Cyclohexene-1-carboxylic acid, 4,5-dihydroxy-3-oxo-, (4S,5R)-", "1-Cyclohexene-1-carboxylic acid, 4,5-dihydroxy-3-oxo-, (4S-trans)-", "1-Cyclohexene-1-carboxylic acid, 4,5-dihydroxy-3-oxo-, trans-", "(4S,5R)-4,5-Dihydroxy-3-oxo-1-cyclohexene-1-carboxylic acid", "5-Dehydroshikimic acid", "3-Dehydroshikimic acid", "DHS", "(-)-3-Dehydroshikimic acid"], "SMILES": "C(O)(=O)C=1CC(O)C(O)C(=O)C1", "physical_data": {"Molecular Weight": "172.14", "Molecular Formula": "C7H8O5", "Melting Point": "150-152 \u00b0C"}}