{"cas_no": "2922-51-2", "cn_name": "\u5341\u4e03\u70f7\u916e", "en_name": ["2-Heptadecanone", "2-Heptadecanone", "Pentadecyl methyl ketone", "Methyl pentadecyl ketone"], "SMILES": "C(CCCCCCCCCC)CCCCC(C)=O", "physical_data": {"Molecular Weight": "254.45", "Molecular Formula": "C17H34O", "Boiling Point": "320 \u00b0C", "Melting Point": "48 \u00b0C"}}