{"cas_no": "2923-66-2", "cn_name": "3-\u6c2f-4-\u6c1f\u82ef\u4e59\u916e", "en_name": ["1-(3-Chloro-4-fluorophenyl)ethanone", "Ethanone, 1-(3-chloro-4-fluorophenyl)-", "Acetophenone, 3\u2032-chloro-4\u2032-fluoro-", "1-(3-Chloro-4-fluorophenyl)ethanone", "3-Chloro-4-fluoroacetophenone", "3\u2032-Chloro-4\u2032-fluoroacetophenone", "3-Chloro-4-fluorophenyl methyl ketone", "1-(3-Chloro-4-fluorophenyl)ethan-1-one"], "SMILES": "C(C)(=O)C1=CC(Cl)=C(F)C=C1", "physical_data": {"Molecular Weight": "172.58", "Molecular Formula": "C8H6ClFO", "Melting Point": "41-42 \u00b0C"}}