{"cas_no": "2923-96-8", "cn_name": "4-\u6c1f-2-\u785d\u57fa\u82ef\u7532\u919b", "en_name": ["4-Fluoro-2-nitrobenzaldehyde", "Benzaldehyde, 4-fluoro-2-nitro-", "4-Fluoro-2-nitrobenzaldehyde", "NSC 96890", "2-Nitro-4-fluorobenzaldehyde"], "SMILES": "N(=O)(=O)C1=C(C=O)C=CC(F)=C1", "physical_data": {"Molecular Weight": "169.11", "Molecular Formula": "C7H4FNO3", "Melting Point": "32-33 \u00b0C"}}