{"cas_no": "29232-93-7", "cn_name": "\u7532\u57fa\u5627\u5576\u78f7", "en_name": ["Pirimiphos methyl", "Phosphorothioic acid, O-[2-(diethylamino)-6-methyl-4-pyrimidinyl] O,O-dimethyl ester", "4-Pyrimidinol, 2-(diethylamino)-6-methyl-, O-ester with O,O-dimethyl phosphorothioate", "Plant Protection PP 511", "Actellic", "Pirimiphos methyl", "PP 511", "Methylpirimiphos", "2-Diethylamino-6-methylpyrimidin-4-yl dimethyl phosphorothionate", "Methyl pyrimiphos", "O-[2-(Diethylamino)-6-methyl-4-pyrimidinyl] O,O-dimethyl phosphorothioate", "ENT 27699Gc", "Pirimiphos Me", "Pyrimidine phosphate", "2-Diethylamino-6-methylpyrimidine-4-yl dimethyl phosphorothionate", "Pyrimiphos methyl", "Blex", "Silosan", "Actellic 50", "VUCHT 388", "Tomahawk", "Orafon", "Methylpyrimifos", "Actellic 25EC", "Piritione", "Dominator", "Rotator", "Actellic 50E", "Actellic Polvo", "Actellic Powder", "Pirimiphos M", "Actellic 50EC"], "SMILES": "O(P(OC)(OC)=S)C1=NC(N(CC)CC)=NC(C)=C1", "physical_data": {"Molecular Weight": "305.33", "Molecular Formula": "C11H20N3O3PS", "Melting Point": "15 \u00b0C", "Density": "1.17 g/cm\u00b3 @ Temp: 20 \u00b0C"}}