{"cas_no": "2923-17-3", "cn_name": "\u4e09\u6c1f\u918b\u9178\u92f0", "en_name": ["Lithium trifluoroacetate", "Acetic acid, 2,2,2-trifluoro-, lithium salt (1:1)", "Acetic acid, trifluoro-, lithium salt", "Lithium trifluoroacetate", "Lithium carbide fluoride oxide (LiC2F3O2)"], "SMILES": "C(C(O)=O)(F)(F)F.[Li]", "physical_data": {"Molecular Weight": "", "Molecular Formula": "C2HF3O2.Li", "Melting Point": "250 \u00b0C", "Density": "1.743 g/cm\u00b3"}}