{"cas_no": "2923-18-4", "cn_name": "\u4e09\u6c1f\u4e59\u9178\u94a0", "en_name": ["Sodium trifluoroacetate", "Acetic acid, 2,2,2-trifluoro-, sodium salt (1:1)", "Acetic acid, trifluoro-, sodium salt", "Sodium trifluoroacetate", "Trifluoroacetic acid, sodium salt", "Trifluoroacetate sodium", "Sodium perfluoroacetate", "Sodium trifluoromethanecarboxylate", "Sodium 2,2,2-trifluoroacetate"], "SMILES": "C(C(O)=O)(F)(F)F.[Na]", "physical_data": {"Molecular Weight": "", "Molecular Formula": "C2HF3O2.Na", "Melting Point": "207 \u00b0C (decomp)", "Density": "1.907 g/cm\u00b3"}}