{"cas_no": "2923-28-6", "cn_name": "\u4e09\u6c1f\u7532\u70f7\u78fa\u9178\u94f6", "en_name": ["Silver triflate", "Methanesulfonic acid, 1,1,1-trifluoro-, silver(1+) salt (1:1)", "Methanesulfonic acid, trifluoro-, silver(1+) salt", "Trifluoromethanesulfonic acid silver(1+) salt", "Silver triflate", "Silver (trifluoromethyl)sulfonate", "Silver(I) trifluoromethanesulfonate", "Silver trifluoromethanesulfonate", "Silver(1+) trifluoromethanesulfonate", "Silver trifluoromethanesulphonate", "Silver(I) triflate", "Silver(1+) triflate", "Silver trifluoromethanesulfonate (AgO3SCF3)", "Silver trifluoromethanesulfonate (AgCF3SO3)"], "SMILES": "C(S(=O)(=O)O)(F)(F)F.[Ag]", "physical_data": {"Molecular Weight": "", "Molecular Formula": "CHF3O3S.Ag", "Melting Point": "286 \u00b0C"}}