{"cas_no": "2923-16-2", "cn_name": "\u4e09\u6c1f\u4e59\u9178\u94be", "en_name": ["Acetic acid, 2,2,2-trifluoro-, potassium salt (1:1)", "Acetic acid, 2,2,2-trifluoro-, potassium salt (1:1)", "Acetic acid, trifluoro-, potassium salt", "Potassium trifluoroacetate"], "SMILES": "C(C(O)=O)(F)(F)F.[K]", "physical_data": {"Molecular Weight": "", "Molecular Formula": "C2HF3O2.K", "Melting Point": "143-145 \u00b0C", "Density": "2.433 g/cm\u00b3"}}