{"cas_no": "2924-09-6", "cn_name": "5-\u6eb4-2-\u6c1f\u82ef\u80fa", "en_name": ["5-Bromo-2-fluorobenzenamine", "Benzenamine, 5-bromo-2-fluoro-", "5-Bromo-2-fluorobenzenamine", "5-Bromo-2-fluoroaniline", "(5-Bromo-2-fluorophenyl)amine", "2-Fluoro-5-bromoaniline"], "SMILES": "NC1=C(F)C=CC(Br)=C1", "physical_data": {"Molecular Weight": "190.01", "Molecular Formula": "C6H5BrFN", "Boiling Point": "91-92 \u00b0C @ Press: 9 Torr"}}