{"cas_no": "2924-15-4", "cn_name": "2-\u6c1f\u82ef\u80bc\u76d0\u9178\u76d0", "en_name": ["Hydrazine, (2-fluorophenyl)-, hydrochloride (1:1)", "Hydrazine, (2-fluorophenyl)-, hydrochloride (1:1)", "Hydrazine, (o-fluorophenyl)-, monohydrochloride", "Hydrazine, (2-fluorophenyl)-, monohydrochloride"], "SMILES": "N(N)C1=C(F)C=CC=C1.Cl", "physical_data": {"Molecular Weight": "", "Molecular Formula": "C6H7FN2.ClH", "Melting Point": "186 \u00b0C (decomp)"}}