{"cas_no": "2924-16-5", "cn_name": "3-\u6c1f\u82ef\u80bc\u76d0\u9178", "en_name": ["3-Fluorophenylhydrazine hydrochloride", "Hydrazine, (3-fluorophenyl)-, hydrochloride (1:1)", "Hydrazine, (m-fluorophenyl)-, hydrochloride", "Hydrazine, (3-fluorophenyl)-, monohydrochloride", "3-Fluorophenylhydrazine hydrochloride", "m-Fluorophenylhydrazine hydrochloride", "2-(3-Fluorophenyl)hydrazinium chloride"], "SMILES": "N(N)C1=CC(F)=CC=C1.Cl", "physical_data": {"Molecular Weight": "", "Molecular Formula": "C6H7FN2.ClH", "Melting Point": "247 \u00b0C (decomp)"}}