{"cas_no": "29263-94-3", "cn_name": "2-\u6eb4-2-\u7532\u57fa\u4e19\u4e8c\u9178\u4e8c\u4e59\u916f", "en_name": ["1,3-Diethyl 2-bromo-2-methylpropanedioate", "Propanedioic acid, 2-bromo-2-methyl-, 1,3-diethyl ester", "Malonic acid, bromomethyl-, diethyl ester", "Propanedioic acid, bromomethyl-, diethyl ester", "1,3-Diethyl 2-bromo-2-methylpropanedioate", "Diethyl 2-bromo-2-methylmalonate", "Diethyl bromomethylmalonate", "Diethyl methylbromomalonate", "Diethyl \u03b1-bromo-\u03b1-methylmalonate", "NSC 10117", "2-Bromo-2-methylmalonic acid diethyl ester", "2-Bromo-2-methyl-propanedioic acid 1,3-diethyl ester"], "SMILES": "C(C(OCC)=O)(C(OCC)=O)(Br)C", "physical_data": {"Molecular Weight": "253.09", "Molecular Formula": "C8H13BrO4", "Boiling Point": "122 \u00b0C @ Press: 13 Torr", "Density": "1.3500 g/cm\u00b3 @ Temp: 20 \u00b0C"}}