{"cas_no": "29267-67-2", "cn_name": "2-\u7532\u6c27\u57fa\u96f7\u9501\u915a", "en_name": ["2-Methoxyresorcinol", "1,3-Benzenediol, 2-methoxy-", "Resorcinol, 2-methoxy-", "2-Methoxy-1,3-benzenediol", "1,3-Dihydroxy-2-methoxybenzene", "2-O-Methylpyrogallol", "2-Methoxyresorcinol", "Pyrogallol-2-methyl ether", "2,6-Dihydroxyanisole"], "SMILES": "O(C)C1=C(O)C=CC=C1O", "physical_data": {"Molecular Weight": "140.14", "Molecular Formula": "C7H8O3", "Boiling Point": "146.0-147.5 \u00b0C @ Press: 17 Torr", "Melting Point": "89-90 \u00b0C"}}