{"cas_no": "2926-27-4", "cn_name": "\u4e09\u6c1f\u7532\u78fa\u9178\u94be", "en_name": ["Potassium trifluoromethanesulfonate", "Methanesulfonic acid, 1,1,1-trifluoro-, potassium salt (1:1)", "Methanesulfonic acid, trifluoro-, potassium salt", "Potassium trifluoromethanesulfonate", "Potassium trifluoromethylsulfonate", "Potassium triflate", "Trifluoromethanesulfonic acid potassium salt", "Eftop EF 12", "EF 12"], "SMILES": "C(S(=O)(=O)O)(F)(F)F.[K]", "physical_data": {"Molecular Weight": "", "Molecular Formula": "CHF3O3S.K", "Melting Point": "230 \u00b0C"}}