{"cas_no": "29274-23-5", "cn_name": "\u5421\u5511\u5e76[1,5-A]\u5627\u5576-7(4H)-\u916e", "en_name": ["Pyrazolo[1,5-a]pyrimidin-7(4H)-one", "Pyrazolo[1,5-a]pyrimidin-7(4H)-one", "Pyrazolo[1,5-a]pyrimidin-7-one"], "SMILES": "O=C1N2C(NC=C1)=CC=N2", "physical_data": {"Molecular Weight": "135.12", "Molecular Formula": "C6H5N3O", "Melting Point": "340 \u00b0C"}}