{"cas_no": "2927-71-1", "cn_name": "2,4-\u4e8c\u6c2f-5-\u6c1f\u5627\u5576", "en_name": ["2,4-Dichloro-5-fluoropyrimidine", "Pyrimidine, 2,4-dichloro-5-fluoro-", "2,4-Dichloro-5-fluoropyrimidine", "NSC 70442", "5-Fluoro-2,4-dichloropyrimidine", "2,6-Dichloro-5-fluoropyrimidine"], "SMILES": "ClC=1C(F)=CN=C(Cl)N1", "physical_data": {"Molecular Weight": "166.97", "Molecular Formula": "C4HCl2FN2", "Boiling Point": "74-80 \u00b0C @ Press: 16 Torr", "Melting Point": "38-39 \u00b0C"}}