{"cas_no": "2928-43-0", "cn_name": "2-\u8054\u82ef\u57fa\u7532\u9187", "en_name": ["[1,1\u2032-Biphenyl]-2-methanol", "[1,1\u2032-Biphenyl]-2-methanol", "2-Biphenylmethanol", "2-(Hydroxymethyl)biphenyl", "2-Phenylbenzyl alcohol", "1-Hydroxymethyl-2-phenylbenzene", "(Biphenyl-2-yl)methyl alcohol", "NSC 97773", "Biphenyl-2-ylmethanol", "2-Hydroxymethyl-1,1\u2032-biphenyl", "o-Phenylbenzyl alcohol", "(2-Phenylphenyl)methan-1-ol", "[1,1\u2032-Biphenyl]-2-ylmethanol"], "SMILES": "C(O)C1=C(C=CC=C1)C2=CC=CC=C2", "physical_data": {"Molecular Weight": "184.23", "Molecular Formula": "C13H12O", "Boiling Point": "174 \u00b0C @ Press: 12 Torr", "Melting Point": "50-51 \u00b0C"}}