{"cas_no": "29289-13-2", "cn_name": "3-\u7898-4-\u7532\u57fa\u82ef\u80fa", "en_name": ["2-Iodo-4-methylaniline", "Benzenamine, 2-iodo-4-methyl-", "p-Toluidine, 2-iodo-", "2-Iodo-4-methylbenzenamine", "2-Iodo-4-methylaniline", "2-Amino-5-methylphenyl iodide"], "SMILES": "IC1=C(N)C=CC(C)=C1", "physical_data": {"Molecular Weight": "233.05", "Molecular Formula": "C7H8IN", "Boiling Point": "116-118 \u00b0C @ Press: 0.8 Torr", "Melting Point": "37 \u00b0C"}}