{"cas_no": "2929-52-4", "cn_name": "\u4e09\u6b63\u5df1\u7845\u70f7", "en_name": ["Trihexylsilane", "Silane, trihexyl-", "Trihexylsilane", "Tri-n-hexylsilane", "NSC 139856"], "SMILES": "[SiH](CCCCCC)(CCCCCC)CCCCCC", "physical_data": {"Molecular Weight": "284.60", "Molecular Formula": "C18H40Si", "Boiling Point": "160-161 \u00b0C @ Press: 5 Torr", "Density": "0.799 g/cm\u00b3"}}