{"cas_no": "293-96-9", "cn_name": "\u73af\u7678\u70f7", "en_name": ["Cyclodecane", "Cyclodecane"], "SMILES": "C1CCCCCCCCC1", "physical_data": {"Molecular Weight": "140.27", "Molecular Formula": "C10H20", "Boiling Point": "202 \u00b0C", "Melting Point": "10 \u00b0C", "Density": "0.8577 g/cm\u00b3 @ Temp: 20.4 \u00b0C"}}