{"cas_no": "2930-05-4", "cn_name": "\u82c4\u57fa\u7f29\u6c34\u7518\u6cb9\u919a", "en_name": ["Benzyl glycidyl ether", "Oxirane, 2-[(phenylmethoxy)methyl]-", "Propane, 1-(benzyloxy)-2,3-epoxy-", "Oxirane, [(phenylmethoxy)methyl]-", "2-[(Phenylmethoxy)methyl]oxirane", "Benzyl glycidyl ether", "(Benzyloxymethyl)oxirane", "3-(Benzyloxy)-1,2-epoxypropane", "1-(Benzyloxy)-2,3-epoxypropane", "2-(Benzyloxymethyl)oxirane", "Glycidol benzyl ether", "Glycidyl benzyl ether", "[(Phenylmethoxy)methyl]oxirane", "(\u00b1)-O-Benzylglycidol", "JX 011", "XY 692", "2-[[(Benzyloxy)methyl]oxy]oxirane", "Diluent 692", "NXA 692", "LS 692", "Xinyuan 692", "YS 692"], "SMILES": "C(OCC1=CC=CC=C1)C2CO2", "physical_data": {"Molecular Weight": "164.20", "Molecular Formula": "C10H12O2", "Boiling Point": "78-80 \u00b0C @ Press: 10 Torr", "Melting Point": "89.5-90.1 \u00b0C", "Density": "1.0960 g/cm\u00b3 @ Temp: 20 \u00b0C"}}