{"cas_no": "29307-03-7", "cn_name": "\u53bb\u6c27\u5730\u80c6\u8349\u7d20", "en_name": ["Deoxyelephantopin", "2-Propenoic acid, 2-methyl-, (3aR,4S,9R,11E,12aR)-2,3,3a,4,5,9,10,12a-octahydro-11-methyl-3-methylene-2,7-dioxo-7H-9,6-methenofuro[2,3-f]oxacycloundecin-4-yl ester", "Germacra-1(10),4,11(13)-triene-12,14-dioic acid, 2\u03b2,6\u03b1,8\u03b1-trihydroxy-, 12,6:14,2-dilactone, methacrylate, (E)-", "2-Propenoic acid, 2-methyl-, 2,3,3a,4,5,9,10,12a-octahydro-11-methyl-3-methylene-2,7-dioxo-7H-9,6-methenofuro[2,3-f]oxacycloundecin-4-yl ester, [3aR-(3aR*,4S*,9R*,11E,12aR*)]-", "Methacrylic acid, 8-ester with 2\u03b2,6\u03b1,8\u03b1-trihydroxygermacra-1(10),4,11(13)-triene-12,14-dioic acid di-\u03b3-lactone, (E)-", "7H-9,6-Methenofuro[2,3-f]oxacycloundecin, 2-propenoic acid deriv.", "Elephantopin, deoxy-", "Deoxyelephantopin", "NSC 259726", "11-Methyl-3-methylene-2,7-dioxo-3,3a,4,5,7,9,10,12a-octahydro-2H-6,9-(metheno)furo[2,3-f][1]oxacycloundecin-4-yl methacrylate"], "SMILES": "O(C(C(C)=C)=O)C1C2C(OC(=O)C2=C)C=C(C)CC3C=C(C1)C(=O)O3", "physical_data": {"Molecular Weight": "344.36", "Molecular Formula": "C19H20O6", "Melting Point": "198-200 \u00b0C"}}