{"cas_no": "2932-65-2", "cn_name": "\u5bf9\u4e19\u57fa\u82ef\u4e59\u916e", "en_name": ["1-(4-Propylphenyl)ethanone", "Ethanone, 1-(4-propylphenyl)-", "Acetophenone, 4\u2032-propyl-", "1-(4-Propylphenyl)ethanone", "p-n-Propylacetophenone", "p-Propylacetophenone", "4\u2032-Propylacetophenone", "1-Acetyl-4-propylbenzene", "Methyl 4-propylphenyl ketone", "NSC 172873", "1-(4-Propylphenyl)ethan-1-one"], "SMILES": "C(C)(=O)C1=CC=C(CCC)C=C1", "physical_data": {"Molecular Weight": "162.23", "Molecular Formula": "C11H14O", "Boiling Point": "115 \u00b0C @ Press: 5 Torr", "Density": "0.980 g/cm\u00b3 @ Temp: 20 \u00b0C"}}