{"cas_no": "29338-49-6", "cn_name": "1,1-\u4e8c\u82ef\u57fa-2-\u4e19\u9187", "en_name": ["\u03b1-Methyl-\u03b2-phenylbenzeneethanol", "Benzeneethanol, \u03b1-methyl-\u03b2-phenyl-", "2-Propanol, 1,1-diphenyl-", "\u03b1-Methyl-\u03b2-phenylbenzeneethanol", "1,1-Diphenyl-2-propanol", "Benzhydryl methyl carbinol", "2-Hydroxy-1,1-diphenylpropane", "NSC 244476"], "SMILES": "C(C(C)O)(C1=CC=CC=C1)C2=CC=CC=C2", "physical_data": {"Molecular Weight": "212.29", "Molecular Formula": "C15H16O", "Melting Point": "62 \u00b0C"}}