{"cas_no": "29334-66-5", "cn_name": "3-\u6c2f-6-(1H-\u5421\u5511-1-\u57fa)\u54d2\u55ea", "en_name": ["3-Chloro-6-(1H-pyrazol-1-yl)pyridazine", "Pyridazine, 3-chloro-6-(1H-pyrazol-1-yl)-", "Pyridazine, 3-chloro-6-pyrazol-1-yl-", "3-Chloro-6-(1H-pyrazol-1-yl)pyridazine", "3-Chloro-6-(1-pyrazolyl)pyridazine"], "SMILES": "ClC1=CC=C(N=N1)N2C=CC=N2", "physical_data": {"Molecular Weight": "180.59", "Molecular Formula": "C7H5ClN4", "Melting Point": "143-144 \u00b0C"}}