{"cas_no": "29334-67-6", "cn_name": "3-\u6c2f-6-(3,5-\u4e8c\u7532\u57fa-1H-\u5421\u5511-1-\u57fa)\u54d2\u55ea", "en_name": ["3-Chloro-6-(3,5-dimethylpyrazol-1-yl)pyridazine", "Pyridazine, 3-chloro-6-(3,5-dimethyl-1H-pyrazol-1-yl)-", "Pyridazine, 3-chloro-6-(3,5-dimethylpyrazol-1-yl)-", "3-Chloro-6-(3,5-dimethyl-1H-pyrazol-1-yl)pyridazine", "3-(3,5-Dimethylpyrazol-1-yl)-6-chloropyridazine", "3-Chloro-6-(3,5-dimethylpyrazol-1-yl)pyridazine", "NSC 270405"], "SMILES": "CC=1N(N=C(C)C1)C2=CC=C(Cl)N=N2", "physical_data": {"Molecular Weight": "208.65", "Molecular Formula": "C9H9ClN4", "Melting Point": "115 \u00b0C"}}