{"cas_no": "29334-16-5", "cn_name": "4-\u82c4\u6c27\u57fa\u82ef\u7532\u9178", "en_name": ["4-Bromo-\u03b1-phenylbenzenemethanol", "Benzenemethanol, 4-bromo-\u03b1-phenyl-", "Benzhydrol, 4-bromo-", "Benzohydrol, 4-bromo-", "4-Bromo-\u03b1-phenylbenzenemethanol", "4-Bromobenzhydrol", "p-Bromobenzhydrol", "\u03b1-(4-Bromophenyl)benzenemethanol", "(4-Bromophenyl)phenylmethanol", "4-(1-Hydroxybenzyl)bromobenzene", "NSC 89817", "(\u00b1)-(4-Bromophenyl)phenylmethanol", "\u03b1-Phenyl-p-bromobenzyl alcohol", "(p-Bromophenyl)-\u03b1-phenylmethanol"], "SMILES": "C(O)(C1=CC=C(Br)C=C1)C2=CC=CC=C2", "physical_data": {"Molecular Weight": "263.13", "Molecular Formula": "C13H11BrO", "Melting Point": "65 \u00b0C"}}