{"cas_no": "2933-29-1", "cn_name": "4,5,6,7-\u56db\u6c22\u82ef\u5e76\u567b\u5511-2-\u80fa", "en_name": ["4,5,6,7-Tetrahydro-2-benzothiazolamine", "2-Benzothiazolamine, 4,5,6,7-tetrahydro-", "Benzothiazole, 2-amino-4,5,6,7-tetrahydro-", "4,5,6,7-Tetrahydro-2-benzothiazolamine", "2-Amino-4,5-tetramethylenethiazole", "2-Amino-4,5,6,7-tetrahydrobenzothiazole", "4,5,6,7-Tetrahydrobenzothiazol-2-amine", "4,5,6,7-Tetrahydro-1,3-benzothiazol-2-amine", "NSC 45351", "(4,5,6,7-Tetrahydrobenzothiazol-2-yl)amine", "4,5,6,7-Tetrahydrobenzo[d]thiazol-2-amine", "(4,5,6,7-Tetrahydro-1,3-benzothiazol-2-yl)amine", "5,6,7,8-Tetrahydrobenzothiazole-2-amine", "4,5,6,7-Tetrahydro-1,3-benzothiazole-2-amine"], "SMILES": "NC1=NC2=C(S1)CCCC2", "physical_data": {"Molecular Weight": "154.23", "Molecular Formula": "C7H10N2S", "Boiling Point": "100 \u00b0C @ Press: 1 x 10<sup>-3</sup> Torr", "Melting Point": "87-88 \u00b0C"}}