{"cas_no": "29331-92-8", "cn_name": "10,11-\u4e8c\u6c22-10-\u7f9f\u57fa\u5361\u9a6c\u897f\u5e73", "en_name": ["Licarbazepine", "5H-Dibenz[b,f]azepine-5-carboxamide, 10,11-dihydro-10-hydroxy-", "10,11-Dihydro-10-hydroxy-5H-dibenz[b,f]azepine-5-carboxamide", "GP 47779", "10,11-Dihydro-10-hydroxycarbamazepine", "10-Hydroxy-10,11-dihydrocarbamazepine", "10-Hydroxy-10,11-dihydrocarbamezepine", "Licarbazepine", "BIA 2-005", "10,11-Dihydro-10-hydroxy-5H-dibenzo[b,f]azepine-5-carboxamide", "10-Hydroxy-10,11-dihydro-5H-dibenzo[b,f]azepine-5-carboxamide"], "SMILES": "C(N)(=O)N1C=2C(C(O)CC=3C1=CC=CC3)=CC=CC2", "physical_data": {"Molecular Weight": "254.28", "Molecular Formula": "C15H14N2O2", "Melting Point": "185-188 \u00b0C"}}