{"cas_no": "29342-05-0", "cn_name": "\u73af\u5421\u916e\u80fa", "en_name": ["Ciclopirox", "2(1H)-Pyridinone, 6-cyclohexyl-1-hydroxy-4-methyl-", "2(1H)-Pyridone, 6-cyclohexyl-1-hydroxy-4-methyl-", "6-Cyclohexyl-1-hydroxy-4-methyl-2(1H)-pyridinone", "Ciclopirox", "HOE 296b", "Penlac", "1-Hydroxy-4-methyl-6-cyclohexyl-2-pyridinone", "Ciclopoli"], "SMILES": "ON1C(=CC(C)=CC1=O)C2CCCCC2", "physical_data": {"Molecular Weight": "207.27", "Molecular Formula": "C12H17NO2", "Melting Point": "144 \u00b0C"}}