{"cas_no": "2934-05-6", "cn_name": "2,4-\u4e8c\u5f02\u4e19\u57fa\u82ef\u915a", "en_name": ["2,4-Diisopropylphenol", "Phenol, 2,4-bis(1-methylethyl)-", "Phenol, 2,4-diisopropyl-", "2,4-Bis(1-methylethyl)phenol", "2,4-Diisopropylphenol", "2,4-Di(propan-2-yl)phenol", "2,4-Bis(propan-2-yl)phenol"], "SMILES": "C(C)(C)C1=CC(C(C)C)=CC=C1O", "physical_data": {"Molecular Weight": "178.27", "Molecular Formula": "C12H18O", "Boiling Point": "228-230 \u00b0C", "Density": "0.9825 g/cm\u00b3 @ Temp: 25 \u00b0C"}}