{"cas_no": "29343-52-0", "cn_name": "4-hydroxy-2-nonenal", "en_name": ["4-Hydroxynonenal", "2-Nonenal, 4-hydroxy-, (2E)-", "(2E)-4-Hydroxy-2-nonenal", "4-Hydroxynonenal", "(E)-4-Hydroxy-2-nonenal", "4-Hydroxy-2(E)-nonenal", "4-Hydroxy-2-trans-nonenal", "4-Hydroxy-2-(E)-nonenal", "4-Hydroxy-2-nonenal", "Nonenal, 4-hydroxy-"], "SMILES": "C(C(C=CC=O)O)CCCC", "physical_data": {"Molecular Weight": "156.22", "Molecular Formula": "C9H16O2", "Boiling Point": "125-127 \u00b0C @ Press: 2 Torr"}}