{"cas_no": "2935-32-2", "cn_name": "OLEAN-12-ENE-3,11-DIONE", "en_name": ["Olean-12-ene-3,11-dione", "Olean-12-ene-3,11-dione", "3,11-Dioxoolean-12-ene", "3,11-Dioxo-\u03b2-amyrene", "12-Oleanen-3,11-dione"], "SMILES": "CC12C3(C)C(C4C(C)(CC3)CCC(C)(C)C4)=CC(=O)C1C5(C)C(CC2)C(C)(C)C(=O)CC5", "physical_data": {"Molecular Weight": "438.68", "Molecular Formula": "C30H46O2", "Melting Point": "228-231 \u00b0C"}}