{"cas_no": "2935-44-6", "cn_name": "2,5-\u5df1\u4e8c\u9187", "en_name": ["2,5-Hexanediol", "2,5-Hexanediol", "Diisopropanol", "2,5-Dihydroxyhexane", "NSC 3699"], "SMILES": "C(CC(C)O)C(C)O", "physical_data": {"Molecular Weight": "118.17", "Molecular Formula": "C6H14O2", "Boiling Point": "216 \u00b0C", "Melting Point": "-9 \u00b0C", "Density": "0.97 g/cm\u00b3"}}