{"cas_no": "2935-35-5", "cn_name": "L-\u82ef\u7518\u6c28\u9178", "en_name": ["L-Phenylglycine", "Benzeneacetic acid, \u03b1-amino-, (\u03b1S)-", "Glycine, 2-phenyl-, L-", "Benzeneacetic acid, \u03b1-amino-, (S)-", "(\u03b1S)-\u03b1-Aminobenzeneacetic acid", "L-Phenylglycine", "L-2-Phenylglycine", "L-(+)-2-Phenylglycine", "L-\u03b1-Phenylglycine", "L-(+)-\u03b1-Aminophenylacetic acid", "(S)-Phenylglycine", "(S)-\u03b1-Aminobenzeneacetic acid", "L-(+)-Phenylglycine", "(S)-(+)-Phenylglycine", "(+)-Phenylglycine", "L-\u03b1-Aminophenylacetic acid", "(S)-(+)-2-Phenylglycine", "S-(+)-\u03b1-Phenylglycine", "(S)-Amino(phenyl)acetic acid", "NSC 206293", "(S)-2-Amino-2-(phenyl)ethanoic acid", "L(+)-\u03b1-Phenylglycine", "(S)-2-Amino-2-(phenyl)acetic acid", "(2S)-2-Azaniumyl-2-phenylacetate", "(2S)-2-Amino-2-phenylacetic acid"], "SMILES": "C(C(O)=O)(N)C1=CC=CC=C1", "physical_data": {"Molecular Weight": "151.16", "Molecular Formula": "C8H9NO2", "Melting Point": "225-228 \u00b0C"}}