{"cas_no": "2935-90-2", "cn_name": "3-\u5def\u57fa\u4e19\u9178\u7532\u916f", "en_name": ["Methyl 3-mercaptopropionate", "Propanoic acid, 3-mercapto-, methyl ester", "Propionic acid, 3-mercapto-, methyl ester", "Methyl 3-mercaptopropionate", "Methyl \u03b2-mercaptopropionate", "3-Mercaptopropionic acid methyl ester", "Methyl 3-mercaptopropanoate", "3-Mercaptopropanoic acid methyl ester", "NSC 137814", "3-Thiopropanoic acid methyl ester", "\u03b2-Mercaptopropionic acid methyl ester", "MPM (thiol)", "MPM", "Methyl 3-mercaptopropionoate", "3-Mercatopropropanoic acid methyl ester", "Methyl 3-sulfanylpropanoate", "3-Sulfanylpropionic acid methyl ester"], "SMILES": "C(CCS)(OC)=O", "physical_data": {"Molecular Weight": "120.17", "Molecular Formula": "C4H8O2S", "Boiling Point": "166 \u00b0C", "Melting Point": "38 \u00b0C"}}