{"cas_no": "2935-63-9", "cn_name": "(2,3-\u4e8c\u7532\u57fa\u82ef\u6c27\u57fa)\u4e59\u9178", "en_name": ["2-(2,3-Dimethylphenoxy)acetic acid", "Acetic acid, 2-(2,3-dimethylphenoxy)-", "Acetic acid, (2,3-xylyloxy)-", "Acetic acid, (2,3-dimethylphenoxy)-", "2-(2,3-Dimethylphenoxy)acetic acid", "(2,3-Dimethylphenoxy)acetic acid", "NSC 62095"], "SMILES": "O(CC(O)=O)C1=C(C)C(C)=CC=C1", "physical_data": {"Molecular Weight": "180.20", "Molecular Formula": "C10H12O3", "Melting Point": "116-118 \u00b0C"}}