{"cas_no": "2936-08-5", "cn_name": "2,2-\u4e8c-\u6b63\u4e19\u57fa\u4e59\u9170\u57fa\u6c2f", "en_name": ["2-Propylpentanoyl chloride", "Pentanoyl chloride, 2-propyl-", "Valeryl chloride, 2-propyl-", "2-Propylpentanoyl chloride", "2-Propylvaleryl chloride", "4-(Chloroacetyl)heptane", "Dipropylacetyl chloride", "Valproic acid chloride", "Valproyl chloride", "2-n-Propyl-n-valeroyl chloride", "2,2-Di-n-propylacetyl chloride", "2,2-Dipropylacetyl chloride"], "SMILES": "C(CCC)(CCC)C(Cl)=O", "physical_data": {"Molecular Weight": "162.66", "Molecular Formula": "C8H15ClO", "Boiling Point": "70-72 \u00b0C @ Press: 11 Torr"}}