{"cas_no": "2936-63-2", "cn_name": "ALPHA-(1-\u8418\u57fa)\u82c4\u80fa", "en_name": ["\u03b1-Phenyl-1-naphthalenemethanamine", "1-Naphthalenemethanamine, \u03b1-phenyl-", "1-Naphthalenemethylamine, \u03b1-phenyl-", "\u03b1-Phenyl-1-naphthalenemethanamine", "(Naphthalen-1-yl)(phenyl)methanamine"], "SMILES": "C(N)(C=1C2=C(C=CC1)C=CC=C2)C3=CC=CC=C3", "physical_data": {"Molecular Weight": "233.31", "Molecular Formula": "C17H15N", "Melting Point": "56-59 \u00b0C"}}