{"cas_no": "293754-55-9", "cn_name": "N-(2,2,2-\u4e09\u6c1f\u4e59\u57fa)-N-[4-[2,2,2-\u4e09\u6c1f-1-\u7f9f\u57fa-1-(\u4e09\u6c1f\u7532\u57fa)\u4e59\u57fa]\u82ef\u57fa]\u82ef\u78fa\u9170\u80fa", "en_name": ["N-(2,2,2-Trifluoroethyl)-N-[4-[2,2,2-trifluoro-1-hydroxy-1-(trifluoromethyl)ethyl]phenyl]-benzenesulfonamide", "Benzenesulfonamide, N-(2,2,2-trifluoroethyl)-N-[4-[2,2,2-trifluoro-1-hydroxy-1-(trifluoromethyl)ethyl]phenyl]-", "N-(2,2,2-Trifluoroethyl)-N-[4-[2,2,2-trifluoro-1-hydroxy-1-(trifluoromethyl)ethyl]phenyl]benzenesulfonamide", "TO 901317", "TO 90317", "T 1317", "N-(2,2,2-Trifluoroethyl)-N-[4-[2,2,2-trifluoro-1-hydroxy-1-(trifluoromethyl)ethyl]phenyl]benzenesulfonamide", "N-(2,2,2-Trifluoroethyl)-N-[4-[2,2,2-trifluoro-1-hydroxy-1-(trifluoromethyl)ethyl]phenyl]-benzenesulfonamide", "TO 091317", "T 0901317", "N-(4-(1,1,1,3,3,3-Hexafluoro-2-hydroxypropan-2-yl)phenyl)-N-(2,2,2-trifluoroethyl)benzenesulfonamide"], "SMILES": "C(C(F)(F)F)(C(F)(F)F)(O)C1=CC=C(N(S(=O)(=O)C2=CC=CC=C2)CC(F)(F)F)C=C1", "physical_data": {"Molecular Weight": "481.33", "Molecular Formula": "C17H12F9NO3S", "Melting Point": "115-118 \u00b0C"}}