{"cas_no": "2937-50-0", "cn_name": "\u6c2f\u7532\u9178\u70ef\u4e19\u916f", "en_name": ["Allyl chloroformate", "Carbonochloridic acid, 2-propen-1-yl ester", "Formic acid, chloro-, allyl ester", "Carbonochloridic acid, 2-propenyl ester", "Allyl chloroformate", "Allyl chlorocarbonate", "Allyloxycarbonyl chloride", "Chloroformic acid allyl ester", "Allyl chloridocarbonate", "2-Propenyl chloroformate", "Allyl carbonochloridate", "2-Propen-1-yl chloroformate"], "SMILES": "O(C(Cl)=O)CC=C", "physical_data": {"Molecular Weight": "120.53", "Molecular Formula": "C4H5ClO2", "Boiling Point": "110 \u00b0C @ Press: 760 Torr", "Density": "1.1394 g/cm\u00b3 @ Temp: 20 \u00b0C"}}