{"cas_no": "2937-81-7", "cn_name": "2,5-\u4e8c\u6c28\u57fa-1,3,4-\u567b\u4e8c\u5511", "en_name": ["1,3,4-Thiadiazole-2,5-diamine", "1,3,4-Thiadiazole-2,5-diamine", "1,3,4-Thiadiazole, 2,5-diamino-", "2,5-Diamino-1,3,4-thiadiazole", "2,5-Diamino-1,3,4-thiadiazol"], "SMILES": "NC=1SC(N)=NN1", "physical_data": {"Molecular Weight": "116.14", "Molecular Formula": "C2H4N4S", "Melting Point": "210 \u00b0C"}}