{"cas_no": "29388-59-8", "cn_name": "\u5f00\u73af\u5f02\u843d\u53f6\u677e\u6811\u8102\u915a", "en_name": ["(-)-Secoisolariciresinol", "1,4-Butanediol, 2,3-bis[(4-hydroxy-3-methoxyphenyl)methyl]-, (2R,3R)-", "1,4-Butanediol, 2,3-divanillyl-, (-)-", "1,4-Butanediol, 2,3-bis[(4-hydroxy-3-methoxyphenyl)methyl]-, [R-(R*,R*)]-", "Secoisolariciresinol", "(2R,3R)-2,3-Bis[(4-hydroxy-3-methoxyphenyl)methyl]-1,4-butanediol", "(-)-Secoisolariciresinol", "Secoisolariciresinol, (-)-", "seco-Isolariciresinol", "(8R,8\u2032R)-(-)-Secoisolariciresinol", "Secoisolarisiresinol", "Knotolan"], "SMILES": "C(C(C(CC1=CC(OC)=C(O)C=C1)CO)CO)C2=CC(OC)=C(O)C=C2", "physical_data": {"Molecular Weight": "362.42", "Molecular Formula": "C20H26O6", "Melting Point": "113 \u00b0C"}}