{"cas_no": "29387-86-8", "cn_name": "\u4e19\u4e8c\u9187\u4e01\u919a", "en_name": ["Propylene glycol butyl ether", "Propanol, 1(or 2)-butoxy-", "Propanol, butoxy-", "1(or 2)-Butoxypropanol", "Propylene glycol monobutyl ether", "Propylene glycol butoxy ether", "Propasol B", "Butoxypropanol", "Dowanol PnB", "Propylene glycol butyl ether", "Butyl Propasol", "Propylene glycol n-butyl ether", "Arcosolv PNB", "Acrosolv PnB", "1,2-Propanediol monobutyl ether", "BFDG", "DBG", "Dowclene 1601", "PNB"], "SMILES": "", "physical_data": {"Molecular Weight": "", "Molecular Formula": "C7H16O2", "Melting Point": "&gt;360 \u00b0C", "Density": "8.7463 x 10<sup>-7</sup> g/cm\u00b3 @ Temp: 25.00 \u00b0C"}}