{"cas_no": "2938-48-9", "cn_name": "2,2-\u4e8c\u7532\u57fa\u620a\u4e8c\u9178\u9150", "en_name": ["2,2-Dimethylglutaric anhydride", "2H-Pyran-2,6(3H)-dione, dihydro-3,3-dimethyl-", "Glutaric anhydride, 2,2-dimethyl-", "Dihydro-3,3-dimethyl-2H-pyran-2,6(3H)-dione", "2,2-Dimethylglutaric anhydride", "NSC 60199", "3,3-Dimethyldihydropyran-2,6-dione", "3,3-Dimethyl-3H-4,5-dihydropyran-2,6-dione", "3,3-Dimethyldihydro-2H-pyran-2,6(3H)-dione", "3,3-Dimethyloxane-2,6-dione", "3,3-Dimethyloxan-2,6-dione"], "SMILES": "CC1(C)C(=O)OC(=O)CC1", "physical_data": {"Molecular Weight": "142.15", "Molecular Formula": "C7H10O3", "Boiling Point": "126 \u00b0C @ Press: 12 Torr", "Melting Point": "123-125 \u00b0C"}}