{"cas_no": "294-93-9", "cn_name": "12-\u51a0\u919a-4", "en_name": ["12-Crown-4", "1,4,7,10-Tetraoxacyclododecane", "Ethylene oxide cyclic tetramer", "12-Crown-4", "12-Crown-4-ether", "12C4"], "SMILES": "C1COCCOCCOCCO1", "physical_data": {"Molecular Weight": "176.21", "Molecular Formula": "C8H16O4", "Boiling Point": "61-70 \u00b0C", "Melting Point": "16 \u00b0C"}}