{"cas_no": "294-62-2", "cn_name": "\u73af\u5341\u4e8c\u70f7", "en_name": ["Cyclododecane", "Cyclododecane"], "SMILES": "C1CCCCCCCCCCC1", "physical_data": {"Molecular Weight": "168.32", "Molecular Formula": "C12H24", "Boiling Point": "247 \u00b0C", "Melting Point": "60.4 \u00b0C", "Density": "0.82 g/cm\u00b3 @ Temp: 80 \u00b0C"}}