{"cas_no": "294-90-6", "cn_name": "\u8f6e\u73af\u85e4\u5b81", "en_name": ["1,4,7,10-Tetraazacyclododecane", "1,4,7,10-Tetraazacyclododecane", "Cyclen", "Tetraaza-12-crown-4", "NSC 629374", "1,4,7,10-Tetrazacyclododecane"], "SMILES": "C1CNCCNCCNCCN1", "physical_data": {"Molecular Weight": "172.27", "Molecular Formula": "C8H20N4", "Melting Point": "110-113 \u00b0C"}}