{"cas_no": "294-92-8", "cn_name": "12-\u51a0\u919a", "en_name": ["1,7-Dioxa-4,10-diazacyclododecane", "1,7-Dioxa-4,10-diazacyclododecane", "1,7-Diaza-4,10-dioxacyclododecane", "1,7-Diaza-12-crown-4", "4,10-Diaza-12-crown-4"], "SMILES": "C1COCCNCCOCCN1", "physical_data": {"Molecular Weight": "174.24", "Molecular Formula": "C8H18N2O2", "Melting Point": "82-84 \u00b0C"}}