{"cas_no": "2941-20-0", "cn_name": "1-\u82ef\u57fa\u4e19-1-\u80fa", "en_name": ["1-Phenylpropylamine", "Benzenemethanamine, \u03b1-ethyl-", "Benzylamine, \u03b1-ethyl-", "\u03b1-Ethylbenzenemethanamine", "1-Propanamine, 1-phenyl-", "\u03b1-Ethylbenzylamine", "1-Phenylpropylamine", "\u03b1-Phenylpropylamine", "(\u00b1)-\u03b1-Ethylbenzylamine", "(\u00b1)-\u03b1-Phenylpropylamine", "(\u00b1)-1-Phenylpropylamine", "1-Phenyl-1-propanamine", "(\u00b1)-1-Ethylbenzylamine", "1-Amino-1-phenylpropane"], "SMILES": "C(CC)(N)C1=CC=CC=C1", "physical_data": {"Molecular Weight": "135.21", "Molecular Formula": "C9H13N", "Boiling Point": "88 \u00b0C @ Press: 14 Torr", "Melting Point": "192-193 \u00b0C"}}