{"cas_no": "29418-67-5", "cn_name": "2-\u6eb4\u82ef\u7532\u9170\u80bc", "en_name": ["2-Bromobenzoic acid hydrazide", "Benzoic acid, 2-bromo-, hydrazide", "Benzoic acid, o-bromo-, hydrazide", "o-Bromobenzoic acid hydrazide", "2-Bromobenzoic acid hydrazide", "2-Bromobenzohydrazide", "(o-Bromobenzoyl)hydrazine", "o-Bromobenzoic hydrazide", "2-Bromobenzoylhydrazine", "2-Bromobenzenecarboxylic acid hydrazide", "NSC 522536", "2-Bromobenzoyl hydrazide", "2-Bromobenzoic hydrazide", "2-Bromobenzhydrazide"], "SMILES": "C(NN)(=O)C1=C(Br)C=CC=C1", "physical_data": {"Molecular Weight": "215.05", "Molecular Formula": "C7H7BrN2O", "Melting Point": "152 \u00b0C"}}