{"cas_no": "2941-64-2", "cn_name": "\u786b\u4ee3\u6c2f\u7532\u9178\u4e59\u916f", "en_name": ["Ethyl chlorothioformate", "Carbonochloridothioic acid, S-ethyl ester", "Formic acid, chlorothio-, S-ethyl ester", "S-Ethyl chlorothioformate", "Ethyl chlorothioformate", "Ethylthiol chloroformate", "S-Ethyl thiochloroformate", "Ethyl thiochloroformate", "S-Ethyl carbonochloridothioate", "S-Ethyl chlorothiocarbonate", "Thioethoxycarbonyl chloride", "Ethylthiocarbonyl chloride"], "SMILES": "S(C(Cl)=O)CC", "physical_data": {"Molecular Weight": "124.59", "Molecular Formula": "C3H5ClOS", "Boiling Point": "136 \u00b0C @ Press: 760 Torr", "Density": "1.84 g/cm\u00b3"}}