{"cas_no": "2941-69-7", "cn_name": "2-\u7532\u57fa-5-\u7532\u6c27\u57fa\u82ef\u5e76\u567b\u5511", "en_name": ["5-Methoxy-2-methylbenzothiazole", "Benzothiazole, 5-methoxy-2-methyl-", "5-Methoxy-2-methylbenzothiazole", "2-Methyl-5-methoxy-1,3-benzothiazole"], "SMILES": "CC=1SC=2C(=CC(OC)=CC2)N1", "physical_data": {"Molecular Weight": "179.24", "Molecular Formula": "C9H9NOS", "Melting Point": "43-47 \u00b0C"}}