{"cas_no": "2941-23-3", "cn_name": "1-\u6c28\u57fa-2-\u6c30\u57fa-1-\u73af\u620a\u70ef", "en_name": ["2-Amino-1-cyclopentene-1-carbonitrile", "1-Cyclopentene-1-carbonitrile, 2-amino-", "2-Amino-1-cyclopentene-1-carbonitrile", "1-Amino-2-cyano-1,2-cyclopentene", "1-Amino-2-cyanocyclopentene", "2-Cyanocyclopenten-1-ylamine", "1-Amino-2-cyano-1-cyclopentene", "2-Amino-1-cyano-1-cyclopentene", "NSC 146852", "2-Aminocyclopent-1-enecarbonitrile"], "SMILES": "C(#N)C1=C(N)CCC1", "physical_data": {"Molecular Weight": "108.14", "Molecular Formula": "C6H8N2", "Melting Point": "147-148 \u00b0C"}}