{"cas_no": "2941-78-8", "cn_name": "2-\u6c28\u57fa-5-\u7532\u57fa\u82ef\u7532\u9178", "en_name": ["2-Amino-5-methylbenzoic acid", "Benzoic acid, 2-amino-5-methyl-", "m-Toluic acid, 6-amino-", "2-Amino-5-methylbenzoic acid", "5-Methylanthranilic acid", "5-Methyl-2-aminobenzoic acid", "2-Carboxy-4-methylaniline", "NSC 39154", "NSC 50786"], "SMILES": "C(O)(=O)C1=C(N)C=CC(C)=C1", "physical_data": {"Molecular Weight": "151.16", "Molecular Formula": "C8H9NO2", "Melting Point": "177 \u00b0C"}}