{"cas_no": "2941-29-9", "cn_name": "2-\u6c30\u57fa\u73af\u620a\u916e", "en_name": ["2-Oxocyclopentanecarbonitrile", "Cyclopentanecarbonitrile, 2-oxo-", "2-Oxocyclopentanecarbonitrile", "2-Cyanocyclopentanone", "NSC 146861", "2-Cyano-1-cyclopentanone", "2-Oxocyclopentane-1-carbonitrile"], "SMILES": "C(#N)C1C(=O)CCC1", "physical_data": {"Molecular Weight": "109.13", "Molecular Formula": "C6H7NO", "Boiling Point": "229-230 \u00b0C", "Density": "1.089 g/cm\u00b3 @ Temp: 414 \u00b0C"}}