{"cas_no": "2941-66-4", "cn_name": "2-\u7532\u57fa-5-\u785d\u57fa\u82ef\u5e76\u567b\u5511", "en_name": ["2-Methyl-5-nitrobenzothiazole", "Benzothiazole, 2-methyl-5-nitro-", "2-Methyl-5-nitrobenzothiazole", "2-Methyl-5-nitro-1,3-benzothiazole"], "SMILES": "N(=O)(=O)C=1C=C2C(=CC1)SC(C)=N2", "physical_data": {"Molecular Weight": "194.21", "Molecular Formula": "C8H6N2O2S", "Melting Point": "140 \u00b0C"}}