{"cas_no": "2941-63-1", "cn_name": "2-\u7532\u57fa-6-\u785d\u57fa\u82ef\u5e76\u567b\u5511", "en_name": ["2-Methyl-6-nitrobenzothiazole", "Benzothiazole, 2-methyl-6-nitro-", "2-Methyl-6-nitrobenzothiazole", "6-Nitro-2-methylbenzothiazole", "NSC 504572", "2-Methyl-6-nitro-1,3-benzothiazole"], "SMILES": "N(=O)(=O)C=1C=C2C(=CC1)N=C(C)S2", "physical_data": {"Molecular Weight": "194.21", "Molecular Formula": "C8H6N2O2S", "Melting Point": "206.5 \u00b0C"}}