{"cas_no": "2941-71-1", "cn_name": "2,6-\u4e8c\u7532\u57fa\u82ef\u5e76\u567b\u5511", "en_name": ["2,6-Dimethylbenzothiazole", "Benzothiazole, 2,6-dimethyl-", "2,6-Dimethylbenzothiazole", "NSC 93784"], "SMILES": "CC1=NC=2C(S1)=CC(C)=CC2", "physical_data": {"Molecular Weight": "163.24", "Molecular Formula": "C9H9NS", "Boiling Point": "130-132 \u00b0C @ Press: 20 Torr"}}