{"cas_no": "2941-55-1", "cn_name": "\u786b\u654c\u8349", "en_name": ["Ethiolate", "Carbamothioic acid, N,N-diethyl-, S-ethyl ester", "Carbamic acid, diethylthio-, S-ethyl ester", "Carbamothioic acid, diethyl-, S-ethyl ester", "S-Ethyl N,N-diethylthiocarbamate", "Ethiolate", "Etirox"], "SMILES": "N(C(SCC)=O)(CC)CC", "physical_data": {"Molecular Weight": "161.27", "Molecular Formula": "C7H15NOS", "Boiling Point": "151-153 \u00b0C @ Press: 13.3 mbar"}}