{"cas_no": "2941-72-2", "cn_name": "6-\u7532\u6c27\u57fa-2-\u7532\u57fa\u82ef\u5e76\u567b\u5511", "en_name": ["6-Methoxy-2-methylbenzothiazole", "Benzothiazole, 6-methoxy-2-methyl-", "6-Methoxy-2-methylbenzothiazole", "2-Methyl-6-methoxybenzothiazole", "NSC 93804"], "SMILES": "CC1=NC=2C(=CC(OC)=CC2)S1", "physical_data": {"Molecular Weight": "179.24", "Molecular Formula": "C9H9NOS", "Boiling Point": "176 \u00b0C @ Press: 25 Torr", "Melting Point": "182 \u00b0C (decomp)"}}