{"cas_no": "2942-06-5", "cn_name": "6-\u785d\u57fa\u82ef\u5e76\u567b\u5511", "en_name": ["6-Nitrobenzothiazole", "Benzothiazole, 6-nitro-", "6-Nitrobenzothiazole", "NSC 170646", "6-Nitrobenzo[d]thiazole"], "SMILES": "N(=O)(=O)C=1C=C2C(=CC1)N=CS2", "physical_data": {"Molecular Weight": "180.18", "Molecular Formula": "C7H4N2O2S", "Melting Point": "173-174 \u00b0C"}}