{"cas_no": "2942-42-9", "cn_name": "7-\u785d\u57fa\u5432\u5511", "en_name": ["7-Nitroindazole", "1H-Indazole, 7-nitro-", "7-Nitro-1H-indazole", "7-Nitroindazole", "NSC 72843"], "SMILES": "N(=O)(=O)C1=C2C(C=NN2)=CC=C1", "physical_data": {"Molecular Weight": "163.13", "Molecular Formula": "C7H5N3O2", "Melting Point": "186.5-187.5 \u00b0C"}}