{"cas_no": "2942-59-8", "cn_name": "2-\u6c2f\u70df\u9178", "en_name": ["2-Chloronicotinic acid", "3-Pyridinecarboxylic acid, 2-chloro-", "Nicotinic acid, 2-chloro-", "2-Chloro-3-pyridinecarboxylic acid", "2-Chloronicotinic acid", "CNIS", "NSC 378", "3-Carboxy-2-chloropyridine"], "SMILES": "C(O)(=O)C1=C(Cl)N=CC=C1", "physical_data": {"Molecular Weight": "157.55", "Molecular Formula": "C6H4ClNO2", "Melting Point": "190-191 \u00b0C"}}