{"cas_no": "2942-15-6", "cn_name": "6-\u7532\u57fa\u82ef\u5e76\u567b\u5511", "en_name": ["6-Methylbenzothiazole", "Benzothiazole, 6-methyl-", "6-Methylbenzothiazole", "5-Benzothiazol-6-ylmethylenethiazolidine-2,4-dione"], "SMILES": "CC=1C=C2C(=CC1)N=CS2", "physical_data": {"Molecular Weight": "149.21", "Molecular Formula": "C8H7NS", "Boiling Point": "250 \u00b0C", "Melting Point": "15.5 \u00b0C"}}