{"cas_no": "2942-13-4", "cn_name": "6-\u7532\u6c27\u57fa\u82ef\u5e76\u567b\u5511", "en_name": ["6-Methoxybenzothiazole", "Benzothiazole, 6-methoxy-", "6-Methoxybenzothiazole", "NSC 508406", "6-Methoxy-1,3-benzothiazole"], "SMILES": "O(C)C=1C=C2C(=CC1)N=CS2", "physical_data": {"Molecular Weight": "165.21", "Molecular Formula": "C8H7NOS", "Melting Point": "72.5-73 \u00b0C"}}