{"cas_no": "2942-58-7", "cn_name": "\u6c30\u57fa\u78f7\u9178\u4e8c\u4e59\u916f", "en_name": ["Diethyl cyanophosphonate", "Phosphorocyanidic acid, diethyl ester", "Phosphonic acid, cyano-, diethyl ester", "Ethyl phosphorocyanidate", "Diethylphosphoryl cyanide", "Diethyl phosphorocyanidate", "Diethyl cyanophosphonate", "DEPC", "Diethoxyphosphoryl cyanide", "Diethyl Cyanophosphate"], "SMILES": "P(OCC)(OCC)(C#N)=O", "physical_data": {"Molecular Weight": "163.11", "Molecular Formula": "C5H10NO3P", "Boiling Point": "90-91 \u00b0C @ Press: 11 Torr", "Density": "1.0884 g/cm\u00b3 @ Temp: 20 \u00b0C"}}