{"cas_no": "2942-40-7", "cn_name": "4-\u785d\u57fa\u5432\u5511", "en_name": ["4-Nitro-1H-indazole", "1H-Indazole, 4-nitro-", "4-Nitro-1H-indazole", "4-Nitroindazole", "NSC 96892"], "SMILES": "N(=O)(=O)C1=C2C(NN=C2)=CC=C1", "physical_data": {"Molecular Weight": "163.13", "Molecular Formula": "C7H5N3O2", "Melting Point": "202-203 \u00b0C"}}