{"cas_no": "29421-73-6", "cn_name": "3,5-\u4e8c\u6eb4-2-\u7532\u57fa\u567b\u5429", "en_name": ["3,5-Dibromo-2-methylthiophene", "Thiophene, 3,5-dibromo-2-methyl-", "3,5-Dibromo-2-methylthiophene", "2,4-Dibromo-5-methylthiophene"], "SMILES": "BrC1=C(C)SC(Br)=C1", "physical_data": {"Molecular Weight": "255.96", "Molecular Formula": "C5H4Br2S", "Boiling Point": "93 \u00b0C @ Press: 8 Torr"}}