{"cas_no": "29427-58-5", "cn_name": "O-\u7532\u57fa\u5f02\u5c3f\u7d20\u786b\u9178\u6c22\u76d0", "en_name": ["Carbamimidic acid, methyl ester, sulfate (1:1)", "Carbamimidic acid, methyl ester, sulfate (1:1)", "Pseudourea, 2-methyl-, sulfate (1:1)", "O-Methylpseudourea sulfate", "O-Methylisouronium hydrogen sulfate", "O-Methylisourea bisulfate", "Methyl carbamimidate sulfate"], "SMILES": "C(OC)(=N)N.S(=O)(=O)(O)O", "physical_data": {"Molecular Weight": "", "Molecular Formula": "C2H6N2O.H2O4S", "Melting Point": "116-119 \u00b0C"}}