{"cas_no": "29420-49-3", "cn_name": "\u5168\u6c1f\u4e01\u57fa\u78fa\u9178\u94be", "en_name": ["Potassium perfluorobutanesulfonate", "1-Butanesulfonic acid, 1,1,2,2,3,3,4,4,4-nonafluoro-, potassium salt (1:1)", "1-Butanesulfonic acid, 1,1,2,2,3,3,4,4,4-nonafluoro-, potassium salt", "Potassium perfluorobutanesulfonate", "Potassium nonaflate", "Potassium nonafluorobutanesulfonate", "Potassium perfluoro-1-butanesulfonate", "F 114", "Megafac F 114", "Megafac F 114P", "F 114P", "Bayowet C 4", "Perfluorobutanesulfonic acid potassium salt", "Flutel RM 65", "RM 65", "Eftop KFBS", "FR 2025", "Megafac F 411", "KFBS", "Potassium nonafluoro-1-butanesulfonate", "FR 2225", "Biowet C 4", "K-NONA", "PPBS", "Nanofluorobutanesulfonic acid potassium salt", "Bayowet C 4TP-AC2001", "Chemguard 411", "FR 2050", "Nonafluoro-1-butanesulfonate potassium salt", "EF 42", "Potassium perfluorobutylsulfonate", "Megafac F 144P", "Nonafluorobutanesulfonic acid potassium salt", "PPFBS", "IHT-FR 21", "PFBSA", "Poatssium perfluorobutanesulfonate", "KPFBS", "Megaface F 114", "KPBS", "FR 2015", "BU-C 4K"], "SMILES": "C(C(C(F)(F)F)(F)F)(C(S(=O)(=O)O)(F)F)(F)F.[K]", "physical_data": {"Molecular Weight": "", "Molecular Formula": "C4HF9O3S.K", "Melting Point": "~450 \u00b0C (decomp) (approx)"}}