{"cas_no": "29427-69-8", "cn_name": "3-\u7fb0\u57fa-1-\u831a\u9178", "en_name": ["3-Oxo-1-indancarboxylic acid", "1H-Indene-1-carboxylic acid, 2,3-dihydro-3-oxo-", "1-Indancarboxylic acid, 3-oxo-", "2,3-Dihydro-3-oxo-1H-indene-1-carboxylic acid", "3-Oxo-1-indancarboxylic acid", "(\u00b1)-2,3-Dihydro-3-oxo-1H-indene-1-carboxylic acid", "(RS)-1-Carboxy-3-indanone", "NSC 225078", "3-Oxo-2,3-dihydro-1H-indene-1-carboxylic acid", "3-Oxo-1,2-dihydroindene-1-carboxylic acid"], "SMILES": "C(O)(=O)C1C=2C(C(=O)C1)=CC=CC2", "physical_data": {"Molecular Weight": "176.17", "Molecular Formula": "C10H8O3", "Melting Point": "84 \u00b0C"}}