{"cas_no": "2943-73-9", "cn_name": "\u6b63\u7678\u57fa\u4e09\u4e59\u6c27\u57fa\u7845\u70f7", "en_name": ["Decyltriethoxysilane", "Silane, decyltriethoxy-", "Decyltriethoxysilane", "1-(Triethoxysilyl)decane", "Triethoxydecylsilane", "Tri(ethoxo)(decyl)silane", "SID 2265.0", "n-Decyltriethoxysilane", "KBE 3103"], "SMILES": "[Si](CCCCCCCCCC)(OCC)(OCC)OCC", "physical_data": {"Molecular Weight": "304.54", "Molecular Formula": "C16H36O3Si", "Boiling Point": "150 \u00b0C @ Press: 8 Torr", "Density": "0.879 g/cm\u00b3"}}