{"cas_no": "2943-75-1", "cn_name": "\u6b63\u8f9b\u57fa\u4e09\u4e59\u6c27\u57fa\u7845\u70f7", "en_name": ["Octyltriethoxysilane", "Silane, triethoxyoctyl-", "Triethoxyoctylsilane", "Octyltriethoxysilane", "n-Octyltriethoxysilane", "Y 9187", "Dynasylan OCTEO", "Prosil 9202", "Prosil 9234", "Silquest A 137", "A 137 (coupling agent)", "A 137", "Enviroseal 40", "U 222", "Si 208", "Si 208 (coupling agent)", "VP-Si 208", "NSC 42964", "Z 6341", "O 9835", "Caprylyltriethoxysilane", "LM-N 308", "AES 3083", "EMI 1831", "L 04407", "Elotex Seal 80", "KBE 3083", "Silquest 06715.0", "Xiameter OFS 6341", "KH 350", "Triethoxycaprylylsilane", "OFS 6341", "1-(Triethoxysilyl)octane", "KH 832", "Penta 818", "SM 008", "Xiameter OFS 6595", "DB 8830", "Silres BS 1601", "SCA-K 08E", "Dowsil 87", "ZH 801", "XHW 308"], "SMILES": "[Si](CCCCCCCC)(OCC)(OCC)OCC", "physical_data": {"Molecular Weight": "276.49", "Molecular Formula": "C14H32O3Si", "Boiling Point": "98-99 \u00b0C @ Press: 2 Torr", "Melting Point": "&lt;-40 \u00b0C", "Density": "0.875 g/cm\u00b3"}}