{"cas_no": "2944-49-2", "cn_name": "2,3-\u4e8c\u7532\u57fa\u82ef\u7532\u919a", "en_name": ["2,3-Dimethylanisole", "Benzene, 1-methoxy-2,3-dimethyl-", "Anisole, 2,3-dimethyl-", "1-Methoxy-2,3-dimethylbenzene", "2,3-Dimethylanisole", "3-Methoxy-o-xylene", "2,3-Dimethylphenol methyl ether", "1,2-Dimethyl-6-methoxybenzene", "NSC 137144"], "SMILES": "O(C)C1=C(C)C(C)=CC=C1", "physical_data": {"Molecular Weight": "136.19", "Molecular Formula": "C9H12O", "Boiling Point": "199 \u00b0C", "Melting Point": "29 \u00b0C"}}