{"cas_no": "2944-70-9", "cn_name": "\u4e59\u70ef\u57fa\u7532\u57fa\u7845(\u4e8c\u9187)\u4e8c\u4e59\u9178\u916f", "en_name": ["Diacetoxymethylvinylsilane", "Silanediol, 1-ethenyl-1-methyl-, 1,1-diacetate", "Silanediol, methylvinyl-, diacetate", "Silanediol, ethenylmethyl-, diacetate", "Methylvinyldiacetoxysilane", "Diacetoxymethylvinylsilane", "Vinylmethyldiacetoxysilane", "(Acetyloxy)(ethenyl)methylsilyl acetate", "(Acetyloxy-ethenyl-methylsilyl) acetate"], "SMILES": "[Si](OC(C)=O)(OC(C)=O)(C=C)C", "physical_data": {"Molecular Weight": "188.25", "Molecular Formula": "C7H12O4Si", "Boiling Point": "56 \u00b0C @ Press: 9 Torr", "Density": "1.063 g/cm\u00b3"}}