{"cas_no": "29448-81-5", "cn_name": "1H-\u54aa\u5511\u5e76[4,5-B]\u5421\u5576-2-\u786b\u9187", "en_name": ["1,3-Dihydro-2H-imidazo[4,5-b]pyridine-2-thione", "2H-Imidazo[4,5-b]pyridine-2-thione, 1,3-dihydro-", "1,3-Dihydro-2H-imidazo[4,5-b]pyridine-2-thione", "4-Aza-2-mercaptobenzimidazole", "1H-Imidazo[4,5-b]pyridine-2-thiol", "2-Mercapto-4-azabenzimidazole", "2-Mercapto-1H-imidazo[4,5-b]pyridine", "NSC 403067", "1,3-Dihydroimidazo[4,5-b]pyridine-2-thione", "3H-Imidazo[4,5-b]pyridine-2-thiol"], "SMILES": "S=C1NC=2C(N1)=NC=CC2", "physical_data": {"Molecular Weight": "151.19", "Molecular Formula": "C6H5N3S", "Melting Point": "&gt;300 \u00b0C"}}