{"cas_no": "29450-07-5", "cn_name": "2-(2-\u5421\u5576\u57fa\u6c27\u57fa)\u4e59\u80fa", "en_name": ["2-(2-Pyridinyloxy)ethanamine", "Ethanamine, 2-(2-pyridinyloxy)-", "Pyridine, 2-(2-aminoethoxy)-", "2-(2-Pyridinyloxy)ethanamine", "2-(2-Pyridyloxy)ethylamine", "2-(Pyridin-2-yloxy)ethylamine", "NSC 91884", "2-(2-Pyridyloxy)ethanamine", "2-(2-Aminoethoxy)pyridine"], "SMILES": "O(CCN)C1=CC=CC=N1", "physical_data": {"Molecular Weight": "138.17", "Molecular Formula": "C7H10N2O", "Boiling Point": "238 \u00b0C", "Melting Point": "216-222 \u00b0C"}}