{"cas_no": "2946-39-6", "cn_name": "8-\u6eb4\u8198\u82f7", "en_name": ["8-Bromoadenosine", "Adenosine, 8-bromo-", "8-Bromoadenosine", "NSC 79213"], "SMILES": "BrC=1N(C=2C(N1)=C(N)N=CN2)C3OC(CO)C(O)C3O", "physical_data": {"Molecular Weight": "346.14", "Molecular Formula": "C10H12BrN5O4", "Melting Point": "210 \u00b0C"}}