{"cas_no": "2946-17-0", "cn_name": "5-\u7532\u6c27\u57fa-2-\u7532\u57fa\u82ef\u5e76\u7852\u5511", "en_name": ["5-Methoxy-2-methylbenzoselenazole", "Benzoselenazole, 5-methoxy-2-methyl-", "5-Methoxy-2-methylbenzoselenazole", "2-Methyl-5-methoxybenzoselenazole", "NSC 366221"], "SMILES": "CC=1[Se]C=2C(=CC(OC)=CC2)N1", "physical_data": {"Molecular Weight": "226.13", "Molecular Formula": "C9H9NOSe", "Boiling Point": "162 \u00b0C @ Press: 10 Torr", "Melting Point": "88-90 \u00b0C"}}