{"cas_no": "2946-61-4", "cn_name": "\u4e8c\u7532\u57fa\u82ef\u57fa\u81a6\u9178\u76d0", "en_name": ["Dimethyl phenylphosphonite", "Phosphonous acid, P-phenyl-, dimethyl ester", "Phosphonous acid, phenyl-, dimethyl ester", "Dimethyl phenylphosphonite", "Dimethoxyphenylphosphine", "Phenyldimethoxyphosphine"], "SMILES": "P(OC)(OC)C1=CC=CC=C1", "physical_data": {"Molecular Weight": "170.15", "Molecular Formula": "C8H11O2P", "Boiling Point": "101-102 \u00b0C @ Press: 16 Torr", "Density": "1.1022 g/cm\u00b3 @ Temp: 0 \u00b0C"}}