{"cas_no": "29477-83-6", "cn_name": "\u6c34\u4ed9\u73af\u7d20", "en_name": ["Narciclasine", "[1,3]Dioxolo[4,5-j]phenanthridin-6(2H)-one, 3,4,4a,5-tetrahydro-2,3,4,7-tetrahydroxy-, (2S,3R,4S,4aR)-", "[1,3]Dioxolo[4,5-j]phenanthridin-6(2H)-one, 3,4,4a,5-tetrahydro-2,3,4,7-tetrahydroxy-, [2S-(2\u03b1,3\u03b2,4\u03b2,4a\u03b2)]-", "(2S,3R,4S,4aR)-3,4,4a,5-Tetrahydro-2,3,4,7-tetrahydroxy[1,3]dioxolo[4,5-j]phenanthridin-6(2H)-one", "Narciclasine", "Lycoricidinol", "(+)-Lycoricidinol", "(+)-Narciclasine", "NSC 266535"], "SMILES": "OC1=C2C(C=3C(NC2=O)C(O)C(O)C(O)C3)=CC4=C1OCO4", "physical_data": {"Molecular Weight": "307.26", "Molecular Formula": "C14H13NO7", "Melting Point": "246 \u00b0C (decomp)"}}