{"cas_no": "29471-17-8", "cn_name": "4\u2032,4\u2032\u2032(5\u2032\u2032)-\u4e8c\u53d4\u4e01\u57fa\u4e8c\u82ef\u5e76-18-\u51a0-6", "en_name": ["Di-(tert-butylbenzo)-18-crown-6", "Dibenzo[b,k][1,4,7,10,13,16]hexaoxacyclooctadecin, 2,13(or 2,14)-bis(1,1-dimethylethyl)-6,7,9,10,17,18,20,21-octahydro-", "Dibenzo[b,k][1,4,7,10,13,16]hexaoxacyclooctadecin, di-tert-butyl-6,7,9,10,17,18,20,21-octahydro-", "2,13(or 2,14)-Bis(1,1-dimethylethyl)-6,7,9,10,17,18,20,21-octahydrodibenzo[b,k][1,4,7,10,13,16]hexaoxacyclooctadecin", "Bis(tert-butylbenzo)-18-crown-6", "Bis(4,4\u2032(5\u2032)-tert-butylbenzo)-18-crown-6", "Di-(tert-butylbenzo)-18-crown-6", "4,4\u2032(5\u2032)-[Di-tert-butyldibenzo]-18-crown-6", "Di(tert-butylbenzo)-18-crown-6"], "SMILES": "", "physical_data": {"Molecular Weight": "", "Molecular Formula": "C28H40O6", "Melting Point": "105-110 \u00b0C"}}