{"cas_no": "2947-60-6", "cn_name": "\u95f4\u7532\u57fa\u82ef\u4e59\u8148", "en_name": ["(3-Methylphenyl)acetonitrile", "Benzeneacetonitrile, 3-methyl-", "Acetonitrile, m-tolyl-", "3-Methylbenzeneacetonitrile", "m-Methylbenzyl cyanide", "(3-Methylphenyl)acetonitrile", "m-Methylphenylacetonitrile", "3-Methylbenzyl cyanide", "m-Tolylacetonitrile", "NSC 20695", "2-(m-Tolyl)acetonitrile", "2-(3-Methylphenyl)acetonitrile"], "SMILES": "C(C#N)C1=CC(C)=CC=C1", "physical_data": {"Molecular Weight": "131.17", "Molecular Formula": "C9H9N", "Boiling Point": "248 \u00b0C"}}