{"cas_no": "2947-61-7", "cn_name": "\u5bf9\u7532\u57fa\u82ef\u4e59\u8148", "en_name": ["4-Methylphenylacetonitrile", "Benzeneacetonitrile, 4-methyl-", "Acetonitrile, p-tolyl-", "4-Methylbenzeneacetonitrile", "p-Methylbenzyl cyanide", "(p-Methylphenyl)acetonitrile", "p-Tolylacetonitrile", "4-Methylbenzyl cyanide", "4-Methylphenylacetonitrile", "4-Methylbenzylnitrile", "2-(p-Tolyl)acetonitrile", "2-(4-Methylphenyl)acetonitrile", "4-Methylbenzyl isocyanide"], "SMILES": "C(C#N)C1=CC=C(C)C=C1", "physical_data": {"Molecular Weight": "131.17", "Molecular Formula": "C9H9N", "Boiling Point": "242.5 \u00b0C", "Melting Point": "18 \u00b0C"}}