{"cas_no": "29477-54-1", "cn_name": "3,4-\u4e8c\u7f9f\u57fa\u82ef\u9170\u7532\u9187", "en_name": ["2-Hydroxy-3\u2032,4\u2032-dihydroxyacetophenone", "Ethanone, 1-(3,4-dihydroxyphenyl)-2-hydroxy-", "Acetophenone, 2,3\u2032,4\u2032-trihydroxy-", "1-(3,4-Dihydroxyphenyl)-2-hydroxyethanone", "2-Hydroxy-3\u2032,4\u2032-dihydroxyacetophenone"], "SMILES": "C(CO)(=O)C1=CC(O)=C(O)C=C1", "physical_data": {"Molecular Weight": "168.15", "Molecular Formula": "C8H8O4", "Melting Point": "195 \u00b0C"}}