{"cas_no": "2948-46-1", "cn_name": "\u4e8c\u7f9f\u57fa-1\uff0c4-\u4e8c\u5f02\u4e19\u57fa\u82ef", "en_name": ["\u03b11,\u03b11,\u03b14,\u03b14-Tetramethyl-1,4-benzenedimethanol", "1,4-Benzenedimethanol, \u03b11,\u03b11,\u03b14,\u03b14-tetramethyl-", "p-Xylene-\u03b1,\u03b1\u2032-diol, \u03b1,\u03b1,\u03b1\u2032,\u03b1\u2032-tetramethyl-", "1,4-Benzenedimethanol, \u03b1,\u03b1,\u03b1\u2032,\u03b1\u2032-tetramethyl-", "\u03b11,\u03b11,\u03b14,\u03b14-Tetramethyl-1,4-benzenedimethanol", "\u03b1,\u03b1\u2032-Dihydroxy-p-diisopropylbenzene", "\u03b1,\u03b1,\u03b1\u2032,\u03b1\u2032-Tetramethyl-p-xylylenediol", "p-Bis(2-hydroxyisopropyl)benzene", "1,4-Bis(2-hydroxy-2-propyl)benzene", "\u03b1,\u03b1,\u03b1\u2032,\u03b1\u2032-Tetramethyl-p-benzenedimethanol", "p-Bis(\u03b1-hydroxyisopropyl)benzene", "Dicumyl alcohol", "1,4-Bis(1-hydroxy-1-methylethyl)benzene", "1,4-Di(2-hydroxy-2-propyl)benzene", "1,4-Bis(\u03b1-hydroxyisopropyl)benzene", "1,4-Bis(2-propanol)benzene", "\u03b1,\u03b1,\u03b1\u2032,\u03b1\u2032-Tetramethyl-1,4-benzenedimethanol", "1,4-Bis(1-methyl-1-hydroxyethyl)benzene", "2-[4-(2-Hydroxypropan-2-yl)phenyl]propan-2-ol"], "SMILES": "C(C)(C)(O)C1=CC=C(C(C)(C)O)C=C1", "physical_data": {"Molecular Weight": "194.27", "Molecular Formula": "C12H18O2", "Melting Point": "141-142 \u00b0C", "Density": "1.10 g/cm\u00b3"}}