{"cas_no": "2948-76-7", "cn_name": "\u6c2f\u5316\u975e\u745f\u916e\u5b9a", "en_name": ["Fisetinidin", "1-Benzopyrylium, 2-(3,4-dihydroxyphenyl)-3,7-dihydroxy-, chloride (1:1)", "Fisetinidin chloride", "Flavylium, 3,3\u2032,4\u2032,7-tetrahydroxy-, chloride", "1-Benzopyrylium, 2-(3,4-dihydroxyphenyl)-3,7-dihydroxy-, chloride", "3,3\u2032,4\u2032,7-Tetrahydroxyflavylium chloride", "Fisetinidin", "Fizetinidol chloride"], "SMILES": "OC=1C(=[O+]C2=C(C1)C=CC(O)=C2)C3=CC(O)=C(O)C=C3.[Cl-]", "physical_data": {"Molecular Weight": "", "Molecular Formula": "C15H11O5.Cl", "Melting Point": "270 \u00b0C"}}