{"cas_no": "2949-42-0", "cn_name": "\u56db\u5f02\u4e19\u57fa\u9521", "en_name": ["Tetrakis(1-methylethyl)stannane", "Stannane, tetrakis(1-methylethyl)-", "Stannane, tetraisopropyl-", "Tin, tetraisopropyl-", "Tetrakis(1-methylethyl)stannane", "Tetraisopropyltin", "Tetraisopropylstannane"], "SMILES": "[Sn](C(C)C)(C(C)C)(C(C)C)C(C)C", "physical_data": {"Molecular Weight": "291.06", "Molecular Formula": "C12H28Sn", "Boiling Point": "89 \u00b0C @ Press: 4 Torr", "Density": "1.124 g/cm\u00b3"}}