{"cas_no": "2949-26-0", "cn_name": "1,1,3-\u4e09\u82ef\u57fa-2-\u4e19\u7094-1-\u9187", "en_name": ["2-Ethynylnaphthalene", "Naphthalene, 2-ethynyl-", "2-Ethynylnaphthalene", "\u03b2-Ethynylnaphthalene", "\u03b2-Naphthylacetylene", "(2-Naphthyl)acetylene", "2-Naphthylethyne", "(Naphthalen-2-yl)ethyne", "Naphthalen-2-ylacetylene"], "SMILES": "C(#C)C1=CC2=C(C=C1)C=CC=C2", "physical_data": {"Molecular Weight": "152.19", "Molecular Formula": "C12H8", "Melting Point": "36 \u00b0C"}}