{"cas_no": "2949-22-6", "cn_name": "\u5f02\u6c30\u9170\u4e59\u9178\u4e59\u916f", "en_name": ["Ethyl isocyanatoacetate", "Acetic acid, 2-isocyanato-, ethyl ester", "Acetic acid, isocyanato-, ethyl ester", "Ethyl isocyanatoacetate", "Isocyanatoacetic acid ethyl ester", "Ethoxycarbonylmethyl isocyanate", "Carbethoxymethyl isocyanate", "NSC 56429", "NSC 6276", "Glycine ethyl ester isocyanate"], "SMILES": "C(CN=C=O)(OCC)=O", "physical_data": {"Molecular Weight": "129.11", "Molecular Formula": "C5H7NO3", "Boiling Point": "66-67 \u00b0C"}}