{"cas_no": "2949-92-0", "cn_name": "\u7532\u57fa\u786b\u4ee3\u78fa\u9178\u7532\u916f", "en_name": ["S-Methyl methanethiosulfonate", "Methanesulfonothioic acid, S-methyl ester", "Methanesulfonic acid, thio-, S-methyl ester", "S-Methyl methanethiosulfonate", "Methyl methanethiolsulfonate", "S-Methyl methanesulfonothioate", "Methyl methanesulfonothioate", "NSC 21545", "S-Methyl methanethiolsulfonate", "(Methanesulfonylsulfanyl)methane"], "SMILES": "S(SC)(C)(=O)=O", "physical_data": {"Molecular Weight": "126.20", "Molecular Formula": "C2H6O2S2", "Boiling Point": "104-105 \u00b0C @ Press: 10 Torr", "Melting Point": "117.0-119.0 \u00b0C", "Density": "1.3567 g/cm\u00b3 @ Temp: 0 \u00b0C"}}