{"cas_no": "29490-19-5", "cn_name": "2-\u5def\u57fa-5-\u7532\u57fa-1,3,4-\u567b\u4e8c\u5511", "en_name": ["2-Mercapto-5-methyl-1,3,4-thiadiazole", "1,3,4-Thiadiazole-2(3H)-thione, 5-methyl-", "\u03942-1,3,4-Thiadiazoline-5-thione, 2-methyl-", "5-Methyl-1,3,4-thiadiazole-2(3H)-thione", "5-Methyl-1,3,4-thiadiazole-2-thiol", "2-Mercapto-5-methyl-1,3,4-thiadiazole", "5-Mercapto-2-methyl-1,3,4-thiadiazole", "5-Methyl-1,3,4-thiadiazolyl-2-thiol", "2-Methyl-1,3,4-thiadiazole-5-thiol", "5-Methyl-1,3,4-thiadiazol-2-thiol", "5-Methyl-2-mercapto-1,3,4-thiadiazole", "2-Methyl-5-mercapto-1,3,4-thiadiazole", "2-Methyl-1,3,4-thiadiazol-5-thiol", "2-Methyl-1,3,4-thiadiazoline-5-thione", "5-Methyl-1,3,4-thiazole-2-thione", "5-Methyl-2-sulfanyl-1,3,4-thiadiazole", "5-Methyl-1,3,4-thiadiazole-2-thione", "5-Methyl-3H-1,3,4-thiadiazole-2-thione", "5-Methyl-1,3,4-thiadiazole-5-thiol", "2-Methyl-5-mercaptothiadiazole"], "SMILES": "CC=1SC(=S)NN1", "physical_data": {"Molecular Weight": "132.21", "Molecular Formula": "C3H4N2S2", "Melting Point": "173-176 \u00b0C (decomp)"}}