{"cas_no": "295-37-4", "cn_name": "1,4,8,11-\u56db\u6c2e\u6742\u73af\u5341\u56db\u70f7", "en_name": ["1,4,8,11-Tetraazacyclotetradecane", "1,4,8,11-Tetraazacyclotetradecane", "Cyclam", "JM 1498", "NSC 180811"], "SMILES": "C1CNCCNCCCNCCNC1", "physical_data": {"Molecular Weight": "200.32", "Molecular Formula": "C10H24N4", "Melting Point": "173 \u00b0C"}}