{"cas_no": "295-48-7", "cn_name": "\u73af15\u70f7", "en_name": ["Cyclopentadecane", "Cyclopentadecane"], "SMILES": "C1CCCCCCCCCCCCCC1", "physical_data": {"Molecular Weight": "210.40", "Molecular Formula": "C15H30", "Boiling Point": "45-60 \u00b0C @ Press: 5 Torr", "Melting Point": "61.3 \u00b0C", "Density": "0.8364 g/cm\u00b3 @ Temp: 61.5 \u00b0C"}}