{"cas_no": "295-64-7", "cn_name": "1,4,7,10,13-\u4e94\u6c2e\u6742\u73af\u5341\u4e94\u70f7", "en_name": ["1,4,7,10,13-Pentaazacyclopentadecane", "1,4,7,10,13-Pentaazacyclopentadecane", "Pentacyclen", "1,4,7,10,13-Pentazacyclopentadecane"], "SMILES": "C1CNCCNCCNCCNCCN1", "physical_data": {"Molecular Weight": "215.34", "Molecular Formula": "C10H25N5", "Melting Point": "100-102 \u00b0C"}}