{"cas_no": "2950-43-8", "cn_name": "\u7f9f\u80fa\u78fa\u9178", "en_name": ["Hydroxylamine-O-sulfonic acid", "Sulfuric acid, monoazanyl ester", "Hydroxylamine-O-sulfonic acid", "Amidoperoxymonosulfuric acid", "Amidosulfonic peracid", "Aminomonopersulfuric acid", "Ammonia-N-oxide-O-sulfonic acid betaine", "Hydroxylamine, O-sulfo-", "Permonosulfamic acid", "Sulfoperamidic acid", "Amidoperoxymonosulfuric acid (HOS(O)2ONH2)", "HAOS", "Hydroxylaminesulfonic acid", "(Aminooxy)sulfonic acid", "(Aminooxy)(hydroxy)sulfane dioxide"], "SMILES": "S(ON)(=O)(=O)O", "physical_data": {"Molecular Weight": "113.09", "Molecular Formula": "H3NO4S", "Boiling Point": "39 \u00b0C @ Press: 0.4 Torr", "Melting Point": "210 \u00b0C"}}