{"cas_no": "29504-89-0", "cn_name": "3-(\u8f9b\u57fa\u6c28\u57fa)\u4e19\u8148", "en_name": ["3-(Octylamino)propanenitrile", "Propanenitrile, 3-(octylamino)-", "Propionitrile, 3-(octylamino)-", "3-(Octylamino)propanenitrile", "N-Octyl-\u03b2-aminopropionitrile", "3-(Octylamino)propionitrile", "N-(2-Cyanoethyl)octylamine"], "SMILES": "C(CCCCCC)CNCCC#N", "physical_data": {"Molecular Weight": "182.31", "Molecular Formula": "C11H22N2", "Boiling Point": "117-120 \u00b0C @ Press: 1 Torr"}}