{"cas_no": "29515-99-9", "cn_name": "5-\u7532\u786b\u57fa\u56db\u6c2e\u5511", "en_name": ["5-Methylthio-1H-tetrazole", "2H-Tetrazole, 5-(methylthio)-", "1H-Tetrazole, 5-(methylthio)-", "Tetrazole, 5-(methylthio)-", "5-(Methylthio)-2H-tetrazole", "5-(Methylthio)tetrazole", "5-Methylthio-1H-tetrazole", "NSC 141852", "5-Methylsulfanyl-1H-tetrazole"], "SMILES": "S(C)C=1NN=NN1", "physical_data": {"Molecular Weight": "116.14", "Molecular Formula": "C2H4N4S", "Melting Point": "150-151 \u00b0C"}}