{"cas_no": "29518-11-4", "cn_name": "4-\u82ef\u57fa-3-\u5417\u5549\u916e", "en_name": ["4-Phenyl-3-morpholinone", "3-Morpholinone, 4-phenyl-", "4-Phenyl-3-morpholinone"], "SMILES": "O=C1N(C2=CC=CC=C2)CCOC1", "physical_data": {"Molecular Weight": "177.20", "Molecular Formula": "C10H11NO2", "Melting Point": "113 \u00b0C"}}