{"cas_no": "29512-49-0", "cn_name": "\u9ed1\u8272\u7d20-1", "en_name": ["6\u2032-(Diethylamino)-3\u2032-methyl-2\u2032-(phenylamino)spiro[isobenzofuran-1(3H),9\u2032-[9H]xanthen]-3-one", "Spiro[isobenzofuran-1(3H),9\u2032-[9H]xanthen]-3-one, 6\u2032-(diethylamino)-3\u2032-methyl-2\u2032-(phenylamino)-", "Fluoran, 2\u2032-anilino-6\u2032-(diethylamino)-3\u2032-methyl-", "6\u2032-(Diethylamino)-3\u2032-methyl-2\u2032-(phenylamino)spiro[isobenzofuran-1(3H),9\u2032-[9H]xanthen]-3-one", "2\u2032-Anilino-3\u2032-methyl-6\u2032-(diethylamino)fluoran", "2\u2032-Anilino-6\u2032-(diethylamino)-3\u2032-methylfluoran", "3-Diethylamino-6-methyl-7-(phenylamino)fluoran", "3\u2032-(Diethylamino)-6\u2032-methyl-7\u2032-anilinofluoran", "Copikem IV", "Copikem 4", "3\u2032-Diethylamino-6\u2032-methyl-7\u2032-phenylaminofluoran", "6\u2032-Diethylamino-3\u2032-methyl-2\u2032-phenylaminofluoran", "N 102", "2-Anilino-3-methyl-6-diethylaminofluoran", "ODB", "3-Diethylamino-6-methyl-7-anilinofluoran", "Yamamoto Black N 102", "Black N 102", "Pergascript Black 1C", "Chameleon TP Black 35", "Copikem 4 Black", "3-Diethylamino-6-methyl-7-phenylaminofluorane", "Pergascript Black IR", "Pergascript Black I-R", "2-Phenylamino-3-methyl-6-diethylaminofluoran", "Chameleon Black 1", "2\u2032-Anilino-6\u2032-(diethylamino)-3\u2032-methylspiro[2-benzofuran-3,9\u2032-xanthene]-1-one"], "SMILES": "O=C1OC2(C=3C(OC=4C2=CC=C(N(CC)CC)C4)=CC(C)=C(NC5=CC=CC=C5)C3)C=6C1=CC=CC6", "physical_data": {"Molecular Weight": "476.57", "Molecular Formula": "C31H28N2O3", "Melting Point": "195-197 \u00b0C"}}