{"cas_no": "29528-30-1", "cn_name": "2-(2'-\u5421\u5576)-\u82ef\u80fa", "en_name": ["2-(2-Pyridinyl)benzenamine", "Benzenamine, 2-(2-pyridinyl)-", "Pyridine, 2-(o-aminophenyl)-", "2-(2-Pyridinyl)benzenamine", "2-(2-Pyridyl)aniline", "2-(2-Aminophenyl)pyridine", "2-(2-Pyridinyl)aniline"], "SMILES": "NC1=C(C2=CC=CC=N2)C=CC=C1", "physical_data": {"Molecular Weight": "170.21", "Molecular Formula": "C11H10N2", "Melting Point": "77-78 \u00b0C"}}