{"cas_no": "29528-28-7", "cn_name": "4-(1H-\u54aa\u5511-4-\u57fa)\u82ef\u80fa", "en_name": ["4-(1H-Imidazol-5-yl)benzenamine", "Benzenamine, 4-(1H-imidazol-5-yl)-", "Imidazole, 4-(p-aminophenyl)-", "Benzenamine, 4-(1H-imidazol-4-yl)-", "4-(1H-Imidazol-5-yl)benzenamine", "4-(4-Aminophenyl)-1H-imidazole", "DA 4036", "4-(1H-Imidazol-4-yl)aniline", "4-(1H-Imidazol-4-yl)phenylamine"], "SMILES": "NC1=CC=C(C=C1)C2=CN=CN2", "physical_data": {"Molecular Weight": "159.19", "Molecular Formula": "C9H9N3", "Melting Point": "98 \u00b0C"}}