{"cas_no": "295349-64-3", "cn_name": "2-\u5417\u5549\u5f02\u5421\u5576\u7532\u9178", "en_name": ["2-(Morpholin-4-yl)isonicotinic acid", "4-Pyridinecarboxylic acid, 2-(4-morpholinyl)-", "2-(4-Morpholinyl)-4-pyridinecarboxylic acid", "2-(Morpholin-4-yl)isonicotinic acid", "2-Morpholinoisonicotinic acid", "2-Morpholinopyridine-4-carboxylic acid"], "SMILES": "C(O)(=O)C=1C=C(N=CC1)N2CCOCC2", "physical_data": {"Molecular Weight": "208.21", "Molecular Formula": "C10H12N2O3", "Melting Point": "187-189 \u00b0C"}}