{"cas_no": "2954-52-1", "cn_name": "\u539f\u513f\u8336\u9178", "en_name": ["2,3-Dihydro-5-propyl-2-thioxo-4(1H)-pyrimidinone", "4(1H)-Pyrimidinone, 2,3-dihydro-5-propyl-2-thioxo-", "Uracil, 5-propyl-2-thio-", "2,3-Dihydro-5-propyl-2-thioxo-4(1H)-pyrimidinone", "2-Thio-5-propyluracil", "5-Propyl-2-thiouracil"], "SMILES": "C(CC)C=1C(=O)NC(=S)NC1", "physical_data": {"Molecular Weight": "170.23", "Molecular Formula": "C7H10N2OS", "Melting Point": "161-163 \u00b0C"}}