{"cas_no": "29540-81-6", "cn_name": "1-(\u4e09\u6c1f\u4ee3\u7532\u70f7\u78fa\u9170\u57fa)\u54aa\u5511", "en_name": ["1-[(Trifluoromethyl)sulfonyl]-1H-imidazole", "1H-Imidazole, 1-[(trifluoromethyl)sulfonyl]-", "Imidazole, 1-[(trifluoromethyl)sulfonyl]-", "1-[(Trifluoromethyl)sulfonyl]-1H-imidazole", "N-Trifluoromethanesulfonylimidazole", "NSC 114260", "NSC 270680", "1-(Trifluoromethanesulfonyl)imidazole", "1-Trifluoromethanesulfonyl-1H-imidazole", "1-(Trifluoromethylsulfonyl)imidazole"], "SMILES": "S(C(F)(F)F)(=O)(=O)N1C=CN=C1", "physical_data": {"Molecular Weight": "200.14", "Molecular Formula": "C4H3F3N2O2S", "Melting Point": "19-20 \u00b0C"}}