{"cas_no": "2954-50-9", "cn_name": "1,2,3,4-\u56db\u6c22-2-\u8418\u80fa", "en_name": ["2-Aminotetralin", "2-Naphthalenamine, 1,2,3,4-tetrahydro-", "2-Naphthylamine, 1,2,3,4-tetrahydro-", "1,2,3,4-Tetrahydro-2-naphthalenamine", "2-Aminotetralin", "\u03b2-1,2,3,4-Tetrahydronaphthylamine", "1,2,3,4-Tetrahydro-2-naphthylamine", "2-Amino-1,2,3,4-tetrahydronaphthalene", "JGC 127", "(\u00b1)-2-Aminotetralin", "(RS)-2-Aminotetralin", "3-Amino-1,2,3,4-tetrahydronaphthalene", "(1,2,3,4-Tetrahydronaphthalen-2-yl)amine", "2-Aminotetraline", "Tetralin-2-amine"], "SMILES": "NC1CC=2C(CC1)=CC=CC2", "physical_data": {"Molecular Weight": "147.22", "Molecular Formula": "C10H13N", "Boiling Point": "118.5 \u00b0C @ Press: 12 Torr", "Melting Point": "149-151 \u00b0C"}}