{"cas_no": "29548-30-9", "cn_name": "3,7,11-\u4e09\u7532\u57fa-2,6,10-\u5341\u4e8c\u70f7\u4e09\u70ef-1-\u9187\u4e59\u9178\u916f", "en_name": ["Farnesyl acetate", "2,6,10-Dodecatrien-1-ol, 3,7,11-trimethyl-, 1-acetate", "2,6,10-Dodecatrien-1-ol, 3,7,11-trimethyl-, acetate", "1-Acetoxy-3,7,11-trimethyl-2,6,10-dodecatriene", "Farnesol acetate", "3,7,11-Trimethyl-2,6,10-dodecatrienyl acetate", "Farnesyl acetate", "NSC 132958"], "SMILES": "C(=CCCC(=CCOC(C)=O)C)(CCC=C(C)C)C", "physical_data": {"Molecular Weight": "264.40", "Molecular Formula": "C17H28O2", "Boiling Point": "105-107 \u00b0C @ Press: 2 Torr", "Melting Point": "63-64 \u00b0C (sublm)", "Density": "0.9247 g/cm\u00b3 @ Temp: 20 \u00b0C"}}