{"cas_no": "2955-88-6", "cn_name": "N-(2-\u7f9f\u4e59\u57fa)-\u5421\u54af\u70f7", "en_name": ["1-Pyrrolidineethanol", "1-Pyrrolidineethanol", "2-(1-Pyrrolidino)ethanol", "N-(2-Hydroxyethyl)pyrrolidine", "2-Pyrrolidinoethanol", "1-(2-Hydroxyethyl)pyrrolidine", "2-(1-Pyrrolidinyl)ethanol", "N-(\u03b2-Hydroxyethyl)pyrrolidine", "Epolamine", "2-(Pyrrolidinyl)ethanol", "NSC 26883", "2-(Pyrrolidin-1-yl)ethan-1-ol", "N-Hydroxyethyl pyrrolidine"], "SMILES": "C(CO)N1CCCC1", "physical_data": {"Molecular Weight": "115.17", "Molecular Formula": "C6H13NO", "Boiling Point": "187-189 \u00b0C", "Density": "0.9785 g/cm\u00b3 @ Temp: 20 \u00b0C"}}