{"cas_no": "2955-65-9", "cn_name": "3,6-\u8f9b\u4e8c\u916e", "en_name": ["3,6-Octanedione", "3,6-Octanedione", "3,6-Octandione"], "SMILES": "C(CCC(CC)=O)(CC)=O", "physical_data": {"Molecular Weight": "142.20", "Molecular Formula": "C8H14O2", "Boiling Point": "98 \u00b0C @ Press: 14 Torr", "Melting Point": "34-35 \u00b0C"}}