{"cas_no": "2955-27-3", "cn_name": "\u718a\u679c\u80c6\u9178", "en_name": ["Ursocholic acid", "Cholan-24-oic acid, 3,7,12-trihydroxy-, (3\u03b1,5\u03b2,7\u03b2,12\u03b1)-", "5\u03b2-Cholan-24-oic acid, 3\u03b1,7\u03b2,12\u03b1-trihydroxy-", "5\u03b2-Cholanic acid, 3\u03b1,7\u03b2,12\u03b1-trihydroxy-", "(3\u03b1,5\u03b2,7\u03b2,12\u03b1)-3,7,12-Trihydroxycholan-24-oic acid", "7-Epicholic acid", "3\u03b1,7\u03b2,12\u03b1-Trihydroxycholanic acid", "3\u03b1,7\u03b2,12\u03b1-Trihydroxy-5\u03b2-cholan-24-oic acid", "3\u03b1,7\u03b2,12\u03b1-Trihydroxy-5\u03b2-cholanic acid", "3\u03b1,7\u03b2,12\u03b1-Trihydroxy-5\u03b2-cholanoic acid", "Ursocholic acid", "7\u03b2-Hydroxyisocholic acid"], "SMILES": "OC1C2C3C(C)(C(C(CCC(O)=O)C)CC3)C(O)CC2C4(C)C(C1)CC(O)CC4", "physical_data": {"Molecular Weight": "408.57", "Molecular Formula": "C24H40O5", "Melting Point": "144 \u00b0C"}}