{"cas_no": "29558-77-8", "cn_name": "4-\u7f9f\u57fa-4'-\u6eb4\u8054\u82ef", "en_name": ["4-Bromo-4\u2032-hydroxybiphenyl", "[1,1\u2032-Biphenyl]-4-ol, 4\u2032-bromo-", "4-Biphenylol, 4\u2032-bromo-", "Phenol, p-(p-bromophenyl)-", "4\u2032-Bromo[1,1\u2032-biphenyl]-4-ol", "4\u2032-Bromo-4-biphenylol", "4-(4-Bromophenyl)phenol", "4-Hydroxy-4\u2032-bromobiphenyl", "4-Bromo-4\u2032-hydroxybiphenyl", "4-(4\u2032-Bromophenyl)phenol", "NSC 130468", "NSC 17284", "4-(4-Hydroxyphenyl)bromobenzene", "4\u2032-Bromo-4-hydroxybiphenyl", "4-Bromo-4\u2032-hydroxy-1,1\u2032-biphenyl"], "SMILES": "BrC1=CC=C(C=C1)C2=CC=C(O)C=C2", "physical_data": {"Molecular Weight": "249.10", "Molecular Formula": "C12H9BrO", "Melting Point": "164-166 \u00b0C"}}