{"cas_no": "29558-78-9", "cn_name": "4-\u7f9f\u57fa-4'-\u7898\u8054\u82ef", "en_name": ["4-Hydroxy-4\u2032-iodobiphenyl", "[1,1\u2032-Biphenyl]-4-ol, 4\u2032-iodo-", "4-Biphenylol, 4\u2032-iodo-", "4\u2032-Iodo[1,1\u2032-biphenyl]-4-ol", "4\u2032-Iodo-4-biphenylol", "4-Hydroxy-4\u2032-iodobiphenyl", "4\u2032-Iodo-1,1\u2032-biphenyl-4-ol"], "SMILES": "IC1=CC=C(C=C1)C2=CC=C(O)C=C2", "physical_data": {"Molecular Weight": "296.10", "Molecular Formula": "C12H9IO", "Melting Point": "194 \u00b0C"}}