{"cas_no": "2955-37-5", "cn_name": "7-\u6c2f-2-\u6c27\u4ee3-5-(2-\u6c2f\u82ef\u57fa)-1,4-\u82ef\u5e76\u4e8c\u6c2e\u6742\u5353-4-\u6c27\u5316\u7269", "en_name": ["7-Chloro-5-(2-chlorophenyl)-1,3-dihydro-2H-1,4-benzodiazepin-2-one-4-oxide", "2H-1,4-Benzodiazepin-2-one, 7-chloro-5-(2-chlorophenyl)-1,3-dihydro-, 4-oxide", "2H-1,4-Benzodiazepin-2-one, 7-chloro-5-(o-chlorophenyl)-1,3-dihydro-, 4-oxide", "7-Chloro-5-(2-chlorophenyl)-1,3-dihydro-2H-1,4-benzodiazepin-2-one-4-oxide"], "SMILES": "O=N1=C(C=2C(NC(=O)C1)=CC=C(Cl)C2)C3=C(Cl)C=CC=C3", "physical_data": {"Molecular Weight": "321.16", "Molecular Formula": "C15H10Cl2N2O2", "Melting Point": "248-249 \u00b0C"}}