{"cas_no": "29555-02-0", "cn_name": "2-\u7532\u57fa\u73af\u4e19\u7fa7\u9178", "en_name": ["2-Methylcyclopropanecarboxylic acid", "Cyclopropanecarboxylic acid, 2-methyl-", "2-Methylcyclopropanecarboxylic acid", "2-Methylcyclopropylcarboxylic acid", "2-Methyl-1-cyclopropanecarboxylic acid"], "SMILES": "C(O)(=O)C1C(C)C1", "physical_data": {"Molecular Weight": "100.12", "Molecular Formula": "C5H8O2", "Boiling Point": "191 \u00b0C", "Density": "1.0269 g/cm\u00b3 @ Temp: 20 \u00b0C"}}