{"cas_no": "2957-21-3", "cn_name": "\u6a31\u82b1\u4ead", "en_name": ["Sakuranetin", "4H-1-Benzopyran-4-one, 2,3-dihydro-5-hydroxy-2-(4-hydroxyphenyl)-7-methoxy-, (2S)-", "Flavanone, 4\u2032,5-dihydroxy-7-methoxy-, (S)-(-)-", "Sakuranetin", "4H-1-Benzopyran-4-one, 2,3-dihydro-5-hydroxy-2-(4-hydroxyphenyl)-7-methoxy-, (S)-", "(2S)-2,3-Dihydro-5-hydroxy-2-(4-hydroxyphenyl)-7-methoxy-4H-1-benzopyran-4-one", "(S)-4\u2032,5-Dihydroxy-7-methoxyflavanone", "Naringenin 7-methyl ether", "Naringenin 7-O-methyl ether", "7-O-Methylnaringenin", "(-)-(S)-Sakuranetin", "5,4\u2032-Dihydroxy-7-methoxyflavanone"], "SMILES": "O=C1C=2C(OC(C1)C3=CC=C(O)C=C3)=CC(OC)=CC2O", "physical_data": {"Molecular Weight": "286.28", "Molecular Formula": "C16H14O5", "Melting Point": "152 \u00b0C"}}