{"cas_no": "29576-14-5", "cn_name": "2-\u4e01\u70ef\u57fa\u6eb4", "en_name": ["(2E)-1-Bromo-2-butene", "2-Butene, 1-bromo-, (2E)-", "2-Butene, 1-bromo-, (E)-", "(2E)-1-Bromo-2-butene", "trans-Crotyl bromide", "trans-1-Bromo-2-butene", "1-Bromo-trans-2-butene", "trans-But-2-enyl bromide", "(E)-But-2-enyl bromide", "(E)-4-Bromo-2-butene", "(E)-Crotyl bromide", "(E)-1-Bromo-2-butene", "trans-4-Bromo-2-butene", "(E)-2-Buten-1-yl bromide", "(2E)-1-Bromobut-2-ene", "(E)-Crotyl bromide"], "SMILES": "C(CBr)=CC", "physical_data": {"Molecular Weight": "135.00", "Molecular Formula": "C4H7Br", "Boiling Point": "80 \u00b0C @ Press: 152 Torr"}}