{"cas_no": "29582-39-6", "cn_name": "\u53cd-3-(4-\u6c2f\u82ef\u7532\u9170)\u4e19\u70ef\u9178", "en_name": ["(2E)-4-(4-Chlorophenyl)-4-oxo-2-butenoic acid", "2-Butenoic acid, 4-(4-chlorophenyl)-4-oxo-, (2E)-", "Acrylic acid, 3-(p-chlorobenzoyl)-, (E)-", "2-Butenoic acid, 4-(4-chlorophenyl)-4-oxo-, (E)-", "(2E)-4-(4-Chlorophenyl)-4-oxo-2-butenoic acid", "trans-3-(p-Chlorobenzoyl)acrylic acid", "4-(4-Chlorophenyl)-4-oxo-2(E)-butenoic acid", "trans-\u03b2-(p-Chlorobenzoyl)acrylic acid", "trans-3-(4-Chlorobenzoyl)acrylic acid"], "SMILES": "C(C=CC(O)=O)(=O)C1=CC=C(Cl)C=C1", "physical_data": {"Molecular Weight": "210.61", "Molecular Formula": "C10H7ClO3", "Melting Point": "153.7-154.7 \u00b0C"}}