{"cas_no": "2958-36-3", "cn_name": "2-\u6c28\u57fa-2',5-\u4e8c\u6c2f\u4e8c\u82ef\u916e", "en_name": ["2-Amino-2\u2032,5-dichlorobenzophenone", "Methanone, (2-amino-5-chlorophenyl)(2-chlorophenyl)-", "Benzophenone, 2-amino-2\u2032,5-dichloro-", "(2-Amino-5-chlorophenyl)(2-chlorophenyl)methanone", "2-Amino-2\u2032,5-dichlorobenzophenone", "2\u2032,5-Dichloro-2-aminobenzophenone", "2,5\u2032-Dichloro-2\u2032-aminobenzophenone", "2-Amino-5-chloro-2\u2032-chlorobenzophenone", "NSC 611905"], "SMILES": "C(=O)(C1=C(N)C=CC(Cl)=C1)C2=C(Cl)C=CC=C2", "physical_data": {"Molecular Weight": "266.12", "Molecular Formula": "C13H9Cl2NO", "Melting Point": "88-89 \u00b0C"}}