{"cas_no": "2958-87-4", "cn_name": "2,3,6-\u4e09\u6c2f\u55b9\u5594\u5549", "en_name": ["2,3,6-Trichloroquinoxaline", "Quinoxaline, 2,3,6-trichloro-", "2,3,6-Trichloroquinoxaline", "NSC 203052"], "SMILES": "ClC1=NC2=C(N=C1Cl)C=CC(Cl)=C2", "physical_data": {"Molecular Weight": "233.48", "Molecular Formula": "C8H3Cl3N2", "Melting Point": "143-144 \u00b0C"}}