{"cas_no": "29588-88-3", "cn_name": "N-\u90bb\u82ef\u4e8c\u7532\u9170\u57fa-L-\u5f02\u4eae\u6c28\u9178", "en_name": ["(\u03b1S)-1,3-Dihydro-\u03b1-[(1S)-1-methylpropyl]-1,3-dioxo-2H-isoindole-2-acetic acid", "2H-Isoindole-2-acetic acid, 1,3-dihydro-\u03b1-[(1S)-1-methylpropyl]-1,3-dioxo-, (\u03b1S)-", "2-Isoindolineacetic acid, \u03b1-sec-butyl-1,3-dioxo-, L-erythro-", "2H-Isoindole-2-acetic acid, 1,3-dihydro-\u03b1-(1-methylpropyl)-1,3-dioxo-, [S-(R*,R*)]-", "(\u03b1S)-1,3-Dihydro-\u03b1-[(1S)-1-methylpropyl]-1,3-dioxo-2H-isoindole-2-acetic acid", "N-Phthaloyl-L-isoleucine", "L-N-Phthaloyl-Isoleucine"], "SMILES": "C(C(CC)C)(C(O)=O)N1C(=O)C=2C(C1=O)=CC=CC2", "physical_data": {"Molecular Weight": "261.27", "Molecular Formula": "C14H15NO4", "Melting Point": "123-125 \u00b0C"}}