{"cas_no": "2959-96-8", "cn_name": "2-\u82ef\u57fa\u620a\u4e8c\u9178\u9150", "en_name": ["2-Phenylglutaric anhydride", "2H-Pyran-2,6(3H)-dione, dihydro-3-phenyl-", "Glutaric anhydride, 2-phenyl-", "Dihydro-3-phenyl-2H-pyran-2,6(3H)-dione", "2-Phenylpentanedioic acid anhydride", "2-Phenylglutaric anhydride", "NSC 65629", "3-Phenyloxane-2,6-dione"], "SMILES": "O=C1C(C2=CC=CC=C2)CCC(=O)O1", "physical_data": {"Molecular Weight": "190.20", "Molecular Formula": "C11H10O3", "Boiling Point": "170-180 \u00b0C @ Press: 0.5-0.7 Torr", "Melting Point": "95 \u00b0C"}}