{"cas_no": "29598-76-3", "cn_name": "\u6297\u6c27\u5316\u5242 TH-412S", "en_name": ["AO 412S", "Propanoic acid, 3-(dodecylthio)-, 1,1\u2032-[2,2-bis[[3-(dodecylthio)-1-oxopropoxy]methyl]-1,3-propanediyl] ester", "Propionic acid, 3-(dodecylthio)-, neopentanetetrayl ester", "Propanoic acid, 3-(dodecylthio)-, 2,2-bis[[3-(dodecylthio)-1-oxopropoxy]methyl]-1,3-propanediyl ester", "Pentaerythritol tetrakis(3-n-dodecylthiopropionate)", "Pentaerythritol tetrakis[3-(dodecylthio)propionate]", "Pentaerythritol tetrakis[3-laurylthiopropionate]", "Pentaerythritol tetrakis(\u03b2-laurylthiopropionate)", "Seenox 412S", "Pentaerythritol tetrakis(\u03b2-dodecylthiopropionate)", "Pentaerythritol tetrakis(dodecylthiopropionate)", "Sumilizer TP-D", "Mark AO 412S", "ADK Stab AO 412S", "AO 412S", "Tetrakis[methylene-3-(dodecylthio)propionate]methane", "AO-S 116", "TP-D", "Naugard 412S", "TH 412S", "Chinox S 4P", "Antioxidant 412S", "Pentaerythritol tetra(3-laurylthiopropionate)", "PTLP", "Thanox 412S", "S 4P", "Adeka AO 412S", "Pentaerythrithol tetrakis(3-dodecylthiopropionate)", "ADK Stab AAO 412S", "Adekastab AO 412S", "Pentaerythrityl tetrakis(3-laurylthiopropionate)", "Songnox 4120", "2,2-Bis[[3-(dodecylthio)-1-oxopropoxy]methyl]propane-1,3-diyl bis[3-(dodecylthio)propionate]", "Rianox 412S", "Antioxidant S 4P"], "SMILES": "C(COC(CCSCCCCCCCCCCCC)=O)(COC(CCSCCCCCCCCCCCC)=O)(COC(CCSCCCCCCCCCCCC)=O)COC(CCSCCCCCCCCCCCC)=O", "physical_data": {"Molecular Weight": "1161.94", "Molecular Formula": "C65H124O8S4", "Melting Point": "48-51 \u00b0C"}}