{"cas_no": "296-35-5", "cn_name": "1,4,7,10,13,16-\u516d\u6c2e\u6742\u73af\u5341\u516b\u70f7", "en_name": ["1,4,7,10,13,16-Hexaazacyclooctadecane", "1,4,7,10,13,16-Hexaazacyclooctadecane", "Hexacyclen", "Hexaaza-18-crown-6", "1,4,7,10,13,16-Hexazacyclooctadecane"], "SMILES": "C1CNCCNCCNCCNCCNCCN1", "physical_data": {"Molecular Weight": "258.41", "Molecular Formula": "C12H30N6", "Melting Point": "201 \u00b0C (decomp)"}}