{"cas_no": "2960-66-9", "cn_name": "\u53cd\u5f0f-4-\u6c27\u57fa-2-\u4e01\u70ef\u9178\u4e59\u916f", "en_name": ["Ethyl (2E)-4-oxo-2-butenoate", "2-Butenoic acid, 4-oxo-, ethyl ester, (2E)-", "Fumaraldehydic acid, ethyl ester", "2-Butenoic acid, 4-oxo-, ethyl ester, (E)-", "Ethyl (2E)-4-oxo-2-butenoate", "Ethyl trans-4-oxobutenoate", "Ethyl fumaraldehydate", "(E)-Ethyl 4-oxo-2-butenoate", "Ethyl (E)-3-formylacrylate", "Ethyl trans-4-oxo-2-butenoate", "(E)-4-Oxo-2-butenoic acid ethyl ester", "(2E)-4-Oxobut-2-enoic acid ethyl ester", "Ethyl (2E)-4-oxobut-2-enoate", "Ethyl (E)-4-oxobut-2-enoate"], "SMILES": "C(C=CC=O)(OCC)=O", "physical_data": {"Molecular Weight": "128.13", "Molecular Formula": "C6H8O3", "Boiling Point": "74 \u00b0C @ Press: 16 Torr"}}