{"cas_no": "29602-39-9", "cn_name": "N-(5-\u785d\u57fa-2-\u5421\u5576\u57fa)-1,2-\u4e59\u4e8c\u80fa", "en_name": ["2-[(2-Aminoethyl)amino]-5-nitropyridine", "1,2-Ethanediamine, N1-(5-nitro-2-pyridinyl)-", "Pyridine, 2-[(2-aminoethyl)amino]-5-nitro-", "1,2-Ethanediamine, N-(5-nitro-2-pyridinyl)-", "N1-(5-Nitro-2-pyridinyl)-1,2-ethanediamine", "2-(\u03b2-Aminoethylamino)-5-nitropyridine", "2-[(2-Aminoethyl)amino]-5-nitropyridine", "N1-(5-Nitropyrid-2-yl)ethane-1,2-diamine", "(2-Aminoethyl)(5-nitro-2-pyridyl)amine", "(2-((5-Nitropyridin-2-yl)amino)ethyl)amine", "N-(5-Nitropyridin-2-yl)ethane-1,2-diamine"], "SMILES": "N(=O)(=O)C=1C=CC(NCCN)=NC1", "physical_data": {"Molecular Weight": "182.18", "Molecular Formula": "C7H10N4O2", "Melting Point": "123 \u00b0C"}}