{"cas_no": "29608-49-9", "cn_name": "\u7532\u78fa\u9178\u963f\u7c73\u4e09\u55ea", "en_name": ["Almitrine bismesylate", "1,3,5-Triazine-2,4-diamine, 6-[4-[bis(4-fluorophenyl)methyl]-1-piperazinyl]-N2,N4-di-2-propen-1-yl-, methanesulfonate (1:2)", "s-Triazine, 2,4-bis(allylamino)-6-[4-[bis(p-fluorophenyl)methyl]-1-piperazinyl]-, dimethanesulfonate", "1,3,5-Triazine-2,4-diamine, 6-[4-[bis(4-fluorophenyl)methyl]-1-piperazinyl]-N,N\u2032-di-2-propenyl-, dimethanesulfonate", "1-(4,6-Bis(allylamino)-2-s-triazinyl)-4-(4,4\u2032-difluorobenzhydryl)piperazine bis(methane sulfonate)", "1-[4,6-Bis(allylamino)-s-triazin-2-yl]-4-(di-p-fluorobenzhydryl)piperazine bis(methanesulfonate)", "1-(4,6-Diallylamino-2-triazinyl)-4-(di-p-fluorobenzhydryl)piperazine bis(methanesulfonate)", "Almitrine bismethanesulfonate", "Almitrine dimesylate", "Vectarion", "Almitrine bismesylate", "Almitrine dimethanesulfonate", "Almitrine mesylate"], "SMILES": "S(C)(=O)(=O)O.C(N1CCN(CC1)C=2N=C(NCC=C)N=C(NCC=C)N2)(C3=CC=C(F)C=C3)C4=CC=C(F)C=C4", "physical_data": {"Molecular Weight": "", "Molecular Formula": "C26H29F2N7.2CH4O3S", "Melting Point": "243 \u00b0C (decomp)"}}