{"cas_no": "29605-88-7", "cn_name": "2-\u4e19\u70ef\u57fa-3-\u7532\u57fa-4-\u7f9f\u57fa-2-\u73af\u620a\u70ef-1-\u916e", "en_name": ["Allethrolone", "2-Cyclopenten-1-one, 4-hydroxy-3-methyl-2-(2-propen-1-yl)-", "2-Cyclopenten-1-one, 2-allyl-4-hydroxy-3-methyl-, (\u00b1)-", "2-Cyclopenten-1-one, 4-hydroxy-3-methyl-2-(2-propenyl)-, (\u00b1)-", "2-Cyclopenten-1-one, 4-hydroxy-3-methyl-2-(2-propenyl)-", "4-Hydroxy-3-methyl-2-(2-propen-1-yl)-2-cyclopenten-1-one", "dl-Allethrolone", "(\u00b1)-Allethrolone", "Allethrolone", "(RS)-Allethrolone", "(RS)-4-Hydroxy-3-methyl-2-(2-propenyl)-2-cyclopenten-1-one", "2-Allyl-3-methyl-2-cyclopenten-1-on-4-ol", "2-Allyl-4-hydroxy-3-methyl-2-cyclopenten-1-one", "(\u00b1)-ALON", "4-Hydroxy-3-methyl-2-(2-propenyl)-2-cyclopenten-1-one", "NSC 42192"], "SMILES": "C(C=C)C1=C(C)C(O)CC1=O", "physical_data": {"Molecular Weight": "152.19", "Molecular Formula": "C9H12O2", "Boiling Point": "100-103 \u00b0C @ Press: 0.15 Torr"}}