{"cas_no": "29617-66-1", "cn_name": "(S)-(-)-2-\u6c2f\u4e19\u9178", "en_name": ["(2S)-2-Chloropropanoic acid", "Propanoic acid, 2-chloro-, (2S)-", "Propionic acid, 2-chloro-, L-", "Propanoic acid, 2-chloro-, (S)-", "(2S)-2-Chloropropanoic acid", "2-Chloro-L-propionic acid", "2(S)-Chloropropionic acid", "(S)-2-Chloropropionic acid", "L-2-Chloropropanoic acid", "L-2-Chloropropionic acid", "\u03b1-L-Chloropropionic acid", "(S)-2-Chloropropanoic acid", "S-(-)-2-Chloropropionic acid", "(2S)-Chloropropanoic acid", "(-)-2-Chloropropionic acid", "(-)-2-Chloropropanoic acid", "(-)-\u03b1-Chloropropanoic acid", "(S)-\u03b1-Chloropropionic acid", "(2S)-2-Chloropropionic acid", "(2S)-2-Chloropropanoic acid"], "SMILES": "C(C(O)=O)(C)Cl", "physical_data": {"Molecular Weight": "108.52", "Molecular Formula": "C3H5ClO2", "Boiling Point": "75 \u00b0C @ Press: 10 Torr"}}