{"cas_no": "2961-50-4", "cn_name": "4-\u6b63\u620a\u57fa\u5421\u5576", "en_name": ["4-Pentylpyridine", "Pyridine, 4-pentyl-", "4-Pentylpyridine", "1-(4-Pyridyl)pentane", "4-Amylpyridine", "4-n-Pentylpyridine", "NSC 4694"], "SMILES": "C(CCCC)C=1C=CN=CC1", "physical_data": {"Molecular Weight": "149.23", "Molecular Formula": "C10H15N", "Boiling Point": "229-230 \u00b0C", "Density": "0.9031 g/cm\u00b3 @ Temp: 20 \u00b0C"}}