{"cas_no": "29621-88-3", "cn_name": "L-\u7852\u4ee3\u80f1\u80fa\u57fa\u4e59\u9178", "en_name": ["L-Selenocystine", "L-Alanine, 3,3\u2032-diselenobis-", "Alanine, 3,3\u2032-diselenodi-, L-", "3,3\u2032-Diselenobis[L-alanine]", "L-Selenocystine", "Selenocystine"], "SMILES": "C(C[Se][Se]CC(C(O)=O)N)(C(O)=O)N", "physical_data": {"Molecular Weight": "334.09", "Molecular Formula": "C6H12N2O4Se2", "Melting Point": "222 \u00b0C (decomp)"}}