{"cas_no": "29632-74-4", "cn_name": "2-\u6c1f-4-\u7898\u82ef\u80fa", "en_name": ["2-Fluoro-4-iodoaniline", "Benzenamine, 2-fluoro-4-iodo-", "Aniline, 2-fluoro-4-iodo-", "2-Fluoro-4-iodobenzenamine", "2-Fluoro-4-iodoaniline", "4-Iodo-2-fluoroaniline", "2-Fluoro-4-iodophenylamine", "NSC 146507"], "SMILES": "FC1=C(N)C=CC(I)=C1", "physical_data": {"Molecular Weight": "237.01", "Molecular Formula": "C6H5FIN", "Melting Point": "52-53 \u00b0C"}}