{"cas_no": "2963-66-8", "cn_name": "2-(2-\u7f9f\u82ef\u57fa)\u82ef\u5e76\u54aa\u5511", "en_name": ["2-(2\u2032-Hydroxyphenyl)benzimidazole", "Phenol, 2-(1H-benzimidazol-2-yl)-", "Phenol, o-2-benzimidazolyl-", "2-(1H-Benzimidazol-2-yl)phenol", "2-(2-Hydroxyphenyl)benzimidazole", "2-(2\u2032-Hydroxyphenyl)benzimidazole", "2-(2-Benzimidazolyl)phenol", "2-(o-Hydroxyphenyl)benzimidazole", "HBI", "2-(2-Hydroxyphenyl)-1H-benzimidazole", "NSC 32819", "2-(2-Hydroxyphenyl)-3H-benzimidazole", "6-(1H-Benzimidazol-2-yl)-2,3,5-cyclohexatrien-1-ol", "2-(1H-Benzo[d]imidazol-2-yl)phenol", "2-(1H-1,3-Benzodiazol-2-yl)phenol"], "SMILES": "OC1=C(C=2NC=3C(N2)=CC=CC3)C=CC=C1", "physical_data": {"Molecular Weight": "210.23", "Molecular Formula": "C13H10N2O", "Melting Point": "242 \u00b0C"}}