{"cas_no": "29636-87-1", "cn_name": "4-\u7f9f\u7532\u57fa-5-\u7532\u57fa\u54aa\u5511", "en_name": ["4-(Hydroxymethyl)-5-methylimidazole", "1H-Imidazole-5-methanol, 4-methyl-", "Imidazole-4-methanol, 5-methyl-", "1H-Imidazole-4-methanol, 5-methyl-", "Imidazole-4(or 5)-methanol, 5(or 4)-methyl-", "4-Methyl-1H-imidazole-5-methanol", "4-(Hydroxymethyl)-5-methylimidazole", "5-Methyl-4-imidazolemethanol", "5-(Hydroxymethyl)-4-methylimidazole", "5-Methyl-1H-imidazole-4-methanol", "4-Methyl-5-imidazolemethanol", "4-Methyl-5-(hydroxymethyl)imidazole", "4-(Hydroxymethyl)-5-methyl-1H-imidazole"], "SMILES": "C(O)C1=C(C)N=CN1", "physical_data": {"Molecular Weight": "112.13", "Molecular Formula": "C5H8N2O", "Melting Point": "136 \u00b0C"}}