{"cas_no": "2964-09-2", "cn_name": "\u82ef\u7532\u9170\u6c2f\u5316\u80c6\u78b1", "en_name": ["Ethanaminium, 2-(benzoyloxy)-N,N,N-trimethyl-, chloride (1:1)", "Ethanaminium, 2-(benzoyloxy)-N,N,N-trimethyl-, chloride (1:1)", "Choline, chloride, benzoate", "Ethanaminium, 2-(benzoyloxy)-N,N,N-trimethyl-, chloride", "Benzoylcholine chloride"], "SMILES": "C(OCC[N+](C)(C)C)(=O)C1=CC=CC=C1.[Cl-]", "physical_data": {"Molecular Weight": "", "Molecular Formula": "C12H18NO2.Cl", "Melting Point": "200 \u00b0C"}}