{"cas_no": "2964-48-9", "cn_name": "(1S,2S)-2-\u6c28\u57fa-1-(4-\u785d\u57fa\u82ef\u57fa)\u4e19\u70f7-1,3-\u4e8c\u9187", "en_name": ["(1S,2S)-2-Amino-1-(4-nitrophenyl)-1,3-propanediol", "1,3-Propanediol, 2-amino-1-(4-nitrophenyl)-, (1S,2S)-", "1,3-Propanediol, 2-amino-1-(p-nitrophenyl)-, L-threo-(+)-", "1,3-Propanediol, 2-amino-1-(4-nitrophenyl)-, [S-(R*,R*)]-", "(1S,2S)-2-Amino-1-(4-nitrophenyl)-1,3-propanediol", "Threomine", "L-(+)-threo-1-(p-Nitrophenyl)-2-amino-1,3-propanediol", "L-(p-Nitrophenyl)-2-amino-1,3-propanediol", "Dextramine", "L-threo-(+)-2-Amino-1-(4-nitrophenyl)-1,3-propanediol", "L-1-(p-Nitrophenyl)-2-aminopropane-1,3-diol", "threo-(1S,2S)-2-Amino-1-(4-nitrophenyl)-1,3-propanediol", "(1S,2S)-(+)-2-Amino-1-(4-nitrophenyl)-1,3-propanediol", "NSC 12466", "(2S,3S)-2-Amino-3-(4-nitrophenyl)propane-1,3-diol"], "SMILES": "C(C(CO)N)(O)C1=CC=C(N(=O)=O)C=C1", "physical_data": {"Molecular Weight": "212.20", "Molecular Formula": "C9H12N2O4", "Melting Point": "163-164 \u00b0C"}}