{"cas_no": "29644-97-1", "cn_name": "\u0391-(\u5bf9\u6c28\u57fa\u82ef\u57fa)\u4e01\u9178", "en_name": ["4-Amino-\u03b1-ethylbenzeneacetic acid", "Benzeneacetic acid, 4-amino-\u03b1-ethyl-", "Butyric acid, 2-(p-aminophenyl)-", "4-Amino-\u03b1-ethylbenzeneacetic acid", "NSC 27530", "2-(4-Aminophenyl)butanoic acid"], "SMILES": "C(C(O)=O)(CC)C1=CC=C(N)C=C1", "physical_data": {"Molecular Weight": "179.22", "Molecular Formula": "C10H13NO2", "Melting Point": "142-143 \u00b0C"}}