{"cas_no": "29650-44-0", "cn_name": "2-\u6c1f\u82ef\u57fa\u4e59\u9178\u916f", "en_name": ["Phenol, 2-fluoro-, 1-acetate", "Phenol, 2-fluoro-, 1-acetate", "Phenol, o-fluoro-, acetate", "Phenol, 2-fluoro-, acetate", "o-Fluorophenyl acetate", "2-Fluorophenyl acetate"], "SMILES": "O(C(C)=O)C1=C(F)C=CC=C1", "physical_data": {"Molecular Weight": "154.14", "Molecular Formula": "C8H7FO2", "Boiling Point": "192-194 \u00b0C @ Press: 737 Torr"}}