{"cas_no": "2965-16-4", "cn_name": "2-\u6c2f-5-\u6c1f\u82ef\u4e59\u916e", "en_name": ["1-(2-Chloro-5-fluorophenyl)ethanone", "Ethanone, 1-(2-chloro-5-fluorophenyl)-", "Acetophenone, 2\u2032-chloro-5\u2032-fluoro-", "1-(2-Chloro-5-fluorophenyl)ethanone", "2-Chloro-5-fluorophenyl methyl ketone", "2\u2032-Chloro-5\u2032-fluoroacetophenone"], "SMILES": "C(C)(=O)C1=C(Cl)C=CC(F)=C1", "physical_data": {"Molecular Weight": "172.58", "Molecular Formula": "C8H6ClFO", "Boiling Point": "77-78 \u00b0C @ Press: 4 Torr", "Density": "1.2884 g/cm\u00b3 @ Temp: 23 \u00b0C"}}