{"cas_no": "29654-55-5", "cn_name": "3,5-\u4e8c\u7f9f\u57fa\u82ef\u7532\u9187", "en_name": ["3,5-Dihydroxybenzyl alcohol", "1,3-Benzenediol, 5-(hydroxymethyl)-", "Benzyl alcohol, 3,5-dihydroxy-", "5-(Hydroxymethyl)-1,3-benzenediol", "3,5-Dihydroxybenzyl alcohol", "5-(Hydroxymethyl)resorcinol", "1,3-Dihydroxy-5-(hydroxymethyl)benzene"], "SMILES": "C(O)C1=CC(O)=CC(O)=C1", "physical_data": {"Molecular Weight": "140.14", "Molecular Formula": "C7H8O3", "Melting Point": "182 \u00b0C"}}