{"cas_no": "29668-44-8", "cn_name": "1,4-\u82ef\u5e76\u4e8c\u6076\u70f7-6-\u7532\u919b", "en_name": ["1,4-Benzodioxan-6-carboxaldehyde", "1,4-Benzodioxin-6-carboxaldehyde, 2,3-dihydro-", "1,4-Benzodioxan-6-carboxaldehyde", "2,3-Dihydro-1,4-benzodioxin-6-carboxaldehyde", "1,4-Benzodioxane-6-carboxaldehyde", "3,4-Ethylenedioxybenzaldehyde", "2,3-Dihydro-1,4-benzodioxan-6-carboxaldehyde", "2,3-Dihydro-1,4-benzodioxin-6-aldehyde", "2,3-Dihydrobenzo[1,4]dioxine-6-carboxaldehyde", "1,4-Benzodioxane-6-aldehyde", "2,3-Dihydrobenzo[b][1,4]dioxine-6-carboxaldehyde", "2,3-Dihydrobenzo[b][1,4]dioxin-6-carboxaldehyde", "1,4-Benzodioxan-7-formaldehyde", "2,3-Dihydro-1,4-benzodioxine-6-carbaldehyde", "2,3-Dihydro-benzo[1,4]dioxine-6-carbaldehyde"], "SMILES": "C(=O)C=1C=C2C(=CC1)OCCO2", "physical_data": {"Molecular Weight": "164.16", "Molecular Formula": "C9H8O3", "Boiling Point": "105-108 \u00b0C @ Press: 0.3 mbar", "Melting Point": "49.5-50.5 \u00b0C"}}