{"cas_no": "29663-54-5", "cn_name": "\u516d\u6c1f\u78f7\u9178\u5353\u7fc1", "en_name": ["Cycloheptatrienylium, hexafluorophosphate(1-) (1:1)", "Cycloheptatrienylium, hexafluorophosphate(1-) (1:1)", "Cycloheptatrienylium, hexafluorophosphate(1-)", "Phosphate(1-), hexafluoro-, cycloheptatrienylium", "Tropylium hexafluorophosphate"], "SMILES": "", "physical_data": {"Molecular Weight": "", "Molecular Formula": "C7H7.F6P", "Melting Point": "190-215 \u00b0C (decomp)"}}