{"cas_no": "2966-50-9", "cn_name": "\u4e09\u6c1f\u4e59\u9178\u94f6", "en_name": ["Silver trifluoroacetate", "Acetic acid, 2,2,2-trifluoro-, silver(1+) salt (1:1)", "Acetic acid, trifluoro-, silver(1+) salt", "Silver mono(trifluoroacetate)", "Silver(1+) trifluoroacetate", "Silver trifluoroacetate", "Trifluoroacetic acid silver(1+) salt", "Silver(I) trifluoroacetate", "Silver perfluoroacetate", "Trifluorooacetic acid, silver salt (1:1)", "Silver(1+) 2,2,2-trifluoroacetate"], "SMILES": "C(C(O)=O)(F)(F)F.[Ag]", "physical_data": {"Molecular Weight": "", "Molecular Formula": "C2HF3O2.Ag", "Melting Point": "251-253 \u00b0C (decomp)"}}