{"cas_no": "29676-71-9", "cn_name": "2-\u6c28\u57fa\u567b\u5511-4-\u4e59\u9178", "en_name": ["2-Amino-4-thiazoleacetic acid", "4-Thiazoleacetic acid, 2-amino-", "2-Amino-4-thiazoleacetic acid", "2-Aminothiazole-4-acetic acid", "2-Amino-4-thiazolylacetic acid", "SQ 272", "(2-Amino-4-thiazoyl)acetic acid", "2-(2-Amino-4-thiazolyl)acetic acid", "(2-Amino-1,3-thiazol-4-yl)acetic acid", "2-Aminothiazol-4-acetic acid", "2-(2-Amino-4-thiazole)acetic acid", "2-(2-Amino-1,3-thiazol-4-yl)acetic acid", "2-(2-Azaniumyl-1,3-thiazol-4-yl)acetate"], "SMILES": "C(C(O)=O)C=1N=C(N)SC1", "physical_data": {"Molecular Weight": "158.18", "Molecular Formula": "C5H6N2O2S", "Melting Point": "131-132 \u00b0C"}}