{"cas_no": "29679-58-1", "cn_name": "\u83f2\u8bfa\u6d1b\u82ac", "en_name": ["Fenoprofen", "Benzeneacetic acid, \u03b1-methyl-3-phenoxy-", "Hydratropic acid, m-phenoxy-", "\u03b1-Methyl-3-phenoxybenzeneacetic acid", "2-(3-Phenoxyphenyl)propionic acid", "3-Phenoxyhydratropic acid", "2-(m-Phenoxyphenyl)propionic acid", "Fenoprofen", "(\u00b1)-m-Phenoxyhydratropic acid", "dl-2-(3-Phenoxyphenyl)propionic acid", "(\u00b1)-2-(3-Phenoxyphenyl)propionic acid", "(\u00b1)-Fenoprofen", "Lilly 53858", "2-(3-Phenoxyphenyl)-1-propanoic acid", "2-(3-Phenoxyphenyl)propanoic acid", "m-Phenoxyhydratropic acid", "MeSH ID: D005279"], "SMILES": "O(C1=CC(C(C(O)=O)C)=CC=C1)C2=CC=CC=C2", "physical_data": {"Molecular Weight": "242.27", "Molecular Formula": "C15H14O3", "Boiling Point": "168-171 \u00b0C @ Press: 0.11 Torr"}}