{"cas_no": "29678-81-7", "cn_name": "(R)-2-\u7f9f\u57fa-4-\u82ef\u57fa\u4e01\u9178", "en_name": ["(R)-2-Hydroxy-4-phenylbutyric acid", "Benzenebutanoic acid, \u03b1-hydroxy-, (\u03b1R)-", "Butyric acid, 2-hydroxy-4-phenyl-, D-(-)-", "Benzenebutanoic acid, \u03b1-hydroxy-, (R)-", "(\u03b1R)-\u03b1-Hydroxybenzenebutanoic acid", "D-(-)-Benzyllactic acid", "(R)-2-Hydroxy-4-phenylbutanoic acid", "(R)-(-)-2-Hydroxy-4-phenylbutyric acid", "(R)-2-Hydroxy-4-phenylbutyric acid", "(2R)-2-Hydroxy-4-phenylbutanoic acid", "(2R)-2-Hydroxy-4-phenylbutanoic acid", "(r)-2-Hydroxy-4-phenylbutyricacid"], "SMILES": "C(CC(C(O)=O)O)C1=CC=CC=C1", "physical_data": {"Molecular Weight": "180.20", "Molecular Formula": "C10H12O3", "Melting Point": "115-117 \u00b0C"}}