{"cas_no": "29671-92-9", "cn_name": "\u6c2f\u7532\u8112\u76d0\u9178\u76d0", "en_name": ["Chloroformamidine hydrochloride", "Carbamimidic chloride, monohydrochloride", "Formamidine, 1-chloro-, monohydrochloride", "Chloroformamidine hydrochloride", "1-Chloroformamidine hydrochloride", "Chloroformamidinium chloride", "Carbamimidic chloride hydrochloride"], "SMILES": "C(Cl)(=N)N.Cl", "physical_data": {"Molecular Weight": "", "Molecular Formula": "CH3ClN2.ClH", "Melting Point": "130 \u00b0C (decomp)"}}