{"cas_no": "29683-84-9", "cn_name": "\u567b\u915a-2-\u7532\u919b\u809f", "en_name": ["2-Thiophenecarboxaldehyde, oxime", "2-Thiophenecarboxaldehyde, oxime", "Thiophene-2-aldoxime", "2-Formylthiophene oxime", "2-Thiophenealdehyde oxime", "2-Thiophenecarboxaldoxime", "NSC 110538"], "SMILES": "C(=NO)C1=CC=CS1", "physical_data": {"Molecular Weight": "127.16", "Molecular Formula": "C5H5NOS", "Melting Point": "128-129 \u00b0C"}}