{"cas_no": "2968-33-4", "cn_name": "3,3,3-\u4e09\u6c1f\u4e19\u80fa\u76d0\u9178\u76d0", "en_name": ["1-Propanamine, 3,3,3-trifluoro-, hydrochloride (1:1)", "1-Propanamine, 3,3,3-trifluoro-, hydrochloride (1:1)", "Propylamine, 3,3,3-trifluoro-, hydrochloride", "1-Propanamine, 3,3,3-trifluoro-, hydrochloride", "3,3,3-Trifluoropropylamine hydrochloride", "3,3,3-Trifluoropropylamine monohydrochloride", "3,3,3-Trifluoro-1-propanamine hydrochloride"], "SMILES": "C(C(F)(F)F)CN.Cl", "physical_data": {"Molecular Weight": "", "Molecular Formula": "C3H6F3N.ClH", "Melting Point": "222-222.5 \u00b0C"}}