{"cas_no": "29682-41-5", "cn_name": "1,4-\u4e8c\u6c2f-2-\u7898\u82ef", "en_name": ["1,4-Dichloro-2-iodobenzene", "Benzene, 1,4-dichloro-2-iodo-", "1,4-Dichloro-2-iodobenzene", "2,5-Dichlorophenyl iodide", "2,5-Dichloroiodobenzene", "2,5-Dichloro-1-iodobenzene", "2-Iodo-1,4-dichlorobenzene", "1-Iodo-2,5-dichlorobenzene"], "SMILES": "IC1=C(Cl)C=CC(Cl)=C1", "physical_data": {"Molecular Weight": "272.90", "Molecular Formula": "C6H3Cl2I", "Boiling Point": "253 \u00b0C", "Melting Point": "22 \u00b0C"}}