{"cas_no": "29684-56-8", "cn_name": "\u4f2f\u5409\u65af\u8bd5\u5242", "en_name": ["Ethanaminium, N,N-diethyl-N-[[(methoxycarbonyl)amino]sulfonyl]-, inner salt", "Ethanaminium, N,N-diethyl-N-[[(methoxycarbonyl)amino]sulfonyl]-, inner salt", "Ammonium, (carboxysulfamoyl)triethyl-, hydroxide, inner salt, methyl ester", "Burgess' reagent", "Reagents, Burgess'", "3,3,3-Triethyl-1-(methoxycarbonyl)diazathian-3-ium-1-ide 2,2-dioxide", "Methoxycarbonyl-(triethylammonio)sulfonylazanide"], "SMILES": "[N+](S([N-]C(OC)=O)(=O)=O)(CC)(CC)CC", "physical_data": {"Molecular Weight": "", "Molecular Formula": "C8H18N2O4S", "Melting Point": "71-73 \u00b0C"}}