{"cas_no": "29682-44-8", "cn_name": "1-\u6eb4-2,4,5-\u4e09\u6c2f\u82ef", "en_name": ["1-Bromo-2,4,5-trichlorobenzene", "Benzene, 1-bromo-2,4,5-trichloro-", "1-Bromo-2,4,5-trichlorobenzene", "Bromo-2,4,5-trichlorobenzene", "2,4,5-Trichlorobromobenzene"], "SMILES": "BrC1=C(Cl)C=C(Cl)C(Cl)=C1", "physical_data": {"Molecular Weight": "260.34", "Molecular Formula": "C6H2BrCl3", "Boiling Point": "71 \u00b0C @ Press: 0.098 Torr", "Melting Point": "139 \u00b0C"}}