{"cas_no": "29681-43-4", "cn_name": "4-\u7532\u6c27\u57fa\u5421\u5576\u7532\u9178\u7532\u916f", "en_name": ["2-Pyridinecarboxylic acid, 4-methoxy-, methyl ester", "2-Pyridinecarboxylic acid, 4-methoxy-, methyl ester", "Picolinic acid, 4-methoxy-, methyl ester", "Methyl 4-methoxypicolinate", "Methyl 4-methoxypyridine-2-carboxylate", "Methyl 4-(methyloxy)-2-pyridinecarboxylate", "4-Methoxypyridine-2-carboxylic acid methyl ester", "Methyl 4-methoxy-2-picolinate"], "SMILES": "C(OC)(=O)C1=CC(OC)=CC=N1", "physical_data": {"Molecular Weight": "167.16", "Molecular Formula": "C8H9NO3", "Melting Point": "47-49 \u00b0C"}}