{"cas_no": "29683-77-0", "cn_name": "2-\u6c2f\u4e59\u9170\u567b\u5429", "en_name": ["2-Chloro-1-(2-thienyl)ethanone", "Ethanone, 2-chloro-1-(2-thienyl)-", "Ketone, chloromethyl 2-thienyl", "2-Chloro-1-(2-thienyl)ethanone", "2-(Chloroacetyl)thiophene", "2-Chloro-1-(thiophen-2-yl)-1-ethanone", "2-(2-Chloroacetyl)thiophene", "2-Chloro-1-(thiophen-2-yl)ethanone", "Chloromethyl 2-thienyl ketone", "2-Chloro-1-thienyl-ethanone", "2-Chloro-1-(thien-2-yl)ethan-1-one"], "SMILES": "C(CCl)(=O)C1=CC=CS1", "physical_data": {"Molecular Weight": "160.62", "Molecular Formula": "C6H5ClOS", "Boiling Point": "111-113 \u00b0C @ Press: 5 Torr", "Melting Point": "47-48 \u00b0C"}}