{"cas_no": "2969-81-5", "cn_name": "4-\u6eb4\u4e01\u9178\u4e59\u916f", "en_name": ["Ethyl 4-bromobutyrate", "Butanoic acid, 4-bromo-, ethyl ester", "Butyric acid, 4-bromo-, ethyl ester", "\u03b3-Bromobutyric acid ethyl ester", "4-Bromobutyric acid ethyl ester", "Ethyl \u03b3-bromobutyrate", "Ethyl 4-bromobutanoate", "4-Bromobutanoic acid ethyl ester", "3-(Ethoxycarbonyl)propyl bromide", "Ethyl 4-bromobutyrate", "1-Bromo-3-(carboethoxy)propane", "NSC 133462"], "SMILES": "C(CCCBr)(OCC)=O", "physical_data": {"Molecular Weight": "195.05", "Molecular Formula": "C6H11BrO2", "Boiling Point": "73.0-74.5 \u00b0C @ Press: 7 Torr", "Melting Point": "98-100 \u00b0C", "Density": "1.35633 g/cm\u00b3 @ Temp: 25.00 \u00b0C"}}