{"cas_no": "297-76-7", "cn_name": "\u53cc\u918b\u7094\u8bfa\u9187", "en_name": ["Ethynodiol diacetate", "19-Norpregn-4-en-20-yne-3,17-diol, 3,17-diacetate, (3\u03b2,17\u03b1)-", "19-Norpregn-4-en-20-yne-3,17-diol, diacetate, (3\u03b2,17\u03b1)-", "19-Nor-17\u03b1-pregn-4-en-20-yne-3\u03b2,17-diol, diacetate", "SC 11800", "Ethynodiol acetate", "17\u03b1-Ethynyl-4-estrene-3\u03b2,17\u03b2-diol diacetate", "Ethynodiol diacetate", "Metrodiol", "Metrodiol, diacetate", "17\u03b1-Ethynyl-4-estren-3\u03b2,17-diol diacetate", "Ethinodiol diacetate", "3\u03b2,17\u03b2-Diacetoxy-19-nor-17\u03b1-pregn-4-en-20-yne", "17-Ethynyl-19-norandrost-4-ene-3\u03b2,17\u03b2-diol diacetate", "Cervicundin", "17\u03b1-Ethynyl-4-estrene-3\u03b2,17\u03b2-diacetate", "8080CB", "Luto-Metrodiol", "\u03b2-Ethynodiol diacetate", "Femulen", "Continuin", "Luteonorm", "Etynodiol acetate", "MeSH ID: D005040"], "SMILES": "O(C(C)=O)C1(C#C)C2(C)C(CC1)C3C(CC2)C4C(CC3)=CC(OC(C)=O)CC4", "physical_data": {"Molecular Weight": "384.51", "Molecular Formula": "C24H32O4", "Melting Point": "142-146 \u00b0C"}}