{"cas_no": "297-78-9", "cn_name": "\u78b3\u6c2f\u7075(\u5267\u6bd2)", "en_name": ["Isobenzan", "4,7-Methanoisobenzofuran, 1,3,4,5,6,7,8,8-octachloro-1,3,3a,4,7,7a-hexahydro-", "4,7-Methanoisobenzofuran, 1,3,4,5,6,7,8,8-octachloro-3a,4,7,7a-tetrahydro-", "1,3,4,5,6,7,8,8-Octachloro-1,3,3a,4,7,7a-hexahydro-4,7-methanoisobenzofuran", "SD 4402", "CP 14,957", "ENT 25,545-X", "Isobenzan", "1,3,4,5,6,7,8,8-Octachloro-2-oxa-3a,4,7,7a-tetrahydro-4,7-methanoindene", "1,3,4,5,6,7,8,8-Octachloro-3a,4,7,7a-tetrahydro-4,7-methanophthalan", "Telodrin", "948", "WL 1650"], "SMILES": "ClC12C3C(C(Cl)(C1(Cl)Cl)C(Cl)=C2Cl)C(Cl)OC3Cl", "physical_data": {"Molecular Weight": "411.75", "Molecular Formula": "C9H4Cl8O", "Melting Point": "120-122 \u00b0C", "Density": "1.87 g/cm\u00b3"}}