{"cas_no": "297-97-2", "cn_name": "\u866b\u7ebf\u78f7", "en_name": ["Thionazin", "Phosphorothioic acid, O,O-diethyl O-2-pyrazinyl ester", "Phosphorothioic acid, O,O-diethyl O-pyrazinyl ester", "Ethyl pyrazinyl phosphorothioate", "AC 18133", "ACC 18133", "CL 18133", "EN 18133", "ENT 25,580", "American Cyanamid 18133", "Cynem", "Experimental nematocide 18,133", "Nemafos", "Nematocide GR", "Thionazin", "Zinophos", "O,O-Diethyl O-2-pyrazinyl phosphorothioate", "Thionazine", "Zynophos", "Nemafos 10 G", "Nemaphos", "Cynophos"], "SMILES": "P(OC=1C=NC=CN1)(OCC)(OCC)=S", "physical_data": {"Molecular Weight": "248.24", "Molecular Formula": "C8H13N2O3PS", "Boiling Point": "80 \u00b0C", "Melting Point": "-1.7 \u00b0C", "Density": "1.204-1.210 g/cm\u00b3 @ Temp: 25 \u00b0C"}}