{"cas_no": "29700-22-9", "cn_name": "\u6c27\u5316\u767d\u85dc\u82a6\u9187", "en_name": ["Oxyresveratrol", "1,3-Benzenediol, 4-[(1E)-2-(3,5-dihydroxyphenyl)ethenyl]-", "2,3\u2032,4,5\u2032-Stilbenetetrol, (E)-", "1,3-Benzenediol, 4-[2-(3,5-dihydroxyphenyl)ethenyl]-, (E)-", "4-[(1E)-2-(3,5-Dihydroxyphenyl)ethenyl]-1,3-benzenediol", "Oxyresveratrol", "trans-Stilbene-2,4,3\u2032,5\u2032-tetrol", "trans-Oxyresveratrol"], "SMILES": "C(=CC1=C(O)C=C(O)C=C1)C2=CC(O)=CC(O)=C2", "physical_data": {"Molecular Weight": "244.24", "Molecular Formula": "C14H12O4", "Melting Point": "201-202.5 \u00b0C"}}