{"cas_no": "29706-84-1", "cn_name": "5'-O-\u4e09\u82ef\u7532\u57fa-\u9f50\u591a\u592b\u5b9a", "en_name": ["3\u2032-Azido-3\u2032-deoxy-5\u2032-O-(triphenylmethyl)thymidine", "Thymidine, 3\u2032-azido-3\u2032-deoxy-5\u2032-O-(triphenylmethyl)-", "Thymidine, 3\u2032-azido-3\u2032-deoxy-5\u2032-O-trityl-", "3\u2032-Azido-3\u2032-deoxy-5\u2032-O-(triphenylmethyl)thymidine", "3\u2032-Azido-3\u2032-deoxy-5\u2032-O-tritylthymidine"], "SMILES": "C(OCC1C(N=[N+]=[N-])CC(O1)N2C(=O)NC(=O)C(C)=C2)(C3=CC=CC=C3)(C4=CC=CC=C4)C5=CC=CC=C5", "physical_data": {"Molecular Weight": "", "Molecular Formula": "C29H27N5O4", "Melting Point": "103-104 \u00b0C"}}