{"cas_no": "2971-90-6", "cn_name": "\u6c2f\u7f9f\u5421\u5576", "en_name": ["Clopidol", "4-Pyridinol, 3,5-dichloro-2,6-dimethyl-", "3,5-Dichloro-2,6-dimethyl-4-pyridinol", "Coyden", "Meticlorpindol", "Clopidol", "Coyden 25", "Coccidiostat C", "2,6-Dimethyl-3,5-dichloro-4-pyridinol", "Methylchlorpindol", "3,5-Dichloro-4-hydroxy-2,6-dimethylpyridine", "3,5-Dichloro-2,6-dimethylpyridinol", "Methylchloropindol", "Lerbek", "3,5-Dichloro-2,6-dimethyl-4-hydroxypyridine", "Pharmcoccid", "Farmcoccid", "WR 61112", "NSC 253479", "2,6-Dimethyl-3,5-dichloro-4-hydroxypyridine", "Pharmcoccid 10"], "SMILES": "ClC=1C(O)=C(Cl)C(C)=NC1C", "physical_data": {"Molecular Weight": "192.04", "Molecular Formula": "C7H7Cl2NO", "Melting Point": "320 \u00b0C"}}