{"cas_no": "2971-31-5", "cn_name": "2-OXINDOLE-3-ACETIC ACID", "en_name": ["Oxindole-3-acetic acid", "1H-Indole-3-acetic acid, 2,3-dihydro-2-oxo-", "3-Indolineacetic acid, 2-oxo-", "2,3-Dihydro-2-oxo-1H-indole-3-acetic acid", "Oxindole-3-acetic acid", "2-Oxo-3-indolineacetic acid", "(\u00b1)-2,3-Dihydro-2-oxoindole-3-acetic acid", "(\u00b1)-2-Oxindoline-3-acetic acid", "(\u00b1)-2-Oxo-3-indolineacetic acid", "2-(2-Oxoindolin-3-yl)acetic acid", "(2-Oxo-2,3-dihydro-1H-indol-3-yl)acetic acid", "2-(2-Oxo-1,3-dihydroindol-3-yl)acetic acid", "2-(2-Oxo-2,3-dihydro-1H-indol-3-yl)acetic acid"], "SMILES": "C(C(O)=O)C1C=2C(NC1=O)=CC=CC2", "physical_data": {"Molecular Weight": "191.18", "Molecular Formula": "C10H9NO3", "Melting Point": "218-219 \u00b0C"}}