{"cas_no": "2973-78-6", "cn_name": "3-\u6eb4-4-\u7f9f\u57fa\u82ef\u7532\u919b", "en_name": ["3-Bromo-4-hydroxybenzaldehyde", "Benzaldehyde, 3-bromo-4-hydroxy-", "3-Bromo-4-hydroxybenzaldehyde", "4-Hydroxy-3-bromobenzaldehyde", "2-Bromo-4-formylphenol", "NSC 220227"], "SMILES": "C(=O)C1=CC(Br)=C(O)C=C1", "physical_data": {"Molecular Weight": "201.02", "Molecular Formula": "C7H5BrO2", "Melting Point": "125-126 \u00b0C"}}