{"cas_no": "2973-09-3", "cn_name": "N-\u6b63\u4e01\u57fa\u9a6c\u6765\u9170\u4e9a\u80fa", "en_name": ["N-Butylmaleimide", "1H-Pyrrole-2,5-dione, 1-butyl-", "Maleimide, N-butyl-", "1-Butyl-1H-pyrrole-2,5-dione", "N-Butylmaleimide", "Maleic acid butylimide", "N-n-Butylmaleimide", "NSC 45298", "1-Butyl-2,5-dihydro-1H-pyrrole-2,5-dione", "1-Butyl-pyrrole-2,5-dione"], "SMILES": "C(CCC)N1C(=O)C=CC1=O", "physical_data": {"Molecular Weight": "153.18", "Molecular Formula": "C8H11NO2", "Boiling Point": "81-84 \u00b0C @ Press: 3 Torr", "Melting Point": "83-85 \u00b0C"}}