{"cas_no": "2973-59-3", "cn_name": "6-\u6eb4\u5f02\u9999\u8349\u919b", "en_name": ["2-Bromo-5-hydroxy-4-methoxybenzaldehyde", "Benzaldehyde, 2-bromo-5-hydroxy-4-methoxy-", "p-Anisaldehyde, 2-bromo-5-hydroxy-", "Isovanillin, 6-bromo-", "2-Bromo-5-hydroxy-4-methoxybenzaldehyde", "6-Bromoisovanillin", "2-Bromo-5-hydroxy-p-anisaldehyde", "2-Bromo-4-methoxy-5-hydroxybenzaldehyde"], "SMILES": "C(=O)C1=C(Br)C=C(OC)C(O)=C1", "physical_data": {"Molecular Weight": "231.04", "Molecular Formula": "C8H7BrO3", "Melting Point": "115 \u00b0C"}}