{"cas_no": "2973-75-3", "cn_name": "2,3-\u4e8c\u6eb4-4-\u7f9f\u57fa-5-\u7532\u6c27\u57fa\u82ef\u7532\u919b", "en_name": ["2,3-Dibromo-4-hydroxy-5-methoxybenzaldehyde", "Benzaldehyde, 2,3-dibromo-4-hydroxy-5-methoxy-", "Vanillin, 5,6-dibromo-", "2,3-Dibromo-4-hydroxy-5-methoxybenzaldehyde", "2,3-Dibromovanillin", "5,6-Dibromovanillin"], "SMILES": "C(=O)C1=CC(OC)=C(O)C(Br)=C1Br", "physical_data": {"Molecular Weight": "309.94", "Molecular Formula": "C8H6Br2O3", "Melting Point": "218 \u00b0C"}}