{"cas_no": "2973-19-5", "cn_name": "2-\u7f9f\u57fa-5-\u785d\u57fa\u6c2f\u82c4", "en_name": ["2-(Chloromethyl)-4-nitrophenol", "Phenol, 2-(chloromethyl)-4-nitro-", "o-Cresol, \u03b1-chloro-4-nitro-", "2-(Chloromethyl)-4-nitrophenol", "2-Hydroxy-5-nitrobenzyl chloride", "NSC 128135", "NSC 541"], "SMILES": "C(Cl)C1=CC(N(=O)=O)=CC=C1O", "physical_data": {"Molecular Weight": "187.58", "Molecular Formula": "C7H6ClNO3", "Melting Point": "129-130 \u00b0C"}}