{"cas_no": "2973-50-4", "cn_name": "2-\u6c28\u57fa\u82ef\u4e59\u8148", "en_name": ["2-Aminobenzeneacetonitrile", "Benzeneacetonitrile, 2-amino-", "Acetonitrile, (o-aminophenyl)-", "2-Aminobenzeneacetonitrile", "o-Aminobenzyl cyanide", "2-Aminobenzyl cyanide", "(2-Aminophenyl)acetonitrile", "2-(Cyanomethyl)aniline"], "SMILES": "C(C#N)C1=C(N)C=CC=C1", "physical_data": {"Molecular Weight": "132.16", "Molecular Formula": "C8H8N2", "Melting Point": "72 \u00b0C"}}