{"cas_no": "2973-17-3", "cn_name": "N-\u70ef\u4e19\u57fa\u9a6c\u6765\u9170\u4e9a\u80fa", "en_name": ["N-Allylmaleimide", "1H-Pyrrole-2,5-dione, 1-(2-propen-1-yl)-", "Maleimide, N-allyl-", "1H-Pyrrole-2,5-dione, 1-(2-propenyl)-", "1-(2-Propen-1-yl)-1H-pyrrole-2,5-dione", "N-Allylmaleimide", "NSC 177880", "1-Allyl-1H-pyrrole-2,5-dione", "1-Prop-2-enylpyrrole-2,5-dione", "1-(2-Propenyl)-1H-pyrrole-2,5-dione", "1-Allyl-pyrrole-2,5-dione", "1-(Prop-2-en-1-yl)-2,5-dihydro-1H-pyrrole-2,5-dione"], "SMILES": "C(C=C)N1C(=O)C=CC1=O", "physical_data": {"Molecular Weight": "137.14", "Molecular Formula": "C7H7NO2", "Boiling Point": "134 \u00b0C @ Press: 12 Torr", "Melting Point": "45 \u00b0C"}}