{"cas_no": "2973-10-6", "cn_name": "\u4e8c\u5f02\u4e19\u57fa\u786b\u9178\u916f", "en_name": ["Diisopropyl sulfate", "Sulfuric acid, bis(1-methylethyl) ester", "Isopropyl sulfate ((C3H7O)2SO2)", "Sulfuric acid, diisopropyl ester", "Diisopropyl sulfate"], "SMILES": "O(S(OC(C)C)(=O)=O)C(C)C", "physical_data": {"Molecular Weight": "182.24", "Molecular Formula": "C6H14O4S", "Boiling Point": "78-80 \u00b0C @ Press: 2.7 Torr", "Density": "1.118 g/cm\u00b3 @ Temp: 0 \u00b0C"}}