{"cas_no": "29736-80-9", "cn_name": "3,5-\u4e8c\u916e\u5df1\u9178\u7532\u916f", "en_name": ["Methyl 3,5-dioxohexanoate", "Hexanoic acid, 3,5-dioxo-, methyl ester", "Methyl 3,5-dioxohexanoate"], "SMILES": "C(CC(OC)=O)(CC(C)=O)=O", "physical_data": {"Molecular Weight": "158.15", "Molecular Formula": "C7H10O4", "Boiling Point": "68-80 \u00b0C @ Press: 1 Torr"}}