{"cas_no": "2973-58-2", "cn_name": "2-\u6eb4-3-\u7f9f\u57fa-4-\u7532\u6c27\u57fa\u82ef\u7532\u919b", "en_name": ["2-Bromo-3-hydroxy-4-methoxybenzaldehyde", "Benzaldehyde, 2-bromo-3-hydroxy-4-methoxy-", "p-Anisaldehyde, 2-bromo-3-hydroxy-", "Isovanillin, 2-bromo-", "2-Bromo-3-hydroxy-4-methoxybenzaldehyde", "2-Bromoisovanillin", "2-Bromo-3-hydroxy-p-anisaldehyde", "2-Bromo-3-formyl-6-methoxyphenol", "NSC 12212", "NSC 139143", "Bromovanin"], "SMILES": "C(=O)C1=C(Br)C(O)=C(OC)C=C1", "physical_data": {"Molecular Weight": "231.04", "Molecular Formula": "C8H7BrO3", "Melting Point": "211-212 \u00b0C"}}