{"cas_no": "2973-80-0", "cn_name": "2-\u6eb4-5-\u7f9f\u57fa\u82ef\u7532\u919b", "en_name": ["2-Bromo-5-hydroxybenzaldehyde", "Benzaldehyde, 2-bromo-5-hydroxy-", "2-Bromo-5-hydroxybenzaldehyde", "6-Bromo-3-hydroxybenzaldehyde", "5-Hydroxy-2-bromobenzaldehyde"], "SMILES": "C(=O)C1=C(Br)C=CC(O)=C1", "physical_data": {"Molecular Weight": "201.02", "Molecular Formula": "C7H5BrO2", "Melting Point": "135 \u00b0C"}}