{"cas_no": "2973-76-4", "cn_name": "5-\u6eb4\u9999\u5170\u7d20", "en_name": ["5-Bromovanillin", "Benzaldehyde, 3-bromo-4-hydroxy-5-methoxy-", "Vanillin, 5-bromo-", "3-Bromo-4-hydroxy-5-methoxybenzaldehyde", "5-Bromovanillin", "5-Bromo-4-hydroxy-3-methoxybenzaldehyde", "5-Bromo-4-hydroxy-3-anisaldehyde", "5-Bromo-3-methoxy-4-hydroxybenzaldehyde", "6-Bromo-4-formyl-2-methoxyphenol", "NSC 10073", "NSC 29037", "3-Methoxy-4-hydroxy-5-bromobenzaldehyde", "3-Bromo-5-methoxy-4-hydroxybenzaldehyde"], "SMILES": "O(C)C1=C(O)C(Br)=CC(C=O)=C1", "physical_data": {"Molecular Weight": "231.04", "Molecular Formula": "C8H7BrO3", "Melting Point": "166-169 \u00b0C"}}