{"cas_no": "2973-77-5", "cn_name": "3,5-\u4e8c\u6eb4-4-\u7f9f\u57fa\u82ef\u7532\u919b", "en_name": ["3,5-Dibromo-4-hydroxybenzaldehyde", "Benzaldehyde, 3,5-dibromo-4-hydroxy-", "3,5-Dibromo-4-hydroxybenzaldehyde", "4-Hydroxy-3,5-dibromobenzaldehyde", "NSC 72944"], "SMILES": "C(=O)C1=CC(Br)=C(O)C(Br)=C1", "physical_data": {"Molecular Weight": "279.91", "Molecular Formula": "C7H4Br2O2", "Melting Point": "185 \u00b0C"}}