{"cas_no": "29743-08-6", "cn_name": "N-(4-\u4e59\u6c27\u82c4\u70ef))-4-\u4e01\u80fa", "en_name": ["4\u2032-Ethoxybenzylidene-4-butylaniline", "Benzenamine, 4-butyl-N-[(4-ethoxyphenyl)methylene]-", "Aniline, p-butyl-N-(p-ethoxybenzylidene)-", "4-Butyl-N-[(4-ethoxyphenyl)methylene]benzenamine", "N-(p-Ethoxybenzylidene)-p-butylaniline", "N-(p-Ethoxybenzylidene)-p-n-butylaniline", "N-(4-Ethoxybenzylidene)-4-butylaniline", "p-[(p-Ethoxybenzylidene)amino]butylbenzene", "4-Butyl-N-(4-ethoxybenzylidene)aniline", "4-Ethoxybenzylidene-4\u2032-butylaniline", "Ethoxybenzylidene-p-butylaniline", "4-Ethoxybenzylidene-4\u2032-n-butylaniline", "4\u2032-Butyl-4-ethoxybenzylidene aniline", "1-[(p-Ethoxybenzylidene)amino]-4-butylbenzene", "N-(p-Ethoxybenzilidene)-p-butylaniline", "p-Ethoxybenzal-p-butylaniline", "Ethoxybenzylidenebutylaniline", "N-(p-Ethoxybenzylidene)-p\u2032-butylaniline", "p-Ethoxybenzylidene-p-n-butylaniline", "p-Butyl-N-(p-ethoxybenzylidene)aniline", "p-Ethoxybenzylidene-p\u2032-N-butylaniline", "p-Ethoxybenzylidene-p-butylaniline", "p-Butyl-N-(p-ethoxybenzilidene)aniline", "N-(4-Ethoxybenzylidene)butylaniline", "4\u2032-Ethoxybenzylidene-4-butylaniline", "N-(4-Ethoxybenzylidene)-4\u2032-butylaniline"], "SMILES": "N(=CC1=CC=C(OCC)C=C1)C2=CC=C(CCCC)C=C2", "physical_data": {"Molecular Weight": "281.39", "Molecular Formula": "C19H23NO", "Melting Point": "34 \u00b0C"}}