{"cas_no": "29741-09-1", "cn_name": "\u82b9\u83dc\u7d20-7-\u8461\u8404\u7cd6\u919b\u9178", "en_name": ["Apigenin 7-O-glucuronide", "\u03b2-D-Glucopyranosiduronic acid, 5-hydroxy-2-(4-hydroxyphenyl)-4-oxo-4H-1-benzopyran-7-yl", "Glucopyranosiduronic acid, 5-hydroxy-2-(p-hydroxyphenyl)-4-oxo-4H-1-benzopyran-7-yl, \u03b2-D-", "5-Hydroxy-2-(4-hydroxyphenyl)-4-oxo-4H-1-benzopyran-7-yl \u03b2-D-glucopyranosiduronic acid", "Apigenin 7-glucuronide", "Apigenin 7-O-glucuronide", "Apigenin 7-\u03b2-glucuronide", "Apigenin 7-O-\u03b2-D-glucuronide", "Apigenin 7-O-\u03b2-glucuronide", "Apigenin 7-O-\u03b2-D-glucuronopyranoside", "Scutellarin A", "Apigenin-7-O-\u03b2-D glucuronoside"], "SMILES": "O=C1C=2C(OC(=C1)C3=CC=C(O)C=C3)=CC(OC4OC(C(O)=O)C(O)C(O)C4O)=CC2O", "physical_data": {"Molecular Weight": "446.36", "Molecular Formula": "C21H18O11", "Melting Point": "&gt;300 \u00b0C"}}