{"cas_no": "2974-92-7", "cn_name": "3,4-\u4e8c\u6c2f\u8054\u82ef", "en_name": ["PCB 12", "1,1\u2032-Biphenyl, 3,4-dichloro-", "Biphenyl, 3,4-dichloro-", "3,4-Dichloro-1,1\u2032-biphenyl", "3,4-Dichlorobiphenyl", "PCB 12", "NSC 249832", "CB 12 (chlorocarbon)", "CB 12", "1,2-Dichloro-4-phenylbenzene"], "SMILES": "ClC=1C=C(C=CC1Cl)C2=CC=CC=C2", "physical_data": {"Molecular Weight": "223.10", "Molecular Formula": "C12H8Cl2", "Boiling Point": "171-172 \u00b0C @ Press: 8 Torr", "Melting Point": "46 \u00b0C"}}