{"cas_no": "29745-04-8", "cn_name": "\u53bb\u7532\u6591\u8765\u7d20", "en_name": ["Norcantharidin", "4,7-Epoxyisobenzofuran-1,3-dione, hexahydro-, (3aR,4S,7R,7aS)-rel-", "7-Oxabicyclo[2.2.1]heptane-2,3-dicarboxylic anhydride, exo-", "4,7-Epoxyisobenzofuran-1,3-dione, hexahydro-, (3a\u03b1,4\u03b2,7\u03b2,7a\u03b1)-", "rel-(3aR,4S,7R,7aS)-Hexahydro-4,7-epoxyisobenzofuran-1,3-dione", "7-Oxabicyclo[2.2.1]heptane-exo-cis-2,3-dicarboxylic anhydride", "Norcantharidin", "NSC 59023", "(3aR,4S,7R,7aS)-rel-Hexahydro-4,7-epoxyisobenzofuran-1,3-dione", "Isocantharidin", "Demethylcantharidin", "exo-7-Oxabicyclo[2.2.1]heptane-2,3-dicarboxylic acid anhydride"], "SMILES": "O=C1C2C(C3OC2CC3)C(=O)O1", "physical_data": {"Molecular Weight": "168.15", "Molecular Formula": "C8H8O4", "Melting Point": "116-117 \u00b0C"}}