{"cas_no": "29741-10-4", "cn_name": "\u6728\u7280\u8349\u7d20-7-\u8461\u8404\u7cd6\u919b\u9178\u82f7", "en_name": ["Luteolin 7-O-glucuronide", "\u03b2-D-Glucopyranosiduronic acid, 2-(3,4-dihydroxyphenyl)-5-hydroxy-4-oxo-4H-1-benzopyran-7-yl", "Glucopyranosiduronic acid, 2-(3,4-dihydroxyphenyl)-5-hydroxy-4-oxo-4H-1-benzopyran-7-yl, \u03b2-D-", "Flavone, 3\u2032,4\u2032,5,7-tetrahydroxy-, 7-\u03b2-D-glucopyranuronoside", "2-(3,4-Dihydroxyphenyl)-5-hydroxy-4-oxo-4H-1-benzopyran-7-yl \u03b2-D-glucopyranosiduronic acid", "Luteolin 7-glucuronide", "Luteolin-7-\u03b2-D-glucuronide", "Luteolin 7-O-\u03b2-D-glucuronide", "Luteolin 7-O-glucuronide", "Luteolin 7-O-\u03b2-glucuronide", "Luteolin 7-O-\u03b2-D-glucuronopyranoside", "Cyanidenon-7-O-\u03b2-D-glucuronic acid", "Luteolin 7-O-\u03b2-glucuronopyranoside", "Luteolin 7-O-beta-D-glucuronide", "Luteolin-7-O-\u03b2-D-glucopyranosiduronic acid"], "SMILES": "O=C1C=2C(OC(=C1)C3=CC(O)=C(O)C=C3)=CC(OC4OC(C(O)=O)C(O)C(O)C4O)=CC2O", "physical_data": {"Molecular Weight": "462.36", "Molecular Formula": "C21H18O12", "Melting Point": "242-244 \u00b0C"}}