{"cas_no": "2975-36-2", "cn_name": "\u54cc\u5361\u55ea\u76d0\u9178\u76d0", "en_name": ["10H-Phenothiazine, 10-[(1-methyl-3-piperidinyl)methyl]-, hydrochloride (1:1)", "10H-Phenothiazine, 10-[(1-methyl-3-piperidinyl)methyl]-, hydrochloride (1:1)", "Phenothiazine, 10-[(1-methyl-3-piperidyl)methyl]-, monohydrochloride", "10H-Phenothiazine, 10-[(1-methyl-3-piperidinyl)methyl]-, monohydrochloride", "Mepazine hydrochloride", "Pecazine monohydrochloride", "Mepazine chloride", "Pecazine hydrochloride", "NSC 64076"], "SMILES": "C(N1C=2C(SC=3C1=CC=CC3)=CC=CC2)C4CN(C)CCC4.Cl", "physical_data": {"Molecular Weight": "", "Molecular Formula": "C19H22N2S.ClH", "Boiling Point": "180-183 \u00b0C @ Press: 0.5 Torr", "Melting Point": "180-181 \u00b0C"}}