{"cas_no": "2975-41-9", "cn_name": "2-\u6c28\u57fa\u831a", "en_name": ["2-Aminoindane", "1H-Inden-2-amine, 2,3-dihydro-", "2-Indanamine", "2,3-Dihydro-1H-inden-2-amine", "Su 8629", "2-Aminoindan", "2-Aminoindane", "2-Indanylamine", "(2,3-Dihydro-1H-inden-2-yl)amine", "2-Amino-2,3-dihydro-1H-indene", "2-AI"], "SMILES": "NC1CC=2C(C1)=CC=CC2", "physical_data": {"Molecular Weight": "133.19", "Molecular Formula": "C9H11N", "Boiling Point": "247 \u00b0C", "Melting Point": "33-34 \u00b0C"}}