{"cas_no": "29767-20-2", "cn_name": "\u66ff\u5c3c\u6cca\u7519", "en_name": ["Teniposide", "Furo[3\u2032,4\u2032:6,7]naphtho[2,3-d]-1,3-dioxol-6(5aH)-one, 5,8,8a,9-tetrahydro-5-(4-hydroxy-3,5-dimethoxyphenyl)-9-[[4,6-O-[(R)-2-thienylmethylene]-\u03b2-D-glucopyranosyl]oxy]-, (5R,5aR,8aR,9S)-", "Epipodophyllotoxin, 4\u2032-demethyl-, 9-(4,6-O-2-thenylidene-\u03b2-D-glucopyranoside)", "Furo[3\u2032,4\u2032:6,7]naphtho[2,3-d]-1,3-dioxol-6(5aH)-one, 5,8,8a,9-tetrahydro-5-(4-hydroxy-3,5-dimethoxyphenyl)-9-[[4,6-O-(2-thienylmethylene)-\u03b2-D-glucopyranosyl]oxy]-, [5R-[5\u03b1,5a\u03b2,8a\u03b1,9\u03b2(R*)]]-", "Pyrano[3,2-d]-1,3-dioxin, furo[3\u2032,4\u2032:6,7]naphtho[2,3-d]-1,3-dioxol-6(5aH)-one deriv.", "(5R,5aR,8aR,9S)-5,8,8a,9-Tetrahydro-5-(4-hydroxy-3,5-dimethoxyphenyl)-9-[[4,6-O-[(R)-2-thienylmethylene]-\u03b2-D-glucopyranosyl]oxy]furo[3\u2032,4\u2032:6,7]naphtho[2,3-d]-1,3-dioxol-6(5aH)-one", "VM 26", "Teniposide", "NSC 122819", "EPT", "Vehem", "Vumon", "Vehem-Sandoz", "S 122819", "Tenoposide", "MeSH ID: D013713"], "SMILES": "O=C1C2C(C=3C(C(OC4OC5C(C(O)C4O)OC(OC5)C6=CC=CS6)C2CO1)=CC7=C(C3)OCO7)C8=CC(OC)=C(O)C(OC)=C8", "physical_data": {"Molecular Weight": "656.65", "Molecular Formula": "C32H32O13S", "Melting Point": "242-246 \u00b0C"}}