{"cas_no": "2976-32-1", "cn_name": "1-\u7532\u781c\u57fa-3-\u785d\u57fa\u82ef", "en_name": ["1-(Methylsulfonyl)-3-nitrobenzene", "Benzene, 1-(methylsulfonyl)-3-nitro-", "Sulfone, methyl m-nitrophenyl", "1-(Methylsulfonyl)-3-nitrobenzene", "Methyl m-nitrophenyl sulfone", "Methyl 3-nitrophenyl sulfone", "1-Methanesulfonyl-3-nitrobenzene", "3-Nitrophenyl methyl sulfone"], "SMILES": "S(C)(=O)(=O)C1=CC(N(=O)=O)=CC=C1", "physical_data": {"Molecular Weight": "201.20", "Molecular Formula": "C7H7NO4S", "Melting Point": "146 \u00b0C"}}