{"cas_no": "2976-75-2", "cn_name": "1-\u8418\u6c27\u57fa\u4e59\u9178", "en_name": ["Naphthoxyacetic acid", "Acetic acid, 2-(1-naphthalenyloxy)-", "Acetic acid, (1-naphthyloxy)-", "Acetic acid, (1-naphthalenyloxy)-", "Acetic acid, 1-naphthoxy-", "2-(1-Naphthalenyloxy)acetic acid", "\u03b1-Naphthoxyacetic acid", "1-Naphthoxyacetic acid", "\u03b1-Naphthyloxyacetic acid", "1-Naphthyloxyacetic acid", "1-Naphthalenyloxyacetic acid", "2-(1-Naphthyloxy)acetic acid", "2-(1-Naphthoxy)acetic acid", "Naphthalene 1-carboxymethyl ether", "NSC 9847", "2-[(Naphthalen-1-yl)oxy]acetic acid", "Naphthoxyacetic acid"], "SMILES": "O(CC(O)=O)C=1C2=C(C=CC1)C=CC=C2", "physical_data": {"Molecular Weight": "202.21", "Molecular Formula": "C12H10O3", "Melting Point": "195-197 \u00b0C"}}