{"cas_no": "2976-74-1", "cn_name": "2,3-\u4e8c\u6c2f\u82ef\u6c27\u57fa\u4e59\u9178", "en_name": ["2,3-Dichlorophenoxyacetic acid", "Acetic acid, 2-(2,3-dichlorophenoxy)-", "Acetic acid, (2,3-dichlorophenoxy)-", "2-(2,3-Dichlorophenoxy)acetic acid", "2,3-Dichlorophenoxyacetic acid", "2,3-D", "NSC 74462"], "SMILES": "O(CC(O)=O)C1=C(Cl)C(Cl)=CC=C1", "physical_data": {"Molecular Weight": "221.04", "Molecular Formula": "C8H6Cl2O3", "Melting Point": "173-175 \u00b0C"}}