{"cas_no": "2977-71-1", "cn_name": "2-\u6c28\u57fa-4-\u7532\u57fa\u82ef\u915a\u76d0\u9178\u76d0", "en_name": ["Phenol, 2-amino-4-methyl-, hydrochloride (1:1)", "Phenol, 2-amino-4-methyl-, hydrochloride (1:1)", "p-Cresol, 2-amino-, hydrochloride", "Phenol, 2-amino-4-methyl-, hydrochloride", "4-Methyl-2-aminophenol hydrochloride", "2-Amino-p-cresol hydrochloride", "2-Amino-4-methylphenol hydrochloride"], "SMILES": "NC1=C(O)C=CC(C)=C1.Cl", "physical_data": {"Molecular Weight": "", "Molecular Formula": "C7H9NO.ClH", "Melting Point": "222-224 \u00b0C"}}