{"cas_no": "2978-11-2", "cn_name": "\u5bf9\u785d\u57fa\u82ef\u9170\u57fa, N,N-\u4e8c\u5f02\u4e19\u57fa\u8132", "en_name": ["(4-Nitrophenyl)methyl N,N\u2032-bis(1-methylethyl)carbamimidate", "Carbamimidic acid, N,N\u2032-bis(1-methylethyl)-, (4-nitrophenyl)methyl ester", "Pseudourea, 1,3-diisopropyl-2-(p-nitrobenzyl)-", "(4-Nitrophenyl)methyl N,N\u2032-bis(1-methylethyl)carbamimidate", "O-p-Nitrobenzyl-N,N\u2032-diisopropylisourea"], "SMILES": "C(OC(=NC(C)C)NC(C)C)C1=CC=C(N(=O)=O)C=C1", "physical_data": {"Molecular Weight": "279.33", "Molecular Formula": "C14H21N3O3", "Melting Point": "42 \u00b0C"}}