{"cas_no": "29781-80-4", "cn_name": "\u6b63\u8f9b\u57fa-\u0391-D-\u8461\u8404\u7cd6\u82f7", "en_name": ["Octyl \u03b1-D-glucopyranoside", "\u03b1-D-Glucopyranoside, octyl", "Glucopyranoside, octyl, \u03b1-D-", "Octyl \u03b1-D-glucopyranoside", "1-Octyl \u03b1-D-glucopyranoside", "\u03b1-1-n-Octyl-D-glucopyranoside", "n-Octyl \u03b1-D-glucopyranoside", "1-O-Octyl-\u03b1-D-glucopyranoside", "Octyl \u03b1-glucoside", "Octyl \u03b1-D-glucoside", "GS-AG 8S"], "SMILES": "O(CCCCCCCC)C1OC(CO)C(O)C(O)C1O", "physical_data": {"Molecular Weight": "292.37", "Molecular Formula": "C14H28O6", "Melting Point": "71-72 \u00b0C"}}