{"cas_no": "2978-58-7", "cn_name": "2-\u7532\u57fa-3-\u4e01\u7094-2-\u80fa", "en_name": ["1,1-Dimethylpropargylamine", "3-Butyn-2-amine, 2-methyl-", "2-Propynylamine, 1,1-dimethyl-", "2-Methyl-3-butyn-2-amine", "1,1-Dimethyl-2-propynylamine", "3-Amino-3-methyl-1-butyne", "1,1-Dimethylpropargylamine", "3-Amino-3-methylbutyne", "1,1-Dimethylpropynylamine", "2-Methyl-2-amino-3-butyne", "2-Methyl-3-butyn-2-ylamine", "3-Methyl-3-amino-1-butyne", "2-Amino-2-methyl-3-butyne", "3-Amino-3,3-dimethyl-1-propyne", "1,1-Dimethyl-2-propyn-1-amine", "(1,1-Dimethyl-2-propyn-1-yl)amine"], "SMILES": "C(C#C)(C)(C)N", "physical_data": {"Molecular Weight": "83.13", "Molecular Formula": "C5H9N", "Boiling Point": "79.5 \u00b0C", "Melting Point": "18 \u00b0C"}}