{"cas_no": "29782-68-1", "cn_name": "\u6c34\u98de\u84df\u5b81", "en_name": ["Silydianin", "3,6-Methanobenzofuran-7(6H)-one, 4-[(2R,3R)-3,4-dihydro-3,5,7-trihydroxy-4-oxo-2H-1-benzopyran-2-yl]-2,3,3a,7a-tetrahydro-7a-hydroxy-8-(4-hydroxy-3-methoxyphenyl)-, (3R,3aR,6R,7aR,8R)-", "3,6-Methanobenzofuran-7(6\u03b1H)-one, 2,3\u03b1,3a\u03b1,7a-tetrahydro-7a\u03b1-hydroxy-8-(4-hydroxy-3-methoxyphenyl)-4-(3\u03b1,5,7-trihydroxy-4-oxo-2\u03b2-chromanyl)-, (+)-", "3,6-Methanobenzofuran-7(6H)-one, 4-(3,4-dihydro-3,5,7-trihydroxy-4-oxo-2H-1-benzopyran-2-yl)-2,3,3a,7a-tetrahydro-7a-hydroxy-8-(4-hydroxy-3-methoxyphenyl)-, [3R-[3\u03b1,3a\u03b2,4(2R*,3R*),6\u03b1,7a\u03b2,8R*]]-", "(3R,3aR,6R,7aR,8R)-4-[(2R,3R)-3,4-Dihydro-3,5,7-trihydroxy-4-oxo-2H-1-benzopyran-2-yl]-2,3,3a,7a-tetrahydro-7a-hydroxy-8-(4-hydroxy-3-methoxyphenyl)-3,6-methanobenzofuran-7(6H)-one", "Silydianin", "Silidianine", "Silidianin"], "SMILES": "OC12C3C(C(C(C=C3C4OC=5C(C(=O)C4O)=C(O)C=C(O)C5)C1=O)C6=CC(OC)=C(O)C=C6)CO2", "physical_data": {"Molecular Weight": "482.44", "Molecular Formula": "C25H22O10", "Melting Point": "185-187 \u00b0C"}}