{"cas_no": "2979-22-8", "cn_name": "2-\u7532\u6c27\u57fa-2-\u82ef\u4e59\u9187", "en_name": ["\u03b2-Methoxybenzeneethanol", "Benzeneethanol, \u03b2-methoxy-", "Phenethyl alcohol, \u03b2-methoxy-", "\u03b2-Methoxybenzeneethanol", "\u03b2-Methoxyphenethyl alcohol", "2-Hydroxy-1-methoxy-1-phenylethane", "2-Methoxy-2-phenylethanol", "2-Phenyl-2-methoxyethanol", "(\u00b1)-2-Methoxy-2-phenylethanol", "2-Methoxy-2-phenylethan-1-ol"], "SMILES": "C(CO)(OC)C1=CC=CC=C1", "physical_data": {"Molecular Weight": "152.19", "Molecular Formula": "C9H12O2", "Boiling Point": "108-113 \u00b0C @ Press: 6 Torr"}}