{"cas_no": "29797-40-8", "cn_name": "\u4e8c\u6c2f\u7532\u57fa\u82ef", "en_name": ["Dichloromethylbenzene", "Benzene, dichloromethyl-", "Toluene, ar,ar\u2032-dichloro-", "Dichloromethylbenzene", "Dichlorotoluene"], "SMILES": "", "physical_data": {"Molecular Weight": "", "Molecular Formula": "C7H6Cl2", "Boiling Point": "194-195 \u00b0C"}}