{"cas_no": "2979-19-3", "cn_name": "3,3-\u4e8c\u7532\u57fa\u73af\u5df1\u916e", "en_name": ["3,3-Dimethylcyclohexanone", "Cyclohexanone, 3,3-dimethyl-", "3,3-Dimethylcyclohexanone", "3,3-Dimethylcyclohexan-1-one"], "SMILES": "CC1(C)CC(=O)CCC1", "physical_data": {"Molecular Weight": "126.20", "Molecular Formula": "C8H14O", "Boiling Point": "180 \u00b0C", "Melting Point": "173 \u00b0C", "Density": "0.906 g/cm\u00b3 @ Temp: 20 \u00b0C"}}