{"cas_no": "298-18-0", "cn_name": "\u4e8c\u6c27\u5316\u4e01\u4e8c\u70ef", "en_name": ["rel-(2R,2\u2032R)-2,2\u2032-Bioxirane", "2,2\u2032-Bioxirane, (2R,2\u2032R)-rel-", "Butane, 1,2:3,4-diepoxy-, (\u00b1)-", "Threitol, 1,2:3,4-dianhydro-, DL-", "2,2\u2032-Bioxirane, (R*,R*)-(\u00b1)-", "rel-(2R,2\u2032R)-2,2\u2032-Bioxirane", "dl-1,2:3,4-Diepoxybutane", "2,2\u2032-Bioxirane, (R*,R*)-", "(\u00b1)-1,2:3,4-Diepoxybutane", "DL-Diepoxybutane", "DL-1,2:3,4-Diepoxybutane", "(\u00b1)-Diepoxybutane", "Rac-1,3-Butadiene diepoxide"], "SMILES": "C1(CO1)C2CO2", "physical_data": {"Molecular Weight": "86.09", "Molecular Formula": "C4H6O2", "Boiling Point": "144 \u00b0C", "Melting Point": "3 \u00b0C"}}