{"cas_no": "298-59-9", "cn_name": "\u76d0\u9178\u54cc\u7532\u916f", "en_name": ["Ritalin", "2-Piperidineacetic acid, \u03b1-phenyl-, methyl ester, hydrochloride (1:1)", "2-Piperidineacetic acid, \u03b1-phenyl-, methyl ester, hydrochloride", "Centedrin", "Methylphenidate hydrochloride", "Methyl \u03b1-phenyl-2-piperidineacetate hydrochloride", "Ritalin", "Ritalin Hydrochloride", "Centedrine", "Meridil", "Metadate CD", "Concerta", "NSC 169868", "Ritalin SR", "Medikinet", "Ritalin LA", "Quillivant XR", "Methylin", "Methylin ER", "Quillichew ER", "Aptensio XR", "Jornay PM", "Adhansia XR"], "SMILES": "C(C(OC)=O)(C1=CC=CC=C1)C2CCCCN2.Cl", "physical_data": {"Molecular Weight": "", "Molecular Formula": "C14H19NO2.ClH", "Melting Point": "224-226 \u00b0C"}}