{"cas_no": "298-03-3", "cn_name": "O,O-\u4e8c\u4e59\u57fa-O-(2-(\u4e59\u786b\u57fa)\u4e59\u57fa)\u78f7\u9178\u916f", "en_name": ["Demeton-O", "Phosphorothioic acid, O,O-diethyl O-[2-(ethylthio)ethyl] ester", "Phosphorothioic acid, O,O-diethyl ester O-[2-(ethylthio)ethyl] ester", "Demeton-O", "O,O-Diethyl O-[2-(ethylthio)ethyl] phosphorothionate", "Demetonthione", "NSC 8928"], "SMILES": "P(OCCSCC)(OCC)(OCC)=S", "physical_data": {"Molecular Weight": "258.34", "Molecular Formula": "C8H19O3PS2", "Boiling Point": "134 \u00b0C @ Press: 2 Torr", "Density": "1.119 g/cm\u00b3 @ Temp: 21 \u00b0C"}}