{"cas_no": "298-14-6", "cn_name": "\u78b3\u9178\u6c22\u94be", "en_name": ["Potassium bicarbonate", "Carbonic acid, potassium salt (1:1)", "Carbonic acid, monopotassium salt", "Potassium acid carbonate", "Potassium bicarbonate", "Monopotassium carbonate", "Potassium carbonate (KHCO3)", "Potassium hydrogen carbonate", "Potassium bicarbonate (KHCO3)", "Purple K", "Potassium hydrogen carbonate (KHCO3)", "Hydrogen potassium carbonate", "Kaligreen", "Armicarb", "K-Lyte", "Kafylox", "Potassium hydrocarbonate", "Milstop", "EcoMate Armicarb \"", "O\"", "", "EcoCarb"], "SMILES": "C(=O)(O)O.[K]", "physical_data": {"Molecular Weight": "", "Molecular Formula": "CH2O3.K", "Melting Point": "100 \u00b0C"}}