{"cas_no": "298-81-7", "cn_name": "\u82b1\u6912\u6bd2\u7d20", "en_name": ["8-Methoxypsoralen", "7H-Furo[3,2-g][1]benzopyran-7-one, 9-methoxy-", "5-Benzofuranacrylic acid, 6-hydroxy-7-methoxy-, \u03b4-lactone", "9-Methoxy-7H-furo[3,2-g][1]benzopyran-7-one", "8-MOP", "Ammoidin", "Meladinin", "Meloxine", "Methoxa-Dome", "Methoxsalen", "8-Methoxy[furano-3\u2032,2\u2032:6,7-coumarin]", "8-Methoxypsoralen", "Oxsoralen", "Xanthotoxin", "8-Methoxypsoralene", "Xanthotoxine", "Meladoxen", "Meladinine", "Oxypsoralen", "8-MP", "New-Meladinin", "Puvalen", "8-Methoxy-6,7-furanocoumarin", "Puvamet", "Geroxalen", "Uvadex", "Oxsoralen-Ultra", "Oxsoralen Lotion", "Ammodin", "NSC 45923", "Deltapsoralen", "Methoxsalene", "Vitpso", "5-Demethoxyisoimpinellin"], "SMILES": "O(C)C=1C2=C(C=C3C1OC=C3)C=CC(=O)O2", "physical_data": {"Molecular Weight": "216.19", "Molecular Formula": "C12H8O4", "Melting Point": "148 \u00b0C", "Density": "1.539 g/cm\u00b3"}}