{"cas_no": "298-00-0", "cn_name": "\u7532\u57fa\u5bf9\u786b\u78f7", "en_name": ["Parathion-methyl", "Phosphorothioic acid, O,O-dimethyl O-(4-nitrophenyl) ester", "Phosphorothioic acid, O,O-dimethyl O-(p-nitrophenyl) ester", "8056HC", "Dalf", "O,O-Dimethyl O-(p-nitrophenyl) phosphorothioate", "O,O-Dimethyl O-(4-nitrophenyl) phosphorothioate", "Dimethyl 4-nitrophenyl phosphorothioate", "O,O-Dimethyl O-(p-nitrophenyl) thiophosphate", "Dimethyl p-nitrophenyl thiophosphate", "O,O-Dimethyl O-(4-nitrophenyl) thiophosphate", "Metacide", "Metaphos", "Methyl E 605", "Methyl parathion", "Nitrox 80", "Nitrox", "M-Parathion", "Wofatox", "Azofos", "BAY 11405", "Parathion-methyl", "Thiophenit", "Vofatox", "Azophos", "Dimethyl parathion", "Methylthiophos", "Metron", "Metron (pesticide)", "Dimethyl p-nitrophenyl phosphorothionate", "Folidol M", "Folidol M 40", "Parathion methyl homolog", "Sinafid M 48", "Meptox", "Penncap M", "Demethylfenitrothion", "Metafos", "Metafos (pesticide)", "Penncap MLS", "Oleovofotox", "Quinophos", "Metacide (insecticide)", "Paratuf", "Parataf", "Yphos", "ME 605", "Probel MP 2", "ME 1605", "Me 605SP", "Folidol 600", "Methyl 1605", "Folidol M 50", "Metacid 50", "Metacid", "Morphos", "Methyl Bladan", "Bravik", "Bravik 600CE", "Mentox 600CE", "Methyl 4E", "Parathion M", "Folisuper 600BR", "Methion 48EC", "Azophos (pesticide)"], "SMILES": "P(OC1=CC=C(N(=O)=O)C=C1)(OC)(OC)=S", "physical_data": {"Molecular Weight": "263.21", "Molecular Formula": "C8H10NO5PS", "Boiling Point": "154 \u00b0C @ Press: 1.02 Torr", "Melting Point": "35-36 \u00b0C", "Density": "1.358 g/cm\u00b3 @ Temp: 20 \u00b0C"}}