{"cas_no": "298-57-7", "cn_name": "\u6842\u5229\u55ea", "en_name": ["Cinnarizine", "Piperazine, 1-(diphenylmethyl)-4-(3-phenyl-2-propen-1-yl)-", "Piperazine, 1-cinnamyl-4-(diphenylmethyl)-", "Piperazine, 1-(diphenylmethyl)-4-(3-phenyl-2-propenyl)-", "1-(Diphenylmethyl)-4-(3-phenyl-2-propen-1-yl)piperazine", "R 516", "R 1575", "N-Benzhydryl-N\u2032-cinnamylpiperazine", "1-Cinnamyl-4-(diphenylmethyl)piperazine", "Cinnarizine", "Dimitronal", "1-Diphenylmethyl-4-cinnamoylpiperazine", "Marisan", "Midronal", "Mitronal", "Stugeron", "Glanil", "Labyrin", "Dimitron", "Stutgeron", "Stutgin", "Toliman", "Folcodal", "Sepan", "1-Benzhydryl-4-cinnamylpiperazine", "Lazeta", "1-Cinnamyl-4-benzhydrylpiperazine", "1-(3-Phenylallyl)-4-(diphenylmethyl)piperazine", "Artate", "Cinazyn", "Apotomin", "Corathiem", "Cinaperazine", "Katoseran", "Giganten", "Cerepar", "Spaderizine", "Cinnageron", "Cerebolan", "Hilactan", "Cinnipirine", "Denapol", "Eglen", "Carecin", "Cinnacet", "Sedatromin", "Ixterol", "Siptazin", "Aplactan", "Olamin", "516MD", "Processine", "Aplexal", "Cinarizine", "Vergo", "Stunarone", "MeSH ID: D002936"], "SMILES": "C(N1CCN(CC=CC2=CC=CC=C2)CC1)(C3=CC=CC=C3)C4=CC=CC=C4", "physical_data": {"Molecular Weight": "368.51", "Molecular Formula": "C26H28N2", "Melting Point": "120.2 \u00b0C", "Density": "1.13 g/cm\u00b3"}}