{"cas_no": "298-96-4", "cn_name": "2,3,5-\u4e09\u82ef\u57fa\u6c2f\u5316\u56db\u6c2e\u5511", "en_name": ["Triphenyltetrazolium chloride", "2H-Tetrazolium, 2,3,5-triphenyl-, chloride (1:1)", "2,3,5-Triphenyl-2H-tetrazolium chloride", "2H-Tetrazolium, 2,3,5-triphenyl-, chloride", "PTB", "Red tetrazolium", "RT", "TPTZ", "2,3,5-Triphenyltetrazolium chloride", "Triphenyltetrazolium chloride", "TTC", "Vitastain", "Tetrazolium chloride", "TT", "Uroscreen", "1,3,5-Triphenyl-2H-tetrazolium chloride", "1,3,5-Triphenyltetrazolium chloride", "Urocheck", "Tetrazolium red", "TTC (dye)"], "SMILES": "N1([N+](=NC(=N1)C2=CC=CC=C2)C3=CC=CC=C3)C4=CC=CC=C4.[Cl-]", "physical_data": {"Molecular Weight": "", "Molecular Formula": "C19H15N4.Cl", "Melting Point": "243 \u00b0C (decomp)"}}