{"cas_no": "298-07-7", "cn_name": "\u4e8c(2-\u4e59\u57fa\u5df1\u57fa)\u78f7\u9178\u916f", "en_name": ["Bis(2-ethylhexyl) phosphate", "Phosphoric acid, bis(2-ethylhexyl) ester", "1-Hexanol, 2-ethyl-, hydrogen phosphate", "Bis(2-ethylhexyl) phosphate", "Di(2-ethylhexyl)orthophosphoric acid", "2-Ethyl-1-hexanol hydrogen phosphate", "HDEHP", "Di-2-ethylhexyl hydrogen phosphate", "Bis(2-ethylhexyl) hydrogen phosphate", "Bis(2-ethylhexyl) orthophosphate", "O,O-Bis(2-ethylhexyl)phosphoric acid", "O,O-Di(2-ethylhexyl)phosphoric acid", "Hydrogen bis(2-ethylhexyl) phosphate", "Di(2-ethylhexyl) phosphate", "D 2EHPA", "DP 8R", "P 204 (acid)", "P 204", "LB 58", "Hostarex PA 216", "Phosphoric acid di(2-ethylhexyl) ester", "Orthophosphoric acid 2-ethylhexyl alcohol diester", "Di(2-ethylhexyl)phosphoric acid", "Dioctyl orthophosphate", "Dioctyl phosphate", "Dioctyl hydrogen phosphate", "DEHAP", "JB 58", "HDEHPA", "TOPS 99", "DP 8", "A 208 (phosphate)", "A 208", "Baysolvex D 2EHPA", "Phoslex A 208", "DZ-Ni-EX 02"], "SMILES": "P(OCC(CCCC)CC)(OCC(CCCC)CC)(=O)O", "physical_data": {"Molecular Weight": "322.42", "Molecular Formula": "C16H35O4P", "Melting Point": "-50 \u00b0C", "Density": "0.973 g/cm\u00b3 @ Temp: 25 \u00b0C"}}