{"cas_no": "298-04-4", "cn_name": "\u4e59\u62cc\u78f7", "en_name": ["Disulfoton", "Phosphorodithioic acid, O,O-diethyl S-[2-(ethylthio)ethyl] ester", "M 74", "Bayer 19639", "Disulfoton", "Di-Syston", "Dithiodemeton", "Dithiosystox", "Solvirex", "Frumin AL", "Frumin G", "O,O-Diethyl S-[2-(ethylthio)ethyl] phosphorodithioate", "Thiodemeton", "Frumin", "Glebofos", "Ethylthiometon B", "VUAgT 1964", "Di-Syston G", "ENT-23437", "Ethyl thiometon", "VUAgT 1-4", "O,O-Diethyl S-[2-(ethylthio)ethyl] dithiophosphate", "Bay 19639", "M 74 (pesticide)", "Ekatin TD", "Dution", "Di-Syston 8", "MeSH ID: D004222"], "SMILES": "P(SCCSCC)(OCC)(OCC)=S", "physical_data": {"Molecular Weight": "274.40", "Molecular Formula": "C8H19O2PS3", "Boiling Point": "108 \u00b0C @ Press: 0.01 Torr", "Melting Point": "-25 \u00b0C", "Density": "1.14 g/cm\u00b3"}}