{"cas_no": "298-02-2", "cn_name": "\u7532\u62cc\u78f7", "en_name": ["Phorate", "Phosphorodithioic acid, O,O-diethyl S-[(ethylthio)methyl] ester", "L 11/6", "ENT 24,042", "American Cyanamid 3911", "O,O-Diethyl S-ethylmercaptomethyl dithiophosphate", "O,O-Diethyl S-ethylthiomethyl dithiophosphate", "O,O-Diethyl S-[(ethylthio)methyl] phosphorodithioate", "Experimental Insecticide 3911", "Phorate", "Thimet", "Thimet G", "Thimet 10G", "Phorate 10G", "Timet", "Granutox", "VUAgT 182", "suScon FuMing", "Foratox", "MeSH ID: D010702"], "SMILES": "P(SCSCC)(OCC)(OCC)=S", "physical_data": {"Molecular Weight": "260.38", "Molecular Formula": "C7H17O2PS3", "Boiling Point": "125-127 \u00b0C @ Press: 2.0 Torr", "Melting Point": "&lt;-15 \u00b0C", "Density": "1.156 g/cm\u00b3 @ Temp: 25 \u00b0C"}}