{"cas_no": "298-06-6", "cn_name": "\u4e8c\u786b\u4ee3\u78f7\u9178\u4e8c\u4e59\u916f", "en_name": ["O,O-Diethyl dithiophosphate", "Phosphorodithioic acid, O,O-diethyl ester", "O,O\u2032-Diethyl hydrogen dithiophosphate", "Dithiophosphoric acid O,O-diethyl ester", "O,O-Diethyl dithiophosphate", "O,O-Diethyl phosphorodithioate", "O,O\u2032-Diethyl dithiophosphate", "O,O-Diethyl hydrogen phosphorodithioate", "O,O-Diethyl dithiophosphoric acid ester", "O,O-Diethyl thiolothionophosphate", "Di-O-ethyl dithiophosphate", "NSC 171184"], "SMILES": "P(OCC)(OCC)(=S)S", "physical_data": {"Molecular Weight": "186.23", "Molecular Formula": "C4H11O2PS2", "Boiling Point": "85-90 \u00b0C @ Press: 4-5 Torr", "Density": "1.1753 g/cm\u00b3 @ Temp: 13 \u00b0C"}}