{"cas_no": "298-12-4", "cn_name": "\u4e59\u919b\u9178", "en_name": ["Glyoxylic acid", "Acetic acid, 2-oxo-", "Glyoxylic acid", "Acetic acid, oxo-", "2-Oxoacetic acid", "Formylformic acid", "Glyoxalic acid", "Oxalaldehydic acid", "Oxoethanoic acid", "Oxoacetic acid", "\u03b1-Ketoacetic acid", "NSC 27785", "Formylcarboxylic acid", "Glyoxo High Pure 50", "Carboxyformaldehyde"], "SMILES": "C(C=O)(O)=O", "physical_data": {"Molecular Weight": "74.04", "Molecular Formula": "C2H2O3", "Melting Point": "98 \u00b0C", "Density": "1.42 g/cm\u00b3 @ Temp: 20 \u00b0C"}}