{"cas_no": "298-08-8", "cn_name": "1-\u6c28\u57fa\u4e19\u916e\u76d0\u9178\u76d0", "en_name": ["(2-Oxopropyl)amine", "2-Propanone, 1-amino-", "2-Propanone, amino-", "Aminoacetone", "1-Amino-2-propanone", "\u03b1-Aminoacetone", "(2-Oxopropyl)amine"], "SMILES": "C(CN)(C)=O", "physical_data": {"Molecular Weight": "73.09", "Molecular Formula": "C3H7NO", "Melting Point": "130-131 \u00b0C"}}