{"cas_no": "298-46-4", "cn_name": "\u5361\u9a6c\u897f\u5e73", "en_name": ["Carbamazepine", "5H-Dibenz[b,f]azepine-5-carboxamide", "G 32883", "Geigy 32883", "Carbamazepen", "Carbamazepine", "5-Carbamoyl-5H-dibenz[b,f]azepine", "Carbazepine", "Tegretol", "Tegretal", "Finlepsin", "Karbamazepin", "Neurotol", "Amizepin", "Stazepine", "Carbamazepin", "Sirtal", "Calepsin", "Carbelan", "Telesmin", "Timonil", "Epitol", "Biston", "NSC 169864", "Neurotop", "Carbatrol", "Tegretol XR", "CBZ", "Karberol", "Karbelex", "Equetro", "Tegrital", "MeSH ID: D002220"], "SMILES": "C(N)(=O)N1C=2C(=CC=CC2)C=CC=3C1=CC=CC3", "physical_data": {"Molecular Weight": "236.27", "Molecular Formula": "C15H12N2O", "Melting Point": "190.2 \u00b0C"}}