{"cas_no": "298-95-3", "cn_name": "\u6c2f\u5316\u65b0\u56db\u5511", "en_name": ["Neotetrazolium chloride", "2H-Tetrazolium, 3,3\u2032-[1,1\u2032-biphenyl]-4,4\u2032-diylbis[2,5-diphenyl-, chloride (1:2)", "3,3\u2032-(4,4\u2032-Biphenylylene)bis[2,5-diphenyl-2H-tetrazolium chloride]", "2H-Tetrazolium, 3,3\u2032-(4,4\u2032-biphenylylene)bis[2,5-diphenyl-, dichloride", "2H-Tetrazolium, 3,3\u2032-[1,1\u2032-biphenyl]-4,4\u2032-diylbis[2,5-diphenyl-, dichloride", "Neo-T", "Neotetrazolium chloride", "Neotetrazolium", "TP", "2,2\u2032-(p-Diphenylene)bis(3,5-diphenyl)ditetrazolium chloride", "Neotetrazolium blue", "3,3\u2032-(4,4\u2032-Biphenylene)bis[2,5-diphenyltetrazolium chloride]", "NTC", "NSC 27621"], "SMILES": "[N+]=1(N(N=C(N1)C2=CC=CC=C2)C3=CC=CC=C3)C4=CC=C(C=C4)C5=CC=C(C=C5)[N+]=6N(N=C(N6)C7=CC=CC=C7)C8=CC=CC=C8.[Cl-]", "physical_data": {"Molecular Weight": "", "Molecular Formula": "C38H28N8.2Cl", "Melting Point": "297 \u00b0C (decomp)"}}