{"cas_no": "2980-33-8", "cn_name": "2-\u7f9f\u57fa-3,5-\u4e8c\u785d\u57fa\u5421\u5576", "en_name": ["3,5-Dinitro-2(1H)-pyridinone", "2(1H)-Pyridinone, 3,5-dinitro-", "2-Pyridinol, 3,5-dinitro-", "2(1H)-Pyridone, 3,5-dinitro-", "3,5-Dinitro-2(1H)-pyridinone", "3,5-Dinitro-2-pyridone", "2-Hydroxy-3,5-dinitropyridine", "3,5-Dinitro-2-hydroxypyridine", "3,5-Dinitropyridin-2-one", "NSC 52198", "3,5-Dinitro-1H-pyridin-2-one", "3,5-Dinitro-1,2-dihydropyridin-2-one"], "SMILES": "N(=O)(=O)C1=CC(N(=O)=O)=CNC1=O", "physical_data": {"Molecular Weight": "185.09", "Molecular Formula": "C5H3N3O5", "Melting Point": "175 \u00b0C"}}