{"cas_no": "29806-73-3", "cn_name": "\u68d5\u6988\u9178\u8f9b\u916f", "en_name": ["Octyl palmitate", "Hexadecanoic acid, 2-ethylhexyl ester", "Palmitic acid, 2-ethylhexyl ester", "2-Ethylhexyl palmitate", "Ceraphyl 368", "Wickenol 155", "Cegesoft C 24", "Palmitic acid-2-ethylhexyl monoester", "Ceraphil 368", "Exceparl EH-P", "Exepal EH-P", "Kessco OP", "Kessco Octyl Palmitate", "Octyl palmitate", "Tegosoft OP", "Tegosoft O", "Salacos P 8", "Lexol EHP", "Crodamol OP", "Saboderm OP", "Jeechem Op", "Dermol 816", "Schercemol OP", "2-Ethylhexyl hexadecanoate", "Nissan Unister MB 816", "Unister MB 816", "Pastell 2H16", "MB 816", "Ethylhexyl palmitate", "2-Ethylhexyl palmate", "Radia 7129", "Palmester 1543", "Botanester EHP", "Neosolue-IOP", "Koyo POC", "Nikkol SG-IOP", "Protachem OP", "DUB PO"], "SMILES": "C(COC(CCCCCCCCCCCCCCC)=O)(CCCC)CC", "physical_data": {"Molecular Weight": "368.64", "Molecular Formula": "C24H48O2", "Melting Point": "2 \u00b0C"}}