{"cas_no": "2980-64-5", "cn_name": "\u4e8c\u785d\u57fa\u90bb\u7532\u915a\u94f5", "en_name": ["DNOC-ammonium", "Phenol, 2-methyl-4,6-dinitro-, ammonium salt (1:1)", "o-Cresol, 4,6-dinitro-, ammonium salt", "Phenol, 2-methyl-4,6-dinitro-, ammonium salt", "o-Cresol, 4,6-dinitro-, NH4 deriv.", "o-Cresol, 4,6-dinitro-, ammonium deriv.", "4,6-Dinitro-o-cresol ammonium salt", "Dinozol 50", "Kresonit E", "Krezamon", "Dinozol", "DNOC ammonium salt", "Ammonium DNOC", "Erbitox", "Krezonit E", "Superelgetol", "Nitrosan", "Nitrosan (pesticide)", "Kresamone", "2-Methyl-4,6-nitrophenol ammonium salt", "DNOC-ammonium"], "SMILES": "N(=O)(=O)C1=CC(N(=O)=O)=CC(C)=C1O.N", "physical_data": {"Molecular Weight": "", "Molecular Formula": "C7H6N2O5.H3N", "Melting Point": "205 \u00b0C"}}