{"cas_no": "2980-32-7", "cn_name": "\u53bb\u7532\u57fa\u96cf\u83ca\u53f6\u9f99\u80c6\u916e", "en_name": ["Demethylbellidifolin", "9H-Xanthen-9-one, 1,3,5,8-tetrahydroxy-", "Xanthen-9-one, 1,3,5,8-tetrahydroxy-", "1,3,5,8-Tetrahydroxy-9H-xanthen-9-one", "Demethylbellidifolin", "1,3,5,8-Tetrahydroxyxanthone", "1,3,5,8-Tetrahydroxyxanthen-9-one", "Desmethylbellidifoline", "Desmethylbellidifolin", "Bellidin", "3-O-Demethylbellidifolin", "Norbellidifodin", "Norbellidifolin", "1,3,5,8-Tetrahydroxy xanthenone"], "SMILES": "O=C1C=2C(OC=3C1=C(O)C=CC3O)=CC(O)=CC2O", "physical_data": {"Molecular Weight": "260.20", "Molecular Formula": "C13H8O6", "Melting Point": "317 \u00b0C"}}