{"cas_no": "29800-89-3", "cn_name": "\u5f02\u70df\u9178\u7532\u916f", "en_name": ["4-Pyridineacetic acid, methyl ester", "4-Pyridineacetic acid, methyl ester", "Methyl 4-pyridineacetate", "Methyl 4-pyridylacetate", "Methyl 2-(pyridin-4-yl)acetate", "Methyl 4-carboxymethylpyridine", "Pyridin-4-ylacetic acid methyl ester"], "SMILES": "C(C(OC)=O)C=1C=CN=CC1", "physical_data": {"Molecular Weight": "151.16", "Molecular Formula": "C8H9NO2", "Boiling Point": "150 \u00b0C @ Press: 0.2 Torr"}}