{"cas_no": "29816-01-1", "cn_name": "\u7518\u6c28\u9170\u808c\u6c28\u9178", "en_name": ["Glycylsarcosine", "Glycine, glycyl-N-methyl-", "Sarcosine, N-glycyl-", "Glycine, N-glycyl-N-methyl-", "Glycyl-N-methylglycine", "Glycylsarcosine", "NSC 206288", "2-[(2-Aminoacetyl)-methylamino]acetic acid", "2-(2-Amino-N-methylacetamido)acetic acid"], "SMILES": "N(C(CN)=O)(CC(O)=O)C", "physical_data": {"Molecular Weight": "146.14", "Molecular Formula": "C5H10N2O3", "Melting Point": "200-201 \u00b0C"}}