{"cas_no": "2981-10-4", "cn_name": "1-(1-\u73af\u5df1\u70ef\u57fa)\u54cc\u5576", "en_name": ["1-(1-Cyclohexen-1-yl)piperidine", "Piperidine, 1-(1-cyclohexen-1-yl)-", "1-(1-Cyclohexen-1-yl)piperidine", "1-Piperidinocyclohexene", "1-Piperidino-1-cyclohexene", "1-Piperidinylcyclohexene", "1-(1-Cyclohexenyl)piperidine", "N-(1-Cyclohexen-1-yl)piperidine", "N-(1-Cyclohexenyl)piperidine", "1-(Cyclohex-1-enyl)piperidine", "1-(1-Piperidinyl)cyclohex-1-ene"], "SMILES": "C=1(CCCCC1)N2CCCCC2", "physical_data": {"Molecular Weight": "165.28", "Molecular Formula": "C11H19N", "Boiling Point": "116-118 \u00b0C"}}