{"cas_no": "29823-18-5", "cn_name": "7-\u6eb4\u5e9a\u9178\u4e59\u916f", "en_name": ["Heptanoic acid, 7-bromo-, ethyl ester", "Heptanoic acid, 7-bromo-, ethyl ester", "Ethyl 7-bromoheptanoate", "7-Bromoheptanoic acid ethyl ester"], "SMILES": "C(CCCCCCBr)(OCC)=O", "physical_data": {"Molecular Weight": "237.13", "Molecular Formula": "C9H17BrO2", "Boiling Point": "112 \u00b0C @ Press: 5 Torr"}}