{"cas_no": "29823-21-0", "cn_name": "8-\u6eb4\u8f9b\u9178\u4e59\u916f", "en_name": ["Octanoic acid, 8-bromo-, ethyl ester", "Octanoic acid, 8-bromo-, ethyl ester", "Caprylic acid, \u03b7-bromo-, ethyl ester", "Ethyl 8-bromooctanoate", "8-Bromocaprylic acid ethyl ester", "NSC 100182", "8-Bromooctanoic acid ethyl ester"], "SMILES": "C(CCCCCCCBr)(OCC)=O", "physical_data": {"Molecular Weight": "251.16", "Molecular Formula": "C10H19BrO2", "Boiling Point": "120-123 \u00b0C @ Press: 3 Torr"}}