{"cas_no": "29836-26-8", "cn_name": "\u8f9b\u57fa-beta-D-\u5421\u5583\u8461\u8404\u7cd6\u82f7", "en_name": ["Octyl \u03b2-D-glucopyranoside", "\u03b2-D-Glucopyranoside, octyl", "Glucopyranoside, octyl, \u03b2-D-", "Octyl \u03b2-D-glucopyranoside", "n-Octyl \u03b2-D-glucoside", "Octyl \u03b2-glucopyranoside", "Octyl glucoside", "1-Octyl \u03b2-D-glucoside", "1-O-n-Octyl-\u03b2-D-glucopyranoside", "Octyl \u03b2-D-glycopyranoside", "n-Octyl \u03b2-D-glucopyranoside", "1-n-Octyl \u03b2-D-glucopyranoside", "Octyl \u03b2-D-glucoside", "1-O-Octyl-\u03b2-D-glucopyranoside", "1-O-Octyl-\u03b2-D-glucopyranose", "\u03b2-D-Octyl glucoside", "\u03b2-Octyl monoglucoside", "1-Octyl \u03b2-D-glucopyranoside", "BTB 11967", "PlantaCare 810"], "SMILES": "O(CCCCCCCC)C1OC(CO)C(O)C(O)C1O", "physical_data": {"Molecular Weight": "292.37", "Molecular Formula": "C14H28O6", "Melting Point": "108-109 \u00b0C"}}