{"cas_no": "2983-37-1", "cn_name": "2-\u4e59\u57fa-\u5df1\u9178\u4e59\u916f", "en_name": ["Ethyl 2-ethylhexanoate", "Hexanoic acid, 2-ethyl-, ethyl ester", "Ethyl 2-ethylhexanoate", "Ethyl \u03b1-ethylcaproate", "Irotyl"], "SMILES": "C(C(OCC)=O)(CCCC)CC", "physical_data": {"Molecular Weight": "172.26", "Molecular Formula": "C10H20O2", "Boiling Point": "189-191 \u00b0C @ Press: 166 Torr", "Density": "0.8628 g/cm\u00b3 @ Temp: 20 \u00b0C"}}