{"cas_no": "2983-38-2", "cn_name": "2-\u4e59\u57fa\u4e01\u9178\u4e59\u916f", "en_name": ["Ethyl 2-ethylbutyrate", "Butanoic acid, 2-ethyl-, ethyl ester", "Butyric acid, 2-ethyl-, ethyl ester", "Butyric acid, \u03b1-ethyl-, ethyl ester", "Ethyl 2-ethylbutyrate", "Ethyl \u03b1-ethylbutyrate", "Ethyl 2-ethylbutanoate", "2-Ethylbutyric acid ethyl ester", "2-Ethylbutanoic acid ethyl ester", "2-Ethyl-n-butyric acid ethyl ester"], "SMILES": "C(C(OCC)=O)(CC)CC", "physical_data": {"Molecular Weight": "144.21", "Molecular Formula": "C8H16O2", "Boiling Point": "68 \u00b0C @ Press: 25 Torr", "Density": "0.864 g/cm\u00b3 @ Temp: 25 \u00b0C"}}