{"cas_no": "29838-67-3", "cn_name": "\u843d\u65b0\u5987\u82f7", "en_name": ["Astilbin", "4H-1-Benzopyran-4-one, 3-[(6-deoxy-\u03b1-L-mannopyranosyl)oxy]-2-(3,4-dihydroxyphenyl)-2,3-dihydro-5,7-dihydroxy-, (2R,3R)-", "Astilbin", "4H-1-Benzopyran-4-one, 3-[(6-deoxy-\u03b1-L-mannopyranosyl)oxy]-2-(3,4-dihydroxyphenyl)-2,3-dihydro-5,7-dihydroxy-, (2R-trans)-", "(2R,3R)-3-[(6-Deoxy-\u03b1-L-mannopyranosyl)oxy]-2-(3,4-dihydroxyphenyl)-2,3-dihydro-5,7-dihydroxy-4H-1-benzopyran-4-one", "Taxifolin 3-rhamnoside", "Taxifolin 3-O-rhamnoside", "Dihydroquercetin 3-O-\u03b1-L-rhamnopyranoside", "Dihydroquercetin 3-rhamnoside", "(-)-(2R,3R)-Dihydroquercetin 3-O-\u03b1-L-rhamnoside", "Dihydroquercitrin", "(2R,3R)-Astilbin", "(2R,3R)-Dihydroquercetin 3-O-\u03b1-L-rhamnopyranoside", "Taxifolin 3-O-\u03b1-L-rhamnopyranoside"], "SMILES": "O(C1C(OC=2C(C1=O)=C(O)C=C(O)C2)C3=CC(O)=C(O)C=C3)C4C(O)C(O)C(O)C(C)O4", "physical_data": {"Molecular Weight": "450.39", "Molecular Formula": "C21H22O11", "Melting Point": "180 \u00b0C (decomp)"}}