{"cas_no": "29834-76-2", "cn_name": "L-\u7094\u4e01\u57fa\u7518\u6c28\u9178", "en_name": ["(2S)-2-Amino-4-hexynoic acid", "4-Hexynoic acid, 2-amino-, (2S)-", "4-Hexynoic acid, 2-amino-, L-", "4-Hexynoic acid, 2-amino-, (S)-", "(2S)-2-Amino-4-hexynoic acid", "L-2-Amino-4-hexynoic acid", "(S)-2-Aminohex-4-ynoic acid", "(2S)-2-Aminohex-4-ynoic acid"], "SMILES": "C(C(O)=O)(CC#CC)N", "physical_data": {"Molecular Weight": "127.14", "Molecular Formula": "C6H9NO2", "Melting Point": "238-240 \u00b0C"}}