{"cas_no": "29841-69-8", "cn_name": "(1S,2S)-1,2-\u4e8c\u82ef\u57fa\u4e59\u4e8c\u80fa", "en_name": ["(-)-(S,S)-1,2-Diphenylethylenediamine", "1,2-Ethanediamine, 1,2-diphenyl-, (1S,2S)-", "Ethylenediamine, 1,2-diphenyl-, (1S,2S)-(-)-", "1,2-Ethanediamine, 1,2-diphenyl-, [S-(R*,R*)]-", "(1S,2S)-1,2-Diphenyl-1,2-ethanediamine", "(-)-Stilbenediamine", "(S,S)-1,2-Diphenylethylenediamine", "(S,S)-Stilbenediamine", "(S,S)-1,2-Diphenyl-1,2-ethanediamine", "(1S,2S)-Diphenyl-1,2-diaminoethane", "(-)-1,2-Diphenylethylenediamine", "(S,S)-(-)-1,2-Diphenylethylenediamine", "(1S,2S)-(-)-1,2-Diphenylethylenediamine", "(1S,2S)-1,2-Diphenyl-1,2-diaminoethane", "(1S,2S)-1,2-Diphenylethylenediamine", "(S,S)-1,2-Diamino-1,2-diphenylethane", "(1S,2S)-Diphenylethanediamine", "(S,S)-1,2-Diphenyl-1,2-diaminoethane", "1,2-(S,S)-Diamino-1,2-diphenylethane", "(-)-(S,S)-1,2-Diphenylethylenediamine", "(1S,2S)-(-)-1,2-Diphenylethylenediamine", "((1S,2S)-2-Amino-1,2-diphenylethyl)amine", "(S,S)-1,2-Diphenylethylene-1,2-diamine", "(1S,2S)-1,2-Diamino-1,2-diphenylethane", "(1S,2S)-1,2-Diphenylethan-1,2-diamine", "(1S,2S)-1,2-Diphenylethylendiamine"], "SMILES": "C(C(N)C1=CC=CC=C1)(N)C2=CC=CC=C2", "physical_data": {"Molecular Weight": "212.29", "Molecular Formula": "C14H16N2", "Melting Point": "82-84 \u00b0C"}}