{"cas_no": "2984-50-1", "cn_name": "1\uff0c2-\u73af\u6c27\u5df2\u70f7", "en_name": ["2-Hexyloxirane", "Oxirane, 2-hexyl-", "Octane, 1,2-epoxy-", "Oxirane, hexyl-", "2-Hexyloxirane", "1,2-Epoxyoctane", "Octene-1,2-oxide", "1,2-Epoxy-n-octane", "1-Octene oxide", "n-Octene-1,2-oxide", "1-Octene epoxide", "Octane 1,2-oxide", "\u03b1-Epoxyoctane", "n-Hexyloxirane", "1,2-Octylene oxide", "1,2-Epoxyoctene", "Hexyloxirane", "(\u00b1)-1,2-Epoxyoctane", "NSC 24246"], "SMILES": "C(CCCCC)C1CO1", "physical_data": {"Molecular Weight": "128.21", "Molecular Formula": "C8H16O", "Boiling Point": "61 \u00b0C @ Press: 15 Torr", "Density": "0.839 g/cm\u00b3 @ Temp: 20 \u00b0C"}}