{"cas_no": "2984-55-6", "cn_name": "\u7f9f\u57fa\u6708\u6842\u9178", "en_name": ["(\u00b1)-2-Hydroxydodecanoic acid", "Dodecanoic acid, 2-hydroxy-", "2-Hydroxydodecanoic acid", "\u03b1-Hydroxylauric acid", "2-Hydroxylauric acid", "\u03b1-Hydroxydodecanoic acid", "(\u00b1)-\u03b1-Hydroxylauric acid", "DL-2-Hydroxylauric acid", "(\u00b1)-2-Hydroxydodecanoic acid", "DL-2-Hydroxydodecanoic acid", "NSC 39025"], "SMILES": "C(CCCCCCCC)CC(C(O)=O)O", "physical_data": {"Molecular Weight": "216.32", "Molecular Formula": "C12H24O3", "Melting Point": "46-47 \u00b0C"}}