{"cas_no": "29840-57-1", "cn_name": "5-\u6c28\u57fa\u620a\u9178\u4e59\u916f\u76d0\u9178\u76d0", "en_name": ["Pentanoic acid, 5-amino-, ethyl ester, hydrochloride (1:1)", "Pentanoic acid, 5-amino-, ethyl ester, hydrochloride (1:1)", "Valeric acid, 5-amino-, ethyl ester, hydrochloride", "Pentanoic acid, 5-amino-, ethyl ester, hydrochloride", "5-Aminopentanoic acid ethyl ester hydrochloride", "Ethyl 5-aminovalerate hydrochloride", "5-Aminovaleric acid ethyl ester hydrochloride", "Ethyl 5-aminopentanoate hydrochloride", "5-Aminovaleic acid ethyl ester hydrochloride"], "SMILES": "C(C(OCC)=O)CCCN.Cl", "physical_data": {"Molecular Weight": "", "Molecular Formula": "C7H15NO2.ClH", "Melting Point": "77-80 \u00b0C"}}