{"cas_no": "2985-59-3", "cn_name": "\u7d2b\u5916\u7ebf\u5438\u6536\u5242 UV-1200", "en_name": ["2-Hydroxy-4-dodecyloxybenzophenone", "Methanone, [4-(dodecyloxy)-2-hydroxyphenyl]phenyl-", "Benzophenone, 4-(dodecyloxy)-2-hydroxy-", "[4-(Dodecyloxy)-2-hydroxyphenyl]phenylmethanone", "4-Dodecyloxy-2-hydroxybenzophenone", "2-Hydroxy-4-dodecyloxybenzophenone", "DOBP", "p-Dodecyloxy-2-hydroxybenzophenone", "2-Hydroxy-4-n-dodecyloxybenzophenone", "Eastman Inhibitor DOBP", "Syntase 1200", "Seesorb 103", "2-Hydroxy-4-lauryloxybenzophenone", "Chimassorb 125", "UV-Chek AM 320", "UV 1200", "AM 320", "2-Hydroxy-lauryloxy benzophenone", "(4-Dodecoxy-2-hydroxyphenyl)-phenylmethanone", "2-Benzoyl-5-(dodecyloxy)phenol", "UV 538"], "SMILES": "C(=O)(C1=C(O)C=C(OCCCCCCCCCCCC)C=C1)C2=CC=CC=C2", "physical_data": {"Molecular Weight": "382.54", "Molecular Formula": "C25H34O3", "Melting Point": "49-50 \u00b0C"}}