{"cas_no": "2986-17-6", "cn_name": "1,3-\u4e8c\u5f02\u4e19\u57fa-2-\u786b\u8132", "en_name": ["N,N\u2032-Bis(1-methylethyl)thiourea", "Thiourea, N,N\u2032-bis(1-methylethyl)-", "Urea, 1,3-diisopropyl-2-thio-", "N,N\u2032-Bis(1-methylethyl)thiourea", "N,N\u2032-Diisopropylthiourea", "1,3-Diisopropylthiourea", "Diisopropylthiourea", "1,3-Diisopropyl-2-thiourea", "NSC 8694", "1,3-Di(propan-2-yl)thiourea", "1,3-Bis(propan-2-yl)thiourea"], "SMILES": "N(C(NC(C)C)=S)C(C)C", "physical_data": {"Molecular Weight": "160.28", "Molecular Formula": "C7H16N2S", "Melting Point": "142 \u00b0C"}}