{"cas_no": "2986-19-8", "cn_name": "2-\u7532\u57fa-2-\u758f\u57fa\u786b\u9178\u8132", "en_name": ["Methylisothiourea", "Carbamimidothioic acid, methyl ester", "Pseudourea, 2-methyl-2-thio-", "2-Methyl-2-thiopseudourea", "Methylisothiourea", "S-Methylisothiourea", "S-Methylthiopseudourea", "2-Methylpseudothiourea", "2-Methylisothiourea", "Methylisothiuronium", "Methylthiopseudourea", "S-Methylthiourea", "S-Methylpseudothiourea", "2-Methyl-2-pseudothiourea", "2-Methylthiourea", "Methyl carbamimidothioate", "(Methylsulfanyl)methanimidamide"], "SMILES": "C(SC)(=N)N", "physical_data": {"Molecular Weight": "90.15", "Molecular Formula": "C2H6N2S", "Melting Point": "244 \u00b0C (decomp)"}}