{"cas_no": "2986-00-7", "cn_name": "\u0391-\u6c2f\u4ee3\u4e59\u9170\u57fa-\u0393-\u4e01\u5185\u916f", "en_name": ["\u03b1-Acetyl-\u03b1-chloro-\u03b3-butyrolactone", "2(3H)-Furanone, 3-acetyl-3-chlorodihydro-", "Acetoacetic acid, 2-chloro-2-(2-hydroxyethyl)-, \u03b3-lactone", "3-Acetyl-3-chlorodihydro-2(3H)-furanone", "\u03b1-Acetyl-\u03b1-chloro-\u03b3-butyrolactone", "2-Acetyl-2-chlorobutyrolactone", "3-Acetyl-3-chlorodihydrofuran-2(3H)-one", "3-Acetyl-3-chloro-dihydro-furan-2-one", "3-Acetyl-3-chlorooxolan-2-one"], "SMILES": "C(C)(=O)C1(Cl)C(=O)OCC1", "physical_data": {"Molecular Weight": "162.57", "Molecular Formula": "C6H7ClO3", "Boiling Point": "54-55 \u00b0C @ Press: 0.1 Torr", "Melting Point": "2.2-3.0 \u00b0C", "Density": "1.325 g/cm\u00b3 @ Temp: 15 \u00b0C"}}