{"cas_no": "298690-74-1", "cn_name": "2-(3-\u6c2f\u82ef\u57fa)-\u5421\u54af\u70f7", "en_name": ["2-(3-Chlorophenyl)pyrrolidine", "Pyrrolidine, 2-(3-chlorophenyl)-", "2-(3-Chlorophenyl)pyrrolidine"], "SMILES": "ClC=1C=C(C=CC1)C2CCCN2", "physical_data": {"Molecular Weight": "181.66", "Molecular Formula": "C10H12ClN", "Boiling Point": "138-141 \u00b0C @ Press: 16 Torr"}}