{"cas_no": "2987-49-7", "cn_name": "2-\u7532\u78fa\u9170\u57fa\u82ef\u80fa", "en_name": ["2-(Methylsulfonyl)benzenamine", "Benzenamine, 2-(methylsulfonyl)-", "Aniline, o-(methylsulfonyl)-", "2-(Methylsulfonyl)benzenamine", "o-(Methylsulfonyl)aniline", "2-Aminophenyl methyl sulfone", "2-(Methylsulfonyl)aniline", "Claasz's sulfurylindoxyl", "2-(Methanesulfonyl)aniline", "NSC 55747"], "SMILES": "S(C)(=O)(=O)C1=C(N)C=CC=C1", "physical_data": {"Molecular Weight": "171.22", "Molecular Formula": "C7H9NO2S", "Melting Point": "85-92 \u00b0C"}}