{"cas_no": "2987-46-4", "cn_name": "\u786b\u6c30\u57fa\u82ef\u80fa", "en_name": ["Rhodan", "Thiocyanic acid, 4-aminophenyl ester", "Thiocyanic acid, p-aminophenyl ester", "Aniline, p-thiocyano-", "p-Rhodananiline", "p-Thiocyanatoaniline", "Rodan", "1-Amino-4-thiocyanatobenzene", "Rhodan", "4-Thiocyanatobenzenamine", "4-Thiocyanatoaniline", "p-(Thiocyano)aniline", "4-Thiocyanoaniline", "4-Aminophenyl thiocyanate", "NSC 227955", "Rodethanil"], "SMILES": "S(C#N)C1=CC=C(N)C=C1", "physical_data": {"Molecular Weight": "150.20", "Molecular Formula": "C7H6N2S", "Melting Point": "57-57.5 \u00b0C", "Density": "1.37 g/cm\u00b3"}}