{"cas_no": "2987-17-9", "cn_name": "\u73af\u4e01\u57fa\u7532\u919b", "en_name": ["Cyclobutanecarboxaldehyde", "Cyclobutanecarboxaldehyde", "Cyclobutanaldehyde", "Formylcyclobutane", "Cyclobutylcarboxaldehyde", "Cyclobutanecarbaldehyde", "1-Cyclobutane-aldehyde"], "SMILES": "C(=O)C1CCC1", "physical_data": {"Molecular Weight": "84.12", "Molecular Formula": "C5H8O", "Boiling Point": "116-118 \u00b0C", "Density": "0.9355 g/cm\u00b3 @ Temp: 20 \u00b0C"}}