{"cas_no": "2987-53-3", "cn_name": "2-\u6c28\u57fa\u8334\u9999\u786b\u919a", "en_name": ["2-(Methylthio)aniline", "Benzenamine, 2-(methylthio)-", "Aniline, o-(methylthio)-", "2-(Methylthio)benzenamine", "o-Aminophenyl methyl sulfide", "o-(Methylthio)aniline", "2-(Methylmercapto)aniline", "2-(Methylthio)aniline", "2-Aminothioanisole", "2-Aminophenyl methyl sulfide", "o-(Methylmercapto)aniline", "o-Aminothioanisole", "Methyl o-aminophenyl sulfide", "(2-(Methylthio)phenyl)amine", "NSC 41588", "NSC 62853", "NSC 9425", "2-(Methylsulfanyl)aniline", "2-Methylsulfanylphenylamine"], "SMILES": "S(C)C1=C(N)C=CC=C1", "physical_data": {"Molecular Weight": "139.22", "Molecular Formula": "C7H9NS", "Boiling Point": "234 \u00b0C", "Melting Point": "215 \u00b0C", "Density": "1.115 g/cm\u00b3 @ Temp: 25 \u00b0C"}}