{"cas_no": "29878-31-7", "cn_name": "4-\u7532\u57fa\u82ef\u57fa-1,2,3-\u4e09\u567b\u5511", "en_name": ["4-Methylbenzotriazole", "1H-Benzotriazole, 7-methyl-", "1H-Benzotriazole, 4-methyl-", "Benzotriazole, 4-methyl-", "7-Methyl-1H-benzotriazole", "4-Methylbenzotriazole", "4-Methyl-1,2,3-benzotriazole", "4-Methyl-1H-benzotriazole", "4-Methyl-1H-benzo[d][1,2,3]triazole"], "SMILES": "CC1=C2C(=CC=C1)N=NN2", "physical_data": {"Molecular Weight": "133.15", "Molecular Formula": "C7H7N3", "Melting Point": "145-148 \u00b0C"}}