{"cas_no": "29876-14-0", "cn_name": "\u5c3c\u53ef\u66f2\u6735", "en_name": ["Tryptamide", "3-Pyridinecarboxamide, N-[2-(1H-indol-3-yl)ethyl]-", "Nicotinamide, N-(2-indol-3-ylethyl)-", "N-[2-(1H-Indol-3-yl)ethyl]-3-pyridinecarboxamide", "N-Nicotinoyltryptamine", "Tryptamide", "N-(2-Indol-3-ylethyl)nicotinamide", "Nicotredole", "NSC 138472"], "SMILES": "C(CNC(=O)C=1C=CC=NC1)C=2C=3C(NC2)=CC=CC3", "physical_data": {"Molecular Weight": "265.31", "Molecular Formula": "C16H15N3O", "Melting Point": "151-154 \u00b0C"}}