{"cas_no": "2987-16-8", "cn_name": "3,3-\u4e8c\u7532\u57fa\u4e01\u919b", "en_name": ["3,3-Dimethylbutanal", "Butanal, 3,3-dimethyl-", "Butyraldehyde, 3,3-dimethyl-", "3,3-Dimethylbutanal", "3,3-Dimethylbutyraldehyde", "tert-Butylacetaldehyde", "3-Methyl-isovaleraldehyde", "2-tert-Butylacetaldehyde"], "SMILES": "C(C(C)(C)C)C=O", "physical_data": {"Molecular Weight": "100.16", "Molecular Formula": "C6H12O", "Boiling Point": "98.5-99.5 \u00b0C", "Density": "0.8184 g/cm\u00b3 @ Temp: 25 \u00b0C"}}