{"cas_no": "29883-15-6", "cn_name": "\u82e6\u674f\u4ec1\u82f7", "en_name": ["Amygdalin", "Benzeneacetonitrile, \u03b1-[(6-O-\u03b2-D-glucopyranosyl-\u03b2-D-glucopyranosyl)oxy]-, (\u03b1R)-", "Amygdalin", "Benzeneacetonitrile, \u03b1-[(6-O-\u03b2-D-glucopyranosyl-\u03b2-D-glucopyranosyl)oxy]-, (R)-", "(\u03b1R)-\u03b1-[(6-O-\u03b2-D-Glucopyranosyl-\u03b2-D-glucopyranosyl)oxy]benzeneacetonitrile", "D-Amygdalin", "Amygdaloside", "Mandelonitrile-\u03b2-gentiobioside", "(R)-Amygdalin", "NSC 15780", "(-)-Amygdalin", "Amygdaloside (disaccharide)", "MeSH ID: D000678"], "SMILES": "O(C(C#N)C1=CC=CC=C1)C2OC(COC3OC(CO)C(O)C(O)C3O)C(O)C(O)C2O", "physical_data": {"Molecular Weight": "457.43", "Molecular Formula": "C20H27NO11", "Melting Point": "223-226 \u00b0C"}}