{"cas_no": "29884-49-9", "cn_name": "\u767d\u76ae\u6749\u9187\u8461\u8404\u7cd6\u82f7", "en_name": ["Astringin", "\u03b2-D-Glucopyranoside, 3-[(1E)-2-(3,4-dihydroxyphenyl)ethenyl]-5-hydroxyphenyl", "Astringin", "\u03b2-D-Glucopyranoside, 3-[2-(3,4-dihydroxyphenyl)ethenyl]-5-hydroxyphenyl, (E)-", "3-[(1E)-2-(3,4-Dihydroxyphenyl)ethenyl]-5-hydroxyphenyl \u03b2-D-glucopyranoside", "3,4,3\u2032,5\u2032-Tetrahydroxystilbene 3\u2032-glucoside", "(E)-Astringin", "trans-Astringin"], "SMILES": "O(C1OC(CO)C(O)C(O)C1O)C2=CC(C=CC3=CC(O)=C(O)C=C3)=CC(O)=C2", "physical_data": {"Molecular Weight": "406.38", "Molecular Formula": "C20H22O9", "Melting Point": "218-220 \u00b0C"}}