{"cas_no": "29882-07-3", "cn_name": "4-\u6c2f\u4e01\u919b\u7f29\u4e8c\u7532\u9187", "en_name": ["4-Chloro-1,1-dimethoxybutane", "Butane, 4-chloro-1,1-dimethoxy-", "Butyraldehyde, 4-chloro-, dimethyl acetal", "4-Chloro-1,1-dimethoxybutane", "4-Chlorobutyraldehyde dimethyl acetal", "4,4-Dimethoxybutyl chloride", "1-Chloro-4,4-dimethoxybutane", "4-Chlorobutanal dimethyl acetal"], "SMILES": "C(CCCCl)(OC)OC", "physical_data": {"Molecular Weight": "152.62", "Molecular Formula": "C6H13ClO2", "Boiling Point": "88-91 \u00b0C @ Press: 8 Torr", "Density": "1.14458 g/cm\u00b3 @ Temp: 20 \u00b0C"}}