{"cas_no": "29886-64-4", "cn_name": "4-(3-\u567b\u5429\u57fa)\u82ef\u7532\u9178", "en_name": ["4-(3-Thienyl)benzoic acid", "Benzoic acid, 4-(3-thienyl)-", "Benzoic acid, p-3-thienyl-", "4-(3-Thienyl)benzoic acid", "4-(Thien-3-yl)benzoic acid", "4-Thiophen-3-yl-benzoic acid"], "SMILES": "C(O)(=O)C1=CC=C(C=C1)C=2C=CSC2", "physical_data": {"Molecular Weight": "204.24", "Molecular Formula": "C11H8O2S", "Melting Point": "280 \u00b0C"}}