{"cas_no": "29897-82-3", "cn_name": "1-\u82c4\u57fa\u5421\u54af\u70f7", "en_name": ["1-(Phenylmethyl)pyrrolidine", "Pyrrolidine, 1-(phenylmethyl)-", "Pyrrolidine, 1-benzyl-", "1-(Phenylmethyl)pyrrolidine", "N-Benzylpyrrolidine", "N-Benzyltetrahydropyrrole", "1-Benzylpyrrolidine"], "SMILES": "C(C1=CC=CC=C1)N2CCCC2", "physical_data": {"Molecular Weight": "161.24", "Molecular Formula": "C11H15N", "Boiling Point": "234-236 \u00b0C", "Melting Point": "125.5-128.0 \u00b0C", "Density": "0.9627 g/cm\u00b3 @ Temp: 20 \u00b0C"}}