{"cas_no": "29898-32-6", "cn_name": "2,4-\u4e8c\u6c2f-1-\u7898\u82ef", "en_name": ["2,4-Dichloro-1-iodobenzene", "Benzene, 2,4-dichloro-1-iodo-", "2,4-Dichloro-1-iodobenzene", "2,4-Dichloroiodobenzene", "2,4-Dichlorophenyl iodide", "1,3-Dichloro-4-iodobenzene", "NSC 90657"], "SMILES": "ClC1=C(I)C=CC(Cl)=C1", "physical_data": {"Molecular Weight": "272.90", "Molecular Formula": "C6H3Cl2I", "Boiling Point": "259-261 \u00b0C"}}