{"cas_no": "29898-25-7", "cn_name": "1-\u82ef\u57fa-3-\u5df1\u916e", "en_name": ["1-Phenyl-3-hexanone", "3-Hexanone, 1-phenyl-", "1-Phenyl-3-hexanone", "Phenethyl propyl ketone"], "SMILES": "C(CC(CCC)=O)C1=CC=CC=C1", "physical_data": {"Molecular Weight": "176.25", "Molecular Formula": "C12H16O", "Boiling Point": "263 \u00b0C @ Press: 760 Torr", "Density": "0.9719 g/cm\u00b3 @ Temp: 40 \u00b0C"}}