{"cas_no": "299-95-6", "cn_name": "\u6d88\u65cb\u786b\u9178\u5f02\u4e19\u80be\u4e0a\u817a\u7d20", "en_name": ["Isoproterenol sulfate", "1,2-Benzenediol, 4-[1-hydroxy-2-[(1-methylethyl)amino]ethyl]-, sulfate (2:1)", "Benzyl alcohol, 3,4-dihydroxy-\u03b1-[(isopropylamino)methyl]-, sulfate (2:1) (salt)", "1,2-Benzenediol, 4-[1-hydroxy-2-[(1-methylethyl)amino]ethyl]-, sulfate (2:1) (salt)", "1-(3,4-Dihydroxyphenyl)-2-isopropylaminoethanol sulfate (2:1)", "Isoprenaline sulfate (2:1)", "Isoproterenol sulfate (2:1)", "Isopropylnoradrenaline sulfate", "Isoproterenol sulfate", "Isoprenaline sulfate", "N-Isopropylnorepinephrine sulfate", "Aleudrin", "Novodrin", "Medihaler-ISO", "Novodrine", "dl-\u03b1-3,4-Dihydroxyphenyl-\u03b2-iso-propylaminoethanol sulfate", "dl-Isoprenaline sulfate", "(\u00b1)-Isoprenaline sulfate", "dl-Isoproterenol sulfate", "(\u00b1)-Isoproterenol sulfate"], "SMILES": "S(=O)(=O)(O)O.C(CNC(C)C)(O)C1=CC(O)=C(O)C=C1", "physical_data": {"Molecular Weight": "", "Molecular Formula": "C11H17NO3.<sup>1</sup>/2H2O4S", "Melting Point": "180 \u00b0C"}}