{"cas_no": "299-45-6", "cn_name": "\u6251\u6253\u6563(\u6740\u866b\u5242)", "en_name": ["O,O-Diethyl O-(4-methyl-2-oxo-2H-1-benzopyran-7-yl) phosphorothioate", "Phosphorothioic acid, O,O-diethyl O-(4-methyl-2-oxo-2H-1-benzopyran-7-yl) ester", "Coumarin, 7-hydroxy-4-methyl-, O-ester with O,O-diethyl phosphorothioate", "Umbelliferone, 4-methyl-, O,O-diethyl phosphorothioate", "O,O-Diethyl O-(4-methyl-2-oxo-2H-1-benzopyran-7-yl) phosphorothioate", "E 838", "O,O-Diethyl O-(2-keto-4-methyl-7-\u03b1\u2032,\u03b2\u2032-benzo-\u03b1\u2032-pyranyl) thiophosphate", "O,O-Diethyl O-(4-methyl-7-coumarinyl) phosphorothioate", "Diethyl methylcoumarinyl thiophosphate", "O,O-Diethyl O-(4-methylumbelliferone) phosphorothioate", "Diethyl (4-methylumbelliferyl) thionophosphate", "7-Hydroxy-4-methylcoumarin diethoxythiophosphoric acid ester", "4-Methyl-7-hydroxycoumarin diethoxythiophosphate", "4-Methylumbelliferone O,O-diethyl thiophosphate", "Potasan", "Potasan-G-liquid"], "SMILES": "CC=1C=2C(=CC(OP(OCC)(OCC)=S)=CC2)OC(=O)C1", "physical_data": {"Molecular Weight": "328.32", "Molecular Formula": "C14H17O5PS", "Boiling Point": "210 \u00b0C", "Melting Point": "38 \u00b0C"}}