{"cas_no": "299-86-5", "cn_name": "\u80b2\u755c\u78f7", "en_name": ["Crufomate", "Phosphoramidic acid, N-methyl-, 2-chloro-4-(1,1-dimethylethyl)phenyl methyl ester", "Phosphoramidic acid, methyl-, 4-tert-butyl-2-chlorophenyl methyl ester", "Phosphoramidic acid, methyl-, 2-chloro-4-(1,1-dimethylethyl)phenyl methyl ester", "Dowco 132", "4-tert-Butyl-2-chlorophenyl methyl N-methylphosphoramidate", "4-tert-Butyl-2-chlorophenyl methyl methylphosphoramidate", "Crufomate", "Montrel", "Ruelene", "Ruelene drench", "Amidophos", "Amidofos", "4-tert-Butyl-2-chlorophenyl N-methyl O-methylphosphoramidate", "Crufomat", "NSC 253463"], "SMILES": "O(P(NC)(OC)=O)C1=C(Cl)C=C(C(C)(C)C)C=C1", "physical_data": {"Molecular Weight": "291.71", "Molecular Formula": "C12H19ClNO3P", "Boiling Point": "117-118 \u00b0C @ Press: 0.01 Torr", "Melting Point": "60-60.5 \u00b0C", "Density": "1.1618 g/cm\u00b3 @ Temp: 70 \u00b0C"}}