{"cas_no": "299-35-4", "cn_name": "\u786b\u4ee3\u786b\u80fa\u7d20", "en_name": ["3-[(4-Amino-2-methyl-5-pyrimidinyl)methyl]-5-(2-hydroxyethyl)-4-methyl-2(3H)-thiazolethione", "2(3H)-Thiazolethione, 3-[(4-amino-2-methyl-5-pyrimidinyl)methyl]-5-(2-hydroxyethyl)-4-methyl-", "4-Thiazoline-2-thione, 3-[(4-amino-2-methyl-5-pyrimidinyl)methyl]-5-(2-hydroxyethyl)-4-methyl-", "3-[(4-Amino-2-methyl-5-pyrimidinyl)methyl]-5-(2-hydroxyethyl)-4-methyl-2(3H)-thiazolethione", "Thiothiamine", "SB", "Thiothiamin", "Thiamin thiothiazolone", "3-[(4-Amino-2-methylpyrimidin-5-yl)methyl]-5-(2-hydroxyethyl)-4-methyl-1,3-thiazole-2-thione", "3-[(4-Amino-2-methylpyrimidin-5-yl)methyl]-5-(2-hydroxyethyl)-4-methyl-2,3-dihydro-1,3-thiazole-2-thione"], "SMILES": "C(N1C(C)=C(CCO)SC1=S)C=2C(N)=NC(C)=NC2", "physical_data": {"Molecular Weight": "296.41", "Molecular Formula": "C12H16N4OS2", "Melting Point": "238-239 \u00b0C"}}