{"cas_no": "299-75-2", "cn_name": "\u66f2\u5965\u8212\u51e1", "en_name": ["Treosulfan", "1,2,3,4-Butanetetrol, 1,4-dimethanesulfonate, (2S,3S)-", "1,2,3,4-Butanetetrol, 1,4-dimethanesulfonate, [S-(R*,R*)]-", "Threitol, 1,4-dimethanesulfonate, (2S,3S)-", "(2S,3S)-Threitol 1,4-bismethanesulfonate", "Threosulphan", "Treosulfan", "Tresulfan", "Treosulphan", "NSC 39069", "L-Threitol 1,4-bis(methanesulfonate)", "Ovastat", "Trecondi"], "SMILES": "C(C(COS(C)(=O)=O)O)(COS(C)(=O)=O)O", "physical_data": {"Molecular Weight": "278.30", "Molecular Formula": "C6H14O8S2", "Melting Point": "76-78 \u00b0C"}}