{"cas_no": "299-26-3", "cn_name": "DL-ALPHA-\u7532\u57fa\u8272\u80fa", "en_name": ["(\u00b1)-\u03b1-Methyltryptamine", "1H-Indole-3-ethanamine, \u03b1-methyl-", "Indole, 3-(2-aminopropyl)-", "\u03b1-Methyl-1H-indole-3-ethanamine", "U 14", "164 E", "Ro 3-0926", "3-(2-Aminopropyl)indole", "\u03b1-Methyltryptamine", "\u03b1-Methyl-3-indoleethanamine", "(\u00b1)-\u03b1-Methyltryptamine", "NSC 97069", "2-(1H-Indol-3-yl)-1-methylethylamine", "3-(2-Aminopropyl)-1H-indole", "AMT", "AMT (\u03b1-methyltryptamine)", "DL-\u03b1-Methyltryptamine", "1-(1H-Indol-3-yl)propan-2-amine"], "SMILES": "C(C(C)N)C=1C=2C(NC1)=CC=CC2", "physical_data": {"Molecular Weight": "174.24", "Molecular Formula": "C11H14N2", "Boiling Point": "137 \u00b0C @ Press: 0.3 Torr", "Melting Point": "97-98 \u00b0C"}}