{"cas_no": "299-42-3", "cn_name": "\u9ebb\u9ec4\u78b1", "en_name": ["Ephedrine", "Benzenemethanol, \u03b1-[(1S)-1-(methylamino)ethyl]-, (\u03b1R)-", "Ephedrine, (-)-", "Benzenemethanol, \u03b1-[1-(methylamino)ethyl]-, [R-(R*,S*)]-", "(\u03b1R)-\u03b1-[(1S)-1-(Methylamino)ethyl]benzenemethanol", "Ephedrine", "(1R,2S)-1-Hydroxy-2-(methylamino)-1-phenylpropane", "Ephedrin", "(-)-Ephedrine", "(-)-(1R,2S)-Ephedrin", "1(R),2(S)-erythro-(-)-Ephedrine", "(-)-Ephedrin", "(-)-erythro-Ephedrine", "l-Ephedrine", "L-erythro-2-(Methylamino)-1-phenylpropan-1-ol", "L-Ephedrine", "(1R,2S)-Ephedrine", "NSC 170951", "NSC 8971", "(1R,2S)-(-)-Ephedrine", "Xenadrine", "(1R,2S)-2-(Methylamino)-1-phenyl-1-propanol", "Efedrina", "Ephedsol", "MeSH ID: D004809"], "SMILES": "C(C(NC)C)(O)C1=CC=CC=C1", "physical_data": {"Molecular Weight": "165.23", "Molecular Formula": "C10H15NO", "Boiling Point": "255 \u00b0C", "Melting Point": "34 \u00b0C"}}