{"cas_no": "299-84-3", "cn_name": "\u76ae\u8747\u78f7", "en_name": ["Fenchlorphos", "Phosphorothioic acid, O,O-dimethyl O-(2,4,5-trichlorophenyl) ester", "Dow ET 14", "Dow ET 57", "ET 57", "ENT 23,284", "O,O-Dimethyl O-(2,4,5-trichlorophenyl) phosphorothioate", "O,O-Dimethyl O-(2,4,5-trichlorophenyl) thiophosphate", "Etrolene", "Fenchlorfos", "Fenchlorphos", "Korlane", "Nanchor", "Ronnel", "Trolene", "ET 14", "Nankor", "OMS 123", "Remelt", "Gesektin K", "Trolen", "Rovan", "Moorman's Medicated Rid-Ezy", "Blitex", "Dermafos", "Ectoral", "Fenclofos", "Korlan", "Phenchlorfos", "Fenclorvur", "Trichlorometaphos", "Trichlormetaphos", "Viozene", "O,O-Dimethyl O-(2,4,5-trichlorophenyl) phosphorothionate", "NSC 8926", "Fenclorfos"], "SMILES": "O(P(OC)(OC)=S)C1=C(Cl)C=C(Cl)C(Cl)=C1", "physical_data": {"Molecular Weight": "321.55", "Molecular Formula": "C8H8Cl3O3PS", "Boiling Point": "97 \u00b0C @ Press: 9.8 x 10<sup>-3</sup> Torr", "Melting Point": "41 \u00b0C", "Density": "1.485 g/cm\u00b3 @ Temp: 25 \u00b0C"}}