{"cas_no": "299-11-6", "cn_name": "5-\u7532\u57fa\u5429\u55ea\u786b\u9178\u7532\u916f", "en_name": ["Phenazine methosulfate", "Phenazinium, 5-methyl-, methyl sulfate (1:1)", "5-Methylphenazinium methyl sulfate", "Phenazinium, 5-methyl-, methyl sulfate", "N-Methylphenazonium methosulfate", "Phenazine methosulfate", "PMS", "N-Methylphenazinium methosulfate", "N-Methylphenazonium methosulphate", "5-N-Methylphenazonium methosulfate", "N-Methylphenazinium methyl sulfate", "Phenazine methosulphate", "PMS (pharmaceutical)", "NSC 34661", "9-Methylphenazinium methyl sulfate", "N-Methylphenazine methosulfate"], "SMILES": "C[N+]=1C2=C(N=C3C1C=CC=C3)C=CC=C2.S(OC)(=O)(=O)[O-]", "physical_data": {"Molecular Weight": "", "Molecular Formula": "C13H11N2.CH3O4S", "Melting Point": "157 \u00b0C"}}