{"cas_no": "299-39-8", "cn_name": "\u786b\u9178\u53f8\u5df4\u4e01", "en_name": ["7,14-Methano-2H,6H-dipyrido[1,2-a:1\u2032,2\u2032-e][1,5]diazocine, dodecahydro-, (7S,7aR,14S,14aS)-, sulfate (1:1)", "7,14-Methano-2H,6H-dipyrido[1,2-a:1\u2032,2\u2032-e][1,5]diazocine, dodecahydro-, (7S,7aR,14S,14aS)-, sulfate (1:1)", "Sparteine, sulfate (1:1)", "7,14-Methano-2H,6H-dipyrido[1,2-a:1\u2032,2\u2032-e][1,5]diazocine, dodecahydro-, [7S-(7\u03b1,7a\u03b1,14\u03b1,14a\u03b2)]-, sulfate (1:1)", "Sparteine sulfate", "Sparm", "Sparteal", "Tocosimplex", "Spartepur", "Spartin", "Spartocin", "Spatym", "Spal", "Spareng", "NSC 143087", "NSC 26253", "NSC 402663", "(-)-Sparteine sulfate"], "SMILES": "C12C3N(CC(C1)C4N(C2)CCCC4)CCCC3.S(=O)(=O)(O)O", "physical_data": {"Molecular Weight": "", "Molecular Formula": "C15H26N2.H2O4S", "Melting Point": "149 \u00b0C"}}