{"cas_no": "299-27-4", "cn_name": "\u8461\u8404\u7cd6\u9178\u94be", "en_name": ["Potassium gluconate", "D-Gluconic acid, potassium salt (1:1)", "Gluconic acid, monopotassium salt, D-", "D-Gluconic acid, monopotassium salt", "Potassium gluconate", "Katorin", "Gluconic acid potassium salt", "Potasoral", "Potassuril", "K-IAO", "Potassium D-gluconate", "Kalium-Beta", "Sirokal", "Potalium", "Gluconsan K", "Katrin", "Kalimozan", "Tumil K", "Kaon", "Helshas K"], "SMILES": "C(C(C(CO)O)O)(C(C(O)=O)O)O.[K]", "physical_data": {"Molecular Weight": "", "Molecular Formula": "C6H12O7.K", "Melting Point": "106 \u00b0C (decomp)"}}