{"cas_no": "299-88-7", "cn_name": "\u4e8c\u82ef\u7532\u9170\u786b\u80fa\u7d20", "en_name": ["Dibenzoylthiamine", "Benzenecarbothioic acid, S-[2-[[(4-amino-2-methyl-5-pyrimidinyl)methyl]formylamino]-1-[2-(benzoyloxy)ethyl]-1-propen-1-yl] ester", "Benzoic acid, thio-, S-ester with N-[(4-amino-2-methyl-5-pyrimidinyl)methyl]-N-(4-hydroxy-2-mercapto-1-methyl-1-butenyl)formamide benzoate (ester)", "Thiamine, O,S-dibenzoyl-", "Benzenecarbothioic acid, S-[2-[[(4-amino-2-methyl-5-pyrimidinyl)methyl]formylamino]-1-[2-(benzoyloxy)ethyl]-1-propenyl] ester", "Bentiamine", "DBT", "Dibenzoylthiamine", "O,S-Dibenzoylthiamine", "O,S-Bis(benzoyl)thiamine disulfide", "Dibenthiamine"], "SMILES": "C(N(C(=C(SC(=O)C1=CC=CC=C1)CCOC(=O)C2=CC=CC=C2)C)C=O)C=3C(N)=NC(C)=NC3", "physical_data": {"Molecular Weight": "490.57", "Molecular Formula": "C26H26N4O4S", "Melting Point": "172 \u00b0C"}}