{"cas_no": "29901-85-7", "cn_name": "\u5e9a\u70ef\u9178", "en_name": ["3-Heptenoic acid", "3-Heptenoic acid"], "SMILES": "C(CC(O)=O)=CCCC", "physical_data": {"Molecular Weight": "128.17", "Molecular Formula": "C7H12O2", "Boiling Point": "104-109 \u00b0C @ Press: 5 Torr", "Density": "0.9471 g/cm\u00b3 @ Temp: 25 \u00b0C"}}