{"cas_no": "2991-28-8", "cn_name": "2,5-\u4e8c\u6c1f\u82ef\u7532\u9178", "en_name": ["2,5-Difluorobenzoic acid", "Benzoic acid, 2,5-difluoro-", "2,5-Difluorobenzoic acid", "NSC 190310"], "SMILES": "C(O)(=O)C1=C(F)C=CC(F)=C1", "physical_data": {"Molecular Weight": "158.10", "Molecular Formula": "C7H4F2O2", "Melting Point": "133 \u00b0C"}}