{"cas_no": "2991-42-6", "cn_name": "4-\u4e09\u6c1f\u7532\u57fa\u82ef\u78fa\u9170\u6c2f", "en_name": ["4-(Trifluoromethyl)benzenesulfonyl chloride", "Benzenesulfonyl chloride, 4-(trifluoromethyl)-", "p-Toluenesulfonyl chloride, \u03b1,\u03b1,\u03b1-trifluoro-", "4-(Trifluoromethyl)benzenesulfonyl chloride", "\u03b1,\u03b1,\u03b1-Trifluoro-p-toluenesulfonyl chloride", "p-Trifluoromethylbenzenesulfonyl chloride", "[4-(Trifluoromethyl)phenyl]sulfonyl chloride", "[p-(Trifluoromethyl)phenyl]sulfonyl chloride", "4-(Trifluoromethyl)benzene-1-sulfonyl chloride"], "SMILES": "C(F)(F)(F)C1=CC=C(S(Cl)(=O)=O)C=C1", "physical_data": {"Molecular Weight": "244.62", "Molecular Formula": "C7H4ClF3O2S", "Boiling Point": "56-60 \u00b0C @ Press: 0.03 Torr", "Melting Point": "31-33 \u00b0C"}}