{"cas_no": "29911-28-2", "cn_name": "\u4e8c\u4e19\u4e8c\u9187\u4e01\u919a", "en_name": ["1-(1-Butoxy-2-propoxy)-2-propanol", "2-Propanol, 1-(2-butoxy-1-methylethoxy)-", "1-(2-Butoxy-1-methylethoxy)-2-propanol", "1-(1-Butoxy-2-propoxy)-2-propanol", "Solvenon DPnB", "1-((1-Butoxypropan-2-yl)oxy)propan-2-ol", "Celtol DPNB", "(2-Butoxy-1-methylethoxy)propan-2-ol"], "SMILES": "C(OCC(C)O)(COCCCC)C", "physical_data": {"Molecular Weight": "190.28", "Molecular Formula": "C10H22O3", "Boiling Point": "103 \u00b0C @ Press: 10 Torr", "Density": "0.9185 g/cm\u00b3 @ Temp: 20 \u00b0C"}}