{"cas_no": "29922-56-3", "cn_name": "3-\u6eb4-4-\u7f9f\u57fa\u82ef\u7532\u9187", "en_name": ["3-Bromo-4-hydroxybenzenemethanol", "Benzenemethanol, 3-bromo-4-hydroxy-", "Benzyl alcohol, 3-bromo-4-hydroxy-", "3-Bromo-4-hydroxybenzenemethanol", "3-Bromo-4-hydroxybenzyl alcohol", "3-bromo-4-hydroxybenzenemethanol", "2-Bromo-4-hydroxymethylphenol"], "SMILES": "C(O)C1=CC(Br)=C(O)C=C1", "physical_data": {"Molecular Weight": "203.03", "Molecular Formula": "C7H7BrO2", "Melting Point": "127-129 \u00b0C"}}