{"cas_no": "29921-57-1", "cn_name": "\u6eb4\u4e59\u9178\u5f02\u4e19\u916f", "en_name": ["Isopropyl bromoacetate", "Acetic acid, 2-bromo-, 1-methylethyl ester", "Acetic acid, bromo-, isopropyl ester", "Acetic acid, bromo-, 1-methylethyl ester", "Isopropyl bromoacetate", "1-Methylethyl monobromoacetate", "Isopropyl \u03b1-bromoacetate", "Bromoacetic acid isopropyl ester", "2-Bromoacetic acid isopropyl ester", "Isopropyl 2-bromoacetate"], "SMILES": "C(OC(C)C)(CBr)=O", "physical_data": {"Molecular Weight": "181.03", "Molecular Formula": "C5H9BrO2", "Boiling Point": "52-54 \u00b0C @ Press: 10 Torr", "Density": "1.3980 g/cm\u00b3 @ Temp: 20 \u00b0C"}}