{"cas_no": "2993-85-3", "cn_name": "1H,1H,7H-\u5341\u4e8c\u6c1f\u5e9a\u57fa\u4e19\u70ef\u9178\u916f", "en_name": ["2,2,3,3,4,4,5,5,6,6,7,7-Dodecafluoroheptyl acrylate", "2-Propenoic acid, 2,2,3,3,4,4,5,5,6,6,7,7-dodecafluoroheptyl ester", "Acrylic acid, 2,2,3,3,4,4,5,5,6,6,7,7-dodecafluoroheptyl ester", "1-Heptanol, 2,2,3,3,4,4,5,5,6,6,7,7-dodecafluoro-, acrylate", "1H,1H,7H-Dodecafluoro-1-heptyl acrylate", "1,1,7-Trihydrododecafluoroheptyl acrylate", "1,1,7-Trihydroperfluoroheptyl acrylate", "2,2,3,3,4,4,5,5,6,6,7,7-Dodecafluoroheptyl acrylate", "R 5610", "1H,1H,7H-Perfluoroheptyl acrylate", "1H,1H,7H-Dodecafluoroheptyl acrylate", "2,2,3,3,4,4,5,5,6,6,7,7-Dodecafluoroheptyl prop-2-enoate"], "SMILES": "C(C(C(COC(C=C)=O)(F)F)(F)F)(C(C(C(F)F)(F)F)(F)F)(F)F", "physical_data": {"Molecular Weight": "386.13", "Molecular Formula": "C10H6F12O2", "Boiling Point": "56-58 \u00b0C @ Press: 6 Torr"}}