{"cas_no": "2993-22-8", "cn_name": "\u4e94\u6c1f\u5316(3-\u6c28\u82ef\u57fa)\u786b", "en_name": ["(OC-6-21)-(3-Aminophenyl)pentafluorosulfur", "Sulfur, (3-aminophenyl)pentafluoro-, (OC-6-21)-", "Sulfur, (3-aminophenyl)pentafluoro-", "Aniline, m-pentafluorosulfur deriv.", "(m-Aminophenyl)sulfur pentafluoride", "(OC-6-21)-(3-Aminophenyl)pentafluorosulfur", "3-(Aminophenyl)sulfur pentafluoride", "3-(Pentafluorosulfanyl)aniline", "3-Amino(pentafluorosulfanyl)benzene", "3-(Pentafluorosulfanyl)phenylamine", "3-Aminophenylsulphur pentafluoride"], "SMILES": "S(F)(F)(F)(F)(F)C1=CC(N)=CC=C1", "physical_data": {"Molecular Weight": "219.18", "Molecular Formula": "C6H6F5NS", "Boiling Point": "86.5 \u00b0C @ Press: 3.2 Torr", "Melting Point": "37 \u00b0C"}}