{"cas_no": "29949-85-7", "cn_name": "\u4e09(3-\u6c2f\u82ef\u57fa)\u81a6", "en_name": ["Tris(3-chlorophenyl)phosphine", "Phosphine, tris(3-chlorophenyl)-", "Phosphine, tris(m-chlorophenyl)-", "Tris(3-chlorophenyl)phosphine", "Tris(m-chlorophenyl)phosphine", "Tri(m-chlorophenyl)phosphine"], "SMILES": "P(C1=CC(Cl)=CC=C1)(C2=CC(Cl)=CC=C2)C3=CC(Cl)=CC=C3", "physical_data": {"Molecular Weight": "365.62", "Molecular Formula": "C18H12Cl3P", "Melting Point": "67 \u00b0C"}}