{"cas_no": "29943-42-8", "cn_name": "\u56db\u6c22\u5421\u5583\u916e", "en_name": ["Tetrahydro-4H-pyran-4-one", "4H-Pyran-4-one, tetrahydro-", "Tetrahydro-4H-pyran-4-one", "Tetrahydro-4-pyrone", "2,3,5,6-Tetrahydro-4-pyranone", "Tetrahydro-\u03b3-pyrone", "4-Oxotetrahydropyran", "4-Oxacyclohexanone", "4-Tetrahydropyranone", "2,3,5,6-Tetrahydropyran-4-one", "3,5,6-Trihydro-2H-pyran-4-one", "Tetrahydro-2H-pyran-4-one", "Dihydro-2H-pyran-4(3H)-one", "3,4,5,6-Tetrahydro-4H-pyran-4-one", "Oxan-4-one"], "SMILES": "O=C1CCOCC1", "physical_data": {"Molecular Weight": "100.12", "Molecular Formula": "C5H8O2", "Boiling Point": "166.5 \u00b0C", "Melting Point": "76-78 \u00b0C", "Density": "1.0980 g/cm\u00b3 @ Temp: 20 \u00b0C"}}