{"cas_no": "29941-82-0", "cn_name": "2-\u4e59\u6c27\u57fa-2-\u73af\u5df1\u70ef-1-\u916e", "en_name": ["2-Ethoxy-2-cyclohexen-1-one", "2-Cyclohexen-1-one, 2-ethoxy-", "2-Ethoxy-2-cyclohexen-1-one", "2-Ethoxy-1-cyclohexen-3-one", "2-Ethoxy-2-cyclohexenone"], "SMILES": "O(CC)C=1C(=O)CCCC1", "physical_data": {"Molecular Weight": "140.18", "Molecular Formula": "C8H12O2", "Boiling Point": "48 \u00b0C @ Press: 0.1 Torr"}}