{"cas_no": "29953-71-7", "cn_name": "(E)-3-\u5432\u54da\u4e19\u70ef\u9178", "en_name": ["trans-3-Indoleacrylic acid", "2-Propenoic acid, 3-(1H-indol-3-yl)-, (2E)-", "Indole-3-acrylic acid, (E)-", "2-Propenoic acid, 3-(1H-indol-3-yl)-, (E)-", "(2E)-3-(1H-Indol-3-yl)-2-propenoic acid", "trans-\u03b2-Indoleacrylic acid", "trans-3-Indoleacrylic acid", "(E)-3-(1H-Indol-3-yl)-2-propenoic acid", "(E)-3-(1H-Indol-3-yl)prop-2-enoic acid", "trans-3-(1H-Indol-3-yl)prop-2-enoic acid"], "SMILES": "C(=CC(O)=O)C=1C=2C(NC1)=CC=CC2", "physical_data": {"Molecular Weight": "187.19", "Molecular Formula": "C11H9NO2", "Melting Point": "195-196 \u00b0C"}}