{"cas_no": "2996-92-1", "cn_name": "\u82ef\u57fa\u4e09\u7532\u6c27\u57fa\u7845\u70f7", "en_name": ["Trimethoxyphenylsilane", "Benzene, (trimethoxysilyl)-", "Silane, trimethoxyphenyl-", "(Trimethoxysilyl)benzene", "Phenyltrimethoxysilane", "Trimethoxyphenylsilane", "A 153", "Z 6071", "KBM 103", "P 0330", "PTS 31", "A 153 (silane derivative)", "AY 43-040", "TSL 8173", "LS 2750", "PTMS", "PhTMO", "Huls/ Petrarch 04330", "Z 6124", "X 40-175", "LS 2570", "PO 330", "PhTMS", "NSC 93925", "AZ 6207", "Dynasylan 9165", "DC 6124", "SiSiB PC 8131", "Z 6125", "Geniosil XL 70", "KH 610", "KH 610 (coupling agent)", "KH 631", "OFS 6124", "Xiameter OFS 6124", "R 00602", "KH 221"], "SMILES": "[Si](OC)(OC)(OC)C1=CC=CC=C1", "physical_data": {"Molecular Weight": "198.29", "Molecular Formula": "C9H14O3Si", "Boiling Point": "211 \u00b0C", "Melting Point": "-25 \u00b0C", "Density": "1.064 g/cm\u00b3"}}