{"cas_no": "29969-57-1", "cn_name": "2-\u6c2f-6-\u785d\u57fa\u55b9\u5549", "en_name": ["2-Chloro-6-nitroquinoline", "Quinoline, 2-chloro-6-nitro-", "2-Chloro-6-nitroquinoline"], "SMILES": "N(=O)(=O)C1=CC2=C(N=C(Cl)C=C2)C=C1", "physical_data": {"Molecular Weight": "208.60", "Molecular Formula": "C9H5ClN2O2", "Melting Point": "235 \u00b0C"}}