{"cas_no": "29968-78-3", "cn_name": "4-\u785d\u57fa\u82ef\u4e59\u80fa\u76d0\u9178\u76d0", "en_name": ["Benzeneethanamine, 4-nitro-, hydrochloride (1:1)", "Benzeneethanamine, 4-nitro-, hydrochloride (1:1)", "Benzeneethanamine, 4-nitro-, monohydrochloride", "Phenethylamine, p-nitro-, monohydrochloride", "2-(4-Nitrophenyl)ethylamine hydrochloride", "p-Nitrophenethylamine hydrochloride", "4-Nitrophenethylamine hydrochloride", "\u03b2-(p-Nitrophenyl)ethylamine hydrochloride", "4-Nitrobenzeneethanamine monohydrochloride", "2-(4-Nitrophenyl)ethanamine hydrochloride", "p-Nitrophenylethylamine hydrochloride", "2-(4-Nitrophenyl)ethan-1-amine hydrochloride"], "SMILES": "N(=O)(=O)C1=CC=C(CCN)C=C1.Cl", "physical_data": {"Molecular Weight": "", "Molecular Formula": "C8H10N2O2.ClH", "Melting Point": "209-210 \u00b0C"}}