{"cas_no": "29964-84-9", "cn_name": "2-\u7532\u57fa-2-\u4e19\u70ef\u9178\u5f02\u7678\u916f", "en_name": ["Isodecyl methacrylate", "2-Propenoic acid, 2-methyl-, isodecyl ester", "Methacrylic acid, isodecyl ester", "Isodecyl methacrylate", "Light Ester ID", "SR 242", "Bisomer IDMA", "Visiomer IDMA", "Miramer M 131"], "SMILES": "", "physical_data": {"Molecular Weight": "", "Molecular Formula": "C14H26O2", "Boiling Point": "120 \u00b0C @ Press: 3 Torr", "Density": "1 x 10<sup>-6</sup> g/cm\u00b3 @ Temp: 25 \u00b0C"}}