{"cas_no": "29976-53-2", "cn_name": "N-\u4e59\u6c27\u7fb0\u57fa-4-\u54cc\u5576\u916e", "en_name": ["1-(Ethoxycarbonyl)-4-piperidone", "1-Piperidinecarboxylic acid, 4-oxo-, ethyl ester", "Ethyl 4-oxo-1-piperidinecarboxylate", "1-Carbethoxy-4-piperidone", "1-Ethoxycarbonyl-4-oxopiperidine", "1-(Ethoxycarbonyl)-4-piperidone", "4-Oxo-1-piperidinecarboxylic acid ethyl ester", "1-Ethoxycarbonyl-4-piperidinone", "N-Ethoxycarbonyl-4-piperidinone", "N-(Ethoxycarbonyl)-4-piperidone", "1-(Carboethoxy)-4-piperidone", "NSC 139022", "N-Carboethoxy-4-piperidone", "1-(Carboethoxy)-4-piperidinone", "N-Carbethoxy-4-piperidone", "N-Carbethoxy-4-piperidinone", "1-Carbethoxypiperidin-4-one"], "SMILES": "C(OCC)(=O)N1CCC(=O)CC1", "physical_data": {"Molecular Weight": "171.19", "Molecular Formula": "C8H13NO3", "Boiling Point": "93-94 \u00b0C @ Press: 1 Torr"}}