{"cas_no": "29976-56-5", "cn_name": "3,5-\u4e8c\u6eb4-2,4,6-\u4e09\u7532\u57fa\u5421\u5576", "en_name": ["3,5-Dibromo-2,4,6-trimethylpyridine", "Pyridine, 3,5-dibromo-2,4,6-trimethyl-", "3,5-Dibromo-2,4,6-trimethylpyridine", "3,5-Dibromo-2,4,6-collidine", "2,4,6-Trimethyl-3,5-dibromopyridine"], "SMILES": "BrC=1C(C)=C(Br)C(C)=NC1C", "physical_data": {"Molecular Weight": "278.97", "Molecular Formula": "C8H9Br2N", "Melting Point": "80.5-81 \u00b0C"}}