{"cas_no": "2997-92-4", "cn_name": "2,2'-\u5076\u6c2e\u4e8c\u5f02\u4e01\u57fa\u8112\u4e8c\u76d0\u9178\u76d0", "en_name": ["2,2-Azobis(2-amidinopropane) dihydrochloride", "Propanimidamide, 2,2\u2032-(1,2-diazenediyl)bis[2-methyl-, hydrochloride (1:2)", "Propionamidine, 2,2\u2032-azobis[2-methyl-, dihydrochloride", "Propanimidamide, 2,2\u2032-azobis[2-methyl-, dihydrochloride", "2,2\u2032-Azobis(isobutyramidine hydrochloride)", "2,2\u2032-Azobis(2-amidinopropane) dihydrochloride", "Azobis(isobutyramidine) dihydrochloride", "MS 1 (catalyst)", "MS 1", "V 50", "Azobisisobutyramidinium dichloride", "2,2\u2032-Azobisisobutyramidinium chloride", "2,2\u2032-Azobis(propane-2-carboxamidine) dihydrochloride", "2,2\u2032-Azobis(2-methylpropionamidine) dihydrochloride", "2,2-Azobis(2-amidinopropane) dihydrochloride", "Azostarter V 50", "AAPH", "2,2\u2032-Azobisamidinopropane dihydrochloride", "NC 32P", "Vazo 56", "VA 50", "VA 50 (catalyst)", "AIBA", "Wako V 50", "Vazo 56WSP", "Vazo 56WSW", "2,2\u2032-Azobis(isobutyramidine) dihydrochloride", "VA 050", "2,2\u2032-Azodiisobutyramidine dihydrochloride", "Azobis(isobutyl)amidine hydrochloride", "TB 2000", "TB 2000 (initiator)", "2,2\u2032-Azodiisobutylamidine dihydrochloride", "V 50 initiator", "Vazo 55", "2,2\u2032-(Diazene-1,2-diyl)bis(2-methylpropanimidamide) dihydrochloride", "Azobis(isobutyl)amidine dihydrochloride", "DN 55549", "LA 3887", "VA 056"], "SMILES": "C(N=NC(C(=N)N)(C)C)(C(=N)N)(C)C.Cl", "physical_data": {"Molecular Weight": "", "Molecular Formula": "C8H18N6.2ClH", "Melting Point": "165-170 \u00b0C (decomp)"}}