{"cas_no": "2997-88-8", "cn_name": "2-\u7532\u57fa-2-\u4e19\u70ef\u91782-(4-\u5417\u5549\u57fa)\u4e59\u57fa\u916f", "en_name": ["2-Morpholinoethyl methacrylate", "2-Propenoic acid, 2-methyl-, 2-(4-morpholinyl)ethyl ester", "Methacrylic acid, 2-morpholinoethyl ester", "4-Morpholineethanol, methacrylate (ester)", "2-Morpholinoethyl methacrylate", "2-(4-Morpholinyl)ethyl methacrylate", "2-(N-Morpholino)ethyl methacrylate", "2-(Morpholin-4-yl)ethyl 2-methylprop-2-enoate", "2-Morpholin-4-ylethyl 2-methylprop-2-enoate"], "SMILES": "C(COC(C(C)=C)=O)N1CCOCC1", "physical_data": {"Molecular Weight": "199.25", "Molecular Formula": "C10H17NO3", "Boiling Point": "78 \u00b0C @ Press: 1.7 mbar"}}