{"cas_no": "29973-13-5", "cn_name": "\u4e59\u786b\u82ef\u5a01", "en_name": ["Ethiofencarb", "Phenol, 2-[(ethylthio)methyl]-, 1-(N-methylcarbamate)", "Carbamic acid, methyl-, \u03b1-(ethylthio)-o-tolyl ester", "Phenol, 2-[(ethylthio)methyl]-, methylcarbamate", "o-Cresol, \u03b1-(ethylthio)-, methylcarbamate", "Croneton", "BAY-HOX 1901", "Ethiofencarb", "HOX 1901", "\u03b1-(Ethylthio)-o-tolyl methylcarbamate", "2-[(Ethylthio)methyl]phenyl methylcarbamate", "Chox 1901", "Arylmate", "Croneton 500", "2-Ethylthiomethyl-phenyl N-methyl-carbamate"], "SMILES": "C(SCC)C1=C(OC(NC)=O)C=CC=C1", "physical_data": {"Molecular Weight": "225.31", "Molecular Formula": "C11H15NO2S", "Melting Point": "33.4 \u00b0C", "Density": "1.231 g/cm\u00b3 @ Temp: 20 \u00b0C"}}