{"cas_no": "2997-01-5", "cn_name": "\u4e59\u4e8c\u9187\u53cc(3-\u80fa\u4e19\u57fa)\u919a", "en_name": ["EDR 176", "1-Propanamine, 3,3\u2032-[1,2-ethanediylbis(oxy)]bis-", "Propylamine, 3,3\u2032-(ethylenedioxy)bis-", "3,3\u2032-[1,2-Ethanediylbis(oxy)]bis[1-propanamine]", "1,2-Bis(3-aminopropoxy)ethane", "Ethylene glycol bis(3-aminopropyl) ether", "Di(3-aminopropoxy)ethane", "Bis(3-aminopropoxy)ethane", "3,3\u2032-(Ethylenedioxy)bis[propylamine]", "1,2-Bis(\u03b3-aminopropoxy)ethane", "1,10-Diamino-4,7-dioxadecane", "4,7-Dioxadecamethylenediamine", "4,7-Dioxadecane-1,10-diamine", "3,3\u2032-(Ethylenedioxy)dipropanamine", "4,7-Dioxa-1,10-diaminodecane", "3-[2-(3-Aminopropoxy)ethoxy]propylamine", "NDPA 10", "XTJ 590", "EDR 176", "Jeffamine EDR 176", "4,7-Dioxadecan-1,10-diamine", "2,2\u2032-(Ethylenedioxy)dipropylamine", "3,3\u2032-(Ethane-1,2-diylbis(oxy))bis(propan-1-amine)", "Jeffamine XTJ 590"], "SMILES": "C(COCCCN)OCCCN", "physical_data": {"Molecular Weight": "176.26", "Molecular Formula": "C8H20N2O2", "Boiling Point": "99-105 \u00b0C @ Press: 4 Torr", "Density": "0.9904 g/cm\u00b3 @ Temp: 20 \u00b0C"}}