{"cas_no": "2997-85-5", "cn_name": "\u5bcc\u9a6c\u9178\u4e8c\u8f9b\u916f", "en_name": ["1,4-Dioctyl (2E)-2-butenedioate", "2-Butenedioic acid (2E)-, 1,4-dioctyl ester", "Fumaric acid, dioctyl ester", "2-Butenedioic acid (E)-, dioctyl ester", "2-Butenedioic acid (2E)-, dioctyl ester", "1,4-Dioctyl (2E)-2-butenedioate", "Dioctyl fumarate", "Di-n-octyl fumarate", "Dicapryl fumarate"], "SMILES": "C(C=CC(OCCCCCCCC)=O)(OCCCCCCCC)=O", "physical_data": {"Molecular Weight": "340.50", "Molecular Formula": "C20H36O4", "Boiling Point": "190 \u00b0C @ Press: 0.8 Torr", "Density": "0.9290 g/cm\u00b3 @ Temp: 23 \u00b0C"}}