{"cas_no": "29975-16-4", "cn_name": "\u827e\u53f8\u5511\u4ed1", "en_name": ["Estazolam", "4H-[1,2,4]Triazolo[4,3-a][1,4]benzodiazepine, 8-chloro-6-phenyl-", "4H-s-Triazolo[4,3-a][1,4]benzodiazepine, 8-chloro-6-phenyl-", "8-Chloro-6-phenyl-4H-[1,2,4]triazolo[4,3-a][1,4]benzodiazepine", "D 40TA", "8-Chloro-6-phenyl-4H-s-triazolo[4,3-a][1,4]benzodiazepine", "8-Chloro-6-phenyl-4H-s-triazolo[4,3-\u03b1][1,4]benzodiazepine", "8-Chloro-6-phenyl-4H-s-triazolo[4,3-a][1,4]benzodiazepine", "Estazolam", "U 33737", "Eurodin", "Abbott 47631", "A 47631", "ProSom", "Somnatrol", "Cannoc", "Nemurel", "Esilgan", "Julodin", "Nuctalon", "NSC 290818", "8-Chloro-6-phenyl-4H-[1,2,4]-triazolo[4,3-(a)][1,4]benzodiazepine", "MeSH ID: D004949"], "SMILES": "ClC=1C=C2C(N3C(CN=C2C4=CC=CC=C4)=NN=C3)=CC1", "physical_data": {"Molecular Weight": "294.74", "Molecular Formula": "C16H11ClN4", "Melting Point": "228.5 \u00b0C"}}