{"cas_no": "2998-23-4", "cn_name": "\u4e19\u70ef\u9178\u6b63\u620a\u916f", "en_name": ["Pentyl acrylate", "2-Propenoic acid, pentyl ester", "Acrylic acid, pentyl ester", "Amyl acrylate", "Pentyl acrylate", "n-Pentyl acrylate", "Pentyl 2-propenoate", "n-Amyl acrylate", "NSC 18605"], "SMILES": "C(OCCCCC)(C=C)=O", "physical_data": {"Molecular Weight": "142.20", "Molecular Formula": "C8H14O2", "Boiling Point": "48 \u00b0C @ Press: 7 Torr", "Density": "0.8903 g/cm\u00b3 @ Temp: 20 \u00b0C"}}