{"cas_no": "2998-04-1", "cn_name": "\u5df2\u4e8c\u9178\u4e19\u70ef\u916f", "en_name": ["1,6-Di-2-propen-1-yl hexanedioate", "Hexanedioic acid, 1,6-di-2-propen-1-yl ester", "Adipic acid, diallyl ester", "Hexanedioic acid, di-2-propenyl ester", "1,6-Di-2-propen-1-yl hexanedioate", "Diallyl adipate", "Allyl adipate", "NSC 20973", "Diallyl hexanedioate"], "SMILES": "C(CCCCC(OCC=C)=O)(OCC=C)=O", "physical_data": {"Molecular Weight": "226.27", "Molecular Formula": "C12H18O4", "Boiling Point": "125-126 \u00b0C", "Density": "1.0235 g/cm\u00b3 @ Temp: 20 \u00b0C"}}