{"cas_no": "2998-56-3", "cn_name": "N,N-\u4e8c(2-\u6c2f\u4e59\u57fa)\u6c28\u57fa\u7532\u9170\u6c2f", "en_name": ["N,N-Bis(2-chloroethyl)carbamic chloride", "Carbamic chloride, N,N-bis(2-chloroethyl)-", "Carbamoyl chloride, bis(2-chloroethyl)-", "Carbamic chloride, bis(2-chloroethyl)-", "N,N-Bis(2-chloroethyl)carbamic chloride", "Bis(2-chloroethyl)carbamoyl chloride", "N,N-Bis(2-chloroethyl)carbamoyl chloride", "N,N-Bis(\u03b2-chloroethyl)carbamoyl chloride", "NSC 73023"], "SMILES": "N(CCCl)(CCCl)C(Cl)=O", "physical_data": {"Molecular Weight": "204.48", "Molecular Formula": "C5H8Cl3NO", "Boiling Point": "92-96 \u00b0C @ Press: 0.1 Torr", "Melting Point": "101-103 \u00b0C", "Density": "1.317 g/cm\u00b3 @ Temp: 20 \u00b0C"}}