{"cas_no": "2998-57-4", "cn_name": "\u96cc\u83ab\u53f8\u6c40", "en_name": ["Estramustine", "Estra-1,3,5(10)-triene-3,17-diol (17\u03b2)-, 3-[bis(2-chloroethyl)carbamate]", "Estradiol, 3-[bis(2-chloroethyl)carbamate]", "Carbamic acid, bis(2-chloroethyl)-, 17\u03b2-hydroxyestra-1,3,5(10)-trien-3-yl ester", "Estramustine", "Leo 275", "17\u03b2-Estradiol 3-[bis(2-chloroethyl)carbamate]", "Estradiol 3-[N,N-bis(2-chloroethyl)carbamate]", "Estracty", "Ro 22-2296/000", "NSC 89201", "\u03b2-Estradiol 3-[N,N-bis(2-chloroethyl)carbamate]"], "SMILES": "CC12C(C3C(C=4C(CC3)=CC(OC(N(CCCl)CCCl)=O)=CC4)CC1)CCC2O", "physical_data": {"Molecular Weight": "440.40", "Molecular Formula": "C23H31Cl2NO3", "Melting Point": "104.5 \u00b0C"}}