{"cas_no": "2999-46-4", "cn_name": "\u5f02\u6c30\u57fa\u4e59\u9178\u4e59\u916f", "en_name": ["Ethyl isocyanoacetate", "Acetic acid, 2-isocyano-, ethyl ester", "Acetic acid, isocyano-, ethyl ester", "(Ethoxycarbonyl)methyl isonitrile", "Ethyl isocyanoacetate", "Isocyanoacetic acid ethyl ester", "\u03b1-Isocyanoacetic acid ethyl ester", "Ethyl \u03b1-isocyanoacetate", "Ethyl 2-isocyanoacetate", "Ethoxycarbonylmethyl isocyanide", "2-Ethoxy-2-oxoethyl isocyanide", "2-Ethyloxycarbonylmethyl isocyanide"], "SMILES": "C(C[N+]#[C-])(OCC)=O", "physical_data": {"Molecular Weight": "", "Molecular Formula": "C5H7NO2", "Boiling Point": "30-40 \u00b0C @ Press: 15 Torr"}}