{"cas_no": "300-76-5", "cn_name": "\u4e8c\u6eb4\u78f7", "en_name": ["Naled", "Phosphoric acid, 1,2-dibromo-2,2-dichloroethyl dimethyl ester", "Ethanol, 1,2-dibromo-2,2-dichloro-, dimethyl phosphate", "RE 4355", "ENT 24988", "Dibrom", "Naled", "Bromex", "O,O-Dimethyl O-(1,2-dibromo-2,2-dichloroethyl) phosphate", "Bromex 50", "Dimethyl 1,2-dibromo-2,2-dichloroethyl phosphate", "Dibromfos", "1,2-Dibromo-2,2-dichloroethyl dimethyl phosphate", "Alvora", "Fosbrom", "Bromex (insecticide)", "BRP", "Bromchlophos", "Flibol Ex", "Trumpet", "Dibrom 8 Emulsive", "Dibrom 8", "MeSH ID: D009267"], "SMILES": "O(P(OC)(OC)=O)C(C(Br)(Cl)Cl)Br", "physical_data": {"Molecular Weight": "380.78", "Molecular Formula": "C4H7Br2Cl2O4P", "Boiling Point": "110 \u00b0C @ Press: 0.50 Torr", "Melting Point": "26.5-27.5 \u00b0C", "Density": "1.96 g/cm\u00b3 @ Temp: 25 \u00b0C"}}