{"cas_no": "300-87-8", "cn_name": "3,5-\u4e8c\u7532\u57fa\u5f02\u5511", "en_name": ["3,5-Dimethylisoxazole", "Isoxazole, 3,5-dimethyl-", "3,5-Dimethylisoxazole", "U 21221", "NSC 40798", "3,5-Dimethyl-1,2-oxazole"], "SMILES": "CC=1C=C(C)ON1", "physical_data": {"Molecular Weight": "97.12", "Molecular Formula": "C5H7NO", "Boiling Point": "143 \u00b0C", "Melting Point": "143-145 \u00b0C"}}