{"cas_no": "300-84-5", "cn_name": "\u4e9a\u725b\u78fa\u9178", "en_name": ["Hypotaurine", "Ethanesulfinic acid, 2-amino-", "2-Aminoethanesulfinic acid", "Cystaminesulfinic acid", "Hypotaurine", "2-Aminoethylsulfinic acid", "2-Aminoethane-1-sulfinic acid"], "SMILES": "C(S(=O)O)CN", "physical_data": {"Molecular Weight": "109.15", "Molecular Formula": "C2H7NO2S", "Melting Point": "175-177 \u00b0C"}}