{"cas_no": "300-92-5", "cn_name": "\u53cc\u786c\u8102\u9178\u94dd", "en_name": ["Aluminum distearate", "Aluminum, hydroxybis(octadecanoato-\u03baO)-", "Aluminum, hydroxybis(stearato)-", "Aluminum, hydroxybis(octadecanoato-O)-", "Octadecanoic acid, aluminum complex", "Hydroxybis(octadecanoato-\u03baO)aluminum", "Aluminum distearate", "Aluminum hydroxide distearate", "Aluminum hydroxydistearate", "NSC 522176", "Al-St 102", "Aluminum Stearate 600", "ALG-D 2", "Ligastar AL-D 2", "Liga ALG-V", "Ligaster ALG-V", "Aluminum Distearate 600", "Hydroxy aluminum distearate"], "SMILES": "O([Al](OC(CCCCCCCCCCCCCCCCC)=O)O)C(CCCCCCCCCCCCCCCCC)=O", "physical_data": {"Molecular Weight": "", "Molecular Formula": "C36H71AlO5", "Melting Point": "145 \u00b0C", "Density": "1.009 g/cm\u00b3"}}