{"cas_no": "300-30-1", "cn_name": "DL-\u7532\u72b6\u817a\u7d20", "en_name": ["(\u00b1)-Thyroxine", "Tyrosine, O-(4-hydroxy-3,5-diiodophenyl)-3,5-diiodo-", "Thyroxine, DL-", "DL-Tyrosine, O-(4-hydroxy-3,5-diiodophenyl)-3,5-diiodo-", "O-(4-Hydroxy-3,5-diiodophenyl)-3,5-diiodotyrosine", "DL-Thyroxine", "(\u00b1)-Thyroxine", "O-(4-Hydroxy-3,5-diiodophenyl)-3,5-diiodo-DL-tyrosine", "2-Azaniumyl-3-[4-(4-hydroxy-3,5-diiodophenoxy)-3,5-diiodophenyl]propanoate", "2-Amino-3-[4-(4-hydroxy-3,5-diiodophenoxy)-3,5-diiodophenyl]propanoic acid"], "SMILES": "O(C1=CC(I)=C(O)C(I)=C1)C2=C(I)C=C(CC(C(O)=O)N)C=C2I", "physical_data": {"Molecular Weight": "776.87", "Molecular Formula": "C15H11I4NO4", "Melting Point": "211 \u00b0C (decomp)"}}