{"cas_no": "300-39-0", "cn_name": "3,5-\u4e8c\u7898-L-\u916a\u6c28\u9178", "en_name": ["3\u2032,5\u2032-Diiodo-L-tyrosine", "L-Tyrosine, 3,5-diiodo-", "Tyrosine, 3,5-diiodo-, L-", "3,5-Diiodo-L-tyrosine", "L-3,5-Diiodotyrosine", "DIT", "DIT (amino acid)", "3\u2032,5\u2032-Diiodo-L-tyrosine", "NSC 4143", "Bijodtyrosin", "(2S)-2-Amino-3-(4-hydroxy-3,5-diiodophenyl)propanoic acid"], "SMILES": "C(C(C(O)=O)N)C1=CC(I)=C(O)C(I)=C1", "physical_data": {"Molecular Weight": "432.98", "Molecular Formula": "C9H9I2NO3", "Melting Point": "188 \u00b0C"}}