{"cas_no": "300-57-2", "cn_name": "\u70ef\u4e19\u82ef", "en_name": ["Allylbenzene", "Benzene, 2-propen-1-yl-", "Benzene, allyl-", "Benzene, 2-propenyl-", "2-Propen-1-ylbenzene", "Allylbenzene", "1-Propene, 3-phenyl-", "3-Phenylpropene", "2-Propenylbenzene", "3-Phenyl-1-propene", "1-Phenyl-2-propene", "1-Benzylethene", "NSC 18609"], "SMILES": "C(C=C)C1=CC=CC=C1", "physical_data": {"Molecular Weight": "118.18", "Molecular Formula": "C9H10", "Boiling Point": "156 \u00b0C", "Melting Point": "-40 \u00b0C", "Density": "0.893 g/cm\u00b3 @ Temp: 20 \u00b0C"}}