{"cas_no": "300-38-9", "cn_name": "3,5-\u4e8c\u6eb4-L-\u916a\u6c28\u9178", "en_name": ["3,5-Dibromo-L-tyrosine", "L-Tyrosine, 3,5-dibromo-", "Tyrosine, 3,5-dibromo-, L-", "3,5-Dibromo-L-tyrosine", "3,5-Dibromotyrosine", "\u03b2-(3,5-Dibromo-4-hydroxyphenyl)alanine", "Biotiren", "Bromotiren", "NSC 210786", "NSC 97935", "(2S)-2-Azaniumyl-3-(3,5-dibromo-4-hydroxyphenyl)propanoate"], "SMILES": "C(C(C(O)=O)N)C1=CC(Br)=C(O)C(Br)=C1", "physical_data": {"Molecular Weight": "338.98", "Molecular Formula": "C9H9Br2NO3", "Melting Point": "245 \u00b0C"}}