{"cas_no": "300-08-3", "cn_name": "\u6c22\u6eb4\u9178\u69df\u6994\u78b1", "en_name": ["Arecoline hydrobromide", "3-Pyridinecarboxylic acid, 1,2,5,6-tetrahydro-1-methyl-, methyl ester, hydrobromide (1:1)", "Nicotinic acid, 1,2,5,6-tetrahydro-1-methyl-, methyl ester, hydrobromide", "3-Pyridinecarboxylic acid, 1,2,5,6-tetrahydro-1-methyl-, methyl ester, hydrobromide", "Arecoline bromide", "Arecoline hydrobromide", "Methyl 1,2,5,6-tetrahydro-1-methylnicotinate hydrobromide", "Methyl N-methyl-1,2,5,6-tetrahydronicotinate hydrobromide", "Taeniolin"], "SMILES": "C(OC)(=O)C=1CN(C)CCC1.Br", "physical_data": {"Molecular Weight": "", "Molecular Formula": "C8H13NO2.BrH", "Melting Point": "169-171 \u00b0C"}}