{"cas_no": "30007-47-7", "cn_name": "5-\u6eb4-5-\u785d\u57fa-1,3-\u4e8c\u6076\u70f7", "en_name": ["5-Bromo-5-nitro-1,3-dioxane", "1,3-Dioxane, 5-bromo-5-nitro-", "m-Dioxane, 5-bromo-5-nitro-", "5-Bromo-5-nitro-1,3-dioxane", "Bronidox", "Bronidox L", "Microcide I"], "SMILES": "N(=O)(=O)C1(Br)COCOC1", "physical_data": {"Molecular Weight": "212.00", "Molecular Formula": "C4H6BrNO4", "Melting Point": "59 \u00b0C"}}