{"cas_no": "3001-72-7", "cn_name": "1,5-\u4e8c\u6c2e\u6742\u53cc\u73af[4.3.0]\u58ec-5-\u70ef", "en_name": ["1,5-Diazabicyclo[4.3.0]non-5-ene", "Pyrrolo[1,2-a]pyrimidine, 2,3,4,6,7,8-hexahydro-", "2,3,4,6,7,8-Hexahydropyrrolo[1,2-a]pyrimidine", "DBN", "DBN (heterocycle)", "1,5-Diazabicyclo[4.3.0]non-5-ene", "1,5-Diazobicyclo[4.3.0]non-5-ene", "NSC 118106", "NBU", "1,5-Diazabicyclo[4.3.0]nonene-5", "D 1313", "WS-A 201", "2H,3H,4H,6H,7H,8H-Pyrrolo[1,2-a]pyrimidine", "KPH-MN 2001"], "SMILES": "C1=2N(CCC1)CCCN2", "physical_data": {"Molecular Weight": "124.18", "Molecular Formula": "C7H12N2", "Boiling Point": "97-99 \u00b0C @ Press: 11 Torr"}}