{"cas_no": "3001-15-8", "cn_name": "4,4-\u4e8c\u7898\u8054\u82ef", "en_name": ["4,4\u2032-Diiodo-1,1\u2032-biphenyl", "1,1\u2032-Biphenyl, 4,4\u2032-diiodo-", "Biphenyl, 4,4\u2032-diiodo-", "4,4\u2032-Diiodo-1,1\u2032-biphenyl", "4,4\u2032-Diiodobiphenyl", "4,4\u2032-Diiododiphenyl", "p,p\u2032-Diiodobiphenyl", "1-Iodo-4-(4-iodophenyl)benzene"], "SMILES": "IC1=CC=C(C=C1)C2=CC=C(I)C=C2", "physical_data": {"Molecular Weight": "406.00", "Molecular Formula": "C12H8I2", "Melting Point": "202 \u00b0C"}}