{"cas_no": "3002-24-2", "cn_name": "2,4-\u5df1\u4e8c\u916e", "en_name": ["2,4-Hexanedione", "2,4-Hexanedione", "Propionylacetone", "NSC 88937"], "SMILES": "C(CC(C)=O)(CC)=O", "physical_data": {"Molecular Weight": "114.14", "Molecular Formula": "C6H10O2", "Boiling Point": "160 \u00b0C", "Melting Point": "197-198 \u00b0C", "Density": "0.9633 g/cm\u00b3 @ Temp: 15.6 \u00b0C"}}