{"cas_no": "3002-81-1", "cn_name": "5,6-\u4e8c\u7532\u57fa-1,10-\u83f2\u54af\u5549", "en_name": ["5,6-Dimethyl-1,10-phenanthroline", "1,10-Phenanthroline, 5,6-dimethyl-", "5,6-Dimethyl-1,10-phenanthroline", "5,6-Dimethyl-o-phenanthroline"], "SMILES": "CC1=C2C(=C3C(=C1C)C=CC=N3)N=CC=C2", "physical_data": {"Molecular Weight": "208.26", "Molecular Formula": "C14H12N2", "Melting Point": "265-266 \u00b0C"}}