{"cas_no": "3002-78-6", "cn_name": "5-\u7532\u57fa-1,10-\u83f2\u54af\u5549", "en_name": ["5-Methyl-1,10-phenanthroline", "1,10-Phenanthroline, 5-methyl-", "5-Methyl-1,10-phenanthroline", "5-Methylphenanthroline", "5-Methyl-o-phenanthroline", "NSC 4272"], "SMILES": "CC1=C2C(=C3C(=C1)C=CC=N3)N=CC=C2", "physical_data": {"Molecular Weight": "194.23", "Molecular Formula": "C13H10N2", "Melting Point": "113 \u00b0C"}}