{"cas_no": "3002-23-1", "cn_name": "6-\u7532\u57fa-2,4-\u5e9a\u4e8c\u916e", "en_name": ["6-Methyl-2,4-heptanedione", "2,4-Heptanedione, 6-methyl-", "6-Methyl-2,4-heptanedione", "Isovalerylacetone", "2-Methyl-4,6-heptanedione", "NSC 42238", "NSC 42240", "NSC 46469", "NSC 94"], "SMILES": "C(C(CC(C)=O)=O)C(C)C", "physical_data": {"Molecular Weight": "142.20", "Molecular Formula": "C8H14O2", "Boiling Point": "97-100 \u00b0C @ Press: 50 Torr", "Density": "0.9203 g/cm\u00b3 @ Temp: 20 \u00b0C"}}