{"cas_no": "3003-84-7", "cn_name": "2-\u6c2f\u7532\u57fa\u56db\u6c22\u544b\u5583", "en_name": ["2-(Chloromethyl)tetrahydrofuran", "Furan, 2-(chloromethyl)tetrahydro-", "2-(Chloromethyl)tetrahydrofuran", "Tetrahydrofurfuryl chloride", "2-(Chloromethyl)oxolane", "NSC 2874"], "SMILES": "C(Cl)C1CCCO1", "physical_data": {"Molecular Weight": "120.58", "Molecular Formula": "C5H9ClO", "Boiling Point": "150-151 \u00b0C", "Density": "1.110 g/cm\u00b3 @ Temp: 25 \u00b0C"}}