{"cas_no": "30030-25-2", "cn_name": "\u6c2f\u7532\u57fa\u4e59\u70ef\u57fa\u82ef", "en_name": ["ar-Vinylbenzyl chloride", "Benzene, (chloromethyl)ethenyl-", "Toluene, \u03b1-chlorovinyl-", "Styrene, ar-(chloromethyl)-", "(Chloromethyl)ethenylbenzene", "(Chloromethyl)styrene", "ar-Vinylbenzyl chloride", "ar-(Chloromethyl)styrene", "CMS-AM", "CMS-P"], "SMILES": "", "physical_data": {"Molecular Weight": "", "Molecular Formula": "C9H9Cl", "Boiling Point": "114-115 \u00b0C @ Press: 13 Torr"}}