{"cas_no": "30044-61-2", "cn_name": "BOC-S-\u53d4\u4e01\u5def\u57fa-L-\u534a\u80f1\u6c28\u9178", "en_name": ["N-[(1,1-Dimethylethoxy)carbonyl]-3-[(1,1-dimethylethyl)dithio]-L-alanine", "L-Alanine, N-[(1,1-dimethylethoxy)carbonyl]-3-[(1,1-dimethylethyl)dithio]-", "Alanine, 3-(tert-butyldithio)-N-carboxy-, N-tert-butyl ester, L-", "N-[(1,1-Dimethylethoxy)carbonyl]-3-[(1,1-dimethylethyl)dithio]-L-alanine"], "SMILES": "C(NC(OC(C)(C)C)=O)(CSSC(C)(C)C)C(O)=O", "physical_data": {"Molecular Weight": "309.45", "Molecular Formula": "C12H23NO4S2", "Melting Point": "110-112 \u00b0C"}}