{"cas_no": "3004-42-0", "cn_name": "5-\u82ef\u57fa-1,3,4-\u6076\u4e8c\u5511-2-\u786b\u9187", "en_name": ["5-Phenyl-1,3,4-oxadiazole-2-thiol", "1,3,4-Oxadiazole-2(3H)-thione, 5-phenyl-", "1,3,4-Oxadiazole-2-thiol, 5-phenyl-", "\u03942-1,3,4-Oxadiazoline-5-thione, 2-phenyl-", "5-Phenyl-1,3,4-oxadiazole-2(3H)-thione", "2-Mercapto-5-phenyl-1,3,4-oxadiazole", "5-Phenyl-2-mercapto-1,3,4-oxadiazole", "2-Phenyl-5-mercaptooxadiazole", "5-Mercapto-2-phenyl-1,3,4-oxadiazole", "5-Phenyl-1,3,4-oxadiazole-2-thione", "2-Phenyl-1,3,4-oxadiazoline-5-thione", "5-Phenyl-2-thioxo-1,3,4-oxadiazoline", "2-Phenyl-1,3,4-oxadiazole-5-thione", "5-Phenyl-1,3,4-oxadiazole-2-thiol", "5-Phenyl-1,3,4-oxadiazole-5-thiol", "5-Phenyl-1,3,4-oxadiaole-2-thiol", "2-Phenyl-5-mercapto[1,3,4]oxadiazole"], "SMILES": "S=C1OC(=NN1)C2=CC=CC=C2", "physical_data": {"Molecular Weight": "178.21", "Molecular Formula": "C8H6N2OS", "Melting Point": "219-220 \u00b0C"}}