{"cas_no": "30043-49-3", "cn_name": "\u8d5b\u5511\u9686,\u78fa\u567b\u9686", "en_name": ["Ethidimuron", "Urea, N-[5-(ethylsulfonyl)-1,3,4-thiadiazol-2-yl]-N,N\u2032-dimethyl-", "Urea, 1-[5-(ethylsulfonyl)-1,3,4-thiadiazol-2-yl]-1,3-dimethyl-", "N-[5-(Ethylsulfonyl)-1,3,4-thiadiazol-2-yl]-N,N\u2032-dimethylurea", "1-(5-Ethylsulfonyl-1,3,4-thiadiazol-2-yl)-1,3-dimethylurea", "MET 1486", "Ethidimuron", "Ustilan", "BAY-MET 1486", "Sulfodiazol", "Sulfodiazole"], "SMILES": "N(C(NC)=O)(C)C=1SC(S(CC)(=O)=O)=NN1", "physical_data": {"Molecular Weight": "264.33", "Molecular Formula": "C7H12N4O3S2", "Melting Point": "156 \u00b0C"}}