{"cas_no": "3004-93-1", "cn_name": "2-\u7532\u57fa\u8f9b\u9178", "en_name": ["2-Methyloctanoic acid", "Octanoic acid, 2-methyl-", "2-Methyloctanoic acid", "\u03b1-Methylcaprylic acid", "(\u00b1)-2-Methyloctanoic acid", "NSC 33927"], "SMILES": "C(CCCCCC)(C(O)=O)C", "physical_data": {"Molecular Weight": "158.24", "Molecular Formula": "C9H18O2", "Boiling Point": "115 \u00b0C @ Press: 3 Torr"}}