{"cas_no": "3004-51-1", "cn_name": "\u70ef\u4e19\u57fa\u4e09\u7532\u57fa\u6eb4\u5316\u94f5", "en_name": ["2-Propen-1-aminium, N,N,N-trimethyl-, bromide (1:1)", "2-Propen-1-aminium, N,N,N-trimethyl-, bromide (1:1)", "Ammonium, allyltrimethyl-, bromide", "Allyltrimethylammonium bromide", "2-Propen-1-aminium, N,N,N-trimethyl-, bromide", "AMAB", "N-Allyltrimethylammonium bromide"], "SMILES": "C([N+](C)(C)C)C=C.[Br-]", "physical_data": {"Molecular Weight": "", "Molecular Formula": "C6H14N.Br", "Melting Point": "168-169 \u00b0C"}}