{"cas_no": "30045-16-0", "cn_name": "\u53bb\u6c22\u5ef6\u80e1\u7d22\u7d20", "en_name": ["Dehydrocorydaline", "Dibenzo[a,g]quinolizinium, 5,6-dihydro-2,3,9,10-tetramethoxy-13-methyl-", "Berbinium, 7,8,13,13a-tetradehydro-2,3,9,10-tetramethoxy-13-methyl-", "Corydaline, dehydro-", "5,6-Dihydro-2,3,9,10-tetramethoxy-13-methyldibenzo[a,g]quinolizinium", "Dehydrocorydaline", "13-Methylpalmatine", "2,3,9,10-Tetramethoxy-13-methyl-5,6-dihydroisoquinolino[2,1-b]isoquinolin-7-ium"], "SMILES": "CC1=C2C=3C(=CC(OC)=C(OC)C3)CC[N+]2=CC=4C1=CC=C(OC)C4OC", "physical_data": {"Molecular Weight": "", "Molecular Formula": "C22H24NO4", "Melting Point": "170-173 \u00b0C"}}