{"cas_no": "3005-27-4", "cn_name": "2,3-\u4e8c\u6eb4-N-\u7532\u57fa\u9a6c\u6765\u9170\u4e9a\u80fa", "en_name": ["Dibromo-N-methylmaleimide", "1H-Pyrrole-2,5-dione, 3,4-dibromo-1-methyl-", "Maleimide, 2,3-dibromo-N-methyl-", "3,4-Dibromo-1-methyl-1H-pyrrole-2,5-dione", "N-Methyl-2,3-dibromomaleimide", "3,4-Dibromo-N-methylpyrrole-2,5-dione", "Dibromo-N-methylmaleimide", "N-Methyldibromomaleimide", "2,3-Dibromo-N-methylmaleimide", "3,4-Dibromo-N-methylmaleimide", "1-Methyl-3,4-dibromomaleimide", "NSC 120444", "3,4-Dibromo-1-methyl-2,5-dihydropyrrole-2,5-dione", "3,4-Dibromo-1-methylpyrrole-2,5-dione"], "SMILES": "BrC1=C(Br)C(=O)N(C)C1=O", "physical_data": {"Molecular Weight": "268.89", "Molecular Formula": "C5H3Br2NO2", "Melting Point": "120 \u00b0C"}}