{"cas_no": "3006-60-8", "cn_name": "BETA-D-2-\u4e59\u9170\u6c28\u57fa-2-\u8131\u6c27\u534a\u4e73\u7cd6 1,3,4,6-\u56db\u4e59\u9178\u916f", "en_name": ["\u03b2-D-Galactopyranose, 2-(acetylamino)-2-deoxy-, 1,3,4,6-tetraacetate", "\u03b2-D-Galactopyranose, 2-(acetylamino)-2-deoxy-, 1,3,4,6-tetraacetate", "Galactopyranose, 2-acetamido-2-deoxy-, 1,3,4,6-tetraacetate, \u03b2-D-", "2-Acetamido-1,3,4,6-tetrakis-(O-acetyl)-2-deoxy-D-galactospyranose"], "SMILES": "O(C(C)=O)C1C(OC(C)=O)C(COC(C)=O)OC(OC(C)=O)C1NC(C)=O", "physical_data": {"Molecular Weight": "389.35", "Molecular Formula": "C16H23NO10", "Melting Point": "235 \u00b0C"}}