{"cas_no": "3006-86-8", "cn_name": "1,1-\u4e8c\u53d4\u4e01\u57fa\u8fc7\u6c27\u5316\u73af\u5df1\u70f7", "en_name": ["1,1-Bis(tert-butylperoxy)cyclohexane", "Peroxide, 1,1\u2032-cyclohexylidenebis[2-(1,1-dimethylethyl)", "Peroxide, cyclohexylidenebis[tert-butyl", "Peroxide, cyclohexylidenebis[(1,1-dimethylethyl)", "1,1\u2032-Cyclohexylidenebis[2-(1,1-dimethylethyl) peroxide]", "1,1-Bis(tert-butylperoxy)cyclohexane", "Lupersol 331-80B", "1,1-di(tert-Butylperoxy)cyclohexane", "Chaloxyd P 1250AL", "Trigonox 22B50", "Lupersol 331", "Lupersol 321", "Trigonox 22B75", "1,1-Bis(tert-butyldioxy)cyclohexane", "USP 400", "Luperco 331XL", "Trigonox 22", "1,1-Di(t-butylperoxy)cyclohexane", "Perhexa C", "Luperox 331M50", "CH 50-AL", "USP 400P", "Trigonox 22C50", "Luperox 331", "L 331", "DP 275B", "Perhexa C 40", "Trigonox 22E70", "Luperox 331M80", "Perhexa CS", "Perhexa C 75", "Trigonox 22E50", "Peroxan PK 122W", "Tx 22E50", "Luperox 331M70", "CH 80", "CH 80 (vulcanizer)", "1,1-Bis(1,1-dimethylethylperoxy)cyclohexane", "Perhexa C 80", "1,1-Bis(t-butylperoxy)cyclohexane", "Luperox 331XL", "Luperox 331P80", "PHC 40", "Trigonox 22-70E", "Perhexa C 79S", "Trigonox 22-40D", "Perhexa C 40MB", "CH 80MO", "D 118378"], "SMILES": "O(OC(C)(C)C)C1(OOC(C)(C)C)CCCCC1", "physical_data": {"Molecular Weight": "260.37", "Molecular Formula": "C14H28O4", "Boiling Point": "52-54 \u00b0C @ Press: 0.15 Torr", "Density": "0.941 g/cm\u00b3 @ Temp: 20 \u00b0C"}}