{"cas_no": "3006-93-7", "cn_name": "N,N'-\u95f4\u82ef\u6491\u53cc\u9a6c\u6765\u9170\u4e9a\u80fa", "en_name": ["m-Phenylenebismaleimide", "1H-Pyrrole-2,5-dione, 1,1\u2032-(1,3-phenylene)bis-", "Maleimide, N,N\u2032-m-phenylenedi-", "1,1\u2032-(1,3-Phenylene)bis[1H-pyrrole-2,5-dione]", "N,N\u2032-m-Phenylenebis[maleimide]", "1,3-Phenylenebismaleimide", "m-Phenylenebismaleimide", "1,3-Bismaleimidobenzene", "HVA 2", "N,N\u2032-1,3-Phenylenedimaleimide", "m-Phenylenedimaleimide", "1,3-Dimaleimidobenzene", "m-Dimaleimidobenzene", "Vulkanox PM", "Burnock PM", "Vulnoc PM", "Sumifine BM", "Sanfel BM-G", "BMI-MP", "Sumilizer BM", "Actor PBM-R", "N,N\u2032-m-Phenylenedimaleimide", "NSC 19639", "PMI", "Vulnoc PM-P", "SR 525", "Vanax MBM", "BMI 3000", "N,N\u2032-1,3-Phenylenebismaleimide", "SR 525A", "Balnoc PM", "HAV 2", "TAC 50", "BMI 3000H", "Vulcofac 13PDM", "Deltagran HVA 2-70GE", "Vulcanizer PM", "PM", "HVA 22", "Antioxidant PM", "N,N-m-Phenylenedimaleimide", "N,N-m-Phenylene dimaleimide", "1-[3-(2,5-Dioxopyrrol-1-yl)phenyl]pyrrole-2,5-dione", "P 0976", "1,1\u2032-(1,3-phenylene)bis(1H-pyrrole-2,5-dione)", "Accelerator PBM", "HA 8", "Homide 125", "PDM", "Maleid F"], "SMILES": "O=C1N(C(=O)C=C1)C2=CC(=CC=C2)N3C(=O)C=CC3=O", "physical_data": {"Molecular Weight": "268.22", "Molecular Formula": "C14H8N2O4", "Melting Point": "198-199 \u00b0C"}}