{"cas_no": "3006-96-0", "cn_name": "4-\u7f9f\u7532\u57fa\u82ef\u7532\u9178", "en_name": ["4-(Hydroxymethyl)benzoic acid", "Benzoic acid, 4-(hydroxymethyl)-", "p-Toluic acid, \u03b1-hydroxy-", "4-(Hydroxymethyl)benzoic acid", "p-(Hydroxymethyl)benzoic acid", "\u03b1-Hydroxy-p-toluic acid", "p-Carboxybenzyl alcohol", "4-Carboxybenzyl alcohol"], "SMILES": "C(O)(=O)C1=CC=C(CO)C=C1", "physical_data": {"Molecular Weight": "152.15", "Molecular Formula": "C8H8O3", "Boiling Point": "140-150 \u00b0C @ Press: 9 Torr", "Melting Point": "181-182 \u00b0C"}}