{"cas_no": "3007-91-8", "cn_name": "2-\u8418\u7532\u9178\u4e59\u916f", "en_name": ["2-Naphthalenecarboxylic acid, ethyl ester", "2-Naphthalenecarboxylic acid, ethyl ester", "2-Naphthoic acid, ethyl ester", "Ethyl 2-naphthoate", "Ethyl \u03b2-naphthoate", "Ethyl 2-naphthalenecarboxylate", "NSC 171216"], "SMILES": "C(OCC)(=O)C1=CC2=C(C=C1)C=CC=C2", "physical_data": {"Molecular Weight": "200.23", "Molecular Formula": "C13H12O2", "Boiling Point": "308.5 \u00b0C", "Melting Point": "32 \u00b0C"}}