{"cas_no": "30071-93-3", "cn_name": "3,5-\u53cc\u4e09\u6c1f\u7532\u57fa\u82ef\u4e59\u916e", "en_name": ["Bis (trifluoromethyl)acetophenone", "Ethanone, 1-[3,5-bis(trifluoromethyl)phenyl]-", "Acetophenone, 3\u2032,5\u2032-bis(trifluoromethyl)-", "1-[3,5-Bis(trifluoromethyl)phenyl]ethanone", "1-[3,5-Di(trifluoromethyl)phenyl]ethanone", "3\u2032,5\u2032-Bis(trifluoromethyl)acetophenone", "3,5-Bis(trifluoromethyl)acetophenone", "3,5-Di(trifluoromethyl)acetophenone", "3,5-Bis(trifluoromethyl)phenyl methyl ketone", "1-[3,5-Bis(trifluoromethyl)phenyl]ethan-1-one", "Bis (trifluoromethyl)acetophenone", "1-[3,5-Di(trifluoromethyl)phenyl]ethan-1-one"], "SMILES": "C(F)(F)(F)C1=CC(C(F)(F)F)=CC(C(C)=O)=C1", "physical_data": {"Molecular Weight": "256.14", "Molecular Formula": "C10H6F6O", "Boiling Point": "187-189 \u00b0C"}}