{"cas_no": "3007-74-7", "cn_name": "\u5341\u516b\u70f7\u57fa\u82ef\u80fa", "en_name": ["N-Dodecylbenzenamine", "Benzenamine, N-dodecyl-", "Dodecylamine, N-phenyl-", "N-Dodecylbenzenamine", "N-Dodecylaniline", "N-Dodecylaminobenzene", "4-(n-Dodecyl)phenylamine"], "SMILES": "N(CCCCCCCCCCCC)C1=CC=CC=C1", "physical_data": {"Molecular Weight": "261.45", "Molecular Formula": "C18H31N", "Boiling Point": "160-161 \u00b0C @ Press: 2 Torr", "Melting Point": "25.5-26 \u00b0C", "Density": "0.8470 g/cm\u00b3"}}