{"cas_no": "3007-97-4", "cn_name": "1-\u8418\u7532\u9178\u4e59\u916f", "en_name": ["Ethyl 1-naphthalenecarboxylate", "1-Naphthalenecarboxylic acid, ethyl ester", "1-Naphthoic acid, ethyl ester", "Ethyl 1-naphthalenecarboxylate", "Ethyl 1-naphthoate", "Ethyl \u03b1-naphthoate", "NSC 409986"], "SMILES": "C(OCC)(=O)C=1C2=C(C=CC1)C=CC=C2", "physical_data": {"Molecular Weight": "200.23", "Molecular Formula": "C13H12O2", "Boiling Point": "310 \u00b0C"}}