{"cas_no": "30078-48-9", "cn_name": "\u7532\u6c27\u82c4\u5576\u6742\u8d28I", "en_name": ["3,4,5-Trimethoxy-\u03b1-[(phenylamino)methylene]benzenepropanenitrile", "Benzenepropanenitrile, 3,4,5-trimethoxy-\u03b1-[(phenylamino)methylene]-", "Hydrocinnamonitrile, \u03b1-(anilinomethylene)-3,4,5-trimethoxy-", "3,4,5-Trimethoxy-\u03b1-[(phenylamino)methylene]benzenepropanenitrile", "TAA", "3-Anilino-2-(3,4,5,-trimethoxybenzyl)acrylonitrile", "3-(Phenylamino)-2-(3,4,5-trimethoxybenzyl)prop-2-enenitrile"], "SMILES": "C(C(=CNC1=CC=CC=C1)C#N)C2=CC(OC)=C(OC)C(OC)=C2", "physical_data": {"Molecular Weight": "324.37", "Molecular Formula": "C19H20N2O3", "Melting Point": "138-142 \u00b0C"}}