{"cas_no": "3007-31-6", "cn_name": "\u53cc\u5341\u4e8c\u70f7\u57fa\u80fa", "en_name": ["Didodecylamine", "1-Dodecanamine, N-dodecyl-", "Didodecylamine", "N-Dodecyl-1-dodecanamine", "Alamine 204", "Dilaurylamine", "Di-n-dodecylamine", "Armeen 2-12", "N,N-Didodecylamine", "NSC 16573", "NSC 56451", "1-Dodecanamine, N-dodecyl-, ion(1-)"], "SMILES": "N(CCCCCCCCCCCC)CCCCCCCCCCCC", "physical_data": {"Molecular Weight": "353.67", "Molecular Formula": "C24H51N", "Boiling Point": "160-200 \u00b0C", "Melting Point": "58 \u00b0C"}}