{"cas_no": "30084-90-3", "cn_name": "2-\u6c1f\u8418\u70ef\u7532\u919b", "en_name": ["Fluorene-2-carboxaldehyde", "9H-Fluorene-2-carboxaldehyde", "Fluorene-2-carboxaldehyde", "2-Formylfluorene", "1H-Fluorene-2-carboxaldehyde", "Fluorene-2-carbaldehyde", "9H-Fluoren-2-yl-carboxaldehyde", "9H-Fluorene-2-carbaldehyde"], "SMILES": "C(=O)C=1C=C2C(C=3C(C2)=CC=CC3)=CC1", "physical_data": {"Molecular Weight": "194.23", "Molecular Formula": "C14H10O", "Boiling Point": "363.8 \u00b0C", "Melting Point": "85.5-86 \u00b0C"}}