{"cas_no": "300816-22-2", "cn_name": "4-\u6c2f-6,7-\u4e8c\u6c22-5H-\u73af\u620a\u5e76[4,5]\u567b\u5429\u5e76[2,3-D]\u5627\u5576", "en_name": ["4-Chloro-6,7-dihydro-5H-cyclopenta[4,5]thieno[2,3-d]pyrimidine", "5H-Cyclopenta[4,5]thieno[2,3-d]pyrimidine, 4-chloro-6,7-dihydro-", "4-Chloro-6,7-dihydro-5H-cyclopenta[4,5]thieno[2,3-d]pyrimidine"], "SMILES": "ClC1=C2C3=C(SC2=NC=N1)CCC3", "physical_data": {"Molecular Weight": "210.68", "Molecular Formula": "C9H7ClN2S", "Melting Point": "130 \u00b0C"}}