{"cas_no": "30084-91-4", "cn_name": "\u831a\u6ee1-5-\u7532\u919b", "en_name": ["2,3-Dihydro-1H-indene-5-carboxaldehyde", "1H-Indene-5-carboxaldehyde, 2,3-dihydro-", "5-Indancarboxaldehyde", "2,3-Dihydro-1H-indene-5-carboxaldehyde", "5-Indanecarboxaldehyde", "5-Formylindan", "3,4-Trimethylenebenzaldehyde", "Indan-5-carbaldehyde", "2,3-Dihydro-1H-indene-5-carbaldehyde"], "SMILES": "C(=O)C=1C=C2C(=CC1)CCC2", "physical_data": {"Molecular Weight": "146.19", "Molecular Formula": "C10H10O", "Boiling Point": "146.0-147.5 \u00b0C @ Press: 29 Torr", "Melting Point": "255-257 \u00b0C"}}