{"cas_no": "3009-97-0", "cn_name": "\u82ef\u80fa\u57fa\u4e59\u8148", "en_name": ["2-(Phenylamino)acetonitrile", "Acetonitrile, 2-(phenylamino)-", "Acetonitrile, anilino-", "Acetonitrile, (phenylamino)-", "Glycinonitrile, N-phenyl-", "2-(Phenylamino)acetonitrile", "Phenylglycine nitrile", "Anilinoacetonitrile", "1-Anilinoacetonitrile", "N-(Cyanomethyl)aniline", "N-Phenylglycinonitrile", "(Phenylamino)acetonitrile", "N-(Phenylamino)acetonitrile", "NSC 7611", "2-Anilinoacetonitrile"], "SMILES": "N(CC#N)C1=CC=CC=C1", "physical_data": {"Molecular Weight": "132.16", "Molecular Formula": "C8H8N2", "Boiling Point": "149-150 \u00b0C @ Press: 4 Torr", "Melting Point": "47 \u00b0C"}}