{"cas_no": "30097-06-4", "cn_name": "\u567b\u4e8c\u9178", "en_name": ["2,4-Thiazolidinedicarboxylic acid", "2,4-Thiazolidinedicarboxylic acid", "Tidiacic", "Tidiacic acid", "TDCA", "1,3-Thiazolidine-2,4-dicarboxylic acid"], "SMILES": "C(O)(=O)C1NC(C(O)=O)SC1", "physical_data": {"Molecular Weight": "177.18", "Molecular Formula": "C5H7NO4S", "Melting Point": "184-185 \u00b0C"}}