{"cas_no": "30090-17-6", "cn_name": "4-\u5f02\u4e01\u57fa\u82ef\u80fa", "en_name": ["4-(2-Methylpropyl)benzenamine", "Benzenamine, 4-(2-methylpropyl)-", "Aniline, p-isobutyl-", "4-(2-Methylpropyl)benzenamine", "p-Isobutylaniline", "4-Isobutylaniline"], "SMILES": "C(C(C)C)C1=CC=C(N)C=C1", "physical_data": {"Molecular Weight": "149.23", "Molecular Formula": "C10H15N", "Boiling Point": "238 \u00b0C"}}