{"cas_no": "301-02-0", "cn_name": "\u6cb9\u9178\u9170\u80fa", "en_name": ["Oleamide", "9-Octadecenamide, (9Z)-", "Oleamide", "9-Octadecenamide, (Z)-", "(9Z)-9-Octadecenamide", "Oleic acid amide", "Oleylamide", "Adogen 73", "Petrac Slip-eze", "Armoslip CP", "Crodamide O", "Crodamide OR", "Amide O", "Diamid O 200", "Kemamide U", "Amide O-N", "Denon SL 1", "Slip-eze", "Unislip 4407", "Oleic amide", "Alflow 10E", "9-cis-Oleamide", "Armoslip CP-P", "Unislip 1757", "cis-9-Octadecenamide", "PP 5926", "Crodamide VR", "Armoslip CP Flake", "Diamid O", "Kemamide O", "Alflow E 10", "(Z)-9-Octadecenamide", "O 200", "Atmer SA 1759FD", "Kemamide VO", "Neutron P", "Crodamide VRX", "Neutron (amide)", "Unislip 1759", "Unislip 1758", "Atmer SA 1758FD", "Finawax O", "Denon SL 12", "Fatty Amide O-N", "Diamid M 309", "Finawax OK", "Struktol TR 121", "TR 121", "PE 1", "Neutron D", "CP", "Loxamid VPN 205", "Daiwax OA", "TP 16", "Sipoamide OR", "Armosil E", "MO 2209", "Sumikathene A 10", "WK 1610", "Chamide P", "DH-K 220", "cis-9-Octadecenoamide", "OA 80", "YT 1", "YT 1 (amide)", "HS 703", "Crodamide ORV-MB", "ORV-MB", "AC 5 (amide)", "AC 5", "Lutamide 9820", "Deurex A 27P"], "SMILES": "C(CC=CCCCCCCCC)CCCCCC(N)=O", "physical_data": {"Molecular Weight": "281.48", "Molecular Formula": "C18H35NO", "Melting Point": "76 \u00b0C", "Density": "0.94 g/cm\u00b3"}}