{"cas_no": "301-04-2", "cn_name": "\u918b\u9178\u94c5", "en_name": ["Lead diacetate", "Acetic acid, lead(2+) salt (2:1)", "Acetic acid, lead(2+) salt", "Lead diacetate", "Salt of saturn", "Sugar of lead", "Lead(II) acetate", "Lead acetate (Pb(O2C2H3)2)", "Lead(2+) acetate", "Lead acetate [Pb(OAc)2]", "Lead acetate", "Plumbous acetate", "Lead dibasic acetate", "Dibasic lead acetate", "Acetic acid lead salt (2:1)", "Lead acetate (Pb(Ac)2)", "Lead bis(acetate)", "Normal lead acetate", "Neutral lead acetate"], "SMILES": "C(C)(O)=O.[Pb]", "physical_data": {"Molecular Weight": "", "Molecular Formula": "C2H4O2.<sup>1</sup>/2Pb", "Boiling Point": "1740 \u00b0C", "Melting Point": "280 \u00b0C", "Density": "3.25 g/cm\u00b3"}}