{"cas_no": "301-13-3", "cn_name": "\u4e9a\u78f7\u9178\u4e09(2-\u4e59\u57fa\u5df1\u57fa)\u916f", "en_name": ["Tris(2-ethylhexyl) phosphite", "Phosphorous acid, tris(2-ethylhexyl) ester", "1-Hexanol, 2-ethyl-, phosphite (3:1)", "1-Hexanol, 2-ethyl-, phosphite", "Tris(2-ethylhexyl) phosphite", "JP 308", "NSC 3233", "JP 308E", "TIOP"], "SMILES": "P(OCC(CCCC)CC)(OCC(CCCC)CC)OCC(CCCC)CC", "physical_data": {"Molecular Weight": "418.63", "Molecular Formula": "C24H51O3P", "Boiling Point": "157-164 \u00b0C @ Press: 0.3 Torr", "Density": "0.902 g/cm\u00b3 @ Temp: 20 \u00b0C"}}