{"cas_no": "301-00-8", "cn_name": "\u4e9a\u9ebb\u9178\u7532\u916f", "en_name": ["Methyl linolenate", "9,12,15-Octadecatrienoic acid, methyl ester, (9Z,12Z,15Z)-", "Linolenic acid, methyl ester", "9,12,15-Octadecatrienoic acid, methyl ester, (Z,Z,Z)-", "Methyl linolenate", "Methyl all-cis-9,12,15-octadecatrienoate", "\u03b1-Linolenic acid methyl ester", "Methyl (9Z,12Z,15Z)-octadecatrienoate", "Methyl \u03b1-linolenate", "Methyl cis,cis,cis-octadeca-9,12,15-trienoate", "9Z,12Z,15Z-Octadecatrienoic acid methyl ester", "(Z,Z,Z)-9,12,15-Octadecatrienoic acid methyl ester", "Methyl (9Z,12Z,15Z)-9,12,15-octadecatrienoate", "Methyl (Z,Z,Z)-9,12,15-octadecatrienoate"], "SMILES": "C(CCC=CCC=CCC=CCC)CCCCC(OC)=O", "physical_data": {"Molecular Weight": "292.46", "Molecular Formula": "C19H32O2", "Boiling Point": "182 \u00b0C", "Melting Point": "-57 \u00b0C", "Density": "0.8982 g/cm\u00b3 @ Temp: 20 \u00b0C"}}