{"cas_no": "301-19-9", "cn_name": "\u523a\u69d0\u7d20", "en_name": ["Robinin", "4H-1-Benzopyran-4-one, 3-[[6-O-(6-deoxy-\u03b1-L-mannopyranosyl)-\u03b2-D-galactopyranosyl]oxy]-7-[(6-deoxy-\u03b1-L-mannopyranosyl)oxy]-5-hydroxy-2-(4-hydroxyphenyl)-", "Robinin", "3-[[6-O-(6-Deoxy-\u03b1-L-mannopyranosyl)-\u03b2-D-galactopyranosyl]oxy]-7-[(6-deoxy-\u03b1-L-mannopyranosyl)oxy]-5-hydroxy-2-(4-hydroxyphenyl)-4H-1-benzopyran-4-one", "Kaempferol 3-O-\u03b1-L-rhamnopyranosyl-(1\u21926)-\u03b2-D-galactopyranosyl 7-O-\u03b1-L-rhamnopyranoside", "Kaempferol 3-robinoside-7-rhamnoside"], "SMILES": "O(C1=C(OC=2C(C1=O)=C(O)C=C(OC3C(O)C(O)C(O)C(C)O3)C2)C4=CC=C(O)C=C4)C5OC(COC6C(O)C(O)C(O)C(C)O6)C(O)C(O)C5O", "physical_data": {"Molecular Weight": "740.66", "Molecular Formula": "C33H40O19", "Melting Point": "195-200 \u00b0C"}}