{"cas_no": "30100-16-4", "cn_name": "BOC-8-\u6c28\u57fa\u8f9b\u9178", "en_name": ["8-[[(1,1-Dimethylethoxy)carbonyl]amino]octanoic acid", "Octanoic acid, 8-[[(1,1-dimethylethoxy)carbonyl]amino]-", "Octanoic acid, 8-(carboxyamino)-, N-tert-butyl ester", "8-[[(1,1-Dimethylethoxy)carbonyl]amino]octanoic acid", "N-tert-Butoxycarbonyl-8-aminooctanoic acid", "8-(tert-Butoxycarbonylamino)octanoic acid", "Boc-8-aminooctanoic acid"], "SMILES": "O(C(NCCCCCCCC(O)=O)=O)C(C)(C)C", "physical_data": {"Molecular Weight": "259.34", "Molecular Formula": "C13H25NO4", "Melting Point": "56-57 \u00b0C"}}