{"cas_no": "3010-82-0", "cn_name": "\u5bf9\u82ef\u4e8c\u7532\u9170\u80fa", "en_name": ["Terephthalamide", "1,4-Benzenedicarboxamide", "Terephthalamide", "Terephthalic acid diamide", "p-Phthalamide", "Terephthalamimidic acid", "Terephthaldiamide", "p-Carbamoylbenzamide", "Terephthalic diamide", "NSC 56420"], "SMILES": "C(N)(=O)C1=CC=C(C(N)=O)C=C1", "physical_data": {"Molecular Weight": "164.16", "Molecular Formula": "C8H8N2O2", "Melting Point": "200 \u00b0C (decomp)"}}