{"cas_no": "3010-80-8", "cn_name": "4,4',4'-\u4e09\u6c2f\u4e09\u82ef\u7532\u57fa\u4e59\u9187", "en_name": ["Tris(4-chlorophenyl)methanol", "Benzenemethanol, 4-chloro-\u03b1,\u03b1-bis(4-chlorophenyl)-", "Methanol, tris(p-chlorophenyl)-", "4-Chloro-\u03b1,\u03b1-bis(4-chlorophenyl)benzenemethanol", "4,4\u2032,4\u2032\u2032-Trichlorotriphenylmethanol", "Tris(p-chlorophenyl)methanol", "Tris(4-chlorophenyl)methanol", "Tris(4-chlorophenyl)carbinol", "Tri-p-chlorophenyl carbinol", "4,4\u2032,4\u2032\u2032-Trichlorotrityl alcohol"], "SMILES": "C(O)(C1=CC=C(Cl)C=C1)(C2=CC=C(Cl)C=C2)C3=CC=C(Cl)C=C3", "physical_data": {"Molecular Weight": "363.66", "Molecular Formula": "C19H13Cl3O", "Melting Point": "98 \u00b0C"}}