{"cas_no": "3010-02-4", "cn_name": "N,N-\u4e8c\u4e59\u57fa\u6c30\u4e59\u80fa", "en_name": ["2-(Diethylamino)acetonitrile", "Acetonitrile, 2-(diethylamino)-", "Acetonitrile, (diethylamino)-", "Glycinonitrile, N,N-diethyl-", "2-(Diethylamino)acetonitrile", "N,N-Diethylaminoacetonitrile", "Diethylaminoacetonitrile", "NSC 15878"], "SMILES": "N(CC#N)(CC)CC", "physical_data": {"Molecular Weight": "112.17", "Molecular Formula": "C6H12N2", "Boiling Point": "170 \u00b0C"}}