{"cas_no": "3010-96-6", "cn_name": "2,2,4,4-\u56db\u7532\u57fa-1,3-\u73af\u4e01\u4e8c\u9187", "en_name": ["Tetramethyl-1,3-cyclobutanediol", "1,3-Cyclobutanediol, 2,2,4,4-tetramethyl-", "2,2,4,4-Tetramethyl-1,3-cyclobutanediol", "Tetramethyl-1,3-cyclobutanediol", "NSC 46473", "2,4-Dihydroxy-1,1,3,3-tetramethylcyclobutane", "1,3-Dihydroxy-2,2,4,4-tetramethylcyclobutane", "2,2,4,4-Tetramethyl-1,3-cyclobutandiol"], "SMILES": "OC1C(C)(C)C(O)C1(C)C", "physical_data": {"Molecular Weight": "144.21", "Molecular Formula": "C8H16O2", "Melting Point": "129-137 \u00b0C"}}