{"cas_no": "3010-03-5", "cn_name": "\u54cc\u5576\u57fa\u4e59\u8148", "en_name": ["1-Piperidineacetonitrile", "1-Piperidineacetonitrile", "Piperidinoacetonitrile", "N-(Cyanomethyl)piperidine", "NSC 26716", "NSC 47261", "NSC 62871", "2-(Piperidin-1-yl)acetonitrile", "2-Piperidinoacetonitrile"], "SMILES": "C(C#N)N1CCCCC1", "physical_data": {"Molecular Weight": "124.18", "Molecular Formula": "C7H12N2", "Boiling Point": "83 \u00b0C @ Press: 9 Torr", "Melting Point": "19 \u00b0C"}}