{"cas_no": "3010-81-9", "cn_name": "4,4',4'-\u4e09\u7532\u6c27\u57fa\u4e09\u82ef\u7532\u57fa\u4e59\u9187", "en_name": ["4-Methoxy-\u03b1,\u03b1-bis(4-methoxyphenyl)benzenemethanol", "Benzenemethanol, 4-methoxy-\u03b1,\u03b1-bis(4-methoxyphenyl)-", "Methanol, tris(p-methoxyphenyl)-", "4-Methoxy-\u03b1,\u03b1-bis(4-methoxyphenyl)benzenemethanol", "4,4\u2032,4\u2032\u2032-Trimethoxytriphenylmethanol", "Tris(p-methoxyphenyl)methanol", "Tris(4-methoxyphenyl)methanol", "4,4\u2032,4\u2032\u2032-Trimethoxytrityl alcohol", "1,1,1-Tris(4-methoxyphenyl)methanol"], "SMILES": "C(O)(C1=CC=C(OC)C=C1)(C2=CC=C(OC)C=C2)C3=CC=C(OC)C=C3", "physical_data": {"Molecular Weight": "350.41", "Molecular Formula": "C22H22O4", "Melting Point": "82 \u00b0C"}}