{"cas_no": "3011-34-5", "cn_name": "4-\u7f9f\u57fa-3-\u785d\u57fa\u82ef\u7532\u919b", "en_name": ["4-Hydroxy-3-nitrobenzaldehyde", "Benzaldehyde, 4-hydroxy-3-nitro-", "4-Hydroxy-3-nitrobenzaldehyde", "3-Nitro-4-hydroxybenzaldehyde", "4-Formyl-2-nitrophenol", "NSC 138267"], "SMILES": "N(=O)(=O)C1=CC(C=O)=CC=C1O", "physical_data": {"Molecular Weight": "167.12", "Molecular Formula": "C7H5NO4", "Melting Point": "140-142 \u00b0C"}}