{"cas_no": "3011-89-0", "cn_name": "\u963f\u514b\u6d1b\u80fa", "en_name": ["Aklomide", "Benzamide, 2-chloro-4-nitro-", "2-Chloro-4-nitrobenzamide", "Aklomide", "Aklomix", "4-Nitro-2-chlorobenzamide", "NSC 191832"], "SMILES": "N(=O)(=O)C1=CC(Cl)=C(C(N)=O)C=C1", "physical_data": {"Molecular Weight": "200.58", "Molecular Formula": "C7H5ClN2O3", "Melting Point": "172 \u00b0C"}}