{"cas_no": "30123-17-2", "cn_name": "\u567b\u5948\u666e\u6c40\u94a0\u76d0", "en_name": ["Tianeptine sodium", "Heptanoic acid, 7-[(3-chloro-6,11-dihydro-6-methyl-5,5-dioxidodibenzo[c,f][1,2]thiazepin-11-yl)amino]-, sodium salt (1:1)", "Heptanoic acid, 7-[(3-chloro-6,11-dihydro-6-methyldibenzo[c,f][1,2]thiazepin-11-yl)amino]-, S,S-dioxide, monosodium salt", "Heptanoic acid, 7-[(3-chloro-6,11-dihydro-6-methyl-5,5-dioxidodibenzo[c,f][1,2]thiazepin-11-yl)amino]-, monosodium salt", "Dibenzo[c,f][1,2]thiazepine, heptanoic acid deriv.", "Tianeptine sodium salt", "Stablon", "Sodium 7-[(3-chloro-6,11-dihydro-6-methyldibenzo[c,f][1,2]thiazepin-11-yl)amino]heptanoate S,S-dioxide", "Tianeptine sodium"], "SMILES": "N(CCCCCCC(O)=O)C1C=2C(S(=O)(=O)N(C)C=3C1=CC=CC3)=CC(Cl)=CC2.[Na]", "physical_data": {"Molecular Weight": "", "Molecular Formula": "C21H25ClN2O4S.Na", "Melting Point": "180 \u00b0C"}}