{"cas_no": "3012-80-4", "cn_name": "1-\u7532\u57fa-2-\u7532\u9170\u82ef\u5e76\u54aa\u5511", "en_name": ["1-Methyl-2-formylbenzimidazole", "1H-Benzimidazole-2-carboxaldehyde, 1-methyl-", "2-Benzimidazolecarboxaldehyde, 1-methyl-", "1-Methyl-1H-benzimidazole-2-carboxaldehyde", "1-Methyl-2-benzimidazolecarboxaldehyde", "1-Methyl-2-formylbenzimidazole", "2-Formyl-1-methylbenzimidazole", "1-Methyl-1H-benzimidazol-2-carboxaldehyde", "1-Methyl-1H-benzo[d]imidazole-2-carboxaldehyde", "N-Methylbenzimidazole-2-carboxaldehyde", "1-Methyl-2-formyl-1H-benzimidazole", "1-Methyl-1H-benzo[d]imidazole-2-carbaldehyde", "1-Methylbenzimidazole-2-carbaldehyde", "1-Methyl-1H-1,3-benzodiazole-2-carbaldehyde", "1-Methyl-1H-benzimidazole-2-carbaldehyde"], "SMILES": "CN1C=2C(N=C1C=O)=CC=CC2", "physical_data": {"Molecular Weight": "160.17", "Molecular Formula": "C9H8N2O", "Melting Point": "121 \u00b0C"}}