{"cas_no": "3012-37-1", "cn_name": "\u786b\u6c30\u9178\u82c4\u916f", "en_name": ["Tropeolin", "Thiocyanic acid, phenylmethyl ester", "Thiocyanic acid, benzyl ester", "Tropeolin", "Benzyl thiocyanate", "Solvat 14", "\u03b1-Thiocyanatotoluene", "NSC 130266", "NSC 1729", "(Thiocyanatomethyl)benzene"], "SMILES": "C(SC#N)C1=CC=CC=C1", "physical_data": {"Molecular Weight": "149.21", "Molecular Formula": "C8H7NS", "Boiling Point": "232 \u00b0C", "Melting Point": "43 \u00b0C"}}