{"cas_no": "30148-21-1", "cn_name": "1-\u7532\u57fa-1H-\u54aa\u5511-2-\u7532\u9178\u4e59\u916f", "en_name": ["1H-Imidazole-2-carboxylic acid, 1-methyl-, ethyl ester", "1H-Imidazole-2-carboxylic acid, 1-methyl-, ethyl ester", "Imidazole-2-carboxylic acid, 1-methyl-, ethyl ester", "Ethyl 1-methylimidazole-2-carboxylate", "RGW 811", "Ethyl 1-methyl-1H-imidazole-2-carboxylate", "1-Methyl-1H-imidazole-2-carboxylic acid ethyl ester"], "SMILES": "C(OCC)(=O)C=1N(C)C=CN1", "physical_data": {"Molecular Weight": "154.17", "Molecular Formula": "C7H10N2O2", "Boiling Point": "110 \u00b0C @ Press: 0.5 Torr", "Melting Point": "43-45 \u00b0C"}}