{"cas_no": "3016-19-1", "cn_name": "(E,E)-2,6-\u4e8c\u7532\u57fa-2,4,6-\u8f9b\u4e09\u70ef", "en_name": ["trans-Alloocimene", "2,4,6-Octatriene, 2,6-dimethyl-, (4E,6E)-", "2,4,6-Octatriene, 2,6-dimethyl-, (E,E)-", "2,4,6-Octatriene, 2,6-dimethyl-, trans-4,-trans-6-", "(4E,6E)-2,6-Dimethyl-2,4,6-octatriene", "trans-2,6-Dimethyl-2,4,6-octatriene", "trans-allo-Ocimene", "(4E,6E)-Alloocimene", "trans,trans-Alloocimene", "trans-Alloocimene", "(E,E)-Alloocimene", "(E,E)-2,6-Dimethyl-2,4,6-octatriene"], "SMILES": "C(C=CC=C(C)C)(=CC)C", "physical_data": {"Molecular Weight": "136.23", "Molecular Formula": "C10H16", "Boiling Point": "188 \u00b0C", "Melting Point": "-35.4 \u00b0C", "Density": "0.809 g/cm\u00b3"}}