{"cas_no": "301692-76-2", "cn_name": "\u5e15\u9a6c\u8003\u6614", "en_name": ["Polmacoxib", "Benzenesulfonamide, 4-[3-(3-fluorophenyl)-4,5-dihydro-5,5-dimethyl-4-oxo-2-furanyl]-", "4-[3-(3-Fluorophenyl)-4,5-dihydro-5,5-dimethyl-4-oxo-2-furanyl]benzenesulfonamide", "CG 100649", "Polmacoxib", "Acelex", "CG 100650"], "SMILES": "O=C1C(=C(OC1(C)C)C2=CC=C(S(N)(=O)=O)C=C2)C3=CC(F)=CC=C3", "physical_data": {"Molecular Weight": "361.39", "Molecular Formula": "C18H16FNO4S", "Melting Point": "155-156 \u00b0C"}}