{"cas_no": "30165-97-0", "cn_name": "4-\u5417\u5549-4-\u57fa-1,2,5-\u4e09\u5511-3-\u916e", "en_name": ["3-Hydroxy-4-morpholino-1,2,5-thiadiazole", "1,2,5-Thiadiazol-3(2H)-one, 4-(4-morpholinyl)-", "1,2,5-Thiadiazol-3-ol, 4-morpholino-", "4-(4-Morpholinyl)-1,2,5-thiadiazol-3(2H)-one", "3-Hydroxy-4-morpholino-1,2,5-thiazole", "3-Hydroxy-4-morpholino-1,2,5-thiadiazole", "3-Morpholino-4-hydroxy-1,2,5-thiadiazole"], "SMILES": "O=C1C(=NSN1)N2CCOCC2", "physical_data": {"Molecular Weight": "187.22", "Molecular Formula": "C6H9N3O2S", "Melting Point": "200-204 \u00b0C"}}