{"cas_no": "3016-76-0", "cn_name": "4,4\u2019-(2,2,2-\u4e09\u6c1f-1-\u4e09\u6c1f\u7532\u57fa)\u4e9a\u4e59\u57fa\u53cc(1,2-\u82ef\u4e8c\u7532\u9178)", "en_name": ["4,4\u2032-[2,2,2-Trifluoro-1-(trifluoromethyl)ethylidene]bis[1,2-benzenedicarboxylic acid]", "1,2-Benzenedicarboxylic acid, 4,4\u2032-[2,2,2-trifluoro-1-(trifluoromethyl)ethylidene]bis-", "Phthalic acid, 4,4\u2032-[trifluoro-1-(trifluoromethyl)ethylidene]di-", "Phthalic acid, 4,4\u2032-[2,2,2-trifluoro-1-(trifluoromethyl)ethylidene]di-", "4,4\u2032-[2,2,2-Trifluoro-1-(trifluoromethyl)ethylidene]bis[1,2-benzenedicarboxylic acid]", "2,2-Bis(3,4-dicarboxyphenyl)hexafluoropropane", "4,4\u2032-Hexafluoroisopropylidenebis(phthalic acid)", "4,4\u2032-[2,2,2-Trifluoro-1-(trifluoromethyl)ethylidene]bis(1,2-benzenedicarboxylic dianhydride)", "2,2-Bis(3,4-dicarboxyphenyl)perfluoropropane", "4,4\u2032-[2,2,2-Trifluoro-1-(trifluoromethyl)ethylidene]bis[phthalic acid]", "4,4\u2032-(Hexafluoroisopropylidene)diphthalic acid", "3,3\u2032,4,4\u2032-(1,1\u2032-Hexafluoroisopropylidenebiphenyl)tetracarboxylic acid", "2,2\u2032-Bis(3,4-dicarboxyphenyl)hexafluoropropane"], "SMILES": "C(C(F)(F)F)(C(F)(F)F)(C1=CC(C(O)=O)=C(C(O)=O)C=C1)C2=CC(C(O)=O)=C(C(O)=O)C=C2", "physical_data": {"Molecular Weight": "480.27", "Molecular Formula": "C19H10F6O8", "Melting Point": "225 \u00b0C"}}