{"cas_no": "3016-97-5", "cn_name": "1\uff0c4-\u4e8c\u535e\u6c27\u57fa\u672c", "en_name": ["1,4-Dibenzoylbenzene", "Methanone, 1,1\u2032-(1,4-phenylene)bis[1-phenyl-", "Benzene, p-dibenzoyl-", "Methanone, 1,4-phenylenebis[phenyl-", "1,1\u2032-(1,4-Phenylene)bis[1-phenylmethanone]", "1,4-Dibenzoylbenzene", "Terephthalophenone", "p-Benzoylbenzophenone", "p-Dibenzoylbenzene", "4-Benzoylbenzophenone", "NSC 631643", "1,4-Phenylenebis(phenylmethanone)", "(4-Benzoylphenyl)-phenylmethanone", "(4-Benzoyl-phenyl)-phenyl-methanone"], "SMILES": "C(=O)(C1=CC=C(C(=O)C2=CC=CC=C2)C=C1)C3=CC=CC=C3", "physical_data": {"Molecular Weight": "286.32", "Molecular Formula": "C20H14O2", "Melting Point": "160-161 \u00b0C"}}