{"cas_no": "30162-37-9", "cn_name": "3-\u5421\u5576\u786b\u8132", "en_name": ["N-3-Pyridinylthiourea", "Thiourea, N-3-pyridinyl-", "Thiourea, 3-pyridinyl-", "Urea, 1-(3-pyridyl)-2-thio-", "N-3-Pyridinylthiourea", "3-Pyridylthiourea", "N-3-Pyridylthiourea", "1-(3-Pyridyl)thiourea", "NSC 201721", "(Pyridin-3-yl)thiourea", "N-Pyridin-3-ylthiourea", "1-(Pyridin-3-yl)thiourea"], "SMILES": "N(C(N)=S)C=1C=CC=NC1", "physical_data": {"Molecular Weight": "153.20", "Molecular Formula": "C6H7N3S", "Melting Point": "165-167 \u00b0C"}}