{"cas_no": "30165-96-9", "cn_name": "3-\u6c2f-4-\u5417\u5549\u57fa-1,2,5-\u567b\u4e8c\u5511", "en_name": ["3-Chloro-4-morpholino-1,2,5-thiadiazole", "Morpholine, 4-(4-chloro-1,2,5-thiadiazol-3-yl)-", "1,2,5-Thiadiazole, morpholine deriv.", "4-(4-Chloro-1,2,5-thiadiazol-3-yl)morpholine", "3-Morpholino-4-chloro-1,2,5-thiadiazole", "3-Chloro-4-morpholino-1,2,5-thiadiazole", "3-Chloro-4-morpholin-4-yl-1,2,5-thiadiazole"], "SMILES": "ClC=1C(=NSN1)N2CCOCC2", "physical_data": {"Molecular Weight": "205.67", "Molecular Formula": "C6H8ClN3OS", "Melting Point": "43-45 \u00b0C"}}