{"cas_no": "3017-95-6", "cn_name": "1-\u6c2f-2-\u6eb4\u4e19\u70f7", "en_name": ["2-Bromo-1-chloropropane", "Propane, 2-bromo-1-chloro-", "2-Bromo-1-chloropropane", "1-Chloro-2-bromopropane", "(\u00b1)-2-Bromo-1-chloropropane", "NSC 8022"], "SMILES": "C(CCl)(Br)C", "physical_data": {"Molecular Weight": "157.44", "Molecular Formula": "C3H6BrCl", "Boiling Point": "118 \u00b0C", "Density": "1.537 g/cm\u00b3 @ Temp: 20 \u00b0C"}}