{"cas_no": "3018-12-0", "cn_name": "\u4e8c\u6c2f\u4e59\u8148", "en_name": ["Dichloroacetonitrile", "Acetonitrile, dichloro-", "Dichloroacetonitrile", "Dichloromethyl cyanide", "NSC 60511", "2,2-Dichloroacetonitrile"], "SMILES": "C(C#N)(Cl)Cl", "physical_data": {"Molecular Weight": "109.94", "Molecular Formula": "C2HCl2N", "Boiling Point": "112.5 \u00b0C", "Density": "1.369 g/cm\u00b3 @ Temp: 20 \u00b0C"}}