{"cas_no": "3019-71-4", "cn_name": "\u4e09\u6c2f\u4e59\u9170\u5f02\u6c30\u9178\u916f", "en_name": ["Trichloroacetyl isocyanate", "Acetyl isocyanate, 2,2,2-trichloro-", "Acetyl isocyanate, trichloro-", "Acetic acid, trichloro-, anhydride with isocyanic acid", "Isocyanic acid, anhydride with trichloroacetic acid", "2,2,2-Trichloroacetyl isocyanate", "Trichloroacetyl isocyanate", "\u03b1,\u03b1,\u03b1-Trichloroacetyl isocyanate"], "SMILES": "C(C(Cl)(Cl)Cl)(N=C=O)=O", "physical_data": {"Molecular Weight": "188.40", "Molecular Formula": "C3Cl3NO2", "Boiling Point": "80-85 \u00b0C @ Press: 20 Torr", "Melting Point": "135-140 \u00b0C"}}