{"cas_no": "3019-51-0", "cn_name": "\u5f02\u6ce2\u5c14\u5b9a\u78b1", "en_name": ["Isoboldine", "4H-Dibenzo[de,g]quinoline-1,9-diol, 5,6,6a,7-tetrahydro-2,10-dimethoxy-6-methyl-, (6aS)-", "Isoboldine", "6a\u03b1-Aporphine-1,9-diol, 2,10-dimethoxy-", "4H-Dibenzo[de,g]quinoline-1,9-diol, 5,6,6a,7-tetrahydro-2,10-dimethoxy-6-methyl-, (S)-", "(6aS)-5,6,6a,7-Tetrahydro-2,10-dimethoxy-6-methyl-4H-dibenzo[de,g]quinoline-1,9-diol", "(+)-Isoboldine", "d-Isoboldine", "(S)-(+)-Isoboldine", "(S)-Isoboldine", "N-Methyllaurelliptine", "NSC 113983"], "SMILES": "OC1=C2C=3C(CC=4C2=CC(OC)=C(O)C4)N(C)CCC3C=C1OC", "physical_data": {"Molecular Weight": "327.37", "Molecular Formula": "C19H21NO4", "Melting Point": "180 \u00b0C"}}