{"cas_no": "30195-30-3", "cn_name": "\u5316\u5408\u7269RO 5-3335", "en_name": ["7-Chloro-1,3-dihydro-5-(1H-pyrrol-2-yl)-2H-1,4-benzodiazepin-2-one", "2H-1,4-Benzodiazepin-2-one, 7-chloro-1,3-dihydro-5-(1H-pyrrol-2-yl)-", "2H-1,4-Benzodiazepin-2-one, 7-chloro-1,3-dihydro-5-pyrrol-2-yl-", "7-Chloro-1,3-dihydro-5-(1H-pyrrol-2-yl)-2H-1,4-benzodiazepin-2-one", "Ro 5-3335", "NSC 66020"], "SMILES": "ClC=1C=C2C(=NCC(=O)NC2=CC1)C3=CC=CN3", "physical_data": {"Molecular Weight": "259.69", "Molecular Formula": "C13H10ClN3O", "Melting Point": "262-263 \u00b0C"}}