{"cas_no": "3019-25-8", "cn_name": "\u73af\u4e01\u57fa\u7532\u57fa\u916e", "en_name": ["Cyclobutyl methyl ketone", "Ethanone, 1-cyclobutyl-", "Ketone, cyclobutyl methyl", "1-Cyclobutylethanone", "Cyclobutane, acetyl-", "Cyclobutyl methyl ketone", "Acetylcyclobutane", "Methyl cyclobutyl ketone", "1-Cyclobutylethan-1-one"], "SMILES": "C(C)(=O)C1CCC1", "physical_data": {"Molecular Weight": "98.14", "Molecular Formula": "C6H10O", "Boiling Point": "138 \u00b0C", "Density": "0.9093 g/cm\u00b3 @ Temp: 410 \u00b0C"}}