{"cas_no": "302-23-8", "cn_name": "\u918b\u9178\u7f9f\u5b55\u916e", "en_name": ["Progesterone acetate", "Pregn-4-ene-3,20-dione, 17-(acetyloxy)-", "Pregn-4-ene-3,20-dione, 17-hydroxy-, acetate", "Progesterone, 17-hydroxy-, acetate", "17-(Acetyloxy)pregn-4-ene-3,20-dione", "17-Acetoxyprogesterone", "17\u03b1-Hydroxypregn-4-ene-3,20-dione acetate", "U 5533", "17-Hydroxyprogesterone acetate", "17\u03b1-Hydroxy-4-pregnene-3,20-dione 17\u03b1-acetate", "17\u03b1-Acetoxypregn-4-ene-3,20-dione", "Acetoxyprogesterone", "17-Acetoxypregn-4-ene-3,20-dione", "17-(Acetyloxy)progesterone", "Progesterone acetate", "Hydroxyprogesterone acetate", "NSC 12191"], "SMILES": "O(C(C)=O)C1(C(C)=O)C2(C)C(CC1)C3C(CC2)C4(C)C(CC3)=CC(=O)CC4", "physical_data": {"Molecular Weight": "372.50", "Molecular Formula": "C23H32O4", "Melting Point": "243-244.5 \u00b0C"}}