{"cas_no": "302-72-7", "cn_name": "DL-\u4e19\u6c28\u9178", "en_name": ["Alanine", "Alanine", "Alanine, DL-", "DL-Alanine", "dl-2-Aminopropanoic acid", "DL-\u03b1-Alanine", "(\u00b1)-Alanine", "(\u00b1)-2-Aminopropionic acid", "DL-\u03b1-Aminopropionic acid", "DL-Ala", "(R,S)-Alanine", "dl-Alanine", "NSC 7602", "2-Amino-propionic acid", "2-Aminopropanoic acid", "\u03b1-Methylglycine"], "SMILES": "C(C(O)=O)(C)N", "physical_data": {"Molecular Weight": "89.09", "Molecular Formula": "C3H7NO2", "Melting Point": "300 \u00b0C (decomp)"}}