{"cas_no": "302-79-4", "cn_name": "\u7ef4A\u9178", "en_name": ["Retinoic acid", "Retinoic acid", "Retinoic acid, all-trans-", "Vitamin A acid", "Tretinoin", "trans-Retinoic acid", "2,4,6,8-Nonatetraenoic acid, 3,7-dimethyl-9-(2,6,6-trimethyl-1-cyclohexen-1-yl)-, (all-E)-", "all-trans-Vitamin A acid", "Vitamin A acid, all-trans-", "Vitamin A1 acid, all-trans-", "3,7-Dimethyl-9-(2,6,6-trimethyl-1-cyclohexen-1-yl)-2,4,6,8-nonatetraenoic acid", "\u03b2-Retinoic acid", "(all-E)-3,7-Dimethyl-9-(2,6,6-trimethyl-1-cyclohexen-1-yl)-2,4,6,8-nonatetraenoic acid", "all-trans-Tretinoin", "all-(E)-Retinoic acid", "Tretin M", "all-trans-\u03b2-Retinoic acid", "Ro 1-5488", "Retin A", "AGN 100335", "Aberel", "all-trans-Retinoic acid", "Vesanoid", "ATRA", "Renova", "Atragen", "Vesnaroid", "Epi-Aberel", "Cordes Vas", "Dermairol", "Aknoten", "Airol", "NSC 122578", "Eudyna", "Retacnyl", "NSC 122758"], "SMILES": "C(=CC(=CC=CC(=CC(O)=O)C)C)C=1C(C)(C)CCCC1C", "physical_data": {"Molecular Weight": "300.44", "Molecular Formula": "C20H28O2", "Melting Point": "180-182 \u00b0C"}}