{"cas_no": "302-97-6", "cn_name": "3-\u6c27\u4ee3-\u96c4\u753e-4-\u70ef-17beta-\u7fa7\u9178", "en_name": ["(17\u03b2)-3-Oxoandrost-4-ene-17-carboxylic acid", "Androst-4-ene-17-carboxylic acid, 3-oxo-, (17\u03b2)-", "Androst-4-ene-17\u03b2-carboxylic acid, 3-oxo-", "(17\u03b2)-3-Oxoandrost-4-ene-17-carboxylic acid", "Etienic acid", "3-Oxoandrost-4-ene-17\u03b2-carboxylic acid", "17\u03b2-Carboxyandrost-4-en-3-one", "Testosterone-17\u03b2-carboxylic acid", "L 552.803", "AL 3793", "AD-Acid", "NSC 226121", "CC 14837", "SKF 106224", "3-Carbonyl-4-androstene-17\u03b2-carboxylic acid"], "SMILES": "CC12C3C(C4C(C)(CC3)C(C(O)=O)CC4)CCC1=CC(=O)CC2", "physical_data": {"Molecular Weight": "316.43", "Molecular Formula": "C20H28O3", "Melting Point": "260 \u00b0C"}}