{"cas_no": "302-91-0", "cn_name": "\u5f02\u4f53-3\u0391-\u56db\u6c22\u76ae\u8d28\u9187", "en_name": ["5\u03b1-Tetrahydrocortisol", "Pregnan-20-one, 3,11,17,21-tetrahydroxy-, (3\u03b1,5\u03b1,11\u03b2)-", "5\u03b1-Pregnan-20-one, 3\u03b1,11\u03b2,17,21-tetrahydroxy-", "(3\u03b1,5\u03b1,11\u03b2)-3,11,17,21-Tetrahydroxypregnan-20-one", "Allopregnane-3\u03b1,11\u03b2,17\u03b1,21-tetrol-20-one", "Allotetrahydrocompound F", "ATHF", "Allotetrahydrocortisol", "Cortisol, allotetrahydro-", "Kendall's compound C", "5\u03b1-Pregnane-3\u03b1,11\u03b2,17\u03b1,21-tetraol-20-one", "Reichstein's substance C", "5\u03b1-Tetrahydrocortisol", "3\u03b1,11\u03b2,17,21-Tetrahydroxy-5\u03b1-pregnan-20-one", "Wintersteiner's compound D", "allo-Tetrahydrocortisol", "Allo-3\u03b1-tetrahydrocortisol", "\u03b1-THF", "3\u03b1,5\u03b1-Tetrahydrocortisol", "3\u03b1,11\u03b2,17\u03b1,21-Tetrahydroxy-5\u03b1-pregnan-20-one", "5\u03b1-Pregnane-3\u03b1,11\u03b2,17\u03b1,21-tetrol-20-one", "AL 3308", "NSC 86469", "5\u03b1-THF"], "SMILES": "CC12C(C3C(C4(C)C(CC3)CC(O)CC4)C(O)C1)CCC2(C(CO)=O)O", "physical_data": {"Molecular Weight": "366.49", "Molecular Formula": "C21H34O5", "Melting Point": "244.5 \u00b0C", "Density": "1.205 g/cm\u00b3"}}