{"cas_no": "302-01-2", "cn_name": "\u80bc(\u65e0\u6c34)", "en_name": ["Hydrazine", "Hydrazine", "Levoxine", "Oxytreat 35", "Nitrogen hydride (N2H4)", "H 70 (fuel)", "H 70"], "SMILES": "NN", "physical_data": {"Molecular Weight": "32.05", "Molecular Formula": "H4N2", "Boiling Point": "113.5 \u00b0C @ Press: 760 Torr", "Melting Point": "2.0 \u00b0C", "Density": "1.146 g/cm\u00b3 @ Temp: -5 \u00b0C"}}