{"cas_no": "302-84-1", "cn_name": "DL-\u4e1d\u6c28\u9178", "en_name": ["DL-Serine", "Serine", "Serine, DL-", "DL-Serine", "(\u00b1)-Serine", "DL-Ser", "NSC 9960", "2-Azaniumyl-3-hydroxypropanoate"], "SMILES": "C(C(O)=O)(CO)N", "physical_data": {"Molecular Weight": "105.09", "Molecular Formula": "C3H7NO3", "Melting Point": "246 \u00b0C (decomp)"}}