{"cas_no": "302-17-0", "cn_name": "\u6c34\u5408\u6c2f\u919b", "en_name": ["Chloral hydrate", "1,1-Ethanediol, 2,2,2-trichloro-", "Chloral hydrate", "2,2,2-Trichloro-1,1-ethanediol", "Chloral, monohydrate", "Trichloroacetaldehyde hydrate", "Trawotox", "Bi 3411", "Trichloroacetaldehyde monohydrate", "Noctec", "Nycton", "Somnos", "Lorinal", "Chloraldurat", "1,1,1-Trichloro-2,2-dihydroxyethane", "Dormal", "Phaldrone", "Rectules", "Hydral", "Nycoton", "SK Chloral hydrate", "Escre", "NSC 3210", "Fagron", "MeSH ID: D002697"], "SMILES": "C(C(O)O)(Cl)(Cl)Cl", "physical_data": {"Molecular Weight": "165.40", "Molecular Formula": "C2H3Cl3O2", "Boiling Point": "98 \u00b0C", "Melting Point": "57 \u00b0C", "Density": "2 x 10<sup>-6</sup> g/cm\u00b3 @ Temp: 20 \u00b0C"}}