{"cas_no": "302-22-7", "cn_name": "\u918b\u9178\u6c2f\u5730\u5b55\u916e", "en_name": ["Chlormadinone acetate", "Pregna-4,6-diene-3,20-dione, 17-(acetyloxy)-6-chloro-", "Pregna-4,6-diene-3,20-dione, 6-chloro-17-hydroxy-, acetate", "17-(Acetyloxy)-6-chloropregna-4,6-diene-3,20-dione", "RS 1280", "17-Acetoxy-6-chloro-6-dehydroprogesterone", "CAP", "Chlormadinone acetate", "6-Chloro-17-acetoxy-4,6-pregnadiene-3,20-dione", "6-Chloro-\u03946-17-acetoxyprogesterone", "6-Chloro-\u03946-dehydro-17-acetoxyprogesterone", "6-Chloro-6-dehydro-17-acetoxyprogesterone", "6-Chloro-6-dehydro-17\u03b1-acetoxyprogesterone", "6-Chloro-17\u03b1-hydroxypregna-4,6-diene-3,20-dione acetate", "6-Chloro-17\u03b1-hydroxy-\u03946-progesterone acetate", "6-Chloro-\u03944,6-pregnadien-17\u03b1-ol-3,20-dione 17-acetate", "6-Chloro-pregna-4,6-dien-17\u03b1-ol-3,20-dione acetate", "6-Dehydro-6-chloro-17\u03b1-acetoxyprogesterone", "Lormin", "Lutinyl", "Skedule TM", "Matrol", "6-Chloro-17-hydroxypregna-4,6-diene-3,20-dione acetate", "Ay 13390-6", "6-Chloro-17\u03b1-hydroxy-4,6-pregnadiene-3,20-dione 17-acetate", "Gestafortin", "6-Chloro-17\u03b1-acetoxy-4,6-pregnadiene-3,20-dione", "6-Chloro-6,7-dehydro-17-acetoxyprogesterone", "6-Chloro-\u03946-[17\u03b1]acetoxyprogesterone", "Chlormadinon acetate", "17-Acetoxy-6-chloropregna-4,6-diene-3,20-dione", "17\u03b1-Acetoxy-6-chloro-6,7-dehydroprogesterone", "Luteran", "Lutoral (Syntex)", "Normenon", "Menstridyl", "Cero", "Verton", "17\u03b1-Acetoxy-6-chloro-4,6-pregnadiene-3,20-dione", "Synchrosyn P", "Bovisynchron", "Traslan", "Clordion", "Retex", "Synchrosyn", "Prostal", "NSC 92338", "Natrol", "Lutoral", "Fertiletten", "Chronosyn", "Cyclonorm", "Bellissima", "MeSH ID: D002715"], "SMILES": "O(C(C)=O)C1(C(C)=O)C2(C)C(CC1)C3C(CC2)C4(C)C(C(Cl)=C3)=CC(=O)CC4", "physical_data": {"Molecular Weight": "404.93", "Molecular Formula": "C23H29ClO4", "Melting Point": "212-214 \u00b0C"}}