{"cas_no": "302-15-8", "cn_name": "\u7532\u57fa\u80bc\u786b\u9178\u76d0", "en_name": ["Hydrazine, methyl-, sulfate (1:1)", "Hydrazine, methyl-, sulfate (1:1)", "MHS", "Methylhydrazine sulfate", "Methylhydrazine monosulfate", "Methylhydrazine sulfate (1:1)", "NSC 3802", "Methylhydrazinium sulfate", "N-Methylhydrazine sulfate"], "SMILES": "N(C)N.S(=O)(=O)(O)O", "physical_data": {"Molecular Weight": "", "Molecular Formula": "CH6N2.H2O4S", "Melting Point": "140-141 \u00b0C"}}