{"cas_no": "3020-06-2", "cn_name": "2-(3,4-\u4e8c\u7532\u57fa\u82ef\u57fa)\u4e59\u8148", "en_name": ["3,4-Dimethylbenzeneacetonitrile", "Benzeneacetonitrile, 3,4-dimethyl-", "Acetonitrile, 3,4-xylyl-", "3,4-Dimethylbenzeneacetonitrile", "3,4-Xylylacetonitrile", "3,4-Dimethylbenzyl cyanide", "(3,4-Dimethylphenyl)acetonitrile", "NSC 26232", "2-(3,4-Dimethylphenyl)acetonitrile"], "SMILES": "C(C#N)C1=CC(C)=C(C)C=C1", "physical_data": {"Molecular Weight": "145.20", "Molecular Formula": "C10H11N", "Boiling Point": "635 \u00b0C @ Press: 0.5 Torr", "Melting Point": "35-38 \u00b0C"}}