{"cas_no": "3020-81-3", "cn_name": "\u76d0\u9178\u4e01\u8112", "en_name": ["Butanimidamide, hydrochloride (1:1)", "Butanimidamide, hydrochloride (1:1)", "Butyramidine, monohydrochloride", "Butanimidamide, monohydrochloride", "Butyramidine, hydrochloride", "Butanimidamide hydrochloride", "Butanamidine hydrochloride"], "SMILES": "C(C(=N)N)CC.Cl", "physical_data": {"Molecular Weight": "", "Molecular Formula": "C4H10N2.ClH", "Melting Point": "107-108 \u00b0C"}}