{"cas_no": "30216-52-5", "cn_name": "2-\u80bc\u567b\u5511\u76d0\u9178\u76d0", "en_name": ["Thiazole, 2-hydrazinyl-, hydrochloride (1:1)", "Thiazole, 2-hydrazinyl-, hydrochloride (1:1)", "Thiazole, 2-hydrazino-, monohydrochloride", "2(3H)-Thiazolone, hydrazone, monohydrochloride", "2-Hydrazinylthiazole hydrochloride"], "SMILES": "N(N)=C1NC=CS1.Cl", "physical_data": {"Molecular Weight": "", "Molecular Formula": "C3H5N3S.ClH", "Melting Point": "104 \u00b0C"}}