{"cas_no": "3022-16-0", "cn_name": "3,6-\u53cc(\u6c2f\u7532\u57fa)\u675c\u70ef", "en_name": ["Bis(chloromethyl)durene", "Benzene, 1,4-bis(chloromethyl)-2,3,5,6-tetramethyl-", "1,4-Bis(chloromethyl)-2,3,5,6-tetramethylbenzene", "Bis(chloromethyl)durene", "3,6-Bis(chloromethyl)durene", "2,3,5,6-Tetramethyl-p-dichloroxylylene", "1,4-Bis(chloromethyl)durene", "1,4-Bis(chloromethyl)tetramethylbenzene", "2,3,5,6-Tetramethyl-p-xylylene dichloride", "NSC 93952", "1,2,4,5-Tetramethyl-3,6-bis(chloromethyl)benzene"], "SMILES": "C(Cl)C1=C(C)C(C)=C(CCl)C(C)=C1C", "physical_data": {"Molecular Weight": "231.16", "Molecular Formula": "C12H16Cl2", "Melting Point": "193-194 \u00b0C", "Density": "1.30 g/cm\u00b3"}}