{"cas_no": "30235-27-9", "cn_name": "2-\u6c28\u57fa-4-(3-\u5421\u5576\u57fa)\u567b\u5511", "en_name": ["4-(3-Pyridinyl)-2-thiazolamine", "2-Thiazolamine, 4-(3-pyridinyl)-", "Pyridine, 3-(2-amino-4-thiazolyl)-", "4-(3-Pyridinyl)-2-thiazolamine", "2-Amino-4-(3-pyridyl)thiazole", "4-(3-Pyridyl)-2-thiazolamine", "3-(2-Aminothiazol-4-yl)pyridine", "4-(3-Pyridyl)-1,3-thiazol-2-amine", "4-(Pyridin-3-yl)-2-amino-1,3-thiazole", "[4-(Pyridin-3-yl)thiazol-2-yl]amine", "4-(Pyridin-3-yl)thiazol-2-amine", "4-(Pyridin-3-yl)-1,3-thiazol-2-amine", "4-(Pyridin-3-yl)-4,5-dihydrothiazol-2-amine"], "SMILES": "NC1=NC(=CS1)C=2C=CC=NC2", "physical_data": {"Molecular Weight": "177.23", "Molecular Formula": "C8H7N3S", "Melting Point": "213 \u00b0C"}}