{"cas_no": "3024-72-4", "cn_name": "3,4-\u4e8c\u6c2f\u82ef\u7532\u9170\u6c2f", "en_name": ["3,4-Dichlorobenzoyl chloride", "Benzoyl chloride, 3,4-dichloro-", "3,4-Dichlorobenzoyl chloride"], "SMILES": "C(Cl)(=O)C1=CC(Cl)=C(Cl)C=C1", "physical_data": {"Molecular Weight": "209.46", "Molecular Formula": "C7H3Cl3O", "Boiling Point": "242 \u00b0C", "Melting Point": "25 \u00b0C"}}