{"cas_no": "3025-95-4", "cn_name": "N-\u4e59\u9170-\u0392-\u4e19\u6c28\u9178", "en_name": ["Acetyl-\u03b2-alanine", "\u03b2-Alanine, N-acetyl-", "N-Acetyl-\u03b2-alanine", "3-Acetamidopropionic acid", "Acetyl-\u03b2-alanine", "N-Acetyl-3-aminopropanoic acid", "NSC 32039", "3-(Acetylamino)propionic acid", "3-(Acetylamino)propanoic acid", "3-Acetamidopropanoic acid"], "SMILES": "C(CC(O)=O)NC(C)=O", "physical_data": {"Molecular Weight": "131.13", "Molecular Formula": "C5H9NO3", "Melting Point": "77-79 \u00b0C"}}