{"cas_no": "3025-96-5", "cn_name": "4-\u4e59\u9170\u6c28\u57fa\u4e01\u9178", "en_name": ["4-Acetamidobutyric acid", "Butanoic acid, 4-(acetylamino)-", "Butyric acid, 4-acetamido-", "4-(Acetylamino)butanoic acid", "N-Acetyl-4-aminobutyric acid", "4-Acetamidobutyric acid", "N-Acetyl-4-aminobutanoic acid", "4-Acetylaminobutyric acid", "N-Acetyl-\u03b3-aminobutyric acid", "N-acetyl GABA", "NSC 27423", "4-Acetamidobutanoic acid"], "SMILES": "C(CNC(C)=O)CC(O)=O", "physical_data": {"Molecular Weight": "145.16", "Molecular Formula": "C6H11NO3", "Melting Point": "126-128 \u00b0C"}}