{"cas_no": "3025-30-7", "cn_name": "2,4-\u7678\u4e8c\u70ef\u9178\u4e59\u916f", "en_name": ["Ethyl (E,Z)-2,4-decadienoate", "2,4-Decadienoic acid, ethyl ester, (2E,4Z)-", "2,4-Decadienoic acid, ethyl ester, (E,Z)-", "Ethyl trans-2,cis-4-decadienoate", "Ethyl (2E,4Z)-decadienoate", "Ethyl (E,Z)-2,4-decadienoate", "Ethyl (2E,4Z)-2,4-decadienoate", "Pear ester"], "SMILES": "C(=CC=CCCCCC)C(OCC)=O", "physical_data": {"Molecular Weight": "196.29", "Molecular Formula": "C12H20O2", "Boiling Point": "81-82 \u00b0C @ Press: 0.1 Torr"}}