{"cas_no": "3026-69-5", "cn_name": "\u4e8c\u7532\u57fa\u4e8c\u8f9b\u57fa\u6eb4\u5316\u94f5", "en_name": ["Dioctyldimethylammonium bromide", "1-Octanaminium, N,N-dimethyl-N-octyl-, bromide (1:1)", "Ammonium, dimethyldioctyl-, bromide", "1-Octanaminium, N,N-dimethyl-N-octyl-, bromide", "Dimethyldioctylammonium bromide", "Dioctyldimethylammonium bromide"], "SMILES": "[N+](CCCCCCCC)(CCCCCCCC)(C)C.[Br-]", "physical_data": {"Molecular Weight": "", "Molecular Formula": "C18H40N.Br", "Melting Point": "60-68 \u00b0C"}}