{"cas_no": "30263-65-1", "cn_name": "1,1-\u4e8c\u6eb4\u9891\u54ea\u916e", "en_name": ["1,1-Dibromo-3,3-dimethyl-2-butanone", "2-Butanone, 1,1-dibromo-3,3-dimethyl-", "1,1-Dibromo-3,3-dimethyl-2-butanone", "NSC 195963"], "SMILES": "C(C(C)(C)C)(C(Br)Br)=O", "physical_data": {"Molecular Weight": "257.95", "Molecular Formula": "C6H10Br2O", "Melting Point": "72 \u00b0C"}}