{"cas_no": "3027-13-2", "cn_name": "3-\u7532\u6c27\u57fa\u82ef\u57fa\u4e19\u916e", "en_name": ["3\u2032-Methoxyphenyl-2-propanone", "2-Propanone, 1-(3-methoxyphenyl)-", "2-Propanone, 1-(m-methoxyphenyl)-", "2-Propanone, (m-methoxyphenyl)-", "1-(3-Methoxyphenyl)-2-propanone", "(m-Methoxyphenyl)acetone", "3-Methoxybenzyl methyl ketone", "(3-Methoxyphenyl)acetone", "1-(m-Methoxyphenyl)-2-propanone", "3\u2032-Methoxyphenyl-2-propanone", "1-(3-Methoxyphenyl)acetone"], "SMILES": "C(C(C)=O)C1=CC(OC)=CC=C1", "physical_data": {"Molecular Weight": "164.20", "Molecular Formula": "C10H12O2", "Boiling Point": "259 \u00b0C"}}