{"cas_no": "30273-11-1", "cn_name": "4-\u4ef2\u4e01\u57fa\u82ef\u80fa", "en_name": ["4-(1-Methylpropyl)benzenamine", "Benzenamine, 4-(1-methylpropyl)-", "Aniline, p-sec-butyl-", "4-(1-Methylpropyl)benzenamine", "p-sec-Butylaniline", "4-sec-Butylaniline", "4-(1-Methylpropyl)aniline", "(RS)-4-sec-Butylaniline", "4-Amino-sec-butylbenzene", "4-sec-Butylbenzenamine", "4-sec-Butylphenylamine", "4-(Butan-2-yl)aniline"], "SMILES": "C(CC)(C)C1=CC=C(N)C=C1", "physical_data": {"Molecular Weight": "149.23", "Molecular Formula": "C10H15N", "Boiling Point": "238 \u00b0C", "Density": "0.9770 g/cm\u00b3 @ Temp: 20 \u00b0C"}}