{"cas_no": "3027-38-1", "cn_name": "3-\u785d\u57fa-1,8-\u8418\u4e8c\u7532\u9178\u9150", "en_name": ["5-Nitro-1H,3H-naphtho[1,8-cd]pyran-1,3-dione", "1H,3H-Naphtho[1,8-cd]pyran-1,3-dione, 5-nitro-", "Naphthalic anhydride, 3-nitro-", "5-Nitro-1H,3H-naphtho[1,8-cd]pyran-1,3-dione", "3-Nitro-1,8-naphthalic anhydride", "3-Nitro-1,8-naphthalenedicarboxylic anhydride", "3-Nitro-1,8-naphthalic acid anhydride", "3-Nitronaphthalic anhydride", "YY 187", "NSC 32326", "5-Nitro-1H,3H-benzo[de]isochromene-1,3-dione"], "SMILES": "O=C1C=2C3=C(C=C(N(=O)=O)C2)C=CC=C3C(=O)O1", "physical_data": {"Molecular Weight": "243.17", "Molecular Formula": "C12H5NO5", "Melting Point": "247-248 \u00b0C"}}