{"cas_no": "3027-21-2", "cn_name": "\u7532\u57fa\u82ef\u57fa\u4e8c\u7532\u6c27\u57fa\u7845\u70f7", "en_name": ["(Dimethoxymethylsilyl)benzene", "Benzene, (dimethoxymethylsilyl)-", "Silane, dimethoxymethylphenyl-", "(Dimethoxymethylsilyl)benzene", "Dimethoxymethylphenylsilane", "Methylphenyldimethoxysilane", "Dimethoxyphenylmethylsilane", "Phenylmethyldimethoxysilane", "Z 6073", "SM 2 (silane)", "SM 2", "NSC 93924", "SIP 6740", "SIP 6740.0", "LS 2720", "KBM 102", "KH 1621", "Methyldimethoxyphenylsilane"], "SMILES": "[Si](OC)(OC)(C)C1=CC=CC=C1", "physical_data": {"Molecular Weight": "182.29", "Molecular Formula": "C9H14O2Si", "Boiling Point": "199-200 \u00b0C", "Melting Point": "73-75 \u00b0C", "Density": "0.993 g/cm\u00b3"}}