{"cas_no": "30273-42-8", "cn_name": "4-\u6eb4-2-\u6c2f-6-\u7532\u57fa\u82ef\u80fa", "en_name": ["4-Bromo-2-chloro-6-methylbenzenamine", "Benzenamine, 4-bromo-2-chloro-6-methyl-", "o-Toluidine, 4-bromo-6-chloro-", "4-Bromo-2-chloro-6-methylbenzenamine", "4-Bromo-2-chloro-6-methylphenylamine", "4-Bromo-2-chloro-6-methylaniline", "2-Amino-5-bromo-3-chlorotoluene", "2-Methyl-4-bromo-6-chloroaniline"], "SMILES": "NC1=C(C)C=C(Br)C=C1Cl", "physical_data": {"Molecular Weight": "220.49", "Molecular Formula": "C7H7BrClN", "Melting Point": "60 \u00b0C"}}