{"cas_no": "30273-39-3", "cn_name": "4-\u6c2f-2-\u4e59\u57fa\u82ef\u80fa", "en_name": ["4-Chloro-2-ethylbenzenamine", "Benzenamine, 4-chloro-2-ethyl-", "Aniline, 4-chloro-2-ethyl-", "4-Chloro-2-ethylbenzenamine", "2-Ethyl-4-chloroaniline", "4-Chloro-2-ethylaniline", "(4-Chloro-2-ethylphenyl)amine"], "SMILES": "C(C)C1=C(N)C=CC(Cl)=C1", "physical_data": {"Molecular Weight": "155.62", "Molecular Formula": "C8H10ClN", "Boiling Point": "113-114 \u00b0C @ Press: 6 Torr"}}