{"cas_no": "3028-88-4", "cn_name": "\u78f7\u9178\u4e09\u8f9b\u916f(\u6df7\u5408\u7269)", "en_name": ["Octyl phosphite", "Phosphorous acid, trioctyl ester", "Octyl phosphite ((C8H17O)3P)", "Octyl phosphite", "Trioctyl phosphite", "Tri-n-octyl phosphite", "Chelex O", "NSC 97316"], "SMILES": "P(OCCCCCCCC)(OCCCCCCCC)OCCCCCCCC", "physical_data": {"Molecular Weight": "418.63", "Molecular Formula": "C24H51O3P", "Boiling Point": "212-214 \u00b0C @ Press: 2 Torr"}}