{"cas_no": "30286-75-0", "cn_name": "\u6c27\u6258\u6eb4\u94f5", "en_name": ["Oxitropium bromide", "3-Oxa-9-azoniatricyclo[3.3.1.02,4]nonane, 9-ethyl-7-[(2S)-3-hydroxy-1-oxo-2-phenylpropoxy]-9-methyl-, bromide (1:1), (1\u03b1,2\u03b2,4\u03b2,5\u03b1,7\u03b2)-", "3-Oxa-9-azoniatricyclo[3.3.1.02,4]nonane, 9-ethyl-7-(3-hydroxy-1-oxo-2-phenylpropoxy)-9-methyl-, bromide, [7(S)-(1\u03b1,2\u03b2,4\u03b2,5\u03b1,7\u03b2)]-", "N-Ethylscopolammonium bromide", "3-Oxa-9-azoniatricyclo[3.3.1.02,4]nonane, 9-ethyl-7-[(2S)-3-hydroxy-1-oxo-2-phenylpropoxy]-9-methyl-, bromide, (1\u03b1,2\u03b2,4\u03b2,5\u03b1,7\u03b2)-", "N-Ethylnorscopolamine methyl bromide", "Oxytropium bromide", "Oxitropium bromide", "Scopolamine ethobromide", "Hyoscine ethobromide", "Ba 253Br", "Ba 253", "Tersigan", "Ventilat", "Oxivent", "Ba 253BR-L", "Tersigat"], "SMILES": "C(C)[N+]1(C)C2C3C(O3)C1CC(OC(C(CO)C4=CC=CC=C4)=O)C2.[Br-]", "physical_data": {"Molecular Weight": "", "Molecular Formula": "C19H26NO4.Br", "Melting Point": "203-204 \u00b0C (decomp)"}}