{"cas_no": "302912-34-1", "cn_name": "1-\u4e59\u7094\u57fa-2,4-\u4e8c\u6c1f\u82ef", "en_name": ["1-Ethynyl-2,4-difluorobenzene", "Benzene, 1-ethynyl-2,4-difluoro-", "1-Ethynyl-2,4-difluorobenzene", "2,4-Difluorophenylacetylene", "[2,4-Difluorophenyl]ethyne"], "SMILES": "C(#C)C1=C(F)C=C(F)C=C1", "physical_data": {"Molecular Weight": "138.11", "Molecular Formula": "C8H4F2", "Melting Point": "30-32 \u00b0C"}}