{"cas_no": "3029-79-6", "cn_name": "3-\u7532\u57fa\u8089\u6842\u9178", "en_name": ["3-(3-Methylphenyl)-2-propenoic acid", "2-Propenoic acid, 3-(3-methylphenyl)-", "Cinnamic acid, m-methyl-", "3-(3-Methylphenyl)-2-propenoic acid", "m-Methylcinnamic acid", "3-Methylcinnamic acid", "3-(3-Methylphenyl)acrylic acid", "3-m-Tolylacrylic acid"], "SMILES": "C(=CC(O)=O)C1=CC(C)=CC=C1", "physical_data": {"Molecular Weight": "162.19", "Molecular Formula": "C10H10O2", "Melting Point": "114-115 \u00b0C"}}