{"cas_no": "302964-24-5", "cn_name": "2-\u6c28\u57fa-N-(2-\u6c2f-6-\u7532\u57fa\u82ef\u57fa)\u567b\u5511-5-\u7532\u9170\u80fa", "en_name": ["2-Amino-N-(2-chloro-6-methylphenyl)-5-thiazolecarboxamide", "5-Thiazolecarboxamide, 2-amino-N-(2-chloro-6-methylphenyl)-", "2-Amino-N-(2-chloro-6-methylphenyl)-5-thiazolecarboxamide", "2-Amino-N-(2-chloro-6-methylphenyl)thiazole-5-carboxamide", "2-Amino-N-(2-chloro-6-methylphenyl)-1,3-thiazole-5-carboxamide"], "SMILES": "N(C(=O)C=1SC(N)=NC1)C2=C(C)C=CC=C2Cl", "physical_data": {"Molecular Weight": "267.73", "Molecular Formula": "C11H10ClN3OS", "Melting Point": "258-262 \u00b0C"}}