{"cas_no": "3029-30-9", "cn_name": "\u8418-1,4-\u4e8c\u8148", "en_name": ["1,4-Naphthalenedicarbonitrile", "1,4-Naphthalenedicarbonitrile", "1,4-Dicyanonaphthalene", "NSC 128542"], "SMILES": "C(#N)C=1C2=C(C(C#N)=CC1)C=CC=C2", "physical_data": {"Molecular Weight": "178.19", "Molecular Formula": "C12H6N2", "Melting Point": "206 \u00b0C"}}