{"cas_no": "3029-19-4", "cn_name": "1-\u8298\u7532\u919b", "en_name": ["1-Pyrenecarboxaldehyde", "1-Pyrenecarboxaldehyde", "3-Pyrenecarboxaldehyde", "3-Formylpyrene", "3-Pyrenylaldehyde", "3-Pyrenealdehyde", "1-Formylpyrene", "1-Pyrenealdehyde", "1-Pyrenecarbaldehyde", "NSC 30811", "1-Pyrenecarboxaldehyde, 1,8-dihydro-", "1-Pyrenecarboxaldehyde, 6,10-dihydro-", "6,10-Dihydro-1-pyrenecarboxaldehyde", "1-Pyrenecarboxaldehyde, 2,3-dihydro-", "2,3-Dihydro-1-pyrenecarboxaldehyde"], "SMILES": "C(=O)C1=C2C3=C4C(C=C2)=CC=CC4=CC=C3C=C1", "physical_data": {"Molecular Weight": "230.26", "Molecular Formula": "C17H10O", "Boiling Point": "287 \u00b0C @ Press: 17 Torr", "Melting Point": "126 \u00b0C"}}