{"cas_no": "30299-08-2", "cn_name": "\u514b\u5229\u8d1d\u7279", "en_name": ["Clinofibrate", "Butanoic acid, 2,2\u2032-[cyclohexylidenebis(4,1-phenyleneoxy)]bis[2-methyl-", "2,2\u2032-[Cyclohexylidenebis(4,1-phenyleneoxy)]bis[2-methylbutanoic acid]", "1,1-Bis[4\u2032-(1\u2032\u2032-carboxy-1\u2032\u2032-methylpropoxy)phenyl]cyclohexane", "S 8527", "Clinofibrate", "Lipoclin"], "SMILES": "O(C(C(O)=O)(CC)C)C1=CC=C(C2(CCCCC2)C3=CC=C(OC(C(O)=O)(CC)C)C=C3)C=C1", "physical_data": {"Molecular Weight": "468.58", "Molecular Formula": "C28H36O6", "Melting Point": "143-146 \u00b0C"}}