{"cas_no": "30291-41-9", "cn_name": "L-\u4e19\u6c28\u9178-N-\u7fa7\u57fa-\u73af\u5185\u9178\u9150", "en_name": ["4-Methyl-2,5-oxazolidinedione", "2,5-Oxazolidinedione, 4-methyl-", "4-Methyl-2,5-oxazolidinedione", "Alanine, N-carboxy-, cyclic anhydride", "DL-4-Methyl-2,5-oxazolidinedione", "N-Carboxy-DL-alanine anhydride", "(\u00b1)-4-Methyl-2,5-oxazolidinedione", "DL-Alanine-N-carboxy anhydride", "DL-Alanine-N-carboxylic anhydride", "N-Carboxy-DL-alanine N-carboxy anhydride"], "SMILES": "CC1C(=O)OC(=O)N1", "physical_data": {"Molecular Weight": "115.09", "Molecular Formula": "C4H5NO3", "Melting Point": "50.0 \u00b0C"}}