{"cas_no": "303-53-7", "cn_name": "\u73af\u82ef\u624e\u6797", "en_name": ["Cyclobenzaprine", "1-Propanamine, 3-(5H-dibenzo[a,d]cyclohepten-5-ylidene)-N,N-dimethyl-", "5H-Dibenzo[a,d]cycloheptene-\u03945,\u03b3-propylamine, N,N-dimethyl-", "3-(5H-Dibenzo[a,d]cyclohepten-5-ylidene)-N,N-dimethyl-1-propanamine", "MK 130", "9715 R.P", "Cyclobenzaprine", "[3-(5-H-Dibenzo[a,d]cyclohepten-5-ylidene)propyl]dimethylamine", "5-(3-Dimethylaminopropylidene)dibenzo[a,d]cycloheptatriene", "Proheptatriene", "Proheptatrien", "Ro 4-1577", "N,N-Dimethyl-5H-dibenzo[a,d]cycloheptene-\u03945,\u03b3-propylamine", "10,11-Dehydroamitriptyline", "RP 9715", "Amrix"], "SMILES": "C(CCN(C)C)=C1C=2C(C=CC=3C1=CC=CC3)=CC=CC2", "physical_data": {"Molecular Weight": "275.39", "Molecular Formula": "C20H21N", "Boiling Point": "177.5 \u00b0C"}}