{"cas_no": "303-07-1", "cn_name": "2,6-\u4e8c\u7f9f\u57fa\u82ef\u7532\u9178", "en_name": ["2,6-Dihydroxybenzoic acid", "Benzoic acid, 2,6-dihydroxy-", "\u03b3-Resorcylic acid", "2,6-Dihydroxybenzoic acid", "2-Carboxyresorcinol", "6-Hydroxysalicylic acid", "2,6-Resorcylic acid", "NSC 49172", "2-Carboxy-1,3-dihydroxybenzene"], "SMILES": "C(O)(=O)C1=C(O)C=CC=C1O", "physical_data": {"Molecular Weight": "154.12", "Molecular Formula": "C7H6O4", "Melting Point": "165 \u00b0C (decomp)"}}