{"cas_no": "303-43-5", "cn_name": "\u80c6\u56fa\u9187\u6cb9\u9178\u916f", "en_name": ["Cholesteryl oleate", "Cholest-5-en-3-ol (3\u03b2)-, 3-[(9Z)-9-octadecenoate]", "Cholesterol, oleate", "Cholest-5-en-3-ol (3\u03b2)-, 9-octadecenoate, (Z)-", "Cholest-5-en-3-ol (3\u03b2)-, (9Z)-9-octadecenoate", "Oleic acid, cholesteryl ester", "Cholesteryl oleate", "Cholesteryl cis-9-octadecenoate", "Oleoylcholesterol", "Cholesterol 3\u03b2-oleate", "Cholesteryl oleic ester", "NSC 18186", "Cholest-5-en-3-\u03b2-yl oleate", "Yofco LC-CO-D", "CE(18:1)"], "SMILES": "CC12C3C(C4C(C)(CC3)C(C(CCCC(C)C)C)CC4)CC=C1CC(OC(CCCCCCCC=CCCCCCCCC)=O)CC2", "physical_data": {"Molecular Weight": "651.10", "Molecular Formula": "C45H78O2", "Melting Point": "46-47 \u00b0C"}}