{"cas_no": "303-42-4", "cn_name": "\u7f8e\u66ff\u8bfa\u9f99\u5e9a\u9178\u916f", "en_name": ["Methenolone enanthate", "Androst-1-en-3-one, 1-methyl-17-[(1-oxoheptyl)oxy]-, (5\u03b1,17\u03b2)-", "5\u03b1-Androst-1-en-3-one, 17\u03b2-hydroxy-1-methyl-, heptanoate", "(5\u03b1,17\u03b2)-1-Methyl-17-[(1-oxoheptyl)oxy]androst-1-en-3-one", "SH 601", "SQ 16374", "17\u03b2-Hydroxy-1-methyl-5\u03b1-androst-1-en-3-one 17\u03b2-enanthate", "17\u03b2-Hydroxy-1-methyl-5\u03b1-androst-1-en-3-one heptanoate", "Methenolone enanthate", "Primobolan Depot", "1-Methyl-\u03941-androsten-17\u03b2-ol-3-one enanthate", "1-Methyl-17\u03b2-hydroxy-5\u03b1-androst-1-en-3-one enanthate", "Metenolone enanthate", "NSC 64967", "Primonabol Depot", "Methenolone 17-enanthate"], "SMILES": "CC12C3C(C4C(C)(CC3)C(OC(CCCCCC)=O)CC4)CCC1CC(=O)C=C2C", "physical_data": {"Molecular Weight": "414.62", "Molecular Formula": "C27H42O3", "Melting Point": "70-70.5 \u00b0C"}}