{"cas_no": "303-26-4", "cn_name": "1-(4-\u6c2f\u4e8c\u82ef\u7532\u57fa)\u54cc\u55ea", "en_name": ["Norchlorcyclizine", "Piperazine, 1-[(4-chlorophenyl)phenylmethyl]-", "Piperazine, 1-(p-chloro-\u03b1-phenylbenzyl)-", "1-[(4-Chlorophenyl)phenylmethyl]piperazine", "Norchlorcyclizine", "N-(p-Chlorobenzhydryl)piperazine", "4-(4-Chlorobenzhydryl)piperazine", "1-(4-Chloro-\u03b1-phenylbenzyl)piperazine", "1-(\u03b1-Phenyl-4-chlorobenzyl)piperazine", "1-(4-Chlorobenzhydryl)piperazine", "N-(4-Chlorophenyl)phenylmethylpiperazine", "NSC 86164", "N-(4-Chlorobenzhydryl)piperazine", "(\u00b1)-1-(p-Chlorobenzhydryl)piperazine"], "SMILES": "C(C1=CC=C(Cl)C=C1)(C2=CC=CC=C2)N3CCNCC3", "physical_data": {"Molecular Weight": "286.80", "Molecular Formula": "C17H19ClN2", "Boiling Point": "175-180 \u00b0C @ Press: 1 Torr", "Melting Point": "63-65 \u00b0C"}}