{"cas_no": "303-45-7", "cn_name": "\u68c9\u7c7d\u915a", "en_name": ["Gossypol", "[2,2\u2032-Binaphthalene]-8,8\u2032-dicarboxaldehyde, 1,1\u2032,6,6\u2032,7,7\u2032-hexahydroxy-3,3\u2032-dimethyl-5,5\u2032-bis(1-methylethyl)-", "[2,2\u2032-Binaphthalene]-8,8\u2032-dicarboxaldehyde, 1,1\u2032,6,6\u2032,7,7\u2032-hexahydroxy-5,5\u2032-diisopropyl-3,3\u2032-dimethyl-", "1,1\u2032,6,6\u2032,7,7\u2032-Hexahydroxy-3,3\u2032-dimethyl-5,5\u2032-bis(1-methylethyl)[2,2\u2032-binaphthalene]-8,8\u2032-dicarboxaldehyde", "2,2\u2032-Bis[8-formyl-1,6,7-trihydroxy-5-isopropyl-3-methylnaphthyl]", "2,2\u2032-Bis[1,6,7-trihydroxy-3-methyl-5-isopropyl-8-aldehydonaphthyl]", "Gossypol", "1,1\u2032,6,6\u2032,7,7\u2032-Hexahydroxy-5,5\u2032-diisopropyl-3,3\u2032-dimethyl-2,2\u2032-binaphthalene-8,8\u2032-dicarboxaldehyde", "1,1\u2032,6,6\u2032,7,7\u2032-Hexahydroxy-3,3\u2032-dimethyl-5,5\u2032-diisopropyl-2,2\u2032-binaphthyl-8,8\u2032-dialdehyde", "1,1\u2032,6,6\u2032,7,7\u2032-Hexahydroxy-3,3\u2032-dimethyl-5,5\u2032-diisopropyl[2,2\u2032-binaphthalene]-8,8\u2032-dicarboxaldehyde", "Tash 1", "(\u00b1)-Gossypol", "Pogosin", "No Fertil", "NSC 56817", "NSC 624336", "1,6,7,1\u2032,6\u2032,7\u2032-Hexahydroxy-5,5\u2032-diisopropyl-3,3\u2032-dimethyl-[2,2\u2032]binaphthalenyl-8,8\u2032-dicarboxaldehyde", "BL 193", "1,1\u2032,6,6\u2032,7,7\u2032-Hexahydroxy-5,5\u2032-diisopropyl-3,3\u2032-dimethyl-[2,2\u2032-binaphthalene]-8,8\u2032-dicarbaldehyde", "MeSH ID: D006072"], "SMILES": "C(C)(C)C=1C2=C(C(C=O)=C(O)C1O)C(O)=C(C(C)=C2)C3=C(O)C4=C(C=C3C)C(C(C)C)=C(O)C(O)=C4C=O", "physical_data": {"Molecular Weight": "518.55", "Molecular Formula": "C30H30O8", "Melting Point": "199 \u00b0C"}}