{"cas_no": "303-97-9", "cn_name": "\u8f85\u9176Q9", "en_name": ["Ubiquinone 9", "2,5-Cyclohexadiene-1,4-dione, 2,3-dimethoxy-5-methyl-6-[(2E,6E,10E,14E,18E,22E,26E,30E)-3,7,11,15,19,23,27,31,35-nonamethyl-2,6,10,14,18,22,26,30,34-hexatriacontanonaen-1-yl]-", "Coenzyme Q9", "p-Benzoquinone, 2,3-dimethoxy-5-methyl-6-(3,7,11,15,19,23,27,31,35-nonamethyl-2,6,10,14,18,22,26,30,34-hexatriacontanonaenyl)-", "2,5-Cyclohexadiene-1,4-dione, 2,3-dimethoxy-5-methyl-6-(3,7,11,15,19,23,27,31,35-nonamethyl-2,6,10,14,18,22,26,30,34-hexatriacontanonaenyl)-, (all-E)-", "2,5-Cyclohexadiene-1,4-dione, 2,3-dimethoxy-5-methyl-6-[(2E,6E,10E,14E,18E,22E,26E,30E)-3,7,11,15,19,23,27,31,35-nonamethyl-2,6,10,14,18,22,26,30,34-hexatriacontanonaenyl]-", "2,3-Dimethoxy-5-methyl-6-[(2E,6E,10E,14E,18E,22E,26E,30E)-3,7,11,15,19,23,27,31,35-nonamethyl-2,6,10,14,18,22,26,30,34-hexatriacontanonaen-1-yl]-2,5-cyclohexadiene-1,4-dione", "Ubiquinone Q9", "Ubiquinone 9", "Ubiquinone 45", "CoQ9", "NSC 226993"], "SMILES": "C(C=C(CCC=C(CCC=C(CCC=C(CCC=C(CCC=C(CCC=C(CCC=C(CCC=C(C)C)C)C)C)C)C)C)C)C)C=1C(=O)C(OC)=C(OC)C(=O)C1C", "physical_data": {"Molecular Weight": "795.23", "Molecular Formula": "C54H82O4", "Melting Point": "45 \u00b0C"}}