{"cas_no": "303-34-4", "cn_name": "\u6bdb\u679c\u5929\u82a5\u83dc\u78b1", "en_name": ["(-)-Lasiocarpine", "2-Butenoic acid, 2-methyl-, (1S,7aR)-7-[[(2R)-2,3-dihydroxy-2-[(1R)-1-methoxyethyl]-3-methyl-1-oxobutoxy]methyl]-2,3,5,7a-tetrahydro-1H-pyrrolizin-1-yl ester, (2Z)-", "Lasiocarpine", "2-Butenoic acid, 2-methyl-, 7-[[2,3-dihydroxy-2-(1-methoxyethyl)-3-methyl-1-oxobutoxy]methyl]-2,3,5,7a-tetrahydro-1H-pyrrolizin-1-yl ester, [1S-[1\u03b1(Z),7[S*(R*)],7a\u03b1]]-", "7-Angelyleuropine", "Europine 7-angelate", "(-)-Lasiocarpine", "NSC 30625"], "SMILES": "C(OC(C(C(OC)C)(C(C)(C)O)O)=O)C=1C2N(CCC2OC(C(=CC)C)=O)CC1", "physical_data": {"Molecular Weight": "411.49", "Molecular Formula": "C21H33NO7", "Melting Point": "96.4-97 \u00b0C"}}