{"cas_no": "303-04-8", "cn_name": "\u516d\u6c1f-2\uff0c3-\u4e8c\u6c2f-2-\u4e01\u70ef", "en_name": ["2,3-Dichloro-1,1,1,4,4,4-hexafluoro-2-butene", "2-Butene, 2,3-dichloro-1,1,1,4,4,4-hexafluoro-", "2-Butene, 2,3-dichlorohexafluoro-", "2,3-Dichloro-1,1,1,4,4,4-hexafluoro-2-butene", "2,3-Dichlorohexafluoro-2-butene", "1,1,1,4,4,4-Hexafluoro-2,3-dichloro-2-butene", "CFC 1316", "CFC 1316mxx", "1,1,1,4,4,4-Hexafluoro-2,3-dichlorobutene", "R 1316"], "SMILES": "C(=C(C(F)(F)F)Cl)(C(F)(F)F)Cl", "physical_data": {"Molecular Weight": "232.94", "Molecular Formula": "C4Cl2F6", "Boiling Point": "68.5 \u00b0C", "Melting Point": "-67.3 \u00b0C"}}