{"cas_no": "303-38-8", "cn_name": "2,3-\u4e8c\u7f9f\u57fa\u82ef\u7532\u9178", "en_name": ["2,3-Dihydroxybenzoic acid", "Benzoic acid, 2,3-dihydroxy-", "o-Pyrocatechuic acid", "2,3-Dihydroxybenzoic acid", "Catecholcarboxylic acid", "3-Hydroxysalicylic acid", "Pyrocatechuic acid", "NSC 27435", "1,2-Dihydroxybenzene-3-carboxylic acid", "Hypogallic acid"], "SMILES": "C(O)(=O)C1=C(O)C(O)=CC=C1", "physical_data": {"Molecular Weight": "154.12", "Molecular Formula": "C7H6O4", "Melting Point": "204 \u00b0C"}}