{"cas_no": "303-33-3", "cn_name": "\u5929\u82a5\u83dc\u78b1", "en_name": ["(+)-Heliotrine", "Butanoic acid, 2-hydroxy-2-[(1R)-1-methoxyethyl]-3-methyl-, [(1S,7aR)-2,3,5,7a-tetrahydro-1-hydroxy-1H-pyrrolizin-7-yl]methyl ester, (2S)-", "Heliotrine", "Butanoic acid, 2-hydroxy-2-(1-methoxyethyl)-3-methyl-, (2,3,5,7a-tetrahydro-1-hydroxy-1H-pyrrolizin-7-yl)methyl ester, [1S-[1\u03b1,7[R*(S*)],7a\u03b1]]-", "(+)-Heliotrine", "7S-Heliotrine"], "SMILES": "C(OC(C(C(OC)C)(C(C)C)O)=O)C=1C2N(CC1)CCC2O", "physical_data": {"Molecular Weight": "313.39", "Molecular Formula": "C16H27NO5", "Melting Point": "125-126 \u00b0C"}}