{"cas_no": "303-49-1", "cn_name": "\u6c2f\u7c73\u5e15\u660e", "en_name": ["Clomipramine", "5H-Dibenz[b,f]azepine-5-propanamine, 3-chloro-10,11-dihydro-N,N-dimethyl-", "5H-Dibenz[b,f]azepine, 3-chloro-5-[3-(dimethylamino)propyl]-10,11-dihydro-", "3-Chloro-10,11-dihydro-N,N-dimethyl-5H-dibenz[b,f]azepine-5-propanamine", "Chlorimipramine", "3-Chloro-5-[3-(dimethylamino)propyl]-10,11-dihydro-5H-dibenz[b,f]azepine", "Clomipramine", "G 34586", "NSC 169865", "Anapramine", "Clomicalm", "MeSH ID: D002997"], "SMILES": "C(CCN(C)C)N1C=2C(CCC=3C1=CC=CC3)=CC=C(Cl)C2", "physical_data": {"Molecular Weight": "314.85", "Molecular Formula": "C19H23ClN2", "Boiling Point": "160-170 \u00b0C", "Melting Point": "189.5 \u00b0C"}}