{"cas_no": "303-25-3", "cn_name": "\u76d0\u9178\u82ef\u7532\u55ea", "en_name": ["Cyclizine hydrochloride", "Piperazine, 1-(diphenylmethyl)-4-methyl-, hydrochloride (1:1)", "Piperazine, 1-(diphenylmethyl)-4-methyl-, monohydrochloride", "N-Benzhydryl-N\u2032-methylpiperazine monohydrochloride", "Cyclizine hydrochloride", "Marezine hydrochloride", "Marzine", "1-Benzhydryl-4-methylpiperazine hydrochloride"], "SMILES": "C(N1CCN(C)CC1)(C2=CC=CC=C2)C3=CC=CC=C3.Cl", "physical_data": {"Molecular Weight": "", "Molecular Formula": "C18H22N2.ClH", "Melting Point": "258-260 \u00b0C"}}