{"cas_no": "303-98-0", "cn_name": "\u8f85\u9176 Q10", "en_name": ["Coenzyme Q10", "2,5-Cyclohexadiene-1,4-dione, 2-[(2E,6E,10E,14E,18E,22E,26E,30E,34E)-3,7,11,15,19,23,27,31,35,39-decamethyl-2,6,10,14,18,22,26,30,34,38-tetracontadecaen-1-yl]-5,6-dimethoxy-3-methyl-", "Coenzyme Q10", "2,5-Cyclohexadiene-1,4-dione, 2-(3,7,11,15,19,23,27,31,35,39-decamethyl-2,6,10,14,18,22,26,30,34,38-tetracontadecaenyl)-5,6-dimethoxy-3-methyl-, (all-E)-", "p-Benzoquinone, 2-(3,7,11,15,19,23,27,31,35,39-decamethyl-2,6,10,14,18,22,26,30,34,38-tetracontadecaenyl)-5,6-dimethoxy-3-methyl-", "2,5-Cyclohexadiene-1,4-dione, 2-[(2E,6E,10E,14E,18E,22E,26E,30E,34E)-3,7,11,15,19,23,27,31,35,39-decamethyl-2,6,10,14,18,22,26,30,34,38-tetracontadecaenyl]-5,6-dimethoxy-3-methyl-", "2-[(2E,6E,10E,14E,18E,22E,26E,30E,34E)-3,7,11,15,19,23,27,31,35,39-Decamethyl-2,6,10,14,18,22,26,30,34,38-tetracontadecaen-1-yl]-5,6-dimethoxy-3-methyl-2,5-cyclohexadiene-1,4-dione", "Ubiquinone 50", "CoQ10", "Ubidecarenone", "Ubiquinone 10", "Ubiquinone Q10", "Neuquinon", "Neuquinone", "Bio-Quinon", "Ensorb", "Bio-Quinone Q10", "NSC 140865", "(all-E)-2-(3,7,11,15,19,23,27,31,35,39-Decamethyl-2,6,10,14,18,22,26,30,34,38-tetracontadecaenyl)-5,6-dimethoxy-3-methyl-2,5-cyclohexadiene-1,4-dione", "Kudesan", "Q-Gel 100", "Q 10AA", "Unispheres Q 10", "Kaneka Q10", "Aqua Q 10L10", "Aqua Q10", "Q-Gel", "Liquid-Q", "Li-Q-Sorb", "PureSorb Q 40", "Vitamin Q", "Cosmesome Q 10", "Q-absorb", "Cudesan", "Adelir", "Aqua-Q 10P40", "Coenzyme Qter", "Q-ter", "BPM 31510", "API 31510"], "SMILES": "C(C=C(CCC=C(CCC=C(CCC=C(CCC=C(CCC=C(CCC=C(CCC=C(CCC=C(CCC=C(C)C)C)C)C)C)C)C)C)C)C)C=1C(=O)C(OC)=C(OC)C(=O)C1C", "physical_data": {"Molecular Weight": "863.34", "Molecular Formula": "C59H90O4", "Melting Point": "48-50 \u00b0C"}}