{"cas_no": "303-81-1", "cn_name": "\u65b0\u751f\u9709\u7d20", "en_name": ["Novobiocin", "Benzamide, N-[7-[[3-O-(aminocarbonyl)-6-deoxy-5-C-methyl-4-O-methyl-\u03b1-L-lyxo-hexopyranosyl]oxy]-4-hydroxy-8-methyl-2-oxo-2H-1-benzopyran-3-yl]-4-hydroxy-3-(3-methyl-2-buten-1-yl)-", "Novobiocin", "Benzamide, N-[7-[[3-O-(aminocarbonyl)-6-deoxy-5-C-methyl-4-O-methyl-\u03b1-L-lyxo-hexopyranosyl]oxy]-4-hydroxy-8-methyl-2-oxo-2H-1-benzopyran-3-yl]-4-hydroxy-3-(3-methyl-2-butenyl)-", "Coumarin, 7-[4-(carbamoyloxy)tetrahydro-3-hydroxy-5-methoxy-6,6-dimethylpyran-2-yloxy]-4-hydroxy-3-[4-hydroxy-3-(3-methyl-2-butenyl)benzamido]-8-methyl-", "N-[7-[[3-O-(Aminocarbonyl)-6-deoxy-5-C-methyl-4-O-methyl-\u03b1-L-lyxo-hexopyranosyl]oxy]-4-hydroxy-8-methyl-2-oxo-2H-1-benzopyran-3-yl]-4-hydroxy-3-(3-methyl-2-buten-1-yl)benzamide", "PA 93", "Antibiotic PA-93", "Cathocin", "Crystallinic acid", "Novo-R", "Streptonivicin", "Cathomycin", "Albamix", "Inamycin", "Albamycin", "Robiocina", "Sirbiocina", "Spheromycin", "Stilbiocina", "Cardelmycin", "U 6391", "MeSH ID: D009675"], "SMILES": "CC1=C2C(C(O)=C(NC(=O)C3=CC(CC=C(C)C)=C(O)C=C3)C(=O)O2)=CC=C1OC4C(O)C(OC(N)=O)C(OC)C(C)(C)O4", "physical_data": {"Molecular Weight": "612.62", "Molecular Formula": "C31H36N2O11", "Melting Point": "152-154 \u00b0C"}}