{"cas_no": "3030-06-6", "cn_name": "1-\u4e59\u9170\u57fa-5-\u6eb4-4-\u6c2f\u5432\u54da-3-\u4e59\u9178\u916f", "en_name": ["1-Acetyl-5-bromo-4-chloro-1H-indol-3-yl acetate", "Ethanone, 1-[3-(acetyloxy)-5-bromo-4-chloro-1H-indol-1-yl]-", "Indol-3-ol, 1-acetyl-5-bromo-4-chloro-, acetate (ester)", "1H-Indol-3-ol, 1-acetyl-5-bromo-4-chloro-, acetate (ester)", "Indol-3-ol, 1-acetyl-5-bromo-4-chloro-, acetate", "Indoxyl, 1-acetyl-5-bromo-4-chloro-, acetate", "1-[3-(Acetyloxy)-5-bromo-4-chloro-1H-indol-1-yl]ethanone", "1-Acetyl-5-bromo-4-chloro-1H-indol-3-yl acetate", "(1-Acetyl-5-bromo-4-chloroindol-3-yl) acetate", "3-Acetoxy-1-acetyl-5-bromo-4-chloroindole"], "SMILES": "O(C(C)=O)C=1C=2C(N(C(C)=O)C1)=CC=C(Br)C2Cl", "physical_data": {"Molecular Weight": "330.56", "Molecular Formula": "C12H9BrClNO3", "Melting Point": "161-162 \u00b0C"}}