{"cas_no": "3030-47-5", "cn_name": "\u4e94\u7532\u57fa\u4e8c\u4e59\u70ef\u4e09\u80fa", "en_name": ["Pentamethyldiethylenetriamine", "1,2-Ethanediamine, N1-[2-(dimethylamino)ethyl]-N1,N2,N2-trimethyl-", "Diethylenetriamine, 1,1,4,7,7-pentamethyl-", "1,2-Ethanediamine, N-[2-(dimethylamino)ethyl]-N,N\u2032,N\u2032-trimethyl-", "N1-[2-(Dimethylamino)ethyl]-N1,N2,N2-trimethyl-1,2-ethanediamine", "Pentamethyldiethylenetriamine", "N,N,N\u2032,N\u2032\u2032,N\u2032\u2032-Pentamethyldiethylenetriamine", "PMDT", "1,1,4,7,7-Pentamethyldiethylenetriamine", "N,N,N\u2032,N\u2032,N\u2032\u2032-Pentamethylbis(2-aminoethyl)amine", "PMDTA", "PMDETA", "Bis[2-(dimethylamino)ethyl]methylamine", "N,N-Bis[2-(dimethylamino)ethyl]methylamine", "2,5,8-Trimethyl-2,5,8-triazanonane", "Toyocat DT", "Polycat 5", "N,N,N\u2032,N\u2032\u2032,N\u2032\u2032-Pentamethyl-3-azapentane-1,5-diamine", "Kaolizer 3", "1,1,4,7,7-Pentamethyl-1,4,7-triazaheptane", "PC CAT PMDETA", "Desmorapid PV", "N,N,N\u2032,N\u2032\u2032,N\u2032\u2032-Pentamethyldiethylenetriamine", "N,N,N\u2032,N\u2032\u2032,N\u2032\u2032-Pentamethylbis(2-aminoethyl)amine", "N-[2-(Dimethylamino)ethyl]-N,N\u2032,N\u2032-trimethyl-1,2-ethanediamine", "Dabco PMDETA", "NSC 65659", "N-Methyl-N,N-bis(2-dimethylaminoethyl)amine", "PC 5", "Lupragen N 301", "N 301", "Jeffcat PMDETA", "Niax C 5", "Kao 3", "N,N-Bis(2-dimethylaminoethyl)methanamine", "Niax Catalyst C 5", "Tegoamin PMDETA", "KL 3", "DY 5", "AM 1", "(2-[[2-(Dimethylamino)ethyl](methyl)amino]ethyl)dimethylamine", "N1,N1,N3,N5,N5-Pentamethyl-3-azapentane-1,5-diamine", "Wanamine PMDETA"], "SMILES": "N(CCN(C)C)(CCN(C)C)C", "physical_data": {"Molecular Weight": "173.30", "Molecular Formula": "C9H23N3", "Boiling Point": "85-86 \u00b0C @ Press: 12 Torr", "Melting Point": "162-163 \u00b0C"}}