{"cas_no": "30319-05-2", "cn_name": "3-\u6eb4-2-\u7532\u57fa\u567b\u5429", "en_name": ["3-Bromo-2-methylthiophene", "Thiophene, 3-bromo-2-methyl-", "3-Bromo-2-methylthiophene", "NSC 69783", "2-Methyl-3-bromothiophene"], "SMILES": "BrC1=C(C)SC=C1", "physical_data": {"Molecular Weight": "177.06", "Molecular Formula": "C5H5BrS", "Boiling Point": "173-179 \u00b0C @ Press: 760 Torr"}}