{"cas_no": "303149-14-6", "cn_name": "1-PHENYL-3-[[3-(TRIFLUOROMETHYL)PHENYL]IMINO]-1H-INDOL-2-ONE", "en_name": ["1-Phenyl-3-[[3-(trifluoromethyl)phenyl]imino]-1,3-dihydro-2H-indol-2-one", "2H-Indol-2-one, 1,3-dihydro-1-phenyl-3-[[3-(trifluoromethyl)phenyl]imino]-", "1,3-Dihydro-1-phenyl-3-[[3-(trifluoromethyl)phenyl]imino]-2H-indol-2-one", "SNAP 37889", "1-Phenyl-3-[[3-(trifluoromethyl)phenyl]imino]-1,3-dihydro-2H-indol-2-one", "HT 2157"], "SMILES": "O=C1N(C=2C(C1=NC3=CC(C(F)(F)F)=CC=C3)=CC=CC2)C4=CC=CC=C4", "physical_data": {"Molecular Weight": "366.34", "Molecular Formula": "C21H13F3N2O", "Melting Point": "141-144 \u00b0C"}}