{"cas_no": "303121-11-1", "cn_name": "4-\u7f9f\u57fa-6-\u4e59\u6c27\u57fa\u55b9\u5549", "en_name": ["6-Ethoxy-4-quinolinol", "4-Quinolinol, 6-ethoxy-", "6-Ethoxy-4-quinolinol", "6-Ethoxyquinolin-4-ol"], "SMILES": "OC=1C2=C(C=CC(OCC)=C2)N=CC1", "physical_data": {"Molecular Weight": "189.21", "Molecular Formula": "C11H11NO2", "Melting Point": "263-264 \u00b0C"}}