{"cas_no": "303186-20-1", "cn_name": "\u6ca1\u67e5\u5230", "en_name": ["4-[Difluoro(3,4,5-trifluorophenoxy)methyl]-3,5-difluoro-4\u2032-propyl-1,1\u2032-biphenyl", "1,1\u2032-Biphenyl, 4-[difluoro(3,4,5-trifluorophenoxy)methyl]-3,5-difluoro-4\u2032-propyl-", "4-[Difluoro(3,4,5-trifluorophenoxy)methyl]-3,5-difluoro-4\u2032-propyl-1,1\u2032-biphenyl", "PUQU 3F", "PGQU 3F", "3,5-Difluoro-4\u2032-propyl-4-((3,4,5-trifluorophenoxy)difluoromethyl)biphenyl", "3-BB(F,F)XB(F,F)-F", "2-[Difluoro-(3,4,5-trifluorophenoxy)methyl]-1,3-difluoro-5-(4-propylphenyl)benzene"], "SMILES": "FC=1C=C(C=C(F)C1C(OC2=CC(F)=C(F)C(F)=C2)(F)F)C3=CC=C(CCC)C=C3", "physical_data": {"Molecular Weight": "428.34", "Molecular Formula": "C22H15F7O", "Melting Point": "42.511 \u00b0C"}}