{"cas_no": "30315-46-9", "cn_name": "S-(-)-3-\u53d4\u4e01\u80fa\u57fa-1,2-\u4e19\u4e8c\u9187", "en_name": ["(2S)-3-[(1,1-Dimethylethyl)amino]-1,2-propanediol", "1,2-Propanediol, 3-[(1,1-dimethylethyl)amino]-, (2S)-", "1,2-Propanediol, 3-(tert-butylamino)-, (S)-(-)-", "1,2-Propanediol, 3-[(1,1-dimethylethyl)amino]-, (S)-", "(2S)-3-[(1,1-Dimethylethyl)amino]-1,2-propanediol", "(S)-3-(tert-Butylamino)-1,2-propanediol", "(S)-1-tert-Butylamino-2,3-propanediol", "(2S)-3-(tert-Butylamino)propane-1,2-diol"], "SMILES": "C(C(CO)O)NC(C)(C)C", "physical_data": {"Molecular Weight": "147.22", "Molecular Formula": "C7H17NO2", "Melting Point": "83.5-85.0 \u00b0C"}}