{"cas_no": "3031-98-9", "cn_name": "2-\u6c27\u4ee3-L-\u53e4\u6d1b\u7cd6\u9178\u7532\u916f", "en_name": ["Methyl L-xylo-2-hexulosonate", "L-xylo-2-Hexulosonic acid, methyl ester", "L-xylo-Hexulosonic acid, methyl ester", "Gulonic acid, 2-keto-, methyl ester, L-", "Methyl L-xylo-2-hexulosonate", "Methyl L-xylo-hexulosonate", "2-keto-L-Gulonic acid methyl ester", "NSC 163924", "Methyl 2-keto-L-gulonate"], "SMILES": "C(C(C(CO)O)O)(C(C(OC)=O)=O)O", "physical_data": {"Molecular Weight": "208.17", "Molecular Formula": "C7H12O7", "Melting Point": "153-155 \u00b0C"}}