{"cas_no": "30318-99-1", "cn_name": "3-\u6eb4-4-\u7532\u57fa\u567b\u5429", "en_name": ["3-Bromo-4-methylthiophene", "Thiophene, 3-bromo-4-methyl-", "3-Bromo-4-methylthiophene", "3-Methyl-4-bromothiophene"], "SMILES": "BrC=1C(C)=CSC1", "physical_data": {"Molecular Weight": "177.06", "Molecular Formula": "C5H5BrS", "Boiling Point": "180-182 \u00b0C"}}