{"cas_no": "3031-68-3", "cn_name": "2,4-\u5df1\u4e8c\u7094-1,6-\u4e8c\u9187", "en_name": ["2,4-Hexadiyne-1,6-diol", "2,4-Hexadiyne-1,6-diol", "2,4-Hexadiynediol", "Diacetylene glycol", "1,6-Dihydroxy-2,4-hexadiyne", "NSC 11686", "Carbow 2257", "Carbon rainbow 2257"], "SMILES": "C(C#CCO)#CCO", "physical_data": {"Molecular Weight": "110.11", "Molecular Formula": "C6H6O2", "Melting Point": "112 \u00b0C"}}