{"cas_no": "3031-94-5", "cn_name": "5-\u6c28\u57fa\u54aa\u5511-4-\u7532\u9170\u80fa-1-\u0392-D-\u544b\u5583\u6838\u7cd6\u82f75-\u4e00\u78f7\u9178\u76d0", "en_name": ["AICA Ribotide", "1H-Imidazole-4-carboxamide, 5-amino-1-(5-O-phosphono-\u03b2-D-ribofuranosyl)-", "Imidazole-4-carboxamide, 5-amino-1-\u03b2-D-ribofuranosyl-, 5\u2032-(dihydrogen phosphate)", "Imidazole-4-carboxamide, 5-amino-1-\u03b2-D-ribofuranosyl-, 5\u2032-phosphate", "5-Amino-1-(5-O-phosphono-\u03b2-D-ribofuranosyl)-1H-imidazole-4-carboxamide", "AICAR", "5-Amino-1-(5\u2032-phosphofuranoribosyl)-4-imidazolecarboxamide", "5-Amino-1\u03b2-D-ribofuranosylimidazole-4-carboxamide 5\u2032-phosphate", "5\u2032-Phospho-\u03b2-D-ribosyl-5-amino-4-imidazolecarboxamide", "5-Amino-4-imidazolecarboxamide ribotide", "5-Amino-4-imidazolecarboxamide ribonucleoside 5\u2032-monophosphate", "5\u2032-Phosphoribosyl-5-amino-4-imidazolecarboxamide", "5-Amino-4-imidazolecarboxamide ribonucleotide", "ZMP", "Aminoimidazolecarboxamide ribonucleotide", "AICA-Ribonucleotide", "AICA Ribotide", "5-Amino-4-imidazolecarboxamide riboside 5\u2032-monophosphate", "Acadesine 5\u2032-monophosphate", "NSC 283955", "NSC 292227", "(2R,3 S,4R,5R)-5-(4-Carbam0yl-5-aminoimidazol-1-yl)-3,4-dihydroxyoxolan-2-yljmethyl dihydrogen phosphate", "5-Aminoimidazole-4-carboxamide ribonucleotide", "5-Aminoimidazole-4-carboxamide-1-beta-D-ribofuranosyl 5\u2032-monophosphate", "AICAR (5-Aminoimidazole-4-carboxamide-1-\u03b2-D-ribofuranosyl 5\u2032-monophosphate)", "ZMP (alarmone)"], "SMILES": "NC=1N(C=NC1C(N)=O)C2OC(COP(=O)(O)O)C(O)C2O", "physical_data": {"Molecular Weight": "338.21", "Molecular Formula": "C9H15N4O8P", "Melting Point": "198-202 \u00b0C (decomp)"}}