{"cas_no": "3031-66-1", "cn_name": "3-\u5df1\u7094-2,5-\u4e8c\u9187", "en_name": ["3-Hexyne-2,5-diol", "3-Hexyne-2,5-diol", "NSC 409184"], "SMILES": "C(#CC(C)O)C(C)O", "physical_data": {"Molecular Weight": "114.14", "Molecular Formula": "C6H10O2", "Boiling Point": "122 \u00b0C @ Press: 15 Torr", "Melting Point": "69-70 \u00b0C", "Density": "1.0205 g/cm\u00b3 @ Temp: 13 \u00b0C"}}