{"cas_no": "3032-81-3", "cn_name": "3,5-\u4e8c\u6c2f\u7898\u82ef", "en_name": ["1,3-Dichloro-5-iodobenzene", "Benzene, 1,3-dichloro-5-iodo-", "1,3-Dichloro-5-iodobenzene", "3,5-Dichlorophenyl iodide", "3,5-Dichloroiodobenzene", "1-Iodo-3,5-dichlorobenzene", "NSC 80149", "3,5-Dichloro-1-iodobenzene"], "SMILES": "ClC1=CC(Cl)=CC(I)=C1", "physical_data": {"Molecular Weight": "272.90", "Molecular Formula": "C6H3Cl2I", "Melting Point": "54 \u00b0C"}}