{"cas_no": "3033-62-3", "cn_name": "\u53cc\u4e8c\u7532\u80fa\u57fa\u4e59\u57fa\u919a", "en_name": ["Bis(dimethylaminoethyl) ether", "Ethanamine, 2,2\u2032-oxybis[N,N-dimethyl-", "Ethylamine, 2,2\u2032-oxybis[N,N-dimethyl-", "2,2\u2032-Oxybis[N,N-dimethylethanamine]", "A 99 (amine)", "2,2\u2032-Oxybis[N,N-dimethylethylamine]", "A 99", "Niax A 1", "Kalpur PC", "Bis[2-(dimethylamino)ethyl] ether", "Bis(dimethylaminoethyl) ether", "Niax A 99", "Toyocat ETS", "Dabco BL 19I", "Dabco BL 19", "Toyocat ET", "Dabco BL 11", "Texacat ZF 20", "N,N,N\u2032,N\u2032-Tetramethyl-3-oxapentane-1,5-diamine", "1,5-Bis(dimethylamino)-3-oxapentane", "Texacat ZF 22", "A 133", "Minico TMDA", "Kaolizer 12P", "BL 19", "Jeffcat ZM 20", "Kaolizer 12", "PC CAT NP 99", "NP 99", "PC CAT NP 133", "Jeffcat ZF 20", "ZF 20", "PC CAT NP 90", "NSC 109887", "N,N,N\u2032,N\u2032-Tetramethyl-2,2\u2032-oxybis[ethylamine]", "Toyocat ET 33B", "ET 33B", "N,N,N\u2032,N\u2032-Tetramethylbisaminoethyl ether", "A 1", "BL 11", "Niax Catalyst A 1", "DY 1", "Tetramethyl bis(aminoethyl) ether", "Addocat 108", "Jeffcat Z 20", "NT CAT A 1", "BDMAEE", "Lupragen N 205", "Lupragen 205", "2-[2-(Dimethylamino)ethoxy]-N,N-dimethylethanamine", "2-(2-Dimethylaminoethoxy)-N,N-dimethyl-ethanamine", "Polycat BL 17", "ETS", "ETS (catalyst)", "Tegoamin A 1", "DA 1", "Dabco MP 604"], "SMILES": "C(CN(C)C)OCCN(C)C", "physical_data": {"Molecular Weight": "160.26", "Molecular Formula": "C8H20N2O", "Boiling Point": "70 \u00b0C @ Press: 11 Torr", "Density": "0.8496 g/cm\u00b3 @ Temp: 20 \u00b0C"}}