{"cas_no": "30334-69-1", "cn_name": "\u5168\u6c1f\u4e01\u57fa\u78fa\u9170\u80fa", "en_name": ["Perfluorobutanesulfonamide", "1-Butanesulfonamide, 1,1,2,2,3,3,4,4,4-nonafluoro-", "1,1,2,2,3,3,4,4,4-Nonafluoro-1-butanesulfonamide", "Perfluorobutanesulfonamide", "Nonafluorobutanesulfonamide", "n-Nonafluorobutanesulfonamide", "1,1,2,2,3,3,4,4,4-Nonafluoro-n-butanesulfonamide"], "SMILES": "C(C(C(F)(F)F)(F)F)(C(S(N)(=O)=O)(F)F)(F)F", "physical_data": {"Molecular Weight": "299.11", "Molecular Formula": "C4H2F9NO2S", "Melting Point": "67.5 \u00b0C"}}