{"cas_no": "30334-71-5", "cn_name": "1,2-\u53cc\u68d5\u6988\u9178\u7518\u6cb9\u916f", "en_name": ["1,2-Dipalmitoyl-sn-glycerol", "Hexadecanoic acid, 1,1\u2032-[(1S)-1-(hydroxymethyl)-1,2-ethanediyl] ester", "Hexadecanoic acid, 1-(hydroxymethyl)-1,2-ethanediyl ester, (S)-", "Palmitin, 1,2-di-, L-", "Palmitin, L-1,2-di-", "Hexadecanoic acid, (1S)-1-(hydroxymethyl)-1,2-ethanediyl ester", "1,2-Dipalmitoyl-sn-glycerol", "1,2-Di-O-palmitoyl-sn-glycerol", "(S)-(-)-1,2-Dipalmitin", "L-1,2-Dipalmitin", "sn-1,2-Dipalmitin", "NSC 269964", "(S)-1-(Hydroxymethyl)ethane-1,2-diyl dipalmitate", "1,2-Dihexadecanoyl-sn-glycerol", "[(2S)-2-Hexadecanoyloxy-3-hydroxypropyl] hexadecanoate", "1,2-Dipalmitoyl-sn-glycerol"], "SMILES": "C(OC(CCCCCCCCCCCCCCC)=O)(COC(CCCCCCCCCCCCCCC)=O)CO", "physical_data": {"Molecular Weight": "568.91", "Molecular Formula": "C35H68O5", "Melting Point": "64-65 \u00b0C"}}