{"cas_no": "3033-77-0", "cn_name": "2,3-\u73af\u6c27\u4e19\u57fa\u4e09\u7532\u57fa\u6c2f\u5316\u94f5", "en_name": ["Glycidyltrimethylammonium chloride", "2-Oxiranemethanaminium, N,N,N-trimethyl-, chloride (1:1)", "Ammonium, (2,3-epoxypropyl)trimethyl-, chloride", "Oxiranemethanaminium, N,N,N-trimethyl-, chloride", "(2,3-Epoxypropyl)trimethylammonium chloride", "Glycidyltrimethylammonium chloride", "1-(Trimethylammonio)-2,3-epoxypropane chloride", "(\u03b2,\u03b3-Epoxypropyl)trimethylammonium chloride", "Trimethylglycidylammonium chloride", "N-Glycidyl-N,N,N-trimethylammonium chloride", "Glytac A 100", "1,2-Epoxy-3-(trimethylammonio)propyl chloride", "Glytac", "G-MAC", "Glytac A", "N-Glycidyltrimethylammonium chloride", "Catiomaster G", "QUAB 151", "Wildye PTC", "[(Trimethylammonio)methyl]oxirane chloride", "Weisstex E 100", "SY-GTA 80", "ETA (onium compound)", "ETA", "NSC 51213", "Raisacat 151", "Fluka 50053"], "SMILES": "C([N+](C)(C)C)C1CO1.[Cl-]", "physical_data": {"Molecular Weight": "", "Molecular Formula": "C6H14NO.Cl", "Melting Point": "137-139 \u00b0C"}}