{"cas_no": "30345-49-4", "cn_name": "\u56db\u4e01\u57fa\u78f7\u7fc1\u4e59\u9178\u76d0", "en_name": ["Tetrabutylphosphonium acetate", "Phosphonium, tetrabutyl-, acetate (1:1)", "Phosphonium, tetrabutyl-, acetate", "Tetrabutylphosphonium acetate", "Cyphos 441"], "SMILES": "C(C)([O-])=O.[P+](CCCC)(CCCC)(CCCC)CCCC", "physical_data": {"Molecular Weight": "", "Molecular Formula": "C16H36P.C2H3O2", "Melting Point": "46 \u00b0C"}}