{"cas_no": "3034-48-8", "cn_name": "2-\u6eb4-5-\u785d\u57fa\u567b\u5511", "en_name": ["2-Bromo-5-nitrothiazole", "Thiazole, 2-bromo-5-nitro-", "2-Bromo-5-nitrothiazole", "5-Nitro-2-bromothiazole", "2-Bromo-5-nitro-1,3-thiazole", "NSC 91531"], "SMILES": "N(=O)(=O)C=1SC(Br)=NC1", "physical_data": {"Molecular Weight": "209.02", "Molecular Formula": "C3HBrN2O2S", "Melting Point": "91 \u00b0C"}}