{"cas_no": "3034-52-4", "cn_name": "2-\u6c2f\u567b\u5511", "en_name": ["2-Chlorothiazole", "Thiazole, 2-chloro-", "2-Chlorothiazole", "2-Chloro-1,3-thiazole", "NSC 43543"], "SMILES": "ClC1=NC=CS1", "physical_data": {"Molecular Weight": "119.57", "Molecular Formula": "C3H2ClNS", "Boiling Point": "34.0-34.5 \u00b0C @ Press: 10 Torr", "Melting Point": "85 \u00b0C", "Density": "1.3782 g/cm\u00b3 @ Temp: 20 \u00b0C"}}