{"cas_no": "3034-57-9", "cn_name": "2-\u6c28\u57fa-5-\u6eb4-4-\u7532\u57fa\u567b\u5511", "en_name": ["5-Bromo-4-methyl-2-thiazolamine", "2-Thiazolamine, 5-bromo-4-methyl-", "Thiazole, 2-amino-5-bromo-4-methyl-", "5-Bromo-4-methyl-2-thiazolamine", "2-Amino-5-bromo-4-methylthiazole", "2-Amino-4-methyl-5-bromothiazole", "(5-Bromo-4-methylthiazol-2-yl)amine", "5-Bromo-4-methylthiazol-2-amine"], "SMILES": "CC1=C(Br)SC(N)=N1", "physical_data": {"Molecular Weight": "193.06", "Molecular Formula": "C4H5BrN2S", "Melting Point": "105-108.5 \u00b0C (decomp)"}}