{"cas_no": "3034-34-2", "cn_name": "4-\u6c30\u57fa\u82ef\u7532\u9170\u80fa", "en_name": ["4-Cyanobenzamide", "Benzamide, 4-cyano-", "Benzamide, p-cyano-", "4-Cyanobenzamide", "p-Cyanobenzamide", "4-Carbamoylbenzonitrile"], "SMILES": "C(N)(=O)C1=CC=C(C#N)C=C1", "physical_data": {"Molecular Weight": "146.15", "Molecular Formula": "C8H6N2O", "Melting Point": "224 \u00b0C"}}