{"cas_no": "3034-31-9", "cn_name": "\u5f02\u70df\u9170\u82ef\u80fa", "en_name": ["Isonicotinanilide", "4-Pyridinecarboxamide, N-phenyl-", "Isonicotinanilide", "N-Phenyl-4-pyridinecarboxamide", "Ba 35630", "Isonicotinic acid anilide", "4-(N-Phenylcarbamoyl)pyridine", "4-(Phenylcarbamoyl)pyridine", "Pyridine-4-carboxylic acid phenylamide", "NSC 4266", "N-Phenylisonicotinic amide", "N-Phenylisonicotinamide"], "SMILES": "C(NC1=CC=CC=C1)(=O)C=2C=CN=CC2", "physical_data": {"Molecular Weight": "198.22", "Molecular Formula": "C12H10N2O", "Melting Point": "170-172 \u00b0C"}}