{"cas_no": "3034-50-2", "cn_name": "4-\u54aa\u5511\u7532\u919b", "en_name": ["Imidazole-4-carboxaldehyde", "1H-Imidazole-5-carboxaldehyde", "Imidazole-4-carboxaldehyde", "1H-Imidazole-4-carboxaldehyde", "Imidazole-4(or 5)-carboxaldehyde", "4-Formylimidazole", "4(5)-Imidazolecarboxaldehyde", "1H-Imidazol-4-ylcarboxaldehyde", "3H-Imidazole-4-carboxaldehyde", "5-Imidazolecarboxaldehyde", "NSC 400521", "1H-Imidazol-4-carboxaldehyde", "1H-Imidazole-4-carboxaldehyde", "1H-Imidazol-5-carboxaldehyde", "1H-Imidazole-5-carbaldehyde", "1H-Imidazole-4-carbaldehyde"], "SMILES": "C(=O)C1=CN=CN1", "physical_data": {"Molecular Weight": "96.09", "Molecular Formula": "C4H4N2O", "Melting Point": "173-174 \u00b0C"}}