{"cas_no": "3034-38-6", "cn_name": "4-\u785d\u57fa\u54aa\u5511", "en_name": ["5-Nitroimidazole", "1H-Imidazole, 5-nitro-", "Imidazole, 4-nitro-", "1H-Imidazole, 4-nitro-", "Imidazole, 4(or 5)-nitro-", "5-Nitro-1H-imidazole", "4-Nitroimidazole", "5-Nitroimidazole", "4(5)-Nitroimidazole", "1H-5-Nitroimidazole", "1H-4-Nitroimidazole", "NSC 50359", "4-Nitro-1H-imidazole"], "SMILES": "N(=O)(=O)C1=CN=CN1", "physical_data": {"Molecular Weight": "113.07", "Molecular Formula": "C3H3N3O2", "Melting Point": "303 \u00b0C (decomp)"}}