{"cas_no": "3034-41-1", "cn_name": "1-\u7532\u57fa-4-\u785d\u57fa\u54aa\u5511", "en_name": ["1-Methyl-4-nitroimidazole", "1H-Imidazole, 1-methyl-4-nitro-", "Imidazole, 1-methyl-4-nitro-", "1-Methyl-4-nitro-1H-imidazole", "1-Methyl-4-nitroimidazole"], "SMILES": "N(=O)(=O)C1=CN(C)C=N1", "physical_data": {"Molecular Weight": "127.10", "Molecular Formula": "C4H5N3O2", "Melting Point": "133-140 \u00b0C"}}