{"cas_no": "3034-19-3", "cn_name": "2-\u785d\u57fa\u82ef\u80bc", "en_name": ["(2-Nitrophenyl)hydrazine", "Hydrazine, (2-nitrophenyl)-", "Hydrazine, (o-nitrophenyl)-", "(2-Nitrophenyl)hydrazine", "(o-Nitrophenyl)hydrazine", "o-(Hydrazino)nitrobenzene", "1-Hydrazino-2-nitrobenzene", "2-Hydrazino-1-nitrobenzene", "1-(2-Nitrophenyl)hydrazine"], "SMILES": "N(N)C1=C(N(=O)=O)C=CC=C1", "physical_data": {"Molecular Weight": "153.14", "Molecular Formula": "C6H7N3O2", "Melting Point": "90 \u00b0C"}}