{"cas_no": "3034-53-5", "cn_name": "2-\u6eb4\u567b\u5511", "en_name": ["2-Bromothiazole", "Thiazole, 2-bromo-", "2-Bromothiazole", "2-Bromo-1,3-thiazole", "NSC 91532"], "SMILES": "BrC1=NC=CS1", "physical_data": {"Molecular Weight": "164.02", "Molecular Formula": "C3H2BrNS", "Boiling Point": "171 \u00b0C", "Melting Point": "39.5 \u00b0C"}}