{"cas_no": "3034-22-8", "cn_name": "2-\u6c28\u57fa-5-\u6eb4\u567b\u5511", "en_name": ["2-Amino-5-bromothiazole", "2-Thiazolamine, 5-bromo-", "Thiazole, 2-amino-5-bromo-", "5-Bromo-2-thiazolamine", "2-Amino-5-bromothiazole", "5-Bromo-2-aminothiazole", "(5-Bromothiazol-2-yl)amine", "5-Bromothiazol-2-amine", "5-Bromo-1,3-thiazol-2-amine"], "SMILES": "BrC=1SC(N)=NC1", "physical_data": {"Molecular Weight": "179.04", "Molecular Formula": "C3H3BrN2S", "Melting Point": "94-95 \u00b0C"}}