{"cas_no": "3034-94-4", "cn_name": "1-\u4e59\u7094\u57fa-3-\u785d\u57fa\u82ef", "en_name": ["1-Ethynyl-3-nitrobenzene", "Benzene, 1-ethynyl-3-nitro-", "1-Ethynyl-3-nitrobenzene", "m-Nitrophenylacetylene", "(m-Nitrophenyl)ethyne", "3-Nitrophenylacetylene", "3-Nitroethynylbenzene"], "SMILES": "N(=O)(=O)C1=CC(C#C)=CC=C1", "physical_data": {"Molecular Weight": "147.13", "Molecular Formula": "C8H5NO2", "Boiling Point": "120 \u00b0C @ Press: 11 Torr", "Melting Point": "27 \u00b0C"}}