{"cas_no": "3034-42-2", "cn_name": "1-\u7532\u57fa-5-\u785d\u57fa\u54aa\u5511", "en_name": ["1-Methyl-5-nitroimidazole", "1H-Imidazole, 1-methyl-5-nitro-", "Imidazole, 1-methyl-5-nitro-", "1-Methyl-5-nitro-1H-imidazole", "1-Methyl-5-nitroimidazole", "5-Nitro-1-methylimidazole"], "SMILES": "N(=O)(=O)C=1N(C)C=NC1", "physical_data": {"Molecular Weight": "127.10", "Molecular Formula": "C4H5N3O2", "Melting Point": "135 \u00b0C"}}