{"cas_no": "30354-18-8", "cn_name": "N,N-\u4e8c\u7532\u57fa\u6c2f\u70ef\u4e9a\u80fa", "en_name": ["Methanaminium, N-methyl-N-methylene-, chloride", "Methanaminium, N-methyl-N-methylene-, chloride", "Ammonium, dimethylmethylene-, chloride", "Dimethylmethyleniminium chloride", "Dimethylmethyleneammonium chloride", "Methylenedimethylammonium chloride", "N,N-Dimethylmethyleniminium chloride", "Dimethylformiminium chloride", "N,N-Dimethylmethyleneammonium chloride", "Dimethyl(methylene)iminium chloride", "N-Methyl-N-methylenemethaniminium chloride", "N,N-Dimethyliminium chloride"], "SMILES": "[N+](C)(C)=C.[Cl-]", "physical_data": {"Molecular Weight": "", "Molecular Formula": "C3H8N.Cl", "Melting Point": "140-145 \u00b0C"}}