{"cas_no": "3035-94-7", "cn_name": "4-(4-\u6eb4\u82ef\u5076\u6c2e\u57fa)\u82ef\u915a", "en_name": ["4-[2-(4-Bromophenyl)diazenyl]phenol", "Phenol, 4-[2-(4-bromophenyl)diazenyl]-", "Phenol, p-[(p-bromophenyl)azo]-", "Phenol, 4-[(4-bromophenyl)azo]-", "4-[2-(4-Bromophenyl)diazenyl]phenol", "4-Bromo-4\u2032-hydroxyazobenzene", "4-(p-Bromophenylazo)phenol"], "SMILES": "N(=NC1=CC=C(O)C=C1)C2=CC=C(Br)C=C2", "physical_data": {"Molecular Weight": "277.12", "Molecular Formula": "C12H9BrN2O", "Melting Point": "156 \u00b0C"}}