{"cas_no": "30364-38-6", "cn_name": "1,1,6\u4e09\u7532\u57fa-1,2\u4e8c\u6c22\u8418", "en_name": ["1,1,6-Trimethyl-1,2-dihydronaphthalene", "Naphthalene, 1,2-dihydro-1,1,6-trimethyl-", "1,2-Dihydro-1,1,6-trimethylnaphthalene", "1,1,6-Trimethyl-1,2-dihydronaphthalene", "Dehydro-ar-ionene", "1,1,6-Trimethyl-2H-naphthalene"], "SMILES": "CC1(C)C=2C(=CC(C)=CC2)C=CC1", "physical_data": {"Molecular Weight": "172.27", "Molecular Formula": "C13H16", "Boiling Point": "75 \u00b0C @ Press: 0.01 Torr", "Density": "0.9454 g/cm\u00b3 @ Temp: 25 \u00b0C"}}