{"cas_no": "3036-16-6", "cn_name": "5-\u4e94\u7f9f\u8272\u80fa \u8349\u9178\u76d0", "en_name": ["Serotonin oxalate", "1H-Indol-5-ol, 3-(2-aminoethyl)-, ethanedioate (1:1)", "Indol-5-ol, 3-(2-aminoethyl)-, oxalate (1:1) (salt)", "1H-Indol-5-ol, 3-(2-aminoethyl)-, ethanedioate (1:1) (salt)", "Indol-5-ol, 3-(2-aminoethyl)-, oxalate", "5-Hydroxytryptamine oxalate", "Serotonin hydrogen oxalate", "Serotonin bioxalate", "5-Hydroxytryptamine bioxalate", "Serotonin oxalate", "5-Hydroxytryptamine binoxalate", "5-HT oxalate"], "SMILES": "C(CN)C=1C=2C(NC1)=CC=C(O)C2.C(C(O)=O)(O)=O", "physical_data": {"Molecular Weight": "", "Molecular Formula": "C10H12N2O.C2H2O4", "Melting Point": "195-197 \u00b0C"}}