{"cas_no": "3036-66-6", "cn_name": "1-\u7532\u6c27\u57fa-1\uff0c3-\u4e01\u4e8c\u70ef", "en_name": ["1-Methoxy-1,3-butadiene", "1,3-Butadiene, 1-methoxy-", "Ether, 1,3-butadienyl methyl", "1-Methoxy-1,3-butadiene", "1-Methoxybutadiene", "1,3-Butadienyl methyl ether", "NSC 9182", "4-Methoxy-1,3-butadiene"], "SMILES": "C(=COC)C=C", "physical_data": {"Molecular Weight": "84.12", "Molecular Formula": "C5H8O", "Boiling Point": "91.5 \u00b0C", "Density": "0.834 g/cm\u00b3 @ Temp: 20 \u00b0C"}}