{"cas_no": "3037-04-5", "cn_name": "2-\u6c28\u57fa\u4e59\u786b\u9187 \u5bf9\u7532\u82ef\u78fa\u9178\u76d0", "en_name": ["Ethanethiol, 2-amino-, 4-methylbenzenesulfonate (1:1)", "Ethanethiol, 2-amino-, 4-methylbenzenesulfonate (1:1)", "Ethanethiol, 2-amino-, p-toluenesulfonate (salt)", "Ethanethiol, 2-amino-, p-toluenesulfonate", "Ethanethiol, 2-amino-, 4-methylbenzenesulfonate (salt)", "2-Mercaptoethylamine p-toluenesulfonate", "(Mercaptoethyl)ammonium toluene-p-sulfonate"], "SMILES": "C(CS)N.S(=O)(=O)(O)C1=CC=C(C)C=C1", "physical_data": {"Molecular Weight": "", "Molecular Formula": "C7H8O3S.C2H7NS", "Melting Point": "168-170 \u00b0C"}}