{"cas_no": "30379-55-6", "cn_name": "\u82c4\u6c27\u4e59\u9178", "en_name": ["Benzyloxyacetic acid", "Acetic acid, 2-(phenylmethoxy)-", "Acetic acid, (phenylmethoxy)-", "Acetic acid, (benzyloxy)-", "2-(Phenylmethoxy)acetic acid", "Glycolic acid-benzyl ether", "Benzyloxyacetic acid", "2-Benzyloxyacetic acid", "NSC 153415"], "SMILES": "C(OCC(O)=O)C1=CC=CC=C1", "physical_data": {"Molecular Weight": "166.17", "Molecular Formula": "C9H10O3", "Boiling Point": "180-182 \u00b0C @ Press: 15 Torr", "Melting Point": "80-81 \u00b0C"}}