{"cas_no": "30377-52-7", "cn_name": "\u5341\u4e03\u6c1f\u6b63\u58ec\u9178\u4e59\u916f", "en_name": ["Ethyl 2,2,3,3,4,4,5,5,6,6,7,7,8,8,9,9,9-heptadecafluorononanoate", "Nonanoic acid, 2,2,3,3,4,4,5,5,6,6,7,7,8,8,9,9,9-heptadecafluoro-, ethyl ester", "Nonanoic acid, heptadecafluoro-, ethyl ester", "Ethyl 2,2,3,3,4,4,5,5,6,6,7,7,8,8,9,9,9-heptadecafluorononanoate", "Ethyl perfluorononanoate", "Ethyl perfluoropelargonate", "Ethyl perfluorononan-1-oate"], "SMILES": "C(C(C(C(C(F)(F)F)(F)F)(F)F)(F)F)(C(C(C(C(OCC)=O)(F)F)(F)F)(F)F)(F)F", "physical_data": {"Molecular Weight": "492.13", "Molecular Formula": "C11H5F17O2", "Boiling Point": "105 \u00b0C @ Press: 20 Torr"}}