{"cas_no": "30388-44-4", "cn_name": "2-\u785d\u57fa-4-\u7532\u781c\u57fa\u82ef\u7532\u80fa", "en_name": ["N-Methyl-4-(methylsulfonyl)-2-nitrobenzenamine", "Benzenamine, N-methyl-4-(methylsulfonyl)-2-nitro-", "Aniline, N-methyl-4-(methylsulfonyl)-2-nitro-", "N-Methyl-4-(methylsulfonyl)-2-nitrobenzenamine", "4-Mesyl-N-methyl-2-nitroaniline"], "SMILES": "N(=O)(=O)C1=C(NC)C=CC(S(C)(=O)=O)=C1", "physical_data": {"Molecular Weight": "230.24", "Molecular Formula": "C8H10N2O4S", "Melting Point": "193.5 \u00b0C"}}