{"cas_no": "3038-48-0", "cn_name": "2-(\u4e09\u6c1f\u7532\u57fa)\u82ef\u4e59\u9178", "en_name": ["[2-(Trifluoromethyl)phenyl]acetic acid", "Benzeneacetic acid, 2-(trifluoromethyl)-", "Acetic acid, (\u03b1,\u03b1,\u03b1-trifluoro-o-tolyl)-", "2-(Trifluoromethyl)benzeneacetic acid", "(\u03b1,\u03b1,\u03b1-Trifluoro-o-tolyl)acetic acid", "o-(Trifluoromethyl)phenylacetic acid", "[2-(Trifluoromethyl)phenyl]acetic acid", "2-[2-(Trifluoromethyl)phenyl]acetic acid", "o-(Trifluoromethyl)benzeneacetic acid"], "SMILES": "C(F)(F)(F)C1=C(CC(O)=O)C=CC=C1", "physical_data": {"Molecular Weight": "204.15", "Molecular Formula": "C9H7F3O2", "Melting Point": "100-102 \u00b0C"}}