{"cas_no": "30389-18-5", "cn_name": "1-\u4e59\u57fa\u73af\u5df1\u80fa", "en_name": ["1-Ethynylcyclohexylamine", "Cyclohexanamine, 1-ethynyl-", "Cyclohexylamine, 1-ethynyl-", "1-Ethynylcyclohexanamine", "1-Amino-1-ethynylcyclohexane", "1-Ethynylcyclohexylamine", "1-Ethynyl-1-aminocyclohexane", "1-Ethynylcyclohexan-1-amine"], "SMILES": "C(#C)C1(N)CCCCC1", "physical_data": {"Molecular Weight": "123.20", "Molecular Formula": "C8H13N", "Boiling Point": "65-66 \u00b0C @ Press: 20 Torr", "Density": "0.913 g/cm\u00b3 @ Temp: 25 \u00b0C"}}