{"cas_no": "3038-47-9", "cn_name": "2-(\u4e09\u6c1f\u7532\u57fa)\u82ef\u57fa\u4e59\u8148", "en_name": ["2-(Trifluoromethyl)benzeneacetonitrile", "Benzeneacetonitrile, 2-(trifluoromethyl)-", "Acetonitrile, (\u03b1,\u03b1,\u03b1-trifluoro-o-tolyl)-", "2-(Trifluoromethyl)benzeneacetonitrile", "(\u03b1,\u03b1,\u03b1-Trifluoro-o-tolyl)acetonitrile", "2-(Trifluoromethyl)phenylacetonitrile", "2-(2-Trifluoromethylphenyl)ethanenitrile", "1-[2-(Trifluoromethyl)phenyl]acetonitrile", "2-[2-(Trifluoromethyl)phenyl]acetonitrile"], "SMILES": "C(F)(F)(F)C1=C(CC#N)C=CC=C1", "physical_data": {"Molecular Weight": "185.15", "Molecular Formula": "C9H6F3N", "Melting Point": "33 \u00b0C"}}