{"cas_no": "30391-89-0", "cn_name": "\u90bb\u6c28\u57fa\u82ef\u7532\u9178\u5f02\u4e19\u9170\u80fa", "en_name": ["2-Amino-N-isopropylbenzamide", "Benzamide, 2-amino-N-(1-methylethyl)-", "Benzamide, o-amino-N-isopropyl-", "2-Amino-N-(1-methylethyl)benzamide", "2-Amino-N-isopropylbenzamide", "N-Isopropylanthranilamide", "Anthranilic acid isopropylamide", "NSC 88050", "2-Amino-N-(propan-2-yl)benzamide", "2-Amino-N-propan-2-ylbenzamide"], "SMILES": "C(NC(C)C)(=O)C1=C(N)C=CC=C1", "physical_data": {"Molecular Weight": "178.23", "Molecular Formula": "C10H14N2O", "Melting Point": "147 \u00b0C"}}