{"cas_no": "304-17-6", "cn_name": "N-\u5f02\u4e19\u57fa\u90bb\u82ef\u4e8c\u7532\u9170\u4e9a\u80fa", "en_name": ["N-Isopropylphthalimide", "1H-Isoindole-1,3(2H)-dione, 2-(1-methylethyl)-", "Phthalimide, N-isopropyl-", "2-(1-Methylethyl)-1H-isoindole-1,3(2H)-dione", "N-Isopropylphthalimide", "NSC 406141", "2-Isopropylisoindoline-1,3-dione", "2-(Propan-2-yl)-2,3-dihydro-1H-isoindole-1,3-dione"], "SMILES": "O=C1C=2C(C(=O)N1C(C)C)=CC=CC2", "physical_data": {"Molecular Weight": "189.21", "Molecular Formula": "C11H11NO2", "Melting Point": "86 \u00b0C"}}