{"cas_no": "304-06-3", "cn_name": "3-\u82ef\u57fa\u6c34\u6768\u9178", "en_name": ["2-Hydroxy[1,1\u2032-biphenyl]-3-carboxylic acid", "[1,1\u2032-Biphenyl]-3-carboxylic acid, 2-hydroxy-", "3-Biphenylcarboxylic acid, 2-hydroxy-", "Salicylic acid, 3-phenyl-", "2-Hydroxy[1,1\u2032-biphenyl]-3-carboxylic acid", "3-Phenylsalicylic acid", "2-Hydroxy-3-phenylbenzoic acid", "m-Phenylsalicylic acid", "NSC 109101", "NSC 1886", "2-Hydroxybiphenyl-3-carboxylic acid"], "SMILES": "OC1=C(C=CC=C1C(O)=O)C2=CC=CC=C2", "physical_data": {"Molecular Weight": "214.22", "Molecular Formula": "C13H10O3", "Melting Point": "184-185 \u00b0C"}}