{"cas_no": "304-20-1", "cn_name": "\u76d0\u9178\u80bc\u5c48\u55ea", "en_name": ["Hydralazine hydrochloride", "Phthalazine, 1-hydrazinyl-, hydrochloride (1:1)", "Phthalazine, 1-hydrazino-, monohydrochloride", "1(2H)-Phthalazinone, hydrazone, monohydrochloride", "Apresoline hydrochloride", "Hydralazine hydrochloride", "Hydralazine monohydrochloride", "1-Hydrazinophthalazine hydrochloride", "1-Hydrazinophthalazine monohydrochloride", "Hydralazine chloride", "Lopres", "(Phthalazin-1-yl)hydrazine hydrochloride", "Apulon", "1-Hydrazinylphthalazine hydrochloride"], "SMILES": "N(N)=C1C=2C(C=NN1)=CC=CC2.Cl", "physical_data": {"Molecular Weight": "", "Molecular Formula": "C8H8N4.ClH", "Melting Point": "273 \u00b0C (decomp)"}}