{"cas_no": "304-88-1", "cn_name": "N-\u82ef\u7532\u9170\u82ef\u57fa\u7f9f\u80fa", "en_name": ["N-Benzoyl-N-phenylhydroxylamine", "Benzamide, N-hydroxy-N-phenyl-", "Benzohydroxamic acid, N-phenyl-", "N-Hydroxy-N-phenylbenzamide", "N-Phenylbenzohydroxamic acid", "N-Benzoyl-N-phenylhydroxylamine", "N-Hydroxybenzanilide", "BPHA", "N-Benzoyl-N-phenylhydroxamic acid", "N-Phenyl N-benzoylhydroxamic acid", "NSC 42454"], "SMILES": "C(N(O)C1=CC=CC=C1)(=O)C2=CC=CC=C2", "physical_data": {"Molecular Weight": "213.23", "Molecular Formula": "C13H11NO2", "Melting Point": "121-122 \u00b0C"}}