{"cas_no": "304-59-6", "cn_name": "\u9152\u77f3\u9178\u94be\u94a0", "en_name": ["Potassium sodium tartrate", "Butanedioic acid, 2,3-dihydroxy- (2R,3R)-, potassium sodium salt (1:1:1)", "Tartaric acid, monopotassium monosodium salt", "Potassium sodium tartrate", "Butanedioic acid, 2,3-dihydroxy-[R-(R*,R*)]-, monopotassium monosodium salt", "Butanedioic acid, 2,3-dihydroxy- (2R,3R)-, monopotassium monosodium salt", "Sodium potassium tartrate", "Rochelle salt", "Seignette salt", "Monopotassium monosodium tartrate", "Potassium sodium L-(+)-tartrate", "Potassium sodium d-tartrate", "[R-(R*,R*)-2,3-Dihydroxybutanedioic acid monopotassium monosodium salt", "E 337", "Potassium sodium tartarate"], "SMILES": "C(C(C(O)=O)O)(C(O)=O)O.[K].[Na]", "physical_data": {"Molecular Weight": "", "Molecular Formula": "C4H6O6.K.Na", "Boiling Point": "200 \u00b0C", "Melting Point": "90-100 \u00b0C", "Density": "1.79 g/cm\u00b3"}}