{"cas_no": "304-91-6", "cn_name": "2-\u4e9a\u7898\u9170\u57fa\u82ef\u7532\u9178", "en_name": ["2-Iodosylbenzoic acid", "Benzoic acid, 2-iodosyl-", "Benzoic acid, o-iodoso-", "2-Iodosylbenzoic acid", "o-Iodosobenzoic acid", "3H-1,2-Benziodoxol-1-ium, 3-oxo-, hydroxide", "o-Iodosylbenzoic acid", "2-Iodosobenzoic acid", "NSC 34548"], "SMILES": "I(=O)C1=C(C(O)=O)C=CC=C1", "physical_data": {"Molecular Weight": "264.02", "Molecular Formula": "C7H5IO3", "Melting Point": "242 \u00b0C (decomp)"}}