{"cas_no": "304-55-2", "cn_name": "2,3-\u4e8c\u5def\u57fa\u4e01\u4e8c\u9178", "en_name": ["meso-2,3-Dimercaptosuccinic acid", "Butanedioic acid, 2,3-dimercapto-, (2R,3S)-rel-", "Succinic acid, 2,3-dimercapto-, meso-", "Butanedioic acid, 2,3-dimercapto-, (R*,S*)-", "rel-(2R,3S)-2,3-Dimercaptobutanedioic acid", "DMS", "meso-Dimercaptosuccinic acid", "meso-2,3-Dimercaptosuccinic acid", "Succimer", "Ro 1-7977", "DMSA", "Chemet", "DIM-SA"], "SMILES": "C(C(C(O)=O)S)(C(O)=O)S", "physical_data": {"Molecular Weight": "182.22", "Molecular Formula": "C4H6O4S2", "Melting Point": "192-194 \u00b0C"}}