{"cas_no": "304-21-2", "cn_name": "\u9a86\u9a7c\u84ec\u7075", "en_name": ["Harmaline", "3H-Pyrido[3,4-b]indole, 4,9-dihydro-7-methoxy-1-methyl-", "Harmaline", "Harmidine", "4,9-Dihydro-7-methoxy-1-methyl-3H-pyrido[3,4-b]indole", "3,4-Dihydroharmine", "3,4-Dihydro-7-methoxy-1-methyl-9H-pyrido[3,4-b]indole", "1-Methyl-7-methoxy-3,4-dihydro-\u03b2-carboline", "NSC 407285", "MeSH ID: D006246"], "SMILES": "CC=1C2=C(C=3C(N2)=CC(OC)=CC3)CCN1", "physical_data": {"Molecular Weight": "214.26", "Molecular Formula": "C13H14N2O", "Melting Point": "250 \u00b0C (decomp)"}}