{"cas_no": "304-28-9", "cn_name": "\u4e8c\u4e59\u9170\u6c28\u57fa\u82b4", "en_name": ["N,N\u2032-9H-Fluorene-2,7-diylbis[acetamide]", "Acetamide, N,N\u2032-9H-fluorene-2,7-diylbis-", "Acetamide, N,N\u2032-fluoren-2,7-ylenebis-", "N,N\u2032-9H-Fluorene-2,7-diylbis[acetamide]", "N,N\u2032-2,7-Fluorenylenebisacetamide", "N,N\u2032-(Fluoren-2,7-ylene)bis(acetylamine)", "N,N\u2032-Fluoren-2,7-ylenebisacetamide", "N,N\u2032-2,7-Fluorenylenediacetamide", "2,7-Bis(acetamido)fluorene", "Bis-2,7-acetylaminofluorene", "2,7-Diacetamidofluorene", "NSC 12282", "N,N\u2032-9H-Fluorene-2,7-diylbisacetamide"], "SMILES": "N(C(C)=O)C=1C=C2C(C=3C(C2)=CC(NC(C)=O)=CC3)=CC1", "physical_data": {"Molecular Weight": "280.32", "Molecular Formula": "C17H16N2O2", "Melting Point": "281 \u00b0C"}}