{"cas_no": "304-84-7", "cn_name": "\u9999\u8349\u4e8c\u4e59\u80fa", "en_name": ["Ethamivan", "Benzamide, N,N-diethyl-4-hydroxy-3-methoxy-", "Vanillamide, N,N-diethyl-", "N,N-Diethyl-4-hydroxy-3-methoxybenzamide", "Diethamivan", "N,N-Diethylvanillamide", "Emivan", "Etamivan", "Ethamivan", "3-Methoxy-4-hydroxybenzoic acid diethylamide", "Etamivanum", "Vandid", "Vanillic acid diethylamide", "Diethylvanillamide", "Analepticon", "Corivanil", "Ventilone", "Romecor", "Sevanil", "Simaron", "Vanillic acid N,N-diethylamide", "Vanillic diethylamide", "Cardiovanil", "NSC 406087"], "SMILES": "C(N(CC)CC)(=O)C1=CC(OC)=C(O)C=C1", "physical_data": {"Molecular Weight": "223.27", "Molecular Formula": "C12H17NO3", "Melting Point": "95 \u00b0C"}}