{"cas_no": "3040-44-6", "cn_name": "N-\u7f9f\u4e59\u57fa\u54cc\u5576", "en_name": ["1-Piperidineethanol", "1-Piperidineethanol", "2-Piperidinoethanol", "2-(1-Piperidinyl)ethanol", "\u03b2-Piperidinoethanol", "N-(2-Hydroxyethyl)piperidine", "1-(2-Hydroxyethyl)piperidine", "N-(\u03b2-Hydroxyethyl)piperidine", "N-Piperidineethanol", "N-Piperidinoethanol", "2-(N-Piperidino)ethanol", "2-(1-Piperidino)ethanol", "2-(Piperid-1-yl)ethanol", "NSC 3460", "2-(Piperidine-1-yl)ethanol", "2-(Piperidin-1-yl)ethan-1-ol"], "SMILES": "C(CO)N1CCCCC1", "physical_data": {"Molecular Weight": "129.20", "Molecular Formula": "C7H15NO", "Boiling Point": "202 \u00b0C", "Melting Point": "17.9 \u00b0C", "Density": "0.9732 g/cm\u00b3 @ Temp: 25 \u00b0C"}}