{"cas_no": "30413-58-2", "cn_name": "2-\u4e59\u7094-6-\u7532\u57fa\u5421\u5576", "en_name": ["2-Ethynyl-6-methylpyridine", "Pyridine, 2-ethynyl-6-methyl-", "2-Picoline, 6-ethynyl-", "2-Ethynyl-6-methylpyridine", "6-Ethynyl-2-picoline", "6-Methyl-2-pyridylacetylene"], "SMILES": "C(#C)C=1N=C(C)C=CC1", "physical_data": {"Molecular Weight": "117.15", "Molecular Formula": "C8H7N", "Boiling Point": "92-94 \u00b0C @ Press: 25 Torr"}}