{"cas_no": "30414-53-0", "cn_name": "3-\u6c27\u4ee3\u620a\u9178\u7532\u916f", "en_name": ["Methyl 3-oxopentanoate", "Pentanoic acid, 3-oxo-, methyl ester", "Valeric acid, 3-oxo-, methyl ester", "Methyl 3-oxopentanoate", "Methyl \u03b2-ketovalerate", "Methyl propionylacetate", "Methyl 3-oxovalerate", "3-Oxopentanoic acid methyl ester", "Methyl propanoylacetate", "3-Oxovaleric acid methyl ester", "Methyl oxovalerate"], "SMILES": "C(C(CC)=O)C(OC)=O", "physical_data": {"Molecular Weight": "130.14", "Molecular Formula": "C6H10O3", "Boiling Point": "73-76 \u00b0C @ Press: 16 Torr"}}