{"cas_no": "30414-54-1", "cn_name": "\u6b63\u4e01\u9170\u4e59\u9178\u7532\u916f", "en_name": ["Hexanoic acid, 3-oxo-, methyl ester", "Hexanoic acid, 3-oxo-, methyl ester", "Caproic acid, \u03b2-oxo-, methyl ester", "Methyl 3-oxohexanoate", "Methyl 3-oxocaproate", "Methyl butyrylacetate", "Methyl 3-ketohexanoate", "3-Oxohexanoic acid methyl ester"], "SMILES": "C(C(CCC)=O)C(OC)=O", "physical_data": {"Molecular Weight": "144.17", "Molecular Formula": "C7H12O3", "Boiling Point": "85-90 \u00b0C @ Press: 14 Torr"}}