{"cas_no": "30418-59-8", "cn_name": "3-\u6c28\u57fa\u82ef\u787c\u9178", "en_name": ["3-Aminophenylboronic acid", "Boronic acid, B-(3-aminophenyl)-", "Benzeneboronic acid, m-amino-", "Boronic acid, (3-aminophenyl)-", "B-(3-Aminophenyl)boronic acid", "m-Aminobenzeneboronic acid", "3-Aminophenylboronic acid", "3-Aminobenzeneboronic acid", "m-Aminophenylboronic acid", "3-Aminophenyl(dihydroxy)borane"], "SMILES": "B(O)(O)C1=CC(N)=CC=C1", "physical_data": {"Molecular Weight": "136.94", "Molecular Formula": "C6H8BNO2", "Melting Point": "140 \u00b0C"}}