{"cas_no": "3041-40-5", "cn_name": "2-\u82ef\u57fa\u4e19\u4e8c\u8148", "en_name": ["2-Phenylpropanedinitrile", "Propanedinitrile, 2-phenyl-", "Malononitrile, phenyl-", "Propanedinitrile, phenyl-", "2-Phenylpropanedinitrile", "Phenylmalononitrile", "NSC 10742", "2-Phenylmalononitrile", "2-Phenyl-malononitrile"], "SMILES": "C(C#N)(C#N)C1=CC=CC=C1", "physical_data": {"Molecular Weight": "142.16", "Molecular Formula": "C9H6N2", "Melting Point": "68 \u00b0C"}}