{"cas_no": "30413-84-4", "cn_name": "\u7d2b\u5807\u8fbe\u660e\u78b1", "en_name": ["(-)-Corydalmine", "6H-Dibenzo[a,g]quinolizin-10-ol, 5,8,13,13a-tetrahydro-2,3,9-trimethoxy-, (13aS)-", "6H-Dibenzo[a,g]quinolizin-10-ol, 5,8,13,13a-tetrahydro-2,3,9-trimethoxy-, (S)-", "Corydalmine", "(13aS)-5,8,13,13a-Tetrahydro-2,3,9-trimethoxy-6H-dibenzo[a,g]quinolizin-10-ol", "Kikemanine", "Kikemanin", "Schefferine", "(-)-Corydalmine", "(-)-Kikemanine", "L-Corydalmine"], "SMILES": "O(C)C=1C=C2C3N(CC=4C(C3)=CC=C(O)C4OC)CCC2=CC1OC", "physical_data": {"Molecular Weight": "341.40", "Molecular Formula": "C20H23NO4", "Melting Point": "238-239 \u00b0C"}}