{"cas_no": "3041-16-5", "cn_name": "1,4-\u4e8c\u6c27\u516d\u73af-2-\u916e", "en_name": ["Dioxanone", "1,4-Dioxan-2-one", "p-Dioxan-2-one", "Acetic acid, (2-hydroxyethoxy)-, \u03b4-lactone", "p-Dioxanone", "2-Oxo-1,4-dioxane", "2-p-Dioxanone", "Dioxanone", "NSC 60534"], "SMILES": "O=C1COCCO1", "physical_data": {"Molecular Weight": "102.09", "Molecular Formula": "C4H6O3", "Boiling Point": "213 \u00b0C", "Melting Point": "26.7 \u00b0C", "Density": "1.2664 g/cm\u00b3 @ Temp: 30 \u00b0C"}}