{"cas_no": "3042-81-7", "cn_name": "\u6eb4\u82ef\u4e59\u9178\u7532\u916f", "en_name": ["Benzeneacetic acid, \u03b1-bromo-, methyl ester", "Benzeneacetic acid, \u03b1-bromo-, methyl ester", "Acetic acid, bromophenyl-, methyl ester", "Methyl bromophenylacetate", "Methyl \u03b1-bromophenylacetate", "Methyl \u03b1-bromo-\u03b1-phenylacetate", "Methyl \u03b1-bromobenzeneacetate", "Methyl 2-bromo-2-phenylacetate", "Methyl 2-bromophenylacetate", "Methyl DL-bromophenylacetate", "\u03b1-Bromophenylacetic acid methyl ester", "NSC 243708", "2-Bromo-2-phenylacetic acid methyl ester", "\u03b1-Bromobenzeneacetic acid methyl ester"], "SMILES": "C(C(OC)=O)(Br)C1=CC=CC=C1", "physical_data": {"Molecular Weight": "229.07", "Molecular Formula": "C9H9BrO2", "Boiling Point": "154-155 \u00b0C @ Press: 10 Torr"}}