{"cas_no": "3042-84-0", "cn_name": "\u6eb4\u83a0\u654f", "en_name": ["Brompyrazon", "3(2H)-Pyridazinone, 5-amino-4-bromo-2-phenyl-", "5-Amino-4-bromo-2-phenyl-3(2H)-pyridazinone", "BAS 2430", "1-Phenyl-4-amino-5-bromo-6-pyridazone", "5-Amino-4-bromo-2-phenyl-3-pyridazone", "BAS 2430H", "Brompyrazon", "5-Amino-4-bromo-2-phenylpyridazin-3-one", "1-Phenyl-4-amino-5-bromo-6-pyridazinone", "4-Amino-5-bromo-1-phenyl-6-pyridazinone"], "SMILES": "O=C1N(N=CC(N)=C1Br)C2=CC=CC=C2", "physical_data": {"Molecular Weight": "266.09", "Molecular Formula": "C10H8BrN3O", "Melting Point": "223.5 \u00b0C"}}