{"cas_no": "3042-22-6", "cn_name": "2-\u82ef\u57fa\u5421\u54af", "en_name": ["2-Phenylpyrrole", "1H-Pyrrole, 2-phenyl-", "Pyrrole, 2-phenyl-", "2-Phenyl-1H-pyrrole", "2-Phenylpyrrole", "NSC 94963"], "SMILES": "C1(=CC=CN1)C2=CC=CC=C2", "physical_data": {"Molecular Weight": "143.19", "Molecular Formula": "C10H9N", "Boiling Point": "272 \u00b0C", "Melting Point": "129 \u00b0C"}}