{"cas_no": "30431-54-0", "cn_name": "\u8349\u9178\u53cc[2,4,5-\u4e09\u6c2f-6-(\u620a\u6c27\u7fb0\u57fa)\u82ef\u57fa]\u916f", "en_name": ["Bis(2,4,5-trichloro-6-carbopentoxyphenyl) oxalate", "Ethanedioic acid, 1,2-bis[3,4,6-trichloro-2-[(pentyloxy)carbonyl]phenyl] ester", "Ethanedioic acid, bis[3,4,6-trichloro-2-[(pentyloxy)carbonyl]phenyl] ester", "Oxalic acid, diester with pentyl 3,5,6-trichlorosalicylate", "Bis(2,4,5-trichloro-6-carbopentoxyphenyl) oxalate", "Bis(6-carbopentoxy-2,4,5-trichlorophenyl) oxalate", "Bis(2,4,5-trichloro-6-carbopentyloxyphenyl)oxalate", "Bis(3,4,6-trichloro-2-(pentyloxycarbonyl)phenyl)oxalate", "Bis(2-carbopentyloxy-3,4,6-trichlorophenyl) oxalate", "Bis(2,4,5-trichloro-6-(pentyloxycarbonyl)phenyl)oxalate", "CPPO"], "SMILES": "O(C(C(OC1=C(C(OCCCCC)=O)C(Cl)=C(Cl)C=C1Cl)=O)=O)C2=C(C(OCCCCC)=O)C(Cl)=C(Cl)C=C2Cl", "physical_data": {"Molecular Weight": "677.18", "Molecular Formula": "C26H24Cl6O8", "Melting Point": "83.6 \u00b0C"}}