{"cas_no": "30433-91-1", "cn_name": "2-\u567b\u5429\u4e59\u80fa", "en_name": ["2-Thiopheneethanamine", "2-Thiopheneethanamine", "2-Thiopheneethylamine", "2-(2-Thienyl)ethylamine", "2-(2-Aminoethyl)thiophene", "2-(2-Thienyl)ethanamine", "\u03b2-(2-Thienyl)ethylamine", "2-(Thiophen-2-yl)ethylamine", "2-(2-Thiophene)ethylamine", "[2-(Thiophene-2-yl)ethyl]amine", "2-(2-Thienyl)-1-ethanamine", "2-(Thiophen-2-yl)ethanamine", "2-Thienylethylamine", "2-Thienoethylamine", "2-(Thiophen-2-yl)ethan-1-amine"], "SMILES": "C(CN)C1=CC=CS1", "physical_data": {"Molecular Weight": "127.21", "Molecular Formula": "C6H9NS", "Boiling Point": "200-201 \u00b0C @ Press: 750 Torr", "Density": "1.087 g/cm\u00b3 @ Temp: 15 \u00b0C"}}