{"cas_no": "30432-16-7", "cn_name": "1,4-\u4e8c\u6eb4-2,3-\u53cc(\u6eb4\u7532\u57fa)-2-\u4e01\u70ef", "en_name": ["1,4-Dibromo-2,3-bis(bromomethyl)-2-butene", "2-Butene, 1,4-dibromo-2,3-bis(bromomethyl)-", "1,4-Dibromo-2,3-bis(bromomethyl)-2-butene", "Tetrakis(bromomethyl)ethylene", "Tetra(bromomethyl)ethene", "1,4-Dibromo-2,3-bromomethyl-2-butene"], "SMILES": "C(=C(CBr)CBr)(CBr)CBr", "physical_data": {"Molecular Weight": "399.74", "Molecular Formula": "C6H8Br4", "Melting Point": "158-159 \u00b0C"}}