{"cas_no": "3044-42-6", "cn_name": "[2-[(8S,9S,10R,11S,13S,14S)-11-\u7f9f\u57fa-10,13-\u4e8c\u7532\u57fa-3-\u6c27\u4ee3-6,7,8,9,11,12,14,15-\u516b\u6c22\u73af\u620a\u70ef\u5e76[A]\u83f2-17-\u57fa]-2-\u6c27\u4ee3\u4e59\u57fa]\u4e59\u9178\u916f", "en_name": ["(11\u03b2)-21-(Acetyloxy)-11-hydroxypregna-1,4,16-triene-3,20-dione", "Pregna-1,4,16-triene-3,20-dione, 21-(acetyloxy)-11-hydroxy-, (11\u03b2)-", "Pregna-1,4,16-triene-3,20-dione, 11\u03b2,21-dihydroxy-, 21-acetate", "(11\u03b2)-21-(Acetyloxy)-11-hydroxypregna-1,4,16-triene-3,20-dione", "21-Acetoxy-11\u03b2-hydroxypregna-1,4,16-triene-3,20-dione", "11\u03b2,21-Dihydroxypregna-1,4,16-triene-3,20-dione 21-acetate"], "SMILES": "CC12C3C(C4C(C)(CC3O)C(C(COC(C)=O)=O)=CC4)CCC1=CC(=O)C=C2", "physical_data": {"Molecular Weight": "384.47", "Molecular Formula": "C23H28O5", "Melting Point": "208-209 \u00b0C"}}