{"cas_no": "3044-06-2", "cn_name": "(1-\u4e59\u6c27\u57fa\u4e9a\u4e59\u57fa)\u4e19\u4e8c\u9178\u4e8c\u4e59\u916f", "en_name": ["1,3-Diethyl 2-(1-ethoxyethylidene)propanedioate", "Propanedioic acid, 2-(1-ethoxyethylidene)-, 1,3-diethyl ester", "Malonic acid, (1-ethoxyethylidene)-, diethyl ester", "Propanedioic acid, (1-ethoxyethylidene)-, diethyl ester", "1,3-Diethyl 2-(1-ethoxyethylidene)propanedioate", "Diethyl (1-ethoxyethylidene)malonate", "NSC 233875", "(1-Ethoxyethylidene)propanedioic acid diethyl ester", "Diethyl 2-(1-ethoxyethylidene)malonate", "3-Ethoxy-2-ethoxycarbonyl-2-butenoic acid ethyl ester"], "SMILES": "C(=C(OCC)C)(C(OCC)=O)C(OCC)=O", "physical_data": {"Molecular Weight": "230.26", "Molecular Formula": "C11H18O5", "Boiling Point": "123-128 \u00b0C @ Press: 3 Torr", "Melting Point": "26-27 \u00b0C", "Density": "1.068 g/cm\u00b3 @ Temp: 25 \u00b0C"}}