{"cas_no": "3044-56-2", "cn_name": "3\uff0c4\uff0c5-\u4e09\u7532\u6c27\u57fa\u82ef\u7532\u9170\u4e59\u9178\u4e59\u916f", "en_name": ["Ethyl (3,4,5-trimethoxybenzoyl)acetate", "Benzenepropanoic acid, 3,4,5-trimethoxy-\u03b2-oxo-, ethyl ester", "Acetic acid, (3,4,5-trimethoxybenzoyl)-, ethyl ester", "Ethyl (3,4,5-trimethoxybenzoyl)acetate", "3-Oxo-3-(3,4,5-trimethoxyphenyl)propionic acid ethyl ester", "NSC 408031", "Ethyl 3-oxo-3-(3,4,5-trimethoxyphenyl)propionate", "Ethyl 3-(3,4,5-trimethoxyphenyl)-3-oxopropanoate"], "SMILES": "C(CC(OCC)=O)(=O)C1=CC(OC)=C(OC)C(OC)=C1", "physical_data": {"Molecular Weight": "282.29", "Molecular Formula": "C14H18O6", "Melting Point": "95 \u00b0C"}}