{"cas_no": "30459-17-7", "cn_name": "1-(4-\u4e09\u6c1f\u7532\u82ef\u57fa)\u54cc\u55ea", "en_name": ["1-[4-(Trifluoromethyl)phenyl]piperazine", "Piperazine, 1-[4-(trifluoromethyl)phenyl]-", "Piperazine, 1-(\u03b1,\u03b1,\u03b1-trifluoro-p-tolyl)-", "1-[4-(Trifluoromethyl)phenyl]piperazine", "1-[p-(Trifluoromethyl)phenyl]piperazine", "N-(4-Trifluoromethylphenyl)piperazine", "N-(\u03b1,\u03b1,\u03b1-Trifluoro-p-tolyl)piperazine", "4-Trifluoromethylphenylpiperazine", "CD 3-3017"], "SMILES": "C(F)(F)(F)C1=CC=C(C=C1)N2CCNCC2", "physical_data": {"Molecular Weight": "230.23", "Molecular Formula": "C11H13F3N2", "Melting Point": "&gt;300 \u00b0C"}}