{"cas_no": "30453-31-7", "cn_name": "\u4e59\u57fa\u4e19\u57fa\u4e8c\u786b\u919a", "en_name": ["Ethyl propyl disulfide", "Disulfide, ethyl propyl", "Ethyl propyl disulfide", "3,4-Dithiaheptane", "1-(Ethyldisulfanyl)propane", "1-Ethyl-2-propyldisulfane"], "SMILES": "S(CCC)SCC", "physical_data": {"Molecular Weight": "136.28", "Molecular Formula": "C5H12S2", "Boiling Point": "118.5 \u00b0C", "Melting Point": "-117.04 \u00b0C", "Density": "0.8324 g/cm\u00b3 @ Temp: 25 \u00b0C"}}