{"cas_no": "3046-94-4", "cn_name": "N-\u4e01\u57fa-N-\u7f9f\u4e59\u57fa\u82ef\u80fa", "en_name": ["2-(Butylphenylamino)ethanol", "Ethanol, 2-(butylphenylamino)-", "Ethanol, 2-(N-butylanilino)-", "2-(Butylphenylamino)ethanol", "N-Hydroxyethyl-N-butylaniline", "N-Butyl-N-(2-hydroxyethyl)aniline", "2-(N-Butylanilino)ethanol", "2-[Butyl(phenyl)amino]ethan-1-ol"], "SMILES": "N(CCCC)(CCO)C1=CC=CC=C1", "physical_data": {"Molecular Weight": "193.29", "Molecular Formula": "C12H19NO", "Boiling Point": "143-145 \u00b0C @ Press: 1.5 Torr"}}