{"cas_no": "304680-36-2", "cn_name": "1-\u8f9b\u57fa-3-\u7532\u57fa\u54aa\u5511\u516d\u6c1f\u78f7\u9178\u76d0", "en_name": ["1-Octyl-3-methylimidazolium hexafluorophosphate", "1H-Imidazolium, 1-methyl-3-octyl-, hexafluorophosphate(1-) (1:1)", "1H-Imidazolium, 1-methyl-3-octyl-, hexafluorophosphate(1-)", "1-Methyl-3-octylimidazolium hexafluorophosphate", "1-Octyl-3-methylimidazolium hexafluorophosphate", "1-n-Octyl-3-methylimidazolium hexafluorophosphate", "1-Methyl-3-octyl-1H-imidazolium hexafluorophosphate(1-)", "[Omim]PF6", "1-Methyl-3-octyl-1H-imidazolium hexafluorophosphate", "1-Octyl-3-methylimidazolium hexafluorophosphate(1-)", "1-Octyl-3-methylimidazolium hexaflurophosphate", "1-Methyl-3-octylimidazolium hexafluorophosphate(1-)", "1-Methyl-3-n-octylimidazolium Hexafluorophosphate"], "SMILES": "[P+5]([F-])([F-])([F-])([F-])([F-])[F-].C(CCCCCCC)[N+]1=CN(C)C=C1", "physical_data": {"Molecular Weight": "", "Molecular Formula": "C12H23N2.F6P", "Melting Point": "-70 \u00b0C", "Density": "1.21 g/cm\u00b3"}}