{"cas_no": "3047-32-3", "cn_name": "3-\u4e59\u57fa-3-\u6c27\u6742\u4e01\u73af\u7532\u9187", "en_name": ["OXT 101", "3-Oxetanemethanol, 3-ethyl-", "3-Ethyl-3-oxetanemethanol", "3-Ethyl-3-(hydroxymethyl)oxacyclobutane", "3-Hydroxymethyl-3-ethyloxetane", "3-Ethyl-3-(hydroxymethyl)oxetane", "3-Ethyl-3-methyloloxetane", "EOXA", "Cyracure UVR 6000", "Aron Oxetane OXT 101", "OXA", "OXA (oxetane)", "OXT 101", "UVR 6000", "Eternacoll EHO", "(3-Ethyloxetan-3-yl)methanol", "Aron Oxetane OXA", "EHO", "Trimethylolpropane oxetane", "3-Ethyl-3-oxetanylmethyl alcohol", "Syna OXA-S 101", "S 101", "Synasia S 101", "TCM 101", "3-Ethyl-3-hydroxymethyloxethane", "Uvicure S 130", "Doublemer 401", "Curalite Pro Ox C 20", "Curalite Pro Ox C 50", "M 101", "TMPO"], "SMILES": "C(C)C1(CO)COC1", "physical_data": {"Molecular Weight": "116.16", "Molecular Formula": "C6H12O2", "Boiling Point": "84 \u00b0C @ Press: 2.8 Torr"}}