{"cas_no": "30484-77-6", "cn_name": "\u76d0\u9178\u6c1f\u6842\u5229\u55ea", "en_name": ["Flunarizine hydrochloride", "Piperazine, 1-[bis(4-fluorophenyl)methyl]-4-[(2E)-3-phenyl-2-propen-1-yl]-, hydrochloride (1:2)", "Piperazine, 1-[bis(p-fluorophenyl)methyl]-4-cinnamyl-, dihydrochloride, (E)-", "Piperazine, 1-[bis(4-fluorophenyl)methyl]-4-(3-phenyl-2-propenyl)-, dihydrochloride, (E)-", "Piperazine, 1-[bis(4-fluorophenyl)methyl]-4-[(2E)-3-phenyl-2-propenyl]-, dihydrochloride", "Flunarizine hydrochloride", "Flunarizine dihydrochloride", "R 14950", "Gradient", "Flugeral", "Fluxarten", "Dinaplex", "Issium", "Flunagen", "Mondus", "Flunarl", "(E)-1-[Bis(4-fluorophenyl)methyl]-4-cinnamylpiperazine dihydrochloride"], "SMILES": "C(N1CCN(CC=CC2=CC=CC=C2)CC1)(C3=CC=C(F)C=C3)C4=CC=C(F)C=C4.Cl", "physical_data": {"Molecular Weight": "", "Molecular Formula": "C26H26F2N2.2ClH", "Melting Point": "251.5 \u00b0C"}}