{"cas_no": "3048-64-4", "cn_name": "5-\u4e59\u70ef\u57fa\u53cc\u73af[2.2.1]\u5e9a-2-\u70ef", "en_name": ["5-Vinyl-2-norbornene", "Bicyclo[2.2.1]hept-2-ene, 5-ethenyl-", "2-Norbornene, 5-vinyl-", "5-Ethenylbicyclo[2.2.1]hept-2-ene", "5-Vinyl-2-norbornene", "5-Vinylbicyclo[2.2.1]hept-2-ene", "5-Vinylnorbornene", "2-Vinylbicyclo[2.2.1]hept-5-ene", "2-Vinyl-5-norbornene", "Vinylnorbornene", "2-Vinylnorbornene", "VBH", "NSC 61529", "V 0062", "6-Vinylbicyclo[2.2.1]hept-2-ene"], "SMILES": "C(=C)C1C2CC(C1)C=C2", "physical_data": {"Molecular Weight": "120.19", "Molecular Formula": "C9H12", "Boiling Point": "140.4 \u00b0C @ Press: 760 Torr", "Density": "0.8884 g/cm\u00b3 @ Temp: 20 \u00b0C"}}