{"cas_no": "3048-65-5", "cn_name": "\u56db\u6c22\u831a", "en_name": ["3a,4,7,7a-Tetrahydroindene", "1H-Indene, 3a,4,7,7a-tetrahydro-", "Indene, 3a,4,7,7a-tetrahydro-", "3a,4,7,7a-Tetrahydro-1H-indene", "4,7,8,9-Tetrahydroindene", "Bicyclo[4.3.0]nona-3,7-diene", "3a,4,7,7a-Tetrahydroindene"], "SMILES": "C12C(C=CC1)CC=CC2", "physical_data": {"Molecular Weight": "120.19", "Molecular Formula": "C9H12", "Boiling Point": "76-78 \u00b0C @ Press: 50 Torr"}}