{"cas_no": "304853-42-7", "cn_name": "TANAPROGET", "en_name": ["Tanaproget", "1H-Pyrrole-2-carbonitrile, 5-(1,4-dihydro-4,4-dimethyl-2-thioxo-2H-3,1-benzoxazin-6-yl)-1-methyl-", "5-(1,4-Dihydro-4,4-dimethyl-2-thioxo-2H-3,1-benzoxazin-6-yl)-1-methyl-1H-pyrrole-2-carbonitrile", "NSP 989", "Tanaproget", "5-(4,4-Dimethyl-2-thioxo-1,4-dihydro-2H-3,1-benzoxazin-6-yl)-1-methyl-1H-pyrrole-2-carbonitrile", "5-(4,4-Dimethyl-2-thioxo-1,4-dihydro-2H-benzo[d][1,3]oxazin-6-yl)-1-methyl-1H-pyrrole-2-carbonitrile"], "SMILES": "CC1(C)C=2C(=CC=C(C2)C=3N(C)C(C#N)=CC3)NC(=S)O1", "physical_data": {"Molecular Weight": "297.37", "Molecular Formula": "C16H15N3OS", "Melting Point": "225-228 \u00b0C"}}