{"cas_no": "3049-24-9", "cn_name": "\u82ef\u81a6\u9178\u4e8c\u82ef\u916f", "en_name": ["Diphenyl P-phenylphosphonate", "Phosphonic acid, P-phenyl-, diphenyl ester", "Phosphonic acid, phenyl-, diphenyl ester", "Diphenyl P-phenylphosphonate", "Diphenyl benzenephosphonate", "Diphenyl phenylphosphonate", "Triphenyl phosphonate", "NSC 25435", "[Phenoxy(phenyl)phosphoryl]oxybenzene"], "SMILES": "P(OC1=CC=CC=C1)(OC2=CC=CC=C2)(=O)C3=CC=CC=C3", "physical_data": {"Molecular Weight": "310.28", "Molecular Formula": "C18H15O3P", "Melting Point": "74.0-74.9 \u00b0C"}}