{"cas_no": "304903-10-4", "cn_name": "1-\u4e59\u57fa-1H-\u5421\u5511-4-\u7532\u919b", "en_name": ["1-Ethyl-1H-pyrazole-4-carboxaldehyde", "1H-Pyrazole-4-carboxaldehyde, 1-ethyl-", "1-Ethyl-1H-pyrazole-4-carboxaldehyde", "1-Ethylpyrazole-4-carboxaldehyde", "1-Ethylpyrazole-4-carbaldehyde", "1-Ethyl-1H-pyrazole-4-carbaldehyde"], "SMILES": "C(=O)C1=CN(CC)N=C1", "physical_data": {"Molecular Weight": "124.14", "Molecular Formula": "C6H8N2O", "Boiling Point": "46-48 \u00b0C @ Press: 5 Torr"}}