{"cas_no": "305-15-7", "cn_name": "2,5-\u4e8c\u6c2f\u82ef\u80bc\u76d0\u9178\u76d0", "en_name": ["(2,5-Dichlorophenyl)hydrazine", "Hydrazine, (2,5-dichlorophenyl)-", "(2,5-Dichlorophenyl)hydrazine", "NSC 6102", "N-(2,5-Dichlorophenyl)hydrazine"], "SMILES": "N(N)C1=C(Cl)C=CC(Cl)=C1", "physical_data": {"Molecular Weight": "177.03", "Molecular Formula": "C6H6Cl2N2", "Melting Point": "254-256 \u00b0C"}}