{"cas_no": "305-84-0", "cn_name": "L-\u808c\u80bd", "en_name": ["L-Carnosine", "L-Histidine, \u03b2-alanyl-", "Carnosine", "\u03b2-Alanyl-L-histidine", "\u03b2-Alanylhistidine", "Ignotine", "L-Carnosine", "Karnozin", "N-(\u03b2-Alanyl)-L-histidine", "NSC 524045", "Sevitin", "2: PN: WO2009033754 PAGE: 98 claimed protein", "Ignotin", "Dragosine", "(2S)-2-(3-Aminopropanoylamino)-3-(1H-imidazol-5-yl)propanoic acid", "(2S)-2-(3-Aminopropanamido)-3-(1H-imidazol-4-yl)propanoic acid"], "SMILES": "C(CC1=CN=CN1)(NC(CCN)=O)C(O)=O", "physical_data": {"Molecular Weight": "226.23", "Molecular Formula": "C9H14N4O3", "Melting Point": "260 \u00b0C"}}