{"cas_no": "305-33-9", "cn_name": "\u78f7\u9178\u5f02\u4e19\u70df\u80bc", "en_name": ["Iproniazid phosphate", "4-Pyridinecarboxylic acid, 2-(1-methylethyl)hydrazide, phosphate (1:1)", "Isonicotinic acid, 2-isopropylhydrazide, phosphate (1:1)", "Iproniazid dihydrogen phosphate", "Iproniazide phosphate", "Iproniazid phosphate", "1-Isonicotinyl-2-isopropylhydrazine phosphate", "1-Isopropyl-2-isonicotinylhydrazine phosphate", "Marsilid phosphate", "NSC 81850"], "SMILES": "C(NNC(C)C)(=O)C=1C=CN=CC1.P(=O)(O)(O)O", "physical_data": {"Molecular Weight": "", "Molecular Formula": "C9H13N3O.H3O4P", "Melting Point": "175-184 \u00b0C"}}