{"cas_no": "305-85-1", "cn_name": "2,6-\u4e8c\u7898-4-\u785d\u57fa\u82ef\u915a", "en_name": ["2,6-Diiodo-4-nitrophenol", "Phenol, 2,6-diiodo-4-nitro-", "2,6-Diiodo-4-nitrophenol", "Disophenol", "DNP", "Syngamix", "Ancylol", "Disofen", "Iodofen", "4-Nitro-2,6-diiodophenol", "Iodophen"], "SMILES": "N(=O)(=O)C1=CC(I)=C(O)C(I)=C1", "physical_data": {"Molecular Weight": "390.90", "Molecular Formula": "C6H3I2NO3", "Melting Point": "157 \u00b0C"}}