{"cas_no": "305-03-3", "cn_name": "\u82ef\u4e01\u9178\u6c2e\u82a5", "en_name": ["Chlorambucil", "Benzenebutanoic acid, 4-[bis(2-chloroethyl)amino]-", "Butyric acid, 4-[p-[bis(2-chloroethyl)amino]phenyl]-", "4-[Bis(2-chloroethyl)amino]benzenebutanoic acid", "CB 1348", "4-[p-[Bis(2-chloroethyl)amino]phenyl]butyric acid", "\u03b3-[p-Bis(2-chloroethyl)aminophenyl]butyric acid", "Chlorambucil", "Chloraminophene", "Chlorobutine", "\u03b3-[p-Di(2-chloroethyl)aminophenyl]butyric acid", "Leukeran", "Chlorbutin", "Amboclorin", "NSC 3088", "Ambochlorin", "Linfolizin", "Ecloril", "Linfolysin", "Lympholysin", "Leukeran Tablets", "NCI 3088", "4-[4-[Bis(2-chloroethyl)amino]phenyl]butanoic acid", "MeSH ID: D002699"], "SMILES": "N(CCCl)(CCCl)C1=CC=C(CCCC(O)=O)C=C1", "physical_data": {"Molecular Weight": "304.21", "Molecular Formula": "C14H19Cl2NO2", "Melting Point": "64-66 \u00b0C"}}