{"cas_no": "305-01-1", "cn_name": "\u79e6\u76ae\u4e59\u7d20", "en_name": ["Esculetin", "2H-1-Benzopyran-2-one, 6,7-dihydroxy-", "Coumarin, 6,7-dihydroxy-", "Esculetin", "6,7-Dihydroxy-2H-1-benzopyran-2-one", "Cichorigenin", "Cichoriin aglycon", "6,7-Dihydroxycoumarin", "Esculetol", "Esculin aglycon", "Aesculetin", "Asculetine", "NSC 26428", "6,7-Dihydroxy-2-benzopyrone"], "SMILES": "OC=1C=C2C(=CC1O)C=CC(=O)O2", "physical_data": {"Molecular Weight": "178.14", "Molecular Formula": "C9H6O4", "Melting Point": "276 \u00b0C", "Density": "1.56 g/cm\u00b3"}}