{"cas_no": "30507-70-1", "cn_name": "(9Z,12E)-9,12-\u5341\u56db\u78b3\u4e8c\u70ef-1-\u9187\u4e59\u9178\u916f", "en_name": ["(Z,E)-9,12-Tetradecadienyl acetate", "9,12-Tetradecadien-1-ol, 1-acetate, (9Z,12E)-", "9,12-Tetradecadien-1-ol, acetate, (E,Z)-", "9,12-Tetradecadien-1-ol, acetate, (9Z,12E)-", "Prodenialure B", "cis-9,trans-12-Tetradecadien-1-ol acetate", "(Z,E)-9,12-Tetradecadienyl 1-acetate", "cis-9,trans-12-Tetradecadienyl acetate", "cis-9,trans-12-Tetradecadien-1-yl acetate", "(Z,E)-9,12-Tetradecadienyl acetate", "Litlure B", "9Z,12E-Tetradecadienyl acetate", "(Z,E)-9,12-Tetradecadienyl acetate", "(9Z,12E)-9,12-Tetradecadien-1-ol acetate"], "SMILES": "C(CCCCC=CCC=CC)CCCOC(C)=O", "physical_data": {"Molecular Weight": "252.39", "Molecular Formula": "C16H28O2", "Boiling Point": "190-194 \u00b0C @ Press: 2 Torr"}}