{"cas_no": "3050-69-9", "cn_name": "\u6b63\u5df1\u9178\u4e59\u70ef\u916f(\u542b\u7a33\u5b9a\u5242\u7532\u6c27\u57fa\u6c22\u918c)", "en_name": ["Vinyl hexanoate", "Hexanoic acid, ethenyl ester", "Hexanoic acid, vinyl ester", "Vinyl caproate", "Vinyl hexoate", "Vinyl hexanoate", "Caproic acid vinyl ester", "Vinyl n-hexanoate", "NSC 32629"], "SMILES": "C(C(OC=C)=O)CCCC", "physical_data": {"Molecular Weight": "142.20", "Molecular Formula": "C8H14O2", "Boiling Point": "165-167 \u00b0C", "Density": "0.8995 g/cm\u00b3 @ Temp: 20 \u00b0C"}}