{"cas_no": "30508-27-1", "cn_name": "\u7518\u8349\u897f\u5b9a", "en_name": ["(+)-Licoricidin", "1,3-Benzenediol, 4-[(3R)-3,4-dihydro-7-hydroxy-5-methoxy-6-(3-methyl-2-buten-1-yl)-2H-1-benzopyran-3-yl]-2-(3-methyl-2-buten-1-yl)-", "2\u2032,4\u2032,5-Isoflavantriol, 7-methoxy-3\u2032,6-bis(3-methyl-2-butenyl)-", "1,3-Benzenediol, 4-[3,4-dihydro-7-hydroxy-5-methoxy-6-(3-methyl-2-butenyl)-2H-1-benzopyran-3-yl]-2-(3-methyl-2-butenyl)-, (R)-", "1,3-Benzenediol, 4-[(3R)-3,4-dihydro-7-hydroxy-5-methoxy-6-(3-methyl-2-butenyl)-2H-1-benzopyran-3-yl]-2-(3-methyl-2-butenyl)-", "4-[(3R)-3,4-Dihydro-7-hydroxy-5-methoxy-6-(3-methyl-2-buten-1-yl)-2H-1-benzopyran-3-yl]-2-(3-methyl-2-buten-1-yl)-1,3-benzenediol", "Licoricidin", "(+)-Licoricidin", "Licorisoflavan B", "7-O-Demethyllicorisoflavan A"], "SMILES": "O(C)C1=C2C(=CC(O)=C1CC=C(C)C)OCC(C2)C3=C(O)C(CC=C(C)C)=C(O)C=C3", "physical_data": {"Molecular Weight": "424.53", "Molecular Formula": "C26H32O5", "Melting Point": "161.0-162.5 \u00b0C"}}