{"cas_no": "30516-87-1", "cn_name": "\u9f50\u591a\u592b\u5b9a", "en_name": ["Azidothymidine", "Thymidine, 3\u2032-azido-3\u2032-deoxy-", "3\u2032-Azido-3\u2032-deoxythymidine", "Azidothymidine", "3\u2032-Deoxy-3\u2032-azidothymidine", "AZT", "BW-A 509U", "AZT (pharmaceutical)", "Zidovudine", "Retrovir", "3\u2032-Azidothymidine", "NSC 602670", "Azitidin", "ZDV", "Timazid", "Retrovir IV", "ZVD", "3-Azido-3-deoxythymidine", "Compound S", "Viro-Z", "Zido-H", "Retrovis", "3\u2032-AZT", "Combvir"], "SMILES": "O=C1N(C2CC(N=[N+]=[N-])C(CO)O2)C=C(C)C(=O)N1", "physical_data": {"Molecular Weight": "", "Molecular Formula": "C10H13N5O4", "Melting Point": "106-112 \u00b0C"}}