{"cas_no": "30515-28-7", "cn_name": "7-\u6eb4\u5e9a\u9178", "en_name": ["7-Bromoheptanoic acid", "Heptanoic acid, 7-bromo-", "Enanthic acid, \u03b6-bromo-", "7-Bromoheptanoic acid", "\u03c9-Bromoheptanoic acid"], "SMILES": "C(CCCCBr)CC(O)=O", "physical_data": {"Molecular Weight": "209.08", "Molecular Formula": "C7H13BrO2", "Boiling Point": "280 \u00b0C", "Melting Point": "31 \u00b0C"}}