{"cas_no": "30529-70-5", "cn_name": "2-\u6c2f-6-\u7532\u57fa\u70df\u9178", "en_name": ["2-Chloro-6-methylnicotinic acid", "3-Pyridinecarboxylic acid, 2-chloro-6-methyl-", "Nicotinic acid, 2-chloro-6-methyl-", "2-Chloro-6-methyl-3-pyridinecarboxylic acid", "2-Chloro-6-methylnicotinic acid"], "SMILES": "C(O)(=O)C1=C(Cl)N=C(C)C=C1", "physical_data": {"Molecular Weight": "171.58", "Molecular Formula": "C7H6ClNO2", "Melting Point": "160-162 \u00b0C"}}