{"cas_no": "30525-89-4", "cn_name": "\u591a\u805a\u7532\u919b", "en_name": ["Paraformaldehyde", "Paraformaldehyde", "Flo-Mor", "Paraform", "Aldacide", "TransFix", "Granuform", "PFA", "Granuform 96", "WANPFA 92", "Granuform M", "Granuform 91", "Polyformaldehyde"], "SMILES": "C=O", "physical_data": {"Molecular Weight": "", "Molecular Formula": "(CH2O)x", "Boiling Point": "135-136 \u00b0C @ Press: 13 Torr", "Melting Point": "164 \u00b0C (decomp)", "Density": "1.46 g/cm\u00b3"}}