{"cas_no": "3052-50-4", "cn_name": "\u9a6c\u6765\u9178\u5355\u7532\u916f", "en_name": ["Monomethyl maleate", "2-Butenedioic acid (2Z)-, 1-methyl ester", "Maleic acid, monomethyl ester", "2-Butenedioic acid (Z)-, monomethyl ester", "Maleic acid, methyl ester", "2-Butenedioic acid (2Z)-, monomethyl ester", "Methyl hydrogen maleate", "Monomethyl maleate", "Hydrogen methyl maleate", "Monomethyl (Z)-2-butenedioate", "Monomethyl (2Z)-2-butenedioate", "Methyl hydrogen (2Z)-2-butendioate", "(Z)-4-Methoxy-4-oxobut-2-enoic acid", "(Z)-4-Methoxy-4-oxobut-2-enoic acid"], "SMILES": "C(C=CC(O)=O)(OC)=O", "physical_data": {"Molecular Weight": "130.10", "Molecular Formula": "C5H6O4", "Melting Point": "93 \u00b0C (decomp)", "Density": "1.2520 g/cm\u00b3 @ Temp: 20 \u00b0C"}}