{"cas_no": "3054-47-5", "cn_name": "S-\u4e59\u9170-L-\u8c37\u80f1\u7518\u80bd", "en_name": ["S-Acetylglutathione", "Glycine, L-\u03b3-glutamyl-S-acetyl-L-cysteinyl-", "Glutathione, acetate (ester)", "Glycine, N-(S-acetyl-N-L-\u03b3-glutamyl-L-cysteinyl)-", "Glutathione, S-acetate", "L-\u03b3-Glutamyl-S-acetyl-L-cysteinylglycine", "S-Acetylglutathione"], "SMILES": "C(NC(CCC(C(O)=O)N)=O)(C(NCC(O)=O)=O)CSC(C)=O", "physical_data": {"Molecular Weight": "349.36", "Molecular Formula": "C12H19N3O7S", "Melting Point": "202-203 \u00b0C"}}