{"cas_no": "30544-47-9", "cn_name": "\u4f9d\u6258\u82ac\u90a3\u916f", "en_name": ["Etofenamate", "Benzoic acid, 2-[[3-(trifluoromethyl)phenyl]amino]-, 2-(2-hydroxyethoxy)ethyl ester", "Anthranilic acid, N-(\u03b1,\u03b1,\u03b1-trifluoro-m-tolyl)-, 2-(2-hydroxyethoxy)ethyl ester", "Etofenamate", "Rheumon", "2-(2-Hydroxyethoxy)ethyl flufenamate", "Bay-d 1107", "Glasel", "B 577", "Traumon Gel", "Bayrogel", "Rheumon gel", "WHR 5020", "TV 485", "2-[[3-(Trifluoromethyl)phenyl]amino]benzoic acid 2-(2-hydroxyethoxy)ethyl ester", "Reumon"], "SMILES": "N(C1=C(C(OCCOCCO)=O)C=CC=C1)C2=CC(C(F)(F)F)=CC=C2", "physical_data": {"Molecular Weight": "369.33", "Molecular Formula": "C18H18F3NO4", "Boiling Point": "132.5 \u00b0C", "Melting Point": "&lt;25 \u00b0C"}}