{"cas_no": "3054-92-0", "cn_name": "2,3,4-\u4e09\u7532\u57fa-3-\u620a\u9187", "en_name": ["2,3,4-Trimethyl-3-pentanol", "3-Pentanol, 2,3,4-trimethyl-", "2,3,4-Trimethyl-3-pentanol", "1,1-Diisopropylethanol", "Diisopropylmethylcarbinol"], "SMILES": "C(C(C)C)(C(C)C)(C)O", "physical_data": {"Molecular Weight": "130.23", "Molecular Formula": "C8H18O", "Boiling Point": "156.5 \u00b0C", "Density": "0.8492 g/cm\u00b3 @ Temp: 20 \u00b0C"}}