{"cas_no": "3054-01-1", "cn_name": "S-\u82c4\u57fa-L-\u534a\u80f1\u6c28\u9178", "en_name": ["S-Benzyl-L-cysteine", "L-Cysteine, S-(phenylmethyl)-", "Alanine, 3-(benzylthio)-, L-", "S-(Phenylmethyl)-L-cysteine", "S-Benzyl-L-cysteine", "S-Benzylcysteine", "(R)-S-Benzylcysteine", "L-S-Benzylcysteine", "3-Benzylthioalanine", "(S)-S-Benzylcysteine", "NSC 523123", "S-Benzyl-(R)-cysteine", "(R)-2-Amino-3-(benzylthio)propanoic acid", "(2R)-2-Amino-3-(benzylsulfanyl)propanoic acid", "(2R)-2-Amino-3-benzylsulfanylpropanoic acid", "165: PN: US20220128567 SEQID: 534 claimed sequence", "165: PN: US20220178935 SEQID: 534 claimed sequence"], "SMILES": "C(SCC(C(O)=O)N)C1=CC=CC=C1", "physical_data": {"Molecular Weight": "211.28", "Molecular Formula": "C10H13NO2S", "Melting Point": "215-216 \u00b0C"}}