{"cas_no": "3054-95-3", "cn_name": "\u4e19\u70ef\u919b\u7f29\u4e8c\u4e59\u9187", "en_name": ["3,3-Diethoxy-1-propene", "1-Propene, 3,3-diethoxy-", "Acrolein, diethyl acetal", "Propene, 3,3-diethoxy-", "3,3-Diethoxy-1-propene", "1,1-Diethoxy-2-propene", "Propenal diethyl acetal", "Acrylaldehyde diethyl acetal", "3,3-Diethoxypropene", "Acrylylaldehyde diethyl acetal", "NSC 60135"], "SMILES": "C(OCC)(OCC)C=C", "physical_data": {"Molecular Weight": "130.18", "Molecular Formula": "C7H14O2", "Boiling Point": "123.5 \u00b0C", "Melting Point": "120-124 \u00b0C"}}