{"cas_no": "3055-86-5", "cn_name": "3-\u82ef\u6c27\u57fa\u4e19\u8148", "en_name": ["3-Phenoxypropanenitrile", "Propanenitrile, 3-phenoxy-", "Propionitrile, 3-phenoxy-", "3-Phenoxypropanenitrile", "\u03b2-Phenoxypropionitrile", "3-Phenoxypropionitrile", "NSC 108215"], "SMILES": "O(CCC#N)C1=CC=CC=C1", "physical_data": {"Molecular Weight": "147.17", "Molecular Formula": "C9H9NO", "Boiling Point": "158 \u00b0C @ Press: 20 Torr", "Melting Point": "62-65 \u00b0C"}}