{"cas_no": "3055-99-0", "cn_name": "\u805a\u919a\u9187", "en_name": ["Nonaethylene glycol monododecyl ether", "3,6,9,12,15,18,21,24,27-Nonaoxanonatriacontan-1-ol", "Do 9/R3", "Ethanol, 2-[2-[2-[2-[2-[2-[2-[2-[2-(dodecyloxy)ethoxy]ethoxy]ethoxy]ethoxy]ethoxy]ethoxy]ethoxy]ethoxy]-", "Nonaethylene glycol monododecyl ether", "C12E9", "Nonaoxyethylene monododecyl ether", "C12EO9", "2-[2-[2-[2-[2-[2-[2-[2-(2-Dodecoxyethoxy)ethoxy]ethoxy]ethoxy]ethoxy]ethoxy]ethoxy]ethoxy]ethanol"], "SMILES": "C(COCCOCCOCCOCCOCCOCCO)OCCOCCOCCCCCCCCCCCC", "physical_data": {"Molecular Weight": "582.81", "Molecular Formula": "C30H62O10", "Melting Point": "33.3-33.6 \u00b0C"}}