{"cas_no": "30557-81-4", "cn_name": "\u6ca1\u836f\u5f53\u5f52\u70ef\u916e", "en_name": ["Bisabolangelone", "4(2H)-Benzofuranone, 3,3a,7,7a-tetrahydro-3-hydroxy-3,6-dimethyl-2-(3-methyl-2-buten-1-ylidene)-, (2Z,3R,3aR,7aS)-", "4(2H)-Benzofuranone, 3,3a,7,7a-tetrahydro-3-hydroxy-3,6-dimethyl-2-(3-methyl-2-butenylidene)-, [3S-(2Z,3\u03b1,3a\u03b2,7a\u03b2)]-", "Bisabolangelone", "4(2H)-Benzofuranone, 3,3a,7,7a-tetrahydro-3-hydroxy-3,6-dimethyl-2-(3-methyl-2-butenylidene)-, (2Z,3R,3aR,7aS)-", "(2Z,3R,3aR,7aS)-3,3a,7,7a-Tetrahydro-3-hydroxy-3,6-dimethyl-2-(3-methyl-2-buten-1-ylidene)-4(2H)-benzofuranone", "Angelikoreanol", "Ligustilone", "3-Hydroxy-3,6-dimethyl-2-(3-methylbut-2-enylidene)-3,3a,7,7a-tetrahydrobenzofuran-4(2H)-one", "(+)-Bisabolangelone"], "SMILES": "CC1(O)C2C(OC1=CC=C(C)C)CC(C)=CC2=O", "physical_data": {"Molecular Weight": "248.32", "Molecular Formula": "C15H20O3", "Melting Point": "157-158 \u00b0C"}}