{"cas_no": "3055-95-6", "cn_name": "\u78b3\u5341\u4e8cE5", "en_name": ["3,6,9,12,15-Pentaoxaheptacosan-1-ol", "3,6,9,12,15-Pentaoxaheptacosan-1-ol", "Ethanol, 2-[2-[2-[2-[2-(dodecyloxy)ethoxy]ethoxy]ethoxy]ethoxy]-", "Pentaethylene glycol monododecyl ether", "Pentaethylene glycol dodecyl ether", "Pentaoxyethylene monododecyl ether", "\u03b1-Dodecyl-\u03c9-hydroxypentakis(oxyethylene)", "n-Dodecyl pentaoxyethylene glycol ether", "Pentaethylene glycol monolauryl ether", "n-Dodecyl pentaoxyethylene monoether", "C12E5", "Penta(ethylene oxide) dodecyl ether", "Pentaethylene glycol mono-n-dodecyl ether", "Pentaethylene glycol lauryl ether", "C12EO5", "n-Dodecyl pentaethylene glycol ether", "Monododecyl pentaethylene glycol", "Pentaoxyethylene glycol mono-n-dodecyl ether", "Dodecyl penta(ethylene oxide)", "2-[2-[2-[2-(2-Dodecoxyethoxy)ethoxy]ethoxy]ethoxy]ethanol"], "SMILES": "C(COCCOCCOCCOCCO)OCCCCCCCCCCCC", "physical_data": {"Molecular Weight": "406.60", "Molecular Formula": "C22H46O6", "Boiling Point": "207-210 \u00b0C @ Press: 0.8 Torr", "Melting Point": "14.5-15.0 \u00b0C", "Density": "0.992 g/cm\u00b3 @ Temp: 40 \u00b0C"}}