{"cas_no": "3055-98-9", "cn_name": "\u8f9b\u4e59\u70ef\u4e8c\u9187\u5355\u6b63\u5341\u4e8c\u70f7\u57fa\u916f", "en_name": ["C12E8", "3,6,9,12,15,18,21,24-Octaoxahexatriacontan-1-ol", "Dodecyl octaethylene glycol ether", "Ethanol, 2-[2-[2-[2-[2-[2-[2-[2-(dodecyloxy)ethoxy]ethoxy]ethoxy]ethoxy]ethoxy]ethoxy]ethoxy]-", "Octaoxyethylene glycol monododecyl ether", "Octaethylene glycol monododecyl ether", "Octaoxyethylene dodecyl ether", "Octaethylene glycol monolauryl ether", "n-Dodecyl octaethylene glycol monoether", "Dodecyl octaethylene glycol monoether", "Octaethylene glycol dodecyl ether", "Octaoxyethylene glycol dodecyl ether", "Octaoxyethylene monododecyl ether", "Octaethylene glycol mono(n-dodecyl)ether", "\u03b1-Dodecyl-\u03c9-hydroxyoctakis(oxyethylene)", "C12E8", "C12EO8", "Octa(ethylene oxide) dodecyl ether", "Octaethylene glycol lauryl ether", "Empilan KBS 8", "Anapoe C12E8", "Octaoxyethylene lauryl ether", "LAE 8", "Slovasol 248", "2-[2-[2-[2-[2-[2-[2-(2-Dodecoxyethoxy)ethoxy]ethoxy]ethoxy]ethoxy]ethoxy]ethoxy]ethanol"], "SMILES": "O(CCOCCOCCCCCCCCCCCC)CCOCCOCCOCCOCCOCCO", "physical_data": {"Molecular Weight": "538.75", "Molecular Formula": "C28H58O9", "Melting Point": "30.6-30.9 \u00b0C"}}