{"cas_no": "3055-97-8", "cn_name": "\u5341\u4e8c\u70f7\u57fa\u4e03\u805a\u4e59\u4e8c\u9187\u919a", "en_name": ["Heptaethylene glycol dodecyl ether", "3,6,9,12,15,18,21-Heptaoxatritriacontan-1-ol", "Ethanol, 2-[2-[2-[2-[2-[2-[2-(dodecyloxy)ethoxy]ethoxy]ethoxy]ethoxy]ethoxy]ethoxy]-", "Heptaethylene glycol, monododecyl ether", "Heptaethyleneglycol monolauryl ether", "Heptaethylene glycol dodecyl ether", "Dodecanol heptaethoxy ether", "AEO 7", "C12E7", "C12EO7", "Heptaethylene glycol n-dodecyl ether", "Mergital LT 7", "Nikkol BL 7SY", "Rhodasurf LA-7", "Pingpingjia 7", "LAE 7", "2-[2-[2-[2-[2-[2-(2-Dodecoxyethoxy)ethoxy]ethoxy]ethoxy]ethoxy]ethoxy]ethanol", "H 280285"], "SMILES": "C(COCCOCCOCCOCCOCCO)OCCOCCCCCCCCCCCC", "physical_data": {"Molecular Weight": "494.70", "Molecular Formula": "C26H54O8", "Melting Point": "27.8-28.1 \u00b0C"}}