{"cas_no": "3055-96-7", "cn_name": "\u516d\u4e59\u4e8c\u9187\u5355\u5341\u4e8c\u919a", "en_name": ["3,6,9,12,15,18-Hexaoxatriacontan-1-ol", "3,6,9,12,15,18-Hexaoxatriacontan-1-ol", "Dodecyl hexaoxyethylene glycol monoether", "Ethanol, 2-[2-[2-[2-[2-[2-(dodecyloxy)ethoxy]ethoxy]ethoxy]ethoxy]ethoxy]-", "Hexaoxyethylene glycol monododecyl ether", "Hexaethylene glycol, monododecyl ether", "Dodecyl hexaoxyethylene monoether", "Hexaoxyethylene glycol dodecyl monoether", "Hexaethylene glycol dodecyl ether", "Hexaethylene glycol lauryl ether", "\u03b1-Hydroxy-\u03c9-decylheptakis(oxyethylene)", "Hexaoxyethylene dodecyl monoether", "Hexaethylene glycol n-dodecyl ether", "Lauryl hexaethoxylate", "Hexaoxyethylene monododecyl ether", "Dodecyl hexaethylene glycol monoether", "DP 6", "Dodecyl hexaoxyethylene ether", "\u03b1-Dodecyl-\u03c9-hydroxyhexakis(oxyethylene)", "Hexaethylene glycol mono-n-dodecyl ether", "Hexaoxyethylene dodecyl ether", "C12E6", "C12EO6", "Hexakis(oxyethylene) monododecyl ether", "n-Dodecyl hexaoxyethylene glycol monoether", "DP 6 (alcohol)", "Nikkol BL 6SY", "Hexaethylene glycol monododecyl ether", "2-[2-[2-[2-[2-(2-Dodecoxyethoxy)ethoxy]ethoxy]ethoxy]ethoxy]ethanol"], "SMILES": "O(CCOCCCCCCCCCCCC)CCOCCOCCOCCOCCO", "physical_data": {"Molecular Weight": "450.65", "Molecular Formula": "C24H50O7", "Boiling Point": "210-215 \u00b0C @ Press: 0.05 Torr", "Melting Point": "24.8-25.1 \u00b0C"}}