{"cas_no": "3055-93-4", "cn_name": "\u5341\u4e8c\u70f7\u57fa\u4e8c\u4e59\u4e8c\u9187\u919a", "en_name": ["Diethylene glycol monododecyl ether", "Ethanol, 2-[2-(dodecyloxy)ethoxy]-", "2-[2-(Dodecyloxy)ethoxy]ethanol", "Diethylene glycol monododecyl ether", "LA 2", "LA 2 (alcohol)", "Diethylene glycol dodecyl ether", "Diethyleneglycol monolauryl ether", "Diethyleneglycol lauryl ether", "Dodecyl diethylene glycol", "C12EO2", "Bis(oxyethylene) dodecyl ether", "Simulsol P 2", "Nikkol BL 2SY", "Diethylene glycol monoether with Conol 20P", "LAE 2", "2-(2-Dodecoxyethoxy)ethanol"], "SMILES": "C(CCCCCCCCC)CCOCCOCCO", "physical_data": {"Molecular Weight": "274.44", "Molecular Formula": "C16H34O3", "Boiling Point": "127 \u00b0C @ Press: 0.01 Torr", "Melting Point": "15.5-16.3 \u00b0C", "Density": "0.927 g/cm\u00b3 @ Temp: 40 \u00b0C"}}