{"cas_no": "3055-94-5", "cn_name": "3-\u5341\u4e8c\u70f7\u9187", "en_name": ["Triethylene glycol monododecyl ether", "Ethanol, 2-[2-[2-(dodecyloxy)ethoxy]ethoxy]-", "3,6,9-Trioxaheneicosan-1-ol", "2-[2-[2-(Dodecyloxy)ethoxy]ethoxy]ethanol", "LEA", "Lauryl alcohol triglycol ether", "Triethylene glycol monododecyl ether", "n-Dodecyl triethylene glycol ether", "Lauryl triglycol ether", "Triethylene glycol dodecyl ether", "Dodecyl triethylene glycol", "Lauryl triethoxylate", "C12EO3", "Tris(oxyethylene) dodecyl ether", "Triethylene glycol lauryl ether", "2-[2-[2-(Dodecyloxy)ethoxy]ethanol", "Ethal 326", "Laureth-3", "Nikkol BL 3SY", "2-[2-(2-Dodecoxyethoxy)ethoxy]ethanol"], "SMILES": "C(COCCOCCOCCO)CCCCCCCCCC", "physical_data": {"Molecular Weight": "318.49", "Molecular Formula": "C18H38O4", "Boiling Point": "153 \u00b0C @ Press: 0.035 Torr", "Melting Point": "16.5-17.0 \u00b0C", "Density": "0.950 g/cm\u00b3 @ Temp: 40 \u00b0C"}}