{"cas_no": "3056-17-5", "cn_name": "\u53f8\u4ed6\u592b\u5b9a", "en_name": ["Stavudine", "Thymidine, 2\u2032,3\u2032-didehydro-3\u2032-deoxy-", "Thymine, 1-(2,3-dideoxy-\u03b2-D-glycero-pent-2-enofuranosyl)-", "2,4(1H,3H)-Pyrimidinedione, 1-[(2R,5S)-2,5-dihydro-5-(hydroxymethyl)-2-furanyl]-5-methyl-", "2\u2032-Thymidinene, 3\u2032-deoxy-", "2\u2032,3\u2032-Didehydro-3\u2032-deoxythymidine", "d4T", "3\u2032-Deoxy-2\u2032,3\u2032-didehydrothymidine", "BMY 27857", "D 4T (nucleoside)", "Stavudine", "Sanilvudine", "Zerit", "NSC 163661", "Stavir", "Virostav", "Stag", "Avostav", "Staduvine", "Melxicap", "2\u2032,3\u2032-Didehydro-2\u2032,3\u2032-dideoxythymidine", "MeSH ID: D018119"], "SMILES": "O=C1N(C2OC(CO)C=C2)C=C(C)C(=O)N1", "physical_data": {"Molecular Weight": "224.21", "Molecular Formula": "C10H12N2O4", "Melting Point": "165-166 \u00b0C"}}