{"cas_no": "30566-92-8", "cn_name": "5-(N,N-\u4e8c\u82c4\u57fa\u6c28\u57fa\u4e59\u9170)\u6c34\u6768\u9170\u80fa", "en_name": ["5-[2-[Bis(phenylmethyl)amino]acetyl]-2-hydroxybenzamide", "Benzamide, 5-[2-[bis(phenylmethyl)amino]acetyl]-2-hydroxy-", "Salicylamide, 5-(N,N-dibenzylglycyl)-", "Benzamide, 5-[[bis(phenylmethyl)amino]acetyl]-2-hydroxy-", "5-[2-[Bis(phenylmethyl)amino]acetyl]-2-hydroxybenzamide", "5-(N,N-Dibenzylglycyl)salicylamide"], "SMILES": "N(CC1=CC=CC=C1)(CC2=CC=CC=C2)CC(=O)C3=CC(C(N)=O)=C(O)C=C3", "physical_data": {"Molecular Weight": "374.43", "Molecular Formula": "C23H22N2O3", "Melting Point": "179-180 \u00b0C"}}