{"cas_no": "3056-33-5", "cn_name": "N,9-\u4e8c\u4e59\u9170\u9e1f\u560c\u5464", "en_name": ["2,9-Diacetylguanine", "Acetamide, N-(9-acetyl-6,9-dihydro-6-oxo-1H-purin-2-yl)-", "Guanine, N,9-diacetyl-", "N-(9-Acetyl-6,9-dihydro-6-oxo-1H-purin-2-yl)acetamide", "2,9-Diacetylguanine", "N2,9-Diacetylguanine", "N2,N9-Diacetylguanine"], "SMILES": "C(C)(=O)N1C2=C(C(=O)N=C(NC(C)=O)N2)N=C1", "physical_data": {"Molecular Weight": "235.20", "Molecular Formula": "C9H9N5O3", "Melting Point": "&gt;300 \u00b0C"}}