{"cas_no": "30560-19-1", "cn_name": "\u4e59\u9170\u7532\u80fa\u78f7", "en_name": ["Acephate", "Phosphoramidothioic acid, N-acetyl-, O,S-dimethyl ester", "Phosphoramidothioic acid, acetyl-, O,S-dimethyl ester", "RE 12420", "O,S-Dimethyl N-acetylphosphoramidothioate", "Acephate", "Orthene", "Orthene-755", "O,S-Dimethyl acetylphosphoramidothioate", "Acetamidophos", "Ortran", "O,S-Dimethyl N-acetylphosphoramidothiolate", "DMAP", "Acefate", "Orthene PCO", "Asataf", "Orthene 75SP", "Payload", "Orthene S", "Precise", "Orthene TTO 97", "Orthene TTO", "Fire Ant Hayter Bait", "Ant Hayter", "Lepitect", "Orthene 97", "Aciphid", "Orthorane"], "SMILES": "P(NC(C)=O)(OC)(SC)=O", "physical_data": {"Molecular Weight": "183.17", "Molecular Formula": "C4H10NO3PS", "Melting Point": "82-89 \u00b0C", "Density": "1.4 g/cm\u00b3"}}