{"cas_no": "30562-34-6", "cn_name": "\u683c\u5c14\u5fb7\u9709\u7d20", "en_name": ["Geldanamycin", "Geldanamycin", "2-Azabicyclo[16.3.1]docosa-4,6,10,18,21-pentaene-3,20,22-trione, 9,13-dihydroxy-8,14,19-trimethoxy-4,10,12,16-tetramethyl-, 9-carbamate", "2-Azabicyclo[16.3.1]docosane, geldanamycin deriv.", "2-Azabicyclo[16.3.1]docosa-4,6,10,18,21-pentaene-3,20,22-trione, 9-[(aminocarbonyl)oxy]-13-hydroxy-8,14,19-trimethoxy-4,10,12,16-tetramethyl-, [8S-(4E,6Z,8R*,9R*,10E,12R*,13S*,14R*,16S*)]-", "[8S-(4E,6Z,8R*,9R*,10E,12R*,13S*,14R*,16S*)]-9-[(Aminocarbonyl)oxy]-13-hydroxy-8,14,19-trimethoxy-4,10,12,16-tetramethyl-2-azabicyclo[16.3.1]docosa-4,6,10,18,21-pentaene-3,20,22-trione", "NSC 122750", "NSC 212518", "(+)-Geldanamycin", "(8S,9S,12S,13R,14S,16R)-13-Hydroxy-8,14,19-trimethoxy-4,10,12,16-tetramethyl-3,20,22-trioxo-2-azabicyclo[16.3.1]docosa-1(21),4,6,10,18-pentaen-9-yl carbamate"], "SMILES": "O(C)C1=C2C(=O)C(=CC1=O)NC(=O)C(C)=CC=CC(OC)C(OC(N)=O)C(C)=CC(C)C(O)C(OC)CC(C)C2", "physical_data": {"Molecular Weight": "560.64", "Molecular Formula": "C29H40N2O9", "Melting Point": "252-255 \u00b0C"}}