{"cas_no": "3057-74-7", "cn_name": "L-\u5929\u95e8\u51ac\u6c28\u9178-4-\u53d4\u4e01\u57fa\u916f", "en_name": ["4-(1,1-Dimethylethyl) hydrogen L-aspartate", "L-Aspartic acid, 4-(1,1-dimethylethyl) ester", "Aspartic acid, 4-tert-butyl ester", "4-(1,1-Dimethylethyl) hydrogen L-aspartate", "L-Aspartic acid 4-tert-butyl ester", "\u03b2-tert-Butyl L-aspartate", "\u03b2-tert-Butyl aspartate", "Aspartic acid \u03b2-tert-butyl ester", "L-Aspartic acid \u03b2-tert-butyl ester", "(S)-2-Amino-4-tert-butoxy-4-oxobutanoic acid", "(2S)-2-Amino-4-[(2-methylpropan-2-yl)oxy]-4-oxobutanoic acid", "(2S)-2-Amino-4-(tert-butoxy)-4-oxobutanoic acid"], "SMILES": "C(C(OC(C)(C)C)=O)C(C(O)=O)N", "physical_data": {"Molecular Weight": "189.21", "Molecular Formula": "C8H15NO4", "Melting Point": "189-190 \u00b0C"}}