{"cas_no": "30578-37-1", "cn_name": "\u7532\u78fa\u7f8e\u55ea", "en_name": ["Amezinium metilsulfate", "Pyridazinium, 4-amino-6-methoxy-1-phenyl-, methyl sulfate (1:1)", "Pyridazinium, 4-amino-6-methoxy-1-phenyl-, methyl sulfate", "1-Phenyl-4-amino-6-methoxypyridazinium methyl sulfate", "Lu 1631", "Amezinium metilsulfate", "Regulton", "Amezinium methyl sulfate", "Risumic", "Supratonin"], "SMILES": "S(OC)(=O)(=O)[O-].O(C)C=1[N+](=NC=C(N)C1)C2=CC=CC=C2", "physical_data": {"Molecular Weight": "", "Molecular Formula": "C11H12N3O.CH3O4S", "Melting Point": "176 \u00b0C (decomp)"}}