{"cas_no": "3058-01-3", "cn_name": "3-\u7532\u57fa\u5df1\u4e8c\u9178", "en_name": ["(\u00b1)-3-Methyladipic acid", "Hexanedioic acid, 3-methyl-", "Adipic acid, \u03b2-methyl-", "3-Methylhexanedioic acid", "\u03b2-Methyladipic acid", "3-Methyladipic acid", "(\u00b1)-3-Methyladipic acid", "NSC 22069", "3-Methyl-1,6-Hexanedioic acid"], "SMILES": "C(CCC(O)=O)(CC(O)=O)C", "physical_data": {"Molecular Weight": "160.17", "Molecular Formula": "C7H12O4", "Boiling Point": "220-222 \u00b0C @ Press: 18 Torr", "Melting Point": "101 \u00b0C"}}