{"cas_no": "3058-47-7", "cn_name": "2-\u785d\u57fa\u786b\u4ee3\u7532\u919a", "en_name": ["1-(Methylthio)-2-nitrobenzene", "Benzene, 1-(methylthio)-2-nitro-", "Sulfide, methyl o-nitrophenyl", "1-(Methylthio)-2-nitrobenzene", "Methyl o-nitrophenyl sulfide", "Methyl 2-nitrophenyl sulfide", "o-Nitrothioanisole", "2-(Methylthio)nitrobenzene", "2-Nitrophenyl methyl sulfide", "NSC 62852", "1-Methylsulfanyl-2-nitro-benzene", "1-Methylsulfanyl-2-nitrobenzene", "1-(Methylsulfanyl)-2-nitrobenzene"], "SMILES": "S(C)C1=C(N(=O)=O)C=CC=C1", "physical_data": {"Molecular Weight": "169.20", "Molecular Formula": "C7H7NO2S", "Melting Point": "64-65 \u00b0C"}}