{"cas_no": "3058-04-6", "cn_name": "3,9-\u53cc(3-\u6c30\u57fa\u4e59\u57fa)-2,4,8,10-\u56db\u6c27\u6742\u87ba[5.5]\u5341\u4e00\u70f7", "en_name": ["2,4,8,10-Tetraoxaspiro[5.5]undecane-3,9-dipropanenitrile", "2,4,8,10-Tetraoxaspiro[5.5]undecane-3,9-dipropanenitrile", "2,4,8,10-Tetraoxaspiro[5.5]undecane-3,9-dipropionitrile", "3,9-Bis(2-cyanoethyl)-2,4,8,10-tetraoxaspiro[5.5]undecane"], "SMILES": "C(CC#N)C1OCC2(COC(CCC#N)OC2)CO1", "physical_data": {"Molecular Weight": "266.29", "Molecular Formula": "C13H18N2O4", "Boiling Point": "180-181 \u00b0C @ Press: 0.2 Torr", "Melting Point": "73-74 \u00b0C"}}