{"cas_no": "3058-39-7", "cn_name": "4-\u7898\u6c30\u57fa\u82ef", "en_name": ["4-Iodobenzonitrile", "Benzonitrile, 4-iodo-", "Benzonitrile, p-iodo-", "4-Iodobenzonitrile", "p-Cyanoiodobenzene", "p-Iodobenzonitrile", "p-Cyanophenyl iodide", "1-Cyano-4-iodobenzene", "4-Cyanoiodobenzene", "4-Iodocyanobenzene", "4-Cyanophenyl iodide", "NSC 87894", "4-Cyano-1-iodobenzene", "1-Iodo-4-cyanobenzene"], "SMILES": "C(#N)C1=CC=C(I)C=C1", "physical_data": {"Molecular Weight": "229.02", "Molecular Formula": "C7H4IN", "Melting Point": "128-129 \u00b0C"}}