{"cas_no": "306-92-3", "cn_name": "\u5168\u6c1f\u7532\u57fa\u5341\u6c22\u8418", "en_name": ["Perfluoro(1-methyldecalin)", "Naphthalene, 1,1,2,2,3,3,4,4,4a,5,5,6,6,7,7,8,8a-heptadecafluorodecahydro-8-(trifluoromethyl)-", "Naphthalene, heptadecafluorodecahydro-1-(trifluoromethyl)-", "1,1,2,2,3,3,4,4,4a,5,5,6,6,7,7,8,8a-Heptadecafluorodecahydro-8-(trifluoromethyl)naphthalene", "Perfluoro(1-methyldecalin)", "1-(Trifluoromethyl)perfluorodecalin", "Perfluoro(decahydro-1-methylnaphthalene)", "Flutec PP 9", "PP 9", "Perfluoromethyldecalin", "Perfluoromethyldecaline", "1,1,2,2,3,3,4,4,4a,5,5,6,6,7,7,8,8a-Heptadecafluoro-8-(trifluoromethyl)naphthalene"], "SMILES": "FC12C(F)(C(F)(F)C(F)(F)C(F)(F)C1(C(F)(F)F)F)C(F)(F)C(F)(F)C(F)(F)C2(F)F", "physical_data": {"Molecular Weight": "512.09", "Molecular Formula": "C11F20", "Boiling Point": "161 \u00b0C", "Melting Point": "-70 \u00b0C", "Density": "1.9606 g/cm\u00b3 @ Temp: 20 \u00b0C"}}