{"cas_no": "306-23-0", "cn_name": "3-(4-\u7f9f\u57fa\u82ef\u57fa)\u4e73\u9178", "en_name": ["(\u00b1)-3-(4-Hydroxyphenyl)lactic acid", "Benzenepropanoic acid, \u03b1,4-dihydroxy-", "Lactic acid, 3-(p-hydroxyphenyl)-", "\u03b1,4-Dihydroxybenzenepropanoic acid", "\u03b2-(p-Hydroxyphenyl)lactic acid", "3-(4-Hydroxyphenyl)lactic acid", "2-Hydroxy-3-(p-hydroxyphenyl)propionic acid", "\u03b2-(4-Hydroxyphenyl)lactic acid", "HPLA", "2-Hydroxy-3-(4-hydroxyphenyl)propanoic acid", "\u03b2-(p-Hydroxyphenyl)-DL-lactic acid", "DL-p-Hydroxyphenyllactic acid", "DL-3-(4-Hydroxyphenyl)lactic acid", "3-(4-Hydroxyphenyl)-DL-lactic acid", "(\u00b1)-3-(4-Hydroxyphenyl)lactic acid", "(RS)-3-(4-Hydroxyphenyl)lactic acid", "NSC 111175", "p-Hydroxy-dl-phenyllactic acid"], "SMILES": "C(C(C(O)=O)O)C1=CC=C(O)C=C1", "physical_data": {"Molecular Weight": "182.17", "Molecular Formula": "C9H10O4", "Melting Point": "140 \u00b0C"}}