{"cas_no": "306-91-2", "cn_name": "\u4e94\u6c1f\u82ef\u915a\u4e8c\u4e59\u57fa\u4e09\u7532\u57fa\u70ef\u916f", "en_name": ["Perfluoroperhydrophenanthrene", "Phenanthrene, 1,1,2,2,3,3,4,4,4a,4b,5,5,6,6,7,7,8,8,8a,9,9,10,10,10a-tetracosafluorotetradecahydro-", "Phenanthrene, tetracosafluorotetradecahydro-", "1,1,2,2,3,3,4,4,4a,4b,5,5,6,6,7,7,8,8,8a,9,9,10,10,10a-Tetracosafluorotetradecahydrophenanthrene", "Flutec PP 11", "Perfluoroperhydrophenanthrene", "PP 11", "Perfluorotetradecahydrophenanthrene", "Perfluorinated tetradecahydrophenanthrene", "Flutec PC 11", "FluoroMed APF 215HP", "1,1,2,2,3,3,4,4,4a,4b,5,5,6,6,7,7,8,8,8a,9,9,10,10,10a-Tetracosafluorophenanthrene"], "SMILES": "FC12C3(F)C(F)(C(F)(F)C(F)(F)C1(F)C(F)(F)C(F)(F)C(F)(F)C2(F)F)C(F)(F)C(F)(F)C(F)(F)C3(F)F", "physical_data": {"Molecular Weight": "624.11", "Molecular Formula": "C14F24", "Boiling Point": "210 \u00b0C", "Melting Point": "-20 \u00b0C"}}