{"cas_no": "306-31-0", "cn_name": "DL-BATA-\u7f9f\u57fa\u4e01\u9178\u94a0", "en_name": ["Sodium 3-hydroxybutyrate", "Butanoic acid, 3-hydroxy-, sodium salt (1:1)", "Butyric acid, 3-hydroxy-, monosodium salt", "Butanoic acid, 3-hydroxy-, monosodium salt", "Butyric acid, 3-hydroxy-, sodium salt", "Sodium \u03b2-hydroxybutyrate", "\u03b2-Hydroxybutyric acid sodium salt", "Sodium 3-hydroxybutyrate", "Sodium dl-\u03b2-hydroxybutyrate", "DL-\u03b2-Hydroxybutyric acid sodium salt"], "SMILES": "C(C(C)O)C(O)=O.[Na]", "physical_data": {"Molecular Weight": "", "Molecular Formula": "C4H8O3.Na", "Melting Point": "160 \u00b0C"}}