{"cas_no": "306-03-6", "cn_name": "\u6c22\u6eb4\u9178\u5929\u4ed9\u5b50\u80fa", "en_name": ["Hyoscyamine hydrobromide", "Benzeneacetic acid, \u03b1-(hydroxymethyl)-, (3-endo)-8-methyl-8-azabicyclo[3.2.1]oct-3-yl ester, hydrobromide (1:1), (\u03b1S)-", "1\u03b1H,5\u03b1H-Tropan-3\u03b1-ol, (-)-tropate (ester), hydrobromide", "Benzeneacetic acid, \u03b1-(hydroxymethyl)-, 8-methyl-8-azabicyclo[3.2.1]oct-3-yl ester, hydrobromide, [3(S)-endo]-", "Benzeneacetic acid, \u03b1-(hydroxymethyl)-, (3-endo)-8-methyl-8-azabicyclo[3.2.1]oct-3-yl ester, hydrobromide, (\u03b1S)-", "Daturine hydrobromide", "Hyoscyaminium bromide", "Hyoscyamine hydrobromide", "l-Hyoscyamine hydrobromide", "(-)-Atropine hydrobromide"], "SMILES": "O(C(C(CO)C1=CC=CC=C1)=O)C2CC3N(C)C(C2)CC3.Br", "physical_data": {"Molecular Weight": "", "Molecular Formula": "C17H23NO3.BrH", "Melting Point": "152 \u00b0C"}}