{"cas_no": "306-44-5", "cn_name": "2-\u6c27\u4ee3\u4e19\u919b-1-\u809f", "en_name": ["2-Oxopropanal 1-oxime", "Propanal, 2-oxo-, 1-oxime", "Pyruvaldehyde, 1-oxime", "Pyruvaldehyde, aldoxime", "2-Oxopropanal 1-oxime", "Isonitrosoacetone", "Monoisonitrosoacetone", "Pyruvaldoxime", "MINA", "2-Propanone, 1-(hydroxyimino)-", "Methylglyoxal aldoxime", "RA 52", "NSC 53172", "2-Oxopropanal oxime"], "SMILES": "C(C(C)=O)=NO", "physical_data": {"Molecular Weight": "87.08", "Molecular Formula": "C3H5NO2", "Melting Point": "69 \u00b0C"}}