{"cas_no": "306-07-0", "cn_name": "\u5df4\u5409\u6797,\u4f18\u964d\u5b81", "en_name": ["Pargyline hydrochloride", "Benzenemethanamine, N-methyl-N-2-propyn-1-yl-, hydrochloride (1:1)", "Benzylamine, N-methyl-N-2-propynyl-, hydrochloride", "Benzenemethanamine, N-methyl-N-2-propynyl-, hydrochloride", "N-Benzyl-N-methyl-2-propynylamine hydrochloride", "Eutonyl", "N-Methyl-N-(2-propynyl)benzylamine hydrochloride", "Pargyline hydrochloride", "Methylbenzylpropynylamine hydrochloride", "Eutonyl-ten", "NSC 43798", "MO 911", "A 19120"], "SMILES": "C(N(CC#C)C)C1=CC=CC=C1.Cl", "physical_data": {"Molecular Weight": "", "Molecular Formula": "C11H13N.ClH", "Melting Point": "154-155 \u00b0C"}}