{"cas_no": "306-08-1", "cn_name": "\u9ad8\u9999\u8349\u9178", "en_name": ["Homovanillic acid", "Benzeneacetic acid, 4-hydroxy-3-methoxy-", "Acetic acid, (4-hydroxy-3-methoxyphenyl)-", "4-Hydroxy-3-methoxybenzeneacetic acid", "HVA", "3-Methoxy-4-hydroxyphenylacetic acid", "Homovanillic acid", "Vanilacetic acid", "(4-Hydroxy-3-methoxyphenyl)acetic acid", "NSC 16682", "3\u2032-Methoxy-4\u2032-hydroxyphenylacetic acid", "MeSH ID: D006719"], "SMILES": "C(C(O)=O)C1=CC(OC)=C(O)C=C1", "physical_data": {"Molecular Weight": "182.17", "Molecular Formula": "C9H10O4", "Melting Point": "143.5 \u00b0C"}}