{"cas_no": "306-83-2", "cn_name": "2,2-\u4e8c\u6c2f-1,1,1-\u4e09\u6c1f\u4e59\u70f7", "en_name": ["2,2-Dichloro-1,1,1-trifluoroethane", "Ethane, 2,2-dichloro-1,1,1-trifluoro-", "2,2-Dichloro-1,1,1-trifluoroethane", "1,1-Dichloro-2,2,2-trifluoroethane", "1,1,1-Trifluoro-2,2-dichloroethane", "Dichloro(trifluoromethyl)methane", "R 123", "Freon 123", "1,1,1-Trifluorodichloroethane", "FC 123", "CFC 123", "Fron 123", "HCFC 123", "F 123", "HFA 123", "Solkane 123", "F 123 (halocarbon)", "Khladon 123"], "SMILES": "C(C(Cl)Cl)(F)(F)F", "physical_data": {"Molecular Weight": "152.93", "Molecular Formula": "C2HCl2F3", "Boiling Point": "27.82 \u00b0C", "Melting Point": "-107 \u00b0C", "Density": "1.4638 g/cm\u00b3 @ Temp: 25 \u00b0C"}}