{"cas_no": "306-98-9", "cn_name": "1,1,2,2,3,3,4,4,5,6-\u5341\u6c1f\u4ee3-5,6-\u53cc(\u4e09\u6c1f\u4ee3\u7532\u57fa)\u73af\u5df1\u70f7", "en_name": ["Perfluoro-1,2-dimethylcyclohexane", "Cyclohexane, 1,1,2,2,3,3,4,4,5,6-decafluoro-5,6-bis(trifluoromethyl)-", "Cyclohexane, decafluoro-1,2-bis(trifluoromethyl)-", "1,1,2,2,3,3,4,4,5,6-Decafluoro-5,6-bis(trifluoromethyl)cyclohexane", "Perfluoro-1,2-dimethylcyclohexane"], "SMILES": "C(F)(F)(F)C1(F)C(C(F)(F)F)(F)C(F)(F)C(F)(F)C(F)(F)C1(F)F", "physical_data": {"Molecular Weight": "400.06", "Molecular Formula": "C8F16", "Boiling Point": "101.5 \u00b0C", "Melting Point": "-56 \u00b0C", "Density": "1.8672 g/cm\u00b3 @ Temp: 20 \u00b0C"}}