{"cas_no": "306-94-5", "cn_name": "\u5168\u6c1f\u8418\u70f7", "en_name": ["Perfluorodecalin", "Naphthalene, 1,1,2,2,3,3,4,4,4a,5,5,6,6,7,7,8,8,8a-octadecafluorodecahydro-", "Naphthalene, octadecafluorodecahydro-", "1,1,2,2,3,3,4,4,4a,5,5,6,6,7,7,8,8,8a-Octadecafluorodecahydronaphthalene", "Perfluorodecahydronaphthalene", "Perfluorodecalin", "Flutec PP 5", "Octadecafluorodecahydronaphthalene", "PP 5", "FDC", "Flutec PP 7", "Octadecafluorodecalin", "Decalin perfluoride", "Perflunafene", "Flutec PP 6", "APF 140", "NSC 97066", "PP 6", "1,1,2,2,3,3,4,4,4a,5,5,6,6,7,7,8,8,8a-Octadecafluoronaphthalene"], "SMILES": "FC12C(F)(C(F)(F)C(F)(F)C(F)(F)C1(F)F)C(F)(F)C(F)(F)C(F)(F)C2(F)F", "physical_data": {"Molecular Weight": "462.08", "Molecular Formula": "C10F18", "Boiling Point": "142 \u00b0C", "Melting Point": "-10 \u00b0C", "Density": "1.9456 g/cm\u00b3 @ Temp: 20 \u00b0C"}}