{"cas_no": "306-67-2", "cn_name": "\u7cbe\u80fa\u56db\u76d0\u9178\u76d0", "en_name": ["Spermine tetrahydrochloride", "1,4-Butanediamine, N1,N4-bis(3-aminopropyl)-, hydrochloride (1:4)", "1,4-Butanediamine, N,N\u2032-bis(3-aminopropyl)-, tetrahydrochloride", "Spermine hydrochloride", "Spermine tetrahydrochloride", "N,N\u2032-Bis(3-aminopropyl)-1,4-butanediamine tetrahydrochloride", "1,5,10,14-Tetraazoniatetradecane tetrachloride"], "SMILES": "C(CCNCCCN)CNCCCN.Cl", "physical_data": {"Molecular Weight": "", "Molecular Formula": "C10H26N4.4ClH", "Melting Point": "310-311 \u00b0C (decomp)"}}