{"cas_no": "306-37-6", "cn_name": "\u4e8c\u7532\u57fa\u80bc\u5421\u5576", "en_name": ["Dimethylhydrazine dihydrochloride", "Hydrazine, 1,2-dimethyl-, hydrochloride (1:2)", "Hydrazine, 1,2-dimethyl-, dihydrochloride", "1,2-Dimethylhydrazine dihydrochloride", "1,2-Dimethylhydrazine hydrochloride", "N,N\u2032-Dimethylhydrazine dihydrochloride", "Dimethylhydrazinium dichloride", "Dimethylhydrazine dihydrochloride", "sym-Dimethylhydrazine dihydrochloride", "1,2-Dimethylhydrazinium dichloride"], "SMILES": "N(NC)C.Cl", "physical_data": {"Molecular Weight": "", "Molecular Formula": "C2H8N2.2ClH", "Melting Point": "164-166 \u00b0C"}}