{"cas_no": "3060-89-7", "cn_name": "\u6eb4\u8c37\u9686", "en_name": ["Metobromuron", "Urea, N\u2032-(4-bromophenyl)-N-methoxy-N-methyl-", "Urea, 3-(p-bromophenyl)-1-methoxy-1-methyl-", "N\u2032-(4-Bromophenyl)-N-methoxy-N-methylurea", "C 3126", "N-(4-Bromophenyl)-N\u2032-methyl-N\u2032-methoxyurea", "3-(4-Bromophenyl)-1-methyl-1-methoxyurea", "Metobromuron", "Patoran", "N-(p-Bromophenyl)-N\u2032-methyl-N\u2032-methoxyurea", "1-Methoxy-1-methyl-3-(p-bromophenyl)urea", "Metbromuron", "3-(p-Bromophenyl)-1-methyl-1-methoxyurea", "N-(4-Bromophenyl)-N\u2032-methoxy-N\u2032-methylurea", "1-(p-Bromophenyl)-3-methoxy-3-methylurea", "3-(p-Bromophenyl)-1-methoxy-1-methylurea", "1-Methoxy-1-methyl-3-(4-bromophenyl)urea", "Monobromuron", "3-(4-Bromophenyl)-1-methoxy-1-methylurea"], "SMILES": "N(C(N(OC)C)=O)C1=CC=C(Br)C=C1", "physical_data": {"Molecular Weight": "259.10", "Molecular Formula": "C9H11BrN2O2", "Melting Point": "95-96 \u00b0C"}}