{"cas_no": "3060-50-2", "cn_name": "2,2-\u4e8c\u82ef\u57fa\u7518\u6c28\u9178", "en_name": ["2,2-Diphenylglycine", "Benzeneacetic acid, \u03b1-amino-\u03b1-phenyl-", "Glycine, 2,2-diphenyl-", "\u03b1-Amino-\u03b1-phenylbenzeneacetic acid", "2,2-Diphenylglycine", "\u03b1-Aminodiphenylacetic acid", "\u03b1,\u03b1-Diphenylglycine", "2-Amino-2,2-diphenylacetic acid", "NSC 33392", "Amino(diphenyl)acetic acid"], "SMILES": "C(C(O)=O)(N)(C1=CC=CC=C1)C2=CC=CC=C2", "physical_data": {"Molecular Weight": "227.26", "Molecular Formula": "C14H13NO2", "Melting Point": "245 \u00b0C"}}