{"cas_no": "30604-81-0", "cn_name": "\u805a\u5421\u54af", "en_name": ["Polypyrrole", "1H-Pyrrole, homopolymer", "Pyrrole, polymers", "Polypyrrole", "Pyrrole polymer", "Pyrrole homopolymer", "Lutamer P 160", "PPY 12", "Lutamer ES 9567", "Poly(1H-pyrrole)", "ST-Poly", "Basotronic PYR", "Polyazole", "Coreron YE", "HMDI-pyrrole graft copolymer", "FA 946329"], "SMILES": "C=1C=CNC1", "physical_data": {"Molecular Weight": "", "Molecular Formula": "(C4H5N)x", "Melting Point": "&gt;300 \u00b0C", "Density": "0.87 g/cm\u00b3"}}