{"cas_no": "30608-62-9", "cn_name": "(S)-(-)-1,2-\u73af\u6c27\u4e01\u70f7", "en_name": ["(2S)-2-Ethyloxirane", "Oxirane, 2-ethyl-, (2S)-", "Butane, 1,2-epoxy-, (S)-(-)-", "Oxirane, ethyl-, (S)-", "Oxirane, ethyl-, (2S)-", "(2S)-2-Ethyloxirane", "(S)-1,2-Epoxybutane", "(S)-Ethyloxirane", "(S)-1-Butene oxide", "(S)-2-Ethyloxirane", "(2S)-2-Ethyloxirane"], "SMILES": "C(C)C1CO1", "physical_data": {"Molecular Weight": "72.11", "Molecular Formula": "C4H8O", "Boiling Point": "56-58 \u00b0C @ Press: 760 Torr"}}