{"cas_no": "30614-77-8", "cn_name": "\u4e8c\u4e59\u916f3,4-\u544b\u5583\u4e8c\u7532\u9178", "en_name": ["3,4-Diethyl 3,4-furandicarboxylate", "3,4-Furandicarboxylic acid, 3,4-diethyl ester", "3,4-Furandicarboxylic acid, diethyl ester", "3,4-Diethyl 3,4-furandicarboxylate", "Diethyl 3,4-furandicarboxylate", "2,3-Bis(ethoxycarbonyl)furan", "3,4-Bis(ethoxycarbonyl)furan", "3,4-Diethyl furan-3,4-dicarboxylate"], "SMILES": "C(OCC)(=O)C=1C(C(OCC)=O)=COC1", "physical_data": {"Molecular Weight": "212.20", "Molecular Formula": "C10H12O5", "Boiling Point": "125-127 \u00b0C @ Press: 6 Torr", "Density": "1.165 g/cm\u00b3 @ Temp: 2 \u00b0C"}}