{"cas_no": "3061-88-9", "cn_name": "\u4e19\u6c28\u9170-L-\u916a\u6c28\u9178", "en_name": ["L-Alanyl-L-tyrosine", "L-Tyrosine, L-alanyl-", "Tyrosine, N-L-alanyl-, L-", "L-Tyrosine, N-L-alanyl-", "Tyrosine, N-L-alanyl-", "Tyrosine, N-alanyl-", "L-Alanyl-L-tyrosine", "10: PN: JP2006248976 SEQID: 10 claimed protein", "73: PN: US20070066537 PAGE: 17 claimed protein", "48: PN: WO2007067983 SEQID: 197 unclaimed protein", "183: PN: EP2161028 PAGE: 10 claimed protein", "8: PN: WO2017060857 PAGE: 86 claimed sequence"], "SMILES": "C(NC(C(C)N)=O)(CC1=CC=C(O)C=C1)C(O)=O", "physical_data": {"Molecular Weight": "252.27", "Molecular Formula": "C12H16N2O4", "Melting Point": "238-240 \u00b0C (decomp)"}}