{"cas_no": "3061-36-7", "cn_name": "1,4-\u4e8c\u82ef\u6c27\u57fa\u82ef", "en_name": ["1,4-Diphenoxybenzene", "Benzene, 1,4-diphenoxy-", "Benzene, p-diphenoxy-", "1,4-Diphenoxybenzene", "p-Diphenoxybenzene", "p-Phenoxyphenoxybenzene", "4-Phenoxydiphenyl oxide", "Hydroquinone diphenyl ether", "p-Bis(p-phenoxyphenoxy)benzene"], "SMILES": "O(C1=CC=C(OC2=CC=CC=C2)C=C1)C3=CC=CC=C3", "physical_data": {"Molecular Weight": "262.30", "Molecular Formula": "C18H14O2", "Boiling Point": "371-372 \u00b0C @ Press: 770 Torr", "Melting Point": "77 \u00b0C"}}