{"cas_no": "3061-75-4", "cn_name": "\u4e8c\u5341\u4e8c\u9170\u80fa", "en_name": ["Behenamide", "Docosanamide", "Behenamide", "Behenic acid amide", "Behenylamide", "Kemamide B", "BNT 22H", "Behenic amide", "BNT", "Diamid B 45", "Denon LS 8", "Diamid B 90", "Diamid BL", "Crodamide BR", "Diamid BM", "BNT (lubricant)", "Incroslip B", "Alflow B 10", "Lutamide BR", "BNT 22", "BNT 11", "Finawax BR", "Finawax B", "Diamid BH"], "SMILES": "C(CCCCCCCCCCCCCC)CCCCCCC(N)=O", "physical_data": {"Molecular Weight": "339.60", "Molecular Formula": "C22H45NO", "Melting Point": "111-112 \u00b0C"}}