{"cas_no": "3061-65-2", "cn_name": "\u4e59\u9178-1-\u6c30\u57fa\u4e59\u70ef\u916f(\u542b\u7a33\u5b9a\u5242\u53d4\u4e01\u57fa\u90bb\u82ef\u4e8c\u915a)", "en_name": ["2-(Acetyloxy)-2-propenenitrile", "2-Propenenitrile, 2-(acetyloxy)-", "Acrylonitrile, 2-hydroxy-, acetate (ester)", "Acrylonitrile, 2-hydroxy-, acetate", "2-(Acetyloxy)-2-propenenitrile", "Acetic acid, 1-cyanovinyl ester", "\u03b1-Acetoxyacrylonitrile", "2-Acetoxyacrylonitrile", "\u03b1-Cyanovinyl acetate", "1-Cyanovinyl acetate", "2-Acetoxypropenenitrile", "1-Cyanoethenyl acetate"], "SMILES": "C(OC(C)=O)(C#N)=C", "physical_data": {"Molecular Weight": "111.10", "Molecular Formula": "C5H5NO2", "Boiling Point": "104-107 \u00b0C @ Press: 100 Torr", "Density": "1.063 g/cm\u00b3 @ Temp: 20 \u00b0C"}}