{"cas_no": "30633-94-4", "cn_name": "N-(4-\u7532\u6c27\u57fa-2-\u7f9f\u57fa\u82ef\u4e9a\u7532\u57fa)-4-\u6b63\u4e01\u57fa\u82ef\u80fa", "en_name": ["2-[[(4-Butylphenyl)imino]methyl]-5-methoxyphenol", "Phenol, 2-[[(4-butylphenyl)imino]methyl]-5-methoxy-", "Phenol, 2-[N-(p-butylphenyl)formimidoyl]-5-methoxy-", "2-[[(4-Butylphenyl)imino]methyl]-5-methoxyphenol", "N-(o-Hydroxy-p-methoxybenzylidene)-p-butylaniline", "N-(2-Hydroxy-4-methoxybenzylidene)-4\u2032-butylaniline", "o-Hydroxy-p-methoxybenzylidene-p\u2032-n-butylaniline", "N-(2-Hydroxy-4-methoxybenzylidene)-p-butylaniline"], "SMILES": "C(=NC1=CC=C(CCCC)C=C1)C2=C(O)C=C(OC)C=C2", "physical_data": {"Molecular Weight": "283.36", "Molecular Formula": "C18H21NO2", "Melting Point": "314.30 \u00b0C"}}