{"cas_no": "3063-05-6", "cn_name": "H-LEU-PHE-OH", "en_name": ["L-Leucyl-L-phenylalanine", "L-Phenylalanine, L-leucyl-", "Alanine, N-L-leucyl-3-phenyl-, L-", "L-Phenylalanine, N-L-leucyl-", "Alanine, N-L-leucyl-3-phenyl-", "Alanine, N-leucyl-3-phenyl-", "L-Leucyl-L-phenylalanine", "Leucylphenylalanine", "NSC 89191", "218: PN: EP2161028 PAGE: 11 claimed protein", "165: PN: WO2010045512 SEQID: 174 unclaimed protein", "326: PN: WO2010059829 SEQID: 354 unclaimed protein", "301: PN: WO2014145242 PAGE: 31 claimed protein", "45: PN: WO2020097235 SEQID: 274 claimed protein"], "SMILES": "C(C(NC(C(CC(C)C)N)=O)C(O)=O)C1=CC=CC=C1", "physical_data": {"Molecular Weight": "278.35", "Molecular Formula": "C15H22N2O3", "Melting Point": "218-220 \u00b0C"}}