{"cas_no": "30636-90-9", "cn_name": "\u539f\u4eba\u53c2\u4e8c\u9187", "en_name": ["(20S)-Protopanaxadiol", "Dammar-24-ene-3,12,20-triol, (3\u03b2,12\u03b2)-", "Dammar-24-ene-3\u03b2,12\u03b2,20-triol", "(3\u03b2,12\u03b2)-Dammar-24-ene-3,12,20-triol", "20-Epiprotopanaxadiol", "(20S)-Protopanaxadiol", "20(S)-APPD"], "SMILES": "CC12C3(C)C(C(C(CCC=C(C)C)(C)O)CC3)C(O)CC1C4(C)C(CC2)C(C)(C)C(O)CC4", "physical_data": {"Molecular Weight": "460.73", "Molecular Formula": "C30H52O3", "Melting Point": "197-200 \u00b0C"}}