{"cas_no": "3064-73-1", "cn_name": "\u4e8c\u786b\u5316\u4e8c\u5f02\u4e01\u57fa\u79cb\u5170\u59c6", "en_name": ["Tetraisobutylthiuram disulfide", "Thioperoxydicarbonic diamide ([(H2N)C(S)]2S2), N,N,N\u2032,N\u2032-tetrakis(2-methylpropyl)-", "Disulfide, bis(diisobutylthiocarbamoyl)", "Thioperoxydicarbonic diamide ([(H2N)C(S)]2S2), tetrakis(2-methylpropyl)-", "Bis(diisobutylthiocarbamoyl) disulfide", "Tetraisobutylthiuram disulfide", "N,N,N\u2032,N\u2032-Tetraisobutylthiuram disulfide", "Isobutyl Tuads", "Cure-rite IBT"], "SMILES": "N(C(SSC(N(CC(C)C)CC(C)C)=S)=S)(CC(C)C)CC(C)C", "physical_data": {"Molecular Weight": "408.75", "Molecular Formula": "C18H36N2S4", "Melting Point": "73.5-74.5 \u00b0C"}}