{"cas_no": "30652-11-0", "cn_name": "\u53bb\u94c1\u916e", "en_name": ["Deferiprone", "4(1H)-Pyridinone, 3-hydroxy-1,2-dimethyl-", "4(1H)-Pyridone, 3-hydroxy-1,2-dimethyl-", "3-Hydroxy-1,2-dimethyl-4(1H)-pyridinone", "1,2-Dimethyl-3-hydroxy-4-pyridone", "CP 20", "CP 20 (chelating agent)", "3-Hydroxy-1,2-dimethyl-4-pyridone", "Deferiprone", "L 1", "L 1 (chelating agent)", "3-Hydroxy-1,2-dimethyl-4-pyridinone", "CGP 37391", "1,2-Dimethyl-3-hydroxy-4(1H)-pyridinone", "1,2-Dimethyl-3-hydroxypyridin-4-one", "1,2-Dimethyl-3-hydroxypyridine-4-one", "Deferione", "Ferriprox", "3-Hydroxy-1,2-dimethyl-4(1H)-pyridone", "PL 1", "APO 66", "DN 18001AF", "Ferinil", "3-Hydroxy-1,2-dimethyl-1,4-dihydropyridin-4-one"], "SMILES": "OC1=C(C)N(C)C=CC1=O", "physical_data": {"Molecular Weight": "139.15", "Molecular Formula": "C7H9NO2", "Melting Point": "260-265 \u00b0C (decomp)"}}