{"cas_no": "3065-79-0", "cn_name": "3-\u4e59\u57fa-2-[3-(3-\u4e59\u57fa-3H-\u82ef\u5e76\u567b\u5511-2-\u4e9a\u57fa)-2-\u7532\u57fa\u4e19-1-\u70ef\u57fa]\u82ef\u5e76\u567b\u5511\u7898\u5316\u7269", "en_name": ["3,3\u2032-Diethyl-9-methylthiacarbocyanine iodide", "Benzothiazolium, 3-ethyl-2-[3-(3-ethyl-2(3H)-benzothiazolylidene)-2-methyl-1-propen-1-yl]-, iodide (1:1)", "Benzothiazolium, 3-ethyl-2-[3-(3-ethyl-2-benzothiazolinylidene)-2-methylpropenyl]-, iodide", "Benzothiazolium, 3-ethyl-2-[3-(3-ethyl-2(3H)-benzothiazolylidene)-2-methyl-1-propenyl]-, iodide", "3-Ethyl-2-[3-(3-ethyl-2-benzothiazolinylidene)-2-methylpropenyl]benzothiazolium iodide", "Thiacarbocyanine iodide, 3,3\u2032-diethyl-9-methyl-", "3,3\u2032-Diethyl-9-methylthiacarbocyanine iodide", "3,3\u2032-Diethyl-9-methyl-2,2\u2032-thiacarbocyanine iodide", "Bis(3-ethyl-2-benzothiazole)-\u03b2-methyltrimethinecyanine iodide", "NK 77", "ST 656", "3-Ethyl-2-(3-(3-ethylbenzo[d]thiazol-2(3H)-ylidene)-2-methylprop-1-en-1-yl)benzo[d]thiazol-3-ium iodide"], "SMILES": "C(C)N1C=2C(SC1=CC(=CC3=[N+](CC)C=4C(S3)=CC=CC4)C)=CC=CC2.[I-]", "physical_data": {"Molecular Weight": "", "Molecular Formula": "C22H23N2S2.I", "Melting Point": "285 \u00b0C"}}