{"cas_no": "3066-90-8", "cn_name": "2,3-\u4e8c\u7532\u6c27\u57fa-5-\u7532\u57fa-1,4-\u82ef\u4e8c\u915a", "en_name": ["2,3-Dimethoxy-5-methyl-1,4-benzenediol", "1,4-Benzenediol, 2,3-dimethoxy-5-methyl-", "Hydroquinone, 2,3-dimethoxy-5-methyl-", "2,3-Dimethoxy-5-methyl-1,4-benzenediol", "Coenzyme Q0, dihydro-", "Reduced coenzyme Q0", "2,3-Dimethoxy-5-methyl-1,4-hydroquinone", "2,3-Dimethoxy-5-methyl-1,4-benzohydroquinone", "Ubiquinol 0", "2,3-Dimethoxy-5-methylhydroquinone", "2,3-Dimethoxy-5-methylbenzohydroquinone", "2,3-Dimethoxy-5-methyl-1,4-dihydroxybenzene"], "SMILES": "O(C)C1=C(OC)C(O)=C(C)C=C1O", "physical_data": {"Molecular Weight": "184.19", "Molecular Formula": "C9H12O4", "Melting Point": "74.5-75.5 \u00b0C"}}