{"cas_no": "3066-71-5", "cn_name": "2-\u4e19\u70ef\u9178\u73af\u5df1\u57fa\u916f", "en_name": ["Cyclohexyl acrylate", "2-Propenoic acid, cyclohexyl ester", "Acrylic acid, cyclohexyl ester", "Cyclohexyl acrylate", "Sartomer SR 220", "SR 220", "Viscoat 155", "NSC 18612", "Viscoat 115", "V 155", "Viscoat V 155", "Cyclohexyl 2-propenoate", "Blemmer CHA"], "SMILES": "O(C(C=C)=O)C1CCCCC1", "physical_data": {"Molecular Weight": "154.21", "Molecular Formula": "C9H14O2", "Boiling Point": "75 \u00b0C @ Press: 11 Torr", "Density": "0.9705 g/cm\u00b3 @ Temp: 20 \u00b0C"}}