{"cas_no": "3066-86-2", "cn_name": "5-\u6eb4\u80de\u82f7", "en_name": ["5-Bromocytidine", "Cytidine, 5-bromo-", "5-Bromocytidine"], "SMILES": "OC1C(OC(CO)C1O)N2C(=O)N=C(N)C(Br)=C2", "physical_data": {"Molecular Weight": "322.11", "Molecular Formula": "C9H12BrN3O5", "Melting Point": "183-185 \u00b0C"}}