{"cas_no": "3066-75-9", "cn_name": "\u78f7\u9178\u70ef\u4e19\u57fa\u4e8c\u4e59\u916f", "en_name": ["Diethyl 2-propen-1-yl phosphate", "Phosphoric acid, diethyl 2-propen-1-yl ester", "Phosphoric acid, diethyl 2-propenyl ester", "Allyl ethyl phosphate ((C3H5O)(EtO)2PO)", "Diethyl 2-propen-1-yl phosphate", "Allyl diethyl phosphate", "NSC 23727"], "SMILES": "P(OCC=C)(OCC)(OCC)=O", "physical_data": {"Molecular Weight": "194.17", "Molecular Formula": "C7H15O4P", "Boiling Point": "110-111 \u00b0C @ Press: 11 Torr"}}