{"cas_no": "30674-80-7", "cn_name": "\u7532\u57fa\u4e19\u70ef\u9178\u5f02\u6c30\u57fa\u4e59\u916f", "en_name": ["2-Isocyanatoethyl methacrylate", "2-Propenoic acid, 2-methyl-, 2-isocyanatoethyl ester", "Methacrylic acid, 2-isocyanatoethyl ester", "Isocyanic acid, 2-hydroxyethyl ester methacrylate (ester)", "Methacrylic acid \u03b2-isocyanatoethyl ester", "\u03b2-Isocyanatoethyl methacrylate", "2-Isocyanatoethyl methacrylate", "Karenz MOI", "2-(Methacryloyloxy)ethyl isocyanate", "2-(Methacryloxy)ethyl isocyanate", "2-Isocyanatoethyl 2-methylacrylate", "2-Isocyanatoethyl 2-methyl-2-propenoate", "Aldrich 477060", "2-Isocyanatoethyl methacrylic acid"], "SMILES": "C(OCCN=C=O)(C(C)=C)=O", "physical_data": {"Molecular Weight": "155.15", "Molecular Formula": "C7H9NO3", "Boiling Point": "87-89 \u00b0C @ Press: 10 Torr", "Melting Point": "56 \u00b0C"}}