{"cas_no": "3067-19-4", "cn_name": "N-\u4e59\u9170-DL-\u7f2c\u6c28\u9178", "en_name": ["N-Acetylvaline", "Valine, N-acetyl-", "Valine, N-acetyl-, DL-", "DL-Valine, N-acetyl-", "N-Acetylvaline", "N-Acetyl-DL-valine", "Acetyl-DL-valine", "DL-N-Acetylvaline", "NSC 122016", "2-Acetamido-3-methylbutanoic acid"], "SMILES": "C(NC(C)=O)(C(C)C)C(O)=O", "physical_data": {"Molecular Weight": "159.18", "Molecular Formula": "C7H13NO3", "Melting Point": "148-149 \u00b0C"}}