{"cas_no": "3068-88-0", "cn_name": "B-\u4e01\u5185\u916f", "en_name": ["\u03b2-Butyrolactone", "2-Oxetanone, 4-methyl-", "Butyric acid, 3-hydroxy-, \u03b2-lactone", "Butyric acid, \u03b2-hydroxy-, lactone", "4-Methyl-2-oxetanone", "\u03b2-Butyrolactone", "3-Hydroxybutyric acid lactone", "Butanoic acid, 3-hydroxy-, \u03b2-lactone", "\u03b2-Methylpropiolactone", "\u03b2-Methyl-\u03b2-propiolactone", "(\u00b1)-\u03b2-Butyrolactone", "(RS)-\u03b2-Butyrolactone", "DL-\u03b2-Butyrolactone", "(\u00b1)-\u03b2-Methylpropiolactone", "rac-\u03b2-Butyrolactone"], "SMILES": "CC1CC(=O)O1", "physical_data": {"Molecular Weight": "86.09", "Molecular Formula": "C4H6O2", "Boiling Point": "56-58 \u00b0C @ Press: 9 Torr", "Density": "1.044 g/cm\u00b3 @ Temp: 15.630 \u00b0C"}}