{"cas_no": "3068-34-6", "cn_name": "2-\u4e59\u9170\u6c28\u57fa-3,4,6-\u4e09-O-\u4e59\u9170-2-\u8131\u6c27-\u0391-D-\u5421\u5583\u8461\u8404\u7cd6\u9170\u57fa\u6c2f", "en_name": ["2-Acetamido-3,4,6-tri-O-acetyl-2-deoxy-\u03b1-D-glucopyranosyl chloride", "\u03b1-D-Glucopyranosyl chloride, 2-(acetylamino)-2-deoxy-, 3,4,6-triacetate", "Glucopyranosyl chloride, 2-acetamido-2-deoxy-, 3,4,6-triacetate, \u03b1-D-", "Glucopyranosyl chloride, 2-acetamido-2-deoxy-, triacetate", "2-Acetamido-2-deoxy-3,4,6-tri-O-acetyl-\u03b1-D-glucopyranosyl chloride", "2-Acetamido-3,4,6-tri-O-acetyl-2-deoxy-\u03b1-D-glucopyranosyl chloride", "1-Chloro-1-deoxy-2,3,4,6-tetra-O-acetyl-\u03b1-D-glucosamine", "N,3,4,6-O-Tetraacetyl-\u03b1-D-glucosaminyl chloride", "N-Acetyl-3,4,6-tri-O-acetyl-\u03b1-D-glucosamin-2-yl chloride", "2-Acetamido-3,4,6-tri-O-acetyl-2-deoxya-D-glucopyranosyl chloride"], "SMILES": "O(C(C)=O)C1C(OC(C)=O)C(COC(C)=O)OC(Cl)C1NC(C)=O", "physical_data": {"Molecular Weight": "365.76", "Molecular Formula": "C14H20ClNO8", "Melting Point": "126-127 \u00b0C"}}