{"cas_no": "30684-07-2", "cn_name": "N-\u7532\u57fa-3-\u82ef\u57fa\u4e19\u57fa\u6c2f\u5316\u94f5", "en_name": ["Benzenepropanamine, N-methyl-, hydrochloride (1:1)", "Benzenepropanamine, N-methyl-, hydrochloride (1:1)", "Propylamine, N-methyl-3-phenyl-, hydrochloride", "Benzenepropanamine, N-methyl-, hydrochloride", "N-Methyl-3-phenylpropylammonium chloride"], "SMILES": "C(CCNC)C1=CC=CC=C1.Cl", "physical_data": {"Molecular Weight": "", "Molecular Formula": "C10H15N.ClH", "Melting Point": "145.6-146.1 \u00b0C"}}