{"cas_no": "3068-32-4", "cn_name": "2,3,4,6-\u56db\u4e59\u9170\u6c27\u57fa-alpha-D-\u5421\u5583\u7cd6\u6eb4\u5316\u7269", "en_name": ["\u03b1-Acetobromogalactose", "\u03b1-D-Galactopyranosyl bromide, 2,3,4,6-tetraacetate", "\u03b1-D-Galactopyranosyl bromide, tetraacetate", "Galactopyranosyl bromide, tetraacetate, \u03b1-D-", "2,3,4,6-Tetra-O-acetyl-\u03b1-D-galactopyranosyl bromide", "\u03b1-D-Acetobromogalactose", "Tetra-O-acetyl-\u03b1-D-galactopyranosyl bromide", "\u03b1-Acetobromogalactose", "Acetylbromogalactose", "\u03b1-Bromotetraacetylgalactose", "2,3,4,6-Tetraacetyl-\u03b1-D-galactosyl bromide", "2,3,4,6-Tetra-O-acetyl-\u03b1-D-galactosyl bromide", "2,3,4,6-Tetraacetyl-\u03b1-D-galactopyranosyl bromide", "Acetobromo-\u03b1-D-galactose", "Acetobromogalactose", "1-\u03b1-Bromo-2,3,4,6-tetraacetyl-D-galactopyranose", "Tetraacetyl-\u03b1-D-galactopyranosyl bromide", "Tetra-O-acetyl-\u03b1-D-galactosyl bromide", "1-Bromo-2,3,4,6-tetra-O-Acetyl-\u03b1-D-galactopyranose", "2,3,4,6-Tetra-O-acetyl-\u03b1-D-galactopyranosyl-1-bromide", "(2R,3S,4S,5R,6R)-2-(Acetoxymethyl)-6-bromotetrahydro-2H-pyran-3,4,5-triyl triacetate"], "SMILES": "O(C(C)=O)C1C(OC(C)=O)C(COC(C)=O)OC(Br)C1OC(C)=O", "physical_data": {"Molecular Weight": "411.20", "Molecular Formula": "C14H19BrO9", "Melting Point": "79-81 \u00b0C"}}