{"cas_no": "3068-76-6", "cn_name": "N-\u82ef\u57fa-3-\u6c28\u57fa\u4e19\u57fa\u4e09\u7532\u6c27\u57fa\u7845\u70f7", "en_name": ["N-Phenyl-3-aminopropyltrimethoxysilane", "Benzenamine, N-[3-(trimethoxysilyl)propyl]-", "Aniline, N-[3-(trimethoxysilyl)propyl]-", "Silane, (3-anilinopropyl)trimethoxy-", "N-[3-(Trimethoxysilyl)propyl]benzenamine", "Y 5669", "Trimethoxy[3-(phenylamino)propyl]silane", "P 0156", "(\u03b3-Anilinopropyl)trimethoxysilane", "\u03b3-[(Phenylamino)propyl]trimethoxysilane", "3-(N-Phenylaminopropyl)trimethoxysilane", "KBM 573", "(N-Phenyl-\u03b3-aminopropyl)trimethoxysilane", "SZ 6083", "3-(Phenylaminopropyl)trimethoxysilane", "Y 9669", "N-[3-(Trimethoxysilyl)propyl]aniline", "(3-Anilinopropyl)trimethoxysilane", "Silquest Y 9669", "A 9669", "Y 6996", "N-Phenyl-3-aminopropyltrimethoxysilane", "U 141", "Z 6883", "SIP 6724.0", "Phenylaminopropyltrimethoxysilane", "CF 4083", "\u03b3-Anilinopropyltrimethoxysilane", "\u03b3-N-Phenylaminopropyltrimethoxysilane", "XS 1075", "X 12-1191", "UP 908", "HM 71"], "SMILES": "[Si](CCCNC1=CC=CC=C1)(OC)(OC)OC", "physical_data": {"Molecular Weight": "255.39", "Molecular Formula": "C12H21NO3Si", "Boiling Point": "132-135 \u00b0C @ Press: 0.3 Torr", "Density": "1.070 g/cm\u00b3"}}