{"cas_no": "3068-78-8", "cn_name": "\u73af\u5df1\u80fa\u57fa\u4e19\u57fa\u4e09\u7532\u6c27\u57fa\u7845\u70f7", "en_name": ["N-[3-(Trimethoxysilyl)propyl]cyclohexanamine", "Cyclohexanamine, N-[3-(trimethoxysilyl)propyl]-", "Cyclohexylamine, N-[3-(trimethoxysilyl)propyl]-", "N-[3-(Trimethoxysilyl)propyl]cyclohexanamine", "[3-(Cyclohexylamino)propyl]trimethoxysilane", "SLM 50-892", "PSX 5411", "GF 92", "MA 0701B", "(N-Cyclohexyl-3-aminopropyl)trimethoxysilane", "Geniosil GF 92", "LMD 58", "\u03b3-N-Cyclohexylaminopropyltrimethoxysilane", "N-[3-[Trimethoxysilyl]propyl]cyclohexylamine", "\u03b3-Cyclohexylaminopropyltrimethoxysilane"], "SMILES": "[Si](CCCNC1CCCCC1)(OC)(OC)OC", "physical_data": {"Molecular Weight": "261.43", "Molecular Formula": "C12H27NO3Si", "Boiling Point": "114 \u00b0C @ Press: 3 Torr", "Density": "0.99 g/cm\u00b3"}}