{"cas_no": "3068-00-6", "cn_name": "1,2,4-\u4e01\u4e09\u9187", "en_name": ["1,2,4-Butanetriol", "1,2,4-Butanetriol", "Triol 124", "1,3,4-Butanetriol", "1,2,4-Trihydroxybutane", "2-Deoxyerythritol", "(\u00b1)-1,2,4-Butanetriol", "NSC 60197", "Butan-1,2,4-triol"], "SMILES": "C(CCO)(CO)O", "physical_data": {"Molecular Weight": "106.12", "Molecular Formula": "C4H10O3", "Boiling Point": "167-168 \u00b0C @ Press: 11 Torr", "Density": "1.1772 g/cm\u00b3 @ Temp: 19.64 \u00b0C"}}