{"cas_no": "3069-29-2", "cn_name": "N-\u6c28\u4e59\u57fa-3-\u6c28\u4e19\u57fa\u7532\u57fa\u4e8c\u7532\u6c27\u57fa\u7845\u70f7", "en_name": ["N-(\u03b2-Aminoethyl)-\u03b3-aminopropylmethyldimethoxysilane", "1,2-Ethanediamine, N1-[3-(dimethoxymethylsilyl)propyl]-", "Ethylenediamine, N-[3-(dimethoxymethylsilyl)propyl]-", "1,2-Ethanediamine, N-[3-(dimethoxymethylsilyl)propyl]-", "N1-[3-(Dimethoxymethylsilyl)propyl]-1,2-ethanediamine", "N-[3-(Dimethoxymethylsilyl)propyl]ethylenediamine", "[3-[(2-Aminoethyl)amino]propyl]methyldimethoxysilane", "N-(2-Aminoethyl)-3-aminopropylmethyldimethoxysilane", "N-(\u03b2-Aminoethyl)-\u03b3-aminopropylmethyldimethoxysilane", "Methyldimethoxy(\u03b2-aminoethyl-\u03b3-aminopropyl)silane", "N-[3-(Methyldimethoxysilyl)propyl]ethylenediamine", "KBM 602", "[3-[N-(2-Aminoethyl)amino]propyl]dimethoxymethylsilane", "N-(2-Aminoethyl)-N-[3-(dimethoxymethylsilyl)propyl]amine", "Sila-Ace S 310", "SZ 6023", "Dynasylan 1411", "[(Aminoethylamino)propyl]methyldimethoxysilane", "TSL 8345", "GF 95", "Silquest A 2120", "DL 103", "Silane 1411", "\u03b3-(\u03b2-Aminoethyl)aminopropylmethyldimethoxysilane", "KLM 602", "AP Silane 31", "A 2120", "S 310", "HD 103", "JH-M 602", "SB 602", "DL 602", "Dynasylan DS 1411", "M 602", "JH 602", "TM 602", "SG-SI 602", "SS 1020", "Toray Silicone SS 1020", "SCA 602", "SCA 602 (coupling agent)", "DB 602", "KH-Si 602", "WD 53", "WD 53 (coupling agent)", "N-Aminoethyl-\u03b3-aminopropylmethyldimethoxysilane", "Geniosil GF 95", "Si 602", "N-Aminoethyl-3-aminopropyl-dimethoxymethylsilane", "(N-\u03b2-Aminoethyl-\u03b3-aminopropyl)dimethoxymethylsilane", "ZH 1304", "2-Aminoethyl-3-aminopropylmethyldimethoxysilane", "HD 602", "\u03b2-Aminoethyl-(\u03b3-aminopropyl)methyldimethoxysilane", "KH 602", "KHB 92", "KBE 602", "N-\u03b2-(Aminoethyl)-\u03b3-aminpropylmethyldimethoxysilane", "CX 550", "(2-Aminoethyl)-\u03b3-aminopropylmethyldimethoxysilane", "2-(Aminoethyl)-3-aminopropyldimethoxysilane", "YDH 602", "N-(2-Aminoethyl)-\u03b3-aminopropylmethyldimethoxysilane", "CY 602", "LT 602", "N-Aminoethyl-3-aminopropylmethyldimethoxysilane", "APDMS 55", "SCA 613", "A 0876", "CG 602 (coupling agent)", "CG 602", "DKOL 030", "UP 602", "CT 3841", "FD 602"], "SMILES": "[Si](CCCNCCN)(OC)(OC)C", "physical_data": {"Molecular Weight": "206.36", "Molecular Formula": "C8H22N2O2Si", "Boiling Point": "265 \u00b0C", "Melting Point": "176-177 \u00b0C", "Density": "0.975 g/cm\u00b3 @ Temp: 25 \u00b0C"}}