{"cas_no": "3069-25-8", "cn_name": "N-\u7532\u57fa-3-\u6c28\u4e19\u57fa\u4e09\u7532\u6c27\u57fa\u7845\u70f7", "en_name": ["(Methylaminopropyl)trimethoxysilane", "1-Propanamine, N-methyl-3-(trimethoxysilyl)-", "Propylamine, N-methyl-3-(trimethoxysilyl)-", "N-Methyl-3-(trimethoxysilyl)-1-propanamine", "(Methylaminopropyl)trimethoxysilane", "(N-Methyl-3-aminopropyl)trimethoxysilane", "N-Methyl-3-(trimethoxysilyl)propylamine", "(Trimethoxysilylpropyl)methylamine", "XZ 2024", "[3-(Methylamino)propyl]trimethoxysilane", "(N-Methylaminopropyl)trimethoxysilane", "3-(N-Methylaminopropyl)trimethoxysilane", "Dynasylan 1110", "X 12-636", "N-Methyl-\u03b3-aminopropyltrimethoxysilane", "Trimethoxy(3-(methylamino)propyl)silane", "Silane 1110", "N-[3-(Trimethoxysilyl)propyl)methanamine", "DB 1551", "\u03b3-N-Methylaminopropyltrimethoxysilane", "SIM 6500.0-25GM", "T 2868"], "SMILES": "[Si](CCCNC)(OC)(OC)OC", "physical_data": {"Molecular Weight": "193.32", "Molecular Formula": "C7H19NO3Si", "Boiling Point": "106 \u00b0C @ Press: 30 Torr", "Density": "0.978 g/cm\u00b3 @ Temp: 25 \u00b0C"}}