{"cas_no": "3069-21-4", "cn_name": "\u5341\u4e8c\u70f7\u57fa\u4e09\u7532\u6c27\u57fa\u7845\u70f7", "en_name": ["Dodecyltrimethoxysilane", "Silane, dodecyltrimethoxy-", "Dodecyltrimethoxysilane", "Trimethoxydodecylsilane", "JH-N 3112", "Lauryltrimethoxysilane", "WD 10", "n-Dodecyltrimethoxysilane", "N 3112", "SID 4635.0", "KH 3112", "Hydrophobe KH 580", "KH 1213", "SCA-K 12M", "CG-N 1213"], "SMILES": "[Si](CCCCCCCCCCCC)(OC)(OC)OC", "physical_data": {"Molecular Weight": "290.51", "Molecular Formula": "C15H34O3Si", "Boiling Point": "117-118 \u00b0C @ Press: 1.25 Torr"}}