{"cas_no": "3069-42-9", "cn_name": "\u5341\u516b\u70f7\u57fa\u4e09\u7532\u6c27\u57fa\u7845\u70f7", "en_name": ["Octadecyltrimethoxysilane", "Silane, trimethoxyoctadecyl-", "Trimethoxyoctadecylsilane", "Stearyltrimethoxysilane", "Octadecyltrimethoxysilane", "LSX 6817", "TSL 8185", "n-Octadecyltrimethoxysilane", "TSL 8186", "M 1", "M 1 (silane)", "AY 43-218MC", "Dynasylan 9118", "O 0256", "KH 311"], "SMILES": "[Si](CCCCCCCCCCCCCCCCCC)(OC)(OC)OC", "physical_data": {"Molecular Weight": "374.67", "Molecular Formula": "C21H46O3Si", "Boiling Point": "170 \u00b0C @ Press: 0.1 Torr", "Melting Point": "13-17 \u00b0C", "Density": "0.885 g/cm\u00b3"}}