{"cas_no": "3069-19-0", "cn_name": "\u6b63-\u5df1\u57fa\u4e09\u7532\u6c27\u57fa\u7845\u70f7", "en_name": ["Hexyltrimethoxysilane", "Silane, hexyltrimethoxy-", "Hexyltrimethoxysilane", "n-Hexyltrimethoxysilane", "H 7334", "TSL 8241", "HTS-M", "KBM 3063", "AY 43-206M", "XC 98A9426", "AZ 6177", "KBM 3060", "Z 6582", "LS 3130", "Trimethoxyhexylsilane", "KBM 3036", "Z 6583", "Dowsil Z 6583"], "SMILES": "[Si](CCCCCC)(OC)(OC)OC", "physical_data": {"Molecular Weight": "206.35", "Molecular Formula": "C9H22O3Si", "Boiling Point": "202-203 \u00b0C", "Density": "0.911 g/cm\u00b3 @ Temp: 25 \u00b0C"}}