{"cas_no": "3069-40-7", "cn_name": "\u8f9b\u57fa\u4e09\u7532\u6c27\u57fa\u7845\u70f7", "en_name": ["Octyltrimethoxysilane", "Silane, trimethoxyoctyl-", "Trimethoxyoctylsilane", "Octyltrimethoxysilane", "XC 95-738", "n-Octyltrimethoxysilane", "Silan 108", "Dynasylan OCTMO", "KBM 3083", "Si 108", "JH-N 318", "Sil-Act ATS 100LV", "Sil-Act ATS 42NS", "Sil-Act ATS 42A", "Sil-Act ATS 22", "CG-N 813", "SIO 6715.5"], "SMILES": "[Si](CCCCCCCC)(OC)(OC)OC", "physical_data": {"Molecular Weight": "234.41", "Molecular Formula": "C11H26O3Si", "Boiling Point": "191-192 \u00b0C", "Density": "0.907 g/cm\u00b3"}}