{"cas_no": "306934-99-6", "cn_name": "2-\u6c28\u57fa-4-(4-\u6eb4\u82ef\u57fa)-3-\u567b\u5429\u7532\u9178\u4e59\u916f", "en_name": ["2-Amino-4-(4-bromophenyl)thiophene-3-carboxylic acid ethyl ester", "3-Thiophenecarboxylic acid, 2-amino-4-(4-bromophenyl)-, ethyl ester", "2-Amino-4-(4-bromophenyl)thiophene-3-carboxylic acid ethyl ester", "Ethyl 2-amino-4-(4-bromophenyl)thiophene-3-carboxylate"], "SMILES": "C(OCC)(=O)C=1C(=CSC1N)C2=CC=C(Br)C=C2", "physical_data": {"Molecular Weight": "326.21", "Molecular Formula": "C13H12BrNO2S", "Melting Point": "120-121 \u00b0C"}}