{"cas_no": "306934-80-5", "cn_name": "6-\u6c27\u4ee3-1,6-\u4e8c\u6c22\u54d2\u55ea-3-\u7fa7\u9178\u5355\u6c34\u5408\u7269", "en_name": ["3-Pyridazinecarboxylic acid, 1,6-dihydro-6-oxo-, hydrate (1:1)", "3-Pyridazinecarboxylic acid, 1,6-dihydro-6-oxo-, hydrate (1:1)", "3-Pyridazinecarboxylic acid, 1,6-dihydro-6-oxo-, monohydrate"], "SMILES": "C(O)(=O)C=1C=CC(=O)NN1.O", "physical_data": {"Molecular Weight": "", "Molecular Formula": "C5H4N2O3.H2O", "Melting Point": "257 \u00b0C"}}