{"cas_no": "3069-30-5", "cn_name": "4-\u6c28\u57fa\u4e01\u57fa\u4e09\u4e59\u6c27\u57fa\u7845\u70f7", "en_name": ["4-Aminobutyltriethoxysilane", "1-Butanamine, 4-(triethoxysilyl)-", "Butylamine, 4-(triethoxysilyl)-", "Silane, (4-aminobutyl)triethoxy-", "4-(Triethoxysilyl)-1-butanamine", "4-Aminobutyltriethoxysilane", "\u03b4-Aminobutyltriethoxysilane", "4-(Triethoxysilyl)butylamine", "4-(Triethoxysilyl)-1-aminobutane", "SIA 0587.0", "4-Butylaminotriethoxysilane", "S 00550"], "SMILES": "[Si](CCCCN)(OCC)(OCC)OCC", "physical_data": {"Molecular Weight": "235.40", "Molecular Formula": "C10H25NO3Si", "Boiling Point": "114-116 \u00b0C @ Press: 14 Torr", "Density": "0.941 g/cm\u00b3 @ Temp: 25 \u00b0C"}}