{"cas_no": "306937-27-9", "cn_name": "1-[3-\u53d4\u4e01\u57fa\u82ef\u57fa]\u80bc\u76d0\u9178\u76d0", "en_name": ["Hydrazine, [3-(1,1-dimethylethyl)phenyl]-, hydrochloride (1:1)", "Hydrazine, [3-(1,1-dimethylethyl)phenyl]-, hydrochloride (1:1)", "Hydrazine, [3-(1,1-dimethylethyl)phenyl]-, monohydrochloride", "3-tert-Butylphenylhydrazine hydrochloride"], "SMILES": "C(C)(C)(C)C1=CC(NN)=CC=C1.Cl", "physical_data": {"Molecular Weight": "", "Molecular Formula": "C10H16N2.ClH", "Melting Point": "207-209 \u00b0C"}}