{"cas_no": "307-60-8", "cn_name": "1-\u7898\u5168\u6c1f\u5341\u4e8c\u70f7", "en_name": ["Perfluorododecyl iodide", "Dodecane, 1,1,1,2,2,3,3,4,4,5,5,6,6,7,7,8,8,9,9,10,10,11,11,12,12-pentacosafluoro-12-iodo-", "Dodecane, pentacosafluoro-1-iodo-", "1,1,1,2,2,3,3,4,4,5,5,6,6,7,7,8,8,9,9,10,10,11,11,12,12-Pentacosafluoro-12-iodododecane", "Pentacosafluoro-1-iodododecane", "Perfluorododecyl iodide", "1-Iodoperfluorododecane"], "SMILES": "C(C(C(C(C(C(C(F)(F)I)(F)F)(F)F)(F)F)(F)F)(F)F)(C(C(C(C(C(F)(F)F)(F)F)(F)F)(F)F)(F)F)(F)F", "physical_data": {"Molecular Weight": "745.99", "Molecular Formula": "C12F25I", "Boiling Point": "108-110 \u00b0C @ Press: 18 Torr", "Melting Point": "99-101 \u00b0C"}}