{"cas_no": "307-34-6", "cn_name": "\u5168\u6c1f\u8f9b\u70f7", "en_name": ["Perfluorooctane", "Octane, 1,1,1,2,2,3,3,4,4,5,5,6,6,7,7,8,8,8-octadecafluoro-", "Octane, octadecafluoro-", "1,1,1,2,2,3,3,4,4,5,5,6,6,7,7,8,8,8-Octadecafluorooctane", "Octadecafluorooctane", "Perfluorooctane", "Perfluoro-n-octane", "Eftop EF-L 100", "Fluorinert PF 5080", "FC 3280", "PF 5080", "Perfluoron", "PFC 71-18"], "SMILES": "C(C(C(C(C(F)(F)F)(F)F)(F)F)(F)F)(C(C(C(F)(F)F)(F)F)(F)F)(F)F", "physical_data": {"Molecular Weight": "438.06", "Molecular Formula": "C8F18", "Boiling Point": "105.9 \u00b0C", "Melting Point": "-42 \u00b0C", "Density": "1.73 g/cm\u00b3 @ Temp: 20 \u00b0C"}}