{"cas_no": "307-45-9", "cn_name": "\u5168\u6c1f\u7678\u70f7", "en_name": ["Perfluorodecane", "Decane, 1,1,1,2,2,3,3,4,4,5,5,6,6,7,7,8,8,9,9,10,10,10-docosafluoro-", "Decane, docosafluoro-", "1,1,1,2,2,3,3,4,4,5,5,6,6,7,7,8,8,9,9,10,10,10-Docosafluorodecane", "Perfluorodecane", "Docosafluorodecane", "Perfluoro-n-decane"], "SMILES": "C(C(C(C(C(C(F)(F)F)(F)F)(F)F)(F)F)(F)F)(C(C(C(C(F)(F)F)(F)F)(F)F)(F)F)(F)F", "physical_data": {"Molecular Weight": "538.07", "Molecular Formula": "C10F22", "Boiling Point": "150 \u00b0C", "Melting Point": "36 \u00b0C", "Density": "1.770 g/cm\u00b3 @ Temp: 45 \u00b0C"}}