{"cas_no": "307-55-1", "cn_name": "\u5168\u6c1f\u5341\u4e8c\u70f7\u9178", "en_name": ["Perfluorododecanoic acid", "Dodecanoic acid, 2,2,3,3,4,4,5,5,6,6,7,7,8,8,9,9,10,10,11,11,12,12,12-tricosafluoro-", "Dodecanoic acid, tricosafluoro-", "2,2,3,3,4,4,5,5,6,6,7,7,8,8,9,9,10,10,11,11,12,12,12-Tricosafluorododecanoic acid", "Perfluorododecanoic acid", "Perfluorolauric acid", "2,2,3,3,4,4,5,5,6,6,7,7,8,8,9,9,10,10,11,11,11-Tricosafluorododecanoic acid", "PFDoDA"], "SMILES": "C(C(C(C(C(C(C(O)=O)(F)F)(F)F)(F)F)(F)F)(F)F)(C(C(C(C(C(F)(F)F)(F)F)(F)F)(F)F)(F)F)(F)F", "physical_data": {"Molecular Weight": "614.10", "Molecular Formula": "C12HF23O2", "Boiling Point": "249 \u00b0C", "Melting Point": "108 \u00b0C"}}