{"cas_no": "307-43-7", "cn_name": "1-\u6eb4\u5168\u6c1f\u7678\u70f7", "en_name": ["Perfluorodecyl bromide", "Decane, 1-bromo-1,1,2,2,3,3,4,4,5,5,6,6,7,7,8,8,9,9,10,10,10-heneicosafluoro-", "Decane, 1-bromoheneicosafluoro-", "1-Bromo-1,1,2,2,3,3,4,4,5,5,6,6,7,7,8,8,9,9,10,10,10-heneicosafluorodecane", "1-Bromoperfluorodecane", "Perfluorodecyl bromide", "Perflubrodec"], "SMILES": "C(C(C(C(C(C(F)(F)F)(F)F)(F)F)(F)F)(F)F)(C(C(C(C(Br)(F)F)(F)F)(F)F)(F)F)(F)F", "physical_data": {"Molecular Weight": "598.98", "Molecular Formula": "C10BrF21", "Boiling Point": "198 \u00b0C"}}