{"cas_no": "307-70-0", "cn_name": "1H,1H,11H-\u4e8c\u5341\u6c1f-1-\u5341\u4e00\u9187", "en_name": ["2,2,3,3,4,4,5,5,6,6,7,7,8,8,9,9,10,10,11,11-Eicosafluoro-1-undecanol", "1-Undecanol, 2,2,3,3,4,4,5,5,6,6,7,7,8,8,9,9,10,10,11,11-eicosafluoro-", "2,2,3,3,4,4,5,5,6,6,7,7,8,8,9,9,10,10,11,11-Eicosafluoro-1-undecanol", "1H,1H,11H-Eicosafluoro-1-undecanol", "\u03b1,\u03b1,\u03c9-Trihydroperfluoroundecanol", "NSC 521191", "2,2,3,3,4,4,5,5,6,6,7,7,8,8,9,9,10,10,11,11-Icosafluoroundecan-1-ol"], "SMILES": "C(C(C(C(C(C(F)F)(F)F)(F)F)(F)F)(F)F)(C(C(C(C(CO)(F)F)(F)F)(F)F)(F)F)(F)F", "physical_data": {"Molecular Weight": "532.12", "Molecular Formula": "C11H4F20O", "Melting Point": "95-97 \u00b0C"}}