{"cas_no": "307-24-4", "cn_name": "\u5341\u4e00\u6c1f\u5df2\u9178", "en_name": ["Perfluorohexanoic acid", "Hexanoic acid, 2,2,3,3,4,4,5,5,6,6,6-undecafluoro-", "Hexanoic acid, undecafluoro-", "2,2,3,3,4,4,5,5,6,6,6-Undecafluorohexanoic acid", "Undecafluorocaproic acid", "Perfluorohexanoic acid", "Undecafluorohexanoic acid", "NSC 5213", "Perfluoro-1-pentanecarboxylic acid", "PFHxA", "Perfluorocaproic acid"], "SMILES": "C(C(C(C(O)=O)(F)F)(F)F)(C(C(F)(F)F)(F)F)(F)F", "physical_data": {"Molecular Weight": "314.05", "Molecular Formula": "C6HF11O2", "Boiling Point": "157 \u00b0C @ Press: 742 Torr", "Melting Point": "12-14 \u00b0C", "Density": "1.762 g/cm\u00b3 @ Temp: 20 \u00b0C"}}