{"cas_no": "307-35-7", "cn_name": "\u5168\u6c1f\u8f9b\u57fa\u78fa\u9170\u6c1f", "en_name": ["Perfluorooctanesulfonyl fluoride", "1-Octanesulfonyl fluoride, 1,1,2,2,3,3,4,4,5,5,6,6,7,7,8,8,8-heptadecafluoro-", "1-Octanesulfonyl fluoride, heptadecafluoro-", "1,1,2,2,3,3,4,4,5,5,6,6,7,7,8,8,8-Heptadecafluoro-1-octanesulfonyl fluoride", "Perfluorooctylsulfonyl fluoride", "n-Perfluorooctanesulfonyl fluoride", "Perfluorooctanesulfonyl fluoride", "Perfluoro-1-octanesulfonyl fluoride", "FX 8", "Fluorad FX 8", "1,1,2,2,3,3,4,4,5,5,6,6,7,7,8,8,8-Heptadecafluoro-octanesulfonyl fluoride"], "SMILES": "C(C(C(C(C(F)(F)F)(F)F)(F)F)(F)F)(C(C(C(S(F)(=O)=O)(F)F)(F)F)(F)F)(F)F", "physical_data": {"Molecular Weight": "502.12", "Molecular Formula": "C8F18O2S", "Boiling Point": "154.5 \u00b0C @ Press: 744 Torr"}}