{"cas_no": "307-59-5", "cn_name": "\u5168\u6c1f\u5341\u4e8c\u70f7", "en_name": ["Perfluorododecane", "Dodecane, 1,1,1,2,2,3,3,4,4,5,5,6,6,7,7,8,8,9,9,10,10,11,11,12,12,12-hexacosafluoro-", "Dodecane, hexacosafluoro-", "1,1,1,2,2,3,3,4,4,5,5,6,6,7,7,8,8,9,9,10,10,11,11,12,12,12-Hexacosafluorododecane", "Perfluorododecane", "Hexacosafluorododecane", "Perfluoro-n-dodecane"], "SMILES": "C(C(C(C(C(C(C(F)(F)F)(F)F)(F)F)(F)F)(F)F)(F)F)(C(C(C(C(C(F)(F)F)(F)F)(F)F)(F)F)(F)F)(F)F", "physical_data": {"Molecular Weight": "638.09", "Molecular Formula": "C12F26", "Boiling Point": "178 \u00b0C", "Melting Point": "74.5 \u00b0C", "Density": "1.670 g/cm\u00b3 @ Temp: 113.5 \u00b0C"}}