{"cas_no": "307-08-4", "cn_name": "\u5168\u6c1f\u82b4", "en_name": ["1,1,2,2,3,3,4,4,4a,4b,5,5,6,6,7,7,8,8,8a,9,9,9a-Docosafluorododecahydro-1H-fluorene", "1H-Fluorene, 1,1,2,2,3,3,4,4,4a,4b,5,5,6,6,7,7,8,8,8a,9,9,9a-docosafluorododecahydro-", "Fluorene, docosafluorododecahydro-", "1,1,2,2,3,3,4,4,4a,4b,5,5,6,6,7,7,8,8,8a,9,9,9a-Docosafluorododecahydro-1H-fluorene", "Perfluoroperhydrofluorene", "Flutec PP 10", "Perfluorododecahydrofluorene", "PP 10"], "SMILES": "FC12C3(F)C(F)(C(F)(F)C1(F)C(F)(F)C(F)(F)C(F)(F)C2(F)F)C(F)(F)C(F)(F)C(F)(F)C3(F)F", "physical_data": {"Molecular Weight": "574.10", "Molecular Formula": "C13F22", "Boiling Point": "190 \u00b0C"}}