{"cas_no": "307-98-2", "cn_name": "1H,1H-\u5168\u6c1f\u8f9b\u57fa\u4e19\u70ef\u9178\u916f", "en_name": ["2,2,3,3,4,4,5,5,6,6,7,7,8,8,8-Pentadecafluorooctyl 2-propenoate", "2-Propenoic acid, 2,2,3,3,4,4,5,5,6,6,7,7,8,8,8-pentadecafluorooctyl ester", "Acrylic acid, 2,2,3,3,4,4,5,5,6,6,7,7,8,8,8-pentadecafluorooctyl ester", "1-Octanol, 2,2,3,3,4,4,5,5,6,6,7,7,8,8,8-pentadecafluoro-, acrylate", "2,2,3,3,4,4,5,5,6,6,7,7,8,8,8-Pentadecafluorooctyl 2-propenoate", "1,1-Dihydroperfluorooctyl acrylate", "1H,1H-Pentadecafluorooctyl acrylate", "1H,1H-Perfluorooctyl acrylate", "2,2,3,3,4,4,5,5,6,6,7,7,8,8,8-Pentadecafluorooctyl prop-2-enoate"], "SMILES": "C(C(C(C(COC(C=C)=O)(F)F)(F)F)(F)F)(C(C(C(F)(F)F)(F)F)(F)F)(F)F", "physical_data": {"Molecular Weight": "454.13", "Molecular Formula": "C11H5F15O2", "Boiling Point": "188 \u00b0C @ Press: 740 Torr"}}