{"cas_no": "307-30-2", "cn_name": "2,2,3,3,4,4,5,5,6,6,7,7,8,8,8-\u5341\u4e94\u6c1f\u8f9b-1-\u9187", "en_name": ["1H,1H-Perfluorooctanol", "1-Octanol, 2,2,3,3,4,4,5,5,6,6,7,7,8,8,8-pentadecafluoro-", "2,2,3,3,4,4,5,5,6,6,7,7,8,8,8-Pentadecafluoro-1-octanol", "1,1-Dihydropentadecafluorooctan-1-ol", "1,1-Dihydroperfluorooctanol", "1H,1H-Pentadecafluoro-1-octanol", "(Perfluoroheptyl)methanol", "1H,1H-Perfluorooctanol", "Pentadecafluoro-1,1-dihydrooctanol", "\u03b1,\u03b1-Dihydroperfluorooctanol", "1,1-Dihydroperfluorooctyl alcohol", "1,1-Dihydropentadecafluorooctanol", "1H,1H-Pentadecafluorooctanol", "(Pentadecafluoroheptyl)methanol", "1H,1H-Pentadecafluoro-n-octanol", "1H,1H-Perfluoro-1-octanol", "Unitex DJ 10", "2,2,3,3,4,4,5,5,6,6,7,7,8,8,8-Pentadecafluorooctanol", "Eftop PDFOH"], "SMILES": "C(C(C(C(CO)(F)F)(F)F)(F)F)(C(C(C(F)(F)F)(F)F)(F)F)(F)F", "physical_data": {"Molecular Weight": "400.08", "Molecular Formula": "C8H3F15O", "Boiling Point": "161 \u00b0C", "Melting Point": "37 \u00b0C"}}