{"cas_no": "3070-53-9", "cn_name": "1\uff0c6-\u5e9a\u4e8c\u70ef", "en_name": ["1,6-Heptadiene", "1,6-Heptadiene"], "SMILES": "C(CC=C)CC=C", "physical_data": {"Molecular Weight": "96.17", "Molecular Formula": "C7H12", "Boiling Point": "90 \u00b0C", "Melting Point": "-129 \u00b0C"}}