{"cas_no": "30707-68-7", "cn_name": "\u6210\u8272\u5242\u54c1-264\u785d\u57fa\u7269", "en_name": ["1-(2,4,6-Trichlorophenyl)-3-(2-chloro-5-nitroanilino)-5-pyrazolinone", "3H-Pyrazol-3-one, 5-[(2-chloro-5-nitrophenyl)amino]-2,4-dihydro-2-(2,4,6-trichlorophenyl)-", "2-Pyrazolin-5-one, 3-(2-chloro-5-nitroanilino)-1-(2,4,6-trichlorophenyl)-", "5-[(2-Chloro-5-nitrophenyl)amino]-2,4-dihydro-2-(2,4,6-trichlorophenyl)-3H-pyrazol-3-one", "3-(2-Chloro-5-nitroanilino)-1-(2,4,6-trichlorophenyl)pyrazolone", "1-(2,4,6-Trichlorophenyl)-3-(2-chloro-5-nitroanilino)-5-pyrazolinone", "1-(2\u2032,4\u2032,6\u2032-Trichlorophenyl)-3-(2\u2032-chloro-5\u2032-nitroanilino)-5-pyrazolone"], "SMILES": "ClC1=C(C(Cl)=CC(Cl)=C1)N2N=C(NC3=CC(N(=O)=O)=CC=C3Cl)CC2=O", "physical_data": {"Molecular Weight": "434.06", "Molecular Formula": "C15H8Cl4N4O3", "Melting Point": "274-278 \u00b0C"}}