{"cas_no": "30709-67-2", "cn_name": "5-\u7532\u57fa-4-\u82ef\u57fa-\u567b\u5511-2-\u80fa", "en_name": ["5-Methyl-4-phenyl-2-thiazolamine", "2-Thiazolamine, 5-methyl-4-phenyl-", "Thiazole, 2-amino-5-methyl-4-phenyl-", "5-Methyl-4-phenyl-2-thiazolamine", "2-Amino-5-methyl-4-phenylthiazole", "5-Methyl-4-phenyl-1,3-thiazol-2-amine", "NSC 54435", "(5-Methyl-4-phenylthiazol-2-yl)amine", "2-Amino-4-phenyl-5-methylthiazole"], "SMILES": "CC1=C(N=C(N)S1)C2=CC=CC=C2", "physical_data": {"Molecular Weight": "190.26", "Molecular Formula": "C10H10N2S", "Boiling Point": "163-164 \u00b0C @ Press: 0.6 Torr", "Melting Point": "116-118 \u00b0C"}}