{"cas_no": "30711-40-1", "cn_name": "2-(\u6b63\u5e9a\u9170)\u567b\u5429", "en_name": ["1-(2-Thienyl)-1-heptanone", "1-Heptanone, 1-(2-thienyl)-", "1-(2-Thienyl)-1-heptanone", "2-Heptanoylthiophene", "1-Thiophen-2-ylheptan-1-one", "1-(Thiophen-2-yl)heptan-1-one"], "SMILES": "C(CCCCCC)(=O)C1=CC=CS1", "physical_data": {"Molecular Weight": "196.31", "Molecular Formula": "C11H16OS", "Boiling Point": "170-171 \u00b0C @ Press: 22 Torr"}}