{"cas_no": "3071-70-3", "cn_name": "3-\u4e59\u57fa-2-[7-(3-\u4e59\u57fa-2-\u82ef\u5e76\u567b\u5511\u5549)-1,3,5-\u5e9a\u4e09\u70ef]\u7898\u5316\u82ef\u5e76\u567b\u5511", "en_name": ["3,3\u2032-Diethylthiatricarbocyanine iodide", "Benzothiazolium, 3-ethyl-2-[7-(3-ethyl-2(3H)-benzothiazolylidene)-1,3,5-heptatrien-1-yl]-, iodide (1:1)", "Benzothiazolium, 3-ethyl-2-[7-(3-ethyl-2-benzothiazolinylidene)-1,3,5-heptatrienyl]-, iodide", "Benzothiazolium, 3-ethyl-2-[7-(3-ethyl-2(3H)-benzothiazolylidene)-1,3,5-heptatrienyl]-, iodide", "3-Ethyl-2-[7-(3-ethyl-2-benzothiazolinylidene)-1,3,5-heptatrienyl]benzothiazolium iodide", "Thiatricarbocyanine iodide, 3,3\u2032-diethyl-", "3,3\u2032-Diethylthiatricarbocyanine iodide", "3,3\u2032-Diethyl-2,2\u2032-thiatricarbocyanine iodide", "DTTC", "NK 126", "DTTCI", "D 4773"], "SMILES": "C(C)N1C=2C(SC1=CC=CC=CC=CC3=[N+](CC)C=4C(S3)=CC=CC4)=CC=CC2.[I-]", "physical_data": {"Molecular Weight": "", "Molecular Formula": "C25H25N2S2.I", "Melting Point": "183-184 \u00b0C"}}