{"cas_no": "30727-14-1", "cn_name": "1-\u4e59\u57fa-3-\u7f9f\u57fa-\u56db\u6c22\u5421\u54af", "en_name": ["1-Ethyl-3-pyrrolidinol", "3-Pyrrolidinol, 1-ethyl-", "1-Ethyl-3-pyrrolidinol", "N-Ethyl-3-pyrrolidinol", "N-Ethyl-3-hydroxypyrrolidine", "NSC 88610"], "SMILES": "C(C)N1CC(O)CC1", "physical_data": {"Molecular Weight": "115.17", "Molecular Formula": "C6H13NO", "Boiling Point": "117-118 \u00b0C @ Press: 39 Torr"}}