{"cas_no": "30725-00-9", "cn_name": "2,3-O-\u5f02\u4e9a\u4e19\u57fa-D-\u6838\u7cd6\u9178 gamma-\u5185\u916f", "en_name": ["2,3-O-Isopropylidene-D-ribonolactone", "D-Ribonic acid, 2,3-O-(1-methylethylidene)-, \u03b3-lactone", "Ribonic acid, 2,3-O-isopropylidene-, \u03b3-lactone, D-", "Ribonic acid, 2,3-O-isopropylidene-, \u03b3-lactone", "Furo[3,4-d]-1,3-dioxole, D-ribonic acid deriv.", "2,3-O-Isopropylidene-D-ribonolactone", "2,3-O-Isopropylidene-D-ribono-1,4-lactone", "2,3-O,O\u2032-Isopropylidene-D-ribono-1,4-lactone", "2,3-Isopropylidene(D-ribonolactone)"], "SMILES": "C(O)C1C2C(OC(C)(C)O2)C(=O)O1", "physical_data": {"Molecular Weight": "188.18", "Molecular Formula": "C8H12O5", "Melting Point": "138-139 \u00b0C"}}