{"cas_no": "30727-18-5", "cn_name": "1-\u7532\u57fa-2-\u54cc\u5576\u7532\u9178\u4e59\u916f", "en_name": ["Ethyl 1-methyl-2-piperidinecarboxylate", "2-Piperidinecarboxylic acid, 1-methyl-, ethyl ester", "Pipecolic acid, 1-methyl-, ethyl ester", "Ethyl 1-methyl-2-piperidinecarboxylate", "Ethyl 1-methylpipecolate", "Ethyl 1-methylpipecolinate", "1-Methyl-piperidine-2-carboxylic acid ethyl ester"], "SMILES": "C(OCC)(=O)C1N(C)CCCC1", "physical_data": {"Molecular Weight": "171.24", "Molecular Formula": "C9H17NO2", "Boiling Point": "92-96 \u00b0C @ Press: 11 Torr", "Density": "0.9801 g/cm\u00b3 @ Temp: 20 \u00b0C"}}