{"cas_no": "3073-66-3", "cn_name": "1,1,3-\u4e09\u7532\u57fa\u73af\u5df1\u70f7", "en_name": ["3,3,5-Trimethylcyclohexane", "Cyclohexane, 1,1,3-trimethyl-", "1,1,3-Trimethylcyclohexane", "Cyclogeraniolane", "NSC 73965", "3,3,5-Trimethylcyclohexane"], "SMILES": "CC1(C)CC(C)CCC1", "physical_data": {"Molecular Weight": "126.24", "Molecular Formula": "C9H18", "Boiling Point": "136.6 \u00b0C", "Melting Point": "-65.7 \u00b0C", "Density": "0.7868 g/cm\u00b3 @ Temp: 25 \u00b0C"}}