{"cas_no": "3073-77-6", "cn_name": "2-\u6c28\u57fa-5-\u785d\u57fa\u5627\u5576", "en_name": ["2-Amino-5-nitropyrimidine", "2-Pyrimidinamine, 5-nitro-", "Pyrimidine, 2-amino-5-nitro-", "5-Nitro-2-pyrimidinamine", "2-Amino-5-nitropyrimidine", "Enheptin P", "5-Nitro-2-aminopyrimidine", "NSC 37682", "NSC 48065", "5-Nitropyrimidin-2-ylamine", "5-Nitropyrimidine-2-amine"], "SMILES": "N(=O)(=O)C=1C=NC(N)=NC1", "physical_data": {"Molecular Weight": "140.10", "Molecular Formula": "C4H4N4O2", "Melting Point": "236 \u00b0C"}}