{"cas_no": "30736-07-3", "cn_name": "\u4e8c\u53d4\u4e01\u57fa\u7845\u70f7", "en_name": ["Bis(1,1-dimethylethyl)silane", "Silane, bis(1,1-dimethylethyl)-", "Silane, di-tert-butyl-", "Bis(1,1-dimethylethyl)silane", "Di-tert-butylsilane"], "SMILES": "[SiH2](C(C)(C)C)C(C)(C)C", "physical_data": {"Molecular Weight": "144.33", "Molecular Formula": "C8H20Si", "Boiling Point": "128 \u00b0C", "Melting Point": "-38 \u00b0C", "Density": "0.740 g/cm\u00b3"}}