{"cas_no": "3073-59-4", "cn_name": "N,N'-\u516d\u4e9a\u7532\u57fa\u53cc\u4e59\u9170\u80fa", "en_name": ["Hexamethylene bisacetamide", "Acetamide, N,N\u2032-1,6-hexanediylbis-", "Acetamide, N,N\u2032-hexamethylenebis-", "N,N\u2032-1,6-Hexanediylbis[acetamide]", "Hexamethylenediacetamide", "N,N\u2032-Diacetylhexamethylenediamine", "N,N\u2032-Hexamethylenebisacetamide", "Hexamethylene bisacetamide", "DADH", "HMBA", "NSC 95580", "1,6-Hexanebisacetoacetamide", "N,N\u2032-1,6-Hexamethylenebis(acetamide)"], "SMILES": "C(NC(C)=O)CCCCCNC(C)=O", "physical_data": {"Molecular Weight": "200.28", "Molecular Formula": "C10H20N2O2", "Boiling Point": "208 \u00b0C @ Press: 0.3 Torr", "Melting Point": "125 \u00b0C"}}