{"cas_no": "3073-87-8", "cn_name": "1,4-\u4e8c[2-(4-\u7532\u57fa-5-\u82ef\u57fa\u6076\u5511)]\u82ef", "en_name": ["Dimethyl-POPOP", "Oxazole, 2,2\u2032-(1,4-phenylene)bis[4-methyl-5-phenyl-", "Oxazole, 2,2\u2032-p-phenylenebis[4-methyl-5-phenyl-", "2,2\u2032-(1,4-Phenylene)bis[4-methyl-5-phenyloxazole]", "1,4-Bis(4-methyl-5-phenyl-2-oxazolyl)benzene", "1,4-Bis[2-(4-methyl-5-phenyloxazolyl)]benzene", "p-Bis(2-(4-methyl-5-phenyloxazolyl))benzene", "2-p-Phenylenebis(4-methyl-5-phenyloxazole)", "Dimethyl-POPOP", "1,4-Bis[2-(4-methyl-5-phenyloxazolylyl)]benzene", "DMPOPOP", "2,2\u2032-p-Phenylenebis(4-methyl-5-phenyloxazole)"], "SMILES": "CC1=C(OC(=N1)C2=CC=C(C=C2)C=3OC(=C(C)N3)C4=CC=CC=C4)C5=CC=CC=C5", "physical_data": {"Molecular Weight": "392.45", "Molecular Formula": "C26H20N2O2", "Melting Point": "233-234 \u00b0C"}}