{"cas_no": "3074-43-9", "cn_name": "1-\u7532\u57fa-4-\u82ef\u57fa\u54cc\u55ea", "en_name": ["1-Methyl-4-phenylpiperazine", "Piperazine, 1-methyl-4-phenyl-", "1-Methyl-4-phenylpiperazine", "N-Methyl-N\u2032-phenylpiperazine", "N-Phenyl-N\u2032-methylpiperazine", "NSC 26625"], "SMILES": "CN1CCN(CC1)C2=CC=CC=C2", "physical_data": {"Molecular Weight": "176.26", "Molecular Formula": "C11H16N2", "Boiling Point": "140-142 \u00b0C @ Press: 3 Torr"}}