{"cas_no": "3074-03-1", "cn_name": "11H-BENZO[B]FLUOREN-11-ONE", "en_name": ["Benzo[b]fluoren-11-one", "11H-Benzo[b]fluoren-11-one", "Benzo[b]fluoren-11-one", "NSC 113028", "11H-Benzo(b)fluoren-11-one"], "SMILES": "O=C1C=2C(C=3C1=CC=CC3)=CC=4C(C2)=CC=CC4", "physical_data": {"Molecular Weight": "230.26", "Molecular Formula": "C17H10O", "Melting Point": "153.5 \u00b0C"}}