{"cas_no": "30748-29-9", "cn_name": "\u975e\u666e\u62c9\u5b97", "en_name": ["Feprazone", "3,5-Pyrazolidinedione, 4-(3-methyl-2-buten-1-yl)-1,2-diphenyl-", "3,5-Pyrazolidinedione, 4-(3-methyl-2-butenyl)-1,2-diphenyl-", "4-(3-Methyl-2-buten-1-yl)-1,2-diphenyl-3,5-pyrazolidinedione", "Zepelin", "DA 2370", "Fenilprenazone", "Prenazone", "4-Prenyl-1,2-diphenyl-3,5-pyrazolidinedione", "4-(3-Methyl-2-butenyl)-1,2-diphenyl-3,5-pyrazolidinedione", "4-Prenyl-1,2-diphenyl-3,5-dioxopyrazolidine", "4-(2-Isopentenyl)-1,2-diphenyl-3,5-pyrazolidinedione", "Feprazone", "Pheprazone", "Metrazone", "Analud", "Methrazone", "Phenylprenazone"], "SMILES": "O=C1N(N(C(=O)C1CC=C(C)C)C2=CC=CC=C2)C3=CC=CC=C3", "physical_data": {"Molecular Weight": "320.39", "Molecular Formula": "C20H20N2O2", "Melting Point": "156.5 \u00b0C"}}