{"cas_no": "307510-92-5", "cn_name": "CFTRinh-172", "en_name": ["CFTR(inh)-172", "Benzoic acid, 4-[[4-oxo-2-thioxo-3-[3-(trifluoromethyl)phenyl]-5-thiazolidinylidene]methyl]-", "4-[[4-Oxo-2-thioxo-3-[3-(trifluoromethyl)phenyl]-5-thiazolidinylidene]methyl]benzoic acid", "3-[(3-Trifluoromethyl)phenyl]-5-[(4-carboxyphenyl)methylene]-2-thioxo-4-thiazolidinone", "Cystic fibrosis transmembrane conductance regulator inhibitor CFTR(inh)-172", "CFTR(inh)-172"], "SMILES": "O=C1N(C(=S)SC1=CC2=CC=C(C(O)=O)C=C2)C3=CC(C(F)(F)F)=CC=C3", "physical_data": {"Molecular Weight": "409.40", "Molecular Formula": "C18H10F3NO3S2", "Melting Point": "181-183 \u00b0C"}}