{"cas_no": "30752-19-3", "cn_name": "4-\u6b63\u5df1\u6c27\u57fa\u6eb4\u82ef", "en_name": ["1-Bromo-4-(hexyloxy)benzene", "Benzene, 1-bromo-4-(hexyloxy)-", "Ether, p-bromophenyl hexyl", "1-Bromo-4-(hexyloxy)benzene", "p-(Hexyloxy)bromobenzene", "p-Bromophenyl hexyl ether", "4-Hexyloxybromobenzene", "4-Hexyloxybenzene bromide", "1-Bromo-4-hexoxybenzene", "1-Bromo-4-n-hexyloxybenzene", "1-(4-Bromophenoxy)hexane"], "SMILES": "O(CCCCCC)C1=CC=C(Br)C=C1", "physical_data": {"Molecular Weight": "257.17", "Molecular Formula": "C12H17BrO", "Boiling Point": "140-143 \u00b0C @ Press: 5 Torr"}}