{"cas_no": "307538-42-7", "cn_name": "SMER28", "en_name": ["SMER 28", "4-Quinazolinamine, 6-bromo-N-2-propen-1-yl-", "4-Quinazolinamine, 6-bromo-N-2-propenyl-", "6-Bromo-N-2-propen-1-yl-4-quinazolinamine", "SMER 28"], "SMILES": "N(CC=C)C=1C2=C(C=CC(Br)=C2)N=CN1", "physical_data": {"Molecular Weight": "264.12", "Molecular Formula": "C11H10BrN3", "Melting Point": "171-173 \u00b0C"}}