{"cas_no": "30751-05-4", "cn_name": "\u66f2\u6614\u5339\u7279", "en_name": ["Troxipide", "Benzamide, 3,4,5-trimethoxy-N-3-piperidinyl-", "Benzamide, 3,4,5-trimethoxy-N-3-piperidyl-", "3,4,5-Trimethoxy-N-3-piperidinylbenzamide", "3-(3,4,5-Trimethoxybenzamido)piperidine", "KU 54", "Troxipide", "Aplace", "(N-Piperidin-3-yl)-3,4,5-trimethoxybenzamide"], "SMILES": "C(NC1CCCNC1)(=O)C2=CC(OC)=C(OC)C(OC)=C2", "physical_data": {"Molecular Weight": "294.35", "Molecular Formula": "C15H22N2O4", "Melting Point": "179-185 \u00b0C"}}