{"cas_no": "3076-04-8", "cn_name": "2-\u4e19\u70ef\u9178\u5341\u4e09\u70f7\u916f", "en_name": ["Tridecyl acrylate", "2-Propenoic acid, tridecyl ester", "Acrylic acid, tridecyl ester", "1-Tridecanol, acrylate", "Tridecyl acrylate", "SR 489", "NSC 6130", "SR 498E", "SR 489D", "TM 2853", "Miramer M 124"], "SMILES": "C(CCCCCCCCCCC)COC(C=C)=O", "physical_data": {"Molecular Weight": "254.41", "Molecular Formula": "C16H30O2", "Boiling Point": "150 \u00b0C @ Press: 10 Torr", "Density": "0.9 g/cm\u00b3"}}