{"cas_no": "30766-12-2", "cn_name": "5-\u7f9f\u57fa-2-\u5421\u5576\u7532\u9178\u7532\u916f", "en_name": ["2-Pyridinecarboxylic acid, 5-hydroxy-, methyl ester", "2-Pyridinecarboxylic acid, 5-hydroxy-, methyl ester", "Picolinic acid, 5-hydroxy-, methyl ester", "Methyl 5-hydroxy-2-pyridinecarboxylate", "5-Hydroxy-2-pyridinecarboxylic acid methyl ester", "6-Methoxycarbonylpyridin-3-ol", "Methyl 5-hydroxypicolinate", "5-Hydroxypicolinic acid methyl ester"], "SMILES": "C(OC)(=O)C1=CC=C(O)C=N1", "physical_data": {"Molecular Weight": "153.14", "Molecular Formula": "C7H7NO3", "Melting Point": "71.5-73.0 \u00b0C"}}