{"cas_no": "3076-91-3", "cn_name": "1-(4-\u6c2f\u6c5e\u82ef\u57fa\u5076\u6c2e)-2-\u8418\u915a", "en_name": ["Chloro[4-[2-(2-hydroxy-1-naphthalenyl)diazenyl]phenyl]mercury", "Mercury, chloro[4-[2-(2-hydroxy-1-naphthalenyl)diazenyl]phenyl]-", "Mercury, chloro[p-[(2-hydroxy-1-naphthyl)azo]phenyl]-", "Mercury, chloro[4-[(2-hydroxy-1-naphthalenyl)azo]phenyl]-", "2-Naphthol, 1-[[p-(chloromercuri)phenyl]azo]-", "2-Naphthalenol, 1-(phenylazo)-, mercury complex", "Chloro[4-[2-(2-hydroxy-1-naphthalenyl)diazenyl]phenyl]mercury", "1-(4-Chloromercuriphenylazo)-2-naphthol", "Mercury Orange", "Red Sulfhydryl Reagent", "1-(4-Chloromercuriphenylazo)-\u03b2-naphthol", "NSC 105538"], "SMILES": "N(=NC1=CC=C([Hg]Cl)C=C1)C=2C3=C(C=CC2O)C=CC=C3", "physical_data": {"Molecular Weight": "", "Molecular Formula": "C16H11ClHgN2O", "Melting Point": "291.5-293 \u00b0C"}}