{"cas_no": "3077-13-2", "cn_name": "1,1\u2019-(\u82ef\u57fa\u4e9a\u6c28\u57fa)\u53cc-2-\u4e19\u9187", "en_name": ["1,1\u2032-(Phenylimino)bis[2-propanol]", "2-Propanol, 1,1\u2032-(phenylimino)bis-", "2-Propanol, 1,1\u2032-(phenylimino)di-", "1,1\u2032-(Phenylimino)bis[2-propanol]", "N,N-Bis(2-hydroxypropyl)aniline", "N,N-Di(2-hydroxypropyl)aniline", "Isonol C 100", "Isonol N 100", "Isonol 100", "C 100", "NSC 166506", "Okayol", "N,N-Diisopropanolaniline", "1-(2-Hydroxypropyl-phenyl-amino)propan-2-ol", "1-[(2-Hydroxypropyl)(phenyl)amino]propan-2-ol"], "SMILES": "N(CC(C)O)(CC(C)O)C1=CC=CC=C1", "physical_data": {"Molecular Weight": "209.28", "Molecular Formula": "C12H19NO2", "Boiling Point": "184-185 \u00b0C @ Press: 10 Torr", "Density": "1.0694 g/cm\u00b3 @ Temp: 23 \u00b0C"}}