{"cas_no": "3077-12-1", "cn_name": "N,N-\u4e8c\u7f9f\u4e59\u57fa-\u5bf9\u7532\u57fa\u82ef\u80fa", "en_name": ["N,N-Bis(2-hydroxyethyl)-p-toluidine", "Ethanol, 2,2\u2032-[(4-methylphenyl)imino]bis-", "Ethanol, 2,2\u2032-(p-tolylimino)di-", "2,2\u2032-[(4-Methylphenyl)imino]bis[ethanol]", "Diethylol-p-toluidine", "N,N-Bis(2-hydroxyethyl)-p-toluidine", "N-(4-Methylphenyl)diethanolamine", "N,N-Diethanol-p-toluidine", "2,2\u2032-(p-Tolylimino)diethanol", "N-(p-Methylphenyl)-N,N-diethanolamine", "N,N-Diethanol-p-methylphenylamine", "N,N-Bis(2-hydroxyethyl)-4-methylaniline", "N,N-Bis(\u03b2-hydroxyethyl)-p-toluidine", "N-(p-Methylphenyl)diethanolamine", "N-p-Tolyldiethanolamine", "DEPT", "Plexilith 492", "N,N-Di(\u03b2-hydroxyethyl)-p-toluidine", "N,N-Bis(2-hydroxyethyl)-p-toludine", "NSC 103354", "N,N-Bis(2-hydroxyethyl)-4-toluidine", "PT 2HE", "N,N-Di(2-hydroxyethyl)-p-toluidine", "N,N-Di(2-hydroxyethyl)-4-toluidine", "N,N-Di(2-hydroxyethyl)-p-methylaniline", "p-Tolyldiethanolamine", "Pergaquick A 150", "2,2\u2032-(4-Methylphenylimino)diethanol", "PTEO", "2,2\u2032-(p-Tolylazanediyl)diethanol", "2-[N-(2-Hydroxyethyl)-4-methylanilino]ethanol", "2-[(2-Hydroxyethyl)(4-methylphenyl)amino]ethan-1-ol", "Pergaquick PQ-A 150"], "SMILES": "N(CCO)(CCO)C1=CC=C(C)C=C1", "physical_data": {"Molecular Weight": "195.26", "Molecular Formula": "C11H17NO2", "Boiling Point": "339 \u00b0C", "Melting Point": "53-54 \u00b0C"}}