{"cas_no": "3077-46-1", "cn_name": "N-\u4e59\u9170-L-\u5f02\u4eae\u6c28\u9178", "en_name": ["N-Acetyl-L-isoleucine", "L-Isoleucine, N-acetyl-", "Isoleucine, N-acetyl-, L-", "N-Acetyl-L-isoleucine", "N-Acetylisoleucine", "NSC 203807"], "SMILES": "C(C(CC)C)(NC(C)=O)C(O)=O", "physical_data": {"Molecular Weight": "173.21", "Molecular Formula": "C8H15NO3", "Melting Point": "150-151 \u00b0C"}}