{"cas_no": "3077-85-8", "cn_name": "3-\u785d\u57fa-9H-\u5494\u5511", "en_name": ["3-Nitrocarbazole", "9H-Carbazole, 3-nitro-", "Carbazole, 3-nitro-", "3-Nitro-9H-carbazole", "3-Nitrocarbazole", "INF 51", "NSC 67708"], "SMILES": "N(=O)(=O)C=1C=C2C=3C(NC2=CC1)=CC=CC3", "physical_data": {"Molecular Weight": "212.20", "Molecular Formula": "C12H8N2O2", "Melting Point": "212 \u00b0C"}}