{"cas_no": "3079-63-8", "cn_name": "Z-GLY-ALA-OH", "en_name": ["N-[(Phenylmethoxy)carbonyl]glycyl-L-alanine", "L-Alanine, N-[(phenylmethoxy)carbonyl]glycyl-", "Alanine, N-(N-carboxyglycyl)-, N-benzyl ester, L-", "L-Alanine, N-[N-[(phenylmethoxy)carbonyl]glycyl]-", "N-[(Phenylmethoxy)carbonyl]glycyl-L-alanine", "(Benzyloxycarbonyl)glycyl-L-alanine", "N-(Benzyloxycarbonyl)glycyl-L-alanine", "N-(Benzyloxycarbonyl)glycylalanine", "NSC 169157", "(2S)-2-[[2-(Phenylmethoxycarbonylamino)acetyl]amino]propanoic acid"], "SMILES": "C(OC(NCC(NC(C(O)=O)C)=O)=O)C1=CC=CC=C1", "physical_data": {"Molecular Weight": "280.28", "Molecular Formula": "C13H16N2O5", "Melting Point": "177 \u00b0C"}}