{"cas_no": "3079-30-9", "cn_name": "\u5341\u4e8c\u70f7\u57fa\u7532\u57fa\u4e9a\u781c", "en_name": ["Dodecyl methyl sulfoxide", "Dodecane, 1-(methylsulfinyl)-", "Sulfoxide, dodecyl methyl", "1-(Methylsulfinyl)dodecane", "Methyl n-dodecyl sulfoxide", "Dodecyl methyl sulfoxide", "Methyl lauryl sulfoxide", "Methyl dodecyl sulfoxide", "n-Dodecyl methyl sulfoxide"], "SMILES": "C(CCCCCCCCC)CCS(C)=O", "physical_data": {"Molecular Weight": "232.43", "Molecular Formula": "C13H28OS", "Melting Point": "64 \u00b0C"}}