{"cas_no": "307989-56-6", "cn_name": "2-\u4e09\u6c1f\u7532\u6c27\u57fa-5-\u6c28\u57fa\u82ef\u7532\u9178", "en_name": ["5-Amino-2-(trifluoromethoxy)benzoic acid", "Benzoic acid, 5-amino-2-(trifluoromethoxy)-", "5-Amino-2-(trifluoromethoxy)benzoic acid"], "SMILES": "O(C(F)(F)F)C1=C(C(O)=O)C=C(N)C=C1", "physical_data": {"Molecular Weight": "221.13", "Molecular Formula": "C8H6F3NO3", "Melting Point": "201-203 \u00b0C"}}