{"cas_no": "30806-83-8", "cn_name": "\u4e59\u57fa-4-\u5f02\u53e0\u9178\u82ef\u916f", "en_name": ["Ethyl 4-isocyanatobenzoate", "Benzoic acid, 4-isocyanato-, ethyl ester", "Benzoic acid, p-isocyanato-, ethyl ester", "Ethyl p-isocyanatobenzoate", "Ethyl 4-isocyanatobenzoate", "4-(Ethoxycarbonyl)phenyl isocyanate", "(p-Ethoxycarbonyl)phenyl isocyanate", "4-Isocyanatobenzoic acid ethyl ester"], "SMILES": "C(OCC)(=O)C1=CC=C(N=C=O)C=C1", "physical_data": {"Molecular Weight": "191.18", "Molecular Formula": "C10H9NO3", "Boiling Point": "144-148 \u00b0C @ Press: 17 Torr", "Melting Point": "60 \u00b0C"}}