{"cas_no": "3080-30-6", "cn_name": "1-O-\u4e59\u9170\u57fa-2,3,5-O-\u4e09\u82ef\u7532\u9170\u57fa-BETA-L-\u544b\u5583\u6838\u7cd6", "en_name": ["Ribofuranose, 1-acetate 2,3,5-tribenzoate", "\u03b2-L-Ribofuranose, 1-acetate 2,3,5-tribenzoate", "Ribofuranose, 1-acetate 2,3,5-tribenzoate, \u03b2-L-", "Ribofuranose, 1-acetate 2,3,5-tribenzoate", "NSC 87674", "1-O-Acetyl-2,3,5-tri-O-benzoyl-\u03b2-L-ribofuranose"], "SMILES": "O(C(=O)C1=CC=CC=C1)C2C(OC(=O)C3=CC=CC=C3)C(OC(C)=O)OC2COC(=O)C4=CC=CC=C4", "physical_data": {"Molecular Weight": "504.48", "Molecular Formula": "C28H24O9", "Melting Point": "124-125 \u00b0C"}}