{"cas_no": "30811-80-4", "cn_name": "\u805a\u80de\u82f7\u9178", "en_name": ["Polycytidylic acid", "5\u2032-Cytidylic acid, homopolymer", "5\u2032-Cytidylic acid, polymers", "Poly(5\u2032-cytidylic acid)", "Poly(C)", "Poly(cytidylic acid)", "Poly(CMP)", "NSC 120953", "Polycytidylic acid", "MeSH ID: D011066"], "SMILES": "OC1C(OC(COP(=O)(O)O)C1O)N2C(=O)N=C(N)C=C2", "physical_data": {"Molecular Weight": "", "Molecular Formula": "(C9H14N3O8P)x", "Melting Point": "69 \u00b0C"}}