{"cas_no": "3081-61-6", "cn_name": "L-\u8336\u6c28\u9178", "en_name": ["L-Theanine", "L-Glutamine, N-ethyl-", "Glutamine, N-ethyl-, L-", "N-Ethyl-L-glutamine", "L-Theanine", "Theanine", "Theanin", "Suntheanine", "NSC 21308", "N\u03b3-Ethyl-L-glutamine", "Suntheanine CG 100", "(2S)-2-Amino-4-(ethylcarbamoyl)butanoic acid", "(2S)-2-Azaniumyl-5-(ethylamino)-5-oxopentanoate", "(S)-2-Amino-5-(ethylamino)-5-oxopentanoic acid"], "SMILES": "C(CC(C(O)=O)N)C(NCC)=O", "physical_data": {"Molecular Weight": "174.20", "Molecular Formula": "C7H14N2O3", "Melting Point": "217-218 \u00b0C (decomp)"}}