{"cas_no": "3082-64-2", "cn_name": "(R)-(+)-1-\u82ef\u4e19\u80fa", "en_name": ["(+)-1-Phenylpropylamine", "Benzenemethanamine, \u03b1-ethyl-, (\u03b1R)-", "Benzylamine, \u03b1-ethyl-, (R)-(+)-", "Benzenemethanamine, \u03b1-ethyl-, (R)-", "Benzylamine, \u03b1-ethyl-, d-", "(\u03b1R)-\u03b1-Ethylbenzenemethanamine", "(+)-\u03b1-Phenylpropylamine", "(R)-(+)-\u03b1-Phenyl-1-propylamine", "(+)-1-Ethylbenzylamine", "(R)-(+)-1-Phenyl-1-propylamine", "(+)-1-Phenylpropylamine", "(R)-\u03b1-Phenylpropylamine", "(R)-1-Phenylpropylamine", "(R)-\u03b1-Ethylbenzylamine", "(R)-(+)-1-Phenylpropylamine", "(1R)-1-Phenylpropylamine", "(R)-1-Phenyl-1-propanamine", "(+)-((R)-1-Phenylpropyl)amine", "(1R)-1-Phenylpropan-1-amine", "(R)-(+)-\u03b1-Ethylbenzylamine", "(R)-1-Phenylpropanamine", "(R)-1-Phenylpropan-1-amine", "(R)-\u03b1-Ethylbenzylamine", "(1R)-1-Phenylpropan-1-amine"], "SMILES": "C(CC)(N)C1=CC=CC=C1", "physical_data": {"Molecular Weight": "135.21", "Molecular Formula": "C9H13N", "Boiling Point": "100 \u00b0C @ Press: 10 Torr"}}