{"cas_no": "3082-62-0", "cn_name": "(S)-(-)-1-(2-\u8418\u57fa)\u4e59\u80fa", "en_name": ["(-)-1-(2-Naphthyl)ethylamine", "2-Naphthalenemethanamine, \u03b1-methyl-, (\u03b1S)-", "2-Naphthalenemethylamine, \u03b1-methyl-, (S)-(-)-", "2-Naphthalenemethanamine, \u03b1-methyl-, (S)-", "(\u03b1S)-\u03b1-Methyl-2-naphthalenemethanamine", "(-)-\u03b1-2-Naphthylethylamine", "(-)-1-(2-Naphthyl)ethylamine", "(S)-\u03b1-Methyl-2-naphthalenemethanamine", "(S)-1-(2-Naphthyl)ethylamine", "(S)-(-)-\u03b1-(2-Naphthyl)ethylamine", "(S)-(-)-1-(2-Naphthyl)ethylamine", "[(S)-1-(Naphthalen-2-yl)ethyl]amine", "(S)-1-(\u03b2-Naphthyl)ethylamine", "(S)-(-)-1-(Naphthalen-2-yl)ethylamine", "(1S)-1-(2-Naphthyl)ethanamine", "(S)-1-(Naphthalen-2-yl)ethanamine", "(1S)-1-(2-Naphthyl)ethylamine", "(1S)-1-(Naphthalen-2-yl)ethan-1-amine", "(1S)-1-Naphthalen-2-ylethanamine", "2-Naphthalenemethanamine \u03b1-methyl-, (\u03b1S)-"], "SMILES": "C(C)(N)C1=CC2=C(C=C1)C=CC=C2", "physical_data": {"Molecular Weight": "171.24", "Molecular Formula": "C12H13N", "Boiling Point": "75-76 \u00b0C @ Press: 0.75 Torr", "Melting Point": "150.5-151.5 \u00b0C"}}