{"cas_no": "30830-27-4", "cn_name": "3-(\u82c4\u6c27\u57fa)-1-\u73af\u4e01\u916e", "en_name": ["3-Benzyloxycyclobutanone", "Cyclobutanone, 3-(phenylmethoxy)-", "Cyclobutanone, 3-(benzyloxy)-", "3-(Phenylmethoxy)cyclobutanone", "3-Benzyloxycyclobutanone", "3-Benzyloxycyclobutan-1-one", "3-(Phenylmethoxy)cyclobutan-1-one"], "SMILES": "O(CC1=CC=CC=C1)C2CC(=O)C2", "physical_data": {"Molecular Weight": "176.21", "Molecular Formula": "C11H12O2", "Boiling Point": "123 \u00b0C @ Press: 4 Torr", "Density": "1.0896 g/cm\u00b3 @ Temp: 25 \u00b0C"}}