{"cas_no": "3083-10-1", "cn_name": "1,1,4,7,10,10-\u516d\u7532\u57fa\u4e09\u4e9a\u4e59\u57fa\u56db\u80fa", "en_name": ["Hexamethyltriethylenetetramine", "1,2-Ethanediamine, N1,N2-bis[2-(dimethylamino)ethyl]-N1,N2-dimethyl-", "Triethylenetetramine, 1,1,4,7,10,10-hexamethyl-", "1,2-Ethanediamine, N,N\u2032-bis[2-(dimethylamino)ethyl]-N,N\u2032-dimethyl-", "N1,N2-Bis[2-(dimethylamino)ethyl]-N1,N2-dimethyl-1,2-ethanediamine", "Hexamethyltriethylenetetramine", "N,N,N\u2032,N\u2032\u2032,N\u2032\u2032\u2032,N\u2032\u2032\u2032-Hexamethyltriethylenetetramine", "1,1,4,7,10,10-Hexamethyltriethylenetetramine", "2,5,8,11-Tetramethyl-2,5,8,11-tetraazadodecane", "N,N,N\u2032,N\u2032-Tetramethyl-3,6-dimethyl-3,6-diazaoctane-1,8-diamine", "1,2-Bis((2-(dimethylamino)ethyl)(methyl)amino)ethane", "N,N\u2032-Bis[2-(dimethylamino)ethyl]-N,N\u2032-dimethylethane-1,2-diamine", "NSC 166488", "HMTETA", "Hexamethylenetriethylenetetramine", "DryPlus", "C 3070"], "SMILES": "N(CCN(CCN(C)C)C)(CCN(C)C)C", "physical_data": {"Molecular Weight": "230.39", "Molecular Formula": "C12H30N4", "Boiling Point": "130 \u00b0C @ Press: 11 Torr", "Melting Point": "162 \u00b0C"}}