{"cas_no": "3083-77-0", "cn_name": "\u963f\u7cd6\u5c3f\u82f7", "en_name": ["Uracil arabinoside", "2,4(1H,3H)-Pyrimidinedione, 1-\u03b2-D-arabinofuranosyl-", "Uracil, 1-\u03b2-D-arabinofuranosyl-", "1-\u03b2-D-Arabinofuranosyl-2,4(1H,3H)-pyrimidinedione", "Spongouridine", "Uracil arabinoside", "1-\u03b2-D-Arabinofuranosyluracil", "Arauridine", "Uracil \u03b2-D-arabinofuranoside", "Arabinosyluracil", "Arabinofuranosyluracil", "Spongouridin", "Ara-U", "NSC 68928"], "SMILES": "OC1C(OC(CO)C1O)N2C(=O)NC(=O)C=C2", "physical_data": {"Molecular Weight": "244.20", "Molecular Formula": "C9H12N2O6", "Melting Point": "213-216 \u00b0C"}}