{"cas_no": "3084-53-5", "cn_name": "\u4e09\u7532\u57fa\u6eb4\u5316\u950d", "en_name": ["Sulfonium, trimethyl-, bromide (1:1)", "Sulfonium, trimethyl-, bromide (1:1)", "Sulfonium, trimethyl-, bromide", "Trimethylsulfonium bromide"], "SMILES": "[S+](C)(C)C.[Br-]", "physical_data": {"Molecular Weight": "", "Molecular Formula": "C3H9S.Br", "Melting Point": "172 \u00b0C (decomp)"}}