{"cas_no": "3084-40-0", "cn_name": "\u7f9f\u7532\u57fa\u81a6\u9178\u4e8c\u4e59\u916f", "en_name": ["Diethyl P-(hydroxymethyl)phosphonate", "Phosphonic acid, P-(hydroxymethyl)-, diethyl ester", "Phosphonic acid, (hydroxymethyl)-, diethyl ester", "Diethyl P-(hydroxymethyl)phosphonate", "Diethyl (hydroxymethyl)phosphonate", "(Hydroxymethyl)phosphonate diethyl ester", "Diethyl phosphonomethanol", "Diethoxyphosphorylmethanol"], "SMILES": "P(OCC)(OCC)(CO)=O", "physical_data": {"Molecular Weight": "168.13", "Molecular Formula": "C5H13O4P", "Boiling Point": "72 \u00b0C @ Press: 5 Torr", "Density": "1.0726 g/cm\u00b3 @ Temp: 0 \u00b0C"}}