{"cas_no": "3085-30-1", "cn_name": "\u4e01\u9178\u94dd", "en_name": ["Aluminum tributoxide", "1-Butanol, aluminum salt (3:1)", "Aluminum butoxide", "Butyl alcohol, aluminum salt", "1-Butanol, aluminum salt", "Tributoxyaluminum", "Aluminum tributoxide", "Aluminum butylate", "Aluminum tributylate", "Tris(butoxy)aluminum", "Tributyl aluminate", "Aluminum n-butylate", "Aluminum n-butoxide", "Aluminum tributoxide (Al(OBu)3)", "Aluminum butanolate", "AKA 020"], "SMILES": "C(CC)CO.[Al]", "physical_data": {"Molecular Weight": "", "Molecular Formula": "C4H10O.<sup>1</sup>/3Al", "Boiling Point": "242 \u00b0C @ Press: 0.7 Torr", "Melting Point": "102 \u00b0C"}}