{"cas_no": "3085-76-5", "cn_name": "\u4e8c\u5f02\u4e19\u57fa\u6c28\u8148", "en_name": ["N,N-Bis(1-methylethyl)cyanamide", "Cyanamide, N,N-bis(1-methylethyl)-", "Cyanamide, diisopropyl-", "Cyanamide, bis(1-methylethyl)-", "N,N-Bis(1-methylethyl)cyanamide", "Diisopropylcyanamide", "NSC 7775"], "SMILES": "N(C(C)C)(C(C)C)C#N", "physical_data": {"Molecular Weight": "126.20", "Molecular Formula": "C7H14N2", "Boiling Point": "93-94 \u00b0C @ Press: 25 Torr"}}