{"cas_no": "3085-54-9", "cn_name": "4-\u7532\u9170\u82ef\u80fa", "en_name": ["N-(4-Methylphenyl)formamide", "Formamide, N-(4-methylphenyl)-", "p-Formotoluidide", "N-(4-Methylphenyl)formamide", "N-(p-Methylphenyl)formamide", "4\u2032-Methylformanilide", "p-Methylformanilide", "N-Formyl-p-toluidine", "N-p-Tolylformamide", "NSC 68098", "N-Formyl-4-methylaniline", "N-4-Tolylformamide"], "SMILES": "N(C=O)C1=CC=C(C)C=C1", "physical_data": {"Molecular Weight": "135.16", "Molecular Formula": "C8H9NO", "Melting Point": "57 \u00b0C"}}