{"cas_no": "3085-42-5", "cn_name": "4,4'-\u4e8c\u6c2f\u4e8c\u82ef\u57fa\u4e9a\u781c", "en_name": ["1,1\u2032-Sulfinylbis[4-chlorobenzene]", "Benzene, 1,1\u2032-sulfinylbis[4-chloro-", "Sulfoxide, bis(p-chlorophenyl)", "1,1\u2032-Sulfinylbis[4-chlorobenzene]", "4,4\u2032-Dichlorodiphenyl sulfoxide", "Bis(p-chlorophenyl) sulfoxide", "p-Chlorophenyl sulfoxide", "p,p\u2032-Dichlorodiphenyl sulfoxide", "Di-p-chlorophenyl sulfoxide", "Bis(4-chlorophenyl) sulfoxide", "4-Chlorophenyl sulfoxide", "NSC 406205", "1-Chloro-4-(4-chlorophenyl)sulfinylbenzene", "4,4\u2032-Sulfinyl bis(chlorobenzene)"], "SMILES": "S(=O)(C1=CC=C(Cl)C=C1)C2=CC=C(Cl)C=C2", "physical_data": {"Molecular Weight": "271.16", "Molecular Formula": "C12H8Cl2OS", "Melting Point": "143 \u00b0C"}}