{"cas_no": "3086-91-7", "cn_name": "2-\u6c28\u57fa-4-\u6c2f-5-\u78fa\u9170\u80fa\u82ef\u7532\u9178", "en_name": ["4-Chloro-5-sulfamoylanthranilic acid", "Benzoic acid, 2-amino-5-(aminosulfonyl)-4-chloro-", "Anthranilic acid, 4-chloro-5-sulfamoyl-", "2-Amino-5-(aminosulfonyl)-4-chlorobenzoic acid", "4-Chloro-5-sulfamylanthranilic acid", "4-Chloro-5-sulfamoylanthranilic acid", "Desfurylmethylfurosemide", "Saluamine", "2-Amino-4-chloro-5-sulfamoylbenzoic acid", "2-Amino-5-aminosulfonyl-4-chlorobenzoic acid", "2-Amino-4-chloro-5-(aminosulfonyl)benzoic acid"], "SMILES": "S(N)(=O)(=O)C1=CC(C(O)=O)=C(N)C=C1Cl", "physical_data": {"Molecular Weight": "250.66", "Molecular Formula": "C7H7ClN2O4S", "Melting Point": "267 \u00b0C (decomp)"}}