{"cas_no": "3086-72-4", "cn_name": "3,5-\u4e8c\u7532\u6c27\u57fa-4-\u7f9f\u57fa\u82ef\u7532\u9170\u80fa", "en_name": ["4-Hydroxy-3,5-dimethoxybenzamide", "Benzamide, 4-hydroxy-3,5-dimethoxy-", "4-Hydroxy-3,5-dimethoxybenzamide", "Syringamide", "NSC 164893", "3,5-Dimethoxy-4-hydroxybenzamide"], "SMILES": "O(C)C1=C(O)C(OC)=CC(C(N)=O)=C1", "physical_data": {"Molecular Weight": "197.19", "Molecular Formula": "C9H11NO4", "Melting Point": "184-185 \u00b0C"}}