{"cas_no": "3086-62-2", "cn_name": "3,4,5-\u4e09\u7532\u6c27\u57fa\u82ef\u7532\u9170\u80fa", "en_name": ["3,4,5-Trimethoxybenzamide", "Benzamide, 3,4,5-trimethoxy-", "3,4,5-Trimethoxybenzamide", "NSC 16947"], "SMILES": "O(C)C1=C(OC)C=C(C(N)=O)C=C1OC", "physical_data": {"Molecular Weight": "211.21", "Molecular Formula": "C10H13NO4", "Melting Point": "175-177 \u00b0C"}}