{"cas_no": "3087-39-6", "cn_name": "\u56db\u53d4\u4e01\u57fa\u949b\u9178\u916f", "en_name": ["tert-Butyl titanate", "2-Propanol, 2-methyl-, titanium(4+) salt (4:1)", "tert-Butyl alcohol, titanium(4+) salt", "2-Propanol, 2-methyl-, titanium(4+) salt", "tert-Butyl titanate(IV)", "tert-Butyl titanate(IV) ((C4H9O)4Ti)", "Tetra-tert-butyl titanate", "Tetra-tert-butoxytitanium", "Titanium tetrakis(tert-butoxide)", "Titanium tert-butylate", "tert-Butyl orthotitanate", "Titanium tetra-tert-butoxide", "Titanium(4+) tert-butoxide", "Titanium tert-butoxide", "Titanium(IV) tert-butoxide", "Tetrakis(tert-butanolato)titanium", "Titanium tetrakis(t-butoxide)", "Titanium tetrakis(tert-butanolate)", "t-Butanol titanium(4+) salt", "Tetrakis(tert-butoxy)titanium", "Titanium tetrakis(2-methyl-2-propoxide)", "tert-Butyl titanate", "tert-Butoxytitanium (IV)", "Tetratertbutyl orthotitanate", "Orgatix TA 80"], "SMILES": "C(C)(C)(C)O.[Ti]", "physical_data": {"Molecular Weight": "", "Molecular Formula": "C4H10O.<sup>1</sup>/4Ti", "Boiling Point": "59-60 \u00b0C @ Press: 0.3 Torr"}}