{"cas_no": "3087-36-3", "cn_name": "\u949b\u9178\u4e59\u916f", "en_name": ["Titanium ethoxide", "Ethanol, titanium(4+) salt (4:1)", "Ethyl alcohol, titanium(4+) salt", "Ethyl titanate(IV)", "Ethanol, titanium(4+) salt", "Titanium ethoxide (Ti(OEt)4)", "Titanium, tetraethoxy-", "Tetraethyl titanate", "Tetraethoxytitanium", "Titanium tetraethoxide", "Ethyl titanate", "Titanium ethoxide", "Titanic acid ethyl ester", "Tetraethyl orthotitanate", "Tetraethyl titanate (Ti(OC2H5)4)", "Titanium(4+) ethoxide", "Titanium tetrakis(ethoxide)", "Titanium tetraethanolate", "Titanium(IV) ethoxide", "Titanium ethylate", "TEOT", "Tyzor ET", "Tetrakis(ethanolato)titanium", "Titanium, tetraethoxy-, (T-4)-"], "SMILES": "C(C)O.[Ti]", "physical_data": {"Molecular Weight": "", "Molecular Formula": "C2H6O.<sup>1</sup>/4Ti", "Boiling Point": "122 \u00b0C @ Press: 1 Torr", "Melting Point": "38 \u00b0C", "Density": "1.107 g/cm\u00b3"}}