{"cas_no": "3088-15-1", "cn_name": "4,6-\u4e8c\u82ef\u7532\u9170\u95f4\u82ef\u4e8c\u915a", "en_name": ["4,6-Dibenzoylresorcinol", "Methanone, 1,1\u2032-(4,6-dihydroxy-1,3-phenylene)bis[1-phenyl-", "Resorcinol, 4,6-dibenzoyl-", "Methanone, (4,6-dihydroxy-1,3-phenylene)bis[phenyl-", "1,1\u2032-(4,6-Dihydroxy-1,3-phenylene)bis[1-phenylmethanone]", "4,6-Dibenzoylresorcinol", "5-Benzoyl-2,4-dihydroxybenzophenone", "1,3-Dibenzoyl-4,6-dihydroxybenzene", "(4,6-dihydroxy-1,3-phenylene)bis(phenylmethanone)"], "SMILES": "C(=O)(C1=CC(C(=O)C2=CC=CC=C2)=C(O)C=C1O)C3=CC=CC=C3", "physical_data": {"Molecular Weight": "318.32", "Molecular Formula": "C20H14O4", "Melting Point": "151 \u00b0C"}}