{"cas_no": "308831-61-0", "cn_name": "SUFUGOLIX", "en_name": ["N-[4-[1-[(2,6-Difluorophenyl)methyl]-1,2,3,4-tetrahydro-5-[[methyl(phenylmethyl)amino]methyl]-2,4-dioxo-3-phenylthieno[2,3-d]pyrimidin-6-yl]phenyl]-N\u2032-methoxyurea", "Urea, N-[4-[1-[(2,6-difluorophenyl)methyl]-1,2,3,4-tetrahydro-5-[[methyl(phenylmethyl)amino]methyl]-2,4-dioxo-3-phenylthieno[2,3-d]pyrimidin-6-yl]phenyl]-N\u2032-methoxy-", "N-[4-[1-[(2,6-Difluorophenyl)methyl]-1,2,3,4-tetrahydro-5-[[methyl(phenylmethyl)amino]methyl]-2,4-dioxo-3-phenylthieno[2,3-d]pyrimidin-6-yl]phenyl]-N\u2032-methoxyurea", "5-(N-Benzyl-N-methylaminomethyl)-1-(2,6-difluorobenzyl)-6-[4-(3-methoxyureido)phenyl]-3-phenylthieno[2,3-d]pyrimidine-2,4(1H,3H)dione", "TAK 013", "Sufugolix"], "SMILES": "C(N1C2=C(C(CN(CC3=CC=CC=C3)C)=C(S2)C4=CC=C(NC(NOC)=O)C=C4)C(=O)N(C1=O)C5=CC=CC=C5)C6=C(F)C=CC=C6F", "physical_data": {"Molecular Weight": "667.72", "Molecular Formula": "C36H31F2N5O4S", "Melting Point": "182-185 \u00b0C"}}