{"cas_no": "3088-41-3", "cn_name": "N-\u6c30\u4e59\u57fa\u54cc\u5576", "en_name": ["1-Piperidinepropanenitrile", "1-Piperidinepropanenitrile", "1-Piperidinepropionitrile", "\u03b2-Piperidinopropionitrile", "3-Piperidinopropionitrile", "3-Piperidinopropanenitrile", "3-(1-Piperidinyl)propionitrile", "1-(2-Cyanoethyl)piperidine", "3-(Piperidin-1-yl)propanenitrile"], "SMILES": "C(CC#N)N1CCCCC1", "physical_data": {"Molecular Weight": "138.21", "Molecular Formula": "C8H14N2", "Boiling Point": "116 \u00b0C @ Press: 18 Torr", "Melting Point": "-6.8 \u00b0C", "Density": "0.9427 g/cm\u00b3 @ Temp: 20 \u00b0C"}}