{"cas_no": "3088-42-4", "cn_name": "N-(2-\u6c30\u4e59\u57fa)\u6c28\u57fa\u4e59\u9178", "en_name": ["N-(2-Cyanoethyl)glycine", "Glycine, N-(2-cyanoethyl)-", "N-(2-Cyanoethyl)glycine", "\u03b1-(\u03b2\u2032-Cyanoethyl)aminoacetic acid", "NSC 11804", "NSC 133475", "2-(2-Cyanoethylamino)acetic acid"], "SMILES": "N(CC(O)=O)CCC#N", "physical_data": {"Molecular Weight": "128.13", "Molecular Formula": "C5H8N2O2", "Melting Point": "190-191 \u00b0C"}}