{"cas_no": "3089-11-0", "cn_name": "2,4,6-\u4e09[\u53cc(\u7532\u6c27\u57fa\u7532\u57fa)\u6c28\u57fa]-1,3,5-\u4e09\u55ea", "en_name": ["Hexakis(methoxymethyl)melamine", "1,3,5-Triazine-2,4,6-triamine, N2,N2,N4,N4,N6,N6-hexakis(methoxymethyl)-", "Melamine, hexakis(methoxymethyl)-", "1,3,5-Triazine-2,4,6-triamine, N,N,N\u2032,N\u2032,N\u2032\u2032,N\u2032\u2032-hexakis(methoxymethyl)-", "N2,N2,N4,N4,N6,N6-Hexakis(methoxymethyl)-1,3,5-triazine-2,4,6-triamine", "Hexakis(methoxymethyl)melamine", "Hexamethylolmelamine hexamethyl ether", "Hexamethyl methylolmelamine", "Hexa(methoxymethyl)melamine", "N,N,N\u2032,N\u2032,N\u2032\u2032,N\u2032\u2032-Hexakis(methoxymethyl)-1,3,5-triazine-2,4,6-triamine", "2,4,6-Tris[bis(methoxymethyl)amino]-1,3,5-triazine", "N,N,N\u2032,N\u2032,N\u2032\u2032,N\u2032\u2032-Hexamethoxymethylmelamine", "Hexamethoxymethylolmelamine", "Hexamethoxy methyl melamine resin", "2-N,2-N,4-N,4-N,6-N,6-N-Hexakis(methoxymethyl)-1,3,5-triazine-2,4,6-triamine"], "SMILES": "N(COC)(COC)C=1N=C(N(COC)COC)N=C(N(COC)COC)N1", "physical_data": {"Molecular Weight": "390.44", "Molecular Formula": "C15H30N6O6", "Melting Point": "40-42 \u00b0C"}}