{"cas_no": "30899-19-5", "cn_name": "\u620a\u9187", "en_name": ["Pentanol", "Pentanol"], "SMILES": "", "physical_data": {"Molecular Weight": "", "Molecular Formula": "C5H12O", "Boiling Point": "138.0 \u00b0C"}}