{"cas_no": "309-00-2", "cn_name": "\u4e8c\u6c2f\u4e19\u9178", "en_name": ["Aldrin", "1,4:5,8-Dimethanonaphthalene, 1,2,3,4,10,10-hexachloro-1,4,4a,5,8,8a-hexahydro-, (1R,4S,4aS,5S,8R,8aR)-rel-", "1,4:5,8-Dimethanonaphthalene, 1,2,3,4,10,10-hexachloro-1,4,4a,5,8,8a-hexahydro-, (1\u03b1,4\u03b1,4a\u03b2,5\u03b1,8\u03b1,8a\u03b2)-", "1,4:5,8-Dimethanonaphthalene, 1,2,3,4,10,10-hexachloro-1,4,4a,5,8,8a-hexahydro-, endo,exo-", "rel-(1R,4S,4aS,5S,8R,8aR)-1,2,3,4,10,10-Hexachloro-1,4,4a,5,8,8a-hexahydro-1,4:5,8-dimethanonaphthalene", "ENT 15,949", "Aldrin", "Compound 118", "1,2,3,4,10,10-Hexachloro-1,4,4a,5,8,8a-hexahydro-1,4-endo-exo-5,8-dimethanonaphthalene", "1,2,3,4,10,10-Hexachloro-1,4,4a,5,8,8a-hexahydro-endo-1,4-exo-5,8-dimethanonaphthalene", "HHDN", "Octalene", "Seedrin", "Tatuzinho", "SD 2794", "Aldocit", "Kortofin", "Aldrex 40", "Aldrex 25", "Andrex 40", "Andrex", "Aldrine", "MeSH ID: D000452"], "SMILES": "ClC12C3C(C(Cl)(C1(Cl)Cl)C(Cl)=C2Cl)C4CC3C=C4", "physical_data": {"Molecular Weight": "364.91", "Molecular Formula": "C12H8Cl6", "Boiling Point": "145 \u00b0C @ Press: 2 Torr", "Melting Point": "104 \u00b0C", "Density": "1.6 g/cm\u00b3"}}