{"cas_no": "3091-32-5", "cn_name": "\u4e09\u73af\u5df1\u57fa\u6c2f\u5316\u9521", "en_name": ["Tricyclohexyltin chloride", "Stannane, chlorotricyclohexyl-", "Tin, chlorotricyclohexyl-", "Tricyclohexyltin chloride", "Chlorotricyclohexylstannane", "Tricyclohexylstannyl chloride", "Tris(cyclohexyl)tin chloride", "Chlorotricyclohexyltin", "NSC 202692", "Tricyclohexylchlorostannane"], "SMILES": "[Sn](Cl)(C1CCCCC1)(C2CCCCC2)C3CCCCC3", "physical_data": {"Molecular Weight": "403.62", "Molecular Formula": "C18H33ClSn", "Boiling Point": "160-175 \u00b0C @ Press: 6 Torr", "Melting Point": "129.5 \u00b0C"}}