{"cas_no": "3091-25-6", "cn_name": "\u4e59\u8f9b\u57fa\u4e09\u6c2f\u5316\u9521", "en_name": ["Octyltin trichloride", "Stannane, trichlorooctyl-", "Octyltin trichloride", "Tin, trichlorooctyl-", "Trichlorooctylstannane", "Octyltrichlorostannane", "n-Octyltin trichloride", "n-Octyltrichlorostannane", "Mono-n-octyltin trichloride", "Trichloro-n-octylstannane", "Monooctyltin trichloride", "NSC 297508"], "SMILES": "C(CCCCCCC)[Sn](Cl)(Cl)Cl", "physical_data": {"Molecular Weight": "338.29", "Molecular Formula": "C8H17Cl3Sn", "Boiling Point": "150-159 \u00b0C @ Press: 10 Torr", "Density": "1.35 g/cm\u00b3"}}