{"cas_no": "30934-97-5", "cn_name": "\u4e59\u9187\u919b\u7f29\u4e8c\u4e59\u9187", "en_name": ["2,2-Dimethoxyethanol", "Ethanol, 2,2-dimethoxy-", "Glycolaldehyde, dimethyl acetal", "2,2-Dimethoxyethanol", "Hydroxyacetaldehyde dimethyl acetal", "2,2-Dimethoxyethan-1-ol"], "SMILES": "C(CO)(OC)OC", "physical_data": {"Molecular Weight": "106.12", "Molecular Formula": "C4H10O3", "Boiling Point": "58-60 \u00b0C @ Press: 12 Torr"}}