{"cas_no": "3093-35-4", "cn_name": "\u54c8\u897f\u5948\u5fb7", "en_name": ["Halcinonide", "Pregn-4-ene-3,20-dione, 21-chloro-9-fluoro-11-hydroxy-16,17-[(1-methylethylidene)bis(oxy)]-, (11\u03b2,16\u03b1)-", "Pregn-4-ene-3,20-dione, 21-chloro-9-fluoro-11\u03b2,16\u03b1,17-trihydroxy-, cyclic 16,17-acetal with acetone", "2H-Naphth[2\u2032,1\u2032:4,5]indeno[1,2-d][1,3]dioxole, pregn-4-ene-3,20-dione deriv.", "(11\u03b2,16\u03b1)-21-Chloro-9-fluoro-11-hydroxy-16,17-[(1-methylethylidene)bis(oxy)]pregn-4-ene-3,20-dione", "Halcinonide", "SQ 18566", "Halog", "Halciderm", "Alcinonide", "Adcortin", "Halcimat", "MeSH ID: D006206"], "SMILES": "C(CCl)(=O)C12C3(C)C(CC1OC(C)(C)O2)C4C(F)(C(O)C3)C5(C)C(CC4)=CC(=O)CC5", "physical_data": {"Molecular Weight": "454.96", "Molecular Formula": "C24H32ClFO5", "Melting Point": "264 \u00b0C (decomp)"}}