{"cas_no": "30932-41-3", "cn_name": "2,2-\u4e8c\u82ef\u57fa\u73af\u4e19\u8148", "en_name": ["2,2-Diphenylcyclopropanecarbonitrile", "Cyclopropanecarbonitrile, 2,2-diphenyl-", "2,2-Diphenylcyclopropanecarbonitrile", "1-Cyano-2,2-diphenylcyclopropane", "2,2-Diphenylcyclopropyl cyanide", "NSC 120433", "2,2-Diphenylcyclopropane-1-carbonitrile"], "SMILES": "C(#N)C1C(C1)(C2=CC=CC=C2)C3=CC=CC=C3", "physical_data": {"Molecular Weight": "219.28", "Molecular Formula": "C16H13N", "Melting Point": "94-105 \u00b0C"}}