{"cas_no": "3094-09-5", "cn_name": "\u53bb\u6c27\u6c1f\u5c3f\u82f7", "en_name": ["Doxifluridine", "Uridine, 5\u2032-deoxy-5-fluoro-", "5\u2032-Deoxy-5-fluorouridine", "Ro 21-9738", "Doxifluridine", "5-Fluoro-5\u2032-deoxyuridine", "5-Fluorodesoxyuridine", "5\u2032-DFUR", "Furtulon", "5\u2032-dFUrd", "Flutron", "Fulturon"], "SMILES": "OC1C(OC(C)C1O)N2C(=O)NC(=O)C(F)=C2", "physical_data": {"Molecular Weight": "246.19", "Molecular Formula": "C9H11FN2O5", "Melting Point": "190 \u00b0C"}}