{"cas_no": "3095-95-2", "cn_name": "\u4e8c\u4e59\u57fa\u78f7\u4e59\u9178", "en_name": ["(Diethoxyphosphinyl)acetic acid", "Acetic acid, 2-(diethoxyphosphinyl)-", "Acetic acid, phosphono-, P,P-diethyl ester", "Acetic acid, (diethoxyphosphinyl)-", "2-(Diethoxyphosphinyl)acetic acid", "(Diethylphosphono)acetic acid", "Diethyl carboxymethylphosphonate", "Diethyl carboxymethanephosphonate", "(Diethoxyphosphinyl)acetic acid", "Diethoxyphosphorylacetic acid", "NSC 272281", "2-(Diethoxyphosphoryl)acetic acid"], "SMILES": "P(CC(O)=O)(OCC)(OCC)=O", "physical_data": {"Molecular Weight": "196.14", "Molecular Formula": "C6H13O5P", "Boiling Point": "95 \u00b0C @ Press: 5 Torr", "Density": "1.2308 g/cm\u00b3 @ Temp: 20 \u00b0C"}}