{"cas_no": "3095-73-6", "cn_name": "\u516d\u5168\u6eb4\u7532\u57fa\u82ef", "en_name": ["Hexakis(bromomethyl)benzene", "Benzene, 1,2,3,4,5,6-hexakis(bromomethyl)-", "Benzene, hexakis(bromomethyl)-", "1,2,3,4,5,6-Hexakis(bromomethyl)benzene", "Hexakis(bromomethyl)benzene", "NSC 28057", "1,2,3,4,5,6-Hexa(bromomethyl)benzene"], "SMILES": "C(Br)C1=C(CBr)C(CBr)=C(CBr)C(CBr)=C1CBr", "physical_data": {"Molecular Weight": "635.65", "Molecular Formula": "C12H12Br6", "Melting Point": "297 \u00b0C"}}