{"cas_no": "3095-48-5", "cn_name": "4-\u6c28\u57fa-3,5-\u4e8c\u7532\u57fa\u82ef\u7532\u9178\u7532\u916f", "en_name": ["Benzoic acid, 4-amino-3,5-dimethyl-, methyl ester", "Benzoic acid, 4-amino-3,5-dimethyl-, methyl ester", "Methyl 4-amino-3,5-dimethylbenzoate", "4-(Carbomethoxy)-2,6-dimethylaniline", "4-Amino-3,5-dimethylbenzoic acid methyl ester"], "SMILES": "C(OC)(=O)C1=CC(C)=C(N)C(C)=C1", "physical_data": {"Molecular Weight": "179.22", "Molecular Formula": "C10H13NO2", "Melting Point": "106-107 \u00b0C"}}