{"cas_no": "30950-27-7", "cn_name": "\u7d2b\u82cf\u8476", "en_name": ["Perillartine", "1-Cyclohexene-1-carboxaldehyde, 4-(1-methylethenyl)-, oxime, [C(E)]-", "1-Cyclohexene-1-carboxaldehyde, 4-(1-methylethenyl)-, oxime, (E)-", "1-Cyclohexene-1-carboxaldehyde, 4-isopropenyl-, oxime, (E)-", "Perillartine", "DL-Perillartine", "(\u00b1)-Perillartine"], "SMILES": "C(C)(=C)C1CCC(C=NO)=CC1", "physical_data": {"Molecular Weight": "165.23", "Molecular Formula": "C10H15NO", "Melting Point": "100-102 \u00b0C"}}