{"cas_no": "3096-57-9", "cn_name": "2-\u6c28\u57fa-9-\u82b4\u916e", "en_name": ["2-Amino-9H-fluoren-9-one", "9H-Fluoren-9-one, 2-amino-", "Fluoren-9-one, 2-amino-", "2-Amino-9H-fluoren-9-one", "2-Aminofluoren-9-one", "2-Aminofluorenone", "NSC 12368"], "SMILES": "O=C1C=2C(C=3C1=CC=CC3)=CC=C(N)C2", "physical_data": {"Molecular Weight": "195.22", "Molecular Formula": "C13H9NO", "Melting Point": "160 \u00b0C"}}