{"cas_no": "3096-70-6", "cn_name": "3,5-\u4e8c\u7532\u57fa-4-\u6c28\u57fa\u82ef\u915a", "en_name": ["4-Amino-3,5-dimethylphenol", "Phenol, 4-amino-3,5-dimethyl-", "3,5-Xylenol, 4-amino-", "4-Amino-3,5-dimethylphenol", "4-Hydroxy-2,6-dimethylaniline", "3,5-Dimethyl-4-aminophenol", "4-Hydroxy-2,6-xylidine", "4-Amino-3,5-xylenol", "NSC 38030"], "SMILES": "NC1=C(C)C=C(O)C=C1C", "physical_data": {"Molecular Weight": "137.18", "Molecular Formula": "C8H11NO", "Melting Point": "163 \u00b0C"}}