{"cas_no": "3096-71-7", "cn_name": "4-\u6c28\u57fa-2,5-\u4e8c\u7532\u57fa\u82ef\u915a", "en_name": ["4-Amino-2,5-dimethylphenol", "Phenol, 4-amino-2,5-dimethyl-", "2,5-Xylenol, 4-amino-", "4-Amino-2,5-dimethylphenol", "2,5-Dimethyl-4-aminophenol", "2,5-Dimethyl-4-hydroxyaniline", "(2,5-Dimethyl-4-hydroxyphenyl)amine"], "SMILES": "CC1=C(N)C=C(C)C(O)=C1", "physical_data": {"Molecular Weight": "137.18", "Molecular Formula": "C8H11NO", "Melting Point": "241 \u00b0C (decomp)"}}