{"cas_no": "30964-13-7", "cn_name": "\u6d0b\u84df\u7d20", "en_name": ["Cynarin", "Cyclohexanecarboxylic acid, 1,3-bis[[3-(3,4-dihydroxyphenyl)-1-oxo-2-propen-1-yl]oxy]-4,5-dihydroxy-, (1R,3R,4S,5R)-", "Cinnamic acid, 3,4-dihydroxy-, 1-carboxy-4,5-dihydroxy-1,3-cyclohexylene ester", "Cyclohexanecarboxylic acid, 1,3-bis[[3-(3,4-dihydroxyphenyl)-1-oxo-2-propenyl]oxy]-4,5-dihydroxy-, [1R-(1\u03b1,3\u03b1,4\u03b1,5\u03b2)]-", "Cynarine", "Cyclohexanecarboxylic acid, 1,3-bis[[3-(3,4-dihydroxyphenyl)-1-oxo-2-propenyl]oxy]-4,5-dihydroxy-, (1R,3R,4S,5R)-", "(1R,3R,4S,5R)-1,3-Bis[[3-(3,4-dihydroxyphenyl)-1-oxo-2-propen-1-yl]oxy]-4,5-dihydroxycyclohexanecarboxylic acid", "1,5-Dicaffeoylquinic acid", "Cinarin", "Cynarin", "1,3-Dicaffeoylquinic acid", "Cinarine"], "SMILES": "O(C(C=CC1=CC(O)=C(O)C=C1)=O)C2(C(O)=O)CC(OC(C=CC3=CC(O)=C(O)C=C3)=O)C(O)C(O)C2", "physical_data": {"Molecular Weight": "516.45", "Molecular Formula": "C25H24O12", "Melting Point": "225-227 \u00b0C"}}