{"cas_no": "3096-52-4", "cn_name": "2-\u785d\u57fa-9-\u82b4\u916e", "en_name": ["2-Nitrofluorenone", "9H-Fluoren-9-one, 2-nitro-", "Fluoren-9-one, 2-nitro-", "2-Nitro-9H-fluoren-9-one", "2-Nitrofluorenone", "2-Nitrofluoren-9-one", "9-Oxo-2-nitrofluorene", "NSC 12365"], "SMILES": "O=C1C=2C(C=3C1=CC=CC3)=CC=C(N(=O)=O)C2", "physical_data": {"Molecular Weight": "225.20", "Molecular Formula": "C13H7NO3", "Melting Point": "217 \u00b0C"}}