{"cas_no": "30979-48-7", "cn_name": "\u4e01\u8112\u9170\u80fa", "en_name": ["Isocarbamide", "1-Imidazolidinecarboxamide, N-(2-methylpropyl)-2-oxo-", "1-Imidazolidinecarboxamide, N-isobutyl-2-oxo-", "N-(2-Methylpropyl)-2-oxo-1-imidazolidinecarboxamide", "Imizolamid", "Azolamide", "Isocarbamide", "Isocarbomid", "BAY 94871", "Izolamid", "Isocarbamid"], "SMILES": "C(NCC(C)C)(=O)N1C(=O)NCC1", "physical_data": {"Molecular Weight": "185.22", "Molecular Formula": "C8H15N3O2", "Melting Point": "95.5 \u00b0C"}}