{"cas_no": "3099-29-4", "cn_name": "2-\u6c2f\u7532\u57fa-6-\u7532\u57fa\u5421\u5576", "en_name": ["2-(Chloromethyl)-6-methylpyridine", "Pyridine, 2-(chloromethyl)-6-methyl-", "2-(Chloromethyl)-6-methylpyridine", "6-Chloromethyl-2-picoline", "6-Methyl-2-(chloromethyl)pyridine", "6-Methyl-2-picolyl chloride", "2-Methyl-6-(chloromethyl)pyridine"], "SMILES": "C(Cl)C=1N=C(C)C=CC1", "physical_data": {"Molecular Weight": "141.60", "Molecular Formula": "C7H8ClN", "Boiling Point": "118-120 \u00b0C @ Press: 65 Torr", "Melting Point": "159-161 \u00b0C"}}