{"cas_no": "3099-30-7", "cn_name": "2-(\u6c2f\u7532\u57fa)-6-\u7532\u57fa\u5421\u5576\u76d0\u9178\u76d0", "en_name": ["Pyridine, 2-(chloromethyl)-6-methyl-, hydrochloride (1:1)", "Pyridine, 2-(chloromethyl)-6-methyl-, hydrochloride (1:1)", "Pyridine, 2-(chloromethyl)-6-methyl-, hydrochloride", "2-(Chloromethyl)-6-methylpyridine hydrochloride", "6-Chloromethyl-2-methylpyridine hydrochloride", "2-(Chloromethyl)-6-methylpyridine monohydrochloride"], "SMILES": "C(Cl)C=1N=C(C)C=CC1.Cl", "physical_data": {"Molecular Weight": "", "Molecular Formula": "C7H8ClN.ClH", "Melting Point": "146-153 \u00b0C"}}