{"cas_no": "30992-29-1", "cn_name": "N-\u53d4\u4e01\u6c27\u7fb0\u57fa-2-\u7532\u57fa\u4e19\u6c28\u9178", "en_name": ["N-[(1,1-Dimethylethoxy)carbonyl]-2-methylalanine", "Alanine, N-[(1,1-dimethylethoxy)carbonyl]-2-methyl-", "Alanine, N-carboxy-2-methyl-, N-tert-butyl ester", "N-[(1,1-Dimethylethoxy)carbonyl]-2-methylalanine", "N-tert-Butoxycarbonyl-\u03b1-aminoisobutyric acid", "2-(tert-Butoxycarbonylamino)isobutyric acid", "2-(tert-Butoxycarboxylamino)-2-methylpropanoic acid", "N-(tert-Butyloxycarbonyl)-2-aminoisobutyric acid", "N-(tert-Butoxycarbonyl)-\u03b1-methylalanine", "N-BOC-\u03b1-methylalanine", "N-tert-Butoxycarbonyl-2-aminoisobutyric acid", "N-tert-Butoxycarbonyl-2-methylalanine", "N-(tert-Butoxycarbonyl)-2,2-dimethylglycine", "N-BOC-2-aminoisobutyric acid", "2-[(tert-Butoxycarbonyl)amino]-2-methylpropionic acid", "N-Boc-2,2-dimethylglycine", "2-(tert-Butyloxycarbonylamino)isobutanoic acid", "\u03b1-(Bocamino)isobutyric acid", "2-(((tert-Butoxy)carbonyl)amino)-2-methylpropanoic acid", "N-Boc-2-methylalanine", "2-(Boc-amino)isobutyric acid", "N-Boc-\u03b1,\u03b1-dimethylglycine", "Boc-2-methylalanine", "2-(tert-Butoxycarbonylamino)isobutanoic acid", "N-Boc-2-amino-2-methylpropanoic acid", "2-Methyl-2-((t-butyloxycarbonyl)amino)propionic acid", "Boc-\u03b1-methylalanine", "Boc-aminoisobutyric acid", "2-Methyl-2-[(2-methylpropan-2-yl)oxycarbonylamino]propanoic acid"], "SMILES": "C(NC(C(O)=O)(C)C)(OC(C)(C)C)=O", "physical_data": {"Molecular Weight": "203.24", "Molecular Formula": "C9H17NO4", "Melting Point": "116-117 \u00b0C"}}