{"cas_no": "3099-31-8", "cn_name": "3-\u6c2f\u7532\u57fa\u5421\u5576", "en_name": ["3-(Chloromethyl)pyridine", "Pyridine, 3-(chloromethyl)-", "3-(Chloromethyl)pyridine", "3-Pyridylmethyl chloride", "\u03b2-Picoline chloride", "3-Picolyl chloride", "(Pyridin-3-yl)methyl chloride"], "SMILES": "C(Cl)C=1C=CC=NC1", "physical_data": {"Molecular Weight": "127.57", "Molecular Formula": "C6H6ClN", "Melting Point": "140-143 \u00b0C"}}