{"cas_no": "310-71-4", "cn_name": "2-\u6c2f-1,1,2-\u4e09\u6c1f\u4e59\u57fa\u7532\u916f", "en_name": ["2-Chloro-1-ethoxy-1,1,2-trifluoroethane", "Ethane, 2-chloro-1-ethoxy-1,1,2-trifluoro-", "Ether, 2-chloro-1,1,2-trifluoroethyl ethyl", "2-Chloro-1-ethoxy-1,1,2-trifluoroethane", "Ethoxyflurane", "2-Chloro-1,1,2-trifluoroethyl ethyl ether"], "SMILES": "C(OCC)(C(Cl)F)(F)F", "physical_data": {"Molecular Weight": "162.54", "Molecular Formula": "C4H6ClF3O", "Boiling Point": "82 \u00b0C @ Press: 630 Torr"}}