{"cas_no": "31008-19-2", "cn_name": "\u8f9b\u5937\u8102\u7d20", "en_name": ["(\u00b1)-Fargesin", "1,3-Benzodioxole, 5-[(1R,3aS,4S,6aS)-4-(3,4-dimethoxyphenyl)tetrahydro-1H,3H-furo[3,4-c]furan-1-yl]-, rel-", "1,3-Benzodioxole, 5-[4-(3,4-dimethoxyphenyl)tetrahydro-1H,3H-furo[3,4-c]furan-1-yl]-, (1\u03b1,3a\u03b1,4\u03b2,6a\u03b1)-(\u00b1)-", "1H,3H-Furo[3,4-c]furan, 1\u03b1-(3,4-dimethoxyphenyl)-3a\u03b2,4,6,6a\u03b2-tetrahydro-4\u03b2-[(3,4-methylenedioxy)phenyl]-", "1H,3H-Furo[3,4-c]furan, 1,3-benzodioxole deriv.", "rel-5-[(1R,3aS,4S,6aS)-4-(3,4-Dimethoxyphenyl)tetrahydro-1H,3H-furo[3,4-c]furan-1-yl]-1,3-benzodioxole", "Fargesin", "1,3-Benzodioxole, 5-[4-(3,4-dimethoxyphenyl)tetrahydro-1H,3H-furo[3,4-c]furan-1-yl]-, (1\u03b1,3a\u03b1,4\u03b2,6a\u03b1)-", "(\u00b1)-Fargesin"], "SMILES": "O(C)C=1C=C(C2C3C(C(OC3)C=4C=C5C(=CC4)OCO5)CO2)C=CC1OC", "physical_data": {"Molecular Weight": "370.40", "Molecular Formula": "C21H22O6", "Melting Point": "139 \u00b0C"}}