{"cas_no": "3100-04-7", "cn_name": "1-\u7532\u57fa\u73af\u4e19\u70ef", "en_name": ["1-Methylcyclopropene", "Cyclopropene, 1-methyl-", "1-Methylcyclopropene", "EthylBloc", "1-MCP", "SmartFresh", "AFXRD 038", "AFXRD 020", "Fitomag"], "SMILES": "CC=1CC1", "physical_data": {"Molecular Weight": "54.09", "Molecular Formula": "C4H6", "Boiling Point": "8 \u00b0C"}}