{"cas_no": "31005-02-4", "cn_name": "7-\u4e59\u6c27\u57fa\u9999\u8c46\u7d20", "en_name": ["7-Ethoxycoumarin", "2H-1-Benzopyran-2-one, 7-ethoxy-", "Coumarin, 7-ethoxy-", "7-Ethoxy-2H-1-benzopyran-2-one", "7-Ethoxycoumarin", "Ethylumbelliferone"], "SMILES": "O(CC)C=1C=C2C(=CC1)C=CC(=O)O2", "physical_data": {"Molecular Weight": "190.20", "Molecular Formula": "C11H10O3", "Melting Point": "89 \u00b0C"}}