{"cas_no": "31001-77-1", "cn_name": "\u5def\u4e19\u57fa\u7532\u57fa\u4e8c\u7532\u6c27\u57fa\u7845\u70f7", "en_name": ["(3-Mercaptopropyl)methyldimethoxysilane", "1-Propanethiol, 3-(dimethoxymethylsilyl)-", "3-(Dimethoxymethylsilyl)-1-propanethiol", "(3-Mercaptopropyl)methyldimethoxysilane", "(\u03b3-Mercaptopropyl)dimethoxymethylsilane", "Dimethoxy(\u03b3-mercaptopropyl)methylsilane", "Dimethoxymethyl(3-mercaptopropyl)silane", "(\u03b3-Mercaptopropyl)methyldimethoxysilane", "Methyl(3-mercaptopropyl)dimethoxysilane", "KBM 802", "(3-Mercaptopropyl)dimethoxymethylsilane", "AY 43-062", "Dimethoxy(3-mercaptopropyl)methylsilane", "Dimethoxymercaptopropylmethylsilane", "KBE 802", "SiSiB PC 2320", "KEM 802", "KH 970", "DB 591", "LM 582"], "SMILES": "[Si](CCCS)(OC)(OC)C", "physical_data": {"Molecular Weight": "180.34", "Molecular Formula": "C6H16O2SSi", "Boiling Point": "96 \u00b0C @ Press: 30 Torr", "Density": "1 g/cm\u00b3"}}