{"cas_no": "31017-40-0", "cn_name": "1-\u82ef\u57fa-1-\u73af\u5df2\u70ef", "en_name": ["Cyclohexen-1-ylbenzene", "Benzene, cyclohexen-1-yl-", "Benzene, cyclohexenyl-", "Cyclohexen-1-ylbenzene", "Phenylcyclohexene", "Cyclohexenylbenzene"], "SMILES": "", "physical_data": {"Molecular Weight": "", "Molecular Formula": "C12H14", "Boiling Point": "133 \u00b0C @ Press: 20 Torr", "Density": "1.004 g/cm\u00b3 @ Temp: 0 \u00b0C"}}