{"cas_no": "31024-56-3", "cn_name": "N-[3-(\u4e09\u7532\u6c27\u57fa\u7845\u57fa)\u4e19\u57fa]\u6b63\u4e01\u80fa", "en_name": ["N-[3-(Trimethoxysilyl)propyl]-1-butanamine", "1-Butanamine, N-[3-(trimethoxysilyl)propyl]-", "Butylamine, N-[3-(trimethoxysilyl)propyl]-", "N-[3-(Trimethoxysilyl)propyl]-1-butanamine", "N-Butyl-3-(trimethoxysilyl)propylamine", "(Butylaminopropyl)trimethoxysilane", "Dynasylan 1189", "[3-(Butylamino)propyl]trimethoxysilane", "X 12-806", "SIB 1932.2", "N-(n-Butyl)-3-aminopropyltrimethoxysilane", "HD 125", "N-(n-Butyl)-\u03b3-aminopropyltrimethoxysilane", "N-(3-Butylaminopropyl)trimethoxysilane", "N-Butyl-N-(3-trimethoxysilylpropyl)amine", "\u03b3-N-Butylaminopropyltrimethoxysilane", "N-(3-(Trimethoxysilyl)propyl)butylamine", "n-Butylaminopropyltrimethoxysilane", "A 301B", "SCA-A 64M", "N-[3-(Trimethoxysilyl)propyl]-1-butaneamine", "UP 905", "SCA 3303"], "SMILES": "[Si](CCCNCCCC)(OC)(OC)OC", "physical_data": {"Molecular Weight": "235.40", "Molecular Formula": "C10H25NO3Si", "Boiling Point": "238 \u00b0C", "Density": "0.947 g/cm\u00b3"}}