{"cas_no": "3102-00-9", "cn_name": "\u975e\u5e03\u4e19\u9187", "en_name": ["1-Butoxy-3-phenoxy-2-propanol", "2-Propanol, 1-butoxy-3-phenoxy-", "1-Butoxy-3-phenoxy-2-propanol", "1-Phenoxy-3-butoxy-2-propanol", "3-Butoxy-1-phenoxy-2-propanol", "Febuprol", "Valbil", "Valbilan", "H 33", "K 10033", "NSC 30151"], "SMILES": "O(CC(COCCCC)O)C1=CC=CC=C1", "physical_data": {"Molecular Weight": "224.30", "Molecular Formula": "C13H20O3", "Boiling Point": "165 \u00b0C", "Melting Point": "&lt;25 \u00b0C", "Density": "1.0336 g/cm\u00b3 @ Temp: 20 \u00b0C"}}