{"cas_no": "3102-56-5", "cn_name": "\u4e8c\u6c22(\u795e\u7ecf)\u9798\u6c28\u9187", "en_name": ["rel-(2R,3S)-2-Amino-1,3-octadecanediol", "1,3-Octadecanediol, 2-amino-, (2R,3S)-rel-", "1,3-Octadecanediol, 2-amino-, DL-erythro-", "1,3-Octadecanediol, 2-amino-, (R*,S*)-(\u00b1)-", "rel-(2R,3S)-2-Amino-1,3-octadecanediol", "1,3-Octadecanediol, 2-amino-, (\u00b1)-erythro-", "erythro-DL-Sphinganine", "DL-erythro-Dihydrosphingosine", "DL-erythro-Sphinganine", "dl-erythro-Dihydrosphingosine", "C18-erythro-Sphinganine", "erythro-C18-Sphinganine", "1,3-Octadecanediol, 2-amino-, (R*,S*)-"], "SMILES": "C(CCCCCCCCCCCCCC)C(C(CO)N)O", "physical_data": {"Molecular Weight": "301.51", "Molecular Formula": "C18H39NO2", "Melting Point": "62.5-63.0 \u00b0C"}}