{"cas_no": "31024-46-1", "cn_name": "3-(N-\u70ef\u4e19\u57fa\u6c28\u57fa)\u4e19\u57fa\u4e09\u7532\u6c27\u57fa\u7845\u70f7", "en_name": ["N-[3-(Trimethoxysilyl)propyl]-2-propen-1-amine", "2-Propen-1-amine, N-[3-(trimethoxysilyl)propyl]-", "Allylamine, N-[3-(trimethoxysilyl)propyl]-", "N-[3-(Trimethoxysilyl)propyl]-2-propen-1-amine", "N-Allyl-\u03b3-aminopropyltrimethoxysilane", "X 12-563", "3-(N-Allylamino)propyltrimethoxysilane", "SIA 0400.0"], "SMILES": "[Si](CCCNCC=C)(OC)(OC)OC", "physical_data": {"Molecular Weight": "219.35", "Molecular Formula": "C9H21NO3Si", "Boiling Point": "106-109 \u00b0C @ Press: 25 Torr", "Density": "0.989 g/cm\u00b3 @ Temp: 25 \u00b0C"}}