{"cas_no": "3102-87-2", "cn_name": "\u56db\u7532\u57fa\u5bf9\u82ef\u4e8c\u80fa", "en_name": ["2,3,5,6-Tetramethyl-1,4-phenylenediamine", "1,4-Benzenediamine, 2,3,5,6-tetramethyl-", "p-Phenylenediamine, 2,3,5,6-tetramethyl-", "2,3,5,6-Tetramethyl-1,4-benzenediamine", "Diaminodurol", "Diaminodurene", "1,4-Diamino-2,3,5,6-tetramethylbenzene", "Durenediamine", "2,3,5,6-Tetramethyl-p-phenylenediamine", "2,3,5,6-Tetramethylphenylenediamine", "DAD(H)", "2,3,5,6-Tetramethyl-1,4-phenylenediamine", "Tetramethyl-p-phenylenediamine", "NSC 158251", "T 1457", "1,4-Diaminodurene"], "SMILES": "CC1=C(C)C(N)=C(C)C(C)=C1N", "physical_data": {"Molecular Weight": "164.25", "Molecular Formula": "C10H16N2", "Melting Point": "149-150 \u00b0C"}}