{"cas_no": "31036-80-3", "cn_name": "\u6d1b\u975e\u897f\u5b9a", "en_name": ["Lofexidine", "1H-Imidazole, 2-[1-(2,6-dichlorophenoxy)ethyl]-4,5-dihydro-", "2-Imidazoline, 2-[1-(2,6-dichlorophenoxy)ethyl]-", "2-[1-(2,6-Dichlorophenoxy)ethyl]-4,5-dihydro-1H-imidazole", "Lofexidine", "(\u00b1)-Lofexidine", "NIH 10868"], "SMILES": "O(C(C)C=1NCCN1)C2=C(Cl)C=CC=C2Cl", "physical_data": {"Molecular Weight": "259.13", "Molecular Formula": "C11H12Cl2N2O", "Melting Point": "127 \u00b0C"}}