{"cas_no": "3105-95-1", "cn_name": "L-2-\u54cc\u5576\u9178", "en_name": ["L-Pipecolic acid", "2-Piperidinecarboxylic acid, (2S)-", "Pipecolic acid, (S)-(-)-", "2-Piperidinecarboxylic acid, (S)-", "(2S)-2-Piperidinecarboxylic acid", "(S)-(-)-2-Piperidinecarboxylic acid", "L-Pipecolic acid", "L-(-)-Pipecolic acid", "L-Piperidine-2-carboxylic acid", "(S)-Piperidine-2-carboxylic acid", "(S)-(-)-Pipecolic acid", "(S)-Pipecolinic acid", "(S)-Pipecolic acid", "L-Homoproline", "L-Pipecolinic acid", "(-)-Pipecolic acid", "NSC 93089", "(-)-Pipecolinic acid", "(2S)-Piperidine-2-carboxylic acid", "(2S)-Piperidin-1-ium-2-carboxylate", "2-Piperidinecarboxylic acid (2S)-", "L-Pipeocolic acid"], "SMILES": "C(O)(=O)C1CCCCN1", "physical_data": {"Molecular Weight": "129.16", "Molecular Formula": "C6H11NO2", "Melting Point": "268 \u00b0C (decomp)"}}