{"cas_no": "31058-83-0", "cn_name": "4-\u6c2f-6-\u4e8c\u7532\u6c28\u57fa\u5627\u5576", "en_name": ["6-Chloro-N,N-dimethyl-4-pyrimidinamine", "4-Pyrimidinamine, 6-chloro-N,N-dimethyl-", "Pyrimidine, 4-chloro-6-(dimethylamino)-", "6-Chloro-N,N-dimethyl-4-pyrimidinamine", "4-Chloro-6-(dimethylamino)pyrimidine", "(6-Chloropyrimidin-4-yl)dimethylamine", "6-Chloro-N,N-dimethylpyrimidin-4-amine"], "SMILES": "N(C)(C)C=1C=C(Cl)N=CN1", "physical_data": {"Molecular Weight": "157.60", "Molecular Formula": "C6H8ClN3", "Melting Point": "102-103 \u00b0C"}}