{"cas_no": "3105-97-3", "cn_name": "\u6d77\u6069\u916e", "en_name": ["Hycanthone", "9H-Thioxanthen-9-one, 1-[[2-(diethylamino)ethyl]amino]-4-(hydroxymethyl)-", "Thioxanthen-9-one, 1-[[2-(diethylamino)ethyl]amino]-4-(hydroxymethyl)-", "1-[[2-(Diethylamino)ethyl]amino]-4-(hydroxymethyl)-9H-thioxanthen-9-one", "Win 24933", "1-[[2-(Diethylamino)ethyl]amino]-4-(hydroxymethyl)thioxanthen-9-one", "Hycanthone", "Hycanthon", "NSC 142982", "NSC 134434", "NCI 142982"], "SMILES": "C(O)C1=C2C(=C(NCCN(CC)CC)C=C1)C(=O)C=3C(S2)=CC=CC3", "physical_data": {"Molecular Weight": "356.48", "Molecular Formula": "C20H24N2O2S", "Melting Point": "101.9 \u00b0C"}}