{"cas_no": "31058-81-8", "cn_name": "4-\uff08N\uff0cN-\u4e8c\u7532\u57fa\u6c28\u57fa\uff09-2-\u6c2f\u5627\u5576", "en_name": ["2-Chloro-N,N-dimethyl-4-pyrimidinamine", "4-Pyrimidinamine, 2-chloro-N,N-dimethyl-", "Pyrimidine, 2-chloro-4-(dimethylamino)-", "2-Chloro-N,N-dimethyl-4-pyrimidinamine", "2-Chloro-4-(dimethylamino)pyrimidine", "2-Chloro-4-(N,N-dimethylamino)pyrimidine", "NSC 45769", "(2-Chloropyrimidin-4-yl)dimethylamine", "2-Chloro-N,N-dimethylpyrimidin-4-amine"], "SMILES": "N(C)(C)C1=NC(Cl)=NC=C1", "physical_data": {"Molecular Weight": "157.60", "Molecular Formula": "C6H8ClN3", "Melting Point": "81 \u00b0C"}}