{"cas_no": "3106-85-2", "cn_name": "\u5f02\u51ac\u8c37\u9178", "en_name": ["N-Acetylaspartylglutamic acid", "L-Glutamic acid, N-acetyl-L-\u03b1-aspartyl-", "L-Glutamic acid, N-(N-acetyl-L-\u03b1-aspartyl)-", "Glutamic acid, N-(N-acetyl-L-aspartyl)-, L-", "N-Acetyl-L-\u03b1-aspartyl-L-glutamic acid", "N-Acetyl-\u03b1-aspartylglutamic acid", "N-Acetylaspartylglutamic acid", "N-Acetyl-\u03b1-L-aspartyl-L-glutamic acid", "Isospaglumic acid", "Acetyl-\u03b1-L-aspartylglutamic acid", "N-(N-Acetylaspartyl)glutamic acid", "\u03b1-Spaglumic acid", "N-Acetyl-L-aspartyl-L-glutamic acid", "NAAG"], "SMILES": "C(C(NC(CCC(O)=O)C(O)=O)=O)(CC(O)=O)NC(C)=O", "physical_data": {"Molecular Weight": "304.25", "Molecular Formula": "C11H16N2O8", "Melting Point": "171-173 \u00b0C"}}