{"cas_no": "3107-19-5", "cn_name": "3,5-\u4e8c\u6c2f-4-\u6c1f\u785d\u57fa\u82ef", "en_name": ["1,3-Dichloro-2-fluoro-5-nitrobenzene", "Benzene, 1,3-dichloro-2-fluoro-5-nitro-", "1,3-Dichloro-2-fluoro-5-nitrobenzene", "3,5-Dichloro-4-fluoronitrobenzene"], "SMILES": "N(=O)(=O)C1=CC(Cl)=C(F)C(Cl)=C1", "physical_data": {"Molecular Weight": "209.99", "Molecular Formula": "C6H2Cl2FNO2", "Melting Point": "44 \u00b0C"}}