{"cas_no": "3107-33-3", "cn_name": "3-(\u4e09\u6c1f\u7532\u57fa)\u82ef\u80bc\u76d0\u9178\u76d0", "en_name": ["Hydrazine, [3-(trifluoromethyl)phenyl]-, hydrochloride (1:1)", "Hydrazine, [3-(trifluoromethyl)phenyl]-, hydrochloride (1:1)", "Hydrazine, [3-(trifluoromethyl)phenyl]-, monohydrochloride", "Hydrazine, (\u03b1,\u03b1,\u03b1-trifluoro-m-tolyl)-, hydrochloride", "3-Trifluoromethylphenylhydrazine hydrochloride"], "SMILES": "C(F)(F)(F)C1=CC(NN)=CC=C1.Cl", "physical_data": {"Molecular Weight": "", "Molecular Formula": "C7H7F3N2.ClH", "Melting Point": "224-225 \u00b0C (decomp)"}}