{"cas_no": "3107-04-8", "cn_name": "DL-\u522b\u5f02\u4eae\u6c28\u9178", "en_name": ["Alloisoleucine", "Alloisoleucine", "Alloisoleucine, DL-", "(\u00b1)-allo-Isoleucine", "DL-allo-Isoleucine", "DL-Alloisoleucine"], "SMILES": "C(C(CC)C)(C(O)=O)N", "physical_data": {"Molecular Weight": "131.17", "Molecular Formula": "C6H13NO2", "Melting Point": "238 \u00b0C (decomp)"}}