{"cas_no": "3107-21-9", "cn_name": "3,4,5-\u4e09\u6c2f\u6c1f\u82ef", "en_name": ["1,2,3-Trichloro-5-fluorobenzene", "Benzene, 1,2,3-trichloro-5-fluoro-", "1,2,3-Trichloro-5-fluorobenzene", "3,4,5-Trichlorofluorobenzene", "1-Fluoro-3,4,5-trichlorobenzene"], "SMILES": "ClC1=C(Cl)C=C(F)C=C1Cl", "physical_data": {"Molecular Weight": "199.44", "Molecular Formula": "C6H2Cl3F", "Melting Point": "52 \u00b0C"}}