{"cas_no": "31078-36-1", "cn_name": "\u7678\u9178\u9999\u8349\u9170\u80fa", "en_name": ["N-Vanillyldecanamide", "Decanamide, N-[(4-hydroxy-3-methoxyphenyl)methyl]-", "Decanamide, N-vanillyl-", "N-[(4-Hydroxy-3-methoxyphenyl)methyl]decanamide", "Vanillyl N-decoylamide", "Decylic acid vanillylamide", "Capric acid vanillylamide", "N-Vanillyldecanamide"], "SMILES": "C(NC(CCCCCCCCC)=O)C1=CC(OC)=C(O)C=C1", "physical_data": {"Molecular Weight": "307.43", "Molecular Formula": "C18H29NO3", "Melting Point": "48-50 \u00b0C"}}