{"cas_no": "31080-39-4", "cn_name": "2-N-\u4e19\u57fa\u5e9a\u9178", "en_name": ["2-Propylheptanoic acid", "Heptanoic acid, 2-propyl-", "2-Propylheptanoic acid", "Isocarb 10"], "SMILES": "C(CCCCC)(CCC)C(O)=O", "physical_data": {"Molecular Weight": "172.26", "Molecular Formula": "C10H20O2", "Boiling Point": "145 \u00b0C @ Press: 14 Torr"}}