{"cas_no": "31083-55-3", "cn_name": "PRT4165", "en_name": ["2-(3-Pyridinylmethylene)-1H-indene-1,3(2H)-dione", "1H-Indene-1,3(2H)-dione, 2-(3-pyridinylmethylene)-", "1,3-Indandione, 2-(3-pyridylmethylene)-", "2-(3-Pyridinylmethylene)-1H-indene-1,3(2H)-dione", "2-(3-Pyridylmethylene)-1,3-indandione", "NSC 600157", "PRT 4165", "SML 1013", "2-(Pyridin-3-ylmethylidene)indene-1,3-dione", "2-[(Pyridin-3-yl)methylidene]-2,3-dihydro-1H-indene-1,3-dione", "2-Pyridin-3-ylmethylene-indan-1,3-dione"], "SMILES": "O=C1C=2C(C(=O)C1=CC=3C=CC=NC3)=CC=CC2", "physical_data": {"Molecular Weight": "235.24", "Molecular Formula": "C15H9NO2", "Melting Point": "154-161 \u00b0C"}}