{"cas_no": "3108-24-5", "cn_name": "\u5168\u6c1f\u8f9b\u9178\u4e59\u916f", "en_name": ["Ethyl 2,2,3,3,4,4,5,5,6,6,7,7,8,8,8-pentadecafluorooctanoate", "Octanoic acid, 2,2,3,3,4,4,5,5,6,6,7,7,8,8,8-pentadecafluoro-, ethyl ester", "Octanoic acid, pentadecafluoro-, ethyl ester", "Ethyl 2,2,3,3,4,4,5,5,6,6,7,7,8,8,8-pentadecafluorooctanoate", "Ethyl perfluorooctanoate", "Ethyl pentadecafluorooctanoate"], "SMILES": "C(C(C(C(C(OCC)=O)(F)F)(F)F)(F)F)(C(C(C(F)(F)F)(F)F)(F)F)(F)F", "physical_data": {"Molecular Weight": "442.12", "Molecular Formula": "C10H5F15O2", "Boiling Point": "74-76 \u00b0C @ Press: 18 Torr", "Density": "1.623 g/cm\u00b3 @ Temp: 25 \u00b0C"}}