{"cas_no": "31098-21-2", "cn_name": "\u7532\u57fa\u4e19\u70ef\u91783-\u78fa\u9178\u4e19\u916f\u94be\u76d0", "en_name": ["3-Sulfopropyl methacrylate potassium salt", "2-Propenoic acid, 2-methyl-, 3-sulfopropyl ester, potassium salt (1:1)", "Methacrylic acid, ester with 3-hydroxy-1-propanesulfonic acid potassium salt", "2-Propenoic acid, 2-methyl-, 3-sulfopropyl ester, potassium salt", "1-Propanesulfonic acid, 3-hydroxy-, methacrylate, potassium salt", "Potassium 3-(methacryloyloxy)propanesulfonate", "Potassium 3-sulfopropyl methacrylate", "SPM (salt)", "SPM", "3-Sulfopropyl methacrylate potassium salt", "Potassium 3-(methacryloyloxy)-1-propanesulfonate", "Sulfopropyl methacrylate potassium salt", "SPMA-K"], "SMILES": "O(CCCS(=O)(=O)O)C(C(C)=C)=O.[K]", "physical_data": {"Molecular Weight": "", "Molecular Formula": "C7H12O5S.K", "Melting Point": "&gt;300 \u00b0C (decomp)"}}