{"cas_no": "31098-20-1", "cn_name": "3-\u4e19-2-\u70ef\u9170\u6c27\u57fa\u4e19\u70f7-1-\u78fa\u9178\u94be", "en_name": ["Sulfopropyl acrylate potassium salt", "2-Propenoic acid, 3-sulfopropyl ester, potassium salt (1:1)", "Acrylic acid, ester with 3-hydroxy-1-propanesulfonic acid potassium salt", "2-Propenoic acid, 3-sulfopropyl ester, potassium salt", "1-Propanesulfonic acid, 3-hydroxy-, acrylate, potassium salt", "Potassium 3-(acryloyloxy)-1-propanesulfonate", "3-Sulfopropyl acrylate potassium salt", "Potassium 3-sulfopropyl acrylate", "Ralu MER-SPA", "Potassium 3-acryloyloxypropanesulfonate", "Sulfopropyl acrylate potassium salt", "SPA-K"], "SMILES": "C(S(=O)(=O)O)CCOC(C=C)=O.[K]", "physical_data": {"Molecular Weight": "", "Molecular Formula": "C6H10O5S.K", "Melting Point": "290 \u00b0C (decomp)"}}