{"cas_no": "3109-63-5", "cn_name": "\u56db\u4e01\u57fa\u516d\u6c1f\u78f7\u9178\u94f5", "en_name": ["Tetrabutylammonium hexafluorophosphate", "1-Butanaminium, N,N,N-tributyl-, hexafluorophosphate(1-) (1:1)", "Ammonium, tetrabutyl-, hexafluorophosphate(1-)", "1-Butanaminium, N,N,N-tributyl-, hexafluorophosphate(1-)", "Tetrabutylammonium hexafluorophosphate", "Phosphate(1-), hexafluoro-, tetrabutylammonium", "Phosphate(1-), hexafluoro-, N,N,N-tributyl-1-butanaminium", "Tetra-n-butylammonium hexafluorophosphate", "Tetrabutylammonium hexafluorophosphate(1-)", "Tetra-n-butylammonium hexaflurophosphate", "TBAPF6"], "SMILES": "[N+](CCCC)(CCCC)(CCCC)CCCC.[P+5]([F-])([F-])([F-])([F-])([F-])[F-]", "physical_data": {"Molecular Weight": "", "Molecular Formula": "C16H36N.F6P", "Melting Point": "243-246 \u00b0C"}}