{"cas_no": "311-89-7", "cn_name": "\u5168\u6c1f\u4e09\u4e01\u80fa", "en_name": ["Perfluorotributylamine", "1-Butanamine, 1,1,2,2,3,3,4,4,4-nonafluoro-N,N-bis(1,1,2,2,3,3,4,4,4-nonafluorobutyl)-", "Tributylamine, heptacosafluoro-", "1-Butanamine, 1,1,2,2,3,3,4,4,4-nonafluoro-N,N-bis(nonafluorobutyl)-", "1,1,2,2,3,3,4,4,4-Nonafluoro-N,N-bis(1,1,2,2,3,3,4,4,4-nonafluorobutyl)-1-butanamine", "FC 43", "Tri(perfluorobutyl)amine", "Heptacosafluorotributylamine", "Fluorocarbon FC 43", "Tris(nonafluorobutyl)amine", "FC 47", "Perfluorotri-n-butylamine", "Fluorinert FC 43", "Medifluor FC 47", "Mediflor FC 43", "Tris(perfluorobutyl)amine", "Fluosol FC 43", "Eftop EF-L 174", "Oxyferol", "PFTBA", "Afluid E 18", "Perfluorotributylamine", "Fluorinert 43", "NSC 3501", "EFL 174S", "Tri (n-butyl perfluoro)", "CT-solv 180", "Flourinert FC 40"], "SMILES": "N(C(C(C(C(F)(F)F)(F)F)(F)F)(F)F)(C(C(C(C(F)(F)F)(F)F)(F)F)(F)F)C(C(C(C(F)(F)F)(F)F)(F)F)(F)F", "physical_data": {"Molecular Weight": "671.09", "Molecular Formula": "C12F27N", "Boiling Point": "178 \u00b0C", "Melting Point": "-50 \u00b0C", "Density": "1.884 g/cm\u00b3 @ Temp: 25 \u00b0C"}}