{"cas_no": "311-46-6", "cn_name": "\u4e59\u57fa\u78f7\u9170\u57fa\u4e59\u9178\u4e8c\u7532\u916f", "en_name": ["Ethyl 2-(dimethoxyphosphinyl)acetate", "Acetic acid, 2-(dimethoxyphosphinyl)-, ethyl ester", "Acetic acid, phosphono-, 1-ethyl dimethyl ester", "Acetic acid, (dimethoxyphosphinyl)-, ethyl ester", "Ethyl 2-(dimethoxyphosphinyl)acetate", "Ethyl O,O-dimethylphosphonoacetate", "Ethyl dimethoxyphosphonoacetate", "Ethyl (dimethoxyphosphinyl)acetate", "Ethyl (dimethylphosphono)acetate", "Ethyl 2-(dimethoxyphosphoryl)acetate"], "SMILES": "P(CC(OCC)=O)(OC)(OC)=O", "physical_data": {"Molecular Weight": "196.14", "Molecular Formula": "C6H13O5P", "Boiling Point": "134.5-135.0 \u00b0C @ Press: 10 Torr", "Density": "1.2053 g/cm\u00b3 @ Temp: 0 \u00b0C"}}