{"cas_no": "311-28-4", "cn_name": "\u56db\u4e01\u57fa\u7898\u5316\u94f5", "en_name": ["Tetrabutylammonium iodide", "1-Butanaminium, N,N,N-tributyl-, iodide (1:1)", "Ammonium, tetrabutyl-, iodide", "Tetrabutylammonium iodide", "1-Butanaminium, N,N,N-tributyl-, iodide", "Tetra-n-butylammonium iodide"], "SMILES": "[N+](CCCC)(CCCC)(CCCC)CCCC.[I-]", "physical_data": {"Molecular Weight": "", "Molecular Formula": "C16H36N.I", "Melting Point": "144-145 \u00b0C"}}