{"cas_no": "31112-62-6", "cn_name": "\u7532\u6cdb\u8461\u80fa", "en_name": ["Metrizamide", "D-Glucose, 2-[[3-(acetylamino)-5-(acetylmethylamino)-2,4,6-triiodobenzoyl]amino]-2-deoxy-", "D-Glucose, 2-[3-acetamido-2,4,6-triiodo-5-(N-methylacetamido)benzamido]-2-deoxy-", "2-[[3-(Acetylamino)-5-(acetylmethylamino)-2,4,6-triiodobenzoyl]amino]-2-deoxy-D-glucose", "Metrizamide", "Amipaque", "Telebrix 300", "2-[3-Acetamido-5-(N-methylacetamido)-2,4,6-triiodobenzamido]-2-deoxy-D-glucose", "MeSH ID: D008793"], "SMILES": "C(NC(C(C(C(CO)O)O)O)C=O)(=O)C1=C(I)C(N(C(C)=O)C)=C(I)C(NC(C)=O)=C1I", "physical_data": {"Molecular Weight": "789.10", "Molecular Formula": "C18H22I3N3O8", "Melting Point": "223 \u00b0C (decomp)"}}