{"cas_no": "3112-31-0", "cn_name": "3\uff0c5-\u5421\u5511\u4e8c\u7532\u9178", "en_name": ["Pyrazole-3,5-dicarboxylic acid", "1H-Pyrazole-3,5-dicarboxylic acid", "Pyrazole-3,5-dicarboxylic acid", "3,5-Dicarboxypyrazole", "NSC 51108", "3,5-Pyrazoledicarboxylic acid"], "SMILES": "C(O)(=O)C=1C=C(C(O)=O)NN1", "physical_data": {"Molecular Weight": "156.10", "Molecular Formula": "C5H4N2O4", "Melting Point": "287 \u00b0C"}}