{"cas_no": "3112-90-1", "cn_name": "\u82c4\u57fa\u7532\u57fa\u781c", "en_name": ["[(Methylsulfonyl)methyl]benzene", "Benzene, [(methylsulfonyl)methyl]-", "Sulfone, benzyl methyl", "[(Methylsulfonyl)methyl]benzene", "Benzyl methyl sulfone", "Methyl benzyl sulfone", "NSC 409406", "(Methanesulfonylmethyl)benzene"], "SMILES": "C(S(C)(=O)=O)C1=CC=CC=C1", "physical_data": {"Molecular Weight": "170.23", "Molecular Formula": "C8H10O2S", "Melting Point": "127 \u00b0C"}}