{"cas_no": "31121-93-4", "cn_name": "\u5e03\u6d1b\u82ac\u94a0", "en_name": ["Ibuprofen sodium", "Benzeneacetic acid, \u03b1-methyl-4-(2-methylpropyl)-, sodium salt (1:1)", "Hydratropic acid, p-isobutyl-, sodium salt", "Benzeneacetic acid, \u03b1-methyl-4-(2-methylpropyl)-, sodium salt", "Sodium ibuprofen", "2-(4-Isobutylphenyl)propionic acid sodium salt", "Ibuprofen sodium salt", "Ibuprofen sodium", "Sodium 2-(4-isobutylphenyl)propionate", "\u03b1-Methyl-4-(2-methylpropyl)benzeneacetic acid sodium salt"], "SMILES": "C(C(O)=O)(C)C1=CC=C(CC(C)C)C=C1.[Na]", "physical_data": {"Molecular Weight": "", "Molecular Formula": "C13H18O2.Na", "Melting Point": "110-112 \u00b0C"}}