{"cas_no": "3112-88-7", "cn_name": "\u82c4\u57fa\u82ef\u57fa\u781c", "en_name": ["[(Phenylmethyl)sulfonyl]benzene", "Benzene, [(phenylmethyl)sulfonyl]-", "Sulfone, benzyl phenyl", "[(Phenylmethyl)sulfonyl]benzene", "Benzyl phenyl sulfone", "Phenyl benzyl sulfone", "NSC 15407"], "SMILES": "C(S(=O)(=O)C1=CC=CC=C1)C2=CC=CC=C2", "physical_data": {"Molecular Weight": "232.30", "Molecular Formula": "C13H12O2S", "Melting Point": "146 \u00b0C"}}