{"cas_no": "31127-80-7", "cn_name": "\u7898\u6d77\u9187\u6c34\u89e3\u7269", "en_name": ["5-Acetamido-N,N\u2032-bis(2,3-dihydroxypropyl)-2,4,6-triiodoisophthalamide", "1,3-Benzenedicarboxamide, 5-(acetylamino)-N1,N3-bis(2,3-dihydroxypropyl)-2,4,6-triiodo-", "Isophthalamide, 5-acetamido-N,N\u2032-bis(2,3-dihydroxypropyl)-2,4,6-triiodo-", "1,3-Benzenedicarboxamide, 5-(acetylamino)-N,N\u2032-bis(2,3-dihydroxypropyl)-2,4,6-triiodo-", "5-(Acetylamino)-N1,N3-bis(2,3-dihydroxypropyl)-2,4,6-triiodo-1,3-benzenedicarboxamide", "5-Acetylamino-N,N\u2032-bis(2,3-dihydroxypropyl)-2,4,6-triiodoisophthalamide", "5-(Acetylamino)-N,N\u2032-bis(2,3-dihydroxypropyl)-2,4,6-triiodo-1,3-benzenedicarboxamide", "5-Acetamido-N,N\u2032-bis(2,3-dihydroxypropyl)-2,4,6-triiodoisophthalamide"], "SMILES": "C(NCC(CO)O)(=O)C1=C(I)C(C(NCC(CO)O)=O)=C(I)C(NC(C)=O)=C1I", "physical_data": {"Molecular Weight": "747.06", "Molecular Formula": "C16H20I3N3O7", "Melting Point": "313-321 \u00b0C"}}