{"cas_no": "3112-85-4", "cn_name": "\u82ef\u7532\u781c", "en_name": ["Methyl phenyl sulfone", "Benzene, (methylsulfonyl)-", "Sulfone, methyl phenyl", "(Methylsulfonyl)benzene", "Methyl phenyl sulfone", "Phenyl methyl sulfone", "(Phenylsulfonyl)methane", "NSC 41587"], "SMILES": "S(C)(=O)(=O)C1=CC=CC=C1", "physical_data": {"Molecular Weight": "156.20", "Molecular Formula": "C7H8O2S", "Boiling Point": "63 \u00b0C @ Press: 0.03 Torr", "Melting Point": "86 \u00b0C"}}