{"cas_no": "31127-54-5", "cn_name": "2,3,4,4'-\u56db\u7f9f\u57fa\u4e8c\u82ef\u7532\u916e", "en_name": ["2,3,4,4\u2032-Tetrahydroxybenzophenone", "Methanone, (4-hydroxyphenyl)(2,3,4-trihydroxyphenyl)-", "Benzophenone, 2,3,4,4\u2032-tetrahydroxy-", "(4-Hydroxyphenyl)(2,3,4-trihydroxyphenyl)methanone", "4,2\u2032,3\u2032,4\u2032-Tetrahydroxybenzophenone", "2,3,4,4\u2032-Tetrahydroxybenzophenone", "HBP 2344"], "SMILES": "C(=O)(C1=C(O)C(O)=C(O)C=C1)C2=CC=C(O)C=C2", "physical_data": {"Molecular Weight": "246.22", "Molecular Formula": "C13H10O5", "Melting Point": "219 \u00b0C"}}