{"cas_no": "3113-72-2", "cn_name": "5-\u7532\u57fa-2-\u785d\u57fa\u82ef\u7532\u9178", "en_name": ["5-Methyl-2-nitrobenzoic acid", "Benzoic acid, 5-methyl-2-nitro-", "m-Toluic acid, 6-nitro-", "5-Methyl-2-nitrobenzoic acid", "3-Methyl-6-nitrobenzoic acid", "2-Nitro-5-methylbenzoic acid", "NSC 38067", "5-Methyl-2-nitrobenzoate"], "SMILES": "N(=O)(=O)C1=C(C(O)=O)C=C(C)C=C1", "physical_data": {"Molecular Weight": "181.15", "Molecular Formula": "C8H7NO4", "Melting Point": "219 \u00b0C"}}