{"cas_no": "3113-71-1", "cn_name": "3-\u7532\u57fa-4-\u785d\u57fa\u82ef\u7532\u9178", "en_name": ["3-Methyl-4-nitrobenzoic acid", "Benzoic acid, 3-methyl-4-nitro-", "m-Toluic acid, 4-nitro-", "3-Methyl-4-nitrobenzoic acid", "4-Nitro-m-toluic acid", "m-Methyl-p-nitrobenzoic acid", "4-Nitro-3-methylbenzoic acid", "NSC 28455"], "SMILES": "C(O)(=O)C1=CC(C)=C(N(=O)=O)C=C1", "physical_data": {"Molecular Weight": "181.15", "Molecular Formula": "C8H7NO4", "Melting Point": "211 \u00b0C"}}