{"cas_no": "3114-70-3", "cn_name": "1,4-\u73af\u5df1\u4e8c\u80fa", "en_name": ["1,4-Diaminocyclohexane", "1,4-Cyclohexanediamine", "Hexahydro-1,4-phenylenediamine", "1,4-Diaminocyclohexane", "1,4-Cyclohexylenediamine", "4-Aminocyclohexylamine"], "SMILES": "NC1CCC(N)CC1", "physical_data": {"Molecular Weight": "114.19", "Molecular Formula": "C6H14N2", "Boiling Point": "90 \u00b0C @ Press: 22 Torr"}}