{"cas_no": "3115-68-2", "cn_name": "\u56db\u6b63\u4e01\u57fa\u6eb4\u5316\u81a6", "en_name": ["Tetrabutylphosphonium bromide", "Phosphonium, tetrabutyl-, bromide (1:1)", "Phosphonium, tetrabutyl-, bromide", "Tetrabutylphosphonium bromide", "Tetra-n-butylphosphonium bromide", "PX 4B", "NSC 41942", "Cyphos 443W", "TBP-BB", "T 1124", "Cyphos IL 163", "Cyphos 163"], "SMILES": "[P+](CCCC)(CCCC)(CCCC)CCCC.[Br-]", "physical_data": {"Molecular Weight": "", "Molecular Formula": "C16H36P.Br", "Melting Point": "99-101 \u00b0C"}}