{"cas_no": "3115-49-9", "cn_name": "(4-\u58ec\u57fa\u82ef\u6c27\u57fa)\u4e59\u9178", "en_name": ["4-Nonylphenoxyacetic acid", "Acetic acid, 2-(4-nonylphenoxy)-", "Acetic acid, (p-nonylphenoxy)-", "Acetic acid, (4-nonylphenoxy)-", "2-(4-Nonylphenoxy)acetic acid", "(p-Nonylphenoxy)acetic acid", "4-Nonylphenoxyacetic acid"], "SMILES": "O(CC(O)=O)C1=CC=C(CCCCCCCCC)C=C1", "physical_data": {"Molecular Weight": "278.39", "Molecular Formula": "C17H26O3", "Melting Point": "&lt;25 \u00b0C"}}