{"cas_no": "3115-66-0", "cn_name": "\u56db\u4e01\u57fa\u7898\u5316\u81a6", "en_name": ["Phosphonium, tetrabutyl-, iodide (1:1)", "Phosphonium, tetrabutyl-, iodide (1:1)", "Phosphonium, tetrabutyl-, iodide", "Tetrabutylphosphonium iodide", "NSC 104836"], "SMILES": "[P+](CCCC)(CCCC)(CCCC)CCCC.[I-]", "physical_data": {"Molecular Weight": "", "Molecular Formula": "C16H36P.I", "Melting Point": "95-96 \u00b0C"}}