{"cas_no": "31161-71-4", "cn_name": "\u5341\u56db\u9178\u82c4\u916f", "en_name": ["Benzyl myristate", "Tetradecanoic acid, phenylmethyl ester", "Benzyl tetradecanoate", "Benzyl myristate", "Myristic acid benzyl ester"], "SMILES": "C(OC(CCCCCCCCCCCCC)=O)C1=CC=CC=C1", "physical_data": {"Molecular Weight": "318.49", "Molecular Formula": "C21H34O2", "Boiling Point": "229-231 \u00b0C @ Press: 11 Torr", "Melting Point": "20.5 \u00b0C", "Density": "0.9321 g/cm\u00b3 @ Temp: 25 \u00b0C"}}