{"cas_no": "3116-76-5", "cn_name": "\u53cc\u6c2f\u897f\u6797", "en_name": ["Dicloxacillin", "4-Thia-1-azabicyclo[3.2.0]heptane-2-carboxylic acid, 6-[[[3-(2,6-dichlorophenyl)-5-methyl-4-isoxazolyl]carbonyl]amino]-3,3-dimethyl-7-oxo-, (2S,5R,6R)-", "4-Thia-1-azabicyclo[3.2.0]heptane-2-carboxylic acid, 6-[3-(2,6-dichlorophenyl)-5-methyl-4-isoxazolecarboxamido]-3,3-dimethyl-7-oxo-", "4-Thia-1-azabicyclo[3.2.0]heptane-2-carboxylic acid, 6-[[[3-(2,6-dichlorophenyl)-5-methyl-4-isoxazolyl]carbonyl]amino]-3,3-dimethyl-7-oxo-, [2S-(2\u03b1,5\u03b1,6\u03b2)]-", "(2S,5R,6R)-6-[[[3-(2,6-Dichlorophenyl)-5-methyl-4-isoxazolyl]carbonyl]amino]-3,3-dimethyl-7-oxo-4-thia-1-azabicyclo[3.2.0]heptane-2-carboxylic acid", "BRL 1702", "R 13423", "6-[3-(2,6-Dichlorophenyl)-5-methyl-4-isoxazolecarboxamido]-3,3-dimethyl-7-oxo-4-thia-1-azabicyclo[3.2.0]heptane-2-carboxylic acid", "Dicloxacillin", "[5-Methyl-3-(2,6-dichlorophenyl)-4-isoxazolylyl]penicillin", "3-(2,6-Dichlorophenyl)-5-methyl-4-isooxazolylpenicillin", "Dicloxacycline", "[3-(2,6-Dichlorophenyl)-5-methyl-4-isoxazolyl]penicillin", "Maclicine", "Stapenor D", "Staphcillin A", "MeSH ID: D004009"], "SMILES": "C(O)(=O)C1N2C(C(NC(=O)C=3C(=NOC3C)C4=C(Cl)C=CC=C4Cl)C2=O)SC1(C)C", "physical_data": {"Molecular Weight": "470.33", "Molecular Formula": "C19H17Cl2N3O5S", "Melting Point": "218 \u00b0C (decomp)"}}