{"cas_no": "31161-46-3", "cn_name": "2-\u6eb4-5-\u82ef\u7532\u9170\u57fa\u567b\u5429", "en_name": ["(5-Bromo-2-thienyl)phenylmethanone", "Methanone, (5-bromo-2-thienyl)phenyl-", "Ketone, 5-bromo-2-thienyl phenyl", "(5-Bromo-2-thienyl)phenylmethanone", "2-Benzoyl-5-bromothiophene", "5-Benzoyl-2-bromothiophene", "NSC 170817", "2-Bromo-5-benzoylthiophene", "(5-Bromothiophen-2-yl)-phenylmethanone"], "SMILES": "C(=O)(C=1SC(Br)=CC1)C2=CC=CC=C2", "physical_data": {"Molecular Weight": "267.14", "Molecular Formula": "C11H7BrOS", "Melting Point": "45-46 \u00b0C"}}