{"cas_no": "3117-02-0", "cn_name": "2,3-\u4e8c\u7532\u6c27\u57fa-1,4-\u82ef\u918c", "en_name": ["2,3-Dimethoxy-2,5-cyclohexadiene-1,4-dione", "2,5-Cyclohexadiene-1,4-dione, 2,3-dimethoxy-", "p-Benzoquinone, 2,3-dimethoxy-", "Quinone, 2,3-dimethoxy-", "2,3-Dimethoxy-2,5-cyclohexadiene-1,4-dione", "2,3-Dimethoxybenzoquinone", "2,3-Dimethoxyquinone", "2,3-Dimethoxy-1,4-benzoquinone", "2,3-Dimethoxy-p-benzoquinone", "NSC 56335"], "SMILES": "O(C)C1=C(OC)C(=O)C=CC1=O", "physical_data": {"Molecular Weight": "168.15", "Molecular Formula": "C8H8O4", "Melting Point": "66-67 \u00b0C"}}