{"cas_no": "3117-03-1", "cn_name": "2,5-\u4e8c\u7532\u6c27\u57fa-1,4-\u82ef\u918c", "en_name": ["2,5-Dimethoxy-2,5-cyclohexadiene-1,4-dione", "2,5-Cyclohexadiene-1,4-dione, 2,5-dimethoxy-", "p-Benzoquinone, 2,5-dimethoxy-", "Quinone, 2,5-dimethoxy-", "2,5-Dimethoxy-2,5-cyclohexadiene-1,4-dione", "2,5-Dimethoxy-p-benzoquinone", "2,5-Dimethoxybenzoquinone", "2,5-Dimethoxy-1,4-benzoquinone", "NSC 509720"], "SMILES": "O(C)C=1C(=O)C=C(OC)C(=O)C1", "physical_data": {"Molecular Weight": "168.15", "Molecular Formula": "C8H8O4", "Melting Point": "&gt;200 \u00b0C (decomp)"}}