{"cas_no": "31186-12-6", "cn_name": "\u7ec6\u683c\u83cc\u7d20", "en_name": ["Altenusin", "[1,1\u2032-Biphenyl]-2-carboxylic acid, 3,4\u2032,5\u2032-trihydroxy-5-methoxy-2\u2032-methyl-", "[1,1\u2032-Biphenyl]-2-carboxylic acid, 2,4\u2032,5\u2032-trihydroxy-5-methoxy-2\u2032-methyl-", "3,4\u2032,5\u2032-Trihydroxy-5-methoxy-2\u2032-methyl[1,1\u2032-biphenyl]-2-carboxylic acid", "Altenusin", "Alutenusin"], "SMILES": "C(O)(=O)C1=C(C=C(OC)C=C1O)C2=C(C)C=C(O)C(O)=C2", "physical_data": {"Molecular Weight": "290.27", "Molecular Formula": "C15H14O6", "Melting Point": "202-203 \u00b0C"}}