{"cas_no": "3118-97-6", "cn_name": "\u82cf\u4e39\u7ea2 II", "en_name": ["Sudan Red", "2-Naphthalenol, 1-[2-(2,4-dimethylphenyl)diazenyl]-", "C.I. Solvent Orange 7", "Sudan Red", "2-Naphthalenol, 1-[(2,4-dimethylphenyl)azo]-", "1-[2-(2,4-Dimethylphenyl)diazenyl]-2-naphthalenol", "C.I. 12140", "Brasilazina Oil Scarlet 6G", "Ceres Orange RR", "Cerisol Scarlet G", "Fast Oil Orange II", "Fat Scarlet 2G", "Grasan Orange 3R", "Lacquer Orange VR", "Oil Orange R", "Oil Orange X", "Oil Orange 2R", "Oil Orange N Extra", "Oil Orange KB", "Oil Orange XO", "Oil Scarlet", "Oil Scarlet 6G", "Oil Scarlet 371", "Oil Scarlet BL", "Oil Scarlet YS", "AF Red No. 5", "Resin Scarlet 2R", "Somalia Orange A 2R", "Sudan II", "Sudan Orange RPA", "Somalia Orange 2R", "Sudan Orange RRA", "Ext D and C Red No. 14", "FD and C Red No. 32", "Red No. 5", "Oil Red XO", "Calco Oil Scarlet BL", "Japan Red 505", "Sudan orange", "Japan Red No.5", "Japan Red 5", "NSC 10457", "Red 505", "Sudan 2", "Solvent Orange 7", "Sudan Red II", "Brilliant Oil Scarlet B"], "SMILES": "N(=NC1=C(C)C=C(C)C=C1)C=2C3=C(C=CC2O)C=CC=C3", "physical_data": {"Molecular Weight": "276.33", "Molecular Formula": "C18H16N2O", "Melting Point": "166 \u00b0C"}}