{"cas_no": "3119-93-5", "cn_name": "3-\u4e59\u57fa-2-\u7532\u57fa\u82ef\u5e76\u567b\u5511\u7898\u5316\u7269", "en_name": ["3-Ethyl-2-methylbenzothiazolium iodide", "Benzothiazolium, 3-ethyl-2-methyl-, iodide (1:1)", "Benzothiazolium, 3-ethyl-2-methyl-, iodide", "3-Ethyl-2-methylbenzothiazolium iodide", "2-Methylbenzothiazole ethyl iodide", "2-Methyl-3-ethylbenzothiazolium iodide", "2-Methylbenzothiazole ethiodide", "N-Ethyl-2-methylbenzothiazolium iodide", "3-Ethyl-2-methyl-1,3-benzothiazol-3-ium iodide", "3-Ethyl-2-methylbenzothiozolium iodide", "3-Ethyl-2-methylbenzo[d]thiazol-3-ium iodide"], "SMILES": "C(C)[N+]=1C=2C(SC1C)=CC=CC2.[I-]", "physical_data": {"Molecular Weight": "", "Molecular Formula": "C10H12NS.I", "Melting Point": "193-194 \u00b0C"}}