{"cas_no": "3119-15-1", "cn_name": "3-\u6c28\u57fa-2,4,6-\u4e09\u7898\u82ef\u7532\u9178", "en_name": ["3-Amino-2,4,6-triiodobenzoic acid", "Benzoic acid, 3-amino-2,4,6-triiodo-", "3-Amino-2,4,6-triiodobenzoic acid", "2,4,6-Triiodo-3-aminobenzoic acid", "NSC 60105"], "SMILES": "C(O)(=O)C1=C(I)C(N)=C(I)C=C1I", "physical_data": {"Molecular Weight": "514.83", "Molecular Formula": "C7H4I3NO2", "Melting Point": "190-192 \u00b0C (decomp)"}}