{"cas_no": "3119-02-6", "cn_name": "\u5bf9\u6c30\u57fa\u82ef\u78fa\u9170\u80fa", "en_name": ["4-Cyanobenzenesulfonamide", "Benzenesulfonamide, 4-cyano-", "Benzenesulfonamide, p-cyano-", "4-Cyanobenzenesulfonamide", "p-Cyanobenzenesulfonamide", "4-(Aminosulfonyl)benzonitrile", "NSC 77086", "4-Cyanophenylsulfonamide", "4-Sulfamoylbenzonitrile"], "SMILES": "S(N)(=O)(=O)C1=CC=C(C#N)C=C1", "physical_data": {"Molecular Weight": "182.20", "Molecular Formula": "C7H6N2O2S", "Melting Point": "165-166 \u00b0C"}}