{"cas_no": "312-85-6", "cn_name": "\u4e73\u9178\u94a0", "en_name": ["Sodium lactate", "Propanoic acid, 2-hydroxy-, sodium salt (1:1)", "Sodium lactate", "Lactic acid, monosodium salt", "Propanoic acid, 2-hydroxy-, monosodium salt", "Lacolin", "Lactic acid sodium salt", "Per-glycerin", "Monosodium lactate", "Sodium \u03b1-hydroxypropionate", "Sodium DL-lactate", "Purasal S/SP 60", "NSC 31718", "E 325", "Wilclear", "Purasal S", "Purasal-Purac Spray 80", "Purasal Powder S 98JS", "Purasal S/HQ 60", "Sodium 2-hydroxypropanoate", "S 98JS", "Sodium 2-hydroxypropionate", "60E (salt)", "60E", "MeSH ID: D019354"], "SMILES": "C(C(O)=O)(C)O.[Na]", "physical_data": {"Molecular Weight": "", "Molecular Formula": "C3H6O3.Na", "Melting Point": "&lt;25 \u00b0C"}}