{"cas_no": "312-94-7", "cn_name": "2-\u4e09\u6c1f\u7532\u57fa\u82ef\u7532\u9170\u6c2f", "en_name": ["2-(Trifluoromethyl)benzoyl chloride", "Benzoyl chloride, 2-(trifluoromethyl)-", "o-Toluoyl chloride, \u03b1,\u03b1,\u03b1-trifluoro-", "2-(Trifluoromethyl)benzoyl chloride", "\u03b1,\u03b1,\u03b1-Trifluoro-o-toluoyl chloride", "o-(Trifluoromethyl)benzoyl chloride", "NSC 88290", "2-(Trifluoromethyl)benzene-1-carbonyl chloride"], "SMILES": "C(F)(F)(F)C1=C(C(Cl)=O)C=CC=C1", "physical_data": {"Molecular Weight": "208.57", "Molecular Formula": "C8H4ClF3O", "Boiling Point": "190 \u00b0C", "Density": "1.4158 g/cm\u00b3 @ Temp: 20 \u00b0C"}}