{"cas_no": "312-30-1", "cn_name": "4,4\u02ca-\u4e8c\u6c1f-3,3\u02ca-\u4e8c\u785d\u57fa\u4e8c\u82ef\u781c", "en_name": ["1,1\u2032-Sulfonylbis[4-fluoro-3-nitrobenzene]", "Benzene, 1,1\u2032-sulfonylbis[4-fluoro-3-nitro-", "Sulfone, bis(4-fluoro-3-nitrophenyl)", "1,1\u2032-Sulfonylbis[4-fluoro-3-nitrobenzene]", "p,p\u2032-Difluoro-m,m\u2032-dinitrodiphenyl sulfone", "DNDS", "4,4\u2032-Difluoro-3,3\u2032-dinitrodiphenyl sulfone", "Bis(4-fluoro-3-nitrophenyl) sulfone", "3,3\u2032-Dinitro-4,4\u2032-difluorodiphenyl sulfone", "4-Fluoro-3-nitrophenyl sulfone", "Bis(p-fluoro-m-nitrophenyl) sulfone", "NSC 14153", "Bis(4-fluoro-3-nitrobenzene)sulfone", "1-Fluoro-4-(4-fluoro-3-nitrobenzenesulfonyl)-2-nitrobenzene", "1-Fluoro-4-(4-fluoro-3-nitrophenyl)sulfonyl-2-nitrobenzene"], "SMILES": "S(=O)(=O)(C1=CC(N(=O)=O)=C(F)C=C1)C2=CC(N(=O)=O)=C(F)C=C2", "physical_data": {"Molecular Weight": "344.25", "Molecular Formula": "C12H6F2N2O6S", "Melting Point": "193-194 \u00b0C"}}