{"cas_no": "312-40-3", "cn_name": "\u4e8c\u82ef\u57fa\u4e8c\u6c1f\u7845\u70f7", "en_name": ["1,1\u2032-(Difluorosilylene)bis[benzene]", "Benzene, 1,1\u2032-(difluorosilylene)bis-", "Silane, difluorodiphenyl-", "1,1\u2032-(Difluorosilylene)bis[benzene]", "Diphenyldifluorosilane", "Difluorodiphenylsilane", "Diphenylsilane difluoride", "NSC 136542"], "SMILES": "[Si](F)(F)(C1=CC=CC=C1)C2=CC=CC=C2", "physical_data": {"Molecular Weight": "220.29", "Molecular Formula": "C12H10F2Si", "Boiling Point": "156 \u00b0C @ Press: 50 Torr", "Melting Point": "135 \u00b0C", "Density": "1.145 g/cm\u00b3 @ Temp: 17 \u00b0C"}}