{"cas_no": "312-73-2", "cn_name": "2-(\u4e09\u6c1f\u7532\u57fa)\u82ef\u5e76\u54aa\u5511", "en_name": ["2-(Trifluoromethyl)-1H-benzimidazole", "1H-Benzimidazole, 2-(trifluoromethyl)-", "Benzimidazole, 2-(trifluoromethyl)-", "2-(Trifluoromethyl)-1H-benzimidazole", "2-(Trifluoromethyl)benzimidazole", "NSC 512765", "NSC 97013", "2-(Trifluoromethyl)-1H-1,3-benzodiazole", "2-(Trifluoromethyl)-1H-benzo[d]imidazole", "2-Trifluoromethyl-1H-benzoimidazole"], "SMILES": "C(F)(F)(F)C=1NC=2C(N1)=CC=CC2", "physical_data": {"Molecular Weight": "186.13", "Molecular Formula": "C8H5F3N2", "Melting Point": "209.5 \u00b0C"}}