{"cas_no": "312-68-5", "cn_name": "3-\u6c1f\u4e19\u9187\u5bf9\u7532\u82ef\u78fa\u9178\u916f", "en_name": ["1-Propanol, 3-fluoro-, 1-(4-methylbenzenesulfonate)", "1-Propanol, 3-fluoro-, 1-(4-methylbenzenesulfonate)", "1-Propanol, 3-fluoro-, p-toluenesulfonate", "1-Propanol, 3-fluoro-, 4-methylbenzenesulfonate", "Toluene-4-sulfonic acid 3-fluoropropyl ester", "1-Fluoro-3-tosyloxypropane", "3-Fluoropropyl 4-toluenesulfonate", "4-Methylbenzenesulfonic acid 3-fluoropropyl ester", "3-Fluoropropyl 4-methylbenzenesulfonate", "3-Fluoropropyl tosylate", "3-Fluoropropyl p-toluenesulfonate", "3-Fluoropropyl 4-methylbenzene-1-sulfonate"], "SMILES": "S(OCCCF)(=O)(=O)C1=CC=C(C)C=C1", "physical_data": {"Molecular Weight": "232.27", "Molecular Formula": "C10H13FO3S", "Boiling Point": "160 \u00b0C @ Press: 2 Torr"}}