{"cas_no": "312-84-5", "cn_name": "D-\u4e1d\u6c28\u9178", "en_name": ["D-Serine", "D-Serine", "Serine, D-", "(R)-Serine", "NSC 77689", "(R)-2-Amino-3-hydroxypropanoic acid", "(2R)-2-Amino-3-hydroxypropanoic acid"], "SMILES": "C(C(O)=O)(CO)N", "physical_data": {"Molecular Weight": "105.09", "Molecular Formula": "C3H7NO3", "Melting Point": "229 \u00b0C (decomp)"}}