{"cas_no": "312-21-0", "cn_name": "4-(\u4e09\u6c1f\u7532\u57fa\u78fa\u9170(\u57fa))\u82ef\u7532\u8148", "en_name": ["4-[(Trifluoromethyl)sulfonyl]benzonitrile", "Benzonitrile, 4-[(trifluoromethyl)sulfonyl]-", "4-[(Trifluoromethyl)sulfonyl]benzonitrile", "4-(Trifluoromethylsulfonyl)benzonitrile", "4-Cyanophenyl trifluoromethyl sulfone"], "SMILES": "S(C(F)(F)F)(=O)(=O)C1=CC=C(C#N)C=C1", "physical_data": {"Molecular Weight": "235.18", "Molecular Formula": "C8H4F3NO2S", "Melting Point": "89-90 \u00b0C"}}