{"cas_no": "3120-74-9", "cn_name": "3-\u7532\u57fa-4-\u7532\u786b\u57fa\u82ef\u915a", "en_name": ["3-Methyl-4-(methylthio)phenol", "Phenol, 3-methyl-4-(methylthio)-", "m-Cresol, 4-(methylthio)-", "3-Methyl-4-(methylthio)phenol", "MMTP", "4-(Methylthio)-m-cresol", "4-(Methylthio)-3-methylphenol", "4-Hydroxy-2-methylthioanisole", "NSC 87560", "4-Methylsulfanyl-3-methylphenol", "3-Methyl-4-methylsulfanylphenol"], "SMILES": "S(C)C1=C(C)C=C(O)C=C1", "physical_data": {"Molecular Weight": "154.23", "Molecular Formula": "C8H10OS", "Boiling Point": "148-151 \u00b0C @ Press: 15 Torr", "Melting Point": "57 \u00b0C"}}