{"cas_no": "31218-83-4", "cn_name": "\u5f02\u4e19\u6c27\u78f7", "en_name": ["Propetamphos", "2-Butenoic acid, 3-[[(ethylamino)methoxyphosphinothioyl]oxy]-, 1-methylethyl ester, (2E)-", "Crotonic acid, 3-hydroxy-, isopropyl ester, O-ester with O-methyl ethylphosphoramidothioate, (E)-", "2-Butenoic acid, 3-[[(ethylamino)methoxyphosphinothioyl]oxy]-, 1-methylethyl ester, (E)-", "Blotic", "SAN 322I", "Propetamphos", "VEL 4283", "SAN 322", "Safrotin S 200", "Ectomort Jetting Fluid and Sheep Dip", "Deadmag", "Ectomort Jetting Fluid", "Magget", "Mules-n-Mark II", "E-Propetamphos", "Ectomort Centenary", "Young's Summer Dip", "Safrotin MC", "Safrotin", "Safrotin Brush-on Bait"], "SMILES": "P(OC(=CC(OC(C)C)=O)C)(NCC)(OC)=S", "physical_data": {"Molecular Weight": "281.31", "Molecular Formula": "C10H20NO4PS", "Boiling Point": "87-89 \u00b0C @ Press: 5 x 10<sup>-3</sup> Torr", "Melting Point": "&lt;25 \u00b0C", "Density": "1.1294 g/cm\u00b3 @ Temp: 20 \u00b0C"}}