{"cas_no": "3121-70-8", "cn_name": "1-\u4e01\u9178\u8418\u916f", "en_name": ["\u03b1-Naphthyl butyrate", "Butanoic acid, 1-naphthalenyl ester", "Butyric acid, 1-naphthyl ester", "1-Naphthol, butyrate", "\u03b1-Naphthyl n-butyrate", "\u03b1-Naphthyl butyrate", "1-Naphthyl butyrate", "Butanoic acid 1-naphthyl ester", "NSC 97269"], "SMILES": "O(C(CCC)=O)C=1C2=C(C=CC1)C=CC=C2", "physical_data": {"Molecular Weight": "214.26", "Molecular Formula": "C14H14O2", "Boiling Point": "182 \u00b0C @ Press: 15-18 Torr", "Melting Point": "95.5-96.5 \u00b0C"}}