{"cas_no": "3121-61-7", "cn_name": "2-\u4e19\u70ef\u9178-2-\u7532\u6c27\u57fa\u4e59\u916f", "en_name": ["Methoxyethyl acrylate", "2-Propenoic acid, 2-methoxyethyl ester", "Acrylic acid, 2-methoxyethyl ester", "Methoxyethyl acrylate", "2-Methoxyethyl acrylate", "Viscoat 2MTA", "SR 244", "Ethylene glycol monomethyl ether acrylate", "NSC 24153", "2MTA", "DC 1 (acrylate)", "DC 1", "Acrylix C 1", "Ethylene glycol methyl ether acrylate", "2-Methoxyethylene glycol acrylate", "2-Methoxyethyl prop-2-enoate", "Methylmonoglycol acrylate"], "SMILES": "C(OCCOC)(C=C)=O", "physical_data": {"Molecular Weight": "130.14", "Molecular Formula": "C6H10O3", "Boiling Point": "56 \u00b0C @ Press: 12 Torr", "Density": "1.0131 g/cm\u00b3 @ Temp: 20 \u00b0C"}}