{"cas_no": "3122-87-0", "cn_name": "SIDEROXYLIN", "en_name": ["Sideroxylin", "4H-1-Benzopyran-4-one, 5-hydroxy-2-(4-hydroxyphenyl)-7-methoxy-6,8-dimethyl-", "Flavone, 4\u2032,5-dihydroxy-7-methoxy-6,8-dimethyl-", "5-Hydroxy-2-(4-hydroxyphenyl)-7-methoxy-6,8-dimethyl-4H-1-benzopyran-4-one", "Sideroxylin", "4\u2032,5-Dihydroxy-7-methoxy-6,8-dimethylflavone", "Sideroxyline"], "SMILES": "CC1=C2C(=C(O)C(C)=C1OC)C(=O)C=C(O2)C3=CC=C(O)C=C3", "physical_data": {"Molecular Weight": "312.32", "Molecular Formula": "C18H16O5", "Melting Point": "284-286 \u00b0C"}}