{"cas_no": "3122-88-1", "cn_name": "\u6849\u6811\u7d20", "en_name": ["Eucalyptin", "4H-1-Benzopyran-4-one, 5-hydroxy-7-methoxy-2-(4-methoxyphenyl)-6,8-dimethyl-", "Flavone, 5-hydroxy-4\u2032,7-dimethoxy-6,8-dimethyl-", "5-Hydroxy-7-methoxy-2-(4-methoxyphenyl)-6,8-dimethyl-4H-1-benzopyran-4-one", "Eucalyptin", "4\u2032,7-Dimethoxy-6,8-dimethyl-5-hydroxyflavone"], "SMILES": "CC1=C2C(=C(O)C(C)=C1OC)C(=O)C=C(O2)C3=CC=C(OC)C=C3", "physical_data": {"Molecular Weight": "326.34", "Molecular Formula": "C19H18O5", "Melting Point": "184-185 \u00b0C"}}