{"cas_no": "31230-17-8", "cn_name": "3-\u6c28\u57fa-5-\u7532\u57fa\u5421\u5511", "en_name": ["3-Amino-5-methylpyrazole", "1H-Pyrazol-3-amine, 5-methyl-", "Pyrazole, 3-amino-5-methyl-", "Pyrazole, 3(or 5)-amino-5(or 3)-methyl-", "5-Methyl-1H-pyrazol-3-amine", "3-Amino-5-methylpyrazole", "3-Methyl-5-aminopyrazole", "5-Amino-3-methylpyrazole", "3-Methyl-5-pyrazolamine", "5-Amino-3-methyl-1H-pyrazole", "3-Amino-5-methyl-1H-pyrazole", "5-Methylpyrazol-3-ylamine", "5-Methyl-1H-pyrazol-3-ylamine", "5-Methyl-3-aminopyrazole", "5-Methyl-2H-pyrazol-3-ylamine", "5-Methylpyrazol-3-amine", "5-Methyl-3-amino-1H-pyrazole"], "SMILES": "CC1=CC(N)=NN1", "physical_data": {"Molecular Weight": "97.12", "Molecular Formula": "C4H7N3", "Boiling Point": "213 \u00b0C @ Press: 14 Torr", "Melting Point": "94 \u00b0C"}}