{"cas_no": "312303-48-3", "cn_name": "2-\u7532\u57fa\u8418-1-\u787c\u9178\u9891\u54ea\u9187\u916f", "en_name": ["4,4,5,5-Tetramethyl-2-(2-methyl-1-naphthalenyl)-1,3,2-dioxaborolane", "1,3,2-Dioxaborolane, 4,4,5,5-tetramethyl-2-(2-methyl-1-naphthalenyl)-", "4,4,5,5-Tetramethyl-2-(2-methyl-1-naphthalenyl)-1,3,2-dioxaborolane", "4,4,5,5-Tetramethyl-2-(2-methylnaphthalen-1-yl)-[1,3,2]dioxaborolane", "4,4,5,5-Tetramethyl-2-(2-methyl-1-naphthyl)-1,3,2-dioxaborolane"], "SMILES": "CC1=C(B2OC(C)(C)C(C)(C)O2)C3=C(C=C1)C=CC=C3", "physical_data": {"Molecular Weight": "268.16", "Molecular Formula": "C17H21BO2", "Melting Point": "63.8-63.9 \u00b0C"}}