{"cas_no": "312325-72-7", "cn_name": "2-(5-\u6eb4-2-\u5421\u5576)\u4e59\u6c30", "en_name": ["5-Bromo-2-pyridineacetonitrile", "2-Pyridineacetonitrile, 5-bromo-", "5-Bromo-2-pyridineacetonitrile", "(5-Bromopyridin-2-yl)acetonitrile", "5-Bromopyridine-2-acetonitrile", "2-(5-Bromopyridin-2-yl)acetonitrile", "2-(5-Bromo-2-pyridyl)acetonitrile"], "SMILES": "C(C#N)C1=CC=C(Br)C=N1", "physical_data": {"Molecular Weight": "197.03", "Molecular Formula": "C7H5BrN2", "Melting Point": "29 \u00b0C"}}