{"cas_no": "3123-73-7", "cn_name": "1-\u68d5\u6988\u9178-2-\u6cb9\u9178-3-\u4e9a\u6cb9\u9178\u7518\u6cb9\u916f", "en_name": ["1-Palmitoyl-2-oleoylglycerol", "9-Octadecenoic acid (9Z)-, 1-(hydroxymethyl)-2-[(1-oxohexadecyl)oxy]ethyl ester", "Olein, 1-palmito-2-", "9-Octadecenoic acid (Z)-, 1-(hydroxymethyl)-2-[(1-oxohexadecyl)oxy]ethyl ester", "Palmitin, 2-oleo-1-", "1-Palmitoyl-2-oleoylglycerol", "2-Oleoyl-1-palmitoyl glycerol", "1-Palmitoyl-2-oleoyl-DL-glycerol", "1-Palmitoyl-2-oleoyl-rac-glycerol"], "SMILES": "C(OC(CCCCCCCC=CCCCCCCCC)=O)(COC(CCCCCCCCCCCCCCC)=O)CO", "physical_data": {"Molecular Weight": "594.95", "Molecular Formula": "C37H70O5", "Melting Point": "31-32 \u00b0C"}}