{"cas_no": "3124-01-4", "cn_name": "\u516d\u82ef\u57fa\u4e8c\u94c5", "en_name": ["1,1,1,2,2,2-Hexaphenyldiplumbane", "Diplumbane, 1,1,1,2,2,2-hexaphenyl-", "Diplumbane, hexaphenyl-", "Lead, hexaphenyldi-", "1,1,1,2,2,2-Hexaphenyldiplumbane", "Dilead, hexaphenyl-", "Hexaphenyldilead", "Hexaphenyldiplumbane", "NSC 68064"], "SMILES": "[Pb]([Pb](C1=CC=CC=C1)(C2=CC=CC=C2)C3=CC=CC=C3)(C4=CC=CC=C4)(C5=CC=CC=C5)C6=CC=CC=C6", "physical_data": {"Molecular Weight": "877.02", "Molecular Formula": "C36H30Pb2", "Melting Point": "155 \u00b0C (decomp)"}}