{"cas_no": "31249-95-3", "cn_name": "1,7-\u5076\u6c2e-15-\u51a0-5", "en_name": ["1,4,10-Trioxa-7,13-diazacyclopentadecane", "1,4,10-Trioxa-7,13-diazacyclopentadecane", "Kryptofix 21", "4,7,13-Trioxa-1,10-diazacyclopentadecane", "1,7-Diaza-4,10,13-trioxacyclopentadecane", "1,7-Diaza-15-crown-5", "Diaza crown ether 21", "Cryptand 21", "4,10-Diaza-15-crown-5", "7,13-Diaza-15-crown-5", "NSC 339327"], "SMILES": "C1COCCNCCOCCOCCN1", "physical_data": {"Molecular Weight": "218.29", "Molecular Formula": "C10H22N2O3", "Boiling Point": "80-85 \u00b0C @ Press: 0.015 Torr", "Melting Point": "89-91 \u00b0C"}}