{"cas_no": "31252-85-4", "cn_name": "4-\u785d\u57fa\u82ef\u916f\u7898\u4e59\u9178", "en_name": ["p-Nitrophenyl iodoacetate", "Acetic acid, 2-iodo-, 4-nitrophenyl ester", "Acetic acid, iodo-, 4-nitrophenyl ester", "Acetic acid, iodo-, p-nitrophenyl ester", "p-Nitrophenyl iodoacetate", "NPIA", "4-Nitrophenyl 2-iodoacetate"], "SMILES": "O(C(CI)=O)C1=CC=C(N(=O)=O)C=C1", "physical_data": {"Molecular Weight": "307.04", "Molecular Formula": "C8H6INO4", "Melting Point": "79-81 \u00b0C"}}