{"cas_no": "31252-42-3", "cn_name": "4-\u82c4\u57fa\u54cc\u5576", "en_name": ["4-Benzylpiperidine", "Piperidine, 4-(phenylmethyl)-", "Piperidine, 4-benzyl-", "4-(Phenylmethyl)piperidine", "4-Benzylpiperidine", "NSC 30346"], "SMILES": "C(C1=CC=CC=C1)C2CCNCC2", "physical_data": {"Molecular Weight": "175.27", "Molecular Formula": "C12H17N", "Boiling Point": "270 \u00b0C", "Melting Point": "16.8 \u00b0C", "Density": "0.997 g/cm\u00b3"}}