{"cas_no": "31250-08-5", "cn_name": "\u6c2f\u4ee3\u4e59\u6c27\u57fa\u4e59\u8148", "en_name": ["2-(2-Chloroethoxy)acetonitrile", "Acetonitrile, 2-(2-chloroethoxy)-", "Acetonitrile, (2-chloroethoxy)-", "2-(2-Chloroethoxy)acetonitrile", "1-Chloro-2-(cyanomethoxy)ethane", "2-Chloroethoxyacetonitrile"], "SMILES": "O(CCCl)CC#N", "physical_data": {"Molecular Weight": "119.55", "Molecular Formula": "C4H6ClNO", "Boiling Point": "109-110 \u00b0C @ Press: 27.5 Torr", "Density": "1.1846 g/cm\u00b3 @ Temp: 20 \u00b0C"}}