{"cas_no": "31251-41-9", "cn_name": "8-\u6c2f-5,6-\u4e8c\u6c22-11H-\u82ef\u5e76[5,6]\u73af\u5e9a\u70f7\u5e76[1,2-b]\u5421\u5576-11-\u916e", "en_name": ["8-Chloro-5,6-dihydro-11H-benzo[5,6]cyclohepta[1,2-b]pyridin-11-one", "11H-Benzo[5,6]cyclohepta[1,2-b]pyridin-11-one, 8-chloro-5,6-dihydro-", "8-Chloro-5,6-dihydro-11H-benzo[5,6]cyclohepta[1,2-b]pyridin-11-one"], "SMILES": "O=C1C=2C(=CC(Cl)=CC2)CCC=3C1=NC=CC3", "physical_data": {"Molecular Weight": "243.69", "Molecular Formula": "C14H10ClNO", "Melting Point": "93.0 \u00b0C"}}