{"cas_no": "3125-64-2", "cn_name": "3-\u7532\u6c27\u57fa\u5f02\u786b\u6c30\u9178\u82ef\u916f", "en_name": ["1-Isothiocyanato-3-methoxybenzene", "Benzene, 1-isothiocyanato-3-methoxy-", "Isothiocyanic acid, m-methoxyphenyl ester", "1-Isothiocyanato-3-methoxybenzene", "m-Methoxyphenyl isothiocyanate", "3-Methoxyphenyl isothiocyanate", "m-Anisyl isothiocyanate", "3-Anisyl isothiocyanate"], "SMILES": "N(=C=S)C1=CC(OC)=CC=C1", "physical_data": {"Molecular Weight": "165.21", "Molecular Formula": "C8H7NOS", "Boiling Point": "105-106 \u00b0C @ Press: 0.45 Torr", "Density": "1.145 g/cm\u00b3 @ Temp: 30 \u00b0C"}}