{"cas_no": "31255-57-9", "cn_name": "3-[2-(3-\u6c2f\u82ef\u57fa)\u4e59\u57fa]-2-\u5421\u5576\u7532\u8148", "en_name": ["3-[2-(3-Chlorophenyl)ethyl]-2-pyridinecarbonitrile", "2-Pyridinecarbonitrile, 3-[2-(3-chlorophenyl)ethyl]-", "Picolinonitrile, 3-(m-chlorophenethyl)-", "3-[2-(3-Chlorophenyl)ethyl]-2-pyridinecarbonitrile", "3-[2-(3-Chlorophenyl)ethyl]-2-cyanopyridine"], "SMILES": "C(CC1=CC(Cl)=CC=C1)C2=C(C#N)N=CC=C2", "physical_data": {"Molecular Weight": "242.70", "Molecular Formula": "C14H11ClN2", "Melting Point": "72.8 \u00b0C"}}