{"cas_no": "31274-51-8", "cn_name": "2,4,6-\u4e09[(1,1-\u8054\u82ef)-4-\u57fa]-1,3-5-\u4e09\u55ea", "en_name": ["2,4,6-Tribiphenyl-4-yl-1,3,5-triazine", "1,3,5-Triazine, 2,4,6-tris([1,1\u2032-biphenyl]-4-yl)-", "s-Triazine, 2,4,6-tri-4-biphenylyl-", "2,4,6-Tris([1,1\u2032-biphenyl]-4-yl)-1,3,5-triazine", "2,4,6-Tris(p-biphenylyl)-s-triazine", "Tinosorb A 2B", "2,4,6-Tribiphenyl-4-yl-1,3,5-triazine", "2,4,6-Tris(4-phenylphenyl)-1,3,5-triazine", "2,4,6-Tri(1,1\u2032-biphenyl-4-yl)-1,3,5-triazine"], "SMILES": "C=1(N=C(N=C(N1)C2=CC=C(C=C2)C3=CC=CC=C3)C4=CC=C(C=C4)C5=CC=CC=C5)C6=CC=C(C=C6)C7=CC=CC=C7", "physical_data": {"Molecular Weight": "537.65", "Molecular Formula": "C39H27N3", "Melting Point": "283 \u00b0C"}}