{"cas_no": "31271-07-5", "cn_name": "\u03b3-\u5012\u637b\u5b50\u7d20", "en_name": ["\u03b3-Mangostin", "9H-Xanthen-9-one, 1,3,6,7-tetrahydroxy-2,8-bis(3-methyl-2-buten-1-yl)-", "9H-Xanthen-9-one, 1,3,6,7-tetrahydroxy-2,8-bis(3-methyl-2-butenyl)-", "Xanthen-9-one, 1,3,6,7-tetrahydroxy-2,8-bis(3-methyl-2-butenyl)-", "Mangostin, demethyl-", "1,3,6,7-Tetrahydroxy-2,8-bis(3-methyl-2-buten-1-yl)-9H-xanthen-9-one", "\u03b3-Mangostin", "Normangostin", "1,3,6,7-Tetrahydroxy-2,8-bis(3,3-dimethylallyl)xanthone", "7-O-Demethyl-\u03b1-mangostin", "1,3,6,7-Tetrahydroxy-2,8-bis(3-methylbut-2-enyl)xanthen-9-one"], "SMILES": "C(C=C(C)C)C1=C2C(OC=3C(C2=O)=C(O)C(CC=C(C)C)=C(O)C3)=CC(O)=C1O", "physical_data": {"Molecular Weight": "396.43", "Molecular Formula": "C23H24O6", "Melting Point": "206-208 \u00b0C"}}