{"cas_no": "312746-72-8", "cn_name": "1H-\u5432\u5511-7-\u7532\u919b", "en_name": ["1H-Indazole-7-carboxaldehyde", "1H-Indazole-7-carboxaldehyde", "1H-Indazole-7-carbaldehyde", "2H-Indazole-7-carbaldehyde"], "SMILES": "C(=O)C1=C2C(C=NN2)=CC=C1", "physical_data": {"Molecular Weight": "146.15", "Molecular Formula": "C8H6N2O", "Melting Point": "120-122 \u00b0C"}}