{"cas_no": "3128-07-2", "cn_name": "5-\u4e59\u9170\u620a\u9178", "en_name": ["6-Oxoheptanoic acid", "Heptanoic acid, 6-oxo-", "6-Oxoheptanoic acid", "6-Ketoheptanoic acid", "\u03b5-Oxoenanthic acid", "Acetovaleric acid", "6-Oxoenanthic acid", "5-Acetylvaleric acid", "\u03b5-Ketoheptanoic acid", "NSC 167591"], "SMILES": "C(CCC(O)=O)CC(C)=O", "physical_data": {"Molecular Weight": "144.17", "Molecular Formula": "C7H12O3", "Boiling Point": "166-167 \u00b0C @ Press: 9 Torr", "Melting Point": "33 \u00b0C"}}