{"cas_no": "3128-06-1", "cn_name": "5-\u6c27\u4ee3\u5df1\u9178", "en_name": ["5-Oxohexanoic acid", "Hexanoic acid, 5-oxo-", "Caproic acid, \u03b4-oxo-", "5-Oxohexanoic acid", "5-Ketohexanoic acid", "\u03b4-Ketocaproic acid", "\u03b3-Acetylbutyric acid", "\u03b4-Oxocaproic acid", "4-Acetylbutyric acid", "5-Ketocaproic acid", "5-Oxocaproic acid", "\u03b4-Ketohexanoic acid", "NSC 5281"], "SMILES": "C(CC(C)=O)CC(O)=O", "physical_data": {"Molecular Weight": "130.14", "Molecular Formula": "C6H10O3", "Boiling Point": "274.5 \u00b0C", "Melting Point": "13.5 \u00b0C", "Density": "1.1100 g/cm\u00b3 @ Temp: 20 \u00b0C"}}