{"cas_no": "3129-91-7", "cn_name": "\u4e9a\u785d\u9178\u4e8c\u73af\u5df1\u80fa", "en_name": ["Cyclohexanamine, N-cyclohexyl-, nitrite (1:1)", "Cyclohexanamine, N-cyclohexyl-, nitrite (1:1)", "Dicyclohexylamine, nitrite", "Cyclohexanamine, N-cyclohexyl-, nitrite", "Dicyclohexylammonium nitrite", "NDA", "Dichan", "Leukorrosin C", "Diana (corrosion inhibitor)", "Nitrous acid compd. with N-cyclohexylcyclohexanamine (1:1)", "NDA (corrosion inhibitor)", "TVI", "VPI 260", "Diana", "VP 1260", "Dicyclohexylamine nitrous acid salt", "NSC 49612", "Nitrous acid compd. with dicyclohexylamine"], "SMILES": "N(C1CCCCC1)C2CCCCC2.N(=O)O", "physical_data": {"Molecular Weight": "", "Molecular Formula": "C12H23N.HNO2", "Melting Point": "176-178 \u00b0C (decomp)"}}