{"cas_no": "313-04-2", "cn_name": "3\u0392-\u7f9f\u57fa-5,24-\u80c6\u753e\u4e8c\u70ef", "en_name": ["Desmosterol", "Cholesta-5,24-dien-3-ol, (3\u03b2)-", "Cholesta-5,24-dien-3\u03b2-ol", "(3\u03b2)-Cholesta-5,24-dien-3-ol", "24-Dehydrocholesterol", "Desmosterol", "24,25-Dehydrocholesterol", "NSC 226126", "OR 942 (Sterol)", "MeSH ID: D003897"], "SMILES": "CC12C(C3C(C4(C)C(=CC3)CC(O)CC4)CC1)CCC2C(CCC=C(C)C)C", "physical_data": {"Molecular Weight": "384.64", "Molecular Formula": "C27H44O", "Melting Point": "121.5 \u00b0C"}}