{"cas_no": "313-67-7", "cn_name": "\u9a6c\u515c\u94c3\u9178", "en_name": ["Aristolochic acid", "Phenanthro[3,4-d]-1,3-dioxole-5-carboxylic acid, 8-methoxy-6-nitro-", "8-Methoxy-6-nitrophenanthro[3,4-d]-1,3-dioxole-5-carboxylic acid", "Aristolochic acid I", "Tardolyt", "TR 1736", "Aristolochic acid", "Aristolochic acid A", "Aristolochic acid 1", "NSC 11926", "NSC 50413", "Aristolochia A", "8-Methoxy-3,4-methylenedioxy-10-nitrophenanthrene-1-carboxylic acid"], "SMILES": "N(=O)(=O)C=1C=2C(C=3C(C1)=C(OC)C=CC3)=C4C(=CC2C(O)=O)OCO4", "physical_data": {"Molecular Weight": "341.27", "Molecular Formula": "C17H11NO7", "Melting Point": "278 \u00b0C (decomp)"}}