{"cas_no": "313-13-3", "cn_name": "2,6-\u53cc\u4e09\u6c1f\u7532\u57fa\u82ef\u80fa", "en_name": ["2,6-Bis(trifluoromethyl)benzenamine", "Benzenamine, 2,6-bis(trifluoromethyl)-", "2,6-Xylidine, \u03b1,\u03b1,\u03b1,\u03b1\u2032,\u03b1\u2032,\u03b1\u2032-hexafluoro-", "2,6-Bis(trifluoromethyl)benzenamine", "2,6-Bis(trifluoromethyl)aniline"], "SMILES": "C(F)(F)(F)C1=C(N)C(C(F)(F)F)=CC=C1", "physical_data": {"Molecular Weight": "229.12", "Molecular Formula": "C8H5F6N", "Boiling Point": "37 \u00b0C @ Press: 0.2 Torr", "Density": "1.4645 g/cm\u00b3 @ Temp: 28 \u00b0C"}}