{"cas_no": "313-72-4", "cn_name": "\u516b\u6c1f\u8418", "en_name": ["Octafluoronaphthalene", "Naphthalene, 1,2,3,4,5,6,7,8-octafluoro-", "Naphthalene, octafluoro-", "1,2,3,4,5,6,7,8-Octafluoronaphthalene", "Perfluoronaphthalene", "Octafluoronaphthalene", "DTXSID 60185221"], "SMILES": "FC=1C2=C(C(F)=C(F)C(F)=C2F)C(F)=C(F)C1F", "physical_data": {"Molecular Weight": "272.09", "Molecular Formula": "C10F8", "Boiling Point": "209 \u00b0C", "Melting Point": "87.5 \u00b0C", "Density": "2.07 g/cm\u00b3"}}