{"cas_no": "313-06-4", "cn_name": "\u73af\u620a\u4e19\u9178\u96cc\u4e8c\u9187", "en_name": ["Estradiol cypionate", "Estra-1,3,5(10)-triene-3,17-diol (17\u03b2)-, 17-cyclopentanepropanoate", "Estradiol, 17-cyclopentanepropionate", "Cyclopentanepropionic acid, 3-hydroxyestra-1,3,5(10)-trien-17\u03b2-yl ester", "Cyclopentanepropionic acid, 17-ester with estradiol", "Depoestradiol", "Depo-estradiol cyclopentylpropionate", "Depofemin", "Estradiol 17\u03b2-cyclopentanepropionate", "Estradiol 17\u03b2-cyclopentylpropionate", "Estradiol cyclopentylpropionate", "17\u03b2-Estradiol 17-cyclopentylpropionate", "Estradiol 17\u03b2-cypionate", "Depoestradiol cypionate", "Estradiol 17-cypionate", "ECP", "Estradep", "Depo-Estradiol", "Estradiol 17-cyclopentylpropionate", "Estradiol cypionate", "Depgynogen", "NSC 3354", "Estradiolum valerianicum", "ECP Estradiol"], "SMILES": "CC12C(C3C(C=4C(CC3)=CC(O)=CC4)CC1)CCC2OC(CCC5CCCC5)=O", "physical_data": {"Molecular Weight": "396.56", "Molecular Formula": "C26H36O3", "Melting Point": "151-152 \u00b0C"}}