{"cas_no": "31301-51-6", "cn_name": "2-\u6c2f-5-\u6c1f\u5421\u5576", "en_name": ["2-Chloro-5-fluoropyridine", "Pyridine, 2-chloro-5-fluoro-", "2-Chloro-5-fluoropyridine", "6-Chloro-3-fluoropyridine", "5-Fluoro-2-chloropyridine"], "SMILES": "FC=1C=CC(Cl)=NC1", "physical_data": {"Molecular Weight": "131.54", "Molecular Formula": "C5H3ClFN", "Boiling Point": "74 \u00b0C @ Press: 50 mbar", "Melting Point": "23-24 \u00b0C"}}