{"cas_no": "31301-28-7", "cn_name": "4-\u7532\u57fa-1,10-\u83f2\u5570\u5549", "en_name": ["4-Methyl-1,10-phenanthroline", "1,10-Phenanthroline, 4-methyl-", "4-Methyl-1,10-phenanthroline"], "SMILES": "CC=1C=2C(=C3C(=CC2)C=CC=N3)N=CC1", "physical_data": {"Molecular Weight": "194.23", "Molecular Formula": "C13H10N2", "Melting Point": "144-145 \u00b0C"}}