{"cas_no": "3130-87-8", "cn_name": "DL-\u5929\u51ac\u9170\u80fa\u4e00\u6c34\u7269", "en_name": ["Asparagine", "Asparagine", "Asparagine, DL-", "(\u00b1)-Asparagine", "DL-Aspartamine", "DL-Asparagine", "NSC 206243", "NSC 7891", "2-Aminosuccinamic acid", "2-Amino-3-carbamoylpropanoic acid", "2,4-Diamino-4-oxobutanoic acid"], "SMILES": "C(CC(N)=O)(C(O)=O)N", "physical_data": {"Molecular Weight": "132.12", "Molecular Formula": "C4H8N2O3", "Melting Point": "280-285 \u00b0C (decomp)"}}