{"cas_no": "3130-75-4", "cn_name": "4-(1,3-\u4e8c\u6c27\u4ee3\u5f02\u5432\u54da\u5549-2-\u57fa)\u4e01\u9178", "en_name": ["4-Phthalimidobutyric acid", "2H-Isoindole-2-butanoic acid, 1,3-dihydro-1,3-dioxo-", "2-Isoindolinebutyric acid, 1,3-dioxo-", "1,3-Dihydro-1,3-dioxo-2H-isoindole-2-butanoic acid", "N-Phthalyl-\u03b3-aminobutyric acid", "4-Phthalimidobutyric acid", "4-Phthalimidobutanoic acid", "\u03b3-Phthalimidobutyric acid", "NSC 119133", "4-(1,3-Dioxo-1,3-dihydro-2H-isoindol-2-yl)butanoic acid", "4-(1,3-Dioxo-1,3-dihydroisoindol-2-yl)butyric Acid", "Phthaloyl \u03b3-aminobutyric acid", "4-Phthalimidoylbutyric acid", "4-(1,3-Dioxoisoindolin-2-yl)butanoic acid"], "SMILES": "O=C1C=2C(C(=O)N1CCCC(O)=O)=CC=CC2", "physical_data": {"Molecular Weight": "233.22", "Molecular Formula": "C12H11NO4", "Melting Point": "117-118 \u00b0C"}}