{"cas_no": "31301-31-2", "cn_name": "1,10-\u83f2\u54af\u5549-4,7-\u4e8c\u7532\u9178", "en_name": ["1,10-Phenanthroline-4,7-dicarboxylic acid", "1,10-Phenanthroline-4,7-dicarboxylic acid", "4,7-Dicarboxy-1,10-phenanthroline"], "SMILES": "C(O)(=O)C=1C=2C(=C3C(C(C(O)=O)=CC=N3)=CC2)N=CC1", "physical_data": {"Molecular Weight": "268.22", "Molecular Formula": "C14H8N2O4", "Melting Point": "&gt;300 \u00b0C"}}