{"cas_no": "3131-63-3", "cn_name": "2-\u4e59\u57fa\u82ef\u5e76\u544b\u5583", "en_name": ["2-Ethylbenzofuran", "Benzofuran, 2-ethyl-", "2-Ethylbenzofuran", "2-Ethylbenzo[b]furan", "2-Ethyl-1-benzofuran"], "SMILES": "C(C)C1=CC=2C(O1)=CC=CC2", "physical_data": {"Molecular Weight": "146.19", "Molecular Formula": "C10H10O", "Boiling Point": "217-218 \u00b0C @ Press: 742 Torr"}}