{"cas_no": "3131-23-5", "cn_name": "4-\u7f9f\u96cc\u753e\u916e", "en_name": ["4-Hydroxyestrone", "Estra-1,3,5(10)-trien-17-one, 3,4-dihydroxy-", "3,4-Dihydroxyestra-1,3,5(10)-trien-17-one", "4-Hydroxyestrone", "3,4-Dihydroxy-1,3,5(10)-estratrien-17-one"], "SMILES": "CC12C(C3C(C=4C(CC3)=C(O)C(O)=CC4)CC1)CCC2=O", "physical_data": {"Molecular Weight": "286.37", "Molecular Formula": "C18H22O3", "Melting Point": "260-265 \u00b0C"}}