{"cas_no": "3131-52-0", "cn_name": "\u4e8c\u7f9f\u5432\u54da", "en_name": ["5,6-Dihydroxyindole", "1H-Indole-5,6-diol", "Indole-5,6-diol", "Dopamine lutine", "5,6-Dihydroxyindole", "Indolylquinol"], "SMILES": "OC=1C=C2C(=CC1O)NC=C2", "physical_data": {"Molecular Weight": "149.15", "Molecular Formula": "C8H7NO2", "Melting Point": "140 \u00b0C (decomp)"}}