{"cas_no": "3132-64-7", "cn_name": "\u73af\u6c27\u6eb4\u4e19\u70f7", "en_name": ["2-(Bromomethyl)oxirane", "Oxirane, 2-(bromomethyl)-", "Epibromohydrin", "Propane, 1-bromo-2,3-epoxy-", "Oxirane, (bromomethyl)-", "2-(Bromomethyl)oxirane", "(Bromomethyl)ethylene oxide", "1-Bromo-2,3-epoxypropane", "Epibromhydrin", "1,2-Epoxy-3-bromopropane", "Bromohydrin", "3-Bromo-1,2-epoxypropane", "2,3-Epoxypropyl bromide", "(Bromomethyl)oxirane", "(\u00b1)-3-Bromo-1,2-epoxypropane", "(\u00b1)-(Bromomethyl)oxirane", "(\u00b1)-Epibromohydrin", "NSC 630", "Oxiranylmethyl bromide", "Epoxy bromopropane", "Glycidyl bromide"], "SMILES": "C(Br)C1CO1", "physical_data": {"Molecular Weight": "136.98", "Molecular Formula": "C3H5BrO", "Boiling Point": "134.6 \u00b0C", "Melting Point": "-40 \u00b0C", "Density": "1.601 g/cm\u00b3"}}