{"cas_no": "31329-57-4", "cn_name": "\u8418\u544b\u80fa\u916f", "en_name": ["Naftidrofuryl", "2-Furanpropanoic acid, tetrahydro-\u03b1-(1-naphthalenylmethyl)-, 2-(diethylamino)ethyl ester", "2-Furanpropionic acid, tetrahydro-\u03b1-(1-naphthylmethyl)-, 2-(diethylamino)ethyl ester", "2-(Diethylamino)ethyl tetrahydro-\u03b1-(1-naphthylmethyl)-2-furanpropionate ester", "Naftidrofuryl", "N-Diethylamino ethyl \u03b2-(1-naphthol)-\u03b2-(2-tetrahydrofuryl)isobutyrate oxolate salt", "Nafronyl", "Naphtidrofuryl", "LS 84", "Gevatran", "Tridus", "2-(Diethylamino)ethyl 3-(naphthalen-1-yl)-2-((tetrahydrofuran-2-yl)methyl)propanoate", "2-(Diethylamino)ethyl 3-(naphthalen-1-yl)-2-(tetrahydrofuran-2-ylmethyl)propanoate"], "SMILES": "C(C(CC1CCCO1)C(OCCN(CC)CC)=O)C=2C3=C(C=CC2)C=CC=C3", "physical_data": {"Molecular Weight": "383.52", "Molecular Formula": "C24H33NO3", "Boiling Point": "190 \u00b0C"}}