{"cas_no": "3132-99-8", "cn_name": "\u95f4\u6eb4\u82ef\u7532\u919b", "en_name": ["3-Bromobenzaldehyde", "Benzaldehyde, 3-bromo-", "Benzaldehyde, m-bromo-", "3-Bromobenzaldehyde", "m-Bromobenzaldehyde", "3-Formylbromobenzene", "NSC 66828", "3-Formyl-1-bromobenzene", "5-Bromobenzaldehyde", "m-Formylphenyl bromide", "3-Formylphenyl bromide", "4-Pyridinecarboxaldehyde, 2-hydrazinyl-"], "SMILES": "C(=O)C1=CC(Br)=CC=C1", "physical_data": {"Molecular Weight": "185.02", "Molecular Formula": "C7H5BrO", "Boiling Point": "234.5 \u00b0C", "Melting Point": "226 \u00b0C", "Density": "1.3007 g/cm\u00b3 @ Temp: 30 \u00b0C"}}