{"cas_no": "31323-44-1", "cn_name": "\u516b\u6c2f\u4e09\u7845\u6c27\u70f7", "en_name": ["1,1,1,3,3,5,5,5-Octachlorotrisiloxane", "Trisiloxane, 1,1,1,3,3,5,5,5-octachloro-", "Trisiloxane, octachloro-", "1,1,1,3,3,5,5,5-Octachlorotrisiloxane", "Octachlorotrisiloxane"], "SMILES": "O([Si](O[Si](Cl)(Cl)Cl)(Cl)Cl)[Si](Cl)(Cl)Cl", "physical_data": {"Molecular Weight": "399.88", "Molecular Formula": "Cl8O2Si3", "Boiling Point": "184 \u00b0C", "Melting Point": "-47 \u00b0C", "Density": "1.36 g/cm\u00b3"}}