{"cas_no": "3133-01-5", "cn_name": "\u4e8c\u5341\u4e09\u70f7\u9187", "en_name": ["1-Tricosanol", "1-Tricosanol", "Tricosanol", "Tricosyl alcohol", "n-Tricosanol"], "SMILES": "C(CCCCCCCCCCCO)CCCCCCCCCCC", "physical_data": {"Molecular Weight": "340.63", "Molecular Formula": "C23H48O", "Melting Point": "73.5-74.5 \u00b0C"}}