{"cas_no": "31333-13-8", "cn_name": "3-\u58ec\u7094-1-\u9187", "en_name": ["3-Nonyn-1-ol", "3-Nonyn-1-ol"], "SMILES": "C(C#CCCO)CCCC", "physical_data": {"Molecular Weight": "140.22", "Molecular Formula": "C9H16O", "Boiling Point": "103-103.5 \u00b0C", "Density": "0.8837 g/cm\u00b3 @ Temp: 17 \u00b0C"}}