{"cas_no": "313545-32-3", "cn_name": "2-\u6c2f-6-\u6c1f\u82ef\u787c\u9178", "en_name": ["2-Chloro-6-fluorophenylboronic acid", "Boronic acid, B-(2-chloro-6-fluorophenyl)-", "Boronic acid, (2-chloro-6-fluorophenyl)-", "B-(2-Chloro-6-fluorophenyl)boronic acid", "2-Chloro-6-fluorophenylboronic acid"], "SMILES": "B(O)(O)C1=C(Cl)C=CC=C1F", "physical_data": {"Molecular Weight": "174.37", "Molecular Formula": "C6H5BClFO2", "Melting Point": "123-126 \u00b0C"}}