{"cas_no": "31366-25-3", "cn_name": "\u56db\u786b\u5bcc\u74e6\u70ef", "en_name": ["Tetrathiafulvalene", "1,3-Dithiole, 2-(1,3-dithiol-2-ylidene)-", "\u03942,2\u2032-Bi-1,3-dithiole", "2-(1,3-Dithiol-2-ylidene)-1,3-dithiole", "1,4,5,8-Tetrathiafulvalene", "Tetrathiafulvalene", "TTF", "NSC 222862", "2-(2H-1,3-Dithiol-2-ylidene)-2H-1,3-dithiole"], "SMILES": "C1(SC=CS1)=C2SC=CS2", "physical_data": {"Molecular Weight": "204.36", "Molecular Formula": "C6H4S4", "Boiling Point": "90 \u00b0C @ Press: 1 Torr", "Melting Point": "119.1 \u00b0C"}}