{"cas_no": "313651-25-1", "cn_name": "4-\u7532\u57fa\u666e\u745e\u5df4\u6797", "en_name": ["(3R,4R)-3-(Aminomethyl)-4,5-dimethylhexanoic acid", "Hexanoic acid, 3-(aminomethyl)-4,5-dimethyl-, (3R,4R)-", "(3R,4R)-3-(Aminomethyl)-4,5-dimethylhexanoic acid"], "SMILES": "C(C(C(C)C)C)(CC(O)=O)CN", "physical_data": {"Molecular Weight": "173.25", "Molecular Formula": "C9H19NO2", "Melting Point": "163-165 \u00b0C"}}