{"cas_no": "31378-03-7", "cn_name": "\u0391-(\u5bf9\u7532\u82ef\u78fa\u9170)\u82ef\u4e59\u916e", "en_name": ["2-[(4-Methylphenyl)sulfonyl]-1-phenylethanone", "Ethanone, 2-[(4-methylphenyl)sulfonyl]-1-phenyl-", "Acetophenone, 2-(p-tolylsulfonyl)-", "2-[(4-Methylphenyl)sulfonyl]-1-phenylethanone", "(p-Tolylsulfonyl)benzoylmethane", "Phenacyl p-tolyl sulfone", "4-Methylphenyl phenacyl sulfone", "2-(p-Toluenesulfonyl)acetophenone", "p-Tolyl phenacyl sulfone", "\u03b1-(p-Toluenesulfonyl)acetophenone", "NSC 140338", "1-Phenyl-2-tosylethanone", "\u03b1-Tosylacetophenone", "1-Phenyl-2-tosylethan-1-one", "1-Phenyl-2-(toluene-4-sulfonyl)-ethanone", "1-Phenyl-2-(4-methylphenylsulfonyl)ethan-1-one", "2-(4-Methylbenzenesulfonyl)-1-phenylethan-1-one"], "SMILES": "S(CC(=O)C1=CC=CC=C1)(=O)(=O)C2=CC=C(C)C=C2", "physical_data": {"Molecular Weight": "274.33", "Molecular Formula": "C15H14O3S", "Melting Point": "110 \u00b0C"}}