{"cas_no": "3138-86-1", "cn_name": "2,3-\u53cc(\u6eb4\u7532\u57fa)\u55b9\u5549", "en_name": ["2,3-Bis(bromomethyl)quinoxaline", "Quinoxaline, 2,3-bis(bromomethyl)-", "2,3-Bis(bromomethyl)quinoxaline", "2,3-Bis(bromomethyl)-1,4-benzodiazine", "NSC 38602"], "SMILES": "C(Br)C1=NC2=C(N=C1CBr)C=CC=C2", "physical_data": {"Molecular Weight": "315.99", "Molecular Formula": "C10H8Br2N2", "Melting Point": "150 \u00b0C"}}