{"cas_no": "3138-90-7", "cn_name": "3-Methyl-1-benzyl-piperazine", "en_name": ["3-Methyl-1-(phenylmethyl)piperazine", "Piperazine, 3-methyl-1-(phenylmethyl)-", "Piperazine, 1-benzyl-3-methyl-", "3-Methyl-1-(phenylmethyl)piperazine", "1-Benzyl-3-methylpiperazine"], "SMILES": "C(N1CC(C)NCC1)C2=CC=CC=C2", "physical_data": {"Molecular Weight": "190.28", "Molecular Formula": "C12H18N2", "Boiling Point": "90-95 \u00b0C @ Press: 0.2 Torr"}}