{"cas_no": "31394-54-4", "cn_name": "\u5f02\u5e9a\u70f7", "en_name": ["Isoheptane", "Isoheptane"], "SMILES": "", "physical_data": {"Molecular Weight": "", "Molecular Formula": "C7H16", "Boiling Point": "89.3-89.4 \u00b0C @ Press: 748 Torr", "Melting Point": "25.5 \u00b0C", "Density": "0.6842 g/cm\u00b3 @ Temp: 15 \u00b0C"}}