{"cas_no": "314-19-2", "cn_name": "\u76d0\u9178\u53bb\u6c34\u5417\u5561", "en_name": ["(-)-Apomorphine hydrochloride", "4H-Dibenzo[de,g]quinoline-10,11-diol, 5,6,6a,7-tetrahydro-6-methyl-, hydrochloride (1:1), (6aR)-", "6a\u03b2-Aporphine-10,11-diol, hydrochloride", "4H-Dibenzo[de,g]quinoline-10,11-diol, 5,6,6a,7-tetrahydro-6-methyl-, hydrochloride, (R)-", "4H-Dibenzo[de,g]quinoline-10,11-diol, 5,6,6a,7-tetrahydro-6-methyl-, hydrochloride, (6aR)-", "Apomorphine hydrochloride", "(-)-Apomorphine hydrochloride", "Apomorphinium chloride", "R-(-)-Apomorphine hydrochloride", "Uprima", "NSC 11442", "(R)-6-Methyl-5,6,6a,7-tetrahydro-4H-dibenzo[de,g]quinoline-10,11-diol hydrochloride", "Ixense", "Taluvian"], "SMILES": "CN1C2C=3C(C=4C(C2)=CC=C(O)C4O)=CC=CC3CC1.Cl", "physical_data": {"Molecular Weight": "", "Molecular Formula": "C17H17NO2.ClH", "Melting Point": "&gt;250 \u00b0C"}}