{"cas_no": "314-50-1", "cn_name": "\u4e73\u6e05\u82f7", "en_name": ["Orotidine", "4-Pyrimidinecarboxylic acid, 1,2,3,6-tetrahydro-2,6-dioxo-3-\u03b2-D-ribofuranosyl-", "Orotidine", "1,2,3,6-Tetrahydro-2,6-dioxo-3-\u03b2-D-ribofuranosyl-4-pyrimidinecarboxylic acid", "Orotic acid riboside", "6-Carboxyuridine"], "SMILES": "C(O)(=O)C=1N(C(=O)NC(=O)C1)C2OC(CO)C(O)C2O", "physical_data": {"Molecular Weight": "288.21", "Molecular Formula": "C10H12N2O8", "Melting Point": "&gt;400 \u00b0C"}}