{"cas_no": "314-41-0", "cn_name": "2,3,4,6-\u56db\u6c1f\u785d\u57fa\u82ef", "en_name": ["1,2,3,5-Tetrafluoro-4-nitrobenzene", "Benzene, 1,2,3,5-tetrafluoro-4-nitro-", "1,2,3,5-Tetrafluoro-4-nitrobenzene", "2,3,4,6-Tetrafluoronitrobenzene", "2,3,4,6-Tetrafluoro-1-nitrobenzene"], "SMILES": "N(=O)(=O)C1=C(F)C(F)=C(F)C=C1F", "physical_data": {"Molecular Weight": "195.07", "Molecular Formula": "C6HF4NO2", "Boiling Point": "76-77 \u00b0C @ Press: 20 Torr"}}