{"cas_no": "314-40-9", "cn_name": "\u9664\u8349\u5b9a", "en_name": ["Bromacil", "2,4(1H,3H)-Pyrimidinedione, 5-bromo-6-methyl-3-(1-methylpropyl)-", "Uracil, 5-bromo-3-sec-butyl-6-methyl-", "5-Bromo-6-methyl-3-(1-methylpropyl)-2,4(1H,3H)-pyrimidinedione", "Bromacil", "5-Bromo-3-sec-butyl-6-methyluracil", "5-Bromo-6-methyl-3-(1-methyl-n-propyl)uracil", "3-sec-Butyl-5-bromo-6-methyluracil", "Herbicide 976", "Hyvar X", "5-Bromo-6-methyl-3-sec-butyluracil", "Hyvar X bromacil", "5-Bromo-6-methyl-3-(1-methylpropyl)uracil", "Hyvarex", "(\u00b1)-Bromacil", "DuPont 976", "Uragan"], "SMILES": "C(CC)(C)N1C(=O)C(Br)=C(C)NC1=O", "physical_data": {"Molecular Weight": "261.12", "Molecular Formula": "C9H13BrN2O2", "Melting Point": "157.5-160 \u00b0C", "Density": "1.55 g/cm\u00b3 @ Temp: 25 \u00b0C"}}