{"cas_no": "314084-61-2", "cn_name": "2,6-\u4e8c\u4e59\u57fa-4-\u7532\u57fa\u6eb4\u82ef", "en_name": ["2-Bromo-1,3-diethyl-5-methylbenzene", "Benzene, 2-bromo-1,3-diethyl-5-methyl-", "2-Bromo-1,3-diethyl-5-methylbenzene", "2,6-Diethyl-4-methyl-1-bromobenzene", "2,6-Diethyl-4-methylphenyl bromide", "1-Bromo-2,6-diethyl-4-methylbenzene"], "SMILES": "C(C)C1=C(Br)C(CC)=CC(C)=C1", "physical_data": {"Molecular Weight": "227.14", "Molecular Formula": "C11H15Br", "Boiling Point": "102-104 \u00b0C"}}