{"cas_no": "3140-75-8", "cn_name": "2,4,6-\u4e09(4-\u7532\u9170\u57fa\u82ef\u6c27\u57fa)-1,3,5-\u4e09\u55ea", "en_name": ["2,4,6-Tris(4-formylphenoxy)-1,3,5-triazine", "Benzaldehyde, 4,4\u2032,4\u2032\u2032-[1,3,5-triazine-2,4,6-triyltris(oxy)]tris-", "Benzaldehyde, 4,4\u2032,4\u2032\u2032-(s-triazine-2,4,6-triyltrioxy)tri-", "4,4\u2032,4\u2032\u2032-[1,3,5-Triazine-2,4,6-triyltris(oxy)]tris[benzaldehyde]", "Tri(4-formacylphenoxy)-1,3,5-triazine", "2,4,6-Tris(4-formylphenoxy)-1,3,5-triazine", "4,4\u2032,4\u2032\u2032-((1,3,5-Triazine-2,4,6-triyl)tris(oxy))tribenzaldehyde"], "SMILES": "O(C=1N=C(OC2=CC=C(C=O)C=C2)N=C(OC3=CC=C(C=O)C=C3)N1)C4=CC=C(C=O)C=C4", "physical_data": {"Molecular Weight": "441.39", "Molecular Formula": "C24H15N3O6", "Melting Point": "174-176 \u00b0C"}}