{"cas_no": "3140-93-0", "cn_name": "2,3-\u4e8c\u6eb4\u567b\u5429", "en_name": ["2,3-Dibromothiophene", "Thiophene, 2,3-dibromo-", "2,3-Dibromothiophene", "NSC 99003"], "SMILES": "BrC1=C(Br)SC=C1", "physical_data": {"Molecular Weight": "241.93", "Molecular Formula": "C4H2Br2S", "Boiling Point": "218.5 \u00b0C", "Melting Point": "-17.5 \u00b0C"}}