{"cas_no": "3140-73-6", "cn_name": "2-\u6c2f-4,6-\u4e8c\u7532\u6c27\u57fa-1,3,5-\u4e09\u55ea", "en_name": ["2-Chloro-4,6-dimethoxy-1,3,5-triazine", "1,3,5-Triazine, 2-chloro-4,6-dimethoxy-", "s-Triazine, 2-chloro-4,6-dimethoxy-", "2-Chloro-4,6-dimethoxy-1,3,5-triazine", "2-Chloro-4,6-dimethoxy-s-triazine", "2,4-Dimethoxy-6-chloro-s-triazine", "6-Chloro-2,4-dimethoxy-s-triazine", "2,4-Dimethoxy-6-chloro-1,3,5-triazine", "4,6-Dimethoxy-2-chloro-s-triazine", "NSC 46520", "CDMT", "Chlorodimethoxytriazine"], "SMILES": "O(C)C=1N=C(OC)N=C(Cl)N1", "physical_data": {"Molecular Weight": "175.57", "Molecular Formula": "C5H6ClN3O2", "Melting Point": "75-76 \u00b0C"}}