{"cas_no": "31407-74-6", "cn_name": "O-\u4e59\u57fa\u5f02\u8132\u76d0\u9178\u76d0", "en_name": ["Carbamimidic acid, ethyl ester, hydrochloride (1:1)", "Carbamimidic acid, ethyl ester, hydrochloride (1:1)", "Pseudourea, 2-ethyl-, monohydrochloride", "Pseudourea, 2-ethyl-, hydrochloride", "Carbamimidic acid, ethyl ester, monohydrochloride", "2-Ethylpseudourea hydrochloride", "O-Ethylisourea hydrochloride", "Ethyl carbamimidate hydrochloride"], "SMILES": "O(C(=N)N)CC.Cl", "physical_data": {"Molecular Weight": "", "Molecular Formula": "C3H8N2O.ClH", "Melting Point": "99-101 \u00b0C"}}