{"cas_no": "3141-12-6", "cn_name": "\u4e59\u6c27\u57fa\u7837", "en_name": ["Triethoxyarsine", "Arsenous acid, triethyl ester", "Arsenious acid (H3AsO3), triethyl ester", "Ethyl arsenite", "Triethoxyarsine", "Triethyl arsenite", "Triethoxyarsenic", "Arsenic ethoxide"], "SMILES": "[As](OCC)(OCC)OCC", "physical_data": {"Molecular Weight": "210.10", "Molecular Formula": "C6H15AsO3", "Boiling Point": "165.5 \u00b0C", "Density": "1.210 g/cm\u00b3"}}