{"cas_no": "3141-27-3", "cn_name": "2,5-\u4e8c\u6eb4\u567b\u5429", "en_name": ["2,5-Dibromothiophene", "Thiophene, 2,5-dibromo-", "2,5-Dibromothiophene", "NSC 4488"], "SMILES": "BrC=1SC(Br)=CC1", "physical_data": {"Molecular Weight": "241.93", "Molecular Formula": "C4H2Br2S", "Boiling Point": "210.3 \u00b0C", "Melting Point": "-6 \u00b0C", "Density": "2.148 g/cm\u00b3 @ Temp: 21 \u00b0C"}}