{"cas_no": "3141-24-0", "cn_name": "2,3,5-\u4e09\u6eb4\u567b\u5429", "en_name": ["2,3,5-Tribromothiophene", "Thiophene, 2,3,5-tribromo-", "2,3,5-Tribromothiophene", "NSC 263503"], "SMILES": "BrC1=C(Br)SC(Br)=C1", "physical_data": {"Molecular Weight": "320.83", "Molecular Formula": "C4HBr3S", "Boiling Point": "260 \u00b0C", "Melting Point": "29 \u00b0C"}}