{"cas_no": "3141-25-1", "cn_name": "2,3,4-\u4e09\u6eb4\u567b\u5429", "en_name": ["2,3,4-Tribromothiophene", "Thiophene, 2,3,4-tribromo-", "2,3,4-Tribromothiophene"], "SMILES": "BrC=1C(Br)=CSC1Br", "physical_data": {"Molecular Weight": "320.83", "Molecular Formula": "C4HBr3S", "Boiling Point": "132-134 \u00b0C @ Press: 10 Torr", "Melting Point": "43-46 \u00b0C"}}