{"cas_no": "3141-26-2", "cn_name": "3,4-\u4e8c\u6eb4\u567b\u5429", "en_name": ["3,4-Dibromothiophene", "Thiophene, 3,4-dibromo-", "3,4-Dibromothiophene", "NSC 99007"], "SMILES": "BrC=1C(Br)=CSC1", "physical_data": {"Molecular Weight": "241.93", "Molecular Formula": "C4H2Br2S", "Boiling Point": "221.5 \u00b0C", "Melting Point": "4.5 \u00b0C"}}