{"cas_no": "3142-72-1", "cn_name": "2-\u7532\u57fa-2-\u620a\u70ef\u9178", "en_name": ["2-Methyl-2-pentenoic acid", "2-Pentenoic acid, 2-methyl-", "2-Methyl-2-pentenoic acid", "strawberry acid"], "SMILES": "C(=CCC)(C(O)=O)C", "physical_data": {"Molecular Weight": "114.14", "Molecular Formula": "C6H10O2", "Boiling Point": "101 \u00b0C @ Press: 9 Torr", "Melting Point": "21 \u00b0C", "Density": "0.9829 g/cm\u00b3"}}