{"cas_no": "31428-61-2", "cn_name": "\u567b\u7f8e\u5c3c\u5b9a", "en_name": ["Tiamenidine", "1H-Imidazol-2-amine, N-(2-chloro-4-methyl-3-thienyl)-4,5-dihydro-", "2-Imidazoline, 2-[(2-chloro-4-methyl-3-thienyl)amino]-", "N-(2-Chloro-4-methyl-3-thienyl)-4,5-dihydro-1H-imidazol-2-amine", "Tiamenidine", "Symcor Base TTS", "Thiamendidine", "NSC 351524"], "SMILES": "N(C=1C(C)=CSC1Cl)C=2NCCN2", "physical_data": {"Molecular Weight": "215.70", "Molecular Formula": "C8H10ClN3S", "Melting Point": "152 \u00b0C"}}