{"cas_no": "31438-22-9", "cn_name": "1-\u785d\u57fa-9H-\u5494\u5511", "en_name": ["1-Nitro-9H-carbazole", "9H-Carbazole, 1-nitro-", "Carbazole, 1-nitro-", "1-Nitro-9H-carbazole", "1-Nitrocarbazole", "NSC 88018"], "SMILES": "N(=O)(=O)C1=C2C(C=3C(N2)=CC=CC3)=CC=C1", "physical_data": {"Molecular Weight": "212.20", "Molecular Formula": "C12H8N2O2", "Melting Point": "184 \u00b0C"}}