{"cas_no": "31431-19-3", "cn_name": "4-\u6c28\u57fa-3-\u785d\u57fa\u4e8c\u82ef\u7532\u916e", "en_name": ["4-Amino-3-nitrobenzophenone", "Methanone, (4-amino-3-nitrophenyl)phenyl-", "Benzophenone, 4-amino-3-nitro-", "(4-Amino-3-nitrophenyl)phenylmethanone", "4-Benzoyl-2-nitroaniline", "2-Nitro-4-benzoylaniline", "4-Amino-3-nitrobenzophenone", "3-Nitro-4-aminobenzophenone"], "SMILES": "C(=O)(C1=CC(N(=O)=O)=C(N)C=C1)C2=CC=CC=C2", "physical_data": {"Molecular Weight": "242.23", "Molecular Formula": "C13H10N2O3", "Melting Point": "139-141 \u00b0C"}}