{"cas_no": "31431-39-7", "cn_name": "\u7532\u82ef\u8fbe\u5511", "en_name": ["Mebendazole", "Carbamic acid, N-(6-benzoyl-1H-benzimidazol-2-yl)-, methyl ester", "2-Benzimidazolecarbamic acid, 5-benzoyl-, methyl ester", "Carbamic acid, (5-benzoyl-1H-benzimidazol-2-yl)-, methyl ester", "Mebendazole", "Methyl 5-benzoyl-2-benzimidazolecarbamate", "R 17635", "Methyl 5-benzoyl-2-benzimidazolylcarbamate", "(5-Benzoyl-1H-benzimidazol-2-yl)carbamic acid methyl ester", "5-Benzoyl-2-benzimidazolecarbamic acid methyl ester", "Pantelmin", "Telmin", "Vermox", "Mebenvet", "Ovitelmin", "Besantin", "NSC 184849", "Verpanyl", "Mebex", "Equivurm Plus", "Vermirax", "Bantenol", "Noverme", "Lomper", "Vermicidin", "Zhihuanqing", "Vermoxine", "MeSH ID: D008463"], "SMILES": "C(=O)(C=1C=C2C(N=C(NC(OC)=O)N2)=CC1)C3=CC=CC=C3", "physical_data": {"Molecular Weight": "295.29", "Molecular Formula": "C16H13N3O3", "Melting Point": "288.5 \u00b0C", "Density": "1.38 g/cm\u00b3"}}