{"cas_no": "31430-15-6", "cn_name": "\u6c1f\u82ef\u54aa\u5511", "en_name": ["Flubendazole", "Carbamic acid, N-[6-(4-fluorobenzoyl)-1H-benzimidazol-2-yl]-, methyl ester", "2-Benzimidazolecarbamic acid, 5-(p-fluorobenzoyl)-, methyl ester", "Carbamic acid, [5-(4-fluorobenzoyl)-1H-benzimidazol-2-yl]-, methyl ester", "Flubendazole", "R 17899", "Methyl (5-p-fluorobenzoyl-2-benzimidazolyl)carbamate", "Flubenol", "Fluvermal", "R 17889", "Flumoxane", "Flumoxal", "NSC 313680", "Flubenvet"], "SMILES": "C(=O)(C=1C=C2C(N=C(NC(OC)=O)N2)=CC1)C3=CC=C(F)C=C3", "physical_data": {"Molecular Weight": "313.28", "Molecular Formula": "C16H12FN3O3", "Melting Point": "260 \u00b0C"}}