{"cas_no": "3144-09-0", "cn_name": "\u7532\u57fa\u78fa\u9170\u80fa", "en_name": ["Methanesulfonamide", "Methanesulfonamide", "Methylsulfonamide", "Methanesulphonamide", "Methanesulfonic amide", "Mesylamide", "NSC 191039", "NSC 271"], "SMILES": "S(C)(N)(=O)=O", "physical_data": {"Molecular Weight": "95.12", "Molecular Formula": "CH5NO2S", "Melting Point": "88 \u00b0C"}}