{"cas_no": "3144-54-5", "cn_name": "2',4'-\u4e8c\u7f9f\u57fa\u82ef\u5df1\u916e", "en_name": ["4-Caproylresorcinol", "1-Hexanone, 1-(2,4-dihydroxyphenyl)-", "Hexanophenone, 2\u2032,4\u2032-dihydroxy-", "1-(2,4-Dihydroxyphenyl)-1-hexanone", "4-Caproylresorcinol", "2\u2032,4\u2032-Dihydroxycaprophenone", "2\u2032,4\u2032-Dihydroxyhexanophenone", "NSC 163332", "4-Hexanoylresorcinol"], "SMILES": "C(CCCCC)(=O)C1=C(O)C=C(O)C=C1", "physical_data": {"Molecular Weight": "208.25", "Molecular Formula": "C12H16O3", "Boiling Point": "343 \u00b0C", "Melting Point": "57 \u00b0C"}}