{"cas_no": "3144-16-9", "cn_name": "\u53f3\u65cb\u6a1f\u8111\u78fa\u9178", "en_name": ["Camphorsulfonic acid", "Bicyclo[2.2.1]heptane-1-methanesulfonic acid, 7,7-dimethyl-2-oxo-, (1S,4R)-", "10-Bornanesulfonic acid, 2-oxo-, (1S,4R)-(+)-", "Bicyclo[2.2.1]heptane-1-methanesulfonic acid, 7,7-dimethyl-2-oxo-, (1S)-", "Camphorsulfonic acid", "(1S,4R)-7,7-Dimethyl-2-oxobicyclo[2.2.1]heptane-1-methanesulfonic acid", "(+)-Camphor-10-sulfonic acid", "d-Camphorsulfonic acid", "Reychler's acid", "2-Oxo-10-bornanesulfonic acid", "Camphor-10-sulfonic acid, (+)-", "Camphor-\u03c9-sulfonic acid, (+)-", "\u03b2-Camphorsulfonic acid, (+)-", "(+)-Camphorsulfonic acid", "(+)-Camphor-\u03c9-sulfonic acid", "(+)-\u03b2-Camphorsulfonic acid", "(+)-D-Camphor-10-sulfonic acid", "D-(+)-Camphorsulfonic acid", "D-Camphorsulfonic acid", "(+)-2-Oxo-10-bornanesulfonic acid", "D-(+)-Camphor-10-sulfonic acid", "D-Camphor-10-sulfonic acid", "(S)-Camphor-10-sulfonic acid", "(1S)-(+)-10-Camphorsulfonic acid", "d-10-Camphorsulfonic acid", "(S)-(+)-Camphor-10-sulfonic acid", "D-Camphor-\u03b2-sulfonic acid", "(+)-(S)-Camphor-10-sulfonic acid", "(1S)-10-Camphorsulfonic acid", "(S)-(+)-CSA", "((1S,4R)-7,7-Dimethyl-2-oxobicyclo[2.2.1]heptan-1-yl)methanesulfonic acid", "(S)-Camphorsulfonic acid", "(1S,4R)-10-Camphorsulfonic acid", "((1S,4R)-7,7-Dimethyl-2-oxobicyclo[2.2.1]heptan-1-yl)methanesulfonic acid"], "SMILES": "C(S(=O)(=O)O)C12C(C)(C)C(CC1=O)CC2", "physical_data": {"Molecular Weight": "232.30", "Molecular Formula": "C10H16O4S", "Melting Point": "195 \u00b0C (decomp)"}}