{"cas_no": "3144-74-9", "cn_name": "\u6c2f(\u4e8c\u7532\u57fa)\u7845\u70f7", "en_name": ["(Chloromethyl)dimethylsilane", "Silane, (chloromethyl)dimethyl-", "(Chloromethyl)dimethylsilane", "Dimethyl(chloromethyl)silane", "Dimethylsilylmethyl chloride", "NSC 96776"], "SMILES": "[SiH](CCl)(C)C", "physical_data": {"Molecular Weight": "108.64", "Molecular Formula": "C3H9ClSi", "Boiling Point": "81 \u00b0C", "Density": "0.892 g/cm\u00b3 @ Temp: 25 \u00b0C"}}