{"cas_no": "31469-16-6", "cn_name": "1-\u4e59\u6c27\u57fa-2-\u7532\u57fa-1-(\u4e09\u7532\u57fa\u7845\u6c27\u57fa)-1-\u4e19\u70ef", "en_name": ["[(1-Ethoxy-2-methyl-1-propen-1-yl)oxy]trimethylsilane", "Silane, [(1-ethoxy-2-methyl-1-propen-1-yl)oxy]trimethyl-", "Silane, [(1-ethoxy-2-methyl-1-propenyl)oxy]trimethyl-", "Silane, [(1-ethoxy-2-methylpropenyl)oxy]trimethyl-", "[(1-Ethoxy-2-methyl-1-propen-1-yl)oxy]trimethylsilane", "1-Ethoxy-2-methyl-1-(trimethylsiloxy)-1-propene", "[(1-Ethoxy-2-methyl-1-propenyl)oxy]trimethylsilane", "1-Ethoxy-2-methyl-1-trimethylsiloxypropene", "1-Ethoxy-2-methyl-1-(trimethylsilyl)oxy-1-propene", "1-Ethoxy-2-methyl-1-(trimethylsilyloxy)propene", "Ethyl trimethylsilyl dimethylketene acetal", "(1-Ethoxy-2-methylprop-1-enoxy)-trimethylsilane"], "SMILES": "C(O[Si](C)(C)C)(OCC)=C(C)C", "physical_data": {"Molecular Weight": "188.34", "Molecular Formula": "C9H20O2Si", "Boiling Point": "60 \u00b0C @ Press: 20 Torr"}}