{"cas_no": "31462-59-6", "cn_name": "4-\u5627\u5576\u7532\u9178", "en_name": ["4-Pyrimidinecarboxylic acid", "4-Pyrimidinecarboxylic acid"], "SMILES": "C(O)(=O)C=1C=CN=CN1", "physical_data": {"Molecular Weight": "124.10", "Molecular Formula": "C5H4N2O2", "Melting Point": "238 \u00b0C"}}