{"cas_no": "31465-36-8", "cn_name": "4-(\u5bf9\u7532\u6c27\u57fa\u82ef\u6c27\u57fa)\u82ef\u80fa", "en_name": ["4-(4-Methoxyphenoxy)benzenamine", "Benzenamine, 4-(4-methoxyphenoxy)-", "Aniline, p-(p-methoxyphenoxy)-", "4-(4-Methoxyphenoxy)benzenamine", "p-Aminophenyl p-methoxyphenyl ether", "p-(p-Methoxyphenoxy)aniline", "4-Amino-4\u2032-methoxydiphenyl ether", "4-(4-Methoxyphenoxy)aniline", "NSC 509660", "[4-(4-Methoxyphenoxy)phenyl]amine"], "SMILES": "O(C1=CC=C(OC)C=C1)C2=CC=C(N)C=C2", "physical_data": {"Molecular Weight": "215.25", "Molecular Formula": "C13H13NO2", "Melting Point": "79 \u00b0C"}}