{"cas_no": "31465-25-5", "cn_name": "4-\u7f9f\u57fa\u4e01\u57fa\u78fa\u9178\u94a0", "en_name": ["1-Butanesulfonic acid, 4-hydroxy-, sodium salt (1:1)", "1-Butanesulfonic acid, 4-hydroxy-, sodium salt (1:1)", "1-Butanesulfonic acid, 4-hydroxy-, monosodium salt", "WAS 17", "Sodium 4-hydroxybutanesulfonate"], "SMILES": "C(S(=O)(=O)O)CCCO.[Na]", "physical_data": {"Molecular Weight": "", "Molecular Formula": "C4H10O4S.Na", "Melting Point": "207-208 \u00b0C"}}