{"cas_no": "3147-62-4", "cn_name": "3,5-\u4e8c\u7f9f\u57fa\u82ef\u7532\u9170\u80fa", "en_name": ["3,5-Dihydroxybenzamide", "Benzamide, 3,5-dihydroxy-", "\u03b1-Resorcylamide", "3,5-Dihydroxybenzamide", "3,5-Dihydroxybenzoic acid amide", "NSC 60729"], "SMILES": "C(N)(=O)C1=CC(O)=CC(O)=C1", "physical_data": {"Molecular Weight": "153.14", "Molecular Formula": "C7H7NO3", "Melting Point": "279 \u00b0C (decomp)"}}