{"cas_no": "314771-76-1", "cn_name": "N4-(3-\u6c2f-4-\u6c1f\u82ef\u57fa)-7-[[(3S)-\u56db\u6c22-3-\u544b\u5583\u57fa]\u6c27\u57fa]-4,6-\u55b9\u5511\u5549\u4e8c\u80fa", "en_name": ["N4-(3-Chloro-4-fluorophenyl)-7-[[(3S)-tetrahydro-3-furanyl]oxy]-4,6-quinazolinediamine", "4,6-Quinazolinediamine, N4-(3-chloro-4-fluorophenyl)-7-[[(3S)-tetrahydro-3-furanyl]oxy]-", "N4-(3-Chloro-4-fluorophenyl)-7-[[(3S)-tetrahydro-3-furanyl]oxy]-4,6-quinazolinediamine", "6-Amino-4-[(3-chloro-4-fluorophenyl)amino]-7-[(S)-(tetrahydrofuran-3-yl)oxy]quinazoline", "(S)-N4-(3-Chloro-4-fluorophenyl)-7-((tetrahydrofuran-3-yl)oxy)quinazoline-4,6-diamine"], "SMILES": "N(C=1C2=C(C=C(OC3CCOC3)C(N)=C2)N=CN1)C4=CC(Cl)=C(F)C=C4", "physical_data": {"Molecular Weight": "374.80", "Molecular Formula": "C18H16ClFN4O2", "Melting Point": "139.1-140.1 \u00b0C"}}