{"cas_no": "3147-76-0", "cn_name": "2-(2H-\u82ef\u5e76\u4e09\u5511-2-\u57fa)-4-(1,1-\u4e8c\u7532\u57fa\u4e59\u57fa)-\u82ef\u915a", "en_name": ["2-(2\u2032-Hydroxy-5\u2032-tert-butylphenyl)benzotriazole", "Phenol, 2-(2H-benzotriazol-2-yl)-4-(1,1-dimethylethyl)-", "Phenol, 2-(2H-benzotriazol-2-yl)-4-tert-butyl-", "2-(2H-Benzotriazol-2-yl)-4-(1,1-dimethylethyl)phenol", "2-(2\u2032-Hydroxy-5\u2032-tert-butylphenyl)benzotriazole", "2-(5-tert-Butyl-2-hydroxyphenyl)benzotriazole", "2-(2-Hydroxy-5-tert-butylphenyl)benzotriazole", "Tinuvin PS", "2-(5\u2032-tert-Butyl-2\u2032-hydroxyphenyl)benzotriazole", "2-(2-Hydroxy-5-tert-butylphenyl)-2H-benzotriazole", "2-(2H-Benzotriazol-2-yl)-4-tert-butylphenol", "Eversorb 70", "2-(2-Hydroxy-5-tert-butyl)benzotriazole", "Tinuvin 5411", "2-(2H-Benzo[d][1,2,3]triazol-2-yl)-4-(tert-butyl)phenol", "2-(2H-1,2,3-Benzotriazol-2-yl)-4-tert-butylphenol", "2-(Benzotriazol-2-yl)-4-tert-butylphenol", "2-(2\u2032-Hydroxy-5\u2032-tert-butylphenyl)-2H-benzotriazole"], "SMILES": "OC=1C(N2N=C3C(=N2)C=CC=C3)=CC(C(C)(C)C)=CC1", "physical_data": {"Molecular Weight": "267.33", "Molecular Formula": "C16H17N3O", "Melting Point": "92.4-93.6 \u00b0C"}}