{"cas_no": "3147-64-6", "cn_name": "2-\u7f9f\u57fa-6-\u7532\u6c27\u57fa\u82ef\u7532\u9178", "en_name": ["2-Hydroxy-6-methoxybenzoic acid", "Benzoic acid, 2-hydroxy-6-methoxy-", "o-Anisic acid, 6-hydroxy-", "2-Hydroxy-6-methoxybenzoic acid", "6-Methoxysalicylic acid", "2-Hydroxy-6-methoxybenzenecarboxylic acid"], "SMILES": "C(O)(=O)C1=C(OC)C=CC=C1O", "physical_data": {"Molecular Weight": "168.15", "Molecular Formula": "C8H8O4", "Melting Point": "135 \u00b0C"}}