{"cas_no": "3147-39-5", "cn_name": "2,4,6-\u4e09\u7f9f\u57fa\u82ef\u7532\u9178\u7532\u916f", "en_name": ["Methyl 2,4,6-trihydroxybenzoate", "Benzoic acid, 2,4,6-trihydroxy-, methyl ester", "Methyl 2,4,6-trihydroxybenzoate", "ICPD 1", "2,4,6-Trihydroxybenzoic acid methyl ester"], "SMILES": "C(OC)(=O)C1=C(O)C=C(O)C=C1O", "physical_data": {"Molecular Weight": "184.15", "Molecular Formula": "C8H8O5", "Melting Point": "170-172 \u00b0C"}}