{"cas_no": "31477-60-8", "cn_name": "\u82ef\u5e76\u5421\u5583", "en_name": ["Ormeloxifene", "Pyrrolidine, 1-[2-[4-[(3R,4R)-3,4-dihydro-7-methoxy-2,2-dimethyl-3-phenyl-2H-1-benzopyran-4-yl]phenoxy]ethyl]-, rel-", "Pyrrolidine, 1-[2-[p-(7-methoxy-2,2-dimethyl-3-phenyl-4-chromanyl)phenoxy]ethyl]-, trans-", "Pyrrolidine, 1-[2-[4-(3,4-dihydro-7-methoxy-2,2-dimethyl-3-phenyl-2H-1-benzopyran-4-yl)phenoxy]ethyl]-, trans-", "rel-1-[2-[4-[(3R,4R)-3,4-Dihydro-7-methoxy-2,2-dimethyl-3-phenyl-2H-1-benzopyran-4-yl]phenoxy]ethyl]pyrrolidine", "3,4-trans-2,2-Dimethyl-3-phenyl-4-[p-(\u03b2-pyrrolidinoethoxy)phenyl]-7-methoxychroman", "Centchroman", "67/20", "1-[2-[p-(trans-7-Methoxy-2,2-dimethyl-3-phenyl-4-chromanyl)phenoxy]ethyl]pyrrolidine", "trans-Centchroman", "Ormeloxifene", "Sevista", "Centron", "Novex-DS", "Saheli"], "SMILES": "CC1(C)C(C(C=2C(O1)=CC(OC)=CC2)C3=CC=C(OCCN4CCCC4)C=C3)C5=CC=CC=C5", "physical_data": {"Molecular Weight": "457.60", "Molecular Formula": "C30H35NO3", "Melting Point": "99-101 \u00b0C"}}