{"cas_no": "3147-50-0", "cn_name": "2,6-\u4e8c\u7f9f\u57fa\u82ef\u7532\u9170\u80fa", "en_name": ["2,6-Dihydroxybenzamide", "Benzamide, 2,6-dihydroxy-", "\u03b3-Resorcylamide", "2,6-Dihydroxybenzamide", "2,6-Dihydroxybenzoic acid amide", "NSC 49192"], "SMILES": "C(N)(=O)C1=C(O)C=CC=C1O", "physical_data": {"Molecular Weight": "153.14", "Molecular Formula": "C7H7NO3", "Melting Point": "218 \u00b0C"}}