{"cas_no": "3147-45-3", "cn_name": "2,4-\u4e8c\u7f9f\u57fa\u82ef\u7532\u9170\u80fa", "en_name": ["2,4-Dihydroxybenzamide", "Benzamide, 2,4-dihydroxy-", "\u03b2-Resorcylamide", "2,4-Dihydroxybenzamide", "1,3,4-Resorcylic acid amide", "NSC 60728"], "SMILES": "C(N)(=O)C1=C(O)C=C(O)C=C1", "physical_data": {"Molecular Weight": "153.14", "Molecular Formula": "C7H7NO3", "Melting Point": "221-222 \u00b0C"}}