{"cas_no": "3147-75-9", "cn_name": "\u7d2b\u5916\u7ebf\u5438\u6536\u5242 UV-329", "en_name": ["2-(2-Hydroxy-5-tert-octylphenyl)benzotriazole", "Phenol, 2-(2H-benzotriazol-2-yl)-4-(1,1,3,3-tetramethylbutyl)-", "2-(2H-Benzotriazol-2-yl)-4-(1,1,3,3-tetramethylbutyl)phenol", "2-(2-Hydroxy-5-tert-octylphenyl)benzotriazole", "Cyasorb UV 5411", "Octrizole", "Cyasorb 5411", "2-(2-Hydroxy-5-tert-octylphenyl)-2H-benzotriazole", "Spectra-Sorb UV 5411", "2-Benzotriazolyl-4-tert-octylphenol", "Sumisorb 340", "Viosorb 583", "Tinuvin 329", "2-(2\u2032-Hydroxy-5\u2032-tert-octylphenyl)benzotriazole", "2-(2\u2032-Hydroxy-5\u2032-tert-octylphenyl)benztriazole", "2-(2-Hydroxy-5-t-octylphenyl)benzotriazole", "2-[2\u2032-Hydroxy-5\u2032-(1,1,3,3-tetramethylbutyl)phenyl]benzotriazole", "Seesorb 709", "2-(5-t-Octyl-2-hydroxyphenyl)benzotriazole", "2-(2-Hydroxy-5-t-octylphenyl)-2H-benzotriazole", "2-(5\u2032-tert-Octyl-2\u2032-hydroxyphenyl)benzotriazole", "UV 5411", "Kemisorb 79", "UV 329", "Chisorb 5411", "Uvinul 3029", "Eversorb 72", "JF 83", "2-(2H-Benzotriazol-2-yl)-4-tert-octylphenol", "2-(2H-Benzotriazol-2-yl)-4-(2,4,4-trimethylpentan-2-yl)phenol", "1268A", "Seesorb 709G", "2-(2H-Benzotriazole-2-yl)-4-(1,1,3,3-tetramethylbutyl)phenol", "BLS 5411", "Fisorb 329", "Biosoap 583", "UVA 235", "Songsorb 3290", "LA 29", "ADK Stab LA 29", "UVA 5411", "UV 31 (UV absorber)", "UV 31", "Chemsorb 329", "Adeka Stab LA 29"], "SMILES": "OC=1C(N2N=C3C(=N2)C=CC=C3)=CC(C(CC(C)(C)C)(C)C)=CC1", "physical_data": {"Molecular Weight": "323.43", "Molecular Formula": "C20H25N3O", "Melting Point": "104.0-105.2 \u00b0C"}}