{"cas_no": "3147-53-3", "cn_name": "5-\u82ef\u57fa\u53e0\u6c2e\u6c34\u6768\u9178", "en_name": ["5-(Phenylazo)salicylic acid", "Benzoic acid, 2-hydroxy-5-(2-phenyldiazenyl)-", "Salicylic acid, 5-(phenylazo)-", "Benzoic acid, 2-hydroxy-5-(phenylazo)-", "2-Hydroxy-5-(2-phenyldiazenyl)benzoic acid", "CK 46A", "5-(Phenylazo)salicylic acid", "2-Hydroxy-5-(phenylazo)benzoic acid", "NSC 163392"], "SMILES": "N(=NC1=CC=CC=C1)C2=CC(C(O)=O)=C(O)C=C2", "physical_data": {"Molecular Weight": "242.23", "Molecular Formula": "C13H10N2O3", "Melting Point": "220.5 \u00b0C"}}