{"cas_no": "3147-55-5", "cn_name": "3,5-\u4e8c\u6eb4-2-\u7f9f\u57fa\u82ef\u7532\u9178", "en_name": ["3,5-Dibromosalicylic acid", "Benzoic acid, 3,5-dibromo-2-hydroxy-", "Salicylic acid, 3,5-dibromo-", "3,5-Dibromo-2-hydroxybenzoic acid", "2-Hydroxy-3,5-dibromobenzoic acid", "3,5-Dibromosalicylic acid", "NSC 1062"], "SMILES": "C(O)(=O)C1=C(O)C(Br)=CC(Br)=C1", "physical_data": {"Molecular Weight": "295.91", "Molecular Formula": "C7H4Br2O3", "Melting Point": "228 \u00b0C"}}