{"cas_no": "3148-73-0", "cn_name": "N,N'-\u4e8c\u4e59\u9170\u57fa\u80bc", "en_name": ["Acetic acid, 2-acetylhydrazide", "Acetic acid, 2-acetylhydrazide", "Hydrazine, 1,2-diacetyl-", "1,2-Diacetylhydrazine", "N,N\u2032-Diacetylhydrazine", "NSC 42939"], "SMILES": "N(NC(C)=O)C(C)=O", "physical_data": {"Molecular Weight": "116.12", "Molecular Formula": "C4H8N2O2", "Melting Point": "138-139 \u00b0C"}}