{"cas_no": "3148-09-2", "cn_name": "\u75a3\u5b62\u83cc\u7d20", "en_name": ["Verrucarin A", "Verrucarin A", "Spiro[16,18-methano-1H,3H,23H-[1,6,12]trioxacyclooctadecino[3,4-d][1]benzopyran-17(18H),2\u2032-oxirane], verrucarin A deriv.", "Muconomycin A", "Muconomycin", "Verrucarine A", "NSC 126728", "NSC 200736", "Spiro[16,18-methano-1H,3H,23H-[1,6,12]trioxacyclooctadecino[3,4-d][1]benzopyran-17(18H),2\u2032-oxirane]-3,9,14-trione, 4,5,6,7,16,16a,19a,22-octahydro-4-hydroxy-5,16a,21-trimethyl-, (4S,5R,10E,12Z,16R,16aS,17S,18R,19aR,23aR)-", "(4S,5R,10E,12Z,16R,16aS,17S,18R,19aR,23aR)-4,5,6,7,16,16a,19a,22-Octahydro-4-hydroxy-5,16a,21-trimethylspiro[16,18-methano-1H,3H,23H-[1,6,12]trioxacyclooctadecino[3,4-d][1]benzopyran-17(18H),2\u2032-oxirane]-3,9,14-trione"], "SMILES": "CC12C3(C4OC5C1(COC(=O)C(O)C(C)CCOC(=O)C=CC=CC(=O)OC2C4)CCC(C)=C5)CO3", "physical_data": {"Molecular Weight": "502.55", "Molecular Formula": "C27H34O9", "Melting Point": "&gt;300 \u00b0C"}}