{"cas_no": "31482-56-1", "cn_name": "\u5206\u6563\u6a59 25", "en_name": ["Disperse Orange 25", "Propanenitrile, 3-[ethyl[4-[2-(4-nitrophenyl)diazenyl]phenyl]amino]-", "Propionitrile, 3-[N-ethyl-p-[(p-nitrophenyl)azo]anilino]-", "Propanenitrile, 3-[ethyl[4-[(4-nitrophenyl)azo]phenyl]amino]-", "3-[Ethyl[4-[2-(4-nitrophenyl)diazenyl]phenyl]amino]propanenitrile", "4-[N-(2-Cyanoethyl)-N-ethylamino]-4\u2032-nitroazobenzene", "C.I. Disperse Orange 25", "Artisil Brilliant Orange RL", "Eastman Polyester Brilliant Orange 2RL", "Serilene Orange 2RL", "Tersetile Orange RCL", "Latyl Orange NST", "Foron Brilliant Orange E-RL", "Resiren Orange TR", "Disperse Orange 25", "Transetile Orange P-RCL", "Disperse Polyester Orange", "Fantagen Orange 2RL", "Disperse Brilliant Orange RL", "Dispersol Orange B 2R", "C.I. Solvent Orange 105", "Solvent Orange 105", "Synten Orange P-RL", "Resolin Orange F 3R200", "Dispersol Orange B 2R200", "Serilene Orange 2RL200", "Foron Brilliant Orange E-RLI", "Serene Disperse Orange 25", "Disperse Orange 2K", "Orange RL", "Disperse Orange P/E", "Foron Brilliant Orange RL", "Seriplas Orange 2RL-TP", "C.I. Disperse Orange 36", "Disperse Orange 36", "Interatherm Orange P 367", "3-[N-Ethyl-4-(4-nitrophenylazo)phenylamino]propionitrile"], "SMILES": "N(CCC#N)(CC)C1=CC=C(N=NC2=CC=C(N(=O)=O)C=C2)C=C1", "physical_data": {"Molecular Weight": "323.35", "Molecular Formula": "C17H17N5O2", "Melting Point": "160-161 \u00b0C"}}