{"cas_no": "31480-93-0", "cn_name": "\u5bf9\u82ef\u4e8c\u915a\u5355\u7532\u57fa\u4e19\u70ef\u9178\u916f", "en_name": ["4-Hydroxyphenyl 2-methyl-2-propenoate", "2-Propenoic acid, 2-methyl-, 4-hydroxyphenyl ester", "Methacrylic acid, p-hydroxyphenyl ester", "4-Hydroxyphenyl 2-methyl-2-propenoate", "4-Methacryloyloxyphenol", "4-Hydroxyphenyl methacrylate", "Hydroquinone monomethacrylate", "p-Hydroxyphenyl methacrylate", "PQMA"], "SMILES": "O(C(C(C)=C)=O)C1=CC=C(O)C=C1", "physical_data": {"Molecular Weight": "178.18", "Molecular Formula": "C10H10O3", "Melting Point": "120 \u00b0C"}}