{"cas_no": "3149-28-8", "cn_name": "2-\u7532\u6c27\u57fa\u5421\u55ea", "en_name": ["2-Methoxypyrazine", "Pyrazine, 2-methoxy-", "Pyrazine, methoxy-", "2-Methoxypyrazine", "Methoxypyrazine"], "SMILES": "O(C)C=1C=NC=CN1", "physical_data": {"Molecular Weight": "110.11", "Molecular Formula": "C5H6N2O", "Boiling Point": "61 \u00b0C"}}