{"cas_no": "315-22-0", "cn_name": "\u91ce\u767e\u5408\u78b1", "en_name": ["Monocrotaline", "2H-[1,6]Dioxacycloundecino[2,3,4-gh]pyrrolizine-2,6(3H)-dione, 4,5,8,10,12,13,13a,13b-octahydro-4,5-dihydroxy-3,4,5-trimethyl-, (3R,4R,5R,13aR,13bR)-", "20-Norcrotalanan-11,15-dione, 14,19-dihydro-12,13-dihydroxy-, (13\u03b1,14\u03b1)-", "Monocrotaline", "2H-[1,6]Dioxacycloundecino[2,3,4-gh]pyrrolizine, 20-norcrotalanan-11,15-dione deriv.", "(3R,4R,5R,13aR,13bR)-4,5,8,10,12,13,13a,13b-Octahydro-4,5-dihydroxy-3,4,5-trimethyl-2H-[1,6]dioxacycloundecino[2,3,4-gh]pyrrolizine-2,6(3H)-dione", "Monocrotalin", "(-)-Monocrotaline", "2H-[1,6]Dioxacycloundecino[2,3,4-gh]pyrrolizine-2,6(3H)-dione, 4,5,8,10,12,13,13a,13b-octahydro-4,5-dihydroxy-3,4,5-trimethyl-, [3R-(3R*,4R*,5R*,13aR*,13bR*)]-", "NSC 28693", "MeSH ID: D016686"], "SMILES": "O=C1OC2C3N(CC2)CC=C3COC(=O)C(C)(O)C(C)(O)C1C", "physical_data": {"Molecular Weight": "325.36", "Molecular Formula": "C16H23NO6", "Melting Point": "197-198 \u00b0C (decomp)", "Density": "1.35 g/cm\u00b3"}}