{"cas_no": "315-30-0", "cn_name": "\u522b\u560c\u9187", "en_name": ["Allopurinol", "4H-Pyrazolo[3,4-d]pyrimidin-4-one, 1,5-dihydro-", "1,5-Dihydro-4H-pyrazolo[3,4-d]pyrimidin-4-one", "BW 56-158", "Allopurinol", "HPP", "Zyloprim", "Zyloric", "4-Hydroxypyrazolo[3,4-d]pyrimidine", "Allopurinol(I)", "Milurit", "1H-Pyrazolo[3,4-d]pyrimidin-4-ol", "4-Hydroxy-1H-pyrazolo[3,4-d]pyrimidine", "Bloxanth", "Foligan", "Epidropal", "Uricemil", "Urosin", "Allopur", "Uriprim", "Atisuril", "Gotax", "Gichtex", "4-Oxopyrazolo[3,4-d]pyrimidine", "Sllo-puren", "Cellidrin", "Cosuric", "Caplenal", "Ketanrift", "Monarch", "BW 15658", "Riball", "Anoprolin", "Alositol", "Urtias", "NSC 1390", "Bleminol", "Ketobun A", "Suspendol", "Hexanurat", "Uripurinol", "Takanarumin", "Lysuron", "Urobenyl", "Nektrohan", "Urbol", "Allurtal", "Xanturat", "Geapur", "Lopurin", "Dabroson", "Anzief", "Miniplanor", "Apurol", "Sigapurol", "Apurin", "Remid", "Allozym", "Hamarin", "Aloral", "Ledopur", "Embarin", "Adenock", "Apulonga", "NSC 101655", "1,5-Dihydro-1H-pyrazolo[3,4-d]pyrimidin-4-one", "Aloprim", "Alopurinol", "1H,4H,7H-Pyrazolo[3,4-d]pyrimidin-4-one", "1H,4H,5H-Pyrazolo[3,4-d]pyrimidin-4-one", "1H-Pyrazolo[3,4-d]pyrimidin-4(5H)-one", "MeSH ID: D000493"], "SMILES": "O=C1C2=C(NC=N1)NN=C2", "physical_data": {"Molecular Weight": "136.11", "Molecular Formula": "C5H4N4O", "Melting Point": "&gt;350 \u00b0C"}}