{"cas_no": "315-14-0", "cn_name": "1,3,5-\u4e09\u6c1f-2-\u785d\u57fa\u82ef", "en_name": ["1,3,5-Trifluoro-2-nitrobenzene", "Benzene, 1,3,5-trifluoro-2-nitro-", "1,3,5-Trifluoro-2-nitrobenzene", "2,4,6-Trifluoronitrobenzene", "2,4,6-Trifluoro-1-nitrobenzene", "NSC 10247"], "SMILES": "N(=O)(=O)C1=C(F)C=C(F)C=C1F", "physical_data": {"Molecular Weight": "177.08", "Molecular Formula": "C6H2F3NO2", "Boiling Point": "183.5 \u00b0C", "Melting Point": "3.5 \u00b0C"}}