{"cas_no": "315-72-0", "cn_name": "\u606f\u987f", "en_name": ["Opipramol", "1-Piperazineethanol, 4-[3-(5H-dibenz[b,f]azepin-5-yl)propyl]-", "4-[3-(5H-Dibenz[b,f]azepin-5-yl)propyl]-1-piperazineethanol", "5H-Dibenz[b,f]azepine, 1-piperazineethanol deriv.", "G 33040", "GR 33040", "Endison", "Opipramol", "Opipramol G", "Opramidol", "N-[3-[4-(2-Hydroxyethyl)piperazino]propyl]iminostilbene", "NSC 169867", "MeSH ID: D009888"], "SMILES": "C(CCN1CCN(CCO)CC1)N2C=3C(C=CC=4C2=CC=CC4)=CC=CC3", "physical_data": {"Molecular Weight": "363.50", "Molecular Formula": "C23H29N3O", "Melting Point": "100.5 \u00b0C"}}