{"cas_no": "315-37-7", "cn_name": "\u5e9a\u9178\u777e\u916e", "en_name": ["Testosterone enanthate", "Androst-4-en-3-one, 17-[(1-oxoheptyl)oxy]-, (17\u03b2)-", "Testosterone, heptanoate", "Heptanoic acid, ester with testosterone", "(17\u03b2)-17-[(1-Oxoheptyl)oxy]androst-4-en-3-one", "Reposo TMD", "Testosterone enanthate", "Testosterone oenanthate", "Delatestryl", "Testosterone 17-enanthate", "17\u03b2-Enanthoxyandrost-4-en-3-one", "Androtardyl", "Testosterone heptylate", "4-Androsten-3-one 17\u03b2-enanthate", "17\u03b2-Hydroxyandrost-4-en-3-one enanthate", "Testenate", "Testo-Enant", "Everone", "NSC 17591", "Testinon", "Andro LA 200", "Primoteston-Depot", "Enarmone depot", "Jenasteron", "4-Androstene-17\u03b2-ol-3-one enanthate"], "SMILES": "CC12C3C(C4C(C)(CC3)C(OC(CCCCCC)=O)CC4)CCC1=CC(=O)CC2", "physical_data": {"Molecular Weight": "400.59", "Molecular Formula": "C26H40O3", "Melting Point": "37 \u00b0C"}}