{"cas_no": "31508-00-6", "cn_name": "\u4e94\u6c2f\u8054\u82ef", "en_name": ["PCB 118", "1,1\u2032-Biphenyl, 2,3\u2032,4,4\u2032,5-pentachloro-", "Biphenyl, 2,3\u2032,4,4\u2032,5-pentachloro-", "2,3\u2032,4,4\u2032,5-Pentachloro-1,1\u2032-biphenyl", "2,3\u2032,4,4\u2032,5-Pentachlorobiphenyl", "3,4,2\u2032,4\u2032,5\u2032-Pentachlorobiphenyl", "2,4,5,3\u2032,4\u2032-Pentachlorobiphenyl", "PCB 118", "CB 118", "2,3\u2032,4,4\u2032,5-PeCB", "CDE-99"], "SMILES": "ClC1=C(C2=CC(Cl)=C(Cl)C=C2)C=C(Cl)C(Cl)=C1", "physical_data": {"Molecular Weight": "326.43", "Molecular Formula": "C12H5Cl5", "Boiling Point": "195-220 \u00b0C", "Melting Point": "111 \u00b0C", "Density": "1.5 g/cm\u00b3 @ Temp: 65 \u00b0C"}}