{"cas_no": "31508-44-8", "cn_name": "\u0391-\u7532\u57fa\u82ef\u4e59\u9178\u7532\u916f", "en_name": ["Methyl \u03b1-methylbenzeneacetate", "Benzeneacetic acid, \u03b1-methyl-, methyl ester", "Hydratropic acid, methyl ester", "Methyl \u03b1-methylbenzeneacetate", "Methyl 2-phenylpropionate", "Methyl \u03b1-methylphenylacetate", "Methyl 2-phenylpropanoate", "Methyl \u03b1-phenylpropionate", "(\u00b1)-2-Phenylpropionic acid methyl ester", "Methyl (\u00b1)-hydratropate", "(\u00b1)-Methyl 2-phenylpropanoate", "\u03b1-methylbenzeneacetic acid methyl ester", "Methyl 2-methyl-2-phenylacetate", "2-Phenylpropanoic acid methyl ester"], "SMILES": "C(C(OC)=O)(C)C1=CC=CC=C1", "physical_data": {"Molecular Weight": "164.20", "Molecular Formula": "C10H12O2", "Boiling Point": "98-100 \u00b0C @ Press: 12 Torr"}}