{"cas_no": "3150-24-1", "cn_name": "4-\u785d\u57fa\u82ef\u57fa-D-\u5421\u5583\u8461\u7cd6\u82f7", "en_name": ["p-Nitrophenyl \u03b2-D-galactopyranoside", "\u03b2-D-Galactopyranoside, 4-nitrophenyl", "Galactopyranoside, p-nitrophenyl, \u03b2-D-", "4-Nitrophenyl-\u03b2-D-galactopyranoside", "p-Nitrophenyl \u03b2-D-galactopyranoside", "p-Nitrophenyl \u03b2-D-galactoside", "4-Nitrophenyl galactoside", "p-Nitrophenol galactoside", "p-Nitrophenyl-\u03b2-galactopyranoside", "PNPG", "NSC 89287"], "SMILES": "O(C1C(O)C(O)C(O)C(CO)O1)C2=CC=C(N(=O)=O)C=C2", "physical_data": {"Molecular Weight": "301.25", "Molecular Formula": "C12H15NO8", "Melting Point": "181-182 \u00b0C"}}