{"cas_no": "3150-25-2", "cn_name": "3-\u785d\u57fa\u82ef \u0392-D-\u5421\u5583\u534a\u4e73\u7cd6\u82f7", "en_name": ["3-Nitrophenyl \u03b2-D-galactopyranoside", "\u03b2-D-Galactopyranoside, 3-nitrophenyl", "Galactopyranoside, m-nitrophenyl, \u03b2-D-", "Galactopyranoside, m-nitrophenyl", "3-Nitrophenyl \u03b2-D-galactopyranoside", "m-Nitrophenyl \u03b2-D-galactopyranoside", "m-Nitrophenyl \u03b2-D-galactoside", "m-Nitrophenyl \u03b2-galactoside"], "SMILES": "O(C1C(O)C(O)C(O)C(CO)O1)C2=CC(N(=O)=O)=CC=C2", "physical_data": {"Molecular Weight": "301.25", "Molecular Formula": "C12H15NO8", "Melting Point": "181.5-183.5 \u00b0C"}}