{"cas_no": "3150-15-0", "cn_name": "\u7532\u57fa2,3-\u8131\u6c34-4,6-O-\u4e9a\u82c4\u57fa-\u0391-D-\u5421\u5583\u7cd6\u82f7", "en_name": ["Methyl 2,3-anhydro-4,6-O-(phenylmethylene)-\u03b1-D-allopyranoside", "\u03b1-D-Allopyranoside, methyl 2,3-anhydro-4,6-O-(phenylmethylene)-", "Allopyranoside, methyl 2,3-anhydro-4,6-O-benzylidene-, \u03b1-D-", "Oxireno[4,5]pyrano[3,2-d][1,3]dioxin, \u03b1-D-allopyranoside deriv.", "Methyl 2,3-anhydro-4,6-O-(phenylmethylene)-\u03b1-D-allopyranoside", "Methyl 2,3-anhydro-4,6-O-benzylidene-\u03b1-D-allopyranoside", "NSC 41444"], "SMILES": "O(C)C1C2C(C3C(O1)COC(O3)C4=CC=CC=C4)O2", "physical_data": {"Molecular Weight": "264.27", "Molecular Formula": "C14H16O5", "Melting Point": "199-200 \u00b0C"}}