{"cas_no": "31519-22-9", "cn_name": "1,4-\u4e8c\u7f9f\u57fa-2-\u8418\u7532\u9178", "en_name": ["1,4-Dihydroxy-2-naphthoic acid", "2-Naphthalenecarboxylic acid, 1,4-dihydroxy-", "2-Naphthoic acid, 1,4-dihydroxy-", "1,4-Dihydroxy-2-naphthalenecarboxylic acid", "1,4-Dihydroxy-2-naphthoate", "1,4-Dihydroxy-2-naphthoic acid", "1,4-Dihydroxy-2-carboxy naphthoic acid"], "SMILES": "OC=1C2=C(C(O)=CC1C(O)=O)C=CC=C2", "physical_data": {"Molecular Weight": "204.18", "Molecular Formula": "C11H8O4", "Melting Point": "200 \u00b0C (decomp)"}}