{"cas_no": "31515-43-2", "cn_name": "2-\u785d\u57fa\u4e8c\u82ef\u781c", "en_name": ["2-Nitrophenyl phenyl sulfone", "Benzene, 1-nitro-2-(phenylsulfonyl)-", "Sulfone, o-nitrophenyl phenyl", "1-Nitro-2-(phenylsulfonyl)benzene", "2-Nitrophenyl phenyl sulfone", "o-Nitrophenyl phenyl sulfone", "NSC 624231", "1-(Benzenesulfonyl)-2-nitrobenzene"], "SMILES": "S(=O)(=O)(C1=C(N(=O)=O)C=CC=C1)C2=CC=CC=C2", "physical_data": {"Molecular Weight": "263.27", "Molecular Formula": "C12H9NO4S", "Melting Point": "147 \u00b0C"}}