{"cas_no": "31529-46-1", "cn_name": "1-\u6c28\u57fa-2-\u7532\u57fa\u5432\u54da\u5549", "en_name": ["1-Amino-2-methylindoline", "1H-Indol-1-amine, 2,3-dihydro-2-methyl-", "Indoline, 1-amino-2-methyl-", "2,3-Dihydro-2-methyl-1H-indol-1-amine", "1-Amino-2-methylindoline", "N-Amino-2-methylindoline", "1-Amino-2,3-dihydro-2-methylindole", "2-Methyl-2,3-dihydroindol-1-amine", "2-Methylindolin-1-amine", "2-Methyl-2,3-dihydro-1H-indol-1-amine"], "SMILES": "NN1C=2C(CC1C)=CC=CC2", "physical_data": {"Molecular Weight": "148.21", "Molecular Formula": "C9H12N2", "Melting Point": "41 \u00b0C"}}