{"cas_no": "31528-46-8", "cn_name": "6, 7-\u4e8c\u8131\u6c22\u7094\u8bfa\u916e", "en_name": ["(17\u03b1)-17-Hydroxy-19-norpregna-4,6-dien-20-yn-3-one", "19-Norpregna-4,6-dien-20-yn-3-one, 17-hydroxy-, (17\u03b1)-", "19-Nor-17\u03b1-pregna-4,6-dien-20-yn-3-one, 17-hydroxy-", "(17\u03b1)-17-Hydroxy-19-norpregna-4,6-dien-20-yn-3-one", "17\u03b1-Ethynyl-17\u03b2-hydroxyestra-4,6-dien-3-one", "6,7-Dehydronorethindrone"], "SMILES": "CC12C(C3C(CC1)C4C(C=C3)=CC(=O)CC4)CCC2(C#C)O", "physical_data": {"Molecular Weight": "296.40", "Molecular Formula": "C20H24O2", "Melting Point": "251-252 \u00b0C"}}