{"cas_no": "31524-62-6", "cn_name": "\u5f02\u8865\u9aa8\u8102\u9ec4\u916e", "en_name": ["Isobavachin", "4H-1-Benzopyran-4-one, 2,3-dihydro-7-hydroxy-2-(4-hydroxyphenyl)-8-(3-methyl-2-buten-1-yl)-, (2S)-", "4H-1-Benzopyran-4-one, 2,3-dihydro-7-hydroxy-2-(4-hydroxyphenyl)-8-(3-methyl-2-butenyl)-, (S)-", "Flavanone, 4\u2032,7-dihydro-8-(3-methyl-2-butenyl)-", "4H-1-Benzopyran-4-one, 2,3-dihydro-7-hydroxy-2-(4-hydroxyphenyl)-8-(3-methyl-2-butenyl)-, (2S)-", "(2S)-2,3-Dihydro-7-hydroxy-2-(4-hydroxyphenyl)-8-(3-methyl-2-buten-1-yl)-4H-1-benzopyran-4-one", "Isobavachin", "(2S)-7-Hydroxy-2-(4-hydroxyphenyl)-8-(3-methylbut-2-enyl)-2,3-dihydrochromen-4-one"], "SMILES": "C(C=C(C)C)C1=C2C(C(=O)CC(O2)C3=CC=C(O)C=C3)=CC=C1O", "physical_data": {"Molecular Weight": "324.37", "Molecular Formula": "C20H20O4", "Melting Point": "187-188 \u00b0C"}}