{"cas_no": "3153-44-4", "cn_name": "3-(4-\u7532\u6c27\u57fa\u82ef\u7532\u9170\u57fa)\u4e19\u9178", "en_name": ["4-Methoxy-\u03b3-oxobenzenebutanoic acid", "Benzenebutanoic acid, 4-methoxy-\u03b3-oxo-", "Propionic acid, 3-p-anisoyl-", "4-Methoxy-\u03b3-oxobenzenebutanoic acid", "3-p-Anisoylpropionic acid", "3-(4-Methoxybenzoyl)propionic acid", "3-(p-Methoxybenzoyl)propionic acid", "3-(4-Methoxybenzoyl)propanoic acid", "4-Oxo-4-(4-methoxyphenyl)butanoic acid", "\u03b2-(4-Methoxybenzoyl)propionic acid", "4-(4-Methoxyphenyl)-4-oxobutyric acid", "3-(p-Methoxybenzoyl)propanoic acid", "4-(4-Methoxyphenyl)-4-oxobutanoic acid", "NSC 12472", "4-(4-Methoxybenzoyl)propionic acid"], "SMILES": "C(CCC(O)=O)(=O)C1=CC=C(OC)C=C1", "physical_data": {"Molecular Weight": "208.21", "Molecular Formula": "C11H12O4", "Melting Point": "148-150 \u00b0C"}}