{"cas_no": "3153-55-7", "cn_name": "O-\u53bb\u7532\u8377\u53f6\u78b1", "en_name": ["(-)-Nornuciferine", "4H-Dibenzo[de,g]quinolin-2-ol, 5,6,6a,7-tetrahydro-1-methoxy-6-methyl-, (6aR)-", "6a\u03b2-Aporphin-2-ol, 1-methoxy-", "4H-Dibenzo[de,g]quinolin-2-ol, 5,6,6a,7-tetrahydro-1-methoxy-6-methyl-, (R)-", "Asimilobine, N-methyl-", "(6aR)-5,6,6a,7-Tetrahydro-1-methoxy-6-methyl-4H-dibenzo[de,g]quinolin-2-ol", "O-Nornuciferine", "N-Methylasimilobine", "(-)-Nornuciferine", "(-)-N-Methylasimilobine", "N-Methylasimilobin"], "SMILES": "O(C)C1=C2C=3C(CC=4C2=CC=CC4)N(C)CCC3C=C1O", "physical_data": {"Molecular Weight": "281.35", "Molecular Formula": "C18H19NO2", "Melting Point": "195-197 \u00b0C"}}