{"cas_no": "3153-37-5", "cn_name": "4-\u6c2f\u4e01\u9178\u7532\u916f", "en_name": ["Butanoic acid, 4-chloro-, methyl ester", "Butanoic acid, 4-chloro-, methyl ester", "Butyric acid, 4-chloro-, methyl ester", "Methyl 4-chlorobutyrate", "Methyl 4-chlorobutanoate", "\u03b3-Chlorobutyric acid methyl ester", "Methyl \u03c9-chlorobutyrate", "4-Chlorobutyric acid methyl ester", "Methyl \u03b3-chlorobutyrate", "4-Chlorobutanoic acid methyl ester", "NSC 66271"], "SMILES": "C(CCCCl)(OC)=O", "physical_data": {"Molecular Weight": "136.58", "Molecular Formula": "C5H9ClO2", "Boiling Point": "175 \u00b0C", "Density": "1.11624 g/cm\u00b3 @ Temp: 25.00 \u00b0C"}}