{"cas_no": "3153-36-4", "cn_name": "\u4e59\u57fa4-\u6c2f\u4e01\u9178\u916f", "en_name": ["Ethyl 4-chlorobutyrate", "Butanoic acid, 4-chloro-, ethyl ester", "Butyric acid, 4-chloro-, ethyl ester", "Ethyl 4-chlorobutyrate", "Ethyl 4-chlorobutanoate", "Ethyl \u03b3-chlorobutyrate", "Ethyl \u03c9-chlorobutyrate", "4-Chlorobutyric acid ethyl ester", "NSC 81215"], "SMILES": "C(CCCCl)(OCC)=O", "physical_data": {"Molecular Weight": "150.60", "Molecular Formula": "C6H11ClO2", "Boiling Point": "184 \u00b0C"}}