{"cas_no": "3153-26-2", "cn_name": "\u4e59\u9170\u4e19\u916e\u6c27\u9492", "en_name": ["Vanadyl acetylacetonate", "Vanadium, oxobis(2,4-pentanedionato-\u03baO2,\u03baO4)-, (SP-5-21)-", "Vanadium, oxobis(2,4-pentanedionato)-", "Vanadium, oxobis(2,4-pentanedionato-O,O\u2032)-, (SP-5-21)-", "Vanadium, oxobis(2,4-pentanedionato-\u03baO,\u03baO\u2032)-, (SP-5-21)-", "(SP-5-21)-Oxobis(2,4-pentanedionato-\u03baO2,\u03baO4)vanadium", "Vanadyl acetylacetonate", "Bis(acetylacetonato)oxovanadium(IV)", "Vanadyl bis(2,4-pentanedionate)", "Vanadyl bis(acetylacetonate)", "Bis(acetylacetonato)oxyvanadium", "Oxobis(acetylacetonato)vanadium", "Oxobis(2,4-pentanedionato)vanadium", "Bis(acetylacetonato)oxovanadium", "Bis(2,4-pentanedionato)oxovanadium(IV)", "Bis(2,4-pentanedionato)oxovanadium", "Oxovanadium(II) acetylacetonate", "NSC 116105", "NSC 4659", "NSC 52327", "Nacem Vanadyl", "50D", "VoAA", "Vanadium(IV) bis(acetylacetonato)(oxo)", "Vanadium(IV) oxide bis(2,4-pentanedionate)", "Vanadium oxide acetylacetonate", "Bis(2,4-pentanedionato)vanadium(IV) oxide"], "SMILES": "O=[V+2]12(O=C(C)[CH-]C(C)=O1)O=C(C)[CH-]C(C)=O2", "physical_data": {"Molecular Weight": "", "Molecular Formula": "C10H14O5V", "Melting Point": "243-246 \u00b0C (decomp)", "Density": "1.52-1.74 g/cm\u00b3"}}