{"cas_no": "3154-51-6", "cn_name": "N-\u7532\u9170\u57fa\u7518\u6c28\u9178\u4e59\u916f", "en_name": ["Glycine, N-formyl-, ethyl ester", "Glycine, N-formyl-, ethyl ester", "Ethyl N-formylglycinate", "N-Formylglycine ethyl ester", "Ethyl formamidoacetate", "Ethyl formylaminoacetate", "NSC 14440", "Dephenethylleccinine A", "2-Formylaminoacetic acid ethyl ester"], "SMILES": "C(CNC=O)(OCC)=O", "physical_data": {"Molecular Weight": "131.13", "Molecular Formula": "C5H9NO3", "Boiling Point": "119-120 \u00b0C @ Press: 1 Torr"}}