{"cas_no": "31543-75-6", "cn_name": "2,4-\u4e8c\u6eb4\u7532\u82ef", "en_name": ["2,4-Dibromo-1-methylbenzene", "Benzene, 2,4-dibromo-1-methyl-", "Toluene, 2,4-dibromo-", "2,4-Dibromo-1-methylbenzene", "o,p-Dibromotoluene", "2,4-Dibromotoluene", "NSC 139877"], "SMILES": "BrC1=C(C)C=CC(Br)=C1", "physical_data": {"Molecular Weight": "249.93", "Molecular Formula": "C7H6Br2", "Boiling Point": "103-104 \u00b0C @ Press: 11 Torr", "Melting Point": "-9.7 \u00b0C", "Density": "1.8176 g/cm\u00b3 @ Temp: 25 \u00b0C"}}