{"cas_no": "31542-63-9", "cn_name": "1,3-\u4e8c\u4e19\u57fa-7-\u7532\u57fa\u9ec4\u560c\u5464", "en_name": ["1,3-Dipropyl-7-methylxanthine", "1H-Purine-2,6-dione, 3,7-dihydro-7-methyl-1,3-dipropyl-", "Heteroxanthine, 1,3-dipropyl-", "3,7-Dihydro-7-methyl-1,3-dipropyl-1H-purine-2,6-dione", "7-Methyl-1,3-dipropylxanthine", "1,3-Dipropylheteroxanthine", "SC 5192", "1,3-Dipropyl-7-methylxanthine"], "SMILES": "C(CC)N1C2=C(C(=O)N(CCC)C1=O)N(C)C=N2", "physical_data": {"Molecular Weight": "250.30", "Molecular Formula": "C12H18N4O2", "Melting Point": "114-116 \u00b0C"}}