{"cas_no": "3155-16-6", "cn_name": "\u8349\u9178\u4e8c\u82ef\u916f", "en_name": ["1,2-Diphenyl ethanedioate", "Ethanedioic acid, 1,2-diphenyl ester", "Oxalic acid, diphenyl ester", "Ethanedioic acid, diphenyl ester", "1,2-Diphenyl ethanedioate", "Diphenyl oxalate", "NSC 400575"], "SMILES": "O(C(C(OC1=CC=CC=C1)=O)=O)C2=CC=CC=C2", "physical_data": {"Molecular Weight": "242.23", "Molecular Formula": "C14H10O4", "Melting Point": "126 \u00b0C"}}