{"cas_no": "3155-48-4", "cn_name": "\u9189\u6912\u7d20", "en_name": ["5,6-Dihydro-4-methoxy-6-[(1E)-2-phenylethenyl]-2H-pyran-2-one", "2H-Pyran-2-one, 5,6-dihydro-4-methoxy-6-[(1E)-2-phenylethenyl]-", "2H-Pyran-2-one, 5,6-dihydro-4-methoxy-6-(2-phenylethenyl)-, (E)-(\u00b1)-", "2H-Pyran-2-one, 5,6-dihydro-4-methoxy-6-styryl-, (\u00b1)-", "5,6-Dihydro-4-methoxy-6-[(1E)-2-phenylethenyl]-2H-pyran-2-one", "DL-Kawain", "(\u00b1)-Kawain", "dl-Kavain", "2H-Pyran-2-one, 5,6-dihydro-4-methoxy-6-(2-phenylethenyl)-, (E)-", "(\u00b1)-Kavain", "DL-Kavain"], "SMILES": "C(=CC1=CC=CC=C1)C2CC(OC)=CC(=O)O2", "physical_data": {"Molecular Weight": "230.26", "Molecular Formula": "C14H14O3", "Melting Point": "146-147 \u00b0C"}}