{"cas_no": "31558-40-4", "cn_name": "4-\u6eb4-3,5-\u4e8c\u7532\u6c27\u57fa\u82ef\u7532\u919b", "en_name": ["4-Bromo-3,5-dimethoxybenzaldehyde", "Benzaldehyde, 4-bromo-3,5-dimethoxy-", "4-Bromo-3,5-dimethoxybenzaldehyde", "3,5-Dimethoxy-4-bromobenzaldehyde"], "SMILES": "O(C)C1=C(Br)C(OC)=CC(C=O)=C1", "physical_data": {"Molecular Weight": "245.07", "Molecular Formula": "C9H9BrO3", "Melting Point": "110-111 \u00b0C"}}