{"cas_no": "31551-45-8", "cn_name": "2,7-\u4e8c\u785d\u57fa-9-\u82b4\u916e", "en_name": ["2,7-Dinitro-9-fluorenone", "9H-Fluoren-9-one, 2,7-dinitro-", "Fluoren-9-one, 2,7-dinitro-", "2,7-Dinitro-9H-fluoren-9-one", "2,7-Dinitro-9-fluorenone", "2,7-Dinitrofluorenone", "9-Oxo-2,7-dinitrofluorene", "NSC 86561"], "SMILES": "O=C1C=2C(C=3C1=CC(N(=O)=O)=CC3)=CC=C(N(=O)=O)C2", "physical_data": {"Molecular Weight": "270.20", "Molecular Formula": "C13H6N2O5", "Melting Point": "292-295 \u00b0C"}}