{"cas_no": "31575-75-4", "cn_name": "2-\u82c4\u6c27\u57fa\u6eb4\u82ef", "en_name": ["1-Benzyloxy-2-bromobenzene", "Benzene, 1-bromo-2-(phenylmethoxy)-", "Ether, benzyl o-bromophenyl", "1-Bromo-2-(phenylmethoxy)benzene", "Benzyl 2-bromophenyl ether", "1-Benzyloxy-2-bromobenzene", "2-Bromophenol benzyl ether", "2-Benzyloxy-1-bromobenzene", "2-(Benzyloxy)bromobenzene", "2-Bromophenyl benzyl ether", "1-Bromo-2-benzyloxybenzene"], "SMILES": "O(CC1=CC=CC=C1)C2=C(Br)C=CC=C2", "physical_data": {"Molecular Weight": "263.13", "Molecular Formula": "C13H11BrO", "Boiling Point": "100 \u00b0C @ Press: 0.06 Torr"}}