{"cas_no": "31575-93-6", "cn_name": "\u767d\u82b7\u5c5e\u8111", "en_name": ["(+)-Heraclenol", "7H-Furo[3,2-g][1]benzopyran-7-one, 9-[(2R)-2,3-dihydroxy-3-methylbutoxy]-", "7H-Furo[3,2-g][1]benzopyran-7-one, 9-(2,3-dihydroxy-3-methylbutoxy)-, stereoisomer", "7H-Furo[3,2-g][1]benzopyran-7-one, 9-(2,3-dihydroxy-3-methylbutoxy)-, (R)-", "5-Benzofuranacrylic acid, 7-(2,3-dihydroxy-3-methylbutoxy)-6-hydroxy-, \u03b4-lactone", "9-[(2R)-2,3-Dihydroxy-3-methylbutoxy]-7H-furo[3,2-g][1]benzopyran-7-one", "Komalin", "Prangenin hydrate", "Heraclenol", "Heraclenin oxide", "(+)-Heraclenol", "NSC 306227"], "SMILES": "O(CC(C(C)(C)O)O)C=1C2=C(C=C3C1OC=C3)C=CC(=O)O2", "physical_data": {"Molecular Weight": "304.29", "Molecular Formula": "C16H16O6", "Melting Point": "129-130 \u00b0C"}}