{"cas_no": "31576-33-7", "cn_name": "4-\u5f02\u4e01\u6c27\u57fa-2-\u4e01\u916e", "en_name": ["4-(2-Methylpropoxy)-2-butanone", "2-Butanone, 4-(2-methylpropoxy)-", "2-Butanone, 4-isobutoxy-", "4-(2-Methylpropoxy)-2-butanone"], "SMILES": "C(OCC(C)C)CC(C)=O", "physical_data": {"Molecular Weight": "144.21", "Molecular Formula": "C8H16O2", "Boiling Point": "64-65 \u00b0C @ Press: 11 Torr", "Density": "0.8763 g/cm\u00b3 @ Temp: 20 \u00b0C"}}