{"cas_no": "31575-35-6", "cn_name": "2-\u6c1f\u5627\u5576", "en_name": ["2-Fluoropyrimidine", "Pyrimidine, 2-fluoro-", "2-Fluoropyrimidine"], "SMILES": "FC=1N=CC=CN1", "physical_data": {"Molecular Weight": "98.08", "Molecular Formula": "C4H3FN2", "Melting Point": "17-18 \u00b0C"}}