{"cas_no": "31570-04-4", "cn_name": "\u6297\u6c27\u5242168", "en_name": ["Tris(2,4-di-tert-butylphenyl) phosphite", "Phenol, 2,4-bis(1,1-dimethylethyl)-, 1,1\u2032,1\u2032\u2032-phosphite", "Phenol, 2,4-di-tert-butyl-, phosphite (3:1)", "Phenol, 2,4-bis(1,1-dimethylethyl)-, phosphite (3:1)", "Hostanox TM-PAR 24", "Irgafos 168", "Irganox 168", "Phosphite 168", "Hostanox VP-PAR 24", "Mark 2112", "Alkanox 240", "Naugard 524", "Sumilizer P 16", "Tris(2,4-di-tert-butylphenyl) phosphite", "Mark 2112E", "Phos 6", "AO 2", "PKY 168", "ADK Stab 2112", "B 311", "Tomiphos 202", "Doverphos S 480", "P 16", "PL 10", "PL 10 (stabilizer)", "Ultranox 668", "Cyanox 2704", "A 2112", "P 48", "P 48 (stabilizer)", "JP 650", "RA 168", "RA 168 (antioxidant)", "Chinox 168", "Hostanox PAR 24", "ADK 2112", "Antioxidant 168", "Tris(2,4-tert-butylphenyl) phosphite", "ADK Stab 2112RG", "AS 2112", "Irgafos F", "2,4-Bis(1,1-dimethylethyl)phenol phosphite (3:1)", "Tris(2,4-di-tert-butylphenoxy)phosphine", "Irgafos 168FF", "Songnox 1200", "AT 168", "Songnox 1680", "ADK Stab AS 2112", "Tri(2,4-di-t-butylphenyl) phosphite", "B 168", "AO 200", "Pronox S", "Everfos 168", "KY 168", "PW 225", "JY 168", "Alkanox P 240", "Tri(2,4-tert-butylphenyl) phosphite", "Tris(2,4-di-tert-butylphenyl) phosphite", "Antioxidant 2112", "Tri(2,4-di-tert-butylphenyl) phosphite", "Richfos 168", "Antioxidant 1680", "Sonox 168", "Thanox 168", "IRG 168", "Irgafos P 168", "Finox 168", "Tris(2,4-di-tert-butyphenyl) phosphite", "Chemnox 168", "Songnox 1680PX", "Quent 68", "AO 168", "SN 1680", "ZY 168", "SN 168", "D 168", "Tris [2,4-di-tert-butylphenyl] phosphite", "Heat Stabilizer 168", "Antioxidant 240", "Tris(2,4-di-t-butylphenyl)phosphite", "IG 168", "Irgafox 168", "TH 168", "IR 168", "Rianox 168", "Kinox 68G", "Antioxidant 176", "Antioxidant TBP", "I 168", "PS 68 (stabilizer)", "PS 68", "Sabostab PS 68", "ADK Stab AO 2112", "Everfos 168GF", "A 0168", "Sonox 168T", "Jyanox 168", "Irganox P 168", "AO 2112", "Evernox 168GF"], "SMILES": "C(C)(C)(C)C1=C(OP(OC2=C(C(C)(C)C)C=C(C(C)(C)C)C=C2)OC3=C(C(C)(C)C)C=C(C(C)(C)C)C=C3)C=CC(C(C)(C)C)=C1", "physical_data": {"Molecular Weight": "646.92", "Molecular Formula": "C42H63O3P", "Melting Point": "182-186 \u00b0C"}}