{"cas_no": "31582-45-3", "cn_name": "2-\u7532\u57fa-2-\u4e19\u70ef\u9178-2,2,6,6-\u56db\u7532\u57fa-4-\u54cc\u5576\u57fa\u916f", "en_name": ["4-(Methacryloyloxy)-2,2,6,6-tetramethylpiperidine", "2-Propenoic acid, 2-methyl-, 2,2,6,6-tetramethyl-4-piperidinyl ester", "Methacrylic acid, 2,2,6,6-tetramethyl-4-piperidyl ester", "4-(Methacryloyloxy)-2,2,6,6-tetramethylpiperidine", "2,2,6,6-Tetramethyl-4-piperidinyl methacrylate", "2,2,6,6-Tetramethyl-4-piperidyl methacrylate", "2,2,6,6-Tetramethyl-4-piperidinyl 2-methyl-2-propenoate", "Fancryl FA 712HM", "Mark LA 87", "ADK Stab LA 87", "2,2,6,6-Tetramethylpiperidyl methacrylate", "LA 87", "FA 711H", "TAA-ol methacrylate", "FA 711HA", "FA 712HM", "Adeka Stab LA 87"], "SMILES": "CC1(C)NC(C)(C)CC(OC(C(C)=C)=O)C1", "physical_data": {"Molecular Weight": "225.33", "Molecular Formula": "C13H23NO2", "Melting Point": "60-62 \u00b0C"}}