{"cas_no": "3158-85-8", "cn_name": "10,11-\u4e8c\u6c22\u4e8c\u82ef\u5e76[B,F][1,4]\u5641\u6742-11-\u916e", "en_name": ["Dibenz[b,f][1,4]oxazepin-11(10H)-one", "Dibenz[b,f][1,4]oxazepin-11(10H)-one", "o-(o-Aminophenoxy)benzoic acid lactam", "Benzoic acid, 2-(2-aminophenoxy)-, lactam", "Dibenzo[b,f][1,4]oxazepin-11(10H)-one"], "SMILES": "O=C1C=2C(OC=3C(N1)=CC=CC3)=CC=CC2", "physical_data": {"Molecular Weight": "211.22", "Molecular Formula": "C13H9NO2", "Melting Point": "222-224 \u00b0C"}}