{"cas_no": "3158-91-6", "cn_name": "2-\u6c2f\u4e8c\u82ef\u5e76[b,f][1,4]\u6c27\u6c2e\u6742\u5353-11(10H)-\u916e", "en_name": ["2-Chlorodibenz[b,f][1,4]oxazepin-11(10H)-one", "Dibenz[b,f][1,4]oxazepin-11(10H)-one, 2-chloro-", "2-Chlorodibenz[b,f][1,4]oxazepin-11(10H)-one"], "SMILES": "O=C1C=2C(OC=3C(N1)=CC=CC3)=CC=C(Cl)C2", "physical_data": {"Molecular Weight": "245.66", "Molecular Formula": "C13H8ClNO2", "Melting Point": "242-244 \u00b0C"}}