{"cas_no": "3158-56-3", "cn_name": "5-\u5341\u4e94\u70f7\u57fa-1,3-\u82ef\u4e8c\u915a", "en_name": ["5-Pentadecylresorcinol", "1,3-Benzenediol, 5-pentadecyl-", "Resorcinol, 5-pentadecyl-", "5-Pentadecyl-1,3-benzenediol", "5-Pentadecylresorcinol", "5-(n-Pentadecyl)resorcinol", "Adipostatin A", "3-n-Pentadecyl-5-hydroxyphenol", "NSC 776", "Hydrogenated cardol"], "SMILES": "C(CCCCCCCCCCCCCC)C1=CC(O)=CC(O)=C1", "physical_data": {"Molecular Weight": "320.51", "Molecular Formula": "C21H36O2", "Melting Point": "89-90 \u00b0C"}}