{"cas_no": "3158-26-7", "cn_name": "\u6b63\u8f9b\u57fa\u5f02\u6c30\u9178\u916f", "en_name": ["Octyl isocyanate", "Octane, 1-isocyanato-", "Isocyanic acid, octyl ester", "1-Isocyanatooctane", "Octyl isocyanate", "n-Octyl isocyanate", "1-Octyl isocyanate"], "SMILES": "C(CCCCC)CCN=C=O", "physical_data": {"Molecular Weight": "155.24", "Molecular Formula": "C9H17NO", "Boiling Point": "94-95 \u00b0C @ Press: 18 Torr"}}