{"cas_no": "31594-45-3", "cn_name": "2-\u4e59\u6c27\u57fa-5-\u785d\u57fa\u5421\u5576", "en_name": ["2-Ethoxy-5-nitropyridine", "Pyridine, 2-ethoxy-5-nitro-", "2-Ethoxy-5-nitropyridine", "NSC 165481"], "SMILES": "N(=O)(=O)C=1C=CC(OCC)=NC1", "physical_data": {"Molecular Weight": "168.15", "Molecular Formula": "C7H8N2O3", "Melting Point": "95 \u00b0C"}}