{"cas_no": "3159-07-7", "cn_name": "\u4e8c\u82ef\u5e76[b,f][1,4]\u786b\u6c2e\u6742\u5353-11-[10H]\u916e", "en_name": ["Dibenzo[b,f][1,4]thiazepin-11(10H)-one", "Dibenzo[b,f][1,4]thiazepin-11(10H)-one", "10,11-Dihydro-11-oxodibenz[b,f][1,4]thiazepine", "NSC 653252", "Dibenzo[b,f][1,4]thiazepine-11(10-H)-one", "10,11-Dihydrodibenzo[b,f][1,4]thiazepin-11-one", "dibenzo[b,f][1,4]thiazepin-11(10H)-one", "10,11-Dihydro-11-oxodibenzo[b,f][1,4]thiazepine"], "SMILES": "O=C1C=2C(SC=3C(N1)=CC=CC3)=CC=CC2", "physical_data": {"Molecular Weight": "227.28", "Molecular Formula": "C13H9NOS", "Melting Point": "257-259 \u00b0C"}}