{"cas_no": "31599-60-7", "cn_name": "1,2-\u4e8c\u7532\u57fa-3-\u7898\u82ef", "en_name": ["1-Iodo-2,3-dimethylbenzene", "Benzene, 1-iodo-2,3-dimethyl-", "o-Xylene, 3-iodo-", "1-Iodo-2,3-dimethylbenzene", "3-Iodo-o-xylene", "1,2-Dimethyl-3-iodobenzene", "3-Iodo-1,2-dimethylbenzene", "2,3-Dimethyl-1-iodobenzene", "2,3-Dimethyliodobenzene"], "SMILES": "CC1=C(C)C=CC=C1I", "physical_data": {"Molecular Weight": "232.06", "Molecular Formula": "C8H9I", "Boiling Point": "80-82 \u00b0C @ Press: 2 Torr"}}