{"cas_no": "31599-61-8", "cn_name": "3,4-\u4e8c\u7532\u57fa\u7898\u82ef", "en_name": ["1-Iodo-3,4-dimethylbenzene", "Benzene, 4-iodo-1,2-dimethyl-", "o-Xylene, 4-iodo-", "4-Iodo-1,2-dimethylbenzene", "4-Iodo-o-xylene", "1,2-Dimethyl-4-iodobenzene", "1-Iodo-3,4-dimethylbenzene", "3,4-Dimethyliodobenzene", "3,4-Dimethylphenyl iodide", "3,4-Dimethyl-1-iodobenzene"], "SMILES": "CC1=C(C)C=CC(I)=C1", "physical_data": {"Molecular Weight": "232.06", "Molecular Formula": "C8H9I", "Boiling Point": "225 \u00b0C", "Melting Point": "228-235 \u00b0C"}}