{"cas_no": "316-68-7", "cn_name": "4-\u6c1f-1-\u8418\u4e59\u916e", "en_name": ["1-Acetyl-4-fluoronaphthalene", "Ethanone, 1-(4-fluoro-1-naphthalenyl)-", "1\u2032-Acetonaphthone, 4\u2032-fluoro-", "1-(4-Fluoro-1-naphthalenyl)ethanone", "1-Acetyl-4-fluoronaphthalene", "4-Fluoro-1-acetonaphthone", "1-(4-Fluoronaphthalen-1-yl)ethanone", "1-(4-Fluoronaphthalen-1-yl)ethan-1-one"], "SMILES": "C(C)(=O)C=1C2=C(C(F)=CC1)C=CC=C2", "physical_data": {"Molecular Weight": "188.20", "Molecular Formula": "C12H9FO", "Boiling Point": "138-140 \u00b0C @ Press: 4.5 Torr", "Melting Point": "38-39 \u00b0C", "Density": "1.1952 g/cm\u00b3 @ Temp: 14 \u00b0C"}}