{"cas_no": "316-46-1", "cn_name": "5-\u6c1f\u5c3f\u5627\u5576\u6838\u82f7", "en_name": ["5-Fluorouridine", "Uridine, 5-fluoro-", "5-Fluorouridine", "NSC 146604", "NSC 519273"], "SMILES": "OC1C(OC(CO)C1O)N2C(=O)NC(=O)C(F)=C2", "physical_data": {"Molecular Weight": "262.19", "Molecular Formula": "C9H11FN2O6", "Melting Point": "151-152 \u00b0C"}}