{"cas_no": "3160-91-6", "cn_name": "\u76d0\u9178\u5417\u5549\u80cd", "en_name": ["Moroxydine hydrochloride", "4-Morpholinecarboximidamide, N-(aminoiminomethyl)-, hydrochloride (1:1)", "4-Morpholinecarboxamidine, N-amidino-, monohydrochloride", "4-Morpholinecarboximidamide, N-(aminoiminomethyl)-, monohydrochloride", "Guanidine, 4-morpholinecarboximidoyl-, hydrochloride", "ABOB hydrochloride", "Spenitol", "Flumidin", "Virustat", "N1,N1-Anhydrobis(\u03b2-hydroxyethyl)biguanide hydrochloride", "4-(Amidinoamidino)morpholine hydrochloride", "Morpholinobiguanide monohydrochloride", "Morpholinobiguanide hydrochloride", "Virusmin", "Moroxydine hydrochloride", "Malinguchlorate", "Miejunging"], "SMILES": "C(NC(=N)N)(=N)N1CCOCC1.Cl", "physical_data": {"Molecular Weight": "", "Molecular Formula": "C6H13N5O.ClH", "Melting Point": "211-212 \u00b0C"}}