{"cas_no": "3160-59-6", "cn_name": "N-\u82c4\u6c27\u7fb0\u57fa-L-\u5f02\u4eae\u6c28\u9178", "en_name": ["N-[(Phenylmethoxy)carbonyl]-L-isoleucine", "L-Isoleucine, N-[(phenylmethoxy)carbonyl]-", "Isoleucine, N-carboxy-, N-benzyl ester, L-", "Isoleucine, N-carboxy-, N-benzyl ester", "N-[(Phenylmethoxy)carbonyl]-L-isoleucine", "N-Carbobenzoxy-L-isoleucine", "N-Benzyloxycarbonyl-L-isoleucine", "N-(Benzyloxycarbonyl)isoleucine", "N-(Carbobenzyloxy)isoleucine", "CBZ-L-Isoleucine", "N-Carbobenzyloxy-L-isoleucine", "((Benzyloxy)carbonyl)-L-isoleucine"], "SMILES": "C(C(CC)C)(NC(OCC1=CC=CC=C1)=O)C(O)=O", "physical_data": {"Molecular Weight": "265.30", "Molecular Formula": "C14H19NO4", "Melting Point": "44-46 \u00b0C"}}