{"cas_no": "3160-35-8", "cn_name": "\u5bf9\u7f9f\u57fa\u4e9a\u82c4\u57fa\u4e19\u916e", "en_name": ["(4-Hydroxybenzylidene)acetone", "3-Buten-2-one, 4-(4-hydroxyphenyl)-", "3-Buten-2-one, 4-(p-hydroxyphenyl)-", "4-(4-Hydroxyphenyl)-3-buten-2-one", "4-Hydroxybenzalacetone", "p-Hydroxybenzalacetone", "4-(p-Hydroxyphenyl)-3-buten-2-one", "4-(4\u2032-Hydroxyphenyl)-3-buten-2-one", "4-Hydroxystyryl methyl ketone", "(4-Hydroxybenzylidene)acetone", "NSC 26516", "4-(4-Hydroxyphenyl)but-3-ene-2-one"], "SMILES": "C(=CC(C)=O)C1=CC=C(O)C=C1", "physical_data": {"Molecular Weight": "162.19", "Molecular Formula": "C10H10O2", "Melting Point": "114-115 \u00b0C"}}