{"cas_no": "31601-41-9", "cn_name": "3-\u7532\u57fa-4-\u4e59\u9170\u6c28\u57fa\u82ef\u7532\u919a", "en_name": ["N-(4-Methoxy-2-methylphenyl)acetamide", "Acetamide, N-(4-methoxy-2-methylphenyl)-", "p-Acetanisidide, 2\u2032-methyl-", "N-(4-Methoxy-2-methylphenyl)acetamide", "3-Methyl-4-acetylaminoanisole", "4-Acetamido-3-methylanisole", "NSC 16606", "N-[2-Methyl-4-(methyloxy)phenyl]acetamide"], "SMILES": "N(C(C)=O)C1=C(C)C=C(OC)C=C1", "physical_data": {"Molecular Weight": "179.22", "Molecular Formula": "C10H13NO2", "Melting Point": "132-134 \u00b0C"}}