{"cas_no": "3160-40-5", "cn_name": "4-\u6c2f\u82ef\u4e9a\u7532\u57fa\u4e19\u916e", "en_name": ["4-(4-Chlorophenyl)-3-buten-2-one", "3-Buten-2-one, 4-(4-chlorophenyl)-", "3-Buten-2-one, 4-(p-chlorophenyl)-", "4-(4-Chlorophenyl)-3-buten-2-one", "(p-Chlorobenzylidene)acetone", "(4-Chlorobenzylidene)acetone", "4-(p-Chlorophenyl)-3-buten-2-one", "4-Chlorobenzalacetone", "p-Chlorobenzalacetone", "4\u2032-Chlorobenzylideneacetone", "NSC 87353", "1-(p-Chlorophenyl)-1-buten-3-one"], "SMILES": "C(=CC(C)=O)C1=CC=C(Cl)C=C1", "physical_data": {"Molecular Weight": "180.63", "Molecular Formula": "C10H9ClO", "Melting Point": "50-50.5 \u00b0C"}}