{"cas_no": "3160-37-0", "cn_name": "3,4-(\u4e9a\u7532\u4e8c\u6c27\u57fa)\u82ef\u4e9a\u7532\u57fa\u4e19\u916e", "en_name": ["Heliotropyl acetone", "3-Buten-2-one, 4-(1,3-benzodioxol-5-yl)-", "3-Buten-2-one, 4-[3,4-(methylenedioxy)phenyl]-", "4-(1,3-Benzodioxol-5-yl)-3-buten-2-one", "Piperonylideneacetone", "Heliotropyl acetone", "5-(3-Oxo-1-butenyl)-1,3-benzodioxole", "Piperonalacetone", "4-(3,4-Methylenedioxyphenyl)-3-buten-2-one", "3,4-(Methylenedioxy)benzalacetone", "NSC 217304", "NSC 407384"], "SMILES": "C(=CC(C)=O)C=1C=C2C(=CC1)OCO2", "physical_data": {"Molecular Weight": "190.20", "Molecular Formula": "C11H10O3", "Melting Point": "111 \u00b0C"}}