{"cas_no": "31621-87-1", "cn_name": "\u805a(\u6c27\u57fa\u7fb0\u57fa\u4e9a\u7532\u57fa\u6c27\u4e59\u70ef\u57fa)", "en_name": ["Polydioxanone", "Poly[oxy(1-oxo-1,2-ethanediyl)oxy-1,2-ethanediyl]", "Poly(oxycarbonylmethyleneoxyethylene)", "Polydioxanone", "Poly(1,4-dioxanone), SRU", "Poly(p-dioxanone), SRU", "Resomer X 210", "1,4-Dioxan-2-one homopolymer, sru", "p-Dioxanone homopolymer, sru", "\u03b2-Hydroxyethoxyacetic acid homopolymer, SRU", "PDS", "Resomer X 206S", "D 0-013"], "SMILES": "C(COCC*)(O*)=O", "physical_data": {"Molecular Weight": "", "Molecular Formula": "(C4H6O3)n", "Melting Point": "107.3 \u00b0C"}}