{"cas_no": "3162-96-7", "cn_name": "\u7532\u57fa-4,6-O-\u4e9a\u82c4\u57fa-\u0391-D-\u5421\u5583\u8461\u7cd6\u82f7", "en_name": ["Methyl 4,6-O-benzylidene-\u03b1-D-glucopyranoside", "\u03b1-D-Glucopyranoside, methyl 4,6-O-(phenylmethylene)-", "Glucopyranoside, methyl 4,6-O-benzylidene-, \u03b1-D-", "Pyrano[3,2-d]-1,3-dioxin, \u03b1-D-glucopyranoside deriv.", "Methyl 4,6-O-(phenylmethylene)-\u03b1-D-glucopyranoside", "Methyl 4,6-O-benzylidene-\u03b1-D-glucopyranoside", "NSC 1681"], "SMILES": "OC1C2C(OC(OC)C1O)COC(O2)C3=CC=CC=C3", "physical_data": {"Molecular Weight": "282.29", "Molecular Formula": "C14H18O6", "Melting Point": "161-162 \u00b0C"}}