{"cas_no": "3162-29-6", "cn_name": "3,4-\u4e9a\u7532\u4e8c\u6c27\u82ef\u4e59\u916e", "en_name": ["5-Acetyl-1,3-benzodioxole", "Ethanone, 1-(1,3-benzodioxol-5-yl)-", "Acetophenone, 3\u2032,4\u2032-(methylenedioxy)-", "Acetophenone, 3,4-methylenedioxy-", "1-(1,3-Benzodioxol-5-yl)ethanone", "Acetopiperone", "1-Acetyl-3,4-(methylenedioxy)benzene", "3\u2032,4\u2032-(Methylenedioxy)acetophenone", "3,4-(Methylenedioxy)phenyl methyl ketone", "Moskachan A", "5-Acetyl-1,3-benzodioxole", "NSC 21866", "1-(Benzodioxol-5-yl)ethanone", "1-(Benz[d][1,3]dioxol-5-yl)ethanone", "1-(1,3-Dioxaindan-5-yl)ethan-1-one", "1-(Benzo[d][1,3]dioxol-5-yl)ethanone", "1-(2H-1,3-Benzodioxol-5-yl)ethan-1-one"], "SMILES": "C(C)(=O)C=1C=C2C(=CC1)OCO2", "physical_data": {"Molecular Weight": "164.16", "Molecular Formula": "C9H8O3", "Boiling Point": "138-140 \u00b0C", "Melting Point": "85-86 \u00b0C"}}