{"cas_no": "3163-07-3", "cn_name": "4-\u785d\u57fa\u95f4\u82ef\u4e8c\u915a", "en_name": ["4-Nitroresorcinol", "1,3-Benzenediol, 4-nitro-", "Resorcinol, 4-nitro-", "4-Nitro-1,3-benzenediol", "4-Nitroresorcinol", "4-Nitro-3-hydroxyphenol", "5-Hydroxy-2-nitrophenol", "4-Nitroresorcin"], "SMILES": "N(=O)(=O)C1=C(O)C=C(O)C=C1", "physical_data": {"Molecular Weight": "155.11", "Molecular Formula": "C6H5NO4", "Boiling Point": "178 \u00b0C", "Melting Point": "122 \u00b0C"}}