{"cas_no": "31637-97-5", "cn_name": "\u4f9d\u6258\u8d1d\u7279", "en_name": ["Etofibrate", "3-Pyridinecarboxylic acid, 2-[2-(4-chlorophenoxy)-2-methyl-1-oxopropoxy]ethyl ester", "Nicotinic acid, 2-hydroxyethyl ester 2-(p-chlorophenoxy)-2-methylpropionate (ester)", "Etofibrate", "Lipo-Merz", "Ethofibrate", "Tricerol"], "SMILES": "O(C(C(OCCOC(=O)C=1C=CC=NC1)=O)(C)C)C2=CC=C(Cl)C=C2", "physical_data": {"Molecular Weight": "363.79", "Molecular Formula": "C18H18ClNO5", "Melting Point": "100 \u00b0C"}}