{"cas_no": "3163-15-3", "cn_name": "2-\u6c28\u57fa-1,3-\u82ef\u4e8c\u915a", "en_name": ["2-Aminoresorcinol", "1,3-Benzenediol, 2-amino-", "Resorcinol, 2-amino-", "2-Amino-1,3-benzenediol", "2-Aminoresorcinol", "2,6-Dihydroxyaniline", "2-Aminoresorcin", "2-Aminobenzene-1,3-diol"], "SMILES": "NC1=C(O)C=CC=C1O", "physical_data": {"Molecular Weight": "125.13", "Molecular Formula": "C6H7NO2", "Melting Point": "&gt;200 \u00b0C (decomp)"}}