{"cas_no": "31643-49-9", "cn_name": "4-\u785d\u57fa\u90bb\u82ef\u4e8c\u7532\u8148", "en_name": ["4-Nitrophthalonitrile", "1,2-Benzenedicarbonitrile, 4-nitro-", "Phthalonitrile, 4-nitro-", "4-Nitro-1,2-benzenedicarbonitrile", "4-Nitrophthalonitrile", "3,4-Dicyanonitrobenzene", "1,2-Dicyano-4-nitrobenzene", "4-Nitro-1,2-dicyanobenzene", "4-Nitro-o-benzenedinitrile", "NSC 123374", "4-Nitro-1,2-phthalonitrile", "3,4-Dicyano-1-nitrobenzene"], "SMILES": "C(#N)C1=C(C#N)C=CC(N(=O)=O)=C1", "physical_data": {"Molecular Weight": "173.13", "Molecular Formula": "C8H3N3O2", "Melting Point": "142 \u00b0C"}}