{"cas_no": "3164-13-4", "cn_name": "2-(4-\u6eb4\u82ef\u57fa)\u82ef\u5e76\u6076\u5511", "en_name": ["2-(4-Bromophenyl)benzoxazole", "Benzoxazole, 2-(4-bromophenyl)-", "Benzoxazole, 2-(p-bromophenyl)-", "2-(4-Bromophenyl)benzoxazole", "2-(p-Bromophenyl)benzoxazole", "2-(4-Bromophenyl)-1,3-benzoxazole", "2-(4-Bromophenyl)benzo[d]oxazole"], "SMILES": "BrC1=CC=C(C2=NC=3C(O2)=CC=CC3)C=C1", "physical_data": {"Molecular Weight": "274.11", "Molecular Formula": "C13H8BrNO", "Melting Point": "158-159 \u00b0C"}}