{"cas_no": "31645-35-9", "cn_name": "\u7532\u57fa\u4e19\u70ef\u9178-9-\u84bd\u7532\u916f", "en_name": ["9-Anthrylmethyl methacrylate", "2-Propenoic acid, 2-methyl-, 9-anthracenylmethyl ester", "Methacrylic acid, 9-anthrylmethyl ester", "9-Anthracenemethanol, methacrylate", "9-Anthrylmethyl methacrylate", "9-(Methacryloyloxymethyl)anthracene", "9-Anthracenylmethyl methacrylate"], "SMILES": "C(OC(C(C)=C)=O)C=1C2=C(C=C3C1C=CC=C3)C=CC=C2", "physical_data": {"Molecular Weight": "276.33", "Molecular Formula": "C19H16O2", "Melting Point": "85-86.5 \u00b0C"}}