{"cas_no": "31645-39-3", "cn_name": "\u5e15\u5229\u4f10\u7c73", "en_name": ["N,N\u2032-Bis(2-chloroethyl)phosphorodiamidic acid", "Phosphorodiamidic acid, N,N\u2032-bis(2-chloroethyl)-", "N,N\u2032-Bis(2-chloroethyl)phosphorodiamidic acid", "N1,N2-Bis(2-chloroethyl)phosphoric acid diamide", "N,N\u2032-Di(2-chloroethyl)phosphorodiamidic acid", "Isophosphoramide mustard", "Ifosfamide mustard", "NSC 297900", "ZIO 201", "IPM", "Palifosfamide"], "SMILES": "P(NCCCl)(NCCCl)(=O)O", "physical_data": {"Molecular Weight": "221.02", "Molecular Formula": "C4H11Cl2N2O2P", "Melting Point": "106-107 \u00b0C"}}