{"cas_no": "3166-62-9", "cn_name": "\u6eb4\u7532\u4e59\u80fa\u75c9\u5e73", "en_name": ["Ethanaminium, N,N-diethyl-2-[(2-hydroxy-2,2-diphenylacetyl)oxy]-N-methyl-, bromide (1:1)", "Ethanaminium, N,N-diethyl-2-[(2-hydroxy-2,2-diphenylacetyl)oxy]-N-methyl-, bromide (1:1)", "Ammonium, diethyl(2-hydroxyethyl)methyl-, bromide, benzilate", "Ethanaminium, N,N-diethyl-2-[(hydroxydiphenylacetyl)oxy]-N-methyl-, bromide", "Diethyl(2-hydroxyethyl)methylammonium bromide, benzilate", "Diethylaminoethyl diphenylglycolate methobromide", "Paragone", "ENT 26656", "Finalin", "Alsain", "Apulcin", "Final", "Sanrine", "Semulgin", "Gastrimade", "Igsain", "Neo-aspamin", "Noinarin", "Benactyzine methobromide", "Filcilin", "Methylbenactyzium bromide", "Spatomac"], "SMILES": "C(C(OCC[N+](CC)(CC)C)=O)(O)(C1=CC=CC=C1)C2=CC=CC=C2.[Br-]", "physical_data": {"Molecular Weight": "", "Molecular Formula": "C21H28NO3.Br", "Melting Point": "169-170 \u00b0C"}}