{"cas_no": "3167-63-3", "cn_name": "\u4e8c\u7532\u57fa(\u6c2f\u7532\u57fa)\u4e19\u70ef\u916f", "en_name": ["Diethyl P-(chloromethyl)phosphonate", "Phosphonic acid, P-(chloromethyl)-, diethyl ester", "Phosphonic acid, (chloromethyl)-, diethyl ester", "Diethyl P-(chloromethyl)phosphonate", "Diethyl (chloromethyl)phosphonate", "Diethyl chloromethanephosphonate", "Chloromethylphosphonic acid diethyl ester", "NSC 67753", "1-[Chloromethyl(ethoxy)phosphoryl]oxyethane"], "SMILES": "P(OCC)(OCC)(CCl)=O", "physical_data": {"Molecular Weight": "186.57", "Molecular Formula": "C5H12ClO3P", "Boiling Point": "109-111 \u00b0C @ Press: 10 Torr", "Density": "1.1909 g/cm\u00b3 @ Temp: 20 \u00b0C"}}