{"cas_no": "3167-49-5", "cn_name": "6-\u6c28\u57fa\u70df\u9178", "en_name": ["6-Aminonicotinic acid", "3-Pyridinecarboxylic acid, 6-amino-", "Nicotinic acid, 6-amino-", "6-Amino-3-pyridinecarboxylic acid", "6-Aminonicotinic acid", "2-Amino-5-pyridinecarboxylic acid", "2-Amino-5-carboxypyridine", "6-Aminopyridine-3-carboxylic acid", "NSC 229361"], "SMILES": "C(O)(=O)C=1C=CC(N)=NC1", "physical_data": {"Molecular Weight": "138.12", "Molecular Formula": "C6H6N2O2", "Melting Point": "312 \u00b0C"}}