{"cas_no": "31677-93-7", "cn_name": "\u76d0\u9178\u5b89\u975e\u4ed6\u916e", "en_name": ["Bupropion hydrochloride", "1-Propanone, 1-(3-chlorophenyl)-2-[(1,1-dimethylethyl)amino]-, hydrochloride (1:1)", "Propiophenone, 2-(tert-butylamino)-3\u2032-chloro-, hydrochloride, (\u00b1)-", "1-Propanone, 1-(3-chlorophenyl)-2-[(1,1-dimethylethyl)amino]-, hydrochloride, (\u00b1)-", "1-Propanone, 1-(3-chlorophenyl)-2-[(1,1-dimethylethyl)amino]-, hydrochloride", "DL-\u03b1-t-Butylamino-3-chloropropiophenone hydrochloride", "Bupropion hydrochloride", "Wellbatrin", "Wellbutrin", "m-Chloro-\u03b1-tert-butylaminopropiophenone hydrochloride", "\u03b1-(tert-Butylamino)-m-chloropropiophenone hydrochloride", "Zyban", "Zyban (pharmaceutical)", "NSC 315851", "2-(tert-Butylamino)-1-(3-chlorophenyl)propan-1-one hydrochloride"], "SMILES": "C(C(NC(C)(C)C)C)(=O)C1=CC(Cl)=CC=C1.Cl", "physical_data": {"Molecular Weight": "", "Molecular Formula": "C13H18ClNO.ClH", "Melting Point": "233-234 \u00b0C"}}