{"cas_no": "31676-54-7", "cn_name": "3-\u6c28\u57fa-5-\u82ef\u57fa\u5421\u5576", "en_name": ["5-Phenyl-3-pyridinamine", "3-Pyridinamine, 5-phenyl-", "Pyridine, 3-amino-5-phenyl-", "5-Phenyl-3-pyridinamine", "3-Amino-5-phenylpyridine", "5-Phenylpyridin-3-amine"], "SMILES": "NC1=CC(=CN=C1)C2=CC=CC=C2", "physical_data": {"Molecular Weight": "170.21", "Molecular Formula": "C11H10N2", "Melting Point": "136-137 \u00b0C"}}