{"cas_no": "3167-50-8", "cn_name": "2-\u6c28\u57fa\u5627\u5576-5-\u7fa7\u9178", "en_name": ["2-Amino-5-pyrimidinecarboxylic acid", "5-Pyrimidinecarboxylic acid, 2-amino-", "2-Amino-5-pyrimidinecarboxylic acid", "2-Amino-5-carboxypyrimidine"], "SMILES": "C(O)(=O)C=1C=NC(N)=NC1", "physical_data": {"Molecular Weight": "139.11", "Molecular Formula": "C5H5N3O2", "Melting Point": "&gt;300 \u00b0C"}}