{"cas_no": "31685-80-0", "cn_name": "\u7ea2\u677e\u5185\u916f", "en_name": ["Methyl (1S,4aR,5S,8aR)-5-[2-(2,5-dihydro-2-oxo-3-furanyl)ethyl]decahydro-1,4a-dimethyl-6-methylene-1-naphthalenecarboxylate", "1-Naphthalenecarboxylic acid, 5-[2-(2,5-dihydro-2-oxo-3-furanyl)ethyl]decahydro-1,4a-dimethyl-6-methylene-, methyl ester, (1S,4aR,5S,8aR)-", "1-Naphthalenecarboxylic acid, 5-[2-(2,5-dihydro-2-oxo-3-furanyl)ethyl]decahydro-1,4a-dimethyl-6-methylene-, methyl ester, [1S-(1\u03b1,4a\u03b1,5\u03b1,8a\u03b2)]-", "Labda-8(20),13-diene-16,19-dioic acid, 15-hydroxy-, \u03b3-lactone, methyl ester", "Methyl (1S,4aR,5S,8aR)-5-[2-(2,5-dihydro-2-oxo-3-furanyl)ethyl]decahydro-1,4a-dimethyl-6-methylene-1-naphthalenecarboxylate", "Pinusolide"], "SMILES": "CC12C(C(C(OC)=O)(C)CCC1)CCC(=C)C2CCC=3C(=O)OCC3", "physical_data": {"Molecular Weight": "346.46", "Molecular Formula": "C21H30O4", "Melting Point": "82-84 \u00b0C"}}