{"cas_no": "31680-07-6", "cn_name": "4-\u7532\u57fa-3-\u785d\u57fa\u82ef\u7532\u919b", "en_name": ["4-Methyl-3-nitrobenzaldehyde", "Benzaldehyde, 4-methyl-3-nitro-", "p-Tolualdehyde, 3-nitro-", "4-Methyl-3-nitrobenzaldehyde", "3-Nitro-p-tolualdehyde", "3-Nitro-4-methylbenzaldehyde"], "SMILES": "N(=O)(=O)C1=CC(C=O)=CC=C1C", "physical_data": {"Molecular Weight": "165.15", "Molecular Formula": "C8H7NO3", "Boiling Point": "140-145 \u00b0C", "Melting Point": "42-43 \u00b0C"}}