{"cas_no": "31680-08-7", "cn_name": "3-\u785d\u57fa-4-\u7532\u6c27\u57fa\u82ef\u7532\u919b", "en_name": ["4-Methoxy-3-nitrobenzaldehyde", "Benzaldehyde, 4-methoxy-3-nitro-", "p-Anisaldehyde, 3-nitro-", "4-Methoxy-3-nitrobenzaldehyde", "3-Nitro-p-anisaldehyde", "3-Nitro-4-methoxybenzaldehyde"], "SMILES": "N(=O)(=O)C1=C(OC)C=CC(C=O)=C1", "physical_data": {"Molecular Weight": "181.15", "Molecular Formula": "C8H7NO4", "Melting Point": "86 \u00b0C"}}