{"cas_no": "31698-14-3", "cn_name": "\u73af\u80de\u5576", "en_name": ["Ancitabine", "6H-Furo[2\u2032,3\u2032:4,5]oxazolo[3,2-a]pyrimidine-2-methanol, 2,3,3a,9a-tetrahydro-3-hydroxy-6-imino-, (2R,3R,3aS,9aR)-", "6H-Furo[2\u2032,3\u2032:4,5]oxazolo[3,2-a]pyrimidine-2-methanol, 2,3,3a,9a-tetrahydro-3-hydroxy-6-imino-, [2R-(2\u03b1,3\u03b2,3a\u03b2,9a\u03b2)]-", "6H-Furo[2\u2032,3\u2032:4,5]oxazolo[3,2-a]pyrimidine-2-methanol, 2,3,3a,9a-tetrahydro-3-hydroxy-6-imino-, stereoisomer", "6H-Furo[2\u2032,3\u2032:4,5]oxazolo[3,2-a]pyrimidine-2-methanol, 2,3,3a,9a-tetrahydro-3-hydroxy-6-imino-", "(2R,3R,3aS,9aR)-2,3,3a,9a-Tetrahydro-3-hydroxy-6-imino-6H-furo[2\u2032,3\u2032:4,5]oxazolo[3,2-a]pyrimidine-2-methanol", "O2,2\u2032-Cyclocytidine", "Cyclocytidine", "2,2\u2032-Anhydroarabinosylcytosine", "2,2\u2032-Anhydrocytidine", "2,2\u2032-O-Cyclocytidine", "O2:2\u2032-Anhydro-1-\u03b2-D-arabinosylcytosine", "2,2\u2032-Anhydro(1-\u03b2-D-arabinofuranosyl)cytosine", "Ancytabine", "2,2\u2032-Cyclocytidine", "Ancitabine"], "SMILES": "OC1C2C(N3C(O2)=NC(=N)C=C3)OC1CO", "physical_data": {"Molecular Weight": "225.20", "Molecular Formula": "C9H11N3O4", "Melting Point": "249 \u00b0C (decomp)"}}