{"cas_no": "31704-80-0", "cn_name": "3-(5-\u7532\u57fa-2-\u544b\u5583\u57fa)\u4e01\u919b", "en_name": ["\u03b2,5-Dimethyl-2-furanpropanal", "2-Furanpropanal, \u03b2,5-dimethyl-", "2-Furanpropionaldehyde, \u03b2,5-dimethyl-", "\u03b2,5-Dimethyl-2-furanpropanal", "3-(5-Methyl-2-furyl)butyraldehyde", "3-(5-Methylfuryl)butanal", "3-(5-Methylfuran-2-yl)butyraldehyde", "3-(5-Methyl-2-furyl)butanal", "3-(5-Methylfuran-2-yl)butanal"], "SMILES": "C(CC=O)(C)C1=CC=C(C)O1", "physical_data": {"Molecular Weight": "152.19", "Molecular Formula": "C9H12O2", "Boiling Point": "88 \u00b0C @ Press: 14 Torr", "Density": "1.0079 g/cm\u00b3 @ Temp: 20 \u00b0C"}}