{"cas_no": "3171-45-7", "cn_name": "4\uff0c5-\u4e8c\u7532\u57fa-1\uff0c2-\u82ef\u4e8c\u80fa", "en_name": ["4,5-Dimethyl-1,2-phenylenediamine", "1,2-Benzenediamine, 4,5-dimethyl-", "o-Phenylenediamine, 4,5-dimethyl-", "4,5-Dimethyl-1,2-benzenediamine", "4,5-Diamino-o-xylene", "1,2-Dimethyl-4,5-diaminobenzene", "4,5-Dimethyl-o-phenylenediamine", "4,5-Diamino-1,2-dimethylbenzene", "o-Xylene-4,5-diamine", "1,2-Diamino-4,5-dimethylbenzene", "4,5-Dimethyl-1,2-phenylenediamine", "4,5-Dimethyl-1,2-diaminobenzene", "2,3-Diamino-5,6-dimethylbenzene", "2-Amino-4,5-dimethylaniline", "NSC 12978"], "SMILES": "CC1=C(C)C=C(N)C(N)=C1", "physical_data": {"Molecular Weight": "136.19", "Molecular Formula": "C8H12N2", "Melting Point": "133 \u00b0C"}}