{"cas_no": "31719-76-3", "cn_name": "4-\u82ef\u6c27\u7532\u57fa\u82ef\u7532\u9178", "en_name": ["4-(Phenoxymethyl)benzoic acid", "Benzoic acid, 4-(phenoxymethyl)-", "p-Toluic acid, \u03b1-phenoxy-", "4-(Phenoxymethyl)benzoic acid"], "SMILES": "C(OC1=CC=CC=C1)C2=CC=C(C(O)=O)C=C2", "physical_data": {"Molecular Weight": "228.24", "Molecular Formula": "C14H12O3", "Melting Point": "207 \u00b0C"}}