{"cas_no": "31712-49-9", "cn_name": "\u6a59\u76ae\u7d20-7-O-\u8461\u8404\u7cd6\u82f7", "en_name": ["Hesperetin 7-glucoside", "4H-1-Benzopyran-4-one, 7-(\u03b2-D-glucopyranosyloxy)-2,3-dihydro-5-hydroxy-2-(3-hydroxy-4-methoxyphenyl)-, (2S)-", "4H-1-Benzopyran-4-one, 7-(\u03b2-D-glucopyranosyloxy)-2,3-dihydro-5-hydroxy-2-(3-hydroxy-4-methoxyphenyl)-, (S)-", "Flavanone, 3\u2032,5,7-trihydroxy-4\u2032-methoxy-, 7-\u03b2-D-glucopyranoside", "Glucopyranoside, hesperetin-7, \u03b2-D-", "(2S)-7-(\u03b2-D-Glucopyranosyloxy)-2,3-dihydro-5-hydroxy-2-(3-hydroxy-4-methoxyphenyl)-4H-1-benzopyran-4-one", "Hesperetin 7-glucoside", "Hesperetin 7-O-glucoside", "Hesperetin 7-O-\u03b2-D-glucopyranoside", "Hesperitin-7-\u03b2-D-glucoside"], "SMILES": "O=C1C=2C(OC(C1)C3=CC(O)=C(OC)C=C3)=CC(OC4OC(CO)C(O)C(O)C4O)=CC2O", "physical_data": {"Molecular Weight": "464.42", "Molecular Formula": "C22H24O11", "Melting Point": "206-207 \u00b0C"}}