{"cas_no": "3171-46-8", "cn_name": "3,5-\u4e8c\u7532\u57fa-1,2-\u82ef\u4e8c\u80fa", "en_name": ["3,5-Dimethyl-1,2-benzenediamine", "1,2-Benzenediamine, 3,5-dimethyl-", "o-Phenylenediamine, 3,5-dimethyl-", "3,5-Dimethyl-1,2-benzenediamine", "3,5-Dimethyl-o-phenylenediamine", "3,5-Dimethyl-1,2-phenylenediamine", "4,6-Dimethyl-o-phenylenediamine", "2-Amino-3,5-dimethylphenylamine", "3,5-Dimethylbenzene-1,2-diamine", "1,2-Diamino-3,5-dimethylbenzene"], "SMILES": "NC1=C(C)C=C(C)C=C1N", "physical_data": {"Molecular Weight": "136.19", "Molecular Formula": "C8H12N2", "Melting Point": "136-137 \u00b0C"}}