{"cas_no": "31721-94-5", "cn_name": "5,7-\u4e8c\u7f9f\u57fa\u8272\u539f\u916e", "en_name": ["5,7-Dihydroxychromone", "4H-1-Benzopyran-4-one, 5,7-dihydroxy-", "Chromone, 5,7-dihydroxy-", "5,7-Dihydroxy-4H-1-benzopyran-4-one", "5,7-Dihydroxychromone", "5,7-Dihydroxy-4-chromone", "5,7-Dihydroxy-4H-chromen-4-one"], "SMILES": "OC1=C2C(=CC(O)=C1)OC=CC2=O", "physical_data": {"Molecular Weight": "178.14", "Molecular Formula": "C9H6O4", "Melting Point": "272-273 \u00b0C"}}