{"cas_no": "31729-66-5", "cn_name": "1-\u82ef\u57fa\u73af\u4e19\u57fa\u7532\u9187", "en_name": ["1-Phenylcyclopropanemethanol", "Cyclopropanemethanol, 1-phenyl-", "1-Phenylcyclopropanemethanol", "1-Phenyl-1-(hydroxymethyl)cyclopropane", "1-Phenyl-1-cyclopropanemethanol", "(1-Phenylcyclopropyl)methanol"], "SMILES": "C(O)C1(CC1)C2=CC=CC=C2", "physical_data": {"Molecular Weight": "148.20", "Molecular Formula": "C10H12O", "Boiling Point": "117-122 \u00b0C @ Press: 112 Torr"}}