{"cas_no": "3172-52-9", "cn_name": "2,5-\u4e8c\u6c2f\u567b\u5429", "en_name": ["2,5-Dichlorothiophene", "Thiophene, 2,5-dichloro-", "2,5-Dichlorothiophene", "5-Chloro-2-thienyl chloride", "NSC 60527"], "SMILES": "ClC=1SC(Cl)=CC1", "physical_data": {"Molecular Weight": "153.03", "Molecular Formula": "C4H2Cl2S", "Boiling Point": "162 \u00b0C", "Melting Point": "-40.5 \u00b0C", "Density": "1.4473 g/cm\u00b3 @ Temp: 20 \u00b0C"}}