{"cas_no": "31722-49-3", "cn_name": "1H-\u54aa\u5511-2-\u8148", "en_name": ["1H-Imidazole-2-carbonitrile", "1H-Imidazole-2-carbonitrile", "Imidazole-2-carbonitrile", "2-Cyanoimidazole", "2CNZ", "2-Cyano-1H-imidazole"], "SMILES": "C(#N)C=1NC=CN1", "physical_data": {"Molecular Weight": "93.09", "Molecular Formula": "C4H3N3", "Melting Point": "176-177 \u00b0C"}}