{"cas_no": "3173-72-6", "cn_name": "\u8418\u4e8c\u5f02\u6c30\u9178\u916f", "en_name": ["1,5-Naphthalene diisocyanate", "Naphthalene, 1,5-diisocyanato-", "Isocyanic acid, 1,5-naphthylene ester", "1,5-Naphthalenediol, diisocyanate", "1,5-Diisocyanatonaphthalene", "1,5-Naphthalene diisocyanate", "1,5-Naphthylene diisocyanate", "1,5-Naphthyl diisocyanate", "NSC 240728", "NDI", "1,5-NDI", "Naphthalene-1,5-diyl diisocyanate"], "SMILES": "N(=C=O)C=1C2=C(C(N=C=O)=CC=C2)C=CC1", "physical_data": {"Molecular Weight": "210.19", "Molecular Formula": "C12H6N2O2", "Boiling Point": "167 \u00b0C @ Press: 5 Torr", "Melting Point": "130 \u00b0C", "Density": "1.42 g/cm\u00b3"}}