{"cas_no": "3173-53-3", "cn_name": "\u73af\u5df1\u57fa\u5f02\u6c30\u9178\u916f", "en_name": ["Cyclohexyl isocyanate", "Cyclohexane, isocyanato-", "Isocyanic acid, cyclohexyl ester", "Isocyanatocyclohexane", "Cyclohexyl isocyanate", "NSC 87419", "Cyclohexane isocyanate"], "SMILES": "N(=C=O)C1CCCCC1", "physical_data": {"Molecular Weight": "125.17", "Molecular Formula": "C7H11NO", "Boiling Point": "168 \u00b0C", "Melting Point": "-80 \u00b0C", "Density": "0.98 g/cm\u00b3"}}