{"cas_no": "3173-56-6", "cn_name": "\u5f02\u6c30\u9178\u82c4\u916f", "en_name": ["Benzyl isocyanate", "Benzene, (isocyanatomethyl)-", "Isocyanic acid, benzyl ester", "(Isocyanatomethyl)benzene", "\u03b1-Isocyanatotoluene", "Benzyl isocyanate", "Phenylmethyl isocyanate", "NSC 118415", "1-(Isocyanatomethyl)benzene"], "SMILES": "C(N=C=O)C1=CC=CC=C1", "physical_data": {"Molecular Weight": "133.15", "Molecular Formula": "C8H7NO", "Boiling Point": "88-91 \u00b0C @ Press: 20 Torr", "Melting Point": "87 \u00b0C", "Density": "1.0838 g/cm\u00b3 @ Temp: 20 \u00b0C"}}