{"cas_no": "317318-70-0", "cn_name": "2-(4-((2-(4-(\u4e09\u6c1f\u7532\u57fa)\u82ef\u57fa)-5-\u7532\u57fa\u567b\u5511-4-\u57fa)\u7532\u57fa\u786b\u57fa)-2-\u7532\u57fa\u82ef\u6c27\u57fa)\u4e59\u9178", "en_name": ["GW 501516", "Acetic acid, 2-[2-methyl-4-[[[4-methyl-2-[4-(trifluoromethyl)phenyl]-5-thiazolyl]methyl]thio]phenoxy]-", "Acetic acid, [2-methyl-4-[[[4-methyl-2-[4-(trifluoromethyl)phenyl]-5-thiazolyl]methyl]thio]phenoxy]-", "2-[2-Methyl-4-[[[4-methyl-2-[4-(trifluoromethyl)phenyl]-5-thiazolyl]methyl]thio]phenoxy]acetic acid", "GW 501516", "GW 1516", "2-[2-Methyl-4-[[[4-methyl-2-[4-(trifluoromethyl)phenyl]thiazol-5-yl]methyl]thio]phenoxy]acetic acid", "[2-Methyl-4-[([4-methyl-2-[4-(trifluoromethyl)phenyl]-1,3-thiazol-5-yl]methyl)thio]phenoxy]acetic acid", "2-(4-((2-(4-(Trifluoromethyl)phenyl)-4-methylthiazol-5-yl)methylthio)-2-methylphenoxy)acetic acid", "Cardarine", "Endurobol"], "SMILES": "C(SC1=CC(C)=C(OCC(O)=O)C=C1)C=2SC(=NC2C)C3=CC=C(C(F)(F)F)C=C3", "physical_data": {"Molecular Weight": "453.50", "Molecular Formula": "C21H18F3NO3S2", "Melting Point": "133-134 \u00b0C (decomp)"}}