{"cas_no": "31736-73-9", "cn_name": "4'-\u6eb4-3-\u6c2f\u82ef\u4e19\u916e", "en_name": ["1-(4-Bromophenyl)-3-chloro-1-propanone", "1-Propanone, 1-(4-bromophenyl)-3-chloro-", "Propiophenone, 4\u2032-bromo-3-chloro-", "1-(4-Bromophenyl)-3-chloro-1-propanone", "4\u2032-Bromo-3-chloropropiophenone", "4-Bromophenyl 2-chloroethyl ketone", "NSC 36071", "p-Bromo-3-chloropropiophenone", "p-Bromophenyl \u03b2-chloroethyl ketone", "3-Chloro-1-(4-bromophenyl)propan-1-one"], "SMILES": "C(CCCl)(=O)C1=CC=C(Br)C=C1", "physical_data": {"Molecular Weight": "247.52", "Molecular Formula": "C9H8BrClO", "Melting Point": "58-60 \u00b0C"}}