{"cas_no": "3174-74-1", "cn_name": "3,6-\u4e8c\u6c22\u5421\u5583", "en_name": ["3,6-Dihydro-2H-pyran", "2H-Pyran, 3,6-dihydro-", "3,6-Dihydro-2H-pyran", "5,6-Dihydro-2H-pyran"], "SMILES": "C=1CCOCC1", "physical_data": {"Molecular Weight": "84.12", "Molecular Formula": "C5H8O", "Boiling Point": "92-93 \u00b0C", "Density": "0.943 g/cm\u00b3 @ Temp: 28.5 \u00b0C"}}