{"cas_no": "3175-95-9", "cn_name": "\u8131\u6c27\u4e4c\u5934\u78b1", "en_name": ["Deoxyaconitine", "Aconitane-8,13,14,15-tetrol, 20-ethyl-1,6,16-trimethoxy-4-(methoxymethyl)-, 8-acetate 14-benzoate, (1\u03b1,6\u03b1,14\u03b1,15\u03b1,16\u03b2)-", "Deoxyaconitine", "3-Deoxyaconitine"], "SMILES": "O(C)C1C23C4C(C(OC)C2C(COC)(CN4CC)CC1)C5(OC(C)=O)C6C3CC(O)(C6OC(=O)C7=CC=CC=C7)C(OC)C5O", "physical_data": {"Molecular Weight": "629.74", "Molecular Formula": "C34H47NO10", "Melting Point": "173-176 \u00b0C"}}