{"cas_no": "3177-80-8", "cn_name": "2-\u6c28\u57fa-3-\u7532\u6c27\u57fa\u82ef\u7532\u9178", "en_name": ["2-Amino-3-methoxybenzoic acid", "Benzoic acid, 2-amino-3-methoxy-", "m-Anisic acid, 2-amino-", "2-Amino-3-methoxybenzoic acid", "3-Methoxyanthranilic acid", "3-Methoxy-2-aminobenzoic acid", "NSC 81443", "2-Amino-3-(methyloxy)benzoic acid"], "SMILES": "C(O)(=O)C1=C(N)C(OC)=CC=C1", "physical_data": {"Molecular Weight": "167.16", "Molecular Formula": "C8H9NO3", "Melting Point": "169-170 \u00b0C"}}