{"cas_no": "31770-95-3", "cn_name": "5-\u7532\u781c\u57fa-6-\u785d\u57fa-2-(3H)-\u82ef\u5e76\u6076\u5511\u916e", "en_name": ["5-(Methylsulfonyl)-6-nitro-2(3H)-benzoxazolone", "2(3H)-Benzoxazolone, 5-(methylsulfonyl)-6-nitro-", "2-Benzoxazolinone, 5-(methylsulfonyl)-6-nitro-", "5-(Methylsulfonyl)-6-nitro-2(3H)-benzoxazolone"], "SMILES": "N(=O)(=O)C=1C=C2C(=CC1S(C)(=O)=O)NC(=O)O2", "physical_data": {"Molecular Weight": "258.21", "Molecular Formula": "C8H6N2O6S", "Melting Point": "264 \u00b0C (decomp)"}}