{"cas_no": "3178-22-1", "cn_name": "\u53d4\u4e01\u57fa\u73af\u5df2\u70f7", "en_name": ["tert-Butylcyclohexane", "Cyclohexane, (1,1-dimethylethyl)-", "Cyclohexane, tert-butyl-", "(1,1-Dimethylethyl)cyclohexane", "tert-Butylcyclohexane", "NSC 73719", "4-tert-Butylcyclohexane"], "SMILES": "C(C)(C)(C)C1CCCCC1", "physical_data": {"Molecular Weight": "140.27", "Molecular Formula": "C10H20", "Boiling Point": "171.5 \u00b0C", "Melting Point": "-41.2 \u00b0C", "Density": "0.8305 g/cm\u00b3 @ Temp: 16 \u00b0C"}}