{"cas_no": "31788-88-2", "cn_name": "(2-\u6c28\u57fa-2-\u82ef\u57fa\u4e59\u57fa)\u4e8c\u7532\u80fa", "en_name": ["N2,N2-Dimethyl-1-phenyl-1,2-ethanediamine", "1,2-Ethanediamine, N2,N2-dimethyl-1-phenyl-", "Ethylenediamine, N2,N2-dimethyl-1-phenyl-", "N2,N2-Dimethyl-1-phenyl-1,2-ethanediamine", "N-(2-Dimethylamino-1-phenylethyl)amine", "N\u2032,N\u2032-Dimethyl-1-phenylethane-1,2-diamine", "N1,N1-Dimethyl-2-phenylethan-1,2-diamine", "(2-Amino-2-phenylethyl)dimethylamine", "1,2-Ethanediamine N2,N2-dimethyl-1-phenyl-"], "SMILES": "C(CN(C)C)(N)C1=CC=CC=C1", "physical_data": {"Molecular Weight": "164.25", "Molecular Formula": "C10H16N2", "Boiling Point": "90-92 \u00b0C @ Press: 0.1 Torr"}}