{"cas_no": "3179-76-8", "cn_name": "\u7845\u70f7\u5076\u8054\u5242 JH-M902", "en_name": ["\u03b3-Aminopropylmethyldiethoxysilane", "1-Propanamine, 3-(diethoxymethylsilyl)-", "Propylamine, 3-(diethoxymethylsilyl)-", "3-(Diethoxymethylsilyl)-1-propanamine", "(3-Aminopropyl)diethoxymethylsilane", "3-(Diethoxymethylsilyl)propylamine", "(3-Aminopropyl)methyldiethoxysilane", "\u03b3-Aminopropylmethyldiethoxysilane", "Dynasylan 1506", "Dynasylan 1505", "KBE 902", "(Aminopropyl)methyldiethoxysilane", "LS 2450", "\u03b3-Diethoxymethylsilylpropylamine", "A 2100", "YH 62", "SG-SI 902", "SIA 0606.0", "SCA 1112", "Si 902", "WD 57", "SCA 1113", "KH 902", "WD 257", "3-(Diethoxymethylsilanyl)propylamine", "DB 902", "3-(Diethoxymethylsilyl)propan-1-amine", "SIA 0605.0", "KH 520", "SCA-A 10F", "JH-M 902", "CG 902", "FD 552"], "SMILES": "[Si](CCCN)(OCC)(OCC)C", "physical_data": {"Molecular Weight": "191.34", "Molecular Formula": "C8H21NO2Si", "Boiling Point": "85-88 \u00b0C @ Press: 8 Torr", "Density": "0.916 g/cm\u00b3"}}