{"cas_no": "3179-89-3", "cn_name": "C.I.\u5206\u6563\u7ea217", "en_name": ["Disperse Red 17", "Ethanol, 2,2\u2032-[[3-methyl-4-[2-(4-nitrophenyl)diazenyl]phenyl]imino]bis-", "C.I. Disperse Red 17", "Ethanol, 2,2\u2032-[[3-methyl-4-[(4-nitrophenyl)azo]phenyl]imino]bis-", "Ethanol, 2,2\u2032-[4-(p-nitrophenylazo)-m-tolylimino]di-", "2,2\u2032-[[3-Methyl-4-[2-(4-nitrophenyl)diazenyl]phenyl]imino]bis[ethanol]", "C.I. 11210", "Acetamine Red BE", "Acetoquinone Light Red BZ", "Amacel Red AB", "Amacel Red GG", "Calcosyn Red GG", "Celliton Discharge Red GGL", "Celliton Fast Red GG", "Celliton Fast Red GGA-CF", "Celutate Red R", "Cibacete Red YNB", "Cibacet Red 2G", "Cilla Fast Red GG", "Diacelliton Fast Red R", "Diacelliton Red RF", "Disperse Red R", "Eastone Red R", "Fenacet Fast Red 2G", "Interchem Acetate Red RN", "Interchem Hisperse Red RH", "Kayalon Fast Red R", "Miketon Fast Red R", "Monocel Red GG", "Nacelan Red AB", "Nyloquinone Red BN", "Palanil Red GG", "Perliton Red 3B", "Reliton GG", "Serisol Fast Red 2RDX", "Setacyl Red R", "Supracet Fast Red G", "Celliton Red GG", "Disperse Red 17", "4-Nitro-4\u2032-[bis(2-hydroxyethyl)amino]-2\u2032-methylazobenzene", "4-[Bis(2-hydroxyethyl)amino]-2-methyl-4\u2032-nitroazobenzene", "Diacelliton Red R-M/D", "Synten Red 2G", "Ostacet Red P 2G", "Intrasperse Red YNB", "3-Methyl-4-(4\u2032-nitrophenylazo)-N,N-bis(2-hydroxyethyl)aniline", "Akasperse Red 2G"], "SMILES": "N(CCO)(CCO)C1=CC(C)=C(N=NC2=CC=C(N(=O)=O)C=C2)C=C1", "physical_data": {"Molecular Weight": "344.37", "Molecular Formula": "C17H20N4O4", "Melting Point": "160 \u00b0C"}}