{"cas_no": "3179-10-0", "cn_name": "1-(4-\u7532\u6c27\u82ef\u57fa)-2-\u785d\u57fa\u4e59\u70ef", "en_name": ["1-Methoxy-4-(2-nitroethenyl)benzene", "Benzene, 1-methoxy-4-(2-nitroethenyl)-", "Anisole, p-(2-nitrovinyl)-", "1-Methoxy-4-(2-nitroethenyl)benzene", "p-Methoxy-\u03b2-nitrostyrene", "p-(2-Nitrovinyl)anisole", "4-Methoxy-\u03c9-nitrostyrene", "4-(2-Nitrovinyl)anisole", "4-Methoxy-\u03b2-nitrostyrene", "1-(4-Methoxyphenyl)-2-nitroethene", "2-(4-Methoxyphenyl)-1-nitroethene", "1-Methoxy-4-(2-nitrovinyl)benzene", "NSC 23856", "2-(4-Methoxyphenyl)nitroethylene", "Chembridge 5102117", "1-Nitro-2-(4-methoxyphenyl)ethene", "\u03b2-Nitro-4-methoxystyrene"], "SMILES": "C(=CN(=O)=O)C1=CC=C(OC)C=C1", "physical_data": {"Molecular Weight": "179.17", "Molecular Formula": "C9H9NO3", "Melting Point": "86-87 \u00b0C"}}