{"cas_no": "3179-80-4", "cn_name": "\u6708\u6842\u9170\u80fa\u4e19\u57fa\u4e8c\u7532\u57fa\u80fa", "en_name": ["(Laurylamidopropyl)dimethylamine", "Dodecanamide, N-[3-(dimethylamino)propyl]-", "N-[3-(Dimethylamino)propyl]dodecanamide", "Lexamine L 13", "N-[3-(Dimethylamino)propyl]lauramide", "(Laurylamidopropyl)dimethylamine", "Schercodine L", "Mackine 801", "3-Dodecanamidopropyldimethylamine", "N\u2032,N\u2032-Dimethyl-N-dodecanoyl-1,3-diaminopropane", "NSC 79892", "N,N-Dimethylaminopropyldodecylamide", "Dimethylaminopropyllaurylamide", "3-Lauramidopropyldimethylamine", "Lauric acid dimethylaminopropyl amide", "Lauramidopropyl Dimethylamine"], "SMILES": "C(NCCCN(C)C)(CCCCCCCCCCC)=O", "physical_data": {"Molecular Weight": "284.48", "Molecular Formula": "C17H36N2O", "Boiling Point": "171-194 \u00b0C @ Press: 2 Torr", "Melting Point": "31-33 \u00b0C"}}