{"cas_no": "3179-63-3", "cn_name": "3-\u4e8c\u7532\u6c28\u57fa-1-\u4e19\u9187", "en_name": ["3-(Dimethylamino)-1-propanol", "1-Propanol, 3-(dimethylamino)-", "3-(Dimethylamino)-1-propanol", "N,N-Dimethyl-\u03b3-aminopropanol", "\u03b3-(Dimethylamino)propanol", "1-Dimethylamino-3-propanol", "3-(Dimethylamino)propanol", "3-(N,N-Dimethylamino)propanol", "N,N-Dimethyl-3-amino-1-propanol", "3-(N,N-Dimethylamino)-1-propanol", "N,N-Dimethyl-3-hydroxypropylamine", "N,N-Dimethylpropanolamine", "Dimethylpropanolamine", "N,N-Dimethyl-3-aminopropanol", "NSC 62086", "3-(Dimethylamino)propyl alcohol"], "SMILES": "C(N(C)C)CCO", "physical_data": {"Molecular Weight": "103.16", "Molecular Formula": "C5H13NO", "Boiling Point": "163.5 \u00b0C", "Melting Point": "145-147 \u00b0C", "Density": "0.8816 g/cm\u00b3 @ Temp: 21 \u00b0C"}}