{"cas_no": "3179-31-5", "cn_name": "3-\u5def\u57fa-1,2,4-\u4e09\u6c2e\u5511", "en_name": ["3-Mercapto-1,2,4-triazole", "3H-1,2,4-Triazole-3-thione, 1,2-dihydro-", "s-Triazole-3-thiol", "\u03942-1,2,4-Triazoline-5-thione", "1,2-Dihydro-3H-1,2,4-triazole-3-thione", "4H-1,2,4-Triazole-3-thiol", "1,2,4-Triazole-3-thiol", "5-Mercapto-1,3,4-triazole", "ENT 61291", "3-Mercapto-1,2,4-triazole", "1,3,4-Triazole-2-thiol", "1,2,4-Triazole-5-thiol", "1H-1,2,4-Triazole-3-thiol", "2-Mercapto-1,3,4-triazole", "3(5)-Mercapto-1,2,4-triazole", "3-Mercapto-4H-1,2,4-triazole", "2-Mercapto-1,3,5-triazole", "3-Mercapto-s-triazole", "1,2,4-triazole-3(5)-thiol", "3-MT", "3-Mercapto-1H-1,2,4-triazole", "NSC 97089", "1H-1,2,4-Triazole-5-thiol", "2H-1,2,4-Triazole-3-thiol", "(4H)-1,2,4-Triazole-2-thiol", "1H-1,2,4-Triazole-5(4H)-thione", "1,2,4-1H-Triazole-3-thiol", "1,2-Dihydro-1,2,4-triazole-3-thione", "2,4-Dihydro-[1,2,4]triazole-3-thione"], "SMILES": "S=C1NC=NN1", "physical_data": {"Molecular Weight": "101.13", "Molecular Formula": "C2H3N3S", "Melting Point": "216 \u00b0C"}}