{"cas_no": "3179-47-3", "cn_name": "\u7532\u57fa\u4e19\u70ef\u9178\u7678\u916f", "en_name": ["Decyl methacrylate", "2-Propenoic acid, 2-methyl-, decyl ester", "Methacrylic acid, decyl ester", "Decyl methacrylate", "n-Decyl methacrylate", "NSC 20975", "Blemmer DMA"], "SMILES": "C(CCCCCCCCC)OC(C(C)=C)=O", "physical_data": {"Molecular Weight": "226.35", "Molecular Formula": "C14H26O2", "Boiling Point": "100 \u00b0C @ Press: 1 Torr", "Density": "0.8761 g/cm\u00b3 @ Temp: 20 \u00b0C"}}