{"cas_no": "31796-57-3", "cn_name": "H-ALA-ASN-OH", "en_name": ["Alanylasparagine", "L-Asparagine, L-alanyl-", "Asparagine, N2-L-alanyl-, L-", "L-Asparagine, N2-L-alanyl-", "Asparagine, N2-alanyl-", "L-Alanyl-L-asparagine", "N2-L-Alanylasparagine", "Alanylasparagine", "NSC 186899", "69: PN: US20070066537 PAGE: 17 claimed protein", "2: PN: US20090239809 SEQID: 2 claimed protein", "49: PN: EP2161028 PAGE: 10 claimed protein", "75: PN: WO2014170713 SEQID: 181 claimed protein"], "SMILES": "C(NC(C(C)N)=O)(CC(N)=O)C(O)=O", "physical_data": {"Molecular Weight": "203.20", "Molecular Formula": "C7H13N3O4", "Melting Point": "201-202 \u00b0C"}}