{"cas_no": "3180-81-2", "cn_name": "2-[[4-[(2-\u6c2f-4-\u785d\u57fa\u82ef\u57fa)\u5076\u6c2e]\u82ef\u57fa]\u4e59\u6c28\u57fa]\u4e59\u9187", "en_name": ["Disperse Red 13", "Ethanol, 2-[[4-[2-(2-chloro-4-nitrophenyl)diazenyl]phenyl]ethylamino]-", "Dispersol Fast Crimson B", "C.I. Disperse Red 13", "Ethanol, 2-[[4-[(2-chloro-4-nitrophenyl)azo]phenyl]ethylamino]-", "2-[[4-[2-(2-Chloro-4-nitrophenyl)diazenyl]phenyl]ethylamino]ethanol", "C.I. 11115", "Acetamine Rubine B", "Acetate Fast Rubine B", "Acetoquinone Light Rubine BLZ", "Amacel Rubine B", "Celliton Discharging Rubine BL", "Celliton Fast Rubine B", "Celliton Fast Rubine BA-CF", "Cibacet Rubine BS", "Cibacet Rubine R", "Cilla Fast Rubine B", "Diacelliton Fast Blue Bordeaux B", "Diacelliton Fast Bordeaux B", "Durgacet Rubine B", "Fenacet Fast Rubine B", "Interchem Acetate Bordeaux B", "Kayalon Fast Rubine B", "KCA Acetate Crimson B", "Microsetile Rubine 2B", "Nyloquinone Bordeaux B", "Perliton Rubine 4B", "Serisol Fast Crimson BD", "Setacyl Red 2B", "Silotras Rubine TSB", "Supracet Fast Crimson B", "Celliton Ruby B", "Palacet Scarlet B", "4-Nitro-2-chloro-4\u2032-[ethyl(2-hydroxyethyl)amino]azobenzene", "Disperse Bordeaux S", "Disperse Red 13", "Dispersol Rubine B", "Celliton Rubine B", "Serisol Fast Crimson BD 150", "Intrasperse Bordeaux BA"], "SMILES": "N(CCO)(CC)C1=CC=C(N=NC2=C(Cl)C=C(N(=O)=O)C=C2)C=C1", "physical_data": {"Molecular Weight": "348.78", "Molecular Formula": "C16H17ClN4O3", "Melting Point": "133 \u00b0C"}}