{"cas_no": "31807-55-3", "cn_name": "\u5f02\u5341\u4e8c\u70f7", "en_name": ["Isododecane", "Isododecane", "Hyfrane 120", "Permethyl 99A", "Fancol ID", "Permethyl 99", "Purolan IDD", "Creasil ID-CG", "Marukasol R"], "SMILES": "", "physical_data": {"Molecular Weight": "", "Molecular Formula": "C12H26", "Boiling Point": "205-230 \u00b0C"}}