{"cas_no": "31805-83-1", "cn_name": "1,3-\u4e8c\u7532\u786b\u57fa-2-\u4e19\u9187", "en_name": ["1,3-Bis(methylthio)-2-propanol", "2-Propanol, 1,3-bis(methylthio)-", "1,3-Bis(methylthio)-2-propanol", "NSC 240695", "1,3-Bis(methylsulfanyl)propan-2-ol"], "SMILES": "C(CSC)(CSC)O", "physical_data": {"Molecular Weight": "152.28", "Molecular Formula": "C5H12OS2", "Boiling Point": "66-68 \u00b0C @ Press: 0.2 Torr"}}