{"cas_no": "3181-38-2", "cn_name": "2',3',5'-\u4e09-O-\u4e59\u9170\u57fa\u808c\u82f7", "en_name": ["2\u2032,3\u2032,5\u2032-Tri-O-acetylinosine", "Inosine, 2\u2032,3\u2032,5\u2032-triacetate", "2\u2032,3\u2032,5\u2032-Triacetylinosine", "2\u2032,3\u2032,5\u2032-Tri-O-acetylinosine", "NSC 66386", "Chembridge 5141605"], "SMILES": "O(C(C)=O)C1C(OC(COC(C)=O)C1OC(C)=O)N2C3=C(N=C2)C(=O)N=CN3", "physical_data": {"Molecular Weight": "394.34", "Molecular Formula": "C16H18N4O8", "Melting Point": "241 \u00b0C"}}