{"cas_no": "318276-72-1", "cn_name": "6-\u6eb4\u564c\u5549", "en_name": ["6-Bromocinnoline", "Cinnoline, 6-bromo-", "6-Bromocinnoline"], "SMILES": "BrC1=CC2=C(C=C1)N=NC=C2", "physical_data": {"Molecular Weight": "209.04", "Molecular Formula": "C8H5BrN2", "Melting Point": "129-130 \u00b0C"}}