{"cas_no": "318290-98-1", "cn_name": "\u8054\u6c1f\u781c", "en_name": ["Fluensulfone", "Thiazole, 5-chloro-2-[(3,4,4-trifluoro-3-buten-1-yl)sulfonyl]-", "Thiazole, 5-chloro-2-[(3,4,4-trifluoro-3-butenyl)sulfonyl]-", "5-Chloro-2-[(3,4,4-trifluoro-3-buten-1-yl)sulfonyl]thiazole", "5-Chloro-2-[(3,4,4-trifluorobut-3-en-1-yl)sulfonyl]-1,3-thiazole", "Fluensulfone", "MCW 2", "Nimitz", "Nimitz 480EC", "fluvathiide"], "SMILES": "S(CCC(=C(F)F)F)(=O)(=O)C1=NC=C(Cl)S1", "physical_data": {"Molecular Weight": "291.70", "Molecular Formula": "C7H5ClF3NO2S2", "Melting Point": "34 \u00b0C"}}