{"cas_no": "31828-68-9", "cn_name": "L-\u9ad8\u80f1\u6c28\u9178\u786b\u5185\u916f\u76d0\u9178\u76d0", "en_name": ["L-Homocysteine thiolactone hydrochloride", "2(3H)-Thiophenone, 3-aminodihydro-, hydrochloride (1:1), (3S)-", "2(3H)-Thiophenone, 3-aminodihydro-, hydrochloride, L-", "2(3H)-Thiophenone, 3-aminodihydro-, hydrochloride, (S)-", "2(3H)-Thiophenone, 3-aminodihydro-, hydrochloride, (3S)-", "L-Homocysteine thiolactone hydrochloride", "(S)-3-Aminodihydrothiophen-2(3H)-one hydrochloride"], "SMILES": "NC1C(=O)SCC1.Cl", "physical_data": {"Molecular Weight": "", "Molecular Formula": "C4H7NOS.ClH", "Melting Point": "165-166 \u00b0C"}}