{"cas_no": "3182-95-4", "cn_name": "L-\u82ef\u4e19\u6c28\u9187", "en_name": ["L-Phenylalaninol", "Benzenepropanol, \u03b2-amino-, (\u03b2S)-", "1-Propanol, 2-amino-3-phenyl-, L-", "Benzenepropanol, \u03b2-amino-, (S)-", "(\u03b2S)-\u03b2-Aminobenzenepropanol", "l-Phenylalaninol", "L-2-Amino-3-phenylpropanol", "(S)-2-Amino-3-phenyl-1-propanol", "(S)-(-)-Phenylalaninol", "L-Phenylalaninol", "(-)-2-Amino-3-phenylpropanol", "(S)-2-Amino-3-phenylpropanol", "(S)-2-Benzylethanolamine", "(S)-2-Amino-1-phenyl-3-propanol", "(S)-2-Amino-2-benzylethanol", "(S)-Phenylalaninol", "(S)-2-Amino-1-hydroxy-3-phenylpropane", "(S)-(-)-2-Amino-3-phenyl-1-propanol", "(2S)-2-Amino-3-phenyl-1-propanol", "S-(-)-2-Amino-3-phenylpropanol", "(2S)-2-Amino-3-phenyl-1-propanol", "(S)-(-)-2-Amino-3-phenyl-1-glycinol", "[(S)-1-Benzyl-2-hydroxyethyl]amine", "(2S)-3-Phenyl-2-amino-1-propanol", "(S)-3-Phenyl-2-amino-1-propanol", "L-(-)-2-Amino-3-phenyl-1-propanol", "((1S)-1-Hydroxymethyl-2-phenylethyl)amine", "N-((2S)-1-Hydroxy-3-phenylpropan-2-yl)amine", "L-2-Amino-3-phenyl-1-propanol", "L-Phenylalanilol", "PAL 329"], "SMILES": "C(C(CO)N)C1=CC=CC=C1", "physical_data": {"Molecular Weight": "151.21", "Molecular Formula": "C9H13NO", "Melting Point": "85-86 \u00b0C"}}