{"cas_no": "3182-93-2", "cn_name": "L-\u82ef\u4e19\u6c28\u9178\u4e59\u916f\u76d0\u9178\u76d0", "en_name": ["Phenylalanine ethyl ester hydrochloride", "L-Phenylalanine, ethyl ester, hydrochloride (1:1)", "Alanine, phenyl-, ethyl ester, hydrochloride, L-(-)-", "L-Phenylalanine, ethyl ester, hydrochloride", "(S)-Phenylalanine ethyl ester hydrochloride", "Ethyl L-phenylalaninate hydrochloride", "Phenylalanine ethyl ester hydrochloride", "L-Phenylalanine ether ester hydrochloride", "L-Ethyl phenylalanine hydrochloride"], "SMILES": "C(C(C(OCC)=O)N)C1=CC=CC=C1.Cl", "physical_data": {"Molecular Weight": "", "Molecular Formula": "C11H15NO2.ClH", "Melting Point": "126-127 \u00b0C"}}