{"cas_no": "31828-71-4", "cn_name": "\u7f8e\u897f\u5f8b", "en_name": ["Mexiletine", "2-Propanamine, 1-(2,6-dimethylphenoxy)-", "Ethylamine, 1-methyl-2-(2,6-xylyloxy)-", "1-(2,6-Dimethylphenoxy)-2-propanamine", "1-(2\u2032,6\u2032-Dimethylphenoxy)-2-aminopropane", "1-Methyl-2-(2,6-xylyloxy)ethylamine", "Mexiletine", "2-Amino-1-(2,6-dimethylphenoxy)propane", "(\u00b1)-2-Amino-1-(2\u2032,6\u2032-dimethylphenoxy)propane", "(\u00b1)-Mexiletine", "dl-Mexiletine", "(RS)-Mexiletine", "[2-[(2,6-Dimethylphenyl)oxy]-1-methylethyl]amine", "2-(2-Aminopropoxy)-1,3-dimethylbenzene", "MeSH ID: D008801"], "SMILES": "O(CC(C)N)C1=C(C)C=CC=C1C", "physical_data": {"Molecular Weight": "179.26", "Molecular Formula": "C11H17NO", "Melting Point": "203-205 \u00b0C"}}