{"cas_no": "3184-13-2", "cn_name": "L-\u9e1f\u6c28\u9178\u76d0\u9178\u76d0", "en_name": ["Ornithine hydrochloride", "L-Ornithine, hydrochloride (1:1)", "Ornithine, monohydrochloride, L-", "L-Ornithine, monohydrochloride", "L-Ornithine hydrochloride", "Ornithine hydrochloride", "Ornithine monohydrochloride", "L-(+)-Ornithine monohydrochloride", "(S)-2,5-Diaminopentanoic acid hydrochloride"], "SMILES": "C(C(O)=O)(CCCN)N.Cl", "physical_data": {"Molecular Weight": "", "Molecular Formula": "C5H12N2O2.ClH", "Melting Point": "225 \u00b0C", "Density": "1.413 g/cm\u00b3"}}