{"cas_no": "3184-35-8", "cn_name": "2-\u6c27\u4ee3\u5df1\u4e8c\u9178", "en_name": ["2-Oxoadipic acid", "Hexanedioic acid, 2-oxo-", "2-Oxohexanedioic acid", "\u03b1-Ketoadipic acid", "\u03b1-Oxoadipic acid", "2-Oxoadipic acid", "2-Ketoadipic acid"], "SMILES": "C(C(C(O)=O)=O)CCC(O)=O", "physical_data": {"Molecular Weight": "160.12", "Molecular Formula": "C6H8O5", "Melting Point": "124 \u00b0C"}}