{"cas_no": "31842-01-0", "cn_name": "\u831a\u916e\u82ef\u4e19\u9178", "en_name": ["Indoprofen", "Benzeneacetic acid, 4-(1,3-dihydro-1-oxo-2H-isoindol-2-yl)-\u03b1-methyl-", "4-(1,3-Dihydro-1-oxo-2H-isoindol-2-yl)-\u03b1-methylbenzeneacetic acid", "1-Oxo-2-[p-[(\u03b1-methyl)carboxymethyl]phenyl]isoindoline", "K 4277", "Indoprofen", "2-[4-(1-Oxo-2-isoindolinyl)phenyl]propanoic acid", "dl-\u03b1-[4-(1-Oxo-2-isoindolinyl)phenyl]propionic acid", "(\u00b1)-Indoprofen", "Racemic Indoprofen", "Isindone", "IPP", "Bor-ind", "Flosin", "Praxis", "Flosint", "Reumofene", "p-(1-Oxo-2-isoindolinyl)hydratropic acid", "MeSH ID: D007216"], "SMILES": "O=C1N(CC=2C1=CC=CC2)C3=CC=C(C(C(O)=O)C)C=C3", "physical_data": {"Molecular Weight": "281.31", "Molecular Formula": "C17H15NO3", "Melting Point": "213-214 \u00b0C"}}