{"cas_no": "31858-66-9", "cn_name": "\u9709\u915a\u9178\u916f\u6742\u8d28E", "en_name": ["Methyl (4E)-6-(1,3-dihydro-4-hydroxy-6-methoxy-7-methyl-3-oxo-5-isobenzofuranyl)-4-methyl-4-hexenoate", "4-Hexenoic acid, 6-(1,3-dihydro-4-hydroxy-6-methoxy-7-methyl-3-oxo-5-isobenzofuranyl)-4-methyl-, methyl ester, (4E)-", "4-Hexenoic acid, 6-(1,3-dihydro-4-hydroxy-6-methoxy-7-methyl-3-oxo-5-isobenzofuranyl)-4-methyl-, methyl ester, (E)-", "4-Hexenoic acid, 6-(4-hydroxy-6-methoxy-7-methyl-3-oxo-5-phthalanyl)-4-methyl-, methyl ester, (E)-", "Methyl (4E)-6-(1,3-dihydro-4-hydroxy-6-methoxy-7-methyl-3-oxo-5-isobenzofuranyl)-4-methyl-4-hexenoate", "Methyl mycophenolate", "Mycophenolic acid methyl ester"], "SMILES": "CC1=C2C(=C(O)C(CC=C(CCC(OC)=O)C)=C1OC)C(=O)OC2", "physical_data": {"Molecular Weight": "334.36", "Molecular Formula": "C18H22O6", "Melting Point": "104 \u00b0C"}}