{"cas_no": "31852-84-3", "cn_name": "\u805a\u4e73\u9178", "en_name": ["Trimethylene carbonate homopolymer", "1,3-Dioxan-2-one, homopolymer", "Carbonic acid, cyclic trimethylene ester, polymers", "1,3-Propanediol, cyclic carbonate, polymers", "Poly(trimethylene carbonate)", "Trimethylene carbonate polymer", "Trimethylene carbonate homopolymer", "Cyclotrimethylene carbonate homopolymer", "1,3-Trimethylene carbonate homopolymer", "Poly(1,3-trimethylene carbonate)"], "SMILES": "O=C1OCCCO1", "physical_data": {"Molecular Weight": "", "Molecular Formula": "(C4H6O3)x", "Melting Point": "42.2 \u00b0C"}}