{"cas_no": "31857-31-5", "cn_name": "2-\u6c30\u57fa-1,3-\u4e8c\u7532\u57fa\u80cd", "en_name": ["1,3-Dimethyl-2-cyanoguanidine", "Guanidine, N-cyano-N\u2032,N\u2032\u2032-dimethyl-", "Guanidine, 1-cyano-2,3-dimethyl-", "N-Cyano-N\u2032,N\u2032\u2032-dimethylguanidine", "2-Cyano-1,3-dimethylguanidine", "1,3-Dimethyl-2-cyanoguanidine"], "SMILES": "C(=NC#N)(NC)NC", "physical_data": {"Molecular Weight": "112.13", "Molecular Formula": "C4H8N4", "Melting Point": "174.5-174.8 \u00b0C"}}