{"cas_no": "3185-99-7", "cn_name": "\u5bf9\u7532\u781c\u57fa\u7532\u82ef", "en_name": ["Methyl p-tolyl sulfone", "Benzene, 1-methyl-4-(methylsulfonyl)-", "Sulfone, methyl p-tolyl", "1-Methyl-4-(methylsulfonyl)benzene", "p-Tolyl methyl sulfone", "Methyl p-tolyl sulfone", "Methyl 4-methylphenyl sulfone", "Methyl 4-tolyl sulfone", "p-(Methylsulfonyl)toluene", "(p-Tolylsulfonyl)methane", "4-Methylsulfonyltoluene", "Methyl p-methylphenyl sulfone", "NSC 2722", "NSC 29038", "4-Methylphenyl methyl sulfone", "1-(Methylsulfonyl)-4-methylbenzene", "4-Methylsulfonyl-1-methylbenzene", "4-(Methanesulfonyl)toluene", "1-Methanesulfonyl-4-methylbenzene"], "SMILES": "S(C)(=O)(=O)C1=CC=C(C)C=C1", "physical_data": {"Molecular Weight": "170.23", "Molecular Formula": "C8H10O2S", "Boiling Point": "90 \u00b0C", "Melting Point": "89 \u00b0C"}}