{"cas_no": "3187-58-4", "cn_name": "2,4-\u4e8c\u7f9f\u57fa-6-\u7532\u57fa\u82ef\u7532\u9178\u7532\u916f", "en_name": ["Methyl orsellinate", "Benzoic acid, 2,4-dihydroxy-6-methyl-, methyl ester", "\u03b2-Resorcylic acid, 6-methyl-, methyl ester", "Methyl o-orsellinate", "Methyl orsellinate", "Methyl 2,4-dihydroxy-6-methylbenzoate", "Orsellinic acid monomethyl ester", "Methyl 6-methyl-\u03b2-resorcylate", "Orsellinic acid methyl ester", "Methyl 2,4-hydroxy-6-methylbenzoate", "2,4-Dihydroxy-6-methylbenzoic acid methyl ester"], "SMILES": "C(OC)(=O)C1=C(C)C=C(O)C=C1O", "physical_data": {"Molecular Weight": "182.17", "Molecular Formula": "C9H10O4", "Melting Point": "139 \u00b0C"}}