{"cas_no": "31872-62-5", "cn_name": "4-\u7532\u6c27\u57fa-3-\u785d\u57fa\u5421\u5576", "en_name": ["4-Methoxy-3-nitropyridine", "Pyridine, 4-methoxy-3-nitro-", "4-Methoxy-3-nitropyridine", "3-Nitro-4-methoxypyridine"], "SMILES": "O(C)C=1C(N(=O)=O)=CN=CC1", "physical_data": {"Molecular Weight": "154.12", "Molecular Formula": "C6H6N2O3", "Boiling Point": "127 \u00b0C @ Press: 1 Torr", "Melting Point": "73 \u00b0C"}}