{"cas_no": "3187-19-7", "cn_name": "2-\u7f9f\u57fa-4,6-\u4e8c\u7532\u6c27\u57fa\u82ef\u7532\u9178", "en_name": ["2-Hydroxy-4,6-dimethoxybenzoic acid", "Benzoic acid, 2-hydroxy-4,6-dimethoxy-", "Salicylic acid, 4,6-dimethoxy-", "2-Hydroxy-4,6-dimethoxybenzoic acid", "4,6-Dimethoxysalicylic acid", "2,4-Dimethoxy-6-hydroxybenzoic acid", "NSC 151975"], "SMILES": "O(C)C1=C(C(O)=O)C(O)=CC(OC)=C1", "physical_data": {"Molecular Weight": "198.17", "Molecular Formula": "C9H10O5", "Melting Point": "156 \u00b0C"}}