{"cas_no": "31872-64-7", "cn_name": "3-\u6c2f-4-\u7f9f\u57fa-5\u785d\u57fa\u5421\u5576", "en_name": ["3-Chloro-5-nitro-4-pyridinol", "4-Pyridinol, 3-chloro-5-nitro-", "3-Chloro-5-nitro-4-pyridinol", "5-Chloro-3-nitro-4-pyridinol", "3-Chloro-4-hydroxy-5-nitropyridine", "3-Chloro-5-nitro-1H-pyridin-4-one"], "SMILES": "N(=O)(=O)C=1C(O)=C(Cl)C=NC1", "physical_data": {"Molecular Weight": "174.54", "Molecular Formula": "C5H3ClN2O3", "Melting Point": "263 \u00b0C"}}