{"cas_no": "31883-05-3", "cn_name": "\u4e59\u5417\u567b\u55ea", "en_name": ["Moricizine", "Carbamic acid, N-[10-[3-(4-morpholinyl)-1-oxopropyl]-10H-phenothiazin-2-yl]-, ethyl ester", "Phenothiazine-2-carbamic acid, 10-(3-morpholinopropionyl)-, ethyl ester", "Carbamic acid, [10-[3-(4-morpholinyl)-1-oxopropyl]-10H-phenothiazin-2-yl]-, ethyl ester", "Ethyl 10-(\u03b2-N-morpholinylpropionyl)phenothiazine-2-carbamate", "Ethyl 10-(\u03b2-morpholinopropionyl)phenothiazine-2-carbamate", "G 214", "Moricizine", "Moracizine", "[10-(3-Morpholin-4-yl-propionyl)-10H-phenothiazin-2-yl]-carbamic acid ethyl ester"], "SMILES": "C(CCN1CCOCC1)(=O)N2C=3C(SC=4C2=CC=CC4)=CC=C(NC(OCC)=O)C3", "physical_data": {"Molecular Weight": "427.52", "Molecular Formula": "C22H25N3O4S", "Melting Point": "156-157 \u00b0C"}}