{"cas_no": "3188-13-4", "cn_name": "\u6c2f\u7532\u57fa\u4e59\u919a", "en_name": ["(Chloromethoxy)ethane", "Ethane, (chloromethoxy)-", "Ether, chloromethyl ethyl", "(Chloromethoxy)ethane", "Chloromethyl ethyl ether", "Ethoxymethyl chloride", "Ethyl chloromethyl ether", "Ethoxychloromethane"], "SMILES": "O(CC)CCl", "physical_data": {"Molecular Weight": "94.54", "Molecular Formula": "C3H7ClO", "Boiling Point": "83 \u00b0C", "Density": "1.0188 g/cm\u00b3 @ Temp: 15 \u00b0C"}}