{"cas_no": "3188-00-9", "cn_name": "2-\u7532\u57fa\u56db\u6c22\u544b\u5583-3-\u916e", "en_name": ["Dihydro-2-methyl-3(2H)-furanone", "3(2H)-Furanone, dihydro-2-methyl-", "Dihydro-2-methyl-3(2H)-furanone", "2-Methyltetrahydrofuran-3-one", "2-Methyl-3-ketotetrahydrofuran", "Dihydro-2-methyl-3-furanone", "2-Methyl-3-oxotetrahydrofuran", "2-Methyl-2H-furan-3-one", "2-Methyloxolan-3-one", "2-Methyldihydrofuran-3(2H)-one", "2-Methyldihydrofuran-3-one", "2-Methyltetrahydrofuran-3-ketone"], "SMILES": "O=C1C(C)OCC1", "physical_data": {"Molecular Weight": "100.12", "Molecular Formula": "C5H8O2", "Boiling Point": "139 \u00b0C"}}