{"cas_no": "3189-13-7", "cn_name": "6-\u7532\u6c27\u57fa\u5432\u54da", "en_name": ["6-Methoxyindole", "1H-Indole, 6-methoxy-", "Indole, 6-methoxy-", "6-Methoxy-1H-indole", "6-Methoxyindole", "NSC 92517", "6-(Methyloxy)-1H-indole"], "SMILES": "O(C)C=1C=C2C(=CC1)C=CN2", "physical_data": {"Molecular Weight": "147.17", "Molecular Formula": "C9H9NO", "Melting Point": "91-92 \u00b0C"}}