{"cas_no": "3189-43-3", "cn_name": "\u56db\u6c30\u57fa\u73af\u6c27\u4e59\u70f7", "en_name": ["2,2,3,3-Oxiranetetracarbonitrile", "2,2,3,3-Oxiranetetracarbonitrile", "1,1,2,2-Ethanetetracarbonitrile, 1,2-epoxy-", "Oxiranetetracarbonitrile", "Tetracyanoethylene oxide", "Tetracyanooxirane"], "SMILES": "C(#N)C1(C#N)C(C#N)(C#N)O1", "physical_data": {"Molecular Weight": "144.09", "Molecular Formula": "C6N4O", "Melting Point": "177-178 \u00b0C"}}