{"cas_no": "3189-22-8", "cn_name": "7-\u7532\u6c27\u57fa\u5432\u54da", "en_name": ["7-Methoxyindole", "1H-Indole, 7-methoxy-", "Indole, 7-methoxy-", "7-Methoxy-1H-indole", "7-Methoxyindole", "NSC 100739", "7-(Methyloxy)-1H-indole"], "SMILES": "O(C)C1=C2C(C=CN2)=CC=C1", "physical_data": {"Molecular Weight": "147.17", "Molecular Formula": "C9H9NO", "Boiling Point": "157 \u00b0C @ Press: 17 Torr"}}