{"cas_no": "319-86-8", "cn_name": "D-\u516d\u516d\u516d", "en_name": ["\u03b4-Hexachlorocyclohexane", "Cyclohexane, 1,2,3,4,5,6-hexachloro-, (1\u03b1,2\u03b1,3\u03b1,4\u03b2,5\u03b1,6\u03b2)-", "Cyclohexane, 1,2,3,4,5,6-hexachloro-, \u03b4-", "(1\u03b1,2\u03b1,3\u03b1,4\u03b2,5\u03b1,6\u03b2)-1,2,3,4,5,6-Hexachlorocyclohexane", "\u03b4-BHC", "\u03b4-Hexachlorocyclohexane", "\u03b4-1,2,3,4,5,6-Hexachlorocyclohexane", "\u03b4-Lindane", "\u03b4-HCH", "\u03b4-Benzene hexachloride", "\u03b4-666", "Delta-BHC"], "SMILES": "ClC1C(Cl)C(Cl)C(Cl)C(Cl)C1Cl", "physical_data": {"Molecular Weight": "290.83", "Molecular Formula": "C6H6Cl6", "Boiling Point": "60 \u00b0C @ Press: 0.50 Torr", "Melting Point": "141.5 \u00b0C"}}