{"cas_no": "319-84-6", "cn_name": "ALPHA-\u516d\u516d\u516d", "en_name": ["\u03b1-Hexachlorocyclohexane", "Cyclohexane, 1,2,3,4,5,6-hexachloro-, (1\u03b1,2\u03b1,3\u03b2,4\u03b1,5\u03b2,6\u03b2)-", "Cyclohexane, 1,2,3,4,5,6-hexachloro-, \u03b1-", "(1\u03b1,2\u03b1,3\u03b2,4\u03b1,5\u03b2,6\u03b2)-1,2,3,4,5,6-Hexachlorocyclohexane", "\u03b1-BHC", "\u03b1-Hexachlorocyclohexane", "\u03b1-1,2,3,4,5,6-Hexachlorocyclohexane", "\u03b1-Lindane", "\u03b1-Hexachloran", "\u03b1-Benzenehexachloride", "\u03b1-HCH", "\u03b1-Hexachlorane", "\u03b1-Hexachlorcyclohexane", "\u03b1-Benzohexachloride", "\u03b1-666", "(\u00b1)-\u03b1-HCH", "(\u00b1)-\u03b1-Hexachlorocyclohexane"], "SMILES": "ClC1C(Cl)C(Cl)C(Cl)C(Cl)C1Cl", "physical_data": {"Molecular Weight": "290.83", "Molecular Formula": "C6H6Cl6", "Boiling Point": "288 \u00b0C", "Melting Point": "159-160 \u00b0C", "Density": "1.87 g/cm\u00b3 @ Temp: 20 \u00b0C"}}