{"cas_no": "319-03-9", "cn_name": "4-\u6c1f\u90bb\u82ef\u4e8c\u7532\u9178\u9150", "en_name": ["4-Fluorophthalic anhydride", "1,3-Isobenzofurandione, 5-fluoro-", "Phthalic anhydride, 4-fluoro-", "5-Fluoro-1,3-isobenzofurandione", "4-Fluorophthalic anhydride", "NSC 42091", "5-Fluoroisobenzofuran-1,3-dione", "5-Fluoro-1,3-dihydro-2-benzofuran-1,3-dione", "4-Fluorophthalic acid anhydride"], "SMILES": "O=C1C=2C(C(=O)O1)=CC=C(F)C2", "physical_data": {"Molecular Weight": "166.11", "Molecular Formula": "C8H3FO3", "Boiling Point": "260 \u00b0C @ Press: 746 Torr", "Melting Point": "76-78 \u00b0C"}}