{"cas_no": "319-85-7", "cn_name": "BETA-\u516d\u516d\u516d", "en_name": ["\u03b2-Hexachlorocyclohexane", "Cyclohexane, 1,2,3,4,5,6-hexachloro-, (1\u03b1,2\u03b2,3\u03b1,4\u03b2,5\u03b1,6\u03b2)-", "Cyclohexane, 1,2,3,4,5,6-hexachloro-, \u03b2-", "(1\u03b1,2\u03b2,3\u03b1,4\u03b2,5\u03b1,6\u03b2)-1,2,3,4,5,6-Hexachlorocyclohexane", "\u03b2-BHC", "\u03b2-Hexachlorocyclohexane", "\u03b2-1,2,3,4,5,6-Hexachlorocyclohexane", "\u03b2-Lindane", "\u03b2-Benzene hexachloride", "\u03b2-HCH", "\u03b2-Hexachlorobenzene", "\u03b2-Hexachloran", "\u03b2-666"], "SMILES": "ClC1C(Cl)C(Cl)C(Cl)C(Cl)C1Cl", "physical_data": {"Molecular Weight": "290.83", "Molecular Formula": "C6H6Cl6", "Boiling Point": "60 \u00b0C @ Press: 0.50 Torr", "Melting Point": "309 \u00b0C", "Density": "1.89 g/cm\u00b3 @ Temp: 19 \u00b0C"}}