{"cas_no": "319-88-0", "cn_name": "1\uff0c3\uff0c5-\u4e09\u6c2f\u4e09\u6c1f\u5316\u82ef", "en_name": ["1,3,5-Trichloro-2,4,6-trifluorobenzene", "Benzene, 1,3,5-trichloro-2,4,6-trifluoro-", "1,3,5-Trichloro-2,4,6-trifluorobenzene", "sym-Trichlorotrifluorobenzene", "1,3,5-Trichlorotrifluorobenzene", "sym-Trifluorotrichlorobenzene", "2,4,6-Trifluorotrichlorobenzene", "1,3,5-Trifluorotrichlorobenzene", "NSC 109622"], "SMILES": "ClC1=C(F)C(Cl)=C(F)C(Cl)=C1F", "physical_data": {"Molecular Weight": "235.42", "Molecular Formula": "C6Cl3F3", "Boiling Point": "198.4 \u00b0C", "Melting Point": "63 \u00b0C"}}