{"cas_no": "319-89-1", "cn_name": "\u56db\u7f9f\u57fa\u82ef\u918c", "en_name": ["Tetrahydroxy-p-benzoquinone", "2,5-Cyclohexadiene-1,4-dione, 2,3,5,6-tetrahydroxy-", "p-Benzoquinone, 2,3,5,6-tetrahydroxy-", "p-Benzoquinone, tetrahydroxy-", "Quinone, tetrahydroxy-", "2,3,5,6-Tetrahydroxy-2,5-cyclohexadiene-1,4-dione", "HPEK-1", "Kelox", "Tetrahydroxy-p-benzoquinone", "Tetroquinone", "Tetrahydroxyquinone", "Tetrahydroxy-1,4-benzoquinone", "Tetrahydroxy-p-quinone", "2,3,5,6-Tetrahydroxy-p-benzoquinone", "Tetrahydroxyparabenzoquinone", "Terasin", "THQ", "2,3,5,6-Tetrahydroxybenzoquinone", "Tetrahydroxybenzoquinone", "2,3,5,6-Tetrahydroxy-1,4-benzoquinone", "NSC 112931"], "SMILES": "O=C1C(O)=C(O)C(=O)C(O)=C1O", "physical_data": {"Molecular Weight": "172.09", "Molecular Formula": "C6H4O6", "Melting Point": "&gt;300 \u00b0C"}}