{"cas_no": "319-78-8", "cn_name": "D-\u5f02\u4eae\u6c28\u9178", "en_name": ["D-Isoleucine", "D-Isoleucine", "Isoleucine, D-", "(R)-Isoleucine", "(2R,3R)-2-Amino-3-methylpentanoic acid", "(2R,3R)-2-Amino-3-methylpentanoic acid"], "SMILES": "C(C(CC)C)(C(O)=O)N", "physical_data": {"Molecular Weight": "131.17", "Molecular Formula": "C6H13NO2", "Melting Point": "283-284 \u00b0C (decomp)"}}