{"cas_no": "3190-71-4", "cn_name": "\u8c37\u6c28\u9178 5-\u82c4\u916f N-\u7fa7\u57fa\u73af\u5185\u9178\u9150", "en_name": ["\u03b3-Benzyl L-glutamate N-carboxyanhydride", "4-Oxazolidinepropanoic acid, 2,5-dioxo-, phenylmethyl ester, (4S)-", "4-Oxazolidinepropionic acid, 2,5-dioxo-, benzyl ester, L-", "4-Oxazolidinepropanoic acid, 2,5-dioxo-, phenylmethyl ester, (S)-", "\u03b3-Benzyl L-glutamate N-carboxyanhydride", "\u03b3-Benzyl glutamate N-carboxyanhydride", "5-Benzyl L-glutamate N-carboxyanhydride", "\u03b3-Benzyl L-N-carboxyglutamic anhydride", "N-Carboxy-\u03b3-benzyl-L-glutamate anhydride", "\u03b3-Benzyl N-carboxy-L-glutamic anhydride", "\u03b3-Benzyl-L-glutamic acid carboxyanhydride", "(+)-(S)-Glutamic acid \u03b3-benzyl ester N-carboxyanhydride", "\u03b3-Benzyl L-glutamate-N-carboxylic anhydride", "\u03b3-Benzyl glutamate NCA", "L-Glutamic acid-\u03b3-benzyl ester N-carboxyanhydride", "L-\u03b3-Benzylglutamic acid carboxyanhydride", "\u03b3-Benzyl-N-carboxy-L-glutamate anhydride", "\u03b3-Benzyl-L-glutamic acid N-carboxyanhydride", "L-Glutamic acid carboxyanhydride \u03b3-benzyl ester", "N-Carboxyanhydride \u03b3-benzyl L-glutamate", "Benzyl glutamate N-carboxyanhydride"], "SMILES": "C(CC(OCC1=CC=CC=C1)=O)C2NC(=O)OC2=O", "physical_data": {"Molecular Weight": "263.25", "Molecular Formula": "C13H13NO5", "Melting Point": "96.5-97.5 \u00b0C"}}