{"cas_no": "3190-70-3", "cn_name": "(S)-(-)-4-\u5f02\u4e01\u57fa\u6c27\u6c2e\u6742\u73af\u620a\u70f7-2,5-\u4e8c\u916e", "en_name": ["L-Leucine N-carboxy anhydride", "2,5-Oxazolidinedione, 4-(2-methylpropyl)-, (4S)-", "2,5-Oxazolidinedione, 4-isobutyl-, L-", "2,5-Oxazolidinedione, 4-(2-methylpropyl)-, (S)-", "(4S)-4-(2-Methylpropyl)-2,5-oxazolidinedione", "N-Carboxyleucine anhydride", "N-Carboxy-L-leucine anhydride", "L-Leucine N-carboxy anhydride", "(S)-4-(2-Methylpropyl)-2,5-oxazolidinedione", "NSC 351903", "L-Leucine NCA", "N-Carboxyanhydride L-leucine", "(S)-4-Isobutyloxazolidine-2,5-dione"], "SMILES": "C(C(C)C)C1NC(=O)OC1=O", "physical_data": {"Molecular Weight": "157.17", "Molecular Formula": "C7H11NO3", "Melting Point": "76.5-78 \u00b0C"}}