{"cas_no": "31906-04-4", "cn_name": "\u65b0\u94c3\u5170\u919b", "en_name": ["Liral", "3-Cyclohexene-1-carboxaldehyde, 4-(4-hydroxy-4-methylpentyl)-", "4-(4-Hydroxy-4-methylpentyl)-3-cyclohexene-1-carboxaldehyde", "4-(4-Hydroxy-4-methylpentyl)-3-cyclohexenecarboxaldehyde", "4-(4-Methyl-4-hydroxyamyl)cyclohex-3-ene carboxaldehyde", "Liral", "Landolal"], "SMILES": "C(CCC(C)(C)O)C=1CCC(C=O)CC1", "physical_data": {"Molecular Weight": "210.31", "Molecular Formula": "C13H22O2", "Boiling Point": "120 \u00b0C @ Press: 1 Torr", "Density": "0.9941 g/cm\u00b3"}}