{"cas_no": "31904-29-7", "cn_name": "\u6b63\u4e01\u57fa\u4e8c\u8302\u94c1", "en_name": ["Butylferrocene", "Ferrocene, butyl-", "Iron, (butylcyclopentadienyl)cyclopentadienyl-", "Butylferrocene", "n-Butylferrocene", "n-Butylcyclopentadienyl(cyclopentadienyl)iron"], "SMILES": "C(CCC)[C-]12[Fe+2]3456789([CH]1=[CH]3[CH]4=[CH]52)[CH-]%10[CH]6=[CH]7[CH]8=[CH]9%10", "physical_data": {"Molecular Weight": "", "Molecular Formula": "C14H18Fe", "Boiling Point": "108 \u00b0C @ Press: 3.5 Torr", "Density": "1.1859 g/cm\u00b3 @ Temp: 20 \u00b0C"}}