{"cas_no": "3191-86-4", "cn_name": "3-\u8f9b\u9187", "en_name": ["5-(2-Methylpropyl)-1-phenyl-1H-pyrazole", "1H-Pyrazole, 5-(2-methylpropyl)-1-phenyl-", "Pyrazole, 5-isobutyl-1-phenyl-", "5-(2-Methylpropyl)-1-phenyl-1H-pyrazole"], "SMILES": "C(C(C)C)C=1N(N=CC1)C2=CC=CC=C2", "physical_data": {"Molecular Weight": "200.28", "Molecular Formula": "C13H16N2", "Boiling Point": "115-120 \u00b0C @ Press: 0.1 Torr"}}