{"cas_no": "31910-18-6", "cn_name": "2,3-\u4e8c\u7f9f\u57fa-6-\u7532\u6c27\u57fa\u55b9\u5594\u5549", "en_name": ["1,4-Dihydro-6-methoxy-2,3-quinoxalinedione", "2,3-Quinoxalinedione, 1,4-dihydro-6-methoxy-", "2,3-Quinoxalinediol, 6-methoxy-", "2(1H)-Quinoxalinone, 3-hydroxy-6-methoxy-", "1,4-Dihydro-6-methoxy-2,3-quinoxalinedione"], "SMILES": "O(C)C=1C=C2C(NC(=O)C(=O)N2)=CC1", "physical_data": {"Molecular Weight": "192.17", "Molecular Formula": "C9H8N2O3", "Melting Point": "350 \u00b0C"}}