{"cas_no": "31928-47-9", "cn_name": "4-\u6eb4-2-\u6c2f\u7898\u82ef", "en_name": ["4-Bromo-2-chloro-1-iodobenzene", "Benzene, 4-bromo-2-chloro-1-iodo-", "4-Bromo-2-chloro-1-iodobenzene", "1-Bromo-3-chloro-4-iodobenzene", "4-Bromo-2-chloroiodobenzene", "3-Chloro-4-iodobromobenzene"], "SMILES": "ClC1=C(I)C=CC(Br)=C1", "physical_data": {"Molecular Weight": "317.35", "Molecular Formula": "C6H3BrClI", "Melting Point": "33 \u00b0C"}}