{"cas_no": "31928-44-6", "cn_name": "2-\u6eb4-4-\u6c2f-1-\u7898\u82ef", "en_name": ["2-Bromo-4-chloro-1-iodobenzene", "Benzene, 2-bromo-4-chloro-1-iodo-", "2-Bromo-4-chloro-1-iodobenzene", "2-Bromo-1-iodo-4-chlorobenzene", "1-Bromo-5-chloro-2-iodobenzene", "4-Chloro-1-iodo-2-bromobenzene", "2-Bromo-4-chloroiodobenzene", "5-Chloro-2-iodo-1-bromobenzene", "1-Bromo-3-chloro-6-iodobenzene"], "SMILES": "BrC1=C(I)C=CC(Cl)=C1", "physical_data": {"Molecular Weight": "317.35", "Molecular Formula": "C6H3BrClI", "Melting Point": "31-33 \u00b0C"}}