{"cas_no": "31938-07-5", "cn_name": "3-\u6eb4\u6c30\u82c4", "en_name": ["(3-Bromophenyl)acetonitrile", "Benzeneacetonitrile, 3-bromo-", "Acetonitrile, (m-bromophenyl)-", "3-Bromobenzeneacetonitrile", "m-Bromobenzyl cyanide", "(3-Bromophenyl)acetonitrile", "3-Bromobenzyl cyanide", "1-Bromo-3-cyanomethylbenzene", "3-Bromobenzylnitrile", "2-(3-Bromophenyl)acetonitrile"], "SMILES": "C(C#N)C1=CC(Br)=CC=C1", "physical_data": {"Molecular Weight": "196.04", "Molecular Formula": "C8H6BrN", "Boiling Point": "135-138 \u00b0C @ Press: 8 Torr"}}