{"cas_no": "31938-11-1", "cn_name": "O-\u4e09\u82ef\u7532\u57fa\u7f9f\u80fa", "en_name": ["O-(Triphenylmethyl)hydroxylamine", "Hydroxylamine, O-(triphenylmethyl)-", "O-(Triphenylmethyl)hydroxylamine", "(Trityloxy)amine", "O-Tritylhydroxylamine", "(Triphenylmethoxy)amine", "[[Triphenylmethyl]oxy]amine", "O-Tritylhydroxlamine"], "SMILES": "C(ON)(C1=CC=CC=C1)(C2=CC=CC=C2)C3=CC=CC=C3", "physical_data": {"Molecular Weight": "275.34", "Molecular Formula": "C19H17NO", "Melting Point": "83-88 \u00b0C"}}