{"cas_no": "3194-55-6", "cn_name": "\u516d\u6eb4\u73af\u5341\u4e8c\u70f7", "en_name": ["1,2,5,6,9,10-Hexabromocyclododecane", "Cyclododecane, 1,2,5,6,9,10-hexabromo-", "1,2,5,6,9,10-Hexabromocyclododecane", "Bromkal 73-6D", "YM 88A", "FR 1206HT", "FR 1206", "Pyroguard SR 104", "SR 104"], "SMILES": "BrC1C(Br)CCC(Br)C(Br)CCC(Br)C(Br)CC1", "physical_data": {"Molecular Weight": "641.70", "Molecular Formula": "C12H18Br6", "Melting Point": "185-195 \u00b0C"}}