{"cas_no": "3194-70-5", "cn_name": "4\uff0c6-\u4e09\u6c28-1\uff0c3\uff0c5-\u4e09\u55ea", "en_name": ["6-Ethenyl-1,3,5-triazine-2,4-diamine", "1,3,5-Triazine-2,4-diamine, 6-ethenyl-", "s-Triazine, 2,4-diamino-6-vinyl-", "6-Ethenyl-1,3,5-triazine-2,4-diamine", "6-Vinylguanamine", "2,4-Diamino-6-vinyl-1,3,5-triazine", "2,4-Diamino-6-vinyl-s-triazine", "2-Vinyl-4,6-diamino-s-triazine", "4,6-Diamino-2-vinyl-s-triazine", "VT (crosslinking agent)", "VT", "2,4-Diamino-6-vinyltriazine", "2-Vinyl-4,6-diamino-1,3,5-triazine", "Curezol VT", "4,6-Diamino-2-vinyl-1,3,5-triazine"], "SMILES": "C(=C)C=1N=C(N)N=C(N)N1", "physical_data": {"Molecular Weight": "137.14", "Molecular Formula": "C5H7N5", "Melting Point": "239-241 \u00b0C"}}