{"cas_no": "3194-17-0", "cn_name": "2-\u620a\u9170\u544b\u5583", "en_name": ["2-Pentanoylfuran", "1-Pentanone, 1-(2-furanyl)-", "1-Pentanone, 1-(2-furyl)-", "1-(2-Furanyl)-1-pentanone", "Butyl 2-furyl ketone", "2-Valerylfuran", "2-Pentanoylfuran", "NSC 27359"], "SMILES": "C(CCCC)(=O)C1=CC=CO1", "physical_data": {"Molecular Weight": "152.19", "Molecular Formula": "C9H12O2", "Boiling Point": "108-109 \u00b0C", "Density": "1.012 g/cm\u00b3 @ Temp: 25 \u00b0C"}}