{"cas_no": "31949-21-0", "cn_name": "\u90bb\u7532\u6c27\u57fa-2-\u6eb4\u82ef\u4e59\u916e", "en_name": ["2-Bromo-1-(2-methoxyphenyl)ethanone", "Ethanone, 2-bromo-1-(2-methoxyphenyl)-", "Acetophenone, 2-bromo-2\u2032-methoxy-", "2-Bromo-1-(2-methoxyphenyl)ethanone", "Bromomethyl o-methoxyphenyl ketone", "2-Bromo-2\u2032-methoxyacetophenone", "o-Methoxyphenacylbromide", "2-Methoxyphenacyl bromide", "\u03c9-Bromo-2-methoxyacetophenone", "\u03b1-Bromo-2-methoxyacetophenone", "2\u2032-Methoxy-2-bromoacetophenone", "1-(2-Methoxyphenyl)-2-bromoethanone", "2-(Bromoacetyl)anisole", "2-Bromo-1-(2-methoxyphenyl)ethan-1-one", "Bromo-2\u2032-methoxyacetophenone", "o-Methoxy-2-bromoacetophenone"], "SMILES": "C(CBr)(=O)C1=C(OC)C=CC=C1", "physical_data": {"Molecular Weight": "229.07", "Molecular Formula": "C9H9BrO2", "Melting Point": "42-43 \u00b0C"}}