{"cas_no": "3194-15-8", "cn_name": "2-\u4e19\u9170\u544b\u5583", "en_name": ["2-Propionylfuran", "1-Propanone, 1-(2-furanyl)-", "1-Propanone, 1-(2-furyl)-", "1-(2-Furanyl)-1-propanone", "2-Propionylfuran", "Ethyl 2-furyl ketone", "2-Furyl ethyl ketone", "1-(2-Furyl)-1-propanone", "NSC 27357"], "SMILES": "C(CC)(=O)C1=CC=CO1", "physical_data": {"Molecular Weight": "124.14", "Molecular Formula": "C7H8O2", "Boiling Point": "86.2 \u00b0C @ Press: 20 Torr", "Melting Point": "28 \u00b0C", "Density": "1.0587 g/cm\u00b3 @ Temp: 29.5 \u00b0C"}}