{"cas_no": "3195-24-2", "cn_name": "\u4e8c\u70ef\u4e19\u57fa\u4e19\u4e8c\u9178\u4e8c\u4e59\u916f", "en_name": ["Diethyl diallylmalonate", "Propanedioic acid, 2,2-di-2-propen-1-yl-, 1,3-diethyl ester", "Malonic acid, diallyl-, diethyl ester", "Propanedioic acid, di-2-propenyl-, diethyl ester", "Diethyl diallylmalonate", "Diethyl 2,2-diallylmalonate", "Diethyl diallylpropanedioate", "Di-2-propenylpropanedioic acid diethyl ester", "NSC 30683", "NSC 46842", "2,2-(Diallyl)malonic acid diethyl ester", "Diethyl-2-allyl-2-butenylmalonate"], "SMILES": "C(C(OCC)=O)(C(OCC)=O)(CC=C)CC=C", "physical_data": {"Molecular Weight": "240.30", "Molecular Formula": "C13H20O4", "Boiling Point": "243.5 \u00b0C"}}