{"cas_no": "3195-78-6", "cn_name": "N-\u7532\u57fa-N-\u4e59\u70ef\u57fa\u4e59\u9170\u80fa", "en_name": ["N-Methyl-N-vinylacetamide", "Acetamide, N-ethenyl-N-methyl-", "Acetamide, N-methyl-N-vinyl-", "N-Ethenyl-N-methylacetamide", "N-Methyl-N-vinylacetamide", "N-Vinyl-N-methylacetamide"], "SMILES": "N(C(C)=O)(C=C)C", "physical_data": {"Molecular Weight": "99.13", "Molecular Formula": "C5H9NO", "Boiling Point": "64-66 \u00b0C @ Press: 17 Torr"}}