{"cas_no": "3196-15-4", "cn_name": "2-\u6eb4\u4e01\u9178\u7532\u916f", "en_name": ["Butanoic acid, 2-bromo-, methyl ester", "Butanoic acid, 2-bromo-, methyl ester", "Butyric acid, 2-bromo-, methyl ester", "Methyl 2-bromobutanoate", "Methyl 2-bromobutyrate", "Methyl \u03b1-bromobutyrate", "2-Bromobutyric acid methyl ester", "(\u00b1)-Methyl 2-bromobutanoate", "\u03b1-Bromobutanoic acid methyl ester", "NSC 21974", "(dl)-(Methyl 2-bromobutyrate)", "2-Bromobutanoic acid methyl ester"], "SMILES": "C(C(OC)=O)(CC)Br", "physical_data": {"Molecular Weight": "181.03", "Molecular Formula": "C5H9BrO2", "Boiling Point": "168 \u00b0C", "Melting Point": "116 \u00b0C", "Density": "1.4022 g/cm\u00b3 @ Temp: 25 \u00b0C"}}