{"cas_no": "3197-25-9", "cn_name": "2-(4-\u6c27\u4ee3\u620a\u57fa)-1H-\u5f02\u5432\u54da-1,3(2H)-\u4e8c\u916e", "en_name": ["2-(4-Oxopentyl)-1H-isoindole-1,3(2H)-dione", "1H-Isoindole-1,3(2H)-dione, 2-(4-oxopentyl)-", "Phthalimide, N-(4-oxopentyl)-", "2-(4-Oxopentyl)-1H-isoindole-1,3(2H)-dione", "1-Phthalimidopentan-4-one", "5-Phthalimido-2-pentanone", "1-N-Phthalimidopentan-4-one", "NSC 38564", "N-(4-Oxopentyl)phthalimide", "2-(4-Oxopentyl)isoindoline-1,3-dione", "2-(4-Oxopentyl)-2,3-dihydro-1H-isoindole-1,3-dione", "2-(4-Oxopentyl)isoindole-1,3-dione"], "SMILES": "O=C1C=2C(C(=O)N1CCCC(C)=O)=CC=CC2", "physical_data": {"Molecular Weight": "231.25", "Molecular Formula": "C13H13NO3", "Boiling Point": "168-170 \u00b0C @ Press: 0.2 Torr", "Melting Point": "75-76 \u00b0C"}}