{"cas_no": "3197-06-6", "cn_name": "N,N-\u53cc(2-\u7f9f\u4e59\u57fa)\u4e59\u4e8c\u80fa", "en_name": ["N,N-Bis(2-hydroxyethyl)ethylenediamine", "Ethanol, 2,2\u2032-[(2-aminoethyl)imino]bis-", "Ethanol, 2,2\u2032-[(2-aminoethyl)imino]di-", "2,2\u2032-[(2-Aminoethyl)imino]bis[ethanol]", "N,N-Bis(2-hydroxyethyl)ethanediamine", "N-(2-Aminoethyl)diethanolamine", "N,N-Bis(2-hydroxyethyl)-1,2-diaminoethane", "2-Bis[(2-hydroxyethyl)amino]ethylamine", "N,N-Bis(2-hydroxyethyl)ethylenediamine", "N,N-Di(2-hydroxyethyl)ethylenediamine", "2-Amino-N,N-bis(2-hydroxyethyl)ethylamine", "NSC 29614", "(2-Aminoethyl)bis(2-hydroxyethyl)amine", "2,2\u2032-[(2-Aminoethyl)imino]bisethanol", "[2-(Diethanolamino)ethyl]amine", "2,2\u2032((2-Aminoethyl)azanediyl)diethanol", "2-[(2-Aminoethyl)(2-hydroxyethyl)amino]ethanol", "2-[(2-Aminoethyl)(2-hydroxyethyl)amino]ethan-1-ol", "2-[2-Aminoethyl(2-hydroxyethyl)amino]ethanol"], "SMILES": "N(CCN)(CCO)CCO", "physical_data": {"Molecular Weight": "148.20", "Molecular Formula": "C6H16N2O2", "Boiling Point": "170 \u00b0C"}}