{"cas_no": "3198-15-0", "cn_name": "\u76d0\u9178\u53bb\u7532\u9ebb\u9ec4\u78b1", "en_name": ["Benzenemethanol, \u03b1-[(1S)-1-aminoethyl]-, hydrochloride (1:1), (\u03b1R)-", "Benzenemethanol, \u03b1-[(1S)-1-aminoethyl]-, hydrochloride (1:1), (\u03b1R)-", "Norephedrine, hydrochloride, (-)-", "Benzenemethanol, \u03b1-(1-aminoethyl)-, hydrochloride, [R-(R*,S*)]-", "Benzenemethanol, \u03b1-[(1S)-1-aminoethyl]-, hydrochloride, (\u03b1R)-", "D-(-)-Norephedrine hydrochloride", "l-Norephedrine hydrochloride", "l-Phenylpropanolamine hydrochloride", "(-)-Norephedrine hydrochloride", "(1R,2S)-(-)-Norephedrine hydrochloride", "(1R,2S)-Norephedrine hydrochloride", "NSC 24522"], "SMILES": "C(C(C)N)(O)C1=CC=CC=C1.Cl", "physical_data": {"Molecular Weight": "", "Molecular Formula": "C9H13NO.ClH", "Melting Point": "170-172 \u00b0C"}}