{"cas_no": "31981-44-9", "cn_name": "19-\u53bb\u7532-3,20-\u4e8c\u916e-\u5b55\u753e-4-\u70ef-17-\u918b\u9178\u916f", "en_name": ["17\u03b1-Acetoxy-19-norprogesterone", "19-Norpregn-4-ene-3,20-dione, 17-(acetyloxy)-", "19-Norpregn-4-ene-3,20-dione, 17-hydroxy-, acetate", "17-(Acetyloxy)-19-norpregn-4-ene-3,20-dione", "17-Acetoxy-19-norpregn-4-en-3,20-dione", "17-Acetoxy-19-norpregn-4-ene-3,20-dione", "17-Acetoxy-19-norprogesterone", "17\u03b1-Acetoxy-19-norprogesterone"], "SMILES": "O(C(C)=O)C1(C(C)=O)C2(C)C(CC1)C3C(CC2)C4C(CC3)=CC(=O)CC4", "physical_data": {"Molecular Weight": "358.47", "Molecular Formula": "C22H30O4", "Melting Point": "227-229 \u00b0C"}}