{"cas_no": "3198-49-0", "cn_name": "\u4e59\u57fa BETA-D-\u5421\u5583\u8461\u8404\u7cd6\u82f7", "en_name": ["Ethyl \u03b2-D-glucopyranoside", "\u03b2-D-Glucopyranoside, ethyl", "Glucopyranoside, ethyl, \u03b2-D-", "Glucopyranoside, ethyl", "Ethyl \u03b2-D-glucopyranoside", "1-O-Ethyl-\u03b2-D-glucopyranoside", "Ethyl D-glucopyranoside", "Sucraph AG 6202"], "SMILES": "O(CC)C1OC(CO)C(O)C(O)C1O", "physical_data": {"Molecular Weight": "208.21", "Molecular Formula": "C8H16O6", "Melting Point": "73 \u00b0C"}}