{"cas_no": "320-51-4", "cn_name": "2-\u6c2f-5-\u6c28\u57fa\u4e09\u6c1f\u7532\u82ef", "en_name": ["4-Chloro-3-(trifluoromethyl)aniline", "Benzenamine, 4-chloro-3-(trifluoromethyl)-", "m-Toluidine, 4-chloro-\u03b1,\u03b1,\u03b1-trifluoro-", "4-Chloro-3-(trifluoromethyl)benzenamine", "4-Chloro-3-(trifluoromethyl)aniline", "3-(Trifluoromethyl)-4-chloroaniline", "4-Chloro-\u03b1,\u03b1,\u03b1-trifluoro-m-toluidine", "5-Amino-2-chlorobenzotrifluoride", "3-Amino-6-chlorobenzotrifluoride", "NSC 61405", "(4-Chloro-3-trifluoromethylphenyl)amine", "2-Chloro-5-aminobenzotrifluoride", "3-Trifluoromethyl-4-chlorophenylamine"], "SMILES": "C(F)(F)(F)C1=C(Cl)C=CC(N)=C1", "physical_data": {"Molecular Weight": "195.57", "Molecular Formula": "C7H5ClF3N", "Boiling Point": "132 \u00b0C @ Press: 27 Torr", "Melting Point": "36-37 \u00b0C"}}