{"cas_no": "320-65-0", "cn_name": "2-\u6c1f\u82ef\u4e9a\u7532\u57fa\u6c2f", "en_name": ["1-(Dichloromethyl)-2-fluorobenzene", "Benzene, 1-(dichloromethyl)-2-fluoro-", "Toluene, \u03b1,\u03b1-dichloro-o-fluoro-", "1-(Dichloromethyl)-2-fluorobenzene", "o-Fluorobenzal chloride", "NSC 60714", "1-Dichloromethyl-2-fluorobenzene", "2-Fluoro(dichloromethyl)benzene"], "SMILES": "C(Cl)(Cl)C1=C(F)C=CC=C1", "physical_data": {"Molecular Weight": "179.02", "Molecular Formula": "C7H5Cl2F", "Boiling Point": "71.6 \u00b0C @ Press: 13 Torr", "Density": "1.3094 g/cm\u00b3 @ Temp: 18.7 \u00b0C"}}