{"cas_no": "320-72-9", "cn_name": "3,5-\u4e8c\u6c2f\u6c34\u6768\u9178", "en_name": ["3,5-Dichlorosalicylic acid", "Benzoic acid, 3,5-dichloro-2-hydroxy-", "Salicylic acid, 3,5-dichloro-", "3,5-Dichloro-2-hydroxybenzoic acid", "3,5-Dichlorosalicylic acid", "2-Hydroxy-3,5-dichlorobenzoic acid", "NSC 30109"], "SMILES": "C(O)(=O)C1=C(O)C(Cl)=CC(Cl)=C1", "physical_data": {"Molecular Weight": "207.01", "Molecular Formula": "C7H4Cl2O3", "Melting Point": "220-221 \u00b0C"}}