{"cas_no": "320-37-6", "cn_name": "4-\u785d\u57fa-2-(\u4e09\u6c1f\u7532\u57fa)\u82ef\u7532\u9178", "en_name": ["4-Nitro-2-(trifluoromethyl)benzoic acid", "Benzoic acid, 4-nitro-2-(trifluoromethyl)-", "o-Toluic acid, \u03b1,\u03b1,\u03b1-trifluoro-4-nitro-", "4-Nitro-2-(trifluoromethyl)benzoic acid", "4-Nitro-2-trifluoromethylbenzoic acid"], "SMILES": "C(F)(F)(F)C1=C(C(O)=O)C=CC(N(=O)=O)=C1", "physical_data": {"Molecular Weight": "235.12", "Molecular Formula": "C8H4F3NO4", "Melting Point": "137-140 \u00b0C"}}