{"cas_no": "320-67-2", "cn_name": "5-\u6c2e\u6742\u80de\u82f7", "en_name": ["Azacytidine", "1,3,5-Triazin-2(1H)-one, 4-amino-1-\u03b2-D-ribofuranosyl-", "s-Triazin-2(1H)-one, 4-amino-1-\u03b2-D-ribofuranosyl-", "4-Amino-1-\u03b2-D-ribofuranosyl-1,3,5-triazin-2(1H)-one", "Antibiotic U 18496", "5-Azacytidine", "U 18496", "NSC 102816", "Azacitidine", "Azacytidine", "NSC 103-627", "5-AZCR", "Mylosar", "5-AC", "WR 183027", "5-AzaC", "5-AZC", "Ladakamycin", "Ledakamycin", "Vidaza", "CC 486", "5-Azacitidine", "AZA", "AZA (azacitidine)", "Azacitidine (AZA)", "MeSH ID: D001374"], "SMILES": "OC1C(OC(CO)C1O)N2C(=O)N=C(N)N=C2", "physical_data": {"Molecular Weight": "244.20", "Molecular Formula": "C8H12N4O5", "Melting Point": "228-230 \u00b0C (decomp)"}}