{"cas_no": "320-98-9", "cn_name": "5-\u6c1f-2-\u785d\u57fa\u82ef\u7532\u9178", "en_name": ["5-Fluoro-2-nitrobenzoic acid", "Benzoic acid, 5-fluoro-2-nitro-", "5-Fluoro-2-nitrobenzoic acid", "2-Nitro-5-fluorobenzoic acid", "5-Fluoro-2-nitrobenzenecarboxylic acid", "3-Fluoro-6-nitrobenzoic acid"], "SMILES": "N(=O)(=O)C1=C(C(O)=O)C=C(F)C=C1", "physical_data": {"Molecular Weight": "185.11", "Molecular Formula": "C7H4FNO4", "Melting Point": "134.5 \u00b0C"}}