{"cas_no": "320-75-2", "cn_name": "2-BROMO-4-FLUORO-6-NITROPHENOL", "en_name": ["2-Bromo-4-fluoro-6-nitrophenol", "Phenol, 2-bromo-4-fluoro-6-nitro-", "2-Bromo-4-fluoro-6-nitrophenol", "6-Bromo-4-fluoro-2-nitrophenol"], "SMILES": "N(=O)(=O)C1=C(O)C(Br)=CC(F)=C1", "physical_data": {"Molecular Weight": "236.00", "Molecular Formula": "C6H3BrFNO3", "Melting Point": "67 \u00b0C"}}