{"cas_no": "320-76-3", "cn_name": "4-\u6eb4-2-\u6c1f-6-\u785d\u57fa\u82ef\u915a", "en_name": ["4-Bromo-2-fluoro-6-nitrophenol", "Phenol, 4-bromo-2-fluoro-6-nitro-", "4-Bromo-2-fluoro-6-nitrophenol", "2-Fluoro-4-bromo-6-nitrophenol"], "SMILES": "N(=O)(=O)C1=C(O)C(F)=CC(Br)=C1", "physical_data": {"Molecular Weight": "236.00", "Molecular Formula": "C6H3BrFNO3", "Melting Point": "62 \u00b0C"}}