{"cas_no": "320-60-5", "cn_name": "2,4-\u4e8c\u6c2f\u4e09\u6c1f\u7532\u82ef", "en_name": ["2,4-Dichlorobenzotrifluoride", "Benzene, 2,4-dichloro-1-(trifluoromethyl)-", "Toluene, 2,4-dichloro-\u03b1,\u03b1,\u03b1-trifluoro-", "2,4-Dichloro-1-(trifluoromethyl)benzene", "1,3-Dichloro-4-(trifluoromethyl)benzene", "2,4-Dichlorobenzotrifluoride", "2,4-Dichloro-\u03b1,\u03b1,\u03b1-trifluorotoluene", "2,4-Dichloro(trifluoromethyl)benzene"], "SMILES": "C(F)(F)(F)C1=C(Cl)C=C(Cl)C=C1", "physical_data": {"Molecular Weight": "215.00", "Molecular Formula": "C7H3Cl2F3", "Boiling Point": "177.52 \u00b0C", "Melting Point": "-26 \u00b0C"}}