{"cas_no": "32002-24-7", "cn_name": "3,3-\u4e8c\u4e59\u6c27\u57fa\u4e19\u70ef\u9178\u4e59\u916f", "en_name": ["Ethyl 3,3-diethoxy-2-propenoate", "2-Propenoic acid, 3,3-diethoxy-, ethyl ester", "Acrylic acid, 3-oxo-, ethyl ester, diethyl acetal", "Ethyl 3,3-diethoxy-2-propenoate", "Ethyl \u03b2,\u03b2-diethoxyacrylate", "Carbethoxyketene diethyl acetal", "Ethyl 3,3-diethoxyacrylate", "3,3-Diethoxyacrylic acid ethyl ester"], "SMILES": "C(=CC(OCC)=O)(OCC)OCC", "physical_data": {"Molecular Weight": "188.22", "Molecular Formula": "C9H16O4", "Boiling Point": "127.8-128.2 \u00b0C @ Press: 13 Torr", "Density": "1.0350 g/cm\u00b3 @ Temp: 13 \u00b0C"}}