{"cas_no": "3200-06-4", "cn_name": "\u8418\u544b\u80fa\u916f\u8349\u9178\u76d0", "en_name": ["Naftidrofuryl oxalate", "2-Furanpropanoic acid, tetrahydro-\u03b1-(1-naphthalenylmethyl)-, 2-(diethylamino)ethyl ester, ethanedioate (1:1)", "2-Furanpropionic acid, tetrahydro-\u03b1-(1-naphthylmethyl)-, 2-(diethylamino)ethyl ester oxalate (1:1)", "Nafronyl oxalate", "Naftidrofuryl oxalate", "Praxilene", "LS 121", "Dusodril", "Dubimax", "EU 1806", "Iridus", "Naphtidrofuryl oxalate", "Di-Actane", "Citoxid", "Nafronyl acid oxalate", "NSC 225233"], "SMILES": "C(C(O)=O)(O)=O.C(C(CC1CCCO1)C(OCCN(CC)CC)=O)C=2C3=C(C=CC2)C=CC=C3", "physical_data": {"Molecular Weight": "", "Molecular Formula": "C24H33NO3.C2H2O4", "Melting Point": "110-111 \u00b0C"}}