{"cas_no": "32017-76-8", "cn_name": "(\u00b1)-4-\u6eb4\u82ef\u4e59\u70ef\u73af\u6c27\u5316\u7269", "en_name": ["2-(4-Bromophenyl)oxirane", "Oxirane, 2-(4-bromophenyl)-", "Oxirane, (4-bromophenyl)-", "Benzene, 1-bromo-4-(epoxyethyl)-", "Oxirane, (4-bromophenyl)-, (\u00b1)-", "2-(4-Bromophenyl)oxirane", "p-Bromostyrene oxide", "4-Bromostyrene epoxide", "4-Bromostyrene oxide", "(p-Bromophenyl)oxirane", "2-(p-Bromophenyl)oxirane", "(4-Bromophenyl)oxirane", "(\u00b1)-(4-Bromophenyl)oxirane"], "SMILES": "BrC1=CC=C(C2CO2)C=C1", "physical_data": {"Molecular Weight": "199.04", "Molecular Formula": "C8H7BrO", "Boiling Point": "80.5 \u00b0C @ Press: 0.8 Torr", "Melting Point": "26 \u00b0C", "Density": "1.5039 g/cm\u00b3 @ Temp: 35 \u00b0C"}}