{"cas_no": "32018-88-5", "cn_name": "5-\u6c28\u57fa\u8418-1-\u7532\u9178", "en_name": ["5-Amino-1-naphthalenecarboxylic acid", "1-Naphthalenecarboxylic acid, 5-amino-", "1-Naphthoic acid, 5-amino-", "5-Amino-1-naphthalenecarboxylic acid", "5-Amino-1-naphthoic acid", "1-Aminonaphthalene-5-carboxylic acid"], "SMILES": "C(O)(=O)C=1C2=C(C(N)=CC=C2)C=CC1", "physical_data": {"Molecular Weight": "187.19", "Molecular Formula": "C11H9NO2", "Melting Point": "201-202 \u00b0C"}}