{"cas_no": "32024-15-0", "cn_name": "4,5-\u4e8c\u7532\u6c27\u57fa-3-\u7898\u82ef\u7532\u919b", "en_name": ["3-Iodo-4,5-dimethoxybenzaldehyde", "Benzaldehyde, 3-iodo-4,5-dimethoxy-", "Veratraldehyde, 5-iodo-", "3-Iodo-4,5-dimethoxybenzaldehyde", "5-Iodoveratraldehyde", "5-Iodoveratrum aldehyde", "5-Iodo-3,4-dimethoxybenzaldehyde", "3,4-Dimethoxy-5-iodobenzaldehyde", "4,5-Dimethoxy-3-iodobenzaldehyde"], "SMILES": "O(C)C1=C(OC)C(I)=CC(C=O)=C1", "physical_data": {"Molecular Weight": "292.07", "Molecular Formula": "C9H9IO3", "Boiling Point": "134-137 \u00b0C @ Press: 0.8 Torr", "Melting Point": "73 \u00b0C"}}