{"cas_no": "320345-99-1", "cn_name": "\u963f\u5730\u6eb4\u94f5", "en_name": ["Aclidinium bromide", "1-Azoniabicyclo[2.2.2]octane, 3-[(2-hydroxy-2,2-di-2-thienylacetyl)oxy]-1-(3-phenoxypropyl)-, bromide (1:1), (3R)-", "1-Azoniabicyclo[2.2.2]octane, 3-[(hydroxydi-2-thienylacetyl)oxy]-1-(3-phenoxypropyl)-, bromide, (3R)-", "Aclidinium bromide", "LAS 34273", "LAS-W 330", "(3R)-(2-Hydroxy-2,2-dithien-2-ylacetoxy)-1-(3-phenoxypropyl)-1-azoniabicyclo[2.2.2]octane bromide", "Genuair", "Eklira Genuair", "Bretaris Genuair"], "SMILES": "C(CCOC1=CC=CC=C1)[N+]23CC(OC(C(O)(C4=CC=CS4)C5=CC=CS5)=O)C(CC2)CC3.[Br-]", "physical_data": {"Molecular Weight": "", "Molecular Formula": "C26H30NO4S2.Br", "Melting Point": "230 \u00b0C"}}