{"cas_no": "32042-43-6", "cn_name": "DL-\u7cbe\u6c28\u9178\u76d0\u9178\u76d0(\u4e00\u6c34)", "en_name": ["Arginine hydrochloride (1:?)", "Arginine, hydrochloride (1:?)", "DL-Arginine, hydrochloride", "Arginine, hydrochloride", "Arginine hydrochloride (1:?)"], "SMILES": "C(CCNC(=N)N)C(C(O)=O)N.Cl", "physical_data": {"Molecular Weight": "", "Molecular Formula": "C6H14N4O2.xClH", "Melting Point": "208 \u00b0C"}}