{"cas_no": "3204-73-7", "cn_name": "4-(2-\u7f9f\u57fa\u4e59\u6c27\u57fa)\u82ef\u7532\u9178\u7532\u916f", "en_name": ["Benzoic acid, 4-(2-hydroxyethoxy)-, methyl ester", "Benzoic acid, 4-(2-hydroxyethoxy)-, methyl ester", "Benzoic acid, p-(2-hydroxyethoxy)-, methyl ester", "Methyl p-(2-hydroxyethoxy)benzoate", "Methyl 4-(2-hydroxyethoxy)benzoate", "Methyl p-(\u03b2-hydroxyethoxy)benzoate", "Methyl 4-(\u03b2-hydroxyethoxy)benzoate", "4-(2-Hydroxyethoxy)benzoic acid methyl ester", "Methyl 4-(2\u2032-hydroxyethoxy)benzoate"], "SMILES": "C(OC)(=O)C1=CC=C(OCCO)C=C1", "physical_data": {"Molecular Weight": "196.20", "Molecular Formula": "C10H12O4", "Boiling Point": "195-200 \u00b0C @ Press: 3-5 Torr", "Melting Point": "68 \u00b0C"}}