{"cas_no": "32047-53-3", "cn_name": "1-\u6c28\u57fa-2-\u7532\u57fa\u4e19\u70f7-2-\u786b\u9187", "en_name": ["2-Propanethiol, 1-amino-2-methyl-, hydrochloride (1:1)", "2-Propanethiol, 1-amino-2-methyl-, hydrochloride (1:1)", "2-Propanethiol, 1-amino-2-methyl-, hydrochloride", "2-Methyl-3-aminopropane-2-thiol hydrochloride", "1-Amino-2-methyl-2-propanethiol hydrochloride", "2-Mercapto-2-methyl-1-propylamine hydrochloride"], "SMILES": "C(CN)(C)(C)S.Cl", "physical_data": {"Molecular Weight": "", "Molecular Formula": "C4H11NS.ClH", "Melting Point": "202-203 \u00b0C"}}