{"cas_no": "32046-51-8", "cn_name": "2-\u7532\u57fa-5-\u785d\u57fa\u82ef\u5e76\u5641\u5511", "en_name": ["2-Methyl-5-nitrobenzoxazole", "Benzoxazole, 2-methyl-5-nitro-", "2-Methyl-5-nitrobenzoxazole", "2-Methyl-5-nitro-1,3-benzoxazole", "2-Methyl-5-nitro-benzooxazole"], "SMILES": "N(=O)(=O)C=1C=C2C(=CC1)OC(C)=N2", "physical_data": {"Molecular Weight": "178.14", "Molecular Formula": "C8H6N2O3", "Melting Point": "154.7-155.5 \u00b0C"}}