{"cas_no": "3204-68-0", "cn_name": "\u4e8c\u7532\u57fa\u82c4\u57fa\u82ef\u57fa\u6c2f\u5316\u94f5", "en_name": ["Benzenemethanaminium, N,N-dimethyl-N-phenyl-, chloride (1:1)", "Benzenemethanaminium, N,N-dimethyl-N-phenyl-, chloride (1:1)", "Ammonium, benzyldimethylphenyl-, chloride", "Benzenemethanaminium, N,N-dimethyl-N-phenyl-, chloride", "Benzyldimethylphenylammonium chloride", "Phenyldimethylbenzylammonium chloride", "Dimethylphenylbenzylammonium chloride", "N-Benzyl-N,N-dimethylanilinium chloride", "Dimethylbenzylanilinium chloride", "Leucotrope O", "Leukotrope", "Benzyldimethylanilinium chloride"], "SMILES": "C([N+](C)(C)C1=CC=CC=C1)C2=CC=CC=C2.[Cl-]", "physical_data": {"Molecular Weight": "", "Molecular Formula": "C15H18N.Cl", "Melting Point": "108-110 \u00b0C"}}