{"cas_no": "3204-27-1", "cn_name": "\u7279\u4e50\u916f", "en_name": ["Dinoterb acetate", "Phenol, 2-(1,1-dimethylethyl)-4,6-dinitro-, 1-acetate", "Phenol, 2-tert-butyl-4,6-dinitro-, acetate (ester)", "Phenol, 2-(1,1-dimethylethyl)-4,6-dinitro-, acetate (ester)", "Phenol, 2-tert-butyl-4,6-dinitro-, acetate", "MC 1108", "2-tert-Butyl-4,6-dinitrophenyl acetate", "Dinoterb acetate", "Dinoil"], "SMILES": "O(C(C)=O)C1=C(C(C)(C)C)C=C(N(=O)=O)C=C1N(=O)=O", "physical_data": {"Molecular Weight": "282.25", "Molecular Formula": "C12H14N2O6", "Melting Point": "133.0-134.5 \u00b0C"}}