{"cas_no": "32057-09-3", "cn_name": "\u6c22\u6c1f\u9178", "en_name": ["Hydrofluoric acid", "Hydrofluoric acid", "Anhydrous hydrofluoric acid", "Fluorhydric acid", "Hydrofluoric acid gas", "Hydrogen fluoride (HF)", "Hydrogen fluoride", "Antisal 2b", "Fluorine monohydride", "Hydrogen monofluoride", "Fluorine hydride (FH)", "Fluoric acid", "Alsurf 45", "G-C Hydrofluoride Gel", "Vita ceramic etch", "Ultradent Porcelain Etch", "Porcelain Conditioner", "SA-X"], "SMILES": "F", "physical_data": {"Molecular Weight": "", "Molecular Formula": "FH", "Boiling Point": "20 \u00b0C", "Melting Point": "-83.36 \u00b0C", "Density": "0.991 g/cm\u00b3 @ Temp: 19.54 \u00b0C"}}