{"cas_no": "3205-35-4", "cn_name": "\u53cd-1,2-\u73af\u5df1\u57fa-\u4e8c\u7fa7\u9178\u4e8c\u7532\u916f", "en_name": ["rel-1,2-Dimethyl (1R,2R)-1,2-cyclohexanedicarboxylate", "1,2-Cyclohexanedicarboxylic acid, 1,2-dimethyl ester, (1R,2R)-rel-", "1,2-Cyclohexanedicarboxylic acid, dimethyl ester, trans-", "rel-1,2-Dimethyl (1R,2R)-1,2-cyclohexanedicarboxylate", "trans-Dimethyl 1,2-cyclohexanedicarboxylate", "NSC 250349", "trans-1,2-Cyclohexanedicarboxylic acid dimethyl ester", "Dimethyl trans-1,2-cyclohexanedicarboxylate"], "SMILES": "C(OC)(=O)C1C(C(OC)=O)CCCC1", "physical_data": {"Molecular Weight": "200.23", "Molecular Formula": "C10H16O4", "Boiling Point": "135-135.5 \u00b0C @ Press: 17 Torr"}}