{"cas_no": "3206-73-3", "cn_name": "DL-\u786b\u8f9b\u9170\u80fa", "en_name": ["Lipoamide", "1,2-Dithiolane-3-pentanamide", "\u03b1-Lipamide", "1,2-Dithiolane-3-valeramide", "\u03b1-Lipoamide", "Lipoamide", "Thioctamide", "Lipamide", "5-(1,2-Dithiolan-3-yl)valeramide", "Lipoacin", "Lipoamid", "Lipoicin", "Pathoclon", "Thioami", "Thioctamid", "Thiotomin", "Ticolin", "Vitamin N", "Thioctic acid amide", "Thioctic amide", "5-(1,2-Dithiolan-3-yl)pentanamide", "DL-Lipoamide", "(\u00b1)-1,2-Dithiolane-3-valeramide", "(\u00b1)-1,2-Dithiolane-3-pentanamide", "(\u00b1)-Thioctic acid amide", "DL-6,8-Thioctamide", "NSC 90787", "DL-\u03b1-Lipoic acid amide"], "SMILES": "C(CCCC(N)=O)C1CCSS1", "physical_data": {"Molecular Weight": "205.34", "Molecular Formula": "C8H15NOS2", "Melting Point": "124-126 \u00b0C"}}