{"cas_no": "3207-12-3", "cn_name": "2-\u6c28\u57fa-2-\u7532\u57fa-1-\u4e19\u9187\u76d0\u9178\u76d0", "en_name": ["1-Propanol, 2-amino-2-methyl-, hydrochloride (1:1)", "1-Propanol, 2-amino-2-methyl-, hydrochloride (1:1)", "1-Propanol, 2-amino-2-methyl-, hydrochloride", "2-Amino-2-methylpropanol hydrochloride", "2-Amino-2-methyl-1-propanol hydrochloride", "2-Hydroxy-1,1-dimethylethylamine hydrochloride", "Catalyst AC", "1-Hydroxymethyl-1-methylethanaminium chloride"], "SMILES": "C(CO)(C)(C)N.Cl", "physical_data": {"Molecular Weight": "", "Molecular Formula": "C4H11NO.ClH", "Melting Point": "200-201 \u00b0C"}}