{"cas_no": "3208-16-0", "cn_name": "2-\u4e59\u57fa\u544b\u5583", "en_name": ["2-Ethylfuran", "Furan, 2-ethyl-", "2-Ethylfuran", "\u03b1-Ethylfuran"], "SMILES": "C(C)C1=CC=CO1", "physical_data": {"Molecular Weight": "96.13", "Molecular Formula": "C6H8O", "Boiling Point": "92 \u00b0C", "Density": "0.912 g/cm\u00b3 @ Temp: 13 \u00b0C"}}