{"cas_no": "3209-22-1", "cn_name": "2,3-\u4e8c\u6c2f\u785d\u57fa\u82ef", "en_name": ["2,3-Dichloronitrobenzene", "Benzene, 1,2-dichloro-3-nitro-", "1,2-Dichloro-3-nitrobenzene", "2,3-Dichloro-1-nitrobenzene", "2,3-Dichloronitrobenzene", "NSC 60641"], "SMILES": "N(=O)(=O)C1=C(Cl)C(Cl)=CC=C1", "physical_data": {"Molecular Weight": "192.00", "Molecular Formula": "C6H3Cl2NO2", "Boiling Point": "257.5 \u00b0C", "Melting Point": "61.5 \u00b0C", "Density": "1.721 g/cm\u00b3 @ Temp: 14 \u00b0C"}}