{"cas_no": "3209-72-1", "cn_name": "5-\u7532\u57fa-3-\u5f02\u5641\u5511\u7fa7\u9178\u4e59\u916f", "en_name": ["Ethyl 5-methylisoxazole-3-carboxylate", "3-Isoxazolecarboxylic acid, 5-methyl-, ethyl ester", "Ethyl 5-methylisoxazole-3-carboxylate", "5-Methylisoxazole-3-carboxylic acid ethyl ester", "Ethyl 5-methylisoxazle-3-carboxylate"], "SMILES": "C(OCC)(=O)C1=NOC(C)=C1", "physical_data": {"Molecular Weight": "155.15", "Molecular Formula": "C7H9NO3", "Boiling Point": "130 \u00b0C @ Press: 33 Torr"}}