{"cas_no": "3209-71-0", "cn_name": "3-\u5f02\u6076\u5511\u7532\u9178", "en_name": ["3-Isoxazolecarboxylic acid", "3-Isoxazolecarboxylic acid", "1,2-Oxazole-3-carboxylic acid"], "SMILES": "C(O)(=O)C=1C=CON1", "physical_data": {"Molecular Weight": "113.07", "Molecular Formula": "C4H3NO3", "Melting Point": "149 \u00b0C"}}