{"cas_no": "3209-13-0", "cn_name": "3-\u7532\u6c27\u57fa-5-\u7532\u57fa\u82ef\u915a", "en_name": ["3-Methoxy-5-methylphenol", "Phenol, 3-methoxy-5-methyl-", "m-Cresol, 5-methoxy-", "3-Methoxy-5-methylphenol", "3-Hydroxy-5-methoxytoluene", "Orcinol monomethyl ether", "Orsin monomethyl ether", "3-Methyl-5-methoxyphenol", "O-Methylorcinol", "orcinyle", "Orcinyl-3"], "SMILES": "O(C)C1=CC(C)=CC(O)=C1", "physical_data": {"Molecular Weight": "138.16", "Molecular Formula": "C8H10O2", "Boiling Point": "259 \u00b0C @ Press: 755 Torr", "Melting Point": "135-137 \u00b0C", "Density": "1.1106 g/cm\u00b3 @ Temp: 15 \u00b0C"}}