{"cas_no": "3209-46-9", "cn_name": "5-\u6c28\u57fa\u620a\u57fa-\u4e8c\u7532\u57fa-\u80fa", "en_name": ["N,N-Dimethyl-1,5-pentanediamine", "1,5-Pentanediamine, N1,N1-dimethyl-", "1,5-Pentanediamine, N,N-dimethyl-", "N1,N1-Dimethyl-1,5-pentanediamine", "N,N-Dimethyl-1,5-pentanediamine", "N,N-Dimethylpentamethylenediamine", "5-Dimethylaminopentylamine", "5-(Dimethylamino)amylamine", "Dimethylaminopentylamine", "(5-Aminopentyl)dimethylamine", "N1,N1-Dimethylpentane-1,5-diamine"], "SMILES": "C(CN(C)C)CCCN", "physical_data": {"Molecular Weight": "130.23", "Molecular Formula": "C7H18N2", "Boiling Point": "79-80 \u00b0C @ Press: 16 Torr", "Melting Point": "85 \u00b0C"}}