{"cas_no": "321-54-0", "cn_name": "\u8747\u6bd2\u78f7-OXON", "en_name": ["Coumaphos oxon", "Phosphoric acid, 3-chloro-4-methyl-2-oxo-2H-1-benzopyran-7-yl diethyl ester", "Coumarin, 3-chloro-7-hydroxy-4-methyl-, diethyl phosphate", "Umbelliferone, 3-chloro-4-methyl-, diethyl phosphate", "3-Chloro-4-methylumbelliferone diethyl phosphate", "Coroxon", "Diethyl 3-chloro-4-methylcoumarin-7-yl phosphate", "O,O-Diethyl O-(3-chloro-4-methylcoumarin-7-yl) phosphate", "Coumaphos O-analog", "Coralox", "Coumaphoxon", "Coumaphos oxon", "Co-ral O-analog"], "SMILES": "CC=1C=2C(=CC(OP(OCC)(OCC)=O)=CC2)OC(=O)C1Cl", "physical_data": {"Molecular Weight": "346.70", "Molecular Formula": "C14H16ClO6P", "Melting Point": "68-69 \u00b0C"}}