{"cas_no": "321-37-9", "cn_name": "4'-\u6c2f-2,2,2-\u4e09\u6c1f\u82ef\u4e59\u916e", "en_name": ["1-(4-Chlorophenyl)-2,2,2-trifluoroethanone", "Ethanone, 1-(4-chlorophenyl)-2,2,2-trifluoro-", "Acetophenone, 4\u2032-chloro-2,2,2-trifluoro-", "1-(4-Chlorophenyl)-2,2,2-trifluoroethanone", "p-Chloro-\u03b1,\u03b1,\u03b1-trifluoroacetophenone", "4\u2032-Chloro-\u03b1,\u03b1,\u03b1-trifluoroacetophenone", "\u03b1,\u03b1,\u03b1-Trifluoro-p-chloroacetophenone", "p-Chlorophenyl trifluoromethyl ketone", "Trifluoromethyl 4-chlorophenyl ketone", "4\u2032-Chloro-2,2,2-trifluoroacetophenone", "4-Chlorophenyl trifluoromethyl ketone", "NSC 405747", "2,2,2-Trifluoro-4\u2032-chloroacetophenone", "1-Chloro-4-(trifluoroacetyl)benzene", "4-Chloro-\u03b1,\u03b1,\u03b1-trifluoroacetophenone", "2,2,2-Trifluoro-1-(4-chlorophenyl)ethanone", "1-(4-Chlorophenyl)-2,2,2-trifluoro-1-ethanone", "1-(4-Chlorophenyl)-2,2,2-trifluoroethan-1-one"], "SMILES": "C(C(F)(F)F)(=O)C1=CC=C(Cl)C=C1", "physical_data": {"Molecular Weight": "208.57", "Molecular Formula": "C8H4ClF3O", "Boiling Point": "180-183 \u00b0C @ Press: 760 Torr", "Melting Point": "26 \u00b0C"}}