{"cas_no": "321-97-1", "cn_name": "\u5de6\u65cb\u4f2a\u9ebb\u9ec4\u78b1", "en_name": ["(-)-Pseudoephedrine", "Benzenemethanol, \u03b1-[(1R)-1-(methylamino)ethyl]-, (\u03b1R)-", "Pseudoephedrine, (-)-", "Benzenemethanol, \u03b1-[1-(methylamino)ethyl]-, [R-(R*,R*)]-", "(\u03b1R)-\u03b1-[(1R)-1-(Methylamino)ethyl]benzenemethanol", "D-(-)-Pseudoephedrine", "(-)-Pseudoephedrine", "l-Pseudoephedrine", "(-)-\u03c8-Ephedrine", "(1R,2R)-Ephedrine", "(-)-threo-Ephedrine", "(1R,2R)-Pseudoephedrine", "(1R,2R)-(-)-Pseudoephedrine", "D-Pseudoephedrine", "(-)-(1R,2R)-Pseudoephedrine", "CPDD 0049", "l-(1R,2R)-Pseudoephedrine", "(R,R)-Pseudoephedrine"], "SMILES": "C(C(NC)C)(O)C1=CC=CC=C1", "physical_data": {"Molecular Weight": "165.23", "Molecular Formula": "C10H15NO", "Melting Point": "119 \u00b0C"}}