{"cas_no": "321-38-0", "cn_name": "1-\u6c1f\u8418", "en_name": ["1-Fluoronaphthalene", "Naphthalene, 1-fluoro-", "1-Fluoronaphthalene", "\u03b1-Fluoronaphthalene", "NSC 4690"], "SMILES": "FC=1C2=C(C=CC1)C=CC=C2", "physical_data": {"Molecular Weight": "146.16", "Molecular Formula": "C10H7F", "Boiling Point": "215 \u00b0C", "Melting Point": "-9 \u00b0C", "Density": "1.1339 g/cm\u00b3 @ Temp: 19 \u00b0C"}}