{"cas_no": "321-17-5", "cn_name": "2-\u6eb4-4,5-\u4e8c\u6c1f\u785d\u57fa\u82ef", "en_name": ["1-Bromo-4,5-difluoro-2-nitrobenzene", "Benzene, 1-bromo-4,5-difluoro-2-nitro-", "1-Bromo-4,5-difluoro-2-nitrobenzene", "2-Bromo-4,5-difluoronitrobenzene"], "SMILES": "N(=O)(=O)C1=C(Br)C=C(F)C(F)=C1", "physical_data": {"Molecular Weight": "237.99", "Molecular Formula": "C6H2BrF2NO2", "Boiling Point": "72-74 \u00b0C @ Press: 4 Torr"}}