{"cas_no": "321-28-8", "cn_name": "2-\u6c1f\u82ef\u7532\u919a", "en_name": ["2-Fluoroanisole", "Benzene, 1-fluoro-2-methoxy-", "Anisole, o-fluoro-", "1-Fluoro-2-methoxybenzene", "o-Fluoroanisole", "2-Fluoroanisole", "2-Fluoromethoxybenzene", "2-Fluoro-1-methoxybenzene", "2-Methoxyfluorobenzene", "NSC 10339"], "SMILES": "O(C)C1=C(F)C=CC=C1", "physical_data": {"Molecular Weight": "126.13", "Molecular Formula": "C7H7FO", "Boiling Point": "154.5 \u00b0C", "Melting Point": "-39 \u00b0C", "Density": "1.1240 g/cm\u00b3 @ Temp: 25.00 \u00b0C"}}