{"cas_no": "321-14-2", "cn_name": "5-\u6c2f\u4ee3\u6c34\u6768\u9178", "en_name": ["5-Chlorosalicylic acid", "Benzoic acid, 5-chloro-2-hydroxy-", "Salicylic acid, 5-chloro-", "5-Chloro-2-hydroxybenzoic acid", "5-Chlorosalicylic acid", "2-Hydroxy-5-chlorobenzoic acid", "NSC 30111"], "SMILES": "C(O)(=O)C1=C(O)C=CC(Cl)=C1", "physical_data": {"Molecular Weight": "172.57", "Molecular Formula": "C7H5ClO3", "Melting Point": "171.5 \u00b0C"}}