{"cas_no": "321-60-8", "cn_name": "2-\u6c1f\u8054\u82ef", "en_name": ["2-Fluorobiphenyl", "1,1\u2032-Biphenyl, 2-fluoro-", "Biphenyl, 2-fluoro-", "2-Fluoro-1,1\u2032-biphenyl", "2-Fluorobiphenyl", "o-Fluorodiphenyl", "NSC 10366", "1-Fluoro-2-phenylbenzene"], "SMILES": "FC1=C(C2=CC=CC=C2)C=CC=C1", "physical_data": {"Molecular Weight": "172.20", "Molecular Formula": "C12H9F", "Boiling Point": "248 \u00b0C", "Melting Point": "73.5 \u00b0C"}}