{"cas_no": "321-64-2", "cn_name": "\u4ed6\u514b\u6797", "en_name": ["Tacrine", "9-Acridinamine, 1,2,3,4-tetrahydro-", "Acridine, 9-amino-1,2,3,4-tetrahydro-", "Acridine, 9-aminotetrahydro-", "1,2,3,4-Tetrahydro-9-acridinamine", "9-Amino-1,2,3,4-tetrahydroacridine", "Tacrine", "Tetrahydroaminacrine", "Tetrahydroaminocrine", "Tetrahydroaminoacridine", "Tetrahydroaminocrin", "1,2,3,4-Tetrahydro-9-aminoacridine", "THA", "1,2,3,4-Tetrahydro-acridin-9-ylamine", "MeSH ID: D013619"], "SMILES": "NC1=C2C(=NC=3C1=CC=CC3)CCCC2", "physical_data": {"Molecular Weight": "198.26", "Molecular Formula": "C13H14N2", "Melting Point": "183.5 \u00b0C"}}