{"cas_no": "321-30-2", "cn_name": "1H-\u560c\u5464-6-\u80fa\u786b\u9178\u76d0", "en_name": ["Adenine sulfate", "9H-Purin-6-amine, sulfate (2:1)", "1H-Purin-6-amine, sulfate (2:1)", "Adenine, sulfate (2:1)", "Adenine sulfate", "Adenine hemisulfate", "Adeninium sulfate"], "SMILES": "NC1=C2C(=NC=N1)N=CN2.S(=O)(=O)(O)O", "physical_data": {"Molecular Weight": "", "Molecular Formula": "C5H5N5.<sup>1</sup>/2H2O4S", "Melting Point": "&gt;285 \u00b0C (decomp)"}}