{"cas_no": "321-23-3", "cn_name": "2-\u6c1f-4-\u6eb4\u785d\u57fa\u82ef", "en_name": ["4-Bromo-2-fluoro-1-nitrobenzene", "Benzene, 4-bromo-2-fluoro-1-nitro-", "4-Bromo-2-fluoro-1-nitrobenzene", "1-Bromo-3-fluoro-4-nitrobenzene", "4-Bromo-2-fluoronitrobenzene", "2-Fluoro-4-bromonitrobenzene", "1-Bromo-4-nitro-3-fluorobenzene", "4-Nitro-3-fluoro-1-bromobenzene", "3-Fluoro-4-nitro-1-bromobenzene"], "SMILES": "N(=O)(=O)C1=C(F)C=C(Br)C=C1", "physical_data": {"Molecular Weight": "220.00", "Molecular Formula": "C6H3BrFNO2", "Melting Point": "85-86 \u00b0C"}}