{"cas_no": "32111-34-5", "cn_name": "4-(2-\u5421\u5576\u57fa)\u82ef\u8148", "en_name": ["4-(2-Pyridinyl)benzonitrile", "Benzonitrile, 4-(2-pyridinyl)-", "Benzonitrile, p-2-pyridyl-", "4-(2-Pyridinyl)benzonitrile", "4-(2-Pyridyl)benzonitrile"], "SMILES": "C(#N)C1=CC=C(C=C1)C2=CC=CC=N2", "physical_data": {"Molecular Weight": "180.21", "Molecular Formula": "C12H8N2", "Melting Point": "91-92 \u00b0C"}}