{"cas_no": "3211-76-5", "cn_name": "L-\u7852\u4ee3\u86cb\u6c28\u9178", "en_name": ["L-Selenomethionine", "Butanoic acid, 2-amino-4-(methylseleno)-, (2S)-", "Butyric acid, 2-amino-4-(methylselenyl)-, L-", "Butanoic acid, 2-amino-4-(methylseleno)-, (S)-", "(2S)-2-Amino-4-(methylseleno)butanoic acid", "Seleno-L-methionine", "Selenomethionine", "L-Selenomethionine", "SelenoSource AF 2000", "Selenomax", "SelenoSource AF 600", "SelenoSource AF", "Vitaselenium", "Prince Se Yeast 2000", "(2S)-2-Azaniumyl-4-methylselanylbutanoate"], "SMILES": "C(C(O)=O)(CC[Se]C)N", "physical_data": {"Molecular Weight": "196.11", "Molecular Formula": "C5H11NO2Se", "Melting Point": "275 \u00b0C (decomp)"}}