{"cas_no": "3211-20-9", "cn_name": "\u53cd\u5f0f-1,2-\u73af\u4e01\u8148", "en_name": ["trans-1,2-Dicyanocyclobutane", "1,2-Cyclobutanedicarbonitrile, (1R,2R)-rel-", "1,2-Cyclobutanedicarbonitrile, trans-", "rel-(1R,2R)-1,2-Cyclobutanedicarbonitrile", "trans-1,2-Dicyanocyclobutane", "trans-1,2-Cyclobutanedicarbonitrile", "NSC 73704"], "SMILES": "C(#N)C1C(C#N)CC1", "physical_data": {"Molecular Weight": "106.13", "Molecular Formula": "C6H6N2", "Boiling Point": "115 \u00b0C @ Press: 2 Torr"}}