{"cas_no": "32111-28-7", "cn_name": "2-\u7532\u6c28\u57fa\u5421\u55ea", "en_name": ["N-Methyl-2-pyrazinamine", "2-Pyrazinamine, N-methyl-", "Pyrazinamine, N-methyl-", "N-Methyl-2-pyrazinamine", "2-Methylaminopyrazine"], "SMILES": "N(C)C=1C=NC=CN1", "physical_data": {"Molecular Weight": "109.13", "Molecular Formula": "C5H7N3", "Boiling Point": "76 \u00b0C @ Press: 1 Torr", "Melting Point": "49-50 \u00b0C"}}