{"cas_no": "32122-23-9", "cn_name": "1-\u6eb4\u73af\u4e01\u70f7\u7532\u9178", "en_name": ["1-Bromocyclobutanecarboxylic acid", "Cyclobutanecarboxylic acid, 1-bromo-", "1-Bromocyclobutanecarboxylic acid", "1-Bromocyclobutane-1-carboxylic acid", "NSC 179441"], "SMILES": "C(O)(=O)C1(Br)CCC1", "physical_data": {"Molecular Weight": "179.01", "Molecular Formula": "C5H7BrO2", "Boiling Point": "145-155 \u00b0C @ Press: 40-50 Torr", "Melting Point": "48 \u00b0C"}}