{"cas_no": "3212-60-0", "cn_name": "\u73af\u620a-2-\u70ef\u9187", "en_name": ["2-Cyclopenten-1-ol", "2-Cyclopenten-1-ol", "1-Cyclopenten-3-ol", "Cyclopenten-3-ol", "2-Cyclopentenol", "3-Hydroxycyclopentene", "2-Cyclopenten-1-ol, (\u00b1)-", "NSC 2499"], "SMILES": "OC1CCC=C1", "physical_data": {"Molecular Weight": "84.12", "Molecular Formula": "C5H8O", "Boiling Point": "140 \u00b0C", "Density": "0.9815 g/cm\u00b3 @ Temp: 20 \u00b0C"}}