{"cas_no": "3213-30-7", "cn_name": "3-\u7f9f\u57fa-4-\u7532\u6c27\u57fa\u82ef\u4e59\u80fa", "en_name": ["4-O-Methyldopamine", "Phenol, 5-(2-aminoethyl)-2-methoxy-", "Guaiacol, 5-(2-aminoethyl)-", "5-(2-Aminoethyl)-2-methoxyphenol", "3-Hydroxy-4-methoxyphenethylamine", "p-Methoxydopamine", "3-Hydroxy-4-methoxyphenylethylamine", "4-Methoxy-3-hydroxyphenylethylamine", "4-Methoxy-m-tyramine", "4-O-Methyldopamine", "4-Methoxy-3-hydroxyphenethylamine", "2-(3-Hydroxy-4-methoxyphenyl)ethylamine", "4-Methoxydopamine", "5-(2-Aminoethyl)-2-(methyloxy)phenol"], "SMILES": "C(CN)C1=CC(O)=C(OC)C=C1", "physical_data": {"Molecular Weight": "167.21", "Molecular Formula": "C9H13NO2", "Melting Point": "151-153 \u00b0C"}}