{"cas_no": "32137-19-2", "cn_name": "3,4-\u4e8c\u6c1f\u4e09\u6c1f\u7532\u82ef", "en_name": ["1,2-Difluoro-4-(trifluoromethyl)benzene", "Benzene, 1,2-difluoro-4-(trifluoromethyl)-", "Toluene, \u03b1,\u03b1,\u03b1,3,4-pentafluoro-", "1,2-Difluoro-4-(trifluoromethyl)benzene", "3,4-Difluorobenzotrifluoride", "\u03b1,\u03b1,\u03b1,3,4-Pentafluorotoluene"], "SMILES": "C(F)(F)(F)C1=CC(F)=C(F)C=C1", "physical_data": {"Molecular Weight": "182.09", "Molecular Formula": "C7H3F5", "Boiling Point": "104 \u00b0C @ Press: 760 Torr", "Melting Point": "95-98 \u00b0C"}}