{"cas_no": "3213-29-4", "cn_name": "2,3-\u4e8c\u7532\u6c27\u57fa\u82ef\u4e59\u80fa", "en_name": ["2,3-Dimethoxyphenethylamine", "Benzeneethanamine, 2,3-dimethoxy-", "Phenethylamine, 2,3-dimethoxy-", "2,3-Dimethoxybenzeneethanamine", "2,3-Dimethoxyphenethylamine", "2-(2,3-Dimethoxyphenyl)ethylamine", "2-(2,3-Dimethoxyphenyl)ethanamine", "2-(2,3-Dimethoxyphenyl)ethan-1-amine"], "SMILES": "O(C)C1=C(CCN)C=CC=C1OC", "physical_data": {"Molecular Weight": "181.23", "Molecular Formula": "C10H15NO2", "Boiling Point": "190 \u00b0C @ Press: 70 Torr"}}