{"cas_no": "32136-81-5", "cn_name": "1-(4-\u7f9f\u57fa\u82ef\u57fa)-2-\u7532\u6c27\u57fa\u4e59\u916e", "en_name": ["1-(4-Hydroxyphenyl)-2-methoxyethanone", "Ethanone, 1-(4-hydroxyphenyl)-2-methoxy-", "Acetophenone, 4\u2032-hydroxy-2-methoxy-", "1-(4-Hydroxyphenyl)-2-methoxyethanone", "2-Methoxy-4\u2032-hydroxyacetophenone", "4-Hydroxy-\u03b1-methoxyacetophenone", "2-Methoxy-1-(4-hydroxyphenyl)ethanone", "1-(4-Hydroxyphenyl)-2-methoxyethan-1-one"], "SMILES": "C(COC)(=O)C1=CC=C(O)C=C1", "physical_data": {"Molecular Weight": "166.17", "Molecular Formula": "C9H10O3", "Melting Point": "128-130 \u00b0C"}}