{"cas_no": "32159-21-0", "cn_name": "CBZ-L-\u7126\u8c37\u6c28\u9178", "en_name": ["1-(Phenylmethyl) (2S)-5-oxo-1,2-pyrrolidinedicarboxylate", "1,2-Pyrrolidinedicarboxylic acid, 5-oxo-, 1-(phenylmethyl) ester, (2S)-", "1,2-Pyrrolidinedicarboxylic acid, 5-oxo-, 1-benzyl ester, L-", "1,2-Pyrrolidinedicarboxylic acid, 5-oxo-, 1-(phenylmethyl) ester, (S)-", "1-(Phenylmethyl) (2S)-5-oxo-1,2-pyrrolidinedicarboxylate", "N-Carbobenzoxypyroglutamic acid", "(Benzyloxycarbonyl)-L-pyroglutamic acid", "N-Benzyloxycarbonyl-L-pyroglutamic acid", "Carbobenzoxy-L-pyroglutamic acid", "L-(Phenylmethoxycarbonyl)pyroglutamic acid", "N-Benzyloxycarbonylpyroglutamic acid", "(2S)-5-Oxopyrrolidine-1,2-dicarboxylic acid 1-benzyl ester", "(S)-1-(Benzyloxycarbonyl)-5-oxopyrrolidine-2-carboxylic acid", "(2S)-1-[(Benzyloxy)carbonyl]-5-oxopyrrolidine-2-carboxylic acid"], "SMILES": "C(OCC1=CC=CC=C1)(=O)N2C(C(O)=O)CCC2=O", "physical_data": {"Molecular Weight": "263.25", "Molecular Formula": "C13H13NO5", "Melting Point": "135-136 \u00b0C"}}