{"cas_no": "3215-64-3", "cn_name": "2,6-\u4e8c\u6c2f\u82ef\u4e59\u8148", "en_name": ["2,6-Dichlorobenzeneacetonitrile", "Benzeneacetonitrile, 2,6-dichloro-", "Acetonitrile, (2,6-dichlorophenyl)-", "2,6-Dichlorobenzeneacetonitrile", "(2,6-Dichlorophenyl)acetonitrile", "2,6-Dichlorobenzyl cyanide", "NSC 72901", "2-(2,6-Dichlorophenyl)acetonitrile"], "SMILES": "C(C#N)C1=C(Cl)C=CC=C1Cl", "physical_data": {"Molecular Weight": "186.04", "Molecular Formula": "C8H5Cl2N", "Melting Point": "75-76 \u00b0C"}}