{"cas_no": "3216-48-6", "cn_name": "\u82ef\u5e76[B]\u567b\u5429-3-\u4e59\u8148", "en_name": ["Benzo[b]thiophene-3-acetonitrile", "Benzo[b]thiophene-3-acetonitrile", "3-Benzothienylacetonitrile", "3-Benzothiopheneacetonitrile", "3-(Cyanomethyl)benzo[b]thiophene", "NSC 332302", "(Benzo[b]thiophen-3-yl)acetonitrile", "Thianaphthene-3-acetonirile", "2-(Benzo[b]thien-3-yl)acetonitrile", "2-(1-Benzothiophen-3-yl)acetonitrile"], "SMILES": "C(C#N)C=1C=2C(SC1)=CC=CC2", "physical_data": {"Molecular Weight": "173.23", "Molecular Formula": "C10H7NS", "Boiling Point": "138-140 \u00b0C @ Press: 2 Torr", "Melting Point": "66-67 \u00b0C"}}