{"cas_no": "32161-06-1", "cn_name": "N-\u4e59\u9170\u57fa-4-\u54cc\u5576\u916e", "en_name": ["1-Acetyl-4-piperidone", "4-Piperidinone, 1-acetyl-", "4-Piperidone, 1-acetyl-", "1-Acetyl-4-piperidinone", "1-Acetyl-4-piperidone", "1-Acetyl-4-oxopiperidine", "N-Acetyl-4-piperidinone", "N-Acetyl-4-piperidone"], "SMILES": "C(C)(=O)N1CCC(=O)CC1", "physical_data": {"Molecular Weight": "141.17", "Molecular Formula": "C7H11NO2", "Boiling Point": "218 \u00b0C", "Density": "1.144 g/cm\u00b3"}}