{"cas_no": "3217-15-0", "cn_name": "4-\u6eb4-2,6-\u4e8c\u6c2f\u915a", "en_name": ["4-Bromo-2,6-dichlorophenol", "Phenol, 4-bromo-2,6-dichloro-", "4-Bromo-2,6-dichlorophenol", "2,6-Dichloro-4-bromophenol", "NSC 74624"], "SMILES": "OC1=C(Cl)C=C(Br)C=C1Cl", "physical_data": {"Molecular Weight": "241.90", "Molecular Formula": "C6H3BrCl2O", "Melting Point": "54-58 \u00b0C"}}