{"cas_no": "3218-49-3", "cn_name": "3,4-\u4e8c\u6c2f\u82ef\u4e59\u8148", "en_name": ["3,4-Dichlorobenzeneacetonitrile", "Benzeneacetonitrile, 3,4-dichloro-", "Acetonitrile, (3,4-dichlorophenyl)-", "3,4-Dichlorobenzeneacetonitrile", "(3,4-Dichlorophenyl)acetonitrile", "3,4-Dichlorobenzyl cyanide", "NSC 111725", "2-(3,4-Dichlorophenyl)acetonitrile"], "SMILES": "C(C#N)C1=CC(Cl)=C(Cl)C=C1", "physical_data": {"Molecular Weight": "186.04", "Molecular Formula": "C8H5Cl2N", "Boiling Point": "170 \u00b0C @ Press: 12 Torr", "Melting Point": "41-42 \u00b0C"}}