{"cas_no": "3218-36-8", "cn_name": "\u5bf9\u82ef\u57fa\u82ef\u7532\u919b", "en_name": ["[1,1\u2032-Biphenyl]-4-carboxaldehyde", "[1,1\u2032-Biphenyl]-4-carboxaldehyde", "4-Biphenylcarboxaldehyde", "Benzaldehyde, p-phenyl-", "p-Biphenylylaldehyde", "p-Biphenylcarboxaldehyde", "p-Phenylbenzaldehyde", "4-Phenylbenzaldehyde", "4-Biphenylylcarboxaldehyde", "4-Biphenylaldehyde", "4-Formylbiphenyl", "p-Biphenylaldehyde", "Biphenyl-4-carbaldehyde", "4-Formyl-1,1\u2032-biphenyl", "NSC 46066", "[1,1\u2032-Biphenyl]-4-carbaldehyde"], "SMILES": "C(=O)C1=CC=C(C=C1)C2=CC=CC=C2", "physical_data": {"Molecular Weight": "182.22", "Molecular Formula": "C13H10O", "Boiling Point": "121 \u00b0C", "Melting Point": "60 \u00b0C"}}