{"cas_no": "3218-02-8", "cn_name": "\u73af\u5df1\u7532\u80fa", "en_name": ["Cyclohexanemethanamine", "Cyclohexanemethanamine", "Cyclohexanemethylamine", "Cyclohexylmethanamine", "(Aminomethyl)cyclohexane", "NSC 172991", "1-Cyclohexylmethanamine", "C-Cyclohexyl-methylamine", "Cyclohexylmethyleneamine"], "SMILES": "C(N)C1CCCCC1", "physical_data": {"Molecular Weight": "113.20", "Molecular Formula": "C7H15N", "Boiling Point": "160 \u00b0C", "Melting Point": "162-163 \u00b0C", "Density": "0.8746 g/cm\u00b3 @ Temp: 14 \u00b0C"}}