{"cas_no": "32181-59-2", "cn_name": "N-\u4e59\u9170\u57fa-D-\u4e73\u7cd6\u80fa", "en_name": ["N-Acetyllactosamine", "D-Glucose, 2-(acetylamino)-2-deoxy-4-O-\u03b2-D-galactopyranosyl-", "D-Glucose, 2-acetamido-2-deoxy-4-O-\u03b2-D-galactopyranosyl-", "D-Glucosamine, N-acetyl-4-O-\u03b2-D-galactopyranosyl-", "2-(Acetylamino)-2-deoxy-4-O-\u03b2-D-galactopyranosyl-D-glucose", "N-Acetyllactosamine", "Lactosamine, N-acetyl-", "O-\u03b2-D-Galactopyranosyl-(1\u21924)-2-deoxy-2-acetamido-D-glucose", "N-Acetyl-4-O-\u03b2-D-galactopyranosyl-D-glucosamine", "2-Acetamido-2-deoxy-4-O-\u03b2-D-galactopyranosyl-D-glucose"], "SMILES": "O(C(C(C(NC(C)=O)C=O)O)C(CO)O)C1OC(CO)C(O)C(O)C1O", "physical_data": {"Molecular Weight": "383.35", "Molecular Formula": "C14H25NO11", "Melting Point": "170-185 \u00b0C (decomp)"}}