{"cas_no": "3219-63-4", "cn_name": "\u4e09\u7532\u57fa\u7845\u57fa\u7532\u9187", "en_name": ["1-(Trimethylsilyl)methanol", "Methanol, 1-(trimethylsilyl)-", "Methanol, (trimethylsilyl)-", "1-(Trimethylsilyl)methanol", "(Trimethylsilyl)methanol", "Hydroxymethyltrimethylsilane", "NSC 96777"], "SMILES": "[Si](CO)(C)(C)C", "physical_data": {"Molecular Weight": "104.22", "Molecular Formula": "C4H12OSi", "Boiling Point": "121-122 \u00b0C", "Density": "0.826 g/cm\u00b3 @ Temp: 25 \u00b0C"}}