{"cas_no": "322-79-2", "cn_name": "\u4e09\u6c1f\u918b\u67f3\u9178", "en_name": ["Triflusal", "Benzoic acid, 2-(acetyloxy)-4-(trifluoromethyl)-", "2,4-Cresotic acid, \u03b1,\u03b1,\u03b1-trifluoro-, acetate", "2-(Acetyloxy)-4-(trifluoromethyl)benzoic acid", "Triflusal", "UR 1501", "2-Acetoxy-4-(trifluoromethyl)benzoic acid", "Disgren", "2-Carboxy-5-(trifluoromethyl)phenyl acetate"], "SMILES": "O(C(C)=O)C1=C(C(O)=O)C=CC(C(F)(F)F)=C1", "physical_data": {"Molecular Weight": "248.16", "Molecular Formula": "C10H7F3O4", "Melting Point": "121 \u00b0C"}}