{"cas_no": "322-46-3", "cn_name": "2,3-\u4e8c\u5421\u5576\u5421\u55ea", "en_name": ["Pyrido[2,3-b]pyrazine", "Pyrido[2,3-b]pyrazine", "5-Azaquinoxaline", "1,4,5-Triazanaphthalene", "NSC 73508"], "SMILES": "C12=C(N=CC=N1)N=CC=C2", "physical_data": {"Molecular Weight": "131.13", "Molecular Formula": "C7H5N3", "Melting Point": "147-148 \u00b0C"}}