{"cas_no": "322-97-4", "cn_name": "7-(\u4e09\u6c2f\u7532\u57fa)-4-\u7f9f\u57fa\u55b9\u5549", "en_name": ["4-Hydroxy-7-(trifluoromethyl)quinoline", "4-Quinolinol, 7-(trifluoromethyl)-", "7-(Trifluoromethyl)-4-quinolinol", "7-Trifluoromethyl-4-quinolinol", "4-Hydroxy-7-(trifluoromethyl)quinoline", "7-Trifluoromethyl-4-hydroxyquinoline", "NSC 77093"], "SMILES": "OC=1C2=C(C=C(C(F)(F)F)C=C2)N=CC1", "physical_data": {"Molecular Weight": "213.16", "Molecular Formula": "C10H6F3NO", "Melting Point": "267.5 \u00b0C"}}