{"cas_no": "32202-61-2", "cn_name": "4-\u6c28\u57fa\u831a\u6ee1", "en_name": ["4-Aminoindane", "1H-Inden-4-amine, 2,3-dihydro-", "4-Indanamine", "2,3-Dihydro-1H-inden-4-amine", "4-Aminoindan", "4-Aminoindane", "Indan-4-ylamine"], "SMILES": "NC1=C2C(=CC=C1)CCC2", "physical_data": {"Molecular Weight": "133.19", "Molecular Formula": "C9H11N", "Boiling Point": "235 \u00b0C @ Press: 754 Torr", "Melting Point": "9 \u00b0C"}}