{"cas_no": "32208-45-0", "cn_name": "\u4e4c\u5b8b\u9178\u7532\u916f", "en_name": ["Methyl ursolate", "Urs-12-en-28-oic acid, 3-hydroxy-, methyl ester, (3\u03b2)-", "Urs-12-en-28-oic acid, 3\u03b2-hydroxy-, methyl ester", "Methyl ursolate", "Ursolic acid methyl ester", "Methyl (3\u03b2)-3-Hydroxyurs-12-en-28-oate"], "SMILES": "C(OC)(=O)C12C(C=3C(C)(CC1)C4(C)C(CC3)C5(C)C(CC4)C(C)(C)C(O)CC5)C(C)C(C)CC2", "physical_data": {"Molecular Weight": "470.73", "Molecular Formula": "C31H50O3", "Melting Point": "170.5-171.5 \u00b0C"}}