{"cas_no": "32214-80-5", "cn_name": "\u7fbd\u6247\u70ef\u57fa\u68d5\u6988\u9178\u916f", "en_name": ["Lupeol palmitate", "Lup-20(29)-en-3-ol, 3-(hexadecanoate), (3\u03b2)-", "Lup-20(29)-en-3-ol, hexadecanoate, (3\u03b2)-", "Lup-20(29)-en-3\u03b2-ol, palmitate", "Lupeol palmitate", "Lupenyl palmitate", "Lupeyl palmitate", "Sambuculin A", "3-Palmitoyllupeol", "Balanophorin B", "Docosanoyllupeol", "Lupeol hexadecanoate", "Lupeolyl palmitate"], "SMILES": "CC12C3(C)C(C4C(C)(CC3)CCC4C(C)=C)CCC1C5(C)C(CC2)C(C)(C)C(OC(CCCCCCCCCCCCCCC)=O)CC5", "physical_data": {"Molecular Weight": "665.13", "Molecular Formula": "C46H80O2", "Melting Point": "110 \u00b0C"}}