{"cas_no": "32210-23-4", "cn_name": "4-\u53d4\u4e01\u57fa\u73af\u5df1\u57fa\u4e59\u9178\u916f", "en_name": ["4-tert-Butylcyclohexyl acetate", "Cyclohexanol, 4-(1,1-dimethylethyl)-, 1-acetate", "Cyclohexanol, 4-tert-butyl-, acetate", "Cyclohexanol, 4-(1,1-dimethylethyl)-, acetate", "p-tert-Butylcyclohexyl acetate", "4-tert-Butylcyclohexanol acetate", "Vertenex", "Oryclone", "4-tert-Butylcyclohexyl acetate", "NSC 163103", "Oryclone special", "4-(1,1-Dimethylethyl)cyclohexyl acetate", "Verbeniax", "Madeflor", "PTBCHA", "Velvetone", "Oryclon extra", "Vertopol", "Vertinate", "Ylanate", "p-t-BCHA", "para-tert-Butylcyclohexyl acetate", "Boisinol A 464D", "Dorisyl", "Lorysia"], "SMILES": "C(C)(C)(C)C1CCC(OC(C)=O)CC1", "physical_data": {"Molecular Weight": "198.30", "Molecular Formula": "C12H22O2", "Boiling Point": "100-105 \u00b0C @ Press: 8 Torr", "Density": "0.9429 g/cm\u00b3 @ Temp: 15 \u00b0C"}}