{"cas_no": "32213-95-9", "cn_name": "L-\u5929\u51ac\u6c28\u9178\u4e8c\u7532\u916f\u76d0\u9178\u76d0", "en_name": ["L-Aspartic acid, 1,4-dimethyl ester, hydrochloride (1:1)", "L-Aspartic acid, 1,4-dimethyl ester, hydrochloride (1:1)", "L-Aspartic acid, dimethyl ester, hydrochloride", "Aspartic acid, dimethyl ester, hydrochloride, L-", "Dimethyl aspartate hydrochloride", "Dimethyl L-aspartate hydrochloride", "Dimethyl (S)-aspartate hydrochloride", "NSC 112494", "Dimethyl (S)-2-aminosuccinate hydrochloride", "1,4-Dimethyl (2S)-2-aminobutanedioate hydrochloride", "Dimethyl (2S)-2-aminobutanedioate hydrochloride"], "SMILES": "C(CC(OC)=O)(C(OC)=O)N.Cl", "physical_data": {"Molecular Weight": "", "Molecular Formula": "C6H11NO4.ClH", "Melting Point": "116-117 \u00b0C"}}