{"cas_no": "3221-15-6", "cn_name": "2-(\u6c2f\u7532\u57fa)\u73af\u786b\u4e59\u70f7", "en_name": ["(Chloromethyl)thiirane", "Thiirane, 2-(chloromethyl)-", "Propane, 1-chloro-2,3-epithio-", "Thiirane, (chloromethyl)-", "2-(Chloromethyl)thiirane", "3-Chloropropylene sulfide", "Epithiochlorohydrin", "Thioepichlorohydrin", "1-Chloro-2,3-epithiopropane", "2-Thiiranylmethyl chloride", "3-Chloropropene sulfide", "(Chloromethyl)thiirane", "3-Chloro-1,2-propylene sulfide", "NSC 36644"], "SMILES": "C(Cl)C1CS1", "physical_data": {"Molecular Weight": "108.59", "Molecular Formula": "C3H5ClS", "Boiling Point": "94-96 \u00b0C"}}