{"cas_no": "3221-61-2", "cn_name": "2-\u7532\u57fa\u8f9b\u70f7", "en_name": ["2-Methyloctane", "Octane, 2-methyl-", "2-Methyloctane", "NSC 23695"], "SMILES": "C(CC(C)C)CCCC", "physical_data": {"Molecular Weight": "128.26", "Molecular Formula": "C9H20", "Boiling Point": "143.2 \u00b0C", "Melting Point": "-80.3 \u00b0C", "Density": "0.7107 g/cm\u00b3 @ Temp: 20.1 \u00b0C"}}