{"cas_no": "3222-49-9", "cn_name": "5-\u7532\u57fa\u70df\u9178", "en_name": ["5-Methylnicotinic acid", "3-Pyridinecarboxylic acid, 5-methyl-", "Nicotinic acid, 5-methyl-", "5-Methyl-3-pyridinecarboxylic acid", "3-Picoline-5-carboxylic acid", "5-Methylnicotinic acid", "NSC 82649"], "SMILES": "C(O)(=O)C=1C=C(C)C=NC1", "physical_data": {"Molecular Weight": "137.14", "Molecular Formula": "C7H7NO2", "Melting Point": "215 \u00b0C"}}