{"cas_no": "32222-06-3", "cn_name": "\u9499\u4e09\u9187", "en_name": ["Calcitriol", "1,3-Cyclohexanediol, 4-methylene-5-[(2E)-2-[(1R,3aS,7aR)-octahydro-1-[(1R)-5-hydroxy-1,5-dimethylhexyl]-7a-methyl-4H-inden-4-ylidene]ethylidene]-, (1R,3S,5Z)-", "9,10-Secocholesta-5,7,10(19)-triene-1,3,25-triol, (1\u03b1,3\u03b2,5Z,7E)-", "(1R,3S,5Z)-4-Methylene-5-[(2E)-2-[(1R,3aS,7aR)-octahydro-1-[(1R)-5-hydroxy-1,5-dimethylhexyl]-7a-methyl-4H-inden-4-ylidene]ethylidene]-1,3-cyclohexanediol", "1,25-Dihydroxycholecalciferol", "1\u03b1,25-Dihydroxycholecalciferol", "1\u03b1,25-Dihydroxyvitamin D3", "1,25-Dihydroxyvitamin D3", "Calcitriol", "1,25-Dihydroxyvitamin D", "Ro 21-5535", "Soltriol", "Calcijex", "Rocaltrol", "1\u03b1,25-(OH)2D3", "Topitriol", "Silkis", "Toptriol", "Dihydroxyvitamin D3", "(3\u03b2,5Z,7E)-9,10-Secocholesta-5,7,10(19)-trienetriol", "Panbonis", "Solbone P", "DN 101", "1\u03b1,25-Hydroxyl-vitamin D3", "1a,25-Dihydroxyvitamin D3", "1\u03b1,25(OH)2 vitamin D3"], "SMILES": "CC12C(C(=CC=C3C(=C)C(O)CC(O)C3)CCC1)CCC2C(CCCC(C)(C)O)C", "physical_data": {"Molecular Weight": "416.64", "Molecular Formula": "C27H44O3", "Melting Point": "113 \u00b0C"}}