{"cas_no": "3222-50-2", "cn_name": "4-\u7532\u57fa\u5421\u5576-3-\u7fa7\u9178", "en_name": ["4-Methylnicotinic acid", "3-Pyridinecarboxylic acid, 4-methyl-", "Nicotinic acid, 4-methyl-", "4-Methyl-3-pyridinecarboxylic acid", "Homonicotinic acid", "4-Picoline-3-carboxylic acid", "4-Methylnicotinic acid", "NSC 22592"], "SMILES": "C(O)(=O)C=1C(C)=CC=NC1", "physical_data": {"Molecular Weight": "137.14", "Molecular Formula": "C7H7NO2", "Melting Point": "215-216 \u00b0C"}}