{"cas_no": "3222-56-8", "cn_name": "2-\u7532\u57fa\u70df\u9178", "en_name": ["2-Methylnicotinic acid", "3-Pyridinecarboxylic acid, 2-methyl-", "Nicotinic acid, 2-methyl-", "2-Methyl-3-pyridinecarboxylic acid", "2-Picoline-3-carboxylic acid", "2-Methylnicotinic acid"], "SMILES": "C(O)(=O)C1=C(C)N=CC=C1", "physical_data": {"Molecular Weight": "137.14", "Molecular Formula": "C7H7NO2", "Melting Point": "226-227 \u00b0C"}}