{"cas_no": "32231-50-8", "cn_name": "(R)-2-\u7532\u57fa\u4e01\u9178", "en_name": ["(-)-2-Methylbutanoic acid", "Butanoic acid, 2-methyl-, (2R)-", "Butyric acid, 2-methyl-, (-)-", "Butanoic acid, 2-methyl-, (R)-", "(2R)-2-Methylbutanoic acid", "(R)-2-Methylbutanoic acid", "(R)-2-Methylbutyric acid", "(-)-2-Methylbutyric acid", "(R)-(-)-2-Methylbutanoic acid", "(-)-2-Methylbutanoic acid", "(-)-\u03b1-Methylbutyric acid", "(R)-(-)-2-Methylbutyric acid", "(2R)-2-Methylbutanoic acid"], "SMILES": "C(C(O)=O)(CC)C", "physical_data": {"Molecular Weight": "102.13", "Molecular Formula": "C5H10O2", "Boiling Point": "50 \u00b0C @ Press: 0.07 Torr", "Density": "0.9313 g/cm\u00b3 @ Temp: 25 \u00b0C"}}