{"cas_no": "32231-06-4", "cn_name": "1-\u80e1\u6912\u57fa\u54cc\u55ea", "en_name": ["1-Piperonylpiperazine", "Piperazine, 1-(1,3-benzodioxol-5-ylmethyl)-", "Piperazine, 1-piperonyl-", "1-(1,3-Benzodioxol-5-ylmethyl)piperazine", "N-(3,4-Methylenedioxybenzyl)piperazine", "1-Piperonylpiperazine", "1-(3,4-Methylenedioxybenzyl)piperazine", "N-Piperonylpiperazine", "5-(Piperazinomethyl)-1,3-benzodioxole", "1-(4-Piperonyl)piperazine", "1-(Benzo[1,3]dioxol-5-ylmethyl)piperazine", "1-(3,4-Methylenedioxyphenylmethyl)piperazine", "1-(1,3-Benzodioxolan-5-ylmethyl)piperazine", "1-(Benzodioxol-5-ylmethyl)piperazine", "4-[(Benzodioxol-5-yl)methyl]piperazine", "4-(4-Piperonyl)piperazine", "4-[(1,3-Benzodioxol-5-yl)methyl]piperazine", "N-[(1,3-Benzodioxol-5-yl)methyl]piperazine", "1-[(2H-1,3-Benzodioxol-5-yl)methyl]piperazine", "1-[(Benzo[d][1,3]dioxol-5-yl)methyl]piperazine", "1-[(1,3-Dioxaindan-5-yl)methyl]piperazine"], "SMILES": "C(C=1C=C2C(=CC1)OCO2)N3CCNCC3", "physical_data": {"Molecular Weight": "220.27", "Molecular Formula": "C12H16N2O2", "Boiling Point": "147-149 \u00b0C @ Press: 2 Torr", "Melting Point": "97-102 \u00b0C"}}