{"cas_no": "3223-07-2", "cn_name": "\u5de6\u65cb\u82ef\u4e19\u6c28\u9178\u6c2e\u82a5", "en_name": ["Melphalan hydrochloride", "L-Phenylalanine, 4-[bis(2-chloroethyl)amino]-, hydrochloride (1:1)", "Alanine, 3-[p-[bis(2-chloroethyl)amino]phenyl]-, monohydrochloride, L-", "L-Phenylalanine, 4-[bis(2-chloroethyl)amino]-, monohydrochloride", "Melphalan hydrochloride", "4-Bis(2-chloroethyl)amino-L-phenylalanine hydrochloride", "Phelinun"], "SMILES": "N(CCCl)(CCCl)C1=CC=C(CC(C(O)=O)N)C=C1.Cl", "physical_data": {"Molecular Weight": "", "Molecular Formula": "C13H18Cl2N2O2.ClH", "Melting Point": "175-178 \u00b0C"}}