{"cas_no": "32262-18-3", "cn_name": "4 -\u7532\u6c27\u57fa- 1 -\u7532\u57fa- 2(1H),\u55b9\u5549\u916e", "en_name": ["4-Methoxy-1-methyl-2(1H)-quinolinone", "2(1H)-Quinolinone, 4-methoxy-1-methyl-", "Carbostyril, 4-methoxy-1-methyl-", "4-Methoxy-1-methyl-2(1H)-quinolinone", "1-Methyl-4-methoxy-2-quinolone", "4-Methoxy-1-methyl-2-quinolone", "N-Methyl-4-methoxycarbostyril", "4-Methoxy-N-methyl-2-quinolone", "N-Methyl-4-methoxy-2-quinolone", "4-Methoxy-1-methylquinolin-2-one", "4-Methoxy-1-methyl-2-(1H)-quinolinone"], "SMILES": "CN1C=2C(C(OC)=CC1=O)=CC=CC2", "physical_data": {"Molecular Weight": "189.21", "Molecular Formula": "C11H11NO2", "Melting Point": "99.5-100 \u00b0C"}}