{"cas_no": "3226-65-1", "cn_name": "L-\u86cb\u6c28\u9178\u4e9a\u781c", "en_name": ["Methionine sulfoxide", "L-Methionine, S-oxide", "Butyric acid, 2-amino-4-(methylsulfinyl)-, L-", "Butanoic acid, 2-amino-4-(methylsulfinyl)-, (2S)-", "L-Methionine sulfoxide", "Methionine sulfoxide", "3: PN: WO2011158590 PAGE: 34 claimed protein", "(2S)-2-Amino-4-(methylsulfinyl)butanoic acid"], "SMILES": "C(CCS(C)=O)(C(O)=O)N", "physical_data": {"Molecular Weight": "165.21", "Molecular Formula": "C5H11NO3S", "Melting Point": "214.8 \u00b0C (decomp)"}}