{"cas_no": "3228-02-2", "cn_name": "3-\u7532\u57fa-4-\u5f02\u4e19\u57fa\u82ef\u915a", "en_name": ["3-Methyl-4-isopropylphenol", "Phenol, 3-methyl-4-(1-methylethyl)-", "o-Cymen-5-ol", "m-Cresol, 4-isopropyl-", "3-Methyl-4-(1-methylethyl)phenol", "p-Thymol", "Biosol", "4-Isopropyl-m-cresol", "3-Methyl-4-isopropylphenol", "4-Isopropyl-3-methylphenol", "4-Isopropyl-5-methylphenol", "1-Hydroxy-3-methyl-4-isopropylbenzene", "Frecide", "Biosol (antibacterial)", "NSC 62111", "5-Methyl-4-isopropylphenol", "3-Methyl-4-(propan-2-yl)phenol", "Isopropylmethylphenol", "IPMP"], "SMILES": "C(C)(C)C1=C(C)C=C(O)C=C1", "physical_data": {"Molecular Weight": "150.22", "Molecular Formula": "C10H14O", "Boiling Point": "238 \u00b0C", "Melting Point": "114 \u00b0C"}}