{"cas_no": "3228-03-3", "cn_name": "5-\u5f02\u4e19\u57fa-3-\u7532\u915a", "en_name": ["3-Isopropyl-5-methylphenol", "Phenol, 3-methyl-5-(1-methylethyl)-", "m-Cymen-5-ol", "m-Cresol, 5-isopropyl-", "3-Methyl-5-(1-methylethyl)phenol", "3-Methyl-5-isopropylphenol", "3-Isopropyl-5-methylphenol", "5-Isopropyl-3-methylphenol", "5-Isopropyl-m-cresol", "3-Methyl-5-(propan-2-yl)phenol"], "SMILES": "C(C)(C)C1=CC(C)=CC(O)=C1", "physical_data": {"Molecular Weight": "150.22", "Molecular Formula": "C10H14O", "Boiling Point": "128 \u00b0C @ Press: 19 Torr", "Melting Point": "49 \u00b0C"}}