{"cas_no": "3228-99-7", "cn_name": "\u56db\u6c2f\u5316\u4e94\u70ef", "en_name": ["1,3-Dichloro-2,2-bis(chloromethyl)propane", "Propane, 1,3-dichloro-2,2-bis(chloromethyl)-", "1,3-Dichloro-2,2-bis(chloromethyl)propane", "Pentaerythritol tetrachloride", "Pentaerythrityl tetrachloride", "Tetrachloride", "Tetrakis(chloromethyl)methane", "2,2-Bis(chloromethyl)-1,3-dichloropropane", "NSC 405471", "NSC 408644"], "SMILES": "C(CCl)(CCl)(CCl)CCl", "physical_data": {"Molecular Weight": "209.93", "Molecular Formula": "C5H8Cl4", "Boiling Point": "100 \u00b0C @ Press: 12 Torr", "Melting Point": "97 \u00b0C"}}