{"cas_no": "32294-60-3", "cn_name": "\u8054\u82ef\u4e8c\u78b2", "en_name": ["Diphenyl ditelluride", "Ditelluride, diphenyl", "Phenyl ditelluride", "Diphenyl ditelluride", "Diphenyl ditellurium", "NSC 339902", "(Phenylditellanyl)benzene"], "SMILES": "[Te]([Te]C1=CC=CC=C1)C2=CC=CC=C2", "physical_data": {"Molecular Weight": "", "Molecular Formula": "C12H10Te2", "Melting Point": "53-54 \u00b0C"}}