{"cas_no": "3229-00-3", "cn_name": "\u56db\u6eb4\u65b0\u620a\u70f7", "en_name": ["1,3-Dibromo-2,2-bis(bromomethyl)propane", "Propane, 1,3-dibromo-2,2-bis(bromomethyl)-", "1,3-Dibromo-2,2-bis(bromomethyl)propane", "Pentaerythritol tetrabromide", "Pentaerythrityl bromide", "Pentaerythrityl tetrabromide", "Tetra(bromomethyl)methane", "2,2-Bis(bromomethyl)-1,3-dibromopropane", "Tetrabromoneopentane", "Tetrakis(bromomethyl)methane", "Tetrabromopentaerythritol", "NSC 8998", "Pentaerithrityl tetrabromide"], "SMILES": "C(CBr)(CBr)(CBr)CBr", "physical_data": {"Molecular Weight": "387.73", "Molecular Formula": "C5H8Br4", "Boiling Point": "305.5 \u00b0C", "Melting Point": "163 \u00b0C"}}