{"cas_no": "323-09-1", "cn_name": "2-\u6c1f\u8418", "en_name": ["2-Fluoronaphthalene", "Naphthalene, 2-fluoro-", "2-Fluoronaphthalene", "\u03b2-Fluoronaphthalene", "NSC 26048"], "SMILES": "FC1=CC2=C(C=C1)C=CC=C2", "physical_data": {"Molecular Weight": "146.16", "Molecular Formula": "C10H7F", "Boiling Point": "212 \u00b0C", "Melting Point": "61 \u00b0C"}}