{"cas_no": "32305-98-9", "cn_name": "\u5f02\u4e19\u70ef\u57fa-2,3-\u4e8c\u7f9f\u57fa-1,4-\u53cc\u4e8c\u82ef\u57fa\u81a6\u4e01\u70f7", "en_name": ["(-)-DIOP", "Phosphine, 1,1\u2032-[[(4R,5R)-2,2-dimethyl-1,3-dioxolane-4,5-diyl]bis(methylene)]bis[1,1-diphenyl-", "Phosphine, [(2,2-dimethyl-1,3-dioxolane-4,5-diyl)bis(methylene)]bis[diphenyl-, (4R-trans)-", "Phosphine, [(2,2-dimethyl-1,3-dioxolane-4,5-diyl)dimethylene]bis[diphenyl-, trans-(-)-", "Phosphine, [[(4R,5R)-2,2-dimethyl-1,3-dioxolane-4,5-diyl]bis(methylene)]bis[diphenyl-", "1,1\u2032-[[(4R,5R)-2,2-Dimethyl-1,3-dioxolane-4,5-diyl]bis(methylene)]bis[1,1-diphenylphosphine]", "(-)-2,3-O-Isopropylidene-2,3-dihydroxy-1,4-bis(diphenylphosphino)butane", "(-)-DIOP", "(R)-DIOP", "(R,R)-DIOP", "(4R,5R)-DIOP", "(4R,5R)-4,5-Bis(diphenylphosphinomethyl)-2,2-dimethyl-1,3-dioxolane", "(-)-4,5-Bis(diphenylphosphinomethyl)-2,2-dimethyl-1,3-dioxolane", "(4R,5R)-trans-4,5-Bis[(diphenylphosphino)methyl]-2,2-dimethyl-1,3-dioxolane", "[[(4R,5R)-2,2-Dimethyl-1,3-dioxolane-4,5-diyl]bis(methylene)]bis[diphenylphosphine]"], "SMILES": "P(CC1C(CP(C2=CC=CC=C2)C3=CC=CC=C3)OC(C)(C)O1)(C4=CC=CC=C4)C5=CC=CC=C5", "physical_data": {"Molecular Weight": "498.53", "Molecular Formula": "C31H32O2P2", "Melting Point": "89-90 \u00b0C"}}