{"cas_no": "3230-69-1", "cn_name": "3-\u7532\u57fa-1-\u620a\u70ef-4-\u7094-3-\u9187", "en_name": ["3-Methyl-1-penten-4-yn-3-ol", "1-Penten-4-yn-3-ol, 3-methyl-", "3-Methyl-1-penten-4-yn-3-ol", "Ethynylmethylvinylcarbinol", "3-Methyl-4-penten-1-yn-3-ol", "2-Vinyl-3-butyn-2-ol", "NSC 44005"], "SMILES": "C(C=C)(C#C)(C)O", "physical_data": {"Molecular Weight": "96.13", "Molecular Formula": "C6H8O", "Boiling Point": "65 \u00b0C @ Press: 22 Torr", "Density": "0.9112 g/cm\u00b3 @ Temp: 20 \u00b0C"}}