{"cas_no": "3230-94-2", "cn_name": "L-\u9e1f\u6c28\u9178L-\u5929\u95e8\u51ac\u6c28\u9178\u76d0", "en_name": ["Ornithine aspartate", "L-Aspartic acid, compd. with L-ornithine (1:1)", "Aspartic acid, L-, compd. with L-ornithine (1:1)", "Ornithine, L-, L-aspartate (1:1)", "L-Ornithine, L-aspartate (1:1)", "Ornithine aspartate", "Hepamerz", "L-Ornithine L-aspartate", "Ormeta", "Orparan", "Aspartic acid compd. with ornithine", "Ruigan"], "SMILES": "C(CC(O)=O)(C(O)=O)N.C(C(O)=O)(CCCN)N", "physical_data": {"Molecular Weight": "", "Molecular Formula": "C5H12N2O2.C4H7NO4", "Melting Point": "215 \u00b0C (decomp)"}}