{"cas_no": "3230-39-5", "cn_name": "p-\u7532\u6c27\u57fa\u82c4\u70ef-p-\u6c28\u57fa\u82ef\u915a", "en_name": ["p-(p-Methoxybenzylideneamino)phenol", "Phenol, 4-[[(4-methoxyphenyl)methylene]amino]-", "Phenol, p-[(p-methoxybenzylidene)amino]-", "4-[[(4-Methoxyphenyl)methylene]amino]phenol", "p-(p-Methoxybenzylideneamino)phenol", "4-Hydroxy-N-(4-methoxybenzylidene)aniline", "4-[(4-Methoxybenzylidene)amino]phenol", "NSC 112115"], "SMILES": "C(=NC1=CC=C(O)C=C1)C2=CC=C(OC)C=C2", "physical_data": {"Molecular Weight": "227.26", "Molecular Formula": "C14H13NO2", "Melting Point": "187 \u00b0C"}}