{"cas_no": "3230-65-7", "cn_name": "3,4-\u4e8c\u6c22\u5f02\u55b9\u5549", "en_name": ["3,4-Dihydroisoquinoline", "Isoquinoline, 3,4-dihydro-", "3,4-Dihydroisoquinoline", "NSC 3007"], "SMILES": "C=12C(=CC=CC1)C=NCC2", "physical_data": {"Molecular Weight": "131.17", "Molecular Formula": "C9H9N", "Boiling Point": "122-123 \u00b0C @ Press: 25 Torr", "Melting Point": "175-176 \u00b0C", "Density": "1.075 g/cm\u00b3 @ Temp: 40 \u00b0C"}}