{"cas_no": "32316-92-0", "cn_name": "2-\u8418\u787c\u9178", "en_name": ["2-Naphthylboronic acid", "Boronic acid, B-2-naphthalenyl-", "2-Naphthaleneboronic acid", "Boronic acid, 2-naphthalenyl-", "B-2-Naphthalenylboronic acid", "2-Naphthylboronic acid", "2-Naphthylboric acid", "(2-Naphthalenyl)boronic acid", "Naphthalen-2-ylboronic acid", "(Naphthalene-2-yl)boronic acid", "(Naphthalen-2-yl)boronic acid"], "SMILES": "B(O)(O)C1=CC2=C(C=C1)C=CC=C2", "physical_data": {"Molecular Weight": "171.99", "Molecular Formula": "C10H9BO2", "Melting Point": "233-245 \u00b0C"}}