{"cas_no": "32315-10-9", "cn_name": "\u4e09\u5149\u6c14", "en_name": ["Triphosgene", "Methanol, 1,1,1-trichloro-, 1,1\u2032-carbonate", "Carbonic acid, bis(trichloromethyl) ester", "Methanol, trichloro-, carbonate (2:1)", "Triphosgene", "Bis(trichloromethyl) carbonate", "BTC"], "SMILES": "O(C(Cl)(Cl)Cl)C(OC(Cl)(Cl)Cl)=O", "physical_data": {"Molecular Weight": "296.75", "Molecular Formula": "C3Cl6O3", "Boiling Point": "203 \u00b0C", "Melting Point": "79 \u00b0C", "Density": "1.73 g/cm\u00b3"}}