{"cas_no": "3232-84-6", "cn_name": "\u5c3f\u5511", "en_name": ["Urazole", "1,2,4-Triazolidine-3,5-dione", "Bicarbamimide", "s-Triazole-3,5-diol", "1H-1,2,4-Triazole-3,5(2H,4H)-dione", "Urazole", "Urazol", "3,5-Dihydroxy-1,2,4-triazole", "Urazole bicarbamide", "Uracol", "Triazolidine-3,5-dione", "1H-1,2,4-Triazole-3,5-dione", "NSC 15394", "NSC 1892"], "SMILES": "O=C1NC(=O)NN1", "physical_data": {"Molecular Weight": "101.06", "Molecular Formula": "C2H3N3O2", "Melting Point": "249.5 \u00b0C (decomp)"}}