{"cas_no": "32328-03-3", "cn_name": "3-\u7f9f\u57fa\u620a\u4e8c\u9178\u4e8c\u4e59\u916f", "en_name": ["Diethyl 3-hydroxyglutarate", "Pentanedioic acid, 3-hydroxy-, 1,5-diethyl ester", "Pentanedioic acid, 3-hydroxy-, diethyl ester", "Glutaric acid, 3-hydroxy-, diethyl ester", "Diethyl 3-hydroxyglutarate", "3-Hydroxyglutaric acid diethyl ester", "NSC 62681", "Diethyl 3-hydroxypentanedioate", "1,5-Diethyl 3-hydroxypentanedioate"], "SMILES": "C(CC(OCC)=O)(CC(OCC)=O)O", "physical_data": {"Molecular Weight": "204.22", "Molecular Formula": "C9H16O5", "Boiling Point": "150-153 \u00b0C @ Press: 16 Torr", "Density": "1.10 g/cm\u00b3 @ Temp: 23 \u00b0C"}}