{"cas_no": "3232-36-8", "cn_name": "\u4e9a\u6c34\u6768\u57fa\u6c34\u6768\u57fa\u80bc", "en_name": ["Salicylaldehyde salicyloylhydrazone", "Benzoic acid, 2-hydroxy-, 2-[(2-hydroxyphenyl)methylene]hydrazide", "Salicylic acid, salicylidenehydrazide", "Benzoic acid, 2-hydroxy-, [(2-hydroxyphenyl)methylene]hydrazide", "Hydrazine, 1-salicylidene-2-salicyloyl-", "Salicyl N-salicylidenehydrazide", "N-Salicylidene-N\u2032-salicylhydrazide", "N-Salicylidene-N\u2032-salicyloylhydrazine", "N\u2032-Salicylidenesalicylic acid hydrazide", "Chel 180", "Salicylic salicylidenehydrazide", "Salicylaldehyde salicyloylhydrazone", "NSC 692002", "NSC 87864", "Salicylaldehyde 2-hydroxybenzoylhydrazone"], "SMILES": "C(NN=CC1=C(O)C=CC=C1)(=O)C2=C(O)C=CC=C2", "physical_data": {"Molecular Weight": "256.26", "Molecular Formula": "C14H12N2O3", "Melting Point": "277 \u00b0C"}}