{"cas_no": "3232-39-1", "cn_name": "\u4e59\u9170\u57fa\u786b\u919a", "en_name": ["Ethanethioic acid, 1,1\u2032-anhydrosulfide", "Ethanethioic acid, 1,1\u2032-anhydrosulfide", "Acetic acid, thio-, anhydrosulfide", "Ethanethioic acid, anhydrosulfide", "Acetyl sulfide", "Diacetyl sulfide", "Acetic thioanhydride", "Thioacetic anhydride", "NSC 5133", "1-(Acetylsulfanyl)ethan-1-one"], "SMILES": "S(C(C)=O)C(C)=O", "physical_data": {"Molecular Weight": "118.15", "Molecular Formula": "C4H6O2S", "Boiling Point": "62-63 \u00b0C @ Press: 20 Torr", "Melting Point": "140-142 \u00b0C", "Density": "1.124 g/cm\u00b3 @ Temp: 20 \u00b0C"}}