{"cas_no": "32329-20-7", "cn_name": "3-\u7532\u57fa-3,4-\u4e8c\u6c22-2H-1,4-\u82ef\u5e76\u5641\u55ea", "en_name": ["3,4-Dihydro-3-methyl-2H-1,4-benzoxazine", "2H-1,4-Benzoxazine, 3,4-dihydro-3-methyl-", "3,4-Dihydro-3-methyl-2H-1,4-benzoxazine", "3-Methyl-3,4-dihydro-2H-1,4-benzoxazine", "2,3-Dihydro-3-methyl-4H-1,4-benzoxazine", "3-Methyl-3,4-dihydro-2H-benzo[1,4]oxazine", "3,4-Dihydro-3-methyl-2H-1,4-benzoxazine", "3-Methyl-3,4-dihydro-2H-benzo[b][1,4]oxazine"], "SMILES": "CC1NC=2C(OC1)=CC=CC2", "physical_data": {"Molecular Weight": "149.19", "Molecular Formula": "C9H11NO", "Boiling Point": "165 \u00b0C @ Press: 16 Torr"}}