{"cas_no": "3233-32-7", "cn_name": "4-\u4e59\u9170\u6c27\u57fa\u82ef\u915a", "en_name": ["4-Hydroxyphenyl acetate", "1,4-Benzenediol, 1-acetate", "Hydroquinone, monoacetate", "1,4-Benzenediol, monoacetate", "Hydroquinone, acetate", "4-Hydroxyphenyl acetate", "4-Acetoxyphenol", "4-(Acetyloxy)phenol", "NSC 47899", "p-Hydroxyphenyl acetate"], "SMILES": "O(C(C)=O)C1=CC=C(O)C=C1", "physical_data": {"Molecular Weight": "152.15", "Molecular Formula": "C8H8O3", "Melting Point": "62-63 \u00b0C"}}