{"cas_no": "32337-96-5", "cn_name": "2-\u7898-3\u6eb4\u785d\u57fa\u82ef", "en_name": ["1-Bromo-2-iodo-3-nitrobenzene", "Benzene, 1-bromo-2-iodo-3-nitro-", "1-Bromo-2-iodo-3-nitrobenzene", "3-Bromo-2-iodonitrobenzene"], "SMILES": "N(=O)(=O)C1=C(I)C(Br)=CC=C1", "physical_data": {"Molecular Weight": "327.90", "Molecular Formula": "C6H3BrINO2", "Melting Point": "120 \u00b0C", "Density": "2.535 g/cm\u00b3 @ Temp: 10 \u00b0C"}}