{"cas_no": "32337-97-6", "cn_name": "1-\u6c2f-2-\u7898-3-\u785d\u57fa\u82ef", "en_name": ["1-Chloro-2-iodo-3-nitrobenzene", "Benzene, 1-chloro-2-iodo-3-nitro-", "1-Chloro-2-iodo-3-nitrobenzene"], "SMILES": "N(=O)(=O)C1=C(I)C(Cl)=CC=C1", "physical_data": {"Molecular Weight": "283.45", "Molecular Formula": "C6H3ClINO2", "Melting Point": "100-101 \u00b0C"}}