{"cas_no": "3234-49-9", "cn_name": "1,2-\u4e8c\u6eb4\u620a\u70f7", "en_name": ["1,2-Dibromopentane", "Pentane, 1,2-dibromo-", "1,2-Dibromopentane", "(\u00b1)-1,2-Dibromopentane"], "SMILES": "C(CCC)(CBr)Br", "physical_data": {"Molecular Weight": "229.94", "Molecular Formula": "C5H10Br2", "Boiling Point": "187-190 \u00b0C", "Density": "1.6740 g/cm\u00b3 @ Temp: 20 \u00b0C"}}