{"cas_no": "3234-85-3", "cn_name": "\u5341\u56db\u9178\u5341\u56db\u916f", "en_name": ["Myristyl myristate", "Tetradecanoic acid, tetradecyl ester", "Myristic acid, tetradecyl ester", "1-Tetradecanol, myristate", "Tetradecyl tetradecanoate", "Myristyl myristate", "Cyclochem MM", "Ceraphyl 424", "Tetradecyl myristate", "Crodamol MM", "Liponate MM", "Cetiol MM", "Alkamuls MM/M", "Exceparl MY-M", "Schercemol MM", "Tegosoft MM", "Nikkol MM", "Super Refined Crodamol MM-SO-(JP)", "Radia 7744"], "SMILES": "C(OCCCCCCCCCCCCCC)(CCCCCCCCCCCCC)=O", "physical_data": {"Molecular Weight": "424.74", "Molecular Formula": "C28H56O2", "Melting Point": "37.4 \u00b0C"}}