{"cas_no": "3234-28-4", "cn_name": "1,2-\u73af\u6c27\u5341\u56db\u70f7", "en_name": ["1,2-Epoxytetradecane", "Oxirane, 2-dodecyl-", "Tetradecane, 1,2-epoxy-", "Oxirane, dodecyl-", "2-Dodecyloxirane", "Tetradecylene oxide", "1,2-Epoxytetradecane", "1-Tetradecene oxide", "Dodecyloxirane", "1,2-Tetradecylene oxide", "1,2-Tetradecene oxide", "(\u00b1)-1,2-Epoxytetradecane", "(\u00b1)-Dodecyloxirane", "Epoxide C 14", "Vikolox 14", "Vikolox C12", "\u03b1-Tetradecene oxide", "C 14O"], "SMILES": "C(CCCCCCCCCCC)C1CO1", "physical_data": {"Molecular Weight": "212.37", "Molecular Formula": "C14H28O", "Boiling Point": "95-96 \u00b0C @ Press: 0.4 Torr", "Melting Point": "185-186 \u00b0C (decomp)", "Density": "0.845 g/cm\u00b3 @ Temp: 20 \u00b0C"}}