{"cas_no": "32343-73-0", "cn_name": "N-(5-\u6c28\u57fa\u620a\u57fa)\u4e59\u9170\u80fa", "en_name": ["Acetylcadaverine", "Acetamide, N-(5-aminopentyl)-", "N-(5-Aminopentyl)acetamide", "Monoacetyl cadaverine", "N-Acetylcadaverine", "Acetylcadaverine"], "SMILES": "C(CCCCN)NC(C)=O", "physical_data": {"Molecular Weight": "144.21", "Molecular Formula": "C7H16N2O", "Boiling Point": "105-110 \u00b0C @ Press: 20 Torr"}}