{"cas_no": "3234-02-4", "cn_name": "2,3-\u4e8c\u6eb4-1,4-\u4e01\u70ef\u4e8c\u9187", "en_name": ["2,3-Dibromo-2-butene-1,4-diol", "2-Butene-1,4-diol, 2,3-dibromo-", "2,3-Dibromo-2-butene-1,4-diol", "NSC 76595", "2,3-Dibormo-2-butene-1,4-diol"], "SMILES": "C(=C(CO)Br)(CO)Br", "physical_data": {"Molecular Weight": "245.90", "Molecular Formula": "C4H6Br2O2", "Melting Point": "117 \u00b0C"}}