{"cas_no": "3235-69-6", "cn_name": "\u5417\u5549-4-\u57fa\u4e59\u9178", "en_name": ["4-Morpholineacetic acid", "4-Morpholineacetic acid", "Morpholinoacetic acid", "2-(4-Morpholinyl)acetic acid", "4-Morpholinoacetic acid", "Morpholin-4-ylacetic acid", "N-(Carboxymethyl)morpholine", "2-(Morpholino)acetic acid", "2-Morpholin-4-ium-4-ylacetate"], "SMILES": "C(C(O)=O)N1CCOCC1", "physical_data": {"Molecular Weight": "145.16", "Molecular Formula": "C6H11NO3", "Melting Point": "162-163.5 \u00b0C"}}