{"cas_no": "3235-17-4", "cn_name": "Z-ALA-GLY-OH", "en_name": ["N-[(Phenylmethoxy)carbonyl]-L-alanylglycine", "Glycine, N-[(phenylmethoxy)carbonyl]-L-alanyl-", "Glycine, N-(N-carboxy-L-alanyl)-, N-benzyl ester", "Glycine, N-[N-[(phenylmethoxy)carbonyl]-L-alanyl]-", "N-[(Phenylmethoxy)carbonyl]-L-alanylglycine", "Benzyloxycarbonyl-L-alanylglycine", "N-Carbobenzoxy-L-alanylglycine", "N-(Benzyloxycarbonyl)alanylglycine", "Cbz-L-Ala-Gly-OH", "2-[[(2S)-2-(Phenylmethoxycarbonylamino)propanoyl]amino]acetic acid"], "SMILES": "C(OC(NC(C(NCC(O)=O)=O)C)=O)C1=CC=CC=C1", "physical_data": {"Molecular Weight": "280.28", "Molecular Formula": "C13H16N2O5", "Melting Point": "132 \u00b0C"}}