{"cas_no": "3236-48-4", "cn_name": "\u53cd\u5f0f-1,4-\u73af\u5df2\u70f7\u4e8c\u7532\u9187", "en_name": ["trans-1,4-Cyclohexanedimethanol", "1,4-Cyclohexanedimethanol, trans-", "trans-1,4-Cyclohexanedimethanol", "trans-1,4-Bis(hydroxymethyl)cyclohexane", "(trans-4-Hydroxymethylcyclohexyl)methanol", "(trans-Cyclohexane-1,4-diyl)dimethanol"], "SMILES": "C(O)C1CCC(CO)CC1", "physical_data": {"Molecular Weight": "144.21", "Molecular Formula": "C8H16O2", "Melting Point": "100-330 \u00b0C"}}