{"cas_no": "32360-05-7", "cn_name": "2-\u7532\u57fa-2-\u4e19\u70ef\u9178\u5341\u516b\u70f7\u57fa\u916f", "en_name": ["Stearyl methacrylate", "2-Propenoic acid, 2-methyl-, octadecyl ester", "Methacrylic acid, octadecyl ester", "Stearyl methacrylate", "Octadecyl methacrylate", "Acryester S", "Light Ester S", "SR 324", "SR 324 (methacrylate)", "Blemmer SMA", "NK Ester S", "Rocryl 330", "Acryester SMA", "n-Octadecyl methacrylate", "EM 35", "SEM 001", "NJLUB CM 18", "SR 324NS", "Komerate A 189M"], "SMILES": "C(CCCCCCCCCCCCCCCC)COC(C(C)=C)=O", "physical_data": {"Molecular Weight": "338.57", "Molecular Formula": "C22H42O2", "Boiling Point": "175 \u00b0C @ Press: 0.5 Torr"}}