{"cas_no": "3236-82-6", "cn_name": "\u4e59\u6c27\u9187\u94cc", "en_name": ["Niobium pentaethoxide", "Ethanol, niobium(5+) salt (5:1)", "Ethyl alcohol, niobium(5+) salt", "Ethanol, niobium(5+) salt", "Niobium ethoxide (Nb(OEt)5)", "Niobium pentaethoxide", "Niobium(V) ethoxide", "Pentaethoxyniobium", "Diniobium decaethoxide", "Pentakis(ethoxy)niobium", "Niobium ethoxide Nb(OC2H5)5", "Nb 05", "Nb 05 (salt)"], "SMILES": "C(C)O.[Nb]", "physical_data": {"Molecular Weight": "", "Molecular Formula": "C2H6O.<sup>1</sup>/5Nb", "Boiling Point": "142 \u00b0C @ Press: 0.1 Torr", "Melting Point": "5-6 \u00b0C", "Density": "1.258 g/cm\u00b3"}}