{"cas_no": "3236-71-3", "cn_name": "\u53cc\u915a\u82b4", "en_name": ["9,9\u2032-Bis(4-hydroxyphenyl)fluorene", "Phenol, 4,4\u2032-(9H-fluoren-9-ylidene)bis-", "Phenol, 4,4\u2032-fluoren-9-ylidenedi-", "4,4\u2032-(9H-Fluoren-9-ylidene)bis[phenol]", "9,9-Bis(p-hydroxyphenyl)fluorene", "9,9-Bis(4-hydroxyphenyl)fluorene", "4,4\u2032-Fluoren-9-ylidenediphenol", "9,9-Bis(4-hydroxyphenyl)-9H-fluorene", "4,4\u2032-Fluoren-9-ylidenebisphenol", "BP-FL 20X", "BPFL", "9,9\u2032-Bis(4-hydroxyphenyl)fluorene", "BPF", "BisP-FL", "4,4\u2032-(9H-Fluorene-9,9-diyl)bisphenol", "4,4\u2032-(9-Fluorenylidene)diphenol", "4,4\u2032-(9H-Fluorene-9,9-diyl)diphenol", "Bisphenol FL"], "SMILES": "OC1=CC=C(C2(C=3C(C=4C2=CC=CC4)=CC=CC3)C5=CC=C(O)C=C5)C=C1", "physical_data": {"Molecular Weight": "350.41", "Molecular Formula": "C25H18O2", "Melting Point": "201-202 \u00b0C"}}