{"cas_no": "3236-63-3", "cn_name": "2,2'-\u4e9a\u7532\u57fa-\u53cc-(4-\u7532\u57fa\u82ef\u915a)", "en_name": ["2,2\u2032-Methylenebis(4-methylphenol)", "Phenol, 2,2\u2032-methylenebis[4-methyl-", "p-Cresol, 2,2\u2032-methylenedi-", "2,2\u2032-Methylenebis[4-methylphenol]", "2,2\u2032-Dihydroxy-5,5\u2032-dimethyldiphenylmethane", "2,2\u2032-Methylenedi-p-cresol", "2,2\u2032-Methylenebis(4-methylphenol)", "4,4\u2032-Dimethyl-2,2\u2032-methylenediphenol", "Bis(2-hydroxy-5-methylphenyl)methane", "M 1134", "2-(2-Hydroxy-5-methylbenzyl)-4-methylphenol", "Bis(4-methylphenol)-2-Methylene", "2-[(2-Hydroxy-5-methylphenyl)methyl]-4-methylphenol"], "SMILES": "C(C1=C(O)C=CC(C)=C1)C2=C(O)C=CC(C)=C2", "physical_data": {"Molecular Weight": "228.29", "Molecular Formula": "C15H16O2", "Melting Point": "124 \u00b0C"}}