{"cas_no": "3237-62-5", "cn_name": "1-\u4e59\u57fa-2-\u7532\u57fa-5,6-\u4e8c\u6c2f\u82ef\u5e76\u54aa\u5511", "en_name": ["5,6-Dichloro-1-ethyl-2-methyl-1H-benzimidazole", "1H-Benzimidazole, 5,6-dichloro-1-ethyl-2-methyl-", "Benzimidazole, 5,6-dichloro-1-ethyl-2-methyl-", "5,6-Dichloro-1-ethyl-2-methyl-1H-benzimidazole", "5,6-Dichloro-1-ethyl-2-methylbenzimidazole", "1-Ethyl-2-methyl-5,6-dichlorobenzimidazole"], "SMILES": "C(C)N1C=2C(N=C1C)=CC(Cl)=C(Cl)C2", "physical_data": {"Molecular Weight": "229.11", "Molecular Formula": "C10H10Cl2N2", "Boiling Point": "185-195 \u00b0C @ Press: 4 Torr", "Melting Point": "80-85 \u00b0C"}}