{"cas_no": "3237-22-7", "cn_name": "(2-\u544b\u5583\u4e9a\u7532\u57fa)\u4e19\u4e8c\u8148", "en_name": ["Furfurylidenemalononitrile", "Propanedinitrile, 2-(2-furanylmethylene)-", "Malononitrile, furfurylidene-", "Propanedinitrile, (2-furanylmethylene)-", "2-(2-Furanylmethylene)propanedinitrile", "Furan, 2-(2,2-dicyanoethenyl)-", "2-Furfurylidenemalononitrile", "RGW 904", "Furfurylidenemalononitrile", "(2-Furanylmethylene)propanedinitrile", "2-Furfurylidenemalonodinitrile", "NSC 1333", "2-(Furan-2-ylmethylene)malononitrile", "2-(2-Furylmethylene)malononitrile", "2-(Furan-2-yl)malononitrile", "(2-Furanylmethylene)malononitrile", "(2-Furylmethylene)malononitrile", "2-(Furan-2-ylmethylidene)propanedinitrile"], "SMILES": "C(=C(C#N)C#N)C1=CC=CO1", "physical_data": {"Molecular Weight": "144.13", "Molecular Formula": "C8H4N2O", "Melting Point": "67-68 \u00b0C"}}