{"cas_no": "3238-55-9", "cn_name": "2-\u4e19\u9170\u57fa\u5421\u5576", "en_name": ["2-Propionylpyridine", "1-Propanone, 1-(2-pyridinyl)-", "1-Propanone, 1-(2-pyridyl)-", "1-(2-Pyridinyl)-1-propanone", "2-Propionylpyridine", "2-Pyridyl ethyl ketone", "Ethyl 2-pyridyl ketone", "2-Propanoylpyridine"], "SMILES": "C(CC)(=O)C1=CC=CC=N1", "physical_data": {"Molecular Weight": "135.16", "Molecular Formula": "C8H9NO", "Boiling Point": "95-100 \u00b0C @ Press: 15 Torr"}}