{"cas_no": "32383-76-9", "cn_name": "MEDICARPIN", "en_name": ["Medicarpin", "6H-Benzofuro[3,2-c][1]benzopyran-3-ol, 6a,11a-dihydro-9-methoxy-, (6aR,11aR)-", "6H-Benzofuro[3,2-c][1]benzopyran-3-ol, 6a,11a-dihydro-9-methoxy-, cis-(-)-", "6H-Benzofuro[3,2-c][1]benzopyran-3-ol, 6a,11a-dihydro-9-methoxy-, (6aR-cis)-", "(6aR,11aR)-6a,11a-Dihydro-9-methoxy-6H-benzofuro[3,2-c][1]benzopyran-3-ol", "(-)-3-Hydroxy-9-methoxypterocarpan", "(-)-Medicarpin", "(-)-Demethylhomopterocarpin", "Medicarpin, (-)-", "l-3-Hydroxy-9-methoxypterocarpan", "Medicarpin", "3-Hydroxy-9-methoxypterocarpan", "NSC 350085", "Demethylhomopterocarpin", "(6AR,11aR)-9-methoxy-6a,11a-dihydro-6H-[1]benzofuro[3,2-c]chromen-3-ol"], "SMILES": "OC=1C=C2C(C3C(C=4C(O3)=CC(OC)=CC4)CO2)=CC1", "physical_data": {"Molecular Weight": "270.28", "Molecular Formula": "C16H14O4", "Melting Point": "128 \u00b0C"}}