{"cas_no": "3238-60-6", "cn_name": "2-\u4e19\u57fa\u54cc\u5576", "en_name": ["2-Propylpiperidine", "Piperidine, 2-propyl-", "Piperidine, 2-propyl-, (\u00b1)-", "Coniine, DL-", "2-Propylpiperidine", "dl-Coniine", "(\u00b1)-Coniine"], "SMILES": "C(CC)C1CCCCN1", "physical_data": {"Molecular Weight": "127.23", "Molecular Formula": "C8H17N", "Boiling Point": "56-60 \u00b0C @ Press: 13 Torr", "Melting Point": "98-100 \u00b0C"}}