{"cas_no": "3238-40-2", "cn_name": "2,5-\u544b\u5583\u4e8c\u7532\u9178", "en_name": ["2,5-Furandicarboxylic acid", "2,5-Furandicarboxylic acid", "Furane-\u03b1,\u03b1\u2032-dicarboxylic acid", "Dehydromucic acid", "NSC 40740", "FDCA"], "SMILES": "C(O)(=O)C=1OC(C(O)=O)=CC1", "physical_data": {"Molecular Weight": "156.09", "Molecular Formula": "C6H4O5", "Melting Point": "342 \u00b0C"}}