{"cas_no": "3239-45-0", "cn_name": "\u53f3\u76d0\u9178\u82ac\u6c1f\u62c9\u660e", "en_name": ["(+)-Fenfluramine hydrochloride", "Benzeneethanamine, N-ethyl-\u03b1-methyl-3-(trifluoromethyl)-, hydrochloride (1:?)", "Phenethylamine, N-ethyl-\u03b1-methyl-m-(trifluoromethyl)-, hydrochloride, (+)-", "Benzeneethanamine, N-ethyl-\u03b1-methyl-3-(trifluoromethyl)-, hydrochloride, (S)-", "Benzeneethanamine, N-ethyl-\u03b1-methyl-3-(trifluoromethyl)-, hydrochloride, (\u03b1S)-", "(+)-Fenfluramine hydrochloride", "d-Fenfluramine hydrochloride", "Isomeride", "S 5614 hydrochloride", "Dexfenfluramine hydrochloride", "Adipomin", "Glypolix", "Adifax", "S 5614 HCl", "(S)-N-Ethyl-1-(3-(trifluoromethyl)phenyl)propan-2-amine hydrochloride"], "SMILES": "C(C(NCC)C)C1=CC(C(F)(F)F)=CC=C1.Cl", "physical_data": {"Molecular Weight": "", "Molecular Formula": "C12H16F3N.ClH", "Melting Point": "160-161 \u00b0C"}}