{"cas_no": "324-74-3", "cn_name": "4-\u6c1f\u8054\u82ef", "en_name": ["4-Fluorobiphenyl", "1,1\u2032-Biphenyl, 4-fluoro-", "Biphenyl, 4-fluoro-", "4-Fluoro-1,1\u2032-biphenyl", "4-Fluorobiphenyl", "4\u2032-Fluorobiphenyl", "p-Fluorodiphenyl", "p-Fluorobiphenyl", "(4-Fluorophenyl)benzene", "NSC 56686", "4\u2032-Fluoro-1,1\u2032-biphenyl", "4-Fluorbiphenyl", "1-Fluoro-4-phenylbenzene"], "SMILES": "FC1=CC=C(C=C1)C2=CC=CC=C2", "physical_data": {"Molecular Weight": "172.20", "Molecular Formula": "C12H9F", "Boiling Point": "253 \u00b0C", "Melting Point": "74.2 \u00b0C"}}