{"cas_no": "324-94-7", "cn_name": "4-\u6c1f-4'-\u7f9f\u57fa\u8054\u82ef", "en_name": ["4\u2032-Fluoro[1,1\u2032-biphenyl]-4-ol", "[1,1\u2032-Biphenyl]-4-ol, 4\u2032-fluoro-", "4-Biphenylol, 4\u2032-fluoro-", "4\u2032-Fluoro[1,1\u2032-biphenyl]-4-ol", "4-(p-Fluorophenyl)phenol", "4-(4-Fluorophenyl)phenol", "4-Fluoro-4\u2032-hydroxybiphenyl", "NSC 403046", "4\u2032-Fluorobiphenyl-4-ol", "4\u2032-Fluoro-1,1\u2032-biphenyl-4-ol"], "SMILES": "FC1=CC=C(C=C1)C2=CC=C(O)C=C2", "physical_data": {"Molecular Weight": "188.20", "Molecular Formula": "C12H9FO", "Melting Point": "167-168 \u00b0C"}}