{"cas_no": "324-93-6", "cn_name": "4'-\u6c1f-\u8054\u82ef-4-\u80fa", "en_name": ["4\u2032-Fluoro[1,1\u2032-biphenyl]-4-amine", "[1,1\u2032-Biphenyl]-4-amine, 4\u2032-fluoro-", "4-Biphenylamine, 4\u2032-fluoro-", "4\u2032-Fluoro[1,1\u2032-biphenyl]-4-amine", "4-(p-Fluorophenyl)aniline", "4-(4-Fluorophenyl)aniline", "4-Amino-4\u2032-fluorobiphenyl", "4\u2032-Fluoro-4-aminobiphenyl", "4\u2032-Fluoro-p-phenylaniline", "4\u2032-Fluoro-4-biphenylamine", "NSC 88341", "(4\u2032-Fluorobiphenyl-4-yl)amine"], "SMILES": "FC1=CC=C(C=C1)C2=CC=C(N)C=C2", "physical_data": {"Molecular Weight": "187.21", "Molecular Formula": "C12H10FN", "Melting Point": "120 \u00b0C"}}