{"cas_no": "324-27-6", "cn_name": "2-(4-\u6c1f\u82ef\u57fa)\u82ef\u5e76\u54aa\u5511", "en_name": ["2-(4-Fluorophenyl)benzimidazole", "1H-Benzimidazole, 2-(4-fluorophenyl)-", "Benzimidazole, 2-(p-fluorophenyl)-", "2-(4-Fluorophenyl)-1H-benzimidazole", "2-(4-Fluorophenyl)benzimidazole", "NSC 403409", "2-(p-Fluorophenyl)benzimidazole", "2-(4-Fluorophenyl)-1H-benzo[d]imidazole", "2-(4-Fluorophenyl)-1H-1,3-benzodiazole"], "SMILES": "FC1=CC=C(C=2NC=3C(N2)=CC=CC3)C=C1", "physical_data": {"Molecular Weight": "212.22", "Molecular Formula": "C13H9FN2", "Melting Point": "257 \u00b0C"}}