{"cas_no": "3240-34-4", "cn_name": "\u7898\u82ef\u4e8c\u4e59\u9178", "en_name": ["Iodobenzene diacetate", "Iodine, bis(acetato-\u03baO)phenyl-", "Benzene, (diacetoxyiodo)-", "Iodine, bis(acetato-O)phenyl-", "Benzene, (dihydroxyiodo)-, diacetate", "Benzene, iodoso-, diacetate", "Bis(acetato-\u03baO)phenyliodine", "Phenyliodoso acetate", "Iodosobenzene diacetate", "(Diacetoxyiodo)benzene", "Phenyliodine diacetate", "Phenyliodoso diacetate", "Phenyliodo diacetate", "Bis(acetato)phenyliodine", "Phenyliodine(III) diacetate", "Phenyliodosyl diacetate", "Iodobenzene diacetate", "[Bis(acetoxy)iodo]benzene", "Phenyliodonium diacetate", "Iodophenyl diacetate", "Iodosylbenzene diacetate", "PIDA", "NSC 226375", "NSC 23801", "BAIB", "Diacetoxy(phenyl)iodine", "Phenyliodanediyl diacetate"], "SMILES": "I(OC(C)=O)(OC(C)=O)C1=CC=CC=C1", "physical_data": {"Molecular Weight": "322.10", "Molecular Formula": "C10H11IO4", "Melting Point": "160.5 \u00b0C"}}