{"cas_no": "3240-94-6", "cn_name": "4-(2-\u6c2f\u4e59\u57fa)\u5417\u5549", "en_name": ["4-(2-Chloroethyl)morpholine", "Morpholine, 4-(2-chloroethyl)-", "4-(2-Chloroethyl)morpholine", "N-(2-Chloroethyl)morpholine", "Morpholinoethyl chloride", "\u03b2-Morpholinoethyl chloride", "2-Morpholinoethyl chloride", "2-Morpholino-1-chloroethane", "\u03b2-Chloroethylmorpholine", "1-Chloro-2-morpholinoethane", "2-(4-Morpholinyl)ethyl chloride", "1-Morpholino-2-chloroethane", "N-(Chloroethyl)morpholine"], "SMILES": "C(CCl)N1CCOCC1", "physical_data": {"Molecular Weight": "149.62", "Molecular Formula": "C6H12ClNO", "Boiling Point": "93-94 \u00b0C @ Press: 12 Torr"}}