{"cas_no": "3240-72-0", "cn_name": "5,6-\u6c28\u57fa-2,4(1H,3H)-\u5627\u5576\u4e8c\u916e", "en_name": ["5,6-Diaminouracil", "2,4(1H,3H)-Pyrimidinedione, 5,6-diamino-", "Uracil, 5,6-diamino-", "5,6-Diamino-2,4(1H,3H)-pyrimidinedione", "5,6-Diaminouracil", "5,6-Diamino-2,4-dihydroxypyrimidine", "4,5-Diamino-2,6-dihydroxypyrimidine", "4,5-Diaminouracil", "2,6-Dihydroxy-4,5-diaminopyrimidine", "2,4-Dihydroxy-5,6-diaminopyrimidine"], "SMILES": "NC1=C(N)NC(=O)NC1=O", "physical_data": {"Molecular Weight": "142.12", "Molecular Formula": "C4H6N4O2", "Melting Point": "&gt;300 \u00b0C"}}