{"cas_no": "32428-71-0", "cn_name": "2-\u4e59\u57fa-6-\u7532\u57fa-2-\u6c2f\u4e59\u9170\u82ef\u80fa", "en_name": ["2-Chloro-N-(2-ethyl-6-methylphenyl)acetamide", "Acetamide, 2-chloro-N-(2-ethyl-6-methylphenyl)-", "o-Acetotoluidide, 2-chloro-6\u2032-ethyl-", "2-Chloro-N-(2-ethyl-6-methylphenyl)acetamide", "2-Chloro-2\u2032-ethyl-6\u2032-methylacetanilide", "2\u2032-Ethyl-6\u2032-methyl-2-chloroacetanilide", "2\u2032-Methyl-6\u2032-ethyl-\u03b1-chloroacetanilide", "CGA 13656", "N-(Chloroacetyl)-2-ethyl-6-methylaniline", "CMEPA"], "SMILES": "N(C(CCl)=O)C1=C(CC)C=CC=C1C", "physical_data": {"Molecular Weight": "211.69", "Molecular Formula": "C11H14ClNO", "Melting Point": "120-121 \u00b0C"}}