{"cas_no": "32431-93-9", "cn_name": "4-\u6eb4-2-\u6c2f\u567b\u5429", "en_name": ["4-Bromo-2-chlorothiophene", "Thiophene, 4-bromo-2-chloro-", "4-Bromo-2-chlorothiophene", "2-Chloro-4-bromothiophene"], "SMILES": "BrC=1C=C(Cl)SC1", "physical_data": {"Molecular Weight": "197.48", "Molecular Formula": "C4H2BrClS", "Boiling Point": "67-69 \u00b0C @ Press: 9 Torr"}}