{"cas_no": "32431-84-8", "cn_name": "3-\u6c1f-2-\u567b\u5429\u7fa7\u9178", "en_name": ["3-Fluoro-2-thiophenecarboxylic acid", "2-Thiophenecarboxylic acid, 3-fluoro-", "3-Fluoro-2-thiophenecarboxylic acid"], "SMILES": "C(O)(=O)C1=C(F)C=CS1", "physical_data": {"Molecular Weight": "146.14", "Molecular Formula": "C5H3FO2S", "Melting Point": "157-158 \u00b0C"}}