{"cas_no": "32434-44-9", "cn_name": "\u5f02\u5e38\u5c71\u78b1", "en_name": ["3-[[(2S,3aS,7aS)-Octahydro-2-hydroxyfuro[3,2-b]pyridin-2-yl]methyl]-4(3H)-quinazolinone", "4(3H)-Quinazolinone, 3-[[(2S,3aS,7aS)-octahydro-2-hydroxyfuro[3,2-b]pyridin-2-yl]methyl]-", "Isofebrifugine", "Furo[3,2-b]pyridine, 4(3H)-quinazolinone deriv.", "3-[[(2S,3aS,7aS)-Octahydro-2-hydroxyfuro[3,2-b]pyridin-2-yl]methyl]-4(3H)-quinazolinone", "(+)-Isofebrifugine", "NSC 290495", "\u03b1-Dichroine"], "SMILES": "C(C1(O)CC2C(O1)CCCN2)N3C(=O)C=4C(N=C3)=CC=CC4", "physical_data": {"Molecular Weight": "301.34", "Molecular Formula": "C16H19N3O3", "Melting Point": "129-130 \u00b0C"}}