{"cas_no": "32444-63-6", "cn_name": "\u53cd-4-\u4e8c\u7532\u6c28\u57fa\u8089\u6842\u8148", "en_name": ["3-[4-(Dimethylamino)phenyl]-2-propenenitrile", "2-Propenenitrile, 3-[4-(dimethylamino)phenyl]-", "Cinnamonitrile, p-(dimethylamino)-", "3-[4-(Dimethylamino)phenyl]-2-propenenitrile", "NSC 122722", "NSC 636938", "4-N,N-Dimethylamino-\u03b2-cyanostyrene", "3-[4-(Dimethylamino)phenyl]acrylonitrile"], "SMILES": "N(C)(C)C1=CC=C(C=CC#N)C=C1", "physical_data": {"Molecular Weight": "172.23", "Molecular Formula": "C11H12N2", "Melting Point": "63 \u00b0C"}}