{"cas_no": "3244-54-0", "cn_name": "3,6-\u4e8c\u785d\u57fa-9H-\u5494\u5511", "en_name": ["3,6-Dinitrocarbazole", "9H-Carbazole, 3,6-dinitro-", "Carbazole, 3,6-dinitro-", "3,6-Dinitro-9H-carbazole", "3,6-Dinitrocarbazole"], "SMILES": "N(=O)(=O)C=1C=C2C=3C(NC2=CC1)=CC=C(N(=O)=O)C3", "physical_data": {"Molecular Weight": "257.20", "Molecular Formula": "C12H7N3O4", "Melting Point": "365-367 \u00b0C"}}