{"cas_no": "32449-92-6", "cn_name": "\u8461\u919b\u5185\u916f", "en_name": ["Glucuronolactone", "D-Glucuronic acid, \u03b3-lactone", "Glucuronic acid, \u03b3-lactone, D-", "Glucurone", "Glucuronolactone", "Glucurolactone", "D-Glucuronolactone", "D-Glucurono-\u03b3-lactone", "D-Glucurono-6,3-lactone", "Glucuronic acid \u03b3-lactone", "Glucoxy", "Guronsan", "Dicurone", "Glycurone", "Reulatt S.S.", "Glucuronosan", "D-Glucurono-3,6-lactone", "D-Glucuronic acid lactone", "D-Glucofuranurono-6,3-lactone", "Glucurono-6,3-lactone", "NSC 656", "D-Glucuronic acid \u03b3-lactone"], "SMILES": "C(C=O)(O)C1C(O)C(O)C(=O)O1", "physical_data": {"Molecular Weight": "176.12", "Molecular Formula": "C6H8O6", "Melting Point": "177.5 \u00b0C", "Density": "1.75 g/cm\u00b3 @ Temp: 25 \u00b0C"}}