{"cas_no": "32446-40-5", "cn_name": "\u786b\u6c30\u9178\u620a\u916f", "en_name": ["Thiocyanic acid, pentyl ester", "Thiocyanic acid, pentyl ester", "Pentane, 1-thiocyanato-", "Amyl thiocyanate", "Pentyl thiocyanate", "n-Pentyl thiocyanate", "1-Thiocyanatopentane"], "SMILES": "C(CSC#N)CCC", "physical_data": {"Molecular Weight": "129.22", "Molecular Formula": "C6H11NS", "Boiling Point": "90-91 \u00b0C @ Press: 16 Torr", "Density": "0.9412 g/cm\u00b3 @ Temp: 25 \u00b0C"}}