{"cas_no": "32459-62-4", "cn_name": "\u5f02\u6c30\u9178 4-\u4e59\u6c27\u57fa\u82ef\u916f", "en_name": ["1-Ethoxy-4-isocyanatobenzene", "Benzene, 1-ethoxy-4-isocyanato-", "Isocyanic acid, p-ethoxyphenyl ester", "Phenetole, p-isocyanato-", "1-Ethoxy-4-isocyanatobenzene", "p-Ethoxyphenyl isocyanate", "4-Ethoxyphenyl isocyanate", "4-Ethoxy-1-isocyanatobenzene"], "SMILES": "N(=C=O)C1=CC=C(OCC)C=C1", "physical_data": {"Molecular Weight": "163.17", "Molecular Formula": "C9H9NO2", "Boiling Point": "110 \u00b0C", "Melting Point": "61 \u00b0C"}}