{"cas_no": "3245-23-6", "cn_name": "\u4e59\u9178-4-\u4e59\u57fa\u82ef\u915a\u916f", "en_name": ["4-Ethylphenyl acetate", "Phenol, 4-ethyl-, 1-acetate", "Phenol, p-ethyl-, acetate", "Phenol, 4-ethyl-, acetate", "p-Ethylphenyl acetate", "4-Ethylphenyl acetate", "4-Acetoxyethylbenzene", "NSC 6705"], "SMILES": "O(C(C)=O)C1=CC=C(CC)C=C1", "physical_data": {"Molecular Weight": "164.20", "Molecular Formula": "C10H12O2", "Boiling Point": "109-124 \u00b0C @ Press: 13 Torr"}}