{"cas_no": "3245-38-3", "cn_name": "\u8131\u6c27\u80c6\u9178\u7532\u916f", "en_name": ["Methyl deoxycholate", "Cholan-24-oic acid, 3,12-dihydroxy-, methyl ester, (3\u03b1,5\u03b2,12\u03b1)-", "5\u03b2-Cholan-24-oic acid, 3\u03b1,12\u03b1-dihydroxy-, methyl ester", "Deoxycholic acid, methyl ester", "Desoxycholic acid, methyl ester", "Methyl 3\u03b1,12\u03b1-dihydroxy-5\u03b2-cholanoate", "Methyl deoxycholate", "Methyl 3\u03b1,12\u03b1-dihydroxy-5\u03b2-cholan-24-oate", "Methyl 7-deoxycholate", "NSC 22957"], "SMILES": "CC12C(C3C(C4(C)C(CC3)CC(O)CC4)CC1O)CCC2C(CCC(OC)=O)C", "physical_data": {"Molecular Weight": "406.60", "Molecular Formula": "C25H42O4", "Melting Point": "92-93 \u00b0C"}}