{"cas_no": "32453-36-4", "cn_name": "\u69f2\u76ae\u7d20-3-O-\u65b0\u6a59\u76ae\u82f7", "en_name": ["Quercetin 3-O-neohesperidoside", "4H-1-Benzopyran-4-one, 3-[[2-O-(6-deoxy-\u03b1-L-mannopyranosyl)-\u03b2-D-glucopyranosyl]oxy]-2-(3,4-dihydroxyphenyl)-5,7-dihydroxy-", "Flavone, 3,3\u2032,4\u2032,5,7-pentahydroxy-, 3-[2-O-(6-deoxy-\u03b1-L-mannopyranosyl)-\u03b2-D-glucopyranoside]", "3-[[2-O-(6-Deoxy-\u03b1-L-mannopyranosyl)-\u03b2-D-glucopyranosyl]oxy]-2-(3,4-dihydroxyphenyl)-5,7-dihydroxy-4H-1-benzopyran-4-one", "Quercetin 3-neohesperidoside", "Q 7", "Quercetin 3-O-neohesperidoside", "Calendoflavobioside", "Quercetin 3-O-\u03b2-neohesperidoside", "Quercetin 3-O-neohesperidin"], "SMILES": "O(C1=C(OC=2C(C1=O)=C(O)C=C(O)C2)C3=CC(O)=C(O)C=C3)C4C(OC5C(O)C(O)C(O)C(C)O5)C(O)C(O)C(CO)O4", "physical_data": {"Molecular Weight": "610.52", "Molecular Formula": "C27H30O16", "Melting Point": "216-220 \u00b0C"}}