{"cas_no": "32451-19-7", "cn_name": "2-(2-\u567b\u5429\u57fa)-1,3-\u567b\u5511\u70f7-4-\u7fa7\u9178", "en_name": ["2-(2-Thienyl)-4-thiazolidinecarboxylic acid", "4-Thiazolidinecarboxylic acid, 2-(2-thienyl)-", "2-(2-Thienyl)-4-thiazolidinecarboxylic acid", "2-(2-Thienyl)-L-thiazolidine-4-carboxylic acid", "NSC 522095", "NSC 83229", "2-(Thiophen-2-yl)-1,3-thiazolidine-4-carboxylic acid", "2-Thien-2-yl-1,3-thiazolidine-4-carboxylic acid", "2-Thiophen-2-yl-thiazolidine-4-carboxylic acid", "2-Thiophen-2-yl-1,3-thiazolidine-4-carboxylic acid"], "SMILES": "C(O)(=O)C1NC(SC1)C2=CC=CS2", "physical_data": {"Molecular Weight": "215.29", "Molecular Formula": "C8H9NO2S2", "Melting Point": "145-146 \u00b0C"}}