{"cas_no": "32460-02-9", "cn_name": "3,4-\u4e8c\u6eb4\u544b\u5583", "en_name": ["3,4-Dibromofuran", "Furan, 3,4-dibromo-", "3,4-Dibromofuran"], "SMILES": "BrC=1C(Br)=COC1", "physical_data": {"Molecular Weight": "225.87", "Molecular Formula": "C4H2Br2O", "Boiling Point": "52-53 \u00b0C @ Press: 11 Torr", "Melting Point": "5-6 \u00b0C"}}