{"cas_no": "32462-30-9", "cn_name": "L-(+)-\u5bf9\u7f9f\u57fa\u82ef\u7518\u6c28\u9178", "en_name": ["Oxfenicine", "Benzeneacetic acid, \u03b1-amino-4-hydroxy-, (\u03b1S)-", "Benzeneacetic acid, \u03b1-amino-4-hydroxy-, (S)-", "Glycine, 2-(p-hydroxyphenyl)-, L-", "(\u03b1S)-\u03b1-Amino-4-hydroxybenzeneacetic acid", "L-(+)-2-(4-Hydroxyphenyl)glycine", "L-(p-Hydroxyphenyl)glycine", "L-(+)-(p-Hydroxyphenyl)glycine", "L-\u03b1-Amino-p-hydroxyphenylacetic acid", "p-Hydroxy-L-phenylglycine", "Oxfenicine", "UK 25842", "L-(4-Hydroxyphenyl)glycine", "L-2-(p-Hydroxyphenyl)glycine", "(S)-(4-Hydroxyphenyl)glycine", "L-(+)-4-Hydroxyphenylglycine", "(S)-2-(4-Hydroxyphenyl)glycine", "(S)-2-Amino-2-(4-hydroxyphenyl)acetic acid", "(2S)-2-Amino-2-(4-hydroxyphenyl)acetic acid", "4-Hydroxy-L-phenylglycine"], "SMILES": "C(C(O)=O)(N)C1=CC=C(O)C=C1", "physical_data": {"Molecular Weight": "167.16", "Molecular Formula": "C8H9NO3", "Melting Point": "212-214 \u00b0C"}}