{"cas_no": "32476-67-8", "cn_name": "\u6760\u67f3\u6b21\u82f7", "en_name": ["Periplocymarin", "Card-20(22)-enolide, 3-[(2,6-dideoxy-3-O-methyl-\u03b2-D-ribo-hexopyranosyl)oxy]-5,14-dihydroxy-, (3\u03b2,5\u03b2)-", "Periplocymarin"], "SMILES": "OC12C3C(C4(C)C(O)(CC3)CC(OC5CC(OC)C(O)C(C)O5)CC4)CCC1(C)C(CC2)C6=CC(=O)OC6", "physical_data": {"Molecular Weight": "534.68", "Molecular Formula": "C30H46O8", "Melting Point": "148 \u00b0C"}}