{"cas_no": "3247-00-5", "cn_name": "4,4',4'-\u4e09\u7532\u57fa\u4e09\u82ef\u7532\u57fa\u4e59\u9187", "en_name": ["4-Methyl-\u03b1,\u03b1-bis(4-methylphenyl)benzenemethanol", "Benzenemethanol, 4-methyl-\u03b1,\u03b1-bis(4-methylphenyl)-", "Methanol, tri-p-tolyl-", "4-Methyl-\u03b1,\u03b1-bis(4-methylphenyl)benzenemethanol", "Tris(4-methylphenyl)methanol", "Tri(p-tolyl)methanol", "4,4\u2032,4\u2032\u2032-Trimethyltriphenylmethanol", "Tri-p-tolyl carbinol", "NSC 123489"], "SMILES": "C(O)(C1=CC=C(C)C=C1)(C2=CC=C(C)C=C2)C3=CC=C(C)C=C3", "physical_data": {"Molecular Weight": "302.41", "Molecular Formula": "C22H22O", "Melting Point": "94 \u00b0C"}}