{"cas_no": "324763-51-1", "cn_name": "3-\u6c28\u57fa-2,2-\u4e8c\u7532\u57fa\u4e19\u9170\u80fa", "en_name": ["3-Amino-2,2-dimethylpropanamide", "Propanamide, 3-amino-2,2-dimethyl-", "3-Amino-2,2-dimethylpropanamide", "3-Amino-2,2-dimethylpropionamide"], "SMILES": "C(C(N)=O)(CN)(C)C", "physical_data": {"Molecular Weight": "116.16", "Molecular Formula": "C5H12N2O", "Boiling Point": "145 \u00b0C @ Press: 15 Torr", "Melting Point": "74-75 \u00b0C"}}