{"cas_no": "3248-05-3", "cn_name": "4,7-\u4e8c\u7532\u57fa-1,10-\u83f2\u54af\u5549", "en_name": ["4,7-Dimethyl-1,10-phenanthroline", "1,10-Phenanthroline, 4,7-dimethyl-", "4,7-Dimethyl-1,10-phenanthroline", "4,7-Dimethyl-o-phenanthroline", "NSC 4281"], "SMILES": "CC=1C=2C(=C3C(=CC2)C(C)=CC=N3)N=CC1", "physical_data": {"Molecular Weight": "208.26", "Molecular Formula": "C14H12N2", "Melting Point": "194-195 \u00b0C"}}