{"cas_no": "3249-68-1", "cn_name": "\u4e01\u9170\u4e59\u9178\u4e59\u916f", "en_name": ["Ethyl 3-oxohexanoate", "Hexanoic acid, 3-oxo-, ethyl ester", "Caproic acid, \u03b2-oxo-, ethyl ester", "Ethyl 3-oxohexanoate", "Ethyl \u03b1-butyrylacetate", "Ethyl butyrylacetate", "Ethyl butyroacetate", "3-Oxohexanoic acid ethyl ester", "Ethyl butyroylacetate", "Ethyl 3-ketohexanoate", "NSC 42868", "Ethyl 3-propyl-3-oxopropanoate", "Butyrylacetic acid ethyl ester"], "SMILES": "C(CC(OCC)=O)(CCC)=O", "physical_data": {"Molecular Weight": "158.20", "Molecular Formula": "C8H14O3", "Boiling Point": "139-140 \u00b0C @ Press: 24 Torr", "Density": "1.0168 g/cm\u00b3 @ Temp: 20 \u00b0C"}}