{"cas_no": "32492-74-3", "cn_name": "MYRICANONE", "en_name": ["3,15-Dihydroxy-16,17-dimethoxytricyclo[12.3.1.12,6]nonadeca-1(18),2,4,6(19),14,16-hexaen-9-one", "Tricyclo[12.3.1.12,6]nonadeca-1(18),2,4,6(19),14,16-hexaen-9-one, 3,15-dihydroxy-16,17-dimethoxy-", "3,15-Dihydroxy-16,17-dimethoxytricyclo[12.3.1.12,6]nonadeca-1(18),2,4,6(19),14,16-hexaen-9-one", "Myricanone"], "SMILES": "O(C)C1=C2C=3C=C(C=CC3O)CCC(=O)CCCCC(=C2)C(O)=C1OC", "physical_data": {"Molecular Weight": "356.41", "Molecular Formula": "C21H24O5", "Melting Point": "190-192 \u00b0C"}}