{"cas_no": "325-13-3", "cn_name": "6-\u4e09\u6c1f\u7532\u57fa\u55b9\u5549", "en_name": ["6-(Trifluoromethyl)quinoline", "Quinoline, 6-(trifluoromethyl)-", "6-(Trifluoromethyl)quinoline", "6-Trifluoromethylquinoline"], "SMILES": "C(F)(F)(F)C1=CC2=C(C=C1)N=CC=C2", "physical_data": {"Molecular Weight": "197.16", "Molecular Formula": "C10H6F3N", "Boiling Point": "224 \u00b0C @ Press: 714 Torr", "Melting Point": "39 \u00b0C"}}