{"cas_no": "325-14-4", "cn_name": "7-\u4e09\u6c1f\u7532\u57fa\u55b9\u5549", "en_name": ["7-(Trifluoromethyl)quinoline", "Quinoline, 7-(trifluoromethyl)-", "7-(Trifluoromethyl)quinoline"], "SMILES": "C(F)(F)(F)C1=CC2=C(C=C1)C=CC=N2", "physical_data": {"Molecular Weight": "197.16", "Molecular Formula": "C10H6F3N", "Boiling Point": "219-221 \u00b0C @ Press: 731 Torr", "Melting Point": "66-68 \u00b0C"}}