{"cas_no": "32503-34-7", "cn_name": "\u56db\u5df1\u57fa\u786b\u9178\u6c22\u94f5", "en_name": ["Tetrahexylammonium hydrogen sulfate", "1-Hexanaminium, N,N,N-trihexyl-, sulfate (1:1)", "Ammonium, tetrahexyl-, sulfate (1:1)", "Hydrogen tetrahexylammonium sulfate", "Tetrahexylammonium hydrogen sulfate", "Tetrahexylammonium bisulfate", "Tetra(n-hexyl)ammonium hydrogen sulfate"], "SMILES": "S(=O)(=O)([O-])O.[N+](CCCCCC)(CCCCCC)(CCCCCC)CCCCCC", "physical_data": {"Molecular Weight": "", "Molecular Formula": "C24H52N.HO4S", "Melting Point": "97-98 \u00b0C"}}