{"cas_no": "32503-27-8", "cn_name": "\u56db\u4e01\u57fa\u786b\u9178\u6c22\u94f5", "en_name": ["Tetrabutylammonium hydrogen sulfate", "1-Butanaminium, N,N,N-tributyl-, sulfate (1:1)", "Ammonium, tetrabutyl-, sulfate (1:1)", "Tetrabutylammonium hydrogen sulfate", "Tetrabutylammonium bisulfate", "Tetrabutylammonium hydrosulfate", "Tetra-n-butylammonium hydrogen sulfate", "TBAHS-MB"], "SMILES": "[N+](CCCC)(CCCC)(CCCC)CCCC.S(=O)(=O)([O-])O", "physical_data": {"Molecular Weight": "", "Molecular Formula": "C16H36N.HO4S", "Melting Point": "170-171 \u00b0C"}}