{"cas_no": "32501-05-6", "cn_name": "1,3-\u4e8c\u6c22-2H-\u5421\u54af\u5e76[3,2-b]\u5421\u5576-2-\u916e", "en_name": ["1,3-Dihydro-2H-pyrrolo[3,2-b]pyridin-2-one", "2H-Pyrrolo[3,2-b]pyridin-2-one, 1,3-dihydro-", "1,3-Dihydro-2H-pyrrolo[3,2-b]pyridin-2-one", "NSC 244253", "1,3-Dihydropyrrolo[3,2-b]pyridin-2-one", "1H,2H,3H-Pyrrolo[3,2-b]pyridin-2-one"], "SMILES": "O=C1CC=2C(N1)=CC=CN2", "physical_data": {"Molecular Weight": "134.14", "Molecular Formula": "C7H6N2O", "Melting Point": "204-206 \u00b0C"}}