{"cas_no": "32500-67-7", "cn_name": "1-\u4e19\u57fa\u5421\u5511", "en_name": ["1-Propyl-1H-pyrazole", "1H-Pyrazole, 1-propyl-", "Pyrazole, 1-propyl-", "1-Propyl-1H-pyrazole", "1-Propylpyrazole"], "SMILES": "C(CC)N1C=CC=N1", "physical_data": {"Molecular Weight": "110.16", "Molecular Formula": "C6H10N2", "Boiling Point": "48 \u00b0C @ Press: 17 Torr"}}