{"cas_no": "3250-74-6", "cn_name": "5-(3-\u5421\u5576\u57fa)-1H-\u56db\u5511", "en_name": ["3-(2H-Tetrazol-5-yl)pyridine", "Pyridine, 3-(2H-tetrazol-5-yl)-", "Pyridine, 3-(1H-tetrazol-5-yl)-", "Pyridine, 3-(tetrazol-5-yl)-", "3-(2H-Tetrazol-5-yl)pyridine", "5-(3-Pyridyl)tetrazole", "5-\u03b2-Pyridyltetrazole", "Lu 31-102", "5-(3-Pyridyl)-1H-tetrazole", "3-(1H-Tetrazol-5-yl)pyridine", "5-(3-Pyridinyl)-1H-tetrazole", "5-(Pyridin-3-yl)tetrazole", "5-(3\u2032-Pyridinyl)-1H-tetrazole"], "SMILES": "C=1(NN=NN1)C=2C=CC=NC2", "physical_data": {"Molecular Weight": "147.14", "Molecular Formula": "C6H5N5", "Melting Point": "234-235 \u00b0C (decomp)"}}