{"cas_no": "32507-66-7", "cn_name": "\u5f02\u4e39\u53f6\u5927\u9ec4\u7d20", "en_name": ["Isorhapontigenin", "1,3-Benzenediol, 5-[(1E)-2-(4-hydroxy-3-methoxyphenyl)ethenyl]-", "3,4\u2032,5-Stilbenetriol, 3\u2032-methoxy-, (E)-", "1,3-Benzenediol, 5-[2-(4-hydroxy-3-methoxyphenyl)ethenyl]-, (E)-", "5-[(1E)-2-(4-Hydroxy-3-methoxyphenyl)ethenyl]-1,3-benzenediol", "Isorhapontigenin", "Isorhapotogenin", "Isorhapotigenin", "3\u2032-Methoxyresveratrol"], "SMILES": "C(=CC1=CC(O)=CC(O)=C1)C2=CC(OC)=C(O)C=C2", "physical_data": {"Molecular Weight": "258.27", "Molecular Formula": "C15H14O4", "Melting Point": "182 \u00b0C"}}