{"cas_no": "325152-98-5", "cn_name": "(S)-2-\u6c28\u57fa-2-(3-\u6c1f\u82ef\u57fa)\u4e59\u9187", "en_name": ["(\u03b2S)-\u03b2-Amino-3-fluorobenzeneethanol", "Benzeneethanol, \u03b2-amino-3-fluoro-, (\u03b2S)-", "(\u03b2S)-\u03b2-Amino-3-fluorobenzeneethanol", "(2S)-2-Amino-2-(3-fluorophenyl)ethanol", "(S)-2-Amino-2-(3-fluorophenyl)ethanol"], "SMILES": "C(CO)(N)C1=CC(F)=CC=C1", "physical_data": {"Molecular Weight": "155.17", "Molecular Formula": "C8H10FNO", "Melting Point": "96-98 \u00b0C"}}