{"cas_no": "3251-69-2", "cn_name": "4-\u54aa\u5511\u4e59\u9178\u76d0\u9178\u76d0", "en_name": ["1H-Imidazole-5-acetic acid, hydrochloride (1:1)", "1H-Imidazole-5-acetic acid, hydrochloride (1:1)", "Imidazole-4-acetic acid, monohydrochloride", "Imidazoleacetic acid hydrochloride", "1H-Imidazole-4-acetic acid, monohydrochloride", "Imidazole-4-acetic acid hydrochloride", "1H-Imidazole-4-acetic acid, hydrochloride", "Imidazol-4-acetic acid hydrochloride", "1H-Imidazole-5-acetic acid hydrochloride", "(1H-Imidazol-4-yl)acetic acid hydrochloride", "(1H-Imidazol-5-yl)acetic acid hydrochloride", "2-(1H-Imidazol-5-yl)acetic acid hydrochloride", "2-(1H-Imidazol-4-yl)acetic acid hydrochloride"], "SMILES": "C(C(O)=O)C1=CN=CN1.Cl", "physical_data": {"Molecular Weight": "", "Molecular Formula": "C5H6N2O2.ClH", "Melting Point": "127 \u00b0C"}}