{"cas_no": "3251-23-8", "cn_name": "\u785d\u9178\u94dc", "en_name": ["Cupric nitrate", "Nitric acid, copper(2+) salt (2:1)", "Nitric acid, copper(2+) salt", "Copper nitrate (Cu(NO3)2)", "Cupric nitrate", "Copper(II) nitrate", "Copper dinitrate", "Cupric dinitrate", "Copper(2+) nitrate", "Claycop"], "SMILES": "N(=O)(=O)O.[Cu]", "physical_data": {"Molecular Weight": "", "Molecular Formula": "Cu.2HNO3", "Melting Point": "255-256 \u00b0C"}}