{"cas_no": "325142-84-5", "cn_name": "3-\u7532\u6c27\u57fa\u82ef\u787c\u9178\u9891\u54ea\u9187\u916f", "en_name": ["2-(3-Methoxyphenyl)-4,4,5,5-tetramethyl-1,3,2-dioxaborolane", "1,3,2-Dioxaborolane, 2-(3-methoxyphenyl)-4,4,5,5-tetramethyl-", "2-(3-Methoxyphenyl)-4,4,5,5-tetramethyl-1,3,2-dioxaborolane", "m-(Pinacolboryl)anisole", "3-Methoxy-1-(4,4,5,5-tetramethyl-1,3,2-dioxaborolan-2-yl)benzene", "(3-Methoxyphenyl)boronic acid pinacol ester", "3-(4,4,5,5-Tetramethyl-1,3,2-dioxaborolan-2-yl)anisole"], "SMILES": "CC1(C)OB(OC1(C)C)C2=CC(OC)=CC=C2", "physical_data": {"Molecular Weight": "234.10", "Molecular Formula": "C13H19BO3", "Melting Point": "106-107 \u00b0C"}}