{"cas_no": "32511-34-5", "cn_name": "(R)-(+)-\u964d\u51b0\u7247\u80fa", "en_name": ["(+)-Bornylamine", "Bicyclo[2.2.1]heptan-2-amine, 1,7,7-trimethyl-, (1R,2S,4R)-", "2-Bornanamine, endo-(+)-", "Bicyclo[2.2.1]heptan-2-amine, 1,7,7-trimethyl-, (1R-endo)-", "(1R,2S,4R)-1,7,7-Trimethylbicyclo[2.2.1]heptan-2-amine", "D-Bornylamine", "(+)-Bornylamine", "(1R-endo)-Bornylamine", "(1R,2S,4R)-Bornylamine", "(R)-(+)-Bornylamine", "(1S,2S,4R)-1,7,7-Trimethylbicyclo[2.2.1]heptan-2-amine"], "SMILES": "CC12C(C)(C)C(CC1N)CC2", "physical_data": {"Molecular Weight": "153.26", "Molecular Formula": "C10H19N", "Melting Point": "159 \u00b0C"}}