{"cas_no": "3251-56-7", "cn_name": "4-\u785d\u57fa\u6108\u521b\u6728\u915a", "en_name": ["2-Methoxy-4-nitrophenol", "Phenol, 2-methoxy-4-nitro-", "Guaiacol, 4-nitro-", "2-Methoxy-4-nitrophenol", "4-Hydroxy-3-methoxynitrobenzene", "4-Nitroguaiacol", "3-Nitro-6-hydroxyanisole", "3-Methoxy-4-hydroxynitrobenzene", "NSC 26149", "4-Nitro-2-methoxyphenol"], "SMILES": "O(C)C1=CC(N(=O)=O)=CC=C1O", "physical_data": {"Molecular Weight": "169.13", "Molecular Formula": "C7H7NO4", "Melting Point": "99-100 \u00b0C"}}