{"cas_no": "32510-61-5", "cn_name": "\u5934\u5b62\u5511\u5549\u6742\u8d28D", "en_name": ["(6R,7R)-3-[(Acetyloxy)methyl]-8-oxo-7-[[2-(1H-tetrazol-1-yl)acetyl]amino]-5-thia-1-azabicyclo[4.2.0]oct-2-ene-2-carboxylic acid", "5-Thia-1-azabicyclo[4.2.0]oct-2-ene-2-carboxylic acid, 3-[(acetyloxy)methyl]-8-oxo-7-[[2-(1H-tetrazol-1-yl)acetyl]amino]-, (6R,7R)-", "5-Thia-1-azabicyclo[4.2.0]oct-2-ene-2-carboxylic acid, 3-(hydroxymethyl)-8-oxo-7-[2-(1H-tetrazol-1-yl)acetamido]-, acetate (ester)", "5-Thia-1-azabicyclo[4.2.0]oct-2-ene-2-carboxylic acid, 3-[(acetyloxy)methyl]-8-oxo-7-[(1H-tetrazol-1-ylacetyl)amino]-, (6R-trans)-", "5-Thia-1-azabicyclo[4.2.0]oct-2-ene-2-carboxylic acid, 3-[(acetyloxy)methyl]-8-oxo-7-[(1H-tetrazol-1-ylacetyl)amino]-, (6R,7R)-", "(6R,7R)-3-[(Acetyloxy)methyl]-8-oxo-7-[[2-(1H-tetrazol-1-yl)acetyl]amino]-5-thia-1-azabicyclo[4.2.0]oct-2-ene-2-carboxylic acid", "N-(Tetrazolylacetyl)-7-aminocephalosporin", "7-(1H-Tetrazol-1-acetamido)cephalosporanic acid", "7-(1H-Tetrazol-1-yl)acetamidocelphalosporanic acid"], "SMILES": "C(O)(=O)C=1N2C(C(NC(CN3C=NN=N3)=O)C2=O)SCC1COC(C)=O", "physical_data": {"Molecular Weight": "382.35", "Molecular Formula": "C13H14N6O6S", "Melting Point": "215-217 \u00b0C"}}