{"cas_no": "3252-36-6", "cn_name": "\u4e59\u9178-5-\u6eb4-4-\u6c2f-3-\u5432\u54da\u6c27\u57fa\u916f", "en_name": ["5-Bromo-4-chloro-3-indolyl acetate", "1H-Indol-3-ol, 5-bromo-4-chloro-, 3-acetate", "Indol-3-ol, 5-bromo-4-chloro-, acetate (ester)", "1H-Indol-3-ol, 5-bromo-4-chloro-, acetate (ester)", "Indol-3-ol, 5-bromo-4-chloro-, acetate", "Indoxyl, 5-bromo-4-chloro-, acetate", "5-Bromo-4-chloroindoxyl acetate", "5-Bromo-4-chloro-3-indolyl acetate", "5-Bromo-4-chloro-3-indoxyl acetate"], "SMILES": "O(C(C)=O)C=1C=2C(NC1)=CC=C(Br)C2Cl", "physical_data": {"Molecular Weight": "288.53", "Molecular Formula": "C10H7BrClNO2", "Melting Point": "106-107 \u00b0C"}}