{"cas_no": "3252-43-5", "cn_name": "\u4e8c\u6eb4\u4e59\u8148", "en_name": ["Dibromoacetonitrile", "Acetonitrile, 2,2-dibromo-", "Acetonitrile, dibromo-", "2,2-Dibromoacetonitrile", "Dibromoacetonitrile"], "SMILES": "C(C#N)(Br)Br", "physical_data": {"Molecular Weight": "198.84", "Molecular Formula": "C2HBr2N", "Boiling Point": "67-69 \u00b0C @ Press: 24 Torr", "Density": "2.296 g/cm\u00b3 @ Temp: 25 \u00b0C"}}