{"cas_no": "3254-89-5", "cn_name": "\u76d0\u9178\u5730\u82ac\u5c3c\u591a", "en_name": ["Diphenidol hydrochloride", "1-Piperidinebutanol, \u03b1,\u03b1-diphenyl-, hydrochloride (1:1)", "1-Piperidinebutanol, \u03b1,\u03b1-diphenyl-, hydrochloride", "Diphenidol hydrochloride", "Ansmin", "Cefadol", "Vontrol", "Difenidolin", "Tenesdol", "SKF 478A", "Wansar", "Satanolon", "Mecalmin", "Pineroro", "Celmidol", "Maniol", "Difenidol hydrochloride", "1,1-Diphenyl-4-(piperidin-1-yl)butan-1-ol hydrochloride"], "SMILES": "C(CCCN1CCCCC1)(O)(C2=CC=CC=C2)C3=CC=CC=C3.Cl", "physical_data": {"Molecular Weight": "", "Molecular Formula": "C21H27NO.ClH", "Melting Point": "212-214 \u00b0C"}}