{"cas_no": "32543-38-7", "cn_name": "\u6df7\u65cb\u8089\u78b1\u4e73\u6e05\u9178\u76d0", "en_name": ["Carnitine orotate", "1-Propanaminium, 3-carboxy-2-hydroxy-N,N,N-trimethyl-, 1,2,3,6-tetrahydro-2,6-dioxo-4-pyrimidinecarboxylate (1:1)", "Ammonium, (3-carboxy-2-hydroxypropyl)trimethyl-, orotate", "(3-Carboxy-2-hydroxypropyl)trimethylammonium orotate", "1-Propanaminium, 3-carboxy-2-hydroxy-N,N,N-trimethyl-, salt with 1,2,3,6-tetrahydro-2,6-dioxo-4-pyrimidinecarboxylic acid (1:1)", "Carnitine orotate"], "SMILES": "C([O-])(=O)C1=CC(=O)NC(=O)N1.C([N+](C)(C)C)C(CC(O)=O)O", "physical_data": {"Molecular Weight": "", "Molecular Formula": "C7H16NO3.C5H3N2O4", "Melting Point": "191 \u00b0C"}}