{"cas_no": "32556-71-1", "cn_name": "(S)-1-\u8f9b\u7094-3-\u9187", "en_name": ["(3S)-1-Octyn-3-ol", "1-Octyn-3-ol, (3S)-", "1-Octyn-3-ol, (S)-", "1-Octyn-3-ol, (S)-(-)-", "(3S)-1-Octyn-3-ol", "(S)-1-Octyn-3-ol", "(S)(-)-1-Octyn-3-ol", "(-)-1-Octyn-3-ol", "(3S)-Hydroxy-1-octyne", "(S)-1-Octyne-3-ol", "(3S)-Oct-1-yn-3-ol"], "SMILES": "C(CCCCC)(C#C)O", "physical_data": {"Molecular Weight": "126.20", "Molecular Formula": "C8H14O", "Boiling Point": "120 \u00b0C @ Press: 20 Torr"}}