{"cas_no": "3256-88-0", "cn_name": "2-\u7532\u57fa-5-\u82ef\u57fa\u5421\u5576", "en_name": ["2-Methyl-5-phenylpyridine", "Pyridine, 2-methyl-5-phenyl-", "2-Picoline, 5-phenyl-", "2-Methyl-5-phenylpyridine", "3-Phenyl-6-methylpyridine"], "SMILES": "CC=1C=CC(=CN1)C2=CC=CC=C2", "physical_data": {"Molecular Weight": "169.22", "Molecular Formula": "C12H11N", "Boiling Point": "141-145 \u00b0C @ Press: 12 Torr"}}