{"cas_no": "3257-18-9", "cn_name": "N-\u82c4\u6c27\u7fb0\u57fa-S-\u82c4\u57fa-L-\u534a\u80f1\u6c28\u9178", "en_name": ["N-[(Phenylmethoxy)carbonyl]-S-(phenylmethyl)-L-cysteine", "L-Cysteine, N-[(phenylmethoxy)carbonyl]-S-(phenylmethyl)-", "Alanine, 3-(benzylthio)-N-carboxy-, N-benzyl ester, L-", "Alanine, 3-(benzylthio)-N-carboxy-, benzyl ester", "N-[(Phenylmethoxy)carbonyl]-S-(phenylmethyl)-L-cysteine", "N-Carbobenzoxy-S-benzyl-L-cysteine", "N-(Benzyloxycarbonyl)-S-benzyl-L-cysteine", "S-Benzyl-N-carbobenzyloxy-L-cysteine", "S-Benzyl-N-(benzyloxycarbonyl)-L-cysteine", "NSC 164669", "Benzeneacetic acid, [(1S)-1-carboxy-2-[(phenylmethyl)thio]ethyl]azanyl ester"], "SMILES": "C(OC(NC(CSCC1=CC=CC=C1)C(O)=O)=O)C2=CC=CC=C2", "physical_data": {"Molecular Weight": "345.41", "Molecular Formula": "C18H19NO4S", "Melting Point": "94-95 \u00b0C"}}