{"cas_no": "3258-02-4", "cn_name": "N-\u7f9f\u57fa\u80de\u82f7", "en_name": ["N4-Hydroxycytidine", "Uridine, 4-oxime", "Cytidine, N-hydroxy-", "N4-Hydroxycytidine", "N-Hydroxycytidine", "EIDD 1931", "NHC"], "SMILES": "OC1C(OC(CO)C1O)N2C(=O)NC(=NO)C=C2", "physical_data": {"Molecular Weight": "259.22", "Molecular Formula": "C9H13N3O6", "Melting Point": "169-172 \u00b0C"}}