{"cas_no": "32588-54-8", "cn_name": "2-\u53d4\u620a\u57fa\u84bd\u918c", "en_name": ["2-(1,1-Dimethylpropyl)-9,10-anthracenedione", "9,10-Anthracenedione, 2-(1,1-dimethylpropyl)-", "Anthraquinone, 2-tert-pentyl-", "2-(1,1-Dimethylpropyl)-9,10-anthracenedione", "2-tert-Amylanthraquinone", "2-tert-Pentylanthraquinone", "2-(2-Methylbutan-2-yl)-9,10-dihydroanthracene-9,10-dione", "2-(1,1-Dimethylpropyl)anthraquinone"], "SMILES": "O=C1C=2C(C(=O)C=3C1=CC=CC3)=CC=C(C(CC)(C)C)C2", "physical_data": {"Molecular Weight": "278.35", "Molecular Formula": "C19H18O2", "Boiling Point": "245-273 \u00b0C", "Density": "0.82 g/cm\u00b3"}}