{"cas_no": "32588-76-4", "cn_name": "\u4e59\u6491\u53cc\u56db\u6eb4\u90bb\u82ef\u4e8c\u7532\u9170\u4e9a\u80fa", "en_name": ["Saytex BT 93", "1H-Isoindole-1,3(2H)-dione, 2,2\u2032-(1,2-ethanediyl)bis[4,5,6,7-tetrabromo-", "Phthalimide, N,N\u2032-ethylenebis[tetrabromo-", "2,2\u2032-(1,2-Ethanediyl)bis[4,5,6,7-tetrabromo-1H-isoindole-1,3(2H)-dione]", "N,N\u2032-Ethylenebis(tetrabromophthalimide)", "Citex BT 93", "1,2-Bis(tetrabromophthalimido)ethane", "Saytex BT 93", "BT 93", "BT 93W", "Saytex BT 93W", "BT 93WFG", "Chemguard 952", "EcoFlame B 951", "Saytex BT 93W1", "1,2-Bis(tetrabromophthalimide)ethane"], "SMILES": "O=C1C=2C(C(=O)N1CCN3C(=O)C=4C(C3=O)=C(Br)C(Br)=C(Br)C4Br)=C(Br)C(Br)=C(Br)C2Br", "physical_data": {"Molecular Weight": "951.47", "Molecular Formula": "C18H4Br8N2O4", "Melting Point": "456.0 \u00b0C"}}