{"cas_no": "32580-26-0", "cn_name": "2-(2-\u6eb4\u4e59\u9170\u6c28\u57fa)-5-\u6c2f\u4e8c\u82ef\u7532\u916e", "en_name": ["N-(2-Benzoyl-4-chlorophenyl)-2-bromoacetamide", "Acetamide, N-(2-benzoyl-4-chlorophenyl)-2-bromo-", "Acetanilide, 2\u2032-benzoyl-2-bromo-4\u2032-chloro-", "N-(2-Benzoyl-4-chlorophenyl)-2-bromoacetamide", "2-(Bromoacetamido)-5-chlorobenzophenone", "2\u2032-Benzoyl-2-bromo-4\u2032-chloroacetanilide", "2-(2-Bromoacetamido)-5-chlorobenzophenone", "5-Chloro-2-(bromoacetamido)benzophenone"], "SMILES": "C(=O)(C1=C(NC(CBr)=O)C=CC(Cl)=C1)C2=CC=CC=C2", "physical_data": {"Molecular Weight": "352.61", "Molecular Formula": "C15H11BrClNO2", "Melting Point": "125.5 \u00b0C"}}