{"cas_no": "32598-14-4", "cn_name": "2,3,3',4,4'-\u4e94\u6c2f\u4e8c\u82ef\u915a", "en_name": ["PCB 105", "1,1\u2032-Biphenyl, 2,3,3\u2032,4,4\u2032-pentachloro-", "Biphenyl, 2,3,3\u2032,4,4\u2032-pentachloro-", "2,3,3\u2032,4,4\u2032-Pentachloro-1,1\u2032-biphenyl", "2,3,3\u2032,4,4\u2032-Pentachlorobiphenyl", "3,4,2\u2032,3\u2032,4\u2032-Pentachlorobiphenyl", "2,3,4,3\u2032,4\u2032-Pentachlorobiphenyl", "PCB 105", "CB 105", "2\u2032,3\u2032,4,4\u2032,5-Pentachlorobiphenyl", "Polychlorinated biphenyl-105", "1,2,3-Trichloro-4-(3,4-dichlorophenyl)benzene"], "SMILES": "ClC1=C(C2=CC(Cl)=C(Cl)C=C2)C=CC(Cl)=C1Cl", "physical_data": {"Molecular Weight": "326.43", "Molecular Formula": "C12H5Cl5", "Melting Point": "116-117 \u00b0C"}}