{"cas_no": "32596-43-3", "cn_name": "2,6-\u4e8c\u7532\u9170\u57fa-4-\u6c2f\u82ef\u915a", "en_name": ["2,6-Diformyl-4-chlorophenol", "1,3-Benzenedicarboxaldehyde, 5-chloro-2-hydroxy-", "Isophthalaldehyde, 5-chloro-2-hydroxy-", "5-Chloro-2-hydroxy-1,3-benzenedicarboxaldehyde", "2,6-Diformyl-4-chlorophenol", "4-Chloro-2,6-diformylphenol", "5-Chloro-2-hydroxybenzene-1,3-dicarboxaldehyde", "2-Hydroxy-5-chloroisophthalaldehyde", "2-Hydroxy-5-chlorobenzene-1,3-dicarboxaldehyde", "5-Chloro-2-hydroxybenzene-1,3-dicarbaldehyde", "5-Chloro-2-hydroxyisophthalaldehyde"], "SMILES": "C(=O)C1=C(O)C(C=O)=CC(Cl)=C1", "physical_data": {"Molecular Weight": "184.58", "Molecular Formula": "C8H5ClO3", "Melting Point": "126 \u00b0C"}}