{"cas_no": "32598-11-1", "cn_name": "2,3',4',5-\u56db\u6c2f\u8054\u82ef\u919a", "en_name": ["PCB 70", "1,1\u2032-Biphenyl, 2,3\u2032,4\u2032,5-tetrachloro-", "Biphenyl, 2,3\u2032,4\u2032,5-tetrachloro-", "2,3\u2032,4\u2032,5-Tetrachloro-1,1\u2032-biphenyl", "2,3\u2032,4\u2032,5-Tetrachlorobiphenyl", "3,4,2\u2032,5\u2032-Tetrachlorobiphenyl", "2,5,3\u2032,4\u2032-Tetrachlorobiphenyl", "2\u2032,3,4,5\u2032-Tetrachlorobiphenyl", "PCB 70", "1,2-Dichloro-4-(2,5-dichlorophenyl)benzene"], "SMILES": "ClC1=C(C2=CC(Cl)=C(Cl)C=C2)C=C(Cl)C=C1", "physical_data": {"Molecular Weight": "291.99", "Molecular Formula": "C12H6Cl4", "Boiling Point": "160-165 \u00b0C @ Press: 0.4 Torr", "Melting Point": "103 \u00b0C"}}