{"cas_no": "32595-59-8", "cn_name": "DL-\u0392-(3-\u567b\u5429\u57fa)\u4e1d\u6c28\u9178", "en_name": ["\u03b1-Amino-\u03b2-hydroxy-2-thiophenepropanoic acid", "2-Thiophenepropanoic acid, \u03b1-amino-\u03b2-hydroxy-", "2-Thiopheneserine", "\u03b1-Amino-\u03b2-hydroxy-2-thiophenepropanoic acid", "\u03b2-(2-Thienyl)serine", "3-(2-Thienyl)-L-serine", "NSC 76232", "2-Amino-3-hydroxy-3-(thiophen-2-yl)propanoic acid", "2-Amino-3-hydroxy-3-(thiophen-2-yl)propanoicacid"], "SMILES": "C(C(C(O)=O)N)(O)C1=CC=CS1", "physical_data": {"Molecular Weight": "187.22", "Molecular Formula": "C7H9NO3S", "Melting Point": "194-195 \u00b0C"}}