{"cas_no": "32595-49-6", "cn_name": "\u7518\u6c28\u9170\u57fa-4-\u6c28\u57fa\u4e01\u9178", "en_name": ["4-[(2-Aminoacetyl)amino]butanoic acid", "Butanoic acid, 4-[(2-aminoacetyl)amino]-", "Butanoic acid, 4-[(aminoacetyl)amino]-", "4-[(2-Aminoacetyl)amino]butanoic acid", "Glycyl-\u03b3-aminobutyric acid", "Gly-\u03b3-Abu", "NSC 203795"], "SMILES": "N(CCCC(O)=O)C(CN)=O", "physical_data": {"Molecular Weight": "160.17", "Molecular Formula": "C6H12N2O3", "Melting Point": "223 \u00b0C"}}