{"cas_no": "32598-13-3", "cn_name": "3,3',4,4'-\u56db\u6c2f\u8054\u82ef", "en_name": ["PCB 77", "1,1\u2032-Biphenyl, 3,3\u2032,4,4\u2032-tetrachloro-", "Biphenyl, 3,3\u2032,4,4\u2032-tetrachloro-", "3,3\u2032,4,4\u2032-Tetrachloro-1,1\u2032-biphenyl", "3,3\u2032,4,4\u2032-Tetrachlorobiphenyl", "3,4,3\u2032,4\u2032-Tetrachlorobiphenyl", "PCB 77", "CB 77", "TeCB 77", "Polychlorinated biphenyl-77", "T 4CB 77"], "SMILES": "ClC=1C=C(C=CC1Cl)C2=CC(Cl)=C(Cl)C=C2", "physical_data": {"Molecular Weight": "291.99", "Molecular Formula": "C12H6Cl4", "Melting Point": "182-184 \u00b0C"}}