{"cas_no": "3259-03-8", "cn_name": "2-(2-\u4e59\u6c27\u57fa\u82ef\u6c27\u57fa)\u6eb4\u4e59\u70f7", "en_name": ["1-(2-Bromoethoxy)-2-ethoxybenzene", "Benzene, 1-(2-bromoethoxy)-2-ethoxy-", "1-(2-Bromoethoxy)-2-ethoxybenzene", "2-(o-Ethoxyphenoxy)ethyl bromide"], "SMILES": "O(CCBr)C1=C(OCC)C=CC=C1", "physical_data": {"Molecular Weight": "245.11", "Molecular Formula": "C10H13BrO2", "Boiling Point": "142-145 \u00b0C @ Press: 11 Torr"}}