{"cas_no": "326-62-5", "cn_name": "2-\u6c1f\u82ef\u57fa\u4e59\u8148", "en_name": ["2-Fluorobenzeneacetonitrile", "Benzeneacetonitrile, 2-fluoro-", "Acetonitrile, (o-fluorophenyl)-", "2-Fluorobenzeneacetonitrile", "o-Fluorobenzyl cyanide", "2-Fluorobenzyl cyanide", "(2-Fluorophenyl)acetonitrile", "o-Fluorophenylacetonitrile", "o-Fluorobenzyl nitrile", "NSC 88280", "2-Fluorobenzylnitrile", "2-(2-Fluorophenyl)acetonitrile"], "SMILES": "C(C#N)C1=C(F)C=CC=C1", "physical_data": {"Molecular Weight": "135.14", "Molecular Formula": "C8H6FN", "Boiling Point": "232 \u00b0C"}}