{"cas_no": "326-61-4", "cn_name": "3,4-\u4e9a\u7532\u4e8c\u6c27\u57fa\u82ef\u7532\u9187\u918b\u9178\u916f", "en_name": ["Piperonyl acetate", "1,3-Benzodioxole-5-methanol, 5-acetate", "Piperonyl alcohol, acetate", "1,3-Benzodioxole-5-methanol, acetate", "Heliotropyl acetate", "Piperonyl acetate", "3,4-Methylenedioxybenzyl acetate", "NSC 406725", "(2H-1,3-Benzodioxol-5-yl)methyl acetate", "1,3-Benzodioxol-5-ylmethyl acetate"], "SMILES": "C(OC(C)=O)C=1C=C2C(=CC1)OCO2", "physical_data": {"Molecular Weight": "194.18", "Molecular Formula": "C10H10O4", "Boiling Point": "150-151 \u00b0C @ Press: 10 Torr", "Melting Point": "58 \u00b0C"}}