{"cas_no": "326-91-0", "cn_name": "2-\u567b\u5429\u7532\u9170\u4e09\u6c1f\u4e19\u916e", "en_name": ["Thenoyltrifluoroacetone", "1,3-Butanedione, 4,4,4-trifluoro-1-(2-thienyl)-", "4,4,4-Trifluoro-1-(2-thienyl)-1,3-butanedione", "2-Thenoyltrifluoroacetone", "TTA", "TTB", "Thenoyltrifluoroacetone", "1-Thenoyl-3,3,3-trifluoroacetone", "1,1,1-Trifluoro-4-(2-thienyl)-2,4-butanedione", "1,1,1-Trifluoro-3-(2-thenoyl)acetone", "\u03b1-Thenoyltrifluoroacetone", "3,3,3-Trifluoro-1-(2-thenoyl)acetone", "TTFA", "TTA (extractant)", "Thenoyltrifluoroacetylacetone", "3-(2-Thienoyl)-1,1,1-trifluoroacetone", "NSC 405702", "NSC 405703", "NSC 405704", "NSC 405705", "NSC 405706", "NSC 66544", "4-(2-Thienyl)-1,1,1-trifluoro-2,4-butanedione", "2-(4,4,4-Trifluoroacetoacetyl)thiophene", "1-(2-Thienyl)-4,4,4-trifluorobutane-1,3-dione", "1-(2-Thienyl)-4,4,4-trifluoro-1,3-butanedione", "4,4,4-Trifluoro-1-(thiophen-2-yl)butane-1,3-dione", "MeSH ID: D013804"], "SMILES": "C(CC(C(F)(F)F)=O)(=O)C1=CC=CS1", "physical_data": {"Molecular Weight": "222.18", "Molecular Formula": "C8H5F3O2S", "Boiling Point": "96-98 \u00b0C", "Melting Point": "42 \u00b0C"}}