{"cas_no": "326-06-7", "cn_name": "\u82ef\u7532\u9170\u4e09\u6c1f\u4e19\u916e", "en_name": ["4,4,4-Trifluoro-1-phenyl-1,3-butanedione", "1,3-Butanedione, 4,4,4-trifluoro-1-phenyl-", "4,4,4-Trifluoro-1-phenyl-1,3-butanedione", "3-Benzoyl-1,1,1-trifluoroacetone", "1-Phenyl-4,4,4-trifluoro-1,3-butanedione", "Benzoyl(trifluoroacetyl)methane", "\u03c9-(Trifluoroacetyl)acetophenone", "1,1,1-Trifluoro-4-phenyl-2,4-butanedione", "1-Phenyl-3-(trifluoromethyl)propane-1,3-dione", "1-Benzoyl-3,3,3-trifluoro-2-propanone", "4-Phenyl-1,1,1-trifluorobutane-2,4-dione", "1-Benzoyl-3,3,3-trifluoroacetone", "Benzoyl-1,1,1-trifluoroacetone", "NSC 405720", "NSC 42628", "1,1,1-Trifluoro-3-phenylpropane-1,3-dione", "4,4,4-Trifluoro-1-phenylbutan-1,3-dione", "BTA"], "SMILES": "C(CC(C(F)(F)F)=O)(=O)C1=CC=CC=C1", "physical_data": {"Molecular Weight": "216.16", "Molecular Formula": "C10H7F3O2", "Boiling Point": "224 \u00b0C @ Press: 760 Torr", "Melting Point": "39-40.5 \u00b0C"}}