{"cas_no": "326-56-7", "cn_name": "1,3-\u82ef\u5e76\u4e8c\u6c27\u4ee3-5-\u7fa7\u9178\u7532\u916f", "en_name": ["Methyl piperonylate", "1,3-Benzodioxole-5-carboxylic acid, methyl ester", "Piperonylic acid, methyl ester", "Methyl piperonylate", "Methyl 3,4-methylenedioxybenzoate", "NSC 21790", "Methyl 1,3-benzodioxole-5-carboxylate", "Methyl benzo[d]dioxole-5-carboxylate", "Methyl benzo[d][1,3]dioxole-5-carboxylate"], "SMILES": "C(OC)(=O)C=1C=C2C(=CC1)OCO2", "physical_data": {"Molecular Weight": "180.16", "Molecular Formula": "C9H8O4", "Boiling Point": "146 \u00b0C @ Press: 11 Torr", "Melting Point": "53 \u00b0C"}}