{"cas_no": "326-66-9", "cn_name": "4-\u6eb4-2-\u6c1f\u4e59\u9170\u82ef\u80fa", "en_name": ["N-(4-Bromo-2-fluorophenyl)acetamide", "Acetamide, N-(4-bromo-2-fluorophenyl)-", "Acetanilide, 4\u2032-bromo-2\u2032-fluoro-", "N-(4-Bromo-2-fluorophenyl)acetamide", "4\u2032-Bromo-2\u2032-fluoroacetanilide", "N-Acetyl-4-bromo-2-fluoroaniline", "4-Acetamido-3-fluoro-1-bromobenzene", "2\u2032-Fluoro-4\u2032-bromoacetanilide", "(4-Bromo-2-fluorophenyl)acetamide"], "SMILES": "N(C(C)=O)C1=C(F)C=C(Br)C=C1", "physical_data": {"Molecular Weight": "232.05", "Molecular Formula": "C8H7BrFNO", "Melting Point": "158-160 \u00b0C"}}