{"cas_no": "326-59-0", "cn_name": "1,3-\u82ef\u5e76\u4e8c\u6076\u8302-5-\u4e59\u9178\u7532\u916f", "en_name": ["1,3-Benzodioxole-5-acetic acid, methyl ester", "1,3-Benzodioxole-5-acetic acid, methyl ester", "Acetic acid, [3,4-(methylenedioxy)phenyl]-, methyl ester", "Methyl (3,4-methylenedioxyphenyl)acetate", "Methyl 1,3-benzodioxole-5-acetate", "Methyl 4,5-(methylenedioxy)phenylacetate", "NSC 105308", "Methyl (1,3-benzodioxol-5-yl)acetate"], "SMILES": "C(C(OC)=O)C=1C=C2C(=CC1)OCO2", "physical_data": {"Molecular Weight": "194.18", "Molecular Formula": "C10H10O4", "Boiling Point": "153-155 \u00b0C @ Press: 10 Torr", "Density": "1.246 g/cm\u00b3 @ Temp: 20 \u00b0C"}}