{"cas_no": "3260-87-5", "cn_name": "3-\u6c2f-2\u7532\u57fa\u82ef\u915a", "en_name": ["3-Chloro-2-methylphenol", "Phenol, 3-chloro-2-methyl-", "o-Cresol, 3-chloro-", "3-Chloro-2-methylphenol", "3-Chloro-o-cresol", "2-Chloro-6-hydroxytoluene", "2-Methyl-3-chlorophenol", "NSC 74916"], "SMILES": "CC1=C(Cl)C=CC=C1O", "physical_data": {"Molecular Weight": "142.58", "Molecular Formula": "C7H7ClO", "Boiling Point": "225 \u00b0C", "Melting Point": "86 \u00b0C"}}