{"cas_no": "32602-81-6", "cn_name": "\u582a\u975e\u9187 3-\u65b0\u6a59\u76ae\u7cd6\u82f7", "en_name": ["Kaempferol 3-O-neohesperidoside", "4H-1-Benzopyran-4-one, 3-[[2-O-(6-deoxy-\u03b1-L-mannopyranosyl)-\u03b2-D-glucopyranosyl]oxy]-5,7-dihydroxy-2-(4-hydroxyphenyl)-", "Flavone, 3,4\u2032,5,7-tetrahydroxy-, 3-[2-O-(6-deoxy-\u03b1-L-mannopyranosyl)-\u03b2-D-glucopyranoside]", "3-[[2-O-(6-Deoxy-\u03b1-L-mannopyranosyl)-\u03b2-D-glucopyranosyl]oxy]-5,7-dihydroxy-2-(4-hydroxyphenyl)-4H-1-benzopyran-4-one", "K 7", "Kaempferol 3-neohesperidoside", "Kaempferol 3-O-neohesperidoside", "Kaempferol 3-O-\u03b1-L-rhamnopyranosyl-(1\u21922)-\u03b2-D-glucopyranoside", "Kaempferol 3-O-\u03b2-neohesperidoside"], "SMILES": "O(C1=C(OC=2C(C1=O)=C(O)C=C(O)C2)C3=CC=C(O)C=C3)C4C(OC5C(O)C(O)C(O)C(C)O5)C(O)C(O)C(CO)O4", "physical_data": {"Molecular Weight": "594.52", "Molecular Formula": "C27H30O15", "Melting Point": "176-177 \u00b0C"}}