{"cas_no": "3260-88-6", "cn_name": "3-\u6c2f-2-\u7532\u57fa\u82ef\u7532\u919a", "en_name": ["1-Chloro-3-methoxy-2-methylbenzene", "Benzene, 1-chloro-3-methoxy-2-methyl-", "Anisole, 3-chloro-2-methyl-", "1-Chloro-3-methoxy-2-methylbenzene", "3-Chloro-2-methylanisole", "2-Chloro-6-methoxytoluene", "2-Methyl-3-chloroanisole", "6-Chloro-2-methoxytoluene", "2-Methoxy-6-chlorotoluene"], "SMILES": "O(C)C1=C(C)C(Cl)=CC=C1", "physical_data": {"Molecular Weight": "156.61", "Molecular Formula": "C8H9ClO", "Boiling Point": "213.5 \u00b0C"}}