{"cas_no": "3260-93-3", "cn_name": "3-\u6c2f-2-\u7532\u6c27\u57fa\u82ef\u7532\u9178", "en_name": ["3-Chloro-2-methoxybenzoic acid", "Benzoic acid, 3-chloro-2-methoxy-", "o-Anisic acid, 3-chloro-", "3-Chloro-2-methoxybenzoic acid"], "SMILES": "O(C)C1=C(C(O)=O)C=CC=C1Cl", "physical_data": {"Molecular Weight": "186.59", "Molecular Formula": "C8H7ClO3", "Melting Point": "120-121 \u00b0C"}}