{"cas_no": "3260-85-3", "cn_name": "4-\u6c2f-2-\u7532\u57fa\u82ef\u7532\u919a", "en_name": ["4-Chloro-1-methoxy-2-methylbenzene", "Benzene, 4-chloro-1-methoxy-2-methyl-", "Anisole, 4-chloro-2-methyl-", "4-Chloro-1-methoxy-2-methylbenzene", "2-Methyl-4-chlorophenyl methyl ether", "4-Chloro-2-methylanisole", "5-Chloro-2-methoxytoluene", "2-Methyl-4-chloroanisole", "NSC 300882"], "SMILES": "O(C)C1=C(C)C=C(Cl)C=C1", "physical_data": {"Molecular Weight": "156.61", "Molecular Formula": "C8H9ClO", "Boiling Point": "210-212 \u00b0C @ Press: 760 Torr", "Melting Point": "36-37 \u00b0C"}}