{"cas_no": "3260-89-7", "cn_name": "2-\u6c2f-6-\u7532\u6c27\u57fa\u82ef\u7532\u9178", "en_name": ["2-Chloro-6-methoxybenzoic acid", "Benzoic acid, 2-chloro-6-methoxy-", "o-Anisic acid, 6-chloro-", "2-Chloro-6-methoxybenzoic acid", "2-Chloro-6-(methyloxy)benzoic acid"], "SMILES": "C(O)(=O)C1=C(OC)C=CC=C1Cl", "physical_data": {"Molecular Weight": "186.59", "Molecular Formula": "C8H7ClO3", "Melting Point": "141 \u00b0C"}}