{"cas_no": "3261-87-8", "cn_name": "\u786b\u4ee3\u7f9f\u57fa\u4e59\u9178\u9150", "en_name": ["1,4-Oxathiane-2,6-dione", "1,4-Oxathiane-2,6-dione", "Acetic acid, thiodi-, cyclic anhydride", "Acetic acid, 2,2\u2032-thiobis-, cyclic anhydride", "Thiodiglycolic anhydride", "NSC 147625", "2,2\u2032-Thiodiglycolic anhydride"], "SMILES": "O=C1OC(=O)CSC1", "physical_data": {"Molecular Weight": "132.14", "Molecular Formula": "C4H4O3S", "Boiling Point": "158-159 \u00b0C @ Press: 12 Torr"}}