{"cas_no": "32619-42-4", "cn_name": "\u6a44\u6984\u82e6\u82f7", "en_name": ["Oleuropein", "2H-Pyran-4-acetic acid, 3-ethylidene-2-(\u03b2-D-glucopyranosyloxy)-3,4-dihydro-5-(methoxycarbonyl)-, 2-(3,4-dihydroxyphenyl)ethyl ester, (2S,3E,4S)-", "2H-Pyran-4-acetic acid, 3-ethylidene-2-(\u03b2-D-glucopyranosyloxy)-3,4-dihydro-5-(methoxycarbonyl)-, 2-(3,4-dihydroxyphenyl)ethyl ester, [2S-(2\u03b1,3E,4\u03b2)]-", "Oleuropein", "2H-Pyran-4-acetic acid, 5-carboxy-3-ethylidene-2-(\u03b2-D-glucosyloxy)-3,4-dihydro-, 3,4-dihydroxyphenethyl 5-methyl ester", "Oleoeuropeine", "Oleuropeine", "Oleoeuropein", "Opiace"], "SMILES": "C(C(OCCC1=CC(O)=C(O)C=C1)=O)C2C(=CC)C(OC3OC(CO)C(O)C(O)C3O)OC=C2C(OC)=O", "physical_data": {"Molecular Weight": "540.51", "Molecular Formula": "C25H32O13", "Melting Point": "88 \u00b0C"}}