{"cas_no": "32618-85-2", "cn_name": "6-\u785d\u57fa\u55b9\u5511\u5549-2,4-\u4e8c\u916e", "en_name": ["6-Nitro-2,4(1H,3H)-quinazolinedione", "2,4(1H,3H)-Quinazolinedione, 6-nitro-", "6-Nitro-2,4(1H,3H)-quinazolinedione", "6-Nitro-2,4-quinazolinediol", "6-Nitro-2,4-quinazolinedione", "6-Nitrobenzoyleneurea"], "SMILES": "O=C1C=2C(=CC=C(N(=O)=O)C2)NC(=O)N1", "physical_data": {"Molecular Weight": "207.14", "Molecular Formula": "C8H5N3O4", "Melting Point": "330-331 \u00b0C (decomp)"}}