{"cas_no": "3261-62-9", "cn_name": "\u5bf9\u7532\u57fa\u82ef\u4e59\u80fa", "en_name": ["2-(p-Tolyl)ethylamine", "Benzeneethanamine, 4-methyl-", "Phenethylamine, p-methyl-", "4-Methylbenzeneethanamine", "p-Methylphenethylamine", "p-Methyl-\u03b2-phenylethylamine", "2-(p-Tolyl)ethylamine", "p-Methyl-2-phenylethylamine", "2-(4-Methylphenyl)ethylamine", "4-Methylphenethylamine", "NSC 30278", "2-(4-Tolyl)ethylamine", "2-(p-Tolyl)ethanamine", "2-(4-Methylphenyl)ethanamine", "4-Methylphenylethylamine", "2-(4-Methylphenyl)ethan-1-amine"], "SMILES": "C(CN)C1=CC=C(C)C=C1", "physical_data": {"Molecular Weight": "135.21", "Molecular Formula": "C9H13N", "Boiling Point": "214 \u00b0C"}}