{"cas_no": "3262-72-4", "cn_name": "BOC-L-\u4e1d\u6c28\u9178", "en_name": ["BOC-L-serine", "L-Serine, N-[(1,1-dimethylethoxy)carbonyl]-", "Serine, N-carboxy-, N-tert-butyl ester, L-", "N-[(1,1-Dimethylethoxy)carbonyl]-L-serine", "N-tert-Butyloxycarbonyl-L-serine", "N-(tert-Butoxycarbonyl)-L-serine", "N-(tert-Butoxycarbonyl)serine", "BOC-L-serine", "L-N-tert-Butoxycarbonylserine", "N-tert-Butyloxycarbonylserine", "N-t-Butoxycarbonylserine", "BOC-Serine", "N-BOC-L-serine", "NSC 164056", "(S)-2-[(tert-Butoxycarbonyl)amino]-3-hydroxypropionic acid", "(S)-2-(tert-Butoxycarbonylamino)-3-hydroxypropanoic acid", "(2S)-3-Hydroxy-2-[(2-methylpropan-2-yl)oxycarbonylamino]propanoic acid", "(2S)-2-[[(tert-Butoxy)carbonyl]amino]-3-hydroxypropanoic acid"], "SMILES": "C(NC(OC(C)(C)C)=O)(C(O)=O)CO", "physical_data": {"Molecular Weight": "205.21", "Molecular Formula": "C8H15NO5", "Melting Point": "45-47 \u00b0C"}}