{"cas_no": "3262-03-1", "cn_name": "1-CHLORO-3,4-DIHYDRO-2-NAPHTHALENECARBALDEHYDE", "en_name": ["1-Chloro-3,4-dihydro-2-naphthalenecarboxaldehyde", "2-Naphthalenecarboxaldehyde, 1-chloro-3,4-dihydro-", "2-Naphthaldehyde, 1-chloro-3,4-dihydro-", "1-Chloro-3,4-dihydro-2-naphthalenecarboxaldehyde", "1-Chloro-3,4-dihydro-2-naphthaldehyde", "NSC 141813", "1-Chloro-3,4-dihydronaphthalene-2-carbaldehyde", "1-Chloro-3,4-dihydro-2-naphthalenecarbaldehyde"], "SMILES": "ClC=1C=2C(CCC1C=O)=CC=CC2", "physical_data": {"Molecular Weight": "192.64", "Molecular Formula": "C11H9ClO", "Boiling Point": "145-153 \u00b0C @ Press: 5 Torr", "Melting Point": "37 \u00b0C"}}