{"cas_no": "32638-88-3", "cn_name": "\u90bb\u82ef\u4e09\u915a\u7ea2", "en_name": ["Pyrogallol red", "Spiro[3H-2,1-benzoxathiole-3,9\u2032-[9H]xanthene]-3\u2032,4\u2032,5\u2032,6\u2032-tetrol, 1,1-dioxide", "Pyrogallolsulfonephthalein", "Pyrogallol red", "Red pyrogallol", "3\u2032,4\u2032,5\u2032,6\u2032-Tetrahydroxyspiro[benzo[c][1,2]oxathiole-3,9\u2032-xanthene] 1,1-dioxide"], "SMILES": "O=S1(=O)OC2(C=3C1=CC=CC3)C=4C(OC=5C2=CC=C(O)C5O)=C(O)C(O)=CC4", "physical_data": {"Molecular Weight": "400.36", "Molecular Formula": "C19H12O8S", "Melting Point": "&gt;315 \u00b0C"}}