{"cas_no": "32634-68-7", "cn_name": "D-(+)-\u4e8c\u5bf9\u7532\u57fa\u82ef\u7532\u9170\u9152\u77f3\u9178", "en_name": ["(+)-Di-p-toluoyl-D-tartaric acid", "Butanedioic acid, 2,3-bis[(4-methylbenzoyl)oxy]-, (2S,3S)-", "Butanedioic acid, 2,3-bis[(4-methylbenzoyl)oxy]-, [S-(R*,R*)]-", "Tartaric acid, di-p-toluate, (+)-", "p-Toluic acid, diester with D-tartaric acid", "(2S,3S)-2,3-Bis[(4-methylbenzoyl)oxy]butanedioic acid", "(+)-Di-O-p-toluoyl-D-tartaric acid", "(+)-O,O-Di-p-toluoyltartaric acid", "(+)-Di-p-toluoyltartaric acid", "Di-p-toluoyl-l-tartaric acid", "(+)-Di-O,O\u2032-p-toluoyltartaric acid", "(+)-Bis-O,O\u2032-(4-toluoyl)-D-tartrate", "Di-p-toluoyl-D-tartaric acid", "(2S,3S)-(+)-Di-p-toluoyltartaric acid", "D-Di-O,O\u2032-p-toluyltartaric acid", "(+)-Ditoluoyltartaric acid", "(+)-Di-p-toluoyl-D-tartaric acid", "(S,S)-O,O\u2032-Di-p-toluoyltartaric acid", "NSC 97592", "D-Bis(O-4-methylbenzoyl)tartaric acid", "(+)-Di-O-(p-toluoyl)tartaric acid", "(+)-Di-O,O\u2032-p-toluyltartaric acid", "D-Di-p-toluoyltartaric acid", "(2S,3S)-2,3-Bis[(4-methylbenzoyl)oxy]succinic acid", "(+)-O,O\u2032-Di-p-toluoyl-D-tartaric acid", "(2S,3S)-2,3-Bis(4-methylbenzoyloxy)butanedioic acid"], "SMILES": "C(C(OC(=O)C1=CC=C(C)C=C1)C(O)=O)(OC(=O)C2=CC=C(C)C=C2)C(O)=O", "physical_data": {"Molecular Weight": "386.35", "Molecular Formula": "C20H18O8", "Melting Point": "162-163 \u00b0C"}}