{"cas_no": "32634-95-0", "cn_name": "6-\u4e9a\u7532\u57fa\u5b55\u753e-4-\u70ef-17\u0391-\u9187-3,20-\u4e8c\u916e-17-\u918b\u9178\u916f", "en_name": ["17-(Acetyloxy)-6-methylenepregn-4-ene-3,20-dione", "Pregn-4-ene-3,20-dione, 17-(acetyloxy)-6-methylene-", "Pregn-4-ene-3,20-dione, 17-hydroxy-6-methylene-, acetate", "Progesterone, 17-hydroxy-6-methylene-, acetate", "17-(Acetyloxy)-6-methylenepregn-4-ene-3,20-dione", "17-Acetoxy-6-methylenepregn-4-ene-3,20-dione", "17\u03b1-Acetoxy-6-methyleneprogesterone", "6,6\u2032-Dehydromedroxyprogesterone acetate", "NSC 58799", "17\u03b1-Acetoxy-6-methylenepregn-4-ene-3,20-dione"], "SMILES": "O(C(C)=O)C1(C(C)=O)C2(C)C(CC1)C3C(CC2)C4(C)C(C(=C)C3)=CC(=O)CC4", "physical_data": {"Molecular Weight": "384.51", "Molecular Formula": "C24H32O4", "Melting Point": "248-251 \u00b0C"}}