{"cas_no": "32634-66-5", "cn_name": "\u4e8c\u5bf9\u7532\u57fa\u82ef\u7532\u9170\u9152\u77f3\u9178", "en_name": ["(-)-Di-p-toluoyl-L-tartaric acid", "Butanedioic acid, 2,3-bis[(4-methylbenzoyl)oxy]-, (2R,3R)-", "Butanedioic acid, 2,3-bis[(4-methylbenzoyl)oxy]-, [R-(R*,R*)]-", "(2R,3R)-2,3-Bis[(4-methylbenzoyl)oxy]butanedioic acid", "(-)-Di-O-p-toluoyl-L-tartaric acid", "(-)-O,O-Di-p-toluoyltartaric acid", "Di-p-Toluoyl-d-tartaric acid", "(-)-Di-p-toluoyltartaric acid", "(-)-Di-O,O\u2032-p-toluoyltartaric acid", "Tartaric acid, di-p-toluate", "Di-p-toluoyl-L-tartaric acid", "(2R,3R)-(-)-Di(p-toluoyl)tartaric acid", "Di-4-toluoyl-L-tartaric acid", "L-Di-O,O\u2032-p-toluyltartaric acid", "(R,R)-O,O\u2032-Di-p-toluoyltartaric acid", "(-)-Di-p-toluoyl-L-tartaric acid", "(-)-Di-O,O' p-toluyltartaric acid", "O,O\u2032-Di-p-toluoyl-(2R,3R)-tartaric acid", "L-Di-p-toluoyltartaric acid", "(-)-O,O\u2032-Di-p-toluoyl-L-tartaric acid", "(2R,3R)-2,3-Bis[(4-methylbenzoyl)oxy]succinic acid", "L-(-)-DTTA"], "SMILES": "C(C(OC(=O)C1=CC=C(C)C=C1)C(O)=O)(OC(=O)C2=CC=C(C)C=C2)C(O)=O", "physical_data": {"Molecular Weight": "386.35", "Molecular Formula": "C20H18O8", "Melting Point": "146-147 \u00b0C"}}