{"cas_no": "32644-15-8", "cn_name": "2-\u6eb4\u4e19\u9178", "en_name": ["(2S)-2-Bromopropanoic acid", "Propanoic acid, 2-bromo-, (2S)-", "Propanoic acid, 2-bromo-, (S)-", "Propionic acid, 2-bromo-, (S)-", "(2S)-2-Bromopropanoic acid", "L-\u03b1-Bromopropionic acid", "L-2-Bromopropionic acid", "(S)-2-Bromopropionic acid", "(2S)-2-Bromopropionic acid", "(-)-2-Bromopropionic acid", "(-)-2-Bromopropanoic acid", "(-)-\u03b1-Bromopropanoic acid", "(S)-(-)-2-Bromopropionic acid", "(S)-\u03b1-Bromopropionic acid", "(S)-2-Bromopropanoic acid", "(2S)-2-Bromopropanoic acid"], "SMILES": "C(C(O)=O)(Br)C", "physical_data": {"Molecular Weight": "152.97", "Molecular Formula": "C3H5BrO2", "Boiling Point": "97-98 \u00b0C @ Press: 11 Torr"}}