{"cas_no": "32647-67-9", "cn_name": "1,3:2,4-\u4e8c\u82c4\u53c9\u5c71\u68a8\u9187", "en_name": ["Dibenzylidenesorbitol", "D-Glucitol, bis-O-(phenylmethylene)-", "Glucitol, di-O-benzylidene-, D-", "D-Sorbitol, di-O-benzylidene-", "Bis-O-(phenylmethylene)-D-glucitol", "Dibenzalsorbitol", "Sorbitol dibenzal", "Dibenzylidenesorbitol", "Bis-O-(phenylmethylene)glucitol", "Dibenzylidene-D-sorbitol", "EC Gel-D", "EC-I-ME", "Millithix 925", "Denon YK 2", "Dibenzylidene sorbitol acetal", "Dibenzylidene monosorbitol acetal", "Geol D", "Disorbene", "Disorbene LC", "NSC 226861", "DBS 1", "Millithix 925S", "DBS", "Rikemaster SN 003P", "CAM 603"], "SMILES": "", "physical_data": {"Molecular Weight": "", "Molecular Formula": "C20H22O6", "Melting Point": "185-195 \u00b0C"}}