{"cas_no": "3264-82-2", "cn_name": "\u4e59\u9170\u4e19\u916e\u954d", "en_name": ["Bis(acetylacetonato)nickel", "Nickel, bis(2,4-pentanedionato-\u03baO2,\u03baO4)-, (SP-4-1)-", "Nickel, bis(2,4-pentanedionato)-", "Nickel, bis(2,4-pentanedionato-O,O\u2032)-, (SP-4-1)-", "Nickel, bis(2,4-pentanedionato-\u03baO,\u03baO\u2032)-, (SP-4-1)-", "(SP-4-1)-Bis(2,4-pentanedionato-\u03baO2,\u03baO4)nickel", "Nickel acetylacetonate", "Nickel bis(acetylacetonate)", "Nickel(II) acetylacetonate", "Bis(acetylacetonato)nickel", "Nickelous acetylacetonate", "Bis(acetylacetonate)nickel", "Bis(2,4-pentanedionato)nickel", "Bis(acetylacetone)nickel", "Nickel bis(2,4-pentanedionate)", "Acetylacetonatonickel(II)", "LC 5615", "NSC 4657", "Nacem Nickel", "Nickel(II) acetoacetonate", "Niax LC 5615", "Ni(acac)2", "Kosmos N 200"], "SMILES": "CC1=O[Ni+2]2(O=C(C)[CH-]C(C)=O2)O=C(C)[CH-]1", "physical_data": {"Molecular Weight": "", "Molecular Formula": "C10H14NiO4", "Boiling Point": "227 \u00b0C", "Melting Point": "229.5 \u00b0C"}}