{"cas_no": "3266-23-7", "cn_name": "1,2-\u4e8c\u7532\u57fa\u73af\u6c27\u4e59\u70f7", "en_name": ["2-Butylene oxide", "Oxirane, 2,3-dimethyl-", "Butane, 2,3-epoxy-", "2,3-Dimethyloxirane", "\u03b2-Oxybutene", "\u03b2-Butylene oxide", "2,3-Butylene oxide", "2-Butene oxide", "2,3-Epoxybutane", "2-Butene epoxide", "2-Butylene oxide"], "SMILES": "CC1C(C)O1", "physical_data": {"Molecular Weight": "72.11", "Molecular Formula": "C4H8O", "Boiling Point": "64-78 \u00b0C", "Density": "0.837 g/cm\u00b3 @ Temp: 51 \u00b0C"}}