{"cas_no": "32677-01-3", "cn_name": "L-\u8c37\u6c28\u9178\u4e8c\u53d4\u4e01\u916f\u76d0\u9178\u76d0", "en_name": ["L-Glutamic acid, 1,5-bis(1,1-dimethylethyl) ester, hydrochloride (1:1)", "L-Glutamic acid, 1,5-bis(1,1-dimethylethyl) ester, hydrochloride (1:1)", "L-Glutamic acid, bis(1,1-dimethylethyl) ester, hydrochloride", "Glutamic acid, di-tert-butyl ester, hydrochloride, L-", "L-Glutamic acid di-tert-butyl ester hydrochloride", "Di-tert-butyl glutamate hydrochloride", "Di-tert-butyl L-glutamate hydrochloride", "Glutamic acid di-tert-butyl ester hydrochloride", "NSC 94681", "Di-tert-butyl (S)-2-aminopentanedioate hydrochloride"], "SMILES": "C(C(CCC(OC(C)(C)C)=O)N)(OC(C)(C)C)=O.Cl", "physical_data": {"Molecular Weight": "", "Molecular Formula": "C13H25NO4.ClH", "Melting Point": "133-135 \u00b0C"}}