{"cas_no": "32673-41-9", "cn_name": "4-\u7f9f\u7532\u57fa\u54aa\u5511\u76d0\u9178\u76d0", "en_name": ["4-(Hydroxymethyl)imidazole hydrochloride", "1H-Imidazole-5-methanol, hydrochloride (1:1)", "1H-Imidazole-4-methanol, monohydrochloride", "Imidazole-4-methanol, monohydrochloride", "Imidazole-4(or 5)-methanol, hydrochloride", "4-Imidazolylmethanol hydrochloride", "4-(Hydroxymethyl)imidazole hydrochloride", "1H-Imidazole-4-methanol, hydrochloride", "4-(Hydroxymethyl)-1H-imidazole hydrochloride", "Imidazole-4-methanol hydrochloride", "4-(Hydroxymethyl)imidazole monohydrochloride", "1H-Imidazol-4-ylmethanol hydrochloride", "1H-Imidazol-5-ylmethanol hydrochloride"], "SMILES": "C(O)C1=CN=CN1.Cl", "physical_data": {"Molecular Weight": "", "Molecular Formula": "C4H6N2O.ClH", "Melting Point": "93 \u00b0C"}}