{"cas_no": "32672-69-8", "cn_name": "\u82ef\u78fa\u9178\u7f8e\u7d22\u8fbe\u55ea", "en_name": ["Mesoridazine besylate", "10H-Phenothiazine, 10-[2-(1-methyl-2-piperidinyl)ethyl]-2-(methylsulfinyl)-, benzenesulfonate (1:1)", "Benzenesulfonic acid, compd. with 10-[2-(1-methyl-2-piperidinyl)ethyl]-2-(methylsulfinyl)-10H-phenothiazine (1:1)", "10H-Phenothiazine, 10-[2-(1-methyl-2-piperidinyl)ethyl]-2-(methylsulfinyl)-, monobenzenesulfonate", "Benzenesulfonic acid, compd. with 10-[2-(1-methyl-2-piperidyl)ethyl]-2-(methylsulfinyl)phenothiazine (1:1)", "NC 123", "Mesoridazine besylate", "Mesoridazine benzenesulfonate", "Lidanar", "Lidanil", "10-(2-(1-Methylpiperidin-2-yl)ethyl)-2-(methylsulfinyl)-10H-phenothiazine benzenesulfonate"], "SMILES": "S(=O)(=O)(O)C1=CC=CC=C1.C(CC1N(C)CCCC1)N2C=3C(SC=4C2=CC=CC4)=CC=C(S(C)=O)C3", "physical_data": {"Molecular Weight": "", "Molecular Formula": "C21H26N2OS2.C6H6O3S", "Melting Point": "174-175 \u00b0C"}}