{"cas_no": "32687-77-7", "cn_name": "3-(3,5-\u4e8c\u53d4\u4e01\u57fa-4-\u7f9f\u57fa\u82ef\u57fa)\u4e19\u9170\u80bc", "en_name": ["3,5-Bis(1,1-dimethylethyl)-4-hydroxybenzenepropanoic acid hydrazide", "Benzenepropanoic acid, 3,5-bis(1,1-dimethylethyl)-4-hydroxy-, hydrazide", "Hydrocinnamic acid, 3,5-di-tert-butyl-4-hydroxy-, hydrazide", "3,5-Bis(1,1-dimethylethyl)-4-hydroxybenzenepropanoic acid hydrazide", "N-[\u03b2-(3,5-di-tert-Butyl-4-hydroxyphenyl)propionyl]hydrazine", "\u03b2-(3,5-Di-tert-butyl-4-hydroxyphenyl)propionyl hydrazide", "3-(3,5-Di-tert-butyl-4-hydroxyphenyl)propionic acid hydrazide", "\u03b2-(3,5-Di-tert-butyl-4-hydroxyphenyl)propionic acid hydrazide", "3-(3,5-Di-tert-butyl-4-hydroxyphenyl)propionylhydrazine", "3,5-Di-tert-butyl-4-hydroxyhydrocinnamic acid hydrazide", "Luchem AOR 300"], "SMILES": "C(C)(C)(C)C1=C(O)C(C(C)(C)C)=CC(CCC(NN)=O)=C1", "physical_data": {"Molecular Weight": "292.42", "Molecular Formula": "C17H28N2O2", "Melting Point": "157-158 \u00b0C"}}