{"cas_no": "3268-79-9", "cn_name": "\u786b\u6c30\u9178\u6c2f\u7532\u916f", "en_name": ["Thiocyanic acid, chloromethyl ester", "Thiocyanic acid, chloromethyl ester", "Chloromethyl thiocyanate", "(Chloromethyl)thiocyanogen", "1-Chloro-1-thiocyanomethane", "NSC 96962"], "SMILES": "S(CCl)C#N", "physical_data": {"Molecular Weight": "107.56", "Molecular Formula": "C2H2ClNS", "Boiling Point": "185 \u00b0C", "Density": "1.37 g/cm\u00b3 @ Temp: 20 \u00b0C"}}