{"cas_no": "3268-49-3", "cn_name": "3-\u7532\u786b\u57fa\u4e19\u919b", "en_name": ["Methional", "Propanal, 3-(methylthio)-", "Propionaldehyde, 3-(methylthio)-", "3-(Methylthio)propanal", "Methional", "\u03b2-(Methylthio)propionaldehyde", "3-(Methylthio)propionaldehyde", "\u03b2-(Methylmercapto)propionaldehyde", "3-(Methylmercapto)propionaldehyde", "\u03b2-(Methylthio)propionic aldehyde", "NSC 15874", "3-Methylsulfanylpropionaldehyde", "3-Methylthio-1-propanal", "3-Methylthiopropanaldehyde", "3-(Methylmercapto)propanal", "3-Methylsulfanylpropanal", "3-Methylthiopropan-1-one", "4-Heptenal, 7-(methylthio)-"], "SMILES": "C(CSC)C=O", "physical_data": {"Molecular Weight": "104.17", "Molecular Formula": "C4H8OS", "Boiling Point": "165 \u00b0C", "Melting Point": "-75 \u00b0C", "Density": "1.03 g/cm\u00b3"}}