{"cas_no": "32687-78-8", "cn_name": "\u6297\u6c27\u52421024", "en_name": ["N,N\u2032-Bis[3-(3\u2032,5\u2032-di-tert-butyl-4\u2032-hydroxyphenyl)propionyl]hydrazine", "Benzenepropanoic acid, 3,5-bis(1,1-dimethylethyl)-4-hydroxy-, 2-[3-[3,5-bis(1,1-dimethylethyl)-4-hydroxyphenyl]-1-oxopropyl]hydrazide", "Hydrazine, 1,2-bis(3,5-di-tert-butyl-4-hydroxyhydrocinnamoyl)-", "N,N\u2032-Bis[3-(3,5-di-tert-butyl-4-hydroxyphenyl)propionyl]hydrazine", "N,N\u2032-Bis[3-(3\u2032,5\u2032-di-tert-butyl-4\u2032-hydroxyphenyl)propionyl]hydrazine", "Irganox MD 1024", "Irganox 1024", "1,2-Bis(3,5-di-tert-butyl-4-hydroxyhydrocinnamoyl)hydrazide", "MD 1024", "N,N\u2032-Bis[\u03b2-(3,5-di-tert-butyl-4-hydroxyphenyl)propionyl]hydrazine", "3,5-Bis(1,1-dimethylethyl)-4-hydroxybenzenepropionic acid 2-[3-[3,5-bis(1,1-dimethylethyl)-4-hydroxyphenyl]-1-oxopropyl]hydrazide", "1,2-Bis(3,5-di-tert-butyl-4-hydroxyhydrocinnamoyl)hydrazine", "Lowinox MD 24", "MD 24", "ADK Stab CDA 10", "Antioxidant 1024", "Irganox MD 2014", "CDA 10", "N,N\u2032-Bis[\u03b2-(3,5-di-tert-butyl-4-hydroxyphenyl)propionic acid] hydrazide", "1,2-Bis(3,5-tert-butyl-4-hydroxyhydrocinnamoyl)hydrazine", "Songnox 1024", "Antioxidant BPP", "Songnox 1024FG", "IR 1024", "Irganox GX MD 1024", "Rianox 1024", "1,2-Bis(3,5-di-tert-butyl-4hydroxyhydrocinnamoyl)hydrazine", "Evernox MD 1024", "Chinox 1024", "AO 1024", "B 102 (Antioxidant)", "B 102", "A 01024"], "SMILES": "C(CC(NNC(CCC1=CC(C(C)(C)C)=C(O)C(C(C)(C)C)=C1)=O)=O)C2=CC(C(C)(C)C)=C(O)C(C(C)(C)C)=C2", "physical_data": {"Molecular Weight": "552.79", "Molecular Formula": "C34H52N2O4", "Melting Point": "221-232 \u00b0C"}}