{"cas_no": "32692-19-6", "cn_name": "5-\u785d\u57fa\u4e8c\u6c22\u5432\u54da", "en_name": ["5-Nitroindoline", "1H-Indole, 2,3-dihydro-5-nitro-", "Indoline, 5-nitro-", "2,3-Dihydro-5-nitro-1H-indole", "5-Nitroindoline", "5-Nitro-2,3-dihydroindole", "2,3-Dihydro-5-nitroindole", "NSC 61445", "5-Nitro-2,3-dihydro-1H-indole", "5-Nitro-1H-indoline"], "SMILES": "N(=O)(=O)C=1C=C2C(=CC1)NCC2", "physical_data": {"Molecular Weight": "164.16", "Molecular Formula": "C8H8N2O2", "Melting Point": "92-94 \u00b0C"}}