{"cas_no": "327-52-6", "cn_name": "2,4,5-\u4e09\u6c1f\u6eb4\u82ef", "en_name": ["1-Bromo-2,4,5-trifluorobenzene", "Benzene, 1-bromo-2,4,5-trifluoro-", "1-Bromo-2,4,5-trifluorobenzene", "2-Bromo-1,4,5-trifluorobenzene", "2,4,5-Trifluorophenyl bromide", "2,4,5-Trifluorobromobenzene"], "SMILES": "BrC1=C(F)C=C(F)C(F)=C1", "physical_data": {"Molecular Weight": "210.98", "Molecular Formula": "C6H2BrF3", "Boiling Point": "144 \u00b0C", "Melting Point": "~-19 \u00b0C (approx)", "Density": "1.8022 g/cm\u00b3 @ Temp: 20 \u00b0C"}}