{"cas_no": "327-62-8", "cn_name": "\u4e19\u9178\u94be", "en_name": ["Potassium propionate", "Propanoic acid, potassium salt", "Propionic acid, potassium salt", "Potassium propanoate", "Potassium propionate"], "SMILES": "C(CC)(O)=O.[K]", "physical_data": {"Molecular Weight": "", "Molecular Formula": "C3H6O2.K", "Melting Point": "157 \u00b0C"}}