{"cas_no": "327-78-6", "cn_name": "4-\u6c2f-3-\u4e09\u6c1f\u7532\u57fa\u5f02\u6c30\u9178\u82ef\u916f", "en_name": ["4-Chloro-3-(trifluoromethyl)phenyl isocyanate", "Benzene, 1-chloro-4-isocyanato-2-(trifluoromethyl)-", "Isocyanic acid, 4-chloro-\u03b1,\u03b1,\u03b1-trifluoro-m-tolyl ester", "1-Chloro-4-isocyanato-2-(trifluoromethyl)benzene", "4-Chloro-3-(trifluoromethyl)phenyl isocyanate", "3-Trifluoromethyl-4-chlorophenyl isocyanate", "4-Chloro-\u03b1,\u03b1,\u03b1-trifluoro-m-tolyl isocyanate", "4-Chloro-1-isocyanato-3-trifluoromethylbenzene"], "SMILES": "C(F)(F)(F)C1=CC(N=C=O)=CC=C1Cl", "physical_data": {"Molecular Weight": "221.56", "Molecular Formula": "C8H3ClF3NO", "Boiling Point": "86-89 \u00b0C @ Press: 14 Torr"}}