{"cas_no": "327-54-8", "cn_name": "1,2,4,5-\u56db\u6c1f\u82ef", "en_name": ["1,2,4,5-Tetrafluorobenzene", "Benzene, 1,2,4,5-tetrafluoro-", "1,2,4,5-Tetrafluorobenzene", "2,3,5,6-Tetrafluorobenzene", "p-Tetrafluorobenzene", "NSC 10249"], "SMILES": "FC1=C(F)C=C(F)C(F)=C1", "physical_data": {"Molecular Weight": "150.07", "Molecular Formula": "C6H2F4", "Boiling Point": "90.2 \u00b0C", "Melting Point": "4.5 \u00b0C", "Density": "1.4256 g/cm\u00b3 @ Temp: 20 \u00b0C"}}