{"cas_no": "327-98-0", "cn_name": "O-\u4e59\u57fa-O-2\uff0c4\uff0c5-\u4e09\u6c2f\u82ef\u57fa\u4e59\u57fa\u786b\u4ee3\u78f7\u9178\u916f", "en_name": ["Trichloronate", "Phosphonothioic acid, ethyl-, O-ethyl O-(2,4,5-trichlorophenyl) ester", "S 4400", "5082A", "BAY 37289", "Bayer S 4400", "Chemagro 37289", "O-Ethyl O-2,4,5-trichlorophenyl ethylphosphonothioate", "Trichloronate", "Trichloronat", "Agritox", "Bayer 37289", "Bayer 5081", "ENT-25712", "Fitosol", "Phytosol", "Richloronate", "(\u00b1)-Trichloronate"], "SMILES": "O(P(OCC)(CC)=S)C1=C(Cl)C=C(Cl)C(Cl)=C1", "physical_data": {"Molecular Weight": "333.60", "Molecular Formula": "C10H12Cl3O2PS", "Boiling Point": "108 \u00b0C @ Press: 0.01 Torr", "Density": "1.365 g/cm\u00b3 @ Temp: 20 \u00b0C"}}