{"cas_no": "327-57-1", "cn_name": "L-\u6b63\u4eae\u6c28\u9178", "en_name": ["Caprine", "L-Norleucine", "Norleucine, L-", "\u03b1-Aminocaproic acid", "Caprine", "Glycoleucine", "Hexanoic acid, 2-amino-, (S)-", "2-Aminocaproic acid", "Norleucine", "L-(+)-Norleucine", "(S)-2-Aminohexanoic acid", "(S)-Norleucine", "(S)-\u03b1-Aminohexanoic acid", "L-2-Aminohexanoic acid", "NSC 10378", "NSC 74430", "(2S)-2-Aminohexanoic acid", "MeSH ID: D009646"], "SMILES": "C(C(O)=O)(CCCC)N", "physical_data": {"Molecular Weight": "131.17", "Molecular Formula": "C6H13NO2", "Melting Point": "298.5 \u00b0C"}}