{"cas_no": "327-51-5", "cn_name": "1,4-\u4e8c\u6eb4-2,5-\u4e8c\u6c1f\u82ef", "en_name": ["1,4-Dibromo-2,5-difluorobenzene", "Benzene, 1,4-dibromo-2,5-difluoro-", "1,4-Dibromo-2,5-difluorobenzene", "2,5-Dibromo-1,4-difluorobenzene", "2,5-Difluoro-1,4-dibromobenzene"], "SMILES": "BrC1=C(F)C=C(Br)C(F)=C1", "physical_data": {"Molecular Weight": "271.88", "Molecular Formula": "C6H2Br2F2", "Boiling Point": "96 \u00b0C @ Press: 20 Torr", "Melting Point": "64.5-65.5 \u00b0C"}}