{"cas_no": "327-92-4", "cn_name": "1,5-\u4e8c\u6c1f-2,4-\u4e8c\u785d\u57fa\u82ef", "en_name": ["1,5-Difluoro-2,4-dinitrobenzene", "Benzene, 1,5-difluoro-2,4-dinitro-", "1,5-Difluoro-2,4-dinitrobenzene", "4,6-Difluoro-1,3-dinitrobenzene", "1,3-Difluoro-4,6-dinitrobenzene", "2,4-Dinitro-1,5-difluorobenzene", "2,6-Dinitro-3,5-difluorobenzene", "NSC 10246", "2,4-Difluoro-1,5-dinitrobenzene", "1,5-Difluoro-2,4-nitrobenzene", "DFDNB"], "SMILES": "N(=O)(=O)C1=CC(N(=O)=O)=C(F)C=C1F", "physical_data": {"Molecular Weight": "204.09", "Molecular Formula": "C6H2F2N2O4", "Melting Point": "74 \u00b0C"}}