{"cas_no": "327-75-3", "cn_name": "2,4-\u4e8c(\u4e09\u6c1f\u7532\u57fa)\u6eb4\u82ef", "en_name": ["1-Bromo-2,4-bis(trifluoromethyl)benzene", "Benzene, 1-bromo-2,4-bis(trifluoromethyl)-", "1-Bromo-2,4-bis(trifluoromethyl)benzene", "2,4-Bis(trifluoromethyl)bromobenzene", "2,4-Bis(trifluoromethyl)-1-bromobenzene"], "SMILES": "C(F)(F)(F)C1=CC(C(F)(F)F)=CC=C1Br", "physical_data": {"Molecular Weight": "293.00", "Molecular Formula": "C8H3BrF6", "Boiling Point": "158 \u00b0C @ Press: 740 Torr"}}