{"cas_no": "327-19-5", "cn_name": "5-\u785d\u57fa-2-(\u4e09\u6c1f\u7532\u57fa)-1H-\u82ef\u5e76\u54aa\u5511", "en_name": ["6-Nitro-2-(trifluoromethyl)-1H-benzimidazole", "1H-Benzimidazole, 6-nitro-2-(trifluoromethyl)-", "Benzimidazole, 5-nitro-2-(trifluoromethyl)-", "1H-Benzimidazole, 5-nitro-2-(trifluoromethyl)-", "Benzimidazole, 5(or 6)-nitro-2-(trifluoromethyl)-", "6-Nitro-2-(trifluoromethyl)-1H-benzimidazole", "5-Nitro-2-trifluoromethylbenzimidazole", "2-(Trifluoromethyl)-5-nitrobenzimidazole", "6-Nitro-2-(trifluoromethyl)benzimidazole"], "SMILES": "C(F)(F)(F)C=1NC=2C(N1)=CC=C(N(=O)=O)C2", "physical_data": {"Molecular Weight": "231.13", "Molecular Formula": "C8H4F3N3O2", "Melting Point": "152-154 \u00b0C"}}