{"cas_no": "327-20-8", "cn_name": "6-(\u4e09\u6c1f\u7532\u57fa)\u5432\u54da-2-\u7fa7\u9178", "en_name": ["6-(Trifluoromethyl)-1H-indole-2-carboxylic acid", "1H-Indole-2-carboxylic acid, 6-(trifluoromethyl)-", "Indole-2-carboxylic acid, 6-(trifluoromethyl)-", "6-(Trifluoromethyl)-1H-indole-2-carboxylic acid"], "SMILES": "C(F)(F)(F)C=1C=C2C(C=C(C(O)=O)N2)=CC1", "physical_data": {"Molecular Weight": "229.16", "Molecular Formula": "C10H6F3NO2", "Melting Point": "163-164 \u00b0C"}}