{"cas_no": "327-56-0", "cn_name": "D-\u6b63\u4eae\u6c28\u9178", "en_name": ["D-Norleucine", "D-Norleucine", "Norleucine, D-", "D-(-)-Norleucine", "(R)-Norleucine", "(R)-2-Aminohexanoic acid", "(2R)-2-Aminohexanoic acid"], "SMILES": "C(C(O)=O)(CCCC)N", "physical_data": {"Molecular Weight": "131.17", "Molecular Formula": "C6H13NO2", "Melting Point": "300 \u00b0C"}}