{"cas_no": "327-97-9", "cn_name": "\u7eff\u539f\u9178", "en_name": ["Chlorogenic acid", "Cyclohexanecarboxylic acid, 3-[[3-(3,4-dihydroxyphenyl)-1-oxo-2-propen-1-yl]oxy]-1,4,5-trihydroxy-, (1S,3R,4R,5R)-", "Chlorogenic acid", "Cyclohexanecarboxylic acid, 3-[[3-(3,4-dihydroxyphenyl)-1-oxo-2-propenyl]oxy]-1,4,5-trihydroxy-, [1S-(1\u03b1,3\u03b2,4\u03b1,5\u03b1)]-", "Cyclohexanecarboxylic acid, 3-[[3-(3,4-dihydroxyphenyl)-1-oxo-2-propenyl]oxy]-1,4,5-trihydroxy-, (1S,3R,4R,5R)-", "(1S,3R,4R,5R)-3-[[3-(3,4-Dihydroxyphenyl)-1-oxo-2-propen-1-yl]oxy]-1,4,5-trihydroxycyclohexanecarboxylic acid", "3-Caffeoylquinic acid", "3-O-Caffeoylquinic acid", "3-(3,4-Dihydroxycinnamoyl)quinic acid", "Caffeoylquinic acid", "3-O-(3,4-Dihydroxycinnamoyl)-D-quinic acid", "NSC 407296", "Heriguard", "NSC 70861", "SW 85834", "5-Chlorogenic acid", "MeSH ID: D002726"], "SMILES": "O(C(C=CC1=CC(O)=C(O)C=C1)=O)C2CC(C(O)=O)(O)CC(O)C2O", "physical_data": {"Molecular Weight": "354.31", "Molecular Formula": "C16H18O9", "Melting Point": "206-207 \u00b0C"}}