{"cas_no": "32707-89-4", "cn_name": "3,5-\u53cc\u4e09\u6c1f\u7532\u57fa\u82c4\u9187", "en_name": ["3,5-Bis(trifluoromethyl)benzenemethanol", "Benzenemethanol, 3,5-bis(trifluoromethyl)-", "Benzyl alcohol, 3,5-bis(trifluoromethyl)-", "3,5-Bis(trifluoromethyl)benzenemethanol", "3,5-Bis(trifluoromethyl)benzyl alcohol", "[3,5-Bis(trifluoromethyl)phenyl]methanol", "[3,5-Di(trifluoromethyl)phenyl]methanol"], "SMILES": "C(F)(F)(F)C1=CC(C(F)(F)F)=CC(CO)=C1", "physical_data": {"Molecular Weight": "244.13", "Molecular Formula": "C9H6F6O", "Melting Point": "54-56 \u00b0C"}}