{"cas_no": "32703-79-0", "cn_name": "4-\u53d4\u4e01\u57fa\u90bb\u82ef\u4e8c\u7532\u9178\u9150", "en_name": ["4-tert-Butylphthalic anhydride", "1,3-Isobenzofurandione, 5-(1,1-dimethylethyl)-", "Phthalic anhydride, 4-tert-butyl-", "5-(1,1-Dimethylethyl)-1,3-isobenzofurandione", "4-tert-Butylphthalic anhydride", "4-tert-Butyl phthalic acid anhydride", "5-tert-Butyl-1,3-isobenzofurandione"], "SMILES": "O=C1C=2C(C(=O)O1)=CC=C(C(C)(C)C)C2", "physical_data": {"Molecular Weight": "204.22", "Molecular Formula": "C12H12O3", "Melting Point": "75.5-76.5 \u00b0C"}}