{"cas_no": "32703-80-3", "cn_name": "4-\u53d4\u4e01\u57fa\u90bb\u82ef\u4e8c\u7532\u8148", "en_name": ["4-tert-Butylphthalonitrile", "1,2-Benzenedicarbonitrile, 4-(1,1-dimethylethyl)-", "Phthalonitrile, 4-tert-butyl-", "4-(1,1-Dimethylethyl)-1,2-benzenedicarbonitrile", "4-tert-Butylphthalonitrile", "4-tert-Butylphthalodinitrile", "4-tert-Butyl-1,2-dicyanobenzene", "1,2-Dicyano-4-tert-butylbenzene", "4-tert-Butylbenzene-1,2-dicarbonitrile"], "SMILES": "C(#N)C1=C(C#N)C=CC(C(C)(C)C)=C1", "physical_data": {"Molecular Weight": "184.24", "Molecular Formula": "C12H12N2", "Melting Point": "57-59 \u00b0C"}}