{"cas_no": "32710-14-8", "cn_name": "3-\u6c28\u57fa\u5421\u55ea-2-\u7532\u919b", "en_name": ["3-Amino-2-pyrazinecarboxaldehyde", "2-Pyrazinecarboxaldehyde, 3-amino-", "Pyrazinecarboxaldehyde, 3-amino-", "Pyrazinaldehyde, 3-amino-", "3-Amino-2-pyrazinecarboxaldehyde", "3-Aminopyrazine-2-carboxaldehyde", "3-Aminopyrazine-2-carbaldehyde"], "SMILES": "C(=O)C=1C(N)=NC=CN1", "physical_data": {"Molecular Weight": "123.11", "Molecular Formula": "C5H5N3O", "Melting Point": "119-120 \u00b0C"}}