{"cas_no": "3271-05-4", "cn_name": "N-\u7532\u57fa-4-\u7532\u6c27\u57fa-1,8-\u8418\u4e8c\u7532\u9170\u4e9a\u80fa", "en_name": ["N-Methyl-4-methoxy-1,8-naphthalimide", "1H-Benz[de]isoquinoline-1,3(2H)-dione, 6-methoxy-2-methyl-", "Naphthalimide, 4-methoxy-N-methyl-", "6-Methoxy-2-methyl-1H-benz[de]isoquinoline-1,3(2H)-dione", "4-Methoxynaphthalene-1,8-dicarboxylic methylimide", "C.I. Fluorescent Brightening Agent 162", "Mikawhite AT", "Fluorescent Brightening Agent 162", "C.I. Fluorescent Brightener 162", "Fluorescent Brightener 162", "4-Methoxy-N-methyl-1,8-naphthalimide", "Mikawhite AT CONC", "C.I. 56190", "N-Methyl-4-methoxy-1,8-naphthalimide", "AMI 3"], "SMILES": "O(C)C=1C2=C3C(C(=O)N(C)C(=O)C3=CC=C2)=CC1", "physical_data": {"Molecular Weight": "241.24", "Molecular Formula": "C14H11NO3", "Melting Point": "197-201 \u00b0C"}}