{"cas_no": "3272-08-0", "cn_name": "4-\u7f9f\u57fa-3-\u785d\u57fa\u82ef\u7532\u8148", "en_name": ["4-Cyano-2-nitrophenol", "Benzonitrile, 4-hydroxy-3-nitro-", "4-Hydroxy-3-nitrobenzonitrile", "3-Nitro-4-hydroxybenzonitrile", "5-Nitro-4-hydroxybenzonitrile", "4-Cyano-2-nitrophenol", "2-Nitro-4-cyanophenol"], "SMILES": "N(=O)(=O)C1=CC(C#N)=CC=C1O", "physical_data": {"Molecular Weight": "164.12", "Molecular Formula": "C7H4N2O3", "Melting Point": "144 \u00b0C"}}