{"cas_no": "32723-67-4", "cn_name": "4-\u7532\u6c27\u57fa-3-\u7532\u57fa\u82ef\u7532\u919b", "en_name": ["4-Methoxy-3-methylbenzaldehyde", "Benzaldehyde, 4-methoxy-3-methyl-", "p-Anisaldehyde, 3-methyl-", "4-Methoxy-3-methylbenzaldehyde", "3-Methyl-4-methoxybenzaldehyde", "4-Methoxy-3-tolualdehyde", "3-Methyl-p-anisaldehyde", "(4-Methoxy-3-methylphenyl)formaldehyde", "3-Methyl-4-anisaldehyde"], "SMILES": "C(=O)C1=CC(C)=C(OC)C=C1", "physical_data": {"Molecular Weight": "150.17", "Molecular Formula": "C9H10O2", "Boiling Point": "250 \u00b0C", "Density": "1.082 g/cm\u00b3 @ Temp: 16 \u00b0C"}}