{"cas_no": "32737-14-7", "cn_name": "2-\u4e59\u6c27\u57fa-3-\u7532\u57fa\u5421\u55ea", "en_name": ["2-Ethoxy-3-methylpyrazine", "Pyrazine, 2-ethoxy-3-methyl-", "2-Ethoxy-3-methylpyrazine", "2-Methyl-3-ethoxypyrazine"], "SMILES": "O(CC)C=1C(C)=NC=CN1", "physical_data": {"Molecular Weight": "138.17", "Molecular Formula": "C7H10N2O", "Boiling Point": "88-90 \u00b0C @ Press: 48 Torr"}}