{"cas_no": "32738-09-3", "cn_name": "5-\u7532\u57fa-2-\u786b\u8132\u5576", "en_name": ["5-Methyl-2-thiouridine", "Uridine, 5-methyl-2-thio-", "5-Methyl-2-thiouridine", "1-\u03b2-D-Ribofuranosyl-2-thiothymine", "2-Thioribothymine", "2-Thio-5-methyluridine", "2-Thioribosylthymine", "2-Thioribothymidine"], "SMILES": "OC1C(OC(CO)C1O)N2C(=S)NC(=O)C(C)=C2", "physical_data": {"Molecular Weight": "274.29", "Molecular Formula": "C10H14N2O5S", "Melting Point": "217 \u00b0C"}}