{"cas_no": "3274-28-0", "cn_name": "2-\u4e19\u57fa\u5df1\u9178", "en_name": ["2-Propylhexanoic acid", "Hexanoic acid, 2-propyl-", "2-Propylhexanoic acid", "4-Octanecarboxylic acid"], "SMILES": "C(CCCC)(CCC)C(O)=O", "physical_data": {"Molecular Weight": "158.24", "Molecular Formula": "C9H18O2", "Boiling Point": "127 \u00b0C @ Press: 5 Torr", "Density": "0.914 g/cm\u00b3"}}