{"cas_no": "32749-94-3", "cn_name": "2\uff0c3-\u4e8c\u7532\u57fa\u620a\u919b", "en_name": ["2,3-Dimethylpentanal", "Pentanal, 2,3-dimethyl-", "Valeraldehyde, 2,3-dimethyl-", "2,3-Dimethylpentanal", "2,3-Dimethylvaleraldehyde", "NSC 73707"], "SMILES": "C(C(C=O)C)(CC)C", "physical_data": {"Molecular Weight": "114.19", "Molecular Formula": "C7H14O", "Boiling Point": "141-142 \u00b0C"}}