{"cas_no": "32752-54-8", "cn_name": "4-(\u6eb4\u7532\u57fa)\u4e8c\u82ef\u7532\u916e", "en_name": ["4-(Bromomethyl)benzophenone", "Methanone, [4-(bromomethyl)phenyl]phenyl-", "Benzophenone, 4-(bromomethyl)-", "[4-(Bromomethyl)phenyl]phenylmethanone", "p-Benzoylbenzyl bromide", "4-(Bromomethyl)benzophenone", "\u03b1-Bromo-p-benzoyltoluene", "4-Benzoylbenzyl bromide", "p-Bromomethylbenzophenone"], "SMILES": "C(=O)(C1=CC=C(CBr)C=C1)C2=CC=CC=C2", "physical_data": {"Molecular Weight": "275.14", "Molecular Formula": "C14H11BrO", "Melting Point": "112 \u00b0C"}}