{"cas_no": "32765-81-4", "cn_name": "1-\u6eb4-6-(\u4e09\u7532\u57fa\u94f5)\u5df1\u57fa\u6eb4", "en_name": ["1-Hexanaminium, 6-bromo-N,N,N-trimethyl-, bromide (1:1)", "1-Hexanaminium, 6-bromo-N,N,N-trimethyl-, bromide (1:1)", "1-Hexanaminium, 6-bromo-N,N,N-trimethyl-, bromide", "Ammonium, (6-bromohexyl)trimethyl-, bromide", "(6-Bromohexyl)trimethylammonium bromide"], "SMILES": "C(CCCCCBr)[N+](C)(C)C.[Br-]", "physical_data": {"Molecular Weight": "", "Molecular Formula": "C9H21BrN.Br", "Melting Point": "98-100 \u00b0C"}}