{"cas_no": "32760-80-8", "cn_name": "\u5f02\u4e19\u82ef\u57fa\u73af\u620a\u4e8c\u70ef\u94c1\u516d\u6c1f\u78f7\u9178\u76d0", "en_name": ["Iron(1+), (\u03b75-2,4-cyclopentadien-1-yl)[(1,2,3,4,5,6-\u03b7)-(1-methylethyl)benzene]-, hexafluorophosphate(1-) (1:1)", "Iron(1+), (\u03b75-2,4-cyclopentadien-1-yl)[(1,2,3,4,5,6-\u03b7)-(1-methylethyl)benzene]-, hexafluorophosphate(1-) (1:1)", "Iron(1+), (cumene)-\u03c0-cyclopentadienyl-, hexafluorophosphate(1-)", "Iron(1+), (\u03b75-2,4-cyclopentadien-1-yl)[(1,2,3,4,5,6-\u03b7)-(1-methylethyl)benzene]-, hexafluorophosphate(1-)", "Phosphate(1-), hexafluoro-, (\u03b75-2,4-cyclopentadien-1-yl)[(1,2,3,4,5,6-\u03b7)-(1-methylethyl)benzene]iron(1+)", "Benzene, (1-methylethyl)-, iron complex", "Irgacure CG 24-61", "Irgacure 261", "CG 24-61", "(\u03b76-Cumene)(\u03b75-cyclopentadienyl)iron(II) hexafluorophosphate", "CG 261", "(\u03b75-2,4-Cyclopentadien-1-yl)[(1,2,3,4,5,6-\u03b7)-(1-methylethyl)benzene]iron(1+) hexafluorophosphate", "(\u03b75-2,4-Cyclopentadien-1-yl)[(1,2,3,4,5,6-\u03b7)-(1-methylethyl)benzene]iron(1+) hexafluorophosphate(1-)", "(\u03b75-Cyclopentadienyl)(\u03b76-isopropylbenzene)iron(1+) hexafluorophosphate", "I 261", "Cyclopentadienylcumeniron hexafluorophosphate", "R-Gen 261", "UV 261", "(Cumene)cyclopentadienyliron(II) hexafluorophosphate", "Photoinitiator 261"], "SMILES": "[P+5]([F-])([F-])([F-])([F-])([F-])[F-].C(C)(C)C1=2[Fe+2]3456789%10([CH]1=[CH]3[CH]4=[CH]5[CH]62)[CH-]%11[CH]7=[CH]8[CH]9=[CH]%10%11", "physical_data": {"Molecular Weight": "", "Molecular Formula": "C14H17Fe.F6P", "Melting Point": "269 \u00b0C"}}