{"cas_no": "32768-54-0", "cn_name": "2,3-\u4e8c\u6c2f\u7532\u82ef", "en_name": ["2,3-Dichlorotoluene", "Benzene, 1,2-dichloro-3-methyl-", "Toluene, 2,3-dichloro-", "1,2-Dichloro-3-methylbenzene", "2,3-Dichlorotoluene"], "SMILES": "ClC1=C(C)C=CC=C1Cl", "physical_data": {"Molecular Weight": "161.03", "Molecular Formula": "C7H6Cl2", "Boiling Point": "207.5 \u00b0C", "Melting Point": "6 \u00b0C"}}