{"cas_no": "32764-98-0", "cn_name": "\u56db\u6c22\u5316-6-(3-\u620a\u70ef\u57fa)-2H-\u5421\u5583-2-\u916e", "en_name": ["Tetrahydro-6-(3-penten-1-yl)-2H-pyran-2-one", "2H-Pyran-2-one, tetrahydro-6-(3-penten-1-yl)-", "2H-Pyran-2-one, tetrahydro-6-(3-pentenyl)-", "8-Decenoic acid, 5-hydroxy-, \u03b4-lactone", "Tetrahydro-6-(3-penten-1-yl)-2H-pyran-2-one"], "SMILES": "C(CC=CC)C1OC(=O)CCC1", "physical_data": {"Molecular Weight": "168.23", "Molecular Formula": "C10H16O2", "Boiling Point": "149-151 \u00b0C @ Press: 18 Torr"}}