{"cas_no": "32771-64-5", "cn_name": "\u987a\u5f0f-\u7389\u7c73\u7d20", "en_name": ["cis-Zeatin", "2-Buten-1-ol, 2-methyl-4-(9H-purin-6-ylamino)-, (2Z)-", "2-Buten-1-ol, 2-methyl-4-(1H-purin-6-ylamino)-, (Z)-", "2-Buten-1-ol, 2-methyl-4-(purin-6-ylamino)-, (Z)-", "2-Buten-1-ol, 2-methyl-4-(1H-purin-6-ylamino)-, (2Z)-", "(2Z)-2-Methyl-4-(9H-purin-6-ylamino)-2-buten-1-ol", "cis-Zeatin", "(Z)-Zeatin", "6-(4-Hydroxy-3-methyl-cis-2-butenylamino)purine", "cis-6-(4-Hydroxy-3-methyl-2-butenylamino)purine"], "SMILES": "N(CC=C(CO)C)C1=C2C(N=CN2)=NC=N1", "physical_data": {"Molecular Weight": "219.24", "Molecular Formula": "C10H13N5O", "Melting Point": "206-208 \u00b0C"}}