{"cas_no": "3277-26-7", "cn_name": "1,1,3,3-\u56db\u7532\u57fa\u4e8c\u7845\u6c27\u70f7", "en_name": ["1,1,3,3-Tetramethyldisiloxane", "Disiloxane, 1,1,3,3-tetramethyl-", "1,1,3,3-Tetramethyldisiloxane", "Bis(dimethylsilyl) ether", "Bis(dimethylsilyl) oxide", "sym-Tetramethyldisiloxane", "Dimethylsilyl ether", "1,3-Dihydrotetramethyldisiloxane", "1,3-Dihydrogen-1,1,3,3-tetramethyldisiloxane", "1,1,3,3-Tetramethyl-1,3-dihydrodisiloxane", "T 2030", "1,1,3,3-Tetramethyl-1,3-disiloxane", "T 2030 (siloxane)", "NSC 155369", "LS 7040", "[(Dimethylsilyl)oxy]dimethylsilane", "Dowsil 3-7010", "VM 29"], "SMILES": "O([SiH](C)C)[SiH](C)C", "physical_data": {"Molecular Weight": "134.32", "Molecular Formula": "C4H14OSi2", "Boiling Point": "72 \u00b0C", "Density": "0.757 g/cm\u00b3"}}