{"cas_no": "32774-16-6", "cn_name": "3,3,4,4,5,5-\u516d\u6c2f\u8054\u82ef", "en_name": ["3,3\u2032,4,4\u2032,5,5\u2032-Hexachlorobiphenyl", "1,1\u2032-Biphenyl, 3,3\u2032,4,4\u2032,5,5\u2032-hexachloro-", "Biphenyl, 3,3\u2032,4,4\u2032,5,5\u2032-hexachloro-", "3,3\u2032,4,4\u2032,5,5\u2032-Hexachloro-1,1\u2032-biphenyl", "3,3\u2032,4,4\u2032,5,5\u2032-Hexachlorobiphenyl", "3,4,5,3\u2032,4\u2032,5\u2032-Hexachlorobiphenyl", "PCB 169", "CB 169", "HxCB 169", "H 6CB 169"], "SMILES": "ClC=1C=C(C=C(Cl)C1Cl)C2=CC(Cl)=C(Cl)C(Cl)=C2", "physical_data": {"Molecular Weight": "360.88", "Molecular Formula": "C12H4Cl6", "Melting Point": "198 \u00b0C"}}