{"cas_no": "3278-31-7", "cn_name": "N,N'-(1,4-\u4e9a\u82ef\u57fa)\u53cc\u9a6c\u6765\u9170\u4e9a\u80fa", "en_name": ["1,4-Phenylenebismaleimide", "1H-Pyrrole-2,5-dione, 1,1\u2032-(1,4-phenylene)bis-", "Maleimide, N,N\u2032-p-phenylenedi-", "1,1\u2032-(1,4-Phenylene)bis[1H-pyrrole-2,5-dione]", "N,N\u2032-p-Phenylenebis(maleimide)", "1,4-Dimaleimidobenzene", "N,N\u2032-1,4-Phenylenedimaleimide", "4,4\u2032-Phenylenedimaleimide", "N,N\u2032-p-Phenylenedimaleimide", "1,4-Bismaleimidobenzene", "p-Phenylene dimaleimide", "p-N,N\u2032-Phenylenebismaleimide", "1,4-Phenylenebismaleimide", "NSC 81257", "N,N\u2032-1,4-Phenylenebismaleimide", "1-[4-(2,5-Dioxo-2,5-dihydro-1H-pyrrol-1-yl)phenyl]-2,5-dihydro-1H-pyrrole-2,5-dione", "1-[4-(2,5-Dioxopyrrol-1-yl)phenyl]pyrrole-2,5-dione"], "SMILES": "O=C1N(C(=O)C=C1)C2=CC=C(C=C2)N3C(=O)C=CC3=O", "physical_data": {"Molecular Weight": "268.22", "Molecular Formula": "C14H8N2O4", "Melting Point": "300 \u00b0C"}}