{"cas_no": "3278-22-6", "cn_name": "\u53cc(\u4e59\u70ef\u781c\u57fa)\u7532\u70f7", "en_name": ["1,1\u2032-[Methylenebis(sulfonyl)]bis[ethene]", "Ethene, 1,1\u2032-[methylenebis(sulfonyl)]bis-", "Methane, bis(vinylsulfonyl)-", "1,1\u2032-[Methylenebis(sulfonyl)]bis[ethene]", "1,1-Bis(vinylsulfonyl)methane", "Di(vinylsulfonyl)methane", "Bis(vinylsulfonyl)methane", "1-(Ethenylsulfonylmethylsulfonyl)ethene", "(Ethenesulfonyl)methanesulfonylethene"], "SMILES": "C(S(C=C)(=O)=O)S(C=C)(=O)=O", "physical_data": {"Molecular Weight": "196.24", "Molecular Formula": "C5H8O4S2", "Melting Point": "59-61 \u00b0C"}}