{"cas_no": "3278-89-5", "cn_name": "2,4,6-\u4e09\u6eb4\u82ef\u57fa\u70ef\u4e19\u57fa\u919a", "en_name": ["Allyl 2,4,6-tribromophenyl ether", "Benzene, 1,3,5-tribromo-2-(2-propen-1-yloxy)-", "Ether, allyl 2,4,6-tribromophenyl", "Benzene, 1,3,5-tribromo-2-(2-propenyloxy)-", "1,3,5-Tribromo-2-(2-propen-1-yloxy)benzene", "2,4,6-Tribromophenyl allyl ether", "Allyl 2,4,6-tribromophenyl ether", "Pyroguard FR 100", "NSC 35767", "TBPAE", "1,3,5-Tribromo-2-prop-2-enoxybenzene", "2-Allyloxy-1,3,5-tribromobenzene"], "SMILES": "O(CC=C)C1=C(Br)C=C(Br)C=C1Br", "physical_data": {"Molecular Weight": "370.86", "Molecular Formula": "C9H7Br3O", "Melting Point": "41-42 \u00b0C"}}