{"cas_no": "3278-14-6", "cn_name": "N-\u82ef\u4e59\u57fa-\u82ef\u7532\u9170\u80fa", "en_name": ["N-Phenethylbenzamide", "Benzamide, N-(2-phenylethyl)-", "Benzamide, N-phenethyl-", "N-(2-Phenylethyl)benzamide", "N-Benzoyl-\u03b2-phenethylamine", "N-(2-Phenylethyl)benzamide", "N-Phenethylbenzamide", "N-Benzoylphenethylamine", "N-Benzoyl-2-phenylethylamine", "NSC 16618", "NSC 43723", "Riparin A"], "SMILES": "C(NCCC1=CC=CC=C1)(=O)C2=CC=CC=C2", "physical_data": {"Molecular Weight": "225.29", "Molecular Formula": "C15H15NO", "Melting Point": "117-118 \u00b0C"}}