{"cas_no": "32780-64-6", "cn_name": "\u67f3\u80fa\u82c4\u5fc3\u5b9a", "en_name": ["Labetalol hydrochloride", "Benzamide, 2-hydroxy-5-[1-hydroxy-2-[(1-methyl-3-phenylpropyl)amino]ethyl]-, hydrochloride (1:1)", "Benzamide, 2-hydroxy-5-[1-hydroxy-2-[(1-methyl-3-phenylpropyl)amino]ethyl]-, monohydrochloride", "Salicylamide, 5-[1-hydroxy-2-[(1-methyl-3-phenylpropyl)amino]ethyl]-, monohydrochloride", "AH 5158A", "AH 5158 hydrochloride", "Labetalol hydrochloride", "Trandate", "Normodyne", "Presdate", "Labelol", "Labracol", "Pressalolo", "Ipolab", "Vescal", "Amipress", "Sch 15719W", "NSC 290312"], "SMILES": "C(CNC(CCC1=CC=CC=C1)C)(O)C2=CC(C(N)=O)=C(O)C=C2.Cl", "physical_data": {"Molecular Weight": "", "Molecular Formula": "C19H24N2O3.ClH", "Melting Point": "187-189 \u00b0C"}}