{"cas_no": "3279-07-0", "cn_name": "2-\u785d\u57fa-4-\u53d4\u4e01\u57fa\u82ef\u915a", "en_name": ["4-tert-Butyl-2-nitrophenol", "Phenol, 4-(1,1-dimethylethyl)-2-nitro-", "Phenol, 4-tert-butyl-2-nitro-", "4-(1,1-Dimethylethyl)-2-nitrophenol", "4-tert-Butyl-2-nitrophenol", "2-Nitro-4-tert-butylphenol", "NSC 36629"], "SMILES": "N(=O)(=O)C1=CC(C(C)(C)C)=CC=C1O", "physical_data": {"Molecular Weight": "195.22", "Molecular Formula": "C10H13NO3", "Boiling Point": "136-138 \u00b0C @ Press: 15-16 Torr", "Melting Point": "26.0-26.5 \u00b0C"}}