{"cas_no": "32795-47-4", "cn_name": "\u8bfa\u7c73\u82ac\u65b0\u9a6c\u6765\u9178\u76d0", "en_name": ["Nomifensine maleate", "8-Isoquinolinamine, 1,2,3,4-tetrahydro-2-methyl-4-phenyl-, (2Z)-2-butenedioate (1:1)", "8-Isoquinolinamine, 1,2,3,4-tetrahydro-2-methyl-4-phenyl-, (Z)-2-butenedioate (1:1)", "Nomifensine maleate", "Nomifensine hydrogen maleate", "HOE 984", "Alival (antidepressant)", "Alival", "Merital", "Psicronizer", "(\u00b1)-Nomifensine hydrogen maleate", "Neurolene", "Hostalival", "NSC 289114", "2-Methyl-4-phenyl-1,2,3,4-tetrahydroisoquinolin-8-amine maleate"], "SMILES": "C(=CC(O)=O)C(O)=O.NC1=C2C(C(CN(C)C2)C3=CC=CC=C3)=CC=C1", "physical_data": {"Molecular Weight": "", "Molecular Formula": "C16H18N2.C4H4O4", "Melting Point": "199-201 \u00b0C"}}