{"cas_no": "3279-26-3", "cn_name": "\u4e8c\u6c2f\u4e9a\u78f7\u9178\u7532\u916f", "en_name": ["Phosphorodichloridous acid, methyl ester", "Phosphorodichloridous acid, methyl ester", "Methyl phosphorodichloridite", "Dichloromethoxyphosphine", "Methoxyphosphonous dichloride", "Methyl dichlorophosphite", "Methoxydichlorophosphine", "Dichloro methyl phosphite", "Methyl dichlorophosphinite", "O-Methyl phosphorodichloridite"], "SMILES": "P(OC)(Cl)Cl", "physical_data": {"Molecular Weight": "132.91", "Molecular Formula": "CH3Cl2OP", "Boiling Point": "72-74 \u00b0C @ Press: 49 Torr", "Density": "1.3995 g/cm\u00b3 @ Temp: 20 \u00b0C"}}