{"cas_no": "3279-76-3", "cn_name": "2-\u7f9f\u57fa-6-\u7532\u57fa\u5421\u5576", "en_name": ["2-Hydroxy-6-methylpyridine", "2(1H)-Pyridinone, 6-methyl-", "2(1H)-Pyridone, 6-methyl-", "6-Methyl-2(1H)-pyridinone", "6-Methyl-2-pyridone", "2-Methyl-6-pyridone", "6-Methyl-2-hydroxypyridine", "6-Methyl-2-pyridinol", "6-Methyl-2-pyridinone", "2-Hydroxy-6-methylpyridine", "6-Methyl-2(1H)-pyridone", "2-Methyl-6-hydroxypyridine", "6-Hydroxy-\u03b1-picoline", "6-Hydroxy-2-methylpyridine", "NSC 176166", "NSC 75619", "6-Methyl-1H-pyridin-2-one", "6-Methyl-2H-pyridone", "6-Hydroxy-2-picoline", "6-Methyl-2(1H)-pyridinol"], "SMILES": "CC=1NC(=O)C=CC1", "physical_data": {"Molecular Weight": "109.13", "Molecular Formula": "C6H7NO", "Boiling Point": "282 \u00b0C", "Melting Point": "158-159 \u00b0C"}}