{"cas_no": "32791-84-7", "cn_name": "\u4eba\u53c2\u4e09\u9187", "en_name": ["Panaxatriol", "Dammarane-3,6,12-triol, 20,25-epoxy-, (3\u03b2,6\u03b2,12\u03b2,20R)-", "Panaxatriol", "Dammarane-3\u03b2,6\u03b2,12\u03b2-triol, 20,25-epoxy-, (20R)-", "(3\u03b2,6\u03b2,12\u03b2,20R)-20,25-Epoxydammarane-3,6,12-triol", "NSC 308880"], "SMILES": "CC12C3(C)C(C(CC3)C4(C)OC(C)(C)CCC4)C(O)CC1C5(C)C(C(O)C2)C(C)(C)C(O)CC5", "physical_data": {"Molecular Weight": "476.73", "Molecular Formula": "C30H52O4", "Melting Point": "238-239 \u00b0C"}}