{"cas_no": "3279-27-4", "cn_name": "2-(1,1-\u4e8c\u7532\u57fa\u4e19\u57fa)\u82ef\u915a", "en_name": ["2-tert-Amylphenol", "Phenol, 2-(1,1-dimethylpropyl)-", "Phenol, o-tert-pentyl-", "Phenol, o-(1,1-dimethylpropyl)-", "2-(1,1-Dimethylpropyl)phenol", "2-tert-Amylphenol", "o-tert-Amylphenol", "2-tert-Pentylphenol", "o-tert-Pentylphenol", "2-(2-Methylbutan-2-yl)phenol", "2-(2-Methyl-2-butyl)phenol"], "SMILES": "C(CC)(C)(C)C1=C(O)C=CC=C1", "physical_data": {"Molecular Weight": "164.24", "Molecular Formula": "C11H16O", "Boiling Point": "147-148 \u00b0C @ Press: 45 Torr", "Melting Point": "280 \u00b0C"}}