{"cas_no": "32795-44-1", "cn_name": "\u4e59\u9170\u666e\u5361\u80fa", "en_name": ["N-Acetylprocainamide", "Benzamide, 4-(acetylamino)-N-[2-(diethylamino)ethyl]-", "4-(Acetylamino)-N-[2-(diethylamino)ethyl]benzamide", "N-Acetylprocainamide", "N-Acetylprocaine amide", "Acecainide", "N-Acetylnovocainamide", "NAPA"], "SMILES": "C(NCCN(CC)CC)(=O)C1=CC=C(NC(C)=O)C=C1", "physical_data": {"Molecular Weight": "277.36", "Molecular Formula": "C15H23N3O2", "Melting Point": "210 \u00b0C"}}