{"cas_no": "32795-84-9", "cn_name": "\u6eb4\u82ef\u57fa\u84bd", "en_name": ["7-Bromobenz[a]anthracene", "Benz[a]anthracene, 7-bromo-", "7-Bromobenz[a]anthracene", "NSC 30995", "7-Bromobenzo[a]anthracene", "7-Bromotetraphene"], "SMILES": "BrC=1C=2C(=C3C(=CC2)C=CC=C3)C=C4C1C=CC=C4", "physical_data": {"Molecular Weight": "307.18", "Molecular Formula": "C18H11Br", "Melting Point": "151-152 \u00b0C"}}