{"cas_no": "328-89-2", "cn_name": "2-\u6eb4-4-\u4e09\u6c1f\u7532\u57fa\u82ef\u7532\u9178", "en_name": ["2-Bromo-4-(trifluoromethyl)benzoic acid", "Benzoic acid, 2-bromo-4-(trifluoromethyl)-", "p-Toluic acid, 2-bromo-\u03b1,\u03b1,\u03b1-trifluoro-", "2-Bromo-4-(trifluoromethyl)benzoic acid"], "SMILES": "C(F)(F)(F)C1=CC(Br)=C(C(O)=O)C=C1", "physical_data": {"Molecular Weight": "269.02", "Molecular Formula": "C8H4BrF3O2", "Melting Point": "182-183 \u00b0C"}}