{"cas_no": "328-90-5", "cn_name": "4-\u4e09\u6c1f\u7532\u57fa\u6c34\u6768\u9178", "en_name": ["2-Hydroxy-4-(trifluoromethyl)benzoic acid", "Benzoic acid, 2-hydroxy-4-(trifluoromethyl)-", "2,4-Cresotic acid, \u03b1,\u03b1,\u03b1-trifluoro-", "2-Hydroxy-4-(trifluoromethyl)benzoic acid", "4-(Trifluoromethyl)salicylic acid", "4-Trifluoromethyl-2-hydroxybenzoic acid", "p-(Trifluoromethyl)salicylic acid"], "SMILES": "C(F)(F)(F)C1=CC(O)=C(C(O)=O)C=C1", "physical_data": {"Molecular Weight": "206.12", "Molecular Formula": "C8H5F3O3", "Melting Point": "178 \u00b0C"}}