{"cas_no": "328-84-7", "cn_name": "3,4-\u4e8c\u6c2f\u4e09\u6c1f\u7532\u82ef", "en_name": ["3,4-Dichlorobenzotrifluoride", "Benzene, 1,2-dichloro-4-(trifluoromethyl)-", "Toluene, 3,4-dichloro-\u03b1,\u03b1,\u03b1-trifluoro-", "1,2-Dichloro-4-(trifluoromethyl)benzene", "3,4-Dichlorobenzotrifluoride", "3,4-Dichloro-\u03b1,\u03b1,\u03b1-trifluorotoluene", "(3,4-Dichlorophenyl)trifluoromethane", "3,4-Dichloro(trifluoromethyl)benzene", "3,4-Dichloro-1-(trifluoromethyl)benzene", "1-(Trifluoromethyl)-3,4-dichlorobenzene", "4-(Trifluoromethyl)-1,2-dichlorobenzene", "Oxsol 1000"], "SMILES": "C(F)(F)(F)C1=CC(Cl)=C(Cl)C=C1", "physical_data": {"Molecular Weight": "215.00", "Molecular Formula": "C7H3Cl2F3", "Boiling Point": "173-174 \u00b0C", "Melting Point": "-13--12 \u00b0C", "Density": "1.478 g/cm\u00b3"}}