{"cas_no": "328-87-0", "cn_name": "2-\u6c2f-5-\u4e09\u6c1f\u7532\u57fa\u82ef\u8148", "en_name": ["2-Chloro-5-(trifluoromethyl)benzonitrile", "Benzonitrile, 2-chloro-5-(trifluoromethyl)-", "m-Tolunitrile, 6-chloro-\u03b1,\u03b1,\u03b1-trifluoro-", "2-Chloro-5-(trifluoromethyl)benzonitrile", "1-Chloro-2-cyano-4-(trifluoromethyl)benzene", "6-Chloro-\u03b1,\u03b1,\u03b1-trifluoro-m-tolunitrile", "5-Trifluoromethyl-2-chlorobenzonitrile", "4-Chloro-3-cyanobenzotrifluoride", "NSC 88338"], "SMILES": "C(F)(F)(F)C1=CC(C#N)=C(Cl)C=C1", "physical_data": {"Molecular Weight": "205.56", "Molecular Formula": "C8H3ClF3N", "Boiling Point": "210-212 \u00b0C", "Melting Point": "38.5-39.5 \u00b0C"}}