{"cas_no": "328-70-1", "cn_name": "3,5-\u53cc\u4e09\u6c1f\u7532\u57fa\u6eb4\u82ef", "en_name": ["1-Bromo-3,5-bis(trifluoromethyl)benzene", "Benzene, 1-bromo-3,5-bis(trifluoromethyl)-", "m-Xylene, 5-bromo-\u03b1,\u03b1,\u03b1,\u03b1\u2032,\u03b1\u2032,\u03b1\u2032-hexafluoro-", "1-Bromo-3,5-bis(trifluoromethyl)benzene", "5-Bromo-1,3-bis(trifluoromethyl)benzene", "3,5-Bis(trifluoromethyl)bromobenzene", "3,5-Bis(trifluoromethyl)phenyl bromide", "3,5-Bis(trifluoromethyl)-1-bromobenzene", "3,5-Bis(trifluoromethyl)monobromobenzene", "NSC 88284", "3,5-Di(trifluoromethyl)bromobenzene", "1,3-Bis(trifluoromethyl)-5-bromobenzene", "1,3-Bis(trifluromethyl)-5-bromobenzene", "3,5-Trifluoromethyl-1-bromobenzene", "3,5-Di-trifluoromethyl-1-bromobenzene"], "SMILES": "C(F)(F)(F)C1=CC(C(F)(F)F)=CC(Br)=C1", "physical_data": {"Molecular Weight": "293.00", "Molecular Formula": "C8H3BrF6", "Boiling Point": "152 \u00b0C @ Press: 740 Torr", "Melting Point": "-16.0--15.5 \u00b0C", "Density": "1.726 g/cm\u00b3 @ Temp: 25 \u00b0C"}}