{"cas_no": "328-99-4", "cn_name": "\u95f4\u4e09\u6c1f\u7532\u57fa\u82ef\u7532\u9170\u6c1f", "en_name": ["3-(Trifluoromethyl)benzoyl fluoride", "Benzoyl fluoride, 3-(trifluoromethyl)-", "m-Toluoyl fluoride, \u03b1,\u03b1,\u03b1-trifluoro-", "3-(Trifluoromethyl)benzoyl fluoride", "m-(Trifluoromethyl)benzoyl fluoride", "NSC 93822"], "SMILES": "C(F)(F)(F)C1=CC(C(F)=O)=CC=C1", "physical_data": {"Molecular Weight": "192.11", "Molecular Formula": "C8H4F4O", "Boiling Point": "159-163 \u00b0C"}}