{"cas_no": "328-38-1", "cn_name": "D-\u4eae\u6c28\u9178", "en_name": ["D-Leucine", "D-Leucine", "Leucine, D-", "(R)-(-)-Leucine", "(R)-Leucine", "NSC 77687", "(R)-4-Methyl-2-aminopentanoic acid", "(2R)-2-Amino-4-methylpentanoic acid", "(R)-2-Amino-4-methylpentanoic acid"], "SMILES": "C(CC(C)C)(C(O)=O)N", "physical_data": {"Molecular Weight": "131.17", "Molecular Formula": "C6H13NO2", "Melting Point": "292-294 \u00b0C (decomp)"}}