{"cas_no": "328-73-4", "cn_name": "3,5-\u53cc(\u4e09\u6c1f\u7532\u57fa)\u7898\u82ef", "en_name": ["1-Iodo-3,5-bis(trifluoromethyl)benzene", "Benzene, 1-iodo-3,5-bis(trifluoromethyl)-", "Benzene, 5-iodo-1,3-bis(trifluoromethyl)-", "1-Iodo-3,5-bis(trifluoromethyl)benzene", "3,5-Bis(trifluoromethyl)iodobenzene", "3,5-Bis(trifluoromethyl)phenyl iodide", "1,3-Bis(trifluoromethyl)-5-iodobenzene", "5-Iodo-1,3-bis(trifluoromethyl)benzene", "3,5-Bis(trifluoromethyl)-1-iodobenzene"], "SMILES": "C(F)(F)(F)C1=CC(C(F)(F)F)=CC(I)=C1", "physical_data": {"Molecular Weight": "340.00", "Molecular Formula": "C8H3F6I", "Boiling Point": "59-61 \u00b0C @ Press: 10 Torr"}}