{"cas_no": "328-68-7", "cn_name": "3-\u6c28\u57fa-5-\u4e09\u6c1f\u7532\u57fa\u82ef\u7532\u9178", "en_name": ["3-Amino-5-(trifluoromethyl)benzoic acid", "Benzoic acid, 3-amino-5-(trifluoromethyl)-", "m-Toluic acid, 5-amino-\u03b1,\u03b1,\u03b1-trifluoro-", "3-Amino-5-(trifluoromethyl)benzoic acid", "5-Amino-3-trifluoromethylbenzoic acid"], "SMILES": "C(F)(F)(F)C1=CC(C(O)=O)=CC(N)=C1", "physical_data": {"Molecular Weight": "205.13", "Molecular Formula": "C8H6F3NO2", "Melting Point": "141-142.5 \u00b0C"}}