{"cas_no": "328-39-2", "cn_name": "DL-\u4eae\u6c28\u9178", "en_name": ["Leucine", "Leucine", "Leucine, DL-", "DL-Leucine", "(\u00b1)-Leucine", "(RS)-Leucine", "NSC 9252", "2-Amino-4-methylpentanoic acid"], "SMILES": "C(CC(C)C)(C(O)=O)N", "physical_data": {"Molecular Weight": "131.17", "Molecular Formula": "C6H13NO2", "Melting Point": "293 \u00b0C"}}