{"cas_no": "328-42-7", "cn_name": "\u8349\u9170\u4e59\u9178", "en_name": ["Oxaloacetic acid", "Butanedioic acid, 2-oxo-", "Butanedioic acid, oxo-", "Oxalacetic acid", "2-Oxobutanedioic acid", "Ketosuccinic acid", "OAA", "Oxaloacetic acid", "Oxosuccinic acid", "2-Ketosuccinic acid", "\u03b1-Ketosuccinic acid", "2-Oxosuccinic acid", "Oxaloethanoic acid", "NSC 284205", "NSC 77688"], "SMILES": "C(CC(O)=O)(C(O)=O)=O", "physical_data": {"Molecular Weight": "132.07", "Molecular Formula": "C4H4O5", "Melting Point": "161 \u00b0C (decomp)"}}