{"cas_no": "328-75-6", "cn_name": "3,5-\u4e8c\u4e09\u6c1f\u7532\u57fa\u785d\u57fa\u82ef", "en_name": ["1-Nitro-3,5-bis(trifluoromethyl)benzene", "Benzene, 1-nitro-3,5-bis(trifluoromethyl)-", "m-Xylene, \u03b1,\u03b1,\u03b1,\u03b1\u2032,\u03b1\u2032,\u03b1\u2032-hexafluoro-5-nitro-", "1-Nitro-3,5-bis(trifluoromethyl)benzene", "3,5-Bis(trifluoromethyl)nitrobenzene", "3,5-Di(trifluoromethyl)nitrobenzene", "1,3-Bis(trifluoromethyl)-5-nitrobenzene"], "SMILES": "C(F)(F)(F)C1=CC(C(F)(F)F)=CC(N(=O)=O)=C1", "physical_data": {"Molecular Weight": "259.11", "Molecular Formula": "C8H3F6NO2", "Boiling Point": "71-72 \u00b0C"}}