{"cas_no": "328-72-3", "cn_name": "3,5-\u4e8c\u4e09\u6c1f\u7532\u57fa\u6c2f\u82ef", "en_name": ["1-Chloro-3,5-bis(trifluoromethyl)benzene", "Benzene, 1-chloro-3,5-bis(trifluoromethyl)-", "1-Chloro-3,5-bis(trifluoromethyl)benzene", "3,5-Bis(trifluoromethyl)chlorobenzene", "5-Chloro-1,3-bis(trifluoromethyl)benzene"], "SMILES": "C(F)(F)(F)C1=CC(C(F)(F)F)=CC(Cl)=C1", "physical_data": {"Molecular Weight": "248.55", "Molecular Formula": "C8H3ClF6", "Boiling Point": "138 \u00b0C", "Melting Point": "-25 \u00b0C", "Density": "1.5 g/cm\u00b3"}}