{"cas_no": "328-74-5", "cn_name": "\u95f4\u4e8c(\u4e09\u6c1f\u7532\u57fa)\u82ef\u80fa", "en_name": ["3,5-Bis(trifluoromethyl)benzenamine", "Benzenamine, 3,5-bis(trifluoromethyl)-", "3,5-Xylidine, \u03b1,\u03b1,\u03b1,\u03b1\u2032,\u03b1\u2032,\u03b1\u2032-hexafluoro-", "3,5-Bis(trifluoromethyl)benzenamine", "3,5-Bis(trifluoromethyl)aniline", "\u03b1,\u03b1,\u03b1,\u03b1\u2032,\u03b1\u2032,\u03b1\u2032-Hexafluoro-3,5-xylidine", "3,5-Di(trifluoromethyl)aniline", "NSC 3411", "3,5-Bis(trifluoromethyl)phenylamine", "3,5-Di(trifluoromethyl)phenylamine", "Bis(trifluoromethyl)aniline"], "SMILES": "C(F)(F)(F)C1=CC(C(F)(F)F)=CC(N)=C1", "physical_data": {"Molecular Weight": "229.12", "Molecular Formula": "C8H5F6N", "Boiling Point": "85 \u00b0C", "Melting Point": "168.2-169.2 \u00b0C"}}