{"cas_no": "328-50-7", "cn_name": "a-\u916e\u620a\u4e8c\u9178", "en_name": ["2-Oxoglutaric acid", "Pentanedioic acid, 2-oxo-", "Glutaric acid, 2-oxo-", "2-Oxopentanedioic acid", "\u03b1-keto-Glutaric acid", "\u03b1-Oxoglutaric acid", "2-Oxoglutaric acid", "2-Oxo-1,5-pentanedioic acid", "2-Ketoglutaric acid", "\u03b1-Ketoglutaric acid", "\u03b1-Oxopentanedioic acid", "NSC 17391", "Aladdin K 105571"], "SMILES": "C(CCC(O)=O)(C(O)=O)=O", "physical_data": {"Molecular Weight": "146.10", "Molecular Formula": "C5H6O5", "Melting Point": "115.5 \u00b0C", "Density": "1.64 g/cm\u00b3"}}