{"cas_no": "328-80-3", "cn_name": "3-\u785d\u57fa-5-(\u4e09\u6c1f\u7532\u57fa)\u82ef\u7532\u9178", "en_name": ["3-Nitro-5-(trifluoromethyl)benzoic acid", "Benzoic acid, 3-nitro-5-(trifluoromethyl)-", "m-Toluic acid, \u03b1,\u03b1,\u03b1-trifluoro-5-nitro-", "3-Nitro-5-(trifluoromethyl)benzoic acid", "5-Trifluoromethyl-3-nitrobenzoic acid"], "SMILES": "C(F)(F)(F)C1=CC(C(O)=O)=CC(N(=O)=O)=C1", "physical_data": {"Molecular Weight": "235.12", "Molecular Formula": "C8H4F3NO4", "Melting Point": "127-129 \u00b0C"}}