{"cas_no": "328023-11-6", "cn_name": "RBIN-1", "en_name": ["3-[(2-Methyl-2-propen-1-yl)thio]-5H-1,2,4-triazino[5,6-b]indole", "5H-1,2,4-Triazino[5,6-b]indole, 3-[(2-methyl-2-propen-1-yl)thio]-", "2H-1,2,4-Triazino[5,6-b]indole, 3-[(2-methyl-2-propenyl)thio]-", "3-[(2-Methyl-2-propen-1-yl)thio]-5H-1,2,4-triazino[5,6-b]indole", "Ribozinoindole-1", "3-[(2-Methylprop-2-en-1-yl)sulfanyl]-5H-[1,2,4]triazino[5,6-b]indole"], "SMILES": "S(CC(C)=C)C=1N=C2C(C=3C(N2)=CC=CC3)=NN1", "physical_data": {"Molecular Weight": "256.33", "Molecular Formula": "C13H12N4S", "Melting Point": "195-196 \u00b0C (decomp)"}}