{"cas_no": "32809-16-8", "cn_name": "\u8150\u9709\u5229", "en_name": ["Procymidone", "3-Azabicyclo[3.1.0]hexane-2,4-dione, 3-(3,5-dichlorophenyl)-1,5-dimethyl-", "1,2-Cyclopropanedicarboximide, N-(3,5-dichlorophenyl)-1,2-dimethyl-", "3-(3,5-Dichlorophenyl)-1,5-dimethyl-3-azabicyclo[3.1.0]hexane-2,4-dione", "1,2-Dimethyl-N-(3,5-dichlorophenyl)cyclopropanedicarboximide", "S 7131", "Sumilex", "Sumisclex", "Dicyclidine", "Procymidone", "Procymidor", "Procymidox", "Sialex", "Dicyclidine (pesticide)", "Sumilex 50WP", "Salithiex", "Kenolex", "Procilex"], "SMILES": "CC12C(C)(C1)C(=O)N(C2=O)C3=CC(Cl)=CC(Cl)=C3", "physical_data": {"Molecular Weight": "284.14", "Molecular Formula": "C13H11Cl2NO2", "Melting Point": "166 \u00b0C"}}