{"cas_no": "32807-28-6", "cn_name": "4-\u6c2f\u4e59\u9170\u4e59\u9178\u7532\u916f", "en_name": ["Methyl 4-chloroacetoacetate", "Butanoic acid, 4-chloro-3-oxo-, methyl ester", "Acetoacetic acid, 4-chloro-, methyl ester", "\u03b3-Chloroacetoacetic acid methyl ester", "Methyl \u03b3-chloroacetoacetate", "Methyl 4-chloroacetoacetate", "Methyl \u03c9-chloroacetoacetate", "Methyl 3-oxo-4-chlorobutanoate", "Methyl 4-chloro-3-oxobutyrate", "Methyl 4-chloro-3-oxobutanoate", "4-Chloro-3-oxobutanoic acid methyl ester", "4-Chloro-3-oxo-butyric acid methyl ester", "4-Chloroacetoacetic acid methyl ester", "Methyl (chloroacetyl)acetate"], "SMILES": "C(C(CCl)=O)C(OC)=O", "physical_data": {"Molecular Weight": "150.56", "Molecular Formula": "C5H7ClO3", "Boiling Point": "96-97 \u00b0C @ Press: 11 Torr", "Density": "1.3048 g/cm\u00b3 @ Temp: 40 \u00b0C"}}