{"cas_no": "32811-40-8", "cn_name": "\u53cd\u5f0f-3-(4-\u7f9f\u57fa-3-\u7532\u6c27\u57fa\u82ef\u57fa)-2-\u4e19\u70ef-1-\u9187", "en_name": ["trans-Coniferyl alcohol", "Phenol, 4-[(1E)-3-hydroxy-1-propen-1-yl]-2-methoxy-", "Phenol, 4-(3-hydroxy-1-propenyl)-2-methoxy-, (E)-", "2-Propen-1-ol, 3-(4-hydroxy-3-methoxyphenyl)-, (E)-", "Phenol, 4-[(1E)-3-hydroxy-1-propenyl]-2-methoxy-", "4-[(1E)-3-Hydroxy-1-propen-1-yl]-2-methoxyphenol", "trans-3-(4-Hydroxy-3-methoxyphenyl)-2-propen-1-ol", "trans-Coniferyl alcohol", "(E)-Coniferyl alcohol", "(E)-Coniferol", "4-[(E)-3-Hydroxy-1-propenyl]-2-methoxyphenol", "4-[(1E)-3-Hydroxy-1-propenyl]-2-methoxyphenol", "(E)-4-(3-Hydroxyprop-1-en-1-yl)-2-methoxyphenol"], "SMILES": "C(=CCO)C1=CC(OC)=C(O)C=C1", "physical_data": {"Molecular Weight": "180.20", "Molecular Formula": "C10H12O3", "Melting Point": "170-171 \u00b0C"}}