{"cas_no": "32828-81-2", "cn_name": "\u5421\u8003\u80fa", "en_name": ["Picotamide", "1,3-Benzenedicarboxamide, 4-methoxy-N1,N3-bis(3-pyridinylmethyl)-", "1,3-Benzenedicarboxamide, 4-methoxy-N,N\u2032-bis(3-pyridinylmethyl)-", "Isophthalamide, 4-methoxy-N,N\u2032-bis(3-pyridylmethyl)-", "4-Methoxy-N1,N3-bis(3-pyridinylmethyl)-1,3-benzenedicarboxamide", "G 137", "N,N\u2032-Bis(3-picolyl)-4-methoxyisophthalamide", "Picotamide"], "SMILES": "C(NCC=1C=CC=NC1)(=O)C2=C(OC)C=CC(C(NCC=3C=CC=NC3)=O)=C2", "physical_data": {"Molecular Weight": "376.41", "Molecular Formula": "C21H20N4O3", "Melting Point": "124 \u00b0C"}}