{"cas_no": "3282-56-2", "cn_name": "1-\u53d4\u4e01\u57fa-4-\u785d\u57fa\u82ef", "en_name": ["1-(1,1-Dimethylethyl)-4-nitrobenzene", "Benzene, 1-(1,1-dimethylethyl)-4-nitro-", "Benzene, 1-tert-butyl-4-nitro-", "1-(1,1-Dimethylethyl)-4-nitrobenzene", "p-tert-Butylnitrobenzene", "1-tert-Butyl-4-nitrobenzene", "4-tert-Butylnitrobenzene", "4-Nitro-tert-butylbenzene", "p-Nitro-tert-butylbenzene", "4-tert-Butyl-1-Nitrobenzene", "NSC 43040"], "SMILES": "C(C)(C)(C)C1=CC=C(N(=O)=O)C=C1", "physical_data": {"Molecular Weight": "179.22", "Molecular Formula": "C10H13NO2", "Boiling Point": "265-267 \u00b0C @ Press: 757 Torr", "Melting Point": "28-28.5 \u00b0C"}}