{"cas_no": "3282-73-3", "cn_name": "\u53cc\u5341\u4e8c\u70f7\u57fa\u4e8c\u7532\u57fa\u6eb4\u5316\u94f5", "en_name": ["Didodecyldimethylammonium bromide", "1-Dodecanaminium, N-dodecyl-N,N-dimethyl-, bromide (1:1)", "Ammonium, didodecyldimethyl-, bromide", "1-Dodecanaminium, N-dodecyl-N,N-dimethyl-, bromide", "Didodecyldimethylammonium bromide", "Dilauryldimethylammonium bromide", "Dimethyldidodecylammonium bromide", "Bis(dodecyl)dimethylammonium bromide", "Dimethyldilaurylammonium bromide", "Di-n-dodecyldimethylammonium bromide", "Bis(n-dodecyl)dimethylammonium bromide", "DDAB", "DMAB", "DDDMA"], "SMILES": "[N+](CCCCCCCCCCCC)(CCCCCCCCCCCC)(C)C.[Br-]", "physical_data": {"Molecular Weight": "", "Molecular Formula": "C26H56N.Br", "Melting Point": "54-55 \u00b0C"}}