{"cas_no": "3282-30-2", "cn_name": "\u7279\u620a\u9170\u6c2f", "en_name": ["Pivaloyl chloride", "Propanoyl chloride, 2,2-dimethyl-", "Pivaloyl chloride", "2,2-Dimethylpropanoyl chloride", "Trimethylacetyl chloride", "Neopentanoyl chloride", "2,2-Dimethylpropionyl chloride", "Pivalic acid chloride", "Pivalyl chloride", "Pivalolyl chloride", "2,2-Dimethylpropionic acid chloride", "tert-Butylcarbonyl chloride", "1,1-Dimethylethanecarbonyl chloride", "tert-Butyl chloro ketone", "2,2,2-Trimethylacetyl chloride", "Propanoic acid, 2,2-dimethyl-, anhydride with carbonochloridic acid"], "SMILES": "C(C(Cl)=O)(C)(C)C", "physical_data": {"Molecular Weight": "120.58", "Molecular Formula": "C5H9ClO", "Boiling Point": "107 \u00b0C", "Density": "1.003 g/cm\u00b3 @ Temp: 20 \u00b0C"}}