{"cas_no": "3282-99-3", "cn_name": "1,1-\u4e8c(4-\u6c28\u57fa\u82ef\u57fa)\u73af\u5df1\u70f7", "en_name": ["4,4\u2032-Cyclohexylidenebis[benzenamine]", "Benzenamine, 4,4\u2032-cyclohexylidenebis-", "Aniline, 4,4\u2032-cyclohexylidenedi-", "4,4\u2032-Cyclohexylidenebis[benzenamine]", "1,1-Bis(4-aminophenyl)cyclohexane", "4,4\u2032-Cyclohexylidenedianiline", "[4-[1-(4-Aminophenyl)cyclohexyl]phenyl]amine", "4,4\u2032-(Cyclohexane-1,1-diyl)dianiline"], "SMILES": "NC1=CC=C(C2(CCCCC2)C3=CC=C(N)C=C3)C=C1", "physical_data": {"Molecular Weight": "266.38", "Molecular Formula": "C18H22N2", "Melting Point": "114 \u00b0C"}}