{"cas_no": "3283-05-4", "cn_name": "N,N,N',N'-\u56db(\u5bf9\u785d\u57fa\u82ef\u57fa)\u5bf9\u82ef\u4e8c\u80fa", "en_name": ["N1,N1,N4,N4-Tetrakis(4-nitrophenyl)-1,4-benzenediamine", "1,4-Benzenediamine, N1,N1,N4,N4-tetrakis(4-nitrophenyl)-", "p-Phenylenediamine, N,N,N\u2032,N\u2032-tetrakis(p-nitrophenyl)-", "1,4-Benzenediamine, N,N,N\u2032,N\u2032-tetrakis(4-nitrophenyl)-", "N1,N1,N4,N4-Tetrakis(4-nitrophenyl)-1,4-benzenediamine", "N,N,N\u2032,N\u2032-Tetrakis(p-nitrophenyl)-p-phenylenediamine", "N,N,N\u2032,N\u2032-Tetrakis(4-nitrophenyl)-p-phenylenediamine", "1-N,1-N,4-N,4-N-Tetrakis(4-nitrophenyl)benzene-1,4-diamine"], "SMILES": "N(C1=CC=C(N(C2=CC=C(N(=O)=O)C=C2)C3=CC=C(N(=O)=O)C=C3)C=C1)(C4=CC=C(N(=O)=O)C=C4)C5=CC=C(N(=O)=O)C=C5", "physical_data": {"Molecular Weight": "592.52", "Molecular Formula": "C30H20N6O8", "Melting Point": "390-392 \u00b0C"}}