{"cas_no": "3283-12-3", "cn_name": "\u4e8c\u7532\u57fa\u78f7\u9178", "en_name": ["Dimethylphosphinic acid", "Phosphinic acid, P,P-dimethyl-", "Phosphinic acid, dimethyl-", "P,P-Dimethylphosphinic acid", "Dimethylphosphinic acid", "Hydroxydimethylphosphine oxide", "DMPA"], "SMILES": "P(C)(C)(=O)O", "physical_data": {"Molecular Weight": "94.05", "Molecular Formula": "C2H7O2P", "Boiling Point": "377 \u00b0C", "Melting Point": "92 \u00b0C"}}