{"cas_no": "32832-01-2", "cn_name": "\u80c6\u753e\u70ef\u57fa 2,4-\u4e8c\u6c2f\u82ef\u7532\u9178\u916f", "en_name": ["Cholesteryl 2,4-dichlorobenzoate", "Cholest-5-en-3-ol (3\u03b2)-, 3-(2,4-dichlorobenzoate)", "Cholesterol, 2,4-dichlorobenzoate", "Cholest-5-en-3-ol (3\u03b2)-, 2,4-dichlorobenzoate", "Cholesteryl 2,4-dichlorobenzoate"], "SMILES": "CC12C3C(C4C(C)(CC3)C(C(CCCC(C)C)C)CC4)CC=C1CC(OC(=O)C5=C(Cl)C=C(Cl)C=C5)CC2", "physical_data": {"Molecular Weight": "559.65", "Molecular Formula": "C34H48Cl2O2", "Melting Point": "133.7 \u00b0C"}}