{"cas_no": "32838-55-4", "cn_name": "2-\u82c4\u57fa\u54cc\u5576\u76d0\u9178\u76d0", "en_name": ["2-Benzylpiperidine", "Piperidine, 2-(phenylmethyl)-", "Piperidine, 2-benzyl-", "2-(Phenylmethyl)piperidine", "2-Benzylpiperidine"], "SMILES": "C(C1=CC=CC=C1)C2CCCCN2", "physical_data": {"Molecular Weight": "175.27", "Molecular Formula": "C12H17N", "Boiling Point": "267.5 \u00b0C", "Melting Point": "32 \u00b0C", "Density": "0.9740 g/cm\u00b3 @ Temp: 20 \u00b0C"}}