{"cas_no": "32844-27-2", "cn_name": "\u56db\u6eb4\u53cc\u915aA\u805a\u78b3\u9178\u916f", "en_name": ["Carbonic dichloride, polymer with 4,4\u2032-(1-methylethylidene)bis[2,6-dibromophenol] and 4,4\u2032-(1-methylethylidene)bis[phenol]", "Carbonic dichloride, polymer with 4,4\u2032-(1-methylethylidene)bis[2,6-dibromophenol] and 4,4\u2032-(1-methylethylidene)bis[phenol]", "Phosgene, polyester with 4,4\u2032-isopropylidenebis[2,6-dibromophenol] and 4,4\u2032-isopropylidenediphenol", "Phenol, 4,4\u2032-isopropylidenebis[2,6-dibromo-, polymer with 4,4\u2032-isopropylidenediphenol and phosgene", "Phenol, 4,4\u2032-isopropylidenedi-, polymer with 4,4\u2032-isopropylidenebis[2,6-dibromophenol] and phosgene", "Phenol, 4,4\u2032-(1-methylethylidene)bis[2,6-dibromo-, polymer with carbonic dichloride and 4,4\u2032-(1-methylethylidene)bis[phenol]", "Phenol, 4,4\u2032-(1-methylethylidene)bis-, polymer with carbonic dichloride and 4,4\u2032-(1-methylethylidene)bis[2,6-dibromophenol]", "Bisphenol A-phosgene-3,3\u2032,5,5\u2032-tetrabromobisphenol A copolymer", "Phosgene-bisphenol A-3,3\u2032,5,5\u2032-tetrabromobisphenol A copolymer", "Bisphenol A-2,2-(3,3\u2032,5,5\u2032-tetrabromo-4,4\u2032-dihydroxydiphenyl)propane-phosgene copolymer", "3,3\u2032,5,5\u2032-Tetrabromobisphenol A-bisphenol A-phosgene polymer", "Bisphenol A-phosgene-tetrabromobisphenol A copolymer", "2,2-Bis(3,5-dibromo-4-hydroxyphenyl)propane-bisphenol A-phosgene copolymer", "Bisphenol A-phosgene-tetrabromobisphenol A polymer", "2,2-Bis(4-hydroxyphenyl)propane-phosgene-2,2-(3,5,3\u2032,5\u2032-tetrabromo-4,4\u2032-dihydroxydiphenyl)propane polymer", "2,2-Bis(4-hydroxy-3,5-dibromophenyl)propane-2,2-bis(4-hydroxyphenyl)propane-phosgene polymer", "2,2-Bis(3,5-dibromo-4-hydroxyphenyl)propane-bisphenol A-phosgene polymer", "Bisphenol A-phosgene-3,3\u2032,5,5\u2032-tetrabromobisphenol A polymer", "4,4\u2032-Isopropylidenebis(2,6-dibromophenol)-4,4\u2032-isopropylidenediphenol-phosgene polymer", "2,2-Bis(4-hydroxyphenyl)propane-2,2-bis(4-hydroxy-3,5-dibromophenyl)propane-phosgene polymer", "2,2-Bis(4-hydroxyphenyl)propane-2,2-bis(4-hydroxy-3,5-dibromophenyl)propane-phosgene copolymer", "2,2-Bis(4\u2032-hydroxyphenyl)propane-2,2-bis(3\u2032,5\u2032-dibromo-4\u2032-hydroxyphenyl)propane-phosgene copolymer", "Bisphenol A-phosgene-2,2-(3,3\u2032,5,5\u2032-tetrabromo-4,4\u2032-dihydroxydiphenyl)propane polymer", "2,2-Bis(4-hydroxyphenyl)propane-2,2-bis(3,3\u2032,5,5\u2032-tetrabromo-4,4\u2032-dihydroxydiphenyl)propane-phosgene copolymer", "Bisphenol A-2,2-bis(3,5-dibromo-4-hydroxyphenyl)propane-phosgene polymer", "2,2-Bis(4-hydroxy-3,5-dibromophenyl)propane-bis(4-hydroxyphenyl)propane-phosgene copolymer", "Lexan RL 1624", "TB 50", "TB 50 (polycarbonate)", "4,4\u2032-(1-Methylethylidene)bis[2,6-dibromophenol]-4,4\u2032-(1-methylethylidene)bis[phenol]-poly[oxycarbonyloxy-1,4-phenylene(1-methylethylidene)-1,4-phenylene] copolymer", "4,4\u2032-(1-Methylethylidene)bis[phenol]-4,4\u2032-(1-methylethylidene)bis[2,6-dibromophenol]-poly[oxycarbonyloxy-1,4-phenylene(1-methylethylidene)-1,4-phenylene] copolymer"], "SMILES": "C(Cl)(Cl)=O.C(C)(C)(C1=CC(Br)=C(O)C(Br)=C1)C2=CC(Br)=C(O)C(Br)=C2.C(C)(C)(C1=CC=C(O)C=C1)C2=CC=C(O)C=C2", "physical_data": {"Molecular Weight": "", "Molecular Formula": "(C15H16O2.C15H12Br4O2.CCl2O)x", "Melting Point": "140-150 \u00b0C", "Density": "0.76 g/cm\u00b3"}}