{"cas_no": "3284-79-5", "cn_name": "3-(\u5bf9\u6c2f\u82ef\u6c27\u57fa)\u4e19\u9178", "en_name": ["3-(4-Chlorophenoxy)propanoic acid", "Propanoic acid, 3-(4-chlorophenoxy)-", "Propionic acid, 3-(p-chlorophenoxy)-", "3-(4-Chlorophenoxy)propanoic acid", "\u03b2-(4-Chlorophenoxy)propionic acid", "3-(p-Chlorophenoxy)propionic acid", "3-(4-Chlorophenoxy)propionic acid", "NSC 48113"], "SMILES": "O(CCC(O)=O)C1=CC=C(Cl)C=C1", "physical_data": {"Molecular Weight": "200.62", "Molecular Formula": "C9H9ClO3", "Melting Point": "138-139 \u00b0C"}}