{"cas_no": "3284-51-3", "cn_name": "5-\u7532\u57fa-1H-\u5421\u54af-2-\u7532\u9178\u4e59\u916f", "en_name": ["1H-Pyrrole-2-carboxylic acid, 5-methyl-, ethyl ester", "1H-Pyrrole-2-carboxylic acid, 5-methyl-, ethyl ester", "Pyrrole-2-carboxylic acid, 5-methyl-, ethyl ester", "Ethyl 5-methylpyrrole-2-carboxylate", "NSC 81362", "5-Methyl-1H-pyrrole-2-carboxylic acid ethyl ester", "Ethyl 5-methyl-1H-pyrrole-2-carboxylate"], "SMILES": "C(OCC)(=O)C1=CC=C(C)N1", "physical_data": {"Molecular Weight": "153.18", "Molecular Formula": "C8H11NO2", "Melting Point": "100 \u00b0C"}}