{"cas_no": "32857-62-8", "cn_name": "4-\u4e09\u6c1f\u7532\u57fa\u82ef\u4e59\u9178", "en_name": ["4-(Trifluoromethyl)benzeneacetic acid", "Benzeneacetic acid, 4-(trifluoromethyl)-", "Acetic acid, (\u03b1,\u03b1,\u03b1-trifluoro-p-tolyl)-", "4-(Trifluoromethyl)benzeneacetic acid", "(\u03b1,\u03b1,\u03b1-Trifluoro-p-tolyl)acetic acid", "p-(Trifluoromethyl)phenylacetic acid", "2-(4-Trifluoromethylphenyl)acetic acid"], "SMILES": "C(F)(F)(F)C1=CC=C(CC(O)=O)C=C1", "physical_data": {"Molecular Weight": "204.15", "Molecular Formula": "C9H7F3O2", "Melting Point": "83-85 \u00b0C"}}