{"cas_no": "32854-75-4", "cn_name": "\u523a\u4e4c\u5934\u78b1", "en_name": ["Lappaconitine", "Aconitane-4,8,9-triol, 20-ethyl-1,14,16-trimethoxy-, 4-[2-(acetylamino)benzoate], (1\u03b1,14\u03b1,16\u03b2)-", "Lappaconitine", "2H-12,3,6a-Ethanylylidene-7,9-methanonaphth[2,3-b]azocine, aconitane-4,8,9-triol deriv.", "(+)-Lappaconitine", "Acetyl-10-deoxysepaconitine", "Lappacontine"], "SMILES": "O(C)C1C23C4C(OC(=O)C5=C(NC(C)=O)C=CC=C5)(CN(CC)C2C(C4)C6(O)C7(O)C3CC(C7OC)C(OC)C6)CC1", "physical_data": {"Molecular Weight": "584.70", "Molecular Formula": "C32H44N2O8", "Melting Point": "226-227 \u00b0C"}}