{"cas_no": "32857-63-9", "cn_name": "4-\u53d4\u4e01\u57fa\u82ef\u4e59\u9178", "en_name": ["4-(1,1-Dimethylethyl)benzeneacetic acid", "Benzeneacetic acid, 4-(1,1-dimethylethyl)-", "Acetic acid, (p-tert-butylphenyl)-", "4-(1,1-Dimethylethyl)benzeneacetic acid", "(p-tert-Butylphenyl)acetic acid", "(4-tert-Butylphenyl)acetic acid", "4-tert-Butylbenzeneacetic acid", "BTS 10335", "2-(4-tert-Butylphenyl)acetic acid", "4-Tert-butylphenylacetic acid"], "SMILES": "C(C)(C)(C)C1=CC=C(CC(O)=O)C=C1", "physical_data": {"Molecular Weight": "192.25", "Molecular Formula": "C12H16O2", "Melting Point": "79-80 \u00b0C"}}