{"cas_no": "3286-46-2", "cn_name": "\u8212\u5e03\u786b\u80fa", "en_name": ["Sulbutiamine", "Propanoic acid, 2-methyl-, 1,1\u2032-[dithiobis[3-[1-[[(4-amino-2-methyl-5-pyrimidinyl)methyl]formylamino]ethylidene]-3,1-propanediyl]] ester", "Isobutyric acid, diester with N,N\u2032-[dithiobis[2-(2-hydroxyethyl)-1-methylvinylene]]bis[N-[(4-amino-2-methyl-5-pyrimidinyl)methyl]formamide]", "Propanoic acid, 2-methyl-, dithiobis[3-[1-[[(4-amino-2-methyl-5-pyrimidinyl)methyl]formylamino]ethylidene]-3,1-propanediyl] ester", "Formamide, N,N\u2032-[dithiobis[2-(2-hydroxyethyl)-1-methylvinylene]]bis[N-[(4-amino-2-methyl-5-pyrimidinyl)methyl]-, diisobutyrate (ester)", "O-Isobutyroylthiamine disulfide", "O-Isobutyrylthiamine disulfide", "Vitaberin", "Sulbutiamine", "Bisibutiamine", "Arcalion Forte", "Bisibuthiamine"], "SMILES": "C(=C(N(CC=1C(N)=NC(C)=NC1)C=O)C)(SSC(=C(N(CC=2C(N)=NC(C)=NC2)C=O)C)CCOC(C(C)C)=O)CCOC(C(C)C)=O", "physical_data": {"Molecular Weight": "702.89", "Molecular Formula": "C32H46N8O6S2", "Melting Point": "140.5-141.5 \u00b0C"}}