{"cas_no": "32864-38-3", "cn_name": "\u4e19\u4e8c\u9178\u53d4\u4e01\u57fa\u4e59\u916f", "en_name": ["1-(1,1-Dimethylethyl) 3-ethyl propanedioate", "Propanedioic acid, 1-(1,1-dimethylethyl) 3-ethyl ester", "Malonic acid, tert-butyl ethyl ester", "Propanedioic acid, 1,1-dimethylethyl ethyl ester", "1-(1,1-Dimethylethyl) 3-ethyl propanedioate", "tert-Butyl ethyl malonate", "Ethyl tert-butyl malonate", "NSC 69070", "Ethyl (2-tert-butoxycarbonyl)acetate", "Ethyl 3-(tert-butoxy)-3-oxopropanoate", "Ethyl tert-butyl malonate", "tert-Butyl ethyl propanedioate", "Malonic acid tert-butyl ethyl ester", "1-tert-Butyl 3-ethyl propanedioate", "3-O-tert-Butyl 1-O-ethyl propanedioate"], "SMILES": "C(C(OC(C)(C)C)=O)C(OCC)=O", "physical_data": {"Molecular Weight": "188.22", "Molecular Formula": "C9H16O4", "Boiling Point": "93-95 \u00b0C @ Press: 17 Torr"}}