{"cas_no": "32860-56-3", "cn_name": "ALPHA-\u73af\u7cca\u7cbe-6-\u5355\u7532\u82ef\u78fa\u9178\u916f", "en_name": ["6-O-Tosyl-\u03b1-cyclodextrin", "\u03b1-Cyclodextrin, 6A-(4-methylbenzenesulfonate)", "\u03b1-Cyclodextrin, 6-p-toluenesulfonate", "2,4,7,9,12,14,17,19,22,24,27,29-Dodecaoxaheptacyclo[26.2.2.23,6.28,11.213,16.218,21.223,26]dotetracontane, \u03b1-cyclodextrin deriv.", "6-O-Tosyl-\u03b1-cyclodextrin", "Mono-6-O-p-toluenesulfonyl-\u03b1-cyclodextrin"], "SMILES": "C(OS(=O)(=O)C1=CC=C(C)C=C1)C2C3OC4OC(CO)C(C(O)C4O)OC5OC(CO)C(C(O)C5O)OC6OC(CO)C(OC7OC(CO)C(OC8OC(CO)C(OC(O2)C(O)C3O)C(O)C8O)C(O)C7O)C(O)C6O", "physical_data": {"Molecular Weight": "1127.03", "Molecular Formula": "C43H66O32S", "Melting Point": "221-225 \u00b0C"}}