{"cas_no": "32862-97-8", "cn_name": "3-\u6eb4\u8089\u6842\u9178", "en_name": ["3-(3-Bromophenyl)-2-propenoic acid", "2-Propenoic acid, 3-(3-bromophenyl)-", "Cinnamic acid, m-bromo-", "3-(3-Bromophenyl)-2-propenoic acid", "m-Bromocinnamic acid", "3-Bromocinnamic acid", "NSC 102779", "3-(3-Bromophenyl)acrylic acid"], "SMILES": "C(=CC(O)=O)C1=CC(Br)=CC=C1", "physical_data": {"Molecular Weight": "227.05", "Molecular Formula": "C9H7BrO2", "Melting Point": "177-179 \u00b0C"}}