{"cas_no": "32873-56-6", "cn_name": "2-\u4e59\u9170\u6c28\u57fa-5-\u5def\u57fa-1,3,4-\u567b\u4e8c\u5511", "en_name": ["2-Acetylamino-5-mercapto-1,3,4-thiadiazole", "Acetamide, N-(4,5-dihydro-5-thioxo-1,3,4-thiadiazol-2-yl)-", "Acetamide, N-(5-mercapto-1,3,4-thiadiazol-2-yl)-", "1,3,4-Thiadiazole-2-thiol, 5-acetamido-", "N-(4,5-Dihydro-5-thioxo-1,3,4-thiadiazol-2-yl)acetamide", "2-Acetamido-5-mercapto-1,3,4-thiadiazole", "5-Acetylamino-1,3,4-thiadiazoline-2-thione", "2-Acetylamino-5-mercapto-1,3,4-thiadiazole", "2-(Acetylamino)-1,3,4-thiadiazol-5-mercaptan", "NSC 97893"], "SMILES": "N(C(C)=O)C=1SC(=S)NN1", "physical_data": {"Molecular Weight": "175.23", "Molecular Formula": "C4H5N3OS2", "Melting Point": "208-210 \u00b0C (decomp)"}}