{"cas_no": "3287-99-8", "cn_name": "\u82ef\u7532\u80fa\u76d0\u9178\u76d0", "en_name": ["Benzylammonium chloride", "Benzenemethanamine, hydrochloride (1:1)", "Benzylamine, hydrochloride", "Benzenemethanamine, hydrochloride", "Benzylammonium chloride", "Phenylmethanamine hydrochloride"], "SMILES": "C(N)C1=CC=CC=C1.Cl", "physical_data": {"Molecular Weight": "", "Molecular Formula": "C7H9N.ClH", "Melting Point": "262-263 \u00b0C"}}