{"cas_no": "32886-97-8", "cn_name": "\u5339\u7f8e\u897f\u6797", "en_name": ["Pivmecillinam", "4-Thia-1-azabicyclo[3.2.0]heptane-2-carboxylic acid, 6-[[(hexahydro-1H-azepin-1-yl)methylene]amino]-3,3-dimethyl-7-oxo-, (2,2-dimethyl-1-oxopropoxy)methyl ester, (2S,5R,6R)-", "4-Thia-1-azabicyclo[3.2.0]heptane-2-carboxylic acid, 6-[[(hexahydro-1H-azepin-1-yl)methylene]amino]-3,3-dimethyl-7-oxo-, hydroxymethyl ester pivalate (ester), (+)-", "4-Thia-1-azabicyclo[3.2.0]heptane-2-carboxylic acid, 6-[[(hexahydro-1H-azepin-1-yl)methylene]amino]-3,3-dimethyl-7-oxo-, (2,2-dimethyl-1-oxopropoxy)methyl ester, [2S-(2\u03b1,5\u03b1,6\u03b2)]-", "FL 1039", "Pivmecillinam", "Amdinocillin pivoxil", "Pivamdinocillin"], "SMILES": "C(OCOC(C(C)(C)C)=O)(=O)C1N2C(C(N=CN3CCCCCC3)C2=O)SC1(C)C", "physical_data": {"Molecular Weight": "439.57", "Molecular Formula": "C21H33N3O5S", "Melting Point": "119 \u00b0C"}}