{"cas_no": "32887-01-7", "cn_name": "\u7f8e\u897f\u6797", "en_name": ["Mecillinam", "4-Thia-1-azabicyclo[3.2.0]heptane-2-carboxylic acid, 6-[[(hexahydro-1H-azepin-1-yl)methylene]amino]-3,3-dimethyl-7-oxo-, (2S,5R,6R)-", "4-Thia-1-azabicyclo[3.2.0]heptane-2-carboxylic acid, 6-[[(hexahydro-1H-azepin-1-yl)methylene]amino]-3,3-dimethyl-7-oxo-, [2S-(2\u03b1,5\u03b1,6\u03b2)]-", "4-Thia-1-azabicyclo[3.2.0]heptane-2-carboxylic acid, 6-[[(hexahydro-1H-azepin-1-yl)methylene]amino]-3,3-dimethyl-7-oxo-, (+)-", "(2S,5R,6R)-6-[[(Hexahydro-1H-azepin-1-yl)methylene]amino]-3,3-dimethyl-7-oxo-4-thia-1-azabicyclo[3.2.0]heptane-2-carboxylic acid", "6\u03b2-[(Hexahydro-1H-azepin-1-yl)methyleneamino]penicillanic acid", "FL 1060", "6-[[(Hexahydro-1H-azepin-1-yl)methylene]amino]penicillanic acid", "Mecillinam", "Penicillin Hx", "Hexacillin", "Amdinocillin", "Hexapen", "Coactin"], "SMILES": "C(O)(=O)C1N2C(C(N=CN3CCCCCC3)C2=O)SC1(C)C", "physical_data": {"Molecular Weight": "325.43", "Molecular Formula": "C15H23N3O3S", "Melting Point": "156 \u00b0C (decomp)"}}