{"cas_no": "32884-36-9", "cn_name": "2',4',5-\u4e09\u7f9f\u57fa-7-\u7532\u6c27\u57fa\u5f02\u9ec4\u916e", "en_name": ["Cajanin", "4H-1-Benzopyran-4-one, 3-(2,4-dihydroxyphenyl)-5-hydroxy-7-methoxy-", "Isoflavone, 2\u2032,4\u2032,5-trihydroxy-7-methoxy-", "3-(2,4-Dihydroxyphenyl)-5-hydroxy-7-methoxy-4H-1-benzopyran-4-one", "Cajanin"], "SMILES": "O=C1C=2C(=CC(OC)=CC2O)OC=C1C3=C(O)C=C(O)C=C3", "physical_data": {"Molecular Weight": "300.26", "Molecular Formula": "C16H12O6", "Melting Point": "208-210 \u00b0C"}}