{"cas_no": "3288-99-1", "cn_name": "\u5bf9\u53d4\u4e01\u57fa\u6c30\u82c4", "en_name": ["(4-tert-Butylphenyl)acetonitrile", "Benzeneacetonitrile, 4-(1,1-dimethylethyl)-", "Acetonitrile, (p-tert-butylphenyl)-", "4-(1,1-Dimethylethyl)benzeneacetonitrile", "p-tert-Butylbenzyl cyanide", "(p-tert-Butylphenyl)acetonitrile", "4-tert-Butylbenzyl cyanide", "(4-tert-Butylphenyl)acetonitrile", "NSC 85354", "2-[4-(tert-Butyl)phenyl]ethanenitrile", "2-(4-tert-Butylphenyl)acetonitrile"], "SMILES": "C(C)(C)(C)C1=CC=C(CC#N)C=C1", "physical_data": {"Molecular Weight": "173.25", "Molecular Formula": "C12H15N", "Boiling Point": "141-142 \u00b0C"}}