{"cas_no": "32890-94-1", "cn_name": "2-\u6c1f-6-(\u4e09\u6c1f\u7532\u57fa)\u82ef\u7532\u9178", "en_name": ["2-Fluoro-6-(trifluoromethyl)benzoic acid", "Benzoic acid, 2-fluoro-6-(trifluoromethyl)-", "o-Toluic acid, \u03b1,\u03b1,\u03b1,6-tetrafluoro-", "2-Fluoro-6-(trifluoromethyl)benzoic acid", "6-Fluoro-2-(trifluoromethyl)benzoic acid", "\u03b1,\u03b1,\u03b1,6-Tetrafluoro-o-toluic acid"], "SMILES": "C(O)(=O)C1=C(C(F)(F)F)C=CC=C1F", "physical_data": {"Molecular Weight": "208.11", "Molecular Formula": "C8H4F4O2", "Melting Point": "83 \u00b0C"}}