{"cas_no": "3289-50-7", "cn_name": "4-\u6c28\u57fa-2,6-\u4e8c\u7532\u6c27\u57fa\u5627\u5576", "en_name": ["2,6-Dimethoxy-4-pyrimidinamine", "4-Pyrimidinamine, 2,6-dimethoxy-", "Pyrimidine, 4-amino-2,6-dimethoxy-", "2,6-Dimethoxy-4-pyrimidinamine", "2,6-Dimethoxy-4-aminopyrimidine", "4-Amino-2,6-dimethoxypyrimidine", "NSC 166290", "(2,6-Dimethoxypyrimidin-4-yl)amine"], "SMILES": "O(C)C1=NC(OC)=NC(N)=C1", "physical_data": {"Molecular Weight": "155.15", "Molecular Formula": "C6H9N3O2", "Melting Point": "110-140 \u00b0C"}}