{"cas_no": "32899-41-5", "cn_name": "L-ALPHA-PALMITIN", "en_name": ["1-Palmitoyl-sn-glycerol", "Hexadecanoic acid, (2S)-2,3-dihydroxypropyl ester", "Hexadecanoic acid, 2,3-dihydroxypropyl ester, (S)-", "Palmitin, 1-mono-, L-", "1-Palmitoyl-sn-glycerol", "(-)-\u03b1-Palmitin", "1-Palmitoyl-sn-glycerol", "1-Glyceryl palmitate"], "SMILES": "C(C(OCC(CO)O)=O)CCCCCCCCCCCCCC", "physical_data": {"Molecular Weight": "", "Molecular Formula": "C19H38O4", "Melting Point": "68-70 \u00b0C"}}