{"cas_no": "3289-47-2", "cn_name": "4-\u6c28\u57fa-2-\u7532\u6c27\u57fa\u5627\u5576", "en_name": ["2-O-Methylcytosine", "4-Pyrimidinamine, 2-methoxy-", "Pyrimidine, 4-amino-2-methoxy-", "2-Methoxy-4-pyrimidinamine", "2-Methoxycytosine", "4-Amino-2-methoxypyrimidine", "2-O-Methylcytosine"], "SMILES": "O(C)C=1N=C(N)C=CN1", "physical_data": {"Molecular Weight": "125.13", "Molecular Formula": "C5H7N3O", "Melting Point": "174 \u00b0C"}}