{"cas_no": "328947-93-9", "cn_name": "LGD-2226", "en_name": ["LGD 2226", "2(1H)-Quinolinone, 6-[bis(2,2,2-trifluoroethyl)amino]-4-(trifluoromethyl)-", "6-[Bis(2,2,2-trifluoroethyl)amino]-4-(trifluoromethyl)-2(1H)-quinolinone", "LGD 2226"], "SMILES": "C(F)(F)(F)C=1C=2C(=CC=C(N(CC(F)(F)F)CC(F)(F)F)C2)NC(=O)C1", "physical_data": {"Molecular Weight": "392.22", "Molecular Formula": "C14H9F9N2O", "Melting Point": "188-190 \u00b0C"}}