{"cas_no": "3289-28-9", "cn_name": "\u73af\u5df1\u7532\u9178\u4e59\u916f", "en_name": ["Ethyl cyclohexanecarboxylate", "Cyclohexanecarboxylic acid, ethyl ester", "Ethyl cyclohexanecarboxylate", "Ethyl cyclohexylcarboxylate", "Ethoxycarbonylcyclohexane", "Ethyl cyclohexanoate", "NSC 5298"], "SMILES": "C(OCC)(=O)C1CCCCC1", "physical_data": {"Molecular Weight": "156.22", "Molecular Formula": "C9H16O2", "Boiling Point": "196 \u00b0C", "Melting Point": "120 \u00b0C", "Density": "0.962 g/cm\u00b3 @ Temp: 20 \u00b0C"}}