{"cas_no": "328968-36-1", "cn_name": "C646", "en_name": ["4-[4-[[5-(4,5-Dimethyl-2-nitrophenyl)-2-furanyl]methylene]-4,5-dihydro-3-methyl-5-oxo-1H-pyrazol-1-yl]benzoic acid", "Benzoic acid, 4-[4-[[5-(4,5-dimethyl-2-nitrophenyl)-2-furanyl]methylene]-4,5-dihydro-3-methyl-5-oxo-1H-pyrazol-1-yl]-", "4-[4-[[5-(4,5-Dimethyl-2-nitrophenyl)-2-furanyl]methylene]-4,5-dihydro-3-methyl-5-oxo-1H-pyrazol-1-yl]benzoic acid", "C 646"], "SMILES": "N(=O)(=O)C1=C(C=C(C)C(C)=C1)C=2OC(C=C3C(=O)N(N=C3C)C4=CC=C(C(O)=O)C=C4)=CC2", "physical_data": {"Molecular Weight": "445.42", "Molecular Formula": "C24H19N3O6", "Melting Point": "224-226 \u00b0C"}}