{"cas_no": "329-65-7", "cn_name": "\u6d88\u65cb\u80be\u4e0a\u817a\u7d20", "en_name": ["(\u00b1)-Adrenaline", "1,2-Benzenediol, 4-[1-hydroxy-2-(methylamino)ethyl]-", "Benzyl alcohol, 3,4-dihydroxy-\u03b1-[(methylamino)methyl]-, (\u00b1)-", "1,2-Benzenediol, 4-[1-hydroxy-2-(methylamino)ethyl]-, (\u00b1)-", "4-[1-Hydroxy-2-(methylamino)ethyl]-1,2-benzenediol", "Epirenamine", "(\u00b1)-Adrenaline", "dl-Epinephrine", "(\u00b1)-Epinephrine", "dl-Adrenaline", "DL-Adrenaline", "Racepinefrine", "2-(Methylamino)-1-(3,4-dihydroxyphenyl)ethanol", "1-(3,4-Dihydroxy)phenyl-2-methylaminoethanol", "Racepinephrine", "2-Hydroxy-4-[1-hydroxy-2-(methylazaniumyl)ethyl]phenolate", "MeSH ID: D064705"], "SMILES": "C(CNC)(O)C1=CC(O)=C(O)C=C1", "physical_data": {"Molecular Weight": "183.20", "Molecular Formula": "C9H13NO3", "Melting Point": "212 \u00b0C"}}