{"cas_no": "329-01-1", "cn_name": "3-(\u4e09\u6c1f\u7532\u57fa)\u5f02\u6c30\u9178\u82ef\u916f", "en_name": ["3-(Trifluoromethyl)phenyl isocyanate", "Benzene, 1-isocyanato-3-(trifluoromethyl)-", "Isocyanic acid, \u03b1,\u03b1,\u03b1-trifluoro-m-tolyl ester", "1-Isocyanato-3-(trifluoromethyl)benzene", "m-(Trifluoromethyl)phenyl isocyanate", "3-(Trifluoromethyl)phenyl isocyanate", "\u03b1,\u03b1,\u03b1-Trifluoro-3-tolyl isocyanate", "\u03b1,\u03b1,\u03b1-Trifluoro-m-tolyl isocyanate", "1-(Trifluoromethyl)-3-[isocyanato]benzene"], "SMILES": "C(F)(F)(F)C1=CC(N=C=O)=CC=C1", "physical_data": {"Molecular Weight": "187.12", "Molecular Formula": "C8H4F3NO", "Boiling Point": "54 \u00b0C @ Press: 11 Torr", "Density": "1.3455 g/cm\u00b3 @ Temp: 20 \u00b0C"}}