{"cas_no": "329-63-5", "cn_name": "\u80be\u4e0a\u817a\u7d20\u76d0\u9178\u76d0", "en_name": ["(\u00b1)-Epinephrine hydrochloride", "1,2-Benzenediol, 4-[1-hydroxy-2-(methylamino)ethyl]-, hydrochloride (1:1)", "Benzyl alcohol, 3,4-dihydroxy-\u03b1-[(methylamino)methyl]-, hydrochloride, (\u00b1)-", "1,2-Benzenediol, 4-[1-hydroxy-2-(methylamino)ethyl]-, hydrochloride, (\u00b1)-", "1,2-Benzenediol, 4-[1-hydroxy-2-(methylamino)ethyl]-, hydrochloride", "dl-Epinephrine hydrochloride", "(\u00b1)-Adrenaline hydrochloride", "dl-Adrenaline hydrochloride", "(\u00b1)-Epinephrine hydrochloride", "Vaponefrin", "Asthmanefrin", "Racepinephrine hydrochloride"], "SMILES": "C(CNC)(O)C1=CC(O)=C(O)C=C1.Cl", "physical_data": {"Molecular Weight": "", "Molecular Formula": "C9H13NO3.ClH", "Melting Point": "157 \u00b0C"}}