{"cas_no": "329-56-6", "cn_name": "\u53bb\u7532\u80be\u4e0a\u817a\u7d20\u76d0\u9178\u76d0", "en_name": ["(-)-Norepinephrine hydrochloride", "1,2-Benzenediol, 4-[(1R)-2-amino-1-hydroxyethyl]-, hydrochloride (1:1)", "Benzyl alcohol, \u03b1-(aminomethyl)-3,4-dihydroxy-, hydrochloride, (-)-", "1,2-Benzenediol, 4-(2-amino-1-hydroxyethyl)-, hydrochloride, (R)-", "1,2-Benzenediol, 4-[(1R)-2-amino-1-hydroxyethyl]-, hydrochloride", "Arterenol hydrochloride", "l-Arterenol hydrochloride", "Noradrenaline hydrochloride", "l-Noradrenaline hydrochloride", "Norepinephrine hydrochloride", "l-Norepinephrine hydrochloride", "(-)-Noradrenaline hydrochloride", "(-)-Norepinephrine hydrochloride", "R-(-)-Norepinephrine monohydrochloride", "R-(-)-Noradrenaline hydrochloride", "Aterenol"], "SMILES": "C(CN)(O)C1=CC(O)=C(O)C=C1.Cl", "physical_data": {"Molecular Weight": "", "Molecular Formula": "C8H11NO3.ClH", "Melting Point": "145.2-146.4 \u00b0C"}}