{"cas_no": "329-89-5", "cn_name": "6-\u6c28\u57fa\u70df\u9170\u80fa", "en_name": ["6-Aminonicotinamide", "3-Pyridinecarboxamide, 6-amino-", "Nicotinamide, 6-amino-", "6-Amino-3-pyridinecarboxamide", "6-Aminonicotinamide", "2-Amino-5-carbamoylpyridine", "SR 4388", "NSC 21206", "5-Aminocarbonyl-2-Aminopyridine", "6 AN", "MeSH ID: D015120"], "SMILES": "C(N)(=O)C=1C=CC(N)=NC1", "physical_data": {"Molecular Weight": "137.14", "Molecular Formula": "C6H7N3O", "Melting Point": "200 \u00b0C"}}