{"cas_no": "329-59-9", "cn_name": "4-\u6c1f-3-\u785d\u57fa\u82ef\u7532\u9178\u7532\u916f", "en_name": ["Methyl 4-fluoro-3-nitrobenzoate", "Benzoic acid, 4-fluoro-3-nitro-, methyl ester", "Methyl 4-fluoro-3-nitrobenzoate", "4-Fluoro-3-nitrobenzoic acid methyl ester", "3-Nitro-4-fluorobenzoic acid methyl ester"], "SMILES": "C(OC)(=O)C1=CC(N(=O)=O)=C(F)C=C1", "physical_data": {"Molecular Weight": "199.14", "Molecular Formula": "C8H6FNO4", "Boiling Point": "116-119 \u00b0C @ Press: 1 Torr", "Melting Point": "55-58 \u00b0C"}}