{"cas_no": "329-98-6", "cn_name": "\u82ef\u7532\u57fa\u78fa\u9170\u6c1f", "en_name": ["Phenylmethylsulfonyl fluoride", "Benzenemethanesulfonyl fluoride", "\u03b1-Toluenesulfonyl fluoride", "Phenylmethanesulfonyl fluoride", "Phenylmethylsulfonyl fluoride", "PMSF", "NSC 88499", "Benzylsulfonyl fluoride", "MeSH ID: D010664"], "SMILES": "C(S(F)(=O)=O)C1=CC=CC=C1", "physical_data": {"Molecular Weight": "174.19", "Molecular Formula": "C7H7FO2S", "Boiling Point": "146.2 \u00b0C @ Press: 83 Torr", "Melting Point": "90 \u00b0C"}}