{"cas_no": "329-15-7", "cn_name": "4-\u4e09\u6c1f\u7532\u57fa\u82ef\u7532\u9170\u6c2f", "en_name": ["4-(Trifluoromethyl)benzoyl chloride", "Benzoyl chloride, 4-(trifluoromethyl)-", "p-Toluoyl chloride, \u03b1,\u03b1,\u03b1-trifluoro-", "4-(Trifluoromethyl)benzoyl chloride", "p-Trifluoromethylbenzoic acid chloride", "\u03b1,\u03b1,\u03b1-Trifluoro-p-toluoyl chloride", "p-(Trifluoromethyl)benzoyl chloride", "4-(Trifluoromethyl)-1-benzenecarbonyl chloride", "NSC 88292", "4-Trifluoromethylphenylcarbonyl chloride", "4-(Trifluoromethyl)benzoic acid chloride", "p-Trifluoromethylchloroformic acid"], "SMILES": "C(F)(F)(F)C1=CC=C(C(Cl)=O)C=C1", "physical_data": {"Molecular Weight": "208.57", "Molecular Formula": "C8H4ClF3O", "Boiling Point": "74-75 \u00b0C @ Press: 12 Torr", "Melting Point": "64-65 \u00b0C", "Density": "1.4035 g/cm\u00b3 @ Temp: 20 \u00b0C"}}