{"cas_no": "329-71-5", "cn_name": "2,5-\u4e8c\u785d\u57fa\u82ef\u915a", "en_name": ["2,5-Dinitrophenol", "Phenol, 2,5-dinitro-", "2,5-Dinitrophenol", "2,5-DNP", "Phenol, \u03b3-dinitro-", "NSC 90441"], "SMILES": "N(=O)(=O)C1=CC(O)=C(N(=O)=O)C=C1", "physical_data": {"Molecular Weight": "184.11", "Molecular Formula": "C6H4N2O5", "Melting Point": "108 \u00b0C"}}