{"cas_no": "3290-92-4", "cn_name": "\u4e09\u7f9f\u7532\u57fa\u4e19\u70f7\u4e09\u7532\u57fa\u4e19\u70ef\u9178\u916f", "en_name": ["Trimethylolpropane trimethacrylate", "2-Propenoic acid, 2-methyl-, 1,1\u2032-[2-ethyl-2-[[(2-methyl-1-oxo-2-propen-1-yl)oxy]methyl]-1,3-propanediyl] ester", "Methacrylic acid, triester with 2-ethyl-2-(hydroxymethyl)-1,3-propanediol", "2-Propenoic acid, 2-methyl-, 2-ethyl-2-[[(2-methyl-1-oxo-2-propenyl)oxy]methyl]-1,3-propanediyl ester", "PTMA", "1,1,1-Trimethylolpropane trimethacrylate", "SR 350", "Chemlink 30", "TMPT", "Chemlink 3080", "Monocizer TD 1500", "ATM 11", "Saret 515", "Sartomer SR 350", "NK Ester M-TMPT", "Trimethylolpropane trimethacrylate", "NK Ester TMPT", "Hi-Cross M", "Sartomer 350", "Acryester TMP", "Perkalink 400", "TRIM (crosslinking agent)", "TRIM", "Light Ester TMP", "Blemmer PTT", "2-Ethyl-2-(hydroxymethyl)-1,3-propanediol trimethacrylate", "Perkalink 400-50D", "TD 1500", "TD 1500S", "Nourycryl M 36", "1,1,1-Tris(hydroxymethyl)propane trimethacrylate", "SR 350 (acrylate)", "Lumicure TMM 300", "Bisomer TMPTMA", "Saret 517", "Saret SR 517", "SR 517", "Akrosorb 9675", "Hi-Cross M-P", "NSC 84261", "NF Bisomer TMPTMA", "Ogumont T 200", "TMPTMA", "Ogmont T 200", "PL 400", "PL 400 (methacrylate)", "Saret 350", "Saret SR 350", "Etermer 331", "SR 517HP", "Hi-Cross MS 50", "SM 632", "SR 350J", "Luvomaxx TMPT-DL 75", "X 980 (methacrylate)", "X 980", "Miramer M 301", "EM 311", "Visiomer TMPTMA", "AS 1500S", "AS 1500", "Newfrontier NF Bisomer TMPTMA", "Ebecryl 267", "XL 60", "PL 400-70D", "TMPTM", "Actigran 70", "PL 500", "PL 500 (methacrylate)", "EM 331", "Newfrontier TMPTM", "Actigran SO 70", "2,2-Bis(2-methylprop-2-enoyloxymethyl)butyl 2-methylprop-2-enoate", "SR 350FF", "Laromer TMPTMA", "AV 13711", "SR 350NS", "SR 350D", "CY-D2", "TP 350", "Sartomer SR 350D"], "SMILES": "C(COC(C(C)=C)=O)(COC(C(C)=C)=O)(COC(C(C)=C)=O)CC", "physical_data": {"Molecular Weight": "338.40", "Molecular Formula": "C18H26O6", "Boiling Point": "220 \u00b0C", "Melting Point": "&lt;-10 \u00b0C"}}