{"cas_no": "3290-99-1", "cn_name": "\u5bf9\u7532\u6c27\u57fa\u82ef\u7532\u9170\u80bc", "en_name": ["4-Methoxybenzohydrazide", "Benzoic acid, 4-methoxy-, hydrazide", "p-Anisic acid, hydrazide", "Anisic acid hydrazide", "p-Methoxybenzoic acid hydrazide", "(p-Methoxybenzoyl)hydrazine", "p-Anisoylhydrazine", "(4-Methoxybenzoyl)hydrazine", "4-Methoxybenzoic acid hydrazide", "p-Methoxybenzoic hydrazide", "p-Methoxybenzoyl hydrazide", "p-Anisic hydrazide", "4-Methoxybenzohydrazide", "4-Methoxybenzhydrazide", "p-Anisoylhydrazide", "p-Methoxybenzohydrazide", "4-Methoxybenzoic hydrazide", "NSC 76223", "p-Methoxybenzhydrazide", "4-Methoxybenohydrazide", "Benzoic acid, 4-methoxy-, hydrazinyl ester"], "SMILES": "C(NN)(=O)C1=CC=C(OC)C=C1", "physical_data": {"Molecular Weight": "166.18", "Molecular Formula": "C8H10N2O2", "Melting Point": "135-136 \u00b0C"}}