{"cas_no": "32917-52-5", "cn_name": "1-(2,5-\u4e8c\u7532\u57fa\u82ef\u57fa)\u4e59\u9187", "en_name": ["\u03b1,2,5-Trimethylbenzenemethanol", "Benzenemethanol, \u03b1,2,5-trimethyl-", "Benzyl alcohol, \u03b1,2,5-trimethyl-", "\u03b1,2,5-Trimethylbenzenemethanol", "1-(2,5-Dimethylphenyl)ethanol", "\u03b1,2,5-Trimethylbenzyl alcohol", "2,5-Dimethylphenyl-methyl-carbinol", "1-(2,5-Dimethylphenyl)ethan-1-ol"], "SMILES": "C(C)(O)C1=C(C)C=CC(C)=C1", "physical_data": {"Molecular Weight": "150.22", "Molecular Formula": "C10H14O", "Boiling Point": "93-94 \u00b0C @ Press: 4 Torr", "Density": "0.987 g/cm\u00b3 @ Temp: 25 \u00b0C"}}