{"cas_no": "3291-03-0", "cn_name": "3,4,5-\u4e09\u7532\u6c27\u57fa\u82ef\u7532\u9170\u80bc", "en_name": ["3,4,5-Trimethoxybenzohydrazide", "Benzoic acid, 3,4,5-trimethoxy-, hydrazide", "3,4,5-Trimethoxybenzoic acid hydrazide", "3,4,5-Trimethoxybenzoic hydrazide", "(3,4,5-Trimethoxybenzoyl)hydrazine", "3,4,5-Trimethoxybenzohydrazide", "NSC 39075", "3,4,5-Trimethoxybenzoylhydrazide"], "SMILES": "O(C)C1=C(OC)C=C(C(NN)=O)C=C1OC", "physical_data": {"Molecular Weight": "226.23", "Molecular Formula": "C10H14N2O4", "Melting Point": "158-159 \u00b0C"}}