{"cas_no": "329187-59-9", "cn_name": "4-N[2(4,6-\u4e8c\u6c2f\u5421\u5576\u57fa)]-\u6c28\u57fa\u82ef\u8148", "en_name": ["4-[(4,6-Dichloro-2-pyrimidinyl)amino]benzonitrile", "Benzonitrile, 4-[(4,6-dichloro-2-pyrimidinyl)amino]-", "4-[(4,6-Dichloro-2-pyrimidinyl)amino]benzonitrile", "2-(4-Cyanophenylamino)-4,6-dichloropyrimidine"], "SMILES": "N(C=1N=C(Cl)C=C(Cl)N1)C2=CC=C(C#N)C=C2", "physical_data": {"Molecular Weight": "265.10", "Molecular Formula": "C11H6Cl2N4", "Melting Point": "114-116 \u00b0C"}}