{"cas_no": "3291-00-7", "cn_name": "\u6c34\u6768\u919b\u8159", "en_name": ["Salicylhydrazone", "Benzaldehyde, 2-hydroxy-, hydrazone", "Salicylaldehyde, hydrazone", "Salicylic aldehyde hydrazone", "2-Hydroxybenzaldehyde hydrazone", "Salicylhydrazone", "Salicylidene hydrazone", "Salzone", "N-(Aminoformimidoyl)phenol", "2-(Hydrazonomethyl)phenol"], "SMILES": "C(=NN)C1=C(O)C=CC=C1", "physical_data": {"Molecular Weight": "136.15", "Molecular Formula": "C7H8N2O", "Melting Point": "96 \u00b0C"}}