{"cas_no": "32911-62-9", "cn_name": "\u7761\u8304\u7d20A", "en_name": ["Withanolide A", "Ergosta-2,24-dien-26-oic acid, 6,7-epoxy-5,20,22-trihydroxy-1-oxo-, \u03b4-lactone, (5\u03b1,6\u03b1,7\u03b1,22R)-", "5\u03b1-Ergosta-2,24-dien-26-oic acid, 6\u03b1,7\u03b1-epoxy-5,20,22-trihydroxy-1-oxo-, \u03b4-lactone, (22R)-", "6,7-Epoxy-1H-cyclopenta[a]phenanthrene, ergosta-2,24-dien-26-oic acid deriv.", "5,20\u03b1-Dihydroxy-6\u03b1,7\u03b1-epoxy-1-oxowitha-2,24-dienolide", "Withaniol", "Withanolide A", "5\u03b1,20\u03b1F(R)-Dihydroxy-6\u03b1,7\u03b1-epoxy-1-oxowitha-2,24-dienolide"], "SMILES": "CC12C3C(C4C(O4)C1(O)CC=CC2=O)C5C(C)(CC3)C(C(C)(O)C6CC(C)=C(C)C(=O)O6)CC5", "physical_data": {"Molecular Weight": "470.60", "Molecular Formula": "C28H38O6", "Melting Point": "305 \u00b0C (decomp)"}}