{"cas_no": "329216-65-1", "cn_name": "\u594e\u786b\u5e73\u781c(HCL\u76d0)", "en_name": ["2-[2-[4-(5,5-Dioxidodibenzo[b,f][1,4]thiazepin-11-yl)-1-piperazinyl]ethoxy]ethanol", "Ethanol, 2-[2-[4-(5,5-dioxidodibenzo[b,f][1,4]thiazepin-11-yl)-1-piperazinyl]ethoxy]-", "2-[2-[4-(5,5-Dioxidodibenzo[b,f][1,4]thiazepin-11-yl)-1-piperazinyl]ethoxy]ethanol"], "SMILES": "O=S1(=O)C=2C(C(=NC=3C1=CC=CC3)N4CCN(CCOCCO)CC4)=CC=CC2", "physical_data": {"Molecular Weight": "415.51", "Molecular Formula": "C21H25N3O4S", "Melting Point": "168-169 \u00b0C"}}