{"cas_no": "329205-68-7", "cn_name": "3-[(2-\u7532\u57fa-1,3-\u567b\u5511-4-\u57fa)\u4e59\u7094\u57fa]\u5421\u5576", "en_name": ["3-[2-(2-Methyl-4-thiazolyl)ethynyl]pyridine", "Pyridine, 3-[2-(2-methyl-4-thiazolyl)ethynyl]-", "Pyridine, 3-[(2-methyl-4-thiazolyl)ethynyl]-", "3-[2-(2-Methyl-4-thiazolyl)ethynyl]pyridine", "MTEP", "3-[(2-Methyl-1,3-thiazol-4-yl)ethynyl]pyridine"], "SMILES": "C(#CC=1C=CC=NC1)C2=CSC(C)=N2", "physical_data": {"Molecular Weight": "200.26", "Molecular Formula": "C11H8N2S", "Melting Point": "78-79 \u00b0C"}}