{"cas_no": "32943-25-2", "cn_name": "3-\u6c2f\u4e9a\u6c28\u57fa\u4e8c\u82c4", "en_name": ["3-Chloroiminodibenzyl", "5H-Dibenz[b,f]azepine, 3-chloro-10,11-dihydro-", "3-Chloro-10,11-dihydro-5H-dibenz[b,f]azepine", "3-Chloroiminodibenzyl", "3-Chloro-10,11-dihydro-5H-dibenzo[b,f]azepine"], "SMILES": "ClC=1C=C2C(CCC=3C(N2)=CC=CC3)=CC1", "physical_data": {"Molecular Weight": "229.70", "Molecular Formula": "C14H12ClN", "Boiling Point": "116-121 \u00b0C @ Press: 0.09 Torr", "Melting Point": "87-89 \u00b0C"}}