{"cas_no": "32940-15-1", "cn_name": "5-\u7532\u6c27\u57fa-2-\u8418\u6ee1\u916e", "en_name": ["3,4-Dihydro-5-methoxy-2(1H)-naphthalenone", "2(1H)-Naphthalenone, 3,4-dihydro-5-methoxy-", "3,4-Dihydro-5-methoxy-2(1H)-naphthalenone", "5-Methoxy-2-tetralone", "5-Methoxy-3,4-dihydro-2(1H)-naphthalenone", "5-Methoxy-\u03b2-tetralone", "2-Oxo-5-methoxy-1,2,3,4-tetrahydronaphthalene", "NSC 88880", "5-Methoxytetralin-2-one"], "SMILES": "O(C)C1=C2C(CC(=O)CC2)=CC=C1", "physical_data": {"Molecular Weight": "176.21", "Molecular Formula": "C11H12O2", "Boiling Point": "120-122 \u00b0C @ Press: 0.4 Torr", "Melting Point": "35-37 \u00b0C"}}