{"cas_no": "3294-03-9", "cn_name": "2,2'-\u786b\u4ee3\u53cc(4-\u7279\u8f9b\u57fa\u82ef\u915a)", "en_name": ["2,2\u2032-Thiobis[4-(1,1,3,3-tetramethylbutyl)phenol]", "Phenol, 2,2\u2032-thiobis[4-(1,1,3,3-tetramethylbutyl)-", "2,2\u2032-Thiobis[4-(1,1,3,3-tetramethylbutyl)phenol]", "2,2\u2032-Dihydroxy-5,5\u2032-di-tert-octyldiphenyl sulfide", "2,2\u2032-Thiobis(4-tert-octylphenol)", "2,2\u2032-Thiobis(p-tert-octylphenol)", "Di[2-hydroxy-5-(tert-octyl)phenyl] sulfide", "2,2\u2032-Thiobis[4-(1,1,3,3-tetramethyl-butyl)phenol]", "2,2\u2032-Thiobis(4-tert-octylphenol)", "2,2\u2032-Thiodi(4-tert-octylphenol)"], "SMILES": "S(C1=CC(C(CC(C)(C)C)(C)C)=CC=C1O)C2=CC(C(CC(C)(C)C)(C)C)=CC=C2O", "physical_data": {"Molecular Weight": "442.70", "Molecular Formula": "C28H42O2S", "Melting Point": "132-134 \u00b0C"}}