{"cas_no": "32953-14-3", "cn_name": "N-\u4e59\u57fa\u80e1\u6912\u80fa", "en_name": ["N-Ethyl-1,3-benzodioxol-5-amine", "1,3-Benzodioxol-5-amine, N-ethyl-", "Aniline, N-ethyl-3,4-(methylenedioxy)-", "N-Ethyl-1,3-benzodioxol-5-amine", "3,4-Methylenedioxy-N-ethylaniline", "N-Ethyl-3,4-(methylenedioxy)aniline", "N-(1,3-Benzodioxol-5-yl)ethylamine"], "SMILES": "N(CC)C=1C=C2C(=CC1)OCO2", "physical_data": {"Molecular Weight": "165.19", "Molecular Formula": "C9H11NO2", "Boiling Point": "104 \u00b0C @ Press: 2 Torr"}}