{"cas_no": "329689-23-8", "cn_name": "MONASTROL", "en_name": ["(\u00b1)-Monastrol", "5-Pyrimidinecarboxylic acid, 1,2,3,4-tetrahydro-4-(3-hydroxyphenyl)-6-methyl-2-thioxo-, ethyl ester", "Ethyl 1,2,3,4-tetrahydro-4-(3-hydroxyphenyl)-6-methyl-2-thioxo-5-pyrimidinecarboxylate", "6-Methyl-4-(3-hydroxyphenyl)-2-thioxo-1,2,3,4-tetrahydropyrimidine-5-carboxylic acid ethyl ester", "(\u00b1)-Monastrol", "Ethyl 4-(3-hydroxyphenyl)-6-methyl-2-thioxo-1,2,3,4-tetrahydropyrimidine-5-carboxylate"], "SMILES": "C(OCC)(=O)C=1C(NC(=S)NC1C)C2=CC(O)=CC=C2", "physical_data": {"Molecular Weight": "292.35", "Molecular Formula": "C14H16N2O3S", "Melting Point": "184-186 \u00b0C"}}