{"cas_no": "3296-50-2", "cn_name": "\u53cd\u5f0f-\u516d\u6c22\u831a\u6ee1", "en_name": ["rel-(3aR,7aR)-Octahydro-1H-indene", "1H-Indene, octahydro-, (3aR,7aR)-rel-", "Indan, hexahydro-, trans-", "1H-Indene, octahydro-, trans-", "rel-(3aR,7aR)-Octahydro-1H-indene", "trans-Bicyclo[4.3.0]nonane", "trans-Hexahydroindan", "trans-Perhydroindene", "trans-Hydrindan"], "SMILES": "C12C(CCC1)CCCC2", "physical_data": {"Molecular Weight": "124.22", "Molecular Formula": "C9H16", "Boiling Point": "159 \u00b0C @ Press: 760 Torr", "Density": "0.8632 g/cm\u00b3 @ Temp: 20 \u00b0C"}}