{"cas_no": "3296-90-0", "cn_name": "\u4e8c\u6eb4\u65b0\u620a\u4e8c\u9187", "en_name": ["2,2-Bis(bromomethyl)-1,3-propanediol", "1,3-Propanediol, 2,2-bis(bromomethyl)-", "2,2-Bis(bromomethyl)-1,3-propanediol", "Pentaerythritol dibromide", "Dibromoneopentyl glycol", "2,2-Dibromomethyl-1,3-propanediol", "1,3-Dibromo-2,2-dimethylolpropane", "Pentaerythritol dibromohydrin", "FR 1138", "1,3-Dibromo-2,2-dihydroxymethylpropane", "FR 522", "NSC 9001", "1,3-Dibromo-2,2-bis(hydroxymethyl)propane"], "SMILES": "C(CBr)(CBr)(CO)CO", "physical_data": {"Molecular Weight": "261.94", "Molecular Formula": "C5H10Br2O2", "Melting Point": "111-113 \u00b0C"}}