{"cas_no": "329773-35-5", "cn_name": "CINACIGUAT", "en_name": ["4-[[(4-Carboxybutyl)[2-[2-[[4-(2-phenylethyl)phenyl]methoxy]phenyl]ethyl]amino]methyl]benzoic acid", "Benzoic acid, 4-[[(4-carboxybutyl)[2-[2-[[4-(2-phenylethyl)phenyl]methoxy]phenyl]ethyl]amino]methyl]-", "4-[[(4-Carboxybutyl)[2-[2-[[4-(2-phenylethyl)phenyl]methoxy]phenyl]ethyl]amino]methyl]benzoic acid", "BAY 58-2667", "Cinaciguat"], "SMILES": "O(CC1=CC=C(CCC2=CC=CC=C2)C=C1)C3=C(CCN(CC4=CC=C(C(O)=O)C=C4)CCCCC(O)=O)C=CC=C3", "physical_data": {"Molecular Weight": "565.70", "Molecular Formula": "C36H39NO5", "Melting Point": "148-153 \u00b0C"}}