{"cas_no": "32974-92-8", "cn_name": "2-\u4e59\u9170\u57fa-3-\u4e59\u57fa\u5421\u55ea", "en_name": ["2-Acetyl-3-ethylpyrazine", "Ethanone, 1-(3-ethyl-2-pyrazinyl)-", "Ethanone, 1-(3-ethylpyrazinyl)-", "1-(3-Ethyl-2-pyrazinyl)ethanone", "2-Acetyl-3-ethylpyrazine", "1-(3-Ethylpyrazin-2-yl)ethanone", "1-(3-Ethylpyrazin-2-yl)ethan-1-one"], "SMILES": "C(C)C=1C(C(C)=O)=NC=CN1", "physical_data": {"Molecular Weight": "150.18", "Molecular Formula": "C8H10N2O", "Boiling Point": "77 \u00b0C @ Press: 6 Torr"}}