{"cas_no": "32986-56-4", "cn_name": "\u59a5\u5e03\u9709\u7d20", "en_name": ["Tobramycin", "D-Streptamine, O-3-amino-3-deoxy-\u03b1-D-glucopyranosyl-(1\u21926)-O-[2,6-diamino-2,3,6-trideoxy-\u03b1-D-ribo-hexopyranosyl-(1\u21924)]-2-deoxy-", "O-3-Amino-3-deoxy-\u03b1-D-glucopyranosyl-(1\u21926)-O-[2,6-diamino-2,3,6-trideoxy-\u03b1-D-ribo-hexopyranosyl-(1\u21924)]-2-deoxy-D-streptamine", "Nebramycin factor 6", "Tobramycin", "3\u2032-Deoxykanamycin B", "Nebramycin 6", "Nebramycin VI", "Deoxykanamycin B", "Tobramycetin", "Tobramicin", "Tobralex", "Tobrex", "Tobramaxin", "NF 6", "Tobradistin", "Tobracin", "NSC 180514", "Tobramax", "Tobrin", "Vantobra", "Tobi Podhaler", "MeSH ID: D014031"], "SMILES": "O(C1C(O)C(OC2OC(CN)C(O)CC2N)C(N)CC1N)C3OC(CO)C(O)C(N)C3O", "physical_data": {"Molecular Weight": "467.51", "Molecular Formula": "C18H37N5O9", "Melting Point": "164 \u00b0C"}}