{"cas_no": "32981-85-4", "cn_name": "(2R,3S)-3-\u82ef\u7532\u9170\u6c28\u57fa-2-\u7f9f\u57fa-3-\u82ef\u57fa\u4e19\u9178\u7532\u916f", "en_name": ["(2R,3S)-N-Benzoyl-3-phenylisoserine methyl ester", "Benzenepropanoic acid, \u03b2-(benzoylamino)-\u03b1-hydroxy-, methyl ester, (\u03b1R,\u03b2S)-", "Isoserine, N-benzoyl-3-phenyl-, methyl ester, (2R,3S)-", "Benzenepropanoic acid, \u03b2-(benzoylamino)-\u03b1-hydroxy-, methyl ester, [R-(R*,S*)]-", "(2R,3S)-N-Benzoyl-3-phenylisoserine methyl ester", "Methyl (2R,3S)-N-benzoylphenylisoserinate", "Methyl (-)-(2R,3S)-3-benzoylamino-2-hydroxy-3-phenylpropionate", "(2R,3S)-Methyl 3-benzoylamino-2-hydroxy-3-phenylpropanoate", "LKT-T 0104"], "SMILES": "C(NC(=O)C1=CC=CC=C1)(C(C(OC)=O)O)C2=CC=CC=C2", "physical_data": {"Molecular Weight": "299.32", "Molecular Formula": "C17H17NO4", "Melting Point": "183-185 \u00b0C"}}