{"cas_no": "32980-26-0", "cn_name": "2,2-\u4e8c\u7532\u57fa\u7425\u73c0\u9178 1-\u7532\u916f", "en_name": ["1-Methyl 2,2-dimethylbutanedioate", "Butanedioic acid, 2,2-dimethyl-, 1-methyl ester", "Succinic acid, 2,2-dimethyl-, 1-methyl ester", "1-Methyl 2,2-dimethylbutanedioate", "3-Carbomethoxy-3-methylbutanoic acid", "1-Methyl 2,2-dimethylsuccinate", "2,2-Dimethylbutanedioic acid 1-methyl ester", "4-Methoxy-3,3-dimethyl-4-oxobutanoic acid"], "SMILES": "C(C(OC)=O)(CC(O)=O)(C)C", "physical_data": {"Molecular Weight": "160.17", "Molecular Formula": "C7H12O4", "Boiling Point": "104 \u00b0C @ Press: 1.5 Torr", "Melting Point": "37-41 \u00b0C"}}