{"cas_no": "32980-71-5", "cn_name": "\u56db\u6c2f\u5627\u5576\u5e76[5,4-D]\u5627\u5576", "en_name": ["2,4,6,8-Tetrachloropyrimido[5,4-d]pyrimidine", "Pyrimido[5,4-d]pyrimidine, 2,4,6,8-tetrachloro-", "Pyrimido[5,4-d]pyrimidine, tetrachloro-", "2,4,6,8-Tetrachloropyrimido[5,4-d]pyrimidine", "Tetrachloropyrimido[5,4-d]pyrimidine", "NSC 96654"], "SMILES": "ClC=1C2=C(N=C(Cl)N1)C(Cl)=NC(Cl)=N2", "physical_data": {"Molecular Weight": "269.90", "Molecular Formula": "C6Cl4N4", "Melting Point": "254-258 \u00b0C"}}