{"cas_no": "32981-86-5", "cn_name": "10-\u8131\u4e59\u9170\u57fa\u5df4\u5361\u4e01 III", "en_name": ["10-Deacetylbaccatin III", "7,11-Methano-5H-cyclodeca[3,4]benz[1,2-b]oxet-5-one, 12b-(acetyloxy)-12-(benzoyloxy)-1,2a,3,4,4a,6,9,10,11,12,12a,12b-dodecahydro-4,6,9,11-tetrahydroxy-4a,8,13,13-tetramethyl-, (2aR,4S,4aS,6R,9S,11S,12S,12aR,12bS)-", "Tax-11-en-9-one, 5\u03b2,20-epoxy-1,2\u03b1,4,7\u03b2,10\u03b2,13\u03b1-hexahydroxy-, 4-acetate 2-benzoate", "7,11-Methano-5H-cyclodeca[3,4]benz[1,2-b]oxet-5-one, 12b-(acetyloxy)-12-(benzoyloxy)-1,2a,3,4,4a,6,9,10,11,12,12a,12b-dodecahydro-4,6,9,11-tetrahydroxy-4a,8,13,13-tetramethyl-, [2aR-(2a\u03b1,4\u03b2,4a\u03b2,6\u03b2,9\u03b1,11\u03b1,12\u03b1,12a\u03b1,12b\u03b1)]-", "(2aR,4S,4aS,6R,9S,11S,12S,12aR,12bS)-12b-(Acetyloxy)-12-(benzoyloxy)-1,2a,3,4,4a,6,9,10,11,12,12a,12b-dodecahydro-4,6,9,11-tetrahydroxy-4a,8,13,13-tetramethyl-7,11-methano-5H-cyclodeca[3,4]benz[1,2-b]oxet-5-one", "10-Deacetylbaccatin III", "10-Desacetylbaccatin III", "NSC 251677", "10\u03b2-Deacetylbaccatin III", "10-Deacetylbaccatin"], "SMILES": "O(C(C)=O)C12C3C(OC(=O)C4=CC=CC=C4)C5(O)C(C)(C)C(C(O)C(=O)C3(C)C(O)CC1OC2)=C(C)C(O)C5", "physical_data": {"Molecular Weight": "544.59", "Molecular Formula": "C29H36O10", "Melting Point": "221-223 \u00b0C"}}