{"cas_no": "329974-09-6", "cn_name": "4-\u6eb4-2,6-\u4e8c\u6c28\u57fa\u5421\u5576", "en_name": ["4-Bromo-2,6-pyridinediamine", "2,6-Pyridinediamine, 4-bromo-", "4-Bromo-2,6-pyridinediamine", "4-Bromo-2,6-diaminopyridine", "2,6-Diamino-4-bromopyridine", "4-Bromopyridine-2,6-diamine"], "SMILES": "BrC=1C=C(N)N=C(N)C1", "physical_data": {"Molecular Weight": "188.03", "Molecular Formula": "C5H6BrN3", "Melting Point": "126 \u00b0C"}}