{"cas_no": "329976-74-1", "cn_name": "2-\u82ef\u4e59\u57fa\u4e09\u6c1f\u787c\u94be", "en_name": ["Borate(1-), trifluoro(2-phenylethyl)-, potassium (1:1), (T-4)-", "Borate(1-), trifluoro(2-phenylethyl)-, potassium (1:1), (T-4)-", "Borate(1-), trifluoro(2-phenylethyl)-, potassium, (T-4)-", "Potassium 2-phenethyltrifluoroborate", "Potassium (2-phenylethyl)trifluoroborate", "Potassium phenethyltrifluoroborate"], "SMILES": "C([CH2-][B+3]([F-])([F-])[F-])C1=CC=CC=C1.[K+]", "physical_data": {"Molecular Weight": "", "Molecular Formula": "C8H9BF3.K", "Melting Point": "305-312 \u00b0C"}}