{"cas_no": "32998-95-1", "cn_name": "N-T-BUTYL-3-METHYL PYRIDINE-2-CARBOXAMIDE", "en_name": ["N-(1,1-Dimethylethyl)-3-methyl-2-pyridinecarboxamide", "2-Pyridinecarboxamide, N-(1,1-dimethylethyl)-3-methyl-", "Picolinamide, N-tert-butyl-3-methyl-", "N-(1,1-Dimethylethyl)-3-methyl-2-pyridinecarboxamide", "N-(tert-Butyl)-3-methylpyridine-2-carboxamide"], "SMILES": "C(NC(C)(C)C)(=O)C1=C(C)C=CC=N1", "physical_data": {"Molecular Weight": "192.26", "Molecular Formula": "C11H16N2O", "Melting Point": "58.0 \u00b0C"}}