{"cas_no": "3299-38-5", "cn_name": "1-\u4e8c\u4e59\u57fa\u6c28-3-\u4e01\u916e", "en_name": ["4-(Diethylamino)-2-butanone", "2-Butanone, 4-(diethylamino)-", "4-(Diethylamino)-2-butanone", "4-(N,N-Diethylamino)butan-2-one", "1-(Diethylamino)-3-butanone", "NSC 28042"], "SMILES": "N(CCC(C)=O)(CC)CC", "physical_data": {"Molecular Weight": "143.23", "Molecular Formula": "C8H17NO", "Boiling Point": "72-76 \u00b0C @ Press: 16 Torr", "Melting Point": "82-84 \u00b0C", "Density": "0.8630 g/cm\u00b3 @ Temp: 24 \u00b0C"}}