{"cas_no": "330-55-2", "cn_name": "\u5229\u8c37\u9686", "en_name": ["Linuron", "Urea, N\u2032-(3,4-dichlorophenyl)-N-methoxy-N-methyl-", "Urea, 3-(3,4-dichlorophenyl)-1-methoxy-1-methyl-", "N\u2032-(3,4-Dichlorophenyl)-N-methoxy-N-methylurea", "Afalon", "Afalon inuron", "3-(3,4-Dichlorophenyl)-1-methoxy-1-methylurea", "N-(3,4-Dichlorophenyl)-N\u2032-methyl-N\u2032-methoxyurea", "Du Pont 326", "Herbicide 326", "Lorox", "1-Methoxy-1-methyl-3-(3,4-dichlorophenyl)urea", "Sinuron", "Aphalon", "Linuron", "Cephalon", "N-(3,4-Dichlorophenyl)-N\u2032-methoxy-N\u2032-methylurea", "1-(3,4-Dichlorophenyl)-3-methoxy-3-methylurea", "3-(3,4-Dichlorophenyl)-1-methyl-1-methoxyurea", "Lorex", "Du Pont Herbicide 326", "Methoxydiuron", "3-(3\u2032,4\u2032-Dichlorophenyl)-1-methoxy-1-methylurea", "Sarclex", "Alfalone", "Alfalon", "Linurex", "Linex", "Liron", "Afalon Dys. 450SC", "Galolin Mono", "Linex (herbicide)", "Afalon 450 SC", "MeSH ID: D008044"], "SMILES": "N(C(N(OC)C)=O)C1=CC(Cl)=C(Cl)C=C1", "physical_data": {"Molecular Weight": "249.09", "Molecular Formula": "C9H10Cl2N2O2", "Melting Point": "93-94 \u00b0C", "Density": "1.49 g/cm\u00b3 @ Temp: 20 \u00b0C"}}