{"cas_no": "330-12-1", "cn_name": "4-\u4e09\u6c1f\u7532\u6c27\u57fa\u82ef\u7532\u9178", "en_name": ["4-(Trifluoromethoxy)benzoic acid", "Benzoic acid, 4-(trifluoromethoxy)-", "p-Anisic acid, \u03b1,\u03b1,\u03b1-trifluoro-", "4-(Trifluoromethoxy)benzoic acid", "p-(Trifluoromethoxy)benzoic acid", "4-(Trifluoromethyloxy)benzoic acid"], "SMILES": "O(C(F)(F)F)C1=CC=C(C(O)=O)C=C1", "physical_data": {"Molecular Weight": "206.12", "Molecular Formula": "C8H5F3O3", "Melting Point": "152 \u00b0C"}}