{"cas_no": "330-13-2", "cn_name": "PNPP", "en_name": ["4-Nitrophenyl phosphate", "Phosphoric acid, mono(4-nitrophenyl) ester", "Phosphoric acid, mono(p-nitrophenyl) ester", "Phosphoric acid, p-nitrophenyl ester", "Phenol, p-nitro-, dihydrogen phosphate", "p-Nitrophenyl phosphate", "4-Nitrophenyl phosphate", "NPP", "4-Nitrophenyl dihydrogen phosphate", "p-Nitrophenyl dihydrogen phosphate", "p-Nitrophenol phosphate", "PNPP", "NSC 404086", "Mono(4-nitrophenyl) phosphate", "Alkaline Phosphatase Yellow", "(4-Nitrophenoxy)phosphonic acid"], "SMILES": "O(P(=O)(O)O)C1=CC=C(N(=O)=O)C=C1", "physical_data": {"Molecular Weight": "219.09", "Molecular Formula": "C6H6NO6P", "Melting Point": "153 \u00b0C"}}