{"cas_no": "330-54-1", "cn_name": "\u654c\u8349\u9686", "en_name": ["Diuron", "Urea, N\u2032-(3,4-dichlorophenyl)-N,N-dimethyl-", "Urea, 3-(3,4-dichlorophenyl)-1,1-dimethyl-", "N\u2032-(3,4-Dichlorophenyl)-N,N-dimethylurea", "DCMU", "N-(3,4-Dichlorophenyl)-N\u2032,N\u2032-dimethylurea", "3-(3,4-Dichlorophenyl)-1,1-dimethylurea", "1,1-Dimethyl-3-(3,4-dichlorophenyl)urea", "Diuron", "Duran", "Karmex", "Karmex Diuron Herbicide", "Karmex DW", "Marmer", "Telvar Diuron Weed Killer", "1-(3,4-Dichlorophenyl)-3,3-dimethylurea", "DMU", "Herbatox", "HW 920", "Karmex D", "DP Hardener 95", "Lucenit", "DCMC", "DCMU 99", "Dyhard UR 200", "N,N-Dimethyl-N\u2032-(3,4-dichlorophenyl)urea", "Preventol A 6", "HRT Dinron", "Diuron Nortox", "Karmax", "NSC 8950", "Dairon", "DCMU 9", "Dironzol", "Dironet", "Direx", "SM 400", "SM 400 (curing agent)", "Cardi", "101S", "Dyhard 200", "Diurex", "UR 200", "Biocut DC 100", "Epiclon B 605IM", "DCMUH", "B 605IM", "Dichlorfenidim", "MeSH ID: D004237"], "SMILES": "N(C(N(C)C)=O)C1=CC(Cl)=C(Cl)C=C1", "physical_data": {"Molecular Weight": "233.09", "Molecular Formula": "C9H10Cl2N2O", "Melting Point": "158-159 \u00b0C"}}