{"cas_no": "330-95-0", "cn_name": "\u5c3c\u5361\u5df4\u55ea", "en_name": ["Nicarbazin", "Urea, N,N\u2032-bis(4-nitrophenyl)-, compd. with 4,6-dimethyl-2(1H)-pyrimidinone (1:1)", "Carbanilide, 4,4\u2032-dinitro-, compd. with 4,6-dimethyl-2-pyrimidinol (1:1)", "Carbanilide, 4,4\u2032-dinitro-, compd. with 4,6-dimethyl-2-pyrimidinol", "2-Pyrimidinol, 4,6-dimethyl-, compd. with 4,4\u2032-dinitrocarbanilide (1:1)", "2-Pyrimidinol, 4,6-dimethyl-, compd. with 4,4\u2032-dinitrocarbanilide", "Nicarbazin", "Nicoxin", "Nicarbazine", "Nicarb", "MK 75", "Nicrazin", "Nicrazine", "NSC 7171", "MeSH ID: D009528"], "SMILES": "CC1=CC(C)=NC(=O)N1.N(C(NC1=CC=C(N(=O)=O)C=C1)=O)C2=CC=C(N(=O)=O)C=C2", "physical_data": {"Molecular Weight": "", "Molecular Formula": "C13H10N4O5.C6H8N2O", "Melting Point": "265-267 \u00b0C"}}