{"cas_no": "330-17-6", "cn_name": "\u5bf9\u4e09\u6c1f\u7532\u786b\u57fa\u82ef\u7532\u9178", "en_name": ["4-[(Trifluoromethyl)thio]benzoic acid", "Benzoic acid, 4-[(trifluoromethyl)thio]-", "Benzoic acid, p-[(trifluoromethyl)thio]-", "4-[(Trifluoromethyl)thio]benzoic acid", "4-Trifluoromethylsulfanylbenzoic acid"], "SMILES": "S(C(F)(F)F)C1=CC=C(C(O)=O)C=C1", "physical_data": {"Molecular Weight": "222.18", "Molecular Formula": "C8H5F3O2S", "Melting Point": "160-161 \u00b0C"}}