{"cas_no": "330-84-7", "cn_name": "4-\u6c1f\u4e8c\u82ef\u919a", "en_name": ["1-Fluoro-4-phenoxybenzene", "Benzene, 1-fluoro-4-phenoxy-", "Ether, p-fluorophenyl phenyl", "1-Fluoro-4-phenoxybenzene", "p-Fluorophenyl phenyl ether", "4-Fluorophenyl phenyl ether", "4-Fluorodiphenyl ether", "NSC 51798", "4-Phenoxy-1-fluorobenzene"], "SMILES": "O(C1=CC=C(F)C=C1)C2=CC=CC=C2", "physical_data": {"Molecular Weight": "188.20", "Molecular Formula": "C12H9FO", "Boiling Point": "254-255 \u00b0C @ Press: 740 Torr", "Density": "1.1523 g/cm\u00b3 @ Temp: 16 \u00b0C"}}