{"cas_no": "330-94-9", "cn_name": "4-(4-\u6c1f\u82ef)-3-\u6c28\u57fa\u786b\u8132", "en_name": ["4-(4-Fluorophenyl)thiosemicarbazide", "Hydrazinecarbothioamide, N-(4-fluorophenyl)-", "Semicarbazide, 4-(p-fluorophenyl)-3-thio-", "N-(4-Fluorophenyl)hydrazinecarbothioamide", "4-(p-Fluorophenyl)-3-thiosemicarbazide", "4-(p-Fluorophenyl)thiosemicarbazide", "Flusone", "4-(4-Fluorophenyl)thiosemicarbazide", "4-(4-Fluorophenyl)-3-thiosemicarbazide", "N-(4-Fluorophenyl)thiosemicarbazide", "3-Amino-1-(4-fluorophenyl)thiourea"], "SMILES": "N(C(NN)=S)C1=CC=C(F)C=C1", "physical_data": {"Molecular Weight": "185.22", "Molecular Formula": "C7H8FN3S", "Melting Point": "177-178 \u00b0C"}}