{"cas_no": "3300-51-4", "cn_name": "4-(\u4e09\u6c1f\u7532\u57fa)\u82c4\u80fa", "en_name": ["4-(Trifluoromethyl)benzylamine", "Benzenemethanamine, 4-(trifluoromethyl)-", "Benzylamine, p-(trifluoromethyl)-", "4-(Trifluoromethyl)benzenemethanamine", "p-(Trifluoromethyl)benzylamine", "4-(Trifluoromethyl)benzylamine", "((4-(Trifluoromethyl)phenyl)methyl)amine", "1-[4-(Trifluoromethyl)phenyl]methanamine", "(4-Trifluoromethylphenyl)methanamine", "1-(4-Trifluoromethylphenyl)methylamine"], "SMILES": "C(F)(F)(F)C1=CC=C(CN)C=C1", "physical_data": {"Molecular Weight": "175.15", "Molecular Formula": "C8H8F3N", "Boiling Point": "114-120 \u00b0C", "Melting Point": "43 \u00b0C"}}