{"cas_no": "33005-95-7", "cn_name": "\u567b\u6d1b\u82ac\u9178", "en_name": ["Tiaprofenic acid", "2-Thiopheneacetic acid, 5-benzoyl-\u03b1-methyl-", "5-Benzoyl-\u03b1-methyl-2-thiopheneacetic acid", "RU 15060", "Tiaprofenic acid", "FC 3001", "Surgam", "Tiaprofen", "(\u00b1)-Tiaprofenic acid", "(RS)-Tiaprofenic acid", "Suralgan", "\u03b1-(5-Benzoyl-2-thienyl)propionic acid", "2-(5-Benzoylthiophen-2-yl)propanoic acid", "2-(5-Benzoylthiophen-2-yl)propanoicacid"], "SMILES": "C(=O)(C=1SC(C(C(O)=O)C)=CC1)C2=CC=CC=C2", "physical_data": {"Molecular Weight": "260.31", "Molecular Formula": "C14H12O3S", "Melting Point": "96 \u00b0C"}}