{"cas_no": "3300-25-2", "cn_name": "8-\u7532\u57fa\u5927\u9ec4\u915a", "en_name": ["1-Hydroxy-8-methoxy-3-methyl-9,10-anthracenedione", "9,10-Anthracenedione, 1-hydroxy-8-methoxy-3-methyl-", "Anthraquinone, 1-hydroxy-8-methoxy-3-methyl-", "1-Hydroxy-8-methoxy-3-methyl-9,10-anthracenedione", "8-O-Methylchrysophanol", "Chrysophanol 8-methyl ether", "8-Methoxylchrysophanol", "1-Hydroxy-8-methoxy-3-methylanthraquinone"], "SMILES": "O=C1C=2C(C(=O)C=3C1=C(O)C=C(C)C3)=CC=CC2OC", "physical_data": {"Molecular Weight": "268.26", "Molecular Formula": "C16H12O4", "Melting Point": "198 \u00b0C"}}