{"cas_no": "3301-79-9", "cn_name": "6-\u7fa7\u57fa\u8367\u5149\u7d20", "en_name": ["6-Carboxyfluorescein", "Spiro[isobenzofuran-1(3H),9\u2032-[9H]xanthene]-6-carboxylic acid, 3\u2032,6\u2032-dihydroxy-3-oxo-", "Spiro[phthalan-1,9\u2032-xanthene]-6-carboxylic acid, 3\u2032,6\u2032-dihydroxy-3-oxo-", "Terephthalic acid, (3,6,9-trihydroxyxanthen-9-yl)-, \u03b3-lactone", "3\u2032,6\u2032-Dihydroxy-3-oxospiro[isobenzofuran-1(3H),9\u2032-[9H]xanthene]-6-carboxylic acid", "Fluorescein, 6-carboxy-", "6-Carboxyfluorescein", "6-FAM", "3\u2032,6\u2032-Dihydroxy-1-oxospiro[2-benzofuran-3,9\u2032-xanthene]-5-carboxylic acid"], "SMILES": "O=C1OC2(C=3C1=CC=C(C(O)=O)C3)C=4C(OC=5C2=CC=C(O)C5)=CC(O)=CC4", "physical_data": {"Molecular Weight": "376.32", "Molecular Formula": "C21H12O7", "Melting Point": "&gt;360 \u00b0C"}}