{"cas_no": "3301-94-8", "cn_name": "\u4e01\u4f4d\u58ec\u5185\u916f", "en_name": ["\u03b4-Nonalactone", "2H-Pyran-2-one, 6-butyltetrahydro-", "Nonanoic acid, 5-hydroxy-, \u03b4-lactone", "Nonanoic acid, 5-hydroxy-, lactone", "6-Butyltetrahydro-2H-pyran-2-one", "5-Hydroxynonanoic acid \u03b4-lactone", "\u03b4-Nonalactone", "\u03b4-Butylvalerolactone", "Nonan-1,5-olide", "\u03b4-Butyl-\u03b4-valerolactone", "5-Nonanolide", "(\u00b1)-\u03b4-Nonalactone", "(RS)-\u03b4-Nonalactone", "\u03b4-Nonanolactone"], "SMILES": "C(CCC)C1OC(=O)CCC1", "physical_data": {"Molecular Weight": "156.22", "Molecular Formula": "C9H16O2", "Boiling Point": "137-138 \u00b0C @ Press: 11 Torr"}}