{"cas_no": "33018-91-6", "cn_name": "\u5e9a\u4e8c\u9178\u6c22\u4e59\u916f", "en_name": ["1-Ethyl heptanedioate", "Heptanedioic acid, 1-ethyl ester", "Pimelic acid, monoethyl ester", "Heptanedioic acid, monoethyl ester", "Pimelic acid, ethyl ester", "1-Ethyl heptanedioate", "Monoethyl heptanedioate", "Monoethyl pimelate", "Ethyl hydrogen pimelate", "7-Ethoxy-7-oxoheptanoic acid"], "SMILES": "C(CC(OCC)=O)CCCC(O)=O", "physical_data": {"Molecular Weight": "188.22", "Molecular Formula": "C9H16O4", "Boiling Point": "182 \u00b0C @ Press: 18 Torr", "Melting Point": "10 \u00b0C", "Density": "0.9929 g/cm\u00b3 @ Temp: 20 \u00b0C"}}