{"cas_no": "3301-61-9", "cn_name": "ENT-16BETA,17-DIHYDROXY-19-KAURANOIC ACID", "en_name": ["16\u03b2,17-Dihydroxy-ent-kauran-19-oic acid", "Kauran-18-oic acid, 16,17-dihydroxy-, (4\u03b1)-", "Kauran-18-oic acid, 16,17-dihydroxy-", "(4\u03b1)-16,17-Dihydroxykauran-18-oic acid", "16,17-Dihydroxy-16\u03b2-(-)-kauran-19-oic acid", "(-)-16,17-Dihydroxy-16\u03b2-kauran-19-oic acid", "16\u03b1,17-Hydroxy-(-)-kauran-19-oic acid", "ent-16\u03b2,17-Dihydroxykauran-19-oic acid", "16\u03b2,17-Dihydroxy-ent-kauran-19-oic acid", "ent-16,17-Dihydroxykauran-19-oic acid", "Ent-16\u03b1,17-Dihydroxy-kauran-19-oic-acid"], "SMILES": "CC12C3C4(CC(CO)(O)C(C4)CC3)CCC1C(C(O)=O)(C)CCC2", "physical_data": {"Molecular Weight": "336.47", "Molecular Formula": "C20H32O4", "Melting Point": "260-262 \u00b0C"}}