{"cas_no": "3301-49-3", "cn_name": "\u718a\u7af9\u7d20", "en_name": ["Kumatakenin", "4H-1-Benzopyran-4-one, 5-hydroxy-2-(4-hydroxyphenyl)-3,7-dimethoxy-", "Flavone, 4\u2032,5-dihydroxy-3,7-dimethoxy-", "5-Hydroxy-2-(4-hydroxyphenyl)-3,7-dimethoxy-4H-1-benzopyran-4-one", "Kumatakenin", "Jaranol", "4\u2032,5-Dihydroxy-3,7-dimethoxyflavone", "3,7-Di-O-methyl kaempferol", "Kaempferol 3,7-dimethyl ether", "3,7-Dimethylkaempferol", "Kumatakillin", "5,4\u2032-Dihydroxy-3,7-dimethoxyflavone", "Kamatakenin", "Kaempferol 3,7-O-dimethyl ether", "Kumatakenin A"], "SMILES": "O=C1C=2C(OC(=C1OC)C3=CC=C(O)C=C3)=CC(OC)=CC2O", "physical_data": {"Molecular Weight": "314.29", "Molecular Formula": "C17H14O6", "Melting Point": "253-254 \u00b0C"}}