{"cas_no": "33024-60-1", "cn_name": "4-\u6c28\u57fa\u56db\u6c22\u5421\u5583\u76d0\u9178\u76d0", "en_name": ["Tetrahydro-2H-pyran-4-amine hydrochloride", "2H-Pyran-4-amine, tetrahydro-, hydrochloride (1:1)", "2H-Pyran-4-amine, tetrahydro-, hydrochloride", "4-Aminotetrahydro-4H-pyran hydrochloride", "Perhydro-2H-pyran-4-ylamine hydrochloride", "4-Aminotetrahydro-4H-pyran monohydrochloride", "Tetrahydro-2H-pyran-4-ylamine monohydrochloride", "Tetrahydro-2H-pyran-4-amine hydrochloride", "4-Aminotetrahydropyran hydrochloride", "4-Aminotetrahydro-2H-pyran hydrochloride", "(Tetrahydro-2H-pyran-4-yl)amine hydrochloride", "Oxan-4-amine hydrochloride", "Tetrahydropyran-4-amine hydrochloride"], "SMILES": "NC1CCOCC1.Cl", "physical_data": {"Molecular Weight": "", "Molecular Formula": "C5H11NO.ClH", "Melting Point": "218-219 \u00b0C"}}