{"cas_no": "3302-10-1", "cn_name": "3,5,5-\u4e09\u7532\u57fa\u5df1\u9178", "en_name": ["3,5,5-Trimethylhexanoic acid", "Hexanoic acid, 3,5,5-trimethyl-", "3,5,5-Trimethylhexanoic acid", "3,5,5-Trimethyl-n-hexanoic acid", "3,5,5-Trimethylcaproic acid", "Kyowanoic N", "NSC 52185"], "SMILES": "C(C(C)(C)C)C(CC(O)=O)C", "physical_data": {"Molecular Weight": "158.24", "Molecular Formula": "C9H18O2", "Boiling Point": "80-85 \u00b0C @ Press: 3 Torr"}}