{"cas_no": "33025-60-4", "cn_name": "N-\u4e59\u9170\u57fa-3-\u7f9f\u57fa\u5432\u54da", "en_name": ["1-(3-Hydroxy-1H-indol-1-yl)ethanone", "Ethanone, 1-(3-hydroxy-1H-indol-1-yl)-", "1H-Indol-3-ol, 1-acetyl-", "Indoxyl, 1-acetyl-", "1-(3-Hydroxy-1H-indol-1-yl)ethanone", "N-Acetylindol-3-ol", "1-(3-Hydroxyindol-1-yl)ethanone", "1-Acetyl-3-hydroxyindole", "N-Acetyl-3-hydroxyindole"], "SMILES": "C(C)(=O)N1C=2C(C(O)=C1)=CC=CC2", "physical_data": {"Molecular Weight": "175.18", "Molecular Formula": "C10H9NO2", "Melting Point": "136 \u00b0C"}}