{"cas_no": "3303-84-2", "cn_name": "Boc-beta-\u4e19\u6c28\u9178", "en_name": ["BOC-\u03b2-alanine", "\u03b2-Alanine, N-[(1,1-dimethylethoxy)carbonyl]-", "\u03b2-Alanine, N-carboxy-, N-tert-butyl ester", "N-[(1,1-Dimethylethoxy)carbonyl]-\u03b2-alanine", "N-(t-Butoxycarbonyl)-\u03b2-alanine", "N-[(t-Butyloxy)carbonyl]-\u03b2-alanine", "N-tert-Butoxycarbonyl-\u03b2-alanine", "N-(tert-Butyloxycarbonyl)-\u03b2-alanine", "3-(tert-Butoxycarbonylamino)propionic acid", "BOC-\u03b2-alanine", "N-(tert-Butoxycarbonyl)-3-aminopropionic acid", "BOC-3-aminopropanoic acid", "N-Boc-\u03b2-alanine", "3-(tert-Butoxycarbonylamino)propanoic acid", "Boc-3-aminopropionic acid", "3-[N-(tert-Butoxycarbonyl)amino]propionic acid", "N-tert-Butoxycarbonyl-3-aminopropanoic acid", "N-Boc-3-aminopropanoic acid", "3-[(2-Methylpropan-2-yl)oxycarbonylamino]propanoic acid", "Boc-\u03b2-HoGly-OH", "Boc-beta-alanine", "3-((tert-Butoxycarbonyl)amino)propanoic acid"], "SMILES": "C(OC(C)(C)C)(NCCC(O)=O)=O", "physical_data": {"Molecular Weight": "189.21", "Molecular Formula": "C8H15NO4", "Melting Point": "76-77 \u00b0C"}}