{"cas_no": "3303-31-9", "cn_name": "L-\u4eae\u6c28\u9178\u4e8c\u80bd", "en_name": ["L-Leucyl-L-leucine", "L-Leucine, L-leucyl-", "Leucine, N-L-leucyl-, L-", "L-Leucine, N-L-leucyl-", "Leucine, N-L-leucyl-", "L-Leucyl-L-leucine", "Leucylleucine", "NSC 89185", "456: PN: EP2071334 SEQID: 488 claimed protein", "456: PN: WO2009077864 SEQID: 488 claimed protein", "11: PN: US20090239809 SEQID: 11 claimed protein", "38: PN: EP2161028 PAGE: 10 claimed protein", "2: PN: CN101845080 PAGE: 2 claimed protein", "L-Leucinyl-L-leucine", "21: PN: WO2014134509 SEQID: 21 claimed sequence", "2: PN: CN110655554 PAGE: 2 claimed sequence", "10: PN: WO2020097235 SEQID: 239 claimed protein", "86: PN: WO2021211467 SEQID: 239 claimed sequence"], "SMILES": "C(NC(C(CC(C)C)N)=O)(CC(C)C)C(O)=O", "physical_data": {"Molecular Weight": "244.33", "Molecular Formula": "C12H24N2O3", "Melting Point": "270 \u00b0C"}}