{"cas_no": "3303-45-5", "cn_name": "H-ALA-VAL-OH", "en_name": ["L-Alanyl-L-valine", "L-Valine, L-alanyl-", "L-Valine, N-L-alanyl-", "Valine, N-L-alanyl-, L-", "L-Alanyl-L-valine", "Alanylvaline", "Ala-Val", "NSC 89603", "447: PN: WO2005081628 SEQID: 1556 claimed protein", "36: PN: WO2014102104 SEQID: 135 claimed protein", "36: PN: WO2014102101 SEQID: 336 claimed protein", "76: PN: WO2014102103 TABLE: 1 claimed protein", "55: PN: WO2014102100 TABLE: 1 claimed protein", "70: PN: WO2014170713 SEQID: 176 claimed protein", "2: PN: CN109305994 PAGE: 5 claimed sequence", "486: PN: WO2022177963 SEQID: 587 claimed protein", "1: PN: WO2023281657 PAGE: 22 claimed sequence", "8: PN: WO2023056433 PAGE: 60 claimed sequence"], "SMILES": "C(NC(C(C)N)=O)(C(C)C)C(O)=O", "physical_data": {"Molecular Weight": "188.22", "Molecular Formula": "C8H16N2O3", "Melting Point": "238 \u00b0C", "Density": "1.180 g/cm\u00b3 @ Temp: 26 \u00b0C"}}