{"cas_no": "33037-46-6", "cn_name": "\u82a6\u835f\u5927\u9ec4\u7d20-8-O-\u8461\u8404\u7cd6\u82f7", "en_name": ["Aloe-emodin 8-O-\u03b2-D-glucopyranoside", "9,10-Anthracenedione, 8-(\u03b2-D-glucopyranosyloxy)-1-hydroxy-3-(hydroxymethyl)-", "Glucopyranoside, 8-hydroxy-6-(hydroxymethyl)-1-anthraquinonyl, \u03b2-D-", "8-(\u03b2-D-Glucopyranosyloxy)-1-hydroxy-3-(hydroxymethyl)-9,10-anthracenedione", "Aloe emodin 8-mono-\u03b2-D-glucoside", "1-Hydroxy-3-hydroxymethyl-8-\u03b2-D-glucosyloxyanthraquinone", "Aloe emodin 8-monoglucoside", "Aloe emodin 8-glucoside", "Aloe-emodin 8-O-\u03b2-D-glucopyranoside"], "SMILES": "O(C1=C2C(C(=O)C=3C(C2=O)=C(O)C=C(CO)C3)=CC=C1)C4OC(CO)C(O)C(O)C4O", "physical_data": {"Molecular Weight": "432.38", "Molecular Formula": "C21H20O10", "Melting Point": "239-240 \u00b0C"}}