{"cas_no": "33036-62-3", "cn_name": "4-\u6eb4-1-\u4e01\u9187", "en_name": ["4-Bromo-1-butanol", "1-Butanol, 4-bromo-", "4-Bromo-1-butanol", "4-Bromobutanol", "4-Bromobutan-1-ol", "1-Bromo-4-butanol", "1-Bromo-4-hydroxybutane"], "SMILES": "C(CCO)CBr", "physical_data": {"Molecular Weight": "153.02", "Molecular Formula": "C4H9BrO", "Boiling Point": "69-71 \u00b0C @ Press: 4.998 Torr"}}