{"cas_no": "3303-55-7", "cn_name": "H-PHE-LEU-OH", "en_name": ["L-Phenylalanyl-L-leucine", "L-Leucine, L-phenylalanyl-", "Leucine, N-(3-phenyl-L-alanyl)-, L-", "L-Leucine, N-L-phenylalanyl-", "L-Phenylalanyl-L-leucine", "2: PN: WO2004057976 PAGE: 32 claimed protein", "22: PN: US20090239809 SEQID: 22 claimed protein", "166: PN: EP2161028 PAGE: 10 claimed protein", "1: PN: WO2018237354 PAGE: 31 claimed sequence"], "SMILES": "C(C(C(NC(CC(C)C)C(O)=O)=O)N)C1=CC=CC=C1", "physical_data": {"Molecular Weight": "278.35", "Molecular Formula": "C15H22N2O3", "Melting Point": "258-260 \u00b0C"}}