{"cas_no": "33045-53-3", "cn_name": "2-\u7532\u6c27\u57fa-5-\u78fa\u9170\u80fa\u57fa\u82ef\u7532\u9178\u4e59\u916f", "en_name": ["Benzoic acid, 5-(aminosulfonyl)-2-methoxy-, ethyl ester", "Benzoic acid, 5-(aminosulfonyl)-2-methoxy-, ethyl ester", "o-Anisic acid, 5-sulfamoyl-, ethyl ester", "Ethyl 2-methoxy-5-sulfonamidobenzoate", "Ethyl 2-methoxy-5-sulfamoylbenzoate", "Ethyl 5-(aminosulfonyl)-2-methoxybenzoate"], "SMILES": "C(OCC)(=O)C1=C(OC)C=CC(S(N)(=O)=O)=C1", "physical_data": {"Molecular Weight": "259.28", "Molecular Formula": "C10H13NO5S", "Melting Point": "148-151 \u00b0C"}}