{"cas_no": "3304-70-9", "cn_name": "1H-\u54aa\u5511-4,5-\u4e8c\u7532\u9178\u4e8c\u7532\u916f", "en_name": ["4,5-Dimethyl 1H-imidazole-4,5-dicarboxylate", "1H-Imidazole-4,5-dicarboxylic acid, 4,5-dimethyl ester", "Imidazole-4,5-dicarboxylic acid, dimethyl ester", "1H-Imidazole-4,5-dicarboxylic acid, dimethyl ester", "4,5-Dimethyl 1H-imidazole-4,5-dicarboxylate", "Dimethyl imidazole-4,5-dicarboxylate", "Dimethyl 1H-imidazole-4,5-dicarboxylate", "NSC 44628", "NSC 44693", "Imidazol-4,5-dicarboxylic acid dimethyl ester"], "SMILES": "C(OC)(=O)C1=C(C(OC)=O)N=CN1", "physical_data": {"Molecular Weight": "184.15", "Molecular Formula": "C7H8N2O4", "Melting Point": "200-203 \u00b0C"}}