{"cas_no": "3304-59-4", "cn_name": "Z-PRO-ONP", "en_name": ["2-(4-Nitrophenyl) 1-(phenylmethyl) (2S)-1,2-pyrrolidinedicarboxylate", "1,2-Pyrrolidinedicarboxylic acid, 2-(4-nitrophenyl) 1-(phenylmethyl) ester, (2S)-", "1,2-Pyrrolidinedicarboxylic acid, 1-benzyl p-nitrophenyl ester, L-", "1,2-Pyrrolidinedicarboxylic acid, 2-(4-nitrophenyl) 1-(phenylmethyl) ester, (S)-", "2-(4-Nitrophenyl) 1-(phenylmethyl) (2S)-1,2-pyrrolidinedicarboxylate", "N-Carbobenzoxy-L-proline p-nitrophenyl ester", "N-(Benzyloxycarbonyl)-L-proline p-nitrophenyl ester", "N-(Benzyloxycarbonyl)-L-proline 4-nitrophenyl ester", "N-Carbobenzoxy-S-proline-p-nitrophenylester", "1-O-Benzyl 2-O-(4-nitrophenyl) (2S)-pyrrolidine-1,2-dicarboxylate"], "SMILES": "C(OC1=CC=C(N(=O)=O)C=C1)(=O)C2N(C(OCC3=CC=CC=C3)=O)CCC2", "physical_data": {"Molecular Weight": "370.36", "Molecular Formula": "C19H18N2O6", "Melting Point": "94-95.5 \u00b0C"}}