{"cas_no": "3304-51-6", "cn_name": "N'-Cbz-L-\u9e1f\u6c28\u9178", "en_name": ["N5-[(Phenylmethoxy)carbonyl]-L-ornithine", "L-Ornithine, N5-[(phenylmethoxy)carbonyl]-", "Ornithine, N5-carboxy-, N5-benzyl ester, L-", "Ornithine, N5-carboxy-, N-benzyl ester", "L-Ornithine, N5-carboxy-, N-benzyl ester", "N5-[(Phenylmethoxy)carbonyl]-L-ornithine", "\u03b4-N-Benzyloxycarbonyl-L-ornithine", "N5-Carboxyornithine N5-benzyl ester", "N\u03b4-Benzyloxycarbonyl-L-ornithine", "N5-(Benzyloxycarbonyl)ornithine", "(S)-2-Amino-5-(phenylmethoxycarbonylamino)pentanoic acid", "N-\u03b4-Cbz-L-ornithine", "(2S)-2-Amino-5-[[(benzyloxy)carbonyl]amino]pentanoic acid"], "SMILES": "C(OC(NCCCC(C(O)=O)N)=O)C1=CC=CC=C1", "physical_data": {"Molecular Weight": "266.29", "Molecular Formula": "C13H18N2O4", "Melting Point": "254 \u00b0C"}}