{"cas_no": "33045-52-2", "cn_name": "2-\u7532\u6c27\u57fa-5-\u78fa\u9170\u80fa\u82ef\u7532\u9178\u7532\u916f", "en_name": ["Methyl 2-methoxy-5-sulfamoylbenzoate", "Benzoic acid, 5-(aminosulfonyl)-2-methoxy-, methyl ester", "o-Anisic acid, 5-sulfamoyl-, methyl ester", "Methyl 2-methoxy-5-sulfamoylbenzoate", "Methyl 5-(aminosulfonyl)-2-methoxybenzoate", "Methyl 5-sulfamoyl-2-methoxybenzoate", "4-Methoxy-3-(methoxycarbonyl)benzenesulfonamide"], "SMILES": "C(OC)(=O)C1=C(OC)C=CC(S(N)(=O)=O)=C1", "physical_data": {"Molecular Weight": "245.25", "Molecular Formula": "C9H11NO5S", "Melting Point": "159-160 \u00b0C"}}