{"cas_no": "33069-62-4", "cn_name": "\u7d2b\u6749\u9187", "en_name": ["Paclitaxel", "Benzenepropanoic acid, \u03b2-(benzoylamino)-\u03b1-hydroxy-, (2aR,4S,4aS,6R,9S,11S,12S,12aR,12bS)-6,12b-bis(acetyloxy)-12-(benzoyloxy)-2a,3,4,4a,5,6,9,10,11,12,12a,12b-dodecahydro-4,11-dihydroxy-4a,8,13,13-tetramethyl-5-oxo-7,11-methano-1H-cyclodeca[3,4]benz[1,2-b]oxet-9-yl ester, (\u03b1R,\u03b2S)-", "Tax-11-en-9-one, 5\u03b2,20-epoxy-1,2\u03b1,4,7\u03b2,10\u03b2,13\u03b1-hexahydroxy-, 4,10-diacetate 2-benzoate 13-ester with (2R,3S)-N-benzoyl-3-phenylisoserine", "Benzenepropanoic acid, \u03b2-(benzoylamino)-\u03b1-hydroxy-, 6,12b-bis(acetyloxy)-12-(benzoyloxy)-2a,3,4,4a,5,6,9,10,11,12,12a,12b-dodecahydro-4,11-dihydroxy-4a,8,13,13-tetramethyl-5-oxo-7,11-methano-1H-cyclodeca[3,4]benz[1,2-b]oxet-9-yl ester, [2aR-[2a\u03b1,4\u03b2,4a\u03b2,6\u03b2,9\u03b1(\u03b1R*,\u03b2S*),11\u03b1,12\u03b1,12a\u03b1,12b\u03b1]]-", "7,11-Methano-1H-cyclodeca[3,4]benz[1,2-b]oxete, benzenepropanoic acid deriv.", "Taxol", "NSC 125973", "Taxol A", "Paclitaxel", "BMS 181339-01", "Yewtaxan", "Plaxicel", "ABI 007", "TaxAlbin", "QW 8184", "Ebetaxel", "Capxol", "MBT 0206", "Abraxane", "Genexol-PM", "Pacliex", "Genexol", "Genetaxyl", "NK 105", "Mitotax", "OncoGel", "Onxal", "DHP 107", "EndoTAG 1", "Genaxol", "Intaxel", "Taxus", "TAXUS stent", "(-)-Paclitaxel", "Taxus Liberte", "EmPAC", "Tocosol Paclitaxel", "Cyclopax", "Zisu", "LEP-ETU", "Liposome-entrapped paclitaxel easy-to-use", "Paxene", "Infinnium", "Padexol", "Sindaxel", "Nanoxel", "5\u03b2,20-Epoxy-1,2a,4,7\u03b2,10\u03b2,13\u03b1-hexahydroxy-tax-11-en-9-one 4,10-diacetate 2-benzoate 13-ester with (2R,3S)-N-benzoyl-3-phenylisoserine", "PTX", "Cypher select", "Coroflex Please", "Nab-paclitaxel", "TAXUS Express", "IG 001", "Cynviloq", "IG 002", "Nanotax", "Pacitaxel", "Cremophor-free paclitaxel", "Oraxol", "Anzatax", "Pazenir", "Apealea", "Taclantis", "MeSH ID: D017239"], "SMILES": "O(C(C)=O)C12C3C(OC(=O)C4=CC=CC=C4)C5(O)C(C)(C)C(C(OC(C)=O)C(=O)C3(C)C(O)CC1OC2)=C(C)C(OC(C(C(NC(=O)C6=CC=CC=C6)C7=CC=CC=C7)O)=O)C5", "physical_data": {"Molecular Weight": "853.91", "Molecular Formula": "C47H51NO14", "Melting Point": "213-216 \u00b0C (decomp)"}}