{"cas_no": "33065-61-1", "cn_name": "6-\u6eb4-1H-\u831a", "en_name": ["6-Bromoindene", "1H-Indene, 6-bromo-", "Indene, 6-bromo-", "6-Bromo-1H-indene", "6-Bromoindene"], "SMILES": "BrC=1C=C2C(=CC1)C=CC2", "physical_data": {"Molecular Weight": "195.06", "Molecular Formula": "C9H7Br", "Boiling Point": "75 \u00b0C @ Press: 1 Torr"}}