{"cas_no": "3306-62-5", "cn_name": "\u90bb\u6c28\u57fa\u82ef\u78fa\u9170\u80fa", "en_name": ["2-Aminobenzenesulfonamide", "Benzenesulfonamide, 2-amino-", "Benzenesulfonamide, o-amino-", "2-Aminobenzenesulfonamide", "o-Aminobenzenesulfonamide", "Orthanilamide", "o-Sulfanilamide", "o-Sulfamoylaniline", "2-(Aminosulfonyl)aniline", "NSC 36945", "2-Aminobenzene-1-sulfonamide"], "SMILES": "S(N)(=O)(=O)C1=C(N)C=CC=C1", "physical_data": {"Molecular Weight": "172.20", "Molecular Formula": "C6H8N2O2S", "Melting Point": "153 \u00b0C"}}