{"cas_no": "3307-39-9", "cn_name": "2-(4-\u6c2f\u82ef\u6c27\u57fa)\u4e19\u9178", "en_name": ["2-(4-Chlorophenoxy)propionic acid", "Propanoic acid, 2-(4-chlorophenoxy)-", "Propionic acid, 2-(p-chlorophenoxy)-", "2-(4-Chlorophenoxy)propanoic acid", "4-CPP", "2-(4-CPP)", "\u03b1-(4-Chlorophenoxy)propionic acid", "2-(4-Chlorophenoxy)propionic acid", "2-(p-Chlorophenoxy)propionic acid", "CPP", "(\u00b1)-2-(4-Chlorophenoxy)propionic acid", "DL-2-(4-Chlorophenoxy)propionic acid", "(\u00b1)-2-(p-Chlorophenoxy)propionic acid", "NSC 70174", "(RS)-2-(4-Chlorophenoxy)propionic acid"], "SMILES": "O(C(C(O)=O)C)C1=CC=C(Cl)C=C1", "physical_data": {"Molecular Weight": "200.62", "Molecular Formula": "C9H9ClO3", "Melting Point": "66 \u00b0C"}}