{"cas_no": "330793-01-6", "cn_name": "N-Boc-4-\u6c28\u57fa\u82ef\u787c\u9178\u9891\u54ea\u9187\u916f", "en_name": ["tert-Butyl [4-(4,4,5,5-tetramethyl-[1,3,2]dioxaborolan-2-yl)phenyl]carbamate", "Carbamic acid, N-[4-(4,4,5,5-tetramethyl-1,3,2-dioxaborolan-2-yl)phenyl]-, 1,1-dimethylethyl ester", "Carbamic acid, [4-(4,4,5,5-tetramethyl-1,3,2-dioxaborolan-2-yl)phenyl]-, 1,1-dimethylethyl ester", "tert-Butyl N-[4-(4,4,5,5-tetramethyl-1,3,2-dioxaborolan-2-yl)phenyl]carbamate", "[4-(4,4,5,5-Tetramethyl-[1,3,2]dioxaborolan-2-yl)phenyl]carbamic acid tert-butyl ester", "tert-Butyl [4-(4,4,5,5-tetramethyl-[1,3,2]dioxaborolan-2-yl)phenyl]carbamate", "4-(Boc-amino)benzeneboronic acid pinacol ester", "[4-[(tert-Butoxycarbonyl)amino]phenyl]boronic acid pinacol ester", "tert-Butyl N-[4-(4,4,5,5-tetramethyl-1,3,2-dioxoborolan-2-yl)phenyl]carbamate"], "SMILES": "CC1(C)OB(OC1(C)C)C2=CC=C(NC(OC(C)(C)C)=O)C=C2", "physical_data": {"Molecular Weight": "319.20", "Molecular Formula": "C17H26BNO4", "Melting Point": "135-137 \u00b0C"}}