{"cas_no": "3308-02-9", "cn_name": "3-\u7f9f\u57fa-2-\u82ef\u57fa\u5421\u5576", "en_name": ["2-Phenyl-3-pyridinol", "3-Pyridinol, 2-phenyl-", "2-Phenyl-3-pyridinol", "3-Hydroxy-2-phenylpyridine", "2-Phenyl-3-hydroxypyridine"], "SMILES": "OC1=C(C2=CC=CC=C2)N=CC=C1", "physical_data": {"Molecular Weight": "171.20", "Molecular Formula": "C11H9NO", "Boiling Point": "320 \u00b0C @ Press: 760 Torr", "Melting Point": "205 \u00b0C"}}