{"cas_no": "3308-94-9", "cn_name": "2-(3-\u6c2f\u4e19\u57fa)-2-(4-\u6c1f\u82ef\u57fa)-1,3-\u4e8c\u6c27\u620a\u70f7", "en_name": ["2-(3-Chloropropyl)-2-(4-fluorophenyl)-1,3-dioxolane", "1,3-Dioxolane, 2-(3-chloropropyl)-2-(4-fluorophenyl)-", "1,3-Dioxolane, 2-(3-chloropropyl)-2-(p-fluorophenyl)-", "2-(3-Chloropropyl)-2-(4-fluorophenyl)-1,3-dioxolane", "2-(3-Chloropropyl)-2-(p-fluorophenyl)-1,3-dioxolane", "4-Chloro-p-fluorobutyrophenone cyclic ethylene acetal", "4-(p-Fluorophenyl)-4,4-ethylenedioxy-1-chlorobutane", "4-(4-Fluorophenyl)-4,4-ethylenedioxy-1-chlorobutane", "4-Chloro-1-(p-fluorophenyl)-1-butanone cyclic ethylene acetal", "1-Chloro-4,4-(ethylenedioxy)-4-(4-fluorophenyl)butane", "1,1-(Ethylenedioxy)-4-chloro-1-(4-fluorophenyl)butane", "2-(3-Chloropropyl)-2-(p-fluorophenyl)dioxolane", "4,4-(Ethylenedioxy)-4-(4-fluorophenyl)butyl chloride", "1-(4-Fluorophenyl)-4-chlorobutan-1-one ethylene ketal", "2-(3-Chloropropyl)-2-(4\u2032-fluorophenyl)-1,3-dioxolane", "3-p-Fluorobenzoylpropyl chloride ethylene ketal", "3-Chloropropyl 4-fluorophenyl ketone ethylene ketal", "4-Chloro-4\u2032-fluorobutyrophenone cyclic ethylene ketal", "2-(3-Chloropropyl)-2-(4-fluorophenyl)dioxolane", "4\u2032-Fluoro-4-chlorobutyrophenone ethylene ketal", "2-(4-Fluorophenyl)-2-(3-chloropropyl)-1,3-dioxolane", "4-Chloro-1,1-ethylenedioxy-1-(4-fluorophenyl)butane"], "SMILES": "C(CCCl)C1(OCCO1)C2=CC=C(F)C=C2", "physical_data": {"Molecular Weight": "244.69", "Molecular Formula": "C12H14ClFO2", "Boiling Point": "101-103 \u00b0C @ Press: 0.2 Torr"}}