{"cas_no": "33083-83-9", "cn_name": "5-\u5341\u4e00\u916e", "en_name": ["5-Undecanone", "5-Undecanone", "Di-n-Pentyl ketone", "NSC 158513"], "SMILES": "C(C(CCCC)=O)CCCCC", "physical_data": {"Molecular Weight": "170.29", "Molecular Formula": "C11H22O", "Boiling Point": "227 \u00b0C", "Melting Point": "2 \u00b0C", "Density": "0.8320 g/cm\u00b3 @ Temp: 25 \u00b0C"}}