{"cas_no": "33089-61-1", "cn_name": "\u53cc\u7532\u8112", "en_name": ["Amitraz", "Methanimidamide, N\u2032-(2,4-dimethylphenyl)-N-[[(2,4-dimethylphenyl)imino]methyl]-N-methyl-", "Formamidine, N-methyl-N\u2032-2,4-xylyl-N-(N-2,4-xylylformimidoyl)-", "N\u2032-(2,4-Dimethylphenyl)-N-[[(2,4-dimethylphenyl)imino]methyl]-N-methylmethanimidamide", "U 36059", "BTS 27419", "Azaform", "Amitraz", "Triazid", "BAAM", "1,5-Di(2,4-dimethylphenyl)-3-methyl-1,3,5-triazapenta-1,4-diene", "Taktic", "Edrizar", "Mitac", "Fumilat A", "Mitaban", "BAAM (pesticide)", "TCL", "Varamit", "Ovasyn", "Bovitraz", "Ektodex", "Acarac", "ENT 27967", "NSC 324552", "Parsec", "Amigard", "N\u2032-(2,4-Dimethylphenyl)-N-[(2,4-dimethylphenyl)imino]methyl-N-methylimidoformamide", "Apivar ND", "ApiVar", "Preventic", "Triatox"], "SMILES": "N(=CN(C=NC1=C(C)C=C(C)C=C1)C)C2=C(C)C=C(C)C=C2", "physical_data": {"Molecular Weight": "293.41", "Molecular Formula": "C19H23N3", "Melting Point": "86-87 \u00b0C", "Density": "1.1 g/cm\u00b3"}}