{"cas_no": "33094-66-5", "cn_name": "2-\u785d\u57fa\u82ef\u5e76\u544b\u5583", "en_name": ["2-Nitrobenzofuran", "Benzofuran, 2-nitro-", "2-Nitrobenzofuran", "R 5144", "NSC 170697", "2-Nitrobenzo[b]furan", "2-Nitro-1-benzofuran"], "SMILES": "N(=O)(=O)C1=CC=2C(O1)=CC=CC2", "physical_data": {"Molecular Weight": "163.13", "Molecular Formula": "C8H5NO3", "Melting Point": "151-152 \u00b0C"}}