{"cas_no": "330942-05-7", "cn_name": "\u8d1d\u66f2\u897f\u73ed", "en_name": ["Betrixaban", "Benzamide, N-(5-chloro-2-pyridinyl)-2-[[4-[(dimethylamino)iminomethyl]benzoyl]amino]-5-methoxy-", "N-(5-Chloro-2-pyridinyl)-2-[[4-[(dimethylamino)iminomethyl]benzoyl]amino]-5-methoxybenzamide", "Betrixaban", "PRT 054021", "Bevyxxa"], "SMILES": "N(C(=O)C1=CC=C(C(N(C)C)=N)C=C1)C2=C(C(NC3=CC=C(Cl)C=N3)=O)C=C(OC)C=C2", "physical_data": {"Molecular Weight": "451.91", "Molecular Formula": "C23H22ClN5O3", "Melting Point": "214.5-215.5 \u00b0C"}}