{"cas_no": "331-39-5", "cn_name": "\u5496\u5561\u9178", "en_name": ["Caffeic acid", "2-Propenoic acid, 3-(3,4-dihydroxyphenyl)-", "Cinnamic acid, 3,4-dihydroxy-", "3-(3,4-Dihydroxyphenyl)-2-propenoic acid", "Caffeic acid", "3,4-Dihydroxycinnamic acid", "3-(3,4-Dihydroxyphenyl)propenoic acid", "4-(2-Carboxyethenyl)-1,2-dihydroxybenzene", "4-(2\u2032-Carboxyvinyl)-1,2-dihydroxybenzene", "3,4-Dihydroxybenzeneacrylic acid", "NSC 57197", "NSC 623438", "DHCA"], "SMILES": "C(=CC(O)=O)C1=CC(O)=C(O)C=C1", "physical_data": {"Molecular Weight": "180.16", "Molecular Formula": "C9H8O4", "Melting Point": "225 \u00b0C (decomp)"}}