{"cas_no": "331-62-4", "cn_name": "3-\u6c1f-4-\u7532\u6c27\u57fa\u82ef\u8148", "en_name": ["3-Fluoro-4-methoxybenzonitrile", "Benzonitrile, 3-fluoro-4-methoxy-", "p-Anisonitrile, 3-fluoro-", "3-Fluoro-4-methoxybenzonitrile", "4-Methoxy-3-fluorobenzonitrile"], "SMILES": "C(#N)C1=CC(F)=C(OC)C=C1", "physical_data": {"Molecular Weight": "151.14", "Molecular Formula": "C8H6FNO", "Boiling Point": "96-98 \u00b0C @ Press: 1.5 Torr", "Melting Point": "96.5 \u00b0C"}}