{"cas_no": "331-64-6", "cn_name": "2-\u6c1f-4-\u7532\u6c27\u57fa\u82ef\u7532\u919b", "en_name": ["2-Fluoro-4-methoxybenzaldehyde", "Benzaldehyde, 2-fluoro-4-methoxy-", "p-Anisaldehyde, 2-fluoro-", "2-Fluoro-4-methoxybenzaldehyde", "4-Methoxy-2-fluorobenzaldehyde"], "SMILES": "O(C)C1=CC(F)=C(C=O)C=C1", "physical_data": {"Molecular Weight": "154.14", "Molecular Formula": "C8H7FO2", "Melting Point": "47 \u00b0C"}}