{"cas_no": "331-25-9", "cn_name": "3-\u6c1f\u82ef\u4e59\u9178", "en_name": ["3-Fluorophenylacetic acid", "Benzeneacetic acid, 3-fluoro-", "Acetic acid, (m-fluorophenyl)-", "3-Fluorobenzeneacetic acid", "3-Fluorophenylacetic acid", "(m-Fluorophenyl)acetic acid", "m-Fluorophenylacetic acid", "NSC 88344", "2-(3-Fluorophenyl)acetic acid", "m-Fluorobenzeneacetic acid"], "SMILES": "C(C(O)=O)C1=CC(F)=CC=C1", "physical_data": {"Molecular Weight": "154.14", "Molecular Formula": "C8H7FO2", "Melting Point": "43 \u00b0C"}}