{"cas_no": "33105-81-6", "cn_name": "DL-\u53d4\u4eae\u6c28\u9178", "en_name": ["tert-Leucine", "Valine, 3-methyl-", "DL-Valine, 3-methyl-", "Butyric acid, 2-amino-3,3-dimethyl-, DL-", "3-Methylvaline", "DL-Pseudoleucine", "DL-tert-Leucine", "DL-3,3,3-Trimethyl-2-aminopropionate", "DL-Terleucine", "DL-tert-Leucine", "Pseudoleucine", "tert-Leucine", "\u03c8-Leucine", "2-Amino-3,3-dimethylbutanoic acid", "tert-Butylglycine", "DL-tert-Butyl-Glycine"], "SMILES": "C(C(C)(C)C)(C(O)=O)N", "physical_data": {"Molecular Weight": "131.17", "Molecular Formula": "C6H13NO2", "Melting Point": "&gt;300 \u00b0C"}}