{"cas_no": "33100-27-5", "cn_name": "15-\u51a0\u919a-5", "en_name": ["15-Crown-5", "1,4,7,10,13-Pentaoxacyclopentadecane", "15-Crown-5", "15-Crown-5 ether", "Ethylene oxide cyclic pentamer", "15C5", "Crown Ether O 15"], "SMILES": "C1COCCOCCOCCOCCO1", "physical_data": {"Molecular Weight": "220.26", "Molecular Formula": "C10H20O5", "Boiling Point": "100-135 \u00b0C", "Density": "1.324 g/cm\u00b3"}}