{"cas_no": "3310-41-6", "cn_name": "2-\u7f9f\u57fa-4-\u80bc\u57fa\u5627\u5576", "en_name": ["6-Hydrazinyl-2(1H)-pyrimidinone", "2(1H)-Pyrimidinone, 6-hydrazinyl-", "2(1H)-Pyrimidinone, 4-hydrazino-", "2,4(1H,3H)-Pyrimidinedione, 4-hydrazone", "6-Hydrazinyl-2(1H)-pyrimidinone", "N4-Aminocytosine", "4-(Hydrazino)pyrimidin-2(1H)-one"], "SMILES": "N(N)=C1NC(=O)NC=C1", "physical_data": {"Molecular Weight": "126.12", "Molecular Formula": "C4H6N4O", "Melting Point": "305-310 \u00b0C (decomp)"}}