{"cas_no": "33119-72-1", "cn_name": "1-\u6c28\u57fa-3,3-\u4e8c\u7532\u57fa-2-\u4e01\u916e\u76d0\u9178\u76d0", "en_name": ["1-Amino-3,3-dimethyl-2-butanone hydrochloride", "2-Butanone, 1-amino-3,3-dimethyl-, hydrochloride (1:1)", "2-Butanone, 1-amino-3,3-dimethyl-, hydrochloride", "1-Amino-3,3-dimethyl-2-butanone hydrochloride", "\u03b1-Aminopinacolone hydrochloride"], "SMILES": "C(C(C)(C)C)(CN)=O.Cl", "physical_data": {"Molecular Weight": "", "Molecular Formula": "C6H13NO.ClH", "Melting Point": "205 \u00b0C"}}