{"cas_no": "3312-77-4", "cn_name": "\u6b63\u5341\u516d\u70f7\u57fa\u786b\u919a", "en_name": ["1-(Hexadecylthio)hexadecane", "Hexadecane, 1-(hexadecylthio)-", "Hexadecyl sulfide", "Hexadecane, 1,1\u2032-thiobis-", "1-(Hexadecylthio)hexadecane", "Dihexadecyl sulfide", "Di-n-hexadecyl sulfide", "Dicetyl sulfide", "NSC 12044"], "SMILES": "S(CCCCCCCCCCCCCCCC)CCCCCCCCCCCCCCCC", "physical_data": {"Molecular Weight": "482.93", "Molecular Formula": "C32H66S", "Melting Point": "62 \u00b0C"}}