{"cas_no": "3312-60-5", "cn_name": "N-(3-\u6c28\u4e19\u57fa)\u73af\u5df1\u80fa", "en_name": ["N-Cyclohexyl-1,3-propanediamine", "1,3-Propanediamine, N1-cyclohexyl-", "1,3-Propanediamine, N-cyclohexyl-", "N1-Cyclohexyl-1,3-propanediamine", "N-Cyclohexyl-1,3-propylenediamine", "1-(Cyclohexylamino)-3-aminopropane", "N-(3-Aminopropyl)cyclohexylamine", "N-Cyclohexyl-1,3-propanediamine", "3-(Cyclohexylamino)-1-propylamine", "N-Cyclohexyl-1,3-diaminopropane", "3-Amino-1-(cyclohexylamino)propane", "N-Cyclohexyltrimethylenediamine", "Polycat 352", "(Cyclohexylamino)propylamine", "N-(3-Aminopropyl)cyclohexanamine", "Laromin C 252", "N-(3-Aminopropyl)-N-cyclohexylamine", "3-(Cyclohexylamino)propylamine", "NSC 87572", "Baxxodur EC 252", "EC 252"], "SMILES": "N(CCCN)C1CCCCC1", "physical_data": {"Molecular Weight": "156.27", "Molecular Formula": "C9H20N2", "Boiling Point": "85-89 \u00b0C @ Press: 2 Torr", "Melting Point": "153.7 \u00b0C"}}