{"cas_no": "33125-97-2", "cn_name": "\u4f9d\u6258\u54aa\u916f", "en_name": ["Etomidate", "1H-Imidazole-5-carboxylic acid, 1-[(1R)-1-phenylethyl]-, ethyl ester", "Imidazole-5-carboxylic acid, 1-(\u03b1-methylbenzyl)-, ethyl ester, (R)-(+)-", "1H-Imidazole-5-carboxylic acid, 1-(1-phenylethyl)-, ethyl ester, (R)-", "Etomidate", "R 16659", "(+)-Etomidate", "d-Etomidate", "D-Etomidate", "Hypnomidate", "Amidate", "Amidate (pharmaceutical)", "Radenarcon", "Propiscin", "Lipuro", "R-(+)-Etomidate", "1H-Imidazole-5-carboxylic acid 1-[(1R)-1-phenylethyl]-, ethyl ester", "(R)-Ethyl 1-(1-phenylethyl)-1H-imidazole-5-carboxylate", "MeSH ID: D005045"], "SMILES": "C(C)(N1C(C(OCC)=O)=CN=C1)C2=CC=CC=C2", "physical_data": {"Molecular Weight": "244.29", "Molecular Formula": "C14H16N2O2", "Boiling Point": "160-162 \u00b0C @ Press: 1 Torr", "Melting Point": "67 \u00b0C"}}