{"cas_no": "3312-04-7", "cn_name": "4,4,-\u4e8c(4-\u6c1f\u82ef)\u6c2f\u4e01\u70f7", "en_name": ["4,4-Bis(4-fluorophenyl)-1-chlorobutane", "Benzene, 1,1\u2032-(4-chlorobutylidene)bis[4-fluoro-", "Butane, 4-chloro-1,1-bis(p-fluorophenyl)-", "1,1\u2032-(4-Chlorobutylidene)bis[4-fluorobenzene]", "1,1-Bis(p-fluorophenyl)-4-chlorobutane", "4-Chloro-1,1-bis(4-fluorophenyl)butane", "1-Chloro-4,4-bis(4-fluorophenyl)butane", "4-Chloro-1,1-bis(p-fluorophenyl)butane", "4,4-Bis(4-fluorophenyl)butyl chloride", "4,4-Bis(4-fluorophenyl)-1-chlorobutane", "4,4\u2032-(4-chlorobutane-1,1-diyl)bis(fluorobenzene)", "1,1\u2032-(4-chlorobutane-1,1-diyl)bis(4-fluorobenzene)", "1-[4-Chloro-1-(4-fluorophenyl)butyl]-4-fluorobenzene"], "SMILES": "C(CCCCl)(C1=CC=C(F)C=C1)C2=CC=C(F)C=C2", "physical_data": {"Molecular Weight": "280.74", "Molecular Formula": "C16H15ClF2", "Boiling Point": "166-168 \u00b0C @ Press: 6 Torr", "Density": "1.2039 g/cm\u00b3 @ Temp: 20 \u00b0C"}}