{"cas_no": "33130-04-0", "cn_name": "3-(2,3,4-\u4e09\u7532\u6c27\u57fa\u82ef\u57fa)\u4e19\u9178", "en_name": ["2,3,4-Trimethoxybenzenepropanoic acid", "Benzenepropanoic acid, 2,3,4-trimethoxy-", "2,3,4-Trimethoxybenzenepropanoic acid", "3-(2,3,4-Trimethoxyphenyl)propionic acid", "2,3,4-Trimethoxyhydrocinnamic acid", "3-(2,3,4-Trimethoxyphenyl)propanoic acid", "3-(2\u2032,3\u2032,4\u2032-Trimethoxyphenyl)propanoic acid"], "SMILES": "O(C)C1=C(OC)C(OC)=CC=C1CCC(O)=O", "physical_data": {"Molecular Weight": "240.25", "Molecular Formula": "C12H16O5", "Melting Point": "76 \u00b0C"}}