{"cas_no": "33130-03-9", "cn_name": "2,3,4-\u4e09\u7532\u6c27\u57fa\u8089\u6842\u9178", "en_name": ["3-(2,3,4-Trimethoxyphenyl)-2-propenoic acid", "2-Propenoic acid, 3-(2,3,4-trimethoxyphenyl)-", "3-(2,3,4-Trimethoxyphenyl)-2-propenoic acid", "2,3,4-Trimethoxycinnamic acid", "3-(2,3,4-Trimethoxyphenyl)propenoic acid"], "SMILES": "O(C)C1=C(OC)C(OC)=CC=C1C=CC(O)=O", "physical_data": {"Molecular Weight": "238.24", "Molecular Formula": "C12H14O5", "Melting Point": "172 \u00b0C"}}