{"cas_no": "33135-50-1", "cn_name": "\u805a\u4e59\u9187\u9178(\u805a\u4e59\u4ea4\u916f)", "en_name": ["L-Lactide homopolymer", "1,4-Dioxane-2,5-dione, 3,6-dimethyl-, (3S,6S)-, homopolymer", "1,4-Dioxane-2,5-dione, 3,6-dimethyl-, (3S-cis)-, homopolymer", "p-Dioxane-2,5-dione, 3,6-dimethyl-, (S,S)-, polyesters", "Poly-L-lactide", "L-Lactide polymer", "L-Polylactide", "(S)-Lactide homopolymer", "L-Lactide homopolymer", "L-Dilactide homopolymer", "Isotactic polylactide", "l-Lactide polymer", "Purasorb L homopolymer", "L,L-Dilactide homopolymer", "LL-Lactide homopolymer", "Resomer L 210S", "Poly(L-lactide)", "Resomer L 214S", "L-Lactide isotactic homopolymer"], "SMILES": "CC1C(=O)OC(C)C(=O)O1", "physical_data": {"Molecular Weight": "", "Molecular Formula": "(C6H8O4)x", "Melting Point": "153 \u00b0C", "Density": "1.27 g/cm\u00b3"}}