{"cas_no": "3314-35-0", "cn_name": "3-\u6c28\u57fa-4,5-\u4e8c\u6c22-1-\u82ef\u57fa\u5421\u5511", "en_name": ["3-Amino-1-phenyl-2-pyrazoline", "1H-Pyrazol-3-amine, 4,5-dihydro-1-phenyl-", "2-Pyrazoline, 3-amino-1-phenyl-", "4,5-Dihydro-1-phenyl-1H-pyrazol-3-amine", "3-Amino-1-phenyl-2-pyrazoline", "3-Amino-1-phenylpyrazoline", "3-Amino-1-phenyl-4,5-dihydropyrazole", "NSC 162874", "1-Phenyl-4,5-dihydro-1H-pyrazol-3-amine", "2-Phenyl-3,4-dihydropyrazol-5-amine"], "SMILES": "NC1=NN(CC1)C2=CC=CC=C2", "physical_data": {"Molecular Weight": "161.20", "Molecular Formula": "C9H11N3", "Melting Point": "169 \u00b0C"}}