{"cas_no": "33146-45-1", "cn_name": "2,6-\u4e8c\u6c2f\u8054\u82ef", "en_name": ["PCB 10", "1,1\u2032-Biphenyl, 2,6-dichloro-", "Biphenyl, 2,6-dichloro-", "2,6-Dichloro-1,1\u2032-biphenyl", "2,6-Dichlorobiphenyl", "PCB 10"], "SMILES": "ClC1=C(C(Cl)=CC=C1)C2=CC=CC=C2", "physical_data": {"Molecular Weight": "223.10", "Molecular Formula": "C12H8Cl2", "Melting Point": "36 \u00b0C"}}