{"cas_no": "3314-30-5", "cn_name": "\u82ef\u5e76\u54aa\u5511-2-\u7532\u919b", "en_name": ["1H-Benzimidazole-2-carboxaldehyde", "1H-Benzimidazole-2-carboxaldehyde", "2-Benzimidazolecarboxaldehyde", "Benzimidazole-2-carbaldehyde", "2-Formylbenzimidazole", "2-Benzimidazolylformaldehyde", "NSC 26309", "NSC 405912", "1H-Benzimidazole-2-carbaldehyde", "1H-1,3-Benzodiazole-2-carbaldehyde"], "SMILES": "C(=O)C=1NC=2C(N1)=CC=CC2", "physical_data": {"Molecular Weight": "146.15", "Molecular Formula": "C8H6N2O", "Melting Point": "235 \u00b0C (decomp)"}}