{"cas_no": "33142-21-1", "cn_name": "(\u6c2f\u7532\u9170\u57fa)\u4e59\u9178\u4e59\u916f", "en_name": ["Ethyl 2-chloro-3-oxopropanoate", "Propanoic acid, 2-chloro-3-oxo-, ethyl ester", "Malonaldehydic acid, chloro-, ethyl ester", "Ethyl chloromalonaldehydate", "Ethyl 2-chloro-3-oxopropionate", "Ethyl 2-chloro-2-formylacetate", "Ethyl formylchloroacetate", "Ethyl 2-chloro-3-oxopropanoate", "Ethyl \u03b1-formyl-\u03b1-chloroacetate", "2-Chloro-3-oxopropanoic acid ethyl ester", "2-Chloro-2-formylacetic acid ethyl ester"], "SMILES": "C(C(C=O)Cl)(OCC)=O", "physical_data": {"Molecular Weight": "150.56", "Molecular Formula": "C5H7ClO3", "Boiling Point": "68-70 \u00b0C @ Press: 20 Torr", "Melting Point": "88-90 \u00b0C"}}