{"cas_no": "3316-24-3", "cn_name": "1-(2-\u7532\u6c27\u82ef\u57fa)-2-\u785d\u57fa\u4e59\u70ef", "en_name": ["2-Methoxy-\u03b2-nitrostyrene", "Benzene, 1-methoxy-2-(2-nitroethenyl)-", "Anisole, o-(2-nitrovinyl)-", "1-Methoxy-2-(2-nitroethenyl)benzene", "o-Methoxy-\u03b2-nitrostyrene", "2-(2-Nitrovinyl)anisole", "2-Methoxy-\u03b2-nitrostyrene", "NSC 170699", "NSC 59450", "1-Methoxy-2-(2-nitrovinyl)benzene", "1-Nitro-2-(2-methoxyphenyl)ethylene", "1-(2-Methoxyphenyl)-2-nitroethene"], "SMILES": "C(=CN(=O)=O)C1=C(OC)C=CC=C1", "physical_data": {"Molecular Weight": "179.17", "Molecular Formula": "C9H9NO3", "Melting Point": "47-47.5 \u00b0C"}}