{"cas_no": "3316-09-4", "cn_name": "4-\u785d\u57fa\u513f\u8336\u915a", "en_name": ["4-Nitrocatechol", "1,2-Benzenediol, 4-nitro-", "Pyrocatechol, 4-nitro-", "4-Nitro-1,2-benzenediol", "4-Nitropyrocatechol", "4-Nitrocatechol", "4-Nitro-1,2-dihydroxybenzene", "1,2-Dihydroxy-4-nitrobenzene", "3,4-Dihydroxynitrobenzene", "p-Nitrocatechol", "4-Nitrobenzcatechin", "NSC 80651", "3,4-Dihydroxy-1-nitrobenzene"], "SMILES": "N(=O)(=O)C1=CC(O)=C(O)C=C1", "physical_data": {"Molecular Weight": "155.11", "Molecular Formula": "C6H5NO4", "Melting Point": "174-176 \u00b0C"}}