{"cas_no": "33173-53-4", "cn_name": "4-\u53e0\u6c2e\u57fa-L-\u82ef\u4e19\u6c28\u9178", "en_name": ["p-Azido-L-phenylalanine", "L-Phenylalanine, 4-azido-", "Alanine, 3-(p-azidophenyl)-, L-", "4-Azido-L-phenylalanine", "p-Azidophenylalanine", "p-Azido-L-phenylalanine", "4-Azidophenylalanine", "(S)-2-Amino-3-(4-azidophenyl)propanoic acid", "(2S)-2-Amino-3-(4-azidophenyl)propanoic acid"], "SMILES": "C(C(C(O)=O)N)C1=CC=C(N=[N+]=[N-])C=C1", "physical_data": {"Molecular Weight": "", "Molecular Formula": "C9H10N4O2", "Melting Point": "186-191 \u00b0C"}}