{"cas_no": "3317-61-1", "cn_name": "5,5-\u4e8c\u7532\u57fa-1-\u5421\u54af\u5549-N-\u6c27\u5316\u7269", "en_name": ["5,5-Dimethyl-1-pyrroline N-oxide", "2H-Pyrrole, 3,4-dihydro-2,2-dimethyl-, 1-oxide", "1-Pyrroline, 5,5-dimethyl-, 1-oxide", "5,5-Dimethyl-1-pyrroline 1-oxide", "5,5-Dimethyl-\u03941-pyrroline N-oxide", "5,5-Dimethyl-\u03941-pyrroline 1-oxide", "5,5-Dimethyl-1-pyrroline N-oxide", "DMPO", "2,2-Dimethyl-3,4-dihydro-2H-pyrrole N-oxide", "5,5-Dimethyl-4,5-dihydro-3H-pyrrole N-oxide", "A 2008L", "2,2-Dimethyl-1-oxido-3,4-dihydropyrrol-1-ium", "2,2-Dimethyl-3,4-dihydro-2H-pyrrol-1-ium-1-olate", "5,5-Dimethylpyrroline-N-oxide"], "SMILES": "CC1(C)N(=O)=CCC1", "physical_data": {"Molecular Weight": "113.16", "Molecular Formula": "C6H11NO", "Boiling Point": "66-67 \u00b0C @ Press: 0.6 Torr"}}