{"cas_no": "331741-94-7", "cn_name": "\u83ab\u683c\u4ed6\u5511", "en_name": ["Muraglitazar", "Glycine, N-[(4-methoxyphenoxy)carbonyl]-N-[[4-[2-(5-methyl-2-phenyl-4-oxazolyl)ethoxy]phenyl]methyl]-", "N-[(4-Methoxyphenoxy)carbonyl]-N-[[4-[2-(5-methyl-2-phenyl-4-oxazolyl)ethoxy]phenyl]methyl]glycine", "BMS 298585", "Muraglitazar", "Pargluva"], "SMILES": "C(COC1=CC=C(CN(C(OC2=CC=C(OC)C=C2)=O)CC(O)=O)C=C1)C=3N=C(OC3C)C4=CC=CC=C4", "physical_data": {"Molecular Weight": "516.54", "Molecular Formula": "C29H28N2O7", "Melting Point": "139.1-140.2 \u00b0C"}}