{"cas_no": "3317-67-7", "cn_name": "\u915e\u83c1\u94b4", "en_name": ["Cobalt phthalocyanine", "Cobalt, [29H,31H-phthalocyaninato(2-)-\u03baN29,\u03baN30,\u03baN31,\u03baN32]-, (SP-4-1)-", "Cobalt, [phthalocyaninato(2-)]-", "Cobalt, [29H,31H-phthalocyaninato(2-)-N29,N30,N31,N32]-, (SP-4-1)-", "Phthalocyanine, cobalt deriv.", "29H,31H-Phthalocyanine, cobalt complex", "29H,31H-Phthalocyanine, cobalt deriv.", "(SP-4-1)-[29H,31H-Phthalocyaninato(2-)-\u03baN29,\u03baN30,\u03baN31,\u03baN32]cobalt", "Cobalt phthalocyanine", "Cobalt phthalocyanin", "Cobalt(II) phthalocyanine", "[Phthalocyaninato(2-)]cobalt", "Phthalocyaninatocobalt(II)", "Cobaltous phthalocyanine", "Cobalt(2+) phthalocyanine", "Phthalocyanine cobalt complex", "Phthalocyanine cobalt", "C.I. 74160:2", "C.I. Pigment Blue 75", "Pigment Blue 75", "Sanyo O 270", "O 270", "Chromofine Blue 5000P", "KJB 001", "NSC 187643", "[29H,31H-Phthalocyaninato(2-)-\u03baN29,\u03baN30,\u03baN31,\u03baN32]cobalt", "Cobalt(2+) phthalocyaninate", "Cobalt Phthalocyanine Blue"], "SMILES": "[Co+2]123[N-]4C=5C=6C(C4=NC7=[N]1C(=NC=8[N-]2C(=C9C8C=CC=C9)N=C%10[N]3=C(N5)C=%11C%10=CC=CC%11)C=%12C7=CC=CC%12)=CC=CC6", "physical_data": {"Molecular Weight": "", "Molecular Formula": "C32H16CoN8", "Melting Point": "&gt;300 \u00b0C"}}