{"cas_no": "33171-05-0", "cn_name": "\u53cc\u53bb\u7532\u6c27\u57fa\u59dc\u9ec4\u7d20", "en_name": ["Bisdemethoxycurcumin", "1,6-Heptadiene-3,5-dione, 1,7-bis(4-hydroxyphenyl)-, (1E,6E)-", "1,6-Heptadiene-3,5-dione, 1,7-bis(p-hydroxyphenyl)-, (E,E)-", "(1E,6E)-1,7-Bis(4-hydroxyphenyl)-1,6-heptadiene-3,5-dione", "Bisdemethoxycurcumin", "Curcumin III", "Didemethoxycurcumin", "Bisdesmethoxycurcumin", "(1E,6E)-Bis(demethoxy)curcumin"], "SMILES": "C(=CC(CC(C=CC1=CC=C(O)C=C1)=O)=O)C2=CC=C(O)C=C2", "physical_data": {"Molecular Weight": "308.33", "Molecular Formula": "C19H16O4", "Melting Point": "224 \u00b0C"}}