{"cas_no": "331767-56-7", "cn_name": "4-BOC-1-(6-\u6eb4-2-\u5421\u5576\u57fa)\u54cc\u55ea", "en_name": ["1,1-Dimethylethyl 4-(6-bromo-2-pyridinyl)-1-piperazinecarboxylate", "1-Piperazinecarboxylic acid, 4-(6-bromo-2-pyridinyl)-, 1,1-dimethylethyl ester", "1,1-Dimethylethyl 4-(6-bromo-2-pyridinyl)-1-piperazinecarboxylate", "tert-Butyl 4-(6-bromopyridin-2-yl)piperazine-1-carboxylate", "4-(6-Bromopyridin-2-yl)piperazine-1-carboxylic acid tert-butyl ester"], "SMILES": "BrC1=NC(N2CCN(C(OC(C)(C)C)=O)CC2)=CC=C1", "physical_data": {"Molecular Weight": "342.23", "Molecular Formula": "C14H20BrN3O2", "Melting Point": "51-53 \u00b0C"}}