{"cas_no": "33170-72-8", "cn_name": "2-\u6eb4-1,1-\u4e8c\u7532\u6c27\u57fa\u4e19\u70f7", "en_name": ["2-Bromo-1,1-dimethoxypropane", "Propane, 2-bromo-1,1-dimethoxy-", "Propionaldehyde, 2-bromo-, dimethyl acetal", "2-Bromo-1,1-dimethoxypropane", "2-Bromopropanal dimethyl acetal"], "SMILES": "C(C(Br)C)(OC)OC", "physical_data": {"Molecular Weight": "183.04", "Molecular Formula": "C5H11BrO2", "Boiling Point": "52 \u00b0C @ Press: 12 Torr", "Density": "1.360 g/cm\u00b3 @ Temp: 20 \u00b0C"}}