{"cas_no": "33173-55-6", "cn_name": "BOC-4-\u53e0\u6c2e-PHE-OH", "en_name": ["4-Azido-N-[(1,1-dimethylethoxy)carbonyl]-L-phenylalanine", "L-Phenylalanine, 4-azido-N-[(1,1-dimethylethoxy)carbonyl]-", "Alanine, 3-(p-azidophenyl)-N-carboxy-, N-tert-butyl ester, L-", "4-Azido-N-[(1,1-dimethylethoxy)carbonyl]-L-phenylalanine", "(S)-3-(4-Azidophenyl)-2-[(tert-butoxycarbonyl)amino]propionic acid", "(2S)-3-(4-Azidophenyl)-2-[(tert-butoxycarbonyl)amino]propionic acid", "(2S)-3-(4-Azidophenyl)-2-[(2-methylpropan-2-yl)oxycarbonylamino]propanoic acid"], "SMILES": "C(C(NC(OC(C)(C)C)=O)C(O)=O)C1=CC=C(N=[N+]=[N-])C=C1", "physical_data": {"Molecular Weight": "", "Molecular Formula": "C14H18N4O4", "Melting Point": "84 \u00b0C"}}