{"cas_no": "33189-72-9", "cn_name": "\u918b\u9178(E)-11-\u5341\u56db\u70ef\u916f", "en_name": ["(E)-11-Tetradecenyl acetate", "11-Tetradecen-1-ol, 1-acetate, (11E)-", "11-Tetradecen-1-ol, acetate, (E)-", "11-Tetradecen-1-ol, acetate, (11E)-", "trans-11-Tetradecenyl acetate", "(E)-11-Tetradecenyl acetate", "trans-11-Tetradecen-1-yl acetate", "trans-11-Tetradecenol acetate", "trans-11-Tetradecen-1-ol acetate", "(E)-11-Tetradecen-1-ol acetate", "(E)-11-Tetradecen-1-yl acetate", "11E-Tetradecenyl acetate", "(11E)-11-Tetradecen-1-ol acetate"], "SMILES": "C(CCCCCCC=CCC)CCCOC(C)=O", "physical_data": {"Molecular Weight": "254.41", "Molecular Formula": "C16H30O2", "Boiling Point": "117 \u00b0C", "Melting Point": "&lt;25 \u00b0C"}}