{"cas_no": "3318-61-4", "cn_name": "1-\u82ef\u57fa-2,4-\u620a\u70f7\u4e8c\u916e", "en_name": ["1-Phenyl-2,4-pentanedione", "2,4-Pentanedione, 1-phenyl-", "1-Phenyl-2,4-pentanedione", "1-Benzyl-1,3-butanedione", "(Phenylacetyl)acetone"], "SMILES": "C(C(CC(C)=O)=O)C1=CC=CC=C1", "physical_data": {"Molecular Weight": "176.21", "Molecular Formula": "C11H12O2", "Boiling Point": "96-100 \u00b0C @ Press: 2.5 Torr"}}