{"cas_no": "3319-15-1", "cn_name": "4-\u7532\u6c27\u57fa-\u03b1-\u7532\u57fa\u82ef\u7532\u9187", "en_name": ["1-(4-Methoxyphenyl)ethanol", "Benzenemethanol, 4-methoxy-\u03b1-methyl-", "Benzyl alcohol, p-methoxy-\u03b1-methyl-", "p-Anisyl alcohol, \u03b1-methyl-", "4-Methoxy-\u03b1-methylbenzenemethanol", "1-(4-Methoxyphenyl)ethanol", "1-Hydroxyethyl-4-methoxybenzene", "\u03b1-Methyl-4-methoxybenzyl alcohol", "p-Methoxy-\u03b1-methylbenzyl alcohol", "1-(p-Anisyl)ethanol", "(4-Methoxyphenyl)methylcarbinol", "p-Methoxyphenyl methyl carbinol", "p-Methoxy-\u03b1-phenylethanol", "1-(p-Methoxyphenyl)ethanol", "(\u00b1)-1-(4-Methoxyphenyl)-1-ethanol", "1-(4-Methoxyphenyl)ethan-1-ol", "4-Methoxy-\u03b1-methylbenzyl alcohol", "(\u00b1)-1-(4-Methoxyphenyl)ethanol", "NSC 406712", "(\u00b1)-1-(p-Methoxyphenyl)ethanol", "\u03b1-Methyl-4-methoxybenzenemethanol"], "SMILES": "C(C)(O)C1=CC=C(OC)C=C1", "physical_data": {"Molecular Weight": "152.19", "Molecular Formula": "C9H12O2", "Boiling Point": "142-143 \u00b0C @ Press: 23 Torr", "Density": "1.0953 g/cm\u00b3 @ Temp: 0 \u00b0C"}}