{"cas_no": "3319-31-1", "cn_name": "\u504f\u82ef\u4e09\u9178\u4e09\u8f9b\u916f", "en_name": ["Trioctyl trimellitate", "1,2,4-Benzenetricarboxylic acid, 1,2,4-tris(2-ethylhexyl) ester", "1,2,4-Benzenetricarboxylic acid, tris(2-ethylhexyl) ester", "Staflex TOTM", "Tris(2-ethylhexyl) trimellitate", "Morflex 510", "Trimex T 08", "Tri-2-ethylhexyl trimellitate", "Kodaflex TOTM", "Monocizer W 710L", "Hatcol 200", "TOTM", "ADK Cizer TOTM", "Nuoplaz 6959", "Octyl trimellitate", "Trioctyl trimellitate", "Bisoflex TOT", "Adekacizer TOTM", "Reomol OTM", "Sansocizer TOTM", "Plasthall TOTM", "TOTM-I", "Uniplex 546A", "Monocizer W 700", "Pelemol TOTM", "TOTM-NB", "Diplast TM/ST", "Tris(octyl) trimellitate", "Monocizer W 705", "Codan Set 43.4400", "W 700", "T 08", "Trioctyl 1,2,4-benzenetricarboxylate", "W 705", "Eastman TOTM", "TM 150", "Uniplex 546", "Palatinol TOTM", "2-Ethylhexyl trimellitate", "ADK Cizer C 8", "Adekacizer C 8", "TOTM-D", "Alcanplast TOTM", "T 60 (plasticizer)", "T 60"], "SMILES": "C(OCC(CCCC)CC)(=O)C1=C(C(OCC(CCCC)CC)=O)C=CC(C(OCC(CCCC)CC)=O)=C1", "physical_data": {"Molecular Weight": "546.78", "Molecular Formula": "C33H54O6", "Boiling Point": "414 \u00b0C"}}