{"cas_no": "3319-99-1", "cn_name": "2-(2-\u567b\u5429)\u5421\u5576", "en_name": ["2-(2-Thienyl)pyridine", "Pyridine, 2-(2-thienyl)-", "2-(2-Thienyl)pyridine", "2-(2\u2032-Thienyl)pyridine", "2-(2-Pyridinyl)thiophene", "2-(2-Pyridyl)thiophene", "2-Thiophen-2-ylpyridine", "2-(Thiophen-2-yl)pyridine"], "SMILES": "C1(=CC=CS1)C2=CC=CC=N2", "physical_data": {"Molecular Weight": "161.22", "Molecular Formula": "C9H7NS", "Boiling Point": "103-106 \u00b0C @ Press: 1 Torr", "Melting Point": "61.5 \u00b0C"}}