{"cas_no": "3319-01-5", "cn_name": "1-\u73af\u5df1\u57fa\u54cc\u5576", "en_name": ["Cyclohexylpiperidine", "Piperidine, 1-cyclohexyl-", "1-Cyclohexylpiperidine", "N-Cyclohexylpiperidine", "Cyclohexylpiperidine", "NSC 93942"], "SMILES": "C1(CCCCC1)N2CCCCC2", "physical_data": {"Molecular Weight": "167.29", "Molecular Formula": "C11H21N", "Boiling Point": "110-111 \u00b0C @ Press: 14 Torr", "Melting Point": "73-74 \u00b0C", "Density": "0.9250 g/cm\u00b3 @ Temp: 20 \u00b0C"}}