{"cas_no": "332-77-4", "cn_name": "2,5-\u4e8c\u7532\u6c27\u57fa-2,5-\u4e8c\u6c22\u544b\u5583", "en_name": ["2,5-Dimethoxy-2,5-dihydrofuran", "Furan, 2,5-dihydro-2,5-dimethoxy-", "2,5-Dihydro-2,5-dimethoxyfuran", "2,5-Dimethoxy-2,5-dihydrofuran", "NSC 43243"], "SMILES": "O(C)C1OC(OC)C=C1", "physical_data": {"Molecular Weight": "130.14", "Molecular Formula": "C6H10O3", "Boiling Point": "161 \u00b0C", "Density": "1.073 g/cm\u00b3 @ Temp: 20 \u00b0C"}}