{"cas_no": "332-51-4", "cn_name": "2-[(4-\u6c1f\u82ef\u57fa\uff09\u786b\u4ee3]\u4e59\u9178", "en_name": ["2-[(4-Fluorophenyl)thio]acetic acid", "Acetic acid, 2-[(4-fluorophenyl)thio]-", "Acetic acid, [(p-fluorophenyl)thio]-", "Acetic acid, [(4-fluorophenyl)thio]-", "2-[(4-Fluorophenyl)thio]acetic acid", "(p-Fluorophenylmercapto)acetic acid", "[(4-Fluorophenyl)thio]acetic acid", "(p-Fluorophenylthio)acetic acid", "2-(4-Fluorophenylthio)acetic acid", "[(4-Fluorophenyl)sulfanyl]acetic acid", "2-[(4-Fluorophenyl)sulfanyl]acetic acid", "2-(4-Fluorophenyl)sulfanylacetic acid"], "SMILES": "S(CC(O)=O)C1=CC=C(F)C=C1", "physical_data": {"Molecular Weight": "186.20", "Molecular Formula": "C8H7FO2S", "Melting Point": "70 \u00b0C"}}