{"cas_no": "332-80-9", "cn_name": "1-\u7532\u57fa-L-\u7ec4\u6c28\u9178", "en_name": ["1-Methyl-L-histidine", "L-Histidine, 1-methyl-", "Histidine, 1-methyl-, L-", "1-Methyl-L-histidine", "1-Methylhistidine", "1-N-Methyl-L-histidine", "N1-Methyl-L-histidine", "NSC 524367", "(S)-2-Amino-3-(1-methyl-1H-imidazol-4-yl)propanoic acid", "\u03c4-Methylhistidine", "\u03c0-N-Methyl-L-histidine", "(2S)-2-Amino-3-(1-methyl-1H-imidazol-4-yl)propanoic acid"], "SMILES": "C(C(C(O)=O)N)C=1N=CN(C)C1", "physical_data": {"Molecular Weight": "169.18", "Molecular Formula": "C7H11N3O2", "Melting Point": "269-270 \u00b0C"}}