{"cas_no": "332-25-2", "cn_name": "4-\u4e09\u6c1f\u7532\u6c27\u57fa\u82ef\u8148", "en_name": ["4-(Trifluoromethoxy)benzonitrile", "Benzonitrile, 4-(trifluoromethoxy)-", "p-Anisonitrile, \u03b1,\u03b1,\u03b1-trifluoro-", "4-(Trifluoromethoxy)benzonitrile", "4-Cyanophenyl trifluoromethyl ether", "\u03b1,\u03b1,\u03b1-Trifluoro-p-anisonitrile", "p-Trifluoromethyloxybenzonitrile"], "SMILES": "O(C(F)(F)F)C1=CC=C(C#N)C=C1", "physical_data": {"Molecular Weight": "187.12", "Molecular Formula": "C8H4F3NO", "Boiling Point": "192.5 \u00b0C"}}