{"cas_no": "332-43-4", "cn_name": "1-\uff082-\u6c2f\u4e59\u57fa\uff09-4-\u6c1f\u82ef", "en_name": ["1-(2-Chloroethyl)-4-fluorobenzene", "Benzene, 1-(2-chloroethyl)-4-fluoro-", "1-(2-Chloroethyl)-4-fluorobenzene", "4-Fluorophenethyl chloride", "p-Fluorophenethyl chloride"], "SMILES": "C(CCl)C1=CC=C(F)C=C1", "physical_data": {"Molecular Weight": "158.60", "Molecular Formula": "C8H8ClF", "Boiling Point": "80 \u00b0C @ Press: 30 Torr"}}