{"cas_no": "332-48-9", "cn_name": "4-\u6c1f\u82ef\u6c27\u57fa-\u4e59\u57fa\u6eb4", "en_name": ["1-(2-Bromoethoxy)-4-fluorobenzene", "Benzene, 1-(2-bromoethoxy)-4-fluoro-", "Phenetole, \u03b2-bromo-p-fluoro-", "1-(2-Bromoethoxy)-4-fluorobenzene", "\u03b2-Bromo-p-fluorophenetole", "2-(4-Fluorophenoxy)ethyl bromide", "1-Bromo-2-(4-fluorophenoxy)ethane"], "SMILES": "O(CCBr)C1=CC=C(F)C=C1", "physical_data": {"Molecular Weight": "219.05", "Molecular Formula": "C8H8BrFO", "Boiling Point": "123 \u00b0C @ Press: 16 Torr", "Melting Point": "58-60 \u00b0C"}}