{"cas_no": "33203-82-6", "cn_name": "\u9633\u79bb\u5b50\u7fe0\u84ddGB", "en_name": ["Phenoxazin-5-ium, 3,7-bis(diethylamino)-, chloride (1:1)", "Phenoxazin-5-ium, 3,7-bis(diethylamino)-, chloride (1:1)", "Ammonium, [7-(diethylamino)-3H-phenoxazin-3-ylidene]diethyl-, chloride", "Ethanaminium, N-[7-(diethylamino)-3H-phenoxazin-3-ylidene]-N-ethyl-, chloride", "Phenoxazin-5-ium, 3,7-bis(diethylamino)-, chloride", "Diethyl(7-diethylamino-3H-phenoxazin-3-ylidene)ammonium chloride", "3,7-Bis(diethylamino)phenoxazonium chloride", "Cationic Turquoise 2Z", "Rhoduline Basic Blue 3G", "Maxilon Blue"], "SMILES": "N(CC)(CC)C1=CC2=C(N=C3C(=[O+]2)C=C(N(CC)CC)C=C3)C=C1.[Cl-]", "physical_data": {"Molecular Weight": "", "Molecular Formula": "C20H26N3O.Cl", "Melting Point": "194-195 \u00b0C"}}