{"cas_no": "3320-83-0", "cn_name": "\u90bb\u6c2f\u82ef\u5f02\u6c30\u9178\u916f", "en_name": ["2-Chlorophenyl isocyanate", "Benzene, 1-chloro-2-isocyanato-", "Isocyanic acid, o-chlorophenyl ester", "Isoacyanic acid, o-chlorophenyl ester", "1-Chloro-2-isocyanatobenzene", "o-Chlorophenyl isocyanate", "2-Chlorophenyl isocyanate", "NSC 8761", "2-Chlorobenzene isocyanate"], "SMILES": "N(=C=O)C1=C(Cl)C=CC=C1", "physical_data": {"Molecular Weight": "153.57", "Molecular Formula": "C7H4ClNO", "Boiling Point": "200 \u00b0C", "Melting Point": "30.5 \u00b0C"}}