{"cas_no": "3320-87-4", "cn_name": "3-\u785d\u57fa\u82ef\u5f02\u6c22\u9178\u916f", "en_name": ["3-Nitrophenyl isocyanate", "Benzene, 1-isocyanato-3-nitro-", "Isocyanic acid, m-nitrophenyl ester", "1-Isocyanato-3-nitrobenzene", "m-Nitrophenyl isocyanate", "3-Nitrophenyl isocyanate", "1-Nitro-3-isocyanatobenzene", "NSC 5385"], "SMILES": "N(=C=O)C1=CC(N(=O)=O)=CC=C1", "physical_data": {"Molecular Weight": "164.12", "Molecular Formula": "C7H4N2O3", "Boiling Point": "130-131 \u00b0C @ Press: 11 Torr", "Melting Point": "51 \u00b0C"}}