{"cas_no": "3320-86-3", "cn_name": "2-\u785d\u57fa\u82ef\u915a\u5f02\u4e01\u9178\u916f", "en_name": ["2-Nitrophenyl isocyanate", "Benzene, 1-isocyanato-2-nitro-", "Isocyanic acid, o-nitrophenyl ester", "1-Isocyanato-2-nitrobenzene", "o-Nitrophenyl isocyanate", "2-Nitrophenyl isocyanate", "NSC 5384"], "SMILES": "N(=O)(=O)C1=C(N=C=O)C=CC=C1", "physical_data": {"Molecular Weight": "164.12", "Molecular Formula": "C7H4N2O3", "Boiling Point": "135 \u00b0C @ Press: 17 Torr", "Melting Point": "41 \u00b0C"}}