{"cas_no": "33208-99-0", "cn_name": "L-\u4e19\u6c28\u9170\u80fa\u76d0\u9178\u76d0", "en_name": ["L-Alaninamide hydrochloride", "Propanamide, 2-amino-, hydrochloride (1:1), (2S)-", "Propanamide, 2-amino-, monohydrochloride, (S)-", "Alaninamide, monohydrochloride, L-", "Propanamide, 2-amino-, monohydrochloride, (2S)-", "L-Alanine amide hydrochloride", "L-Alaninamide hydrochloride", "Alanine amide hydrochloride", "(S)-2-Aminopropionamide hydrochloride", "(2S)-2-Aminopropanamide hydrochloride", "(2S)-2-Aminopropanamide hydrochloride", "(S)-2-Aminopropanamide hydrochloride", "(S)-Alaninamide hydrochloride"], "SMILES": "C(C(N)=O)(C)N.Cl", "physical_data": {"Molecular Weight": "", "Molecular Formula": "C3H8N2O.ClH", "Melting Point": "196-199 \u00b0C"}}