{"cas_no": "3321-03-7", "cn_name": "\u7518\u6c28\u9170\u82ef\u57fa\u4e19\u6c28\u9178", "en_name": ["Glycylphenylalanine", "L-Phenylalanine, glycyl-", "Alanine, N-glycyl-3-phenyl-, L-", "L-Phenylalanine, N-glycyl-", "Glycyl-L-phenylalanine", "Glycylphenylalanine", "N-Glycyl-L-phenylalanine", "N-Glycylphenylalanine", "NSC 88881", "85: PN: EP2161028 PAGE: 10 claimed protein", "7: PN: WO2014063098 TABLE: 5 claimed protein", "43: PN: US20130123467 SEQID: 48 claimed protein", "(2S)-2-(2-Aminoacetamido)-3-phenylpropanoic acid", "(2S)-2-[(2-Azaniumylacetyl)amino]-3-phenylpropanoate", "(S)-2-(2-Aminoacetamido)-3-phenylpropanoicacid", "49: PN: WO2021211467 SEQID: 202 claimed sequence", "512: PN: WO2022056313 SEQID: 527 claimed protein", "358: PN: US20220128567 SEQID: 527 claimed protein", "358: PN: US20220178935 SEQID: 527 claimed protein", "481: PN: WO2022215055 SEQID: 481 claimed protein", "3: PN: WO2023035719 SEQID: 3 claimed protein"], "SMILES": "C(CC1=CC=CC=C1)(NC(CN)=O)C(O)=O", "physical_data": {"Molecular Weight": "222.24", "Molecular Formula": "C11H14N2O3", "Melting Point": "267 \u00b0C"}}