{"cas_no": "3321-06-0", "cn_name": "\u5730\u90a3\u7ef4\u6797", "en_name": ["Benzeneacetic acid, \u03b1-(2-ethylbutoxy)-\u03b1-phenyl-, 2-(dimethylamino)ethyl ester, hydrochloride (1:1)", "Benzeneacetic acid, \u03b1-(2-ethylbutoxy)-\u03b1-phenyl-, 2-(dimethylamino)ethyl ester, hydrochloride (1:1)", "Acetic acid, (2-ethylbutoxy)diphenyl-, 2-(dimethylamino)ethyl ester hydrochloride", "Benzeneacetic acid, \u03b1-(2-ethylbutoxy)-\u03b1-phenyl-, 2-(dimethylamino)ethyl ester, hydrochloride", "Spasmalgan", "Denaverine hydrochloride"], "SMILES": "C(OCC(CC)CC)(C(OCCN(C)C)=O)(C1=CC=CC=C1)C2=CC=CC=C2.Cl", "physical_data": {"Molecular Weight": "", "Molecular Formula": "C24H33NO3.ClH", "Melting Point": "140-142 \u00b0C"}}