{"cas_no": "33213-65-9", "cn_name": "BETA-\u786b\u4e39", "en_name": ["\u03b2-Endosulfan", "6,9-Methano-2,4,3-benzodioxathiepin, 6,7,8,9,10,10-hexachloro-1,5,5a,6,9,9a-hexahydro-, 3-oxide, (3\u03b1,5a\u03b1,6\u03b2,9\u03b2,9a\u03b1)-", "5-Norbornene-2,3-dimethanol, 1,4,5,6,7,7-hexachloro-, cyclic sulfite, exo-", "Endosulfan B", "Endosulfan II", "General Weed Killer", "\u03b2-Thiodan", "\u03b2-Endosulfan", "Endosulfan 2", "\u03b1-Thionex", "\u03b2-Benzoepin", "Thiodan II", "Endosulphan II"], "SMILES": "ClC12C3C(C(Cl)(C1(Cl)Cl)C(Cl)=C2Cl)COS(=O)OC3", "physical_data": {"Molecular Weight": "406.93", "Molecular Formula": "C9H6Cl6O3S", "Melting Point": "213.3 \u00b0C"}}