{"cas_no": "3321-64-0", "cn_name": "1-\u4e01\u57fa\u78f7\u9178", "en_name": ["Butylphosphonic acid", "Phosphonic acid, P-butyl-", "Phosphonic acid, butyl-", "P-Butylphosphonic acid", "1-Butanephosphonic acid", "Butylphosphonic acid", "n-Butylphosphonic acid", "NSC 38367", "Butanephosphonic acid"], "SMILES": "C(P(=O)(O)O)CCC", "physical_data": {"Molecular Weight": "138.10", "Molecular Formula": "C4H11O3P", "Melting Point": "89-99 \u00b0C"}}