{"cas_no": "33225-73-9", "cn_name": "2-\u785d\u57fa-5-\u5421\u5576\u7fa7\u9178", "en_name": ["6-Nitro-3-pyridinecarboxylic acid", "3-Pyridinecarboxylic acid, 6-nitro-", "Nicotinic acid, 6-nitro-", "6-Nitro-3-pyridinecarboxylic acid", "6-Nitronicotinic acid", "2-Nitro-5-carboxypyridine", "NSC 170849"], "SMILES": "C(O)(=O)C=1C=CC(N(=O)=O)=NC1", "physical_data": {"Molecular Weight": "168.11", "Molecular Formula": "C6H4N2O4", "Melting Point": "179-180 \u00b0C"}}