{"cas_no": "33225-74-0", "cn_name": "2-\u785d\u57fa-4-\u5421\u5576\u7532\u9178", "en_name": ["2-Nitro-4-pyridinecarboxylic acid", "4-Pyridinecarboxylic acid, 2-nitro-", "Isonicotinic acid, 2-nitro-", "2-Nitro-4-pyridinecarboxylic acid", "2-Nitroisonicotinic acid"], "SMILES": "C(O)(=O)C=1C=C(N(=O)=O)N=CC1", "physical_data": {"Molecular Weight": "168.11", "Molecular Formula": "C6H4N2O4", "Melting Point": "175 \u00b0C"}}