{"cas_no": "3322-93-8", "cn_name": "1,2-\u4e8c\u6eb4-4-(1,2-\u4e8c\u6eb4\u4e59\u57fa)\u73af\u5df1\u70f7", "en_name": ["1,2-Dibromo-4-(1,2-dibromoethyl)cyclohexane", "Cyclohexane, 1,2-dibromo-4-(1,2-dibromoethyl)-", "1,2-Dibromo-4-(1,2-dibromoethyl)cyclohexane", "4-(1,2-Dibromoethyl)-1,2-dibromocyclohexane", "Citex BCL 462", "1-(1,2-Dibromoethyl)-3,4-dibromocyclohexane", "Saytex BCL 462"], "SMILES": "C(CBr)(Br)C1CC(Br)C(Br)CC1", "physical_data": {"Molecular Weight": "427.80", "Molecular Formula": "C8H12Br4", "Melting Point": "70-76 \u00b0C", "Density": "23800 g/cm\u00b3"}}