{"cas_no": "33224-23-6", "cn_name": "4-\u7532\u6c27\u57fa-3-\u785d\u57fa\u82ef\u7532\u8148", "en_name": ["4-Methoxy-3-nitrobenzonitrile", "Benzonitrile, 4-methoxy-3-nitro-", "p-Anisonitrile, 3-nitro-", "4-Methoxy-3-nitrobenzonitrile", "5-Cyano-2-methoxynitrobenzene", "3-Nitro-4-methoxybenzonitrile"], "SMILES": "N(=O)(=O)C1=C(OC)C=CC(C#N)=C1", "physical_data": {"Molecular Weight": "178.14", "Molecular Formula": "C8H6N2O3", "Melting Point": "151 \u00b0C"}}