{"cas_no": "33229-89-9", "cn_name": "N,N-\u4e8c\u7532\u6c28\u57fa\u4e59\u9178\u4e59\u916f", "en_name": ["N,N-Dimethylglycine ethyl ester", "Glycine, N,N-dimethyl-, ethyl ester", "N,N-Dimethylglycine ethyl ester", "Dimethylglycine ethyl ester", "Ethyl (dimethylamino)acetate", "Ethyl dimethylglycinate", "Ethyl N,N-dimethylglycinate", "Ethyl (N,N-dimethylamino)acetate", "Ethyl 2-(dimethylamino)acetate"], "SMILES": "C(C(OCC)=O)N(C)C", "physical_data": {"Molecular Weight": "131.17", "Molecular Formula": "C6H13NO2", "Boiling Point": "48-49 \u00b0C @ Press: 12 Torr", "Melting Point": "135 \u00b0C"}}