{"cas_no": "33228-44-3", "cn_name": "4-n-\u620a\u57fa\u82ef\u80fa", "en_name": ["4-Pentylaniline", "Benzenamine, 4-pentyl-", "Aniline, p-pentyl-", "4-Pentylbenzenamine", "p-n-Pentylaniline", "p-Pentylaniline", "p-Amylaniline", "4-Pentylaniline", "4-n-Pentylaniline", "4-Pentylphenylamine"], "SMILES": "C(CCCC)C1=CC=C(N)C=C1", "physical_data": {"Molecular Weight": "163.26", "Molecular Formula": "C11H17N", "Boiling Point": "130 \u00b0C @ Press: 16 Torr", "Density": "0.950 g/cm\u00b3 @ Temp: 20 \u00b0C"}}