{"cas_no": "33228-45-4", "cn_name": "4-\u4e59\u70ef\u82ef\u80fa", "en_name": ["4-Hexylaniline", "Benzenamine, 4-hexyl-", "Aniline, p-hexyl-", "4-Hexylbenzenamine", "p-n-Hexylaniline", "p-Hexylaniline", "4-n-Hexylaniline", "4-Hexylaniline", "4-Hexylphenylamine"], "SMILES": "C(CCCCC)C1=CC=C(N)C=C1", "physical_data": {"Molecular Weight": "177.29", "Molecular Formula": "C12H19N", "Boiling Point": "146-148 \u00b0C @ Press: 17 Torr", "Melting Point": "76.0-76.5 \u00b0C"}}