{"cas_no": "33229-34-4", "cn_name": "3-\u785d\u57fa-4-\u7f9f\u4e59\u6c28\u57fa-N,N-\u4e8c\u7f9f\u4e59\u57fa\u82ef\u80fa", "en_name": ["HC Blue 2", "Ethanol, 2,2\u2032-[[4-[(2-hydroxyethyl)amino]-3-nitrophenyl]imino]bis-", "Ethanol, 2,2\u2032-[[4-[(2-hydroxyethyl)amino]-3-nitrophenyl]imino]di-", "2,2\u2032-[[4-[(2-Hydroxyethyl)amino]-3-nitrophenyl]imino]bis[ethanol]", "N1,N4,N4-Tris(2-hydroxyethyl)-2-nitro-p-phenylenediamine", "N,N\u2032,N\u2032-Tris(2-hydroxyethyl)-2-nitro-p-phenylenediamine", "N1,N4,N4-Tris(2\u2032-hydroxyethyl)-2-nitro-p-phenylenediamine", "HC Blue No. 2", "HC Blue 2", "2,2\u2032-[4-(2-Hydroxyethylamino)-3-nitrophenylimino]diethanol", "Covarine Blue W 6122", "Colorex HCB 2", "N,N,N\u2032-Tris(2-hydroxyethyl)-3-nitrobenzene-1,4-diamine", "2,2\u2032-((4-((2-Hydroxyethyl)amino)-3-nitrophenyl)azanediyl)diethanol", "2-[4-[Bis(2-hydroxyethyl)amino]-2-nitroanilino]ethanol"], "SMILES": "N(CCO)(CCO)C1=CC(N(=O)=O)=C(NCCO)C=C1", "physical_data": {"Molecular Weight": "285.30", "Molecular Formula": "C12H19N3O5", "Melting Point": "93-98 \u00b0C"}}