{"cas_no": "33237-74-0", "cn_name": "\u76d0\u9178\u831a\u4e19\u80fa", "en_name": ["1,3-Propanediamine, N1-(2,3-dihydro-1H-inden-2-yl)-N3,N3-diethyl-N1-phenyl-, hydrochloride (1:1)", "1,3-Propanediamine, N1-(2,3-dihydro-1H-inden-2-yl)-N3,N3-diethyl-N1-phenyl-, hydrochloride (1:1)", "1,3-Propanediamine, N,N-diethyl-N\u2032-2-indanyl-N\u2032-phenyl-, monohydrochloride", "1,3-Propanediamine, N-(2,3-dihydro-1H-inden-2-yl)-N\u2032,N\u2032-diethyl-N-phenyl-, monohydrochloride", "Aprindine hydrochloride", "Fiboran", "MS 5075", "Aspenon", "Amidonal", "Compd 83846", "Fibocil", "Ritmusin", "NSC 284614"], "SMILES": "N(CCCN(CC)CC)(C1CC=2C(C1)=CC=CC2)C3=CC=CC=C3.Cl", "physical_data": {"Molecular Weight": "", "Molecular Formula": "C22H30N2.ClH", "Melting Point": "120-121 \u00b0C"}}