{"cas_no": "33237-37-5", "cn_name": "\u5434\u8331\u8438\u82e6\u7d20", "en_name": ["Rutaevin", "1H,3H,6H,8H-Oxireno[c]pyrano[4\u2032\u2032,3\u2032\u2032:2\u2032,3\u2032]furo[3\u2032,4\u2032:5,6]naphtho[1,2-d]pyran-3,7,10(6aH,9aH)-trione, 12-(3-furanyl)octahydro-8-hydroxy-6,6,8a,12a-tetramethyl-, (4aS,6aS,8R,8aS,8bR,9aS,12S,12aS,14aR,14bR)-", "Limonoic acid, 7-deoxo-7-hydroxy-6-oxo-, 3,19:16,17-dilactone, (5\u03b2,7\u03b2)-", "11H,13H-Oxireno[d]pyrano[4\u2032,3\u2032:3,3a]isobenzofuro[5,4-f][2]benzopyran-3,6,13(4H,5aH)-trione, 8-(3-furanyl)decahydro-4-hydroxy-2,2,4a,8a-tetramethyl-, (2aS,4R,4aS,4bR,5aS,8S,8aS,10aR,10bR,14aS)-", "11H,13H-Oxireno[d]pyrano[4\u2032,3\u2032:3,3a]isobenzofuro[5,4-f][2]benzopyran, limonoic acid deriv.", "(4aS,6aS,8R,8aS,8bR,9aS,12S,12aS,14aR,14bR)-12-(3-Furanyl)octahydro-8-hydroxy-6,6,8a,12a-tetramethyl-1H,3H,6H,8H-oxireno[c]pyrano[4\u2032\u2032,3\u2032\u2032:2\u2032,3\u2032]furo[3\u2032,4\u2032:5,6]naphtho[1,2-d]pyran-3,7,10(6aH,9aH)-trione", "Rutaevin", "11H,13H-Oxireno[d]pyrano[4\u2032,3\u2032:3,3a]isobenzofuro[5,4-f][2]benzopyran-3,6,13(4H,5aH)-trione, 8-(3-furanyl)decahydro-4-hydroxy-2,2,4a,8a-tetramethyl-, [2aS-(2a\u03b1,4\u03b1,4a\u03b1,4bS*,5a\u03b2,8\u03b2,8a\u03b2,10a\u03b2,10bS*,14a\u03b2)]-", "Rutevin"], "SMILES": "CC12C34C(C)(C(OC(=O)C3O4)C=5C=COC5)CCC1C67C(C(=O)C2O)C(C)(C)OC6CC(=O)OC7", "physical_data": {"Molecular Weight": "486.51", "Molecular Formula": "C26H30O9", "Melting Point": "300 \u00b0C"}}