{"cas_no": "33245-39-5", "cn_name": "\u6c1f\u6d88\u8349", "en_name": ["Fluchloralin", "Benzenamine, N-(2-chloroethyl)-2,6-dinitro-N-propyl-4-(trifluoromethyl)-", "p-Toluidine, N-(2-chloroethyl)-\u03b1,\u03b1,\u03b1-trifluoro-2,6-dinitro-N-propyl-", "N-(2-Chloroethyl)-2,6-dinitro-N-propyl-4-(trifluoromethyl)benzenamine", "N-Propyl-N-\u03b2-chloroethyl-2,6-dinitro-4-trifluoromethylaniline", "N-Propyl-N-\u03b2-chloroethyl-4-trifluoromethyl-2,6-dinitroaniline", "BAS 3921", "N-Propyl-N-(2-chloroethyl)-2,6-dinitro-4-trifluoromethylaniline", "BAS 3921H", "Fluchloralin", "Basalin", "BAS 392H", "BAS 3924H", "N-Propyl-N-(2\u2032-chloroethyl)-2,6-dinitro-4-trifluoromethylaniline"], "SMILES": "N(CCC)(CCCl)C1=C(N(=O)=O)C=C(C(F)(F)F)C=C1N(=O)=O", "physical_data": {"Molecular Weight": "355.70", "Molecular Formula": "C12H13ClF3N3O4", "Melting Point": "42-43 \u00b0C"}}