{"cas_no": "33240-96-9", "cn_name": "3-\u785d\u57fa\u82ef\u80fa\u76d0\u9178\u76d0", "en_name": ["Benzenamine, 3-nitro-, hydrochloride (1:1)", "Benzenamine, 3-nitro-, hydrochloride (1:1)", "Benzenamine, 3-nitro-, monohydrochloride", "Aniline, m-nitro-, monohydrochloride", "m-Nitroaniline monohydrochloride", "3-Nitroaniline hydrochloride", "m-Nitroaniline hydrochloride", "m-Nitrobenzylammonium chloride"], "SMILES": "N(=O)(=O)C1=CC(N)=CC=C1.Cl", "physical_data": {"Molecular Weight": "", "Molecular Formula": "C6H6N2O2.ClH", "Melting Point": "225-227 \u00b0C"}}