{"cas_no": "33252-32-3", "cn_name": "2-\u6c28\u57fa-4-\u4e59\u57fa\u5421\u5576", "en_name": ["4-Ethyl-2-pyridinamine", "2-Pyridinamine, 4-ethyl-", "Pyridine, 2-amino-4-ethyl-", "4-Ethyl-2-pyridinamine", "2-Amino-4-ethylpyridine", "(4-Ethylpyridin-2-yl)amine", "4-Ethyl-2-Aminopyridine"], "SMILES": "C(C)C=1C=C(N)N=CC1", "physical_data": {"Molecular Weight": "122.17", "Molecular Formula": "C7H10N2", "Boiling Point": "140-148 \u00b0C @ Press: 20 Torr", "Melting Point": "66.5-67.5 \u00b0C"}}