{"cas_no": "33252-30-1", "cn_name": "2-\u6c2f-4-\u6c30\u57fa\u5421\u5576", "en_name": ["2-Chloro-4-cyanopyridine", "4-Pyridinecarbonitrile, 2-chloro-", "Isonicotinonitrile, 2-chloro-", "2-Chloro-4-pyridinecarbonitrile", "2-Chloroisonicotinonitrile", "2-Chloro-4-cyanopyridine", "4-Cyano-2-chloropyridine"], "SMILES": "C(#N)C=1C=C(Cl)N=CC1", "physical_data": {"Molecular Weight": "138.55", "Molecular Formula": "C6H3ClN2", "Boiling Point": "104-106 \u00b0C @ Press: 15 Torr", "Melting Point": "49 \u00b0C"}}