{"cas_no": "33252-29-8", "cn_name": "2-\u6c2f-6-\u6c30\u57fa\u5421\u5576", "en_name": ["6-Chloro-2-pyridinecarbonitrile", "2-Pyridinecarbonitrile, 6-chloro-", "Picolinonitrile, 6-chloro-", "6-Chloro-2-pyridinecarbonitrile", "2-Chloro-6-cyanopyridine", "6-Chloropyridine-2-carbonitrile", "2-Chloropyridine-6-carbonitrile", "6-Chloropicolinonitrile"], "SMILES": "C(#N)C=1N=C(Cl)C=CC1", "physical_data": {"Molecular Weight": "138.55", "Molecular Formula": "C6H3ClN2", "Melting Point": "86-88 \u00b0C"}}