{"cas_no": "33252-28-7", "cn_name": "2-\u6c2f-5-\u6c30\u57fa\u5421\u5576", "en_name": ["6-Chloronicotinonitrile", "3-Pyridinecarbonitrile, 6-chloro-", "Nicotinonitrile, 6-chloro-", "6-Chloro-3-pyridinecarbonitrile", "2-Chloro-5-cyanopyridine", "6-Chloronicotinonitrile", "2-Chloro-5-pyridinecarbonitrile", "6-Chloro-3-cyanopyridine", "5-Cyano-2-chloropyridine", "6-Chloronicotinitrile", "6-Chloropyridin-3-nitrile", "6-Chloropyridin-3-carbonitrile"], "SMILES": "C(#N)C=1C=CC(Cl)=NC1", "physical_data": {"Molecular Weight": "138.55", "Molecular Formula": "C6H3ClN2", "Melting Point": "115 \u00b0C"}}