{"cas_no": "33263-43-3", "cn_name": "4-\u6c2f\u5421\u5576-3-\u78fa\u9170\u80fa", "en_name": ["4-Chloro-3-pyridinesulfonamide", "3-Pyridinesulfonamide, 4-chloro-", "4-Chloro-3-pyridinesulfonamide", "4-Chloro-3-pyridylsulfonamide"], "SMILES": "S(N)(=O)(=O)C=1C(Cl)=CC=NC1", "physical_data": {"Molecular Weight": "192.62", "Molecular Formula": "C5H5ClN2O2S", "Melting Point": "155-157 \u00b0C"}}