{"cas_no": "3326-71-4", "cn_name": "2-\u544b\u5583\u7532\u9170\u80bc", "en_name": ["2-Furancarboxylic acid, hydrazide", "2-Furancarboxylic acid, hydrazide", "2-Furoic acid, hydrazide", "2-Furancarboxylic acid hydrazide", "2-Furancarbohydrazonic acid", "2-Furylcarboxylic acid hydrazide", "2-Furylcarbonylhydrazide", "2-Furoic hydrazide", "2-Furancarbohydrazide", "2-Furoylhydrazine", "2-Furancarbonyl hydrazide", "Pyromucic acid hydrazide", "NSC 11957", "NSC 35574", "Furan-2-carboxylic hydrazide", "Idv 90", "2-(Hydrazinocarbonyl)furan", "2-Furanoylhydrazide"], "SMILES": "C(NN)(=O)C1=CC=CO1", "physical_data": {"Molecular Weight": "126.11", "Molecular Formula": "C5H6N2O2", "Boiling Point": "159-159.5 \u00b0C", "Melting Point": "77 \u00b0C"}}