{"cas_no": "33265-61-1", "cn_name": "1-(2-\u785d\u57fa\u82ef\u57fa)-1H-\u5421\u54af-2-\u7532\u919b", "en_name": ["1-(2-Nitrophenyl)-1H-pyrrole-2-carboxaldehyde", "1H-Pyrrole-2-carboxaldehyde, 1-(2-nitrophenyl)-", "Pyrrole-2-carboxaldehyde, 1-(o-nitrophenyl)-", "1-(2-Nitrophenyl)-1H-pyrrole-2-carboxaldehyde", "1-(2-Nitrophenyl)pyrrole-2-carboxaldehyde", "1-(2-Nitrophenyl)pyrrole-2-carbaldehyde"], "SMILES": "N(=O)(=O)C1=C(C=CC=C1)N2C(C=O)=CC=C2", "physical_data": {"Molecular Weight": "216.19", "Molecular Formula": "C11H8N2O3", "Melting Point": "128-130 \u00b0C"}}