{"cas_no": "3327-22-8", "cn_name": "3-\u6c2f-2-\u7f9f\u4e19\u57fa\u4e09\u7532\u57fa\u6c2f\u5316\u94f5", "en_name": ["(3-Chloro-2-hydroxypropyl)trimethylammonium chloride", "1-Propanaminium, 3-chloro-2-hydroxy-N,N,N-trimethyl-, chloride (1:1)", "Ammonium, (3-chloro-2-hydroxypropyl)trimethyl-, chloride", "(3-Chloro-2-hydroxypropyl)trimethylammonium chloride", "1-Propanaminium, 3-chloro-2-hydroxy-N,N,N-trimethyl-, chloride", "Trimethyl(2-hydroxy-3-chloropropyl)ammonium chloride", "(2-Hydroxy-3-chloropropyl)trimethylammonium chloride", "NT 21", "1-Chloro-3-(trimethylammonio)-2-propanol chloride", "(3-Chloro-2-hydroxypropyl)-N,N,N-trimethylammonium chloride", "Quat 188", "Dextrosil", "Dextrosil KA", "Verolan KAF", "QUAB", "Dowquat 188", "QUAB 188", "Catiomaster C", "QUAB 218", "COPA 60S", "N-(3-Chloro-2-hydroxypropyl)-N,N,N-trimethylammonium chloride", "Vircotone ECO", "CR 2000", "CR 2000 (fixative)", "NSC 51216", "Reagens CFZ", "Catiomaster C 60", "Cation Master C", "Reagens S-CFZ", "1-Chloro-3-trimethylammonium-2-propanol chloride", "1-Chloro-2-hydroxypropane-3-trimethylammonium chloride", "Reagens S", "HAC 65", "CTA", "EcoFAST CR 2000", "CTA 65", "3-Chloro-2-hydroxy-N,N,N-trimethylpropan-1-aminium chloride", "ZPYM 8069", "CHPTAC", "Rishlyte 9098"], "SMILES": "C([N+](C)(C)C)C(CCl)O.[Cl-]", "physical_data": {"Molecular Weight": "", "Molecular Formula": "C6H15ClNO.Cl", "Melting Point": "190 \u00b0C"}}