{"cas_no": "33279-57-1", "cn_name": "K-\u6bd2\u6bdb\u65cb\u82b1\u5b50\u7519", "en_name": ["k-Strophanthoside", "Card-20(22)-enolide, 3-[(O-\u03b2-D-glucopyranosyl-(1\u21926)-O-\u03b2-D-glucopyranosyl-(1\u21924)-2,6-dideoxy-3-O-methyl-\u03b2-D-ribo-hexopyranosyl)oxy]-5,14-dihydroxy-19-oxo-, (3\u03b2,5\u03b2)-", "(3\u03b2,5\u03b2)-3-[(O-\u03b2-D-Glucopyranosyl-(1\u21926)-O-\u03b2-D-glucopyranosyl-(1\u21924)-2,6-dideoxy-3-O-methyl-\u03b2-D-ribo-hexopyranosyl)oxy]-5,14-dihydroxy-19-oxocard-20(22)-enolide", "k-Strophanthoside", "NSC 7530"], "SMILES": "C(=O)C12C3C(C4(O)C(C)(CC3)C(CC4)C=5COC(=O)C5)CCC1(O)CC(OC6CC(OC)C(OC7OC(COC8OC(CO)C(O)C(O)C8O)C(O)C(O)C7O)C(C)O6)CC2", "physical_data": {"Molecular Weight": "872.95", "Molecular Formula": "C42H64O19", "Melting Point": "198-200 \u00b0C"}}