{"cas_no": "33284-53-6", "cn_name": "2,3,4,5-\u56db\u6c2f\u8054\u82ef", "en_name": ["2,3,4,5-Tetrachlorobiphenyl", "1,1\u2032-Biphenyl, 2,3,4,5-tetrachloro-", "Biphenyl, 2,3,4,5-tetrachloro-", "2,3,4,5-Tetrachloro-1,1\u2032-biphenyl", "2,3,4,5-Tetrachlorobiphenyl", "PCB 61"], "SMILES": "ClC1=C(C=C(Cl)C(Cl)=C1Cl)C2=CC=CC=C2", "physical_data": {"Molecular Weight": "291.99", "Molecular Formula": "C12H6Cl4", "Melting Point": "89-90 \u00b0C"}}