{"cas_no": "33286-22-5", "cn_name": "\u76d0\u9178\u5730\u5c14\u786b\u5353", "en_name": ["Diltiazem hydrochloride", "1,5-Benzothiazepin-4(5H)-one, 3-(acetyloxy)-5-[2-(dimethylamino)ethyl]-2,3-dihydro-2-(4-methoxyphenyl)-, hydrochloride (1:1), (2S,3S)-", "1,5-Benzothiazepin-4(5H)-one, 3-(acetyloxy)-5-[2-(dimethylamino)ethyl]-2,3-dihydro-2-(4-methoxyphenyl)-, monohydrochloride, (2S-cis)-", "1,5-Benzothiazepin-4(5H)-one, 3-(acetyloxy)-5-[2-(dimethylamino)ethyl]-2,3-dihydro-2-(4-methoxyphenyl)-, monohydrochloride, (2S,3S)-", "CRD 401", "d-cis-3-Acetoxy-2,3-dihydro-5-[2-(dimethylamino)ethyl]-2-(p-methoxyphenyl)-1,5-benzothiazepin-4(5H)-one hydrochloride", "Diltiazem hydrochloride", "Herbesser", "Tildiem", "Masdil", "(+)-Diltiazem hydrochloride", "Cardizem", "Blocalcin 60", "(S,S)-Diltiazem hydrochloride", "Tiazac", "Kardil", "Cardizem CD", "Cardizem SR", "Dilacor XR", "Dilacor", "Bruzem", "Anginyl", "Diladel", "Dilpral", "Dilrene", "RG 83606", "Angizem", "Deltazen", "Adizem", "d-cis-Diltiazem hydrochloride", "Altiazem", "Dilzene", "Citizem", "Calcicard", "Cormax", "Britiazim", "Dilcardia", "Dilgard", "Kaizem", "Angipress", "Dicard", "(2S,3S)-(+)-cis-Diltiazem hydrochloride", "Bi-Teldiem", "Dilzacard"], "SMILES": "O(C(C)=O)C1C(SC=2C(N(CCN(C)C)C1=O)=CC=CC2)C3=CC=C(OC)C=C3.Cl", "physical_data": {"Molecular Weight": "", "Molecular Formula": "C22H26N2O4S.ClH", "Melting Point": "207.5-212 \u00b0C", "Density": "1.30 g/cm\u00b3"}}