{"cas_no": "3328-60-7", "cn_name": "5,6-\u4e8c\u6c22\u7532\u6c27\u9189\u6912\u7d20", "en_name": ["5,6-Dihydroyangonin", "2H-Pyran-2-one, 5,6-dihydro-4-methoxy-6-[(1E)-2-(4-methoxyphenyl)ethenyl]-", "2H-Pyran-2-one, 5,6-dihydro-4-methoxy-6-(p-methoxystyryl)-", "2,6-Heptadienoic acid, 5-hydroxy-3-methoxy-7-(p-methoxyphenyl)-, \u03b4-lactone", "5,6-Dihydro-4-methoxy-6-[(1E)-2-(4-methoxyphenyl)ethenyl]-2H-pyran-2-one", "5,6-Dihydroyangonin"], "SMILES": "C(=CC1=CC=C(OC)C=C1)C2CC(OC)=CC(=O)O2", "physical_data": {"Molecular Weight": "260.29", "Molecular Formula": "C15H16O4", "Melting Point": "120-123 \u00b0C"}}