{"cas_no": "33288-71-0", "cn_name": "2-[4-\u6c28\u57fa\u78fa\u9170-\u82ef\u57fa]-\u4e59\u57fa-5-\u7532\u57fa\u5421\u55ea\u7532\u9170\u80fa", "en_name": ["4-[2-(5-Methylpyrazine-2-carboxamido)ethyl]benzenesulfonamide", "2-Pyrazinecarboxamide, N-[2-[4-(aminosulfonyl)phenyl]ethyl]-5-methyl-", "Pyrazinecarboxamide, N-[2-[4-(aminosulfonyl)phenyl]ethyl]-5-methyl-", "Pyrazinecarboxamide, 5-methyl-N-(p-sulfamoylphenethyl)-", "N-[2-[4-(Aminosulfonyl)phenyl]ethyl]-5-methyl-2-pyrazinecarboxamide", "4-[2-(5-Methylpyrazine-2-carboxamido)ethyl]benzenesulfonamide", "4-[2-(5-Methylpyrazinyl-2-carboxamido)ethyl]benzenesulfonamide"], "SMILES": "C(CNC(=O)C=1C=NC(C)=CN1)C2=CC=C(S(N)(=O)=O)C=C2", "physical_data": {"Molecular Weight": "320.37", "Molecular Formula": "C14H16N4O3S", "Melting Point": "228-230 \u00b0C"}}