{"cas_no": "33295-37-3", "cn_name": "1-\u6eb4-8-\u7532\u57fa\u8418", "en_name": ["1-Bromo-8-methylnaphthalene", "Naphthalene, 1-bromo-8-methyl-", "1-Bromo-8-methylnaphthalene"], "SMILES": "BrC=1C2=C(C=CC=C2C)C=CC1", "physical_data": {"Molecular Weight": "221.09", "Molecular Formula": "C11H9Br", "Boiling Point": "115-130 \u00b0C @ Press: 3.5 Torr", "Melting Point": "80 \u00b0C"}}