{"cas_no": "333-18-6", "cn_name": "\u4e59\u4e8c\u80fa\u4e8c\u76d0\u9178\u76d0", "en_name": ["Ethylenediamine, dihydrochloride", "1,2-Ethanediamine, hydrochloride (1:2)", "Ethylenediamine, dihydrochloride", "1,2-Ethanediamine, dihydrochloride", "Chlor-ethamine", "Ethylenediamine hydrochloride", "Dimethylenediamine dihydrochloride", "1,2-Diaminoethane dihydrochloride", "Ethylenediammonium dichloride", "Ethylenediamine hydrochloride (1:2)", "1,2-Ethylenediamine dihydrochloride"], "SMILES": "C(CN)N.Cl", "physical_data": {"Molecular Weight": "", "Molecular Formula": "C2H8N2.2ClH", "Melting Point": "&gt;250 \u00b0C", "Density": "1.46 g/cm\u00b3"}}