{"cas_no": "333-41-5", "cn_name": "\u4e8c\u55ea\u78f7", "en_name": ["Diazinon", "Phosphorothioic acid, O,O-diethyl O-[6-methyl-2-(1-methylethyl)-4-pyrimidinyl] ester", "Phosphorothioic acid, O,O-diethyl O-(2-isopropyl-6-methyl-4-pyrimidinyl) ester", "Phosphorothioic acid, O,O-diethyl 2-isopropyl-6-methyl-4-pyrimidinyl ester", "G 301", "ENT 19,507", "G 24480", "Diazinon", "O,O-Diethyl O-(2-isopropyl-6-methyl-4-pyrimidinyl) phosphorothioate", "Spectracide", "Basudin", "Sarolex", "Basudin 10G", "O,O-Diethyl O-(2-isopropyl-4-methyl-6-pyrimidyl) thionophosphate", "ENT 19507", "O,O-Diethyl O-(2-isopropyl-4-methyl-6-pyrimidinyl) phosphorothioate", "Basudin 5G", "Diazinon AG 500", "O,O-Diethyl-O-(2-isopropyl-4-methyl-6-pyrimidyl) thiophosphate", "Dimpylate", "Garden Tox", "Diethyl 2-isopropyl-4-methyl-6-pyrimidyl thionophosphate", "Ciazinon", "Dicid", "Exodin", "Flytrol", "Dimpylat", "Antigal", "Dacutox", "Dassitox", "Galesan", "Neocidol", "Neocidol (oil)", "Oleodiazinon", "Diethyl 2-isopropyl-4-methyl-6-pyrimidinyl phosphorothionate", "Spectracide 25EC", "Knox-out", "Meodinon", "Bassadinon", "Disonex", "Basudin S", "Bazanon", "Compass", "Knox Out 2FM", "Dizictol", "Delzinon", "Dazzel", "Optimizer", "Terminator", "Diazinon 4E", "Drawizon", "Topclip 40", "Dizinil", "Compass (insecticide)", "Topclip Blue Shield", "KFM Blowfly Dressing", "Kleen-Dok", "Topclip Blue", "Cooper's Flystrike Powder", "NSC 8938", "Evict", "Ortho Diazinon Ultra", "Hi-Yield Imported Fire Ant Killer", "Diazinon G", "Basudin 600 EW", "Dew 600EW", "Nasr-Cidol", "Akate Suro", "MeSH ID: D003976"], "SMILES": "O(P(OCC)(OCC)=S)C1=NC(C(C)C)=NC(C)=C1", "physical_data": {"Molecular Weight": "304.35", "Molecular Formula": "C12H21N2O3PS", "Boiling Point": "83-84 \u00b0C @ Press: 2 x 10<sup>-3</sup> Torr", "Melting Point": "&lt;25 \u00b0C", "Density": "1.116-1.118 g/cm\u00b3 @ Temp: 20 \u00b0C"}}