{"cas_no": "333-27-7", "cn_name": "\u4e09\u6c1f\u7532\u70f7\u78fa\u9178\u7532\u916f", "en_name": ["Methyl triflate", "Methanesulfonic acid, 1,1,1-trifluoro-, methyl ester", "Methanesulfonic acid, trifluoro-, methyl ester", "Methyl trifluoromethanesulfonate", "Methyl triflate", "Trifluoromethanesulfonic acid methyl ester", "NSC 270679", "Methyl trifluoromethansulfonate"], "SMILES": "S(C(F)(F)F)(OC)(=O)=O", "physical_data": {"Molecular Weight": "164.10", "Molecular Formula": "C2H3F3O3S", "Boiling Point": "99 \u00b0C"}}