{"cas_no": "333-20-0", "cn_name": "\u786b\u6c30\u9178\u94be", "en_name": ["Potassium thiocyanate", "Thiocyanic acid, potassium salt (1:1)", "Potassium thiocyanate", "Thiocyanic acid, potassium salt", "Aterocyn", "Potassium rhodanate", "Rhocya", "Potassium thiocyanide", "Potassium isothiocyanate", "Arterocyn", "Kyonate", "Rodanca", "Thio-Cara"], "SMILES": "C(#N)S.[K]", "physical_data": {"Molecular Weight": "", "Molecular Formula": "CHNS.K", "Melting Point": "173 \u00b0C", "Density": "1.956 g/cm\u00b3"}}