{"cas_no": "333-49-3", "cn_name": "4-\u6c28\u57fa-2-\u5def\u57fa\u5627\u5576", "en_name": ["2-Thiocytosine", "2(1H)-Pyrimidinethione, 6-amino-", "2(1H)-Pyrimidinethione, 4-amino-", "6-Amino-2(1H)-pyrimidinethione", "2-Thiocytosine", "Thiocytosine", "2(1H)-Pyrimidinone, 4-aminothio-", "4-Amino-2-mercaptopyrimidine", "4-Amino-2-pyrimidinethiol", "NSC 211571", "NSC 45755"], "SMILES": "NC=1NC(=S)N=CC1", "physical_data": {"Molecular Weight": "127.17", "Molecular Formula": "C4H5N3S", "Melting Point": "285-290 \u00b0C"}}