{"cas_no": "333-36-8", "cn_name": "2,2,2-\u4e09\u6c1f\u4e59\u919a", "en_name": ["1,1\u2032-Oxybis[2,2,2-trifluoroethane]", "Ethane, 1,1\u2032-oxybis[2,2,2-trifluoro-", "Ether, bis(2,2,2-trifluoroethyl)", "1,1\u2032-Oxybis[2,2,2-trifluoroethane]", "SKF 6539", "Bis(2,2,2-trifluoroethyl) ether", "Fluorothyl", "Fluroethyl", "Flurothyl", "Indoklon", "2-(2,2,2-Trifluoroethoxy)-1,1,1-trifluoroethane", "Hexafluorodiethyl ether", "Flurotyl", "HFE 356mff2", "Idoklon", "Indiklon", "1,1,1-Trifluoro-2-(2,2,2-trifluoroethoxy)ethane", "MeSH ID: D005481"], "SMILES": "C(C(F)(F)F)OCC(F)(F)F", "physical_data": {"Molecular Weight": "182.06", "Molecular Formula": "C4H4F6O", "Boiling Point": "63.9 \u00b0C", "Melting Point": "&lt;25 \u00b0C", "Density": "1.4171 g/cm\u00b3 @ Temp: 20 \u00b0C"}}