{"cas_no": "333-93-7", "cn_name": "1,4-\u4e01\u4e8c\u80fa\u4e8c\u76d0\u9178\u76d0", "en_name": ["Putrescine dihydrochloride", "1,4-Butanediamine, hydrochloride (1:2)", "1,4-Butanediamine, dihydrochloride", "Putrescine dihydrochloride", "Putrescine hydrochloride", "1,4-Diaminobutane dihydrochloride", "Tetramethylenediamine dihydrochloride"], "SMILES": "C(CCN)CN.Cl", "physical_data": {"Molecular Weight": "", "Molecular Formula": "C4H12N2.2ClH", "Melting Point": "280 \u00b0C (decomp)"}}