{"cas_no": "33305-77-0", "cn_name": "BOC-L-4-\u785d\u57fa\u82ef\u4e19\u6c28\u9178", "en_name": ["N-(tert-Butoxycarbonyl)-4-nitro-L-phenylalanine", "L-Phenylalanine, N-[(1,1-dimethylethoxy)carbonyl]-4-nitro-", "Alanine, N-carboxy-3-(p-nitrophenyl)-, N-tert-butyl ester, L-", "N-[(1,1-Dimethylethoxy)carbonyl]-4-nitro-L-phenylalanine", "N-tert-Butoxycarbonyl-p-nitro-L-phenylalanine", "N-(tert-Butyloxycarbonyl)-p-nitro-L-phenylalanine", "N-Boc-p-nitro-L-phenylalanine", "N-(tert-Butoxycarbonyl)-4-nitro-L-phenylalanine", "(2S)-2-[(tert-Butoxycarbonyl)amino]-3-(4-nitrophenyl)propanoic acid", "(2S)-2-[(tert-Butoxycarbonyl)amino]-3-(4-nitrophenyl)propionic acid", "2-(S)-[(tert-Butoxycarbonyl)amino]-3-(4-nitrophenyl)propionic acid", "(S)-2-[(tert-Butoxycarbonyl)amino]-3-(4-nitrophenyl)propionic acid", "(S)-2-(tert-Butoxycarbonylamino)-3-(4-nitrophenyl)propanoic acid"], "SMILES": "C(C(NC(OC(C)(C)C)=O)C(O)=O)C1=CC=C(N(=O)=O)C=C1", "physical_data": {"Molecular Weight": "310.30", "Molecular Formula": "C14H18N2O6", "Melting Point": "105-107 \u00b0C"}}