{"cas_no": "3330-14-1", "cn_name": "2H-\u5168\u6c1f(5-\u7532\u57fa-3,6-\u4e8c\u6c27\u6742\u58ec\u70f7)", "en_name": ["1-[1-[Difluoro(1,2,2,2-tetrafluoroethoxy)methyl]-1,2,2,2-tetrafluoroethoxy]-1,1,2,2,3,3,3-heptafluoropropane", "Propane, 1-[1-[difluoro(1,2,2,2-tetrafluoroethoxy)methyl]-1,2,2,2-tetrafluoroethoxy]-1,1,2,2,3,3,3-heptafluoro-", "Propane, 1,1,1,2,3,3-hexafluoro-2-(heptafluoropropoxy)-3-(1,2,2,2-tetrafluoroethoxy)-", "1-[1-[Difluoro(1,2,2,2-tetrafluoroethoxy)methyl]-1,2,2,2-tetrafluoroethoxy]-1,1,2,2,3,3,3-heptafluoropropane", "2H-Perfluoro(5-methyl-3,6-dioxanonane)", "Freon E 2", "Polyether E 2", "1,1,1,2,3,3-Hexafluoro-2-(heptafluoropropoxy)-3-(1,2,2,2-tetrafluoroethoxy)-propane", "1,1,1,2,3,3-Hexafluoro-2-(1,1,2,2,3,3,3-heptafluoropropoxy)-3-(1,2,2,2-tetrafluoroethoxy)propane"], "SMILES": "C(OC(C(C(F)(F)F)(F)F)(F)F)(C(OC(C(F)(F)F)F)(F)F)(C(F)(F)F)F", "physical_data": {"Molecular Weight": "452.07", "Molecular Formula": "C8HF17O2", "Boiling Point": "99-101 \u00b0C"}}