{"cas_no": "33301-41-6", "cn_name": "1-\u4e8c\u82ef\u7532\u57fa-3-\u7532\u70f7\u78fa\u9178\u6c2e\u6742\u73af\u4e01\u70f7", "en_name": ["1-(Diphenylmethyl)-3-[(methylsulfonyl)oxy]azetidine", "3-Azetidinol, 1-(diphenylmethyl)-, 3-methanesulfonate", "3-Azetidinol, 1-(diphenylmethyl)-, methanesulfonate (ester)", "1-(Diphenylmethyl)-3-(mesyloxy)azetidine", "3-(Mesyloxy)-N-(diphenylmethyl)azetidine", "1-Benzhydryl-3-mesyloxyazetidine", "Methanesulfonic acid 1-benzhydrylazetidin-3-yl ester", "1-Benzhydryl-3-methanesulfonyloxyazetidine", "1-Benzhydryl-3-azetidinyl methanesulfonate", "1-(Diphenylmethyl)-3-[(methylsulfonyl)oxy]azetidine", "3-[(Methylsulfonyl)oxy]-1-benzhydrylazetidine", "1-Benzhydryl-3-[(methylsulfonyl)oxy]azetidine", "1-(Diphenylmethyl)azetidin-3-yl methanesulfonate", "Cyclobutanol, 3-(diphenylmethyl)-, 1-methanesulfonate"], "SMILES": "C(N1CC(OS(C)(=O)=O)C1)(C2=CC=CC=C2)C3=CC=CC=C3", "physical_data": {"Molecular Weight": "317.40", "Molecular Formula": "C17H19NO3S", "Melting Point": "115-116 \u00b0C"}}