{"cas_no": "3330-15-2", "cn_name": "\u4e03\u6c1f\u4e19\u57fa1,2,2,2-\u56db\u6c1f\u4e59\u919a", "en_name": ["1,1,1,2,2,3,3-Heptafluoro-3-(1,2,2,2-tetrafluoroethoxy)propane", "Propane, 1,1,1,2,2,3,3-heptafluoro-3-(1,2,2,2-tetrafluoroethoxy)-", "Ether, heptafluoropropyl 1,2,2,2-tetrafluoroethyl", "1,1,1,2,2,3,3-Heptafluoro-3-(1,2,2,2-tetrafluoroethoxy)propane", "1,2,2,2-Tetrafluoroethyl heptafluoropropyl ether", "Du Pont E 1", "Freon E 1", "Heptafluoropropyl 1,2,2,2-tetrafluoroethyl ether"], "SMILES": "C(C(C(F)(F)F)(F)F)(OC(C(F)(F)F)F)(F)F", "physical_data": {"Molecular Weight": "286.04", "Molecular Formula": "C5HF11O", "Boiling Point": "41 \u00b0C"}}