{"cas_no": "3331-47-3", "cn_name": "7-\u5f02\u4e19\u57fa-1,4-\u4e8c\u7532\u57fa\u7518\u83ca\u73af-3-\u7532\u919b", "en_name": ["3,8-Dimethyl-5-(1-methylethyl)-1-azulenecarboxaldehyde", "1-Azulenecarboxaldehyde, 3,8-dimethyl-5-(1-methylethyl)-", "1-Azulenecarboxaldehyde, 5-isopropyl-3,8-dimethyl-", "3,8-Dimethyl-5-(1-methylethyl)-1-azulenecarboxaldehyde", "3-Formylguaiazulene", "3-Guaiazulenecarbaldehyde", "1,4-Dimethyl-7-(1-methylethyl)azulene-3-carboxaldehyde", "3,8-Dimethyl-5-propan-2-ylazulene-1-carbaldehyde", "3,8-Dimethyl-5-propan-2-yl-1-azulenecarboxaldehyde", "3,8-Dimethyl-5-(propan-2-yl)azulene-1-carbaldehyde"], "SMILES": "CC=1C=2C(=C(C=O)C1)C(C)=CC=C(C(C)C)C2", "physical_data": {"Molecular Weight": "226.31", "Molecular Formula": "C16H18O", "Melting Point": "83-84 \u00b0C"}}