{"cas_no": "3331-46-2", "cn_name": "9,10-\u4e8c\u6c22\u82ef\u5e76(A)\u8298-7(8H)-\u916e", "en_name": ["9,10-Dihydrobenzo[a]pyren-7(8H)-one", "Benzo[a]pyren-7(8H)-one, 9,10-dihydro-", "9,10-Dihydrobenzo[a]pyren-7(8H)-one", "7-Oxo-7,8,9,10-tetrahydrobenzo[a]pyrene", "NSC 30830"], "SMILES": "O=C1C2=C(C=3C4=C5C(=CC3)C=CC=C5C=CC4=C2)CCC1", "physical_data": {"Molecular Weight": "270.32", "Molecular Formula": "C20H14O", "Melting Point": "178 \u00b0C"}}