{"cas_no": "33325-40-5", "cn_name": "3-\u4e59\u9170\u786b\u57fa-2-\u7532\u57fa\u4e19\u9178", "en_name": ["3-(Acetylthio)-2-methylpropanoic acid", "Propanoic acid, 3-(acetylthio)-2-methyl-", "Propionic acid, 3-mercapto-2-methyl-, acetate", "3-(Acetylthio)-2-methylpropanoic acid", "3-(Acetylthio)-2-methylpropionic acid", "2-(Acetylthiomethyl)propanoic acid", "3-Mercapto-2-methylpropionic acid acetate", "(\u00b1)-3-Acetylthio-2-methylpropionic acid", "(RS)-3-Acetylthio-2-methylpropionic acid", "3-Acetylsulfanyl-2-methylpropionic acid"], "SMILES": "C(CSC(C)=O)(C(O)=O)C", "physical_data": {"Molecular Weight": "162.21", "Molecular Formula": "C6H10O3S", "Melting Point": "40-40.5 \u00b0C"}}