{"cas_no": "3332-27-2", "cn_name": "N,N-\u4e8c\u7532\u57fa\u5341\u56db\u7678\u80fa-N-\u6c27\u5316\u7269", "en_name": ["Tetradecyldimethylamine oxide", "1-Tetradecanamine, N,N-dimethyl-, N-oxide", "Tetradecylamine, N,N-dimethyl-, N-oxide", "Ammonyx MO", "N,N-Dimethylmyristylamine oxide", "Myristyldimethylamine oxide", "N,N-Dimethyl-n-tetradecylamine oxide", "Dimethylmyristylamine oxide", "N-Tetradecyldimethylamine N-oxide", "Myristamine oxide", "Conco XA-M", "Aromox DM 14", "N-Myristyl-N,N-dimethylamine oxide", "N,N-Dimethyltetradecylamine oxide", "N,N-Dimethyl-1-tetradecanamine oxide", "Empigen OH", "Dimethyltetradecylamine oxide", "N,N-Dimethyl 1-tetradecanamine N-oxide", "Ninox M", "Aromox DM 14D-W", "Tetradecyldimethylamine oxide", "Tetradecyldimethylaminoxide", "Aromox DM 14D-N", "Empigen OH 25", "Admox 14", "Aromox DM 14D", "Aromox DM 14D-W970", "Incromine Oxide M", "Admox SC 1485", "Genaminox MY", "Tetradecyldimethylamine N-oxide", "Aromox 14D-W970", "Aromox DM 14N", "N,N-Dimethyl-N-tetradecylamine N-oxide", "Cadenax DM 14D-N", "OA 14", "Ammonyx M", "Esadecyldimethylamine N-oxide", "Amphitol 40N"], "SMILES": "C(CCCCCCCCCCC)CCN(C)(C)=O", "physical_data": {"Molecular Weight": "257.46", "Molecular Formula": "C16H35NO", "Melting Point": "130.2-130.5 \u00b0C"}}