{"cas_no": "3332-29-4", "cn_name": "\u4e59\u6c27\u57fa\u80fa\u76d0\u9178\u76d0", "en_name": ["O-Ethylhydroxylamine hydrochloride", "Hydroxylamine, O-ethyl-, hydrochloride (1:1)", "Hydroxylamine, O-ethyl-, hydrochloride", "Ethoxyamine, hydrochloride", "O-Ethylhydroxylamine hydrochloride", "Ethoxamine hydrochloride", "Ethoxyammonium chloride", "N-Ethoxyamine hydrochloride", "Ethoxylamine hydrochloride", "(Aminooxy)ethane hydrochloride"], "SMILES": "C(ON)C.Cl", "physical_data": {"Molecular Weight": "", "Molecular Formula": "C2H7NO.ClH", "Melting Point": "126 \u00b0C"}}