{"cas_no": "3333-13-9", "cn_name": "4-\u70ef\u4e19\u57fa\u7532\u82ef", "en_name": ["4-Allyltoluene", "Benzene, 1-methyl-4-(2-propen-1-yl)-", "Toluene, p-allyl-", "Benzene, 1-methyl-4-(2-propenyl)-", "1-Methyl-4-(2-propen-1-yl)benzene", "p-Allyltoluene", "1-Allyl-4-methylbenzene", "3-p-Tolylpropene", "p-Methylallylbenzene", "4-Allyltoluene", "4-Methyl-1-allylbenzene", "NSC 73971", "4-Methyl(allyl)benzene", "3-(4-Methylphenyl)-1-propene", "1-(4-Methylphenyl)-2-propene", "1-Methyl-4-allyl benzene", "1-Methyl-4-(2-propenyl)benzene"], "SMILES": "C(C=C)C1=CC=C(C)C=C1", "physical_data": {"Molecular Weight": "132.20", "Molecular Formula": "C10H12", "Boiling Point": "180-181 \u00b0C", "Density": "1.5082 g/cm\u00b3 @ Temp: 20 \u00b0C"}}