{"cas_no": "3333-15-1", "cn_name": "2,3-\u4e8c\u82ef\u57fa\u4e19\u9178", "en_name": ["2,3-Diphenylpropanoic acid", "Benzenepropanoic acid, \u03b1-phenyl-", "Propionic acid, 2,3-diphenyl-", "\u03b1-Phenylbenzenepropanoic acid", "\u03b1-Phenylhydrocinnamic acid", "Propanoic acid, 2,3-diphenyl-", "Benzeneacetic acid, \u03b1-(phenylmethyl)-", "2,3-Diphenylpropanoic acid", "2,3-Diphenylpropionic acid", "\u03b1-Benzylbenzeneacetic acid", "NSC 11135", "NSC 49"], "SMILES": "C(CC1=CC=CC=C1)(C(O)=O)C2=CC=CC=C2", "physical_data": {"Molecular Weight": "226.27", "Molecular Formula": "C15H14O2", "Melting Point": "88-89.5 \u00b0C"}}