{"cas_no": "33332-29-5", "cn_name": "2-\u6c28\u57fa-5-\u6c2f\u5421\u55ea", "en_name": ["5-Chloro-2-pyrazinamine", "2-Pyrazinamine, 5-chloro-", "Pyrazine, 2-amino-5-chloro-", "Pyrazinamine, 5-chloro-", "5-Chloro-2-pyrazinamine", "2-Amino-5-chloropyrazine", "5-Amino-2-chloropyrazine", "2-Chloro-5-aminopyrazine", "5-Chloro-2-aminopyrazine", "(5-Chloropyrazin-2-yl)amine"], "SMILES": "ClC=1C=NC(N)=CN1", "physical_data": {"Molecular Weight": "129.55", "Molecular Formula": "C4H4ClN3", "Melting Point": "132-134 \u00b0C"}}