{"cas_no": "3333-52-6", "cn_name": "\u56db\u7532\u57fa\u4e01\u4e8c\u8148", "en_name": ["2,2,3,3-Tetramethylbutanedinitrile", "Butanedinitrile, 2,2,3,3-tetramethyl-", "Succinonitrile, tetramethyl-", "Butanedinitrile, tetramethyl-", "2,2,3,3-Tetramethylbutanedinitrile", "Tetramethylsuccinonitrile", "Tetramethylsuccinodinitrile", "2,3-Dicyano-2,3-dimethylbutane", "Tetramethylsuccinic acid dinitrile", "NSC 39746", "2,2,3,3-Tetramethylsuccinonitrile"], "SMILES": "C(C(C#N)(C)C)(C#N)(C)C", "physical_data": {"Molecular Weight": "136.19", "Molecular Formula": "C8H12N2", "Boiling Point": "140-180 \u00b0C @ Press: 1 x 10<sup>-3</sup> Torr", "Melting Point": "170.5 \u00b0C", "Density": "1.070 g/cm\u00b3"}}