{"cas_no": "33332-28-4", "cn_name": "2-\u6c28\u57fa-6-\u6c2f\u5421\u55ea", "en_name": ["6-Chloro-2-pyrazinamine", "2-Pyrazinamine, 6-chloro-", "Pyrazinamine, 6-chloro-", "Pyrazine, 2-amino-6-chloro-", "6-Chloro-2-pyrazinamine", "2-Amino-6-chloropyrazine", "6-Amino-2-chloropyrazine", "2-Chloro-6-aminopyrazine", "6-Chloro-2-pyrazinylamine", "6-Chloro-2-aminopyrazine", "2-Amino-6-chloro-1,4-pyrazine"], "SMILES": "ClC1=NC(N)=CN=C1", "physical_data": {"Molecular Weight": "129.55", "Molecular Formula": "C4H4ClN3", "Melting Point": "152-154 \u00b0C"}}