{"cas_no": "3333-67-3", "cn_name": "\u78b3\u9178\u954d", "en_name": ["Nickel carbonate (NiCO3)", "Carbonic acid, nickel(2+) salt (1:1)", "Nickel carbonate (NiCO3)", "Nickel carbonate", "Nickel(II) carbonate", "Nickelous carbonate", "Nickel(2+) carbonate", "Nickel carbonate (1:1)", "Nickel(2+) carbonate (NiCO3)", "Nickel monocarbonate", "Carbonic acid, nickel salt"], "SMILES": "C(=O)(O)O.[Ni]", "physical_data": {"Molecular Weight": "", "Molecular Formula": "CH2O3.Ni", "Melting Point": "270 \u00b0C (decomp)", "Density": "4 x 10<sup>-6</sup> g/cm\u00b3"}}