{"cas_no": "33342-05-1", "cn_name": "\u683c\u5217\u55b9\u916e", "en_name": ["Gliquidone", "Benzenesulfonamide, N-[(cyclohexylamino)carbonyl]-4-[2-(3,4-dihydro-7-methoxy-4,4-dimethyl-1,3-dioxo-2(1H)-isoquinolinyl)ethyl]-", "N-[(Cyclohexylamino)carbonyl]-4-[2-(3,4-dihydro-7-methoxy-4,4-dimethyl-1,3-dioxo-2(1H)-isoquinolinyl)ethyl]benzenesulfonamide", "Gliquidone", "AR-DF 26", "Glurenorm", "ARDF 26SE", "Beglynor", "TangShiPing", "TangShenPing", "1-Cyclohexyl-3-[4-[2-(7-methoxy-4,4-dimethyl-1,3-dioxoisoquinolin-2-yl)ethyl]phenyl]sulfonylurea", "1-Cyclohexyl-3-[4-[2-(7-methoxy-4,4-dimethyl-1,3-dioxo-1,2,3,4-tetrahydroisoquinolin-2-yl)ethyl]benzenesulfonyl]urea", "ZINC 01482077", "ZINC 1482077"], "SMILES": "CC1(C)C=2C(C(=O)N(CCC3=CC=C(S(NC(NC4CCCCC4)=O)(=O)=O)C=C3)C1=O)=CC(OC)=CC2", "physical_data": {"Molecular Weight": "527.63", "Molecular Formula": "C27H33N3O6S", "Melting Point": "181 \u00b0C"}}