{"cas_no": "3336-58-1", "cn_name": "\u4e09\u6c1f\u4e59\u9178\u94f5", "en_name": ["Ammonium trifluoroacetate", "Acetic acid, 2,2,2-trifluoro-, ammonium salt (1:1)", "Acetic acid, trifluoro-, ammonium salt", "Ammonium trifluoroacetate"], "SMILES": "C(C(O)=O)(F)(F)F.N", "physical_data": {"Molecular Weight": "", "Molecular Formula": "C2HF3O2.H3N", "Melting Point": "124 \u00b0C"}}