{"cas_no": "3336-49-0", "cn_name": "4-\u7f9f\u57fa\u5f02\u55b9\u5549", "en_name": ["4-Isoquinolinol", "4-Isoquinolinol", "4-Hydroxyisoquinoline", "4-Isoquinolol", "NSC 153682"], "SMILES": "OC=1C2=C(C=NC1)C=CC=C2", "physical_data": {"Molecular Weight": "145.16", "Molecular Formula": "C9H7NO", "Melting Point": "223 \u00b0C"}}