{"cas_no": "3336-39-8", "cn_name": "\u6eb4\u82ef\u8148\u7532\u57fa\u919a", "en_name": ["3,5-Dibromo-4-methoxybenzonitrile", "Benzonitrile, 3,5-dibromo-4-methoxy-", "p-Anisonitrile, 3,5-dibromo-", "3,5-Dibromo-4-methoxybenzonitrile", "4-Methoxy-3,5-dibromobenzonitrile", "Bromoxynil methyl"], "SMILES": "O(C)C1=C(Br)C=C(C#N)C=C1Br", "physical_data": {"Molecular Weight": "290.94", "Molecular Formula": "C8H5Br2NO", "Melting Point": "119-120 \u00b0C"}}