{"cas_no": "3336-40-1", "cn_name": "\u7532\u9170\u7898\u82ef\u8148", "en_name": ["3,5-Diiodo-4-methoxybenzonitrile", "Benzonitrile, 3,5-diiodo-4-methoxy-", "p-Anisonitrile, 3,5-diiodo-", "3,5-Diiodo-4-methoxybenzonitrile", "Methyl ioxynil"], "SMILES": "O(C)C1=C(I)C=C(C#N)C=C1I", "physical_data": {"Molecular Weight": "384.94", "Molecular Formula": "C8H5I2NO", "Melting Point": "154 \u00b0C"}}