{"cas_no": "3336-41-2", "cn_name": "3,5-\u4e8c\u6c2f-4-\u7f9f\u57fa\u82ef\u7532\u9178", "en_name": ["3,5-Dichloro-4-hydroxybenzoic acid", "Benzoic acid, 3,5-dichloro-4-hydroxy-", "3,5-Dichloro-4-hydroxybenzoic acid", "NSC 21185", "4-Hydroxy-3,5-dichlorobenzoic acid"], "SMILES": "C(O)(=O)C1=CC(Cl)=C(O)C(Cl)=C1", "physical_data": {"Molecular Weight": "207.01", "Molecular Formula": "C7H4Cl2O3", "Melting Point": "255-256 \u00b0C (decomp)"}}