{"cas_no": "3336-43-4", "cn_name": "1-\u6c2f-4-\u7f9f\u57fa\u5f02\u55b9\u5549", "en_name": ["1-Chloro-4-isoquinolinol", "4-Isoquinolinol, 1-chloro-", "1-Chloro-4-isoquinolinol", "1-Chloroisoquinolin-4-ol", "1-Chloro-4-hydroxyisoquinoline"], "SMILES": "OC=1C2=C(C(Cl)=NC1)C=CC=C2", "physical_data": {"Molecular Weight": "179.60", "Molecular Formula": "C9H6ClNO", "Melting Point": "193.5-194 \u00b0C (decomp)"}}