{"cas_no": "3337-71-1", "cn_name": "\u78fa\u8349\u7075", "en_name": ["Asulam", "Carbamic acid, N-[(4-aminophenyl)sulfonyl]-, methyl ester", "Carbamic acid, sulfanilyl-, methyl ester", "Carbamic acid, [(4-aminophenyl)sulfonyl]-, methyl ester", "Methyl 4-aminobenzenesulfonylcarbamate", "M and B 9057", "Asulam", "MB 9057", "Methyl (4-aminophenylsulfonyl)carbamate", "N1-Methoxycarbonylsulfanilamide", "Methyl p-aminobenzenesulfonylcarbamate", "Asulox F", "Plakin", "Plakin (herbicide)", "Rattler", "Rattler (herbicide)", "Asilan", "Methyl sulfanilylcarbamate"], "SMILES": "S(NC(OC)=O)(=O)(=O)C1=CC=C(N)C=C1", "physical_data": {"Molecular Weight": "230.24", "Molecular Formula": "C8H10N2O4S", "Melting Point": "144 \u00b0C"}}