{"cas_no": "3337-62-0", "cn_name": "3,5-\u4e8c\u6eb4-4-\u7f9f\u57fa\u82ef\u7532\u9178", "en_name": ["3,5-Dibromo-4-hydroxybenzoic acid", "Benzoic acid, 3,5-dibromo-4-hydroxy-", "3,5-Dibromo-4-hydroxybenzoic acid", "Bromoxynilbenzoic acid", "Bromoxynil acid", "NSC 21184", "3,5-Dibromo p-hydroxy benzoic acid"], "SMILES": "C(O)(=O)C1=CC(Br)=C(O)C(Br)=C1", "physical_data": {"Molecular Weight": "295.91", "Molecular Formula": "C7H4Br2O3", "Melting Point": "268 \u00b0C"}}