{"cas_no": "33371-00-5", "cn_name": "4-\u6c2f-6,7,8-\u4e09\u7532\u6c27\u57fa\u55b9\u5511\u5549", "en_name": ["4-Chloro-6,7,8-trimethoxyquinazoline", "Quinazoline, 4-chloro-6,7,8-trimethoxy-", "4-Chloro-6,7,8-trimethoxyquinazoline", "NSC 345681"], "SMILES": "O(C)C=1C2=C(C=C(OC)C1OC)C(Cl)=NC=N2", "physical_data": {"Molecular Weight": "254.67", "Molecular Formula": "C11H11ClN2O3", "Melting Point": "101-103 \u00b0C"}}