{"cas_no": "3337-59-5", "cn_name": "3,5-\u4e8c\u6c2f-4-\u7f9f\u57fa\u82ef\u7532\u9178\u7532\u916f", "en_name": ["Methyl 3,5-dichloro-4-hydroxybenzoate", "Benzoic acid, 3,5-dichloro-4-hydroxy-, methyl ester", "Methyl 3,5-dichloro-4-hydroxybenzoate", "Methyl 4-hydroxy-3,5-dichlorobenzoate", "3,5-Dichloro-4-hydroxybenzoic acid methyl ester"], "SMILES": "C(OC)(=O)C1=CC(Cl)=C(O)C(Cl)=C1", "physical_data": {"Molecular Weight": "221.04", "Molecular Formula": "C8H6Cl2O3", "Melting Point": "122 \u00b0C"}}