{"cas_no": "33386-08-2", "cn_name": "\u76d0\u9178\u4e01\u87ba\u73af\u916e", "en_name": ["Buspirone hydrochloride", "8-Azaspiro[4.5]decane-7,9-dione, 8-[4-[4-(2-pyrimidinyl)-1-piperazinyl]butyl]-, hydrochloride (1:1)", "8-Azaspiro[4.5]decane-7,9-dione, 8-[4-[4-(2-pyrimidinyl)-1-piperazinyl]butyl]-, monohydrochloride", "1,1-Cyclopentanediacetimide, N-[4-[4-(2-pyrimidinyl)-1-piperazinyl]butyl]-, monohydrochloride", "8-[4-[4-(2-Pyrimidinyl)-1-piperazinyl]butyl]-8-azaspiro[4.5]decane-7,9-dione hydrochloride", "MJ 9022-1", "Buspirone hydrochloride", "Buspirone monohydrochloride", "Bespar", "Buspar", "Axoren", "Buspimem", "Ansiced", "Narol", "Censpar", "Buspinol", "Travin", "Buspisal", "Ansial", "Lucelan", "Buspa", "Ansiten", "Buscalma", "Busron"], "SMILES": "O=C1CC2(CC(=O)N1CCCCN3CCN(CC3)C=4N=CC=CN4)CCCC2.Cl", "physical_data": {"Molecular Weight": "", "Molecular Formula": "C21H31N5O2.ClH", "Melting Point": "201.5-202.5 \u00b0C"}}