{"cas_no": "3338-32-7", "cn_name": "N-\u82c4\u6c27\u7fb0\u57fa-L-\u5929\u51ac\u6c28\u9178 4-\u53d4\u4e01\u916f 1-(N-\u7425\u73c0\u9170\u4e9a\u80fa)\u916f", "en_name": ["L-Aspartic acid, N-[(phenylmethoxy)carbonyl]-, 4-(1,1-dimethylethyl) 1-(2,5-dioxo-1-pyrrolidinyl) ester", "L-Aspartic acid, N-[(phenylmethoxy)carbonyl]-, 4-(1,1-dimethylethyl) 1-(2,5-dioxo-1-pyrrolidinyl) ester", "Succinimide, N-[(N-carboxy-L-\u03b1-aspartyl)oxy]-, N-benzyl tert-butyl ester", "Butanoic acid, 4-[(2,5-dioxo-1-pyrrolidinyl)oxy]-4-oxo-3-[[(phenylmethoxy)carbonyl]amino]-, 1,1-dimethylethyl ester, (S)-", "Butanoic acid, 4-[(2,5-dioxo-1-pyrrolidinyl)oxy]-4-oxo-3-[[(phenylmethoxy)carbonyl]amino]-, 1,1-dimethylethyl ester, (3S)-", "Aspartic acid, N-carboxy-, N-benzyl 4-tert-butyl ester, succinimido deriv., L-", "N-Benzyloxycarbonyl-L-aspartic acid 5-tert-butyl-1-hydroxysuccinimide diester"], "SMILES": "O(C(C(NC(OCC1=CC=CC=C1)=O)CC(OC(C)(C)C)=O)=O)N2C(=O)CCC2=O", "physical_data": {"Molecular Weight": "420.41", "Molecular Formula": "C20H24N2O8", "Melting Point": "148-150 \u00b0C"}}