{"cas_no": "3338-34-9", "cn_name": "N-\u82c4\u6c27\u7fb0\u57fa-N\\'-\u53d4\u4e01\u6c27\u7fb0\u57fa-L-\u8d56\u6c28\u9178\u7425\u73c0\u9170\u4e9a\u80fa\u916f", "en_name": ["L-Lysine, N6-[(1,1-dimethylethoxy)carbonyl]-N2-[(phenylmethoxy)carbonyl]-, 2,5-dioxo-1-pyrrolidinyl ester", "L-Lysine, N6-[(1,1-dimethylethoxy)carbonyl]-N2-[(phenylmethoxy)carbonyl]-, 2,5-dioxo-1-pyrrolidinyl ester", "Succinimide, N-[(N2,N6-dicarboxy-L-lysyl)oxy]-, N2-benzyl tert-butyl ester", "Carbamic acid, [5-[[(1,1-dimethylethoxy)carbonyl]amino]-1-[[(2,5-dioxo-1-pyrrolidinyl)oxy]carbonyl]pentyl]-, phenylmethyl ester, (S)-", "Succinimide, N-[(N2,N6-dicarboxy-L-lysyl)oxy]-, N2-benzyl N6-tert-butyl ester", "Carbamic acid, [(1S)-5-[[(1,1-dimethylethoxy)carbonyl]amino]-1-[[(2,5-dioxo-1-pyrrolidinyl)oxy]carbonyl]pentyl]-, phenylmethyl ester", "Lysine, N2,N6-dicarboxy-, N2-benzyl N6-tert-butyl ester, succinimido deriv., L-", "N-(\u03b1)-Benzyloxycarbonyl-N-(\u03b5)-tert-butoxycarbonyl-L-lysine succinimido ester", "NSC 334373", "(2,5-Dioxopyrrolidin-1-yl) (2S)-6-[(2-methylpropan-2-yl)oxycarbonylamino]-2-(phenylmethoxycarbonylamino)hexanoate"], "SMILES": "O(C(C(NC(OCC1=CC=CC=C1)=O)CCCCNC(OC(C)(C)C)=O)=O)N2C(=O)CCC2=O", "physical_data": {"Molecular Weight": "477.51", "Molecular Formula": "C23H31N3O8", "Melting Point": "98-101 \u00b0C"}}