{"cas_no": "3339-73-9", "cn_name": "3-(N-\u82ef\u4e8c\u7532\u9170\u4e9a\u6c28\u57fa)\u4e19\u9178", "en_name": ["N-Phthaloyl-\u03b2-alanine", "2H-Isoindole-2-propanoic acid, 1,3-dihydro-1,3-dioxo-", "2-Isoindolinepropionic acid, 1,3-dioxo-", "1,3-Dihydro-1,3-dioxo-2H-isoindole-2-propanoic acid", "\u03b2-Alanine, N-phthaloyl-", "1,3-Dioxo-2-isoindolinepropionic acid", "3-Phthalimidopropionic acid", "\u03b2-Phthalimidopropionic acid", "N-Phthaloyl-\u03b2-alanine", "\u03b2-(N-Phthalimido)propionic acid", "Phthalimido-\u03b2-alanine", "NSC 401084", "3-(1,3-Dihydro-1,3-dioxo-2H-isoindol-2-yl)propanoic acid", "3-(1,3-Dioxo-1,3-dihydroisoindol-2-yl)propionic Acid", "3-Phthalimidoylpropionic acid", "3-Phthalimidopropanoic acid", "3-(1,3-Dioxoisoindolin-2-yl)propanoic acid", "3-(1,3-Dioxo-2,3-dihydro-1H-isoindol-2-yl)propanoic acid", "3-(1,3-Dioxoisoindol-2-yl)propanoic acid"], "SMILES": "O=C1C=2C(C(=O)N1CCC(O)=O)=CC=CC2", "physical_data": {"Molecular Weight": "219.19", "Molecular Formula": "C11H9NO4", "Melting Point": "150-151 \u00b0C"}}