{"cas_no": "33390-41-9", "cn_name": "8-DESOXYGARTANIN", "en_name": ["8-Deoxygartanin", "9H-Xanthen-9-one, 1,3,5-trihydroxy-2,4-bis(3-methyl-2-buten-1-yl)-", "9H-Xanthen-9-one, 1,3,5-trihydroxy-2,4-bis(3-methyl-2-butenyl)-", "Xanthen-9-one, 1,3,5-trihydroxy-2,4-bis(3-methyl-2-butenyl)-", "1,3,5-Trihydroxy-2,4-bis(3-methyl-2-buten-1-yl)-9H-xanthen-9-one", "8-Deoxygartanin", "1,3,5-Trihydroxy-2,4-bis(3-methyl-2-butenyl)xanthone", "8-Desoxygartanin", "NSC 692944"], "SMILES": "C(C=C(C)C)C1=C2C(C(=O)C=3C(O2)=C(O)C=CC3)=C(O)C(CC=C(C)C)=C1O", "physical_data": {"Molecular Weight": "380.43", "Molecular Formula": "C23H24O5", "Melting Point": "165-167 \u00b0C"}}