{"cas_no": "33390-42-0", "cn_name": "1,3,5,8-\u56db\u7f9f\u57fa-2,4-\u53cc(3-\u7532\u57fa-2-\u4e01\u70ef\u57fa)-9H-\u6c27\u6742\u84bd-9-\u916e", "en_name": ["Gartanin", "9H-Xanthen-9-one, 1,3,5,8-tetrahydroxy-2,4-bis(3-methyl-2-buten-1-yl)-", "9H-Xanthen-9-one, 1,3,5,8-tetrahydroxy-2,4-bis(3-methyl-2-butenyl)-", "Xanthen-9-one, 1,3,5,8-tetrahydroxy-2,4-bis(3-methyl-2-butenyl)-", "1,3,5,8-Tetrahydroxy-2,4-bis(3-methyl-2-buten-1-yl)-9H-xanthen-9-one", "Gartanin", "NSC 692946", "1,3,5,8-Tetrahydroxy-2,4-bis(3-methylbut-2-enyl)xanthen-9-one"], "SMILES": "O=C1C=2C(=C(CC=C(C)C)C(O)=C(CC=C(C)C)C2O)OC=3C1=C(O)C=CC3O", "physical_data": {"Molecular Weight": "396.43", "Molecular Formula": "C23H24O6", "Melting Point": "166-168 \u00b0C"}}