{"cas_no": "334-88-3", "cn_name": "\u91cd\u6c2e\u7532\u70f7", "en_name": ["Diazomethane", "Methane, diazo-", "Azimethylene", "Diazomethane", "Diazirine", "Diazonium methylide", "Diazyne, methylene-", "MeSH ID: D003978"], "SMILES": "[N+](=C)=[N-]", "physical_data": {"Molecular Weight": "", "Molecular Formula": "CH2N2", "Boiling Point": "-23 \u00b0C", "Melting Point": "-145 \u00b0C", "Density": "1.45 g/cm\u00b3"}}