{"cas_no": "334-50-9", "cn_name": "\u4e9a\u7cbe\u80fa\u76d0\u9178\u76d0", "en_name": ["Spermidine trihydrochloride", "1,4-Butanediamine, N1-(3-aminopropyl)-, hydrochloride (1:3)", "1,4-Butanediamine, N-(3-aminopropyl)-, trihydrochloride", "Spermidine trihydrochloride", "Spermidine hydrochloride"], "SMILES": "C(NCCCN)CCCN.Cl", "physical_data": {"Molecular Weight": "", "Molecular Formula": "C7H19N3.3ClH", "Melting Point": "256-258 \u00b0C"}}