{"cas_no": "334-56-5", "cn_name": "1-\u6c1f\u7678", "en_name": ["1-Fluorodecane", "Decane, 1-fluoro-", "1-Fluorodecane", "Decyl fluoride", "1-Decylfluoride"], "SMILES": "C(CCCCC)CCCCF", "physical_data": {"Molecular Weight": "160.27", "Molecular Formula": "C10H21F", "Boiling Point": "186.2 \u00b0C", "Melting Point": "-35 \u00b0C", "Density": "0.792 g/cm\u00b3 @ Temp: 10.2 \u00b0C"}}