{"cas_no": "334-49-6", "cn_name": "\u53cd\u5f0f-2-\u7678\u70ef\u9178", "en_name": ["trans-2-Decenoic acid", "2-Decenoic acid, (2E)-", "2-Decenoic acid, (E)-", "(2E)-2-Decenoic acid", "trans-2-Decenoic acid", "(E)-2-Decenoic acid"], "SMILES": "C(CCCCCC)C=CC(O)=O", "physical_data": {"Molecular Weight": "170.25", "Molecular Formula": "C10H18O2", "Boiling Point": "120 \u00b0C @ Press: 2 Torr", "Melting Point": "12 \u00b0C"}}