{"cas_no": "334-48-5", "cn_name": "\u6b63\u7678\u9178", "en_name": ["Decanoic acid", "Decanoic acid", "Capric acid", "Decoic acid", "n-Decoic acid", "Decylic acid", "n-Decylic acid", "n-Capric acid", "1-Nonanecarboxylic acid", "n-Decanoic acid", "Caprinic acid", "Caprynic acid", "Emery 659", "Prifac 296", "NAA 102", "Prifac 2906", "Lunac 10-95", "Lunac 10-98", "NSC 5025", "Lunac 10-98E", "1-Decanoic acid", "Palmac 99-10", "Edenor C 10-98-100", "Palamac 99-10", "Caprates"], "SMILES": "C(CCCCCC)CCC(O)=O", "physical_data": {"Molecular Weight": "172.26", "Molecular Formula": "C10H20O2", "Boiling Point": "268.7 \u00b0C", "Melting Point": "31.5 \u00b0C", "Density": "0.890 g/cm\u00b3 @ Temp: 40 \u00b0C"}}