{"cas_no": "33404-34-1", "cn_name": "D-(+)-\u7ea4\u7ef4\u4e09\u7cd6", "en_name": ["Cellotriose", "D-Glucose, O-\u03b2-D-glucopyranosyl-(1\u21924)-O-\u03b2-D-glucopyranosyl-(1\u21924)-", "Cellotriose", "O-\u03b2-D-Glucopyranosyl-(1\u21924)-O-\u03b2-D-glucopyranosyl-(1\u21924)-D-glucose", "D-Glucosyl-\u03b2-(1\u21924)-D-glucosyl-\u03b2-(1\u21924)-D-glucose"], "SMILES": "O(C1C(CO)OC(OC(C(C(C=O)O)O)C(CO)O)C(O)C1O)C2OC(CO)C(O)C(O)C2O", "physical_data": {"Molecular Weight": "504.44", "Molecular Formula": "C18H32O16", "Melting Point": "238 \u00b0C (decomp)"}}