{"cas_no": "33402-03-8", "cn_name": "\u91cd\u9152\u77f3\u9178\u95f4\u7f9f\u80fa", "en_name": ["Metaraminol bitartrate", "Benzenemethanol, \u03b1-[(1S)-1-aminoethyl]-3-hydroxy-, (\u03b1R)-, (2R,3R)-2,3-dihydroxybutanedioate (1:1)", "Benzyl alcohol, \u03b1-(1-aminoethyl)-m-hydroxy-, (-)-, tartrate (1:1) (salt)", "Benzenemethanol, \u03b1-(1-aminoethyl)-3-hydroxy-, [R-(R*,S*)]-, [R-(R*,R*)]-2,3-dihydroxybutanedioate (1:1) (salt)", "Benzenemethanol, \u03b1-[(1S)-1-aminoethyl]-3-hydroxy-, (\u03b1R)-, (2R,3R)-2,3-dihydroxybutanedioate (1:1) (salt)", "Aramine", "Metaraminol bitartrate", "(-)-Metaraminol bitartrate", "Metaraminol tartrate", "Metaradrine bitartrate", "Aramine (sympathomimetic)", "Metaraminol hydrogen tartrate", "Pressorol", "Icoral B"], "SMILES": "C(C(C)N)(O)C1=CC(O)=CC=C1.C(C(C(O)=O)O)(C(O)=O)O", "physical_data": {"Molecular Weight": "", "Molecular Formula": "C9H13NO2.C4H6O6", "Melting Point": "176-177 \u00b0C"}}