{"cas_no": "33401-87-5", "cn_name": "\u6f58\u7cd6", "en_name": ["Panose", "D-Glucose, O-\u03b1-D-glucopyranosyl-(1\u21926)-O-\u03b1-D-glucopyranosyl-(1\u21924)-", "Panose", "O-\u03b1-D-Glucopyranosyl-(1\u21926)-O-\u03b1-D-glucopyranosyl-(1\u21924)-D-glucose", "4-\u03b1-Isomaltosylglucose", "D-Panose", "62-\u03b1-Glucosylmaltose", "62-O-\u03b1-Glucosyl maltose", "Panorich"], "SMILES": "O(C(C(C(C=O)O)O)C(CO)O)C1OC(COC2OC(CO)C(O)C(O)C2O)C(O)C(O)C1O", "physical_data": {"Molecular Weight": "504.44", "Molecular Formula": "C18H32O16", "Melting Point": "221 \u00b0C (decomp)"}}