{"cas_no": "33401-94-4", "cn_name": "\u9152\u77f3\u9178\u567b\u5429\u5627\u5576", "en_name": ["Pyrantel tartrate", "Pyrimidine, 1,4,5,6-tetrahydro-1-methyl-2-[(1E)-2-(2-thienyl)ethenyl]-, (2R,3R)-2,3-dihydroxybutanedioate (1:1)", "Pyrimidine, 1,4,5,6-tetrahydro-1-methyl-2-[2-(2-thienyl)vinyl]-, (E)-, tartrate (1:1)", "Pyrimidine, 1,4,5,6-tetrahydro-1-methyl-2-[2-(2-thienyl)ethenyl]-, (E)-, [R-(R*,R*)]-2,3-dihydroxybutanedioate (1:1)", "CP 10423-18", "trans-1-Methyl-1,4,5,6-tetrahydro-2-[2-(thienyl)vinyl]pyrimidine tartrate", "Pyrantel tartrate", "1,4,5,6-Tetrahydro-1-methyl-2-[trans-2-(2-thienyl)vinyl]pyrimidine tartrate (1:1)", "Banminth", "Pyrequan tartrate", "Strongid C", "Strongid"], "SMILES": "C(C(C(O)=O)O)(C(O)=O)O.C(=CC1=CC=CS1)C=2N(C)CCCN2", "physical_data": {"Molecular Weight": "", "Molecular Formula": "C11H14N2S.C4H6O6", "Melting Point": "148-150 \u00b0C"}}