{"cas_no": "33419-42-0", "cn_name": "\u4f9d\u6258\u6cca\u82f7", "en_name": ["Etoposide", "Furo[3\u2032,4\u2032:6,7]naphtho[2,3-d]-1,3-dioxol-6(5aH)-one, 9-[[4,6-O-(1R)-ethylidene-\u03b2-D-glucopyranosyl]oxy]-5,8,8a,9-tetrahydro-5-(4-hydroxy-3,5-dimethoxyphenyl)-, (5R,5aR,8aR,9S)-", "Epipodophyllotoxin, 4\u2032-demethyl-, 4,6-O-ethylidene-\u03b2-D-glucopyranoside", "Furo[3\u2032,4\u2032:6,7]naphtho[2,3-d]-1,3-dioxol-6(5aH)-one, 9-[(4,6-O-ethylidene-\u03b2-D-glucopyranosyl)oxy]-5,8,8a,9-tetrahydro-5-(4-hydroxy-3,5-dimethoxyphenyl)-, [5R-[5\u03b1,5a\u03b2,8a\u03b1,9\u03b2(R*)]]-", "Pyrano[3,2-d]-1,3-dioxin, furo[3\u2032,4\u2032:6,7]naphtho[2,3-d]-1,3-dioxol-6(5aH)-one deriv.", "(5R,5aR,8aR,9S)-9-[[4,6-O-(1R)-Ethylidene-\u03b2-D-glucopyranosyl]oxy]-5,8,8a,9-tetrahydro-5-(4-hydroxy-3,5-dimethoxyphenyl)furo[3\u2032,4\u2032:6,7]naphtho[2,3-d]-1,3-dioxol-6(5aH)-one", "4\u2032-Demethyl-1-O-[4,6-O-(ethylidene)-\u03b2-D-glucopyranosyl]epipodophyllotoxin", "4\u2032-Demethylepipodophyllotoxin ethylidene-\u03b2-D-glucoside", "VP 16-213", "Etoposide", "NSC 141540", "4\u2032-Demethylepipodophyllotoxin 9-(4,6-O-ethylidene-\u03b2-D-glucopyranoside)", "VP 16", "(-)-Etoposide", "VP 16-123", "VePesid", "Lastet", "Zuyeyidal", "trans-Etoposide", "VP 16 (pharmaceutical)", "EPE", "Epipodophyllotoxin VP 16213", "Vepesid J", "Toposar", "Celltop", "Eto-Gry", "Etosid", "Fytosid", "Eposin", "Sintopozid", "Eposed", "Fytop", "Nzytop", "Topok", "Beposid", "Bioposide", "Ethopul", "Toposide", "MeSH ID: D005047"], "SMILES": "O=C1C2C(C=3C(C(OC4OC5C(C(O)C4O)OC(C)OC5)C2CO1)=CC6=C(C3)OCO6)C7=CC(OC)=C(O)C(OC)=C7", "physical_data": {"Molecular Weight": "588.56", "Molecular Formula": "C29H32O13", "Melting Point": "236-251 \u00b0C"}}