{"cas_no": "33417-17-3", "cn_name": "3-HYDROXY-3-ACETONYLOXINDOLE", "en_name": ["1,3-Dihydro-3-hydroxy-3-(2-oxopropyl)-2H-indol-2-one", "2H-Indol-2-one, 1,3-dihydro-3-hydroxy-3-(2-oxopropyl)-", "2-Indolinone, 3-acetonyl-3-hydroxy-", "1,3-Dihydro-3-hydroxy-3-(2-oxopropyl)-2H-indol-2-one", "NSC 174507", "3-Hydroxy-3-(2-oxopropyl)-2,3-dihydro-1H-indol-2-one", "3-Hydroxy-3-(2-oxopropyl)-1H-indol-2-one", "3-Hydroxy-3-(2-oxopropyl)indolin-2-one", "3-Hydroxy-3-acetonyloxindole", "3-Hydroxy-3-(acetylmethyl)-2-indolinone", "3-Hydroxy-3-(2-oxo-propyl)-1,3-dihydro-indol-2-one"], "SMILES": "C(C(C)=O)C1(O)C=2C(NC1=O)=CC=CC2", "physical_data": {"Molecular Weight": "205.21", "Molecular Formula": "C11H11NO3", "Melting Point": "166-167 \u00b0C (decomp)"}}