{"cas_no": "33414-49-2", "cn_name": "3-\u7f9f\u57fa-4-\u7532\u57fa\u82ef\u4e59\u916e", "en_name": ["1-(3-Hydroxy-4-methylphenyl)ethanone", "Ethanone, 1-(3-hydroxy-4-methylphenyl)-", "Acetophenone, 3\u2032-hydroxy-4\u2032-methyl-", "1-(3-Hydroxy-4-methylphenyl)ethanone", "2-Methyl-5-acetylphenol", "3-Hydroxy-4-methylacetophenone", "1-(3-Hydroxy-4-methylphenyl)ethan-1-one"], "SMILES": "C(C)(=O)C1=CC(O)=C(C)C=C1", "physical_data": {"Molecular Weight": "150.17", "Molecular Formula": "C9H10O2", "Melting Point": "119-120 \u00b0C"}}