{"cas_no": "33421-43-1", "cn_name": "2,2-\u4e8c\u5421\u5576\u57faN-\u6c27\u5316\u7269", "en_name": ["2,2\u2032-Bipyridine, 1-oxide", "2,2\u2032-Bipyridine, 1-oxide", "2,2\u2032-Dipyridyl N-oxide", "2,2\u2032-Bipyridine N-oxide", "2,2\u2032-Bipyridine monooxide", "2,2\u2032-Dipyridyl 1-oxide", "2,2\u2032-Bipyridyl N-oxide", "[2,2\u2032]Bipyridinyl N-oxide", "N-Oxide-2,2\u2032-bipyridine", "1-Oxido-2-pyridin-2-ylpyridin-1-ium", "2-(Pyridin-2-yl)pyridin-1-ium-1-olate"], "SMILES": "O=N=1C(C2=CC=CC=N2)=CC=CC1", "physical_data": {"Molecular Weight": "172.18", "Molecular Formula": "C10H8N2O", "Melting Point": "58.5-59.5 \u00b0C"}}