{"cas_no": "3342-78-7", "cn_name": "2-\u6c28\u57fa\u82ef\u4e59\u9178", "en_name": ["2-Aminophenylacetic acid", "Benzeneacetic acid, 2-amino-", "Acetic acid, (o-aminophenyl)-", "2-Aminobenzeneacetic acid", "2-Aminophenylacetic acid", "(o-Aminophenyl)acetic acid", "2-(2-Aminophenyl)acetic acid"], "SMILES": "C(C(O)=O)C1=C(N)C=CC=C1", "physical_data": {"Molecular Weight": "151.16", "Molecular Formula": "C8H9NO2", "Melting Point": "119 \u00b0C"}}