{"cas_no": "33420-52-9", "cn_name": "2,2-\u4e8c\u6c1f\u4e19\u9187", "en_name": ["2,2-Difluoro-1-propanol", "1-Propanol, 2,2-difluoro-", "2,2-Difluoro-1-propanol", "2,2-Difluoropropanol"], "SMILES": "C(CO)(C)(F)F", "physical_data": {"Molecular Weight": "96.08", "Molecular Formula": "C3H6F2O", "Boiling Point": "101-102 \u00b0C @ Press: 760 Torr", "Density": "1.1855 g/cm\u00b3 @ Temp: 20 \u00b0C"}}