{"cas_no": "33421-40-8", "cn_name": "2-\u6c28\u57fa-5-\u82ef\u57fa\u5421\u5576", "en_name": ["5-Phenyl-2-pyridinamine", "2-Pyridinamine, 5-phenyl-", "Pyridine, 2-amino-5-phenyl-", "5-Phenyl-2-pyridinamine", "2-Amino-5-phenylpyridine", "Phe-P 1", "5-Phenylpyridin-2-ylamine"], "SMILES": "NC=1C=CC(=CN1)C2=CC=CC=C2", "physical_data": {"Molecular Weight": "170.21", "Molecular Formula": "C11H10N2", "Melting Point": "133 \u00b0C"}}