{"cas_no": "33422-35-4", "cn_name": "2-(3-\u6c27-2-\u54cc\u55ea\u57fa)\u4e59\u9178\u4e59\u916f", "en_name": ["Ethyl 3-oxo-2-piperazineacetate", "2-Piperazineacetic acid, 3-oxo-, ethyl ester", "Ethyl 3-oxo-2-piperazineacetate", "Ethyl 2-(3-oxopiperazin-2-yl)acetate", "3-Oxopiperazin-2-ylacetic acid ethyl ester"], "SMILES": "C(C(OCC)=O)C1C(=O)NCCN1", "physical_data": {"Molecular Weight": "186.21", "Molecular Formula": "C8H14N2O3", "Melting Point": "109-110 \u00b0C"}}