{"cas_no": "33421-39-5", "cn_name": "2-\u82ef\u7532\u57fa\u70df\u9178", "en_name": ["2-Phenyl-3-pyridinecarboxylic acid", "3-Pyridinecarboxylic acid, 2-phenyl-", "Nicotinic acid, 2-phenyl-", "2-Phenyl-3-pyridinecarboxylic acid", "2-Phenylnicotinic acid", "NSC 127178", "NSC 127179"], "SMILES": "C(O)(=O)C1=C(N=CC=C1)C2=CC=CC=C2", "physical_data": {"Molecular Weight": "199.21", "Molecular Formula": "C12H9NO2", "Melting Point": "168-169 \u00b0C"}}