{"cas_no": "33429-83-3", "cn_name": "3',5,7-\u4e09\u7f9f\u57fa-3,4'-\u4e8c\u7532\u6c27\u57fa\u9ec4\u916e", "en_name": ["Quercetin 3,4\u2032-dimethyl ether", "4H-1-Benzopyran-4-one, 5,7-dihydroxy-2-(3-hydroxy-4-methoxyphenyl)-3-methoxy-", "Flavone, 3\u2032,5,7-trihydroxy-3,4\u2032-dimethoxy-", "5,7-Dihydroxy-2-(3-hydroxy-4-methoxyphenyl)-3-methoxy-4H-1-benzopyran-4-one", "3,4\u2032-Dimethoxy-3\u2032,5,7-trihydroxyflavone", "Quercetin 3,4\u2032-dimethyl ether", "3,4\u2032-Dimethylquercetin", "5,7,3\u2032-Trihydroxy-3,4\u2032-dimethoxyflavone", "NSC 106970"], "SMILES": "O(C)C1=C(OC=2C(C1=O)=C(O)C=C(O)C2)C3=CC(O)=C(OC)C=C3", "physical_data": {"Molecular Weight": "330.29", "Molecular Formula": "C17H14O7", "Melting Point": "232-233 \u00b0C"}}