{"cas_no": "3343-28-0", "cn_name": "2-(\u56db\u6c22-2,6-\u4e8c\u6c27\u4ee3\u5421\u5583-3-\u57fa)\u5f02\u5432\u54da-1,3(2H)\u4e8c\u916e", "en_name": ["N-Phthaloyl-DL-glutamic anhydride", "1H-Isoindole-1,3(2H)-dione, 2-(tetrahydro-2,6-dioxo-2H-pyran-3-yl)-", "Glutaric anhydride, 2-phthalimido-", "2-(Tetrahydro-2,6-dioxo-2H-pyran-3-yl)-1H-isoindole-1,3(2H)-dione", "\u03b1-Phthalimidoglutaric anhydride", "4-Phthalimidoglutaric anhydride", "2-Phthalimidoglutaric anhydride", "N-Phthaloyl-DL-glutamic anhydride", "2-(2,6-Dioxotetrahydropyran-3-yl)isoindol-1,3-dione", "NSC 120846", "NSC 9986", "2-(2,6-Dioxo-tetrahydro-2H-pyran-3-yl)isoindoline-1,3-dione", "2-(2,6-Dioxo-tetrahydro-pyran-3-yl)-isoindole-1,3-dione", "2-(2,6-Dioxooxan-3-yl)isoindole-1,3-dione", "2-(2,6-Dioxooxan-3-yl)-2,3-dihydro-1H-isoindole-1,3-dione"], "SMILES": "O=C1N(C(=O)C=2C1=CC=CC2)C3C(=O)OC(=O)CC3", "physical_data": {"Molecular Weight": "259.21", "Molecular Formula": "C13H9NO5", "Melting Point": "195-196 \u00b0C (decomp)"}}