{"cas_no": "3343-41-7", "cn_name": "\u0391-\u7f9f\u57fa-2-\u5421\u5576\u7532\u78fa\u9178", "en_name": ["\u03b1-HPMS", "2-Pyridinemethanesulfonic acid, \u03b1-hydroxy-", "\u03b1-Hydroxy-2-pyridinemethanesulfonic acid", "2-Pyridylhydroxymethanesulfonic acid", "\u03b1-HPMS", "NSC 11732"], "SMILES": "C(S(=O)(=O)O)(O)C1=CC=CC=N1", "physical_data": {"Molecular Weight": "189.19", "Molecular Formula": "C6H7NO4S", "Melting Point": "205 \u00b0C"}}