{"cas_no": "3343-29-1", "cn_name": "N-\u90bb\u82ef\u4e8c\u7532\u9170\u57fa-L-\u8c37\u6c28\u9170\u80fa", "en_name": ["N-Phthaloyl-L-glutamine", "2H-Isoindole-2-acetic acid, \u03b1-(3-amino-3-oxopropyl)-1,3-dihydro-1,3-dioxo-, (\u03b1S)-", "Glutaramic acid, 2-phthalimido-, L-", "2H-Isoindole-2-acetic acid, \u03b1-(3-amino-3-oxopropyl)-1,3-dihydro-1,3-dioxo-, (S)-", "(\u03b1S)-\u03b1-(3-Amino-3-oxopropyl)-1,3-dihydro-1,3-dioxo-2H-isoindole-2-acetic acid", "N-Phthalylglutamine", "N-Phthaloyl-L-glutamine", "NSC 88735", "2H-Isoindole-2-acetic acid \u03b1-(3-amino-3-oxopropyl)-1,3-dihydro-1,3-dioxo-, (\u03b1S)-"], "SMILES": "C(CCC(N)=O)(C(O)=O)N1C(=O)C=2C(C1=O)=CC=CC2", "physical_data": {"Molecular Weight": "276.24", "Molecular Formula": "C13H12N2O5", "Melting Point": "163 \u00b0C"}}