{"cas_no": "3344-77-2", "cn_name": "12-\u6eb4-1-\u5341\u4e8c\u70f7\u9187", "en_name": ["12-Bromo-1-dodecanol", "1-Dodecanol, 12-bromo-", "12-Bromo-1-dodecanol", "1-Bromo-12-dodecanol"], "SMILES": "C(CCCCCCO)CCCCCBr", "physical_data": {"Molecular Weight": "265.23", "Molecular Formula": "C12H25BrO", "Boiling Point": "155-156 \u00b0C @ Press: 4 Torr", "Melting Point": "29 \u00b0C"}}