{"cas_no": "3344-70-5", "cn_name": "1,12-\u4e8c\u6eb4\u5341\u4e8c\u70f7", "en_name": ["1,12-Dibromododecane", "Dodecane, 1,12-dibromo-", "1,12-Dibromododecane", "\u03b1,\u03c9-Dibromododecane", "Dodecamethylene dibromide"], "SMILES": "C(CCCCCCBr)CCCCCBr", "physical_data": {"Molecular Weight": "328.13", "Molecular Formula": "C12H24Br2", "Boiling Point": "215 \u00b0C @ Press: 15 Torr", "Melting Point": "41 \u00b0C"}}