{"cas_no": "33457-62-4", "cn_name": "\u6864\u6728\u916e", "en_name": ["Alnustone", "4,6-Heptadien-3-one, 1,7-diphenyl-, (4E,6E)-", "4,6-Heptadien-3-one, 1,7-diphenyl-, (E,E)-", "(4E,6E)-1,7-Diphenyl-4,6-heptadien-3-one", "Alnustone"], "SMILES": "C(CC(C=CC=CC1=CC=CC=C1)=O)C2=CC=CC=C2", "physical_data": {"Molecular Weight": "262.35", "Molecular Formula": "C19H18O", "Melting Point": "60-62 \u00b0C"}}