{"cas_no": "33456-68-7", "cn_name": "\u5f02\u55b9\u5549\u7269", "en_name": ["4-[2-(3,4-Dihydro-7-methoxy-4,4-dimethyl-1,3-dioxo-2(1H)-isoquinolinyl)ethyl]benzenesulfonamide", "Benzenesulfonamide, 4-[2-(3,4-dihydro-7-methoxy-4,4-dimethyl-1,3-dioxo-2(1H)-isoquinolinyl)ethyl]-", "Benzenesulfonamide, p-[2-(3,4-dihydro-7-methoxy-4,4-dimethyl-1,3-dioxo-2(1H)-isoquinolyl)ethyl]-", "4-[2-(3,4-Dihydro-7-methoxy-4,4-dimethyl-1,3-dioxo-2(1H)-isoquinolinyl)ethyl]benzenesulfonamide"], "SMILES": "CC1(C)C=2C(C(=O)N(CCC3=CC=C(S(N)(=O)=O)C=C3)C1=O)=CC(OC)=CC2", "physical_data": {"Molecular Weight": "402.46", "Molecular Formula": "C20H22N2O5S", "Melting Point": "200-202 \u00b0C"}}