{"cas_no": "3345-50-4", "cn_name": "N-\u6c28\u57fa\u7532\u9170\u9a6c\u6765\u9170\u4e9a\u80fa", "en_name": ["2,5-Dihydro-2,5-dioxo-1H-pyrrole-1-carboxamide", "1H-Pyrrole-1-carboxamide, 2,5-dihydro-2,5-dioxo-", "3-Pyrroline-1-carboxamide, 2,5-dioxo-", "2,5-Dihydro-2,5-dioxo-1H-pyrrole-1-carboxamide", "N-Carbamoylmaleimide", "N-Carbamylmaleimide", "NSC 19626", "NSC 524923", "NSC 58034", "NSC 67202", "2,5-Dioxopyrrole-1-carboxamide", "2,5-Dioxo-2,5-dihydro-1H-pyrrole-1-carboxamide", "N-Carbomoyl maleimide"], "SMILES": "C(N)(=O)N1C(=O)C=CC1=O", "physical_data": {"Molecular Weight": "140.10", "Molecular Formula": "C5H4N2O3", "Melting Point": "157-158 \u00b0C"}}