{"cas_no": "33468-67-6", "cn_name": "2-\u7532\u57fa-4-\u4e09\u6c1f\u7532\u57fa\u54aa\u5511", "en_name": ["2-Methyl-5-(trifluoromethyl)-1H-imidazole", "1H-Imidazole, 2-methyl-5-(trifluoromethyl)-", "1H-Imidazole, 2-methyl-4-(trifluoromethyl)-", "Imidazole, 2-methyl-4-(trifluoromethyl)-", "2-Methyl-5-(trifluoromethyl)-1H-imidazole", "2-Methyl-4(5)-trifluoromethylimidazole", "2-Methyl-4-trifluoromethylimidazole", "2-Methyl-4-(trifluoromethyl)-1H-imidazole"], "SMILES": "C(F)(F)(F)C=1NC(C)=NC1", "physical_data": {"Molecular Weight": "150.10", "Molecular Formula": "C5H5F3N2", "Melting Point": "179-180 \u00b0C"}}