{"cas_no": "33467-79-7", "cn_name": "2,4-\u5e9a\u4e8c\u70ef-1-\u9187", "en_name": ["(2E,4E)-2,4-Heptadien-1-ol", "2,4-Heptadien-1-ol, (2E,4E)-", "2,4-Heptadien-1-ol, (E,E)-", "(2E,4E)-2,4-Heptadien-1-ol", "(2E,4E)-Heptadienol", "(E,E)-Hepta-2,4-dien-1-ol"], "SMILES": "C(C=CCO)=CCC", "physical_data": {"Molecular Weight": "112.17", "Molecular Formula": "C7H12O", "Boiling Point": "96-98 \u00b0C @ Press: 18 Torr"}}