{"cas_no": "33468-35-8", "cn_name": "6-\u6c2f-L-\u8272\u6c28\u9178", "en_name": ["6-Chloro-L-tryptophan", "L-Tryptophan, 6-chloro-", "Tryptophan, 6-chloro-, L-", "6-Chloro-L-tryptophan", "6-Chlorotryptophan", "L-6-Chlorotryptophan", "(S)-2-Amino-3-(6-chloro-1H-indol-3-yl)propanoic acid", "(2S)-2-Amino-3-(6-chloro-1H-indol-3-yl)propanoic acid"], "SMILES": "C(C(C(O)=O)N)C=1C=2C(NC1)=CC(Cl)=CC2", "physical_data": {"Molecular Weight": "238.67", "Molecular Formula": "C11H11ClN2O2", "Melting Point": "248-253 \u00b0C"}}