{"cas_no": "33462-81-6", "cn_name": "\u73af\u4e19\u57fa\u4e8c\u82ef\u57fa\u950d\u56db\u6c1f\u787c\u9178\u76d0", "en_name": ["Sulfonium, cyclopropyldiphenyl-, tetrafluoroborate(1-) (1:1)", "Sulfonium, cyclopropyldiphenyl-, tetrafluoroborate(1-) (1:1)", "Sulfonium, cyclopropyldiphenyl-, tetrafluoroborate(1-)", "Borate(1-), tetrafluoro-, cyclopropyldiphenylsulfonium", "Cyclopropyldiphenylsulfonium tetrafluoroborate", "Cyclopropyldiphenylsulfonium fluoborate", "Diphenylcyclopropylsulfonium tetrafluoroborate"], "SMILES": "[B+3]([F-])([F-])([F-])[F-].[S+](C1CC1)(C2=CC=CC=C2)C3=CC=CC=C3", "physical_data": {"Molecular Weight": "", "Molecular Formula": "C15H15S.BF4", "Melting Point": "139 \u00b0C"}}