{"cas_no": "33467-73-1", "cn_name": "\u987a\u5f0f-3-\u5df1\u70ef\u9187\u7532\u9178\u916f", "en_name": ["cis-3-Hexenyl formate", "3-Hexen-1-ol, 1-formate, (3Z)-", "3-Hexen-1-ol, formate, (Z)-", "3-Hexen-1-ol, formate, (3Z)-", "cis-3-Hexenyl formate", "(Z)-3-Hexen-1-yl formate", "(Z)-3-Hexenyl formate", "(Z)-Hex-3-enyl formate", "(3Z)-3-Hexenyl formate"], "SMILES": "C(C=CCC)COC=O", "physical_data": {"Molecular Weight": "128.17", "Molecular Formula": "C7H12O2", "Boiling Point": "155 \u00b0C", "Density": "0.90915 g/cm\u00b3 @ Temp: 20.00 \u00b0C"}}