{"cas_no": "33468-69-8", "cn_name": "4-(\u4e09\u6c1f\u7532\u57fa)-1H-\u54aa\u5511", "en_name": ["5-(Trifluoromethyl)-1H-imidazole", "1H-Imidazole, 5-(trifluoromethyl)-", "1H-Imidazole, 4-(trifluoromethyl)-", "Imidazole, 4-(trifluoromethyl)-", "5-(Trifluoromethyl)-1H-imidazole", "4-(Trifluoromethyl)imidazole", "4-Trifluoromethyl-1H-imidazole", "5-Trifluoromethylimidazole", "5-Trifluoromethyl-1H-imidazole"], "SMILES": "C(F)(F)(F)C1=CN=CN1", "physical_data": {"Molecular Weight": "136.08", "Molecular Formula": "C4H3F3N2", "Melting Point": "128-132 \u00b0C"}}