{"cas_no": "33464-71-0", "cn_name": "\u7edc\u77f3\u82f7", "en_name": ["Tracheloside", "2(3H)-Furanone, 4-[(3,4-dimethoxyphenyl)methyl]-3-[[4-(\u03b2-D-glucopyranosyloxy)-3-methoxyphenyl]methyl]dihydro-3-hydroxy-, (3S,4S)-", "2(3H)-Furanone, 4-[(3,4-dimethoxyphenyl)methyl]-3-[[4-(\u03b2-D-glucopyranosyloxy)-3-methoxyphenyl]methyl]dihydro-3-hydroxy-, (3S-cis)-", "Tracheloside", "(3S,4S)-4-[(3,4-Dimethoxyphenyl)methyl]-3-[[4-(\u03b2-D-glucopyranosyloxy)-3-methoxyphenyl]methyl]dihydro-3-hydroxy-2(3H)-furanone", "2-Hydroxyarctiin", "8\u2032-Hydroxyarctigenin-4\u2032-O-\u03b2-D-glucoside"], "SMILES": "C(C1C(CC2=CC(OC)=C(OC3OC(CO)C(O)C(O)C3O)C=C2)(O)C(=O)OC1)C4=CC(OC)=C(OC)C=C4", "physical_data": {"Molecular Weight": "550.55", "Molecular Formula": "C27H34O12", "Melting Point": "176 \u00b0C (decomp)"}}