{"cas_no": "33467-76-4", "cn_name": "\u53cd-2-\u5e9a\u70ef-1-\u9187", "en_name": ["trans-2-Hepten-1-ol", "2-Hepten-1-ol, (2E)-", "2-Hepten-1-ol, (E)-", "trans-2-Hepten-1-ol", "(2E)-2-Hepten-1-ol", "n-Hept-trans-2-en-1-ol", "(E)-2-Hepten-1-ol", "trans-2-Heptenol"], "SMILES": "C(C=CCO)CCC", "physical_data": {"Molecular Weight": "114.19", "Molecular Formula": "C7H14O", "Boiling Point": "178 \u00b0C", "Density": "0.8426 g/cm\u00b3 @ Temp: 20 \u00b0C"}}