{"cas_no": "3346-63-2", "cn_name": "2,6-\u4e8c\u6c28\u57fa-3-\u785d\u57fa\u5421\u5576", "en_name": ["3-Nitro-2,6-pyridinediamine", "2,6-Pyridinediamine, 3-nitro-", "Pyridine, 2,6-diamino-3-nitro-", "3-Nitro-2,6-pyridinediamine", "2,6-Diamino-3-nitropyridine", "NSC 404692"], "SMILES": "N(=O)(=O)C1=C(N)N=C(N)C=C1", "physical_data": {"Molecular Weight": "154.13", "Molecular Formula": "C5H6N4O2", "Melting Point": "230 \u00b0C"}}