{"cas_no": "3347-22-6", "cn_name": "\u4e8c\u55ea\u519c", "en_name": ["Dithianon", "Naphtho[2,3-b]-1,4-dithiin-2,3-dicarbonitrile, 5,10-dihydro-5,10-dioxo-", "Naphtho[2,3-b]-p-dithiin-2,3-dicarbonitrile, 5,10-dihydro-5,10-dioxo-", "5,10-Dihydro-5,10-dioxonaphtho[2,3-b]-1,4-dithiin-2,3-dicarbonitrile", "MV 119A", "Dithianon", "Stauffer MV 119A", "Delan WP", "Delan (fungicide)", "2,3-Dicyano-1,4-dithiaanthraquinone", "2,3-Dinitrilo-1,4-dithiaanthraquinone", "Dithianone", "Thynon", "1,4-Dithiaanthraquinone-2,3-dicarbonitrile", "2,3-Dinitrilo-1,4-dithia-9,10-anthraquinone", "Delan", "Delan-Col", "Delan 75SC", "NSC 218452", "Delan WG", "Delan 700WG"], "SMILES": "O=C1C2=C(C(=O)C=3C1=CC=CC3)SC(C#N)=C(C#N)S2", "physical_data": {"Molecular Weight": "296.32", "Molecular Formula": "C14H4N2O2S2", "Melting Point": "220 \u00b0C", "Density": "1.55 g/cm\u00b3 @ Temp: 18 \u00b0C"}}