{"cas_no": "3347-90-8", "cn_name": "S-2-\u7f9f\u57fa\u4e01\u9178", "en_name": ["(S)-2-Hydroxybutyric acid", "Butanoic acid, 2-hydroxy-, (2S)-", "Butanoic acid, 2-hydroxy-, (S)-", "(2S)-2-Hydroxybutanoic acid", "L-2-Hydroxybutyric acid", "(+)-2-Hydroxybutyric acid", "(+)-2-Hydroxy-n-butyric acid", "(+)-2-Hydroxybutanoic acid", "(S)-2-Hydroxybutyric acid", "L-\u03b1-Hydroxybutyric acid", "(+)-\u03b1-Hydroxybutyric acid", "(S)-2-Hydroxybutanoic acid", "(S)-(+)-2-Hydroxybutanoic acid", "(2S)-2-Hydroxybutanoic acid"], "SMILES": "C(C(O)=O)(CC)O", "physical_data": {"Molecular Weight": "104.10", "Molecular Formula": "C4H8O3", "Melting Point": "40-42 \u00b0C"}}