{"cas_no": "3347-62-4", "cn_name": "3-\u7532\u57fa-5-\u82ef\u57fa-1H-\u5421\u5511", "en_name": ["3-Methyl-5-phenylpyrazole", "1H-Pyrazole, 3-methyl-5-phenyl-", "Pyrazole, 3-methyl-5-phenyl-", "Pyrazole, 3(or 5)-methyl-5(or 3)-phenyl-", "3-Methyl-5-phenyl-1H-pyrazole", "3-Methyl-5-phenylpyrazole", "Phemerazole", "5-Methyl-3-phenylpyrazole", "Femerazol", "3-Phenyl-5-methylpyrazole", "NSC 78454", "5-Methyl-3-phenyl-1H-pyrazole"], "SMILES": "CC=1C=C(NN1)C2=CC=CC=C2", "physical_data": {"Molecular Weight": "158.20", "Molecular Formula": "C10H10N2", "Boiling Point": "180-195 \u00b0C @ Press: 10 Torr", "Melting Point": "128 \u00b0C"}}