{"cas_no": "33483-65-7", "cn_name": "\u53cd\u5f0f-4-\u7532\u57fa\u73af\u5df1\u80fa\u76d0\u9178\u76d0", "en_name": ["Cyclohexanamine, 4-methyl-, hydrochloride (1:1), trans-", "Cyclohexanamine, 4-methyl-, hydrochloride (1:1), trans-", "Cyclohexylamine, 4-methyl-, hydrochloride, trans-", "Cyclohexanamine, 4-methyl-, hydrochloride, trans-", "trans-4-Methylcyclohexylamine hydrochloride", "trans-4-Methylcyclohexanamine hydrochloride"], "SMILES": "CC1CCC(N)CC1.Cl", "physical_data": {"Molecular Weight": "", "Molecular Formula": "C7H15N.ClH", "Melting Point": "260 \u00b0C"}}