{"cas_no": "33486-90-7", "cn_name": "2,6-\u4e8c\u6c2f\u82c4\u57fa\u7532\u57fa\u919a", "en_name": ["1,3-Dichloro-2-(methoxymethyl)benzene", "Benzene, 1,3-dichloro-2-(methoxymethyl)-", "Ether, 2,6-dichlorobenzyl methyl", "1,3-Dichloro-2-(methoxymethyl)benzene", "2,6-Dichlorobenzyl methyl ether"], "SMILES": "C(OC)C1=C(Cl)C=CC=C1Cl", "physical_data": {"Molecular Weight": "191.05", "Molecular Formula": "C8H8Cl2O", "Boiling Point": "83 \u00b0C @ Press: 2 Torr"}}