{"cas_no": "334829-66-2", "cn_name": "D,L-SULFORAPHANE N-ACETYL-L-CYSTEINE", "en_name": ["N-Acetyl-S-[[[4-(methylsulfinyl)butyl]amino]thioxomethyl]-L-cysteine", "L-Cysteine, N-acetyl-S-[[[4-(methylsulfinyl)butyl]amino]thioxomethyl]-", "L-Cysteine, N-acetyl-, [4-(methylsulfinyl)butyl]carbamodithioate (ester)", "N-Acetyl-S-[[[4-(methylsulfinyl)butyl]amino]thioxomethyl]-L-cysteine", "N-Acetyl-S-(((methylsulfinyl)butyl)carbamothioyl)-L-cysteine"], "SMILES": "C(CSC(NCCCCS(C)=O)=S)(NC(C)=O)C(O)=O", "physical_data": {"Molecular Weight": "340.48", "Molecular Formula": "C11H20N2O4S3", "Melting Point": "60-62 \u00b0C"}}