{"cas_no": "3348-44-5", "cn_name": "\u53cc(\u4e8c\u7532\u57fa\u6c28)\u6c2f\u81a6", "en_name": ["Chlorobis(dimethylamino)phosphine", "Phosphorodiamidous chloride, N,N,N\u2032,N\u2032-tetramethyl-", "Phosphorodiamidous chloride, tetramethyl-", "N,N,N\u2032,N\u2032-Tetramethylphosphorodiamidous chloride", "Tetramethyldiaminochlorophosphine", "Chlorobis(dimethylamino)phosphine", "Tetramethylphosphorodiamidous chloride", "Bis(dimethylamino)phosphorus chloride", "Bis(dimethylamino)chlorophosphine", "Tetramethyldiamidophosphorous chloride", "[Chloro(dimethylamino)phosphanyl]dimethylamine"], "SMILES": "P(N(C)C)(N(C)C)Cl", "physical_data": {"Molecular Weight": "154.58", "Molecular Formula": "C4H12ClN2P", "Boiling Point": "29 \u00b0C @ Press: 1 Torr", "Melting Point": "-33 \u00b0C", "Density": "1.06 g/cm\u00b3 @ Temp: 20 \u00b0C"}}