{"cas_no": "33491-30-4", "cn_name": "8-\u6eb4-2H-1-\u82ef\u5e76\u5421\u5583-2-\u916e", "en_name": ["8-Bromo-2H-1-benzopyran-2-one", "2H-1-Benzopyran-2-one, 8-bromo-", "Coumarin, 8-bromo-", "8-Bromo-2H-1-benzopyran-2-one", "8-Bromocoumarin"], "SMILES": "BrC1=C2C(C=CC(=O)O2)=CC=C1", "physical_data": {"Molecular Weight": "225.04", "Molecular Formula": "C9H5BrO2", "Melting Point": "135-136 \u00b0C"}}