{"cas_no": "3349-60-8", "cn_name": "1E-\u831a\u6ee1-1-\u916e\u809f", "en_name": ["2,3-Dihydro-1H-inden-1-one oxime", "1H-Inden-1-one, 2,3-dihydro-, oxime", "1-Indanone, oxime", "2,3-Dihydro-1H-inden-1-one oxime", "NSC 186236"], "SMILES": "N(O)=C1C=2C(CC1)=CC=CC2", "physical_data": {"Molecular Weight": "147.17", "Molecular Formula": "C9H9NO", "Melting Point": "145-146 \u00b0C"}}