{"cas_no": "3349-63-1", "cn_name": "2-\u831a\u916e\u809f", "en_name": ["2-Indanone, oxime", "2H-Inden-2-one, 1,3-dihydro-, oxime", "2-Indanone, oxime", "NSC 54456", "NSC 62556", "1H-Inden-2(3H)-one oxime"], "SMILES": "N(O)=C1CC=2C(C1)=CC=CC2", "physical_data": {"Molecular Weight": "147.17", "Molecular Formula": "C9H9NO", "Melting Point": "153-154 \u00b0C"}}