{"cas_no": "3349-64-2", "cn_name": "3,4-\u4e8c\u6c22-1(2H)-\u8418\u916e\u809f", "en_name": ["1(2H)-Naphthalenone, 3,4-dihydro-, oxime", "1(2H)-Naphthalenone, 3,4-dihydro-, oxime", "1-Tetralone oxime", "\u03b1-Tetralone oxime", "Tetralone oxime", "3,4-Dihydro-1(2H)-naphthalenone oxime", "NSC 27894", "4-Dihydro-2H-naphthalen-1-one oxime", "N-Hydroxy-3,4-dihydronaphthalen-1(2H)-imine", "1-(3,4-Dihydronaphthalen-2-yl)ethanone oxime"], "SMILES": "N(O)=C1C=2C(CCC1)=CC=CC2", "physical_data": {"Molecular Weight": "161.20", "Molecular Formula": "C10H11NO", "Melting Point": "103-104 \u00b0C"}}