{"cas_no": "33499-42-2", "cn_name": "2,4-\u4e8c\u7532\u57fa\u82ef\u7532\u9178\u4e59\u916f", "en_name": ["Benzoic acid, 2,4-dimethyl-, ethyl ester", "Benzoic acid, 2,4-dimethyl-, ethyl ester", "Ethyl 2,4-dimethylbenzoate", "2,4-Dimethylbenzoic acid ethyl ester"], "SMILES": "C(OCC)(=O)C1=C(C)C=C(C)C=C1", "physical_data": {"Molecular Weight": "178.23", "Molecular Formula": "C11H14O2", "Boiling Point": "156 \u00b0C @ Press: 40 Torr"}}