{"cas_no": "335-76-2", "cn_name": "\u5341\u4e5d\u6c1f\u7678\u9178", "en_name": ["Perfluorodecanoic acid", "Decanoic acid, 2,2,3,3,4,4,5,5,6,6,7,7,8,8,9,9,10,10,10-nonadecafluoro-", "Decanoic acid, nonadecafluoro-", "2,2,3,3,4,4,5,5,6,6,7,7,8,8,9,9,10,10,10-Nonadecafluorodecanoic acid", "Perfluorodecanoic acid", "Nonadecafluorodecanoic acid", "Perfluoro-n-decanoic acid", "Nonadecafluoro-n-decanoic acid", "Perfluorocapric acid", "Perfluoro-1-nonanecarboxylic acid", "PFDA"], "SMILES": "C(C(C(C(C(C(O)=O)(F)F)(F)F)(F)F)(F)F)(C(C(C(C(F)(F)F)(F)F)(F)F)(F)F)(F)F", "physical_data": {"Molecular Weight": "514.08", "Molecular Formula": "C10HF19O2", "Boiling Point": "144-170 \u00b0C @ Press: 130-158 Torr", "Melting Point": "67-72 \u00b0C"}}