{"cas_no": "335-70-6", "cn_name": "1,8-\u4e8c\u7898\u4ee3\u5168\u6c1f\u8f9b\u70f7", "en_name": ["1,8-Diiodoperfluorooctane", "Octane, 1,1,2,2,3,3,4,4,5,5,6,6,7,7,8,8-hexadecafluoro-1,8-diiodo-", "Octane, hexadecafluoro-1,8-diiodo-", "1,1,2,2,3,3,4,4,5,5,6,6,7,7,8,8-Hexadecafluoro-1,8-diiodooctane", "1,8-Diiodoperfluorooctane", "1,8-Diiodohexadecafluorooctane", "\u03b1,\u03c9-Diiodoperfluorooctane"], "SMILES": "C(C(C(C(C(F)(F)I)(F)F)(F)F)(F)F)(C(C(C(F)(F)I)(F)F)(F)F)(F)F", "physical_data": {"Molecular Weight": "653.87", "Molecular Formula": "C8F16I2", "Boiling Point": "95-98 \u00b0C @ Press: 0.4 Torr", "Melting Point": "75-76 \u00b0C"}}