{"cas_no": "335-57-9", "cn_name": "\u5168\u6c1f\u5e9a\u70f7", "en_name": ["Perfluoroheptane", "Heptane, 1,1,1,2,2,3,3,4,4,5,5,6,6,7,7,7-hexadecafluoro-", "Heptane, hexadecafluoro-", "1,1,1,2,2,3,3,4,4,5,5,6,6,7,7,7-Hexadecafluoroheptane", "Perfluoroheptane", "Perfluoro-n-heptane", "Hexadecafluoroheptane", "Fluorinert PF 5070", "PF 5070", "NSC 79256"], "SMILES": "C(C(C(C(F)(F)F)(F)F)(F)F)(C(C(C(F)(F)F)(F)F)(F)F)(F)F", "physical_data": {"Molecular Weight": "388.05", "Molecular Formula": "C7F16", "Boiling Point": "82.5 \u00b0C", "Melting Point": "-78 \u00b0C", "Density": "1.7332 g/cm\u00b3 @ Temp: 20 \u00b0C"}}