{"cas_no": "335-05-7", "cn_name": "\u4e09\u6c1f\u7532\u57fa\u78fa\u9170\u6c1f", "en_name": ["Trifluoromethanesulfonyl fluoride", "Methanesulfonyl fluoride, trifluoro-", "Trifluoromethanesulfonyl fluoride", "Trifluoromethylsulfonyl fluoride", "Perfluoromethanesulfonyl fluoride"], "SMILES": "C(S(F)(=O)=O)(F)(F)F", "physical_data": {"Molecular Weight": "152.07", "Molecular Formula": "CF4O2S", "Boiling Point": "-21.7 \u00b0C"}}