{"cas_no": "335-64-8", "cn_name": "\u5168\u6c1f\u8f9b\u9170\u6c2f", "en_name": ["Perfluorooctanoyl chloride", "Octanoyl chloride, 2,2,3,3,4,4,5,5,6,6,7,7,8,8,8-pentadecafluoro-", "Octanoyl chloride, pentadecafluoro-", "2,2,3,3,4,4,5,5,6,6,7,7,8,8,8-Pentadecafluorooctanoyl chloride", "Perfluorooctanoic acid chloride", "Perfluorooctanoyl chloride", "Perfluorocaprylic chloride", "n-Perfluorooctanoyl chloride", "Pentadecafluorooctanoyl chloride", "2,2,3,3,4,4,5,5,6,6,7,7,8,8,8-Pentadecafluorooctanoic acid chloride", "Perfluorooctanoic chloride"], "SMILES": "C(C(C(C(C(Cl)=O)(F)F)(F)F)(F)F)(C(C(C(F)(F)F)(F)F)(F)F)(F)F", "physical_data": {"Molecular Weight": "432.51", "Molecular Formula": "C8ClF15O", "Boiling Point": "131 \u00b0C", "Melting Point": "74-75 \u00b0C"}}