{"cas_no": "335-99-9", "cn_name": "\u5341\u4e8c\u6c1f\u5e9a\u9187", "en_name": ["2,2,3,3,4,4,5,5,6,6,7,7-Dodecafluoro-1-heptanol", "1-Heptanol, 2,2,3,3,4,4,5,5,6,6,7,7-dodecafluoro-", "2,2,3,3,4,4,5,5,6,6,7,7-Dodecafluoro-1-heptanol", "1H,1H,7H-Dodecafluoro-1-heptanol", "1,1,7-Trihydroperfluoroheptyl alcohol", "1H,1H,7H-Dodecafluoro-1-hydroxyheptane", "1,1,7-Trihydroperfluoroheptanol", "1,1,7-Trihydrododecafluoroheptan-1-ol", "1,1,7-Trihydrododecafluoroheptanol", "1H,1H,7H-Dodecafluoroheptanol", "\u03b1,\u03b1,\u03c9-Trihydroperfluoroheptanol", "Dodecylfluoroheptanol", "1H,1H,7H-Dodecafluoro-n-heptanol", "2,2,3,3,4,4,5,5,6,6,7,7-Dodecafluoroheptanol", "1,1,7-Trihydroperfluoro-1-heptanol", "NSC 115", "1H,1H,7H-Perfluoroheptanol", "Dodecafluoroheptanol", "1H,1H,7H-Perfluoro-1-heptanol"], "SMILES": "C(C(C(C(F)F)(F)F)(F)F)(C(C(CO)(F)F)(F)F)(F)F", "physical_data": {"Molecular Weight": "332.09", "Molecular Formula": "C7H4F12O", "Boiling Point": "169-170 \u00b0C", "Melting Point": "-14 \u00b0C", "Density": "1.5574 g/cm\u00b3 @ Temp: 20 \u00b0C"}}