{"cas_no": "335-58-0", "cn_name": "1-\u7898\u5341\u4e94\u6c1f-\u6b63-\u5e9a\u70f7", "en_name": ["1,1,1,2,2,3,3,4,4,5,5,6,6,7,7-Pentadecafluoro-7-iodoheptane", "Heptane, 1,1,1,2,2,3,3,4,4,5,5,6,6,7,7-pentadecafluoro-7-iodo-", "Heptane, pentadecafluoro-1-iodo-", "1,1,1,2,2,3,3,4,4,5,5,6,6,7,7-Pentadecafluoro-7-iodoheptane", "Perfluoroheptyl iodide", "Pentadecafluoro-1-iodoheptane", "Perfluoro-1-iodoheptane", "Perfluoro-n-heptyl iodide", "1-Iodoperfluoroheptane", "Pentadecafluoroheptyl iodide"], "SMILES": "C(C(C(C(F)(F)F)(F)F)(F)F)(C(C(C(F)(F)I)(F)F)(F)F)(F)F", "physical_data": {"Molecular Weight": "495.96", "Molecular Formula": "C7F15I", "Boiling Point": "137.5 \u00b0C"}}