{"cas_no": "335-56-8", "cn_name": "1-\u6eb4\u5168\u6c1f\u4e59\u70f7", "en_name": ["1-Bromoperfluorohexane", "Hexane, 1-bromo-1,1,2,2,3,3,4,4,5,5,6,6,6-tridecafluoro-", "Hexane, 1-bromotridecafluoro-", "1-Bromo-1,1,2,2,3,3,4,4,5,5,6,6,6-tridecafluorohexane", "Perfluorohexylbromide", "1-Bromoperfluorohexane", "n-Perfluorohexyl bromide", "1-Bromotridecafluorohexane", "Tridecafluorohexyl bromide"], "SMILES": "C(C(C(C(F)(F)F)(F)F)(F)F)(C(C(Br)(F)F)(F)F)(F)F", "physical_data": {"Molecular Weight": "398.95", "Molecular Formula": "C6BrF13", "Boiling Point": "98 \u00b0C"}}