{"cas_no": "335-36-4", "cn_name": "\u5168\u6c1f\u4e01\u57fa\u56db\u6c22\u544b\u5583", "en_name": ["Perfluoro-2-butyltetrahydrofuran", "Furan, 2,2,3,3,4,4,5-heptafluorotetrahydro-5-(1,1,2,2,3,3,4,4,4-nonafluorobutyl)-", "Furan, heptafluorotetrahydro-2-(nonafluorobutyl)-", "Furan, 2,2,3,3,4,4,5-heptafluorotetrahydro-5-(nonafluorobutyl)-", "2,2,3,3,4,4,5-Heptafluorotetrahydro-5-(1,1,2,2,3,3,4,4,4-nonafluorobutyl)furan", "Perfluoro-2-butyltetrahydrofuran", "Fluorinert FC 75", "FC 75", "FC 75R", "2,2,3,3,4,4,5-Heptafluorotetrahydro-5-(nonafluorobutyl)furan", "2,2,3,3,4,4,5-Heptafluoro-5-(1,1,2,2,3,3,4,4,4-nonafluorobutyl)oxolane"], "SMILES": "C(C(C(C(F)(F)F)(F)F)(F)F)(F)(F)C1(F)C(F)(F)C(F)(F)C(F)(F)O1", "physical_data": {"Molecular Weight": "416.06", "Molecular Formula": "C8F16O", "Boiling Point": "102.6 \u00b0C", "Density": "1.7660 g/cm\u00b3 @ Temp: 20 \u00b0C"}}