{"cas_no": "335-27-3", "cn_name": "\u5168\u6c1f-1,3-\u4e8c\u7532\u57fa\u73af\u5df1\u70f7", "en_name": ["Perfluoro(1,3-dimethylcyclohexane)", "Cyclohexane, 1,1,2,2,3,3,4,5,5,6-decafluoro-4,6-bis(trifluoromethyl)-", "Cyclohexane, decafluoro-1,3-bis(trifluoromethyl)-", "1,1,2,2,3,3,4,5,5,6-Decafluoro-4,6-bis(trifluoromethyl)cyclohexane", "Perfluoro(1,3-dimethylcyclohexane)", "Decafluoro-1,3-bis(trifluoromethyl)cyclohexane", "Flutec PP 3", "PP 3", "Carbogal", "Flutec PC 3", "NSC 4782"], "SMILES": "C(F)(F)(F)C1(F)C(F)(F)C(C(F)(F)F)(F)C(F)(F)C(F)(F)C1(F)F", "physical_data": {"Molecular Weight": "400.06", "Molecular Formula": "C8F16", "Boiling Point": "102 \u00b0C", "Melting Point": "-70 \u00b0C", "Density": "1.8560 g/cm\u00b3 @ Temp: 20 \u00b0C"}}