{"cas_no": "335-44-4", "cn_name": "\u4e03\u6c1f-2,3,3-\u4e09\u6c2f\u4e01\u70f7", "en_name": ["2,2,3-Trichloro-1,1,1,3,4,4,4-heptafluorobutane", "Butane, 2,2,3-trichloro-1,1,1,3,4,4,4-heptafluoro-", "Butane, 2,2,3-trichloroheptafluoro-", "2,2,3-Trichloro-1,1,1,3,4,4,4-heptafluorobutane", "2,2,3-Trichloroheptafluorobutane", "NSC 163328", "Heptafluoro-2,3,3-trichlorobutane"], "SMILES": "C(C(C(F)(F)F)(Cl)F)(C(F)(F)F)(Cl)Cl", "physical_data": {"Molecular Weight": "287.39", "Molecular Formula": "C4Cl3F7", "Boiling Point": "98 \u00b0C", "Melting Point": "4 \u00b0C", "Density": "1.7484 g/cm\u00b3 @ Temp: 20 \u00b0C"}}