{"cas_no": "335-67-1", "cn_name": "\u5168\u6c1f\u8f9b\u9178", "en_name": ["Perfluorooctanoic acid", "Octanoic acid, 2,2,3,3,4,4,5,5,6,6,7,7,8,8,8-pentadecafluoro-", "Octanoic acid, pentadecafluoro-", "2,2,3,3,4,4,5,5,6,6,7,7,8,8,8-Pentadecafluorooctanoic acid", "Perfluorocaprylic acid", "Perfluorooctanoic acid", "Perfluoroheptanecarboxylic acid", "Pentadecafluorooctanoic acid", "Pentadecafluoro-n-octanoic acid", "n-Perfluorooctanoic acid", "Eftop EF 201", "EF 201", "NSC 95114", "Perfluoro-1-heptanecarboxylic acid", "A 5717", "PFOA"], "SMILES": "C(C(C(C(C(O)=O)(F)F)(F)F)(F)F)(C(C(C(F)(F)F)(F)F)(F)F)(F)F", "physical_data": {"Molecular Weight": "414.07", "Molecular Formula": "C8HF15O2", "Boiling Point": "189 \u00b0C", "Melting Point": "52-54 \u00b0C", "Density": "1.792 g/cm\u00b3 @ Temp: 20 \u00b0C"}}