{"cas_no": "335-66-0", "cn_name": "\u5168\u6c1f\u8f9b\u9170\u6c2f", "en_name": ["2,2,3,3,4,4,5,5,6,6,7,7,8,8,8-Pentadecafluorooctanoyl fluoride", "Octanoyl fluoride, 2,2,3,3,4,4,5,5,6,6,7,7,8,8,8-pentadecafluoro-", "Octanoyl fluoride, pentadecafluoro-", "2,2,3,3,4,4,5,5,6,6,7,7,8,8,8-Pentadecafluorooctanoyl fluoride", "Perfluorooctanoyl fluoride", "Pentadecafluorooctanoyl fluoride", "Perfluorocaprylic acid fluoride", "Perfluorooctanoic acid fluoride", "F 06161"], "SMILES": "C(C(C(C(C(F)=O)(F)F)(F)F)(F)F)(C(C(C(F)(F)F)(F)F)(F)F)(F)F", "physical_data": {"Molecular Weight": "416.06", "Molecular Formula": "C8F16O", "Boiling Point": "103 \u00b0C", "Density": "1.7663 g/cm\u00b3 @ Temp: 25 \u00b0C"}}