{"cas_no": "335-65-9", "cn_name": "1H-\u5168\u6c1f\u8f9b\u70f7", "en_name": ["1,1,1,2,2,3,3,4,4,5,5,6,6,7,7,8,8-Heptadecafluorooctane", "Octane, 1,1,1,2,2,3,3,4,4,5,5,6,6,7,7,8,8-heptadecafluoro-", "1,1,1,2,2,3,3,4,4,5,5,6,6,7,7,8,8-Heptadecafluorooctane", "1H-Perfluorooctane", "1-Hydroperfluorooctane"], "SMILES": "C(C(C(C(C(F)F)(F)F)(F)F)(F)F)(C(C(C(F)(F)F)(F)F)(F)F)(F)F", "physical_data": {"Molecular Weight": "420.07", "Molecular Formula": "C8HF17", "Boiling Point": "118-119 \u00b0C", "Density": "1.760 g/cm\u00b3 @ Temp: 25 \u00b0C"}}