{"cas_no": "3350-19-4", "cn_name": "BOC-L-\u4eae\u6c28\u9178\u5bf9\u785d\u57fa\u82ef\u916f", "en_name": ["N-[(1,1-Dimethylethoxy)carbonyl]-L-leucine 4-nitrophenyl ester", "L-Leucine, N-[(1,1-dimethylethoxy)carbonyl]-, 4-nitrophenyl ester", "Leucine, N-carboxy-, N-tert-butyl p-nitrophenyl ester, L-", "Leucine, N-carboxy-, N-tert-butyl p-nitrophenyl ester", "N-[(1,1-Dimethylethoxy)carbonyl]-L-leucine 4-nitrophenyl ester", "tert-Butyloxycarbonyl-L-leucine p-nitrophenyl ester", "N-tert-Butoxycarbonyl-L-leucine p-nitrophenyl ester", "(4-Nitrophenyl) (2S)-4-methyl-2-[(2-methylpropan-2-yl)oxycarbonylamino]pentanoate"], "SMILES": "O(C(C(NC(OC(C)(C)C)=O)CC(C)C)=O)C1=CC=C(N(=O)=O)C=C1", "physical_data": {"Molecular Weight": "352.38", "Molecular Formula": "C17H24N2O6", "Melting Point": "83-84 \u00b0C"}}