{"cas_no": "33509-43-2", "cn_name": "4-\u6c28\u57fa-6-\u53d4\u4e01\u57fa-3-\u5def\u57fa-1,2,4-\u4e09\u55ea-5(4H)-\u916e", "en_name": ["4-Amino-6-(1,1-dimethylethyl)-3,4-dihydro-3-thioxo-1,2,4-triazin-5(2H)-one", "1,2,4-Triazin-5(2H)-one, 4-amino-6-(1,1-dimethylethyl)-3,4-dihydro-3-thioxo-", "as-Triazin-5(4H)-one, 4-amino-6-tert-butyl-3-mercapto-", "4-Amino-6-(1,1-dimethylethyl)-3,4-dihydro-3-thioxo-1,2,4-triazin-5(2H)-one", "4-Amino-6-tert-butyl-3-mercapto-1,2,4-triazin-5(4H)-one", "4-Amino-6-tert-butyl-3-mercapto-1,2,4-triazin-5-one", "4-Amino-6-(tert-butyl)-4H-1,2,4-triazine-3-thione-5-one"], "SMILES": "C(C)(C)(C)C=1C(=O)N(N)C(=S)NN1", "physical_data": {"Molecular Weight": "200.26", "Molecular Formula": "C7H12N4OS", "Melting Point": "215 \u00b0C"}}