{"cas_no": "3350-78-5", "cn_name": "3-\u7532\u57fa\u5df4\u8c46\u9170\u6c2f", "en_name": ["3-Methyl-2-butenoyl chloride", "2-Butenoyl chloride, 3-methyl-", "Crotonoyl chloride, 3-methyl-", "Senecioyl chloride", "3-Methyl-2-butenoyl chloride", "\u03b2,\u03b2-Dimethylacryloyl chloride", "\u03b2,\u03b2-Dimethylacrylyl chloride", "\u03b2-Methylcrotonoyl chloride", "\u03b2,\u03b2-Dimethylacrylic acid chloride", "3,3-Dimethylacryloyl chloride", "3-Methylcrotonoyl chloride", "\u03b3,\u03b3-Dimethylacryloyl chloride", "3,3-Dimethylacrylic acid chloride", "3,3-Dimethylacrylyl chloride"], "SMILES": "C(=C(C)C)C(Cl)=O", "physical_data": {"Molecular Weight": "118.56", "Molecular Formula": "C5H7ClO", "Boiling Point": "146 \u00b0C"}}