{"cas_no": "3351-86-8", "cn_name": "\u5ca9\u85fb\u9ec4\u8d28", "en_name": ["Fucoxanthin", "\u03b2,\u03b2-Carotene, 3\u2032-(acetyloxy)-6\u2032,7\u2032-didehydro-5,6-epoxy-5,5\u2032,6,6\u2032,7,8-hexahydro-3,5\u2032-dihydroxy-8-oxo-, (3S,3\u2032S,5R,5\u2032R,6S,6\u2032R)-", "\u03b1-Carotene, 6\u2032,7\u2032-didehydro-5,6-epoxy-4\u2032,5,5\u2032,6,7,8-hexahydro-3,3\u2032,5\u2032-trihydroxy-8-oxo-, 3\u2032-acetate, all-trans-", "\u03b1-Carotene, 6\u2032,7\u2032-didehydro-5,6-epoxy-4\u2032,5,5\u2032,6,7,8-hexahydro-3,3\u2032,5\u2032-trihydroxy-8-oxo-, 3\u2032-acetate", "(3S,3\u2032S,5R,5\u2032R,6S,6\u2032R)-3\u2032-(Acetyloxy)-6\u2032,7\u2032-didehydro-5,6-epoxy-5,5\u2032,6,6\u2032,7,8-hexahydro-3,5\u2032-dihydroxy-8-oxo-\u03b2,\u03b2-carotene", "Fucoxanthin", "Fucoxanthin, all-trans-", "all-trans-Fucoxanthin", "all-E-(3S,5R,6S,3\u2032S,5\u2032R,6\u2032R)-Fucoxanthin", "Sebatrol", "Infinity 50"], "SMILES": "C(C(C(=CC=CC(=CC=CC=C(C=CC=C(C=C=C1C(C)(C)CC(OC(C)=O)CC1(C)O)C)C)C)C)=O)C23C(C)(O2)CC(O)CC3(C)C", "physical_data": {"Molecular Weight": "658.91", "Molecular Formula": "C42H58O6", "Melting Point": "168 \u00b0C"}}