{"cas_no": "3351-28-8", "cn_name": "1-\u7532\u57fa\u5c48", "en_name": ["1-Methylchrysene", "Chrysene, 1-methyl-", "1-Methylchrysene"], "SMILES": "CC1=C2C(C3=C(C=4C(C=C3)=CC=CC4)C=C2)=CC=C1", "physical_data": {"Molecular Weight": "242.31", "Molecular Formula": "C19H14", "Melting Point": "256.5 \u00b0C"}}