{"cas_no": "33529-02-1", "cn_name": "N-\u6b63\u7678\u57fa\u54aa\u5511", "en_name": ["1-Decylimidazole", "1H-Imidazole, 1-decyl-", "Imidazole, 1-decyl-", "1-Decyl-1H-imidazole", "N-Decylimidazole", "1-Decylimidazole"], "SMILES": "C(CCCCCCCCC)N1C=CN=C1", "physical_data": {"Molecular Weight": "208.34", "Molecular Formula": "C13H24N2", "Boiling Point": "172-173 \u00b0C @ Press: 25 Torr"}}