{"cas_no": "33524-31-1", "cn_name": "\u5bf9\u4e8c\u7532\u6c27\u57fa\u82ef\u7532\u9187", "en_name": ["2,5-Dimethoxybenzyl alcohol", "Benzenemethanol, 2,5-dimethoxy-", "Benzyl alcohol, 2,5-dimethoxy-", "2,5-Dimethoxybenzenemethanol", "2,5-Dimethoxybenzyl alcohol", "1-(Hydroxymethyl)-2,5-dimethoxybenzene", "(2,5-Dimethoxyphenyl)methanol"], "SMILES": "C(O)C1=C(OC)C=CC(OC)=C1", "physical_data": {"Molecular Weight": "168.19", "Molecular Formula": "C9H12O3", "Boiling Point": "85-90 \u00b0C @ Press: 0.025 Torr", "Melting Point": "45-48 \u00b0C"}}