{"cas_no": "33527-91-2", "cn_name": "\u4e09(2-\u4e8c\u7532\u6c28\u57fa\u4e59\u57fa)\u80fa", "en_name": ["Tris[2-(dimethylamino)ethyl]amine", "1,2-Ethanediamine, N1,N1-bis[2-(dimethylamino)ethyl]-N2,N2-dimethyl-", "1,2-Ethanediamine, N,N-bis[2-(dimethylamino)ethyl]-N\u2032,N\u2032-dimethyl-", "Diethylenetriamine, 4-[2-(dimethylamino)ethyl]-1,1,7,7-tetramethyl-", "N1,N1-Bis[2-(dimethylamino)ethyl]-N2,N2-dimethyl-1,2-ethanediamine", "Tris[\u03b2-(dimethylamino)ethyl]amine", "Tris[2-(dimethylamino)ethyl]amine", "Tris(3-methyl-3-azabutyl)amine", "NSC 97411", "Hexamethyltris(2-aminoethyl)amine", "Tris[2-(N,N-dimethylamino)ethyl]amine", "Me6TREN", "Tris[N,N-(dimethylamino)ethyl]amine"], "SMILES": "N(CCN(C)C)(CCN(C)C)CCN(C)C", "physical_data": {"Molecular Weight": "230.39", "Molecular Formula": "C12H30N4", "Boiling Point": "88 \u00b0C @ Press: 1.9 Torr"}}