{"cas_no": "3352-87-2", "cn_name": "N,N-\u4e8c\u4e59\u57fa\u5341\u4e8c\u9170\u80fa", "en_name": ["N,N-Diethyldodecanamide", "Dodecanamide, N,N-diethyl-", "N,N-Diethyldodecanamide", "N,N-Diethyllaurylamide", "Diethyllauramide", "N,N-Diethyllauramide", "n-Dodecanoic acid diethylamide", "NSC 3890", "NSC 406286"], "SMILES": "N(C(CCCCCCCCCCC)=O)(CC)CC", "physical_data": {"Molecular Weight": "255.44", "Molecular Formula": "C16H33NO", "Boiling Point": "166-167 \u00b0C @ Press: 2 Torr", "Melting Point": "230-235 \u00b0C"}}