{"cas_no": "33522-95-1", "cn_name": "14-\u7f9f\u57fa\u4e8c\u6c22\u964d\u5417\u5561\u916e", "en_name": ["(-)-Noroxymorphone", "Morphinan-6-one, 4,5-epoxy-3,14-dihydroxy-, (5\u03b1)-", "Morphinan-6-one, 4,5\u03b1-epoxy-3,14-dihydroxy-", "Normorphinone, 7,8-dihydro-14-hydroxy-", "(5\u03b1)-4,5-Epoxy-3,14-dihydroxymorphinan-6-one", "7,8-Dihydro-14-hydroxynormorphinone", "14-Hydroxydihydronormorphinone", "Noroxymorphone", "EN 3169", "(-)-Noroxymorphone"], "SMILES": "OC12C34C=5C(OC3C(=O)CC1)=C(O)C=CC5CC2NCC4", "physical_data": {"Molecular Weight": "287.31", "Molecular Formula": "C16H17NO4", "Melting Point": "310-313 \u00b0C (decomp)"}}