{"cas_no": "3353-89-7", "cn_name": "\u4e09\u82ef\u57fa\u6eb4\u5316\u950d", "en_name": ["Sulfonium, triphenyl-, bromide (1:1)", "Sulfonium, triphenyl-, bromide (1:1)", "Sulfonium, triphenyl-, bromide", "Triphenylsulfonium bromide"], "SMILES": "[S+](C1=CC=CC=C1)(C2=CC=CC=C2)C3=CC=CC=C3.[Br-]", "physical_data": {"Molecular Weight": "", "Molecular Formula": "C18H15S.Br", "Melting Point": "290.5-290.9 \u00b0C"}}