{"cas_no": "33537-99-4", "cn_name": "6-\u6c2f-1,2,3,4-\u56db\u6c22\u5f02\u55b9\u5549", "en_name": ["6-Chloro-1,2,3,4-tetrahydroisoquinoline", "Isoquinoline, 6-chloro-1,2,3,4-tetrahydro-", "6-Chloro-1,2,3,4-tetrahydroisoquinoline"], "SMILES": "ClC=1C=C2C(=CC1)CNCC2", "physical_data": {"Molecular Weight": "167.64", "Molecular Formula": "C9H10ClN", "Melting Point": "189-191 \u00b0C"}}