{"cas_no": "3353-69-3", "cn_name": "1,2-\u4e8c(\u7532\u57fa\u4e8c\u6c2f\u7845\u57fa)\u4e59\u70f7", "en_name": ["1,2-Bis(dichloromethylsilyl)ethane", "Silane, 1,1\u2032-(1,2-ethanediyl)bis[1,1-dichloro-1-methyl-", "2,5-Disilahexane, 2,2,5,5-tetrachloro-", "Silane, 1,2-ethanediylbis[dichloromethyl-", "1,1\u2032-(1,2-Ethanediyl)bis[1,1-dichloro-1-methylsilane]", "1,2-Bis(dichloromethylsilyl)ethane", "2,2,5,5-Tetrachloro-2,5-disilahexane", "1,2-Ethanediylbis[dichloromethylsilane]", "1,2-Bis(methyldichlorosilyl)ethane"], "SMILES": "C(C[Si](C)(Cl)Cl)[Si](C)(Cl)Cl", "physical_data": {"Molecular Weight": "256.11", "Molecular Formula": "C4H10Cl4Si2", "Boiling Point": "208-210 \u00b0C", "Melting Point": "31-33 \u00b0C", "Density": "1.262 g/cm\u00b3"}}