{"cas_no": "3353-68-2", "cn_name": "1.3-\u53cc(3-\u7fa7\u57fa\u4e19\u57fa)\u56db\u7532\u57fa\u4e8c\u7845\u6c27\u70f7", "en_name": ["1,3-Bis(3-carboxypropyl)tetramethyldisiloxane", "Butanoic acid, 4,4\u2032-(1,1,3,3-tetramethyl-1,3-disiloxanediyl)bis-", "6-Oxa-5,7-disilaundecanedioic acid, 5,5,7,7-tetramethyl-", "4,4\u2032-(1,1,3,3-Tetramethyl-1,3-disiloxanediyl)bis[butanoic acid]", "4,6-Disila-5-oxanonane-1,9-dicarboxylic acid, 4,4,6,6-tetramethyl-", "1,3-Bis(3-carboxypropyl)tetramethyldisiloxane", "1,3-Bis(3-carboxypropyl)-1,1,3,3-tetramethyldisiloxane"], "SMILES": "[Si](O[Si](CCCC(O)=O)(C)C)(CCCC(O)=O)(C)C", "physical_data": {"Molecular Weight": "306.50", "Molecular Formula": "C12H26O5Si2", "Melting Point": "46-49 \u00b0C"}}