{"cas_no": "3354-58-3", "cn_name": "2-\u70ef\u4e19\u57fa-6-\u7532\u57fa\u82ef\u915a", "en_name": ["2-Methyl-6-(2-propen-1-yl)phenol", "Phenol, 2-methyl-6-(2-propen-1-yl)-", "o-Cresol, 6-allyl-", "Phenol, 2-methyl-6-(2-propenyl)-", "2-Methyl-6-(2-propen-1-yl)phenol", "2-Allyl-6-methylphenol", "6-Allyl-o-cresol", "6-Allyl-2-cresol", "6-Allyl-2-methylphenol", "2-Methyl-6-(2-propenyl)phenol", "NSC 60286", "2-Methyl-6-allylphenol"], "SMILES": "C(C=C)C1=C(O)C(C)=CC=C1", "physical_data": {"Molecular Weight": "148.20", "Molecular Formula": "C10H12O", "Boiling Point": "232 \u00b0C", "Melting Point": "77 \u00b0C", "Density": "1.014 g/cm\u00b3 @ Temp: 20 \u00b0C"}}