{"cas_no": "33543-55-4", "cn_name": "O-(4-\u785d\u57fa\u82ef\u57fa)\u7f9f\u80fa", "en_name": ["O-(4-Nitrophenyl)hydroxylamine", "Hydroxylamine, O-(4-nitrophenyl)-", "Hydroxylamine, O-(p-nitrophenyl)-", "O-(4-Nitrophenyl)hydroxylamine", "p-Nitrophenoxyamine", "O-(p-Nitrophenyl)hydroxylamine"], "SMILES": "N(=O)(=O)C1=CC=C(ON)C=C1", "physical_data": {"Molecular Weight": "154.12", "Molecular Formula": "C6H6N2O3", "Melting Point": "122 \u00b0C"}}