{"cas_no": "3355-28-0", "cn_name": "1-\u6eb4-2-\u4e01\u7094", "en_name": ["1-Bromo-2-butyne", "2-Butyne, 1-bromo-", "2-Butyne, bromo-", "1-Bromo-2-butyne", "2-Butynyl bromide", "4-Bromobut-2-yne", "2-Butyn-1-yl bromide", "1-(Bromomethyl)-2-methylacetylene"], "SMILES": "C(CBr)#CC", "physical_data": {"Molecular Weight": "132.99", "Molecular Formula": "C4H5Br", "Boiling Point": "68 \u00b0C @ Press: 78 Torr", "Density": "1.4828 g/cm\u00b3 @ Temp: 20 \u00b0C"}}