{"cas_no": "33564-31-7", "cn_name": "\u918b\u9178\u53cc\u6c1f\u62c9\u677e", "en_name": ["Diflorasone diacetate", "Pregna-1,4-diene-3,20-dione, 17,21-bis(acetyloxy)-6,9-difluoro-11-hydroxy-16-methyl-, (6\u03b1,11\u03b2,16\u03b2)-", "(6\u03b1,11\u03b2,16\u03b2)-17,21-Bis(acetyloxy)-6,9-difluoro-11-hydroxy-16-methylpregna-1,4-diene-3,20-dione", "Diflorasone diacetate", "Florone", "Diflorasone 17,21-diacetate", "Maxiflor", "Psorcon", "U 34865", "Difulal", "Diacort", "Soriflor", "Dermaflor"], "SMILES": "C(COC(C)=O)(=O)C1(OC(C)=O)C2(C)C(CC1C)C3C(F)(C(O)C2)C4(C)C(C(F)C3)=CC(=O)C=C4", "physical_data": {"Molecular Weight": "494.52", "Molecular Formula": "C26H32F2O7", "Melting Point": "221-223 \u00b0C (decomp)"}}