{"cas_no": "3356-88-5", "cn_name": "3-(2-\u7f9f\u4e59\u57fa)-2-\u6076\u5511\u70f7\u916e", "en_name": ["3-(2-Hydroxyethyl)-2-oxazolidinone", "2-Oxazolidinone, 3-(2-hydroxyethyl)-", "3-(2-Hydroxyethyl)-2-oxazolidinone", "3-(2-Hydroxyethyl)-1,3-oxazolidin-2-one", "3-(Hydroxyethyl)-2-oxazolidone", "NSC 57598", "2-(2-Oxo-1,3-oxazolidin-3-yl)ethanol", "N-(2-Hydroxyethyl)oxazolidin-2-one"], "SMILES": "C(CO)N1C(=O)OCC1", "physical_data": {"Molecular Weight": "131.13", "Molecular Formula": "C5H9NO3", "Boiling Point": "162 \u00b0C @ Press: 1 Torr"}}