{"cas_no": "33560-48-4", "cn_name": "\u4e59\u9170\u82ef\u80fa,2,3',5'-\u4e09\u6c2f-", "en_name": ["2-Chloro-N-(3,5-dichlorophenyl)acetamide", "Acetamide, 2-chloro-N-(3,5-dichlorophenyl)-", "Acetanilide, 2,3\u2032,5\u2032-trichloro-", "2-Chloro-N-(3,5-dichlorophenyl)acetamide", "Chloroacetic acid 3,5-dichloroanilide"], "SMILES": "N(C(CCl)=O)C1=CC(Cl)=CC(Cl)=C1", "physical_data": {"Molecular Weight": "238.50", "Molecular Formula": "C8H6Cl3NO", "Melting Point": "137-138 \u00b0C"}}