{"cas_no": "33575-83-6", "cn_name": "5-\u82ef\u57fa-2-\u6c2f\u7532\u57fa-1,3,4-\u5641\u4e8c\u5511", "en_name": ["2-(Chloromethyl)-5-phenyl-1,3,4-oxadiazole", "1,3,4-Oxadiazole, 2-(chloromethyl)-5-phenyl-", "2-(Chloromethyl)-5-phenyl-1,3,4-oxadiazole", "2-Chloromethyl-5-phenyl-1,3,4-oxadiazole", "2-(Chloromethyl)-5-phenyl-1,3-oxadiazole", "NSC 235938"], "SMILES": "C(Cl)C=1OC(=NN1)C2=CC=CC=C2", "physical_data": {"Molecular Weight": "194.62", "Molecular Formula": "C9H7ClN2O", "Melting Point": "118 \u00b0C"}}