{"cas_no": "33579-63-4", "cn_name": "\u67ef\u4f0a\u5229\u7d20-7-O-\u8461\u8404\u7cd6-2-O-\u82b9\u7cd6\u82f7", "en_name": ["Graveobioside B", "4H-1-Benzopyran-4-one, 7-[(2-O-D-apio-\u03b2-D-furanosyl-\u03b2-D-glucopyranosyl)oxy]-5-hydroxy-2-(4-hydroxy-3-methoxyphenyl)-", "Graveobioside B", "Flavone, 4\u2032,5,7-trihydroxy-3\u2032-methoxy-, 7-(2-O-D-apiofuranosyl-\u03b2-D-glucopyranoside)", "7-[(2-O-D-Apio-\u03b2-D-furanosyl-\u03b2-D-glucopyranosyl)oxy]-5-hydroxy-2-(4-hydroxy-3-methoxyphenyl)-4H-1-benzopyran-4-one", "Chrysoeriol 7-apiosylglucoside", "Chrysoeriol 7-O-apiosylglucoside"], "SMILES": "O=C1C=2C(OC(=C1)C3=CC(OC)=C(O)C=C3)=CC(OC4C(OC5C(O)C(CO)(O)CO5)C(O)C(O)C(CO)O4)=CC2O", "physical_data": {"Molecular Weight": "594.52", "Molecular Formula": "C27H30O15", "Melting Point": "214-216 \u00b0C"}}