{"cas_no": "33580-59-5", "cn_name": "\u4e09\u7532\u6c27\u57fa(3-\u7532\u6c27\u57fa\u4e19\u57fa)\u7845\u70f7", "en_name": ["Trimethoxy(3-methoxypropyl)silane", "Silane, trimethoxy(3-methoxypropyl)-", "Trimethoxy(3-methoxypropyl)silane", "\u03b4-Methoxypropyltrimethoxysilane", "(3-Methoxypropyl)trimethoxysilane", "SIM 6493.0"], "SMILES": "[Si](CCCOC)(OC)(OC)OC", "physical_data": {"Molecular Weight": "194.30", "Molecular Formula": "C7H18O4Si", "Boiling Point": "98-99 \u00b0C @ Press: 40 Torr", "Density": "0.995 g/cm\u00b3"}}