{"cas_no": "33581-77-0", "cn_name": "\u4e09\u7532\u57fa\u7845\u70f7\u9187\u4e09\u7845\u7532\u70f7\u6c27\u57fa\u4e59\u9187\u9178\u916f", "en_name": ["Trimethylsilyl [(trimethylsilyl)oxy]acetate", "Acetic acid, 2-[(trimethylsilyl)oxy]-, trimethylsilyl ester", "Acetic acid, (trimethylsiloxy)-, trimethylsilyl ester", "Acetic acid, [(trimethylsilyl)oxy]-, trimethylsilyl ester", "[(Trimethylsilyl)oxy]acetic acid trimethylsilyl ester", "Trimethylsilyl [(trimethylsilyl)oxy]acetate", "Trimethylsilyl trimethylsiloxyacetate"], "SMILES": "C(CO[Si](C)(C)C)(O[Si](C)(C)C)=O", "physical_data": {"Molecular Weight": "220.41", "Molecular Formula": "C8H20O3Si2", "Boiling Point": "82-83 \u00b0C @ Press: 15 Torr", "Density": "0.918 g/cm\u00b3"}}