{"cas_no": "33588-54-4", "cn_name": "5-\u6eb4\u5432\u54da\u915a\u4e8c\u918b\u9178\u76d0", "en_name": ["1-[3-(Acetyloxy)-5-bromo-1H-indol-1-yl]ethanone", "Ethanone, 1-[3-(acetyloxy)-5-bromo-1H-indol-1-yl]-", "Indol-3-ol, 1-acetyl-5-bromo-, acetate (ester)", "1H-Indol-3-ol, 1-acetyl-5-bromo-, acetate (ester)", "Indoxyl, 1-acetyl-5-bromo-, acetate", "1-[3-(Acetyloxy)-5-bromo-1H-indol-1-yl]ethanone", "(1-Acetyl-5-bromoindol-3-yl) acetate", "1-Acetyl-5-bromo-1H-indol-3-yl acetate"], "SMILES": "O(C(C)=O)C=1C=2C(N(C(C)=O)C1)=CC=C(Br)C2", "physical_data": {"Molecular Weight": "296.12", "Molecular Formula": "C12H10BrNO3", "Melting Point": "124-124.5 \u00b0C"}}