{"cas_no": "33599-32-5", "cn_name": "1-N-\u4e01\u57fa\u4e59\u5185\u9170\u8132", "en_name": ["1-Butyl-2,4-imidazolidinedione", "2,4-Imidazolidinedione, 1-butyl-", "Hydantoin, 1-butyl-", "1-Butyl-2,4-imidazolidinedione", "1-Butylhydantoin", "1-Butylimidazolidine-2,4-dione"], "SMILES": "C(CCC)N1CC(=O)NC1=O", "physical_data": {"Molecular Weight": "156.18", "Molecular Formula": "C7H12N2O2", "Melting Point": "76-78 \u00b0C"}}