{"cas_no": "336-59-4", "cn_name": "\u4e03\u6c1f\u4e01\u9178\u9150", "en_name": ["Heptafluorobutyric anhydride", "Butanoic acid, 2,2,3,3,4,4,4-heptafluoro-, 1,1\u2032-anhydride", "Butyric acid, heptafluoro-, anhydride", "Butanoic acid, heptafluoro-, anhydride", "Heptafluorobutyric anhydride", "Perfluorobutyric anhydride", "Heptafluorobutyric acid anhydride", "Heptafluorobutyryl anhydride", "Perfluorobutanoic anhydride", "Heptafluorobutanoic anhydride", "HFBA", "2,2,3,3,4,4,4-Heptafluorobutanoyl 2,2,3,3,4,4,4-heptafluorobutanoate"], "SMILES": "C(C(C(F)(F)F)(F)F)(C(OC(C(C(C(F)(F)F)(F)F)(F)F)=O)=O)(F)F", "physical_data": {"Molecular Weight": "410.06", "Molecular Formula": "C8F14O3", "Boiling Point": "106.5 \u00b0C", "Melting Point": "-43 \u00b0C"}}