{"cas_no": "336-07-2", "cn_name": "1H,6H-\u5168\u6c1f\u5df1\u70f7", "en_name": ["1,1,2,2,3,3,4,4,5,5,6,6-Dodecafluorohexane", "Hexane, 1,1,2,2,3,3,4,4,5,5,6,6-dodecafluoro-", "1,1,2,2,3,3,4,4,5,5,6,6-Dodecafluorohexane", "1H,6H-Perfluorohexane", "\u03b1,\u03c9-Dihydroperfluorohexane", "1H,6H-Dodecafluorohexane"], "SMILES": "C(C(C(C(F)F)(F)F)(F)F)(C(C(F)F)(F)F)(F)F", "physical_data": {"Molecular Weight": "302.06", "Molecular Formula": "C6H2F12", "Boiling Point": "85 \u00b0C"}}