{"cas_no": "336-08-3", "cn_name": "\u516b\u6c1f\u5df1\u4e8c\u9178", "en_name": ["2,2,3,3,4,4,5,5-Octafluorohexanedioic acid", "Hexanedioic acid, 2,2,3,3,4,4,5,5-octafluoro-", "Hexanedioic acid, octafluoro-", "2,2,3,3,4,4,5,5-Octafluorohexanedioic acid", "Octafluorohexanedioic acid", "Perfluoroadipic acid", "Octafluoroadipic acid"], "SMILES": "C(C(C(C(O)=O)(F)F)(F)F)(C(C(O)=O)(F)F)(F)F", "physical_data": {"Molecular Weight": "290.06", "Molecular Formula": "C6H2F8O4", "Melting Point": "134 \u00b0C"}}