{"cas_no": "336-19-6", "cn_name": "1,2-\u4e8c\u6c2f\u516b\u6c1f\u73af\u5df1\u70ef", "en_name": ["1,2-Dichloro-3,3,4,4,5,5,6,6-octafluorocyclohexene", "Cyclohexene, 1,2-dichloro-3,3,4,4,5,5,6,6-octafluoro-", "Cyclohexene, 1,2-dichlorooctafluoro-", "1,2-Dichloro-3,3,4,4,5,5,6,6-octafluorocyclohexene", "1,2-Dichlorooctafluorocyclohexene", "1,2-Dichloroperfluorocyclohexene", "1,2-Dichloro-3,3,4,4,5,5,6,6-octafluoro-1-cyclohexene"], "SMILES": "FC1(F)C(F)(F)C(F)(F)C(Cl)=C(Cl)C1(F)F", "physical_data": {"Molecular Weight": "294.96", "Molecular Formula": "C6Cl2F8", "Boiling Point": "113 \u00b0C", "Melting Point": "-70 \u00b0C", "Density": "1.719 g/cm\u00b3 @ Temp: 25 \u00b0C"}}