{"cas_no": "336-50-5", "cn_name": "1,1,2,2-\u56db\u6c2f\u56db\u6c1f\u73af\u4e01\u70f7", "en_name": ["1,1,2,2-Tetrachloro-3,3,4,4-tetrafluorocyclobutane", "Cyclobutane, 1,1,2,2-tetrachloro-3,3,4,4-tetrafluoro-", "1,1,2,2-Tetrachloro-3,3,4,4-tetrafluorocyclobutane", "1,1,2,2-Tetrachlorotetrafluorocyclobutane", "NSC 158685"], "SMILES": "ClC1(Cl)C(Cl)(Cl)C(F)(F)C1(F)F", "physical_data": {"Molecular Weight": "265.85", "Molecular Formula": "C4Cl4F4", "Melting Point": "83.2-83.5 \u00b0C"}}