{"cas_no": "3360-79-0", "cn_name": "4-\u7532\u6c27\u57fa-N-\u7532\u57fa-2-\u785d\u57fa\u82ef\u80fa", "en_name": ["4-Methoxy-N-methyl-2-nitrobenzenamine", "Benzenamine, 4-methoxy-N-methyl-2-nitro-", "p-Anisidine, N-methyl-2-nitro-", "4-Methoxy-N-methyl-2-nitrobenzenamine", "N-Methyl-2-nitro-4-methoxyaniline", "N-Methyl-4-methoxy-2-nitroaniline", "(4-Methoxy-2-nitrophenyl)methylamine"], "SMILES": "N(=O)(=O)C1=C(NC)C=CC(OC)=C1", "physical_data": {"Molecular Weight": "182.18", "Molecular Formula": "C8H10N2O3", "Melting Point": "97-98 \u00b0C"}}