{"cas_no": "3360-16-5", "cn_name": "N-\u5f02\u4e19\u57fa-1\uff0c3-\u4e19\u4e8c\u80fa", "en_name": ["N1-(1-Methylethyl)-1,3-propanediamine", "1,3-Propanediamine, N1-(1-methylethyl)-", "1,3-Propanediamine, N-isopropyl-", "1,3-Propanediamine, N-(1-methylethyl)-", "N1-(1-Methylethyl)-1,3-propanediamine", "N-Isopropyl-1,3-propanediamine", "N-Isopropyltrimethylenediamine", "N-Isopropyl-1,3-propylenediamine", "N-Isopropyl-1,3-diaminopropane", "N-(1-Methylethyl)-1,3-propanediamine", "N-Isopropylpropylenediamine", "NSC 847", "3-(Isopropylamino)propylamine", "(3-Aminopropyl)(propan-2-yl)amine"], "SMILES": "N(CCCN)C(C)C", "physical_data": {"Molecular Weight": "116.20", "Molecular Formula": "C6H16N2", "Boiling Point": "161-162 \u00b0C @ Press: 770 Torr", "Density": "0.8271 g/cm\u00b3 @ Temp: 25 \u00b0C"}}