{"cas_no": "3360-41-6", "cn_name": "4-\u82ef\u57fa\u4e01\u9187", "en_name": ["Benzenebutanol", "Benzenebutanol", "1-Butanol, 4-phenyl-", "4-Phenylbutanol", "Phenylbutyl alcohol", "4-Phenyl-1-butanol", "4-Phenylbutyl alcohol", "4-Phenyl-1-butyl alcohol", "NSC 71383", "Phenbutanol", "4-(4-Hydroxybutyl)phenyl acetate"], "SMILES": "C(CCCO)C1=CC=CC=C1", "physical_data": {"Molecular Weight": "150.22", "Molecular Formula": "C10H14O", "Boiling Point": "140 \u00b0C @ Press: 24 Torr", "Density": "1.001 g/cm\u00b3 @ Temp: 20 \u00b0C"}}