{"cas_no": "33611-43-7", "cn_name": "4-\u5417\u5549\u4e19\u9178\u7532\u916f", "en_name": ["Methyl 3-morpholinopropionate", "4-Morpholinepropanoic acid, methyl ester", "4-Morpholinepropionic acid, methyl ester", "Methyl 3-morpholinopropionate", "NSC 408953", "Methyl 3-morpholinopropanoate", "4-(2-(Methoxycarbonyl)ethyl)morpholine", "Methyl 3-(4-morpholinyl)propionate", "Methyl 4-morpholinepropanoate", "Methyl \u03b2-morphonyl-propionate", "3-Morpholin-4-yl-propionic acid methyl ester"], "SMILES": "C(CC(OC)=O)N1CCOCC1", "physical_data": {"Molecular Weight": "173.21", "Molecular Formula": "C8H15NO3", "Boiling Point": "82 \u00b0C @ Press: 2 Torr", "Density": "1.0711 g/cm\u00b3 @ Temp: 20 \u00b0C"}}