{"cas_no": "336182-10-6", "cn_name": "L-\u03b2-\u9ad8\u95e8\u51ac\u6c28\u9178.\u76d0\u9178\u76d0", "en_name": ["Pentanedioic acid, 3-amino-, hydrochloride (1:1)", "Pentanedioic acid, 3-amino-, hydrochloride (1:1)", "Pentanedioic acid, 3-amino-, hydrochloride", "3-Aminopentanedioic acid hydrochloride"], "SMILES": "C(C(CC(O)=O)N)C(O)=O.Cl", "physical_data": {"Molecular Weight": "", "Molecular Formula": "C5H9NO4.ClH", "Melting Point": "212 \u00b0C (decomp)"}}