{"cas_no": "33626-98-1", "cn_name": "6-\u6eb4-2-\u8418\u7532\u9178\u7532\u916f", "en_name": ["2-Naphthalenecarboxylic acid, 6-bromo-, methyl ester", "2-Naphthalenecarboxylic acid, 6-bromo-, methyl ester", "2-Naphthoic acid, 6-bromo-, methyl ester", "Methyl 6-bromonaphthalene-2-carboxylate", "Methyl 6-bromo-2-naphthoate", "6-Bromonaphthalene-2-carboxylic acid methyl ester", "2-Bromo-6-methoxycarbonylnaphthalene"], "SMILES": "C(OC)(=O)C1=CC2=C(C=C(Br)C=C2)C=C1", "physical_data": {"Molecular Weight": "265.10", "Molecular Formula": "C12H9BrO2", "Melting Point": "125-127 \u00b0C"}}