{"cas_no": "33626-08-3", "cn_name": "\u767d\u85dc\u82a6\u9187-4'-\u7532\u919a", "en_name": ["Desoxyrhapontigenin", "1,3-Benzenediol, 5-[(1E)-2-(4-methoxyphenyl)ethenyl]-", "1,3-Benzenediol, 5-[2-(4-methoxyphenyl)ethenyl]-, (E)-", "3,5-Stilbenediol, 4\u2032-methoxy-, (E)-", "5-[(1E)-2-(4-Methoxyphenyl)ethenyl]-1,3-benzenediol", "Desoxyrhapontigenin", "(E)-3,5-Dihydroxy-4\u2032-methoxystilbene", "4-Methoxyresveratrol", "BML 233", "trans-3,5-Dihydroxy-4\u2032-methoxystilbene", "3,5-Dihydroxy-4\u2032-methoxy-trans-stilbene", "Resveratrol 4\u2032-methyl ether", "Deoxyrhapontigenin", "4\u2032-O-Methylresveratrol"], "SMILES": "C(=CC1=CC(O)=CC(O)=C1)C2=CC=C(OC)C=C2", "physical_data": {"Molecular Weight": "242.27", "Molecular Formula": "C15H14O3", "Melting Point": "158-166 \u00b0C"}}