{"cas_no": "33629-47-9", "cn_name": "\u4e01\u70ef\u916f\u7532\u9178", "en_name": ["Butralin", "Benzenamine, 4-(1,1-dimethylethyl)-N-(1-methylpropyl)-2,6-dinitro-", "Aniline, N-sec-butyl-4-tert-butyl-2,6-dinitro-", "4-(1,1-Dimethylethyl)-N-(1-methylpropyl)-2,6-dinitrobenzenamine", "N-sec-Butyl-4-tert-butyl-2,6-dinitroaniline", "70-314B", "Amchem 70-25", "4-tert-Butyl-N-sec-butyl-2,6-dinitroaniline", "A 820", "72-A34", "4-tert-Butyl-N-mono-sec-butyl-2,6-dinitroaniline", "Dibutalin", "Amex 820", "Amex", "Butalin", "Butralin", "A 820 (herbicide)"], "SMILES": "N(C(CC)C)C1=C(N(=O)=O)C=C(C(C)(C)C)C=C1N(=O)=O", "physical_data": {"Molecular Weight": "295.33", "Molecular Formula": "C14H21N3O4", "Boiling Point": "135 \u00b0C", "Melting Point": "60 \u00b0C"}}