{"cas_no": "33630-99-8", "cn_name": "3-\u6c28\u57fa-2-\u7f9f\u57fa\u5421\u5576", "en_name": ["3-Amino-2(1H)-pyridinone", "2(1H)-Pyridinone, 3-amino-", "2-Pyridinol, 3-amino-", "3-Amino-2(1H)-pyridinone", "3-Amino-2-pyridinol", "2-Hydroxy-3-aminopyridine", "3-Amino-2-pyridinone", "3-Amino-2-hydroxypyridine", "3-Amino-2-pyridone", "3-Aminopyridin-2(1H)-one", "NSC 279497", "3-Amino-1H-pyridin-2-one", "3-Amino-1,2-dihydropyridin-2-one", "2-Hydroxypyridin-3-amine"], "SMILES": "NC=1C(=O)NC=CC1", "physical_data": {"Molecular Weight": "110.11", "Molecular Formula": "C5H6N2O", "Melting Point": "129 \u00b0C"}}