{"cas_no": "33632-27-8", "cn_name": "1-\u4e59\u9170\u57fa-5-\u785d\u57fa\u4e8c\u6c22\u5432\u54da", "en_name": ["1-Acetyl-5-nitroindoline", "Ethanone, 1-(2,3-dihydro-5-nitro-1H-indol-1-yl)-", "Indoline, 1-acetyl-5-nitro-", "1H-Indole, 1-acetyl-2,3-dihydro-5-nitro-", "1-(2,3-Dihydro-5-nitro-1H-indol-1-yl)ethanone", "1-Acetyl-5-nitroindoline", "N-Acetyl-5-nitroindoline", "NSC 87626", "1-(5-Nitroindolin-1-yl)ethanone", "1-(5-Nitro-2,3-dihydro-1H-indol-1-yl)ethan-1-one", "1-(5-Nitro-2,3-dihydroindol-1-yl)ethanone"], "SMILES": "C(C)(=O)N1C=2C(=CC(N(=O)=O)=CC2)CC1", "physical_data": {"Molecular Weight": "206.20", "Molecular Formula": "C10H10N2O3", "Melting Point": "173.5-175.5 \u00b0C"}}