{"cas_no": "3363-56-2", "cn_name": "2,5,6-\u4e09\u7532\u57fa\u82ef\u5e76\u54aa\u5511", "en_name": ["2,5,6-Trimethylbenzimidazole", "1H-Benzimidazole, 2,5,6-trimethyl-", "Benzimidazole, 2,5,6-trimethyl-", "2,5,6-Trimethyl-1H-benzimidazole", "2,5,6-Trimethylbenzimidazole", "NSC 401569", "2,5,6-Trimethyl-1H-benzoimidazole", "2,5,6-Trimethyl-1H-1,3-benzodiazole"], "SMILES": "CC=1C=C2C(=CC1C)N=C(C)N2", "physical_data": {"Molecular Weight": "160.22", "Molecular Formula": "C10H12N2", "Melting Point": "233-234 \u00b0C"}}