{"cas_no": "33641-15-5", "cn_name": "1-\u7532\u57fa-5-\u7f9f\u57fa\u5421\u5511", "en_name": ["1-Methyl-1H-pyrazol-5-ol", "1H-Pyrazol-5-ol, 1-methyl-", "Pyrazol-5-ol, 1-methyl-", "1-Methyl-1H-pyrazol-5-ol", "5-Hydroxy-1-methylpyrazole", "1-Methyl-5-hydroxypyrazole", "5-Hydroxy-1-methyl-5-pyrazole", "1-Methyl-5-hydroxy-1H-pyrazole", "2-Methyl-2H-pyrazol-3-ol"], "SMILES": "OC=1N(C)N=CC1", "physical_data": {"Molecular Weight": "98.10", "Molecular Formula": "C4H6N2O", "Melting Point": "70-110 \u00b0C"}}