{"cas_no": "33665-90-6", "cn_name": "\u5b89\u8d5b\u871c", "en_name": ["Acesulfame", "1,2,3-Oxathiazin-4(3H)-one, 6-methyl-, 2,2-dioxide", "Acesulfame", "Acesulfam", "3,4-Dihydro-6-methyl-1,2,3-oxathiazin-4-one 2,2-dioxide", "Acetosulfam", "6-Methyl-3,4-dihydro-1,2,3-oxathiazin-4-one 2,2-dioxide", "Acesulfam H"], "SMILES": "O=S1(=O)NC(=O)C=C(C)O1", "physical_data": {"Molecular Weight": "163.15", "Molecular Formula": "C4H5NO4S", "Melting Point": "123-123.5 \u00b0C", "Density": "1.62 g/cm\u00b3"}}