{"cas_no": "3366-72-1", "cn_name": "\u5bf9\u7532\u82ef\u78f7\u9178", "en_name": ["P-(4-Methylphenyl)phosphonic acid", "Phosphonic acid, P-(4-methylphenyl)-", "Phosphonic acid, p-tolyl-", "Phosphonic acid, (4-methylphenyl)-", "P-(4-Methylphenyl)phosphonic acid", "4-Methylphenylphosphonic acid", "p-Methylphenylphosphonic acid", "p-Tolylphosphonic acid", "NSC 407830"], "SMILES": "P(=O)(O)(O)C1=CC=C(C)C=C1", "physical_data": {"Molecular Weight": "172.12", "Molecular Formula": "C7H9O3P", "Melting Point": "185 \u00b0C"}}