{"cas_no": "3366-95-8", "cn_name": "\u585e\u514b\u785d\u5511", "en_name": ["Secnidazole", "1H-Imidazole-1-ethanol, \u03b1,2-dimethyl-5-nitro-", "Imidazole-1-ethanol, \u03b1,2-dimethyl-5-nitro-", "\u03b1,2-Dimethyl-5-nitro-1H-imidazole-1-ethanol", "Secnidazole", "RP 14539", "Flagentyl", "PM 185184", "1-(2-Methyl-5-nitroimidazol-1-yl)-2-propanol", "Secnol", "Sabima", "SYM 1219", "Deprozol", "Solosec", "1-(2-Methyl-5-nitro-1H-imidazol-1-yl)propan-2-ol"], "SMILES": "C(C(C)O)N1C(N(=O)=O)=CN=C1C", "physical_data": {"Molecular Weight": "185.18", "Molecular Formula": "C7H11N3O3", "Melting Point": "76 \u00b0C"}}