{"cas_no": "33668-25-6", "cn_name": "3-\u6c27\u4ee3\u73af\u5df1\u70f7\u7532\u9178\u4e59\u916f", "en_name": ["Ethyl 3-oxocyclohexanecarboxylate", "Cyclohexanecarboxylic acid, 3-oxo-, ethyl ester", "Ethyl 3-oxocyclohexanecarboxylate", "Ethyl cyclohexanone-\u03b2-carboxylate", "3-Oxocyclohexanecarboxylic acid ethyl ester", "3-Cyclohexanonecarboxylic acid ethyl ester", "Ethyl (RS)-3-oxocyclohexanecarboxylate", "Ethyl 3-oxocyclohexane-1-carboxylate"], "SMILES": "C(OCC)(=O)C1CC(=O)CCC1", "physical_data": {"Molecular Weight": "170.21", "Molecular Formula": "C9H14O3", "Boiling Point": "130.5 \u00b0C @ Press: 10 Torr"}}