{"cas_no": "33676-00-5", "cn_name": "(7S,8S,9R)-9-(3,4-\u4e8c\u7532\u6c27\u57fa\u82ef\u57fa)-6,7,8,9-\u56db\u6c22-4-\u7532\u6c27\u57fa-7,8-\u53cc(\u7532\u6c27\u57fa\u7532\u57fa)\u8418\u5e76[1,2-D]-1,3-\u4e8c\u6076\u8302", "en_name": ["Hypophyllanthin", "Naphtho[1,2-d]-1,3-dioxole, 9-(3,4-dimethoxyphenyl)-6,7,8,9-tetrahydro-4-methoxy-7,8-bis(methoxymethyl)-, (7S,8S,9R)-", "Hypophyllanthin", "Naphthalene, 1\u03b1-(3,4-dimethoxyphenyl)-1,2,3,4-tetrahydro-6-methoxy-2\u03b2,3\u03b1-bis(methoxymethyl)-7,8-(methylenedioxy)-", "Naphtho[1,2-d]-1,3-dioxole, 9-(3,4-dimethoxyphenyl)-6,7,8,9-tetrahydro-4-methoxy-7,8-bis(methoxymethyl)-, (7\u03b1,8\u03b2,9\u03b1)-", "Naphtho[1,2-d]-1,3-dioxole, 9-(3,4-dimethoxyphenyl)-6,7,8,9-tetrahydro-4-methoxy-7,8-bis(methoxymethyl)-, (7R,8R,9S)-rel-", "(7S,8S,9R)-9-(3,4-Dimethoxyphenyl)-6,7,8,9-tetrahydro-4-methoxy-7,8-bis(methoxymethyl)naphtho[1,2-d]-1,3-dioxole", "NSC 619044"], "SMILES": "C(OC)C1C(C=2C3=C(C(OC)=CC2CC1COC)OCO3)C4=CC(OC)=C(OC)C=C4", "physical_data": {"Molecular Weight": "430.49", "Molecular Formula": "C24H30O7", "Melting Point": "129-130 \u00b0C"}}