{"cas_no": "3367-95-1", "cn_name": "N,N-\u4e8c\u4e59\u57fa\u5c3c\u54cc\u4e01\u9170\u80fa", "en_name": ["N,N-Diethyl-3-piperidinecarboxamide", "3-Piperidinecarboxamide, N,N-diethyl-", "Nipecotamide, N,N-diethyl-", "N,N-Diethyl-3-piperidinecarboxamide", "N,N-Diethylnipecotamide", "3-[(Diethylamino)carbonyl]piperidine", "3-(Diethylcarboxamido)piperidine", "Piperidine-3-carboxylic acid diethylamide", "3-(Diethylcarbamoyl)piperidine", "Diethylnipecotamide"], "SMILES": "C(N(CC)CC)(=O)C1CCCNC1", "physical_data": {"Molecular Weight": "184.28", "Molecular Formula": "C10H20N2O", "Boiling Point": "100 \u00b0C @ Press: 0.30-32 Torr"}}