{"cas_no": "3368-87-4", "cn_name": "19,20-(E)-VALLESAMINE", "en_name": ["Vallesamine", "2,5-Ethano-2H-azocino[4,3-b]indole-6-carboxylic acid, 4-ethylidene-1,3,4,5,6,7-hexahydro-6-(hydroxymethyl)-, methyl ester, (2R,4E,5S,6S)-", "2,5-Ethano-2H-azocino[4,3-b]indole-6-carboxylic acid, 4-ethylidene-1,3,4,5,6,7-hexahydro-6-(hydroxymethyl)-, methyl ester, [5S-(4E,5\u03b1,6\u03b2)]-", "Vallesamine", "2,5-Ethano-2H-azocino[4,3-b]indole-6-carboxylic acid, 4-ethylidene-1,3,4,5,6,7-hexahydro-6-(hydroxymethyl)-, methyl ester, (4E,5S,6R)-", "(+)-Vallesamine", "19,20-(E)-Vallesamine", "(E)-Vallesamine", "19E-Vallesamine"], "SMILES": "C(OC)(=O)C1(CO)C2=C(C=3C(N2)=CC=CC3)CN4CC(=CC)C1CC4", "physical_data": {"Molecular Weight": "340.42", "Molecular Formula": "C20H24N2O3", "Melting Point": "162-165 \u00b0C"}}