{"cas_no": "3368-21-6", "cn_name": "4-\u5f02\u4e19\u57fa\u8089\u7845\u9178", "en_name": ["3-[4-(1-Methylethyl)phenyl]-2-propenoic acid", "2-Propenoic acid, 3-[4-(1-methylethyl)phenyl]-", "Cinnamic acid, p-isopropyl-", "3-[4-(1-Methylethyl)phenyl]-2-propenoic acid", "p-Isopropylcinnamic acid", "4-Isopropylcinnamic acid", "NSC 216", "3-(4-Isopropylphenyl)-2-propenoic acid", "3-(4-Isopropylphenyl)acrylic acid"], "SMILES": "C(C)(C)C1=CC=C(C=CC(O)=O)C=C1", "physical_data": {"Molecular Weight": "190.24", "Molecular Formula": "C12H14O2", "Melting Point": "165 \u00b0C"}}