{"cas_no": "33697-81-3", "cn_name": "3-\u6c2f-4\u7f9f\u57fa\u82ef\u4e59\u9178", "en_name": ["3-Chloro-4-hydroxyphenylacetic acid", "Benzeneacetic acid, 3-chloro-4-hydroxy-", "Acetic acid, (3-chloro-4-hydroxyphenyl)-", "3-Chloro-4-hydroxybenzeneacetic acid", "3-Chloro-4-hydroxyphenylacetic acid", "4-Hydroxy-3-chlorophenylacetic acid", "2-(3-Chloro-4-hydroxyphenyl)acetic acid"], "SMILES": "C(C(O)=O)C1=CC(Cl)=C(O)C=C1", "physical_data": {"Molecular Weight": "186.59", "Molecular Formula": "C8H7ClO3", "Boiling Point": "140-160 \u00b0C @ Press: 0.05 Torr", "Melting Point": "107 \u00b0C"}}