{"cas_no": "33693-04-8", "cn_name": "\u7279\u4e01\u901a", "en_name": ["Terbumeton", "1,3,5-Triazine-2,4-diamine, N2-(1,1-dimethylethyl)-N4-ethyl-6-methoxy-", "1,3,5-Triazine-2,4-diamine, N-(1,1-dimethylethyl)-N\u2032-ethyl-6-methoxy-", "s-Triazine, 2-(tert-butylamino)-4-(ethylamino)-6-methoxy-", "N2-(1,1-Dimethylethyl)-N4-ethyl-6-methoxy-1,3,5-triazine-2,4-diamine", "2-Methoxy-4-ethylamino-6-tert-butylamino-s-triazine", "GS 14259", "4-(Ethylamino)-2-methoxy-6-(tert-butylamino)-s-triazine", "Tribunil G 14259", "A 2591", "Caragard", "Terbumeton", "Terbuthylon", "Terbutone", "MEBT", "Karagard", "tert-Bumeton", "2-N-tert-Butyl-4-N-ethyl-6-methoxy-1,3,5-triazine-2,4-diamine"], "SMILES": "N(C(C)(C)C)C=1N=C(NCC)N=C(OC)N1", "physical_data": {"Molecular Weight": "225.29", "Molecular Formula": "C10H19N5O", "Melting Point": "123.5 \u00b0C"}}