{"cas_no": "33693-48-0", "cn_name": "4-\u82c4\u6c27\u57fa-3-\u7532\u6c27\u57fa\u82ef\u7532\u9187", "en_name": ["4-(Benzyloxy)-3-methoxybenzyl alcohol", "Benzenemethanol, 3-methoxy-4-(phenylmethoxy)-", "Benzyl alcohol, 4-(benzyloxy)-3-methoxy-", "3-Methoxy-4-(phenylmethoxy)benzenemethanol", "4-(Benzyloxy)-3-methoxybenzyl alcohol", "O-Benzylvanillyl alcohol", "Vanillyl alcohol benzyl ether", "(4-Benzyloxy-3-methoxyphenyl)methanol", "NSC 169518", "3-Methoxy-4-(benzyloxy)benzyl alcohol", "(3-Methoxy-4-phenylmethoxyphenyl)methanol"], "SMILES": "O(CC1=CC=CC=C1)C2=C(OC)C=C(CO)C=C2", "physical_data": {"Molecular Weight": "244.29", "Molecular Formula": "C15H16O3", "Melting Point": "70-71 \u00b0C"}}