{"cas_no": "3369-52-6", "cn_name": "\u786b\u4e39\u919a", "en_name": ["Endosulfan ether", "4,7-Methanoisobenzofuran, 4,5,6,7,8,8-hexachloro-1,3,3a,4,7,7a-hexahydro-", "4,5,6,7,8,8-Hexachloro-1,3,3a,4,7,7a-hexahydro-4,7-methanoisobenzofuran", "Endosulfan ether", "NSC 37660"], "SMILES": "ClC12C(Cl)(Cl)C(Cl)(C3C1COC3)C(Cl)=C2Cl", "physical_data": {"Molecular Weight": "342.86", "Molecular Formula": "C9H6Cl6O", "Melting Point": "233 \u00b0C"}}