{"cas_no": "33696-00-3", "cn_name": "4-\u6eb4-2-\u785d\u57fa\u82ef\u7532\u919a", "en_name": ["4-Bromo-1-methoxy-2-nitrobenzene", "Benzene, 4-bromo-1-methoxy-2-nitro-", "Anisole, 4-bromo-2-nitro-", "4-Bromo-1-methoxy-2-nitrobenzene", "1-Bromo-3-nitro-4-methoxybenzene", "4-Bromo-2-nitroanisole", "3-Bromo-6-methoxynitrobenzene", "4-Bromo-1-(methyloxy)-2-nitrobenzene", "1-Bromo-4-methoxy-3-nitrobenzene"], "SMILES": "N(=O)(=O)C1=C(OC)C=CC(Br)=C1", "physical_data": {"Molecular Weight": "232.03", "Molecular Formula": "C7H6BrNO3", "Melting Point": "85-87 \u00b0C"}}