{"cas_no": "337-03-1", "cn_name": "\u6c1f\u5b55\u916e", "en_name": ["(11\u03b2)-9-Fluoro-11,17-dihydroxypregn-4-ene-3,20-dione", "Pregn-4-ene-3,20-dione, 9-fluoro-11,17-dihydroxy-, (11\u03b2)-", "Pregn-4-ene-3,20-dione, 9-fluoro-11\u03b2,17-dihydroxy-", "Progesterone, 9-fluoro-11\u03b2,17-dihydroxy-", "(11\u03b2)-9-Fluoro-11,17-dihydroxypregn-4-ene-3,20-dione", "Flugestone", "9-Fluoro-11\u03b2,17-dihydroxypregn-4-ene-3,20-dione", "9-Fluoro-11\u03b2,17-dihydroxyprogesterone", "Fluorogestone", "NSC 79327"], "SMILES": "FC12C(C3C(C)(CC1O)C(C(C)=O)(O)CC3)CCC=4C2(C)CCC(=O)C4", "physical_data": {"Molecular Weight": "364.45", "Molecular Formula": "C21H29FO4", "Melting Point": "275-277 \u00b0C"}}