{"cas_no": "33708-72-4", "cn_name": "\u85ff\u9999\u9ec4\u916e\u9187", "en_name": ["Pachypodol", "4H-1-Benzopyran-4-one, 5-hydroxy-2-(4-hydroxy-3-methoxyphenyl)-3,7-dimethoxy-", "Flavone, 4\u2032,5-dihydroxy-3,3\u2032,7-trimethoxy-", "5-Hydroxy-2-(4-hydroxy-3-methoxyphenyl)-3,7-dimethoxy-4H-1-benzopyran-4-one", "3,3\u2032,7-Trimethylquercetin", "Pachypodol", "Quercetin-3,7,3\u2032-trimethyl ether", "CMF 1", "Quercetin 3,3\u2032,7-trimethyl ether", "Ro 09-0179", "Isorhamnetin 3,7-dimethyl ether", "5,4\u2032-Dihydroxy-3,7,3\u2032-trimethoxyflavone", "NSC 168805", "3,7,3\u2032-Tri-O-methylquercetin", "4\u2032,5-Dihydroxy-3,3\u2032,7-trimethoxyflavone"], "SMILES": "O(C)C1=C(OC=2C(C1=O)=C(O)C=C(OC)C2)C3=CC(OC)=C(O)C=C3", "physical_data": {"Molecular Weight": "344.32", "Molecular Formula": "C18H16O7", "Melting Point": "171-172 \u00b0C"}}