{"cas_no": "33704-61-9", "cn_name": "\u5f00\u53f8\u7c73\u916e", "en_name": ["(\u00b1)-Cashmeran", "4H-Inden-4-one, 1,2,3,5,6,7-hexahydro-1,1,2,3,3-pentamethyl-", "4(5H)-Indanone, 6,7-dihydro-1,1,2,3,3-pentamethyl-", "1,2,3,5,6,7-Hexahydro-1,1,2,3,3-pentamethyl-4H-inden-4-one", "Cashmeran", "(\u00b1)-Cashmeran", "DPMI", "6,7-Dihydro-1,1,2,3,3-pentamethyl-4(5H)-indanone", "Musk indanone", "1,1,2,3,3-Pentamethyl-1,2,3,5,6,7-hexahydro-4H-inden-4-one", "1,1,2,3,3-Pentamethyl-2,3,4,5,6,7-hexahydro-1H-inden-4-one", "1,1,2,3,3-Pentamethyl-2,5,6,7-tetrahydroinden-4-one", "1,1,2,3,3-Pentamethyl-2,3,6,7-tetrahydro-1H-inden-4(5H)-one"], "SMILES": "CC1(C)C2=C(C(C)(C)C1C)CCCC2=O", "physical_data": {"Molecular Weight": "206.32", "Molecular Formula": "C14H22O", "Boiling Point": "286.1 \u00b0C"}}