{"cas_no": "3371-85-5", "cn_name": "\u8001\u523a\u6728\u80fa", "en_name": ["Voacamine", "Ibogamine-18-carboxylic acid, 12-methoxy-13-[(3\u03b1)-17-methoxy-17-oxovobasan-3-yl]-, methyl ester", "Voacamine", "6,9-Methano-5H-pyrido[1\u2032,2\u2032:1,2]azepino[4,5-b]indole-6(6aH)-carboxylic acid, 3-(14-carboxy-5-ethylidene-2,3,4,5,6,7,8,9-octahydro-3-methyl-2,6-methano-1H-azecino[5,4-b]indol-8-yl)-7-ethyl-7,8,9,10,12,13-hexahydro-2-methoxy-, dimethyl ester", "Voacanginine", "NSC 82591", "MMH 18", "Malarex"], "SMILES": "C(OC)(=O)C12C3=C(C=4C(N3)=CC(=C(OC)C4)C5C6=C(C=7C(N6)=CC=CC7)CC8C(C(OC)=O)C(C5)C(=CC)CN8C)CCN9C1C(CC)CC(C2)C9", "physical_data": {"Molecular Weight": "704.90", "Molecular Formula": "C43H52N4O5", "Melting Point": "220-223 \u00b0C (decomp)"}}