{"cas_no": "33719-74-3", "cn_name": "3,5-\u4e8c\u6c2f\u82ef\u7532\u919a", "en_name": ["1,3-Dichloro-5-methoxybenzene", "Benzene, 1,3-dichloro-5-methoxy-", "Anisole, 3,5-dichloro-", "1,3-Dichloro-5-methoxybenzene", "3,5-Dichloroanisole"], "SMILES": "O(C)C1=CC(Cl)=CC(Cl)=C1", "physical_data": {"Molecular Weight": "177.03", "Molecular Formula": "C7H6Cl2O", "Melting Point": "40-42 \u00b0C"}}