{"cas_no": "33725-74-5", "cn_name": "\u56db\u4e01\u57fa\u787c\u6c22\u5316\u94f5", "en_name": ["Tetrabutylammonium borohydride", "1-Butanaminium, N,N,N-tributyl-, tetrahydroborate(1-) (1:1)", "1-Butanaminium, N,N,N-tributyl-, tetrahydroborate(1-)", "Ammonium, tetrabutyl-, tetrahydroborate(1-)", "Borate(1-), tetrahydro-, N,N,N-tributyl-1-butanaminium", "Tetrabutylammonium tetrahydroborate", "Tetrabutylammonium tetrahydroborate(1-)", "Tetrabutylammonium borohydride"], "SMILES": "[N+](CCCC)(CCCC)(CCCC)CCCC.[B+3]([H-])([H-])([H-])[H-]", "physical_data": {"Molecular Weight": "", "Molecular Formula": "C16H36N.BH4", "Melting Point": "125-127 \u00b0C"}}