{"cas_no": "3373-00-0", "cn_name": "6-\u7f9f\u57fa-1,2,3,4-\u56db\u6c22\u55b9\u5549", "en_name": ["6-Hydroxy-1,2,3,4-tetrahydroquinoline", "6-Quinolinol, 1,2,3,4-tetrahydro-", "1,2,3,4-Tetrahydro-6-quinolinol", "6-Hydroxy-1,2,3,4-tetrahydroquinoline"], "SMILES": "OC=1C=C2C(=CC1)NCCC2", "physical_data": {"Molecular Weight": "149.19", "Molecular Formula": "C9H11NO", "Melting Point": "160 \u00b0C"}}