{"cas_no": "33733-73-2", "cn_name": "3-\u6eb4\u786b\u4ee3\u82ef\u7532\u919a", "en_name": ["3-Bromothioanisole", "Benzene, 1-bromo-3-(methylthio)-", "Sulfide, m-bromophenyl methyl", "1-Bromo-3-(methylthio)benzene", "m-Bromo(methylthio)benzene", "m-Bromophenyl methyl sulfide", "3-Bromophenyl methyl sulfide", "3-Bromothioanisole", "m-Bromothioanisole", "Methyl m-bromophenyl sulfide", "1-Bromo-3-(methylsulfanyl)benzene", "3-(Methylthio)bromobenzene", "(3-Bromophenyl)(methyl)sulfane"], "SMILES": "S(C)C1=CC(Br)=CC=C1", "physical_data": {"Molecular Weight": "203.10", "Molecular Formula": "C7H7BrS", "Boiling Point": "83-85 \u00b0C @ Press: 1 Torr", "Density": "1.486 g/cm\u00b3 @ Temp: 30 \u00b0C"}}