{"cas_no": "3373-59-9", "cn_name": "L-\u82cf\u6c28\u9178\u7532\u916f", "en_name": ["L-Threonine methyl ester", "L-Threonine, methyl ester", "Threonine, methyl ester, L-", "L-Threonine methyl ester", "Methyl L-threoninate", "Methyl 2(S):3(R)-threoninate", "Methyl threoninate", "Threonine methyl ester", "NSC 287508"], "SMILES": "C(C(OC)=O)(C(C)O)N", "physical_data": {"Molecular Weight": "133.15", "Molecular Formula": "C5H11NO3", "Melting Point": "213-214 \u00b0C"}}