{"cas_no": "3373-53-3", "cn_name": "2-\u7f9f\u57fa-6-\u6c28\u57fa\u560c\u5464", "en_name": ["Isoguanine", "2H-Purin-2-one, 6-amino-3,7-dihydro-", "Isoguanine", "2H-Purin-2-one, 6-amino-1,3-dihydro-", "6-Amino-3,7-dihydro-2H-purin-2-one", "2-Oxyadenine", "Guanopterin", "2-Hydroxyadenine", "2-Hydroxy-6-aminopurine", "6-Amino-2-hydroxypurine", "2-Oxoadenine", "NSC 241501"], "SMILES": "NC=1C2=C(NC(=O)N1)N=CN2", "physical_data": {"Molecular Weight": "151.13", "Molecular Formula": "C5H5N5O", "Melting Point": "&gt;360 \u00b0C"}}