{"cas_no": "3374-22-9", "cn_name": "DL-\u534a\u80f1\u6c28\u9178", "en_name": ["Cysteine", "Cysteine", "Cysteine, DL-", "DL-Cysteine", "(\u00b1)-Cysteine", "NSC 63864", "(\u00b1)-2-Amino-3-mercaptopropionic acid", "2-Amino-3-sulfanylpropanoic acid"], "SMILES": "C(C(O)=O)(CS)N", "physical_data": {"Molecular Weight": "121.16", "Molecular Formula": "C3H7NO2S", "Melting Point": "222-225 \u00b0C"}}