{"cas_no": "3375-31-3", "cn_name": "\u918b\u9178\u94af", "en_name": ["Palladium diacetate", "Acetic acid, palladium(2+) salt (2:1)", "Acetic acid, palladium(2+) salt", "Palladium acetate (Pd(OAc)2)", "Palladium diacetate", "Palladium(2+) acetate", "Palladous acetate", "Palladium(II) acetate", "Palladium acetate (Pd(OCOCH3)2)", "Diacetoxypalladium", "Bis(acetato)palladium", "Acetic acid palladium salt", "Diacetatopalladium", "Palladium(2+) diacetate", "HyCat Base 1", "HyCat 1"], "SMILES": "C(C)(O)=O.[Pd]", "physical_data": {"Molecular Weight": "", "Molecular Formula": "C2H4O2.<sup>1</sup>/2Pd", "Melting Point": "101-103 \u00b0C"}}