{"cas_no": "33758-34-8", "cn_name": "\u6c2f\u7532\u9178\u6b63\u5e9a\u916f", "en_name": ["Heptyl carbonochloridate", "Carbonochloridic acid, heptyl ester", "Formic acid, chloro-, heptyl ester", "Heptyl carbonochloridate", "Heptyl chloroformate", "n-Heptyl chloroformate", "1-Heptyl chloroformate", "Heptyl chlorocarbonate"], "SMILES": "C(CCCCC)COC(Cl)=O", "physical_data": {"Molecular Weight": "178.66", "Molecular Formula": "C8H15ClO2", "Boiling Point": "60-62 \u00b0C @ Press: 4 Torr"}}