{"cas_no": "3375-38-0", "cn_name": "1,4-\u4e8c\u82ef\u7532\u9170\u4e01\u70f7", "en_name": ["1,6-Diphenyl-1,6-hexanedione", "1,6-Hexanedione, 1,6-diphenyl-", "1,6-Diphenyl-1,6-hexanedione", "Butane, 1,4-dibenzoyl-", "1,4-Dibenzoylbutane", "NSC 105666", "NSC 1159", "NSC 22675"], "SMILES": "C(CCCCC(=O)C1=CC=CC=C1)(=O)C2=CC=CC=C2", "physical_data": {"Molecular Weight": "266.33", "Molecular Formula": "C18H18O2", "Melting Point": "107 \u00b0C"}}