{"cas_no": "3376-24-7", "cn_name": "N-\u53d4\u4e01\u57fa-#-\u82ef\u57fa\u785d\u916e", "en_name": ["N-tert-Butyl-\u03b1-phenylnitrone", "2-Propanamine, 2-methyl-N-(phenylmethylene)-, N-oxide", "Nitrone, N-tert-butyl-\u03b1-phenyl-", "2-Phenyl-N-tert-butylnitrone", "\u03b1-Phenyl-N-tert-butylnitrone", "N-tert-Butyl-\u03b1-phenylnitrone", "C-Phenyl-N-tert-butylnitrone", "Benzylidene-tert-butylamine N-oxide", "N-Benzylidene-tert-butylamine oxide", "PBN", "N-tert-Butyl-2-phenylnitrone", "N-Benzylidene-tert-butylamine N-oxide", "N-tert-Butyl-C-phenylnitrone", "tert-Butyl(benzylidene)amine N-oxide", "PBN (amine oxide)", "Benzylidene-tert-butylamine oxide", "C-Phenyl-N-tert-butylnitrone", "2-Methyl-N-(phenylmethylene)-2-propanamine N-oxide"], "SMILES": "C(=N(C(C)(C)C)=O)C1=CC=CC=C1", "physical_data": {"Molecular Weight": "177.24", "Molecular Formula": "C11H15NO", "Melting Point": "76 \u00b0C"}}