{"cas_no": "3377-86-4", "cn_name": "2-\u6eb4\u5df1\u70f7", "en_name": ["2-Bromohexane", "Hexane, 2-bromo-", "2-Bromohexane", "2-Hexyl bromide", "(\u00b1)-2-Bromohexane", "1-Methylpentan-1-yl bromide"], "SMILES": "C(C(Br)C)CCC", "physical_data": {"Molecular Weight": "165.07", "Molecular Formula": "C6H13Br", "Boiling Point": "144 \u00b0C", "Density": "1.1564 g/cm\u00b3 @ Temp: 20 \u00b0C"}}