{"cas_no": "3377-20-6", "cn_name": "\u7532\u6491\u4e19\u4e8c\u9178\u4e8c\u4e59\u916f", "en_name": ["1,3-Diethyl 2-methylenepropanedioate", "Propanedioic acid, 2-methylene-, 1,3-diethyl ester", "Malonic acid, methylene-, diethyl ester", "Propanedioic acid, methylene-, diethyl ester", "1,3-Diethyl 2-methylenepropanedioate", "Diethyl methylenemalonate", "Ethyl methylenemalonate", "1,1-Dicarbethoxyethene", "NSC 18901", "(Methylene)propanedioic acid diethyl ester", "1,3-Diethyl 2-methylidenepropanedioate", "Methylenemalonic acid diethyl ester"], "SMILES": "C(C(OCC)=O)(C(OCC)=O)=C", "physical_data": {"Molecular Weight": "172.18", "Molecular Formula": "C8H12O4", "Boiling Point": "210 \u00b0C", "Melting Point": "135.5-136.5 \u00b0C", "Density": "1.052 g/cm\u00b3 @ Temp: 25 \u00b0C"}}