{"cas_no": "3377-92-2", "cn_name": "\u4e09\u7532\u57fa\u4e59\u9178\u4e59\u70ef\u916f", "en_name": ["Vinyl pivalate", "Propanoic acid, 2,2-dimethyl-, ethenyl ester", "Pivalic acid, vinyl ester", "Vinyl pivalate", "Vinyl trimethylacetate", "Vynate Neo 5", "VeoVa 5", "NSC 83563"], "SMILES": "C(C(C)(C)C)(OC=C)=O", "physical_data": {"Molecular Weight": "128.17", "Molecular Formula": "C7H12O2", "Boiling Point": "113-114 \u00b0C @ Press: 760 Torr", "Density": "0.882 g/cm\u00b3 @ Temp: 20 \u00b0C"}}