{"cas_no": "3377-87-5", "cn_name": "3-\u6eb4\u5df1\u70f7", "en_name": ["3-Bromohexane", "Hexane, 3-bromo-", "3-Bromohexane"], "SMILES": "C(CCC)(CC)Br", "physical_data": {"Molecular Weight": "165.07", "Molecular Formula": "C6H13Br", "Boiling Point": "142 \u00b0C", "Density": "1.1799 g/cm\u00b3 @ Temp: 20 \u00b0C"}}