{"cas_no": "3378-82-3", "cn_name": "1-\u6eb4-2-\u8418\u7532\u919b", "en_name": ["1-Bromo-2-naphthalenecarboxaldehyde", "2-Naphthalenecarboxaldehyde, 1-bromo-", "2-Naphthaldehyde, 1-bromo-", "1-Bromo-2-naphthalenecarboxaldehyde", "1-Bromo-2-naphthaldehyde", "1-Bromonaphthalene-2-carbaldehyde"], "SMILES": "BrC=1C2=C(C=CC1C=O)C=CC=C2", "physical_data": {"Molecular Weight": "235.08", "Molecular Formula": "C11H7BrO", "Melting Point": "119-120 \u00b0C"}}