{"cas_no": "33783-82-3", "cn_name": "HEDERACOLCHISIDE E", "en_name": ["Hederacolchiside E", "Olean-12-en-28-oic acid, 3-[(O-6-deoxy-\u03b1-L-mannopyranosyl-(1\u21922)-O-[\u03b2-D-glucopyranosyl-(1\u21924)]-\u03b1-L-arabinopyranosyl)oxy]-, O-6-deoxy-\u03b1-L-mannopyranosyl-(1\u21924)-O-\u03b2-D-glucopyranosyl-(1\u21926)-\u03b2-D-glucopyranosyl ester, (3\u03b2)-", "Hederacolchiside E", "3\u03b2-[(O-\u03b2-D-Glucopyranosyl-(1\u21924)-O-[\u03b1-L-rhamnopyranosyl-(1\u21922)]-\u03b1-L-arabinopyranosyl)oxy]olean-18-en-28-oic acid O-\u03b1-L-rhamnopyranosyl-(1\u21924)-O-\u03b2-D-glucopyranosyl-(1\u21926)-\u03b2-D-glucopyranosyl ester", "Hederacholchiside E", "3-O-\u03b1-L-Rhamnopyranosyl-(1\u21922)[\u03b2-D-glucopyranosyl(1\u21924)]-\u03b1-L-arabinopyranosoleanolic acid 28-\u03b1-L-rhamnopyranosyl-(1\u21924)-\u03b2-D-glucopyranosyl-(1\u21926)-\u03b2-D-glucopyranoside"], "SMILES": "C(OC1OC(COC2OC(CO)C(OC3C(O)C(O)C(O)C(C)O3)C(O)C2O)C(O)C(O)C1O)(=O)C45C(C=6C(C)(CC4)C7(C)C(CC6)C8(C)C(CC7)C(C)(C)C(OC9C(OC%10C(O)C(O)C(O)C(C)O%10)C(O)C(OC%11OC(CO)C(O)C(O)C%11O)CO9)CC8)CC(C)(C)CC5", "physical_data": {"Molecular Weight": "1367.52", "Molecular Formula": "C65H106O30", "Melting Point": "226-228 \u00b0C"}}