{"cas_no": "3378-72-1", "cn_name": "N-\u53d4\u4e01\u57fa\u82c4\u80fa", "en_name": ["N-(1,1-Dimethylethyl)benzenemethanamine", "Benzenemethanamine, N-(1,1-dimethylethyl)-", "Benzylamine, N-tert-butyl-", "N-(1,1-Dimethylethyl)benzenemethanamine", "Benzyl-tert-butylamine", "N-Benzyl-N-tert-butylamine", "N-Benzyl-tert-butylamine", "N-tert-Butylbenzylamine", "tert-Butylbenzylamine", "N-(tert-Butyl)benzenemethanamine", "N-tert-Butyl-N-benzylamine", "N-Benzyl-2-methylpropan-2-amine"], "SMILES": "C(NC(C)(C)C)C1=CC=CC=C1", "physical_data": {"Molecular Weight": "163.26", "Molecular Formula": "C11H17N", "Boiling Point": "80-85 \u00b0C @ Press: 5 Torr", "Density": "0.899 g/cm\u00b3 @ Temp: 25 \u00b0C"}}