{"cas_no": "3378-71-0", "cn_name": "2,5-\u4e8c\u7532\u57fa\u5421\u54af\u70f7", "en_name": ["2,5-Dimethylpyrrolidine", "Pyrrolidine, 2,5-dimethyl-", "2,5-Dimethylpyrrolidine", "NSC 49109", "2,5-Dimethyl-1H-pyrrolidine"], "SMILES": "CC1NC(C)CC1", "physical_data": {"Molecular Weight": "99.17", "Molecular Formula": "C6H13N", "Boiling Point": "106.5 \u00b0C", "Density": "0.7868 g/cm\u00b3 @ Temp: 20 \u00b0C"}}