{"cas_no": "33795-18-5", "cn_name": "(4-\u7f9f\u57fa\u82ef\u57fa)\u81a6\u9178", "en_name": ["4-Hydroxybenzenephosphonic acid", "Phosphonic acid, P-(4-hydroxyphenyl)-", "Phosphonic acid, (p-hydroxyphenyl)-", "Phosphonic acid, (4-hydroxyphenyl)-", "P-(4-Hydroxyphenyl)phosphonic acid", "(p-Hydroxyphenyl)phosphonic acid", "4-Hydroxyphenylphosphonic acid", "4-Hydroxybenzenephosphonic acid"], "SMILES": "P(=O)(O)(O)C1=CC=C(O)C=C1", "physical_data": {"Molecular Weight": "174.09", "Molecular Formula": "C6H7O4P", "Melting Point": "177 \u00b0C"}}