{"cas_no": "3379-38-2", "cn_name": "1,3-\u4e8c\u82ef\u6c27\u57fa\u82ef", "en_name": ["1,3-Diphenoxybenzene", "Benzene, 1,3-diphenoxy-", "Benzene, m-diphenoxy-", "1,3-Diphenoxybenzene", "m-Diphenoxybenzene", "m-Phenoxyphenoxybenzene", "m-Diphenyloxybenzene", "m-3 F2 E"], "SMILES": "O(C1=CC(OC2=CC=CC=C2)=CC=C1)C3=CC=CC=C3", "physical_data": {"Molecular Weight": "262.30", "Molecular Formula": "C18H14O2", "Boiling Point": "145-151 \u00b0C @ Press: 0.3 Torr", "Melting Point": "61.5 \u00b0C"}}