{"cas_no": "3379-41-7", "cn_name": "4,4'-\u4e8c\u82ef\u6c27\u57fa\u4e8c\u82ef\u919a", "en_name": ["1,1\u2032-Oxybis[4-phenoxybenzene]", "Benzene, 1,1\u2032-oxybis[4-phenoxy-", "Ether, bis(p-phenoxyphenyl)", "1,1\u2032-Oxybis[4-phenoxybenzene]", "Bis(p-phenoxyphenyl) ether", "4,4\u2032-Diphenoxydiphenyl ether"], "SMILES": "O(C1=CC=C(OC2=CC=CC=C2)C=C1)C3=CC=C(OC4=CC=CC=C4)C=C3", "physical_data": {"Molecular Weight": "354.40", "Molecular Formula": "C24H18O3", "Boiling Point": "463 \u00b0C", "Melting Point": "110 \u00b0C"}}