{"cas_no": "33797-51-2", "cn_name": "n,n-\u4e8c\u7532\u57fa\u4e9a\u7532\u57fa\u7898\u5316\u80fa", "en_name": ["Methanaminium, N-methyl-N-methylene-, iodide", "Methanaminium, N-methyl-N-methylene-, iodide", "Ammonium, dimethylmethylene-, iodide", "Dimethyl(methylene)ammonium iodide", "Methylenedimethylammonium iodide", "Eschenmoser's salt", "Eschenmoser's reagent", "N,N-Dimethylmethyleneiminium iodide", "N,N-Dimethylaminomethyleneammonium iodide", "Dimethylmethylideneiminium iodide", "N-Methyl-N-methylenemethanaminium iodide"], "SMILES": "[N+](C)(C)=C.[I-]", "physical_data": {"Molecular Weight": "", "Molecular Formula": "C3H8N.I", "Melting Point": "238 \u00b0C"}}