{"cas_no": "338-83-0", "cn_name": "\u5168\u6c1f\u4e09\u4e19\u80fa", "en_name": ["Perfluorotripropylamine", "1-Propanamine, 1,1,2,2,3,3,3-heptafluoro-N,N-bis(1,1,2,2,3,3,3-heptafluoropropyl)-", "Tripropylamine, heneicosafluoro-", "1-Propanamine, 1,1,2,2,3,3,3-heptafluoro-N,N-bis(heptafluoropropyl)-", "1,1,2,2,3,3,3-Heptafluoro-N,N-bis(1,1,2,2,3,3,3-heptafluoropropyl)-1-propanamine", "Perfluorotripropylamine", "FTPA", "Tri(perfluoropropyl)amine", "Perfluamine", "Tris(perfluoropropyl)amine", "Tris(heptafluoropropyl)amine", "Tri (perfluoro n-propyl) amine"], "SMILES": "N(C(C(C(F)(F)F)(F)F)(F)F)(C(C(C(F)(F)F)(F)F)(F)F)C(C(C(F)(F)F)(F)F)(F)F", "physical_data": {"Molecular Weight": "521.07", "Molecular Formula": "C9F21N", "Boiling Point": "130 \u00b0C", "Melting Point": "-52 \u00b0C", "Density": "1.822 g/cm\u00b3 @ Temp: 25 \u00b0C"}}