{"cas_no": "338-65-8", "cn_name": "2-\u6c2f-1,1-\u4e8c\u6c1f\u4e59\u70f7", "en_name": ["1-Chloro-2,2-difluoroethane", "Ethane, 2-chloro-1,1-difluoro-", "2,2-Difluoroethyl chloride", "2-Chloro-1,1-difluoroethane", "1-Chloro-2,2-difluoroethane", "1,1-Difluoro-2-chloroethane", "2,2-Difluoro-1-chloroethane", "HCFC-142"], "SMILES": "C(CCl)(F)F", "physical_data": {"Molecular Weight": "100.50", "Molecular Formula": "C2H3ClF2", "Boiling Point": "36 \u00b0C"}}