{"cas_no": "338-75-0", "cn_name": "2,3-\u4e8c\u6c2f-1,1,1-\u4e09\u6c1f\u4e19\u70f7", "en_name": ["2,3-Dichloro-1,1,1-trifluoropropane", "Propane, 2,3-dichloro-1,1,1-trifluoro-", "2,3-Dichloro-1,1,1-trifluoropropane", "R 243db", "1,2-Dichloro-3,3,3-trifluoropropane", "1,1,1-Trifluoro-2,3-dichloropropane", "HCFC 243db", "HCFO 243db", "HFO 1234db", "243db", "2,3-Dichloro-1,1,1-fluoropropane"], "SMILES": "C(C(F)(F)F)(CCl)Cl", "physical_data": {"Molecular Weight": "166.96", "Molecular Formula": "C3H3Cl2F3", "Boiling Point": "76.7 \u00b0C", "Density": "1.4310 g/cm\u00b3 @ Temp: 20 \u00b0C"}}