{"cas_no": "338-38-5", "cn_name": "\u56db\u4e19\u57fa\u6c1f\u5316\u94f5", "en_name": ["Tetrapropylammonium tetrafluoroborate(1-)", "1-Propanaminium, N,N,N-tripropyl-, tetrafluoroborate(1-) (1:1)", "Ammonium, tetrapropyl-, tetrafluoroborate(1-)", "1-Propanaminium, N,N,N-tripropyl-, tetrafluoroborate(1-)", "Borate(1-), tetrafluoro-, N,N,N-tripropyl-1-propanaminium", "Tetrapropylammonium tetrafluoroborate(1-)", "Tetrapropylammoniumtetrafluoroborate", "NSC 103607", "[Pr4N][BF4]"], "SMILES": "[N+](CCC)(CCC)(CCC)CCC.[B+3]([F-])([F-])([F-])[F-]", "physical_data": {"Molecular Weight": "", "Molecular Formula": "C12H28N.BF4", "Melting Point": "249 \u00b0C", "Density": "1.115 g/cm\u00b3"}}