{"cas_no": "338-98-7", "cn_name": "\u918b\u9178\u5f02\u6c1f\u6cfc\u5c3c\u677e", "en_name": ["Isoflupredone acetate", "Pregna-1,4-diene-3,20-dione, 21-(acetyloxy)-9-fluoro-11,17-dihydroxy-, (11\u03b2)-", "Pregna-1,4-diene-3,20-dione, 9-fluoro-11\u03b2,17,21-trihydroxy-, 21-acetate", "(11\u03b2)-21-(Acetyloxy)-9-fluoro-11,17-dihydroxypregna-1,4-diene-3,20-dione", "Predef", "9-Fluoroprednisolone 21-acetate", "9-Fluoroprednisolone acetate", "9\u03b1-Fluoroprednisolone acetate", "9-Fluoro-11\u03b2,17,21-trihydroxypregna-1,4-diene-3,20-dione 21-acetate", "9\u03b1-Fluoro-11\u03b2,17\u03b1,21-trihydroxypregna-1,4-diene-3,20-dione 21-acetate", "9\u03b1-Fluoroprednisolone 21-acetate", "21-Acetoxy-9-fluoro-11\u03b2,17-dihydroxypregna-1,4-diene-3,20-dione", "Isoflupredone acetate", "Predef R 2X", "U 6013", "NSC 12600", "NSC 37977"], "SMILES": "FC12C(C3C(C)(CC1O)C(C(COC(C)=O)=O)(O)CC3)CCC=4C2(C)C=CC(=O)C4", "physical_data": {"Molecular Weight": "420.47", "Molecular Formula": "C23H29FO6", "Melting Point": "244-246 \u00b0C (decomp)"}}