{"cas_no": "338-95-4", "cn_name": "\u5f02\u6c1f\u6cfc\u5c3c\u677e", "en_name": ["Isoflupredone", "Pregna-1,4-diene-3,20-dione, 9-fluoro-11,17,21-trihydroxy-, (11\u03b2)-", "Pregna-1,4-diene-3,20-dione, 9-fluoro-11\u03b2,17,21-trihydroxy-", "(11\u03b2)-9-Fluoro-11,17,21-trihydroxypregna-1,4-diene-3,20-dione", "9\u03b1-Fluoro-\u03941-cortisol", "\u0394-Fluorocortisone", "9-Fluoroprednisolone", "Isoflupredone", "NSC 12174"], "SMILES": "FC12C(C3C(C)(CC1O)C(C(CO)=O)(O)CC3)CCC=4C2(C)C=CC(=O)C4", "physical_data": {"Molecular Weight": "378.43", "Molecular Formula": "C21H27FO5", "Melting Point": "264.5 \u00b0C"}}