{"cas_no": "338-76-1", "cn_name": "2-\u6c1f\u5f02\u4e01\u9178\u7532\u916f", "en_name": ["Methyl 2-fluoroisobutyrate", "Propanoic acid, 2-fluoro-2-methyl-, methyl ester", "Propionic acid, 2-fluoro-2-methyl-, methyl ester", "Methyl 2-fluoroisobutyrate", "Methyl 2-fluoro-2-methylpropionate", "Methyl \u03b1-fluoro-\u03b1-methylpropionate", "2-Fluoro-2-methylpropionic acid methyl ester", "Methyl 2-fluoro-2-methylpropanoate"], "SMILES": "C(C(C)(C)F)(OC)=O", "physical_data": {"Molecular Weight": "120.12", "Molecular Formula": "C5H9FO2", "Boiling Point": "108-109 \u00b0C"}}