{"cas_no": "338-84-1", "cn_name": "\u5168\u6c1f\u4e09\u620a\u80fa", "en_name": ["Perfluorotripentylamine", "1-Pentanamine, 1,1,2,2,3,3,4,4,5,5,5-undecafluoro-N,N-bis(1,1,2,2,3,3,4,4,5,5,5-undecafluoropentyl)-", "1-Pentanamine, 1,1,2,2,3,3,4,4,5,5,5-undecafluoro-N,N-bis(undecafluoropentyl)-", "1,1,2,2,3,3,4,4,5,5,5-Undecafluoro-N,N-bis(1,1,2,2,3,3,4,4,5,5,5-undecafluoropentyl)-1-pentanamine", "Perfluorotriamylamine", "Fluorinert FC 70", "FC 70", "Perfluorotripentylamine", "Eftop L 215", "Tri(perfluoropentyl)amine", "Eftop EF-L 215", "Perfluord IL 310", "Tris(perfluoropentyl)amine", "3M FC 70"], "SMILES": "N(C(C(C(C(C(F)(F)F)(F)F)(F)F)(F)F)(F)F)(C(C(C(C(C(F)(F)F)(F)F)(F)F)(F)F)(F)F)C(C(C(C(C(F)(F)F)(F)F)(F)F)(F)F)(F)F", "physical_data": {"Molecular Weight": "821.11", "Molecular Formula": "C15F33N", "Boiling Point": "215-216.5 \u00b0C", "Density": "1.923 g/cm\u00b3 @ Temp: 425 \u00b0C"}}