{"cas_no": "338-69-2", "cn_name": "D-\u4e19\u6c28\u9178", "en_name": ["D-Alanine", "D-Alanine", "Alanine, D-", "Ba 2776", "D-(-)-Alanine", "D-\u03b1-Alanine", "D(-)-\u03b1-Alanine", "(R)-Alanine", "NSC 158286", "(2R)-2-Aminopropanoic acid", "(R)-2-Aminopropanoic acid", "2: PN: RU2506269 PAGE: 13 claimed sequence"], "SMILES": "C(C(O)=O)(C)N", "physical_data": {"Molecular Weight": "89.09", "Molecular Formula": "C3H7NO2", "Melting Point": "292 \u00b0C"}}