{"cas_no": "3380-34-5", "cn_name": "\u4e09\u6c2f\u751f", "en_name": ["Triclosan", "Phenol, 5-chloro-2-(2,4-dichlorophenoxy)-", "5-Chloro-2-(2,4-dichlorophenoxy)phenol", "2,4,4\u2032-Trichloro-2\u2032-hydroxydiphenyl ether", "Irgasan CH 3565", "Irgasan DP 300", "2-Hydroxy-2\u2032,4,4\u2032-trichlorodiphenyl ether", "2\u2032,4\u2032,4-Trichloro-2-hydroxydiphenyl ether", "2,2\u2032-Oxybis(1\u2032,5\u2032-dichlorophenyl-5-chlorophenol)", "4-Chloro-2-hydroxyphenyl 2,4-dichlorophenyl ether", "Triclosan", "CH 3565", "2\u2032,4,4\u2032-Trichloro-2-hydroxydiphenyl ether", "Irgasan", "3-Chloro-6-(2,4-dichlorophenoxy)phenol", "Irgasan DP 3000", "Zilesan UW", "THDP", "Bacti-Stat soap", "Irgasan DP 30", "DP 300", "Irgasan PE 30", "Irgasan PG 60", "Irgacide LP 10", "Microban Additive B", "Ultra-Fresh NM 100", "NM 100", "Microban B", "Irgaguard B 1000", "Tinosan AM 100", "Tinosan AM 110", "Yujiexin", "Vinyzene DP 7000", "TCCP", "2\u2032-Hydroxy-2,4,4\u2032-trichlorodiphenyl ether", "Irgasan DP 400", "Oletron", "Cansan TCH", "SterZac", "CH 3635", "Sapoderm", "Gamophen", "Aquasept", "Sanitized XTX", "Irgacare MP", "Irgaguard B 1325", "Ultra-Fresh NM-V 2", "Microban", "2,4,4\u2032-Trichloro-2\u2032-hydroxyldiphenyl ether", "Microfresh Liquid Formulation 9200-200", "Invasan", "Invasan DP 300R", "Microfresh 9200-200", "Anvasan AM 110", "Anvasan AM 110 new", "2-(2,4-Dichlorophenoxy)-5-chlorophenol", "Germicide CA", "MeSH ID: D014260"], "SMILES": "O(C1=C(Cl)C=C(Cl)C=C1)C2=C(O)C=C(Cl)C=C2", "physical_data": {"Molecular Weight": "289.54", "Molecular Formula": "C12H7Cl3O2", "Melting Point": "54-57.3 \u00b0C"}}