{"cas_no": "3381-26-8", "cn_name": "11-\u4e8c\u5341\u4e00\u9187", "en_name": ["11-Heneicosanol", "11-Heneicosanol", "NSC 158433"], "SMILES": "C(C(CCCCCCCCCC)O)CCCCCCCCC", "physical_data": {"Molecular Weight": "312.57", "Molecular Formula": "C21H44O", "Melting Point": "71.8-72.4 \u00b0C"}}