{"cas_no": "3381-88-2", "cn_name": "\u7532\u57fa\u5c48\u4ed6\u96c4\u916e", "en_name": ["Methasterone", "Androstan-3-one, 17-hydroxy-2,17-dimethyl-, (2\u03b1,5\u03b1,17\u03b2)-", "5\u03b1-Androstan-3-one, 17\u03b2-hydroxy-2\u03b1,17-dimethyl-", "(2\u03b1,5\u03b1,17\u03b2)-17-Hydroxy-2,17-dimethylandrostan-3-one", "2\u03b1,17\u03b1-Dimethyldihydrotestosterone", "17\u03b2-Hydroxy-2\u03b1,17-dimethyl-5\u03b1-androstan-3-one", "NSC 40490", "Methasteron", "Superdrol", "17-Methyldrostanolone", "Methasterone"], "SMILES": "CC12C3C(C4C(C)(CC3)C(C)(O)CC4)CCC1CC(=O)C(C)C2", "physical_data": {"Molecular Weight": "318.49", "Molecular Formula": "C21H34O2", "Melting Point": "139.0-140.5 \u00b0C"}}