{"cas_no": "3381-87-1", "cn_name": "2-\u82c4\u6c27\u57fa\u82ef\u7532\u9187", "en_name": ["2-(Phenylmethoxy)benzenemethanol", "Benzenemethanol, 2-(phenylmethoxy)-", "Benzyl alcohol, o-(benzyloxy)-", "2-(Phenylmethoxy)benzenemethanol", "2-Benzyloxybenzyl alcohol", "(2-Benzyloxyphenyl)methanol", "(2-Phenylmethoxyphenyl)methanol"], "SMILES": "O(CC1=CC=CC=C1)C2=C(CO)C=CC=C2", "physical_data": {"Molecular Weight": "214.26", "Molecular Formula": "C14H14O2", "Boiling Point": "212-213 \u00b0C @ Press: 20 Torr", "Melting Point": "36.5-37.5 \u00b0C"}}