{"cas_no": "3382-63-6", "cn_name": "4-[[(4-\u6c1f\u82ef\u57fa)\u4e9a\u80fa]\u7532\u57fa]-\u82ef\u915a", "en_name": ["4-[[(4-Fluorophenyl)imino]methyl]phenol", "Phenol, 4-[[(4-fluorophenyl)imino]methyl]-", "Phenol, p-[N-(p-fluorophenyl)formimidoyl]-", "4-[[(4-Fluorophenyl)imino]methyl]phenol", "4-[(4-Fluorophenylimino)methyl]phenol", "N-(4-Hydroxybenzylidene)-4-fluorobenzenamine"], "SMILES": "C(=NC1=CC=C(F)C=C1)C2=CC=C(O)C=C2", "physical_data": {"Molecular Weight": "215.22", "Molecular Formula": "C13H10FNO", "Melting Point": "195 \u00b0C"}}