{"cas_no": "3382-18-1", "cn_name": "6,7-\u4e8c\u7532\u6c27\u57fa-3,4-\u4e8c\u6c22\u5f02\u55b9\u5549", "en_name": ["3,4-Dihydro-6,7-dimethoxyisoquinoline", "Isoquinoline, 3,4-dihydro-6,7-dimethoxy-", "3,4-Dihydro-6,7-dimethoxyisoquinoline", "6,7-Dimethoxy-3,4-dihydroisoquinoline", "3,4-Dihydrobackebergine", "Dehydroheliamine", "NSC 627588"], "SMILES": "O(C)C=1C=C2C(=CC1OC)C=NCC2", "physical_data": {"Molecular Weight": "191.23", "Molecular Formula": "C11H13NO2", "Boiling Point": "205-208 \u00b0C"}}