{"cas_no": "3383-96-8", "cn_name": "\u53cc\u786b\u78f7", "en_name": ["Temephos", "Phosphorothioic acid, Op,Op\u2032-(thiodi-4,1-phenylene) Op,Op,Op\u2032,Op\u2032-tetramethyl ester", "Phosphorothioic acid, O,O\u2032-(thiodi-p-phenylene) O,O,O\u2032,O\u2032-tetramethyl ester", "Phosphorothioic acid, O,O\u2032-(thiodi-4,1-phenylene) O,O,O\u2032,O\u2032-tetramethyl ester", "Phosphorothioic acid, O,O-dimethyl ester, O,O-diester with 4,4\u2032-thiodiphenol", "EI 52160", "Experimental Insecticide 52,160", "Abate", "Biothion", "AC 52160", "O,O,O\u2032,O\u2032-Tetramethyl O,O\u2032-thiodi-p-phenylene phosphorothioate", "Diphos (pesticide)", "Temephos", "Difos", "Difenphos", "Diphos", "Nephis", "Temefos", "Nephis 1G", "Abathion", "Ecopro 1707", "Procida", "Biothon", "ENT 27165", "Lavifos", "Mosq", "Azai-SS", "Abate 4E", "Mosquit TB 10", "Mosquit TB 100", "Temecal", "O,O,O\u2032,O\u2032-Tetramethyl-O,O\u2032-sulfanediylbis(1,4-phenylene)diphosphorothioate"], "SMILES": "P(OC1=CC=C(SC2=CC=C(OP(OC)(OC)=S)C=C2)C=C1)(OC)(OC)=S", "physical_data": {"Molecular Weight": "466.47", "Molecular Formula": "C16H20O6P2S3", "Melting Point": "30.5 \u00b0C"}}