{"cas_no": "3383-72-0", "cn_name": "2-\u6c2f\u4e59\u57fa-4-\u785d\u57fa\u82ef\u57fa\u919a", "en_name": ["1-(2-Chloroethoxy)-4-nitrobenzene", "Benzene, 1-(2-chloroethoxy)-4-nitro-", "Phenetole, \u03b2-chloro-p-nitro-", "1-(2-Chloroethoxy)-4-nitrobenzene", "4-(2-Chloroethoxy)nitrobenzene", "2-Chloroethyl 4-nitrophenyl ether", "\u03b2-Chloro-4-nitrophenetole", "2-(4-Nitrophenoxy)ethyl chloride", "4-Nitro-1-(2-chloroethoxy)benzene"], "SMILES": "N(=O)(=O)C1=CC=C(OCCCl)C=C1", "physical_data": {"Molecular Weight": "201.61", "Molecular Formula": "C8H8ClNO3", "Boiling Point": "204-206 \u00b0C @ Press: 25 Torr", "Melting Point": "67-68 \u00b0C"}}