{"cas_no": "3383-21-9", "cn_name": "3,5-\u4e8c-\u53d4\u4e01\u57fa-O-\u90bb\u82ef\u4e8c\u915a", "en_name": ["3,5-Di-tert-butyl-1,2-benzoquinone", "3,5-Cyclohexadiene-1,2-dione, 3,5-bis(1,1-dimethylethyl)-", "o-Benzoquinone, 3,5-di-tert-butyl-", "3,5-Bis(1,1-dimethylethyl)-3,5-cyclohexadiene-1,2-dione", "4,6-Di-tert-butyl-1,2-benzoquinone", "3,5-Di-tert-butyl-o-quinone", "4,6-Di-tert-butyl-o-benzoquinone", "3,5-Di-tert-butyl-1,2-benzoquinone", "3,5-Di-tert-butyl-o-benzoquinone", "NSC 149061", "DTBQ", "3,5-Di-t-butyl-o-quinone", "3,5-Di-tert-butylcyclohexa-3,5-diene-1,2-dione", "3,5-Di-tert-butylquinone", "3,5-Ditert-butylcyclohexa-3,5-diene-1,2-dione"], "SMILES": "C(C)(C)(C)C1=CC(C(C)(C)C)=CC(=O)C1=O", "physical_data": {"Molecular Weight": "220.31", "Molecular Formula": "C14H20O2", "Melting Point": "113-114 \u00b0C", "Density": "0.87 g/cm\u00b3"}}