{"cas_no": "33842-16-9", "cn_name": "\u82ef\u5e76-1,3-\u4e8c\u6c27\u620a\u73af-4-\u7532\u9178\u7532\u916f", "en_name": ["Methyl 1,3-benzodioxole-4-carboxylate", "1,3-Benzodioxole-4-carboxylic acid, methyl ester", "Benzoic acid, 2,3-(methylenedioxy)-, methyl ester", "Methyl 1,3-benzodioxole-4-carboxylate", "Methyl 2,3-methylenedioxybenzoate", "NSC 146459", "1,3-Benzodioxol-4-carboxylic acid methyl ester"], "SMILES": "C(OC)(=O)C1=C2C(=CC=C1)OCO2", "physical_data": {"Molecular Weight": "180.16", "Molecular Formula": "C9H8O4", "Melting Point": "55-56 \u00b0C"}}