{"cas_no": "33844-21-2", "cn_name": "4-\u7532\u6c27\u57fa-2-\u785d\u57fa\u82ef\u7532\u9178", "en_name": ["4-Methoxy-2-nitrobenzoic acid", "Benzoic acid, 4-methoxy-2-nitro-", "p-Anisic acid, 2-nitro-", "4-Methoxy-2-nitrobenzoic acid", "2-Nitro-4-methoxybenzoic acid", "2-Nitro-p-anisic acid", "NSC 149936"], "SMILES": "N(=O)(=O)C1=C(C(O)=O)C=CC(OC)=C1", "physical_data": {"Molecular Weight": "197.14", "Molecular Formula": "C8H7NO5", "Melting Point": "195-196 \u00b0C"}}