{"cas_no": "33842-02-3", "cn_name": "\u4e8c\u6c2f\u4e9a\u7532\u57fa\u4e8c\u7532\u57fa\u6c2f\u5316\u94f5", "en_name": ["Phosgeniminium chloride", "Methanaminium, dichlorodimethyl-, chloride (1:1)", "Methanaminium, N-(dichloromethylene)-N-methyl-, chloride", "Ammonium, (dichloromethylene)dimethyl-, chloride", "(Dichloromethylene)dimethylammonium chloride", "Dimethylphosgeniminium chloride", "Viehe's salt", "N-(Dichloromethylene)-N-methylmethanaminium chloride", "Phosgeniminium chloride", "(Dichloromethylene)dimethyliminium chloride", "(Dichloromethylidene)dimethylazanium chloride"], "SMILES": "C(=[N+](C)C)(Cl)Cl.[Cl-]", "physical_data": {"Molecular Weight": "", "Molecular Formula": "C3H6Cl2N.Cl", "Melting Point": "185 \u00b0C"}}