{"cas_no": "3385-94-2", "cn_name": "\u53cc(\u4e09\u7532\u57fa\u786b\u5316\u7845)", "en_name": ["Bis(trimethylsilyl) sulfide", "Disilathiane, 1,1,1,3,3,3-hexamethyl-", "Disilthiane, hexamethyl-", "Disilathiane, hexamethyl-", "1,1,1,3,3,3-Hexamethyldisilathiane", "Bis(trimethylsilyl) sulfide", "Hexamethyldisilthiane", "Hexamethyldisilathiane", "Hexamethyldisilyl sulfide", "Hexamethyldisilthian", "Bis(trimethylsilyl)sulfur", "Hexamethyldisilylthiane", "NSC 252160"], "SMILES": "S([Si](C)(C)C)[Si](C)(C)C", "physical_data": {"Molecular Weight": "178.44", "Molecular Formula": "C6H18SSi2", "Boiling Point": "162-164 \u00b0C", "Density": "0.851 g/cm\u00b3"}}