{"cas_no": "3385-78-2", "cn_name": "\u4e09\u7532\u57fa\u94df", "en_name": ["Trimethylindium", "Indium, trimethyl-", "Trimethylindium", "TMI"], "SMILES": "[In](C)(C)C", "physical_data": {"Molecular Weight": "", "Molecular Formula": "C3H9In", "Boiling Point": "66-67 \u00b0C @ Press: 12 Torr", "Melting Point": "88 \u00b0C", "Density": "1.568 g/cm\u00b3"}}