{"cas_no": "3385-21-5", "cn_name": "1,3-\u73af\u5df1\u70f7\u4e8c\u80fa", "en_name": ["1,3-Cyclohexanediamine", "1,3-Cyclohexanediamine", "1,3-Diaminocyclohexane"], "SMILES": "NC1CC(N)CCC1", "physical_data": {"Molecular Weight": "114.19", "Molecular Formula": "C6H14N2", "Boiling Point": "97 \u00b0C @ Press: 30 Torr"}}