{"cas_no": "3385-34-0", "cn_name": "4,6-\u4e8c\u7532\u57fa-2-\u6c27-2H-\u5421\u5583-5-\u7532\u9178\u4e59\u916f", "en_name": ["Ethyl 4,6-dimethyl-2-oxo-2H-pyran-5-carboxylate", "2H-Pyran-5-carboxylic acid, 4,6-dimethyl-2-oxo-, ethyl ester", "Glutaconic acid, 4-(1-hydroxyethylidene)-3-methyl-, \u03b4-lactone, ethyl ester", "Coumalic acid, 4,6-dimethyl-, ethyl ester", "Ethyl 4,6-dimethyl-2-oxo-2H-pyran-5-carboxylate", "Ethyl isodehydroacetate", "Ethyl 4,6-dimethyl-5-coumalate", "5-(Ethoxycarbonyl)-4,6-dimethyl-\u03b1-pyrone", "Ethyl isodehydracetate", "NSC 18911", "NSC 602920", "2,4-Dimethyl-6-oxo-6H-pyran-3-carboxylic acid ethyl ester"], "SMILES": "C(OCC)(=O)C=1C(C)=CC(=O)OC1C", "physical_data": {"Molecular Weight": "196.20", "Molecular Formula": "C10H12O4", "Boiling Point": "150-176 \u00b0C", "Melting Point": "18-20 \u00b0C", "Density": "1.1619 g/cm\u00b3 @ Temp: 25 \u00b0C"}}