{"cas_no": "3386-18-3", "cn_name": "\u4e5d\u7518\u9187", "en_name": ["3,6,9,12,15,18,21,24-Octaoxahexacosane-1,26-diol", "3,6,9,12,15,18,21,24-Octaoxahexacosane-1,26-diol", "Nonaethylene glycol"], "SMILES": "C(COCCOCCOCCOCCO)OCCOCCOCCOCCO", "physical_data": {"Molecular Weight": "414.49", "Molecular Formula": "C18H38O10", "Boiling Point": "190 \u00b0C @ Press: 0.01 Torr", "Melting Point": "24.0-25.2 \u00b0C"}}