{"cas_no": "3386-33-2", "cn_name": "\u6c2f\u4ee3\u5341\u516b\u70f7", "en_name": ["1-Chlorooctadecane", "Octadecane, 1-chloro-", "1-Chlorooctadecane", "Octadecyl chloride", "n-Octadecyl chloride", "NSC 5543", "1-Octadecyl chloride", "C 18Cl"], "SMILES": "C(CCCCCCCCC)CCCCCCCCCl", "physical_data": {"Molecular Weight": "288.94", "Molecular Formula": "C18H37Cl", "Boiling Point": "348 \u00b0C", "Melting Point": "28.6 \u00b0C", "Density": "0.8289 g/cm\u00b3 @ Temp: 20 \u00b0C"}}