{"cas_no": "3386-97-8", "cn_name": "3-\u4e01\u70ef\u57fa\u5f02\u786b\u6c30\u9178\u916f", "en_name": ["3-Butenyl isothiocyanate", "1-Butene, 4-isothiocyanato-", "Isothiocyanic acid, 3-butenyl ester", "4-Isothiocyanato-1-butene", "3-Butenyl isothiocyanate", "3-Buten-1-yl Isothiocyanate"], "SMILES": "C(CC=C)N=C=S", "physical_data": {"Molecular Weight": "113.18", "Molecular Formula": "C5H7NS", "Boiling Point": "77.5 \u00b0C @ Press: 28 Torr"}}