{"cas_no": "33863-86-4", "cn_name": "4-\u6b63\u4e01\u6c27\u57fa\u82ef\u7532\u9170\u6c2f", "en_name": ["4-Butoxybenzoyl chloride", "Benzoyl chloride, 4-butoxy-", "Benzoyl chloride, p-butoxy-", "4-Butoxybenzoyl chloride", "p-Butoxybenzoyl chloride", "p-Butyloxybenzoyl chloride", "4-n-Butoxybenzoyl chloride", "p-n-Butoxybenzoic acid chloride", "p-Butoxybenzoic acid chloride", "4-n-Butyloxybenzoyl chloride", "4-Butyloxybenzoic acid chloride"], "SMILES": "O(CCCC)C1=CC=C(C(Cl)=O)C=C1", "physical_data": {"Molecular Weight": "212.67", "Molecular Formula": "C11H13ClO2", "Boiling Point": "160 \u00b0C @ Press: 13 Torr"}}