{"cas_no": "3386-87-6", "cn_name": "1,2-\u53cc(\u6c30\u4e59\u6c27\u57fa)\u4e59\u70f7", "en_name": ["3,3\u2032-[1,2-Ethanediylbis(oxy)]bis[propanenitrile]", "Propanenitrile, 3,3\u2032-[1,2-ethanediylbis(oxy)]bis-", "Propionitrile, 3,3\u2032-(ethylenedioxy)di-", "3,3\u2032-[1,2-Ethanediylbis(oxy)]bis[propanenitrile]", "3,3\u2032-(Ethylenedioxy)dipropionitrile", "Ethylene glycol di-\u03b2-cyanoethyl ether", "1,2-Bis(2-cyanoethoxy)ethane", "1,2-Bis(\u03b2-cyanoethoxy)ethane", "Ethylene glycol bis(2-cyanoethyl) ether", "3,6-Dioxa-1,8-dicyanooctane", "NSC 69063", "3,3\u2032-[Ethane-1,2-diylbis(oxy)]dipropanenitrile", "1,2-Bis(2\u2032-cyanoethoxy)ethane"], "SMILES": "C(COCCC#N)OCCC#N", "physical_data": {"Molecular Weight": "168.19", "Molecular Formula": "C8H12N2O2", "Boiling Point": "158 \u00b0C @ Press: 2 Torr", "Density": "1.0980 g/cm\u00b3 @ Temp: 20 \u00b0C"}}