{"cas_no": "3387-41-5", "cn_name": "\u6867\u70ef", "en_name": ["Sabinene", "Bicyclo[3.1.0]hexane, 4-methylene-1-(1-methylethyl)-", "4(10)-Thujene", "4-Methylene-1-(1-methylethyl)bicyclo[3.1.0]hexane", "Sabinene", "Sabinen", "1-Isopropyl-4-methylenebicyclo[3.1.0]hexane", "Sabenene", "NSC 407278"], "SMILES": "C(C)(C)C12C(C1)C(=C)CC2", "physical_data": {"Molecular Weight": "136.23", "Molecular Formula": "C10H16", "Boiling Point": "163-165 \u00b0C @ Press: 757.600625 Torr", "Density": "0.8422 g/cm\u00b3 @ Temp: 17 \u00b0C"}}