{"cas_no": "33878-99-8", "cn_name": "(S)-(+)-3,4,8,8A-\u56db\u6c22-8A-\u7532\u57fa-1,6-(2H,7H)-\u8418\u4e8c\u916e", "en_name": ["(+)-Wieland-Miescher ketone", "1,6(2H,7H)-Naphthalenedione, 3,4,8,8a-tetrahydro-8a-methyl-, (8aS)-", "1,6(2H,7H)-Naphthalenedione, 3,4,8,8a-tetrahydro-8a-methyl-, (S)-(+)-", "1,6(2H,7H)-Naphthalenedione, 3,4,8,8a-tetrahydro-8a-methyl-, (S)-", "(8aS)-3,4,8,8a-Tetrahydro-8a-methyl-1,6(2H,7H)-naphthalenedione", "(S)-1,2,3,4,6,7,8,8a-Octahydro-8a-methyl-1,6-naphthalenedione", "(S)-Wieland-Miescher ketone", "(+)-Wieland-Miescher ketone", "(8AS)-8a-methyl-1,2,3,4,6,7,8,8a-octahydronaphthalene-1,6-dione", "(S)-(+)-3,4,8,8a-Tetrahydro-8a-methyl-1,6(2H,7H)-naphthalenedione"], "SMILES": "CC12C(=CC(=O)CC1)CCCC2=O", "physical_data": {"Molecular Weight": "178.23", "Molecular Formula": "C11H14O2", "Melting Point": "49 \u00b0C"}}