{"cas_no": "3387-26-6", "cn_name": "3,4-\u544b\u5583\u4e8c\u7532\u9178", "en_name": ["3,4-Furandicarboxylic acid", "3,4-Furandicarboxylic acid", "NSC 191922", "NSC 629037"], "SMILES": "C(O)(=O)C=1C(C(O)=O)=COC1", "physical_data": {"Molecular Weight": "156.09", "Molecular Formula": "C6H4O5", "Melting Point": "217-218 \u00b0C"}}