{"cas_no": "3388-04-3", "cn_name": "\u4e09\u7532\u6c27\u57fa[2-(7-\u6c27\u6742\u4e8c\u73af[4.1.0]\u5e9a-3-\u57fa)\u4e59\u57fa]\u7845\u70f7", "en_name": ["Epoxycyclohexylethyltrimethoxysilane", "7-Oxabicyclo[4.1.0]heptane, 3-[2-(trimethoxysilyl)ethyl]-", "Silane, trimethoxy[2-(7-oxabicyclo[4.1.0]hept-3-yl)ethyl]-", "7-Oxabicyclo[4.1.0]heptane, silane deriv.", "3-[2-(Trimethoxysilyl)ethyl]-7-oxabicyclo[4.1.0]heptane", "[\u03b2-(3,4-Epoxycyclohexyl)ethyl]trimethoxysilane", "3,4-Epoxycyclohexylethyltrimethoxysilane", "[2-(3,4-Epoxycyclohexyl)ethyl]trimethoxysilane", "4-[2-(Trimethoxysilyl)ethyl]-7-oxabicyclo[4.1.0]heptane", "Silane A 186", "UC-A 186", "Silicone A 186", "KBM 303", "A 186 (coupling agent)", "A 186", "Y 4086", "NUCA 186", "S 530", "Sila-Ace S 530", "Silquest A 186", "E 6250", "Epoxycyclohexylethyltrimethoxysilane", "NSC 139838", "E 6250 (coupling agent)", "NUC Silicone A 186", "Z 6043", "Silwet A 186", "LS 3990", "KBE 303", "A 168", "KH 566", "KH 530", "DB 186", "HK 531", "GC 186", "Trimethoxy[2-(7-oxabicyclo[4.1.0]hept-3-yl)ethyl]silane", "(2-(7-Oxabicyclo[4.1.0]heptan-3-yl)ethyl)trimethoxysilane", "\u03b2-(3,4-Epoxycyclohexyl)ethyltrimethoxysiloxane", "Gelest SIE 4670.0", "SIE 4670.0", "2-(3,4-Epoxycyclohexyl)ethyltrimethosilane", "2-(3,4-Epoxyhexyl)ethyltrimethoxysilane", "E 0327", "CG 186", "AC 67", "TCI-E 0327", "B 86"], "SMILES": "[Si](CCC1CC2C(CC1)O2)(OC)(OC)OC", "physical_data": {"Molecular Weight": "246.38", "Molecular Formula": "C11H22O4Si", "Boiling Point": "95-97 \u00b0C @ Press: 0.25 Torr", "Density": "1.065 g/cm\u00b3"}}