{"cas_no": "33884-43-4", "cn_name": "2-(2-\u6eb4\u4e59\u57fa)-1,3-\u4e8c\u6c27\u6742\u73af\u5df1\u70f7", "en_name": ["2-(2-Bromoethyl)-1,3-dioxane", "1,3-Dioxane, 2-(2-bromoethyl)-", "m-Dioxane, 2-(2-bromoethyl)-", "2-(2-Bromoethyl)-1,3-dioxane", "2-(\u03b2-Bromoethyl)-1,3-dioxane", "3,3-(Trimethylenedioxy)propyl bromide", "2-(1,3-Dioxan-2-yl)ethyl bromide", "(1,3-Dioxan-2-ylethyl)bromide"], "SMILES": "C(CBr)C1OCCCO1", "physical_data": {"Molecular Weight": "195.05", "Molecular Formula": "C6H11BrO2", "Boiling Point": "68-70 \u00b0C @ Press: 3 Torr"}}