{"cas_no": "33890-03-8", "cn_name": "4-\u6c28\u57fa-\u95f4\u82ef\u4e8c\u7532\u9178", "en_name": ["4-Amino-1,3-benzenedicarboxylic acid", "1,3-Benzenedicarboxylic acid, 4-amino-", "Isophthalic acid, 4-amino-", "4-Amino-1,3-benzenedicarboxylic acid", "4-Aminoisophthalic acid", "4-Aminobenzene-1,3-dicarboxylic acid", "5-Carboxyanthranilic acid", "1-Amino-2,4-dicarboxy-benzene"], "SMILES": "C(O)(=O)C1=CC(C(O)=O)=CC=C1N", "physical_data": {"Molecular Weight": "181.15", "Molecular Formula": "C8H7NO4", "Melting Point": "336-337 \u00b0C (decomp)"}}