{"cas_no": "3389-21-7", "cn_name": "3-(2-\u6eb4\u4e59\u57fa)\u5432\u54da", "en_name": ["3-(2-Bromoethyl)indole", "1H-Indole, 3-(2-bromoethyl)-", "Indole, 3-(2-bromoethyl)-", "3-(2-Bromoethyl)-1H-indole", "3-(2-Bromoethyl)indole", "3-(Bromoethyl)-1H-indole", "2-(3-Indolyl)ethyl bromide", "1-Bromo-2-(3-indolyl)ethane"], "SMILES": "C(CBr)C=1C=2C(NC1)=CC=CC2", "physical_data": {"Molecular Weight": "224.10", "Molecular Formula": "C10H10BrN", "Melting Point": "96-97 \u00b0C"}}