{"cas_no": "33892-75-0", "cn_name": "5-\u7532\u6c27\u57fa-3,4-\u4e8c\u6c22-2H-1-\u8418\u916e", "en_name": ["5-Methoxy-1-tetralone", "1(2H)-Naphthalenone, 3,4-dihydro-5-methoxy-", "3,4-Dihydro-5-methoxy-1(2H)-naphthalenone", "5-Methoxy-1-tetralone", "5-Methoxytetralone", "5-Methoxy-\u03b1-tetralone", "5-Methoxy-3,4-dihydronaphthalen-1(2H)-one", "NSC 310000", "5-Methoxy-1,2,3,4-tetrahydro-1-oxonaphthalene", "5-Methoxy-3,4-dihydro-2H-naphthalen-1-one", "5-Methoxy-1,2,3,4-tetrahydronaphthalen-1-one"], "SMILES": "O(C)C1=C2C(C(=O)CCC2)=CC=C1", "physical_data": {"Molecular Weight": "176.21", "Molecular Formula": "C11H12O2", "Boiling Point": "160-164 \u00b0C @ Press: 12 Torr", "Melting Point": "89-89.5 \u00b0C"}}