{"cas_no": "339-59-3", "cn_name": "4-(\u4e09\u6c1f\u7532\u57fa)\u4e9a\u82ef\u57fa\u80bc", "en_name": ["Benzoic acid, 4-(trifluoromethyl)-, hydrazide", "Benzoic acid, 4-(trifluoromethyl)-, hydrazide", "p-Toluic acid, \u03b1,\u03b1,\u03b1-trifluoro-, hydrazide", "p-(Trifluoromethyl)benzoylhydrazine", "4-(Trifluoromethyl)benzohydrazide", "p-Trifluoromethylbenzoyl hydrazide", "p-Trifluoromethylbenzoic acid hydrazide", "4-Trifluoromethylbenzoic acid hydrazide", "4-Trifluoromethylbenzhydrazide", "4-(Trifluoromethyl)benzoic hydrazide"], "SMILES": "C(F)(F)(F)C1=CC=C(C(NN)=O)C=C1", "physical_data": {"Molecular Weight": "204.15", "Molecular Formula": "C8H7F3N2O", "Melting Point": "120-121 \u00b0C"}}