{"cas_no": "339-43-5", "cn_name": "\u6c28\u78fa\u4e01\u8132", "en_name": ["Carbutamide", "Benzenesulfonamide, 4-amino-N-[(butylamino)carbonyl]-", "Urea, 1-butyl-3-sulfanilyl-", "Sulfanilamide, N1-(butylcarbamoyl)-", "4-Amino-N-[(butylamino)carbonyl]benzenesulfonamide", "BZ 55", "U 6987", "Alentin", "N-(4-Aminobenzenesulfonyl)-N\u2032-butylurea", "Aminophenurobutane", "Bucarban", "Bucrol", "Burcol", "N\u2032-(Butylcarbamoyl)sulfanilamide", "N-Butyl-N\u2032-sulfanilylurea", "1-Butyl-3-sulfanilylurea", "Carbutamide", "Emedan", "Glucidoral", "Glybutamide", "Invenol", "Nadisan", "Norboral", "Oranil", "Orasulin", "Diaboral", "Oranyl", "N\u2032-(4-Aminobenzenesulfonyl)-N-butylurea", "N\u2032-(4-Aminophenylsulfonyl)-N-butylurea", "N\u2032-(4-Aminophenylsulfonyl)-N-n-butylurea", "Carbutamid", "N-Sulfanilyl-N\u2032-butylurea", "Bukarban", "Nadizan", "Butisulfina", "Inbuton", "Glucofren", "NSC 242409", "NSC 246862", "1-(4-Aminophenyl)sulfonyl-3-butylurea", "MeSH ID: D002271"], "SMILES": "S(NC(NCCCC)=O)(=O)(=O)C1=CC=C(N)C=C1", "physical_data": {"Molecular Weight": "271.34", "Molecular Formula": "C11H17N3O3S", "Melting Point": "144-145 \u00b0C"}}