{"cas_no": "339-72-0", "cn_name": "\u73af\u4e1d\u6c28\u9178", "en_name": ["L-Cycloserine", "3-Isoxazolidinone, 4-amino-, (4S)-", "3-Isoxazolidinone, 4-amino-, (-)-", "3-Isoxazolidinone, 4-amino-, (S)-", "(4S)-4-Amino-3-isoxazolidinone", "L-Cycloserine", "(S)-Cycloserine", "l-4-Amino-3-isoxazolidinone", "(S)-(-)-Cycloserine", "L-4-Amino-3-isoxazolidinone", "Cyclo-L-serine", "Levcycloserine", "(4S)-4-Amino-4,5-dihydro-1,2-oxazol-3-ol", "(4S)-4-Amino-1,2-oxazolidin-3-one", "(4S)-4-Azaniumyl-4,5-dihydro-1,2-oxazol-3-olate", "(S)-4-Aminoisoxazolidin-3-one"], "SMILES": "NC1C(=O)NOC1", "physical_data": {"Molecular Weight": "102.09", "Molecular Formula": "C3H6N2O2", "Melting Point": "153-154 \u00b0C"}}