{"cas_no": "33901-46-1", "cn_name": "4-\u785d\u57fa\u82ef\u6c27\u57fa\u4e59\u8148", "en_name": ["2-(4-Nitrophenoxy)acetonitrile", "Acetonitrile, 2-(4-nitrophenoxy)-", "Acetonitrile, (p-nitrophenoxy)-", "Acetonitrile, (4-nitrophenoxy)-", "2-(4-Nitrophenoxy)acetonitrile", "(4-Nitrophenoxy)acetonitrile"], "SMILES": "N(=O)(=O)C1=CC=C(OCC#N)C=C1", "physical_data": {"Molecular Weight": "178.14", "Molecular Formula": "C8H6N2O3", "Melting Point": "68-70 \u00b0C"}}