{"cas_no": "3390-61-2", "cn_name": "1,3,5-\u4e09\u7532\u57fa-1,1,3,5,5-\u4e94\u82ef\u57fa\u4e09\u7845\u4e8c\u6c27\u70f7", "en_name": ["Trimethylpentaphenyltrisiloxane", "Trisiloxane, 1,3,5-trimethyl-1,1,3,5,5-pentaphenyl-", "1,3,5-Trimethyl-1,1,3,5,5-pentaphenyltrisiloxane", "DC 705", "Dow Corning 705", "HIVAC F 5", "Pentaphenyltrimethyltrisiloxane", "Silicone DC 705", "PDM 7050", "PH 1555HRI Cosmetic Fluid", "PH 1555", "PH 1555HRI", "Dow Corning 555", "DC 555", "Dow Corning 555 Cosmetic Fluid", "FZ 3156", "F 5", "Shin-Etsu F 5", "Dow Corning PH 1555HRI", "Trimethylpentaphenyltrisiloxane", "Hivac F 5", "1,1,3,5,5-Pentaphenyl-1,3,5-trimethyltrisiloxane", "1,1,3,5,5-Pentaphenyl-1,3,5-trimethylsiloxane"], "SMILES": "[Si](O[Si](O[Si](C)(C1=CC=CC=C1)C2=CC=CC=C2)(C)C3=CC=CC=C3)(C)(C4=CC=CC=C4)C5=CC=CC=C5", "physical_data": {"Molecular Weight": "546.88", "Molecular Formula": "C33H34O2Si3", "Boiling Point": "240-245 \u00b0C @ Press: 0.5 Torr", "Melting Point": "-25 \u00b0C", "Density": "1.093 g/cm\u00b3"}}