{"cas_no": "3390-12-3", "cn_name": "2,4-\u4e8c\u7532\u57fa-1,3-\u4e8c\u6c27\u620a\u73af", "en_name": ["2,4-Dimethyl-1,3-dioxolane", "1,3-Dioxolane, 2,4-dimethyl-", "2,4-Dimethyl-1,3-dioxolane", "Acetaldehyde cyclic propylene acetal", "Propylene acetal"], "SMILES": "CC1OC(C)OC1", "physical_data": {"Molecular Weight": "102.13", "Molecular Formula": "C5H10O2", "Boiling Point": "110-125 \u00b0C", "Density": "0.9283 g/cm\u00b3 @ Temp: 20 \u00b0C"}}