{"cas_no": "33912-87-7", "cn_name": "Z-GLY-VAL-OH", "en_name": ["N-[(Phenylmethoxy)carbonyl]glycyl-L-valine", "L-Valine, N-[(phenylmethoxy)carbonyl]glycyl-", "L-Valine, N-[N-[(phenylmethoxy)carbonyl]glycyl]-", "Valine, N-(N-carboxyglycyl)-, N-benzyl ester, L-", "N-[(Phenylmethoxy)carbonyl]glycyl-L-valine", "N-(Benzyloxycarbonyl)glycyl-L-valine", "(2S)-3-Methyl-2-[[2-(phenylmethoxycarbonylamino)acetyl]amino]butanoic acid"], "SMILES": "C(NC(CNC(OCC1=CC=CC=C1)=O)=O)(C(C)C)C(O)=O", "physical_data": {"Molecular Weight": "308.33", "Molecular Formula": "C15H20N2O5", "Melting Point": "145 \u00b0C"}}