{"cas_no": "3391-83-1", "cn_name": "11-\u6c27\u6742\u5341\u516d\u70f7\u9178-16-\u5185\u916f", "en_name": ["1,7-Dioxacycloheptadecan-8-one", "1,7-Dioxacycloheptadecan-8-one", "Decanoic acid, 10-[(5-hydroxypentyl)oxy]-, \u03bf-lactone", "Musk R 1", "11-Oxa-16-hexadecanolide"], "SMILES": "O=C1CCCCCCCCCOCCCCCO1", "physical_data": {"Molecular Weight": "256.38", "Molecular Formula": "C15H28O3", "Boiling Point": "120 \u00b0C @ Press: 3 Torr", "Melting Point": "35 \u00b0C"}}