{"cas_no": "3391-10-4", "cn_name": "1-(4-\u6c2f\u82ef\u57fa)\u4e59\u9187", "en_name": ["1-(4-Chlorophenyl)ethanol", "Benzenemethanol, 4-chloro-\u03b1-methyl-", "Benzyl alcohol, p-chloro-\u03b1-methyl-", "4-Chloro-\u03b1-methylbenzenemethanol", "\u03b1-(p-Chlorophenyl)ethanol", "p-Chloro-\u03b1-methylbenzyl alcohol", "1-(4-Chlorophenyl)ethanol", "1-(p-Chlorophenyl)ethanol", "1-p-Chlorophenylethyl alcohol", "4-Chlorophenylmethylcarbinol", "p-Chloro-\u03b1-phenylethanol", "1-(4-Chlorophenyl)ethan-1-ol", "(\u00b1)-1-(4-Chlorophenyl)ethanol", "NSC 87867", "(\u00b1)-1-(p-Chlorophenyl)ethanol", "CPE", "\u03b1-Methyl-4-chlorobenzenemethanol", "4-Chloro-\u03b1-methylbenzyl alcohol", "CPE (chlorophenyl ethanol)", "\u03b1-Methyl-4-chlorobenzyl alcohol"], "SMILES": "C(C)(O)C1=CC=C(Cl)C=C1", "physical_data": {"Molecular Weight": "156.61", "Molecular Formula": "C8H9ClO", "Boiling Point": "140-142 \u00b0C @ Press: 31 Torr", "Density": "1.171 g/cm\u00b3 @ Temp: 20 \u00b0C"}}