{"cas_no": "3391-86-4", "cn_name": "1-\u8f9b\u70ef-3-\u9187", "en_name": ["1-Octen-3-ol", "1-Octen-3-ol", "Amyl vinyl carbinol", "Vinyl amyl carbinol", "3-Hydroxy-1-octene", "n-Oct-1-en-3-ol", "1-Vinylhexanol", "Pentylvinylcarbinol", "(\u00b1)-1-Octen-3-ol", "dl-1-Octen-3-ol", "NSC 87563", "Primaverol", "Morrilol", "Moguchun", "Morillol", "Omega"], "SMILES": "C(CCCCC)(C=C)O", "physical_data": {"Molecular Weight": "128.21", "Molecular Formula": "C8H16O", "Boiling Point": "55.0-55.5 \u00b0C @ Press: 5 Torr", "Density": "0.8324 g/cm\u00b3 @ Temp: 25 \u00b0C"}}