{"cas_no": "3391-99-9", "cn_name": "N-(\u82ef\u57fa\u7532\u6c27\u57fa\u7fb0\u57fa)-L-\u5f02\u4eae\u6c28\u9178 2,5-\u4e8c\u6c27\u4ee3-1-\u5421\u54af\u70f7\u57fa\u916f", "en_name": ["L-Isoleucine, N-[(phenylmethoxy)carbonyl]-, 2,5-dioxo-1-pyrrolidinyl ester", "L-Isoleucine, N-[(phenylmethoxy)carbonyl]-, 2,5-dioxo-1-pyrrolidinyl ester", "Succinimide, N-[(N-carboxy-L-isoleucyl)oxy]-, benzyl ester", "Carbamic acid, [1-[[(2,5-dioxo-1-pyrrolidinyl)oxy]carbonyl]-2-methylbutyl]-, phenylmethyl ester, [S-(R*,R*)]-", "Carbamic acid, [(1S,2S)-1-[[(2,5-dioxo-1-pyrrolidinyl)oxy]carbonyl]-2-methylbutyl]-, phenylmethyl ester", "Isoleucine, N-carboxy-, N-benzyl ester, O-succinimido deriv., L-", "N-\u03b1-Carbobenzoxy-L-isoleucine-N-hydroxysuccinimide ester", "Cbz-Ile-OSu"], "SMILES": "O(C(C(NC(OCC1=CC=CC=C1)=O)C(CC)C)=O)N2C(=O)CCC2=O", "physical_data": {"Molecular Weight": "362.38", "Molecular Formula": "C18H22N2O6", "Melting Point": "115-116 \u00b0C"}}