{"cas_no": "3392-11-8", "cn_name": "BOC-L-\u8272\u6c28\u9178\u7f9f\u57fa\u7425\u73c0\u9170\u4e9a\u80fa\u916f", "en_name": ["N-[(1,1-Dimethylethoxy)carbonyl]-L-tryptophan 2,5-dioxo-1-pyrrolidinyl ester", "L-Tryptophan, N-[(1,1-dimethylethoxy)carbonyl]-, 2,5-dioxo-1-pyrrolidinyl ester", "Succinimide, N-[(N-carboxy-L-tryptophyl)oxy]-, tert-butyl ester", "Carbamic acid, [2-[(2,5-dioxo-1-pyrrolidinyl)oxy]-1-(1H-indol-3-ylmethyl)-2-oxoethyl]-, 1,1-dimethylethyl ester, (S)-", "Carbamic acid, [(1S)-2-[(2,5-dioxo-1-pyrrolidinyl)oxy]-1-(1H-indol-3-ylmethyl)-2-oxoethyl]-, 1,1-dimethylethyl ester", "N-[(1,1-Dimethylethoxy)carbonyl]-L-tryptophan 2,5-dioxo-1-pyrrolidinyl ester", "NSC 164059", "(2,5-Dioxopyrrolidin-1-yl) (2S)-3-(1H-indol-3-yl)-2-[(2-methylpropan-2-yl)oxycarbonylamino]propanoate"], "SMILES": "C(C(C(ON1C(=O)CCC1=O)=O)NC(OC(C)(C)C)=O)C=2C=3C(NC2)=CC=CC3", "physical_data": {"Molecular Weight": "401.41", "Molecular Formula": "C20H23N3O6", "Melting Point": "153-154 \u00b0C"}}