{"cas_no": "3392-05-0", "cn_name": "\u53d4\u4e01\u6c27\u7fb0\u57fa-L-\u4e19\u6c28\u9178 N-\u4e01\u4e8c\u9170\u4e9a\u80fa\u916f", "en_name": ["tert-Butyloxycarbonyl-L-alanine-N-hydroxysuccinimide", "L-Alanine, N-[(1,1-dimethylethoxy)carbonyl]-, 2,5-dioxo-1-pyrrolidinyl ester", "Succinimide, N-[(N-carboxy-L-alanyl)oxy]-, tert-butyl ester", "Carbamic acid, [2-[(2,5-dioxo-1-pyrrolidinyl)oxy]-1-methyl-2-oxoethyl]-, 1,1-dimethylethyl ester, (S)-", "Carbamic acid, [(1S)-2-[(2,5-dioxo-1-pyrrolidinyl)oxy]-1-methyl-2-oxoethyl]-, 1,1-dimethylethyl ester", "Alanine, N-carboxy-, N-tert-butyl ester, succinimido deriv., L-", "L-Alanine, 2,5-pyrrolidinedione deriv.", "N-tert-Butoxycarbonyl-L-alanine N-hydroxysuccinimide ester", "tert-Butoxycarbonyl-L-alanine succinimido ester", "N-tert-Butyloxycarbonyl-L-alanine N-hydroxysuccinimide ester", "tert-Butyloxycarbonyl-L-alanine-N-hydroxysuccinimide", "NSC 334372", "tert-Butyloxycarbonyl-L-alanine N-hydroxysuccinimide ester", "(S)-2,5-Dioxopyrrolidin-1-yl 2-((tert-butoxycarbonyl)amino)propanoate", "2,5-Dioxopyrrolidin-1-yl (tert-butoxycarbonyl)-L-alaninate"], "SMILES": "O(C(C(NC(OC(C)(C)C)=O)C)=O)N1C(=O)CCC1=O", "physical_data": {"Molecular Weight": "286.28", "Molecular Formula": "C12H18N2O6", "Melting Point": "143-144 \u00b0C"}}