{"cas_no": "3392-07-2", "cn_name": "BOC-\u7518\u6c28\u9178-N-\u7f9f\u57fa\u7425\u67cf\u9170\u4e9a\u80fa\u916f", "en_name": ["N-(tert-Butyloxycarbonyl)glycine N-hydroxysuccinimide ester", "Glycine, N-[(1,1-dimethylethoxy)carbonyl]-, 2,5-dioxo-1-pyrrolidinyl ester", "Succinimide, N-[(N-carboxyglycyl)oxy]-, tert-butyl ester", "Carbamic acid, [2-[(2,5-dioxo-1-pyrrolidinyl)oxy]-2-oxoethyl]-, 1,1-dimethylethyl ester", "N-[[N-(tert-Butoxycarbonyl)glycyl]oxy]succinimide", "N-(tert-Butyloxycarbonyl)glycine N-hydroxysuccinimide ester", "NSC 164050", "tert-Butyl [2-[(2,5-dioxo-1-pyrrolidinyl)oxy]-2-oxoethyl]carbamate", "2,5-Dioxopyrrolidin-1-yl 2-(tert-butoxycarbonylamino)acetate", "N-Boc-glycine N-hydroxysuccinimidyl ester", "N-Boc-glycine hydroxysuccinimide ester", "N-tert-Butoxycarbonylglycine N-hydroxysuccinimide ester"], "SMILES": "O(C(CNC(OC(C)(C)C)=O)=O)N1C(=O)CCC1=O", "physical_data": {"Molecular Weight": "272.25", "Molecular Formula": "C11H16N2O6", "Melting Point": "168-170 \u00b0C"}}