{"cas_no": "3392-08-3", "cn_name": "BOC-ILE-OSU", "en_name": ["L-Isoleucine, N-[(1,1-dimethylethoxy)carbonyl]-, 2,5-dioxo-1-pyrrolidinyl ester", "L-Isoleucine, N-[(1,1-dimethylethoxy)carbonyl]-, 2,5-dioxo-1-pyrrolidinyl ester", "Succinimide, N-[(N-carboxy-L-isoleucyl)oxy]-, tert-butyl ester", "Carbamic acid, [1-[[(2,5-dioxo-1-pyrrolidinyl)oxy]carbonyl]-2-methylbutyl]-, 1,1-dimethylethyl ester, [S-(R*,R*)]-", "Carbamic acid, [(1S,2S)-1-[[(2,5-dioxo-1-pyrrolidinyl)oxy]carbonyl]-2-methylbutyl]-, 1,1-dimethylethyl ester", "L-Isoleucine, 2,5-pyrrolidinedione deriv.", "N-(tert-Butyloxycarbonyl)-L-isoleucine N-hydroxysuccinimide ester", "N-(tert-Butoxycarbonyl)-L-isoleucine succinimide ester", "2,5-Pyrrolidinedione, 1-[[N-[(1,1-dimethylethoxy)carbonyl]-L-isoleucyl]oxy]-", "NSC 334339", "33: PN: US20070066537 PAGE: 12 claimed protein"], "SMILES": "O(C(C(NC(OC(C)(C)C)=O)C(CC)C)=O)N1C(=O)CCC1=O", "physical_data": {"Molecular Weight": "328.36", "Molecular Formula": "C15H24N2O6", "Melting Point": "92-93 \u00b0C"}}