{"cas_no": "3392-12-9", "cn_name": "Boc-L-\u7f2c\u6c28\u9178\u7f9f\u57fa\u7425\u73c0\u9170\u4e9a\u80fa\u916f", "en_name": ["L-Valine, N-[(1,1-dimethylethoxy)carbonyl]-, 2,5-dioxo-1-pyrrolidinyl ester", "L-Valine, N-[(1,1-dimethylethoxy)carbonyl]-, 2,5-dioxo-1-pyrrolidinyl ester", "Succinimide, N-[(N-carboxy-L-valyl)oxy]-, tert-butyl ester", "Carbamic acid, [1-[[(2,5-dioxo-1-pyrrolidinyl)oxy]carbonyl]-2-methylpropyl]-, 1,1-dimethylethyl ester, (S)-", "Carbamic acid, [(1S)-1-[[(2,5-dioxo-1-pyrrolidinyl)oxy]carbonyl]-2-methylpropyl]-, 1,1-dimethylethyl ester", "Valine, N-carboxy-, N-tert-butyl ester, succinimido deriv., L-", "N-(tert-Butyloxycarbonyl)-L-valine ester with N-hydroxysuccinimide", "tert-Butoxycarbonyl-L-valine N-hydroxysuccinimide ester", "N-tert-Butyloxycarbonyl-L-valine N-hydroxysuccinimide ester", "tert-Butoxycarbonylvaline succinimide ester", "NSC 164060", "38: PN: US20070066537 PAGE: 13 claimed protein", "(2,5-Dioxopyrrolidin-1-yl) (2S)-3-methyl-2-[(2-methylpropan-2-yl)oxycarbonylamino]butanoate"], "SMILES": "O(C(C(NC(OC(C)(C)C)=O)C(C)C)=O)N1C(=O)CCC1=O", "physical_data": {"Molecular Weight": "314.33", "Molecular Formula": "C14H22N2O6", "Melting Point": "128-129 \u00b0C"}}