{"cas_no": "33924-49-1", "cn_name": "N-\u82ef\u4e59\u57fa-5-\u6c2f-2-\u7532\u6c27\u57fa\u82ef\u7532\u9170\u80fa", "en_name": ["5-Chloro-2-methoxy-N-(2-phenylethyl)benzamide", "Benzamide, 5-chloro-2-methoxy-N-(2-phenylethyl)-", "o-Anisamide, 5-chloro-N-phenethyl-", "5-Chloro-2-methoxy-N-(2-phenylethyl)benzamide", "N-Phenethyl-5-chloro-2-methoxybenzamide", "5-Chloro-2-methoxy-N-phenethylbenzamide"], "SMILES": "C(NCCC1=CC=CC=C1)(=O)C2=C(OC)C=CC(Cl)=C2", "physical_data": {"Molecular Weight": "289.76", "Molecular Formula": "C16H16ClNO2", "Melting Point": "62 \u00b0C"}}